/*--------------------------------*- C++ -*----------------------------------*\
| =========                 |                                                 |
| \\      /  F ield         | OpenFOAM: The Open Source CFD Toolbox           |
|  \\    /   O peration     | Version:  2.4.0                                 |
|   \\  /    A nd           | Web:      www.OpenFOAM.org                      |
|    \\/     M anipulation  |                                                 |
\*---------------------------------------------------------------------------*/
FoamFile
{
    version     2.0;
    format      ascii;
    class       volScalarField;
    location    "0.104";
    object      p_rgh;
}
// * * * * * * * * * * * * * * * * * * * * * * * * * * * * * * * * * * * * * //

dimensions      [1 -1 -2 0 0 0 0];

internalField   nonuniform List<scalar> 
3600
(
107.12
107.745
107.154
105.386
102.757
99.3691
95.4392
91.5369
87.8201
84.3326
81.8928
79.7342
79.6751
79.5987
81.5694
83.906
85.8933
88.1143
90.0297
91.7955
91.0804
89.6007
90.7713
91.4084
91.5019
91.0996
90.6393
90.7631
91.1687
94.0008
107.123
107.751
107.161
105.392
102.761
99.3727
95.4361
91.5321
87.8095
84.3111
81.8613
79.6883
79.5961
79.5197
81.472
83.8492
85.8386
88.0926
90.1119
91.9753
90.5257
89.0441
89.6694
90.2557
90.5429
90.4565
90.1079
90.5323
91.9171
93.0802
107.122
107.76
107.174
105.406
102.773
99.3832
95.4334
91.5261
87.7911
84.2729
81.7984
79.6078
79.4553
79.3546
81.2736
83.7128
85.6692
87.964
89.9666
91.7402
90.345
88.0997
88.3726
89.1783
89.7909
90.0585
90.1095
91.1329
93.2693
93.9571
107.12
107.773
107.195
105.429
102.793
99.4013
95.4314
91.5191
87.7647
84.217
81.7043
79.4871
79.2727
79.1363
80.9504
83.477
85.3977
87.7327
89.608
91.2682
89.8855
87.0992
86.7021
87.6322
88.8004
89.7656
90.5583
91.6437
93.6436
94.4741
107.115
107.79
107.223
105.46
102.822
99.427
95.4298
91.5111
87.7305
84.1432
81.5779
79.3201
79.0581
78.8787
80.6035
83.121
85.084
87.4729
89.1565
90.4548
89.0952
86.167
84.5555
85.9422
87.8136
89.5293
90.9905
92.4188
93.2804
93.8041
107.108
107.812
107.259
105.499
102.858
99.4606
95.4284
91.5024
87.6886
84.0514
81.4189
79.0992
78.8161
78.5764
80.3132
82.698
84.7673
87.2231
88.7918
89.7092
88.5655
85.6239
83.7491
85.3871
87.6007
89.5436
91.2504
92.8907
93.8313
94.1658
107.099
107.837
107.303
105.547
102.903
99.5024
95.427
91.4936
87.6395
83.9418
81.2278
78.8213
78.4583
78.1854
80.1077
82.2623
84.4457
86.9898
88.4477
89.5151
88.608
86.0132
84.2035
85.5518
87.9588
89.9189
91.411
92.884
94.1028
94.5213
107.087
107.867
107.354
105.604
102.957
99.5527
95.4251
91.4851
87.5837
83.8146
81.0054
78.5026
78.0261
77.6681
79.8055
81.8151
84.0992
86.7599
88.1295
89.4007
88.8317
86.9448
85.439
86.3526
88.9396
90.73
92.1051
93.338
94.7094
95.0664
107.072
107.9
107.413
105.669
103.018
99.6117
95.4222
91.4776
87.5217
83.6696
80.753
78.1587
77.5272
77.1109
79.2747
81.2831
83.6917
86.5855
88.0082
89.3727
89.2769
88.1003
87.1165
87.7359
90.3914
92.3627
93.7096
94.7315
95.7717
96.2573
107.054
107.938
107.48
105.743
103.088
99.6799
95.4179
91.472
87.4544
83.5062
80.4722
77.7775
76.9473
76.4929
78.5538
80.8029
83.342
86.4592
88.0645
89.3858
89.8769
89.4474
89.4138
90.5502
92.1703
93.6293
95.0647
96.0773
96.7248
97.0048
107.034
107.98
107.555
105.827
103.166
99.7576
95.4116
91.4692
87.3823
83.3243
80.1641
77.3419
76.2715
75.7411
77.7252
80.4175
83.1066
86.3214
88.1155
89.4977
90.5243
90.9519
91.5328
92.4833
93.8097
94.768
95.7856
96.9741
97.5026
97.6235
107.009
108.026
107.637
105.919
103.253
99.8452
95.4024
91.4706
87.3063
83.1234
79.8301
76.853
75.5188
74.8662
76.7816
79.9169
82.8828
86.1649
88.2662
89.8089
91.0175
92.1048
93.1467
93.9943
94.7684
95.5579
96.1936
97.8971
99.1341
99.1976
106.981
108.075
107.728
106.02
103.348
99.9432
95.3895
91.4778
87.2272
82.9029
79.4722
76.3237
74.6693
73.8549
75.7193
79.2327
82.6409
86.0909
88.4919
90.4259
91.7084
92.9419
94.0373
94.8799
95.408
96.5174
97.7324
98.2785
98.9837
99.1706
106.949
108.129
107.827
106.131
103.452
100.052
95.3718
91.4925
87.1459
82.6611
79.0947
75.7564
73.7092
72.6824
74.4778
78.4511
82.3747
86.1325
88.5989
90.505
92.1091
93.5964
95.1835
96.037
95.9977
96.234
96.8084
97.5475
98.5341
99.54
106.912
108.186
107.933
106.251
103.565
100.172
95.348
91.5172
87.0631
82.3968
78.7031
75.1457
72.6079
71.3413
73.052
77.6522
82.1289
86.1755
89.3657
91.5434
93.053
94.2904
95.4155
95.7853
96.2159
97.025
97.4894
98.2003
99.8957
101.449
106.87
108.247
108.049
106.38
103.686
100.303
95.3163
91.5546
86.9793
82.1084
78.306
74.4765
71.43
69.7815
71.5192
76.7909
81.9642
86.2696
89.4265
92.1411
93.8484
95.1368
96.1713
95.952
95.7329
96.601
98.2136
99.9628
101.397
102.147
106.823
108.312
108.172
106.519
103.817
100.447
95.2747
91.6074
86.8948
81.7952
77.9088
73.7662
70.1883
67.9977
69.671
75.9712
81.9544
86.2586
89.9908
92.7794
94.801
96.2801
97.2351
95.9206
95.4815
96.5752
98.537
100.291
101.306
101.701
106.769
108.381
108.304
106.668
103.957
100.605
95.2208
91.6786
86.8098
81.455
77.5217
73.0654
68.7784
65.8836
67.3571
74.6326
82.0508
86.2669
90.2412
93.9087
95.7102
96.85
97.7189
96.6987
96.5373
98.051
99.2963
100.4
101.139
101.58
106.71
108.453
108.445
106.827
104.107
100.777
95.1516
91.7708
86.7244
81.0838
77.1597
72.3755
67.1258
61.4755
64.418
73.3716
82.2159
86.3274
90.718
94.7512
96.0688
96.0446
96.3257
96.3496
97.7601
100.381
100.655
100.568
101.026
101.473
106.643
108.529
108.595
106.996
104.267
100.967
95.0632
91.8864
86.6381
80.6765
76.8391
71.6663
65.2769
60.6933
60.8459
72.4255
82.6554
85.8694
92.2111
96.7773
97.5664
96.2886
96.1268
96.7941
99.2163
101.218
101.402
100.989
101.347
101.773
106.568
108.608
108.753
107.176
104.438
101.166
94.9668
92.0275
86.5503
80.2295
76.5859
70.9653
57.8301
28.2905
43.7619
69.3293
82.8638
87.8902
89.905
97.0467
99.1159
97.011
97.3603
97.5386
99.985
101.509
101.827
101.864
102.147
102.569
106.485
108.69
108.921
107.366
104.621
101.36
94.8754
92.196
86.4647
79.7474
76.4507
60.4141
17.395
16.3883
44.0931
68.5698
83.8518
86.4155
90.3867
100.598
100.137
95.786
97.6956
98.3696
99.9188
101.657
102.508
102.879
103.105
103.441
106.392
108.776
109.098
107.567
104.816
101.553
94.7866
92.3942
86.4002
79.2236
72.2848
16.5801
1.43077
4.92932
18.3316
63.6934
84.2777
86.3259
92.9249
101.279
99.9063
93.9198
96.5942
98.7273
100.127
101.656
102.926
103.573
103.872
104.142
106.29
108.865
109.284
107.779
105.025
101.745
94.6992
92.627
86.3691
77.8304
24.5278
9.37387
1.1392
0.2764
3.88891
56.5545
88.3035
87.4028
93.9676
102.169
95.8289
93.6479
93.7474
97.294
100.002
101.914
103.262
104.259
104.811
105.087
106.175
108.956
109.48
108.002
105.249
101.936
94.6123
92.883
86.2836
39.2013
0.583612
0.0522948
0.871771
0.177861
0.286084
27.4846
78.7959
88.4664
93.1631
99.5319
94.8141
91.0054
89.8224
94.4329
99.7601
102.279
103.999
105.423
106.198
106.449
106.05
109.056
109.686
108.237
105.489
102.122
94.5284
93.0673
78.0555
3.59956
0.0762342
0.10933
0.237362
0.140213
0.153262
5.41209
62.1318
87.8642
93.4484
99.2809
95.3545
89.7369
84.2688
94.0406
100.457
103.994
106.196
107.397
108.055
108.258
105.91
109.118
109.903
108.483
105.749
102.302
94.4492
92.2324
22.6614
0.260787
0.0590872
0.0959017
0.0796206
0.102156
0.151669
-0.200619
15.7918
76.9969
93.2577
98.2904
94.491
86.7463
81.0991
94.5253
102.548
107.321
109.383
109.986
110.293
110.424
105.751
109.32
110.128
108.74
106.028
102.48
94.2683
80.4035
2.24925
0.0709495
0.0452645
0.0797027
0.0601999
0.0413934
0.387063
-0.255127
0.270718
43.1667
91.5676
95.9775
92.188
81.8279
79.6686
94.5545
104.653
110.596
112.307
112.582
112.705
112.772
105.617
109.256
110.369
109.009
106.328
102.658
93.6722
14.0465
-0.050477
0.0607088
0.0200379
0.0640189
0.0330108
0.0103653
0.258284
-0.202178
0.43509
6.84926
58.9836
94.3577
91.5096
83.5307
84.3858
95.7291
107.81
113.266
115.082
115.136
115.154
115.221
105.33
109.523
110.614
109.289
106.636
101.219
52.6374
-0.0226523
-0.0436295
0.0594332
0.00462122
0.0476141
0.0184527
0.0123367
0.0972933
-0.160512
0.309291
0.00841027
24.3744
78.3478
92.4394
90.2513
93.9069
102.309
112.577
116.119
117.979
117.704
117.684
117.65
93.2944
93.5411
92.3291
91.7028
91.9878
92.2372
92.0311
91.3931
90.1796
91.6268
92.3534
90.6315
88.7604
86.5799
84.6253
82.3047
80.3259
80.3253
80.2176
82.218
84.5569
87.9527
91.6243
95.4919
99.3954
102.763
105.379
107.136
107.72
107.095
93.0763
92.7347
91.4483
90.8885
91.2264
91.2309
90.8747
90.273
89.629
91.0963
92.522
90.7097
88.7384
86.5241
84.5696
82.2095
80.2503
80.2501
80.1707
82.1856
84.5341
87.9415
91.6191
95.4887
99.399
102.767
105.385
107.142
107.726
107.098
94.0243
93.6947
91.725
90.7323
90.7024
90.4389
89.7872
88.9823
88.6745
90.8921
92.2885
90.5576
88.606
86.3532
84.4344
82.0163
80.0923
80.1174
80.0874
82.1211
84.493
87.9217
91.6125
95.4857
99.4092
102.779
105.399
107.156
107.735
107.097
94.6193
93.9311
92.0861
91.0713
90.3146
89.3621
88.2159
87.2858
87.6442
90.4162
91.8086
90.1927
88.3693
86.0801
84.2003
81.7005
79.8845
79.9464
79.9621
82.0243
84.4328
87.8933
91.6044
95.4832
99.4269
102.799
105.421
107.177
107.748
107.095
93.8889
93.4785
92.7341
91.4048
89.9939
88.3238
86.4893
85.1279
86.679
89.6397
91.0115
89.7364
88.103
85.7648
83.8479
81.3687
79.64
79.7467
79.7886
81.8942
84.3532
87.8564
91.5951
95.481
99.4521
102.827
105.452
107.205
107.765
107.09
94.2069
93.964
93.1463
91.6066
89.9455
88.0423
85.8967
84.3002
86.1271
89.0784
90.2556
89.3697
87.844
85.4457
83.4295
81.0995
79.3536
79.499
79.5594
81.7304
84.2539
87.8112
91.5849
95.4789
99.4851
102.863
105.491
107.241
107.786
107.083
94.5657
94.2196
93.1259
91.7429
90.2907
88.3654
86.0366
84.7241
86.5232
89.1255
90.0637
89.0175
87.5972
85.1208
82.998
80.9136
78.9802
79.1618
79.2727
81.5332
84.1351
87.7581
91.5742
95.4766
99.5262
102.908
105.539
107.284
107.812
107.074
95.1076
94.7491
93.621
92.4363
91.102
89.334
86.8262
85.9468
87.4465
89.3462
89.9445
88.6922
87.353
84.7715
82.5533
80.6271
78.4097
78.7537
78.9454
81.3034
83.9969
87.6978
91.5637
95.4737
99.5755
102.961
105.596
107.335
107.841
107.062
96.2812
95.8662
94.9481
94.0124
92.692
90.7685
88.1815
87.574
88.5771
89.786
89.9224
88.5628
87.1655
84.3645
82.0251
80.1133
77.8772
78.2845
78.5925
81.0418
83.8388
87.6309
91.554
95.4698
99.6335
103.022
105.661
107.394
107.875
107.047
97.0358
96.8097
96.2367
95.2795
93.8781
92.5034
90.9946
89.9006
89.9498
90.3804
89.9291
88.6257
87.0314
83.9997
81.559
79.4234
77.3241
77.7377
78.2011
80.7496
83.6601
87.5582
91.546
95.4643
99.7005
103.091
105.735
107.461
107.912
107.029
97.6119
97.5178
96.9961
95.818
94.9801
94.107
92.8401
91.9507
91.4255
91.0236
90.0439
88.6806
86.8827
83.7445
81.1818
78.6325
76.6124
77.0983
77.7563
80.4274
83.4603
87.4804
91.5407
95.4567
99.7769
103.169
105.818
107.535
107.954
107.008
99.2532
99.0603
97.6783
96.1685
95.7768
95.0299
94.309
93.5519
92.5831
91.5521
90.3855
88.8325
86.7111
83.4811
80.6814
77.7289
75.7824
76.3848
77.26
80.0756
83.2388
87.3985
91.5396
95.4461
99.8631
103.255
105.909
107.618
107.999
106.984
99.1375
98.9005
98.1839
97.7454
96.6769
95.726
95.2827
94.4525
93.3769
92.2011
90.9651
89.0563
86.6051
83.1985
79.9674
76.7204
74.8245
75.5766
76.7247
79.695
82.9946
87.3136
91.5442
95.4318
99.9594
103.349
106.01
107.708
108.048
106.956
99.5183
98.4268
97.5035
96.9327
96.4753
96.2731
96.3105
95.5551
94.1084
92.7378
91.1819
89.2452
86.5997
82.8388
79.1698
75.5401
73.7213
74.6514
76.1531
79.2888
82.7261
87.2269
91.5564
95.4127
100.066
103.452
106.121
107.807
108.102
106.923
101.372
99.8077
98.3326
97.7433
97.2158
96.3975
96.2308
95.9945
94.8797
93.5463
92.0441
89.8968
86.5823
82.5028
78.3287
74.212
72.4643
73.5788
75.5442
78.8604
82.4314
87.1394
91.5787
95.3875
100.184
103.563
106.24
107.913
108.159
106.887
102.105
101.263
99.7958
98.1374
96.484
95.7823
96.6287
96.929
95.6312
94.3353
92.6179
90.1269
86.6358
82.1484
77.5067
72.7613
71.0113
72.4308
74.8904
78.416
82.1086
87.052
91.6139
95.3544
100.313
103.684
106.369
108.028
108.22
106.845
101.692
101.253
100.204
98.4551
96.5199
95.6179
97.0839
98.2583
96.696
95.1949
93.3992
90.7609
86.6968
81.9188
76.5523
71.033
69.3498
71.2388
74.2075
77.958
81.7565
86.9657
91.6647
95.3115
100.455
103.813
106.508
108.151
108.284
106.797
101.584
101.148
100.407
99.2896
98.1599
96.9411
97.5929
98.2865
96.9516
95.8511
94.4222
91.3689
86.6466
81.4447
75.1318
68.8111
67.4162
69.8795
73.5289
77.495
81.3722
86.8813
91.7343
95.2563
100.609
103.952
106.657
108.283
108.352
106.744
101.495
101.108
100.704
100.777
100.526
97.8818
97.0953
97.1693
96.4516
97.0512
95.6993
91.3174
86.5518
81.3342
73.9102
66.2321
65.0519
68.2746
72.8602
77.0407
80.9513
86.8002
91.8253
95.1859
100.778
104.101
106.815
108.423
108.424
106.685
101.779
101.408
101.249
101.737
101.582
99.4461
97.3349
97.3167
96.9484
97.0218
96.2864
92.5378
86.483
81.0626
72.4973
62.4718
62.5014
66.4225
72.2112
76.6058
80.4867
86.723
91.9402
95.0961
100.964
104.26
106.984
108.573
108.499
106.618
102.611
102.278
102.097
102.19
101.992
100.387
97.761
97.2125
96.2202
99.8621
98.9314
91.5758
86.8713
80.3855
69.6182
40.8192
42.0426
58.395
71.605
76.203
79.9736
86.651
92.0811
94.9969
101.159
104.43
107.164
108.731
108.578
106.543
103.505
103.275
103.153
102.926
102.341
100.58
98.527
98.8644
97.1168
104.524
100.305
93.207
87.1719
79.9595
67.5698
37.1356
19.0962
18.2304
64.9316
75.8667
79.4241
86.5897
92.2499
94.9021
101.35
104.612
107.354
108.898
108.66
106.46
104.207
104.036
103.93
103.529
102.497
101.053
99.3921
96.9776
102.69
100.768
98.981
92.9894
87.2129
80.6587
60.8616
32.4718
7.20148
1.384
17.8899
71.1603
78.841
86.5599
92.4489
94.8091
101.54
104.806
107.555
109.075
108.745
106.367
105.129
104.94
104.627
103.923
102.809
101.375
98.6094
91.9781
95.9213
101.365
100.674
92.8839
88.3912
81.3911
43.6032
10.1254
0.139975
0.261643
0.120962
22.6948
77.2509
86.5759
92.682
94.7171
101.728
105.014
107.767
109.261
108.834
106.265
106.489
106.223
105.646
104.373
102.707
100.387
94.9301
84.8071
90.6763
101.29
99.5058
93.561
90.0024
71.3591
19.4807
0.692915
0.114998
0.246176
0.0969745
0.158137
37.4841
86.5377
92.9366
94.6247
101.912
105.238
107.99
109.457
108.924
106.151
108.282
107.936
107.276
105.877
103.765
100.329
93.828
81.3184
85.0801
100.681
101.535
95.1187
90.6932
53.9964
1.88219
-0.28992
0.0786761
0.192496
0.0849301
0.12914
2.55185
78.2414
93.1164
94.5348
102.093
105.478
108.224
109.662
109.024
106.025
110.419
110.095
109.611
108.742
106.863
102.716
94.7838
80.3452
82.6173
99.3375
101.956
95.9982
84.5564
19.0137
0.376665
-0.237139
0.0369869
0.143947
0.0658883
0.0877635
0.188637
22.5653
92.2773
94.4488
102.266
105.738
108.47
109.879
109.085
105.886
112.753
112.487
112.176
111.787
110.377
105.413
95.7973
79.7675
80.0276
97.0293
99.2034
94.9996
61.4885
0.903564
-0.0931528
-0.219659
0.0155496
0.109454
0.0448737
0.0605095
-0.0568295
2.22826
80.4359
94.2621
102.435
106.018
108.728
110.103
109.287
105.727
115.159
114.978
114.799
114.612
113.38
108.663
97.1641
84.7581
82.6375
95.4184
97.6834
81.9626
10.6155
0.139857
-0.0360102
-0.163647
-0.000964601
0.0836185
0.0275639
0.0396893
-0.0501638
-0.0529061
13.9666
93.6706
102.601
106.319
108.997
110.344
109.222
105.593
117.61
117.498
117.453
117.546
116.265
113.148
103.146
93.5204
88.803
94.7297
90.9526
39.1324
0.0584825
0.0679785
-0.00392153
-0.11454
-0.00106958
0.065149
0.0156851
0.0285026
-0.0341498
-0.0448714
-0.0392133
52.6308
101.154
106.629
109.277
110.588
109.489
105.306
105.321
109.583
110.792
109.497
106.813
93.3816
3.08797
0.0121469
-0.0342277
0.053973
-0.0036004
0.0391466
0.0203025
0.0123728
0.0792028
-0.117684
0.234588
0.016105
0.370967
47.7808
90.5232
95.773
102.104
107.615
116.361
118.783
120.02
119.602
119.485
119.439
105.286
109.646
110.937
109.625
106.69
87.2614
3.74278
0.0149723
-0.0293129
0.0503329
-0.00808934
0.0356553
0.0244291
0.0120309
0.0852833
-0.0576815
0.226984
0.0417118
0.155306
8.93129
71.3565
99.0192
107.106
111.93
118.649
120.736
121.205
120.959
120.695
120.586
104.449
109.49
111.124
109.749
102.084
17.1637
-0.0739574
0.0107833
-0.0246569
0.0472265
-0.0114061
0.0348516
0.0294725
0.0112653
0.0784727
0.0287079
0.197964
0.0251994
0.0450232
-0.0526854
37.5367
103.916
111.335
115.986
120.523
122.615
122.407
122.267
121.809
121.776
63.9118
102.325
111.05
108.399
91.8169
2.22064
-0.0367964
0.00766292
-0.0194333
0.0444331
-0.0133575
0.0361357
0.0346154
0.00911079
0.0805139
0.0388468
0.166959
0.0527555
0.0362118
-0.00789729
7.26671
108.175
115.436
119.912
121.822
124.174
123.484
123.249
122.928
122.805
45.7495
99.7095
108.507
100.051
34.2903
0.350046
-0.0140523
0.00268276
-0.0158358
0.0417379
-0.0139592
0.0372995
0.038495
0.0053628
0.209644
0.0245047
0.136949
0.0495413
0.011697
-0.0223882
-0.119275
57.9952
119.533
123.558
122.743
125.208
124.498
124.596
124.302
124.149
23.7805
79.37
97.3165
61.216
0.100974
0.099629
-0.0188689
0.00615369
-0.013116
0.0392049
-0.0130764
0.0367505
0.0389847
-0.00122398
0.275268
0.0261523
0.111983
0.0483208
0.0316962
-0.000343339
-0.0418698
13.285
123.151
126.663
124.569
126.238
125.89
125.774
125.833
125.547
3.61727
26.0927
42.8241
8.49969
0.152256
0.0999361
-0.0161442
0.0083422
-0.0107908
0.0368747
-0.0106015
0.0357854
0.0374075
-0.0095663
0.233018
0.0141979
0.0901421
0.0445487
0.0228465
0.0326976
-0.0693037
2.11626
78.1566
128.345
126.227
127.315
127.318
128.141
128.316
127.93
-0.00253445
-0.0189064
0.446049
-0.0610258
0.00232782
0.0939697
-0.0144934
0.0111957
-0.00858575
0.0347183
-0.00670437
0.0356285
0.0341447
-5.40718e-05
0.192182
0.013796
0.0692381
0.038494
0.0116904
0.017865
-0.111867
-0.111061
7.26258
106.56
129.66
127.957
129.639
129.851
129.678
129.466
-0.00220046
-0.0174542
-0.0258871
-0.0566059
0.00392897
0.085778
-0.0122246
0.0135539
-0.00635065
0.0326953
-0.00200882
0.0360319
0.0320186
0.0126847
0.183772
0.0132116
0.0516253
0.0306302
0.00548918
-0.0126296
-0.0835752
-0.0398298
0.0155769
5.99721
74.3077
93.2728
125.505
129.559
130.171
130.064
-0.00220828
-0.0172361
-0.0265739
-0.0550199
0.00579246
0.0773873
-0.00967222
0.0153443
-0.00405182
0.0307757
0.00272175
0.0362267
0.0308392
0.026413
0.197839
0.00585546
0.0433939
0.021305
0.00149169
-0.0259501
-0.0472526
0.0130324
0.0297299
-0.047743
1.10431
18.111
30.2434
47.0977
57.1265
61.452
-0.00195973
-0.0168454
-0.0270312
-0.0532826
0.00740928
0.0688067
-0.00688506
0.0165637
-0.00170999
0.0289319
0.00692933
0.0359133
0.0310232
0.0317401
0.0315504
-0.00625256
0.0341936
0.0212525
0.000536991
-0.0156385
-0.029024
-0.00152815
0.0101969
0.0188227
0.0677879
0.0463775
0.0291948
0.0246789
0.0186414
0.0287281
-0.00182996
-0.0163794
-0.0272425
-0.0512834
0.00865666
0.0603814
-0.00391486
0.0172447
0.000633213
0.0271313
0.0103491
0.0350199
0.0314296
0.0281145
0.0342768
0.0123471
0.0301721
0.0313905
0.0040924
-0.000824317
-0.00683428
0.0131157
0.0249101
0.0314995
0.0443223
0.0555206
0.055312
0.0582884
0.0715479
0.0751724
-0.00184597
-0.0150954
-0.0269489
-0.0489864
0.00945726
0.0522514
-0.000832896
0.0174203
0.00292766
0.0253402
0.0129561
0.0335667
0.0318482
0.0237965
0.0495318
0.0177663
0.0129228
0.0150425
0.00933848
0.011797
0.0132994
0.0184554
0.0276018
0.0545244
0.0697536
0.0455032
0.0408276
0.0330749
0.0297062
0.0343652
-0.00191858
-0.0146364
-0.025145
-0.0462734
0.00986729
0.0445664
0.00225266
0.0171492
0.00511434
0.0235337
0.0148338
0.031638
0.031603
0.0206463
0.0549707
0.0221163
0.0122865
0.00637381
0.0301878
0.0422526
0.0430253
0.0290558
0.0359202
0.111727
0.0805319
0.0522973
0.0506272
0.0460452
0.0431106
0.0428127
-0.00200826
-0.0145222
-0.0241424
-0.0430982
0.00999609
0.0374736
0.00516574
0.0165107
0.00711815
0.021709
0.0160885
0.0294257
0.0309292
0.0206668
0.0490334
0.0252203
0.0159796
0.0100877
0.0267842
0.0465718
0.0462041
0.031287
0.0551452
0.118728
0.117944
0.0688674
0.0596061
0.0553858
0.0521323
0.0497988
-0.00211322
-0.0153997
-0.0229728
-0.0394936
0.00999959
0.0310957
0.00767473
0.0156112
0.0088453
0.0198986
0.0168012
0.0270943
0.0297342
0.0215661
0.0454688
0.0261831
0.0198487
0.0164003
0.0107158
0.0168541
0.0248855
0.0302467
0.0550149
0.119816
0.122126
0.0792806
0.0692026
0.063971
0.0592019
0.0554215
-0.00227346
-0.0145639
-0.0226863
-0.0355637
0.0100627
0.0255425
0.00955588
0.0145752
0.0101897
0.0181694
0.0170072
0.0247269
0.0278835
0.0218263
0.0399051
0.0250949
0.0197404
0.0202377
0.0146413
0.0145008
0.0209816
0.0302768
0.0411329
0.112516
0.12339
0.109906
0.0680532
0.0643137
0.0596769
0.0595201
-0.00240226
-0.0132408
-0.0216397
-0.0311075
0.00998156
0.0208176
0.0106902
0.0135269
0.0110633
0.0165862
0.0167135
0.0223426
0.025378
0.0210184
0.0331028
0.0231521
0.0181333
0.0189815
0.014746
0.0143775
0.0190119
0.027613
0.0370163
0.0589738
0.117082
0.124002
0.0856431
0.0548133
0.0535641
0.0480258
-0.00247739
-0.0117444
-0.0196737
-0.0265587
0.00979302
0.0167823
0.0111302
0.0125466
0.0114298
0.0151547
0.0159451
0.0199242
0.0223396
0.0192757
0.0260302
0.0197655
0.0149947
0.0144013
0.0110712
0.00993394
0.0128117
0.0190257
0.0273031
0.036699
0.0520895
0.104186
0.106835
0.0650915
0.0529066
0.0472994
-0.00247942
-0.0102529
-0.0176476
-0.0222496
0.00960136
0.0131895
0.0110231
0.0116212
0.0113267
0.0138131
0.0147712
0.0174369
0.0189533
0.0166965
0.0193384
0.0146842
0.00986078
0.00716493
0.00328443
0.000164286
0.00011766
0.00312095
0.00918245
0.0168967
0.0231463
0.0314147
0.0738309
0.0827128
0.0677165
0.0282441
-0.00241523
-0.00886266
-0.0156207
-0.0183323
0.00905645
0.0103222
0.0105099
0.0106903
0.010841
0.0124791
0.0132835
0.0148763
0.0153993
0.0133953
0.0130478
0.00845644
0.00250337
-0.00338786
-0.0103293
-0.0168502
-0.021808
-0.0228426
-0.0195355
-0.0132318
-0.00732431
-0.00326631
0.0174209
0.0595441
0.0664513
0.0681919
-0.00229734
-0.00760266
-0.0136234
-0.0148656
0.00819669
0.00806171
0.00969065
0.00971092
0.0100603
0.0111015
0.011581
0.0122724
0.0118573
0.00960806
0.00719348
0.00164487
-0.00634874
-0.0167359
-0.0295009
-0.0423953
-0.0502047
-0.038574
-0.0500882
-0.0512751
-0.0434336
-0.0370598
-0.0296862
0.025828
0.0352693
0.0363863
-0.00213449
-0.00646556
-0.0116731
-0.0118492
0.00708318
0.00629554
0.00864773
0.00866665
0.0090558
0.00966271
0.00976056
0.00969771
0.00847919
0.00569664
0.00198869
-0.00482755
-0.0149672
-0.0296229
-0.0478069
-0.0516938
-0.0711988
-0.0821909
-0.0836669
-0.0890753
-0.0814891
-0.0717451
-0.0565606
0.00288884
0.0113456
0.0164239
-0.00193289
-0.00543201
-0.00979275
-0.00926241
0.00580965
0.00490493
0.00745308
0.00755338
0.00788939
0.00817827
0.00792871
0.00727525
0.00542851
0.00201924
-0.00190314
-0.00973804
-0.0211611
-0.0380203
-0.0532473
-0.067094
-0.0933299
-0.115536
-0.121044
-0.12672
-0.117749
-0.107874
-0.0512866
-0.0240073
-0.0166049
-0.00929808
-0.0016981
-0.00447806
-0.00801014
-0.00708534
0.00448391
0.00377478
0.00616843
0.00637355
0.00661961
0.00668751
0.00618822
0.00516962
0.00308101
-0.000244187
-0.00485327
-0.0120584
-0.0224731
-0.0377336
-0.0523391
-0.0703396
-0.105269
-0.12003
-0.126787
-0.12605
-0.119067
-0.0929166
-0.0383605
-0.0189567
-0.0310051
-0.0474872
-0.00143579
-0.00359312
-0.00634878
-0.00530028
0.00320252
0.00280331
0.0048422
0.00513232
0.0052948
0.00522506
0.00460811
0.00345592
0.0014483
-0.00152537
-0.00562353
-0.0113191
-0.0190304
-0.0293424
-0.0423513
-0.0565316
-0.0680502
-0.0771919
-0.0815701
-0.081668
-0.0756216
-0.0580777
-0.0543321
-0.0526334
-0.0477918
-0.0475957
-0.00115119
-0.00276528
-0.00482291
-0.00387852
0.0020289
0.00190824
0.00350545
0.00383813
0.00394853
0.00382395
0.00322729
0.00215983
0.000475094
-0.00186321
-0.0048945
-0.0087018
-0.0133211
-0.018725
-0.0245455
-0.0298536
-0.0337529
-0.0359923
-0.0360059
-0.0339556
-0.0298178
-0.0258673
-0.0205399
-0.0148232
-0.0102832
-0.00641803
-0.000848933
-0.00198016
-0.00343344
-0.00277372
0.000983508
0.00102841
0.00216987
0.00249715
0.00259371
0.00248835
0.00202418
0.0012184
3.52551e-05
-0.0015025
-0.00333941
-0.00539606
-0.00752421
-0.00952633
-0.0112769
-0.0125487
-0.0128073
-0.0119131
-0.010293
-0.00813669
-0.00535941
-0.00238712
0.000916935
0.00469743
0.00601387
0.00789199
-0.000532539
-0.00122014
-0.00215956
-0.0019195
4.52314e-05
0.000120275
0.000821005
0.0011041
0.0012208
0.00119986
0.000959702
0.00052451
-9.26774e-05
-0.000839178
-0.00163124
-0.00241117
-0.00305651
-0.00352932
-0.00366886
-0.00344818
-0.00285278
-0.00183194
-0.000481076
0.000733067
0.00213559
0.00350455
0.00490806
0.00638182
0.00739466
0.00777367
-0.000202803
-0.00046026
-0.000940478
-0.00124084
-0.00085275
-0.000865756
-0.00059495
-0.000368426
-0.000213507
-0.000104572
-6.95115e-05
-8.35416e-05
-0.000116748
-0.000132127
-0.000104373
-0.000129332
-0.000171009
-8.02698e-05
0.000114523
0.000387962
0.000706713
0.00104077
0.00137068
0.00168326
0.00195719
0.00220203
0.00241906
0.00261118
0.00280428
0.00291822
119.37
119.298
119.363
119.595
118.85
116.826
107.571
101.172
95.9761
94.695
60.8986
3.41792
0.0752006
0.0596766
-0.0106483
-0.085493
0.0108426
0.0563782
0.0132213
0.022327
-0.028134
-0.0358483
-0.00508569
3.1271
93.0604
106.81
109.486
110.766
109.548
105.298
120.545
120.49
120.753
120.834
120.751
119.027
111.299
107.199
100.1
86.2034
24.3903
0.0298565
0.0226131
0.122535
-0.0100087
-0.0674586
0.0195161
0.0515729
0.013201
0.0188846
-0.0246535
-0.0316958
-0.00160115
3.88061
87.7736
106.699
109.614
110.911
109.611
105.263
121.63
121.562
122.042
122.096
122.553
120.825
115.609
111.612
104.554
56.6235
2.78105
0.0250422
-0.0156447
0.0281695
-0.0113341
-0.0506966
0.0253654
0.0469714
0.0141515
0.0159654
-0.0215833
-0.026837
-0.00502445
-0.061134
17.6232
102.143
109.738
111.097
109.402
104.276
122.769
122.724
122.955
123.15
123.919
122.157
119.291
114.969
108.537
20.9913
-0.0663601
-0.0490371
-0.0293114
0.00296341
-0.0140751
-0.0360102
0.0283186
0.0427853
0.0152689
0.0134876
-0.0187778
-0.0219482
-0.00815242
-0.0250278
2.26203
91.8057
108.375
111.005
102.226
63.8269
124.09
124.07
124.218
124.118
124.91
122.719
122.965
118.889
82.0054
2.20437
-0.0798123
-0.0644166
-0.0391149
-0.00916709
-0.0187964
-0.0239494
0.0297146
0.0391605
0.0163137
0.011422
-0.0163007
-0.0188709
-0.0117927
-0.00361398
0.385358
34.7294
100.111
108.488
99.7508
45.8349
125.425
125.4
125.304
125.43
125.916
124.324
126.884
122.667
29.5333
0.131934
-0.0821932
-0.0568492
-0.0489693
-0.0198574
-0.0252416
-0.0147331
0.0322111
0.0430896
0.0171695
0.00967568
-0.0139741
-0.0166904
-0.00923082
-0.0096151
0.0937817
0.0913625
61.1576
97.1416
78.7539
23.1927
127.911
127.875
127.688
126.788
127.063
126.82
130.034
92.142
6.43634
-0.109441
-0.0954462
-0.0656543
-0.0522904
-0.0273487
-0.0304612
-0.00679841
0.030247
0.0333759
0.0177263
0.00816656
-0.0117758
-0.0149862
-0.00651923
-0.00824279
0.0941907
0.140355
8.42638
42.1585
25.3082
3.38713
129.18
128.949
128.758
128.588
127.581
129.395
121.136
10.9636
-0.138876
-0.127128
-0.0878332
-0.0724898
-0.0540176
-0.0321829
-0.0318121
-0.00529814
0.0191988
0.0288671
0.017946
0.00682846
-0.00973492
-0.0134609
-0.00359575
-0.00810488
0.0884752
-0.00234022
-0.0639938
0.353188
-0.02106
-0.00261391
129.514
128.676
126.877
124.153
98.2657
79.793
15.8482
-0.00817748
-0.081888
-0.0816934
-0.084767
-0.071842
-0.0541915
-0.0372424
-0.0294588
-0.00774388
0.0131625
0.0253031
0.0176907
0.00560869
-0.0079019
-0.0119826
-0.00110787
-0.00743978
0.080544
-0.000834505
-0.0595039
-0.0283445
-0.0196687
-0.0023036
59.8547
55.5887
44.4384
29.7857
18.0741
2.20865
-0.141389
-0.0130145
-0.0119266
-0.0558444
-0.0694974
-0.0651674
-0.0532972
-0.0416005
-0.0323346
-0.0137828
0.00902308
0.0214945
0.0168841
0.00447103
-0.0063068
-0.0105255
0.000884863
-0.00653175
0.0724439
0.000899021
-0.0577962
-0.0289957
-0.0194439
-0.00233053
0.0423434
0.0442788
0.0305257
-0.00708562
-0.0187079
-0.0111536
-0.0548496
-0.0572971
-0.0525542
-0.0569415
-0.0572401
-0.0548887
-0.0514353
-0.0524153
-0.0407534
-0.0167422
0.00691353
0.0174097
0.0154913
0.00339512
-0.00496367
-0.00910406
0.002382
-0.00540079
0.0641669
0.0023902
-0.055945
-0.0294212
-0.0190823
-0.00210856
0.0667727
0.0482791
0.0302817
0.00752383
-0.00916629
-0.0287967
-0.0485217
-0.0436492
-0.0453707
-0.0483209
-0.04539
-0.0429647
-0.0472386
-0.0576922
-0.0396947
-0.0167889
0.00544651
0.0132808
0.0135791
0.00237285
-0.00388898
-0.00773506
0.00340702
-0.00406948
0.0559806
0.00358189
-0.0538553
-0.0296232
-0.0186942
-0.00196525
0.0371623
0.0347847
0.0234801
0.00899716
0.00101187
-0.0072272
-0.0223721
-0.0289068
-0.0351744
-0.0393599
-0.0361487
-0.0324815
-0.0396797
-0.0465788
-0.0403534
-0.0156509
0.00371625
0.00936705
0.0113043
0.0014013
-0.00309301
-0.00643592
0.00398029
-0.00256946
0.0479736
0.00444379
-0.0514974
-0.0293215
-0.0173875
-0.00196385
0.0434605
0.0432983
0.0350958
0.0234998
0.0103177
-0.0011688
-0.014082
-0.020428
-0.0256687
-0.0280902
-0.0265332
-0.0270882
-0.0304946
-0.0402322
-0.0460683
-0.0155326
0.00119202
0.00582945
0.00885185
0.000478059
-0.00257338
-0.00522763
0.00414607
-0.000946286
0.0402859
0.00502492
-0.04877
-0.0274877
-0.0165812
-0.00204803
0.0525982
0.0466901
0.0367825
0.027643
0.0291868
0.0305329
0.0280609
0.018007
-0.0175777
-0.0174164
-0.0160277
-0.0119933
-0.0237214
-0.032182
-0.0408887
-0.0158194
-0.00163875
0.00255971
0.00631971
-0.000407236
-0.00230794
-0.00414053
0.0039652
0.000704215
0.0330718
0.00539253
-0.0455828
-0.0266193
-0.0162634
-0.00215871
0.0703778
0.102492
0.0918252
0.0789482
0.0615234
0.00289778
-0.00641622
-0.0118526
-0.017228
-0.0141418
-0.0140865
-0.0168833
-0.017585
-0.0239075
-0.0310911
-0.016161
-0.00433586
-0.00039679
0.0037789
-0.00127411
-0.00225002
-0.00321406
0.00352288
0.00221039
0.0264428
0.00572032
-0.0419768
-0.0254776
-0.017215
-0.00227041
0.0967055
0.0915159
0.0827493
0.0720316
0.0443171
0.00259015
-0.0051939
-0.0136782
-0.0206427
-0.0237388
-0.0251094
-0.0250309
-0.0184523
-0.0219312
-0.0255362
-0.0168336
-0.00689457
-0.00300351
0.00124157
-0.00214559
-0.00234377
-0.00248712
0.00292201
0.00335072
0.0204987
0.00620463
-0.038036
-0.0254697
-0.0164922
-0.00243393
0.0844842
0.0807233
0.0726998
0.0627943
0.0265693
0.0014061
-0.00733294
-0.0165466
-0.023972
-0.0291428
-0.0305505
-0.0284977
-0.0238698
-0.023567
-0.0239087
-0.0178522
-0.00938108
-0.0054192
-0.00112851
-0.00303339
-0.00255399
-0.00197736
0.00227744
0.00396862
0.0154449
0.00642773
-0.0335475
-0.0241402
-0.0150343
-0.00258931
0.0423176
0.0638156
0.0610624
0.0548936
0.00962182
-0.00509615
-0.0147044
-0.0243021