/*--------------------------------*- C++ -*----------------------------------*\
| =========                 |                                                 |
| \\      /  F ield         | OpenFOAM: The Open Source CFD Toolbox           |
|  \\    /   O peration     | Version:  2.4.0                                 |
|   \\  /    A nd           | Web:      www.OpenFOAM.org                      |
|    \\/     M anipulation  |                                                 |
\*---------------------------------------------------------------------------*/
FoamFile
{
    version     2.0;
    format      ascii;
    class       surfaceScalarField;
    location    "0.104";
    object      phi;
}
// * * * * * * * * * * * * * * * * * * * * * * * * * * * * * * * * * * * * * //

dimensions      [0 3 -1 0 0 0 0];

internalField   nonuniform List<scalar> 
7080
(
-2.84994e-08
2.84994e-08
-3.52585e-08
6.75903e-09
-2.54144e-08
-9.84405e-09
-7.41458e-09
-1.79998e-08
1.7685e-08
-2.50995e-08
4.75112e-08
-2.98262e-08
7.82638e-08
-3.07526e-08
1.08075e-07
-2.98115e-08
1.36167e-07
-2.80914e-08
1.58595e-07
-2.24286e-08
1.74107e-07
-1.5512e-08
1.76426e-07
-2.31829e-09
1.81888e-07
-5.46231e-09
1.35519e-07
4.63689e-08
1.29537e-07
5.98236e-09
7.60191e-08
5.35175e-08
1.43746e-08
6.16445e-08
-3.58994e-08
5.0274e-08
-8.58841e-08
4.99847e-08
-1.24394e-07
3.85097e-08
-2.12612e-07
8.82179e-08
-2.59375e-07
4.67629e-08
-1.68798e-07
-9.05769e-08
-6.47199e-08
-1.04078e-07
1.62899e-08
-8.10098e-08
8.31399e-08
-6.685e-08
1.0009e-07
-1.69502e-08
7.53077e-08
2.47825e-08
6.12818e-08
1.40259e-08
6.06352e-08
6.46645e-10
-4.33543e-08
7.18537e-08
-5.90749e-08
2.24796e-08
-5.28192e-08
-1.60997e-08
-3.50773e-08
-3.57418e-08
-6.44434e-09
-5.37325e-08
3.04011e-08
-6.66717e-08
7.09781e-08
-7.13297e-08
1.12928e-07
-7.17611e-08
1.54137e-07
-6.9301e-08
1.9248e-07
-6.07716e-08
2.17957e-07
-4.09882e-08
2.38188e-07
-2.25499e-08
2.57958e-07
-2.52323e-08
2.12188e-07
9.21389e-08
2.32694e-07
-1.45233e-08
1.86837e-07
9.93743e-08
1.08156e-07
1.40325e-07
6.68163e-08
9.16137e-08
-3.23261e-08
1.49127e-07
-1.78082e-07
1.84266e-07
-2.55539e-07
1.65675e-07
-2.78626e-07
6.98498e-08
-2.4115e-07
-1.28053e-07
-1.70851e-07
-1.74377e-07
-8.56977e-08
-1.66163e-07
-1.75412e-08
-1.35007e-07
1.46906e-08
-4.9182e-08
8.48862e-09
3.09845e-08
-1.65733e-08
3.90879e-08
4.44213e-08
-3.59286e-10
-4.64401e-08
1.18294e-07
-6.43173e-08
4.03567e-08
-5.95225e-08
-2.08944e-08
-4.28333e-08
-5.24311e-08
-1.46168e-08
-8.1949e-08
2.25023e-08
-1.03791e-07
6.38558e-08
-1.12683e-07
1.07082e-07
-1.14987e-07
1.49918e-07
-1.12138e-07
1.90398e-07
-1.01252e-07
2.16209e-07
-6.67985e-08
2.43602e-07
-4.99431e-08
2.56306e-07
-3.7937e-08
2.30183e-07
1.18263e-07
2.58325e-07
-4.26653e-08
2.19751e-07
1.37948e-07
1.46738e-07
2.13338e-07
1.10592e-07
1.2776e-07
3.85172e-08
2.21202e-07
-9.66889e-08
3.19472e-07
-2.04172e-07
2.73158e-07
-2.63398e-07
1.29076e-07
-2.84841e-07
-1.0661e-07
-2.50895e-07
-2.08324e-07
-1.90986e-07
-2.26072e-07
-1.29278e-07
-1.96715e-07
-7.61031e-08
-1.02356e-07
-5.07891e-08
5.67052e-09
-4.84868e-08
3.67857e-08
-1.09796e-09
-2.96746e-09
-4.72221e-08
1.65516e-07
-6.55326e-08
5.86671e-08
-6.10037e-08
-2.54233e-08
-4.45731e-08
-6.88617e-08
-1.64795e-08
-1.10043e-07
2.07225e-08
-1.40993e-07
6.22233e-08
-1.54184e-07
1.05723e-07
-1.58487e-07
1.49054e-07
-1.55469e-07
1.90333e-07
-1.4253e-07
2.14513e-07
-9.09788e-08
2.49813e-07
-8.52427e-08
2.41758e-07
-2.98829e-08
2.44179e-07
1.15842e-07
2.75126e-07
-7.36119e-08
2.27673e-07
1.85402e-07
1.7155e-07
2.69461e-07
1.46152e-07
1.53158e-07
1.05262e-07
2.62092e-07
1.09094e-09
4.23643e-07
-1.18117e-07
3.92366e-07
-2.16835e-07
2.27794e-07
-2.83765e-07
-3.96801e-08
-2.91729e-07
-2.00359e-07
-2.52409e-07
-2.65391e-07
-1.98574e-07
-2.5055e-07
-1.372e-07
-1.6373e-07
-8.39961e-08
-4.75332e-08
-3.96173e-08
-7.59305e-09
-3.93797e-08
-1.33536e-09
-4.76746e-08
2.13191e-07
-6.61146e-08
7.71071e-08
-6.1585e-08
-2.99528e-08
-4.5224e-08
-8.52227e-08
-1.71591e-08
-1.38108e-07
2.01683e-08
-1.7832e-07
6.17439e-08
-1.9576e-07
1.05407e-07
-2.0215e-07
1.49198e-07
-1.9926e-07
1.91124e-07
-1.84456e-07
2.14479e-07
-1.14334e-07
2.55636e-07
-1.264e-07
2.25419e-07
3.34953e-10
2.53724e-07
8.75365e-08
2.65823e-07
-8.57113e-08
2.13595e-07
2.3763e-07
1.94863e-07
2.88193e-07
1.57967e-07
1.90053e-07
1.41447e-07
2.78611e-07
8.45684e-08
4.80522e-07
-1.28372e-08
4.89771e-07
-1.02463e-07
3.1742e-07
-2.01309e-07
5.91656e-08
-2.38209e-07
-1.63459e-07
-2.52764e-07
-2.50836e-07
-2.37156e-07
-2.66158e-07
-1.76018e-07
-2.24869e-07
-9.5311e-08
-1.2824e-07
-2.71359e-08
-7.57681e-08
-6.96404e-08
3.12483e-09
-4.81555e-08
2.61346e-07
-6.66927e-08
9.56442e-08
-6.21086e-08
-3.45369e-08
-4.58008e-08
-1.01531e-07
-1.77694e-08
-1.66139e-07
1.96894e-08
-2.15779e-07
6.13077e-08
-2.37378e-07
1.05112e-07
-2.45954e-07
1.49464e-07
-2.43612e-07
1.91821e-07
-2.26812e-07
2.16407e-07
-1.3892e-07
2.59471e-07
-1.69465e-07
2.20912e-07
3.8894e-08
2.60196e-07
4.82527e-08
2.33453e-07
-5.89678e-08
1.919e-07
2.79182e-07
2.08809e-07
2.71285e-07
1.59659e-07
2.39203e-07
1.62969e-07
2.75301e-07
1.63732e-07
4.79759e-07
1.07063e-07
5.4644e-07
3.59611e-08
3.88523e-07
-1.75656e-08
1.12692e-07
-8.66468e-08
-9.4378e-08
-1.61784e-07
-1.75699e-07
-2.03751e-07
-2.24191e-07
-1.88703e-07
-2.39917e-07
-1.17935e-07
-1.99008e-07
-5.38375e-08
-1.39865e-07
-1.24369e-07
8.91278e-10
-4.87262e-08
3.10072e-07
-6.73713e-08
1.14289e-07
-6.27133e-08
-3.91948e-08
-4.64698e-08
-1.17774e-07
-1.84864e-08
-1.94122e-07
1.91182e-08
-2.53383e-07
6.07748e-08
-2.79035e-07
1.04719e-07
-2.89898e-07
1.498e-07
-2.88693e-07
1.92294e-07
-2.69306e-07
2.20741e-07
-1.67367e-07
2.60885e-07
-2.09609e-07
2.34207e-07
6.55725e-08
2.73672e-07
8.78787e-09
2.21271e-07
-6.56747e-09
1.72567e-07
3.27886e-07
2.06308e-07
2.37544e-07
1.63871e-07
2.8164e-07
1.88669e-07
2.50504e-07
2.27487e-07
4.40941e-07
1.96904e-07
5.77023e-07
1.31877e-07
4.5355e-07
8.35169e-08
1.61052e-07
6.12277e-08
-7.20886e-08
1.4808e-08
-1.29279e-07
-5.89299e-08
-1.50453e-07
-1.12681e-07
-1.86165e-07
-9.62262e-08
-2.15463e-07
-3.89136e-08
-1.97178e-07
-1.63497e-07
2.13876e-10
-4.93973e-08
3.5947e-07
-6.81669e-08
1.33059e-07
-6.34192e-08
-4.39425e-08
-4.72545e-08
-1.33939e-07
-1.93341e-08
-2.22043e-07
1.84493e-08
-2.91167e-07
6.01307e-08
-3.20716e-07
1.0422e-07
-3.33988e-07
1.50179e-07
-3.34653e-07
1.92601e-07
-3.11728e-07
2.27154e-07
-2.0192e-07
2.55536e-07
-2.37991e-07
2.66062e-07
5.5046e-08
2.85826e-07
-1.09756e-08
2.40757e-07
3.85009e-08
1.63288e-07
4.05355e-07
1.80271e-07
2.20561e-07
1.47413e-07
3.14498e-07
1.68355e-07
2.29561e-07
2.56094e-07
3.53202e-07
2.76069e-07
5.57048e-07
2.30029e-07
4.9959e-07
1.74002e-07
2.17079e-07
1.38493e-07
-3.65797e-08
1.31635e-07
-1.22421e-07
1.11067e-07
-1.29884e-07
5.03936e-08
-1.25492e-07
5.58375e-10
-1.65628e-07
-3.11711e-09
-1.93502e-07
-1.68545e-07
1.93179e-09
-5.01721e-08
4.09642e-07
-6.90829e-08
1.5197e-07
-6.42283e-08
-4.87971e-08
-4.81582e-08
-1.50009e-07
-2.03168e-08
-2.49884e-07
1.76787e-08
-3.29162e-07
5.93699e-08
-3.62408e-07
1.03603e-07
-3.78221e-07
1.50521e-07
-3.81571e-07
1.93324e-07
-3.54531e-07
2.32224e-07
-2.4082e-07
2.48369e-07
-2.54135e-07
2.92425e-07
1.09894e-08
2.73414e-07
8.03556e-09
2.46699e-07
6.52159e-08
1.89632e-07
4.62422e-07
1.88082e-07
2.22112e-07
1.9887e-07
3.0371e-07
1.74742e-07
2.53688e-07
2.49586e-07
2.78359e-07
3.12018e-07
4.94616e-07
3.08902e-07
5.02705e-07
2.9723e-07
2.28751e-07
2.60784e-07
-1.32993e-10
2.20224e-07
-8.18609e-08
1.7778e-07
-8.7441e-08
1.43593e-07
-9.13046e-08
1.13119e-07
-1.35154e-07
5.85471e-08
-1.3893e-07
-1.14356e-07
4.35721e-09
-5.10526e-08
4.60694e-07
-7.01205e-08
1.71037e-07
-6.51402e-08
-5.37774e-08
-4.91811e-08
-1.65968e-07
-2.14371e-08
-2.77628e-07
1.68166e-08
-3.67416e-07
5.84794e-08
-4.0407e-07
1.02859e-07
-4.226e-07
1.50784e-07
-4.29497e-07
1.94811e-07
-3.98558e-07
2.33613e-07
-2.79621e-07
2.54064e-07
-2.74586e-07
2.99541e-07
-3.44874e-08
2.63164e-07
4.4412e-08
2.45573e-07
8.2807e-08
2.43372e-07
4.64623e-07
2.35383e-07
2.301e-07
2.5501e-07
2.84083e-07
1.98665e-07
3.10034e-07
2.39351e-07
2.37672e-07
3.4435e-07
3.89617e-07
3.57512e-07
4.89543e-07
3.23749e-07
2.62515e-07
3.10733e-07
1.28831e-08
2.96938e-07
-6.8066e-08
2.06136e-07
3.36023e-09
1.18785e-07
-3.95336e-09
8.01488e-08
-9.65178e-08
4.86187e-08
-1.074e-07
-6.99914e-08
4.25462e-09
-5.2041e-08
5.12735e-07
-7.12809e-08
1.90277e-07
-6.61537e-08
-5.89046e-08
-5.03233e-08
-1.81798e-07
-2.26972e-08
-3.05255e-07
1.58192e-08
-4.05932e-07
5.74542e-08
-4.45705e-07
1.01985e-07
-4.67132e-07
1.51033e-07
-4.78545e-07
1.96385e-07
-4.4391e-07
2.34847e-07
-3.18084e-07
2.6698e-07
-3.06719e-07
2.96395e-07
-6.3902e-08
2.72928e-07
6.78786e-08
2.64719e-07
9.10163e-08
2.91481e-07
4.37861e-07
2.49714e-07
2.71867e-07
2.45325e-07
2.88473e-07
2.44452e-07
3.10907e-07
2.30585e-07
2.51539e-07
2.74277e-07
3.45926e-07
3.3508e-07
4.2874e-07
3.3813e-07
2.59465e-07
2.72527e-07
7.84861e-08
1.83667e-07
2.07935e-08
1.19738e-07
6.72899e-08
1.09531e-07
6.25378e-09
6.42173e-08
-5.12045e-08
1.68593e-08
-6.00418e-08
-5.99645e-08
6.83236e-09
-5.31397e-08
5.65875e-07
-7.25654e-08
2.09703e-07
-6.72672e-08
-6.42027e-08
-5.15849e-08
-1.97481e-07
-2.41003e-08
-3.32739e-07
1.47305e-08
-4.44763e-07
5.62762e-08
-4.87251e-07
1.00984e-07
-5.11839e-07
1.51283e-07
-5.28844e-07
1.9758e-07
-4.90207e-07
2.39022e-07
-3.59526e-07
2.7464e-07
-3.42337e-07
2.93696e-07
-8.29578e-08
2.96991e-07
6.45842e-08
2.86231e-07
1.01775e-07
2.95439e-07
4.28653e-07
2.45931e-07
3.21375e-07
2.35086e-07
2.99318e-07
2.4277e-07
3.03222e-07
1.96555e-07
2.97755e-07
2.31657e-07
3.10823e-07
2.86336e-07
3.74061e-07
2.62515e-07
2.83286e-07
2.22739e-07
1.18262e-07
1.93957e-07
4.95761e-08
2.19894e-07
4.13528e-08
2.06283e-07
1.98645e-08
1.11393e-07
4.3686e-08
3.16087e-08
1.97422e-08
-2.1896e-08
-6.4597e-09
-5.43515e-08
6.20227e-07
-7.39754e-08
2.29327e-07
-6.84789e-08
-6.96992e-08
-5.29658e-08
-2.12994e-07
-2.56492e-08
-3.60056e-07
1.3529e-08
-4.83941e-07
5.4937e-08
-5.28659e-07
9.98653e-08
-5.56768e-07
1.51479e-07
-5.80457e-07
1.98797e-07
-5.37525e-07
2.446e-07
-4.05329e-07
2.7404e-07
-3.71778e-07
3.09045e-07
-1.17962e-07
3.19521e-07
5.41076e-08
2.90615e-07
1.30681e-07
2.96138e-07
4.23131e-07
2.35624e-07
3.81889e-07
2.0839e-07
3.26552e-07
2.25972e-07
2.8564e-07
2.13095e-07
3.10632e-07
2.26693e-07
2.97225e-07
2.51558e-07
3.49196e-07
2.61561e-07
2.73282e-07
2.55897e-07
1.23926e-07
2.30107e-07
7.53665e-08
1.59198e-07
1.12261e-07
2.70101e-08
1.52053e-07
-4.27005e-08
1.13397e-07
-2.31506e-08
1.92439e-10
-4.6085e-08
1.03844e-09
-5.56794e-08
6.75906e-07
-7.55126e-08
2.4916e-07
-6.9786e-08
-7.54257e-08
-5.44658e-08
-2.28314e-07
-2.7347e-08
-3.87174e-07
1.21991e-08
-5.23487e-07
5.34172e-08
-5.69877e-07
9.86463e-08
-6.01997e-07
1.51622e-07
-6.33433e-07
2.00591e-07
-5.86494e-07
2.47663e-07
-4.524e-07
2.76795e-07
-4.0091e-07
3.25029e-07
-1.66196e-07
3.3668e-07
4.24567e-08
2.94408e-07
1.72953e-07
2.58238e-07
4.59301e-07
2.20011e-07
4.20116e-07
2.08755e-07
3.37808e-07
2.08691e-07
2.85703e-07
1.92922e-07
3.26401e-07
1.62672e-07
3.27475e-07
1.51698e-07
3.60169e-07
1.24338e-07
3.00642e-07
3.50144e-08
2.13249e-07
-4.72061e-08
1.57587e-07
-8.02643e-08
1.4532e-07
-7.17275e-08
1.43516e-07
-2.65421e-08
6.82113e-08
-2.54015e-09
-2.38094e-08
-4.47564e-08
-3.86871e-09
-5.71267e-08
7.33033e-07
-7.71787e-08
2.69212e-07
-7.11849e-08
-8.14195e-08
-5.60848e-08
-2.43414e-07
-2.91963e-08
-4.14063e-07
1.07436e-08
-5.63427e-07
5.16983e-08
-6.10832e-07
9.73317e-08
-6.4763e-07
1.51777e-07
-6.87878e-07
2.02789e-07
-6.37507e-07
2.47806e-07
-4.97417e-07
2.85709e-07
-4.38812e-07
3.43422e-07
-2.2391e-07
3.30941e-07
5.49381e-08
2.61779e-07
2.42116e-07
2.30669e-07
4.9041e-07
2.04096e-07
4.46689e-07
1.89231e-07
3.52673e-07
1.36745e-07
3.3819e-07
7.40824e-08
3.89064e-07
5.74509e-08
3.44107e-07
1.09749e-07
3.07871e-07
2.09022e-07
2.0137e-07
2.78489e-07
1.43783e-07
2.70371e-07
1.65704e-07
2.2053e-07
1.95161e-07
1.98083e-07
1.65963e-07
1.8742e-07
7.8875e-08
1.08767e-07
5.48435e-08
7.16192e-08
-7.60902e-09
-5.86973e-08
7.9173e-07
-7.89755e-08
2.8949e-07
-7.26695e-08
-8.77256e-08
-5.78224e-08
-2.58262e-07
-3.12e-08
-4.40685e-07
9.14254e-09
-6.0377e-07
4.97671e-08
-6.51457e-07
9.59136e-08
-6.93776e-07
1.52033e-07
-7.43997e-07
2.04739e-07
-6.90212e-07
2.45618e-07
-5.38297e-07
3.05456e-07
-4.9865e-07
3.32153e-07
-2.50607e-07
3.14086e-07
7.30047e-08
2.54484e-07
3.01718e-07
2.19634e-07
5.2526e-07
2.23802e-07
4.42521e-07
2.788e-07
2.97675e-07
2.98224e-07
3.18765e-07
3.23577e-07
3.6371e-07
3.32196e-07
3.35488e-07
3.54385e-07
2.85682e-07
4.04523e-07
1.51231e-07
4.04245e-07
1.44062e-07
3.81266e-07
1.88683e-07
3.44554e-07
2.31873e-07
2.92315e-07
2.18202e-07
1.95683e-07
1.75507e-07
8.1935e-08
1.68592e-07
1.57821e-07
-4.26642e-09
-6.0395e-08
8.52125e-07
-8.09051e-08
3.1e-07
-7.42303e-08
-9.44004e-08
-5.96785e-08
-2.72813e-07
-3.33606e-08
-4.67003e-07
7.39628e-09
-6.44527e-07
4.76133e-08
-6.91674e-07
9.43704e-08
-7.40533e-07
1.52536e-07
-8.02163e-07
2.04672e-07
-7.42349e-07
2.49969e-07
-5.83594e-07
3.0751e-07
-5.56191e-07
3.15998e-07
-2.59095e-07
3.33306e-07
5.5697e-08
3.06272e-07
3.28752e-07
2.65877e-07
5.65656e-07
2.86e-07
4.22397e-07
2.64897e-07
3.18779e-07
2.13283e-07
3.70379e-07
1.70318e-07
4.06676e-07
1.29295e-07
3.7651e-07
3.93599e-08
3.75617e-07
-3.85058e-08
2.29097e-07
-1.64513e-08
1.22007e-07
5.95362e-08
1.12695e-07
1.00751e-07
1.90659e-07
7.33962e-08
2.45556e-07
1.48981e-08
2.34005e-07
-7.70664e-09
1.91197e-07
1.49408e-07
7.05734e-10
-6.22245e-08
9.1435e-07
-8.29697e-08
3.30745e-07
-7.58537e-08
-1.01516e-07
-6.16528e-08
-2.87014e-07
-3.56798e-08
-4.92976e-07
5.48255e-09
-6.85689e-07
4.52354e-08
-7.31427e-07
9.26967e-08
-7.87995e-07
1.53106e-07
-8.62572e-07
2.03259e-07
-7.92502e-07
2.55648e-07
-6.35983e-07
2.9086e-07
-5.91403e-07
3.47788e-07
-3.16023e-07
4.02255e-07
1.23043e-09
3.58009e-07
3.72998e-07
3.07641e-07
6.16024e-07
1.98214e-07
5.31824e-07
1.19379e-07
3.97614e-07
1.57596e-07
3.32162e-07
2.05344e-07
3.58929e-07
2.90524e-07
2.91331e-07
2.58267e-07
4.07874e-07
2.58939e-08
4.6147e-07
-1.52455e-07
3.00356e-07
-1.83525e-07
1.43765e-07
-1.21481e-07
1.28614e-07
-1.03515e-07
2.27591e-07
-9.5537e-08
2.26027e-07
-5.35785e-08
1.49238e-07
9.60562e-08
-2.26404e-10
-6.41906e-08
9.7854e-07
-8.51718e-08
3.51727e-07
-7.7541e-08
-1.09147e-07
-6.37453e-08
-3.0081e-07
-3.81588e-08
-5.18563e-07
3.37248e-09
-7.2722e-07
4.26417e-08
-7.70696e-07
9.09028e-08
-8.36256e-07
1.53418e-07
-9.25088e-07
2.01588e-07
-8.40671e-07
2.51966e-07
-6.86362e-07
2.90567e-07
-6.30004e-07
3.89352e-07
-4.14808e-07
4.24e-07
-3.34178e-08
2.80759e-07
5.16239e-07
1.16086e-07
7.80697e-07
1.15567e-07
5.32343e-07
8.044e-08
4.32741e-07
1.45544e-07
2.67058e-07
2.43032e-07
2.6144e-07
2.62182e-07
2.7218e-07
3.44302e-07
3.25755e-07
3.16661e-07
4.89111e-07
1.6541e-07
4.51607e-07
3.46983e-08
2.74477e-07
-5.41822e-08
2.17495e-07
-8.2132e-08
2.55541e-07
-7.28411e-08
2.16736e-07
-3.84676e-08
1.14865e-07
5.9946e-08
-2.35731e-09
-6.62986e-08
1.04484e-06
-8.7514e-08
3.72942e-07
-7.93207e-08
-1.1734e-07
-6.59555e-08
-3.14175e-07
-4.07961e-08
-5.43722e-07
1.01214e-09
-7.69028e-07
3.98579e-08
-8.09542e-07
8.90215e-08
-8.85419e-07
1.52889e-07
-9.88955e-07
1.97097e-07
-8.84879e-07
2.37629e-07
-7.26893e-07
3.14287e-07
-7.06663e-07
3.84596e-07
-4.85117e-07
3.67522e-07
-1.63441e-08
3.26867e-07
5.56894e-07
2.78959e-07
8.28605e-07
3.97388e-07
4.13914e-07
3.53271e-07
4.76858e-07
2.96345e-08
5.90694e-07
-2.77686e-08
3.18843e-07
3.54888e-08
2.08923e-07
1.02488e-07
2.58756e-07
2.82704e-07
3.08894e-07
2.76946e-07
4.57366e-07
1.59782e-07
3.91641e-07
4.32541e-08
3.34022e-07
-5.6153e-09
3.0441e-07
1.61564e-11
2.11105e-07
4.09556e-09
1.10785e-07
6.53095e-08
-1.26797e-09
-6.85544e-08
1.11339e-06
-8.99987e-08
3.94386e-07
-8.12121e-08
-1.26127e-07
-6.82834e-08
-3.27104e-07
-4.35861e-08
-5.68419e-07
-7.32764e-10
-8.11882e-07
3.69246e-08
-8.47199e-07
8.70648e-08
-9.3556e-07
1.49065e-07
-1.05096e-06
1.81479e-07
-9.17293e-07
2.19396e-07
-7.6481e-07
3.03183e-07
-7.9045e-07
2.83158e-07
-4.65092e-07
1.83156e-07
8.36579e-08
2.73314e-07
4.66737e-07
1.96263e-07
9.05655e-07
1.33264e-07
4.76913e-07
1.02897e-07
5.07224e-07
-8.73112e-08
7.80903e-07
4.31559e-08
1.88376e-07
2.08262e-07
4.38171e-08
1.58712e-08
4.51146e-07
-1.09577e-08
3.35723e-07
5.14873e-08
3.94921e-07
2.53903e-08
4.17738e-07
1.45802e-08
3.44832e-07
4.24035e-08
2.76587e-07
5.70504e-08
1.96458e-07
3.88552e-08
1.28981e-07
1.01911e-07
2.25415e-09
-7.09638e-08
1.18436e-06
-9.26287e-08
4.16051e-07
-8.32164e-08
-1.35539e-07
-7.07288e-08
-3.39592e-07
-4.65286e-08
-5.9262e-07
-2.49697e-09
-8.55913e-07
3.38681e-08
-8.83564e-07
8.43816e-08
-9.86073e-07
1.34017e-07
-1.10059e-06
1.4534e-07
-9.28615e-07
1.94957e-07
-8.14428e-07
1.432e-07
-7.38693e-07
-6.94339e-07
3.72448e-07
-1.08644e-06
4.75761e-07
-3.30502e-07
-2.89204e-07
-2.3255e-07
8.07703e-07
-3.28434e-07
5.72798e-07
-4.2047e-08
2.20837e-07
1.67513e-07
5.71342e-07
7.22318e-08
2.83658e-07
2.13679e-07
-9.76299e-08
1.73789e-07
4.91036e-07
-4.87954e-08
5.58308e-07
-1.1691e-07
4.63036e-07
-8.57174e-08
3.86545e-07
-2.27754e-08
2.8189e-07
3.64711e-08
2.1734e-07
6.75027e-08
1.65426e-07
4.83501e-08
1.48133e-07
1.45487e-07
4.77363e-09
-7.35397e-08
1.2579e-06
-9.5407e-08
4.37918e-07
-8.53224e-08
-1.45624e-07
-7.32917e-08
-3.51622e-07
-4.96237e-08
-6.16288e-07
-4.4472e-09
-9.0109e-07
3.06474e-08
-9.18659e-07
7.67514e-08
-1.03218e-06
9.31745e-08
-1.11701e-06
9.33604e-08
-9.28801e-07
1.503e-07
-8.71367e-07
-5.56633e-07
-3.17608e-08
-1.64632e-06
1.46213e-06
-1.09073e-06
-7.98269e-08
-6.6408e-07
-7.15853e-07
-3.43445e-07
4.87067e-07
-1.86226e-07
4.15579e-07
-1.52109e-07
1.8672e-07
-1.00081e-07
5.19315e-07
-1.06054e-07
2.89631e-07
1.38315e-07
-3.41999e-07
2.75339e-07
3.54012e-07
1.90859e-07
6.42788e-07
6.47016e-09
6.47424e-07
-6.80457e-08
4.61061e-07
-7.31984e-08
2.87043e-07
-3.22315e-08
1.76373e-07
1.69876e-08
1.16207e-07
2.37245e-08
1.41396e-07
1.64049e-07
5.16266e-09
-7.6222e-08
1.33412e-06
-9.83356e-08
4.60032e-07
-8.75216e-08
-1.56438e-07
-7.5971e-08
-3.63173e-07
-5.28701e-08
-6.39388e-07
-6.55452e-09
-9.47406e-07
2.67113e-08
-9.51925e-07
4.94207e-08
-1.05489e-06
2.0429e-08
-1.08802e-06
1.24409e-07
-1.03278e-06
2.47892e-07
-9.9485e-07
1.89139e-06
-1.67526e-06
8.80545e-08
3.26547e-06
-1.39822e-06
1.40645e-06
-9.18514e-07
-1.19556e-06
-4.10988e-07
-2.04594e-08
-2.96926e-07
3.01517e-07
-4.06754e-07
2.96548e-07
-2.95168e-07
4.07729e-07
-1.66589e-07
1.61052e-07
2.27095e-08
-5.31297e-07
2.53743e-07
1.22978e-07
2.64495e-07
6.32036e-07
1.26758e-07
7.85162e-07
-2.56056e-09
5.9038e-07
-6.76395e-08
3.52122e-07
-5.58566e-08
1.6459e-07
-1.97699e-08
8.01207e-08
2.95602e-09
1.1867e-07
1.57508e-07
9.49698e-09
-7.96196e-08
1.41374e-06
-1.0142e-07
4.81832e-07
-8.98096e-08
-1.68048e-07
-7.87666e-08
-3.74216e-07
-5.6278e-08
-6.61877e-07
-8.974e-09
-9.9471e-07
1.87102e-08
-9.79609e-07
-2.62997e-08
-1.00988e-06
-4.2173e-08
-1.07215e-06
4.64305e-07
-1.53926e-06
-1.14281e-07
-4.16264e-07
-8.79089e-09
-1.78075e-06
-4.55962e-07
3.71264e-06
-1.26268e-06
2.21317e-06
-1.42225e-06
-1.03598e-06
-6.46368e-07
-7.96346e-07
-3.99396e-07
5.45449e-08
-4.23608e-07
3.2076e-07
-3.16555e-07
3.00677e-07
-1.77873e-07
2.2369e-08
-3.77438e-08
-6.71426e-07
2.0312e-07
-1.17886e-07
1.60321e-07
6.74836e-07
1.1684e-07
8.28643e-07
2.74882e-08
6.79731e-07
-1.21712e-08
3.91781e-07
-2.05813e-08
1.73e-07
-1.70646e-08
7.66041e-08
-1.68114e-09
1.03287e-07
1.42586e-07
1.32407e-08
-7.93839e-08
1.49312e-06
-1.04674e-07
5.07122e-07
-9.21763e-08
-1.80545e-07
-8.16786e-08
-3.84714e-07
-5.99483e-08
-6.83607e-07
-1.27248e-08
-1.04193e-06
-4.9577e-09
-9.87376e-07
-9.44325e-08
-9.20402e-07
4.25525e-07
-1.59211e-06
8.80803e-07
-1.99454e-06
2.11984e-07
2.52554e-07
-1.11345e-06
-4.55309e-07
-8.7685e-07
3.47604e-06
-4.20836e-07
1.75715e-06
-1.41073e-06
-4.60926e-08
-9.32433e-07
-1.27465e-06
-4.94665e-07
-3.83224e-07
-4.06128e-07
2.32223e-07
-3.38062e-07
2.32611e-07
-2.4564e-07
-7.0053e-08
-2.23348e-07
-6.93718e-07
1.18124e-10
-3.41352e-07
1.09375e-07
5.65579e-07
1.23932e-07
8.14086e-07
9.95135e-08
7.0415e-07
6.44388e-08
4.26856e-07
2.10558e-08
2.16383e-07
-6.28226e-09
1.03942e-07
-4.94183e-09
1.01946e-07
1.26325e-07
1.13203e-08
-1.0063e-07
1.59375e-06
-1.07895e-07
5.14387e-07
-9.46327e-08
-1.93807e-07
-8.47356e-08
-3.94611e-07
-6.45336e-08
-7.03809e-07
-2.32364e-08
-1.08323e-06
-8.37217e-08
-9.26891e-07
-1.19691e-08
-9.92154e-07
7.98127e-07
-2.4022e-06
1.09266e-06
-2.28907e-06
1.28464e-06
6.05727e-08
-1.77432e-07
1.00677e-06
-1.14355e-06
4.44215e-06
-2.08013e-06
2.69372e-06
-2.33844e-06
2.12209e-07
-1.40012e-06
-2.21296e-06
-6.12236e-07
-1.1711e-06
-5.11973e-07
1.31961e-07
-4.45527e-07
1.66164e-07
-3.94812e-07
-1.20768e-07
-2.9595e-07
-7.9258e-07
-3.72002e-08
-6.00102e-07
1.04398e-07
4.2398e-07
1.13601e-07
8.04884e-07
9.69661e-08
7.20784e-07
5.85983e-08
4.65224e-07
7.51199e-09
2.6747e-07
-1.42492e-08
1.25704e-07
-1.20632e-08
9.97599e-08
1.05139e-07
9.12219e-09
-3.12005e-08
1.62495e-06
-1.12729e-07
5.95915e-07
-9.70735e-08
-2.09463e-07
-8.81e-08
-4.03584e-07
-7.33941e-08
-7.18515e-07
-5.65603e-08
-1.10006e-06
-1.96257e-07
-7.87194e-07
5.0478e-07
-1.69319e-06
1.45418e-06
-3.3516e-06
1.27123e-06
-2.10612e-06
1.30966e-06
2.21262e-08
5.38193e-07
1.77824e-06
-3.99029e-07
5.37936e-06
-2.88561e-07
2.58325e-06
-1.14831e-06
1.07195e-06
-1.42218e-06
-1.93908e-06
-9.7071e-07
-1.62257e-06
-5.75672e-07
-2.63078e-07
-5.13766e-07
1.04258e-07
-4.92186e-07
-1.42347e-07
-4.28949e-07
-8.55818e-07
-2.13005e-07
-8.16046e-07
-9.4969e-08
3.05945e-07
-4.20619e-08
7.51976e-07
3.78887e-09
6.74933e-07
-1.93769e-08
4.8839e-07
-3.22794e-08
2.80372e-07
-3.05363e-08
1.2396e-07
-1.73368e-08
8.65604e-08
7.9462e-08
8.34063e-09
-2.40518e-07
1.86547e-06
-1.05602e-07
4.60999e-07
-1.0089e-07
-2.14174e-07
-9.31648e-08
-4.11309e-07
-1.00652e-07
-7.11028e-07
-1.49871e-07
-1.05085e-06
3.90674e-08
-9.76132e-07
1.34633e-07
-1.78876e-06
6.20215e-07
-3.83718e-06
9.51065e-07
-2.43697e-06
1.36665e-06
-3.93464e-07
9.63761e-07
2.18113e-06
6.08197e-07
5.73493e-06
8.54014e-07
2.33744e-06
-9.29901e-08
2.01896e-06
-1.4833e-06
-5.48784e-07
-2.09649e-06
-1.00939e-06
-7.06119e-07
-1.65345e-06
-5.01724e-07
-1.00138e-07
-4.76832e-07
-1.67238e-07
-5.5275e-07
-7.799e-07
-4.7033e-07
-8.98466e-07
-3.28222e-07
1.63836e-07
-2.40811e-07
6.64566e-07
-1.4072e-07
5.74843e-07
-9.86499e-08
4.46319e-07
-5.51179e-08
2.3684e-07
-4.03388e-08
1.09181e-07
-2.16919e-08
6.79136e-08
5.20516e-08
5.71858e-09
1.26966e-07
1.7385e-06
-1.16168e-07
7.04133e-07
-9.7685e-08
-2.32658e-07
-1.05923e-07
-4.03072e-07
-1.95439e-07
-6.21512e-07
-3.43429e-07
-9.02855e-07
3.7441e-07
-1.69397e-06
1.56302e-06
-2.97737e-06
1.38449e-06
-3.65864e-06
4.34224e-07
-1.48671e-06
9.92511e-07
-9.51754e-07
9.08712e-07
2.26492e-06
9.99193e-07
5.64444e-06
9.15231e-07
2.42141e-06
6.48585e-07
2.28561e-06
-1.6942e-07
2.69221e-07
-7.98763e-07
-3.80041e-07
-1.1571e-06
-1.29511e-06
-5.31111e-07
-7.2613e-07
-4.13247e-07
-2.85103e-07
-6.21281e-07
-5.71866e-07
-6.77277e-07
-8.4247e-07
-4.58993e-07
-5.44481e-08
-3.72991e-07
5.78564e-07
-2.38923e-07
4.40774e-07
-1.56908e-07
3.64305e-07
-5.59414e-08
1.35873e-07
-3.72782e-08
9.05181e-08
-2.62723e-08
5.69078e-08
2.29281e-09
2.34864e-08
-5.91873e-08
5.9834e-08
-7.58286e-08
1.66413e-08
-1.00942e-07
2.51137e-08
-8.46076e-08
-1.63345e-08
-1.57892e-08
-6.88184e-08
6.36654e-08
-7.94546e-08
1.65643e-07
-1.01978e-07
2.57455e-07
-9.18114e-08
2.13223e-07
4.42316e-08
1.26622e-07
8.66009e-08
8.70743e-08
3.95478e-08
3.5882e-08
5.11923e-08
-1.5093e-08
5.09749e-08
-7.73297e-08
6.22367e-08
-1.31201e-07
5.38712e-08
-1.37099e-07
5.89818e-09
-1.82198e-07
4.50987e-08
-1.76072e-07
-6.12552e-09
-1.73307e-07
-2.76519e-09
-1.58276e-07
-1.5031e-08
-1.35984e-07
-2.2292e-08
-1.08185e-07
-2.77986e-08
-7.83834e-08
-2.9802e-08
-4.75966e-08
-3.07869e-08
-1.77416e-08
-2.98549e-08
7.36886e-09
-2.51105e-08
2.53504e-08
-1.79815e-08
3.51502e-08
-9.79976e-09
2.84139e-08
6.73622e-09
2.84139e-08
1.30994e-08
4.63754e-08
-7.95583e-09
3.76967e-08
-1.44926e-08
3.16506e-08
1.74312e-08
-4.82583e-08
8.61851e-08
-1.37572e-07
1.71417e-07
-1.64686e-07
2.40822e-07
-1.71383e-07
2.78527e-07
-1.29516e-07
2.56201e-07
6.65571e-08
1.77861e-07
1.64941e-07
3.30122e-08
1.84397e-07
-6.63312e-08
1.50536e-07
-1.09231e-07
9.38747e-08
-1.88265e-07
1.41271e-07
-2.34525e-07
1.00131e-07
-2.13757e-07
-1.48706e-08
-2.57967e-07
8.93091e-08
-2.37742e-07
-2.63509e-08
-2.17e-07
-2.35065e-08
-1.92054e-07
-3.9977e-08
-1.53921e-07
-6.04248e-08
-1.13004e-07
-6.87164e-08
-7.10856e-08
-7.172e-08
-3.04893e-08
-7.13832e-08
6.36892e-09
-6.67131e-08
3.49994e-08
-5.3741e-08
5.27142e-08
-3.56963e-08
5.89225e-08
-1.6008e-08
4.32451e-08
2.24136e-08
7.1659e-08
4.5691e-08
-2.28293e-09
5.04544e-08
3.29333e-08
7.65023e-08
5.60278e-09
1.30277e-07
-1.02033e-07
1.91855e-07
-1.99151e-07
2.52208e-07
-2.25039e-07
2.87037e-07
-2.06212e-07
2.66045e-07
-1.08524e-07
2.05916e-07
1.26686e-07
9.73734e-08
2.73483e-07
-3.78488e-08
3.19619e-07
-1.10221e-07
2.22908e-07
-1.47632e-07
1.31286e-07
-2.21136e-07
2.14775e-07
-2.59939e-07
1.38935e-07
-2.31629e-07
-4.31806e-08
-2.56039e-07
1.1372e-07
-2.43072e-07
-3.93188e-08
-2.15217e-07
-5.13611e-08
-1.89954e-07
-6.52405e-08
-1.49703e-07
-1.00675e-07
-1.07146e-07
-1.11274e-07
-6.39637e-08
-1.14902e-07
-2.25911e-08
-1.12756e-07
1.45395e-08
-1.03844e-07
4.27491e-08
-8.19507e-08
5.94112e-08
-5.23585e-08
6.41589e-08
-2.07557e-08
4.63276e-08
4.02449e-08
1.17987e-07
3.8882e-08
-4.25002e-08
8.51019e-08
-1.32865e-08
1.38294e-07
-4.75888e-08
1.99989e-07
-1.63728e-07
2.52548e-07
-2.5171e-07
2.91861e-07
-2.64352e-07
2.84893e-07
-1.99244e-07
2.18877e-07
-4.2508e-08
1.20709e-07
2.24854e-07
2.05378e-09
3.92138e-07
-1.03093e-07
4.24765e-07
-1.46086e-07
2.65901e-07
-1.72708e-07
1.57908e-07
-2.28515e-07
2.70582e-07
-2.76679e-07
1.87098e-07
-2.45438e-07
-7.44208e-08
-2.41379e-07
1.0966e-07
-2.49116e-07
-3.15817e-08
-2.13528e-07
-8.69498e-08
-1.89868e-07
-8.88997e-08
-1.48849e-07
-1.41694e-07
-1.05795e-07
-1.54328e-07
-6.23357e-08
-1.58361e-07
-2.08106e-08
-1.54281e-07
1.64031e-08
-1.41057e-07
4.44891e-08
-1.10037e-07
6.08918e-08
-6.87612e-08
6.53727e-08
-2.52365e-08
4.71083e-08
5.85093e-08
1.65095e-07
3.05386e-08
-6.99138e-08
9.48027e-08
-7.75506e-08
1.75492e-07
-1.28278e-07
2.37856e-07
-2.26092e-07
2.53891e-07
-2.67745e-07
2.40101e-07
-2.50562e-07
2.03705e-07
-1.62849e-07
1.04399e-07
5.67983e-08
1.44445e-08
3.14809e-07
-8.22249e-08
4.88808e-07
-1.3934e-07
4.81881e-07
-1.56335e-07
2.82896e-07
-1.95391e-07
1.96964e-07
-2.14168e-07
2.89359e-07
-2.66477e-07
2.39408e-07
-2.55191e-07
-8.57068e-08
-2.2526e-07
7.97294e-08
-2.54724e-07
-2.11761e-09
-2.13514e-07
-1.2816e-07
-1.9064e-07
-1.11773e-07
-1.49011e-07
-1.83323e-07
-1.05489e-07
-1.9785e-07
-6.18635e-08
-2.01987e-07
-2.02603e-08
-1.95884e-07
1.70838e-08
-1.78401e-07
4.51409e-08
-1.38094e-07
6.14732e-08
-8.50936e-08
6.59536e-08
-2.97169e-08
4.75594e-08
7.69034e-08
2.12654e-07
5.50624e-08
-1.24085e-07
1.17717e-07
-1.40205e-07
1.8921e-07
-1.99771e-07
2.04558e-07
-2.41439e-07
1.63006e-07
-2.26194e-07
8.85041e-08
-1.7606e-07
1.85559e-08
-9.29003e-08
-3.53242e-08
1.10679e-07
-1.05841e-07
3.85326e-07
-1.61994e-07
5.4496e-07
-1.61479e-07
4.81366e-07
-1.58829e-07
2.80246e-07
-2.09714e-07
2.47849e-07
-1.92537e-07
2.72182e-07
-2.34524e-07
2.81394e-07
-2.62166e-07
-5.80641e-08
-2.21459e-07
3.90218e-08
-2.58297e-07
3.4721e-08
-2.1546e-07
-1.70997e-07
-1.91315e-07
-1.35918e-07
-1.49299e-07
-2.25339e-07
-1.05202e-07
-2.41948e-07
-6.14373e-08
-2.45751e-07
-1.9774e-08
-2.37548e-07
1.76951e-08
-2.1587e-07
4.57187e-08
-1.66117e-07
6.19969e-08
-1.01372e-07
6.65303e-08
-3.42503e-08
4.80389e-08
9.53948e-08
2.60693e-07
3.9746e-08
-1.63617e-07
9.72746e-08
-1.97734e-07
1.14058e-07
-2.16555e-07
5.92358e-08
-1.86617e-07
-1.55333e-08
-1.51424e-07
-6.14009e-08
-1.30192e-07
-8.21905e-08
-7.21106e-08
-1.29943e-07
1.58431e-07
-1.9484e-07
4.50223e-07
-2.2615e-07
5.76271e-07
-1.86958e-07
4.42174e-07
-1.62666e-07
2.55954e-07
-2.07704e-07
2.92887e-07
-1.74515e-07
2.38993e-07
-2.2398e-07
3.30859e-07
-2.76699e-07
-5.34484e-09
-2.35541e-07
-2.13686e-09
-2.59285e-07
5.84655e-08
-2.19791e-07
-2.10492e-07
-1.91768e-07
-1.63942e-07
-1.49661e-07
-2.67445e-07
-1.04826e-07
-2.86783e-07
-6.09163e-08
-2.89661e-07
-1.92054e-08
-2.79258e-07
1.84133e-08
-2.53489e-07
4.63889e-08
-1.94093e-07
6.26017e-08
-1.17585e-07
6.72072e-08
-3.88557e-08
4.86077e-08
1.13994e-07
3.09301e-07
6.96061e-09
-1.68646e-07
3.44895e-09
-1.94222e-07
-4.82245e-08
-1.64881e-07
-1.1147e-07
-1.23372e-07
-1.33134e-07
-1.29761e-07
-1.38813e-07
-1.24513e-07
-1.71891e-07
-3.90322e-08
-2.26883e-07
2.13423e-07
-2.73227e-07
4.96568e-07
-2.53133e-07
5.56176e-07
-1.6504e-07
3.54081e-07
-1.4454e-07
2.35455e-07
-1.81411e-07
3.29758e-07
-1.6746e-07
2.25042e-07
-2.44793e-07
4.08192e-07
-2.8935e-07
3.92117e-08
-2.67787e-07
-2.36997e-08
-2.532e-07
4.38783e-08
-2.26145e-07
-2.37547e-07
-1.92069e-07
-1.98017e-07
-1.50071e-07
-3.09442e-07
-1.04348e-07
-3.32507e-07
-6.02858e-08
-3.33723e-07
-1.85372e-08
-3.21007e-07
1.92625e-08
-2.91289e-07
4.71753e-08
-2.22006e-07
6.33078e-08
-1.33717e-07
6.80009e-08
-4.35488e-08
4.92767e-08
1.32718e-07
3.58578e-07
-5.05743e-08
-1.13714e-07
-1.06891e-07
-1.37905e-07
-1.38376e-07
-1.33396e-07
-1.73512e-07
-8.82357e-08
-2.16998e-07
-8.6275e-08
-2.59065e-07
-8.2445e-08
-2.95798e-07
-2.29964e-09
-3.06259e-07
2.23884e-07
-3.08768e-07
4.99077e-07
-2.4646e-07
4.93868e-07
-1.71402e-07
2.79023e-07
-1.96764e-07
2.60817e-07
-1.8913e-07
3.22124e-07
-1.94637e-07
2.30549e-07
-2.50596e-07
4.64151e-07
-2.75981e-07
6.45968e-08
-2.9407e-07
-5.61104e-09
-2.45308e-07
-4.88332e-09
-2.31066e-07
-2.51789e-07
-1.92813e-07
-2.36271e-07
-1.50449e-07
-3.51806e-07
-1.03755e-07
-3.79201e-07
-5.95426e-08
-3.77935e-07
-1.77662e-08
-3.62784e-07
2.0247e-08
-3.29302e-07
4.80806e-08
-2.4984e-07
6.41172e-08
-1.49754e-07
6.89146e-08
-4.83462e-08
5.0049e-08
1.51584e-07
4.08627e-07
-4.12811e-08
-6.81785e-08
-7.35441e-08
-1.05642e-07
-1.13128e-07
-9.38121e-08
-2.06419e-07
5.05584e-09
-2.97058e-07
4.36393e-09
-3.08209e-07
-7.12942e-08
-3.20169e-07
9.66089e-09
-3.52968e-07
2.56683e-07
-3.40761e-07
4.8687e-07
-2.38033e-07
3.9114e-07
-1.9537e-07
2.36359e-07
-2.52425e-07
3.17872e-07
-2.37591e-07