/*--------------------------------*- C++ -*----------------------------------*\
| =========                 |                                                 |
| \\      /  F ield         | OpenFOAM: The Open Source CFD Toolbox           |
|  \\    /   O peration     | Version:  2.4.0                                 |
|   \\  /    A nd           | Web:      www.OpenFOAM.org                      |
|    \\/     M anipulation  |                                                 |
\*---------------------------------------------------------------------------*/
FoamFile
{
    version     2.0;
    format      ascii;
    class       volScalarField;
    location    "0.037";
    object      alpha.water;
}
// * * * * * * * * * * * * * * * * * * * * * * * * * * * * * * * * * * * * * //

dimensions      [0 0 0 0 0 0 0];

internalField   nonuniform List<scalar> 
60000
(
1
1
1
1
1
1
1
1
1
1
1
1
1
1
1
1
1
1
1
1
1
1
1
1
1
1
1
1
1
1
1
1
1
1
1
1
1
1
1
1
1
1
1
1
1
1
1
1
1
1
1
1
1
1
1
1
1
1
1
1
1
1
1
1
1
1
1
1
1
1
1
1
1
1
1
1
1
1
1
1
1
1
1
1
1
1
1
1
1
1
1
1
1
1
1
1
1
1
1
1
1
1
1
1
1
1
1
1
1
1
1
1
1
1
1
1
1
1
1
1
1
1
1
1
1
1
1
1
1
1
1
1
1
1
1
1
1
1
1
1
1
1
1
1
1
1
1
1
1
1
1
1
1
1
1
1
1
1
1
1
1
1
1
1
1
1
1
1
1
1
1
1
1
1
1
1
1
1
1
1
1
1
1
1
1
1
1
1
1
1
1
1
1
1
1
1
1
1
1
1
1
1
1
1
1
1
1
1
1
1
1
1
1
1
1
1
1
1
1
1
1
1
1
1
1
1
1
1
1
1
1
1
1
1
1
1
1
1
1
1
1
1
1
1
1
1
1
1
1
1
1
1
1
1
1
1
1
1
1
1
1
1
1
1
1
1
1
1
1
1
1
1
1
1
1
1
1
1
1
1
1
1
1
1
1
1
1
1
1
1
1
1
1
1
1
1
1
1
1
1
1
1
1
1
1
1
1
1
1
1
1
1
1
1
1
1
1
1
1
1
1
1
1
1
1
1
1
1
1
1
1
1
1
1
1
1
1
1
1
1
1
1
1
1
1
1
1
1
1
1
1
1
1
1
1
1
1
1
1
1
1
1
1
1
1
1
1
1
1
1
1
1
1
1
1
1
1
1
1
1
1
1
1
1
1
1
1
1
1
1
1
1
1
1
1
1
1
1
1
1
1
1
1
1
1
1
1
1
1
1
1
1
1
1
1
1
1
1
1
1
1
1
1
1
1
1
1
1
1
1
1
1
1
1
1
1
1
1
1
1
1
1
1
1
1
1
1
1
1
1
1
1
1
1
1
1
1
1
1
1
1
1
1
1
1
1
1
1
1
1
1
1
1
1
1
1
1
1
1
1
1
1
1
1
1
1
1
1
1
1
1
1
1
1
1
1
1
1
1
1
1
1
1
1
1
1
1
1
1
1
1
1
1
1
1
1
1
1
1
1
1
1
1
1
1
1
1
1
1
1
1
1
1
1
1
1
1
1
1
1
1
1
1
1
1
1
1
1
1
1
1
1
1
1
1
1
1
1
1
1
1
1
1
1
1
1
1
1
1
1
1
1
1
1
1
1
1
1
1
1
1
1
1
1
1
1
1
1
1
1
1
1
1
1
1
1
1
1
1
1
1
1
1
1
1
1
1
1
1
1
1
1
1
1
1
1
1
1
1
1
1
1
1
1
1
1
1
1
1
1
1
1
1
1
1
1
1
1
1
1
1
1
1
1
1
1
1
1
1
1
1
1
1
1
1
1
1
1
1
1
1
1
1
1
1
1
1
1
1
1
1
1
1
1
1
1
1
1
1
1
1
1
1
1
1
1
1
1
1
1
1
1
1
1
1
1
1
1
1
1
1
1
1
1
1
1
1
1
1
1
1
1
1
1
1
1
1
1
1
1
1
1
1
1
1
1
1
1
1
1
1
1
1
1
1
1
1
1
1
1
1
1
1
1
1
1
1
1
1
1
1
1
1
1
1
1
1
1
1
1
1
1
1
1
1
1
1
1
1
1
1
1
1
1
1
1
1
1
1
1
1
1
1
1
1
1
1
1
1
1
1
1
1
1
1
1
1
1
1
1
1
1
1
1
1
1
1
1
1
1
1
1
1
1
1
1
1
1
1
1
1
1
1
1
1
1
1
1
1
1
1
1
1
1
1
1
1
1
1
1
1
1
1
1
1
1
1
1
1
1
1
1
1
1
1
1
1
1
1
1
1
1
1
1
1
1
1
1
1
1
1
1
1
1
1
1
1
1
1
1
1
1
1
1
1
1
1
1
1
1
1
1
1
1
1
1
1
1
1
1
1
1
1
1
1
1
1
1
1
1
1
1
1
1
1
1
1
1
1
1
1
1
1
1
1
1
1
1
1
1
1
1
1
1
1
1
1
1
1
1
1
1
1
1
1
1
1
1
1
1
1
1
1
1
1
1
1
1
1
1
1
1
1
1
1
1
1
1
1
1
1
1
1
1
1
1
1
1
1
1
1
1
1
1
1
1
1
1
1
1
1
1
1
1
1
1
1
1
1
1
1
1
1
1
1
1
1
1
1
1
1
1
1
1
1
1
1
1
1
1
1
1
1
1
1
1
1
1
1
1
1
1
1
1
1
1
1
1
1
1
1
1
1
1
1
1
1
1
1
1
1
1
1
1
1
1
1
1
1
1
1
1
1
1
1
1
1
1
1
1
1
1
1
1
1
1
1
1
1
1
1
1
1
1
1
1
1
1
1
1
1
1
1
1
1
1
1
1
1
1
1
1
1
1
1
1
1
1
1
1
1
1
1
1
1
1
1
1
1
1
1
1
1
1
1
1
1
1
1
1
1
1
1
1
1
1
1
1
1
1
1
1
1
1
1
1
1
1
1
1
1
1
1
1
1
1
1
1
1
1
1
1
1
1
1
1
1
1
1
1
1
1
1
1
1
1
1
1
1
1
1
1
1
1
1
1
1
1
1
1
1
1
1
1
1
1
1
1
1
1
1
1
1
1
1
1
1
1
1
1
1
1
1
1
1
1
1
1
1
1
1
1
1
1
1
1
1
1
1
1
1
1
1
1
1
1
1
1
1
1
1
1
1
1
1
1
1
1
1
1
1
1
1
1
1
1
1
1
1
1
1
1
1
1
1
1
1
1
1
1
1
1
1
1
1
1
1
1
1
1
1
1
1
1
1
1
1
1
1
1
1
1
1
1
1
1
1
1
1
1
1
1
1
1
1
1
1
1
1
1
1
1
1
1
1
1
1
1
1
1
1
1
1
1
1
1
1
1
1
1
1
1
1
1
1
1
1
1
1
1
1
1
1
1
1
1
1
1
1
1
1
1
1
1
1
1
1
1
1
1
1
1
1
1
1
1
1
1
1
1
1
1
1
1
1
1
1
1
1
1
1
1
1
1
1
1
1
1
1
1
1
1
1
1
1
1
1
1
1
1
1
1
1
1
1
1
1
1
1
1
1
1
1
1
1
1
1
1
1
1
1
1
1
1
1
1
1
1
1
1
1
1
1
1
1
1
1
1
1
1
1
1
1
1
1
1
1
1
1
1
1
1
1
1
1
1
1
1
1
1
1
1
1
1
1
1
1
1
1
1
1
1
1
1
1
1
1
1
1
1
1
1
1
1
1
1
1
1
1
1
1
1
1
1
1
1
1
1
1
1
1
1
1
1
1
1
1
1
1
1
1
1
1
1
1
1
1
1
1
1
1
1
1
1
1
1
1
1
1
1
1
1
1
1
1
1
1
1
1
1
1
1
1
1
1
1
1
1
1
1
1
1
1
1
1
1
1
1
1
1
1
1
1
1
1
1
1
1
1
1
1
1
1
1
1
1
1
1
1
1
1
1
1
1
1
1
1
1
1
1
1
1
1
1
1
1
1
1
1
1
1
1
1
1
1
1
1
1
1
1
1
1
1
1
1
1
1
1
1
1
1
1
1
1
1
1
1
1
1
1
1
1
1
1
1
1
1
1
1
1
1
1
1
1
1
1
1
1
1
1
1
1
1
1
1
1
1
1
1
1
1
1
1
1
1
1
1
1
1
1
1
1
1
1
1
1
1
1
1
1
1
1
1
1
1
1
1
1
1
1
1
1
1
1
1
1
1
1
1
1
1
1
1
1
1
1
1
1
1
1
1
1
1
1
1
1
1
1
1
1
1
1
1
1
1
1
1
1
1
1
1
1
1
1
1
1
1
1
1
1
1
1
1
1
1
1
1
1
1
1
1
1
1
1
1
1
1
1
1
1
1
1
1
1
1
1
1
1
1
1
1
1
1
1
1
1
1
1
1
1
1
1
1
1
1
1
1
1
1
1
1
1
1
1
1
1
1
1
1
1
1
1
1
1
1
1
1
1
1
1
1
1
1
1
1
1
1
1
1
1
1
1
1
1
1
1
1
1
1
1
1
1
1
1
1
1
1
1
1
1
1
1
1
1
1
1
1
1
1
1
1
1
1
1
1
1
1
1
1
1
1
1
1
1
1
1
1
1
1
1
1
1
1
1
1
1
1
1
1
1
1
1
1
1
1
1
1
1
1
1
1
1
1
1
1
1
1
1
1
1
1
1
1
1
1
1
1
1
1
1
1
1
1
1
1
1
1
1
1
1
1
1
1
1
1
1
1
1
1
1
1
1
1
1
1
1
1
1
1
1
1
1
1
1
1
1
1
1
1
1
1
1
1
1
1
1
1
1
1
1
1
1
1
1
1
1
1
1
1
1
1
1
1
1
1
1
1
1
1
1
1
1
1
1
1
1
1
1
1
1
1
1
1
1
1
1
1
1
1
1
1
1
1
1
1
1
1
1
1
1
1
1
1
1
1
1
1
1
1
1
1
1
1
1
1
1
1
1
1
1
1
1
1
1
1
1
1
1
1
1
1
1
1
1
1
1
1
1
1
1
1
1
1
1
1
1
1
1
1
1
1
1
1
1
1
1
1
1
1
1
1
1
1
1
1
1
1
1
1
1
1
1
1
1
1
1
1
1
1
1
1
1
1
1
1
1
1
1
1
1
1
1
1
1
1
1
1
1
1
1
1
1
1
1
1
1
1
1
1
1
1
1
1
1
1
1
1
1
1
1
1
1
1
1
1
1
1
1
1
1
1
1
1
1
1
1
1
1
1
1
1
1
1
1
1
1
1
1
1
1
1
1
1
1
1
1
1
1
1
1
1
1
1
1
1
1
1
1
1
1
1
1
1
1
1
1
1
1
1
1
1
1
1
1
1
1
1
1
1
1
1
1
1
1
1
1
1
1
1
1
1
1
1
1
1
1
1
1
1
1
1
1
1
1
1
1
1
1
1
1
1
1
1
1
1
1
1
1
1
1
1
1
1
1
1
1
1
1
1
1
1
1
1
1
1
1
1
1
1
1
1
1
1
1
1
1
1
1
1
1
1
1
1
1
1
1
1
1
1
1
1
1
1
1
1
1
1
1
1
1
1
1
1
1
1
1
1
1
1
1
1
1
1
1
1
1
1
1
1
1
1
1
1
1
1
1
1
1
1
1
1
1
1
1
1
1
1
1
1
1
1
1
1
1
1
1
1
1
1
1
1
1
1
1
1
1
1
1
1
1
1
1
1
1
1
1
1
1
1
1
1
1
1
1
1
1
1
1
1
1
1
1
1
1
1
1
1
1
1
1
1
1
1
1
1
1
1
1
1
1
1
1
1
1
1
1
1
1
1
1
1
1
1
1
1
1
1
1
1
1
1
1
1
1
1
1
1
1
1
1
1
1
1
1
1
1
1
1
1
1
1
1
1
1
1
1
1
1
1
1
1
1
1
1
1
1
1
1
1
1
1
1
1
1
1
1
1
1
1
1
1
1
1
1
1
1
1
1
1
1
1
1
1
1
1
1
1
1
1
1
1
1
1
1
1
1
1
1
1
1
1
1
1
1
1
1
1
1
1
1
1
1
1
1
1
1
1
1
1
1
1
1
1
1
1
1
1
1
1
1
1
1
1
1
1
1
1
1
1
1
1
1
1
1
1
1
1
1
1
1
1
1
1
1
1
1
1
1
1
1
1
1
1
1
1
1
1
1
1
1
1
1
1
1
1
1
1
1
1
1
1
1
1
1
1
1
1
1
1
1
1
1
1
1
1
1
1
1
1
1
1
1
1
1
1
1
1
1
1
1
1
1
1
1
1
1
1
1
1
1
1
1
1
1
1
1
1
1
1
1
1
1
1
1
1
1
1
1
1
1
1
1
1
1
1
1
1
1
1
1
1
1
1
1
1
1
1
1
1
1
1
1
1
1
1
1
1
1
1
1
1
1
1
1
1
1
1
1
1
1
1
1
1
1
1
1
1
1
1
1
1
1
1
1
1
1
1
1
1
1
1
1
1
1
1
1
1
1
1
1
1
1
1
1
1
1
1
1
1
1
1
1
1
1
1
1
1
1
1
1
1
1
1
1
1
1
1
1
1
1
1
1
1
1
1
1
1
1
1
1
1
1
1
1
1
1
1
1
1
1
1
1
1
1
1
1
1
1
1
1
1
1
1
1
1
1
1
1
1
1
1
1
1
1
1
1
1
1
1
1
1
1
1
1
1
1
1
1
1
1
1
1
1
1
1
1
1
1
1
1
1
1
1
1
1
1
1
1
1
1
1
1
1
1
1
1
1
1
1
1
1
1
1
1
1
1
1
1
1
1
1
1
1
1
1
1
1
1
1
1
1
1
1
1
1
1
1
1
1
1
1
1
1
1
1
1
1
1
1
1
1
1
1
1
1
1
1
1
1
1
1
1
1
1
1
1
1
1
1
1
1
1
1
1
1
1
1
1
1
1
1
1
1
1
1
1
1
1
1
1
1
1
1
1
1
1
1
1
1
1
1
1
1
1
1
1
1
1
1
1
1
1
1
1
1
1
1
1
1
1
1
1
1
1
1
1
1
1
1
1
1
1
1
1
1
1
1
1
1
1
1
1
1
1
1
1
1
1
1
1
1
1
1
1
1
1
1
1
1
1
1
1
1
1
1
1
1
1
1
1
1
1
1
1
1
1
1
1
1
1
1
1
1
1
1
1
1
1
1
1
1
1
1
1
1
1
1
1
1
1
1
1
1
1
1
1
1
1
1
1
1
1
1
1
1
1
1
1
1
1
1
1
1
1
1
1
1
1
1
1
1
1
1
1
1
1
1
1
1
1
1
1
1
1
1
1
1
1
1
1
1
1
1
1
1
1
1
1
1
1
1
1
1
1
1
1
1
1
1
1
1
1
1
1
1
1
1
1
1
1
1
1
1
1
1
1
1
1
1
1
1
1
1
1
1
1
1
1
1
1
1
1
1
1
1
1
1
1
1
1
1
1
1
1
1
1
1
1
1
1
1
1
1
1
1
1
1
1
1
1
1
1
1
1
1
1
1
1
1
1
1
1
1
1
1
1
1
1
1
1
1
1
1
1
1
1
1
1
1
1
1
1
1
1
1
1
1
1
1
1
1
1
1
1
1
1
1
1
1
1
1
1
1
1
1
1
1
1
1
1
1
1
1
1
1
1
1
1
1
1
1
1
1
1
1
1
1
1
1
1
1
1
1
1
1
1
1
1
1
1
1
1
1
1
1
1
1
1
1
1
1
1
1
1
1
1
1
1
1
1
1
1
1
1
1
1
1
1
1
1
1
1
1
1
1
1
1
1
1
1
1
1
1
1
1
1
1
1
1
1
1
1
1
1
1
1
1
1
1
1
1
1
1
1
1
1
1
1
1
1
1
1
1
1
1
1
1
1
1
1
1
1
1
1
1
1
1
1
1
1
1
1
1
1
1
1
1
1
1
1
1
1
1
1
1
1
1
1
1
1
1
1
1
1
1
1
1
1
1
1
1
1
1
1
1
1
1
1
1
1
1
1
1
1
1
1
1
1
1
1
1
1
1
1
1
1
1
1
1
1
1
1
1
1
1
1
1
1
1
1
1
1
1
1
1
1
1
1
1
1
1
1
1
1
1
1
1
1
1
1
1
1
1
1
1
1
1
1
1
1
1
1
1
1
1
1
1
1
1
1
1
1
1
1
1
1
1
1
1
1
1
1
1
1
1
1
1
1
1
1
1
1
1
1
1
1
1
1
1
1
1
1
1
1
1
1
1
1
1
1
1
1
1
1
1
1
1
1
1
1
1
1
1
1
1
1
1
1
1
1
1
1
1
1
1
1
1
1
1
1
1
1
1
1
1
1
1
1
1
1
1
1
1
1
1
1
1
1
1
1
1
1
1
1
1
1
1
1
1
1
1
1
1
1
1
1
1
1
1
1
1
1
1
1
1
1
1
1
1
1
1
1
1
1
1
1
1
1
1
1
1
1
1
1
1
1
1
1
1
1
1
1
1
1
1
1
1
1
1
1
1
1
1
1
1
1
1
1
1
1
1
1
1
1
1
1
1
1
1
1
1
1
1
1
1
1
1
1
1
1
1
1
1
1
1
1
1
1
1
1
1
1
1
1
1
1
1
1
1
1
1
1
1
1
1
1
1
1
1
1
1
1
1
1
1
1
1
1
1
1
1
1
1
1
1
1
1
1
1
1
1
1
1
1
1
1
1
1
1
1
1
1
1
1
1
1
1
1
1
1
1
1
1
1
1
1
1
1
1
1
1
1
1
1
1
1
1
1
1
1
1
1
1
1
1
1
1
1
1
1
1
1
1
1
1
1
1
1
1
1
1
1
1
1
1
1
1
1
1
1
1
1
1
1
1
1
1
1
1
1
1
1
1
1
1
1
1
1
1
1
1
1
1
1
1
1
1
1
1
1
1
1
1
1
1
1
1
1
1
1
1
1
1
1
1
1
1
1
1
1
1
1
1
1
1
1
1
1
1
1
1
1
1
1
1
1
1
1
1
1
1
1
1
1
1
1
1
1
1
1
1
1
1
1
1
1
1
1
1
1
1
1
1
1
1
1
1
1
1
1
1
1
1
1
1
1
1
1
1
1
1
1
1
1
1
1
1
1
1
1
1
1
1
1
1
1
1
1
1
1
1
1
1
1
1
1
1
1
1
1
1
1
1
1
1
1
1
1
1
1
1
1
1
1
1
1
1
1
1
1
1
1
1
1
1
1
1
1
1
1
1
1
1
1
1
1
1
1
1
1
1
1
1
1
1
1
1
1
1
1
1
1
1
1
1
1
1
1
1
1
1
1
1
1
1
1
1
1
1
1
1
1
1
1
1
1
1
1
1
1
1
1
1
1
1
1
1
1
1
1
1
1
1
1
1
1
1
1
1
1
1
1
1
1
1
1
1
1
1
1
1
1
1
1
1
1
1
1
1
1
1
1
1
1
1
1
1
1
1
1
1
1
1
1
1
1
1
1
1
1
1
1
1
1
1
1
1
1
1
1
1
1
1
1
1
1
1
1
1
1
1
1
1
1
1
1
1
1
1
1
1
1
1
1
1
1
1
1
1
1
1
1
1
1
1
1
1
1
1
1
1
1
1
1
1
1
1
1
1
1
1
1
1
1
1
1
1
1
1
1
1
1
1
1
1
1
1
1
1
1
1
1
1
1
1
1
1
1
1
1
1
1
1
1
1
1
1
1
1
1
1
1
1
1
1
1
1
1
1
1
1
1
1
1
1
1
1
1
1
1
1
1
1
1
1
1
1
1
1
1
1
1
1
1
1
1
1
1
1
1
1
1
1
1
1
1
1
1
1
1
1
1
1
1
1
1
1
1
1
1
1
1
1
1
1
1
1
1
1
1
1
1
1
1
1
1
1
1
1
1
1
1
1
1
1
1
1
1
1
1
1
1
1
1
1
1
1
1
1
1
1
1
1
1
1
1
1
1
1
1
1
1
1
1
1
1
1
1
1
1
1
1
1
1
1
1
1
1
1
1
1
1
1
1
1
1
1
1
1
1
1
1
1
1
1
1
1
1
1
1
1
1
1
1
1
1
1
1
1
1
1
1
1
1
1
1
1
1
1
1
1
1
1
1
1
1
1
1
1
1
1
1
1
1
1
1
1
1
1
1
1
1
1
1
1
1
1
1
1
1
1
1
1
1
1
1
1
1
1
1
1
1
1
1
1
1
1
1
1
1
1
1
1
1
1
1
1
1
1
1
1
1
1
1
1
1
1
1
1
1
1
1
1
1
1
1
1
1
1
1
1
1
1
1
1
1
1
1
1
1
1
1
1
1
1
1
1
1
1
1
1
1
1
1
1
1
1
1
1
1
1
1
1
1
1
1
1
1
1
1
1
1
1
1
1
1
1
1
1
1
1
1
1
1
1
1
1
1
1
1
1
1
1
1
1
1
1
1
1
1
1
1
1
1
1
1
1
1
1
1
1
1
1
1
1
1
1
1
1
1
1
1
1
1
1
1
1
1
1
1
1
1
1
1
1
1
1
1
1
1
1
1
1
1
1
1
1
1
1
1
1
1
1
1
1
1
1
1
1
1
1
1
1
1
1
1
1
1
1
1
1
1
1
1
1
1
1
1
1
1
1
1
1
1
1
1
1
1
1
1
1
1
1
1
1
1
1
1
1
1
1
1
1
1
1
1
1
1
1
1
1
1
1
1
1
1
1
1
1
1
1
1
1
1
1
1
1
1
1
1
1
1
1
1
1
1
1
1
1
1
1
1
1
1
1
1
1
1
1
1
1
1
1
1
1
1
1
1
1
1
1
1
1
1
1
1
1
1
1
1
1
1
1
1
1
1
1
1
1
1
1
1
1
1
1
1
1
1
1
1
1
1
1
1
1
1
1
1
1
1
1
1
1
1
1
1
1
1
1
1
1
1
1
1
1
1
1
1
1
1
1
1
1
1
1
1
1
1
1
1
1
1
1
1
1
1
1
1
1
1
1
1
1
1
1
1
1
1
1
1
1
1
1
1
1
1
1
1
1
1
1
1
1
1
1
1
1
1
1
1
1
1
1
1
1
1
1
1
1
1
1
1
1
1
1
1
1
1
1
1
1
1
1
1
1
1
1
1
1
1
1
1
1
1
1
1
1
1
1
1
1
1
1
1
1
1
1
1
1
1
1
1
1
1
1
1
1
1
1
1
1
1
1
1
1
1
1
1
1
1
1
1
1
1
1
1
1
1
1
1
1
1
1
1
1
1
1
1
1
1
1
1
1
1
1
1
1
1
1
1
1
1
1
1
1
1
1
1
1
1
1
1
1
1
1
1
1
1
1
1
1
1
1
1
1
1
1
1
1
1
1
1
1
1
1
1
1
1
1
1
1
1
1
1
1
1
1
1
1
1
1
1
1
1
1
1
1
1
1
1
1
1
1
1
1
1
1
1
1
1
1
1
1
1
1
1
1
1
1
1
1
1
1
1
1
1
1
1
1
1
1
1
1
1
1
1
1
1
1
1
1
1
1
1
1
1
1
1
1
1
1
1
1
1
1
1
1
1
1
1
1
1
1
1
1
1
1
1
1
1
1
1
1
1
1
1
1
1
1
1
1
1
1
1
1
1
1
1
1
1
1
1
1
1
1
1
1
1
1
1
0.999997
0.999957
0.999898
0.99986
0.99987
0.999906
0.999964
1
1
1
1
1
1
1
1
1
1
0.999992
0.999941
0.999855
0.999739
0.999597
0.999441
0.999278
0.999106
0.998944
0.998785
0.998644
0.998518
0.998414
0.99833
0.998276
0.998276
0.998299
0.998382
0.998416
0.998568
0.998622
0.998969
0.999102
0.000122083
0.000122529
0.000123311
0.000124642
0.000126201
0.000128293
0.000130743
0.000133616
0.00013685
0.000140533
0.000144566
0.000149025
0.000153786
0.000158956
0.000164442
0.000170174
0.000176191
0.000182421
0.000188662
0.000195078
0.000201469
0.000207738
0.000214046
0.000220452
0.000226832
0.000233534
0.000240948
0.000249428
0.00025919
0.000270919
0.000285194
0.000302546
0.000322498
0.00034505
0.000369597
0.000396081
0.000422296
0.000447172
0.000469049
0.000489501
0.0005095
0.000532084
0.000557846
0.000587629
0.00062049
0.000655845
0.000693444
0.000733099
0.000774663
0.000816068
0.000855115
0.000890119
0.000924501
0.000965731
0.00102453
0.00110642
0.00121156
0.00132576
0.00142526
0.00148398
0.00149543
0.00148523
0.00146937
0.00146035
0.00147796
0.00155909
0.00170303
0.00194617
0.002289
0.00266882
0.00306009
0.0034368
0.0037746
0.00405984
0.00428682
0.00444168
0.00451544
0.00452563
0.00451081
0.00447796
0.00442706
0.00435958
0.00427822
0.00418132
0.00407369
0.00395109
0.00382067
0.00367087
0.0035124
0.00333035
0.00312933
0.0029144
0.00266386
0.00242027
0.00209679
0.00180316
0.00136805
0.00105311
0.000495934
0.000175642
3.35666e-09
9.05952e-09
8.95885e-09
8.53467e-09
8.88176e-09
8.88324e-09
9.06094e-09
8.64984e-09
8.5183e-09
8.63148e-09
8.25503e-09
7.70514e-09
7.85998e-09
7.36441e-09
6.3966e-09
5.75317e-09
2.77064e-09
1.67312e-10
1.67101e-10
1.67085e-10
1.67045e-10
1.67059e-10
1.11657e-10
1.10452e-10
1.09284e-10
1.08142e-10
1.07298e-10
1.06497e-10
1.058e-10
1.05496e-10
1.05513e-10
1.05705e-10
1.05566e-10
1.05602e-10
1.05555e-10
1.05031e-10
1.02172e-10
9.89212e-11
9.60166e-11
9.44849e-11
9.36122e-11
9.35896e-11
9.36566e-11
9.38865e-11
9.35066e-11
9.27502e-11
9.17786e-11
9.10506e-11
9.08662e-11
9.12099e-11
9.23671e-11
9.37077e-11
9.33987e-11
9.11795e-11
9.02221e-11
9.07586e-11
9.31265e-11
9.60883e-11
9.8994e-11
1.06893e-10
1.40028e-11
1.40028e-11
1.40028e-11
1.40105e-11
9.99932e-11
1.03245e-10
1.1781e-10
1.51284e-10
2.04496e-10
2.69428e-10
3.43437e-10
4.16164e-10
4.75549e-10
5.20742e-10
4.21869e-10
1.26496e-10
4.14084e-11
4.14025e-11
4.1395e-11
4.13853e-11
4.13742e-11
4.13616e-11
4.13486e-11
4.13348e-11
4.13216e-11
4.13089e-11
4.12974e-11
4.12873e-11
4.12781e-11
4.12703e-11
4.1263e-11
4.12588e-11
4.12558e-11
4.12547e-11
4.12534e-11
4.1252e-11
4.1252e-11
4.1252e-11
4.12532e-11
1.38467e-10
1.01276e-12
2.1743e-12
1.0677e-12
6.19006e-13
3.29986e-13
2.22979e-13
2.53848e-13
3.33574e-13
4.6323e-13
5.43735e-13
6.31224e-13
6.8268e-13
7.71905e-13
8.27086e-13
8.76154e-13
9.37694e-13
8.34077e-13
5.56331e-13
3.73768e-13
3.57612e-13
3.18211e-13
3.32148e-13
4.19708e-13
5.51319e-13
7.55164e-13
5.96997e-13
5.92461e-13
6.48691e-13
7.15425e-13
7.1605e-13
6.4974e-13
6.17286e-13
6.1215e-13
6.14224e-13
6.26613e-13
6.46205e-13
6.75282e-13
7.04339e-13
7.50911e-13
7.7659e-13
8.03308e-13
8.20674e-13
8.73801e-13
9.48212e-13
1.07861e-12
1.22136e-12
1.42566e-12
1.63139e-12
1.93213e-12
2.15899e-12
2.44933e-12
2.61218e-12
2.91886e-12
3.22889e-12
4.08759e-12
5.57123e-12
8.35502e-12
1.13533e-11
1.36446e-11
1.39479e-11
1.42737e-11
1.40028e-11
1.45853e-11
1.42642e-11
1.53184e-11
1.88355e-11
3.37551e-11
6.74098e-11
1.20669e-10
1.85679e-10
2.59679e-10
3.32352e-10
3.91588e-10
4.36659e-10
4.65133e-10
4.80862e-10
4.93849e-10
5.01781e-10
5.18842e-10
5.20455e-10
5.44451e-10
5.34151e-10
5.67534e-10
5.38373e-10
5.83639e-10
5.31072e-10
5.86433e-10
5.07964e-10
5.68085e-10
4.68457e-10
5.23153e-10
4.12436e-10
4.46806e-10
3.45731e-10
3.51445e-10
2.80483e-10
2.57507e-10
1.90771e-10
9.3907e-11
4.12764e-11
3.72686e-15
1.23402e-15
1.47132e-16
3.42657e-17
6.53052e-18
1.96202e-18
2.3708e-18
5.82229e-18
1.56655e-17
2.52884e-17
3.50547e-17
4.21756e-17
5.14002e-17
5.87574e-17
6.75362e-17
7.74464e-17
7.99962e-17
6.61382e-17
5.07996e-17
5.13002e-17
4.78488e-17
5.15232e-17
6.60544e-17
8.72282e-17
1.17914e-16
9.75339e-17
1.00671e-16
1.1506e-16
1.33468e-16
1.43405e-16
1.41297e-16
1.4505e-16
1.54141e-16
1.64114e-16
1.74505e-16
1.83847e-16
1.91585e-16
1.96358e-16
2.06911e-16
2.14161e-16
2.21572e-16
2.28491e-16
2.41111e-16
2.64413e-16
2.98359e-16
3.4363e-16
3.97549e-16
4.63009e-16
5.63999e-16
6.53922e-16
7.85498e-16
8.92384e-16
1.0647e-15
1.24154e-15
1.57748e-15
2.03221e-15
2.92224e-15
4.03409e-15
5.41781e-15
6.13007e-15
6.59038e-15
6.55463e-15
7.01654e-15
7.00107e-15
7.9118e-15
9.82586e-15
1.67035e-14
3.3671e-14
7.53775e-14
1.43699e-13
2.47178e-13
3.73348e-13
5.12858e-13
6.42513e-13
7.53355e-13
8.21005e-13
8.6251e-13
8.68005e-13
9.08016e-13
8.96288e-13
9.51966e-13
9.1296e-13
9.85856e-13
9.09228e-13
1.00113e-12
8.83465e-13
9.87178e-13
8.25263e-13
9.31523e-13
7.42829e-13
8.46746e-13
6.60989e-13
7.73781e-13
6.59804e-13
9.35713e-13
1.21392e-12
2.39805e-12
2.72095e-12
2.18084e-12
7.38436e-13
1.57471e-17
1.03209e-18
2.48502e-20
1.81151e-21
8.82657e-23
6.21468e-24
6.52815e-24
4.77961e-23
3.78868e-22
1.06756e-21
1.87205e-21
2.54033e-21
3.31914e-21
3.96344e-21
4.73648e-21
5.59006e-21
6.15253e-21
5.67049e-21
4.75454e-21
4.97125e-21
4.85662e-21
5.39898e-21
6.94616e-21
9.15813e-21
1.22147e-20
1.08044e-20
1.17121e-20
1.40052e-20
1.7067e-20
1.96076e-20
2.09463e-20
2.31825e-20
2.63953e-20
2.9986e-20
3.37767e-20
3.73993e-20
4.05758e-20
4.30019e-20
4.68148e-20
5.00207e-20
5.30011e-20
5.56157e-20
5.87888e-20
6.51081e-20
7.33591e-20
8.60513e-20
9.90162e-20
1.17559e-19
1.467e-19
1.74338e-19
2.16336e-19
2.55752e-19
3.18874e-19
3.92641e-19
5.18262e-19
6.86652e-19
9.84892e-19
1.36012e-18
1.88018e-18
2.24356e-18
2.55585e-18
2.60681e-18
2.84097e-18
2.92407e-18
3.50731e-18
4.65364e-18
8.0256e-18
1.56858e-17
3.79243e-17
8.28964e-17
1.69428e-16
2.9426e-16
4.6261e-16
6.38521e-16
8.149e-16
9.31581e-16
1.02042e-15
1.02069e-15
1.08057e-15
1.05549e-15
1.13687e-15
1.07721e-15
1.17845e-15
1.07314e-15
1.19521e-15
1.04758e-15
1.18228e-15
9.92182e-16
1.13641e-15
9.37945e-16
1.11704e-15
9.68247e-16
1.31898e-15
1.54111e-15
3.7433e-15
8.61218e-15
2.66511e-14
4.4305e-14
4.64776e-14
1.09563e-14
6.50068e-20
1.0231e-21
4.86376e-24
9.68961e-26
9.80012e-28
8.19399e-30
4.48476e-30
2.05404e-28
6.9158e-27
4.26496e-26
1.00398e-25
1.56499e-25
2.19189e-25
2.7123e-25
3.30263e-25
3.93048e-25
4.42249e-25
4.34189e-25
3.86595e-25
4.1304e-25
4.20322e-25
4.82272e-25
6.22563e-25
8.21144e-25
1.08781e-24
1.04244e-24
1.19299e-24
1.49238e-24
1.9034e-24
2.32042e-24
2.66028e-24
3.13927e-24
3.7919e-24
4.56078e-24
5.41825e-24
6.30614e-24
7.16679e-24
7.94332e-24
9.02865e-24
1.00648e-23
1.10629e-23
1.19681e-23
1.28875e-23
1.45512e-23
1.65535e-23
1.98162e-23
2.28042e-23
2.75372e-23
3.51645e-23
4.26085e-23
5.43589e-23
6.62611e-23
8.56985e-23
1.10459e-22
1.50652e-22
2.06672e-22
3.0091e-22
4.23425e-22
5.96583e-22
7.45358e-22
8.98987e-22
9.68335e-22
1.0824e-21
1.20454e-21
1.56596e-21
2.19683e-21
3.82263e-21
7.30069e-21
1.74607e-20
4.02725e-20
9.2741e-20
1.8007e-19
3.19613e-19
4.82405e-19
6.70657e-19
8.09352e-19
9.37025e-19
9.51606e-19
1.02193e-18
9.97382e-19
1.0913e-18
1.0356e-18
1.14983e-18
1.05485e-18
1.19252e-18
1.06603e-18
1.22485e-18
1.07094e-18
1.26774e-18
1.14317e-18
1.48498e-18
1.56239e-18
2.74817e-18
5.24617e-18
2.10292e-17
7.18055e-17
3.06877e-16
7.23262e-16
8.91691e-16
1.34157e-16
2.43338e-22
1.08144e-24
1.04904e-27
5.37732e-30
1.04179e-32
7.45113e-36
1.02064e-36
5.87931e-34
1.04651e-31
1.65667e-30
5.45937e-30
9.89684e-30
1.48704e-29
1.90112e-29
2.33863e-29
2.78266e-29
3.13978e-29
3.20094e-29
2.98341e-29
3.24754e-29
3.44633e-29
4.09513e-29
5.32493e-29
7.05557e-29
9.35567e-29
9.7635e-29
1.17984e-28
1.53803e-28
2.03811e-28
2.60906e-28
3.17117e-28
3.94427e-28
5.00366e-28
6.31638e-28
7.86052e-28
9.57313e-28
1.13803e-27
1.32099e-27
1.57066e-27
1.83257e-27
2.10061e-27
2.35865e-27
2.61234e-27
3.02592e-27
3.50345e-27
4.28949e-27
4.96916e-27
6.10159e-27
7.96957e-27
9.82104e-27
1.28538e-26
1.60583e-26
2.14493e-26
2.87364e-26
4.02941e-26
5.69592e-26
8.43088e-26
1.21597e-25
1.75113e-25
2.29132e-25
2.91886e-25
3.3967e-25
4.08815e-25
4.93507e-25
6.78135e-25
1.0021e-24
1.77435e-24
3.38525e-24
7.83688e-24
1.80776e-23
4.41403e-23
9.25077e-23
1.81478e-22
2.96784e-22
4.48696e-22
5.74626e-22
7.09095e-22
7.51417e-22
8.24872e-22
8.13935e-22
9.08958e-22
8.77041e-22
9.93887e-22
9.3694e-22
1.08456e-21
1.01359e-21
1.20334e-21
1.13292e-21
1.42585e-21
1.46884e-21
2.19419e-21
3.0186e-21
7.82149e-21
2.35277e-20
1.23648e-19
6.01382e-19
3.4478e-18
1.08888e-17
1.50125e-17
1.33996e-18
7.8414e-25
1.18065e-27
2.42913e-31
3.12393e-34
1.17748e-37
8.20166e-42
3.11874e-43
1.60013e-39
1.46774e-36
6.43044e-35
3.02412e-34
6.40632e-34
1.03275e-33
1.36262e-33
1.68874e-33
2.00575e-33
2.25568e-33
2.35676e-33
2.28588e-33
2.54734e-33
2.83791e-33
3.51243e-33
4.62607e-33
6.18069e-33
8.2534e-33
9.33632e-33
1.18576e-32
1.60064e-32
2.18505e-32
2.90501e-32
3.70109e-32
4.80693e-32
6.355e-32
8.36225e-32
1.08392e-31
1.37507e-31
1.70486e-31
2.06927e-31
2.57077e-31
3.13797e-31
3.75465e-31
4.38482e-31
5.01698e-31
5.97933e-31
7.07991e-31
8.87824e-31
1.04124e-30
1.30118e-30
1.73795e-30
2.17646e-30
2.91781e-30
3.72056e-30
5.11426e-30
7.08138e-30
1.01731e-29
1.4753e-29
2.21867e-29
3.28102e-29
4.84225e-29
6.63567e-29
8.92441e-29
1.11873e-28
1.44645e-28
1.89248e-28
2.76064e-28
4.31656e-28
7.85857e-28
1.52605e-27
3.46254e-27
7.88582e-27
1.95074e-26
4.26703e-26
8.99879e-26
1.57536e-25
2.57395e-25
3.5087e-25
4.63505e-25
5.19713e-25
5.98535e-25
6.04765e-25
6.93267e-25
6.90833e-25
8.04707e-25
7.93705e-25
9.51247e-25
9.49412e-25
1.18654e-24
1.23502e-24
1.70674e-24
2.08668e-24
3.80349e-24
7.48802e-24
2.69432e-23
1.06407e-22
7.24139e-22
4.86911e-21
3.64204e-20
1.4686e-19
2.1696e-19
1.07897e-20
2.09459e-27
1.53321e-30
1.13142e-34
2.12656e-38
1.49806e-42
1.39495e-47
3.446e-49
6.05115e-45
2.1138e-41
2.56278e-39
1.71608e-38
4.23891e-38
7.32155e-38
9.96406e-38
1.24436e-37
1.47901e-37
1.66114e-37
1.77181e-37
1.78861e-37
2.05954e-37
2.42935e-37
3.14765e-37
4.2179e-37
5.69061e-37
7.67408e-37
9.30033e-37
1.23271e-36
1.71203e-36
2.3895e-36
3.26762e-36
4.32285e-36
5.82165e-36
7.97595e-36
1.08845e-35
1.46288e-35
1.92532e-35
2.48148e-35
3.14097e-35
4.06741e-35
5.18314e-35
6.46591e-35
7.85104e-35
9.29321e-35
1.14067e-34
1.38476e-34
1.77957e-34
2.12189e-34
2.7015e-34
3.68898e-34
4.69551e-34
6.44045e-34
8.36013e-34
1.17927e-33
1.6801e-33
2.4669e-33
3.65911e-33
5.59091e-33
8.47359e-33
1.28389e-32
1.84065e-32
2.6117e-32
3.51142e-32
4.86012e-32
6.85884e-32
1.06095e-31
1.75504e-31
3.30202e-31
6.5907e-31
1.49045e-30
3.3823e-30
8.31806e-30
1.85823e-29
4.09976e-29
7.58677e-29
1.32648e-28
1.92681e-28
2.72684e-28
3.26577e-28
4.02235e-28
4.25835e-28
5.0461e-28
5.26544e-28
6.3626e-28
6.66039e-28
8.37519e-28
9.08868e-28
1.22051e-27
1.43776e-27
2.25803e-27
3.41248e-27
8.15351e-27
2.10951e-26
9.23773e-26
4.71127e-25
4.10576e-24
3.70653e-23
3.51692e-22
1.73743e-21
2.64557e-21
6.93633e-23
4.51251e-30
2.89862e-33
3.84526e-37
2.97209e-41
1.90574e-46
3.69989e-53
1.86543e-54
4.38405e-50
3.39769e-46
1.07352e-43
1.00427e-42
2.86937e-42
5.29327e-42
7.42575e-42
9.36119e-42
1.11934e-41
1.26493e-41
1.38154e-41
1.45746e-41
1.75189e-41
2.20182e-41
2.99205e-41
4.08671e-41
5.56167e-41
7.57306e-41
9.69705e-41
1.33205e-40
1.89359e-40
2.68699e-40
3.75096e-40
5.11418e-40
7.10353e-40
1.00434e-39
1.41581e-39
1.96557e-39
2.67399e-39
3.57086e-39
4.69916e-39
6.32431e-39
8.39012e-39
1.08888e-38
1.37258e-38
1.6806e-38
2.12396e-38
2.64654e-38
3.48541e-38
4.23762e-38
5.50156e-38
7.67814e-38
9.93897e-38
1.39353e-37
1.83881e-37
2.65593e-37
3.88064e-37
5.81438e-37
8.80429e-37
1.36744e-36
2.12352e-36
3.30734e-36
4.95225e-36
7.40256e-36
1.06217e-35
1.56733e-35
2.37305e-35
3.8823e-35
6.77915e-35
1.32048e-34
2.71938e-34
6.20003e-34
1.4188e-33
3.47005e-33
7.86e-33
1.77981e-32
3.44694e-32
6.37933e-32
9.87197e-32
1.49389e-31
1.92286e-31
2.54139e-31
2.91133e-31
3.61408e-31
3.99462e-31
5.05376e-31
5.69228e-31
7.61411e-31
9.12476e-31
1.34649e-30
1.83932e-30
3.41338e-30
6.54425e-30
1.865e-29
5.84573e-29
3.08902e-28
2.00417e-27
2.20603e-26
2.59714e-25
3.04099e-24
1.77599e-23
2.68874e-23
3.53579e-25
7.6922e-33
6.34632e-36
1.39066e-39
1.37355e-43
2.88504e-48
1.44604e-58
2.95425e-59
6.36151e-55
6.54507e-51
4.80831e-48
6.09948e-47
1.99113e-46
3.90406e-46
5.64013e-46
7.19672e-46
8.72203e-46
1.00307e-45
1.1304e-45
1.25309e-45
1.58455e-45
2.12531e-45
3.02346e-45
4.20634e-45
5.75991e-45
7.90571e-45
1.05632e-44
1.49547e-44
2.16833e-44
3.11636e-44
4.41618e-44
6.16873e-44
8.80003e-44
1.27973e-43
1.85747e-43
2.65484e-43
3.72062e-43
5.13117e-43
6.99816e-43
9.75895e-43
1.34383e-42
1.80979e-42
2.36362e-42
2.99066e-42
3.88858e-42
4.97441e-42
6.711e-42
8.33573e-42
1.10424e-41
1.57445e-41
2.07404e-41
2.97057e-41
3.98211e-41
5.88021e-41
8.79093e-41
1.34274e-40
2.07331e-40
3.27562e-40
5.21163e-40
8.35051e-40
1.30342e-39
2.04849e-39
3.12102e-39
4.88875e-39
7.89938e-39
1.36283e-38
2.50519e-38
5.05429e-38
1.0752e-37
2.48807e-37
5.7878e-37
1.41805e-36
3.26286e-36
7.5186e-36
1.5154e-35
2.94205e-35
4.84613e-35
7.81772e-35
1.0851e-34
1.54046e-34
1.92319e-34
2.5753e-34
3.07794e-34
4.12338e-34
5.05073e-34
7.29657e-34
9.81337e-34
1.63084e-33
2.62964e-33
5.66688e-33
1.26696e-32
4.1784e-32
1.57163e-31
9.94043e-31
8.07771e-30
1.10526e-28
1.64918e-27
2.32078e-26
1.55278e-25
2.25998e-25
1.42351e-27
1.02534e-35
1.18966e-38
3.39321e-42
3.8776e-46
1.14251e-50
4.59969e-58
8.1377e-64
1.53928e-59
1.61561e-55
2.32662e-52
3.86385e-51
1.41964e-50
2.9403e-50
4.3685e-50
5.6617e-50
7.02074e-50
8.33399e-50
9.78521e-50
1.14458e-49
1.52714e-49
2.17867e-49
3.23102e-49
4.5696e-49
6.27942e-49
8.67078e-49
1.19738e-48
1.74015e-48
2.5679e-48
3.72921e-48
5.34322e-48
7.61053e-48
1.11119e-47
1.65747e-47
2.46999e-47
3.62357e-47
5.21486e-47
7.40403e-47
1.04329e-46
1.50305e-46
2.14204e-46
2.98573e-46
4.0313e-46
5.26388e-46
7.03394e-46
9.23518e-46
1.27559e-45
1.62052e-45
2.19122e-45
3.19044e-45
4.27962e-45
6.258e-45
8.52161e-45
1.28503e-44
1.96255e-44
3.05418e-44
4.80611e-44
7.72953e-44
1.25997e-43
2.07775e-43
3.37414e-43
5.56298e-43
8.95621e-43
1.48302e-42
2.54479e-42
4.61648e-42
8.90987e-42
1.86191e-41
4.09249e-41
9.65134e-41
2.29256e-40
5.66854e-40
1.33109e-39
3.11924e-39
6.53193e-39
1.32307e-38
2.31758e-38
3.9744e-38
5.956e-38
9.08091e-38
1.23816e-37
1.79363e-37
2.36281e-37
3.43832e-37
4.65963e-37
7.37075e-37
1.11769e-36
2.06939e-36
3.79722e-36
9.23181e-36
2.39247e-35
9.08555e-35
4.06437e-34
3.04877e-33
3.05317e-32
5.10349e-31
9.38947e-30
1.54885e-28
1.15431e-27
1.5651e-27
4.52007e-30
1.06354e-38
1.74052e-41
5.79127e-45
7.30721e-49
2.38865e-53
9.78726e-60
3.22806e-68
5.43373e-64
5.35186e-60
1.2212e-56
2.56043e-55
1.04183e-54
2.2634e-54
3.45301e-54
4.56527e-54
5.85814e-54
7.28981e-54
8.99819e-54
1.11147e-53
1.56161e-53
2.35454e-53
3.62271e-53
5.19754e-53
7.15293e-53
9.92119e-53
1.40639e-52
2.09256e-52
3.1389e-52
4.59955e-52
6.64454e-52
9.61408e-52
1.43255e-51
2.18652e-51
3.33705e-51
5.01113e-51
7.38409e-51
1.07611e-50
1.56199e-50
2.31843e-50
3.41005e-50
4.90704e-50
6.83462e-50
9.19554e-50
1.26129e-49
1.69866e-49
2.40041e-49
3.12087e-49
4.30803e-49
6.40192e-49
8.74852e-49
1.30544e-48
1.80605e-48
2.77893e-48
4.33097e-48
6.86513e-48
1.10067e-47
1.80311e-47
3.01114e-47
5.11074e-47
8.61835e-47
1.4872e-46
2.519e-46
4.39214e-46
7.96831e-46
1.51585e-45
3.06434e-45
6.63207e-45
1.50626e-44
3.63056e-44
8.82919e-44
2.21589e-43
5.33256e-43
1.27472e-42
2.77501e-42
5.85283e-42
1.08944e-41
1.98253e-41
3.20738e-41
5.24964e-41
7.81882e-41
1.22612e-40
1.78036e-40
2.82165e-40
4.246e-40
7.37317e-40
1.25402e-39
2.5759e-39
5.36385e-39
1.46722e-38
4.38442e-38
1.90698e-37
1.00502e-36
8.85145e-36
1.07457e-34
2.15476e-33
4.76227e-32
8.99526e-31
7.27826e-30
8.9275e-30
1.13287e-32
8.60295e-42
1.98577e-44
7.23781e-48
9.69366e-52
3.27716e-56
2.05086e-62
1.68101e-72
2.57741e-68
2.35703e-64
6.94809e-61
1.7765e-59
7.87722e-59
1.782e-58
2.78737e-58
3.77974e-58
5.08371e-58
6.73162e-58
8.78745e-58
1.14265e-57
1.68135e-57
2.66e-57
4.22837e-57
6.1442e-57
8.4577e-57
1.17715e-56
1.70505e-56
2.59281e-56
3.95082e-56
5.83649e-56
8.48415e-56
1.24334e-55
1.88612e-55
2.9397e-55
4.58476e-55
7.02993e-55
1.05781e-54
1.578e-54
2.35298e-54
3.58905e-54
5.43439e-54
8.05395e-54
1.15476e-53
1.59832e-53
2.24752e-53
3.10247e-53
4.48196e-53
5.96458e-53
8.40454e-53
1.27395e-52
1.77405e-52
2.69999e-52
3.79608e-52
5.95607e-52
9.46534e-52
1.52799e-51
2.49571e-51
4.1665e-51
7.12729e-51
1.24479e-50
2.17583e-50
3.92101e-50
6.96007e-50
1.27335e-49
2.43294e-49
4.8415e-49
1.023e-48
2.29277e-48
5.38122e-48
1.32871e-47
3.31423e-47
8.47984e-47
2.09784e-46
5.13603e-46
1.16393e-45
2.55712e-45
5.05523e-45
9.75526e-45
1.70239e-44
2.99023e-44
4.86066e-44
8.25403e-44
1.31963e-43
2.27871e-43
3.80191e-43
7.24768e-43
1.37954e-42
3.14054e-42
7.39538e-42
2.26925e-41
7.77349e-41
3.8493e-40
2.36662e-39
2.42163e-38
3.50579e-37
8.28045e-36
2.14544e-34
4.54002e-33
3.89499e-32
4.20573e-32
2.24715e-35
5.4773e-45
1.80065e-47
6.96185e-51
9.38138e-55
3.13739e-59
1.81725e-65
1.06682e-76
1.51981e-72
1.2989e-68
4.26779e-65
1.28949e-63
6.13675e-63
1.43525e-62
2.29923e-62
3.21908e-62
4.60072e-62
6.56305e-62
9.07606e-62
1.23486e-61
1.89003e-61
3.11724e-61
5.10369e-61
7.50375e-61
1.03254e-60
1.44121e-60
2.12646e-60
3.30097e-60
5.10753e-60
7.60288e-60
1.11057e-59
1.64461e-59
2.5348e-59
4.02725e-59
6.40619e-59
1.00082e-58
1.53419e-58
2.33688e-58
3.57061e-58
5.58409e-58
8.68402e-58
1.32257e-57
1.9482e-57
2.7696e-57
3.98765e-57
5.63699e-57
8.31803e-57
1.13288e-56
1.62902e-56
2.51692e-56
3.57193e-56
5.54157e-56
7.91967e-56
1.26638e-55
2.05094e-55
3.37138e-55
5.60943e-55
9.54653e-55
1.67239e-54
3.0043e-54
5.43416e-54
1.02052e-53
1.89203e-53
3.62072e-53
7.26121e-53
1.50822e-52
3.32508e-52
7.71647e-52
1.87195e-51
4.7445e-51
1.21569e-50
3.18214e-50
8.11155e-50
2.04156e-49
4.82308e-49
1.10539e-48
2.31991e-48
4.74778e-48
8.92679e-48
1.68248e-47
2.98058e-47
5.48166e-47
9.63437e-47
1.81272e-46
3.34678e-46
7.00118e-46
1.48751e-45
3.7473e-45
9.93965e-45
3.40957e-44
1.33059e-43
7.45398e-43
5.29357e-42
6.22634e-41
1.05779e-39
2.89065e-38
8.5847e-37
1.99435e-35
1.77492e-34
1.64502e-34
3.5428e-38
2.79001e-48
1.32746e-50
5.35715e-54
6.98558e-58
2.17196e-62
1.00008e-68
7.79086e-81
1.0424e-76
8.36614e-73
2.81305e-69
9.77124e-68
4.92271e-67
1.18235e-66
1.93893e-66
2.82539e-66
4.34923e-66
6.73798e-66
9.84886e-66
1.39178e-65
2.20133e-65
3.76578e-65
6.33723e-65
9.42309e-65
1.29598e-64
1.81352e-64
2.72001e-64
4.30675e-64
6.76497e-64
1.01437e-63
1.48755e-63
2.22204e-63
3.47402e-63
5.61818e-63
9.10058e-63
1.44592e-62
2.25339e-62
3.497e-62
5.46282e-62
8.74149e-62
1.39329e-61
2.17618e-61
3.28725e-61
4.79234e-61
7.05611e-61
1.02044e-60
1.53667e-60
2.14098e-60
3.14015e-60
4.94157e-60
7.14592e-60
1.12941e-59
1.64091e-59
2.67261e-59
4.40881e-59
7.37874e-59
1.25055e-58
2.16992e-58
3.89166e-58
7.18658e-58
1.3431e-57
2.62343e-57
5.06548e-57
1.01119e-56
2.12242e-56
4.59266e-56
1.05486e-55
2.53463e-55
6.35735e-55
1.65691e-54
4.36759e-54
1.17302e-53
3.08676e-53
8.01235e-53
1.97564e-52
4.73209e-52
1.05391e-51
2.28844e-51
4.62997e-51
9.36324e-51
1.80478e-50
3.59483e-50
6.93305e-50
1.4211e-49
2.8971e-49
6.64584e-49
1.57161e-48
4.37312e-48
1.30109e-47
4.97072e-47
2.19583e-46
1.38262e-45
1.12314e-44
1.50262e-43
2.94998e-42