/*--------------------------------*- C++ -*----------------------------------*\
| =========                 |                                                 |
| \\      /  F ield         | OpenFOAM: The Open Source CFD Toolbox           |
|  \\    /   O peration     | Version:  2.4.0                                 |
|   \\  /    A nd           | Web:      www.OpenFOAM.org                      |
|    \\/     M anipulation  |                                                 |
\*---------------------------------------------------------------------------*/
FoamFile
{
    version     2.0;
    format      ascii;
    class       surfaceScalarField;
    location    "0.013";
    object      phiAlpha;
}
// * * * * * * * * * * * * * * * * * * * * * * * * * * * * * * * * * * * * * //

dimensions      [0 3 -1 0 0 0 0];

internalField   nonuniform List<scalar> 
7080
(
-5.72424e-13
5.72328e-13
-2.94702e-12
2.3742e-12
-7.75257e-12
4.80528e-12
-1.51996e-11
7.44662e-12
-2.53959e-11
1.01968e-11
-3.80541e-11
1.26602e-11
-5.21402e-11
1.40859e-11
-6.56954e-11
1.35532e-11
-7.5983e-11
1.02876e-11
-7.99008e-11
3.91596e-12
-7.49155e-11
-4.9868e-12
-6.00241e-11
-1.48938e-11
-3.71473e-11
-2.28769e-11
-1.00159e-11
-2.71326e-11
1.62947e-11
-2.63116e-11
3.77906e-11
-2.14967e-11
5.20011e-11
-1.42116e-11
5.86719e-11
-6.67055e-12
5.90156e-11
-3.44461e-13
5.48297e-11
4.18573e-12
4.79399e-11
6.8897e-12
3.97764e-11
8.16306e-12
3.1505e-11
8.27132e-12
2.37967e-11
7.70814e-12
1.71488e-11
6.64786e-12
1.17041e-11
5.44433e-12
7.62017e-12
4.08387e-12
4.61832e-12
3.00195e-12
2.61546e-12
2.00259e-12
1.57658e-12
1.03913e-12
-6.05465e-13
1.17764e-12
-2.62277e-12
4.39121e-12
-6.28291e-12
8.46542e-12
-1.17823e-11
1.29459e-11
-1.89507e-11
1.73659e-11
-2.71523e-11
2.08634e-11
-3.50845e-11
2.20179e-11
-4.08268e-11
1.92937e-11
-4.16962e-11
1.11563e-11
-3.50877e-11
-2.69472e-12
-1.91279e-11
-2.09484e-11
5.89389e-12
-3.99174e-11
3.71438e-11
-5.41285e-11
6.93876e-11
-5.93775e-11
9.71482e-11
-5.40736e-11
1.15943e-10
-4.0293e-11
1.24171e-10
-2.24405e-11
1.22424e-10
-4.92298e-12
1.1299e-10
9.08782e-12
9.86723e-11
1.85033e-11
8.21365e-11
2.34253e-11
6.54273e-11
2.48715e-11
4.99998e-11
2.36987e-11
3.65946e-11
2.11128e-11
2.56737e-11
1.75687e-11
1.71313e-11
1.39864e-11
1.09396e-11
1.02753e-11
6.5293e-12
7.41255e-12
3.82427e-12
4.70718e-12
3.63914e-12
1.76215e-12
-6.50871e-13
1.82845e-12
-2.82347e-12
6.56359e-12
-6.72185e-12
1.23637e-11
-1.25299e-11
1.87537e-11
-2.01072e-11
2.49437e-11
-2.87897e-11
2.95474e-11
-3.71367e-11
3.03646e-11
-4.29103e-11
2.50654e-11
-4.33047e-11
1.15502e-11
-3.54586e-11
-1.05425e-11
-1.76768e-11
-3.87315e-11
9.39283e-12
-6.69883e-11
4.23762e-11
-8.71134e-11
7.57569e-11
-9.27589e-11
1.0371e-10
-8.20281e-11
1.22063e-10
-5.86467e-11
1.29434e-10
-2.98138e-11
1.26684e-10
-2.17127e-12
1.1628e-10
1.94899e-11
1.01136e-10
3.3647e-11
8.39308e-11
4.06305e-11
6.66792e-11
4.21224e-11
5.08623e-11
3.95154e-11
3.7159e-11
3.48157e-11
2.60326e-11
2.86951e-11
1.7366e-11
2.26528e-11
1.1084e-11
1.65569e-11
6.58379e-12
1.19131e-11
3.89028e-12
7.40024e-12
4.9285e-12
2.60137e-12
-6.64643e-13
2.49297e-12
-3.05285e-12
8.95144e-12
-7.50814e-12
1.68188e-11
-1.4208e-11
2.54532e-11
-2.29705e-11
3.37067e-11
-3.29376e-11
3.95163e-11
-4.24584e-11
3.98851e-11
-4.89283e-11
3.15334e-11
-4.91774e-11
1.1799e-11
-4.01426e-11
-1.95788e-11
-2.0263e-11
-5.86124e-11
9.29259e-12
-9.6545e-11
4.44234e-11
-1.22246e-10
7.91009e-11
-1.27437e-10
1.07274e-10
-1.10202e-10
1.25097e-10
-7.64714e-11
1.31556e-10
-3.6274e-11
1.27911e-10
1.47429e-12
1.16835e-10
3.05647e-11
1.01274e-10
4.92087e-11
8.38605e-11
5.80434e-11
6.65385e-11
5.94436e-11
5.07099e-11
5.5344e-11
3.703e-11
4.84951e-11
2.59391e-11
3.97859e-11
1.72833e-11
3.13083e-11
1.10253e-11
2.28146e-11
6.56639e-12
1.63724e-11
3.82016e-12
1.0146e-11
6.82261e-12
1.92648e-12
-8.27863e-13
3.32068e-12
-3.73794e-12
1.18611e-11
-9.13183e-12
2.22125e-11
-1.72146e-11
3.35355e-11
-2.76957e-11
4.41883e-11
-3.95202e-11
5.1343e-11
-5.06224e-11
5.09872e-11
-5.79268e-11
3.88358e-11
-5.77612e-11
1.16334e-11
-4.69834e-11
-3.03581e-11
-2.40378e-11
-8.15591e-11
8.96399e-12
-1.29548e-10
4.70537e-11
-1.60337e-10
8.33737e-11
-1.63758e-10
1.11755e-10
-1.38585e-10
1.28776e-10
-9.34932e-11
1.34017e-10
-4.15162e-11
1.29232e-10
6.2601e-12
1.17323e-10
4.24729e-11
1.01265e-10
6.52669e-11
8.36255e-11
7.56823e-11
6.62347e-11
7.68335e-11
5.04244e-11
7.11542e-11
3.67922e-11
6.21269e-11
2.57631e-11
5.08149e-11
1.71571e-11
3.9914e-11
1.09422e-11
2.90291e-11
6.51595e-12
2.0799e-11
3.78785e-12
1.28737e-11
8.75169e-12
1.85919e-12
-1.05035e-12
4.37084e-12
-4.66434e-12
1.54745e-11
-1.13377e-11
2.88855e-11
-2.12611e-11
4.34583e-11
-3.40739e-11
5.70017e-11
-4.83517e-11
6.56235e-11
-6.14857e-11
6.4121e-11
-6.97978e-11
4.71456e-11
-6.8999e-11
1.08349e-11
-5.5661e-11
-4.36976e-11
-2.85165e-11
-1.08705e-10
9.03072e-12
-1.67096e-10
5.09164e-11
-2.02224e-10
8.91274e-11
-2.01969e-10
1.17606e-10
-1.67065e-10
1.33452e-10
-1.0934e-10
1.3707e-10
-4.5136e-11
1.30819e-10
1.25124e-11
1.17869e-10
5.54217e-11
1.012e-10
8.19359e-11
8.3291e-11
9.35911e-11
6.58247e-11
9.4299e-11
5.00465e-11
8.69322e-11
3.64804e-11
7.56926e-11
2.55332e-11
6.17621e-11
1.69942e-11
4.84529e-11
1.08362e-11
3.51867e-11
6.44957e-12
2.5186e-11
3.75074e-12
1.55721e-11
1.06569e-11
1.84597e-12
-1.33166e-12
5.70225e-12
-5.86977e-12
2.00118e-11
-1.42277e-11
3.72429e-11
-2.66742e-11
5.59039e-11
-4.25644e-11
7.28927e-11
-6.00388e-11
8.31011e-11
-7.57948e-11
7.98769e-11
-8.52004e-11
5.65487e-11
-8.32398e-11
8.87465e-12
-6.638e-11
-6.0559e-11
-3.36143e-11
-1.41471e-10
9.72526e-12
-2.10437e-10
5.62345e-11
-2.48735e-10
9.66165e-11
-2.42351e-10
1.24957e-10
-1.95406e-10
1.39176e-10
-1.23559e-10
1.40724e-10
-4.66861e-11
1.32663e-10
2.05754e-11
1.18466e-10
6.96165e-11
1.0108e-10
9.93224e-11
8.28611e-11
1.1181e-10
6.53136e-11
1.11846e-10
4.95824e-11
1.02663e-10
3.60997e-11
8.91748e-11
2.52537e-11
7.26079e-11
1.67965e-11
5.69099e-11
1.07082e-11
4.12746e-11
6.36926e-12
2.95252e-11
3.70605e-12
1.82349e-11
1.25411e-11
1.82216e-12
-1.71362e-12
7.41553e-12
-7.50505e-12
2.58024e-11
-1.81353e-11
4.78729e-11
-3.38953e-11
7.16632e-11
-5.38261e-11
9.28251e-11
-7.54303e-11
1.0471e-10
-9.42769e-11
9.87236e-11
-1.04788e-10
6.70565e-11
-1.0108e-10
5.16749e-12
-7.93814e-11
-8.22597e-11
-3.91833e-11
-1.8167e-10
1.14048e-11
-2.61025e-10
6.34384e-11
-3.0077e-10
1.06111e-10
-2.85024e-10
1.33938e-10
-2.23234e-10
1.45972e-10
-1.35594e-10
1.44948e-10
-4.56642e-11
1.34725e-10
3.08006e-11
1.19086e-10
8.52536e-11
1.00888e-10
1.17521e-10
8.23284e-11
1.30369e-10
6.46986e-11
1.29475e-10
4.90314e-11
1.18331e-10
3.56499e-11
1.02556e-10
2.4925e-11
8.33328e-11
1.65641e-11
6.52706e-11
1.05584e-11
4.728e-11
6.27522e-12
3.38088e-11
3.6533e-12
2.08565e-11
1.43974e-11
1.79742e-12
-2.19731e-12
9.6125e-12
-9.67839e-12
3.32825e-11
-2.32993e-11
6.14934e-11
-4.34573e-11
9.18202e-11
-6.86422e-11
1.18012e-10
-9.55684e-11
1.31642e-10
-1.18207e-10
1.21362e-10
-1.29822e-10
7.86675e-11
-1.2313e-10
-1.52404e-12
-9.49242e-11
-1.10467e-10
-4.48981e-11
-2.31698e-10
1.44967e-11
-3.20421e-10
7.3004e-11
-3.59279e-10
1.17951e-10
-3.29971e-10
1.447e-10
-2.49983e-10
1.53836e-10
-1.44731e-10
1.4969e-10
-4.15207e-11
1.36951e-10
4.35417e-11
1.19683e-10
1.0252e-10
1.00595e-10
1.36609e-10
8.16768e-11
1.49287e-10
6.39697e-11
1.47181e-10
4.83886e-11
1.33912e-10
3.51281e-11
1.15816e-10
2.45452e-11
9.39156e-11
1.62959e-11
7.35197e-11
1.03861e-11
5.31894e-11
6.1671e-12
3.80281e-11
3.59199e-12
2.34312e-11
1.62238e-11
1.76592e-12
-2.83128e-12
1.24433e-11
-1.25072e-11
4.29571e-11
-3.01735e-11
7.9159e-11
-5.62889e-11
1.17935e-10
-8.82964e-11
1.50021e-10
-1.21797e-10
1.65149e-10
-1.48971e-10
1.48536e-10
-1.61384e-10
9.10755e-11
-1.5013e-10
-1.27767e-11
-1.13292e-10
-1.47308e-10
-5.03101e-11
-2.94681e-10
1.96597e-11
-3.90392e-10
8.56208e-11
-4.25242e-10
1.32492e-10
-3.76842e-10
1.57358e-10
-2.74851e-10
1.62786e-10
-1.50158e-10
1.54908e-10
-3.36444e-11
1.39288e-10
5.91632e-11
1.2023e-10
1.21576e-10
1.00188e-10
1.56651e-10
8.09036e-11
1.68571e-10
6.31288e-11
1.64955e-10
4.76579e-11
1.49383e-10
3.45375e-11
1.28936e-10
2.41172e-11
1.04336e-10
1.59936e-11
8.16431e-11
1.01926e-11
5.89901e-11
6.0457e-12
4.21753e-11
3.52239e-12
2.59541e-11
1.80178e-11
1.72873e-12
-3.68462e-12
1.61273e-11
-1.63085e-11
5.55793e-11
-3.91269e-11
1.01977e-10
-7.31357e-11
1.51943e-10
-1.14037e-10
1.90926e-10
-1.56348e-10
2.07469e-10
-1.88683e-10
1.8087e-10
-2.01271e-10
1.03657e-10
-1.83022e-10
-3.10245e-11
-1.34665e-10
-1.95667e-10
-5.48628e-11
-3.74484e-10
2.767e-11
-4.72925e-10
1.01982e-10
-4.99556e-10
1.50263e-10
-4.25123e-10
1.72186e-10
-2.96775e-10
1.72799e-10
-1.50771e-10
1.60513e-10
-2.13607e-11
1.41668e-10
7.80101e-11
1.2068e-10
1.42563e-10
9.96397e-11
1.77691e-10
7.99979e-11
1.88212e-10
6.21713e-11
1.82781e-10
4.68383e-11
1.64715e-10
3.38782e-11
1.41896e-10
2.36418e-11
1.14572e-10
1.56577e-11
8.9627e-11
9.97818e-12
6.46693e-11
5.91116e-12
4.62427e-11
3.44463e-12
2.84203e-11
1.97755e-11
1.68718e-12
-4.79301e-12
2.09196e-11
-2.12514e-11
7.20357e-11
-5.0918e-11
1.31644e-10
-9.60641e-11
1.97089e-10
-1.4832e-10
2.43187e-10
-2.01951e-10
2.61112e-10
-2.39365e-10
2.18284e-10
-2.51584e-10
1.15868e-10
-2.22436e-10
-6.01702e-11
-1.59286e-10
-2.58821e-10
-5.78507e-11
-4.75922e-10
3.97213e-11
-5.70498e-10
1.23134e-10
-5.82971e-10
1.71711e-10
-4.737e-10
1.89168e-10
-3.14233e-10
1.83794e-10
-1.45397e-10
1.66395e-10
-3.96408e-12
1.43996e-10
1.00411e-10
1.20971e-10
1.65586e-10
9.8915e-11
1.99748e-10
7.89416e-11
2.08186e-10
6.10869e-11
2.00635e-10
4.5925e-11
1.79877e-10
3.31471e-11
1.54673e-10
2.31176e-11
1.24601e-10
1.52873e-11
9.74572e-11
9.74236e-12
7.02138e-11
5.7632e-12
5.02221e-11
3.35864e-12
3.08245e-11
2.14933e-11
1.64107e-12
-6.20993e-12
2.71287e-11
-2.7708e-11
9.35322e-11
-6.6335e-11
1.70269e-10
-1.27028e-10
2.57778e-10
-1.93937e-10
3.101e-10
-2.62603e-10
3.29794e-10
-3.04788e-10
2.6047e-10
-3.14935e-10
1.26006e-10
-2.69452e-10
-1.05652e-10
-1.86984e-10
-3.41294e-10
-5.8155e-11
-6.04753e-10
5.72871e-11
-6.8594e-10
1.50162e-10
-6.75849e-10
1.97487e-10
-5.21023e-10
2.08531e-10
-3.25278e-10
1.95698e-10
-1.32565e-10
1.72431e-10
1.93014e-11
1.46172e-10
1.26671e-10
1.21057e-10
1.907e-10
9.79925e-11
2.22812e-10
7.7731e-11
2.28447e-10
5.98771e-11
2.18487e-10
4.49218e-11
1.94833e-10
3.23474e-11
1.67247e-10
2.25478e-11
1.34401e-10
1.48842e-11
1.05121e-10
9.48663e-12
7.56111e-11
5.60261e-12
5.41064e-11
3.26499e-12
3.31618e-11
2.31692e-11
1.5894e-12
-8.39487e-12
3.55226e-11
-3.69529e-11
1.22086e-10
-8.66519e-11
2.19967e-10
-1.69697e-10
3.40818e-10
-2.55844e-10
3.96253e-10
-3.44222e-10
4.18194e-10
-3.89163e-10
3.05411e-10
-3.94642e-10
1.31474e-10
-3.2484e-10
-1.75452e-10
-2.17451e-10
-4.48689e-10
-5.41054e-11
-7.68101e-10
8.23948e-11
-8.22441e-10
1.84558e-10
-7.78016e-10
2.28182e-10
-5.64647e-10
2.30288e-10
-3.27385e-10
2.08326e-10
-1.10603e-10
1.78447e-10
4.9178e-11
1.48091e-10
1.57029e-10
1.20876e-10
2.17913e-10
9.68411e-11
2.46847e-10
7.63557e-11
2.48932e-10
5.85378e-11
2.36304e-10
4.38289e-11
2.09542e-10
3.14791e-11
1.79596e-10
2.19334e-11
1.43947e-10
1.44492e-11
1.12605e-10
9.21162e-12
8.08483e-11
5.42964e-12
5.78887e-11
3.16402e-12
3.54271e-11
2.48021e-11
1.53129e-12
-9.1899e-12
4.47114e-11
-4.14951e-11
1.54386e-10
-1.0832e-10
2.86786e-10
-2.25839e-10
4.5833e-10
-3.39323e-10
5.09746e-10
-4.5347e-10
5.32367e-10
-4.97025e-10
3.48966e-10
-4.94444e-10
1.28878e-10
-3.89552e-10
-2.80343e-10
-2.49565e-10
-5.88682e-10
-4.35426e-11
-9.74126e-10
1.17699e-10
-9.83683e-10
2.27991e-10
-8.88312e-10
2.64389e-10
-6.01044e-10
2.54387e-10
-3.17383e-10
2.21414e-10
-7.76307e-11
1.84225e-10
8.63655e-11
1.49599e-10
1.91657e-10
1.20354e-10
2.47157e-10
9.54204e-11
2.7178e-10
7.47989e-11
2.69554e-10
5.70601e-11
2.54042e-10
4.26435e-11
2.23958e-10
3.05398e-11
1.917e-10
2.12737e-11
1.53213e-10
1.39817e-11
1.19897e-10
8.91727e-12
8.59125e-11
5.24411e-12
6.15621e-11
3.05588e-12
3.76151e-11
2.63893e-11
1.46887e-12
-1.74616e-11
6.21711e-11
-7.1503e-11
2.08419e-10
-1.45599e-10
3.6088e-10
-3.08982e-10
6.21705e-10
-4.58307e-10
6.5908e-10
-6.0217e-10
6.76262e-10
-6.37882e-10
3.84677e-10
-6.18601e-10
1.0958e-10
-4.6479e-10
-4.34153e-10
-2.81441e-10
-7.72039e-10
-2.36881e-11
-1.23188e-09
1.66496e-10
-1.17387e-09
2.82563e-10
-1.00438e-09
3.06807e-10
-6.25287e-10
2.80699e-10
-2.91276e-10
2.34595e-10
-3.15272e-11
1.89501e-10
1.31457e-10
1.50561e-10
2.30599e-10
1.19435e-10
2.78282e-10
9.37091e-11
2.97506e-10
7.30596e-11
2.90203e-10
5.54456e-11
2.71656e-10
4.13713e-11
2.38033e-10
2.95329e-11
2.03538e-10
2.05724e-11
1.62173e-10
1.34839e-11
1.26985e-10
8.60537e-12
9.07907e-11
5.04688e-12
6.51208e-11
2.94117e-12
3.97205e-11
2.79255e-11
1.4051e-12
-3.12211e-12
6.52922e-11
-1.92958e-11
2.24593e-10
-1.50635e-10
4.92228e-10
-3.99396e-10
8.70471e-10
-6.14799e-10
8.74477e-10
-8.008e-10
8.62292e-10
-8.19868e-10
4.03742e-10
-7.70281e-10
5.99716e-11
-5.50642e-10
-6.53793e-10
-3.09805e-10
-1.01289e-09
1.00225e-11
-1.55171e-09
2.33357e-10
-1.3972e-09
3.50581e-10
-1.12162e-09
3.55686e-10
-6.30391e-10
3.08822e-10
-2.44412e-10
2.47409e-10
2.98851e-11
1.93991e-10
1.84874e-10
1.50818e-10
2.73773e-10
1.18057e-10
3.11042e-10
9.16791e-11
3.23884e-10
7.11319e-11
3.10751e-10
5.36905e-11
2.89096e-10
4.00148e-11
2.51708e-10
2.84592e-11
2.15093e-10
1.98315e-11
1.70801e-10
1.29566e-11
1.3386e-10
8.27657e-12
9.54704e-11
4.8383e-12
6.85593e-11
2.82015e-12
4.17384e-11
2.94053e-11
1.34047e-12
-5.23708e-11
1.17658e-10
-1.71078e-10
3.43266e-10
-1.96642e-10
5.1778e-10
-5.57114e-10
1.23095e-09
-8.76296e-10
1.19372e-09
-1.08544e-09
1.07154e-09
-1.06331e-09
3.81607e-10
-9.54912e-10
-4.84648e-11
-6.45546e-10
-9.63164e-10
-3.29363e-10
-1.32908e-09
6.80906e-11
-1.94917e-09
3.23393e-10
-1.65249e-09
4.34952e-10
-1.23318e-09
4.11337e-10
-6.06775e-10
3.38078e-10
-1.71154e-10
2.59228e-10
1.08735e-10
1.97321e-10
2.46779e-10
1.50182e-10
3.20915e-10
1.16148e-10
3.45075e-10
8.9296e-11
3.50736e-10
6.90028e-11
3.31044e-10
5.17866e-11
3.06312e-10
3.85714e-11
2.64924e-10
2.73174e-11
2.26346e-10
1.90507e-11
1.79067e-10
1.23994e-11
1.40511e-10
7.9305e-12
9.99391e-11
4.61838e-12
7.18716e-11
2.69271e-12
4.36639e-11
3.08237e-11
1.27439e-12
6.30281e-11
5.46252e-11
3.11704e-10
9.46075e-11
-7.12718e-11
9.00755e-10
-7.33287e-10
1.89296e-09
-1.21964e-09
1.68023e-09
-1.46551e-09
1.31749e-09
-1.35949e-09
2.75568e-10
-1.16678e-09
-2.41202e-10
-7.44639e-10
-1.38531e-09
-3.33031e-10
-1.74071e-09
1.54549e-10
-2.43675e-09
4.44096e-10
-1.94203e-09
5.38758e-10
-1.32786e-09
4.73614e-10
-5.41628e-10
3.6752e-10
-6.50608e-11
2.69268e-10
2.06986e-10
1.99076e-10
3.16968e-10
1.48489e-10
3.71504e-10
1.13663e-10
3.799e-10
8.65429e-11
3.77855e-10
6.66732e-11
3.50913e-10
4.97374e-11
3.23246e-10
3.70442e-11
2.77617e-10
2.61117e-11
2.37278e-10
1.82321e-11
1.86947e-10
1.18144e-11
1.46928e-10
7.56814e-12
1.04185e-10
4.38803e-12
7.50519e-11
2.5592e-12
4.54925e-11
3.21768e-11
1.20624e-12
9.17651e-11
-3.74192e-11
-2.95071e-10
4.78744e-10
-8.21546e-10
1.39854e-09
-1.34771e-09
2.41912e-09
-1.9643e-09
2.29694e-09
-2.02839e-09
1.38184e-09
-1.79201e-09
3.92562e-11
-1.41979e-09
-6.13464e-10
-8.44514e-10
-1.96058e-09
-3.10221e-10
-2.275e-09
2.80476e-10
-3.02745e-09
6.03038e-10
-2.26458e-09
6.64893e-10
-1.38972e-09
5.41722e-10
-4.18456e-10
3.95502e-10
8.11594e-11
2.76502e-10
3.25985e-10
1.98818e-10
3.9465e-10
1.4556e-10
4.24764e-10
1.10547e-10
4.14912e-10
8.33995e-11
4.05002e-10
6.41391e-11
3.70174e-10
4.75441e-11
3.39841e-10
3.54328e-11
2.89728e-10
2.48441e-11
2.47867e-10
1.73751e-11
1.94416e-10
1.12024e-11
1.53101e-10
7.18947e-12
1.08198e-10
4.14777e-12
7.80938e-11
2.41961e-12
4.72205e-11
3.34613e-11
1.13516e-12
-3.04334e-10
2.67354e-10
-1.02958e-09
1.16226e-09
-2.74055e-09
2.99905e-09
-2.53196e-09
2.13921e-09
-2.76151e-09
2.52661e-09
-3.03561e-09
1.6562e-09
-2.20013e-09
-7.96195e-10
-1.66071e-09
-1.15295e-09
-9.16863e-10
-2.70448e-09
-2.44694e-10
-2.94715e-09
4.60442e-10
-3.73256e-09
8.11987e-10
-2.61611e-09
8.17147e-10
-1.3949e-09
6.14326e-10
-2.15632e-10
4.19786e-10
2.75699e-10
2.79671e-10
4.66099e-10
1.9606e-10
4.7826e-10
1.41219e-10
4.79606e-10
1.06746e-10
4.49384e-10
7.98479e-11
4.319e-10
6.1392e-11
3.8863e-10
4.52063e-11
3.56026e-10
3.37335e-11
3.01201e-10
2.35151e-11
2.58085e-10
1.64779e-11
2.01453e-10
1.0564e-11
1.59015e-10
6.79394e-12
1.11967e-10
3.89776e-12
8.09901e-11
2.27399e-12
4.88441e-11
3.46746e-11
1.06064e-12
-9.85224e-10
1.25295e-09
-2.31497e-09
2.41479e-09
-3.93399e-09
4.18271e-09
-4.49246e-09
2.16063e-09
-3.76217e-09
1.68239e-09
-3.69991e-09
1.59424e-09
-3.02891e-09
-1.46717e-09
-1.91022e-09
-2.2717e-09
-9.54563e-10
-3.66017e-09
-1.17828e-10
-3.78395e-09
7.1224e-10
-4.56264e-09
1.08284e-09
-2.98666e-09
9.97149e-10
-1.30923e-09
6.86038e-10
9.54812e-11
4.36882e-10
5.24855e-10
2.77177e-10
6.25803e-10
1.90336e-10
5.65099e-10
1.35349e-10
5.34594e-10
1.02235e-10
4.82497e-10
7.58984e-11
4.58236e-10
5.84337e-11
4.06094e-10
4.27337e-11
3.71725e-10
3.19487e-11
3.11986e-10
2.21301e-11
2.67903e-10
1.55417e-11
2.08041e-10
9.90179e-12
1.64655e-10
6.38222e-12
1.15487e-10
3.63899e-12
8.37335e-11
2.12292e-12
5.036e-11
3.58142e-11
9.83331e-13
-1.12878e-09
2.38197e-09
-4.20184e-09
5.25274e-09
-7.55439e-09
5.15778e-09
-9.17878e-09
2.1507e-09
-5.72904e-09
-2.3148e-09
-4.0579e-09
-7.66851e-11
-3.93833e-09
-1.58669e-09
-1.88756e-09
-4.32253e-09
-8.94063e-10
-4.65365e-09
9.29707e-11
-4.77102e-09
1.04886e-09
-5.51853e-09
1.42446e-09
-3.3622e-09
1.21661e-09
-1.10141e-09
7.67269e-10
5.44826e-10
4.45224e-10
8.469e-10
2.67573e-10
8.03453e-10
1.81129e-10
6.51542e-10
1.27881e-10
5.87844e-10
9.6994e-11
5.13383e-10
7.15675e-11
4.83663e-10
5.52614e-11
4.224e-10
4.01353e-11
3.8685e-10
3.0078e-11
3.22044e-10
2.06932e-11
2.77287e-10
1.45665e-11
2.14168e-10
9.2176e-12
1.70004e-10
5.95441e-12
1.1875e-10
3.37211e-12
8.63159e-11
1.96637e-12
5.17657e-11
3.68778e-11
9.02771e-13
-5.48775e-10
1.58353e-09
-1.86085e-09
4.50907e-09
-3.33371e-09
4.45124e-10
-6.9264e-09
2.98099e-10
-1.10633e-08
-2.76043e-09
-6.69156e-09
-4.44795e-09
-4.48345e-09
-3.79476e-09
-2.10822e-09
-6.69782e-09
-6.7134e-10
-6.09051e-09
3.79195e-10
-5.82156e-09
1.52327e-09
-6.66263e-09
1.8613e-09
-3.7002e-09
1.43734e-09
-6.77482e-10
8.08642e-10
1.17353e-09
4.31021e-10
1.22452e-09
2.47961e-10
9.86511e-10
1.67872e-10
7.31629e-10
1.18797e-10
6.3692e-10
9.10033e-11
5.41176e-10
6.68752e-11
5.0779e-10
5.18667e-11
4.37409e-10
3.74174e-11
4.01299e-10
2.81179e-11
3.31343e-10
1.92067e-11
2.86198e-10
1.35513e-11
2.19823e-10
8.51259e-12
1.75042e-10
5.51016e-12
1.21752e-10
3.09751e-12
8.87287e-11
1.80736e-12
5.30557e-11
3.78595e-11
8.25658e-13
4.56221e-11
-2.71561e-12
-2.24608e-10
2.27911e-11
-6.16929e-11
3.57988e-13
8.97191e-11
1.49789e-12
-4.32525e-09
-1.33995e-10
-6.58556e-09
-3.79182e-09
-3.2569e-09
-7.1234e-09
-2.00388e-09
-7.9509e-09
-1.7604e-10
-7.91833e-09
7.58691e-10
-6.75628e-09
2.0872e-09
-7.99115e-09
2.42704e-09
-4.04e-09
1.7765e-09
-2.69734e-11
8.93945e-10
2.05609e-09
4.09321e-10
1.70914e-09
2.19533e-10
1.1763e-09
1.50615e-10
8.00546e-10
1.08386e-10
6.79151e-10
8.44357e-11
5.65125e-10
6.19509e-11
5.30275e-10
4.83105e-11
4.51049e-10
3.46269e-11
4.14982e-10
2.60927e-11
3.39877e-10
1.769e-11
2.94601e-10
1.25058e-11
2.25007e-10
7.79404e-12
1.79754e-10
5.0529e-12
1.24493e-10
2.81682e-12
9.09648e-11
1.6379e-12
5.42346e-11
3.87649e-11
7.32462e-13
-4.62031e-13
-2.7155e-13
1.27491e-12
-1.54695e-13
-6.05135e-13
-1.59826e-14
-2.12045e-14
5.48629e-14
-1.33665e-10
-4.39801e-12
-5.08054e-09
-1.18196e-10
-4.12998e-09
-9.08845e-09
-1.41553e-09
-1.06654e-08
5.87916e-10
-9.92178e-09
1.33455e-09
-7.50291e-09
2.82364e-09
-9.48023e-09
3.06146e-09
-4.27776e-09
1.96687e-09
1.06758e-09
8.28664e-10
3.19431e-09
3.17835e-10
2.21997e-09
1.70295e-10
1.32384e-09
1.27418e-10
8.43421e-10
9.60375e-11
7.10533e-10
7.67672e-11
5.84395e-10
5.64379e-11
5.50604e-10
4.43276e-11
4.6316e-10
3.15975e-11
4.27712e-10
2.38819e-11
3.47593e-10
1.60681e-11
3.02414e-10
1.1379e-11
2.29696e-10
7.03236e-12
1.84101e-10
4.56489e-12
1.2696e-10
2.52262e-12
9.30071e-11
1.47128e-12
5.52859e-11
3.9574e-11
6.62089e-13
-1.90962e-13
-4.83025e-15
-1.41343e-14
8.84198e-15
-1.34635e-14
-1.72444e-14
-2.50974e-15
3.78462e-14
-4.91668e-12
5.25069e-13
-1.26017e-10
3.29081e-12
-7.38176e-09
-3.8151e-09
2.05658e-13
-1.65698e-08
9.47651e-10
-1.08692e-08
1.93132e-09
-8.48656e-09
3.75972e-09
-1.13087e-08
4.0802e-09
-4.59816e-09
2.49758e-09
2.65015e-09
8.94278e-10
4.79761e-09
2.51905e-10
2.86235e-09
1.21289e-10
1.45445e-09
1.04221e-10
8.60489e-10
8.47913e-11
7.29963e-10
6.99564e-11
5.99229e-10
5.15965e-11
5.68964e-10
4.07616e-11
4.73995e-10
2.8894e-11
4.39579e-10
2.18823e-11
3.54605e-10
1.46108e-11
3.09686e-10
1.03535e-11
2.33954e-10
6.34152e-12
1.88113e-10
4.11551e-12
1.29186e-10
2.251e-12
9.48717e-11
1.29867e-12
5.62382e-11
4.03165e-11
5.56089e-13
-3.0857e-15
1.36024e-16
-1.87831e-15
3.74939e-15
-8.04231e-16
6.93004e-15
-1.78669e-15
7.6638e-15
-5.54477e-14
2.91083e-15
4.07448e-12
5.37908e-14
-3.65781e-09
-1.52736e-10
-2.24218e-09
-1.06391e-08
2.87814e-09
-1.59896e-08
2.79844e-09
-8.40682e-09
4.53659e-09
-1.30467e-08
4.87036e-09
-4.93184e-09
2.55545e-09
4.96499e-09
5.92687e-10
6.76039e-09
-1.77661e-13
3.45521e-09
2.50394e-11
1.42924e-09
7.09063e-11
8.14621e-10
6.99071e-11
7.30963e-10
6.04998e-11
6.08636e-10
4.50178e-11
5.84446e-10
3.5919e-11
4.83094e-10
2.53645e-11
4.50133e-10
1.9245e-11
3.60724e-10
1.27268e-11
3.16204e-10
9.01214e-12
2.37668e-10
5.45911e-12
1.91666e-10
3.53884e-12
1.31106e-10
1.91231e-12
9.64983e-11
1.10898e-12
5.70415e-11
4.09375e-11
4.879e-13
-1.29253e-16
1.22283e-15
-8.20071e-16
3.99166e-15
5.21733e-17
9.83262e-15
1.2807e-15
1.87501e-14
3.84064e-16
1.54352e-16
-4.22036e-13
4.33233e-13
-1.5314e-10
-2.0753e-14
-7.7439e-09
-4.40433e-14
2.77396e-09
-1.52905e-08
3.32798e-09
-8.83942e-09
6.45311e-09
-1.61718e-08
6.92418e-09
-5.40274e-09
3.36067e-09
8.5284e-09
5.68778e-10
9.55229e-09
-1.24312e-10
4.1483e-09
-3.63235e-11
1.34125e-09
4.91511e-11
7.29146e-10
6.09847e-11
7.1913e-10
5.47656e-11
6.14854e-10
4.09879e-11
5.98223e-10
3.28807e-11
4.91201e-10
2.31902e-11
4.59823e-10
1.7652e-11
3.66263e-10
1.16323e-11
3.22224e-10
8.24779e-12
2.41053e-10
4.96987e-12
1.94944e-10
3.22612e-12
1.3285e-10
1.74107e-12
9.79833e-11
1.00737e-12
5.77752e-11
4.15542e-11
3.90573e-13
-1.19885e-16
1.12076e-15
2.72815e-17
3.16746e-15
2.10208e-15
5.19767e-15
4.3938e-15
2.30438e-14
8.24839e-19
6.34447e-16
-9.21219e-16
-1.04238e-14
-5.23885e-16
-2.55597e-14
2.88207e-15
-5.42879e-14
-5.24775e-09
-4.97439e-12
3.87728e-09
-4.39131e-10
5.66929e-09
-1.40737e-08
6.63133e-09
-6.36461e-09
2.59716e-09
1.25625e-08
-2.97282e-10
1.24467e-08
-6.9668e-10
4.5477e-09
-1.84031e-10
8.28599e-10
3.66714e-11
5.08444e-10
6.87491e-11
6.87054e-10
6.48301e-11
6.18773e-10
5.13418e-11
6.11712e-10
4.34548e-11
4.99088e-10
3.23702e-11
4.70907e-10
2.53601e-11
3.73273e-10
1.72502e-11
3.30333e-10
1.22119e-11
2.46091e-10
7.46269e-12
1.99693e-10
4.78981e-12
1.35523e-10
2.70628e-12
1.00067e-10
1.6811e-12
5.88004e-11
9.50373e-13
4.22848e-11
9.71525e-13
6.73353e-14
1.10344e-12
-1.31513e-13
1.22816e-12
-1.24734e-13
9.26552e-13
3.01473e-13
7.75292e-13
1.51795e-13
7.25109e-13
4.95952e-14
6.2948e-13
9.64393e-14
5.54182e-13
7.49494e-14
3.83496e-13
1.70927e-13
3.14596e-13
6.94619e-14
2.97054e-13
1.65475e-14
1.61626e-13
1.37033e-13
4.23791e-14
1.17269e-13
-2.20354e-14
6.64646e-14
-1.12507e-13
8.84816e-14
-1.26512e-13
1.548e-14
-1.18409e-13
-9.10462e-15
-7.34232e-14
-4.47395e-14
2.14047e-15
-7.52575e-14
2.70356e-16
9.98441e-16
7.48627e-15
-6.03202e-15
1.12316e-14
-5.12561e-15
-1.00164e-14
2.2639e-14
-4.24081e-14
3.10765e-14
-8.49051e-14
4.3663e-14
-1.11258e-13
2.53484e-14
-1.46436e-13
3.60274e-14
-5.95858e-14
-8.75732e-14
1.07531e-13
-1.66484e-13
1.06939e-13
1.52848e-12
3.00716e-13
1.50035e-12
-1.03105e-13
1.19851e-12
1.77603e-13
6.89012e-13
8.1028e-13
5.93326e-13
2.48771e-13
4.73439e-13
1.68568e-13
3.86295e-13
1.84621e-13
3.18647e-13
1.42762e-13
2.58475e-13
2.30416e-13
2.57851e-13
7.21179e-14
2.22759e-13
4.88264e-14
1.0991e-13
2.53356e-13
5.87728e-14
1.64621e-13
7.91493e-14
4.9459e-14
6.48535e-14
9.99107e-14
5.69119e-14
2.50742e-14
4.54304e-14
1.70698e-15
3.28857e-14
-3.27875e-14
3.81311e-14
-7.9083e-14
4.53121e-14
-8.32819e-15
3.49856e-14
6.74579e-15
2.64613e-14
8.36159e-16
3.08154e-14
2.0712e-14
3.43769e-14
2.5317e-14
2.99578e-14
4.99882e-14
2.40757e-14
2.95997e-14
2.50037e-14
3.64966e-14
7.11094e-15
-7.09153e-14
-1.73262e-16
-1.57979e-13
1.06203e-13
2.07624e-12
8.2558e-13
8.62648e-13
1.11071e-12
4.49302e-13
5.91467e-13
5.67454e-13
6.91418e-13
5.73899e-13
2.43591e-13
4.42632e-13
2.98964e-13
3.62064e-13
2.6613e-13
3.40885e-13
1.64184e-13
3.10446e-13
2.60082e-13
1.70951e-13
2.13681e-13
5.56183e-14
1.61353e-13
8.74219e-14
2.24963e-13
1.01643e-13
1.46739e-13
9.65076e-14
5.78111e-14
8.51884e-14
1.08545e-13
7.19763e-14
3.97791e-14
7.88892e-14
-5.73849e-15
5.93656e-14
-1.39378e-14
-4.62174e-15
-1.36424e-14
8.84225e-15
-2.39178e-14
3.91883e-14
-2.12055e-14
3.42854e-14
3.25922e-15
5.63072e-14
1.02447e-15
7.12851e-14
8.23391e-15
3.69951e-14
8.60996e-14
3.67869e-14
2.82501e-14
3.39114e-14
4.07093e-14
-3.66395e-14
-1.5543e-15
-4.67849e-14
-1.46696e-13
5.88873e-14
1.5609e-12
1.19093e-12
1.13682e-12
1.53496e-12
9.38388e-13
7.90444e-13
7.49534e-13
8.7955e-13
6.17532e-13
3.76824e-13
4.57225e-13
4.58448e-13
3.69191e-13
3.55018e-13
2.9483e-13
2.38852e-13
2.4555e-13
3.08528e-13
1.78132e-13
2.83177e-13
1.24378e-13
2.12338e-13
1.1382e-13
2.38841e-13
1.01045e-13
1.55995e-13
1.04159e-13
5.77505e-14
8.25862e-14
1.2761e-13
7.47037e-14
4.90051e-14
6.58101e-14
2.73956e-15
4.9215e-14
1.92337e-15
3.92826e-14
-2.24618e-15
3.88945e-14
-2.56161e-14
4.04279e-14
-2.04169e-14
3.41426e-14
7.15903e-15
3.22727e-14
5.12762e-15
3.09915e-14
7.50812e-15
3.61674e-14
8.26567e-14
3.49278e-14
2.80079e-14
3.286e-14
4.4051e-14
1.18735e-14
1.82966e-14
-1.61996e-15
-1.32138e-13
5.67673e-14
1.51495e-12
1.53496e-12
1.16375e-12
1.88628e-12
9.78246e-13
9.7652e-13
7.58821e-13
1.09825e-12
6.0825e-13
5.28595e-13
4.52471e-13
6.13453e-13
3.71567e-13
4.367e-13
2.83287e-13
3.27498e-13
2.32523e-13
3.58409e-13
1.82843e-13
3.34938e-13
1.31717e-13
2.60739e-13
1.21524e-13
2.52262e-13
1.14563e-13
1.59576e-13
1.03488e-13
7.17232e-14
7.94013e-14
1.49352e-13
7.40911e-14
5.55234e-14
5.70892e-14
1.94273e-14
4.02259e-14
1.80039e-14
3.727e-14
2.17509e-15
3.4868e-14
-2.52575e-14
3.41108e-14
-1.7411e-14
3.37481e-14
5.22762e-15
3.55883e-14
5.42413e-15
3.3663e-14
7.51917e-15
3.78707e-14
8.00987e-14
3.5381e-14
2.90873e-14
3.61653e-14
4.44807e-14
2.52278e-14
2.81524e-14
-1.9449e-16
-1.05714e-13
5.61002e-14
1.51104e-12
1.86971e-12
1.15498e-12
2.24242e-12
9.60483e-13
1.17161e-12
7.51665e-13
1.30633e-12
5.97458e-13
6.83973e-13
4.47283e-13
7.62901e-13
3.6999e-13
5.147e-13
2.66675e-13
4.31234e-13
2.17053e-13
4.07107e-13
1.77464e-13
3.76605e-13
1.37137e-13
2.98389e-13
1.3591e-13
2.56626e-13
1.19934e-13
1.72302e-13
9.37886e-14
1.00621e-13
7.36775e-14
1.67268e-13
7.07203e-14
5.95642e-14
5.80228e-14
3.19011e-14
5.19918e-14
2.32101e-14
4.57827e-14
9.84707e-15
4.15687e-14
-2.30444e-14
3.99554e-14
-1.36192e-14
3.45354e-14
8.43949e-15
3.08641e-14
1.11419e-14
2.26702e-14
1.38851e-14
3.06737e-14
7.36676e-14
2.93535e-14
2.90633e-14
3.92993e-14
3.56926e-14
3.03822e-14
3.60391e-14
-1.14382e-14
-6.2949e-14
4.42145e-14
1.49785e-12
2.19387e-12
1.15243e-12
2.58788e-12
9.4194e-13
1.38272e-12
7.28047e-13
1.51949e-12
5.79963e-13
8.332e-13
4.43141e-13
8.99043e-13
3.68398e-13
5.90086e-13
2.50519e-13
5.49585e-13
2.0318e-13
4.53486e-13
1.73128e-13
4.08731e-13
1.43247e-13
3.2564e-13
1.42669e-13
2.60252e-13
1.18243e-13
1.93605e-13
8.87743e-14
1.32702e-13
7.24082e-14
1.81581e-13
6.67577e-14
6.61823e-14
4.67486e-14
5.17687e-14
4.40878e-14
2.50094e-14
4.26851e-14
1.27067e-14
3.21647e-14
-1.44819e-14
3.00764e-14
-9.42113e-15
3.13858e-14
5.00456e-15
3.72611e-14
7.22696e-15
3.72961e-14
1.21036e-14
4.21235e-14
7.03398e-14
3.92356e-14
3.06696e-14
5.65056e-14
1.9527e-14
4.82302e-14
4.33333e-14
-2.19592e-14
8.1344e-15
2.18316e-14
1.48131e-12
2.50987e-12
1.14021e-12
2.92898e-12
9.16339e-13
1.60723e-12
7.01473e-13
1.73362e-12
5.62413e-13
9.73373e-13
4.26712e-13
1.03411e-12
3.58495e-13
6.58882e-13
2.664e-13
6.42201e-13
2.08879e-13
5.10018e-13
1.67533e-13
4.52143e-13
1.5392e-13
3.36676e-13
1.44784e-13
2.72347e-13
1.08418e-13
2.26973e-13
8.65219e-14
1.57074e-13
7.32931e-14
1.92891e-13
6.93463e-14
7.09869e-14
5.84698e-14
6.25791e-14
5.78971e-14
2.46893e-14
5.27104e-14
1.93405e-14
4.39485e-14
-7.63324e-15
3.85266e-14
-1.95815e-15
3.22035e-14
9.28321e-15
3.19616e-14
9.34544e-15
2.60655e-14
1.63323e-14
3.84872e-14
5.93473e-14
3.56021e-14
3.23333e-14
3.54269e-14
2.07547e-14
3.67802e-14
4.10465e-14
-2.18204e-16
4.59791e-14
2.12125e-14
1.45503e-12
2.82068e-12
1.12248e-12
3.26148e-12
8.95541e-13
1.83483e-12
6.81693e-13
1.94673e-12
5.48827e-13
1.10732e-12
4.15946e-13
1.16641e-12
3.515e-13
7.23849e-13
2.68953e-13
7.25314e-13
2.15429e-13
5.62528e-13
1.73696e-13
4.9593e-13
1.49658e-13
3.58193e-13
1.32867e-13
2.92003e-13
9.9788e-14
2.57181e-13
8.40569e-14
1.75146e-13
7.12006e-14
2.03961e-13
6.47384e-14
7.8202e-14
4.74222e-14
7.98985e-14
4.22467e-14
2.89462e-14
4.05258e-14
2.24937e-14
3.10371e-14
-9.93729e-18
2.97072e-14
1.34224e-15
3.02518e-14
6.77573e-15
3.72023e-14
4.18808e-15
4.14006e-14
1.05444e-14
5.46747e-14
4.74332e-14
5.02422e-14
3.56036e-14
4.89862e-14
2.3012e-14
6.60234e-14
2.31229e-14
2.31566e-14
8.96462e-14
4.39904e-14
1.42129e-12
3.12807e-12
1.09913e-12
3.58355e-12
8.75328e-13
2.05931e-12
6.64344e-13
2.15698e-12
5.38655e-13
1.23406e-12
4.08663e-13
1.29586e-12
3.44709e-13
7.88265e-13
2.65542e-13
8.05088e-13
2.16717e-13
6.10321e-13
1.76458e-13
5.38222e-13
1.43094e-13
3.891e-13
1.22761e-13
3.15104e-13
9.36616e-14
2.83538e-13
8.24432e-14
1.8857e-13
6.99868e-14
2.1476e-13
6.72297e-14
8.16121e-14
6.27006e-14
8.4494e-14
5.90399e-14
3.16685e-14
5.45828e-14
2.8363e-14
4.73921e-14
5.36737e-15
4.19196e-14
8.71176e-15
3.38418e-14
1.29736e-14
3.25588e-14
7.18051e-15
2.75696e-14
1.40219e-14
3.69485e-14
3.93456e-14
3.23154e-14
3.91334e-14
2.47234e-14
3.15542e-14
2.52215e-14
2.17848e-14
1.08335e-14
1.0479e-13
5.44671e-14
1.38259e-12
3.43265e-12
1.07064e-12
3.89537e-12
8.52096e-13
2.27855e-12
6.45794e-13
2.36256e-12
5.33312e-13