/*--------------------------------*- C++ -*----------------------------------*\
| =========                 |                                                 |
| \\      /  F ield         | OpenFOAM: The Open Source CFD Toolbox           |
|  \\    /   O peration     | Version:  2.4.0                                 |
|   \\  /    A nd           | Web:      www.OpenFOAM.org                      |
|    \\/     M anipulation  |                                                 |
\*---------------------------------------------------------------------------*/
FoamFile
{
    version     2.0;
    format      ascii;
    class       volVectorField;
    location    "0.171";
    object      U;
}
// * * * * * * * * * * * * * * * * * * * * * * * * * * * * * * * * * * * * * //

dimensions      [0 1 -1 0 0 0 0];

internalField   nonuniform List<vector> 
10000
(
(1.42937e-06 -1.42404e-06 0)
(1.03266e-05 -3.91626e-06 0)
(2.63653e-05 -5.32118e-06 0)
(4.613e-05 -5.94815e-06 0)
(6.74205e-05 -6.15373e-06 0)
(8.9112e-05 -6.16895e-06 0)
(0.000110785 -6.1287e-06 0)
(0.000132404 -6.10613e-06 0)
(0.000154138 -6.13663e-06 0)
(0.000176245 -6.23298e-06 0)
(0.000199013 -6.39322e-06 0)
(0.000222712 -6.60583e-06 0)
(0.000247561 -6.85403e-06 0)
(0.000273698 -7.11922e-06 0)
(0.000301169 -7.38295e-06 0)
(0.00032992 -7.62691e-06 0)
(0.000359814 -7.83253e-06 0)
(0.000390637 -7.98204e-06 0)
(0.000422119 -8.06149e-06 0)
(0.000453947 -8.0645e-06 0)
(0.000485798 -7.99417e-06 0)
(0.000517364 -7.86193e-06 0)
(0.000548386 -7.68331e-06 0)
(0.00057867 -7.47273e-06 0)
(0.000608075 -7.23891e-06 0)
(0.000636485 -6.98158e-06 0)
(0.00066375 -6.68898e-06 0)
(0.000689628 -6.3363e-06 0)
(0.000713719 -5.88575e-06 0)
(0.00073543 -5.29212e-06 0)
(0.000753974 -4.51394e-06 0)
(0.000768436 -3.53409e-06 0)
(0.000777901 -2.36859e-06 0)
(0.000781568 -1.05927e-06 0)
(0.000778829 3.45351e-07 0)
(0.000769266 1.80303e-06 0)
(0.000752613 3.28519e-06 0)
(0.000728714 4.77686e-06 0)
(0.000697481 6.27057e-06 0)
(0.00065888 7.7598e-06 0)
(0.00061294 9.23392e-06 0)
(0.000559767 1.06756e-05 0)
(0.000499577 1.20615e-05 0)
(0.000432708 1.33651e-05 0)
(0.000359644 1.45579e-05 0)
(0.000281014 1.56116e-05 0)
(0.000197584 1.65039e-05 0)
(0.00011024 1.72162e-05 0)
(1.99783e-05 1.77271e-05 0)
(-7.21003e-05 1.80198e-05 0)
(3.88352e-06 -1.02542e-05 0)
(2.50646e-05 -2.51697e-05 0)
(5.89754e-05 -3.41867e-05 0)
(9.98934e-05 -3.87059e-05 0)
(0.000143839 -4.04429e-05 0)
(0.000188745 -4.08123e-05 0)
(0.000233823 -4.07667e-05 0)
(0.000279051 -4.08617e-05 0)
(0.000324838 -4.13806e-05 0)
(0.000371818 -4.24333e-05 0)
(0.000420689 -4.40182e-05 0)
(0.00047211 -4.6061e-05 0)
(0.000526614 -4.84393e-05 0)
(0.000584548 -5.1e-05 0)
(0.00064604 -5.35715e-05 0)
(0.000710986 -5.59751e-05 0)
(0.000779062 -5.80387e-05 0)
(0.000849746 -5.96152e-05 0)
(0.000922356 -6.06017e-05 0)
(0.000996106 -6.09551e-05 0)
(0.00107018 -6.06957e-05 0)
(0.0011438 -5.98972e-05 0)
(0.00121632 -5.86631e-05 0)
(0.00128719 -5.70934e-05 0)
(0.00135601 -5.52487e-05 0)
(0.0014224 -5.31154e-05 0)
(0.00148588 -5.05773e-05 0)
(0.00154577 -4.74034e-05 0)
(0.00160101 -4.326e-05 0)
(0.00165008 -3.77685e-05 0)
(0.00169099 -3.06037e-05 0)
(0.00172141 -2.16329e-05 0)
(0.00173903 -1.09715e-05 0)
(0.00174179 1.06907e-06 0)
(0.00172809 1.41129e-05 0)
(0.00169679 2.78217e-05 0)
(0.00164713 4.19468e-05 0)
(0.00157859 5.63245e-05 0)
(0.00149087 7.08369e-05 0)
(0.0013838 8.53679e-05 0)
(0.00125741 9.97709e-05 0)
(0.00111197 0.000113853 0)
(0.000948059 0.000127377 0)
(0.000766585 0.000140075 0)
(0.000568847 0.000151664 0)
(0.000356539 0.000161865 0)
(0.000131711 0.000170421 0)
(-0.00010324 0.0001771 0)
(-0.000345586 0.000181692 0)
(-0.00059235 0.000184021 0)
(5.32466e-06 -2.6168e-05 0)
(3.41989e-05 -5.91265e-05 0)
(7.83411e-05 -7.83265e-05 0)
(0.000130651 -8.80989e-05 0)
(0.000186394 -9.20567e-05 0)
(0.000243273 -9.3132e-05 0)
(0.000300506 -9.33793e-05 0)
(0.00035823 -9.40499e-05 0)
(0.000417132 -9.58099e-05 0)
(0.00047818 -9.89308e-05 0)
(0.000542428 -0.00010342 0)
(0.000610861 -0.000109103 0)
(0.000684281 -0.000115676 0)
(0.000763221 -0.000122746 0)
(0.000847896 -0.00012986 0)
(0.000938176 -0.000136548 0)
(0.00103359 -0.000142361 0)
(0.00113337 -0.000146923 0)
(0.00123646 -0.00014997 0)
(0.0013417 -0.000151385 0)
(0.00144782 -0.000151201 0)
(0.00155364 -0.000149581 0)
(0.00165814 -0.000146765 0)
(0.00176048 -0.000142992 0)
(0.00185998 -0.000138409 0)
(0.00195602 -0.000132979 0)
(0.00204787 -0.000126405 0)
(0.0021345 -0.000118094 0)
(0.00221436 -0.000107195 0)
(0.00228517 -9.27379e-05 0)
(0.00234391 -7.38847e-05 0)
(0.00238704 -5.02884e-05 0)
(0.00241096 -2.22362e-05 0)
(0.00241254 9.48902e-06 0)
(0.00238936 4.39443e-05 0)
(0.0023397 8.02866e-05 0)
(0.00226236 0.000117887 0)
(0.00215648 0.00015631 0)
(0.00202148 0.000195214 0)
(0.00185701 0.00023425 0)
(0.00166304 0.000272988 0)
(0.00143989 0.000310883 0)
(0.00118841 0.00034728 0)
(0.00090997 0.000381444 0)
(0.000606566 0.000412601 0)
(0.000280796 0.000439984 0)
(-6.41692e-05 0.000462869 0)
(-0.000424588 0.000480598 0)
(-0.000796221 0.000492594 0)
(-0.00117444 0.000498386 0)
(6.01047e-06 -4.59615e-05 0)
(3.88839e-05 -0.000100231 0)
(8.81486e-05 -0.00013072 0)
(0.000145747 -0.000146053 0)
(0.000206561 -0.000152296 0)
(0.000268353 -0.000154159 0)
(0.000330562 -0.000154947 0)
(0.000393626 -0.000156707 0)
(0.000458576 -0.00016055 0)
(0.000526743 -0.000166935 0)
(0.000599537 -0.000175871 0)
(0.000678269 -0.000187038 0)
(0.000764009 -0.000199879 0)
(0.000857483 -0.000213663 0)
(0.000959001 -0.000227551 0)
(0.00106842 -0.000240669 0)
(0.00118513 -0.000252186 0)
(0.0013081 -0.000261395 0)
(0.00143597 -0.000267796 0)
(0.00156712 -0.000271147 0)
(0.00169987 -0.000271484 0)
(0.00183262 -0.000269087 0)
(0.00196396 -0.000264389 0)
(0.00209275 -0.000257837 0)
(0.00221809 -0.000249715 0)
(0.0023392 -0.000239976 0)
(0.00245519 -0.0002281 0)
(0.00256487 -0.00021302 0)
(0.00266636 -0.000193165 0)
(0.00275683 -0.000166707 0)
(0.00283229 -0.000131992 0)
(0.00288788 -8.83295e-05 0)
(0.0029187 -3.62729e-05 0)
(0.00292057 2.26602e-05 0)
(0.00289042 8.66967e-05 0)
(0.00282613 0.000154304 0)
(0.0027262 0.000224369 0)
(0.00258947 0.000296125 0)
(0.00241508 0.000368952 0)
(0.0022024 0.000442186 0)
(0.00195122 0.000514989 0)
(0.00166185 0.000586302 0)
(0.00133529 0.000654858 0)
(0.000973291 0.000719236 0)
(0.000578452 0.000777944 0)
(0.00015417 0.000829501 0)
(-0.000295338 0.000872508 0)
(-0.000765091 0.000905693 0)
(-0.00124948 0.000927959 0)
(-0.00174234 0.000938423 0)
(6.24718e-06 -6.73354e-05 0)
(4.04401e-05 -0.000144152 0)
(9.10668e-05 -0.000186004 0)
(0.000149561 -0.00020654 0)
(0.000210686 -0.00021472 0)
(0.000272408 -0.000217238 0)
(0.000334505 -0.000218751 0)
(0.000397808 -0.000222147 0)
(0.000463764 -0.000229006 0)
(0.000534122 -0.000239973 0)
(0.000610691 -0.000255029 0)
(0.000695139 -0.000273661 0)
(0.000788839 -0.000294984 0)
(0.000892733 -0.000317842 0)
(0.00100725 -0.000340907 0)
(0.00113223 -0.000362788 0)
(0.00126693 -0.000382153 0)
(0.00141007 -0.000397857 0)
(0.00155988 -0.000409069 0)
(0.0017143 -0.000415364 0)
(0.00187113 -0.000416771 0)
(0.00202829 -0.000413726 0)
(0.00218395 -0.000406936 0)
(0.00233667 -0.000397145 0)
(0.00248536 -0.000384866 0)
(0.00262916 -0.000370102 0)
(0.00276722 -0.00035212 0)
(0.00289836 -0.000329316 0)
(0.00302065 -0.000299204 0)
(0.00313092 -0.000258749 0)
(0.00322421 -0.000204996 0)
(0.00329407 -0.000136691 0)
(0.00333401 -5.48222e-05 0)
(0.00333878 3.792e-05 0)
(0.00330487 0.000138572 0)
(0.00323001 0.000244737 0)
(0.00311258 0.000354801 0)
(0.00295119 0.000467706 0)
(0.00274462 0.000582583 0)
(0.00249186 0.000698414 0)
(0.00219238 0.000813845 0)
(0.00184635 0.000927129 0)
(0.00145481 0.00103618 0)
(0.00101981 0.00113866 0)
(0.000544476 0.00123212 0)
(3.29732e-05 0.00131416 0)
(-0.000509492 0.0013825 0)
(-0.00107675 0.00143508 0)
(-0.00166188 0.00147016 0)
(-0.00225726 0.00148631 0)
(6.22115e-06 -8.89102e-05 0)
(3.99392e-05 -0.000188087 0)
(8.91795e-05 -0.000240665 0)
(0.000145285 -0.000265639 0)
(0.000203135 -0.000275145 0)
(0.000261014 -0.000278031 0)
(0.000319117 -0.000280388 0)
(0.000378749 -0.000285989 0)
(0.000441843 -0.000296885 0)
(0.000510637 -0.000313893 0)
(0.000587399 -0.000336932 0)
(0.000674219 -0.000365238 0)
(0.000772818 -0.000397527 0)
(0.0008844 -0.000432123 0)
(0.00100954 -0.000467096 0)
(0.00114809 -0.000500409 0)
(0.00129917 -0.000530086 0)
(0.00146121 -0.000554406 0)
(0.00163199 -0.00057209 0)
(0.00180889 -0.000582462 0)
(0.00198909 -0.000585529 0)
(0.0021699 -0.000581943 0)
(0.00234903 -0.000572793 0)
(0.00252468 -0.000559261 0)
(0.00269564 -0.000542225 0)
(0.00286107 -0.000521867 0)
(0.00302027 -0.000497325 0)
(0.00317237 -0.000466472 0)
(0.00331574 -0.000425713 0)
(0.00344728 -0.000370351 0)
(0.00356102 -0.000295224 0)
(0.00364837 -0.00019814 0)
(0.00370065 -8.08429e-05 0)
(0.00371148 5.19965e-05 0)
(0.00367726 0.000195686 0)
(0.00359601 0.000346822 0)
(0.00346621 0.000503414 0)
(0.00328625 0.000664308 0)
(0.00305443 0.000828508 0)
(0.00276916 0.000994642 0)
(0.0024294 0.00116072 0)
(0.00203499 0.00132411 0)
(0.00158692 0.00148166 0)
(0.00108746 0.00162985 0)
(0.00054025 0.00176507 0)
(-4.98178e-05 0.00188372 0)
(-0.000676551 0.00198245 0)
(-0.00133262 0.00205828 0)
(-0.00200977 0.00210862 0)
(-0.00269899 0.00213147 0)
(6.04077e-06 -0.000109829 0)
(3.80549e-05 -0.000230099 0)
(8.38385e-05 -0.000292133 0)
(0.000134965 -0.000320396 0)
(0.000186636 -0.000330368 0)
(0.000237558 -0.00033318 0)
(0.000288428 -0.000336431 0)
(0.000341094 -0.000344807 0)
(0.000398062 -0.000360838 0)
(0.000462131 -0.000385491 0)
(0.00053611 -0.000418586 0)
(0.000622579 -0.000459053 0)
(0.000723679 -0.000505129 0)
(0.000840935 -0.00055452 0)
(0.000975119 -0.00060456 0)
(0.00112614 -0.000652405 0)
(0.00129299 -0.000695266 0)
(0.00147374 -0.000730672 0)
(0.00166567 -0.000756747 0)
(0.00186546 -0.000772461 0)
(0.0020695 -0.000777783 0)
(0.00227436 -0.000773653 0)
(0.00247713 -0.000761701 0)
(0.00267569 -0.000743744 0)
(0.00286866 -0.000721229 0)
(0.0030553 -0.000694707 0)
(0.00323519 -0.000663368 0)
(0.00340804 -0.000624721 0)
(0.00357304 -0.000573951 0)
(0.00372797 -0.000504167 0)
(0.00386592 -0.000406246 0)
(0.00397505 -0.000276399 0)
(0.00404346 -0.000117738 0)
(0.00406352 6.15443e-05 0)
(0.00403234 0.000254243 0)
(0.00394886 0.000455934 0)
(0.00381195 0.00066464 0)
(0.0036197 0.000879527 0)
(0.00336962 0.00109971 0)
(0.00305922 0.00132347 0)
(0.00268668 0.00154804 0)
(0.00225132 0.00176963 0)
(0.00175398 0.00198371 0)
(0.00119711 0.00218534 0)
(0.000584834 0.0023694 0)
(-7.7172e-05 0.00253089 0)
(-0.000781725 0.00266518 0)
(-0.00152031 0.00276817 0)
(-0.00228335 0.00283635 0)
(-0.00306037 0.00286698 0)
(5.75604e-06 -0.000129504 0)
(3.51293e-05 -0.00026872 0)
(7.57606e-05 -0.000338323 0)
(0.000119692 -0.000368315 0)
(0.00016262 -0.00037762 0)
(0.000203781 -0.000379738 0)
(0.000244455 -0.000383835 0)
(0.00028712 -0.000395539 0)
(0.000334934 -0.000417857 0)
(0.000391344 -0.000451895 0)
(0.000459784 -0.000497335 0)
(0.000543406 -0.000552752 0)
(0.000644855 -0.000615823 0)
(0.000766067 -0.000683515 0)
(0.000908088 -0.000752275 0)
(0.00107093 -0.00081827 0)
(0.00125348 -0.00087769 0)
(0.00145345 -0.000927097 0)
(0.0016675 -0.000963816 0)
(0.00189144 -0.000986308 0)
(0.00212067 -0.000994456 0)
(0.00235077 -0.000989594 0)
(0.00257811 -0.000974128 0)
(0.00280015 -0.000950777 0)
(0.00301541 -0.000921807 0)
(0.00322323 -0.000888377 0)
(0.00342346 -0.000849983 0)
(0.0036166 -0.000804224 0)
(0.00380329 -0.00074523 0)
(0.00398391 -0.000663608 0)
(0.00415093 -0.000542676 0)
(0.00428723 -0.000375934 0)
(0.00437583 -0.000168978 0)
(0.00440789 6.34415e-05 0)
(0.00438277 0.000310564 0)
(0.00430138 0.000567304 0)
(0.00416316 0.000832588 0)
(0.00396554 0.00110661 0)
(0.00370471 0.00138896 0)
(0.00337677 0.00167757 0)
(0.00297877 0.0019686 0)
(0.00250934 0.00225678 0)
(0.00196905 0.00253584 0)
(0.00136057 0.00279898 0)
(0.000688544 0.00303933 0)
(-4.05126e-05 0.0032502 0)
(-0.000818359 0.00342547 0)
(-0.00163524 0.00355977 0)
(-0.00248022 0.00364856 0)
(-0.00334133 0.00368824 0)
(5.38407e-06 -0.000147468 0)
(3.13053e-05 -0.000302705 0)
(6.52683e-05 -0.000377394 0)
(9.9967e-05 -0.000407122 0)
(0.000131738 -0.000414322 0)
(0.000160454 -0.000414919 0)
(0.000188067 -0.000419688 0)
(0.00021777 -0.000435224 0)
(0.000253454 -0.000465016 0)
(0.000299298 -0.000510298 0)
(0.000359447 -0.000570594 0)
(0.000437726 -0.000644066 0)
(0.00053739 -0.000727746 0)
(0.000660889 -0.000817737 0)
(0.000809648 -0.000909434 0)
(0.000983864 -0.000997812 0)
(0.00118235 -0.00107779 0)
(0.00140248 -0.0011447 0)
(0.00164019 -0.00119476 0)
(0.00189025 -0.00122569 0)
(0.00214674 -0.00123719 0)
(0.00240395 -0.00123115 0)
(0.00265732 -0.0012111 0)
(0.00290392 -0.00118103 0)
(0.00314218 -0.00114428 0)
(0.00337152 -0.0011028 0)
(0.00359174 -0.00105666 0)
(0.00380403 -0.00100449 0)
(0.00401106 -0.000940111 0)
(0.00421927 -0.000852768 0)
(0.00442149 -0.000710344 0)
(0.00459168 -0.000501978 0)
(0.00470452 -0.000237689 0)
(0.00475032 5.51088e-05 0)
(0.00473397 0.000361026 0)
(0.00465968 0.000675611 0)
(0.00452728 0.00100046 0)
(0.00433264 0.00133791 0)
(0.00406972 0.0016884 0)
(0.0037325 0.00204935 0)
(0.00331648 0.00241543 0)
(0.00281945 0.00277932 0)
(0.00224174 0.0031325 0)
(0.00158626 0.00346592 0)
(0.000858357 0.00377057 0)
(6.549e-05 0.00403786 0)
(-0.000782937 0.00425998 0)
(-0.00167585 0.00443011 0)
(-0.00260088 0.00454256 0)
(-0.00354453 0.00459282 0)
(4.92716e-06 -0.000163293 0)
(2.66332e-05 -0.0003309 0)
(5.24944e-05 -0.000407613 0)
(7.60073e-05 -0.000434648 0)
(9.42814e-05 -0.000437977 0)
(0.000107928 -0.00043599 0)
(0.000119653 -0.000441101 0)
(0.000133442 -0.000460893 0)
(0.000153994 -0.000499355 0)
(0.000186306 -0.000557845 0)
(0.000235326 -0.000635709 0)
(0.000305658 -0.00073065 0)
(0.00040129 -0.000838969 0)
(0.000525312 -0.000955784 0)
(0.000679646 -0.00107527 0)
(0.000864784 -0.00119098 0)
(0.00107957 -0.00129629 0)
(0.00132106 -0.00138493 0)
(0.00158447 -0.00145164 0)
(0.00186326 -0.00149297 0)
(0.00214974 -0.00150827 0)
(0.0024364 -0.00150022 0)
(0.00271756 -0.00147409 0)
(0.00299003 -0.0014356 0)
(0.00325236 -0.00138938 0)
(0.00350409 -0.00133818 0)
(0.00374423 -0.00128249 0)
(0.00397374 -0.0012239 0)
(0.00419696 -0.00115709 0)
(0.00443332 -0.00107638 0)
(0.0046782 -0.000916619 0)
(0.00489037 -0.000660603 0)
(0.00503085 -0.000325956 0)
(0.00509033 3.48047e-05 0)
(0.00508566 0.000401591 0)
(0.00502554 0.000774023 0)
(0.00490882 0.00115954 0)
(0.00472804 0.00156401 0)
(0.00447356 0.00198897 0)
(0.00413636 0.00243072 0)
(0.00371007 0.00288162 0)
(0.00319156 0.00333158 0)
(0.00258108 0.00376916 0)
(0.00188202 0.0041826 0)
(0.00110063 0.00456039 0)
(0.000245534 0.00489182 0)
(-0.000672562 0.0051672 0)
(-0.00164117 0.00537817 0)
(-0.00264641 0.00551775 0)
(-0.00367322 0.00558045 0)
(4.38449e-06 -0.000176561 0)
(2.1135e-05 -0.000352191 0)
(3.75136e-05 -0.000427309 0)
(4.79569e-05 -0.000448781 0)
(5.04679e-05 -0.000446136 0)
(4.64833e-05 -0.00044024 0)
(3.95375e-05 -0.000445179 0)
(3.44715e-05 -0.000469545 0)
(3.68631e-05 -0.000517847 0)
(5.26009e-05 -0.00059158 0)
(8.75353e-05 -0.000689897 0)
(0.000147167 -0.000810002 0)
(0.000236338 -0.000947396 0)
(0.000358916 -0.0010961 0)
(0.000517461 -0.00124889 0)
(0.000712906 -0.0013977 0)
(0.000944274 -0.00153402 0)
(0.00120844 -0.00164958 0)
(0.00149993 -0.00173705 0)
(0.00181066 -0.00179115 0)
(0.00213046 -0.00181052 0)
(0.00244913 -0.00179898 0)
(0.00275966 -0.00176468 0)
(0.00305904 -0.00171578 0)
(0.00334659 -0.0016583 0)
(0.00362235 -0.00159527 0)
(0.00388322 -0.00152607 0)
(0.00412761 -0.001459 0)
(0.00435885 -0.00139087 0)
(0.00462125 -0.00133968 0)
(0.00491644 -0.00117086 0)
(0.00517898 -0.000858872 0)
(0.00534862 -0.000433243 0)
(0.00541906 1.90189e-06 0)
(0.00543119 0.000426515 0)
(0.00539714 0.000852343 0)
(0.0053109 0.00129766 0)
(0.00515874 0.00177277 0)
(0.00492578 0.00227986 0)
(0.00459918 0.00281277 0)
(0.0041706 0.00336029 0)
(0.00363628 0.00390849 0)
(0.00299669 0.00444236 0)
(0.0022561 0.00494684 0)
(0.00142202 0.00540765 0)
(0.000504577 0.00581173 0)
(-0.000484085 0.00614746 0)
(-0.00152996 0.00640484 0)
(-0.00261759 0.00657556 0)
(-0.00373032 0.00665302 0)
(3.76078e-06 -0.000186856 0)
(1.48399e-05 -0.000365501 0)
(2.04183e-05 -0.000434873 0)
(1.60067e-05 -0.000447488 0)
(6.04084e-07 -0.000436419 0)
(-2.34574e-05 -0.000425021 0)
(-5.1763e-05 -0.000429065 0)
(-7.85673e-05 -0.000458185 0)
(-9.73582e-05 -0.000517434 0)
(-0.000101281 -0.000608459 0)
(-8.34906e-05 -0.000730225 0)
(-3.7479e-05 -0.000879419 0)
(4.25835e-05 -0.00105069 0)
(0.000161482 -0.00123687 0)
(0.000322567 -0.0014292 0)
(0.000527383 -0.00161772 0)
(0.000775335 -0.00179176 0)
(0.00106336 -0.00194056 0)
(0.00138554 -0.00205401 0)
(0.00173203 -0.00212381 0)
(0.00208904 -0.00214709 0)
(0.0024421 -0.00212939 0)
(0.00278245 -0.00208389 0)
(0.00310847 -0.00202239 0)
(0.00342158 -0.0019524 0)
(0.0037238 -0.00187635 0)
(0.0040088 -0.00178688 0)
(0.00426598 -0.00170292 0)
(0.00449449 -0.00163356 0)
(0.00477765 -0.00164712 0)
(0.00512345 -0.00148043 0)
(0.00543997 -0.00110519 0)
(0.00563651 -0.000552502 0)
(0.00571377 -4.40242e-05 0)
(0.00575653 0.000424301 0)
(0.00577098 0.000893368 0)
(0.00573774 0.00139714 0)
(0.00563366 0.00194836 0)
(0.00543791 0.00254825 0)
(0.00513351 0.00318589 0)
(0.00471055 0.00384472 0)
(0.00416523 0.00450585 0)
(0.0034989 0.00514987 0)
(0.00271727 0.00575798 0)
(0.00182961 0.00631283 0)
(0.000847903 0.00679894 0)
(-0.000213989 0.00720282 0)
(-0.00134051 0.00751287 0)
(-0.00251464 0.00771939 0)
(-0.00371813 0.00781458 0)
(3.06423e-06 -0.000193769 0)
(7.80138e-06 -0.000369817 0)
(1.36372e-06 -0.000428802 0)
(-1.95309e-05 -0.000428867 0)
(-5.48143e-05 -0.000406594 0)
(-0.000101214 -0.000387821 0)
(-0.000153403 -0.000390019 0)
(-0.000204702 -0.000423893 0)
(-0.000247619 -0.000495071 0)
(-0.000274272 -0.000605385 0)
(-0.000276737 -0.00075364 0)
(-0.000247394 -0.000936017 0)
(-0.000179299 -0.00114629 0)
(-6.66049e-05 -0.001376 0)
(9.49964e-05 -0.00161471 0)
(0.000307828 -0.00185039 0)
(0.000571881 -0.00206993 0)
(0.000884508 -0.00225968 0)
(0.00124001 -0.00240593 0)
(0.00162683 -0.0024952 0)
(0.00202568 -0.0025213 0)
(0.00241473 -0.00249224 0)
(0.00278279 -0.00243089 0)
(0.003132 -0.0023546 0)
(0.00346833 -0.00227242 0)
(0.00379898 -0.00218609 0)
(0.00411835 -0.00207155 0)
(0.00439125 -0.00194159 0)
(0.00459154 -0.0018586 0)
(0.00488613 -0.00201756 0)
(0.00526905 -0.00183231 0)
(0.00561976 -0.00141254 0)
(0.00583883 -0.000662368 0)
(0.00592957 -0.00011255 0)
(0.00604269 0.000366424 0)
(0.00614803 0.00086697 0)
(0.00619958 0.00143359 0)
(0.00616649 0.00207147 0)
(0.00602479 0.00277987 0)
(0.00575406 0.00354028 0)
(0.00534382 0.00432888 0)
(0.00479102 0.00512064 0)
(0.00409863 0.00589102 0)
(0.00327459 0.00661702 0)
(0.00233058 0.0072781 0)
(0.00128092 0.0078565 0)
(0.000141487 0.00833703 0)
(-0.00107066 0.00870674 0)
(-0.00233715 0.00895453 0)
(-0.00363824 0.00907122 0)
(2.28989e-06 -0.000196921 0)
(9.23596e-08 -0.000364234 0)
(-1.94036e-05 -0.000407762 0)
(-5.81832e-05 -0.000391221 0)
(-0.000115049 -0.000354655 0)
(-0.000185774 -0.000326357 0)
(-0.000264112 -0.000325508 0)
(-0.000342436 -0.000363905 0)
(-0.000412254 -0.000447801 0)
(-0.000464611 -0.000579272 0)
(-0.000490435 -0.000757023 0)
(-0.000480885 -0.000976767 0)
(-0.000427764 -0.00123139 0)
(-0.000323997 -0.00151108 0)
(-0.000164176 -0.00180355 0)
(5.49138e-05 -0.00209452 0)
(0.000333964 -0.00236832 0)
(0.000671093 -0.00260834 0)
(0.00106226 -0.00279657 0)
(0.00149504 -0.0029105 0)
(0.00194184 -0.00293659 0)
(0.00236702 -0.00288578 0)
(0.00275588 -0.00280086 0)
(0.00311932 -0.00270782 0)
(0.00347132 -0.00261672 0)
(0.00382632 -0.00253012 0)
(0.00419434 -0.00240659 0)
(0.00454254 -0.00220996 0)
(0.00472506 -0.00199397 0)
(0.00498948 -0.00247604 0)
(0.0053007 -0.00209569 0)
(0.00556534 -0.00177411 0)
(0.00581262 -0.000752271 0)
(0.00600178 -0.000271527 0)
(0.00628955 0.000184948 0)
(0.00655078 0.00072727 0)
(0.00671946 0.00137985 0)
(0.00677729 0.00212203 0)
(0.00670485 0.00296087 0)
(0.00647771 0.00386729 0)
(0.00608549 0.00480821 0)
(0.00552673 0.00575159 0)
(0.00480687 0.00666701 0)
(0.00393692 0.00752688 0)
(0.00293186 0.00830745 0)
(0.00180893 0.00898905 0)
(0.00058622 0.00955538 0)
(-0.000717886 0.00999247 0)
(-0.00208406 0.010288 0)
(-0.00349139 0.010431 0)
(1.43583e-06 -0.000196009 0)
(-8.17673e-06 -0.000347986 0)
(-4.15318e-05 -0.000370644 0)
(-9.92884e-05 -0.000333149 0)
(-0.000179084 -0.000278925 0)
(-0.000275745 -0.000238681 0)
(-0.000382128 -0.000233297 0)
(-0.000489677 -0.000275703 0)
(-0.000588904 -0.000372841 0)
(-0.00066976 -0.000527128 0)
(-0.000721956 -0.000737271 0)
(-0.000735313 -0.00099859 0)
(-0.000700203 -0.0013031 0)
(-0.000608122 -0.00163953 0)
(-0.000452391 -0.00199357 0)
(-0.000228897 -0.00234843 0)
(6.3567e-05 -0.00268587 0)
(0.000423852 -0.00298691 0)
(0.00085214 -0.00323013 0)
(0.00133804 -0.00337654 0)
(0.00184163 -0.0033971 0)
(0.00230137 -0.00330426 0)
(0.00269675 -0.00318203 0)
(0.00305727 -0.00306994 0)
(0.00340917 -0.00297559 0)
(0.00376832 -0.00290125 0)
(0.00415223 -0.00279834 0)
(0.00458058 -0.00258585 0)
(0.0049127 -0.00208033 0)
(0.0049574 -0.00270372 0)
(0.00505052 -0.00234548 0)
(0.00528097 -0.0020563 0)
(0.00555086 -0.000901325 0)
(0.00604582 -0.000673972 0)
(0.00661551 -0.000207054 0)
(0.00705044 0.000450952 0)
(0.00733003 0.00122281 0)
(0.00748803 0.00208445 0)
(0.00749741 0.00308018 0)
(0.00732184 0.00416032 0)
(0.00695095 0.00528024 0)
(0.0063854 0.00639964 0)
(0.0056341 0.00748135 0)
(0.00471236 0.00849262 0)
(0.00363958 0.00940669 0)
(0.00243664 0.0102027 0)
(0.00112395 0.0108643 0)
(-0.000279228 0.0113773 0)
(-0.00175337 0.0117282 0)
(-0.00327709 0.0119042 0)
(5.2614e-07 -0.000190797 0)
(-1.68315e-05 -0.000320505 0)
(-6.45624e-05 -0.000316639 0)
(-0.000141991 -0.000253627 0)
(-0.000245601 -0.000178149 0)
(-0.000369316 -0.000123264 0)
(-0.000505154 -0.000111546 0)
(-0.000643687 -0.000157102 0)
(-0.000774472 -0.000267668 0)
(-0.000886367 -0.000446141 0)
(-0.0009678 -0.000691382 0)
(-0.0010071 -0.000998452 0)
(-0.000992964 -0.00135854 0)
(-0.000915153 -0.00175887 0)
(-0.000765415 -0.00218279 0)
(-0.000538702 -0.00261046 0)
(-0.000234002 -0.00302069 0)
(0.000146729 -0.00339371 0)
(0.000611391 -0.00371099 0)
(0.00115889 -0.00390356 0)
(0.00173218 -0.00390932 0)
(0.00222293 -0.00373666 0)
(0.00260282 -0.0035524 0)
(0.00293665 -0.0034151 0)
(0.00326614 -0.00331718 0)
(0.00358673 -0.00323975 0)
(0.00387524 -0.00313584 0)
(0.00413495 -0.00294946 0)
(0.00484617 -0.00268381 0)
(0.00510546 -0.00238437 0)
(0.00460366 -0.00229849 0)
(0.00438347 -0.00214526 0)
(0.00516188 -0.00182905 0)
(0.00635769 -0.00136218 0)
(0.00705175 -0.000794804 0)
(0.00759477 6.3955e-05 0)
(0.00800711 0.00093944 0)
(0.00830867 0.00193712 0)
(0.00841933 0.00312601 0)
(0.00830267 0.00441342 0)
(0.0079546 0.00574422 0)
(0.00737896 0.00706829 0)
(0.00658944 0.00834021 0)
(0.00560745 0.00952165 0)
(0.00445842 0.0105833 0)
(0.00316779 0.0115047 0)
(0.00175824 0.0122709 0)
(0.000248992 0.0128692 0)
(-0.00134172 0.013285 0)
(-0.00299314 0.0135027 0)
(-4.15386e-07 -0.000181124 0)
(-2.56533e-05 -0.000281483 0)
(-8.79194e-05 -0.000245329 0)
(-0.000185225 -0.000152107 0)
(-0.000312957 -5.1599e-05 0)
(-0.000464228 2.08831e-05 0)
(-0.000630325 4.10796e-05 0)
(-0.000801058 -6.35933e-06 0)
(-0.000965113 -0.000130103 0)
(-0.00111028 -0.000333731 0)
(-0.00122365 -0.000616487 0)
(-0.00129187 -0.00097341 0)
(-0.00130164 -0.00139505 0)
(-0.00124051 -0.00186711 0)
(-0.00109794 -0.00237026 0)
(-0.000867382 -0.0028806 0)
(-0.000548823 -0.00337207 0)
(-0.000149809 -0.00382426 0)
(0.000346365 -0.00424118 0)
(0.000962583 -0.00450799 0)
(0.00162074 -0.00448511 0)
(0.00213078 -0.0041622 0)
(0.00246754 -0.00388853 0)
(0.00276871 -0.00373331 0)
(0.00310111 -0.00365295 0)
(0.00344973 -0.0035584 0)
(0.00380053 -0.00344469 0)
(0.00420488 -0.0032921 0)
(0.00452505 -0.00326108 0)
(0.00463068 -0.00210481 0)
(0.00481266 -0.00225464 0)
(0.00505108 -0.00222259 0)
(0.0055802 -0.00306033 0)
(0.00653507 -0.00225677 0)
(0.00738909 -0.00149418 0)
(0.00812516 -0.000542758 0)
(0.00881627 0.000433566 0)
(0.00929764 0.0016525 0)
(0.00950253 0.00308736 0)
(0.0094414 0.00462381 0)
(0.00911116 0.00620333 0)
(0.00851722 0.00776478 0)
(0.00767904 0.00925303 0)
(0.00662579 0.0106237 0)
(0.00539064 0.0118462 0)
(0.00400471 0.0129023 0)
(0.00249264 0.013782 0)
(0.000871764 0.0144758 0)
(-0.000843469 0.0149686 0)
(-0.00263468 0.0152403 0)
(-1.36374e-06 -0.00016694 0)
(-3.43807e-05 -0.000230919 0)
(-0.000110903 -0.000156762 0)
(-0.000227695 -2.86274e-05 0)
(-0.000379162 0.000100812 0)
(-0.000557753 0.000194099 0)
(-0.000754191 0.000225299 0)
(-0.000957692 0.000177733 0)
(-0.00115621 4.16239e-05 0)
(-0.00133656 -0.000187549 0)
(-0.00148445 -0.00050978 0)
(-0.00158471 -0.000920469 0)
(-0.00162168 -0.00140992 0)
(-0.00158001 -0.00196256 0)
(-0.00144584 -0.00255624 0)
(-0.00120909 -0.00316204 0)
(-0.000868672 -0.00374495 0)
(-0.000443056 -0.00427438 0)
(7.59549e-05 -0.00480755 0)
(0.000753782 -0.00520688 0)
(0.00150352 -0.00514018 0)
(0.00199229 -0.00451973 0)
(0.00223122 -0.00416201 0)
(0.00250752 -0.00404696 0)
(0.00285829 -0.00401333 0)
(0.00324284 -0.00393001 0)
(0.0036402 -0.00382523 0)
(0.00407774 -0.0037333 0)
(0.0045147 -0.00350771 0)
(0.00514027 -0.00255784 0)
(0.00579702 -0.00267844 0)
(0.00648072 -0.00275408 0)
(0.00712886 -0.0036497 0)
(0.00772583 -0.00311675 0)
(0.00855644 -0.00228092 0)
(0.00939744 -0.00132828 0)
(0.0101012 -0.00016733 0)
(0.0105589 0.00130916 0)
(0.0107831 0.00299769 0)
(0.0107514 0.00480902 0)
(0.0104248 0.00667069 0)
(0.00980034 0.00850167 0)
(0.00890135 0.0102323 0)
(0.00776526 0.0118103 0)
(0.0064347 0.0132041 0)
(0.0049479 0.0144018 0)
(0.00333104 0.0154022 0)
(0.00159644 0.0162032 0)
(-0.000249304 0.0167891 0)
(-0.00219288 0.0171327 0)
(-2.28707e-06 -0.000148344 0)
(-4.27024e-05 -0.000169191 0)
(-0.000132683 -5.15554e-05 0)
(-0.000267874 0.000116081 0)
(-0.000441876 0.000278404 0)
(-0.000646682 0.000395931 0)
(-0.000872684 0.000441077 0)
(-0.00110875 0.000395745 0)
(-0.00134233 0.00024884 0)
(-0.00155942 -5.44324e-06 0)
(-0.00174446 -0.000368327 0)
(-0.00188036 -0.000836192 0)
(-0.00194876 -0.00139973 0)
(-0.00193091 -0.00204267 0)
(-0.00180882 -0.00274056 0)
(-0.00156682 -0.00345991 0)
(-0.00119427 -0.00415613 0)
(-0.000702896 -0.00477056 0)
(-0.000146856 -0.00537267 0)
(0.000533535 -0.00596263 0)
(0.00127911 -0.0058507 0)
(0.00170094 -0.00475167 0)
(0.00187909 -0.00437231 0)
(0.00220415 -0.00441921 0)
(0.00261196 -0.00439893 0)
(0.00299922 -0.00433898 0)
(0.00342699 -0.00426211 0)
(0.00390587 -0.00422118 0)
(0.00442945 -0.00402042 0)
(0.00521752 -0.00349131 0)
(0.00622498 -0.00344305 0)
(0.00722097 -0.00370074 0)
(0.00806262 -0.00418065 0)
(0.00884034 -0.00389168 0)
(0.00969936 -0.00311699 0)
(0.0105732 -0.00214499 0)
(0.0113585 -0.000758936 0)
(0.0118875 0.000949646 0)
(0.012167 0.00287749 0)
(0.0121795 0.00497893 0)
(0.0118618 0.00715501 0)
(0.0112056 0.00928884 0)
(0.0102407 0.0112887 0)
(0.00901499 0.0130909 0)
(0.007584 0.0146636 0)
(0.00599605 0.0160052 0)
(0.00427899 0.0171314 0)
(0.00243509 0.0180537 0)
(0.000456311 0.0187555 0)
(-0.00165286 0.019197 0)
(-3.14783e-06 -0.000125607 0)
(-5.02569e-05 -9.71295e-05 0)
(-0.000152303 6.90125e-05 0)
(-0.000304005 0.000280478 0)
(-0.000498402 0.000479579 0)
(-0.000727301 0.000624972 0)
(-0.000981063 0.000687468 0)
(-0.00124853 0.00064748 0)
(-0.00151701 0.000492372 0)
(-0.00177202 0.000214632 0)
(-0.00199698 -0.000188796 0)
(-0.00217294 -0.000716084 0)
(-0.00227863 -0.00135904 0)
(-0.0022913 -0.00210107 0)
(-0.0021891 -0.00291475 0)
(-0.00195571 -0.00375991 0)
(-0.00158311 -0.00458159 0)
(-0.00106506 -0.00530237 0)
(-0.000406923 -0.00592164 0)
(0.000215164 -0.00656858 0)
(0.000526938 -0.00630287 0)
(0.000824573 -0.00508319 0)
(0.00145809 -0.00488774 0)
(0.00204735 -0.00488408 0)
(0.00239574 -0.0047853 0)
(0.00271594 -0.00473925 0)
(0.00313738 -0.00474725 0)
(0.00369007 -0.00477485 0)
(0.00437123 -0.00470223 0)
(0.0053057 -0.00451851 0)
(0.00644095 -0.00452868 0)
(0.00757818 -0.00475829 0)
(0.00866876 -0.00506975 0)
(0.0097711 -0.0048381 0)
(0.0107378 -0.00395121 0)
(0.0116367 -0.0030381 0)
(0.0125574 -0.00147846 0)
(0.0131962 0.000509993 0)
(0.0135539 0.00268615 0)
(0.0136495 0.00510875 0)
(0.0133651 0.00764655 0)
(0.0126911 0.0101242 0)
(0.0116682 0.0124242 0)
(0.0103564 0.0144684 0)
(0.00882827 0.0162241 0)
(0.00714808 0.0177066 0)
(0.00534688 0.0189606 0)
(0.00340868 0.0200233 0)
(0.00129913 0.020875 0)
(-0.0009908 0.0214535 0)
(-3.90374e-06 -9.92069e-05 0)
(-5.66357e-05 -1.60805e-05 0)
(-0.000168689 0.000202919 0)
(-0.000334124 0.000462086 0)
(-0.000545711 0.000701674 0)
(-0.000795392 0.000878683 0)
(-0.00107385 0.00096242 0)
(-0.00137035 0.000931781 0)
(-0.00167252 0.000772383 0)
(-0.00196601 0.000474536 0)
(-0.00223375 3.24956e-05 0)
(-0.00245517 -0.000554981 0)
(-0.00260538 -0.00128269 0)
(-0.00265463 -0.00213604 0)
(-0.00256938 -0.00308704 0)
(-0.00231703 -0.00409067 0)
(-0.00186655 -0.00508529 0)
(-0.00116591 -0.00601896 0)
(0.000142573 -0.00699577 0)
(0.00118807 -0.00699215 0)
(0.00127367 -0.00639668 0)
(0.00159642 -0.0056802 0)
(0.00207635 -0.00538741 0)
(0.00215626 -0.00513473 0)
(0.00217079 -0.00500155 0)
(0.00231124 -0.00505352 0)
(0.00269643 -0.00525183 0)
(0.00334074 -0.00545156 0)
(0.004203 -0.00556687 0)
(0.0053203 -0.00565057 0)
(0.00659379 -0.00572013 0)
(0.00782423 -0.00592745 0)
(0.00915446 -0.00633867 0)
(0.0106438 -0.00608343 0)
(0.0117063 -0.00472482 0)
(0.012633 -0.00408908 0)
(0.0137438 -0.00236627 0)
(0.0144297 1.41034e-05 0)
(0.0148334 0.0023834 0)
(0.0150599 0.00516344 0)
(0.0148484 0.00812427 0)
(0.0141927 0.0109892 0)
(0.0131444 0.0136254 0)
(0.0117681 0.0159339 0)
(0.0101591 0.017875 0)
(0.00840848 0.0194879 0)
(0.00655629 0.020867 0)
(0.00455436 0.0220988 0)
(0.00232147 0.0231536 0)
(-0.000170107 0.023928 0)
(-4.50781e-06 -6.98464e-05 0)
(-6.13973e-05 7.20564e-05 0)
(-0.000180694 0.000347319 0)
(-0.000356115 0.000657386 0)
(-0.000580504 0.000940808 0)
(-0.000846272 0.00115319 0)
(-0.00114483 0.00126251 0)
(-0.00146634 0.00124623 0)
(-0.00179952 0.00108813 0)