/*--------------------------------*- C++ -*----------------------------------*\
| =========                 |                                                 |
| \\      /  F ield         | OpenFOAM: The Open Source CFD Toolbox           |
|  \\    /   O peration     | Version:  2.4.0                                 |
|   \\  /    A nd           | Web:      www.OpenFOAM.org                      |
|    \\/     M anipulation  |                                                 |
\*---------------------------------------------------------------------------*/
FoamFile
{
    version     2.0;
    format      ascii;
    class       volScalarField;
    location    "0.088";
    object      alpha.water;
}
// * * * * * * * * * * * * * * * * * * * * * * * * * * * * * * * * * * * * * //

dimensions      [0 0 0 0 0 0 0];

internalField   nonuniform List<scalar> 
3600
(
1
1.00002
1.00002
1.00002
1.00002
1.00001
1.00001
1.00001
1.00001
1.00001
1
1
1
1
1
1
1
1
1
1
1
1
1
1
1
1
1
1
1
1
1.00005
1.00004
1.00003
1.00003
1.00003
1.00002
1.00002
1.00001
1.00001
1.00001
1.00001
1.00001
1
1
1
1
1
1
1
1
1
1
1
1
1
1
1
1
1
1
1.00003
1.00003
1.00003
1.00002
1.00002
1.00002
1.00001
1.00001
1.00001
1.00001
1.00001
1
1
1
1
1
1
1
1
1
1
1
1
1
1
1
1
1
1
1
1.00003
1.00003
1.00003
1.00002
1.00002
1.00001
1.00001
1.00001
1.00001
1.00001
1
1
1
1
1
1
1
1
1
1
1
1
1
1
1
1
1
1
1
1
1.00003
1.00002
1.00002
1.00002
1.00001
1.00001
1.00001
1.00001
1.00001
1
1
1
1
1
1
1
1
1
1
1
1
1
1
1
1
1
1
1
1
1
1.00002
1.00002
1.00002
1.00001
1.00001
1.00001
1.00001
1.00001
1
1
1
1
1
1
1
1
1
1
1
1
1
1
1
1
1
1
1
1
1
1
1.00002
1.00001
1.00001
1.00001
1.00001
1.00001
1
1
1
1
1
1
1
1
1
1
1
1
1
1
1
1
1
1
1
1
1
1
1
1
1.00001
1
1
1
1
1
1
1
1
1
1
1
1
1
1
1
1
1
1
1
1
1
1
1
1
1
1
1
1
1
1
0.999997
0.999997
0.999998
0.999998
0.999999
1
1
1
1
1
1
1
1
1
1
1
1
1
1
1
1
1
1
1
1
1
1
1
1
0.999994
0.999993
0.999995
0.999996
0.999997
0.999997
0.999999
0.999999
1
1
1
1
1
1
1
1
1
1
1
1
1
1
1
1
1
1
1
1
1
1
0.99999
0.999991
0.999989
0.999989
0.999991
0.999995
0.999998
0.999999
0.999999
0.999999
1
1
1
1
1
1
1
1
1
1
1
1
1
1
1
1
1
1
1
1
0.999988
0.999988
0.999986
0.999987
0.999992
0.999996
0.999997
0.999998
0.999998
0.999999
0.999999
1
1
1
1
1
1
1
1
1
1
1
1
1
1
1
1
1
1
1
0.999987
0.999987
0.999987
0.999991
0.999996
0.999996
0.999997
0.999997
0.999998
0.999998
0.999999
1
1
1
1
1
1
1
1
1
1
1
1
1
1
1
1
1
1
1
0.999988
0.999987
0.999993
0.999995
0.999996
0.999996
0.999996
0.999996
0.999997
0.999998
0.999998
0.999999
1
1
1
1
1
1
1
1
1
1
1
1
1
1
1
1
1
1
0.999989
0.999992
0.999996
0.999996
0.999992
0.999991
0.999993
0.999996
0.999997
0.999997
0.999998
0.999999
1
1
1
1
1
1
1
1
1
1
1
1
1
1
1
1
1
1
0.99999
0.999992
0.999986
0.999993
0.999988
0.999988
0.999994
0.999995
0.999996
0.999997
0.999998
0.999999
1
1
1
1
1
1
1
1
1
1
1
1
1
1
1
1
1
1
0.99999
0.999983
0.999982
0.99999
0.999993
0.999992
0.999993
0.999993
0.999994
0.999996
0.999997
0.999999
1
1
1
1
1
1
1
1
1
1
1
1
1
1
1
1
1
1
0.999991
0.999991
0.999982
0.999991
0.999993
0.999992
0.999992
0.999989
0.999993
0.999992
0.999996
0.999999
0.999999
1
1
1
1
1
1
1
1
1
1
1
1
1
1
1
1
1
0.999991
0.999571
0.999976
0.999988
0.999978
0.999951
0.999992
0.99999
0.999983
0.999994
0.999996
0.999998
0.999999
1
1
1
1
1
1
1
1
1
1
1
1
1
1
1
1
1
0.997098
0.991287
0.998838
0.999988
0.999988
0.999913
0.999927
0.999955
0.999983
0.999996
0.999995
0.999996
0.999999
1
1
1
1
1
1
1
1
1
1
1
1
1
1
1
1
1
0.989267
0.989267
0.997199
0.998563
0.999594
0.9999
0.999899
0.999914
0.999973
0.999976
0.99999
0.999997
0.999998
1
1
1
1
1
1
1
1
1
1
1
1
1
1
1
1
1
0.989267
0.989537
0.997199
0.997003
0.999427
0.999992
0.999901
0.99997
0.999983
0.999979
0.99998
0.999999
0.999999
1
1
1
1
1
1
1
1
1
1
1
1
1
1
1
1
1
0.989267
0.989267
0.990083
0.999455
0.999832
1
0.999984
1
0.999999
0.999994
0.99999
0.999992
1
1
1
1
1
1
1
1
1
1
1
1
1
1
1
1
1
1
0.989267
0.989267
0.993962
1
1
1
1
1
1
0.999999
0.999997
0.999991
0.999993
1
1
1
1
1
1
1
1
1
1
1
1
1
1
1
1
1
0.989267
0.989267
0.994407
1
1
1.00001
1
1
1
0.999999
1
0.999995
0.999993
0.999999
1
1
1
1
1
1
1
1
1
1
1
1
1
1
1
1
0.99038
0.995015
0.998066
0.999998
0.999834
1.00001
1
1
1
0.999998
1
1
0.999999
1
1
1
1
1
1
1
1
1
1
1
1
1
1
1
1
1
0.996714
0.999837
0.999837
0.999837
0.999717
1.00001
1
1
1
0.999998
0.999999
1
1
1
1
1
1
1
1
1
1
1
1
1
1
1
1
1
1
1
0.996706
0.991751
0.99918
0.999374
0.99972
1
1
1
1
1
1
1
1
1
1
1
1
1
1
1
1
1
1
1
1
1
1
1
1
1
0.939096
0.965864
0.990861
0.999999
0.999999
1
1
1
1
1
1
1
1
1
1
1
1
1
1
1
0.995036
1
1
1
1
1
1
1
1
1
0.353357
0.685319
0.689948
0.793648
0.999999
0.973778
0.905101
0.945605
0.796157
0.767237
0.840714
0.911638
0.825858
0.912695
0.881522
0.915271
0.75284
0.862437
0.914216
0.722732
0.547557
0.731177
0.934469
0.994998
1
1
1
1
1
1
1
1
1
1
1
1
1
1
1
1
1
1
1
1
1
1
1
1
1
1
1
1
1
1
1
1
1
1
1
1
1
0.999999
1
1
1
1
1
1
1
1
1
1
1
1
1
1
1
1
1
1
1
1
1
1
1
1
1
1
1
1
1
0.999999
1
1
1
1
1
1
1
1
1
1
1
1
1
1
1
1
1
1
1
1
1
1
1
1
1
1
1
1
1
0.999999
1
1
1
1
1
1
1
1
1
1
1
1
1
1
1
1
1
1
1
1
1
1
1
1
1
1
1
1
1
0.999999
1
1
1
1
1
1
1
1
1
1
1
1
1
1
1
1
1
1
1
1
1
1
1
1
1
1
1
1
1
0.999999
1
1
1
1
1
1
1
1
1
1
1
1
1
1
1
1
1
1
1
1
1
1
1
1
1
1
1
1
1
0.999999
1
1
1
1
1
1
1
1
1
1
1
1
1
1
1
1
1
1
1
1
1
1
1
1
1
1
1
1
1
0.999999
1
1
1
1
1
1
1
1
1
1
1
1
1
1
1
1
1
1
1
1
1
1
1
1
1
1
1
1
1
0.999999
1
1
1
1
1
1
1
1
1
1
1
1
1
1
1
1
1
1
1
1
1
1
1
1
1
1
1
1
1
0.999999
1
1
1
1
1
1
1
1
1
1
1
1
1
1
1
1
1
1
1
1
1
1
1
1
1
1
1
1
1
0.999999
1
1
1
1
1
1
1
1
1
1
1
1
1
1
1
1
1
1
1
1
1
1
1
1
1
1
1
1
1
1
1
1
1
1
1
1
1
1
1
1
1
1
1
1
1
1
1
1
1
1
1
1
1
1
1
1
1
1
1
1
1
1
1
1
1
1
1
1
1
1
1
1
1
1
1
1
1
1
1
1
1
1
1
1
1
1
1
1
1
1
1
1
1
1
1
1
1
1
1
1
1
1
1
1
1
1
1
1
1
1
1
1
1
1
1
1
1
1
1
1
1
1
1
1
1
1
1
1
1
1
1
1
1
1
1
1
1
1
1
1
1
1
1
1
1
1
1
1
1
1
1
1
1
1
1
1
1
1
1
1
1
1
1
1
1
1
1
1
1
1
1
1
1
1
1
1
1
1
1
1
1
1
1
1
1
1
1
1
1
1
1
1
1
1
1
1
1
1
1
1
1
1
1
1
1
1
1
1
1
1
1
1
1
1
1
1
1
1
1
1
1
1
1
1
1
1
1
1
1
1
1
1
1
1
1
1
1
1
1
1
1
1
1
1
1
1
1
1
1
1
1
1
1
1
1
1
1
1
1
1
1
1
1
1
1
1
1
1
1
1
1
1
1
1
1
1
1
1
1
1
1
1
1
1
1
1
1
1
1
1
1
1
1
1
1
1
1
1
1
1
1
1
1
1
1
1
1
1
1
1
1
1
1
1
1
1
1
1
1
1
1
1
1
1
1
1
1
1
1
1
1
1
1
1
1
1
1
1
1
1
1
1
1
1
1
1
1
1
1
1
1
1
1
1
1
1
1
1
1
1
1
1
1
1
1
1
1
1
1
1
1
1
1
1
1
1
1
1
1
1
1
1
1
1
1
1
1
1
1
1
1
1
1
1
1
1
1
1
1
1
1
1
1
1
1
1
1
1
1
1
1
1
1
1
1
1
1
1
1
1
1
1
1
1
1
1
1
1
1
1
1
1
1
1
1
1
1
1
1
1
1
1
1
1
1
1
1
1
1
1
1
1
1
1
1
1
1
1
1
1
1
1
1
1
1
1
1
1
1
1
1
1
1
1
1
1
1
1
1
1
1
1
1
1
1
1
1
1
1
1
1
1
1
1
1
1
1
1
1
1
1
1
1
1
1
1
1
1
1
1
1
1
1
1
1
1
1
1
1
1
1
1
1
1
1
1
1
1
1
1
1
1
1
1
1
1
1
1
1
1
1
1
1
1
1
1
1
1
1
1
1
1
1
1
1
1
1
1
1
1
1
1
1
1
1
1
1
1
1
1
1
1
1
1
1
1
1
1
1
1
1
1
1
1
1
1
1
1
1
1
0.999949
1
0.999806
1
0.999498
1
0.999126
1
0.108795
0.24897
0.232102
0.211318
0.48158
0.273389
0.113163
0.0913438
0.0823918
0.0997631
0.139415
0.133488
0.060083
0.0699144
0.0856491
0.150026
0.076297
0.115948
0.151476
0.0417289
8.15118e-05
0.00793619
0.043464
0.0386365
0.0313782
0.0160782
0.0108129
0.00623305
0.00407764
0.00225166
0.0327156
0.0435543
0.172661
0.000500829
0.00029901
-2.36533e-09
6.2405e-11
1.78326e-11
8.95648e-12
-2.3087e-08
2.46825e-10
4.90554e-10
4.90565e-10
4.86177e-10
7.13962e-10
9.25407e-10
9.30258e-10
9.28365e-10
9.30875e-10
1.2134e-09
1.455e-08
1.45325e-11
1.45308e-11
1.45308e-11
1.23045e-11
1.05472e-11
3.50658e-10
8.67834e-11
2.27919e-11
5.69402e-12
0.0561336
0.0561301
0.0285554
0.000620422
9.41941e-06
9.42357e-06
2.27782e-10
5.39281e-08
9.82517e-08
5.31943e-10
5.05412e-10
4.90556e-10
6.24055e-10
6.37383e-10
1.11955e-09
9.25407e-10
2.11641e-09
1.73707e-09
1.74133e-09
6.86948e-11
6.20485e-11
5.62602e-11
6.55481e-11
4.40244e-11
8.77923e-12
9.26212e-12
6.8862e-10
1.34675e-10
3.7631e-11
6.96102e-12
0.0524528
0.0468018
0.0151235
0.00107206
1.59163e-05
4.34658e-05
6.85715e-08
2.54045e-07
3.24869e-07
5.61881e-10
4.17601e-09
4.81854e-10
5.06104e-10
1.00451e-09
1.4489e-09
1.40521e-09
2.39117e-09
1.70171e-09
2.67288e-09
9.75162e-10
1.13891e-10
3.62101e-11
4.87337e-11
1.38878e-11
7.50785e-12
8.23655e-12
3.99391e-12
4.64191e-13
8.33573e-14
8.43752e-15
0.00686347
0.00626233
0.0331427
0.0331647
0.00457498
3.39537e-08
4.55746e-08
3.16768e-07
3.24868e-07
1.3317e-08
4.83469e-10
1.46562e-10
9.63574e-11
1.31557e-10
1.51065e-10
2.06542e-10
2.37653e-10
1.81424e-10
4.13065e-10
1.26782e-10
8.96687e-12
1.49361e-12
2.68368e-12
5.8698e-13
2.43229e-13
8.87756e-14
1.65189e-14
1.17903e-15
1.36328e-16
7.55613e-18
0.0169557
0.00489767
0.00514463
0.00587055
1.5533e-08
2.25882e-06
4.53468e-08
2.3644e-07
3.34187e-08
4.67754e-09
8.36793e-11
3.83784e-11
1.62199e-11
1.21488e-11
1.18364e-11
1.87547e-11
2.64377e-11
1.29607e-11
3.71352e-11
1.05105e-11
3.4531e-13
4.00016e-14
7.80046e-14
1.18167e-14
3.61073e-15
5.25456e-16
5.20149e-17
2.3446e-18
1.75364e-19
5.32146e-21
0.0190358
0.00841903
0.00316132
-6.47743e-07
1.36387e-08
1.01775e-07
2.92933e-08
5.42043e-08
1.08375e-09
6.51079e-10
3.52607e-11
5.69335e-12
1.81539e-12
5.53552e-13
2.47698e-13
7.43711e-13
1.41693e-12
3.97358e-13
1.9864e-12
5.28853e-13
8.64004e-15
6.06369e-16
1.29129e-15
1.35695e-16
3.08987e-17
2.14595e-18
1.28358e-19
3.77158e-21
1.83756e-22
3.03743e-24
0.0190356
0.00556838
0.00199013
2.30257e-09
1.32467e-08
1.33885e-08
1.52169e-08
1.38983e-08
1.87121e-09
1.39168e-10
6.04344e-12
5.03339e-13
1.76445e-14
1.71563e-14
4.43266e-15
1.62644e-14
2.96635e-14
5.46524e-15
5.98058e-14
1.55954e-14
1.45881e-16
6.37491e-18
1.38155e-17
1.02518e-18
1.68663e-19
6.60491e-21
2.53682e-22
5.02856e-24
1.61473e-25
1.44327e-27
0.0184944
0.000547385
0.000546772
7.71099e-05
2.34102e-06
3.63003e-06
2.8534e-08
4.2796e-09
1.88191e-10
3.82286e-11
1.75021e-12
5.74643e-14
2.47464e-16
3.32308e-16
5.02299e-17
1.79711e-16
1.91167e-16
6.62242e-17
1.01075e-15
2.70638e-16
1.579e-18
3.84391e-20
9.13138e-20
5.0975e-21
6.10302e-22
1.59199e-23
4.0549e-25
5.6544e-27
1.21482e-28
5.83175e-31
0.0195441
0.00168229
0.000153733
5.48715e-05
1.87747e-05
3.13374e-06
6.74705e-10
1.22516e-09
1.29462e-10
2.29827e-11
1.4164e-12
3.29649e-14
2.19734e-16
4.40724e-18
2.85922e-19
1.08002e-18
4.69935e-19
5.63181e-19
9.34301e-18
2.75723e-18
1.05854e-20
1.60326e-22
3.94508e-22
1.7679e-23
1.47705e-24
3.08754e-26
5.24179e-28
5.43021e-30
7.92585e-32
2.03912e-34
0.0138335
0.00460262
0.000131455
5.52438e-07
1.48244e-05
2.4433e-07
5.97943e-10
4.59943e-10
1.20787e-10
2.73734e-11
1.19206e-12
2.43645e-14
1.95779e-16
7.77269e-19
1.25305e-21
3.65465e-21
1.66964e-21
2.89376e-21
4.28248e-20
1.63284e-20
5.20533e-23
3.90632e-25
9.97776e-25
4.0981e-26
2.28918e-27
4.86273e-29
5.42684e-31
4.49317e-33
4.51374e-35
6.2627e-38
0.00650742
0.00658007
0.00130917
3.02312e-07
4.54827e-06
9.86297e-10
8.68288e-10
4.62801e-10
1.99036e-10
4.89743e-11
1.96292e-12
2.93223e-14
1.83184e-16
8.59566e-19
9.99649e-22
6.5909e-24
2.69776e-24
7.67793e-24
6.5156e-23
5.50214e-23
2.03325e-25
5.76514e-28
1.41558e-27
6.37904e-29
2.06002e-30
6.26652e-32
4.41054e-34
3.22257e-36
2.24724e-38
1.71261e-41
0.00425872
0.00113735
3.31948e-06
2.9831e-07
1.54073e-07
9.56037e-08
1.38774e-08
6.12525e-10
2.69289e-10
6.54343e-11
3.21882e-12
5.12313e-14
1.75966e-16
9.40041e-19
1.75744e-21
8.12491e-25
2.21104e-27
1.30891e-26
4.06921e-26
1.03517e-25
4.98813e-28
4.34955e-31
1.04996e-30
6.20017e-32
9.25988e-34
6.60425e-35
2.72383e-37
2.0134e-39
9.77155e-42
4.23021e-45
0.000564405
7.60017e-05
2.98739e-07
3.02571e-07
7.4929e-07
1.13405e-07
8.76845e-09
8.72809e-10
4.70515e-10
8.49574e-11
5.59876e-12
1.09086e-13
3.24762e-16
1.07641e-18
2.68211e-21
2.02765e-24
1.44307e-28
2.19774e-29
1.08341e-28
1.06231e-28
8.03314e-31
1.58018e-34
6.45828e-34
3.52341e-35
2.15668e-37
5.69443e-38
1.2103e-40
1.10039e-42
3.70143e-45
9.58101e-49
0.0217055
0.000336828
0.00637044
4.58007e-05
1.44603e-09
2.26328e-08
3.611e-09
7.93894e-10
4.15269e-10
1.03168e-10
8.09603e-12
1.92657e-13
8.62753e-16
1.31202e-18
4.06813e-21
4.1479e-24
5.68308e-28
3.5112e-32
1.6211e-31
5.75797e-32
7.80295e-34
4.00084e-38
6.44112e-37
1.00345e-38
3.14632e-41
4.00241e-41
3.48046e-44
5.27774e-46
1.21685e-48
2.01849e-52
0.0433743
0.0433754
0.0368259
0.00601917
-3.27973e-08
5.56296e-09
5.34458e-09
1.70158e-09
4.4031e-10
2.41081e-10
1.13886e-11
2.70626e-13
2.03589e-15
1.63931e-18
5.74396e-21
6.76147e-24
1.49668e-27
4.67776e-32
1.06134e-34
1.54582e-35
4.5027e-37
1.59935e-41
4.83951e-40
1.1001e-42
4.30013e-45
2.28728e-44
4.97517e-48
2.22912e-49
3.45917e-52
4.00306e-56
0.0433617
0.0352199
0.0210966
1.41512e-08
9.70796e-07
2.66436e-08
2.8331e-09
3.70089e-09
1.14534e-08
8.98667e-10
1.39281e-11
3.50659e-13
3.48208e-15
2.30535e-18
5.96732e-21
9.22065e-24
3.08923e-27
1.73992e-31
8.64429e-38
1.79821e-39
2.66674e-40
6.90022e-45
2.43915e-43
3.84088e-47
2.08266e-48
1.05865e-47
3.1169e-52
8.31885e-53
8.47019e-56
7.51787e-60
2.80212e-05
0.000303058
0.00383589
1.41586e-08
2.75209e-08
3.75228e-08
2.31277e-09
2.31344e-09
7.73439e-09
4.39536e-09
1.57636e-11
4.44043e-13
5.47076e-15
4.71132e-18
7.07813e-21
1.2176e-23
5.73349e-27
4.71939e-31
5.55943e-37
7.90073e-44
1.07505e-43
1.97039e-48
7.67728e-47
6.45396e-52
8.60714e-52
3.95224e-51
1.89609e-56
2.75129e-56
1.77869e-59
1.33421e-63
0.000560256
7.95359e-07
-3.48002e-07
3.58676e-06
2.81037e-08
1.5227e-07
7.13365e-07
8.71924e-07
9.54126e-11
4.94787e-09
1.44752e-11
4.74897e-13
6.84149e-15
9.88082e-18
7.27417e-21
1.25039e-23
7.15385e-27
9.55356e-31
2.61695e-36
1.53458e-43
7.86688e-48
3.21624e-52
1.35032e-50
8.04018e-57
2.81134e-55
1.18546e-54
4.05106e-60
8.09287e-60
3.19096e-63
2.22016e-67
0.000296498
2.31922e-08
2.17318e-08
8.1101e-07
3.30224e-08
1.35608e-07
1.60201e-06
1.97515e-06
9.32179e-11
9.84122e-10
1.10052e-11
4.07806e-13
7.44232e-15
1.60741e-17
9.92637e-21
1.14867e-23
7.11589e-27
1.27166e-30
5.97521e-36
1.29991e-42
7.35174e-58
4.76948e-56
1.9951e-54
5.77641e-61
7.13325e-59
2.84664e-58
1.23099e-63
2.12527e-63
4.87618e-67
3.43964e-71
3.58339e-06
2.4372e-08
2.26895e-08
2.00359e-08
5.47623e-08
3.58948e-08
1.15828e-06
1.97529e-06
9.31642e-11
1.80221e-10
9.64316e-12
3.79571e-13
8.14151e-15
2.00529e-17
2.03295e-20
6.33857e-24
2.74256e-27
5.69227e-31
6.10063e-36
7.47171e-42
1.64876e-61
1.20242e-59
5.53478e-58
9.75316e-65
1.39328e-62
5.45367e-62
3.40159e-67
5.001e-67
6.35299e-71
4.92814e-75
3.30653e-08
3.14479e-08
4.15464e-08
1.9799e-08
1.98028e-08
2.00823e-08
2.5137e-07
8.2172e-07
9.31533e-11
9.31445e-11
9.87008e-12
4.0372e-13
9.68886e-15
2.67874e-17
4.80529e-20
9.73366e-24
2.3202e-27
5.63258e-31
9.83826e-36
2.40729e-41
2.46163e-65
2.03639e-63
1.04272e-61
1.33281e-68
2.11174e-66
8.3193e-66
8.63682e-71
1.05913e-70
7.12472e-75
6.46785e-79
3.55068e-08
3.53958e-08
3.5398e-08
1.94017e-06
2.15601e-06
1.3565e-07
7.28919e-09
8.25823e-10
9.9966e-10
9.38489e-11
1.13271e-11
4.62922e-13
1.13607e-14
3.73078e-17
8.42978e-20
1.64287e-23
1.35826e-27
2.87167e-31
5.59872e-36
3.15078e-41
2.25682e-69
2.14409e-67
1.23861e-65
1.48352e-72
2.59023e-70
1.01005e-69
2.09522e-74
2.02848e-74
7.16392e-79
7.7132e-83
2.28396e-08
3.53804e-08
3.44618e-06
1.75059e-05
1.19451e-05
5.16774e-08
7.48219e-10
7.45706e-10
8.78485e-10
9.95424e-11
1.2155e-11
4.93595e-13
1.06409e-14
3.81708e-17
9.11878e-20
2.21494e-23
8.67615e-28
2.28631e-31
6.84962e-36
7.91085e-41
1.12754e-73
1.25016e-71
8.29547e-70
1.47354e-76
2.7749e-74
9.77332e-74
4.79584e-78
3.53009e-78
8.06172e-83
8.32689e-87
0.00151448
0.000814681
8.47882e-05
1.48445e-05
5.24082e-09
4.54389e-09
3.52742e-06
6.49731e-09
1.33524e-09
1.35236e-10
1.06776e-11
3.23718e-13
6.30764e-15
2.51887e-17
6.00321e-20
1.69738e-23
2.73559e-28
6.65348e-32
1.97692e-36
2.73148e-41
2.50725e-78
3.31445e-76
2.58621e-74
1.48026e-80
2.9574e-78
7.57162e-78
1.03663e-81
5.6133e-82
1.06916e-86
8.14701e-91
0.00452793
0.000821141
4.05966e-05
3.98367e-05
2.5704e-05
2.97899e-05
3.00233e-05
3.34654e-10
8.26871e-10
9.38378e-11
7.28975e-12
1.9777e-13
2.75091e-15
9.06389e-18
1.8615e-20
5.7605e-24
1.32092e-28
3.91813e-32
1.28694e-36
2.27321e-41
1.58263e-83
2.57022e-81
2.43569e-79
2.27687e-84
5.3832e-82
4.7352e-82
2.12912e-85
8.20465e-86
1.53467e-90
7.25786e-95
0.00486347
0.00103162
5.03071e-05
0.000220624
0.000212786
1.68198e-05
2.33311e-05
3.33471e-10
4.46707e-10
7.37868e-11
4.85958e-12
1.29987e-13
1.13104e-15
3.48178e-18
6.08308e-21
2.15162e-24
6.02343e-29
1.45562e-32
4.54917e-37
8.89938e-42
6.3705e-90
1.32851e-87
1.60428e-85
3.42715e-88
1.03552e-85
2.41915e-86
4.18804e-89
1.1088e-89
2.40117e-94
5.92723e-99
0.00486334
0.00375685
0.000726213
0.00025692
0.00025689
1.68091e-05
2.6113e-06
3.34791e-10
3.58856e-10
7.91085e-11
3.74349e-12
9.5064e-14
4.8182e-16
1.21895e-18
1.56463e-21
4.48836e-25
6.97807e-30
8.08852e-34
1.21643e-38
1.33566e-43
7.25966e-98
3.35992e-97
6.92613e-95
4.29573e-92
1.80435e-89
1.02705e-90
7.98714e-93
1.39451e-93
4.03914e-98
4.47611e-103
0.0048633
0.00485995
0.000519419
0.000155419
0.000198267
3.8207e-06
7.54234e-10
6.89962e-10
5.62786e-10
8.67575e-11
2.52974e-12
5.30355e-14
2.37209e-16
5.27593e-19
4.37678e-22
1.18505e-25
3.54242e-30
1.77896e-34
2.05789e-39
1.78193e-44
4.95095e-103
1.24532e-101
4.01012e-99
4.13323e-96
2.85528e-93
3.70594e-95
1.48694e-96
1.64303e-97
7.09252e-102
3.15438e-107
0.00438482
0.000631669
1.06443e-05
1.04928e-05
1.02016e-05
7.53729e-08
2.76305e-09
7.10716e-10
5.99502e-10
5.1711e-11
5.29517e-13
9.04549e-15
2.58645e-17
6.33014e-20
1.34786e-23
1.33543e-27
2.26404e-34
1.76644e-38
7.38728e-44
4.28153e-49
2.71425e-108
3.04797e-106
6.98088e-104
2.09551e-100
4.11612e-97
1.168e-99
2.73121e-100
1.82573e-101
1.27081e-105
2.09183e-111
0.00159974
0.00130382
0.00107515
0.000875907
0.000719086
0.000584818
0.000477801
0.00038755
0.000315344
0.000255134
0.000206882
0.000167088
0.000134736
0.000108443
8.68711e-05
6.9385e-05
5.5113e-05
4.29527e-05
3.25158e-05
2.44123e-05
6.12748e-06
1.1427e-05
1.0045e-12
4.47031e-06
1.61094e-13
2.06237e-05
6.64689e-13
0.000157515
1.57641e-13
0.000670718
3.32652e-12
2.05593e-12
1.49351e-12
1.01877e-12
8.50848e-13
6.91898e-13
6.38285e-13
5.88237e-13
5.70095e-13
5.42375e-13
5.45557e-13
5.51429e-13
5.38957e-13
5.63295e-13
5.57983e-13
5.77811e-13
8.41084e-13
4.15829e-10
4.3529e-10
1.33282e-10
2.79664e-10
4.56251e-12
1.00441e-12
2.13802e-11
1.61087e-13
7.59759e-13
6.64688e-13
6.74642e-20
1.55695e-13
8.94286e-20
2.72642e-12
1.44431e-12
9.00014e-13
4.42151e-13
2.89443e-13
1.44437e-13
1.03067e-13
6.34318e-14
5.37281e-14
3.1802e-14
3.78647e-14
4.27272e-14
2.63597e-14
4.12151e-14
2.49264e-14
2.88813e-14
1.55634e-14
5.61623e-15
3.09777e-17
9.89895e-18
1.03924e-19
7.16504e-20
2.34391e-20
1.99737e-19
2.09887e-20
2.76668e-20
4.06209e-20
5.69982e-20
3.83871e-20
8.93961e-20
2.74538e-15
9.89229e-16
6.26943e-16
2.04595e-16
1.37394e-16
5.16534e-17
4.13334e-17
2.38078e-17
2.20129e-17
1.04546e-17
1.20441e-17
1.03395e-17
4.99176e-18
4.89064e-18
1.84762e-18
7.8902e-19
3.59327e-20
2.98735e-21
1.92508e-24
9.57132e-26
8.20892e-26
1.88858e-26
5.04068e-27
6.35851e-26
2.6556e-27
5.93772e-27
7.27073e-27
9.66349e-27
9.04906e-27
1.56815e-26
2.10596e-18
5.22628e-19
3.37466e-19
7.42151e-20
5.10994e-20
1.52507e-20
1.37196e-20
6.78568e-21
6.22853e-21
2.20067e-21
2.2098e-21
1.30308e-21
4.82279e-22
2.58248e-22
4.94206e-23
3.50065e-24
2.08231e-26
2.24477e-28
3.05719e-31
9.21819e-32
7.42804e-32
9.72142e-33
2.18536e-33
1.2438e-32
6.29523e-34
1.13727e-33
1.28617e-33
1.47455e-33
1.76203e-33
1.80461e-33
1.30175e-21
2.28248e-22
1.48502e-22
2.25304e-23
1.57828e-23
3.84854e-24
3.82616e-24
1.48436e-24
1.31611e-24
3.29778e-25
2.83935e-25
1.08505e-25
3.01884e-26
7.56892e-27
4.75466e-28
7.83837e-30
5.07349e-33
2.07085e-36
2.09961e-37
9.98446e-38
7.17617e-38
5.87955e-39
1.15671e-39
2.65322e-39
1.58108e-40
1.83267e-40
1.55194e-40
1.99565e-40
2.85279e-40
1.48095e-40
6.69307e-25
8.47052e-26
5.50902e-26
5.85497e-27
4.16855e-27
8.32772e-28
9.04375e-28
2.57584e-28
2.20793e-28
3.78209e-29
2.80558e-29
6.58558e-30
1.35299e-30
1.25105e-31
2.65429e-33
9.70861e-36
3.87308e-39
1.62582e-42
2.85925e-43
1.1505e-43
7.01357e-44
4.27769e-45
6.48404e-46
3.86406e-46
4.10636e-47
3.70051e-47
3.6619e-47
3.67256e-47
3.92935e-47
9.06388e-48
2.94286e-28
2.73152e-29
1.77089e-29
1.32908e-30
9.66485e-31
1.55919e-31
1.84028e-31
3.67006e-32
3.07302e-32
3.48541e-33
2.25318e-33
3.0786e-34
4.59259e-35
1.11028e-36
1.03518e-38
5.9322e-42
1.7317e-45
1.71628e-48
4.1472e-49
1.38218e-49
6.88779e-50
3.38618e-51
4.09771e-52
1.10635e-52
1.22234e-53
9.06499e-54
1.23839e-53
7.46232e-54
6.30275e-54
4.41157e-55
1.1293e-31
7.78345e-33
5.03564e-33
2.67735e-34
2.00608e-34
2.55096e-35
3.27214e-35
4.41125e-36
3.65829e-36
2.66714e-37
1.52397e-37
1.1451e-38
1.21901e-39
7.3643e-42
3.37535e-44
1.05214e-47
1.84161e-51
2.76536e-54
6.29412e-55
1.72378e-55
7.02481e-56
2.87872e-57
2.65653e-58
3.0942e-59
4.86096e-60
2.65442e-60
4.5119e-60
1.33007e-60
8.95097e-61
1.78276e-62
3.83753e-35
1.98383e-36
1.2858e-36
4.84287e-38
3.78061e-38
3.68277e-39
5.15182e-39
4.56815e-40
3.80907e-40
1.73536e-41
8.9027e-42
3.46266e-43
2.58952e-44
3.89983e-47
9.78594e-50
2.86854e-53
4.67088e-57
5.26183e-60
9.79283e-61
2.19957e-61
7.22169e-62
2.54693e-63
1.92652e-64
1.48234e-65
2.50109e-66
7.12415e-67
1.45466e-66
1.64956e-67
8.07964e-68
6.23384e-70
1.16599e-38
4.56163e-40
2.9784e-40
7.93257e-42
6.53036e-42
4.73332e-43
7.26312e-43
4.14267e-44
3.52694e-44
9.77025e-46
4.57601e-46
8.63446e-48
4.47089e-49
1.77929e-52
2.6973e-55
7.52261e-59
1.18192e-62
1.02555e-65
1.5623e-66
2.88525e-67
7.69534e-68
2.40492e-69
1.48582e-70
7.30979e-72
1.1068e-72
1.40048e-73
3.53995e-73
1.61818e-74
4.95757e-75
1.94446e-77
3.18609e-42
9.51759e-44
6.29824e-44
1.18358e-45
1.03983e-45
5.45687e-47
9.25082e-47
3.3309e-48
2.93999e-48
4.82286e-50
2.09828e-50
1.79241e-52
6.34188e-54
1.04355e-57
6.82215e-61
1.73239e-64
2.5856e-68
1.97898e-71
2.52633e-72
3.84477e-73
8.28929e-74
2.33821e-75
1.22356e-76
4.40382e-78
6.24529e-79
2.17516e-80
6.33352e-80
2.06534e-81
4.22401e-82
5.54659e-85
7.8608e-46
1.81056e-47
1.22125e-47
1.61682e-49
1.5325e-49
5.68343e-51
1.07285e-50
2.3994e-52
2.22855e-52
2.11048e-54
8.68098e-55
3.12307e-57
7.63227e-59
9.46557e-63
1.89385e-66
3.63986e-70
4.92337e-74
3.76529e-77
4.1444e-78
5.22485e-79
9.18494e-80
2.38689e-81
1.05871e-82
2.70964e-84
3.22392e-85
4.1816e-87
9.78556e-87
2.65552e-88
3.49791e-89
1.47554e-92
1.75571e-49
3.15279e-51
2.17789e-51
2.03097e-53
2.09636e-53
5.38201e-55
1.14048e-54
1.56202e-56
1.54864e-56
8.2659e-59
3.27074e-59
4.61766e-62
8.44506e-64
1.00294e-67
8.98056e-72
8.97776e-76
9.06463e-80
7.10719e-83
6.86378e-84
7.20919e-85
1.03268e-85
2.51e-87
9.35675e-89
1.76774e-90
1.85711e-91
9.09376e-94
1.45748e-93
3.71715e-95
2.74527e-96
3.72063e-100
3.55503e-53
5.04054e-55
3.5782e-55
2.35424e-57
2.6662e-57
4.65867e-59
1.11715e-58
9.25569e-61
9.92802e-61
2.9225e-63
1.13063e-63
5.93124e-67
8.77009e-69
1.03538e-72
7.21604e-77
4.20118e-81
2.45227e-85
1.37267e-88
1.14541e-89
1.00934e-90
1.18049e-91
2.71251e-93
8.44041e-95
1.22064e-96
1.09074e-97
2.11676e-100
2.21544e-100
5.15493e-102
2.08555e-103
9.01919e-108
6.5363e-57
7.42233e-59
5.42605e-59
2.52784e-61
3.1586e-61
3.7056e-63
1.01335e-62
5.02643e-65
5.90522e-65
9.41633e-68
3.61036e-68
7.03501e-72
8.6551e-74
1.00274e-77
6.48601e-82
3.13937e-86
1.3161e-90
2.90312e-94
1.92135e-95
1.42937e-96
1.36788e-97
2.98926e-99
7.70177e-101
9.06713e-103
6.44494e-104
6.87596e-107
3.98591e-107
7.06369e-109
1.55306e-110
2.13639e-115
1.09296e-60
1.00971e-62
7.60768e-63
2.52356e-65
3.4919e-65
2.72192e-67
8.54969e-67
2.51833e-69
3.27508e-69
2.79594e-72
1.07145e-72
8.82436e-77
8.14263e-79
9.11105e-83
5.59583e-87
2.50417e-91
9.29023e-96
7.69117e-100
3.23654e-101
2.04099e-102
1.60526e-103
3.33645e-105
7.09542e-107
7.07773e-109
3.86438e-110
3.04022e-113
9.81633e-114
9.59878e-116
1.13435e-117
5.06137e-123
1.66427e-64
1.27215e-66
9.87573e-67
2.34999e-69
3.60761e-69
1.85418e-71
6.73283e-71
1.17143e-73
1.70031e-73
7.75926e-77
2.97014e-77
1.38782e-81
7.29982e-84
7.78494e-88
4.51812e-92
1.88975e-96
6.4636e-101
2.82056e-105
5.45914e-107
2.93186e-108
1.90069e-109
3.75294e-111
6.54892e-113
5.77218e-115
2.37069e-116
1.56244e-119
2.90566e-120
1.30137e-122
8.18263e-125
1.25159e-130
2.31229e-68
1.48881e-70
1.18932e-70
2.04899e-73
3.49013e-73
1.17672e-75
4.96674e-75
5.09636e-78
8.29596e-78
2.05248e-81
7.7298e-82
2.64119e-86
6.33231e-89
6.32337e-93
3.42693e-97
1.32993e-101
4.18985e-106
1.30851e-110
9.21208e-113
4.22508e-114
2.26485e-115
4.23991e-117
6.05549e-119
4.82248e-121
1.50484e-122
9.18861e-126
9.41826e-127
1.76605e-129
6.01501e-132
3.47537e-138
2.93803e-72
1.62322e-74
1.33165e-74
1.67917e-77
3.16852e-77
6.98919e-80
3.44373e-79
2.09119e-82
3.81781e-82
5.30651e-86
1.89762e-86
5.39093e-91
5.32465e-94
4.88863e-98
2.44466e-102
8.717e-107
2.50946e-111
6.49409e-116
1.55619e-118
6.09179e-120
2.70801e-121
4.7886e-123
5.60524e-125
4.08677e-127
9.76877e-129
5.59591e-132
3.30413e-133
2.42075e-136
4.51896e-139
1.16714e-145
3.42158e-76
1.65293e-78
1.38901e-78
1.29776e-81
2.70435e-81
3.9016e-84
2.25034e-83
8.16875e-87
1.66205e-86
1.37713e-90
4.4123e-91
1.0888e-95
4.38919e-99
3.61225e-103
1.64341e-107
5.32122e-112
1.38512e-116
3.11784e-121
2.63786e-124
8.76552e-126
3.2394e-127
5.39249e-129
5.18623e-131
3.49946e-133
6.51307e-135
3.44317e-138
1.19299e-139
3.64552e-143
3.37717e-146
4.79219e-153
3.66334e-80
1.57682e-82
1.3533e-82
9.49477e-86
2.17525e-85
2.05694e-88
1.39009e-87
3.07152e-91
6.86653e-91
3.66015e-95
9.75907e-96
2.10793e-100
3.61364e-104
2.56517e-108
1.04266e-112
3.02183e-117
7.0205e-122
1.38626e-126
4.51698e-130
1.25491e-131
3.87008e-133
6.03841e-135
4.78714e-137
3.00345e-139
4.36718e-141
2.15243e-144
4.39996e-146
7.0401e-150
2.51674e-153
2.42586e-160
3.61847e-84
1.41352e-86
1.23513e-86
6.60033e-90
1.6531e-89
1.02932e-92
8.14092e-92
1.12462e-95
2.70035e-95
1.00009e-99
2.06181e-100
3.8735e-105
3.04619e-109
1.76187e-113
6.244e-118
1.59054e-122
3.24496e-127
5.57742e-132
7.8817e-136
1.7811e-137
4.61711e-139
6.7094e-141
4.40212e-143
2.57603e-145
2.92924e-147
1.38071e-150
1.62394e-152
1.81027e-156
2.00327e-160
1.47453e-167
3.30901e-88
1.19398e-90
1.05885e-90
4.37261e-94
1.18958e-93
4.91217e-97
4.53088e-96
4.04872e-100
1.01338e-99
2.77118e-104
4.17583e-105
6.72099e-110
2.69507e-114
1.17967e-118
3.52374e-123
7.7014e-128
1.35091e-132
1.98729e-137
1.40338e-141
2.49902e-143
5.48629e-145
7.37312e-147
4.0311e-149
2.20232e-151
1.95902e-153
8.96995e-157
5.9288e-159
5.13147e-163
1.78569e-167
9.63883e-175
2.81402e-92
9.53392e-95
8.55484e-95
2.76925e-98
8.12807e-98
2.24684e-101
2.4031e-100
1.44187e-104
3.63931e-104
7.61696e-109
8.13932e-110
1.09752e-114
2.52023e-119
7.74534e-124
1.8639e-128
3.38405e-133
4.96188e-138
6.0918e-143
2.50203e-147
3.46064e-149
6.48454e-151
7.99379e-153
3.67542e-155
1.87271e-157
1.30342e-159
5.83838e-163
2.13707e-165
1.52857e-169
1.74229e-174
5.77456e-182
2.2364e-96
7.22052e-99
6.53737e-99
1.68103e-102
5.28837e-102
9.89455e-106
1.21795e-104
5.0777e-109
1.25419e-108
2.02976e-113
1.53258e-114
1.67499e-119
2.42697e-124
4.96556e-129
9.11156e-134
1.31599e-138
1.55177e-143
1.53366e-148
4.26015e-153
4.71994e-155
7.60452e-157
8.53813e-159
3.33443e-161
1.57514e-163
8.65213e-166
3.71399e-169
7.97658e-172
4.74235e-176
1.7644e-181
2.14005e-189
1.66913e-100
5.20171e-103
4.74069e-103
9.79651e-107
3.28451e-106
4.20681e-110
5.91182e-109
1.75352e-113
4.15685e-113
5.12834e-118
2.79651e-119
2.35611e-124
2.26997e-129
3.01308e-134
3.96874e-139
4.30514e-144
3.86471e-149
2.9162e-154
6.51537e-159
6.32273e-161
8.82759e-163
8.97901e-165
3.00576e-167
1.30772e-169
5.7054e-172
2.28133e-175
3.01144e-178
1.41572e-182
1.66739e-188
3.45135e-197
1.17656e-104
3.5764e-107
3.27497e-107
5.48785e-111
1.95306e-110
1.72859e-114
2.75542e-113
5.84915e-118
1.32843e-117
1.19893e-122
4.96095e-124
2.96916e-129
1.89132e-134
1.60457e-139
1.42057e-144
1.06749e-149
6.70143e-155
3.54533e-160
8.69894e-165
8.30812e-167
1.01204e-168
9.30341e-171
2.69549e-173
1.07162e-175
3.75413e-178
1.36087e-181
1.17259e-184
4.06512e-189
1.46776e-195
1.64273e-204
7.87784e-109
2.35425e-111
2.16358e-111
2.95701e-115
1.11511e-114
6.85371e-119
1.23631e-117
1.84754e-122
4.10331e-122
2.51679e-127
8.58138e-129
3.19081e-134
1.2546e-139
6.44615e-145
3.4317e-150
1.54365e-155
5.76175e-161
1.81259e-166
1.11132e-170
1.06884e-172
1.14349e-174
9.48337e-177
2.39482e-179
8.66166e-182
2.4357e-184
7.84126e-188
4.59757e-191
1.12763e-195
1.20193e-202
6.94991e-212
5.03457e-113
1.48746e-115
1.37109e-115
1.53435e-119
6.12684e-119
2.61966e-123
5.34974e-122
5.47963e-127
1.22713e-126
4.72368e-132
1.45032e-133
2.65518e-139
5.45533e-145
1.4249e-150
3.03252e-156
4.89134e-162
6.22005e-168
7.93085e-174
1.55343e-176
1.34378e-178
1.27314e-180
9.56387e-183
2.12292e-185
6.97007e-188
1.57294e-190
4.41182e-194
1.7525e-197
2.80003e-202
9.41406e-210
2.19835e-219
)
;

boundaryField
{
    symmetryAxis
    {
        type            symmetryPlane;
    }
    rightWall
    {
        type            zeroGradient;
    }
    lowerWall
    {
        type            zeroGradient;
    }
    atmosphere
    {
        type            inletOutlet;
        inletValue      uniform 0;
        value           nonuniform List<scalar> 
90
(
0.00438482
0.000631669
1.06443e-05
1.04928e-05
1.02016e-05
7.53729e-08
2.76305e-09
7.10716e-10
5.99502e-10
5.1711e-11
0
0
0
0
0
0
0
0
0
0
0
0
0
0
0
1.168e-99
0
1.82573e-101
0
2.09183e-111
5.03457e-113
1.48746e-115
1.37109e-115
1.53435e-119
6.12684e-119
2.61966e-123
5.34974e-122
5.47963e-127
1.22713e-126
4.72368e-132
1.45032e-133
0
0
0
0
0
0
0
0
0
0
0
0
0
0
0
0
0
0
0
0.000670718
8.94286e-20
0
0
0
0
0
0
0
0
0
0
0
0
0
0
0
0
0
0
0
0
0
0
0
0
0
0
0
0
)
;
    }
    frontAndBack
    {
        type            empty;
    }
    frontAndBack_pos
    {
        type            wedge;
    }
    frontAndBack_neg
    {
        type            wedge;
    }
}


// ************************************************************************* //
