/*--------------------------------*- C++ -*----------------------------------*\
| =========                 |                                                 |
| \\      /  F ield         | OpenFOAM: The Open Source CFD Toolbox           |
|  \\    /   O peration     | Version:  2.4.0                                 |
|   \\  /    A nd           | Web:      www.OpenFOAM.org                      |
|    \\/     M anipulation  |                                                 |
\*---------------------------------------------------------------------------*/
FoamFile
{
    version     2.0;
    format      ascii;
    class       surfaceScalarField;
    location    "0.088";
    object      phi;
}
// * * * * * * * * * * * * * * * * * * * * * * * * * * * * * * * * * * * * * //

dimensions      [0 3 -1 0 0 0 0];

internalField   nonuniform List<scalar> 
7080
(
3.88854e-13
-3.88805e-13
1.29187e-12
-9.02783e-13
2.12607e-12
-8.33816e-13
3.01875e-12
-8.92042e-13
4.01363e-12
-9.94142e-13
5.29828e-12
-1.28364e-12
5.70775e-12
-4.08073e-13
7.07383e-12
-1.36441e-12
5.6305e-12
1.44478e-12
6.35894e-12
-7.27202e-13
1.52444e-12
4.83517e-12
-2.33064e-12
3.85462e-12
-1.29036e-11
1.05717e-11
-2.87094e-11
1.5804e-11
-4.77272e-11
1.90163e-11
-8.68714e-11
3.91437e-11
-1.33099e-10
4.62294e-11
-2.08248e-10
7.51501e-11
-3.30087e-10
1.21848e-10
-4.92117e-10
1.62038e-10
-5.25833e-10
3.373e-11
-4.13802e-10
-1.1202e-10
-1.67181e-10
-2.46599e-10
2.52269e-11
-1.92407e-10
1.20533e-10
-9.52862e-11
1.56835e-10
-3.63085e-11
1.39312e-10
1.75398e-11
1.15417e-10
2.38877e-11
8.14636e-11
3.39661e-11
2.69514e-11
5.45047e-11
-2.33174e-13
-1.55512e-13
-1.01424e-12
-1.21314e-13
-2.54637e-12
6.99284e-13
-4.90958e-12
1.47255e-12
-8.70684e-12
2.80525e-12
-1.27014e-11
2.71423e-12
-1.98245e-11
6.71765e-12
-2.55518e-11
4.36458e-12
-3.88107e-11
1.47057e-11
-4.83515e-11
8.81372e-12
-7.09184e-11
2.7401e-11
-8.90841e-11
2.20167e-11
-1.21597e-10
4.30834e-11
-1.57761e-10
5.19656e-11
-1.9694e-10
5.81949e-11
-2.55563e-10
9.77698e-11
-3.12431e-10
1.03106e-10
-3.93608e-10
1.56334e-10
-5.0425e-10
2.32515e-10
-6.3688e-10
2.94683e-10
-6.07064e-10
3.94817e-12
-4.17998e-10
-3.01073e-10
-1.1764e-10
-5.46917e-10
1.08439e-10
-4.18492e-10
2.03596e-10
-1.90407e-10
2.32179e-10
-6.49049e-11
1.96258e-10
5.34904e-11
1.57906e-10
6.22246e-11
1.09734e-10
8.2157e-11
6.34627e-11
7.3208e-11
-3.12685e-13
1.57265e-13
-1.42512e-12
9.91447e-13
-3.37242e-12
2.64747e-12
-6.00755e-12
4.10893e-12
-1.05529e-11
7.35259e-12
-1.53504e-11
7.51492e-12
-2.45079e-11
1.58774e-11
-3.19247e-11
1.17825e-11
-4.89129e-11
3.16954e-11
-6.10283e-11
2.09287e-11
-8.82272e-11
5.45985e-11
-1.09711e-10
4.3496e-11
-1.46157e-10
7.95285e-11
-1.8541e-10
9.12152e-11
-2.25295e-10
9.80789e-11
-2.83536e-10
1.56014e-10
-3.36599e-10
1.56179e-10
-4.11068e-10
2.30809e-10
-5.15501e-10
3.36971e-10
-6.42305e-10
4.21501e-10
-6.03769e-10
-3.45543e-11
-4.02411e-10
-5.0242e-10
-9.62985e-11
-8.5299e-10
1.31627e-10
-6.46424e-10
2.22336e-10
-2.8108e-10
2.46507e-10
-8.90901e-11
2.06042e-10
9.39843e-11
1.64411e-10
1.0384e-10
1.13933e-10
1.32654e-10
9.87376e-11
7.86434e-11
-7.0356e-14
2.27757e-13
-6.438e-13
1.56533e-12
-2.13733e-12
4.14193e-12
-4.29672e-12
6.26962e-12
-8.58145e-12
1.16392e-11
-1.31076e-11
1.20439e-11
-2.28025e-11
2.55743e-11
-3.02522e-11
1.92328e-11
-4.84129e-11
4.9857e-11
-6.04231e-11
3.29376e-11
-8.884e-11
8.30133e-11
-1.10306e-10
6.49564e-11
-1.47574e-10
1.16795e-10
-1.8703e-10
1.30667e-10
-2.26292e-10
1.3734e-10
-2.83578e-10
2.13302e-10
-3.35769e-10
2.08378e-10
-4.07659e-10
3.02704e-10
-5.15283e-10
4.44617e-10
-6.48165e-10
5.54396e-10
-6.09977e-10
-7.271e-11
-4.01446e-10
-7.10939e-10
-8.91663e-11
-1.16523e-09
1.40373e-10
-8.7597e-10
2.2843e-10
-3.69101e-10
2.49981e-10
-1.10655e-10
2.07808e-10
1.36185e-10
1.65315e-10
1.46319e-10
1.14129e-10
1.83858e-10
1.36253e-10
7.65987e-11
-9.42646e-14
3.22165e-13
-6.2813e-13
2.09967e-12
-2.07015e-12
5.58492e-12
-4.04937e-12
8.25013e-12
-8.33128e-12
1.59229e-11
-1.23681e-11
1.60832e-11
-2.24496e-11
3.56572e-11
-2.91876e-11
2.59709e-11
-4.82879e-11
6.89574e-11
-5.94785e-11
4.4126e-11
-8.89113e-11
1.12443e-10
-1.09726e-10
8.57654e-11
-1.47794e-10
1.5486e-10
-1.87422e-10
1.70292e-10
-2.26298e-10
1.76214e-10
-2.82982e-10
2.69988e-10
-3.34983e-10
2.60387e-10
-4.04676e-10
3.72401e-10
-5.17927e-10
5.5789e-10
-6.60506e-10
6.96988e-10
-6.23198e-10
-1.09985e-10
-4.05363e-10
-9.28763e-10
-8.4045e-11
-1.48651e-09
1.48074e-10
-1.10809e-09
2.33379e-10
-4.54373e-10
2.52211e-10
-1.29501e-10
2.08505e-10
1.79919e-10
1.65342e-10
1.89468e-10
1.1392e-10
2.35299e-10
1.74481e-10
7.56776e-11
-1.47368e-13
4.69679e-13
-7.2728e-13
2.68007e-12
-2.19465e-12
7.05321e-12
-4.05214e-12
1.01088e-11
-8.43946e-12
2.03118e-11
-1.20687e-11
1.97144e-11
-2.26599e-11
4.62491e-11
-2.85902e-11
3.19004e-11
-4.89374e-11
8.93035e-11
-5.89315e-11
5.41168e-11
-8.96342e-11
1.43141e-10
-1.09607e-10
1.05731e-10
-1.48707e-10
1.93957e-10
-1.88728e-10
2.10307e-10
-2.27075e-10
2.14559e-10
-2.83211e-10
3.26125e-10
-3.34844e-10
3.12027e-10
-4.01819e-10
4.3938e-10
-5.22147e-10
6.7824e-10
-6.7729e-10
8.52143e-10
-6.40811e-10
-1.46431e-10
-4.10969e-10
-1.15859e-09
-7.80185e-11
-1.81942e-09
1.57343e-10
-1.34346e-09
2.39184e-10
-5.36181e-10
2.54673e-10
-1.45003e-10
2.09146e-10
2.25474e-10
1.65196e-10
2.33403e-10
1.13628e-10
2.86885e-10
2.12835e-10
7.52592e-11
-1.301e-13
5.9992e-13
-6.28759e-13
3.1792e-12
-2.05542e-12
8.48066e-12
-3.60972e-12
1.1664e-11
-8.294e-12
2.49972e-11
-1.12314e-11
2.26529e-11
-2.29048e-11
5.79224e-11
-2.74158e-11
3.64095e-11
-4.95047e-11
1.1139e-10
-5.82889e-11
6.28963e-11
-9.05138e-11
1.7536e-10
-1.0978e-10
1.24989e-10
-1.50121e-10
2.34294e-10
-1.90852e-10
2.51031e-10
-2.28353e-10
2.52057e-10
-2.8395e-10
3.81723e-10
-3.34862e-10
3.62946e-10
-3.98402e-10
5.02923e-10
-5.27285e-10
8.07145e-10
-6.98152e-10
1.02302e-09
-6.62501e-10
-1.82048e-10
-4.17733e-10
-1.40335e-09
-7.05169e-11
-2.1666e-09
1.68678e-10
-1.58266e-09
2.4618e-10
-6.1365e-10
2.57579e-10
-1.56416e-10
2.09873e-10
2.73207e-10
1.64989e-10
2.78272e-10
1.13275e-10
3.38617e-10
2.51211e-10
7.48852e-11
-2.49709e-13
8.49724e-13
-8.16191e-13
3.74605e-12
-2.18231e-12
9.84731e-12
-3.45147e-12
1.29337e-11
-8.29197e-12
2.98382e-11
-1.08265e-11
2.51877e-11
-2.3358e-11
7.04526e-11
-2.71405e-11
4.0189e-11
-5.12733e-11
1.35519e-10
-5.8568e-11
7.01848e-11
-9.26041e-11
2.09389e-10
-1.10186e-10
1.42561e-10
-1.51945e-10
2.76047e-10
-1.93795e-10
2.92874e-10
-2.30026e-10
2.88285e-10
-2.85095e-10
4.36792e-10
-3.34852e-10
4.1271e-10
-3.94051e-10
5.62124e-10
-5.33094e-10
9.4621e-10
-7.23274e-10
1.21321e-09
-6.88478e-10
-2.16809e-10
-4.2559e-10
-1.66623e-09
-6.13405e-11
-2.53081e-09
1.82245e-10
-1.82625e-09
2.54425e-10
-6.85798e-10
2.60938e-10
-1.62942e-10
2.10689e-10
3.23482e-10
1.64728e-10
3.2422e-10
1.12853e-10
3.90509e-10
2.89575e-10
7.44756e-11
-2.43143e-13
1.0929e-12
-6.23614e-13
4.12679e-12
-1.68677e-12
1.09107e-11
-2.20136e-12
1.34483e-11
-7.5126e-12
3.51494e-11
-8.67813e-12
2.63521e-11
-2.31989e-11
8.49709e-11
-2.43145e-11
4.13003e-11
-5.15727e-11
1.62772e-10
-5.69735e-11
7.55779e-11
-9.27661e-11
2.45173e-10
-1.10676e-10
1.60459e-10
-1.54032e-10
3.19397e-10
-1.97655e-10
3.3649e-10
-2.32083e-10
3.22709e-10
-2.866e-10
4.91307e-10
-3.34687e-10
4.60803e-10
-3.88412e-10
6.15852e-10
-5.39346e-10
1.09716e-09
-7.5292e-10
1.4268e-09
-7.19044e-10
-2.50649e-10
-4.34511e-10
-1.95075e-09
-5.03201e-11
-2.91496e-09
1.98164e-10
-2.07474e-09
2.63921e-10
-7.51524e-10
2.64706e-10
-1.6374e-10
2.1156e-10
3.76652e-10
1.64394e-10
3.71373e-10
1.12346e-10
4.42573e-10
3.27926e-10
7.39822e-11
-1.88906e-13
1.28176e-12
-4.3061e-13
4.36859e-12
-1.58288e-12
1.20627e-11
-2.03456e-12
1.38994e-11
-7.97352e-12
4.10874e-11
-8.65709e-12
2.70335e-11
-2.43243e-11
1.00634e-10
-2.52333e-11
4.22036e-11
-5.5286e-11
1.92817e-10
-5.96065e-11
7.98893e-11
-9.76319e-11
2.83188e-10
-1.11719e-10
1.74533e-10
-1.56849e-10
3.6452e-10
-2.02616e-10
3.82247e-10
-2.34605e-10
3.54694e-10
-2.88537e-10
5.45238e-10
-3.34313e-10
5.06583e-10
-3.81136e-10
6.62677e-10
-5.45893e-10
1.26194e-09
-7.87564e-10
1.66848e-09
-7.54715e-10
-2.8346e-10
-4.44551e-10
-2.2609e-09
-3.72873e-11
-3.32218e-09
2.16607e-10
-2.32864e-09
2.74714e-10
-8.09601e-10
2.68883e-10
-1.57921e-10
2.12487e-10
4.33072e-10
1.63993e-10
4.19855e-10
1.11762e-10
4.9482e-10
3.66261e-10
7.34136e-11
-6.32378e-14
1.34484e-12
-6.24924e-14
4.36789e-12
-1.26389e-12
1.32634e-11
-8.24911e-13
1.34592e-11
-6.90569e-12
4.71668e-11
-4.09095e-12
2.42148e-11
-2.27292e-11
1.19268e-10
-1.8955e-11
3.84227e-11
-5.42635e-11
2.28118e-10
-5.52829e-11
8.08982e-11
-9.48696e-11
3.22764e-10
-1.11824e-10
1.91474e-10
-1.58902e-10
4.1159e-10
-2.08856e-10
4.32192e-10
-2.37556e-10
3.83388e-10
-2.90815e-10
5.98494e-10
-3.33742e-10
5.49514e-10
-3.71862e-10
7.00799e-10
-5.52493e-10
1.44259e-09
-8.27696e-10
1.9437e-09
-7.9604e-10
-3.15077e-10
-4.55731e-10
-2.60119e-09
-2.20746e-11
-3.75579e-09
2.37754e-10
-2.58847e-09
2.86832e-10
-8.58651e-10
2.73437e-10
-1.44538e-10
2.13447e-10
4.93085e-10
1.63517e-10
4.69773e-10
1.11096e-10
5.47257e-10
4.04572e-10
7.27727e-11
3.82255e-14
1.30636e-12
3.84007e-13
4.02198e-12
-6.387e-13
1.4285e-11
7.93961e-13
1.20248e-11
-5.53945e-12
5.3498e-11
-2.81901e-12
2.14892e-11
-2.43659e-11
1.40809e-10
-2.2819e-11
3.68676e-11
-6.23491e-11
2.67638e-10
-6.38635e-11
8.24011e-11
-1.05314e-10
3.64201e-10
-1.14572e-10
2.00718e-10
-1.63948e-10
4.60956e-10
-2.16709e-10
4.84943e-10
-2.41391e-10
4.08063e-10
-2.93982e-10
6.51082e-10
-3.3237e-10
5.87905e-10
-3.59667e-10
7.28096e-10
-5.58811e-10
1.64176e-09
-8.73798e-10
2.2587e-09
-8.43587e-10
-3.45246e-10
-4.68026e-10
-2.97674e-09
-4.69929e-12
-4.21908e-09
2.61782e-10
-2.85496e-09
3.00275e-10
-8.97116e-10
2.78309e-10
-1.22583e-10
2.14397e-10
5.57019e-10
1.62942e-10
5.21217e-10
1.10335e-10
5.99878e-10
4.42841e-10
7.20538e-11
5.39571e-13
7.66441e-13
2.43254e-12
2.12905e-12
2.96614e-12
1.375e-11
8.49431e-12
6.49444e-12
1.16752e-12
6.0822e-11
8.59291e-12
1.40562e-11
-2.07479e-11
1.70143e-10
-1.09241e-11
2.70352e-11
-5.78046e-11
3.14509e-10
-5.39348e-11
7.8519e-11
-9.60585e-11
4.06312e-10
-1.12119e-10
2.16763e-10
-1.63733e-10
5.12559e-10
-2.25938e-10
5.47138e-10
-2.45084e-10
4.27201e-10
-2.96518e-10
7.02511e-10
-3.31806e-10
6.23195e-10
-3.4555e-10
7.4184e-10
-5.64554e-10
1.86078e-09
-9.26613e-10
2.62077e-09
-8.98181e-10
-3.73635e-10
-4.81484e-10
-3.39342e-09
1.76733e-11
-4.71819e-09
2.88949e-10
-3.12623e-09
3.15095e-10
-9.23235e-10
2.8348e-10
-9.09797e-11
2.15327e-10
6.25192e-10
1.62271e-10
5.74262e-10
1.09488e-10
6.52675e-10
4.81063e-10
7.12557e-11
1.02547e-12
-2.5949e-13
5.03301e-12
-1.87834e-12
6.14753e-12
1.26336e-11
1.37129e-11
-1.07386e-12
3.23821e-12
7.12931e-11
1.00503e-11
7.23527e-12
-2.4804e-11
2.04989e-10
-2.07664e-11
2.2988e-11
-7.45296e-11
3.68258e-10
-7.49297e-11
7.89068e-11
-1.17419e-10
4.48787e-10
-1.19183e-10
2.18511e-10
-1.74025e-10
5.6739e-10
-2.38968e-10
6.1207e-10
-2.51284e-10
4.39508e-10
-3.01659e-10
7.52881e-10
-3.27698e-10
6.49233e-10
-3.25068e-10
7.39209e-10
-5.69251e-10
2.10499e-09
-9.86881e-10
3.03842e-09
-9.60721e-10
-3.99749e-10
-4.9611e-10
-3.85801e-09
4.35127e-11
-5.25777e-09
3.19533e-10
-3.40226e-09
3.31308e-10
-9.34984e-10
2.88902e-10
-4.85839e-11
2.16208e-10
6.97906e-10
1.61492e-10
6.28968e-10
1.08552e-10
7.05629e-10
5.1923e-10
7.0374e-11
2.37447e-12
-2.63442e-12
9.4837e-12
-8.98698e-12
1.22878e-11
9.82731e-12
2.58573e-11
-1.46465e-11
1.11495e-11
8.59972e-11
2.84272e-11
-1.00538e-11
-1.8618e-11
2.52027e-10
-6.76852e-13
5.03818e-12
-6.34243e-11
4.30997e-10
-5.56592e-11
7.11285e-11
-9.49525e-11
4.88067e-10
-1.08221e-10
2.31763e-10
-1.66103e-10
6.25261e-10
-2.50739e-10
6.96694e-10
-2.55547e-10
4.44307e-10
-3.04688e-10
8.02014e-10
-3.29087e-10
6.7363e-10
-3.05849e-10
7.15969e-10
-5.72466e-10
2.37162e-09
-1.05548e-09
3.52145e-09
-1.03214e-09
-4.23045e-10
-5.11867e-10
-4.37826e-09
7.31004e-11
-5.84269e-09
3.53807e-10
-3.68296e-09
3.48902e-10
-9.30054e-10
2.9449e-10
5.81764e-12
2.16985e-10
7.7543e-10
1.60581e-10
6.85362e-10
1.07515e-10
7.58708e-10
5.57319e-10
6.94154e-11
5.18444e-12
-7.8192e-12
2.0898e-11
-2.46988e-11
2.11316e-11
9.59138e-12
4.1467e-11
-3.49856e-11
1.86514e-11
1.08809e-10
3.55169e-11
-2.69314e-11
-2.27635e-11
3.10298e-10
-2.07089e-11
2.97474e-12
-9.68463e-11
5.07122e-10
-9.97421e-11
7.40103e-11
-1.35907e-10
5.24217e-10
-1.24773e-10
2.20612e-10
-1.8738e-10
6.87857e-10
-2.73368e-10
7.8267e-10
-2.65261e-10
4.36189e-10
-3.11013e-10
8.47757e-10
-3.18759e-10
6.81372e-10
-2.6782e-10
6.65026e-10
-5.72861e-10
2.67668e-09
-1.13336e-09
4.08196e-09
-1.11375e-09
-4.42603e-10
-5.288e-10
-4.96318e-09
1.07106e-10
-6.47854e-09
3.92146e-10
-3.968e-09
3.67917e-10
-9.05801e-10
3.00204e-10
7.35206e-11
2.17639e-10
8.58013e-10
1.59537e-10
7.43455e-10
1.06383e-10
8.11873e-10
5.95292e-10
6.84014e-11
1.32265e-11
-2.1045e-11
3.9678e-11
-5.11485e-11
3.76849e-11
1.1582e-11
6.89059e-11
-6.621e-11
3.93598e-11
1.38351e-10
7.06162e-11
-5.82031e-11
-1.18641e-11
3.92772e-10
1.03881e-11
-1.92855e-11
-7.73876e-11
5.94886e-10
-6.69118e-11
6.35208e-11
-8.98471e-11
5.47138e-10
-9.2576e-11
2.23325e-10
-1.61486e-10
7.56754e-10
-2.87767e-10
9.08937e-10
-2.71809e-10
4.20219e-10
-3.16014e-10
8.91951e-10
-3.24872e-10
6.90222e-10
-2.43067e-10
5.83217e-10
-5.72987e-10
3.00662e-09
-1.22211e-09
4.7311e-09
-1.20692e-09
-4.5774e-10
-5.46893e-10
-5.62318e-09
1.46214e-10
-7.1716e-09
4.34959e-10
-4.25675e-09
3.88363e-10
-8.59182e-10
3.05963e-10
1.55911e-10
2.1813e-10
9.45863e-10
1.58348e-10
8.03227e-10
1.05155e-10
8.65078e-10
6.33103e-10
6.7335e-11
4.21362e-11
-6.31791e-11
1.18351e-10
-1.27352e-10
7.6093e-11
5.38374e-11
1.12084e-10
-1.02204e-10
5.6282e-11
1.94149e-10
8.44581e-11
-8.63924e-11
-2.42027e-11
5.01426e-10
-3.34137e-11
-1.00833e-11
-1.40564e-10
7.02024e-10
-1.53486e-10
7.64289e-11
-1.64908e-10
5.58546e-10
-1.28508e-10
1.86908e-10
-2.04148e-10
8.32382e-10
-3.25941e-10
1.03072e-09
-2.8427e-10
3.78534e-10
-3.22238e-10
9.29906e-10
-3.05071e-10
6.73044e-10
-1.72856e-10
4.50996e-10
-5.61959e-10
3.39574e-09
-1.32219e-09
5.49135e-09
-1.31326e-09
-4.66617e-10
-5.66134e-10
-6.37028e-09
1.91161e-10
-7.92884e-09
4.82712e-10
-4.5483e-09
4.10202e-10
-7.86651e-10
3.11646e-10
2.54458e-10
2.18389e-10
1.03914e-09
1.56986e-10
8.64621e-10
1.03815e-10
9.1826e-10
6.70704e-10
6.62059e-11
7.2405e-11
-1.35582e-10
2.45122e-10
-3.00043e-10
2.03144e-10
9.58129e-11
2.34337e-10
-1.33399e-10
1.27242e-10
3.01239e-10
1.45262e-10
-1.04429e-10
-4.33047e-12
6.51011e-10
-3.4529e-12
-1.09697e-11
-1.10536e-10
8.09097e-10
-9.71037e-11
6.29823e-11
-7.59001e-11
5.3733e-10
-5.13203e-11
1.62312e-10
-1.42115e-10
9.23162e-10
-3.44623e-10
1.23321e-09
-2.98415e-10
3.3231e-10
-3.3121e-10
9.62686e-10
-3.19286e-10
6.61104e-10
-1.45811e-10
2.77513e-10
-5.61307e-10
3.81125e-09
-1.43723e-09
6.36729e-09
-1.43477e-09
-4.69007e-10
-5.86389e-10
-7.21864e-09
2.42859e-10
-8.75804e-09
5.36138e-10
-4.84157e-09
4.3346e-10
-6.83955e-10
3.17173e-10
3.70738e-10
2.18385e-10
1.13794e-09
1.55452e-10
9.27547e-10
1.02369e-10
9.71352e-10
7.08051e-10
6.50146e-11
-8.12786e-12
-1.27463e-10
1.23019e-10
-4.31171e-10
1.57322e-10
6.15089e-11
3.00365e-10
-2.76441e-10
1.44989e-10
4.56608e-10
1.34389e-10
-9.38347e-11
-7.289e-11
8.58283e-10
-1.05386e-10
2.15139e-11
-2.25255e-10
9.28959e-10
-2.55883e-10
9.35942e-11
-2.10149e-10
4.91584e-10
-1.21186e-10
7.33329e-11
-2.20351e-10
1.02232e-09
-4.05881e-10
1.41872e-09
-3.10346e-10
2.36757e-10
-3.34486e-10
9.86807e-10
-2.85554e-10
6.12152e-10
-2.34769e-11
1.54275e-11
-5.27143e-10
4.31493e-09
-1.56537e-09
7.40553e-09
-1.57354e-09
-4.60768e-10
-6.08004e-10
-8.18415e-09
3.02203e-10
-9.66819e-09
5.96295e-10
-5.13566e-09
4.58114e-10
-5.45756e-10
3.22414e-10
5.0643e-10
2.18061e-10
1.2423e-09
1.5373e-10
9.91872e-10
1.00813e-10
1.02428e-09
7.45102e-10
6.37548e-11
-2.64859e-11
-1.00981e-10
-4.16131e-11
-4.16046e-10
1.21303e-10
-1.01406e-10
3.89882e-10
-5.4501e-10
2.69337e-10
5.77138e-10
2.30835e-10
-5.53546e-11
-6.8406e-11
1.15752e-09
-1.00247e-10
5.33412e-11
-2.04056e-10
1.03276e-09
-1.77294e-10
6.68164e-11
-5.60873e-11
3.70367e-10
4.97516e-11
-3.25195e-11
-9.00802e-11
1.16213e-09
-4.35164e-10
1.76379e-09
-3.43041e-10
1.44613e-10
-3.51527e-10
9.95271e-10
-3.14072e-10
5.74672e-10
4.34526e-12
-3.03001e-10
-5.28555e-10
4.84784e-09
-1.71623e-09
8.59322e-09
-1.73303e-09
-4.43902e-10
-6.30045e-10
-9.28711e-09
3.70616e-10
-1.06688e-08
6.64099e-10
-5.42914e-09
4.84106e-10
-3.65747e-10
3.27205e-10
6.63325e-10
2.17337e-10
1.35218e-09
1.51793e-10
1.05741e-09
9.91344e-11
1.07694e-09
7.81815e-10
6.24158e-11
-5.41404e-11
-4.68478e-11
-1.79109e-10
-2.91084e-10
-2.50879e-10
-2.96324e-11
9.63191e-11
-8.92179e-10
-3.17094e-11
7.05169e-10
4.97459e-11
-1.36809e-10
1.7908e-11
1.18935e-09
-2.35824e-10
3.07057e-10
-3.63133e-10
1.16006e-09
-4.49826e-10
1.5349e-10
-2.78118e-10
1.98649e-10
-6.89632e-11
-2.41689e-10
-2.18437e-10
1.31159e-09
-5.29023e-10
2.07436e-09
-3.48735e-10
-3.56979e-11
-3.45431e-10
9.91942e-10
-2.5897e-10
4.88181e-10
1.84038e-10
-7.4602e-10
-4.58585e-10
5.49047e-09
-1.87983e-09
1.00145e-08
-1.91281e-09
-4.10851e-10
-6.53692e-10
-1.05462e-08
4.48723e-10
-1.17712e-08
7.37848e-10
-5.71825e-09
5.11304e-10
-1.39188e-10
3.31366e-10
8.43256e-10
2.16163e-10
1.4674e-09
1.4964e-10
1.12393e-09
9.7341e-11
1.12925e-09
8.18145e-10
6.10056e-11
4.30063e-11
-8.98393e-11
-1.26558e-10
-1.21518e-10
-1.53716e-10
-2.49008e-12
1.29043e-10
-1.17498e-09
-2.28564e-10
1.06277e-09
-1.60225e-10
-2.05139e-10
-3.22708e-10
1.35182e-09
-3.80345e-10
3.64666e-10
-3.18562e-10
1.09828e-09
-2.99589e-10
1.34496e-10
7.37314e-13
-1.01687e-10
2.8192e-10
-5.22881e-10
2.53557e-11
1.56814e-09
-5.88605e-10
2.6883e-09
-4.19708e-10
-2.04621e-10
-3.76418e-10
9.48624e-10
-3.13011e-10
4.2474e-10
2.08118e-10
-1.26716e-09
-4.60125e-10
6.15872e-09
-2.07876e-09
1.16331e-08
-2.1273e-09
-3.62248e-10
-6.78158e-10
-1.19953e-08
5.39475e-10
-1.29887e-08
8.19164e-10
-5.99794e-09
5.40015e-10
1.39973e-10
3.34849e-10
1.04842e-09
2.14476e-10
1.58778e-09
1.47259e-10
1.19114e-09
9.54314e-11
1.18108e-09
8.54046e-10
5.95251e-11
-1.71745e-10
8.1873e-11
-2.11052e-10
-8.22038e-11
-3.30286e-10
1.1674e-10
4.56114e-11
-1.5509e-09
-1.32146e-11
1.12158e-09
-8.51092e-11
-1.33269e-10
-1.92806e-10
1.45951e-09
-5.07307e-10
6.79146e-10
-7.41738e-10
1.33271e-09
-7.39459e-10
1.32187e-10
-3.44701e-10
-4.96458e-10
8.18736e-11
-9.49467e-10
-1.86701e-10
1.8367e-09
-7.31045e-10
3.23263e-09
-4.11634e-10
-5.2406e-10
-3.5517e-10
8.9213e-10
-2.32268e-10
3.01798e-10
4.80047e-10
-1.97949e-09
-3.41715e-10
6.98049e-09
-2.28941e-09
1.35808e-08
-2.35811e-09
-2.93482e-10
-7.00179e-10
-1.36532e-08
6.42741e-10
-1.43316e-08
9.08113e-10
-6.2633e-09
5.68914e-10
4.79181e-10
3.37027e-10
1.2803e-09
2.12151e-10
1.71266e-09
1.44615e-10
1.25867e-09
9.33922e-11
1.23231e-09
8.89465e-10
5.79698e-11
2.32598e-11
5.86054e-11
-2.4223e-11
-3.47415e-11
-4.17605e-10
5.10098e-10
-3.17349e-10
-1.65118e-09
9.94542e-11
7.04736e-10
3.48518e-11
-6.86819e-11
8.21587e-11
1.4122e-09
1.22666e-10
6.38632e-10
-4.45611e-10
1.90097e-09
-5.78344e-10
2.64882e-10
1.15439e-10
-1.19025e-09
7.62062e-10
-1.59609e-09
2.70526e-10
2.32821e-09
-8.64956e-10
4.36809e-09
-5.55748e-10
-8.333e-10
-3.96163e-10
7.32514e-10
-3.16842e-10
2.22435e-10
5.07971e-10
-2.80432e-09
-3.41147e-10
7.82961e-09
-2.55119e-09
1.57909e-08
-2.6474e-09
-1.9721e-10
-7.32665e-10
-1.55679e-08
7.5944e-10
-1.58237e-08
1.00668e-09
-6.51054e-09
6.00099e-10
8.85771e-10
3.38519e-10
1.54188e-09
2.09237e-10
1.84195e-09
1.41757e-10
1.32615e-09
9.12605e-11
1.28281e-09
9.2436e-10
5.63618e-11
-1.46202e-10
2.04807e-10
-3.67627e-10
1.86577e-10
-7.84203e-11
2.20854e-10
-4.55286e-10
-1.27435e-09
-2.25852e-10
4.75262e-10
-5.52006e-10
2.57496e-10
-5.47057e-10
1.40726e-09
-5.50824e-10
6.42376e-10
-6.911e-10
2.04122e-09
-1.2524e-09
8.26144e-10
-4.04546e-10
-2.03812e-09
4.22589e-10
-2.42324e-09
-8.62642e-11
2.83706e-09
-1.07372e-09
5.35553e-09
-5.09235e-10
-1.39782e-09
-3.46604e-10
5.69852e-10
-2.17559e-10
9.33452e-11
8.91589e-10
-3.91347e-09
-1.57845e-10
8.87905e-09
-2.82431e-09
1.84574e-08
-2.95298e-09
-6.84856e-11
-7.43999e-10
-1.77769e-08
9.05648e-10
-1.74733e-08
1.11833e-09
-6.72321e-09
6.29217e-10
1.37489e-09
3.37366e-10
1.83373e-09
2.05311e-10
1.97401e-09
1.38533e-10
1.39292e-09
8.89383e-11
1.33241e-09
9.5866e-10
5.46352e-11
-3.77261e-11
2.42508e-10
6.42497e-11
8.46137e-11
-2.08327e-10
4.93353e-10
-5.8539e-10
-8.97324e-10
-8.31852e-10
7.21696e-10
-4.04438e-10
-1.69857e-10
-1.78039e-11
1.02061e-09
4.90662e-10
1.33901e-10
4.88236e-10
2.04362e-09
-8.28617e-10
2.14297e-09
5.13717e-11
-2.91813e-09
1.36884e-09
-3.7407e-09
4.48478e-10
3.7574e-09
-1.3186e-09
7.1226e-09
-7.21962e-10
-1.9945e-09
-3.33493e-10
1.81356e-10
-2.80588e-10
4.04023e-11
9.52564e-10
-5.14663e-09
-1.43826e-10
9.97545e-09
-3.15882e-09
2.14724e-08
-3.31889e-09
9.16273e-11
-7.87191e-10
-2.03086e-08
1.04231e-09
-1.93028e-08
1.22904e-09
-6.90994e-09
6.59525e-10
1.94441e-09
3.36825e-10
2.15642e-09
2.01407e-10
2.10943e-09
1.35472e-10
1.45886e-09
8.678e-11
1.3811e-09
9.92405e-10
5.30331e-11
-1.03322e-10
3.45848e-10
-5.35509e-11
3.46918e-11
4.88813e-10
-4.91225e-11
-4.65729e-10
5.71949e-11
-4.75932e-10
7.31762e-10
-9.1928e-11
-5.53854e-10
4.16426e-10
5.12228e-10
1.23989e-10
4.26325e-10
5.86633e-10
1.58095e-09
-8.86167e-10
3.61575e-09
-1.24924e-09
-2.55508e-09
1.1807e-09
-6.17067e-09
1.66979e-09
3.26828e-09
-1.06362e-09
9.856e-09
-1.91667e-10
-2.86649e-09
6.49034e-11
-7.52354e-11
6.40421e-11
4.12352e-11
1.60805e-09
-6.69062e-09
2.86757e-10
1.12968e-08
-3.39032e-09
2.51494e-08
-3.66167e-09
3.63001e-10
-7.52656e-10
-2.32175e-08
1.27703e-09
-2.13325e-08
1.39239e-09
-7.02529e-09
6.95491e-10
2.64131e-09
3.33226e-10
2.51869e-09
1.97142e-10
2.24552e-09
1.32874e-10
1.52312e-09
8.49335e-11
1.42905e-09
1.02582e-09
5.15172e-11
6.27598e-10
-2.81674e-10
2.03251e-09
-1.37019e-09
3.20279e-09
-1.21957e-09
1.45827e-09
1.80172e-09
1.60819e-09
5.8153e-10
2.9279e-09
-1.87375e-09
3.10696e-09
3.33198e-10
3.05463e-09
4.78739e-10
2.78678e-09
1.84877e-09
7.75138e-10
5.6274e-09
-2.1993e-09
4.19295e-10
-1.87967e-09
-6.49044e-09
-5.63016e-10
1.95175e-09
-9.58046e-10
1.0251e-08
1.7532e-09
-5.57778e-09
1.51314e-09
1.64832e-10
1.01647e-09
5.37884e-10
2.08331e-09
-7.75745e-09
5.93671e-10
1.27864e-08
-3.30961e-09
2.90527e-08
-3.62791e-09
6.81252e-10
-5.6835e-10
-2.62771e-08
1.50065e-09
-2.34014e-08
1.53919e-09
-7.06381e-09
7.51546e-10
3.42896e-09
3.54849e-10
2.91538e-09
2.09796e-10
2.39057e-09
1.41819e-10
1.5911e-09
9.05149e-11
1.48035e-09
1.06178e-09
5.45506e-11
-2.55301e-10
-2.66415e-11
3.04314e-09
-4.66826e-09
3.21322e-09
-1.38948e-09
-7.14702e-10
5.72965e-09
-3.24871e-09
3.11527e-09
-1.27947e-09
-3.84282e-09
1.17467e-09
-2.12075e-09
2.57156e-09
-9.18065e-10
2.36141e-09
2.0589e-09
-4.68526e-10
8.45734e-09
-2.47682e-09
2.42758e-09
8.05927e-10
-9.77326e-09
4.5711e-09
-1.81344e-09
7.47495e-09
7.34719e-09
1.09238e-08
-9.02672e-09
8.14078e-09
2.9479e-09
5.81754e-09
2.86107e-09
6.71522e-09
-8.65505e-09
4.86377e-09
1.46378e-08
-1.6006e-09
3.55171e-08
-2.73547e-09
1.81625e-09
6.04864e-10
-2.96175e-08
2.56825e-09
-2.53648e-08
2.13579e-09
-6.63135e-09
1.02337e-09
4.54138e-09
5.08394e-10
3.43035e-09
3.15008e-10
2.58395e-09
2.20191e-10
1.68591e-09
1.41902e-10
1.55864e-09
8.68079e-11
1.11687e-09
4.80193e-11
6.49593e-12
4.30224e-11
4.98188e-12
3.77528e-11
5.28011e-12
3.16491e-11
6.09512e-12
2.65277e-11
5.12514e-12
2.26812e-11
3.84246e-12
1.93335e-11
3.34873e-12
1.64126e-11
2.91906e-12
1.38537e-11
2.55931e-12
1.19569e-11
1.89626e-12
1.02132e-11
1.74415e-12
8.50746e-12
1.70578e-12
7.0707e-12
1.43711e-12
6.08075e-12
9.90114e-13
5.21349e-12
8.67417e-13
4.59511e-12
6.18425e-13
3.8871e-12
7.0802e-13
3.39227e-12
4.94748e-13
3.24706e-12
1.45103e-13
2.94542e-12
3.01491e-13
2.80328e-12
1.41981e-13
2.73385e-12
6.92587e-14
2.73369e-12
2.73101e-17
2.83199e-12
-9.84173e-14
2.54037e-12
2.91557e-13
2.81999e-12
-2.79634e-13
8.85223e-13
1.9348e-12
2.02684e-12
-1.14154e-12
-8.77108e-13
2.90406e-12
-8.76978e-13
6.37507e-11
1.59736e-11
5.6005e-11
1.27048e-11
4.76882e-11
1.36104e-11
3.97312e-11
1.40403e-11
3.41159e-11
1.07448e-11
2.90437e-11
8.90915e-12
2.46685e-11
7.72515e-12
2.10663e-11
6.51916e-12
1.77897e-11
5.83658e-12
1.52399e-11
4.44573e-12
1.29949e-11
3.98988e-12
1.05071e-11
4.19375e-12
8.76126e-12
3.18348e-12
7.63255e-12
2.11901e-12
6.49923e-12
2.00089e-12
5.55724e-12
1.56037e-12
4.83636e-12
1.42881e-12
4.23895e-12
1.09193e-12
3.8671e-12
5.16695e-13
3.56985e-12
5.98445e-13
3.46314e-12
2.48398e-13
3.33413e-12
1.98011e-13
3.40526e-12
-7.12999e-14
3.49156e-12
-1.84839e-13
3.03369e-12
7.494e-13
3.35185e-12
-5.9773e-13
1.16933e-12
4.11746e-12
2.24827e-12
-2.22028e-12
-1.29791e-12
6.45048e-12
-2.17477e-12
6.7654e-11
2.69832e-11
5.48552e-11
2.54817e-11
4.62396e-11
2.22388e-11
4.03506e-11
1.99182e-11
3.50339e-11
1.60655e-11
2.98271e-11
1.41109e-11
2.53117e-11
1.22417e-11
2.17833e-11
1.00455e-11
1.85889e-11
9.03172e-12
1.53021e-11
7.73216e-12
1.25275e-11
6.76512e-12
1.07562e-11
5.96523e-12
9.15748e-12
4.7827e-12
7.8499e-12
3.42678e-12
6.62506e-12
3.22587e-12
5.58278e-12
2.60262e-12
4.97232e-12
2.03918e-12
4.36412e-12
1.69993e-12
3.77062e-12
1.10994e-12
3.52415e-12
8.4464e-13
3.55491e-12
2.1737e-13
3.41683e-12
3.35847e-13
3.56201e-12
-2.16665e-13
3.66083e-12
-2.83777e-13
3.07122e-12
1.33898e-12
3.40993e-12
-9.36369e-13
1.20159e-12
6.32593e-12
2.10844e-12
-3.12695e-12
-1.59198e-12
1.01511e-11
-3.76663e-12
6.60095e-11
3.7592e-11
5.57097e-11
3.57606e-11
4.77357e-11
3.02246e-11
4.10984e-11
2.65453e-11
3.51989e-11
2.19686e-11
2.98878e-11
1.94173e-11
2.53268e-11
1.68037e-11
2.15788e-11
1.37917e-11
1.82665e-11
1.23446e-11
1.52139e-11
1.07844e-11
1.26789e-11
9.30073e-12
1.07875e-11
7.85681e-12
9.21331e-12
6.35734e-12
7.92417e-12
4.71609e-12
6.6567e-12
4.49346e-12
5.65806e-12
3.60123e-12
4.95019e-12
2.74696e-12
4.32661e-12
2.32331e-12
3.88205e-12
1.55428e-12
3.5885e-12
1.13792e-12
3.53803e-12
2.67583e-13
3.41048e-12
4.63162e-13
3.50301e-12
-3.09368e-13
3.54567e-12
-3.2655e-13
3.11959e-12
1.76504e-12
3.45932e-12
-1.27604e-12
1.24262e-12
8.54275e-12
2.33043e-12
-4.21459e-12
-1.61983e-12
1.41016e-11
-5.38635e-12
6.53141e-11
4.79745e-11
5.58747e-11
4.51799e-11
4.81043e-11
3.80062e-11
4.11964e-11
3.34435e-11
3.50641e-11
2.81043e-11
2.97757e-11
2.47013e-11
2.52411e-11
2.13392e-11
2.13693e-11
1.76618e-11
1.80458e-11
1.56687e-11
1.51661e-11
1.36638e-11
1.27056e-11
1.17618e-11
1.08026e-11
9.76001e-12
9.30613e-12
7.85423e-12
7.85979e-12
6.16261e-12
6.602e-12
5.75138e-12
5.64692e-12
4.55627e-12
4.90868e-12
3.48512e-12
4.29669e-12
2.93511e-12
3.89542e-12
1.95533e-12
3.58885e-12
1.44423e-12
3.51835e-12
3.37842e-13
3.39917e-12
5.82123e-13
3.48896e-12
-3.99327e-13
3.49393e-12
-3.31626e-13
3.15949e-12
2.09946e-12
3.49517e-12
-1.61166e-12
1.29343e-12
1.07446e-11
2.47892e-12
-5.39991e-12
-1.8161e-12
1.83968e-11
-7.20235e-12
6.49918e-11
5.82602e-11
5.57359e-11
5.44165e-11
4.7945e-11
4.58077e-11
4.10281e-11
4.03511e-11
3.48403e-11
3.42953e-11
2.96118e-11
2.99255e-11
2.5121e-11
2.58308e-11
2.11386e-11
2.16425e-11
1.78304e-11
1.89774e-11
1.50626e-11
1.64314e-11
1.27037e-11
1.41213e-11
1.08623e-11
1.16016e-11
9.30162e-12
9.41534e-12
7.73193e-12
7.73247e-12
6.52375e-12
6.95968e-12
5.60488e-12
5.47512e-12
4.86188e-12
4.22804e-12
4.28161e-12
3.51519e-12
3.8871e-12
2.34963e-12
3.56439e-12
1.7667e-12
3.49268e-12
4.09311e-13
3.37703e-12
6.97561e-13
3.49783e-12
-5.20281e-13
3.49052e-12
-3.24423e-13
3.22619e-12
2.36376e-12
3.54635e-12
-1.93177e-12
1.37488e-12
1.29162e-11
2.61696e-12
-6.64183e-12
-2.15064e-12
2.31647e-11
-9.35289e-12
6.46871e-11
6.8476e-11
5.55119e-11
6.35732e-11
4.76249e-11
5.37047e-11
4.07094e-11
4.72579e-11
3.45558e-11
4.04517e-11
2.94123e-11
3.50651e-11
2.4986e-11
3.02579e-11
2.09222e-11
2.57048e-11
1.76309e-11
2.22692e-11
1.49302e-11
1.91319e-11
1.26907e-11
1.63613e-11
1.08485e-11
1.3444e-11
9.20959e-12
1.10546e-11
7.62596e-12
9.31627e-12
6.47289e-12
8.11286e-12
5.55821e-12
6.38977e-12
4.80872e-12
4.97744e-12
4.25418e-12
4.06956e-12
3.86689e-12
2.73671e-12
3.53198e-12
2.10137e-12
3.46195e-12
4.79111e-13
3.34462e-12
8.1469e-13
3.51206e-12
-6.87879e-13
3.51123e-12
-3.23696e-13
3.33244e-12
2.54254e-12
3.62853e-12
-2.2278e-12
1.47027e-12
1.50746e-11
2.76862e-12
-7.94002e-12
-2.55042e-12
2.84839e-11
-1.19032e-11
6.4326e-11
7.86427e-11
5.51955e-11
7.26859e-11
4.72229e-11
6.16869e-11
4.03256e-11
5.4147e-11
3.42388e-11
4.65411e-11
2.91318e-11
4.01683e-11
2.47378e-11
3.46525e-11
2.08359e-11
2.96052e-11
1.75169e-11
2.55887e-11
1.47874e-11
2.18611e-11
1.26939e-11
1.84554e-11
1.07739e-11
1.53642e-11
9.05372e-12
1.27752e-11
7.54422e-12
1.08259e-11
6.43248e-12
9.22471e-12
5.52121e-12
7.30102e-12
4.76981e-12
5.72876e-12
4.21738e-12
4.62181e-12
3.8342e-12
3.11969e-12
3.49804e-12
2.4373e-12
3.43567e-12
5.41265e-13
3.313e-12
9.37163e-13
3.52851e-12
-9.0354e-13
3.53404e-12
-3.29323e-13
3.46473e-12
2.61182e-12
3.73145e-12
-2.49447e-12
1.51168e-12
1.72945e-11
2.894e-12
-9.32218e-12
-2.90413e-12
3.42822e-11
-1.48072e-11
6.38672e-11
8.8774e-11
5.47998e-11
8.17364e-11
4.67962e-11
6.96994e-11
3.99321e-11
6.10033e-11
3.39138e-11
5.25619e-11
2.88377e-11
4.52408e-11
2.44896e-11
3.90013e-11
2.06934e-11
3.34001e-11
1.74174e-11
2.8865e-11
1.47028e-11
2.45755e-11
1.25428e-11
2.06158e-11
1.06003e-11
1.73069e-11
8.88919e-12
1.44866e-11
7.4589e-12
1.22564e-11
6.36488e-12
1.03188e-11
5.46527e-12
8.20061e-12
4.72371e-12
6.47024e-12
4.16504e-12
5.18033e-12
3.78797e-12
3.49656e-12
3.45733e-12
2.76771e-12
3.40963e-12
5.88756e-13
3.2825e-12
1.06409e-12
3.54437e-12
-1.16555e-12
3.55276e-12
-3.37807e-13
3.60909e-12
2.55547e-12
3.83874e-12
-2.72406e-12
1.58779e-12
1.95455e-11
3.066e-12
-1.08002e-11
-3.36323e-12
4.07117e-11
-1.81704e-11
6.33215e-11
9.88816e-11
5.43263e-11
9.07155e-11
4.63432e-11
7.76908e-11
3.95204e-11
6.78188e-11
3.35863e-11
5.84982e-11
2.85464e-11
5.02773e-11
2.42231e-11
4.3325e-11
2.04842e-11
3.71377e-11
1.72702e-11
3.20794e-11
1.45921e-11
2.72535e-11
1.23716e-11
2.28368e-11
1.04282e-11
1.92505e-11
8.73019e-12
1.6185e-11
7.3592e-12
1.36275e-11
6.26887e-12
1.14093e-11
5.3879e-12
9.08157e-12
4.67138e-12
7.18669e-12
4.10952e-12
5.74203e-12
3.74204e-12
3.86385e-12
3.41498e-12
3.09455e-12
3.38746e-12
6.16076e-13
3.25713e-12
1.19423e-12
3.55796e-12
-1.46651e-12
3.56725e-12