/*--------------------------------*- C++ -*----------------------------------*\
| =========                 |                                                 |
| \\      /  F ield         | OpenFOAM: The Open Source CFD Toolbox           |
|  \\    /   O peration     | Version:  2.4.0                                 |
|   \\  /    A nd           | Web:      www.OpenFOAM.org                      |
|    \\/     M anipulation  |                                                 |
\*---------------------------------------------------------------------------*/
FoamFile
{
    version     2.0;
    format      ascii;
    class       volScalarField;
    location    "0.121";
    object      p;
}
// * * * * * * * * * * * * * * * * * * * * * * * * * * * * * * * * * * * * * //

dimensions      [1 -1 -2 0 0 0 0];

internalField   nonuniform List<scalar> 
3600
(
105.044
104.519
102.536
99.2347
95.7142
91.8099
88.2408
84.9487
82.5229
81.0011
81.5317
82.6158
85.4275
87.8751
90.3903
92.9596
94.6393
95.9082
97.3428
97.3404
96.5725
95.8908
96.09
96.6216
97.2289
97.813
98.8478
100.248
100.247
99.5566
101.792
101.266
99.2821
95.9767
92.4529
88.5449
84.9738
81.6727
79.2344
77.7001
78.2257
79.3157
82.1227
84.5914
87.1107
89.7315
91.4322
92.7696
93.8855
94.0003
92.9925
92.4077
92.3667
92.8278
93.4903
94.256
95.1511
96.4662
97.9539
97.8867
98.54
98.0178
96.0351
92.7233
89.1935
85.2784
81.7028
78.3845
75.9188
74.3602
74.8733
75.9762
78.772
81.2571
83.816
86.4817
88.1557
89.542
90.5716
90.7821
89.5398
88.4537
88.2319
88.8023
89.7139
90.9281
93.374
96.2436
95.4434
95.3007
95.2911
94.7764
92.7962
89.4747
85.9366
82.0104
78.4279
75.0834
72.5758
70.98
71.4744
72.6
75.3867
77.8837
80.505
83.2003
84.8031
86.2424
87.3542
87.5046
85.9118
84.0757
83.5188
84.12
85.4983
87.1257
88.5562
89.7188
90.1569
90.977
92.0449
91.5413
89.5654
86.2305
82.6822
78.741
75.1491
71.7694
69.2049
67.5584
68.027
69.1862
72.0126
74.5026
77.1625
79.8767
81.3843
82.8333
83.8884
84.4143
82.0044
79.6041
78.5403
79.0771
80.8104
82.8963
84.6044
85.7761
86.6025
87.212
88.8013
88.3127
86.3428
82.991
79.4305
75.4701
71.8669
68.4427
65.8059
64.0936
64.5269
65.7261
68.6572
71.1442
73.7784
76.5173
77.9879
79.4701
80.4089
80.757
78.4211
75.811
74.5819
75.1356
76.8027
79.0248
80.7415
81.8553
82.6803
83.1183
85.5601
85.0905
83.1284
79.7562
76.1811
72.1979
68.5817
65.1033
62.3787
60.5851
60.9715
62.2044
65.2698
67.8173
70.4625
73.1407
74.6707
76.1833
76.9475
77.1833
75.2497
72.7749
71.8285
72.238
73.6922
75.8151
77.5471
78.6246
79.3294
79.7149
82.3214
81.8748
79.9221
76.5261
72.9343
68.9245
65.2942
61.7515
58.9232
57.0329
57.3599
58.6146
61.8138
64.4897
67.2415
69.8179
71.4541
72.9573
73.5468
73.8952
72.443
70.3431
69.4104
69.9793
71.4342
73.194
74.8601
75.8888
76.4345
76.7306
79.0848
78.6655
76.7241
73.3007
69.6898
65.6499
62.0054
58.3873
55.4392
53.4373
53.6901
54.9973
58.2875
61.1256
64.0836
66.5893
68.2623
69.7402
70.2812
70.8528
69.962
68.5447
67.8098
68.0019
69.3009
71.027
72.4846
73.3692
73.6832
73.8041
75.8504
75.4625
73.5342
70.0802
66.4477
62.3741
58.7161
55.0109
51.9269
49.7951
49.9569
51.3529
54.713
57.7201
60.8854
63.4022
65.056
66.5755
67.1776
67.7767
67.4587
66.6406
66.3276
66.4321
67.6026
68.992
70.0841
70.7521
71.037
71.0695
72.6177
72.266
70.3526
66.8647
63.2079
59.0973
55.4275
51.6225
48.3865
46.1027
46.153
47.6564
51.0937
54.2815
57.6483
60.2642
61.9233
63.5
64.1008
64.7128
64.7558
64.1865
64.5138
65.0775
65.8247
66.9527
67.6626
68.1749
68.5727
68.6016
69.3868
69.0757
67.1793
63.6539
59.9706
55.8196
52.1407
48.2221
44.8179
42.358
42.2728
43.8853
47.4282
50.8134
54.3797
57.2097
58.8625
60.4394
61.0987
61.6782
61.6777
61.5836
62.1075
63.142
63.9714
64.5762
65.1319
65.6723
66.171
66.335
66.1571
65.8917
64.0143
60.4481
56.7356
52.5412
48.8567
44.8102
41.2218
38.56
38.3058
40.0461
43.7172
47.3219
51.1207
54.2144
55.8621
57.3833
58.221
58.8691
59.1001
59.1616
59.7186
60.5468
61.0456
61.1487
61.9198
63.2605
63.7763
63.482
62.9286
62.714
60.8578
57.2562
53.4928
49.2623
45.5768
41.3867
37.5992
34.7051
34.2415
36.1429
39.9596
43.8015
47.9052
51.2536
52.8904
54.4391
55.2841
55.9413
56.0957
56.3632
57.156
58.4523
59.1203
58.7944
58.5
58.9759
59.6549
59.8167
59.7007
59.5425
57.7097
54.0742
50.2468
45.9833
42.3022
37.9518
33.9516
30.7892
30.0654
32.176
36.1424
40.2482
44.6724
48.3516
49.9847
51.4373
52.4866
53.1653
53.3833
53.4806
54.5317
55.3271
55.2613
55.2164
55.2091
54.9009
55.2729
56.6396
56.4732
56.3772
54.5702
50.9013
46.9982
42.7047
39.0343
34.5055
30.281
26.8093
25.8614
28.1235
32.2435
36.6645
41.4862
45.5196
47.1351
48.4201
49.5106
50.3158
50.8197
51.3504
51.9073
52.3971
52.2108
51.903
52.2216
52.829
53.8939
55.6499
53.2456
53.2179
51.4393
47.7376
43.7471
39.427
35.7747
31.0477
26.5893
22.7667
21.4447
23.9519
28.2597
32.8255
38.2869
42.7927
44.2769
45.4033
46.525
47.1679
47.5635
48.1436
49.0588
49.3914
49.1889
48.8826
49.6037
50.8496
52.1369
53.3447
50.0174
50.0646
48.317
44.5831
40.4931
36.1505
32.5251
27.5781
22.8799
18.6659
16.8424
19.6614
24.3268
29.1103
35.0427
40.1009
41.5065
42.4496
44.1303
44.8776
45.4197
45.4728
45.9777
46.1962
46.1724
45.8825
46.6213
47.9734
48.7106
49.41
46.7882
46.9171
45.2036
41.4383
37.2356
32.8758
29.2876
24.0961
19.1593
14.5059
12.0449
15.3206
19.9371
24.7372
31.7712
37.7835
38.8498
39.4457
40.8702
41.5661
41.7597
41.8076
42.4857
42.7526
42.8304
43.3634
44.1695
45.1484
45.8471
46.3853
43.5573
43.7754
42.0991
38.3036
33.9741
29.6033
26.0645
20.6009
15.4367
10.2934
7.04657
10.9608
16.4972
20.9201
28.42
35.3856
36.239
36.2206
38.039
38.9298
38.1431
37.8001
38.7586
39.5337
40.3808
41.6279
42.4499
42.7614
43.357
43.7878
40.324
40.6393
39.0036
35.1793
30.7077
26.3332
22.8588
17.0922
11.7319
6.0526
1.81929
6.24636
11.4372
16.2732
25.0778
33.4934
33.4899
33.2945
34.3871
35.4817
33.8831
33.0345
35.5691
36.4955
38.1641
39.6287
40.3187
40.1923
40.4986
40.8547
37.0878
37.5087
35.9174
32.0661
27.4354
23.0658
19.6742
13.5827
8.07838
1.78181
-3.64003
5.60975
9.5181
11.0893
20.9015
31.8148
30.8643
29.9124
30.8068
32.4528
30.7792
28.9999
32.3085
33.0879
36.0793
37.5338
37.7967
37.7112
37.7835
38.1265
33.8474
34.3826
32.8405
28.9646
24.1564
19.8012
16.5152
10.1176
4.49272
-1.44545
-4.13302
3.17477
6.82025
8.08112
19.043
28.9569
29.0084
27.6107
27.4277
29.3106
26.0772
26.2376
29.1764
30.6397
33.8302
35.2301
35.5775
35.5755
35.4953
35.6398
30.6033
31.2919
29.7732
25.8756
20.8692
16.5395
13.3855
6.68391
1.11799
-0.708187
-0.609697
2.22527
3.65307
6.44677
15.0723
25.4704
24.8795
24.7912
23.9755
25.1194
20.3634
21.8063
26.2704
28.2775
31.1137
32.8054
33.3818
33.2453
33.0154
33.0812
27.3511
28.0597
26.716
22.7998
17.5728
13.2802
10.2642
2.89981
-0.256307
0.0813979
-0.00936547
-0.19614
2.33499
2.22945
12.0063
21.0641
22.3033
23.0918
24.0922
23.2174
13.8145
16.3848
23.6636
25.6119
28.2417
29.982
30.6519
30.5648
30.3694
30.4456
24.0954
25.1889
23.6689
19.7384
14.2653
10.0162
7.15201
-0.801116
-0.0920333
0.064502
0.0415409
0.0300292
-0.26452
-2.5096
8.19055
17.9191
19.4145
18.8194
21.6741
19.1685
7.09242
9.73015
20.5015
22.7523
25.1287
26.621
27.39
27.631
27.7051
27.8098
20.8299
21.7249
20.6322
16.692
10.9457
6.68114
2.49741
-0.915082
-0.0236106
0.0164104
-0.0468622
-0.101993
-0.397146
-2.11645
4.60258
14.761
15.9732
15.2036
16.9137
14.3981
1.51749
6.56755
18.0006
20.6738
21.9904
23.2374
24.0515
24.5897
24.8929
25.0891
17.5386
19.06
17.6071
13.6604
7.6224
3.10546
-0.524961
-0.0462899
-0.0330495
-0.0182496
-0.0646603
-0.103343
-0.0969805
-0.644793
1.87748
12.0393
12.3354
11.6353
12.4341
9.06365
-1.37201
4.48926
16.0841
19.0945
19.3038
20.1149
20.8783
21.5018
21.8401
22.0612
14.3072
15.63
14.602
10.6423
4.27217
-0.739386
-0.403404
-0.0578406
-0.0389306
-0.0543315
-0.0739928
-0.115841
-0.185346
-0.467239
0.230794
6.49647
8.87407
8.01789
7.99534
4.47272
-1.83235
6.52056
14.6743
17.6478
17.2123
17.4893
17.8654
18.4325
18.6513
18.7997
10.9529
12.7812
11.5997
7.6285
0.696256
-2.18355
-0.150972
-0.0674529
-0.042802
-0.0738475
-0.0779089
-0.136917
-0.241693
-0.427606
-0.158887
1.0364
4.41997
3.99773
3.45159
0.396785
-1.02407
10.5319
11.9465
13.2483
15.4468
15.5225
14.7226
15.5545
15.3745
15.5736
99.5865
100.341
100.316
98.8476
97.7801
97.1909
96.5009
95.8771
95.5741
96.1759
96.8615
96.8029
95.2979
93.9387
92.1892
89.5546
87.0746
84.7462
82.006
81.1194
80.7664
82.4593
84.9505
88.2713
91.8393
95.7379
99.2459
102.534
104.499
105.015
97.8418
97.9781
96.5131
95.1056
94.2089
93.4412
92.7081
92.1425
92.0899
92.5986
93.5243
93.3565
92.1567
90.7275
88.9515
86.2728
83.7879
81.4411
78.7045
77.8141
77.4661
79.1725
81.6753
85.0046
88.5743
92.4767
95.9879
99.2792
101.245
101.762
95.2999
95.44
96.2673
93.2465
90.8844
89.641
88.6661
87.9956
88.118
89.136
90.3092
90.0348
88.9224
87.4407
85.6878
82.9686
80.4473
78.0907
75.3619
74.4631
74.1277
75.8604
78.3883
81.7344
85.3078
89.2173
92.7346
96.0322
97.9974
98.5107
90.9527
90.095
89.6681
88.5331
87.0852
85.4068
83.9522
83.2639
83.7357
85.4866
87.035
86.8087
85.6119
84.0717
82.3873
79.6406
77.0648
74.7063
71.9811
71.0664
70.7498
72.5227
75.0892
78.4605
82.0398
85.9604
89.486
92.7933
94.7559
95.2617
87.2176
86.5786
85.7513
84.5812
82.8592
80.7163
78.8948
78.2709
79.2329
81.5724
83.9006
83.3414
82.1854
80.6318
79.0383
76.2733
73.6723
71.3342
68.561
67.6219
67.3312
69.159
71.778
75.1832
78.7704
82.7061
86.242
89.5626
91.5207
92.0153
83.1194
82.6799
81.8579
80.7435
79.0188
76.7334
74.9753
74.3434
75.4294
77.9588
80.2982
79.8261
78.7992
77.2089
75.6454
72.8604
70.3004
67.9802
65.0926
64.1258
63.8702
65.7692
68.4547
71.9026
75.4995
79.4543
83.0025
86.3401
88.2919
88.7715
79.7324
79.3379
78.6381
77.5619
75.828
73.6609
72.1392
71.6112
72.4318
74.7957
76.7047
76.3583
75.4881
73.8607
72.2256
69.5123
66.9585
64.593
61.5609
60.5754
60.3661
62.353
65.1196
68.6195
72.2274
76.2051
79.7678
83.1257
85.0695
85.5301
76.7452
76.4436
75.9063
74.888
73.1945
71.4168
69.8946
69.2247
70.0396
72.0207
73.4139
72.9533
72.2377
70.6058
68.8503
66.2513
63.6146
61.1401
57.9625
56.9705
56.819
58.9103
61.7727
65.3344
68.9539
72.9583
76.5378
79.9196
81.8535
82.291
73.8061
73.679
73.3842
72.4978
70.9902
69.2796
67.9027
67.6217
68.2457
69.5802
70.391
69.6798
68.9947
67.3746
65.5585
63.0441
60.2329
57.6244
54.3303
53.3091
53.2286
55.4411
58.4144
62.048
65.6791
69.7139
73.3126
76.7216
78.6439
79.0542
71.0506
70.9906
70.6921
70.027
68.9374
67.5629
66.4205
66.2353
66.4737
67.1253
67.3421
66.5676
65.8022
64.1217
62.305
59.778
56.8102
54.0693
50.6682
49.5866
49.5917
51.9455
55.0449
58.7614
62.4032
66.472
70.0922
73.5319
75.4406
75.8194
68.5799
68.456
68.0209
67.59
66.9202
65.7925
65.0677
64.4472
63.9826
64.4512
64.293
63.4925
62.7079
60.9389
59.081
56.4592
53.3549
50.4788
46.9484
45.7961
45.9039
48.4235
51.6644
55.4755
59.1262
63.2323
66.8767
70.3505
72.2436
72.5864
66.3035
65.9713
65.4436
64.9999
64.4609
63.8902
63.1523
62.1116
61.4911
61.4799
61.2814
60.4955
59.6307
57.8168
55.9349
53.0783
49.8763
46.8538
43.1518
41.933
42.1623
44.8751
48.2733
52.1913
55.8482
59.9951
63.666
67.1773
69.053
69.3549
63.4679
63.6764
63.1762
61.9571
61.2634
61.1262
60.6546
59.8073
59.0646
58.8507
58.4709
57.6071
56.567
54.762
52.8032
49.6997
46.3761
43.2051
39.2821
37.9879
38.3647
41.3006
44.8721
48.9099
52.5695
56.7603
60.4602
64.0125
65.8686
66.1248
59.7232
59.5024
58.8339
58.4057
58.6389
59.117
58.7859
57.3411
56.3058
55.9964
55.5639
54.7162
53.5805
51.7022
49.693
46.3193
42.8614
39.5337
35.3393
33.9513
34.5064
37.7009
41.461
45.6323
49.2903
53.518
57.268
60.8561
62.6903
62.8957
56.5245
55.4079
55.1931
55.7392
55.5485
55.6381
55.5303
54.6649
53.6195
53.3913
52.7702
51.8568
50.5897
48.7449
46.6139
42.9097
39.318
35.8355
31.3167
29.8109
30.5812
34.0776
38.0406
42.3595
46.0109
50.2723
54.086
57.7082
59.5183
59.6673
55.6101
54.1337
53.1504
52.4771
52.2549
52.7772
52.9157
52.1447
51.0969
50.5583
49.8244
48.9576
47.5164
45.8101
43.5356
39.4499
35.7556
32.0962
27.1962
25.5581
26.5837
30.4324
34.6112
39.0929
42.7318
47.024
50.9131
54.5688
56.3523
56.4392
53.2698
52.0752
50.8505
49.55
48.9326
49.3824
49.8529
49.5076
48.2885
48.1788
46.9481
45.814
44.4565
42.9277
40.5893
35.933
32.0024
28.3829
22.9535
21.176
22.5145
26.7669
31.1729
35.8338
39.4534
43.773
47.7494
51.4381
53.1923
53.211
49.3785
48.6591
47.8643
46.3648
45.8151
46.5466
47.2785
46.7341
45.2516
45.0749
44.1151
42.9829
41.4821
40.2047
37.6184
32.3757
28.4185
24.7772
18.5785
16.6282
18.3745
23.0849
27.7255
32.584
36.1762
40.5191
44.595
48.3162
50.0383
49.9822
46.3664
45.7983
45.0815
44.0334
43.4196
43.1276
43.4214
43.5236
42.3516
42.7125
41.2424
40.3039
39.282
37.4336
34.6955
28.6021
24.3506
21.0803
14.0942
11.8829
14.1574
19.3932
24.2685
29.3453
32.9003
37.2618
41.4504
45.203
46.8901
46.7522
43.7908
43.3875
42.8207
42.5804
41.8411
40.8517
40.4493
40.0421
38.7382
38.8845
38.2181
37.2188
36.1164
34.6407
31.8812
24.7704
20.8152
17.9748
9.45278
6.93419
9.86606
15.7021
20.8013
26.1201
29.6261
34.0003
38.3158
42.0987
43.7476
43.5206
40.87
40.5665
40.2894
40.4763
39.7986
38.4304
37.4126
37.1136
34.5076
36.3701
35.32
33.5948
32.9919
31.8599
28.9628
20.8682
16.362
13.7178
4.78158
2.12546
5.53373
12.0359
17.3244
22.9111
26.3537
30.7339
35.1919
39.0036
40.6107
40.2865
38.117
37.8822
37.8185
38.057
37.7748
36.349
34.4638
34.1694
33.1995
31.5494
31.3312
31.2494
30.395
29.1948
25.9172
15.9183
15.5024
13.7287
0.417594
-4.17773
1.16026
8.45491
13.8473
19.7219
23.0831
27.4617
32.079
35.9176
37.4791
37.0495
35.6443
35.5395
35.5974
35.6892
35.5828
34.2662
32.1421
30.4866
29.3632
25.782
28.0988
27.7395
27.885
26.7435
23.3739
13.2607
10.5891
11.0966
1.03132
-4.18846
-1.75608
4.98574
10.398
16.5571
19.8143
24.1827
28.978
32.8412
34.352
33.8082
33.0953
33.061
33.257
33.5792
33.2391
31.6978
29.6677
27.4152
23.7295
20.8675
26.8345
25.3758
25.3124
24.4285
19.9151
10.5787
7.24165
8.95218
0.805049
-1.83117
0.152709
1.52893
6.97382
13.4197
16.5469
20.8957
25.8895
29.7743
31.2598
30.5633
30.4906
30.388
30.6643
30.9323
30.6574
29.0206
27.0602
24.5585
18.8045
17.4943
24.8244
24.6796
23.0197
21.6241
16.8428
7.30315
2.73679
5.19096
0.446454
-0.285439
0.0361393
-0.115469
3.26212
10.2874
13.2801
17.5997
22.8143
26.7175
28.0276
27.3102
27.8574
27.7382
27.8209
27.8233
27.6257
26.0665
24.1974
21.4444
13.8257
12.655
24.276
23.3962
21.0502
18.5235
13.7259
4.41975
-1.6948
0.902701
-0.0134454
-0.155968
0.327665
0.157849
-0.732703
7.14368
10.0073
14.2928
19.7536
23.6709
25.1536
24.0536
25.1592
25.0152
24.8699
24.5781
24.1514
22.8948
21.758
18.6542
9.83913
7.5943
18.6609
20.3497
17.0515
14.9294
10.7746
0.196872
-2.09822
-0.280208
-0.280842
-0.16397
0.227684
0.0612967
-0.87018
2.56008
6.6672
10.9741
16.708
20.6348
21.6906
20.787
22.1171
21.9951
21.7886
21.3158
20.8236
19.853
19.5652
16.1248
5.29521
4.014
15.538
16.071
13.0928
11.5546
7.8535
-1.03889
-0.773107
-0.207054
-0.235969
-0.161101
0.140291
0.0508444
-0.0558121
-0.466194
3.10128
7.65232
13.6772
17.6103
19.0219
17.4949
18.8323
18.7383
18.6168
18.0822
17.8534
17.2274
17.5086
13.3255
4.70318
1.66676
9.0785
11.6854
9.51564
8.14654
1.94112
-0.97351
-0.324604
-0.225488
-0.231165
-0.164293
0.0640098
0.0451256
-0.0519263
-0.354946
-0.748208
4.30406
10.6599
14.6058
15.5911
14.2623
15.6533
15.3777
15.5128
14.7715
14.9495
14.7549
11.2078
8.67806
5.18484
0.8021
5.3086
7.37898
6.14343
4.58509
-0.3109
-0.62059
-0.368435
-0.266141
-0.25869
-0.16732
0.00689737
0.0271092
-0.0652947
-0.11725
-2.13408
0.734185
7.64666
11.6041
12.7396
10.9066
8.56726
10.3357
9.33596
5.07241
-1.5083
-0.262467
-0.146973
-0.0676406
-0.046422
-0.0984739
-0.0803725
-0.156683
-0.266773
-0.387281
-0.100902
-0.109755
0.370385
0.347619
-0.470945
-3.53906
0.754027
12.4994
8.30387
8.43124
13.6458
13.5541
12.5226
13.3422
13.0048
13.8491
6.95805
8.70317
7.76174
2.62299
-1.62992
-0.0766713
-0.146189
-0.0694104
-0.05074
-0.113126
-0.0829611
-0.174241
-0.2801
-0.367341
-0.106828
-0.1315
-0.133979
-0.44824
-1.87263
-6.15128
1.69264
12.6217
7.0692
5.85378
11.9479
12.2012
11.0995
11.7533
11.3037
12.0512
5.27716
6.93588
5.94347
0.430359
-0.364022
-0.0703979
-0.145925
-0.072571
-0.0562783
-0.128003
-0.0870989
-0.192997
-0.291776
-0.349864
-0.117425
-0.124256
-0.134468
-0.122802
-0.227615
-3.51304
0.798806
9.66693
8.71291
5.42288
10.4144
10.7343
9.38395
9.92581
9.45342
9.83408
3.50041
4.91355
4.24643
-1.13329
-0.119274
-0.0738671
-0.144293
-0.0762076
-0.0627302
-0.142269
-0.0924045
-0.209651
-0.303471
-0.33424
-0.126072
-0.123111
-0.141659
-0.138813
-0.115197
-0.470898
-1.13353
7.80895
16.1578
5.24318
9.03034
8.70485
7.5079
8.01673
7.42535
7.78427
1.72123
2.7791
2.53568
-0.121149
-0.104917
-0.079793
-0.142703
-0.080098
-0.0698451
-0.153547
-0.0982824
-0.224994
-0.301873
-0.319992
-0.130662
-0.122096
-0.147083
-0.143644
-0.118385
-0.0681424
-0.41234
5.34491
20.7126
4.06667
6.79693
6.54916
5.46203
5.74783
5.06709
5.27226
0.415398
0.658484
0.408172
0.028999
-0.1018
-0.0851459
-0.141318
-0.0841137
-0.0773749
-0.158368
-0.10312
-0.236822
-0.299097
-0.305676
-0.137885
-0.125308
-0.170685
-0.152616
-0.12041
-0.0514265
-0.0124147
0.230623
14.6439
0.331272
3.92466
3.06915
3.1227
3.10393
2.54103
2.70579
-0.110955
-0.092807
-0.0985485
-0.076214
-0.103466
-0.091102
-0.139982
-0.0883221
-0.0850244
-0.1538
-0.106565
-0.238923
-0.297939
-0.289654
-0.145822
-0.131838
-0.169412
-0.151859
-0.119391
-0.0563785
-0.00869389
0.207441
-0.492188
-0.189547
0.22205
-0.0886393
0.147221
0.114361
0.159776
0.101336
-0.111254
-0.116975
-0.0984883
-0.0831431
-0.104758
-0.0965287
-0.13852
-0.0927243
-0.0926762
-0.144021
-0.110274
-0.227231
-0.280726
-0.272799
-0.153815
-0.138408
-0.166964
-0.148857
-0.116169
-0.0660955
-0.0354346
0.113994
-0.293972
-0.173646
-0.166915
-0.141885
-0.13833
-0.133134
-0.134274
-0.134088
-0.114454
-0.120211
-0.103882
-0.0893361
-0.106264
-0.101874
-0.137295
-0.0974072
-0.100333
-0.134757
-0.118904
-0.208417
-0.260395
-0.255144
-0.161151
-0.142201
-0.160971
-0.141001
-0.114072
-0.0835298
-0.0624523
-0.0698236
-0.148581
-0.161043
-0.154771
-0.1431
-0.137798
-0.135361
-0.135152
-0.135597
-0.117844
-0.123724
-0.108726
-0.0961993
-0.108154
-0.107196
-0.136501
-0.102443
-0.107976
-0.12974
-0.133514
-0.191891
-0.240113
-0.237333
-0.167434
-0.147039
-0.153623
-0.133054
-0.114739
-0.0891853
-0.0736851
-0.0943817
-0.155778
-0.155072
-0.149045
-0.14256
-0.139302
-0.137825
-0.137886
-0.138571
-0.121469
-0.127521
-0.113872
-0.102687
-0.110521
-0.112528
-0.136253
-0.107869
-0.115666
-0.12876
-0.150646
-0.182507
-0.22314
-0.220562
-0.172219
-0.151988
-0.150457
-0.13036
-0.113592
-0.0896354
-0.0910482
-0.0970956
-0.126781
-0.140016
-0.141756
-0.140717
-0.138931
-0.138365
-0.138636
-0.139351
-0.125349
-0.131568
-0.11922
-0.109297
-0.113419
-0.117881
-0.136625
-0.113687
-0.123353
-0.130344
-0.168947
-0.17901
-0.210364
-0.205445
-0.174544
-0.156511
-0.145727
-0.132076
-0.119089
-0.102681
-0.106545
-0.112766
-0.128002
-0.13547
-0.117914
-0.137999
-0.137116
-0.13744
-0.137888
-0.138555
-0.129591
-0.135794
-0.12458
-0.115782
-0.116891
-0.12328
-0.137674
-0.119869
-0.130874
-0.133786
-0.18977
-0.181605
-0.201976
-0.190681
-0.173526
-0.159044
-0.14634
-0.135266
-0.129122
-0.121234
-0.117623
-0.118982
-0.127465
-0.134128
-0.101021
-0.134228
-0.133167
-0.134923
-0.136415
-0.137042
-0.134157
-0.139899
-0.130155
-0.122103
-0.120983
-0.128758
-0.139466
-0.126357
-0.137958
-0.138605
-0.206944
-0.189519
-0.196672
-0.175376
-0.169883
-0.160629
-0.152398
-0.134669
-0.135749
-0.129699
-0.126219
-0.125551
-0.129732
-0.134899
-0.102992
-0.1327
-0.12902
-0.13167
-0.135305
-0.136232
-0.139124
-0.144338
-0.135815
-0.128339
-0.125747
-0.134353
-0.142069
-0.133068
-0.14434
-0.14409
-0.213478
-0.193592
-0.188625
-0.165336
-0.165347
-0.161554
-0.142698
-0.146786
-0.141278
-0.137229
-0.134247
-0.131237
-0.133106
-0.135789
-0.11436
-0.126449
-0.129056
-0.128395
-0.1324
-0.13308
-0.144532
-0.148877
-0.14135
-0.134615
-0.131213
-0.140117
-0.14554
-0.139923
-0.149994
-0.149685
-0.204859
-0.185695
-0.172514
-0.166208
-0.162583
-0.153345
-0.132179
-0.155969
-0.147385
-0.144612
-0.139829
-0.139322
-0.135544
-0.127954
-0.124621
-0.132756
-0.133073
-0.132338
-0.131628
-0.132102
-0.150376
-0.153495
-0.147019
-0.141014
-0.137398
-0.146111
-0.149904
-0.146886
-0.155241
-0.155224
-0.190286
-0.172784
-0.152226
-0.169408
-0.162842
-0.12124
-0.155144
-0.159152
-0.15282
-0.150248
-0.141358
-0.14187
-0.143039
-0.145392
-0.132699
-0.132311
-0.139074
-0.138071
-0.136788
-0.130959
-0.156676
-0.158565
-0.153063
-0.147714
-0.144315
-0.15241
-0.155156
-0.153985
-0.160541
-0.160881
-0.17904
-0.166399
-0.139214
-0.168494
-0.108159
-0.130082
-0.161827
-0.163046
-0.158965
-0.156928
-0.155396
-0.149222
-0.151047
-0.151295
-0.155463
-0.128799
-0.146968
-0.141676
-0.13325
-0.146092
-0.163461
-0.164214
-0.159654
-0.154907
-0.151957
-0.159104
-0.161263
-0.161301
-0.166257
-0.166778
-0.174997
-0.167703
-0.138707
-0.165689
-0.164409
-0.159653
-0.169393
-0.168263
-0.165896
-0.16456
-0.163999
-0.163745
-0.163698
-0.162833
-0.164364
-0.164673
-0.163512
-0.163008
-0.121901
-0.138823
-0.170767
-0.17058
-0.16691
-0.162712
-0.16031
-0.166303
-0.168193
-0.168936
-0.172595
-0.173076
-0.176349
-0.171868
-0.147791
-0.167811
-0.173839
-0.171311
-0.174094
-0.174453
-0.17357
-0.172744
-0.17223
-0.172039
-0.171894
-0.171663
-0.172238
-0.174883
-0.179048
-0.182729
-0.144353
-0.148329
-0.178642
-0.177759
-0.174896
-0.171182
-0.169357
-0.174131
-0.175917
-0.177006
-0.179662
-0.180012
-0.180816
-0.177962
-0.160137
-0.174779
-0.178515
-0.179103
-0.18139
-0.18241
-0.182308
-0.181739
-0.181095
-0.180413
-0.179768
-0.179433
-0.17993
-0.181712
-0.185875
-0.19006
-0.160141
-0.164681
-0.187144
-0.185802
-0.183648
-0.180358
-0.179079
-0.182715
-0.184421
-0.185631
-0.187536
-0.187756
-0.187531
-0.185844
-0.173276
-0.183912
-0.18597
-0.188318
-0.19063
-0.1921
-0.192625
-0.19241
-0.191706
-0.190517
-0.18905
-0.187688
-0.186571
-0.185932
-0.186096
-0.185619
-0.183229
-0.183606
-0.196335
-0.194739
-0.193185
-0.190285
-0.189476
-0.192153
-0.193726
-0.194922
-0.196285
-0.196428
-0.195944
-0.195022
-0.186916
-0.194371
-0.195987
-0.198915
-0.201684
-0.203879
-0.205318
-0.205945
-0.20581
-0.204714
-0.202668
-0.200267
-0.197819
-0.1963
-0.196144
-0.197246
-0.196812
-0.197942
-0.206277
-0.204604
-0.203538
-0.201017
-0.200579
-0.202503
-0.20388
-0.204981
-0.20597
-0.20611
-0.20579
-0.205268
-0.200951
-0.205927
-0.208022
-0.211428
-0.214882
-0.218318
-0.221375
-0.223868
-0.225746
-0.226688
-0.226402
-0.218334
-0.218891
-0.21843
-0.216825
-0.216961
-0.217384
-0.216615
-0.217042
-0.215434
-0.214751
-0.212619
-0.212453
-0.213796
-0.214943
-0.215896
-0.216642
-0.216827
-0.216774
-0.21666
-0.215141
-0.218642
-0.221337
-0.225222
-0.229856
-0.235291
-0.241362
-0.247533
-0.25338
-0.257539
-0.259613
-0.258407
-0.254805
-0.253694
-0.252503
-0.246629
-0.245966
-0.245145
-0.228703
-0.227273
-0.226882
-0.225166
-0.225167
-0.226074
-0.226979
-0.227758
-0.228344
-0.228593
-0.228794
-0.229082
-0.229195
-0.232036
-0.235274
-0.239684
-0.245346
-0.252648
-0.261874
-0.272564
-0.283396
-0.292062
-0.297375
-0.29938
-0.298717
-0.295082
-0.294793
-0.293161
-0.290736
-0.289564
-0.24134
-0.240174
-0.240004
-0.238728
-0.238818
-0.239395
-0.240055
-0.240648
-0.24111
-0.241405
-0.241801
-0.242369
-0.243375
-0.245933
-0.249347
-0.253967
-0.259915
-0.268026
-0.278608
-0.291308
-0.304925
-0.316772
-0.325086
-0.329774
-0.331326
-0.327484
-0.330703
-0.327627
-0.325167
-0.323689
-0.255038
-0.254198
-0.254203
-0.253392
-0.253499
-0.253829
-0.254245
-0.254639
-0.254974
-0.25526
-0.255721
-0.256381
-0.257621
-0.259845
-0.262946
-0.267278
-0.27153
-0.278607
-0.287681
-0.298561
-0.31069
-0.321635
-0.329681
-0.334231
-0.335504
-0.330193
-0.337651
-0.332093
-0.328739
-0.326061
-0.269887
-0.269419
-0.269581
-0.269251
-0.269323
-0.269462
-0.269632
-0.269808
-0.269985
-0.270176
-0.270533
-0.271079
-0.272077
-0.27365
-0.275702
-0.278378
-0.281563
-0.285699
-0.290767
-0.296636
-0.302984
-0.308857
-0.313239
-0.316105
-0.317432
-0.318166
-0.317351
-0.319114
-0.318035
-0.317185
-0.285987
-0.285923
-0.286254
-0.286423
-0.286433
-0.286401
-0.286316
-0.28625
-0.286229
-0.286247
-0.286359
-0.286566
-0.286934
-0.287476
-0.288165
-0.28901
-0.289988
-0.291103
-0.292302
-0.293534
-0.295051
-0.29677
-0.29876
-0.300971
-0.303636
-0.307092
-0.310787
-0.313455
-0.314822
-0.316353
13.8941
12.9424
13.2022
12.4839
12.305
12.6831
5.0871
4.66944
7.57402
1.64136
2.89361
4.14961
2.94011
0.905507
-0.262815
-0.388338
-0.375704
-0.297599
-0.284092
-0.165453
-0.0238912
0.0165875
-0.0675022
-0.112892
-0.24984
-1.47579
5.08793
9.34102
10.2938
8.52025
12.1012
11.228
11.5533
10.9499
10.7041
10.6768
1.93153
3.24941
9.07337
2.68385
0.933294
1.63015
0.6299
-0.123987
-0.286474
-0.330347
-0.380334
-0.315273
-0.296581
-0.16199
-0.0409437
0.00928207
-0.0696979
-0.112426
-0.0741365
-1.58444
2.636
7.76707
8.66098
6.91012
9.81577
9.41581
9.76797
9.19967
9.22174
8.78829
0.737731
5.65836
9.73344
2.46156
-1.11497
-0.543594
-0.163906
-0.179403
-0.265259
-0.326436
-0.381765
-0.327838
-0.298756
-0.155738
-0.0551119
0.00156843
-0.0726189
-0.112869
-0.0684079
-0.351946
0.431494
5.94836
6.89249
5.22761
7.72026
7.47823
7.94853
7.40854
7.2842
7.43506
0.808804
10.7979
9.54798
0.586186
-1.14029
-0.304843
-0.159068
-0.179719
-0.253399
-0.321052
-0.379327
-0.335584
-0.291356
-0.147054
-0.0655088
-0.0064217
-0.0759204
-0.112232
-0.0715952
-0.118194
-1.14117
4.2544
4.86831
3.4484
5.36884
5.3397
5.86721
5.57457
5.16583
4.83894
-0.517848
15.9748
8.74796
-0.364173
-0.144303
-0.158893
-0.158049
-0.182587
-0.245212
-0.317784
-0.373976
-0.338608
-0.275453
-0.136931
-0.0728824
-0.014527
-0.0795037
-0.111744
-0.0771757
-0.104603
-0.129709
2.54204
2.73431
1.6691
2.83081
3.13762
3.437
3.67999
1.58769
1.88771
-0.196417
12.9125
3.22278
-0.081888
-0.155663
-0.163397
-0.159289
-0.18641
-0.239971
-0.313243
-0.365261
-0.336423
-0.253092
-0.126681
-0.078129
-0.0229078
-0.0832163
-0.111625
-0.0821396
-0.101195
0.0252732
0.40682
0.619528
0.378112
0.0419379
0.237026
0.0844104
0.331241
-0.127034
0.0361301
-0.101897
0.421424
-0.30164
-0.109385
-0.162919
-0.161852
-0.161806
-0.190489
-0.236618
-0.306826
-0.353101
-0.32859
-0.226078
-0.119122
-0.0827694
-0.0314667
-0.0871371
-0.111738
-0.0877338
-0.102802
-0.0803264
-0.106541
-0.120498
-0.134037
-0.134533
-0.137964
-0.139346
-0.146004
-0.144432
-0.153012
-0.128711
-0.203695
-0.135108
-0.141239
-0.158981
-0.159734
-0.16242
-0.19465
-0.234881
-0.298967
-0.337217
-0.31569
-0.198912
-0.118036
-0.0882459
-0.0402128
-0.0913143
-0.111917
-0.09281
-0.104015
-0.0872774
-0.106479
-0.140337
-0.130975
-0.136793
-0.138797
-0.14188
-0.145721
-0.14877
-0.150626
-0.14329
-0.120956
-0.208183
-0.192554
-0.175611
-0.165531
-0.164736
-0.199967
-0.23677
-0.291192
-0.318323
-0.301588
-0.178592
-0.124192
-0.0954648
-0.0491698
-0.0957884
-0.112449
-0.0978098
-0.105417
-0.0934519
-0.111866
-0.142385
-0.132897
-0.139845
-0.141839
-0.145128
-0.149804
-0.154228
-0.156745
-0.167144
-0.149307
-0.178591
-0.175852
-0.173552
-0.170043
-0.170844
-0.203836
-0.236937
-0.281882
-0.298011
-0.290717
-0.169001
-0.131201
-0.104225
-0.0583226
-0.100581
-0.113472
-0.102859
-0.1072
-0.100299
-0.116695
-0.14472
-0.134962
-0.140684
-0.142899
-0.146397
-0.150935
-0.156021
-0.161884
-0.169185
-0.154076
-0.157163
-0.175545
-0.174345
-0.174377
-0.17768
-0.204797
-0.234343
-0.269707
-0.277
-0.279746
-0.167822
-0.132397
-0.113462
-0.0676478
-0.105699
-0.115071
-0.108028
-0.109467
-0.10674
-0.121809
-0.147311
-0.137235
-0.139888
-0.14206
-0.145368
-0.149626
-0.155473
-0.16314
-0.166621
-0.16293
-0.169788
-0.178418
-0.179521
-0.179777
-0.183606
-0.203278
-0.227974
-0.254223
-0.255287
-0.261958
-0.173938
-0.131285
-0.122616
-0.0771509
-0.111145
-0.117305
-0.113335
-0.112277
-0.113305
-0.127092
-0.150131
-0.139738
-0.138217
-0.140042
-0.142789
-0.14684
-0.152287
-0.158258
-0.163473
-0.166586
-0.174979
-0.183628
-0.186607
-0.184736
-0.187603
-0.199797
-0.217889
-0.235025
-0.234449
-0.24121
-0.187399
-0.132655
-0.131729
-0.0868525
-0.116912
-0.120219
-0.118801
-0.115681
-0.119685
-0.132442
-0.153105
-0.142651
-0.136911
-0.138282
-0.140508
-0.143941
-0.148984
-0.155473
-0.162643
-0.170231
-0.180119
-0.189081
-0.193272
-0.189647
-0.189713
-0.195879
-0.206786
-0.21572
-0.217737
-0.225768
-0.201155
-0.136921
-0.140576
-0.0967696
-0.122991
-0.123856
-0.124451
-0.119736
-0.125904
-0.137846
-0.155905
-0.145959
-0.135011
-0.137023
-0.139507
-0.143077
-0.148231
-0.155392
-0.163765
-0.174349
-0.185894
-0.194677
-0.197682
-0.19328
-0.190765
-0.19282
-0.198291
-0.200422
-0.205327
-0.21567
-0.205524
-0.142304
-0.148786
-0.10691
-0.129372
-0.128256
-0.130317
-0.124496
-0.13202
-0.143224
-0.159045
-0.149675
-0.134705
-0.138734
-0.141755
-0.14527
-0.150498
-0.158162
-0.167023
-0.178363
-0.189556
-0.197506
-0.199355
-0.195309
-0.191932
-0.191844
-0.193678
-0.192423
-0.196148
-0.206585
-0.202488
-0.148544
-0.156269
-0.117279
-0.136052
-0.133445
-0.136441
-0.129992
-0.13818
-0.148427
-0.162293
-0.153893
-0.1376
-0.13642
-0.142613
-0.148558
-0.154239
-0.161967
-0.171637
-0.180892
-0.190242
-0.197067
-0.198793
-0.196483
-0.194057
-0.193141
-0.192965
-0.190825
-0.19218
-0.199623
-0.198705
-0.155568
-0.163229
-0.127875
-0.143043
-0.139441
-0.142875
-0.136239
-0.144439
-0.153725
-0.165704
-0.158604
-0.139538
-0.147443
-0.148094
-0.152601
-0.159986
-0.167058
-0.174863
-0.183262
-0.190498
-0.195614
-0.198177
-0.198202
-0.197349
-0.196385
-0.195149
-0.192899
-0.192572
-0.196491
-0.196605
-0.163513
-0.169929
-0.13869
-0.150374
-0.146244
-0.149676
-0.143242
-0.150974
-0.159349
-0.169514
-0.16384
-0.143148
-0.140136
-0.154489
-0.158104
-0.163686
-0.17066
-0.178687
-0.185227
-0.191229
-0.196062
-0.199508
-0.201384
-0.201896
-0.201191
-0.199484
-0.197091
-0.19573
-0.196896
-0.196734
-0.1719
-0.176589
-0.149712
-0.158092
-0.153844
-0.156912
-0.150996
-0.157976
-0.16549
-0.173931
-0.169636
-0.152822
-0.150307
-0.160226
-0.164744
-0.170012
-0.176102
-0.183873
-0.189512
-0.194767
-0.199567
-0.20374
-0.206696
-0.207995
-0.207471
-0.205522
-0.202833
-0.200672
-0.199957
-0.19924
-0.180343
-0.183408
-0.160913
-0.166265
-0.162212
-0.164657
-0.159487
-0.165577
-0.172272
-0.179116
-0.176035
-0.168038
-0.172043
-0.16927
-0.177958
-0.177825
-0.186217
-0.191988
-0.196909
-0.201989
-0.207018
-0.211554