/*--------------------------------*- C++ -*----------------------------------*\
| =========                 |                                                 |
| \\      /  F ield         | OpenFOAM: The Open Source CFD Toolbox           |
|  \\    /   O peration     | Version:  2.4.0                                 |
|   \\  /    A nd           | Web:      www.OpenFOAM.org                      |
|    \\/     M anipulation  |                                                 |
\*---------------------------------------------------------------------------*/
FoamFile
{
    version     2.0;
    format      ascii;
    class       volScalarField;
    location    "0.005";
    object      p_rgh;
}
// * * * * * * * * * * * * * * * * * * * * * * * * * * * * * * * * * * * * * //

dimensions      [1 -1 -2 0 0 0 0];

internalField   nonuniform List<scalar> 
14400
(
97.946
98.0612
98.3493
98.8761
99.7429
101.073
103
105.647
109.107
113.425
118.573
124.446
130.864
137.595
144.396
151.042
157.355
163.204
168.498
173.182
177.226
180.629
183.416
185.633
187.341
188.609
189.508
190.107
190.467
190.64
97.9454
98.0607
98.3484
98.8745
99.7402
101.069
102.993
105.637
109.094
113.407
118.552
124.423
130.841
137.574
144.379
151.029
157.347
163.2
168.498
173.185
177.233
180.641
183.432
185.652
187.362
188.633
189.534
190.134
190.494
190.668
97.9441
98.0593
98.3458
98.8699
99.7322
101.056
102.973
105.607
109.053
113.354
118.487
124.349
130.763
137.5
144.315
150.982
157.319
163.192
168.511
173.217
177.283
180.708
183.513
185.746
187.466
188.744
189.651
190.255
190.618
190.793
97.9421
98.0569
98.3415
98.8622
99.7189
101.034
102.94
105.558
108.985
113.265
118.377
124.223
130.629
137.371
144.203
150.898
157.27
163.18
168.535
173.277
177.376
180.83
183.661
185.915
187.653
188.944
189.861
190.472
190.838
191.015
97.9395
98.0536
98.3356
98.8515
99.7003
101.004
102.892
105.489
108.889
113.138
118.221
124.043
130.438
137.185
144.042
150.776
157.197
163.162
168.571
173.363
177.509
181.004
183.871
186.156
187.918
189.228
190.158
190.778
191.15
191.33
97.9362
98.0493
98.328
98.8377
99.6765
100.965
102.832
105.4
108.765
112.975
118.019
123.81
130.189
136.942
143.828
150.614
157.1
163.134
168.613
173.471
177.677
181.226
184.14
186.463
188.257
189.59
190.538
191.169
191.548
191.731
97.9324
98.0441
98.3187
98.8209
99.6475
100.917
102.758
105.292
108.614
112.776
117.772
123.523
129.881
136.639
143.561
150.408
156.974
163.094
168.658
173.597
177.876
181.49
184.46
186.83
188.66
190.023
190.991
191.636
192.023
192.21
97.9279
98.038
98.3078
98.8012
99.6134
100.861
102.672
105.165
108.436
112.54
117.478
123.181
129.511
136.273
143.235
150.155
156.814
163.037
168.702
173.734
178.097
181.786
184.821
187.245
189.119
190.514
191.506
192.167
192.564
192.756
97.9228
98.031
98.2953
98.7786
99.5742
100.797
102.572
105.018
108.231
112.269
117.138
122.783
129.079
135.842
142.847
149.85
156.617
162.957
168.736
173.873
178.332
182.105
185.211
187.695
189.617
191.049
192.067
192.746
193.154
193.351
97.9171
98.0231
98.2812
98.7532
99.5302
100.725
102.46
104.853
107.999
111.961
116.752
122.328
128.582
135.342
142.392
149.486
156.374
162.847
168.754
174.007
178.568
182.43
185.614
188.163
190.136
191.607
192.654
193.352
193.771
193.974
97.9108
98.0144
98.2656
98.725
99.4813
100.645
102.336
104.669
107.742
111.617
116.319
121.816
128.017
134.769
141.865
149.056
156.08
162.699
168.745
174.121
178.789
182.745
186.008
188.623
190.65
192.161
193.237
193.954
194.386
194.594
97.9039
98.0048
98.2486
98.694
99.4278
100.557
102.199
104.467
107.458
111.238
115.839
121.245
127.383
134.117
141.257
148.554
155.725
162.504
168.699
174.203
178.977
183.023
186.364
189.044
191.122
192.673
193.777
194.513
194.956
195.17
97.8965
97.9944
98.23
98.6605
99.3697
100.462
102.051
104.248
107.149
110.824
115.312
120.614
126.676
133.383
140.562
147.968
155.299
162.251
168.602
174.232
179.105
183.233
186.644
189.383
191.507
193.092
194.221
194.974
195.426
195.645
97.8886
97.9832
98.2101
98.6244
99.3072
100.359
101.891
104.011
106.815
110.375
114.739
119.922
125.893
132.561
139.771
147.289
154.79
161.928
168.439
174.186
179.142
183.332
186.796
189.58
191.741
193.351
194.496
195.26
195.72
195.942
97.8802
97.9713
98.1888
98.5859
99.2405
100.249
101.72
103.758
106.457
109.892
114.118
119.168
125.033
131.644
138.875
146.503
154.184
161.519
168.189
174.038
179.047
183.265
186.752
189.559
191.736
193.355
194.504
195.27
195.733
195.957
97.8713
97.9587
98.1663
98.5451
99.1697
100.133
101.538
103.489
106.076
109.376
113.451
118.352
124.091
130.626
137.861
145.596
153.466
161.008
167.833
173.755
178.768
182.96
186.42
189.211
191.374
192.975
194.107
194.862
195.321
195.545
97.8619
97.9454
98.1425
98.502
99.0949
100.01
101.346
103.204
105.672
108.827
112.738
117.471
123.066
129.501
136.718
144.55
152.617
160.377
167.347
173.296
178.239
182.317
185.673
188.389
190.493
192.035
193.114
193.839
194.288
194.511
97.8522
97.9314
98.1176
98.4569
99.0165
99.8808
101.145
102.904
105.245
108.246
111.979
116.527
121.954
128.262
135.433
143.345
151.615
159.605
166.703
172.613
177.378
181.206
184.335
186.888
188.869
190.286
191.259
191.925
192.361
192.591
97.842
97.9168
98.0915
98.4097
98.9345
99.7458
100.934
102.59
104.798
107.634
111.174
115.518
120.753
126.902
133.989
141.958
150.433
158.668
165.872
171.659
176.081
179.456
182.159
184.41
186.182
187.385
188.163
188.728
189.164
189.432
97.8314
97.9017
98.0644
98.3606
98.8493
99.6052
100.714
102.262
104.33
106.992
110.326
114.444
119.463
125.415
132.372
140.36
149.039
157.539
164.822
170.361
174.223
176.84
178.797
180.514
181.969
182.841
183.293
183.696
184.182
184.557
97.8204
97.886
98.0364
98.3098
98.7609
99.4595
100.486
101.921
103.844
106.323
109.434
113.305
118.081
123.796
130.564
138.519
147.394
156.188
163.52
168.654
171.653
173.069
173.762
174.51
175.502
175.949
175.893
176.072
176.764
177.3
97.8092
97.8698
98.0075
98.2574
98.6697
99.3089
100.25
101.569
103.339
105.626
108.502
112.101
116.609
122.041
128.547
136.397
145.446
154.582
161.936
166.453
168.184
167.783
166.414
165.282
165.504
165.676
164.896
164.901
166.184
166.453
97.7976
97.8532
97.9778
98.2035
98.5759
99.1539
100.006
101.205
102.818
104.904
107.529
110.833
115.047
120.146
126.303
133.947
143.13
152.678
160.047
163.665
163.646
160.558
156.049
151.082
149.461
149.813
145.484
145.58
146.343
148.029
97.7858
97.8361
97.9473
98.1482
98.4797
98.9949
99.7566
100.831
102.28
104.159
106.52
109.501
113.397
118.114
123.816
131.117
140.354
150.42
157.859
160.153
157.816
150.904
142.355
130.436
125.343
126.065
125.697
125.274
126.919
124.837
97.7738
97.8187
97.9163
98.0918
98.3814
98.8322
99.5008
100.448
101.729
103.392
105.476
108.105
111.665
115.947
121.073
127.847
137
147.719
155.448
155.656
150.588
138.136
126.182
113.178
102.165
115.575
109.889
107.673
106.082
108.533
97.7616
97.801
97.8846
98.0343
98.2812
98.6663
99.2397
100.057
101.165
102.606
104.401
106.644
109.857
113.656
118.066
124.073
132.899
144.404
153.007
149.602
142.681
120.631
105.362
95.2602
78.6863
71.7247
69.2494
59.678
52.5859
49.5659
97.7492
97.783
97.8525
97.9759
98.1794
98.4975
98.9739
99.6575
100.59
101.804
103.3
105.117
107.983
111.255
114.798
119.732
127.82
140.129
150.882
139.896
137.295
98.3165
62.6986
5.28204
-0.112629
-0.175429
-0.189473
-0.124723
-0.109563
-0.100595
97.7367
97.7648
97.8199
97.9168
98.0762
98.3264
98.7041
99.252
100.004
100.987
102.18
103.519
106.058
108.769
111.285
114.762
121.42
134.298
148.817
131.889
122.101
76.5341
0.223213
-0.34497
-0.253023
-0.198238
-0.191543
-0.16226
-0.149683
-0.138773
97.7241
97.7464
97.7871
97.8571
97.972
98.1533
98.4308
98.8414
99.4114
100.16
101.05
101.846
104.103
106.225
107.536
109.065
113.207
126.534
146.009
133.078
110.741
26.9278
-0.308463
-0.370404
-0.303276
-0.246006
-0.230212
-0.20871
-0.192927
-0.174802
97.7103
97.729
97.7559
97.8002
97.8723
97.9869
98.1657
98.439
98.8236
99.3297
99.9139
100.057
102.097
103.545
103.429
102.67
103.851
115.631
133.935
126.729
107.56
1.72638
-0.218951
-0.311006
-0.315714
-0.279719
-0.262391
-0.245157
-0.231616
-0.214461
190.672
190.577
190.32
189.851
189.114
188.043
186.568
184.619
182.129
179.043
175.325
170.964
165.975
160.397
154.304
147.805
141.054
134.253
127.641
121.462
115.926
111.178
107.285
104.237
101.961
100.347
99.263
98.5794
98.1819
97.9852
190.701
190.605
190.347
189.878
189.139
188.066
186.588
184.636
182.142
179.053
175.331
170.967
165.973
160.391
154.294
147.79
141.034
134.231
127.618
121.44
115.907
111.163
107.274
104.229
101.956
100.343
99.2609
98.5782
98.1812
97.9848
190.826
190.73
190.47
189.997
189.254
188.174
186.687
184.724
182.216
179.111
175.373
170.989
165.976
160.374
154.257
147.734
140.965
134.154
127.541
121.37
115.847
111.116
107.239
104.204
101.939
100.333
99.2548
98.5748
98.1793
97.9837
191.048
190.951
190.689
190.211
189.459
188.368
186.866
184.883
182.352
179.22
175.45
171.032
165.983
160.343
154.19
147.636
140.843
134.021
127.41
121.251
115.747
111.037
107.18
104.163
101.912
100.316
99.2446
98.569
98.1761
97.9818
191.363
191.265
190.998
190.513
189.75
188.643
187.12
185.11
182.546
179.374
175.56
171.094
165.992
160.299
154.093
147.493
140.668
133.83
127.223
121.082
115.605
110.926
107.098
104.106
101.874
100.292
99.2303
98.561
98.1717
97.9791
191.765
191.665
191.393
190.899
190.122
188.995
187.444
185.4
182.793
179.571
175.7
171.171
166.001
160.237
153.963
147.304
140.437
133.581
126.979
120.863
115.422
110.783
106.993
104.032
101.825
100.261
99.2121
98.5507
98.166
97.9757
192.245
192.143
191.865
191.36
190.565
189.414
187.831
185.744
183.086
179.804
175.864
171.258
166.005
160.155
153.796
147.065
140.148
133.272
126.679
120.593
115.198
110.608
106.864
103.942
101.765
100.224
99.1899
98.5381
98.1592
97.9716
192.792
192.686
192.402
191.884
191.07
189.89
188.269
186.134
183.417
180.065
176.045
171.35
166
160.048
153.59
146.773
139.799
132.901
126.32
120.273
114.933
110.402
106.712
103.836
101.695
100.18
99.1638
98.5234
98.1511
97.9667
193.388
193.28
192.987
192.455
191.62
190.408
188.746
186.557
183.773
180.344
176.235
171.44
165.98
159.91
153.338
146.424
139.385
132.464
125.901
119.902
114.626
110.164
106.538
103.714
101.615
100.129
99.1338
98.5065
98.1418
97.9612
194.012
193.9
193.6
193.053
192.193
190.949
189.241
186.994
184.14
180.627
176.423
171.519
165.937
159.736
153.034
146.011
138.902
131.96
125.42
119.479
114.279
109.895
106.341
103.577
101.524
100.073
99.1001
98.4875
98.1313
97.9549
194.633
194.518
194.209
193.647
192.763
191.484
189.73
187.423
184.496
180.898
176.594
171.576
165.863
159.517
152.671
145.528
138.345
131.385
124.877
119.004
113.89
109.595
106.121
103.425
101.424
100.01
99.0627
98.4664
98.1198
97.948
195.21
195.092
194.775
194.197
193.291
191.978
190.178
187.814
184.816
181.134
176.733
171.599
165.748
159.245
152.241
144.968
137.709
130.736
124.27
118.476
113.46
109.264
105.881
103.258
101.313
99.9404
99.0217
98.4433
98.1071
97.9404
195.685
195.565
195.241
194.651
193.724
192.382
190.542
188.125
185.063
181.306
176.816
171.572
165.58
158.91
151.734
144.322
136.987
130.008
123.596
117.895
112.989
108.904
105.618
103.076
101.193
99.8654
98.9773
98.4183
98.0933
97.9321
195.984
195.862
195.532
194.932
193.992
192.629
190.759
188.301
185.19
181.377
176.818
171.476
165.345
158.499
151.138
143.579
136.171
129.198
122.854
117.259
112.478
108.514
105.335
102.88
101.064
99.7847
98.9295
98.3913
98.0785
97.9233
195.999
195.876
195.543
194.942
193.998
192.63
190.746
188.269
185.136
181.299
176.704
171.287
165.027
157.997
150.44
142.73
135.254
128.302
122.042
116.57
111.926
108.096
105.032
102.671
100.926
99.6984
98.8784
98.3626
98.0627
97.9138
195.587
195.464
195.134
194.539
193.61
192.259
190.391
187.927
184.816
181.01
176.433
170.985
164.608
157.391
149.625
141.759
134.228
127.314
121.158
115.826
111.335
107.649
104.71
102.448
100.78
99.6069
98.8242
98.3321
98.046
97.9038
194.554
194.431
194.105
193.529
192.641
191.348
189.539
187.139
184.118
180.428
175.952
170.532
164.069
156.66
148.673
140.653
133.082
126.232
120.2
115.027
110.705
107.175
104.368
102.212
100.625
99.5103
98.7671
98.2999
98.0284
97.8932
192.637
192.509
192.182
191.639
190.835
189.661
187.973
185.709
182.886
179.447
175.2
169.895
163.387
155.785
147.563
139.393
131.808
125.049
119.168
114.174
110.036
106.674
104.008
101.965
100.463
99.4089
98.7071
98.2662
98.0099
97.8821
189.489
189.335
188.982
188.482
187.829
186.868
185.383
183.362
180.912
177.932
174.099
169.038
162.537
154.739
146.269
137.961
130.394
123.764
118.06
113.266
109.331
106.148
103.631
101.706
100.293
99.303
98.6445
98.231
97.9905
97.8705
184.647
184.424
183.976
183.508
183.107
182.496
181.311
179.693
177.908
175.712
172.554
167.916
161.494
153.493
144.76
136.334
128.829
122.371
116.875
112.304
108.589
105.597
103.237
101.435
100.115
99.1927
98.5793
98.1944
97.9704
97.8584
177.457
177.141
176.496
175.951
175.937
175.824
175.032
174.104
173.495
172.572
170.498
166.48
160.231
152.011
142.998
134.487
127.104
120.869
115.613
111.289
107.812
105.023
102.828
101.155
99.9318
99.0783
98.5118
98.1564
97.9497
97.8459
166.651
166.583
165.864
164.743
165.33
165.602
165.311
165.722
167.2
168.253
167.757
164.678
158.723
150.247
140.934
132.392
125.208
119.257
114.273
110.222
107.002
104.427
102.403
100.864
99.7419
98.9603
98.4421
98.1173
97.9282
97.8329
148.461
147.437
146.987
144.594
148.86
148.773
150.087
153.462
158.476
162.449
164.235
162.45
156.95
148.139
138.51
130.019
123.133
117.536
112.856
109.103
106.16
103.81
101.965
100.565
99.5464
98.8388
98.3705
98.0771
97.9062
97.8196
124.561
125.309
126.237
125.857
123.894
126.411
127.77
137.19
146.798
154.84
159.783
159.73
154.906
145.602
135.652
127.336
120.872
115.708
111.363
107.935
105.29
103.175
101.515
100.258
99.3456
98.7142
98.2971
98.0359
97.8836
97.806
107.845
108.451
108.151
107.87
111.067
107.097
110.267
121.044
131.632
144.997
154.243
156.444
152.597
142.506
132.269
124.311
118.422
113.781
109.793
106.719
104.393
102.522
101.053
99.9425
99.1402
98.5868
98.222
97.9938
97.8605
97.792
49.813
50.5588
57.9118
65.5922
66.961
72.262
94.0514
99.9204
111.303
132.734
147.596
152.539
149.993
138.652
128.25
120.915
115.785
111.765
108.147
105.458
103.473
101.853
100.58
99.6207
98.9305
98.4569
98.1456
97.951
97.8371
97.7778
-0.101182
-0.1037
-0.110141
-0.135451
-0.184403
-0.210427
1.68726
24.8964
80.3447
121.146
137.899
148.112
146.897
133.718
123.47
117.128
112.967
109.678
106.423
104.156
102.532
101.17
100.098
99.2929
98.7172
98.3248
98.0679
97.9075
97.8133
97.7633
-0.136558
-0.143975
-0.153459
-0.172298
-0.198567
-0.223132
-0.265651
-0.335998
6.75162
109.087
121.276
146.954
142.68
127.162
117.784
112.945
109.981
107.545
104.613
102.817
101.575
100.476
99.6084
98.9599
98.5008
98.191
97.9893
97.8634
97.7892
97.7485
-0.174119
-0.186661
-0.198731
-0.218023
-0.236929
-0.260842
-0.306213
-0.429873
0.288726
96.7431
117.352
147.073
137.239
118.325
110.996
108.342
106.819
105.4
102.711
101.452
100.608
99.7718
99.1122
98.6228
98.2817
98.0557
97.9098
97.8189
97.7648
97.7336
-0.212427
-0.219849
-0.236337
-0.251935
-0.269086
-0.290882
-0.300074
-0.291676
-0.387958
69.9615
115.427
135.297
125.944
107.702
103.491
103.28
103.286
103.203
100.65
100.061
99.6356
99.0697
98.6233
98.2941
98.0702
97.9259
97.834
97.7766
97.7417
97.7191
0.000820833
1.73562
3.04651
5.52805
9.67898
16.1654
25.7664
39.1898
55.7555
73.5423
89.5129
98.2387
100.36
101.107
101.237
98.4552
93.0778
94.5399
129.643
132.247
104.048
-0.413782
-0.294022
-0.315975
-0.321155
-0.302822
-0.286215
-0.2715
-0.259207
-0.240379
0.000875299
0.0078826
0.0150667
0.0231966
0.0330676
0.0456261
0.0617977
0.0821932
0.111986
0.165071
0.266054
1.36144
46.0038
88.2273
97.0902
93.4834
88.6787
86.2859
116.441
128.178
64.5083
-0.184599
-0.322596
-0.327334
-0.331012
-0.316191
-0.300079
-0.286321
-0.274847
-0.258563
0.000913363
0.00787956
0.0150585
0.0231811
0.033042
0.0455753
0.0616891
0.082063
0.111573
0.162811
0.257513
-0.220899
0.0981715
4.58039
45.4485
91.0335
75.6049
68.6448
115.114
126.551
63.9614
-0.400168
-0.35273
-0.347203
-0.346198
-0.331082
-0.314982
-0.302022
-0.28805
-0.272136
0.000949568
0.00787062
0.0150387
0.0231498
0.0329963
0.0454887
0.0614993
0.0818124
0.111268
0.162602
0.262219
-0.262199
0.0161257
0.171976
0.378505
16.4192
68.4285
47.0112
93.1167
123.367
19.8608
-0.435033
-0.366599
-0.375808
-0.36654
-0.347729
-0.330789
-0.318217
-0.294971
-0.300227
0.000990097
0.00785955
0.0150121
0.0231086
0.0329363
0.045371
0.0612371
0.0814376
0.110664
0.161283
0.261896
-0.325739
0.0116447
0.172124
0.281311
1.23103
43.7338
35.8787
65.2388
117.658
49.5932
-0.610624
-0.462929
-0.41877
-0.390338
-0.365559
-0.346826
-0.334868
-0.322972
-0.31991
0.00102593
0.00784555
0.0149775
0.0230558
0.0328589
0.0452194
0.060906
0.0809209
0.109712
0.158438
0.247778
-0.364099
0.00747739
0.172526
0.259828
0.467073
0.228053
30.7781
34.5886
128.834
12.7901
-1.15375
-0.575123
-0.464321
-0.414687
-0.383286
-0.361995
-0.348405
-0.340718
-0.335819
0.00106633
0.007828
0.0149335
0.0229886
0.0327579
0.0450215
0.0604914
0.080245
0.108354
0.153899
0.219899
-0.335362
0.00351961
0.164982
0.24803
0.386752
-2.83891
46.8935
29.5124
127.236
-3.61865
-1.50992
-0.655473
-0.501478
-0.436334
-0.399158
-0.375467
-0.359687
-0.352725
-0.34842
0.00110225
0.00780575
0.0148783
0.0229036
0.0326271
0.0447689
0.059984
0.0793728
0.106531
0.147868
0.187841
-0.249172
0.00269963
0.151648
0.230356
0.260832
-1.26493
48.3684
35.5202
80.4623
-1.39513
-1.2364
-0.66533
-0.523204
-0.452265
-0.411468
-0.386247
-0.370424
-0.362312
-0.358286
0.00113971
0.00777783
0.0148097
0.0227975
0.0324594
0.0444495
0.0593677
0.0782899
0.104194
0.140572
0.159895
-0.156352
0.00229724
0.136227
0.20854
0.2359
-0.917467
74.1881
65.879
63.5653
-0.508108
-0.908374
-0.66304
-0.529668
-0.46044
-0.418909
-0.39331
-0.377882
-0.369396
-0.365539
0.00117244
0.00774277
0.0147255
0.0226659
0.032247
0.0440532
0.0586276
0.0769573
0.10132
0.132341
0.13708
-0.0869254
0.00480447
0.119829
0.180523
0.16754
-0.0273875
36.9832
119.004
-3.3436
-0.767832
-0.772201
-0.640535
-0.525234
-0.460315
-0.420741
-0.396038
-0.381209
-0.373094
-0.36948
0.00120424
0.00769915
0.0146233
0.0225037
0.0319812
0.0435669
0.0577446
0.0753593
0.0978939
0.123476
0.11865
-0.039001
0.00933192
0.103924
0.149298
0.132223
-0.137321
-1.43214
4.12628
-1.58386
-0.905083
-0.701951
-0.598913
-0.509129
-0.452115
-0.416383
-0.393849
-0.380219
-0.372619
-0.369141
0.0012306
0.00764524
0.0145
0.0223051
0.0316525
0.0429787
0.0566991
0.0734636
0.093943
0.114295
0.104448
-0.00716301
0.0146007
0.0874751
0.117146
0.0859547
-0.125449
-0.449229
-0.830055
-1.35077
-0.862627
-0.640445
-0.550859
-0.482829
-0.436132
-0.405667
-0.386191
-0.374194
-0.367279
-0.363974
0.00125332
0.00757918
0.014352
0.0220634
0.031251
0.0422751
0.0554724
0.0712564
0.0894982
0.105025
0.0926218
0.0131217
0.0193411
0.0708734
0.0859093
0.0425416
-0.122224
-0.370028
-0.63341
-0.896444
-0.723393
-0.573713
-0.500469
-0.449627
-0.413465
-0.388849
-0.372703
-0.362585
-0.356762
-0.35409
0.00126958
0.00749855
0.0141747
0.021771
0.0307654
0.0414422
0.0540443
0.0687194
0.0846216
0.0958799
0.0823244
0.0252601
0.0225774
0.0548176
0.0570711
0.00679703
-0.128384
-0.31375
-0.474508
-0.603907
-0.574422
-0.500373
-0.448828
-0.412333
-0.385772
-0.367059
-0.354378
-0.346326
-0.341782
-0.339783
0.00127991
0.00740055
0.0139629
0.0214196
0.0301845
0.0404655
0.0523985
0.0658499
0.0793845
0.0869761
0.0733181
0.0316694
0.0238478
0.0399261
0.0318471
-0.0201019
-0.129406
-0.26546
-0.376659
-0.450207
-0.456328
-0.427072
-0.396905
-0.372912
-0.354726
-0.341521
-0.332382
-0.326429
-0.322908
-0.32125
0.00128256
0.00728184
0.0137109
0.0209999
0.0294957
0.0393303
0.0505193
0.0626523
0.0738662
0.0784334
0.0652813
0.0340944
0.0231485
0.0266166
0.0109643
-0.0388389
-0.125598
-0.224995
-0.304717
-0.354643
-0.369422
-0.36156
-0.347114
-0.333295
-0.321973
-0.313393
-0.307285
-0.303262
-0.300956
-0.299955
0.00127718
0.00713877
0.0134121
0.0205018
0.0286863
0.038022
0.0483953
0.0591445
0.0681482
0.0702719
0.0579512
0.0337628
0.0208233
0.0151603
-0.00535662
-0.0507771
-0.118879
-0.191913
-0.250571
-0.288039
-0.304469
-0.306332
-0.301569
-0.295132
-0.289118
-0.28424
-0.280629
-0.278189
-0.27675
-0.276111
0.0012624
0.00696737
0.0130595
0.0199148
0.0277433
0.0365266
0.04602
0.0553521
0.0623116
0.062525
0.0511334
0.0315401
0.017338
0.00562816
-0.0173479
-0.0574226
-0.1107
-0.165026
-0.209012
-0.238492
-0.254398
-0.260512
-0.261204
-0.259584
-0.257333
-0.255238
-0.253594
-0.252451
-0.251756
-0.251437
0.00123748
0.00676337
0.0126449
0.0192274
0.0266539
0.0348322
0.043393
0.0513127
0.056426
0.0552057
0.0446828
0.0281022
0.0132146
-0.00201
-0.0255307
-0.0601223
-0.101892
-0.14288
-0.176409
-0.20006
-0.214631
-0.22239
-0.225897
-0.227128
-0.22733
-0.227167
-0.226962
-0.226881
-0.226929
-0.227008
0.00120131
0.00652185
0.0121597
0.0184283
0.025406
0.0329301
0.0405219
0.0470688
0.0505661
0.0482709
0.0385118
0.0239511
0.00890655
-0.00787416
-0.0305553
-0.059984
-0.0929097
-0.124276
-0.150197
-0.169332
-0.182214
-0.190237
-0.194964
-0.197691
-0.199285
-0.200249
-0.200899
-0.201401
-0.20178
-0.202006
0.00115329
0.00623728
0.0115945
0.0175051
0.0239879
0.0308153
0.037422
0.0426706
0.0447835
0.0417083
0.0326368
0.0195219
0.00479625
-0.0121265
-0.0330732
-0.0578455
-0.0839684
-0.108281
-0.128539
-0.144045
-0.155145
-0.162715
-0.167711
-0.170972
-0.173118
-0.174545
-0.175501
-0.176127
-0.176513
-0.176711
0.00109256
0.00590357
0.0109394
0.0164464
0.0223901
0.0284881
0.0341162
0.0381716
0.0391432
0.0355474
0.0270897
0.0151466
0.00116171
-0.0149429
-0.0336617
-0.0543244
-0.0751565
-0.0941901
-0.110167
-0.122711
-0.132089
-0.13884
-0.143556
-0.146797
-0.149023
-0.150523
-0.151477
-0.152049
-0.152384
-0.152552
0.00101846
0.00551434
0.0101845
0.0152408
0.0206049
0.0259526
0.0306332
0.0336245
0.0336993
0.0298073
0.021951
0.011092
-0.00181068
-0.0164946
-0.0327791
-0.0498633
-0.0665087
-0.0815079
-0.0941553
-0.104267
-0.11204
-0.11784
-0.122058
-0.125046
-0.127109
-0.128496
-0.129391
-0.129919
-0.130173
-0.130244
0.000930055
0.00506334
0.00931985
0.0138784
0.0186273
0.0232173
0.0270043
0.0290814
0.0284855
0.024506
0.017295
0.00754657
-0.00401574
-0.0169403
-0.0307636
-0.0447447
-0.0580117
-0.069844
-0.0798455
-0.0879452
-0.0942889
-0.0991317
-0.102741
-0.105352
-0.107175
-0.108401
-0.10919
-0.109655
-0.109876
-0.10993
0.000826371
0.00454438
0.00833585
0.0123503
0.0164544
0.0202927
0.02326
0.0245839
0.0235292
0.0196705
0.0131898
0.0046313
-0.00541143
-0.0164236
-0.027872
-0.0391453
-0.0496399
-0.0589209
-0.0667761
-0.0731865
-0.0782613
-0.0821823
-0.0851477
-0.0873394
-0.088906
-0.0899682
-0.0906405
-0.0910418
-0.091271
-0.0913738
0.000706402
0.00395165
0.0072239
0.0106491
0.0140845
0.0171898
0.0194264
0.0201665
0.018875
0.0153149
0.00967979
0.00240722
-0.00600165
-0.0150586
-0.0242757
-0.0331699
-0.0413391
-0.0485147
-0.0545846
-0.0595582
-0.0635258
-0.0666187
-0.0689755
-0.0707309
-0.0720104
-0.0729226
-0.073547
-0.0739316
-0.0741132
-0.0741457
0.000569228
0.00327973
0.00597609
0.00876751
0.0115155
0.0139165
0.0155207
0.0158504
0.0145238
0.0114382
0.00677118
0.000876742
-0.00583407
-0.0129535
-0.0200842
-0.0268704
-0.0330457
-0.0384469
-0.0430126
-0.0467608
-0.0497623
-0.0521151
-0.0539255
-0.0552953
-0.0563113
-0.0570424
-0.0575419
-0.057855
-0.0580232
-0.0580813
0.000414194
0.00252406
0.00458573
0.00669886
0.00874368
0.010474
0.0115462
0.0116241
0.0104533
0.00800548
0.00443224
-1.12543e-06
-0.00498344
-0.010209
-0.0153861
-0.0202731
-0.0246977
-0.02856
-0.0318257
-0.0345129
-0.0366741
-0.0383785
-0.0396983
-0.0406998
-0.0414413
-0.0419755
-0.0423499
-0.0426036
-0.0427634
-0.0428401
0.000240869
0.00168117
0.00304699
0.00443552
0.00575996
0.00685066
0.00748195
0.00744947
0.0065984
0.00493804
0.00257755
-0.000311513
-0.00353728
-0.00690353
-0.010227
-0.0133601
-0.0161982
-0.0186818
-0.0207919
-0.0225379
-0.0239468
-0.0250561
-0.02591
-0.0265578
-0.027047
-0.0274159
-0.0276883
-0.0278762
-0.0279874
-0.0280329
4.93274e-05
0.000749391
0.00135586
0.00196902
0.00254787
0.00301528
0.00327259
0.00323381
0.00283655
0.00209226
0.00105512
-0.000198185
-0.00162154
-0.00312732
-0.00463742
-0.00608661
-0.00742267
-0.00861155
-0.00963627
-0.0104941
-0.0111937
-0.0117513
-0.012188
-0.0125247
-0.0127796
-0.0129679
-0.0131046
-0.0132034
-0.0132724
-0.0133109
-0.244562
-0.248833
-0.263819
-0.27701
-0.292298
-0.310743
-0.318906
-0.320065
-0.29111
55.0608
118.306
137.977
109.877
89.6981
98.0758
100.497
100.647
101.311
98.6034
95.3166
81.9718
64.6419
47.1513
31.9789
20.5104
12.5737
7.34947
4.11028
2.26336
1.38423
-0.259006
-0.269316
-0.279301
-0.291324
-0.306163
-0.323171
-0.330544
-0.325078
-0.203352
5.98819
111.924
132.764
96.5648
85.08
93.8159
97.0471
92.8872
74.6856
13.9748
0.214012
0.219605
0.142732
0.101941
0.0764062
0.0570699
0.0418113
0.0299116
0.0203174
0.0121548
0.00443547
-0.275767
-0.275281
-0.295481
-0.306536
-0.321366
-0.338357
-0.34976
-0.351139
-0.159365
7.95493
109.191
132.722
85.8986
66.0686
89.591
78.4511
17.8981
0.523307
-0.245953
0.182868
0.2151
0.141748
0.10174
0.0762738
0.0569904
0.0417743
0.0298898
0.0203047
0.0121492
0.00447481
-0.297703
-0.289992
-0.310873
-0.322559
-0.337809
-0.356608
-0.3749
-0.394269
-0.305124
-0.944889
109.092
125.327
54.6652
55.7916
59.7705
2.29422
0.316749
0.10677
-0.286377
0.171285
0.216473
0.141406
0.101442
0.0760289
0.0568537
0.0417103
0.0298491
0.0202778
0.0121353
0.00451284
-0.318481
-0.321338
-0.322243
-0.338972
-0.354855
-0.377084
-0.405259
-0.451634
-0.572405
-1.1678
115.711
118.492
30.5325
47.6891
17.7637
0.267558
0.274328
0.128068
-0.335681
0.141959
0.215369
0.140486
0.100949
0.0756835
0.0566649
0.0416248
0.0297956
0.0202419
0.0121171
0.00454927
-0.334379
-0.337692
-0.34381
-0.353882
-0.371454
-0.397826
-0.437193
-0.508669
-0.66917
-1.52507
105.939
121.64
6.78777
17.587
0.796578
0.273394
0.264263
0.137339
-0.363798
0.100166
0.208812
0.138866
0.100225
0.0752351
0.0564233
0.0415135
0.0297273
0.020196
0.0120937
0.00458291
-0.347427
-0.350106
-0.356028
-0.367194
-0.386347
-0.416468
-0.465197
-0.560824
-0.793062
-1.7032
75.5027
107.441
6.00752
-10.1316
0.289086
0.272497
0.247528
0.132954
-0.339505
0.0724604
0.197125
0.13641
0.099248
0.0746691
0.0561146
0.0413675
0.0296395
0.0201377
0.0120638
0.00461319
-0.357514
-0.359912
-0.365975
-0.37756
-0.398186
-0.430832
-0.484621
-0.583542
-0.828674
-1.59203
2.46501
99.7514
34.3057
3.00283
0.170555
0.257154
0.224704
0.121664
-0.264841
0.0692682
0.183017
0.133107
0.097963
0.0739643
0.0557302
0.0411782
0.0295278
0.0200644
0.0120257
0.00463922
-0.364893
-0.367166
-0.373273
-0.38529
-0.405808
-0.439196
-0.493479
-0.588566
-0.794672
-0.841818
-1.10772
110.833
69.3665
0.767758
0.10303
0.246832
0.200382
0.110065
-0.176677
0.0770336
0.168104
0.12893
0.0963492
0.0731047
0.0552552
0.040936
0.0293868
0.0199733
0.011978
0.00466015
-0.368925
-0.371103
-0.377017
-0.388602
-0.408545
-0.440741
-0.492364
-0.580227
-0.72791
-0.775506
-1.32741
110.261
93.7369
-1.5648
0.350643
0.206879
0.175672
0.0988685
-0.10594
0.0804519
0.15315
0.123966
0.0943594
0.0720636
0.0546782
0.0406312
0.0292104
0.0198612
0.0119184
0.00467484
-0.368622
-0.370794
-0.376515
-0.387324
-0.405688
-0.435108
-0.481517
-0.555814
-0.66237
-0.771826
-1.37327
-1.34331
-0.159672
-0.0845273
0.138821
0.170791
0.150528
0.0871442
-0.0546089
0.0783943
0.138769
0.118277
0.0919745
0.0708226
0.0539821
0.0402528
0.0289916
0.0197241
0.0118449
0.0046821
-0.363483
-0.365623
-0.371011
-0.380762
-0.396893
-0.422327
-0.461474
-0.520332
-0.601635
-0.728888
-1.14016
-1.41232
-0.519464
-0.167814
0.0648539
0.132968
0.125366
0.0761115
-0.0186656
0.0738139
0.125297
0.112014
0.0891712
0.0693543
0.0531529
0.0397892
0.0287222
0.0195573
0.0117548
0.00468049
-0.353746
-0.355521
-0.360062
-0.368404
-0.382014
-0.402994
-0.434185
-0.479047
-0.541401
-0.645105
-0.851323
-0.818562
-0.477493
-0.200883
0.0143634
0.0951464
0.100642
0.0657786
0.00560021
0.0696815
0.112826
0.105292
0.0859447
0.0676405
0.0521731
0.0392274
0.0283934
0.0193554
0.0116451
0.00466855
-0.339574
-0.340951
-0.344519
-0.351209
-0.362095
-0.378424
-0.401902
-0.434505
-0.479298
-0.544605
-0.614407
-0.565715
-0.391377
-0.198079
-0.022909
0.0602177
0.0770318
0.0560748
0.021039
0.065883
0.101424
0.0982584
0.082302
0.0656584
0.0510256
0.0385542
0.0279953
0.0191121
0.011512
0.00464467
-0.321056
-0.322243
-0.325164
-0.330315
-0.338334
-0.350075
-0.366534
-0.388575
-0.416902
-0.449787
-0.467464
-0.425953
-0.321317
-0.182888
-0.0477128
0.0303431
0.0553435
0.0469416
0.0298455
0.0621224
0.0910345
0.0910349
0.0782671
0.0633933
0.0496921
0.0377555
0.027517
0.0188205
0.0113515
0.00460719
-0.299869
-0.300634
-0.302586
-0.306107
-0.311582
-0.319429
-0.330011
-0.343363
-0.358576
-0.371619
-0.370062
-0.336028
-0.264475
-0.164821
-0.0625869
0.00644776
0.0362496
0.0382822
0.0337294
0.0581166
0.0815965
0.0837449
0.0738748
0.0608336
0.0481556
0.0368175
0.0269465
0.018473
0.0111588
0.00455423
-0.276075
-0.276613
-0.277902
-0.280114
-0.283453
-0.288094
-0.294015
-0.300795
-0.307083
-0.309381
-0.300618
-0.272132
-0.219768
-0.147257
-0.0702298
-0.0114445
0.0201823
0.0300902
0.0340805
0.053704
0.0729157
0.0764686
0.0691742
0.0579751
0.0464001
0.0357253
0.0262715
0.0180606
0.0109287
0.00448356
-0.251435
-0.25175
-0.252444
-0.253567
-0.255182
-0.257311
-0.259784
-0.26204
-0.262856
-0.259701
-0.248485
-0.224454
-0.184778
-0.131186
-0.0728704
-0.0239494
0.00726584
0.0224219
0.0319807
0.0488363
0.0648254
0.0692937
0.0642164
0.0548221
0.0444128
0.0344644
0.025479
0.0175733
0.0106551
0.00439254
-0.227065
-0.227094
-0.227128
-0.227255
-0.227533
-0.227867
-0.228001
-0.22743
-0.225158
-0.219473
-0.207872
-0.187635
-0.156959
-0.116704
-0.0721704
-0.0319681
-0.00263847
0.0154257
0.0283377
0.0435835
0.0572249
0.0622584
0.0590606
0.051388
0.0421839
0.0330203
0.0245557
0.0170002
0.0103315
0.00427819
-0.20206
-0.201953
-0.201695
-0.201292
-0.200757
-0.200015
-0.198793
-0.19664
-0.192852
-0.186272
-0.175321
-0.158393
-0.134363
-0.103654
-0.0692819
-0.0364414
-0.00983899
0.0092414
0.0238497
0.0380657
0.0500553
0.0554172
0.0537662
0.0476949
0.0397092
0.0313805
0.0234882
0.01633
0.00995051
0.00413732
-0.176739
-0.176611
-0.176319
-0.175811