/*--------------------------------*- C++ -*----------------------------------*\
| =========                 |                                                 |
| \\      /  F ield         | OpenFOAM: The Open Source CFD Toolbox           |
|  \\    /   O peration     | Version:  2.4.0                                 |
|   \\  /    A nd           | Web:      www.OpenFOAM.org                      |
|    \\/     M anipulation  |                                                 |
\*---------------------------------------------------------------------------*/
FoamFile
{
    version     2.0;
    format      ascii;
    class       volVectorField;
    location    "0.005";
    object      U;
}
// * * * * * * * * * * * * * * * * * * * * * * * * * * * * * * * * * * * * * //

dimensions      [0 1 -1 0 0 0 0];

internalField   nonuniform List<vector> 
14400
(
(-6.40492e-05 1.15032e-05 0)
(-0.000309255 4.68189e-06 0)
(-0.000699108 8.5037e-06 0)
(-0.00134771 1.55978e-05 0)
(-0.00239917 2.73967e-05 0)
(-0.00402057 4.56547e-05 0)
(-0.00639246 7.21965e-05 0)
(-0.00968881 0.000108529 0)
(-0.0140477 0.000155235 0)
(-0.0195325 0.000211097 0)
(-0.0260883 0.000272074 0)
(-0.033499 0.000330496 0)
(-0.0413669 0.000375232 0)
(-0.0491335 0.000393255 0)
(-0.0561489 0.000372506 0)
(-0.0617811 0.000305564 0)
(-0.0655286 0.000191735 0)
(-0.0671067 3.74675e-05 0)
(-0.0664812 -0.000145165 0)
(-0.0638363 -0.000341596 0)
(-0.0595169 -0.00053688 0)
(-0.0539461 -0.000718974 0)
(-0.0475556 -0.00087945 0)
(-0.0407327 -0.00101405 0)
(-0.0337977 -0.00112155 0)
(-0.0269928 -0.00120338 0)
(-0.0204856 -0.00126244 0)
(-0.014384 -0.00130175 0)
(-0.00874567 -0.00132536 0)
(-0.00359133 -0.0013364 0)
(-6.44024e-05 2.86059e-05 0)
(-0.000366118 2.9577e-05 0)
(-0.000827836 5.37362e-05 0)
(-0.00159637 9.85976e-05 0)
(-0.0028429 0.000173276 0)
(-0.00476651 0.000288968 0)
(-0.00758322 0.000457464 0)
(-0.0115029 0.00068874 0)
(-0.0166951 0.000987148 0)
(-0.0232435 0.0013459 0)
(-0.031093 0.00174033 0)
(-0.0399973 0.00212223 0)
(-0.0494892 0.00241972 0)
(-0.058899 0.00254649 0)
(-0.0674333 0.00242063 0)
(-0.0743083 0.00198957 0)
(-0.0788952 0.00124654 0)
(-0.0808341 0.00023535 0)
(-0.0800814 -0.000961302 0)
(-0.0768684 -0.00224271 0)
(-0.0716264 -0.00351047 0)
(-0.064879 -0.0046859 0)
(-0.0571557 -0.0057166 0)
(-0.0489264 -0.00657696 0)
(-0.0405758 -0.0072624 0)
(-0.0323932 -0.00778323 0)
(-0.0245769 -0.00815821 0)
(-0.0172529 -0.00841042 0)
(-0.0104882 -0.00856234 0)
(-0.00430627 -0.00863572 0)
(-6.40284e-05 4.56865e-05 0)
(-0.000364609 5.48487e-05 0)
(-0.000824399 9.96569e-05 0)
(-0.00158973 0.000182867 0)
(-0.00283112 0.000321411 0)
(-0.00474694 0.000536098 0)
(-0.00755263 0.000848904 0)
(-0.011458 0.00127854 0)
(-0.0166334 0.00183346 0)
(-0.0231657 0.00250162 0)
(-0.0310057 0.00323799 0)
(-0.0399165 0.00395374 0)
(-0.0494425 0.00451535 0)
(-0.058924 0.00476127 0)
(-0.0675715 0.00453662 0)
(-0.0745952 0.00374031 0)
(-0.0793499 0.00235738 0)
(-0.081453 0.000468796 0)
(-0.0808391 -0.00176988 0)
(-0.0777218 -0.00416873 0)
(-0.0725245 -0.00654277 0)
(-0.0657712 -0.00874371 0)
(-0.0579982 -0.0106733 0)
(-0.0496857 -0.0122836 0)
(-0.0412299 -0.0135661 0)
(-0.0329296 -0.0145405 0)
(-0.0249915 -0.0152423 0)
(-0.0175474 -0.0157142 0)
(-0.0106684 -0.015999 0)
(-0.00438061 -0.0161368 0)
(-6.34817e-05 6.26418e-05 0)
(-0.000361992 7.99763e-05 0)
(-0.00081844 0.000145313 0)
(-0.00157822 0.00026665 0)
(-0.00281066 0.0004687 0)
(-0.00471287 0.000781842 0)
(-0.00749919 0.00123824 0)
(-0.011379 0.0018654 0)
(-0.016524 0.00267614 0)
(-0.0230254 0.0036538 0)
(-0.0308435 0.00473401 0)
(-0.0397563 0.00578875 0)
(-0.0493272 0.00662419 0)
(-0.0589143 0.00700377 0)
(-0.0677363 0.00669804 0)
(-0.0749955 0.00555338 0)
(-0.0800215 0.00354196 0)
(-0.0823953 0.000777717 0)
(-0.0820136 -0.00251299 0)
(-0.0790609 -0.00605026 0)
(-0.0739454 -0.00955971 0)
(-0.0671909 -0.0128195 0)
(-0.0593441 -0.0156816 0)
(-0.0509023 -0.0180726 0)
(-0.0422795 -0.0199783 0)
(-0.0337915 -0.021427 0)
(-0.0256582 -0.022471 0)
(-0.0180212 -0.0231728 0)
(-0.0109588 -0.0235963 0)
(-0.00450008 -0.0238011 0)
(-6.27647e-05 7.94303e-05 0)
(-0.000358404 0.000104885 0)
(-0.00081027 0.00019057 0)
(-0.00156242 0.000349707 0)
(-0.00278259 0.000614725 0)
(-0.00466614 0.00102552 0)
(-0.00742586 0.00162442 0)
(-0.0112705 0.00244785 0)
(-0.0163735 0.00351335 0)
(-0.0228321 0.0048005 0)
(-0.0306191 0.00622719 0)
(-0.0395331 0.00762828 0)
(-0.0491636 0.00875159 0)
(-0.0588937 0.00928619 0)
(-0.0679546 0.00892571 0)
(-0.0755388 0.00745833 0)
(-0.0809423 0.00483616 0)
(-0.0836953 0.00119953 0)
(-0.0836416 -0.00315725 0)
(-0.0809239 -0.00786389 0)
(-0.0759279 -0.0125521 0)
(-0.069176 -0.0169208 0)
(-0.0612295 -0.0207657 0)
(-0.0526085 -0.023984 0)
(-0.0437531 -0.0265526 0)
(-0.0350023 -0.028507 0)
(-0.0265951 -0.0299163 0)
(-0.0186875 -0.0308642 0)
(-0.0113668 -0.0314363 0)
(-0.00466825 -0.0317124 0)
(-6.18793e-05 9.60043e-05 0)
(-0.000353855 0.000129512 0)
(-0.000799909 0.000235311 0)
(-0.0015424 0.00043182 0)
(-0.002747 0.000759104 0)
(-0.00460685 0.00126651 0)
(-0.00733279 0.00200649 0)
(-0.0111328 0.00302452 0)
(-0.0161822 0.00434336 0)
(-0.0225856 0.00593995 0)
(-0.0303316 0.00771643 0)
(-0.0392446 0.00947334 0)
(-0.0489472 0.0109029 0)
(-0.0588553 0.0116206 0)
(-0.0682179 0.0112407 0)
(-0.0762172 0.0094853 0)
(-0.0821078 0.00627706 0)
(-0.0853553 0.00177404 0)
(-0.0857335 -0.00366671 0)
(-0.0833307 -0.00958326 0)
(-0.0784999 -0.0155084 0)
(-0.0717599 -0.0210533 0)
(-0.0636896 -0.0259499 0)
(-0.0548393 -0.0300586 0)
(-0.0456824 -0.0333444 0)
(-0.0365891 -0.0358476 0)
(-0.0278239 -0.0376545 0)
(-0.0195616 -0.0388704 0)
(-0.0119023 -0.0396045 0)
(-0.00488884 -0.0399588 0)
(-6.08277e-05 0.000112322 0)
(-0.000348357 0.000153786 0)
(-0.000787387 0.00027941 0)
(-0.0015182 0.000512763 0)
(-0.00270397 0.000901446 0)
(-0.00453517 0.00150416 0)
(-0.00722021 0.00238346 0)
(-0.010966 0.00359401 0)
(-0.0159501 0.00516437 0)
(-0.0222857 0.00707019 0)
(-0.0299798 0.00920034 0)
(-0.0388877 0.0113245 0)
(-0.0486723 0.0130826 0)
(-0.0587902 0.0140184 0)
(-0.0685152 0.0136634 0)
(-0.0770202 0.0116649 0)
(-0.0835117 0.00790361 0)
(-0.087377 0.00254393 0)
(-0.088303 -0.00400062 0)
(-0.0863066 -0.0111772 0)
(-0.0816972 -0.0184126 0)
(-0.0749858 -0.0252201 0)
(-0.0667713 -0.0312569 0)
(-0.0576406 -0.0363387 0)
(-0.0481094 -0.0404121 0)
(-0.0385879 -0.0435206 0)
(-0.029373 -0.045767 0)
(-0.0206642 -0.0472797 0)
(-0.012578 -0.0481935 0)
(-0.00516736 -0.0486343 0)
(-5.96126e-05 0.000128338 0)
(-0.000341926 0.000177647 0)
(-0.000772737 0.000322749 0)
(-0.00148988 0.000592315 0)
(-0.00265362 0.00104137 0)
(-0.00445126 0.00173784 0)
(-0.00708835 0.00275436 0)
(-0.0107704 0.00415493 0)
(-0.0156775 0.00597454 0)
(-0.0219321 0.00818917 0)
(-0.0295624 0.0106773 0)
(-0.0384589 0.0131817 0)
(-0.048332 0.0152947 0)
(-0.0586878 0.0164901 0)
(-0.0688328 0.016214 0)
(-0.077934 0.0140285 0)
(-0.0851452 0.00975731 0)
(-0.0897628 0.00355652 0)
(-0.0913644 -0.00411364 0)
(-0.0898827 -0.0126089 0)
(-0.0855649 -0.0212437 0)
(-0.0789088 -0.0294207 0)
(-0.0705341 -0.0367091 0)
(-0.0610714 -0.0428681 0)
(-0.0510884 -0.0478189 0)
(-0.0410449 -0.0516046 0)
(-0.0312793 -0.0543438 0)
(-0.0220219 -0.0561901 0)
(-0.0134106 -0.0573056 0)
(-0.00551051 -0.0578438 0)
(-5.82376e-05 0.000144009 0)
(-0.000334579 0.000201025 0)
(-0.000756 0.000365209 0)
(-0.00145752 0.000670264 0)
(-0.00259608 0.00117849 0)
(-0.00435534 0.00196694 0)
(-0.00693753 0.00311822 0)
(-0.0105465 0.00470588 0)
(-0.0153646 0.00677207 0)
(-0.0215246 0.00929477 0)
(-0.0290778 0.0121453 0)
(-0.0379542 0.0150446 0)
(-0.0479184 0.0175422 0)
(-0.0585352 0.0190453 0)
(-0.0691538 0.0189119 0)
(-0.0789416 0.016608 0)
(-0.0869966 0.0118821 0)
(-0.0925108 0.00486404 0)
(-0.0949373 -0.00395152 0)
(-0.0940961 -0.0138335 0)
(-0.0901579 -0.0239736 0)
(-0.0835967 -0.0336501 0)
(-0.0750524 -0.0423272 0)
(-0.065206 -0.0496929 0)
(-0.0546876 -0.0556334 0)
(-0.0440188 -0.0601862 0)
(-0.0335894 -0.0634857 0)
(-0.0236686 -0.0657116 0)
(-0.0144205 -0.0670575 0)
(-0.00592682 -0.0677068 0)
(-5.67058e-05 0.000159294 0)
(-0.000326338 0.000223862 0)
(-0.000737219 0.000406676 0)
(-0.00142121 0.000746397 0)
(-0.0025315 0.00131245 0)
(-0.00424764 0.00219084 0)
(-0.00676808 0.0034741 0)
(-0.0102946 0.00524548 0)
(-0.0150117 0.00755502 0)
(-0.021063 0.0103847 0)
(-0.0285244 0.0136022 0)
(-0.0373691 0.0169118 0)
(-0.0474225 0.0198268 0)
(-0.0583176 0.0216923 0)
(-0.0694582 0.021776 0)
(-0.0800217 0.0194362 0)
(-0.0890502 0.014325 0)
(-0.09562 0.00652374 0)
(-0.0990388 -0.00345681 0)
(-0.0989886 -0.0147965 0)
(-0.0955411 -0.026565 0)
(-0.0891319 -0.0378968 0)
(-0.0804178 -0.0481294 0)
(-0.0701361 -0.0568616 0)
(-0.0589924 -0.0639306 0)
(-0.047583 -0.0693625 0)
(-0.0363615 -0.0733058 0)
(-0.0256461 -0.0759689 0)
(-0.0156339 -0.0775799 0)
(-0.00642726 -0.0783574 0)
(-5.50215e-05 0.000174153 0)
(-0.000317226 0.00024609 0)
(-0.000716448 0.000447034 0)
(-0.00138104 0.000820504 0)
(-0.00246005 0.00144287 0)
(-0.00412845 0.00240893 0)
(-0.00658039 0.00382105 0)
(-0.0100151 0.00577232 0)
(-0.0146193 0.0083215 0)
(-0.0205471 0.0114564 0)
(-0.0279005 0.0150452 0)
(-0.0366989 0.0187815 0)
(-0.0468343 0.0221492 0)
(-0.0580182 0.0244376 0)
(-0.0697228 0.0248236 0)
(-0.0811483 0.0225459 0)
(-0.0912853 0.0171364 0)
(-0.0990855 0.00860072 0)
(-0.103687 -0.00255658 0)
(-0.104607 -0.015431 0)
(-0.101791 -0.0289691 0)
(-0.0956137 -0.0421402 0)
(-0.0867421 -0.0541304 0)
(-0.0759754 -0.0644245 0)
(-0.0641078 -0.0727936 0)
(-0.0518277 -0.0792431 0)
(-0.0396678 -0.0839335 0)
(-0.0280068 -0.0871048 0)
(-0.0170832 -0.0890242 0)
(-0.0070249 -0.0899507 0)
(-5.31889e-05 0.000188543 0)
(-0.000307266 0.000267655 0)
(-0.000693742 0.000486177 0)
(-0.00133713 0.000892386 0)
(-0.00238192 0.00156941 0)
(-0.00399805 0.00262065 0)
(-0.00637491 0.00415815 0)
(-0.00970878 0.00628504 0)
(-0.0141878 0.00906954 0)
(-0.019977 0.0125074 0)
(-0.0272045 0.0164713 0)
(-0.0359385 0.0206508 0)
(-0.0461429 0.0245087 0)
(-0.057618 0.0272862 0)
(-0.0699203 0.0280708 0)
(-0.08229 0.0259699 0)
(-0.0936754 0.0203701 0)
(-0.102896 0.0111677 0)
(-0.108899 -0.00116466 0)
(-0.111006 -0.015655 0)
(-0.108996 -0.0311221 0)
(-0.10316 -0.0463485 0)
(-0.0941612 -0.0603397 0)
(-0.0828633 -0.0724349 0)
(-0.0701643 -0.0823156 0)
(-0.0568653 -0.0899535 0)
(-0.0435976 -0.0955188 0)
(-0.0308151 -0.0992859 0)
(-0.0188084 -0.101567 0)
(-0.0077367 -0.102669 0)
(-5.12126e-05 0.000202428 0)
(-0.000296489 0.000288495 0)
(-0.000669162 0.000523995 0)
(-0.00128958 0.000961846 0)
(-0.00229731 0.00169173 0)
(-0.00385678 0.0028254 0)
(-0.00615211 0.00448449 0)
(-0.00937607 0.00678226 0)
(-0.0137178 0.00979716 0)
(-0.0193525 0.0135349 0)
(-0.0264347 0.017877 0)
(-0.0350828 0.022516 0)
(-0.045337 0.0269029 0)
(-0.0570963 0.0302404 0)
(-0.0700197 0.0315311 0)
(-0.0834093 0.0297407 0)
(-0.0961859 0.024083 0)
(-0.107036 0.0143065 0)
(-0.11469 0.000825037 0)
(-0.118239 -0.0153711 0)
(-0.117259 -0.0329408 0)
(-0.111912 -0.0504745 0)
(-0.10284 -0.0667583 0)
(-0.0909708 -0.0809477 0)
(-0.0773226 -0.0926011 0)
(-0.0628341 -0.101639 0)
(-0.0482605 -0.108236 0)
(-0.0341502 -0.112706 0)
(-0.0208581 -0.115415 0)
(-0.00858235 -0.116723 0)
(-4.90976e-05 0.00021577 0)
(-0.000284922 0.000308556 0)
(-0.000642777 0.000560387 0)
(-0.00123854 0.00102869 0)
(-0.00220645 0.00180948 0)
(-0.00370501 0.00302263 0)
(-0.00591254 0.00479918 0)
(-0.00901772 0.00726261 0)
(-0.01321 0.0105023 0)
(-0.0186739 0.014536 0)
(-0.0255898 0.0192584 0)
(-0.0341265 0.0243723 0)
(-0.0444045 0.0293274 0)
(-0.0564305 0.0333 0)
(-0.0699859 0.0352156 0)
(-0.0844616 0.0338897 0)
(-0.0987733 0.0283348 0)
(-0.111476 0.0181071 0)
(-0.121071 0.00350812 0)
(-0.126363 -0.0144559 0)
(-0.126692 -0.0343178 0)
(-0.122035 -0.0544487 0)
(-0.112979 -0.073376 0)
(-0.100509 -0.0900188 0)
(-0.0857809 -0.103769 0)
(-0.0699045 -0.114467 0)
(-0.0537913 -0.122289 0)
(-0.0381088 -0.127594 0)
(-0.0232917 -0.13081 0)
(-0.00958669 -0.132363 0)
(-4.68499e-05 0.000228533 0)
(-0.0002726 0.00032778 0)
(-0.000614656 0.000595252 0)
(-0.00118413 0.00109275 0)
(-0.00210958 0.00192235 0)
(-0.00354311 0.00321182 0)
(-0.00565676 0.00510137 0)
(-0.00863447 0.00772475 0)
(-0.0126652 0.011183 0)
(-0.0179416 0.0155077 0)
(-0.0246683 0.020611 0)
(-0.0330646 0.0262142 0)
(-0.0433331 0.031776 0)
(-0.0555963 0.0364618 0)
(-0.0697794 0.0391315 0)
(-0.0853944 0.0384464 0)
(-0.101383 0.0331879 0)
(-0.11618 0.02267 0)
(-0.128038 0.0070273 0)
(-0.13544 -0.0127592 0)
(-0.137426 -0.0351134 0)
(-0.133724 -0.0581741 0)
(-0.124822 -0.0801646 0)
(-0.111739 -0.0997053 0)
(-0.0957863 -0.115956 0)
(-0.0782863 -0.12864 0)
(-0.0603542 -0.137923 0)
(-0.0428091 -0.144221 0)
(-0.0261829 -0.148041 0)
(-0.0107803 -0.149887 0)
(-4.44746e-05 0.000240683 0)
(-0.000259557 0.000346121 0)
(-0.000584877 0.000628496 0)
(-0.00112651 0.00115383 0)
(-0.00200695 0.00203003 0)
(-0.00337151 0.00339242 0)
(-0.0053854 0.00539019 0)
(-0.00822717 0.00816737 0)
(-0.0120843 0.0118371 0)
(-0.0171562 0.0164466 0)
(-0.0236694 0.02193 0)
(-0.0318925 0.0280347 0)
(-0.0421105 0.0342404 0)
(-0.0545681 0.0397185 0)
(-0.0693561 0.0432816 0)
(-0.0861466 0.0434369 0)
(-0.103947 0.0387058 0)
(-0.121095 0.0281057 0)
(-0.135584 0.0115423 0)
(-0.145521 -0.0101029 0)
(-0.149597 -0.0351492 0)
(-0.147206 -0.0615145 0)
(-0.138665 -0.0870691 0)
(-0.124989 -0.110061 0)
(-0.107648 -0.129324 0)
(-0.0882376 -0.144397 0)
(-0.0681477 -0.155427 0)
(-0.0483931 -0.162909 0)
(-0.0296207 -0.16745 0)
(-0.0122007 -0.169647 0)
(-4.19776e-05 0.000252187 0)
(-0.000245829 0.000363522 0)
(-0.000553521 0.000660024 0)
(-0.00106582 0.00121178 0)
(-0.00189884 0.00213222 0)
(-0.00319065 0.00356394 0)
(-0.00509913 0.00566484 0)
(-0.00779675 0.00858916 0)
(-0.0114684 0.0124626 0)
(-0.0163183 0.0173496 0)
(-0.0225924 0.0232101 0)
(-0.0306057 0.0298262 0)
(-0.0407248 0.0367098 0)
(-0.0533193 0.0430588 0)
(-0.0686682 0.0476629 0)
(-0.0866474 0.0488823 0)
(-0.106383 0.0449524 0)
(-0.126146 0.0345331 0)
(-0.143669 0.0172239 0)
(-0.156659 -0.00626472 0)
(-0.163352 -0.0341989 0)
(-0.162744 -0.0642798 0)
(-0.154873 -0.0939937 0)
(-0.140674 -0.121131 0)
(-0.121758 -0.144067 0)
(-0.100074 -0.162037 0)
(-0.0774055 -0.175152 0)
(-0.0550294 -0.184036 0)
(-0.033716 -0.189441 0)
(-0.0138972 -0.192067 0)
(-3.93652e-05 0.000263012 0)
(-0.000231456 0.000379942 0)
(-0.000520674 0.000689753 0)
(-0.00100223 0.00126642 0)
(-0.00178554 0.00222864 0)
(-0.00300101 0.00372591 0)
(-0.00479866 0.00592455 0)
(-0.00734418 0.00898885 0)
(-0.0108187 0.0130574 0)
(-0.0154292 0.0182132 0)
(-0.0214372 0.0244457 0)
(-0.0292006 0.0315798 0)
(-0.0391648 0.0391713 0)
(-0.0518229 0.0464669 0)
(-0.0676631 0.0522655 0)
(-0.0868152 0.0547972 0)
(-0.108588 0.0519902 0)
(-0.131237 0.0420803 0)
(-0.152244 0.024275 0)
(-0.168875 -0.000985389 0)
(-0.178844 -0.0319767 0)
(-0.180636 -0.0662076 0)
(-0.173888 -0.100777 0)
(-0.159331 -0.132943 0)
(-0.138625 -0.160436 0)
(-0.114175 -0.181949 0)
(-0.0883874 -0.197524 0)
(-0.0629113 -0.208035 0)
(-0.0386183 -0.214482 0)
(-0.0159449 -0.217665 0)
(-3.66428e-05 0.000273132 0)
(-0.000216478 0.000395334 0)
(-0.000486424 0.000717602 0)
(-0.000935922 0.00131763 0)
(-0.00166734 0.00231902 0)
(-0.00280307 0.00387786 0)
(-0.00448476 0.00616854 0)
(-0.00687054 0.00936523 0)
(-0.0101366 0.0136195 0)
(-0.0144902 0.019034 0)
(-0.0202042 0.0256308 0)
(-0.0276744 0.0332857 0)
(-0.0374203 0.0416094 0)
(-0.0500521 0.0499213 0)
(-0.0662854 0.0570712 0)
(-0.0865578 0.0611869 0)
(-0.110442 0.0598768 0)
(-0.136243 0.0508811 0)
(-0.161213 0.0329246 0)
(-0.182182 0.00608888 0)
(-0.196215 -0.0281042 0)
(-0.201204 -0.0669386 0)
(-0.196245 -0.107157 0)
(-0.181672 -0.145475 0)
(-0.158937 -0.178767 0)
(-0.130981 -0.204671 0)
(-0.101336 -0.223065 0)
(-0.0722412 -0.235358 0)
(-0.044563 -0.243068 0)
(-0.0184984 -0.247103 0)
(-3.3817e-05 0.000282517 0)
(-0.000200938 0.000409657 0)
(-0.000450865 0.000743492 0)
(-0.000867065 0.00136524 0)
(-0.00154457 0.00240311 0)
(-0.00259736 0.00401937 0)
(-0.00415823 0.00639612 0)
(-0.006377 0.00971712 0)
(-0.00942357 0.014147 0)
(-0.013503 0.0198084 0)
(-0.0188943 0.0267588 0)
(-0.0260253 0.0349333 0)
(-0.0354832 0.0440062 0)
(-0.0479814 0.0533948 0)
(-0.0644764 0.0620515 0)
(-0.085771 0.0680442 0)
(-0.1118 0.0686626 0)
(-0.141003 0.0610724 0)
(-0.170443 0.0434222 0)
(-0.196539 0.015278 0)
(-0.215583 -0.0221577 0)
(-0.224785 -0.0660095 0)
(-0.222573 -0.112707 0)
(-0.208674 -0.15858 0)
(-0.183689 -0.199559 0)
(-0.150948 -0.231053 0)
(-0.116324 -0.252449 0)
(-0.0831382 -0.266305 0)
(-0.0519727 -0.275523 0)
(-0.0219329 -0.281327 0)
(-3.08945e-05 0.000291141 0)
(-0.000184881 0.000422869 0)
(-0.000414093 0.000767352 0)
(-0.000795846 0.00140914 0)
(-0.00141756 0.00248068 0)
(-0.00238443 0.00415003 0)
(-0.00381991 0.00660661 0)
(-0.00586478 0.0100434 0)
(-0.00868131 0.0146379 0)
(-0.0124696 0.020533 0)
(-0.0175092 0.0278232 0)
(-0.0242522 0.0365112 0)
(-0.0333474 0.0463419 0)
(-0.0455872 0.0568539 0)
(-0.0621763 0.0671667 0)
(-0.0843394 0.0753463 0)
(-0.11249 0.078387 0)
(-0.145319 0.0727903 0)
(-0.179738 0.0560373 0)
(-0.211841 0.0270539 0)
(-0.237048 -0.0135605 0)
(-0.251699 -0.06277 0)
(-0.25354 -0.116749 0)
(-0.241671 -0.171785 0)
(-0.214385 -0.22364 0)
(-0.174207 -0.262664 0)
(-0.132772 -0.286676 0)
(-0.0952328 -0.300563 0)
(-0.0611024 -0.311351 0)
(-0.0266765 -0.321722 0)
(-2.78812e-05 0.000298982 0)
(-0.000168354 0.000434939 0)
(-0.000376209 0.000789117 0)
(-0.000722461 0.00144919 0)
(-0.00128664 0.00255151 0)
(-0.00216483 0.00426947 0)
(-0.00347068 0.00679937 0)
(-0.00533518 0.0103429 0)
(-0.00791164 0.0150903 0)
(-0.0113926 0.0212043 0)
(-0.0160513 0.0288171 0)
(-0.0223557 0.0380074 0)
(-0.03101 0.0485947 0)
(-0.0428496 0.0602583 0)
(-0.0593254 0.0723636 0)
(-0.0821363 0.0830495 0)
(-0.112313 0.0890727 0)
(-0.148951 0.0861656 0)
(-0.18883 0.0710447 0)
(-0.227916 0.0419152 0)
(-0.260629 -0.00169511 0)
(-0.282211 -0.0564769 0)
(-0.289663 -0.118336 0)
(-0.282023 -0.183952 0)
(-0.252027 -0.25276 0)
(-0.198435 -0.302736 0)
(-0.148293 -0.326993 0)
(-0.106583 -0.336408 0)
(-0.068604 -0.349585 0)
(-0.0305489 -0.368574 0)
(-2.47839e-05 0.000306018 0)
(-0.000151403 0.000445829 0)
(-0.000337316 0.000808726 0)
(-0.000647109 0.00148529 0)
(-0.00115218 0.00261539 0)
(-0.00193917 0.00437734 0)
(-0.00311148 0.0069738 0)
(-0.00478961 0.0106148 0)
(-0.0071166 0.0155025 0)
(-0.0102746 0.0218189 0)
(-0.0145239 0.0297334 0)
(-0.0203372 0.0394096 0)
(-0.0284718 0.0507416 0)
(-0.0397536 0.0635608 0)
(-0.0558669 0.077574 0)
(-0.0790255 0.0910835 0)
(-0.111034 0.10072 0)
(-0.151615 0.101318 0)
(-0.197351 0.0887009 0)
(-0.24448 0.0604829 0)
(-0.286307 0.0142717 0)
(-0.316434 -0.046201 0)
(-0.330519 -0.116684 0)
(-0.326043 -0.19425 0)
(-0.286094 -0.292213 0)
(-0.212672 -0.355833 0)
(-0.160627 -0.372895 0)
(-0.112911 -0.37466 0)
(-0.0642392 -0.387656 0)
(-0.0287456 -0.416536 0)
(-2.16081e-05 0.000312227 0)
(-0.000134079 0.000455515 0)
(-0.000297519 0.000826126 0)
(-0.000569994 0.00151734 0)
(-0.00101453 0.00267215 0)
(-0.00170804 0.00447332 0)
(-0.00274325 0.00712938 0)
(-0.00422951 0.0108581 0)
(-0.00629828 0.0158728 0)
(-0.00911903 0.0223738 0)
(-0.0129312 0.0305651 0)
(-0.0181994 0.0407052 0)
(-0.0257381 0.0527594 0)
(-0.0362908 0.066707 0)
(-0.0517498 0.0827146 0)
(-0.0748639 0.099345 0)
(-0.10838 0.113301 0)
(-0.152989 0.11836 0)
(-0.204815 0.109169 0)
(-0.261106 0.0835273 0)
(-0.313996 0.0350672 0)
(-0.354161 -0.031149 0)
(-0.370719 -0.114938 0)
(-0.338671 -0.214025 0)
(-0.274172 -0.351532 0)
(-0.198802 -0.421064 0)
(-0.143965 -0.402619 0)
(-0.103307 -0.422857 0)
(-0.059247 -0.427922 0)
(-0.0186097 -0.449989 0)
(-1.83599e-05 0.000317593 0)
(-0.000116433 0.000463964 0)
(-0.000256927 0.000841268 0)
(-0.000491326 0.00154525 0)
(-0.000874065 0.00272162 0)
(-0.00147207 0.00455714 0)
(-0.00236699 0.00726561 0)
(-0.00365639 0.0110718 0)
(-0.00545901 0.0161997 0)
(-0.00792931 0.022866 0)
(-0.0112784 0.0313051 0)
(-0.0159456 0.0418813 0)
(-0.0228202 0.054626 0)
(-0.0324613 0.0696349 0)
(-0.0469336 0.0876866 0)
(-0.069507 0.107687 0)
(-0.104026 0.126745 0)
(-0.152711 0.137411 0)
(-0.21051 0.132195 0)
(-0.276933 0.111924 0)
(-0.34332 0.0618875 0)
(-0.393937 -0.0121637 0)
(-0.395785 -0.130359 0)
(-0.299781 -0.284104 0)
(-0.240058 -0.352086 0)
(-0.21834 -0.489696 0)
(-0.134121 -0.42428 0)
(-0.0962111 -0.474068 0)
(-0.07776 -0.484071 0)
(-0.038738 -0.497941 0)
(-1.50449e-05 0.000322099 0)
(-9.85177e-05 0.000471155 0)
(-0.00021565 0.000854108 0)
(-0.000411322 0.00156894 0)
(-0.000731178 0.00276367 0)
(-0.00123191 0.00462852 0)
(-0.00198372 0.00738205 0)
(-0.00307187 0.0112553 0)
(-0.00460119 0.0164819 0)
(-0.00670944 0.0232931 0)
(-0.00957228 0.0319466 0)
(-0.0135793 0.0429248 0)
(-0.0197356 0.0563225 0)
(-0.0282753 0.0722745 0)
(-0.0413927 0.0923788 0)
(-0.0628198 0.115913 0)
(-0.0975817 0.140931 0)
(-0.150287 0.158576 0)
(-0.211896 0.155843 0)
(-0.281175 0.144751 0)
(-0.370954 0.103831 0)
(-0.429609 0.00266824 0)
(-0.403724 -0.169882 0)
(-0.376357 -0.305524 0)
(-0.339152 -0.402979 0)
(-0.200832 -0.517413 0)
(-0.129291 -0.498848 0)
(-0.124642 -0.531834 0)
(-0.1001 -0.558264 0)
(-0.0508499 -0.577682 0)
(-1.16686e-05 0.000325735 0)
(-8.03873e-05 0.000477064 0)
(-0.000173799 0.000864612 0)
(-0.000330197 0.00158834 0)
(-0.000586251 0.00279816 0)
(-0.000988192 0.00468726 0)
(-0.00159449 0.00747833 0)
(-0.00247755 0.0114079 0)
(-0.00372734 0.016718 0)
(-0.00546361 0.0236529 0)
(-0.0078207 0.0324834 0)
(-0.0111031 0.0438222 0)
(-0.0165104 0.0578385 0)
(-0.0237554 0.0745514 0)
(-0.0351223 0.0966862 0)
(-0.0546932 0.123784 0)
(-0.0885319 0.155668 0)
(-0.14442 0.181967 0)
(-0.195879 0.178243 0)
(-0.186035 0.17632 0)
(-0.350492 0.172497 0)
(-0.448815 -0.00796424 0)
(-0.473665 -0.181095 0)
(-0.527695 -0.334542 0)
(-0.453482 -0.495696 0)
(0.00655875 -0.447105 0)
(-0.214648 -0.655381 0)
(-0.21019 -0.566924 0)
(-0.120611 -0.610972 0)
(-0.0464399 -0.612084 0)
(-8.2369e-06 0.000328464 0)
(-6.20966e-05 0.000481706 0)
(-0.000131489 0.000872809 0)
(-0.000248175 0.00160351 0)
(-0.000439681 0.00282519 0)
(-0.000741598 0.0047335 0)
(-0.00120038 0.00755465 0)
(-0.00187514 0.01153 0)
(-0.00284011 0.0169089 0)
(-0.00419637 0.0239474 0)
(-0.00603394 0.0329184 0)
(-0.00851761 0.0445752 0)
(-0.0131817 0.0592113 0)
(-0.0189386 0.0764404 0)
(-0.0281355 0.100595 0)
(-0.0449862 0.131096 0)
(-0.0754858 0.170466 0)
(-0.129239 0.208363 0)
(-0.171408 0.220793 0)
(-0.14695 0.219173 0)
(-0.265143 0.136603 0)
(-0.507551 -0.0224672 0)
(-0.681189 0.186512 0)
(-0.480385 -0.499872 0)
(-0.405357 -0.58502 0)
(-0.393644 -0.491099 0)
(-0.255483 -0.683808 0)
(-0.167345 -0.67322 0)
(-0.0934393 -0.707655 0)
(-0.040884 -0.728069 0)
(-5.95895e-06 0.000323775 0)
(-4.37055e-05 0.000485406 0)
(-8.88395e-05 0.00087937 0)
(-0.000165493 0.00161591 0)
(-0.000291905 0.00284808 0)
(-0.000492888 0.00477455 0)
(-0.000802665 0.00762667 0)
(-0.00126683 0.0116533 0)
(-0.00194313 0.0171153 0)
(-0.00291403 0.0242855 0)
(-0.00422773 0.0334315 0)
(-0.00582327 0.0454502 0)
(-0.00980143 0.0608682 0)
(-0.0138149 0.0782719 0)
(-0.0197474 0.10411 0)
(-0.0303387 0.137295 0)
(-0.046586 0.18349 0)
(-0.0894309 0.238877 0)
(-0.249903 0.262443 0)
(-0.486131 0.212916 0)
(-0.560798 0.125673 0)
(-0.499814 -0.0409518 0)
(-0.358261 0.336128 0)
(-0.0532235 -0.457238 0)
(-0.117357 -0.654389 0)
(-0.0866398 -0.650899 0)
(-0.0292415 -0.688391 0)
(-0.012367 -0.740655 0)
(0.00840308 -0.756295 0)
(0.0116321 -0.751145 0)
(-0.000538272 0.000269345 0)
(-2.67164e-05 0.000537106 0)
(-4.7997e-05 0.000971842 0)
(-8.5552e-05 0.00178309 0)
(-0.000148045 0.00313542 0)
(-0.000249391 0.00523824 0)
(-0.000411396 0.0083281 0)
(-0.000665917 0.0126478 0)
(-0.0010538 0.0184391 0)
(-0.00164062 0.0259507 0)
(-0.00245141 0.0353859 0)
(-0.00305536 0.0477081 0)
(-0.00590547 0.0636522 0)
(-0.00329189 0.0788721 0)
(0.0169177 0.10306 0)
(0.0344465 0.139949 0)
(0.0237527 0.194397 0)
(-0.119285 0.268059 0)
(-0.269888 0.344701 0)
(-0.269588 0.314074 0)
(-0.35349 0.222313 0)
(-0.729516 0.0301017 0)
(-0.311672 -0.509649 0)
(0.0271733 -0.404207 0)
(0.0856774 -0.671583 0)
(0.0782845 -0.670896 0)
(0.084812 -0.699522 0)
(0.0783121 -0.744094 0)
(0.0660591 -0.741869 0)
(0.0341134 -0.722169 0)
(0.00119831 -0.00133825 0)
(0.00610951 -0.00133222 0)
(0.0115073 -0.00131538 0)
(0.0173818 -0.0012843 0)
(0.0236962 -0.0012355 0)
(0.0303682 -0.00116569 0)
(0.0372636 -0.00107109 0)
(0.0441756 -0.000950129 0)
(0.0508261 -0.000802194 0)
(0.0568573 -0.000630082 0)
(0.0618559 -0.000440051 0)
(0.0653866 -0.000242453 0)
(0.0670559 -5.0921e-05 0)
(0.0665899 0.000119222 0)
(0.063908 0.000254464 0)
(0.0591689 0.000345191 0)
(0.0527735 0.000388452 0)
(0.0453018 0.000388467 0)
(0.0374086 0.000355389 0)
(0.0297099 0.000302204 0)
(0.0226892 0.000241281 0)
(0.0166532 0.000182129 0)
(0.0117327 0.000130539 0)
(0.00791838 8.90117e-05 0)
(0.00510399 5.77325e-05 0)
(0.0031295 3.55655e-05 0)
(0.00181458 2.07788e-05 0)
(0.000983595 1.15438e-05 0)
(0.000480471 6.24543e-06 0)
(0.000172489 3.66812e-06 0)
(0.00143735 -0.00864926 0)
(0.00732654 -0.00860785 0)
(0.0138016 -0.00849776 0)
(0.0208511 -0.00829841 0)
(0.0284329 -0.00798762 0)
(0.036451 -0.00754234 0)
(0.0447478 -0.006941 0)
(0.0530774 -0.00616874 0)
(0.0611066 -0.0052211 0)
(0.0684036 -0.00411303 0)
(0.0744642 -0.00288289 0)
(0.0787522 -0.00159675 0)
(0.0807779 -0.000344483 0)
(0.0801978 0.000771344 0)
(0.0769105 0.00165668 0)
(0.0711172 0.00224597 0)
(0.0633229 0.00252014 0)
(0.0542515 0.00251039 0)
(0.0447087 0.00228688 0)
(0.0354401 0.0019367 0)
(0.0270198 0.00154076 0)
(0.0198036 0.00115963 0)
(0.0139362 0.000829232 0)
(0.0093969 0.000564435 0)
(0.00605271 0.000365618 0)
(0.00370917 0.000225029 0)
(0.00214977 0.000131387 0)
(0.00116488 7.29648e-05 0)
(0.000568876 3.94611e-05 0)
(0.00020419 2.31708e-05 0)
(0.00146218 -0.0161612 0)
(0.00745278 -0.0160841 0)
(0.014038 -0.0158776 0)
(0.0212051 -0.0155045 0)
(0.0289084 -0.0149229 0)
(0.0370472 -0.0140899 0)
(0.0454566 -0.0129649 0)
(0.0538818 -0.0115194 0)
(0.0619787 -0.0097457 0)
(0.0693046 -0.00767106 0)
(0.0753463 -0.00536752 0)
(0.0795637 -0.00295934 0)
(0.0814705 -0.000615938 0)
(0.0807365 0.00147045 0)
(0.0772802 0.0031216 0)
(0.0713262 0.00421516 0)
(0.0633996 0.00471727 0)
(0.0542356 0.00468895 0)
(0.0446409 0.0042638 0)
(0.0353535 0.00360556 0)
(0.026936 0.00286513 0)
(0.0197335 0.00215453 0)
(0.0138831 0.00153972 0)
(0.00935952 0.00104758 0)
(0.00602805 0.000678377 0)
(0.00369385 0.000417439 0)
(0.00214084 0.000243696 0)
(0.00116004 0.000135324 0)
(0.000566522 7.31816e-05 0)
(0.00020335 4.2969e-05 0)
(0.00150198 -0.0238381 0)
(0.00765578 -0.0237231 0)
(0.0144188 -0.0234159 0)
(0.0217746 -0.0228608 0)
(0.029673 -0.0219959 0)
(0.0380047 -0.0207571 0)
(0.0465932 -0.0190848 0)
(0.0551686 -0.0169375 0)
(0.0633693 -0.0143053 0)
(0.0707345 -0.0112301 0)
(0.0767368 -0.00782136 0)
(0.0808301 -0.00426564 0)
(0.0825355 -0.000815054 0)
(0.0815459 0.00224563 0)
(0.0778138 0.00465553 0)
(0.0716025 0.00623861 0)
(0.0634689 0.00695078 0)
(0.0541649 0.00688738 0)
(0.0444968 0.00624842 0)
(0.0351882 0.00527485 0)
(0.0267829 0.00418658 0)
(0.0196082 0.0031457 0)
(0.0137893 0.00224687 0)
(0.00929403 0.00152821 0)
(0.00598504 0.000989414 0)
(0.00366723 0.000608758 0)
(0.00212534 0.000355357 0)
(0.00115164 0.000197322 0)
(0.000562438 0.000106706 0)
(0.000201892 6.26559e-05 0)
(0.00155815 -0.0317626 0)
(0.00794169 -0.0316074 0)
(0.014954 -0.0311925 0)
(0.0225755 -0.030443 0)
(0.0307475 -0.029275 0)
(0.0393494 -0.027603 0)
(0.0481884 -0.0253478 0)
(0.0569727 -0.0224555 0)
(0.0653158 -0.0189157 0)
(0.0727321 -0.0147891 0)
(0.0786741 -0.0102278 0)
(0.0825889 -0.00548655 0)
(0.0840085 -0.000906864 0)
(0.0826595 0.00313417 0)
(0.0785423 0.00629168 0)
(0.0719742 0.0083416 0)
(0.0635561 0.00923704 0)
(0.0540614 0.0091142 0)
(0.0442946 0.00824362 0)
(0.034959 0.00694421 0)
(0.0265715 0.00550342 0)
(0.0194359 0.00413117 0)
(0.0136604 0.00294901 0)
(0.00920414 0.00200506 0)
(0.00592604 0.00129788 0)
(0.00363071 0.000798451 0)
(0.00210408 0.000466057 0)
(0.00114012 0.00025878 0)
(0.00055684 0.000139939 0)
(0.000199894 8.21719e-05 0)
(0.00163196 -0.0400229 0)
(0.00831672 -0.0398241 0)
(0.0156565 -0.0392918 0)
(0.0236256 -0.03833 0)
(0.0321561 -0.0368321 0)
(0.0411109 -0.0346893 0)
(0.0502753 -0.0318025 0)
(0.059329 -0.0281061 0)
(0.0678528 -0.0235919 0)
(0.075328 -0.018345 0)
(0.0811825 -0.0125672 0)
(0.0848554 -0.00659016 0)
(0.0858957 -0.000850917 0)
(0.0840757 0.00417518 0)
(0.0794591 0.00806403 0)
(0.0724331 0.0105498 0)
(0.0636534 0.0115924 0)
(0.0539194 0.0113777 0)
(0.0440311 0.0102523 0)
(0.0346641 0.00861341 0)
(0.0263014 0.00681406 0)
(0.0192164 0.00510914 0)
(0.0134967 0.00364457 0)
(0.00909003 0.00247698 0)
(0.00585119 0.00160298 0)
(0.0035844 0.000986022 0)
(0.00207712 0.0005755 0)
(0.00112552 0.000319538 0)
(0.000549741 0.000172792 0)
(0.00019736 0.00010147 0)
(0.00172509 -0.0487139 0)
(0.00878998 -0.0484667 0)
(0.0165429 -0.0478043 0)
(0.0249502 -0.0466075 0)
(0.0339311 -0.0447444 0)
(0.0433283 -0.0420818 0)
(0.0528985 -0.0384996 0)
(0.0622846 -0.033922 0)
(0.0710257 -0.028347 0)
(0.0785624 -0.0218909 0)
(0.0842928 -0.0148154 0)
(0.0876487 -0.00753992 0)
(0.0882047 -0.000606269 0)
(0.0857918 0.00541025 0)
(0.0805551 0.0100078 0)
(0.0729678 0.0128889 0)
(0.0637506 0.0140324 0)
(0.0537318 0.0136856 0)
(0.0437019 0.0122766 0)
(0.0343018 0.0102818 0)
(0.025972 0.00811671 0)
(0.0189498 0.00607766 0)
(0.0132982 0.00433196 0)
(0.00895193 0.00294278 0)
(0.00576066 0.00190393 0)
(0.0035284 0.00117097 0)
(0.00204454 0.000683393 0)
(0.00110786 0.000379427 0)
(0.000541161 0.000205175 0)
(0.000194298 0.000120495 0)
(0.00183985 -0.0579412 0)
(0.00937312 -0.0576394 0)
(0.0176346 -0.0568305 0)
(0.0265808 -0.0553695 0)
(0.0361146 -0.0530965 0)
(0.0460523 -0.0498514 0)
(0.0561149 -0.0454929 0)
(0.0658992 -0.0399364 0)
(0.0748925 -0.0331917 0)
(0.0824859 -0.0254156 0)
(0.0880435 -0.0169426 0)
(0.0909924 -0.00829302 0)
(0.0909433 -0.000125671 0)
(0.0878037 0.00688446 0)
(0.0818187 0.0121596 0)
(0.0735642 0.0153845 0)
(0.0638351 0.0165722 0)
(0.0534896 0.0160447 0)
(0.043302 0.0143182 0)
(0.0338696 0.0119483 0)
(0.0255826 0.00940939 0)
(0.0186362 0.00703476 0)
(0.0130654 0.00500954 0)
(0.00879012 0.00340128 0)