/*--------------------------------*- C++ -*----------------------------------*\
| =========                 |                                                 |
| \\      /  F ield         | OpenFOAM: The Open Source CFD Toolbox           |
|  \\    /   O peration     | Version:  2.4.0                                 |
|   \\  /    A nd           | Web:      www.OpenFOAM.org                      |
|    \\/     M anipulation  |                                                 |
\*---------------------------------------------------------------------------*/
FoamFile
{
    version     2.0;
    format      ascii;
    class       volScalarField;
    location    "0.02";
    object      p_rgh;
}
// * * * * * * * * * * * * * * * * * * * * * * * * * * * * * * * * * * * * * //

dimensions      [1 -1 -2 0 0 0 0];

internalField   nonuniform List<scalar> 
3600
(
98.027
98.1339
98.3264
98.6158
99.0068
99.3626
99.5532
99.4071
98.7731
97.5346
95.6052
92.928
89.4886
85.3311
80.5533
75.2828
69.6705
63.8736
58.0094
52.6161
49.8541
51.7374
56.274
58.3515
57.9774
60.7944
65.8031
69.3971
60.009
58.9864
98.0268
98.1336
98.3261
98.6155
99.0079
99.3657
99.5602
99.4194
98.7922
97.5621
95.6432
92.9781
89.5515
85.4062
80.6389
75.3729
69.7451
63.8811
57.8181
51.9613
48.5565
50.414
55.7198
58.5719
56.5558
57.5917
60.7801
57.4587
52.6855
54.1766
98.026
98.1328
98.325
98.6141
99.0087
99.3702
99.5714
99.4397
98.824
97.6082
95.7066
93.0613
89.6547
85.5264
80.7703
75.5024
69.8355
63.849
57.4492
50.7301
45.9229
47.4002
54.2153
58.551
54.0684
53.0233
53.013
43.7771
43.1965
48.61
98.0247
98.1315
98.3231
98.6115
99.0094
99.3759
99.5866
99.4678
98.8683
97.6725
95.7951
93.1774
89.7977
85.6897
80.9418
75.6582
69.9175
63.743
56.8964
48.9777
41.807
42.1549
50.8445
55.3959
50.7726
49.7117
47.5007
42.2212
42.6918
49.1803
98.0229
98.1297
98.3203
98.6078
99.0098
99.3826
99.6056
99.5035
98.925
97.7548
95.9086
93.3262
89.9803
85.8963
81.1543
75.8441
70.0027
63.5824
56.1998
46.7541
35.8221
32.5321
41.4513
46.5616
46.7601
45.3085
44.0724
46.1298
48.1545
56.1103
98.0207
98.1273
98.3168
98.6028
99.0099
99.3904
99.6285
99.5468
98.9939
97.855
96.0469
93.5078
90.2033
86.1481
81.4118
76.0685
70.1069
63.3749
55.349
44.1609
28.1205
15.7567
23.8854
38.6826
45.2779
41.7387
41.0838
44.4974
47.467
50.5291
98.0179
98.1244
98.3125
98.5966
99.0096
99.399
99.6551
99.5976
99.0748
97.9728
96.2096
93.7221
90.4675
86.4474
81.7197
76.3464
70.2762
63.2334
54.4742
41.5941
20.0585
-6.98525
4.78982
32.3718
45.1566
41.5549
38.6259
39.0741
40.9569
40.824
98.0146
98.121
98.3073
98.5891
99.0091
99.4085
99.6853
99.6557
99.1676
98.1078
96.3965
93.9692
90.7736
86.7965
82.0827
76.6832
70.5124
63.1628
53.6098
39.4494
15.0517
-22.3069
-7.77703
19.4192
34.1389
35.1421
33.2945
31.8692
33.3615
33.151
98.0109
98.1171
98.3014
98.5801
99.0081
99.4186
99.719
99.7209
99.2719
98.2597
96.607
94.249
91.1228
87.1986
82.5089
77.1033
70.892
63.4005
53.3236
38.2487
15.3199
-23.1128
-12.5911
-1.36861
7.9177
24.1786
21.6227
17.5173
19.5578
19.4444
98.0066
98.1127
98.2946
98.5697
99.0066
99.4292
99.7559
99.793
99.3874
98.428
96.8408
94.5614
91.5159
87.6562
83.002
77.6085
71.4057
63.9659
53.9839
38.9407
19.6056
-10.1091
-10.6753
-15.1593
-5.30311
4.6336
2.96775
2.34168
2.34518
2.40933
98.0018
98.1078
98.2871
98.5577
99.0047
99.4402
99.796
99.8717
99.5139
98.6122
97.0971
94.9062
91.9541
88.1725
83.5693
78.2161
72.0793
64.8216
55.4104
41.7071
26.1518
9.29317
7.76959
-2.16419
0.384604
0.296493
0.278511
0.2792
0.286176
0.296717
97.9966
98.1024
98.2788
98.544
99.0023
99.4512
99.8391
99.9568
99.651
98.8118
97.3751
95.2829
92.438
88.7499
84.214
78.9324
72.941
66.0543
57.6427
46.2517
34.2429
24.0642
6.45667
0.072353
0.252459
0.256217
0.271223
0.274268
0.278956
0.289331
97.9908
98.0965
98.2697
98.5285
98.9993
99.462
99.8848
100.048
99.7982
99.026
97.674
95.6909
92.9683
89.3906
84.9378
79.7505
73.9413
67.4846
60.1898
51.5414
43.9553
35.9236
3.97851
0.137732
0.242629
0.257314
0.259915
0.268035
0.273527
0.279593
97.9846
98.0902
98.2598
98.5111
98.9957
99.4724
99.9331
100.145
99.9553
99.2541
97.9926
96.1294
93.5455
90.0969
85.7428
80.6714
75.0789
69.059
62.7263
56.5825
55.6462
57.4628
8.90074
0.14277
0.226615
0.243004
0.25027
0.256901
0.261472
0.265066
97.9778
98.0835
98.2492
98.4916
98.9914
99.4821
99.9837
100.248
100.122
99.4955
98.3295
96.5972
94.1697
90.8701
86.6274
81.682
76.3167
70.6966
65.0525
59.9392
60.1255
59.2612
7.11506
0.122534
0.202661
0.229653
0.238122
0.245476
0.250092
0.252498
97.9706
98.0764
98.2379
98.4698
98.9865
99.4907
100.036
100.356
100.297
99.7491
98.6832
97.0928
94.8408
91.7127
87.5934
82.7792
77.6453
72.3773
67.1188
61.6153
58.62
16.3221
0.0371685
0.178271
0.204057
0.225108
0.230703
0.236931
0.241002
0.243067
97.9629
98.0689
98.2259
98.4455
98.9809
99.4979
100.091
100.468
100.481
100.014
99.0518
97.6142
95.5582
92.625
88.6348
83.9365
79.0112
73.9885
68.8398
62.632
59.6466
0.341861
0.100698
0.207326
0.192975
0.224392
0.227613
0.231685
0.235107
0.236844
97.9546
98.0611
98.2132
98.4186
98.9747
99.5033
100.147
100.585
100.673
100.29
99.4332
98.1589
96.3219
93.6135
89.7698
85.1831
80.486
75.7905
71.1876
66.8773
63.7759
14.9184
0.0833825
0.200643
0.209718
0.22404
0.228579
0.230633
0.232789
0.233923
97.9459
98.053
98.1998
98.3888
98.9678
99.5063
100.204
100.707
100.872
100.575
99.8249
98.7236
97.1286
94.6688
90.9576
86.4149
81.9131
77.2571
71.9131
64.6312
27.9366
0.46587
0.272034
0.225777
0.23073
0.229647
0.230131
0.229838
0.230801
0.231371
97.9367
98.0445
98.1859
98.3559
98.9603
99.5065
100.263
100.831
101.079
100.868
100.224
99.305
97.9831
95.8273
92.3172
87.8158
83.4904
79.2632
74.7733
68.7701
23.7223
0.395862
0.278645
0.212912
0.23689
0.226086
0.226739
0.226385
0.227112
0.227529
97.927
98.0359
98.1714
98.3196
98.9523
99.5033
100.322
100.959
101.292
101.169
100.627
99.8967
98.867
97.0089
93.5783
88.9735
85.0436
81.0477
74.7929
74.745
5.53214
-0.384596
0.122344
0.193753
0.220002
0.217819
0.221319
0.222095
0.222866
0.223223
97.9168
98.027
98.1563
98.2796
98.9436
99.4961
100.383
101.089
101.513
101.477
101.031
100.498
99.8218
98.4282
95.4241
90.4194
86.2717
82.6212
74.3621
45.9774
0.361065
0.761168
0.164098
0.197416
0.213085
0.212063
0.216128
0.217659
0.218556
0.21893
97.9061
98.018
98.1408
98.2358
98.9346
99.4843
100.444
101.221
101.739
101.792
101.431
101.087
100.739
99.6346
96.5986
91.7312
89.1234
87.1714
70.5796
12.383
0.329426
0.3514
0.188625
0.20366
0.209294
0.208108
0.212011
0.213665
0.21457
0.214954
97.8948
98.0088
98.1247
98.1879
98.925
99.467
100.506
101.354
101.972
102.111
101.822
101.692
101.852
101.535
99.165
93.0287
87.3792
87.1385
80.2918
8.39898
0.345213
0.311713
0.202606
0.219361
0.209955
0.206019
0.208492
0.210256
0.211058
0.211416
97.8831
97.9996
98.1083
98.1356
98.915
99.4435
100.57
101.488
102.213
102.439
102.198
102.21
102.627
102.578
101.156
95.9769
89.9186
91.2221
92.2919
13.4203
0.307108
0.252653
0.209946
0.224673
0.216417
0.204521
0.205758
0.207206
0.207908
0.208217
97.8708
97.9904
98.0914
98.0788
98.9044
99.4127
100.634
101.618
102.458
102.767
102.567
102.822
103.862
104.137
102.715
97.7986
92.2684
89.6816
72.2993
6.08181
0.287017
0.215081
0.212611
0.209911
0.204089
0.202532
0.203005
0.204005
0.204613
0.204904
97.8579
97.9812
98.0741
98.0176
98.8935
99.3749
100.702
101.748
102.717
103.106
102.877
103.099
104.493
105.912
105.676
101.195
93.0731
85.4683
31.8496
0.284067
0.298955
0.252527
0.207885
0.205974
0.201517
0.200506
0.200094
0.200567
0.200979
0.201234
97.8444
97.9719
98.0554
97.9505
98.8793
99.3242
100.768
101.867
102.98
103.455
103.212
103.508
105.106
107.051
107.095
103.497
94.0451
75.5481
14.5845
0.323917
0.291772
0.247188
0.217298
0.20783
0.20061
0.198266
0.196983
0.197056
0.197188
0.197335
97.8306
97.9637
98.0393
97.883
98.8693
99.2691
100.844
101.98
103.254
103.794
103.437
103.861
106.252
109.338
109.747
106.574
97.1763
57.6877
5.246
0.300013
0.272122
0.240196
0.215932
0.205765
0.197684
0.195425
0.193777
0.193261
0.193187
0.193317
97.8162
97.9543
98.0145
97.8009
98.8535
99.1999
100.926
102.095
103.547
104.138
103.596
103.706
106.708
111.262
112.857
110.096
103.729
74.8196
5.52096
0.21617
0.258459
0.230041
0.207903
0.201033
0.193491
0.191932
0.18991
0.18904
0.188822
0.188936
58.9796
60.0084
69.4808
65.9055
60.8403
57.9742
58.3084
56.2238
51.6892
49.8246
52.5887
57.9823
63.8495
69.6508
75.2677
80.5419
85.3224
89.4814
92.9221
95.6005
97.5314
98.7717
99.4074
99.5556
99.367
99.0133
98.6242
98.3333
98.1387
98.0303
54.1567
52.6279
57.4356
60.8323
57.6031
56.5355
58.5285
55.6767
50.3867
48.5313
51.9351
57.7911
63.8571
69.7256
75.3579
80.6275
85.3975
89.5443
92.9722
95.6385
97.559
98.7908
99.4197
99.5626
99.3702
99.0143
98.6239
98.333
98.1384
98.03
48.5585
43.1479
43.6949
53.0119
53.0077
54.0473
58.5234
54.184
47.378
45.9034
50.7059
57.4229
63.8254
69.8163
75.4877
80.7592
85.5179
89.6476
93.0554
95.7019
97.6051
98.8227
99.44
99.5738
99.3747
99.0152
98.6225
98.3319
98.1376
98.0292
49.1556
42.6575
42.1693
47.4554
49.6895
50.7765
55.4354
50.845
42.1469
41.7963
48.9564
56.8711
63.7199
69.8988
75.6439
80.931
85.6813
89.7907
93.1715
95.7904
97.6694
98.867
99.4681
99.5889
99.3803
99.0159
98.6201
98.33
98.1363
98.0279
56.0928
48.191
46.125
44.0216
45.2675
46.7827
46.6505
41.5266
32.5592
35.824
46.7368
56.1758
63.5601
69.9846
75.8304
81.144
85.8882
89.9734
93.3203
95.9039
97.7517
98.9237
99.5039
99.608
99.3871
99.0163
98.6164
98.3273
98.1345
98.0261
50.5389
47.508
44.4975
41.019
41.6567
45.2519
38.7488
24.0203
15.8206
28.1344
44.1479
55.3266
63.3537
70.0897
76.0556
81.402
86.1403
90.1966
93.5019
96.0421
97.8519
98.9926
99.5472
99.6308
99.3949
99.0164
98.6116
98.3238
98.1321
98.0238
40.8497
40.99
39.0607
38.6015
41.4329
45.0693
32.4222
4.92698
-6.91816
20.0761
41.5827
54.4529
63.2132
70.26
76.3343
81.7106
86.44
90.4609
93.7162
96.2047
97.9696
99.0735
99.598
99.6574
99.4036
99.0162
98.6055
98.3194
98.1291
98.021
33.1381
33.3567
31.8503
33.2393
35.0422
34.0572
19.4371
-7.67007
-22.295
15.0624
39.4354
53.5881
63.1433
70.4974
76.6722
82.0744
86.7896
90.7672
93.9632
96.3915
98.1046
99.1663
99.656
99.6876
99.4131
99.0156
98.5982
98.3143
98.1257
98.0177
19.3942
19.5179
17.4124
21.491
24.043
7.70473
-1.50701
-12.5298
-23.1046
15.32
38.2259
53.2998
63.3817
70.8782
77.0935
82.5014
87.1922
91.1165
94.243
96.602
98.2565
99.2706
99.7212
99.7213
99.4232
99.0147
98.5895
98.3084
98.1217
98.0139
2.40069
2.33027
2.30826
2.90244
4.60329
-5.26582
-15.1613
-10.6058
-10.0591
19.5862
38.9058
53.9572
63.9476
71.3933
77.6
82.9955
87.6503
91.5098
94.5553
96.8356
98.4248
99.3862
99.7933
99.7583
99.4339
99.0133
98.5793
98.3017
98.1172
98.0096
0.296537
0.285914
0.278764
0.277738
0.294968
0.380779
-2.09374
7.88524
9.31192
26.1083
41.661
55.3811
64.8038
72.0683
78.2091
83.564
88.1672
91.9481
94.8999
97.0917
98.609
99.5127
99.872
99.7983
99.4448
99.0114
98.5676
98.2941
98.1123
98.0047
0.289333
0.278714
0.273837
0.270524
0.256043
0.250801
0.070955
6.21556
23.9902
34.1921
46.1977
57.6123
66.0376
72.9318
78.9272
84.2099
88.7452
92.4321
95.2764
97.3695
98.8085
99.6498
99.9571
99.8413
99.4559
99.0089
98.5543
98.2858
98.1068
97.9994
0.279499
0.273172
0.267471
0.259004
0.256066
0.240474
0.135745
3.94221
35.8924
43.9214
51.4849
60.1598
67.4695
73.9343
79.7472
84.9352
89.3866
92.9626
95.6842
97.6681
99.0227
99.7972
100.048
99.8871
99.4668
99.0059
98.5392
98.2768
98.1009
97.9936
0.264928
0.260964
0.256131
0.248898
0.240878
0.223358
0.137985
9.019
57.5244
55.611
56.5278
62.6984
69.0464
75.0747
80.6706
85.7417
90.0935
93.5398
96.1224
97.9863
99.2508
99.9543
100.145
99.9353
99.4773
99.0023
98.5222
98.2669
98.0945
97.9872
0.252273
0.24954
0.244421
0.236407
0.227101
0.198671
0.11662
7.04293
59.0774
60.0522
59.8814
65.0268
70.6871
76.3159
81.6839
86.628
90.8675
94.164
96.5898
98.3228
99.4921
100.121
100.248
99.9859
99.487
98.9981
98.5032
98.2563
98.0878
97.9804
0.242852
0.240386
0.235823
0.2292
0.222625
0.199699
0.173182
0.0362563
16.1576
58.517
61.5551
67.0948
72.3718
77.6487
82.7842
87.5958
91.7108
94.835
97.0848
98.6759
99.7458
100.296
100.356
100.038
99.4957
98.9931
98.4819
98.245
98.0806
97.9731
0.236663
0.234592
0.230832
0.22642
0.222505
0.189726
0.199945
0.0891968
0.467564
59.5872
62.575
68.8183
73.9886
79.0196
83.9449
88.6392
92.6237
95.5522
97.6055
99.0439
100.011
100.48
100.468
100.093
99.503
98.9875
98.4583
98.2329
98.073
97.9653
0.233799
0.232423
0.230045
0.227775
0.223007
0.20944
0.196517
0.0820133
14.8846
63.64
66.8231
71.1718
75.7977
80.5004
85.1956
89.7762
93.6129
96.3155
98.1493
99.4245
100.287
100.672
100.585
100.149
99.5084
98.9812
98.4321
98.2202
98.065
97.9569
0.231285
0.230543
0.229427
0.229589
0.229092
0.231011
0.223273
0.270101
0.499791
27.8002
64.5688
71.9062
77.2749
81.9344
86.4313
90.966
94.6686
97.1216
98.713
99.8153
100.572
100.872
100.706
100.206
99.5114
98.9743
98.4031
98.2069
98.0568
97.9481
0.22746
0.226906
0.226079
0.226366
0.225716
0.236246
0.209044
0.267229
0.391558
23.7513
68.7117
74.7829
79.2926
83.52
87.8377
92.3279
95.8275
97.9755
99.2932
100.213
100.866
101.079
100.831
100.265
99.5117
98.9668
98.371
98.1929
98.0482
97.9388
0.223183
0.222741
0.221942
0.221179
0.217699
0.219176
0.192647
0.128988
-0.381486
5.57572
74.7167
74.8423
81.0933
85.0809
88.9981
93.5907
97.0092
98.8585
99.8835
100.615
101.167
101.293
100.959
100.324
99.5085
98.9587
98.3356
98.1783
98.0394
97.9289
0.218921
0.218536
0.217702
0.216286
0.212383
0.213379
0.198231
0.166528
0.753609
0.368208
46.3032
74.4681
82.676
86.3194
90.4504
95.4381
98.4284
99.812
100.483
101.017
101.476
101.514
101.089
100.384
99.5013
98.9502
98.2965
98.1632
98.0304
97.9186
0.214982
0.214664
0.213904
0.212433
0.208872
0.210275
0.205859
0.192294
0.357178
0.352174
12.4772
70.7065
87.2399
89.1742
91.7678
96.6166
99.6349
100.728
101.07
101.415
101.792
101.741
101.22
100.446
99.4893
98.9413
98.2536
98.1477
98.0212
97.9077
0.211489
0.211284
0.210705
0.209253
0.207122
0.211236
0.222902
0.206793
0.31951
0.361325
8.44425
80.3754
87.2188
87.4409
93.0714
99.1799
101.533
101.839
101.672
101.804
102.112
101.974
101.353
100.507
99.4718
98.9321
98.2066
98.1316
98.0118
97.8963
0.208341
0.208289
0.207929
0.206911
0.206043
0.2169
0.227277
0.21491
0.2587
0.318066
13.4368
92.5226
91.3029
89.9842
96.0348
101.176
102.577
102.612
102.188
102.177
102.441
102.215
101.486
100.571
99.4479
98.9228
98.1551
98.1152
98.0024
97.8844
0.205082
0.205169
0.205043
0.204581
0.204571
0.206556
0.213073
0.218336
0.222542
0.297844
6.12442
72.499
89.8043
92.3445
97.8532
102.733
104.131
103.843
102.796
102.542
102.772
102.461
101.615
100.635
99.4164
98.9132
98.099
98.0984
97.993
97.8719
0.201458
0.20167
0.201816
0.201938
0.202863
0.204258
0.209651
0.21278
0.261622
0.30577
0.294677
31.9193
85.5459
93.1551
101.263
105.701
105.907
104.47
103.071
102.849
103.114
102.721
101.745
100.703
99.3775
98.904
98.0382
98.0813
97.9836
97.8589
0.197593
0.197923
0.19834
0.198918
0.200587
0.20344
0.211211
0.221232
0.250386
0.297559
0.330074
14.3966
75.5283
94.1099
103.545
107.118
107.045
105.079
103.476
103.177
103.466
102.984
101.863
100.769
99.3253
98.8921
97.9711
98.0629
97.9741
97.8452
0.193579
0.193973
0.194581
0.195615
0.197709
0.200685
0.209257
0.218729
0.243152
0.276224
0.305705
5.213
57.9048
97.2768
106.623
109.771
109.343
106.218
103.823
103.399
103.81
103.259
101.975
100.845
99.2682
98.8853
97.9032
98.0473
97.9656
97.8312
0.189215
0.189649
0.190376
0.191671
0.194025
0.196422
0.20406
0.211096
0.233342
0.263643
0.223699
5.55333
75.2312
103.818
110.137
112.878
111.264
106.674
103.664
103.551
104.158
103.552
102.088
100.927
99.1963
98.8736
97.8204
98.023
97.9559
97.8166
7.46656
10.7485
19.4305
33.609
54.4948
78.5667
98.4424
102.137
103.796
104.465
103.766
103.496
106.773
112.097
115.064
112.862
108.721
86.8627
2.57962
0.210017
0.246602
0.223206
0.203724
0.197563
0.189566
0.187832
0.186122
0.185319
0.185139
0.185293
0.0288166
0.13977
0.0687523
-0.38576
2.1553
12.9783
40.7542
82.6529
103.965
104.686
103.92
103.48
106.922
112.643
116.56
114.689
111.73
95.4949
2.91576
0.205863
0.241558
0.217519
0.201701
0.194923
0.186524
0.184828
0.183316
0.182599
0.182467
0.182649
0.0293077
0.140779
0.0711998
-0.327399
0.399841
1.47848
13.6762
38.1594
72.3884
101.856
104.815
103.641
107.352
113.888
118.032
116.516
113.776
93.4708
1.91462
0.183047
0.2326
0.207058
0.196532
0.190438
0.182723
0.181354
0.180133
0.179572
0.179511
0.179722
0.0293943
0.141957
0.0728204
-0.340757
0.409073
3.84602
27.235
54.1639
85.6515
95.7495
105.066
103.532
107.749
115.551
119.919
119.372
115.632
100.793
1.70709
0.1552
0.212585
0.202018
0.18278
0.185976
0.177938
0.177347
0.176509
0.176157
0.176187
0.176426
0.0294386
0.142434
0.081779
-0.169581
0.477221
-0.0831295
0.137848
3.6779
59.8063
100.107
105.76
102.944
107.625
116.938
122.61
121.931
114.695
78.7081
0.260738
0.118938
0.185136
0.190467
0.170732
0.179926
0.171894
0.172848
0.172433
0.172303
0.172431
0.172695
0.0292103
0.141985
0.415622
-0.190271
-0.291292
-0.0727193
0.143495
0.140913
2.1413
36.212
87.1002
102.149
107.605
118.122
124.867
123.466
111.683
65.0033
0.00432409
0.0817898
0.158518
0.1621
0.1566
0.171294
0.166352
0.168177
0.167998
0.168035
0.168243
0.168519
0.0287558
0.134771
0.205483
-0.200322
-0.363016
-0.0671725
0.134241
0.134516
0.0643265
0.224444
25.2703
76.6998
108.541
119.46
127.712
127.253
115.107
42.7736
0.085486
0.0788822
0.130105
0.143378
0.143067
0.162563
0.161096
0.162971
0.163353
0.163478
0.163724
0.163979
0.0281508
0.125658
0.111362
-0.317296
-0.361476
-0.0609598
0.128108
0.133361
0.0619884
0.209014
6.90576
46.9059
104.323
121.607
131.494
133.297
121.04
44.6123
0.0324877
0.10025
0.0932403
0.129843
0.133529
0.154715
0.156002
0.158029
0.158598
0.158779
0.158942
0.159122
0.0274232
0.115972
0.0959443
-0.353212
-0.350388
-0.0567317
0.117588
0.124042
0.0558989
0.142372
-0.237335
6.65704
76.6015
124.521
134.602
138.404
112.537
25.3518
0.0694645
0.102013
0.0695358
0.118287
0.123802
0.146685
0.151017
0.153201
0.153678
0.153749
0.153773
0.153849
0.0265672
0.105978
0.085547
-0.325786
-0.33284
-0.0530684
0.104535
0.110249
0.0362163
0.112762
-0.036664
6.71812
62.1991
128.039
137.351
143.004
115.795
22.0189
0.0655487
0.105265
0.0697984
0.105004
0.116506
0.138576
0.146151
0.148218
0.148489
0.148278
0.148088
0.148038
0.0255749
0.0960811
0.0758333
-0.295958
-0.311254
-0.050314
0.0903703
0.101381
0.033659
0.101053
0.0180006
-1.08037
11.607
116.356
141.324
148.421
100.315
4.82338
0.0685453
0.165026
0.0664748
0.090037
0.117791
0.136316
0.142468
0.143108
0.142651
0.142064
0.141655
0.141493
0.0244434
0.0864191
0.0664502
-0.265979
-0.288306
-0.0481166
0.0764276
0.0924212
0.0344524
0.144251
-0.0398135
-0.716433
12.1572
82.1852
146.456
153.536
130.089
6.56913
0.191922
0.124278
0.0716836
0.0911271
0.129549
0.141264
0.139022
0.136169
0.134784
0.13406
0.133668
0.133519
0.0231752
0.0770599
0.0571861
-0.237168
-0.265098
-0.0463824
0.0632231
0.0826356
0.0272708
0.0923307
-0.0947123
-0.468812
-0.424806
13.0622
120.276
131.561
10.0415
-0.430946
0.021466
0.109524
0.0781679
0.0899201
0.113378
0.122288
0.123719
0.123708
0.123699
0.123673
0.123674
0.123689
0.0217775
0.0680658
0.048085
-0.209922
-0.242063
-0.0450708
0.0509498
0.072053
0.0212424
0.058061
-0.116868
-0.340543
-0.313846
0.666156
17.2015
38.6256
0.0121809
-0.307645
0.0632585
0.0999188
0.0877664
0.0938961
0.102415
0.107829
0.110523
0.111919
0.112618
0.112943
0.113094
0.113159
0.0202635
0.0594959
0.0392913
-0.184415
-0.219374
-0.0441544
0.0396864
0.0609525
0.0164288
0.0335097
-0.10438
-0.26176
-0.194111
-0.0423585
-0.0758312
-0.341882
0.0991354
-0.141237
0.0105796
0.0565973
0.0734381
0.0796027
0.0861248
0.0918864
0.0966551
0.0998031
0.101341
0.101926
0.10213
0.102199
0.0186513
0.0514031
0.0309602
-0.160781
-0.197154
-0.0435934
0.0294766
0.0498061
0.0122732
0.0137331
-0.0927551
-0.202968
-0.181689
-0.054957
-0.101732
-0.222047
-0.113776
-0.108609
-0.0284885
0.0225508
0.0421751
0.056741
0.066928
0.0753672
0.0816171
0.0854748
0.0875391
0.0885853
0.0891091
0.0893262
0.0169634
0.0438337
0.0232382
-0.139125
-0.175531
-0.0433527
0.0203709
0.0390184
0.00827335
-0.00136672
-0.0822297
-0.160837
-0.154806
-0.0634734
-0.0958439
-0.142552
-0.0973801
-0.0611026
-0.00443357
0.0224728
0.0405158
0.0517565
0.0603219
0.0667206
0.0710461
0.0737623
0.0754056
0.0763792
0.0769184
0.0771481
0.0152265
0.0368268
0.0162558
-0.119494
-0.154661
-0.0433925
0.0124323
0.0289615
0.00416147
-0.0119675
-0.0728832
-0.129672
-0.130566
-0.0750323
-0.0848194
-0.101661
-0.0751638
-0.0444523
-0.0139522
0.0103225
0.0268378
0.0385742
0.0471017
0.0532468
0.0575779
0.0605288
0.0624601
0.0636525
0.0643166
0.064598
0.0134703
0.030414
0.0101193
-0.101885
-0.134697
-0.0430047
0.00499201
0.0199326
4.01949e-05
-0.0187505
-0.0644768
-0.105284
-0.107097
-0.0738035
-0.0738348
-0.0751799
-0.0584507
-0.0372163
-0.0135824
0.00485668
0.0188724
0.0293521
0.0370019
0.0424763
0.0463636
0.0490751
0.0508955
0.0520437
0.0526908
0.0529654
0.0117262
0.0246197
0.00490577
-0.0862372
-0.115828
-0.042244
-0.00115637
0.0116095
-0.00381301
-0.022595
-0.0567271
-0.0857442
-0.088166
-0.0697905
-0.064141
-0.0587562
-0.0457384
-0.0287981
-0.0118431
0.0026942
0.0140892
0.0225487
0.0287241
0.0332237
0.0364871
0.03881
0.0403954
0.0414076
0.041982
0.0422255
0.0100265
0.0194608
0.000662536
-0.0724581
-0.0983211
-0.0409897
-0.0061639
0.00447805
-0.00716695
-0.0242907
-0.0496383
-0.0699598
-0.0725362
-0.0622807
-0.0551611
-0.0476003
-0.0367591
-0.0241657
-0.0117145
-0.000816184
0.00809316
0.0151043
0.0204556
0.0244491
0.027364
0.0294304
0.0308378
0.0317379
0.0322499
0.0324662
0.00840256
0.014947
-0.00259993
-0.0604114
-0.0825248
-0.0390886
-0.00989696
-0.00128186
-0.00987985
-0.0244338
-0.0430263
-0.0571138
-0.0594854
-0.0534913
-0.0468039
-0.0392091
-0.0300914
-0.0202364
-0.010739
-0.00236557
0.00459666
0.0101226
0.0143704
0.0175595
0.0199022
0.0215757
0.0227213
0.0234539
0.0238681
0.02404
0.00688341
0.0110806
-0.00490824
-0.0499145
-0.0681376
-0.0364307
-0.0126952
-0.00562995
-0.0118132
-0.0232206
-0.0368505
-0.0465304
-0.0484644
-0.0447054
-0.0390948
-0.0324247
-0.0249792
-0.0173515
-0.0101685
-0.00384878
0.00144406
0.005716
0.00905749
0.0115993
0.0134776
0.0148196
0.0157363
0.0163213
0.0166505
0.0167844
0.00549375
0.00785587
-0.00632091
-0.0407735
-0.0553643
-0.0330058
-0.0143477
-0.00858394
-0.0128871
-0.021514
-0.0311381
-0.0376884
-0.0391032
-0.0365687
-0.0321285
-0.0267022
-0.0208264
-0.0149812
-0.00955947
-0.00480595
-0.000815879
0.00241618
0.00495635
0.00689756
0.00833894
0.00937318
0.0100817
0.0105335
0.0107859
0.0108854
0.00425241
0.00525761
-0.00690661
-0.0327981
-0.0441548
-0.0289509
-0.0148397
-0.0101762
-0.0130166
-0.0192339
-0.0258471
-0.0301868
-0.0311213
-0.0293217
-0.025948
-0.0217705
-0.0173069
-0.0129389
-0.00893111
-0.00543278
-0.0024978
-0.000115146
0.00176305
0.00320205
0.00427142
0.00503771
0.00556064
0.00589158
0.00607347
0.00614148
0.00317056
0.00325818
-0.00676791
-0.0257722
-0.0343317
-0.024362
-0.0141857
-0.0104911
-0.0122816
-0.016524
-0.0209166
-0.0237128
-0.024274
-0.0229799
-0.0205211
-0.0174638
-0.0142179
-0.011069
-0.00819824
-0.00570098
-0.00360848
-0.00190986
-0.000570052
0.00045722
0.00122108
0.00176839
0.00214123
0.00237586
0.00250277
0.00254713
0.00224962
0.00181427
-0.0060174
-0.0194708
-0.0256508
-0.0193881
-0.0123772
-0.00969301
-0.0107254
-0.0134623
-0.0162622
-0.0180077
-0.0183279
-0.0174368
-0.0157505
-0.0136511
-0.0114285
-0.00928132
-0.00733069
-0.00563775
-0.00422107
-0.00307188
-0.00216595
-0.00147188
-0.00095656
-0.000588361
-0.000338839
-0.000183401
-0.000101352
-7.55055e-05
0.00147862
0.000862794
-0.00475829
-0.0136755
-0.0178279
-0.0141467
-0.0097192
-0.00789303
-0.00843441
-0.0100862
-0.0117821
-0.0128429
-0.013052
-0.0125239
-0.0114986
-0.0102107
-0.0088434
-0.00752192
-0.00632185
-0.00528079
-0.00440995
-0.00370381
-0.00314739
-0.0027214
-0.00240551
-0.00218033
-0.00202844
-0.00193478
-0.00188667
-0.00187355
0.000830494
0.000314761
-0.00308316
-0.00816213
-0.0105445
-0.00866777
-0.00628065
-0.00524427
-0.00550783
-0.00640789
-0.00735836
-0.00799821
-0.00820822
-0.00803661
-0.00759984
-0.00701649
-0.00638106
-0.00575895
-0.00518999
-0.00469446
-0.00427914
-0.00394215
-0.00367674
-0.00347385
-0.00332383
-0.00321742
-0.00314631
-0.00310328
-0.00308227
-0.00307819
0.000254836
3.48058e-05
-0.00109466
-0.00269225
-0.00343459
-0.00291201
-0.00222534
-0.00193563
-0.00205991
-0.00241849
-0.00284254
-0.00322416
-0.00351711
-0.00371798
-0.00384437
-0.00391735
-0.003955
-0.00397093
-0.0039746
-0.00397219
-0.0039675
-0.00396267
-0.00395876
-0.00395617
-0.00395493
-0.00395486
-0.00395573
-0.00395734
-0.00395952
-0.00396216
0.185593
0.186022
0.186706
0.187891
0.189933
0.192135
0.200046
0.206726
0.226559
0.251881
0.216735
2.57332
87.0996
108.783
112.885
115.087
112.096
106.734
103.452
103.716
104.492
103.804
102.13
98.4429
78.4989
54.6066
33.5891
19.4267
10.7422
7.46053
0.182958
0.183368
0.183993
0.185063
0.186871
0.188862
0.197128
0.204033
0.220055
0.245936
0.210965
2.89786
95.8426
111.78
114.706
116.586
112.647
106.879
103.431
103.866
104.717
103.974
82.6673
40.7232
12.8821
2.19724
-0.36671
0.0783467
0.141324
0.0293021
0.18003
0.180405
0.180941
0.181835
0.183327
0.184885
0.19249
0.19793
0.208785
0.235383
0.186722
1.88351
93.6981
113.804
116.533
118.056
113.892
107.303
103.584
104.768
101.839
72.1917
37.8877
13.5604
1.4816
0.40719
-0.310827
0.080748
0.142332
0.0297909
0.176724
0.177048
0.17747
0.178139
0.179242
0.180031
0.187747
0.184972
0.202839
0.214111
0.158222
1.69043
101.004
115.631
119.387
119.956
115.554
107.707
103.48
105.028
95.7738
85.6259
54.1943
27.2184
3.69757
0.402584
-0.323703
0.0824522
0.143499
0.0298721
0.172974
0.173235
0.173528
0.173952
0.174626
0.174206
0.181559
0.172728
0.188825
0.186155
0.122011
0.250144
78.6504
114.66
121.937
122.647
116.948
107.582
102.877
105.733
100.312
59.9557
3.62215
0.14231
-0.0872841
0.472682
-0.147628
0.0932611
0.143968
0.0299058
0.16877
0.168968
0.16914
0.169333
0.169563
0.168519
0.173162
0.158512
0.163941
0.159086
0.0845695
0.00161326
64.5881
111.567
123.45
124.893
118.129
107.542
102.16
87.5607
36.9178
2.55789
0.144843
0.146984
-0.0765947
-0.294867
-0.170381
0.428268
0.142762
0.0296577
0.164195
0.164349
0.164448
0.164504
0.164322
0.162884
0.16444
0.145076
0.1452
0.13003
0.0809358
0.0842137
42.4467
114.931
127.215
127.75
119.466
108.467
76.7549
25.0528
0.221277
0.0729664
0.138223
0.137496
-0.070805
-0.372195
-0.181563
0.200859
0.135718
0.0291957
0.159295
0.159442
0.15955
0.159557
0.159188
0.15751
0.156491
0.135626
0.13171
0.0937603
0.101143
0.0309352
44.2041
120.946
133.281
131.532
121.618
104.265
47.0532
6.95521
0.216225
0.0695872
0.136901
0.13114
-0.0643331
-0.369467
-0.316722
0.112893
0.126645
0.0285881
0.153978
0.154145
0.154323
0.154416
0.154117
0.152222
0.148462
0.125873
0.120399
0.0705272
0.101917
0.0675585
25.2632
112.494
138.403
134.64
124.538
76.4027
6.6149
-0.254059
0.149089
0.0619028
0.127266
0.120292
-0.0598212
-0.35688
-0.342956
0.0989213
0.116967
0.0278583
0.148125
0.148337
0.148661
0.148993
0.148899
0.147148
0.140158
0.118573
0.106632
0.0709608
0.104826
0.0634547
21.7752
115.566
142.999
137.396
128.059
62.1759
6.70645
-0.0446584
0.119705
0.0437861
0.113184
0.106927
-0.0558699
-0.338159
-0.316341
0.0883819
0.107014
0.026999
0.141543
0.141797
0.14228
0.142947
0.143535
0.14315
0.1376
0.119726
0.0918098
0.0674758
0.162843
0.065518
4.81256
100.327
148.415
141.376
116.39
11.5091
-1.09302
0.0134787
0.107275
0.0401099
0.104178
0.0924952
-0.0528386
-0.315604
-0.287372
0.0784586
0.0971544
0.0260023
0.133545
0.133745
0.13418
0.134946
0.136366
0.139264
0.141904
0.131385
0.0937535
0.0731832
0.123376
0.188809
6.51874
129.812
153.516
146.515
82.3217
12.14
-0.72763
-0.0429797
0.149777
0.0402246
0.0950883
0.0783254
-0.0503656
-0.29179
-0.258327
0.0688538
0.0875148
0.0248652
0.12371
0.12374
0.123788
0.123874
0.123959
0.124069
0.122881
0.114637
0.0918607
0.0792801
0.109037
0.0238096
-0.422162
9.86063
131.395
120.518
13.1783
-0.434818
-0.477222
-0.0956254
0.0969744
0.0321396
0.085133
0.0649255
-0.0483785
-0.267801
-0.230439
0.0593926
0.0781626
0.0235897
0.113174
0.11314
0.113031
0.112771
0.112172
0.110923
0.108424
0.103226
0.0947158
0.0882266
0.100153
0.0648039
-0.300925
0.0245763
38.471
17.3031
0.673827
-0.322604
-0.347347
-0.117842
0.0617402
0.0252948
0.0743279
0.0524798
-0.0468351
-0.244046
-0.204072
0.0501252
0.0691611
0.022183
0.102199
0.102133
0.101942
0.101404
0.099979
0.0970154
0.0924601
0.0868676
0.080448
0.0743386
0.0574942
0.0122908
-0.137816
0.102711
-0.352194
-0.0825557
-0.0504475
-0.201361
-0.267528
-0.105479
0.0363532
0.0197176
0.0629921
0.041072
-0.0457234
-0.220689
-0.179385
0.0411887
0.0605705
0.0206577
0.0893287
0.0891192
0.0886094
0.087607
0.085616
0.0818871
0.0758449
0.0676643
0.0576826
0.04316
0.023395
-0.0275299
-0.106599
-0.113304
-0.228364
-0.108612
-0.0620995
-0.188072
-0.207912
-0.0939661
0.0158344
0.0148939
0.0515961
0.0307593
-0.0450211
-0.197866
-0.156503
0.0327279
0.052445
0.0190317
0.0771458
0.0769152
0.0763838
0.07543
0.0738172
0.0711447
0.0668763
0.0605534
0.0520799
0.040905
0.0229525
-0.00404796
-0.0607624
-0.09844
-0.147652
-0.101657
-0.0695588
-0.160157
-0.16502
-0.0835058
8.66456e-05
0.0103308
0.0405443
0.0215888
-0.044687
-0.17572
-0.135517
0.024881
0.0448324
0.0173276
0.0645977
0.0643182
0.0636618
0.0624846
0.0605766
0.0576572
0.053363
0.0472599
0.0387783
0.0270587
0.0104745
-0.0139939
-0.0448447
-0.0766911
-0.105161
-0.0895638
-0.0801988
-0.13517
-0.133206
-0.0741856
-0.0110474
0.00574487
0.030205
0.0135581
-0.0446163
-0.154411
-0.116475
0.0177744
0.0377733
0.015572
0.0529628
0.0526844
0.0520367
0.0508915
0.0490771
0.0463729
0.0424902
0.0370118
0.0293505
0.0188614
0.00476205
-0.0139309
-0.0380143
-0.0601299
-0.0781206
-0.0777101
-0.0779966
-0.110988
-0.108261
-0.0657717
-0.0182397
0.0012264
0.0208748
0.00606447
-0.0441269
-0.134099
-0.0993791
0.0115161
0.0313013
0.0137945
0.0422204
0.0419665
0.0413811
0.0403567
0.038757
0.036416
0.0331254
0.028581
0.0223357
0.0137764
0.00224925
-0.0125082
-0.0298404
-0.0474153
-0.0612622
-0.0673246
-0.0732412
-0.0914063
-0.0882307
-0.0578175
-0.022373
-0.00295434
0.0123865
-0.000262534
-0.0432443
-0.115002
-0.0841817
0.00618721
0.0254421
0.012027
0.0324584
0.0322257
0.0316956