/*--------------------------------*- C++ -*----------------------------------*\
| =========                 |                                                 |
| \\      /  F ield         | OpenFOAM: The Open Source CFD Toolbox           |
|  \\    /   O peration     | Version:  2.4.0                                 |
|   \\  /    A nd           | Web:      www.OpenFOAM.org                      |
|    \\/     M anipulation  |                                                 |
\*---------------------------------------------------------------------------*/
FoamFile
{
    version     2.0;
    format      ascii;
    class       volScalarField;
    location    "0.15";
    object      alpha.water;
}
// * * * * * * * * * * * * * * * * * * * * * * * * * * * * * * * * * * * * * //

dimensions      [0 0 0 0 0 0 0];

internalField   nonuniform List<scalar> 
3600
(
1
1
1
1
1
1
1
1
1
1
1
1
1
1
1
1
0.999458
0.994211
0.994127
0.995763
0.999943
0.999348
0.999355
0.999346
0.993921
0.982126
0.982072
0.982053
0.982053
0.982053
1
1
1
1
1
1
1
1
1
1
1
1
1
1
1
1
0.999532
0.995827
0.995875
0.99995
0.999946
0.999792
0.99974
0.999035
0.996918
0.997598
0.995363
0.991465
0.989069
0.991479
1
1
1
1
1
1
1
1
1
1
1
1
1
1
1
1
0.999827
0.997501
0.997332
0.999955
0.999241
0.997848
0.997848
0.998626
0.999989
0.999997
0.999997
0.999997
0.999997
0.999997
1
1
1
1
1
1
1
1
1
1
1
1
1
1
1
1
0.999985
0.999535
0.999341
0.999956
0.999868
0.999411
0.997965
0.996158
0.997516
0.999523
0.999997
0.999997
0.999992
0.999985
1
1
1
1
1
1
1
1
1
1
1
1
1
1
1
1
1
0.999967
0.999612
0.999956
0.999957
0.999675
0.99533
0.994915
0.994915
0.995259
0.999889
0.999997
0.99999
0.999974
1
1
1
1
1
1
1
1
1
1
1
1
1
1
1
1
1
1
0.999679
0.999654
0.999957
0.99995
0.998
0.994994
0.994914
0.994911
0.995934
0.999996
0.999992
0.999921
1
1
1
1
1
1
1
1
1
1
1
1
1
1
1
1
1
1
0.999946
0.997863
0.999957
0.999957
0.999957
0.999669
0.995026
0.99491
0.99491
0.999166
0.999986
0.999626
1
1
1
1
1
1
1
1
1
1
1
1
1
1
1
1
1
1
1
0.99782
0.998702
0.998859
0.99948
0.999883
0.999175
0.994911
0.99491
0.99852
0.999986
0.999626
1
1
1
1
1
1
1
1
1
1
1
1
1
1
1
1
1
1
1
0.99781
0.997797
0.997797
0.997797
0.999745
0.999987
0.995227
0.995603
0.999535
0.999977
0.999626
1
1
1
1
1
1
1
1
1
1
1
1
1
1
1
1
1
1
1
0.999211
0.998074
0.998311
0.99944
0.999995
0.999991
0.997757
0.998293
0.999831
0.999876
0.999626
1
1
1
1
1
1
1
1
1
1
1
1
1
1
1
1
1
1
1
1
0.999915
0.999988
1
0.999995
0.999699
0.999814
0.999643
0.999866
0.999835
0.999626
1
1
1
1
1
1
1
1
1
1
1
1
1
1
1
1
1
1
1
1
1
1
1
0.999837
0.999823
0.999991
1
1
0.999839
0.99982
1
1
1
1
1
1
1
1
1
1
1
1
1
1
1
1
1
1
1
1
1
1
1
0.999987
1
1
1
1
0.999796
1
1
1
1
1
1
1
1
1
1
1
1
1
1
1
1
1
1
1
1
1
1
1
1
1
0.999999
1
0.999953
0.999876
0.999982
1
1
1
1
1
1
1
1
1
1
1
1
1
1
1
1
1
1
1
1
1
1
1
1
1
0.999973
0.99979
0.999788
0.999788
0.999992
1
1
1
1
1
1
1
1
1
1
1
1
1
1
1
1
1
1
1
1
1
1
1
1
1
1
0.999918
0.999788
0.999788
0.999927
1
1
1
1
1
1
1
1
1
1
1
1
1
1
1
1
1
1
1
1
1
1
1
1
1
1
1
0.999942
0.999936
0.99998
1
1
1
1
1
1
1
1
1
1
1
1
1
1
1
1
1
1
1
1
1
1
0.999999
0.99998
0.99997
0.999976
0.999993
1
1
1
1
1
1
1
1
1
1
1
1
1
1
1
1
1
1
1
1
1
1
1
1
1
1
0.999945
0.999945
0.999945
0.999964
0.999998
0.999949
0.99991
0.999916
1
1
1
1
1
1
1
1
1
1
1
1
1
1
1
1
1
1
1
0.999769
0.996773
0.999844
0.99998
0.999996
0.999953
0.999819
0.999819
0.999819
0.999819
0.999819
1
1
1
1
1
1
1
1
1
1
1
1
1
1
0.99994
0.99761
0.999924
1
0.998974
0.989904
0.988783
0.997131
1
1
1
0.99998
0.999966
1
0.999973
0.999926
1
1
1
1
1
1
1
1
1
1
1
0.953121
0.999011
1
0.999275
0.993227
0.999451
1
0.999986
0.988784
0.988778
0.997208
1
1
1
0.999994
0.999972
1
1
1
1
1
1
1
1
1
0.999999
0.996059
1
1
0.989697
0.936813
0.999975
0.999998
0.997393
0.993226
0.993681
0.999785
0.999994
0.992543
0.988797
0.999021
1
1
1
0.999996
0.99998
0.999992
0.999997
1
1
1
1
1
1
1
0.994833
0.567513
0.942421
0.999998
0.968283
0.96822
0.972688
0.999988
0.998729
0.993228
0.998931
0.99989
0.999994
0.998821
0.988833
1
1
1
0.99998
0.999773
0.999721
0.999774
0.99998
0.999988
1
1
1
1
1
0.999994
0.5322
0.279425
0.802938
0.987361
0.991558
0.999426
0.986235
0.99988
0.99681
0.993934
0.994847
0.999886
0.997209
0.990439
0.992186
1
1
0.999999
0.999697
0.999659
0.999659
0.999714
0.999988
0.999965
1
1
1
1
0.999999
0.779582
0.090418
0.163071
0.568709
0.861848
0.999649
0.999656
0.999832
0.999872
0.996657
0.995186
0.990493
0.993443
0.992236
0.993908
0.99967
1
0.999963
0.999684
0.999658
0.999703
0.999872
0.999988
0.999988
0.999993
1
1
1
0.999999
0.976017
0.129638
7.63237e-05
0.0474547
0.422634
0.870348
0.999619
0.998428
0.99796
0.999328
0.997707
0.996374
0.99049
0.990506
0.992538
0.999992
0.999998
0.999999
0.999998
0.999786
0.999767
0.999977
0.999982
0.999987
0.999987
0.999968
1
1
1
0.999919
0.384489
7.62805e-05
1.74169e-05
7.51066e-05
0.167983
0.591237
0.999593
0.979557
0.995
0.999131
0.999122
0.998963
0.993594
0.992117
0.999509
0.999985
0.999988
0.999998
0.999991
0.999958
0.999935
0.999972
0.999977
0.999984
0.999984
0.999951
1
1
0.999991
0.699207
0.0143387
1.70784e-05
1.26073e-06
2.59485e-05
0.00257314
0.219099
0.786899
0.897701
0.99197
0.999128
0.999121
0.999112
0.999103
0.999024
0.999983
0.999984
0.999985
0.993369
0.992791
0.990919
0.989924
0.9914
0.987481
0.991536
0.988931
0.994017
1
0.999386
0.884153
0.0486216
1.57368e-05
1.25954e-06
3.65041e-07
1.54544e-06
2.21941e-05
0.00286026
0.192269
0.566733
0.927014
0.999121
0.999112
0.999027
0.997475
0.985236
0.969176
0.831052
0.661938
0.408216
0.44152
0.409006
0.3777
0.392826
0.370296
0.399695
0.379122
0.413219
0.98206
0.982071
0.982077
0.982104
0.982854
0.996993
0.999238
0.999247
0.999272
0.999938
0.995917
0.994261
0.994261
0.999275
1
1
1
1
1
1
1
1
1
1
1
1
1
1
1
1
0.990145
0.989034
0.993133
0.997358
0.998323
0.997043
0.998216
0.999769
0.999839
0.999947
0.999952
0.996234
0.995769
0.999399
1
1
1
1
1
1
1
1
1
1
1
1
1
1
1
1
0.999996
0.999996
0.999996
0.999996
0.999996
0.999988
0.998888
0.997938
0.99796
0.99938
0.999957
0.997572
0.997448
0.999746
1
1
1
1
1
1
1
1
1
1
1
1
1
1
1
1
0.999973
0.999985
0.999996
0.999996
0.999454
0.997284
0.9956
0.99757
0.99955
0.999914
0.999958
0.999388
0.999509
0.999975
1
1
1
1
1
1
1
1
1
1
1
1
1
1
1
1
0.99997
0.999983
0.999996
0.999912
0.9951
0.994867
0.994867
0.994979
0.999541
0.999959
0.999958
0.999626
0.999954
1
1
1
1
1
1
1
1
1
1
1
1
1
1
1
1
1
0.999984
0.999995
0.999993
0.995999
0.994866
0.994869
0.994951
0.998266
0.999939
0.999959
0.999802
0.99965
0.999998
1
1
1
1
1
1
1
1
1
1
1
1
1
1
1
1
1
0.999916
0.999995
0.999001
0.994865
0.994865
0.994993
0.999623
0.999959
0.999959
0.999959
0.997864
0.999895
1
1
1
1
1
1
1
1
1
1
1
1
1
1
1
1
1
1
0.999684
0.999993
0.99844
0.994865
0.994866
0.999158
0.999909
0.999496
0.998857
0.998662
0.997739
0.999999
1
1
1
1
1
1
1
1
1
1
1
1
1
1
1
1
1
1
0.999626
0.999981
0.999671
0.996
0.995295
0.99996
0.999874
0.997877
0.997715
0.997715
0.997731
1
1
1
1
1
1
1
1
1
1
1
1
1
1
1
1
1
1
1
0.999626
0.999978
0.999934
0.998883
0.998464
0.999965
0.999981
0.999746
0.998628
0.998164
0.999055
1
1
1
1
1
1
1
1
1
1
1
1
1
1
1
1
1
1
1
0.999649
0.999978
0.999975
1
1
0.999709
0.999981
1
1
0.999961
1
1
1
1
1
1
1
1
1
1
1
1
1
1
1
1
1
1
1
1
0.999941
0.999875
1
1
0.999999
0.999928
0.999852
1
1
1
1
1
1
1
1
1
1
1
1
1
1
1
1
1
1
1
1
1
1
1
1
0.999794
1
1
1
1
1
1
1
1
1
1
1
1
1
1
1
1
1
1
1
1
1
1
1
1
1
1
1
1
1
0.999967
0.999882
0.999729
0.999985
1
1
1
1
1
1
1
1
1
1
1
1
1
1
1
1
1
1
1
1
1
1
1
1
1
1
0.999972
0.999701
0.999701
0.999895
1
1
1
1
1
1
1
1
1
1
1
1
1
1
1
1
1
1
1
1
1
1
1
1
1
0.999999
0.999888
0.999792
0.999925
0.999997
1
1
1
1
1
1
1
1
1
1
1
1
1
1
1
1
1
1
1
1
1
1
1
1
1
1
1
0.999997
1
0.999993
0.999974
0.99999
1
1
1
1
1
1
1
1
1
1
1
1
1
1
1
1
1
1
1
1
1
1
1
1
1
1
1
0.999984
0.999951
0.999951
0.999993
1
1
1
1
1
1
1
1
1
1
1
1
1
1
1
1
1
1
1
1
1
1
0.99994
0.999938
0.999967
0.999994
0.999963
0.999952
0.999951
0.999972
0.999968
0.998844
1
1
1
1
1
1
1
1
1
1
1
1
1
1
1
1
1
1
1
1
0.999819
0.999819
0.999819
0.999819
0.999885
0.999999
1
1
0.996025
0.982867
1
1
1
1
1
1
1
1
1
1
1
1
1
1
1
1
1
1
1
1
0.999928
0.999973
0.999998
0.999972
0.999998
1
1
1
0.997968
0.981132
0.99283
1
1
1
1
1
1
1
1
1
1
1
1
1
1
1
1
1
1
1
1
1
1
0.999977
1
1
1
0.998525
0.983113
0.981132
0.981133
0.987488
0.999438
1
1
1
1
1
1
1
1
1
1
1
1
1
1
1
1
1
1
0.999999
1
1
1
1
1
0.999654
0.981699
0.981133
0.982687
0.990987
0.999879
1
1
0.999886
1
0.996016
0.990236
1
1
1
1
1
1
1
1
1
1
1
0.999993
0.999987
0.999955
0.99997
0.999931
1
1
1
0.998298
0.987524
0.999195
0.999581
0.999881
0.99943
1
0.999697
0.997548
0.988481
0.988484
0.998036
0.971509
0.903369
0.805378
0.995736
1
1
1
1
1
1
0.999987
0.999993
0.999894
0.999719
0.999719
0.999895
1
0.99999
0.999996
0.990148
0.994412
0.999882
0.999882
0.995673
0.997583
0.999689
0.995394
0.996574
0.995975
0.999114
0.99286
0.786052
0.401213
0.537336
0.999991
1
1
1
1
1
0.999993
0.999993
0.999993
0.999891
0.999756
0.999722
0.999721
0.99994
0.999996
0.998844
0.99155
0.991595
0.996009
0.988695
0.990798
0.998016
0.995913
0.999045
0.999111
0.999111
0.98498
0.776376
0.218722
0.0782769
0.724512
0.999999
1
1
1
1
0.999981
0.999957
0.999993
0.999992
0.99999
0.999743
0.999721
0.999981
0.999996
0.999995
0.99512
0.985906
0.985859
0.988047
0.996994
0.997855
0.99951
0.997161
0.999074
0.998487
0.901163
0.643604
0.153308
0.00254013
0.103153
0.969803
0.999999
1
1
1
0.999396
0.999969
0.999992
0.99999
0.999986
0.999804
0.999798
0.999973
0.999995
0.999983
0.999982
0.988029
0.985862
0.995752
0.999613
0.999602
0.999611
0.991386
0.999049
0.954862
0.629916
0.2505
0.024199
1.91017e-05
0.00206096
0.366504
0.999939
1
1
1
0.992873
0.996586
0.994422
0.998912
0.997514
0.9998
0.999764
0.99985
0.999968
0.999982
0.999981
0.997981
0.996495
0.999366
0.999616
0.999616
0.999616
0.97523
0.969782
0.663079
0.168628
0.00243518
1.83941e-05
2.58021e-06
1.90931e-05
0.0139659
0.688409
0.999991
1
1
0.396493
0.441716
0.422083
0.498047
0.471324
0.610523
0.563952
0.681557
0.677486
0.889207
0.939811
0.992465
0.999205
0.99961
0.999615
0.999616
0.99442
0.725221
0.526721
0.115388
0.00228615
4.04822e-05
2.43668e-06
9.18171e-07
2.55416e-06
2.18309e-05
0.0452475
0.882515
0.999369
1
1
0.996598
0.314577
0.00562658
5.14346e-06
-6.17063e-07
2.19494e-08
1.80427e-07
4.86047e-06
1.28445e-05
0.000132806
0.130765
0.63459
0.997264
0.999103
0.978485
0.679972
0.285236
0.140412
1.38568e-08
1.24506e-08
1.18941e-08
1.18655e-08
1.17552e-08
1.16449e-08
1.16126e-08
1.13549e-08
1.13134e-08
1.13113e-08
1.13107e-08
0.999992
0.947587
0.0543515
-3.55547e-06
1.19027e-08
-2.6326e-08
6.73596e-10
1.37141e-08
1.54252e-06
1.55752e-06
1.10425e-05
0.00585768
0.219799
0.854227
0.976724
0.548243
0.110859
2.7251e-06
1.44427e-06
1.74176e-07
1.50163e-08
3.49121e-08
1.21087e-08
4.56418e-08
7.18145e-08
1.17998e-08
1.23808e-08
1.14893e-08
1.13529e-08
1.13185e-08
0.980667
0.253065
6.97228e-08
-8.51625e-09
-6.00727e-09
1.17356e-11
4.17149e-11
2.26118e-10
2.80037e-07
1.61496e-07
7.72746e-07
1.82934e-06
0.00348998
0.282712
0.465777
0.0640992
2.60451e-05
3.90194e-05
8.52532e-05
8.15408e-05
3.67218e-08
1.75008e-07
3.27637e-07
3.57461e-06
6.71446e-07
1.2834e-08
2.8207e-07
5.34016e-08
1.17111e-08
1.1595e-08
0.640365
6.98761e-08
8.06424e-10
2.40788e-11
1.79638e-12
1.50969e-12
4.64742e-12
8.70107e-12
4.69378e-08
1.39907e-08
1.03034e-07
1.3004e-06
2.18925e-06
0.00107863
0.00585583
2.22675e-05
2.96179e-05
0.000123388
0.00014554
0.000145696
1.25731e-05
1.76764e-07
2.20101e-06
5.1489e-06
8.11302e-07
3.18493e-07
4.86068e-07
3.30029e-07
1.6826e-08
1.17792e-08
6.96353e-08
0.000103356
1.54435e-06
1.81051e-08
1.24081e-11
6.37081e-12
4.22108e-12
1.80835e-11
7.23946e-09
7.12289e-09
1.45946e-08
1.65719e-06
9.64973e-06
1.20948e-05
1.44728e-05
2.14412e-05
6.93912e-05
0.000145045
0.000145267
0.000145649
7.809e-05
1.93114e-07
1.3141e-06
2.53528e-06
1.68285e-07
4.86119e-07
4.86097e-07
4.63718e-07
2.07328e-08
1.18882e-08
6.96353e-08
3.82598e-07
8.68542e-06
1.91733e-08
-2.52398e-11
1.88713e-11
3.91501e-11
4.8044e-11
1.07315e-09
1.57403e-09
1.35155e-07
9.44712e-06
2.1712e-05
2.19554e-05
1.62514e-05
2.43112e-05
6.33686e-05
0.000110407
0.00014564
0.00014546
0.000145305
4.38615e-07
4.42278e-05
9.55311e-07
2.57156e-08
3.04367e-07
4.47091e-07
2.40191e-07
7.55544e-08
1.22478e-08
7.09331e-08
5.21813e-06
8.74642e-06
3.49598e-09
1.66499e-12
2.91134e-11
9.35338e-11
1.02605e-10
2.51166e-10
3.55226e-10
5.26159e-07
1.77018e-05
2.19553e-05
1.60162e-05
1.34605e-05
9.49079e-06
3.39162e-08
5.77651e-06
0.000145531
0.000145783
0.000145455
2.65272e-05
8.91842e-05
4.38479e-05
2.56185e-08
6.10356e-08
6.4047e-08
3.1934e-07
1.69372e-06
1.56412e-06
6.50091e-07
1.03486e-05
8.17314e-06
1.94291e-12
4.15193e-12
3.30533e-11
1.15924e-10
2.34767e-10
2.74364e-10
3.00322e-10
4.61768e-07
1.76363e-05
1.70429e-05
5.34672e-07
4.72591e-07
1.64384e-06
2.05751e-08
7.39338e-07
4.64324e-05
0.000145455
0.000145224
5.5734e-05
8.9209e-05
8.63638e-05
2.56945e-08
3.54221e-08
1.93191e-07
2.21442e-06
4.96591e-06
4.96317e-06
2.05319e-06
1.03596e-05
1.32286e-09
1.9705e-12
5.30973e-12
3.48535e-11
1.40236e-10
2.44341e-10
2.65659e-10
2.93011e-10
8.2062e-08
8.09152e-06
1.55173e-05
2.50596e-06
1.67378e-08
1.67176e-08
1.67434e-08
2.05546e-08
2.70204e-05
0.000145224
0.000100816
9.50575e-05
8.91815e-05
1.75162e-05
2.62688e-08
3.96992e-07
3.76406e-06
4.9661e-06
4.96939e-06
4.54644e-06
6.86601e-06
1.02947e-05
3.21453e-12
2.79626e-12
5.05873e-12
3.45996e-11
1.6745e-10
3.18908e-10
3.39879e-10
3.14229e-10
3.24634e-10
3.86863e-06
2.10942e-05
2.10802e-05
4.28978e-06
1.66954e-08
1.77146e-08
1.60955e-06
8.60109e-05
0.000118619
1.41616e-05
3.28322e-05
7.28777e-05
6.77091e-08
1.44532e-07
3.57658e-06
4.96057e-06
4.96907e-06
4.38019e-06
4.15346e-08
6.97832e-06
1.0355e-05
2.69585e-08
1.628e-12
4.16284e-12
3.20236e-11
1.95629e-10
4.79042e-10
3.90265e-10
3.40545e-10
3.42012e-10
3.01562e-06
2.10826e-05
2.10942e-05
2.01384e-05
1.77067e-08
3.1559e-08
4.80725e-06
5.60039e-05
1.31663e-05
2.26616e-06
3.34407e-05
3.58334e-05
6.77006e-08
6.92719e-07
4.95759e-06
4.96362e-06
4.94433e-06
1.01162e-06
1.15919e-09
6.46353e-23
1.0355e-05
1.71336e-07
1.62709e-12
3.17856e-12
2.69802e-11
2.21336e-10
7.88116e-10
3.58727e-10
3.48781e-10
3.5276e-10
1.70082e-06
5.48428e-06
2.10802e-05
2.09854e-05
5.90642e-07
8.68532e-08
2.40117e-06
2.39424e-06
5.14177e-07
2.03486e-06
2.90468e-05
1.79831e-05
7.75032e-08
3.99366e-07
4.80295e-06
4.95443e-06
4.92744e-06
8.90352e-07
9.47376e-10
4.05439e-19
1.03534e-05
2.76738e-07
1.62756e-12
2.29245e-12
1.83655e-11
2.05854e-10
1.16612e-09
1.40783e-09
1.7707e-09
4.33656e-10
8.60731e-09
5.70682e-09
4.18712e-06
2.08013e-05
6.76084e-06
1.11967e-07
8.20358e-07
2.73274e-06
5.0249e-07
1.46601e-06
3.10869e-05
3.17275e-05
9.15658e-08
1.96827e-07
3.54987e-06
4.93644e-06
4.73752e-06
2.74752e-07
9.40646e-10
2.5985e-16
2.04285e-06
1.97721e-07
1.68163e-12
1.63294e-12
8.12218e-12
1.10584e-10
1.00309e-09
3.87993e-09
3.81469e-09
1.60032e-09
9.21405e-10
5.04858e-10
1.39647e-06
1.73352e-05
1.22424e-05
2.13282e-05
2.84911e-05
3.29682e-06
4.90473e-07
4.24825e-06
3.93718e-05
3.92542e-05
4.98841e-06
1.93826e-07
2.00711e-07
1.56547e-06
2.11602e-06
9.46516e-10
9.40618e-10
1.20751e-13
1.20776e-13
2.04454e-13
8.35165e-12
1.28717e-12
2.99763e-12
3.9817e-11
5.04934e-10
3.8951e-09
3.27173e-09
2.07737e-09
4.1455e-10
1.96383e-10
2.14292e-10
2.67593e-06
4.05296e-06
0.000242802
0.000129757
4.90785e-07
4.90776e-07
8.87842e-07
2.19282e-05
2.74792e-05
8.39838e-07
2.88234e-06
1.06257e-05
2.02832e-06
1.16952e-09
1.05631e-09
1.21109e-09
4.13325e-13
7.87874e-12
9.84883e-12
1.16068e-11
1.01989e-12
1.13722e-12
1.28156e-11
1.44436e-10
1.5505e-09
5.32403e-10
8.05461e-10
2.04819e-10
1.60903e-10
6.63874e-11
2.64229e-06
1.24689e-06
0.000342479
0.000482818
9.57047e-05
4.90782e-07
6.5816e-07
1.10564e-05
2.96407e-05
8.40295e-07
1.47382e-06
1.56729e-05
1.90337e-05
1.91408e-05
6.03864e-06
1.21168e-09
8.21265e-13
2.16812e-11
2.62402e-11
7.86556e-12
7.32166e-13
4.14396e-13
4.91885e-12
5.29568e-11
2.49206e-10
2.01465e-10
1.25376e-10
2.63554e-10
1.44287e-10
6.14533e-11
3.19438e-06
1.23856e-06
0.000203593
0.000503227
0.000459117
2.41919e-05
9.13472e-06
9.16411e-06
2.07367e-05
0.000151374
1.63427e-06
5.82114e-06
1.45143e-05
1.93748e-05
1.94281e-05
1.73283e-05
8.79734e-13
3.33939e-11
2.75975e-11
6.51402e-12
4.55481e-13
1.23717e-13
1.53609e-12
2.17606e-11
1.7898e-10
9.42708e-11
4.34547e-11
2.01442e-10
9.68588e-11
6.14495e-11
4.25251e-06
1.24689e-06
7.5002e-05
0.000506464
0.000506083
0.000162868
9.1939e-06
1.48139e-05
3.84156e-05
0.000225126
0.000194889
4.80755e-05
5.07758e-06
5.04858e-06
8.10545e-06
1.95465e-05
2.62486e-13
3.06725e-11
1.63793e-11
3.87629e-12
2.42776e-13
3.22617e-14
2.97317e-13
5.6623e-12
6.79081e-11
4.25678e-11
4.74523e-11
1.02407e-10
4.94375e-11
7.60207e-07
8.92638e-06
1.55449e-06
5.59737e-07
0.000448945
0.000506519
0.000361253
1.21403e-05
4.14497e-06
1.0244e-05
0.000225062
0.000225126
0.000225062
0.000173529
3.71928e-05
8.21431e-06
8.47519e-06
7.66091e-14
7.85456e-12
7.41311e-12
1.71357e-12
1.08173e-13
9.35305e-15
3.96044e-14
8.32493e-13
1.35881e-11
1.58776e-11
5.57649e-11
8.17494e-11
4.9434e-11
1.14076e-05
1.13126e-05
8.14114e-07
5.65646e-07
0.000437255
0.000506083
0.000284855
2.32814e-06
9.34611e-09
1.08572e-07
6.66398e-05
0.000168994
0.000224729
0.000224464
0.000224451
0.000185781
2.9002e-05
1.25603e-14
3.16576e-12
2.32377e-12
5.62193e-13
3.93236e-14
2.75071e-15
6.09948e-15
9.36958e-14
1.39297e-12
6.19851e-12
6.38971e-11
6.49322e-11
4.9434e-11
1.3615e-05
7.8022e-06
1.83041e-07
1.63549e-05
0.000279302
0.000241436
3.8089e-05
9.34071e-09
9.07173e-10
5.77843e-07
2.29915e-08
5.81176e-06
6.41309e-05
3.61484e-05
7.11083e-05
0.000184191
0.000103844
1.39968e-15
4.82122e-13
6.48412e-13
1.70667e-13
1.16473e-14
6.62721e-16
1.20516e-15
1.60267e-14
1.68464e-13
2.61147e-12
6.07107e-12
1.16413e-11
1.02609e-05
1.357e-05
3.05148e-06
1.55086e-07
2.5286e-06
2.18192e-06
1.28228e-08
2.59689e-09
5.27926e-09
4.52119e-10
1.22314e-07
1.75262e-09
2.82258e-09
1.34234e-08
8.95701e-09
1.0281e-08
9.85783e-06
4.68477e-05
1.03061e-16
3.87801e-14
1.39318e-13
3.78471e-14
2.50592e-15
1.17458e-16
2.72328e-16
4.97161e-15
8.56888e-14
1.63476e-12
8.29342e-12
6.46775e-07
1.32544e-05
9.42271e-06
1.23207e-07
3.15661e-08
3.89264e-10
5.65558e-10
4.45542e-10
3.06092e-10
2.72376e-10
4.40401e-10
4.5465e-10
1.00567e-09
1.53297e-09
3.22045e-09
4.39329e-09
4.50996e-09
5.49163e-09
1.10716e-08
4.93545e-18
1.65068e-15
2.07675e-14
5.45771e-15
3.42849e-16
1.38213e-17
6.88006e-17
2.57137e-15
1.1032e-13
4.37323e-12
8.133e-12
4.17361e-07
6.7737e-06
2.40168e-07
1.28766e-10
1.41322e-10
2.68205e-10
4.31517e-10
3.2128e-10
2.72441e-10
2.53685e-10
2.41889e-10
9.83941e-08
1.11236e-07
2.7493e-08
4.40034e-09
4.48918e-09
4.48936e-09
4.51521e-09
5.48565e-09
1.51756e-19
3.45833e-17
1.79675e-15
4.40842e-16
2.59945e-17
9.08566e-19
6.01926e-18
3.18924e-16
2.32937e-14
1.69643e-12
8.28013e-11
3.99914e-09
2.10268e-09
1.14555e-10
4.9393e-11
1.33501e-10
2.59186e-10
4.32723e-10
3.81031e-10
2.83284e-10
2.30914e-10
1.15372e-07
1.04497e-06
1.10013e-06
4.25736e-07
4.95909e-09
5.86929e-07
1.48903e-07
5.47098e-09
1.77051e-05
2.96791e-21
2.52508e-19
7.85105e-17
1.74013e-17
9.487e-19
3.07194e-20
2.6795e-19
1.34333e-17
1.10806e-15
9.67397e-14
5.3711e-12
1.12754e-10
4.71266e-11
2.77548e-11
3.83141e-11
2.96344e-11
2.53953e-10
5.0732e-10
7.53151e-10
3.78399e-10
2.31594e-10
2.37252e-10
1.0427e-06
1.10012e-06
5.77265e-07
4.22987e-07
7.79835e-07
7.15683e-07
7.68655e-09
5.90956e-06
3.65311e-23
4.67428e-22
1.50236e-18
2.86389e-19
1.37926e-20
4.92661e-22
8.68126e-21
4.69888e-19
4.26731e-17
3.9542e-15
2.31255e-13
5.59586e-12
1.21517e-11
2.13607e-11
8.26784e-12
1.51446e-11
7.13331e-11
1.0246e-10
4.23166e-11
1.11599e-08
1.66267e-09
9.59262e-10
7.71876e-07
1.10012e-06
1.09542e-06
3.44469e-07
7.90237e-07
7.91032e-07
3.57354e-07
2.59662e-07
2.82997e-25
2.30571e-25
1.01894e-20
1.53807e-21
6.01564e-23
2.957e-24
1.11733e-22
7.94173e-21
9.75563e-19
1.25329e-16
9.93204e-15
3.82055e-13
8.43635e-12
1.49767e-12
2.61313e-12
1.32702e-11
5.20102e-11
3.45324e-11
3.46856e-11
4.45351e-08
2.28042e-07
3.96007e-07
6.27965e-07
6.07801e-07
3.26602e-07
2.44855e-07
2.44538e-07
2.93598e-07
2.59649e-07
2.59796e-07
1.41202e-27
6.08247e-28
1.91175e-23
1.92411e-24
5.09926e-26
3.29667e-27
2.96226e-25
4.43831e-23
1.0515e-20
2.22631e-18
2.57608e-16
1.45351e-14
5.58347e-13
1.05254e-13
7.58088e-13
7.37562e-12
7.74834e-11
2.51923e-11
6.63629e-09
8.05069e-08
3.09612e-08
5.06353e-10
4.91905e-10
4.98956e-10
8.12144e-12
5.71071e-07
9.60271e-07
9.60349e-07
9.60116e-07
3.0452e-07
5.01657e-30
1.98613e-30
1.03975e-26
3.88426e-28
3.75765e-30
5.63573e-32
4.07182e-29
4.13494e-26
3.93765e-23
2.02608e-20
3.95268e-18
3.15731e-16
2.06093e-14
7.3355e-15
1.21125e-13
1.63687e-12
7.91789e-12
2.26208e-11
1.07542e-12
2.59856e-14
1.7779e-17
2.85404e-09
1.2883e-09
4.55861e-10
2.85533e-13
3.39582e-08
2.42984e-07
2.75353e-07
2.79904e-07
5.99689e-06
1.13104e-08
1.13103e-08
1.13103e-08
1.13103e-08
1.13103e-08
1.13108e-08
1.13256e-08
0.015971
5.41784e-08
0.0448226
0.120516
0.425126
0.787997
0.902948
0.989681
0.999616
0.727125
0.146495
0.0237827
1.26905e-05
8.92753e-07
5.61287e-06
4.60431e-07
1.04608e-07
4.81721e-07
6.73246e-06
0.00648177
0.318866
0.99662
1
1.13146e-08
1.13119e-08
1.13114e-08
1.13118e-08
1.13188e-08
1.13794e-08
1.17501e-08
1.20593e-08
1.26632e-08
5.41638e-08
2.36335e-07
3.83281e-07
0.0577148
0.184784
0.589438
0.706122
0.207235
2.03689e-05
1.2075e-05
1.25164e-06
4.24139e-08
1.02784e-06
5.88505e-08
8.30491e-09
-5.9414e-08
7.26532e-09
-2.21876e-06
0.0560327
0.947186
0.999992
1.14799e-08
1.13889e-08
1.13717e-08
1.13513e-08
1.1491e-08
1.18175e-08
1.22271e-08
5.84093e-08
2.59401e-06
6.01386e-06
3.93938e-06
9.67855e-07
5.06313e-07
4.283e-07
0.0644814
0.065895
-6.61196e-07
4.45426e-07
3.68182e-07
7.07527e-07
1.27117e-08
4.11249e-08
4.57704e-09
1.23771e-10
1.06648e-11
-2.61969e-09
-5.22613e-09
4.42548e-08
0.252223
0.980566
1.1656e-08
1.15062e-08
1.14604e-08
1.15744e-08
1.20594e-08
8.23312e-07
5.0486e-06
1.50289e-06
1.2561e-05
1.26077e-05
1.23856e-05
6.24557e-06
6.57339e-07
3.43201e-07
3.27221e-07
3.43141e-07
3.53527e-07
4.28552e-07
1.28943e-08
5.41758e-09
5.83144e-09
5.43914e-09
2.68195e-10
2.64341e-11
-4.66547e-11
-7.67229e-11
4.91062e-12
1.88963e-11
4.4334e-08
0.63805
1.17635e-08
1.15936e-08
1.15869e-08
1.19778e-08
7.51375e-07
9.25152e-06
1.44603e-05
1.34608e-05
1.343e-05
5.10023e-06
2.38205e-06
2.579e-06
1.59957e-06
3.46807e-07
3.18408e-07
1.13539e-06
3.14001e-06
1.8626e-06
2.1986e-09
5.04078e-10
4.13859e-09
4.25427e-09
5.27078e-11
1.81521e-11
-4.15688e-11
-2.03631e-10
1.41806e-11
9.77093e-07
7.65862e-05
7.39951e-08
1.19579e-08
1.7272e-08
1.21161e-08
1.43211e-08
3.79465e-06
1.43625e-05
1.44923e-05
1.30183e-05
1.6918e-06
1.35623e-07
9.38185e-08
6.07175e-08
4.77253e-08
2.26224e-07
2.33072e-07
3.94373e-06
4.29437e-06
8.18774e-07
3.86181e-10
4.65004e-10
1.79688e-09
1.06562e-09
3.38407e-11
1.67639e-11
1.00836e-12
-3.0211e-10
1.94002e-09
6.38903e-06
4.20298e-07
7.39951e-08
3.58073e-07
6.51467e-08
1.43559e-08
8.2194e-08
2.84234e-06
4.45475e-06
3.72987e-06
3.85725e-07
4.84152e-07
8.43527e-07
8.03195e-07
2.78397e-07
1.13908e-08
9.61618e-09
5.19761e-07
1.33837e-06
2.22182e-06
2.27646e-06
3.44632e-10
4.1719e-10
4.29694e-10
3.41131e-10
4.16482e-11
1.75273e-11
9.37741e-12
8.19672e-13
3.11425e-13
1.01469e-05
5.68461e-06
7.73924e-08
2.21666e-06
2.4389e-08
2.80612e-08
2.30661e-07
2.38715e-07
2.46595e-07
2.59838e-07
4.00595e-07
8.76145e-07
1.30401e-06
1.29979e-06
1.01604e-06
4.23914e-08
9.29652e-09
4.61536e-08
9.67666e-09
3.89282e-07
9.74557e-06
3.43493e-10
3.53729e-10
4.40878e-10
2.7185e-10
5.50822e-11
3.26095e-11
8.92928e-12
1.76718e-12
3.11454e-13
9.67532e-06
1.09197e-05
7.44248e-07
1.35761e-07
2.43161e-08
3.89405e-08
2.9163e-07
4.98056e-07
5.32259e-07
8.69655e-07
1.3113e-06
1.31134e-06
1.3123e-06
4.3815e-07
7.50039e-08
2.27205e-08
9.2295e-09
9.12653e-09
9.28301e-09
1.01596e-05
1.33506e-05
5.36108e-06
3.00788e-10
3.77563e-10
3.09318e-10
1.74731e-10
3.05754e-11
7.32945e-12
2.61294e-12
3.36263e-13
4.63088e-08
1.09323e-05
1.8713e-06
1.30706e-08
3.49455e-08
8.25775e-07
1.26993e-06
1.2857e-06
1.30288e-06
1.31012e-06
1.31176e-06
1.31014e-06
3.94879e-07
9.08212e-09
9.08219e-09
9.08468e-09
9.11981e-09
9.10145e-09
5.22361e-07
1.35803e-05
1.35291e-05
4.58619e-06
3.00541e-10
3.26742e-10
2.67028e-10
1.3796e-10
2.54499e-11
5.70098e-12
3.00396e-12
8.36075e-13
1.21401e-12
1.08365e-05
7.05153e-06
2.67887e-09
1.423e-07
6.43616e-07
5.4392e-07
7.65078e-08
6.94119e-08
8.96532e-07
1.31013e-06
9.41461e-07
9.36547e-09
9.09172e-09
9.07954e-09
9.0877e-09
9.16826e-09
1.00265e-07
6.91654e-06
1.35803e-05
1.30128e-05
3.10796e-10
3.00541e-10
3.02239e-10
2.4373e-10
8.25383e-11
1.72245e-11
4.19934e-12
2.70744e-12
8.3408e-13
2.52212e-08
1.09105e-05
8.87755e-06
3.55458e-09
7.26497e-09
3.23008e-09
9.81905e-10
1.03604e-09
1.19593e-09
1.24054e-07
4.86757e-07
3.38341e-07
1.06097e-08
9.18473e-09
9.09646e-09
9.16705e-09
9.47454e-09
3.34762e-07
8.22525e-06
1.35803e-05
2.362e-06
8.317e-10
2.35327e-09
3.37486e-10
3.97051e-10
4.46449e-11
1.19267e-11
3.04127e-12
2.31726e-12
8.35217e-13
2.91453e-07
1.09105e-05
3.36012e-23
1.02818e-09
9.9668e-10
9.4559e-10
9.7992e-10
1.03408e-09
1.07836e-09
1.13547e-09
1.72478e-09
1.93961e-07
6.57497e-07
1.26787e-07
9.15875e-09
9.40809e-09
9.04832e-09
1.48733e-07
1.36673e-06
2.43229e-06
7.11275e-09
6.68302e-09
6.39632e-09
3.42562e-10
1.0208e-09
4.75017e-11
1.21897e-11
2.21636e-12
2.01812e-12
8.65463e-13
5.6772e-07
1.09091e-05
2.20901e-19
9.69586e-10
1.02585e-09
1.01106e-09
1.04876e-09
1.03201e-09
1.00493e-09
1.28509e-09
8.67245e-08
7.39918e-07
8.28014e-07
6.70362e-07
9.38866e-09
9.03874e-09
8.91035e-09
1.2021e-08
1.01386e-08
1.19417e-08
7.06087e-09
1.66731e-08
8.36415e-09
3.49302e-10
9.01031e-10
7.64233e-11
1.06493e-11
1.34356e-12
1.79453e-12
4.89155e-12
3.63409e-07
2.80532e-06
9.73588e-17
1.63693e-09
1.1048e-09
1.08135e-09
1.04e-09
9.62444e-10
8.33366e-10
1.04025e-09
1.17529e-07
8.19152e-07
8.28021e-07
8.28021e-07
3.81435e-07
8.72189e-09
8.45367e-09
8.3538e-09
7.72066e-09
6.77747e-09
6.48944e-09
5.60388e-09
7.52868e-09
1.74383e-08
5.02398e-10
5.24591e-11
4.42657e-12
5.82668e-13
1.58942e-12
8.87096e-11
2.0079e-13
9.05699e-14
9.05467e-14
1.54553e-09
4.20205e-07
6.82232e-07
5.32355e-08
6.8941e-10
7.96775e-10
7.41719e-10
8.51138e-10
2.70176e-07
8.28017e-07
8.27756e-07
8.27498e-07
1.92442e-07
8.08404e-09
7.93404e-09
7.48967e-09
6.54038e-09
6.32569e-09
1.07721e-10
5.10346e-09
2.03799e-08
1.85371e-10
1.76042e-11
1.09442e-12
2.24397e-13
1.31827e-12
1.00146e-11
1.05549e-11
9.54223e-12
3.58995e-13
1.92331e-05
1.98705e-05
1.68773e-05
1.99541e-07
5.60461e-10
5.0836e-10
7.08885e-10
6.03508e-10
6.23372e-10
2.90895e-07
8.27492e-07
8.24641e-07
8.19892e-07
1.3498e-07
8.07887e-09
1.13319e-08
1.84536e-08
1.84918e-08
8.83282e-11
1.26721e-09
1.27988e-08
3.81219e-11
3.53882e-12
1.78674e-13
8.79514e-14
9.50295e-13
8.27205e-12
2.7375e-11
2.77152e-11
7.87408e-13
1.98705e-05
1.98705e-05
1.98705e-05
1.91538e-05
1.36819e-06
5.04872e-10
5.36195e-10
5.7514e-10
5.61805e-10
5.2336e-10
5.10709e-08
6.12589e-07
8.13861e-07
6.96878e-07
8.30245e-09
1.23635e-08
1.81748e-08
2.19415e-08
8.35147e-11
5.21653e-11
3.25114e-10
6.46742e-12
4.36389e-13
2.27288e-14
3.8536e-14
5.92742e-13
6.36932e-12
2.94643e-11
4.23762e-11
9.14368e-13
1.14307e-05
1.02658e-05
1.20187e-05
1.92493e-05
8.95312e-06
5.03993e-10
5.03988e-10
5.15844e-10
5.28898e-10
5.05253e-10
3.24162e-10
2.30859e-10
8.11431e-08
1.34159e-07
1.4415e-07
2.38665e-08
1.68381e-09
1.27114e-08
5.00328e-11
8.80828e-12
5.62496e-11
5.11561e-13
3.5438e-14
3.80363e-15
1.82924e-14
3.22123e-13
3.62828e-12
1.77641e-11
3.62243e-11
2.69558e-13
4.17125e-06
4.02053e-06
3.94513e-06
8.10513e-06
4.3812e-06
5.45614e-10
5.05117e-10
5.72246e-10
6.18441e-10
5.5537e-10
3.93772e-10
2.14903e-10
1.59506e-10
1.7721e-10
6.93512e-09
1.00388e-08
1.10092e-09
1.43768e-10
1.53865e-12
1.3881e-12
1.77013e-11
2.84332e-14
3.34603e-15
9.42114e-16
7.44923e-15
1.43681e-13
1.55158e-12
6.66111e-12
6.96548e-12
7.52785e-14
6.39058e-06
7.96355e-06
3.06453e-06
2.90373e-06
7.07067e-07
5.56017e-07
5.05436e-10
1.76451e-09
2.04755e-09
2.06975e-09
1.1667e-09
3.41008e-10
1.59166e-10
1.85715e-10
1.31241e-10
9.17618e-11
4.22223e-10
3.3953e-11
9.63882e-13
2.66335e-13
2.38292e-12
7.30561e-15
7.1727e-16
2.38594e-16
2.48153e-15
5.17914e-14
5.33455e-13
2.14264e-12
2.79026e-12
1.20625e-14
1.01146e-05
7.70304e-07
3.96468e-05
1.7857e-05
3.27052e-06
6.26022e-07
5.10704e-10
2.17457e-09
1.51377e-08
1.6903e-08
1.03628e-08
4.82335e-11
4.86106e-11
4.82392e-11
4.26565e-11
3.47393e-11
3.46279e-11
5.73244e-12
4.8429e-13
8.27877e-14
2.14871e-13
1.12454e-15
1.68247e-16
4.73648e-17
6.45133e-16
1.54816e-14
1.64499e-13
6.0051e-13
4.60104e-13
1.31446e-15
8.3331e-07
6.78767e-07
0.000114248
7.73363e-05
1.67047e-05
2.72454e-08
5.1492e-10
5.46944e-10
5.67505e-10
1.23851e-08
1.02374e-08
4.88468e-11
1.75085e-10
3.27641e-11
2.33357e-11
1.55581e-11
6.46319e-12
1.49845e-12
2.03158e-13
2.63912e-14
1.51559e-14
2.40095e-16
2.92969e-17
6.47327e-18
1.20308e-16
3.39576e-15
3.71097e-14
1.30018e-13
4.20285e-14
9.4888e-17
1.10239e-08
2.24059e-05
0.000116422
0.000111071
2.99467e-05
2.44565e-08
5.15097e-10
5.45272e-10
1.71308e-07
3.70784e-09
3.70695e-09
3.9608e-09
5.48254e-09
3.26324e-11
2.69665e-11
1.89313e-11
7.31331e-12
1.11714e-12
1.17076e-13
1.07057e-14
1.43229e-15
5.59543e-17
4.99419e-18
7.01175e-19
1.44964e-17
4.74199e-16
5.47612e-15
1.95928e-14
1.98344e-15
4.45976e-18
8.29821e-05
0.000163248
0.000113819
5.5721e-05
2.22891e-05
3.22972e-08
1.1077e-06
7.62399e-06
9.62831e-07
3.72138e-09
1.60772e-08
4.77052e-08
3.54355e-08
3.18066e-11
3.1803e-11
2.46111e-11
8.81958e-12
9.44042e-13
6.81631e-14
4.23761e-15
2.48443e-16
1.11584e-17
6.69983e-19
5.98213e-20
9.84554e-19
3.66437e-17
4.56161e-16
1.7335e-15
4.5569e-17
1.34943e-19
0.0001421
0.000166328
0.00012125
4.461e-06
4.26878e-06
3.27415e-07
8.12029e-06
9.75138e-06
1.85039e-06
3.87788e-09
4.09568e-09
3.16443e-07
4.52729e-11
3.53337e-11
3.32049e-11
3.21952e-11
9.54702e-12
7.99475e-13
3.80187e-14
1.46104e-15
4.98927e-17
1.61267e-18
5.95485e-20
3.62761e-21
3.21959e-20
1.35324e-18
1.86497e-17
7.79769e-17
4.4474e-19
2.60726e-21
6.26393e-06
0.000123121
0.000123514
0.000111002
1.27064e-05
4.12942e-07
4.98749e-06
9.75138e-06
6.32081e-06
3.13391e-06
1.70212e-05
1.59593e-05
1.45847e-07
1.66166e-11
1.66735e-11