/*--------------------------------*- C++ -*----------------------------------*\
| =========                 |                                                 |
| \\      /  F ield         | OpenFOAM: The Open Source CFD Toolbox           |
|  \\    /   O peration     | Version:  2.4.0                                 |
|   \\  /    A nd           | Web:      www.OpenFOAM.org                      |
|    \\/     M anipulation  |                                                 |
\*---------------------------------------------------------------------------*/
FoamFile
{
    version     2.0;
    format      ascii;
    class       volScalarField;
    location    "0.148";
    object      p_rgh;
}
// * * * * * * * * * * * * * * * * * * * * * * * * * * * * * * * * * * * * * //

dimensions      [1 -1 -2 0 0 0 0];

internalField   nonuniform List<scalar> 
57600
(
110.605
108.452
103.34
97.376
91.6541
86.8749
83.3817
81.2708
80.9495
83.1345
87.2733
91.5838
94.9085
97.115
98.4911
99.343
99.8776
100.216
100.428
100.553
100.619
100.643
100.639
100.616
100.582
100.54
100.496
100.452
100.409
100.367
110.622
107.386
101.923
95.9211
90.3735
85.8917
82.7224
80.9721
81.1936
83.9873
88.3731
92.53
95.5734
97.5409
98.7575
99.5103
99.9827
100.28
100.462
100.567
100.617
100.63
100.619
100.59
100.552
100.509
100.463
100.419
100.376
100.335
110.655
107.405
101.926
95.9127
90.357
85.8682
82.6904
80.9121
81.0758
83.8681
88.3317
92.5584
95.6286
97.5954
98.8031
99.5467
100.01
100.297
100.469
100.564
100.606
100.612
100.595
100.562
100.521
100.475
100.428
100.383
100.339
100.299
110.703
107.436
101.933
95.9009
90.3317
85.8311
82.6405
80.8202
80.8924
83.6763
88.2541
92.5868
95.7033
97.6766
98.8768
99.6104
100.062
100.335
100.491
100.57
100.599
100.594
100.568
100.529
100.483
100.435
100.386
100.34
100.296
100.255
110.766
107.482
101.943
95.8855
90.2973
85.7805
82.5728
80.6976
80.642
83.4109
88.1451
92.6204
95.7988
97.7815
98.9727
99.6946
100.132
100.388
100.524
100.584
100.595
100.576
100.539
100.492
100.44
100.388
100.338
100.29
100.246
100.204
110.844
107.542
101.955
95.8667
90.2537
85.7162
82.4877
80.5456
80.3209
83.0646
88.0038
92.6619
95.9164
97.9078
99.0861
99.7938
100.216
100.453
100.566
100.603
100.593
100.557
100.507
100.449
100.39
100.333
100.279
100.23
100.184
100.142
110.938
107.615
101.97
95.8442
90.2008
85.6382
82.3853
80.3665
79.9249
82.6279
87.8282
92.7135
96.0577
98.0553
99.215
99.9059
100.313
100.528
100.616
100.627
100.594
100.538
100.471
100.401
100.332
100.267
100.208
100.155
100.108
100.065
111.047
107.702
101.987
95.8181
90.1384
85.5467
82.2661
80.1635
79.4489
82.0881
87.6162
92.7779
96.2252
98.2241
99.358
100.03
100.421
100.615
100.674
100.654
100.594
100.516
100.43
100.345
100.264
100.189
100.123
100.065
100.015
99.9706
111.17
107.801
102.005
95.7884
90.0662
85.4415
82.1302
79.9409
78.8869
81.4295
87.3654
92.859
96.4218
98.4144
99.5135
100.164
100.541
100.712
100.739
100.685
100.594
100.489
100.383
100.28
100.184
100.097
100.021
99.9564
99.9017
99.856
111.307
107.911
102.024
95.755
89.9838
85.3227
81.9774
79.7046
78.2318
80.6306
87.0735
92.9613
96.6516
98.6266
99.6791
100.306
100.672
100.82
100.809
100.716
100.59
100.457
100.326
100.203
100.091
99.9898
99.9017
99.8273
99.7666
99.7184
111.458
108.033
102.045
95.718
89.8907
85.1902
81.8073
79.4618
77.4757
79.6636
86.7378
93.089
96.9196
98.8612
99.8519
100.454
100.812
100.937
100.884
100.744
100.579
100.415
100.258
100.114
99.982
99.8647
99.7623
99.676
99.6066
99.554
111.621
108.165
102.066
95.6775
89.7858
85.044
81.6187
79.2222
76.6093
78.4918
86.3557
93.2484
97.2307
99.1189
100.027
100.603
100.962
101.064
100.961
100.767
100.559
100.36
100.176
100.008
99.8557
99.7204
99.6019
99.5011
99.4191
99.3571
111.796
108.307
102.087
95.6336
89.6678
84.8841
81.4094
78.9973
75.6215
77.0655
85.9256
93.4477
97.5911
99.4006
100.2
100.751
101.119
101.201
101.037
100.779
100.524
100.29
100.076
99.8828
99.7091
99.5545
99.4184
99.3008
99.2016
99.1197
111.981
108.457
102.106
95.5866
89.5346
84.7102
81.1759
78.801
74.5028
75.317
85.4468
93.696
98.0088
99.7075
100.362
100.89
101.283
101.346
101.107
100.775
100.471
100.2
99.955
99.7349
99.538
99.3633
99.2091
99.0731
98.9536
98.8522
112.174
108.615
102.123
95.5365
89.3836
84.5222
80.9124
78.6519
73.2529
73.1531
84.9203
94.0023
98.4938
100.041
100.503
101.018
101.453
101.497
101.164
100.745
100.393
100.085
99.8082
99.559
99.3369
99.141
98.969
98.8168
98.6793
98.6524
112.375
108.781
102.138
95.4837
89.2108
84.3199
80.6106
78.5888
71.8194
70.4585
84.3511
94.3769
99.0577
100.405
100.608
101.128
101.624
101.645
101.197
100.679
100.285
99.9422
99.6311
99.3496
99.0983
98.8777
98.6856
98.5173
98.3669
98.2353
112.579
108.954
102.149
95.4286
89.0111
84.1027
80.2575
78.6706
70.1247
67.0605
83.7533
94.8315
99.7138
100.804
100.654
101.226
101.79
101.781
101.182
100.567
100.144
99.7678
99.4194
99.1003
98.8134
98.5601
98.3394
98.147
97.9774
97.8264
112.785
109.133
102.155
95.3714
88.7774
83.8702
79.8315
78.9249
68.3394
62.6567
83.1582
95.3758
100.477
101.25
100.61
101.329
101.928
101.827
101.079
100.401
99.9673
99.5598
99.1694
98.8052
98.4734
98.1768
97.9151
97.6863
97.487
97.3152
112.989
109.32
102.157
95.3112
88.4991
83.6213
79.2989
79.4015
66.557
56.7205
82.608
96.0252
101.362
101.758
100.437
101.482
101.992
101.642
100.79
100.182
99.7558
99.3181
98.8785
98.4589
98.071
97.7184
97.4028
97.1253
96.8858
96.6842
113.186
109.516
102.155
95.2441
88.1602
83.3539
78.6096
80.1582
64.904
48.7858
82.1558
96.7976
102.385
102.354
100.104
101.488
101.904
100.987
100.279
99.9127
99.5135
99.0465
98.5459
98.0564
97.5989
97.1764
96.7928
96.4546
96.1668
95.9312
113.371
109.728
102.147
95.1608
87.735
83.0646
77.7182
81.0692
64.0025
40.093
82.0217
97.6784
103.556
103.067
99.4201
100.817
101.609
99.931
99.7325
99.5937
99.2536
98.7551
98.1732
97.5923
97.049
96.5428
96.0781
95.6708
95.3321
95.0648
113.535
109.965
102.134
95.0454
87.1943
82.7466
76.5988
81.8402
53.142
41.5342
82.4478
98.6765
104.88
103.93
98.0279
100.17
101.201
99.0191
99.2388
99.2349
99.0015
98.4638
97.7698
97.0621
96.4118
95.8133
95.2621
94.7832
94.3914
94.0873
113.67
110.235
102.116
94.8767
86.5306
82.3874
75.2978
82.5069
0.702444
-11.7064
83.5223
99.8088
106.351
104.969
95.0607
99.6655
100.911
98.6919
98.7602
98.8628
98.7935
98.216
97.3709
96.4808
95.6862
94.9905
94.3546
93.8009
93.3438
92.9814
113.759
110.549
102.091
94.6271
85.8571
81.9581
74.1428
77.1035
0.388342
0.254061
84.516
101.085
107.944
106.215
89.1145
98.6593
100.932
98.8296
98.2139
98.4635
98.6522
98.0754
97.0648
95.9417
94.9373
94.1033
93.3704
92.7357
92.1964
91.7433
113.783
110.922
102.055
94.2531
85.3754
81.4127
0.292096
0.0936098
0.254523
0.334847
87.3515
102.617
109.593
107.699
84.5143
98.1099
101.285
99.0376
97.4158
97.9338
98.5829
98.0693
96.948
95.581
94.281
93.2001
92.3319
91.6186
90.9854
90.4007
113.709
111.372
102.006
93.7149
85.3617
77.5575
0.215234
0.132218
0.196605
0.528801
88.8756
104.597
111.195
109.027
83.8473
98.6902
101.842
99.0475
96.0084
97.0533
98.3909
98.2393
97.0248
95.3545
93.6341
92.2113
91.2223
90.4915
89.7861
89.0201
113.491
111.922
101.943
93.0244
85.8191
0.0530536
0.175598
0.174361
0.116991
0.352448
90.0503
107.454
112.674
109.582
85.995
99.5528
102.402
98.6555
93.527
95.1788
98.3173
98.7976
97.321
95.1458
92.783
90.9247
89.9408
89.4174
88.7672
87.7588
113.055
112.61
101.865
92.0823
83.8524
0.114153
0.162171
0.192127
0.119684
0.460086
34.9956
111.194
113.987
108.78
89.8068
99.9085
102.957
98.3973
89.1085
93.2965
98.7872
99.9189
97.9147
95.0364
91.5896
89.0373
88.2628
88.6254
88.5066
86.9985
112.299
113.519
101.769
90.7968
0.0557286
0.107469
0.159387
0.195622
0.164594
0.685996
8.98189
114.69
115.29
106.244
93.7361
99.0106
103.62
99.1159
81.8314
91.904
100.972
101.494
99.1637
96.0912
90.4805
48.9876
9.07915
0.0488464
0.0419793
0.0731807
111.072
114.801
101.66
88.9524
0.141415
0.102224
0.158779
0.19039
0.202789
0.919142
-2.04141
121.952
116.653
103.324
95.3862
98.4437
104.761
102.681
76.2076
84.238
107.094
93.0504
18.1942
-0.0385098
0.0214472
0.0493174
0.055311
0.0541518
0.0563557
0.0624635
100.328
100.287
100.239
100.183
100.116
100.036
99.9395
99.8205
99.6731
99.4898
99.2597
98.9664
98.584
98.0728
97.3734
96.398
95.0161
93.0449
90.2819
86.6798
82.7307
79.7724
79.0638
80.4908
83.2666
86.8574
91.1921
96.4447
102.375
107.606
100.295
100.252
100.203
100.145
100.076
99.9925
99.8913
99.767
99.6134
99.4223
99.1819
98.8736
98.4683
97.9214
97.1668
96.1066
94.5969
92.4417
89.449
85.6569
81.7788
79.316
79.2376
81.0894
84.1186
87.8813
92.4486
97.9428
103.939
108.526
100.259
100.216
100.167
100.109
100.041
99.9588
99.8594
99.7382
99.5892
99.4049
99.1735
98.8763
98.4836
97.9491
97.2044
96.1502
94.641
92.4772
89.4573
85.6073
81.6632
79.1991
79.1763
81.0624
84.1047
87.8667
92.4337
97.9332
103.95
108.557
100.215
100.173
100.123
100.065
99.9976
99.9168
99.8199
99.7032
99.5615
99.3878
99.1706
98.8913
98.5186
98.0034
97.2729
96.2237
94.7075
92.5221
89.4547
85.5159
81.4752
79.0157
79.0823
81.0204
84.083
87.8442
92.411
97.9199
103.969
108.608
100.165
100.122
100.072
100.014
99.9465
99.867
99.7732
99.6623
99.5301
99.3703
99.1717
98.9155
98.5688
98.0782
97.3649
96.3201
94.7926
92.5768
89.4456
85.3879
81.2151
78.7646
78.9563
80.9637
84.0536
87.8135
92.3806
97.9027
103.996
108.677
100.102
100.059
100.01
99.9522
99.8852
99.8077
99.718
99.6146
99.4942
99.3513
99.1754
98.9471
98.6314
98.1693
97.475
96.4341
94.8929
92.6417
89.4325
85.2227
80.8769
78.4421
78.7996
80.8923
84.0167
87.7746
92.3424
97.8812
104.032
108.766
100.025
99.9823
99.9334
99.8768
99.8114
99.7368
99.6526
99.5584
99.4523
99.3297
99.1805
98.9851
98.7058
98.2763
97.6019
96.5638
95.0076
92.7176
89.4168
85.0189
80.4522
78.0435
78.6138
80.8068
83.9727
87.7274
92.2962
97.855
104.076
108.874
99.9303
99.8883
99.8406
99.7856
99.7226
99.6518
99.5745
99.4917
99.4026
99.3037
99.1856
99.0285
98.7917
98.3993
97.7454
96.7087
95.1362
92.8054
89.4003
84.7744
79.9302
77.5631
78.4018
80.7073
83.9219
87.672
92.2423
97.8234
104.128
109.001
99.8157
99.7749
99.7289
99.676
99.6156
99.5496
99.4807
99.4114
99.3425
99.271
99.1885
99.0758
98.8889
98.5385
97.9054
96.8683
95.2785
92.9062
89.3853
84.4873
79.2973
76.994
78.1665
80.5941
83.8651
87.6083
92.1804
97.7859
104.188
109.148
99.6782
99.639
99.5949
99.5439
99.4864
99.426
99.3673
99.3145
99.2691
99.2291
99.1869
99.125
98.9967
98.6941
98.0809
97.0412
95.4338
93.0217
89.3751
84.1556
78.5359
76.3278
77.9137
80.4673
83.8028
87.5363
92.1107
97.7417
104.254
109.314
99.5142
99.4762
99.4321
99.3829
99.3292
99.2761
99.2302
99.197
99.1792
99.1752
99.1781
99.1735
99.1147
98.8663
98.2703
97.2254
95.6012
93.1543
89.3739
83.7771
77.6227
75.5545
77.6495
80.3265
83.7359
87.456
92.0335
97.6899
104.326
109.501
99.3182
99.2841
99.2286
99.1841
99.1374
99.0947
99.0648
99.0553
99.0699
99.1066
99.1588
99.2179
99.2423
99.0548
98.4706
97.4182
95.7793
93.3065
89.3879
83.3494
76.5282
74.6623
77.3831
80.1709
83.6655
87.3677
91.9492
97.6294
104.404
109.707
99.0801
99.2031
98.9721
98.943
98.9075
98.8777
98.8666
98.8853
98.9381
99.0209
99.126
99.2533
99.3794
99.2587
98.6764
97.6158
95.9663
93.4815
89.4244
82.8705
75.2136
73.6367
77.127
79.9989
83.5929
87.2714
91.8589
97.5591
104.485
109.934
98.7794
98.7611
98.6963
98.659
98.6358
98.6195
98.6301
98.683
98.7811
98.916
99.0766
99.2728
99.5262
99.4743
98.8792
97.8136
96.1599
93.6839
89.4932
82.337
73.6285
72.4591
76.8991
79.8076
83.5194
87.1674
91.7639
97.4777
104.569
110.182
98.4689
98.3895
98.3363
98.3125
98.3056
98.3088
98.3483
98.4445
98.5969
98.7913
99.0088
99.2664
99.6833
99.691
99.0649
98.0062
96.3574
93.9192
89.6076
81.7449
71.7056
71.1057
76.724
79.5916
83.4469
87.0562
91.6668
97.384
104.653
110.451
98.1049
98.0044
97.9278
97.8952
97.9012
97.9338
98.0153
98.1669
98.3848
98.6471
98.9227
99.2189
99.8466
99.8793
99.2129
98.1879
96.5549
94.1947
89.7838
81.0893
69.356
69.553
76.6334
79.3434
83.3775
86.9383
91.5715
97.2765
104.737
110.741
97.6906
97.5677
97.465
97.4094
97.4195
97.4893
97.6286
97.8491
98.1448
98.4853
98.8219
99.1083
99.9642
99.9621
99.2966
98.3538
96.7471
94.5196
90.041
80.3603
66.4637
67.7744
76.6768
79.0571
83.3135
86.8143
91.4835
97.1537
104.816
111.052
97.166
97.0294
96.9049
96.8233
96.8591
96.9818
97.1899
97.4913
97.878
98.3089
98.7125
98.9195
99.7883
99.7585
99.2905
98.5001
96.9258
94.906
90.4062
79.5484
62.8445
65.7472
76.9209
78.7218
83.2577
86.6847
91.41
97.0142
104.887
111.385
96.5144
96.3671
96.2585
103.865
96.2618
96.4224
96.6989
97.0914
97.5851
98.1225
98.6024
98.7377
99.0558
99.0029
99.1905
98.6241
97.0776
95.3691
90.9087
78.6368
58.2005
63.4739
77.3688
78.2891
83.2148
86.55
91.3583
96.8566
104.951
111.739
95.7403
95.5812
95.4463
95.7625
95.5507
95.7804
96.1394
96.6419
97.267
97.9325
98.5014
98.6628
98.1741
97.7765
99.0421
98.7212
97.1781
95.9289
91.5764
77.6273
52.207
60.6855
77.8974
77.7409
83.189
86.4103
91.3328
96.6815
105.012
112.114
94.8588
94.7009
94.6095
94.6341
94.7395
95.0171
95.4851
96.1305
96.9261
97.7507
98.4228
98.6765
97.6288
96.7867
98.9512
98.7836
97.1807
96.6117
92.4342
76.6081
44.6893
57.8331
78.2113
77.0111
83.1833
86.2647
91.3345
96.4904
105.076
112.51
93.8574
93.6861
93.5883
93.593
93.7331
94.0952
94.699
95.5448
96.5697
97.5971
98.39
98.7326
97.7308
96.7621
99.0271
98.8273
96.9921
97.4562
93.4952
75.6495
34.8596
15.3309
78.0884
76.1231
83.2002
86.1102
91.3632
96.2858
105.153
112.924
92.6982
92.4757
92.3301
92.3064
92.4752
92.9529
93.7366
94.8886
96.2152
97.5013
98.4334
98.841
98.3902
97.7794
99.3365
98.9164
96.4104
98.5197
94.7814
74.9072
-11.1046
-0.158972
77.0547
74.9916
83.2268
85.9409
91.4199
96.0703
105.25
113.352
91.3633
91.0396
90.8032
90.7348
90.9505
91.7492
92.7206
94.2099
95.8955
97.5066
98.5811
99.0067
99.2
99.3129
100.115
99.1871
94.9341
99.8698
96.3197
73.8736
-5.11289
-0.17655
0.0599848
71.1
83.2226
85.748
91.5424
95.8488
105.378
113.791
89.8618
89.3669
88.9865
88.8749
89.208
90.1255
91.648
93.5731
95.6558
97.6428
98.8486
99.1739
99.7449
100.875
101.738
99.8413
91.4926
101.534
98.0706
73.5044
-0.119377
-0.120107
0.0491985
0.149451
83.2307
85.3958
91.6844
95.6297
105.552
114.231
88.2178
87.4247
86.792
86.5828
87.0631
88.3823
90.4208
92.999
95.5308
97.8517
99.206
99.2511
99.7892
102.164
104.039
101.151
87.3376
103.399
100.009
75.6362
-0.115289
-0.104332
0.0457958
0.107468
55.0567
84.906
91.9407
95.4289
105.792
114.659
86.461
85.0864
83.9878
83.5378
84.1618
86.0797
88.9673
92.4447
95.5546
98.1754
99.4295
99.2064
99.2352
102.994
106.168
102.48
85.7372
105.034
102.326
79.653
-0.0825883
-0.102577
0.0362184
0.0760822
-0.0213539
83.6067
92.2196
95.2731
106.125
115.055
84.5208
82.0208
80.1471
79.1731
80.2701
82.9647
87.1919
94.04
95.9115
99.1248
99.1206
99.0255
97.955
103.222
107.686
102.071
87.9323
105.646
104.32
86.2725
-0.170164
-0.0999359
0.0256051
0.0579688
0.0207955
-0.0437932
92.1289
95.2094
106.592
115.385
0.0736429
0.0765983
0.0819602
0.0824613
0.101863
0.111343
53.195
94.0612
96.7345
100.991
99.4834
98.9044
95.4096
102.609
108.118
102.019
88.3376
104.82
106.284
93.7827
-0.174806
-0.0950938
0.017996
0.0487299
0.0436484
-0.0146738
88.9342
95.3476
107.275
115.6
0.0861108
0.0820759
0.0745951
0.0688683
0.0549847
0.0611389
-0.0122682
-0.0357563
52.5666
103.416
101.734
98.6468
91.565
102.983
110.241
102.037
85.8381
104.067
108.967
109.326
-0.119945
-0.0790983
0.0147848
0.0442973
0.0502949
-0.00354194
-2.24805
95.9474
108.291
115.617
109.86
116.249
101.683
6.23983
0.135033
0.100323
0.157883
0.181662
0.21157
1.23473
-0.966528
132.348
118.427
103.412
96.1114
98.3907
105.84
109.699
-1.55149
0.120054
0.0647618
0.0273818
0.0589668
0.0322179
0.0281134
0.0390704
0.0947652
0.049212
0.0616666
0.0609851
109.077
117.391
101.864
-0.0583972
0.127506
0.0997865
0.156885
0.180667
0.219352
1.19865
-0.932485
135.458
120.124
104.966
96.1135
100.355
106.467
113.099
0.117697
0.112036
0.0619775
0.0345625
0.0611482
0.0380381
0.0318668
0.0355177
0.0380528
0.0412635
0.0444675
0.048949
108.638
118.785
102.266
0.00219933
0.118632
0.0994253
0.154971
0.203271
0.221786
1.21249
-1.07712
137.172
121.331
106.901
96.3273
100.256
107.796
0.0390284
-0.0190243
0.0880703
0.0558818
0.0362424
0.180299
0.0462235
0.0324699
0.0311607
0.0295892
0.0305136
0.0330048
0.036894
108.758
120.745
-0.231492
-0.0060074
0.108924
0.0991245
0.152453
0.22215
0.223238
0.981942
-1.14827
136.979
122.783
110.283
95.7948
12.124
-0.0972427
-0.0462126
-0.0104315
0.0535405
0.0556978
0.0349421
0.182528
0.0425763
0.0313149
0.0247389
0.0183937
0.0160034
0.0178923
0.0218825
110.219
121.502
-0.00985826
-0.0168052
0.0989872
0.098842
0.15013
0.212155
0.225262
0.745813
11.5516
122.798
124.294
111.773
32.1242
-0.0208868
-0.0938245
-0.0458966
-0.0172219
0.0339347
0.0373607
0.0323749
0.0707962
0.0367385
0.0274686
0.015788
0.00426911
-0.00194288
-0.000432007
0.00439184
113.671
123.105
-0.0148614
-0.0210154
0.0894854
0.0984725
0.147685
0.195384
0.22934
0.620463
-0.449313
141.929
124.954
113.374
-0.273915
-0.046503
-0.100106
0.0129103
0.09046
0.0230557
0.0245527
0.0285743
0.0381935
0.0315538
0.0212007
0.00469326
-0.0117533
-0.0210138
-0.00828409
0.00469419
31.5117
87.1697
-0.0140663
-0.0212109
0.0809774
0.0979298
0.145055
0.192713
0.235229
0.49799
-1.55857
-0.742579
123.295
2.5773
-0.223287
-0.0443603
-0.115303
-0.0393484
0.0883029
0.0107682
0.015193
0.0245989
0.0347938
0.0274215
0.0137649
-0.00721122
-0.025938
-0.0355771
-0.0375287
-0.0358379
0.0441258
29.0176
-0.0117576
-0.0189182
0.0736528
0.0971574
0.142217
0.190048
0.237796
0.410218
-1.65925
-0.780729
38.4126
-0.399795
-0.163052
-0.09049
-0.0754261
-0.0569606
0.0885667
-0.00481686
0.00579929
0.0443021
0.0291493
0.0227507
0.00657384
-0.0162929
-0.0342484
-0.0453069
-0.0498831
-0.0488408
0.00977191
0.318065
-0.0115108
-0.0152703
0.0675386
0.0961322
0.138895
0.192628
0.238285
0.33996
-1.38039
-0.854661
-0.523187
-0.240822
-0.142366
-0.114333
-0.0583348
-0.0617995
-0.0263455
-0.0261892
-0.00833739
0.0189001
0.0235331
0.0167704
-0.000281827
-0.0244691
-0.0370792
-0.0491633
-0.0530052
-0.0537384
-0.0298595
0.0173411
-0.0136542
-0.0111764
0.06252
0.0948554
0.135392
0.178013
0.232799
0.283891
-0.891258
-0.919873
-0.597442
-0.202327
-0.138922
-0.120502
-0.0584846
-0.0649693
-0.0460546
-0.0498439
-0.0164559
0.00947443
0.0123555
0.0110969
-0.0060179
-0.0296275
-0.0508336
-0.032335
-0.0498246
-0.050893
-0.0604816
-0.0124879
-0.0166727
-0.00705421
0.058452
0.0933329
0.131732
0.177134
0.246309
0.238126
-0.371408
-0.852653
-0.62927
-0.267279
-0.176869
-0.0909883
-0.0952019
-0.0674566
-0.0560245
-0.046743
0.0150826
-0.00293791
0.00338789
0.00296523
-0.0110611
-0.0310073
-0.0426205
2.56959
0.07415
-0.0230239
-0.0677076
-0.00877149
-0.0194147
-0.00305279
0.0552303
0.0915672
0.127923
0.171015
0.209522
0.201749
-0.151262
0.706221
-0.621485
-0.325528
-0.194221
-0.130645
-0.101329
-0.0690395
-0.0619531
-0.0445726
0.00994486
-0.015996
-0.00738248
-0.000893237
-0.0159527
-0.0305495
-0.0498282
-0.0297977
-0.0204928
-0.0145621
-0.0678896
-0.0147554
-0.021045
0.000769431
0.05275
0.0895534
0.123953
0.161368
0.197011
0.174304
-0.0625607
-0.288567
-0.559659
-0.332494
-0.19847
-0.135964
-0.0283799
-0.0858936
-0.0641289
-0.0434327
0.0010229
-0.0279062
-0.0205841
-0.0186772
0.127458
0.0130839
-0.0185461
-0.0156839
-0.00675878
0.00103415
-0.0708872
-0.0350264
-0.02122
0.00436368
0.0508734
0.0872798
0.119729
0.158708
0.183118
0.153803
-0.040982
0.01014
-0.409736
-0.204155
-0.198658
-0.152192
-0.088643
-0.0932528
-0.0584115
-0.0430137
-0.0339805
-0.0353768
-0.0305542
-0.0227138
-0.0168854
-0.0134362
0.000940368
0.123192
0.0207078
0.0238618
-0.0897781
-0.0751201
-0.0199218
0.00766084
0.0494352
0.084738
0.115243
0.138889
0.169985
0.136205
-0.00685056
0.260123
-0.270867
-0.245006
-0.189369
-0.146888
-0.107887
-0.0975911
-0.0781978
-0.0106985
-0.0514731
-0.043571
-0.0387594
-0.0352612
-0.0302526
-0.0174405
0.0117542
0.0303229
0.0275422
0.0373258
-0.0825147
-0.113652
-0.0172705
0.0105828
0.0482536
0.0819236
0.110506
0.132405
0.155255
0.121229
0.0156768
0.00786589
-0.20338
-0.21292
-0.155935
-0.142143
-0.115513
-0.0981708
-0.0842127
-0.0687444
-0.0581384
-0.0507724
-0.0455219
-0.0424413
-0.043454
0.940375
0.525624
1.53104
1.47909
0.0852785
-0.0338101
-0.059048
-0.013556
0.0130763
0.0471582
0.0788408
0.105499
0.126882
0.139453
0.109429
0.0316264
0.000285558
-0.153435
-0.187276
-0.160961
-0.135335
-0.116453
-0.0985436
-0.0854984
-0.0737837
-0.0643187
-0.056739
-0.0502649
-0.0446466
-0.0397344
-0.0317381
-0.00811272
0.0310895
0.0393128
0.057405
-0.00810065
-0.024302
-0.00924365
0.0151361
0.0460177
0.0755016
0.100213
0.118946
0.127478
0.100748
0.041044
-0.0109197
-0.126139
-0.16281
-0.151545
-0.123175
-0.111928
-0.0681119
-0.0882779
-0.0785339
-0.0701102
-0.0624962
-0.0549439
-0.0466798
-0.0365771
-0.0234737
-0.00680643
0.0105847
0.0258558
0.0375504
0.003916
-0.00484743
-0.00485093
0.0167941
0.0447423
0.0719154
0.0946553
0.111494
0.116733
0.094137
0.0453944
-0.0215867
-0.115967
-0.148482
-0.142191
-0.127399
-0.112041
-0.0683643
-0.0916883
-0.0836925
-0.0765662
-0.0697071
-0.0624996
-0.0543477
-0.0448947
-0.0341747
-0.0225456
-0.0108103
0.000469389
0.0109265
0.00854481
0.00568022
-0.000809361
0.0180833
0.0432705
0.0680829
0.0888438
0.104225
0.107325
0.0892001
0.0466288
-0.0273021
-0.11521
-0.145335
-0.136721
-0.12318
-0.112207
-0.103055
-0.0954895
-0.0896145
-0.0844568
-0.0793837
-0.073952
-0.0679917
-0.0615643
-0.0548388
-0.0479939
-0.0410204
-0.0336506
-0.0260339
0.00931461
0.0107199
0.00262164
0.0190044
0.041548
0.0639967
0.0827933
0.0976809
0.0993711
0.0857356
0.0435316
-0.0701183
-0.167665
-0.166692
-0.136181
-0.119097
-0.109348
-0.103407
-0.099496
-0.0967601
-0.0943954
-0.0918643
-0.0889643
-0.0857595
-0.0824036
-0.0789938
-0.0754189
-0.0712447
-0.0656807
-0.0583657
0.00828385
0.0123658
0.00537469
0.0195224
0.0395212
0.0596352
0.0765653
0.0886797
0.0926076
0.0847389
0.0217757
-0.128279
-0.239503
-0.208666
-0.145366
-0.111514
-0.104952
-0.102614
-0.103523
-0.105554
-0.106986
-0.107427
-0.107075
-0.106333
-0.105595
-0.105156
-0.105177
-0.105851
-0.106038
-0.111184
0.00667691
0.0120163
0.00739889
0.0195815
0.0371317
0.054957
0.070107
0.0829122
0.0866329
0.0807148
-0.000456054
-0.16195
-0.279063
-0.231426
-0.147647
-0.105049
-0.0982572
-0.0992673
-0.107376
-0.11702
-0.123344
-0.126689
-0.128093
-0.12851
-0.129108
-0.129857
-0.130909
-0.132607
-0.133442
-0.135635
0.00519216
0.0106673
0.00866179
0.0191183
0.0343172
0.0499019
0.0634267
0.0766805
0.0809569
0.078568
-0.00133598
-0.150324
-0.0795793
-0.0093191
-0.129214
-0.0962552
-0.0888403
-0.0900029
-0.106418
-0.127321
-0.139478
-0.146765
-0.149785
-0.150638
-0.15096
-0.150748
-0.150048
-0.149826
-0.149651
-0.151074
0.0040328
0.00901371
0.0091615
0.0180732
0.0310087
0.0443827
0.0562011
0.070362
0.0755188
0.0721747
0.00814756
-0.0959696
-0.183716
-0.0958203
0.635508
-0.0898061
-0.0470952
-0.0799088
-0.0959564
-0.124488
-0.142905
-0.147194
-0.148238
-0.162855
-0.167936
-0.167817
-0.168099
-0.131471
-0.164493
-0.159975
0.00309883
0.00745368
0.00892025
0.0163965
0.0271375
0.0383127
0.0482899
0.0593863
0.0694442
0.121142
0.0036867
-0.0761982
-0.096521
-0.0809092
-0.0746228
-0.0735554
-0.0296725
-0.0835326
-0.100574
-0.119827
-0.135338
-0.157893
-0.17045
-0.177199
-0.172487
-0.165905
-0.165515
-0.113727
-0.165398
-0.172993
0.00231151
0.00599618
0.00798128
0.0140518
0.0226341
0.0316049
0.0396192
0.047187
0.0824978
0.098557
-0.0275652
-0.0841657
-0.0675424
-0.0535173
-0.0566352
-0.0580537
-0.0266528
-0.0747429
-0.0910383
-0.109904
-0.128262
-0.147021
-0.159783
-0.164925
-0.167766
-0.167472
-0.162909
-0.166064
-0.166627
-0.16398
0.0016009
0.00447896
0.0064102
0.011022
0.0174288
0.0241648
0.0301071
0.033615
0.102563
0.0559868
-0.127004
-0.142927
-0.0685436
-0.0465292
-0.0412439
-0.0425063
-0.0479307
-0.0556634
-0.0676392
-0.0778231
-0.091478
-0.0996922
-0.044789
-0.112747
-0.117383
-0.119964
-0.114817
-0.111958
-0.0893708
0.101857
0.000922266
0.00284008
0.00428084
0.00730982
0.0114502
0.0158565
0.0198021
0.0213059
0.0149257
-0.0267524
-0.156634
-0.184429
-0.0724602
-0.0375349
-0.0232665
-0.0198568
0.199249
-0.015321
-0.0300568
-0.0364729
-0.0494852
-0.0528111
-0.0603854
-0.0625075
-0.0634017
-0.0270791
-0.0906246
-0.075184
-0.0755768
0.057963
0.000245377
0.00105838
0.00167274
0.00295343
0.00463784
0.0064638
0.0082579
0.00896851
0.0051625
-0.0141027
-0.060194
-0.125775
-0.0765073
-0.0412904
-0.019899
-0.00964299
-0.00669346
0.0116279
-0.00381945
-0.0118624
-0.0199258
-0.0197552
0.0240145
0.0258553
-0.0167045
-0.017766
-0.0162163
-0.0163508
-0.015899
-0.0134694
0.0687166
0.0666739
0.063222
0.0544857
0.045485
0.0296429
0.00497548
0.016382
0.0649849
0.095064
104.104
99.8543
89.4199
105.659
113.479
101.288
84.8958
104.895
111.868
111.228
0.106834
-0.0607256
0.0295427
0.042439
0.0500446
0.00363708
-0.325081
97.193
109.454
115.394
0.0538836
0.0579915
0.0593396
0.0460486
0.041222
0.0273368
0.00939405
0.0207539
0.0467238
0.0551967
0.0418803
35.9668
89.0503
108.293
115.43
101.873
85.0633
106.317
113.882
73.5996
-0.405694
-0.0439392
0.0289205
0.0417802
0.0491154
0.00759893
-0.229495
98.2116
110.491
115.118
0.0409884
0.0449847
0.0452161
0.0398448
0.0471199
0.0249176
0.0109525
0.0192778
0.0383375
0.042608
0.0410915
0.0458371
-0.0402317
110.613
117.254
102.635
84.6551
107.842
117.749
-12.9995
-0.561813
-0.0181332
0.0232505
0.0412652
0.0478337
0.0111136
-0.173062
87.6918
111.921
114.746
0.026519
0.0335476
0.0331196
0.0353061
0.0434227
0.0214935
0.0112758
0.0164319
0.0314877
0.0373883
0.0392405
0.0531051
-0.11613
13.1585
119.182
104.01
82.1915
108.403
123.269
2.17245
-0.45409
-0.00691213
0.0224678
0.0408355
0.0463675
0.0141235
-0.13122
-0.236263
113.786
114.4
0.00959993
0.0165173
0.0194289
0.0381534
0.0303014
0.0175378
0.0115585
0.0140729
0.0262727
0.0328443
0.0361407
0.0470343
-0.119415
0.142226
25.1148
0.73356
0.447783
107.753
128.861
-0.494381
-0.22565
0.0156626
0.0248749
0.0404467
0.0448049
0.0164538
-0.0970472
-0.091033
116.18
114.437
-0.0105818
-0.000494754
0.0101073
0.0228906
0.0301184
0.0180754
0.0120285
0.0128361
0.0217591
0.028004
0.0342093
0.0390185
-0.0595246
0.0377756
-0.0432255
0.0125946
-0.0971727
114.224
134.932
-0.797031
-0.0425975
0.0654822
0.0265242
0.040067
0.0432038
0.0182958
-0.0695426
-0.0823427
101.121
115.786
-0.0288969
-0.0173973
-0.00337444
0.0105171
0.0189665
0.0158899
0.0116933
0.0116704
0.0191958
0.0231775
0.0270458
0.0304843
-0.0221889
-0.0126825
-0.0287117
-0.00174529
-0.0196082
0.221903
2.68592
-1.53734
0.141481
0.0841829
0.0286623
0.0396823
0.0416316
0.0197432
-0.0477872
-0.0701979
0.0498455
118.706
-0.0422833
-0.0308377
-0.0148737
0.00111678
0.0116332
0.029464
0.00967916
0.00907853
0.0261036
0.0182897
0.0201272
0.035492
0.0261752
0.0247099
-0.0200667
-0.0126942
-0.0277739
0.0230172
-0.191599
-1.36159
0.365146
0.0835294
0.0315599
0.0392975
0.0401077
0.0208622
-0.0306426
-0.0551904
0.0876744
114.789
-0.0473507
-0.0310557
-0.020099
-0.00380854
0.00898884
0.0122939
0.00843062
0.00851303
0.0171436
0.014678
0.016935
0.051503
0.0323991
-0.00785623
-0.0211962
-0.0198897
-0.00986101
-0.0481595
-0.206959
-2.01234
0.422467
0.0980718
0.0349518
0.0389079
0.0386318
0.0216675
-0.0169642
-0.0398196
0.0564309
-0.00822938
-0.0420543
-0.0312805
-0.0168163
-0.00224321
0.0108566
0.0135597
0.121514
0.0146106
0.0229198
0.0308299
0.0115432
0.0158357
0.0479446
-0.0080452
-0.0407191
0.0242549
-0.0476021
-0.0989924
-0.241286
-1.27561
-0.0459498
0.10398
0.038096
0.0385068
0.0371801
0.0221624
-0.00697453
-0.0251822
0.0433453
-0.0145762
-0.0250486
-0.0189906
-0.00802674
0.00687155
0.020181
0.0310686
0.122907
0.0300451
0.0202191
0.014994
0.0077505
0.0580022
0.0220519
-0.0107661
-0.0378871
0.288004
0.00432911
-0.135873
-0.333527
-0.698732
0.115009
0.102731
0.04095
0.038076
0.0357322
0.0223558
5.72455e-06
-0.0124989
0.0338076
-0.0108565
-0.00975992
-0.0029868
0.00638554
0.0198528
0.032169
0.0426078
0.0352502
0.0351196
0.0305981
0.121634
0.00983568
0.00551125
0.0106345
-0.00444788
-0.0292315
0.0169864
0.016029
-0.124765
-0.250775
-0.532454
0.0136806
0.098332
0.0429494
0.037583
0.0342872
0.0222783
0.00465334
-0.00261466
0.0256373
-0.0190398
0.00792302
0.0155209
0.0233683
0.054889
0.092217
0.0618339
0.0553591
0.0532643
0.0487257
0.295003
0.0131413
0.0025994
0.00915109
-0.0167245
-0.0219741
0.0137035
-0.000722983
-0.105883
-0.283599
-0.522655
-0.0288297
0.0932555
0.0441499
0.0369805
0.0328425
0.0219796
0.00760622
0.00431295
0.0201224
-0.0162908
0.0306293
0.0393111
0.0490106
0.0702015
0.116271
0.0803227
0.0997912
0.0598968
0.0490633
0.31514
0.0151922
0.00449619
-0.00105807
-0.0210633
-0.0203341
0.180981
-0.0185617
-0.108991
-0.308596
-0.769671
-0.0208062
0.0732639
0.0443892
0.0362104
0.0313998
0.0215207
0.00943847
0.00869542
0.0165568
-0.0175261
0.0508673
0.0625288
0.072784
0.0771011
0.151444
0.0887338
0.116787
0.063334
0.0482245
0.0316537
0.0198023
0.0053647
-0.00925705
-0.0157519
-0.0219367
0.0415242
-0.0633112
-0.129087
-0.216846
-0.507728
-0.011107
0.060535
0.0435491
0.0352125
0.0299628
0.0209591
0.0106213
0.0111223
0.0142547
-0.0154843
0.0781105
0.0843421
0.0908394
0.0924652
0.0939859
0.0932996
0.136001
0.0677868
0.0462793
0.0419755
0.02066
0.00664199
-0.010563
-0.0241381
-0.0266342
-0.0162747
-0.0532318
-0.0972558
-0.208448
-0.165084
0.00731809
0.0513839
0.0416444
0.0339338
0.0285143
0.0203315
0.0114278
0.0121881
0.0126651
-0.0129222
0.0643449
0.0717479
0.0782874
0.0848398
0.0899448
0.0940551
0.113352
0.0574443
0.0513768
0.0384031
0.0191337
-0.000884816
-0.0182062
-0.0348545
-0.0225085
-0.0234083
-0.0435493
-0.0790282
-0.0689252
-0.0767519
0.00880728
0.0430846
0.0388196
0.0323346
0.0270292
0.0196456
0.0119789
0.0123831
0.0113373
-0.0102594
0.0452415
0.0523837
0.059163
0.0680675
0.0773134
0.0829203
0.116231
0.0742156
0.0537926
0.0373131
0.013534
-0.0120729
-0.0351253
-0.0562123
-0.0699228
-0.0519644
-0.0608781
-0.0648085
0.00730963
-0.0199363
0.0150051
0.03536
0.0352938
0.0304019
0.0254701
0.0188907
0.012298
0.0120669
0.0100283
-0.00778203
0.019872
0.0294535
0.0385827
0.0500057
0.0628686
0.0716022
0.0747372
0.078491
0.04268
0.0282155
-0.000498771
-0.0366603
-0.0696281
-0.097857
-0.113866
-0.124917
-0.04885
-0.0578578
-0.0519669
-0.00197415
0.0152713
0.028119
0.0313201
0.0281535
0.0238022
0.0180463
0.0123933
0.0114796
0.00866698