/*--------------------------------*- C++ -*----------------------------------*\
| =========                 |                                                 |
| \\      /  F ield         | OpenFOAM: The Open Source CFD Toolbox           |
|  \\    /   O peration     | Version:  2.4.0                                 |
|   \\  /    A nd           | Web:      www.OpenFOAM.org                      |
|    \\/     M anipulation  |                                                 |
\*---------------------------------------------------------------------------*/
FoamFile
{
    version     2.0;
    format      ascii;
    class       surfaceScalarField;
    location    "0.148";
    object      phiAlpha;
}
// * * * * * * * * * * * * * * * * * * * * * * * * * * * * * * * * * * * * * //

dimensions      [0 3 -1 0 0 0 0];

internalField   nonuniform List<scalar> 
114720
(
3.37543e-10
6.40617e-10
9.83927e-11
-1.07655e-09
-1.45588e-09
2.81065e-09
7.26548e-10
-2.08131e-09
-8.66644e-09
1.06458e-08
8.11978e-10
-2.79136e-09
-1.66756e-08
1.83721e-08
6.444e-10
-2.34088e-09
-2.27031e-08
2.37401e-08
3.11546e-10
-1.34858e-09
-2.60745e-08
2.66301e-08
8.19954e-11
-6.37599e-10
-2.80419e-08
2.82889e-08
-6.96688e-11
-1.77304e-10
-2.79836e-08
2.73919e-08
-4.61971e-10
1.05362e-09
-2.34311e-08
2.14248e-08
-1.12458e-09
3.13087e-09
-1.27167e-08
9.40595e-09
-1.57941e-09
4.89013e-09
1.46011e-09
-4.72824e-09
-1.2801e-09
4.54823e-09
1.34623e-08
-1.56405e-08
-6.48125e-10
2.82632e-09
2.07181e-08
-2.18289e-08
-1.93661e-10
1.30444e-09
2.42029e-08
-2.46864e-08
1.81654e-12
4.8168e-10
2.56873e-08
-2.58829e-08
4.95916e-11
1.45964e-10
2.62327e-08
-2.6268e-08
6.09487e-11
-2.56603e-11
2.6143e-08
-2.60251e-08
8.60389e-11
-2.03938e-10
2.53977e-08
-2.51194e-08
1.27634e-10
-4.05912e-10
2.40099e-08
-2.3593e-08
1.70166e-10
-5.87062e-10
2.21067e-08
-2.15911e-08
2.03045e-10
-7.18604e-10
1.9862e-08
-1.92905e-08
2.22339e-10
-7.93818e-10
1.74445e-08
-1.68534e-08
2.29256e-10
-8.20342e-10
1.49905e-08
-1.44063e-08
2.26294e-10
-8.10474e-10
1.25961e-08
-1.20377e-08
2.16183e-10
-7.74634e-10
1.0327e-08
-9.80419e-09
2.02091e-10
-7.24907e-10
8.21766e-09
-7.73636e-09
1.85659e-10
-6.66956e-10
6.28314e-09
-5.84412e-09
1.69016e-10
-6.08032e-10
4.52378e-09
-4.12607e-09
1.52819e-10
-5.50532e-10
2.93234e-09
-2.57361e-09
1.37689e-10
-4.96423e-10
1.49657e-09
-1.17333e-09
1.24011e-10
-4.47253e-10
2.5177e-09
6.59601e-09
-4.41683e-09
-4.69687e-09
3.38283e-09
8.64546e-09
-1.37465e-09
-1.06536e-08
-8.05758e-09
1.25104e-08
1.16481e-08
-1.6101e-08
-2.25529e-08
1.05444e-08
2.59413e-08
-1.39329e-08
-3.52798e-08
7.07759e-09
3.78965e-08
-9.6943e-09
-4.48406e-08
5.03536e-09
4.6919e-08
-7.11379e-09
-5.26527e-08
2.86146e-09
5.42302e-08
-4.43893e-09
-5.73086e-08
-2.63611e-09
5.75758e-08
2.36898e-09
-5.53756e-08
-1.12395e-08
5.351e-08
1.31052e-08
-4.41375e-08
-1.86955e-08
3.99626e-08
2.28704e-08
-2.49215e-08
-1.92672e-08
1.95931e-08
2.45955e-08
-3.55747e-09
-1.4487e-08
-1.3385e-09
1.9383e-08
1.45784e-08
-8.99089e-09
-1.82631e-08
1.26755e-08
2.75186e-08
-5.07901e-09
-2.99252e-08
7.48564e-09
3.5597e-08
-2.62113e-09
-3.69598e-08
3.98396e-09
3.98421e-08
-8.6698e-10
-4.04077e-08
1.43258e-09
4.11322e-08
6.51826e-10
-4.10751e-08
-7.08944e-10
4.0155e-08
1.92227e-09
-3.96463e-08
-2.43102e-09
3.76072e-08
2.83818e-09
-3.68129e-08
-3.63246e-09
3.41185e-08
3.39593e-09
-3.31722e-08
-4.34222e-09
3.01688e-08
3.65477e-09
-2.91644e-08
-4.65913e-09
2.60875e-08
3.69319e-09
-2.50874e-08
-4.69327e-09
2.20898e-08
3.58323e-09
-2.11333e-08
-4.53967e-09
1.831e-08
3.37855e-09
-1.74212e-08
-4.26735e-09
1.48251e-08
3.12402e-09
-1.40156e-08
-3.93345e-09
1.16695e-08
2.85019e-09
-1.09422e-08
-3.57748e-09
8.84078e-09
2.58214e-09
-8.19079e-09
-3.23212e-09
6.31436e-09
2.32926e-09
-5.73359e-09
-2.91002e-09
4.05487e-09
2.09962e-09
-3.53364e-09
-2.62084e-09
2.0243e-09
1.88896e-09
-1.55564e-09
-2.35761e-09
3.17731e-09
1.7023e-08
-1.42559e-08
-5.94442e-09
6.36776e-09
1.63692e-08
-4.51367e-09
-1.82233e-08
-4.78796e-09
2.70198e-08
8.43933e-09
-3.06712e-08
-1.96631e-08
2.44826e-08
2.32143e-08
-2.80337e-08
-3.31648e-08
1.8062e-08
3.59997e-08
-2.08969e-08
-4.36669e-08
1.39396e-08
4.60108e-08
-1.62834e-08
-5.26498e-08
9.884e-09
5.45629e-08
-1.17971e-08
-5.88014e-08
-6.53793e-10
5.95081e-08
-5.28208e-11
-5.89201e-08
-1.74141e-08
5.76894e-08
1.86449e-08
-5.06741e-08
-3.36973e-08
4.74038e-08
3.69676e-08
-3.52659e-08
-3.92079e-08
3.08228e-08
4.36509e-08
-1.68962e-08
-3.37354e-08
1.24385e-08
3.81931e-08
1.85535e-10
-2.42064e-08
-3.886e-09
2.79068e-08
1.36055e-08
-1.54242e-08
-1.62441e-08
1.80628e-08
2.26825e-08
-8.63939e-09
-2.42899e-08
1.02468e-08
2.78679e-08
-3.51405e-09
-2.86505e-08
4.29673e-09
3.00486e-08
5.61622e-10
-3.02223e-08
-3.87887e-10
3.00504e-08
3.63181e-09
-2.98e-08
-3.88216e-09
2.85782e-08
5.66635e-09
-2.80566e-08
-6.18795e-09
2.61932e-08
6.82167e-09
-2.55147e-08
-7.50018e-09
2.33038e-08
7.3197e-09
-2.25487e-08
-8.07484e-09
2.01971e-08
7.35834e-09
-1.94225e-08
-8.13298e-09
1.70784e-08
7.09204e-09
-1.63253e-08
-7.84521e-09
1.40948e-08
6.62985e-09
-1.33925e-08
-7.3322e-09
1.1349e-08
6.06332e-09
-1.07163e-08
-6.69597e-09
8.90217e-09
5.46196e-09
-8.34724e-09
-6.01688e-09
6.76745e-09
4.88826e-09
-6.28632e-09
-5.36939e-09
4.91633e-09
4.36961e-09
-4.49738e-09
-4.78857e-09
3.29607e-09
3.92169e-09
-2.92505e-09
-4.29271e-09
1.85173e-09
3.52679e-09
-1.51803e-09
-3.86049e-09
3.40362e-09
2.85804e-08
-2.56362e-08
-6.34788e-09
7.10655e-09
2.37809e-08
-5.23893e-09
-2.56485e-08
-4.10502e-09
4.1673e-08
7.79409e-09
-4.5362e-08
-1.90623e-08
3.87123e-08
2.263e-08
-4.228e-08
-3.26262e-08
2.93979e-08
3.54552e-08
-3.22269e-08
-4.31011e-08
2.33511e-08
4.54617e-08
-2.57117e-08
-5.2222e-08
1.76367e-08
5.41949e-08
-1.96097e-08
-5.86368e-08
2.31002e-09
5.94249e-08
-3.09809e-09
-5.91043e-08
-2.2185e-08
5.79465e-08
2.33427e-08
-5.11201e-08
-4.65406e-08
4.79234e-08
4.97373e-08
-3.62377e-08
-5.63953e-08
3.2047e-08
6.0586e-08
-1.92011e-08
-5.07614e-08
1.51687e-08
5.47938e-08
-3.87081e-09
-3.83318e-08
5.69612e-10
4.16331e-08
8.17791e-09
-2.56352e-08
-1.06006e-08
2.80578e-08
1.67121e-08
-1.50617e-08
-1.83144e-08
1.6664e-08
2.21194e-08
-6.86482e-09
-2.30409e-08
7.78638e-09
2.50066e-08
-4.96383e-10
-2.54009e-08
8.90657e-10
2.59613e-08
4.21237e-09
-2.5958e-08
-4.21567e-09
2.54751e-08
7.34897e-09
-2.51839e-08
-7.64024e-09
2.39719e-08
9.18758e-09
-2.34878e-08
-9.6716e-09
2.18115e-08
1.00574e-08
-2.12122e-08
-1.06567e-08
1.92812e-08
1.02359e-08
-1.86267e-08
-1.08904e-08
1.65988e-08
9.93847e-09
-1.59335e-08
-1.06038e-08
1.39264e-08
9.31924e-09
-1.32832e-08
-9.96243e-09
1.13815e-08
8.5099e-09
-1.07835e-08
-9.10789e-09
9.04427e-09
7.62254e-09
-8.5049e-09
-8.16191e-09
6.95051e-09
6.76954e-09
-6.47152e-09
-7.24853e-09
5.09407e-09
6.0124e-09
-4.66886e-09
-6.43761e-09
3.44043e-09
5.38029e-09
-3.0585e-09
-5.76222e-09
1.94805e-09
4.8426e-09
-1.60129e-09
-5.18936e-09
3.57425e-09
4.06592e-08
-3.7594e-08
-6.63946e-09
7.4398e-09
3.13276e-08
-5.51703e-09
-3.32503e-08
-3.93764e-09
5.65053e-08
7.67963e-09
-6.02473e-08
-1.90062e-08
5.30092e-08
2.2592e-08
-5.6595e-08
-3.26425e-08
4.06973e-08
3.54601e-08
-4.3515e-08
-4.30449e-08
3.28004e-08
4.54099e-08
-3.51655e-08
-5.2268e-08
2.5612e-08
5.42997e-08
-2.76437e-08
-5.89431e-08
5.5828e-09
5.98176e-08
-6.45733e-09
-5.97612e-08
-2.67511e-08
5.86526e-08
2.78597e-08
-5.1774e-08
-5.94525e-08
4.84904e-08
6.27361e-08
-3.64311e-08
-7.32886e-08
3.21239e-08
7.75959e-08
-1.91076e-08
-6.67841e-08
1.50949e-08
7.07968e-08
-4.04339e-09
-5.12866e-08
8.59658e-10
5.44703e-08
7.54137e-09
-3.51559e-08
-9.87897e-09
3.74935e-08
1.58772e-08
-2.14858e-08
-1.74925e-08
2.31011e-08
2.14589e-08
-1.0694e-08
-2.2462e-08
1.16971e-08
2.47174e-08
-2.25819e-09
-2.52114e-08
2.75218e-09
2.60631e-08
4.05485e-09
-2.61473e-08
-3.97071e-09
2.59024e-08
8.37621e-09
-2.56791e-08
-8.59953e-09
2.46484e-08
1.10159e-08
-2.42165e-08
-1.14477e-08
2.26839e-08
1.23688e-08
-2.21271e-08
-1.29257e-08
2.03134e-08
1.27867e-08
-1.96935e-08
-1.34066e-08
1.77579e-08
1.25527e-08
-1.71176e-08
-1.3193e-08
1.51671e-08
1.18709e-08
-1.45349e-08
-1.25031e-08
1.26382e-08
1.09134e-08
-1.20315e-08
-1.152e-08
1.02315e-08
9.82719e-09
-9.66077e-09
-1.03979e-08
7.97703e-09
8.76439e-09
-7.44577e-09
-9.29565e-09
5.88469e-09
7.81275e-09
-5.39336e-09
-8.30408e-09
3.95253e-09
7.01517e-09
-3.49932e-09
-7.46838e-09
2.17281e-09
6.33339e-09
-1.75708e-09
-6.74912e-09
3.7762e-09
5.32625e-08
-5.00565e-08
-6.98223e-09
7.78468e-09
3.91231e-08
-5.78939e-09
-4.11184e-08
-3.81116e-09
7.15644e-08
7.61543e-09
-7.53686e-08
-1.90128e-08
6.73848e-08
2.26208e-08
-7.09929e-08
-3.27458e-08
5.19482e-08
3.55492e-08
-5.47516e-08
-4.30501e-08
4.22671e-08
4.54191e-08
-4.46361e-08
-5.23988e-08
3.38459e-08
5.45049e-08
-3.59521e-08
-5.9401e-08
9.24672e-09
6.03927e-08
-1.02384e-08
-6.07002e-08
-3.10788e-08
5.96681e-08
3.21109e-08
-5.27693e-08
-7.27254e-08
4.93922e-08
7.61025e-08
-3.68493e-08
-9.07903e-08
3.23532e-08
9.52863e-08
-1.88378e-08
-8.29926e-08
1.47081e-08
8.71223e-08
-3.44874e-09
-6.40416e-08
2.3766e-10
6.72527e-08
8.18497e-09
-4.4494e-08
-1.05229e-08
4.68319e-08
1.65405e-08
-2.79728e-08
-1.81723e-08
2.96046e-08
2.22206e-08
-1.47652e-08
-2.3257e-08
1.58017e-08
2.56135e-08
-4.28786e-09
-2.61361e-08
4.8104e-09
2.70495e-08
3.69058e-09
-2.71445e-08
-3.59552e-09
2.69095e-08
9.2622e-09
-2.66839e-08
-9.48784e-09
2.56384e-08
1.27431e-08
-2.52005e-08
-1.3181e-08
2.36515e-08
1.45938e-08
-2.30905e-08
-1.51547e-08
2.12685e-08
1.52597e-08
-2.06474e-08
-1.58809e-08
1.87116e-08
1.51066e-08
-1.80715e-08
-1.57466e-08
1.61193e-08
1.43992e-08
-1.54846e-08
-1.50339e-08
1.35697e-08
1.33549e-08
-1.29524e-08
-1.39721e-08
1.11018e-08
1.21478e-08
-1.05081e-08
-1.27416e-08
8.73398e-09
1.09502e-08
-8.16696e-09
-1.15172e-08
6.48148e-09
9.85509e-09
-5.94546e-09
-1.03911e-08
4.36129e-09
8.91101e-09
-3.85997e-09
-9.41232e-09
2.38729e-09
8.07687e-09
-1.92467e-09
-8.53949e-09
4.02647e-09
6.65085e-08
-6.31292e-08
-7.40578e-09
8.20188e-09
4.72291e-08
-6.12074e-09
-4.93103e-08
-3.66581e-09
8.68861e-08
7.54183e-09
-9.07621e-08
-1.90254e-08
8.18566e-08
2.2661e-08
-8.54922e-08
-3.28849e-08
6.31351e-08
3.56696e-08
-6.59197e-08
-4.30575e-08
5.17483e-08
4.54299e-08
-5.41207e-08
-5.25585e-08
4.24014e-08
5.47552e-08
-4.45982e-08
-5.99487e-08
1.34306e-08
6.10936e-08
-1.45755e-08
-6.18674e-08
-3.50611e-08
6.09388e-08
3.59897e-08
-5.40304e-08
-8.63871e-08
5.05479e-08
8.98696e-08
-3.74293e-08
-1.09102e-07
3.27059e-08
1.13825e-07
-1.85748e-08
-9.97347e-08
1.42908e-08
1.04019e-07
-2.70988e-09
-7.69775e-08
-5.64935e-10
8.02523e-08
9.09958e-09
-5.38741e-08
-1.14581e-08
5.62327e-08
1.75231e-08
-3.4523e-08
-1.91704e-08
3.61703e-08
2.3277e-08
-1.89436e-08
-2.43352e-08
2.00018e-08
2.67525e-08
-6.39949e-09
-2.72892e-08
6.93614e-09
2.8216e-08
3.31758e-09
-2.83054e-08
-3.22816e-09
2.8025e-08
1.01936e-08
-2.7778e-08
-1.04406e-08
2.66555e-08
1.45305e-08
-2.61907e-08
-1.49954e-08
2.45576e-08
1.68725e-08
-2.39701e-08
-1.746e-08
2.20722e-08
1.77736e-08
-2.14278e-08
-1.8418e-08
1.94249e-08
1.76916e-08
-1.87645e-08
-1.83521e-08
1.67541e-08
1.69604e-08
-1.61014e-08
-1.76131e-08
1.41341e-08
1.58466e-08
-1.35001e-08
-1.64805e-08
1.15988e-08
1.45488e-08
-1.09884e-08
-1.51593e-08
9.16262e-09
1.32482e-08
-8.57845e-09
-1.38323e-08
6.83955e-09
1.20323e-08
-6.28573e-09
-1.25861e-08
4.64596e-09
1.09514e-08
-4.12595e-09
-1.14714e-08
2.59507e-09
9.96266e-09
-2.11301e-09
-1.04447e-08
4.33299e-09
8.05412e-08
-7.69511e-08
-7.92314e-09
8.69601e-09
5.5696e-08
-6.51743e-09
-5.78745e-08
-3.49592e-09
1.02506e-07
7.45116e-09
-1.06462e-07
-1.9032e-08
9.64455e-08
2.26998e-08
-1.00113e-07
-3.30484e-08
7.42379e-08
3.5808e-08
-7.69975e-08
-4.30437e-08
6.12402e-08
4.54174e-08
-6.36139e-08
-5.27217e-08
5.13425e-08
5.50245e-08
-5.36452e-08
-6.055e-08
1.82927e-08
6.18944e-08
-1.96371e-08
-6.32497e-08
-3.85805e-08
6.24593e-08
3.93709e-08
-5.55468e-08
-1.00491e-07
5.19456e-08
1.04092e-07
-3.81286e-08
-1.28391e-07
3.31296e-08
1.3339e-07
-1.82671e-08
-1.17131e-07
1.38041e-08
1.21593e-07
-1.85824e-09
-9.01816e-08
-1.48757e-09
9.35275e-08
1.01426e-08
-6.334e-08
-1.25224e-08
6.57198e-08
1.86364e-08
-4.1137e-08
-2.03008e-08
4.28014e-08
2.44747e-08
-2.32131e-08
-2.55591e-08
2.42976e-08
2.80536e-08
-8.57163e-09
-2.8609e-08
9.12707e-09
2.9556e-08
2.97125e-09
-2.9638e-08
-2.88926e-09
2.92968e-08
1.12244e-08
-2.90199e-08
-1.15013e-08
2.77899e-08
1.64442e-08
-2.72868e-08
-1.69473e-08
2.55344e-08
1.9278e-08
-2.49078e-08
-1.99047e-08
2.2892e-08
2.04046e-08
-2.22099e-08
-2.10867e-08
2.00969e-08
2.03816e-08
-1.94021e-08
-2.10764e-08
1.72931e-08
1.96127e-08
-1.66106e-08
-2.02952e-08
1.45617e-08
1.84155e-08
-1.39045e-08
-1.90726e-08
1.19443e-08
1.70134e-08
-1.13187e-08
-1.7639e-08
9.45863e-09
1.55981e-08
-8.86687e-09
-1.61898e-08
7.11331e-09
1.4255e-08
-6.55666e-09
-1.48116e-08
4.91033e-09
1.30383e-08
-4.38796e-09
-1.35607e-08
2.84569e-09
1.19019e-08
-2.3581e-09
-1.23895e-08
4.70089e-09
9.55166e-08
-9.16755e-08
-8.54203e-09
9.27174e-09
6.45714e-08
-6.98343e-09
-6.68597e-08
-3.30499e-09
1.18456e-07
7.34663e-09
-1.22497e-07
-1.90384e-08
1.11172e-07
2.27442e-08
-1.14878e-07
-3.32539e-08
8.52311e-08
3.59815e-08
-8.79587e-08
-4.30187e-08
7.07352e-08
4.53917e-08
-7.31082e-08
-5.29035e-08
6.07319e-08
5.53282e-08
-6.31566e-08
-6.12113e-08
2.40411e-08
6.28179e-08
-2.56477e-08
-6.4888e-08
-4.14817e-08
6.42827e-08
4.2087e-08
-5.73633e-08
-1.15088e-07
5.36319e-08
1.1882e-07
-3.89618e-08
-1.48872e-07
3.36264e-08
1.54207e-07
-1.78913e-08
-1.35285e-07
1.32208e-08
1.39956e-07
-8.6759e-10
-1.03674e-07
-2.55168e-09
1.07093e-07
1.13232e-08
-7.28881e-08
-1.37211e-08
7.52861e-08
1.98809e-08
-4.78234e-08
-2.15647e-08
4.95073e-08
2.58241e-08
-2.76009e-08
-2.69438e-08
2.87207e-08
2.9549e-08
-1.08339e-08
-3.0134e-08
1.14189e-08
3.11211e-08
2.6533e-09
-3.11967e-08
-2.5777e-09
3.07827e-08
1.23853e-08
-3.04687e-08
-1.26993e-08
2.91041e-08
1.85252e-08
-2.85535e-08
-1.90758e-08
2.66536e-08
2.18546e-08
-2.59788e-08
-2.25294e-08
2.38179e-08
2.32004e-08
-2.30894e-08
-2.3929e-08
2.08388e-08
2.32234e-08
-2.01008e-08
-2.39614e-08
1.78675e-08
2.23969e-08
-1.71475e-08
-2.31169e-08
1.49967e-08
2.10853e-08
-1.43112e-08
-2.17708e-08
1.22823e-08
1.95396e-08
-1.16405e-08
-2.01814e-08
9.75109e-09
1.79713e-08
-9.1559e-09
-1.85664e-08
7.40775e-09
1.64756e-08
-6.85695e-09
-1.70264e-08
5.2345e-09
1.51193e-08
-4.72009e-09
-1.56337e-08
3.1949e-09
1.38525e-08
-2.70903e-09
-1.43384e-08
5.13669e-09
1.11606e-07
-1.07469e-07
-9.27304e-09
9.93022e-09
7.39037e-08
-7.52003e-09
-7.63139e-08
-3.09453e-09
1.34759e-07
7.22913e-09
-1.38894e-07
-1.90432e-08
1.2606e-07
2.27931e-08
-1.2981e-07
-3.35093e-08
9.60836e-08
3.61962e-08
-9.87706e-08
-4.29759e-08
8.02229e-08
4.53452e-08
-8.25922e-08
-5.30994e-08
7.06323e-08
5.56619e-08
-7.31948e-08
-6.19117e-08
3.09591e-08
6.38671e-08
-3.29145e-08
-6.68095e-08
-4.35525e-08
6.64532e-08
4.39088e-08
-5.95126e-08
-1.30216e-07
5.56463e-08
1.34083e-07
-3.99348e-08
-1.70802e-07
3.41909e-08
1.76545e-07
-1.74235e-08
-1.54314e-07
1.25151e-08
1.59223e-07
2.85983e-10
-1.17462e-07
-3.7797e-09
1.20956e-07
1.26527e-08
-8.25e-08
-1.50624e-08
8.49097e-08
2.12574e-08
-5.45897e-08
-2.2962e-08
5.62943e-08
2.73251e-08
-3.21457e-08
-2.84912e-08
3.33117e-08
3.1253e-08
-1.32356e-08
-3.18829e-08
1.38655e-08
3.29403e-08
2.35848e-09
-3.30113e-08
-2.28748e-09
3.25084e-08
1.37076e-08
-3.21478e-08
-1.40682e-08
3.0617e-08
2.08104e-08
-3.00088e-08
-2.14187e-08
2.79346e-08
2.4636e-08
-2.72035e-08
-2.53671e-08
2.48754e-08
2.61927e-08
-2.40935e-08
-2.69746e-08
2.1685e-08
2.62483e-08
-2.0897e-08
-2.70363e-08
1.85189e-08
2.53409e-08
-1.77547e-08
-2.6105e-08
1.54826e-08
2.38767e-08
-1.47627e-08
-2.45966e-08
1.265e-08
2.21344e-08
-1.19886e-08
-2.27959e-08
1.00658e-08
2.03545e-08
-9.46898e-09
-2.09513e-08
7.74356e-09
1.86588e-08
-7.20835e-09
-1.9194e-08
5.6515e-09
1.71473e-08
-5.16155e-09
-1.76372e-08
3.70416e-09
1.57788e-08
-3.23416e-09
-1.62488e-08
5.64826e-09
1.28995e-07
-1.24515e-07
-1.01283e-08
1.06684e-08
8.37397e-08
-8.12571e-09
-8.62824e-08
-2.8651e-09
1.51442e-07
7.0971e-09
-1.55674e-07
-1.90377e-08
1.41131e-07
2.28364e-08
-1.44929e-07
-3.38126e-08
1.06756e-07
3.64467e-08
-1.0939e-07
-4.28919e-08
8.96882e-08
4.52521e-08
-9.20484e-08
-5.32852e-08
8.11071e-08
5.60013e-08
-8.38232e-08
-6.2601e-08
3.9439e-08
6.50246e-08
-4.18626e-08
-6.90314e-08
-4.45078e-08
6.9008e-08
4.45313e-08
-6.20125e-08
-1.45875e-07
5.80209e-08
1.49866e-07
-4.10383e-08
-1.94487e-07
3.48011e-08
2.00724e-07
-1.68302e-08
-1.74339e-07
1.16543e-08
1.79515e-07
1.62461e-09
-1.31544e-07
-5.18946e-09
1.35109e-07
1.4134e-08
-9.21433e-08
-1.6544e-08
9.45533e-08
2.27524e-08
-6.14383e-08
-2.4477e-08
6.31629e-08
2.89593e-08
-3.68934e-08
-3.01838e-08
3.81179e-08
3.31634e-08
-1.58478e-08
-3.38607e-08
1.65451e-08
3.50328e-08
2.07866e-09
-3.51016e-08
-2.00988e-09
3.44851e-08
1.52347e-08
-3.40645e-08
-1.56552e-08
3.23266e-08
2.33429e-08
-3.16495e-08
-2.402e-08
2.9372e-08
2.76529e-08
-2.85773e-08
-2.84476e-08
2.60636e-08
2.9407e-08
-2.52226e-08
-3.02479e-08
2.26372e-08
2.94828e-08
-2.17928e-08
-3.03272e-08
1.92487e-08
2.84723e-08
-1.84328e-08
-2.92882e-08
1.60139e-08
2.68174e-08
-1.52508e-08
-2.75805e-08
1.3026e-08
2.48191e-08
-1.23358e-08
-2.55093e-08
1.0356e-08
2.2748e-08
-9.752e-09
-2.3352e-08
8.04481e-09
2.07661e-08
-7.52896e-09
-2.1282e-08
6.06646e-09
1.90457e-08
-5.61629e-09
-1.94959e-08
4.28437e-09
1.76095e-08
-3.84833e-09
-1.80455e-08
6.24518e-09
1.4789e-07
-1.43013e-07
-1.11218e-08
1.14901e-08
9.41224e-08
-8.80443e-09
-9.68081e-08
-2.62041e-09
1.68523e-07
6.95443e-09
-1.72857e-07
-1.9026e-08
1.56407e-07
2.28796e-08
-1.6026e-07
-3.41897e-08
1.17197e-07
3.67561e-08
-1.19763e-07
-4.27723e-08
9.91082e-08
4.51167e-08
-1.01453e-07
-5.34734e-08
9.22265e-08
5.63647e-08
-9.51178e-08
-6.32607e-08
5.00255e-08
6.63186e-08
-5.30834e-08
-7.16413e-08
-4.39818e-08
7.20557e-08
4.35675e-08
-6.49342e-08
-1.61997e-07
6.08498e-08
1.66081e-07
-4.22888e-08
-2.20299e-07
3.54524e-08
2.27135e-07
-1.60834e-08
-1.95482e-07
1.06089e-08
2.00956e-07
3.1757e-09
-1.45905e-07
-6.8054e-09
1.49534e-07
1.57783e-08
-1.01766e-07
-1.81723e-08
1.0416e-07
2.43625e-08
-6.83657e-08
-2.61059e-08
7.01091e-08
3.072e-08
-4.18948e-08
-3.2016e-08
4.31908e-08
3.52993e-08
-1.87765e-08
-3.60982e-08
1.95754e-08
3.74548e-08
1.8027e-09
-3.7525e-08
-1.73256e-09
3.6753e-08
1.70326e-08
-3.62499e-08
-1.75356e-08
3.42474e-08
2.61698e-08
-3.34883e-08
-2.69289e-08
3.09804e-08
3.09348e-08
-3.01156e-08
-3.17996e-08
2.73952e-08
3.28669e-08
-2.64889e-08
-3.37732e-08
2.37082e-08
3.29528e-08
-2.28012e-08
-3.38598e-08
2.00662e-08
3.18251e-08
-1.91887e-08
-3.27026e-08
1.65876e-08
2.99504e-08
-1.57676e-08
-3.07704e-08
1.33808e-08
2.76446e-08
-1.26424e-08
-2.83831e-08
1.05317e-08
2.52067e-08
-9.88973e-09
-2.58487e-08
8.07522e-09
2.28524e-08
-7.52562e-09
-2.3402e-08
5.96584e-09
2.08472e-08
-5.49015e-09
-2.13229e-08
4.13406e-09
1.93219e-08
-3.71274e-09
-1.97432e-08
6.93906e-09
1.68515e-07
-1.63184e-07
-1.22704e-08
1.23933e-08
1.0509e-07
-9.55667e-09
-1.07927e-07
-2.3633e-09
1.86016e-07
6.80172e-09
-1.90454e-07
-1.90033e-08
1.7191e-07
2.29159e-08
-1.75822e-07
-3.46547e-08
1.27338e-07
3.71329e-08
-1.29816e-07
-4.26e-08
1.08451e-07
4.49184e-08
-1.10769e-07
-5.3647e-08
1.04098e-07
5.67553e-08
-1.07206e-07
-6.37965e-08
6.34542e-08
6.76967e-08
-6.73544e-08
-7.46465e-08
-4.14935e-08
7.56712e-08
4.04688e-08
-6.83358e-08
-1.78389e-07
6.42417e-08
1.82483e-07
-4.36794e-08
-2.48698e-07
3.61102e-08
2.56267e-07
-1.51382e-08
-2.17864e-07
9.33611e-09
2.23666e-07
4.96895e-09
-1.60509e-07
-8.65283e-09
1.64193e-07
1.7591e-08
-1.1129e-07
-1.99439e-08
1.13643e-07
2.60689e-08
-7.53662e-08
-2.78299e-08
7.71272e-08
3.25771e-08
-4.71998e-08
-3.39551e-08
4.85778e-08
3.76623e-08
-2.21836e-08
-3.86157e-08
2.3137e-08
4.02683e-08
1.51503e-09
-4.03444e-08
-1.439e-09
3.93415e-08
1.92071e-08
-3.87209e-08
-1.98277e-08
3.63744e-08
2.93474e-08
-3.55182e-08
-3.02036e-08
3.27531e-08
3.45067e-08
-3.18125e-08
-3.54473e-08
2.88733e-08
3.65955e-08
-2.78975e-08
-3.75713e-08
2.49051e-08
3.66855e-08
-2.39277e-08
-3.7663e-08
2.09765e-08
3.54398e-08
-2.00271e-08
-3.63892e-08
1.72029e-08
3.33361e-08
-1.6309e-08
-3.423e-08
1.36967e-08
3.07012e-08
-1.28848e-08
-3.15132e-08
1.05506e-08
2.788e-08
-9.83524e-09
-2.85954e-08
7.79069e-09
2.51789e-08
-7.16274e-09
-2.58069e-08
5.3519e-09
2.28988e-08
-4.78733e-09
-2.34634e-08
3.09629e-09
2.10939e-08
-2.52411e-09
-2.16661e-08
7.74473e-09
1.91118e-07
-1.85267e-07
-1.35956e-08
1.3376e-08
1.1667e-07
-1.03837e-08
-1.19662e-07
-2.09772e-09
2.03927e-07
6.64071e-09
-2.0847e-07
-1.8967e-08
1.87651e-07
2.29397e-08
-1.91624e-07
-3.52316e-08
1.37088e-07
3.75945e-08
-1.3945e-07
-4.236e-08
1.17669e-07
4.46378e-08
-1.19947e-07
-5.37878e-08
1.16965e-07
5.72123e-08
-1.2039e-07
-6.39889e-08
8.05397e-08
6.88922e-08
-8.5443e-08
-7.74377e-08
-3.58608e-08
7.97268e-08
3.35718e-08
-7.22558e-08
-1.9456e-07
6.83775e-08
1.98438e-07
-4.51987e-08
-2.80277e-07
3.67203e-08
2.88755e-07
-1.3941e-08
-2.41595e-07
7.78661e-09
2.47749e-07
7.0407e-09
-1.75306e-07
-1.07621e-08
1.79027e-07
1.95791e-08
-1.20598e-07
-2.18537e-08
1.22873e-07
2.78477e-08
-8.24387e-08
-2.96289e-08
8.42199e-08
3.44877e-08
-5.28371e-08
-3.5947e-08
5.42964e-08
4.02504e-08
-2.63226e-08
-4.14424e-08
2.75146e-08
4.35772e-08
1.19394e-09
-4.36667e-08
-1.10438e-09
4.22926e-08
2.19337e-08
-4.14917e-08
-2.27346e-08
3.86902e-08
3.29351e-08
-3.77232e-08
-3.39021e-08
3.46855e-08
3.8386e-08
-3.36671e-08
-3.94043e-08
3.0503e-08
4.06067e-08
-2.9455e-08
-4.16547e-08
2.62401e-08
4.07062e-08
-2.5188e-08
-4.17582e-08
2.1999e-08
3.93572e-08
-2.09679e-08
-4.03883e-08
1.78797e-08
3.70433e-08
-1.68944e-08
-3.80286e-08
1.39889e-08
3.40884e-08
-1.30776e-08
-3.49997e-08
1.04421e-08
3.08657e-08
-9.63422e-09
-3.16736e-08
7.35924e-09
2.77448e-08
-6.68152e-09
-2.84225e-08
4.82045e-09
2.5135e-08
-4.27204e-09
-2.56834e-08
2.72247e-09
2.36072e-08
-2.25749e-09
-2.40721e-08
8.67715e-09
2.15971e-07
-2.0953e-07
-1.51181e-08
1.44338e-08
1.28872e-07
-1.12871e-08
-1.32019e-07
-1.82835e-09
2.22254e-07
6.47324e-09
-2.26899e-07
-1.89135e-08
2.03629e-07
2.2943e-08
-2.07659e-07
-3.59522e-08
1.46326e-07
3.81645e-08
-1.48538e-07
-4.20326e-08
1.26697e-07
4.42499e-08
-1.28915e-07
-5.38954e-08
1.31259e-07
5.77104e-08
-1.35074e-07
-6.44611e-08
1.01414e-07
6.99486e-08
-1.06901e-07
-7.98283e-08
-2.32242e-08
8.4535e-08
1.85174e-08
-7.59007e-08
-2.08948e-07
7.30472e-08
2.11802e-07
-4.67986e-08
-3.15814e-07
3.71908e-08
3.25422e-07
-1.24221e-08
-2.66761e-07
5.90119e-09
2.73282e-07
9.43027e-09
-1.90226e-07
-1.31691e-08
1.93965e-07
2.17514e-08
-1.29517e-07
-2.38916e-08
1.31657e-07
2.96641e-08
-8.9608e-08
-3.14801e-08
9.14241e-08
3.63915e-08
-5.87666e-08
-3.78987e-08
6.02737e-08
4.30457e-08
-3.15979e-08
-4.4611e-08
3.31631e-08
4.75494e-08
7.96493e-10
-4.76711e-08
-6.74726e-10
4.56524e-08
2.5535e-08
-4.45523e-08
-2.66351e-08
4.11508e-08
3.6977e-08
-4.00696e-08
-3.80583e-08
3.67701e-08
4.25724e-08
-3.56781e-08
-4.36644e-08
3.22926e-08
4.49077e-08
-3.11722e-08
-4.60281e-08
2.77319e-08
4.50297e-08
-2.66031e-08
-4.61585e-08
2.31643e-08
4.36129e-08
-2.20451e-08
-4.47321e-08
1.86623e-08
4.11405e-08
-1.75707e-08
-4.22321e-08
1.43011e-08
3.79252e-08
-1.32554e-08
-3.89709e-08
1.01535e-08
3.43296e-08
-9.17284e-09
-3.53103e-08
6.30133e-09
3.07355e-08
-5.40248e-09
-3.16343e-08
2.77302e-09
2.76611e-08
-1.94551e-09
-2.84886e-08
-5.45987e-10
2.55582e-08
1.28267e-09
-2.62949e-08
9.75613e-09
2.4338e-07
-2.3627e-07
-1.68656e-08
1.55607e-08
1.41681e-07
-1.22698e-08
-1.44972e-07
-1.56087e-09
2.4098e-07
6.30207e-09
-2.45722e-07
-1.88402e-08
2.19823e-07
2.29176e-08
-2.23901e-07
-3.68633e-08
1.54899e-07
3.88817e-08
-1.56917e-07
-4.1596e-08
1.35447e-07
4.37278e-08
-1.37578e-07
-5.4002e-08
1.46974e-07
5.81063e-08
-1.51078e-07
-6.7272e-08
1.21061e-07
7.01677e-08
-1.23957e-07
-8.64509e-08
-2.42112e-09
9.14932e-08
-2.62121e-09
-7.73969e-08
-2.17704e-07
7.58823e-08
2.19219e-07
-4.8275e-08
-3.56161e-07
3.7384e-08
3.67052e-07
-1.04935e-08
-2.93398e-07
3.60979e-09
3.00281e-07
1.21844e-08
-2.05194e-07
-1.59244e-08
2.08934e-07
2.41224e-08
-1.37781e-07
-2.60438e-08
1.39703e-07
3.14647e-08
-9.6968e-08
-3.33579e-08
9.88612e-08
3.82492e-08
-6.47228e-08
-3.96499e-08
6.61234e-08
4.60021e-08
-3.86583e-08
-4.81562e-08
4.08124e-08
5.24724e-08
2.0485e-10
-5.26824e-08
5.15516e-12
4.94463e-08
3.06504e-08
-4.7792e-08
-3.23048e-08
4.36816e-08
4.14441e-08
-4.25196e-08
-4.26061e-08
3.90061e-08
4.70376e-08
-3.78529e-08
-4.81908e-08
3.42551e-08
4.94963e-08
-3.30641e-08
-5.06873e-08
2.94066e-08
4.96586e-08
-2.82029e-08
-5.08623e-08
2.45175e-08
4.82233e-08
-2.331e-08
-4.94308e-08
1.96277e-08
4.56733e-08
-1.84263e-08
-4.68748e-08
1.47742e-08
4.23296e-08
-1.35839e-08
-4.35199e-08
9.95878e-09
3.85674e-08
-8.77463e-09
-3.97515e-08
5.16967e-09
3.47529e-08
-3.99658e-09
-3.5926e-08
4.76604e-10
3.14557e-08
6.37611e-10
-3.25699e-08
-3.89564e-09
2.87894e-08
5.0156e-09
-2.99093e-08
1.10093e-08
2.73686e-07
-2.65817e-07
-1.88781e-08
1.67372e-08
1.55029e-07
-1.33319e-08
-1.58434e-07
-1.30128e-09
2.60075e-07
6.12777e-09
-2.64902e-07
-1.87358e-08
2.36183e-07
2.2843e-08
-2.40291e-07
-3.80142e-08
1.62621e-07
3.97877e-08
-1.64395e-07
-4.10024e-08
1.43811e-07
4.30207e-08
-1.4583e-07
-5.4026e-08
1.64015e-07
5.86666e-08
-1.68656e-07
-6.86297e-08
1.2456e-07
6.69183e-08
-1.22849e-07
-9.31789e-08
1.23512e-08
9.37987e-08
-1.29712e-08
-8.46437e-08
-2.27915e-07
7.89179e-08
2.33641e-07
-4.90263e-08
-4.01458e-07
3.70959e-08
4.13388e-07
-8.08079e-09
-3.21488e-07
8.61237e-10
3.28708e-07
1.53571e-08
-2.20146e-07
-1.90853e-08
2.23875e-07
2.67071e-08
-1.44995e-07
-2.82835e-08
1.46572e-07
3.31216e-08
-1.04756e-07
-3.51817e-08
1.06816e-07
3.99429e-08
-6.96419e-08
-4.07277e-08
7.04267e-08
4.90036e-08
-4.85298e-08
-5.20779e-08
5.16041e-08
5.87881e-08
-9.25996e-10
-5.92302e-08
1.36817e-09
5.32555e-08
3.87065e-08
-5.04867e-08
-4.14753e-08
4.61785e-08
4.6071e-08
-4.50819e-08
-4.71676e-08
4.13888e-08
5.17104e-08
-4.02035e-08
-5.28956e-08
3.63922e-08
5.43609e-08
-3.51347e-08
-5.56184e-08
3.12808e-08
5.45772e-08
-3.00096e-08
-5.58483e-08
2.60991e-08
5.3178e-08
-2.48101e-08
-5.4467e-08
2.08529e-08
5.06308e-08
-1.95531e-08
-5.19307e-08
1.55773e-08
4.72714e-08
-1.42745e-08
-4.85743e-08
1.02897e-08
4.35184e-08
-8.98365e-09
-4.48245e-08
4.99701e-09
3.9705e-08
-3.69647e-09
-4.10055e-08
-2.205e-10
3.62407e-08
1.47284e-09
-3.74931e-08
-5.12754e-09
3.32142e-08
6.25056e-09
-3.43372e-08
1.24608e-08
3.07271e-07
-2.98544e-07
-2.11876e-08
1.79358e-08
1.68749e-07
-1.44795e-08
-1.72205e-07
-1.05718e-09
2.7949e-07
5.95249e-09
-2.84386e-07
-1.85921e-08
2.52622e-07
2.26973e-08
-2.56727e-07
-3.94877e-08
1.69282e-07
4.09606e-08
-1.70755e-07
-4.01984e-08
1.51682e-07
4.20772e-08
-1.53561e-07
-5.40159e-08
1.84185e-07
5.98666e-08
-1.90036e-07
-6.70132e-08
1.18879e-07
6.67851e-08
-1.18651e-07
-9.32255e-08
5.23943e-09
8.82058e-08
-2.19692e-10
-1.01203e-07
-2.61073e-07
8.87345e-08
2.73543e-07
-4.8226e-08
-4.49876e-07
3.61717e-08
4.6193e-07
-5.19675e-09
-3.50935e-07
-2.49625e-09
3.58628e-07
1.90283e-08
-2.35048e-07
-2.27413e-08
2.38761e-07
2.95519e-08
-1.50569e-07
-3.05935e-08
1.51611e-07
3.42889e-08
-1.13342e-07
-3.6527e-08
1.1558e-07
4.00015e-08
-7.09721e-08
-3.97972e-08
7.07677e-08
5.18856e-08
-6.27582e-08
-5.63663e-08
6.72389e-08
6.69333e-08
-3.18395e-09
-6.76742e-08
3.92481e-09
5.54523e-08
5.21669e-08
-5.11173e-08
-5.65019e-08
4.86067e-08
4.99024e-08
-4.79854e-08
-5.05237e-08
4.39476e-08
5.6466e-08
-4.27413e-08
-5.76723e-08
3.87024e-08
5.948e-08
-3.739e-08
-6.07924e-08
3.33755e-08
5.97481e-08
-3.20503e-08
-6.10734e-08
2.79528e-08
5.84426e-08
-2.65939e-08
-5.98015e-08
2.2397e-08
5.5961e-08
-2.10121e-08
-5.73459e-08
1.67697e-08
5.26155e-08
-1.53813e-08
-5.40039e-08
1.11603e-08
4.88443e-08
-9.78979e-09
-5.02148e-08
5.66224e-09
4.49489e-08
-4.3358e-09
-4.62754e-08
3.94314e-10
4.12492e-08
8.5415e-10
-4.24977e-08
-4.50027e-09
3.77441e-08
5.63359e-09
-3.88774e-08
1.41496e-08
3.44572e-07
-3.34874e-07
-2.38477e-08
1.9176e-08
1.82574e-07
-1.57389e-08
-1.86011e-07
-8.37598e-10
2.99151e-07
5.77964e-09
-3.04093e-07
-1.84052e-08
2.6898e-07
2.24515e-08
-2.73026e-07
-4.14238e-08
1.74653e-07
4.25355e-08
-1.75764e-07
-3.9119e-08
1.5897e-07
4.08477e-08
-1.60699e-07
-5.46522e-08
2.09922e-07
6.19909e-08
-2.1726e-07
-6.45474e-08
1.19766e-07
6.6291e-08
-1.21509e-07
-9.36467e-08
-9.89569e-09
9.52001e-08
8.34228e-09
-1.20045e-07
-3.23327e-07
9.89905e-08
3.44382e-07
-4.57861e-08
-4.97472e-07
3.44092e-08
5.08849e-07
-1.58301e-09
-3.81887e-07
-6.46146e-09
3.89931e-07
2.32865e-08
-2.49942e-07
-2.70065e-08
2.53662e-07
3.27723e-08
-1.53611e-07
-3.29898e-08
1.53828e-07
3.33741e-08
-1.2086e-07
-3.3707e-08
1.21193e-07
2.90412e-08
-7.4999e-08
-3.44313e-08
8.03891e-08
5.46354e-08
-8.33119e-08
-6.0885e-08
8.95616e-08
7.63963e-08
-6.43672e-09
-7.73913e-08
7.43174e-09
5.99634e-08
7.15854e-08
-5.44412e-08
-7.71076e-08
5.18126e-08
5.17689e-08
-5.12432e-08
-5.23382e-08
4.67457e-08
6.14901e-08
-4.53721e-08
-6.28637e-08
4.11707e-08
6.47824e-08
-3.9828e-08
-6.61251e-08
3.57153e-08
6.51072e-08
-3.43569e-08
-6.64656e-08
3.0128e-08
6.39674e-08
-2.8713e-08
-6.53823e-08
2.43049e-08
6.16203e-08
-2.28406e-08
-6.30845e-08
1.83449e-08
5.82906e-08
-1.6875e-08
-5.97605e-08
1.2429e-08
5.4419e-08
-1.09966e-08
-5.58514e-08
6.73005e-09
5.0297e-08
-5.37721e-09
-5.16498e-08
1.42193e-09
4.62269e-08
-1.91841e-10
-4.7457e-08
-3.32565e-09
4.22063e-08
4.39269e-09
-4.32734e-08
1.61183e-08
3.8606e-07
-3.75268e-07
-2.69109e-08
2.04541e-08
1.96203e-07
-1.70972e-08
-1.9956e-07
-6.52544e-10
3.18954e-07
5.61004e-09
-3.23912e-07
-1.81668e-08
2.84957e-07
2.20421e-08
-2.88832e-07
-4.40122e-08
1.78463e-07
4.46696e-08
-1.79121e-07
-3.76438e-08
1.65711e-07
3.92786e-08
-1.67346e-07
-5.5965e-08
2.39717e-07
6.27552e-08
-2.46508e-07
-5.43469e-08
1.39498e-07
6.44345e-08
-1.49586e-07
-7.87757e-08
1.29264e-08
8.92425e-08
-2.33932e-08
-1.11682e-07
-4.11229e-07
9.23061e-08
4.30604e-07
-3.95436e-08
-5.39778e-07
3.01466e-08
5.49174e-07
3.1042e-09
-4.14069e-07
-1.12591e-08
4.22224e-07
2.81936e-08
-2.65001e-07
-3.20085e-08
2.68816e-07
3.65633e-08
-1.52761e-07
-3.55224e-08
1.5172e-07
2.64509e-08
-1.12605e-07
-1.92421e-08
1.05397e-07
1.00834e-08
-1.14295e-07
-2.58912e-08
1.30103e-07
5.73139e-08
-1.10879e-07
-6.51578e-08
1.18723e-07
8.4282e-08
-1.03792e-08
-8.46612e-08