/*--------------------------------*- C++ -*----------------------------------*\
| =========                 |                                                 |
| \\      /  F ield         | OpenFOAM: The Open Source CFD Toolbox           |
|  \\    /   O peration     | Version:  2.4.0                                 |
|   \\  /    A nd           | Web:      www.OpenFOAM.org                      |
|    \\/     M anipulation  |                                                 |
\*---------------------------------------------------------------------------*/
FoamFile
{
    version     2.0;
    format      ascii;
    class       volScalarField;
    location    "0.179";
    object      p;
}
// * * * * * * * * * * * * * * * * * * * * * * * * * * * * * * * * * * * * * //

dimensions      [1 -1 -2 0 0 0 0];

internalField   nonuniform List<scalar> 
14400
(
93.6648
93.3305
91.1237
88.9588
87.6638
88.6113
91.4
94.7008
97.5643
99.386
100.205
100.282
99.8924
99.2647
98.5556
97.8634
97.2394
96.7039
96.2606
95.903
95.6201
95.4001
95.2318
95.1046
95.0101
94.9413
94.8924
94.8591
94.8376
94.8251
90.4112
90.0656
87.8596
85.6907
84.3897
85.3411
88.1417
91.453
94.325
96.1446
96.9572
97.0266
96.633
96.0026
95.2917
94.5983
93.9732
93.4372
92.9938
92.6361
92.3538
92.1341
91.9661
91.8393
91.7452
91.6768
91.6283
91.5953
91.574
91.5617
87.168
86.8006
84.5937
82.4147
81.0928
82.0433
84.8639
88.1964
91.095
92.9239
93.7344
93.7921
93.3873
92.7483
92.0306
91.3321
90.703
90.1641
89.7191
89.3605
89.0777
88.8583
88.6906
88.5643
88.4707
88.4027
88.3547
88.322
88.3011
88.289
83.9358
83.5348
81.325
79.1306
77.7746
78.7209
81.5705
84.9344
87.8766
89.7245
90.5387
90.5834
90.1576
89.5029
88.773
88.0647
87.4281
86.8842
86.4357
86.0753
85.7916
85.572
85.4046
85.2787
85.1857
85.1184
85.0709
85.0387
85.0181
85.0063
80.7151
80.2688
78.0536
75.8382
74.4348
75.3744
78.2633
81.6685
84.6708
86.5456
87.3668
87.3933
86.9433
86.2667
85.5192
84.7967
84.1493
83.5977
83.1441
82.7808
82.4956
82.2756
82.1083
81.983
81.8905
81.8237
81.7768
81.7451
81.7249
81.7135
77.5064
77.0026
74.7798
72.5371
71.0725
72.0026
74.9423
78.3984
81.478
83.3868
84.217
84.2226
83.7432
83.0388
82.2687
81.5279
80.8664
80.3046
79.8443
79.4769
79.1897
78.969
78.8018
78.6769
78.5851
78.519
78.4727
78.4415
78.4218
78.4107
74.3102
73.7365
71.5038
69.2272
67.687
68.6048
71.6075
75.123
78.299
80.2481
81.0895
81.0707
80.5566
79.8192
79.0215
78.2582
77.5793
77.0049
76.5361
76.1636
75.8737
75.6519
75.4847
75.3603
75.2694
75.2041
75.1586
75.128
75.1089
75.0983
71.1274
70.4709
68.226
65.9086
64.2776
65.1798
68.2591
71.8415
75.1343
77.1301
77.985
77.938
77.3834
76.6074
75.7774
74.9875
74.2879
73.6983
73.2192
72.8404
72.5471
72.3239
72.1566
72.033
71.943
71.8789
71.8344
71.8048
71.7865
71.7765
67.9588
67.206
64.9467
62.5814
60.843
61.726
64.8973
68.5523
71.9848
74.033
74.9044
74.8248
74.2236
73.4033
72.536
71.7153
70.9913
70.3839
69.8927
69.5065
69.2092
68.9843
68.8171
68.6944
68.6058
68.5431
68.5
68.4717
68.4544
68.4453
64.8054
63.9421
61.667
59.2458
57.3821
58.2419
61.5228
65.2537
68.8516
70.9572
71.8486
71.7319
71.0772
70.2066
69.2971
68.4412
67.6894
67.0614
66.5562
66.1613
65.8594
65.6328
65.4657
65.3442
65.2574
65.1967
65.1554
65.1286
65.1126
65.1046
61.6685
60.6795
58.388
55.9029
53.8936
54.7252
58.1367
61.9437
65.7362
67.9032
68.8187
68.6601
67.9441
67.0169
66.0605
65.165
64.3814
63.7299
63.2089
62.8042
62.497
62.2686
62.1018
61.9821
61.8977
61.8394
61.8005
61.7757
61.7614
61.7548
58.5495
57.4179
55.1114
52.5537
50.3756
51.1732
54.7402
58.62
62.6403
64.8711
65.8156
65.6103
64.8242
63.8337
62.8258
61.8859
61.0667
60.3888
59.8499
59.4341
59.1211
58.8908
58.7249
58.6075
58.5261
58.4711
58.4351
58.4129
58.4007
58.3957
55.4496
54.1575
51.8391
49.2002
46.8264
47.5825
51.3354
55.2799
59.5664
61.8609
62.8408
62.5827
61.7178
60.6564
59.5927
58.6037
57.7446
57.0369
56.4782
56.0501
55.7307
55.4986
55.3339
55.2198
55.1424
55.0915
55.0592
55.0403
55.0306
55.0276
52.3699
50.898
48.5732
45.8454
43.2441
43.9489
47.9245
51.9207
56.5178
58.8736
59.8966
59.5763
58.6258
57.4844
56.3609
55.3177
54.4142
53.6735
53.0927
52.6511
52.3245
52.0906
51.9281
51.8183
51.7462
51.7005
51.673
51.658
51.6516
51.651
49.3116
47.6389
45.3153
42.4933
39.626
40.2668
44.5093
48.5394
53.4991
55.9112
56.9863
56.5928
55.5468
54.3166
53.1302
52.0274
51.0746
50.2971
49.6921
49.2354
48.9008
48.6654
48.5059
48.4019
48.3367
48.2978
48.2763
48.2662
48.2638
48.2662
46.2761
44.3797
42.0665
39.1495
35.9695
36.5293
41.0911
45.1327
50.5165
52.9753
54.1134
53.6329
52.478
51.1517
49.9004
48.7323
47.7249
46.9065
46.275
45.8014
45.4577
45.221
45.0659
44.9697
44.9135
44.8832
44.8693
44.8655
44.8678
44.8739
43.2665
41.1194
38.8264
35.8218
32.2717
32.7272
37.6706
41.6964
47.5776
50.0667
51.2784
50.697
49.4199
47.9872
46.6715
45.4318
44.3639
43.5003
42.8397
42.3466
41.9925
41.7551
41.6061
41.5202
41.4758
41.4568
41.4524
41.4563
41.4645
41.4749
40.2814
37.856
35.5908
32.5215
28.529
28.8482
34.2496
38.2243
44.6915
47.1832
48.4843
47.7841
46.3701
44.8194
43.4438
42.1251
40.9904
40.0768
39.3833
38.8662
38.5015
38.2644
38.1237
38.0516
38.0229
38.0184
38.0262
38.0394
38.0547
38.0703
37.32
34.5855
32.3465
29.2669
24.7376
24.8751
30.8318
34.7093
41.8719
44.3196
45.7326
44.8934
43.3247
41.6428
40.2183
38.8116
37.6034
36.6338
35.9016
35.3537
34.9808
34.7455
34.6153
34.5617
34.554
34.5688
34.5917
34.6162
34.6398
34.6614
34.386
31.3008
29.0592
26.0843
20.893
20.785
27.4173
31.1456
39.129
41.4732
43.0267
42.0261
40.2786
38.454
36.9961
35.4909
34.2015
33.168
32.393
31.8116
31.4294
31.1941
31.0761
31.0475
31.0689
31.1091
31.151
31.1887
31.2215
31.2497
31.4828
27.9948
25.6556
23.5493
16.9899
16.5467
24.0089
27.5282
36.4509
38.653
40.3607
39.1693
37.2241
35.2376
33.7794
32.1608
30.7834
29.6749
28.8683
28.25
27.8493
27.6028
27.4978
27.5045
27.5674
27.642
27.7069
27.7592
27.8016
27.8368
28.6135
24.6613
22.1712
20.3514
13.0217
12.1222
20.6316
23.8686
33.8073
35.8628
37.7333
36.3208
34.1531
31.9768
30.573
28.8156
27.348
26.1607
25.3206
24.6468
24.2254
23.9568
23.8661
23.9264
24.0519
24.1732
24.2647
24.3307
24.3814
24.4233
25.7821
21.3268
18.8019
17.1029
8.99287
7.49216
17.4311
20.213
31.1502
33.1179
35.1222
33.4793
31.0599
28.6583
27.3672
25.4435
23.8915
22.6478
21.7611
20.9431
20.4997
20.2267
20.1582
20.3053
20.5295
20.7147
20.8324
20.9058
20.9595
21.0063
22.9972
18.1001
15.7844
13.9941
4.99348
3.19644
14.3251
16.4802
28.4433
30.4176
32.54
30.6325
27.9405
25.2713
24.1309
22.0394
20.4125
19.1216
18.1292
17.182
16.7865
16.3718
16.3379
16.6354
17.0181
17.2867
17.4214
17.4848
17.5298
17.5784
20.2674
14.8114
12.5465
6.17854
1.29226
-1.08064
12.7031
12.8871
25.735
27.8189
29.9283
27.7855
24.8032
21.743
20.8366
18.627
16.904
15.4964
14.4289
13.4455
12.8137
12.4212
12.3519
12.918
13.5513
13.9201
14.043
14.0603
14.0755
14.1246
17.5793
11.4902
9.51192
3.48
-0.612831
-2.14959
11.8024
9.31808
23.1012
25.3028
27.2861
24.9206
21.6593
17.8581
17.3745
15.2338
13.3353
11.6203
10.6453
9.67889
8.93832
8.40543
8.08253
9.1494
10.1889
10.6628
10.7068
10.6046
10.5518
10.6102
14.9489
7.96238
6.38903
0.273382
0.206692
-0.728107
3.76851
4.52492
20.2223
22.8795
24.7074
22.0858
18.5385
13.5871
13.9822
11.8956
9.75116
7.63181
6.73983
5.94728
5.18795
4.18945
3.19786
5.33445
7.07071
7.61305
7.42751
7.05153
6.84386
6.94998
12.3792
4.42227
3.15041
-0.170443
0.205415
-0.890314
-1.56667
2.14989
17.0172
20.5086
22.0723
19.1467
15.5372
9.69905
10.1099
8.64675
6.33681
4.35376
2.87283
2.31509
1.94563
-0.300226
-3.23138
1.68109
4.57085
5.03528
4.26831
3.26952
2.65254
2.95975
9.88062
-1.32047
0.123005
0.0100641
0.152193
-0.946507
0.29111
-3.24452
13.5496
18.4051
19.0655
16.2942
12.5546
6.15427
6.88424
5.5183
2.96229
1.47906
-1.86762
-1.46815
-0.553641
-0.113717
-0.803291
-0.114861
0.846723
1.22466
0.576765
-0.0707671
-0.680003
-0.307077
6.86581
-0.69999
-0.0522333
0.00909124
0.0901334
-0.921695
-0.257885
-5.76505
10.3056
16.3989
15.6594
13.6116
10.1438
1.90712
4.13723
2.56771
-1.50605
-0.0471445
-0.0422842
-0.0371927
-0.0470664
-0.0467713
-0.0350453
-0.0449053
-0.0504851
-0.0510472
-0.0491386
-0.0476194
-0.048422
-0.053386
94.8194
94.8192
94.8257
94.8412
94.8685
94.9111
94.9736
95.0613
95.1814
95.3418
95.5543
95.8293
96.179
96.6154
97.1451
97.762
98.4387
99.1024
99.6203
99.7828
99.3045
97.8565
95.2013
91.5742
87.9509
85.8027
86.098
88.0752
90.5485
92.7536
91.556
91.5559
91.5624
91.5778
91.6049
91.6473
91.7094
91.7967
91.9165
92.0766
92.2892
92.5632
92.9126
93.349
93.8792
94.4975
95.1755
95.8419
96.3637
96.5321
96.0611
94.6185
91.959
88.3205
84.6833
82.5265
82.8259
84.8096
87.2873
89.492
88.2835
88.2834
88.2899
88.3053
88.3324
88.3746
88.4365
88.5235
88.6428
88.8025
89.0149
89.2888
89.6389
90.0767
90.6098
91.2326
91.9167
92.5918
93.1247
93.3061
92.8444
91.3979
88.7196
85.0523
81.3878
79.2209
79.539
81.5405
84.0287
86.2351
85.001
85.0011
85.0077
85.0232
85.0502
85.0923
85.154
85.2407
85.3595
85.5192
85.7307
86.0055
86.357
86.798
87.3363
87.9674
88.6631
89.3534
89.9054
90.1069
89.6548
88.1965
85.4858
81.7734
78.0676
75.8877
76.2373
78.2674
80.7721
82.983
81.7085
81.7088
81.7157
81.7313
81.7584
81.8005
81.8621
81.9486
82.0671
82.2265
82.4378
82.7134
83.0674
83.5131
84.0592
84.7023
85.4148
86.1267
86.7048
86.9318
86.4902
85.0148
82.2596
78.4854
74.7235
72.5266
72.9209
74.9901
77.5173
79.7357
78.406
78.4067
78.4139
78.4298
78.4572
78.4994
78.5609
78.6471
78.7653
78.9244
79.1358
79.4127
79.7698
80.2218
80.7782
81.437
82.1713
82.911
83.5214
83.7789
83.3497
81.8529
79.0413
75.1877
71.3545
69.1368
69.5895
71.7089
74.2644
76.4931
75.0941
75.0952
75.1028
75.1191
75.1467
75.189
75.2503
75.3363
75.454
75.6128
75.8244
76.103
76.4644
76.924
77.4931
78.1712
78.9323
79.7057
80.3546
80.648
80.2337
78.7113
75.831
71.8801
67.96
65.7171
66.2433
68.4236
71.0136
73.2553
71.7728
71.7744
71.7825
71.7991
71.827
71.8693
71.9304
72.0158
72.133
72.2914
72.5034
72.7841
73.1505
73.6194
74.2036
74.9047
75.6975
76.5108
77.2046
77.5396
77.1431
75.5907
72.6288
68.5619
64.5386
62.2664
62.8823
65.1347
67.7649
70.0219
68.4423
68.4444
68.453
68.47
68.498
68.5402
68.6009
68.6857
68.8019
68.9597
69.1721
69.4552
69.8273
70.307
70.9089
71.6367
72.4664
73.3258
74.0713
74.4541
74.0789
72.4914
69.4347
65.2322
61.0891
58.7833
59.5066
61.842
64.5186
66.7929
65.1025
65.1054
65.1145
65.1319
65.16
65.2019
65.262
65.3456
65.4607
65.6175
65.8301
66.1157
66.4945
66.9865
67.6083
68.3667
69.2388
70.1506
70.955
71.3924
71.0426
69.4144
66.2489
61.8903
57.6099
55.2655
56.1163
58.5459
61.275
63.568
61.7536
61.7574
61.7672
61.785
61.8131
61.8546
61.9136
61.9958
62.1091
62.2644
62.4767
62.7649
63.1511
63.6569
64.3011
65.0942
66.0143
66.9851
67.856
68.3552
68.0356
66.3605
63.0716
58.5348
54.0994
51.7112
52.7118
55.2467
58.0343
60.3469
58.3958
58.4006
58.4112
58.4294
58.4574
58.4982
58.5558
58.6359
58.7466
58.8996
59.111
59.4018
59.7961
60.3173
60.9863
61.8182
62.792
63.8287
64.7743
65.3431
65.0596
63.3304
59.9024
55.1644
50.5553
48.1179
49.2929
51.9445
54.797
57.1293
55.0293
55.0353
55.0468
55.0655
55.0933
55.1331
55.1888
55.266
55.3731
55.5225
55.7321
56.0251
56.4285
56.9667
57.6628
58.5378
59.5717
60.6809
61.7096
62.3573
62.1164
60.3251
56.7415
51.7771
46.9755
44.4828
45.86
48.6395
51.5634
53.9147
51.6546
51.662
51.6746
51.6938
51.7213
51.7597
51.8127
51.8859
51.988
52.1324
52.3388
52.6336
53.047
53.604
54.3292
55.2521
56.3527
57.541
58.6612
59.3989
59.2078
57.3459
53.5883
48.3709
43.3576
40.8028
42.4133
45.332
48.3342
50.7025
48.272
48.2812
48.2951
48.3147
48.3417
48.3782
48.4277
48.4956
48.5909
48.7281
48.9294
49.225
49.6498
50.2281
50.9841
51.9596
53.1343
54.4076
55.6307
56.468
56.3357
54.3932
50.4419
44.9435
39.6989
37.074
38.9528
42.0223
45.1095
47.4921
44.8824
44.8937
44.909
44.9292
44.9554
44.9894
45.0343
45.0952
45.1812
45.3082
45.5019
45.797
46.2349
46.8379
47.6257
48.6594
49.9158
51.2782
52.618
53.5651
53.5017
51.4664
47.3012
41.4917
35.9968
33.2921
35.4787
38.7104
41.8898
44.2825
41.4866
41.5004
41.5174
41.5382
41.5633
41.5942
41.6331
41.6848
41.7583
41.8712
42.0535
42.3461
42.7994
43.4324
44.2521
45.3499
46.6968
48.1574
49.62
50.6895
50.7066
48.564
44.1651
38.0109
32.2481
29.452
31.9908
35.3966
38.6757
41.0729
38.0859
38.1025
38.1214
38.1428
38.1667
38.1936
38.225
38.2648
38.3215
38.4146
38.5796
38.8661
39.3387
40.0097
40.8606
42.0299
43.4763
45.0411
46.6371
47.8401
47.9525
45.6856
41.0329
34.4935
28.449
25.5473
28.4887
32.0807
35.4675
37.8617
34.6813
34.7013
34.7226
34.7448
34.7671
34.7892
34.8113
34.836
34.8705
34.9353
35.0729
35.348
35.8465
36.5669
37.4478
38.6983
40.2536
41.9249
43.6681
45.0145
45.2398
42.8336
37.9038
30.93
24.5962
21.5708
24.972
28.7628
32.266
34.6476
31.2745
31.2985
31.3228
31.3462
31.3669
31.3832
31.394
31.4
31.4056
31.4303
31.5264
31.7857
32.3179
33.1017
34.0104
35.3542
37.0289
38.8037
40.7128
42.2093
42.5685
40.0138
34.7767
27.3078
20.6889
17.5142
21.4403
25.4425
29.0719
31.4288
27.8671
27.8958
27.924
27.9492
27.9685
27.9782
27.9755
27.9592
27.928
27.8978
27.9396
28.1835
28.7409
29.6104
30.5443
31.9965
33.8065
35.672
37.769
39.4207
39.9305
37.2348
31.6537
23.6093
16.7312
13.3697
17.8926
22.1192
25.8858
28.2027
24.4597
24.4944
24.5281
24.557
24.5758
24.5785
24.5597
24.517
24.4414
24.3391
24.3101
24.5301
25.0418
26.0431
27.0405
28.6256
30.5885
32.523
34.8391
36.6424
37.3177
34.4999
28.5426
19.8203
12.7401
9.13806
14.3295
18.792
22.7086
24.9666
21.0499
21.0937
21.1368
21.1729
21.1936
21.1895
21.1518
21.0786
20.9518
20.7551
20.6166
20.7716
20.8522
22.2701
23.4889
25.2396
27.3626
29.3397
31.9206
33.8687
34.7333
31.8181
25.4669
15.9657
8.7663
4.86051
10.7618
15.4597
19.5408
21.7154
17.6325
17.6919
17.752
17.8009
17.8263
17.8175
17.7603
17.6533
17.4653
17.1399
16.8293
16.8192
16.5446
18.4711
19.8993
21.8477
24.0926
26.0972
29.0132
31.0917
32.1862
29.1839
22.4604
12.2001
4.89618
0.666204
7.23303
12.1213
16.3825
18.4586
14.2002
14.2904
14.3801
14.4461
14.4745
14.4634
14.397
14.2597
13.9835
13.4792
12.9383
12.697
12.667
14.3555
16.2477
18.4738
20.7163
22.7503
26.1307
28.3034
29.6657
26.5636
19.4143
8.33631
8.59262
-2.70917
3.81491
8.77989
13.2305
15.1947
10.7409
10.8988
11.0405
11.1195
11.1296
11.1098
11.0647
10.9292
10.5105
9.75145
8.86955
8.64942
8.80845
10.2601
12.618
15.1624
17.2504
19.1468
23.2739
25.4993
27.1568
23.9735
16.362
6.39898
2.76628
-1.21239
0.834235
5.44548
10.0679
11.9194
7.23407
7.54822
7.78393
7.84622
7.76463
7.70154
7.74078
7.72158
7.12246
6.02971
4.71041
4.57516
4.81168
6.41409
9.1914
11.8852
13.2355
15.2808
20.4753
22.6759
24.717
21.5377
13.6237
2.90355
-0.565306
-0.386876
-0.116671
2.00203
6.85577
8.61377
3.69003
4.3362
4.753
4.68761
4.32554
4.12484
4.43359
4.75144
3.96484
2.2137
0.794916
0.524852
0.493495
2.67172
6.03242
8.62929
10.0524
11.8129
17.769
19.7939
22.2599
19.0456
10.7694
0.212058
-0.227819
-0.251803
-0.07966
-0.491342
3.60824
5.23982
0.519432
1.2046
1.75621
1.41997
0.789749
0.631813
1.10623
1.58954
0.830515
-0.636272
-0.488676
-1.81479
-3.5516
-1.29336
3.42323
5.24805
7.20496
9.01696
15.0516
16.8776
19.9188
16.607
7.51631
-4.45403
0.228517
-0.231122
-0.0982393
-0.159426
0.137956
1.85473
-0.0599052
-0.0660862
-0.0718555
-0.0745612
-0.073043
-0.0677799
-0.0638374
-0.0598843
-0.0580094
-0.0547335
-0.050855
-0.0509155
-0.0371198
-0.0223518
-1.19336
2.55882
3.42476
6.42613
12.257
14.0459
17.0597
14.0819
4.49183
-2.90627
0.137017
-0.242714
-0.127936
-0.157083
-0.17552
-3.40349
1.86471
-0.0107095
-0.0526429
0.0111372
0.285115
-0.934048
-0.236878
-1.27528
5.23855
14.0012
13.87
10.9965
8.1163
-1.84561
0.855616
-0.0458436
-0.039822
-0.0338026
-0.0401737
-0.0446315
-0.0513394
-0.0511812
-0.0441502
-0.0482521
-0.0513679
-0.0516767
-0.0505665
-0.0499648
-0.0516598
-0.0560971
-0.0979111
-0.00420049
-0.0522482
0.0104048
0.138974
-0.937953
-0.232647
-0.266347
-5.27527
12.2941
13.495
9.07018
7.07459
-4.63048
-0.0128723
-0.0378713
-0.0419018
-0.0355831
-0.0418445
-0.0505206
-0.054504
-0.0552232
-0.049591
-0.051229
-0.052951
-0.0529149
-0.0519448
-0.0515998
-0.0535678
-0.0580967
-0.0875772
-0.0104916
-0.0100167
0.030185
0.112097
-0.936755
-0.229934
-0.264893
-7.13984
10.7277
11.6766
7.35723
5.97716
-0.554359
-0.0212335
-0.0380924
-0.0453837
-0.0378296
-0.0427294
-0.0565774
-0.0576511
-0.0603382
-0.0553084
-0.0549654
-0.0554151
-0.0549577
-0.0540678
-0.0540155
-0.0563003
-0.0611147
-0.0900536
-0.0161222
-0.0201749
-0.0587451
0.0776411
-0.923193
-0.229137
-0.273948
-0.761641
8.90477
9.37279
5.74119
-2.79939
-0.0438773
-0.0446666
-0.0406864
-0.0503757
-0.0392353
-0.0434385
-0.049161
-0.0598362
-0.0634034
-0.0602859
-0.0593381
-0.05883
-0.0579272
-0.0571547
-0.0574984
-0.0602864
-0.065584
-0.0920898
-0.0225846
-0.0547517
-0.0606573
0.0649598
-0.902986
-0.231758
-0.277917
-0.323438
5.75775
6.73766
2.9722
-0.17566
-0.061666
-0.0714717
-0.0461509
-0.0491221
-0.0394513
-0.0443646
-0.0676633
-0.0748012
-0.0695311
-0.065524
-0.0645366
-0.0631932
-0.0618514
-0.0612551
-0.06207
-0.0654133
-0.0712084
-0.0937486
-0.0259014
-0.0559761
-0.0629416
0.054398
-0.80862
-0.240055
-0.283074
-0.276325
0.149092
1.23446
-0.175848
-0.157406
-0.0700498
-0.0837383
-0.0583921
-0.0598778
-0.039216
-0.0449271
-0.0719963
-0.077718
-0.0750687
-0.0719796
-0.0659655
-0.0680233
-0.0664343
-0.066078
-0.0672969
-0.0709132
-0.0767892
-0.0957229
-0.0259757
-0.0616027
-0.0998809
0.0406461
-0.693672
-0.253228
-0.283662
-0.285811
-0.0898302
-0.149668
-0.164777
-0.147036
-0.0713649
-0.0687506
-0.0641762
-0.0651644
-0.0376926
-0.0453517
-0.0777856
-0.0810614
-0.0802932
-0.0778201
-0.0752533
-0.0725452
-0.0711857
-0.0711172
-0.0725284
-0.0759043
-0.0810998
-0.0980239
-0.0535667
-0.0886224
-0.100696
0.0242455
-0.537729
-0.270703
-0.289307
-0.28422
-0.102819
-0.140569
-0.163068
-0.144005
-0.0866796
-0.0730698
-0.0697929
-0.0720011
-0.0340906
-0.0222131
-0.0837665
-0.085251
-0.0844866
-0.0826874
-0.0793504
-0.0767656
-0.0757307
-0.0759276
-0.0772722
-0.0800092
-0.0839663
-0.10088
-0.0600742
-0.0945866
-0.102386
0.00211352
-0.436277
-0.28392
-0.291923
-0.28076
-0.102397
-0.155557
-0.169779
-0.153409
-0.0997124
-0.0737774
-0.0762486
-0.0829597
-0.0648668
0.085229
-0.0824448
-0.0869814
-0.085956
-0.0877907
-0.0832197
-0.080449
-0.0798707
-0.0803391
-0.0813893
-0.0834029
-0.0861057
-0.10433
-0.0655214
-0.10801
-0.103004
-0.0272843
-0.35052
-0.281608
-0.290308
-0.272524
-0.114121
-0.160302
-0.170637
-0.152129
-0.115524
-0.0750477
-0.0833797
-0.0968655
0.0866484
0.0892826
-0.0761301
-0.0903562
-0.0927423
-0.0910041
-0.0790443
-0.0813554
-0.0807817
-0.0845293
-0.0850094
-0.0864901
-0.0881766
-0.108356
-0.078102
-0.108054
-0.103907
-0.0486683
-0.311024
-0.26932
-0.288339
-0.269673
-0.117464
-0.164318
-0.171773
-0.15212
-0.119832
-0.0810374
-0.0855625
-0.0964828
-0.0229978
0.0753256
-0.0980921
-0.0966937
-0.0969302
-0.0951479
-0.0918305
-0.0858603
-0.0822335
-0.0888231
-0.0882846
-0.0893804
-0.0902322
-0.112932
-0.0851964
-0.108593
-0.105
-0.0614268
-0.2989
-0.264314
-0.284964
-0.259453
-0.155326
-0.171364
-0.171132
-0.152259
-0.12437
-0.0941276
-0.0831445
-0.099463
-0.0770642
0.0710311
-0.106011
-0.103244
-0.102124
-0.0995288
-0.0961078
-0.0931648
-0.0918879
-0.0922922
-0.0907641
-0.0892619
-0.090562
-0.118028
-0.0923769
-0.109723
-0.107343
-0.0717455
-0.280762
-0.27228
-0.278269
-0.234757
-0.168975
-0.179406
-0.16993
-0.154134
-0.130182
-0.102395
-0.103822
-0.110122
-0.123785
-0.0854798
-0.114533
-0.110446
-0.108494
-0.105024
-0.101168
-0.0981815
-0.0966015
-0.0961526
-0.0955864
-0.0951136
-0.0955048
-0.12362
-0.0996251
-0.0950867
-0.10955
-0.0809077
-0.25114
-0.288233
-0.268061
-0.22683
-0.186577
-0.188485
-0.169814
-0.156831
-0.13373
-0.116295
-0.110344
-0.112234
-0.119851
-0.098117
-0.114103
-0.118381
-0.116374
-0.111857
-0.107293
-0.103877
-0.101796
-0.100671
-0.10003
-0.0997971
-0.100101
-0.129683
-0.107243
-0.111503
-0.112586
-0.0896234
-0.216455
-0.305595
-0.252425
-0.205179
-0.192765
-0.194643
-0.170275
-0.160314
-0.14529
-0.128535
-0.120181
-0.125833
-0.132249
-0.092715
-0.125998
-0.12948
-0.126718
-0.120209
-0.114385
-0.110266
-0.10766
-0.106141
-0.105345
-0.10508
-0.105224
-0.136208
-0.115171
-0.114232
-0.116627
-0.0989524
-0.187196
-0.320541
-0.23347
-0.183792
-0.195793
-0.196207
-0.171949
-0.165228
-0.154864
-0.140416
-0.128466
-0.13832
-0.142726
-0.12859
-0.140496
-0.129464
-0.138934
-0.129955
-0.122156
-0.117162
-0.114025
-0.112177
-0.111206
-0.110838
-0.11088
-0.143195
-0.123115
-0.117493
-0.121787
-0.109286
-0.170752
-0.331162
-0.218582
-0.172532
-0.195514
-0.196863
-0.177075
-0.171784
-0.164572
-0.15446
-0.136026
-0.15622
-0.164786
-0.15902
-0.155867
-0.154206
-0.118499
-0.133691
-0.128878
-0.123794
-0.12028
-0.118143
-0.117011
-0.116596
-0.116687
-0.150665
-0.131037
-0.119381
-0.128145
-0.120251
-0.167371
-0.335262
-0.21102
-0.171546
-0.194755
-0.19588
-0.182815
-0.180104
-0.174731
-0.173202
-0.0862624
-0.152283
-0.20309
-0.182086
-0.170862
-0.16298
-0.146361
-0.13651
-0.135244
-0.12946
-0.125392
-0.122912
-0.121605
-0.121212
-0.121636
-0.158664
-0.139577
-0.12759
-0.135338
-0.131581
-0.171902
-0.326285
-0.208045
-0.177054
-0.196216
-0.198067
-0.189948
-0.190577
-0.18792
-0.155957
-0.101649
-0.174752
-0.252692
-0.20844
-0.189855
-0.179813
-0.166884
-0.140904
-0.137752
-0.13229
-0.127818
-0.124836
-0.122904
-0.122212
-0.123111
-0.167235
-0.149462
-0.133519
-0.143125
-0.143049
-0.178761
-0.307316
-0.210725
-0.189711
-0.20145
-0.202751
-0.197898
-0.199842
-0.186729
-0.216076
-0.124795
-0.242587
-0.258429
-0.225045
-0.202577
-0.183885
-0.171778
-0.133201
-0.13695
-0.132461
-0.128461
-0.124643
-0.120831
-0.117167
-0.114023
-0.176371
-0.157969
-0.13988
-0.15193
-0.154701
-0.186393
-0.274877
-0.219145
-0.204615
-0.209715
-0.20857
-0.206209
-0.211085
-0.218961
-0.233269
-0.242143
-0.243829
-0.249829
-0.227689
-0.206371
-0.192151
-0.172022
-0.138356
-0.14483
-0.142149
-0.139187
-0.136915
-0.135938
-0.136616
-0.131819
-0.18614
-0.168153
-0.153022
-0.161018
-0.166507
-0.193695
-0.245524
-0.227989
-0.221866
-0.208276
-0.215336
-0.214551
-0.221799
-0.23633
-0.252693
-0.26189
-0.263086
-0.257382
-0.242932
-0.223999
-0.199951
-0.185384
-0.166163
-0.164851
-0.159953
-0.157037
-0.155572
-0.155346
-0.156217
-0.157894
-0.196614
-0.179253
-0.156945
-0.171233
-0.178493
-0.20111
-0.233334
-0.231814
-0.230247
-0.22583
-0.221421
-0.222218
-0.232189
-0.253699
-0.275895
-0.286012
-0.284081
-0.279358
-0.250661
-0.241906
-0.203892
-0.190016
-0.189313
-0.181789
-0.176217
-0.172116
-0.169004
-0.166772
-0.165448
-0.165107
-0.207817
-0.191194
-0.162803
-0.184048
-0.191139
-0.20933
-0.230302
-0.236381
-0.238774
-0.232349
-0.226727
-0.228081
-0.240111
-0.266441
-0.291485
-0.302659
-0.301278
-0.29479
-0.279441
-0.254012
-0.239727
-0.22462
-0.209151
-0.198023
-0.190082
-0.184161
-0.179679
-0.176799
-0.175437
-0.174847
-0.219741
-0.203974
-0.172577
-0.198492
-0.204322
-0.218399
-0.231569
-0.238921
-0.245847
-0.235995
-0.230461
-0.231445
-0.243402
-0.269818
-0.295634
-0.308183
-0.306576
-0.298091
-0.281677
-0.262403
-0.245708
-0.230649
-0.217789
-0.20764
-0.200091
-0.195016
-0.191609
-0.189419
-0.188232
-0.187705
-0.232423
-0.215405
-0.175759
-0.210862
-0.217991
-0.228465
-0.236803
-0.238796
-0.246621
-0.239029
-0.234171
-0.233624
-0.242393
-0.260941
-0.28639
-0.300032
-0.299452
-0.291093
-0.27782
-0.262748
-0.248355
-0.236059
-0.226339
-0.218763
-0.213004
-0.208993
-0.206358
-0.20472
-0.203748
-0.203205
-0.245961
-0.227752
-0.185385
-0.224341
-0.232321
-0.239725
-0.245099
-0.247332
-0.248237
-0.244341
-0.240167
-0.237743
-0.242364
-0.254075
-0.272396
-0.282341
-0.285163
-0.28231
-0.275434
-0.266343
-0.256909
-0.24809
-0.240366
-0.235908
-0.230613
-0.226804
-0.224612
-0.22277
-0.221638
-0.220848
-0.260516
-0.24408
-0.199571
-0.244765
-0.247779
-0.252395
-0.255819
-0.256935
-0.256367
-0.253754
-0.250183
-0.246969
-0.248083
-0.259121
-0.268609
-0.275028
-0.28043
-0.283201
-0.282493
-0.277187
-0.265866
-0.260846
-0.255754
-0.250899
-0.2467
-0.249201
-0.244225
-0.239879
-0.239458
-0.240406
-0.276412
-0.262011
-0.173692
-0.265716
-0.264081
-0.266503
-0.268434
-0.269038
-0.268368
-0.266599
-0.2642
-0.262644
-0.264687
-0.272891
-0.273693
-0.280952
-0.286681
-0.291441
-0.292666
-0.29096
-0.286374
-0.282235
-0.27818
-0.273987
-0.270599
-0.26808
-0.266817
-0.264769
-0.262986
-0.261569
-0.293663
-0.290161
-0.313593
-0.281015
-0.280996
-0.281994
-0.282733
-0.282978
-0.282622
-0.281771
-0.280666
-0.280238
-0.282027
-0.287375
-0.273482
-0.296755
-0.293753
-0.294302
-0.294269
-0.293464
-0.292991
-0.290812
-0.289594
-0.2874
-0.285942
-0.284696
-0.283661
-0.282781
-0.282038
-0.281419
-0.0618611
-0.0679597
-0.0739549
-0.0782455
-0.0779219
-0.0727513
-0.064797
-0.0652949
-0.0618979
-0.059289
-0.0512312
-0.0556078
-0.0462841
-0.0362095
-0.0689224
-0.0766128
-0.285386
4.19604
9.85203
11.3643
14.7585
12.0423
-3.53737
-0.304756
0.086494
-0.257313
-0.146419
-0.157545
-0.18885
0.971856
-0.0640191
-0.0706621
-0.0776422
-0.0831712
-0.0836224
-0.0786634
-0.0721992
-0.0697134
-0.0638685
-0.0622104
-0.0517085
-0.0598009
-0.0532798
-0.0371794
-0.0705744
-0.0739224
-1.03368
2.99474
8.37597
9.84594
13.5348
10.8079
-7.49169
-0.203765
0.0442569
-0.26547
-0.151696
-0.157386
-0.189679
0.0301768
-0.0674694
-0.0749958
-0.0833128
-0.0900852
-0.0912594
-0.0863873
-0.0773655
-0.0726229
-0.0679171
-0.0649747
-0.0625056
-0.0668676
-0.0592634
-0.0374059
-0.0798635
-0.085801
-0.132806
-4.16323
6.93952
8.31468
11.9216
9.09667
-2.81131
-0.223541
-0.00139702
-0.2728
-0.155338
-0.157065
-0.188108
0.0240286
-0.0724678
-0.0807756
-0.0900249
-0.0972185
-0.0979059
-0.0913442
-0.0823093
-0.0756
-0.0714257
-0.0668735
-0.0650897
-0.0648578
-0.071789
-0.0443031
-0.0870927
-0.0909279
-0.0961371
-0.0253817
4.46187
6.8981
9.2851
1.59539
-0.296807
-0.217178
-0.0431475
-0.278763
-0.158422
-0.156827
-0.184644
0.0151285
-0.0784544
-0.0869814
-0.0961738
-0.102803
-0.102604
-0.095233
-0.0857224
-0.0784985
-0.0533422
-0.0688541
-0.0663655
-0.0772378
-0.0771397
-0.0476311
-0.0903267
0.0330566
-0.0659105
0.00258256
-0.942841
5.20966
7.17594
-4.15148
-0.340464
-0.210505
-0.0796056
-0.282897
-0.161452
-0.156811
-0.180413
0.00575847
-0.0838901
-0.0918686
-0.099988
-0.105316
-0.10438
-0.0971807
-0.0880754
-0.0807705
-0.0743446
-0.0713048
-0.0672672
-0.0814742
-0.0807459
-0.0549816
-0.0844119
-0.102454
-0.0536064
-0.0120467
-0.147523
0.95031
4.06598
0.0572485
-0.346065
-0.208073
-0.104873
-0.285103
-0.164586
-0.157065
-0.176121
-0.00397109
-0.0872737
-0.094007
-0.100469
-0.104363
-0.103269
-0.0972222
-0.0894581
-0.0825677
-0.0754476
-0.0544097
-0.068975
-0.0830522
-0.0835409
-0.0637859
-0.0925228
-0.0948809
-0.0499635
-0.0323514
-0.124698
-0.0438378
0.0946266
-0.0610349
-0.352325
-0.200984
-0.116551
-0.283447
-0.167441
-0.157376
-0.172137
-0.0140931
-0.0886153
-0.0936779
-0.0984599
-0.101305
-0.10065
-0.0964022
-0.0904577
-0.0844965
-0.0791499
-0.066929
-0.0759065
-0.0824674
-0.0854305
-0.0728605
-0.0908959
-0.0914069
-0.0664913
-0.0235656
-0.106748
-0.0471757
-0.0120277
-0.107833
-0.353885
-0.194267
-0.115443
-0.274904
-0.169189
-0.157835
-0.16872
-0.0246462
-0.089231
-0.0927311
-0.0961598
-0.0981414
-0.0981525
-0.0958762
-0.0917465
-0.086767
-0.0805954
-0.0715023
-0.0545879
-0.0844634
-0.0877089
-0.0815478
-0.0919694
-0.0917544
-0.0693916
-0.0609611
-0.0942208
-0.0504876
-0.0408849
-0.120356
-0.343611
-0.18841
-0.103419
-0.256248
-0.16941
-0.158446
-0.166001
-0.0356472
-0.0900791
-0.0925104
-0.0950559
-0.0968458
-0.0974495
-0.0963185
-0.0936945
-0.0895714
-0.0839233
-0.0758892
-0.042089
-0.0913868
-0.0910842
-0.0893233
-0.0949785
-0.0941849
-0.0772508
-0.0702005
-0.0859243
-0.0540211
-0.046562
-0.132229
-0.325807
-0.183968
-0.0891127
-0.233446
-0.168901
-0.159245
-0.164053
-0.0470705
-0.0911013
-0.0932404
-0.0952144
-0.0970401
-0.0979401
-0.0976355
-0.0961908
-0.092116
-0.0894411
-0.0854115
-0.0772108
-0.0912941
-0.0945555
-0.095516
-0.0986349
-0.0980731
-0.0854511
-0.07804
-0.081876
-0.0545416
-0.0755291
-0.141284
-0.302046
-0.183531
-0.0895783
-0.21516
-0.16831
-0.160279
-0.162903
-0.0588687
-0.0918738
-0.0933389
-0.0951742
-0.098429
-0.099457
-0.0994535
-0.0985886
-0.09682
-0.0955626
-0.0804681
-0.0823352
-0.0914804
-0.0846616
-0.102179
-0.102789
-0.103428
-0.0947667
-0.0877083
-0.0810553
-0.068634
-0.0748327
-0.14519
-0.276458
-0.191518
-0.0971846
-0.201366
-0.167942
-0.161606
-0.162556
-0.070964
-0.0964176
-0.0956699
-0.0972128
-0.10062
-0.101461
-0.101251
-0.1012
-0.101192
-0.0999216
-0.10019
-0.0941866
-0.0974348
-0.0882698
-0.105555
-0.107394
-0.10834
-0.105062
-0.0959458
-0.0822161
-0.0544503
-0.0835696
-0.133696
-0.24837
-0.20555
-0.101639
-0.1916
-0.167815
-0.163275
-0.16299
-0.0832673
-0.100808
-0.101813
-0.1028
-0.103615
-0.104288
-0.104771
-0.104893
-0.104515
-0.102702
-0.10405
-0.102766
-0.0976422
-0.0915001
-0.11002
-0.113534
-0.117087
-0.116487
-0.10539
-0.08424
-0.0580923
-0.0907276
-0.13899
-0.222837
-0.229888
-0.10659
-0.185492
-0.168086
-0.165338
-0.164178
-0.0956692
-0.105635
-0.106239
-0.10695
-0.107649
-0.108225
-0.108556
-0.108539
-0.108094
-0.107364
-0.106232
-0.106741
-0.105137
-0.100821
-0.114217
-0.120718
-0.127986
-0.130484
-0.117292
-0.0845254
-0.0661782
-0.100353
-0.13645
-0.19735
-0.236041
-0.117514
-0.181867
-0.168966
-0.16784
-0.166087
-0.108046
-0.111181
-0.111672
-0.112299
-0.11292
-0.113353
-0.113437
-0.113069
-0.112213
-0.110956
-0.10985
-0.109562
-0.111543
-0.114509
-0.119339
-0.129124
-0.141436
-0.148408
-0.129303
-0.0905219
-0.0906925
-0.107643
-0.144148
-0.185235
-0.236563
-0.132299
-0.180408
-0.170604
-0.170827
-0.168689
-0.120269
-0.11712
-0.117821
-0.118698
-0.119451
-0.119748
-0.119443
-0.118543
-0.11713
-0.115428
-0.113813
-0.113077
-0.114339
-0.118148
-0.124645
-0.138267
-0.148827
-0.168386
-0.157169
-0.0995605
-0.106496
-0.114363
-0.150325
-0.192656
-0.233787
-0.147807
-0.180776
-0.173085
-0.174341
-0.171956
-0.132233
-0.12274
-0.124471
-0.126632
-0.127976
-0.12786
-0.126744
-0.124881
-0.122467
-0.119854
-0.118665
-0.117632
-0.118801
-0.122507
-0.128909
-0.138602
-0.176564
-0.183962
-0.176021
-0.0992744
-0.120906
-0.128504
-0.155713
-0.182572
-0.227669
-0.162354
-0.1827
-0.17648
-0.178421
-0.175876
-0.143852
-0.126346
-0.13181
-0.140587
-0.140904
-0.13931
-0.135418
-0.131563
-0.128902
-0.12557
-0.124881
-0.123813
-0.124705
-0.127971