/*--------------------------------*- C++ -*----------------------------------*\
| =========                 |                                                 |
| \\      /  F ield         | OpenFOAM: The Open Source CFD Toolbox           |
|  \\    /   O peration     | Version:  2.4.0                                 |
|   \\  /    A nd           | Web:      www.OpenFOAM.org                      |
|    \\/     M anipulation  |                                                 |
\*---------------------------------------------------------------------------*/
FoamFile
{
    version     2.0;
    format      ascii;
    class       volScalarField;
    location    "0.025";
    object      alpha.water;
}
// * * * * * * * * * * * * * * * * * * * * * * * * * * * * * * * * * * * * * //

dimensions      [0 0 0 0 0 0 0];

internalField   nonuniform List<scalar> 
57600
(
1
1
1
1
1
1
1
1
1
1
1
1
1
1
1
1
1
1
1
1
1
1
1
1
1
1
1
1
1
1
1
1
1
1
1
1
1
1
1
1
1
1
1
1
1
1
1
1
1
1
1
1
1
1
1
1
1
1
1
1
1
1
1
1
1
1
1
1
1
1
1
1
1
1
1
1
1
1
1
1
1
1
1
1
1
1
1
1
1
1
1
1
1
1
1
1
1
1
1
1
1
1
1
1
1
1
1
1
1
1
1
1
1
1
1
1
1
1
1
1
1
1
1
1
1
1
1
1
1
1
1
1
1
1
1
1
1
1
1
1
1
1
1
1
1
1
1
1
1
1
1
1
1
1
1
1
1
1
1
1
1
1
1
1
1
1
1
1
1
1
1
1
1
1
1
1
1
1
1
1
1
1
1
1
1
1
1
1
1
1
1
1
1
1
1
1
1
1
1
1
1
1
1
1
1
1
1
1
1
1
1
1
1
1
1
1
1
1
1
1
1
1
1
1
1
1
1
1
1
1
1
1
1
1
1
1
1
1
1
1
1
1
1
1
1
1
1
1
1
1
1
1
1
1
1
1
1
1
1
1
1
1
1
1
1
1
1
1
1
1
1
1
1
1
1
1
1
1
1
1
1
1
1
1
1
1
1
1
1
1
1
1
1
1
1
1
1
1
1
1
1
1
1
1
1
1
1
1
1
1
1
1
1
1
1
1
1
1
1
1
1
1
1
1
1
1
1
1
0.999958
0.997389
1
1
1
1
1
1
1
1
1
1
1
1
1
1
1
1
1
1
1
1
1
1
1
1
1
1
1
1
0.999893
0.992859
1
1
1
1
1
1
1
1
1
1
1
1
1
1
1
1
1
1
1
1
1
1
1
1
1
1
1
1
1
0.999045
1
1
1
1
1
1
1
1
1
1
1
1
1
1
1
1
1
1
1
1
1
1
1
1
0.999998
0.857795
0.661627
0.661481
0.731942
0.782225
1
1
1
1
1
1
1
1
1
1
1
1
1
1
1
1
1
1
1
1
1
1
0.99999
0.00607501
4.93724e-10
4.16661e-09
4.04344e-07
-1.01593e-08
-1.69059e-07
1.75665e-09
1
1
1
1
1
1
1
1
1
1
1
1
1
1
1
1
1
1
1
1
1
0.905364
7.57586e-06
2.45653e-05
6.03045e-09
8.80749e-09
1.05951e-05
8.0385e-08
-4.86359e-08
2.57092e-06
1
1
1
1
1
1
1
1
1
1
1
1
1
1
1
1
1
1
1
1
0.919765
2.53913e-06
7.91756e-08
9.15758e-08
1.22981e-05
8.73438e-08
1.14925e-05
2.64044e-09
9.2822e-08
2.26443e-08
1
1
1
1
1
1
1
1
1
1
1
1
1
1
1
1
1
1
1
0.999993
1.21736e-05
5.44579e-08
8.18616e-08
1.02568e-07
1.34501e-07
9.85306e-06
4.26717e-09
1.44868e-09
2.63089e-09
3.20431e-09
1
1
1
1
1
1
1
1
1
1
1
1
1
1
1
1
1
1
1
0.000142985
6.22388e-08
5.31954e-08
2.11784e-05
6.97636e-05
6.92092e-05
1.32789e-08
1.71153e-08
1.01362e-09
7.56251e-10
1.97735e-10
1
1
1
1
1
1
1
1
1
1
1
1
1
1
1
1
1
1
0.976718
6.98842e-07
2.20007e-08
5.45147e-08
2.04576e-08
1.62414e-08
1.31994e-08
3.76598e-09
2.11418e-10
5.54783e-10
3.96712e-10
4.08434e-11
1
1
1
1
1
1
1
1
1
1
1
1
1
1
1
1
1
1
0.000293242
3.40154e-09
1.8765e-06
4.78618e-06
2.49309e-09
5.62568e-09
9.00389e-10
4.50836e-11
1.42259e-10
2.96127e-10
1.113e-10
-3.61199e-12
1
1
1
1
1
1
1
1
1
1
1
1
1
1
1
1
1
0.983184
3.80219e-06
3.2562e-10
5.38547e-10
5.47264e-10
4.19993e-10
1.62099e-10
1.30566e-11
2.79868e-11
6.48399e-11
7.98728e-11
2.0733e-11
-5.75197e-12
1
1
1
1
1
1
1
1
1
1
1
1
1
1
1
1
1
0.0812937
0.00123611
1.00235e-10
2.31384e-11
6.16323e-12
2.41394e-12
2.09343e-12
4.04885e-12
8.7137e-12
1.44881e-11
1.15254e-11
3.03224e-12
-1.89788e-12
1
1
1
1
1
1
1
1
1
1
1
1
1
1
1
1
1
3.29194e-05
8.52268e-11
5.48265e-11
7.94485e-12
1.18177e-12
2.11575e-13
2.87978e-13
6.75791e-13
1.34408e-12
1.76263e-12
1.16674e-12
2.75091e-13
-3.43412e-13
1
1
1
1
1
1
1
1
1
1
1
1
1
1
1
1
0.999995
2.84747e-07
3.59511e-05
3.14679e-11
3.46924e-12
3.33196e-13
2.83886e-14
2.52942e-14
6.23434e-14
1.18704e-13
1.38769e-13
8.58163e-14
1.26251e-14
-3.92922e-14
1
1
1
1
1
1
1
1
1
1
1
1
1
1
1
1
0.987468
9.81566e-08
2.88768e-10
1.93958e-11
1.77005e-12
9.73741e-14
4.25405e-15
1.33597e-15
3.40779e-15
6.63835e-15
7.57452e-15
4.352e-15
7.80248e-18
-2.9511e-15
1
1
1
1
1
1
1
1
1
1
1
1
1
1
1
1
0.25521
1.4823e-07
2.95438e-10
1.22225e-11
1.20516e-12
4.15781e-14
8.97724e-16
5.1894e-17
1.143e-16
2.38157e-16
2.79022e-16
1.47207e-16
-3.13127e-17
-1.46115e-16
1
1
1
1
1
1
1
1
1
1
1
1
1
1
1
1
0.0614473
9.81033e-05
2.7732e-05
-2.01828e-11
1.04569e-12
2.73332e-14
3.74539e-16
4.06335e-18
2.29988e-18
5.20641e-18
6.44924e-18
3.16591e-18
-1.7177e-18
-4.72089e-18
1
1
1
1
1
1
1
1
1
1
1
1
1
1
1
1
0.0174066
2.54159e-06
0.000206777
-1.57703e-10
1.0086e-12
2.22088e-14
2.47034e-16
1.69348e-18
3.17361e-20
6.37419e-20
8.54124e-20
3.9131e-20
-4.54651e-20
-9.74067e-20
1
1
1
1
1
1
1
1
1
1
1
1
1
1
1
1
1.06255e-06
1.21093e-06
3.60428e-05
-1.85794e-10
9.41051e-13
1.83305e-14
1.84457e-16
1.14567e-18
3.93407e-21
3.92147e-22
5.73432e-22
2.24589e-22
-6.54083e-22
-1.22896e-21
1
1
1
1
1
1
1
1
1
1
1
1
1
1
1
1
1
1
1
1
1
1
1
1
1
1
1
1
1
1
1
1
1
1
1
1
1
1
1
1
1
1
1
1
1
1
1
1
1
1
1
1
1
1
1
1
1
1
1
1
1
1
1
1
1
1
1
1
1
1
1
1
1
1
1
1
1
1
1
1
1
1
1
1
1
1
1
1
1
1
1
1
1
1
1
1
1
1
1
1
1
1
1
1
1
1
1
1
1
1
1
1
1
1
1
1
1
1
1
1
1
1
1
1
1
1
1
1
1
1
1
1
1
1
1
1
1
1
1
1
1
1
1
1
1
1
1
1
1
1
1
1
1
1
1
1
1
1
1
1
1
1
1
1
1
1
1
1
1
1
1
1
1
1
1
1
1
1
1
1
1
1
1
1
1
1
1
1
1
1
1
1
1
1
1
1
1
1
1
1
1
1
1
1
1
1
1
1
1
1
1
1
1
1
1
1
1
1
1
1
1
1
1
1
1
1
1
1
1
1
1
1
1
1
1
1
1
1
1
1
1
1
1
1
1
1
1
1
1
1
1
1
1
1
1
1
1
1
1
1
1
1
1
1
1
1
1
1
1
1
1
1
1
1
1
1
1
1
1
1
1
1
1
1
1
1
1
1
1
1
1
1
1
1
1
1
1
1
1
1
0.984574
0.999999
1
1
1
1
1
1
1
1
1
1
1
1
1
1
1
1
1
1
1
1
1
1
1
1
1
1
1
1
0.997764
0.999888
1
1
1
1
1
1
1
1
1
1
1
1
1
1
1
1
1
1
1
1
1
1
1
1
1
1
1
1
0.999994
1
1
1
1
1
1
1
1
1
1
1
1
1
1
1
1
1
1
1
1
1
1
1
1
1
1
1
1
1
0.77846
0.741658
0.659214
0.591807
0.708194
0.986368
0.999999
1
1
1
1
1
1
1
1
1
1
1
1
1
1
1
1
1
1
1
1
1
1
1
5.99597e-09
1.47444e-09
1.36188e-07
3.79196e-09
1.48315e-05
4.70408e-06
3.03443e-06
0.812049
1
1
1
1
1
1
1
1
1
1
1
1
1
1
1
1
1
1
1
1
1
1
2.99352e-06
1.70575e-09
1.2685e-08
4.04817e-09
1.52876e-05
5.58445e-08
2.93186e-07
2.30538e-06
0.204153
1
1
1
1
1
1
1
1
1
1
1
1
1
1
1
1
1
1
1
1
1
-8.87933e-11
3.00793e-09
2.22404e-09
3.59247e-09
7.23211e-06
7.98535e-07
1.04522e-07
3.23957e-08
1.5021e-06
0.298945
1
1
1
1
1
1
1
1
1
1
1
1
1
1
1
1
1
1
1
1
-1.00619e-10
2.56636e-10
1.45999e-09
7.71883e-09
5.54255e-07
1.33934e-06
4.36887e-07
3.27283e-08
1.50902e-08
6.76603e-07
0.904591
1
1
1
1
1
1
1
1
1
1
1
1
1
1
1
1
1
1
1
-6.66178e-11
9.07454e-11
1.02692e-09
3.41636e-09
2.80095e-08
1.81812e-05
6.04303e-05
4.45188e-05
1.49836e-08
1.49934e-08
6.69266e-06
1
1
1
1
1
1
1
1
1
1
1
1
1
1
1
1
1
1
1
-3.78943e-11
4.86061e-11
6.28384e-10
2.7081e-10
1.15183e-09
1.40206e-08
2.31668e-06
4.07215e-08
6.5515e-07
1.50969e-08
1.74137e-07
0.154332
1
1
1
1
1
1
1
1
1
1
1
1
1
1
1
1
1
1
-2.0535e-11
1.55241e-11
2.16297e-10
1.76093e-10
5.7314e-11
3.96296e-10
4.16388e-09
1.3965e-09
4.37429e-06
4.37499e-06
2.59007e-09
1.17991e-05
0.999999
1
1
1
1
1
1
1
1
1
1
1
1
1
1
1
1
1
-7.88149e-12
2.6731e-12
4.31372e-11
6.37478e-11
3.36534e-11
1.51062e-11
1.20137e-10
4.81207e-10
1.43313e-09
4.78277e-11
7.69448e-10
7.34321e-05
0.0973627
1
1
1
1
1
1
1
1
1
1
1
1
1
1
1
1
1
-1.97888e-12
5.12483e-14
6.30961e-12
1.10918e-11
9.05163e-12
4.93247e-12
2.73085e-12
3.71396e-12
9.90158e-12
2.98824e-11
2.83448e-10
9.08561e-10
4.24282e-05
1
1
1
1
1
1
1
1
1
1
1
1
1
1
1
1
1
-3.27771e-13
-6.56086e-14
6.72668e-13
1.19586e-12
1.23567e-12
7.75387e-13
3.84569e-13
2.72259e-13
1.34872e-12
1.95525e-11
1.83705e-10
5.6928e-10
3.11095e-06
1
1
1
1
1
1
1
1
1
1
1
1
1
1
1
1
1
-3.63129e-14
-1.30457e-14
4.99759e-14
9.50437e-14
1.04362e-13
6.7678e-14
3.20052e-14
3.21287e-14
3.54464e-13
4.76661e-12
1.12098e-10
3.39985e-10
0.000314252
0.787198
1
1
1
1
1
1
1
1
1
1
1
1
1
1
1
1
-2.70559e-15
-1.26262e-15
2.49429e-15
5.46407e-15
5.94348e-15
3.63468e-15
1.5924e-15
3.86322e-15
7.96962e-14
1.36343e-12
2.00167e-11
1.16255e-10
2.99602e-08
0.206613
1
1
1
1
1
1
1
1
1
1
1
1
1
1
1
1
-1.34984e-16
-7.19026e-17
8.37205e-17
2.12822e-16
2.21348e-16
1.22159e-16
5.47744e-17
5.99731e-16
2.42408e-14
6.87933e-13
1.02165e-11
1.28888e-10
2.32078e-06
1.45173e-06
1
1
1
1
1
1
1
1
1
1
1
1
1
1
1
1
-4.43753e-18
-2.51904e-18
1.85363e-18
5.2251e-18
5.01699e-18
2.45814e-18
2.77055e-18
1.91483e-16
1.23146e-14
4.41786e-13
7.46036e-12
1.17712e-06
3.52047e-05
1.02398e-05
1
1
1
1
1
1
1
1
1
1
1
1
1
1
1
1
-9.32972e-20
-5.44158e-20
2.46997e-20
7.4215e-20
6.37234e-20
3.0606e-20
8.3393e-19
1.06883e-16
7.93097e-15
3.30773e-13
6.05651e-12
3.93412e-10
3.58527e-07
2.69879e-07
1
1
1
1
1
1
1
1
1
1
1
1
1
1
1
1
-1.19225e-21
-7.00216e-22
1.61507e-22
5.41146e-22
4.06028e-22
1.86789e-21
4.83706e-19
6.96616e-17
6.01409e-15
3.26845e-13
6.77221e-12
1.29314e-11
2.53035e-05
7.26861e-07
0.999999
1
1
1
1
1
1
1
1
1
1
1
1
1
1
1
3.99314e-09
0.00616558
0.103224
0.542658
1
1
1
1
1
1
1
1
1
1
1
1
0.00011845
2.48e-05
2.1767e-06
-6.47571e-11
9.79921e-13
1.57093e-14
1.42456e-16
8.37662e-19
2.61021e-21
6.31114e-24
4.14765e-24
8.26912e-25
-1.06837e-23
-1.89412e-23
9.86885e-14
1.02641e-10
4.8176e-10
7.33715e-10
2.09132e-09
4.75809e-06
1
1
1
1
1
1
1
1
1
0.999999
1.25624e-06
7.57534e-09
1.70115e-06
-9.59772e-12
1.13209e-12
1.56441e-14
1.23699e-16
6.92262e-19
2.0896e-21
3.19827e-24
4.46298e-25
3.45698e-26
-1.50902e-24
-2.64259e-24
5.00272e-19
6.41238e-15
1.92267e-13
1.17366e-11
1.89302e-10
1.64875e-09
2.49779e-09
0.377449
1
1
1
1
1
1
1
0.999999
1.31994e-05
7.68531e-06
7.07733e-10
1.50284e-11
1.36932e-12
1.68884e-14
1.09778e-16
5.63257e-19
1.6379e-21
2.25307e-24
3.78993e-26
-4.14542e-27
-1.69692e-25
-2.93883e-25
4.44244e-26
3.1936e-20
1.08779e-17
6.93357e-15
1.11755e-12
3.79109e-11
5.9174e-10
1.81305e-09
0.120778
1
1
1
1
1
1
0.999997
6.81075e-07
1.56834e-06
7.81324e-10
2.60186e-11
1.60413e-12
1.89404e-14
1.01219e-16
4.53956e-19
1.2587e-21
1.667e-24
3.17341e-27
-9.44206e-28
-1.47532e-26
-2.53202e-26
6.46595e-34
4.52143e-26
2.5535e-22
1.5246e-18
1.77161e-15
4.10046e-13
3.00932e-11
5.33145e-10
1.62867e-09
0.551546
1
1
1
1
1
0.999983
8.61508e-08
1.14188e-05
2.75547e-07
3.48032e-11
1.69355e-12
2.04365e-14
9.59089e-17
3.64453e-19
9.49049e-22
1.22082e-24
7.72834e-28
-9.07044e-29
-9.4726e-28
-1.61495e-27
1.49053e-40
4.36508e-32
4.31688e-27
2.11133e-22
1.58129e-18
2.47448e-15
7.98984e-13
8.37397e-11
5.2725e-08
1.05688e-06
0.995912
1
1
1
1
0.963878
1.09182e-08
1.80584e-09
8.6372e-10
3.97469e-11
1.5275e-12
1.97203e-14
8.90659e-17
2.90589e-19
6.99699e-22
8.75225e-25
4.83114e-28
-5.04978e-30
-4.2825e-29
-7.27308e-29
8.56607e-47
6.65357e-38
9.59073e-32
2.97068e-26
1.40686e-21
1.25288e-17
1.99317e-14
4.18509e-11
2.7596e-05
7.67547e-07
8.06717e-06
1
1
1
1
0.826178
1.6509e-06
2.85664e-09
4.54805e-10
2.84391e-11
1.13329e-12
1.61042e-14
7.58601e-17
2.24636e-19
4.96622e-22
6.02872e-25
3.29066e-28
-1.08222e-31
-1.28136e-30
-2.17491e-30
2.90463e-52
4.40345e-43
4.70128e-36
7.54461e-30
2.02707e-24
1.01292e-19
2.71527e-15
1.98165e-11
7.14297e-10
1.33557e-06
3.8333e-06
0.165771
1
1
1
0.590988
1.95414e-05
5.3201e-08
1.5578e-10
1.24808e-11
6.73198e-13
1.06958e-14
5.57205e-17
1.60876e-19
3.29001e-22
3.85258e-25
2.09246e-28
4.0259e-32
-2.32718e-32
-3.96314e-32
2.0049e-56
2.82452e-47
1.66974e-39
2.50828e-32
7.89151e-26
4.32422e-20
4.75644e-15
5.48599e-11
1.01716e-06
0.000113786
0.000396714
9.59691e-05
1
1
1
0.238758
5.95433e-05
1.35907e-10
4.58694e-11
5.13117e-12
3.15173e-13
5.62536e-15
3.36962e-17
1.01121e-19
1.95152e-22
2.18433e-25
1.17363e-28
2.4816e-32
-2.26437e-34
-3.91127e-34
4.13686e-57
3.85276e-48
7.01527e-40
2.23705e-32
1.01984e-25
5.99848e-20
4.3947e-15
4.59907e-11
2.56751e-09
2.60515e-05
0.000148605
0.000146929
0.998858
1
1
0.0177101
1.77922e-05
1.90515e-10
2.80773e-11
2.01864e-12
1.1638e-13
2.31556e-15
1.62756e-17
5.30616e-20
9.91305e-23
1.05114e-25
5.51433e-29
1.17396e-32
-2.70926e-37
-1.76594e-36
8.64842e-58
1.25392e-48
2.90464e-40
1.19158e-32
6.88105e-26
4.70913e-20
3.02364e-15
1.43177e-11
4.70223e-07
4.71163e-05
7.75298e-06
5.53698e-05
0.693764
1
1
2.08634e-06
1.26982e-09
9.38069e-11
1.63001e-11
7.78292e-13
3.4762e-14
7.48048e-16
6.1584e-18
2.22607e-20
4.12588e-23
4.12602e-26
2.07493e-29
4.37307e-33
2.82069e-37
-2.75203e-39
1.00761e-58
1.90455e-49
5.32962e-41
2.83186e-33
2.25799e-26
2.22934e-20
1.995e-15
9.62151e-12
1.17471e-09
6.82733e-06
5.86915e-05
0.000110423
0.000262336
0.999999
0.999999
8.08792e-07
4.89812e-06
6.62447e-11
8.78175e-12
3.19726e-13
8.94172e-15
1.91338e-16
1.79271e-18
7.17269e-21
1.34599e-23
1.2748e-26
6.02788e-30
1.2286e-33
7.97896e-38
2.61523e-44
9.27453e-60
1.76312e-50
4.96382e-42
2.94824e-34
2.95152e-27
4.16767e-21
6.25917e-16
5.54989e-12
5.13395e-10
4.07594e-07
4.59301e-05
8.72051e-07
5.698e-06
1
0.999964
3.57288e-07
4.39115e-09
2.90395e-11
3.65123e-12
1.2145e-13
2.13459e-15
3.88115e-17
3.90505e-19
1.70085e-21
3.28232e-24
2.98871e-27
1.3125e-30
2.51136e-34
1.58463e-38
1.79402e-43
6.59228e-61
1.38088e-51
3.57764e-43
1.98289e-35
2.0395e-28
3.34017e-22
6.71991e-17
1.02251e-12
3.96991e-10
2.2611e-07
1.32956e-05
4.43411e-10
4.66779e-10
0.99992
0.82464
5.48074e-11
6.02976e-10
9.68365e-12
8.98832e-13
3.2099e-14
4.55532e-16
6.1765e-18
6.11845e-20
2.82509e-22
5.66338e-25
5.07387e-28
2.07718e-31
3.63161e-35
2.13562e-39
2.3536e-44
2.75884e-62
7.79516e-53
2.13621e-44
1.14245e-36
1.08554e-29
1.73154e-23
3.89422e-18
8.28051e-14
7.83068e-11
6.08971e-10
1.00983e-09
5.534e-10
4.32774e-07
0.999867
3.53297e-06
-6.83865e-09
5.10521e-11
2.13232e-12
1.29353e-13
4.94815e-15
7.28317e-17
7.49655e-19
6.59711e-21
3.10321e-23
6.46147e-26
5.8262e-29
2.27227e-32
3.60503e-36
1.89662e-40
1.91656e-45
5.95324e-64
2.46901e-54
8.05514e-46
4.85602e-38
4.78573e-31
7.30188e-25
1.59021e-19
3.87998e-15
6.01033e-12
1.95239e-10
2.60691e-10
4.4387e-07
0.010003
0.99886
1.8276e-11
-6.62414e-10
2.95347e-11
2.86444e-12
4.97721e-14
5.27276e-16
7.6986e-18
6.63763e-20
4.66409e-22
2.08998e-24
4.42995e-27
4.05558e-30
1.54583e-33
2.26978e-37
1.05367e-41
9.21641e-47
6.35599e-66
3.97457e-56
1.61412e-47
1.19259e-39
1.39826e-32
2.38009e-26
5.32826e-21
1.33516e-16
2.6186e-13
1.74572e-11
1.84248e-10
9.29337e-06
0.998124
0.947001
-6.52307e-07
1.37398e-10
4.99119e-11
5.85945e-12
1.16567e-13
3.57324e-16
7.27966e-19
4.31747e-21
2.12437e-23
7.86622e-26
1.59188e-28
1.44837e-31
5.42655e-35
7.52717e-39
3.11727e-43
2.28495e-48
3.27436e-68
3.14424e-58
1.62116e-49
1.51418e-41
2.24317e-34
4.78255e-28
1.30464e-22
3.852e-18
9.61783e-15
2.76844e-12
2.5763e-10
0.000245705
0.99741
0.522895
-2.26593e-07
1.70361e-10
7.05995e-11
8.82923e-12
2.39675e-13
1.06266e-15
8.26234e-19
3.49472e-22
7.00647e-25
1.63278e-27
2.64859e-30
2.20786e-33
7.85288e-37
1.01878e-40
3.74857e-45
2.22643e-50
7.88447e-71
1.19309e-60
7.96459e-52
9.59015e-44
1.84295e-36
5.17459e-30
1.90913e-24
8.05196e-20
4.18436e-16
2.46731e-12
2.33381e-10
0.027675
0.996625
0.432359
9.26167e-09
2.47027e-10
1.74728e-10
2.4047e-11
6.04171e-13
2.7019e-15
3.06424e-18
7.80787e-22
7.24886e-26
2.40312e-29
2.05438e-32
1.24582e-35
3.74811e-39
4.26442e-43
1.33294e-47
6.08854e-53
8.90037e-74
2.16487e-63
1.93728e-54
3.12401e-46
8.17321e-39
3.27358e-32
1.95757e-26
2.07466e-21
9.30033e-17
1.84989e-12
1.45368e-10
5.27568e-05
0.997242
0.0847963
4.17614e-06
7.86121e-10
1.29201e-09
1.92257e-10
9.7723e-12
1.78562e-14
1.11573e-17
3.58587e-21
3.54637e-25
1.15011e-29
2.32806e-34
2.7467e-38
4.2621e-42
3.16376e-46
6.79048e-51
1.89557e-56
6.25543e-77
2.41747e-66
3.28139e-57
8.31162e-49
3.65599e-41
2.78726e-34
3.94461e-28
1.27058e-22
1.31033e-17
3.44535e-13
1.75273e-10
7.99574e-05
2.59549e-07
3.22298e-05
5.24954e-08
0.00016385
0.000170344
1.25489e-08
1.43546e-10
5.94657e-13
2.28607e-16
2.64109e-20
2.44065e-24
1.16198e-28
1.98367e-33
1.11039e-38
2.00474e-44
7.04793e-50
5.01147e-55
9.24829e-61
3.13038e-80
2.30555e-69
5.25514e-60
2.24877e-51
1.68868e-43
2.23113e-36
5.52214e-30
2.987e-24
4.4857e-19
1.69363e-14
3.92965e-11
7.33513e-10
1.02692e-09
1.51714e-07
3.06268e-05
5.84048e-08
6.2952e-08
0.000175664
1.1414e-09
1.43122e-11
1.47866e-14
2.16347e-18
7.53743e-23
1.86219e-27
5.29951e-32
5.63748e-37
1.57639e-42
8.53617e-49
4.21459e-56
2.52933e-61
5.35138e-84
8.83023e-73
3.1948e-63
2.12042e-54
2.43937e-46
4.93662e-39
1.88265e-32
1.54458e-26
3.24041e-21
1.6815e-16
1.52287e-12
1.98381e-10
3.52896e-10
3.55322e-06
1.56884e-07
9.9955e-08
3.80596e-05
3.29007e-06
6.22207e-10
6.81092e-11
1.97261e-13
7.21867e-17
4.94303e-21
5.72899e-26
-3.31392e-31
4.08959e-36
7.20962e-41
1.18188e-46
1.95583e-53
6.30724e-62
2.20122e-88
8.54886e-77
4.89048e-67
4.96897e-58
8.57337e-50
2.57937e-42
1.45754e-35
1.73826e-29
4.96682e-24
3.57396e-19
1.07206e-14
8.59494e-12
4.26928e-11
1.988e-11
4.0317e-08
2.24764e-07
1.88176e-05
1.52183e-05
1.73568e-10
1.75921e-11
5.83191e-14
3.62247e-17
4.96207e-21
1.19968e-25
-3.58261e-30
-1.02159e-34
-5.47063e-40
-6.30935e-46
-8.99508e-53
9.04246e-62
2.08966e-93
2.02084e-81
1.89333e-71
3.00672e-62
7.82818e-54
3.46718e-46
2.82717e-39
4.72079e-33
1.78624e-27
2.2381e-22
1.60209e-17
3.87358e-14
8.02609e-13
6.87543e-13
2.4622e-09
1.13646e-10
2.94274e-10
1.11765e-10
6.02019e-12
6.41679e-14
1.60682e-16
1.09983e-19
2.29802e-23
1.47901e-27
1.91007e-32
-4.27258e-37
-7.3978e-42
-2.4267e-47
-1.56847e-53
-1.05692e-60
4.49814e-99
1.19462e-86
1.95228e-76
5.05709e-67
2.03366e-58
1.33052e-50
1.5396e-43
3.48445e-37
1.68689e-31
4.06274e-26
5.37018e-21
2.84421e-17
1.83459e-15
1.76592e-14
1.11141e-11
2.08943e-11
1.89084e-12
2.74833e-14
1.43392e-16
2.90907e-19
2.32534e-22
7.55599e-26
1.02808e-29
5.87535e-34
1.32891e-38
9.16536e-44
-1.52853e-49
-2.00372e-54
-2.16517e-60
-2.60616e-67
2.03282e-105
1.75115e-92
5.5077e-82
2.49502e-72
1.62043e-63
1.59807e-55
2.61469e-48
7.8263e-42
4.92642e-36
2.08525e-30
3.9283e-25
3.14318e-21
3.87552e-19
2.38216e-18
2.1757e-17
1.06293e-18
5.10103e-21
9.09755e-24
8.37436e-27
4.0534e-30
9.9935e-34
1.23201e-37
7.5622e-42
2.33042e-46
3.75579e-51
3.51578e-56
2.00068e-61
5.47392e-67
4.58361e-73
5.90679e-80
1.59401e-112
5.93228e-99
4.18422e-88
3.69867e-78
4.18412e-69
6.50492e-61
1.52835e-53
5.97885e-47
5.12188e-41
3.03747e-35
6.16316e-30
4.92231e-26
5.22277e-24
9.14932e-25
2.76103e-27
2.78407e-30
1.32625e-33
4.06443e-37
8.86434e-41
1.35272e-44
1.37146e-48
8.78826e-53
3.40816e-57
7.65415e-62
9.42774e-67
5.93013e-72
1.70531e-77
1.8911e-83
6.01287e-90
2.99101e-97
1.40547e-120
3.87563e-106
7.85487e-95
1.61233e-84
3.59606e-75
9.57184e-67
3.37782e-59
1.7433e-52
1.97694e-46
1.32201e-40
2.18823e-35
1.11914e-31
2.43775e-30
1.32031e-33
1.34655e-37
6.51267e-42
2.21289e-46
6.01875e-51
1.31945e-55
2.24601e-60
2.81667e-65
2.45084e-70
1.3888e-75
4.79807e-81
9.39356e-87
9.56758e-93
4.49386e-99
8.16224e-106
4.2509e-113
3.45165e-121
5.34548e-130
3.32261e-114
2.97211e-102
1.88129e-91
1.01312e-81
5.32697e-73
3.09546e-65
2.20495e-58
3.11446e-52
1.97182e-46
2.14096e-41
4.65388e-38
1.99101e-38
2.18225e-44
2.37973e-50
1.67704e-56
8.87118e-63
3.85546e-69
1.39719e-75
4.11309e-82
9.37102e-89
1.55255e-95
1.74478e-102
1.23489e-109
5.06908e-117
1.09763e-124
1.10144e-132
4.26461e-141
4.70872e-150
8.0762e-160
-1.85177e-23
-1.07409e-23
8.39123e-25
4.22592e-24
4.24908e-24
1.01859e-21
3.15801e-19
5.13867e-17
5.70042e-15
4.21816e-13
1.08188e-11
9.63534e-11
1.87745e-07
5.91668e-05
0.999988
1
1
1
1
1
1
1
1
1
1
1
0.72778
0.165418
0.0178613
0.00107349
-2.59825e-24
-1.48744e-24
6.46036e-26
4.63527e-25
1.36477e-24
7.58341e-22
2.50617e-19
4.50384e-17
5.99965e-15
5.06377e-13
1.67324e-11
1.47156e-10
2.68984e-07
3.16996e-07
0.999955
1
1
1
1
1
1
1
1
1
0.0437722
8.10292e-09
1.21038e-09
9.81488e-10
2.20745e-10
6.17309e-11
-2.91128e-25
-1.63709e-25
1.97664e-27
3.95082e-26
7.68755e-25
5.56954e-22
1.98705e-19
4.02922e-17
6.41879e-15
5.79377e-13
2.88023e-11
5.84882e-10
2.62638e-08
2.06281e-06
0.986531
1
1
1
1
1
1
1
0.94391
7.41117e-08
1.0629e-09
2.87579e-10
3.0977e-11
5.0735e-13
1.52953e-14
1.26894e-15
-2.53111e-26
-1.39132e-26
-2.15281e-28
2.72885e-27
5.07326e-25
4.05144e-22
1.57357e-19
3.62863e-17
6.63951e-15
6.00867e-13
4.21856e-11
2.05859e-07
2.77485e-08
7.30708e-07
0.906342
1
1
1
1
1
1
0.828886
9.7741e-09
9.50925e-10
8.64295e-11
2.72643e-12
2.88239e-14
5.28166e-17
1.9195e-19
4.13046e-22
-1.63172e-27
-8.72087e-28
-3.39123e-29
2.78799e-28
3.38067e-25
2.91302e-22
1.23069e-19
3.19048e-17
6.30367e-15
5.43369e-13
2.6839e-11
8.55447e-09
2.17571e-09
6.94599e-06
0.612946
1
1
1
1
1
1
1.24649e-07
8.87762e-10
6.01605e-11
1.32214e-12
6.93587e-15
9.80071e-18
2.10819e-21
6.1503e-25
3.77641e-30
-7.43961e-29
-3.84356e-29
-2.20795e-30
1.0703e-28
2.2127e-25
2.0417e-22
9.28271e-20
2.62586e-17
5.24407e-15
4.15168e-13
1.90469e-11
2.77076e-11
1.35025e-10
2.54343e-08
0.282914
1
1
1
1
1
2.47849e-06
2.37981e-05
1.54045e-10
2.12905e-12
1.06115e-14
9.43596e-18
1.97539e-21
5.98425e-26
1.05074e-30
3.07865e-37
-2.25563e-30
-1.11946e-30
-7.12285e-32
6.11334e-29
1.38768e-25
1.35405e-22
6.5168e-20
1.93175e-17
3.67536e-15
2.61077e-13
6.53161e-12
2.11566e-11
1.35489e-10
5.37239e-08
0.160938
1
1
1
1
0.000190307
2.16325e-06
7.28736e-10
2.96396e-11
6.5553e-14
6.7046e-17
1.17543e-20
3.81938e-25
1.97632e-30
2.24042e-36
1.59943e-43
-4.17085e-32
-1.97608e-32
3.23854e-33
3.34037e-29
8.00511e-26
8.14804e-23
4.08025e-20
1.2155e-17
2.10057e-15
1.32449e-13
2.39051e-12
1.80236e-11
1.80387e-10
4.87026e-07
0.025424
1
1
1
0.903458
2.51067e-06
9.01924e-08
2.52897e-06
2.71842e-11
6.55002e-15
5.90201e-19
2.0626e-23
1.23751e-28
1.22838e-34
1.86571e-41
3.33612e-49
-4.17889e-34
-1.87695e-34
2.17305e-33
1.61467e-29
4.03721e-26
4.24304e-23
2.17838e-20
6.29463e-18
9.56241e-16
5.38128e-14
1.07563e-12
1.17317e-11
2.60296e-08
2.57639e-09
1.97314e-12
1
1
1
0.103765
0.000557412
1.25252e-05
7.04359e-10
4.77956e-11
1.31684e-14
1.35634e-19
2.4531e-25
1.58492e-31
2.86445e-38
1.02815e-45
6.47712e-54
-1.91609e-36
-7.89653e-37
8.31331e-34
6.51957e-30
1.68807e-26
1.82223e-23
9.48949e-21
2.60073e-18
3.43693e-16
1.77548e-14
4.02427e-13
5.7019e-12
3.13879e-11
5.35681e-05
-1.3637e-09
0.999999
1
1
1.03411e-05
0.000215155
1.89914e-05
2.92546e-08
1.02064e-10
1.09458e-14
7.90295e-20
1.09321e-25
2.70443e-32
1.07391e-39
7.68455e-48
1.37512e-56
-3.03584e-39
4.32875e-39
2.50324e-34
2.07486e-30
5.54832e-27
6.14763e-24
3.22977e-21
8.35852e-19
9.81833e-17
4.89919e-15
1.25255e-13
2.14035e-12
3.41676e-11
4.69621e-11
1.52362e-07
0.999987
1
0.976942
3.77393e-07
4.37703e-05
3.21909e-06
1.07126e-06
4.06239e-11
3.24084e-15
2.94875e-20
4.19212e-26
8.93169e-33
3.06734e-40
1.97349e-48
3.22204e-57
-9.54376e-43
1.09843e-39
5.61212e-35
4.90623e-31
1.35852e-27
1.5509e-24
8.22682e-22
2.04043e-19
2.24701e-17
1.14911e-15
3.33866e-14
7.26308e-13
1.40342e-11
4.57349e-11
6.25748e-07
0.999866
0.999999
0.118375
1.51207e-07
1.34838e-07
6.78936e-07
1.59753e-08
6.45525e-12
6.53198e-16
6.78193e-21
9.14329e-27
1.85325e-33
6.36198e-41
4.31551e-49
7.39893e-58
1.41117e-45
1.53021e-40
8.75966e-36
8.10775e-32
2.34653e-28
2.78507e-25
1.5038e-22
3.68259e-20
4.06626e-18
2.25963e-16
8.1048e-15
2.67726e-13
6.23357e-12
3.85137e-11
3.21645e-07
0.807799
1
3.79824e-06
8.70287e-10
5.15544e-10
2.82048e-05
3.4761e-10
1.02614e-12
1.11789e-16
1.13146e-21
1.52724e-27
3.26765e-34
1.21677e-41
8.67062e-50
1.42555e-58
1.50002e-46
1.38485e-41
8.84783e-37
8.7883e-33
2.70963e-29
3.39939e-26
1.90205e-23
4.79406e-21
5.6824e-19
3.70293e-17
1.92241e-15
9.56329e-14
2.69444e-12
3.17588e-11
1.09497e-10
0.123769
0.999999
9.14218e-08
5.74261e-10
3.04788e-10
8.0104e-10
1.09863e-10
1.56036e-13
1.5075e-17
1.55301e-22
2.25982e-28
5.09168e-35
1.84511e-42
1.18558e-50
1.64263e-59
1.23076e-47
7.63846e-43
5.40223e-38
5.92145e-34
2.00799e-30
2.73611e-27
1.64018e-24
4.50609e-22
6.18027e-20
5.33716e-18
4.42902e-16
2.91689e-14
1.05103e-12
1.45101e-11
6.92352e-10
-2.59651e-06
0.99994
3.8414e-06
8.14001e-10
1.85446e-10
2.62031e-10
1.42732e-11
1.69448e-14
1.67717e-18
1.85629e-23
2.66746e-29
5.38125e-36
1.6501e-43
8.76378e-52
9.80724e-61
7.51175e-49
2.6018e-44
1.92894e-39
2.42473e-35
9.41684e-32
1.44829e-28
9.80782e-26
3.15536e-23
5.51711e-21
7.5468e-19
1.23579e-16
2.43247e-14
1.49128e-12
1.63218e-11
6.96049e-11
-8.76235e-08
0.983303
0.502958
7.6721e-08
2.93877e-10
3.19288e-11
1.21256e-12
1.57474e-15
1.60003e-19
1.60899e-24
1.92455e-30
3.13646e-37
7.75957e-45
3.33739e-53
2.99709e-62
3.14721e-50
6.22627e-46
4.12327e-41
6.05773e-37
2.79102e-33
5.08052e-30
4.14393e-27
1.70135e-24
4.75913e-22
2.55741e-19
2.81568e-16
9.27103e-14
4.62585e-12
3.66863e-11
7.8191e-11
-4.84447e-10
0.139259
0.997375
3.63348e-05
5.17184e-10
9.0834e-12
1.17784e-13
1.29251e-16
1.04572e-20
8.10667e-26
7.5099e-32
9.63182e-39
1.90109e-46
6.55403e-55
4.67551e-64
8.38381e-52
1.10984e-47
5.53768e-43
9.28126e-39
5.17738e-35
1.16408e-31
1.24672e-28
1.07405e-25
3.64637e-22
1.40527e-18
1.70059e-15
4.78212e-13
2.02306e-11
9.80733e-11
1.85691e-10
1.48242e-10
2.98128e-06
0.995417
0.295818
2.87895e-09
1.93054e-11
1.17378e-14
7.19351e-18
3.95159e-22
2.22756e-27
1.56405e-33
1.55666e-40
2.41105e-48
6.52316e-57
3.61686e-66
1.52008e-53
1.40034e-49
4.92597e-45
8.47681e-41
5.7628e-37
2.49193e-33
2.95275e-29
4.74652e-25
3.82417e-21
1.17104e-17
1.21316e-14
4.59337e-12
1.31782e-10
3.61159e-10
9.83597e-10
3.14763e-10
5.19081e-08
0.994475
0.569146
1.99149e-09
2.06222e-11
3.26279e-15
3.13591e-19
9.09062e-24
3.4569e-29
1.76581e-35
1.31924e-42
1.55304e-50
3.19359e-59
1.33646e-68
2.04652e-55
1.82143e-51
8.98345e-47
7.4451e-42
5.43799e-37
2.46555e-32
6.19832e-28
7.83313e-24
4.47742e-20
1.11764e-16
1.40702e-13
4.61353e-11
4.877e-10
1.80635e-05
0.000263077
2.64227e-09
3.18886e-08
0.99576
0.286028
4.99661e-10
1.2281e-11
1.37157e-15
3.37733e-20
2.78177e-25
4.9143e-31
1.48113e-37
7.2714e-45
5.91896e-53
8.60146e-62
2.56618e-71
9.95872e-56
2.19455e-50
3.48734e-45
3.64588e-40
2.33475e-35
8.23632e-31
1.51274e-26
1.37263e-22
6.24019e-19
1.64108e-15
1.77303e-12
2.4707e-10
1.49687e-08
0.000267775
1.38673e-08
3.89978e-05
6.5368e-08
0.0688878
3.82478e-07
2.07698e-10
1.83058e-12
1.67014e-16
2.79827e-21
1.21479e-26
1.09878e-32
1.80662e-39
5.14952e-47
2.54494e-55
2.31045e-64
4.40373e-74
4.97965e-55
3.25053e-49
9.18747e-44
1.17481e-38
7.13481e-34
2.1025e-29
3.02533e-25
2.23014e-21
9.79927e-18
2.16047e-14
1.14197e-11
3.59023e-10
1.57954e-06
0.000208116
1.34234e-08
7.20022e-05
8.78449e-08
4.40219e-10
6.79688e-10
7.25025e-11
8.78307e-14
5.60622e-18
6.71689e-23
1.87365e-28
1.0731e-34
1.13596e-41
2.1115e-49
6.81948e-58
4.01367e-67
4.91503e-77
3.28434e-55
6.91649e-49
3.17815e-43
4.70817e-38
2.73256e-33
6.91707e-29
8.43964e-25
5.69255e-21
2.11151e-17
2.96875e-14
1.01547e-11
2.37903e-10
1.086e-05
1.28677e-06
9.12548e-05
8.60393e-06
5.87319e-06
3.13112e-10
1.69114e-10
3.43451e-12
1.03457e-15
4.48087e-20
3.70445e-25
6.79457e-31
2.56234e-37
1.81269e-44
2.26597e-52
4.89103e-61
1.889e-70
1.48503e-80
3.04952e-57
2.51325e-50
1.74862e-44
2.88049e-39
1.6483e-34
4.02562e-30
4.74795e-26
2.73396e-22
6.79731e-19
5.87995e-16
1.35872e-13
5.14712e-12
1.62719e-11
1.47234e-07
3.01213e-10
7.90009e-05
2.33452e-06
5.46963e-11
7.88343e-12
3.25987e-14
3.30835e-18
8.04315e-23
4.63228e-28
5.78118e-34
1.47563e-40
7.06789e-48
5.93827e-56
8.45721e-65
2.09199e-74
1.01794e-84
5.17718e-63
3.02198e-55
3.5808e-49
7.31937e-44
4.38166e-39
9.94448e-35
1.09998e-30
7.68822e-27
3.17702e-23
5.76563e-20
3.8098e-17
8.36474e-15
5.78934e-13
1.13298e-11
5.98079e-11
3.37198e-10
2.04643e-05
2.25863e-12
6.5877e-14
7.07054e-17
2.82248e-21
3.4153e-26
1.4232e-31
1.25608e-37
2.22275e-44
7.25143e-52
4.05106e-60
3.70872e-69
5.63962e-79
1.60294e-89
1.80624e-73
1.45554e-64
2.4118e-58
1.69671e-53
-9.11303e-48
-9.58347e-43
-3.03275e-38
-3.87531e-34
-2.19394e-30
-5.65962e-27
-6.68893e-24
-3.62259e-21
-8.95286e-19
-9.50064e-17
-2.76896e-15
1.51928e-12
5.71615e-11
1.08406e-14
1.0045e-16
3.55453e-20
6.46982e-25
3.89589e-30
1.18961e-35
7.68953e-42
9.59496e-49
2.1252e-56
7.71677e-65
4.3559e-74
3.83008e-84
5.83909e-95
1.1768e-87
3.01367e-77
1.7399e-70
1.2939e-64
2.64123e-59
2.041e-54
7.08115e-50
1.21064e-45
1.08172e-41
5.23649e-38
1.42089e-34
2.25959e-31
2.22136e-28
1.37748e-25
5.29224e-23
9.08205e-20
2.49824e-16
2.72921e-18
2.06906e-20
3.88968e-24
4.04771e-29
1.41479e-34
2.99708e-40
1.45969e-46
1.29202e-53
1.90905e-61
4.32366e-70
1.40969e-79
6.53675e-90
4.70122e-101
3.25223e-106
9.69871e-95
1.99457e-87
5.023e-81
3.43232e-75
8.99794e-70
1.09719e-64
6.98036e-60
2.51195e-55
5.40675e-51
7.28576e-47
6.37202e-43
3.682e-39
1.39457e-35
3.36933e-32
5.84532e-29
2.11849e-25
2.17176e-23
4.47507e-25
8.48211e-29
6.98423e-34
1.70564e-39
2.52996e-45
9.44908e-52
5.86805e-59
5.55745e-67
7.3221e-76
1.24529e-85
2.64361e-96
7.32797e-108
3.21458e-130
2.17e-118
3.42124e-110
6.47003e-103
3.28361e-96
6.39637e-90
5.86779e-84
2.87659e-78
8.25703e-73
1.47982e-67
1.74255e-62
1.40168e-57
7.87969e-53
3.12148e-48
8.68459e-44
1.77299e-39
4.11973e-35
2.09293e-30
9.15959e-31
3.62087e-34
3.45126e-39
7.27967e-45
8.02165e-51
2.29434e-57
9.62317e-65
5.41823e-73
3.70215e-82
2.79516e-92
2.1666e-103
1.63786e-115
1.50132e-169
2.85693e-156
2.60906e-146
2.7439e-137
7.52943e-129
7.80008e-121
3.78e-113
9.80134e-106
1.49954e-98
1.45043e-91
9.36118e-85
4.19753e-78
1.34353e-71
3.15288e-65
5.68702e-59
8.90681e-53
1.57201e-46
4.93709e-40
2.17813e-37
3.57684e-40
5.51783e-45
1.21912e-50
1.08928e-56
2.3054e-63
6.01567e-71
1.76441e-79
5.17903e-89
1.33728e-99
2.58402e-111
2.71324e-124
1
1
1
1
1
1
1
1
1
1
1
1
1
1
1
1
1
1
1
1
1
1
1
1
1
1
1
1
1
1
1
1
1
1
1
1
1
1
1
1
1
1
1
1
1
1
1
1
1
1
1
1
1
1
1
1
1
1
1
1
1
1
1
1
1
1
1
1
1
1
1
1
1
1
1
1
1
1
1
1
1
1
1
1
1
1
1
1
1
1
1
1
1
1
1
1
1
1
1
1
1
1
1
1
1
1
1
1
1
1
1
1
1
1
1
1
1
1
1
1
1
1
1
1
1
1
1
1
1
1
1
1
1
1
1
1
1
1
1
1
1
1
1
1
1
1
1
1
1
1
1
1
1
1
1
1
1
1
1
1
1
1
1
1
1
1
1
1
1
1
1
1
1
1
1
1
1
1
1
1
1
1
1
1
1
1
1
1
1
1
1
1
1
1
1
1
1
1
1
1
1
1
1
1
1
1
1
1
1
1
1
1
1
1
1
1
1
1
1
1
1
1
1
1
1
1
1
1
1
1
1
1
1
1
1
1
1
1
1
1
1
1
1
1
1
1
1
1
1
1
1
1
1
1
1
1
1
1
1
1
1
1
1
1
1
1
1
1
1
1
1
1
1
1
1
1
1
1
1
1
1
1
1
1
1
1
1
1
1
1
1
1
1
1
1
1
1
1
1
1
1
1
1
1
1
1
1
1
1
1
1
1
1
1
1
1
1
1
1
1
1
1
1
1
1
1
1
1
1
0.999643
1
1
1
1
1
1
1
1
1
1
1
1
1
1
1
1
1
1
1
1
1
1
1
1
1
1
1
1
0.999262
0.998412
1
1
1
1
1
1
1
1
1
1
1
1
1
1
1
1
1
1
1
1
1
1
1
1
1
1
1
1
0.999568
0.99749
1
1
1
1
1
1
1
1
1
1
1
1
1
1
1
1
1
1
1
1
1
1
1
1
1
0.999988
0.999928
0.999848
0.999773
0.99941
1
1
1
1
1
1
1
1
1
1
1
1
1
1
1
1
1
1
1
1
1
1
0.999997
0.14295
-2.62251e-09
8.40101e-08
9.05656e-09
-4.73197e-08
-8.92992e-08
7.6052e-10
1
1
1
1
1
1
1
1
1
1
1
1
1
1
1
1
1
1
1
1
1
0.929352
4.03055e-06
1.4134e-05
6.38157e-09
6.41793e-09
4.05905e-08
-1.07645e-08
-8.78534e-08
1.20336e-05
1
1
1
1
1
1
1
1
1
1
1
1
1
1
1
1
1
1
1
1
0.87461
8.02163e-07
8.82346e-08
9.07985e-08
3.11192e-06
5.07806e-06
4.22002e-06