/*--------------------------------*- C++ -*----------------------------------*\
| =========                 |                                                 |
| \\      /  F ield         | OpenFOAM: The Open Source CFD Toolbox           |
|  \\    /   O peration     | Version:  2.4.0                                 |
|   \\  /    A nd           | Web:      www.OpenFOAM.org                      |
|    \\/     M anipulation  |                                                 |
\*---------------------------------------------------------------------------*/
FoamFile
{
    version     2.0;
    format      ascii;
    class       surfaceScalarField;
    location    "0.025";
    object      phiAlpha;
}
// * * * * * * * * * * * * * * * * * * * * * * * * * * * * * * * * * * * * * //

dimensions      [0 3 -1 0 0 0 0];

internalField   nonuniform List<scalar> 
114720
(
-1.27738e-10
1.09005e-10
2.44952e-10
-2.26219e-10
3.53949e-10
-4.45703e-10
-3.87773e-11
1.30532e-10
7.78837e-10
-9.03185e-10
-4.94073e-11
1.73755e-10
1.37219e-09
-1.54791e-09
-6.53448e-11
2.4107e-10
2.19669e-09
-2.43289e-09
-8.03358e-11
3.16539e-10
3.27357e-09
-3.56834e-09
-8.80513e-11
3.82819e-10
4.5758e-09
-4.91506e-09
-8.27659e-11
4.22023e-10
6.02496e-09
-6.38225e-09
-6.02992e-11
4.17584e-10
7.4944e-09
-7.83327e-09
-1.93669e-11
3.58236e-10
8.82257e-09
-9.10179e-09
3.74814e-11
2.41738e-10
9.84248e-09
-1.00265e-08
1.02218e-10
8.17835e-11
1.0432e-08
-1.05044e-08
1.61528e-10
-8.91901e-11
1.05669e-08
-1.05395e-08
1.99847e-10
-2.27277e-10
1.03366e-08
-1.02439e-08
2.07064e-10
-2.99773e-10
9.89942e-09
-9.78118e-09
1.83672e-10
-3.01911e-10
9.40952e-09
-9.29629e-09
1.3658e-10
-2.49815e-10
8.97184e-09
-8.88073e-09
7.75918e-11
-1.68697e-10
8.63778e-09
-8.57531e-09
1.26217e-11
-7.50936e-11
8.4243e-09
-8.38901e-09
-5.13926e-11
1.61021e-11
8.31172e-09
-8.29419e-09
-1.03737e-10
8.62115e-11
8.24564e-09
-8.22787e-09
-1.38075e-10
1.20301e-10
8.14388e-09
-8.10369e-09
-1.49043e-10
1.0885e-10
7.91677e-09
-7.83464e-09
-1.3652e-10
5.43909e-11
7.49188e-09
-7.35483e-09
-1.06083e-10
-3.09693e-11
6.83027e-09
-6.63576e-09
-6.64314e-11
-1.28078e-10
5.93864e-09
-5.69414e-09
-2.56316e-11
-2.18868e-10
4.86093e-09
-4.58121e-09
8.89398e-12
-2.8861e-10
3.66538e-09
-3.36902e-09
3.32417e-11
-3.296e-10
2.42928e-09
-2.13406e-09
4.6467e-11
-3.41681e-10
1.22029e-09
-9.39997e-10
5.03055e-11
-3.30599e-10
1.34735e-10
8.06313e-10
-6.61496e-10
-2.79552e-10
7.37992e-10
-6.0202e-10
-9.09455e-10
7.73482e-10
1.54081e-09
-8.60529e-10
-1.79222e-09
1.11194e-09
2.73337e-09
-1.24232e-09
-3.10597e-09
1.61493e-09
4.47094e-09
-1.7032e-09
-4.99802e-09
2.23028e-09
6.87324e-09
-2.18826e-09
-7.57701e-09
2.89203e-09
1.00082e-08
-2.6315e-09
-1.08954e-08
3.5187e-09
1.38727e-08
-2.95832e-09
-1.49292e-08
4.01486e-09
1.83709e-08
-3.09345e-09
-1.95563e-08
4.27881e-09
2.32929e-08
-2.9747e-09
-2.45361e-08
4.21794e-09
2.83105e-08
-2.59181e-09
-2.95166e-08
3.79785e-09
3.30182e-08
-2.00428e-09
-3.40837e-08
3.0697e-09
3.70127e-08
-1.33108e-09
-3.78487e-08
2.1671e-09
3.99754e-08
-6.80337e-10
-4.0522e-08
1.22702e-09
4.17123e-08
-1.05556e-10
-4.19426e-08
3.35846e-10
4.21668e-08
3.82793e-10
-4.20887e-08
-4.60888e-10
4.14259e-08
7.72918e-10
-4.10822e-08
-1.1166e-09
3.97057e-08
1.05028e-09
-3.91634e-08
-1.59253e-09
3.72919e-08
1.22568e-09
-3.66229e-08
-1.8947e-09
3.44575e-08
1.33959e-09
-3.37185e-08
-2.07859e-09
3.14001e-08
1.4465e-09
-3.06258e-08
-2.22075e-09
2.82275e-08
1.58623e-09
-2.74329e-08
-2.3808e-09
2.498e-08
1.76807e-09
-2.41686e-08
-2.5795e-09
2.16658e-08
1.97309e-09
-2.08389e-08
-2.79999e-09
1.82938e-08
2.16502e-09
-1.7456e-08
-3.00282e-09
1.48931e-08
2.30478e-09
-1.40555e-08
-3.14245e-09
1.15142e-08
2.36751e-09
-1.06916e-08
-3.19013e-09
8.22382e-09
2.34154e-09
-7.43383e-09
-3.13154e-09
5.09119e-09
2.23856e-09
-4.34884e-09
-2.98091e-09
2.1712e-09
2.07259e-09
-1.48947e-09
-2.75432e-09
1.34682e-10
1.38808e-09
-1.24254e-09
-2.80224e-10
7.46342e-10
-1.29388e-09
-9.19901e-10
1.46744e-09
1.55982e-09
-1.87646e-09
-1.81495e-09
2.13159e-09
2.77133e-09
-2.75043e-09
-3.15049e-09
3.12958e-09
4.54173e-09
-3.84076e-09
-5.07988e-09
4.37892e-09
6.99851e-09
-5.04967e-09
-7.7202e-09
5.77135e-09
1.02201e-08
-6.25076e-09
-1.11351e-08
7.16576e-09
1.42168e-08
-7.2872e-09
-1.53146e-08
8.38504e-09
1.89073e-08
-7.97694e-09
-2.01509e-08
9.22048e-09
2.40927e-08
-8.13001e-09
-2.54118e-08
9.44915e-09
2.94406e-08
-7.62689e-09
-3.07355e-08
8.92178e-09
3.45142e-08
-6.4767e-09
-3.56688e-08
7.63128e-09
3.88492e-08
-4.84501e-09
-3.97568e-08
5.7526e-09
4.20546e-08
-2.95857e-09
-4.26392e-08
3.5431e-09
4.38832e-08
-1.02185e-09
-4.41103e-08
1.24896e-09
4.42665e-08
7.86869e-10
-4.41489e-08
-9.04516e-10
4.33245e-08
2.29613e-09
-4.29177e-08
-2.70289e-09
4.13311e-08
3.38934e-09
-4.07174e-08
-4.00301e-09
3.86313e-08
4.06429e-09
-3.78955e-08
-4.8001e-09
3.55442e-08
4.43291e-09
-3.47514e-08
-5.22568e-09
3.22929e-08
4.64937e-09
-3.1481e-08
-5.46135e-09
2.89913e-08
4.84054e-09
-2.81741e-08
-5.6578e-09
2.56702e-08
5.06678e-09
-2.48471e-08
-5.88995e-09
2.23184e-08
5.31976e-09
-2.1485e-08
-6.1532e-09
1.89203e-08
5.55116e-09
-1.8075e-08
-6.39651e-09
1.54808e-08
5.69418e-09
-1.46292e-08
-6.54574e-09
1.20318e-08
5.70525e-09
-1.11861e-08
-6.55097e-09
8.63399e-09
5.55704e-09
-7.81231e-09
-6.37871e-09
5.3637e-09
5.26793e-09
-4.58452e-09
-6.04712e-09
2.29198e-09
4.85902e-09
-1.57269e-09
-5.57831e-09
1.33627e-10
1.97057e-09
-1.8249e-09
-2.79295e-10
7.43187e-10
-1.98693e-09
-9.15872e-10
2.15962e-09
1.55277e-09
-2.89546e-09
-1.80678e-09
3.14947e-09
2.75928e-09
-4.26512e-09
-3.137e-09
4.64284e-09
4.52343e-09
-5.99116e-09
-5.05989e-09
6.52762e-09
6.9732e-09
-7.93423e-09
-7.69315e-09
8.65418e-09
1.01882e-08
-9.90926e-09
-1.11018e-08
1.08229e-08
1.41809e-08
-1.1679e-08
-1.52786e-08
1.27767e-08
1.88742e-08
-1.29552e-08
-2.012e-08
1.42011e-08
2.40741e-08
-1.34161e-08
-2.53992e-08
1.47412e-08
2.94525e-08
-1.28217e-08
-3.07574e-08
1.41266e-08
3.45717e-08
-1.11139e-08
-3.57392e-08
1.22814e-08
3.89612e-08
-8.49477e-09
-3.98827e-08
9.41635e-09
4.22229e-08
-5.31406e-09
-4.28209e-08
5.9121e-09
4.41035e-08
-1.94389e-09
-4.43418e-08
2.18226e-09
4.4526e-08
1.25075e-09
-4.44147e-08
-1.36202e-09
4.35993e-08
3.92533e-09
-4.31921e-08
-4.33256e-09
4.15943e-08
5.85325e-09
-4.09747e-08
-6.47283e-09
3.88676e-08
7.01639e-09
-3.81254e-08
-7.75858e-09
3.57618e-08
7.60428e-09
-3.49686e-08
-8.39752e-09
3.25234e-08
7.8835e-09
-3.17211e-08
-8.68583e-09
2.92772e-08
8.08165e-09
-2.848e-08
-8.87891e-09
2.60494e-08
8.32252e-09
-2.5253e-08
-9.11886e-09
2.28096e-08
8.61643e-09
-2.20036e-08
-9.4225e-09
1.9514e-08
8.90618e-09
-1.86887e-08
-9.73144e-09
1.6135e-08
9.09503e-09
-1.52885e-08
-9.94154e-09
1.26766e-08
9.1102e-09
-1.18157e-08
-9.97106e-09
9.18571e-09
8.89209e-09
-8.32887e-09
-9.74892e-09
5.74901e-09
8.4508e-09
-4.92076e-09
-9.27906e-09
2.46843e-09
7.80756e-09
-1.69561e-09
-8.58038e-09
1.32158e-10
2.55375e-09
-2.40787e-09
-2.7804e-10
7.38446e-10
-2.67582e-09
-9.09822e-10
2.84719e-09
1.54219e-09
-3.90909e-09
-1.79449e-09
4.16139e-09
2.74098e-09
-5.77281e-09
-3.11645e-09
6.14828e-09
4.4952e-09
-8.13309e-09
-5.0289e-09
8.6668e-09
6.93323e-09
-1.08097e-08
-7.65012e-09
1.15266e-08
1.01359e-08
-1.35598e-08
-1.10467e-08
1.44706e-08
1.41186e-08
-1.60674e-08
-1.52146e-08
1.71635e-08
1.88091e-08
-1.79404e-08
-2.00562e-08
1.91875e-08
2.40212e-08
-1.87252e-08
-2.53525e-08
2.00565e-08
2.94336e-08
-1.80582e-08
-3.07505e-08
1.93752e-08
3.46099e-08
-1.58076e-08
-3.57945e-08
1.69922e-08
3.90742e-08
-1.2209e-08
-4.0016e-08
1.31508e-08
4.24207e-08
-7.73582e-09
-4.30401e-08
8.35525e-09
4.43866e-08
-2.92442e-09
-4.46445e-08
3.18238e-09
4.4879e-08
1.67889e-09
-4.47801e-08
-1.77774e-09
4.39861e-08
5.55293e-09
-4.358e-08
-5.95909e-09
4.19693e-08
8.34332e-09
-4.1341e-08
-8.97159e-09
3.92011e-08
9.99959e-09
-3.8448e-08
-1.07527e-08
3.60596e-08
1.0781e-08
-3.52629e-08
-1.15777e-08
3.28278e-08
1.10765e-08
-3.20364e-08
-1.18679e-08
2.96504e-08
1.12326e-08
-2.88799e-08
-1.20032e-08
2.65508e-08
1.14537e-08
-2.57931e-08
-1.22114e-08
2.34769e-08
1.17821e-08
-2.27135e-08
-1.25455e-08
2.03481e-08
1.2159e-08
-1.95591e-08
-1.2948e-08
1.70917e-08
1.24604e-08
-1.62627e-08
-1.32894e-08
1.36613e-08
1.25751e-08
-1.27877e-08
-1.34487e-08
1.00648e-08
1.23879e-08
-9.15971e-09
-1.32929e-08
6.38449e-09
1.18691e-08
-5.47904e-09
-1.27746e-08
2.76629e-09
1.10186e-08
-1.9041e-09
-1.18808e-08
1.30262e-10
3.13816e-09
-2.9919e-09
-2.7652e-10
7.32456e-10
-3.35896e-09
-9.02165e-10
3.52867e-09
1.52877e-09
-4.91525e-09
-1.77891e-09
5.16539e-09
2.71774e-09
-7.27064e-09
-3.09035e-09
7.64324e-09
4.45926e-09
-1.02629e-08
-4.98942e-09
1.07931e-08
6.88219e-09
-1.36717e-08
-7.59511e-09
1.43846e-08
1.00689e-08
-1.71978e-08
-1.09759e-08
1.81048e-08
1.40381e-08
-2.04487e-08
-1.51319e-08
2.15425e-08
1.87245e-08
-2.29312e-08
-1.99731e-08
2.41799e-08
2.39517e-08
-2.40617e-08
-2.52908e-08
2.54009e-08
2.94081e-08
-2.33489e-08
-3.0741e-08
2.46818e-08
3.46604e-08
-2.05789e-08
-3.58681e-08
2.17865e-08
3.92261e-08
-1.60158e-08
-4.01957e-08
1.69853e-08
4.26888e-08
-1.02556e-08
-4.33379e-08
1.09046e-08
4.47728e-08
-3.99451e-09
-4.50579e-08
4.27958e-09
4.5363e-08
2.04996e-09
-4.52815e-08
-2.13149e-09
4.4518e-08
7.17579e-09
-4.41135e-08
-7.58021e-09
4.24832e-08
1.08748e-08
-4.18417e-08
-1.15163e-08
3.96499e-08
1.30366e-08
-3.88787e-08
-1.38078e-08
3.64442e-08
1.39795e-08
-3.56382e-08
-1.47855e-08
3.32018e-08
1.42266e-08
-3.24204e-08
-1.50081e-08
3.00997e-08
1.42678e-08
-2.93617e-08
-1.50058e-08
2.71634e-08
1.44116e-08
-2.64574e-08
-1.51176e-08
2.43185e-08
1.47491e-08
-2.36175e-08
-1.54502e-08
2.14449e-08
1.52329e-08
-2.07169e-08
-1.59608e-08
1.84156e-08
1.57218e-08
-1.76304e-08
-1.6507e-08
1.51109e-08
1.60717e-08
-1.42421e-08
-1.69404e-08
1.14471e-08
1.60913e-08
-1.04869e-08
-1.70515e-08
7.4439e-09
1.56525e-08
-6.42083e-09
-1.66756e-08
3.28348e-09
1.46696e-08
-2.26919e-09
-1.56839e-08
1.27854e-10
3.72448e-09
-3.57767e-09
-2.74666e-10
7.25222e-10
-4.03486e-09
-8.92907e-10
4.20255e-09
1.51253e-09
-5.91203e-09
-1.76005e-09
6.15955e-09
2.68959e-09
-8.756e-09
-3.0587e-09
9.12511e-09
4.41564e-09
-1.23773e-08
-4.94148e-09
1.29031e-08
6.82008e-09
-1.65164e-08
-7.52814e-09
1.72244e-08
9.98703e-09
-2.08193e-08
-1.08894e-08
2.17217e-08
1.39394e-08
-2.48199e-08
-1.50304e-08
2.59109e-08
1.862e-08
-2.79281e-08
-1.98702e-08
2.91784e-08
2.38646e-08
-2.9432e-08
-2.52133e-08
3.07807e-08
2.93749e-08
-2.87087e-08
-3.07275e-08
3.00613e-08
3.47222e-08
-2.54511e-08
-3.59588e-08
2.66878e-08
3.9416e-08
-1.99443e-08
-4.04207e-08
2.0949e-08
4.30266e-08
-1.2906e-08
-4.37136e-08
1.3593e-08
4.5263e-08
-5.18517e-09
-4.55835e-08
5.50568e-09
4.5982e-08
2.34267e-09
-4.59241e-08
-2.40057e-09
4.52023e-08
8.79033e-09
-4.48004e-08
-9.19222e-09
4.31435e-08
1.34667e-08
-4.24834e-08
-1.41268e-08
4.02154e-08
1.61595e-08
-3.94164e-08
-1.69584e-08
3.69055e-08
1.72276e-08
-3.60811e-08
-1.8052e-08
3.36228e-08
1.73411e-08
-3.28478e-08
-1.81161e-08
3.05935e-08
1.71648e-08
-2.98929e-08
-1.78653e-08
2.78541e-08
1.71414e-08
-2.72139e-08
-1.77817e-08
2.53102e-08
1.7432e-08
-2.46952e-08
-1.80469e-08
2.28042e-08
1.80134e-08
-2.21719e-08
-1.86457e-08
2.01615e-08
1.87445e-08
-1.94673e-08
-1.94387e-08
1.71871e-08
1.94859e-08
-1.63753e-08
-2.02977e-08
1.36381e-08
1.99977e-08
-1.26455e-08
-2.09902e-08
9.30102e-09
1.99829e-08
-8.10809e-09
-2.11758e-08
4.26196e-09
1.9087e-08
-2.97053e-09
-2.03784e-08
1.24934e-10
4.31381e-09
-4.16613e-09
-2.72613e-10
7.16511e-10
-4.70204e-09
-8.81746e-10
4.86727e-09
1.49295e-09
-6.89751e-09
-1.7373e-09
7.14186e-09
2.65558e-09
-1.02263e-08
-3.02046e-09
1.05911e-08
4.36278e-09
-1.44729e-08
-4.88333e-09
1.49935e-08
6.74449e-09
-1.93399e-08
-7.44652e-09
2.00419e-08
9.88678e-09
-2.44203e-08
-1.07833e-08
2.53168e-08
1.38173e-08
-2.91779e-08
-1.49043e-08
3.02649e-08
1.84882e-08
-3.29308e-08
-1.97396e-08
3.41821e-08
2.37505e-08
-3.48419e-08
-2.51096e-08
3.6201e-08
2.93218e-08
-3.41522e-08
-3.06973e-08
3.55277e-08
3.47808e-08
-3.04477e-08
-3.6052e-08
3.17189e-08
3.96279e-08
-2.40242e-08
-4.06749e-08
2.50712e-08
4.34174e-08
-1.57206e-08
-4.41506e-08
1.64538e-08
4.58411e-08
-6.53085e-09
-4.62061e-08
6.89579e-09
4.67244e-08
2.53037e-09
-4.66975e-08
-2.55724e-09
4.60329e-08
1.03923e-08
-4.56352e-08
-1.079e-08
4.39455e-08
1.6142e-08
-4.32606e-08
-1.68269e-08
4.08866e-08
1.9411e-08
-4.00473e-08
-2.02503e-08
3.74183e-08
2.05676e-08
-3.65623e-08
-2.14236e-08
3.40492e-08
2.04392e-08
-3.32735e-08
-2.12149e-08
3.1078e-08
1.99073e-08
-3.04173e-08
-2.0568e-08
2.85627e-08
1.95867e-08
-2.80022e-08
-2.01471e-08
2.63952e-08
1.97312e-08
-2.58927e-08
-2.02337e-08
2.43833e-08
2.03507e-08
-2.38872e-08
-2.08468e-08
2.2327e-08
2.13053e-08
-2.1792e-08
-2.18403e-08
2.00304e-08
2.25219e-08
-1.93922e-08
-2.31602e-08
1.71206e-08
2.38924e-08
-1.62268e-08
-2.47862e-08
1.28268e-08
2.50481e-08
-1.14507e-08
-2.64242e-08
6.43118e-09
2.49657e-08
-4.57344e-09
-2.68235e-08
1.21427e-10
4.90756e-09
-4.75861e-09
-2.70371e-10
7.06605e-10
-5.35889e-09
-8.6902e-10
5.5213e-09
1.4706e-09
-7.86968e-09
-1.71134e-09
8.11042e-09
2.61674e-09
-1.16787e-08
-2.97677e-09
1.20388e-08
4.30234e-09
-1.65463e-08
-4.81681e-09
1.70608e-08
6.65791e-09
-2.21381e-08
-7.35302e-09
2.28332e-08
9.77173e-09
-2.79963e-08
-1.06613e-08
2.88859e-08
1.36767e-08
-3.35189e-08
-1.47588e-08
3.46011e-08
1.83355e-08
-3.7938e-08
-1.95878e-08
3.91904e-08
2.36165e-08
-4.0296e-08
-2.49875e-08
4.16669e-08
2.92575e-08
-3.96932e-08
-3.06596e-08
4.10952e-08
3.48467e-08
-3.55917e-08
-3.61584e-08
3.69034e-08
3.9874e-08
-2.8285e-08
-4.09709e-08
2.93819e-08
4.3875e-08
-1.87335e-08
-4.46633e-08
1.95218e-08
4.65239e-08
-8.06896e-09
-4.69432e-08
8.48834e-09
4.7612e-08
2.58076e-09
-4.76253e-08
-2.56748e-09
4.70387e-08
1.1973e-08
-4.66485e-08
-1.23632e-08
4.492e-08
1.89274e-08
-4.42031e-08
-1.96443e-08
4.16852e-08
2.28479e-08
-4.0789e-08
-2.37442e-08
3.79837e-08
2.4061e-08
-3.70766e-08
-2.49681e-08
3.44567e-08
2.35576e-08
-3.36672e-08
-2.43471e-08
3.15073e-08
2.24913e-08
-3.08849e-08
-2.31136e-08
2.92288e-08
2.16946e-08
-2.87596e-08
-2.21638e-08
2.75066e-08
2.15417e-08
-2.71426e-08
-2.19057e-08
2.61104e-08
2.2087e-08
-2.57858e-08
-2.24117e-08
2.48061e-08
2.31277e-08
-2.44901e-08
-2.34437e-08
2.35663e-08
2.46019e-08
-2.32808e-08
-2.48874e-08
2.23802e-08
2.68824e-08
-2.20121e-08
-2.72505e-08
2.00664e-08
3.05088e-08
-1.89271e-08
-3.1648e-08
1.27091e-08
3.39966e-08
-9.58181e-09
-3.7124e-08
1.17253e-10
5.50766e-09
-5.35693e-09
-2.67989e-10
6.95523e-10
-6.00386e-09
-8.54741e-10
6.16308e-09
1.44552e-09
-8.82668e-09
-1.6822e-09
9.06336e-09
2.57311e-09
-1.31108e-08
-2.92767e-09
1.34654e-08
4.23435e-09
-1.85942e-08
-4.74197e-09
1.91018e-08
6.56039e-09
-2.49069e-08
-7.24763e-09
2.55942e-08
9.64183e-09
-3.15432e-08
-1.05236e-08
3.24249e-08
1.35172e-08
-3.78392e-08
-1.45936e-08
3.89157e-08
1.81609e-08
-4.29486e-08
-1.9414e-08
4.42016e-08
2.34614e-08
-4.57986e-08
-2.48451e-08
4.71823e-08
2.91797e-08
-4.53453e-08
-3.06117e-08
4.67774e-08
3.49172e-08
-4.09066e-08
-3.62756e-08
4.2265e-08
4.01519e-08
-3.27565e-08
-4.13064e-08
3.39109e-08
4.43972e-08
-2.198e-08
-4.52496e-08
2.28324e-08
4.7311e-08
-9.84124e-09
-4.7796e-08
1.03262e-08
4.86513e-08
2.454e-09
-4.87164e-08
-2.38892e-09
4.82362e-08
1.35164e-08
-4.78589e-08
-1.38937e-08
4.60893e-08
2.18524e-08
-4.53326e-08
-2.26091e-08
4.26256e-08
2.65431e-08
-4.16509e-08
-2.75178e-08
3.85902e-08
2.77972e-08
-3.76044e-08
-2.8783e-08
3.48008e-08
2.67588e-08
-3.39773e-08
-2.75823e-08
3.18115e-08
2.49305e-08
-3.12204e-08
-2.55216e-08
2.97595e-08
2.34261e-08
-2.93874e-08
-2.37982e-08
2.85375e-08
2.2759e-08
-2.83389e-08
-2.29576e-08
2.78807e-08
2.30982e-08
-2.77532e-08
-2.32257e-08
2.73622e-08
2.4071e-08
-2.72404e-08
-2.41928e-08
2.70775e-08
2.51018e-08
-2.71797e-08
-2.49996e-08
2.84853e-08
2.66602e-08
-2.93627e-08
-2.57828e-08
3.34078e-08
3.23353e-08
-3.47386e-08
-3.10045e-08
3.31828e-08
4.88332e-08
-2.92372e-08
-5.27787e-08
1.12313e-10
6.11657e-09
-5.96336e-09
-2.65525e-10
6.83044e-10
-6.63539e-09
-8.38623e-10
6.79097e-09
1.41722e-09
-9.76664e-09
-1.64931e-09
9.99873e-09
2.52382e-09
-1.45199e-08
-2.87217e-09
1.48683e-08
4.15737e-09
-2.06132e-08
-4.65717e-09
2.1113e-08
6.44965e-09
-2.76426e-08
-7.12783e-09
2.83208e-08
9.49362e-09
-3.50566e-08
-1.03661e-08
3.59291e-08
1.33338e-08
-4.21347e-08
-1.44032e-08
4.32041e-08
1.79574e-08
-4.79604e-08
-1.92102e-08
4.92131e-08
2.32749e-08
-5.13531e-08
-2.46718e-08
5.27499e-08
2.90751e-08
-5.11218e-08
-3.054e-08
5.25867e-08
3.49768e-08
-4.64163e-08
-3.63873e-08
4.78268e-08
4.04445e-08
-3.74688e-08
-4.16636e-08
3.86879e-08
4.49653e-08
-2.54958e-08
-4.58905e-08
2.6421e-08
4.8184e-08
-1.18938e-08
-4.87467e-08
1.24565e-08
4.98308e-08
2.09907e-09
-4.99624e-08
-1.96749e-09
4.96283e-08
1.49969e-08
-4.92724e-08
-1.53528e-08
4.7466e-08
2.49473e-08
-4.66624e-08
-2.5751e-08
4.37155e-08
3.05898e-08
-4.26361e-08
-3.16691e-08
3.92157e-08
3.19024e-08
-3.81123e-08
-3.30058e-08
3.50147e-08
3.01363e-08
-3.41281e-08
-3.10229e-08
3.18944e-08
2.7262e-08
-3.13222e-08
-2.78343e-08
3.0028e-08
2.47739e-08
-2.97457e-08
-2.50562e-08
2.9319e-08
2.3266e-08
-2.93195e-08
-2.32655e-08
2.96165e-08
2.32575e-08
-2.9746e-08
-2.31281e-08
2.9922e-08
2.44302e-08
-2.98545e-08
-2.44978e-08
2.93297e-08
2.47309e-08
-2.91745e-08
-2.48861e-08
2.98044e-08
2.20103e-08
-3.06091e-08
-2.12057e-08
3.1532e-08
2.76156e-08
-2.82537e-08
-3.08896e-08
-1.3175e-08
7.08845e-08
3.06859e-08
-8.83055e-08
1.06485e-10
6.73752e-09
-6.58095e-09
-2.63054e-10
6.69453e-10
-7.2518e-09
-8.20994e-10
7.40334e-09
1.38626e-09
-1.06876e-08
-1.61333e-09
1.09147e-08
2.46986e-09
-1.59034e-08
-2.81141e-09
1.62449e-08
4.073e-09
-2.25998e-08
-4.56421e-09
2.3091e-08
6.32811e-09
-3.03407e-08
-6.99631e-09
3.10089e-08
9.33061e-09
-3.85316e-08
-1.01928e-08
3.93939e-08
1.31313e-08
-4.64006e-08
-1.41926e-08
4.74619e-08
1.77307e-08
-5.29702e-08
-1.89825e-08
5.4222e-08
2.30637e-08
-5.69611e-08
-2.44742e-08
5.83716e-08
2.89512e-08
-5.70345e-08
-3.0452e-08
5.85352e-08
3.50345e-08
-5.2144e-08
-3.65032e-08
5.36128e-08
4.07627e-08
-4.2452e-08
-4.20543e-08
4.37436e-08
4.55917e-08
-2.93168e-08
-4.65988e-08
3.03238e-08
4.91571e-08
-1.42768e-08
-4.98107e-08
1.49304e-08
5.11733e-08
1.45156e-09
-5.13901e-08
-1.23484e-09
5.12563e-08
1.63734e-08
-5.09354e-08
-1.66943e-08
4.91066e-08
2.82398e-08
-4.825e-08
-2.90965e-08
4.50079e-08
3.51009e-08
-4.37925e-08
-3.63163e-08
3.98727e-08
3.65557e-08
-3.85957e-08
-3.78327e-08
3.50424e-08
3.38249e-08
-3.40508e-08
-3.48165e-08
3.16657e-08
2.9539e-08
-3.10992e-08
-3.01055e-08
2.99142e-08
2.58109e-08
-2.96756e-08
-2.60495e-08
2.95189e-08
2.294e-08
-2.97225e-08
-2.27364e-08
3.1121e-08
2.21419e-08
-3.1708e-08
-2.15548e-08
3.30104e-08
2.46693e-08
-3.30159e-08
-2.46638e-08
3.08968e-08
2.71592e-08
-2.93866e-08
-2.86694e-08
2.20694e-08
2.41726e-08
-1.87457e-08
-2.74963e-08
6.28684e-09
5.26693e-08
1.9473e-09
-6.08749e-08
-3.87025e-08
9.28516e-08
3.61214e-08
-9.0868e-08
9.96096e-11
7.37465e-09
-7.2136e-09
-2.60661e-10
6.54699e-10
-7.85143e-09
-8.0177e-10
7.9985e-09
1.35253e-09
-1.15879e-08
-1.57412e-09
1.18095e-08
2.411e-09
-1.72587e-08
-2.7451e-09
1.75928e-08
3.98083e-09
-2.45509e-08
-4.46261e-09
2.50326e-08
6.19509e-09
-3.29975e-08
-6.85226e-09
3.36546e-08
9.15166e-09
-4.19639e-08
-1.00024e-08
4.28146e-08
1.29077e-08
-5.06322e-08
-1.39595e-08
5.1684e-08
1.74778e-08
-5.79746e-08
-1.87274e-08
5.92242e-08
2.2823e-08
-6.26237e-08
-2.4247e-08
6.40477e-08
2.8801e-08
-6.30949e-08
-3.03403e-08
6.46341e-08
3.5082e-08
-5.81141e-08
-3.66151e-08
5.96473e-08
4.10984e-08
-4.77362e-08
-4.24699e-08
4.91077e-08
4.62669e-08
-3.34781e-08
-4.73643e-08
3.45755e-08
5.02197e-08
-1.70444e-08
-5.09782e-08
1.78029e-08
5.26765e-08
4.3012e-10
-5.30016e-08
-1.05094e-10
5.3143e-08
1.75813e-08
-5.28778e-08
-1.78464e-08
5.1057e-08
3.17501e-08
-5.01444e-08
-3.26627e-08
4.6556e-08
4.02066e-08
-4.51712e-08
-4.15913e-08
4.05725e-08
4.20177e-08
-3.90383e-08
-4.35519e-08
3.47798e-08
3.80173e-08
-3.36198e-08
-3.91772e-08
3.09246e-08
3.18156e-08
-3.03402e-08
-3.24e-08
2.91281e-08
2.68924e-08
-2.87379e-08
-2.72826e-08
2.7812e-08
2.20797e-08
-2.79647e-08
-2.1927e-08
3.07415e-08
1.88008e-08
-3.20281e-08
-1.75142e-08
3.61039e-08
2.41107e-08
-3.65009e-08
-2.37137e-08
3.33548e-08
3.50383e-08
-3.08243e-08
-3.75689e-08
1.76485e-08
4.44428e-08
-1.13543e-08
-5.0737e-08
-1.08813e-08
9.34954e-08
5.32693e-09
-8.79412e-08
2.00161e-08
9.66001e-08
-2.54854e-08
-9.11129e-08
9.15008e-11
8.03317e-09
-7.86619e-09
-2.58482e-10
6.38822e-10
-8.43249e-09
-7.80968e-10
8.57463e-09
1.31607e-09
-1.24655e-08
-1.53174e-09
1.26812e-08
2.34734e-09
-1.85832e-08
-2.67335e-09
1.89092e-08
3.88097e-09
-2.64629e-08
-4.35249e-09
2.69344e-08
6.05071e-09
-3.56085e-08
-6.69582e-09
3.62536e-08
8.95684e-09
-4.53482e-08
-9.79486e-09
4.61863e-08
1.2663e-08
-5.48237e-08
-1.37039e-08
5.58647e-08
1.71979e-08
-6.29684e-08
-1.8444e-08
6.42145e-08
2.25507e-08
-6.83395e-08
-2.39877e-08
6.97765e-08
2.86205e-08
-6.93127e-08
-3.02005e-08
7.08927e-08
3.51148e-08
-6.43508e-08
-3.67186e-08
6.59545e-08
4.14477e-08
-5.3351e-08
-4.29065e-08
5.48098e-08
4.69861e-08
-3.80127e-08
-4.81815e-08
3.92082e-08
5.13641e-08
-2.02525e-08
-5.22414e-08
2.11298e-08
5.43396e-08
-1.06635e-09
-5.48022e-08
1.52889e-09
5.53212e-08
1.85238e-08
-5.51428e-08
-1.87022e-08
5.33831e-08
3.54844e-08
-5.24152e-08
-3.64522e-08
4.84443e-08
4.60341e-08
-4.68635e-08
-4.76149e-08
4.1367e-08
4.86918e-08
-3.94339e-08
-5.06249e-08
3.39162e-08
4.30837e-08
-3.23962e-08
-4.46037e-08
2.88199e-08
3.41991e-08
-2.83554e-08
-3.46637e-08
2.90036e-08
2.8541e-08
-2.92408e-08
-2.83038e-08
3.15804e-08
2.08126e-08
-3.29295e-08
-1.94635e-08
4.77659e-08
1.30598e-08
-4.68903e-08
-1.3936e-08
5.66502e-08
2.19619e-08
-5.25209e-08
-1.04976e-08
3.49059e-08
4.76434e-08
-3.09694e-08
-1.33218e-08
1.81988e-08
6.7409e-08
-1.46285e-08
-1.95538e-08
9.12234e-09
7.90816e-08
-9.41058e-09
-2.82188e-08
1.26548e-08
7.56349e-08
-1.18463e-08
-3.19402e-08
8.18942e-11
8.71967e-09
-8.54499e-09
-2.56582e-10
6.21865e-10
-8.99312e-09
-7.58598e-10
9.12986e-09
1.27694e-09
-1.33189e-08
-1.48626e-09
1.35282e-08
2.27895e-09
-1.98744e-08
-2.59626e-09
2.01917e-08
3.77353e-09
-2.83326e-08
-4.23397e-09
2.87931e-08
5.89509e-09
-3.81697e-08
-6.5271e-09
3.88017e-08
8.74621e-09
-4.86798e-08
-9.57026e-09
4.95039e-08
1.23969e-08
-5.89695e-08
-1.34254e-08
5.9998e-08
1.68901e-08
-6.79459e-08
-1.81311e-08
6.9187e-08
2.22445e-08
-7.41058e-08
-2.36934e-08
7.55547e-08
2.84051e-08
-7.56965e-08
-3.00278e-08
7.73192e-08
3.51277e-08
-7.08794e-08
-3.68085e-08
7.25602e-08
4.18064e-08
-5.93267e-08
-4.33603e-08
6.08805e-08
4.77435e-08
-4.29502e-08
-4.90438e-08
4.42505e-08
5.25795e-08
-2.39558e-08
-5.35887e-08
2.49649e-08
5.61555e-08
-3.16362e-09
-5.67907e-08
3.7988e-09
5.78272e-08
1.90549e-08
-5.77825e-08
-1.90996e-08
5.61682e-08
3.9436e-08
-5.51474e-08
-4.04568e-08
5.07824e-08
5.26594e-08
-4.90041e-08
-5.44377e-08
4.23159e-08
5.73936e-08
-3.95888e-08
-6.01206e-08
3.04624e-08
5.03466e-08
-2.80686e-08
-5.27404e-08
2.68657e-08
3.23485e-08
-3.01172e-08
-2.90969e-08
3.66782e-08
1.91354e-08
-3.09807e-08
-2.48336e-08
3.31625e-10
4.6111e-09
6.1286e-12
-2.0818e-12
2.14633e-16
2.02541e-14
-2.06089e-14
-4.21049e-17
-3.5454e-17
1.40345e-16
7.53813e-17
-1.61174e-16
-1.1686e-14
1.61046e-14
3.36087e-15
-3.10008e-14
-5.13336e-17
-8.15335e-16
-2.71532e-16
4.41369e-17
3.21001e-15
-1.28579e-14
-2.72713e-15
1.42811e-14
2.50158e-17
-2.33336e-16
-1.30684e-15
2.1034e-15
7.0497e-11
9.44246e-09
-9.25784e-09
-2.55115e-10
6.03949e-10
-9.53133e-09
-7.34757e-10
9.66214e-09
1.23536e-09
-1.41461e-08
-1.43792e-09
1.43487e-08
2.20621e-09
-2.11299e-08
-2.51423e-09
2.14379e-08
3.65907e-09
-3.01568e-08
-4.10766e-09
3.06054e-08
5.72906e-09
-4.06769e-08
-6.34699e-09
4.12948e-08
8.52089e-09
-5.19536e-08
-9.32976e-09
5.27625e-08
1.21108e-08
-6.30631e-08
-1.31254e-08
6.40776e-08
1.65555e-08
-7.29003e-08
-1.77897e-08
7.41345e-08
2.19047e-08
-7.99176e-08
-2.33641e-08
8.1377e-08
2.81532e-08
-8.22529e-08
-2.982e-08
8.39197e-08
3.5119e-08
-7.77264e-08
-3.68839e-08
7.94913e-08
4.21756e-08
-6.56941e-08
-4.38324e-08
6.73509e-08
4.85396e-08
-4.83155e-08
-4.99502e-08
4.97261e-08
5.38579e-08
-2.82029e-08
-5.50091e-08
2.93542e-08
5.81132e-08
-6.01118e-09
-5.8962e-08
6.85997e-09
6.07061e-08
1.89532e-08
-6.08669e-08
-1.87924e-08
5.95269e-08
4.36017e-08
-5.84476e-08
-4.4681e-08
5.36588e-08
6.00388e-08
-5.17025e-08
-6.19952e-08
4.2914e-08
7.10146e-08
-3.78759e-08
-7.60527e-08
1.88123e-08
6.03121e-08
-1.74676e-08
-6.16568e-08
2.45364e-08
2.84426e-08
-2.54445e-09
-2.84626e-08
-7.09343e-12
1.328e-11
-1.09694e-12
-2.42867e-12
-1.36242e-12
1.12335e-12
2.81197e-12
-9.74867e-13
-9.62535e-17
2.31991e-17
3.20991e-16
1.8856e-16
-5.55307e-16
4.24081e-16
5.57697e-16
-3.47474e-16
-4.79899e-13
7.59441e-14
2.52536e-13
-9.72375e-13
-5.26671e-16
5.78098e-15
1.67881e-15
-4.40078e-15
4.50218e-16
-3.02797e-15
-4.92063e-16
-1.33688e-15
-9.35772e-15
4.94934e-13
2.66984e-14
-6.61795e-16
5.69857e-11
1.02119e-08
-1.00145e-08
-2.54359e-10
5.84979e-10
-1.00449e-08
-7.09261e-10
1.01692e-08
1.19109e-09
-1.49456e-08
-1.38646e-09
1.5141e-08
2.12869e-09
-2.23472e-08
-2.42678e-09
2.26453e-08
3.53683e-09
-3.19322e-08
-3.97269e-09
3.23681e-08
5.55138e-09
-4.31259e-08
-6.15409e-09
4.37286e-08
8.27893e-09
-5.51643e-08
-9.07121e-09
5.59566e-08
1.18017e-08
-6.70977e-08
-1.28004e-08
6.80964e-08
1.61894e-08
-7.78234e-08
-1.74144e-08
7.90484e-08
2.15236e-08
-8.57674e-08
-2.2991e-08
8.72348e-08
2.78524e-08
-8.89861e-08
-2.95636e-08
9.06973e-08
3.50735e-08
-8.49199e-08
-3.69297e-08
8.6776e-08
4.25411e-08
-7.24849e-08
-4.4309e-08
7.42529e-08
4.93576e-08
-5.41262e-08
-5.08813e-08
5.565e-08
5.51677e-08
-3.3028e-08
-5.64663e-08
3.43266e-08
6.01644e-08
-9.77857e-09
-6.12707e-08
1.08849e-08
6.39763e-08
1.78756e-08
-6.44564e-08
-1.73956e-08
6.36017e-08
4.80472e-08
-6.24196e-08
-4.92294e-08
5.6845e-08
6.8262e-08
-5.4529e-08
-7.05781e-08
4.19994e-08
9.65931e-08
-3.42707e-08
-1.04322e-07
4.47937e-08
4.25969e-08
-3.02746e-08
-3.31738e-08
-4.39979e-12
2.0374e-11
-1.79049e-13
-4.35206e-12
-8.21594e-15
5.56854e-15
3.46256e-14
-3.66873e-15
-2.61043e-14
-3.014e-15
2.3307e-14
5.75574e-15
-1.61474e-12
-4.78639e-13
1.51771e-12
6.50152e-13
-2.53496e-14
8.18566e-16
2.09777e-14
3.39925e-16
-1.06947e-12
5.43126e-13
1.39678e-13
-4.75713e-13
-1.28298e-16
1.4749e-16
8.23164e-17
-1.20838e-16
-8.57097e-16
7.22701e-15
2.67486e-15
-3.76801e-16
-5.76249e-16
1.09899e-15
2.17781e-16
-1.3172e-15
4.09539e-11
1.10404e-08
-1.08269e-08
-2.54422e-10
5.6502e-10
-1.05315e-08
-6.82106e-10
1.06485e-08
1.14423e-09
-1.57158e-08
-1.33198e-09
1.59035e-08
2.04653e-09
-2.35239e-08
-2.33405e-09
2.38114e-08
3.40701e-09
-3.36555e-08
-3.8293e-09
3.40778e-08
5.36229e-09
-4.55125e-08
-5.94865e-09
4.60988e-08
8.02053e-09
-5.83068e-08
-8.79479e-09
5.9081e-08
1.14696e-08
-7.10663e-08
-1.24504e-08
7.20471e-08
1.57911e-08
-8.27062e-08
-1.70042e-08
8.39194e-08
2.10989e-08
-9.16451e-08
-2.25711e-08
9.31173e-08
2.74963e-08
-9.5897e-08
-2.92514e-08
9.7652e-08
3.49833e-08
-9.24907e-08
-3.69388e-08
9.44461e-08
4.28992e-08
-7.97332e-08
-4.47869e-08
8.16208e-08
5.01928e-08
-6.03921e-08
-5.18305e-08
6.20298e-08
5.6487e-08
-3.84414e-08
-5.79299e-08
3.98843e-08
6.22509e-08
-1.46392e-08
-6.36545e-08
1.60428e-08
6.76459e-08
1.52728e-08
-6.86288e-08
-1.42899e-08
6.8665e-08
5.30906e-08
-6.72173e-08
-5.45384e-08
5.92257e-08
7.90021e-08
-5.56617e-08
-8.25662e-08
4.1721e-08
1.09063e-07
-5.477e-08
-9.60134e-08
-4.05474e-10
4.48265e-10
2.67069e-11
-7.14789e-11
-1.11545e-14
2.47734e-14
1.39612e-14
-1.23764e-14
-2.19203e-14
1.736e-15
1.51551e-14
-1.14465e-15
-1.70633e-14
-3.30587e-15
1.9079e-14
2.08036e-14
-1.87577e-14
-2.71025e-14
2.88808e-14
4.96723e-14
-6.60223e-14
-2.3218e-13
9.63451e-13
3.72285e-13
-1.32157e-15
2.74047e-16
6.83571e-16
-3.70617e-17
-8.69363e-17
5.17206e-17
5.3597e-17
-4.48199e-17
-4.0806e-17
1.09799e-16
6.07265e-17
-4.52846e-17
-4.09897e-18
1.32557e-16
4.25579e-17
-3.07907e-17
2.21379e-11
1.19432e-08
-1.17097e-08
-2.55671e-10
5.44268e-10
-1.09882e-08
-6.53435e-10
1.10974e-08
1.09513e-09
-1.6455e-08
-1.27489e-09
1.66347e-08
1.96035e-09
-2.46575e-08
-2.23675e-09
2.49339e-08
3.27058e-09
-3.53236e-08
-3.67856e-09
3.57315e-08
5.16331e-09
-4.78323e-08
-5.73229e-09
4.84013e-08
7.74784e-09
-6.13755e-08
-8.50282e-09
6.21305e-08
1.11174e-08
-7.49609e-08
-1.20785e-08
7.5922e-08
1.53637e-08
-8.75382e-08
-1.65623e-08
8.87368e-08
2.06333e-08
-9.75374e-08
-2.21067e-08
9.90108e-08
2.70846e-08
-1.02982e-07
-2.8882e-08
1.04779e-07
3.48478e-08
-1.00473e-07
-3.69119e-08
1.02537e-07
4.3257e-08
-8.74763e-08
-4.5275e-08
8.94942e-08
5.10553e-08
-6.71135e-08
-5.2806e-08
6.88642e-08
5.78068e-08
-4.44158e-08
-5.93802e-08
4.59891e-08
6.43002e-08
-2.07302e-08
-6.60222e-08
2.24522e-08
7.1667e-08
1.0266e-08
-7.34376e-08
-8.49542e-09
7.52914e-08
5.97403e-08
-7.31351e-08
-6.18966e-08
5.81701e-08
9.74564e-08
-5.07233e-08
-1.04903e-07
-2.89907e-08
3.23995e-08
5.07191e-10
-3.63939e-09
-5.06285e-14
1.40342e-13
9.98571e-15
-4.49628e-14
-9.21228e-15
7.37252e-15
9.91719e-15
-6.19689e-15
-2.58524e-12
-1.64342e-13
3.50985e-12
2.61599e-13
-2.21367e-12
-8.20756e-12
1.61745e-12
8.77193e-12
-5.30669e-13
-9.62755e-12
9.08804e-13
8.88217e-12
-6.44873e-16
-5.90973e-16
5.51461e-16
7.18036e-16
-1.63687e-15
-5.46906e-17
6.72764e-16
9.30323e-17
-5.07824e-17
2.16433e-17
3.11769e-17
-1.51232e-17
-2.22039e-17
2.3195e-17
1.58983e-17
-1.93719e-17
-3.15017e-18
6.42834e-18
2.42177e-18
-4.48139e-18
1.53959e-12
1.29354e-08
-1.26785e-08
-2.5845e-10
5.22715e-10
-1.1412e-08
-6.23128e-10
1.15124e-08
1.04375e-09
-1.71616e-08
-1.21514e-09
1.73329e-08
1.87005e-09
-2.57458e-08
-2.13476e-09
2.60105e-08
3.12729e-09
-3.69331e-08
-3.52017e-09
3.7326e-08
4.95399e-09
-5.00809e-08
-5.5045e-09
5.06314e-08
7.46004e-09
-6.4365e-08
-8.19438e-09
6.50993e-08
1.07437e-08
-7.87734e-08
-1.1683e-08
7.97127e-08
1.49045e-08
-9.23075e-08
-1.60855e-08
9.34885e-08
2.01224e-08
-1.03428e-07
-2.15923e-08
1.04898e-07
2.6606e-08
-1.10231e-07
-2.84421e-08
1.12067e-07
3.4652e-08
-1.08905e-07
-3.68354e-08
1.11088e-07
4.36068e-08
-9.57579e-08
-4.57673e-08
9.79184e-08
5.19404e-08
-7.42823e-08
-5.38009e-08
7.61429e-08
5.91003e-08
-5.08742e-08
-6.07762e-08
5.25501e-08
6.61872e-08
-2.80787e-08
-6.82044e-08
3.00959e-08
7.57897e-08
1.55999e-09
-7.87235e-08
1.37384e-09
8.42906e-08
7.08349e-08
-7.96852e-08