/*--------------------------------*- C++ -*----------------------------------*\
| =========                 |                                                 |
| \\      /  F ield         | OpenFOAM: The Open Source CFD Toolbox           |
|  \\    /   O peration     | Version:  2.4.0                                 |
|   \\  /    A nd           | Web:      www.OpenFOAM.org                      |
|    \\/     M anipulation  |                                                 |
\*---------------------------------------------------------------------------*/
FoamFile
{
    version     2.0;
    format      ascii;
    class       volScalarField;
    location    "0.016";
    object      p_rgh;
}
// * * * * * * * * * * * * * * * * * * * * * * * * * * * * * * * * * * * * * //

dimensions      [1 -1 -2 0 0 0 0];

internalField   nonuniform List<scalar> 
3600
(
96.859
96.856
96.8612
96.8728
96.8913
96.918
96.9547
97.0032
97.0649
97.138
97.2338
97.3169
97.4343
97.5124
97.5982
97.6534
97.6959
97.7203
97.734
97.7379
97.7364
97.7322
97.7253
97.72
97.7127
97.7093
97.7038
97.7028
97.6994
97.6995
96.8462
96.8487
96.8546
96.8657
96.884
96.9107
96.9477
96.9967
97.0596
97.1326
97.2323
97.314
97.435
97.513
97.5997
97.6544
97.6969
97.7209
97.7344
97.7381
97.7365
97.7323
97.7253
97.7201
97.7127
97.7093
97.7038
97.7028
97.6994
97.6995
96.8245
96.8273
96.8341
96.8462
96.8653
96.893
96.9313
96.982
97.0479
97.1217
97.228
97.3088
97.437
97.5137
97.6032
97.6564
97.6988
97.7221
97.7351
97.7385
97.7367
97.7324
97.7253
97.7201
97.7127
97.7093
97.7038
97.7028
97.6994
97.6995
96.7966
96.7983
96.8053
96.818
96.8381
96.867
96.9071
96.9599
97.0305
97.1053
97.2216
97.3015
97.4407
97.5148
97.6089
97.6595
97.7017
97.7239
97.7362
97.7391
97.737
97.7326
97.7254
97.7201
97.7126
97.7093
97.7038
97.7027
97.6994
97.6995
96.7572
96.7592
96.7666
96.78
96.8012
96.8317
96.8741
96.9294
97.0073
97.0829
97.2128
97.2924
97.4462
97.5166
97.6168
97.6638
97.7056
97.7263
97.7376
97.7399
97.7374
97.7327
97.7254
97.72
97.7126
97.7093
97.7037
97.7027
97.6994
97.6995
96.7067
96.709
96.717
96.7313
96.7538
96.7863
96.8319
96.8898
96.9779
97.0539
97.201
97.2821
97.4538
97.5192
97.6271
97.6692
97.7106
97.7293
97.7394
97.7408
97.7379
97.7329
97.7254
97.72
97.7125
97.7092
97.7037
97.7027
97.6993
97.6995
96.6445
96.6472
96.6558
96.6711
96.6953
96.7301
96.7799
96.8397
96.942
97.0178
97.1845
97.2721
97.4637
97.5231
97.6399
97.6757
97.7168
97.7328
97.7415
97.7419
97.7384
97.7331
97.7255
97.7199
97.7125
97.7091
97.7037
97.7026
97.6993
97.6995
96.5697
96.5729
96.5823
96.5986
96.6249
96.6617
96.7175
96.7781
96.8992
96.9741
97.1678
97.2589
97.4763
97.5287
97.6556
97.6833
97.7242
97.7368
97.7439
97.7432
97.739
97.7333
97.7255
97.7199
97.7124
97.709
97.7036
97.7026
97.6993
97.6994
96.4811
96.4855
96.4956
96.5128
96.5416
96.5793
96.6446
96.7031
96.849
96.9216
97.1497
97.2439
97.4924
97.5364
97.6744
97.6922
97.7328
97.7412
97.7466
97.7446
97.7397
97.7335
97.7256
97.7198
97.7124
97.7089
97.7036
97.7025
97.6993
97.6994
96.3784
96.3834
96.3946
96.4125
96.4446
96.4806
96.5603
96.6128
96.7904
96.8592
97.1297
97.2279
97.5127
97.5471
97.6965
97.7024
97.7426
97.7461
97.7496
97.7461
97.7404
97.7338
97.7256
97.7197
97.7123
97.7088
97.7035
97.7024
97.6993
97.6994
96.2612
96.2667
96.2787
96.2957
96.3337
96.3639
96.463
96.5044
96.7222
96.7854
97.1072
97.2117
97.5384
97.5615
97.7223
97.7142
97.7535
97.7512
97.7528
97.7476
97.7412
97.734
97.7257
97.7196
97.7122
97.7086
97.7035
97.7023
97.6993
97.6993
96.1225
96.1284
96.1444
96.1598
96.2073
96.2267
96.3507
96.3747
96.6429
96.6983
97.0819
97.1962
97.5706
97.5807
97.7522
97.7276
97.7653
97.7566
97.7561
97.7493
97.742
97.7343
97.7257
97.7195
97.7121
97.7085
97.7034
97.7022
97.6993
97.6993
95.9752
95.9808
95.995
96.0086
96.0647
96.0669
96.2203
96.2199
96.5496
96.5957
97.053
97.1829
97.611
97.606
97.7865
97.7427
97.7781
97.7622
97.7596
97.751
97.7428
97.7346
97.7257
97.7193
97.7119
97.7083
97.7033
97.7021
97.6993
97.6992
95.7853
95.7899
95.8254
95.8191
95.9046
95.8783
96.0674
96.033
96.4387
96.4747
97.0193
97.1736
97.6617
97.6391
97.8255
97.7596
97.7915
97.7679
97.7632
97.7528
97.7436
97.7348
97.7257
97.7192
97.7118
97.7081
97.7033
97.702
97.6992
97.6992
95.6037
95.6021
95.6099
95.6505
95.7041
95.6776
95.885
95.812
96.3052
96.332
96.9795
97.1706
97.7253
97.6819
97.8697
97.7782
97.8052
97.7737
97.7668
97.7545
97.7444
97.7351
97.7257
97.719
97.7116
97.7079
97.7032
97.7019
97.6992
97.6991
95.3401
95.3156
95.4239
95.3581
95.5564
95.3864
95.6841
95.5308
96.1427
96.1622
96.9316
97.1773
97.8053
97.7366
97.9193
97.7982
97.8191
97.7794
97.7703
97.7563
97.7452
97.7353
97.7256
97.7188
97.7115
97.7077
97.7031
97.7018
97.6992
97.6991
95.2885
95.1402
95.1116
95.2816
95.2277
95.1871
95.3778
95.216
95.9376
95.9624
96.8729
97.1981
97.9062
97.8063
97.9745
97.8226
97.8325
97.7849
97.7736
97.758
97.7459
97.7355
97.7255
97.7186
97.7113
97.7075
97.703
97.7016
97.6992
97.699
94.5691
94.4091
94.7452
94.6517
95.1143
94.6949
95.1069
94.7683
95.6889
95.721
96.8007
97.2385
98.0335
97.8942
98.035
97.8448
97.845
97.79
97.7766
97.7596
97.7465
97.7357
97.7254
97.7184
97.711
97.7073
97.7029
97.7015
97.6991
97.699
95.4596
94.2479
94.423
94.9623
94.6843
94.5423
94.5915
94.2857
95.3557
95.4389
96.7109
97.307
98.1957
98.0064
98.1007
97.8671
97.8558
97.7947
97.7794
97.7612
97.747
97.7359
97.7252
97.7181
97.7108
97.707
97.7028
97.7013
97.6991
97.6989
91.0593
92.3294
94.8291
92.9094
94.5481
93.765
94.0929
93.5662
94.9428
95.0958
96.6001
97.411
98.3979
98.1385
98.1691
97.8879
97.8642
97.7987
97.7816
97.7627
97.7475
97.7361
97.725
97.7179
97.7105
97.7067
97.7026
97.7012
97.6991
97.6988
72.3848
90.249
94.8268
94.0809
93.4462
93.3438
93.1011
92.6687
94.3912
94.6995
96.4705
97.5683
98.663
98.3218
98.2422
97.9059
97.8694
97.8019
97.7834
97.7642
97.7478
97.7363
97.7247
97.7176
97.7102
97.7065
97.7025
97.701
97.699
97.6988
78.0555
85.8621
99.0049
94.3362
92.8453
92.312
91.904
91.4235
93.659
94.2101
96.2792
97.7957
98.9853
98.5141
98.3047
97.917
97.8701
97.8043
97.7846
97.7657
97.7479
97.7364
97.7243
97.7173
97.7099
97.7062
97.7024
97.7009
97.699
97.6987
28.3989
69.8322
97.6915
92.9197
87.568
91.36
88.9978
89.5511
92.7816
93.6641
96.0536
98.1701
99.4287
98.8059
98.3809
97.9209
97.8656
97.8056
97.7852
97.7671
97.7479
97.7366
97.7239
97.717
97.7096
97.7059
97.7022
97.7007
97.699
97.6986
63.279
108.895
107.17
94.5063
83.5422
84.0047
87.0097
86.721
91.6802
92.9896
95.7043
98.6303
99.9667
99.0836
98.4109
97.905
97.8536
97.8059
97.7852
97.7685
97.7477
97.7367
97.7234
97.7167
97.7092
97.7055
97.702
97.7005
97.6989
97.6985
117.632
114.602
117.283
79.407
63.1391
78.8393
81.894
83.8262
90.2528
92.3005
95.3921
99.3164
100.706
99.5817
98.4609
97.876
97.8346
97.8058
97.7848
97.7702
97.7473
97.7369
97.7228
97.7164
97.7088
97.7052
97.7019
97.7003
97.6989
97.6985
132.327
127.083
104.361
40.4341
-2.53317
5.88757
63.6657
76.7045
88.5424
91.6091
94.9394
100.1
101.616
99.935
98.3763
97.8034
97.8041
97.8052
97.7838
97.7719
97.7466
97.7371
97.7221
97.7161
97.7083
97.7049
97.7017
97.7001
97.6988
97.6984
136.912
134.791
134.045
4.83197
1.61294
4.42961
16.151
56.4629
87.6676
90.7731
94.87
101.092
102.837
100.619
98.3406
97.7168
97.7668
97.8061
97.7827
97.774
97.7457
97.7374
97.7212
97.7158
97.7078
97.7046
97.7015
97.7
97.6988
97.6983
164.669
171.116
125.548
3.45055
-0.294146
-0.344264
0.143029
11.1651
72.6415
90.326
93.5987
102.062
104.476
101.19
97.9411
97.5117
97.7084
97.8095
97.7805
97.7762
97.744
97.7374
97.72
97.7153
97.7072
97.7041
97.7013
97.6997
97.6987
97.6982
149.091
139.728
42.0002
-0.158253
-0.276782
1.0389
0.319625
0.61952
14.914
80.0699
96.6647
102.645
106.877
102.021
97.7364
97.3634
97.6706
97.8175
97.7854
97.7801
97.7453
97.7387
97.7199
97.7156
97.707
97.704
97.7012
97.6996
97.6987
97.6982
-73.4335
1.0212
0.777809
1.66258
0.276271
0.34471
0.330987
0.40125
-0.42053
9.95725
68.977
99.5543
110.301
102.866
96.5412
96.805
97.5619
97.8325
97.7762
97.7804
97.738
97.7369
97.7165
97.7143
97.7055
97.7032
97.7007
97.6993
97.6985
97.698
97.698
97.6987
97.6979
97.6981
97.6978
97.6979
97.6977
97.6978
97.6977
97.6978
97.6977
97.6978
97.6977
97.6978
97.6977
97.6978
97.6978
97.6977
97.6978
97.6977
97.6978
97.6977
97.6978
97.6977
97.6978
97.6978
97.6977
97.6978
97.6977
97.6978
97.698
97.6987
97.6979
97.6981
97.6978
97.6979
97.6977
97.6978
97.6977
97.6978
97.6977
97.6978
97.6977
97.6978
97.6977
97.6978
97.6978
97.6977
97.6978
97.6977
97.6978
97.6977
97.6978
97.6977
97.6978
97.6978
97.6977
97.6978
97.6977
97.6978
97.698
97.6987
97.6979
97.6981
97.6978
97.6979
97.6977
97.6978
97.6977
97.6978
97.6977
97.6978
97.6977
97.6978
97.6978
97.6978
97.6978
97.6977
97.6978
97.6977
97.6978
97.6977
97.6978
97.6977
97.6978
97.6978
97.6977
97.6978
97.6977
97.6978
97.698
97.6987
97.6979
97.6981
97.6978
97.6979
97.6977
97.6978
97.6977
97.6978
97.6977
97.6978
97.6977
97.6978
97.6978
97.6978
97.6978
97.6977
97.6978
97.6977
97.6978
97.6977
97.6978
97.6977
97.6978
97.6978
97.6977
97.6978
97.6977
97.6978
97.6979
97.6987
97.6979
97.6981
97.6978
97.6979
97.6977
97.6978
97.6977
97.6978
97.6977
97.6978
97.6977
97.6978
97.6978
97.6978
97.6978
97.6977
97.6978
97.6977
97.6978
97.6977
97.6978
97.6977
97.6978
97.6978
97.6977
97.6978
97.6977
97.6978
97.6979
97.6987
97.6979
97.6981
97.6978
97.6979
97.6977
97.6978
97.6977
97.6978
97.6977
97.6978
97.6977
97.6978
97.6978
97.6978
97.6978
97.6977
97.6978
97.6977
97.6978
97.6977
97.6978
97.6977
97.6978
97.6978
97.6977
97.6978
97.6977
97.6978
97.698
97.6986
97.6979
97.6981
97.6978
97.6979
97.6977
97.6978
97.6977
97.6978
97.6977
97.6978
97.6977
97.6978
97.6978
97.6978
97.6978
97.6977
97.6978
97.6977
97.6978
97.6977
97.6978
97.6977
97.6978
97.6978
97.6977
97.6978
97.6977
97.6978
97.698
97.6986
97.6979
97.6981
97.6978
97.6979
97.6977
97.6978
97.6977
97.6978
97.6977
97.6978
97.6977
97.6978
97.6978
97.6978
97.6978
97.6977
97.6978
97.6977
97.6978
97.6977
97.6978
97.6977
97.6978
97.6978
97.6977
97.6978
97.6977
97.6978
97.698
97.6986
97.6979
97.6981
97.6978
97.6979
97.6977
97.6978
97.6977
97.6978
97.6977
97.6978
97.6977
97.6978
97.6978
97.6978
97.6978
97.6977
97.6978
97.6977
97.6978
97.6977
97.6978
97.6977
97.6978
97.6978
97.6977
97.6978
97.6977
97.6978
97.698
97.6985
97.6979
97.6981
97.6978
97.6979
97.6977
97.6978
97.6977
97.6978
97.6977
97.6978
97.6977
97.6978
97.6978
97.6978
97.6978
97.6977
97.6978
97.6977
97.6978
97.6977
97.6978
97.6977
97.6978
97.6978
97.6977
97.6978
97.6977
97.6978
97.698
97.6985
97.6979
97.6981
97.6978
97.6979
97.6977
97.6978
97.6977
97.6978
97.6977
97.6978
97.6977
97.6978
97.6978
97.6978
97.6978
97.6977
97.6978
97.6977
97.6978
97.6977
97.6978
97.6977
97.6978
97.6978
97.6977
97.6978
97.6977
97.6978
97.698
97.6985
97.6979
97.698
97.6978
97.6978
97.6977
97.6978
97.6977
97.6978
97.6977
97.6978
97.6977
97.6978
97.6978
97.6978
97.6978
97.6977
97.6978
97.6977
97.6978
97.6977
97.6978
97.6977
97.6978
97.6978
97.6977
97.6978
97.6977
97.6978
97.698
97.6985
97.6979
97.698
97.6978
97.6978
97.6977
97.6978
97.6977
97.6978
97.6977
97.6978
97.6977
97.6978
97.6978
97.6978
97.6978
97.6977
97.6978
97.6977
97.6978
97.6977
97.6978
97.6978
97.6978
97.6978
97.6977
97.6978
97.6977
97.6978
97.698
97.6984
97.6979
97.698
97.6978
97.6978
97.6977
97.6978
97.6977
97.6978
97.6977
97.6978
97.6977
97.6978
97.6978
97.6978
97.6978
97.6977
97.6978
97.6977
97.6978
97.6977
97.6978
97.6977
97.6978
97.6978
97.6977
97.6978
97.6977
97.6978
97.698
97.6984
97.6979
97.698
97.6978
97.6978
97.6977
97.6978
97.6977
97.6978
97.6977
97.6978
97.6977
97.6978
97.6978
97.6978
97.6978
97.6977
97.6978
97.6977
97.6978
97.6977
97.6978
97.6978
97.6978
97.6978
97.6977
97.6978
97.6977
97.6978
97.698
97.6983
97.6979
97.698
97.6978
97.6978
97.6977
97.6978
97.6977
97.6978
97.6977
97.6978
97.6977
97.6978
97.6978
97.6978
97.6978
97.6977
97.6978
97.6977
97.6978
97.6977
97.6978
97.6978
97.6978
97.6978
97.6977
97.6978
97.6977
97.6978
97.698
97.6983
97.6979
97.698
97.6978
97.6978
97.6977
97.6978
97.6977
97.6977
97.6977
97.6978
97.6977
97.6978
97.6978
97.6978
97.6978
97.6977
97.6978
97.6977
97.6978
97.6977
97.6978
97.6978
97.6978
97.6978
97.6978
97.6978
97.6977
97.6978
97.698
97.6983
97.6979
97.6979
97.6978
97.6978
97.6977
97.6978
97.6977
97.6977
97.6977
97.6978
97.6977
97.6978
97.6978
97.6978
97.6978
97.6977
97.6978
97.6977
97.6978
97.6977
97.6978
97.6978
97.6978
97.6978
97.6978
97.6978
97.6977
97.6978
97.698
97.6982
97.6979
97.6979
97.6978
97.6978
97.6977
97.6977
97.6977
97.6977
97.6977
97.6978
97.6977
97.6978
97.6978
97.6978
97.6978
97.6977
97.6978
97.6977
97.6978
97.6978
97.6978
97.6978
97.6978
97.6978
97.6978
97.6978
97.6977
97.6978
97.698
97.6982
97.6979
97.6979
97.6978
97.6978
97.6977
97.6977
97.6977
97.6977
97.6977
97.6977
97.6977
97.6978
97.6978
97.6978
97.6978
97.6977
97.6978
97.6977
97.6978
97.6978
97.6978
97.6978
97.6978
97.6978
97.6978
97.6978
97.6977
97.6978
97.698
97.6982
97.6979
97.6979
97.6978
97.6978
97.6977
97.6977
97.6977
97.6977
97.6977
97.6977
97.6977
97.6978
97.6978
97.6978
97.6978
97.6978
97.6978
97.6978
97.6978
97.6978
97.6978
97.6978
97.6978
97.6978
97.6978
97.6978
97.6978
97.6978
97.698
97.6981
97.6979
97.6979
97.6978
97.6978
97.6977
97.6977
97.6977
97.6977
97.6977
97.6977
97.6977
97.6978
97.6978
97.6978
97.6978
97.6978
97.6978
97.6978
97.6978
97.6978
97.6978
97.6978
97.6978
97.6978
97.6978
97.6978
97.6977
97.6978
97.698
97.6981
97.6979
97.6979
97.6978
97.6978
97.6977
97.6977
97.6977
97.6977
97.6977
97.6977
97.6977
97.6978
97.6978
97.6978
97.6978
97.6978
97.6978
97.6978
97.6978
97.6978
97.6978
97.6978
97.6978
97.6978
97.6978
97.6978
97.6978
97.6978
97.698
97.698
97.6979
97.6978
97.6978
97.6978
97.6977
97.6977
97.6977
97.6977
97.6977
97.6977
97.6977
97.6978
97.6978
97.6978
97.6978
97.6978
97.6978
97.6978
97.6978
97.6978
97.6978
97.6978
97.6978
97.6978
97.6978
97.6978
97.6977
97.6978
97.698
97.698
97.6979
97.6978
97.6978
97.6978
97.6977
97.6977
97.6977
97.6977
97.6977
97.6977
97.6977
97.6978
97.6978
97.6978
97.6978
97.6978
97.6978
97.6978
97.6978
97.6978
97.6978
97.6978
97.6978
97.6978
97.6978
97.6978
97.6977
97.6978
97.698
97.698
97.6978
97.6978
97.6978
97.6977
97.6977
97.6977
97.6977
97.6977
97.6977
97.6977
97.6977
97.6977
97.6978
97.6978
97.6978
97.6978
97.6978
97.6978
97.6978
97.6978
97.6978
97.6978
97.6978
97.6978
97.6978
97.6978
97.6977
97.6978
97.698
97.6979
97.6978
97.6978
97.6978
97.6977
97.6977
97.6977
97.6977
97.6977
97.6977
97.6977
97.6977
97.6978
97.6978
97.6978
97.6978
97.6978
97.6978
97.6978
97.6978
97.6978
97.6978
97.6978
97.6978
97.6978
97.6978
97.6978
97.6977
97.6978
97.6979
97.6979
97.6978
97.6978
97.6977
97.6977
97.6977
97.6977
97.6977
97.6977
97.6977
97.6977
97.6977
97.6977
97.6978
97.6978
97.6978
97.6978
97.6978
97.6978
97.6978
97.6978
97.6978
97.6978
97.6978
97.6978
97.6978
97.6978
97.6977
97.6978
97.6979
97.6979
97.6978
97.6978
97.6977
97.6977
97.6977
97.6977
97.6977
97.6977
97.6977
97.6977
97.6977
97.6977
97.6978
97.6978
97.6978
97.6978
97.6978
97.6978
97.6978
97.6978
97.6978
97.6978
97.6978
97.6978
97.6978
97.6978
97.6977
97.6978
97.6979
97.6978
97.6978
97.6977
97.6977
97.6977
97.6977
97.6977
97.6977
97.6977
97.6977
97.6977
97.6977
97.6977
97.6978
97.6978
97.6978
97.6978
97.6978
97.6978
97.6978
97.6978
97.6978
97.6978
97.6978
97.6978
97.6977
97.6978
97.6974
97.6978
63.5439
0.841766
1.42557
1.28216
1.23501
1.20139
0.850727
0.294143
-0.623815
-1.80937
-0.216594
41.5874
76.5566
43.5488
13.8366
5.74606
3.65268
2.70444
1.91689
1.36507
0.927079
0.636523
0.4092
0.265781
0.158731
0.0947527
0.0521444
0.0282019
0.0135021
0.00739057
-1.33118
-0.104622
0.308375
0.371169
0.419611
0.146993
-0.0826977
-0.368219
-1.31211
0.472253
-1.11797
-1.25997
2.34598
0.0978444
-0.102365
0.0568611
-0.0558173
0.0263863
-0.0287826
0.010555
-0.0135518
0.0040393
-0.00522106
0.00143841
-0.0015213
-3.2608e-05
-0.000107942
-0.000165594
-2.62928e-05
-0.000195386
0.241332
0.207023
0.375459
0.323826
0.234711
0.161734
-0.0695932
0.269377
-0.381986
-0.535999
-0.62731
0.376789
-0.366494
0.105229
-0.110534
0.0321152
-0.0423825
0.00679058
-0.0179934
0.00340147
-0.00741456
0.00275753
-0.00394522
0.0013991
-0.00148968
-2.56251e-05
-0.000108347
-0.000161133
-2.62469e-05
-0.000193739
-0.396778
-0.297597
-0.267565
-0.349092
-0.422004
-0.431486
-0.401942
-0.232638
-0.276438
-0.103192
0.6136
-0.494952
-0.116622
0.045575
-0.0975492
0.0449123
-0.0524909
0.0236089
-0.0267433
0.00991177
-0.0130109
0.00391712
-0.00513111
0.0014064
-0.00150078
-3.36406e-05
-0.000108058
-0.000165239
-2.58896e-05
-0.000194043
-0.333744
-0.306886
-0.318995
-0.439018
-0.463943
-0.491418
-0.371052
-0.213964
-0.214334
-0.0963886
-0.307272
-0.0392768
-0.192915
0.0203648
-0.0847204
0.0119303
-0.0384084
0.00394368
-0.0175357
0.00349152
-0.00749862
0.00274055
-0.00380724
0.0013798
-0.00146857
-3.17497e-05
-0.000106521
-0.000163149
-2.53569e-05
-0.000192297
-0.0762179
-0.0709158
-0.0598987
-0.103577
-0.116282
-0.15986
-0.148026
-0.103202
-0.100413
-0.0170985
0.0681145
-0.00162337
-0.0964816
0.0428834
-0.0740635
0.0348035
-0.0427632
0.0209562
-0.0227717
0.00869407
-0.0117942
0.00351888
-0.00489118
0.00135746
-0.00145445
-3.72418e-05
-0.000104415
-0.000163682
-2.47434e-05
-0.000190598
0.073417
0.0824125
0.118414
0.121068
0.126023
0.0557276
0.00652105
-0.0152911
-0.0328048
-0.0125839
-0.0601475
-0.0195714
-0.0702212
-0.00231251
-0.0523827
-0.000924796
-0.0301546
0.00140663
-0.015428
0.00325615
-0.00742161
0.00279078
-0.00360622
0.00132731
-0.00141349
-3.85721e-05
-0.000101456
-0.000162354
-2.40156e-05
-0.000188103
0.147925
0.165706
0.190706
0.204322
0.205042
0.145649
0.0869944
0.0458034
0.0103544
0.0164917
-0.0245123
0.0169541
-0.0554729
0.0315626
-0.0481412
0.02593
-0.0316581
0.0147491
-0.0184364
0.00681657
-0.00993158
0.00308295
-0.00450152
0.0012947
-0.00138162
-4.1389e-05
-9.80755e-05
-0.000160739
-2.32108e-05
-0.000185022
0.117373
0.124666
0.12218
0.130426
0.128324
0.0972666
0.0634923
0.036411
0.0167534
0.00708984
-0.00888693
-0.00506853
-0.0303821
-0.00178165
-0.0311742
-0.000275879
-0.0219301
0.00253804
-0.0128144
0.00350734
-0.00676831
0.00277237
-0.00336769
0.0012601
-0.00133332
-4.31389e-05
-9.4256e-05
-0.000158528
-2.23382e-05
-0.000181362
-0.0126764
-0.010974
-0.0277216
-0.00594515
0.0319442
0.0453781
0.0418689
0.0356377
0.0207349
0.0202313
-0.00454283
0.0163602
-0.0246026
0.0191285
-0.0284282
0.0153327
-0.0220161
0.00950013
-0.0143184
0.00518438
-0.00824385
0.002741
-0.00400948
0.00122124
-0.00128803
-4.43184e-05
-9.01279e-05
-0.000155719
-2.14086e-05
-0.000177133
-0.0191965
-0.0278637
-0.053627
-0.0413829
-0.00267227
0.0207021
0.0291203
0.028544
0.0224788
0.0162507
0.0061044
0.00581361
-0.0103779
0.00342438
-0.0171976
0.00300659
-0.0150212
0.00365469
-0.0101968
0.00366667
-0.00598442
0.00261609
-0.00310581
0.00118192
-0.00123323
-4.47926e-05
-8.57515e-05
-0.000152318
-2.04329e-05
-0.000172352
-0.000491906
0.0131371
0.000599157
0.00530742
0.0242235
0.0355484
0.0375505
0.0352683
0.0267461
0.0231545
0.00909382
0.014796
-0.00705707
0.0120406
-0.0148735
0.00978544
-0.0146161
0.00657955
-0.0107454
0.00409328
-0.00671296
0.00251386
-0.0034767
0.001138
-0.00117909
-4.45702e-05
-8.12067e-05
-0.000148335
-1.94198e-05
-0.000167035
0.108371
0.112074
0.108406
0.0888343
0.0777862
0.0661496
0.0546626
0.0441878
0.0334476
0.0257189
0.0155599
0.0126764
0.00106871
0.00655014
-0.00761164
0.00498135
-0.00981523
0.00434622
-0.00785271
0.00363848
-0.00510562
0.00240349
-0.00281953
0.00109411
-0.00111921
-4.36515e-05
-7.65386e-05
-0.000143782
-1.83775e-05
-0.000161197
0.137467
0.126532
0.15439
0.123626
0.103978
0.0820242
0.0637682
0.0500443
0.0361094
0.0288206
0.0165415
0.0158573
0.00202858
0.00979113
-0.00644508
0.00723246
-0.00922641
0.00512748
-0.00785247
0.00350489
-0.00537102
0.0022942
-0.00295895
0.00104624
-0.00105909
-4.21102e-05
-7.18004e-05
-0.000138678
-1.73133e-05
-0.000154857
0.196412
0.160456
0.197576
0.15728
0.128745
0.0994167
0.0746715
0.0565134
0.0403857
0.0309647
0.019739
0.0161421
0.00649739
0.00862551
-0.00198188
0.0056414
-0.005868
0.00464662
-0.00587301
0.00334363
-0.00422594
0.00218454
-0.00250068
0.000998876
-0.000995704
-4.00134e-05
-6.70261e-05
-0.000133044
-1.6234e-05
-0.000148036
0.264304
0.301682
0.277749
0.206903
0.147537
0.10462
0.0737484
0.0547296
0.0375045
0.0299203
0.0178286
0.0161872
0.00563211
0.00916653
-0.00181825
0.00593556
-0.00534759
0.00453203
-0.00561479
0.00318977
-0.00422117
0.00207353
-0.00251422
0.000948847
-0.000931861
-3.74768e-05
-6.22496e-05
-0.000126903
-1.51452e-05
-0.000140754
0.101693
0.117521
0.141323
0.121555
0.0914992
0.0721429
0.0539491
0.0439113
0.0307915
0.026265
0.0165547
0.0154821
0.0074618
0.00898148
0.000759507
0.00572227
-0.00314111
0.00430967
-0.00425619
0.00303747
-0.00340967
0.00196566
-0.00204996
0.00090161
-0.000866399
-3.46086e-05
-5.74964e-05
-0.000120284
-1.40522e-05
-0.000133034
0.348362
0.288266
0.224556
0.153992
0.0982888
0.0701518
0.0473385
0.0374864
0.0252377
0.0233302
0.0137907
0.0139706
0.00596753
0.00859175
0.000482969
0.00553118
-0.00279256
0.00407551
-0.00390724
0.00287548
-0.00325192
0.00185139
-0.00194594
0.000849461
-0.000801245
-3.15415e-05
-5.27875e-05
-0.000113216
-1.29594e-05
-0.0001249
-0.100733
-0.164421
-0.143755
-0.0781907
-0.0416782
-0.0130571
-0.00129216
0.010016
0.00767816
0.014184
0.00866955
0.0119724
0.00586317
0.0080569
0.00172853
0.00529283
-0.00149432
0.00382167
-0.00296249
0.00270322
-0.00269556
0.00172859
-0.00175513
0.000792421
-0.000735631
-2.8367e-05
-4.81378e-05
-0.000105729
-1.18702e-05
-0.000116378
-0.25222
-0.3388
-0.261165
-0.136275
-0.0759058
-0.0311775
-0.00959407
0.00411987
0.0067808
0.0118133
0.00849785
0.0104172
0.00520071
0.00743717
0.00151322
0.00499687
-0.00124696
0.00354385
-0.0025917
0.00251514
-0.00244441
0.0015991
-0.00158392
0.000731842
-0.000670081
-2.51753e-05
-4.35592e-05
-9.78568e-05
-1.07875e-05
-0.000107494
-0.164635
-0.138949
-0.197704
-0.107448
-0.0645107
-0.0356664
-0.0168237
-0.00399303
-1.62105e-05
0.00675891
0.00480823
0.00847374
0.00447562
0.00678515
0.00194207
0.00466083
-0.000560153
0.00324444
-0.0019338
0.0023074
-0.00207771
0.00146395
-0.00141299
0.000668566
-0.000604734
-2.20461e-05
-3.90587e-05
-8.96311e-05
-9.71335e-06
-9.82783e-05
-0.268176
-0.171933
-0.166119
-0.110917
-0.0653107
-0.0326636
-0.0139362
-0.00197878
0.00375005
0.00760148
0.00666502
0.00811467
0.00458581
0.00620876
0.00190274
0.00428286
-0.000354127
0.00294934
-0.00160059
0.00209409
-0.00179253
0.00132372
-0.00124675
0.000603152
-0.000539692
-1.90426e-05
-3.46399e-05
-8.10848e-05
-8.64903e-06
-8.87579e-05
0.371985
0.329275
0.242311
0.156272
0.0951948
0.0528811
0.0353109
0.0205486
0.0140036
0.0101599
0.00692494
0.00736443
0.00420975
0.00559892
0.00194294
0.00387597
-4.77492e-05
0.00264829
-0.00123531
0.00187333
-0.0015231
0.00117907
-0.0010854
0.000535994
-0.000475018
-1.62097e-05
-3.03044e-05
-7.22526e-05
-7.59556e-06
-7.89648e-05
0.00992156
0.0316586
0.0381526
0.00787396
0.0187369
0.000968667
0.0108186
0.0040012
0.00630316
0.0061278
0.00585893
0.00654968
0.0041829
0.00498263
0.00190303
0.00343441
9.9611e-05
0.00233301
-0.000964226
0.00164409
-0.00127579
0.00103046
-0.000928981
0.000467378
-0.000410721
-1.35728e-05
-2.605e-05
-6.31669e-05
-6.55314e-06
-6.89297e-05
-0.220952
-0.197481
-0.0228804
-0.0357299
0.0248676
0.00954955
0.0288549
0.0108251
0.0190831
0.00803095
0.00903015
0.00605797
0.00402467
0.00432484
0.00176983
0.00296119
0.000199021
0.00200254
-0.000739046
0.00140638
-0.00104764
0.000878411
-0.000777225
0.000397528
-0.00034679
-1.1139e-05
-2.18727e-05
-5.38597e-05
-5.52147e-06
-5.86838e-05
0.157866
0.286192
0.208342
0.111329
0.0814219
0.0343716
0.0333362
0.00904373
0.0137216
0.00421887
0.00557105
0.00463223
0.00366694
0.00358938
0.00159687
0.00245879
0.000242251
0.00165682
-0.000553367
0.00116086
-0.000836044
0.000723651
-0.000629664
0.000326648
-0.000283209
-8.89908e-06
-1.77682e-05
-4.43644e-05
-4.50012e-06
-4.82612e-05
-0.314328
-0.00841364
0.168733
0.00337654
0.0755681
-0.00817655
0.0463935
-0.00571287
0.0273064
0.000352475
0.0125381
0.00295151
0.00349822
0.00279946
0.00133502
0.00193161
0.000237797
0.00130013
-0.000399004
0.000908756
-0.000638435
0.00056692
-0.000485655
0.000254904
-0.000219932
-6.82814e-06
-1.37302e-05
-3.47115e-05
-3.48829e-06
-3.76945e-05
-0.835873
-0.538504
0.131392
-0.108117
0.0538352
-0.0221895
0.020082
-0.00386185
0.00648119
-0.000201611
0.00229846
0.00163117
0.00203213
0.00192713
0.000990874
0.00138575
0.000195121
0.000934332
-0.000268658
0.000651612
-0.00045199
0.000408889
-0.000344501
0.000182463
-0.000156901
-4.88986e-06
-9.75105e-06
-2.49315e-05
-2.48397e-06
-2.70164e-05
-0.29737
-0.406698
0.0434949
-0.0718936
0.0341423
-0.023236
0.0286045
-0.0109371
0.0194299
-0.00432619
0.0109809
0.000255579
0.00290376
0.00114306
0.000637735
0.000831133
0.000125319
0.000562241
-0.000155294
0.000390957
-0.000274856
0.000250947
-0.000205583
0.00010953
-9.40579e-05
-3.0378e-06
-5.82377e-06
-1.50591e-05
-1.48604e-06
-1.62643e-05
0.153691
-0.0240673
-0.0137007
-0.0103744
-0.0043562
-0.00258453
-0.00408694
0.00288771
-0.00383935
0.00249415
-0.00430149
0.000800882
-0.000828009
0.000401451
8.98274e-05
0.000277846
3.68838e-05
0.000187562
-5.16992e-05
0.00013013
-9.08697e-05
8.31895e-05
-6.83802e-05
3.62829e-05
-3.135e-05
-1.21063e-06
-1.94551e-06
-5.11376e-06
-4.94927e-07
-5.46098e-06
0.00361599
0.00323582
0.00200954
0.00188277
0.00113867
0.00106234
0.000676775
0.000572608
0.000426508
0.000330448
0.000285273
0.000205498
0.000190209
0.000136266
0.00012315
9.51878e-05
8.08072e-05
6.83501e-05
5.07393e-05
4.66478e-05
3.31454e-05
3.58555e-05
3.25437e-05
2.80103e-05
2.70649e-05
3.0203e-05
1.14789e-05
3.99663e-05
-1.18466e-05
0.000312262
-0.000106039
-0.000164324
-0.000129244
-0.000164828
-0.000142998
-0.000157159
-0.000141732
-0.000138269
-0.000124957
-0.000112018
-9.7865e-05
-8.36394e-05
-7.03712e-05
-5.85277e-05
-4.84406e-05
-4.0197e-05
-3.36564e-05
-2.86325e-05
-2.48307e-05
-2.20008e-05
-1.98257e-05
-1.8122e-05
-1.65936e-05
-1.51528e-05
-1.35821e-05
-1.18326e-05
-9.86161e-06
-8.12417e-06
-5.19427e-06
-4.54971e-06
-0.00010558
-0.000162993
-0.000128924
-0.000163765
-0.000142364
-0.00015629
-0.000140884
-0.000137639
-0.000124127
-0.000111344
-9.72166e-05
-8.3095e-05
-6.99056e-05
-5.81326e-05
-4.8126e-05
-3.99292e-05
-3.34429e-05
-2.84583e-05
-2.46779e-05
-2.18814e-05
-1.97105e-05
-1.80353e-05
-1.65173e-05
-1.5092e-05
-1.35511e-05
-1.18975e-05
-1.01611e-05
-8.63707e-06
-7.44167e-06
-9.23273e-06
-0.000105258
-0.000162391
-0.000128459
-0.000162992
-0.00014154
-0.000155327
-0.000139917
-0.000136703
-0.000123218
-0.000110493
-9.64509e-05
-8.2462e-05
-6.93724e-05
-5.77141e-05
-4.77892e-05
-3.96681e-05
-3.32309e-05
-2.82824e-05
-2.45365e-05
-2.17479e-05
-1.96026e-05
-1.79204e-05
-1.64116e-05
-1.49804e-05
-1.34214e-05
-1.17024e-05
-9.78154e-06
-7.85195e-06
-5.06718e-06
-4.1357e-06
-0.000104453
-0.000160575
-0.00012732
-0.000161326
-0.000140033
-0.000153711
-0.000138327
-0.000135217
-0.000121802
-0.000109212
-9.53254e-05
-8.15079e-05
-6.85794e-05
-5.70641e-05
-4.72635e-05
-3.92388e-05
-3.28788e-05
-2.79869e-05
-2.42824e-05
-2.15234e-05
-1.94006e-05
-1.77348e-05
-1.62422e-05
-1.48237e-05
-1.32974e-05
-1.16432e-05
-9.8228e-06
-8.04568e-06
-5.55489e-06
-5.12344e-06
-0.000103419
-0.000158706
-0.000125893
-0.000159366
-0.000138234
-0.000151705
-0.000136448
-0.000133371
-0.000120103
-0.000107675
-9.39773e-05
-8.03694e-05
-6.76314e-05
-5.62926e-05
-4.66372e-05
-3.87304e-05
-3.24612e-05
-2.76359e-05
-2.39832e-05
-2.12563e-05
-1.91629e-05
-1.75103e-05
-1.60318e-05
-1.46208e-05
-1.30841e-05
-1.13849e-05
-9.46327e-06
-7.45828e-06
-4.69456e-06
-3.13657e-06
-0.000102006
-0.00015625
-0.000124011
-0.000156893
-0.000135987
-0.000149248
-0.000134153
-0.000131128
-0.000118051
-0.000105823
-9.23603e-05
-7.89962e-05
-6.64878e-05
-5.53543e-05
-4.58723e-05
-3.81047e-05
-3.19442e-05
-2.71998e-05
-2.36077e-05
-2.09229e-05
-1.88626e-05
-1.72314e-05
-1.57734e-05
-1.4378e-05
-1.28691e-05
-1.12158e-05
-9.35115e-06
-7.4224e-06
-4.71378e-06
-3.20163e-06
-0.000100298
-0.000153364
-0.000121768
-0.000153957
-0.000133359
-0.000146357
-0.000131481
-0.000128511
-0.000115669
-0.000103678
-9.04882e-05
-7.74044e-05
-6.51597e-05
-5.42617e-05
-4.49786e-05
-3.73714e-05
-3.13366e-05
-2.66863e-05
-2.31651e-05
-2.053e-05
-1.85087e-05
-1.69031e-05
-1.54682e-05
-1.40896e-05
-1.2588e-05
-1.09229e-05
-9.02014e-06
-6.96748e-06
-4.31299e-06
-2.35541e-06
-9.82718e-05
-0.00015004
-0.000119157
-0.000150571
-0.000130351
-0.000143044
-0.000128442
-0.000125531
-0.000112964
-0.000101247
-8.83679e-05
-7.55998e-05
-6.36523e-05
-5.30189e-05
-4.39597e-05
-3.65337e-05
-3.06409e-05
-2.60979e-05
-2.26571e-05
-2.00797e-05
-1.81026e-05
-1.65278e-05
-1.51208e-05
-1.3765e-05
-1.22909e-05
-1.06639e-05
-8.80833e-06
-6.81071e-06
-4.21529e-06
-2.24979e-06
-9.59363e-05
-0.000146282
-0.000116189
-0.000146745
-0.00012697
-0.000139321
-0.000125042
-0.000122198
-0.000109946
-9.8536e-05
-8.60042e-05
-7.35864e-05
-6.19681e-05
-5.16279e-05
-4.28169e-05
-3.55922e-05
-2.98577e-05
-2.54345e-05
-2.20837e-05
-1.95714e-05
-1.76436e-05
-1.61044e-05
-1.47282e-05
-1.33984e-05
-1.19474e-05
-1.03377e-05
-8.48633e-06
-6.45411e-06
-3.96729e-06
-1.83663e-06
-9.33013e-05
-0.000142101
-0.000112875
-0.000142494
-0.000123228
-0.000135201
-0.000121292
-0.000118526
-0.000106625
-9.55551e-05
-8.34053e-05
-7.13713e-05
-6.01136e-05
-5.0094e-05
-4.1555e-05
-3.45511e-05
-2.89905e-05
-2.46996e-05
-2.1448e-05
-1.90083e-05
-1.71352e-05
-1.56367e-05
-1.4296e-05
-1.29976e-05
-1.15795e-05
-1.00097e-05
-8.20587e-06
-6.22678e-06
-3.82895e-06
-1.71895e-06
-9.03771e-05
-0.000137506
-0.000109226
-0.000137831
-0.000119135
-0.000130699
-0.000117206
-0.000114524
-0.00010301
-9.2312e-05
-8.05778e-05
-6.896e-05
-5.80927e-05
-4.84206e-05
-4.01762e-05
-3.34122e-05
-2.80407e-05
-2.3894e-05
-2.07506e-05
-1.83904e-05
-1.65771e-05
-1.51239e-05
-1.38219e-05
-1.25588e-05
-1.11765e-05
-9.6456e-06
-7.87756e-06
-5.93006e-06
-3.63298e-06
-1.50205e-06
-8.71747e-05
-0.000132511
-0.000105254
-0.000132771
-0.000114705
-0.000125829
-0.000112794
-0.000110206
-9.91137e-05
-8.88167e-05
-7.75302e-05
-6.63597e-05
-5.59119e-05
-4.66129e-05
-3.86853e-05
-3.21795e-05
-2.70117e-05
-2.30207e-05
-1.99944e-05
-1.77206e-05
-1.59724e-05
-1.45692e-05
-1.33104e-05