/*--------------------------------*- C++ -*----------------------------------*\
| =========                 |                                                 |
| \\      /  F ield         | OpenFOAM: The Open Source CFD Toolbox           |
|  \\    /   O peration     | Version:  2.4.0                                 |
|   \\  /    A nd           | Web:      www.OpenFOAM.org                      |
|    \\/     M anipulation  |                                                 |
\*---------------------------------------------------------------------------*/
FoamFile
{
    version     2.0;
    format      ascii;
    class       volVectorField;
    location    "0.016";
    object      U;
}
// * * * * * * * * * * * * * * * * * * * * * * * * * * * * * * * * * * * * * //

dimensions      [0 1 -1 0 0 0 0];

internalField   nonuniform List<vector> 
3600
(
(-2.50746e-05 6.70346e-05 7.6559e-11)
(-8.70868e-05 0.000102918 7.86411e-11)
(-0.00018148 0.000116427 4.16409e-11)
(-0.000271737 0.000112252 2.67533e-11)
(-0.000361568 0.000104023 1.9062e-11)
(-0.000441099 9.35358e-05 1.4281e-11)
(-0.000503773 7.88269e-05 1.09829e-11)
(-0.0005368 6.01792e-05 8.55832e-12)
(-0.000526853 3.86956e-05 6.69898e-12)
(-0.000474903 2.00106e-05 5.22564e-12)
(-0.000352344 -5.37182e-06 4.04147e-12)
(-0.000209362 -1.25682e-05 3.07243e-12)
(-3.36785e-05 -2.51583e-05 2.28564e-12)
(0.000139441 -2.30591e-05 1.65408e-12)
(0.000262044 -2.0314e-05 1.15956e-12)
(0.000340424 -1.32673e-05 7.83481e-13)
(0.000360972 -7.54466e-06 5.1074e-13)
(0.000341769 -3.22515e-06 3.20926e-13)
(0.000297137 -6.29692e-07 1.94347e-13)
(0.000241827 6.60118e-07 1.13617e-13)
(0.000186513 1.11129e-06 6.41466e-14)
(0.000137059 1.15613e-06 3.49617e-14)
(9.6684e-05 9.5402e-07 1.84141e-14)
(6.52041e-05 7.60481e-07 9.3183e-15)
(4.2198e-05 5.22398e-07 4.53416e-15)
(2.59632e-05 3.68253e-07 2.11309e-15)
(1.51883e-05 2.13475e-07 9.3459e-16)
(8.46379e-06 1.37748e-07 3.98528e-16)
(4.33605e-06 7.18145e-08 1.52149e-16)
(2.07904e-06 3.46867e-08 6.17792e-17)
(-4.08163e-05 0.000179994 8.65126e-11)
(-9.47282e-05 0.000233779 9.79264e-11)
(-0.000158354 0.00025001 5.50333e-11)
(-0.000215257 0.000235938 3.62727e-11)
(-0.000273282 0.000210979 2.6087e-11)
(-0.000314169 0.000177675 1.96542e-11)
(-0.000333251 0.000134733 1.51612e-11)
(-0.00032078 8.33885e-05 1.18193e-11)
(-0.000264458 2.75611e-05 9.23273e-12)
(-0.000175114 -1.84582e-05 7.1709e-12)
(-1.62951e-05 -7.75754e-05 5.5116e-12)
(0.000149141 -8.45442e-05 4.1599e-12)
(0.000331105 -0.000108979 3.07009e-12)
(0.000496207 -8.52726e-05 2.20398e-12)
(0.000591833 -6.71185e-05 1.53317e-12)
(0.00063118 -3.73535e-05 1.02904e-12)
(0.000604923 -1.58292e-05 6.66945e-13)
(0.000537522 -1.0471e-06 4.17011e-13)
(0.000447489 6.51937e-06 2.51467e-13)
(0.000352796 9.20864e-06 1.46484e-13)
(0.00026518 8.89845e-06 8.24052e-14)
(0.000190786 7.52641e-06 4.47719e-14)
(0.000132024 5.62977e-06 2.35067e-14)
(8.75164e-05 4.07846e-06 1.18571e-14)
(5.57804e-05 2.65979e-06 5.75603e-15)
(3.38991e-05 1.74844e-06 2.67685e-15)
(1.96079e-05 9.96615e-07 1.18292e-15)
(1.08378e-05 6.04849e-07 5.04289e-16)
(5.49612e-06 3.03066e-07 1.92859e-16)
(2.94364e-06 1.97648e-07 8.31147e-17)
(-4.36306e-05 0.000367845 9.09109e-11)
(-0.000101005 0.000393869 1.032e-10)
(-0.000166862 0.000386874 5.79864e-11)
(-0.000223292 0.000357837 3.82529e-11)
(-0.00028187 0.000313664 2.7496e-11)
(-0.000324477 0.000255333 2.06711e-11)
(-0.000344898 0.000181187 1.59048e-11)
(-0.000331715 9.76944e-05 1.23652e-11)
(-0.000268173 5.44546e-06 9.63345e-12)
(-0.000175233 -6.79192e-05 7.4614e-12)
(-1.82609e-07 -0.000159755 5.71998e-12)
(0.000174857 -0.000163653 4.30391e-12)
(0.000364439 -0.000200656 3.16589e-12)
(0.000536137 -0.000149018 2.26502e-12)
(0.000628356 -0.00011518 1.56998e-12)
(0.000663425 -6.04019e-05 1.05025e-12)
(0.000629722 -2.27502e-05 6.7863e-13)
(0.000555731 2.50937e-06 4.23236e-13)
(0.000460101 1.48922e-05 2.54708e-13)
(0.000361228 1.86852e-05 1.48145e-13)
(0.000270708 1.73505e-05 8.32503e-14)
(0.000194266 1.43135e-05 4.51931e-14)
(0.000134166 1.05584e-05 2.37122e-14)
(8.88232e-05 7.55993e-06 1.19565e-14)
(5.6507e-05 4.88977e-06 5.80088e-15)
(3.43322e-05 3.18869e-06 2.69804e-15)
(1.9852e-05 1.80999e-06 1.19253e-15)
(1.09609e-05 1.09418e-06 5.0831e-16)
(5.50065e-06 5.32913e-07 1.93685e-16)
(3.08869e-06 3.04036e-07 8.54348e-17)
(-3.75824e-05 0.000511109 1.03979e-10)
(-9.94193e-05 0.000547223 1.1209e-10)
(-0.000178428 0.000532152 6.19355e-11)
(-0.000248818 0.000490494 4.04966e-11)
(-0.000320106 0.000427469 2.89703e-11)
(-0.00037426 0.000343699 2.16935e-11)
(-0.000400953 0.000238703 1.664e-11)
(-0.000390344 0.000117742 1.28964e-11)
(-0.000318123 -1.4814e-05 1.00161e-11)
(-0.000220695 -0.000116696 7.7314e-12)
(-2.10769e-05 -0.000247949 5.90752e-12)
(0.000168873 -0.000245893 4.427e-12)
(0.0003721 -0.000297297 3.24194e-12)
(0.000556883 -0.000214161 2.30874e-12)
(0.000647246 -0.000164311 1.59221e-12)
(0.000680838 -8.2872e-05 1.06021e-12)
(0.000640589 -2.90649e-05 6.8207e-13)
(0.000561814 6.59649e-06 4.2384e-13)
(0.000462706 2.35524e-05 2.54354e-13)
(0.000361905 2.83113e-05 1.47644e-13)
(0.000270528 2.58396e-05 8.28554e-14)
(0.000193846 2.11372e-05 4.49389e-14)
(0.000133763 1.54979e-05 2.35685e-14)
(8.84821e-05 1.10484e-05 1.18789e-14)
(5.63002e-05 7.12111e-06 5.76397e-15)
(3.41758e-05 4.62643e-06 2.67988e-15)
(1.97419e-05 2.62222e-06 1.18414e-15)
(1.09059e-05 1.58145e-06 5.04803e-16)
(5.50609e-06 7.65622e-07 1.92868e-16)
(2.92391e-06 4.01442e-07 8.29912e-17)
(-4.99766e-05 0.000679019 1.04798e-10)
(-0.00012572 0.000728598 1.1872e-10)
(-0.00022058 0.000708801 6.58284e-11)
(-0.000307254 0.000652613 4.30231e-11)
(-0.000394123 0.000567869 3.07411e-11)
(-0.000459154 0.000453314 2.29872e-11)
(-0.000492991 0.000308443 1.7584e-11)
(-0.000483262 0.000146207 1.35904e-11)
(-0.000393934 -3.75511e-05 1.05236e-11)
(-0.000289432 -0.000168228 8.08792e-12)
(-5.37871e-05 -0.000346382 6.15533e-12)
(0.000157563 -0.000334079 4.58893e-12)
(0.00038033 -0.000401594 3.34128e-12)
(0.00058334 -0.000281267 2.36516e-12)
(0.000670582 -0.000214756 1.62026e-12)
(0.000702308 -0.000104221 1.07224e-12)
(0.00065326 -3.43125e-05 6.8582e-13)
(0.000568491 1.16641e-05 4.24137e-13)
(0.000465148 3.27811e-05 2.53604e-13)
(0.000362089 3.81962e-05 1.46823e-13)
(0.000269824 3.44232e-05 8.2249e-14)
(0.000192964 2.79757e-05 4.45595e-14)
(0.000132991 2.04272e-05 2.33534e-14)
(8.79019e-05 1.45208e-05 1.17655e-14)
(5.59019e-05 9.33811e-06 5.70772e-15)
(3.39246e-05 6.0572e-06 2.65337e-15)
(1.95859e-05 3.42856e-06 1.17226e-15)
(1.08207e-05 2.06463e-06 4.99738e-16)
(5.46257e-06 9.99511e-07 1.90983e-16)
(2.89152e-06 5.50917e-07 8.19845e-17)
(-6.57079e-05 0.000905449 1.06141e-10)
(-0.000159776 0.000957338 1.28098e-10)
(-0.000277138 0.000926948 7.1134e-11)
(-0.000384901 0.000853256 4.6438e-11)
(-0.000491165 0.000739956 3.31283e-11)
(-0.000574245 0.000588657 2.46925e-11)
(-0.000613775 0.000396272 1.88359e-11)
(-0.000606668 0.000185223 1.45027e-11)
(-0.000494249 -6.26977e-05 1.11826e-11)
(-0.000378683 -0.000222905 8.55015e-12)
(-9.51988e-05 -0.000458237 6.47522e-12)
(0.000145148 -0.00043096 4.79682e-12)
(0.000393016 -0.000515999 3.46788e-12)
(0.000619308 -0.000351134 2.43657e-12)
(0.000701084 -0.0002665 1.65533e-12)
(0.000730025 -0.000123934 1.08706e-12)
(0.000669089 -3.8221e-05 6.90278e-13)
(0.00057668 1.78683e-05 4.24368e-13)
(0.000468009 4.26444e-05 2.52597e-13)
(0.000362175 4.8391e-05 1.45763e-13)
(0.000268847 4.31065e-05 8.1477e-14)
(0.0001918 3.48364e-05 4.40794e-14)
(0.000131986 2.53431e-05 2.30818e-14)
(8.71559e-05 1.79774e-05 1.16228e-14)
(5.53886e-05 1.15389e-05 5.63677e-15)
(3.36036e-05 7.47788e-06 2.62004e-15)
(1.93893e-05 4.22783e-06 1.15737e-15)
(1.07128e-05 2.54394e-06 4.93384e-16)
(5.40269e-06 1.231e-06 1.88544e-16)
(2.86664e-06 6.74237e-07 8.09517e-17)
(-8.45865e-05 0.00119093 1.10232e-10)
(-0.000203688 0.00124349 1.40735e-10)
(-0.000348248 0.00120027 7.82542e-11)
(-0.000486126 0.00110378 5.09059e-11)
(-0.000620331 0.000955521 3.61854e-11)
(-0.000723213 0.000757703 2.68946e-11)
(-0.000771423 0.000503665 2.04266e-11)
(-0.000769708 0.000237176 1.56506e-11)
(-0.000621705 -9.27613e-05 1.20133e-11)
(-0.000491673 -0.00028206 9.12708e-12)
(-0.0001464 -0.000587667 6.8727e-12)
(0.000132423 -0.000539592 5.05362e-12)
(0.000411677 -0.000642953 3.62306e-12)
(0.000666576 -0.000424266 2.52338e-12)
(0.000739595 -0.000319424 1.69732e-12)
(0.000764444 -0.000141427 1.10448e-12)
(0.000688078 -4.0423e-05 6.95314e-13)
(0.000586349 2.55811e-05 4.2447e-13)
(0.00047121 5.33037e-05 2.51304e-13)
(0.000362125 5.89613e-05 1.44459e-13)
(0.000267584 5.19086e-05 8.0538e-14)
(0.000190352 4.17222e-05 4.34989e-14)
(0.000130753 3.02406e-05 2.27546e-14)
(8.62468e-05 2.14136e-05 1.14512e-14)
(5.47654e-05 1.37194e-05 5.55155e-15)
(3.32145e-05 8.88609e-06 2.58001e-15)
(1.91518e-05 5.01837e-06 1.13953e-15)
(1.05828e-05 3.01849e-06 4.85767e-16)
(5.33012e-06 1.45977e-06 1.85613e-16)
(2.83697e-06 8.05301e-07 7.97275e-17)
(-0.000110603 0.00156384 1.14654e-10)
(-0.000261174 0.00160679 1.56954e-10)
(-0.000443248 0.00154567 8.71731e-11)
(-0.000618371 0.00142163 5.66027e-11)
(-0.000787081 0.00122858 4.00812e-11)
(-0.000921263 0.000974768 2.96336e-11)
(-0.000971981 0.000638049 2.24158e-11)
(-0.000978858 0.00030847 1.70738e-11)
(-0.000783196 -0.00013125 1.30318e-11)
(-0.000631794 -0.000347787 9.82968e-12)
(-0.000209371 -0.000741425 7.35399e-12)
(0.000120701 -0.000662708 5.3629e-12)
(0.000438141 -0.000785232 3.80817e-12)
(0.00072725 -0.000501897 2.62593e-12)
(0.000787035 -0.000373233 1.74602e-12)
(0.000805969 -0.000156022 1.12426e-12)
(0.000710119 -4.04698e-05 7.00735e-13)
(0.000597373 3.51185e-05 4.24344e-13)
(0.000474627 6.48832e-05 2.49684e-13)
(0.000361877 6.99649e-05 1.42893e-13)
(0.000266008 6.08445e-05 7.94282e-14)
(0.000188609 4.8634e-05 4.28173e-14)
(0.000129289 3.51145e-05 2.2372e-14)
(8.51752e-05 2.4825e-05 1.12509e-14)
(5.40329e-05 1.58754e-05 5.45224e-15)
(3.27578e-05 1.02796e-05 2.5334e-15)
(1.88737e-05 5.79865e-06 1.11876e-15)
(1.04308e-05 3.48737e-06 4.76906e-16)
(5.24512e-06 1.68533e-06 1.822e-16)
(2.80135e-06 9.32854e-07 7.82944e-17)
(-0.000137232 0.0020409 1.23263e-10)
(-0.000333077 0.00206999 1.78207e-10)
(-0.000563448 0.00198482 9.87205e-11)
(-0.000789637 0.00183124 6.38212e-11)
(-0.00100226 0.0015711 4.49675e-11)
(-0.00117686 0.00125222 3.30678e-11)
(-0.00122872 0.000802867 2.48584e-11)
(-0.00125038 0.000401405 1.87938e-11)
(-0.000986051 -0.000181872 1.42619e-11)
(-0.000804162 -0.000422672 1.06711e-11)
(-0.000285543 -0.000927206 7.92721e-12)
(0.000112233 -0.000803812 5.72893e-12)
(0.000474345 -0.000945948 4.02469e-12)
(0.000804 -0.000583567 2.74452e-12)
(0.000844717 -0.000427269 1.80117e-12)
(0.000854994 -0.000167095 1.14602e-12)
(0.000735053 -3.77496e-05 7.06312e-13)
(0.000609613 4.6837e-05 4.23881e-13)
(0.000478108 7.75158e-05 2.47686e-13)
(0.000361355 8.14522e-05 1.41051e-13)
(0.000264084 6.99244e-05 7.8143e-14)
(0.000186559 5.557e-05 4.20341e-14)
(0.000127592 3.99584e-05 2.19342e-14)
(8.39413e-05 2.82069e-05 1.10224e-14)
(5.31918e-05 1.80024e-05 5.33905e-15)
(3.22341e-05 1.16564e-05 2.48029e-15)
(1.85552e-05 6.5671e-06 1.09511e-15)
(1.02571e-05 3.94963e-06 4.66823e-16)
(5.14796e-06 1.90724e-06 1.78315e-16)
(2.75912e-06 1.05859e-06 7.66479e-17)
(-0.000170964 0.00263262 1.34234e-10)
(-0.000425194 0.00265817 2.06485e-10)
(-0.000715735 0.00254207 1.1392e-10)
(-0.00101725 0.00235462 7.29534e-11)
(-0.00127922 0.00200461 5.10973e-11)
(-0.00151078 0.00161493 3.73036e-11)
(-0.00155386 0.000997484 2.78466e-11)
(-0.00159515 0.000525786 2.08704e-11)
(-0.00123974 -0.000253557 1.57325e-11)
(-0.00101417 -0.000509237 1.16669e-11)
(-0.000377112 -0.00115416 8.60109e-12)
(0.000110223 -0.000968183 6.1569e-12)
(0.000523604 -0.00112862 4.27464e-12)
(0.000900174 -0.000671152 2.87945e-12)
(0.000913609 -0.000480775 1.86221e-12)
(0.000911921 -0.000173622 1.16936e-12)
(0.000762699 -3.15502e-05 7.11776e-13)
(0.000622833 6.10742e-05 4.22944e-13)
(0.000481476 9.13292e-05 2.45259e-13)
(0.000360469 9.34651e-05 1.38911e-13)
(0.000261771 7.91533e-05 7.66773e-14)
(0.000184189 6.25264e-05 4.11487e-14)
(0.000125656 4.47648e-05 2.14416e-14)
(8.25459e-05 3.15542e-05 1.0766e-14)
(5.2243e-05 2.00955e-05 5.21223e-15)
(3.16445e-05 1.30146e-05 2.42082e-15)
(1.81968e-05 7.32217e-06 1.06865e-15)
(1.00621e-05 4.40428e-06 4.55545e-16)
(5.03889e-06 2.12507e-06 1.73969e-16)
(2.70987e-06 1.182e-06 7.47866e-17)
(-0.000212636 0.00340924 1.502e-10)
(-0.00054195 0.00343069 2.43053e-10)
(-0.000899615 0.00326156 1.33844e-10)
(-0.00130519 0.00303733 8.50014e-11)
(-0.00162264 0.00255365 5.8979e-11)
(-0.00194886 0.00208313 4.25173e-11)
(-0.00197006 0.00123659 3.14681e-11)
(-0.00203542 0.000685605 2.33463e-11)
(-0.00155799 -0.00035254 1.74736e-11)
(-0.00126716 -0.000613724 1.28369e-11)
(-0.000486672 -0.00143261 9.38645e-12)
(0.00011917 -0.00116244 6.65316e-12)
(0.000589114 -0.00133689 4.55889e-12)
(0.00101988 -0.000763891 3.03089e-12)
(0.000995905 -0.000532309 1.92912e-12)
(0.000977138 -0.00017452 1.19378e-12)
(0.000792736 -2.13168e-05 7.16801e-13)
(0.000636761 7.81656e-05 4.21385e-13)
(0.00048452 0.00010644 2.42342e-13)
(0.00035912 0.000106036 1.36456e-13)
(0.000259026 8.85309e-05 7.50259e-14)
(0.000181484 6.94972e-05 4.01604e-14)
(0.000123479 4.95252e-05 2.08947e-14)
(8.09892e-05 3.48621e-05 1.04822e-14)
(5.11877e-05 2.21498e-05 5.07205e-15)
(3.09902e-05 1.43524e-05 2.35514e-15)
(1.77988e-05 8.06244e-06 1.03942e-15)
(9.84614e-06 4.85038e-06 4.43098e-16)
(4.9181e-06 2.33843e-06 1.69172e-16)
(2.65368e-06 1.30286e-06 7.27167e-17)
(-0.000267654 0.00430617 1.70062e-10)
(-0.000706752 0.00433556 2.92065e-10)
(-0.0011258 0.0041473 1.60735e-10)
(-0.00168751 0.00390963 1.00561e-10)
(-0.00206725 0.00323597 6.89182e-11)
(-0.00252123 0.00269227 4.89966e-11)
(-0.00250203 0.0015176 3.58677e-11)
(-0.00259479 0.000890373 2.6287e-11)
(-0.00195576 -0.000494428 1.95268e-11)
(-0.00157066 -0.000742071 1.42003e-11)
(-0.000616654 -0.00177617 1.02961e-11)
(0.000144898 -0.00139467 7.22514e-12)
(0.000676947 -0.00157469 4.88147e-12)
(0.00116816 -0.000861608 3.19893e-12)
(0.00109266 -0.000579901 2.00028e-12)
(0.0010508 -0.000168659 1.21861e-12)
(0.000824804 -5.84469e-06 7.2102e-13)
(0.000651065 9.84313e-05 4.19036e-13)
(0.000486993 0.000122953 2.38867e-13)
(0.000357197 0.000119181 1.33663e-13)
(0.000255801 9.80493e-05 7.31836e-14)
(0.000178431 7.64733e-05 3.9069e-14)
(0.000121057 5.42292e-05 2.02939e-14)
(7.92711e-05 3.8126e-05 1.01714e-14)
(5.00271e-05 2.41617e-05 4.9188e-15)
(3.02725e-05 1.56671e-05 2.2834e-15)
(1.73616e-05 8.78646e-06 1.00751e-15)
(9.60952e-06 5.28694e-06 4.29515e-16)
(4.78585e-06 2.54692e-06 1.63936e-16)
(2.59081e-06 1.42114e-06 7.04467e-17)
(-0.000292823 0.00572689 2.13441e-10)
(-0.000828254 0.00575056 3.62442e-10)
(-0.00132308 0.0053233 1.9922e-10)
(-0.0021656 0.00515592 1.21447e-10)
(-0.00261817 0.00411815 8.17905e-11)
(-0.0032747 0.003507 5.69825e-11)
(-0.0031892 0.00185236 4.11639e-11)
(-0.00330352 0.00115131 2.97586e-11)
(-0.00245514 -0.000695521 2.19265e-11)
(-0.00192942 -0.000904961 1.57865e-11)
(-0.000770608 -0.00220111 1.13437e-11)
(0.000195811 -0.00167548 7.88176e-12)
(0.000793371 -0.00184642 5.24376e-12)
(0.00135107 -0.000964967 3.3834e-12)
(0.00120633 -0.00062095 2.07512e-12)
(0.00113311 -0.000154092 1.24315e-12)
(0.000858378 1.58554e-05 7.24017e-13)
(0.000665216 0.000122166 4.15706e-13)
(0.000488615 0.000140951 2.34765e-13)
(0.000354579 0.000132903 1.3051e-13)
(0.000252049 0.000107693 7.11454e-14)
(0.000175017 8.34437e-05 3.78744e-14)
(0.000118385 5.88645e-05 1.96399e-14)
(7.73922e-05 4.13422e-05 9.83418e-15)
(4.87623e-05 2.61281e-05 4.75283e-15)
(2.94928e-05 1.69553e-05 2.20579e-15)
(1.68861e-05 9.49284e-06 9.72982e-16)
(9.35271e-06 5.71301e-06 4.14829e-16)
(4.64239e-06 2.75015e-06 1.58274e-16)
(2.52157e-06 1.5365e-06 6.79854e-17)
(-0.000387905 0.00664222 2.48059e-10)
(-0.00135167 0.00674513 4.45013e-10)
(-0.00166271 0.00675625 2.53089e-10)
(-0.00285108 0.0064829 1.50052e-10)
(-0.00340242 0.00526545 9.84959e-11)
(-0.00427567 0.00449761 6.68084e-11)
(-0.00408866 0.00223789 4.7503e-11)
(-0.00420331 0.00145971 3.38408e-11)
(-0.00308342 -0.000980906 2.47191e-11)
(-0.00235134 -0.00111664 1.76247e-11)
(-0.00095074 -0.00272691 1.25466e-11)
(0.00028268 -0.00201832 8.63322e-12)
(0.000948253 -0.00215568 5.64844e-12)
(0.00157607 -0.00107128 3.58396e-12)
(0.00133877 -0.000651788 2.15238e-12)
(0.00122377 -0.000129041 1.26647e-12)
(0.000892688 4.46619e-05 7.25308e-13)
(0.00067867 0.000149615 4.11192e-13)
(0.000489079 0.000160483 2.2996e-13)
(0.000351134 0.000147181 1.26977e-13)
(0.000247721 0.000117435 6.89067e-14)
(0.00017123 9.03963e-05 3.65769e-14)
(0.000115463 6.34194e-05 1.89336e-14)
(7.53538e-05 4.45055e-05 9.47122e-15)
(4.73945e-05 2.80463e-05 4.57448e-15)
(2.86526e-05 1.82138e-05 2.12249e-15)
(1.63729e-05 1.01803e-05 9.35933e-16)
(9.07616e-06 6.12763e-06 3.99077e-16)
(4.48797e-06 2.94774e-06 1.522e-16)
(2.44646e-06 1.64881e-06 6.53448e-17)
(-0.000246674 0.00970688 4.28462e-10)
(-0.000711097 0.00974222 6.57008e-10)
(-0.00156745 0.00822507 3.38142e-10)
(-0.00355405 0.00913285 1.98679e-10)
(-0.00421432 0.00653947 1.21632e-10)
(-0.0056048 0.00604413 7.90876e-11)
(-0.00522778 0.00266683 5.50924e-11)
(-0.00533807 0.0018705 3.86051e-11)
(-0.00386605 -0.00138077 2.79509e-11)
(-0.00283886 -0.00139767 1.97546e-11)
(-0.00115997 -0.00337602 1.39247e-11)
(0.000420622 -0.00244032 9.49138e-12)
(0.00115398 -0.00250788 6.09816e-12)
(0.00185162 -0.00117915 3.79996e-12)
(0.00149215 -0.00066792 2.23049e-12)
(0.00132218 -9.08115e-05 1.28749e-12)
(0.000926826 8.18153e-05 7.24363e-13)
(0.00069073 0.000180973 4.05276e-13)
(0.000488058 0.000181562 2.2438e-13)
(0.000346732 0.000161978 1.23042e-13)
(0.00024277 0.000127238 6.64635e-14)
(0.000167057 9.73167e-05 3.51771e-14)
(0.000112288 6.78853e-05 1.8176e-14)
(7.31579e-05 4.76075e-05 9.08323e-15)
(4.59246e-05 2.99131e-05 4.38416e-15)
(2.77533e-05 1.94394e-05 2.0337e-15)
(1.58232e-05 1.08474e-05 8.96455e-16)
(8.78039e-06 6.52989e-06 3.823e-16)
(4.32289e-06 3.13931e-06 1.45728e-16)
(2.36608e-06 1.75793e-06 6.25384e-17)
(-0.000591928 0.00838943 5.0446e-10)
(-0.00361131 0.00908824 -8.2521e-10)
(-0.00173055 0.0118157 2.14673e-09)
(-0.00455139 0.0107573 -8.29832e-10)
(-0.00576263 0.00915144 1.61017e-10)
(-0.00726092 0.00736656 9.41336e-11)
(-0.00687589 0.00326996 6.37813e-11)
(-0.00676575 0.00221534 4.408e-11)
(-0.0048717 -0.00193791 3.16648e-11)
(-0.00339655 -0.00178026 2.22202e-11)
(-0.00139905 -0.00418025 1.55028e-11)
(0.000627065 -0.00296139 1.04693e-11)
(0.00142715 -0.00290579 6.59576e-12)
(0.00218845 -0.00128346 4.0306e-12)
(0.00166865 -0.000663215 2.30751e-12)
(0.00142715 -3.69008e-05 1.30491e-12)
(0.000959411 0.000128422 7.20556e-13)
(0.00070059 0.000216347 3.9773e-13)
(0.000485202 0.000204139 2.17951e-13)
(0.000341241 0.000177234 1.18686e-13)
(0.000237152 0.000137063 6.38131e-14)
(0.00016249 0.000104183 3.36757e-14)
(0.00010886 7.22555e-05 1.73682e-14)
(7.08069e-05 5.06379e-05 8.67101e-15)
(4.43543e-05 3.17252e-05 4.18229e-15)
(2.67967e-05 2.06289e-05 1.93966e-15)
(1.52382e-05 1.1493e-05 8.54651e-16)
(8.46599e-06 6.91888e-06 3.6454e-16)
(4.14749e-06 3.32446e-06 1.38877e-16)
(2.28084e-06 1.86354e-06 5.95769e-17)
(0.00124997 0.0189635 -5.03499e-09)
(0.00411868 0.0172854 3.4514e-08)
(0.000110855 0.0103548 -1.66285e-07)
(-0.00558279 0.0172287 1.16934e-07)
(-0.00689564 0.0103162 -1.91386e-09)
(-0.0100116 0.0107108 1.46403e-10)
(-0.00870562 0.00353029 7.4048e-11)
(-0.00862832 0.00290685 5.03668e-11)
(-0.00605629 -0.00273102 3.59537e-11)
(-0.00402276 -0.0022917 2.50897e-11)
(-0.00166571 -0.00516384 1.73076e-11)
(0.000928498 -0.00360964 1.15879e-11)
(0.00178908 -0.00335241 7.14446e-12)
(0.00259776 -0.0013774 4.27224e-12)
(0.00186959 -0.000629079 2.38069e-12)
(0.00153674 3.68366e-05 1.31721e-12)
(0.00098896 0.000185719 7.1324e-13)
(0.000707293 0.000255728 3.88315e-13)
(0.000480153 0.000228094 2.106e-13)
(0.000334536 0.000192871 1.13895e-13)
(0.000230831 0.000146871 6.09538e-14)
(0.000157518 0.000110964 3.20741e-14)
(0.00010518 7.65219e-05 1.65117e-14)
(6.83032e-05 5.35869e-05 8.23545e-15)
(4.26854e-05 3.34796e-05 3.96933e-15)
(2.57844e-05 2.17795e-05 1.84059e-15)
(1.4619e-05 1.21158e-05 8.10627e-16)
(8.13356e-06 7.29374e-06 3.45843e-16)
(3.96212e-06 3.50282e-06 1.31661e-16)
(2.191e-06 1.96528e-06 5.64687e-17)
(-0.00475074 -0.0049271 -2.00719e-06)
(-0.0151925 0.00352509 2.43725e-06)
(0.00183717 0.0227035 7.09414e-06)
(-0.00517965 0.0187271 -6.9184e-06)
(-0.0104213 0.0171152 2.08108e-07)
(-0.0123831 0.0119968 -4.7062e-09)
(-0.0121063 0.00459708 1.0947e-10)
(-0.0107486 0.00306514 5.75103e-11)
(-0.0077197 -0.00378542 4.0779e-11)
(-0.00469739 -0.00301374 2.84521e-11)
(-0.00196105 -0.00637145 1.93726e-11)
(0.00135093 -0.00442419 1.28627e-11)
(0.00226927 -0.00385353 7.74896e-12)
(0.00309403 -0.00145708 4.5228e-12)
(0.00209636 -0.000556402 2.44682e-12)
(0.00164778 0.000134681 1.32255e-12)
(0.00101306 0.000254741 7.01675e-13)
(0.000709734 0.00029895 3.76792e-13)
(0.000472546 0.000253249 2.02263e-13)
(0.000326502 0.000208764 1.08654e-13)
(0.000223775 0.000156617 5.78854e-14)
(0.000152132 0.000117624 3.03739e-14)
(0.000101246 8.06751e-05 1.56079e-14)
(6.56504e-05 5.64448e-05 7.77753e-15)
(4.09204e-05 3.51727e-05 3.74578e-15)
(2.47179e-05 2.28882e-05 1.73673e-15)
(1.39666e-05 1.27148e-05 7.64491e-16)
(7.78377e-06 7.65364e-06 3.26256e-16)
(3.76717e-06 3.674e-06 1.241e-16)
(2.09655e-06 2.06277e-06 5.32195e-17)
(0.00471817 0.0652497 0.000209111)
(0.0287143 0.0329691 -0.000138206)
(0.0205092 0.000121618 -0.000388946)
(-0.00636809 0.0356159 0.000217903)
(-0.01147 0.0189079 -1.06111e-05)
(-0.0191989 0.0188881 3.51718e-07)
(-0.0149411 0.00450933 -3.27238e-09)
(-0.0139476 0.0038786 8.28002e-11)
(-0.00940727 -0.00530129 4.65872e-11)
(-0.0054318 -0.00397794 3.24161e-11)
(-0.00226304 -0.00783687 2.17486e-11)
(0.00193694 -0.00542946 1.43211e-11)
(0.00290557 -0.00439303 8.41332e-12)
(0.00369372 -0.00146551 4.7777e-12)
(0.00235052 -0.000426319 2.50185e-12)
(0.00175619 0.000260447 1.31886e-12)
(0.0010291 0.000336359 6.8507e-13)
(0.000706699 0.000345611 3.6293e-13)
(0.000462029 0.000279364 1.92883e-13)
(0.000317029 0.000224733 1.02954e-13)
(0.000215959 0.000166251 5.46091e-14)
(0.000146331 0.000124125 2.85778e-14)
(9.70621e-05 8.47046e-05 1.46586e-14)
(6.28526e-05 5.92024e-05 7.29836e-15)
(3.90622e-05 3.68015e-05 3.51219e-15)
(2.35987e-05 2.39522e-05 1.62834e-15)
(1.32821e-05 1.32886e-05 7.16357e-16)
(7.41737e-06 7.99751e-06 3.05833e-16)
(3.56307e-06 3.83762e-06 1.16213e-16)
(1.99733e-06 2.1557e-06 4.98356e-17)
(-0.040737 -0.076809 0.0258685)
(-0.0329717 -0.0574065 -0.00137918)
(-0.00364894 0.0400833 0.00561164)
(-0.00274876 0.0459911 -0.00318834)
(-0.0307117 0.0354542 0.000278334)
(-0.0217877 0.0205163 -1.2931e-05)
(-0.0224172 0.00497756 2.08915e-07)
(-0.0170122 0.00366016 -1.7973e-09)
(-0.0120563 -0.00737128 5.88858e-11)
(-0.00613622 -0.00533406 3.71404e-11)
(-0.00256939 -0.00962016 2.45096e-11)
(0.00273265 -0.00671912 1.5987e-11)
(0.00375715 -0.00503705 9.13621e-12)
(0.00441162 -0.00153823 5.03002e-12)
(0.00261725 -0.000245188 2.53967e-12)
(0.00185387 0.000417414 1.30357e-12)
(0.00103365 0.000430894 6.62619e-13)
(0.000696833 0.000395017 3.46507e-13)
(0.000448282 0.000306098 1.82414e-13)
(0.000306022 0.000240563 9.6791e-14)
(0.000207365 0.000175716 5.11278e-14)
(0.000140116 0.000130427 2.66892e-14)
(9.26317e-05 8.86002e-05 1.36658e-14)
(5.99138e-05 6.18505e-05 6.79906e-15)
(3.71139e-05 3.83629e-05 3.2691e-15)
(2.24287e-05 2.4969e-05 1.51569e-15)
(1.25667e-05 1.38363e-05 6.66339e-16)
(7.03509e-06 8.32486e-06 2.84624e-16)
(3.35024e-06 3.99332e-06 1.0802e-16)
(1.89308e-06 2.24379e-06 4.6318e-17)
(-0.00882904 0.257059 -0.103633)
(-0.0222332 0.0457549 0.105725)
(-0.065465 -0.0262605 -0.0818658)
(-0.0107577 0.0726389 0.0226246)
(-0.0256887 0.0431984 -0.00300795)
(-0.0469255 0.0244703 0.000225917)
(-0.0258148 0.00568713 -7.33899e-06)
(-0.0218772 0.00306558 1.01625e-07)
(-0.0143161 -0.00996718 -3.75537e-10)
(-0.00679217 -0.00710294 4.31783e-11)
(-0.00283279 -0.011735 2.7743e-11)
(0.00377908 -0.00815554 1.7906e-11)
(0.00484636 -0.00553304 9.91863e-12)
(0.00528601 -0.00125466 5.27303e-12)
(0.00293981 6.91112e-05 2.55746e-12)
(0.00193839 0.000615729 1.27422e-12)
(0.00102317 0.00053863 6.33511e-13)
(0.000678769 0.000446116 3.27331e-13)
(0.000431048 0.000332994 1.70829e-13)
(0.000293423 0.000256019 9.01659e-14)
(0.000197995 0.000184952 4.74467e-14)
(0.000133495 0.000136489 2.47124e-14)
(8.79617e-05 9.23519e-05 1.26318e-14)
(5.68379e-05 6.43798e-05 6.28084e-15)
(3.50794e-05 3.98541e-05 3.01714e-15)
(2.12099e-05 2.59358e-05 1.39905e-15)
(1.18217e-05 1.43566e-05 6.14565e-16)
(6.63769e-06 8.63494e-06 2.62686e-16)
(3.1291e-06 4.14083e-06 9.95426e-17)
(1.78405e-06 2.32689e-06 4.26781e-17)
(0.0805451 0.00806221 0.077978)
(0.0986449 0.0482501 -0.158031)
(0.016235 0.0798391 0.0257526)
(-0.0359193 0.0203549 -0.0393726)
(-0.0321446 0.0831788 0.0120375)
(-0.0560812 0.0369049 -0.00144115)
(-0.0449022 -0.00544535 8.94398e-05)
(-0.0265347 0.00319309 -2.46092e-06)
(-0.0175378 -0.0144214 2.53268e-08)
(-0.00731789 -0.00960837 -4.1606e-11)
(-0.00297096 -0.0143838 3.16581e-11)
(0.00522345 -0.0104315 2.00964e-11)
(0.0063329 -0.00652878 1.07672e-11)
(0.00626825 -0.00132699 5.48347e-12)
(0.00317894 0.000430009 2.53482e-12)
(0.00197949 0.000846559 1.22652e-12)
(0.000991488 0.000657134 5.96891e-13)
(0.000650986 0.000497309 3.05253e-13)
(0.000410171 0.00035946 1.5812e-13)
(0.000279217 0.00027084 8.30891e-14)
(0.000187868 0.000193894 4.35733e-14)
(0.000126477 0.000142268 2.26518e-14)
(8.30605e-05 9.59496e-05 1.1559e-14)
(5.36291e-05 6.67804e-05 5.74499e-15)
(3.29627e-05 4.12719e-05 2.75695e-15)
(1.99448e-05 2.68499e-05 1.27875e-15)
(1.10485e-05 1.48474e-05 5.61166e-16)
(6.22598e-06 8.92637e-06 2.40076e-16)
(2.90012e-06 4.27925e-06 9.08016e-17)
(1.67166e-06 2.4029e-06 3.89296e-17)
(-0.0122484 -0.208692 -0.173342)
(-0.000602632 -0.0227622 -0.247372)
(-0.00825324 0.083356 0.234859)
(-0.0158834 0.136996 -0.0363038)
(-0.0378055 0.0692464 -0.00601998)
(-0.0482945 0.0556968 0.0015968)
(-0.0744253 -0.00358559 -0.00026788)
(-0.0271438 -0.0058629 1.66391e-05)
(-0.0208897 -0.0181809 -2.65897e-07)
(-0.00719072 -0.012305 1.41895e-09)
(-0.0030871 -0.0169894 3.51779e-11)
(0.0069502 -0.0121483 2.25461e-11)
(0.00824076 -0.00668211 1.16693e-11)
(0.00759682 -0.000451985 5.68218e-12)
(0.00359093 0.0010873 2.48945e-12)
(0.00199756 0.00114693 1.1594e-12)
(0.000936815 0.000787557 5.5222e-13)
(0.000612536 0.000548126 2.80205e-13)
(0.000385661 0.000385607 1.44306e-13)
(0.000263445 0.000285175 7.55779e-14)
(0.00017702 0.000202727 3.95177e-14)
(0.000119074 0.00014786 2.05128e-14)
(7.79406e-05 9.94746e-05 1.04502e-14)
(5.02918e-05 6.90947e-05 5.19285e-15)
(3.07684e-05 4.26471e-05 2.48918e-15)
(1.86358e-05 2.77279e-05 1.15508e-15)
(1.02486e-05 1.53237e-05 5.06277e-16)
(5.80073e-06 9.20855e-06 2.16855e-16)
(2.66362e-06 4.42079e-06 8.18189e-17)
(1.55231e-06 2.49191e-06 3.50726e-17)
(-0.0587246 0.0660669 -0.193561)
(-0.143323 0.0587933 -0.224046)
(-0.115817 0.105405 0.0213518)
(-0.0990577 0.0683892 0.00991567)
(-0.137136 0.146062 -0.0178454)
(-0.0740804 0.0695384 0.00741494)
(-0.0790132 0.00403189 -0.00104505)
(-0.0405634 -0.0223436 5.35556e-05)
(-0.0215862 -0.0233824 -8.33949e-07)
(-0.00708722 -0.0171762 3.07446e-09)
(-0.00276942 -0.0210888 4.03439e-11)
(0.00937559 -0.0163652 2.54009e-11)
(0.0106664 -0.00822799 1.2586e-11)
(0.00883184 -0.000357538 5.75274e-12)
(0.00365223 0.00166648 2.35356e-12)
(0.00189499 0.00144514 1.06356e-12)
(0.000843847 0.000910619 4.98495e-13)
(0.00056169 0.000588841 2.52166e-13)
(0.000357486 0.000406241 1.29428e-13)
(0.000246112 0.000296072 6.76555e-14)
(0.000165464 0.000209676 3.52916e-14)
(0.000111277 0.000152148 1.83011e-14)
(7.26057e-05 0.000102197 9.30842e-15)
(4.68248e-05 7.08655e-05 4.62581e-15)
(2.84975e-05 4.36844e-05 2.21449e-15)
(1.72835e-05 2.83924e-05 1.02838e-15)
(9.42293e-06 1.56651e-05 4.50036e-16)
(5.36249e-06 9.3998e-06 1.93075e-16)
(2.42082e-06 4.49165e-06 7.26216e-17)
(1.43819e-06 2.50588e-06 3.11742e-17)
(-0.0569828 0.261201 -0.0352643)
(-0.0830441 0.240929 0.0668405)
(-0.120554 0.143194 0.0668897)
(-0.222631 0.21907 0.0492629)
(-0.264133 0.119187 -0.0898595)
(-0.18513 0.0504075 0.0587371)
(-0.048048 -0.00684851 -0.00724885)
(-0.0632608 -0.0266273 0.000234617)
(-0.0202333 -0.0348316 -3.79515e-06)
(-0.00637488 -0.019542 9.91142e-09)
(-0.00254587 -0.0234089 4.56869e-11)
(0.0121961 -0.0183105 2.84999e-11)
(0.0141926 -0.00769199 1.36608e-11)
(0.0108771 0.00149082 5.86216e-12)
(0.00412263 0.00299656 2.20561e-12)
(0.00178801 0.00188525 9.46815e-13)
(0.000725889 0.00106023 4.36568e-13)
(0.000500591 0.000637483 2.21388e-13)
(0.000327009 0.000434351 1.13613e-13)
(0.000227879 0.000312211 5.93771e-14)
(0.000153541 0.000220725 3.09188e-14)
(0.000103251 0.000159064 1.60271e-14)
(6.7154e-05 0.000106816 8.1385e-15)
(4.32855e-05 7.38381e-05 4.04622e-15)
(2.61842e-05 4.55232e-05 1.93398e-15)
(1.59071e-05 2.95505e-05 8.99125e-16)
(8.58155e-06 1.63298e-05 3.92659e-16)
(4.91574e-06 9.80818e-06 1.6882e-16)
(2.17164e-06 4.72591e-06 6.32296e-17)
(1.30802e-06 2.67711e-06 2.71324e-17)
(-0.0132892 0.396995 -0.0363504)
(-0.0356978 0.306695 -0.0648094)
(-0.129818 0.312892 0.00488646)
(-0.240055 0.329898 0.124342)
(-0.414956 0.224138 -0.231721)
(-0.328561 -0.0621985 0.130432)
(-0.157013 -0.0618426 -0.0182113)
(-0.0528728 -0.0275699 0.000588938)
(-0.0207735 -0.0547129 -5.57327e-06)
(-0.00265306 -0.0240134 2.91345e-09)
(-0.00209304 -0.0300696 4.8676e-11)
(0.01567 -0.0256986 3.18924e-11)
(0.0179106 -0.00984493 1.44279e-11)
(0.012333 0.00202808 5.62276e-12)
(0.00374718 0.00381238 1.87298e-12)
(0.00136479 0.00218944 7.80646e-13)
(0.000537136 0.00114213 3.63817e-13)
(0.000422917 0.000643923 1.87682e-13)
(0.000292333 0.000439419 9.6809e-14)
(0.000207479 0.000313301 5.07063e-14)
(0.000140486 0.000222307 2.63804e-14)
(9.45066e-05 0.000159219 1.36814e-14)
(6.12966e-05 0.000106938 6.93595e-15)
(3.94855e-05 7.36826e-05 3.45173e-15)
(2.37179e-05 4.5369e-05 1.64652e-15)
(1.44406e-05 2.93975e-05 7.66795e-16)
(7.69019e-06 1.6187e-05 3.33935e-16)
(4.44333e-06 9.6723e-06 1.44017e-16)
(1.91193e-06 4.60711e-06 5.36396e-17)