/*--------------------------------*- C++ -*----------------------------------*\
| =========                 |                                                 |
| \\      /  F ield         | OpenFOAM: The Open Source CFD Toolbox           |
|  \\    /   O peration     | Version:  2.4.0                                 |
|   \\  /    A nd           | Web:      www.OpenFOAM.org                      |
|    \\/     M anipulation  |                                                 |
\*---------------------------------------------------------------------------*/
FoamFile
{
    version     2.0;
    format      ascii;
    class       volScalarField;
    location    "0.068";
    object      p;
}
// * * * * * * * * * * * * * * * * * * * * * * * * * * * * * * * * * * * * * //

dimensions      [1 -1 -2 0 0 0 0];

internalField   nonuniform List<scalar> 
3600
(
100.137
101.267
102.976
104.583
105.883
106.635
106.659
105.913
104.429
102.316
99.7879
97.1182
94.6998
91.9847
91.2606
88.6034
89.9342
90.0827
91.3542
91.0454
85.2869
83.4479
85.485
92.6785
95.907
94.6022
94.3225
95.1546
95.7727
96.6015
96.8738
98.0053
99.7163
101.325
102.628
103.383
103.408
102.662
101.174
99.0566
96.5177
93.8362
91.4081
88.6842
87.9132
85.2434
86.39
86.588
87.5843
86.9098
79.2488
75.6364
79.143
85.9413
88.481
87.6478
87.4499
88.0464
89.0024
90.4877
93.6054
94.7397
96.4559
98.0691
99.3774
100.138
100.167
99.4225
97.9303
95.8018
93.2441
90.5403
88.0932
85.3539
84.5305
81.7923
82.8025
82.7088
83.4937
82.2853
73.1872
69.6275
72.9093
80.0435
83.9853
84.6504
84.0414
84.5036
85.2892
86.0218
90.3317
91.4704
93.1944
94.814
96.131
96.9013
96.9383
96.1964
94.6988
92.5534
89.9684
87.2313
84.7555
81.9962
81.1248
78.3078
79.2264
78.6058
79.1953
76.8554
68.0187
64.3944
67.68
75.329
80.3378
81.4641
82.1508
82.3747
83.1273
83.3514
87.0526
88.1973
89.9318
91.56
92.889
93.6728
93.7206
92.9837
91.4799
89.3116
86.6904
83.9088
81.3928
78.6112
77.6919
74.7739
75.812
74.2429
75.0052
72.4706
64.5073
61.8715
65.8841
73.9054
78.4645
79.6958
79.7983
80.106
80.5385
80.6649
83.7683
84.9204
86.6681
88.3072
89.6513
90.4535
90.5144
89.7846
88.2739
86.0766
83.4103
80.5725
78.0031
75.1963
74.1998
71.1682
72.2013
70.1627
70.4862
68.7718
62.8913
62.6
66.76
73.708
75.9282
76.8471
76.9656
77.5003
77.8573
78.1555
80.4785
81.6396
83.4033
85.0554
86.4179
87.2415
87.3198
86.5993
85.0813
82.8484
80.128
77.2216
74.5853
71.7489
70.6289
67.4738
68.4567
66.1791
65.3677
65.1412
61.4886
61.542
66.1052
71.6203
73.655
74.2852
74.3911
74.6861
75.0804
75.7536
77.1833
78.355
80.1373
81.8046
83.1887
84.0376
84.1369
83.4281
81.9023
79.6274
76.8436
73.8552
71.1386
68.2748
66.9785
63.7323
64.4044
61.8319
60.2178
61.9581
59.459
59.9158
64.0052
68.1297
71.1902
72.6753
73.2195
73.7637
74.0782
74.1655
73.8827
75.0665
76.8702
78.5548
79.9637
80.8418
80.9657
80.2713
78.7375
76.4136
73.5575
70.4716
67.6638
64.7873
63.2668
60.0567
60.0071
57.13
55.6148
58.0384
56.6004
57.2756
60.6363
64.7232
67.5213
70.6008
72.7063
73.4989
73.8486
73.3021
70.5765
71.774
73.6019
75.3058
76.7428
77.6542
77.8064
77.1291
75.5874
73.2073
70.27
67.0687
64.1636
61.2824
59.5
56.4149
55.668
53.3895
51.0922
52.8167
52.6403
53.199
56.8514
61.078
64.6482
67.9589
70.1372
71.2757
71.8186
71.6053
67.2648
68.4776
70.3323
72.0575
73.5259
74.4748
74.659
74.002
72.4528
70.0087
66.9816
63.6443
60.6397
57.7421
55.6676
52.7384
51.3909
49.7686
46.4621
47.4122
47.8706
49.2685
52.9386
57.1626
61.4072
64.942
67.229
68.5931
69.1558
69.1641
63.9473
65.1771
67.0616
68.8099
70.313
71.3035
71.5236
70.8902
69.3344
66.8179
63.6926
60.1957
57.092
54.1583
51.8305
48.9248
46.9775
45.3523
41.5197
41.9423
42.8821
45.6617
49.5531
53.1322
56.5939
60.7431
63.7164
65.9727
67.2055
67.3062
60.6241
61.8726
63.7896
65.5628
67.104
68.1402
68.4003
67.7943
66.2332
63.635
60.4038
56.7196
53.5175
50.5407
48.0025
45.0278
42.3675
40.1688
36.3008
35.9128
37.7591
41.0761
45.1676
48.7911
51.9449
56.2727
59.9678
62.8403
64.3511
64.6521
57.2951
58.564
60.5163
62.316
63.8987
64.985
65.2891
64.7148
63.1502
60.46
57.1162
53.2109
49.9164
46.8848
44.2023
41.024
37.5641
34.9366
30.988
29.2746
30.7146
35.3771
40.124
43.6847
47.4688
52.4489
56.9573
59.9279
61.2619
61.6117
53.9601
55.2512
57.2417
59.0694
60.6971
61.8377
62.1901
61.652
60.0867
57.2926
53.8309
49.664
46.2879
43.2045
40.381
36.9534
32.9462
29.5426
24.7155
21.5127
22.795
26.9975
32.0437
36.8687
43.5084
49.4918
52.662
55.4647
56.5741
57.1376
50.619
51.9341
53.9657
55.8228
57.4989
58.6984
59.1033
58.6065
57.044
54.1328
50.5491
46.0719
42.6333
39.5046
36.5605
32.8379
28.7855
25.1887
16.1753
11.2669
9.86339
14.5755
21.6104
29.8811
37.7626
43.7954
47.0885
50.0242
51.2423
52.1088
47.2718
48.6128
50.6884
52.5759
54.3042
55.5668
56.0288
55.5789
54.0239
50.9804
47.2714
42.4287
38.9576
35.7711
32.7439
28.8798
24.4069
21.66
7.44757
-0.218495
-1.89328
3.27698
10.4807
22.0127
32.1531
39.6248
43.6481
46.0539
46.9017
47.7411
43.9183
45.2872
47.4098
49.3285
51.1127
52.443
52.9665
52.5698
51.0282
47.8349
43.9962
38.7322
35.2705
31.9929
28.9375
25.0355
20.3422
15.2962
-1.69643
-15.8144
-22.7983
-19.0032
-3.36435
11.3162
24.3416
33.0879
38.3956
41.6255
42.7233
43.4569
40.5583
41.9572
44.1298
46.0804
47.9242
49.3267
49.9164
49.5796
48.0589
44.6963
40.7196
34.983
31.5759
28.1994
25.1989
21.0697
17.0526
8.36557
-12.116
-25.8821
-25.5445
-15.9576
1.34179
1.62184
11.4123
22.43
30.4641
35.2723
37.4816
37.963
37.1918
38.6227
40.8484
42.8313
44.7385
46.2178
46.8783
46.6091
45.1185
41.5653
37.4368
31.18
27.8728
24.3964
21.4047
17.3643
13.5052
5.74029
-7.7783
-5.15302
-21.3574
-16.5357
-4.34364
4.03835
3.98458
14.6965
23.5681
29.195
31.7764
32.3726
33.8186
35.2837
37.5656
39.5809
41.5555
43.1162
43.8521
43.6588
42.21
38.4432
34.1442
27.3221
24.1665
20.5665
17.4698
13.9804
9.4937
2.61962
-0.0147422
0.567947
-8.4572
-5.92091
2.45866
0.8832
4.0012
11.5047
19.2536
24.1639
27.1445
27.6796
30.4385
31.9402
34.2814
36.3288
38.3747
40.0215
40.8375
40.7291
39.3365
35.3324
30.8408
23.4074
20.4485
16.6974
13.5804
10.4237
4.65913
-0.318949
0.135435
0.205875
-1.6027
-12.0355
2.68429
2.51946
3.10283
9.86877
16.3339
20.9572
23.7081
24.5643
27.0514
28.592
30.9959
33.0749
35.1961
36.9335
37.8343
37.8204
36.5015
32.237
27.5225
19.428
16.685
12.794
9.65848
6.67906
-0.405316
0.159182
0.25798
0.216842
-0.936645
-5.50198
1.61296
3.00546
3.19261
9.2975
14.8848
19.7172
22.1805
22.9357
23.657
25.2392
27.7088
29.8188
32.0192
33.8518
34.8417
34.9332
33.7102
29.1613
24.191
15.397
12.8772
8.88715
5.2634
2.17314
0.0564925
0.163696
0.357827
0.331818
0.124933
-0.197432
-4.86326
4.99898
6.12074
11.7192
16.12
20.1385
21.8721
22.3126
20.2553
21.8816
24.4203
26.56
28.844
30.7763
31.86
32.067
30.9656
26.116
20.8694
11.3032
9.05198
4.93361
0.993688
0.00710142
0.0725719
0.174804
0.24344
0.359891
0.10009
0.0143773
-1.45374
12.5192
11.3621
15.5343
19.2819
21.2916
21.9624
21.9357
16.8459
18.5194
21.1303
23.2983
25.6699
27.7064
28.8861
29.2216
28.2773
23.1102
17.4687
7.12116
5.12902
0.52344
-0.209953
-0.0295045
0.0175393
0.0747752
0.153186
0.259989
0.106876
-0.360195
-2.82424
5.46026
13.64
17.99
21.5328
21.7872
21.4964
21.1825
13.4286
15.1521
17.8387
20.0332
22.497
24.6423
25.9306
26.3968
25.6474
20.1224
13.9337
2.98913
0.736836
-0.590787
0.0954228
-0.0445478
-0.016656
0.0193566
0.0476106
0.0807571
-0.0967363
-0.387851
0.172995
0.271869
14.4317
20.5147
21.7525
21.5155
20.5828
20.288
10.0037
11.7819
14.5454
16.7647
19.325
21.5831
22.9732
23.588
23.0793
17.1878
10.3305
-1.71102
-1.15445
-0.121906
0.0732442
-0.0389001
-0.0588544
-0.0505669
-0.0385225
-0.0649362
-0.215941
-0.19296
-0.0867859
-0.133853
1.9787
12.4733
17.3488
19.7919
19.8728
20.0437
6.56743
8.39423
11.2504
13.4915
16.1529
18.5283
20.0219
20.7947
20.5999
14.3532
6.16304
-6.53935
-0.0787591
-0.0707847
0.0419595
-0.0489738
-0.0872138
-0.0935856
-0.104711
-0.138884
-0.207044
-0.157698
-0.173157
-0.241642
-0.261437
0.677375
1.51325
3.62223
6.27891
9.15379
3.12645
5.05788
7.95275
10.2138
12.9826
15.4803
17.0783
18.0189
18.1949
11.3535
-2.07393
-3.5653
-0.013405
-0.0513908
0.0219862
-0.0536196
-0.120108
-0.144017
-0.153892
-0.168651
-0.188217
-0.19188
-0.203352
-0.200879
-0.163848
-0.0469908
-0.063054
-0.0407971
-0.0150011
-0.0210142
97.0146
94.8847
94.5464
93.8053
94.1002
95.4428
92.2628
85.0792
83.04
84.833
90.5333
90.9101
89.6518
89.5237
88.2583
90.9462
91.7385
94.49
96.951
99.6522
102.21
104.346
105.849
106.607
106.594
105.852
104.563
102.968
101.269
100.139
90.4615
88.7717
87.6789
86.9971
87.1492
88.0784
85.5754
78.7359
75.2347
78.7991
86.4085
87.1279
86.1571
85.9777
84.8993
87.5985
88.439
91.1986
93.6695
96.3822
98.9504
101.091
102.598
103.357
103.342
102.597
101.306
99.7086
98.0071
96.8764
85.9254
85.1163
84.2717
83.749
84.3331
83.5828
79.7033
72.5307
69.2568
72.7701
81.7801
83.0186
82.2713
82.3879
81.4502
84.2155
85.1109
87.8844
90.3747
93.1091
95.696
97.8477
99.3587
100.116
100.097
99.3461
98.0498
96.4483
94.7416
93.608
83.2823
82.9741
82.1359
81.7797
81.1046
80.0453
75.0276
67.3054
64.0254
67.602
76.3445
78.6984
78.1639
78.8071
77.9689
80.8091
81.7564
84.5477
87.0672
89.834
92.4483
94.6167
96.1329
96.8872
96.8602
96.0997
94.7947
93.1868
91.4724
90.3343
80.6093
80.3792
79.8559
79.4538
79.3524
78.2045
73.6222
65.5287
61.4956
64.1037
71.9477
74.497
73.794
75.39
74.4383
77.3749
78.3756
81.1863
83.7467
86.5569
89.2074
91.3984
92.9207
93.6698
93.6318
92.8577
91.5408
89.9243
88.1995
87.0553
78.107
77.7589
77.3446
76.7759
76.6247
75.7243
73.4564
66.4399
62.2068
62.492
68.2219
69.9496
69.7196
71.7691
70.8353
73.8805
74.9657
77.7984
80.4129
83.2777
85.9735
88.1933
89.7223
90.464
90.4119
89.6199
88.2879
86.6607
84.9227
83.771
75.7542
75.131
74.68
74.265
74.0097
73.2928
71.3278
65.7758
61.1388
61.064
64.5752
64.8201
65.7366
68.0159
67.1453
70.3071
71.5243
74.3829
77.065
79.9966
82.7467
85.0017
86.5378
87.2698
87.2
86.3865
85.0362
83.396
81.6422
80.4813
74.1295
73.9776
73.6048
72.971
72.3275
70.7302
67.6837
63.5911
59.4643
59.0059
61.3653
59.6694
61.394
63.9543
63.4097
66.6548
68.0573
70.9391
73.7021
76.7135
79.5273
81.8238
83.3676
84.0875
83.9962
83.1573
81.7854
80.1303
78.3578
77.1862
73.2356
73.6415
73.2915
72.3673
70.2286
67.1297
64.2778
60.1332
56.7491
56.1043
57.3845
55.0168
56.7038
59.5462
59.7412
62.9434
64.578
67.468
70.3226
73.4289
76.3153
78.6603
80.2118
80.9169
80.8006
79.9322
78.5356
76.8633
75.0696
73.8857
71.5979
71.8341
71.1423
69.8194
67.5653
64.2005
60.5933
56.2658
52.6079
52.0689
52.1143
50.4559
52.9652
55.1994
56.1067
59.1793
61.0823
63.9722
66.9244
70.1428
73.1111
75.5118
77.0708
77.7583
77.6131
76.7113
75.2866
73.5953
71.7774
70.5796
69.0942
69.1165
68.4977
66.9681
64.5594
60.9328
56.6318
52.3056
48.5896
47.2382
46.6593
45.7983
49.3272
50.9074
52.4374
55.353
57.5517
60.4535
63.5053
66.8558
69.9149
72.3788
73.945
74.6116
74.4338
73.4943
72.0383
70.326
68.4814
67.2679
67.3073
67.1425
65.8143
63.4217
60.3254
56.0892
52.5341
48.9167
44.956
42.1704
41.1316
40.813
44.8802
46.4897
48.6234
51.5278
53.9776
56.9119
60.0624
63.5682
66.7267
69.2622
70.8347
71.477
71.2625
70.2813
68.7907
67.0556
65.1813
63.9506
64.6324
64.1143
62.541
59.5578
55.7913
51.4044
48.2112
44.4701
40.3658
37.0092
34.9963
35.5202
39.6617
41.9025
44.726
47.717
50.3695
53.3445
56.5921
60.2808
63.5467
66.163
67.7404
68.3546
68.0994
67.0722
65.5436
63.784
61.8773
60.6275
61.5356
60.9351
59.5454
56.5415
51.9274
46.8846
43.0506
39.3513
34.5941
29.85
28.2066
30.1653
34.4247
37.1579
40.7183
43.9322
46.7235
49.7516
53.0893
56.9943
60.375
63.0821
64.6626
65.2445
64.9442
63.8668
62.2969
60.511
58.5692
57.2986
57.0903
56.3197
54.9899
52.1207
48.9375
43.0099
36.2097
31.2507
26.1607
21.86
20.45
23.8925
29.1113
32.5776
36.623
40.1313
43.0538
46.132
49.5481
53.71
57.2113
60.0207
61.6016
62.1466
61.797
60.665
59.0503
57.2369
55.2569
53.9637
52.0834
51.0592
49.622
46.5561
43.2372
37.2361
29.2052
20.7276
13.5757
8.69211
10.0687
15.3968
24.8054
28.3967
32.4811
36.3442
39.3657
42.488
45.9611
50.4296
54.0553
56.9804
58.5582
59.061
58.6577
57.4666
55.8037
53.9614
51.9405
50.6228
47.7025
46.6573
45.7197
43.2072
39.035
31.4516
21.2592
9.46423
1.9561
-2.86967
-1.74894
6.64113
21.0174
23.9913
28.529
32.5755
35.6439
38.8247
42.3227
47.1536
50.9065
53.9627
55.5327
55.9878
55.5261
54.2716
52.5569
50.6846
48.6199
47.2757
43.3615
42.4882
41.3156
37.9936
32.4956
23.5463
10.5693
-4.18491
-19.7518
-23.8011
-17.7771
-2.51384
14.4644
19.99
24.7114
28.818
31.8761
35.1509
38.6307
43.8804
47.7646
50.9694
52.5259
52.9269
52.4021
51.0797
49.3095
47.4065
45.295
43.9223
37.8213
37.2604
34.9795
30.1398
21.9419
10.6334
0.912887
-0.107597
-17.4815
-25.843
-26.4323
-13.0266
7.57236
16.7445
20.76
25.1264
28.0901
31.4693
34.886
40.6059
44.6294
48.0027
49.5382
49.8783
49.2857
47.8908
46.0614
44.1271
41.9658
40.5625
32.2446
31.5916
28.9598
23.2485
14.2387
3.19489
3.24814
-5.55506
-18.2842
-20.9769
-6.17359
-8.90336
5.06003
13.2341
17.0902
21.3752
24.2925
27.7798
31.0878
37.3254
41.5014
45.0649
46.5702
46.8419
46.1766
44.7047
42.8123
40.8463
38.6322
37.1961
27.6641
27.0463
24.0142
18.9775
11.0823
3.59938
0.0764654
1.5711
-10.5844
-11.5766
0.419799
0.184251
2.41372
9.21058
13.7733
17.4853
20.4717
24.0906
27.2333
34.0356
38.3818
42.1589
43.6226
43.8176
43.0746
41.521
39.5619
37.5642
35.2942
33.8229
24.574
23.6773
20.9322
16.1235
9.62709
2.4206
1.76097
2.28302
-12.4649
-3.10569
0.216355
0.166298
-0.439304
4.37134
10.2741
13.6399
16.6178
20.3943
23.3188
30.7358
35.2729
39.2879
40.6958
40.805
39.9795
38.3396
36.3099
34.2808
31.9517
30.4429
22.9543
22.1339
19.8115
14.8218
8.86379
2.56726
2.19118
0.201706
-6.59823
-1.04359
0.26233
0.218983
0.142802
-0.548477
6.62456
9.75251
12.7344
16.6559
19.336
27.4217
32.1785
36.4556
37.7901
37.8039
36.8909
35.1601
33.056
30.996
28.6047
27.0558
22.2782
21.7575
20.0169
16.1349
11.4949
5.35545
4.80822
-3.87684
-0.269975
0.111484
0.340654
0.301751
0.148084
0.00230755
2.10434
5.3673
8.84957
12.8779
15.2988
24.0936
29.1026
33.6668
34.9062
34.8137
33.8086
31.9823
29.7999
27.7098
25.2531
23.6614
21.8387
21.6182
20.8123
18.9771
15.1644
10.535
12.0664
-1.58264
-0.081404
0.0665351
0.325237
0.20072
0.151001
0.0251915
-0.0290401
1.07438
4.91284
9.09117
11.1942
20.7739
26.0556
30.9247
32.0435
31.8345
30.7322
28.8059
26.5413
24.4222
21.8969
20.2596
21.1447
21.0338
21.2184
20.7672
17.2781
13.4902
4.52131
-2.82171
-0.331666
0.0423684
0.220108
0.109023
0.0439287
-0.0242906
-0.0709313
-0.242506
0.560526
5.2242
6.94993
17.4126
23.0468
28.2388
29.2017
28.8636
27.6613
25.6305
23.2796
21.1331
18.5362
16.8502
20.2246
19.9033
20.2926
20.5718
19.7853
14.9234
-0.0278201
-0.115328
-0.349042
-0.172442
0.0382699
0.0048178
-0.00649744
-0.0520235
-0.0797045
0.0549612
-0.587701
0.89516
2.74236
13.919
20.0535
25.6112
26.3809
25.9097
24.5959
22.4561
20.0147
17.8425
15.1705
13.4327
19.7195
19.058
17.9384
15.5483
9.50112
1.70821
-0.0770006
-0.144531
-0.242067
-0.293247
-0.117545
-0.0775681
-0.0737133
-0.0877253
-0.0616468
0.0412698
-0.11167
-1.13383
-2.03315
10.3632
17.1097
23.0455
23.5764
22.9559
21.5353
19.2822
16.7464
14.5502
11.8019
10.0077
8.00416
5.68502
3.01515
1.09101
0.335764
-0.186395
-0.196562
-0.178139
-0.199401
-0.27211
-0.195949
-0.140553
-0.12134
-0.111012
-0.0690933
0.0135837
-0.0710793
-0.154211
-6.79493
6.24964
14.2619
20.5685
20.788
20.0084
18.4787
16.1081
13.4735
11.2563
8.41594
6.5712
-0.0200204
-0.0125623
-0.0252999
-0.045661
-0.0553623
-0.132103
-0.182233
-0.200548
-0.206322
-0.216644
-0.21512
-0.184998
-0.165628
-0.136378
-0.0707377
-0.00428628
-0.064184
-0.0558036
-3.64218
-1.88968
11.2433
18.1665
18.0175
17.069
15.4285
12.9355
10.1962
7.95985
5.0817
3.12998
0.659189
2.43545
5.47396
7.74547
10.596
13.1888
14.8641
15.9294
16.443
9.00485
-7.38688
-0.0545584
-0.0107911
-0.0365135
0.00994218
-0.0652137
-0.141735
-0.176099
-0.188452
-0.186504
-0.195639
-0.210319
-0.176884
-0.172609
-0.131728
-0.0685055
-0.0780216
-0.0538152
-0.0358156
-0.0321666
0.0311321
1.40867
3.76825
6.01955
8.92851
11.5886
13.3182
14.4734
15.2962
7.64067
-4.93582
0.273699
-0.00412193
-0.0290405
0.00451069
-0.0735961
-0.156492
-0.1955
-0.211829
-0.203202
-0.20417
-0.216546
-0.161208
-0.159003
-0.118598
-0.0730639
-0.0692629
-0.0517968
-0.0389009
-0.0343632
-0.164371
0.765991
2.43076
4.30382
7.15353
9.85779
11.6413
12.9169
14.1038
6.92765
1.48178
0.268045
-0.0197634
-0.0239244
-0.00172115
-0.0820354
-0.167593
-0.215571
-0.233645
-0.222276
-0.211835
-0.219723
-0.159741
-0.147925
-0.108737
-0.0737367
-0.0628628
-0.0488262
-0.0391193
-0.0348317
-0.0963027
0.282358
1.24827
2.61604
5.31314
8.0058
10.0072
11.184
12.5194
1.76878
2.98649
0.261977
-0.0313139
-0.0237584
-0.0103351
-0.0898809
-0.184587
-0.235431
-0.253643
-0.240561
-0.224304
-0.224493
-0.163521
-0.138406
-0.101798
-0.0727444
-0.0599636
-0.0471828
-0.038507
-0.0342893
-0.0882459
-0.0488666
0.249027
1.11327
3.39327
5.92972
7.91391
9.1804
10.267
-3.22
-0.621207
0.234722
-0.0288244
-0.0237741
-0.0202957
-0.0992989
-0.198994
-0.254485
-0.27382
-0.257996
-0.226147
-0.23164
-0.168539
-0.133159
-0.0990408
-0.0741031
-0.05984
-0.04724
-0.038916
-0.0348229
-0.0908811
-0.0888223
-0.0975308
0.247344
1.58665
3.64157
5.51363
6.75517
4.99853
-2.64056
-0.538348
0.213336
-0.0255563
-0.025248
-0.0317877
-0.109333
-0.208251
-0.272007
-0.292017
-0.272455
-0.244853
-0.2308
-0.175181
-0.133544
-0.100899
-0.0779615
-0.0623754
-0.0497534
-0.0416692
-0.0377279
-0.0944497
-0.0906026
-0.12608
-0.109226
0.308509
1.33768
2.5567
3.36896
0.578655
0.0618107
-0.384093
0.143184
-0.0365803
-0.0302064
-0.0416205
-0.107308
-0.222345
-0.28645
-0.307657
-0.281297
-0.255062
-0.243184
-0.180556
-0.137129
-0.105788
-0.0840719
-0.0680424
-0.0556399
-0.0478486
-0.0440936
-0.0989892
-0.0934369
-0.129796
-0.173659
-0.126066
0.0164
0.184068
0.206547
-0.218613
-0.299383
-0.354073
0.100031
-0.0456278
-0.037536
-0.0504668
-0.115974
-0.214549
-0.294739
-0.314446
-0.285539
-0.258759
-0.241074
-0.183319
-0.140866
-0.112283
-0.0923256
-0.0769458
-0.0651537
-0.0577323
-0.0543267
-0.102974
-0.0966572
-0.132751
-0.176541
-0.140825
-0.135043
-0.170106
-0.190116
-0.207538
-0.278657
-0.328602
0.0567996
-0.0534723
-0.0456551
-0.0609628
-0.1221
-0.230281
-0.295592
-0.316258
-0.283193
-0.255705
-0.231169
-0.180848
-0.14389
-0.119558
-0.102328
-0.0884
-0.0775562
-0.0707696
-0.0678116
-0.10714
-0.0995842
-0.140577
-0.18087
-0.145252
-0.138311
-0.173143
-0.192232
-0.21399
-0.256201
-0.302347
0.0145797
-0.06004
-0.0570445
-0.0744779
-0.131439
-0.226306
-0.288422
-0.305478
-0.274322
-0.244469
-0.215608
-0.176843
-0.145579
-0.126702
-0.112995
-0.100905
-0.0913796
-0.0854997
-0.0830553
-0.111618
-0.104532
-0.145156
-0.186143
-0.150494
-0.142084
-0.176332
-0.194235
-0.2147
-0.242507
-0.279389
-0.0234795
-0.0668453
-0.0685357
-0.0843213
-0.134078
-0.217384
-0.272908
-0.283318
-0.248132
-0.21625
-0.19681
-0.170946
-0.146707
-0.133855
-0.122786
-0.112566
-0.104671
-0.099891
-0.0979907
-0.116399
-0.109493
-0.150244
-0.190106
-0.156317
-0.146389
-0.179419
-0.195533
-0.214315
-0.230711
-0.25769
-0.0565636
-0.0759695
-0.0793016
-0.0925778
-0.135236
-0.204892
-0.250683
-0.2467
-0.210124
-0.19379
-0.168134
-0.158431
-0.147331
-0.139332
-0.130766
-0.122415
-0.116098
-0.112273
-0.110841
-0.121506
-0.115012
-0.155521
-0.193448
-0.162372
-0.151253
-0.182339
-0.196252
-0.212716
-0.221139
-0.237997
-0.0847013
-0.0867103
-0.0904009
-0.103941
-0.136581
-0.190577
-0.22482
-0.22535
-0.189568
-0.175116
-0.156685
-0.156427
-0.147904
-0.142992
-0.135563
-0.129252
-0.124714
-0.121587
-0.120519
-0.126949
-0.121176
-0.160572
-0.196123
-0.168274
-0.156579
-0.185123
-0.196675
-0.210468
-0.214495
-0.220875
-0.107736
-0.0982757
-0.100664
-0.102977
-0.134966
-0.177369
-0.199884
-0.198732
-0.184294
-0.162351
-0.149459
-0.154947
-0.148352
-0.144266
-0.138577
-0.133245
-0.129188
-0.126536
-0.125842
-0.132731
-0.127919
-0.165047
-0.1981
-0.173718
-0.162176
-0.187898
-0.197266
-0.208409
-0.20954
-0.206941
-0.12574
-0.110229
-0.110423
-0.117005
-0.131207
-0.166676
-0.17897
-0.176811
-0.170885
-0.167426
-0.156685
-0.1561
-0.149207
-0.144177
-0.13886
-0.133967
-0.130125
-0.127647
-0.126612
-0.138877
-0.13519
-0.168954
-0.199468
-0.178679
-0.167969
-0.190772
-0.198274
-0.206768
-0.205984
-0.197322
-0.1397
-0.121642
-0.119674
-0.124739
-0.134423
-0.148674
-0.163746
-0.159779
-0.157209
-0.155391
-0.155924
-0.142462
-0.134139
-0.136976
-0.136272
-0.131392
-0.126681
-0.123747
-0.122457
-0.145409
-0.142921
-0.172512
-0.200551
-0.183395
-0.173969
-0.193844
-0.199756
-0.205804
-0.203564
-0.191475
-0.150487
-0.132513
-0.12884
-0.131757
-0.1392
-0.147714
-0.146001
-0.147229
-0.146517
-0.145811
-0.145001
-0.130574
-0.121268
-0.123295
-0.128332
-0.1231
-0.118626
-0.114755
-0.113009
-0.152353
-0.151059
-0.176139
-0.201822
-0.18812
-0.18018
-0.197185
-0.201756
-0.205628
-0.202101
-0.188854
-0.159083
-0.142832
-0.137937
-0.138925
-0.143195
-0.14799
-0.137722
-0.137029
-0.142785
-0.140805
-0.13908
-0.133896
-0.127103
-0.124469
-0.11984
-0.112372
-0.108993
-0.104098
-0.101933
-0.159747
-0.159576
-0.180246
-0.203618
-0.193055
-0.186614
-0.200866
-0.204309
-0.206299
-0.201797
-0.188784
-0.166648
-0.152589
-0.146887
-0.145981
-0.147692
-0.149643
-0.150042
-0.134091
-0.14017
-0.139162
-0.1357
-0.130933
-0.125713
-0.119786
-0.113691
-0.108562
-0.104486
-0.100519
-0.0992012
-0.167632
-0.168449
-0.185104
-0.206149
-0.198335
-0.193292
-0.204972
-0.207452
-0.207921
-0.202823
-0.190765
-0.173814
-0.161734
-0.155591
-0.153217
-0.152715
-0.15238
-0.150995
-0.14669
-0.140708
-0.139289
-0.13544
-0.130563
-0.125572
-0.120452
-0.115628
-0.111927
-0.10942
-0.107798
-0.106972
-0.176062
-0.177665
-0.190866
-0.209531
-0.204066
-0.200251
-0.209593
-0.211238
-0.210571
-0.205134
-0.194386
-0.18101
-0.170703
-0.164412
-0.160811
-0.158533
-0.156454
-0.153581
-0.149598
-0.145394
-0.141296
-0.137964
-0.133989
-0.12998
-0.126205
-0.122889
-0.120347
-0.118652
-0.117654
-0.117213
-0.185088
-0.187274
-0.197569
-0.21385
-0.210329
-0.207545
-0.214819
-0.215753
-0.214268
-0.208832
-0.199467
-0.188675
-0.179771
-0.173467
-0.169087
-0.165785
-0.162529
-0.158866
-0.154889
-0.150974
-0.147355
-0.144202
-0.141114
-0.138194
-0.135599
-0.133447
-0.131828
-0.130745
-0.13012
-0.129863
-0.194754
-0.197251
-0.20532
-0.219166
-0.217191
-0.215243
-0.22074
-0.22109
-0.219097
-0.213889
-0.205829
-0.196957
-0.189292
-0.183356
-0.178716
-0.174718
-0.170926
-0.167144
-0.163358
-0.159837
-0.156743
-0.154076
-0.151698
-0.149612
-0.147859
-0.146473
-0.14546
-0.144791
-0.144416
-0.144276
-0.205116
-0.207766
-0.214001
-0.225524
-0.224718
-0.22343
-0.227445
-0.227343
-0.225107
-0.220289
-0.213463
-0.206132
-0.199501
-0.193965
-0.189353
-0.185305
-0.181547
-0.178
-0.17467
-0.171674
-0.169101
-0.16694
-0.165126
-0.16363
-0.162436
-0.16153
-0.160889
-0.160478
-0.160257
-0.160188
-0.216236
-0.218881
-0.223618
-0.232965
-0.232981
-0.232198
-0.23502
-0.234609
-0.232349
-0.228059
-0.222335
-0.216258
-0.210615
-0.205697
-0.201439
-0.19765
-0.194158
-0.191106
-0.188324
-0.185892
-0.183841
-0.182155
-0.18079
-0.179712
-0.178886
-0.17828
-0.177864
-0.177606
-0.177476
-0.177444
-0.228184
-0.230665
-0.234185
-0.241524
-0.242053
-0.241648
-0.24355
-0.242974
-0.240867
-0.237191
-0.232508
-0.227564
-0.222875
-0.218671
-0.214967
-0.21171
-0.208876
-0.206224
-0.203959
-0.202049
-0.200476
-0.199208
-0.198209
-0.197441
-0.196867
-0.196458
-0.196184
-0.196019
-0.195941
-0.195928
-0.241036
-0.243201
-0.245725
-0.251231
-0.252013
-0.251882
-0.253113
-0.252512
-0.250701
-0.247713
-0.244008
-0.240099
-0.236349
-0.232938
-0.229914
-0.227265
-0.224961
-0.222954
-0.221253
-0.219844
-0.218702
-0.217797
-0.217097
-0.216568
-0.21618
-0.215909
-0.21573
-0.215625
-0.215578
-0.215574
-0.254877
-0.256588
-0.258274
-0.262113
-0.26294
-0.263002
-0.263782
-0.263282
-0.261886
-0.259644
-0.256902
-0.254007
-0.251209
-0.24865
-0.246386
-0.24442
-0.242732
-0.241309
-0.240129
-0.23917
-0.238406
-0.237811
-0.237357
-0.237018
-0.236773
-0.236604
-0.236493
-0.23643
-0.236403
-0.236403
-0.269804
-0.270901
-0.271884
-0.274181
-0.274908
-0.275104
-0.27561
-0.27532
-0.27444
-0.273
-0.271228
-0.269345
-0.267518
-0.265852
-0.264392
-0.263146
-0.262112
-0.261266
-0.26058
-0.260033
-0.259605
-0.259276
-0.259027
-0.258843
-0.25871
-0.258619
-0.25856
-0.258527
-0.258513
-0.258514
-0.28593
-0.28632
-0.286626
-0.287436
-0.287975
-0.288262
-0.288618
-0.28863
-0.288353
-0.287782
-0.287027
-0.286196
-0.285386
-0.28466
-0.284049
-0.283555
-0.283199
-0.282943
-0.282738
-0.282577
-0.282453
-0.28236
-0.282291
-0.282242
-0.282206
-0.282183
-0.282168
-0.28216
-0.282157
-0.282158
-0.0298396
-0.0301923
-0.040792
-0.0589805
-0.0632137
-0.113099
-0.163537
-0.185343
-0.217501
-0.201314
-0.227486
-0.212406
-0.177916
-0.151846
-0.0791473
-0.0190296
-0.0519737
-0.0519583
-0.0776964
-7.14381
8.83518
16.4162
15.9323
14.8583
13.135
10.5468
7.72814
5.48205
2.46075
0.661947
-0.032879
-0.0344767
-0.0423877
-0.0558223
-0.067553
-0.105101
-0.153358
-0.175851
-0.22422
-0.202052
-0.238192
-0.22954
-0.198043
-0.163575
-0.0854881
-0.0242213
-0.0462686
-0.0454148
0.25109
-4.88126
7.42492
15.271
14.479
13.3149
11.5334
8.87779
6.00252
3.77734
1.43557
0.0330798
-0.0334904
-0.0352684
-0.0416945
-0.0530969
-0.0676705
-0.0990884
-0.14562
-0.176142
-0.227529
-0.21077
-0.251909
-0.247167
-0.218611
-0.175508
-0.0933821
-0.0298132
-0.0427903
-0.059065
0.249653
1.88333
6.62302
14.0798
12.9255
11.6409
9.80145
7.10295
4.29142
2.44031
0.791091
-0.164499
-0.0330764
-0.0349886
-0.0411961
-0.0524263
-0.0681522
-0.0955807
-0.138434
-0.178252
-0.231565
-0.222711
-0.266411
-0.263799
-0.233009
-0.18007
-0.100388
-0.0370879
-0.0443513
-0.0689536
0.245868
3.0166
1.69705
12.4975
11.1921
9.98962
7.94587
5.25926
2.60402
1.25438
0.296793
-0.0965942
-0.0337674
-0.0358353
-0.0422499
-0.0538321
-0.0705977
-0.0963202
-0.135688
-0.181322
-0.237041
-0.236306
-0.280701
-0.279725
-0.249289
-0.192205
-0.107065
-0.0455442
-0.045569
-0.0633518
0.220767
-0.619778
-3.27913
10.2494
9.19503
7.90138
5.87073
3.33607
1.09584
0.247026
-0.0485728
-0.0898029
-0.0368762
-0.0391888
-0.0459108
-0.0579894
-0.0754722
-0.100557
-0.138092
-0.186233
-0.243229
-0.250242
-0.291832
-0.294162
-0.261302
-0.199718
-0.113496
-0.0545556
-0.0479433
-0.0559212
0.201159
-0.536379
-2.69042
4.99426
6.7803
5.50568
3.58988
1.53658
0.232022
-0.101122
-0.0891787
-0.0924439
-0.0435392
-0.0462628
-0.0535351
-0.0666781
-0.0779725
-0.10481
-0.143161
-0.192711
-0.245216
-0.251521
-0.304515
-0.304467
-0.270856
-0.202979
-0.119825
-0.063573
-0.0530405
-0.0637762
0.130212
-0.378965
0.0730894
0.591753
3.40501
2.56195
1.30882
0.286715
-0.115803
-0.129616
-0.0909347
-0.0959327
-0.0541229
-0.057254
-0.0648463
-0.0768802
-0.0838107
-0.110276
-0.146746
-0.192141
-0.248712
-0.26643
-0.306539
-0.306561
-0.274631
-0.208946
-0.121429
-0.072629
-0.0603037
-0.069351
0.0872132
-0.350517
-0.288781
-0.220657
0.212544
0.186122
0.0113326
-0.126407
-0.176042
-0.133289
-0.093724
-0.0998489
-0.0679493
-0.0713
-0.0789266
-0.0906698
-0.101049
-0.121123
-0.149546
-0.188926
-0.243323
-0.258821
-0.298243
-0.300588
-0.272827
-0.212671
-0.125461
-0.0831251
-0.0685927
-0.074075
0.0450156
-0.326807
-0.269554
-0.208925
-0.190959
-0.171596
-0.135718
-0.139266
-0.179176
-0.136265
-0.0968714
-0.103764
-0.0834226
-0.0867136
-0.0938078
-0.104936
-0.118075
-0.133554
-0.155995
-0.188256
-0.229024
-0.256663
-0.28211
-0.288924
-0.26808
-0.211953
-0.129453
-0.0814939
-0.0756339
-0.0782395
0.00333306
-0.302483
-0.248337
-0.215188
-0.193062
-0.174623
-0.138995
-0.143753
-0.183473
-0.144176
-0.0994773
-0.107899
-0.0985266
-0.101604
-0.107886
-0.117543
-0.129322
-0.141921
-0.155867
-0.174165
-0.210171
-0.232707
-0.26319
-0.271111
-0.256674
-0.202427
-0.137052
-0.0973361
-0.0849681
-0.083191
-0.0340987
-0.280904
-0.236083
-0.215594
-0.195038
-0.177797
-0.142772
-0.149069
-0.188746
-0.148856
-0.104473
-0.112346
-0.111482
-0.11433
-0.119749
-0.127968
-0.138049
-0.148395
-0.159007
-0.177335
-0.187709
-0.214452
-0.24168
-0.25133
-0.223833
-0.192537
-0.134643
-0.105195
-0.095936
-0.0907922
-0.066592
-0.260265
-0.225811
-0.214989
-0.19631
-0.180862
-0.147101
-0.154992
-0.19272
-0.15407
-0.109328
-0.117101
-0.121232
-0.123821
-0.128576
-0.135532
-0.144203
-0.153675
-0.162298
-0.172859
-0.17616
-0.1958
-0.208443
-0.199952
-0.201064
-0.179948
-0.13968
-0.114773
-0.105422
-0.10034
-0.0942274
-0.241404
-0.217669
-0.213284
-0.197005
-0.183753
-0.151992
-0.16117
-0.196154
-0.15945
-0.114746
-0.122184
-0.12664
-0.129035
-0.133454
-0.13975
-0.147324
-0.155835
-0.1627
-0.169165
-0.168699
-0.182436
-0.194445
-0.196788
-0.182339
-0.165795
-0.144412
-0.124288
-0.115152
-0.110958
-0.116877
-0.224867
-0.212277
-0.211044
-0.197412
-0.186504
-0.157326
-0.167216
-0.198909
-0.164543
-0.120816
-0.127606
-0.127264
-0.129414
-0.133542
-0.13964
-0.146792
-0.154667
-0.161745
-0.171516
-0.170333
-0.175388
-0.185821
-0.182027
-0.169
-0.169446
-0.144176
-0.133622
-0.124378
-0.12214
-0.134445
-0.211073
-0.208734
-0.209095
-0.198008
-0.189251
-0.162914
-0.172818
-0.200895
-0.168971
-0.127478
-0.133368
-0.122718
-0.124566
-0.128369
-0.134306
-0.141586
-0.148631
-0.153211
-0.156861
-0.165494
-0.165403
-0.168911
-0.167947
-0.171261
-0.160802
-0.153808
-0.14064
-0.132931
-0.132751
-0.147925
-0.20168
-0.206171
-0.207631
-0.199044
-0.192101
-0.168698
-0.177959
-0.202197
-0.172742
-0.134683
-0.139488
-0.112936
-0.11463
-0.118461
-0.123521
-0.130634
-0.132128
-0.134293
-0.14304
-0.15336
-0.154944
-0.157269
-0.164929
-0.158399
-0.161282
-0.154258
-0.14596
-0.141045
-0.142744
-0.158205
-0.195898
-0.204599
-0.206877
-0.20058
-0.195152
-0.174693
-0.182874
-0.203147
-0.176107
-0.142355
-0.145986
-0.101744
-0.10357
-0.108125
-0.111111
-0.119355
-0.121263
-0.122736
-0.137035
-0.145177
-0.148863
-0.153587
-0.152301
-0.153242
-0.160043
-0.155666
-0.150995
-0.148857
-0.152158
-0.166248
-0.193246
-0.203768
-0.206904
-0.202656
-0.198468
-0.180904
-0.187804
-0.204246
-0.179515
-0.15044
-0.152888
-0.0991389
-0.100627
-0.10415
-0.108039
-0.113602
-0.120682
-0.127634
-0.134233
-0.140628
-0.145652
-0.147981
-0.1453
-0.156972
-0.158756
-0.157741
-0.156077
-0.15641
-0.160944
-0.173226
-0.19309
-0.203887
-0.207749
-0.205301
-0.202117
-0.18734
-0.192938
-0.205848
-0.183364
-0.158945
-0.160231
-0.107001
-0.107635
-0.109161
-0.111724
-0.11565