/*--------------------------------*- C++ -*----------------------------------*\
| =========                 |                                                 |
| \\      /  F ield         | OpenFOAM: The Open Source CFD Toolbox           |
|  \\    /   O peration     | Version:  2.4.0                                 |
|   \\  /    A nd           | Web:      www.OpenFOAM.org                      |
|    \\/     M anipulation  |                                                 |
\*---------------------------------------------------------------------------*/
FoamFile
{
    version     2.0;
    format      ascii;
    class       surfaceScalarField;
    location    "0.096";
    object      phiAlpha;
}
// * * * * * * * * * * * * * * * * * * * * * * * * * * * * * * * * * * * * * //

dimensions      [0 3 -1 0 0 0 0];

internalField   nonuniform List<scalar> 
28560
(
-5.4282e-09
1.58908e-08
-1.04626e-08
9.62292e-09
-1.31677e-08
3.54479e-09
1.28436e-08
-1.5019e-08
2.17538e-09
9.64265e-09
-8.67305e-09
-9.696e-10
3.53803e-09
1.33641e-09
-4.87445e-09
-6.88871e-09
1.24983e-08
-5.60954e-09
-1.85431e-08
2.42419e-08
-5.69879e-09
-3.00233e-08
3.5348e-08
-5.32472e-09
-4.02539e-08
4.4059e-08
-3.80513e-09
-4.66217e-08
4.78796e-08
-1.25789e-09
-4.81406e-08
4.77639e-08
3.76686e-10
-4.69159e-08
4.58684e-08
1.04753e-09
-4.42995e-08
4.25151e-08
1.78436e-09
-3.99144e-08
3.67716e-08
3.14285e-09
-3.26569e-08
2.80567e-08
4.60016e-09
-2.27339e-08
1.74626e-08
5.27133e-09
-1.19232e-08
6.90862e-09
5.01457e-09
-2.05956e-09
-2.01275e-09
4.07231e-09
5.73557e-09
-8.67148e-09
2.9359e-09
1.11473e-08
-1.29435e-08
1.79622e-09
1.43046e-08
-1.51476e-08
8.42955e-10
1.56212e-08
-1.57339e-08
1.12714e-10
1.55532e-08
-1.51445e-08
-4.08655e-10
1.45078e-08
-1.37499e-08
-7.57833e-10
1.28228e-08
-1.18516e-08
-9.71169e-10
1.07578e-08
-9.67302e-09
-1.08473e-09
8.50185e-09
-7.37791e-09
-1.12394e-09
6.19638e-09
-5.08587e-09
-1.11051e-09
3.94065e-09
-2.88288e-09
-1.05777e-09
1.8077e-09
-8.2871e-10
-9.78985e-10
-2.84054e-08
4.16751e-08
-1.32697e-08
2.32926e-08
-3.21922e-08
-1.07803e-08
1.968e-08
3.51558e-08
-4.13083e-08
-7.10066e-09
1.32531e-08
3.37076e-08
-3.34345e-08
1.92468e-09
-2.19779e-09
2.57934e-08
-1.93449e-08
1.15087e-08
-1.79571e-08
1.00469e-08
-3.40697e-10
1.47377e-08
-2.44439e-08
-1.08445e-08
2.21967e-08
1.57282e-08
-2.70804e-08
-3.45757e-08
4.65978e-08
1.55323e-08
-2.75544e-08
-5.86855e-08
6.91723e-08
1.22413e-08
-2.27281e-08
-7.82544e-08
8.51207e-08
6.1059e-09
-1.29722e-08
-9.06676e-08
9.48537e-08
1.9463e-09
-6.13242e-09
-9.84981e-08
1.01568e-07
2.68369e-10
-3.33831e-09
-1.04166e-07
1.06278e-07
-1.44453e-09
-6.67982e-10
-1.07476e-07
1.07615e-07
-4.82302e-09
4.6847e-09
-1.06381e-07
1.03833e-07
-8.87824e-09
1.14266e-08
-9.9886e-08
9.51272e-08
-1.14813e-08
1.62401e-08
-8.92675e-08
8.31805e-08
-1.20715e-08
1.81584e-08
-7.64755e-08
7.00436e-08
-1.08957e-08
1.73277e-08
-6.33946e-08
5.7324e-08
-8.81338e-09
1.4884e-08
-5.1284e-08
4.59405e-08
-6.44409e-09
1.17876e-08
-4.07648e-08
3.6284e-08
-4.23625e-09
8.71699e-09
-3.20197e-08
2.83789e-08
-2.39581e-09
6.03659e-09
-2.49477e-08
2.20336e-08
-9.78017e-10
3.8921e-09
-1.92974e-08
1.69759e-08
3.52787e-11
2.28616e-09
-1.479e-08
1.29264e-08
7.21652e-10
1.142e-09
-1.11625e-08
9.64922e-09
1.15485e-09
3.58437e-10
-8.20325e-09
6.94784e-09
1.3944e-09
-1.38993e-10
-5.74389e-09
4.69338e-09
1.49213e-09
-4.41617e-10
-3.67242e-09
2.77149e-09
1.48311e-09
-5.82184e-10
-1.88476e-09
1.09416e-09
1.39935e-09
-6.08754e-10
-5.52132e-08
6.88554e-08
-1.36422e-08
2.53165e-08
-3.50736e-08
-2.92186e-08
3.89757e-08
3.8822e-08
-4.56336e-08
-1.98849e-08
2.66965e-08
3.82581e-08
-3.87537e-08
1.96195e-09
-1.46636e-09
3.13891e-08
-2.545e-08
2.4075e-08
-3.0014e-08
1.62427e-08
-6.56745e-09
3.41575e-08
-4.38328e-08
-4.87076e-09
1.6654e-08
3.8778e-08
-5.05613e-08
-2.96616e-08
4.24121e-08
4.01342e-08
-5.28847e-08
-5.53656e-08
6.67326e-08
3.38954e-08
-4.52624e-08
-7.67281e-08
8.44644e-08
2.05488e-08
-2.82851e-08
-9.09086e-08
9.59389e-08
1.10123e-08
-1.60426e-08
-1.00448e-07
1.04387e-07
7.08799e-09
-1.10269e-08
-1.07836e-07
1.1095e-07
3.52511e-09
-6.63971e-09
-1.1321e-07
1.14524e-07
-3.67222e-09
2.35822e-09
-1.14627e-07
1.13412e-07
-1.29686e-08
1.41838e-08
-1.10969e-07
1.0771e-07
-1.99029e-08
2.31621e-08
-1.03454e-07
9.88751e-08
-2.3192e-08
2.77707e-08
-9.36992e-08
8.86206e-08
-2.28767e-08
2.79553e-08
-8.32378e-08
7.81877e-08
-2.03521e-08
2.54022e-08
-7.30056e-08
6.82525e-08
-1.68578e-08
2.16109e-08
-6.34518e-08
5.90912e-08
-1.32602e-08
1.76207e-08
-5.47107e-08
5.07409e-08
-1.00425e-08
1.40123e-08
-4.67504e-08
4.31221e-08
-7.41795e-09
1.10462e-08
-3.94574e-08
3.61101e-08
-5.40807e-09
8.75533e-09
-3.2707e-08
2.95785e-08
-3.94147e-09
7.07003e-09
-2.63848e-08
2.34398e-08
-2.89375e-09
5.83877e-09
-2.04292e-08
1.76559e-08
-2.16385e-09
4.93708e-09
-1.48289e-08
1.22336e-08
-1.65712e-09
4.25247e-09
-9.60214e-09
7.20068e-09
-1.32304e-09
3.7245e-09
-4.77923e-09
2.58583e-09
-1.11456e-09
3.30795e-09
-8.25507e-08
9.62853e-08
-1.37346e-08
2.56547e-08
-3.54916e-08
-4.8799e-08
5.8636e-08
3.94328e-08
-4.63659e-08
-3.35838e-08
4.0517e-08
3.89421e-08
-3.96157e-08
8.51869e-10
-1.78335e-10
3.23318e-08
-2.64809e-08
3.58836e-08
-4.17345e-08
1.73192e-08
-7.66384e-09
5.34907e-08
-6.31461e-08
-3.79539e-09
1.56357e-08
6.23779e-08
-7.42183e-08
-2.87389e-08
4.16408e-08
6.57199e-08
-7.86218e-08
-5.47874e-08
6.63431e-08
5.67254e-08
-6.82812e-08
-7.64217e-08
8.41692e-08
3.6038e-08
-4.37855e-08
-9.05555e-08
9.55437e-08
2.10682e-08
-2.60565e-08
-1.00031e-07
1.04079e-07
1.50287e-08
-1.90758e-08
-1.07539e-07
1.10953e-07
9.89903e-09
-1.33128e-08
-1.13378e-07
1.14948e-07
-9.14158e-10
-6.56002e-10
-1.15219e-07
1.14035e-07
-1.53547e-08
1.65386e-08
-1.11595e-07
1.08291e-07
-2.6392e-08
2.9696e-08
-1.03942e-07
9.92675e-08
-3.23186e-08
3.69927e-08
-9.40096e-08
8.88772e-08
-3.29682e-08
3.81007e-08
-8.34601e-08
7.83987e-08
-3.03634e-08
3.54249e-08
-7.32233e-08
6.84903e-08
-2.62687e-08
3.10017e-08
-6.37196e-08
5.93933e-08
-2.18978e-08
2.62241e-08
-5.50514e-08
5.11177e-08
-1.79222e-08
2.18559e-08
-4.71627e-08
4.35652e-08
-1.46449e-08
1.82423e-08
-3.99284e-08
3.66027e-08
-1.21058e-08
1.54314e-08
-3.32167e-08
3.00979e-08
-1.02345e-08
1.33533e-08
-2.69066e-08
2.39543e-08
-8.85168e-09
1.1804e-08
-2.09245e-08
1.81201e-08
-7.80841e-09
1.06128e-08
-1.52489e-08
1.26012e-08
-6.96717e-09
9.61486e-09
-9.9056e-09
7.43657e-09
-6.25606e-09
8.72509e-09
-4.93993e-09
2.67432e-09
-5.63003e-09
7.89564e-09
-1.1006e-07
1.23878e-07
-1.38179e-08
2.58485e-08
-3.56663e-08
-6.84665e-08
7.82844e-08
3.97489e-08
-4.67644e-08
-4.74897e-08
5.45052e-08
3.91834e-08
-3.99291e-08
-5.33494e-10
1.27921e-09
3.26769e-08
-2.68175e-08
4.7586e-08
-5.34453e-08
1.76653e-08
-8.00765e-09
7.28021e-08
-8.24598e-08
-3.4612e-09
1.53399e-08
8.60796e-08
-9.79583e-08
-2.85067e-08
4.15582e-08
9.15954e-08
-1.04647e-07
-5.49151e-08
6.67006e-08
7.9943e-08
-9.17286e-08
-7.68666e-08
8.45983e-08
5.15252e-08
-5.92569e-08
-9.0862e-08
9.574e-08
3.09939e-08
-3.58719e-08
-1.0014e-07
1.04291e-07
2.31714e-08
-2.73228e-08
-1.07688e-07
1.11513e-07
1.69139e-08
-2.07385e-08
-1.14123e-07
1.1605e-07
2.3858e-09
-4.31332e-09
-1.16542e-07
1.15354e-07
-1.7728e-08
1.89156e-08
-1.12858e-07
1.09407e-07
-3.30772e-08
3.65276e-08
-1.04792e-07
9.98126e-08
-4.18201e-08
4.67991e-08
-9.42214e-08
8.8771e-08
-4.33942e-08
4.88445e-08
-8.30244e-08
7.76619e-08
-4.06389e-08
4.60014e-08
-7.21826e-08
6.71775e-08
-3.58718e-08
4.08769e-08
-6.21407e-08
5.7582e-08
-3.06636e-08
3.52223e-08
-5.30192e-08
4.89024e-08
-2.58735e-08
2.99903e-08
-4.47868e-08
4.10713e-08
-2.18878e-08
2.56032e-08
-3.73508e-08
3.39879e-08
-1.87625e-08
2.21253e-08
-3.06097e-08
2.75445e-08
-1.64331e-08
1.94983e-08
-2.44576e-08
2.16473e-08
-1.46761e-08
1.74863e-08
-1.88076e-08
1.6217e-08
-1.33055e-08
1.58962e-08
-1.35982e-08
1.12094e-08
-1.21326e-08
1.45214e-08
-8.79918e-09
6.60618e-09
-1.10594e-08
1.32524e-08
-4.3994e-09
2.40282e-09
-1.00317e-08
1.20282e-08
-1.37743e-07
1.5166e-07
-1.39173e-08
2.60711e-08
-3.58496e-08
-8.80845e-08
9.7863e-08
4.01046e-08
-4.72184e-08
-6.15675e-08
6.86813e-08
3.94223e-08
-4.02407e-08
-2.05977e-09
2.87821e-09
3.3024e-08
-2.71434e-08
5.93148e-08
-6.51955e-08
1.8002e-08
-8.34633e-09
9.21173e-08
-1.01773e-07
-3.13967e-09
1.50474e-08
1.09848e-07
-1.21756e-07
-2.82675e-08
4.15021e-08
1.17786e-07
-1.31021e-07
-5.51302e-08
6.72188e-08
1.03655e-07
-1.15744e-07
-7.75012e-08
8.52086e-08
6.69777e-08
-7.46851e-08
-9.13051e-08
9.60279e-08
4.06786e-08
-4.54014e-08
-1.00309e-07
1.0459e-07
3.15366e-08
-3.58174e-08
-1.07862e-07
1.12246e-07
2.48238e-08
-2.92083e-08
-1.1508e-07
1.17529e-07
6.47893e-09
-8.92799e-09
-1.1836e-07
1.17173e-07
-2.01001e-08
2.12873e-08
-1.14648e-07
1.11069e-07
-4.00423e-08
4.36211e-08
-1.06166e-07
1.0086e-07
-5.19343e-08
5.72403e-08
-9.49309e-08
8.91767e-08
-5.44456e-08
6.01998e-08
-8.31304e-08
7.75071e-08
-5.14983e-08
5.71216e-08
-7.1781e-08
6.65653e-08
-4.59956e-08
5.12113e-08
-6.13279e-08
5.65964e-08
-3.98794e-08
4.46109e-08
-5.1868e-08
4.76077e-08
-3.41912e-08
3.84515e-08
-4.33567e-08
3.953e-08
-2.93835e-08
3.32102e-08
-3.57136e-08
3.22847e-08
-2.55256e-08
2.89545e-08
-2.88674e-08
2.57975e-08
-2.25642e-08
2.56341e-08
-2.2742e-08
1.99979e-08
-2.02563e-08
2.30004e-08
-1.72647e-08
1.48069e-08
-1.84087e-08
2.08666e-08
-1.23563e-08
1.01487e-08
-1.68038e-08
1.90115e-08
-7.94578e-09
5.96055e-09
-1.53262e-08
1.73115e-08
-3.97783e-09
2.19284e-09
-1.39062e-08
1.56912e-08
-1.65634e-07
1.79671e-07
-1.40365e-08
2.63454e-08
-3.60721e-08
-1.07618e-07
1.17344e-07
4.05438e-08
-4.77781e-08
-7.58528e-08
8.30871e-08
3.97149e-08
-4.06192e-08
-3.73795e-09
4.64231e-09
3.34479e-08
-2.75408e-08
7.10891e-08
-7.69962e-08
1.8414e-08
-8.76262e-09
1.11427e-07
-1.21078e-07
-2.72688e-09
1.46763e-08
1.33686e-07
-1.45635e-07
-2.79649e-08
4.14212e-08
1.4436e-07
-1.57817e-07
-5.53965e-08
6.78766e-08
1.28017e-07
-1.40497e-07
-7.83103e-08
8.59805e-08
8.23763e-08
-9.00465e-08
-9.18538e-08
9.63667e-08
5.00266e-08
-5.45396e-08
-1.00504e-07
1.04932e-07
4.01706e-08
-4.45982e-08
-1.08013e-07
1.13112e-07
3.39313e-08
-3.90295e-08
-1.16222e-07
1.19376e-07
1.17073e-08
-1.48612e-08
-1.2069e-07
1.19462e-07
-2.24869e-08
2.37157e-08
-1.16932e-07
1.13221e-07
-4.72657e-08
5.09766e-08
-1.07952e-07
1.02236e-07
-6.27382e-08
6.84539e-08
-9.59092e-08
8.98156e-08
-6.61175e-08
7.22111e-08
-8.34496e-08
7.75629e-08
-6.28737e-08
6.87604e-08
-7.16071e-08
6.62161e-08
-5.65157e-08
6.19068e-08
-6.08344e-08
5.59971e-08
-4.94004e-08
5.42376e-08
-5.11838e-08
4.68616e-08
-4.27503e-08
4.70726e-08
-4.25604e-08
3.86979e-08
-3.70633e-08
4.09258e-08
-3.48547e-08
3.14104e-08
-3.23983e-08
3.58426e-08
-2.79885e-08
2.49267e-08
-2.87038e-08
3.17656e-08
-2.1894e-08
1.91862e-08
-2.57257e-08
2.84334e-08
-1.65075e-08
1.4117e-08
-2.32858e-08
2.56762e-08
-1.17517e-08
9.63499e-09
-2.11603e-08
2.3277e-08
-7.53538e-09
5.65329e-09
-1.92322e-08
2.11142e-08
-3.78146e-09
2.10068e-09
-1.74188e-08
1.90996e-08
-1.93776e-07
2.07955e-07
-1.41786e-08
2.6669e-08
-3.63276e-08
-1.27039e-07
1.36697e-07
4.10648e-08
-4.84399e-08
-9.03886e-08
9.77637e-08
4.00592e-08
-4.10625e-08
-5.59446e-09
6.59783e-09
3.39504e-08
-2.80111e-08
8.29182e-08
-8.88574e-08
1.89055e-08
-9.26112e-09
1.30726e-07
-1.4037e-07
-2.23996e-09
1.42291e-08
1.57604e-07
-1.69593e-07
-2.75834e-08
4.12966e-08
1.71396e-07
-1.85109e-07
-5.57019e-08
6.86743e-08
1.53209e-07
-1.66181e-07
-7.9299e-08
8.69109e-08
9.76902e-08
-1.05302e-07
-9.24885e-08
9.6721e-08
5.89212e-08
-6.31538e-08
-1.00703e-07
1.05267e-07
4.90975e-08
-5.36619e-08
-1.08099e-07
1.14044e-07
4.45362e-08
-5.04811e-08
-1.17552e-07
1.21595e-07
1.84355e-08
-2.24782e-08
-1.23598e-07
1.22222e-07
-2.5e-08
2.63761e-08
-1.19734e-07
1.15894e-07
-5.47534e-08
5.85929e-08
-1.10143e-07
1.039e-07
-7.44157e-08
8.06587e-08
-9.70949e-08
9.06064e-08
-7.84943e-08
8.49828e-08
-8.38701e-08
7.76842e-08
-7.47908e-08
8.09767e-08
-7.14767e-08
6.59045e-08
-6.73861e-08
7.29582e-08
-6.03879e-08
5.54675e-08
-5.91173e-08
6.40377e-08
-5.06035e-08
4.62603e-08
-5.14075e-08
5.57508e-08
-4.19573e-08
3.81075e-08
-4.4786e-08
4.86358e-08
-3.42885e-08
3.08722e-08
-3.92757e-08
4.2692e-08
-2.74848e-08
2.44608e-08
-3.48126e-08
3.78366e-08
-2.14689e-08
1.87992e-08
-3.11205e-08
3.37902e-08
-1.6162e-08
1.38138e-08
-2.80462e-08
3.03943e-08
-1.14977e-08
9.43354e-09
-2.53705e-08
2.74347e-08
-7.391e-09
5.55853e-09
-2.29698e-08
2.48023e-08
-3.73128e-09
2.08662e-09
-2.07503e-08
2.23949e-08
-2.22211e-07
2.36553e-07
-1.43419e-08
2.70428e-08
-3.66136e-08
-1.46315e-07
1.55886e-07
4.16691e-08
-4.92048e-08
-1.05217e-07
1.12752e-07
4.04577e-08
-4.15707e-08
-7.65496e-09
8.76802e-09
3.45334e-08
-2.8554e-08
9.48158e-08
-1.00795e-07
1.94778e-08
-9.84245e-09
1.50011e-07
-1.59646e-07
-1.66106e-09
1.36924e-08
1.81595e-07
-1.93626e-07
-2.71154e-08
4.11148e-08
1.98964e-07
-2.12963e-07
-5.60458e-08
6.96298e-08
1.79443e-07
-1.93027e-07
-8.04936e-08
8.80162e-08
1.12874e-07
-1.20396e-07
-9.32023e-08
9.70694e-08
6.72159e-08
-7.1083e-08
-1.00904e-07
1.05555e-07
5.82789e-08
-6.29299e-08
-1.08089e-07
1.14969e-07
5.68866e-08
-6.37673e-08
-1.19099e-07
1.24219e-07
2.70365e-08
-3.21568e-08
-1.27199e-07
1.25463e-07
-2.78972e-08
2.96334e-08
-1.2313e-07
1.19181e-07
-6.24899e-08
6.64389e-08
-1.12772e-07
1.05843e-07
-8.72221e-08
9.41509e-08
-9.84661e-08
9.15228e-08
-9.16913e-08
9.86346e-08
-8.43582e-08
7.78251e-08
-8.73295e-08
9.38625e-08
-7.13283e-08
6.55548e-08
-7.86285e-08
8.44021e-08
-5.98968e-08
5.48975e-08
-6.89975e-08
7.39968e-08
-4.99965e-08
4.56486e-08
-6.00983e-08
6.44462e-08
-4.13636e-08
3.7547e-08
-5.24716e-08
5.62881e-08
-3.37749e-08
3.04114e-08
-4.60829e-08
4.94463e-08
-2.70796e-08
2.41055e-08
-4.08381e-08
4.38123e-08
-2.11701e-08
1.85572e-08
-3.64346e-08
3.90475e-08
-1.59731e-08
1.3664e-08
-3.27202e-08
3.50294e-08
-1.13763e-08
9.32793e-09
-2.94855e-08
3.15339e-08
-7.29655e-09
5.47991e-09
-2.66216e-08
2.84383e-08
-3.68047e-09
2.07073e-09
-2.40279e-08
2.56377e-08
-2.50985e-07
2.65513e-07
-1.45274e-08
2.7473e-08
-3.69334e-08
-1.65405e-07
1.74865e-07
4.23667e-08
-5.00828e-08
-1.20376e-07
1.28093e-07
4.09193e-08
-4.215e-08
-9.93914e-09
1.11698e-08
3.52046e-08
-2.91739e-08
1.06799e-07
-1.1283e-07
2.01349e-08
-1.05087e-08
1.69277e-07
-1.78904e-07
-9.93507e-10
1.3079e-08
2.05685e-07
-2.1777e-07
-2.65396e-08
4.08689e-08
2.27124e-07
-2.41453e-07
-5.64355e-08
7.07778e-08
2.06971e-07
-2.21313e-07
-8.19422e-08
8.93355e-08
1.2786e-07
-1.35254e-07
-9.401e-08
9.74019e-08
7.47276e-08
-7.81195e-08
-1.01127e-07
1.05767e-07
6.75906e-08
-7.22307e-08
-1.07954e-07
1.15797e-07
7.11305e-08
-7.89734e-08
-1.20921e-07
1.27301e-07
3.78857e-08
-4.4266e-08
-1.31638e-07
1.29235e-07
-3.16655e-08
3.40678e-08
-1.2726e-07
1.2322e-07
-7.0435e-08
7.44755e-08
-1.15889e-07
1.08064e-07
-1.01499e-07
1.09323e-07
-1.00015e-07
9.2556e-08
-1.05829e-07
1.13288e-07
-8.49012e-08
7.79629e-08
-1.0059e-07
1.07528e-07
-7.11267e-08
6.51286e-08
-9.02886e-08
9.62867e-08
-5.9318e-08
5.42418e-08
-7.90333e-08
8.41095e-08
-4.93122e-08
4.49717e-08
-6.87934e-08
7.31339e-08
-4.07242e-08
3.69495e-08
-6.00817e-08
6.38564e-08
-3.32273e-08
2.99246e-08
-5.27874e-08
5.60901e-08
-2.66655e-08
2.37559e-08
-4.67508e-08
4.96604e-08
-2.08751e-08
1.83056e-08
-4.1649e-08
4.42185e-08
-1.57683e-08
1.35049e-08
-3.73244e-08
3.95878e-08
-1.12635e-08
9.25904e-09
-3.35566e-08
3.5561e-08
-7.27181e-09
5.48674e-09
-3.02369e-08
3.20219e-08
-3.70481e-09
2.09983e-09
-2.72363e-08
2.88413e-08
-2.80143e-07
2.94882e-07
-1.47387e-08
2.79551e-08
-3.72759e-08
-1.84259e-07
1.9358e-07
4.31527e-08
-5.10653e-08
-1.35904e-07
1.43817e-07
4.14415e-08
-4.27929e-08
-1.24608e-08
1.38122e-08
3.59598e-08
-2.98648e-08
1.1889e-07
-1.24985e-07
2.08739e-08
-1.12578e-08
1.88524e-07
-1.9814e-07
-2.58035e-10
1.23724e-08
2.29877e-07
-2.41991e-07
-2.58448e-08
4.05287e-08
2.55953e-07
-2.70637e-07
-5.68592e-08
7.21332e-08
2.36097e-07
-2.51371e-07
-8.3675e-08
9.08836e-08
1.42562e-07
-1.49771e-07
-9.48847e-08
9.76743e-08
8.12264e-08
-8.4016e-08
-1.0136e-07
1.05849e-07
7.68142e-08
-8.13027e-08
-1.0759e-07
1.1635e-07
8.72847e-08
-9.60454e-08
-1.23067e-07
1.30827e-07
5.13301e-08
-5.90904e-08
-1.36938e-07
1.33659e-07
-3.69003e-08
4.01791e-08
-1.32288e-07
1.28129e-07
-7.85663e-08
8.27245e-08
-1.19494e-07
1.10502e-07
-1.17693e-07
1.26684e-07
-1.0168e-07
9.36608e-08
-1.2102e-07
1.29039e-07
-8.54558e-08
7.80431e-08
-1.14692e-07
1.22105e-07
-7.08016e-08
6.45445e-08
-1.02421e-07
1.08678e-07
-5.85939e-08
5.34447e-08
-8.92109e-08
9.436e-08
-4.84838e-08
4.41796e-08
-7.74766e-08
8.17808e-08
-3.99998e-08
3.62978e-08
-6.76002e-08
7.13022e-08
-3.26464e-08
2.93922e-08
-5.93583e-08
6.26124e-08
-2.61827e-08
2.33342e-08
-5.25507e-08
5.53993e-08
-2.05264e-08
1.80191e-08
-4.67431e-08
4.92504e-08
-1.55317e-08
1.33077e-08
-4.1817e-08
4.4041e-08
-1.11076e-08
9.14135e-09
-3.75427e-08
3.95089e-08
-7.19095e-09
5.43898e-09
-3.37935e-08
3.55454e-08
-3.68921e-09
2.10972e-09
-3.04482e-08
3.20277e-08
-3.09734e-07
3.24709e-07
-1.49746e-08
2.84908e-08
-3.76371e-08
-2.02818e-07
2.11965e-07
4.40316e-08
-5.21514e-08
-1.51832e-07
1.59952e-07
4.20279e-08
-4.34975e-08
-1.52236e-08
1.66932e-08
3.68003e-08
-3.06258e-08
1.31118e-07
-1.37293e-07
2.16948e-08
-1.209e-08
2.07751e-07
-2.17356e-07
5.58702e-10
1.15733e-08
2.54109e-07
-2.66241e-07
-2.50139e-08
4.00659e-08
2.85506e-07
-3.00558e-07
-5.73254e-08
7.37295e-08
2.67184e-07
-2.83588e-07
-8.57478e-08
9.26991e-08
1.56861e-07
-1.63813e-07
-9.5808e-08
9.78633e-08
8.64547e-08
-8.85099e-08
-1.01619e-07
1.0578e-07
8.56531e-08
-8.9814e-08
-1.06885e-07
1.16392e-07
1.0522e-07
-1.14728e-07
-1.25726e-07
1.34849e-07
6.75391e-08
-7.66624e-08
-1.42979e-07
1.39076e-07
-4.38554e-08
4.77593e-08
-1.38492e-07
1.34047e-07
-8.69898e-08
9.14346e-08
-1.23576e-07
1.13068e-07
-1.36387e-07
1.46895e-07
-1.03396e-07
9.48176e-08
-1.37334e-07
1.45912e-07
-8.59972e-08
7.80158e-08
-1.29794e-07
1.37775e-07
-7.02822e-08
6.37195e-08
-1.15079e-07
1.21642e-07
-5.7637e-08
5.24697e-08
-9.95151e-08
1.04682e-07
-4.75105e-08
4.32015e-08
-8.60778e-08
9.03868e-08
-3.90914e-08
3.55291e-08
-7.50331e-08
7.85954e-08
-3.20286e-08
2.8882e-08
-6.58058e-08
6.89525e-08
-2.57266e-08
2.28914e-08
-5.81743e-08
6.10094e-08
-2.00982e-08
1.76277e-08
-5.17372e-08
5.42076e-08
-1.52017e-08
1.30387e-08
-4.62546e-08
4.84177e-08
-1.08872e-08
8.94856e-09
-4.14641e-08
4.34027e-08
-7.01613e-09
5.28665e-09
-3.72823e-08
3.90118e-08
-3.58034e-09
2.06471e-09
-3.35662e-08
3.50818e-08
-3.39811e-07
3.55048e-07
-1.52366e-08
2.90864e-08
-3.80177e-08
-2.2101e-07
2.29941e-07
4.50175e-08
-5.33485e-08
-1.68178e-07
1.76509e-07
4.26947e-08
-4.42717e-08
-1.82187e-08
1.97956e-08
3.77348e-08
-3.14615e-08
1.43514e-07
-1.49787e-07
2.2602e-08
-1.30087e-08
2.26955e-07
-2.36549e-07
1.49249e-09
1.06748e-08
2.78392e-07
-2.9056e-07
-2.40052e-08
3.94516e-08
3.15808e-07
-3.31254e-07
-5.78486e-08
7.56208e-08
3.00644e-07
-3.18416e-07
-8.82486e-08
9.48477e-08
1.70602e-07
-1.77201e-07
-9.6766e-08
9.79714e-08
9.01531e-08
-9.13584e-08
-1.02e-07
1.05502e-07
9.371e-08
-9.72114e-08
-1.06035e-07
1.15274e-07
1.24357e-07
-1.33596e-07
-1.29388e-07
1.39948e-07
8.64682e-08
-9.70286e-08
-1.49234e-07
1.46352e-07
-5.15149e-08
5.43971e-08
-1.46306e-07
1.40952e-07
-9.62065e-08
1.0156e-07
-1.27961e-07
1.15587e-07
-1.58301e-07
1.70675e-07
-1.051e-07
9.60619e-08
-1.54736e-07
1.63774e-07
-8.65531e-08
7.78268e-08
-1.46117e-07
1.54844e-07
-6.94762e-08
6.25925e-08
-1.28343e-07
1.35226e-07
-5.63648e-08
5.11913e-08
-1.09879e-07
1.15053e-07
-4.63525e-08
4.21676e-08
-9.45702e-08
9.87552e-08
-3.80241e-08
3.43136e-08
-8.22033e-08
8.59138e-08
-3.0752e-08
2.77265e-08
-7.21527e-08
7.51782e-08
-2.482e-08
2.22321e-08
-6.37457e-08
6.63337e-08
-1.96441e-08
1.73064e-08
-5.65916e-08
5.89292e-08
-1.49676e-08
1.28599e-08
-5.05242e-08
5.2632e-08
-1.07629e-08
8.88795e-09
-4.52996e-08
4.71745e-08
-7.0291e-09
5.35217e-09
-4.07277e-08
4.24046e-08
-3.66549e-09
2.13547e-09
-3.66092e-08
3.81392e-08
-3.70427e-07
3.85957e-07
-1.55291e-08
2.97383e-08
-3.84039e-08
-2.38746e-07
2.47411e-07
4.61125e-08
-5.46399e-08
-1.84941e-07
1.93469e-07
4.34441e-08
-4.51056e-08
-2.14184e-08
2.30799e-08
3.87575e-08
-3.23654e-08
1.56117e-07
-1.62509e-07
2.35915e-08
-1.40111e-08
2.46135e-07
-2.55716e-07
2.53148e-09
9.66247e-09
3.0274e-07
-3.14934e-07
-2.28109e-08
3.86428e-08
3.46888e-07
-3.6272e-07
-5.84181e-08
7.78429e-08
3.36974e-07
-3.56399e-07
-9.1257e-08
9.73774e-08
1.83579e-07
-1.89699e-07
-9.76974e-08
9.79764e-08
9.21058e-08
-9.23849e-08
-1.02464e-07
1.04771e-07
1.00174e-07
-1.02481e-07
-1.05623e-07
1.10934e-07
1.41484e-07
-1.46795e-07
-1.34139e-07
1.46661e-07
1.08505e-07
-1.21027e-07
-1.53919e-07
1.56945e-07
-5.5177e-08
5.21505e-08
-1.5576e-07
1.47711e-07
-1.07934e-07
1.15983e-07
-1.31741e-07
1.17683e-07
-1.83987e-07
1.98045e-07
-1.06838e-07
9.75251e-08
-1.7297e-07
1.82283e-07
-8.71826e-08
7.73883e-08
-1.64044e-07
1.73839e-07
-6.82034e-08
6.09688e-08
-1.42299e-07
1.49534e-07
-5.46982e-08
4.96971e-08
-1.20182e-07
1.25183e-07
-4.50813e-08
4.0947e-08
-1.02845e-07
1.06979e-07
-3.67494e-08
3.30794e-08
-8.91276e-08
9.27975e-08
-2.9639e-08
2.66928e-08
-7.81893e-08
8.11355e-08
-2.38248e-08
2.12795e-08
-6.91811e-08
7.17264e-08
-1.87756e-08
1.65262e-08
-6.13765e-08
6.36259e-08
-1.42752e-08
1.22581e-08
-5.47411e-08
5.67582e-08
-1.02683e-08
8.49901e-09
-4.90075e-08
5.07767e-08
-6.75154e-09
5.17645e-09
-4.4023e-08
4.55981e-08
-3.58269e-09
2.1207e-09
-3.96453e-08
4.11073e-08
-4.01642e-07
4.17494e-07
-1.58518e-08
3.0448e-08
-3.87872e-08
-2.55922e-07
2.64262e-07
4.73363e-08
-5.60102e-08
-2.02079e-07
2.10753e-07
4.42907e-08
-4.59985e-08
-2.47707e-08
2.64785e-08
3.98702e-08
-3.33363e-08
1.68969e-07
-1.75503e-07
2.46631e-08
-1.5096e-08
2.65289e-07
-2.74857e-07
3.68195e-09
8.52671e-09
3.27138e-07
-3.39346e-07
-2.13944e-08
3.75885e-08
3.78738e-07
-3.94932e-07
-5.90296e-08
8.04563e-08
3.76778e-07
-3.98205e-07
-9.49022e-08
1.00367e-07
1.95518e-07
-2.00982e-07
-9.85374e-08
9.79135e-08
9.21999e-08
-9.15759e-08
-1.02772e-07
1.03827e-07
1.04101e-07
-1.05156e-07
-1.04281e-07
1.0453e-07
1.48949e-07
-1.49199e-07
-1.3844e-07
1.5247e-07
1.34429e-07
-1.48459e-07
-1.57322e-07
1.71232e-07
-4.37218e-08
2.98116e-08
-1.65849e-07
1.52001e-07
-1.2656e-07
1.40408e-07
-1.33831e-07
1.19741e-07
-2.1242e-07
2.26511e-07
-1.09488e-07
9.98867e-08
-1.91699e-07
2.013e-07
-8.81073e-08
7.66494e-08
-1.84342e-07
1.958e-07
-6.63092e-08
5.85847e-08
-1.56918e-07
1.64642e-07
-5.22692e-08
4.75491e-08
-1.30319e-07
1.35039e-07
-4.33688e-08
3.96862e-08
-1.10807e-07
1.1449e-07
-3.60331e-08
3.27393e-08
-9.59769e-08
9.92708e-08
-2.9474e-08
2.65887e-08
-8.43255e-08
8.72108e-08
-2.3792e-08
2.12898e-08
-7.43002e-08
7.68025e-08
-1.87469e-08
1.6444e-08
-6.58494e-08
6.81523e-08
-1.41686e-08
1.21471e-08
-5.8746e-08
6.07675e-08
-1.01509e-08
8.35011e-09
-5.25484e-08
5.43491e-08
-6.54624e-09
4.93588e-09
-4.71933e-08
4.88037e-08
-3.37074e-09
2.0091e-09
-4.25179e-08
4.38795e-08
-4.33519e-07
4.49727e-07
-1.62071e-08
3.12239e-08
-3.91652e-08
-2.72412e-07
2.80354e-07
4.87377e-08
-5.74323e-08
-2.19462e-07
2.28156e-07
4.52633e-08
-4.69559e-08
-2.81883e-08
2.98809e-08
4.108e-08
-3.43788e-08
1.82118e-07
-1.88819e-07
2.58207e-08
-1.6264e-08
2.84418e-07
-2.93975e-07
4.94761e-09
7.25868e-09
3.51557e-07
-3.63763e-07
-1.97211e-08
3.62421e-08
4.11298e-07
-4.27819e-07
-5.96913e-08
8.35477e-08
4.20788e-07
-4.44645e-07
-9.93835e-08
1.03931e-07
2.06029e-07
-2.10576e-07
-9.92235e-08
9.78616e-08
9.05568e-08
-8.9195e-08
-1.02859e-07
1.03241e-07
1.0585e-07
-1.06232e-07
-1.0077e-07
1.0416e-07
1.50246e-07
-1.53636e-07
-1.36084e-07
1.57484e-07
1.64308e-07
-1.85708e-07
-1.69197e-07
1.83525e-07
-1.32688e-08
-1.05899e-09
-1.75575e-07
1.56349e-07
-1.5759e-07
1.76816e-07
-1.3808e-07
1.25762e-07
-2.39713e-07
2.52031e-07
-1.1587e-07
1.04557e-07
-2.11397e-07
2.2271e-07
-8.9605e-08
7.54039e-08
-2.08588e-07
2.22789e-07
-6.33109e-08
5.53148e-08
-1.72395e-07
1.80391e-07
-4.95424e-08
4.52619e-08
-1.39571e-07
1.43852e-07
-4.12317e-08
3.76251e-08
-1.18152e-07
1.21759e-07
-3.39201e-08
3.06648e-08
-1.02625e-07
1.0588e-07
-2.7615e-08
2.50148e-08
-8.98124e-08
9.24125e-08
-2.23483e-08
1.98693e-08
-7.92891e-08
8.1768e-08
-1.7425e-08
1.53259e-08
-7.04228e-08
7.25219e-08
-1.32894e-08
1.14641e-08
-6.27438e-08
6.45691e-08
-9.62039e-09
7.94058e-09
-5.6137e-08
5.78168e-08
-6.25943e-09
4.75889e-09
-5.03806e-08
5.18812e-08
-3.28877e-09
1.99311e-09
-4.5194e-08
4.64896e-08
-4.66126e-07
4.82727e-07
-1.66011e-08
3.2062e-08
-3.95166e-08
-2.88063e-07
2.95518e-07
5.03697e-08
-5.88629e-08
-2.36772e-07
2.45265e-07
4.6385e-08
-4.79681e-08
-3.1533e-08
3.31162e-08
4.23804e-08
-3.5486e-08
1.95613e-07
-2.02507e-07
2.70594e-08
-1.7509e-08
3.03527e-07
-3.13078e-07
6.32355e-09
5.85447e-09
3.75958e-07
-3.88136e-07
-1.77586e-08
3.45425e-08
4.44482e-07
-4.61266e-07
-6.03831e-08
8.71872e-08
4.69902e-07
-4.96706e-07
-1.04931e-07
1.08146e-07
2.14522e-07
-2.17736e-07
-9.96277e-08
9.77267e-08
8.75409e-08
-8.564e-08
-1.02934e-07
1.0195e-07
1.06077e-07
-1.05093e-07
-9.87493e-08
1.02359e-07
1.58177e-07
-1.61787e-07
-1.19636e-07
1.57797e-07
2.15867e-07
-2.54029e-07
-1.83931e-07
1.91903e-07
1.06437e-08
-1.86159e-08
-1.93264e-07
1.75302e-07
-1.95972e-07
2.13935e-07
-1.55531e-07
1.41556e-07
-2.64374e-07
2.78349e-07
-1.27271e-07
1.10852e-07
-2.3578e-07
2.52198e-07
-9.05086e-08
7.19842e-08
-2.39182e-07
2.57706e-07
-5.77321e-08
4.98911e-08
-1.88467e-07
1.96308e-07
-4.53108e-08
4.21774e-08
-1.47631e-07
1.50764e-07
-3.90077e-08
3.60117e-08
-1.24761e-07
1.27757e-07
-3.30475e-08
3.03291e-08
-1.08683e-07
1.11401e-07
-2.7302e-08
2.43575e-08
-9.55046e-08
9.84491e-08
-2.14582e-08
1.9039e-08
-8.44685e-08
8.68876e-08
-1.67618e-08
1.47726e-08
-7.45982e-08
7.65875e-08
-1.27612e-08
1.09787e-08
-6.6343e-08
6.81255e-08
-9.24313e-09
7.7387e-09
-5.94064e-08
6.09108e-08
-6.25975e-09
4.89781e-09
-5.32971e-08
5.46591e-08
-3.47118e-09
2.12996e-09
-4.77902e-08
4.91315e-08
-4.99539e-07
5.16574e-07
-1.70346e-08
3.29658e-08
-3.98243e-08
-3.0269e-07
3.09548e-07
5.21215e-08
-6.03912e-08
-2.53629e-07
2.61899e-07
4.77001e-08
-4.90308e-08
-3.45949e-08
3.59257e-08
4.377e-08
-3.66561e-08
2.09508e-07
-2.16622e-07
2.83779e-08
-1.88261e-08
3.22628e-07
-3.32179e-07
7.79807e-09
4.31244e-09
4.00287e-07
-4.12397e-07
-1.54706e-08
3.24096e-08
4.78144e-07
-4.95083e-07
-6.10452e-08
9.13903e-08
5.25209e-07
-5.55554e-07
-1.11681e-07
1.12898e-07
2.20053e-07
-2.2127e-07
-9.94956e-08
9.72746e-08
8.35426e-08
-8.13216e-08
-1.02688e-07
1.00393e-07
1.03296e-07
-1.01001e-07
-9.65651e-08
9.853e-08
1.63919e-07
-1.65884e-07
-1.15379e-07
1.56116e-07
2.95853e-07
-3.3659e-07
-2.03902e-07
2.22989e-07
3.09784e-08
-5.00654e-08
-2.25598e-07
2.07555e-07
-2.31122e-07
2.49165e-07
-1.82173e-07
1.61554e-07
-2.95841e-07
3.16461e-07
-1.37088e-07
1.11504e-07
-2.72407e-07
2.9799e-07
-8.56202e-08
6.58371e-08
-2.78489e-07
2.98272e-07
-5.22885e-08
4.56964e-08
-2.03579e-07
2.10171e-07
-4.22825e-08
3.96967e-08
-1.52729e-07
1.55314e-07
-3.68156e-08
3.39036e-08
-1.30056e-07
1.32968e-07
-3.06318e-08
2.76691e-08
-1.14615e-07
1.17578e-07
-2.50117e-08
2.29573e-08
-1.01516e-07
1.0357e-07
-2.09434e-08
1.89653e-08
-8.91041e-08
9.10822e-08
-1.67739e-08
1.46412e-08
-7.86656e-08
8.07983e-08
-1.2468e-08
1.06034e-08
-6.99967e-08
7.18613e-08
-8.85046e-09
7.36254e-09
-6.23962e-08
6.38841e-08
-5.92863e-09
4.63879e-09
-5.59552e-08
5.7245e-08
-3.30856e-09
2.06114e-09
-5.04716e-08
5.1719e-08
-5.33841e-07
5.51353e-07
-1.75113e-08
3.39441e-08
-4.00701e-08
-3.1606e-07
3.22186e-07
5.38737e-08
-6.21741e-08
-2.70139e-07
2.7844e-07
4.92857e-08
-5.0148e-08
-3.70551e-08
3.79174e-08
4.52545e-08
-3.78946e-08
2.23856e-07
-2.31216e-07
2.97803e-08
-2.02128e-08
3.41737e-07
-3.51305e-07
9.35727e-09
2.63065e-09
4.24456e-07
-4.36443e-07
-1.28179e-08
2.97453e-08
5.12043e-07
-5.2897e-07
-6.13273e-08
9.52996e-08
5.8781e-07
-6.21782e-07
-1.18197e-07
1.16675e-07
2.21176e-07
-2.19654e-07
-9.79775e-08
9.59954e-08
7.91004e-08
-7.71183e-08
-1.01655e-07
9.91785e-08
9.85991e-08
-9.61222e-08
-9.97201e-08
1.12465e-07
1.71061e-07
-1.83806e-07
-1.29884e-07
1.56044e-07
3.72303e-07
-3.98463e-07
-1.93487e-07
2.13891e-07
7.13346e-08
-9.17388e-08
-2.2103e-07
1.93894e-07
-2.68531e-07
2.95668e-07
-1.69224e-07
1.50422e-07
-3.36816e-07
3.55618e-07
-1.29168e-07
9.8692e-08
-3.26125e-07
3.566e-07
-6.17902e-08
4.6446e-08
-3.18792e-07
3.34136e-07
-4.73357e-08
4.9041e-08
-2.13734e-07
2.12029e-07
-4.67282e-08
4.20244e-08
-1.57048e-07
1.61751e-07
-3.75125e-08
3.44655e-08
-1.35896e-07
1.38943e-07
-3.15914e-08
2.88783e-08
-1.21422e-07
1.24135e-07
-2.59102e-08
2.30833e-08
-1.05951e-07
1.08777e-07
-2.00937e-08
1.7259e-08
-9.32372e-08
9.60719e-08
-1.4611e-08
1.25481e-08
-8.29323e-08
8.49952e-08
-1.07708e-08
9.25344e-09
-7.36017e-08
7.51191e-08
-7.70088e-09
6.27294e-09
-6.53089e-08
6.67369e-08
-4.86199e-09
3.66679e-09
-5.84843e-08
5.96795e-08
-2.57493e-09
1.66937e-09
-5.28302e-08
5.37358e-08
-5.69122e-07
5.87162e-07
-1.80398e-08
3.49954e-08
-4.02072e-08
-3.27881e-07
3.33093e-07
5.55741e-08
-6.43056e-08
-2.86902e-07
2.95634e-07
5.12274e-08
-5.13012e-08
-3.84308e-08
3.85046e-08
4.68221e-08
-3.91938e-08
2.38707e-07
-2.46335e-07
3.12606e-08
-2.16591e-08
3.60886e-07
-3.70487e-07
1.09805e-08
7.88732e-10
4.48336e-07
-4.60105e-07
-9.7353e-09
2.62949e-08
5.45785e-07
-5.62345e-07
-5.9302e-08
9.3247e-08
6.56675e-07
-6.9062e-07
-1.15832e-07
1.12683e-07
2.16902e-07
-2.13752e-07
-9.2121e-08
9.26063e-08
7.58717e-08
-7.63569e-08
-9.94747e-08
9.558e-08
9.29993e-08
-8.91046e-08
-1.13403e-07
1.47464e-07
2.06503e-07
-2.40564e-07
-1.57098e-07
1.67427e-07
4.13393e-07
-4.23684e-07
-1.72356e-07
1.78815e-07
1.16627e-07
-5.16562e-08
-2.24419e-07
1.80028e-07
-3.41305e-07
3.85697e-07
-1.3399e-07
1.05579e-07
-3.67773e-07
3.96184e-07
-1.13435e-07
9.42937e-08
-3.81921e-07
4.01063e-07
-4.07835e-08
1.69231e-08
-3.52104e-07
3.75965e-07
-2.61373e-08
3.63112e-08
-2.09763e-07
1.99589e-07
-4.29074e-08
4.37461e-08
-1.62659e-07
1.6182e-07
-3.99497e-08
3.55155e-08
-1.43627e-07
1.48061e-07
-3.18015e-08
2.88419e-08
-1.27446e-07
1.30406e-07
-2.54814e-08
2.18173e-08
-1.12357e-07
1.16021e-07
-1.8024e-08
1.50626e-08
-9.8888e-08
1.01849e-07
-1.28752e-08
1.13012e-08
-8.66651e-08
8.82391e-08
-9.87186e-09
8.57157e-09
-7.63712e-08
7.76715e-08
-7.20133e-09
5.88445e-09
-6.8144e-08
6.94608e-08
-4.49936e-09
3.29155e-09
-6.09279e-08
6.21357e-08
-2.23966e-09
1.46427e-09
-5.44996e-08