/*--------------------------------*- C++ -*----------------------------------*\
| =========                 |                                                 |
| \\      /  F ield         | OpenFOAM: The Open Source CFD Toolbox           |
|  \\    /   O peration     | Version:  2.4.0                                 |
|   \\  /    A nd           | Web:      www.OpenFOAM.org                      |
|    \\/     M anipulation  |                                                 |
\*---------------------------------------------------------------------------*/
FoamFile
{
    version     2.0;
    format      ascii;
    class       volScalarField;
    location    "0.333";
    object      alpha.water;
}
// * * * * * * * * * * * * * * * * * * * * * * * * * * * * * * * * * * * * * //

dimensions      [0 0 0 0 0 0 0];

internalField   nonuniform List<scalar> 
10000
(
1.33176e-51
9.59524e-48
2.28739e-44
2.31303e-41
9.18807e-39
1.30997e-36
7.63714e-35
2.13546e-33
3.22572e-32
2.88272e-31
1.70321e-30
7.51754e-30
2.81722e-29
1.04548e-28
4.13734e-28
1.76774e-27
8.7598e-27
4.72154e-26
2.47919e-25
1.24753e-24
5.86256e-24
2.55208e-23
1.03343e-22
3.88512e-22
1.33791e-21
4.15238e-21
1.14302e-20
2.73564e-20
5.33014e-20
7.61002e-20
7.9128e-20
6.03059e-20
3.46941e-20
1.57197e-20
5.91587e-21
1.95095e-21
5.80206e-22
1.54686e-22
3.61119e-23
7.23563e-24
1.22951e-24
1.76749e-25
2.12839e-26
2.10896e-27
1.69747e-28
1.23554e-29
6.2173e-30
2.07173e-29
7.01136e-29
2.23016e-28
4.33778e-48
2.89427e-44
5.65557e-41
4.48494e-38
1.38376e-35
1.62076e-33
8.2315e-32
2.09387e-30
2.96201e-29
2.52225e-28
1.4317e-27
6.05086e-27
2.16701e-26
7.72868e-26
2.94971e-25
1.20363e-24
5.57624e-24
2.80459e-23
1.35448e-22
6.26801e-22
2.73153e-21
1.10166e-20
4.12555e-20
1.43116e-19
4.57878e-19
1.32681e-18
3.40052e-18
7.56213e-18
1.39222e-17
1.98233e-17
2.16213e-17
1.81727e-17
1.19105e-17
6.25339e-18
2.73903e-18
1.04245e-18
3.51839e-19
1.05448e-19
2.77313e-20
6.31618e-21
1.23158e-21
2.04447e-22
2.86153e-23
3.33226e-24
3.2041e-25
2.93362e-26
2.02279e-26
7.52997e-26
2.83408e-25
1.00865e-24
1.67047e-45
1.24796e-41
2.50128e-38
1.8797e-35
5.03968e-33
5.1262e-31
2.32488e-29
5.45122e-28
7.25178e-27
5.89806e-26
3.22634e-25
1.31103e-24
4.50522e-24
1.5425e-23
5.64746e-23
2.19742e-22
9.46523e-22
4.38963e-21
1.95004e-20
8.25394e-20
3.29929e-19
1.22611e-18
4.23812e-18
1.35957e-17
4.03489e-17
1.09469e-16
2.65197e-16
5.58454e-16
9.90185e-16
1.41014e-15
1.59307e-15
1.43339e-15
1.03115e-15
6.03403e-16
2.96917e-16
1.26786e-16
4.77892e-17
1.59595e-17
4.68872e-18
1.19813e-18
2.63671e-19
4.96287e-20
7.90103e-21
1.05174e-21
1.16724e-22
1.36836e-23
1.55316e-23
6.56401e-23
2.74078e-22
1.08563e-21
2.32663e-43
2.0201e-39
4.46007e-36
3.36516e-33
8.16473e-31
7.3338e-29
3.00856e-27
6.48924e-26
8.12018e-25
6.32664e-24
3.34419e-23
1.31039e-22
4.32124e-22
1.41135e-21
4.92697e-21
1.8182e-20
7.28886e-20
3.11006e-19
1.27676e-18
4.95336e-18
1.80221e-17
6.14209e-17
1.95692e-16
5.81843e-16
1.60815e-15
4.08919e-15
9.38809e-15
1.88998e-14
3.25328e-14
4.63171e-14
5.37923e-14
5.0886e-14
3.92429e-14
2.49387e-14
1.34151e-14
6.27217e-15
2.59039e-15
9.49858e-16
3.07472e-16
8.68651e-17
2.12159e-17
4.4397e-18
7.85996e-19
1.16447e-19
1.44993e-20
2.33751e-21
4.61054e-21
2.15396e-20
9.6809e-20
4.08912e-19
1.54077e-41
1.65626e-37
4.55134e-34
3.51664e-31
7.57035e-29
6.03603e-27
2.23225e-25
4.4223e-24
5.20065e-23
3.88541e-22
1.98908e-21
7.54349e-21
2.38793e-20
7.40509e-20
2.44475e-19
8.50513e-19
3.17806e-18
1.24921e-17
4.74754e-17
1.69451e-16
5.62365e-16
1.74911e-15
5.1294e-15
1.4153e-14
3.65232e-14
8.7272e-14
1.89921e-13
3.6686e-13
6.14649e-13
8.73323e-13
1.03631e-12
1.02097e-12
8.31519e-13
5.63335e-13
3.24869e-13
1.63404e-13
7.2849e-14
2.89417e-14
1.0181e-14
3.13361e-15
8.3599e-16
1.90791e-16
3.67519e-17
5.91729e-18
8.09229e-19
1.99413e-19
6.04144e-19
2.91039e-18
1.3005e-17
5.29379e-17
6.3242e-40
8.77315e-36
3.35891e-32
2.45979e-29
4.62211e-27
3.23378e-25
1.06485e-23
1.9345e-22
2.1423e-21
1.53875e-20
7.65259e-20
2.82149e-19
8.58016e-19
2.51976e-18
7.80693e-18
2.54505e-17
8.87533e-17
3.21951e-16
1.13223e-15
3.72416e-15
1.13096e-14
3.21799e-14
8.67443e-14
2.2198e-13
5.35365e-13
1.20343e-12
2.48432e-12
4.60723e-12
7.51684e-12
1.0636e-11
1.28469e-11
1.31014e-11
1.11632e-11
7.95787e-12
4.85298e-12
2.59334e-12
1.23466e-12
5.2598e-13
1.98928e-13
6.59976e-14
1.89869e-14
4.65839e-15
9.61277e-16
1.65345e-16
2.46443e-17
9.51101e-18
3.55442e-17
1.65178e-16
6.90954e-16
2.59346e-15
1.84125e-38
3.98578e-34
2.01317e-30
1.25182e-27
1.97003e-25
1.1889e-23
3.49791e-22
5.85004e-21
6.11533e-20
4.23227e-19
2.05051e-18
7.38452e-18
2.16219e-17
6.0053e-17
1.73685e-16
5.2719e-16
1.71493e-15
5.73858e-15
1.8714e-14
5.67859e-14
1.5824e-13
4.12533e-13
1.02381e-12
2.43036e-12
5.47863e-12
1.15896e-11
2.2668e-11
4.03028e-11
6.40504e-11
9.00384e-11
1.10336e-10
1.16089e-10
1.02866e-10
7.64111e-11
4.87807e-11
2.74658e-11
1.38584e-11
6.28442e-12
2.53839e-12
9.02259e-13
2.78099e-13
7.29628e-14
1.60459e-14
2.93149e-15
4.75004e-16
2.5423e-16
1.00066e-15
4.36625e-15
1.69482e-14
5.86358e-14
4.25666e-37
2.2103e-32
9.44696e-29
4.59593e-26
6.02061e-24
3.15282e-22
8.33419e-21
1.28729e-19
1.27247e-18
8.49764e-18
4.02026e-17
1.42041e-16
4.02056e-16
1.05664e-15
2.84349e-15
7.99313e-15
2.41341e-14
7.45424e-14
2.25769e-13
6.32764e-13
1.62142e-12
3.87913e-12
8.88272e-12
1.95797e-11
4.1315e-11
8.2188e-11
1.52013e-10
2.5845e-10
3.99174e-10
5.56566e-10
6.91151e-10
7.49198e-10
6.87846e-10
5.27898e-10
3.4974e-10
2.06122e-10
1.09733e-10
5.27702e-11
2.27111e-11
8.63393e-12
2.84963e-12
8.00624e-13
1.88087e-13
3.6559e-14
6.37861e-15
3.93292e-15
1.50983e-14
6.19286e-14
2.24863e-13
7.23486e-13
8.96054e-36
1.09195e-30
3.25772e-27
1.25142e-24
1.3706e-22
6.27252e-21
1.49632e-19
2.13957e-18
2.00179e-17
1.29065e-16
5.97198e-16
2.07726e-15
5.71569e-15
1.42503e-14
3.56465e-14
9.23822e-14
2.57066e-13
7.32928e-13
2.06288e-12
5.34883e-12
1.26271e-11
2.77899e-11
5.87688e-11
1.20642e-10
2.38396e-10
4.46254e-10
7.79779e-10
1.26365e-09
1.89011e-09
2.61073e-09
3.29e-09
3.68303e-09
3.49523e-09
2.74192e-09
1.86977e-09
1.14768e-09
6.42802e-10
3.27716e-10
1.50475e-10
6.13004e-11
2.17393e-11
6.57466e-12
1.66285e-12
3.47143e-13
6.44415e-14
3.81266e-14
1.36303e-13
5.30313e-13
1.82212e-12
5.52054e-12
2.7856e-34
4.05094e-29
8.55357e-26
2.60164e-23
2.40101e-21
9.65646e-20
2.08569e-18
2.76462e-17
2.44815e-16
1.52315e-15
6.89645e-15
2.36657e-14
6.37068e-14
1.51376e-13
3.52605e-13
8.39448e-13
2.13816e-12
5.61006e-12
1.46773e-11
3.53077e-11
7.69379e-11
1.55982e-10
3.05311e-10
5.84915e-10
1.08435e-09
1.91142e-09
3.15538e-09
4.86662e-09
7.03988e-09
9.6683e-09
1.24475e-08
1.4506e-08
1.42431e-08
1.12222e-08
7.7635e-09
4.93053e-09
2.90041e-09
1.57076e-09
7.72408e-10
3.38987e-10
1.3005e-10
4.26438e-11
1.17195e-11
2.65601e-12
5.21862e-13
2.55578e-13
8.07652e-13
3.01324e-12
9.90505e-12
2.86369e-11
1.50578e-32
1.15962e-27
1.75222e-24
4.24993e-22
3.32735e-20
1.18094e-18
2.31433e-17
2.84446e-16
2.38106e-15
1.42678e-14
6.31538e-14
2.13888e-13
5.66802e-13
1.29161e-12
2.81446e-12
6.14735e-12
1.42446e-11
3.42477e-11
8.32189e-11
1.8627e-10
3.75657e-10
7.02561e-10
1.27645e-09
2.28393e-09
3.97676e-09
6.60449e-09
1.03174e-08
1.51843e-08
2.13786e-08
2.96381e-08
3.95064e-08
4.87378e-08
5.02378e-08
3.83936e-08
2.6281e-08
1.70723e-08
1.04959e-08
6.0344e-09
3.18774e-09
1.51528e-09
6.33634e-10
2.27494e-10
6.85666e-11
1.70416e-11
3.56846e-12
1.33012e-12
3.39744e-12
1.22022e-11
3.88408e-11
1.08376e-10
6.46652e-31
2.6329e-26
2.8733e-23
5.60439e-21
3.74175e-19
1.17531e-17
2.09169e-16
2.38127e-15
1.87914e-14
1.08048e-13
4.66156e-13
1.55561e-12
4.07706e-12
8.97708e-12
1.84232e-11
3.70067e-11
7.76527e-11
1.70238e-10
3.83136e-10
8.00045e-10
1.49827e-09
2.59127e-09
4.37726e-09
7.31791e-09
1.19572e-08
1.86981e-08
2.76141e-08
3.8838e-08
5.39002e-08
7.7466e-08
1.08596e-07
1.49608e-07
1.74785e-07
1.18804e-07
7.59375e-08
4.96704e-08
3.17651e-08
1.93145e-08
1.09265e-08
5.62154e-09
2.5689e-09
1.01629e-09
3.3964e-10
9.37799e-11
2.13551e-11
6.13579e-12
1.08385e-11
3.7318e-11
1.16171e-10
3.16581e-10
2.21725e-29
4.87142e-25
3.87646e-22
6.12144e-20
3.49881e-18
9.74347e-17
1.5745e-15
1.6567e-14
1.22723e-13
6.73186e-13
2.8151e-12
9.2171e-12
2.39299e-11
5.13129e-11
9.9986e-11
1.859e-10
3.52977e-10
7.00832e-10
1.45761e-09
2.84509e-09
4.96442e-09
7.96218e-09
1.25124e-08
1.95363e-08
2.9862e-08
4.36667e-08
6.01971e-08
7.97959e-08
1.10547e-07
1.754e-07
2.72214e-07
4.88188e-07
7.11773e-07
3.92531e-07
2.06067e-07
1.29283e-07
8.4476e-08
5.35801e-08
3.20579e-08
1.768e-08
8.78242e-09
3.82731e-09
1.42352e-09
4.40237e-10
1.11613e-10
2.79144e-11
2.83245e-11
9.01602e-11
2.77377e-10
7.44887e-10
6.19293e-28
7.53242e-24
4.40844e-21
5.66519e-19
2.78059e-17
6.87418e-16
1.00824e-14
9.78091e-14
6.76725e-13
3.51485e-12
1.41263e-11
4.50358e-11
1.1546e-10
2.42737e-10
4.52779e-10
7.86897e-10
1.35941e-09
2.43099e-09
4.66559e-09
8.5284e-09
1.38767e-08
2.06605e-08
3.02593e-08
4.40333e-08
6.25631e-08
8.48707e-08
1.09546e-07
1.40347e-07
1.9814e-07
3.22202e-07
6.95274e-07
1.09737e-06
1.67003e-06
1.28752e-06
6.95628e-07
3.80429e-07
2.21453e-07
1.34595e-07
8.15381e-08
4.72251e-08
2.52592e-08
1.20859e-08
5.01435e-09
1.74981e-09
5.01088e-10
1.24937e-10
6.88401e-11
1.79014e-10
5.47577e-10
1.46208e-09
1.43378e-26
9.90341e-23
4.29128e-20
4.50798e-18
1.90604e-16
4.19135e-15
5.58336e-14
4.98803e-13
3.21103e-12
1.56758e-11
5.9938e-11
1.84054e-10
4.61716e-10
9.54542e-10
1.7168e-09
2.82114e-09
4.48763e-09
7.22225e-09
1.27831e-08
2.2044e-08
3.32853e-08
4.59771e-08
6.28556e-08
8.48e-08
1.10372e-07
1.36387e-07
1.62509e-07
2.0664e-07
2.8451e-07
7.98908e-07
7.40613e-07
5.245e-06
1.47069e-05
3.48793e-06
1.39652e-06
7.25609e-07
4.05513e-07
2.43484e-07
1.54241e-07
9.69658e-08
5.73322e-08
3.06696e-08
1.43695e-08
5.71859e-09
1.88036e-09
5.13413e-10
1.81257e-10
3.07867e-10
9.17941e-10
2.46329e-09
2.75847e-25
1.10756e-21
3.57893e-19
3.08997e-17
1.13022e-15
2.21806e-14
2.69045e-13
2.2169e-12
1.32728e-11
6.06606e-11
2.18847e-10
6.39841e-10
1.54934e-09
3.13461e-09
5.46107e-09
8.56964e-09
1.27512e-08
1.85721e-08
2.97993e-08
4.99841e-08
6.9499e-08
8.90072e-08
1.13181e-07
1.4113e-07
1.6597e-07
1.86009e-07
2.13549e-07
2.85378e-07
5.00952e-07
7.16913e-07
5.89065e-06
1.65665e-05
1.65637e-05
1.65606e-05
5.36705e-06
6.46118e-07
5.85342e-07
3.41571e-07
2.1795e-07
1.49477e-07
9.98797e-08
6.10597e-08
3.28522e-08
1.50903e-08
5.76109e-09
1.80422e-09
5.41783e-10
4.95015e-10
1.34374e-09
3.63756e-09
4.32036e-24
1.03643e-20
2.52645e-18
1.80625e-16
5.74721e-15
1.01111e-13
1.12118e-12
8.55258e-12
4.77738e-11
2.0466e-10
6.95055e-10
1.92154e-09
4.43383e-09
8.66769e-09
1.46186e-08
2.20363e-08
3.10979e-08
4.08174e-08
5.20307e-08
9.40097e-08
1.24476e-07
1.45578e-07
1.64167e-07
1.9932e-07
2.10917e-07
2.00128e-07
2.26938e-07
2.64294e-07
3.36801e-07
8.04526e-07
7.43225e-07
1.04864e-05
1.65608e-05
8.7059e-06
1.21646e-06
9.48781e-07
5.98293e-07
3.73882e-07
2.60935e-07
1.96618e-07
1.46876e-07
1.01792e-07
6.26362e-08
3.31313e-08
1.46766e-08
5.3382e-09
1.65706e-09
8.51608e-10
1.76835e-09
4.7956e-09
5.32241e-23
7.93509e-20
1.48402e-17
8.87104e-16
2.47132e-14
3.9162e-13
3.98561e-12
2.82563e-11
1.47884e-10
5.9641e-10
1.91315e-09
5.00693e-09
1.09551e-08
2.04564e-08
3.32236e-08
4.81315e-08
6.4933e-08
7.09776e-08
1.14338e-07
1.74352e-07
1.92945e-07
1.84461e-07
1.9497e-07
2.47629e-07
2.13885e-07
4.71139e-07
2.79895e-07
2.68366e-07
2.9105e-07
3.78459e-07
7.38212e-07
1.77781e-06
5.00062e-06
2.35363e-06
1.2311e-06
7.21498e-07
4.64254e-07
3.39109e-07
2.75629e-07
2.33763e-07
1.94062e-07
1.50087e-07
1.04101e-07
6.27374e-08
3.19959e-08
1.3487e-08
4.68663e-09
1.76399e-09
2.20274e-09
5.73785e-09
5.01237e-22
4.88034e-19
7.14751e-17
3.61261e-15
8.87403e-14
1.2727e-12
1.19295e-11
7.88295e-11
3.87669e-10
1.47704e-09
4.49408e-09
1.11895e-08
2.33138e-08
4.15925e-08
6.49984e-08
9.06077e-08
1.17072e-07
1.29174e-07
1.81242e-07
2.41603e-07
2.13724e-07
3.27926e-07
2.54166e-07
2.94e-07
3.26226e-07
3.26709e-07
7.89616e-07
2.81725e-07
2.91399e-07
3.08826e-07
3.78531e-07
7.22578e-07
1.14382e-06
9.55657e-07
6.36335e-07
4.41722e-07
3.44972e-07
3.04924e-07
2.86207e-07
2.69603e-07
2.43903e-07
2.04764e-07
1.55736e-07
1.04709e-07
6.06305e-08
2.94335e-08
1.17563e-08
4.19539e-09
2.9074e-09
6.35091e-09
3.54754e-21
2.3807e-18
2.79176e-16
1.20832e-14
2.6387e-13
3.44427e-12
2.98478e-11
1.8431e-10
8.53268e-10
3.07628e-09
8.89371e-09
2.11221e-08
4.21346e-08
7.23242e-08
1.09529e-07
1.49433e-07
1.8796e-07
2.14245e-07
2.88383e-07
3.33711e-07
3.17719e-07
3.03976e-07
7.45242e-07
5.09764e-07
4.24379e-07
3.75362e-07
3.25536e-07
3.14088e-07
3.12436e-07
3.14436e-07
3.31051e-07
3.86699e-07
4.77329e-07
4.55584e-07
4.18075e-07
7.18708e-07
3.41321e-07
3.3342e-07
3.40282e-07
3.51781e-07
3.4335e-07
2.98475e-07
2.32273e-07
1.63896e-07
1.03377e-07
5.64296e-08
2.58406e-08
9.98873e-09
4.65263e-09
6.77688e-09
1.87374e-20
9.11584e-18
8.77159e-16
3.30034e-14
6.47331e-13
7.74692e-12
6.23949e-11
3.61407e-10
1.57927e-09
5.39746e-09
1.4843e-08
3.36453e-08
6.43598e-08
1.06792e-07
1.58817e-07
2.19034e-07
2.88631e-07
3.74066e-07
5.05843e-07
5.15317e-07
5.23294e-07
5.13501e-07
6.14354e-07
5.94363e-07
5.13141e-07
4.37646e-07
3.8514e-07
3.52128e-07
3.2059e-07
3.66915e-07
3.73405e-07
3.7908e-07
3.99467e-07
4.2034e-07
4.27808e-07
4.3152e-07
4.37013e-07
4.5079e-07
4.91683e-07
5.74715e-07
6.41992e-07
5.75016e-07
4.28133e-07
2.86068e-07
1.77915e-07
1.01723e-07
5.12944e-08
2.20956e-08
9.06123e-09
7.64235e-09
7.29106e-20
2.72157e-17
2.21112e-15
7.36351e-14
1.3138e-12
1.45517e-11
1.09715e-10
5.99509e-10
2.48417e-09
8.07862e-09
2.11944e-08
4.59582e-08
8.44813e-08
1.35934e-07
1.99912e-07
2.81766e-07
3.97283e-07
6.01422e-07
7.95762e-07
9.58089e-07
9.57055e-07
1.02679e-06
1.00841e-06
8.92589e-07
7.34898e-07
5.91037e-07
4.83146e-07
4.10757e-07
3.74159e-07
3.62479e-07
3.60926e-07
4.11117e-07
6.5607e-07
5.17271e-07
5.13309e-07
5.12312e-07
5.22613e-07
5.52688e-07
6.04025e-07
7.17323e-07
8.84151e-07
1.11036e-06
6.74664e-07
5.27123e-07
3.02318e-07
1.85771e-07
9.89546e-08
4.61655e-08
1.92172e-08
1.04674e-08
2.09684e-19
6.35542e-17
4.49608e-15
1.35218e-13
2.2264e-12
2.30751e-11
1.64319e-10
8.53467e-10
3.37619e-09
1.05122e-08
2.64634e-08
5.51968e-08
9.80121e-08
1.53751e-07
2.25004e-07
3.1654e-07
4.30249e-07
7.40692e-07
9.91647e-07
1.0193e-06
2.61961e-06
2.39049e-06
1.88614e-06
1.65083e-06
1.11801e-06
7.75869e-07
5.87001e-07
4.71858e-07
4.05143e-07
3.80131e-07
3.87299e-07
4.53998e-07
5.19282e-07
5.4876e-07
5.50196e-07
5.44293e-07
5.42112e-07
5.43586e-07
5.45848e-07
5.45922e-07
6.9346e-06
1.43897e-05
7.90136e-06
5.38404e-07
5.70089e-07
3.02263e-07
1.90631e-07
9.67586e-08
4.22451e-08
1.86061e-08
4.5369e-19
1.17566e-16
7.4615e-15
2.06788e-13
3.1896e-12
3.13038e-11
2.12667e-10
1.05939e-09
4.03476e-09
1.21302e-08
2.95607e-08
5.98676e-08
1.0371e-07
1.60307e-07
2.36493e-07
3.11363e-07
3.60584e-07
1.07128e-06
1.22186e-06
1.33639e-06
2.13872e-06
9.00827e-06
1.19292e-05
4.10311e-06
1.67367e-06
9.70736e-07
6.87244e-07
5.25411e-07
4.31254e-07
3.7973e-07
5.59683e-07
4.29573e-07
1.41196e-06
7.56544e-07
6.99237e-07
6.11836e-07
5.69378e-07
5.59121e-07
5.45869e-07
3.21098e-06
1.43908e-05
1.43884e-05
1.43838e-05
6.87537e-06
3.95596e-07
3.85045e-07
2.73088e-07
1.58517e-07
7.8388e-08
3.51762e-08
7.56329e-19
1.74944e-16
1.02363e-14
2.66577e-13
3.91085e-12
3.67995e-11
2.4108e-10
1.16317e-09
4.30625e-09
1.26261e-08
3.01099e-08
5.99031e-08
1.02378e-07
1.56794e-07
2.30923e-07
2.33096e-07
7.88359e-07
7.48682e-07
6.23008e-07
6.23137e-07
2.02206e-05
3.02294e-05
3.0229e-05
2.92149e-05
5.46487e-06
5.27872e-07
5.19563e-07
4.41635e-07
3.97384e-07
3.7917e-07
3.76906e-07
4.28113e-07
5.3524e-07
7.06217e-07
7.75435e-07
6.12963e-07
1.15709e-06
5.65942e-07
5.59771e-07
5.60781e-07
1.02562e-05
1.43851e-05
1.39323e-05
2.9995e-06
4.4624e-07
4.74441e-07
3.5382e-07
2.24423e-07
1.24571e-07
6.15787e-08
9.93503e-19
2.12593e-16
1.17575e-14
2.93078e-13
4.15043e-12
3.79189e-11
2.42274e-10
1.14434e-09
4.16224e-09
1.20345e-08
2.84172e-08
5.62203e-08
9.58695e-08
1.46332e-07
2.12568e-07
2.85906e-07
6.04753e-07
7.00468e-07
5.33528e-07
3.63155e-06
2.97024e-05
3.0229e-05
3.02279e-05
3.02273e-05
1.8223e-05
5.55643e-07
4.93581e-07
7.69965e-07
3.88037e-07
3.81588e-07
3.96555e-07
4.26956e-07
4.39782e-07
9.99891e-07
1.14457e-06
8.76587e-07
6.00668e-07
7.25944e-07
7.80838e-07
6.58489e-07
1.56629e-06
6.2783e-06
5.51504e-06
1.38891e-06
9.21239e-07
7.39435e-07
5.29157e-07
3.42596e-07
2.01231e-07
1.07159e-07
1.04875e-18
2.14071e-16
1.14396e-14
2.77737e-13
3.85142e-12
3.46033e-11
2.182e-10
1.02058e-09
3.68888e-09
1.06406e-08
2.5173e-08
5.00991e-08
8.6121e-08
1.31852e-07
1.87947e-07
2.16045e-07
5.05176e-07
6.25616e-07
5.29044e-07
3.22268e-06
2.91461e-05
3.02341e-05
3.0229e-05
3.02279e-05
1.79425e-05
5.63957e-07
5.09446e-07
3.96514e-07
3.86601e-07
3.81999e-07
3.82015e-07
3.82016e-07
4.98827e-07
4.72726e-07
4.87746e-07
5.07831e-07
4.98619e-07
4.4635e-07
4.59872e-07
5.24072e-07
6.12417e-07
4.66234e-07
4.41808e-07
6.24933e-07
7.31699e-07
7.14562e-07
5.9594e-07
4.38289e-07
2.89296e-07
1.72119e-07
9.01872e-19
1.80598e-16
9.51817e-15
2.28647e-13
3.14762e-12
2.81614e-11
1.77351e-10
8.30967e-10
3.01891e-09
8.78562e-09
2.10529e-08
4.25972e-08
7.45832e-08
1.15783e-07
1.63453e-07
2.16466e-07
2.3999e-07
3.93439e-07
5.0727e-07
5.07685e-07
1.10485e-05
3.02372e-05
3.02352e-05
2.56304e-05
2.97443e-06
5.5535e-07
5.47799e-07
4.75946e-07
4.35027e-07
4.16728e-07
4.11168e-07
4.18028e-07
4.28175e-07
4.49083e-07
4.53227e-07
4.39116e-07
4.32189e-07
4.20538e-07
4.1822e-07
4.34838e-07
4.11874e-07
6.66317e-07
4.28498e-07
4.55384e-07
7.04123e-07
8.18615e-07
6.81318e-07
5.44753e-07
4.02785e-07
2.66519e-07
6.36344e-19
1.2821e-16
6.78714e-15
1.63895e-13
2.27086e-12
2.04803e-11
1.30314e-10
6.18685e-10
2.28493e-09
6.78299e-09
1.66364e-08
3.45588e-08
6.22317e-08
9.92293e-08
1.42696e-07
1.87912e-07
2.27825e-07
2.92816e-07
3.75916e-07
7.32291e-07
5.56365e-07
2.56172e-06
2.84617e-06
9.89209e-07
7.75003e-07
7.00451e-07
5.76028e-07
5.04566e-07
4.75959e-07
4.62278e-07
4.39628e-07
4.496e-07
4.74125e-07
4.81468e-07
4.53719e-07
7.59419e-07
4.34355e-07
4.28898e-07
4.14439e-07
4.07873e-07
4.10227e-07
4.12314e-07
4.22636e-07
4.32708e-07
4.87633e-07
5.38814e-07
6.93705e-07
4.49172e-07
4.14455e-07
3.66439e-07
3.68029e-19
7.62561e-17
4.13266e-15
1.01923e-13
1.4405e-12
1.32603e-11
8.62997e-11
4.20161e-10
1.59594e-09
4.88689e-09
1.23961e-08
2.66833e-08
4.98158e-08
8.22178e-08
1.21795e-07
1.63717e-07
1.98908e-07
2.47881e-07
3.16032e-07
3.72578e-07
5.06889e-07
5.99787e-07
6.25706e-07
5.768e-07
5.05463e-07
4.51528e-07
4.25641e-07
4.71083e-07
5.002e-07
5.2461e-07
4.66975e-07
6.39039e-07
7.23116e-07
6.33935e-07
4.64759e-07
4.68495e-07
4.47189e-07
4.38121e-07
4.26784e-07
4.12048e-07
4.05728e-07
4.07344e-07
4.12429e-07
4.17096e-07
4.27499e-07
4.56882e-07
4.53396e-07
8.05942e-07
8.06834e-07
3.54311e-07
1.72652e-19
3.76998e-17
2.13584e-15
5.46726e-14
7.99598e-13
7.61405e-12
5.13294e-11
2.59399e-10
1.02514e-09
3.27313e-09
8.67221e-09
1.95146e-08
3.80685e-08
6.55344e-08
1.01005e-07
1.41017e-07
1.79004e-07
2.08305e-07
2.59408e-07
2.99769e-07
3.24416e-07
3.3329e-07
4.16854e-07
3.85366e-07
3.63852e-07
3.61215e-07
3.48385e-07
4.71402e-07
8.00805e-07
5.40553e-07
5.15082e-07
4.20894e-07
4.03189e-07
4.0465e-07
4.54076e-06
1.48136e-05
1.89174e-05
8.4537e-06
6.54711e-07
4.89624e-07
4.47809e-07
4.3856e-07
4.37198e-07
4.36668e-07
4.36007e-07
4.425e-07
4.49674e-07
4.9273e-07
4.32963e-07
9.18268e-07
6.5618e-20
1.54606e-17
9.3133e-16
2.51502e-14
3.86494e-13
3.86102e-12
2.72999e-11
1.44791e-10
6.0121e-10
2.01959e-09
5.63487e-09
1.33514e-08
2.7391e-08
4.94712e-08
7.97297e-08
1.1597e-07
1.50051e-07
1.76372e-07
2.45754e-07
2.69543e-07
2.79899e-07
2.80519e-07
5.71578e-07
2.86082e-07
2.99185e-07
3.21744e-07
3.3786e-07
3.31012e-07
3.29354e-07
3.56654e-07
3.61545e-07
3.46138e-07
3.23515e-07
1.49797e-06
4.63725e-05
5.57422e-05
5.57378e-05
5.46756e-05
1.20988e-05
4.95148e-07
5.32792e-07
5.40012e-07
5.57152e-07
5.50429e-07
4.99616e-07
4.97502e-07
4.8535e-07
4.44809e-07
4.23384e-07
9.15985e-07
2.01329e-20
5.22638e-18
3.41238e-16
9.88511e-15
1.61909e-13
1.71775e-12
1.28721e-11
7.23154e-11
3.18113e-10
1.1325e-09
3.34764e-09
8.39458e-09
1.8201e-08
3.46945e-08
5.89232e-08
9.01086e-08
1.16439e-07
1.32234e-07
2.95237e-07
2.95511e-07
2.83371e-07
3.30191e-07
2.66243e-07
2.6921e-07
2.83933e-07
3.09656e-07
3.20401e-07
3.24641e-07
3.28589e-07
3.31162e-07
3.29975e-07
3.2545e-07
3.23332e-07
2.73659e-05
5.5753e-05
5.57456e-05
5.57368e-05
5.57442e-05
4.53085e-05
2.95588e-06
5.28517e-07
5.24285e-07
5.61055e-07
7.09923e-07
7.06797e-07
4.98297e-07
4.9386e-07
5.97073e-07
4.17997e-07
3.98376e-07
4.96917e-21
1.44422e-18
1.04203e-16
3.29043e-15
5.82451e-14
6.63991e-13
5.33053e-12
3.20259e-11
1.50339e-10
5.69883e-10
1.78929e-09
4.75695e-09
1.09258e-08
2.20727e-08
3.97868e-08
6.46732e-08
8.05345e-08
8.38707e-08
4.21351e-07
3.25779e-07
2.94313e-07
2.39219e-07
2.61525e-07
2.48473e-07
7.23848e-07
2.88618e-07
3.09039e-07
3.12764e-07
3.14925e-07
3.18821e-07
3.22283e-07
3.2333e-07
3.2333e-07
2.09041e-05
5.57532e-05
5.57442e-05
5.57422e-05
5.5743e-05
4.1711e-05
1.65978e-06
5.30572e-07
5.26208e-07
5.19237e-07
5.14023e-07
5.08571e-07
5.03038e-07
4.87947e-07
5.93591e-07
5.95317e-07
3.90852e-07
9.70496e-22
3.25386e-19
2.64947e-17
9.29015e-16
1.80584e-14
2.24468e-13
1.95392e-12
1.26458e-11
6.34924e-11
2.55975e-10
8.51575e-10
2.39518e-09
5.82262e-09
1.2475e-08
2.39317e-08
4.15576e-08
4.61467e-08
1.11482e-07
5.48276e-08
1.8716e-07
2.51525e-07
2.24086e-07
7.53691e-07
2.4753e-07
1.77511e-07
2.42442e-07
2.7234e-07
2.89777e-07
3.03955e-07
3.15605e-07
3.23549e-07
3.25383e-07
3.23336e-07
1.34595e-05
5.56232e-05
5.57433e-05
5.57485e-05
5.57441e-05
3.678e-05
1.14014e-06
5.45642e-07
6.38696e-07
5.03122e-07
5.0769e-07
5.02602e-07
4.9567e-07
4.87716e-07
4.81664e-07
4.5875e-07
4.65037e-07
1.42731e-22
5.80071e-20
5.56618e-18
2.24699e-16
4.94973e-15
6.87332e-14
6.57281e-13
4.58906e-12
2.44906e-11
1.04031e-10
3.63209e-10
1.07214e-09
2.7417e-09
6.19859e-09
1.25991e-08
2.32857e-08
3.93287e-08
3.8085e-08
5.17822e-08
1.6512e-07
2.12123e-07
2.2195e-07
1.45573e-07
2.06364e-07
1.7031e-07
6.49484e-07
2.58528e-07
2.80347e-07
3.02439e-07
3.18569e-07
3.29519e-07
3.35369e-07
3.32214e-07
3.3111e-07
1.49828e-05
4.84358e-05
5.50758e-05
3.20124e-05
1.22341e-06
4.09797e-07
7.32794e-07
4.97356e-07
5.01111e-07
4.88936e-07
4.81074e-07
4.77785e-07
4.72682e-07
4.76503e-07
4.28536e-07
3.80285e-07
1.60041e-23
8.37858e-21
1.00256e-18
4.92478e-17
1.28675e-15
2.04387e-14
2.15441e-13
1.60968e-12
9.01497e-12
3.9737e-11
1.43275e-10
4.37206e-10
1.16034e-09
2.73571e-09
5.82978e-09
1.1367e-08
2.03981e-08
3.3734e-08
4.52524e-08
5.30339e-08
8.1314e-08
1.13061e-07
1.41069e-07
1.41568e-07
1.68635e-07
1.70494e-07
2.16739e-07
2.40901e-07
2.92203e-07
3.15594e-07
3.22102e-07
3.48083e-07
3.86541e-07
3.92167e-07
3.92185e-07
3.92222e-07
3.92362e-07
3.9266e-07
3.98533e-07
4.01113e-07
7.01572e-07
4.9123e-07
4.81621e-07
4.68787e-07
4.6225e-07
4.61285e-07
4.62581e-07
4.53533e-07
4.15259e-07
3.6757e-07
1.39307e-24
1.00444e-21
1.64049e-19
1.06423e-17
3.42912e-16
6.26344e-15
7.21298e-14
5.69658e-13
3.30402e-12
1.48858e-11
5.45127e-11
1.68901e-10
4.56505e-10
1.10217e-09
2.42103e-09
4.9025e-09
9.22043e-09
1.61331e-08
2.28578e-08
3.64488e-08
5.1486e-08
6.84243e-08
8.80368e-08
1.10158e-07
1.40585e-07
1.7643e-07
2.0988e-07
1.94204e-07
3.24273e-07
3.09265e-07
2.47825e-07
5.12612e-07
4.80571e-07
4.40613e-07
4.42172e-07
4.77544e-07
4.85158e-07
4.88255e-07
4.59246e-07
4.35518e-07
4.35399e-07
5.97347e-07
4.1397e-07
4.23925e-07
4.31028e-07
4.37671e-07
4.47574e-07
4.26551e-07
3.94243e-07
3.55174e-07
9.74348e-26
1.06496e-22
2.69311e-20
2.44432e-18
9.67013e-17
2.00373e-15
2.52392e-14
2.13216e-13
1.29214e-12
5.94872e-12
2.19093e-11
6.76281e-11
1.81562e-10
4.36561e-10
9.60864e-10
1.96636e-09
3.78e-09
6.85312e-09
1.17083e-08
1.64365e-08
2.45191e-08
3.72105e-08
5.19757e-08
6.86237e-08
9.45615e-08
1.28333e-07
1.61988e-07
1.90456e-07
1.59054e-07
2.06091e-07
2.44813e-07
2.37416e-07
2.92619e-07
3.24401e-07
3.92804e-07
5.93304e-07
6.57837e-07
6.42593e-07
4.64362e-07
3.94271e-07
4.68415e-07
4.04977e-07
4.09301e-07
4.11215e-07
4.1332e-07
4.16577e-07
4.74522e-07
1.07697e-06
8.93255e-07
4.1921e-07
5.76321e-27
1.01833e-23
4.55323e-21
5.81607e-19
2.8702e-17
7.72732e-16
1.28829e-14
1.33312e-13
8.96571e-13
4.24452e-12
1.52805e-11
4.46101e-11
1.1107e-10
2.45477e-10
4.97049e-10
9.44528e-10
1.71381e-09
2.99926e-09
5.07751e-09
8.30699e-09
1.31061e-08
1.99221e-08
2.74316e-08
3.7478e-08
5.34501e-08
7.53531e-08
1.0024e-07
1.25237e-07
1.49489e-07
1.74169e-07
2.01206e-07
2.31462e-07
2.62948e-07
2.90358e-07
3.04289e-07
3.04988e-07
3.14929e-07
3.32317e-07
3.61997e-07
3.84173e-07
3.86721e-07
4.02389e-07
4.07186e-07
4.07117e-07
4.04785e-07
4.04346e-07
1.22398e-06
2.37756e-06
1.22348e-06
1.74651e-06
2.63602e-28
8.71097e-25
8.28695e-22
1.57458e-19
1.67573e-17
9.39781e-16
2.21947e-14
2.5632e-13
1.73666e-12
7.92986e-12
2.69231e-11
7.29417e-11
1.65861e-10
3.29111e-10
5.87729e-10
9.68904e-10
1.5071e-09
2.2552e-09
3.30032e-09
4.78319e-09
6.91762e-09
1.00037e-08
1.36335e-08
1.92206e-08
2.60488e-08
3.50311e-08
4.79348e-08
6.51793e-08
8.59819e-08
1.09552e-07
1.35591e-07
1.63969e-07
1.9415e-07
2.25055e-07
2.55474e-07
2.84772e-07
3.1303e-07
3.40099e-07
3.56893e-07
3.73975e-07
3.97841e-07
4.18347e-07
4.23841e-07
4.22977e-07
4.13925e-07
4.19418e-07
1.4645e-06
2.37722e-06
9.66825e-07
7.63444e-07
8.27084e-30
9.00211e-26
1.71755e-22
1.62711e-19
4.66782e-17
3.00921e-15
6.72035e-14
7.16537e-13
4.51221e-12
1.93515e-11
6.22401e-11
1.60725e-10
3.4924e-10
6.62006e-10
1.12523e-09
1.75145e-09
2.53741e-09
3.46696e-09
4.51816e-09
5.68035e-09
6.98157e-09
8.51704e-09
1.04706e-08
1.26538e-08
1.5573e-08
2.01507e-08
2.71671e-08
3.7141e-08
5.04176e-08
6.72606e-08
8.78748e-08
1.12329e-07
1.40416e-07
1.71671e-07
2.05472e-07
2.4117e-07
2.78385e-07
3.16692e-07
3.24487e-07
4.28357e-07
5.32579e-07
4.54326e-07
4.66724e-07
4.61079e-07
4.15239e-07
5.1935e-07
5.04981e-07
6.58411e-07
6.49256e-07
4.81388e-07
1.38386e-31
9.99371e-27
2.27876e-22
7.05901e-19
1.8502e-16
1.01958e-14
2.00048e-13
1.9282e-12
1.12278e-11
4.5283e-11
1.38624e-10
3.43934e-10
7.22527e-10
1.33076e-09
2.20695e-09
3.36241e-09
4.77554e-09
6.38948e-09
8.11058e-09
9.82414e-09
1.14281e-08
1.2864e-08
1.41395e-08
1.53484e-08
1.66991e-08
1.8543e-08
2.13829e-08
2.58417e-08
3.26129e-08
4.24373e-08
5.60985e-08
7.43661e-08
9.7849e-08
1.26909e-07
1.6141e-07
2.00817e-07
2.44775e-07
2.92571e-07
3.45189e-07
3.70548e-07
4.07743e-07
4.50083e-07
5.0323e-07
5.14411e-07
4.86303e-07
4.82767e-07
4.89403e-07
5.0663e-07
5.2166e-07
4.76969e-07
1.15019e-33
5.58068e-27
1.33166e-21
3.26245e-18
6.82001e-16
3.16751e-14
5.46325e-13
4.77686e-12
2.58196e-11
9.82657e-11
2.87055e-10
6.85724e-10
1.39486e-09
2.49948e-09
4.05193e-09
6.06402e-09
8.50005e-09
1.12682e-08
1.42052e-08
1.71e-08
1.97477e-08
2.1985e-08
2.37003e-08
2.48345e-08
2.54132e-08
2.55924e-08
2.56971e-08
2.62365e-08
2.79042e-08
3.15911e-08
3.84087e-08
4.9674e-08
6.67668e-08
9.09179e-08
1.22517e-07
1.6185e-07
2.09383e-07
2.61127e-07
3.23871e-07
3.98268e-07
4.37531e-07
4.60976e-07
5.66915e-07
1.05468e-06
1.06748e-06
7.76592e-07
5.65677e-07
5.00626e-07
4.85648e-07
4.72989e-07
1.78271e-35
4.46419e-26
7.65599e-21
1.36723e-17
2.28077e-15
8.97413e-14
1.3688e-12
1.09197e-11
5.50616e-11
1.98518e-10
5.5471e-10
1.27787e-09
2.5178e-09
4.38637e-09
6.94082e-09
1.01878e-08
1.40792e-08
1.84881e-08
2.31652e-08
2.77864e-08
3.20484e-08
3.57121e-08
3.85902e-08
4.05127e-08
4.13661e-08
4.11533e-08
4.00265e-08
3.83107e-08
3.65382e-08
3.55054e-08
3.63425e-08
4.05721e-08
5.00547e-08
6.67282e-08
9.16862e-08
1.26993e-07
1.7502e-07
2.23283e-07
2.24607e-07
5.2621e-07
4.9744e-07
4.49347e-07
7.02306e-07
2.60527e-06
2.71682e-06
7.0871e-07
5.46686e-07
5.00565e-07
4.8445e-07
4.74185e-07
7.94067e-36
3.75641e-25
3.96144e-20
5.17845e-17
6.93773e-15
2.32917e-13
3.16441e-12
2.31853e-11
1.09666e-10
3.76116e-10
1.00769e-09
2.24217e-09
4.28046e-09
7.24376e-09
1.11682e-08
1.60435e-08
2.18177e-08
2.83351e-08
3.52326e-08
4.20546e-08
4.84026e-08
5.39825e-08
5.85572e-08
6.18472e-08
6.36251e-08
6.38125e-08
6.24653e-08
5.97542e-08
5.6001e-08
5.17694e-08
4.79781e-08
4.60327e-08
4.79088e-08
5.59708e-08
7.25141e-08
1.00967e-07
1.4635e-07
2.07155e-07
2.66482e-07
2.81225e-07
3.76038e-07
4.24931e-07
4.33506e-07
8.10646e-07
2.89476e-06
2.48431e-06
2.2044e-06
6.12441e-07
5.60671e-07
5.15181e-07
1.60582e-34
2.82999e-24
1.84515e-19
1.7781e-16
1.92816e-14
5.56929e-13
6.79423e-12
4.60452e-11
2.05455e-10
6.73027e-10
1.73263e-09
3.72908e-09
6.89961e-09
1.13338e-08
1.69974e-08
2.38471e-08
3.1854e-08
4.08508e-08
5.0326e-08
5.97025e-08
6.85063e-08
7.64048e-08
8.31262e-08
8.82089e-08
9.12951e-08
9.23305e-08
9.1402e-08
8.85951e-08
8.40283e-08
7.79819e-08
7.10459e-08
6.43019e-08
5.95308e-08
5.92326e-08
6.70169e-08
8.57223e-08
1.18987e-07
1.67279e-07
2.23479e-07
2.727e-07
5.37511e-07
6.53505e-07
6.01942e-07
5.18555e-07
5.19053e-07
1.48188e-05
2.08966e-05
1.43987e-05
8.76083e-07
5.20156e-07
3.0306e-33
1.90858e-23
7.75622e-19
5.55664e-16
4.92151e-14
1.23436e-12
1.36382e-11
8.6105e-11
3.64384e-10
1.14421e-09
2.83507e-09
5.90881e-09
1.05973e-08
1.68915e-08
2.46109e-08
3.36646e-08
4.40991e-08
5.57631e-08
6.79523e-08
8.00592e-08
9.15737e-08
1.02134e-07
1.11496e-07
1.18739e-07
1.23294e-07
1.25327e-07
1.25183e-07
1.22923e-07
1.18453e-07
1.11767e-07
1.03111e-07
9.31591e-08
8.32475e-08
7.55814e-08
7.37191e-08
8.1407e-08
1.03123e-07
1.39403e-07
1.76678e-07
2.38038e-07
5.08401e-07
8.35096e-07
5.8613e-07
5.11636e-07
8.26393e-06
2.09022e-05
2.08968e-05
2.08959e-05
1.16679e-05
5.43586e-07
5.07027e-32
1.15427e-22
2.95191e-18
1.58756e-15
1.16015e-13
2.55177e-12
2.57562e-11
1.52506e-10
6.14914e-10
1.85608e-09
4.43098e-09
8.94853e-09
1.55577e-08
2.40686e-08
3.40572e-08
4.53763e-08
5.82256e-08
7.24884e-08
8.72063e-08
1.01982e-07
1.16287e-07
1.29831e-07
1.42792e-07
1.52636e-07
1.58612e-07
1.61463e-07
1.62244e-07
1.61019e-07
1.57332e-07
1.50878e-07
1.41645e-07
1.29965e-07
1.16657e-07
1.03231e-07
9.25634e-08
8.85254e-08
9.71065e-08
1.22015e-07
1.5089e-07
2.04885e-07
4.0498e-07
8.38134e-07
5.76043e-07
5.11623e-07
4.69729e-06
2.09041e-05
2.09015e-05
2.08964e-05
1.29406e-05
5.54948e-07