/*--------------------------------*- C++ -*----------------------------------*\
| =========                 |                                                 |
| \\      /  F ield         | OpenFOAM: The Open Source CFD Toolbox           |
|  \\    /   O peration     | Version:  2.4.0                                 |
|   \\  /    A nd           | Web:      www.OpenFOAM.org                      |
|    \\/     M anipulation  |                                                 |
\*---------------------------------------------------------------------------*/
FoamFile
{
    version     2.0;
    format      ascii;
    class       volScalarField;
    location    "0.226";
    object      p_rgh;
}
// * * * * * * * * * * * * * * * * * * * * * * * * * * * * * * * * * * * * * //

dimensions      [1 -1 -2 0 0 0 0];

internalField   nonuniform List<scalar> 
10000
(
0.0201144
0.0201145
0.0201191
0.0201271
0.0201377
0.0201501
0.0201643
0.0201804
0.0201983
0.020218
0.0202396
0.0202632
0.020289
0.0203172
0.0203482
0.0203826
0.0204204
0.0204621
0.020508
0.0205585
0.0206139
0.0206743
0.02074
0.0208112
0.0208878
0.0209699
0.0210574
0.0211502
0.0212483
0.0213515
0.0214595
0.0215722
0.0216893
0.0218105
0.0219356
0.0220644
0.0221969
0.0223327
0.0224717
0.0226136
0.0227581
0.0229049
0.0230537
0.0232044
0.0233565
0.02351
0.0236646
0.0238201
0.0239763
0.024133
0.0201124
0.0201124
0.0201169
0.0201241
0.0201339
0.020146
0.02016
0.020176
0.0201937
0.0202134
0.0202351
0.0202589
0.020285
0.0203137
0.0203454
0.0203801
0.0204184
0.0204606
0.0205069
0.0205577
0.0206134
0.020674
0.0207398
0.0208109
0.0208874
0.0209692
0.0210565
0.021149
0.0212467
0.0213494
0.0214571
0.0215694
0.0216862
0.0218072
0.0219322
0.0220611
0.0221937
0.0223297
0.022469
0.0226113
0.0227562
0.0229036
0.0230531
0.0232045
0.0233575
0.0235118
0.0236673
0.0238237
0.0239807
0.0241381
0.0201061
0.0201066
0.0201112
0.0201183
0.0201277
0.0201392
0.0201528
0.0201683
0.0201858
0.0202053
0.0202269
0.0202507
0.0202769
0.0203058
0.0203377
0.0203728
0.0204114
0.0204539
0.0205005
0.0205515
0.0206073
0.020668
0.0207339
0.0208049
0.0208812
0.0209629
0.0210498
0.021142
0.0212393
0.0213417
0.021449
0.021561
0.0216775
0.0217983
0.0219232
0.0220521
0.0221847
0.022321
0.0224606
0.0226033
0.0227488
0.0228968
0.023047
0.0231992
0.0233531
0.0235085
0.0236649
0.0238224
0.0239804
0.0241388
0.0200951
0.0200966
0.0201014
0.0201083
0.0201175
0.0201287
0.0201419
0.020157
0.0201742
0.0201934
0.0202148
0.0202384
0.0202646
0.0202935
0.0203253
0.0203604
0.020399
0.0204415
0.0204881
0.0205391
0.0205949
0.0206555
0.0207212
0.0207921
0.0208683
0.0209497
0.0210364
0.0211282
0.0212252
0.0213273
0.0214343
0.0215461
0.0216623
0.0217829
0.0219077
0.0220364
0.0221691
0.0223055
0.0224455
0.0225886
0.0227346
0.0228833
0.0230343
0.0231874
0.0233422
0.0234985
0.0236561
0.0238146
0.0239738
0.0241333
0.0200802
0.0200826
0.0200876
0.0200946
0.0201035
0.0201144
0.0201272
0.020142
0.0201588
0.0201777
0.0201987
0.0202221
0.0202479
0.0202765
0.0203081
0.0203429
0.0203813
0.0204235
0.0204699
0.0205207
0.0205762
0.0206366
0.0207021
0.0207728
0.0208487
0.0209299
0.0210162
0.0211078
0.0212045
0.0213063
0.021413
0.0215246
0.0216406
0.021761
0.0218854
0.0220141
0.0221467
0.0222833
0.0224235
0.0225671
0.0227137
0.0228631
0.0230149
0.0231689
0.0233247
0.0234822
0.023641
0.0238007
0.0239611
0.0241219
0.0200619
0.020065
0.0200702
0.0200772
0.0200859
0.0200965
0.020109
0.0201234
0.0201398
0.0201582
0.0201788
0.0202016
0.020227
0.0202551
0.0202862
0.0203204
0.0203583
0.0204
0.0204459
0.0204962
0.0205513
0.0206114
0.0206766
0.0207469
0.0208225
0.0209034
0.0209894
0.0210806
0.021177
0.0212784
0.021385
0.0214965
0.0216124
0.0217324
0.0218565
0.0219848
0.0221174
0.0222541
0.0223947
0.0225387
0.022686
0.0228361
0.0229889
0.0231439
0.0233008
0.0234595
0.0236196
0.0237807
0.0239426
0.0241049
0.0200404
0.0200438
0.0200493
0.0200562
0.0200648
0.0200752
0.0200872
0.0201012
0.020117
0.0201349
0.0201549
0.0201772
0.0202019
0.0202292
0.0202595
0.020293
0.0203301
0.020371
0.0204161
0.0204658
0.0205202
0.0205798
0.0206445
0.0207144
0.0207896
0.0208701
0.0209557
0.0210466
0.0211426
0.0212438
0.0213503
0.0214618
0.0215778
0.0216973
0.0218207
0.0219486
0.0220811
0.0222179
0.0223588
0.0225035
0.0226515
0.0228025
0.0229562
0.0231124
0.0232706
0.0234307
0.0235922
0.0237549
0.0239185
0.0240826
0.0200157
0.0200195
0.0200251
0.020032
0.0200404
0.0200504
0.0200621
0.0200755
0.0200908
0.020108
0.0201273
0.0201487
0.0201726
0.020199
0.0202282
0.0202607
0.0202966
0.0203364
0.0203805
0.0204292
0.0204828
0.0205416
0.0206057
0.0206752
0.0207499
0.02083
0.0209152
0.0210057
0.0211012
0.021202
0.0213085
0.0214206
0.0215369
0.0216558
0.0217781
0.0219053
0.0220375
0.0221746
0.022316
0.0224614
0.0226103
0.0227624
0.0229173
0.0230748
0.0232345
0.0233961
0.0235594
0.0237241
0.0238897
0.0240559
0.019988
0.0199921
0.0199978
0.0200046
0.0200127
0.0200223
0.0200336
0.0200465
0.0200611
0.0200776
0.020096
0.0201165
0.0201392
0.0201644
0.0201924
0.0202234
0.0202579
0.0202962
0.0203389
0.0203863
0.0204389
0.0204968
0.0205602
0.0206291
0.0207035
0.0207831
0.0208679
0.0209578
0.0210525
0.0211527
0.0212593
0.0213729
0.0214904
0.0216082
0.0217284
0.0218545
0.0219866
0.0221242
0.0222665
0.022413
0.0225631
0.0227165
0.0228728
0.0230319
0.0231934
0.0233569
0.0235224
0.0236893
0.0238574
0.0240263
0.0199577
0.0199619
0.0199675
0.0199741
0.019982
0.0199912
0.0200019
0.0200142
0.0200281
0.0200437
0.0200611
0.0200805
0.020102
0.0201258
0.0201522
0.0201814
0.020214
0.0202504
0.0202912
0.020337
0.0203883
0.0204452
0.0205078
0.0205762
0.0206502
0.0207294
0.0208137
0.0209028
0.0209964
0.0210952
0.0212021
0.0213189
0.0214393
0.0215551
0.0216711
0.0217957
0.0219282
0.022067
0.0222109
0.022359
0.0225108
0.0226659
0.0228242
0.0229852
0.0231489
0.0233149
0.0234829
0.0236527
0.0238238
0.0239958
0.0199247
0.019929
0.0199344
0.0199408
0.0199483
0.019957
0.0199672
0.0199788
0.0199919
0.0200066
0.0200229
0.0200411
0.0200611
0.0200832
0.0201076
0.0201347
0.0201649
0.0201988
0.0202372
0.0202811
0.0203308
0.0203865
0.0204483
0.0205162
0.0205899
0.0206687
0.0207527
0.0208414
0.0209329
0.0210291
0.0211375
0.0212616
0.0213885
0.0214997
0.0216068
0.0217286
0.021862
0.0220032
0.0221499
0.0223007
0.0224551
0.0226126
0.0227732
0.0229368
0.0231033
0.0232722
0.0234435
0.0236167
0.0237914
0.0239672
0.0198893
0.0198935
0.0198987
0.0199047
0.0199117
0.01992
0.0199295
0.0199404
0.0199526
0.0199663
0.0199816
0.0199983
0.0200168
0.020037
0.0200591
0.0200836
0.0201107
0.0201414
0.0201767
0.0202179
0.0202658
0.0203201
0.0203811
0.0204489
0.0205227
0.0206017
0.0206859
0.020775
0.0208645
0.0209542
0.0210641
0.0212089
0.0213527
0.0214504
0.0215341
0.0216505
0.0217874
0.0219338
0.022085
0.0222399
0.0223978
0.0225587
0.0227225
0.0228894
0.0230592
0.0232319
0.0234071
0.0235844
0.0237635
0.0239439
0.0198517
0.0198556
0.0198604
0.019866
0.0198725
0.0198802
0.019889
0.0198992
0.0199106
0.0199233
0.0199373
0.0199527
0.0199694
0.0199875
0.020007
0.0200283
0.0200517
0.0200779
0.0201089
0.0201469
0.0201927
0.0202453
0.0203059
0.0203743
0.0204494
0.0205294
0.020615
0.0207039
0.0207952
0.0208873
0.0210038
0.0211649
0.0213748
0.0214214
0.0214441
0.0215595
0.021708
0.0218628
0.0220199
0.0221795
0.0223417
0.0225067
0.0226746
0.0228456
0.0230196
0.0231968
0.0233767
0.0235591
0.0237434
0.0239292
0.0198118
0.0198153
0.0198196
0.0198247
0.0198307
0.0198377
0.0198459
0.0198552
0.0198658
0.0198775
0.0198905
0.0199044
0.0199194
0.0199353
0.0199519
0.0199694
0.0199881
0.0200082
0.0200329
0.020067
0.0201113
0.020162
0.0202222
0.0202924
0.0203706
0.020453
0.0205403
0.02063
0.0207182
0.0208018
0.0208691
0.021378
0.0220133
0.0217108
0.021477
0.0215169
0.0216505
0.0218021
0.0219614
0.0221246
0.0222907
0.0224596
0.022632
0.0228079
0.0229871
0.0231697
0.0233554
0.0235437
0.0237342
0.0239263
0.0197699
0.0197729
0.0197765
0.019781
0.0197863
0.0197927
0.0198002
0.0198088
0.0198186
0.0198294
0.0198413
0.019854
0.0198674
0.019881
0.0198946
0.0199077
0.0199203
0.0199322
0.019949
0.0199783
0.0200218
0.0200694
0.0201297
0.0202033
0.0202868
0.0203743
0.0204657
0.0205645
0.0206696
0.0207647
0.0209672
0.0243753
0.026357
0.0251831
0.0216613
0.0215258
0.0216187
0.021755
0.0219123
0.0220782
0.0222475
0.0224201
0.0225968
0.022778
0.0229634
0.0231526
0.0233451
0.0235405
0.0237383
0.0239377
0.0197259
0.0197282
0.0197311
0.0197348
0.0197395
0.0197452
0.019752
0.0197599
0.019769
0.0197791
0.0197901
0.0198019
0.0198139
0.0198255
0.019836
0.0198449
0.019851
0.0198513
0.0198588
0.0198836
0.0199243
0.0199668
0.0200283
0.0201087
0.020205
0.0202941
0.0203886
0.0204927
0.0206222
0.0207872
0.0218487
0.0261073
0.026413
0.026312
0.0229807
0.0215309
0.0215715
0.0217038
0.0218664
0.0220378
0.0222116
0.0223884
0.0225699
0.0227567
0.0229489
0.0231458
0.0233465
0.0235502
0.0237564
0.0239642
0.0196799
0.0196813
0.0196834
0.0196863
0.0196902
0.0196952
0.0197014
0.0197087
0.0197172
0.0197268
0.0197373
0.0197484
0.0197596
0.0197697
0.019778
0.0197838
0.0197841
0.0197731
0.0197566
0.0197944
0.0198269
0.0198521
0.0199148
0.0200233
0.0201287
0.020206
0.0202982
0.0204019
0.0205125
0.0206275
0.0207039
0.0239312
0.0256516
0.0248355
0.0213959
0.0214062
0.0214636
0.0216338
0.0218169
0.0220004
0.0221815
0.0223636
0.0225504
0.0227431
0.0229425
0.023148
0.0233582
0.0235717
0.0237876
0.0240048
0.0196318
0.0196322
0.0196333
0.0196354
0.0196386
0.0196429
0.0196484
0.0196552
0.0196632
0.0196724
0.0196828
0.0196939
0.019705
0.0197154
0.0197237
0.0197289
0.019722
0.019705
0.0197758
0.0196612
0.0197885
0.0196991
0.0199209
0.0199353
0.0200824
0.0203901
0.0202049
0.0203141
0.0204131
0.0205099
0.0205943
0.0209141
0.0212358
0.0212467
0.0210808
0.0211963
0.0213748
0.0215749
0.0217759
0.0219709
0.0221586
0.0223448
0.022536
0.0227346
0.0229414
0.0231559
0.0233767
0.0236015
0.0238286
0.0240568
0.0195815
0.0195808
0.019581
0.0195822
0.0195846
0.0195882
0.0195931
0.0195993
0.0196069
0.019616
0.0196266
0.0196383
0.0196509
0.0196642
0.019677
0.0196859
0.0196837
0.0196455
0.0195131
0.0195569
0.0219654
0.01974
0.0196533
0.0198762
0.0199976
0.0201158
0.0205522
0.0202427
0.0203288
0.0204208
0.0205315
0.0206571
0.0208252
0.0209048
0.0209785
0.0211889
0.0213309
0.021531
0.0217453
0.0219517
0.0221425
0.0223282
0.0225219
0.0227258
0.0229403
0.0231645
0.0233968
0.0236345
0.0238748
0.0241158
0.0195288
0.0195271
0.0195262
0.0195266
0.0195282
0.0195311
0.0195353
0.019541
0.0195482
0.0195573
0.0195682
0.0195811
0.019597
0.0196168
0.0196406
0.0196681
0.0196937
0.0197092
0.0198005
0.0233357
0.0237103
0.023711
0.0199264
0.0199121
0.0199703
0.0200591
0.0201295
0.0201799
0.0202451
0.0203359
0.0204436
0.0205852
0.0207191
0.0208369
0.0209331
0.0211224
0.021222
0.0214658
0.0217198
0.0219467
0.0221321
0.0223058
0.0224993
0.0227089
0.0229319
0.0231673
0.0234126
0.0236649
0.0239207
0.0241769
0.0194737
0.019471
0.0194691
0.0194687
0.0194695
0.0194715
0.019475
0.01948
0.0194867
0.0194955
0.0195066
0.0195211
0.0195408
0.019568
0.0196047
0.0196523
0.0197133
0.0197736
0.019731
0.0213226
0.0229566
0.0218233
0.0198901
0.0199442
0.0199668
0.0199992
0.0200492
0.0201041
0.0201637
0.0202515
0.0203471
0.0204549
0.0205839
0.0206788
0.0207774
0.0208709
0.021054
0.0213694
0.0217189
0.0219794
0.0221466
0.0222706
0.0224626
0.0226761
0.0229086
0.0231574
0.0234185
0.0236878
0.0239616
0.0242364
0.0194162
0.0194125
0.0194097
0.0194083
0.0194083
0.0194095
0.019412
0.0194162
0.0194222
0.0194303
0.0194412
0.0194566
0.0194794
0.0195135
0.0195641
0.0196388
0.0197526
0.0199473
0.0204169
0.0207625
0.0198657
0.0209097
0.0202773
0.0200483
0.0199751
0.0199539
0.019977
0.0200217
0.0200738
0.020192
0.0202679
0.020353
0.0204479
0.0205412
0.0206354
0.0207544
0.0209042
0.0213741
0.0225715
0.0227358
0.0222894
0.0223171
0.0224184
0.0226212
0.0228643
0.0231302
0.0234106
0.0237005
0.0239954
0.0242922
0.0193561
0.0193516
0.0193479
0.0193457
0.0193447
0.019345
0.0193465
0.0193496
0.0193545
0.0193613
0.019371
0.0193856
0.0194078
0.0194411
0.0194899
0.019561
0.0196614
0.0198697
0.0204322
0.0213423
0.0213372
0.0212437
0.0202755
0.0199664
0.019885
0.0198649
0.0198853
0.0199233
0.0199708
0.0200581
0.0201412
0.0202812
0.0203551
0.020414
0.0205134
0.0205926
0.0215305
0.0254364
0.0249231
0.0246199
0.0240145
0.0223692
0.0223673
0.0225344
0.0227943
0.0230831
0.0233882
0.0237032
0.0240228
0.0243443
0.0192937
0.0192883
0.0192838
0.0192807
0.0192789
0.0192781
0.0192786
0.0192805
0.0192838
0.0192889
0.0192966
0.0193087
0.0193272
0.0193533
0.0193875
0.0194297
0.0194896
0.0196531
0.0199703
0.0217439
0.0221038
0.0203956
0.0195187
0.0198346
0.0197058
0.019733
0.0197729
0.0198155
0.019862
0.0198933
0.0213086
0.0202311
0.0202621
0.0203026
0.0203924
0.0204664
0.0210165
0.0247311
0.0249745
0.0246733
0.0250392
0.022245
0.0221183
0.0223774
0.0226835
0.0230111
0.023351
0.0236981
0.0240471
0.0243954
0.0192288
0.0192229
0.0192175
0.0192137
0.0192109
0.0192092
0.0192085
0.0192091
0.0192108
0.0192139
0.0192193
0.0192284
0.0192423
0.019261
0.019284
0.0193152
0.0193729
0.0195316
0.0234749
0.0251807
0.025473
0.0251337
0.0205205
0.0195595
0.0195858
0.0196154
0.0196507
0.0196974
0.0197665
0.0198335
0.0199731
0.0201772
0.0201719
0.0201523
0.02027
0.0204854
0.0206815
0.0213811
0.0219484
0.0240001
0.025087
0.0235311
0.0218149
0.0221806
0.0225469
0.0229228
0.0233055
0.0236914
0.0240729
0.0244497
0.0191618
0.0191552
0.0191493
0.0191446
0.019141
0.0191383
0.0191366
0.0191359
0.0191361
0.0191374
0.0191404
0.0191461
0.0191549
0.0191653
0.0191761
0.0191926
0.0192557
0.0194353
0.02553
0.0254755
0.0255157
0.0256697
0.0227003
0.0193786
0.0194464
0.0194776
0.0195058
0.0198122
0.0196774
0.0197015
0.0198339
0.0202632
0.0217861
0.019977
0.0200944
0.0202146
0.0204873
0.0208363
0.0210622
0.0212904
0.021301
0.0214245
0.0228723
0.0220104
0.0224227
0.0228376
0.0232644
0.0236918
0.0241057
0.0245106
0.0190926
0.0190857
0.0190791
0.0190738
0.0190694
0.0190659
0.0190632
0.0190614
0.0190604
0.0190602
0.0190613
0.0190645
0.0190695
0.019075
0.0190818
0.0190989
0.0191768
0.0196171
0.02531
0.0253646
0.0253638
0.02515
0.0222166
0.0193341
0.0193437
0.0193491
0.0193761
0.0194315
0.0194697
0.0195027
0.0195887
0.0196475
0.0196609
0.0198492
0.0199134
0.0200743
0.0202612
0.0204928
0.0206941
0.0209161
0.0210862
0.0212026
0.0213667
0.0218634
0.0223004
0.0227421
0.0232268
0.0237046
0.0241492
0.0245802
0.0190216
0.0190142
0.0190071
0.0190013
0.0189963
0.0189921
0.0189887
0.0189861
0.0189842
0.018983
0.0189829
0.0189844
0.0189873
0.01899
0.0189908
0.0189973
0.0190234
0.0190391
0.0209873
0.0252332
0.0254167
0.0230082
0.01945
0.0192478
0.0192188
0.0191986
0.0192098
0.0192384
0.0192818
0.019313
0.0193442
0.0193856
0.0194437
0.0195416
0.019666
0.0198145
0.0199832
0.0201961
0.0204031
0.0206336
0.0208687
0.0210841
0.0215383
0.0218178
0.0220857
0.0226361
0.0232064
0.0237317
0.0242002
0.0246564
0.0189487
0.018941
0.0189336
0.0189273
0.0189218
0.0189171
0.0189132
0.0189102
0.0189079
0.0189062
0.0189056
0.0189065
0.018909
0.0189123
0.0189163
0.0189215
0.0189244
0.018934
0.0189008
0.0192439
0.0190751
0.0191743
0.0190002
0.0190732
0.0190476
0.0190254
0.019034
0.0190522
0.0190912
0.0191114
0.0191378
0.0191428
0.0192219
0.0192853
0.0194015
0.019972
0.0196715
0.0198648
0.0200722
0.0203282
0.0206094
0.0209287
0.0216044
0.0231376
0.0241119
0.0240843
0.0232364
0.0238163
0.0242554
0.0247288
0.0188741
0.0188662
0.0188586
0.018852
0.0188463
0.0188413
0.0188371
0.018834
0.0188316
0.0188299
0.0188293
0.0188302
0.0188326
0.0188362
0.0188414
0.018844
0.0188358
0.0192085
0.0190185
0.0189889
0.0189637
0.0189612
0.0189656
0.0189275
0.0188901
0.0188848
0.0188438
0.0188668
0.0189166
0.0188993
0.0189207
0.0188849
0.0189245
0.0190021
0.0191134
0.019217
0.0193425
0.019519
0.0198521
0.019998
0.0203055
0.0206965
0.0211182
0.0216064
0.0221395
0.0232867
0.024484
0.0247318
0.0242408
0.0247944
0.0187978
0.0187899
0.0187822
0.0187755
0.0187696
0.0187646
0.0187605
0.0187574
0.0187553
0.0187541
0.018754
0.0187554
0.0187586
0.0187632
0.0187685
0.0187718
0.0187716
0.0187587
0.0189937
0.0188797
0.018878
0.0188691
0.0188487
0.018803
0.0187552
0.0186935
0.0189496
0.0186783
0.0190253
0.0190344
0.0191922
0.0186457
0.018662
0.0187292
0.0188087
0.0188713
0.0189825
0.0191428
0.0193362
0.0196501
0.0199482
0.0203633
0.0208478
0.0214031
0.0220759
0.0228329
0.0232868
0.0247011
0.0256253
0.0249499
0.0187199
0.0187121
0.0187044
0.0186978
0.0186921
0.0186872
0.0186833
0.0186806
0.0186791
0.0186786
0.0186794
0.0186817
0.018686
0.0186919
0.0186988
0.0187066
0.0187183
0.0187379
0.0187891
0.0187825
0.0187722
0.0187517
0.0191766
0.0186941
0.0186184
0.0185434
0.0184473
0.0206555
0.0261443
0.0263004
0.0260295
0.0228351
0.0188632
0.0185142
0.0184985
0.0185004
0.0185861
0.0187254
0.0189647
0.0192996
0.0195595
0.0199834
0.0204903
0.0210959
0.0218214
0.0226078
0.0233551
0.0241007
0.0249717
0.0259047
0.0186404
0.0186329
0.0186254
0.0186191
0.0186136
0.0186091
0.0186057
0.0186036
0.0186028
0.0186034
0.0186053
0.0186089
0.0186145
0.0186221
0.018631
0.0186404
0.0186511
0.018665
0.0186898
0.0186936
0.0186728
0.0186453
0.018607
0.0185582
0.0185166
0.018491
0.0192551
0.0258858
0.0259144
0.0258882
0.0257042
0.0253414
0.0215158
0.0181856
0.0181461
0.0181013
0.0181469
0.0182659
0.0184686
0.0198119
0.0190787
0.0195425
0.0200629
0.0207063
0.0215054
0.0224084
0.0232803
0.0240736
0.0247097
0.0253994
0.0185593
0.0185522
0.0185452
0.0185392
0.0185343
0.0185303
0.0185275
0.0185262
0.0185264
0.0185283
0.0185316
0.0185366
0.0185438
0.0185531
0.0185638
0.0185747
0.0185815
0.0185782
0.0191926
0.0186482
0.0185681
0.0185398
0.0185043
0.0184463
0.0184635
0.0183534
0.0196474
0.0259793
0.0257679
0.025665
0.0255359
0.0254698
0.0225853
0.0176087
0.0177139
0.0176585
0.0176549
0.0177118
0.0179148
0.0184687
0.0185834
0.0190188
0.0195245
0.0201943
0.0211199
0.0222086
0.0232421
0.0241144
0.024754
0.0251723
0.0184766
0.01847
0.0184636
0.0184583
0.018454
0.0184507
0.0184488
0.0184485
0.0184499
0.0184531
0.0184581
0.0184647
0.0184733
0.018484
0.0184963
0.0185085
0.0185175
0.0185274
0.0185433
0.018538
0.018502
0.0185573
0.0184049
0.0183456
0.0182955
0.0182509
0.0196275
0.0257405
0.0255462
0.0254296
0.0252555
0.0251692
0.0235937
0.0172643
0.0173272
0.0171832
0.0174123
0.0170377
0.0173245
0.0177863
0.0179984
0.018389
0.0188312
0.0194828
0.020599
0.0220029
0.0232749
0.024255
0.0248654
0.0251894
0.0183921
0.0183862
0.0183806
0.0183761
0.0183727
0.0183704
0.0183695
0.0183703
0.018373
0.0183779
0.0183846
0.018393
0.018403
0.0184148
0.0184278
0.018441
0.0184533
0.0184638
0.018474
0.0190655
0.0184065
0.0183794
0.0183378
0.0182228
0.0181354
0.0180338
0.0182559
0.0246561
0.0252634
0.0251758
0.024927
0.024122
0.0192093
0.0169155
0.0168751
0.0167191
0.0164669
0.0161631
0.0165675
0.0171386
0.0173541
0.0177618
0.0178043
0.0183833
0.0197881
0.0217996
0.0234412
0.0245406
0.0250239
0.0250931
0.0183058
0.0183009
0.0182962
0.0182927
0.0182903
0.018289
0.0182893
0.0182914
0.0182957
0.0183023
0.0183111
0.0183215
0.0183332
0.018346
0.0183593
0.0183719
0.0183824
0.018388
0.0183832
0.0183506
0.0183227
0.0182846
0.018208
0.0181255
0.0180341
0.0179021
0.0176967
0.0187521
0.0228821
0.0236886
0.0233584
0.0193444
0.0170018
0.0166028
0.016443
0.0163741
0.0158812
0.0147448
0.0164635
0.0198554
0.0178659
0.0173637
0.0193645
0.0202844
0.0194249
0.0218556
0.0239404
0.0250959
0.0252747
0.0249
0.0182177
0.0182138
0.0182103
0.0182079
0.0182066
0.0182066
0.0182082
0.0182118
0.0182178
0.0182262
0.0182371
0.01825
0.018264
0.0182784
0.0182922
0.0183043
0.0183139
0.0183149
0.0183025
0.0183687
0.0182455
0.0182004
0.0181346
0.0180556
0.0179631
0.0178612
0.0177746
0.0178315
0.0177657
0.0173039
0.0171905
0.0167766
0.0164738
0.0161304
0.0159139
0.0153389
0.0160973
0.0202684
0.0289584
0.0260401
0.026077
0.0265094
0.0278914
0.0304293
0.0284017
0.0230271
0.0250738
0.026161
0.0257554
0.0246006
0.0181276
0.0181249
0.0181226
0.0181214
0.0181214
0.0181228
0.0181259
0.0181311
0.0181389
0.0181494
0.0181626
0.018178
0.0181948
0.0182116
0.0182272
0.01824
0.0182487
0.0182499
0.018245
0.0182211
0.0181879
0.0181423
0.0180845
0.0180103
0.0179119
0.0178064
0.0177384
0.0177061
0.0174565
0.0172106
0.0168454
0.0164117
0.0159621
0.0155889
0.0154213
0.0144382
0.0141246
0.0131024
0.0270504
0.0254515
0.0231969
0.0233307
0.0250907
0.0271211
0.0305106
0.0221351
0.0266431
0.0281374
0.0268371
0.0248633
0.0180354
0.0180339
0.018033
0.0180332
0.0180346
0.0180374
0.0180421
0.0180491
0.0180588
0.0180715
0.0180872
0.0181056
0.0181256
0.0181457
0.0181642
0.0181794
0.0181897
0.0181935
0.0181884
0.0181709
0.0181445
0.0181015
0.018047
0.0179871
0.017887
0.0177594
0.0176202
0.0177649
0.0180974
0.0168284
0.0165515
0.0160336
0.0154814
0.0148064
0.0156041
0.0150582
0.0136588
0.0127904
0.0125784
0.0146314
0.0167672
0.0187831
0.0232253
0.0250711
0.0226947
0.035425
0.0286857
0.0318355
0.0284581
0.0261552
0.0179409
0.0179407
0.0179413
0.0179429
0.0179457
0.0179501
0.0179565
0.0179654
0.0179772
0.0179923
0.0180108
0.0180324
0.0180561
0.0180803
0.018103
0.0181224
0.0181367
0.0181447
0.0181445
0.0181351
0.0181142
0.0180758
0.0180211
0.0182815
0.0179081
0.0177516
0.0175534
0.0175718
0.0171264
0.0167218
0.0163584
0.0157517
0.0149839
0.0149421
0.0195778
0.0144984
0.0140835
0.0137731
0.0158096
0.0222036
0.0212078
0.0217548
0.0224123
0.0219934
0.0195083
0.0333161
0.0347636
0.0366925
0.02864
0.0243247
0.0178438
0.0178451
0.0178471
0.0178502
0.0178545
0.0178606
0.0178687
0.0178796
0.0178937
0.0179115
0.0179331
0.0179583
0.0179862
0.0180153
0.0180436
0.0180689
0.0180896
0.0181042
0.0181114
0.01811
0.0180989
0.0180754
0.0180364
0.0179729
0.0179035
0.0177728
0.0175877
0.0174851
0.0171093
0.0167432
0.0163003
0.0156484
0.0148326
0.016171
0.0190595
0.0166659
0.0143164
0.0123836
0.0109448
0.0131171
0.0126763
0.0160285
0.020872
0.0184481
0.0118793
0.0185458
0.0461981
0.048471
0.0307183
0.026027
0.0177441
0.0177467
0.0177503
0.0177548
0.0177607
0.0177684
0.0177784
0.0177913
0.0178078
0.0178285
0.0178535
0.0178828
0.0179156
0.0179505
0.0179855
0.0180185
0.0180476
0.0180715
0.0180888
0.0180984
0.0180988
0.0180875
0.0180598
0.0180144
0.0179438
0.0178297
0.0176649
0.0175097
0.0171965
0.0168653
0.0164173
0.015799
0.0149993
0.0147905
0.0179211
0.0158973
0.0134692
0.00884041
0.017258
0.0251574
0.0241017
0.0150731
0.0250989
0.0183602
-0.00370665
0.0220103
0.0995791
0.0901749
0.0665831
0.0573296
0.0176412
0.0176453
0.0176504
0.0176564
0.0176638
0.0176731
0.017685
0.0177
0.0177191
0.0177428
0.0177717
0.0178055
0.0178437
0.0178851
0.017928
0.0179702
0.0180097
0.0180448
0.0180741
0.0180965
0.0181104
0.0181134
0.018102
0.0180727
0.0180154
0.0179234
0.0177984
0.017643
0.017377
0.0170805
0.0166813
0.0161399
0.0154411
0.0145648
0.0143527
0.0124586
0.0119675
0.00902778
0.0260343
0.0176976
0.0139912
0.00689559
0.0370637
0.0227367
-0.0219088
0.0177142
0.3113
0.509288
2.13253
1.69489
0.0175349
0.0175404
0.017547
0.0175545
0.0175634
0.0175743
0.017588
0.0176052
0.017627
0.017654
0.0176869
0.0177257
0.01777
0.0178186
0.0178701
0.0179225
0.0179737
0.0180216
0.0180644
0.0181008
0.0181292
0.0181476
0.0181527
0.0181415
0.0181085
0.0180452
0.0179527
0.017821
0.0176162
0.0173836
0.0170489
0.0166001
0.0160288
0.0153733
0.0146747
0.0133585
0.012987
0.0104297
0.00918082
0.00563378
0.00634895
0.0024695
0.000267647
-0.0110943
-0.0533889
-0.431359
4.21698
6.97099
20.2848
32.8159
0.0174249
0.0174317
0.0174398
0.0174486
0.017459
0.0174715
0.0174869
0.0175064
0.0175308
0.0175612
0.0175984
0.0176426
0.0176934
0.01775
0.0178109
0.0178741
0.0179376
0.0179989
0.0180561
0.0181071
0.0181506
0.0181849
0.018208
0.0182176
0.0182129
0.018185
0.0181449
0.0180802
0.0178949
0.0177396
0.0175022
0.017157
0.0167236
0.0161461
0.0153122
0.0138331
0.0126909
0.0134573
0.0129546
0.00192164
0.0112504
0.0209324
0.0421289
0.0247611
0.103604
7.88024
27.2036
38.1762
44.9639
44.0602
0.0173106
0.0173188
0.0173282
0.0173383
0.01735
0.017364
0.0173813
0.0174028
0.01743
0.017464
0.0175056
0.0175554
0.0176131
0.0176781
0.0177488
0.0178232
0.017899
0.0179737
0.018045
0.0181108
0.0181693
0.0182197
0.0182615
0.0182943
0.0183184
0.0183339
0.0183359
0.0183193
0.0182757
0.0181557
0.0180445
0.0178427
0.0178895
0.0171518
0.0163899
0.0153005
0.0138627
0.011174
0.00550277
-0.00508976
0.022702
-0.01998
0.0247896
0.0677447
8.83397
37.5588
47.5666
47.136
45.1881
43.1224
0.0171917
0.017201
0.0172117
0.0172231
0.0172361
0.0172515
0.0172703
0.017294
0.0173239
0.0173614
0.0174075
0.017463
0.0175279
0.0176014
0.017682
0.0177675
0.0178554
0.0179427
0.0180271
0.0181066
0.0181797
0.0182462
0.018307
0.0183644
0.0184206
0.0184769
0.0185311
0.01858
0.0186193
0.0186973
0.0186236
0.018605
0.0187959
0.0182472
0.0178276
0.0168425
0.0146815
0.0112705
0.00309187
-0.0180447
0.189992
-0.0281833
0.193958
9.063
42.4805
48.1043
48.8031
46.3429
44.6365
42.6938
0.0170675
0.017078
0.0170899
0.0171024
0.0171165
0.0171332
0.0171536
0.0171793
0.0172118
0.0172527
0.0173033
0.0173645
0.0174363
0.0175182
0.0176085
0.0177048
0.0178039
0.0179028
0.0179987
0.01809
0.0181764
0.0182587
0.0183391
0.0184214
0.0185103
0.018609
0.0187169
0.018832
0.0189516
0.0190737
0.0192807
0.0193285
0.01952
0.0196154
0.0196656
0.0194657
0.0176503
0.0204773
0.0317968
0.0170696
0.223076
-0.513436
6.10509
29.0497
48.7457
47.3103
46.7802
45.202
43.7929
42.3248
0.0169376
0.0169492
0.0169622
0.0169758
0.0169909
0.0170087
0.0170306
0.017058
0.017093
0.0171371
0.0171919
0.0172585
0.0173371
0.0174269
0.0175263
0.0176323
0.0177415
0.0178505
0.0179562
0.0180573
0.0181542
0.0182498
0.0183494
0.0184583
0.0185804
0.0187191
0.018877
0.0190543
0.0192523
0.019479
0.0197502
0.0202307
0.0206736
0.021204
0.0218146
0.0223154
0.0227064
0.0335146
0.1128
0.132641
0.255217
3.72089
21.6185
41.4862
46.5715
45.7722
45.1785
44.061
42.9921
41.9341
0.0242898
0.0244466
0.0246031
0.024759
0.024914
0.0250679
0.0252203
0.0253709
0.0255194
0.0256656
0.0258089
0.025949
0.0260857
0.0262185
0.0263471
0.0264717
0.0265917
0.0267071
0.0268179
0.026924
0.0270252
0.0271214
0.0272125
0.0272985
0.0273793
0.0274547
0.0275247
0.0275891
0.027648
0.0277015
0.0277499
0.0277936
0.027833
0.0278685
0.0279002
0.0279286
0.0279539
0.0279764
0.0279965
0.0280144
0.0280303
0.0280444
0.028057
0.0280682
0.0280782
0.028087
0.0280946
0.028101
0.028106
0.0281091
0.0242956
0.024453
0.0246099
0.0247661
0.0249212
0.025075
0.0252272
0.0253774
0.0255254
0.0256708
0.0258132
0.0259524
0.0260879
0.0262195
0.026347
0.0264701
0.0265888
0.026703
0.0268125
0.0269173
0.0270172
0.0271121
0.0272021
0.0272872
0.0273672
0.027442
0.0275117
0.0275762
0.0276354
0.0276896
0.027739
0.0277839
0.0278246
0.0278614
0.0278945
0.0279243
0.0279509
0.0279747
0.027996
0.0280148
0.0280316
0.0280466
0.0280598
0.0280718
0.0280823
0.0280916
0.0280995
0.0281061
0.0281113
0.0281145
0.0242972
0.0244554
0.024613
0.0247697
0.0249253
0.0250793
0.0252316
0.0253817
0.0255294
0.0256744
0.0258162
0.0259546
0.0260893
0.02622
0.0263465
0.0264686
0.0265863
0.0266995
0.0268079
0.0269117
0.0270106
0.0271047
0.0271939
0.0272783
0.0273579
0.0274326
0.0275024
0.0275672
0.0276271
0.0276821
0.0277326
0.0277787
0.0278207
0.0278589
0.0278933
0.0279244
0.0279523
0.0279774
0.0279997
0.0280197
0.0280373
0.0280532
0.0280672
0.0280798
0.0280909
0.0281005
0.0281087
0.0281155
0.0281209
0.0281243
0.0242928
0.024452
0.0246105
0.0247681
0.0249244
0.0250791
0.0252318
0.0253823
0.0255302
0.0256751
0.0258169
0.025955
0.0260893
0.0262196
0.0263456
0.0264672
0.0265843
0.0266968
0.0268046
0.0269077
0.0270061
0.0270997
0.0271887
0.027273
0.0273527
0.0274277
0.0274979
0.0275634
0.0276241
0.0276802
0.0277319
0.0277793
0.0278226
0.0278621
0.0278978
0.0279302
0.0279593
0.0279854
0.0280088
0.0280297
0.0280483
0.0280649
0.0280796
0.0280926
0.0281041
0.0281141
0.0281225
0.0281294
0.028135
0.0281386
0.0242827
0.0244431
0.0246029
0.0247617
0.024919
0.0250747
0.0252283
0.0253795
0.025528
0.0256735
0.0258155
0.0259538
0.0260882
0.0262184
0.0263443
0.0264656
0.0265825
0.0266946
0.0268021
0.0269049
0.0270029
0.0270964
0.0271854
0.02727
0.0273502
0.0274259
0.027497
0.0275635
0.0276254
0.0276829
0.027736
0.0277849
0.0278296
0.0278704
0.0279075
0.0279411
0.0279714
0.0279987
0.0280231
0.0280449
0.0280643
0.0280816
0.0280969
0.0281104
0.0281221
0.0281323
0.0281408
0.0281478
0.0281535
0.0281571
0.0242672
0.0244292
0.0245906
0.0247508
0.0249097
0.0250667
0.0252216
0.025374
0.0255235
0.0256698
0.0258126
0.0259515
0.0260864
0.0262169
0.026343
0.0264644
0.0265812
0.0266932
0.0268004
0.026903
0.0270009
0.0270943
0.0271835
0.0272687
0.0273497
0.0274265
0.0274988
0.0275666
0.02763
0.0276891
0.027744
0.0277945
0.0278409
0.0278832
0.0279217
0.0279567
0.0279882
0.0280166
0.0280421
0.0280648
0.028085
0.028103
0.0281189
0.0281328
0.0281448
0.0281551
0.0281637
0.0281708
0.0281765
0.0281801
0.0242468
0.0244107
0.024574
0.0247362
0.0248969
0.0250558
0.0252124
0.0253665
0.0255175
0.0256652
0.0258091
0.0259491
0.0260849
0.0262161
0.0263427
0.0264644
0.0265813
0.0266932
0.0268002
0.0269024
0.027
0.0270934
0.0271828
0.0272686
0.0273507
0.0274287
0.0275025
0.0275717
0.0276369
0.0276981
0.0277549
0.0278075
0.0278557
0.0278998
0.0279398
0.0279762
0.0280091
0.0280388
0.0280654
0.0280891
0.0281103
0.028129
0.0281455
0.0281598
0.028172
0.0281825
0.0281911
0.0281983
0.028204
0.0282076
0.0242224
0.0243886
0.0245543
0.0247188
0.024882
0.0250432
0.0252021
0.0253583
0.0255114
0.025661
0.0258068
0.0259483
0.0260854
0.0262178
0.0263452
0.0264674
0.0265844
0.0266961
0.0268026
0.0269042
0.0270011
0.0270939
0.0271831
0.0272694
0.027353
0.0274323
0.0275076
0.0275783
0.0276455
0.027709
0.0277682
0.027823
0.0278733
0.0279192
0.027961
0.027999
0.0280334
0.0280644
0.0280923
0.0281172
0.0281394
0.028159
0.0281762
0.0281911
0.0282037
0.0282144
0.0282232
0.0282305
0.0282362
0.0282397
0.0241955
0.0243645
0.0245331
0.0247006
0.0248667
0.0250309
0.0251927
0.0253518
0.0255076
0.0256598
0.0258079
0.0259516
0.0260905
0.0262244
0.0263528
0.0264757
0.0265928
0.0267042
0.0268098
0.0269102
0.0270056
0.0270969
0.0271851
0.0272716
0.0273571
0.0274374
0.0275143
0.0275859
0.0276554
0.0277216
0.0277836
0.0278408
0.0278932
0.0279411
0.0279848
0.0280245
0.0280604
0.0280929
0.0281222
0.0281485
0.028172
0.0281927
0.0282108
0.0282264
0.0282396
0.0282506
0.0282597
0.0282672
0.0282731
0.0282764
0.0241683
0.0243408
0.0245128
0.0246839