/*--------------------------------*- C++ -*----------------------------------*\
| =========                 |                                                 |
| \\      /  F ield         | OpenFOAM: The Open Source CFD Toolbox           |
|  \\    /   O peration     | Version:  2.4.0                                 |
|   \\  /    A nd           | Web:      www.OpenFOAM.org                      |
|    \\/     M anipulation  |                                                 |
\*---------------------------------------------------------------------------*/
FoamFile
{
    version     2.0;
    format      ascii;
    class       surfaceScalarField;
    location    "0.066";
    object      phi;
}
// * * * * * * * * * * * * * * * * * * * * * * * * * * * * * * * * * * * * * //

dimensions      [0 3 -1 0 0 0 0];

internalField   nonuniform List<scalar> 
19800
(
-7.12162e-13
7.12162e-13
-1.79274e-12
1.06993e-12
-3.0656e-12
1.25855e-12
-4.387e-12
1.32237e-12
-5.6641e-12
1.28239e-12
-6.84244e-12
1.1807e-12
-7.88928e-12
1.04637e-12
-8.781e-12
8.91142e-13
-9.49663e-12
7.16507e-13
-1.0013e-11
5.18481e-13
-1.03074e-11
2.9665e-13
-1.0353e-11
4.71018e-14
-1.01218e-11
-2.3093e-13
-9.58523e-12
-5.37034e-13
-8.71624e-12
-8.69529e-13
-7.4902e-12
-1.22596e-12
-5.8864e-12
-1.60295e-12
-3.88955e-12
-1.99571e-12
-1.49081e-12
-2.398e-12
1.31092e-12
-2.80183e-12
4.5073e-12
-3.19724e-12
8.07871e-12
-3.57257e-12
1.19924e-11
-3.91468e-12
1.62012e-11
-4.20935e-12
2.06425e-11
-4.44159e-12
2.52384e-11
-4.59606e-12
2.98957e-11
-4.65772e-12
3.45076e-11
-4.61263e-12
3.89556e-11
-4.44894e-12
4.31123e-11
-4.15778e-12
4.68453e-11
-3.73402e-12
5.00215e-11
-3.17689e-12
5.25117e-11
-2.49036e-12
5.41954e-11
-1.68322e-12
5.49659e-11
-7.69544e-13
5.47311e-11
2.35717e-13
5.34237e-11
1.30801e-12
5.09974e-11
2.42643e-12
4.74317e-11
3.56559e-12
4.27318e-11
4.69972e-12
3.69289e-11
5.80275e-12
3.008e-11
6.84884e-12
2.22663e-11
7.81322e-12
1.35924e-11
8.67302e-12
4.18405e-12
9.40754e-12
-5.81493e-12
9.99857e-12
-1.62463e-11
1.04313e-11
-2.69404e-11
1.06944e-11
-3.77192e-11
1.07798e-11
1.0683e-11
-4.84019e-11
-1.05746e-12
1.78167e-12
-2.72037e-12
2.76002e-12
-4.72591e-12
3.26444e-12
-6.80911e-12
3.39927e-12
-8.76918e-12
3.23904e-12
-1.04786e-11
2.8904e-12
-1.18574e-11
2.42731e-12
-1.28455e-11
1.88199e-12
-1.3386e-11
1.26016e-12
-1.34191e-11
5.54375e-13
-1.2879e-11
-2.41661e-13
-1.16968e-11
-1.13467e-12
-9.80219e-12
-2.12627e-12
-7.12538e-12
-3.21452e-12
-3.60064e-12
-4.39404e-12
8.30316e-13
-5.65571e-12
6.21507e-12
-6.98623e-12
1.25874e-11
-8.36723e-12
1.9964e-11
-9.77499e-12
2.83405e-11
-1.11797e-11
3.76875e-11
-1.25459e-11
4.79462e-11
-1.38326e-11
5.90246e-11
-1.49938e-11
7.07947e-11
-1.59799e-11
8.30906e-11
-1.67381e-11
9.57085e-11
-1.72148e-11
1.08408e-10
-1.73579e-11
1.20913e-10
-1.71197e-11
1.32923e-10
-1.64599e-11
1.44112e-10
-1.53483e-11
1.54146e-10
-1.37682e-11
1.62687e-10
-1.17177e-11
1.69409e-10
-9.2112e-12
1.74007e-10
-6.28002e-12
1.7621e-10
-2.9711e-12
1.75792e-10
6.55002e-13
1.72574e-10
4.52611e-12
1.66441e-10
8.56001e-12
1.57337e-10
1.26692e-11
1.45274e-10
1.67622e-11
1.3033e-10
2.0746e-11
1.12649e-10
2.45288e-11
9.24395e-11
2.80221e-11
6.99685e-11
3.11431e-11
4.55587e-11
3.38167e-11
1.9581e-11
3.59769e-11
-7.55506e-12
3.75685e-11
-3.54105e-11
3.85499e-11
-6.3525e-11
3.88935e-11
3.85857e-11
-9.14289e-11
-1.24095e-12
3.00831e-12
-3.22344e-12
4.75298e-12
-5.55441e-12
5.60123e-12
-7.9207e-12
5.76523e-12
-1.00739e-11
5.39018e-12
-1.18455e-11
4.66123e-12
-1.31208e-11
3.70364e-12
-1.38076e-11
2.57081e-12
-1.38167e-11
1.2712e-12
-1.30546e-11
-2.06477e-13
-1.14203e-11
-1.87567e-12
-8.80891e-12
-3.74666e-12
-5.11476e-12
-5.82113e-12
-2.34577e-13
-8.09497e-12
5.92802e-12
-1.05562e-11
1.34581e-11
-1.31851e-11
2.24249e-11
-1.59524e-11
3.28768e-11
-1.88191e-11
4.4836e-11
-2.17346e-11
5.82927e-11
-2.4637e-11
7.31992e-11
-2.74528e-11
8.94636e-11
-3.00973e-11
1.06945e-10
-3.24757e-11
1.25449e-10
-3.44845e-11
1.44726e-10
-3.6015e-11
1.64468e-10
-3.69568e-11
1.84312e-10
-3.72028e-11
2.03848e-10
-3.66548e-11
2.22618e-10
-3.52301e-11
2.40136e-10
-3.28664e-11
2.55897e-10
-2.95286e-11
2.69392e-10
-2.52122e-11
2.80129e-10
-1.99466e-11
2.87646e-10
-1.37949e-11
2.91528e-10
-6.8523e-12
2.91431e-10
7.53249e-13
2.87075e-10
8.88194e-12
2.78279e-10
1.73569e-11
2.64947e-10
2.60006e-11
2.47087e-10
3.46223e-11
2.24804e-10
4.3028e-11
1.98308e-10
5.10252e-11
1.67903e-10
5.84271e-11
1.33989e-10
6.50576e-11
9.70499e-11
7.07558e-11
5.76464e-11
7.53803e-11
1.64015e-11
7.88128e-11
-2.60139e-11
8.09634e-11
-6.88955e-11
8.17727e-11
8.12122e-11
-1.11523e-10
-1.30152e-12
4.30291e-12
-3.38443e-12
6.83376e-12
-5.76948e-12
7.98834e-12
-8.11593e-12
8.11264e-12
-1.01554e-11
7.42942e-12
-1.1698e-11
6.20355e-12
-1.26044e-11
4.61035e-12
-1.27547e-11
2.72183e-12
-1.20309e-11
5.47859e-13
-1.03077e-11
-1.92958e-12
-7.45215e-12
-4.73152e-12
-3.32823e-12
-7.87084e-12
2.20122e-12
-1.13507e-11
9.26877e-12
-1.51625e-11
1.79979e-11
-1.92853e-11
2.84978e-11
-2.36849e-11
4.0857e-11
-2.83117e-11
5.51375e-11
-3.30994e-11
7.13673e-11
-3.79641e-11
8.95333e-11
-4.28028e-11
1.09574e-10
-4.74934e-11
1.31371e-10
-5.18952e-11
1.54745e-10
-5.58501e-11
1.79446e-10
-5.91863e-11
2.05154e-10
-6.17228e-11
2.31475e-10
-6.3276e-11
2.57941e-10
-6.36674e-11
2.8402e-10
-6.27329e-11
3.09124e-10
-6.03325e-11
3.32619e-10
-5.63608e-11
3.53848e-10
-5.07563e-11
3.72146e-10
-4.35091e-11
3.86867e-10
-3.46654e-11
3.97401e-10
-2.4328e-11
4.03204e-10
-1.26534e-11
4.03805e-10
1.52976e-13
3.98839e-10
1.3848e-11
3.88046e-10
2.81508e-11
3.71287e-10
4.276e-11
3.48551e-10
5.73578e-11
3.19962e-10
7.16181e-11
2.85772e-10
8.52151e-11
2.46369e-10
9.78312e-11
2.02263e-10
1.09164e-10
1.54081e-10
1.18937e-10
1.02554e-10
1.26905e-10
4.85014e-11
1.32863e-10
-7.19086e-12
1.36654e-10
-6.359e-11
1.38171e-10
1.37363e-10
-1.1974e-10
-1.2783e-12
5.58262e-12
-3.29568e-12
8.84655e-12
-5.55181e-12
1.02433e-11
-7.69555e-12
1.02567e-11
-9.45099e-12
9.18537e-12
-1.06157e-11
7.36847e-12
-1.10311e-11
5.02564e-12
-1.05535e-11
2.24395e-12
-9.03594e-12
-9.69867e-13
-6.32374e-12
-4.64164e-12
-2.25477e-12
-8.79989e-12
3.33755e-12
-1.34624e-11
1.06193e-11
-1.86319e-11
1.97514e-11
-2.42945e-11
3.08835e-11
-3.04179e-11
4.41485e-11
-3.69503e-11
5.96547e-11
-4.3818e-11
7.74788e-11
-5.09231e-11
9.76573e-11
-5.81422e-11
1.20178e-10
-6.53239e-11
1.44972e-10
-7.22882e-11
1.71903e-10
-7.88275e-11
2.00761e-10
-8.47088e-11
2.31253e-10
-8.96783e-11
2.63e-10
-9.34683e-11
2.95532e-10
-9.58063e-11
3.28292e-10
-9.64257e-11
3.6064e-10
-9.50796e-11
3.91865e-10
-9.15558e-11
4.21198e-10
-8.56921e-11
4.47835e-10
-7.73915e-11
4.70962e-10
-6.66337e-11
4.89779e-10
-5.34817e-11
5.03536e-10
-3.80835e-11
5.1155e-10
-2.06672e-11
5.13237e-10
-1.53289e-12
5.08128e-10
1.8958e-11
4.95885e-10
4.03944e-11
4.76317e-10
6.23292e-11
4.49385e-10
8.42896e-11
4.15216e-10
1.05788e-10
3.74097e-10
1.26335e-10
3.2648e-10
1.45448e-10
2.72977e-10
1.62667e-10
2.14345e-10
1.77567e-10
1.51477e-10
1.8977e-10
8.53812e-11
1.98957e-10
1.7154e-11
2.04881e-10
-5.20467e-11
2.07372e-10
2.06348e-10
-1.21031e-10
-1.22485e-12
6.81021e-12
-3.10692e-12
1.07263e-11
-5.16619e-12
1.23011e-11
-7.05628e-12
1.21468e-11
-8.50002e-12
1.06297e-11
-9.28602e-12
8.1548e-12
-9.23889e-12
4.97833e-12
-8.19172e-12
1.1966e-12
-5.9712e-12
-3.1899e-12
-2.39408e-12
-8.21731e-12
2.73095e-12
-1.39229e-11
9.59975e-12
-2.03294e-11
1.84075e-11
-2.74389e-11
2.93435e-11
-3.52307e-11
4.25847e-11
-4.36598e-11
5.82889e-11
-5.26548e-11
7.65863e-11
-6.21152e-11
9.75717e-11
-7.19084e-11
1.21295e-10
-8.18661e-11
1.47752e-10
-9.17822e-11
1.76873e-10
-1.01411e-10
2.08513e-10
-1.1047e-10
2.42443e-10
-1.1864e-10
2.78338e-10
-1.25572e-10
3.15771e-10
-1.309e-10
3.54211e-10
-1.34244e-10
3.9302e-10
-1.35233e-10
4.31461e-10
-1.33519e-10
4.68707e-10
-1.288e-10
5.03858e-10
-1.20841e-10
5.35964e-10
-1.09497e-10
5.64061e-10
-9.47293e-11
5.87197e-10
-7.66168e-11
6.0447e-10
-5.53566e-11
6.15062e-10
-3.12591e-11
6.18265e-10
-4.73453e-12
6.13503e-10
2.37213e-11
6.00354e-10
5.35453e-11
5.78562e-10
8.41221e-11
5.48053e-10
1.14799e-10
5.08942e-10
1.44899e-10
4.6154e-10
1.73736e-10
4.06354e-10
2.00632e-10
3.44085e-10
2.24934e-10
2.75617e-10
2.46034e-10
2.01999e-10
2.63386e-10
1.24426e-10
2.7653e-10
4.42059e-11
2.85102e-10
-3.72727e-11
2.88852e-10
2.87654e-10
-1.18579e-10
-1.178e-12
7.98886e-12
-2.93645e-12
1.24845e-11
-4.8271e-12
1.41913e-11
-6.51719e-12
1.38371e-11
-7.73159e-12
1.18446e-11
-8.25116e-12
8.6747e-12
-7.88436e-12
4.61178e-12
-6.44197e-12
-2.44971e-13
-3.72501e-12
-5.90492e-12
4.77509e-13
-1.2417e-11
6.386e-12
-1.98287e-11
1.42258e-11
-2.81676e-11
2.4222e-11
-3.74348e-11
3.65936e-11
-4.76028e-11
5.15464e-11
-5.8613e-11
6.92656e-11
-7.03739e-11
8.9907e-11
-8.27567e-11
1.13589e-10
-9.5591e-11
1.40381e-10
-1.0866e-10
1.70294e-10
-1.21698e-10
2.03268e-10
-1.34388e-10
2.39161e-10
-1.46364e-10
2.77734e-10
-1.57212e-10
3.18643e-10
-1.66479e-10
3.61426e-10
-1.73682e-10
4.05502e-10
-1.7832e-10
4.50166e-10
-1.79897e-10
4.94591e-10
-1.77943e-10
5.37838e-10
-1.72046e-10
5.78877e-10
-1.61878e-10
6.1661e-10
-1.4723e-10
6.49915e-10
-1.28034e-10
6.77678e-10
-1.04381e-10
6.98843e-10
-7.65214e-11
7.12444e-10
-4.48598e-11
7.17644e-10
-9.93212e-12
7.13752e-10
2.76144e-11
7.00253e-10
6.70451e-11
6.76819e-10
1.07556e-10
6.43326e-10
1.48291e-10
5.99868e-10
1.88356e-10
5.46764e-10
2.26838e-10
4.84568e-10
2.62828e-10
4.14061e-10
2.95441e-10
3.36246e-10
3.23848e-10
2.52331e-10
3.47301e-10
1.63699e-10
3.65161e-10
7.18791e-11
3.76922e-10
-2.15001e-11
3.82231e-10
3.80906e-10
-1.14753e-10
-1.1571e-12
9.14517e-12
-2.8534e-12
1.41814e-11
-4.66626e-12
1.60048e-11
-6.27796e-12
1.54495e-11
-7.41617e-12
1.29834e-11
-7.85386e-12
9.11289e-12
-7.38321e-12
4.14206e-12
-5.79336e-12
-1.8329e-12
-2.8597e-12
-8.83566e-12
1.65652e-12
-1.69301e-11
8.00496e-12
-2.61749e-11
1.64414e-11
-3.66032e-11
2.7222e-11
-4.82156e-11
4.05971e-11
-6.09782e-11
5.68037e-11
-7.48196e-11
7.60578e-11
-8.9628e-11
9.85457e-11
-1.05245e-10
1.24415e-10
-1.21462e-10
1.53763e-10
-1.38011e-10
1.86626e-10
-1.54563e-10
2.22962e-10
-1.70725e-10
2.62641e-10
-1.86043e-10
3.0543e-10
-2e-10
3.50977e-10
-2.12026e-10
3.98803e-10
-2.21508e-10
4.48289e-10
-2.27807e-10
4.98672e-10
-2.3028e-10
5.49044e-10
-2.28314e-10
5.98357e-10
-2.21358e-10
6.45446e-10
-2.08968e-10
6.89062e-10
-1.90847e-10
7.2791e-10
-1.66883e-10
7.60703e-10
-1.37174e-10
7.86214e-10
-1.02031e-10
8.03321e-10
-6.19656e-11
8.11046e-10
-1.76562e-11
8.08581e-10
3.00805e-11
7.95305e-10
8.03205e-11
7.70806e-10
1.32053e-10
7.34899e-10
1.84196e-10
6.87641e-10
2.35613e-10
6.29346e-10
2.85133e-10
5.60599e-10
3.31575e-10
4.82256e-10
3.73785e-10
3.95436e-10
4.10668e-10
3.01507e-10
4.41231e-10
2.02051e-10
4.64617e-10
9.88289e-11
4.80144e-10
-6.27118e-12
4.87331e-10
4.85923e-10
-1.11288e-10
-1.17099e-12
1.03154e-11
-2.89173e-12
1.59028e-11
-4.75283e-12
1.78669e-11
-6.44735e-12
1.71448e-11
-7.70399e-12
1.42406e-11
-8.28684e-12
9.69641e-12
-7.97127e-12
3.82787e-12
-6.52388e-12
-3.27799e-12
-3.69452e-12
-1.16624e-11
7.83803e-13
-2.14064e-11
7.19086e-12
-3.25811e-11
1.58139e-11
-4.52263e-11
2.69416e-11
-5.93436e-11
4.08574e-11
-7.48939e-11
5.78326e-11
-9.17945e-11
7.81182e-11
-1.09914e-10
1.01937e-10
-1.29065e-10
1.29472e-10
-1.48999e-10
1.60856e-10
-1.69396e-10
1.96157e-10
-1.89864e-10
2.35365e-10
-2.09933e-10
2.78374e-10
-2.29052e-10
3.24969e-10
-2.46595e-10
3.74808e-10
-2.61866e-10
4.27407e-10
-2.74108e-10
4.82125e-10
-2.82526e-10
5.38154e-10
-2.86309e-10
5.94511e-10
-2.84671e-10
6.50044e-10
-2.76893e-10
7.03452e-10
-2.62377e-10
7.53315e-10
-2.40711e-10
7.9815e-10
-2.11718e-10
8.36473e-10
-1.75497e-10
8.6687e-10
-1.32427e-10
8.8805e-10
-8.31444e-11
8.98886e-10
-2.84923e-11
8.98441e-10
3.05245e-11
8.85984e-10
9.27767e-11
8.61004e-10
1.57032e-10
8.23237e-10
2.21964e-10
7.72682e-10
2.86168e-10
7.09634e-10
3.48182e-10
6.34692e-10
4.06517e-10
5.48778e-10
4.59699e-10
4.53126e-10
5.06319e-10
3.49268e-10
5.45088e-10
2.38999e-10
5.74885e-10
1.24333e-10
5.9481e-10
7.44366e-12
6.04222e-10
6.02771e-10
-1.09403e-10
-1.22335e-12
1.15387e-11
-3.06647e-12
1.77465e-11
-5.11991e-12
1.99211e-11
-7.08019e-12
1.91057e-11
-8.67333e-12
1.58341e-11
-9.65244e-12
1.06762e-11
-9.77475e-12
3.95146e-12
-8.78356e-12
-4.26743e-12
-6.40181e-12
-1.40426e-11
-2.33344e-12
-2.54741e-11
3.7323e-12
-3.8647e-11
1.21152e-11
-5.36096e-11
2.31378e-11
-7.03663e-11
3.71193e-11
-8.88751e-11
5.43683e-11
-1.09043e-10
7.51757e-11
-1.30722e-10
9.98055e-11
-1.53695e-10
1.28484e-10
-1.77677e-10
1.61386e-10
-2.02297e-10
1.98621e-10
-2.27098e-10
2.4022e-10
-2.5153e-10
2.86114e-10
-2.74945e-10
3.36122e-10
-2.96603e-10
3.89927e-10
-3.15671e-10
4.47057e-10
-3.31239e-10
5.06867e-10
-3.42336e-10
5.68517e-10
-3.47961e-10
6.30965e-10
-3.47121e-10
6.92959e-10
-3.38888e-10
7.53051e-10
-3.2247e-10
8.09636e-10
-2.97295e-10
8.61012e-10
-2.63093e-10
9.05473e-10
-2.19956e-10
9.41389e-10
-1.68343e-10
9.67284e-10
-1.09041e-10
9.8188e-10
-4.30884e-11
9.84103e-10
2.83005e-11
9.73101e-10
1.03778e-10
9.48251e-10
1.81883e-10
9.09183e-10
2.61032e-10
8.5582e-10
3.39533e-10
7.88405e-10
4.15598e-10
7.07538e-10
4.87384e-10
6.14192e-10
5.53045e-10
5.09714e-10
6.10797e-10
3.95809e-10
6.58992e-10
2.74505e-10
6.9619e-10
1.48095e-10
7.21221e-10
1.90743e-11
7.33244e-10
7.3179e-10
-1.09943e-10
-1.31535e-12
1.28544e-11
-3.38347e-12
1.98153e-11
-5.78202e-12
2.23203e-11
-8.20231e-12
2.15263e-11
-1.03629e-11
1.79948e-11
-1.20028e-11
1.23165e-11
-1.2859e-11
4.80842e-12
-1.26499e-11
-4.4757e-12
-1.10705e-11
-1.56216e-11
-7.79431e-12
-2.87504e-11
-2.47878e-12
-4.39629e-11
5.22947e-12
-6.1318e-11
1.56885e-11
-8.08252e-11
2.92556e-11
-1.02442e-10
4.62807e-11
-1.26069e-10
6.70988e-11
-1.5154e-10
9.20203e-11
-1.78616e-10
1.21319e-10
-2.06974e-10
1.55221e-10
-2.36195e-10
1.93886e-10
-2.6576e-10
2.37395e-10
-2.95037e-10
2.8573e-10
-3.23281e-10
3.38757e-10
-3.49631e-10
3.96202e-10
-3.73116e-10
4.57623e-10
-3.9266e-10
5.22392e-10
-4.07105e-10
5.89661e-10
-4.15232e-10
6.58346e-10
-4.15807e-10
7.27101e-10
-4.07644e-10
7.94329e-10
-3.89698e-10
8.58212e-10
-3.61177e-10
9.16795e-10
-3.21675e-10
9.68104e-10
-2.71264e-10
1.01026e-09
-2.10502e-10
1.0416e-09
-1.40375e-10
1.06067e-09
-6.21605e-11
1.06628e-09
2.26954e-11
1.05743e-09
1.12623e-10
1.03338e-09
2.05934e-10
9.93624e-10
3.00791e-10
9.37964e-10
3.95195e-10
8.66563e-10
4.87e-10
7.79993e-10
5.73955e-10
6.79259e-10
6.53778e-10
5.6582e-10
7.24236e-10
4.41564e-10
7.83249e-10
3.08774e-10
8.28981e-10
1.70063e-10
8.59934e-10
2.82934e-11
8.75016e-10
8.73604e-10
-1.1352e-10
-1.44676e-12
1.43016e-11
-3.84384e-12
2.22134e-11
-6.7436e-12
2.52207e-11
-9.8231e-12
2.4606e-11
-1.27878e-11
2.09594e-11
-1.53591e-11
1.48878e-11
-1.72514e-11
6.70087e-12
-1.81558e-11
-3.5709e-12
-1.7738e-11
-1.60391e-11
-1.56406e-11
-3.08475e-11
-1.14882e-11
-4.81151e-11
-4.89312e-12
-6.7913e-11
4.54052e-12
-9.02591e-11
1.72106e-11
-1.15113e-10
3.35116e-11
-1.4237e-10
5.38261e-11
-1.71853e-10
7.85154e-11
-2.03303e-10
1.07907e-10
-2.36363e-10
1.42283e-10
-2.70568e-10
1.81861e-10
-3.05337e-10
2.26785e-10
-3.3996e-10
2.77097e-10
-3.73592e-10
3.32723e-10
-4.05257e-10
3.93448e-10
-4.3384e-10
4.58885e-10
-4.58098e-10
5.28447e-10
-4.76668e-10
6.01309e-10
-4.88095e-10
6.76368e-10
-4.90866e-10
7.5221e-10
-4.83485e-10
8.27084e-10
-4.6457e-10
8.98932e-10
-4.33024e-10
9.65491e-10
-3.88234e-10
1.02446e-09
-3.30233e-10
1.07367e-09
-2.59714e-10
1.11124e-09
-1.77939e-10
1.13557e-09
-8.64953e-11
1.14536e-09
1.29125e-11
1.13947e-09
1.18508e-10
1.117e-09
2.28407e-10
1.07726e-09
3.40526e-10
1.0199e-09
4.52556e-10
9.44951e-10
5.61954e-10
8.52903e-10
6.66003e-10
7.4478e-10
7.619e-10
6.22139e-10
8.46876e-10
4.87068e-10
9.18321e-10
3.42134e-10
9.73916e-10
1.90318e-10
1.01175e-09
3.49084e-11
1.03043e-09
1.02912e-09
-1.20608e-10
-1.61644e-12
1.59186e-11
-4.44552e-12
2.5044e-11
-8.00219e-12
2.87782e-11
-1.19402e-11
2.85441e-11
-1.59461e-11
2.49649e-11
-1.97198e-11
1.86613e-11
-2.29501e-11
9.93121e-12
-2.52995e-11
-1.22101e-12
-2.64029e-11
-1.49347e-11
-2.58712e-11
-3.13782e-11
-2.3296e-11
-5.06896e-11
-1.82534e-11
-7.29556e-11
-1.03089e-11
-9.82042e-11
9.78573e-13
-1.26401e-10
1.60504e-11
-1.57441e-10
3.53401e-11
-1.91142e-10
5.92634e-11
-2.27224e-10
8.82066e-11
-2.65304e-10
1.22513e-10
-3.04873e-10
1.62467e-10
-3.4529e-10
2.08278e-10
-3.8577e-10
2.6006e-10
-4.25374e-10
3.17812e-10
-4.63009e-10
3.81392e-10
-4.9742e-10
4.50491e-10
-5.27196e-10
5.24592e-10
-5.5077e-10
6.02933e-10
-5.66434e-10
6.84438e-10
-5.7237e-10
7.67662e-10
-5.66707e-10
8.50716e-10
-5.47623e-10
9.31267e-10
-5.13575e-10
1.00667e-09
-4.63635e-10
1.0742e-09
-3.97766e-10
1.13135e-09
-3.16853e-10
1.17598e-09
-2.22574e-10
1.20643e-09
-1.16941e-10
1.22128e-09
-1.93854e-12
1.21928e-09
1.20501e-10
1.19933e-09
2.48359e-10
1.16051e-09
3.79354e-10
1.1022e-09
5.10861e-10
1.02425e-09
6.39906e-10
9.27024e-10
7.63229e-10
8.11516e-10
8.77408e-10
6.79374e-10
9.79018e-10
5.32896e-10
1.0648e-09
3.74975e-10
1.13184e-09
2.09012e-10
1.17772e-09
3.88044e-11
1.20064e-09
1.19953e-09
-1.31607e-10
-1.82262e-12
1.7742e-11
-5.18373e-12
2.84068e-11
-9.54923e-12
3.31445e-11
-1.45407e-11
3.35355e-11
-1.98201e-11
3.02436e-11
-2.50621e-11
2.39026e-11
-2.99272e-11
1.47964e-11
-3.40477e-11
2.90051e-12
-3.70274e-11
-1.19535e-11
-3.8445e-11
-2.99593e-11
-3.7858e-11
-5.1276e-11
-3.48066e-11
-7.60074e-11
-2.88159e-11
-1.04196e-10
-1.94005e-11
-1.35817e-10
-6.0701e-12
-1.70771e-10
1.16624e-11
-2.08873e-10
3.42711e-11
-2.49831e-10
6.22046e-11
-2.93236e-10
9.58727e-11
-3.3854e-10
1.35629e-10
-3.85047e-10
1.81756e-10
-4.31896e-10
2.34442e-10
-4.7806e-10
2.93767e-10
-5.22333e-10
3.59677e-10
-5.6333e-10
4.31956e-10
-5.99476e-10
5.10197e-10
-6.29009e-10
5.9374e-10
-6.49976e-10
6.81612e-10
-6.6024e-10
7.72411e-10
-6.57506e-10
8.64155e-10
-6.39368e-10
9.54201e-10
-6.03621e-10
1.0394e-09
-5.48834e-10
1.11649e-09
-4.74853e-10
1.18248e-09
-3.82841e-10
1.23505e-09
-2.75136e-10
1.27249e-09
-1.54385e-10
1.2934e-09
-2.28531e-11
1.29641e-09
1.17489e-10
1.28016e-09
2.64617e-10
1.24338e-09
4.16129e-10
1.18514e-09
5.69104e-10
1.10495e-09
7.20089e-10
1.003e-09
8.65187e-10
8.8018e-10
1.00023e-09
7.38226e-10
1.12097e-09
5.79657e-10
1.22337e-09
4.07737e-10
1.30376e-09
2.26364e-10
1.35909e-09
3.9927e-11
1.38707e-09
1.38632e-09
-1.46866e-10
-2.0631e-12
1.98062e-11
-6.05104e-12
3.23965e-11
-1.137e-11
3.8464e-11
-1.76013e-11
3.97661e-11
-2.43767e-11
3.70176e-11
-3.13421e-11
3.08671e-11
-3.81279e-11
2.15821e-11
-4.43359e-11
9.10933e-12
-4.95377e-11
-6.7504e-12
-5.32801e-11
-2.6216e-11
-5.50871e-11
-4.9469e-11
-5.44619e-11
-7.66331e-11
-5.08897e-11
-1.07768e-10
-4.38401e-11
-1.42866e-10
-3.27727e-11
-1.81839e-10
-1.7144e-11
-2.24501e-10
3.58163e-12
-2.70557e-10
2.99193e-11
-3.19574e-10
6.23473e-11
-3.70968e-10
1.01291e-10
-4.2399e-10
1.47106e-10
-4.7771e-10
2.00059e-10
-5.31012e-10
2.6031e-10
-5.82585e-10
3.27896e-10
-6.30916e-10
4.02711e-10
-6.74289e-10
4.84474e-10
-7.1077e-10
5.72694e-10
-7.38195e-10
6.66591e-10
-7.54137e-10
7.64952e-10
-7.55867e-10
8.65806e-10
-7.40222e-10
9.66168e-10
-7.03982e-10
1.06222e-09
-6.44882e-10
1.14994e-09
-5.62572e-10
1.2257e-09
-4.58598e-10
1.28699e-09
-3.36428e-10
1.33231e-09
-1.99709e-10
1.3604e-09
-5.09459e-11
1.36978e-09
1.08116e-10
1.35872e-09
2.75675e-10
1.3255e-09
4.49342e-10
1.26868e-09
6.25925e-10
1.18734e-09
8.01427e-10
1.08134e-09
9.71191e-10
9.5144e-10
1.13013e-09
7.9941e-10
1.273e-09
6.28012e-10
1.39477e-09
4.40937e-10
1.49084e-09
2.42665e-10
1.55736e-09
3.82901e-11
1.59145e-09
1.5913e-09
-1.66685e-10
-2.33508e-12
2.21424e-11
-7.03729e-12
3.70999e-11
-1.34436e-11
4.48701e-11
-2.10876e-11
4.74086e-11
-2.95664e-11
4.54944e-11
-3.84947e-11
3.97936e-11
-4.74711e-11
3.05579e-11
-5.60667e-11
1.77051e-11
-6.38222e-11
1.00555e-12
-7.02529e-11
-1.97852e-11
-7.485e-11
-4.48721e-11
-7.70814e-11
-7.44018e-11
-7.63925e-11
-1.08457e-10
-7.22077e-11
-1.47051e-10
-6.39353e-11
-1.90111e-10
-5.09736e-11
-2.37464e-10
-3.2723e-11
-2.88808e-10
-8.59927e-12
-3.43697e-10
2.19476e-11
-4.01514e-10
5.9416e-11
-4.61457e-10
1.04233e-10
-5.22528e-10
1.56739e-10
-5.83519e-10
2.17169e-10
-6.43016e-10
2.85642e-10
-6.99388e-10
3.62149e-10
-7.50795e-10
4.46552e-10
-7.95172e-10
5.38573e-10
-8.30216e-10
6.37752e-10
-8.53317e-10
7.43305e-10
-8.61421e-10
8.53501e-10
-8.50417e-10
9.65002e-10
-8.15481e-10
1.07305e-09
-7.52924e-10
1.17256e-09
-6.62085e-10
1.25893e-09
-5.44973e-10
1.32958e-09
-4.07079e-10
1.38361e-09
-2.53735e-10
1.42014e-09
-8.74831e-11
1.43757e-09
9.06882e-11
1.43367e-09
2.79579e-10
1.40602e-09
4.76989e-10
1.35247e-09
6.79476e-10
1.27149e-09
8.82411e-10
1.16247e-09
1.08021e-09
1.02594e-09
1.26665e-09
8.63681e-10
1.43526e-09
6.78706e-10
1.57974e-09
4.75194e-10
1.69435e-09
2.58314e-10
1.77424e-09
3.40024e-11
1.81576e-09
1.81659e-09
-1.91293e-10
-2.63519e-12
2.47784e-11
-8.12938e-12
4.25945e-11
-1.57424e-11
5.24821e-11
-2.49544e-11
5.66183e-11
-3.53239e-11
5.58612e-11
-4.64325e-11
5.09e-11
-5.78478e-11
4.19717e-11
-6.91095e-11
2.89661e-11
-7.97306e-11
1.16262e-11
-8.91963e-11
-1.03198e-11
-9.69674e-11
-3.71009e-11
-1.02479e-10
-6.88902e-11
-1.05137e-10
-1.05798e-10
-1.04323e-10
-1.47865e-10
-9.93922e-11
-1.95043e-10
-8.96824e-11
-2.47174e-10
-7.45277e-11
-3.03962e-10
-5.32732e-11
-3.6495e-10
-2.52939e-11
-4.29492e-10
9.98314e-12
-4.96734e-10
5.30575e-11
-5.65603e-10
1.04334e-10
-6.34797e-10
1.64106e-10
-7.02788e-10
2.32547e-10
-7.67829e-10
3.09716e-10
-8.27963e-10
3.95587e-10
-8.81043e-10
4.90107e-10
-9.24735e-10
5.93251e-10
-9.56461e-10
7.05054e-10
-9.73223e-10
8.24487e-10
-9.69849e-10
9.47897e-10
-9.38891e-10
1.06914e-09
-8.74169e-10
1.1817e-09
-7.74641e-10
1.27935e-09
-6.42627e-10
1.35963e-09
-4.87358e-10
1.42306e-09
-3.17161e-10
1.46954e-09
-1.33965e-10
1.49719e-09
6.30317e-11
1.50301e-09
2.73767e-10
1.48358e-09
4.96421e-10
1.43577e-09
7.27285e-10
1.35721e-09
9.60969e-10
1.24667e-09
1.19075e-09
1.10431e-09
1.40901e-09
9.31857e-10
1.60772e-09
7.32594e-10
1.77901e-09
5.11265e-10
1.91568e-09
2.73855e-10
2.01165e-09
2.7302e-11
2.06231e-09
2.06471e-09
-2.20821e-10
-2.9592e-12
2.77381e-11
-9.31113e-12
4.89463e-11
-1.82323e-11
6.14018e-11
-2.91449e-11
6.75282e-11
-4.15668e-11
6.82803e-11
-5.50462e-11
6.4377e-11
-6.912e-11
5.60439e-11
-8.33001e-11
4.31451e-11
-9.7073e-11
2.53983e-11
-1.09899e-10
2.5063e-12
-1.21213e-10
-2.5787e-11
-1.30419e-10
-5.96837e-11
-1.36889e-10
-9.93283e-11
-1.3996e-10
-1.44795e-10
-1.38935e-10
-1.96069e-10
-1.33091e-10
-2.53018e-10
-1.21693e-10
-3.15359e-10
-1.04011e-10
-3.82631e-10
-7.93397e-11
-4.54162e-10
-4.70277e-11
-5.29046e-10
-6.50278e-12
-6.06128e-10
4.26989e-11
-6.83999e-10
1.0091e-10
-7.60999e-10
1.6832e-10
-8.35239e-10
2.44993e-10
-9.04635e-10
3.30933e-10
-9.66983e-10
4.2623e-10
-1.02003e-09
5.31307e-10
-1.06154e-09
6.47541e-10
-1.08946e-09
7.75509e-10
-1.09782e-09
9.11393e-10
-1.07478e-09
1.0469e-09
-1.00968e-09
1.1738e-09
-9.01539e-10
1.283e-09
-7.51827e-10
1.37256e-09
-5.76913e-10
1.44598e-09
-3.90583e-10
1.50436e-09
-1.92346e-10
1.54515e-09
2.22451e-11
1.56404e-09
2.54875e-10
1.55627e-09
5.04195e-10
1.51743e-09
7.66123e-10
1.44407e-09
1.03433e-09
1.3341e-09
1.30072e-09
1.18716e-09
1.55595e-09
1.00483e-09
1.79005e-09
7.90671e-10
1.99316e-09
5.50087e-10
2.15626e-09
2.90019e-10
2.27172e-09
1.86029e-11
2.33372e-09
2.33857e-09
-2.55252e-10
-3.3019e-12
3.10401e-11
-1.0563e-11
5.6207e-11
-2.08721e-11
7.17093e-11
-3.35908e-11
8.02446e-11
-4.81957e-11
8.28831e-11
-6.42027e-11
8.03824e-11
-8.11209e-11
7.2961e-11
-9.8438e-11
6.04613e-11
-1.15619e-10
4.25783e-11
-1.32105e-10
1.89928e-11
-1.4731e-10
-1.05815e-11
-1.60615e-10
-4.63788e-11
-1.7136e-10
-8.85837e-11
-1.78841e-10
-1.37314e-10
-1.82313e-10
-1.92599e-10
-1.80989e-10
-2.5434e-10
-1.74063e-10
-3.22284e-10
-1.60721e-10
-3.95971e-10
-1.40172e-10
-4.7471e-10
-1.11674e-10
-5.57543e-10
-7.45767e-11
-6.43226e-10
-2.8353e-11
-7.30223e-10
2.73582e-11
-8.16711e-10
9.27306e-11
-9.00611e-10
1.67759e-10
-9.79663e-10
2.52339e-10
-1.05156e-09
3.46494e-10
-1.11419e-09
4.50809e-10
-1.16585e-09
5.68394e-10
-1.20704e-09
7.03092e-10
-1.23252e-09
8.51391e-10
-1.22307e-09
1.00131e-09
-1.1596e-09
1.14364e-09
-1.04387e-09
1.26394e-09
-8.72131e-10
1.36166e-09
-6.74637e-10
1.44592e-09
-4.74839e-10
1.51916e-09
-2.65584e-10
1.57709e-09
-3.56871e-11
1.61341e-09
2.18557e-10
1.62163e-09
4.95981e-10
1.59584e-09
7.91914e-10
1.53125e-09
1.09892e-09
1.42468e-09
1.40729e-09
1.27501e-09
1.70562e-09
1.08354e-09
1.98152e-09
8.5408e-10
2.22262e-09
5.9279e-10
2.41755e-09
3.07763e-10
2.55674e-09
8.55378e-12
2.63293e-09
2.64147e-09
-2.94346e-10
-3.65699e-12
3.46972e-11
-1.18619e-11
6.44113e-11
-2.36129e-11
8.34589e-11
-3.82109e-11
9.48413e-11
-5.50928e-11
9.97641e-11
-7.37446e-11
9.90341e-11
-9.36523e-11
9.28686e-11
-1.14285e-10
8.10939e-11
-1.35094e-10
6.33865e-11
-1.55507e-10
3.94065e-11
-1.74929e-10
8.8409e-12
-1.92723e-10
-2.85851e-11
-2.08206e-10
-7.31018e-11
-2.20639e-10
-1.24881e-10
-2.29231e-10
-1.84007e-10
-2.33134e-10
-2.50436e-10
-2.31466e-10
-3.2395e-10
-2.23324e-10
-4.04112e-10
-2.07815e-10
-4.90218e-10
-1.84093e-10
-5.81264e-10
-1.51406e-10
-6.75914e-10
-1.09143e-10
-7.72486e-10
-5.68962e-11
-8.68958e-10
5.49787e-12
-9.63004e-10
7.79371e-11
-1.0521e-09
1.60104e-10
-1.13373e-09
2.51618e-10
-1.2057e-09
3.52354e-10
-1.26659e-09
4.66963e-10
-1.32165e-09
6.04531e-10
-1.37008e-09
7.62743e-10
-1.38128e-09
9.24813e-10
-1.32167e-09
1.08189e-09
-1.20094e-09
1.21199e-09
-1.00224e-09
1.31663e-09
-7.79276e-10
1.41397e-09
-5.72175e-10
1.50743e-09
-3.59044e-10
1.58813e-09
-1.1638e-10
1.64718e-09
1.59503e-10
1.6765e-09
4.66669e-10
1.66867e-09
7.99744e-10
1.61737e-09
1.15021e-09
1.51797e-09
1.50669e-09
1.36823e-09
1.85536e-09
1.16893e-09
2.18083e-09
9.24077e-10
2.46747e-09
6.4071e-10
2.70092e-09
3.28299e-10
2.86915e-09
-1.8987e-12
2.96313e-09
2.97712e-09
-3.37554e-10
-4.017e-12
3.87143e-11
-1.31806e-11
7.3574e-11
-2.63977e-11
9.66751e-11
-4.29112e-11
1.11355e-10
-6.21211e-11
1.18975e-10
-8.34888e-11
1.20403e-10
-1.06483e-10
1.15864e-10
-1.30563e-10
1.05174e-10
-1.55175e-10
8.79976e-11
-1.79746e-10
6.39776e-11
-2.03679e-10
3.27745e-11
-2.26335e-10
-5.92969e-12
-2.47016e-10
-5.24215e-11
-2.64961e-10
-1.06937e-10
-2.79336e-10
-1.69632e-10
-2.89239e-10
-2.40532e-10
-2.9371e-10
-3.19478e-10
-2.91749e-10
-4.06072e-10
-2.82348e-10
-4.99619e-10
-2.64532e-10
-5.99081e-10
-2.37411e-10
-7.03034e-10
-2.00247e-10
-8.0965e-10
-1.52516e-10
-9.16688e-10
-9.39828e-11
-1.02154e-09
-2.47348e-11
-1.12135e-09
5.48381e-11
-1.2133e-09
1.43996e-10
-1.29486e-09
2.40161e-10
-1.36275e-09
3.46596e-10
-1.42808e-09
4.81481e-10
-1.50497e-09
6.40516e-10
-1.54032e-09
8.03124e-10
-1.48427e-09
9.70405e-10
-1.36822e-09
1.10876e-09
-1.14059e-09
1.21985e-09
-8.90364e-10
1.33931e-09
-6.9164e-10
1.46321e-09
-4.82935e-10
1.57347e-09
-2.26645e-10
1.66091e-09
7.2064e-11
1.71682e-09
4.10765e-10
1.73255e-09
7.84013e-10
1.70006e-09
1.18269e-09
1.61278e-09
1.59398e-09
1.46674e-09
2.0014e-09
1.26177e-09
2.3858e-09
1.00196e-09
2.72728e-09
6.95357e-10
3.00752e-09
3.53096e-10
3.21141e-09
-1.1542e-11
3.32777e-09
3.34948e-09
-3.83895e-10
-4.37321e-12
4.30873e-11
-1.44875e-11
8.3687e-11
-2.91612e-11
1.11348e-10
-4.75834e-11
1.29778e-10
-6.91234e-11
1.40516e-10
-9.32245e-11
1.44505e-10
-1.19347e-10
1.41986e-10
-1.4695e-10
1.32776e-10
-1.75486e-10
1.16533e-10
-2.04397e-10
9.28888e-11
-2.33099e-10
6.14762e-11
-2.60964e-10
2.19346e-11
-2.87297e-10
-2.60889e-11
-3.11327e-10
-8.2908e-11
-3.32193e-10
-1.48765e-10
-3.48946e-10
-2.23778e-10
-3.60552e-10
-3.07871e-10
-3.6591e-10
-4.00713e-10
-3.63884e-10
-5.01646e-10
-3.53344e-10
-6.09621e-10
-3.33223e-10
-7.23155e-10
-3.02587e-10
-8.40287e-10
-2.60693e-10
-9.58581e-10
-2.07052e-10
-1.07518e-09
-1.41436e-10
-1.18696e-09
-6.38147e-11
-1.29092e-09
2.59443e-11
-1.38461e-09
1.2666e-10
-1.46347e-09
2.18824e-10
-1.52025e-09
3.37391e-10
-1.62353e-09
4.9474e-10
-1.69767e-09
6.01899e-10
-1.59143e-09
7.72327e-10
-1.53865e-09
9.11935e-10
-1.2802e-09
1.04432e-09
-1.02274e-09
1.22047e-09
-8.67797e-10
1.38446e-09
-6.46924e-10
1.52916e-09
-3.71347e-10
1.64946e-09
-4.82261e-11
1.73688e-09
3.23343e-10
1.78211e-09
7.38778e-10
1.77516e-09
1.18965e-09
1.70658e-09
1.66256e-09
1.56962e-09
2.13836e-09
1.36241e-09
2.59302e-09
1.08889e-09
3.0008e-09
7.58312e-10
3.33809e-09
3.83906e-10
3.58582e-09
-1.85088e-11
3.73018e-09
3.76275e-09
-4.31782e-10
-4.71551e-12
4.78022e-11
-1.57467e-11
9.47167e-11
-3.18287e-11
1.2743e-10
-5.21048e-11
1.50055e-10
-7.59213e-11
1.64334e-10
-1.02712e-10
1.71296e-10
-1.31938e-10
1.71212e-10
-1.63073e-10
1.6391e-10
-1.95592e-10
1.49052e-10
-2.28967e-10
1.26263e-10
-2.62645e-10
9.51537e-11
-2.96028e-10
5.5317e-11
-3.28448e-10
6.33119e-12
-3.59145e-10
-5.22119e-11
-3.87249e-10
-1.2066e-10
-4.1178e-10
-1.99246e-10
-4.31642e-10
-2.88009e-10
-4.45636e-10
-3.86719e-10
-4.52491e-10
-4.94791e-10
-4.50905e-10
-6.11208e-10
-4.39602e-10
-7.34458e-10
-4.17393e-10
-8.62495e-10
-3.83222e-10
-9.92752e-10
-3.3615e-10
-1.12225e-09
-2.75215e-10
-1.2479e-09
-1.99088e-10
-1.36705e-09
-1.056e-10
-1.4781e-09
8.6168e-12
-1.57768e-09
1.50521e-10
-1.66215e-09
2.27876e-10
-1.70089e-09
2.55298e-10
-1.72509e-09
3.06533e-10
-1.64266e-09
4.00324e-10
-1.63244e-09
5.82034e-10
-1.46191e-09
8.48535e-10
-1.28924e-09
1.07451e-09
-1.09377e-09
1.2754e-09
-8.47819e-10
1.45258e-09
-5.48522e-10
1.60571e-09
-2.01357e-10
1.72744e-09
2.0161e-10
1.80825e-09
6.5797e-10
1.83524e-09
1.16266e-09
1.79443e-09
1.70337e-09
1.67442e-09
2.25837e-09
1.47031e-09
2.79713e-09
1.18558e-09
3.28554e-09
8.31022e-10
3.69265e-09
4.22512e-10
3.99433e-09
-2.0965e-11
4.17366e-09
4.22085e-09
-4.79064e-10
-5.03216e-12
5.28332e-11
-1.69173e-11
1.06601e-10
-3.43169e-11
1.4483e-10
-5.63384e-11
1.72078e-10
-8.23145e-11
1.90311e-10
-1.1168e-10
2.00661e-10
-1.43912e-10
2.03442e-10
-1.7851e-10
1.98507e-10
-2.14992e-10
1.85534e-10
-2.52878e-10
1.6415e-10
-2.91672e-10
1.33946e-10
-3.30829e-10
9.44729e-11
-3.69733e-10
4.5235e-11
-4.07665e-10
-1.42803e-11
-4.43775e-10
-8.45498e-11
-4.77075e-10
-1.65945e-10
-5.06427e-10
-2.58657e-10
-5.30549e-10
-3.62598e-10
-5.48038e-10
-4.77302e-10
-5.57415e-10
-6.01831e-10
-5.57183e-10
-7.34691e-10
-5.45884e-10
-8.73794e-10
-5.22131e-10
-1.01651e-09
-4.84501e-10
-1.15988e-09
-4.31169e-10
-1.30123e-09
-3.58944e-10
-1.43927e-09
-2.60788e-10
-1.57626e-09
-1.2486e-10
-1.71361e-09
5.40311e-11
-1.84104e-09
3.01618e-10
-1.94847e-09