/*--------------------------------*- C++ -*----------------------------------*\
| =========                 |                                                 |
| \\      /  F ield         | OpenFOAM: The Open Source CFD Toolbox           |
|  \\    /   O peration     | Version:  2.4.0                                 |
|   \\  /    A nd           | Web:      www.OpenFOAM.org                      |
|    \\/     M anipulation  |                                                 |
\*---------------------------------------------------------------------------*/
FoamFile
{
    version     2.0;
    format      ascii;
    class       volScalarField;
    location    "0.011";
    object      alpha.water;
}
// * * * * * * * * * * * * * * * * * * * * * * * * * * * * * * * * * * * * * //

dimensions      [0 0 0 0 0 0 0];

internalField   nonuniform List<scalar> 
3600
(
1
1
1
1
1
1
1
1
1
1
1
1
1
1
1
1
1
1
1
1
1
1
1
1
1
1
1
1
1
1
1
1
1
1
1
1
1
1
1
1
1
1
1
1
1
1
1
1
1
1
1
1
1
1
1
1
1
1
1
1
1
1
1
1
1
1
1
1
1
1
1
1
1
1
1
1
1
1
1
1
1
1
1
1
1
1
1
1
1
1
1
1
1
1
1
1
1
1
1
1
1
1
1
1
1
1
1
1
1
1
1
1
1
1
1
1
1
1
1
1
1
1
1
1
1
1
1
1
1
1
1
1
1
1
1
1
1
1
1
1
1
1
1
1
1
1
1
1
1
1
1
1
1
1
1
1
1
1
1
1
1
1
1
1
1
1
1
1
1
1
1
1
1
1
1
1
1
1
1
1
1
1
1
1
1
1
1
1
1
1
1
1
1
1
1
1
1
1
1
1
1
1
1
1
1
1
1
1
1
1
1
1
1
1
1
1
1
1
1
1
1
1
1
1
1
1
1
1
1
1
1
1
1
1
1
1
1
1
1
1
1
1
1
1
1
1
1
1
1
1
1
1
1
1
1
1
1
1
1
1
1
1
1
1
1
1
1
1
1
1
1
1
1
1
1
1
1
1
1
1
1
1
1
1
1
1
1
1
1
1
1
1
1
0.999999
0.999999
1
1
0.999999
0.999999
0.999999
1
1
1
1
1
1
1
1
1
1
1
1
1
1
1
1
1
1
1
1
1
1
1
0.999999
0.999997
0.999998
0.999998
0.999995
0.999996
0.999995
1
1
1
1
1
1
1
1
1
1
1
1
1
1
1
1
1
1
1
1
1
1
1
1
0.999999
0.999992
0.999982
0.999966
0.999967
0.99996
1
1
1
1
1
1
1
1
1
1
1
1
1
1
1
1
1
1
1
1
1
1
1
1
0.999998
0.999971
0.9999
0.999793
0.999759
0.999728
1
1
1
1
1
1
1
1
1
1
1
1
1
1
1
1
1
1
1
1
1
1
1
1
0.999978
0.9998
0.999425
0.998881
0.998486
0.998266
1
1
1
1
1
1
1
1
1
1
1
1
1
1
1
1
1
1
1
1
1
1
1
0.999999
0.99982
0.99857
0.996385
0.981006
0.953507
0.933492
1
1
1
1
1
1
1
1
1
1
1
1
1
1
1
1
1
1
1
1
1
1
1
0.999979
0.998715
0.895318
0.676575
0.469633
0.352835
0.303398
1
1
1
1
1
1
1
1
1
1
1
1
1
1
1
1
1
1
1
1
1
1
0.999997
0.999524
0.849548
0.2299
0.0263367
1.48088e-09
9.95395e-13
-6.63358e-09
1
1
1
1
1
1
1
1
1
1
1
1
1
1
1
1
1
1
1
1
1
0.999995
0.999716
0.675717
0.161799
2.00625e-08
1.42651e-09
5.05554e-12
-1.16327e-08
-5.17102e-08
1
1
1
1
1
1
1
1
1
1
1
1
1
1
1
1
1
1
1
1
0.999998
0.999925
0.884507
0.0733086
8.97893e-06
4.00861e-06
1.46307e-07
1.53183e-08
-1.08828e-09
-7.14673e-08
1
1
1
1
1
1
1
1
1
1
1
1
1
1
1
1
1
1
1
0.999999
0.999972
0.974735
0.345305
0.00025485
6.29249e-06
6.16426e-06
1.04729e-07
5.73017e-09
3.06306e-11
-8.51264e-08
1
1
1
1
1
1
1
1
1
1
1
1
1
1
1
1
1
1
1
0.999991
0.996252
0.588534
2.43146e-05
2.86486e-05
7.00628e-06
3.5549e-06
7.01066e-09
-3.72869e-10
-3.5415e-08
-1.43797e-07
1
1
1
1
1
1
1
1
1
1
1
1
1
1
1
1
1
1
0.999998
0.999912
0.857486
0.069497
3.90144e-05
7.10724e-05
1.94084e-05
5.39285e-11
-1.95617e-10
-6.64667e-08
-1.924e-07
-3.03754e-07
1
1
1
1
1
1
1
1
1
1
1
1
1
1
1
1
1
1
0.999986
0.990053
0.474094
0.000471748
0.000300827
3.95927e-05
8.56622e-11
-1.30323e-08
-1.63878e-07
-3.13759e-07
-4.54306e-07
-5.13609e-07
1
1
1
1
1
1
1
1
1
1
1
1
1
1
1
1
1
1
0.999998
0.999216
0.578676
0.00928432
1.76552e-05
1.76552e-05
2.3941e-05
-1.32297e-07
-2.87515e-07
-4.83877e-07
-6.26663e-07
-6.82899e-07
1
1
1
1
1
1
1
1
1
1
1
1
1
1
1
1
1
1
0.999937
0.931893
0.346003
8.26589e-05
1.70118e-05
1.85277e-05
4.36874e-05
-1.22885e-07
-3.60489e-07
-6.31447e-07
-8.06766e-07
-8.67087e-07
1
1
1
1
1
1
1
1
1
1
1
1
1
1
1
1
1
0.999999
0.999971
0.96357
0.28914
6.53362e-06
3.14285e-05
4.32978e-05
4.3729e-05
-1.07124e-07
-3.97146e-07
-7.10067e-07
-9.22395e-07
-1.0221e-06
1
1
1
1
1
1
1
1
1
1
1
1
1
1
1
1
1
1
1
0.963802
0.31151
4.59892e-06
3.78453e-06
3.37543e-06
4.18248e-05
-6.62728e-08
-3.19273e-07
-6.58309e-07
-9.11525e-07
-1.06815e-06
1
1
1
1
1
1
1
1
1
1
1
1
1
1
1
1
1
1
0.999935
0.864944
0.175626
3.8055e-06
3.08936e-06
2.15876e-06
2.82904e-07
-5.29984e-08
-2.58718e-07
-5.66741e-07
-8.22744e-07
-1.03438e-06
1
1
1
1
1
1
1
1
1
1
1
1
1
1
1
1
1
0.999991
0.999724
0.785546
0.0552506
1.07009e-05
4.61649e-06
5.63408e-09
4.59833e-11
-1.54485e-09
-1.44543e-07
-4.02055e-07
-6.6676e-07
-9.39335e-07
1
1
1
1
1
1
1
1
1
1
1
1
1
1
1
1
1
0.999999
0.999887
0.840202
0.0842669
3.22091e-05
8.97461e-05
7.78539e-07
5.53128e-09
2.07967e-11
-5.71388e-08
-2.50602e-07
-4.9975e-07
-8.12751e-07
1
1
1
1
1
1
1
1
1
1
1
1
1
1
1
1
1
1
1
1
1
1
1
1
1
1
1
1
1
1
1
1
1
1
1
1
1
1
1
1
1
1
1
1
1
1
1
1
1
1
1
1
1
1
1
1
1
1
1
1
1
1
1
1
1
1
1
1
1
1
1
1
1
1
1
1
1
1
1
1
1
1
1
1
1
1
1
1
1
1
1
1
1
1
1
1
1
1
1
1
1
1
1
1
1
1
1
1
1
1
1
1
1
1
1
1
1
1
1
1
1
1
1
1
1
1
1
1
1
1
1
1
1
1
1
1
1
1
1
1
1
1
1
1
1
1
1
1
1
1
1
1
1
1
1
1
1
1
1
1
1
1
1
1
1
1
1
1
1
1
1
1
1
1
1
1
1
1
1
1
1
1
1
1
1
1
1
1
1
1
1
1
1
1
1
1
1
1
1
1
1
1
1
1
1
1
1
1
1
1
1
1
1
1
1
1
1
1
1
1
1
1
1
1
1
1
1
1
1
1
1
1
1
1
1
1
1
1
1
1
1
1
1
1
1
1
1
1
1
1
1
1
1
1
1
1
1
1
1
1
1
1
1
1
1
1
1
1
1
1
0.999999
0.999999
0.999999
1
1
0.999999
1
1
1
1
1
1
1
1
1
1
1
1
1
1
1
1
1
1
1
1
1
1
1
1
0.999995
0.999996
0.999995
0.999998
0.999998
0.999998
1
1
1
1
1
1
1
1
1
1
1
1
1
1
1
1
1
1
1
1
1
1
1
1
0.99996
0.999966
0.999966
0.999982
0.999993
0.999999
1
1
1
1
1
1
1
1
1
1
1
1
1
1
1
1
1
1
1
1
1
1
1
1
0.999728
0.999756
0.999791
0.9999
0.999971
0.999998
1
1
1
1
1
1
1
1
1
1
1
1
1
1
1
1
1
1
1
1
1
1
1
1
0.998268
0.998473
0.998872
0.999425
0.999802
0.999978
1
1
1
1
1
1
1
1
1
1
1
1
1
1
1
1
1
1
1
1
1
1
1
1
0.933596
0.953043
0.980913
0.996387
0.998584
0.999822
0.999999
1
1
1
1
1
1
1
1
1
1
1
1
1
1
1
1
1
1
1
1
1
1
1
0.303701
0.351807
0.469394
0.677319
0.897179
0.998727
0.999979
1
1
1
1
1
1
1
1
1
1
1
1
1
1
1
1
1
1
1
1
1
1
1
-6.14634e-09
8.50208e-13
2.09024e-09
0.0265976
0.232596
0.851551
0.999523
0.999997
1
1
1
1
1
1
1
1
1
1
1
1
1
1
1
1
1
1
1
1
1
1
-4.78582e-08
-9.08591e-09
6.26594e-12
2.03264e-09
2.28875e-08
0.164007
0.676562
0.999713
0.999995
1
1
1
1
1
1
1
1
1
1
1
1
1
1
1
1
1
1
1
1
1
-6.57138e-08
5.19406e-10
2.13447e-08
1.5695e-07
4.03585e-06
9.04626e-06
0.0734882
0.884503
0.999925
0.999998
1
1
1
1
1
1
1
1
1
1
1
1
1
1
1
1
1
1
1
1
-7.85377e-08
4.02775e-11
7.62512e-09
1.1984e-07
6.242e-06
7.94302e-06
0.000237834
0.345364
0.97471
0.999972
0.999999
1
1
1
1
1
1
1
1
1
1
1
1
1
1
1
1
1
1
1
-1.37998e-07
-3.18725e-08
-3.8468e-10
6.96598e-09
4.38386e-06
1.07856e-05
3.21475e-05
2.76353e-05
0.588237
0.996241
0.999991
1
1
1
1
1
1
1
1
1
1
1
1
1
1
1
1
1
1
1
-3.02675e-07
-1.95327e-07
-7.10074e-08
-1.94651e-10
-1.2016e-10
1.952e-05
7.80758e-05
4.32544e-05
0.0696733
0.857464
0.999912
0.999998
1
1
1
1
1
1
1
1
1
1
1
1
1
1
1
1
1
1
-5.18666e-07
-4.64616e-07
-3.28551e-07
-1.77432e-07
-2.2635e-08
8.0353e-11
4.70818e-05
0.000359161
0.000532206
0.473337
0.989985
0.999986
1
1
1
1
1
1
1
1
1
1
1
1
1
1
1
1
1
1
-6.90935e-07
-6.41245e-07
-5.05799e-07
-3.06296e-07
-1.35732e-07
2.2484e-05
1.62859e-05
1.62859e-05
0.0092418
0.578647
0.999213
0.999998
1
1
1
1
1
1
1
1
1
1
1
1
1
1
1
1
1
1
-8.77127e-07
-8.23523e-07
-6.57342e-07
-3.82374e-07
-1.23731e-07
4.20679e-05
1.7658e-05
1.56638e-05
0.000130402
0.346759
0.93196
0.999937
1
1
1
1
1
1
1
1
1
1
1
1
1
1
1
1
1
1
-1.03323e-06
-9.3963e-07
-7.35143e-07
-4.17141e-07
-1.06385e-07
4.21081e-05
4.21127e-05
2.95809e-05
5.72403e-06
0.290354
0.963791
0.999971
0.999999
1
1
1
1
1
1
1
1
1
1
1
1
1
1
1
1
1
-1.07986e-06
-9.2731e-07
-6.78551e-07
-3.31257e-07
-6.13315e-08
4.01072e-05
4.63385e-06
4.70973e-06
5.51319e-06
0.314139
0.964512
0.999999
1
1
1
1
1
1
1
1
1
1
1
1
1
1
1
1
1
1
-1.0462e-06
-8.35336e-07
-5.79726e-07
-2.63646e-07
-4.77767e-08
2.16132e-07
1.95567e-06
3.44872e-06
4.90963e-06
0.176074
0.864957
0.999934
1
1
1
1
1
1
1
1
1
1
1
1
1
1
1
1
1
1
-9.51028e-07
-6.76449e-07
-4.09077e-07
-1.44066e-07
-6.76134e-12
2.31397e-10
3.78533e-09
1.68983e-05
1.46135e-05
0.0549388
0.786371
0.999726
0.999991
1
1
1
1
1
1
1
1
1
1
1
1
1
1
1
1
1
-8.24138e-07
-5.07761e-07
-2.54467e-07
-5.53024e-08
3.31854e-11
5.60367e-09
3.16556e-05
0.000116778
3.56469e-05
0.0831904
0.838754
0.999886
0.999999
1
1
1
1
1
1
1
1
1
1
1
1
1
1
1
1
1
0.0315657
0.0448153
0.0801739
0.142089
0.243125
0.396272
0.59447
0.803308
0.968832
1
1
1
1
1
1
1
1
1
0.999839
0.824124
0.111199
4.80043e-05
6.12885e-05
0.000118787
3.14239e-08
5.69531e-09
-8.7043e-09
-1.36085e-07
-3.53096e-07
-6.77915e-07
4.75573e-11
4.5284e-11
7.36727e-08
4.07171e-07
2.02507e-06
0.00126241
0.0248733
0.11734
0.346951
0.761269
1
1
1
1
1
1
1
1
0.999908
0.920451
0.0901571
5.34049e-05
0.000193486
0.000154428
1.7875e-07
4.62005e-07
8.45031e-12
-1.00583e-07
-2.98763e-07
-6.13161e-07
4.75318e-11
1.13137e-11
4.75108e-11
1.00763e-09
9.07613e-09
2.35081e-07
1.24244e-05
0.000159119
0.00159631
0.116098
0.63019
0.978503
0.99962
0.999984
1
1
1
1
0.999953
0.942438
0.101073
0.000102318
0.000467543
2.15359e-05
4.44231e-07
6.96087e-07
8.84032e-10
-7.2883e-08
-2.50294e-07
-5.48686e-07
9.94814e-12
1.08764e-11
1.69761e-11
6.16876e-11
2.1932e-10
8.83804e-09
2.35055e-07
3.21803e-05
0.00424369
0.261366
0.631967
0.932824
0.999999
1
1
1
1
0.999999
0.999988
0.796266
0.0815432
8.60282e-05
9.73365e-06
1.44545e-06
8.071e-07
1.86383e-07
9.1597e-11
-4.98289e-08
-2.08299e-07
-4.85064e-07
1.0741e-13
1.22046e-13
5.37903e-12
6.25216e-11
4.38423e-11
1.88938e-10
4.44461e-08
0.000521613
0.00722479
0.0109546
0.407061
0.823436
0.951931
1
1
1
1
1
0.999912
0.753086
0.0435916
1.59676e-05
5.93688e-06
4.67141e-06
3.2965e-06
6.962e-08
-2.72676e-10
-3.23572e-08
-1.72815e-07
-4.22272e-07
1.92304e-16
1.47864e-15
1.34258e-13
1.96625e-12
1.51957e-11
3.66341e-11
2.62867e-07
0.000100115
0.000512836
2.84979e-06
0.0211649
0.131362
0.284034
0.755271
1
1
1
0.999999
0.999218
0.487688
9.15525e-05
6.38808e-05
4.65428e-05
1.242e-05
2.51095e-06
1.33213e-08
-3.72399e-10
-2.08593e-08
-1.42934e-07
-3.58976e-07
3.65574e-19
2.06797e-17
2.93591e-15
7.35757e-14
6.38266e-12
1.42978e-11
5.2485e-10
1.01791e-07
1.90535e-06
1.03649e-06
2.6479e-06
3.09054e-05
0.000645032
0.231414
0.916619
1
0.999999
0.999975
0.970446
0.313356
0.000163134
0.000251588
7.95779e-05
6.44655e-07
7.83707e-08
6.47013e-09
-6.23706e-11
-1.85456e-08
-1.21157e-07
-2.96508e-07
1.40891e-21
3.11288e-19
5.90357e-17
3.69503e-15
6.32376e-13
2.24765e-11
6.82458e-11
8.27711e-09
8.38398e-07
1.46084e-08
8.18148e-07
3.15762e-05
0.0005669
0.122217
0.647505
0.999999
0.999999
0.999969
0.930886
0.108368
0.000286763
2.91619e-05
1.35399e-06
3.48996e-08
-1.95854e-10
-1.77344e-11
-8.2881e-11
-2.49302e-08
-1.07174e-07
-2.33165e-07
1.28619e-23
5.10955e-21
1.43051e-18
2.7502e-16
6.98772e-14
7.73654e-12
1.86028e-11
6.65853e-10
1.38512e-08
2.39716e-09
8.21466e-08
4.79147e-05
0.000629288
0.000549356
0.186151
0.943592
0.999969
0.999851
0.761828
0.041568
3.98302e-05
1.40361e-06
2.10867e-08
1.01234e-08
1.05606e-09
2.73301e-11
-5.96159e-09
-3.86383e-08
-9.46141e-08
-1.6565e-07
2.11521e-25
1.33868e-22
6.44245e-20
2.40497e-17
6.91438e-15
1.18457e-12
1.08659e-11
6.98178e-11
1.78522e-09
2.18926e-09
2.24478e-10
7.2544e-07
3.88391e-06
1.206e-05
0.0206589
0.433639
0.997806
0.932015
0.0144609
4.25216e-05
1.83873e-06
2.22501e-06
6.68168e-07
1.16059e-07
1.17785e-08
2.17333e-10
-1.18277e-08
-3.79594e-08
-6.67159e-08
-9.67402e-08
9.14016e-27
8.24132e-24
5.28459e-21
2.38118e-18
7.13175e-16
1.29096e-13
1.09528e-11
2.06826e-11
3.16247e-10
3.46879e-10
1.64584e-10
6.73782e-11
3.41296e-09
2.54171e-10
8.02853e-06
0.0343302
0.425984
0.457822
0.0289597
-2.23934e-05
-5.88513e-06
-5.10503e-07
-5.77631e-09
-1.16538e-09
5.91941e-13
3.8755e-11
-3.20277e-09
-1.84234e-08
-3.47524e-08
-4.71947e-08
7.91385e-28
7.78803e-25
5.28419e-22
2.44354e-19
7.30808e-17
1.32981e-14
1.37306e-12
1.23034e-11
4.68067e-11
1.10841e-10
8.68905e-11
7.25944e-11
1.74518e-10
-1.14148e-10
-1.30651e-08
3.27767e-05
0.00146911
0.00201998
1.23767e-08
3.87062e-09
4.42548e-09
5.87492e-10
5.75645e-11
2.3129e-12
1.13537e-12
6.77296e-13
-1.21157e-09
-6.59185e-09
-1.4205e-08
-1.93569e-08
7.47205e-29
7.48807e-26
5.14684e-23
2.39068e-20
7.14565e-18
1.31095e-15
1.41912e-13
9.76711e-12
2.05499e-11
7.23773e-11
4.39501e-11
3.13816e-11
3.48571e-11
1.31419e-11
-9.42706e-10
9.58453e-07
3.3749e-05
8.56408e-05
1.47801e-06
1.62781e-08
6.01821e-10
9.10867e-11
5.28516e-11
7.18286e-11
8.06968e-12
5.26625e-13
-5.58595e-10
-2.6434e-09
-4.8551e-09
-5.69779e-09
6.23917e-30
6.3471e-27
4.42173e-24
2.07229e-21
6.24097e-19
1.16001e-16
1.30113e-14
9.94411e-13
1.49285e-11
3.11653e-11
1.64898e-11
1.32304e-11
3.15007e-11
1.1296e-11
1.50983e-11
1.7002e-08
9.74932e-07
9.59526e-06
6.05945e-07
-2.41936e-10
8.41199e-11
3.02173e-11
1.36875e-11
3.37628e-12
7.87639e-13
1.97164e-13
-9.30161e-11
-3.62921e-10
-7.1455e-10
-9.16928e-10
4.33735e-31
4.49847e-28
3.19468e-25
1.52196e-22
4.66335e-20
8.86652e-18
1.03198e-15
8.4805e-14
2.82155e-12
8.43496e-12
4.5008e-12
3.45743e-12
3.70722e-12
1.07911e-11
2.68634e-11
1.91242e-10
1.70382e-08
1.26557e-07
1.3572e-08
2.53948e-11
1.82343e-11
1.39319e-11
1.47673e-12
1.47151e-13
3.23941e-14
2.2541e-14
1.11973e-14
2.52125e-15
2.25463e-16
1.00229e-17
2.45093e-32
2.6053e-29
1.89672e-26
9.24504e-24
2.90556e-21
5.70821e-19
6.9634e-17
6.1962e-15
3.63657e-13
1.58821e-12
9.28185e-13
7.22756e-13
6.45976e-13
1.16317e-12
2.80129e-11
1.70733e-11
5.19742e-11
1.62776e-11
1.73959e-11
4.4464e-12
2.16847e-12
2.96509e-13
3.41686e-14
3.56782e-15
6.66231e-16
3.38039e-16
1.95784e-16
8.79136e-17
2.8358e-17
5.61947e-18
1.11212e-33
1.21918e-30
9.14952e-28
4.58856e-25
1.4883e-22
3.04447e-20
3.92608e-18
3.86147e-16
3.38832e-14
2.18135e-13
1.47411e-13
1.15826e-13
9.44645e-14
1.10102e-13
6.96085e-13
4.08453e-12
1.46414e-11
5.12816e-12
2.18363e-12
3.36792e-13
4.07691e-14
3.95301e-15
3.235e-16
2.55772e-17
3.34043e-18
1.08143e-18
3.42445e-19
7.37483e-20
9.01503e-21
4.63472e-22
4.02283e-35
4.57955e-32
3.56361e-29
1.84881e-26
6.21886e-24
1.33116e-21
1.82146e-19
2.02256e-17
2.35223e-15
2.22916e-14
1.80718e-14
1.40728e-14
1.02376e-14
8.63979e-15
1.13218e-14
1.61319e-14
2.79051e-15
4.29078e-16
6.73649e-17
1.11752e-17
1.96325e-18
3.65049e-19
7.10565e-20
1.56764e-20
4.05048e-21
1.13864e-21
3.02741e-22
6.24731e-23
8.36913e-24
5.3855e-25
1.15467e-36
1.37534e-33
1.11678e-30
6.02668e-28
2.11144e-25
4.74326e-23
6.87484e-21
8.77637e-19
1.24051e-16
1.70647e-15
1.69653e-15
1.27846e-15
7.9183e-16
4.65969e-16
1.97936e-16
3.84781e-17
7.37826e-18
1.49186e-18
3.07302e-19
6.20363e-20
1.19313e-20
2.1433e-21
3.57268e-22
5.41425e-23
7.61758e-24
9.87123e-25
1.19954e-25
1.37824e-26
1.34353e-27
7.85187e-29
2.62063e-38
3.29347e-35
2.80983e-32
1.5863e-29
5.81367e-27
1.37323e-24
2.09857e-22
3.1245e-20
5.03772e-18
9.78948e-17
1.20237e-16
8.52283e-17
4.22035e-17
1.51149e-17
2.58493e-18
4.43351e-19
7.87131e-20
1.41848e-20
2.51447e-21
4.26349e-22
6.78013e-23
9.97361e-24
1.34103e-24
1.63942e-25
1.77364e-26
1.67336e-27
1.28725e-28
7.23755e-30
2.53222e-31
4.19903e-33
4.6876e-40
6.27467e-37
5.66749e-34
3.36838e-31
1.29821e-28
3.23894e-26
5.32137e-24
9.07256e-22
1.59103e-19
4.19566e-18
6.31863e-18
4.06599e-18
1.47621e-18
2.77191e-19
3.92265e-20
5.23329e-21
7.04234e-22
9.65219e-23
1.32427e-23
1.77333e-24
2.26306e-25
2.69392e-26
2.93431e-27
2.86299e-28
2.45871e-29
1.80588e-30
1.10889e-31
5.44862e-33
1.92673e-34
3.63509e-36
6.58564e-42
9.49283e-39
9.15647e-36
5.76943e-33
2.35186e-30
6.22516e-28
1.11531e-25
2.13703e-23
3.93169e-21
1.33636e-19
2.41157e-19
1.34184e-19
3.13439e-20
3.44e-21
3.69466e-22
4.02954e-23
4.40015e-24
4.74848e-25
4.99483e-26
5.05326e-27
4.85253e-28
4.36664e-29
3.6299e-30
2.74055e-31
1.83478e-32
1.05655e-33
4.98692e-35
1.79546e-36
4.36232e-38
5.38288e-40
7.2377e-44
1.13838e-40
1.18452e-37
7.97571e-35
3.45857e-32
9.74102e-30
1.92194e-27
4.06256e-25
7.61697e-23
3.14052e-21
6.52677e-21
2.92088e-21
3.83454e-22
3.31527e-23
2.58978e-24
2.02207e-25
1.61454e-26
1.30763e-27
1.05264e-28
8.22569e-30
6.10732e-31
4.22822e-32
2.68268e-33
1.53215e-34
7.71678e-36
3.33535e-37
1.19055e-38
3.29781e-40
6.30948e-42
6.24834e-44
6.18893e-46
1.07977e-42
1.22697e-39
8.91029e-37
4.13401e-34
1.24052e-31
2.71088e-29
6.19713e-27
1.1543e-24
5.39546e-23
1.21754e-22
3.90094e-23
2.62998e-24
1.75132e-25
1.12237e-26
6.96218e-28
4.2147e-29
2.49361e-30
1.43517e-31
7.96891e-33
4.22401e-34
2.11012e-35
9.78078e-37
4.12685e-38
1.54736e-39
4.9972e-41
1.33094e-42
2.73581e-44
3.85485e-46
2.79294e-48
4.08351e-48
8.07364e-45
1.01764e-41
8.06085e-39
4.02711e-36
1.28746e-33
3.11792e-31
7.54561e-29
1.36084e-26
6.7008e-25
1.51084e-24
2.80563e-25
1.25694e-26
5.3429e-28
2.39102e-29
1.11543e-30
5.25812e-32
2.43964e-33
1.09155e-34
4.63443e-36
1.84132e-37
6.75559e-39
2.25704e-40
6.75757e-42
1.77727e-43
3.99743e-45
7.39502e-47
1.05705e-48
1.03983e-50
5.28614e-53
2.05003e-50
4.72988e-47
6.75298e-44
5.92087e-41
3.21138e-38
1.09361e-35
2.91996e-33
7.30271e-31
1.23961e-28
5.93973e-27
1.18976e-26
9.20962e-28
3.47205e-29
1.08248e-30
3.21074e-32
9.47592e-34
2.82203e-35
8.47565e-37
2.54714e-38
7.55623e-40
2.17316e-41
5.93311e-43
1.50301e-44
3.44783e-46
6.97101e-48
1.2026e-49
1.69511e-51
1.82807e-53
1.34017e-55
5.00337e-58
7.63596e-53
2.14594e-49
3.575e-46
3.5412e-43
2.11027e-40
7.68018e-38
2.23069e-35
5.61367e-33
8.68181e-31
3.71242e-29
5.56074e-29
1.27442e-30
3.39266e-32
8.70866e-34
2.11925e-35
4.93951e-37
1.1071e-38
2.38141e-40
4.88662e-42
9.48579e-44
1.72477e-45
2.90451e-47
4.47106e-49
6.19312e-51
7.56677e-53
7.93861e-55
6.87805e-57
4.62336e-59
2.14739e-61
5.1697e-64
2.01043e-55
7.36948e-52
1.4982e-48
1.72818e-45
1.15319e-42
4.54641e-40
1.40035e-37
3.44719e-35
4.68375e-33
1.62606e-31
1.39121e-31
1.46612e-33
1.61348e-35
2.04584e-37
2.98337e-39
4.72273e-41
7.64499e-43
1.21478e-44
1.84764e-46
2.64526e-48
3.51816e-50
4.29283e-52
4.74133e-54
4.66484e-56
4.00602e-58
2.92121e-60
1.73789e-62
7.91548e-65
2.4554e-67
3.88883e-70
3.3678e-58
1.82679e-54
4.87841e-51
6.8731e-48
5.29159e-45
2.29179e-42
7.32598e-40
1.71828e-37
1.97748e-35
5.05406e-34
1.5571e-34
1.15486e-36
7.37705e-39
4.64048e-41
2.96328e-43
1.92597e-45
1.26615e-47
8.34657e-50
5.47077e-52
3.53868e-54
2.2421e-56
1.37854e-58
8.11244e-61
4.47781e-63
2.25452e-65
9.98063e-68
3.69849e-70
1.0679e-72
2.12333e-75
2.1683e-78
2.74092e-61
2.95363e-57
1.18439e-53
2.20695e-50
2.05942e-47
1.00099e-44
3.27247e-42
7.17201e-40
6.79385e-38
1.17776e-36
8.38095e-38
2.69125e-40
6.56879e-43
1.49027e-45
3.32e-48
7.36784e-51
1.62652e-53
3.54306e-56
7.53369e-59
1.54533e-61
3.02058e-64
5.5543e-67
9.47323e-70
1.47402e-72
2.04931e-75
2.4753e-78
2.49371e-81
1.96348e-84
1.07269e-87
3.04313e-91
-6.88811e-07
-3.60844e-07
-1.39632e-07
-7.96206e-09
2.15638e-08
1.20012e-07
0.000116984
7.81994e-05
5.25098e-05
0.112815
0.825157
0.999838
1
1
1
1
1
1
1
1
1
0.968878
0.803296
0.594467
0.396251
0.243123
0.142074
0.0801745
0.0448078
0.0315625
-6.24517e-07
-3.06598e-07
-1.05005e-07
7.73276e-12
4.21443e-07
2.37037e-07
0.000116794
0.000192747
6.22344e-05
0.0912208
0.921157
0.999908
1
1
1
1
1
1
1
1
0.760388
0.34655
0.117278
0.0248698
0.00126124
2.02296e-06
4.06928e-07
7.36465e-08
4.52867e-11
4.75679e-11
-5.6129e-07
-2.58412e-07
-7.80692e-08
8.67296e-10
5.78754e-07
3.67396e-07
1.65882e-05
0.000443929
0.000108798
0.104046
0.94089
0.999952
1
1
1
1
0.999979
0.999645
0.978766
0.626791
0.113386
0.0015523
0.000158971
1.23757e-05
2.23187e-07
8.95659e-09
1.00567e-09
4.75162e-11
1.13067e-11
4.75424e-11
-4.98604e-07
-2.16947e-07
-5.57865e-08
1.25183e-10
1.61003e-07
5.66731e-07
1.15554e-06
9.13328e-06
0.000109347
0.0804968
0.793873
0.999988
0.999999
1
1
1
1
0.999999
0.931398
0.628137
0.252182
0.00337456
3.05562e-05
2.23174e-07
8.75367e-09
1.94085e-10
6.15252e-11
1.69572e-11
1.08691e-11
9.94837e-12
-4.36121e-07
-1.81792e-07
-3.9071e-08
-1.3958e-10
6.03348e-08
2.77083e-06
4.10073e-06
5.64931e-06
1.95201e-05
0.0410491
0.748878
0.999912
1
1
1
1
1
0.956462
0.829941
0.41137
0.0148486
0.00679441
0.000335524
3.68865e-08
1.70784e-10
4.21505e-11
6.21582e-11
5.36353e-12
1.21799e-13
1.07432e-13
-3.71984e-07
-1.51627e-07
-2.76547e-08
4.64475e-11
1.12746e-08
2.25989e-06
1.15765e-05
4.93499e-05
6.58213e-05
9.79368e-05
0.492367
0.999311
0.999999
1
1
1
0.755234
0.289169
0.138922
0.0234334
3.27301e-06
0.000490006
8.45597e-05
3.34545e-07
3.48153e-11
1.49934e-11
1.94198e-12
1.33648e-13
1.47203e-15
1.92329e-16
-3.07285e-07
-1.28692e-07
-2.44007e-08
4.0262e-12
6.15011e-09
7.5368e-08
6.39785e-07
7.7164e-05
0.000261222
0.000179595
0.309359
0.968674
0.999974
0.999999
1
0.913055
0.225836
0.000586627
3.74635e-05
3.09455e-06
1.10102e-06
2.2666e-06
1.11681e-07
1.76758e-08
2.11436e-11
6.13336e-12
7.35221e-14
2.91679e-15
2.05251e-17
3.65236e-19
-2.4041e-07
-1.12525e-07
-2.91964e-08
-4.11537e-11
8.52277e-11
1.60026e-10
3.13337e-08
9.28117e-07
2.82085e-05
0.000287658
0.108857
0.932416
0.999969
0.999999
0.999999
0.646254
0.123133
0.000577208
3.31449e-05
8.76539e-07
1.60462e-08
8.58162e-07
8.87109e-09
8.19455e-11
1.89444e-11
6.91337e-13
3.88738e-15
5.89656e-17
3.08319e-19
1.40032e-21
-1.69119e-07
-9.7212e-08
-4.05809e-08
-6.22644e-09
3.44325e-11
1.08486e-09
1.18665e-08
2.1033e-08
9.71437e-07
4.11582e-05
0.0417109
0.761958
0.999851
0.999969
0.943315
0.183748
0.000558067
0.000644753
4.96194e-05
1.09027e-07
1.752e-09
1.54215e-08
7.44844e-10
2.85071e-11
8.52729e-12
8.06594e-14
3.15978e-16
1.51587e-18
5.1955e-21
1.28512e-23
-9.79717e-08
-6.76139e-08
-3.81328e-08
-1.15114e-08
2.46191e-10
1.1255e-08
1.15793e-07
7.548e-07
2.56316e-06
2.51533e-06
4.64112e-05
0.0137833
0.932698
0.998058
0.433538
0.0210327
1.18503e-05
4.039e-06
7.95654e-07
2.76626e-10
2.04989e-09
1.55406e-09
7.84909e-11
1.30398e-11
1.43324e-12
8.55329e-15
3.01786e-17
7.87701e-20
1.56038e-22
2.33871e-25
-4.75195e-08
-3.50659e-08
-1.84621e-08
-3.1873e-09
4.071e-11
1.12046e-11
-1.04992e-09
-5.24645e-09
-4.98145e-07
-6.00231e-06
-2.24717e-05
0.0293379
0.455776
0.427401
0.0339673
7.77307e-06
2.6595e-10
3.74757e-09
1.02623e-10
1.91652e-10
3.26147e-10
2.91178e-10
2.28789e-11
1.27999e-11
1.60308e-13
9.1571e-16
3.1471e-18
7.11429e-21
1.11434e-23
1.22021e-26
-1.9336e-08
-1.42695e-08
-6.57809e-09
-1.1798e-09
7.62044e-13
1.23736e-12
2.43203e-12
5.35605e-11
5.45274e-10
4.61428e-09
4.09942e-09
1.40173e-08
0.00185651
0.0014523
3.06394e-05
-1.28129e-08
-1.20047e-10
1.81935e-10
7.67673e-11
9.16839e-11
1.07104e-10
4.81073e-11
1.26821e-11
1.60629e-12
1.65838e-14
9.47036e-17
3.27089e-19
7.25792e-22
1.08752e-24
1.11143e-27
-5.62832e-09
-4.84875e-09
-2.61976e-09
-5.41521e-10
5.59552e-13
8.22538e-12
7.24116e-11
5.16796e-11
9.12242e-11
6.01287e-10
1.65336e-08
2.31271e-06
9.43009e-05
3.15246e-05
8.73622e-07
-8.82302e-10
1.38424e-11
3.62207e-11
3.25721e-11
4.79574e-11
7.6532e-11
2.02989e-11
9.42232e-12
1.65196e-13
1.6312e-15
9.24853e-18
3.18615e-20
7.00178e-23
1.02992e-25
1.02899e-28
-8.99693e-10
-7.07774e-10
-3.5539e-10
-9.00773e-11
1.99163e-13
7.75326e-13
3.3007e-12
1.35953e-11
3.03761e-11
8.3317e-11
-5.51536e-10
6.16865e-07
9.43278e-06
8.88072e-07
1.4993e-08
1.75536e-11
1.15556e-11
3.26698e-11
1.40727e-11
1.84606e-11
3.41228e-11
1.4893e-11
1.00813e-12
1.53989e-14
1.45628e-16
8.10077e-19
2.74764e-21
5.9311e-24
8.53291e-27
8.33327e-30
1.23538e-17
2.50699e-16
2.64044e-15
1.15587e-14
2.31997e-14
3.33808e-14
1.47654e-13
1.45045e-12
1.33488e-11
1.79066e-11
2.82534e-11
1.27024e-08
1.08458e-07
1.50183e-08
1.65882e-10
2.69501e-11
1.08642e-11
3.7895e-12
3.68032e-12
5.0913e-12
9.43443e-12
2.8067e-12
9.15603e-14
1.25833e-15
1.13175e-17
6.09365e-20
2.01119e-22
4.22913e-25
5.91578e-28
5.62444e-31
6.32581e-18
3.12194e-17
9.60994e-17
2.1403e-16
3.71683e-16
7.19235e-16
3.62689e-15
3.38251e-14
2.89498e-13
2.09143e-12
4.40341e-12
1.70479e-11
1.51651e-11
4.31881e-11
1.68191e-11
2.50601e-11
1.16287e-12
6.63823e-13
7.69277e-13
1.05118e-12
1.80351e-12
3.68761e-13
7.10663e-15
8.75945e-17
7.40975e-19
3.81803e-21
1.21589e-23
2.47557e-26
3.35097e-29
3.08905e-32
5.98354e-22
1.10674e-20
8.96579e-20
4.17238e-19
1.3107e-18
3.79936e-18
2.59555e-17
3.16632e-16
3.8148e-15
3.88786e-14
3.17506e-13
2.0209e-12
4.53389e-12
1.4736e-11
3.30937e-12
5.93492e-13
1.11317e-13
9.76342e-14
1.23287e-13
1.66304e-13
2.50623e-13
3.54577e-14
4.65186e-16
5.06445e-18
3.99613e-20
1.95606e-22
5.9784e-25
1.1734e-27
1.53087e-30
1.36205e-33
7.83864e-25
1.24323e-23
9.21309e-23
4.35561e-22
1.5642e-21
5.14486e-21
1.80048e-20
7.53665e-20
3.73165e-19
1.96802e-18
1.09413e-17
6.3847e-17
3.90243e-16
2.41235e-15
1.29969e-14
1.03433e-14
8.82794e-15
1.06449e-14
1.49942e-14
2.02613e-14
2.58432e-14
2.55593e-15
2.52261e-17
2.38738e-19
1.7522e-21
8.11618e-24
2.37263e-26
4.47285e-29
5.60192e-32
4.7861e-35
1.37893e-28
2.16945e-27
2.04892e-26
1.61415e-25
1.19544e-24
8.48295e-24
5.74564e-23
3.71833e-22
2.21922e-21
1.23599e-20
6.44092e-20
3.19672e-19
1.55196e-18
7.64531e-18
3.93862e-17
1.96931e-16
4.80637e-16
8.29237e-16
1.36495e-15
1.88869e-15
1.9908e-15
1.40034e-16
1.11801e-18
9.0671e-21
6.20669e-23
2.71684e-25
7.57845e-28
1.36748e-30
1.63687e-33
1.33497e-36
5.19459e-33
2.95488e-31
8.01821e-30
1.37887e-28
1.76046e-27
1.85189e-26
1.70905e-25
1.39993e-24
1.04443e-23
7.12874e-23
4.50262e-22
2.66696e-21
1.5097e-20
8.3923e-20
4.72284e-19
2.739e-18
1.58398e-17
4.45815e-17
9.12647e-17
1.32927e-16
1.14594e-16
5.88645e-18
4.0159e-20
2.75019e-22
1.77147e-24
7.33084e-27
1.94711e-29
3.35058e-32
3.81347e-35
2.94806e-38
3.86469e-36
2.0255e-34
5.70861e-33
1.16157e-31
1.89417e-30
2.58449e-29
3.01764e-28
3.10242e-27
2.85742e-26
2.408e-25
1.89244e-24
1.41684e-23
1.03481e-22
7.5617e-22
5.62462e-21
4.2156e-20
2.97249e-19
1.57621e-18
4.3708e-18
6.94123e-18
4.91374e-18
1.9108e-19
1.16372e-21
6.85656e-24
4.08961e-26
1.59706e-28
4.02692e-31
6.57913e-34
7.07595e-37
5.1414e-40
5.76259e-40
4.65332e-38
1.91296e-36
5.31387e-35
1.12687e-33
1.95974e-32
2.93241e-31
3.89167e-30
4.69157e-29
5.22569e-28
5.45531e-27
5.40585e-26
5.15126e-25
4.78165e-24
4.38091e-23
4.01146e-22
3.72663e-21
3.39852e-20
1.44955e-19
2.63473e-19
1.56157e-19
4.80825e-21
2.71298e-23
1.40372e-25
7.66022e-28
2.81605e-30
6.71419e-33
1.03569e-35
1.04458e-38
7.06019e-42
6.81277e-44
6.84617e-42
3.57056e-40
1.28824e-38
3.61063e-37
8.36372e-36
1.66351e-34
2.91877e-33
4.61037e-32
6.67251e-31
8.99977e-30
1.1523e-28
1.43062e-27
1.76375e-26
2.2056e-25
2.82513e-24
3.62914e-23
4.22535e-22
3.17612e-21
7.09959e-21
3.65281e-21
9.38812e-23
5.06785e-25
2.35563e-27
1.16595e-29
4.02853e-32
9.04187e-35
1.30773e-37
1.2252e-40
7.60452e-44
3.10717e-48
4.26636e-46
3.01756e-44
1.46439e-42
5.48681e-41
1.69556e-39
4.51275e-38
1.06727e-36
2.29794e-35
4.59257e-34
8.6565e-33
1.55924e-31
2.71301e-30
4.59848e-29
7.62823e-28
1.23638e-26
1.93906e-25
2.91248e-24
4.28285e-23
1.32039e-22
6.23459e-23
1.4198e-24
7.56234e-27
3.2303e-29
1.44406e-31
4.68778e-34
9.85556e-37
1.32503e-39
1.13955e-42
6.38994e-46
5.92396e-53
1.15136e-50
1.16198e-48
8.09208e-47
4.36246e-45
1.93711e-43
7.3643e-42
2.46157e-40
7.37845e-39
2.01491e-37
5.08191e-36
1.19926e-34
2.68403e-33
5.78654e-32
1.22609e-30
2.62196e-29
5.85032e-28
1.38234e-26
3.13249e-25
1.6364e-24
7.68159e-25
1.65673e-26
8.98445e-29
3.61242e-31
1.45901e-33
4.45248e-36
8.71607e-39
1.07746e-41
8.37615e-45
4.15359e-48
5.86866e-58
1.54504e-55
2.08843e-53
1.92554e-51
1.36067e-49
7.86239e-48
3.87686e-46
1.68411e-44
6.61853e-43
2.41065e-41
8.32675e-40
2.78765e-38
9.22168e-37
3.06003e-35
1.02786e-33
3.49982e-32
1.19176e-30
3.88109e-29
1.04748e-27
1.29019e-26
6.74959e-27
1.4849e-28
8.47768e-31
3.29346e-33
1.20864e-35
3.4686e-38
6.27149e-41
7.02553e-44
4.83528e-47
2.05909e-50
5.98344e-64
2.41475e-61
5.10555e-59
7.49962e-57
8.57898e-55
8.12774e-53
6.62737e-51
4.77575e-49
3.10169e-47
1.844e-45
1.01665e-43
5.2572e-42
2.57558e-40
1.20589e-38
5.43059e-37
2.35774e-35
9.82314e-34
3.87029e-32
1.44447e-30
6.06316e-29
4.18082e-29
1.0197e-30
6.3578e-33
2.45418e-35
8.28971e-38
2.23123e-40
3.68156e-43
3.66187e-46
2.16626e-49
7.58997e-53
4.45186e-70
2.762e-67
8.82164e-65
1.92631e-62
3.22777e-60
4.41954e-58
5.14425e-56
5.23096e-54
4.74128e-52
3.89148e-50
2.93074e-48
2.04991e-46
1.34859e-44
8.47822e-43
5.21749e-41
3.27182e-39
2.22325e-37
1.74476e-35
1.59402e-33
1.53638e-31
1.81547e-31
5.38657e-33
3.81471e-35
1.50596e-37
4.803e-40
1.19588e-42
1.76652e-45
1.51348e-48
7.36007e-52
1.98166e-55
2.67785e-78
2.5699e-75
1.27448e-72
4.35783e-70
1.1601e-67
2.58015e-65
5.03428e-63
8.94597e-61
1.49119e-58
2.38444e-56
3.71533e-54
5.70008e-52
8.67535e-50
1.31896e-47
2.0186e-45
3.13506e-43
4.97031e-41
8.02453e-39
1.28115e-36
1.7773e-34
5.59967e-34
2.22752e-35
1.86185e-37
7.7198e-40
2.37533e-42
5.3919e-45
6.91764e-48
4.86707e-51
1.80835e-54
3.29988e-58
3.2447e-91
1.12637e-87
2.04132e-84
2.5751e-81
2.54445e-78
2.10044e-75
1.50843e-72
9.69096e-70
5.68656e-67
3.09877e-64
1.59068e-61
7.79294e-59
3.6896e-56
1.70873e-53
7.82734e-51
3.5766e-48
1.63317e-45
7.35055e-43
3.08972e-40
9.93501e-38
1.29671e-36
7.50691e-38
7.62747e-40
3.38763e-42
1.01993e-44
2.06518e-47
2.18964e-50
1.16834e-53
2.90447e-57
2.68238e-61
)
;

boundaryField
{
    leftWall
    {
        type            zeroGradient;
    }
    rightWall
    {
        type            zeroGradient;
    }
    lowerWall
    {
        type            zeroGradient;
    }
    atmosphere
    {
        type            inletOutlet;
        inletValue      uniform 0;
        value           nonuniform List<scalar> 
120
(
0.0315657
4.75573e-11
4.75318e-11
9.94814e-12
1.0741e-13
1.92304e-16
3.65574e-19
1.40891e-21
1.28619e-23
2.11521e-25
9.14016e-27
7.91385e-28
7.47205e-29
6.23917e-30
4.33735e-31
2.45093e-32
1.11212e-33
4.02283e-35
1.15467e-36
2.62063e-38
4.6876e-40
6.58564e-42
7.2377e-44
6.18893e-46
4.08351e-48
2.05003e-50
7.63596e-53
2.01043e-55
3.3678e-58
2.74092e-61
2.74092e-61
2.95363e-57
1.18439e-53
2.20695e-50
2.05942e-47
1.00099e-44
3.27247e-42
7.17201e-40
6.79385e-38
1.17776e-36
0
0
0
0
0
0
0
0
0
0
0
0
0
0
0
0
0
0
0
0
0
0
0
0
0
0
0
0
0
0
0
0
0
0
0
0
0
0
0
0
1.29671e-36
7.50691e-38
7.62747e-40
3.38763e-42
1.01993e-44
2.06518e-47
2.18964e-50
1.16834e-53
2.90447e-57
2.68238e-61
0.0315625
4.75679e-11
4.75424e-11
9.94837e-12
1.07432e-13
1.92329e-16
3.65236e-19
1.40032e-21
1.28512e-23
2.33871e-25
1.22021e-26
1.11143e-27
1.02899e-28
8.33327e-30
5.62444e-31
3.08905e-32
1.36205e-33
4.7861e-35
1.33497e-36
2.94806e-38
5.1414e-40
7.06019e-42
7.60452e-44
6.38994e-46
4.15359e-48
2.05909e-50
7.58997e-53
1.98166e-55
3.29988e-58
2.68238e-61
)
;
    }
    defaultFaces
    {
        type            empty;
    }
}


// ************************************************************************* //
