/*--------------------------------*- C++ -*----------------------------------*\
| =========                 |                                                 |
| \\      /  F ield         | OpenFOAM: The Open Source CFD Toolbox           |
|  \\    /   O peration     | Version:  2.4.0                                 |
|   \\  /    A nd           | Web:      www.OpenFOAM.org                      |
|    \\/     M anipulation  |                                                 |
\*---------------------------------------------------------------------------*/
FoamFile
{
    version     2.0;
    format      ascii;
    class       volScalarField;
    location    "0.011";
    object      p;
}
// * * * * * * * * * * * * * * * * * * * * * * * * * * * * * * * * * * * * * //

dimensions      [1 -1 -2 0 0 0 0];

internalField   nonuniform List<scalar> 
3600
(
96.2986
96.4028
96.6215
96.9756
97.4914
98.1773
99.0117
99.9346
100.847
101.625
102.146
102.309
102.058
101.405
100.45
99.3789
98.4533
97.9932
98.3697
100.002
103.288
108.363
114.9
122.018
128.789
134.767
139.828
143.621
145.684
146.232
93.0384
93.1425
93.3609
93.7147
94.2302
94.9161
95.7512
96.6757
97.5906
98.3727
98.8991
99.067
98.8182
98.1635
97.1967
96.0989
95.1245
94.5852
94.8424
96.3122
99.4223
104.384
110.922
118.127
124.918
130.82
135.95
140.031
142.17
142.264
89.7777
89.8814
90.0992
90.4522
90.9668
91.6522
92.4876
93.4141
94.3331
95.121
95.6544
95.8287
95.5825
94.9203
93.9278
92.7754
91.7052
91.0126
91.0396
92.1904
94.941
99.6496
106.173
113.567
120.413
126.068
131.224
135.947
138.304
137.247
86.5164
86.6196
86.8364
87.1879
87.7009
88.385
89.2204
90.149
91.0728
91.8677
92.4097
92.5916
92.3468
91.6717
90.6394
89.4052
88.1932
87.2765
86.9677
87.6421
89.8181
94.0871
100.528
108.256
115.29
120.364
125.137
130.939
133.278
130.475
83.2547
83.3572
83.5725
83.9219
84.4325
85.1147
85.9495
86.8802
87.8097
88.6128
89.165
89.3558
89.1121
88.4194
87.3349
85.9941
84.5981
83.3901
82.6427
82.6719
83.9858
87.4597
93.6537
101.917
109.58
113.696
116.501
123.617
123.503
120.358
79.9925
80.094
80.3075
80.6543
81.1617
81.8412
82.675
83.6078
84.5437
85.3564
85.9205
86.1218
85.8792
85.1659
84.0191
82.5507
80.9334
79.3731
78.089
77.3008
77.3942
79.4666
84.9531
93.9409
103.338
106.792
103.778
111.424
106.746
105.195
76.7297
76.8301
77.0414
77.3849
77.8885
78.5644
79.3967
80.3317
81.2747
82.0983
82.6761
82.8897
82.6493
81.9138
80.6977
79.0851
77.2161
75.2513
73.3429
71.575
70.0323
69.7249
73.3029
82.9486
95.8492
99.9066
88.2141
95.8599
89.4804
93.4869
73.4665
73.5655
73.7742
74.1137
74.6127
75.2845
76.1146
77.0517
78.0027
78.8383
79.4318
79.6599
79.4236
78.6663
77.3772
75.609
73.4659
71.0558
68.4458
65.5491
61.9212
57.7345
56.8937
65.464
82.5103
87.2805
73.7428
82.1491
82.5687
90.8154
70.2028
70.3002
70.5059
70.8409
71.3345
72.0012
72.8286
73.7677
74.7275
75.5764
76.1874
76.4327
76.2031
75.4266
74.0647
72.136
69.7075
66.8329
63.4835
59.3807
53.2923
43.2207
32.3444
34.0132
52.9484
65.1774
65.6811
71.2739
76.1333
81.5843
66.9386
67.0343
67.2365
67.5665
68.0538
68.7148
69.5387
70.4795
71.4489
72.3122
72.9428
73.2083
72.9891
72.1982
70.7679
68.6802
65.9644
62.6183
58.4888
53.0477
44.2259
26.7019
1.08236
-10.6927
9.31449
42.3155
58.6709
56.3079
62.0207
62.7076
63.6739
63.7677
63.9661
64.2903
64.7707
65.425
66.2448
67.1871
68.1668
69.0456
69.698
69.9869
69.7825
68.9844
67.4949
65.2579
62.2702
58.4982
53.704
47.0951
35.9458
11.6736
-28.0385
-53.3197
-30.2272
17.42
36.6936
38.1863
45.9851
45.6157
60.4088
60.5004
60.6946
61.0125
61.4852
62.1319
62.9469
63.8903
64.881
65.7764
66.4525
66.7685
66.5843
65.7885
64.2534
61.8832
58.6446
54.4853
49.124
41.5962
29.1336
2.6443
-43.2524
-71.3815
-47.8731
-2.45145
12.2089
21.7876
29.2353
29.7458
57.1432
57.2325
57.4221
57.7331
58.1971
58.8354
59.6447
60.5888
61.5914
62.5041
63.2062
63.5532
63.3949
62.6131
61.0513
58.5736
55.1278
50.6829
45.0413
37.2969
24.8325
1.33407
-39.601
-68.7242
-45.7526
-5.68838
0.548626
8.18937
14.6625
15.6446
53.8772
53.9639
54.1486
54.452
54.9067
55.5356
56.3382
57.2823
58.2977
59.2285
59.9586
60.3408
60.2145
59.4602
57.8949
55.3414
51.7359
47.1045
41.4898
34.4884
23.9709
6.88428
-22.0463
-47.0511
-35.1849
-9.89517
-5.08807
-0.585531
4.14678
6.6987
50.6108
50.6948
50.8742
51.1693
51.6138
52.2324
53.0274
53.9708
54.9998
55.9492
56.7093
57.131
57.0427
56.3311
54.79
52.1978
48.484
43.7339
38.2429
32.2965
24.9929
15.4667
3.99962
-19.0608
-16.822
-12.3194
-14.9256
-10.9588
-7.30185
-5.75843
47.3439
47.425
47.5987
47.8851
48.3185
48.9257
49.7122
50.6537
51.6974
52.6657
53.4576
53.9234
53.8785
53.2258
51.7408
49.1516
45.3839
40.5738
35.2264
30.258
26.0928
22.3672
23.2133
-3.18496
-3.55407
-11.927
-16.2442
-11.0337
-5.93437
-4.44327
44.0767
44.1547
44.3223
44.5993
45.0208
45.6157
46.3923
47.3309
48.3904
49.3776
50.2028
50.7176
50.7203
50.1428
48.7495
46.2061
42.4321
37.5769
32.2144
27.6467
25.3954
24.119
27.5932
-2.68136
4.45096
-2.94667
-1.31601
0.136162
0.184112
0.242765
40.809
40.8838
41.045
41.312
41.7207
42.3022
43.0678
44.002
45.0785
46.0843
46.9441
47.513
47.5656
47.0789
45.8166
43.3634
39.6294
34.7415
29.1643
24.1176
21.9667
22.2917
17.2197
-13.2807
-0.580272
0.047084
0.174661
0.152619
0.180386
0.207629
37.541
37.6124
37.7669
38.0232
38.4183
38.9853
39.7386
40.6665
41.7617
42.7852
43.6805
44.3091
44.4114
44.029
42.941
40.62
36.9613
32.0143
25.8516
19.1575
14.4265
16.767
2.87675
-2.76392
0.413031
0.301401
0.24186
0.188156
0.201175
0.21659
34.2727
34.3404
34.4879
34.733
35.1135
35.6648
36.4046
37.3239
38.4398
39.4798
40.4107
41.1058
41.2534
40.9853
40.1216
37.9809
34.4395
29.5326
23.0262
15.0894
7.74694
11.0345
-0.836741
0.230998
0.314733
0.344213
0.26881
0.231303
0.2335
0.244274
31.004
31.068
31.208
31.4414
31.8064
32.341
33.0657
33.9738
35.1127
36.1673
37.1333
37.9033
38.0872
37.9365
37.3476
35.4121
31.979
27.0761
19.4366
5.23192
-9.08752
-2.70444
0.00404706
0.261698
0.281376
0.270379
0.242369
0.232184
0.238902
0.245969
27.735
27.7951
27.9274
28.1483
28.497
29.0137
29.7219
30.6154
31.7805
32.8471
33.8464
34.7022
34.9066
34.8707
34.6425
33.0335
29.7466
25.0734
18.4674
5.94008
-19.7557
-4.68495
0.151908
0.276985
0.233393
0.232752
0.222592
0.220729
0.224943
0.227277
24.4657
24.5217
24.646
24.854
25.1853
25.6829
26.3731
27.248
28.4431
29.5187
30.5484
31.5052
31.7061
31.7556
31.8978
30.4871
27.2228
23.0585
15.7678
-7.46507
-44.1961
-0.446678
0.285743
0.326667
0.234339
0.224393
0.21567
0.214541
0.217959
0.2199
21.1961
21.2479
21.364
21.5583
21.8715
22.3487
23.0196
23.8706
25.1006
26.1807
27.2352
28.3124
28.4794
28.6158
29.4234
28.8932
25.2069
20.2456
15.2077
7.37015
1.51432
0.239453
0.23676
0.227321
0.215786
0.223928
0.211255
0.207409
0.205863
0.206762
17.9263
17.9738
18.0813
18.2614
18.5555
19.0111
19.6613
20.4825
21.7539
22.8346
23.9093
25.1353
25.2062
25.2537
26.332
25.5549
21.9788
20.6297
18.7236
10.9658
-0.505087
0.195582
0.0258885
0.197188
0.210406
0.203026
0.197666
0.191163
0.191948
0.19203
14.6562
14.6992
14.7979
14.9634
15.2373
15.6699
16.2981
17.0811
18.4002
19.4725
20.5541
21.9712
21.9451
22.1113
24.7459
26.9254
19.5692
9.79157
10.8387
12.6561
-5.30553
0.21682
0.149375
0.172183
0.194662
0.17561
0.17408
0.170413
0.173251
0.174281
11.3859
11.4244
11.514
11.6642
11.9173
12.3263
12.9326
13.6701
15.0508
16.1144
17.1936
18.8163
18.4257
17.8855
20.213
24.3631
21.3143
10.3328
25.9368
30.88
8.29331
0.25453
0.175404
0.129012
0.143876
0.137704
0.14363
0.14553
0.148426
0.150281
8.11506
8.14853
8.22809
8.36136
8.59071
8.97164
9.55142
10.2265
11.6749
12.72
13.8042
15.8159
15.4096
14.8959
17.1363
20.3365
16.6133
12.8052
22.0199
14.6348
1.65837
0.0814995
0.138606
0.0700625
0.0930306
0.0980351
0.11312
0.117514
0.121992
0.124148
4.8456
4.87529
4.94804
5.06799
5.27831
5.63624
6.1949
6.79484
8.32134
9.32024
10.3115
12.4594
11.0332
9.85053
14.6342
22.4425
21.7607
10.7327
4.32991
12.7025
-1.05753
-0.048056
0.0291622
-0.0163311
0.0413412
0.0534039
0.078908
0.0867136
0.0914676
0.093559
1.57282
1.59526
1.65197
1.75004
1.93256
2.26363
2.80977
3.33377
4.97616
5.98393
7.03962
9.88513
7.34162
3.75847
7.17541
17.6406
22.3042
12.0432
-1.58531
5.03879
-0.34175
-0.161249
-0.200492
-0.0891234
-0.0238207
0.0167636
0.0436873
0.0588611
0.064866
0.0673072
146.232
145.683
143.616
139.819
134.753
128.773
122.003
114.888
108.354
103.278
99.99
98.3549
97.9753
98.4324
99.3554
100.425
101.379
102.032
102.285
102.123
101.603
100.824
99.9117
98.9894
98.1574
97.4755
96.964
96.6133
96.3975
96.2946
142.264
142.17
140.028
135.941
130.804
124.9
118.111
110.911
104.376
99.4128
96.3003
94.8276
94.5673
95.1036
96.0753
97.1713
98.1373
98.7923
99.0422
98.8758
98.3505
97.5684
96.6528
95.7288
94.8962
94.2143
93.703
93.3527
93.1371
93.0344
137.247
138.307
135.947
131.215
126.048
120.391
113.55
106.162
99.6428
94.9322
92.1788
91.0249
90.9947
91.6842
92.7517
93.9023
94.894
95.5564
95.804
95.6311
95.0987
94.3109
93.3912
92.4652
91.6322
90.9509
90.4405
90.0911
89.8761
89.7737
130.475
133.286
130.946
125.129
120.337
115.262
108.238
100.519
94.0817
89.8101
87.631
86.9532
87.2584
88.172
89.3812
90.6136
91.6451
92.3206
92.5668
92.3864
91.8455
91.0507
90.126
89.1979
88.3651
87.685
87.1763
86.8283
86.6143
86.5125
120.357
123.509
123.633
116.492
113.653
109.545
101.901
93.6483
87.4541
83.9785
82.661
82.6281
83.3719
84.5766
85.9697
87.3087
88.3925
89.0857
89.331
89.1418
88.5908
87.7876
86.8572
85.9269
85.0947
84.4166
83.9104
83.5645
83.3519
83.2508
105.183
106.739
111.443
103.762
106.721
103.294
93.9304
84.9558
79.4653
77.3878
77.2902
78.0745
79.3546
80.9115
82.5258
83.9924
85.1386
85.8527
86.0969
85.8974
85.3345
84.5217
83.5846
82.6522
81.8211
81.1458
80.6427
80.2995
80.0887
79.9886
93.4669
89.4586
95.8541
88.1815
99.8172
95.8055
82.9542
73.3205
69.7289
70.0269
71.5646
73.3281
75.2324
77.1936
79.0596
80.6705
81.8861
82.6225
82.8648
82.6531
82.0766
81.2529
80.3084
79.3737
78.5443
77.8725
77.3734
77.0334
76.8249
76.7259
90.8054
82.557
82.1195
73.6806
87.2395
82.4938
65.5047
56.9262
57.7417
61.916
65.5386
68.4305
71.0362
73.4427
75.5828
77.3492
78.638
79.3965
79.6349
79.4089
78.8168
77.981
77.0282
76.0914
75.2642
74.5968
74.1023
73.7663
73.5604
73.4628
81.5912
76.1547
71.2846
65.6133
65.1995
53.0094
34.1132
32.3928
43.2253
53.2854
59.3696
63.4675
66.8125
69.6834
72.1089
74.0359
75.3977
76.1757
76.4076
76.1647
75.5551
74.7059
73.744
72.8052
71.9809
71.3186
70.8296
70.498
70.2951
70.1991
62.7186
62.0723
56.3629
58.7352
42.3816
9.42412
-10.5735
1.11814
26.6965
44.2153
53.0352
58.4716
62.5968
65.9391
68.652
70.7382
72.1685
72.9613
73.1831
72.9203
72.2912
71.4275
70.4556
69.515
68.6943
68.038
67.5552
67.2287
67.0293
66.935
45.6135
46.0271
38.1946
36.7891
17.4777
-30.1585
-53.2716
-28.0543
11.6464
35.9294
47.0801
53.6851
58.4753
62.2437
65.2285
67.4641
68.954
69.7543
69.9617
69.6757
69.025
68.1456
67.163
66.2207
65.4044
64.7549
64.2791
63.9584
63.7627
63.6704
29.7418
29.2382
21.7317
12.1705
-2.46972
-47.8869
-71.3895
-43.2988
2.59753
29.1107
41.5775
49.1028
54.4608
58.6167
61.8524
64.2214
65.7571
66.5556
66.7432
66.4305
65.7561
64.8601
63.8658
62.9224
62.1111
61.4694
61.0014
60.687
60.4955
60.4053
15.645
14.6644
8.11197
0.442131
-5.73347
-45.7852
-68.7196
-39.6424
1.27736
24.8062
37.2752
45.018
50.6567
55.0982
58.5412
61.0178
62.5807
63.3658
63.5279
63.1845
62.4843
61.5707
60.5638
59.6197
58.8145
58.1814
57.722
57.4146
57.2277
57.1399
6.71145
4.14055
-0.674127
-5.19897
-9.92298
-35.2042
-47.0216
-22.0457
6.82718
23.9455
34.4647
41.4645
47.0766
51.7046
55.3072
57.8599
59.4267
60.1849
60.3155
59.9373
59.2093
58.2774
57.2569
56.3128
55.5145
54.891
54.4411
54.1413
53.9592
53.8739
-5.75792
-7.36469
-11.064
-15.0041
-12.291
-16.8288
-19.028
4.02028
15.4232
24.9699
32.2712
38.2158
43.7043
48.4508
52.1616
54.7532
56.2963
57.0125
57.1057
56.6884
55.9306
54.9799
53.9448
53.0014
52.2112
51.5982
51.1586
50.8669
50.6902
50.6076
-4.45221
-5.98215
-11.1409
-16.2389
-11.7948
-3.50552
-3.14491
23.2575
22.3223
26.0698
30.2314
35.1977
40.5425
45.3487
49.1131
51.7019
53.1896
53.8478
53.8982
53.4373
52.6478
51.6781
50.6271
49.6855
48.9044
48.303
47.8745
47.5916
47.4205
47.3409
0.243696
0.184945
0.132667
-1.33662
-2.95033
4.49842
-2.6481
27.6221
24.081
25.3708
27.6184
32.1845
37.5442
42.3947
46.1652
48.7083
50.105
50.689
50.6925
50.1831
49.3606
48.3717
47.3034
46.3649
45.5942
45.0054
44.5888
44.3153
44.1503
44.0737
0.206882
0.178292
0.149719
0.170259
0.0396222
-0.585065
-13.3235
17.217
22.251
21.9349
24.087
29.1338
34.7074
39.5896
43.3196
45.7728
47.0395
47.5339
47.488
46.9251
46.0682
45.0607
43.9735
43.0396
42.2805
41.7054
41.3017
41.0382
40.8795
40.8062
0.215953
0.199871
0.186729
0.239551
0.298843
0.422211
-2.76054
2.82911
16.7097
14.3916
19.1246
25.8212
31.979
36.9189
40.573
42.8943
43.9878
44.3793
44.2844
43.6623
42.7702
41.7449
40.6367
39.7095
38.9634
38.4031
38.0131
37.7602
37.6082
37.5383
0.243733
0.232448
0.230501
0.267069
0.341615
0.319445
0.241937
-0.83758
10.9895
7.69683
15.0551
22.9968
29.4961
34.3942
37.9303
40.0716
40.9422
41.2212
41.0814
40.3935
39.466
38.4242
37.2927
36.3745
35.6429
35.0985
34.7231
34.4814
34.3364
34.2701
0.245408
0.237544
0.230155
0.240243
0.269759
0.283186
0.266966
0.00447667
-2.72583
-9.09947
5.20036
19.4119
27.039
31.9298
35.3572
37.2936
37.8914
38.0549
37.8793
37.1171
36.1549
35.0986
33.9407
33.0345
32.3189
31.7916
31.4316
31.2017
31.0641
31.0016
0.226846
0.223897
0.218781
0.220978
0.233391
0.236633
0.281411
0.150129
-4.72205
-19.8341
5.9066
18.4462
25.0346
29.6946
32.9747
34.584
34.8235
34.8746
34.6785
33.8315
32.8362
31.7682
30.5801
29.6895
28.9915
28.4824
28.1388
27.9213
27.7913
27.7327
0.219657
0.217366
0.21366
0.215281
0.226311
0.239449
0.331923
0.288315
-0.478874
-44.2492
-7.50374
15.7617
23.0185
27.1612
30.4218
31.8335
31.7063
31.6748
31.482
30.5348
29.5093
28.4332
27.21
26.3396
25.6607
25.171
24.8447
24.6401
24.5181
24.4636
0.206469
0.205751
0.206829
0.211391
0.225703
0.219171
0.232103
0.238802
0.22989
1.40677
7.42736
15.2152
20.2042
25.1463
28.8263
29.3522
28.5646
28.4495
28.2896
27.2233
26.1731
25.0935
23.8292
22.9847
22.3265
21.8574
21.5493
21.3582
21.2445
21.1942
0.191931
0.191768
0.190776
0.197766
0.203012
0.211416
0.201092
0.0270715
0.190782
-0.541837
11.1379
18.7636
20.579
21.8968
25.4782
26.2528
25.2011
25.1785
25.1129
23.8992
22.8289
21.7505
20.437
19.625
18.989
18.5418
18.2527
18.0757
17.9705
17.9245
0.174249
0.173153
0.170222
0.173918
0.174909
0.194892
0.173718
0.149793
0.214244
-5.27142
12.9305
10.8698
9.72875
19.4796
26.8476
24.6516
22.0572
21.9206
21.9489
20.546
19.4687
18.4013
17.0303
16.2603
15.648
15.2239
14.9549
14.7926
14.6961
14.6546
0.150265
0.148297
0.145288
0.143263
0.136955
0.143849
0.129109
0.172119
0.25176
8.49666
31.3552
26.0531
10.2124
21.2346
24.2996
20.1127
17.8321
18.4069
18.7943
17.1876
16.1125
15.0577
13.613
12.8933
12.3046
11.9043
11.6561
11.5089
11.4214
11.3845
0.124111
0.121846
0.117219
0.112571
0.0972086
0.0925966
0.0684196
0.13421
0.0708344
1.68915
14.6243
21.9531
12.6854
16.5112
20.2522
17.0153
14.8403
15.3961
15.793
13.8
12.7201
11.6889
10.1614
9.51079
8.95032
8.57818
8.35355
8.22324
8.14576
8.11384
0.0935111
0.0912963
0.0864394
0.0785332
0.0530106
0.040581
-0.0198341
0.0231136
-0.056746
-1.06832
12.5431
4.18778
10.5312
21.6456
22.3935
14.4938
9.79792
11.0329
12.44
10.3098
9.32269
8.34434
6.71995
6.153
5.61544
5.26627
5.06052
4.94344
4.87269
4.84458
0.0672425
0.0646637
0.0586033
0.0435404
0.017095
-0.0230933
-0.0919941
-0.209205
-0.172829
-0.401599
4.71003
-1.71337
11.8062
22.1529
17.5768
7.02544
3.70232
7.35737
9.85986
7.03399
5.98801
5.01032
3.24653
2.76684
2.24354
1.9211
1.74296
1.64764
1.59285
1.57201
-0.0707011
-0.0488713
-0.0067424
0.056771
0.152694
0.302378
0.597927
0.808199
2.36843
3.35177
4.31152
7.79269
5.77476
2.4857
4.78102
13.5626
17.5766
12.0552
10.8617
-0.841156
0.0171131
-0.143056
-0.266769
-0.0919629
-0.0609598
-0.010923
0.0229244
0.0407998
0.0483704
0.0513323
-0.0973925
-0.0861631
-0.0717006
-0.0540532
-0.0275268
0.0207476
0.170156
0.155853
1.41839
1.82569
2.1946
5.82342
3.92573
0.955712
4.37146
12.7785
15.1145
8.62294
10.7996
6.74562
-1.43029
-0.107819
-0.296952
-0.0924065
-0.0807327
-0.0269541
0.00956391
0.0288343
0.0368544
0.0399764
-0.0991405
-0.0878879
-0.0735715
-0.0559323
-0.0294145
0.0178302
0.150049
0.112756
1.74841
4.3107
3.63546
4.33464
0.759293
-3.01556
2.58442
12.4923
17.0615
2.92509
8.17031
35.2985
0.542401
-0.184674
-0.205953
-0.150162
-0.0921333
-0.0394024
-0.00107758
0.0180817
0.0265444
0.0296423
-0.101112
-0.0898608
-0.0755983
-0.0579779
-0.0315218
0.0156839
0.152602
0.131571
1.21595
2.16408
3.18382
3.1744
-1.54067
-7.4966
-1.90478
11.0086
18.0561
0.882163
6.20116
10.942
0.90743
-0.179376
-0.24738
-0.149564
-0.0960144
-0.0484467
-0.010621
0.00899588
0.017194
0.0199627
-0.103242
-0.0919992
-0.0778105
-0.0602362
-0.0339468
0.0124075
0.143507
0.0652706
0.731886
-0.383132
2.53943
1.93756
-2.35804
-10.9921
-4.93794
9.06442
14.988
5.28448
3.51109
6.71337
0.35439
-0.134986
-0.193246
-0.142422
-0.0985644
-0.0557929
-0.0181692
0.00167461
0.00943095
0.0117299
-0.105546
-0.0943211
-0.0802269
-0.0627331
-0.0367336
0.00808915
0.121146
-0.0382806
-0.456909
-0.372216
0.116384
-0.0364288
-1.98022
-10.8643
-5.88803
6.11792
14.1231
10.2931
5.73953
-2.62839
-0.0216657
-0.196987
-0.201754
-0.15035
-0.106003
-0.0603088
-0.0216201
-0.00270207
0.00334743
0.00470445
-0.108044
-0.0968476
-0.0828663
-0.0654933
-0.0399168
0.00290855
0.096329
-0.0559685
-0.417318
-0.274575
0.0803875
0.156389
-0.146032
-4.65662
-7.97617
5.69514
14.1347
12.395
11.3276
-9.97832
-0.306418
-0.173073
-0.185945
-0.162578
-0.114165
-0.0611367
-0.0214315
-0.00541484
-0.00252762
-0.00258468
-0.110756
-0.0995987
-0.0857502
-0.0685449
-0.0435333
-0.00311981
0.0720016
-0.0625316
-0.38196
-0.285553
0.0822206
0.15731
-0.0201054
-1.74576
-8.37476
6.16999
13.6831
15.513
10.9058
-0.734619
-0.257852
-0.190486
-0.164011
-0.158656
-0.122352
-0.069864
-0.0288506
-0.01461
-0.0134962
-0.0140742
-0.1137
-0.102595
-0.0889027
-0.0719191
-0.0476211
-0.010004
0.0488031
-0.06841
-0.344496
-0.278853
0.0554876
0.115569
-0.142184
-1.36003
-1.79101
2.95764
18.1224
18.1749
2.11135
0.722641
-0.00946707
-0.1677
-0.172543
-0.166076
-0.121107
-0.0782987
-0.0453289
-0.0338122
-0.0310839
-0.0299726
-0.116895
-0.105859
-0.0923501
-0.0756492
-0.0522175
-0.0177296
0.0269008
-0.0745331
-0.307492
-0.270851
0.0256025
0.0523687
-0.168447
-0.835438
-0.488402
1.24315
22.6959
17.6098
-3.53191
-0.993966
-0.0891477
-0.178197
-0.190556
-0.160282
-0.104851
-0.0704328
-0.0530481
-0.0464607
-0.0437758
-0.0426262
-0.120364
-0.109416
-0.0961212
-0.0797708
-0.0573584
-0.0262583
0.00631225
-0.0809419
-0.272602
-0.260325
-0.00715196
0.0024266
-0.185021
-0.539583
-0.448745
0.0616949
4.75088
9.75479
-0.195069
-0.216886
-0.0756097
-0.131123
-0.157721
-0.11711
-0.0660234
-0.0484381
-0.0493588
-0.0510508
-0.0510667
-0.0508437
-0.12413
-0.113292
-0.100247
-0.0843209
-0.063077
-0.035532
-0.0129926
-0.0876272
-0.242461
-0.248716
-0.039984
-0.040817
-0.19356
-0.482824
-0.401918
-0.258822
-0.466195
-0.773469
-0.750746
-0.0239327
-0.174726
-0.161748
-0.138339
-0.103442
-0.0814891
-0.0734757
-0.070978
-0.0694501
-0.0676906
-0.0666439
-0.128219
-0.117518
-0.104762
-0.0893383
-0.069404
-0.0454793
-0.0310803
-0.0946047
-0.218444
-0.236848
-0.0714558
-0.0781996
-0.202863
-0.42526
-0.366021
-0.288082
-0.448349
-0.646644
-0.843511
-0.351377
-0.231038
-0.158411
-0.125368
-0.105017
-0.094713
-0.090599
-0.0886154
-0.0872177
-0.0862544
-0.0859321
-0.13266
-0.122125
-0.109701
-0.0948628
-0.0763665
-0.0560212
-0.0480554
-0.101933
-0.200414
-0.22543
-0.100549
-0.110303
-0.212439
-0.377101
-0.341419
-0.315351
-0.397199
-0.524236
-0.533586
-0.317048
-0.207997
-0.163146
-0.138738
-0.125257
-0.11653
-0.110214
-0.105775
-0.103157
-0.101893
-0.10143
-0.137482
-0.127148
-0.115104
-0.100935
-0.0839862
-0.0670788
-0.0640496
-0.109624
-0.187721
-0.215255
-0.126415
-0.137544
-0.220801
-0.340403
-0.326023
-0.322115
-0.362882
-0.435089
-0.449369
-0.348061
-0.267335
-0.206584
-0.172096
-0.152055
-0.139583
-0.131636
-0.12701
-0.124416
-0.12312
-0.122699
-0.142719
-0.132624
-0.121012
-0.107595
-0.0922766
-0.0785804
-0.079211
-0.117684
-0.179655
-0.207106
-0.148459
-0.160273
-0.227017
-0.311735
-0.313558
-0.318298
-0.34017
-0.377784
-0.371502
-0.309259
-0.243883
-0.20636
-0.183646
-0.16857
-0.158071
-0.150926
-0.146291
-0.143599
-0.142126
-0.141516
-0.148406
-0.138594
-0.127469
-0.114882
-0.101244
-0.0904667
-0.0936942
-0.126135
-0.17553
-0.201488
-0.166534
-0.178866
-0.231302
-0.291092
-0.301926
-0.309616
-0.321923
-0.337522
-0.328239
-0.292935
-0.254927
-0.223968
-0.201687
-0.186133
-0.175275
-0.168003
-0.163275
-0.160311
-0.158668
-0.157961
-0.154583
-0.145102
-0.134519
-0.122838
-0.110887
-0.102694
-0.107648
-0.13501
-0.174708
-0.198538
-0.180987
-0.193777
-0.234286
-0.276903
-0.291022
-0.299077
-0.305826
-0.310062
-0.299983
-0.276739
-0.250578
-0.228432
-0.211678
-0.199424
-0.190757
-0.184565
-0.180375
-0.177664
-0.176062
-0.175309
-0.161289
-0.152193
-0.14221
-0.131498
-0.121203
-0.115238
-0.121202
-0.144385
-0.176582
-0.198094
-0.192506
-0.205557
-0.236545
-0.267346
-0.281347
-0.288618
-0.292054
-0.291194
-0.282069
-0.266282
-0.248875
-0.233092
-0.22028
-0.21044
-0.203175
-0.198085
-0.1946
-0.192355
-0.191032
-0.190397
-0.168572
-0.159917
-0.150592
-0.140897
-0.13219
-0.128092
-0.134411
-0.154392
-0.18063
-0.19984
-0.2019
-0.214836
-0.238496
-0.261018
-0.273301
-0.279323
-0.280911
-0.278259
-0.270656
-0.259534
-0.247473
-0.236391
-0.227091
-0.219767
-0.214192
-0.210075
-0.20717
-0.205228
-0.204047
-0.203452
-0.176479
-0.168326
-0.159715
-0.151068
-0.143849
-0.141279
-0.147601
-0.164854
-0.186408
-0.203419
-0.209925
-0.222288
-0.240439
-0.257056
-0.267083
-0.271845
-0.272508
-0.269646
-0.263686
-0.255797
-0.247437
-0.239665
-0.233032
-0.227671
-0.223551
-0.220512
-0.21837
-0.216946
-0.216069
-0.215604
-0.185063
-0.177476
-0.16963
-0.162041
-0.156186
-0.154831
-0.160948
-0.175738
-0.193579
-0.208519
-0.217189
-0.228582
-0.242616
-0.254965
-0.262809
-0.266484
-0.266769
-0.264347
-0.259917
-0.254375
-0.248605
-0.243237
-0.238601
-0.234813
-0.23184
-0.229598
-0.227975
-0.226856
-0.226142
-0.225747
-0.194379
-0.187425
-0.180392
-0.173851
-0.169217
-0.168791
-0.174542
-0.187099
-0.201906
-0.214891
-0.224166
-0.234318
-0.245246
-0.25448
-0.260477
-0.2633
-0.263501
-0.261711
-0.258585
-0.254782
-0.250865
-0.247218
-0.244049
-0.241434
-0.239368
-0.237798
-0.236654
-0.23586
-0.235345
-0.235046
-0.204487
-0.198235
-0.192054
-0.186533
-0.182968
-0.183212
-0.188464
-0.198999
-0.211235
-0.222352
-0.231233
-0.239996
-0.248535
-0.255475
-0.260022
-0.262213
-0.262464
-0.261288
-0.259208
-0.256693
-0.25411
-0.251699
-0.249592
-0.24784
-0.246441
-0.245364
-0.244565
-0.243997
-0.243617
-0.243383
-0.215454
-0.20997
-0.204674
-0.200131
-0.197477
-0.198156
-0.202801
-0.211495
-0.221478
-0.230789
-0.238692
-0.246051
-0.252668
-0.257896
-0.261341
-0.263075
-0.263414
-0.26275
-0.261468
-0.259889
-0.258254
-0.256718
-0.255366
-0.254231
-0.253315
-0.252601
-0.252064
-0.251674
-0.251404
-0.251228
-0.227347
-0.222701
-0.218314
-0.214699
-0.212798
-0.213699
-0.217661
-0.224648
-0.232597
-0.240148
-0.246763
-0.252694
-0.25778
-0.261706
-0.264318
-0.265713
-0.266129
-0.265851
-0.265146
-0.264229
-0.263258
-0.262331
-0.261505
-0.260803
-0.260228
-0.259773
-0.259422
-0.259161
-0.258973
-0.258843
-0.240242
-0.236501
-0.233045
-0.230302
-0.229006
-0.229906
-0.233194
-0.238535
-0.244598
-0.25043
-0.255621
-0.260176
-0.263976
-0.266874
-0.268836
-0.269958
-0.270415
-0.270401
-0.270093
-0.269629
-0.269109
-0.268598
-0.268131
-0.267726
-0.267388
-0.267113
-0.266896
-0.266729
-0.266603
-0.266511
-0.254218
-0.251454
-0.248947
-0.247025
-0.246209
-0.246981
-0.249451
-0.253241
-0.257522
-0.261671
-0.265397
-0.268637
-0.271309
-0.273352
-0.274775
-0.275655
-0.276108
-0.276256
-0.276204
-0.276037
-0.275817
-0.275582
-0.275356
-0.275152
-0.274975
-0.274827
-0.274704
-0.274605
-0.274527
-0.274465
-0.269363
-0.267648
-0.266117
-0.264978
-0.264541
-0.265071
-0.266614
-0.268889
-0.271443
-0.273925
-0.276178
-0.278147
-0.279785
-0.281069
-0.282012
-0.282658
-0.283064
-0.283293
-0.283398
-0.283423
-0.2834
-0.28335
-0.283289
-0.283225
-0.283164
-0.283107
-0.283056
-0.283011
-0.282972
-0.282938
-0.285768
-0.285183
-0.28467
-0.284302
-0.284181
-0.284382
-0.284914
-0.285661
-0.286484
-0.287275
-0.288015
-0.288713
-0.289347
-0.289906
-0.290384
-0.290782
-0.291105
-0.291363
-0.291564
-0.291718
-0.291834
-0.29192
-0.291982
-0.292025
-0.292054
-0.292071
-0.292079
-0.29208
-0.292077
-0.292069
0.0512325
0.0480694
0.0405156
0.0228932
-0.00993603
-0.059131
-0.0881672
-0.267479
-0.153551
0.0641996
-0.865794
10.6548
11.8456
17.4888
13.5204
4.63741
2.43165
5.78811
7.76437
4.31512
3.36234
2.41174
0.711435
0.554763
0.282699
0.141402
0.0497732
-0.0110471
-0.0512652
-0.0714988
0.0398279
0.0364052
0.028489
0.00942968
-0.0256646
-0.0777162
-0.107217
-0.296947
-0.111456
-1.29847
7.21726
10.5438
8.38078
15.0337
12.7399
4.22646
0.905583
3.94707
5.79532
2.19306
1.83559
1.46278
0.0572713
0.126982
0.00106662
-0.0388163
-0.0610395
-0.076006
-0.0885508
-0.0981872
0.0294304
0.0259969
0.0176161
-0.00167676
-0.0382924
-0.0891129
-0.144196
-0.212405
-0.193492
0.808875
35.0127
7.95381
2.64087
16.9771
12.3982
2.39094
-3.04063
0.807804
4.3152
3.71358
4.32001
1.77013
0.0131804
0.10682
-0.00186481
-0.0406996
-0.0629147
-0.0778757
-0.0902749
-0.0999346
0.0196732
0.0163799
0.00792081
-0.0115527
-0.0479028
-0.0940312
-0.147753
-0.25495
-0.185097
0.878267
10.3533
6.07057
0.631619
17.9708
10.8782
-2.16225
-7.5426
-1.4738
3.14574
3.25047
1.91793
1.37018
0.029057
0.109356
-0.00396085
-0.0427841
-0.0649506
-0.079899
-0.0922462
-0.101905
0.0113438
0.00829106
-9.97061e-06
-0.019778
-0.0563202
-0.0988199
-0.145181
-0.203984
-0.14813
0.183629
6.30915
3.37887
5.06835
14.8828
8.9725
-5.12587
-11.0743
-2.27612
2.04153
2.6138
-0.373178
0.853339
-0.0101599
0.100159
-0.00705937
-0.0451612
-0.0671916
-0.0821047
-0.0943817
-0.104034
0.00422356
0.00188276
-0.00499987
-0.0239361
-0.0616342
-0.107501
-0.154894
-0.211448
-0.209857
-0.0425724
-2.33438
5.65353
10.1032
13.9714
6.03244
-6.01602
-11.022
-1.94394
-0.00309263
0.150931
-0.380069
-0.335872
-0.0595539
0.080621
-0.0110404
-0.0478707
-0.0696622
-0.0845109
-0.0966992
-0.106336
-0.00313471
-0.0042303
-0.00812002
-0.0238744
-0.061877
-0.114823
-0.166523
-0.195259
-0.185789
-0.337134
-9.88457
11.1576
12.1319
13.9777
5.61964
-8.11021
-4.69507
-0.121368
0.178055
0.104974
-0.270103
-0.315714
-0.0709683
0.0591836
-0.0157649
-0.0509432
-0.072385
-0.0871353
-0.0992192
-0.108832
-0.0146231
-0.0151893
-0.0172496
-0.0307653
-0.0694358
-0.122053
-0.163051
-0.175083
-0.203559
-0.268302
-0.766281
10.886
15.2273
13.5447
6.19333
-8.44068
-1.74859
-0.00300351
0.17826
0.106633
-0.276466
-0.293609
-0.0723875
0.03839
-0.0212193
-0.0544113
-0.075386
-0.0899987
-0.101961
-0.111541
-0.0304292
-0.0324631
-0.0360147
-0.0474657
-0.0790203
-0.122031
-0.168627
-0.182303
-0.186925
-0.0349736
0.661876
1.84527
17.7837
17.9589
3.03989
-1.79817
-1.36908
-0.127753
0.134963
0.0806369
-0.266313
-0.268709
-0.0740124
0.0187709
-0.0274084
-0.0583087
-0.0786942
-0.093124
-0.104946
-0.114481
-0.0430469
-0.0450905
-0.0487395
-0.0560846
-0.0738083
-0.107847
-0.162442
-0.192351
-0.195488
-0.132027
-1.08304
-3.69637
17.0618
22.6381
1.30734
-0.460825
-0.830007
-0.155826
0.0712766
0.0500466
-0.256161
-0.242923
-0.0766723
0.000422076
-0.0343207
-0.0626688
-0.0823403
-0.0965365
-0.108195
-0.117671
-0.0512594
-0.0523847
-0.0534783
-0.0532933
-0.0540668
-0.0715202
-0.120475
-0.162685
-0.14354
-0.103283
-0.273682
-0.174309
9.71246
4.79428
0.08356
-0.429329
-0.52662
-0.171418
0.0210178
0.0162788
-0.243266
-0.218027
-0.0803188
-0.0166974
-0.0419259
-0.0675237
-0.0863571
-0.100263
-0.111733
-0.121134
-0.0669961
-0.0687878
-0.0714014
-0.0739032
-0.0773281
-0.0860461
-0.107958
-0.144119
-0.172683
-0.19317
-0.0511018
-0.749843
-0.738327
-0.439611
-0.232681
-0.38144
-0.469132
-0.179017
-0.0225893
-0.0179676
-0.230281
-0.19659
-0.0849545
-0.0326748
-0.0501782
-0.0729038
-0.0907792
-0.104335
-0.115585
-0.124893
-0.0862178
-0.0871481
-0.0887981
-0.0909834
-0.0938243
-0.0988193
-0.110032
-0.13148
-0.167374
-0.238664
-0.342901
-0.796329
-0.611539
-0.4207
-0.262318
-0.345705
-0.410307
-0.187683
-0.0603987
-0.050897
-0.217655
-0.179997
-0.090529
-0.0476312
-0.0590219
-0.0788376
-0.0956427
-0.108782
-0.119782
-0.128974
-0.101623
-0.102501
-0.10424
-0.107379
-0.112332
-0.11914
-0.128405
-0.142401
-0.166413
-0.209132
-0.305307
-0.497999
-0.492343
-0.370545
-0.291284
-0.321662
-0.361535
-0.196963
-0.0929926
-0.0813323
-0.206084
-0.168304
-0.0969055
-0.0617162
-0.0683975
-0.085352
-0.100985
-0.113641
-0.124353
-0.133404
-0.122811
-0.123471
-0.125031
-0.127894
-0.132768
-0.14089
-0.15337
-0.173067
-0.206393
-0.262083
-0.333629
-0.424237
-0.408196
-0.338465
-0.299983
-0.307064
-0.324082
-0.205244
-0.1208
-0.108373
-0.196315
-0.160921
-0.104044
-0.0750999
-0.0782478
-0.0924702
-0.106844
-0.118947
-0.129332
-0.138213
-0.14155
-0.142231
-0.143774
-0.146516
-0.151147
-0.158178
-0.168354
-0.182754
-0.204041
-0.238569
-0.296918
-0.351777
-0.355477
-0.318465
-0.298101
-0.295576
-0.29583
-0.211647
-0.14417
-0.131458
-0.189029
-0.157283
-0.111835
-0.0879575
-0.0885248
-0.10021
-0.113259
-0.124742
-0.134757
-0.143434
-0.157921
-0.158542
-0.160081
-0.162902
-0.167407
-0.174322
-0.18458
-0.199103
-0.219637
-0.247656
-0.281564
-0.312267
-0.318963
-0.302957
-0.291324
-0.285047
-0.275651
-0.216332
-0.163481
-0.15052
-0.184594
-0.156811
-0.120229
-0.100461
-0.0991942
-0.108583
-0.12027
-0.131066
-0.140666
-0.149103
-0.175206
-0.175746
-0.177111
-0.17954
-0.183365
-0.189053
-0.197008
-0.208222
-0.223436
-0.243337
-0.266505
-0.286594
-0.294439
-0.289307
-0.282638
-0.275355
-0.262153
-0.219908
-0.179192
-0.16598
-0.183011
-0.15897
-0.129196
-0.112768
-0.110237
-0.117598
-0.127915
-0.137964
-0.147102
-0.155258
-0.190264
-0.190615
-0.191613
-0.193479
-0.196503
-0.201007
-0.207516
-0.216347
-0.227807
-0.241824
-0.25709
-0.270612
-0.2779
-0.277709
-0.273978
-0.267012
-0.253492
-0.222931
-0.191858
-0.178569
-0.184017
-0.163283
-0.138727
-0.125012
-0.121648
-0.12726
-0.136235
-0.145482
-0.15411
-0.161939