/*--------------------------------*- C++ -*----------------------------------*\
| =========                 |                                                 |
| \\      /  F ield         | OpenFOAM: The Open Source CFD Toolbox           |
|  \\    /   O peration     | Version:  2.4.0                                 |
|   \\  /    A nd           | Web:      www.OpenFOAM.org                      |
|    \\/     M anipulation  |                                                 |
\*---------------------------------------------------------------------------*/
FoamFile
{
    version     2.0;
    format      ascii;
    class       volScalarField;
    location    "0.126";
    object      alpha.water;
}
// * * * * * * * * * * * * * * * * * * * * * * * * * * * * * * * * * * * * * //

dimensions      [0 0 0 0 0 0 0];

internalField   nonuniform List<scalar> 
14400
(
1
1
1
1
1
1
1
1
1
1
1
1
1
1
1
1
1
1
1
1
1
1
1
1
1
1
1
1
1
1
1
1
1
1
1
1
1
1
1
1
1
1
1
1
1
1
1
1
1
1
1
1
1
1
1
1
1
1
1
1
1
1
1
1
1
1
1
1
1
1
1
1
1
1
1
1
1
1
1
1
1
1
1
1
1
1
1
1
1
1
1
1
1
1
1
1
1
1
1
1
1
1
1
1
1
1
1
1
1
1
1
1
1
1
1
1
1
1
1
1
1
1
1
1
1
1
1
1
1
1
1
1
1
1
1
1
1
1
1
1
1
1
1
1
1
1
1
1
1
1
1
1
1
1
1
1
1
1
1
1
1
1
1
1
1
1
1
1
1
1
1
1
1
1
1
1
1
1
1
1
1
1
1
1
1
1
1
1
1
1
1
1
1
1
1
1
1
1
1
1
1
1
1
1
1
1
1
1
1
1
1
1
1
1
1
1
1
1
1
1
1
1
1
1
1
1
1
1
1
1
1
1
1
1
1
1
1
1
1
1
1
1
1
1
1
1
1
1
1
1
1
1
1
1
1
1
1
1
1
1
1
1
1
1
1
1
1
1
1
1
1
1
1
1
1
1
1
1
1
1
1
1
1
1
1
1
1
1
1
1
1
1
1
1
1
1
1
1
1
1
1
1
1
1
1
1
1
1
1
1
1
1
1
1
1
1
1
1
1
1
1
1
1
1
1
1
1
1
1
1
1
1
1
1
1
1
1
1
1
1
1
1
1
1
1
1
1
1
1
1
1
1
1
1
1
1
1
1
1
1
1
1
1
1
1
1
1
1
1
1
1
1
1
1
1
1
1
1
1
1
1
1
1
1
1
1
1
1
1
1
1
1
1
1
1
1
1
1
1
1
1
1
1
1
1
1
1
1
1
1
1
1
1
1
1
1
1
1
1
1
1
1
1
1
1
1
1
1
1
1
1
1
1
1
1
1
1
1
1
1
1
1
1
1
1
1
1
1
1
1
1
1
1
1
1
1
1
1
1
1
1
1
1
1
1
1
1
1
1
1
1
1
1
1
1
1
1
1
1
1
1
1
1
1
1
1
1
1
1
1
1
1
1
1
1
1
1
1
1
1
1
1
1
1
1
1
1
1
1
1
1
1
1
1
1
1
1
1
0.999998
1
1
1
1
1
1
1
1
1
1
1
1
1
1
1
1
1
1
1
1
1
1
1
1
1
1
1
1
1
0.999992
0.999997
1
1
1
1
1
1
1
1
1
1
1
1
1
1
1
1
1
1
1
1
1
1
1
1
1
1
1
1
1
0.999993
1
1
1
1
1
1
1
1
1
1
1
1
1
1
1
1
1
1
1
1
1
1
1
1
1
1
1
1
1
0.999993
1
1
1
1
1
1
1
1
1
1
1
1
1
1
1
1
1
1
1
1
1
1
1
1
1
1
1
1
1
0.999999
0.999999
0.682658
0.999938
1
1
1
1
1
1
1
1
1
1
1
1
1
1
1
1
1
1
1
1
1
1
1
1
1
1
0.999955
0.251627
0.0159402
0.959098
1
1
1
1
1
0.999998
0.999953
1
1
1
1
1
1
1
1
1
1
1
1
1
1
1
1
1
1
0.994075
0.0876262
4.09569e-07
0.000919531
0.957868
0.999718
1
1
1
1
0.99994
0.999958
0.999999
1
1
1
1
1
1
1
1
1
1
1
1
1
1
1
1
0.999768
0.0225117
1.07113e-06
-7.93837e-09
2.18752e-05
0.561791
0.998305
0.999485
1
1
0.999995
0.999947
0.999997
0.999975
1
1
1
1
1
1
1
1
1
1
1
0.998579
1
1
1
0.999997
0.0921504
2.83468e-06
8.11122e-09
8.73647e-10
0.00026146
0.291653
0.999983
0.999782
0.999647
0.999948
0.999982
0.999986
0.999727
0.999979
1
1
1
1
1
1
1
1
1
1
1
0.982348
1
1
1
0.810256
2.55422e-05
-4.24844e-07
9.64605e-10
5.42537e-10
3.9932e-06
0.120296
0.99999
0.999452
0.99936
0.999969
0.999999
0.999492
0.998806
0.999996
1
1
1
1
1
1
1
1
1
1
1
0.969995
1
1
0.999736
8.42978e-05
2.20443e-07
8.8484e-10
6.67135e-10
5.70415e-10
-2.87024e-10
0.00944781
0.99999
0.99999
0.99999
0.999914
0.999998
0.999575
0.999343
0.999994
0.999945
1
1
1
1
1
1
1
1
1
0.999916
0.95356
1
0.999994
0.199895
6.46431e-06
1.6573e-08
3.48474e-10
3.6524e-10
4.83349e-10
-1.53481e-10
0.000675637
0.99999
0.999794
0.999991
0.999976
0.99972
0.99977
0.999942
0.999965
0.999991
1
1
1
1
1
1
1
1
1
0.99795
0.984216
0.998487
0.395696
1.21047e-06
-3.26833e-09
3.85469e-10
4.43066e-10
3.4777e-10
3.90724e-10
5.87703e-12
0.00074468
0.835516
0.999781
0.999598
0.998406
0.999937
0.999822
0.999814
0.999995
0.99998
1
1
0.999993
1
1
1
1
1
1
1
1
1
1
1
1
1
1
1
1
1
1
1
1
1
1
1
1
1
1
1
1
1
1
1
1
1
1
1
1
1
1
1
1
1
1
1
1
1
1
1
1
1
1
1
1
1
1
1
1
1
1
1
1
1
1
1
1
1
1
1
1
1
1
1
1
1
1
1
1
1
1
1
1
1
1
1
1
1
1
1
1
1
1
1
1
1
1
1
1
1
1
1
1
1
1
1
1
1
1
1
1
1
1
1
1
1
1
1
1
1
1
1
1
1
1
1
1
1
1
1
1
1
1
1
1
1
1
1
1
1
1
1
1
1
1
1
1
1
1
1
1
1
1
1
1
1
1
1
1
1
1
1
1
1
1
1
1
1
1
1
1
1
1
1
1
1
1
1
1
1
1
1
1
1
1
1
1
1
1
1
1
1
1
1
1
1
1
1
1
1
1
1
1
1
1
1
1
1
1
1
1
1
1
1
1
1
1
1
1
1
1
1
1
1
1
1
1
1
1
1
1
1
1
1
1
1
1
1
1
1
1
1
1
1
1
1
1
1
1
1
1
1
1
1
1
1
1
1
1
1
1
1
1
1
1
1
1
1
1
1
1
1
1
1
1
1
1
1
1
1
1
1
1
1
1
1
1
1
1
1
1
1
1
1
1
1
1
1
1
1
1
1
1
1
1
1
1
1
1
1
1
1
1
1
1
1
1
1
1
1
1
1
1
1
1
1
1
1
1
1
1
1
1
1
1
1
1
1
1
1
1
1
1
1
1
1
1
1
1
1
1
1
1
1
1
1
1
1
1
1
1
1
1
1
1
1
1
1
1
1
1
1
1
1
1
1
1
1
1
1
1
1
1
1
1
1
1
1
1
1
1
1
1
1
1
1
1
1
1
1
1
1
1
1
1
1
1
1
1
1
1
1
1
1
1
1
1
1
1
1
1
1
1
1
1
1
1
1
1
1
1
1
1
1
1
1
1
1
1
1
1
1
1
1
1
1
1
1
1
1
1
1
1
1
1
1
1
1
1
1
1
1
1
1
1
1
1
1
1
1
1
1
1
1
1
1
1
1
1
1
1
1
1
1
1
1
1
1
1
1
1
1
1
1
1
1
1
1
1
1
1
1
1
1
1
1
1
1
1
1
1
1
1
1
1
1
1
1
1
1
1
1
1
1
1
1
1
1
1
1
1
1
1
1
1
1
1
1
1
1
1
1
1
1
1
1
1
1
1
1
1
1
1
1
1
1
1
1
1
1
1
1
1
1
1
1
1
1
1
0.999994
1
1
1
1
1
1
1
1
1
1
1
1
1
1
1
1
1
1
1
1
1
1
1
1
1
1
1
1
1
0.999994
0.999998
1
1
1
1
1
1
1
1
1
1
1
1
1
1
1
1
1
1
1
1
1
1
1
1
1
1
1
1
0.999999
1
1
1
1
1
1
1
1
1
1
1
1
1
1
1
1
1
1
1
1
1
1
1
1
1
1
0.987331
0.846035
1
1
1
1
1
1
1
1
1
1
1
1
1
1
1
1
1
1
1
1
1
0.999997
1
1
1
1
1
0.999685
0.371489
0.00121486
0.743224
0.999954
1
1
1
1
1
1
1
1
1
1
1
1
1
1
1
1
1
1
0.999995
0.99998
0.999998
1
0.999998
1
1
0.999946
0.0228154
0.000456912
1.78235e-05
0.352175
0.999989
1
1
1
1
1
1
1
1
1
1
1
1
1
1
1
1
0.999998
0.999999
0.999996
0.999993
1
1
1
1
0.999956
0.00910849
7.46542e-06
4.80272e-07
2.72833e-06
0.307411
0.999998
1
1
1
1
1
1
1
1
1
1
1
1
1
1
1
0.999999
0.999833
0.998894
0.999998
0.999978
0.999476
0.999373
0.999294
0.99997
0.000261325
3.34433e-06
3.10262e-07
-9.89498e-09
1.94078e-05
0.748958
1
1
1
1
1
1
1
1
1
1
1
1
1
1
1
1
0.999065
0.998894
0.99964
0.999916
1
0.999416
0.999945
0.909124
2.7003e-06
2.82768e-07
2.63131e-07
2.35949e-08
6.28419e-07
0.00550755
0.993489
1
1
1
1
1
1
1
1
1
1
1
1
1
0.99999
0.999984
0.999965
0.999351
0.99999
0.999998
1
1
1
0.81475
4.00293e-07
3.27231e-07
2.6598e-05
5.20103e-09
1.10462e-08
3.95964e-06
0.407134
1
1
1
1
1
1
1
1
1
1
1
1
1
1
0.999975
0.99999
0.999963
0.999793
1
1
1
1
0.50306
2.77507e-08
5.16931e-06
3.9656e-05
7.13227e-09
1.63905e-09
-1.42667e-07
0.00661495
0.986832
1
1
1
1
1
1
1
1
1
0.999997
0.999991
1
1
1
0.999942
0.99997
0.999872
0.999139
0.999377
1
1
0.0586574
0.00129918
2.67239e-05
0.000262918
6.53017e-10
7.36061e-10
1.15492e-08
1.19885e-05
0.37341
0.999999
1
1
1
0.999999
0.9999
0.978916
0.986552
3.60501e-05
1.4599e-06
2.25053e-07
6.8347e-10
2.45511e-10
5.02318e-10
3.43254e-10
-6.85461e-11
0.000257739
0.286178
0.999963
0.996468
0.994594
0.999937
0.999966
0.999979
0.999456
0.997612
0.999998
0.99999
1
1
1
1
1
1
0.999999
0.997943
0.983709
0.946812
2.46696e-05
4.63309e-05
0.00012193
2.08979e-09
3.31418e-10
7.93943e-10
4.00865e-10
1.84017e-10
0.00029793
0.00246457
0.949396
0.999828
0.994339
0.99436
0.995875
0.999973
0.999189
0.997965
0.997899
1
1
1
1
1
1
1
0.999999
0.993384
0.991858
0.647831
0.000115906
0.000155763
0.000156831
6.17524e-08
3.92373e-10
1.22155e-08
2.67832e-10
1.75137e-10
0.0002332
7.13922e-05
0.145832
0.999952
0.999955
0.999817
0.99491
0.998315
0.998317
0.999976
0.99994
1
1
1
1
1
1
1
0.999999
0.996179
0.999657
0.149037
4.42671e-06
0.000111404
1.15505e-09
1.74234e-07
3.31285e-10
5.66002e-08
2.73888e-07
-1.36531e-10
0.000123131
8.38977e-06
7.17996e-05
0.462887
0.892062
0.978452
0.999574
0.999379
0.999748
0.999963
0.999986
0.999997
0.999997
0.999998
0.999997
0.999996
0.999995
0.999994
0.871122
0.999947
0.947265
0.0273831
5.03697e-07
1.3398e-09
9.91423e-10
1.00402e-08
3.92698e-10
2.62578e-08
5.06689e-08
-4.72454e-10
3.67206e-11
6.27266e-06
6.08404e-06
2.54573e-05
0.000115946
0.140693
0.496569
0.782668
0.944254
0.997694
0.999118
0.999606
0.999678
0.999734
0.999712
0.999643
0.999545
0.99946
0.26659
0.995791
0.844888
0.00841799
9.55364e-09
7.25045e-09
2.16807e-09
3.95974e-10
5.333e-10
1.27871e-09
2.70903e-12
-6.12389e-10
3.87329e-05
6.1942e-06
2.97739e-06
1.68447e-06
3.29497e-06
4.14721e-06
4.46089e-06
3.79549e-06
1.80915e-06
0.0209284
0.14368
0.273996
0.365951
0.395528
0.37624
0.338573
0.306017
0.285659
0.0110415
0.988395
0.666423
5.03213e-06
1.49157e-08
3.48952e-09
3.28229e-10
3.32436e-10
7.5885e-10
6.37696e-10
9.11133e-07
5.63289e-13
4.9547e-05
3.7653e-05
0.000586101
1.68854e-06
1.37739e-06
1.30937e-06
1.30939e-06
1.23272e-05
4.3032e-05
1.37033e-07
1.2881e-07
1.284e-07
1.02547e-07
1.77641e-10
7.63854e-11
8.91296e-10
3.11719e-10
-1.30197e-09
3.5692e-05
0.793205
8.54207e-06
4.51311e-06
2.30644e-06
6.50859e-11
1.06843e-10
5.94036e-10
1.00928e-09
6.8712e-10
4.17715e-06
1.69776e-09
9.67282e-06
0.000141735
0.000586101
0.000172909
0.000224548
4.80583e-05
1.33102e-06
1.34127e-06
3.3558e-05
2.93225e-05
1.35318e-07
1.78115e-07
2.01214e-06
3.05632e-05
1.3863e-05
9.28393e-07
6.68383e-09
9.44248e-10
2.096e-05
0.0922334
0.0022605
9.4198e-07
2.7245e-08
6.35608e-11
1.54456e-10
1.40711e-09
1.09331e-09
1.09659e-09
3.79366e-06
3.12837e-07
6.0104e-07
8.74032e-06
0.000327962
1.98546e-06
1.44465e-05
0.000279299
0.000289207
5.15801e-05
1.6274e-06
1.19005e-05
2.08265e-05
2.00539e-07
6.23419e-07
3.38715e-05
3.47799e-05
3.47799e-05
2.30926e-05
1.90562e-09
9.46991e-08
0.00147646
0.00224211
1.85283e-09
4.05548e-11
4.43481e-11
1.65983e-10
2.41551e-09
3.00408e-07
2.4822e-09
6.91854e-07
4.05349e-07
0.00213785
0.000854474
2.13436e-06
1.97196e-06
1.96475e-06
3.92855e-05
0.000299245
0.000270424
2.55198e-06
1.49887e-06
1.66441e-05
2.27605e-05
3.85933e-07
3.99301e-07
7.84341e-06
1.71001e-05
6.14688e-06
7.27911e-08
8.61106e-12
0.000906792
1.71519e-06
3.48814e-07
3.07666e-11
1.97771e-11
1.37658e-10
1.29378e-09
1.73054e-06
3.47867e-05
6.40447e-07
9.89042e-06
0.00216972
0.000987139
2.24201e-06
1.97637e-06
2.29267e-06
4.71542e-06
0.000300535
0.000490415
2.57813e-05
1.47122e-06
1.32223e-06
3.65333e-05
6.27678e-05
3.27223e-06
4.69838e-07
4.63665e-07
7.01519e-07
0.000342627
5.52332e-06
1.29985e-06
0.00039259
1.36316e-11
1.15621e-11
8.07283e-12
9.79556e-11
1.10989e-09
1.26589e-07
5.5907e-05
6.28714e-09
7.31828e-09
0.00216015
0.000310464
7.84914e-06
2.07443e-06
2.51267e-06
0.000416252
0.000487436
0.000487749
0.000462688
3.17498e-06
1.24659e-06
1.1245e-06
6.29816e-05
7.26518e-05
6.59477e-05
6.24397e-07
1.92672e-06
0.000481582
2.14124e-07
3.16463e-07
0.00024769
8.59161e-12
2.617e-12
7.88299e-12
1.07569e-10
2.12743e-10
2.02466e-05
4.80314e-05
5.15313e-08
5.84239e-09
0.000900403
6.94643e-06
5.58218e-06
0.000105182
9.33756e-05
6.11108e-07
4.57128e-05
0.00048405
0.00048391
2.0561e-05
1.16375e-06
1.07011e-06
1.06605e-06
6.23325e-05
9.63025e-06
7.71129e-07
6.74384e-05
0.000486538
1.04614e-24
8.83531e-06
0.000129548
-5.01662e-11
6.45556e-13
1.14435e-11
8.42812e-11
3.1243e-07
2.94715e-05
2.69229e-06
2.65903e-08
5.03123e-07
2.11466e-05
9.3991e-05
0.000118431
0.000224944
4.184e-07
5.35744e-07
5.6986e-07
0.000462224
8.47464e-05
2.17877e-06
1.08371e-06
1.05068e-06
1.04997e-06
1.545e-06
1.02499e-06
8.38225e-07
1.48544e-05
0.000481627
2.7422e-18
3.67669e-06
0.000212665
-1.83523e-11
4.58171e-13
1.74694e-11
9.71988e-11
2.40566e-06
4.75296e-05
2.46525e-08
5.01457e-07
1.03055e-06
1.72821e-05
0.000468974
0.000469092
1.15307e-05
1.7217e-07
1.21065e-06
5.8531e-07
8.35821e-06
0.000209008
2.0149e-06
1.41871e-06
6.9889e-06
1.12307e-06
1.34255e-06
2.0626e-05
1.02761e-06
1.20348e-06
0.000468203
1.1378e-17
1.34776e-06
9.88387e-05
-1.15595e-12
5.66307e-13
2.40198e-11
1.19997e-10
3.14892e-06
6.0197e-05
2.26076e-08
4.73221e-08
9.26619e-08
0.000151962
0.000448179
4.31152e-05
1.59847e-09
5.96664e-07
9.06875e-06
8.25005e-06
7.57005e-07
0.000125528
7.95599e-05
2.30984e-05
1.80134e-06
1.34538e-06
1.34144e-06
0.000222545
0.000194642
3.037e-06
0.000267596
3.75965e-14
2.0207e-11
0.000154824
8.83011e-13
6.5654e-13
3.30056e-11
1.9327e-10
2.01503e-05
0.00010381
4.37151e-08
1.5472e-07
1.44499e-08
1.6755e-08
5.31895e-09
5.63989e-09
2.40051e-09
1.65839e-06
8.94134e-06
9.06989e-06
2.63652e-06
1.61542e-08
1.40125e-06
1.19526e-05
2.37508e-06
3.27808e-05
0.000225117
0.000222731
0.000222122
2.78327e-05
8.13003e-07
5.05405e-14
1.51024e-11
9.2176e-05
1.14807e-12
6.92928e-13
3.94473e-11
2.33456e-10
3.68172e-05
0.000129228
2.57613e-08
4.11293e-08
4.99233e-08
1.67146e-09
1.92733e-09
8.92416e-09
4.92911e-09
9.83733e-10
9.41807e-10
9.40836e-10
4.89049e-07
7.67937e-09
1.3894e-07
1.37295e-07
1.65731e-07
2.54575e-07
2.73053e-05
0.000196449
2.71666e-05
8.97711e-07
1.18441e-07
4.51006e-15
2.81964e-12
1.59608e-05
1.21852e-12
6.90263e-13
3.66115e-11
7.73822e-11
2.56886e-05
0.000101187
2.57878e-08
5.37238e-06
2.2124e-09
2.17402e-09
1.19166e-09
1.96675e-10
4.01881e-10
8.75322e-10
1.08121e-09
9.74999e-10
1.4152e-09
6.18879e-09
6.85519e-07
2.0582e-05
2.04793e-05
1.46406e-05
4.77395e-08
1.5906e-07
7.15415e-07
1.55413e-06
6.52934e-07
2.41118e-16
8.85664e-14
0.00166568
1.12329e-12
4.95905e-13
3.75646e-11
1.35806e-10
1.11982e-05
1.71549e-06
0.000100356
0.000110421
2.30358e-08
5.26461e-11
1.45463e-09
1.70794e-10
2.62861e-10
5.53827e-10
9.45397e-10
9.80332e-10
2.59316e-07
2.16906e-07
7.8907e-09
2.04841e-05
2.04775e-05
6.05414e-06
4.3645e-09
3.45902e-07
6.23067e-07
1.28985e-07
2.27787e-08
6.78441e-18
5.32661e-14
0.0101232
-1.72018e-11
3.39168e-13
4.13479e-11
1.77237e-10
2.14156e-05
1.59101e-06
0.000219772
8.87659e-09
1.57119e-06
4.2162e-11
5.51779e-10
6.82345e-11
1.44058e-10
3.73714e-10
6.07716e-10
1.15949e-09
1.26696e-09
2.46456e-07
1.79535e-07
3.21634e-06
9.45728e-07
6.65759e-08
3.69422e-09
5.8588e-09
1.34538e-08
1.6051e-08
4.1701e-06
8.68626e-20
3.26559e-12
0.00954218
4.25761e-12
1.43257e-13
2.23548e-11
7.70988e-11
5.35707e-05
2.22041e-06
0.000220989
2.10705e-08
2.08314e-06
4.15965e-11
7.36652e-11
2.31921e-11
1.08933e-10
2.37232e-10
3.37956e-09
2.86385e-06
3.06689e-08
1.68862e-09
6.26154e-08
2.49357e-09
8.19829e-08
7.75797e-08
3.70061e-09
3.81813e-09
1.2521e-05
6.9735e-06
4.33249e-06
4.57494e-22
7.727e-11
6.77439e-08
1.01938e-09
3.1018e-14
5.85916e-12
6.03119e-11
1.41834e-05
1.44083e-05
0.000192859
3.30443e-05
2.08314e-06
4.19194e-11
3.07347e-11
1.53542e-11
1.35004e-10
2.93531e-10
1.5279e-05
1.6407e-05
1.42997e-09
2.11708e-09
2.17848e-09
2.12894e-09
3.85933e-09
3.3985e-09
5.30883e-09
1.06952e-07
2.70778e-06
0.000259032
0.000258349
9.30569e-25
2.09259e-12
2.43052e-10
1.1237e-11
3.42237e-15
9.62395e-13
4.91453e-11
1.65989e-10
8.37686e-05
0.000153623
8.64404e-07
1.16124e-06
5.34374e-11
1.97381e-11
1.40464e-11
2.38558e-10
8.89066e-10
1.56592e-05
9.93906e-08
1.40106e-09
1.60019e-08
2.89576e-06
5.78504e-08
-5.76663e-11
0.000154261
0.00125874
6.95707e-05
2.5576e-05
0.000215224
0.000257533
7.17194e-28
2.06756e-15
6.34463e-12
1.45845e-14
1.21886e-16
6.44184e-14
7.19586e-12
5.29131e-10
5.44871e-09
1.45279e-07
7.61872e-07
1.06915e-10
4.92602e-11
7.14991e-12
9.6882e-12
1.25374e-10
2.37406e-10
2.44395e-07
6.51764e-05
0.000296094
1.25557e-07
5.43485e-07
4.70041e-07
2.05458e-06
0.000856486
0.00135912
0.00111546
9.53705e-05
4.92274e-06
0.000194369
2.08146e-31
6.78172e-18
5.69266e-13
5.95471e-17
1.25341e-18
1.45211e-15
4.33889e-13
4.60316e-11
2.4158e-10
4.75895e-08
1.00008e-08
9.95206e-11
1.60001e-11
1.47464e-12
5.12653e-12
5.44645e-11
2.80677e-09
1.21234e-05
0.00212578
0.00212578
0.00100333
1.33235e-05
2.58329e-05
1.33249e-06
9.67664e-07
8.00928e-07
1.66339e-06
6.58524e-05
1.1328e-05
6.86229e-06
2.61079e-35
3.41674e-21
1.72472e-15
4.71947e-20
1.98427e-21
5.31334e-18
4.10476e-15
1.30995e-12
5.20238e-11
5.50921e-11
8.8123e-11
1.27311e-11
1.22473e-12
4.20384e-14
3.29178e-13
1.46658e-11
8.32332e-11
1.35665e-09
6.7272e-05
6.38108e-05
1.18298e-06
2.10908e-05
5.28041e-05
3.23349e-05
7.78674e-07
5.41447e-07
5.46336e-07
1.51171e-05
3.96266e-05
4.14143e-05
2.56664e-39
1.90659e-25
8.87793e-19
6.12057e-24
3.40166e-25
2.49341e-21
6.0366e-18
7.38126e-15
9.91814e-13
4.34668e-12
3.92432e-13
6.69451e-14
1.25229e-15
2.3533e-17
5.31654e-15
3.7831e-13
1.03525e-11
1.07449e-10
1.0429e-10
1.73568e-10
3.79908e-10
1.44461e-09
4.89565e-09
4.88558e-07
1.39442e-06
1.92973e-06
1.4261e-06
5.74717e-07
1.03681e-07
1.21741e-08
2.82756e-43
2.5989e-31
6.57048e-23
8.78439e-29
2.6645e-30
7.48001e-26
8.05323e-22
6.12096e-18
2.48364e-15
2.75312e-15
1.25298e-16
4.86268e-18
4.62927e-21
3.74669e-20
2.23505e-17
3.89566e-15
2.48374e-13
5.07471e-12
3.38638e-11
8.55048e-11
2.14265e-10
3.57567e-10
2.99855e-10
3.30726e-10
4.72525e-10
5.65042e-10
5.0899e-10
6.72437e-10
4.32121e-09
1.02632e-08
5.65945e-47
1.25857e-41
4.70432e-28
5.37904e-35
2.35624e-37
4.15229e-32
4.12673e-27
4.9444e-22
6.45264e-19
6.63667e-20
5.16134e-22
4.01642e-25
3.9837e-28
7.1385e-24
2.00031e-20
1.53716e-17
2.40296e-15
9.5899e-14
1.26886e-12
6.83178e-12
2.26588e-11
5.71345e-11
9.21648e-11
1.14011e-10
1.48168e-10
1.64515e-10
2.14267e-10
3.10986e-10
4.44183e-10
7.92828e-10
1
1
1
1
1
1
0.999999
0.999402
0.99981
0.998647
0.999993
0.998501
0.999727
0.999776
0.999995
0.995983
0.963682
0.00403409
0.00016895
0.000153552
9.8e-05
6.52418e-10
7.28847e-10
8.2185e-10
-2.11075e-07
0.000162569
0.918744
1
1
1
1
1
1
1
1
1
1
0.998435
0.99843
0.998418
0.99998
0.999318
0.999337
0.999999
0.999004
0.999976
0.480186
0.00138857
0.000678302
0.000244942
5.2582e-05
2.36664e-05
1.14174e-09
5.70725e-10
8.67135e-09
-2.27223e-05
0.748368
1
1
1
1
1
1
1
1
1
1
0.999993
0.999991
0.999328
0.998562
0.999432
0.999391
0.999999
0.999999
0.282831
0.00163093
0.000460436
0.000893376
7.7633e-05
0.000382182
3.43693e-05
2.80419e-07
4.606e-10
5.37817e-10
6.28288e-08
0.0386843
0.9999
1
1
0.999993
0.999993
0.999993
0.999994
0.999994
0.999994
0.999994
0.999989
0.999971
0.999933
0.99924
0.999655
0.999999
0.999999
0.445575
0.000110548
0.000204713
0.000644921
0.000528216
1.02877e-05
1.96255e-05
7.43839e-10
5.42147e-10
2.21721e-10
6.98518e-07
3.8962e-06
3.95213e-05
0.964591
1
1
0.999406
0.999382
0.999385
0.999406
0.999415
0.999396
0.999299
0.999365
0.998481
0.974762
0.77469
0.328099
0.182363
0.0927981
1.09963e-05
2.7023e-05
6.72493e-05
0.000346519
4.42409e-06
0.0001279
1.56301e-05
4.71612e-09
1.38906e-08
1.83057e-10
1.08145e-06
5.02144e-06
7.86919e-07
0.037423
0.999947
0.993993
0.273655
0.265894
0.261317
0.260177
0.254774
0.227288
0.177189
0.107858
0.0429812
1.44195e-09
1.44377e-09
1.52834e-09
-4.17586e-07
4.51854e-07
3.59136e-06
6.92863e-05
4.65517e-05
5.58812e-06
9.30404e-06
0.000248575
0.000190475
2.11095e-05
3.76728e-10
2.42e-10
3.16395e-11
3.22143e-11
-8.4815e-08
1.38161e-05
0.728634
0.999866
-3.14417e-10
1.4197e-10
-1.7464e-09
-7.47266e-10
3.01225e-10
4.91124e-10
6.00925e-10
2.10838e-09
1.71403e-09
1.57155e-09
1.58076e-09
1.62283e-09
2.58298e-09
4.23394e-06
3.74922e-05
2.08039e-05
7.4459e-05
2.51621e-06
2.30955e-06
9.96386e-06
6.35107e-05
8.30146e-06
6.91171e-10
3.24307e-10
3.34183e-11
2.579e-10
4.50596e-10
7.90061e-09
1.33152e-05
0.375031
1.72431e-08
2.95517e-09
1.18875e-09
1.92181e-09
1.51369e-09
1.72852e-09
3.79699e-07
1.27125e-06
4.28072e-08
5.37352e-09
3.85152e-09
6.62777e-09
2.60692e-05
4.03404e-05
1.98094e-05
3.77605e-05
1.49863e-05
2.4628e-06
2.4251e-06
0.000128773
2.12471e-05
1.52931e-07
1.00778e-08
5.25282e-10
3.64333e-11
2.98565e-10
3.52959e-10
1.32234e-09
3.36972e-09
6.81737e-07
2.19938e-08
7.2262e-07
5.30348e-07
2.89877e-09
2.53587e-09
2.44464e-09
1.83751e-06
1.84413e-06
1.02244e-07
7.72622e-06
2.62861e-06
2.25181e-05
2.92598e-05
1.99289e-05
1.99028e-05
8.9244e-05
0.000107232
2.45402e-06
3.50137e-06
0.000112781
1.1298e-05
8.93353e-06
1.78173e-09
1.43296e-09
4.62218e-11
1.79406e-10
2.0659e-10
2.2406e-10
1.05124e-05
8.97345e-05
1.03059e-07
3.34672e-07
7.26586e-07
6.40226e-07
3.15181e-09
2.64866e-09
2.70169e-09
6.4721e-09
1.05998e-08
6.16808e-05
2.30079e-05
3.03065e-05
2.0124e-05
2.0849e-05
5.06651e-05
6.39731e-05
6.78982e-05
2.67381e-06
2.76546e-06
9.40484e-06
2.27459e-05
0.000107118
5.7745e-08
2.82638e-09
3.83107e-11
8.57057e-11
1.62794e-10
2.37499e-10
6.57857e-08
2.4737e-07
9.1195e-05
7.05812e-07
2.20839e-07
5.21432e-07
4.32039e-09
3.35823e-09
1.28495e-08
9.66049e-09
4.03332e-05
6.16808e-05
4.85413e-05
2.10219e-05
6.25881e-05
2.09538e-05
0.000113099
5.86992e-06
1.1819e-05
2.3132e-06
2.47691e-06
6.82713e-05
3.07645e-06
0.000107102
1.64135e-05
1.45107e-10
1.98161e-11
4.0539e-11
1.01527e-10
3.20826e-10
5.59186e-05
2.00039e-05
0.00047679
6.73456e-05
2.29855e-07
1.63249e-07
1.24257e-07
4.079e-07
1.4755e-06
1.33953e-08
5.95461e-05
5.73123e-06
6.81716e-05
2.07884e-05
0.000208411
0.000316603
5.41571e-06
4.03973e-05
6.66857e-06
4.34303e-06
2.66745e-06
2.2212e-05
3.07157e-06
8.96898e-05
4.93847e-10
2.55276e-10
1.41791e-11
1.96846e-11
5.42249e-11
4.28476e-10
1.65084e-09
2.63346e-05
0.000488582
0.000214006
2.30909e-06
1.73253e-06
5.08905e-08
7.38249e-06
8.9486e-07
1.57067e-08
2.37804e-05
3.20056e-06
6.84797e-05
3.72567e-05
0.000369685
0.000227709
5.41494e-06
2.49347e-05
6.78624e-05
1.42035e-05
2.97761e-06
4.04344e-05
6.02748e-05
8.38769e-05
1.16403e-06
9.45706e-11
1.33721e-11
1.0258e-11
2.56168e-11
3.96221e-10
1.15157e-05
4.92873e-14
0.00047452
5.68224e-05
1.58707e-05
0.00077454
0.00133513
0.000380716
4.80598e-06
3.53418e-08
7.64381e-08
2.07013e-06
6.84429e-05
1.91604e-05
0.000544395
7.79246e-06
1.28323e-05
7.27336e-06
0.000606978
0.000692704
4.25498e-06
3.98263e-05
1.63541e-05
5.41965e-05
1.18743e-05
1.2931e-10
1.66013e-11
5.0471e-12
1.09662e-11
1.84541e-10
4.59852e-12
4.40935e-12
0.000472491
8.37944e-06
0.000890675
0.00191553
0.00191513
0.00191504
0.000671439
9.55861e-07
2.25428e-07
1.03818e-06
2.89059e-05
0.000135057
0.000663494
9.056e-06
3.22529e-05
2.65534e-06
0.000864157
0.000678986
0.000833311
1.00354e-06
5.8145e-07
1.14096e-05
1.71874e-06
1.15553e-10
1.67062e-11
2.2359e-12
4.3767e-12
2.49377e-11
5.86925e-11
4.11229e-11
0.000183048
7.27302e-07
3.13621e-07
0.000995346
0.00170542
0.00191204
0.000495184
0.00149168
0.000987402
2.32079e-06
2.43965e-06
0.000117359
0.000525912
0.000644812
5.72473e-05
5.91754e-08
0.000741571
0.000870585
0.000215251
1.46044e-06
1.63403e-06
2.80575e-07
9.09026e-07
2.4373e-10
2.07749e-11
8.74799e-13
1.62729e-12
8.74205e-12
3.51074e-11
1.73476e-11
4.4863e-06
7.78282e-07
3.47789e-08
9.52971e-09
8.58404e-09
9.15263e-09
1.40754e-05
0.00484184
0.00484249
0.00132399
0.0023053
0.00230498
0.000205515
0.000950935
2.69412e-06
3.35397e-09
0.00028934
0.000871145
2.02137e-06
7.55642e-07
5.00127e-07
1.51083e-08
2.18937e-06
1.3151e-10
1.18694e-11
2.96637e-13
5.27248e-13
2.77875e-12
1.63154e-11
7.03269e-12
3.73022e-08
6.03977e-07
1.33449e-08
9.40315e-09
8.70462e-09
2.94564e-07
1.35304e-06
1.36448e-06
0.000618531
0.00191
0.00231177
0.00231997
0.000130054
0.000950935
4.06517e-10
2.22051e-10
1.18398e-06
8.19276e-07
2.41308e-06
1.2147e-09
2.3907e-09
4.69386e-06
5.44326e-06
6.80694e-11
6.67665e-12
9.98464e-14
1.3847e-13
6.6687e-13
4.94049e-12
1.12586e-12
1.64204e-08
1.44263e-08
1.07973e-07
6.40376e-08
2.35384e-06
1.38452e-06
4.772e-06
1.38305e-06
3.12631e-07
7.32632e-05
0.000836838
1.1947e-05
2.39197e-09
1.78809e-10
8.23452e-10
1.68921e-10
5.8541e-10
2.20839e-09
1.19423e-09
5.55461e-10
5.14607e-10
5.53705e-05
3.38131e-07
2.11615e-10
4.28283e-12
4.19809e-14
2.77912e-14
1.06719e-13
7.92002e-13
7.84595e-14
1.36866e-08
1.3645e-08
3.23598e-06
1.51982e-07
3.51094e-07
6.5414e-05
4.57284e-06
3.34299e-09
1.67675e-08
1.26614e-07
6.51112e-09
1.07923e-09
6.32226e-10
3.98616e-10
2.21164e-10
8.54702e-11
6.92781e-09
1.20447e-09
6.1641e-07
1.4518e-07
2.59976e-05
5.53977e-05
4.03486e-10
2.05087e-10
3.86499e-12
2.21591e-14
3.99522e-15
1.10057e-14
5.8976e-14
2.96056e-15
3.87444e-06
2.45687e-06
1.66675e-06
7.63578e-05
7.27863e-05
2.08396e-05
2.46918e-09
1.98915e-09
3.98372e-08
4.85999e-09
7.12387e-10
5.89362e-10
4.8635e-10
2.4719e-10
8.84184e-11
5.91696e-11
2.03379e-08
5.12598e-08
1.07698e-06
6.01098e-07
1.34701e-07
3.6405e-06
2.02795e-07
1.02308e-10
1.23799e-12
8.32161e-15
3.83833e-16
7.69934e-16
1.79277e-15
6.55996e-17
6.18926e-05
0.000134995
2.12822e-05
7.14205e-05
1.30808e-06
4.53272e-09
1.57805e-09
1.57549e-09
1.62213e-09
5.37191e-10
4.70236e-10
4.3458e-10
2.41311e-10
9.5947e-11
3.39354e-11
2.4216e-10
7.48835e-10
1.40039e-05
1.01522e-06
1.03242e-05
1.32138e-07
1.09676e-05
1.01603e-10
2.27519e-11
4.7841e-13
2.76907e-15
2.43036e-17
3.69664e-17
2.21605e-17
7.93829e-19
0.000216426
8.36018e-08
3.9684e-08
2.40236e-08
2.43361e-08
1.36283e-08
1.20964e-06
2.46551e-05
2.46513e-05
2.8045e-06
4.98877e-10
4.48217e-10
1.87591e-10
4.78189e-11
7.94749e-11
2.48327e-10
5.76041e-05
0.000160771
2.23784e-06
8.01201e-06
5.67655e-07
1.28813e-07
1.88821e-10
1.05607e-11
1.46252e-13
5.94432e-16
1.1919e-18
1.06648e-18
1.83549e-19
5.54756e-21
0.000242718
9.90195e-09
7.02982e-09
6.8891e-09
7.03529e-09
2.74566e-08
4.0149e-06
2.46807e-05
2.16458e-05
9.38627e-10
5.24701e-10
6.48435e-10
1.30901e-10
2.58153e-11
6.9146e-11
4.03399e-09
0.000160792
0.000117482
2.26318e-06
6.59507e-05
0.000104943
1.47676e-10
4.60213e-11
1.81693e-12
2.21785e-14
7.56823e-17
6.42956e-20
1.61335e-20
1.54829e-21
2.97082e-23
0.00025347
2.08797e-05
6.74287e-09
6.7752e-09
6.72677e-09
6.75745e-09
7.35442e-09
2.57677e-06
1.48466e-05
1.48558e-05
3.21845e-10
6.55169e-10
8.26443e-11
9.66479e-12
6.0236e-11
1.369e-09
0.000123711
0.000161366
7.98194e-05
0.000108193
5.68474e-08
8.75522e-11
8.19523e-12
2.09325e-13
1.77036e-15
4.33942e-18
2.28875e-21
1.20073e-22
7.80329e-24
7.94135e-26
2.56707e-05
6.75067e-09
6.73965e-09
1.69859e-08
1.77537e-08
6.83398e-09
2.6088e-06
4.39131e-06
2.30786e-06
2.0061e-06
3.4679e-10
1.83804e-10
2.34114e-11
1.61883e-12
3.11124e-11
9.10926e-11
1.75154e-05
0.000161366
0.000139137
1.55138e-09
1.06041e-10
2.87081e-11
1.01823e-12
1.16177e-14
5.10618e-17
7.43511e-20
2.41654e-23
4.27449e-25
1.95521e-26
1.04047e-28
4.03223e-05
2.36504e-05
3.97247e-06
5.22288e-09
1.18289e-07
5.67468e-06
2.88312e-08
1.02545e-05
8.16029e-06
3.77443e-10
2.03689e-10
7.29555e-11
6.8771e-12
1.27397e-13
7.10701e-13
2.114e-11
6.94483e-11
6.41464e-06
9.3417e-10
1.72898e-10
4.73147e-11
1.80484e-12
2.44073e-14
9.97557e-17
2.15963e-19
1.8494e-22
3.64323e-26
7.28185e-28
2.42655e-29
6.81854e-32
9.74151e-09
5.63015e-08
6.81197e-07
1.61633e-09
4.89239e-10
9.35415e-06
3.28479e-06
3.92748e-07
6.29895e-08
2.72236e-10
1.03071e-10
1.21866e-11
5.33531e-13
5.13352e-15
3.65711e-15
5.81594e-13
2.01041e-11
6.04848e-11
1.45342e-10
1.322e-10
1.94716e-12
2.27625e-14
9.9733e-17
9.4262e-20
6.80457e-23
2.83396e-26
3.36305e-30
6.1766e-31
1.53402e-32
2.38195e-35
1.56291e-08
3.88772e-09
1.41757e-09
5.98481e-10
4.46894e-08
2.69006e-07
2.76548e-10
2.77552e-10
1.20254e-10
3.25159e-11
4.52329e-12
2.99838e-13
8.08432e-15
5.92256e-17
1.40203e-19
1.48504e-16
4.34399e-14
4.84966e-12
1.42767e-11
1.67478e-12
1.13706e-14
5.03696e-17
6.46427e-20
7.75767e-24
5.90719e-28
7.67496e-32
2.66272e-34
2.84876e-34
5.45405e-36
4.94234e-39
5.56174e-10
3.20066e-10
2.10179e-10
1.83502e-10
3.83428e-10
1.98141e-10
5.61761e-11
1.96914e-11
5.49755e-12
8.22327e-13
6.28194e-14
2.2734e-15
3.25769e-17
1.32876e-19
7.40737e-23
1.41218e-21
5.20273e-18
6.93215e-15
1.10568e-13
4.43215e-15
1.54663e-17
2.6768e-20
8.91022e-24
1.03652e-28
1.96261e-34
4.42108e-38
8.86238e-38
8.3582e-38
1.32883e-39
7.39114e-43
1
1
1
1
1
1
1
1
1
1
1
1
1
1
1
1
1
1
1
1
1
1
1
1
1
1
1
1
1
1
1
1
1
1
1
1
1
1
1
1
1
1
1
1
1
1
1
1
1
1
1
1
1
1
1
1
1
1
1
1
1
1
1
1
1
1
1
1
1
1
1
1
1
1
1
1
1
1
1
1
1
1
1
1
1
1
1
1
1
1
1
1
1
1
1
1
1
1
1
1
1
1
1
1
1
1
1
1
1
1
1
1
1
1
1
1
1
1
1
1
1
1
1
1
1
1
1
1
1
1
1
1
1
1
1
1
1
1
1
1
1
1
1
1
1
1
1
1
1
1
1
1
1
1
1
1
1
1
1
1
1
1
1
1
1
1
1
1
1
1
1
1
1
1
1
1
1
1
1
1
1
1
1
1
1
1
1
1
1
1
1
1
1
1
1
1
1
1
1
1
1
1
1
1
1
1
1
1
1
1
1
1
1
1
1
1
1
1
1
1
1
1
1
1
1
1
1
1
1
1
1
1
1
1
1
1
1
1
1
1
1
1
1
1
1
1
1
1
1
1
1
1
1
1
1
1
1
1
1
1
1
1
1
1
1
1
1
1
1
1
1
1
1
1
1
1
1
1
1
1
1
1
1
1
1
1
1
1
1
1
1
1
1
1
1
1
1
1
1
1
1
1
1
1
1
1
1
1
1
1
1
1
1
1
1
1
1
1
1
1
1
1
1
1
1
1
1
1
1
1
1
1
1
1
1
1
1
1
1
1
1
1
1
1
1
1
1
1
1
1
1
1
1
1
1
1
1
1
1
1
1
1
1
1
1
1
1
1
1
1
1
1
1
1
1
1
1
1
1
1
1
1
1
1
1
1
1
1
1
1
1
1
1
1
1
1
1
1
1
1
1
1
1
1
1
1
1
1
1
1
1
1
1
1
1
1
1
1
1
1
1
1
1
1
1
1
1
1
1
1
1
1
1
1
1
1
1
1
1
1
1
1
1
1
1
1
1
1
1
1
1
1
1
1
1
1
1
1
1
1
1
1
1
1
1
1
1
1
1
1
1
1
1
1
1
1
1
1
1
1
1
1
1
1
1
1
1
1
1
1
1
1
1
1
1
1
1
1
1
1
1
1
1
1
1
1
1
1
1
1
1
1
1
1
1
1
1
1
1
1
1
1
1
1
1
1
1
1
1
1
1
1
1
1
1
1
1
1
1
1
1
1
1
1
1
1
1
0.999999
0.999992
1
1
1
1
1
1
1
1
1
1
1
1
1
1
1
1
1
1
1
1
1
1
1
1
1
1
1
1
1
0.999992
0.999999
1
1
1
1
1
1
1
1
1
1
1
1
1
1
1
1
1
1
1
1
1
1
1
1
1
1
1
1
0.999999
0.999998
1
1
1
1
1
1
1
1
1
1
1
1
1
1
1
1
1
1
1
1
1
1
1
1
1
1
1
1
1
0.999999
0.912218
0.997002
1
1
1
1
1
1
1
1
1
1
1
1
1
1
1
1
1
1
1
1
1
1
1
1
1
1
1
0.944503
0.00211572
0.381593
0.999441
1
1
1
1
1
0.999968
0.999989
1
1
1
1
1
1
1
1
1
1
1
1
1
1
1
1
1
0.999998
0.455737
4.73751e-06
1.13565e-05
0.0963574
0.999733
1
1
1
1
0.999997
0.999928
0.999981
1
1
1
1
1
1
1
1
1
1
1
1
1
1
1
1
0.999999
0.55501
2.38288e-05
6.10819e-08
1.93147e-08
0.0183721
0.999969
0.998676
0.999987
1
1
0.999947
0.999997
0.999988
0.999984
1
1
1
1
1
1
1
1
1
1
0.999967
0.972318
1
1
1
0.959729
4.8235e-05
2.01143e-07
2.02503e-09
-1.06548e-09
0.000258289
0.999986
0.99984
0.999361
0.999798
0.999998
0.999978
0.999935
0.999991
0.999997
1
1
1
1
1
1
1
1
1
1
0.999635
0.955218
1
1
0.99997
0.0190443
1.52033e-06
7.57718e-09
5.96894e-10
3.39413e-12
1.89267e-05
0.971396
0.999984
0.999361
0.999879
0.999999
0.999998
0.998806
0.999376
0.999996
1
1
1
1
1
1
1
1
1
1
0.999444
0.969271
1
0.999999
0.548051
3.951e-06
6.8912e-09
5.23587e-10
4.96485e-10
-3.77217e-09
6.7024e-07
0.860265
0.99999
0.99999
0.999989
0.999875
0.999943
0.998808
0.999921
0.999949
0.999978
1
1
1
1
1
1
1
1
1
0.99813
0.954042
1
0.953547
0.000447915
-7.15296e-07
5.49035e-10
3.0474e-10
3.81802e-10
-8.1078e-10
0.000329413
0.405151
0.999959
0.999991
0.999985
0.999833
0.99972
0.999913
0.999954
0.999981
1
1
1
1
1
1
1
1
1
1
0.984686
0.99781
0.99985
7.10298e-06
2.53557e-07
8.20704e-10
3.6116e-10
3.02211e-10
3.43812e-10
1.26551e-12
1.03394e-10
0.0991446
0.99998
0.999979
0.998228
0.999937
0.999886
0.999816
0.999923
0.999992
1
1
0.999993
0.999998
1
1
1
1
1
1
1
1
1
1
1
1
1
1
1
1
1
1
1
1
1
1
1
1
1
1
1
1
1
1
1
1
1
1
1
1
1
1
1
1
1
1
1
1
1
1
1
1
1
1
1
1
1
1
1
1
1
1
1
1
1
1
1
1
1
1
1
1
1
1
1
1
1
1
1
1
1
1
1
1
1
1
1
1
1
1
1
1
1
1
1
1
1
1
1
1
1
1
1
1
1
1
1
1
1
1
1
1
1
1
1
1
1
1
1
1
1
1
1
1
1
1
1
1
1
1
1
1
1
1
1
1
1
1
1
1
1
1
1
1
1
1
1
1
1
1
1
1
1
1
1
1
1
1
1
1
1
1
1
1
1
1
1
1
1
1
1
1
1
1
1
1
1
1
1
1
1
1
1
1
1
1
1
1
1
1
1
1
1
1
1
1
1
1
1
1
1
1
1
1
1
1
1
1
1
1
1
1
1
1
1
1
1
1
1
1
1
1
1
1
1
1
1
1
1
1
1
1
1
1
1
1
1
1
1
1
1
1
1
1
1
1
1
1
1
1
1
1
1
1
1
1
1
1
1
1
1
1
1
1
1
1
1
1
1
1
1