/*--------------------------------*- C++ -*----------------------------------*\
| =========                 |                                                 |
| \\      /  F ield         | OpenFOAM: The Open Source CFD Toolbox           |
|  \\    /   O peration     | Version:  2.4.0                                 |
|   \\  /    A nd           | Web:      www.OpenFOAM.org                      |
|    \\/     M anipulation  |                                                 |
\*---------------------------------------------------------------------------*/
FoamFile
{
    version     2.0;
    format      ascii;
    class       volVectorField;
    location    "0.057";
    object      U;
}
// * * * * * * * * * * * * * * * * * * * * * * * * * * * * * * * * * * * * * //

dimensions      [0 1 -1 0 0 0 0];

internalField   nonuniform List<vector> 
3600
(
(9.6132e-06 -6.82063e-05 -3.18117e-11)
(-3.31638e-05 -3.15976e-05 -5.93802e-11)
(-5.04921e-05 3.04697e-08 -3.92262e-11)
(-0.000186236 8.16933e-06 -3.09882e-11)
(-0.000170232 1.05094e-05 -2.17273e-11)
(-0.000372939 2.22579e-05 -1.88669e-11)
(-0.000312976 2.12778e-05 -1.32183e-11)
(-0.00060555 3.69496e-05 -1.22963e-11)
(-0.000504114 2.73606e-05 -8.31872e-12)
(-0.000872111 4.82488e-05 -7.99515e-12)
(-0.000767946 3.45265e-05 -5.2112e-12)
(-0.00116811 5.8872e-05 -4.89035e-12)
(-0.00112602 4.42581e-05 -3.12289e-12)
(-0.00149291 6.4004e-05 -2.63529e-12)
(-0.00151876 4.52744e-05 -1.63072e-12)
(-0.00174329 5.30647e-05 -1.10208e-12)
(-0.0017251 2.04584e-05 -5.90751e-13)
(-0.00154377 1.32682e-06 -1.96145e-13)
(-0.00109268 -3.36685e-05 -2.34383e-14)
(-0.000477754 -2.92422e-05 1.13631e-13)
(-0.000152144 -2.37084e-05 8.97825e-14)
(0.000181766 -1.20622e-05 9.2391e-14)
(0.000164689 -3.97894e-06 5.14172e-14)
(0.000229797 -1.03191e-06 3.69495e-14)
(0.000145287 8.64102e-07 1.84875e-14)
(0.000130399 7.63789e-07 1.10571e-14)
(7.52948e-05 8.72934e-07 5.15398e-15)
(5.47759e-05 5.36594e-07 2.6702e-15)
(2.90915e-05 4.08011e-07 1.13693e-15)
(1.77241e-05 2.12929e-07 5.07923e-16)
(-5.66776e-05 9.60144e-05 -1.36903e-10)
(-0.000177133 0.000158302 -1.39906e-10)
(-0.000238634 0.000213476 -7.31325e-11)
(-0.000432465 0.00023071 -4.92207e-11)
(-0.000457537 0.000222916 -3.29518e-11)
(-0.000739242 0.000240343 -2.72729e-11)
(-0.00068987 0.000216704 -1.84887e-11)
(-0.0010774 0.000250872 -1.67633e-11)
(-0.000950427 0.000202807 -1.08745e-11)
(-0.00143729 0.000259536 -1.04347e-11)
(-0.00127303 0.000188496 -6.3977e-12)
(-0.00178598 0.000260154 -6.05126e-12)
(-0.00165944 0.000174471 -3.55189e-12)
(-0.00207714 0.000231857 -2.96097e-12)
(-0.00200275 0.000132323 -1.63018e-12)
(-0.00217331 0.000149308 -9.86792e-13)
(-0.00203828 1.99462e-05 -4.03695e-13)
(-0.00169729 -3.82349e-05 3.78455e-14)
(-0.00113706 -0.000141402 1.58137e-13)
(-0.000382883 -0.000114647 2.72926e-13)
(-5.15598e-05 -8.20993e-05 1.85989e-13)
(0.000318764 -4.00479e-05 1.59985e-13)
(0.000260068 -9.87315e-06 8.76572e-14)
(0.000316548 -1.23528e-06 5.89256e-14)
(0.000199384 5.31241e-06 2.94527e-14)
(0.000171182 3.92159e-06 1.69711e-14)
(9.9006e-05 4.01027e-06 7.90104e-15)
(7.01337e-05 2.38583e-06 3.98896e-15)
(3.72269e-05 1.72874e-06 1.68901e-15)
(2.28612e-05 1.00598e-06 7.69316e-16)
(-5.87435e-05 0.000433882 -1.43806e-10)
(-0.000193091 0.000468084 -1.47595e-10)
(-0.000251718 0.000485934 -7.3862e-11)
(-0.000446648 0.000497039 -4.85169e-11)
(-0.000458618 0.000468026 -3.15998e-11)
(-0.000752174 0.000488251 -2.65572e-11)
(-0.000693527 0.000430019 -1.76539e-11)
(-0.00110196 0.000483501 -1.64124e-11)
(-0.000964644 0.000388255 -1.0385e-11)
(-0.00147364 0.000483209 -1.02187e-11)
(-0.00129534 0.000344905 -6.07872e-12)
(-0.00182268 0.000467045 -5.85456e-12)
(-0.0016844 0.000300289 -3.33152e-12)
(-0.00210503 0.000398401 -2.77847e-12)
(-0.00202172 0.000210888 -1.47115e-12)
(-0.0021857 0.000240464 -8.42636e-13)
(-0.00204923 1.12637e-05 -2.94635e-13)
(-0.00168791 -8.48352e-05 1.31641e-13)
(-0.00111398 -0.000254869 2.20171e-13)
(-0.00033819 -0.0002032 3.17011e-13)
(-1.44981e-05 -0.000140199 2.10898e-13)
(0.00035146 -6.64738e-05 1.7482e-13)
(0.000280724 -1.45386e-05 9.53526e-14)
(0.00033099 -4.28745e-07 6.30847e-14)
(0.000207949 1.0442e-05 3.14911e-14)
(0.000176704 7.55367e-06 1.79901e-14)
(0.000102189 7.4257e-06 8.37e-15)
(7.19565e-05 4.41663e-06 4.20022e-15)
(3.80364e-05 3.11753e-06 1.76892e-15)
(2.36657e-05 1.70057e-06 8.19777e-16)
(-3.35712e-05 0.000639405 -1.09384e-10)
(-0.000154168 0.000702966 -1.2702e-10)
(-0.000205123 0.000718519 -6.54352e-11)
(-0.000414001 0.000729108 -4.59001e-11)
(-0.000417139 0.000690358 -3.0061e-11)
(-0.000730291 0.000722507 -2.63257e-11)
(-0.00066271 0.000640079 -1.73247e-11)
(-0.00109432 0.000715585 -1.65985e-11)
(-0.000946223 0.000575204 -1.03506e-11)
(-0.00147206 0.000708567 -1.0375e-11)
(-0.00128705 0.000503045 -6.10496e-12)
(-0.00182172 0.000676485 -5.91195e-12)
(-0.00168926 0.000429865 -3.36045e-12)
(-0.00211229 0.000568015 -2.77697e-12)
(-0.00204016 0.00029389 -1.4773e-12)
(-0.00220777 0.000335411 -8.21458e-13)
(-0.00208771 5.22709e-06 -2.8134e-13)
(-0.00171421 -0.00013332 1.56394e-13)
(-0.0011202 -0.000372014 2.37061e-13)
(-0.000318844 -0.00029418 3.30122e-13)
(3.90029e-06 -0.000198459 2.17401e-13)
(0.000366428 -9.26897e-05 1.78018e-13)
(0.000288495 -1.87078e-05 9.67204e-14)
(0.000334519 5.52992e-07 6.36277e-14)
(0.000209601 1.57027e-05 3.17296e-14)
(0.000177192 1.12187e-05 1.80737e-14)
(0.000102373 1.08646e-05 8.4023e-15)
(7.19663e-05 6.45437e-06 4.21147e-15)
(3.8116e-05 4.51767e-06 1.77664e-15)
(2.32664e-05 2.36526e-06 8.06427e-16)
(-3.84562e-05 0.000828427 -1.17693e-10)
(-0.000166006 0.000924792 -1.35124e-10)
(-0.000204657 0.000950574 -6.77332e-11)
(-0.000428888 0.000967777 -4.8394e-11)
(-0.000415047 0.000917474 -3.10889e-11)
(-0.000747602 0.000962154 -2.77877e-11)
(-0.000659153 0.000851384 -1.79347e-11)
(-0.00111341 0.000950948 -1.75089e-11)
(-0.000945654 0.000760759 -1.07395e-11)
(-0.0014897 0.000936005 -1.08875e-11)
(-0.00129428 0.00065989 -6.36132e-12)
(-0.00183566 0.000888261 -6.14515e-12)
(-0.00171174 0.000561015 -3.51788e-12)
(-0.00213624 0.000740366 -2.85888e-12)
(-0.0020795 0.000379645 -1.54742e-12)
(-0.00225173 0.000434363 -8.37062e-13)
(-0.00215305 5.52618e-07 -2.93039e-13)
(-0.00176132 -0.000184862 1.69872e-13)
(-0.00113719 -0.000494482 2.47667e-13)
(-0.000299669 -0.000388306 3.40006e-13)
(2.35976e-05 -0.000256747 2.21674e-13)
(0.000382099 -0.000118184 1.79676e-13)
(0.000295858 -2.21775e-05 9.71501e-14)
(0.000337039 1.96561e-06 6.36088e-14)
(0.000210366 2.10944e-05 3.16716e-14)
(0.000176985 1.49425e-05 1.80066e-14)
(0.000102156 1.43112e-05 8.36579e-15)
(7.16944e-05 8.48942e-06 4.19007e-15)
(3.79842e-05 5.92411e-06 1.76858e-15)
(2.30825e-05 3.16417e-06 7.97485e-16)
(-4.14695e-05 0.00105905 -1.27572e-10)
(-0.000181578 0.00116399 -1.49354e-10)
(-0.000207591 0.00118886 -7.2939e-11)
(-0.000452375 0.00121087 -5.26983e-11)
(-0.000417505 0.00114559 -3.29473e-11)
(-0.000777063 0.00120474 -3.0044e-11)
(-0.000661952 0.00106301 -1.89239e-11)
(-0.00114397 0.00119018 -1.88136e-11)
(-0.000950708 0.000946536 -1.13275e-11)
(-0.00151699 0.00116787 -1.16025e-11)
(-0.00130817 0.000817213 -6.73302e-12)
(-0.00185658 0.00110477 -6.46826e-12)
(-0.00174428 0.000696408 -3.74001e-12)
(-0.00216968 0.000917467 -2.97508e-12)
(-0.00213192 0.000470804 -1.64568e-12)
(-0.00230998 0.000539488 -8.62683e-13)
(-0.00223899 -1.08272e-06 -3.11295e-13)
(-0.00182336 -0.000240769 1.84974e-13)
(-0.00115928 -0.000624438 2.60056e-13)
(-0.000275099 -0.000486933 3.51714e-13)
(4.85785e-05 -0.000315145 2.26568e-13)
(0.000401436 -0.000142921 1.81435e-13)
(0.000304733 -2.48274e-05 9.7514e-14)
(0.000339899 3.74037e-06 6.34947e-14)
(0.000211129 2.66378e-05 3.15523e-14)
(0.000176617 1.87152e-05 1.79021e-14)
(0.000101833 1.77625e-05 8.31186e-15)
(7.13221e-05 1.05224e-05 4.15934e-15)
(3.77768e-05 7.32502e-06 1.75524e-15)
(2.2941e-05 3.9103e-06 7.91041e-16)
(-4.16942e-05 0.00128871 -1.35827e-10)
(-0.000196393 0.00141023 -1.65409e-10)
(-0.000207111 0.00143517 -7.86856e-11)
(-0.000478884 0.00146314 -5.79028e-11)
(-0.00041855 0.00137869 -3.51873e-11)
(-0.000812558 0.00145607 -3.28485e-11)
(-0.000666055 0.00127601 -2.0158e-11)
(-0.00118246 0.00143491 -2.0455e-11)
(-0.000958305 0.00113169 -1.20673e-11)
(-0.00155113 0.00140447 -1.24929e-11)
(-0.00132651 0.00097399 -7.20221e-12)
(-0.00188131 0.00132631 -6.86412e-12)
(-0.00178495 0.000836373 -4.01818e-12)
(-0.00221053 0.00109983 -3.11634e-12)
(-0.00219544 0.000567856 -1.76705e-12)
(-0.00238134 0.000652176 -8.94206e-13)
(-0.00234562 3.75856e-07 -3.33433e-13)
(-0.00190041 -0.000302149 2.03731e-13)
(-0.00118566 -0.000763801 2.75553e-13)
(-0.000243753 -0.000591047 3.65969e-13)
(7.97772e-05 -0.000373542 2.32455e-13)
(0.000424862 -0.000166568 1.83479e-13)
(0.000315316 -2.64134e-05 9.79094e-14)
(0.000343208 6.03047e-06 6.33367e-14)
(0.000211975 3.23642e-05 3.13998e-14)
(0.000176137 2.25476e-05 1.77728e-14)
(0.000101432 2.12182e-05 8.24591e-15)
(7.08674e-05 1.25529e-05 4.12192e-15)
(3.75198e-05 8.71861e-06 1.73867e-15)
(2.27814e-05 4.6748e-06 7.84077e-16)
(-5.49401e-05 0.00155721 -1.627e-10)
(-0.000230395 0.00167007 -1.92492e-10)
(-0.00021061 0.00168616 -8.64865e-11)
(-0.000513135 0.0017199 -6.43649e-11)
(-0.000419671 0.0016152 -3.78495e-11)
(-0.000855822 0.00170803 -3.62864e-11)
(-0.000671701 0.00149044 -2.16267e-11)
(-0.00122821 0.00168323 -2.24391e-11)
(-0.000968843 0.00131658 -1.29696e-11)
(-0.00159133 0.00164671 -1.35648e-11)
(-0.00134928 0.00113029 -7.77712e-12)
(-0.00190823 0.00155394 -7.33151e-12)
(-0.0018336 0.000982549 -4.35623e-12)
(-0.0022583 0.00128849 -3.28176e-12)
(-0.00226954 0.000672339 -1.91241e-12)
(-0.00246605 0.00077445 -9.31511e-13)
(-0.00247469 6.32789e-06 -3.59263e-13)
(-0.00199401 -0.000370348 2.26663e-13)
(-0.00121625 -0.000914888 2.9463e-13)
(-0.000204595 -0.000701924 3.82957e-13)
(0.000117842 -0.000431792 2.39389e-13)
(0.000452495 -0.000188863 1.85805e-13)
(0.000327593 -2.67326e-05 9.8336e-14)
(0.000346926 8.91248e-06 6.31352e-14)
(0.000212888 3.83029e-05 3.12157e-14)
(0.00017554 2.64482e-05 1.76196e-14)
(0.000100951 2.46782e-05 8.1683e-15)
(7.03316e-05 1.45803e-05 4.07805e-15)
(3.72162e-05 1.01034e-05 1.71918e-15)
(2.25918e-05 5.42793e-06 7.75873e-16)
(-5.50562e-05 0.00188028 -1.70763e-10)
(-0.000258024 0.00195954 -2.14871e-10)
(-0.000212802 0.00194492 -9.39423e-11)
(-0.000551612 0.00200809 -7.18761e-11)
(-0.000424698 0.00185908 -4.09645e-11)
(-0.000906777 0.002002 -4.03976e-11)
(-0.000676944 0.00170743 -2.33526e-11)
(-0.00128174 0.00195612 -2.48221e-11)
(-0.000981217 0.00150089 -1.40538e-11)
(-0.00163733 0.00189742 -1.48339e-11)
(-0.00137653 0.00128522 -8.4713e-12)
(-0.0019356 0.00178831 -7.87139e-12)
(-0.00189039 0.00113624 -4.76082e-12)
(-0.00231277 0.00148429 -3.47129e-12)
(-0.00235356 0.000785399 -2.08324e-12)
(-0.00256448 0.000908668 -9.75052e-13)
(-0.00262838 1.77682e-05 -3.88845e-13)
(-0.0021061 -0.000446962 2.54229e-13)
(-0.001251 -0.00108025 3.17753e-13)
(-0.00015643 -0.000820895 4.02824e-13)
(0.0001635 -0.000489605 2.47391e-13)
(0.00048442 -0.000209436 1.88387e-13)
(0.000341506 -2.55492e-05 9.87797e-14)
(0.000350985 1.24839e-05 6.28849e-14)
(0.000213839 4.44807e-05 3.09987e-14)
(0.000174817 3.04244e-05 1.74423e-14)
(0.000100386 2.81417e-05 8.07897e-15)
(6.97141e-05 1.66038e-05 4.02778e-15)
(3.68668e-05 1.14781e-05 1.69685e-15)
(2.23686e-05 6.1764e-06 7.66232e-16)
(-4.11981e-05 0.00217886 -1.67037e-10)
(-0.000284033 0.00222496 -2.37378e-10)
(-0.000190194 0.00219575 -1.00782e-10)
(-0.000606903 0.00223791 -8.12356e-11)
(-0.000426189 0.00210858 -4.45951e-11)
(-0.000976131 0.00221567 -4.53707e-11)
(-0.000695702 0.00192682 -2.54337e-11)
(-0.00134439 0.00218281 -2.76395e-11)
(-0.00100607 0.00168514 -1.53657e-11)
(-0.00168882 0.00214796 -1.63171e-11)
(-0.00140963 0.00143866 -9.30334e-12)
(-0.00196106 0.00202904 -8.48386e-12)
(-0.00195553 0.00129948 -5.23963e-12)
(-0.00237377 0.00168762 -3.6851e-12)
(-0.00244668 0.000908171 -2.28149e-12)
(-0.00267708 0.00105725 -1.0254e-12)
(-0.00280953 3.67714e-05 -4.22342e-13)
(-0.00223909 -0.000533762 2.86897e-13)
(-0.00128984 -0.00126278 3.45491e-13)
(-9.77892e-05 -0.000948995 4.25729e-13)
(0.000217622 -0.000546968 2.56474e-13)
(0.000520709 -0.000227881 1.9119e-13)
(0.000356977 -2.26237e-05 9.92235e-14)
(0.000355307 1.68346e-05 6.25793e-14)
(0.000214793 5.09218e-05 3.0747e-14)
(0.000173954 3.44823e-05 1.72405e-14)
(9.97328e-05 3.16077e-05 7.97787e-15)
(6.90143e-05 1.86221e-05 3.97115e-15)
(3.64718e-05 1.28413e-05 1.67172e-15)
(2.21102e-05 6.91871e-06 7.55088e-16)
(-5.05157e-05 0.00258061 -1.85441e-10)
(-0.000319105 0.00262866 -2.71923e-10)
(-0.000256081 0.00253674 -1.15375e-10)
(-0.000686187 0.00268821 -9.36591e-11)
(-0.000473671 0.00237814 -4.94774e-11)
(-0.00103832 0.00265222 -5.09603e-11)
(-0.000686489 0.00213774 -2.7552e-11)
(-0.00141147 0.00255191 -3.09339e-11)
(-0.00100981 0.00186608 -1.68738e-11)
(-0.00174545 0.00243803 -1.80328e-11)
(-0.00144537 0.00158779 -1.02928e-11)
(-0.00198206 0.00227913 -9.16896e-12)
(-0.00202906 0.00147453 -5.80252e-12)
(-0.00244139 0.00190006 -3.92341e-12)
(-0.00254759 0.00104246 -2.50874e-12)
(-0.00280395 0.00122404 -1.08335e-12)
(-0.00302141 6.41646e-05 -4.59872e-13)
(-0.00239605 -0.000632617 3.25275e-13)
(-0.00133257 -0.00146586 3.78495e-13)
(-2.69673e-05 -0.00108729 4.51852e-13)
(0.000281163 -0.000603809 2.66646e-13)
(0.000561478 -0.000243703 1.94173e-13)
(0.000373904 -1.76998e-05 9.96466e-14)
(0.000359795 2.20536e-05 6.22105e-14)
(0.000215712 5.76467e-05 3.04587e-14)
(0.000172939 3.86266e-05 1.7014e-14)
(9.89872e-05 3.50746e-05 7.86494e-15)
(6.82314e-05 2.06343e-05 3.90818e-15)
(3.60312e-05 1.41919e-05 1.64381e-15)
(2.18165e-05 7.65407e-06 7.42439e-16)
(-1.56857e-05 0.00281891 -1.60136e-10)
(-0.000410381 0.00284569 -3.09742e-10)
(-0.000169876 0.00276007 -1.15058e-10)
(-0.000809236 0.00276674 -1.04897e-10)
(-0.000431154 0.00258648 -5.16957e-11)
(-0.00112807 0.00267437 -5.72944e-11)
(-0.000738986 0.00237452 -3.06262e-11)
(-0.00149113 0.00267154 -3.48071e-11)
(-0.00108294 0.00205671 -1.88775e-11)
(-0.00180685 0.00264782 -2.00029e-11)
(-0.00150186 0.00173437 -1.14841e-11)
(-0.00199446 0.00252754 -9.92396e-12)
(-0.00211182 0.00166616 -6.45953e-12)
(-0.0025156 0.00211979 -4.18625e-12)
(-0.0026547 0.00118792 -2.76754e-12)
(-0.0029458 0.00141158 -1.15008e-12)
(-0.00326825 0.000105102 -5.01665e-13)
(-0.00258034 -0.000745935 3.70071e-13)
(-0.00137899 -0.00169339 4.17521e-13)
(5.81138e-05 -0.00123743 4.81397e-13)
(0.000355241 -0.000659561 2.77913e-13)
(0.00060683 -0.000256344 1.97287e-13)
(0.000392151 -1.05015e-05 1.00025e-13)
(0.000364338 2.82257e-05 6.17697e-14)
(0.000216551 6.46717e-05 3.01318e-14)
(0.000171759 4.28602e-05 1.67625e-14)
(9.81449e-05 3.85402e-05 7.74014e-15)
(6.73645e-05 2.26387e-05 3.8389e-15)
(3.55451e-05 1.55286e-05 1.61315e-15)
(2.14881e-05 8.38167e-06 7.28325e-16)
(-2.8171e-05 0.00350263 -2.01495e-10)
(-0.000407161 0.00355452 -3.64742e-10)
(-0.000314339 0.00329814 -1.56087e-10)
(-0.000781125 0.00358952 -1.85765e-10)
(-0.000479575 0.00293927 -6.54726e-11)
(-0.0011292 0.00346291 -6.4952e-11)
(-0.000687392 0.00260465 -3.28916e-11)
(-0.00157766 0.00326814 -3.94018e-11)
(-0.00104715 0.00223178 -2.07757e-11)
(-0.00187499 0.00305186 -2.2263e-11)
(-0.00152958 0.00187781 -1.28639e-11)
(-0.00199494 0.00279712 -1.0749e-11)
(-0.00220057 0.00187962 -7.221e-12)
(-0.00259809 0.00235089 -4.47414e-12)
(-0.00276528 0.00134852 -3.05919e-12)
(-0.00310121 0.00162685 -1.22697e-12)
(-0.0035546 0.000157034 -5.47801e-13)
(-0.00279707 -0.000876363 4.22068e-13)
(-0.00142879 -0.0019499 4.63443e-13)
(0.000159944 -0.00140121 5.14588e-13)
(0.000441168 -0.000713525 2.90267e-13)
(0.000656838 -0.00026512 2.00475e-13)
(0.00041155 -6.84931e-07 1.00332e-13)
(0.000368806 3.54308e-05 6.12471e-14)
(0.000217263 7.20074e-05 2.9764e-14)
(0.000170398 4.71839e-05 1.64857e-14)
(9.72014e-05 4.2002e-05 7.60347e-15)
(6.6413e-05 2.46339e-05 3.76337e-15)
(3.50134e-05 1.68499e-05 1.57979e-15)
(2.1126e-05 9.10077e-06 7.12807e-16)
(5.59866e-06 0.00344266 -9.81133e-11)
(-0.000681088 0.00358657 9.21591e-10)
(-2.06188e-05 0.00329711 -3.22816e-10)
(-0.00106423 0.00321102 -6.13689e-09)
(-0.000441521 0.00297667 -4.95147e-10)
(-0.00134879 0.00306983 -1.01123e-10)
(-0.000873231 0.00279825 -3.89289e-11)
(-0.00168185 0.00313934 -4.43335e-11)
(-0.00122966 0.00238299 -2.41372e-11)
(-0.00194303 0.00312797 -2.47779e-11)
(-0.00165782 0.00198826 -1.46334e-11)
(-0.00197598 0.00301197 -1.16223e-11)
(-0.00230209 0.00211307 -8.10397e-12)
(-0.00268909 0.00258453 -4.78604e-12)
(-0.00287665 0.00151987 -3.38608e-12)
(-0.00327272 0.00187034 -1.31671e-12)
(-0.0038871 0.000237824 -5.98856e-13)
(-0.00305007 -0.0010273 4.82244e-13)
(-0.00148158 -0.00224071 5.17279e-13)
(0.000281544 -0.00158059 5.51669e-13)
(0.00054046 -0.000764805 3.03692e-13)
(0.000711555 -0.000269259 2.03666e-13)
(0.000431893 1.20453e-05 1.00537e-13)
(0.000373049 4.37415e-05 6.06325e-14)
(0.000217793 7.9659e-05 2.93531e-14)
(0.000168842 5.15968e-05 1.61833e-14)
(9.61527e-05 4.54568e-05 7.45496e-15)
(6.53763e-05 2.66181e-05 3.68164e-15)
(3.4436e-05 1.81545e-05 1.54375e-15)
(2.07319e-05 9.81097e-06 6.95965e-16)
(6.26069e-05 0.00494739 1.66437e-07)
(-0.000601505 0.0047767 5.86374e-07)
(-0.000622954 0.00407631 7.06576e-08)
(-0.000995912 0.00487696 2.88987e-07)
(-0.000589105 0.00358334 1.32548e-08)
(-0.00122772 0.00454087 1.61713e-09)
(-0.000657533 0.00319774 2.15864e-11)
(-0.00176083 0.00412239 -4.75062e-11)
(-0.00110515 0.00267942 -2.62549e-11)
(-0.00201758 0.00375113 -2.7771e-11)
(-0.00164059 0.00218551 -1.64618e-11)
(-0.00192068 0.00334886 -1.25547e-11)
(-0.00238854 0.00238344 -9.10299e-12)
(-0.00279119 0.00284297 -5.12326e-12)
(-0.00298335 0.00170963 -3.74734e-12)
(-0.00345277 0.00215389 -1.42091e-12)
(-0.00427146 0.000326751 -6.54871e-13)
(-0.00334959 -0.00120206 5.51599e-13)
(-0.00153677 -0.00257203 5.80214e-13)
(0.000426531 -0.00177768 5.92912e-13)
(0.000654874 -0.000812269 3.18152e-13)
(0.000770967 -0.000267811 2.06779e-13)
(0.000452926 2.79708e-05 1.00608e-13)
(0.000376905 5.3221e-05 5.99154e-14)
(0.000218085 8.76244e-05 2.88964e-14)
(0.000167074 5.60949e-05 1.5855e-14)
(9.49952e-05 4.89009e-05 7.2947e-15)
(6.4254e-05 2.85895e-05 3.59379e-15)
(3.38131e-05 1.94408e-05 1.50508e-15)
(2.03075e-05 1.05117e-05 6.77897e-16)
(-0.000302138 0.00397766 -1.3146e-05)
(-0.00170574 0.00496343 -3.06095e-05)
(0.000134353 0.00400321 -2.81756e-06)
(-0.00149848 0.00350815 -8.64361e-06)
(-0.000630006 0.00321892 -3.11638e-07)
(-0.00156396 0.00328853 -8.31159e-08)
(-0.00114179 0.00317412 -1.36138e-09)
(-0.00189407 0.00359846 -4.09871e-10)
(-0.00151079 0.00262027 -3.57011e-11)
(-0.00211794 0.00357085 -3.09271e-11)
(-0.00191359 0.00212055 -1.92155e-11)
(-0.00186702 0.00346192 -1.349e-11)
(-0.00252236 0.00266717 -1.02783e-11)
(-0.00290779 0.00308404 -5.48658e-12)
(-0.00308536 0.0019063 -4.14876e-12)
(-0.00365174 0.00247829 -1.54528e-12)
(-0.00471787 0.000484348 -7.17547e-13)
(-0.00369633 -0.0014067 6.31628e-13)
(-0.00159374 -0.0029518 6.53591e-13)
(0.000599253 -0.00199499 6.38618e-13)
(0.000786424 -0.000854459 3.33595e-13)
(0.000834991 -0.000259716 2.09715e-13)
(0.000474329 4.74495e-05 1.00506e-13)
(0.000380189 6.39201e-05 5.90847e-14)
(0.000218078 9.58935e-05 2.83916e-14)
(0.000165081 6.06721e-05 1.55007e-14)
(9.37258e-05 5.23296e-05 7.12283e-15)
(6.30458e-05 3.0546e-05 3.49991e-15)
(3.31448e-05 2.07072e-05 1.46381e-15)
(1.9854e-05 1.1202e-05 6.58674e-16)
(0.000341163 0.00942318 0.000246558)
(-0.000560668 0.00701219 0.000771019)
(-0.00202648 0.00437992 5.448e-05)
(-0.00139711 0.00683326 8.50696e-05)
(-0.000612847 0.00424667 -7.49037e-07)
(-0.00113449 0.00586719 1.3868e-06)
(-0.000463044 0.00398049 9.39683e-09)
(-0.00199136 0.00514241 1.4126e-08)
(-0.00124724 0.00325304 7.67967e-11)
(-0.00217968 0.00452902 -1.78974e-11)
(-0.00179791 0.00246582 -2.13784e-11)
(-0.00166379 0.00390827 -1.44404e-11)
(-0.00256834 0.00303682 -1.152e-11)
(-0.00303816 0.00338304 -5.87638e-12)
(-0.00316488 0.00211591 -4.58022e-12)
(-0.00384204 0.00285746 -1.69029e-12)
(-0.00523438 0.000619376 -7.86658e-13)
(-0.00411559 -0.00164233 7.23374e-13)
(-0.00165124 -0.0033874 7.3902e-13)
(0.00080503 -0.00223487 6.89119e-13)
(0.000937466 -0.000889352 3.49949e-13)
(0.000903443 -0.000243619 2.12356e-13)
(0.000495708 7.08351e-05 1.0019e-13)
(0.000382697 7.58737e-05 5.81289e-14)
(0.000217706 0.000104448 2.78363e-14)
(0.000162845 6.53193e-05 1.51201e-14)
(9.23409e-05 5.57382e-05 6.93943e-15)
(6.17516e-05 3.24856e-05 3.40008e-15)
(3.24311e-05 2.19522e-05 1.42e-15)
(1.93724e-05 1.18804e-05 6.3834e-16)
(-0.000691556 0.00337283 -0.00349782)
(-0.00548987 0.008244 -0.00696032)
(-0.00146392 0.00609636 -0.000162385)
(-0.00244019 0.00272169 -0.000742674)
(-0.0014441 0.00295569 3.93034e-05)
(-0.0014739 0.00316577 -1.84273e-05)
(-0.00171879 0.00363857 7.65513e-07)
(-0.00212568 0.00415138 -2.62015e-07)
(-0.00205498 0.00280431 1.86929e-09)
(-0.00239724 0.00393422 -6.70782e-10)
(-0.00232821 0.00205734 -2.40382e-11)
(-0.00160017 0.00384936 -1.57422e-11)
(-0.00275853 0.00343348 -1.30941e-11)
(-0.00320704 0.00364739 -6.30597e-12)
(-0.00323803 0.00237867 -5.06417e-12)
(-0.00406061 0.00332742 -1.86862e-12)
(-0.00583454 0.000915813 -8.66545e-13)
(-0.00458989 -0.00192643 8.29574e-13)
(-0.00170896 -0.0038942 8.38115e-13)
(0.00104986 -0.00250227 7.44685e-13)
(0.00111062 -0.000914558 3.67095e-13)
(0.000975982 -0.000218177 2.14562e-13)
(0.000516558 9.84799e-05 9.96101e-14)
(0.000384204 8.90936e-05 5.70369e-14)
(0.000216907 0.000113259 2.72284e-14)
(0.000160352 7.00244e-05 1.47132e-14)
(9.08367e-05 5.9121e-05 6.74458e-15)
(6.03716e-05 3.44058e-05 3.29444e-15)
(3.16725e-05 2.31741e-05 1.3737e-15)
(1.88623e-05 1.25455e-05 6.16894e-16)
(-0.00134602 0.021733 0.00600616)
(0.00213333 0.016213 0.0101134)
(-0.00205218 0.00365774 -0.00180276)
(-0.000300692 0.00862917 0.00183149)
(0.00134022 0.00457192 -0.000235555)
(-0.000568883 0.0071055 0.000128235)
(0.00022963 0.00529102 -7.44606e-06)
(-0.0023277 0.00634758 2.84195e-06)
(-0.00164347 0.00405126 -8.01897e-08)
(-0.00240533 0.00536057 1.14833e-08)
(-0.00200936 0.00261067 -1.40694e-10)
(-0.00105623 0.00438796 -2.76849e-12)
(-0.00269036 0.00380217 -1.46706e-11)
(-0.00338135 0.00385168 -6.74195e-12)
(-0.00325019 0.00246647 -5.55371e-12)
(-0.00424008 0.00379702 -2.07721e-12)
(-0.00654073 0.00109751 -9.58105e-13)
(-0.00518807 -0.00224286 9.5051e-13)
(-0.00176322 -0.00447214 9.53369e-13)
(0.00134223 -0.00279606 8.0573e-13)
(0.00130924 -0.000924722 3.84894e-13)
(0.00105212 -0.00018124 2.16176e-13)
(0.000536304 0.000130757 9.8716e-14)
(0.000384462 0.000103565 5.57976e-14)
(0.000215613 0.000122286 2.65661e-14)
(0.000157588 7.47726e-05 1.42797e-14)
(8.92092e-05 6.24715e-05 6.53833e-15)
(5.8906e-05 3.63043e-05 3.1831e-15)
(3.08691e-05 2.43715e-05 1.32498e-15)
(1.83227e-05 1.31961e-05 5.94305e-16)
(0.00342452 0.00448919 -0.000245395)
(-0.00260247 0.00614341 0.00591386)
(-0.00888068 0.00928232 0.0173792)
(0.000256699 -0.000574745 -0.0108384)
(-0.00222542 0.00222327 0.00227051)
(-0.000947269 0.00359646 -0.000584811)
(-0.00322431 0.00440003 9.81912e-05)
(-0.00265379 0.00523905 -1.36334e-05)
(-0.00316495 0.00296174 1.13204e-06)
(-0.00287901 0.00408942 -1.11297e-07)
(-0.00297976 0.0016565 3.94969e-09)
(-0.00109382 0.00410356 -2.40481e-10)
(-0.00299822 0.00471073 -1.06025e-11)
(-0.00363933 0.0044336 -7.35703e-12)
(-0.00323306 0.00297573 -6.14907e-12)
(-0.00443057 0.00459138 -2.33555e-12)
(-0.00734102 0.00165351 -1.06685e-12)
(-0.00583339 -0.00265039 1.09125e-12)
(-0.00181713 -0.00516635 1.08566e-12)
(0.00168881 -0.00313364 8.72186e-13)
(0.00153605 -0.000928098 4.03071e-13)
(0.00113079 -0.000132627 2.16999e-13)
(0.000554158 0.000167932 9.74477e-14)
(0.000383196 0.000119233 5.43999e-14)
(0.00021376 0.000131476 2.58479e-14)
(0.000154539 7.95454e-05 1.38197e-14)
(8.74552e-05 6.57827e-05 6.32075e-15)
(5.73555e-05 3.8178e-05 3.06621e-15)
(3.00214e-05 2.55425e-05 1.27389e-15)
(1.77531e-05 1.3831e-05 5.7055e-16)
(0.0120719 0.0143937 -0.00176126)
(0.0106698 0.0348379 -0.0181741)
(0.0109065 0.00905969 -0.0074009)
(0.017859 0.00271191 -0.0145159)
(0.00666307 0.00722936 -0.00814733)
(0.00795854 0.00883908 -0.000684623)
(0.000608283 0.00799597 -0.000247571)
(-0.00287759 0.00766596 -6.22205e-05)
(-0.00285911 0.00512087 -4.87715e-06)
(-0.00287966 0.00616651 1.15459e-07)
(-0.00230646 0.00240476 -3.52916e-08)
(0.000249543 0.00463658 -5.53726e-10)
(-0.00259135 0.00474735 -4.34741e-11)
(-0.00394715 0.00413129 -4.29779e-12)
(-0.00317063 0.00263405 -7.0799e-12)
(-0.00459321 0.00505944 -2.60912e-12)
(-0.00834995 0.00187538 -1.21753e-12)
(-0.00670959 -0.00307431 1.24993e-12)
(-0.00185815 -0.00593187 1.24096e-12)
(0.00210511 -0.00348131 9.4529e-13)
(0.00179739 -0.000880379 4.21553e-13)
(0.00121277 -6.26468e-05 2.16869e-13)
(0.000569515 0.000210593 9.57486e-14)
(0.000380115 0.000136018 5.28333e-14)
(0.000211288 0.000140764 2.50729e-14)
(0.0001512 8.43234e-05 1.33336e-14)
(8.55726e-05 6.90486e-05 6.09201e-15)
(5.57207e-05 4.00255e-05 2.94393e-15)
(2.91297e-05 2.66871e-05 1.22051e-15)
(1.71536e-05 1.4452e-05 5.45655e-16)
(0.00378283 -0.0573525 -0.00119025)
(0.016378 -0.00985504 -0.000507908)
(0.0240704 -0.0104977 -0.00635953)
(0.00791955 -0.00633866 0.00125041)
(-0.00411705 0.00598119 -0.0105213)
(-0.00453883 0.00460016 0.000257742)
(0.00285252 0.0110115 0.000119745)
(-0.00247419 0.00712928 0.000968923)
(-0.00471919 0.00329899 -3.12666e-05)
(-0.00395875 0.00363905 8.29218e-06)
(-0.00395288 0.00056359 -1.70883e-07)
(-0.000134048 0.00403834 6.25095e-08)
(-0.00319902 0.00681598 -2.75584e-09)
(-0.00432362 0.00549269 6.63432e-11)
(-0.00290457 0.0036267 -1.36596e-11)
(-0.00462519 0.00649205 -2.22328e-12)
(-0.00938905 0.00291251 -1.57197e-12)
(-0.00758236 -0.00367937 1.43999e-12)
(-0.00190029 -0.00691201 1.41411e-12)
(0.00259622 -0.00392846 1.02259e-12)
(0.00209162 -0.00087112 4.39298e-13)
(0.00129053 1.39769e-05 2.15322e-13)
(0.000580291 0.000258172 9.35366e-14)
(0.000374863 0.000153629 5.10877e-14)
(0.000208141 0.000150026 2.42407e-14)
(0.000147564 8.90488e-05 1.28219e-14)
(8.35604e-05 7.22407e-05 5.85232e-15)
(5.40026e-05 4.1827e-05 2.81639e-15)
(2.81945e-05 2.77901e-05 1.16489e-15)
(1.65276e-05 1.50412e-05 5.19784e-16)
(-0.000156753 -0.0240337 -0.0120549)
(0.00195598 -0.0163269 0.00293095)
(0.00599201 -0.0002464 0.00271293)
(0.0175017 0.0221517 4.96457e-05)
(-0.000509303 0.0210473 0.00355842)
(-0.00155323 0.00548593 -0.00191494)
(-0.00185966 0.00704794 0.0031066)
(-0.0124276 0.0139949 -0.00430179)
(-0.0062281 0.0073551 0.000702809)
(-0.00367709 0.0069746 -9.03633e-05)
(-0.00246236 0.00138111 3.17341e-06)
(0.00283884 0.00441276 -1.02352e-06)
(-0.00201522 0.00612549 6.55582e-08)
(-0.00499514 0.00417396 -1.71152e-09)
(-0.00280257 0.00243827 -2.68314e-11)
(-0.00476507 0.00680448 5.1916e-12)
(-0.0109087 0.0031596 -4.95722e-12)
(-0.00890536 -0.00428142 1.71385e-12)
(-0.0019118 -0.007938 1.62233e-12)
(0.00318968 -0.00432029 1.10993e-12)
(0.00243817 -0.000720324 4.57687e-13)
(0.00137797 0.000134462 2.1263e-13)
(0.000587797 0.000313317 9.07835e-14)
(0.000367202 0.000172451 4.91566e-14)
(0.000204281 0.000159623 2.33519e-14)
(0.000143634 9.40154e-05 1.22853e-14)
(8.14201e-05 7.55655e-05 5.60193e-15)
(5.22027e-05 4.37244e-05 2.68375e-15)
(2.72163e-05 2.89486e-05 1.10708e-15)
(1.58734e-05 1.56754e-05 4.92829e-16)
(-0.0215867 -0.0634777 -0.0418808)
(-0.0358037 -0.0218106 -0.0211619)
(-0.0143511 -0.0340002 -0.0202301)
(-0.00971158 -0.00932846 0.00921758)
(0.00699104 0.0203767 -0.0103867)
(0.00741546 0.00504902 -0.000339138)
(-0.00476231 0.0182543 -0.00529676)
(0.00374151 0.011068 0.00685483)
(-0.011542 -0.000588775 -0.00223563)
(-0.00558124 0.00141678 0.000512211)
(-0.00521969 -0.00195709 -5.30481e-05)
(0.00172735 0.00334062 1.01974e-05)
(-0.00334745 0.0103809 -9.52062e-07)
(-0.0055327 0.00695533 4.70635e-08)
(-0.00201475 0.00412285 -2.53946e-09)
(-0.00440022 0.00932726 1.68864e-10)
(-0.0122301 0.00500669 -4.80159e-11)
(-0.010086 -0.00507761 2.49181e-12)
(-0.00192292 -0.0092806 1.8273e-12)
(0.00388775 -0.00490052 1.196e-12)
(0.00281458 -0.000691176 4.72084e-13)
(0.00144135 0.000239157 2.07221e-13)
(0.000585087 0.000367418 8.73268e-14)
(0.000356507 0.000189776 4.70279e-14)
(0.000199643 0.000167385 2.24058e-14)
(0.00013939 9.78357e-05 1.17237e-14)
(7.91377e-05 7.80258e-05 5.34072e-15)
(5.0313e-05 4.50898e-05 2.54601e-15)
(2.61908e-05 2.97496e-05 1.04714e-15)
(1.51973e-05 1.60893e-05 4.65285e-16)
(-0.0279611 0.119046 -0.0417428)
(-0.00562153 0.0234476 -0.0680596)
(-0.016217 -0.00571779 -0.0287892)
(-0.0107822 0.00560527 0.0300839)
(-0.000505497 0.00682055 0.0283523)
(0.00163148 0.0125241 0.00124351)
(-0.0131786 0.0126428 -0.00616472)
(0.00281319 0.018919 -0.0101865)
(-0.00505121 0.0157876 0.00772856)
(-0.00681036 0.00509557 -0.0014829)
(-0.00113666 -0.000995494 0.000158033)
(0.00785411 0.00358857 -5.05466e-05)
(-0.000414249 0.00844607 6.569e-06)
(-0.00704481 0.00386938 -3.15697e-07)
(-0.00195731 0.00153342 1.09106e-08)
(-0.0044573 0.00932895 9.46957e-11)
(-0.0145669 0.00525997 -5.16987e-10)
(-0.0121109 -0.00618115 4.86133e-14)
(-0.00189743 -0.0108819 1.79752e-12)
(0.00472496 -0.00542734 1.29757e-12)
(0.00327254 -0.000392376 4.89411e-13)
(0.00153208 0.000452291 2.0102e-13)
(0.000580989 0.000446888 8.33148e-14)
(0.000343308 0.000212113 4.47262e-14)
(0.00019433 0.000179234 2.14121e-14)
(0.000134946 0.000104332 1.11432e-14)
(7.67819e-05 8.25714e-05 5.07152e-15)
(4.83815e-05 4.77111e-05 2.40454e-15)
(2.51445e-05 3.13778e-05 9.85603e-16)
(1.45048e-05 1.69786e-05 4.36743e-16)
(-0.00859876 0.0452927 -0.0458819)
(0.0316837 -0.0248259 -0.0495684)
(-0.0251388 -0.0108191 -0.00548592)
(0.0195118 -0.0217618 0.00888804)
(0.00714961 0.00968373 0.0133065)
(-0.031978 0.0119992 -0.0151542)
(-0.0129343 0.0197308 0.0152406)
(-0.0226634 0.00352091 -0.00847275)
(-0.00701088 0.00509456 -0.0090423)
(-0.0127648 -0.000500264 0.00503916)
(-0.00558061 -0.00816664 -0.0011723)
(0.00501084 0.00154641 0.00024832)
(-0.0033516 0.0165817 -3.88695e-05)
(-0.00781252 0.00915596 3.55427e-06)
(-0.000175873 0.00392835 -2.47539e-07)
(-0.00333304 0.0134659 1.56366e-08)
(-0.0163042 0.00848926 -5.30311e-09)
(-0.0137674 -0.00688824 -1.63994e-10)
(-0.00181847 -0.0123818 -3.03775e-12)