/*--------------------------------*- C++ -*----------------------------------*\
| =========                 |                                                 |
| \\      /  F ield         | OpenFOAM: The Open Source CFD Toolbox           |
|  \\    /   O peration     | Version:  2.4.0                                 |
|   \\  /    A nd           | Web:      www.OpenFOAM.org                      |
|    \\/     M anipulation  |                                                 |
\*---------------------------------------------------------------------------*/
FoamFile
{
    version     2.0;
    format      ascii;
    class       surfaceScalarField;
    location    "0.081";
    object      phiAlpha;
}
// * * * * * * * * * * * * * * * * * * * * * * * * * * * * * * * * * * * * * //

dimensions      [0 3 -1 0 0 0 0];

internalField   nonuniform List<scalar> 
114720
(
-1.53427e-09
1.32002e-09
2.93274e-09
-2.7185e-09
3.99513e-09
-4.81511e-09
-3.4494e-10
1.16492e-09
7.40181e-09
-8.16682e-09
-2.96841e-10
1.06185e-09
1.03736e-08
-1.0965e-08
-1.81913e-10
7.73344e-10
1.22232e-08
-1.23558e-08
6.22525e-11
7.04401e-11
1.17914e-08
-1.13286e-08
3.15274e-10
-7.78043e-10
9.23426e-09
-8.42259e-09
3.92725e-10
-1.2044e-09
5.48722e-09
-4.43665e-09
4.01733e-10
-1.45231e-09
6.68289e-10
6.8247e-10
4.51288e-10
-1.80205e-09
-5.49726e-09
7.19295e-09
5.59345e-10
-2.25503e-09
-1.30065e-08
1.49465e-08
6.64891e-10
-2.60489e-09
-2.10912e-08
2.29651e-08
6.41135e-10
-2.51497e-09
-2.83418e-08
2.98091e-08
4.63431e-10
-1.93069e-09
-3.34841e-08
3.43108e-08
1.76942e-10
-1.00365e-09
-3.57953e-08
3.59133e-08
-1.32423e-10
1.43582e-11
-3.52672e-08
3.47707e-08
-3.72671e-10
8.69116e-10
-3.24424e-08
3.15065e-08
-5.08245e-10
1.44412e-09
-2.8116e-08
2.69483e-08
-5.42573e-10
1.71027e-09
-2.31466e-08
2.19424e-08
-4.97669e-10
1.7018e-09
-1.82671e-08
1.71645e-08
-4.07832e-10
1.51044e-09
-1.39396e-08
1.30076e-08
-3.04592e-10
1.2366e-09
-1.036e-08
9.61446e-09
-2.08419e-10
9.53944e-10
-7.54093e-09
6.96856e-09
-1.2804e-10
7.00409e-10
-5.40323e-09
4.97883e-09
-6.49569e-11
4.89352e-10
-3.83443e-09
3.52829e-09
-1.79195e-11
3.24058e-10
-2.71286e-09
2.49644e-09
1.47244e-11
2.01702e-10
-1.92004e-09
1.76579e-09
3.45578e-11
1.19692e-10
-1.34568e-09
1.22928e-09
4.31677e-11
7.32378e-11
-8.97382e-10
8.00472e-10
4.34458e-11
5.34646e-11
-5.10233e-10
4.22133e-10
3.90026e-11
4.90972e-11
1.69562e-09
9.80093e-09
-7.99989e-09
-3.49666e-09
8.18682e-09
-5.31759e-09
-9.72873e-09
6.8595e-09
1.43265e-08
-4.8663e-09
-1.58293e-08
6.36907e-09
2.02366e-08
-3.79642e-09
-2.15403e-08
5.1001e-09
2.45655e-08
-8.30063e-10
-2.51112e-08
1.37573e-09
2.51382e-08
2.71522e-09
-2.46211e-08
-3.23232e-09
2.16187e-08
5.18561e-09
-2.02036e-08
-6.6007e-09
1.46167e-08
7.38348e-09
-1.23789e-08
-9.6213e-09
4.34806e-09
9.71214e-09
-1.35419e-09
-1.2706e-08
-8.74457e-09
1.17825e-08
1.23143e-08
-1.53522e-08
-2.37467e-08
1.28029e-08
2.75728e-08
-1.66291e-08
-3.91001e-08
1.19589e-08
4.27243e-08
-1.55831e-08
-5.29787e-08
9.39715e-09
5.5997e-08
-1.24155e-08
-6.39455e-08
5.74662e-09
6.60948e-08
-7.89585e-09
-7.12085e-08
1.86113e-09
7.24096e-08
-3.06219e-09
-7.4699e-08
-1.56514e-09
7.50181e-08
1.24607e-09
-7.47857e-08
-4.20521e-09
7.43427e-08
4.64824e-09
-7.20084e-08
-5.89115e-09
7.09597e-08
6.93976e-09
-6.70565e-08
-6.61319e-09
6.55899e-08
8.07982e-09
-6.06968e-08
-6.57655e-09
5.89957e-08
8.27762e-09
-5.36304e-08
-6.06985e-09
5.18448e-08
7.85544e-09
-4.63955e-08
-5.34862e-09
4.46299e-08
7.11419e-09
-3.9347e-08
-4.58253e-09
3.76624e-08
6.26716e-09
-3.26811e-08
-3.86303e-09
3.11079e-08
5.43626e-09
-2.64868e-08
-3.23584e-09
2.50356e-08
4.68701e-09
-2.0792e-08
-2.71912e-09
1.94635e-08
4.04754e-09
-1.55856e-08
-2.32026e-09
1.43737e-08
3.5321e-09
-1.08431e-08
-2.02549e-09
9.74125e-09
3.12738e-09
-6.5367e-09
-1.81151e-09
5.53715e-09
2.81106e-09
-2.6353e-09
-1.64116e-09
1.73322e-09
2.54324e-09
1.73137e-09
1.71334e-08
-1.52908e-08
-3.574e-09
8.5139e-09
-1.16364e-08
-1.01262e-08
1.32487e-08
1.49715e-08
-1.1079e-08
-1.65707e-08
1.26782e-08
2.13255e-08
-9.27271e-09
-2.27594e-08
1.07066e-08
2.62016e-08
-3.26801e-09
-2.68774e-08
3.94381e-09
2.72367e-08
4.62907e-09
-2.68014e-08
-5.06437e-09
2.39579e-08
1.08258e-08
-2.25637e-08
-1.222e-08
1.69497e-08
1.64317e-08
-1.46775e-08
-1.8704e-08
6.49085e-09
2.18358e-08
-3.43655e-09
-2.48901e-08
-6.85409e-09
2.62138e-08
1.0489e-08
-2.98487e-08
-2.21295e-08
2.82635e-08
2.60263e-08
-3.21603e-08
-3.77724e-08
2.66205e-08
4.14694e-08
-3.03174e-08
-5.19542e-08
2.16621e-08
5.50515e-08
-2.47593e-08
-6.32539e-08
1.45773e-08
6.54899e-08
-1.68134e-08
-7.08852e-08
6.96146e-09
7.21866e-08
-8.26292e-09
-7.48275e-08
1.05007e-10
7.528e-08
-5.57545e-10
-7.55201e-08
-5.47735e-09
7.5253e-08
5.74439e-09
-7.35176e-08
-9.5138e-09
7.26827e-08
1.03487e-08
-6.94704e-08
-1.19064e-08
6.82371e-08
1.31397e-08
-6.40499e-08
-1.28926e-08
6.25699e-08
1.43727e-08
-5.78184e-08
-1.28796e-08
5.62071e-08
1.44909e-08
-5.11873e-08
-1.22696e-08
4.95249e-08
1.39319e-08
-4.44348e-08
-1.13743e-08
4.27721e-08
1.3037e-08
-3.77331e-08
-1.03877e-08
3.61008e-08
1.202e-08
-3.11844e-08
-9.42186e-09
2.96014e-08
1.1005e-08
-2.48611e-08
-8.52343e-09
2.33434e-08
1.00412e-08
-1.88246e-08
-7.71999e-09
1.73876e-08
9.15707e-09
-1.31447e-08
-6.99634e-09
1.18067e-08
8.33434e-09
-7.89168e-09
-6.3434e-09
6.66614e-09
7.56894e-09
-3.10652e-09
-5.72985e-09
2.00103e-09
6.83534e-09
1.73658e-09
2.45311e-08
-2.26783e-08
-3.58946e-09
8.54027e-09
-1.81013e-08
-1.01598e-08
1.97208e-08
1.50322e-08
-1.75047e-08
-1.6646e-08
1.91185e-08
2.14689e-08
-1.50651e-08
-2.29349e-08
1.65311e-08
2.64905e-08
-6.03201e-09
-2.72002e-08
6.74174e-09
2.76323e-08
6.33726e-09
-2.72126e-08
-6.75693e-09
2.44077e-08
1.63823e-08
-2.30245e-08
-1.77656e-08
1.74343e-08
2.55178e-08
-1.51652e-08
-2.77869e-08
6.97406e-09
3.40648e-08
-3.91489e-09
-3.71239e-08
-6.40013e-09
4.07787e-08
1.005e-08
-4.44285e-08
-2.17734e-08
4.39052e-08
2.57083e-08
-4.78401e-08
-3.75901e-08
4.14729e-08
4.13354e-08
-4.52182e-08
-5.19736e-08
3.41131e-08
5.5121e-08
-3.72605e-08
-6.34602e-08
2.35561e-08
6.57309e-08
-2.58268e-08
-7.11846e-08
1.21531e-08
7.24898e-08
-1.34583e-08
-7.51003e-08
1.85556e-09
7.55292e-08
-2.28454e-09
-7.56459e-08
-6.66016e-09
7.53183e-08
6.98772e-09
-7.33306e-08
-1.30212e-08
7.23928e-08
1.3959e-08
-6.88217e-08
-1.70235e-08
6.74619e-08
1.83833e-08
-6.28879e-08
-1.89682e-08
6.12864e-08
2.05697e-08
-5.61991e-08
-1.94242e-08
5.44931e-08
2.11303e-08
-4.92381e-08
-1.89565e-08
4.75178e-08
2.06768e-08
-4.23099e-08
-1.80067e-08
4.06282e-08
1.96885e-08
-3.55887e-08
-1.6853e-08
3.39745e-08
1.84671e-08
-2.91642e-08
-1.56578e-08
2.76313e-08
1.71907e-08
-2.30844e-08
-1.44781e-08
2.16414e-08
1.59211e-08
-1.73784e-08
-1.33422e-08
1.60321e-08
1.46885e-08
-1.20798e-08
-1.22214e-08
1.08392e-08
1.34619e-08
-7.22064e-09
-1.11244e-08
6.0905e-09
1.22545e-08
-2.81208e-09
-1.004e-08
1.79471e-09
1.10574e-08
1.73992e-09
3.19673e-08
-3.01043e-08
-3.60293e-09
8.5338e-09
-2.45793e-08
-1.0153e-08
2.61985e-08
1.50247e-08
-2.39672e-08
-1.66431e-08
2.55855e-08
2.15014e-08
-2.09615e-08
-2.29894e-08
2.24494e-08
2.66281e-08
-8.90398e-09
-2.73603e-08
9.63618e-09
2.78246e-08
8.01075e-09
-2.7408e-08
-8.42727e-09
2.46201e-08
2.19012e-08
-2.32473e-08
-2.3274e-08
1.76977e-08
3.45769e-08
-1.54417e-08
-3.6833e-08
7.28063e-09
4.62926e-08
-4.22831e-09
-4.9345e-08
-6.07863e-09
5.53901e-08
9.73644e-09
-5.90479e-08
-2.15455e-08
5.97104e-08
2.55268e-08
-6.36918e-08
-3.75869e-08
5.65492e-08
4.13995e-08
-6.03618e-08
-5.2264e-08
4.68145e-08
5.5491e-08
-5.00414e-08
-6.40678e-08
3.27365e-08
6.64088e-08
-3.50774e-08
-7.20288e-08
1.74297e-08
7.33747e-08
-1.87756e-08
-7.60859e-08
3.60544e-09
7.65426e-08
-4.06215e-09
-7.6717e-08
-7.97542e-09
7.63933e-08
8.29907e-09
-7.43526e-08
-1.6845e-08
7.33754e-08
1.78222e-08
-6.96223e-08
-2.25947e-08
6.8186e-08
2.40311e-08
-6.33364e-08
-2.55423e-08
6.16358e-08
2.72429e-08
-5.62307e-08
-2.64248e-08
5.44184e-08
2.82371e-08
-4.88455e-08
-2.59985e-08
4.70257e-08
2.78183e-08
-4.1539e-08
-2.4858e-08
3.97764e-08
2.66206e-08
-3.45307e-08
-2.33829e-08
3.28641e-08
2.50496e-08
-2.7946e-08
-2.1802e-08
2.63959e-08
2.33522e-08
-2.18535e-08
-2.02015e-08
2.04301e-08
2.16249e-08
-1.62776e-08
-1.86286e-08
1.4982e-08
1.99242e-08
-1.12179e-08
-1.70559e-08
1.0047e-08
1.82268e-08
-6.65314e-09
-1.551e-08
5.59817e-09
1.65649e-08
-2.54526e-09
-1.39827e-08
1.59919e-09
1.49287e-08
1.74429e-09
3.94513e-08
-3.7575e-08
-3.62053e-09
8.52346e-09
-3.10546e-08
-1.01414e-08
3.26724e-08
1.50094e-08
-3.04471e-08
-1.66321e-08
3.20698e-08
2.15305e-08
-2.69513e-08
-2.30449e-08
2.84657e-08
2.67863e-08
-1.18722e-08
-2.75461e-08
1.26321e-08
2.80476e-08
9.67242e-09
-2.76341e-08
-1.00859e-08
2.48686e-08
2.73716e-08
-2.35106e-08
-2.87297e-08
1.80187e-08
4.3575e-08
-1.57811e-08
-4.58125e-08
7.66221e-09
5.84881e-08
-4.61948e-09
-6.15309e-08
-5.67143e-09
7.00344e-08
9.33758e-09
-7.37005e-08
-2.12548e-08
7.5722e-08
2.52961e-08
-7.97633e-08
-3.75847e-08
7.19232e-08
4.14831e-08
-7.58215e-08
-5.26378e-08
5.98703e-08
5.59681e-08
-6.32006e-08
-6.48581e-08
4.22357e-08
6.72948e-08
-4.46723e-08
-7.3133e-08
2.28893e-08
7.45312e-08
-2.42876e-08
-7.7383e-08
5.49567e-09
7.78849e-08
-5.99759e-09
-7.81814e-08
-9.23648e-09
7.78832e-08
9.53463e-09
-7.5851e-08
-2.07861e-08
7.4853e-08
2.17841e-08
-7.09777e-08
-2.84226e-08
6.94866e-08
2.99137e-08
-6.44468e-08
-3.2448e-08
6.26788e-08
3.4216e-08
-5.70644e-08
-3.37815e-08
5.5184e-08
3.56619e-08
-4.94081e-08
-3.33812e-08
4.75244e-08
3.5265e-08
-4.18522e-08
-3.20016e-08
4.00326e-08
3.38212e-08
-3.46267e-08
-3.01252e-08
3.2913e-08
3.1839e-08
-2.78703e-08
-2.80539e-08
2.62862e-08
2.96379e-08
-2.16631e-08
-2.59172e-08
2.02211e-08
2.73592e-08
-1.60346e-08
-2.3806e-08
1.4735e-08
2.51056e-08
-1.09763e-08
-2.17153e-08
9.81212e-09
2.28795e-08
-6.44959e-09
-1.96959e-08
5.40747e-09
2.0738e-08
-2.39858e-09
-1.77308e-08
1.46775e-09
1.86616e-08
1.74946e-09
4.69953e-08
-4.51029e-08
-3.64184e-09
8.5112e-09
-3.75236e-08
-1.01273e-08
3.91397e-08
1.49907e-08
-3.69454e-08
-1.66186e-08
3.85734e-08
2.1565e-08
-3.30556e-08
-2.31119e-08
3.46026e-08
2.69824e-08
-1.49615e-08
-2.77772e-08
1.57562e-08
2.83242e-08
1.13213e-08
-2.7914e-08
-1.17315e-08
2.51761e-08
3.27772e-08
-2.38366e-08
-3.41168e-08
1.84165e-08
5.24926e-08
-1.62014e-08
-5.47077e-08
8.1319e-09
7.06432e-08
-5.09996e-09
-7.36751e-08
-5.16699e-09
8.47109e-08
8.84074e-09
-8.83846e-08
-2.08903e-08
9.19942e-08
2.50061e-08
-9.611e-08
-3.75749e-08
8.76672e-08
4.15776e-08
-9.16698e-08
-5.30863e-08
7.33751e-08
5.65441e-08
-7.68329e-08
-6.5828e-08
5.21617e-08
6.83921e-08
-5.47259e-08
-7.44963e-08
2.8569e-08
7.59529e-08
-3.00256e-08
-7.89693e-08
7.58814e-09
7.9531e-08
-8.1498e-09
-8.00105e-08
-1.03712e-08
7.97551e-08
1.06266e-08
-7.77582e-08
-2.48083e-08
7.67397e-08
2.58267e-08
-7.27255e-08
-3.44771e-08
7.11716e-08
3.6031e-08
-6.5916e-08
-3.96254e-08
6.40748e-08
4.14667e-08
-5.82433e-08
-4.14007e-08
5.62959e-08
4.33481e-08
-5.0332e-08
-4.09987e-08
4.83922e-08
4.29385e-08
-4.25658e-08
-3.93485e-08
4.07006e-08
4.12137e-08
-3.51684e-08
-3.70375e-08
3.34167e-08
3.87891e-08
-2.82666e-08
-3.44394e-08
2.66495e-08
3.60565e-08
-2.19304e-08
-3.17281e-08
2.04582e-08
3.32003e-08
-1.61833e-08
-2.90416e-08
1.48559e-08
3.0369e-08
-1.10171e-08
-2.64027e-08
9.82851e-09
2.75913e-08
-6.39862e-09
-2.38873e-08
5.3371e-09
2.49489e-08
-2.27797e-09
-2.14688e-08
1.33382e-09
2.24129e-08
1.75637e-09
5.46141e-08
-5.27016e-08
-3.66889e-09
8.494e-09
-4.39839e-08
-1.01072e-08
4.5597e-08
1.49632e-08
-4.34648e-08
-1.65964e-08
4.5098e-08
2.15964e-08
-3.92989e-08
-2.31817e-08
4.08843e-08
2.72087e-08
-1.82017e-08
-2.8046e-08
1.90389e-08
2.86462e-08
1.29578e-08
-2.82387e-08
-1.33653e-08
2.55334e-08
3.81025e-08
-2.42166e-08
-3.94193e-08
1.88853e-08
6.13125e-08
-1.6698e-08
-6.34997e-08
8.68743e-09
8.27518e-08
-5.66823e-09
-8.5771e-08
-4.55806e-09
9.94124e-08
8.23519e-09
-1.0309e-07
-2.04366e-08
1.08586e-07
2.46414e-08
-1.12791e-07
-3.75389e-08
1.03853e-07
4.16624e-08
-1.07977e-07
-5.35848e-08
8.74235e-08
5.71918e-08
-9.10306e-08
-6.69546e-08
6.2661e-08
6.9693e-08
-6.53994e-08
-7.61063e-08
3.44808e-08
7.76179e-08
-3.59923e-08
-8.08081e-08
9.94299e-09
8.14454e-08
-1.05803e-08
-8.21931e-08
-1.13013e-08
8.20047e-08
1.14898e-08
-8.00767e-08
-2.89149e-08
7.90357e-08
2.99558e-08
-7.48506e-08
-4.08046e-08
7.32183e-08
4.2437e-08
-6.76953e-08
-4.71186e-08
6.57646e-08
4.90493e-08
-5.96723e-08
-4.9304e-08
5.76458e-08
5.13305e-08
-5.14636e-08
-4.88495e-08
4.94602e-08
5.08529e-08
-4.34618e-08
-4.68809e-08
4.15471e-08
4.87956e-08
-3.58794e-08
-4.4102e-08
3.40877e-08
4.58938e-08
-2.88226e-08
-4.09602e-08
2.71693e-08
4.26135e-08
-2.234e-08
-3.76694e-08
2.08312e-08
3.91782e-08
-1.6441e-08
-3.44062e-08
1.50749e-08
3.57723e-08
-1.11168e-08
-3.12114e-08
9.88958e-09
3.24386e-08
-6.3472e-09
-2.81805e-08
5.25166e-09
2.9276e-08
-2.10135e-09
-2.528e-08
1.13218e-09
2.62492e-08
1.76516e-09
6.23241e-08
-6.03871e-08
-3.70213e-09
8.47481e-09
-5.04315e-08
-1.00843e-08
5.2041e-08
1.49319e-08
-5.00065e-08
-1.6571e-08
5.16455e-08
2.16311e-08
-4.57058e-08
-2.32613e-08
4.73361e-08
2.7476e-08
-2.16247e-08
-2.83644e-08
2.2513e-08
2.90244e-08
1.45855e-08
-2.8618e-08
-1.49919e-08
2.59482e-08
4.33313e-08
-2.4658e-08
-4.46215e-08
1.94321e-08
7.00146e-08
-1.72775e-08
-7.21693e-08
9.33193e-09
9.48096e-08
-6.32566e-09
-9.78159e-08
-3.84088e-09
1.14119e-07
7.51465e-09
-1.17793e-07
-1.98924e-08
1.2556e-07
2.42042e-08
-1.29872e-07
-3.74843e-08
1.20551e-07
4.17462e-08
-1.24812e-07
-5.41461e-08
1.02098e-07
5.79187e-08
-1.0587e-07
-6.8259e-08
7.39633e-08
7.12508e-08
-7.69551e-08
-7.80147e-08
4.05891e-08
7.95602e-08
-4.21346e-08
-8.29057e-08
1.26267e-08
8.36365e-08
-1.33575e-08
-8.47828e-08
-1.19146e-08
8.46969e-08
1.20005e-08
-8.28821e-08
-3.31174e-08
8.18143e-08
3.41853e-08
-7.74077e-08
-4.74777e-08
7.5674e-08
4.92114e-08
-6.98132e-08
-5.50004e-08
6.77715e-08
5.70421e-08
-6.13603e-08
-5.75482e-08
5.92382e-08
5.96703e-08
-5.27937e-08
-5.69734e-08
5.07142e-08
5.90528e-08
-4.4511e-08
-5.46255e-08
4.25373e-08
5.65992e-08
-3.67099e-08
-5.13378e-08
3.48711e-08
5.31766e-08
-2.94719e-08
-4.76351e-08
2.77765e-08
4.93305e-08
-2.28183e-08
-4.3768e-08
2.12662e-08
4.53201e-08
-1.67371e-08
-3.994e-08
1.53231e-08
4.1354e-08
-1.1212e-08
-3.61935e-08
9.9331e-09
3.74724e-08
-6.23334e-09
-3.26311e-08
5.08789e-09
3.37766e-08
-1.79856e-09
-2.9208e-08
7.90487e-10
3.02161e-08
1.77627e-09
7.01442e-08
-6.81779e-08
-3.74264e-09
8.4535e-09
-5.68627e-08
-1.00583e-08
5.84675e-08
1.48965e-08
-5.65718e-08
-1.65418e-08
5.82171e-08
2.16672e-08
-5.2302e-08
-2.3349e-08
5.39838e-08
2.77859e-08
-2.52657e-08
-2.87347e-08
2.62145e-08
2.94596e-08
1.62127e-08
-2.90515e-08
-1.66208e-08
2.64191e-08
4.8447e-08
-2.51598e-08
-4.97063e-08
2.00576e-08
7.85777e-08
-1.79412e-08
-8.06942e-08
1.00661e-08
1.06817e-07
-7.07121e-09
-1.09812e-07
-3.00873e-09
1.28795e-07
6.66655e-09
-1.32453e-07
-1.92464e-08
1.42993e-07
2.3687e-08
-1.47433e-07
-3.74056e-08
1.37826e-07
4.18225e-08
-1.42243e-07
-5.47653e-08
1.17437e-07
5.87e-08
-1.21372e-07
-6.97355e-08
8.64573e-08
7.3113e-08
-8.98348e-08
-8.0267e-08
4.67619e-08
8.17888e-08
-4.82837e-08
-8.5214e-08
1.57121e-08
8.60566e-08
-1.65547e-08
-8.78178e-08
-1.20455e-08
8.78866e-08
1.19766e-08
-8.62425e-08
-3.74391e-08
8.51386e-08
3.8543e-08
-8.04344e-08
-5.46e-08
7.85677e-08
5.64666e-08
-7.22762e-08
-6.33642e-08
7.00971e-08
6.55432e-08
-6.32995e-08
-6.62022e-08
6.10629e-08
6.84389e-08
-5.43073e-08
-6.54212e-08
5.21383e-08
6.75903e-08
-4.56956e-08
-6.26196e-08
4.36537e-08
6.46615e-08
-3.76432e-08
-5.87711e-08
3.57514e-08
6.0663e-08
-3.02037e-08
-5.4485e-08
2.84624e-08
5.62264e-08
-2.33645e-08
-5.00467e-08
2.17652e-08
5.1646e-08
-1.70817e-08
-4.56772e-08
1.56126e-08
4.71463e-08
-1.13154e-08
-4.14049e-08
9.96925e-09
4.27511e-08
-6.04727e-09
-3.73159e-08
4.82607e-09
3.85371e-08
-1.31889e-09
-3.33237e-08
2.49337e-10
3.43932e-08
1.79022e-09
7.80959e-08
-7.60944e-08
-3.79176e-09
8.42692e-09
-6.32726e-08
-1.00253e-08
6.4871e-08
1.48511e-08
-6.31617e-08
-1.65023e-08
6.48128e-08
2.16948e-08
-5.91134e-08
-2.34342e-08
6.08528e-08
2.81301e-08
-2.91635e-08
-2.91496e-08
3.0183e-08
2.99422e-08
1.78528e-08
-2.9528e-08
-1.8267e-08
2.69346e-08
5.34315e-08
-2.57112e-08
-5.46549e-08
2.07551e-08
8.69775e-08
-1.86842e-08
-8.90484e-08
1.08862e-08
1.18782e-07
-7.89965e-09
-1.21768e-07
-2.05309e-09
1.43377e-07
5.6718e-09
-1.46996e-07
-1.84785e-08
1.60979e-07
2.30761e-08
-1.65577e-07
-3.72845e-08
1.55742e-07
4.18703e-08
-1.60328e-07
-5.542e-08
1.33371e-07
5.94687e-08
-1.3742e-07
-7.13605e-08
1.0077e-07
7.53205e-08
-1.0473e-07
-8.29165e-08
5.26764e-08
8.42861e-08
-5.4046e-08
-8.75968e-08
1.92688e-08
8.85659e-08
-2.02379e-08
-9.13303e-08
-1.14542e-08
9.16273e-08
1.11572e-08
-9.02208e-08
-4.19272e-08
8.90636e-08
4.30844e-08
-8.39451e-08
-6.23162e-08
8.19007e-08
6.43607e-08
-7.50583e-08
-7.23223e-08
7.27108e-08
7.46698e-08
-6.54522e-08
-7.53421e-08
6.30823e-08
7.7712e-08
-5.59676e-08
-7.42472e-08
5.36956e-08
7.65191e-08
-4.69803e-08
-7.08994e-08
4.4862e-08
7.30177e-08
-3.86524e-08
-6.64216e-08
3.67047e-08
6.83693e-08
-3.10069e-08
-6.15183e-08
2.9221e-08
6.33042e-08
-2.39914e-08
-5.6512e-08
2.23482e-08
5.81553e-08
-1.75177e-08
-5.1637e-08
1.59945e-08
5.31603e-08
-1.15051e-08
-4.69043e-08
1.00843e-08
4.8325e-08
-5.87141e-09
-4.23926e-08
4.5205e-09
4.37435e-08
-4.19988e-10
-3.79113e-08
-9.18345e-10
3.92496e-08
1.80759e-09
8.6205e-08
-8.41615e-08
-3.85111e-09
8.39793e-09
-6.96548e-08
-9.98831e-09
7.12452e-08
1.48008e-08
-6.97753e-08
-1.64578e-08
7.14323e-08
2.1719e-08
-6.61658e-08
-2.35228e-08
6.79696e-08
2.85206e-08
-3.33617e-08
-2.96227e-08
3.44638e-08
3.04839e-08
1.95265e-08
-3.0057e-08
-1.99535e-08
2.75016e-08
5.82653e-08
-2.63192e-08
-5.94476e-08
2.15327e-08
9.51845e-08
-1.9515e-08
-9.72022e-08
1.17962e-08
1.30726e-07
-8.80874e-09
-1.33713e-07
-9.70661e-10
1.57751e-07
4.51086e-09
-1.61291e-07
-1.75788e-08
1.79657e-07
2.238e-08
-1.84458e-07
-3.71329e-08
1.74356e-07
4.19013e-08
-1.79124e-07
-5.61283e-08
1.49615e-07
6.01797e-08
-1.53666e-07
-7.3199e-08
1.17764e-07
7.79721e-08
-1.22537e-07
-8.61403e-08
5.76524e-08
8.71066e-08
-5.86187e-08
-8.98571e-08
2.33439e-08
9.09586e-08
-2.44455e-08
-9.54782e-08
-9.81906e-09
9.60909e-08
9.20636e-09
-9.49803e-08
-4.6673e-08
9.37363e-08
4.7917e-08
-8.80168e-08
-7.08356e-08
8.57283e-08
7.31241e-08
-7.81746e-08
-8.20085e-08
7.56221e-08
8.4561e-08
-6.78231e-08
-8.50466e-08
6.52993e-08
8.75703e-08
-5.77712e-08
-8.35076e-08
5.53811e-08
8.58976e-08
-4.83563e-08
-7.94976e-08
4.6153e-08
8.17009e-08
-3.97292e-08
-7.4298e-08
3.77248e-08
7.63023e-08
-3.1886e-08
-6.87224e-08
3.00621e-08
7.05464e-08
-2.47292e-08
-6.31395e-08
2.30534e-08
6.48154e-08
-1.81148e-08
-5.77973e-08
1.65504e-08
5.93616e-08
-1.19139e-08
-5.2672e-08
1.04404e-08
5.41456e-08
-6.09708e-09
-4.78509e-08
4.7378e-09
4.92102e-08
-9.69898e-10
-4.31802e-08
-2.67455e-11
4.41768e-08
1.82909e-09
9.45019e-08
-9.24083e-08
-3.92264e-09
8.36538e-09
-7.60023e-08
-9.94566e-09
7.75826e-08
1.47434e-08
-7.64121e-08
-1.64059e-08
7.80746e-08
2.17341e-08
-7.34856e-08
-2.36087e-08
7.53602e-08
2.89568e-08
-3.79102e-08
-3.01551e-08
3.91085e-08
3.10825e-08
2.12639e-08
-3.06337e-08
-2.17127e-08
2.81142e-08
6.29268e-08
-2.69786e-08
-6.40624e-08
2.23885e-08
1.03164e-07
-2.04343e-08
-1.05118e-07
1.27956e-08
1.42696e-07
-9.79028e-09
-1.45702e-07
2.52553e-10
1.71714e-07
3.15252e-09
-1.7512e-07
-1.65216e-08
1.99258e-07
2.16096e-08
-2.04346e-07
-3.69508e-08
1.93717e-07
4.19114e-08
-1.98677e-07
-5.68622e-08
1.65667e-07
6.08009e-08
-1.69606e-07
-7.53492e-08
1.38218e-07
8.10021e-08
-1.4387e-07
-9.00342e-08
6.05205e-08
9.03198e-08
-6.0806e-08
-9.14431e-08
2.79663e-08
9.27164e-08
-2.92396e-08
-1.0054e-07
-6.81695e-09
1.01516e-07
5.84058e-09
-1.00697e-07
-5.1842e-08
9.93098e-08
5.32294e-08
-9.26895e-08
-8.04666e-08
9.00585e-08
8.30976e-08
-8.15851e-08
-9.25723e-08
7.87896e-08
9.53678e-08
-7.03783e-08
-9.53955e-08
6.76821e-08
9.80917e-08
-5.96853e-08
-9.3265e-08
5.71602e-08
9.57901e-08
-4.97834e-08
-8.84502e-08
4.74852e-08
9.07484e-08
-4.08331e-08
-8.24001e-08
3.87729e-08
8.44603e-08
-3.28135e-08
-7.60617e-08
3.09638e-08
7.79114e-08
-2.55839e-08
-6.98659e-08
2.38993e-08
7.15505e-08
-1.89345e-08
-6.40895e-08
1.73555e-08
6.56685e-08
-1.26164e-08
-5.86559e-08
1.10776e-08
6.01947e-08
-6.38641e-09
-5.33407e-08
4.876e-09
5.48511e-08
-8.41842e-10
-4.68111e-08
-2.05133e-10
4.78581e-08
1.85578e-09
1.03023e-07
-1.00869e-07
-4.00925e-09
8.32907e-09
-8.23055e-08
-9.89666e-09
8.38731e-08
1.46786e-08
-8.30701e-08
-1.63461e-08
8.47376e-08
2.17361e-08
-8.10979e-08
-2.36877e-08
8.30495e-08
2.94418e-08
-4.28662e-08
-3.0752e-08
4.41765e-08
3.17395e-08
2.31063e-08
-3.12562e-08
-2.35896e-08
2.8769e-08
6.73915e-08
-2.76868e-08
-6.84737e-08
2.33231e-08
1.10871e-07
-2.14453e-08
-1.12749e-07
1.38862e-08
1.54778e-07
-1.08329e-08
-1.57831e-07
1.63013e-09
1.85047e-07
1.55922e-09
-1.88237e-07
-1.52732e-08
2.20212e-07
2.08058e-08
-2.25744e-07
-3.67541e-08
2.1385e-07
4.19067e-08
-2.19003e-07
-5.7536e-08
1.81363e-07
6.1511e-08
-1.85338e-07
-7.78169e-08
1.61892e-07
8.41236e-08
-1.68198e-07
-9.43179e-08
6.13098e-08
9.47307e-08
-6.17226e-08
-9.10105e-08
3.39515e-08
9.32642e-08
-3.62052e-08
-1.07215e-07
-2.55464e-09
1.08319e-07
1.45102e-09
-1.07614e-07
-5.76986e-08
1.0601e-07
5.93024e-08
-9.79988e-08
-9.1672e-08
9.48746e-08
9.47962e-08
-8.52165e-08
-1.04157e-07
8.21492e-08
1.07224e-07
-7.30889e-08
-1.06457e-07
7.02062e-08
1.0934e-07
-6.16812e-08
-1.03593e-07
5.89996e-08
1.06274e-07
-5.12141e-08
-9.78002e-08
4.88079e-08
1.00206e-07
-4.19075e-08
-9.07241e-08
3.9792e-08
9.28397e-08
-3.37359e-08
-8.34796e-08
3.18768e-08
8.53388e-08
-2.65265e-08
-7.65758e-08
2.48694e-08
7.82329e-08
-2.00338e-08
-7.03546e-08
1.85087e-08
7.18797e-08
-1.39401e-08
-6.48298e-08
1.24455e-08
6.63244e-08
-7.7195e-09
-5.99006e-08
6.07172e-09
6.15484e-08
-8.58326e-10
-5.20701e-08
-7.05595e-10
5.3634e-08
1.88825e-09
1.1181e-07
-1.09585e-07
-4.11293e-09
8.28881e-09
-8.85534e-08
-9.84051e-09
9.01051e-08
1.46061e-08
-8.97471e-08
-1.6278e-08
9.1419e-08
2.17205e-08
-8.90268e-08
-2.37548e-08
9.10611e-08
2.99793e-08
-4.82971e-08
-3.14202e-08
4.9738e-08
3.24568e-08
2.51103e-08
-3.19223e-08
-2.56449e-08
2.94619e-08
7.16311e-08
-2.84411e-08
-7.26519e-08
2.43361e-08
1.18248e-07
-2.25521e-08
-1.20032e-07
1.50728e-08
1.67119e-07
-1.19208e-08
-1.70271e-07
3.15736e-09
1.97341e-07
-3.30853e-10
-2.00167e-07
-1.3798e-08
2.43312e-07
2.00448e-08
-2.49559e-07
-3.65725e-08
2.34729e-07
4.18966e-08
-2.40053e-07
-5.80761e-08
1.97874e-07
6.25263e-08
-2.02325e-07
-8.15177e-08
1.86737e-07
8.67129e-08
-1.91932e-07
-1.01063e-07
6.43034e-08
1.01832e-07
-6.50718e-08
-9.00809e-08
4.69791e-08
9.46433e-08
-5.15415e-08
-1.14951e-07
1.36015e-09
1.15858e-07
-2.26739e-09
-1.1609e-07
-6.44213e-08
1.14297e-07
6.6215e-08
-1.03971e-07
-1.0519e-07
1.00092e-07
1.09069e-07
-8.89247e-08
-1.16835e-07
8.55949e-08
1.20165e-07
-7.59443e-08
-1.18276e-07
7.28688e-08
1.21352e-07
-6.37346e-08
-1.1459e-07
6.08638e-08
1.17461e-07
-5.2585e-08
-1.0761e-07
5.00509e-08
1.10144e-07
-4.28692e-08
-9.92717e-08
4.06959e-08
1.01445e-07
-3.45602e-08
-9.09142e-08
3.27047e-08
9.27698e-08
-2.74535e-08
-8.31193e-08
2.58585e-08
8.47143e-08
-2.13177e-08
-7.62668e-08
1.993e-08
7.76545e-08
-1.59599e-08
-7.0432e-08
1.47417e-08
7.16503e-08
-1.12584e-08
-6.57008e-08
1.01823e-08
6.6777e-08
-6.83141e-09
-5.80673e-08
5.59321e-09
5.93055e-08
1.92771e-09
1.20916e-07
-1.18606e-07
-4.23723e-09
8.24539e-09
-9.47319e-08
-9.77742e-09
9.6264e-08
1.45278e-08
-9.64404e-08
-1.62035e-08
9.8116e-08
2.16846e-08
-9.72941e-08
-2.38067e-08
9.94162e-08
3.05777e-08
-5.42823e-08
-3.21715e-08
5.58761e-08
3.32407e-08
2.73511e-08
-3.26324e-08
-2.79594e-08
3.01918e-08
7.56105e-08
-2.92426e-08
-7.65597e-08
2.54287e-08
1.25216e-07
-2.37625e-08
-1.26882e-07
1.63684e-08
1.79968e-07
-1.3034e-08
-1.83302e-07
4.84846e-09
2.07787e-07
-2.65041e-09
-2.09985e-07
-1.2106e-08
2.69796e-07
1.94368e-08
-2.77127e-07
-3.64514e-08
2.56229e-07
4.19001e-08
-2.61678e-07
-5.91864e-08
2.15561e-07
6.28515e-08
-2.19226e-07
-8.32842e-08
2.0356e-07
8.82274e-08
-2.08503e-07
-1.09197e-07
6.35502e-08
1.07213e-07
-6.15661e-08
-8.91375e-08
6.09298e-08
9.0399e-08
-6.21912e-08
-1.21297e-07
8.31053e-09
1.25391e-07
-1.2405e-08
-1.28951e-07
-7.23584e-08
1.26279e-07
7.50304e-08
-1.10389e-07
-1.22393e-07
1.05269e-07
1.27513e-07
-9.24318e-08
-1.30424e-07
8.89782e-08
1.33877e-07
-7.90016e-08
-1.30873e-07
7.57269e-08
1.34148e-07
-6.58365e-08
-1.26418e-07
6.27209e-08
1.29534e-07
-5.38157e-08
-1.17971e-07
5.11246e-08
1.20662e-07
-4.36107e-08
-1.08058e-07
4.13733e-08
1.10296e-07
-3.51585e-08
-9.83234e-08
3.33117e-08
1.0017e-07
-2.81837e-08
-8.93896e-08
2.66609e-08
9.09124e-08
-2.24495e-08
-8.15844e-08
2.12109e-08
8.28231e-08
-1.78583e-08
-7.48699e-08
1.69068e-08
7.58213e-08
-1.44909e-08
-6.92334e-08
1.38628e-08
6.98616e-08
-1.22078e-08
-6.19921e-08
1.16089e-08
6.2591e-08
1.97624e-09
1.30403e-07
-1.27992e-07
-4.38807e-09
8.19658e-09
-1.00824e-07
-9.70391e-09
1.02331e-07
1.44404e-08
-1.03147e-07
-1.61187e-08
1.04825e-07
2.16167e-08
-1.05918e-07
-2.383e-08
1.08131e-07
3.12351e-08
-6.09169e-08
-3.30084e-08
6.26901e-08
3.40858e-08
2.99278e-08
-3.33748e-08
-3.06389e-08
3.09461e-08
7.92838e-08
-3.00824e-08
-8.01475e-08
2.65904e-08
1.31665e-07
-2.50759e-08
-1.33179e-07
1.77916e-08
1.93725e-07
-1.41428e-08
-1.97373e-07
6.70444e-09
2.15239e-07
-5.49508e-09
-2.16449e-07
-1.02731e-08
3.01282e-07
1.91639e-08
-3.10173e-07
-3.64493e-08
2.78134e-07
4.19419e-08
-2.83627e-07
-6.20877e-08
2.2437e-07
6.15341e-08
-2.23816e-07
-7.9105e-08
2.43453e-07
9.96907e-08
-2.64039e-07
-1.22912e-07
5.28728e-08
1.18626e-07
-4.85868e-08
-9.28609e-08
7.55206e-08
1.03953e-07
-8.66124e-08
-1.45214e-07
3.00884e-08
1.52192e-07
-3.70668e-08
-1.46449e-07
-8.68104e-08
1.40765e-07
9.2494e-08
-1.14726e-07
-1.45076e-07
1.08291e-07
1.51512e-07
-9.53653e-08
-1.43903e-07
9.22507e-08
1.47018e-07
-8.24733e-08
-1.44314e-07
7.89429e-08
1.47844e-07
-6.79525e-08
-1.39354e-07
6.44943e-08
1.42812e-07
-5.47641e-08
-1.29013e-07
5.18784e-08
1.31898e-07
-4.39743e-08
-1.17112e-07
4.16666e-08
1.1942e-07
-3.53708e-08
-1.05697e-07
3.35328e-08
1.07535e-07
-2.8513e-08
-9.5387e-08
2.70483e-08
9.68517e-08
-2.30756e-08
-8.6371e-08
2.19348e-08
8.75118e-08
-1.89366e-08
-7.84352e-08
1.81164e-08
7.92554e-08
-1.61215e-08
-7.14583e-08
1.5633e-08
7.19467e-08
-1.45041e-08
-6.38755e-08
1.41582e-08
6.42214e-08
2.03453e-09
1.40349e-07
-1.37815e-07
-4.5687e-09
8.14218e-09
-1.06809e-07
-9.61864e-09
1.08286e-07
1.43442e-08
-1.09863e-07
-1.60243e-08
1.11543e-07
2.15092e-08
-1.14909e-07
-2.3815e-08
1.17215e-07
3.19583e-08
-6.8316e-08
-3.39431e-08
7.03008e-08
3.49948e-08
3.29691e-08
-3.41436e-08
-3.38204e-08
3.17181e-08
8.25873e-08
-3.09603e-08
-8.33452e-08
2.78106e-08
1.37441e-07
-2.64956e-08
-1.38756e-07
1.93859e-08
2.09022e-07
-1.52156e-08
-2.13192e-07
8.71234e-09
2.17938e-07
-9.08157e-09
-2.17569e-07
-8.47468e-09
3.39948e-07
1.95997e-08
-3.51073e-07
-3.69266e-08
2.99527e-07
4.15604e-08
-3.04161e-07
-6.78243e-08
2.17596e-07
6.4685e-08
-2.14456e-07
-9.62967e-08
3.48804e-07
1.29697e-07
-3.82205e-07
-1.47519e-07
2.40231e-08
1.34593e-07
-1.10971e-08
-1.19203e-07
1.38364e-07
1.42194e-07
-1.61355e-07
-1.81727e-07
6.026e-08
1.86891e-07
-6.5424e-08
-1.60853e-07
-1.17509e-07
1.49655e-07
1.28706e-07
-1.16728e-07
-1.70494e-07
1.11025e-07
1.76198e-07
-1.01023e-07
-1.55862e-07
9.80351e-08
1.5885e-07
-8.71499e-08
-1.5918e-07
8.29634e-08
1.63366e-07
-7.00188e-08
-1.53884e-07
6.60535e-08
1.57849e-07
-5.52332e-08
-1.40895e-07
5.2115e-08
1.44013e-07
-4.37806e-08
-1.2645e-07
4.14043e-08
1.28826e-07
-3.5051e-08
-1.13029e-07
3.32287e-08
1.14851e-07
-2.83063e-08
-1.01183e-07
2.6881e-08
1.02608e-07
-2.30279e-08
-9.08641e-08
2.19219e-08
9.19701e-08
-1.90033e-08
-8.16629e-08
1.81978e-08
8.24684e-08
-1.62011e-08
-7.34106e-08
1.56965e-08
7.39152e-08
-1.45536e-08
-6.51559e-08
1.42704e-08
6.5439e-08
2.1051e-09
1.50848e-07
-1.48166e-07
-4.78732e-09
8.0839e-09
-1.12661e-07
-9.52236e-09
1.14099e-07
1.42438e-08
-1.16585e-07
-1.59249e-08
1.18266e-07
2.13581e-08
-1.24271e-07
-2.37556e-08
1.26669e-07
3.27627e-08
-7.6619e-08
-3.49988e-08
7.88551e-08
3.59796e-08
3.66401e-08
-3.494e-08
-3.76796e-08
3.25085e-08
8.54264e-08
-3.18868e-08
-8.6048e-08
2.90765e-08
1.42326e-07
-2.80282e-08
-1.43374e-07
2.12366e-08
2.26847e-07
-1.62206e-08
-2.31863e-07
1.08349e-08
2.13039e-07
-1.37377e-08
-2.10136e-07
-7.23082e-09
3.88807e-07
2.14385e-08
-4.03015e-07
-3.91e-08
3.10624e-07
3.66012e-08
-3.08125e-07
-8.26368e-08
1.9358e-07
6.75094e-08
-1.78453e-07
-1.22505e-07
5.03795e-07
1.74415e-07
-5.55705e-07
-1.76607e-07
-3.80331e-08
1.57722e-07
5.69182e-08
-1.89486e-07
2.35685e-07
2.12615e-07
-2.58814e-07
-2.24302e-07
5.69307e-08
2.14617e-07
-4.72457e-08
-1.68664e-07
-1.69148e-07
1.53443e-07
1.8437e-07
-1.23345e-07
-1.92807e-07
1.17362e-07
1.9879e-07
-1.10314e-07
-1.67604e-07
1.07662e-07
1.70257e-07
-9.37865e-08
-1.78018e-07
8.81083e-08
1.83696e-07
-7.1736e-08
-1.70726e-07
6.70829e-08
1.75379e-07
-5.49636e-08
-1.53772e-07
5.15798e-08
1.57155e-07
-4.27917e-08
-1.36021e-07
4.03726e-08
1.3844e-07
-3.40808e-08
-1.2026e-07
3.23094e-08
1.22032e-07
-2.7538e-08
-1.06833e-07
2.61485e-08
1.08222e-07
-2.2336e-08
-9.52956e-08
2.12171e-08
9.64145e-08
-1.81667e-08
-8.4971e-08
1.72852e-08
8.58525e-08
-1.49696e-08
-7.55508e-08
1.43507e-08
7.61697e-08
-1.31188e-08
-6.60602e-08
1.3046e-08
6.6133e-08
2.18997e-09
1.62015e-07
-1.59153e-07
-5.0521e-09
8.02055e-09
-1.18348e-07
-9.412e-09
1.19739e-07
1.41388e-08
-1.23311e-07
-1.58204e-08
1.24992e-07
2.11502e-08
-1.33994e-07
-2.36343e-08
1.36478e-07
3.36546e-08
-8.59966e-08
-3.61905e-08
8.85325e-08
3.704e-08
4.11507e-08
-3.57514e-08
-4.24393e-08
3.33056e-08
8.76557e-08
-3.28675e-08
-8.80938e-08
3.0351e-08
1.46015e-07
-2.96613e-08
-1.46704e-07
2.3486e-08
2.48751e-07
-1.71075e-08
-2.55129e-07
1.29968e-08
1.95882e-07
-2.00128e-08
-1.88866e-07
-7.04297e-09
4.51098e-07
2.49196e-08
-4.68974e-07
-3.84782e-08
2.86588e-07
3.35649e-08
-2.81675e-07
-9.31911e-08
1.02966e-07
6.73117e-08
-7.70864e-08
-1.11953e-07
6.89894e-07
1.34241e-07
-7.12182e-07
-1.87118e-07
-1.05634e-07
1.78972e-07
1.1378e-07
-2.52955e-07
3.10121e-07
2.61641e-07
-3.18806e-07
-2.22666e-07
8.2499e-09
2.07998e-07
6.41746e-09
-1.71639e-07
-2.30461e-07
1.59056e-07
2.43044e-07
-1.37474e-07