/*--------------------------------*- C++ -*----------------------------------*\
| =========                 |                                                 |
| \\      /  F ield         | OpenFOAM: The Open Source CFD Toolbox           |
|  \\    /   O peration     | Version:  2.4.0                                 |
|   \\  /    A nd           | Web:      www.OpenFOAM.org                      |
|    \\/     M anipulation  |                                                 |
\*---------------------------------------------------------------------------*/
FoamFile
{
    version     2.0;
    format      ascii;
    class       volScalarField;
    location    "0.071";
    object      alpha.water;
}
// * * * * * * * * * * * * * * * * * * * * * * * * * * * * * * * * * * * * * //

dimensions      [0 0 0 0 0 0 0];

internalField   nonuniform List<scalar> 
3600
(
1
1.00002
1.00002
1.00002
1.00002
1.00001
1.00001
1.00001
1.00001
1.00001
1
1
1
1
1
1
1
1
1
1
1
1
1
1
1
1
1
1
1
1
1.00005
1.00004
1.00004
1.00003
1.00003
1.00002
1.00002
1.00001
1.00001
1.00001
1.00001
1.00001
1
1
1
1
1
1
1
1
1
1
1
1
1
1
1
1
1
1
1.00003
1.00003
1.00003
1.00003
1.00002
1.00002
1.00002
1.00001
1.00001
1.00001
1.00001
1
1
1
1
1
1
1
1
1
1
1
1
1
1
1
1
1
1
1
1.00003
1.00003
1.00003
1.00002
1.00002
1.00002
1.00001
1.00001
1.00001
1.00001
1
1
1
1
1
1
1
1
1
1
1
1
1
1
1
1
1
1
1
1
1.00003
1.00002
1.00002
1.00002
1.00001
1.00001
1.00001
1.00001
1.00001
1
1
1
1
1
1
1
1
1
1
1
1
1
1
1
1
1
1
1
1
1
1.00002
1.00002
1.00002
1.00001
1.00001
1.00001
1.00001
1.00001
1
1
1
1
1
1
1
1
1
1
1
1
1
1
1
1
1
1
1
1
1
1
1.00002
1.00001
1.00001
1.00001
1.00001
1.00001
1
1
1
1
1
1
1
1
1
1
1
1
1
1
1
1
1
1
1
1
1
1
1
1
1.00001
1
1
1
1
1
1
1
1
1
1
1
1
1
1
1
1
1
1
1
1
1
1
1
1
1
1
1
1
1
0.999999
0.999997
0.999997
0.999998
0.999999
0.999999
1
1
1
1
1
1
1
1
1
1
1
1
1
1
1
1
1
1
1
1
1
1
1
1
0.999994
0.999993
0.999995
0.999996
0.999996
0.999997
0.999999
1
1
1
1
1
1
1
1
1
1
1
1
1
1
1
1
1
1
1
1
1
1
1
0.99999
0.99999
0.999988
0.999989
0.999991
0.999995
0.999998
0.999999
0.999999
1
1
1
1
1
1
1
1
1
1
1
1
1
1
1
1
1
1
1
1
1
0.999987
0.999987
0.999986
0.999986
0.999992
0.999996
0.999998
0.999998
0.999998
0.999999
0.999999
1
1
1
1
1
1
1
1
1
1
1
1
1
1
1
1
1
1
1
0.999986
0.999986
0.999987
0.999991
0.999996
0.999996
0.999997
0.999997
0.999998
0.999999
0.999999
1
1
1
1
1
1
1
1
1
1
1
1
1
1
1
1
1
1
1
0.999987
0.999986
0.999994
0.999995
0.999996
0.999996
0.999995
0.999996
0.999997
0.999998
0.999999
0.999999
1
1
1
1
1
1
1
1
1
1
1
1
1
1
1
1
1
1
0.999989
0.999993
0.999996
0.999996
0.999991
0.999991
0.999993
0.999996
0.999997
0.999997
0.999998
0.999999
1
1
1
1
1
1
1
1
1
1
1
1
1
1
1
1
1
1
0.99999
0.999992
0.999985
0.999992
0.999988
0.999988
0.999994
0.999995
0.999995
0.999997
0.999998
0.999999
1
1
1
1
1
1
1
1
1
1
1
1
1
1
1
1
1
1
0.999989
0.999981
0.999981
0.99999
0.999992
0.999992
0.999991
0.999993
0.999994
0.999996
0.999997
0.999999
1
1
1
1
1
1
1
1
1
1
1
1
1
1
1
1
1
1
0.999991
0.99999
0.999981
0.999991
0.999992
0.999992
0.999992
0.999989
0.999992
0.999992
0.999996
0.999999
1
1
1
1
1
1
1
1
1
1
1
1
1
1
1
1
1
1
0.999991
0.99999
0.999989
0.999979
0.999968
0.999951
0.999977
0.999989
0.999982
0.999994
0.999996
0.999998
0.999999
1
1
1
1
1
1
1
1
1
1
1
1
1
1
1
1
1
0.999981
0.999957
0.999987
0.999954
0.999957
0.999909
0.99991
0.999948
0.999982
0.999996
0.999996
0.999996
0.999999
1
1
1
1
1
1
1
1
1
1
1
1
1
1
1
1
1
0.999954
0.998414
0.999962
0.999304
0.999404
0.999915
0.99991
0.999918
0.999974
0.999975
0.99999
0.999997
0.999999
1
1
1
1
1
1
1
1
1
1
1
1
1
1
1
1
1
0.997129
0.989532
0.997571
0.99665
0.999625
0.999983
0.999929
0.999976
0.999987
0.99998
0.99998
0.999999
0.999999
1
1
1
1
1
1
1
1
1
1
1
1
1
1
1
1
1
0.993126
0.989532
0.989532
0.99225
0.999949
1
0.999997
1
1
0.999994
0.99999
0.999992
1
1
1
1
1
1
1
1
1
1
1
1
1
1
1
1
1
1
0.989535
0.989532
0.989535
0.995472
1
1
1
1
1
0.999999
0.999997
0.999991
0.999993
1
1
1
1
1
1
1
1
1
1
1
1
1
1
1
1
1
0.994483
0.994584
0.990543
1
1
1
1
1
1
0.999999
1
0.999995
0.999995
0.999999
1
1
1
1
1
1
1
1
1
1
1
1
1
1
1
1
0.996575
0.997577
0.997511
0.99981
0.999149
1
1
1
1
0.999999
1
1
1
1
1
1
1
1
1
1
1
1
1
1
1
1
1
1
1
1
0.992366
0.997654
0.999799
0.99981
0.999195
1
1
1
1
0.999998
1
1
1
1
1
1
1
1
1
1
1
1
1
1
1
1
1
1
1
1
0.963051
0.889447
0.999794
0.993226
0.999486
0.999977
1
0.999988
1
1
1
1
1
1
1
1
1
1
1
1
1
1
1
1
1
1
1
1
1
1
0.925615
0.755157
0.836462
0.90579
0.98502
1
1
1
1
1
1
1
1
1
1
1
1
1
0.967045
0.995589
1
1
1
1
1
1
1
1
1
1
0.937045
0.63769
0.736939
0.760451
0.8288
0.902159
0.636636
0.962426
0.885058
0.856965
0.950008
0.988075
0.910461
0.936258
0.795875
0.805383
0.930172
0.740875
0.391178
0.569837
0.87004
0.987605
1
1
1
1
1
1
1
1
1
0.999999
1
1
1
1
1
1
1
1
1
1
1
1
1
1
1
1
1
1
1
1
1
1
1
1
1
1
1
1
1
0.999999
1
1
1
1
1
1
1
1
1
1
1
1
1
1
1
1
1
1
1
1
1
1
1
1
1
1
1
1
1
0.999999
1
1
1
1
1
1
1
1
1
1
1
1
1
1
1
1
1
1
1
1
1
1
1
1
1
1
1
1
1
0.999999
1
1
1
1
1
1
1
1
1
1
1
1
1
1
1
1
1
1
1
1
1
1
1
1
1
1
1
1
1
0.999999
1
1
1
1
1
1
1
1
1
1
1
1
1
1
1
1
1
1
1
1
1
1
1
1
1
1
1
1
1
0.999999
1
1
1
1
1
1
1
1
1
1
1
1
1
1
1
1
1
1
1
1
1
1
1
1
1
1
1
1
1
0.999999
1
1
1
1
1
1
1
1
1
1
1
1
1
1
1
1
1
1
1
1
1
1
1
1
1
1
1
1
1
0.999999
1
1
1
1
1
1
1
1
1
1
1
1
1
1
1
1
1
1
1
1
1
1
1
1
1
1
1
1
1
0.999999
1
1
1
1
1
1
1
1
1
1
1
1
1
1
1
1
1
1
1
1
1
1
1
1
1
1
1
1
1
0.999999
1
1
1
1
1
1
1
1
1
1
1
1
1
1
1
1
1
1
1
1
1
1
1
1
1
1
1
1
1
0.999999
1
1
1
1
1
1
1
1
1
1
1
1
1
1
1
1
1
1
1
1
1
1
1
1
1
1
1
1
1
0.999999
1
1
1
1
1
1
1
1
1
1
1
1
1
1
1
1
1
1
1
1
1
1
1
1
1
1
1
1
1
1
1
1
1
1
1
1
1
1
1
1
1
1
1
1
1
1
1
1
1
1
1
1
1
1
1
1
1
1
1
1
1
1
1
1
1
1
1
1
1
1
1
1
1
1
1
1
1
1
1
1
1
1
1
1
1
1
1
1
1
1
1
1
1
1
1
1
1
1
1
1
1
1
1
1
1
1
1
1
1
1
1
1
1
1
1
1
1
1
1
1
1
1
1
1
1
1
1
1
1
1
1
1
1
1
1
1
1
1
1
1
1
1
1
1
1
1
1
1
1
1
1
1
1
1
1
1
1
1
1
1
1
1
1
1
1
1
1
1
1
1
1
1
1
1
1
1
1
1
1
1
1
1
1
1
1
1
1
1
1
1
1
1
1
1
1
1
1
1
1
1
1
1
1
1
1
1
1
1
1
1
1
1
1
1
1
1
1
1
1
1
1
1
1
1
1
1
1
1
1
1
1
1
1
1
1
1
1
1
1
1
1
1
1
1
1
1
1
1
1
1
1
1
1
1
1
1
1
1
1
1
1
1
1
1
1
1
1
1
1
1
1
1
1
1
1
1
1
1
1
1
1
1
1
1
1
1
1
1
1
1
1
1
1
1
1
1
1
1
1
1
1
1
1
1
1
1
1
1
1
1
1
1
1
1
1
1
1
1
1
1
1
1
1
1
1
1
1
1
1
1
1
1
1
1
1
1
1
1
1
1
1
1
1
1
1
1
1
1
1
1
1
1
1
1
1
1
1
1
1
1
1
1
1
1
1
1
1
1
1
1
1
1
1
1
1
1
1
1
1
1
1
1
1
1
1
1
1
1
1
1
1
1
1
1
1
1
1
1
1
1
1
1
1
1
1
1
1
1
1
1
1
1
1
1
1
1
1
1
1
1
1
1
1
1
1
1
1
1
1
1
1
1
1
1
1
1
1
1
1
1
1
1
1
1
1
1
1
1
1
1
1
1
1
1
1
1
1
1
1
1
1
1
1
1
1
1
1
1
1
1
1
1
1
1
1
1
1
1
1
1
1
1
1
1
1
1
1
1
1
1
1
1
1
1
1
1
1
1
1
1
1
1
1
1
1
1
1
1
1
1
1
1
1
1
1
1
1
1
1
1
1
1
1
1
1
1
1
1
1
1
1
1
1
1
1
1
1
1
1
1
1
1
1
1
1
1
1
1
1
1
1
1
1
1
1
1
1
1
1
1
0.999987
1
0.999948
1
0.999862
1
0.999748
1
0.82764
0.260492
0.238988
0.117304
0.132662
0.292472
0.133698
0.176215
0.0990312
0.0948503
0.158145
0.147763
0.0499156
0.0696814
0.0646193
0.0870317
0.162805
0.0681001
0.00132313
0.00441909
0.0652717
0.0684141
0.0533238
0.024562
0.0152109
0.00880352
0.006174
0.00356992
0.00218904
0.00117408
0.182442
-5.61754e-06
-8.69292e-07
-2.94216e-06
-2.02347e-07
-8.15483e-06
-3.99996e-06
-2.48282e-06
1.83394e-09
5.1028e-10
5.06992e-10
5.06992e-10
5.06993e-10
5.14344e-10
1.48979e-09
2.12156e-09
2.12692e-09
1.15585e-09
1.12493e-10
4.95799e-11
4.95635e-11
4.95635e-11
5.14915e-11
4.02406e-11
1.44441e-11
2.51083e-10
9.59661e-11
2.15574e-11
6.00991e-12
1.65158e-12
0.135165
0.00574942
-4.74863e-11
1.65822e-09
3.91981e-09
1.60103e-08
-2.0406e-08
-4.18994e-09
1.11314e-08
1.44357e-08
3.70043e-09
1.82524e-09
4.27481e-09
8.62504e-10
8.84894e-10
2.12156e-09
2.15125e-09
2.35485e-10
1.84743e-10
1.75367e-10
1.18465e-10
4.97863e-11
5.03304e-11
1.53141e-11
9.26372e-12
4.80542e-10
1.57088e-10
3.18669e-11
8.91852e-12
1.23558e-12
0.0275207
0.0493854
0.000365555
1.9151e-09
1.74551e-07
5.08923e-07
5.08006e-07
6.29693e-07
9.10303e-08
6.01907e-08
1.34777e-08
4.24177e-10
7.81629e-10
8.62487e-10
1.62968e-09
1.38572e-09
2.8807e-09
9.47511e-10
5.21315e-10
4.02341e-10
9.4071e-11
3.62535e-11
4.66493e-11
1.23283e-11
6.85275e-12
1.77398e-12
4.20712e-13
4.40242e-14
8.92518e-15
5.28864e-16
0.0269988
0.0526081
0.0165584
1.79468e-07
1.79665e-07
3.46837e-07
6.42897e-07
8.72934e-07
3.28527e-07
4.67528e-10
2.08467e-10
1.49235e-10
1.71138e-10
1.02077e-10
1.80619e-10
1.98475e-10
2.84875e-10
1.09732e-10
1.16779e-10
2.78751e-11
6.595e-12
1.4659e-12
2.1677e-12
2.82595e-13
7.5128e-14
5.26196e-15
9.44207e-16
4.66447e-17
7.59034e-18
1.63484e-19
0.0345101
0.055073
0.0550408
0.00971076
5.10202e-07
8.21712e-06
1.78084e-06
5.77837e-07
3.55482e-09
2.73873e-10
1.48939e-10
3.36903e-11
3.17125e-11
8.76255e-12
1.42334e-11
1.45586e-11
3.26538e-11
8.14381e-12
6.56618e-12
9.1085e-13
2.44009e-13
3.93292e-14
5.65673e-14
3.15591e-15
4.64149e-16
1.29294e-17
1.8485e-18
4.02667e-20
5.90416e-21
3.91314e-23
0.0550678
0.0550694
0.0370526
0.000175218
0.00190224
0.000130514
5.362e-09
6.58965e-08
4.47481e-09
2.04905e-10
7.44647e-11
4.14844e-12
3.76795e-12
2.58004e-13
2.517e-13
3.64035e-13
1.77499e-12
1.9001e-13
2.11955e-13
1.76457e-14
5.95875e-15
5.97356e-16
8.64433e-16
2.12366e-17
2.04248e-18
2.56003e-20
3.08357e-21
2.82284e-23
4.15496e-24
7.35596e-27
0.0550797
0.0546119
0.0230254
2.04985e-06
0.0018221
6.42071e-10
5.36471e-09
1.05955e-08
1.84963e-09
1.03006e-10
1.17827e-11
1.01163e-13
3.18085e-14
4.94789e-15
4.75617e-15
4.40263e-15
3.69885e-14
1.15152e-15
3.50291e-15
1.6955e-16
1.03798e-16
6.31865e-18
8.34149e-18
9.69132e-20
6.8682e-21
4.02103e-23
4.32074e-24
1.60114e-26
2.61349e-27
1.10257e-30
0.013965
0.00150758
0.015318
8.0216e-07
0.000232961
7.15058e-10
1.04159e-09
2.97165e-09
3.88012e-10
3.53625e-11
2.93409e-12
5.19515e-14
3.19308e-16
4.76991e-17
5.97095e-17
3.57526e-17
2.33103e-16
6.82172e-18
4.32223e-17
9.82914e-19
1.18216e-18
3.78584e-20
5.03286e-20
3.06896e-22
1.78031e-23
4.99031e-26
5.06029e-27
7.37496e-30
1.46559e-30
1.36842e-34
0.000791741
8.03287e-05
0.0008301
9.06809e-07
1.05675e-08
1.1685e-06
9.31239e-10
1.00063e-09
2.35859e-10
3.16236e-11
2.2496e-12
4.51678e-14
2.99798e-16
8.36275e-19
3.5815e-19
1.35466e-19
5.52035e-19
4.02251e-20
3.34725e-19
2.72944e-21
9.84945e-21
1.52268e-22
1.92865e-22
7.03188e-25
3.53376e-26
4.9032e-29
4.95061e-30
2.77886e-33
7.36388e-34
1.54192e-38
-1.38423e-07
1.2933e-07
5.02128e-08
2.18303e-07
1.11233e-08
8.41737e-08
9.48557e-10
5.23825e-10
2.1487e-10
3.90927e-11
1.654e-12
3.13286e-14
2.61521e-16
9.00742e-19
1.41578e-21
4.4819e-22
1.91654e-21
2.79991e-22
2.43408e-21
4.60254e-24
5.41232e-23
3.41931e-25
4.29824e-25
1.14701e-27
5.21378e-29
3.81908e-32
4.04169e-33
8.62951e-37
3.3413e-37
1.8562e-42
8.50658e-10
2.39927e-09
1.44105e-09
7.22362e-10
5.08009e-09
5.66547e-09
9.58793e-10
6.26566e-10
3.33689e-10
6.88981e-11
2.68215e-12
3.34464e-14
2.38494e-16
1.02045e-18
1.05804e-21
8.48698e-25
2.96651e-24
1.35087e-24
1.15791e-23
9.03847e-27
2.11828e-25
4.49355e-28
5.50307e-28
1.33239e-30
5.46776e-32
2.35607e-35
2.74356e-36
2.22137e-40
1.37972e-40
2.57108e-46
2.45767e-10
2.45438e-10
5.97165e-10
-1.19081e-08
2.52052e-09
1.6476e-09
1.02626e-09
8.4532e-10
4.72905e-10
9.69619e-11
4.57404e-12
4.98467e-14
2.01497e-16
1.09312e-18
1.90828e-21
7.41527e-25
2.00668e-27
5.02221e-27
4.33845e-26
1.93178e-29
5.20504e-28
2.62412e-31
5.34595e-31
1.05114e-33
3.76529e-35
1.14687e-38
1.5375e-39
4.76189e-44
5.2225e-44
3.37292e-50
0.000186587
0.000122126
1.71253e-10
3.40468e-10
5.69262e-09
8.53977e-10
8.51812e-10
1.16365e-09
7.89996e-10
1.22174e-10
7.54489e-12
1.15329e-13
3.15762e-16
1.22129e-18
2.87198e-21
1.95679e-24
1.20674e-28
1.22004e-29
1.16498e-28
3.08015e-32
8.40097e-31
5.44435e-35
6.21641e-34
5.25604e-37
1.86514e-38
4.37244e-42
7.02908e-43
8.52839e-48
1.82322e-47
2.75487e-54
0.000788657
9.19847e-07
-1.00161e-07
6.32914e-07
5.80247e-09
4.62525e-07
6.6145e-10
8.66879e-10
4.90306e-10
1.45015e-10
1.07211e-11
2.29406e-13
8.36539e-16
1.46982e-18
4.33766e-21
4.20612e-24
5.30013e-28
2.43747e-32
1.75346e-31
3.02247e-35
8.17768e-34
9.24897e-39
6.59891e-37
1.38072e-40
7.77005e-42
1.28942e-45
2.5708e-46
1.27854e-51
5.89843e-51
4.10663e-59
0.0566271
0.00626074
0.00980006
4.05161e-07
7.3636e-07
1.23631e-06
5.09517e-08
3.49601e-10
3.33744e-10
3.06342e-10
1.43035e-11
3.29556e-13
2.12717e-15
1.79648e-18
6.37344e-21
7.07318e-24
1.44914e-27
4.00149e-32
1.15338e-34
1.97907e-38
4.72993e-37
6.49307e-42
4.96488e-40
1.21231e-44
4.09681e-45
2.88976e-49
8.85435e-50
1.60819e-55
1.77655e-54
5.46684e-64
0.0596089
0.0596136
0.0513051
0.00800303
-2.4828e-07
3.06263e-09
1.45986e-08
1.9506e-07
3.00669e-08
1.39475e-09
1.76292e-11
4.19956e-13
3.61598e-15
2.23626e-18
6.3886e-21
9.62103e-24
2.99577e-27
1.60683e-31
6.45802e-38
1.20809e-41
2.80788e-40
3.11444e-45
2.50574e-43
6.13743e-50
2.09722e-48
4.8017e-53
3.27705e-53
1.70465e-59
5.0028e-58
7.82632e-69
0.0266901
0.0207901
0.000375552
0.000600388
3.0994e-08
1.96294e-09
4.54062e-08
3.05308e-06
5.87339e-08
8.75291e-09
2.15915e-11
5.48724e-13
5.98545e-15
4.47567e-18
7.72229e-21
1.30849e-23
5.87472e-27
4.57685e-31
4.40279e-37
1.3842e-44
1.13463e-43
9.53762e-49
7.89747e-47
3.3499e-54
8.68015e-52
5.71931e-57
1.20965e-56
1.54147e-63
1.32212e-61
1.24323e-73
0.000426452
0.000232961
0.000956042
1.42295e-06
4.80759e-07
1.71793e-09
5.62838e-09
3.07384e-06
1.5584e-07
5.75032e-09
1.85849e-11
5.77994e-13
7.61551e-15
1.00507e-17
7.49913e-21
1.34776e-23
7.46585e-27
9.69994e-31
2.43364e-36
1.17887e-43
8.3219e-48
1.76616e-52
1.39085e-50
1.03337e-57
2.83888e-55
4.68229e-61
4.05842e-60
1.23937e-67
3.29336e-65
2.01049e-78
0.00186097
0.000209854
0.000365222
1.33833e-06
2.95691e-06
3.06083e-07
5.43019e-08
2.15092e-06
3.90497e-10
3.59048e-10
1.41648e-11
4.89261e-13
8.24285e-15
1.72266e-17
8.982e-21
1.27868e-23
7.99681e-27
1.36566e-30
6.11507e-36
1.10832e-42
3.14504e-58
3.04125e-56
2.05752e-54
2.46016e-61
7.21135e-59
2.54086e-65
1.23386e-63
9.9975e-72
7.76829e-69
3.0347e-83
1.88126e-05
6.09672e-05
5.74484e-06
1.23549e-05
3.81246e-06
4.47919e-07
4.2155e-08
4.90545e-08
6.49623e-10
1.18525e-10
1.14393e-11
4.30601e-13
8.61485e-15
2.09791e-17
1.64072e-20
6.38454e-24
2.89505e-27
5.87905e-31
5.8832e-36
7.01042e-42
6.96166e-62
7.61825e-60
5.71444e-58
4.48862e-65
1.40992e-62
1.02599e-69
3.41105e-67
1.00761e-75
1.74288e-72
4.13459e-88
4.21531e-06
4.13791e-06
5.64474e-06
2.17618e-05
2.23079e-06
4.51529e-07
5.3827e-05
4.26443e-10
6.75413e-10
1.04547e-10
1.11809e-11
4.41924e-13
1.00692e-14
2.73743e-17
4.29128e-20
9.61547e-24
2.53252e-27
5.9596e-31
1.04147e-35
2.42158e-41
1.02899e-65
1.28252e-63
1.07769e-61
6.36568e-69
2.1388e-66
7.37376e-74
8.66435e-71
1.39344e-79
3.73831e-76
5.30843e-93
0.0174551
0.00209862
5.92994e-06
0.000180297
0.000401465
0.000144516
0.000123158
4.23547e-10
1.63677e-09
1.02072e-10
1.21731e-11
4.92935e-13
1.22393e-14
3.9429e-17
8.60037e-20
1.66201e-23
1.46472e-27
2.97539e-31
5.5413e-36
3.03377e-41
9.35452e-70
1.34276e-67
1.28131e-65
7.41375e-73
2.62537e-70
1.32346e-77
2.10264e-74
2.26552e-83
7.70675e-80
7.81083e-98
0.0241706
0.0123569
7.91396e-06
0.000375554
0.000410792
0.000182229
7.12084e-05
5.72338e-10
7.0176e-10
1.03287e-10
1.33696e-11
5.51959e-13
1.23577e-14
4.15517e-17
1.00638e-19
2.33068e-23
9.80256e-28
2.41897e-31
7.43614e-36
8.16996e-41
4.64056e-74
7.78895e-72
8.58808e-70
7.82223e-77
2.81434e-74
2.69133e-81
4.81428e-78
3.76768e-87
1.56419e-83
1.71175e-102
0.00854093
0.00360874
0.000145845
0.000421582
0.000379303
2.11222e-05
3.07768e-06
3.91738e-09
4.08047e-10
8.769e-11
9.80991e-12
3.52211e-13
7.45086e-15
2.78664e-17
7.07641e-20
1.82489e-23
3.00929e-28
6.90419e-32
2.06785e-36
2.77277e-41
1.02632e-78
2.05612e-76
2.67907e-74
8.52521e-81
3.00103e-78
5.0379e-85
1.04088e-81
6.13744e-91
3.28437e-87
5.02558e-107
0.000220243
0.000207673
0.000209882
0.000421586
0.000295004
1.90717e-09
2.01839e-09
1.93092e-09
3.10887e-10
7.25988e-11
6.69497e-12
2.1136e-13
3.22765e-15
9.85094e-18
2.17383e-20
6.12142e-24
1.4534e-28
4.08472e-32
1.38697e-36
2.33232e-41
6.45973e-84
1.58972e-81
2.52425e-79
1.33442e-84
5.46487e-82
8.6315e-89
2.13825e-85
9.6587e-95
6.85092e-91
1.50617e-111
0.0133602
0.00172525
1.90534e-05
0.000309291
0.00019042
2.30331e-09
2.35184e-09
8.63573e-10
2.94505e-10
6.69677e-11
4.68911e-12
1.19219e-13
1.31237e-15
3.74213e-18
7.17638e-21
2.28764e-24
6.98486e-29
1.52943e-32
5.07487e-37
9.20443e-42
2.60797e-90
8.20974e-88
1.66299e-85
2.00506e-88
1.05147e-85
1.34301e-92
4.20659e-89
1.45018e-98
1.3915e-94
4.08924e-116
0.0278224
0.00812614
1.3353e-05
1.24279e-05
1.03663e-05
4.39001e-07
6.71623e-10
5.60053e-10
3.56511e-10
7.00478e-11
3.48231e-12
6.48019e-14
5.44383e-16
1.28519e-18
1.82849e-21
4.71758e-25
7.57305e-30
8.40318e-34
1.33589e-38
1.37358e-43
7.69247e-98
2.34132e-97
2.63881e-95
2.50833e-92
1.83232e-89
1.86605e-96
8.0232e-93
2.0434e-102
2.74789e-98
1.00132e-120
0.0278225
0.00757302
3.4673e-05
-6.05608e-10
1.80248e-09
3.53264e-08
1.48819e-09
5.82846e-10
7.32931e-10
9.045e-11
2.97135e-12
5.23662e-14
2.96912e-16
5.62069e-19
5.37666e-22
1.2523e-25
4.16587e-30
1.85553e-34
2.29958e-39
1.83491e-44
5.12201e-103
8.8856e-102
1.52592e-99
2.41289e-96
2.89948e-93
2.21098e-100
1.4937e-96
2.66364e-106
5.28338e-102
2.8196e-125
0.0164371
0.000727656
0.000270709
8.15511e-10
2.79752e-09
5.81167e-09
3.69731e-09
6.50336e-10
6.2005e-10
4.24674e-11
6.8358e-13
8.89923e-15
3.35456e-17
5.02757e-20
1.6619e-23
1.40258e-27
2.65506e-34
1.83549e-38
8.24141e-44
4.39982e-49
2.73488e-108
2.87343e-106
2.72635e-104
1.25143e-100
4.17922e-97
1.86884e-104
2.74357e-100
3.17814e-110
9.91266e-106
1.47535e-129
0.00080707
0.000648769
0.000525473
0.00042365
0.000340614
0.000274523
0.000219641
0.000176916
0.000141128
0.000113923
9.04716e-05
7.31267e-05
5.78989e-05
4.66991e-05
3.69494e-05
2.96336e-05
2.34658e-05
1.85221e-05
1.46596e-05
1.08766e-05
5.37235e-06
5.34411e-06
1.00246e-12
2.47736e-06
1.50564e-13
6.18105e-06
1.76166e-13
4.32895e-05
1.67519e-13
0.000205116
1.84938e-12
1.36989e-12
1.32657e-12
1.17527e-12
1.14026e-12
1.10476e-12
1.08608e-12
1.09264e-12
1.09084e-12
1.10838e-12
1.12232e-12
1.17538e-12
1.16724e-12
4.12184e-10
4.76033e-10
7.23668e-10
4.11719e-10
2.96124e-10
1.1254e-10
6.64726e-11
3.45593e-11
4.48154e-12
1.00229e-12
4.62156e-12
1.50553e-13
1.31293e-10
1.76163e-13
7.70646e-20
1.66421e-13
9.78401e-20
6.47348e-13
2.0095e-13
1.91016e-13
6.19119e-14
5.47006e-14
2.79417e-14
2.88029e-14
2.74728e-14
3.14917e-14
2.11072e-14
3.14445e-14
3.97028e-14
2.45459e-14
3.65108e-14
1.87918e-14
1.29766e-14
4.00602e-15
2.29078e-15
2.88141e-17
9.8902e-18
9.83977e-20
7.1649e-20
2.34102e-20
2.00023e-19
2.07741e-20
2.77198e-20
4.08614e-20
5.75303e-20
3.96432e-20
9.76434e-20
2.78742e-16
5.48956e-17
5.5354e-17
1.20289e-17
1.07532e-17
6.12246e-18
7.4314e-18
6.551e-18
6.74796e-18
3.52615e-18
3.9232e-18
3.35954e-18
1.45105e-18
1.15307e-18
3.34836e-19
1.60436e-19
1.84486e-20
2.97433e-21
5.34589e-25
9.51452e-26
8.21051e-26
1.88501e-26
5.03263e-27
6.36954e-26
2.58296e-27
5.95519e-27
7.31539e-27
9.75255e-27
9.32904e-27
1.67608e-26
9.75392e-20
1.2487e-20
1.3291e-20
1.94695e-21
1.80921e-21
1.0214e-21
1.38745e-21
8.95828e-22
8.35773e-22
3.18741e-22
2.72151e-22
1.56431e-22
4.89401e-23
2.4094e-23
4.11717e-24
1.24611e-24
1.96037e-26
2.16129e-28
2.05012e-31
9.21256e-32
7.42998e-32
9.68345e-33
2.18124e-33
1.24616e-32
6.16145e-34
1.14125e-33
1.29478e-33
1.48905e-33
1.80637e-33
1.90699e-33
3.0374e-23
2.44601e-24
2.89468e-24
2.68673e-25
2.80726e-25
1.27492e-25
1.96922e-25
8.34957e-26
7.41541e-26
1.95968e-26
1.35115e-26
5.11122e-27
1.20712e-27
3.73557e-28
3.82297e-29
5.34378e-30
2.14892e-33
6.03851e-37
2.09559e-37
9.98263e-38
7.17819e-38
5.84125e-39
1.15434e-39
2.65804e-39
1.55733e-40
1.83865e-40
1.56115e-40
2.01443e-40
2.91308e-40
1.54061e-40
8.42975e-27
4.05512e-28
5.71632e-28
3.10495e-29
3.96839e-29
1.22031e-29
2.23719e-29
5.7976e-30
5.1992e-30
9.03244e-31
5.33061e-31
1.2838e-31
2.39873e-32
4.46687e-33
2.77128e-34
8.71995e-36
4.30823e-40
7.79754e-43
2.85669e-43
1.15018e-43
7.0153e-44
4.24098e-45
6.46596e-46
3.8677e-46
4.08215e-47
3.71246e-47
3.68338e-47
3.70449e-47
3.99401e-47
9.34858e-48
2.06e-30
5.65394e-32
1.0091e-31
2.9954e-33
5.02411e-33
9.26652e-34
2.12098e-33
3.16662e-34
3.04627e-34
3.2986e-35
1.76933e-35
2.60063e-36
4.04159e-37
4.19855e-38
1.6007e-39
2.94244e-42
2.03744e-46
1.38164e-48
4.14422e-49
1.3816e-49
6.88884e-50
3.35169e-51
4.08343e-52
1.10595e-52
1.21694e-53
9.09331e-54
1.24529e-53
7.52018e-54
6.38303e-54
4.514e-55
4.40018e-34
6.65626e-36
1.57982e-35
2.43062e-37
5.6633e-37
5.7456e-38
1.72916e-37
1.40971e-38
1.54458e-38
9.88222e-40
5.11662e-40
4.37166e-41
5.95483e-42
3.13056e-43
7.46888e-45
6.01954e-49
4.44692e-53
2.52848e-54
6.28889e-55
1.72274e-55
7.02501e-56
2.84552e-57
2.64441e-58
3.08413e-59
4.85371e-60
2.66198e-60
4.53449e-60
1.33957e-60
9.03761e-61
1.8149e-62
8.20779e-38
6.67791e-40
2.19184e-39
1.67888e-41
5.69632e-41
2.97684e-42
1.23922e-41
5.24683e-43
6.94129e-43
2.48825e-44
1.32008e-44
6.21617e-46
7.83493e-47
1.86121e-48
2.84947e-50
5.4828e-55
3.27072e-59
4.71363e-60
9.78251e-61
2.19774e-61
7.22064e-62
2.51509e-63
1.91633e-64
1.47471e-65
2.4994e-66
7.13829e-67
1.46116e-66
1.66092e-67
8.13901e-68
6.32009e-70
1.34003e-41
5.76881e-44
2.70238e-43
9.99785e-46
5.13919e-45
1.31238e-46
7.93324e-46
1.66379e-47
2.81179e-47
5.35909e-49
3.08971e-49
7.57942e-51
9.34415e-52
8.8423e-54
8.98885e-56
1.55501e-60
7.28102e-65
8.91771e-66
1.56027e-66
2.88214e-67
7.69271e-68
2.37359e-69
1.47678e-70
7.25187e-72
1.10611e-72
1.401e-73
3.55409e-73
1.62847e-74
4.98546e-75
1.96559e-77
1.92097e-45
4.33496e-48
2.97202e-47
5.19902e-50
4.18167e-49
4.99372e-51
4.58962e-50
4.56012e-52
1.039e-51
1.00026e-53
6.63871e-54
8.00425e-56
1.02109e-56
3.35747e-59
2.37032e-61
3.80337e-66
1.60218e-70
1.69981e-71
2.52243e-72
3.83954e-73
8.2845e-74
2.30732e-75
1.2155e-76
4.36044e-78
6.24268e-79
2.16345e-80
6.35581e-80
2.0773e-81
4.2424e-82
5.59419e-85
2.42749e-49
2.86469e-52
2.92883e-51
2.39601e-54
3.08629e-53
1.66056e-55
2.4218e-54
1.09369e-56
3.5352e-56
1.63585e-58
1.32178e-58
7.38442e-61
1.03141e-61
1.02061e-64
5.2889e-67
7.95201e-72
3.39464e-76
3.26727e-77
4.13703e-78
5.21618e-79
9.17731e-80
2.35581e-81
1.05122e-82
2.67599e-84
3.22219e-85
4.12515e-87
9.81557e-87
2.6694e-88
3.50982e-89
1.48567e-92
2.71438e-53
1.68462e-56
2.59767e-55
9.97107e-59
2.07686e-57
4.88112e-60
1.17407e-58
2.32156e-61
1.11569e-60
2.36737e-63
2.4564e-63
5.9986e-66
9.69912e-67
2.51662e-70
1.01244e-72
1.43936e-77
7.00631e-82
6.31079e-83
6.85004e-84
7.19498e-85
1.03153e-85
2.4785e-87
9.28552e-89
1.74169e-90
1.85624e-91
8.85293e-94
1.4614e-93
3.73459e-95
2.75267e-96
3.74128e-100
2.69371e-57
8.93227e-61
2.0811e-59
3.84377e-63
1.27959e-61
1.28319e-64
5.25764e-63
4.413e-66
3.28344e-65
3.0615e-68
4.28359e-68
4.32552e-71
8.53776e-72
5.39403e-76
1.68872e-78
2.28692e-83
1.43935e-87
1.22475e-88
1.14286e-89
1.00704e-90
1.17882e-91
2.68028e-93
8.37134e-95
1.20042e-96
1.09023e-97
2.02774e-100
2.22072e-100
5.17649e-102
2.09005e-103
9.06007e-108
2.37964e-61
4.33886e-65
1.51164e-63
1.42179e-67
7.24801e-66
3.06434e-69
2.18543e-67
7.63484e-71
9.05378e-70
3.58441e-73
7.04222e-73
2.80166e-76
7.07045e-77
1.29928e-81
2.50099e-84
3.24086e-89
2.99541e-93
2.3836e-94
1.91656e-95
1.42568e-96
1.36552e-97
2.95603e-99
7.63395e-101
8.91101e-103
6.4412e-104
6.62197e-107
3.99435e-107
7.08993e-109
1.55578e-110
2.14438e-115
1.87629e-65
1.96561e-69
9.9896e-68
5.25035e-72
3.78842e-70
6.80846e-74
8.46661e-72
1.23408e-75
2.34832e-74
3.8787e-78
1.09565e-77
1.66468e-81
5.53251e-82
5.05351e-87
3.36828e-90
4.1721e-95
6.37391e-99
4.64985e-100
3.22714e-101
2.03512e-102
1.60197e-103
3.30196e-105
7.02851e-107
6.95753e-109
3.86162e-110
3.02184e-113
9.83484e-114
9.63042e-116
1.13598e-117
5.07711e-123
1.32289e-69
8.44585e-74
6.02287e-72
1.9894e-76
1.83261e-74
1.46274e-78
3.0666e-76
1.94785e-80
5.74599e-79
4.02192e-83
1.61771e-82
9.46624e-87
4.10408e-87
2.79125e-92
4.28499e-96
4.99604e-101
1.38312e-104
9.07608e-106
5.43853e-107
2.92262e-108
1.89618e-109
3.71704e-111
6.48288e-113
5.68052e-115
2.36878e-116
1.56589e-119
2.91054e-120
1.30517e-122
8.19236e-125
1.25486e-130
8.35763e-74
3.48486e-78
3.32332e-76
7.73462e-81
8.2306e-79
3.21321e-83
1.04172e-80
3.20486e-85
1.33018e-83
4.24637e-88
2.27298e-87
5.58335e-92
2.89586e-92
1.63814e-97
5.63446e-102
5.8211e-107
3.04007e-110
1.7698e-111
9.15672e-113
4.21073e-114
2.25878e-115
4.20254e-117
5.99055e-119
4.75315e-121
1.50365e-122
9.20769e-126
9.43244e-127
1.77064e-129
6.02098e-132
3.48303e-138
4.7415e-78
1.38577e-82
1.68348e-80
3.01178e-85
3.44239e-83
7.61206e-88
3.32838e-85
5.83519e-90
2.92078e-88
4.90999e-93
3.0465e-92
3.78307e-97
1.94937e-97
9.31181e-103
9.46743e-108
7.36853e-113
6.71813e-116
3.44409e-117
1.53782e-118
6.06981e-120
2.69995e-121
4.74986e-123
5.54197e-125
4.03481e-127
9.76231e-129
5.60681e-132
3.3086e-133
2.42634e-136
4.52275e-139
1.16934e-145
2.42086e-82
5.28149e-87
7.8507e-85
1.13946e-89
1.34414e-87
1.96899e-92
1.00245e-89
1.18325e-94
6.09443e-93
6.44206e-98
3.90161e-97
3.06222e-102
1.25467e-102
5.05096e-108
2.49786e-113
1.2431e-118
1.48467e-121
6.67211e-123
2.56983e-124
8.73242e-126
3.22889e-127
5.35265e-129
5.12536e-131
3.46101e-133
6.51038e-135
3.44945e-138
1.19444e-139
3.65305e-143
3.37958e-146
4.7999e-153
1.1163e-86
1.91036e-91
3.38177e-89
4.09539e-94
4.91428e-92
5.36707e-97
2.85317e-94
2.5482e-99
1.21094e-97
9.28588e-103
4.78361e-102
2.78243e-107
7.73983e-108
2.61244e-113
9.07825e-119
3.07304e-124
3.27059e-127
1.28391e-128
4.26645e-130
1.25001e-131
3.85669e-133
5.99792e-135
4.72953e-137
2.97545e-139
4.36683e-141
2.15611e-144
4.40481e-146
7.05313e-150
2.51827e-153
2.42922e-160
4.6707e-91
6.49463e-96
1.35051e-93
1.38018e-98
1.68729e-96
1.4672e-101
7.69261e-99
5.513e-104
2.29567e-102
1.38236e-107
5.62453e-107
2.60809e-112
4.5862e-113
1.29065e-118
3.58823e-124
9.328e-130
7.16346e-133
2.44772e-134
7.02799e-136
1.77401e-137
4.60054e-139
6.6689e-141
4.34875e-143
2.55607e-145
2.93018e-147
1.38292e-150
1.62557e-152
1.81328e-156
2.00431e-160
1.4763e-167
1.78293e-95
2.06015e-100
5.01748e-98
4.33172e-103
5.45434e-101
3.87766e-106
1.96843e-103
1.15474e-108
4.15806e-107
2.02606e-112
6.3494e-112
2.39454e-117
2.61443e-118
6.06917e-124
1.38013e-129
2.88351e-135
1.55582e-138
4.61007e-140
1.14664e-141
2.48902e-143
5.46649e-145
7.33353e-147
3.98306e-149
2.1885e-151
1.96049e-153
8.98346e-157
5.93424e-159
5.1392e-163
1.78649e-167
9.64893e-175
6.25189e-100
6.07639e-105
1.74163e-102
1.26245e-107
1.66515e-105
9.7073e-111
4.79135e-108
2.29646e-113
7.20795e-112
2.84716e-117
6.8919e-117
2.10192e-122
1.43653e-123
2.69455e-129
4.95365e-135
8.29257e-141
3.34262e-144
8.55968e-146
1.85007e-147
3.44703e-149
6.46191e-151
7.95633e-153
3.63378e-155
1.86352e-157
1.30467e-159
5.84668e-163
2.13887e-165
1.53067e-169
1.74296e-174
5.77985e-182
2.02925e-104
1.66483e-109
5.67387e-107
3.41054e-112
4.81596e-110
2.27514e-115
1.11189e-112
4.28676e-118
1.1978e-116
3.77817e-122
7.20287e-122
1.74031e-127
7.62125e-129
1.11888e-134
1.61466e-140
2.1063e-146
7.08904e-150
1.56344e-151
2.94356e-153
4.70251e-155
7.58015e-157
8.50439e-159
3.30015e-161
1.56938e-163
8.66019e-166
3.71901e-169
7.98281e-172
4.74831e-176
1.76497e-181
2.14178e-189
6.14406e-109
4.2347e-114
1.74244e-111
8.51056e-117
1.32322e-114
4.94086e-120
2.46435e-117
7.42457e-123
1.91027e-121
4.66786e-127
7.25432e-127
1.33969e-132
3.90841e-134
4.27004e-140
4.6106e-146
4.46427e-152
1.48068e-155
2.80419e-157
4.60596e-159
6.30246e-161
8.80354e-163
8.95096e-165
2.97947e-167
1.30446e-169
5.71054e-172
2.28427e-175
3.01363e-178
1.41736e-182
1.66785e-188
3.45381e-197
1.7499e-113
9.9698e-119
5.06949e-116
1.9448e-121
3.46508e-119
9.78696e-125
5.22784e-122
1.1708e-127
2.92808e-126
5.25399e-132
7.04874e-132
9.35844e-138
1.93997e-139
1.44912e-145
1.08204e-151
7.1869e-158
3.03984e-161
4.92784e-163
7.06957e-165
8.2879e-167
1.00998e-168
9.28323e-171
2.67746e-173
1.07011e-175
3.75742e-178
1.36256e-181
1.17338e-184
4.06952e-189
1.46809e-195
1.64377e-204
4.72716e-118
2.14044e-123
1.40448e-120
3.9721e-126
8.6765e-124
1.70766e-129
1.06378e-126
1.61395e-132
4.31955e-131
5.15108e-137
6.61357e-137
5.63418e-143
9.32617e-145
4.03424e-151
1.80388e-157
7.1957e-164
6.12282e-167
8.46478e-169
1.0614e-170
1.06735e-172
1.14223e-174
9.47329e-177
2.38494e-179
8.65838e-182
2.43778e-184
7.85069e-188
4.60053e-191
1.12878e-195
1.20215e-202
6.95385e-212
1.2201e-122
4.12686e-128
3.72177e-125
6.91274e-131
2.08297e-128
2.47095e-134
2.07952e-131
1.82372e-137
6.13736e-136
4.11456e-142
5.99235e-142
2.70127e-148
4.34109e-150
7.10831e-157
1.41708e-163
3.06902e-170
1.20735e-172
1.41503e-174
1.55274e-176
1.3437e-178
1.27324e-180
9.56617e-183
2.12086e-185
6.9744e-188
1.57427e-190
4.41701e-194
1.75357e-197
2.80275e-202
9.41535e-210
2.19947e-219
)
;

boundaryField
{
    symmetryAxis
    {
        type            symmetryPlane;
    }
    rightWall
    {
        type            zeroGradient;
    }
    lowerWall
    {
        type            zeroGradient;
    }
    atmosphere
    {
        type            inletOutlet;
        inletValue      uniform 0;
        value           nonuniform List<scalar> 
90
(
0.0164371
0.000727656
0.000270709
8.15511e-10
2.79752e-09
5.81167e-09
3.69731e-09
6.50336e-10
0
4.24674e-11
0
8.89923e-15
0
0
0
0
0
0
0
0
0
0
0
0
0
0
0
3.17814e-110
0
1.47535e-129
1.2201e-122
4.12686e-128
3.72177e-125
6.91274e-131
2.08297e-128
2.47095e-134
2.07952e-131
1.82372e-137
6.13736e-136
4.11456e-142
5.99235e-142
2.70127e-148
4.34109e-150
0
1.41708e-163
0
0
0
0
0
0
0
0
0
0
0
0
0
0
0
0.000205116
9.78401e-20
0
0
0
0
0
0
0
0
0
0
0
0
0
0
0
0
0
0
0
0
0
0
0
0
0
0
0
0
)
;
    }
    frontAndBack
    {
        type            empty;
    }
    frontAndBack_pos
    {
        type            wedge;
    }
    frontAndBack_neg
    {
        type            wedge;
    }
}


// ************************************************************************* //
