/*--------------------------------*- C++ -*----------------------------------*\
| =========                 |                                                 |
| \\      /  F ield         | OpenFOAM: The Open Source CFD Toolbox           |
|  \\    /   O peration     | Version:  2.4.0                                 |
|   \\  /    A nd           | Web:      www.OpenFOAM.org                      |
|    \\/     M anipulation  |                                                 |
\*---------------------------------------------------------------------------*/
FoamFile
{
    version     2.0;
    format      ascii;
    class       volVectorField;
    location    "0.102";
    object      U;
}
// * * * * * * * * * * * * * * * * * * * * * * * * * * * * * * * * * * * * * //

dimensions      [0 1 -1 0 0 0 0];

internalField   nonuniform List<vector> 
3600
(
(1.83013e-05 -0.000107328 3.35278e-11)
(0.000163217 -8.29953e-05 1.1805e-11)
(4.83192e-05 -4.56661e-05 -1.53882e-11)
(0.000263525 -4.55907e-05 -1.6688e-11)
(4.06595e-05 -2.95958e-05 -1.43015e-11)
(0.000365618 -3.72646e-05 -1.21203e-11)
(4.47885e-05 -1.49866e-05 -9.33985e-12)
(0.000437796 -2.97719e-05 -8.60124e-12)
(6.69297e-05 -5.30417e-06 -6.11824e-12)
(0.000446614 -2.61023e-05 -6.12499e-12)
(0.000114678 2.09313e-06 -4.03223e-12)
(0.00036584 -2.28014e-05 -4.2229e-12)
(0.000162787 6.12918e-06 -2.69697e-12)
(0.000197214 -2.07071e-05 -2.73153e-12)
(0.000181495 6.62067e-06 -1.78065e-12)
(-2.61295e-05 -7.96398e-06 -1.61043e-12)
(0.000168954 2.54361e-06 -1.08488e-12)
(-0.000209189 7.16357e-06 -8.53807e-13)
(-6.65025e-06 4.39334e-06 -5.95874e-13)
(-0.000331389 2.31942e-05 -4.05876e-13)
(-0.000539666 3.52105e-05 -2.90861e-13)
(-0.000971428 2.47003e-05 -1.24382e-13)
(-0.00086054 -3.52522e-06 -4.78067e-14)
(-0.000432919 -1.34129e-05 3.39834e-14)
(-0.000149334 -1.26638e-05 2.92344e-14)
(0.000126233 -6.54169e-06 3.29907e-14)
(0.000118301 -1.70749e-06 1.73272e-14)
(0.000149831 -3.19852e-07 1.17665e-14)
(8.93414e-05 5.72489e-07 5.37363e-15)
(7.17646e-05 4.22321e-07 2.93561e-15)
(-3.73976e-05 -0.000241961 -6.97246e-11)
(5.83247e-05 -0.000197481 -1.07993e-10)
(-0.000105764 -0.000118003 -9.30429e-11)
(9.38624e-05 -0.000123406 -6.63596e-11)
(-0.000173498 -6.55152e-05 -4.64018e-11)
(0.000127852 -0.000125357 -3.70793e-11)
(-0.000217404 -2.02287e-05 -2.62344e-11)
(0.000145221 -0.000124774 -2.32876e-11)
(-0.000224623 2.25961e-05 -1.57789e-11)
(8.5747e-05 -0.000111563 -1.53169e-11)
(-0.000215452 5.23879e-05 -9.83592e-12)
(-7.79096e-05 -7.54541e-05 -9.90832e-12)
(-0.000222093 6.54972e-05 -6.23531e-12)
(-0.000314365 -2.52288e-05 -5.98943e-12)
(-0.000258785 6.1102e-05 -3.84449e-12)
(-0.00055957 4.32718e-06 -3.24096e-12)
(-0.000296926 3.68968e-05 -2.1332e-12)
(-0.000700621 3.87964e-05 -1.50589e-12)
(-0.000447794 2.79559e-05 -1.00213e-12)
(-0.000731524 7.85872e-05 -5.60997e-13)
(-0.000910677 9.97336e-05 -3.64584e-13)
(-0.00119773 5.26236e-05 -7.81177e-14)
(-0.000981683 -3.8418e-05 -2.73367e-15)
(-0.000374398 -6.1581e-05 9.71226e-14)
(-7.44178e-05 -4.58135e-05 6.56634e-14)
(0.000242488 -2.24264e-05 6.03533e-14)
(0.000194977 -3.29286e-06 3.07836e-14)
(0.000215734 4.26689e-07 1.97152e-14)
(0.000126772 3.41036e-06 8.90262e-15)
(9.81589e-05 2.34225e-06 4.76484e-15)
(-4.76433e-05 -7.26448e-05 -9.20907e-11)
(4.89925e-05 -4.93583e-05 -1.36891e-10)
(-0.000150491 1.71762e-06 -1.14294e-10)
(8.61691e-05 -2.29276e-05 -7.7874e-11)
(-0.000223312 2.78165e-05 -5.38207e-11)
(0.000108607 -4.91137e-05 -4.26064e-11)
(-0.000284164 5.15741e-05 -3.02368e-11)
(8.53307e-05 -6.86202e-05 -2.69162e-11)
(-0.000313114 9.47065e-05 -1.81973e-11)
(-2.72923e-05 -6.21332e-05 -1.77332e-11)
(-0.000321287 0.000135115 -1.1282e-11)
(-0.000230058 -3.34752e-05 -1.13662e-11)
(-0.000342695 0.000147271 -7.06954e-12)
(-0.000481138 -5.85353e-06 -6.74144e-12)
(-0.000395542 0.000128772 -4.27313e-12)
(-0.000710146 1.86787e-05 -3.53432e-12)
(-0.00041396 7.49432e-05 -2.29257e-12)
(-0.000802018 6.3133e-05 -1.55911e-12)
(-0.000522282 4.69222e-05 -1.01954e-12)
(-0.000765087 0.000124175 -5.28125e-13)
(-0.000939503 0.000157476 -3.37176e-13)
(-0.00119777 7.27028e-05 -3.82721e-14)
(-0.000972908 -7.85546e-05 2.28545e-14)
(-0.000338778 -0.000113042 1.18519e-13)
(-4.5157e-05 -7.88554e-05 7.69478e-14)
(0.000270677 -3.77043e-05 6.74114e-14)
(0.00021195 -3.93918e-06 3.4125e-14)
(0.000227647 1.82415e-06 2.1497e-14)
(0.000133065 6.69313e-06 9.65973e-15)
(0.000102547 4.3583e-06 5.16086e-15)
(-2.61671e-05 -0.00017841 -5.69111e-11)
(0.000104431 -0.000127534 -1.03341e-10)
(-0.000111277 -5.08745e-05 -1.00741e-10)
(0.000132746 -0.0001033 -7.18978e-11)
(-0.000188401 1.48633e-05 -5.14469e-11)
(0.000147448 -0.000134494 -4.16506e-11)
(-0.000265351 9.07173e-05 -3.0021e-11)
(0.000107075 -0.000157399 -2.71878e-11)
(-0.000313568 0.000172863 -1.84258e-11)
(-2.2722e-05 -0.0001418 -1.81368e-11)
(-0.000335205 0.000225229 -1.1489e-11)
(-0.000244009 -7.97185e-05 -1.16202e-11)
(-0.000368103 0.000231557 -7.2036e-12)
(-0.000504434 2.18599e-06 -6.85071e-12)
(-0.000410102 0.000194326 -4.33415e-12)
(-0.000732968 3.32973e-05 -3.54993e-12)
(-0.000418247 0.000108649 -2.29938e-12)
(-0.000810472 8.77656e-05 -1.53975e-12)
(-0.000517109 6.27543e-05 -1.00543e-12)
(-0.000748504 0.000170831 -5.08563e-13)
(-0.000939644 0.000218037 -3.2607e-13)
(-0.00120917 9.42657e-05 -2.62405e-14)
(-0.000980042 -0.000119388 3.07945e-14)
(-0.000330479 -0.000165465 1.24597e-13)
(-3.46365e-05 -0.000112099 8.00494e-14)
(0.000279482 -5.29423e-05 6.89801e-14)
(0.000216616 -4.39983e-06 3.48003e-14)
(0.000229914 3.2892e-06 2.17962e-14)
(0.000134225 1.00366e-05 9.78766e-15)
(0.000102511 6.33635e-06 5.18303e-15)
(-4.65611e-05 -0.000144792 -7.68617e-11)
(0.000130866 -5.44835e-05 -9.94972e-11)
(-0.000134142 4.64613e-05 -1.02402e-10)
(0.000207917 -6.28878e-06 -7.07064e-11)
(-0.000212715 0.000111868 -5.23854e-11)
(0.000233077 -3.83242e-05 -4.16711e-11)
(-0.00027694 0.000186442 -3.05868e-11)
(0.000171656 -7.50924e-05 -2.76046e-11)
(-0.000310274 0.000267124 -1.87534e-11)
(7.42708e-06 -7.02515e-05 -1.85269e-11)
(-0.00031197 0.000321304 -1.16728e-11)
(-0.000235187 -1.93038e-05 -1.18351e-11)
(-0.000334462 0.000319113 -7.32774e-12)
(-0.000508826 2.25628e-05 -6.9441e-12)
(-0.000404745 0.000262429 -4.41095e-12)
(-0.000744762 4.64821e-05 -3.57363e-12)
(-0.000410272 0.000141966 -2.32411e-12)
(-0.000814513 0.000111459 -1.53806e-12)
(-0.000505811 7.59365e-05 -1.00684e-12)
(-0.000729887 0.00021771 -5.0535e-13)
(-0.00094512 0.000281151 -3.26496e-13)
(-0.00123558 0.000116567 -2.33206e-14)
(-0.000998134 -0.000161566 3.393e-14)
(-0.00032842 -0.000219263 1.27525e-13)
(-2.66327e-05 -0.000145587 8.14989e-14)
(0.000286181 -6.79428e-05 6.94895e-14)
(0.000219803 -4.60758e-06 3.49546e-14)
(0.000230796 4.88439e-06 2.18089e-14)
(0.000134518 1.34326e-05 9.78889e-15)
(0.000102259 8.5041e-06 5.15912e-15)
(-5.36997e-05 -0.000279927 -9.11249e-11)
(0.00013793 -0.000187621 -1.10285e-10)
(-0.000152909 -6.04323e-05 -1.10277e-10)
(0.000194977 -0.000135842 -7.40883e-11)
(-0.00022835 5.52896e-05 -5.49991e-11)
(0.000232529 -0.000166812 -4.32361e-11)
(-0.000292892 0.000200744 -3.18387e-11)
(0.000185611 -0.000206124 -2.85961e-11)
(-0.000319977 0.000343965 -1.94158e-11)
(2.50987e-05 -0.000186113 -1.91635e-11)
(-0.000323287 0.000417734 -1.20502e-11)
(-0.000230822 -8.75118e-05 -1.21595e-11)
(-0.000361058 0.000408244 -7.55588e-12)
(-0.000515385 3.26994e-05 -7.08965e-12)
(-0.000407009 0.000331798 -4.53331e-12)
(-0.000761454 5.95902e-05 -3.62159e-12)
(-0.000402015 0.00017407 -2.36905e-12)
(-0.000822085 0.000135234 -1.54695e-12)
(-0.000493479 8.66174e-05 -1.01587e-12)
(-0.000708408 0.000266079 -5.07207e-13)
(-0.000954265 0.000348949 -3.30604e-13)
(-0.00127184 0.000140769 -2.21711e-14)
(-0.00102272 -0.000205638 3.65488e-14)
(-0.000326966 -0.000274978 1.30365e-13)
(-1.7264e-05 -0.000179524 8.28749e-14)
(0.000293954 -8.27805e-05 6.98788e-14)
(0.000223401 -4.59417e-06 3.50329e-14)
(0.000231608 6.5896e-06 2.17667e-14)
(0.000134685 1.68617e-05 9.76152e-15)
(0.000102026 1.06492e-05 5.13421e-15)
(-7.64727e-05 -0.000172605 -1.21544e-10)
(0.000186236 -6.74466e-05 -1.1067e-10)
(-0.000183757 8.22519e-05 -1.20863e-10)
(0.000320165 -1.45422e-05 -7.53211e-11)
(-0.000265962 0.000200904 -5.89053e-11)
(0.000369806 -5.59603e-05 -4.43917e-11)
(-0.000323802 0.000340202 -3.36805e-11)
(0.000291581 -0.000104293 -2.9701e-11)
(-0.000319981 0.000464781 -2.02404e-11)
(6.94545e-05 -8.93704e-05 -1.99746e-11)
(-0.000285899 0.000522137 -1.2455e-11)
(-0.000221083 -3.40402e-06 -1.25741e-11)
(-0.00030238 0.000500068 -7.81528e-12)
(-0.000524659 5.71824e-05 -7.27821e-12)
(-0.000402886 0.000403183 -4.69017e-12)
(-0.000783699 7.17226e-05 -3.68541e-12)
(-0.000393068 0.000204369 -2.42702e-12)
(-0.000832677 0.000158762 -1.55998e-12)
(-0.000479061 9.33259e-05 -1.02795e-12)
(-0.000681798 0.000315875 -5.10438e-13)
(-0.000965757 0.000422131 -3.36171e-13)
(-0.0013169 0.000166948 -2.1155e-14)
(-0.00105293 -0.000252096 3.95843e-14)
(-0.000325019 -0.000333051 1.33706e-13)
(-5.74154e-06 -0.000213984 8.44766e-14)
(0.000303322 -9.73686e-05 7.03072e-14)
(0.000227683 -4.2708e-06 3.51085e-14)
(0.000232524 8.44134e-06 2.17067e-14)
(0.000134842 2.03291e-05 9.72318e-15)
(0.000101768 1.28203e-05 5.10729e-15)
(-9.7497e-05 -0.000391414 -1.54495e-10)
(0.000197463 -0.000291238 -1.33417e-10)
(-0.000217794 -0.000111085 -1.35137e-10)
(0.000315804 -0.000230081 -8.03397e-11)
(-0.000290435 7.42169e-05 -6.29977e-11)
(0.000369822 -0.000257768 -4.68312e-11)
(-0.000346586 0.000318101 -3.576e-11)
(0.000296869 -0.000301356 -3.13543e-11)
(-0.000335534 0.00052997 -2.13643e-11)
(8.00942e-05 -0.000262807 -2.10235e-11)
(-0.000307205 0.000625698 -1.30941e-11)
(-0.000220539 -0.000102829 -1.3078e-11)
(-0.000354501 0.000594645 -8.18248e-12)
(-0.000537095 6.8739e-05 -7.5053e-12)
(-0.000410935 0.000477498 -4.88149e-12)
(-0.000811641 8.59631e-05 -3.76212e-12)
(-0.00038295 0.000234804 -2.49579e-12)
(-0.000846053 0.000182128 -1.57542e-12)
(-0.000461969 9.65532e-05 -1.04185e-12)
(-0.00064873 0.000367504 -5.14313e-13)
(-0.000979252 0.000502173 -3.42837e-13)
(-0.00137118 0.000195742 -2.00223e-14)
(-0.00108892 -0.000301518 4.3216e-14)
(-0.000322303 -0.000394005 1.37657e-13)
(8.18978e-06 -0.000249061 8.63545e-14)
(0.000314395 -0.00011166 7.07956e-14)
(0.000232679 -3.58935e-06 3.51902e-14)
(0.000233558 1.04655e-05 2.16333e-14)
(0.000135003 2.38406e-05 9.6768e-15)
(0.000101459 1.50026e-05 5.0759e-15)
(-0.000126214 -0.000154761 -1.98838e-10)
(0.00026508 -0.000104427 -1.29995e-10)
(-0.000245866 9.22599e-05 -1.4938e-10)
(0.000513668 -8.32536e-05 -7.94648e-11)
(-0.000321826 0.000308379 -6.85407e-11)
(0.000595273 -0.000120092 -4.77962e-11)
(-0.000379086 0.000547863 -3.83855e-11)
(0.000468885 -0.000168098 -3.28041e-11)
(-0.000330255 0.000712645 -2.25246e-11)
(0.000152165 -0.000123216 -2.22053e-11)
(-0.00024333 0.000743491 -1.36409e-11)
(-0.000209522 1.67804e-05 -1.36577e-11)
(-0.000258394 0.000692598 -8.54977e-12)
(-0.000551528 9.96056e-05 -7.77031e-12)
(-0.000407556 0.000552056 -5.10535e-12)
(-0.000845337 8.82434e-05 -3.85135e-12)
(-0.000372115 0.000255033 -2.57479e-12)
(-0.000862681 0.000203625 -1.59289e-12)
(-0.000441895 8.91208e-05 -1.05712e-12)
(-0.000608187 0.000421157 -5.18745e-13)
(-0.000994649 0.000590344 -3.50629e-13)
(-0.00143542 0.00022756 -1.87682e-14)
(-0.00113106 -0.000354512 4.7499e-14)
(-0.00031864 -0.000458363 1.42253e-13)
(2.47305e-05 -0.000284836 8.85195e-14)
(0.000327231 -0.000125576 7.13438e-14)
(0.000238387 -2.4789e-06 3.5277e-14)
(0.000234697 1.269e-05 2.15466e-14)
(0.000135165 2.74026e-05 9.62273e-15)
(0.000101087 1.72e-05 5.03902e-15)
(-0.000143923 -0.00048415 -2.14335e-10)
(0.000338621 -0.000477604 -1.27643e-10)
(-0.000299158 -0.000260526 -1.62364e-10)
(0.000546273 -0.000452524 -8.58462e-11)
(-0.000380633 7.10629e-05 -7.52834e-11)
(0.000591169 -0.000450062 -5.15095e-11)
(-0.000410002 0.000451081 -4.14057e-11)
(0.000453532 -0.000481915 -3.52731e-11)
(-0.000346369 0.000754904 -2.41967e-11)
(0.000133509 -0.000383922 -2.37527e-11)
(-0.000278057 0.000849575 -1.46027e-11)
(-0.000215125 -0.000124419 -1.43306e-11)
(-0.000346706 0.000794033 -9.0722e-12)
(-0.000570168 0.000117179 -8.07473e-12)
(-0.000425629 0.000642755 -5.3688e-12)
(-0.00088738 0.000114637 -3.95367e-12)
(-0.000357429 0.000292934 -2.66372e-12)
(-0.000882068 0.000231679 -1.61209e-12)
(-0.00041821 9.00527e-05 -1.07346e-12)
(-0.000557719 0.000477161 -5.23748e-13)
(-0.00101186 0.000688318 -3.59658e-13)
(-0.00151057 0.000263023 -1.74313e-14)
(-0.00117981 -0.000411753 5.24751e-14)
(-0.000313836 -0.000526704 1.47521e-13)
(4.4103e-05 -0.000321392 9.09775e-14)
(0.00034189 -0.000139038 7.19483e-14)
(0.000244798 -8.68534e-07 3.53668e-14)
(0.000235927 1.51424e-05 2.14459e-14)
(0.000135323 3.10208e-05 9.56088e-15)
(0.000100646 1.94141e-05 4.9963e-15)
(-0.000156156 -0.000221134 -2.44691e-10)
(0.000461007 -0.000256621 -1.02897e-10)
(-0.000332683 6.69706e-05 -1.85343e-10)
(0.000793562 -0.000252015 -9.88046e-11)
(-0.000428293 0.000481604 -8.71124e-11)
(0.000934164 -0.000270874 -5.19765e-11)
(-0.000424699 0.000849439 -4.46326e-11)
(0.000727338 -0.000292888 -3.69329e-11)
(-0.000321891 0.00105664 -2.56699e-11)
(0.000247707 -0.000172085 -2.53556e-11)
(-0.000168103 0.000995124 -1.52531e-11)
(-0.000199932 4.80232e-05 -1.50668e-11)
(-0.000196234 0.000896906 -9.54962e-12)
(-0.00058636 0.000154346 -8.41878e-12)
(-0.000420901 0.000707069 -5.66768e-12)
(-0.000934726 9.1745e-05 -4.0684e-12)
(-0.000346299 0.000286011 -2.76299e-12)
(-0.000906672 0.000239492 -1.63346e-12)
(-0.00039235 5.02127e-05 -1.09058e-12)
(-0.000499509 0.000535669 -5.29473e-13)
(-0.0010308 0.000797707 -3.70077e-13)
(-0.00159774 0.000302707 -1.60631e-14)
(-0.00123572 -0.000473988 5.81895e-14)
(-0.000307666 -0.000599656 1.53494e-13)
(6.65665e-05 -0.000358799 9.37341e-14)
(0.000358438 -0.000151947 7.2605e-14)
(0.000251899 1.31517e-06 3.54567e-14)
(0.000237228 1.78505e-05 2.13302e-14)
(0.000135467 3.47009e-05 9.49106e-15)
(0.000100134 2.16464e-05 4.94761e-15)
(-0.000203022 -0.000834487 -2.86992e-10)
(0.000641535 -0.000871856 -6.11856e-11)
(-0.000444673 -0.000483277 -2.01584e-10)
(0.000951914 -0.000841258 -3.54747e-10)
(-0.000483276 3.32333e-05 -1.40975e-10)
(0.000992357 -0.000843535 -6.51034e-11)
(-0.000445079 0.000626144 -4.90051e-11)
(0.000663748 -0.000799414 -4.06869e-11)
(-0.000337476 0.00104278 -2.81697e-11)
(0.000155922 -0.000571253 -2.76442e-11)
(-0.000227943 0.00108314 -1.67063e-11)
(-0.000221601 -0.000145101 -1.59109e-11)
(-0.000339317 0.00101163 -1.02748e-11)
(-0.000616374 0.000187346 -8.80944e-12)
(-0.00045832 0.000841262 -6.01588e-12)
(-0.000995315 0.000142871 -4.1987e-12)
(-0.00032402 0.000346601 -2.87116e-12)
(-0.000933195 0.000287846 -1.65505e-12)
(-0.000358213 5.28351e-05 -1.10787e-12)
(-0.000421979 0.000597185 -5.35724e-13)
(-0.00105133 0.000920752 -3.82076e-13)
(-0.00169824 0.000347388 -1.47253e-14)
(-0.00129941 -0.000542052 6.46938e-14)
(-0.000299867 -0.000677901 1.60204e-13)
(9.24203e-05 -0.000397128 9.67953e-14)
(0.000376948 -0.000164196 7.33087e-14)
(0.000259675 4.14155e-06 3.55436e-14)
(0.000238577 2.08418e-05 2.11986e-14)
(0.000135591 3.84478e-05 9.41305e-15)
(9.9548e-05 2.38978e-05 4.89299e-15)
(-0.000166246 -0.000586744 -1.67153e-09)
(0.000900714 -0.000651061 -1.78417e-09)
(-0.000339244 2.12841e-05 -7.74858e-11)
(0.00146453 -0.000651294 -4.50929e-09)
(-0.00039362 0.000729205 -9.09514e-10)
(0.00157047 -0.000591835 -2.11181e-10)
(-0.000422044 0.00135011 -6.11998e-11)
(0.00106849 -0.000476613 -4.27215e-11)
(-0.000265173 0.00155248 -2.98814e-11)
(0.000333611 -0.000223802 -2.97374e-11)
(-3.62348e-05 0.00127918 -1.73992e-11)
(-0.000190256 9.92899e-05 -1.67728e-11)
(-0.000110696 0.00110679 -1.08553e-11)
(-0.000623872 0.000227561 -9.23456e-12)
(-0.000449216 0.00087499 -6.40011e-12)
(-0.00106171 7.80682e-05 -4.33989e-12)
(-0.000313513 0.000291404 -2.99038e-12)
(-0.000970417 0.000265217 -1.68124e-12)
(-0.00032953 -2.79746e-05 -1.12582e-12)
(-0.00034195 0.000661424 -5.43337e-13)
(-0.00107333 0.00105935 -3.95891e-13)
(-0.00181364 0.000397596 -1.34974e-14)
(-0.00137164 -0.000616886 7.20474e-14)
(-0.000290125 -0.000762187 1.67688e-13)
(0.000122006 -0.000436439 1.00167e-13)
(0.000397499 -0.000175664 7.40537e-14)
(0.000268108 7.69365e-06 3.56243e-14)
(0.00023995 2.41435e-05 2.10499e-14)
(0.000135682 4.22656e-05 9.32658e-15)
(9.88873e-05 2.61691e-05 4.83254e-15)
(-0.000218055 -0.00198155 -7.11864e-08)
(0.00147546 -0.00193897 -1.06058e-07)
(-0.000461632 -0.0010453 -3.27701e-09)
(0.00194183 -0.00173429 -6.30489e-08)
(-0.000448418 -2.11308e-05 -1.08995e-08)
(0.00167076 -0.00151231 -2.02817e-09)
(-0.000446412 0.000969312 -1.69296e-10)
(0.000891423 -0.00129712 -4.81125e-11)
(-0.000282002 0.00141467 -3.35165e-11)
(9.23161e-05 -0.000838648 -3.31966e-11)
(-0.000158884 0.00130296 -1.96609e-11)
(-0.000253297 -0.000143169 -1.77926e-11)
(-0.000334505 0.00125054 -1.18504e-11)
(-0.000672631 0.000292899 -9.73123e-12)
(-0.00051903 0.00108623 -6.85025e-12)
(-0.00114551 0.000165037 -4.50207e-12)
(-0.000280586 0.000391335 -3.11631e-12)
(-0.0010024 0.000349804 -1.70202e-12)
(-0.000277671 -3.7176e-05 -1.14194e-12)
(-0.000224769 0.000729644 -5.51003e-13)
(-0.00109654 0.00121664 -4.11821e-13)
(-0.00194566 0.000455249 -1.2474e-14)
(-0.0014532 -0.000699555 8.03217e-14)
(-0.00027807 -0.000853346 1.75992e-13)
(0.000155716 -0.000476782 1.03856e-13)
(0.00042018 -0.000186204 7.48331e-14)
(0.000277175 1.2059e-05 3.56948e-14)
(0.00024132 2.77829e-05 2.08829e-14)
(0.000135731 4.61578e-05 9.23139e-15)
(9.81512e-05 2.84613e-05 4.76643e-15)
(3.66094e-05 -0.00225536 -2.2744e-06)
(0.00218828 -0.00209302 -3.2362e-06)
(-0.00014382 -0.000217944 -3.27411e-07)
(0.00275333 -0.00162774 -7.95622e-07)
(-0.000318873 0.00128214 -1.15819e-07)
(0.00248026 -0.00109906 -1.95462e-08)
(-0.000369213 0.00225904 -1.06457e-09)
(0.00147447 -0.000722167 -2.40562e-11)
(-0.000104934 0.002277 -3.23166e-11)
(0.000355332 -0.000246459 -3.58063e-11)
(0.000187721 0.0015805 -2.02743e-11)
(-0.000163907 0.000178249 -1.86334e-11)
(4.62962e-06 0.0013152 -1.2484e-11)
(-0.00065387 0.000326232 -1.02321e-11)
(-0.000504136 0.00106887 -7.32922e-12)
(-0.00124082 4.144e-05 -4.67339e-12)
(-0.000270447 0.000263552 -3.25529e-12)
(-0.0010636 0.000281237 -1.73648e-12)
(-0.000252042 -0.000166347 -1.16039e-12)
(-0.000114704 0.000800252 -5.61537e-13)
(-0.00112077 0.00139471 -4.30217e-13)
(-0.00209654 0.000518234 -1.17826e-14)
(-0.00154519 -0.000791262 8.95948e-14)
(-0.000263264 -0.000952297 1.85162e-13)
(0.000193994 -0.000518192 1.07867e-13)
(0.000445083 -0.000195649 7.56391e-14)
(0.000286849 1.73302e-05 3.57513e-14)
(0.000242654 3.17866e-05 2.06965e-14)
(0.000135726 5.01267e-05 9.12718e-15)
(9.73394e-05 3.0775e-05 4.69485e-15)
(0.000452939 -0.00626008 -4.83777e-05)
(0.00448563 -0.00500634 -5.9769e-05)
(-0.000204053 -0.00199342 -9.62486e-06)
(0.00385565 -0.00341716 -9.3314e-06)
(-0.000202596 0.000156709 -1.0297e-06)
(0.0026912 -0.0026072 -1.76142e-07)
(-0.000310747 0.00159555 -5.92107e-09)
(0.00107768 -0.00205528 3.05053e-10)
(-0.000163954 0.00192824 -6.83768e-12)
(-0.000172245 -0.00119935 -4.03591e-11)
(-7.88898e-05 0.00143667 -2.3764e-11)
(-0.000311587 -9.83348e-05 -1.9826e-11)
(-0.000329831 0.00150724 -1.38377e-11)
(-0.000728395 0.000455919 -1.08749e-11)
(-0.000621334 0.00139969 -7.90667e-12)
(-0.0013535 0.000171231 -4.87018e-12)
(-0.000223543 0.000421122 -3.39625e-12)
(-0.00109562 0.000417424 -1.75021e-12)
(-0.000172027 -0.000190359 -1.17182e-12)
(5.80014e-05 0.00087675 -5.70972e-13)
(-0.00114586 0.00159844 -4.51541e-13)
(-0.00226847 0.000595341 -1.15701e-14)
(-0.00164825 -0.000893401 9.99684e-14)
(-0.000245199 -0.00106006 1.95253e-13)
(0.000237347 -0.000560685 1.12206e-13)
(0.000472307 -0.000203818 7.64623e-14)
(0.000297097 2.36059e-05 3.57891e-14)
(0.000243919 3.61806e-05 2.04892e-14)
(0.000135654 5.41737e-05 9.01368e-15)
(9.64506e-05 3.31092e-05 4.61793e-15)
(0.00210648 -0.0110605 -0.000616671)
(0.00869246 -0.00706577 -0.000656984)
(0.00131606 0.00028951 -0.00014507)
(0.00554574 -0.00368862 -8.65626e-05)
(0.000235128 0.00261323 -9.6915e-06)
(0.00402816 -0.00186611 -1.88575e-06)
(-4.62075e-05 0.00385506 -5.28245e-08)
(0.00181073 -0.000961183 4.40008e-10)
(0.000190263 0.00334014 1.41396e-10)
(0.000180303 -0.000184806 -4.15234e-11)
(0.000549373 0.00184015 -2.38524e-11)
(-7.75407e-05 0.000326023 -2.03599e-11)
(0.000157681 0.00151698 -1.44017e-11)
(-0.000657886 0.000456858 -1.14487e-11)
(-0.000606619 0.00131161 -8.49455e-12)
(-0.00149349 -2.66576e-05 -5.08245e-12)
(-0.000211284 0.000190606 -3.55656e-12)
(-0.00119682 0.00028966 -1.80036e-12)
(-0.000158309 -0.000398985 -1.19235e-12)
(0.000208992 0.000954486 -5.86086e-13)
(-0.00117076 0.0018286 -4.76263e-13)
(-0.00246466 0.000673359 -1.20393e-14)
(-0.00176479 -0.0010075 1.115e-13)
(-0.000223273 -0.00117772 2.06326e-13)
(0.000286348 -0.000604306 1.1688e-13)
(0.000501955 -0.000210493 7.72924e-14)
(0.000307875 3.09922e-05 3.58033e-14)
(0.000245076 4.09904e-05 2.02598e-14)
(0.000135501 5.82988e-05 8.89059e-15)
(9.54821e-05 3.54625e-05 4.53571e-15)
(-0.000184747 -0.0298639 -0.00417469)
(0.0141286 -0.0173283 -0.00421266)
(0.00204121 -0.000782966 -0.0011231)
(0.00783008 -0.0062273 -0.000469671)
(0.0010997 0.00107398 -8.97589e-05)
(0.0043057 -0.00428547 -1.77504e-05)
(7.82576e-05 0.00292132 -1.01053e-06)
(0.000866516 -0.00301454 -4.40397e-08)
(-1.79139e-05 0.00262029 7.04599e-11)
(-0.000851895 -0.00163547 -3.97426e-11)
(-1.31349e-05 0.0013723 -4.26428e-11)
(-0.000382824 -3.14578e-05 -2.32602e-11)
(-0.00033882 0.00178114 -1.62797e-11)
(-0.000764998 0.000715613 -1.23081e-11)
(-0.000782653 0.00181818 -9.22765e-12)
(-0.00164269 0.000143875 -5.3093e-12)
(-0.000146774 0.000427069 -3.70746e-12)
(-0.00122348 0.000492317 -1.79706e-12)
(-3.69064e-05 -0.000434617 -1.19392e-12)
(0.000461033 0.00104197 -5.97982e-13)
(-0.00119677 0.002096 -5.05173e-13)
(-0.00268768 0.000778348 -1.34048e-14)
(-0.0018939 -0.0011355 1.24377e-13)
(-0.000196796 -0.00130644 2.18447e-13)
(0.000341644 -0.000649155 1.21895e-13)
(0.000534138 -0.000215426 7.81168e-14)
(0.000319133 3.96014e-05 3.5788e-14)
(0.000246081 4.62398e-05 2.00067e-14)
(0.000135253 6.25011e-05 8.75763e-15)
(9.443e-05 3.78328e-05 4.4481e-15)
(-0.00486011 -0.0337501 -0.0146873)
(0.00439116 -0.0282428 -0.0151089)
(-0.00229572 0.00415075 -0.00227473)
(0.0109532 -0.00752915 -0.00087538)
(0.00265105 0.00566323 -0.000197871)
(0.00605119 -0.00256318 -9.68035e-05)
(0.000617129 0.00682057 -5.63112e-06)
(0.0014939 -0.0009487 -5.069e-07)
(0.000647408 0.00476469 2.51927e-08)
(-0.000360715 4.76691e-05 9.25355e-10)
(0.00110749 0.00187487 -5.66226e-10)
(0.000161499 0.000544978 -5.24546e-11)
(0.000377127 0.00171389 -1.71026e-11)
(-0.00060359 0.00062127 -1.29399e-11)
(-0.000792148 0.00164117 -9.98907e-12)
(-0.00185075 -0.000135594 -5.58107e-12)
(-0.000126028 5.67558e-05 -3.89881e-12)
(-0.00138459 0.0002953 -1.87608e-12)
(-4.69095e-05 -0.000757134 -1.22114e-12)
(0.000666013 0.00111816 -6.20982e-13)
(-0.00122008 0.00239173 -5.38951e-13)
(-0.00294263 0.000875451 -1.60323e-14)
(-0.00204154 -0.00127904 1.38556e-13)
(-0.000164947 -0.00144746 2.31689e-13)
(0.000403958 -0.000695147 1.27255e-13)
(0.000568977 -0.000218309 7.89212e-14)
(0.000330805 4.95574e-05 3.57366e-14)
(0.000246888 5.19514e-05 1.97285e-14)
(0.000134894 6.67782e-05 8.61453e-15)
(9.32888e-05 4.02176e-05 4.35492e-15)
(-0.00619838 -0.0229679 -0.0284362)
(0.00448972 -0.025951 -0.0287766)
(-0.0109451 -0.00706021 -0.00214868)
(0.0139509 -0.0178738 -0.000641149)
(0.00458657 0.00394631 -0.000307405)
(0.00588509 -0.00568875 -0.000527729)
(0.000402656 0.00564866 1.43423e-06)
(-0.000919403 -0.00391148 -2.38161e-06)
(3.39909e-05 0.00329595 2.54412e-09)
(-0.002157 -0.00211025 1.96949e-08)
(1.08917e-05 0.000871626 -1.13604e-08)
(-0.0004132 7.0617e-05 -4.56602e-10)
(-0.000376801 0.00209853 -2.88781e-11)
(-0.000745277 0.00111971 -1.37361e-11)
(-0.001022 0.00240149 -1.12828e-11)
(-0.00204748 5.57113e-05 -5.77025e-12)
(-4.14877e-05 0.000386315 -4.06174e-12)
(-0.00140018 0.000583203 -1.84367e-12)
(0.000128847 -0.000793581 -1.20691e-12)
(0.00102964 0.00122307 -6.36772e-13)
(-0.00124438 0.00274974 -5.78771e-13)
(-0.00323111 0.0010184 -2.01151e-14)
(-0.00220246 -0.00144168 1.54418e-13)
(-0.000126839 -0.00160294 2.46125e-13)
(0.000474106 -0.000742511 1.32965e-13)
(0.000606588 -0.00021894 7.96895e-14)
(0.000342814 6.09771e-05 3.56421e-14)
(0.000247444 5.81435e-05 1.94236e-14)
(0.000134408 7.11255e-05 8.461e-15)
(9.20536e-05 4.26144e-05 4.25604e-15)
(-0.000804123 -0.0182448 -0.0198796)
(0.0107376 -0.0265129 -0.0258568)
(-0.0124248 0.00151621 -0.00411029)
(0.0162662 -0.0294765 0.00569208)
(0.00597814 0.0112763 -0.00099896)
(0.00734756 -0.0016033 -0.00154533)
(0.000582263 0.012253 -0.000330448)
(-0.00113006 -0.000309319 2.75875e-05)
(0.00095982 0.00602906 -2.08867e-06)
(-0.00160173 0.000517317 3.30087e-07)
(0.00174714 0.00133572 -1.63871e-07)
(0.000726265 0.000829844 -5.79507e-09)
(0.000745217 0.00192521 -1.28923e-10)
(-0.000432569 0.00082763 -1.11621e-11)
(-0.00111719 0.00212082 -1.70402e-11)
(-0.00236122 -0.000324742 -5.55043e-12)
(2.65012e-06 -0.000153413 -4.43909e-12)
(-0.00164206 0.000319045 -1.96923e-12)
(7.91087e-05 -0.00129497 -1.2513e-12)
(0.00130358 0.00127946 -6.74595e-13)
(-0.00126366 0.0031231 -6.26247e-13)
(-0.00356363 0.00114223 -2.6515e-14)
(-0.0023899 -0.0016235 1.7173e-13)
(-8.12628e-05 -0.00177334 2.61852e-13)
(0.000553066 -0.000789637 1.39033e-13)
(0.000647129 -0.000216213 8.04047e-14)
(0.00035508 7.40517e-05 3.5497e-14)
(0.000247691 6.48434e-05 1.90905e-14)
(0.000133778 7.55386e-05 8.29677e-15)
(9.07218e-05 4.50212e-05 4.15149e-15)
(-0.00496287 -0.0402989 -0.0264982)
(0.00301352 -0.0235183 -0.0106412)
(-0.0172834 -0.00668389 0.0127803)
(0.0100727 -0.0456473 0.0171138)
(0.00196381 0.00920329 -0.00388451)
(-0.00209034 -0.00532343 -0.00124848)
(0.00340714 0.0110428 -0.000483772)
(-0.0048615 -0.00441524 0.000170646)
(0.000160505 0.00311498 -7.10141e-06)
(-0.00432967 -0.00260699 2.33348e-06)
(-0.000107905 -0.000489605 -2.03064e-06)
(-0.000127364 0.000126847 -5.81932e-08)
(-0.000407763 0.00247461 -7.85358e-10)
(-0.000608588 0.00176086 3.02506e-11)
(-0.00137741 0.00324589 -7.20845e-11)
(-0.00261715 -0.000111091 4.50613e-13)
(0.000113461 0.000239182 -6.01884e-12)
(-0.00165007 0.000707849 -1.88153e-12)
(0.000316659 -0.00131274 -1.22651e-12)
(0.00182439 0.00141241 -6.96894e-13)
(-0.00128028 0.00361676 -6.81759e-13)
(-0.00393551 0.00133381 -3.50801e-14)
(-0.00259034 -0.00182699 1.91084e-13)
(-2.7174e-05 -0.0019623 2.78918e-13)
(0.00064181 -0.000840209 1.45449e-13)
(0.000690576 -0.000212439 8.10418e-14)
(0.000367431 8.87e-05 3.5292e-14)
(0.000247561 7.20028e-05 1.87273e-14)
(0.000132985 7.99941e-05 8.12159e-15)
(8.92928e-05 4.74247e-05 4.04148e-15)
(0.00169361 -0.00433256 -0.00679346)
(-0.00330396 -0.013375 0.00355331)
(-0.00881981 0.00802546 0.0357008)
(0.00880923 -0.0523568 0.021098)
(-0.00503891 0.0208153 0.00126915)
(-0.00645308 -0.00189301 -0.000908058)
(-0.000623718 0.0142388 -1.35691e-05)
(-0.00702322 0.00283352 -0.00161874)
(0.00208587 0.00641029 0.000392176)
(-0.00315155 0.00145818 3.37293e-05)
(0.00262951 -0.000388233 -1.86212e-05)
(0.00196654 0.00109963 -6.06746e-07)
(0.00141757 0.00232526 -1.93599e-08)
(-3.99019e-05 0.00107945 9.64484e-10)
(-0.00167432 0.00285868 -6.06271e-10)
(-0.00310514 -0.000634864 5.6132e-11)
(0.000195927 -0.000437954 -2.01982e-11)
(-0.00198409 0.000366845 -2.12157e-12)
(0.000207465 -0.00208163 -1.4048e-12)
(0.00218539 0.00141606 -7.63993e-13)
(-0.0012935 0.00409096 -7.51176e-13)
(-0.00437207 0.00149955 -4.79151e-14)
(-0.00282861 -0.00208745 2.12168e-13)
(3.65485e-05 -0.00218079 2.97502e-13)
(0.00074148 -0.000887373 1.52244e-13)
(0.000737446 -0.00020036 8.15967e-14)
(0.000379988 0.000105954 3.50224e-14)
(0.000247001 7.99121e-05 1.83325e-14)
(0.000132016 8.46454e-05 7.93521e-15)
(8.77668e-05 4.99258e-05 3.92616e-15)
(0.0204293 -0.0428238 -0.0130067)
(-0.0018425 -0.00845173 0.00485918)
(-0.00556988 -0.0139518 0.0350132)
(-0.00735694 -0.0532435 0.0212685)
(0.00318628 0.0255993 -0.00212521)
(-0.0120875 -0.0081808 -0.000988961)
(1.32546e-05 0.0120929 0.00216812)
(-0.00937045 -0.00550111 0.00155193)
(-0.00178495 0.000611076 -0.000840019)
(-0.00700792 -0.00278716 0.000249412)
(8.4534e-05 -0.00319405 -0.000122057)
(0.000932009 1.22489e-05 -2.44291e-06)
(-0.000596562 0.00302122 -2.9098e-07)
(-0.000321255 0.00280856 1.48981e-08)
(-0.00191636 0.00450595 -5.16361e-09)
(-0.00341477 -0.000429988 4.92977e-10)
(0.000340779 -3.33157e-05 -1.37619e-10)
(-0.00201743 0.000875419 -4.99899e-12)
(0.000505524 -0.00204328 -2.38772e-12)
(0.00292731 0.00159927 -8.17569e-13)
(-0.00129084 0.00477136 -8.33357e-13)
(-0.004856 0.00174375 -6.38153e-14)
(-0.00308103 -0.002282 2.35634e-13)
(0.000115878 -0.00236845 3.17571e-13)
(0.000855003 -0.000930592 1.59349e-13)
(0.000787137 -0.000191507 8.19961e-14)
(0.000391967 0.000122667 3.46665e-14)
(0.000245874 8.73572e-05 1.79038e-14)
(0.000130837 8.86174e-05 7.73731e-15)
(8.61391e-05 5.19777e-05 3.8059e-15)
(-0.0465335 -0.0679828 -0.0216062)
(0.0100957 0.0232103 0.0108776)
(-0.0287749 0.0204625 0.0416454)
(-0.0143496 -0.05511 0.02483)
(0.00047238 0.0244249 -0.00072725)
(-0.00809167 0.00434075 7.07918e-05)
(0.00139841 0.0134178 -0.003724)
(-0.00216418 0.00568985 -0.00126859)
(0.00460685 0.00617215 0.00234038)
(-0.00620259 0.00179511 0.000162905)
(0.00405052 -0.00380474 -0.000506459)
(0.00429459 0.00143021 -3.04382e-05)
(0.00276602 0.00313016 1.26258e-06)
(0.000769548 0.00135876 -9.21133e-08)
(-0.00262421 0.00403226 -3.84682e-08)
(-0.00417087 -0.0011158 3.56463e-09)
(0.000485089 -0.000877612 -9.87313e-10)
(-0.00243364 0.000465562 -5.26333e-11)
(0.000313744 -0.00321212 -1.24074e-11)
(0.0033946 0.00147108 -1.23071e-12)
(-0.00129864 0.00539098 -9.7703e-13)
(-0.00542285 0.00197882 -8.91945e-14)
(-0.00337721 -0.00272883 2.60893e-13)
(0.000197214 -0.00272901 3.39212e-13)
(0.000975624 -0.0010039 1.66814e-13)
(0.000839817 -0.000170528 8.23061e-14)
(0.000404401 0.000148387 3.42442e-14)
(0.000244308 9.79937e-05 1.7444e-14)
(0.000129484 9.47008e-05 7.5293e-15)
(8.44391e-05 5.53069e-05 3.68118e-15)
(0.0560327 0.0902462 0.0122096)
(0.0635253 -0.0309553 -0.010452)
(-0.0195141 0.0260903 0.0303103)