/*--------------------------------*- C++ -*----------------------------------*\
| =========                 |                                                 |
| \\      /  F ield         | OpenFOAM: The Open Source CFD Toolbox           |
|  \\    /   O peration     | Version:  2.4.0                                 |
|   \\  /    A nd           | Web:      www.OpenFOAM.org                      |
|    \\/     M anipulation  |                                                 |
\*---------------------------------------------------------------------------*/
FoamFile
{
    version     2.0;
    format      ascii;
    class       volScalarField;
    location    "0.068";
    object      alpha.water;
}
// * * * * * * * * * * * * * * * * * * * * * * * * * * * * * * * * * * * * * //

dimensions      [0 0 0 0 0 0 0];

internalField   nonuniform List<scalar> 
10000
(
3.58279e-101
1.02173e-97
1.12442e-93
7.51026e-90
3.06406e-86
8.66632e-83
1.83081e-79
3.01862e-76
4.01991e-73
4.9416e-70
4.94403e-67
4.16549e-64
2.92546e-61
1.69268e-58
8.06666e-56
3.00581e-53
8.63189e-51
1.90711e-48
3.17141e-46
3.85467e-44
3.40566e-42
2.13854e-40
9.51073e-39
2.93299e-37
6.17236e-36
8.6647e-35
7.9097e-34
4.57665e-33
1.64083e-32
3.56167e-32
4.55185e-32
3.34341e-32
1.35293e-32
2.80952e-33
2.66058e-34
9.8168e-36
1.64019e-37
2.58006e-39
4.79608e-41
8.35367e-43
1.26999e-44
1.65043e-46
1.81182e-48
1.65798e-50
1.24006e-52
7.33832e-55
3.30165e-57
1.03484e-59
2.24207e-62
3.6076e-65
3.75563e-96
1.03435e-91
8.53475e-88
3.41598e-84
8.40944e-81
1.44806e-77
1.8867e-74
1.95994e-71
1.6873e-68
1.25049e-65
8.33996e-63
4.90722e-60
2.51726e-57
1.10505e-54
4.00442e-52
1.22272e-49
2.99569e-47
5.76182e-45
8.41463e-43
9.0538e-41
7.13086e-39
4.01833e-37
1.61424e-35
4.54521e-34
8.84302e-33
1.16455e-31
1.01323e-30
5.68744e-30
2.01828e-29
4.43067e-29
5.88706e-29
4.67156e-29
2.1539e-29
5.50732e-30
7.29556e-31
4.61177e-32
1.97703e-33
9.89347e-35
4.83301e-36
2.12957e-37
8.27106e-39
2.80645e-40
8.2551e-42
2.07998e-43
4.39313e-45
7.46754e-47
9.41459e-49
7.49591e-51
3.5992e-53
1.34197e-55
2.8746e-92
6.4085e-88
4.23859e-84
1.40535e-80
2.924e-77
4.31861e-74
4.88931e-71
4.47008e-68
3.42943e-65
2.28589e-62
1.37106e-59
7.269e-57
3.35221e-54
1.29547e-51
4.21696e-49
1.17526e-46
2.63529e-44
4.51376e-42
5.85592e-40
5.54888e-38
3.86071e-36
1.94677e-34
7.08438e-33
1.83039e-31
3.31122e-30
4.11347e-29
3.42852e-28
1.8753e-27
6.61273e-27
1.47107e-26
2.03085e-26
1.73195e-26
8.97276e-27
2.73427e-27
4.68925e-28
4.29972e-29
3.04119e-30
2.388e-31
1.78853e-32
1.21292e-33
7.32941e-35
3.91944e-36
1.84218e-37
7.52288e-39
2.61341e-40
7.43228e-42
1.6104e-43
2.27299e-45
1.61014e-47
8.46128e-50
2.70827e-89
5.56654e-85
3.44803e-81
1.08568e-77
2.16908e-74
3.10318e-71
3.42535e-68
3.06623e-65
2.30806e-62
1.51177e-59
8.80092e-57
4.45019e-54
1.90657e-51
6.83902e-49
2.14826e-46
5.51294e-44
1.10422e-41
1.66014e-39
1.85572e-37
1.53634e-35
9.45927e-34
4.27615e-32
1.41227e-30
3.35466e-29
5.65289e-28
6.63539e-27
5.30585e-26
2.83158e-25
9.93368e-25
2.23831e-24
3.20208e-24
2.91639e-24
1.67638e-24
5.94201e-25
1.25758e-25
1.53172e-26
1.49817e-27
1.56173e-28
1.54211e-29
1.38648e-30
1.12081e-31
8.09915e-33
5.19753e-34
2.92821e-35
1.4185e-36
5.69768e-38
1.77965e-39
3.8044e-41
4.03217e-43
2.4259e-45
1.18297e-86
2.41857e-82
1.49327e-78
4.6965e-75
9.3822e-72
1.34091e-68
1.47397e-65
1.30721e-62
9.69322e-60
6.25054e-57
3.53527e-54
1.71086e-51
6.85795e-49
2.3793e-46
6.91585e-44
1.58186e-41
2.7212e-39
3.486e-37
3.36048e-35
2.43148e-33
1.32499e-31
5.37126e-30
1.61052e-28
3.5185e-27
5.52462e-26
6.12874e-25
4.7023e-24
2.44855e-23
8.54823e-23
1.94786e-22
2.87782e-22
2.78156e-22
1.75476e-22
7.10363e-23
1.79798e-23
2.76375e-24
3.42383e-25
4.40238e-26
5.34636e-27
5.94337e-28
5.98564e-29
5.43177e-30
4.41187e-31
3.16983e-32
1.97333e-33
1.02806e-34
4.2271e-36
1.23016e-37
1.9185e-39
1.27741e-41
4.39746e-84
9.02774e-80
5.57179e-76
1.74593e-72
3.46242e-69
4.8896e-66
5.28006e-63
4.57017e-60
3.2885e-57
2.06207e-54
1.11418e-51
5.01128e-49
1.86023e-46
5.99889e-44
1.53843e-41
3.00503e-39
4.35937e-37
4.76451e-35
3.96066e-33
2.50285e-31
1.20589e-29
4.37954e-28
1.19123e-26
2.39205e-25
3.49751e-24
3.66429e-23
2.69559e-22
1.36849e-21
4.75332e-21
1.09276e-20
1.66086e-20
1.69306e-20
1.16104e-20
5.29132e-21
1.56702e-21
2.93891e-22
4.38703e-23
6.68354e-24
9.61425e-25
1.27217e-25
1.53421e-26
1.6772e-27
1.65046e-28
1.44438e-29
1.10112e-30
7.07064e-32
3.62096e-33
1.3424e-34
2.87304e-36
2.26874e-38
1.81297e-81
3.66355e-77
2.20959e-73
6.73154e-70
1.291e-66
1.75239e-63
1.80646e-60
1.48211e-57
1.00525e-54
5.96466e-52
2.97528e-49
1.20304e-46
4.03868e-44
1.12309e-41
2.46105e-39
4.02291e-37
4.93305e-35
4.60363e-33
3.29871e-31
1.81816e-29
7.73096e-28
2.51044e-26
6.18331e-25
1.13947e-23
1.54917e-22
1.53053e-21
1.07792e-20
5.32784e-20
1.84039e-19
4.25551e-19
6.62511e-19
7.07924e-19
5.23167e-19
2.6525e-19
9.04396e-20
2.02185e-20
3.5297e-21
6.22411e-22
1.03738e-22
1.59695e-23
2.25053e-24
2.88717e-25
3.34709e-26
3.46313e-27
3.13252e-28
2.39721e-29
1.47369e-30
6.66018e-32
1.82433e-33
1.77092e-35
9.20397e-79
1.77529e-74
1.01425e-70
2.9122e-67
5.2346e-64
6.61408e-61
6.29483e-58
4.72521e-55
2.9123e-52
1.56479e-49
6.89472e-47
2.40032e-44
6.85132e-42
1.59807e-39
2.92809e-37
4.01758e-35
4.17245e-33
3.3271e-31
2.05397e-29
9.858e-28
3.69039e-26
1.06847e-24
2.37675e-23
4.00982e-22
5.05779e-21
4.70171e-20
3.1634e-19
1.5193e-18
5.21722e-18
1.20886e-17
1.91869e-17
2.13592e-17
1.6873e-17
9.41948e-18
3.65098e-18
9.57389e-19
1.91794e-19
3.85685e-20
7.3437e-21
1.29583e-21
2.10002e-22
3.10707e-23
4.16487e-24
4.99398e-25
5.24667e-26
4.67681e-27
3.36541e-28
1.79913e-29
6.01655e-31
7.09817e-33
5.78279e-76
1.03119e-71
5.40106e-68
1.41348e-64
2.30085e-61
2.61324e-58
2.2168e-55
1.46983e-52
7.94683e-50
3.71407e-47
1.39641e-44
4.05402e-42
9.38657e-40
1.78723e-37
2.70396e-35
3.11856e-33
2.74705e-31
1.87264e-29
9.95626e-28
4.15394e-26
1.3654e-24
3.51269e-23
7.03272e-22
1.08272e-20
1.26328e-19
1.10178e-18
7.06248e-18
3.28784e-17
1.12234e-16
2.59431e-16
4.17648e-16
4.81357e-16
4.03304e-16
2.45578e-16
1.0705e-16
3.25355e-17
7.39297e-18
1.67859e-18
3.61776e-19
7.24435e-20
1.33511e-20
2.25054e-21
3.44263e-22
4.71749e-23
5.67176e-24
5.7962e-25
4.79754e-26
2.97101e-27
1.17431e-28
1.71805e-30
4.35575e-73
6.98513e-69
3.25976e-65
7.54682e-62
1.07834e-58
1.06604e-55
7.80141e-53
4.42195e-50
2.02559e-47
7.96958e-45
2.48463e-42
5.88462e-40
1.07937e-37
1.63838e-35
2.01006e-33
1.94208e-31
1.45117e-29
8.45786e-28
3.87141e-26
1.40185e-24
4.03501e-23
9.18937e-22
1.64921e-20
2.3077e-19
2.48138e-18
2.0233e-17
1.23152e-16
5.54125e-16
1.88152e-15
4.31598e-15
7.00815e-15
8.30928e-15
7.32713e-15
4.82275e-15
2.34132e-15
8.16704e-16
2.10137e-16
5.33353e-17
1.29255e-17
2.9147e-18
6.05471e-19
1.15166e-19
1.99027e-20
3.08462e-21
4.19893e-22
4.86512e-23
4.57661e-24
3.23691e-25
1.47981e-26
2.63551e-28
3.70884e-70
5.24994e-66
2.13823e-62
4.28065e-59
5.23779e-56
4.38911e-53
2.69476e-50
1.26865e-47
4.77338e-45
1.53842e-42
3.90021e-40
7.47887e-38
1.10155e-35
1.28645e-33
1.25449e-31
9.97989e-30
6.30143e-28
3.13636e-26
1.23525e-24
3.87622e-23
9.74521e-22
1.95721e-20
3.13475e-19
3.9681e-18
3.91462e-17
2.97175e-16
1.71091e-15
7.41606e-15
2.50897e-14
5.6758e-14
9.23987e-14
1.11957e-13
1.03102e-13
7.2704e-14
3.89395e-14
1.5451e-14
4.50113e-15
1.27206e-15
3.45067e-16
8.70571e-17
2.0229e-17
4.30792e-18
8.34723e-19
1.45254e-19
2.22292e-20
2.89958e-21
3.07668e-22
2.46258e-23
1.28347e-24
2.68558e-26
3.2052e-67
3.95794e-63
1.38883e-59
2.37172e-56
2.45058e-53
1.71643e-50
8.71885e-48
3.36117e-45
1.02362e-42
2.63107e-40
5.3759e-38
8.29942e-36
9.83341e-34
9.15157e-32
6.9012e-30
4.37908e-28
2.30052e-26
9.72945e-25
3.29137e-23
8.93618e-22
1.95778e-20
3.45502e-19
4.91566e-18
5.59992e-17
5.04247e-16
3.54666e-15
1.92279e-14
7.99931e-14
2.70508e-13
5.99014e-13
9.71354e-13
1.19453e-12
1.13987e-12
8.53457e-13
4.99526e-13
2.23489e-13
7.40536e-14
2.32149e-14
7.00286e-15
1.96329e-15
5.07213e-16
1.20296e-16
2.60105e-17
5.05958e-18
8.66775e-19
1.26729e-19
1.50931e-20
1.35831e-21
7.9833e-23
1.9046e-24
2.53793e-64
2.69892e-60
8.05354e-57
1.15898e-53
1.00073e-50
5.81175e-48
2.42987e-45
7.65224e-43
1.88513e-40
3.83731e-38
6.31321e-36
7.90756e-34
7.60703e-32
5.74051e-30
3.47594e-28
1.72142e-26
7.27165e-25
2.57215e-23
7.43115e-22
1.74114e-20
3.31647e-19
5.1263e-18
6.4495e-17
6.57599e-16
5.37369e-15
3.48271e-14
1.769e-13
7.03447e-13
2.39002e-12
5.13415e-12
8.23649e-12
1.02063e-11
1.00126e-11
7.88798e-12
4.99664e-12
2.49765e-12
9.49227e-13
3.2887e-13
1.09441e-13
3.38671e-14
9.68099e-15
2.54824e-15
6.13223e-16
1.3306e-16
2.54716e-17
4.16677e-18
5.55718e-19
5.60226e-20
3.68519e-21
9.76219e-23
1.70918e-61
1.5488e-57
3.88714e-54
4.66406e-51
3.33372e-48
1.59378e-45
5.4624e-43
1.40459e-40
2.80636e-38
4.54464e-36
6.07174e-34
6.25902e-32
4.96906e-30
3.0939e-28
1.53889e-26
6.21739e-25
2.08065e-23
5.94813e-22
1.44329e-20
2.90011e-19
4.78764e-18
6.46293e-17
7.15971e-16
6.49791e-15
4.78893e-14
2.84239e-13
1.34496e-12
5.08851e-12
1.75006e-11
3.60688e-11
5.68485e-11
7.04455e-11
7.04919e-11
5.79071e-11
3.93099e-11
2.17429e-11
9.45769e-12
3.61085e-12
1.32146e-12
4.50807e-13
1.42554e-13
4.16368e-14
1.11426e-14
2.69234e-15
5.74336e-16
1.04728e-16
1.55666e-17
1.74709e-18
1.27462e-19
3.65661e-21
9.26215e-59
7.10627e-55
1.49132e-51
1.48387e-48
8.73888e-46
3.42701e-43
9.61058e-41
2.01915e-38
3.28548e-36
4.26967e-34
4.64693e-32
3.98994e-30
2.65502e-28
1.38945e-26
5.79788e-25
1.95593e-23
5.41751e-22
1.25187e-20
2.46771e-19
4.18135e-18
5.94238e-17
6.98217e-16
6.78435e-15
5.45197e-14
3.60076e-13
1.94409e-12
8.51457e-12
3.04893e-11
1.07208e-10
2.09102e-10
3.21673e-10
3.95358e-10
4.00474e-10
3.40084e-10
2.45015e-10
1.48462e-10
7.32561e-11
3.08591e-11
1.24744e-11
4.71445e-12
1.6544e-12
5.3644e-13
1.59308e-13
4.26879e-14
1.00923e-14
2.03849e-15
3.35443e-16
4.16191e-17
3.33904e-18
1.01467e-19
3.64219e-56
2.36708e-52
4.17109e-49
3.4641e-46
1.69442e-43
5.49966e-41
1.27451e-38
2.21271e-36
2.97463e-34
3.18031e-32
2.80424e-30
2.01643e-28
1.1363e-26
5.06286e-25
1.80367e-23
5.18926e-22
1.21807e-20
2.36361e-19
3.84235e-18
5.32798e-17
6.40714e-16
6.50863e-15
5.52463e-14
3.91229e-13
2.30112e-12
1.12209e-11
4.51605e-11
1.5213e-10
5.53593e-10
1.00427e-09
1.50009e-09
1.81177e-09
1.84423e-09
1.60707e-09
1.21789e-09
8.00398e-10
4.43684e-10
2.06522e-10
9.24568e-11
3.8768e-11
1.50855e-11
5.41493e-12
1.77716e-12
5.25641e-13
1.37097e-13
3.05501e-14
5.54698e-15
7.58731e-16
6.67147e-17
2.1135e-18
1.02794e-53
5.68202e-50
8.47168e-47
5.92784e-44
2.43248e-41
6.59794e-39
1.27436e-36
1.84229e-34
2.06334e-32
1.83596e-30
1.33058e-28
8.03988e-27
3.86965e-25
1.48048e-23
4.54728e-22
1.13081e-20
2.29411e-19
3.82586e-18
5.29386e-17
6.16479e-16
6.12302e-15
5.27798e-14
3.88704e-13
2.41438e-12
1.25745e-11
5.49742e-11
2.01698e-10
6.34564e-10
2.42221e-09
3.99649e-09
5.77988e-09
6.79071e-09
6.89449e-09
6.13688e-09
4.85949e-09
3.43206e-09
2.11508e-09
1.09949e-09
5.41608e-10
2.50948e-10
1.07711e-10
4.25808e-11
1.53797e-11
5.00546e-12
1.43697e-12
3.52665e-13
7.05547e-14
1.06222e-14
1.02051e-15
3.31152e-17
2.10325e-51
9.89021e-48
1.25322e-44
7.44109e-42
2.5851e-39
5.92053e-37
9.63246e-35
1.17163e-32
1.1044e-30
8.27224e-29
5.0197e-27
2.53477e-25
1.04894e-23
3.46871e-22
9.24777e-21
2.00278e-19
3.54578e-18
5.16096e-17
6.2117e-16
6.22682e-15
5.26473e-14
3.80102e-13
2.3779e-12
1.2867e-11
5.90274e-11
2.29742e-10
7.61782e-10
2.21816e-09
9.00105e-09
1.3114e-08
1.83304e-08
2.08656e-08
2.09051e-08
1.89847e-08
1.56819e-08
1.18117e-08
8.00381e-09
4.67492e-09
2.52393e-09
1.28354e-09
6.04261e-10
2.62041e-10
1.03872e-10
3.7119e-11
1.17062e-11
3.15754e-12
6.94308e-13
1.14693e-13
1.1986e-14
3.91044e-16
3.19856e-49
1.27527e-45
1.37352e-42
6.94231e-40
2.05504e-37
4.01027e-35
5.55288e-33
5.73857e-31
4.59178e-29
2.92151e-27
1.50586e-25
6.39513e-24
2.27413e-22
6.53596e-21
1.52017e-19
2.88121e-18
4.47563e-17
5.72571e-16
6.05871e-15
5.32686e-14
3.91605e-13
2.42935e-12
1.2913e-11
5.95076e-11
2.38769e-10
8.2204e-10
2.44145e-09
6.5027e-09
2.83885e-08
3.5157e-08
4.7042e-08
5.37518e-08
5.19984e-08
4.75661e-08
4.14022e-08
3.30214e-08
2.43063e-08
1.59892e-08
9.4053e-09
5.21261e-09
2.68185e-09
1.27331e-09
5.52948e-10
2.16474e-10
7.47835e-11
2.2094e-11
5.31907e-12
9.60031e-13
1.08616e-13
3.50338e-15
3.6411e-47
1.23266e-43
1.13028e-40
4.87305e-38
1.2334e-35
2.06288e-33
2.45181e-31
2.17527e-29
1.49299e-27
8.14173e-26
3.59698e-24
1.30577e-22
3.96478e-21
9.95556e-20
2.02962e-18
3.38077e-17
4.62538e-16
5.22052e-15
4.8795e-14
3.79055e-13
2.45697e-12
1.33601e-11
6.15019e-11
2.43341e-10
8.36455e-10
2.52294e-09
6.65592e-09
1.5967e-08
7.58865e-08
7.68455e-08
9.54685e-08
1.28076e-07
1.1486e-07
9.54078e-08
9.16401e-08
7.61327e-08
5.9843e-08
4.35253e-08
2.81057e-08
1.70721e-08
9.64501e-09
5.01385e-09
2.37597e-09
1.01266e-09
3.80405e-10
1.22167e-10
3.19679e-11
6.26297e-12
7.62852e-13
2.40463e-14
3.09254e-45
8.95766e-42
7.03463e-39
2.59884e-36
5.64699e-34
8.1314e-32
8.34501e-30
6.40554e-28
3.80575e-26
1.79594e-24
6.86507e-23
2.15539e-21
5.617e-20
1.23219e-18
2.21241e-17
3.25243e-16
3.93349e-15
3.92906e-14
3.25258e-13
2.23878e-12
1.28567e-11
6.18541e-11
2.50711e-10
8.64393e-10
2.56996e-09
6.68888e-09
1.54366e-08
3.27757e-08
1.72956e-07
1.43773e-07
1.03155e-07
2.19206e-07
1.65699e-07
1.03821e-07
1.61741e-07
1.46482e-07
1.18945e-07
9.3914e-08
6.75552e-08
4.47721e-08
2.76644e-08
1.56976e-08
8.10154e-09
3.75367e-09
1.53103e-09
5.33557e-10
1.51455e-10
3.21454e-11
4.20963e-12
1.30205e-13
1.90739e-43
4.80159e-40
3.27641e-37
1.04996e-34
1.9775e-32
2.46986e-30
2.203e-28
1.47343e-26
7.64258e-25
3.15009e-23
1.05111e-21
2.88021e-20
6.54597e-19
1.24578e-17
1.97943e-16
2.57942e-15
2.76808e-14
2.45485e-13
1.80458e-12
1.1028e-11
5.62044e-11
2.39822e-10
8.6108e-10
2.61926e-09
6.81703e-09
1.54032e-08
3.07846e-08
5.69087e-08
3.45125e-07
1.57615e-07
3.03856e-06
7.51123e-06
6.89027e-06
2.88196e-06
6.2742e-07
2.12498e-07
1.81612e-07
1.56122e-07
1.26776e-07
9.25457e-08
6.25212e-08
3.87778e-08
2.18569e-08
1.10416e-08
4.90191e-09
1.8568e-09
5.72213e-10
1.31602e-10
1.85452e-11
5.76784e-13
8.40076e-42
1.86932e-38
1.12723e-35
3.18445e-33
5.27405e-31
5.78246e-29
4.52532e-27
2.65784e-25
1.21272e-23
4.40425e-22
1.29544e-20
3.12614e-19
6.2487e-18
1.04106e-16
1.4616e-15
1.69609e-14
1.62161e-13
1.28121e-12
8.38685e-12
4.56029e-11
2.06578e-10
7.82564e-10
2.49167e-09
6.71257e-09
1.5431e-08
3.05976e-08
5.32672e-08
9.10145e-08
6.18456e-07
4.98838e-06
1.05338e-05
1.05339e-05
1.05353e-05
1.0537e-05
2.46222e-06
2.01357e-07
1.89056e-07
1.92575e-07
1.78558e-07
1.4824e-07
1.11449e-07
7.64571e-08
4.73954e-08
2.62174e-08
1.27041e-08
5.24025e-09
1.7553e-09
4.37867e-10
6.6557e-11
2.20014e-12
2.61429e-40
5.22712e-37
2.83265e-34
7.17561e-32
1.06264e-29
1.03879e-27
7.23066e-26
3.77134e-24
1.52754e-22
4.92725e-21
1.2882e-19
2.76359e-18
4.90773e-17
7.25731e-16
8.96916e-15
9.30302e-14
7.95904e-13
5.62326e-12
3.28808e-11
1.59476e-10
6.43346e-10
2.16695e-09
6.12651e-09
1.46439e-08
2.98652e-08
5.25594e-08
8.13984e-08
1.15486e-07
1.27236e-06
1.04213e-05
1.05299e-05
1.0534e-05
1.053e-05
7.74596e-06
1.91624e-06
2.22523e-07
3.35703e-07
2.00229e-07
2.0276e-07
1.8827e-07
1.58545e-07
1.21199e-07
8.32876e-08
5.0809e-08
2.70276e-08
1.21924e-08
4.45287e-09
1.20781e-09
1.98841e-10
7.59497e-12
5.70688e-39
1.04143e-35
5.15358e-33
1.19024e-30
1.60317e-28
1.42124e-26
8.94283e-25
4.20331e-23
1.53026e-21
4.42945e-20
1.03852e-18
1.99735e-17
3.17744e-16
4.20382e-15
4.63909e-14
4.28394e-13
3.29508e-12
2.09042e-11
1.09569e-10
4.75438e-10
1.71254e-09
5.14187e-09
1.29474e-08
2.75787e-08
5.02858e-08
7.9796e-08
1.12914e-07
1.34394e-07
1.4311e-06
1.92021e-06
5.43637e-06
6.64438e-06
2.40271e-06
2.36256e-07
2.36166e-07
2.41179e-07
2.22415e-07
2.22078e-07
2.16598e-07
2.0772e-07
1.89631e-07
1.5991e-07
1.2182e-07
8.22368e-08
4.82264e-08
2.3886e-08
9.5418e-09
2.82185e-09
5.05329e-10
2.45158e-11
8.68367e-38
1.46815e-34
6.73629e-32
1.44111e-29
1.79479e-27
1.46763e-25
8.49206e-24
3.65741e-22
1.21546e-20
3.2001e-19
6.80531e-18
1.18504e-16
1.70477e-15
2.03619e-14
2.02405e-13
1.67486e-12
1.15885e-11
6.63154e-11
3.12844e-10
1.21895e-09
3.93462e-09
1.05735e-08
2.38375e-08
4.5602e-08
7.52946e-08
1.10378e-07
1.5225e-07
2.14405e-07
2.16956e-07
2.24997e-07
2.55654e-07
2.61345e-07
2.42253e-07
2.38454e-07
2.36657e-07
2.27424e-07
2.2329e-07
2.22905e-07
2.22876e-07
2.19155e-07
2.10098e-07
1.89717e-07
1.57262e-07
1.16304e-07
7.48368e-08
4.06178e-08
1.77343e-08
5.7171e-09
1.11529e-09
7.10642e-11
9.1581e-37
1.45626e-33
6.28975e-31
1.26599e-28
1.48156e-26
1.13619e-24
6.14937e-23
2.46894e-21
7.6178e-20
1.85363e-18
3.62617e-17
5.78455e-16
7.59945e-15
8.27107e-14
7.47632e-13
5.61264e-12
3.49231e-11
1.80927e-10
7.71907e-10
2.7135e-09
7.88876e-09
1.90868e-08
3.88154e-08
6.73235e-08
1.01648e-07
1.37284e-07
1.71665e-07
2.09191e-07
2.19346e-07
1.61963e-06
4.92952e-06
4.23085e-06
1.14553e-06
2.37391e-07
2.39629e-07
2.32826e-07
2.26376e-07
2.26012e-07
2.32482e-07
2.32446e-07
2.28323e-07
2.14283e-07
1.87813e-07
1.49448e-07
1.0437e-07
6.16507e-08
2.92745e-08
1.0245e-08
2.17092e-09
1.81492e-10
6.64443e-36
1.00936e-32
4.16839e-30
8.02017e-28
8.96371e-26
6.55468e-24
3.37502e-22
1.28524e-20
3.74669e-19
8.5731e-18
1.56854e-16
2.32657e-15
2.82605e-14
2.83049e-13
2.34616e-12
1.61059e-11
9.14392e-11
4.28269e-10
1.66152e-09
5.30337e-09
1.39864e-08
3.07265e-08
5.69416e-08
9.06128e-08
1.26783e-07
1.60875e-07
1.93918e-07
2.01481e-07
1.97832e-06
8.08877e-06
8.08765e-06
8.08782e-06
3.33741e-06
2.37083e-07
2.40192e-07
2.38897e-07
2.33747e-07
3.08579e-07
2.386e-07
2.43469e-07
2.43564e-07
2.35905e-07
2.1402e-07
1.79114e-07
1.33527e-07
8.49176e-08
4.35059e-08
1.64113e-08
3.75223e-09
3.89842e-10
3.27829e-35
4.8399e-32
1.94347e-29
3.63464e-27
3.94486e-25
2.79712e-23
1.39358e-21
5.12033e-20
1.43499e-18
3.14249e-17
5.47283e-16
7.67825e-15
8.76031e-14
8.18314e-13
6.28658e-12
3.9809e-11
2.07803e-10
8.92911e-10
3.15564e-09
9.22388e-09
2.22881e-08
4.4972e-08
7.69437e-08
1.13984e-07
1.50262e-07
1.83576e-07
2.27015e-07
2.34521e-07
4.84057e-06
8.08542e-06
8.08492e-06
8.07436e-06
1.15244e-06
2.37362e-07
2.45991e-07
2.49273e-07
2.46885e-07
2.47061e-07
2.51596e-07
2.52424e-07
2.57839e-07
2.58671e-07
2.39474e-07
2.00509e-07
1.5515e-07
1.05162e-07
5.78983e-08
2.3428e-08
5.73419e-09
6.95856e-10
1.07907e-34
1.57974e-31
6.28792e-29
1.16454e-26
1.24994e-24
8.74852e-23
4.29222e-21
1.54837e-19
4.24472e-18
9.05245e-17
1.52724e-15
2.06296e-14
2.25019e-13
1.99384e-12
1.44127e-11
8.52513e-11
4.13498e-10
1.64646e-09
5.38512e-09
1.45072e-08
3.25089e-08
6.10216e-08
9.75975e-08
1.36081e-07
1.70355e-07
1.99735e-07
2.372e-07
2.34807e-07
3.22524e-06
8.08343e-06
8.08367e-06
3.60207e-06
2.43906e-07
2.50976e-07
2.49198e-07
2.52676e-07
2.53218e-07
2.56218e-07
2.60426e-07
2.55005e-07
2.55128e-07
2.33355e-07
2.16021e-07
2.08483e-07
1.57945e-07
1.17886e-07
6.9203e-08
2.96989e-08
7.65372e-09
1.02053e-09
2.29411e-34
3.41411e-31
1.3786e-28
2.58449e-26
2.80136e-24
1.97477e-22
9.72835e-21
3.51128e-19
9.59147e-18
2.02858e-16
3.37591e-15
4.47114e-14
4.75002e-13
4.06947e-12
2.82174e-11
1.58789e-10
7.2717e-10
2.7192e-09
8.33733e-09
2.10583e-08
4.41356e-08
7.79159e-08
1.17514e-07
1.55113e-07
1.84677e-07
2.05138e-07
2.19153e-07
2.24149e-07
2.3561e-07
4.01264e-06
7.71726e-06
9.08631e-07
2.44757e-07
2.61053e-07
4.18323e-07
4.44382e-07
2.57532e-07
2.62963e-07
2.6813e-07
2.63743e-07
2.79412e-07
2.6244e-07
2.34324e-07
2.52066e-07
1.41976e-07
1.03824e-07
7.28224e-08
3.29722e-08
8.71407e-09
1.23566e-09
2.99629e-34
4.67809e-31
1.97199e-28
3.84326e-26
4.31387e-24
3.13695e-22
1.58765e-20
5.86126e-19
1.62974e-17
3.49001e-16
5.84672e-15
7.74674e-14
8.17912e-13
6.91624e-12
4.69986e-11
2.57292e-10
1.13747e-09
4.07475e-09
1.18927e-08
2.85079e-08
5.66774e-08
9.46177e-08
1.35461e-07
1.70371e-07
1.9473e-07
2.09589e-07
2.18826e-07
2.26015e-07
2.30824e-07
2.37383e-07
1.40925e-06
2.37129e-06
2.53884e-07
2.68998e-07
7.84585e-07
9.58333e-07
3.36023e-07
2.67133e-07
2.76551e-07
3.40256e-07
4.88056e-07
5.35345e-07
6.04864e-07
2.98552e-06
6.24256e-07
6.62381e-08
7.04039e-08
3.12965e-08
8.10445e-09
1.25644e-09
2.23684e-34
3.81684e-31
1.74055e-28
3.64267e-26
4.36445e-24
3.36966e-22
1.8013e-20
6.98635e-19
2.02932e-17
4.51241e-16
7.79924e-15
1.05894e-13
1.13768e-12
9.71904e-12
6.62434e-11
3.61124e-10
1.57819e-09
5.54505e-09
1.5735e-08
3.63381e-08
6.91386e-08
1.10268e-07
1.50703e-07
1.8218e-07
2.01907e-07
2.12884e-07
2.19666e-07
2.2586e-07
2.29043e-07
2.38697e-07
1.25251e-06
5.38083e-06
2.16718e-06
2.86515e-07
3.07008e-07
9.54183e-07
3.72009e-07
2.8139e-07
3.29977e-07
1.70424e-06
3.34783e-06
4.16977e-06
8.85135e-06
2.93283e-05
1.43513e-06
3.58691e-08
5.26057e-08
2.4791e-08
6.62605e-09
1.12257e-09
8.76817e-35
1.72552e-31
8.88652e-29
2.07326e-26
2.7444e-24
2.32461e-22
1.35501e-20
5.69693e-19
1.78298e-17
4.2444e-16
7.79979e-15
1.11776e-13
1.25775e-12
1.11642e-11
7.84159e-11
4.36819e-10
1.93377e-09
6.82034e-09
1.92402e-08
4.37078e-08
8.09113e-08
1.24528e-07
1.64204e-07
1.92473e-07
2.08788e-07
2.17327e-07
2.22925e-07
2.28806e-07
2.29815e-07
2.41031e-07
2.22727e-06
5.3794e-06
4.42942e-06
2.96776e-07
3.34577e-07
5.43532e-07
4.45729e-07
4.45832e-07
1.32969e-06
2.3838e-05
3.16928e-05
6.31569e-05
3.71824e-05
4.56554e-06
2.01736e-07
1.82193e-08
1.72484e-08
6.33013e-09
1.75391e-09
7.24042e-10
1.70096e-35
4.14717e-32
2.53463e-29
6.85813e-27
1.0387e-24
9.97804e-23
6.55283e-21
3.08621e-19
1.07579e-17
2.83452e-16
5.72521e-15
8.948e-14
1.08881e-12
1.03561e-11
7.71921e-11
4.5168e-10
2.07788e-09
7.53006e-09
2.15717e-08
4.91776e-08
9.03135e-08
1.36453e-07
1.75311e-07
2.00256e-07
2.13082e-07
2.19171e-07
2.23069e-07
2.27275e-07
2.26215e-07
2.32082e-07
2.50687e-07
4.52198e-06
9.86541e-06
3.32076e-07
4.6212e-07
1.63847e-06
1.18456e-05
3.74154e-06
4.65962e-06
0.000438451
0.000388309
0.000552057
0.000265553
3.01986e-08
6.0619e-09
2.76595e-09
1.22725e-09
7.92518e-10
6.85438e-10
6.85438e-10
1.53074e-36
5.15256e-33
3.96262e-30
1.29311e-27
2.31143e-25
2.59043e-23
1.97175e-21
1.07169e-19
4.29466e-18
1.29506e-16
2.97664e-15
5.25588e-14
7.16246e-13
7.55277e-12
6.17104e-11
3.9093e-10
1.92103e-09
7.32992e-09
2.17758e-08
5.06921e-08
9.3695e-08
1.40819e-07
1.78656e-07
2.00962e-07
2.11128e-07
2.15819e-07
2.17139e-07
2.39894e-07
2.22622e-07
2.28058e-07
2.44348e-07
3.73582e-06
1.45128e-05
1.33874e-05
1.48458e-06
7.8804e-06
0.000175415
0.000595277
0.00068293
0.00264934
0.00187738
0.00117346
0.0223827
0.0592882
0.146851
0.303585
0.471871
0.590949
0.659879
0.677537
5.5448e-38
3.21208e-34
3.38898e-31
1.39324e-28
3.01819e-26
4.0249e-24
3.61709e-22
2.31583e-20
1.09324e-18
3.88388e-17
1.05006e-15
2.17174e-14
3.44085e-13
4.17332e-12
3.86763e-11
2.73211e-10
1.46733e-09
5.97953e-09
1.84948e-08
4.36996e-08
8.04318e-08
1.20077e-07
1.54345e-07
1.81043e-07
2.00645e-07
2.1274e-07
2.18088e-07
2.19254e-07
2.21014e-07
2.23481e-07
2.3459e-07
2.81803e-07
1.08098e-05
4.56846e-05
6.0665e-05
0.000107395
0.000682159
0.00173876
0.000834007
0.00116412
0.0453736
0.189956
0.400923
0.70987
0.901708
0.986288
0.999723
0.999822
0.99999
0.999988
1.05985e-39
1.28775e-35
1.92321e-32
9.91147e-30
2.55941e-27
3.96258e-25
4.11014e-23
3.08454e-21
1.73059e-19
7.3533e-18
2.39236e-16
5.97843e-15
1.14479e-13
1.67063e-12
1.84571e-11
1.5333e-10
9.51672e-10
4.38859e-09
1.49913e-08
3.8089e-08
7.33714e-08
1.11873e-07
1.4476e-07
1.72151e-07
1.95724e-07
2.08172e-07
2.51601e-07
2.19322e-07
2.21075e-07
2.22756e-07
2.31346e-07
2.61843e-07
2.27298e-06
5.94748e-05
0.000182986
0.000806583
0.00139247
0.00156056
0.00094635
0.0627953
0.467318
0.727601
0.945134
0.999742
1
1
1
1
1
1
1.97e-41
4.78228e-37
1.00072e-33
6.45529e-31
1.98187e-28
3.55101e-26
4.18457e-24
3.51727e-22
2.19344e-20
1.04025e-18
3.81269e-17
1.09582e-15
2.47657e-14
4.47451e-13
6.16966e-12
6.36476e-11
4.85216e-10
2.70329e-09
1.09251e-08
3.20427e-08
6.90838e-08
1.11867e-07
1.40703e-07
1.59421e-07
2.09082e-07
2.6243e-07
2.1961e-07
2.22191e-07
2.23346e-07
2.25466e-07
2.32697e-07
2.56339e-07
5.03339e-06
9.59142e-05
0.000584385
0.00180768
0.0016692
0.00198609
0.120112
0.64358
0.913285
0.999821
0.999902
0.999994
1
1
1
1
1
1
3.25723e-43
1.56745e-38
4.62279e-35
3.74161e-32
1.36281e-29
2.81395e-27
3.75941e-25
3.53744e-23
2.45927e-21
1.30871e-19
5.43471e-18
1.79394e-16
4.69106e-15
9.67811e-14
1.54062e-12
1.88234e-11
1.75852e-10
1.23733e-09
6.36714e-09
2.32792e-08
6.13718e-08
1.17211e-07
1.38526e-07
1.36927e-07
1.50718e-07
2.2346e-07
2.19741e-07
2.2538e-07
2.294e-07
2.34809e-07
2.37685e-07
2.57814e-07
3.15891e-07
0.000112218
0.00101394
0.00105394
0.00390651
0.11233
0.743114
0.988504
0.99998
0.999993
0.999997
1
1
1
1
1
1
1
4.6082e-45
4.48567e-40
1.87821e-36
1.91313e-33
8.26819e-31
1.9652e-28
2.97304e-26
3.13695e-24
2.44126e-22
1.46269e-20
6.88309e-19
2.5879e-17
7.73188e-16
1.82485e-14
3.3761e-13
4.90034e-12
5.51026e-11
4.65477e-10
2.8801e-09
1.29997e-08
4.3623e-08
1.31744e-07
5.67089e-07
3.31223e-07
1.48552e-07
2.14261e-07
2.20322e-07
2.2804e-07
2.32716e-07
2.41368e-07
2.45833e-07
2.74594e-07
1.30966e-05
0.000144069
0.00101595
0.00120332
0.0830275
0.666141
0.992298
0.999995
0.999998
1
1
1
1
1
1
1
1
1
5.47251e-47
1.11135e-41
6.66382e-38
8.5777e-35
4.40874e-32
1.20779e-29
2.0714e-27
2.45742e-25
2.14795e-23
1.45077e-21
7.72481e-20
3.29358e-18
1.12095e-16
3.03974e-15
6.55338e-14
1.12242e-12
1.49632e-11
1.50772e-10
1.12635e-09
6.27742e-09
2.61308e-08
9.61163e-08
1.23089e-07
1.00183e-05
9.91568e-06
2.12812e-07
2.20054e-07
2.3397e-07
2.43124e-07
2.45878e-07
2.71459e-07
5.91101e-07
9.11625e-05
0.000323128
0.00139269
0.0120691
0.44069
0.92368
0.999969
0.999998
0.999999
1
1
1
1
1
1
1
1
1
5.38387e-49
2.36095e-43
2.04774e-39
3.34839e-36
2.05375e-33
6.50149e-31
1.26693e-28
1.69482e-26
1.66852e-24
1.27169e-22
7.6613e-21
3.70543e-19
1.44019e-17
4.5075e-16
1.1322e-14
2.27374e-13
3.57814e-12
4.30032e-11
3.87426e-10
2.64671e-09
1.34229e-08
5.66373e-08
1.51699e-08
1.21251e-05
1.2136e-05
7.51993e-06
2.27667e-07
2.36026e-07
2.41416e-07
2.51197e-07
3.12613e-07
1.19956e-06
1.10255e-05
7.51218e-05
0.00104376
0.172182
0.738033
0.99961
0.999982
0.999999
1
1
1
1
1
1
1
1
1
1
4.34099e-51
4.25097e-45
5.39217e-41
1.12659e-37
8.27827e-35
3.03744e-32
6.74388e-30
1.02028e-27
1.1346e-25
9.77792e-24
6.67932e-22
3.67708e-20
1.63985e-18
5.94905e-17
1.74057e-15
4.08844e-14
7.60647e-13
1.09139e-11
1.18256e-10
9.83359e-10
6.02188e-09
2.90038e-08
1.39848e-08
3.48225e-06
1.21368e-05
1.20789e-05
4.92634e-07
2.37792e-07
2.40375e-07
2.51035e-07
2.73271e-07
1.57463e-06
7.96484e-06
2.04897e-07
0.00222307
0.396286
0.952338
0.999882
0.999995
1
1
1
1
1
1
1
1
1
1
1
2.83266e-53
6.38938e-47
1.19888e-42
3.21943e-39
2.8451e-36
1.21358e-33
3.07854e-31
5.28323e-29
6.65766e-27
6.50903e-25
5.0615e-23
3.18748e-21
1.64015e-19
6.92738e-18
2.36399e-16
6.50106e-15
1.43494e-13
2.45941e-12
3.19825e-11
3.22074e-10
2.36889e-09
1.31165e-08
1.38343e-08
1.77277e-08
8.86389e-06
1.19987e-05
9.98731e-06
3.70912e-07
2.41595e-07
2.50157e-07
2.58962e-07
1.06916e-05
9.11813e-06
1.60999e-07
0.0150651
0.70624
0.999716
0.999997
1
1
1
1
1
1
1
1
1
1
1
1
1.46854e-55
7.84807e-49
2.20281e-44
7.6439e-41
8.15063e-38
4.05129e-35
1.17693e-32
2.29742e-30
3.29169e-28
3.6663e-26
3.26189e-24
2.36329e-22
1.41154e-20
6.97573e-19
2.78609e-17
9.00188e-16
2.36662e-14
4.8489e-13
7.56267e-12
9.19348e-11
8.08964e-10
5.18546e-09
8.87027e-09
2.23707e-08
3.5561e-08
9.77619e-06
9.96732e-06
9.93109e-06
5.52371e-06
3.10927e-07
2.89536e-07
1.55702e-06
5.09605e-07
9.79871e-08
0.119931
0.895616
1
1
1
1
1
1
1
1
1
1
1
1
1
1
5.87691e-58
7.63175e-51
3.23631e-46
1.45673e-42
1.87722e-39
1.08817e-36
3.62395e-34
8.06143e-32
1.31728e-29
1.67919e-27
1.71925e-25
1.44234e-23
1.00683e-21
5.85925e-20
2.75557e-18
1.05224e-16
3.31076e-15
8.12613e-14
1.52208e-12
2.23074e-11
2.34305e-10
1.74869e-09
4.2972e-09
1.2658e-08
1.82094e-08
3.45194e-07
2.73966e-06
8.43224e-06
8.32598e-06
8.16613e-06
7.92886e-06
4.65699e-06
9.26491e-08
2.22616e-08
0.270847
0.984233
1
1
1
1
1
1
1
1
1
1
1
1
1
1
1.73299e-60
5.58254e-53
3.59968e-48
2.10216e-44
3.26765e-41
2.20364e-38
8.39922e-36
2.12919e-33
3.97698e-31
5.83063e-29
6.91828e-27
6.77741e-25
5.58131e-23
3.86174e-21
2.16027e-19
9.84373e-18
3.73442e-16
1.10401e-14
2.49443e-13
4.41475e-12
5.53827e-11
4.83851e-10
1.60657e-09
5.18989e-09
1.70531e-08
2.324e-08
3.74709e-08
4.52002e-07
1.57169e-06
2.79203e-06
3.51998e-06
2.14164e-06
2.10125e-08
2.59547e-14
0.423322
1
1
1
1
1
1
1
1
1
1
1
1
1
1
1
3.49382e-63
3.01577e-55
3.57537e-50
3.68618e-46
8.95577e-43
7.57158e-40
2.97438e-37
6.79451e-35
1.10419e-32
1.52019e-30
1.92536e-28
2.1773e-26
2.13932e-24
1.79013e-22
1.21351e-20
6.71582e-19
3.11673e-17
1.12352e-15
3.094e-14
6.65871e-13
1.00312e-11
1.03351e-10
4.49665e-10
1.68632e-09
6.28239e-09
1.57004e-08
2.89267e-08
2.01428e-08
2.36061e-08
1.97147e-08
3.51296e-09
2.80645e-10
-2.00372e-08
-1.18547e-08
0.529902
0.999222
1
1
1
1
1
1
1
1
1
1
1
1
1
1
6.88278e-62
5.72738e-53
1.51401e-47
2.18143e-43
6.44658e-40
6.44681e-37
2.74192e-34
5.68529e-32
6.43887e-30
4.23154e-28
1.62089e-26
3.30772e-25
3.54546e-24
6.08202e-23
1.12373e-21
3.37626e-20
1.66116e-18
7.37667e-17
2.53112e-15
6.74714e-14
1.23936e-12
1.52658e-11
8.59574e-11
3.80301e-10
1.5156e-09
3.9815e-09
8.89494e-09
1.31292e-08
1.67572e-08
1.66479e-08
1.4887e-08
1.18222e-08
-2.49205e-08
-1.2305e-08
0.594108
0.999957
1
1
1
1
1
1
1
1
1
1
1
1
1
1
1.59851e-65
5.63218e-63
1.5531e-60
3.62917e-58
7.55858e-56
1.43179e-53
2.46334e-51
3.82104e-49
5.33661e-47
6.75667e-45
7.78417e-43
7.93978e-41
6.01785e-39
2.37505e-37
4.91468e-36
5.7977e-35
4.01903e-34
1.66121e-33
4.12577e-33
6.22445e-33
5.91438e-33
3.63635e-33
1.45167e-33
3.7372e-34
6.30535e-35
7.2089e-36
5.72569e-37
3.19027e-38
1.24209e-39
3.37994e-41
6.36905e-43
8.29764e-45
7.46809e-47
4.65476e-49
2.01516e-51
6.09071e-54
1.29037e-56
2.06392e-59
2.63024e-62
2.69732e-65
2.32114e-68
1.80418e-71
1.15857e-74
6.33792e-78
3.0123e-81
1.36702e-84
5.66348e-88
1.99622e-91
4.79651e-95
3.3312e-99
1.78859e-56
2.40395e-54
2.41678e-52
1.92762e-50
1.29039e-48
7.62414e-47
4.15972e-45
2.16722e-43
1.09373e-41
5.32045e-40
2.45098e-38
1.03985e-36
3.85805e-35
9.33768e-34
1.3731e-32
1.25295e-31
7.12781e-31
2.52331e-30
5.55112e-30
7.66748e-30
6.89177e-30
4.12272e-30
1.63781e-30
4.28788e-31
7.52608e-32
9.12338e-33
7.78264e-34
4.70616e-35
2.01353e-36
6.1179e-38
1.31025e-39
1.9775e-41
2.09852e-43
1.56259e-45