/*--------------------------------*- C++ -*----------------------------------*\
| =========                 |                                                 |
| \\      /  F ield         | OpenFOAM: The Open Source CFD Toolbox           |
|  \\    /   O peration     | Version:  2.4.0                                 |
|   \\  /    A nd           | Web:      www.OpenFOAM.org                      |
|    \\/     M anipulation  |                                                 |
\*---------------------------------------------------------------------------*/
FoamFile
{
    version     2.0;
    format      ascii;
    class       surfaceScalarField;
    location    "0.047";
    object      phiAlpha;
}
// * * * * * * * * * * * * * * * * * * * * * * * * * * * * * * * * * * * * * //

dimensions      [0 3 -1 0 0 0 0];

internalField   nonuniform List<scalar> 
114720
(
-3.3981e-10
2.51496e-10
6.2902e-10
-5.40706e-10
8.32176e-10
-1.01602e-09
-8.74407e-11
2.71281e-10
1.64274e-09
-1.85408e-09
-1.03181e-10
3.1452e-10
2.57028e-09
-2.80888e-09
-1.1688e-10
3.55476e-10
3.56618e-09
-3.79602e-09
-1.13249e-10
3.43084e-10
4.42472e-09
-4.57356e-09
-7.20449e-11
2.20885e-10
4.77777e-09
-4.72832e-09
3.66357e-11
-8.60877e-11
4.06979e-09
-3.6711e-09
2.36593e-10
-6.35287e-10
1.70987e-09
-8.55725e-10
4.9797e-10
-1.35212e-09
-2.559e-09
3.8515e-09
7.30477e-10
-2.02298e-09
-8.48286e-09
1.00891e-08
8.77998e-10
-2.48426e-09
-1.54433e-08
1.71906e-08
9.22804e-10
-2.67007e-09
-2.271e-08
2.44224e-08
8.74495e-10
-2.58687e-09
-2.95736e-08
3.10921e-08
7.48134e-10
-2.26659e-09
-3.54168e-08
3.66153e-08
5.61985e-10
-1.76042e-09
-3.97965e-08
4.06039e-08
3.4596e-10
-1.15335e-09
-4.2511e-08
4.29118e-08
1.29555e-10
-5.30427e-10
-4.3558e-08
4.35715e-08
-6.99314e-11
5.63983e-11
-4.30424e-08
4.27028e-08
-2.45533e-10
5.85107e-10
-4.11389e-08
4.05011e-08
-3.87131e-10
1.02493e-09
-3.81061e-08
3.72432e-08
-4.8559e-10
1.34852e-09
-3.42639e-08
3.3256e-08
-5.391e-10
1.5469e-09
-2.99394e-08
2.88602e-08
-5.54293e-10
1.63347e-09
-2.54162e-08
2.4326e-08
-5.41065e-10
1.63127e-09
-2.09174e-08
1.98573e-08
-5.11958e-10
1.57205e-09
-1.65976e-08
1.55979e-08
-4.73658e-10
1.4733e-09
-1.25583e-08
1.16354e-08
-4.33031e-10
1.35595e-09
-8.85402e-09
8.01584e-09
-3.92495e-10
1.23068e-09
-5.50419e-09
4.75131e-09
-3.53611e-10
1.10649e-09
-2.49945e-09
1.82667e-09
-3.17428e-10
9.90216e-10
3.17634e-10
2.01907e-09
-1.65575e-09
-6.80957e-10
1.63639e-09
-1.16938e-09
-1.9663e-09
1.4993e-09
3.0501e-09
-1.34403e-09
-3.44208e-09
1.736e-09
4.75748e-09
-1.52503e-09
-5.22123e-09
1.98878e-09
6.69366e-09
-1.47335e-09
-7.17826e-09
1.95795e-09
8.57735e-09
-9.85224e-10
-8.98175e-09
1.38963e-09
9.91359e-09
1.80412e-10
-1.00807e-08
-1.32944e-11
1.00029e-08
2.12865e-09
-9.74918e-09
-2.38233e-09
8.17186e-09
4.52197e-09
-7.38063e-09
-5.3132e-09
4.13836e-09
6.73053e-09
-2.82246e-09
-8.04643e-09
-1.86376e-09
8.27467e-09
3.58146e-09
-9.99237e-09
-9.23911e-09
8.95801e-09
1.11856e-08
-1.09045e-08
-1.72445e-08
8.75729e-09
1.92243e-08
-1.07371e-08
-2.50953e-08
7.75383e-09
2.69221e-08
-9.58061e-09
-3.20803e-08
6.13161e-09
3.36039e-08
-7.65522e-09
-3.76765e-08
4.17656e-09
3.88063e-08
-5.30635e-09
-4.16088e-08
2.14908e-09
4.23099e-08
-2.85021e-09
-4.37897e-08
1.93203e-10
4.40578e-08
-4.61276e-10
-4.42316e-08
-1.60881e-09
4.40831e-08
1.75729e-09
-4.30428e-08
-3.14313e-09
4.25227e-08
3.6633e-09
-4.04508e-08
-4.31349e-09
3.96314e-08
5.13294e-09
-3.67744e-08
-5.08709e-09
3.57412e-08
6.12034e-09
-3.23607e-08
-5.49781e-09
3.11968e-08
6.66169e-09
-2.75336e-08
-5.60622e-09
2.6313e-08
6.82689e-09
-2.25737e-08
-5.48204e-09
2.13579e-08
6.69785e-09
-1.77144e-08
-5.18461e-09
1.65531e-08
6.34592e-09
-1.31321e-08
-4.78015e-09
1.20592e-08
5.8531e-09
-8.94253e-09
-4.3216e-09
7.97632e-09
5.2878e-09
-5.19485e-09
-3.86479e-09
4.33736e-09
4.72227e-09
-1.87774e-09
-3.43305e-09
1.12209e-09
4.1887e-09
3.21987e-10
3.49608e-09
-3.12502e-09
-6.93048e-10
1.69475e-09
-2.52128e-09
-2.03883e-09
2.86535e-09
3.17601e-09
-2.9619e-09
-3.59033e-09
3.37621e-09
4.99329e-09
-3.45921e-09
-5.49314e-09
3.95906e-09
7.10353e-09
-3.53139e-09
-7.64365e-09
4.07151e-09
9.24941e-09
-2.77472e-09
-9.73493e-09
3.26024e-09
1.09597e-08
-7.2046e-10
-1.12381e-08
9.98855e-10
1.15457e-08
2.85177e-09
-1.14322e-08
-2.96527e-09
1.03173e-08
7.35135e-09
-9.68634e-09
-7.98227e-09
6.94653e-09
1.16432e-08
-5.796e-09
-1.27937e-08
1.60009e-09
1.48221e-08
-3.22154e-11
-1.639e-08
-5.20626e-09
1.6471e-08
7.0317e-09
-1.82964e-08
-1.27816e-08
1.64829e-08
1.46809e-08
-1.83821e-08
-2.0369e-08
1.49511e-08
2.21564e-08
-1.67385e-08
-2.72516e-08
1.21956e-08
2.87726e-08
-1.37166e-08
-3.2884e-08
8.73453e-09
3.40411e-08
-9.89163e-09
-3.69659e-08
5.04979e-09
3.77188e-08
-5.80262e-09
-3.93858e-08
1.40425e-09
3.97234e-08
-1.74185e-09
-4.01266e-08
-2.03767e-09
4.00568e-08
2.10747e-09
-3.92625e-08
-5.04376e-09
3.88239e-08
5.48235e-09
-3.7003e-08
-7.40133e-09
3.62663e-08
8.13807e-09
-3.36642e-08
-9.0221e-09
3.27154e-08
9.97089e-09
-2.95968e-08
-9.94813e-09
2.85199e-08
1.1025e-08
-2.51263e-08
-1.02788e-08
2.39947e-08
1.14104e-08
-2.05276e-08
-1.01354e-08
1.94004e-08
1.12626e-08
-1.60231e-08
-9.62631e-09
1.4947e-08
1.07024e-08
-1.17794e-08
-8.87917e-09
1.07873e-08
9.87131e-09
-7.91299e-09
-8.00395e-09
7.02539e-09
8.89155e-09
-4.48362e-09
-7.12056e-09
3.70525e-09
7.89894e-09
-1.48935e-09
-6.28875e-09
8.13883e-10
6.96422e-09
3.20583e-10
4.98833e-09
-4.61402e-09
-6.94893e-10
1.69437e-09
-3.89831e-09
-2.03843e-09
4.24237e-09
3.17531e-09
-4.62127e-09
-3.59028e-09
5.03624e-09
4.99801e-09
-5.46424e-09
-5.50046e-09
5.96669e-09
7.12308e-09
-5.70311e-09
-7.66894e-09
6.24896e-09
9.29969e-09
-4.73733e-09
-9.79638e-09
5.23402e-09
1.10662e-08
-1.86663e-09
-1.1363e-08
2.16341e-09
1.1735e-08
3.26516e-09
-1.16441e-08
-3.35605e-09
1.0597e-08
9.83545e-09
-9.98667e-09
-1.04458e-08
7.30056e-09
1.6215e-08
-6.16391e-09
-1.73516e-08
1.99656e-09
2.10777e-08
-4.33318e-10
-2.2641e-08
-4.80888e-09
2.37758e-08
6.64172e-09
-2.56086e-08
-1.2434e-08
2.41049e-08
1.43538e-08
-2.60247e-08
-2.01228e-08
2.21432e-08
2.19418e-08
-2.39622e-08
-2.71421e-08
1.83288e-08
2.86987e-08
-1.98855e-08
-3.292e-08
1.34141e-08
3.41129e-08
-1.4607e-08
-3.71487e-08
8.11497e-09
3.79396e-08
-8.90586e-09
-3.97286e-08
2.81239e-09
4.01074e-08
-3.19114e-09
-4.06307e-08
-2.26759e-09
4.05963e-08
2.30193e-09
-3.98892e-08
-6.76905e-09
3.94711e-08
7.18715e-09
-3.7687e-08
-1.03412e-08
3.69542e-08
1.10741e-08
-3.43422e-08
-1.28277e-08
3.33836e-08
1.37862e-08
-3.02182e-08
-1.4279e-08
2.9121e-08
1.53762e-08
-2.56502e-08
-1.48404e-08
2.44884e-08
1.60021e-08
-2.09142e-08
-1.46912e-08
1.97469e-08
1.58585e-08
-1.62333e-08
-1.39873e-08
1.51086e-08
1.51119e-08
-1.17869e-08
-1.29052e-08
1.07446e-08
1.39475e-08
-7.7288e-09
-1.1597e-08
6.80173e-09
1.25241e-08
-4.17235e-09
-1.0247e-08
3.37785e-09
1.10415e-08
-1.15414e-09
-8.97163e-09
4.88889e-10
9.63688e-09
3.18337e-10
6.49585e-09
-6.11728e-09
-6.96906e-10
1.68951e-09
-5.27291e-09
-2.03239e-09
5.61579e-09
3.16458e-09
-6.27991e-09
-3.57866e-09
6.69399e-09
4.98582e-09
-7.47498e-09
-5.48889e-09
7.97805e-09
7.11675e-09
-7.89115e-09
-7.6658e-09
8.44019e-09
9.31293e-09
-6.73592e-09
-9.81783e-09
7.24082e-09
1.11236e-08
-3.07561e-09
-1.14357e-08
3.38769e-09
1.18615e-08
3.60244e-09
-1.1789e-08
-3.67494e-09
1.07934e-08
1.22567e-08
-1.01969e-08
-1.28532e-08
7.54048e-09
2.07542e-08
-6.40889e-09
-2.18858e-08
2.24253e-09
2.73372e-08
-6.74669e-10
-2.8905e-08
-4.59823e-09
3.11296e-08
6.44688e-09
-3.29783e-08
-1.23089e-08
3.18264e-08
1.42585e-08
-3.3776e-08
-2.01388e-08
2.94786e-08
2.19997e-08
-3.13395e-08
-2.73378e-08
2.46221e-08
2.89411e-08
-2.62255e-08
-3.33032e-08
1.82504e-08
3.45413e-08
-1.94886e-08
-3.77191e-08
1.13481e-08
3.85593e-08
-1.21883e-08
-4.05124e-08
4.40739e-09
4.09484e-08
-4.84342e-09
-4.16443e-08
-2.33314e-09
4.16615e-08
2.31592e-09
-4.10828e-08
-8.39941e-09
4.0695e-08
8.78718e-09
-3.89647e-08
-1.32654e-08
3.82372e-08
1.39928e-08
-3.56083e-08
-1.66839e-08
3.46343e-08
1.76578e-08
-3.13959e-08
-1.87136e-08
3.02667e-08
1.98427e-08
-2.66753e-08
-1.95549e-08
2.54663e-08
2.07639e-08
-2.17226e-08
-1.9452e-08
2.0491e-08
2.06836e-08
-1.67523e-08
-1.86017e-08
1.55447e-08
1.98092e-08
-1.19453e-08
-1.72051e-08
1.08063e-08
1.83441e-08
-7.49635e-09
-1.54216e-08
6.47919e-09
1.64388e-08
-3.62417e-09
-1.34869e-08
2.77894e-09
1.43321e-08
-4.93018e-10
-1.16174e-08
-1.61021e-10
1.22715e-08
3.15399e-10
8.02382e-09
-7.63958e-09
-6.99639e-10
1.68342e-09
-6.64223e-09
-2.02471e-09
6.98352e-09
3.15085e-09
-7.93463e-09
-3.56376e-09
8.34754e-09
4.97007e-09
-9.48836e-09
-5.47385e-09
9.99214e-09
7.108e-09
-1.0093e-08
-7.66091e-09
1.06459e-08
9.32813e-09
-8.77017e-09
-9.84314e-09
9.28518e-09
1.11936e-08
-4.35145e-09
-1.15249e-08
4.6827e-09
1.20184e-08
3.85917e-09
-1.19692e-08
-3.90841e-09
1.10386e-08
1.46172e-08
-1.04598e-08
-1.5196e-08
7.84117e-09
2.52713e-08
-6.71619e-09
-2.63963e-08
2.55197e-09
3.36167e-08
-9.78836e-10
-3.51898e-08
-4.3304e-09
3.85533e-08
6.19866e-09
-4.04215e-08
-1.21466e-08
3.96786e-08
1.41334e-08
-4.16654e-08
-2.01541e-08
3.69985e-08
2.20682e-08
-3.89126e-08
-2.75826e-08
3.11203e-08
2.92453e-08
-3.2783e-08
-3.37859e-08
2.32856e-08
3.50812e-08
-2.45809e-08
-3.84342e-08
1.47972e-08
3.93356e-08
-1.56986e-08
-4.14998e-08
6.25966e-09
4.20121e-08
-6.7719e-09
-4.29436e-08
-2.16371e-09
4.30325e-08
2.0748e-09
-4.26327e-08
-9.89115e-09
4.22873e-08
1.02366e-08
-4.06331e-08
-1.61639e-08
3.99139e-08
1.68831e-08
-3.72662e-08
-2.06067e-08
3.62737e-08
2.15993e-08
-3.29469e-08
-2.32857e-08
3.17796e-08
2.44529e-08
-2.8046e-08
-2.4472e-08
2.67819e-08
2.57361e-08
-2.28406e-08
-2.44902e-08
2.15333e-08
2.57974e-08
-1.75205e-08
-2.3586e-08
1.62067e-08
2.48999e-08
-1.22212e-08
-2.19656e-08
1.09346e-08
2.32521e-08
-7.11776e-09
-1.9719e-08
5.92351e-09
2.09132e-08
-2.55577e-09
-1.70287e-08
1.57294e-09
1.80115e-08
9.41302e-10
-1.42167e-08
-1.58968e-09
1.48651e-08
3.11572e-10
9.57812e-09
-9.18672e-09
-7.02977e-10
1.67617e-09
-8.0045e-09
-2.01544e-09
8.34377e-09
3.13419e-09
-9.58424e-09
-3.54569e-09
9.99574e-09
4.95093e-09
-1.15047e-08
-5.45553e-09
1.20093e-08
7.09714e-09
-1.23113e-08
-7.65464e-09
1.28688e-08
9.34576e-09
-1.08478e-08
-9.87286e-09
1.13749e-08
1.12771e-08
-5.70997e-09
-1.16316e-08
6.06445e-09
1.22079e-08
4.01508e-09
-1.21872e-08
-4.03583e-09
1.13369e-08
1.69008e-08
-1.078e-08
-1.74578e-08
8.20847e-09
2.9759e-08
-7.09199e-09
-3.08755e-08
2.93226e-09
3.99177e-08
-1.35345e-09
-4.14965e-08
-3.99734e-09
4.6058e-08
5.88826e-09
-4.79489e-08
-1.19374e-08
4.76907e-08
1.39688e-08
-4.97221e-08
-2.01593e-08
4.47489e-08
2.21386e-08
-4.67282e-08
-2.787e-08
3.78769e-08
2.96059e-08
-3.96128e-08
-3.43638e-08
2.85645e-08
3.57263e-08
-2.99269e-08
-3.92831e-08
1.85072e-08
4.0256e-08
-1.94801e-08
-4.26768e-08
8.44789e-09
4.32865e-08
-9.05758e-09
-4.45312e-08
-1.67139e-09
4.47171e-08
1.48544e-09
-4.45602e-08
-1.11922e-08
4.4272e-08
1.14804e-08
-4.27204e-08
-1.90245e-08
4.20125e-08
1.97324e-08
-3.93438e-08
-2.4609e-08
3.8329e-08
2.56237e-08
-3.48995e-08
-2.80178e-08
3.36892e-08
2.92281e-08
-2.98005e-08
-2.96152e-08
2.84783e-08
3.09373e-08
-2.4335e-08
-2.98352e-08
2.29519e-08
3.12183e-08
-1.86639e-08
-2.90113e-08
1.72396e-08
3.04355e-08
-1.2816e-08
-2.73897e-08
1.13407e-08
2.8865e-08
-6.75079e-09
-2.49337e-08
5.22849e-09
2.6456e-08
-6.51784e-10
-2.14517e-08
-7.58599e-10
2.28621e-08
4.30206e-09
-1.69055e-08
-5.07482e-09
1.76783e-08
3.06845e-10
1.11659e-08
-1.07654e-08
-7.07343e-10
1.6672e-09
-9.35778e-09
-2.00384e-09
9.69441e-09
3.11345e-09
-1.12276e-08
-3.52312e-09
1.16373e-08
4.92653e-09
-1.35241e-08
-5.43187e-09
1.40295e-08
7.08143e-09
-1.45487e-08
-7.644e-09
1.51113e-08
9.36199e-09
-1.29762e-08
-9.90285e-09
1.35171e-08
1.13694e-08
-7.16752e-09
-1.17511e-08
7.54925e-09
1.24254e-08
4.0488e-09
-1.24386e-08
-4.03554e-09
1.16848e-08
1.90902e-08
-1.11543e-08
-1.96207e-08
8.64083e-09
3.42092e-08
-7.53524e-09
-3.53148e-08
3.38409e-09
4.62406e-08
-1.80015e-09
-4.78246e-08
-3.59421e-09
5.36572e-08
5.50952e-09
-5.55725e-08
-1.16718e-08
5.589e-08
1.37538e-08
-5.7972e-08
-2.01414e-08
5.27776e-08
2.21976e-08
-5.48338e-08
-2.81871e-08
4.49476e-08
3.00108e-08
-4.67712e-08
-3.50243e-08
3.41265e-08
3.64636e-08
-3.55659e-08
-4.02425e-08
2.25132e-08
4.12922e-08
-2.3563e-08
-4.4009e-08
1.10617e-08
4.47406e-08
-1.17933e-08
-4.6397e-08
-7.43643e-10
4.67134e-08
4.2731e-10
-4.68827e-08
-1.22375e-08
4.66705e-08
1.24497e-08
-4.52526e-08
-2.18349e-08
4.45593e-08
2.25282e-08
-4.1864e-08
-2.87061e-08
4.08226e-08
2.97475e-08
-3.72747e-08
-3.29284e-08
3.60169e-08
3.41862e-08
-3.19663e-08
-3.49899e-08
3.05871e-08
3.63692e-08
-2.62614e-08
-3.54658e-08
2.48167e-08
3.69106e-08
-2.03312e-08
-3.48354e-08
1.88356e-08
3.63309e-08
-1.41311e-08
-3.35364e-08
1.25221e-08
3.51454e-08
-7.22223e-09
-3.16629e-08
5.29927e-09
3.35859e-08
1.39103e-09
-2.8504e-08
-3.79511e-09
3.0908e-08
9.46677e-09
-2.01977e-08
-9.55938e-09
2.02903e-08
3.01029e-10
1.27955e-08
-1.23837e-08
-7.12872e-10
1.65715e-09
-1.06998e-08
-1.99059e-09
1.10332e-08
3.08971e-09
-1.28633e-08
-3.49728e-09
1.32708e-08
4.89858e-09
-1.55469e-08
-5.40476e-09
1.6053e-08
7.06321e-09
-1.68074e-08
-7.63146e-09
1.73757e-08
9.37961e-09
-1.51625e-08
-9.936e-09
1.57189e-08
1.14736e-08
-8.74035e-09
-1.18867e-08
9.1535e-09
1.26748e-08
3.93788e-09
-1.27279e-08
-3.88482e-09
1.20872e-08
2.1167e-08
-1.15879e-08
-2.16663e-08
9.14276e-09
3.8613e-08
-8.05012e-09
-3.97056e-08
3.91072e-09
5.25842e-08
-2.32168e-09
-5.41733e-08
-3.11837e-09
6.13581e-08
5.06122e-09
-6.3301e-08
-1.13475e-08
6.43023e-08
1.34868e-08
-6.64415e-08
-2.01006e-08
6.1133e-08
2.22463e-08
-6.32787e-08
-2.85411e-08
5.23931e-08
3.04688e-08
-5.43208e-08
-3.57823e-08
4.0011e-08
3.73081e-08
-4.15369e-08
-4.13154e-08
2.68276e-08
4.24402e-08
-2.79525e-08
-4.54782e-08
1.42038e-08
4.636e-08
-1.50856e-08
-4.85637e-08
7.70316e-10
4.90572e-08
-1.26388e-09
-4.9663e-08
-1.29458e-08
4.95499e-08
1.30589e-08
-4.82999e-08
-2.45849e-08
4.76221e-08
2.52626e-08
-4.48853e-08
-3.29216e-08
4.38085e-08
3.39984e-08
-4.01155e-08
-3.80387e-08
3.88033e-08
3.93509e-08
-3.45787e-08
-4.05925e-08
3.3142e-08
4.20292e-08
-2.86508e-08
-4.13168e-08
2.71601e-08
4.28075e-08
-2.2591e-08
-4.08376e-08
2.10963e-08
4.23322e-08
-1.65305e-08
-3.9911e-08
1.50238e-08
4.14178e-08
-1.02528e-08
-3.93503e-08
8.58406e-09
4.10191e-08
-3.34445e-09
-3.77541e-08
2.0153e-09
3.90832e-08
-3.17861e-09
-1.55356e-08
5.69194e-09
1.30223e-08
2.93919e-10
1.44772e-08
-1.40513e-08
-7.19827e-10
1.64606e-09
-1.2028e-08
-1.97566e-09
1.23576e-08
3.06289e-09
-1.44901e-08
-3.46809e-09
1.48953e-08
4.86695e-09
-1.75729e-08
-5.37402e-09
1.808e-08
7.0422e-09
-1.90896e-08
-7.61669e-09
1.96641e-08
9.39799e-09
-1.74133e-08
-9.97151e-09
1.79869e-08
1.15886e-08
-1.04451e-08
-1.20374e-08
1.08939e-08
1.2956e-08
3.65879e-09
-1.30549e-08
-3.55986e-09
1.25452e-08
2.31118e-08
-1.2082e-08
-2.3575e-08
9.71629e-09
4.29615e-08
-8.63881e-09
-4.4039e-08
4.51476e-09
5.89477e-08
-2.92099e-09
-6.05414e-08
-2.56563e-09
6.91673e-08
4.53536e-09
-7.1137e-08
-1.09572e-08
7.29516e-08
1.31592e-08
-7.51536e-08
-2.00278e-08
6.98657e-08
2.22765e-08
-7.21143e-08
-2.89279e-08
6.02826e-08
3.0979e-08
-6.23337e-08
-3.66452e-08
4.62552e-08
3.82673e-08
-4.78772e-08
-4.24928e-08
3.14247e-08
4.36776e-08
-3.26095e-08
-4.70256e-08
1.79949e-08
4.80904e-08
-1.90598e-08
-5.10385e-08
3.08599e-09
5.17767e-08
-3.8242e-09
-5.29688e-08
-1.32164e-08
5.29833e-08
1.32018e-08
-5.19362e-08
-2.72745e-08
5.12717e-08
2.7939e-08
-4.84592e-08
-3.72989e-08
4.73314e-08
3.84267e-08
-4.34477e-08
-4.33818e-08
4.20699e-08
4.47597e-08
-3.76497e-08
-4.64316e-08
3.615e-08
4.79314e-08
-3.14707e-08
-4.73524e-08
2.99256e-08
4.88976e-08
-2.52693e-08
-4.67742e-08
2.37931e-08
4.82504e-08
-1.95647e-08
-4.554e-08
1.83103e-08
4.67945e-08
-1.51129e-08
-4.45439e-08
1.43719e-08
4.52849e-08
-1.38897e-08
-3.93055e-08
1.4584e-08
3.86112e-08
-1.92792e-08
-6.25322e-09
2.09721e-08
4.5604e-09
2.85259e-10
1.62232e-08
-1.57799e-08
-7.28534e-10
1.63336e-09
-1.33396e-08
-1.95827e-09
1.36645e-08
3.03184e-09
-1.61067e-08
-3.43421e-09
1.65091e-08
4.82981e-09
-1.96023e-08
-5.33762e-09
2.01101e-08
7.01562e-09
-2.13972e-08
-7.59661e-09
2.19782e-08
9.41304e-09
-1.97346e-08
-1.00049e-08
2.03265e-08
1.1709e-08
-1.22985e-08
-1.21975e-08
1.2787e-08
1.32636e-08
3.18674e-09
-1.34149e-08
-3.03552e-09
1.30554e-08
2.4904e-08
-1.26338e-08
-2.53256e-08
1.03599e-08
4.72454e-08
-9.30029e-09
-4.8305e-08
5.19686e-09
6.53281e-08
-3.59972e-09
-6.69252e-08
-1.93042e-09
7.70858e-08
3.92764e-09
-7.9083e-08
-1.04882e-08
8.18582e-08
1.27575e-08
-8.41275e-08
-1.99047e-08
7.90292e-08
2.2269e-08
-8.13935e-08
-2.93321e-08
6.86965e-08
3.15283e-08
-7.08927e-08
-3.7612e-08
5.29028e-08
3.93442e-08
-5.46351e-08
-4.3759e-08
3.62119e-08
4.49645e-08
-3.74173e-08
-4.85265e-08
2.2569e-08
4.98083e-08
-2.38508e-08
-5.38153e-08
6.5197e-09
5.48999e-08
-7.60427e-09
-5.68777e-08
-1.29271e-08
5.70538e-08
1.27511e-08
-5.62421e-08
-2.99221e-08
5.55817e-08
3.05824e-08
-5.26297e-08
-4.19171e-08
5.14231e-08
4.31237e-08
-4.72693e-08
-4.90101e-08
4.58091e-08
5.04703e-08
-4.11815e-08
-5.2531e-08
3.96161e-08
5.40964e-08
-3.46831e-08
-5.36657e-08
3.30356e-08
5.53132e-08
-2.80552e-08
-5.27646e-08
2.64873e-08
5.43325e-08
-2.20998e-08
-5.04393e-08
2.08455e-08
5.16936e-08
-1.78299e-08
-4.70561e-08
1.71882e-08
4.76979e-08
-1.66684e-08
-3.64686e-08
1.70235e-08
3.61135e-08
-1.8236e-08
-2.14989e-09
1.76988e-08
2.6866e-09
2.74727e-10
1.80484e-08
-1.75837e-08
-7.39386e-10
1.61971e-09
-1.46313e-08
-1.9391e-09
1.49507e-08
2.99757e-09
-1.77117e-08
-3.39683e-09
1.8111e-08
4.78878e-09
-2.16347e-08
-5.29733e-09
2.21433e-08
6.98569e-09
-2.37316e-08
-7.57361e-09
2.43195e-08
9.42734e-09
-2.21314e-08
-1.00389e-08
2.2743e-08
1.18376e-08
-1.43172e-08
-1.23701e-08
1.48498e-08
1.36018e-08
2.49526e-09
-1.38122e-08
-2.28485e-09
1.36233e-08
2.65212e-08
-1.32491e-08
-2.68954e-08
1.10796e-08
5.14548e-08
-1.004e-08
-5.24943e-08
5.96131e-09
7.17207e-08
-4.36184e-09
-7.33202e-08
-1.20878e-09
8.51157e-08
3.23268e-09
-8.71396e-08
-9.93438e-09
9.10387e-08
1.22734e-08
-9.33777e-08
-1.97246e-08
8.86768e-08
2.22184e-08
-9.11706e-08
-2.97559e-08
7.77315e-08
3.21249e-08
-8.01005e-08
-3.87169e-08
6.00225e-08
4.05832e-08
-6.18888e-08
-4.51547e-08
4.09835e-08
4.63065e-08
-4.21353e-08
-4.9791e-08
2.80549e-08
5.13136e-08
-2.95775e-08
-5.69491e-08
1.15518e-08
5.85355e-08
-1.31383e-08
-6.15501e-08
-1.19365e-08
6.19248e-08
1.15618e-08
-6.13769e-08
-3.25791e-08
6.0701e-08
3.3255e-08
-5.7505e-08
-4.69148e-08
5.61727e-08
4.82471e-08
-5.15976e-08
-5.5006e-08
5.00246e-08
5.65789e-08
-4.52659e-08
-5.88574e-08
4.36779e-08
6.04453e-08
-3.84636e-08
-6.05005e-08
3.66361e-08
6.2328e-08
-3.0905e-08
-5.9393e-08
2.90497e-08
6.12483e-08
-2.37629e-08
-5.58723e-08
2.22023e-08
5.74329e-08
-1.79243e-08
-5.03278e-08
1.67035e-08
5.15487e-08
-1.35882e-08
-3.703e-08
1.25912e-08
3.8027e-08
-6.99213e-09
-8.90839e-09
3.70237e-09
1.21984e-08
2.61911e-10
1.99712e-08
-1.94802e-08
-7.52857e-10
1.60494e-09
-1.58995e-08
-1.91782e-09
1.62124e-08
2.95965e-09
-1.93038e-08
-3.35543e-09
1.96995e-08
4.74315e-09
-2.367e-08
-5.25235e-09
2.41792e-08
6.95127e-09
-2.60941e-08
-7.54636e-09
2.66891e-08
9.43891e-09
-2.46083e-08
-1.0071e-08
2.52405e-08
1.19712e-08
-1.65185e-08
-1.2552e-08
1.70993e-08
1.39682e-08
1.55615e-09
-1.42452e-08
-1.2792e-09
1.42489e-08
2.79398e-08
-1.39283e-08
-2.82604e-08
1.18766e-08
5.558e-08
-1.08597e-08
-5.6597e-08
6.81013e-09
7.81208e-08
-5.20976e-09
-7.97211e-08
-3.9536e-10
9.325e-08
2.44375e-09
-9.52984e-08
-9.28307e-09
1.00503e-07
1.16939e-08
-1.02914e-07
-1.9468e-08
9.88627e-08
2.21045e-08
-1.01499e-07
-3.01838e-08
8.75044e-08
3.27578e-08
-9.00784e-08
-3.99826e-08
6.77388e-08
4.20286e-08
-6.97848e-08
-4.67644e-08
4.53751e-08
4.77439e-08
-4.63546e-08
-5.03948e-08
3.44782e-08
5.21133e-08
-3.61966e-08
-6.05623e-08
1.89103e-08
6.28779e-08
-2.12259e-08
-6.71844e-08
-1.00934e-08
6.77986e-08
9.47927e-09
-6.75906e-08
-3.53377e-08
6.68741e-08
3.60542e-08
-6.33495e-08
-5.25075e-08
6.1821e-08
5.4036e-08
-5.64107e-08
-6.1587e-08
5.4567e-08
6.34307e-08
-4.99641e-08
-6.50195e-08
4.85934e-08
6.63902e-08
-4.3397e-08
-6.81872e-08
4.13022e-08
7.0282e-08
-3.46373e-08
-6.74263e-08
3.23699e-08
6.96937e-08
-2.52287e-08
-6.29471e-08
2.29491e-08
6.52267e-08
-1.65116e-08
-5.60272e-08
1.46375e-08
5.79014e-08
-9.68974e-09
-4.29735e-08
7.90956e-09
4.47537e-08
8.32817e-10
-2.32973e-08
-4.64964e-09
2.71141e-08
2.46316e-10
2.20137e-08
-2.14904e-08
-7.69611e-10
1.58913e-09
-1.714e-08
-1.89437e-09
1.74452e-08
2.918e-09
-2.08812e-08
-3.30991e-09
2.12731e-08
4.69279e-09
-2.57078e-08
-5.20252e-09
2.62175e-08
6.91202e-09
-2.84854e-08
-7.51445e-09
2.90879e-08
9.44686e-09
-2.71685e-08
-1.01002e-08
2.78218e-08
1.21079e-08
-1.89192e-08
-1.27412e-08
1.95525e-08
1.43619e-08
3.39183e-10
-1.47133e-08
1.22444e-11
1.49336e-08
2.91337e-08
-1.46736e-08
-2.93938e-08
1.2754e-08
5.96114e-08
-1.17619e-08
-6.06034e-08
7.74582e-09
8.45219e-08
-6.1461e-09
-8.61217e-08
5.14921e-10
1.01477e-07
1.55438e-09
-1.03546e-07
-8.52223e-09
1.10254e-07
1.10041e-08
-1.12735e-07
-1.91143e-08
1.09637e-07
2.19054e-08
-1.12428e-07
-3.05966e-08
9.81522e-08
3.34133e-08
-1.00969e-07
-4.14361e-08
7.62836e-08
4.37446e-08
-7.85921e-08
-4.88014e-08
4.88774e-08
4.94871e-08
-4.9563e-08
-4.94273e-08
4.13209e-08
5.09777e-08
-4.28714e-08
-6.5114e-08
2.9584e-08
6.84138e-08
-3.28838e-08
-7.41116e-08
-7.17829e-09
7.50714e-08
6.21845e-09
-7.56821e-08
-3.82558e-08
7.495e-08
3.89879e-08
-7.11304e-08
-5.91806e-08
6.9115e-08
6.1196e-08
-6.07107e-08
-7.04415e-08
5.74671e-08
7.36851e-08
-5.14576e-08
-7.00075e-08
5.00247e-08
7.14403e-08
-4.66327e-08
-7.63626e-08
4.48807e-08
7.81145e-08
-3.83902e-08
-7.66177e-08
3.61967e-08
7.88112e-08
-2.89199e-08
-7.224e-08
2.64017e-08
7.47582e-08
-1.83814e-08
-6.4189e-08
1.5579e-08
6.69914e-08
-6.84215e-09
-5.17344e-08
4.04978e-09
5.45268e-08
4.62269e-09
-3.78519e-08
-7.44788e-09
4.06771e-08
2.2723e-10
2.42032e-08
-2.36403e-08
-7.90156e-10
1.57231e-09
-1.83481e-08
-1.86863e-09
1.86444e-08
2.8725e-09
-2.24427e-08
-3.26017e-09
2.28303e-08
4.63756e-09
-2.77475e-08
-5.1477e-09
2.82576e-08
6.86761e-09
-3.09064e-08
-7.47748e-09
3.15162e-08
9.45022e-09
-2.98141e-08
-1.01251e-08
3.0489e-08
1.22454e-08
-2.15364e-08
-1.29355e-08
2.22264e-08
1.47816e-08
-1.18841e-09
-1.52161e-08
1.62291e-09
1.56792e-08
3.00742e-08
-1.54872e-08
-3.02662e-08
1.37152e-08
6.35399e-08
-1.27501e-08
-6.4505e-08
8.77055e-09
9.0918e-08
-7.17319e-09
-9.25154e-08
1.52668e-09
1.0978e-07
5.58277e-10
-1.11864e-07
-7.63776e-09
1.20283e-07
1.01869e-08
-1.22832e-07
-1.8638e-08
1.21046e-07
2.15935e-08
-1.24001e-07
-3.09655e-08
1.09832e-07
3.40658e-08
-1.12932e-07
-4.30883e-08
8.60618e-08
4.57922e-08
-8.87657e-08
-5.16568e-08
5.12219e-08
5.21571e-08
-5.17222e-08
-4.49417e-08
4.58457e-08
4.5055e-08
-4.5959e-08
-7.22953e-08
4.42682e-08
7.64049e-08
-4.83777e-08
-8.3061e-08
-2.40941e-09
8.47837e-08
6.86636e-10
-8.762e-08
-4.09123e-08
8.72714e-08
4.12609e-08
-8.19545e-08
-6.82423e-08
7.9846e-08
7.03509e-08
-6.68673e-08
-8.57429e-08
6.52034e-08
8.74068e-08
-6.31064e-08
-7.15796e-08
5.87455e-08
7.59406e-08
-3.82527e-08
-9.21338e-08
3.07964e-08
9.95901e-08
-1.42779e-08
-8.88971e-08
1.02059e-08
9.29691e-08
-1.47776e-09
-8.13101e-08
-4.3655e-10
8.32244e-08
2.28931e-09
-7.25954e-08
-3.21322e-09
7.35193e-08
5.23299e-09
-5.9395e-08
-6.41195e-09
6.0574e-08
1.05764e-08
-4.70704e-08
-1.18973e-08
4.83912e-08
2.03841e-10
2.65732e-08
-2.59617e-08
-8.15329e-10
1.55474e-09
-1.95183e-08
-1.84072e-09
1.98043e-08
2.82341e-09
-2.39865e-08
-3.20645e-09
2.43696e-08
4.57788e-09
-2.97885e-08
-5.08831e-09
3.02989e-08
6.8185e-09
-3.33571e-08
-7.43589e-09
3.39745e-08
9.44914e-09
-3.25459e-08
-1.01456e-08
3.32423e-08
1.23825e-08
-2.43868e-08
-1.31336e-08
2.51379e-08
1.52279e-08
-3.06205e-09
-1.57549e-08
3.58904e-09
1.64894e-08
3.07299e-08
-1.6374e-08
-3.08453e-08
1.47657e-08
6.73576e-08
-1.38293e-08
-6.82941e-08
9.88753e-09
9.73023e-08
-8.29384e-09
-9.8896e-08
2.64476e-09
1.18135e-07
-5.50948e-10
-1.20229e-07
-6.61636e-09
1.30573e-07
9.22551e-09
-1.33182e-07
-1.80113e-08
1.33123e-07
2.11378e-08
-1.36249e-07
-3.12541e-08
1.22706e-07
3.46775e-08
-1.2613e-07
-4.49184e-08
9.76581e-08
4.81713e-08
-1.00911e-07
-5.56784e-08
5.39585e-08
5.71468e-08
-5.54269e-08
-4.10393e-08
4.92973e-08
4.91867e-08
-5.74447e-08
-8.96984e-08
5.83431e-08
9.02207e-08
-5.88653e-08
-9.48934e-08
6.43844e-09
9.79652e-08
-9.51026e-09
-1.01023e-07
-4.25029e-08
1.00147e-07
4.33787e-08
-9.29728e-08
-7.58389e-08
1.00166e-07
6.86453e-08
-9.23657e-08
-8.72609e-08
7.04116e-08
3.61405e-08
-2.03157e-08
-3.15949e-08
8.36086e-09
1.14017e-11
-2.41233e-09
-5.42094e-10
1.19697e-09
-1.28382e-10
-8.23195e-10
2.95904e-10
4.23624e-10
-2.19605e-11
-1.02331e-10
-6.96565e-11
7.94234e-11
3.84426e-12
6.29031e-12
-2.43504e-11
-3.76344e-12
8.76314e-13
6.20596e-12
-9.56635e-12
-5.57325e-12
6.04689e-13
4.46803e-12
-5.80655e-12
-4.11255e-12
3.65584e-13
1.75208e-10
2.91647e-08
-2.84934e-08
-8.4645e-10
1.5361e-09
-2.06447e-08
-1.81006e-09
2.09186e-08
2.76993e-09
-2.55111e-08
-3.14789e-09
2.5889e-08
4.51251e-09
-3.18301e-08
-5.02295e-09
3.23405e-08
6.76268e-09
-3.58375e-08
-7.38745e-09
3.64623e-08
9.44036e-09
-3.53631e-08
-1.01578e-08
3.60805e-08
1.25133e-08
-2.74872e-08
-1.33295e-08
2.83034e-08
1.56955e-08
-5.32045e-09
-1.63251e-08
5.95011e-09
1.73624e-08
3.10655e-08
-1.7333e-08
-3.10949e-08
1.59069e-08
7.10585e-08
-1.50003e-08
-7.1965e-08
1.10959e-08
1.03669e-07
-9.50725e-09
-1.05258e-07
3.87181e-09
1.26512e-07
-1.77864e-09
-1.28605e-07
-5.44114e-09
1.41085e-07
8.09889e-09
-1.43743e-07
-1.71946e-08
1.45886e-07
2.04929e-08
-1.49184e-07
-3.14043e-08
1.3692e-07
3.51805e-08
-1.40696e-07
-4.68281e-08
1.11577e-07
5.06681e-08
-1.15417e-07
-5.99895e-08
6.70486e-08
6.8506e-08
-7.55652e-08
-8.30295e-08
1.31773e-07
1.21094e-07
-1.69837e-07
-1.16079e-07
4.27912e-08
1.05275e-07
-3.19868e-08
-1.00472e-07
2.00078e-08
9.93784e-08
-1.89141e-08
-9.05337e-08
-4.20168e-08
7.37794e-08
1.44016e-09
-1.48e-09
6.65876e-10
2.41467e-10
-2.17343e-11
-4.67945e-12
5.5393e-12
3.82376e-12
-1.01395e-13
-6.59218e-13
-1.26596e-13
6.25189e-13
5.9128e-14
-5.69623e-13
-2.00701e-14
3.88005e-13
1.32389e-13
-1.90401e-13
-3.50653e-14
1.21715e-13
8.11035e-14
-3.38446e-14
-2.6126e-14
2.25735e-14
3.14885e-14
-1.94375e-14
-6.11407e-14
4.11408e-15
6.9495e-14
-9.93604e-16
-2.95777e-15
5.65313e-16
3.20723e-15
-2.54615e-17
-4.95852e-16
-9.3622e-17
1.06222e-15
1.40025e-10
3.20276e-08
-3.12833e-08
-8.84371e-10
1.51646e-09
-2.17202e-08
-1.77648e-09
2.19802e-08
2.71195e-09
-2.70146e-08
-3.08434e-09
2.7387e-08
4.44135e-09
-3.38714e-08
-4.95147e-09
3.43815e-08
6.69984e-09
-3.83474e-08
-7.33179e-09
3.89793e-08
9.42291e-09
-3.82629e-08
-1.01602e-08
3.90002e-08
1.26343e-08
-3.0854e-08
-1.35194e-08
3.17391e-08
1.61821e-08
-8.00617e-09
-1.69256e-08
8.74969e-09
1.83e-08
3.10413e-08
-1.83674e-08
-3.09738e-08
1.71434e-08
7.46388e-08
-1.62672e-08
-7.55149e-08
1.23961e-08
1.10015e-07
-1.08131e-08
-1.11598e-07
5.20952e-09
1.3487e-07
-3.12842e-09
-1.36951e-07
-4.09741e-09
1.51769e-07
6.78686e-09
-1.54459e-07
-1.61484e-08
1.59331e-07
1.96116e-08
-1.62794e-07
-3.13556e-08
1.52577e-07
3.55033e-08
-1.56724e-07
-4.85618e-08
1.27674e-07
5.30484e-08
-1.3216e-07
-7.52663e-08
1.13736e-07
8.40199e-08
-1.2249e-07
-1.29402e-07
2.61575e-07
1.35922e-07
-2.68096e-07
-8.49829e-08
-8.46125e-09
7.30549e-08
2.03897e-08
-2.56336e-08
-7.91501e-09
2.70189e-08
-1.385e-08
-4.77965e-11
4.98041e-11
5.26132e-12
-6.67946e-12
-2.2683e-14
8.0686e-15
1.4792e-14
3.56059e-16
-4.68888e-15
-6.61413e-15
9.76405e-15
1.60526e-15
-2.71791e-15
-1.71437e-15
2.2183e-15
2.24711e-15
-1.61112e-15
-1.98944e-15
1.48124e-15
2.08106e-15
-1.105e-15
-1.65151e-15
9.92872e-16
1.7159e-15
-6.98499e-16
-1.07846e-15
6.31386e-16
1.11851e-15
-5.83782e-13
-1.17103e-12
5.22299e-13
1.23876e-12
6.59546e-17
-4.85415e-16
1.13871e-16
4.6138e-16
-9.01479e-18
-3.52713e-16
-9.58306e-18
3.00532e-16
9.69959e-11
3.52236e-08
-3.43896e-08
-9.30944e-10
1.49624e-09
-2.2737e-08
-1.74022e-09
2.2981e-08
2.65001e-09
-2.84954e-08
-3.01641e-09
2.88618e-08
4.36534e-09
-3.59113e-08
-4.87491e-09
3.64208e-08
6.63121e-09
-4.0886e-08
-7.27024e-09
4.1525e-08
9.39817e-09
-4.12405e-08
-1.01539e-08
4.19963e-08
1.27445e-08
-3.45028e-08
-1.37025e-08
3.54609e-08
1.66892e-08
-1.1166e-08
-1.75592e-08
1.20359e-08
1.93087e-08
3.06117e-08
-1.94853e-08
-3.04351e-08
1.84857e-08
7.80989e-08
-1.7639e-08
-7.89456e-08
1.37908e-08
1.1634e-07
-1.22126e-08
-1.17919e-07
6.6592e-09
1.43161e-07
-4.60359e-09
-1.45217e-07
-2.57199e-09
1.6255e-07
5.27138e-09
-1.6525e-07
-1.48311e-08
1.73416e-07
1.84431e-08
-1.77028e-07
-3.10463e-08
1.69745e-07
3.55835e-08
-1.74283e-07
-4.99014e-08
1.48523e-07
5.59056e-08
-1.54527e-07
-8.06467e-08
8.90864e-08
6.28317e-08
-7.12713e-08
-1.42943e-07
2.08777e-07
9.62958e-08
-1.61358e-07
4.0999e-08
-9.59555e-08
-1.63775e-08
7.1307e-08
-3.28207e-10
3.38812e-10
3.43845e-11
-6.09518e-11
-5.45755e-14
5.27134e-14
7.41389e-15
-8.81428e-15
-1.78123e-15
-1.79258e-16
1.56827e-15
3.18311e-16
-1.28776e-15
-1.05787e-15
1.23852e-15
1.02811e-15
-1.8657e-13
-4.95895e-13
5.6464e-13
1.04811e-12
-3.59484e-15
-2.62958e-15
1.46534e-15
4.72932e-15
-8.5114e-16
-1.86123e-15
7.79453e-16
1.88669e-15
-5.58135e-16
-1.26842e-15
5.04131e-16
1.31227e-15
-4.65094e-13
-1.35458e-12
4.06241e-13
1.41226e-12
-1.78395e-16
-2.92559e-16
3.93439e-17
2.47389e-16
4.1908e-18
-1.25207e-16
-5.16685e-18
7.95717e-17
4.50772e-11
3.88256e-08
-3.78825e-08
-9.88087e-10
1.47528e-09
-2.36861e-08
-1.70083e-09
2.39117e-08
2.58365e-09
-2.99515e-08
-2.9436e-09
3.03115e-08
4.28384e-09
-3.79484e-08
-4.79251e-09
3.8457e-08
6.55563e-09
-4.34524e-08
-7.20147e-09
4.40983e-08
9.36421e-09
-4.42888e-08
-1.01362e-08
4.50608e-08
1.28375e-08
-3.84491e-08
-1.38724e-08
3.9484e-08
1.72119e-08
-1.48519e-08
-1.82223e-08
1.58623e-08
2.03886e-08
2.9725e-08
-2.06886e-08
-2.9425e-08
1.99395e-08
8.1444e-08
-1.91199e-08
-8.22635e-08
1.52774e-08
1.22649e-07
-1.37015e-08
-1.24225e-07
8.21826e-09
1.51327e-07
-6.20432e-09
-1.53341e-07
-8.48741e-10
1.73332e-07
3.53258e-09
-1.76015e-07
-1.31915e-08
1.88053e-07
1.69207e-08
-1.91782e-07
-3.0394e-08
1.88528e-07
3.53723e-08
-1.93506e-07
-5.16845e-08
1.67178e-07
5.41352e-08
-1.69628e-07
-6.04904e-08
9.61182e-08
1.07316e-07
-1.42943e-07
-5.69223e-08
-5.11156e-08
-1.21885e-08
1.20831e-07
-2.79883e-09