/*--------------------------------*- C++ -*----------------------------------*\
| =========                 |                                                 |
| \\      /  F ield         | OpenFOAM: The Open Source CFD Toolbox           |
|  \\    /   O peration     | Version:  2.4.0                                 |
|   \\  /    A nd           | Web:      www.OpenFOAM.org                      |
|    \\/     M anipulation  |                                                 |
\*---------------------------------------------------------------------------*/
FoamFile
{
    version     2.0;
    format      ascii;
    class       volScalarField;
    location    "0.12";
    object      p_rgh;
}
// * * * * * * * * * * * * * * * * * * * * * * * * * * * * * * * * * * * * * //

dimensions      [1 -1 -2 0 0 0 0];

internalField   nonuniform List<scalar> 
3600
(
97.3981
97.3961
97.3901
97.4047
97.3936
97.4235
97.404
97.4552
97.4256
97.5051
97.4598
97.571
97.5037
97.6476
97.544
97.7165
97.5711
97.7578
97.5874
97.7372
97.6102
97.6487
97.448
97.4768
97.5516
97.6431
97.7329
97.7368
97.7505
97.7323
97.3923
97.395
97.3875
97.4031
97.3905
97.421
97.4019
97.4524
97.4246
97.5027
97.4596
97.5695
97.5042
97.6472
97.5446
97.7167
97.5715
97.7584
97.5875
97.7377
97.6117
97.6494
97.4471
97.4756
97.5511
97.6431
97.7331
97.7369
97.7505
97.7323
97.3801
97.3846
97.3803
97.3948
97.3866
97.4148
97.3973
97.4471
97.4214
97.4988
97.4583
97.5681
97.5038
97.6471
97.545
97.7173
97.5718
97.7595
97.5877
97.7384
97.6145
97.6507
97.4453
97.4731
97.5502
97.6434
97.7337
97.7373
97.7506
97.7323
97.3696
97.3729
97.3662
97.3842
97.368
97.4077
97.3856
97.4406
97.4143
97.4938
97.4553
97.5662
97.5028
97.6473
97.5455
97.7187
97.5723
97.7615
97.588
97.7395
97.6186
97.6526
97.4423
97.4694
97.5489
97.6438
97.7346
97.7377
97.7508
97.7324
97.3567
97.3606
97.3544
97.3725
97.3578
97.3974
97.3763
97.4346
97.4056
97.489
97.451
97.5646
97.5014
97.648
97.546
97.7204
97.5728
97.764
97.5882
97.7409
97.6242
97.655
97.4381
97.4643
97.5473
97.6445
97.7358
97.7384
97.751
97.7324
97.3349
97.3396
97.3319
97.3535
97.3384
97.3819
97.358
97.4243
97.3929
97.4818
97.4449
97.5618
97.4996
97.6487
97.5466
97.7228
97.5735
97.7675
97.5884
97.7426
97.6314
97.6581
97.4328
97.4578
97.5453
97.6454
97.7373
97.7392
97.7512
97.7325
97.3149
97.3203
97.3136
97.335
97.3192
97.3656
97.341
97.4144
97.3811
97.4759
97.4374
97.5602
97.4973
97.6503
97.5474
97.7255
97.5741
97.7715
97.5884
97.7444
97.6402
97.6619
97.4263
97.4499
97.5429
97.6466
97.7392
97.7403
97.7515
97.7326
97.2812
97.2877
97.2784
97.3053
97.289
97.3407
97.3124
97.3974
97.3622
97.4664
97.4273
97.5562
97.4947
97.6515
97.5484
97.7292
97.5753
97.7766
97.5885
97.7465
97.6509
97.6665
97.4184
97.4405
97.5402
97.6481
97.7414
97.7415
97.7519
97.7327
97.2521
97.2604
97.2526
97.2792
97.2621
97.3181
97.2923
97.3823
97.3463
97.4618
97.4155
97.5557
97.4918
97.6541
97.5495
97.733
97.5756
97.7821
97.5879
97.7486
97.6636
97.6721
97.4091
97.4294
97.537
97.6498
97.744
97.7428
97.7523
97.7329
97.2008
97.2119
97.1991
97.235
97.2146
97.2802
97.2506
97.3543
97.3188
97.4476
97.4015
97.5491
97.4887
97.6558
97.5514
97.7379
97.5775
97.7892
97.5874
97.751
97.6785
97.6787
97.3983
97.4166
97.5335
97.652
97.7469
97.7444
97.7528
97.733
97.1625
97.1748
97.1644
97.2012
97.182
97.2517
97.2247
97.3376
97.297
97.445
97.3892
97.553
97.4855
97.6606
97.5531
97.7429
97.5774
97.7966
97.5856
97.7531
97.6958
97.6865
97.3857
97.4018
97.5296
97.6544
97.7503
97.7461
97.7532
97.7331
97.0857
97.1027
97.083
97.1373
97.109
97.1942
97.1637
97.2913
97.2609
97.417
97.3729
97.5394
97.4824
97.6619
97.5563
97.749
97.5799
97.806
97.5842
97.7553
97.7161
97.6957
97.3714
97.3849
97.5253
97.6574
97.754
97.7481
97.7538
97.7333
97.0306
97.0503
97.0342
97.0925
97.0722
97.1615
97.1319
97.2781
97.2352
97.4247
97.3604
97.5534
97.4794
97.6709
97.559
97.7554
97.5795
97.8157
97.5797
97.7569
97.7393
97.7064
97.355
97.3658
97.5207
97.6607
97.7582
97.7502
97.7543
97.7334
96.9166
96.9451
96.909
96.9945
96.9494
97.0679
97.0447
97.1993
97.1836
97.3788
97.3419
97.5289
97.4769
97.6695
97.5644
97.7629
97.5824
97.828
97.5777
97.7584
97.7663
97.719
97.3364
97.3443
97.5157
97.6647
97.7629
97.7525
97.7549
97.7336
96.829
96.8655
96.8369
96.9422
96.9043
97.0366
97.0055
97.2027
97.1592
97.405
97.3304
97.5584
97.4748
97.6899
97.5685
97.7703
97.5815
97.8408
97.5678
97.7586
97.7973
97.7335
97.3153
97.32
97.5103
97.6692
97.7681
97.7549
97.7555
97.7338
96.6594
96.7149
96.6435
96.8012
96.7328
96.8843
96.8877
97.0719
97.097
97.3275
97.3103
97.5213
97.4735
97.6858
97.5768
97.7795
97.585
97.8568
97.5652
97.7586
97.8338
97.7506
97.2915
97.2927
97.5045
97.6743
97.7738
97.7576
97.7562
97.7339
96.4469
96.5325
96.5074
96.7476
96.6479
96.8643
96.8333
97.1085
97.077
97.3823
97.3014
97.5727
97.4729
97.7087
97.5832
97.7865
97.5829
97.8737
97.5481
97.756
97.8645
97.7706
97.2646
97.2621
97.4985
97.6802
97.7801
97.7605
97.7568
97.7341
97.8332
97.2966
96.2057
96.5383
96.4601
96.6097
96.6822
96.9025
97.0173
97.2582
97.2905
97.5193
97.4737
97.7082
97.5957
97.7982
97.5879
97.8946
97.5421
97.7533
97.9279
97.7942
97.2344
97.2279
97.4921
97.687
97.787
97.7635
97.7575
97.7342
97.0878
97.3393
96.1565
96.4018
96.3031
96.5996
96.5878
96.9853
96.9934
97.3601
97.289
97.5897
97.4753
97.7346
97.6058
97.8068
97.5836
97.9172
97.5176
97.7461
97.9743
97.8217
97.2001
97.1896
97.4853
97.6946
97.7945
97.7667
97.7581
97.7344
96.5772
96.8301
95.6984
95.9321
95.9657
96.1575
96.3846
96.6833
96.9449
97.2201
97.2904
97.5294
97.4769
97.7388
97.6237
97.819
97.5896
97.9449
97.5028
97.739
98.0429
97.8537
97.1618
97.1468
97.4783
97.7034
97.8028
97.7702
97.7588
97.7345
96.2673
96.4288
95.4907
95.3925
95.5562
96.1877
96.1651
96.8094
96.9436
97.339
97.3055
97.623
97.4791
97.7699
97.6386
97.8284
97.5831
97.9754
97.4703
97.7239
98.1054
97.8909
97.1184
97.0987
97.4711
97.7133
97.8118
97.7738
97.7594
97.7346
95.1482
95.4197
94.618
94.4154
95.1323
95.5268
95.9338
96.441
96.9194
97.2404
97.3197
97.5636
97.4813
97.7783
97.6674
97.8409
97.5901
98.0125
97.4418
97.7098
98.1927
97.9339
97.0698
97.0467
97.4637
97.7245
97.8215
97.7775
97.76
97.7347
96.4989
95.6682
95.5224
94.5092
94.3971
95.6412
95.6444
96.5038
97.008
97.3858
97.3739
97.6662
97.4826
97.8187
97.6775
97.8503
97.5811
98.0542
97.3974
97.6821
98.2752
97.9838
97.0149
96.9841
97.456
97.7373
97.8322
97.7815
97.7606
97.7348
102.353
91.3085
93.7929
93.5275
94.3067
94.9008
95.4773
96.1768
97.0644
97.3719
97.3741
97.6152
97.4748
97.8294
97.7389
97.8617
97.5875
98.1051
97.3511
97.6578
98.3903
98.0416
96.953
96.9212
97.4489
97.7518
97.8438
97.7855
97.7612
97.7349
110.23
93.7191
93.5335
92.9468
93.3265
94.8554
94.9543
96.1343
97.3466
97.5576
97.4957
97.7264
97.47
97.8783
97.7301
97.871
97.5773
98.1614
97.2877
97.6109
98.4965
98.1092
96.884
96.8429
97.4395
97.7672
97.8561
97.7898
97.7617
97.7349
41.4294
92.7875
97.4834
92.7595
93.8399
94.5475
94.7531
95.8762
97.6548
97.6726
97.4655
97.6502
97.4166
97.9038
97.8322
97.8797
97.5794
98.2343
97.2177
97.5704
98.6502
98.1836
96.8033
96.7593
97.4356
97.7883
97.8706
97.7939
97.762
97.7348
39.0465
85.9126
89.077
89.4615
90.5462
94.0601
92.8829
95.6403
98.2622
98.0047
97.639
97.7899
97.4072
97.9265
97.8289
97.8956
97.5738
98.3095
97.1285
97.4968
98.7835
98.2773
96.7228
96.6813
97.4219
97.8035
97.8835
97.7985
97.7624
97.7348
66.0147
94.0122
95.9997
87.9708
88.6212
94.8455
91.8843
95.3871
99.4483
98.5137
97.572
97.6245
97.2496
98.0109
97.9343
97.8947
97.561
98.4152
97.0228
97.4267
98.9944
98.3765
96.6061
96.5411
97.4237
97.8372
97.903
97.8035
97.7624
97.7346
80.6465
107.119
84.9746
85.7401
83.0781
96.007
88.5128
95.1869
100.84
99.1234
97.7044
97.7726
97.2746
98.005
97.9354
97.9274
97.5709
98.5119
96.9073
97.3257
99.1469
98.4933
96.5223
96.4795
97.407
97.8485
97.914
97.8067
97.7628
97.7347
66.0871
65.2378
99.0904
39.4299
57.1279
68.3446
57.2752
73.9512
94.0831
85.8745
83.0967
83.1061
81.1762
86.6237
81.7614
85.3784
78.4414
87.8604
73.9661
81.2911
92.7131
89.1546
72.4901
73.2392
86.8447
94.8838
97.8961
97.8142
97.7623
97.7342
97.7276
97.7238
97.721
97.718
97.7154
97.7131
97.711
97.7091
97.7075
97.706
97.7047
97.7036
97.7026
97.7018
97.701
97.7004
97.6997
97.6993
97.6985
97.6986
97.697
97.6981
97.695
97.6979
97.6929
97.6978
97.6913
97.6971
97.6919
97.6952
97.7276
97.7238
97.721
97.718
97.7154
97.7131
97.711
97.7091
97.7075
97.706
97.7047
97.7036
97.7026
97.7018
97.701
97.7004
97.6997
97.6993
97.6985
97.6985
97.697
97.6981
97.695
97.6979
97.6929
97.6978
97.6913
97.6972
97.6919
97.6952
97.7276
97.7238
97.721
97.718
97.7154
97.7131
97.711
97.7091
97.7074
97.706
97.7047
97.7036
97.7026
97.7018
97.701
97.7004
97.6997
97.6993
97.6985
97.6985
97.697
97.6981
97.695
97.6979
97.6929
97.6978
97.6913
97.6972
97.6918
97.6952
97.7276
97.7238
97.7209
97.718
97.7154
97.713
97.711
97.7091
97.7074
97.706
97.7047
97.7036
97.7026
97.7018
97.701
97.7004
97.6997
97.6993
97.6985
97.6985
97.697
97.6981
97.6951
97.6979
97.6929
97.6978
97.6912
97.6972
97.6917
97.6953
97.7276
97.7238
97.7209
97.7179
97.7154
97.713
97.7109
97.7091
97.7074
97.706
97.7047
97.7036
97.7026
97.7018
97.701
97.7004
97.6997
97.6993
97.6985
97.6985
97.697
97.6981
97.6951
97.6979
97.6928
97.6978
97.6911
97.6973
97.6916
97.6953
97.7276
97.7238
97.7209
97.7179
97.7153
97.713
97.7109
97.709
97.7074
97.7059
97.7047
97.7036
97.7026
97.7017
97.701
97.7003
97.6997
97.6993
97.6985
97.6985
97.697
97.6981
97.6951
97.6979
97.6928
97.6978
97.691
97.6973
97.6915
97.6954
97.7276
97.7238
97.7209
97.7179
97.7153
97.713
97.7109
97.709
97.7073
97.7059
97.7046
97.7035
97.7026
97.7017
97.701
97.7003
97.6997
97.6993
97.6985
97.6985
97.697
97.6981
97.6951
97.698
97.6928
97.6978
97.6909
97.6974
97.6913
97.6955
97.7276
97.7238
97.7208
97.7178
97.7153
97.7129
97.7108
97.709
97.7073
97.7059
97.7046
97.7035
97.7025
97.7017
97.701
97.7003
97.6997
97.6993
97.6985
97.6985
97.697
97.6981
97.6951
97.698
97.6927
97.6979
97.6907
97.6975
97.6911
97.6956
97.7276
97.7237
97.7208
97.7178
97.7152
97.7129
97.7108
97.7089
97.7073
97.7058
97.7046
97.7035
97.7025
97.7017
97.7009
97.7003
97.6997
97.6993
97.6985
97.6985
97.6971
97.6981
97.6951
97.698
97.6927
97.6979
97.6905
97.6977
97.6908
97.6957
97.7276
97.7237
97.7208
97.7177
97.7151
97.7128
97.7107
97.7088
97.7072
97.7058
97.7045
97.7034
97.7025
97.7016
97.7009
97.7003
97.6997
97.6992
97.6985
97.6985
97.6971
97.6981
97.6951
97.698
97.6927
97.6979
97.6903
97.6978
97.6905
97.6959
97.7276
97.7237
97.7207
97.7177
97.7151
97.7127
97.7106
97.7088
97.7071
97.7057
97.7045
97.7034
97.7024
97.7016
97.7009
97.7003
97.6997
97.6992
97.6985
97.6985
97.6971
97.6981
97.6952
97.698
97.6926
97.698
97.6901
97.698
97.6901
97.6961
97.7276
97.7236
97.7206
97.7176
97.715
97.7126
97.7105
97.7087
97.7071
97.7057
97.7044
97.7033
97.7024
97.7016
97.7009
97.7002
97.6997
97.6992
97.6985
97.6985
97.6971
97.6981
97.6952
97.698
97.6926
97.698
97.6899
97.6981
97.6897
97.6964
97.7276
97.7236
97.7206
97.7175
97.7149
97.7126
97.7105
97.7086
97.707
97.7056
97.7044
97.7033
97.7024
97.7015
97.7008
97.7002
97.6996
97.6992
97.6985
97.6985
97.6972
97.6981
97.6953
97.698
97.6926
97.6981
97.6896
97.6983
97.6892
97.6967
97.7276
97.7236
97.7205
97.7174
97.7148
97.7125
97.7104
97.7085
97.7069
97.7055
97.7043
97.7032
97.7023
97.7015
97.7008
97.7002
97.6996
97.6992
97.6986
97.6985
97.6972
97.6981
97.6953
97.698
97.6925
97.6981
97.6893
97.6986
97.6886
97.6971
97.7276
97.7235
97.7204
97.7173
97.7147
97.7124
97.7103
97.7084
97.7068
97.7054
97.7042
97.7032
97.7023
97.7015
97.7008
97.7002
97.6996
97.6992
97.6986
97.6985
97.6973
97.6981
97.6954
97.6979
97.6925
97.6982
97.6889
97.6988
97.6879
97.6975
97.7275
97.7234
97.7203
97.7172
97.7146
97.7122
97.7102
97.7083
97.7067
97.7054
97.7041
97.7031
97.7022
97.7014
97.7007
97.7001
97.6996
97.6992
97.6986
97.6985
97.6973
97.6981
97.6954
97.6979
97.6925
97.6982
97.6885
97.6991
97.6871
97.698
97.7275
97.7234
97.7202
97.7171
97.7145
97.7121
97.7101
97.7082
97.7066
97.7053
97.7041
97.703
97.7021
97.7014
97.7007
97.7001
97.6996
97.6991
97.6986
97.6985
97.6974
97.6981
97.6955
97.6979
97.6924
97.6983
97.6881
97.6994
97.6861
97.6987
97.7274
97.7233
97.7201
97.717
97.7144
97.712
97.7099
97.7081
97.7065
97.7052
97.704
97.703
97.7021
97.7013
97.7006
97.7001
97.6996
97.6991
97.6986
97.6985
97.6974
97.6981
97.6956
97.6979
97.6924
97.6983
97.6877
97.6997
97.685
97.6995
97.7274
97.7232
97.7199
97.7169
97.7142
97.7119
97.7098
97.708
97.7064
97.7051
97.7039
97.7029
97.702
97.7012
97.7006
97.7
97.6995
97.6991
97.6986
97.6984
97.6975
97.698
97.6957
97.6979
97.6924
97.6984
97.6873
97.7001
97.6837
97.7003
97.7273
97.7231
97.7198
97.7167
97.7141
97.7117
97.7097
97.7079
97.7063
97.705
97.7038
97.7028
97.7019
97.7012
97.7005
97.7
97.6995
97.6991
97.6987
97.6984
97.6976
97.698
97.6958
97.6979
97.6925
97.6984
97.6868
97.7004
97.6822
97.7016
97.7272
97.7229
97.7197
97.7166
97.7139
97.7116
97.7095
97.7077
97.7062
97.7048
97.7037
97.7027
97.7019
97.7011
97.7005
97.6999
97.6995
97.6991
97.6987
97.6984
97.6977
97.698
97.6959
97.6979
97.6925
97.6984
97.6863
97.7008
97.6804
97.7025
97.7271
97.7228
97.7195
97.7164
97.7137
97.7114
97.7093
97.7076
97.706
97.7047
97.7036
97.7026
97.7018
97.7011
97.7004
97.6999
97.6995
97.699
97.6987
97.6984
97.6978
97.698
97.6961
97.6978
97.6926
97.6984
97.6858
97.7013
97.6784
97.7047
97.727
97.7227
97.7193
97.7162
97.7136
97.7112
97.7092
97.7074
97.7059
97.7046
97.7035
97.7025
97.7017
97.701
97.7004
97.6999
97.6994
97.699
97.6987
97.6984
97.6979
97.698
97.6962
97.6978
97.6926
97.6985
97.6852
97.7017
97.6759
97.7054
97.7268
97.7225
97.7191
97.716
97.7134
97.711
97.709
97.7073
97.7058
97.7045
97.7034
97.7024
97.7016
97.7009
97.7003
97.6998
97.6994
97.699
97.6988
97.6984
97.698
97.698
97.6964
97.6978
97.6928
97.6985
97.6847
97.7022
97.6732
97.7097
97.7267
97.7223
97.7189
97.7158
97.7132
97.7108
97.7088
97.7071
97.7056
97.7043
97.7032
97.7023
97.7015
97.7008
97.7002
97.6998
97.6994
97.699
97.6988
97.6984
97.6981
97.6979
97.6966
97.6977
97.6929
97.6984
97.6841
97.7025
97.6693
97.709
97.7264
97.7221
97.7187
97.7156
97.7129
97.7106
97.7086
97.7069
97.7054
97.7042
97.7031
97.7022
97.7014
97.7007
97.7002
97.6997
97.6993
97.6989
97.6988
97.6983
97.6982
97.6979
97.6969
97.6977
97.6932
97.6984
97.6838
97.7032
97.6663
97.7174
97.7263
97.722
97.7185
97.7154
97.7127
97.7104
97.7085
97.7067
97.7053
97.7041
97.703
97.7021
97.7013
97.7007
97.7001
97.6996
97.6993
97.6989
97.6989
97.6983
97.6983
97.6979
97.6971
97.6976
97.6933
97.6984
97.6831
97.7032
97.6598
97.7137
97.726
97.7216
97.7182
97.7151
97.7124
97.7101
97.7082
97.7065
97.7051
97.7038
97.7028
97.7019
97.7012
97.7006
97.7
97.6996
97.6992
97.6988
97.6989
97.6983
97.6984
97.6979
97.6974
97.6975
97.6938
97.6982
97.6833
97.704
97.6571
97.7287
97.7259
97.7216
97.7181
97.715
97.7123
97.71
97.7081
97.7064
97.705
97.7038
97.7027
97.7019
97.7011
97.7005
97.7
97.6995
97.6992
97.6988
97.6989
97.6983
97.6985
97.6978
97.6976
97.6975
97.6939
97.6982
97.6826
97.7038
97.6461
97.7203
97.7253
97.7211
97.7176
97.7145
97.7118
97.7096
97.7077
97.706
97.7046
97.7035
97.7025
97.7016
97.7009
97.7003
97.6998
97.6994
97.6991
97.6988
97.699
97.6983
97.685
97.6978
97.6339
97.6974
97.5223
97.6978
97.3384
97.7042
97.1806
97.7491
144.727
106.264
50.7391
3.0794
1.21696
5.39423
5.90005
7.052
13.177
9.80888
9.92398
8.16981
7.09802
8.72086
9.02407
11.2719
8.94024
14.177
8.68742
10.5315
15.2822
10.7959
1.52908
0.00293475
1.34734
1.82924
2.28185
1.43715
1.05194
0.598226
-39.1771
14.1416
11.0614
0.0490936
-0.249162
-0.0624655
-0.0563965
-0.0502616
-0.0291238
-0.0199715
-0.0119692
-0.00493074
-0.00681608
-0.00568903
-0.00462332
-0.0018466
-0.00127244
-0.00206491
7.0541e-05
-0.000322606
-0.0035391
-0.00098329
0.00052791
0.00165977
0.000479096
-0.000315087
-0.0004322
-0.000133627
-0.000146589
1.51091e-05
3.0431
-0.988972
-0.244529
-0.124603
0.0419498
-0.0616739
-0.00655212
-0.0194404
-0.0173938
-0.0126838
-0.0100322
-0.0033786
-0.00656611
-0.00452791
-0.00297009
-0.00191551
-0.00128992
-0.00202761
-0.000227634
-0.000308115
-0.00291428
-0.000993211
0.000223496
0.00187536
0.000480137
-0.000224497
-0.000408804
-0.000119361
-0.000143829
1.85571e-05
44.6291
0.0423325
0.208468
-0.0807234
0.059036
-0.0597818
0.011231
-0.0304847
-0.0111125
-0.00850758
-0.00881457
-0.00334617
-0.00572922
-0.00356691
-0.00317307
-0.00180902
-0.00133824
-0.00156399
-0.000493508
-0.000541392
-0.00230982
-0.000611569
9.35683e-05
0.00127161
0.000373136
-0.000156836
-0.000349492
-0.000107004
-0.000145116
1.50803e-05
67.4805
1.18172
-0.0164696
0.064162
0.030644
0.0132863
0.00659941
-0.00115326
-0.0058261
-0.00396478
-0.00674457
-0.00250342
-0.00460671
-0.00297579
-0.00234155
-0.00163377
-0.0012425
-0.00140314
-0.000614408
-0.000492463
-0.00196612
-0.00053139
2.64193e-05
0.00125581
0.000282348
-9.86096e-05
-0.000321173
-9.39139e-05
-0.000142856
1.52754e-05
31.105
0.0353546
0.198318
0.165193
0.0917252
0.0384855
0.0191683
0.00624657
-0.0021201
-0.000412525
-0.00507425
-0.00143986
-0.00344533
-0.00233358
-0.00192237
-0.00140332
-0.00112681
-0.00109926
-0.000684551
-0.000534853
-0.00158841
-0.000368141
-6.66068e-05
0.000936042
0.000213293
-5.96344e-05
-0.000284347
-8.22662e-05
-0.000140893
1.4398e-05
12.8866
0.0670601
-0.144253
-0.0572693
-0.0491977
-0.0299671
-0.0244432
-0.0108549
-0.0110008
-0.00354957
-0.00487835
-0.00129276
-0.00238425
-0.00175037
-0.00142263
-0.00112457
-0.000971804
-0.000920062
-0.00068707
-0.000470904
-0.00134808
-0.000275637
-9.92214e-05
0.000866198
0.000150609
-2.59667e-05
-0.000261321
-7.12532e-05
-0.000137965
1.39647e-05
45.4182
11.3961
-0.667565
-0.169525
-0.202442
-0.0562348
-0.0273288
-0.00855533
-0.00409926
-0.000157496
-0.00182625
8.0312e-06
-0.0012357
-0.00105667
-0.000953565
-0.000830317
-0.000793492
-0.000733518
-0.000659143
-0.000437351
-0.00113434
-0.000201683
-0.000150074
0.000682652
9.92501e-05
-3.76433e-06
-0.000238226
-6.12065e-05
-0.000134626
1.36287e-05
58.9795
31.1374
0.379465
0.0409836
0.0187657
0.0111202
0.00263895
0.00746561
0.000874789
0.00205098
-0.000188605
0.00112711
-0.000262413
-0.000387776
-0.00050568
-0.000541523
-0.000613061
-0.000577639
-0.00060896
-0.000379349
-0.000965139
-0.000144349
-0.00016817
0.000607438
5.68305e-05
1.45693e-05
-0.000219045
-5.21008e-05
-0.000130832
1.33631e-05
46.6509
0.325793
0.23256
0.133679
0.0131947
0.0176305
-0.00397589
0.0090495
0.00569117
0.00385253
0.0010378
0.00186725
0.000395635
0.000149853
-0.000111597
-0.000276702
-0.000440142
-0.000439427
-0.000548995
-0.000326906
-0.000825151
-0.000101876
-0.000190097
0.00049774
2.18912e-05
2.62216e-05
-0.000202443
-4.39227e-05
-0.000126677
1.31315e-05
1.67899
0.0270511
0.147685
0.10724
0.104971
0.146749
0.173191
0.146341
0.112614
0.0113614
0.00471291
0.00362281
0.00157714
0.000847554
0.000297663
-3.58278e-05
-0.000281279
-0.000320261
-0.000485283
-0.000276793
-0.000709761
-6.99418e-05
-0.000198501
0.000430398
-6.56391e-06
3.51621e-05
-0.000187884
-3.6636e-05
-0.000122206
1.29011e-05
0.194732
0.137454
0.0892213
0.066206
0.0596425
0.0355691
0.0174275
0.0149891
0.0163349
0.00646521
0.00241407
0.00361593
0.00130415
0.00105661
0.000526651
0.000140911
-0.000146934
-0.000221253
-0.000422894
-0.000231477
-0.000615184
-4.66188e-05
-0.000203493
0.000361759
-2.95908e-05
4.09213e-05
-0.00017493
-3.01968e-05
-0.000117459
1.26365e-05
0.366605
0.403408
0.0391191
0.0262367
0.0182769
0.0161555
0.0062494
0.0126415
0.00532808
0.00797477
0.00347482
0.0045451
0.00176445
0.00147504
0.00076885
0.000284669
-3.66422e-05
-0.000141658
-0.000364989
-0.00019195
-0.000536142
-2.97677e-05
-0.000204028
0.000307531
-4.79745e-05
4.45204e-05
-0.000163222
-2.45523e-05
-0.000112467
1.22416e-05
4.32926
0.406682
0.0317139
0.0279604
0.0225789
0.017521
0.0145662
0.0138491
0.00692504
0.00829036
0.0032475
0.00447453
0.00171458
0.00149344
0.000877756
0.000368022
4.49089e-05
-8.16089e-05
-0.000313763
-0.000158763
-0.000470219
-1.79733e-05
-0.000203139
0.0002616
-6.23396e-05
4.64772e-05
-0.000152467
-1.96468e-05
-0.000107254
1.18719e-05
5.14909
0.650349
0.0450854
0.0166045
0.0357113
0.0093688
0.0140901
0.00985294
0.00642964
0.00747924
0.00292693
0.00447981
0.00165568
0.00158837
0.000938039
0.000412366
9.90066e-05
-3.93654e-05
-0.000270362
-0.000131734
-0.000414669
-1.00789e-05
-0.000199235
0.000222901
-7.34028e-05
4.72744e-05
-0.000142423
-1.54227e-05
-0.000101837
1.14939e-05
-0.684402
-0.0240119
0.135905
-0.00536142
0.0458678
0.0112799
0.0110736
0.0126924
0.00488138
0.00845032
0.00239953
0.00451488
0.00159607
0.00146531
0.000934819
0.000412706
0.000126682
-1.31839e-05
-0.000235111
-0.00011051
-0.000367729
-5.1527e-06
-0.00019365
0.00019003
-8.10071e-05
4.67304e-05
-0.000132886
-1.18245e-05
-9.62313e-05
1.10881e-05
5.38748
3.1749
0.0466611
0.0512597
0.181403
-0.00163005
0.00315022
0.00500391
0.00295083
0.00562537
0.00183435
0.00341848
0.0014959
0.00123398
0.000862206
0.000381019
0.000131714
-5.65047e-07
-0.000207645
-9.43823e-05
-0.000327757
-2.4408e-06
-0.000186498
0.000161987
-8.57421e-05
4.52854e-05
-0.000123697
-8.79703e-06
-9.04494e-05
1.06416e-05
8.93784
8.28732
6.9968
0.368852
0.291527
0.122835
-0.00191497
0.00904217
0.000183586
0.00587975
0.00117886
0.00300433
0.00142447
0.00099472
0.000778301
0.000327572
0.00011923
1.52638e-06
-0.000187034
-8.25162e-05
-0.000293399
-1.31641e-06
-0.000178041
0.000137948
-8.79931e-05
4.31709e-05
-0.00011473
-6.28513e-06
-8.45014e-05
1.01463e-05
8.19892
8.15929
7.10043
0.564608
0.247196
0.197195
0.0115803
0.00380862
0.000691787
0.00319009
0.00106166
0.00178663
0.00117848
0.000754186
0.000642194
0.000260849
9.19747e-05
-4.51167e-06
-0.000172047
-7.40138e-05
-0.000263469
-1.26749e-06
-0.000168452
0.000117257
-8.80797e-05
4.05597e-05
-0.000105887
-4.23622e-06
-7.83964e-05
9.59738e-06
10.0765
3.19504
1.78976
0.161212
0.0142163
0.108921
-0.00583041
-0.000678785
-0.00268515
0.00177517
0.000758717
0.00110425
0.000953765
0.000524427
0.000502606
0.000188771
5.67426e-05
-1.53755e-05
-0.000161175
-6.79204e-05
-0.000236942
-1.86891e-06
-0.000157869
9.93799e-05
-8.62797e-05
3.75869e-05
-9.70931e-05
-2.60055e-06
-7.21445e-05
8.99271e-06
6.69196
0.747309
0.167655
0.0565696
0.0194425
0.0173617
0.00298661
0.0073955
0.000510168
0.00256874
0.000841056
0.000701615
0.000641287
0.000315067
0.000341895
0.000114756
1.803e-05
-2.88293e-05
-0.000152895
-6.33632e-05
-0.000212916
-2.77784e-06
-0.000146388
8.38738e-05
-8.28367e-05
3.43569e-05
-8.82928e-05
-1.33053e-06
-6.57548e-05
8.33216e-06
8.37149
0.48534
0.152421
0.0693939
0.0102377
0.0167886
0.00386385
0.00562785
0.000716656
0.0011971
0.000507138
0.000295361
0.000351127
0.000124842
0.000184626
4.56947e-05
-2.03618e-05
-4.22353e-05
-0.000145725
-5.95135e-05
-0.000190618
-3.72317e-06
-0.000134084
7.03683e-05
-7.79655e-05
3.09496e-05
-7.94454e-05
-3.8158e-07
-5.92365e-05
7.61722e-06
8.46824
0.586176
0.244586
0.190232
-0.00558972
0.00740957
-0.000279996
0.00207492
-0.000548872
-6.26997e-05
-0.000258578
-0.000191283
3.57212e-06
-5.39703e-05
3.76815e-05
-1.64565e-05
-5.49621e-05
-5.38822e-05
-0.000138345
-5.56925e-05
-0.000169403
-4.5008e-06
-0.000121021
5.85517e-05
-7.18584e-05
2.74263e-05
-7.05254e-05
2.88094e-07
-5.26008e-05
6.85085e-06
2.81385
0.884292
0.471289
0.230894
0.0312462
-0.00840057
-0.00802562
-0.00364008
-0.00318316
-0.00168717
-0.00106678
-0.00062612
-0.000287375
-0.00019793
-8.05665e-05
-6.74302e-05
-8.23327e-05
-6.19888e-05
-0.000129636
-5.1345e-05
-0.000148742
-4.96975e-06
-0.000107255
4.81508e-05
-6.46888e-05
2.38315e-05
-6.15162e-05
7.17962e-07
-4.58583e-05
6.03698e-06
0.201198
0.307555
0.295467
0.0965788
0.0269946
-0.0139464
-0.0131504
-0.0065972
-0.00463869
-0.00257904
-0.00157489
-0.000915402
-0.000487906
-0.000298882
-0.000158724
-0.000103227
-0.000100051
-6.54193e-05
-0.000118779
-4.60898e-05
-0.000128228
-5.04862e-06
-9.2841e-05
3.89245e-05
-5.66144e-05
2.01963e-05
-5.24102e-05
9.44975e-07
-3.90201e-05
5.18043e-06
0.188964
-0.0114619
-0.0134382
-0.0155296
-0.0118605
-0.0110839
-0.00916904
-0.00558209
-0.00408914
-0.00253848
-0.00164326
-0.000992312
-0.000572381
-0.000341385
-0.000198393
-0.000120109
-0.000106901
-6.3521e-05
-0.0001053
-3.97164e-05
-0.000107581
-4.71179e-06
-7.7842e-05
3.06567e-05
-4.77833e-05
1.65424e-05
-4.32087e-05
1.00386e-06
-3.20992e-05
4.28693e-06
0.567728
-0.00393777
-0.00809623
-0.00688632
-0.00734143
-0.00601565
-0.00524077
-0.00374471
-0.00297801
-0.00200739
-0.00139133
-0.00088542
-0.0005453
-0.000327834
-0.00020253
-0.000117965
-0.000103085
-5.62666e-05
-8.90785e-05
-3.21914e-05
-8.66404e-05
-3.98277e-06
-6.23268e-05
2.31471e-05
-3.83343e-05
1.28828e-05
-3.39179e-05
9.27737e-07
-2.51084e-05
3.36237e-06
0.623017
-0.00130182
-0.00354484
-0.00162107
-0.00146289
-0.00132224
-0.00150551
-0.00119857
-0.00158379
-0.00124318
-0.000972848
-0.000667765
-0.000442408
-0.000270701
-0.000178239
-9.91744e-05
-9.00469e-05
-4.42207e-05
-7.02637e-05
-2.36283e-05
-6.53793e-05
-2.91486e-06
-4.63962e-05
1.6214e-05
-2.84091e-05
9.22772e-06
-2.4554e-05
7.49956e-07
-1.80646e-05
2.41227e-06
0.506846
-0.00381936
-0.00258989
-9.22667e-05
0.000291601
0.000181675
0.00296873
-0.000128679
-0.000699666
-0.000592408
-0.000549464
-0.000404466
-0.000299477
-0.000181691
-0.000133949
-6.75074e-05
-7.01022e-05
-2.84973e-05
-4.91001e-05
-1.42375e-05
-4.39248e-05
-1.58171e-06
-3.02126e-05
9.68486e-06
-1.81627e-05
5.58656e-06
-1.51453e-05
5.04926e-07
-1.09914e-05
1.44238e-06
0.0595774
-0.00360242
-0.00240801
-0.000784977
-0.00018783
0.00138859
0.0029051
-0.000192677
-0.00051924
-0.000271349
-0.000280205
-0.000166007
-0.000146606
-7.71462e-05
-7.99418e-05
-2.77204e-05
-4.61043e-05
-1.02631e-05
-2.56429e-05
-3.77808e-06
-2.23324e-05
-1.55627e-07
-1.38741e-05
3.33273e-06
-7.69888e-06
1.92447e-06
-5.70504e-06
2.05641e-07
-3.89774e-06
4.67024e-07
0.45534
0.38168
0.325946
0.274145
0.231779
0.194319
0.163175
0.136171
0.113643
0.0943172
0.0781541
0.0644042
0.0529008
0.0431413
0.0349732
0.0280251
0.0221588
0.0171899
0.0101664
0.00910355
-8.76711e-05
0.00308912
-0.000126506
0.00264935
-0.000192322
0.0267621
-0.000472808
0.125073
-0.00498418
0.279983
-5.5109e-05
-1.18626e-05
-3.95395e-05
-8.81437e-06
-2.91068e-05
-1.07552e-05
-2.42593e-05
-1.60048e-05
-2.47106e-05
-2.31467e-05
-2.92724e-05
-3.15219e-05
-3.67288e-05
-4.1201e-05
-4.66171e-05
-5.27014e-05
-5.92675e-05
-6.72177e-05
-7.55613e-05
-8.66265e-05
-9.84561e-05
-0.000114673
-0.000129961
-0.000154843
-0.000167016
-0.000183549
-0.000134878
-0.000101009
0.000359391
0.000565781
-5.52532e-05
-9.03903e-06
-3.90336e-05
-6.57387e-06
-2.81087e-05
-8.94326e-06
-2.31415e-05
-1.44522e-05
-2.36132e-05
-2.17942e-05
-2.81701e-05
-3.02751e-05
-3.56142e-05
-3.99763e-05
-4.54017e-05
-5.14991e-05
-5.80439e-05
-6.64984e-05
-7.19677e-05
-8.60438e-05
-9.25937e-05
-0.000113154
-0.000128139
-0.000158286
-0.000198207
-0.00028722
-0.000489393
-0.000771737
-0.00202193
-0.00377495
-5.6526e-05
-1.20909e-05
-4.03843e-05
-9.00595e-06
-2.98233e-05
-1.09078e-05
-2.48741e-05
-1.61305e-05
-2.51187e-05
-2.32244e-05
-2.94522e-05
-3.15235e-05
-3.67441e-05
-4.10863e-05
-4.6403e-05
-5.23421e-05
-5.86334e-05
-6.66354e-05
-7.39535e-05
-8.59683e-05
-9.54952e-05
-0.000114008
-0.000126514
-0.000156578
-0.000167426
-0.000200252
-0.00017637
-0.000162124
-1.28452e-05
-6.94346e-05
-5.70551e-05
-1.20262e-05
-4.07605e-05
-8.92605e-06
-3.01267e-05
-1.07919e-05
-2.50741e-05
-1.59729e-05
-2.51409e-05
-2.29802e-05
-2.92388e-05
-3.10936e-05
-3.62473e-05
-4.04484e-05
-4.57386e-05
-5.16625e-05
-5.78889e-05
-6.59622e-05
-7.25745e-05
-8.51564e-05
-9.29094e-05
-0.000112946
-0.000123995
-0.000158444
-0.000179312
-0.00026517
-0.000358452
-0.000587956
-0.000833268
-0.00169749
-5.73362e-05
-1.30037e-05
-4.11976e-05
-9.79326e-06
-3.07541e-05
-1.1506e-05
-2.57243e-05
-1.65557e-05
-2.56693e-05
-2.34359e-05
-2.96279e-05
-3.14685e-05
-3.65513e-05
-4.06435e-05
-4.57476e-05
-5.14783e-05
-5.74803e-05
-6.53097e-05
-7.20917e-05
-8.4146e-05
-9.19563e-05
-0.000111581
-0.000120208
-0.000154818
-0.000159253
-0.000214291
-0.000192235
-0.000240509
-0.000105599
-0.000219581
-5.72853e-05
-1.34567e-05
-4.13714e-05
-1.0219e-05
-3.10813e-05
-1.18211e-05
-2.60441e-05
-1.67381e-05
-2.58351e-05
-2.34367e-05
-2.95434e-05
-3.11768e-05
-3.61531e-05
-4.01598e-05
-4.51901e-05
-5.08276e-05
-5.66844e-05
-6.43618e-05
-7.09143e-05
-8.27802e-05
-8.97919e-05
-0.000109657
-0.000115926
-0.000152426
-0.000154348
-0.000230855
-0.000236629
-0.00040788
-0.00032932
-0.000790149
-5.69268e-05
-1.37912e-05
-4.13344e-05
-1.05862e-05
-3.125e-05
-1.21031e-05
-2.6246e-05
-1.68953e-05
-2.59239e-05
-2.34412e-05
-2.94634e-05
-3.10461e-05
-3.58896e-05
-3.97445e-05
-4.46012e-05
-5.00651e-05
-5.57218e-05
-6.3196e-05
-6.94868e-05
-8.10981e-05
-8.73272e-05
-0.000107172
-0.000110927
-0.000147797
-0.000141199
-0.000207583
-0.000170646
-0.000261584
-0.000103795
-0.000243893
-5.62715e-05
-1.39835e-05
-4.10838e-05
-1.08548e-05
-3.12469e-05
-1.23007e-05
-2.63014e-05
-1.69578e-05
-2.58788e-05
-2.33187e-05
-2.92163e-05
-3.06673e-05
-3.53936e-05
-3.91251e-05
-4.38301e-05
-4.9122e-05
-5.45661e-05
-6.18127e-05
-6.77822e-05
-7.9112e-05
-8.44879e-05
-0.000104197
-0.000105518
-0.000142656
-0.000130451
-0.000200532
-0.000159018
-0.00028666
-0.000125595
-0.000384559
-5.53292e-05
-1.40425e-05
-4.06212e-05
-1.10279e-05
-3.10726e-05
-1.24158e-05
-2.62119e-05
-1.69304e-05
-2.57057e-05
-2.30939e-05
-2.88588e-05
-3.02055e-05
-3.478e-05
-3.83677e-05
-4.29028e-05
-4.80068e-05
-5.32218e-05
-6.02205e-05
-6.58221e-05
-7.68414e-05
-8.13241e-05
-0.000100778
-9.97786e-05
-0.000136698
-0.000119183
-0.000186454
-0.000131025
-0.000234019
-6.57809e-05
-0.000212266
-5.4105e-05
-1.39788e-05
-3.9951e-05
-1.11104e-05
-3.07306e-05
-1.24501e-05
-2.59805e-05
-1.68146e-05
-2.54069e-05
-2.27659e-05
-2.83737e-05
-2.96189e-05
-3.40349e-05
-3.7471e-05
-4.18243e-05
-4.67268e-05
-5.16972e-05
-5.84297e-05
-6.36301e-05
-7.43085e-05
-7.7892e-05
-9.69769e-05
-9.38566e-05
-0.000130212
-0.000108392
-0.000173758
-0.000111783
-0.00021556
-4.90713e-05
-0.000211362
-5.25833e-05
-1.38015e-05
-3.90803e-05
-1.11067e-05
-3.0226e-05
-1.24056e-05
-2.56106e-05
-1.66114e-05
-2.4985e-05
-2.23363e-05
-2.77689e-05
-2.89145e-05
-3.31609e-05
-3.64387e-05
-4.06002e-05
-4.52892e-05
-5.00018e-05
-5.64517e-05
-6.12298e-05
-7.15363e-05
-7.42434e-05
-9.28486e-05
-8.78517e-05
-0.000123314
-9.81187e-05