/*--------------------------------*- C++ -*----------------------------------*\
| =========                 |                                                 |
| \\      /  F ield         | OpenFOAM: The Open Source CFD Toolbox           |
|  \\    /   O peration     | Version:  2.4.0                                 |
|   \\  /    A nd           | Web:      www.OpenFOAM.org                      |
|    \\/     M anipulation  |                                                 |
\*---------------------------------------------------------------------------*/
FoamFile
{
    version     2.0;
    format      ascii;
    class       surfaceScalarField;
    location    "0.12";
    object      phiAlpha;
}
// * * * * * * * * * * * * * * * * * * * * * * * * * * * * * * * * * * * * * //

dimensions      [0 3 -1 0 0 0 0];

internalField   nonuniform List<scalar> 
7080
(
4.75767e-13
-4.75787e-13
1.83956e-12
-1.36411e-12
3.18554e-12
-1.34743e-12
5.71797e-12
-2.53467e-12
7.33534e-12
-1.62048e-12
1.25343e-11
-5.20481e-12
1.28965e-11
-3.67124e-13
2.21943e-11
-9.30279e-12
1.82184e-11
3.96932e-12
3.3294e-11
-1.50821e-11
2.10654e-11
1.22208e-11
4.12435e-11
-2.01847e-11
2.01878e-11
2.10476e-11
4.19996e-11
-2.1819e-11
2.00003e-11
2.19918e-11
3.95676e-11
-1.95735e-11
2.48689e-11
1.46921e-11
4.50111e-11
-2.01468e-11
2.66875e-11
1.83182e-11
2.28774e-11
3.80685e-12
-1.74008e-11
4.02752e-11
-2.42715e-10
2.25313e-10
-4.68347e-10
2.2563e-10
-5.42083e-10
7.37335e-11
-3.25593e-10
-2.1649e-10
-9.0946e-11
-2.34647e-10
6.39635e-11
-1.5491e-10
1.34988e-10
-7.10244e-11
1.29749e-10
5.23944e-12
2.10227e-11
1.08726e-10
1.62248e-14
-4.92604e-13
6.05816e-14
-1.4101e-12
8.23131e-14
-1.37244e-12
2.53417e-13
-2.71045e-12
-2.55424e-13
-1.11752e-12
1.25515e-12
-6.72431e-12
-9.4113e-13
1.82e-12
3.84151e-12
-1.40953e-11
-4.64574e-12
1.24451e-11
3.69538e-12
-2.34353e-11
-1.76847e-11
3.35876e-11
-7.60924e-12
-3.02728e-11
-4.36059e-11
5.7032e-11
-3.41364e-11
-3.13008e-11
-7.52898e-11
6.31332e-11
-6.75663e-11
-2.73069e-11
-9.76666e-11
4.47828e-11
-8.77114e-11
-3.01112e-11
-1.15786e-10
4.63861e-11
-1.28485e-10
1.64999e-11
-1.90611e-10
1.02397e-10
-4.24326e-10
4.59027e-10
-6.12412e-10
4.13713e-10
-6.0758e-10
6.8898e-11
-3.08718e-10
-5.15352e-10
-1.17558e-11
-5.3161e-10
1.51492e-10
-3.18159e-10
2.19015e-10
-1.38547e-10
1.9331e-10
3.09443e-11
5.85278e-11
1.55805e-10
-4.05291e-14
-4.52583e-13
-2.5451e-13
-1.19751e-12
-6.02741e-13
-1.02703e-12
-6.30864e-13
-2.68636e-12
-1.72134e-12
-3.19953e-14
-9.7802e-13
-7.47549e-12
-5.37986e-12
6.21411e-12
-2.33637e-12
-1.71474e-11
-1.56315e-11
2.57306e-11
-9.6595e-12
-2.94179e-11
-3.81961e-11
6.21124e-11
-3.10705e-11
-3.741e-11
-7.55474e-11
1.01499e-10
-7.02416e-11
-3.66177e-11
-1.1811e-10
1.10991e-10
-1.12193e-10
-3.32327e-11
-1.44394e-10
7.69756e-11
-1.31007e-10
-4.35077e-11
-1.5605e-10
7.14225e-11
-1.59499e-10
1.99437e-11
-2.12086e-10
1.5498e-10
-4.36693e-10
6.83633e-10
-6.14835e-10
5.91852e-10
-5.94903e-10
4.89625e-11
-2.86311e-10
-8.23943e-10
1.61311e-11
-8.34053e-10
1.75075e-10
-4.77104e-10
2.37394e-10
-2.00865e-10
2.05844e-10
6.24933e-11
9.71388e-11
1.67234e-10
2.04146e-13
-6.57226e-13
5.43818e-13
-1.53849e-12
6.23992e-13
-1.11001e-12
1.15276e-12
-3.21909e-12
3.62498e-14
1.07966e-12
8.07738e-13
-8.25491e-12
-4.35134e-12
1.13656e-11
-1.85165e-12
-1.96554e-11
-1.64293e-11
4.02989e-11
-1.12104e-11
-3.4647e-11
-4.21316e-11
9.30221e-11
-3.62199e-11
-4.33327e-11
-8.34642e-11
1.48733e-10
-7.8644e-11
-4.14485e-11
-1.27338e-10
1.59675e-10
-1.21374e-10
-3.92055e-11
-1.52052e-10
1.07646e-10
-1.36448e-10
-5.91212e-11
-1.58716e-10
9.36846e-11
-1.57655e-10
1.88777e-11
-2.05484e-10
2.02804e-10
-4.34137e-10
9.12285e-10
-6.1793e-10
7.75642e-10
-5.95961e-10
2.69904e-11
-2.81302e-10
-1.1386e-09
2.45684e-11
-1.13992e-09
1.82016e-10
-6.34552e-10
2.4198e-10
-2.60828e-10
2.08107e-10
9.63665e-11
1.39112e-10
1.66134e-10
1.90373e-13
-8.48106e-13
6.5769e-13
-2.00709e-12
1.03095e-12
-1.48609e-12
2.0735e-12
-4.26562e-12
1.68956e-12
1.45872e-12
3.65972e-12
-1.02333e-11
-1.59492e-12
1.66127e-11
1.84617e-12
-2.31046e-11
-1.44405e-11
5.65763e-11
-8.16511e-12
-4.09323e-11
-4.10389e-11
1.25885e-10
-3.4772e-11
-4.96103e-11
-8.33139e-11
1.97265e-10
-8.01732e-11
-4.45994e-11
-1.28733e-10
2.08225e-10
-1.24012e-10
-4.39353e-11
-1.52826e-10
1.36453e-10
-1.36531e-10
-7.54251e-11
-1.57185e-10
1.14333e-10
-1.52436e-10
1.4123e-11
-1.96936e-10
2.473e-10
-4.3459e-10
1.14994e-09
-6.28199e-10
9.69248e-10
-6.04938e-10
3.72647e-12
-2.81426e-10
-1.46212e-09
2.98454e-11
-1.45119e-09
1.86563e-10
-7.91271e-10
2.44497e-10
-3.18761e-10
2.09007e-10
1.31856e-10
1.82753e-10
1.65366e-10
1.73729e-13
-1.02237e-12
6.75201e-13
-2.50981e-12
1.03633e-12
-1.85001e-12
2.36276e-12
-5.59601e-12
1.36716e-12
2.44952e-12
3.91336e-12
-1.27877e-11
-1.72537e-12
2.2244e-11
2.55447e-12
-2.73923e-11
-1.40801e-11
7.32018e-11
-7.36813e-12
-4.76541e-11
-4.16921e-11
1.60198e-10
-3.58648e-11
-5.54482e-11
-8.67617e-11
2.48153e-10
-8.31731e-11
-4.81982e-11
-1.32046e-10
2.57088e-10
-1.27229e-10
-4.87601e-11
-1.54059e-10
1.63275e-10
-1.36145e-10
-9.33474e-11
-1.54856e-10
1.33039e-10
-1.46496e-10
5.75791e-12
-1.87275e-10
2.88075e-10
-4.3675e-10
1.39941e-09
-6.4284e-10
1.17534e-09
-6.17767e-10
-2.13496e-11
-2.82659e-10
-1.79722e-09
3.56576e-11
-1.76951e-09
1.91608e-10
-9.47222e-10
2.47101e-10
-3.74254e-10
2.09872e-10
1.69085e-10
2.27479e-10
1.65146e-10
2.11596e-13
-1.23451e-12
9.2689e-13
-3.22631e-12
1.74402e-12
-2.66991e-12
3.90284e-12
-7.75872e-12
4.14718e-12
2.20041e-12
8.2357e-12
-1.68849e-11
2.21326e-12
2.8259e-11
8.89386e-12
-3.40804e-11
-1.09609e-11
9.30475e-11
-2.32259e-12
-5.63018e-11
-3.95729e-11
1.97437e-10
-3.29707e-11
-6.20607e-11
-8.56301e-11
3.00803e-10
-8.48859e-11
-4.89522e-11
-1.33375e-10
3.05567e-10
-1.31056e-10
-5.1086e-11
-1.55258e-10
1.87469e-10
-1.36663e-10
-1.1195e-10
-1.53656e-10
1.50026e-10
-1.39736e-10
-8.16706e-12
-1.757e-10
3.24036e-10
-4.39728e-10
1.66344e-09
-6.61105e-10
1.39671e-09
-6.33615e-10
-4.88432e-11
-2.84193e-10
-2.14665e-09
4.27237e-11
-2.09643e-09
1.9767e-10
-1.10217e-09
2.50167e-10
-4.2675e-10
2.10882e-10
2.0837e-10
2.73262e-10
1.65099e-10
1.74145e-13
-1.40923e-12
1.02614e-12
-4.07942e-12
1.9981e-12
-3.64459e-12
4.9625e-12
-1.07269e-11
3.99333e-12
3.16502e-12
9.04256e-12
-2.19428e-11
1.99617e-12
3.52983e-11
9.55588e-12
-4.16473e-11
-1.11926e-11
1.13787e-10
-2.32545e-12
-6.5178e-11
-4.13239e-11
2.36425e-10
-3.57072e-11
-6.76875e-11
-9.20165e-11
3.57103e-10
-9.0459e-11
-5.05194e-11
-1.39478e-10
3.54577e-10
-1.36528e-10
-5.40437e-11
-1.57552e-10
2.08486e-10
-1.36397e-10
-1.33114e-10
-1.50571e-10
1.64194e-10
-1.31226e-10
-2.75169e-11
-1.61676e-10
3.54482e-10
-4.43275e-10
1.94504e-09
-6.83008e-10
1.63644e-09
-6.5245e-10
-7.94042e-11
-2.85868e-10
-2.51323e-09
5.12195e-11
-2.43352e-09
2.04852e-10
-1.2558e-09
2.53746e-10
-4.75644e-10
2.12044e-10
2.50072e-10
3.20223e-10
1.65084e-10
2.10996e-13
-1.6208e-12
1.4462e-12
-5.31561e-12
3.35015e-12
-5.55114e-12
7.90591e-12
-1.52862e-11
9.05087e-12
2.01571e-12
1.65344e-11
-2.94354e-11
8.68969e-12
4.31363e-11
2.01102e-11
-5.30741e-11
-5.46286e-12
1.39352e-10
7.07751e-12
-7.77268e-11
-3.77511e-11
2.81243e-10
-3.11263e-11
-7.43219e-11
-8.98486e-11
4.15817e-10
-9.30969e-11
-4.72805e-11
-1.40975e-10
4.02446e-10
-1.42184e-10
-5.28424e-11
-1.59734e-10
2.26029e-10
-1.37638e-10
-1.55218e-10
-1.49841e-10
1.76392e-10
-1.21992e-10
-5.53707e-11
-1.45049e-10
3.77535e-10
-4.4728e-10
2.24727e-09
-7.08696e-10
1.89785e-09
-6.74348e-10
-1.13755e-10
-2.87604e-10
-2.89997e-09
6.12448e-11
-2.78236e-09
2.13176e-10
-1.40773e-09
2.57817e-10
-5.20284e-10
2.13327e-10
2.94562e-10
3.68522e-10
1.65028e-10
4.18622e-13
-2.04002e-12
2.29633e-12
-7.19403e-12
4.30097e-12
-7.55817e-12
1.02303e-11
-2.12187e-11
8.73237e-12
3.50973e-12
1.80703e-11
-3.87822e-11
8.45501e-12
5.27455e-11
2.07016e-11
-6.53263e-11
-7.00183e-12
1.67048e-10
4.69423e-12
-8.94306e-11
-4.13295e-11
3.27258e-10
-3.68592e-11
-7.88014e-11
-1.00626e-10
4.79576e-10
-1.02242e-10
-4.56743e-11
-1.50677e-10
4.50873e-10
-1.50328e-10
-5.31991e-11
-1.62659e-10
2.38354e-10
-1.36709e-10
-1.81177e-10
-1.4537e-10
1.85048e-10
-1.09937e-10
-9.08079e-11
-1.25198e-10
3.92792e-10
-4.51711e-10
2.57378e-09
-7.38516e-10
2.18466e-09
-6.99555e-10
-1.5272e-10
-2.89383e-10
-3.31014e-09
7.29123e-11
-3.14466e-09
2.22703e-10
-1.55753e-09
2.62402e-10
-5.59982e-10
2.14738e-10
3.42225e-10
4.18326e-10
1.64934e-10
6.61184e-13
-2.70177e-12
3.20483e-12
-9.73809e-12
5.91167e-12
-1.02672e-11
1.39309e-11
-2.92407e-11
1.66685e-11
7.68728e-13
3.08058e-11
-5.29292e-11
2.02053e-11
6.33406e-11
3.79155e-11
-8.30408e-11
2.79425e-12
2.02163e-10
2.00671e-11
-1.0671e-10
-3.45118e-11
3.81828e-10
-2.91845e-11
-8.41372e-11
-9.59807e-11
5.46364e-10
-1.05666e-10
-3.59983e-11
-1.51821e-10
4.9702e-10
-1.57957e-10
-4.707e-11
-1.66312e-10
2.46702e-10
-1.3922e-10
-2.08277e-10
-1.45897e-10
1.91721e-10
-9.80188e-11
-1.38691e-10
-1.0216e-10
3.9693e-10
-4.56539e-10
2.92816e-09
-7.72815e-10
2.50093e-09
-7.28301e-10
-1.97237e-10
-2.91154e-10
-3.74729e-09
8.63464e-11
-3.52216e-09
2.33478e-10
-1.70466e-09
2.67493e-10
-5.93996e-10
2.16267e-10
3.93451e-10
4.69792e-10
1.64802e-10
1.15571e-12
-3.85805e-12
5.24638e-12
-1.38286e-11
8.39188e-12
-1.34146e-11
2.10295e-11
-4.18808e-11
1.96169e-11
2.17852e-12
3.67571e-11
-7.0079e-11
2.11635e-11
7.89298e-11
3.74587e-11
-9.93393e-11
-1.213e-12
2.40829e-10
1.22747e-11
-1.20204e-10
-4.20471e-11
4.36142e-10
-4.08912e-11
-8.53011e-11
-1.14151e-10
6.19616e-10
-1.20093e-10
-3.00649e-11
-1.66163e-10
5.43081e-10
-1.69361e-10
-4.38782e-11
-1.69424e-10
2.46759e-10
-1.36706e-10
-2.41003e-10
-1.39586e-10
1.94596e-10
-8.14572e-11
-1.96823e-10
-7.47952e-11
3.90264e-10
-4.61606e-10
3.31497e-09
-8.11918e-10
2.85124e-09
-7.60779e-10
-2.48379e-10
-2.92831e-10
-4.21524e-09
1.01682e-10
-3.91667e-09
2.4553e-10
-1.84851e-09
2.7306e-10
-6.21525e-10
2.17882e-10
4.48629e-10
5.23062e-10
1.64612e-10
2.03361e-12
-5.89205e-12
8.73312e-12
-2.05275e-11
1.47434e-11
-1.94264e-11
3.34163e-11
-6.05557e-11
3.81174e-11
-2.52499e-12
6.03014e-11
-9.22741e-11
4.01056e-11
9.91219e-11
6.42074e-11
-1.23443e-10
1.32258e-11
2.91805e-10
3.6107e-11
-1.4309e-10
-2.86689e-11
5.00911e-10
-2.72917e-11
-8.66855e-11
-1.04343e-10
6.96661e-10
-1.24091e-10
-1.03243e-11
-1.66523e-10
5.85505e-10
-1.79321e-10
-3.10869e-11
-1.75262e-10
2.42695e-10
-1.41311e-10
-2.74962e-10
-1.42644e-10
1.95924e-10
-6.67921e-11
-2.72679e-10
-4.34679e-11
3.66937e-10
-4.6694e-10
3.73844e-09
-8.56359e-10
3.24066e-09
-7.97354e-10
-3.07388e-10
-2.94369e-10
-4.71822e-09
1.19089e-10
-4.33013e-09
2.58938e-10
-1.98836e-09
2.79117e-10
-6.41703e-10
2.19588e-10
5.08158e-10
5.78286e-10
1.64363e-10
4.07556e-12
-9.96757e-12
1.63488e-11
-3.27992e-11
2.1841e-11
-2.49197e-11
5.04356e-11
-8.91513e-11
4.62015e-11
1.70702e-12
7.01859e-11
-1.16269e-10
4.13823e-11
1.27923e-10
5.93759e-11
-1.41437e-10
3.18704e-12
3.4799e-10
1.61578e-11
-1.56065e-10
-4.52224e-11
5.62285e-10
-5.006e-11
-8.18545e-11
-1.3495e-10
7.81545e-10
-1.45992e-10
7.10299e-13
-1.86442e-10
6.25947e-10
-1.94534e-10
-2.30004e-11
-1.78083e-10
2.26239e-10
-1.3612e-10
-3.16933e-10
-1.33913e-10
1.93713e-10
-4.43479e-11
-3.62248e-10
-5.5948e-12
3.28181e-10
-4.72323e-10
4.20517e-09
-9.06649e-10
3.67498e-09
-8.38371e-10
-3.7567e-10
-2.95687e-10
-5.2609e-09
1.38758e-10
-4.76458e-09
2.73765e-10
-2.12337e-09
2.85652e-10
-6.53589e-10
2.21369e-10
5.7244e-10
6.35611e-10
1.64044e-10
7.45119e-12
-1.74179e-11
2.73983e-11
-5.27436e-11
3.39498e-11
-3.14717e-11
7.25369e-11
-1.27738e-10
7.51452e-11
-9.03787e-13
1.06258e-10
-1.47396e-10
6.97325e-11
1.64446e-10
1.01498e-10
-1.73201e-10
2.64983e-11
4.22987e-10
5.26999e-11
-1.8227e-10
-1.74058e-11
6.32386e-10
-2.44168e-11
-7.48492e-11
-1.15042e-10
8.72164e-10
-1.50477e-10
3.6138e-11
-1.86149e-10
6.61613e-10
-2.07506e-10
-1.64837e-12
-1.86778e-10
2.05506e-10
-1.43571e-10
-3.60148e-10
-1.41464e-10
1.91602e-10
-2.72137e-11
-4.76502e-10
3.35989e-11
2.67366e-10
-4.77799e-10
4.71656e-09
-9.63365e-10
4.16055e-09
-8.84138e-10
-4.549e-10
-2.96663e-10
-5.84838e-09
1.60893e-10
-5.22213e-09
2.90056e-10
-2.25253e-09
2.92627e-10
-6.56159e-10
2.23191e-10
6.41876e-10
6.95154e-10
1.63649e-10
1.59608e-11
-3.33769e-11
5.85697e-11
-9.53474e-11
5.18703e-11
-2.4773e-11
1.10034e-10
-1.85902e-10
1.00892e-10
8.23506e-12
1.25287e-10
-1.71808e-10
7.34445e-11
2.16288e-10
8.36647e-11
-1.83421e-10
7.35484e-13
5.05911e-10
6.96242e-12
-1.88499e-10
-5.17949e-11
6.91137e-10
-6.5229e-11
-6.14205e-11
-1.66098e-10
9.73028e-10
-1.82068e-10
5.21017e-11
-2.11564e-10
6.91103e-10
-2.26808e-10
1.35895e-11
-1.88983e-10
1.67677e-10
-1.34637e-10
-4.14502e-10
-1.29478e-10
1.86439e-10
3.48977e-12
-6.09474e-10
8.10933e-11
1.8976e-10
-4.82919e-10
5.28057e-09
-1.02712e-09
4.70475e-09
-9.35167e-10
-5.46861e-10
-2.97212e-10
-6.48633e-09
1.85759e-10
-5.7051e-09
3.07914e-10
-2.37469e-09
3.00048e-10
-6.48293e-10
2.25052e-10
7.16873e-10
7.57003e-10
1.63202e-10
9.1452e-12
-4.23197e-11
5.46714e-11
-1.40474e-10
6.24659e-11
-3.2557e-11
1.59293e-10
-2.82734e-10
1.60407e-10
7.11777e-12
1.92434e-10
-2.03855e-10
1.15212e-10
2.93506e-10
1.43461e-10
-2.11667e-10
3.55563e-11
6.13812e-10
6.11174e-11
-2.14062e-10
4.05418e-12
7.48195e-10
-1.80243e-11
-3.93463e-11
-1.29143e-10
1.08414e-09
-1.88288e-10
1.1124e-10
-2.12069e-10
7.14878e-10
-2.43854e-10
4.53694e-11
-2.00917e-10
1.24737e-10
-1.45379e-10
-4.70047e-10
-1.44203e-10
1.8526e-10
2.23779e-11
-7.76059e-10
1.33736e-10
7.84001e-11
-4.8822e-10
5.90253e-09
-1.09901e-09
5.31554e-09
-9.91971e-10
-6.53908e-10
-2.97207e-10
-7.1811e-09
2.13685e-10
-6.216e-09
3.27421e-10
-2.48842e-09
3.07898e-10
-6.28768e-10
2.26929e-10
7.97841e-10
8.21232e-10
1.62701e-10
-1.37303e-11
-2.82473e-11
-2.0869e-11
-1.32383e-10
4.61867e-12
-5.81267e-11
2.28348e-10
-5.06464e-10
2.32159e-10
3.29955e-12
2.19249e-10
-1.90968e-10
1.07196e-10
4.05555e-10
8.39512e-11
-1.88424e-10
-3.17066e-11
7.29464e-10
-3.10301e-11
-2.14743e-10
-6.30221e-11
7.80184e-10
-8.41796e-11
-1.81936e-11
-2.11504e-10
1.21146e-09
-2.32373e-10
1.32103e-10
-2.41616e-10
7.24117e-10
-2.67179e-10
7.09279e-11
-2.02454e-10
6.0009e-11
-1.31759e-10
-5.4075e-10
-1.28529e-10
1.82026e-10
6.27175e-11
-9.67308e-10
2.02937e-10
-6.18217e-11
-4.91889e-10
6.59735e-09
-1.17919e-09
6.00284e-09
-1.05495e-09
-7.78154e-10
-2.96471e-10
-7.93958e-09
2.45429e-10
-6.7579e-09
3.48638e-10
-2.59163e-09
3.16122e-10
-5.96251e-10
2.28776e-10
8.85187e-10
8.87893e-10
1.62115e-10
6.91486e-12
-3.51633e-11
-9.86612e-13
-1.24474e-10
3.84767e-11
-9.75004e-11
3.57713e-10
-8.24839e-10
3.32494e-10
2.87246e-11
3.28308e-10
-1.86807e-10
1.50267e-10
5.83585e-10
1.5124e-10
-1.89401e-10
2.88857e-11
8.51803e-10
5.08617e-11
-2.36725e-10
4.37993e-11
7.87241e-10
-2.09354e-12
2.76957e-11
-1.51218e-10
1.36058e-09
-2.41992e-10
2.22872e-10
-2.44857e-10
7.26977e-10
-2.8968e-10
1.15746e-10
-2.17837e-10
-1.18356e-11
-1.45807e-10
-6.12788e-10
-1.53052e-10
1.89268e-10
8.35525e-11
-1.20392e-09
2.71841e-10
-2.50112e-10
-4.97505e-10
7.3667e-09
-1.26996e-09
6.77529e-09
-1.12503e-09
-9.23086e-10
-2.94862e-10
-8.76974e-09
2.81785e-10
-7.33454e-09
3.71692e-10
-2.68154e-09
3.24717e-10
-5.49275e-10
2.30582e-10
9.79322e-10
9.57033e-10
1.61442e-10
3.47033e-11
-6.9867e-11
9.52496e-11
-1.85e-10
5.17225e-11
-5.27893e-11
4.13916e-10
-1.18745e-09
4.08888e-10
3.38281e-11
3.08249e-10
-8.62264e-11
6.21057e-11
8.29664e-10
-2.67775e-11
-1.00516e-10
-1.2303e-10
9.48042e-10
-1.14531e-10
-2.4523e-10
-7.22777e-11
7.44979e-10
-9.88055e-11
5.42184e-11
-2.7627e-10
1.53804e-09
-3.02468e-10
2.49064e-10
-2.75242e-10
6.99747e-10
-3.1567e-10
1.5617e-10
-2.18716e-10
-1.08791e-10
-1.26926e-10
-7.04585e-10
-1.34789e-10
1.97129e-10
1.3678e-10
-1.47549e-09
3.64691e-10
-4.78023e-10
-4.97492e-10
8.22888e-09
-1.37041e-09
7.64821e-09
-1.20235e-09
-1.09115e-09
-2.92188e-10
-9.6799e-09
3.21098e-10
-7.94783e-09
3.96686e-10
-2.75713e-09
3.33645e-10
-4.86233e-10
2.32312e-10
1.08066e-09
1.02868e-09
1.60663e-10
2.66432e-11
-9.69447e-11
1.55295e-10
-3.13632e-10
2.02221e-10
-9.80364e-11
4.21382e-10
-1.40693e-09
2.99545e-10
1.55551e-10
2.96637e-10
-8.33283e-11
2.02704e-11
1.10598e-09
-2.84734e-11
-5.17917e-11
-4.03864e-11
9.59957e-10
-8.52434e-12
-2.771e-10
1.12403e-10
6.24041e-10
4.98977e-11
1.16721e-10
-1.84448e-10
1.77239e-09
-3.18489e-10
3.83099e-10
-2.85034e-10
6.6629e-10
-3.46084e-10
2.17217e-10
-2.37657e-10
-2.17219e-10
-1.43681e-10
-7.98568e-10
-1.7286e-10
2.26306e-10
1.57495e-10
-1.80585e-09
4.53191e-10
-7.7372e-10
-5.03471e-10
9.18554e-09
-1.48517e-09
8.62991e-09
-1.28894e-09
-1.28738e-09
-2.88197e-10
-1.06806e-08
3.64488e-10
-8.60051e-09
4.23707e-10
-2.81635e-09
3.42838e-10
-4.05364e-10
2.3391e-10
1.18958e-09
1.10285e-09
1.59745e-10
-3.44038e-12
-9.33609e-11
1.14447e-10
-4.31514e-10
2.02429e-10
-1.83422e-10
1.50501e-10
-1.35503e-09
-3.73393e-11
3.43325e-10
-5.48494e-11
-6.58387e-11
-1.40162e-10
1.19126e-09
-3.10255e-10
1.18285e-10
-2.7747e-10
9.27173e-10
-2.45246e-10
-3.0934e-10
-5.20835e-11
4.30876e-10
-7.4451e-11
1.39084e-10
-3.6509e-10
2.06302e-09
-4.02652e-10
4.20654e-10
-3.08801e-10
5.72437e-10
-3.71298e-10
2.79711e-10
-2.38509e-10
-3.50007e-10
-1.20182e-10
-9.169e-10
-1.55048e-10
2.61169e-10
2.2616e-10
-2.18706e-09
5.77512e-10
-1.12507e-09
-4.97624e-10
1.02607e-08
-1.6108e-09
9.74308e-09
-1.38301e-09
-1.51517e-09
-2.82508e-10
-1.17812e-08
4.12542e-10
-9.29556e-09
4.52864e-10
-2.85667e-09
3.52253e-10
-3.04752e-10
2.35353e-10
1.30648e-09
1.17951e-09
1.58694e-10
4.66655e-11
-1.3557e-10
1.88935e-10
-5.77373e-10
3.20435e-10
-3.17644e-10
1.44082e-11
-1.04707e-09
-4.57446e-10
8.15163e-10
-2.74198e-10
-2.49064e-10
-1.61679e-10
1.07875e-09
-2.7491e-10
2.31485e-10
-6.80209e-11
7.20279e-10
-3.65983e-11
-3.40785e-10
2.63445e-10
1.30826e-10
1.82166e-10
2.20363e-10
-2.3143e-10
2.47661e-09
-4.30974e-10
6.20191e-10
-3.32095e-10
4.73557e-10
-4.12238e-10
3.59852e-10
-2.6219e-10
-5.00054e-10
-1.39283e-10
-1.03981e-09
-2.10634e-10
3.32518e-10
2.45119e-10
-2.64281e-09
6.88581e-10
-1.56853e-09
-5.03875e-10
1.14531e-08
-1.75561e-09
1.09948e-08
-1.49098e-09
-1.77981e-09
-2.75651e-10
-1.29965e-08
4.65902e-10
-1.00371e-08
4.84418e-10
-2.87519e-09
3.61918e-10
-1.82251e-10
2.36617e-10
1.43178e-09
1.25862e-09
1.575e-10
4.53159e-12
-1.40279e-10
-1.51868e-10
-4.21988e-10
-1.47796e-10
-3.2232e-10
-6.42424e-10
-5.52424e-10
-6.96723e-10
8.69428e-10
-6.92551e-10
-2.53221e-10
-4.51302e-10
8.3751e-10
-6.23375e-10
4.0353e-10
-5.20621e-10
6.17521e-10
-3.18988e-10
-5.42443e-10
9.44488e-11
-2.82619e-10
1.45217e-11
3.0029e-10
-5.20938e-10
3.01205e-09
-5.61114e-10
6.60358e-10
-3.35499e-10
2.47941e-10
-4.30076e-10
4.54427e-10
-2.6385e-10
-6.66278e-10
-1.12443e-10
-1.19123e-09
-2.0122e-10
4.21293e-10
3.31038e-10
-3.17507e-09
8.58705e-10
-2.0962e-09
-4.89356e-10
1.28012e-08
-1.91458e-09
1.242e-08
-1.60463e-09
-2.08975e-09
-2.64289e-10
-1.43368e-08
5.25164e-10
-1.08266e-08
5.18196e-10
-2.86822e-09
3.71501e-10
-3.5555e-11
2.37568e-10
1.56572e-09
1.34006e-09
1.56131e-10
7.58056e-11
-2.22004e-10
2.4854e-11
-3.70546e-10
5.38029e-11
-3.51624e-10
-1.39585e-10
-3.59066e-10
-2.13399e-10
9.43195e-10
-3.32771e-10
-1.33845e-10
2.50946e-10
2.53782e-10
-9.43365e-11
7.48792e-10
-1.73142e-10
6.96323e-10
-3.42152e-11
-6.81395e-10
5.54609e-10
-8.71451e-10
4.40733e-10
4.14171e-10
-2.96409e-10
3.74918e-09
-6.03162e-10
9.67101e-10
-3.79615e-10
2.43934e-11
-4.80234e-10
5.55045e-10
-2.92649e-10
-8.5386e-10
-1.33374e-10
-1.3505e-09
-2.77406e-10
5.65325e-10
3.45781e-10
-3.79826e-09
9.92598e-10
-2.74302e-09
-4.96127e-10
1.42899e-08
-2.0936e-09
1.40175e-08
-1.73825e-09
-2.44511e-09
-2.55879e-10
-1.58192e-08
5.89447e-10
-1.16719e-08
5.54445e-10
-2.83322e-09
3.8142e-10
1.37471e-10
2.38311e-10
1.70883e-09
1.42375e-09
1.54626e-10
-7.33098e-10
5.10935e-10
-8.69091e-10
-2.34619e-10
-1.36765e-09
1.46923e-10
-1.29043e-09
-4.36296e-10
-8.64689e-10
5.17449e-10
-5.69855e-10
-4.28635e-10
-2.3118e-10
-8.49058e-11
-4.39798e-10
9.5738e-10
-4.6561e-10
7.22137e-10
-2.04208e-10
-9.42823e-10
3.56314e-10
-1.43198e-09
1.20707e-10
6.49786e-10
-8.18084e-10
4.68798e-09
-8.27672e-10
9.7668e-10
-3.14199e-10
-4.8908e-10
-4.5062e-10
6.91466e-10
-2.81487e-10
-1.02299e-09
-9.92068e-11
-1.53279e-09
-2.85426e-10
7.51543e-10
4.52791e-10
-4.53648e-09
1.23343e-09
-3.52365e-09
-4.66498e-10
1.59898e-08
-2.30038e-09
1.58514e-08
-1.879e-09
-2.86649e-09
-2.33284e-10
-1.74649e-08
6.66243e-10
-1.25714e-08
5.95007e-10
-2.76198e-09
3.9118e-10
3.41299e-10
2.3855e-10
1.86146e-09
1.5094e-09
1.52892e-10
-4.52427e-10
9.63272e-10
-5.26858e-10
-1.48203e-10
-4.77622e-10
9.76865e-11
-4.02945e-11
-8.72441e-10
1.00984e-09
-5.32521e-10
3.89863e-10
1.91615e-10
3.43586e-10
-3.86075e-11
2.35594e-10
1.06536e-09
6.2844e-10
3.29288e-10
6.77986e-10
-9.92388e-10
7.65011e-10
-1.51901e-09
2.64146e-10
1.15065e-09
-7.25228e-10
5.67735e-09
-8.74826e-10
1.12627e-09
-2.71764e-10
-1.09214e-09
-3.62599e-10
7.82301e-10
-2.04572e-10
-1.18101e-09
-6.68569e-11
-1.6705e-09
-3.37733e-10
1.02242e-09
4.75757e-10
-5.34997e-09
1.39077e-09
-4.43866e-09
-4.66891e-10
1.78475e-08
-2.50108e-09
1.78856e-08
-2.02844e-09
-3.33913e-09
-2.21937e-10
-1.92714e-08
7.39552e-10
-1.35329e-08
6.34385e-10
-2.65682e-09
4.01046e-10
5.74639e-10
2.39007e-10
2.0235e-09
1.59702e-09
1.51386e-10
4.12665e-10
4.1075e-10
2.49094e-10
8.1766e-12
2.21782e-10
1.48532e-10
9.92514e-10
-1.64542e-09
6.7042e-10
-2.11721e-10
5.70701e-10
2.91537e-10
5.3415e-10
-2.06015e-12
3.45689e-10
1.25379e-09
9.39918e-10
-2.64936e-10
1.39569e-09
-1.44821e-09
2.48907e-10
-3.72235e-10
-5.58432e-10
1.95797e-09
-4.7883e-10
5.59771e-09
-6.31864e-10
1.27929e-09
5.0546e-10
-2.22947e-09
3.68207e-10
9.19553e-10
2.54645e-10
-1.06745e-09
2.65792e-10
-1.68164e-09
-1.48274e-10
1.43648e-09
7.16299e-10
-6.21454e-09
1.82491e-09
-5.54727e-09
-3.38783e-10
2.00112e-08
-2.71262e-09
2.02594e-08
-2.17683e-09
-3.87493e-09
-1.63901e-10
-2.12843e-08
8.59825e-10
-1.45566e-08
6.95921e-10
-2.49292e-09
4.17268e-10
8.53293e-10
2.41359e-10
2.19941e-09
1.68706e-09
1.51329e-10
5.97594e-11
3.59551e-10
-1.07755e-09
1.00082e-09
-8.77079e-10
-4.70971e-11
-4.28599e-10
-2.07789e-09
-1.04094e-09
4.00751e-10
5.75222e-10
-1.32382e-09
1.96505e-09
-1.39104e-09
2.16487e-09
1.05402e-09
2.7144e-09
-8.1449e-10
3.47998e-09
-2.21376e-09
7.34527e-10
2.37324e-09
-1.61046e-09
4.30289e-09
-1.56206e-09
5.54934e-09
4.44381e-12
-2.87223e-10
3.22048e-09
-5.4455e-09
2.65191e-09
1.48812e-09
1.87692e-09
-2.92481e-10
1.44622e-09
-1.25092e-09
6.91455e-10
2.19124e-09
1.14484e-09
-6.66792e-09
2.25515e-09
-6.65757e-09
-7.39286e-11
2.23402e-08
-2.60625e-09
2.27917e-08
-2.08776e-09
-4.39343e-09
-8.07859e-12
-2.3364e-08
1.0085e-09
-1.55732e-08
7.7837e-10
-2.26279e-09
4.59205e-10
1.17246e-09
2.63881e-10
2.39473e-09
1.7859e-09
1.65037e-10
5.73584e-10
-1.49983e-10
7.56707e-10
6.65401e-10
7.83408e-10
-7.41246e-11
-1.83865e-09
2.64507e-10
-2.887e-09
8.67044e-10
6.44617e-11
-1.93672e-09
2.43343e-10
-6.01681e-10
1.89647e-10
4.38581e-10
9.65813e-10
-7.71408e-10
3.03293e-09
-1.97983e-09
1.37252e-09
2.13376e-09
-7.35309e-10
3.3297e-09
-7.5493e-10
2.5549e-09
3.00241e-09
-1.82092e-09
7.65389e-09
-4.62108e-09
7.09528e-09
1.34641e-09
4.81558e-09
7.56869e-10
4.51858e-09
-1.57647e-10
2.79114e-09
1.27445e-09
2.82894e-09
-2.70696e-09
4.04996e-09
-3.86336e-09
1.22032e-09
1.47558e-08
-1.29146e-09
8.53553e-09
-1.29382e-09
-2.25874e-10
7.60947e-10
-6.85206e-09
1.60238e-09
-4.29152e-09
1.1324e-09
-4.67781e-10
6.7619e-10
1.62867e-09
3.98197e-10
2.67272e-09
2.5677e-10
1.92733e-09
1.00612e-10
8.11352e-12
9.3119e-11
7.49363e-12
8.4556e-11
8.56276e-12
7.47479e-11
9.80819e-12
6.58566e-11
8.89102e-12
5.84266e-11
7.42989e-12
5.15511e-11
6.87539e-12
4.53355e-11
6.21556e-12
3.96739e-11
5.66143e-12
3.50032e-11
4.67051e-12
3.06811e-11
4.32197e-12
2.66568e-11
4.02414e-12
2.32006e-11
3.456e-12
2.05401e-11
2.66039e-12
1.82485e-11
2.29151e-12
1.6479e-11
1.76935e-12
1.49922e-11
1.48672e-12
1.38687e-11
1.12344e-12
1.38072e-11
6.14219e-14
1.33487e-11
4.5842e-13
1.41147e-11
-7.66001e-13
1.43183e-11
-2.03717e-13
1.50211e-11
-7.02801e-13
1.61568e-11
-1.13582e-12
1.27887e-11
3.36804e-12
1.64122e-11
-3.62354e-12
1.85657e-12
1.45556e-11
1.14588e-11
-9.60225e-12
-9.47711e-12
2.09359e-11
-9.47725e-12
1.41869e-10
2.20491e-11
1.28893e-10
2.04705e-11
1.14718e-10
2.2737e-11
1.0073e-10
2.37963e-11
8.93626e-11
2.02581e-11
7.8714e-11
1.80783e-11
6.91103e-11
1.64788e-11
6.0683e-11
1.46426e-11
5.29197e-11
1.34244e-11
4.63356e-11
1.12543e-11
4.04911e-11
1.01662e-11
3.46604e-11
9.85452e-12
3.01246e-11
7.99162e-12
2.66673e-11
6.11746e-12
2.35503e-11
5.40823e-12
2.09954e-11
4.32413e-12
1.91712e-11
3.31081e-12
1.76587e-11
2.63575e-12
1.7292e-11
4.28015e-13
1.66872e-11
1.06311e-12
1.77025e-11
-1.78142e-12
1.77721e-11
-2.73445e-13
1.88719e-11
-1.80268e-12
1.99976e-11
-2.26161e-12
1.61403e-11
7.22514e-12
2.01324e-11
-7.61559e-12
2.83128e-12
3.18566e-11
1.39003e-11
-2.06715e-11
-1.17301e-11
4.65665e-11
-2.12075e-11
1.50841e-10
3.8441e-11
1.3174e-10
3.95718e-11
1.16555e-10
3.79224e-11
1.04431e-10
3.59199e-11
9.29969e-11
3.16918e-11
8.18415e-11
2.92335e-11
7.17452e-11
2.65748e-11
6.31293e-11
2.32583e-11
5.52375e-11
2.1316e-11
4.75906e-11
1.89009e-11
4.09068e-11
1.68498e-11
3.58325e-11
1.49286e-11
3.12834e-11
1.25405e-11
2.75287e-11
9.87205e-12
2.4203e-11
8.73364e-12
2.14607e-11
7.06629e-12
1.97073e-11
5.06402e-12
1.81409e-11
4.20203e-12
1.75116e-11
1.05722e-12
1.69387e-11
1.63587e-12
1.81422e-11
-2.98495e-12
1.81845e-11
-3.15896e-13
1.94616e-11
-3.07986e-12
2.05694e-11
-3.36949e-12
1.6631e-11
1.11634e-11
2.06332e-11
-1.16178e-11
2.96333e-12
4.95264e-11
1.40755e-11
-3.17839e-11
-1.2841e-11
7.34832e-11
-3.40487e-11
1.49921e-10
5.46537e-11
1.33276e-10
5.62171e-11
1.18688e-10
5.25101e-11
1.05731e-10
4.8877e-11
9.35665e-11
4.3856e-11
8.22282e-11
4.05716e-11
7.20094e-11
3.67934e-11
6.30938e-11
3.21738e-11
5.50138e-11
2.93956e-11
4.75864e-11
2.6328e-11
4.11544e-11
2.32815e-11
3.59053e-11
2.01774e-11
3.14263e-11
1.70192e-11
2.76643e-11
1.36339e-11
2.42645e-11
1.21332e-11
2.15503e-11
9.78035e-12
1.96872e-11
6.92698e-12
1.80999e-11
5.7892e-12
1.76258e-11
1.53122e-12
1.70001e-11
2.26146e-12
1.81559e-11
-4.14078e-12
1.81968e-11
-3.56895e-13
1.95328e-11
-4.41596e-12
2.05289e-11
-4.36575e-12
1.69422e-11
1.47499e-11
2.08856e-11
-1.55612e-11
3.02535e-12
6.73866e-11
1.45465e-11
-4.33052e-11
-1.3852e-11
1.01882e-10
-4.79009e-11
1.49299e-10
7.07205e-11
1.33643e-10
7.1874e-11
1.19281e-10
6.68712e-11
1.05955e-10
6.22032e-11
9.34664e-11
5.63443e-11
8.21044e-11
5.19334e-11
7.18937e-11
4.70039e-11
6.27971e-11
4.12703e-11
5.46897e-11
3.75027e-11
4.74758e-11
3.35416e-11
4.1142e-11
2.96151e-11
3.58898e-11
2.54294e-11
3.14995e-11
2.14093e-11
2.75216e-11
1.76116e-11
2.41466e-11
1.5508e-11
2.14909e-11
1.24359e-11
1.95815e-11
8.83626e-12
1.80071e-11
7.36347e-12
1.75942e-11
1.94405e-12
1.69463e-11
2.90927e-12
1.81264e-11
-5.32094e-12
1.81617e-11
-3.92313e-13
1.96481e-11
-5.90251e-12
2.05381e-11
-5.25583e-12
1.73073e-11
1.79806e-11
2.11548e-11
-1.94088e-11
3.1014e-12
8.544e-11
1.50018e-11
-5.52058e-11
-1.54293e-11
1.32313e-10
-6.33303e-11
1.49071e-10
8.67947e-11
1.33628e-10
8.73172e-11
1.19201e-10
8.12982e-11
1.05774e-10
7.56301e-11
9.31575e-11
6.89607e-11
8.18554e-11
6.32353e-11
7.16877e-11
5.71714e-11
6.24274e-11
5.05304e-11
5.43327e-11
4.55971e-11
4.72685e-11
4.06055e-11
4.10733e-11
3.58102e-11
3.58941e-11
3.06084e-11
3.1426e-11
2.58771e-11
2.72842e-11
2.17532e-11
2.39716e-11
1.88204e-11
2.13668e-11
1.50405e-11
1.94426e-11
1.07604e-11
1.79045e-11
8.90145e-12
1.7513e-11
2.3355e-12
1.684e-11
3.58214e-12
1.80797e-11
-6.56071e-12
1.81003e-11
-4.1306e-13
1.98195e-11
-7.62181e-12
2.06201e-11
-6.05653e-12
1.77952e-11
2.08054e-11
2.1501e-11
-2.31146e-11
3.22969e-12
1.03711e-10
1.55227e-11
-6.7499e-11
-1.75878e-11
1.65424e-10
-8.09183e-11
1.48946e-10
1.02947e-10
1.33493e-10
1.02771e-10
1.18878e-10
9.59131e-11
1.05383e-10
8.91243e-11
9.27546e-11
8.1589e-11
8.15383e-11
7.44514e-11
7.14379e-11
6.72716e-11
6.20651e-11
5.99031e-11
5.39903e-11
5.36716e-11
4.70072e-11
4.75883e-11
4.09722e-11
4.1845e-11
3.57907e-11
3.57897e-11
3.12193e-11
3.04483e-11
2.70565e-11
2.59159e-11
2.38095e-11
2.20671e-11
2.12196e-11
1.76303e-11
1.92816e-11
1.26983e-11
1.77729e-11
1.04101e-11
1.73995e-11
2.70875e-12
1.67061e-11
4.2755e-12
1.80231e-11
-7.87778e-12
1.80185e-11
-4.08574e-13
2.00334e-11
-9.63683e-12
2.0753e-11
-6.77627e-12
1.84277e-11
2.31306e-11
2.19449e-11
-2.66318e-11
3.40006e-12
1.22256e-10
1.6131e-11
-8.02302e-11
-2.03039e-11
2.01859e-10
-1.01222e-10
1.48795e-10
1.19236e-10
1.33259e-10
1.18308e-10
1.18451e-10
1.1072e-10
1.04898e-10
1.02677e-10
9.23046e-11
9.41824e-11
8.11147e-11
8.56412e-11
7.10318e-11
7.73543e-11
6.18479e-11
6.90868e-11
5.37339e-11
6.17853e-11
4.6715e-11
5.46071e-11
4.08714e-11
4.76883e-11
3.5587e-11
4.10739e-11
3.09125e-11
3.51225e-11
2.68449e-11
2.99834e-11
2.36512e-11
2.52605e-11
2.10639e-11
2.02174e-11
1.91163e-11
1.46458e-11
1.76091e-11
1.19171e-11
1.72515e-11
3.06627e-12
1.65501e-11
4.97671e-12
1.7964e-11
-9.29174e-12
1.79271e-11
-3.71697e-13
2.0283e-11
-1.19929e-11
2.0908e-11
-7.40135e-12
1.91992e-11
2.48392e-11
2.24804e-11
-2.9913e-11
3.56258e-12
1.41174e-10
1.67991e-11
-9.34669e-11
-2.3523e-11
2.42181e-10
-1.24745e-10
1.48555e-10
1.35708e-10
1.3293e-10
1.33933e-10
1.17987e-10
1.25664e-10
1.04388e-10
1.16276e-10
9.18339e-11
1.06736e-10
8.06528e-11
9.68221e-11
7.06039e-11
8.7403e-11
6.15484e-11
7.81422e-11
5.34775e-11
6.98559e-11
4.64804e-11
6.16039e-11
4.0553e-11
5.36155e-11
3.52474e-11
4.63793e-11
3.05817e-11
3.9788e-11
2.6614e-11
3.3951e-11
2.34475e-11
2.84267e-11
2.08702e-11
2.27946e-11
1.89277e-11
1.65882e-11
1.7411e-11
1.34338e-11
1.70709e-11
3.40626e-12
1.63689e-11
5.67855e-12
1.78985e-11
-1.08214e-11
1.78269e-11
-3.00228e-13
2.05629e-11
-1.4729e-11
2.10727e-11
-7.91122e-12
2.00949e-11
2.58169e-11
2.30814e-11
-3.28995e-11
3.82345e-12
1.60432e-10
1.75983e-11
-1.07242e-10
-2.75028e-11
2.87283e-10
-1.52248e-10
1.48237e-10
1.52405e-10
1.32519e-10
1.49651e-10
1.17489e-10
1.40694e-10
1.03851e-10
1.29914e-10
9.13565e-11
1.1923e-10
8.01815e-11
1.07997e-10
7.01392e-11
9.74451e-11
6.11479e-11
8.71333e-11
5.3151e-11
7.78525e-11
4.62016e-11
6.85531e-11
4.01986e-11
5.96182e-11
3.48867e-11
5.16911e-11
3.02308e-11
4.44436e-11
2.63472e-11
3.78344e-11
2.31873e-11
3.15864e-11
2.06307e-11
2.53511e-11