/*--------------------------------*- C++ -*----------------------------------*\
| =========                 |                                                 |
| \\      /  F ield         | OpenFOAM: The Open Source CFD Toolbox           |
|  \\    /   O peration     | Version:  2.4.0                                 |
|   \\  /    A nd           | Web:      www.OpenFOAM.org                      |
|    \\/     M anipulation  |                                                 |
\*---------------------------------------------------------------------------*/
FoamFile
{
    version     2.0;
    format      ascii;
    class       surfaceScalarField;
    location    "0.317";
    object      phi;
}
// * * * * * * * * * * * * * * * * * * * * * * * * * * * * * * * * * * * * * //

dimensions      [0 3 -1 0 0 0 0];

internalField   nonuniform List<scalar> 
19800
(
-3.48103e-14
3.48122e-14
4.49924e-14
-8.72659e-14
3.00333e-13
-2.42529e-13
7.09559e-13
-4.02382e-13
1.25836e-12
-5.4907e-13
1.93424e-12
-6.78032e-13
2.72001e-12
-7.87089e-13
3.59407e-12
-8.74846e-13
4.53273e-12
-9.398e-13
5.51181e-12
-9.80662e-13
6.5074e-12
-9.97054e-13
7.49647e-12
-9.89875e-13
8.45771e-12
-9.61295e-13
9.37267e-12
-9.14584e-13
1.02267e-11
-8.53806e-13
1.10099e-11
-7.83469e-13
1.17171e-11
-7.08125e-13
1.23476e-11
-6.31897e-13
1.29043e-11
-5.58064e-13
1.33922e-11
-4.88702e-13
1.38165e-11
-4.24428e-13
1.41814e-11
-3.64306e-13
1.44881e-11
-3.05915e-13
1.47345e-11
-2.45722e-13
1.49146e-11
-1.79844e-13
1.50194e-11
-1.04942e-13
1.5039e-11
-1.97493e-14
1.49642e-11
7.48807e-14
1.47863e-11
1.78532e-13
1.45134e-11
2.7377e-13
1.41537e-11
3.60661e-13
1.37258e-11
4.28682e-13
1.3256e-11
4.70323e-13
1.27757e-11
4.80495e-13
1.2319e-11
4.57014e-13
1.1916e-11
4.03467e-13
1.1589e-11
3.27773e-13
1.13498e-11
2.4011e-13
1.11997e-11
1.5094e-13
1.11299e-11
7.03564e-14
1.11267e-11
3.67876e-15
1.11693e-11
-4.21165e-14
1.1236e-11
-6.58759e-14
1.13055e-11
-6.84109e-14
1.13559e-11
-4.90372e-14
1.13698e-11
-1.26711e-14
1.13318e-11
3.87697e-14
1.12306e-11
1.01502e-13
1.10587e-11
1.72135e-13
2.47403e-13
1.08118e-11
2.15582e-13
-1.69633e-13
7.27312e-13
-6.16523e-13
1.58804e-12
-1.10952e-12
2.74292e-12
-1.55492e-12
4.14603e-12
-1.94896e-12
5.75343e-12
-2.28491e-12
7.51753e-12
-2.55307e-12
9.3876e-12
-2.74768e-12
1.13126e-11
-2.8674e-12
1.32446e-11
-2.91443e-12
1.5141e-11
-2.89425e-12
1.69665e-11
-2.81531e-12
1.86941e-11
-2.68854e-12
2.03063e-11
-2.52656e-12
2.17944e-11
-2.34265e-12
2.3159e-11
-2.14962e-12
2.44074e-11
-1.95872e-12
2.5552e-11
-1.77844e-12
2.66065e-11
-1.61359e-12
2.75824e-11
-1.46439e-12
2.84851e-11
-1.32603e-12
2.93111e-11
-1.18884e-12
3.00454e-11
-1.03921e-12
3.06616e-11
-8.61528e-13
3.11226e-11
-6.41e-13
3.13846e-11
-3.6722e-13
3.14029e-11
-3.78549e-14
3.11403e-11
3.38452e-13
3.05769e-11
7.4337e-13
2.97088e-11
1.14342e-12
2.85636e-11
1.50715e-12
2.71909e-11
1.80218e-12
2.56593e-11
2.00225e-12
2.40519e-11
2.08827e-12
2.24573e-11
2.05244e-12
2.09542e-11
1.90772e-12
1.96008e-11
1.68267e-12
1.84282e-11
1.41403e-12
1.74405e-11
1.13976e-12
1.66184e-11
8.93521e-13
1.59225e-11
7.00671e-13
1.53041e-11
5.77879e-13
1.47086e-11
5.31748e-13
1.40816e-11
5.60831e-13
1.33762e-11
6.58213e-13
1.25525e-11
8.12144e-13
1.15825e-11
1.00937e-12
1.04487e-11
1.2357e-12
9.1444e-12
1.47736e-12
1.72153e-12
7.67205e-12
3.78542e-13
-5.35364e-13
1.22679e-12
-1.46283e-12
2.52766e-12
-2.41381e-12
4.22583e-12
-3.25432e-12
6.26501e-12
-3.98732e-12
8.58414e-12
-4.60314e-12
1.11153e-11
-5.0843e-12
1.37861e-11
-5.41933e-12
1.65234e-11
-5.60565e-12
1.92574e-11
-5.64904e-12
2.19256e-11
-5.56241e-12
2.44753e-11
-5.36459e-12
2.68661e-11
-5.0789e-12
2.90709e-11
-4.73139e-12
3.10763e-11
-4.3488e-12
3.28818e-11
-3.95638e-12
3.44975e-11
-3.57562e-12
3.59405e-11
-3.22206e-12
3.72305e-11
-2.90325e-12
3.83844e-11
-2.61719e-12
3.94113e-11
-2.35143e-12
4.03073e-11
-2.08366e-12
4.10526e-11
-1.78391e-12
4.16096e-11
-1.41881e-12
4.19254e-11
-9.57336e-13
4.19359e-11
-3.78129e-13
4.15752e-11
3.22996e-13
4.07873e-11
1.12716e-12
3.95407e-11
1.99107e-12
3.78346e-11
2.85047e-12
3.5708e-11
3.63422e-12
3.32346e-11
4.27551e-12
3.05149e-11
4.72163e-12
2.76701e-11
4.933e-12
2.48315e-11
4.89148e-12
2.21146e-11
4.62549e-12
1.96027e-11
4.19575e-12
1.7339e-11
3.67899e-12
1.53267e-11
3.1532e-12
1.35347e-11
2.68663e-12
1.19058e-11
2.33079e-12
1.03677e-11
2.11745e-12
8.84198e-12
2.05906e-12
7.25247e-12
2.15163e-12
5.53252e-12
2.37887e-12
3.62839e-12
2.71635e-12
1.50216e-12
3.13535e-12
-8.68072e-13
3.60592e-12
-3.48897e-12
4.09892e-12
4.58746e-12
-6.35347e-12
4.85063e-13
-1.02014e-12
1.62213e-12
-2.59426e-12
3.31637e-12
-4.10734e-12
5.48952e-12
-5.42768e-12
8.07258e-12
-6.56979e-12
1.09906e-11
-7.5199e-12
1.41593e-11
-8.25185e-12
1.74884e-11
-8.74778e-12
2.08866e-11
-9.00343e-12
2.42659e-11
-9.02807e-12
2.75468e-11
-8.84289e-12
3.06615e-11
-8.47894e-12
3.35574e-11
-7.97462e-12
3.61987e-11
-7.37276e-12
3.85668e-11
-6.71736e-12
4.066e-11
-6.04993e-12
4.24902e-11
-5.40584e-12
4.40793e-11
-4.81057e-12
4.54537e-11
-4.27635e-12
4.66373e-11
-3.79934e-12
4.76454e-11
-3.35817e-12
4.84772e-11
-2.91478e-12
4.91115e-11
-2.41825e-12
4.95037e-11
-1.81169e-12
4.95875e-11
-1.04186e-12
4.92802e-11
-7.12224e-14
4.84945e-11
1.1089e-12
4.71547e-11
2.46747e-12
4.52163e-11
3.93e-12
4.26803e-11
5.38657e-12
3.95997e-11
6.71446e-12
3.60722e-11
7.8023e-12
3.22261e-11
8.567e-12
2.8217e-11
8.9418e-12
2.42206e-11
8.8882e-12
2.03872e-11
8.45984e-12
1.6819e-11
7.76521e-12
1.35632e-11
6.93611e-12
1.06149e-11
6.10285e-12
7.92568e-12
5.37701e-12
5.41701e-12
4.84062e-12
2.99322e-12
4.54227e-12
5.54067e-13
4.49894e-12
-1.99505e-12
4.70098e-12
-4.73549e-12
5.11899e-12
-7.73066e-12
5.71081e-12
-1.10237e-11
6.42776e-12
-1.46374e-11
7.21943e-12
-1.85753e-11
8.0372e-12
8.83655e-12
-2.28234e-11
5.77314e-13
-1.60112e-12
1.97687e-12
-3.99149e-12
4.0465e-12
-6.17523e-12
6.67449e-12
-8.05451e-12
9.77141e-12
-9.66532e-12
1.32454e-11
-1.09921e-11
1.6996e-11
-1.20006e-11
2.09165e-11
-1.26668e-11
2.4899e-11
-1.2985e-11
2.88398e-11
-1.29685e-11
3.26447e-11
-1.26476e-11
3.62331e-11
-1.20673e-11
3.95419e-11
-1.12835e-11
4.25282e-11
-1.0359e-11
4.51697e-11
-9.35872e-12
4.74645e-11
-8.3442e-12
4.94278e-11
-7.36834e-12
5.10882e-11
-6.46974e-12
5.24809e-11
-5.66759e-12
5.36401e-11
-4.95722e-12
5.45901e-11
-4.30745e-12
5.53369e-11
-3.66144e-12
5.58605e-11
-2.94223e-12
5.6111e-11
-2.06277e-12
5.60083e-11
-9.39737e-13
5.54485e-11
4.88391e-13
5.43173e-11
2.24015e-12
5.2513e-11
4.27198e-12
4.99734e-11
6.46942e-12
4.67007e-11
8.65871e-12
4.27671e-11
1.06472e-11
3.83005e-11
1.2268e-11
3.34556e-11
1.34113e-11
2.84216e-11
1.39757e-11
2.34327e-11
1.38778e-11
1.86773e-11
1.32164e-11
1.42711e-11
1.21728e-11
1.02551e-11
1.09535e-11
6.60476e-12
9.75448e-12
3.24504e-12
8.7378e-12
6.80118e-14
8.01841e-12
-3.04987e-12
7.66051e-12
-6.23246e-12
7.68138e-12
-9.59212e-12
8.06001e-12
-1.32219e-11
8.74785e-12
-1.71913e-11
9.67924e-12
-2.15445e-11
1.07803e-11
-2.63012e-11
1.19759e-11
-3.14579e-11
1.31941e-11
1.437e-11
-3.69909e-11
6.60873e-13
-2.26401e-12
2.3087e-12
-5.64024e-12
4.74381e-12
-8.60946e-12
7.82032e-12
-1.11295e-11
1.1424e-11
-1.3267e-11
1.54427e-11
-1.50088e-11
1.97583e-11
-1.63143e-11
2.42472e-11
-1.71544e-11
2.87856e-11
-1.75228e-11
3.32547e-11
-1.74375e-11
3.75462e-11
-1.69393e-11
4.15675e-11
-1.60888e-11
4.52462e-11
-1.49621e-11
4.85325e-11
-1.3645e-11
5.14014e-11
-1.22272e-11
5.38521e-11
-1.07941e-11
5.59048e-11
-9.42017e-12
5.75969e-11
-8.16088e-12
5.89756e-11
-7.04546e-12
6.00892e-11
-6.07031e-12
6.09761e-11
-5.19409e-12
6.16527e-11
-4.33809e-12
6.21039e-11
-3.39359e-12
6.22762e-11
-2.23524e-12
6.20754e-11
-7.39071e-13
6.13714e-11
1.19234e-12
6.00141e-11
3.59737e-12
5.78631e-11
6.42261e-12
5.48297e-11
9.50219e-12
5.0917e-11
1.25706e-11
4.62281e-11
1.53354e-11
4.09361e-11
1.75595e-11
3.52173e-11
1.913e-11
2.92897e-11
1.99039e-11
2.348e-11
1.96884e-11
1.80234e-11
1.86742e-11
1.30397e-11
1.71577e-11
8.54825e-12
1.54462e-11
4.48942e-12
1.38144e-11
7.47547e-13
1.24804e-11
-2.82545e-12
1.15917e-11
-6.38784e-12
1.12227e-11
-1.00901e-11
1.1383e-11
-1.40624e-11
1.20314e-11
-1.84072e-11
1.30919e-11
-2.31965e-11
1.4468e-11
-2.84714e-11
1.6055e-11
-3.42441e-11
1.77485e-11
-4.05002e-11
1.94503e-11
2.10723e-11
-4.72025e-11
7.3661e-13
-3.00086e-12
2.62541e-12
-7.53097e-12
5.42088e-12
-1.1405e-11
8.94511e-12
-1.46525e-11
1.30577e-11
-1.73778e-11
1.76244e-11
-1.95738e-11
2.25073e-11
-2.11961e-11
2.75652e-11
-2.22119e-11
3.26576e-11
-2.26154e-11
3.76499e-11
-2.24303e-11
4.24197e-11
-2.17095e-11
4.68618e-11
-2.0531e-11
5.08936e-11
-1.89937e-11
5.4459e-11
-1.721e-11
5.75303e-11
-1.52981e-11
6.01082e-11
-1.33718e-11
6.22197e-11
-1.15316e-11
6.3913e-11
-9.85434e-12
6.5251e-11
-8.38365e-12
6.63011e-11
-7.12049e-12
6.71211e-11
-6.01396e-12
6.77435e-11
-4.96024e-12
6.81627e-11
-3.81236e-12
6.83251e-11
-2.39723e-12
6.81229e-11
-5.36631e-13
6.73946e-11
1.92054e-12
6.59413e-11
5.0503e-12
6.35646e-11
8.7987e-12
6.01305e-11
1.29355e-11
5.5643e-11
1.70577e-11
5.02583e-11
2.07199e-11
4.4229e-11
2.3589e-11
3.77354e-11
2.56243e-11
3.09983e-11
2.66417e-11
2.4517e-11
2.61707e-11
1.85828e-11
2.46092e-11
1.32989e-11
2.24426e-11
8.63894e-12
2.01071e-11
4.48712e-12
1.79669e-11
6.69671e-13
1.62983e-11
-3.01427e-12
1.52756e-11
-6.76542e-12
1.49733e-11
-1.0764e-11
1.53809e-11
-1.51574e-11
1.64242e-11
-2.00544e-11
1.79888e-11
-2.5525e-11
1.99388e-11
-3.16021e-11
2.21324e-11
-3.82854e-11
2.44318e-11
-4.55449e-11
2.67098e-11
2.88532e-11
-5.33259e-11
8.06653e-13
-3.80762e-12
2.93256e-12
-9.65833e-12
6.08681e-12
-1.45596e-11
1.00616e-11
-1.86265e-11
1.46905e-11
-2.20057e-11
1.98163e-11
-2.46988e-11
2.52803e-11
-2.666e-11
3.09223e-11
-2.78544e-11
3.65838e-11
-2.82776e-11
4.21133e-11
-2.79604e-11
4.73724e-11
-2.69687e-11
5.22419e-11
-2.54002e-11
5.66279e-11
-2.33793e-11
6.04664e-11
-2.10485e-11
6.37265e-11
-1.85586e-11
6.64107e-11
-1.60571e-11
6.85532e-11
-1.36754e-11
7.02149e-11
-1.15174e-11
7.14778e-11
-9.6474e-12
7.2434e-11
-8.07688e-12
7.31679e-11
-6.7474e-12
7.37351e-11
-5.52654e-12
7.41457e-11
-4.22191e-12
7.43524e-11
-2.60322e-12
7.42382e-11
-4.2215e-13
7.3607e-11
2.5514e-12
7.21953e-11
6.46135e-12
6.97161e-11
1.12773e-11
6.59552e-11
1.6696e-11
6.09108e-11
2.21022e-11
5.48328e-11
2.67984e-11
4.81341e-11
3.02884e-11
4.09481e-11
3.28111e-11
3.3411e-11
3.41794e-11
2.63812e-11
3.32008e-11
2.02047e-11
3.07861e-11
1.49198e-11
2.77279e-11
1.04172e-11
2.46102e-11
6.49869e-12
2.18859e-11
2.91309e-12
1.9884e-11
-6.06583e-13
1.8795e-11
-4.31062e-12
1.86769e-11
-8.4106e-12
1.94806e-11
-1.30685e-11
2.10823e-11
-1.83944e-11
2.33154e-11
-2.44498e-11
2.59951e-11
-3.12528e-11
2.89361e-11
-3.87846e-11
3.19638e-11
-4.69946e-11
3.49199e-11
3.76654e-11
-5.58065e-11
8.74225e-13
-4.6825e-12
3.23546e-12
-1.202e-11
6.74958e-12
-1.80736e-11
1.11805e-11
-2.30569e-11
1.63371e-11
-2.71619e-11
2.20388e-11
-3.04008e-11
2.81059e-11
-3.27277e-11
3.43579e-11
-3.41073e-11
4.06169e-11
-3.45372e-11
4.67125e-11
-3.4056e-11
5.24881e-11
-3.27437e-11
5.78077e-11
-3.07193e-11
6.25636e-11
-2.8135e-11
6.66818e-11
-2.51673e-11
7.01265e-11
-2.2005e-11
7.29013e-11
-1.88341e-11
7.50468e-11
-1.58233e-11
7.66373e-11
-1.31097e-11
7.77764e-11
-1.07873e-11
7.85879e-11
-8.8881e-12
7.91917e-11
-7.35017e-12
7.96743e-11
-6.00787e-12
8.00695e-11
-4.61593e-12
8.03476e-11
-2.88071e-12
8.03936e-11
-4.68167e-13
7.99817e-11
2.96275e-12
7.87687e-11
7.67365e-12
7.63339e-11
1.37116e-11
7.23174e-11
2.07125e-11
6.66833e-11
2.77367e-11
5.98324e-11
3.36499e-11
5.2538e-11
3.75832e-11
4.47666e-11
4.05827e-11
3.63217e-11
4.2624e-11
2.88572e-11
4.06649e-11
2.27212e-11
3.6922e-11
1.77775e-11
3.26717e-11
1.37838e-11
2.86044e-11
1.04336e-11
2.52363e-11
7.37966e-12
2.29379e-11
4.27664e-12
2.18975e-11
8.19951e-13
2.21332e-11
-3.2317e-12
2.35323e-11
-8.04879e-12
2.59003e-11
-1.37343e-11
2.90023e-11
-2.03323e-11
3.25945e-11
-2.78383e-11
3.64429e-11
-3.62079e-11
4.03337e-11
-4.53649e-11
4.40771e-11
4.75085e-11
-5.52072e-11
9.4244e-13
-5.62567e-12
3.53894e-12
-1.46159e-11
7.41591e-12
-2.19498e-11
1.23111e-11
-2.79516e-11
1.80097e-11
-3.28607e-11
2.4309e-11
-3.67008e-11
3.10079e-11
-3.94275e-11
3.79052e-11
-4.1005e-11
4.48022e-11
-4.14339e-11
5.15071e-11
-4.076e-11
5.78421e-11
-3.90776e-11
6.36513e-11
-3.65277e-11
6.88088e-11
-3.32929e-11
7.32274e-11
-2.95875e-11
7.68636e-11
-2.56437e-11
7.97196e-11
-2.16929e-11
8.18412e-11
-1.79472e-11
8.3314e-11
-1.45839e-11
8.42641e-11
-1.17376e-11
8.48552e-11
-9.47848e-12
8.52546e-11
-7.74833e-12
8.55875e-11
-6.33968e-12
8.59181e-11
-4.94578e-12
8.62515e-11
-3.2139e-12
8.64995e-11
-7.16564e-13
8.64273e-11
3.03441e-12
8.56098e-11
8.4906e-12
8.34344e-11
1.58868e-11
7.9274e-11
2.48728e-11
7.29791e-11
3.40317e-11
6.51479e-11
4.14811e-11
5.73741e-11
4.53567e-11
4.92306e-11
4.87255e-11
3.95664e-11
5.22873e-11
3.18202e-11
4.84105e-11
2.61214e-11
4.26205e-11
2.19282e-11
3.68651e-11
1.88223e-11
3.17105e-11
1.63775e-11
2.76811e-11
1.41361e-11
2.51787e-11
1.16657e-11
2.43673e-11
8.60642e-12
2.51919e-11
4.69396e-12
2.74451e-11
-2.39755e-13
3.08351e-11
-6.27839e-12
3.50424e-11
-1.34375e-11
3.97548e-11
-2.168e-11
4.46861e-11
-3.09291e-11
4.95833e-11
-4.10781e-11
5.42266e-11
5.8428e-11
-5.19963e-11
1.01364e-12
-6.63944e-12
3.84656e-12
-1.74472e-11
8.09046e-12
-2.61924e-11
1.34593e-11
-3.33198e-11
1.97166e-11
-3.91182e-11
2.66389e-11
-4.36235e-11
3.40045e-11
-4.67932e-11
4.15913e-11
-4.85912e-11
4.91786e-11
-4.90198e-11
5.65514e-11
-4.81311e-11
6.3507e-11
-4.6032e-11
6.98646e-11
-4.28851e-11
7.54753e-11
-3.89047e-11
8.0233e-11
-3.43474e-11
8.40823e-11
-2.94955e-11
8.70211e-11
-2.46338e-11
8.90972e-11
-2.00246e-11
9.04024e-11
-1.58894e-11
9.10822e-11
-1.24168e-11
9.13513e-11
-9.74684e-12
9.14405e-11
-7.83674e-12
9.15183e-11
-6.41704e-12
9.16781e-11
-5.10554e-12
9.19835e-11
-3.51957e-12
9.24164e-11
-1.14975e-12
9.27777e-11
2.67264e-12
9.25948e-11
8.67309e-12
9.10399e-11
1.74413e-11
8.6994e-11
2.89182e-11
7.99751e-11
4.105e-11
7.07717e-11
5.06836e-11
6.2673e-11
5.34543e-11
5.46193e-11
5.67779e-11
4.30659e-11
6.38396e-11
3.53852e-11
5.60905e-11
3.06998e-11
4.73058e-11
2.77205e-11
3.98445e-11
2.58927e-11
3.35382e-11
2.46773e-11
2.8896e-11
2.34902e-11
2.63646e-11
2.18091e-11
2.60471e-11
1.92274e-11
2.77729e-11
1.5471e-11
3.12017e-11
1.039e-11
3.5917e-11
3.93548e-12
4.1498e-11
-3.86605e-12
4.75572e-11
-1.29351e-11
5.37557e-11
-2.31559e-11
5.98045e-11
-3.4387e-11
6.54587e-11
7.05105e-11
-4.64679e-11
1.08926e-12
-7.7279e-12
4.1599e-12
-2.05155e-11
8.77458e-12
-3.08055e-11
1.46264e-11
-3.91709e-11
2.14599e-11
-4.59514e-11
2.90327e-11
-5.11961e-11
3.71044e-11
-5.4864e-11
4.54331e-11
-5.69183e-11
5.37758e-11
-5.73606e-11
6.18921e-11
-5.62459e-11
6.9551e-11
-5.36903e-11
7.65407e-11
-4.98754e-11
8.26816e-11
-4.50473e-11
8.78411e-11
-3.95088e-11
9.19456e-11
-3.36014e-11
9.49852e-11
-2.76739e-11
9.70071e-11
-2.20462e-11
9.80986e-11
-1.698e-11
9.84141e-11
-1.27317e-11
9.82358e-11
-9.56827e-12
9.78827e-11
-7.48383e-12
9.75617e-11
-6.09644e-12
9.73706e-11
-4.91484e-12
9.7458e-11
-3.60721e-12
9.79451e-11
-1.63694e-12
9.87448e-11
1.87266e-12
9.94151e-11
8.00222e-12
9.90436e-11
1.78119e-11
9.59341e-11
3.20264e-11
8.83296e-11
4.86531e-11
7.6941e-11
6.20707e-11
6.87135e-11
6.16805e-11
6.11956e-11
6.42947e-11
4.68768e-11
7.81577e-11
4.00502e-11
6.29168e-11
3.71176e-11
5.02384e-11
3.58437e-11
4.11183e-11
3.56803e-11
3.37011e-11
3.59756e-11
2.85994e-11
3.60106e-11
2.63279e-11
3.51828e-11
2.68733e-11
3.30605e-11
2.98941e-11
2.93829e-11
3.48792e-11
2.40388e-11
4.12616e-11
1.70318e-11
4.85057e-11
8.44316e-12
5.61463e-11
-1.59651e-12
6.37957e-11
-1.29271e-11
7.11358e-11
-2.53709e-11
7.79036e-11
8.38783e-11
-3.87373e-11
1.16968e-12
-8.89609e-12
4.47794e-12
-2.38213e-11
9.4651e-12
-3.57912e-11
1.58069e-11
-4.55118e-11
2.32319e-11
-5.33757e-11
3.14825e-11
-5.94455e-11
4.03025e-11
-6.36823e-11
4.94322e-11
-6.60462e-11
5.86078e-11
-6.65346e-11
6.75625e-11
-6.52e-11
7.60329e-11
-6.21615e-11
8.37693e-11
-5.76134e-11
9.05511e-11
-5.18306e-11
9.62071e-11
-4.51656e-11
1.00636e-10
-3.80302e-11
1.03818e-10
-3.08541e-11
1.05799e-10
-2.40261e-11
1.06646e-10
-1.7826e-11
1.06497e-10
-1.25829e-11
1.05731e-10
-8.80205e-12
1.04794e-10
-6.54815e-12
1.03906e-10
-5.20925e-12
1.03092e-10
-4.10184e-12
1.02618e-10
-3.13304e-12
1.02855e-10
-1.87301e-12
1.03942e-10
7.84601e-13
1.05603e-10
6.34092e-12
1.06946e-10
1.64674e-11
1.06449e-10
3.25218e-11
1.00792e-10
5.43086e-11
8.42757e-11
7.85853e-11
7.55187e-11
7.04365e-11
6.96895e-11
7.01232e-11
5.00875e-11
9.77592e-11
4.62918e-11
6.67122e-11
4.6198e-11
5.0332e-11
4.73532e-11
3.99625e-11
4.92822e-11
3.17711e-11
5.12606e-11
2.66194e-11
5.25175e-11
2.50692e-11
5.24468e-11
2.69424e-11
5.0631e-11
3.17088e-11
4.68422e-11
3.86677e-11
4.10268e-11
4.70771e-11
3.32545e-11
5.62784e-11
2.36722e-11
6.57291e-11
1.24684e-11
7.50002e-11
-1.50778e-13
8.37558e-11
-1.39721e-11
9.1726e-11
9.86842e-11
-2.87772e-11
1.25409e-12
-1.01485e-11
4.79658e-12
-2.73619e-11
1.01532e-11
-4.11466e-11
1.69864e-11
-5.23441e-11
2.5013e-11
-6.14011e-11
3.39645e-11
-6.83953e-11
4.35736e-11
-7.32895e-11
5.35675e-11
-7.60386e-11
6.36641e-11
-7.66309e-11
7.35717e-11
-7.51087e-11
8.29918e-11
-7.15836e-11
9.16285e-11
-6.62521e-11
9.92063e-11
-5.94095e-11
1.05498e-10
-5.14568e-11
1.10358e-10
-4.28886e-11
1.13749e-10
-3.42427e-11
1.15735e-10
-2.601e-11
1.16342e-10
-1.84331e-11
1.15624e-10
-1.18656e-11
1.14123e-10
-7.30288e-12
1.12488e-10
-4.91412e-12
1.1089e-10
-3.6118e-12
1.09101e-10
-2.31261e-12
1.07529e-10
-1.56071e-12
1.06902e-10
-1.24586e-12
1.07671e-10
1.54747e-14
1.10091e-10
3.91865e-12
1.1418e-10
1.23774e-11
1.18873e-10
2.78271e-11
1.20043e-10
5.31374e-11
1.08275e-10
9.03528e-11
8.24206e-11
9.62904e-11
7.09727e-11
8.15707e-11
5.59286e-11
1.12803e-10
5.58071e-11
6.6833e-11
6.07147e-11
4.54237e-11
6.48388e-11
3.58374e-11
6.87256e-11
2.78832e-11
7.2028e-11
2.33157e-11
7.40714e-11
2.30243e-11
7.43611e-11
2.66514e-11
7.2512e-11
3.35572e-11
6.8301e-11
4.28785e-11
6.17182e-11
5.36601e-11
5.29009e-11
6.50961e-11
4.20653e-11
7.65653e-11
2.94609e-11
8.76053e-11
1.5341e-11
9.78766e-11
-4.94746e-14
1.07117e-10
1.15104e-10
-1.64696e-11
1.34028e-12
-1.14875e-11
5.1082e-12
-3.11287e-11
1.08234e-11
-4.6861e-11
1.81401e-11
-5.96597e-11
2.67682e-11
-7.00277e-11
3.64344e-11
-7.80598e-11
4.68668e-11
-8.37206e-11
5.7786e-11
-8.69577e-11
6.88984e-11
-8.77447e-11
7.9891e-11
-8.6104e-11
9.04306e-11
-8.21262e-11
1.00169e-10
-7.59925e-11
1.08759e-10
-6.80002e-11
1.15891e-10
-5.85877e-11
1.21345e-10
-4.83402e-11
1.25045e-10
-3.794e-11
1.27092e-10
-2.8057e-11
1.2751e-10
-1.88515e-11
1.2617e-10
-1.0527e-11
1.23741e-10
-4.87548e-12
1.21381e-10
-2.55512e-12
1.19101e-10
-1.33199e-12
1.16023e-10
7.66472e-13
1.12652e-10
1.81017e-12
1.10147e-10
1.25966e-12
1.0923e-10
9.31453e-13
1.09828e-10
3.31911e-12
1.14623e-10
7.58073e-12
1.27827e-10
1.46218e-11
1.48437e-10
3.25278e-11
1.48102e-10
9.06875e-11
1.31382e-10
1.1301e-10
6.10467e-11
1.51905e-10
5.53427e-11
1.18505e-10
7.59949e-11
4.61795e-11
8.4711e-11
3.67065e-11
9.10014e-11
2.95463e-11
9.59087e-11
2.29755e-11
9.94825e-11
1.97414e-11
1.01427e-10
2.10789e-11
1.01449e-10
2.66294e-11
9.91175e-11
3.5888e-11
9.41128e-11
4.78833e-11
8.64245e-11
6.13488e-11
7.62457e-11
7.52755e-11
6.38632e-11
8.89485e-11
4.95926e-11
1.01877e-10
3.37357e-11
1.13734e-10
1.65658e-11
1.24287e-10
1.3333e-10
-1.65994e-12
1.42455e-12
-1.29114e-11
5.40157e-12
-3.51054e-11
1.14535e-11
-5.29125e-11
1.9232e-11
-6.7437e-11
2.84462e-11
-7.92403e-11
3.8825e-11
-8.84371e-11
5.01001e-11
-9.49953e-11
6.19951e-11
-9.88539e-11
7.42146e-11
-9.9967e-11
8.64341e-11
-9.83271e-11
9.82919e-11
-9.39873e-11
1.09387e-10
-8.70892e-11
1.19287e-10
-7.79012e-11
1.27568e-10
-6.68675e-11
1.33877e-10
-5.46476e-11
1.38046e-10
-4.21077e-11
1.40206e-10
-3.0217e-11
1.40334e-10
-1.89817e-11
1.38355e-10
-8.54913e-12
1.3497e-10
-1.49184e-12
1.31799e-10
6.15902e-13
1.29136e-10
1.33098e-12
1.24938e-10
4.96497e-12
1.19296e-10
7.45203e-12
1.13319e-10
7.23586e-12
1.07393e-10
6.8565e-12
1.01666e-10
9.04486e-12
9.50149e-11
1.42314e-11
8.33706e-11
2.62661e-11
6.93429e-11
4.65555e-11
1.14079e-10
4.59508e-11
1.24715e-10
1.02373e-10
9.10527e-11
1.85565e-10
1.65161e-10
4.43954e-11
1.4362e-10
6.77184e-11
1.32993e-10
4.73328e-11
1.31316e-10
3.12231e-11
1.32419e-10
2.1873e-11
1.33855e-10
1.83055e-11
1.34393e-10
2.0541e-11
1.33551e-10
2.74716e-11
1.30457e-10
3.89818e-11
1.24401e-10
5.39398e-11
1.1532e-10
7.04299e-11
1.03479e-10
8.71173e-11
8.92503e-11
1.03177e-10
7.30336e-11
1.18094e-10
5.51917e-11
1.31576e-10
3.60243e-11
1.43454e-10
1.53555e-10
1.57988e-11
1.50192e-12
-1.44132e-11
5.66228e-12
-3.92658e-11
1.20154e-11
-5.9265e-11
2.02165e-11
-7.56368e-11
2.99805e-11
-8.90027e-11
4.10461e-11
-9.95016e-11
5.31582e-11
-1.07108e-10
6.6055e-11
-1.11753e-10
7.94537e-11
-1.13369e-10
9.30342e-11
-1.11911e-10
1.06423e-10
-1.07379e-10
1.19177e-10
-9.98454e-11
1.30784e-10
-8.95081e-11
1.40672e-10
-7.67559e-11
1.48285e-10
-6.22598e-11
1.53205e-10
-4.70291e-11
1.55704e-10
-3.27168e-11
1.55582e-10
-1.8862e-11
1.52397e-10
-5.36458e-12
1.48098e-10
2.80672e-12
1.44288e-10
4.42626e-12
1.40925e-10
4.69434e-12
1.36888e-10
9.00189e-12
1.30313e-10
1.40264e-11
1.23007e-10
1.45403e-11
1.13988e-10
1.58747e-11
1.07012e-10
1.602e-11
1.05379e-10
1.58654e-11
1.07957e-10
2.36876e-11
1.15842e-10
3.86701e-11
9.99387e-11
6.18534e-11
9.31962e-11
1.09114e-10
1.18909e-10
1.5985e-10
1.21771e-10
4.15321e-11
1.46704e-10
4.27834e-11
1.55415e-10
3.86221e-11
1.64083e-10
2.25556e-11
1.69149e-10
1.68076e-11
1.71079e-10
1.63766e-11
1.70783e-10
2.08369e-11
1.69546e-10
2.87084e-11
1.6609e-10
4.24382e-11
1.59045e-10
6.09844e-11
1.48421e-10
8.10536e-11
1.34679e-10
1.00859e-10
1.18329e-10
1.19527e-10
9.98832e-11
1.36539e-10
7.98032e-11
1.51655e-10
5.84238e-11
1.64833e-10
1.75966e-10
3.60124e-11
1.56646e-12
-1.59798e-11
5.87385e-12
-4.35732e-11
1.24771e-11
-6.58674e-11
2.10412e-11
-8.41994e-11
3.12933e-11
-9.92532e-11
4.29889e-11
-1.11196e-10
5.58952e-11
-1.20015e-10
6.97777e-11
-1.25637e-10
8.43836e-11
-1.27978e-10
9.94212e-11
-1.26952e-10
1.14533e-10
-1.22493e-10
1.29269e-10
-1.14583e-10
1.43054e-10
-1.03294e-10
1.55171e-10
-8.88737e-11
1.64811e-10
-7.19015e-11
1.71069e-10
-5.32888e-11
1.74003e-10
-3.56518e-11
1.73547e-10
-1.84073e-11
1.69185e-10
-1.00411e-12
1.63282e-10
8.71004e-12
1.60248e-10
7.46025e-12
1.55767e-10
9.17507e-12
1.48501e-10
1.62676e-11
1.43276e-10
1.92504e-11
1.39995e-10
1.78207e-11
1.32611e-10
2.32583e-11
1.21901e-10
2.67303e-11
1.21443e-10
1.63231e-11
1.23346e-10
2.1785e-11
1.2267e-10
3.93445e-11
1.23769e-10
6.07529e-11
1.25777e-10
1.07104e-10
1.57374e-10
1.28251e-10
1.67459e-10
3.14448e-11
1.89503e-10
2.07391e-11
1.98362e-10
2.97634e-11
2.0678e-10
1.41372e-11
2.12471e-10
1.11182e-11
2.12243e-10
1.66044e-11
2.09749e-10
2.33315e-11
2.08773e-10
2.96843e-11
2.05807e-10
4.54038e-11
1.97969e-10
6.88211e-11
1.85681e-10
9.33405e-11
1.69829e-10
1.16711e-10
1.51114e-10
1.38241e-10
1.30165e-10
1.57487e-10
1.07587e-10
1.74233e-10
8.37893e-11
1.8863e-10
2.00735e-10
5.90202e-11
1.61199e-12
-1.75918e-11
6.01977e-12
-4.79808e-11
1.28068e-11
-7.26535e-11
2.16539e-11
-9.30451e-11
3.23047e-11
-1.09903e-10
4.45366e-11
-1.23428e-10
5.81461e-11
-1.33624e-10
7.2936e-11
-1.40428e-10
8.8701e-11
-1.43744e-10
1.05205e-10
-1.43458e-10
1.2215e-10
-1.3944e-10
1.39134e-10
-1.31568e-10
1.55591e-10
-1.19753e-10
1.70712e-10
-1.03996e-10
1.83381e-10
-8.45731e-11
1.92354e-10
-6.22629e-11
1.96553e-10
-3.98525e-11
1.95361e-10
-1.72152e-11
1.8918e-10
5.17586e-12
1.80292e-10
1.75976e-11
1.78453e-10
9.29877e-12
1.76326e-10
1.13011e-11
1.6793e-10
2.46626e-11
1.60741e-10
2.6439e-11
1.56119e-10
2.24424e-11
1.54734e-10
2.46437e-11
1.52661e-10
2.88039e-11
1.5001e-10
1.8974e-11
1.49905e-10
2.18886e-11
1.5364e-10
3.56083e-11
1.58176e-10
5.62155e-11
1.81507e-10
8.3771e-11
2.20509e-10
8.92478e-11
2.13788e-10
3.81647e-11
2.26152e-10
8.37527e-12
2.47587e-10
8.32747e-12
2.54197e-10
7.52705e-12
2.57999e-10
7.31671e-12
2.53275e-10
2.13285e-11
2.48601e-10
2.80053e-11
2.50222e-10
2.80621e-11
2.49496e-10
4.61286e-11
2.41083e-10
7.72325e-11
2.2692e-10
1.07502e-10
2.08759e-10
1.3487e-10
1.87487e-10
1.59512e-10
1.63824e-10
1.81148e-10
1.38482e-10
1.99574e-10
1.12062e-10
2.1505e-10
2.28014e-10
8.47846e-11
1.63293e-12
-1.92247e-11
6.08634e-12
-5.24342e-11
1.29788e-11
-7.95454e-11
2.2011e-11
-1.02076e-10
3.29454e-11
-1.20836e-10
4.5583e-11
-1.36064e-10
5.97502e-11
-1.47791e-10
7.52912e-11
-1.55969e-10
9.20568e-11
-1.6051e-10
1.09886e-10
-1.61288e-10
1.28583e-10
-1.58138e-10
1.47869e-10
-1.50856e-10
1.6731e-10
-1.39195e-10
1.86191e-10
-1.22879e-10
2.03282e-10
-1.01666e-10
2.16686e-10
-7.56679e-11
2.24297e-10
-4.74646e-11
2.251e-10
-1.80185e-11
2.17744e-10
1.25305e-11
2.03687e-10
3.16533e-11
1.95918e-10
1.70669e-11
1.9648e-10
1.07384e-11
1.91327e-10
2.9815e-11
1.91259e-10
2.65061e-11
1.89757e-10
2.3945e-11
1.90366e-10
2.40349e-11
1.96921e-10
2.2249e-11
1.95857e-10
2.0037e-11
1.9517e-10
2.25745e-11
1.99427e-10
3.13507e-11
2.09936e-10
4.57058e-11
2.36391e-10
5.73158e-11
2.61997e-10
6.36418e-11
2.69327e-10
3.08338e-11
2.68762e-10
8.94011e-12
2.80845e-10
-3.75679e-12
2.94957e-10
-6.58591e-12
3.00141e-10
2.13241e-12
2.93505e-10
2.7964e-11
2.87379e-10
3.41306e-11
2.94244e-10
2.11966e-11
2.97603e-10
4.27677e-11
2.88175e-10
8.66588e-11
2.71634e-10
1.24042e-10
2.51058e-10
1.55444e-10
2.27155e-10
1.83414e-10
2.00658e-10
2.07643e-10
1.72371e-10
2.27862e-10
1.43122e-10
2.443e-10
2.57911e-10
1.13227e-10
1.62543e-12
-2.08501e-11
6.06578e-12
-5.68753e-11
1.2979e-11
-8.64589e-11
2.20883e-11
-1.11185e-10
3.31744e-11
-1.31921e-10
4.60578e-11
-1.48947e-10
6.05898e-11
-1.62322e-10
7.66484e-11
-1.72027e-10
9.41328e-11
-1.77994e-10
1.12954e-10
-1.8011e-10
1.33026e-10
-1.78209e-10
1.54227e-10
-1.72058e-10
1.76354e-10
-1.61323e-10
1.99021e-10
-1.45547e-10
2.21421e-10
-1.24066e-10
2.4164e-10
-9.58871e-11
2.54979e-10
-6.08046e-11
2.62035e-10
-2.5075e-11
2.5627e-10
1.82939e-11
2.3779e-10
5.01309e-11
2.18947e-10
3.59089e-11
2.12942e-10
1.67422e-11
2.2487e-10
1.7887e-11
2.27917e-10
2.34598e-11
2.28788e-10
2.30739e-11
2.33367e-10
1.94555e-11
2.41217e-10
1.43987e-11
2.44499e-10
1.67532e-11
2.4914e-10
1.79331e-11
2.54817e-10
2.56739e-11
2.64063e-10
3.64599e-11
2.86139e-10
3.52407e-11
3.07651e-10
4.21295e-11
3.1939e-10
1.90941e-11
3.27328e-10
1.00143e-12
3.3859e-10
-1.50205e-11
3.44398e-10
-1.23939e-11
3.47007e-10
-4.77607e-13
3.4135e-10
3.36207e-11
3.30801e-10
4.46796e-11
3.44607e-10
7.38935e-12
3.53219e-10
3.41551e-11
3.38624e-10
1.01252e-10
3.18603e-10
1.44061e-10
2.96001e-10
1.78045e-10
2.69647e-10
2.09766e-10
2.4034e-10
2.3695e-10
2.09172e-10
2.59029e-10
1.76937e-10
2.76536e-10
2.90556e-10
1.44293e-10
1.58843e-12
-2.2439e-11
5.95922e-12
-6.12481e-11
1.28115e-11
-9.33125e-11
2.18913e-11
-1.20266e-10
3.29947e-11
-1.43025e-10
4.59545e-11
-1.61906e-10
6.06351e-11
-1.77002e-10
7.69315e-11
-1.88323e-10
9.47676e-11
-1.9583e-10
1.14095e-10
-1.99437e-10
1.34891e-10
-1.99005e-10
1.57144e-10
-1.9431e-10
1.80839e-10
-1.85018e-10
2.05946e-10
-1.70653e-10
2.32277e-10
-1.50397e-10
2.59396e-10
-1.23006e-10
2.83647e-10
-8.50564e-11
2.94778e-10
-3.6208e-11
3.00584e-10
1.24858e-11
2.85459e-10
6.52544e-11
2.51118e-10
7.02489e-11
2.36278e-10
3.15816e-11
2.52199e-10
1.96594e-12
2.59167e-10
1.64921e-11
2.66418e-10
1.58223e-11
2.7488e-10
1.09924e-11
2.83167e-10
6.11018e-12
2.94194e-10
5.72592e-12
3.05715e-10
6.41236e-12
3.19483e-10
1.19061e-11
3.35889e-10
2.00557e-11
3.47956e-10
2.31741e-11
3.57693e-10
3.23916e-11
3.64596e-10
1.21904e-11
3.72201e-10
-6.60516e-12
3.77086e-10
-1.99059e-11
3.86967e-10
-2.22747e-11
3.97968e-10
-1.14787e-11
4.07242e-10
2.4347e-11
3.73711e-10
7.8211e-11
4.00066e-10
-1.89664e-11
4.01979e-10
3.22415e-11
3.84399e-10
1.18832e-10
3.63844e-10
1.64616e-10
3.42317e-10
1.9957e-10
3.14175e-10
2.37908e-10
2.82387e-10
2.68737e-10
2.48584e-10
2.92833e-10
2.13474e-10
3.11647e-10
3.26039e-10
1.77992e-10
1.52441e-12
-2.39646e-11
5.77828e-12
-6.5505e-11
1.25009e-11
-1.00037e-10
2.14605e-11
-1.29227e-10
3.2464e-11
-1.54029e-10
4.5348e-11
-1.74791e-10
5.99763e-11
-1.91631e-10
7.62409e-11
-2.04587e-10
9.4062e-11
-2.1365e-10
1.13389e-10
-2.18763e-10
1.34194e-10
-2.1981e-10
1.56472e-10
-2.16587e-10
1.80233e-10
-2.08778e-10
2.05503e-10
-1.95922e-10
2.32717e-10
-1.77611e-10
2.6218e-10
-1.52469e-10
2.93189e-10
-1.16067e-10
3.15729e-10
-5.87499e-11
3.34624e-10
-6.4105e-12
3.33291e-10
6.65865e-11
2.9649e-10
1.07049e-10
2.58738e-10
6.93328e-11
2.82087e-10
-2.13835e-11
2.98705e-10
-1.26573e-13
3.08039e-10
6.48731e-12
3.16859e-10
2.17042e-12
3.30815e-10
-7.84719e-12
3.47053e-10
-1.0513e-11
3.64106e-10
-1.06404e-11
3.8099e-10
-4.97709e-12
3.99213e-10
1.83314e-12
4.09811e-10
1.25751e-11
4.05574e-10
3.6628e-11
4.13246e-10
4.51783e-12
4.17397e-10
-1.07564e-11
4.16535e-10
-1.90433e-11
4.19124e-10
-2.48629e-11
4.34583e-10
-2.69376e-11
4.52969e-10
5.96209e-12
4.59548e-10
7.16324e-11
4.42094e-10
-1.5121e-12
4.48567e-10
2.57683e-11
4.22043e-10
1.45356e-10
4.20664e-10
1.65996e-10
3.95118e-10
2.25116e-10
3.62802e-10
2.70223e-10
3.2739e-10
3.04149e-10
2.90833e-10
3.29391e-10
2.53356e-10
3.49125e-10
3.64229e-10
2.15167e-10
1.43949e-12
-2.54061e-11
5.54488e-12
-6.96137e-11
1.20922e-11
-1.06587e-10
2.08706e-11
-1.38007e-10
3.16935e-11
-1.64854e-10
4.43937e-11
-1.87492e-10
5.88229e-11
-2.06061e-10
7.48538e-11
-2.20619e-10
9.2381e-11
-2.31178e-10
1.11317e-10
-2.37699e-10
1.31584e-10
-2.40075e-10
1.53094e-10
-2.38096e-10
1.75736e-10
-2.31419e-10
1.99419e-10
-2.19604e-10
2.2379e-10
-2.01982e-10
2.49439e-10
-1.78119e-10
2.86295e-10
-1.52924e-10
3.13589e-10
-8.60449e-11
3.40107e-10
-3.29288e-11
3.22751e-10
8.39418e-11
3.55328e-10
7.44716e-11
2.83573e-10
1.41088e-10
3.49109e-10
-8.69212e-11
3.49057e-10
-7.62486e-14
3.54848e-10
6.94257e-13
3.62403e-10
-5.38662e-12
3.87142e-10
-3.2588e-11
4.05055e-10
-2.84261e-11
4.18423e-10
-2.40093e-11
4.34088e-10
-2.06432e-11
4.50193e-10
-1.42721e-11
4.6296e-10
-1.93235e-13
4.67112e-10
3.24755e-11
4.66613e-10
5.01665e-12
4.65736e-10
-9.87822e-12
4.55937e-10
-9.24335e-12
4.37666e-10
-6.59099e-12
4.099e-10
8.29682e-13
3.84775e-10
3.1087e-11
4.21844e-10
3.45636e-11
4.07708e-10
1.26248e-11
4.4477e-10
-1.12938e-11
5.07874e-10
8.22528e-11
4.73218e-10
2.00653e-10
4.45464e-10
2.5287e-10
4.09064e-10
3.06623e-10
3.71964e-10
3.41249e-10
3.34612e-10