/*--------------------------------*- C++ -*----------------------------------*\
| =========                 |                                                 |
| \\      /  F ield         | OpenFOAM: The Open Source CFD Toolbox           |
|  \\    /   O peration     | Version:  2.4.0                                 |
|   \\  /    A nd           | Web:      www.OpenFOAM.org                      |
|    \\/     M anipulation  |                                                 |
\*---------------------------------------------------------------------------*/
FoamFile
{
    version     2.0;
    format      ascii;
    class       volScalarField;
    location    "0.124";
    object      p;
}
// * * * * * * * * * * * * * * * * * * * * * * * * * * * * * * * * * * * * * //

dimensions      [1 -1 -2 0 0 0 0];

internalField   nonuniform List<scalar> 
3600
(
104.974
104.431
102.443
99.1547
95.4247
91.5468
88.0257
84.8568
82.6759
81.5171
82.4808
83.9156
86.8171
89.2495
91.5688
93.9256
95.4333
96.5909
97.8714
97.7839
96.895
96.2641
96.4571
97.0542
97.7867
98.6923
99.8803
101.303
100.64
100.297
101.721
101.178
99.1885
95.8977
92.1619
88.2816
84.7573
81.5792
79.3845
78.2153
79.1775
80.6228
83.521
85.9759
88.2986
90.706
92.2371
93.4266
94.4647
94.3205
93.3979
92.8118
92.7684
93.3023
94.1454
95.1164
96.0326
97.6498
98.5909
98.621
98.4691
97.9299
95.9402
92.6474
88.8994
85.0146
81.4833
78.2876
76.063
74.8767
75.8305
77.2967
80.1861
82.6591
85.0203
87.4634
88.9723
90.2002
91.117
91.1298
89.9548
88.8892
88.684
89.3193
90.3897
91.715
95.4256
96.1474
95.0659
95.4516
95.22
94.6886
92.6991
89.4035
85.6376
81.7457
78.2037
74.9816
72.7108
71.4933
72.4393
73.9414
76.819
79.3066
81.7327
84.193
85.6383
86.9195
87.8923
87.9859
86.3296
84.5425
83.997
84.6692
86.1278
87.8099
89.2231
90.0273
90.9228
91.4087
91.9737
91.454
89.4655
86.1663
82.3764
78.4749
74.9185
71.6611
69.3273
68.067
69.0021
70.5582
73.4674
75.9459
78.42
80.8858
82.2315
83.5392
84.4776
84.57
82.4812
80.0353
78.9969
79.6271
81.369
83.4669
85.0931
86.182
87.1081
87.6463
88.73
88.2259
86.2392
82.9357
79.1157
75.2025
71.628
68.3263
65.9118
64.5958
65.5144
67.1401
70.1461
72.6092
75.0645
77.5515
78.8334
80.1444
80.9481
81.2043
78.8096
76.1909
75.0958
75.72
77.3859
79.638
81.3184
82.3594
83.1317
83.5351
85.4887
85.0046
83.0203
79.7122
75.8553
71.9284
68.3326
64.9774
62.4638
61.0785
61.9732
63.6729
66.8122
69.3114
71.7395
74.1994
75.5107
76.8504
77.5224
77.7637
75.7692
73.1629
72.3404
72.8352
74.3844
76.4153
78.1009
79.1434
79.7876
80.1487
82.2499
81.7899
79.8087
76.4958
72.595
68.6529
65.0328
61.6149
58.9825
57.5155
58.3783
60.1502
63.4195
66.0254
68.5161
70.8931
72.2952
73.6267
74.1236
74.3322
72.8636
70.7123
69.8977
70.4911
71.8815
73.8064
75.3273
76.331
76.8204
77.052
79.0134
78.5819
76.6043
73.2869
69.3345
65.3762
61.7293
58.239
55.4669
53.9065
54.7287
56.5995
59.9604
62.7131
65.3854
67.681
69.1178
70.4134
70.8427
71.3085
70.3796
68.664
68.1759
68.5302
69.6952
71.556
72.8939
73.7288
74.0184
74.1311
75.7789
75.3806
73.4072
70.0859
66.0734
62.0987
58.4227
54.8501
51.9163
50.2484
51.0194
53.038
56.4571
59.3659
62.2357
64.5287
65.9219
67.2365
67.7194
68.2475
67.8994
66.8119
66.7906
66.9344
68.0338
69.4464
70.5217
71.0865
71.3692
71.412
72.5463
72.186
70.2171
66.8931
62.8114
58.8207
55.1137
51.4489
48.3297
46.5363
47.2421
49.4471
52.9187
55.9935
59.0624
61.4179
62.7832
64.1454
64.6173
65.1579
65.1884
64.5219
64.829
65.487
66.2676
67.3112
68.0532
68.516
68.8726
68.9122
69.3153
68.9981
67.0341
63.7091
59.5478
55.5428
51.8031
48.036
44.7055
42.7668
43.391
45.8047
49.342
52.5997
55.8611
58.3768
59.705
61.0682
61.576
62.096
62.0946
61.867
62.2931
63.3325
64.1712
64.8938
65.4678
65.9964
66.4032
66.5814
66.0856
65.817
63.858
60.5344
56.2821
52.2655
48.4914
44.6124
41.0424
38.9382
39.4569
42.1176
45.7265
49.1891
52.6685
55.3999
56.6827
57.9779
58.6448
59.2091
59.4218
59.3775
59.8228
60.7321
61.2241
61.3576
62.0555
63.4179
63.9689
63.6345
62.857
62.6428
60.6887
57.3696
53.0137
48.9898
45.1793
41.1794
37.3391
35.0459
35.4296
38.3968
42.0702
45.7605
49.5236
52.4717
53.6805
54.9921
55.6693
56.258
56.4143
56.5844
57.2072
58.3885
59.2125
59.33
58.73
59.159
59.8495
59.9316
59.629
59.4772
57.5261
54.2155
49.7416
45.7163
41.8672
37.7386
33.5945
31.0839
31.2929
34.6526
38.3617
42.3003
46.367
49.6067
50.7353
51.9508
52.7781
53.3713
53.5843
53.5879
54.5839
55.4649
55.4539
55.3212
55.3657
55.163
55.4145
56.6127
56.4013
56.3166
54.3701
51.0728
46.4651
42.4461
38.5554
34.2922
29.8072
27.0463
27.0311
30.8838
34.5749
38.8769
43.2774
46.8119
47.8417
48.8937
49.7709
50.4244
50.9558
51.4711
51.9395
52.5168
52.5275
52.142
52.294
52.7144
53.6261
55.2987
53.1734
53.1628
51.2204
47.9421
43.1833
39.1802
35.2444
30.843
25.9745
22.9333
22.6281
27.0802
30.6638
35.153
40.1894
44.1375
44.9533
45.8325
46.6526
47.2085
47.5562
48.2321
49.0945
49.4921
49.515
49.1935
49.737
50.8331
52.0085
53.2384
49.9448
50.0158
48.0769
44.8246
39.8947
35.9199
31.9343
27.3943
22.0947
18.7469
18.0522
23.2396
26.8473
31.6736
37.0488
41.4415
42.1093
42.848
44.0205
44.7347
45.2993
45.5753
46.0878
46.374
46.4884
46.1504
46.6563
47.9175
48.5958
49.2618
46.715
46.8757
44.9394
41.7213
36.5981
32.6665
28.6252
23.95
18.1685
14.4798
13.2738
19.4739
22.3286
27.4859
33.9263
39.0974
39.3218
39.8442
40.8052
41.3447
41.6889
42.0074
42.7026
42.8349
43.073
43.462
44.0643
45.0126
45.6688
46.1751
43.4833
43.7424
41.8075
38.6333
33.2921
29.4214
25.3168
20.5149
14.2005
10.1286
8.25814
15.875
18.8207
23.6606
30.591
36.616
36.6951
36.5096
37.7481
38.573
37.7678
38.2104
39.0151
39.6469
40.5001
41.4523
42.1939
42.633
43.2393
43.664
40.249
40.616
38.6809
35.5619
29.9747
26.1866
22.0088
17.0982
10.2059
5.70079
3.07765
12.1076
14.0015
19.6421
27.4163
34.5057
33.9974
33.5875
33.6653
34.8374
33.3828
33.5927
35.8168
36.7992
38.1857
39.4583
40.1143
40.0255
40.4039
40.7244
37.0116
37.5195
35.5592
32.5098
26.6426
22.9639
18.7011
13.7317
6.21187
1.16958
-2.18745
14.877
12.1416
14.4142
24.039
33.2743
31.3613
29.9189
30.1596
32.0834
30.6018
29.9707
32.7349
33.4646
36.134
37.2954
37.5502
37.4324
37.5479
37.8029
33.7693
34.177
32.4419
29.4587
23.3154
19.7558
15.3945
10.486
2.21672
-2.22462
-3.08841
11.2178
9.48957
10.972
21.7727
30.8494
29.0202
27.4282
26.9878
28.1636
26.1085
27.9997
29.6246
30.9113
34.1224
35.0423
35.2201
35.1117
35.0557
35.1832
30.5241
31.5564
29.3294
26.4175
19.9827
16.5647
12.086
7.34795
-0.500181
-1.33744
2.71309
10.31
3.79219
8.70548
17.7074
27.683
25.276
24.8755
23.866
23.6077
20.9137
24.4439
26.7897
28.6067
31.5419
32.7216
32.9939
32.6794
32.4467
32.4956
27.269
27.8355
26.2189
23.3893
16.6403
13.3928
8.73925
3.0461
0.607395
-0.0333534
1.6968
3.15028
1.2462
5.03403
14.5541
23.7328
22.4409
22.8392
24.2766
20.7169
14.8935
20.0773
24.4921
26.0646
28.6668
29.9539
30.2046
29.9059
29.635
29.6905
24.011
25.4738
23.1125
20.3762
13.2842
10.2399
5.14364
-0.222762
0.238527
0.0704114
0.22489
0.263549
-0.373503
1.18055
11.6378
20.4257
19.6236
18.6779
20.9213
16.6336
8.79347
14.556
21.4165
23.1793
25.4611
26.5103
26.8804
26.8685
26.823
26.8813
20.7425
21.5553
20.0058
17.3801
9.91307
7.05891
0.859117
-0.0628587
0.0482336
0.0514067
0.0688927
0.12658
-0.264783
-0.801608
8.55437
16.7913
16.3664
15.008
16.1225
12.382
4.45268
10.7091
18.5368
20.598
22.1535
22.8311
23.3925
23.6702
23.7982
23.9151
17.4456
19.0235
16.9028
14.4043
6.52733
3.13056
-0.996852
-0.0493984
0.0129371
0.0346944
0.0810917
0.112492
-0.347358
-1.45895
3.00396
13.9534
12.9634
11.4371
11.8315
7.84021
1.87294
9.16294
15.8042
18.5485
19.2296
19.2915
19.9561
20.3392
20.4869
20.5957
14.2153
15.4334
13.8082
11.4577
3.07592
-0.0786055
-0.0857853
-0.053998
0.00582732
0.0233959
0.061586
0.0582649
-0.303864
-0.258436
0.514242
10.8805
9.57323
7.76588
7.39887
3.36854
0.642114
8.27287
13.1676
15.2825
16.8564
16.2526
16.5556
16.9618
16.9612
16.9898
10.8653
12.6116
10.7052
8.63523
-0.792045
-0.855272
-0.0399607
-0.0536537
-0.000533637
0.0109915
0.0350433
0.0251537
-0.287347
-0.0315741
-0.29915
3.92599
5.20625
3.71149
2.63276
0.0176517
0.882944
10.7176
8.03881
8.32394
15.3932
13.2932
13.1932
13.6712
13.3333
13.7703
100.369
100.755
101.46
99.9625
98.7556
97.8811
97.1017
96.4318
96.156
96.7372
97.5739
97.5923
96.2986
95.0773
93.51
91.1247
88.8473
86.5319
83.6409
82.303
81.3809
82.6207
84.774
87.9528
91.489
95.3874
99.1218
102.412
104.398
104.945
98.5873
98.6982
97.8119
96.0768
95.1815
94.2253
93.3514
92.7373
92.7062
93.2431
94.1056
94.1947
93.1341
91.8795
90.2861
87.8484
85.571
83.2376
80.3482
79.0005
78.0786
79.3307
81.4958
84.6841
88.2237
92.1246
95.8649
99.157
101.145
101.692
95.4485
95.0362
96.088
95.4126
91.7809
90.4468
89.3445
88.6368
88.7658
89.7943
90.924
90.8247
89.9092
88.6084
87.0334
84.5576
82.2485
79.9071
77.0222
75.655
74.7455
76.012
78.2031
81.4098
84.9566
88.8624
92.6146
95.9086
97.8969
98.4401
91.3938
90.8976
90.0811
89.2895
87.8936
86.1745
84.6605
83.9243
84.4102
86.1594
87.8075
87.5537
86.6341
85.2629
83.7471
81.2509
78.8875
76.5473
73.6669
72.266
71.3609
72.6642
74.8952
78.1296
81.6875
85.6009
89.3709
92.6675
94.6556
95.1911
87.6597
87.1195
86.2207
85.1587
83.5507
81.4203
79.6161
78.9124
79.8859
82.3144
84.4085
84.1155
83.2259
81.8385
80.4177
77.9115
75.5162
73.2074
70.2841
68.8317
67.9331
69.2865
71.5723
74.8436
78.4166
82.3402
86.1338
89.4339
91.421
91.9448
83.5449
83.1661
82.4211
81.4057
79.749
77.4656
75.7383
75.0569
76.0357
78.654
81.0003
80.6323
79.8098
78.4182
77.0527
74.5231
72.1676
69.9021
66.8666
65.3474
64.4598
65.8787
68.2343
71.5521
75.1439
79.0801
82.9034
86.2076
88.1929
88.7011
80.1682
79.8274
79.2113
78.1996
76.5435
74.5077
72.9184
72.3207
73.0459
75.5864
77.5717
77.2305
76.5005
75.0699
73.6596
71.1667
68.8564
66.5863
63.4005
61.8101
60.9397
62.4402
64.8814
68.2555
71.8696
75.8205
79.6801
82.9886
84.9715
85.46
77.0768
76.8546
76.3967
75.4359
73.8938
71.9977
70.5847
69.8922
70.6412
72.7309
74.1692
73.8525
73.2652
71.8233
70.3027
67.8996
65.5561
63.2192
59.8808
58.2196
57.3726
58.9705
61.5138
64.9543
68.5939
72.5611
76.464
79.7769
81.7568
82.2213
74.1343
74.0324
73.7819
72.9745
71.6002
69.7965
68.5857
68.198
68.6333
70.2982
71.1787
70.585
70.0418
68.6148
67.0294
64.7219
62.227
59.7985
56.3345
54.5744
53.7583
55.4688
58.1317
61.649
65.317
69.3016
73.2555
76.5725
78.5488
78.9849
71.3999
71.3288
71.0524
70.5264
69.481
68.1594
67.0996
66.9118
66.8957
67.8876
68.1647
67.4712
66.8526
65.3842
63.8106
61.5007
58.8612
56.3488
52.7759
50.8694
50.0925
51.9346
54.7355
58.3403
62.0393
66.0417
70.0548
73.3752
75.3475
75.7505
68.8919
68.7746
68.3995
68.0319
67.3607
66.3528
65.6617
64.9994
64.6009
65.2252
65.1093
64.3884
63.7591
62.2097
60.6151
58.2362
55.4655
52.8819
49.185
47.0957
46.3694
48.3674
51.3254
55.0289
58.7613
62.7811
66.8624
70.185
72.1529
72.5181
66.5705
66.2572
65.8223
65.3524
64.8345
64.253
63.5674
62.5578
62.0609
62.2334
62.0821
61.3754
60.6858
59.0883
57.4819
54.9088
52.0471
49.3991
45.545
43.2476
42.5846
44.7661
47.9018
51.7155
55.4835
59.5192
63.6787
67.0018
68.965
69.2872
63.6311
63.8755
63.3563
62.1243
61.5459
61.4636
61.0618
60.1818
59.5991
59.5822
59.2198
58.4625
57.6166
56.0317
54.3716
51.5768
48.6043
45.914
41.8624
39.315
38.7348
41.1296
44.4655
48.4008
52.2065
56.2554
60.5044
63.8254
65.7839
66.0577
59.8301
59.7235
59.0694
58.7156
59.0357
59.3959
58.985
57.6578
56.8131
56.6622
56.3069
55.5577
54.6131
52.9682
51.2897
48.2481
45.1428
42.4319
38.1452
35.2866
34.8137
37.4577
41.0171
45.0854
48.9312
52.9891
57.3401
60.6559
62.6097
62.8293
56.5225
55.5287
55.4523
55.7921
55.8649
55.982
55.8405
55.014
54.1028
54.1269
53.4692
52.6445
51.6156
49.9975
48.2476
44.8966
41.6397
38.9542
34.3961
31.1455
30.8128
33.75
37.5577
41.7699
45.6585
49.7194
54.1865
57.4929
59.4429
59.6016
55.2877
53.9494
53.1683
52.6326
52.6304
53.232
53.2478
52.4805
51.574
51.0813
50.4293
49.7229
48.5457
47.0595
45.2064
41.5156
38.1291
35.4561
30.6178
26.8754
26.7232
30.0061
34.0886
38.455
42.3893
46.4457
51.0442
54.3365
56.2823
56.3741
53.1585
52.0155
50.8728
49.7541
49.3713
49.8369
50.0126
49.8199
48.7927
48.7778
47.4901
46.5591
45.4865
44.1703
42.2753
38.0505
34.3514
31.989
26.8125
22.4572
22.5414
26.2247
30.6114
35.1412
39.1247
43.1669
47.9142
51.1863
53.1285
53.1465
49.2341
48.5436
47.8
46.4067
46.1034
46.9506
47.5942
47.1097
45.7689
45.5712
44.5632
43.5484
42.4809
41.4156
39.3063
34.5722
30.7467
28.6798
22.9845
17.8543
18.2654
22.4058
27.1278
31.8291
35.866
39.8818
44.7973
48.0421
49.9816
49.9182
46.1612
45.6086
44.95
43.9364
43.5497
43.4547
43.5466
43.9314
42.9352
42.954
41.6183
40.8969
40.2255
38.6103
36.4057
30.9326
26.5598
25.1504
19.1937
13.0292
13.884
18.5532
23.6399
28.5193
32.6145
36.589
41.6948
44.9038
46.8415
46.6887
43.6626
43.2573
42.696
42.3722
41.7826
41.1381
40.7367
40.4081
39.5237
39.1819
38.6111
37.7882
37.1005
35.8075
33.4768
27.1285
22.8744
22.5927
15.4084
7.96539
9.38707
14.6749
20.1509
25.2122
29.3719
33.2871
38.6075
41.771
43.7083
43.4574
40.7307
40.4246
40.1142
40.2878
39.6952
38.5563
37.836
37.5255
35.4859
36.3074
35.6403
34.2373
34.0341
33.0409
30.6156
23.568
18.3546
18.3589
11.82
2.72137
4.8096
10.7951
16.6677
21.9082
26.1397
29.9743
35.5371
38.6433
40.582
40.2235
37.8196
37.5031
37.5209
37.7821
37.5616
36.4179
34.9005
34.7462
34.3249
32.1504
31.785
31.6868
31.3419
30.4906
27.7487
18.7582
17.9116
17.8342
8.41471
-2.82649
0.196498
6.97746
13.211
18.6082
22.9202
26.6474
32.4857
35.5203
37.4826
36.9865
35.205
35.1433
35.1731
35.3359
35.3602
34.4062
32.4596
30.9313
30.4703
26.7911
28.902
28.2652
28.8472
28.0219
25.0595
15.8074
11.0773
14.4915
7.62237
-1.55991
-2.53346
3.24411
9.81734
15.3151
19.7159
23.3265
29.4351
32.4015
34.1579
33.7446
32.514
32.5101
32.7218
33.0606
33.0357
31.934
30.0785
28.0448
25.5404
22.3005
26.7678
26.2457
26.4606
25.8387
22.4839
12.9291
7.60785
11.8771
6.22735
-0.740824
-0.415469
0.35293
6.47479
12.0285
16.5291
20.0001
26.3949
29.2872
31.5368
30.4999
29.7244
29.6607
29.9805
30.317
30.496
29.2973
27.5872
25.7875
22.0107
18.6547
23.6508
24.3217
24.1481
23.4063
19.3846
9.61455
4.01959
7.08618
4.00397
0.576454
-0.651074
-0.38743
2.18233
8.70776
13.362
16.6641
23.3682
26.1747
27.8084
27.2452
26.916
26.8207
26.9731
27.1283
27.3961
26.3633
24.7827
22.8601
16.9056
14.3922
21.7274
23.7941
22.4222
20.4538
16.4332
6.89758
-0.661132
1.99609
0.898839
-0.00865713
0.00931413
-0.0295812
-0.49031
5.14094
10.2139
13.3148
20.3569
23.0657
25.4427
23.9876
23.9464
23.8442
23.8226
23.7347
23.6612
23.1245
22.1331
19.8134
14.3506
9.74894
16.9761
20.4231
18.2275
16.893
13.4633
3.49251
-2.1906
-0.283503
-0.0710084
-0.121266
0.0629778
0.0194745
-0.173503
0.870388
7.03771
9.95113
17.363
19.9562
21.5203
20.7195
20.6096
20.5185
20.4551
20.2382
20.0122
20.009
19.7748
16.6595
9.89636
6.30923
13.8231
16.3381
14.5396
13.3189
11.0208
-0.900488
-0.87083
-0.0902113
-0.0621759
-0.12967
0.0485037
0.00387004
-0.112329
-0.937191
3.10656
6.57411
14.3896
16.85
18.9874
17.4232
16.9612
16.8676
16.9273
16.6329
16.5967
17.2587
15.4794
12.7455
7.5597
3.58729
7.9632
11.6944
10.9995
9.72455
7.65531
-1.29438
-0.231236
-0.110777
-0.045575
-0.122538
0.0303072
-0.00334681
-0.113556
-0.0848728
-0.038495
3.13062
11.4452
13.7518
15.395
14.1933
13.8177
13.0843
13.2487
12.9268
12.6755
15.4735
7.67061
7.14491
7.53092
3.08965
4.82602
7.71906
7.52045
5.88769
1.59853
-0.335173
-0.178881
-0.122363
-0.0468878
-0.1215
0.0106847
-0.0148919
-0.111391
-0.0517821
-0.758128
-0.753938
8.62696
10.6446
12.574
10.8436
8.48433
10.0905
8.35767
3.94198
-1.93303
-0.114148
-0.0479757
-0.0562128
-0.00312771
-0.000342343
0.0210264
0.000677973
-0.281217
-0.0990522
-0.457805
0.213667
0.866209
-0.251888
-1.2567
-3.55613
2.42122
12.8426
3.86766
4.03236
13.5838
10.9644
10.8916
11.2348
10.6753
11.3723
6.8805
8.47278
6.6796
2.71687
-0.673434
-0.0508781
-0.0513075
-0.0580425
-0.00535896
-0.00874284
0.0131182
-0.0165631
-0.281179
-0.130213
-0.361453
-0.18773
-0.179167
-0.921134
-2.68119
-5.94417
3.39431
13.5729
3.80612
2.79509
11.827
9.63738
9.24325
9.50026
8.83773
9.23406
5.21229
6.70315
4.79533
-0.196428
-0.0549959
-0.051897
-0.0545355
-0.0603598
-0.00844596
-0.0185613
0.00538698
-0.0353583
-0.281563
-0.152784
-0.318566
-0.175586
-0.170216
-0.141167
-0.464749
-3.11081
3.47656
12.8453
6.86327
2.69236
10.396
8.01188
7.34781
7.6572
6.84832
7.22637
3.45412
4.69955
2.32107
0.416366
-0.0764261
-0.0530595
-0.0579023
-0.0631554
-0.0124831
-0.030654
-0.0029915
-0.0560934
-0.281909
-0.171879
-0.287195
-0.17426
-0.175681
-0.153252
-0.125964
-0.175954
1.21334
11.3567
12.8734
1.29184
9.05791
6.03187
5.28336
5.57534
4.56958
4.7674
1.63093
2.46031
1.65034
-0.188753
-0.0723879
-0.0570835
-0.0614014
-0.0661259
-0.0175053
-0.0457612
-0.0124671
-0.0793824
-0.281682
-0.187955
-0.250287
-0.185878
-0.177589
-0.154621
-0.135125
-0.158781
-0.0848461
6.55258
11.3834
0.107853
7.46063
3.48145
2.99992
3.24403
2.12548
2.3515
0.330355
0.418251
-0.00378682
-0.159295
-0.0778474
-0.0624909
-0.0651978
-0.0691419
-0.0235712
-0.06427
-0.0236538
-0.105728
-0.279906
-0.201474
-0.237846
-0.181967
-0.183426
-0.164956
-0.138519
-0.143979
-0.122094
-0.178835
0.719412
0.102576
1.70098
-0.0604894
0.36326
0.36523
0.284666
0.29314
-0.134215
-0.128134
-0.112626
-0.157419
-0.0824657
-0.0676399
-0.0690035
-0.0719443
-0.0306249
-0.0838347
-0.0367824
-0.134394
-0.276078
-0.212203
-0.220206
-0.181092
-0.184648
-0.166204
-0.136051
-0.149176
-0.165567
-0.129096
-0.119427
-0.0626358
-0.0743855
-0.0817452
-0.0824821
-0.0827495
-0.0841568
-0.0889263
-0.13144
-0.129759
-0.115755
-0.15637
-0.0872892
-0.0725151
-0.0728973
-0.0747801
-0.0384305
-0.100374
-0.0499077
-0.162917
-0.269316
-0.220693
-0.207212
-0.180602
-0.183834
-0.166051
-0.13619
-0.161742
-0.184491
-0.209873
-0.0686361
-0.0825395
-0.0824996
-0.0841321
-0.0841385
-0.0857063
-0.08756
-0.09019
-0.13445
-0.133085
-0.119382
-0.156211
-0.0920725
-0.0774715
-0.0769996
-0.0777333
-0.0467637
-0.108597
-0.0584119
-0.184369
-0.260032
-0.225569
-0.19834
-0.177709
-0.179249
-0.16028
-0.137573
-0.144451
-0.140739
-0.154552
-0.114836
-0.0952878
-0.0889768
-0.0882115
-0.0887144
-0.0903193
-0.0923738
-0.0947096
-0.136839
-0.136591
-0.123578
-0.155833
-0.0969664
-0.08268
-0.0814148
-0.080947
-0.0555013
-0.105998
-0.0631145
-0.185267
-0.246635
-0.223189
-0.192025
-0.174942
-0.175158
-0.159349
-0.138951
-0.135958
-0.129915
-0.108463
-0.101699
-0.100323
-0.0946681
-0.0925047
-0.0932652
-0.0947085
-0.0965386
-0.098669
-0.139381
-0.140279
-0.128162
-0.155755
-0.102022
-0.0881911
-0.0861924
-0.0845512
-0.0647127
-0.099855
-0.0698444
-0.168892
-0.226804
-0.213426
-0.187046
-0.173233
-0.170925
-0.15698
-0.13913
-0.12961
-0.123578
-0.116769
-0.104181
-0.0979357
-0.0958256
-0.0971905
-0.0972751
-0.0984099
-0.0998987
-0.101732
-0.142124
-0.144134
-0.132943
-0.156093
-0.107246
-0.0940198
-0.091358
-0.0887377
-0.0744634
-0.0961677
-0.0847339
-0.150412
-0.202521
-0.198251
-0.182102
-0.171396
-0.167591
-0.153191
-0.140087
-0.130396
-0.127592
-0.115864
-0.108724
-0.104949
-0.0745933
-0.0993781
-0.0998191
-0.100764
-0.101886
-0.10345
-0.145339
-0.1481
-0.137853
-0.156554
-0.112676
-0.100173
-0.0969327
-0.0936533
-0.0847356
-0.0971538
-0.107702
-0.142943
-0.182553
-0.181425
-0.176081
-0.169503
-0.165454
-0.153778
-0.145706
-0.137783
-0.130348
-0.119407
-0.113427
-0.109909
-0.0698864
-0.100913
-0.101364
-0.10194
-0.102917
-0.10405
-0.148827
-0.151997
-0.142795
-0.157314
-0.118349
-0.106655
-0.102937
-0.0993226
-0.0952891
-0.101587
-0.138837
-0.14637
-0.172327
-0.165752
-0.168445
-0.166367
-0.16432
-0.152579
-0.147994
-0.139814
-0.132282
-0.123428
-0.117615
-0.114303
-0.0773913
-0.101848
-0.102563
-0.102799
-0.103575
-0.104407
-0.152659
-0.156104
-0.147836
-0.158357
-0.124319
-0.11348
-0.109385
-0.105739
-0.105789
-0.1082
-0.165461
-0.159313
-0.172183
-0.151562
-0.160246
-0.162284
-0.161409
-0.146476
-0.149276
-0.142343
-0.135673
-0.12723
-0.122496
-0.119917
-0.0925342
-0.0999997
-0.103529
-0.103972
-0.104013
-0.105018
-0.156928
-0.160214
-0.152915
-0.159849
-0.130628
-0.120666
-0.116294
-0.112871
-0.115651
-0.116012
-0.180932
-0.171762
-0.17526
-0.143531
-0.152992
-0.157488
-0.138146
-0.156351
-0.151639
-0.145119
-0.140075
-0.132882
-0.126193
-0.113872
-0.105682
-0.111651
-0.108445
-0.108219
-0.106953
-0.108475
-0.161642
-0.164464
-0.158124
-0.161999
-0.137325
-0.128235
-0.123692
-0.120666
-0.124682
-0.124327
-0.177645
-0.171891
-0.168814
-0.145717
-0.152482
-0.138041
-0.130963
-0.163183
-0.154508
-0.147748
-0.139109
-0.136844
-0.132287
-0.125248
-0.114744
-0.113355
-0.116218
-0.1154
-0.10957
-0.112933
-0.166834
-0.169059
-0.163596
-0.16499
-0.144462
-0.136215
-0.131621
-0.129069
-0.133156
-0.132819
-0.167484
-0.16262
-0.15026
-0.150304
-0.128328
-0.131169
-0.150509
-0.162102
-0.15715
-0.152261
-0.149336
-0.142424
-0.138388
-0.13781
-0.132984
-0.116169
-0.121673
-0.12285
-0.123028
-0.121391
-0.17254
-0.174167
-0.169498
-0.168964
-0.152091
-0.144642
-0.140133
-0.138042
-0.14154
-0.1416
-0.160655
-0.157849
-0.134665
-0.151034
-0.146867
-0.140305
-0.161124
-0.164605
-0.16132
-0.157895
-0.155405
-0.152571
-0.148785
-0.146479
-0.145387
-0.145563
-0.141476
-0.136043
-0.0997369
-0.126268
-0.178805
-0.17991
-0.175949
-0.17401
-0.160265
-0.153561
-0.14928
-0.147565
-0.150241
-0.150679
-0.160506
-0.160374
-0.134157
-0.153447
-0.166335
-0.164126
-0.16822
-0.168352
-0.16627
-0.164101
-0.162057
-0.160221
-0.158463
-0.156641
-0.155672
-0.155354
-0.156326
-0.161794
-0.119973
-0.123783
-0.185684
-0.186372
-0.183026
-0.180161
-0.169041
-0.163029
-0.159098
-0.157653
-0.159524
-0.160117
-0.164895
-0.165709
-0.14385
-0.160512
-0.169669
-0.170504
-0.173399
-0.17412
-0.173111
-0.171446
-0.169686
-0.168048
-0.166682
-0.165805
-0.165955
-0.167619
-0.170742
-0.176494
-0.133751
-0.136993
-0.193241
-0.193612
-0.190801
-0.187412
-0.178476
-0.173116
-0.169615
-0.168352
-0.169541
-0.170083
-0.172245
-0.172963
-0.157277
-0.170403
-0.176132
-0.17849
-0.180932
-0.181924
-0.181549
-0.18029
-0.178616
-0.17675
-0.174844
-0.173024
-0.171349
-0.169886
-0.168587
-0.166737
-0.161115
-0.157967
-0.20154
-0.201677
-0.199343
-0.195753
-0.18863
-0.183902
-0.180856
-0.179726
-0.180384
-0.180778
-0.181573
-0.182274
-0.172065
-0.181727
-0.185349
-0.188286
-0.190623
-0.191962
-0.192204
-0.191465
-0.189957
-0.187799
-0.185002
-0.182026
-0.179344
-0.1774
-0.176523
-0.1764
-0.17523
-0.176432
-0.210647
-0.210621
-0.208717
-0.205188
-0.199561
-0.195469
-0.192862
-0.191848
-0.192124
-0.192375
-0.192666
-0.19346
-0.187303
-0.194094
-0.196917
-0.199941
-0.202665
-0.204707
-0.205946
-0.206315
-0.205944
-0.20459
-0.202334
-0.19893
-0.192386
-0.192902
-0.190592
-0.190088
-0.189921
-0.175921
-0.220631
-0.220504
-0.218993
-0.215736
-0.211338
-0.20789
-0.205694
-0.204794
-0.204828
-0.204992
-0.205212
-0.20594
-0.203037
-0.207566
-0.210365
-0.213689
-0.217118
-0.220587
-0.223929
-0.226773
-0.229221
-0.230624
-0.230395
-0.228703
-0.220702
-0.217589
-0.215167
-0.2109
-0.208823
-0.206955
-0.231564
-0.231391
-0.230244
-0.227417
-0.224057
-0.221237
-0.21943
-0.218646
-0.218559
-0.218689
-0.218987
-0.219704
-0.21902
-0.222151
-0.2251
-0.228775
-0.233152
-0.238405
-0.244682
-0.251677
-0.258549
-0.264004
-0.267227
-0.268051
-0.267286
-0.253553
-0.253833
-0.2552
-0.250877
-0.25117
-0.243521
-0.243352
-0.242546
-0.240266
-0.237813
-0.235594
-0.234158
-0.233498
-0.233373
-0.233496
-0.233877
-0.234598
-0.235129
-0.237574
-0.240573
-0.244454
-0.249485
-0.256016
-0.26441
-0.274515
-0.285614
-0.295696
-0.302947
-0.307253
-0.309497
-0.300091
-0.299903
-0.299999
-0.299136
-0.298827
-0.256577
-0.256456
-0.255983
-0.254359
-0.252675
-0.251053
-0.249976
-0.249451
-0.249327
-0.249438
-0.249828
-0.250537
-0.251485
-0.253513
-0.256215
-0.259723
-0.264497
-0.27083
-0.279027
-0.289334
-0.301522
-0.313224
-0.322332
-0.32785
-0.330396
-0.324775
-0.327202
-0.325027
-0.322907
-0.321458
-0.270809
-0.270771
-0.270636
-0.269752
-0.26875
-0.267725
-0.266998
-0.266612
-0.266498
-0.266564
-0.266864
-0.267417
-0.268271
-0.269765
-0.271863
-0.273938
-0.27734
-0.281615
-0.286974
-0.293378
-0.300485
-0.307131
-0.312469
-0.316281
-0.317867
-0.316567
-0.320236
-0.318781
-0.317793
-0.316874
-0.286292
-0.286365
-0.286587
-0.286522
-0.286167
-0.285748
-0.28537
-0.285124
-0.28501
-0.284992
-0.285097
-0.285316
-0.285643
-0.286243
-0.287027
-0.287986
-0.289231
-0.290686
-0.292267
-0.29385
-0.295361
-0.296894
-0.298896
-0.301355
-0.304162
-0.307581
-0.309692
-0.311277
-0.312751
-0.314
11.3211
10.2381
10.4744
10.3842
9.7954
13.1299
3.77645
4.60827
8.97769
2.75085
2.48547
4.60737
4.84388
2.6717
-0.296692
-0.237292
-0.221998
-0.138473
-0.0669083
-0.127479
-0.00498444
-0.0233746
-0.111831
-0.0576414
-0.133299
-1.90484
3.90137
8.29345
10.0555
8.46311
9.07149
8.33687
8.46915
8.45086
8.29368
11.1303
2.71814
5.22932
10.5696
2.58794
0.619942
2.21792
2.39479
0.457157
-0.133774
-0.229239
-0.240205
-0.152494
-0.0854818
-0.132716
-0.0163481
-0.02943
-0.111956
-0.0604568
-0.0813203
-0.652862
2.71147
6.61222
8.43884
6.85945
6.86548
6.24985
6.29578
6.23846
6.43828
9.54084
2.43467
7.67465
11.9742
2.2207
-1.62737
-0.866484
-0.0781307
-0.124544
-0.141431
-0.219729
-0.254821
-0.167923
-0.106217
-0.138084
-0.0282893
-0.0357323
-0.112115
-0.0636448
-0.0812978
-0.0542629
-0.213609
4.72473
6.67015
5.19098
4.34657
3.78701
3.64525
3.81328
3.92346
7.75458
2.16595
10.4271
12.384
1.00187
-1.38131
-0.378004
-0.103743
-0.123878
-0.150474
-0.213502
-0.267924
-0.182862
-0.125403
-0.142749
-0.040017
-0.0419178
-0.112499
-0.067094
-0.0813127
-0.0806451
0.392491
2.25041
4.6672
3.43184
1.84204
1.16031
0.724292
1.11988
1.0125
5.98383
1.7542
10.3313
9.21972
-0.669491
-0.0931519
-0.0999992
-0.108324
-0.126383
-0.158063
-0.209309
-0.2788
-0.19664
-0.140045
-0.145679
-0.0508375
-0.0478887
-0.113032
-0.0707641
-0.0842103
-0.0769685
-0.199608
1.65504
2.43265
1.60959
0.0706741
0.0178611
-0.0486727
-0.0909076
-0.1915
1.89605
0.757933
1.15162
-0.107636
-0.0592586
-0.0912427
-0.102558
-0.109218
-0.130007
-0.164302
-0.206865
-0.286557
-0.208904
-0.147757
-0.145786
-0.0602634
-0.0537781
-0.113657
-0.0747736
-0.0884321
-0.0829667
-0.167994
-0.00322514
0.404504
0.320229
-0.0911028
-0.0954797
-0.0943688
-0.0983181
-0.0985991
-0.0943727
-0.0832073
-0.0968791
-0.0799846
-0.0787821
-0.100241
-0.104406
-0.110959
-0.133887
-0.168986
-0.204324
-0.289732
-0.21757
-0.146864
-0.14298
-0.068363
-0.0596293
-0.114313
-0.0787351
-0.0925083
-0.0879841
-0.16619
-0.116495
-0.13221
-0.13393
-0.0927322
-0.09521
-0.0980496
-0.101049
-0.103951
-0.102581
-0.0977845
-0.10122
-0.0898694
-0.0737394
-0.110536
-0.106808
-0.113613
-0.13978
-0.173742
-0.205488
-0.284999
-0.220979
-0.137404
-0.138258
-0.0755161
-0.065516
-0.115148
-0.0828329
-0.0962482
-0.093329
-0.16512
-0.119523
-0.133773
-0.131333
-0.0971894
-0.100041
-0.103344
-0.106992
-0.109562
-0.110399
-0.108865
-0.0981691
-0.134873
-0.142932
-0.12044
-0.111793
-0.118096
-0.148395
-0.177391
-0.205468
-0.274144
-0.218405
-0.121335
-0.133052
-0.0822286
-0.0715168
-0.116308
-0.0871077
-0.100051
-0.0985938
-0.16493
-0.123105
-0.137075
-0.13439
-0.101151
-0.104255
-0.10808
-0.112418
-0.115978
-0.118098
-0.118411
-0.110777
-0.120098
-0.128408
-0.120203
-0.116923
-0.125916
-0.153186
-0.178731
-0.203515
-0.257419
-0.210212
-0.10413
-0.130908
-0.0889192
-0.0776812
-0.117888
-0.0916455
-0.104114
-0.103918
-0.164477
-0.127286
-0.140542
-0.136836
-0.104148
-0.10736
-0.111371
-0.116097
-0.121026
-0.124998
-0.124571
-0.114026
-0.119024
-0.130442
-0.122896
-0.123696
-0.131964
-0.155541
-0.17762
-0.198466
-0.236618
-0.199853
-0.0935528
-0.134791
-0.09594
-0.084029
-0.119959
-0.0964911
-0.1085
-0.109341
-0.164348
-0.131879
-0.144183
-0.139441
-0.105596
-0.108583
-0.112553
-0.117259
-0.123476
-0.127794
-0.128088
-0.12389
-0.128008
-0.132997
-0.130195
-0.129727
-0.137241
-0.155563
-0.173976
-0.190393
-0.215038
-0.191169
-0.0928096
-0.134878
-0.103276
-0.0905612
-0.122575
-0.101671
-0.113224
-0.114863
-0.164541
-0.13667
-0.147978
-0.142252
-0.105729
-0.108149
-0.111674
-0.116378
-0.121577
-0.126543
-0.129442
-0.131671
-0.137076
-0.140189
-0.137333
-0.135547
-0.140916
-0.15334
-0.16753
-0.179435
-0.195222
-0.181254
-0.102433
-0.129175
-0.110699
-0.0973073
-0.125774
-0.107209
-0.118299
-0.120525
-0.164871
-0.141617
-0.151868
-0.145486
-0.105704
-0.107656
-0.110562
-0.114629
-0.120193
-0.126221
-0.131883
-0.13779
-0.144232
-0.147225
-0.144153
-0.140684
-0.143238
-0.150559
-0.159366
-0.167414
-0.180953
-0.172215
-0.120006
-0.129246
-0.118274
-0.104341
-0.129584
-0.113132
-0.123737
-0.126361
-0.165464
-0.146812
-0.155627
-0.149047
-0.106475
-0.108533
-0.111488
-0.115723
-0.121537
-0.12813
-0.136208
-0.144465
-0.151115
-0.153046
-0.149598
-0.145129
-0.145196
-0.148914
-0.153264
-0.157815
-0.173834
-0.170761
-0.138153
-0.133784
-0.126069
-0.111712
-0.134022
-0.119468
-0.129554
-0.132423
-0.166299
-0.15189
-0.159591
-0.152916
-0.110596
-0.11325
-0.115985
-0.119955
-0.125739
-0.132855
-0.141552
-0.149938
-0.155873
-0.156997
-0.153539
-0.149258
-0.148135
-0.149521
-0.150978
-0.152329
-0.168513
-0.172081
-0.148677
-0.139184
-0.133912
-0.11945
-0.139096
-0.126251
-0.13577
-0.13875
-0.167587
-0.156983
-0.163562
-0.157223
-0.113812
-0.117901
-0.122002
-0.125712
-0.131444
-0.138659
-0.14598
-0.153017
-0.15787
-0.158904
-0.156522
-0.153632
-0.152544
-0.152747
-0.152851
-0.152771
-0.16371
-0.171166
-0.154843
-0.144959
-0.141779
-0.127597
-0.144804
-0.133516
-0.142407
-0.145391
-0.169527
-0.162184
-0.167655
-0.161965
-0.124284
-0.124885
-0.128505
-0.133468
-0.137355
-0.143046
-0.149803
-0.155
-0.158849
-0.160235
-0.159728
-0.158783
-0.158338
-0.158174
-0.157686
-0.157316
-0.163091
-0.170231
-0.160505
-0.151188
-0.149897
-0.13621
-0.151143
-0.141298
-0.149491
-0.152396
-0.17229
-0.16762
-0.17207
-0.167178
-0.12799
-0.128143
-0.133894
-0.136062
-0.143145
-0.148021
-0.152687
-0.157175
-0.160576
-0.162875
-0.164228
-0.165056
-0.165428
-0.16526
-0.164528
-0.164047
-0.166875
-0.17176
-0.166766
-0.158271
-0.158039
-0.14535
-0.158116
-0.149634
-0.157054
-0.159816
-0.176003
-0.173458
-0.176991
-0.172901
-0.133096
-0.125956
-0.139025
-0.142015
-0.146672
-0.1527
-0.157429
-0.161338
-0.164804
-0.167954
-0.170753
-0.172866
-0.173905
-0.173824
-0.172956
-0.172213
-0.173339
-0.175969
-0.173759
-0.165937
-0.166639
-0.155072
-0.165732
-0.158558
-0.165131
-0.167706
-0.18074
-0.179822