/*--------------------------------*- C++ -*----------------------------------*\
| =========                 |                                                 |
| \\      /  F ield         | OpenFOAM: The Open Source CFD Toolbox           |
|  \\    /   O peration     | Version:  2.4.0                                 |
|   \\  /    A nd           | Web:      www.OpenFOAM.org                      |
|    \\/     M anipulation  |                                                 |
\*---------------------------------------------------------------------------*/
FoamFile
{
    version     2.0;
    format      ascii;
    class       volVectorField;
    location    "0.124";
    object      U;
}
// * * * * * * * * * * * * * * * * * * * * * * * * * * * * * * * * * * * * * //

dimensions      [0 1 -1 0 0 0 0];

internalField   nonuniform List<vector> 
3600
(
(-0.00386293 9.02304e-05 0)
(-0.00568033 -0.000129369 0)
(0.000628391 -0.000261032 0)
(0.00833536 -0.000276572 0)
(0.0169329 -0.000359394 0)
(0.026322 -0.000313135 0)
(0.0345841 -0.000286925 0)
(0.0410783 -0.000166746 0)
(0.0465454 4.95816e-05 0)
(0.0437872 0.000508879 0)
(0.0456322 0.000637617 0)
(0.0290948 0.00120603 0)
(0.0286795 0.00123236 0)
(0.0119956 0.001883 0)
(-0.00515152 0.00148394 0)
(-0.00706439 0.00163468 0)
(-0.0259909 0.000698246 0)
(-0.0277417 -0.000761653 0)
(-0.0329581 -0.0025515 0)
(-0.0319622 0.00156576 0)
(-0.0530887 0.00440377 0)
(-0.0584925 -0.001311 0)
(-0.042554 -0.00327057 0)
(-0.0385551 -0.00141523 0)
(-0.0245969 -0.00304778 0)
(-0.018804 0.000757431 0)
(-0.023292 0.00608015 0)
(-0.0341561 -0.00575388 0)
(-0.0110619 -0.0231659 0)
(0.0117688 0.00212696 0)
(-0.00704439 0.000601402 0)
(-0.0127775 -0.000241686 0)
(-0.00655615 -0.000923851 0)
(0.00253493 -0.00113998 0)
(0.0134619 -0.00155386 0)
(0.0262466 -0.00158587 0)
(0.0383573 -0.00162084 0)
(0.0488405 -0.00141084 0)
(0.0591216 -0.000668742 0)
(0.0583807 0.000315138 0)
(0.0688568 0.00137993 0)
(0.0469418 0.00304967 0)
(0.0581129 0.00193541 0)
(0.0410668 0.00711904 0)
(0.0174578 0.00382954 0)
(0.026773 0.00479332 0)
(-0.00127249 0.00726477 0)
(-0.0149368 0.00373425 0)
(-0.0368683 0.00369942 0)
(-0.0586424 0.00795239 0)
(-0.0718406 0.00862496 0)
(-0.0820017 -0.00271528 0)
(-0.0850386 -0.00806117 0)
(-0.072229 -0.0111734 0)
(-0.0567819 -0.0141729 0)
(-0.0489996 -0.00206433 0)
(-0.0281617 0.0114118 0)
(-0.0202192 -0.00951188 0)
(-0.0133797 -0.0345516 0)
(-0.000542271 0.0040212 0)
(-0.00788609 0.00137962 0)
(-0.014757 -0.000243293 0)
(-0.0089046 -0.00154034 0)
(4.63946e-05 -0.00199174 0)
(0.0110549 -0.00276744 0)
(0.0241521 -0.00293474 0)
(0.0367143 -0.00308055 0)
(0.047831 -0.00284944 0)
(0.0589305 -0.00156491 0)
(0.0587476 -0.000306177 0)
(0.0715299 0.00200555 0)
(0.0469625 0.00435028 0)
(0.0664473 0.00158676 0)
(0.0455804 0.0121824 0)
(0.0301371 0.0053673 0)
(0.0390988 0.0068296 0)
(0.0168479 0.0145033 0)
(-0.00173288 0.0124504 0)
(-0.0226111 0.0151373 0)
(-0.0529964 0.0154319 0)
(-0.0763531 0.0173957 0)
(-0.0954728 0.00724144 0)
(-0.109434 -0.00983242 0)
(-0.101178 -0.0207927 0)
(-0.0920348 -0.0205152 0)
(-0.0740996 -0.0201468 0)
(-0.0393441 -0.0148904 0)
(-0.0157047 -0.0273802 0)
(-0.0112194 -0.0386925 0)
(-0.00623978 -0.0138967 0)
(-0.00812832 0.00217057 0)
(-0.0152832 -0.00023733 0)
(-0.00946527 -0.00216511 0)
(-0.000553748 -0.0028533 0)
(0.0104658 -0.00399655 0)
(0.023625 -0.00430522 0)
(0.0362636 -0.00457129 0)
(0.0475659 -0.00432869 0)
(0.0588557 -0.00249559 0)
(0.0587378 -0.00102356 0)
(0.0725915 0.00290321 0)
(0.043556 0.00499966 0)
(0.0743068 0.00136324 0)
(0.0375714 0.0165923 0)
(0.0440799 0.00590782 0)
(0.0441033 0.00802958 0)
(0.0285167 0.0214291 0)
(0.0059017 0.0191395 0)
(-0.00538631 0.0268026 0)
(-0.04197 0.0288865 0)
(-0.0680534 0.0293502 0)
(-0.0920376 0.0176843 0)
(-0.105226 -0.00468844 0)
(-0.10437 -0.0283968 0)
(-0.0972768 -0.0386299 0)
(-0.0743179 -0.0439627 0)
(-0.0572887 -0.0428242 0)
(-0.0373931 -0.0421834 0)
(-0.0320324 -0.0418719 0)
(-0.00985297 -0.0268079 0)
(-0.00825809 0.00297559 0)
(-0.0155387 -0.000224567 0)
(-0.00966533 -0.00279164 0)
(-0.000734124 -0.00371552 0)
(0.0103062 -0.00522787 0)
(0.0235196 -0.00567776 0)
(0.0362105 -0.00607493 0)
(0.0476916 -0.00583114 0)
(0.0591299 -0.00343491 0)
(0.0591826 -0.00184053 0)
(0.0735778 0.00420882 0)
(0.0408032 0.004781 0)
(0.0809903 0.00265176 0)
(0.0204544 0.0199811 0)
(0.0602047 0.00417268 0)
(0.0433648 0.00966245 0)
(0.0329679 0.0280693 0)
(0.0127592 0.0237335 0)
(0.0169325 0.0346958 0)
(-0.0101356 0.0398727 0)
(-0.0453786 0.0403235 0)
(-0.0625463 0.0286344 0)
(-0.0724216 -0.00146616 0)
(-0.0745089 -0.0286087 0)
(-0.0756357 -0.0487887 0)
(-0.0616788 -0.0606894 0)
(-0.0544524 -0.0612993 0)
(-0.0361731 -0.0633117 0)
(-0.0224125 -0.0668702 0)
(-0.00720419 -0.0638854 0)
(-0.00838611 0.00379167 0)
(-0.0157864 -0.000211643 0)
(-0.00983224 -0.00342348 0)
(-0.000865962 -0.00458064 0)
(0.0101929 -0.00646351 0)
(0.0234615 -0.00705274 0)
(0.0362032 -0.00759601 0)
(0.0478982 -0.00736246 0)
(0.0594792 -0.00440527 0)
(0.0599971 -0.0027007 0)
(0.074041 0.00571188 0)
(0.0409009 0.00411021 0)
(0.0839132 0.00616382 0)
(0.00373478 0.0217886 0)
(0.0726505 0.000651701 0)
(0.0300017 0.0141628 0)
(0.0333485 0.0337564 0)
(0.0175301 0.0252518 0)
(0.0248514 0.0368477 0)
(0.0204514 0.0550885 0)
(-0.00668489 0.0536191 0)
(-0.0130915 0.0350105 0)
(-0.0197189 0.00869813 0)
(-0.0223879 -0.0196449 0)
(-0.0262892 -0.0452446 0)
(-0.0155059 -0.0613443 0)
(-0.0147556 -0.069047 0)
(-0.00861346 -0.0761605 0)
(-0.00448349 -0.0789075 0)
(-0.00113601 -0.0772966 0)
(-0.00853569 0.00462148 0)
(-0.0160765 -0.000197978 0)
(-0.0100238 -0.00406125 0)
(-0.00101388 -0.00544831 0)
(0.0100638 -0.00770255 0)
(0.0233936 -0.00842894 0)
(0.0361911 -0.00913731 0)
(0.0481465 -0.0089261 0)
(0.0598709 -0.00543138 0)
(0.0611929 -0.00353905 0)
(0.0737789 0.00715808 0)
(0.0445473 0.00328982 0)
(0.0843781 0.0111252 0)
(-0.00316574 0.0219526 0)
(0.0766305 -0.00050497 0)
(0.00621479 0.0187571 0)
(0.0408355 0.03498 0)
(0.0211869 0.0279515 0)
(0.0303304 0.0334191 0)
(0.0397129 0.0579173 0)
(0.0333481 0.0575639 0)
(0.0210893 0.04063 0)
(0.0133817 0.00725165 0)
(0.00880584 -0.0215515 0)
(-0.00197486 -0.0489476 0)
(0.00748892 -0.0674285 0)
(0.0123378 -0.0662669 0)
(0.0122736 -0.0680899 0)
(0.0100301 -0.0716862 0)
(0.00481089 -0.0690921 0)
(-0.00871185 0.00546769 0)
(-0.0164187 -0.000183367 0)
(-0.010249 -0.00470607 0)
(-0.00118674 -0.0063192 0)
(0.00991145 -0.00894524 0)
(0.0233091 -0.00980612 0)
(0.036169 -0.0107029 0)
(0.0484318 -0.0105276 0)
(0.0603239 -0.00654157 0)
(0.0626814 -0.0042489 0)
(0.0726798 0.00820217 0)
(0.0521806 0.00244955 0)
(0.0798473 0.0165176 0)
(0.00912729 0.022183 0)
(0.0708815 0.000766923 0)
(-0.00283179 0.0227574 0)
(0.0402145 0.0320913 0)
(0.0230969 0.0276932 0)
(0.0190861 0.0292899 0)
(0.0478503 0.053981 0)
(0.0577377 0.0622706 0)
(0.0524508 0.049249 0)
(0.0493153 0.013058 0)
(0.0367104 -0.0116194 0)
(0.0205046 -0.0473964 0)
(0.0206679 -0.0754128 0)
(0.0143608 -0.0736036 0)
(0.00949202 -0.0685851 0)
(0.00746141 -0.0658051 0)
(0.00430617 -0.060383 0)
(-0.00891599 0.00633305 0)
(-0.0168153 -0.000167678 0)
(-0.0105091 -0.00535908 0)
(-0.00138544 -0.00719383 0)
(0.00973534 -0.0101922 0)
(0.0232066 -0.0111837 0)
(0.036135 -0.0122955 0)
(0.0487485 -0.0121758 0)
(0.0608902 -0.00774329 0)
(0.0641175 -0.00477598 0)
(0.0718715 0.00841008 0)
(0.0599837 0.00296246 0)
(0.0662899 0.0204865 0)
(0.0342969 0.0230195 0)
(0.0561358 0.00520784 0)
(0.00524122 0.0251189 0)
(0.0219872 0.0273715 0)
(0.0219166 0.0332421 0)
(0.00628665 0.0256188 0)
(0.0390534 0.037596 0)
(0.0702911 0.0554299 0)
(0.0848717 0.0475069 0)
(0.0749492 0.0233636 0)
(0.0603468 0.000587661 0)
(0.0523269 -0.0337158 0)
(0.047842 -0.0605594 0)
(0.0341111 -0.056689 0)
(0.0131071 -0.0595837 0)
(-2.99004e-05 -0.0658981 0)
(0.00117898 -0.0607584 0)
(-0.00914889 0.00722042 0)
(-0.0172676 -0.000150754 0)
(-0.0108046 -0.00602156 0)
(-0.00160991 -0.00807272 0)
(0.00953563 -0.0114433 0)
(0.0230848 -0.012561 0)
(0.0360861 -0.013917 0)
(0.0490943 -0.0138844 0)
(0.061588 -0.00900901 0)
(0.065332 -0.00529809 0)
(0.0728967 0.00822089 0)
(0.0621388 0.0050161 0)
(0.0572464 0.0216434 0)
(0.0513825 0.025185 0)
(0.0438174 0.00877669 0)
(0.0181889 0.0309188 0)
(0.00787385 0.0269387 0)
(0.0258753 0.0332455 0)
(0.0238263 0.0246316 0)
(0.0251653 0.0199522 0)
(0.0601818 0.0362306 0)
(0.0910854 0.0463329 0)
(0.0911156 0.030275 0)
(0.0803171 0.0063094 0)
(0.0742311 -0.0322515 0)
(0.0522041 -0.0607397 0)
(0.0331533 -0.0466458 0)
(0.0207847 -0.0388957 0)
(0.00449232 -0.0547484 0)
(0.000255898 -0.0631497 0)
(-0.00941129 0.00813275 0)
(-0.017777 -0.000132557 0)
(-0.0111359 -0.00669474 0)
(-0.00185986 -0.00895696 0)
(0.00931274 -0.0126981 0)
(0.0229422 -0.0139385 0)
(0.036018 -0.0155698 0)
(0.0494713 -0.0156639 0)
(0.0623677 -0.0103316 0)
(0.0667216 -0.00593904 0)
(0.0745564 0.00827579 0)
(0.0614658 0.00741503 0)
(0.0605324 0.0213403 0)
(0.0559916 0.0275643 0)
(0.0404855 0.0141466 0)
(0.0221538 0.0360689 0)
(0.0204528 0.0269527 0)
(0.0284037 0.0267837 0)
(0.0398715 0.0256914 0)
(0.0290597 0.0198271 0)
(0.0469613 0.0178967 0)
(0.0852161 0.0329218 0)
(0.0934255 0.031392 0)
(0.0799102 0.0188815 0)
(0.0896616 -0.0131192 0)
(0.06388 -0.0296919 0)
(0.016295 -0.0256006 0)
(0.0188546 -0.0301436 0)
(0.0135696 -0.0407184 0)
(0.00280602 -0.0540055 0)
(-0.009704 0.00907305 0)
(-0.018345 -0.000113421 0)
(-0.0115031 -0.0073799 0)
(-0.00213472 -0.00984729 0)
(0.00906691 -0.0139568 0)
(0.0227769 -0.015316 0)
(0.0359264 -0.0172578 0)
(0.0498772 -0.0175205 0)
(0.063224 -0.0117395 0)
(0.0684777 -0.00662744 0)
(0.075372 0.0086442 0)
(0.0628992 0.00877063 0)
(0.0688761 0.0218618 0)
(0.0481177 0.0314512 0)
(0.0442395 0.0174577 0)
(0.0257904 0.0361756 0)
(0.0349366 0.0259907 0)
(0.0273925 0.0226837 0)
(0.0463228 0.0272698 0)
(0.0483442 0.0145684 0)
(0.0448353 -0.000472753 0)
(0.0663242 0.0163017 0)
(0.0804321 0.0288957 0)
(0.0719449 0.011958 0)
(0.0695794 -0.0154697 0)
(0.0493444 -0.00152566 0)
(0.0396475 -0.00267335 0)
(0.0370272 -0.0342671 0)
(0.0106904 -0.0383367 0)
(-0.0013902 -0.0351292 0)
(-0.0100279 0.0100444 0)
(-0.0189731 -9.26992e-05 0)
(-0.0119067 -0.00807836 0)
(-0.00243421 -0.0107447 0)
(0.00879833 -0.0152183 0)
(0.022587 -0.0166927 0)
(0.0358067 -0.0189846 0)
(0.0503051 -0.0194624 0)
(0.06421 -0.0132528 0)
(0.0703226 -0.00724848 0)
(0.075676 0.00875475 0)
(0.0681945 0.00991312 0)
(0.0690605 0.0237117 0)
(0.0440789 0.0349316 0)
(0.0473726 0.0208151 0)
(0.0165436 0.0360582 0)
(0.0514473 0.0287275 0)
(0.0243379 0.0194049 0)
(0.0420626 0.0214148 0)
(0.0487738 0.0217485 0)
(0.0383656 0.0110758 0)
(0.0456735 0.0205267 0)
(0.0553483 0.0322864 0)
(0.063757 0.0184831 0)
(0.0696237 -0.00236893 0)
(0.0570371 -0.00887718 0)
(0.0658658 -0.0176232 0)
(0.028621 0.00824401 0)
(-0.0119538 0.00408604 0)
(0.000260214 -0.0383452 0)
(-0.010384 0.0110501 0)
(-0.0196631 -7.09866e-05 0)
(-0.0123471 -0.00879151 0)
(-0.00275747 -0.0116499 0)
(0.00850777 -0.0164828 0)
(0.0223702 -0.0180694 0)
(0.035654 -0.0207537 0)
(0.0507522 -0.0215021 0)
(0.065357 -0.0148491 0)
(0.0719252 -0.00791259 0)
(0.0774724 0.00863697 0)
(0.0719605 0.0111488 0)
(0.066573 0.0267819 0)
(0.0418615 0.0374503 0)
(0.0488131 0.0263405 0)
(0.0157822 0.0315953 0)
(0.0534137 0.0248776 0)
(0.0259499 0.0263763 0)
(0.0323712 0.0157799 0)
(0.050712 0.0119215 0)
(0.0519643 -0.00307074 0)
(0.0543786 0.00516987 0)
(0.0629514 0.0204622 0)
(0.0682493 0.00417967 0)
(0.0352888 -0.00692449 0)
(0.0033723 0.00992442 0)
(-0.0127967 0.0325111 0)
(-0.0268312 0.0335475 0)
(-0.0114876 -0.0181311 0)
(-0.00300024 -0.0568129 0)
(-0.0107735 0.0120933 0)
(-0.0204171 -4.7953e-05 0)
(-0.0128247 -0.00952081 0)
(-0.00310416 -0.0125637 0)
(0.00819532 -0.017749 0)
(0.0221243 -0.0194458 0)
(0.0354622 -0.0225699 0)
(0.0512249 -0.0236497 0)
(0.0665974 -0.0165098 0)
(0.0736003 -0.00876941 0)
(0.0805481 0.00836355 0)
(0.0735021 0.0133554 0)
(0.0616387 0.0296619 0)
(0.0502253 0.0402146 0)
(0.0451757 0.026807 0)
(0.0250387 0.0329075 0)
(0.0394567 0.0291496 0)
(0.0306033 0.0229855 0)
(0.0206099 0.0152416 0)
(0.0203407 0.0137921 0)
(0.00491041 0.0109142 0)
(0.00817077 0.0147286 0)
(0.0179914 0.0248571 0)
(0.0188066 0.0322763 0)
(-0.00477508 0.036374 0)
(-0.0209209 0.0242588 0)
(-0.0202909 0.0157505 0)
(-0.014028 0.00761411 0)
(0.00567857 -0.0323621 0)
(-0.000581317 -0.0559133 0)
(-0.0111973 0.0131775 0)
(-0.0212372 -2.34158e-05 0)
(-0.0133401 -0.0102678 0)
(-0.00347314 -0.0134874 0)
(0.00786167 -0.0190162 0)
(0.0218462 -0.0208216 0)
(0.0352251 -0.0244389 0)
(0.0517301 -0.025908 0)
(0.0678442 -0.0182553 0)
(0.0758777 -0.00996151 0)
(0.0836894 0.00873026 0)
(0.0706233 0.0157008 0)
(0.0685566 0.0308173 0)
(0.0621643 0.0439804 0)
(0.039406 0.0355785 0)
(0.0242643 0.029656 0)
(0.0395003 0.0254506 0)
(0.0127134 0.0338898 0)
(0.018375 0.0172629 0)
(0.0196255 0.0189218 0)
(0.0237231 0.00373582 0)
(0.0241716 0.0058603 0)
(0.0276316 0.0171609 0)
(0.0485798 0.023239 0)
(0.0448033 0.0338334 0)
(0.05715 0.0294419 0)
(0.05681 0.0219592 0)
(0.0411617 0.0135099 0)
(0.0436239 -0.0164938 0)
(0.0193436 -0.0316769 0)
(-0.0116571 0.0143062 0)
(-0.0221258 1.31043e-06 0)
(-0.0138939 -0.0110339 0)
(-0.00386363 -0.0144207 0)
(0.00750726 -0.0202855 0)
(0.0215328 -0.022197 0)
(0.0349369 -0.0263657 0)
(0.0522612 -0.0282723 0)
(0.0690994 -0.0201892 0)
(0.0791788 -0.0111304 0)
(0.08288 0.00974293 0)
(0.0743774 0.016017 0)
(0.0832731 0.0307866 0)
(0.0579732 0.0434255 0)
(0.0308553 0.0370605 0)
(0.00525654 0.0321509 0)
(-0.00621376 0.033091 0)
(0.0141055 0.0299785 0)
(0.0298303 0.0116215 0)
(0.0353867 0.00583892 0)
(0.0507505 0.00495768 0)
(0.0248819 0.00655537 0)
(0.0194697 0.00858134 0)
(0.0385713 0.0164254 0)
(0.0501144 0.0231649 0)
(0.0753939 0.0218136 0)
(0.0756547 0.0296056 0)
(0.0660574 0.0221057 0)
(0.0549172 0.00280394 0)
(0.0215387 0.0115218 0)
(-0.012154 0.0154831 0)
(-0.0230854 2.64529e-05 0)
(-0.0144865 -0.0118208 0)
(-0.00427484 -0.0153639 0)
(0.00713237 -0.0215543 0)
(0.0211808 -0.0235713 0)
(0.034593 -0.0283542 0)
(0.0527905 -0.0307538 0)
(0.0706287 -0.0223284 0)
(0.081877 -0.0119846 0)
(0.0808545 0.00998073 0)
(0.0850529 0.0147479 0)
(0.0831127 0.0390902 0)
(0.039283 0.0662212 0)
(0.015541 0.0496093 0)
(-0.00457015 0.0361575 0)
(0.0326877 0.0228589 0)
(0.0430421 0.0227402 0)
(0.0477705 0.0129627 0)
(0.0203847 0.0144089 0)
(0.0369308 0.0165528 0)
(0.00835637 0.0323665 0)
(-0.0314229 0.00718284 0)
(-0.0282008 -0.000454988 0)
(-0.00423968 0.00428552 0)
(0.0203857 0.0135865 0)
(0.0339818 0.0244527 0)
(0.0291435 0.0252994 0)
(0.0178082 0.0338103 0)
(0.00602416 0.0501365 0)
(-0.0126898 0.0167118 0)
(-0.024119 5.16262e-05 0)
(-0.0151184 -0.01263 0)
(-0.00470548 -0.0163187 0)
(0.00673755 -0.0228216 0)
(0.0207862 -0.024943 0)
(0.0341851 -0.0304084 0)
(0.0533309 -0.0333798 0)
(0.0723543 -0.0245344 0)
(0.0823622 -0.012946 0)
(0.0811908 0.00985433 0)
(0.0884698 0.015134 0)
(0.0746881 0.032319 0)
(0.0543829 0.0498162 0)
(0.0244483 0.0498783 0)
(0.00356925 0.0299932 0)
(0.0386841 0.0186118 0)
(0.000695737 0.0275629 0)
(-0.023869 0.0142336 0)
(0.0275006 0.00414312 0)
(0.023518 0.00423131 0)
(0.0616244 0.0398368 0)
(0.00813702 0.0262784 0)
(-0.0491641 -0.00408837 0)
(-0.0600671 -0.0201691 0)
(-0.0370923 -0.00648979 0)
(-0.0139474 0.0290647 0)
(-0.0219743 0.0338447 0)
(-0.0146004 0.0419923 0)
(-0.00569748 0.0505691 0)
(-0.0132657 0.0179977 0)
(-0.0252294 7.6632e-05 0)
(-0.0157903 -0.0134634 0)
(-0.00515426 -0.0172852 0)
(0.0063235 -0.0240871 0)
(0.0203448 -0.0263107 0)
(0.033699 -0.0325374 0)
(0.0539349 -0.0361616 0)
(0.0729929 -0.0266834 0)
(0.0792135 -0.0140026 0)
(0.0783168 0.00979508 0)
(0.0801322 0.017048 0)
(0.0696951 0.0607777 0)
(-0.0215687 0.0926072 0)
(0.00433097 0.0612781 0)
(-0.0202533 0.0223917 0)
(0.00749577 0.0262891 0)
(-0.0419142 0.0419502 0)
(0.0162174 0.00456876 0)
(-0.0272065 -0.00315329 0)
(0.0560667 0.000435314 0)
(0.0466929 0.0547318 0)
(0.0631397 0.0709256 0)
(0.015509 0.0451926 0)
(-0.0260869 0.000949948 0)
(-0.0447652 -0.0234051 0)
(-0.0403194 0.0177485 0)
(-0.0368976 0.0280069 0)
(-0.0259942 0.0197868 0)
(-0.00989163 0.0214094 0)
(-0.0138874 0.0193394 0)
(-0.0264202 8.94015e-05 0)
(-0.0165025 -0.0143228 0)
(-0.00561998 -0.0182625 0)
(0.00589087 -0.0253506 0)
(0.01985 -0.0276731 0)
(0.0331159 -0.0347523 0)
(0.0542648 -0.0390554 0)
(0.0685368 -0.0283384 0)
(0.0688853 -0.0145062 0)
(0.0719084 0.0132726 0)
(0.0788803 0.0110592 0)
(0.109228 0.0407509 0)
(0.118968 0.0576887 0)
(0.0362159 0.0548098 0)
(-0.0265942 0.0313052 0)
(0.0195404 0.0241779 0)
(0.0313662 0.0324361 0)
(-0.0202305 0.00535841 0)
(-0.0623655 -0.0230361 0)
(0.0555975 -0.0346582 0)
(0.0234082 0.0295959 0)
(0.0770008 0.0526856 0)
(0.0443793 0.0633249 0)
(0.0170988 0.0270855 0)
(-0.00644008 0.000394049 0)
(-0.0350663 0.013798 0)
(-0.0265008 0.0191761 0)
(-0.0178132 0.00360992 0)
(-0.00808703 -0.00238338 0)
(-0.0145241 0.0207617 0)
(-0.0276947 0.000290442 0)
(-0.0172547 -0.0152106 0)
(-0.00610145 -0.0192515 0)
(0.00544007 -0.0266093 0)
(0.0192837 -0.0290273 0)
(0.0323863 -0.0370166 0)
(0.0516783 -0.0414826 0)
(0.0507792 -0.0283896 0)
(0.0555644 -0.0156924 0)
(0.0841015 0.00745162 0)
(0.0459009 0.00934771 0)
(0.00533132 0.0603972 0)
(0.0895221 0.103953 0)
(0.0662529 0.0886874 0)
(0.0169124 0.0295163 0)
(-0.067536 0.0119052 0)
(0.088115 0.0475621 0)
(-0.0268191 0.0466727 0)
(0.00273729 -0.03676 0)
(-0.0171881 -0.0314666 0)
(0.0161805 0.0497956 0)
(0.00452647 0.0459415 0)
(0.0419518 0.0821556 0)
(0.0336008 0.0391296 0)
(0.00770267 0.0215609 0)
(-0.0130658 0.0272951 0)
(-0.00756341 0.0170495 0)
(-0.00147581 -0.000965341 0)
(-0.00212546 -0.00952759 0)
(-0.0154144 0.0221973 0)
(-0.0290572 -0.0004056 0)
(-0.018061 -0.0161254 0)
(-0.00659708 -0.020262 0)
(0.00496922 -0.0278492 0)
(0.0185777 -0.0303641 0)
(0.0310403 -0.0389838 0)
(0.0372781 -0.04115 0)
(0.0121219 -0.028221 0)
(0.0827215 -0.0250707 0)
(0.0612369 0.0189776 0)
(-0.185982 0.0260662 0)
(-0.250993 0.0254323 0)
(-0.00194019 0.0694373 0)
(0.00770135 0.0917303 0)
(-0.0460252 0.0565877 0)
(-0.102645 -0.007812 0)
(0.0422638 0.0362776 0)
(-0.0374043 0.0421166 0)
(-0.00505657 -0.043418 0)
(0.00685749 -0.0531396 0)
(0.0254176 0.0330692 0)
(-0.0316061 0.0298576 0)
(0.0254009 0.0671435 0)
(0.00561908 0.0491288 0)
(-0.0092858 0.0382767 0)
(-0.00634893 0.0311627 0)
(0.00353396 0.0116275 0)
(0.00955458 -0.000153623 0)
(0.00235643 -0.00306155 0)
(-0.0150835 0.0238785 0)
(-0.0305152 0.001243 0)
(-0.0188488 -0.0170836 0)
(-0.0071047 -0.021301 0)
(0.0044586 -0.0290559 0)
(0.0174508 -0.0316313 0)
(0.0262575 -0.0392561 0)
(-0.00484516 -0.0364428 0)
(-0.0236171 -0.0353265 0)
(0.15191 -0.0367507 0)
(-0.0949817 0.075617 0)
(-0.199606 0.0541391 0)
(-0.262382 0.0280164 0)
(-0.155445 0.0381438 0)
(-0.0550154 0.0945719 0)
(-0.062214 0.0586139 0)
(-0.104743 -0.0139337 0)
(-0.0532113 0.0207963 0)
(-0.000320843 0.0548339 0)
(0.0667798 -0.0461013 0)
(0.0150812 -0.0393547 0)
(0.0122992 0.0615842 0)
(-0.0761152 0.0425576 0)
(-0.0348546 0.0599369 0)
(-0.0334029 0.0574518 0)
(-0.0353756 0.0342693 0)
(-0.0159387 0.0165663 0)
(0.000259514 -0.00120624 0)
(0.00727442 0.00287707 0)
(0.000618867 0.00708433 0)
(-0.0211646 0.0251676 0)
(-0.0320138 -0.00161281 0)
(-0.0198463 -0.0180356 0)
(-0.00762499 -0.0223659 0)
(0.00378087 -0.0301909 0)
(0.0147709 -0.0324996 0)
(0.00944416 -0.0360922 0)
(-0.0429622 -0.0378937 0)
(0.157281 -0.0401453 0)
(-1.48829 0.0332726 0)
(-0.38109 0.061544 0)
(-0.258666 0.0498458 0)
(-0.222659 0.0182051 0)
(-0.204772 0.00698038 0)
(-0.0975581 0.0731925 0)
(-0.0685453 0.0717912 0)
(-0.124021 -0.0105602 0)
(-0.111852 0.000533433 0)
(-0.018521 0.0148991 0)
(0.0539978 -0.0534834 0)
(-0.00882582 -0.0178339 0)
(-0.00334868 0.0851037 0)
(-0.117818 0.053721 0)
(-0.0750009 0.0441558 0)
(-0.064539 0.0487464 0)
(-0.0562764 0.019015 0)
(-0.0248815 -0.00774973 0)
(-0.0158367 -0.0129764 0)
(-0.003735 0.00182276 0)
(-0.00216317 0.0113033 0)
(-0.00230628 0.0276911 0)
(-0.0338678 0.00260562 0)
(-0.020557 -0.0191364 0)
(-0.00818517 -0.0234437 0)
(0.00230545 -0.0311354 0)
(0.00669296 -0.0316756 0)
(-0.0338539 -0.031707 0)
(0.00025011 -0.0573927 0)
(0.207994 0.101241 0)
(0.661162 0.0814091 0)
(0.07856 -0.142478 0)
(-0.321548 0.00764289 0)
(-0.259782 0.0099558 0)
(-0.232023 0.00435648 0)
(-0.128743 0.0618387 0)
(-0.0679416 0.0588245 0)
(-0.152842 0.000156417 0)
(-0.133422 -0.0182388 0)
(-0.0662613 -0.0274452 0)
(-0.034696 -0.0643696 0)
(-0.0715562 -0.0074979 0)
(-0.029865 0.117853 0)
(-0.131484 0.0561381 0)
(-0.084838 0.0338286 0)
(-0.0877004 0.0366776 0)
(-0.0570359 -0.00439714 0)
(-0.0334935 -0.0244076 0)
(-0.0302991 -0.0231464 0)
(-0.014363 -0.00901746 0)
(-0.00536906 0.00273249 0)
(-0.0593616 0.0278841 0)
(-0.0339063 -0.00253286 0)
(-0.0219652 -0.0200057 0)
(-0.00896756 -0.024479 0)
(-0.00242581 -0.0315468 0)
(-0.0144762 -0.0277957 0)
(-0.077945 -0.0385272 0)
(0.307814 -0.0676752 0)
(0.199653 -0.129124 0)
(0.695081 0.137651 0)
(0.24128 0.129291 0)
(-0.417714 0.106391 0)
(-0.337152 -0.00708859 0)
(-0.258304 -0.0269587 0)
(-0.166795 0.0329103 0)
(-0.0926805 0.0697346 0)
(-0.138222 0.00736891 0)
(-0.151903 -0.0231352 0)
(-0.0906534 -0.0359399 0)
(-0.0983712 -0.0614503 0)
(-0.120194 -0.00703415 0)
(-0.0407735 0.136698 0)
(-0.13163 0.0687729 0)
(-0.0875753 0.032434 0)
(-0.0777217 0.0221287 0)
(-0.050398 -0.0257498 0)
(-0.0379334 -0.0330869 0)
(-0.0314901 -0.0332876 0)
(-0.0200113 -0.0236556 0)
(-0.0074267 -0.0136101 0)
(0.0511856 0.0324028 0)
(-0.037251 0.00194562 0)
(-0.0228451 -0.0214373 0)
(-0.0110945 -0.0252526 0)
(-0.0176434 -0.0302521 0)
(-0.0514668 -0.0261169 0)
(0.076381 -0.0761242 0)
(-0.0201542 -0.0847732 0)
(0.28601 -0.0655025 0)
(0.450838 0.14879 0)
(0.242052 0.168214 0)
(-0.923083 0.178246 0)
(-0.540635 -0.00489128 0)
(-0.262524 -0.0494578 0)
(-0.187877 0.0173624 0)
(-0.120469 0.0548617 0)
(-0.125572 0.0180613 0)
(-0.140526 -0.0252699 0)
(-0.120648 -0.0444908 0)
(-0.142976 -0.0603019 0)
(-0.160588 -0.0144572 0)
(-0.0619546 0.137778 0)
(-0.147733 0.0641471 0)
(-0.0797591 0.00763326 0)
(-0.0513932 0.0132546 0)
(-0.0407912 -0.0405169 0)
(-0.0327615 -0.0388499 0)
(-0.0230043 -0.0440437 0)
(-0.0170131 -0.0363707 0)
(-0.00511675 -0.0313381 0)
(-0.10258 0.0302081 0)
(-0.0232357 -8.06048e-05 0)
(-0.0268475 -0.0215133 0)
(-0.0194555 -0.0249992 0)
(-0.0567197 -0.0258169 0)
(-0.0872945 -0.034402 0)
(0.186853 -0.0144185 0)
(0.526792 -0.0981888 0)
(0.155888 -0.110927 0)
(0.132817 0.147602 0)
(0.323849 0.264928 0)
(-0.480204 0.244988 0)
(-0.310196 -0.131978 0)
(-0.437814 -0.125851 0)
(-0.203811 -0.00289936 0)
(-0.168481 0.0362637 0)
(-0.129356 0.0146974 0)
(-0.127416 -0.0174253 0)
(-0.145005 -0.0364194 0)
(-0.205385 -0.059431 0)
(-0.194408 -0.0261829 0)
(-0.0859447 0.134735 0)
(-0.142099 0.0682613 0)
(-0.0975087 -0.0323152 0)
(-0.0071157 0.000828859 0)
(-0.0353551 -0.04081 0)
(-0.0113621 -0.0479017 0)
(-0.0123601 -0.0500296 0)
(-0.00716245 -0.0446898 0)
(-0.0012684 -0.0443856 0)
(0.0297101 0.0362571 0)
(-0.0355275 -0.00114334 0)
(-0.0372543 -0.0218875 0)
(-0.0484388 -0.0216123 0)
(-0.127508 -0.0282802 0)
(0.375736 -0.0791783 0)
(0.608109 -0.137471 0)
(0.469079 -0.0864159 0)
(0.243093 -0.056488 0)
(-0.0738219 0.121917 0)
(0.409383 0.319608 0)
(-0.295016 0.297893 0)
(-0.400983 -0.0163211 0)
(-1.23641 0.00557016 0)
(-0.207633 -0.044052 0)
(-0.17366 0.0235034 0)
(-0.156113 0.00366602 0)
(-0.169228 -0.0129495 0)
(-0.170367 -0.0122105 0)
(-0.21235 -0.0479407 0)
(-0.216555 -0.0480262 0)
(-0.106168 0.111081 0)
(-0.131327 0.0557397 0)
(-0.117744 -0.106373 0)
(0.0195863 -0.027137 0)
(-0.017028 -0.0338664 0)
(0.0028264 -0.0609214 0)
(-0.00515211 -0.0514299 0)
(0.00432274 -0.0478694 0)
(0.00380672 -0.0486265 0)
(-0.0135996 0.00138718 0)
(0.00929702 -0.0239629 0)
(0.0333848 -0.00641555 0)
(0.0224159 0.00590104 0)
(0.0191459 0.000330132 0)
(0.0252283 -0.0032711 0)
(0.039907 -0.00137333 0)
(0.0439723 -0.00307853 0)
(0.0593634 -0.00135246 0)
(0.0540679 0.00436897 0)
(0.0332861 0.00157851 0)
(0.0340537 -0.00244437 0)
(0.028631 -0.000724639 0)
(0.026516 0.000763901 0)
(0.0072578 0.00169489 0)
(0.00483009 0.00154522 0)
(-0.0123727 0.00188312 0)
(-0.0287351 0.00120085 0)
(-0.0292457 0.00123597 0)
(-0.046183 0.000657484 0)
(-0.0446396 0.000513583 0)
(-0.0471025 2.42294e-05 0)
(-0.0413913 -0.000175988 0)
(-0.03475 -0.000294051 0)
(-0.0264035 -0.000315844 0)
(-0.016964 -0.000361442 0)
(-0.0083372 -0.000277121 0)
(-0.000627965 -0.000261099 0)
(0.00567153 -0.000129097 0)
(0.00385856 9.01539e-05 0)
(0.000357402 0.00488574 0)
(0.0126459 -0.0350919 0)
(0.0196723 -0.0107514 0)
(0.027528 0.0108712 0)
(0.0494502 -0.00299174 0)
(0.0577098 -0.0150543 0)
(0.0731758 -0.011526 0)
(0.0866132 -0.00784799 0)
(0.0833057 -0.00246692 0)
(0.0734435 0.00859707 0)
(0.0601389 0.00777515 0)
(0.0384075 0.00385269 0)
(0.0158352 0.00390337 0)
(0.00174462 0.00746216 0)
(-0.0267154 0.00499812 0)
(-0.0178851 0.00393356 0)
(-0.0412703 0.00709583 0)
(-0.0580997 0.0018419 0)
(-0.047056 0.00316442 0)
(-0.069398 0.00146148 0)
(-0.0593662 0.000334456 0)
(-0.0597088 -0.000755839 0)
(-0.0491907 -0.00144019 0)
(-0.0385418 -0.00164525 0)
(-0.0263421 -0.00159503 0)
(-0.0135045 -0.0015605 0)
(-0.00254619 -0.00114183 0)
(0.00654318 -0.000923603 0)
(0.012754 -0.000241211 0)
(0.00703613 0.00060047 0)
(0.00526728 -0.0129473 0)
(0.0112761 -0.0401991 0)
(0.0155687 -0.0281102 0)
(0.0394816 -0.0157491 0)
(0.07456 -0.0213186 0)
(0.0929649 -0.021858 0)
(0.102325 -0.0211902 0)
(0.110709 -0.00982645 0)
(0.0975694 0.00714497 0)
(0.0784617 0.0172238 0)
(0.0543795 0.015409 0)
(0.0243552 0.0154114 0)
(0.00271545 0.0128688 0)
(-0.0165934 0.0148561 0)
(-0.0389516 0.00715696 0)
(-0.0306601 0.00552909 0)
(-0.0454873 0.0121225 0)
(-0.0664796 0.00145649 0)
(-0.0470629 0.00454859 0)
(-0.0720955 0.00215377 0)
(-0.0597587 -0.000268234 0)
(-0.059516 -0.00171827 0)
(-0.0481742 -0.00289701 0)
(-0.0368977 -0.00312177 0)
(-0.024248 -0.00294967 0)
(-0.0111001 -0.00277868 0)
(-6.03577e-05 -0.00199463 0)
(0.00888873 -0.00153968 0)
(0.0147304 -0.000242774 0)
(0.00787704 0.00137743 0)
(0.0106962 -0.0262686 0)
(0.0334621 -0.0434854 0)
(0.0377609 -0.0436459 0)
(0.0579998 -0.0441657 0)
(0.0748637 -0.0453176 0)
(0.0973824 -0.0403941 0)
(0.104858 -0.029088 0)
(0.106412 -0.005035 0)
(0.0939564 0.0177331 0)
(0.0701337 0.0294594 0)
(0.0435722 0.0288462 0)
(0.00733637 0.0271446 0)
(-0.00530462 0.0198605 0)
(-0.0280876 0.0219009 0)
(-0.0442018 0.00846057 0)
(-0.0446114 0.00606428 0)
(-0.0371895 0.0164903 0)
(-0.0743193 0.00122112 0)
(-0.0436675 0.00528646 0)
(-0.0731613 0.00312071 0)
(-0.0597799 -0.000965104 0)
(-0.0594506 -0.00271993 0)
(-0.0478999 -0.00439376 0)
(-0.0364453 -0.00462942 0)
(-0.0237192 -0.00432565 0)
(-0.0105108 -0.00401248 0)
(0.000539916 -0.0028571 0)
(0.00944921 -0.00216424 0)
(0.0152559 -0.00023672 0)
(0.00811901 0.00216711 0)
(0.00818656 -0.0639932 0)
(0.0231275 -0.0673947 0)
(0.0364145 -0.0640248 0)
(0.0542426 -0.0620802 0)
(0.0613737 -0.0616378 0)
(0.0749638 -0.0501196 0)
(0.0744682 -0.0296549 0)
(0.0735059 -0.0025852 0)
(0.0642354 0.0279502 0)
(0.0481697 0.0405432 0)
(0.0125911 0.0397976 0)
(-0.0149108 0.0353887 0)
(-0.0120268 0.0246748 0)
(-0.0325363 0.0286826 0)
(-0.0433074 0.0102771 0)
(-0.0610706 0.00421393 0)
(-0.0197698 0.019826 0)
(-0.080875 0.0025326 0)
(-0.0409351 0.0051697 0)
(-0.0741571 0.00449186 0)
(-0.0602671 -0.00176077 0)
(-0.0597393 -0.0037368 0)
(-0.0480121 -0.00591262 0)
(-0.0363896 -0.00614991 0)
(-0.0236112 -0.00570344 0)
(-0.0103503 -0.00524826 0)
(0.000721073 -0.00372043 0)
(0.00964945 -0.00279055 0)
(0.0155112 -0.000223836 0)
(0.00824859 0.00297084 0)
(0.00320974 -0.0771572 0)
(0.00594937 -0.0789193 0)
(0.0094104 -0.0766251 0)
(0.0147075 -0.0695482 0)
(0.0153708 -0.0622725 0)
(0.0262461 -0.0468858 0)
(0.0229405 -0.0211658 0)
(0.0204873 0.00747422 0)
(0.014911 0.0342122 0)
(0.00958127 0.0532385 0)
(-0.0179612 0.0553542 0)
(-0.023537 0.0379796 0)
(-0.0165232 0.0264664 0)
(-0.0330172 0.0344629 0)
(-0.0299743 0.0149616 0)
(-0.0737231 0.000727197 0)
(-0.00325488 0.0214518 0)
(-0.083617 0.00607964 0)
(-0.0410319 0.00462198 0)
(-0.0746462 0.00606092 0)
(-0.0611336 -0.00259678 0)
(-0.0601073 -0.00479338 0)
(-0.0482004 -0.00745885 0)
(-0.0363789 -0.0076879 0)
(-0.0235498 -0.0070834 0)
(-0.0102359 -0.00648833 0)
(0.00085403 -0.00458649 0)
(0.0098166 -0.00342197 0)
(0.0157585 -0.000210783 0)
(0.00837639 0.00378561 0)
(-0.00111653 -0.068525 0)
(-0.00755266 -0.0706213 0)
(-0.0110131 -0.0672822 0)
(-0.0121007 -0.0661779 0)
(-0.00676941 -0.0685305 0)
(0.00252337 -0.0508737 0)
(-0.00752403 -0.0231715 0)
(-0.0125147 0.00483851 0)
(-0.0190915 0.0392783 0)
(-0.0308438 0.0575199 0)
(-0.0378119 0.0583926 0)
(-0.0296326 0.0346298 0)
(-0.0202341 0.0292479 0)
(-0.0403104 0.0359685 0)
(-0.00667807 0.0197646 0)
(-0.0780135 -0.000494704 0)
(0.00281601 0.0214779 0)
(-0.0838658 0.0109678 0)
(-0.0446376 0.00394642 0)
(-0.0744294 0.00757651 0)
(-0.0623906 -0.00340864 0)
(-0.0605218 -0.00591637 0)
(-0.0484248 -0.0090357 0)
(-0.0363627 -0.00924599 0)
(-0.0234779 -0.00846406 0)
(-0.0101056 -0.00773186 0)
(0.00100325 -0.00545524 0)
(0.0100084 -0.00405932 0)
(0.0160484 -0.000196959 0)
(0.00852572 0.0046141 0)
(-0.00141617 -0.059034 0)
(-0.00562982 -0.0630544 0)
(-0.0078134 -0.0668205 0)
(-0.0134568 -0.073252 0)
(-0.0193469 -0.0765899 0)
(-0.0198073 -0.049591 0)
(-0.0350429 -0.0129491 0)
(-0.0475081 0.0117049 0)
(-0.0513936 0.0473461 0)
(-0.0555873 0.0620192 0)
(-0.0464826 0.055102 0)
(-0.0183553 0.0308888 0)
(-0.0225091 0.0289915 0)
(-0.0400562 0.0331629 0)
(0.00228331 0.024181 0)
(-0.0724838 0.000867353 0)
(-0.0107959 0.0214305 0)
(-0.0786867 0.0162059 0)
(-0.0522309 0.0033038 0)
(-0.0733859 0.00869377 0)
(-0.0639517 -0.00408969 0)
(-0.0610029 -0.00713636 0)
(-0.0486802 -0.0106483 0)
(-0.036336 -0.010828 0)
(-0.0233887 -0.00984499 0)
(-0.00995173 -0.0089789 0)
(0.00117763 -0.00632716 0)
(0.0102339 -0.0047037 0)
(0.0163902 -0.000182156 0)
(0.00870158 0.00545896 0)
(0.000392405 -0.0592445 0)
(0.00179832 -0.0631952 0)
(-0.0108786 -0.0575746 0)
(-0.0336829 -0.0561915 0)
(-0.0463299 -0.061865 0)
(-0.0514635 -0.0363218 0)
(-0.0591752 -0.00286605 0)
(-0.0727461 0.0206455 0)
(-0.083023 0.0457704 0)
(-0.0686031 0.0554984 0)
(-0.0381275 0.0386669 0)
(-0.00425056 0.0269315 0)