/*--------------------------------*- C++ -*----------------------------------*\
| =========                 |                                                 |
| \\      /  F ield         | OpenFOAM: The Open Source CFD Toolbox           |
|  \\    /   O peration     | Version:  2.4.0                                 |
|   \\  /    A nd           | Web:      www.OpenFOAM.org                      |
|    \\/     M anipulation  |                                                 |
\*---------------------------------------------------------------------------*/
FoamFile
{
    version     2.0;
    format      ascii;
    class       volVectorField;
    location    "0.149";
    object      U;
}
// * * * * * * * * * * * * * * * * * * * * * * * * * * * * * * * * * * * * * //

dimensions      [0 1 -1 0 0 0 0];

internalField   nonuniform List<vector> 
60000
(
(-1.12812e-07 5.00718e-08 0)
(-4.12436e-07 4.77432e-08 0)
(-7.48869e-07 5.34911e-08 0)
(-1.08911e-06 4.97523e-08 0)
(-1.41481e-06 4.68846e-08 0)
(-1.72079e-06 4.29362e-08 0)
(-2.0046e-06 3.8745e-08 0)
(-2.2639e-06 3.42324e-08 0)
(-2.49672e-06 2.93752e-08 0)
(-2.70149e-06 2.44589e-08 0)
(-2.87773e-06 1.96927e-08 0)
(-3.02578e-06 1.52696e-08 0)
(-3.14658e-06 1.12741e-08 0)
(-3.24154e-06 7.80082e-09 0)
(-3.31248e-06 4.86854e-09 0)
(-3.36154e-06 2.55188e-09 0)
(-3.39103e-06 9.37117e-10 0)
(-3.40363e-06 2.14634e-11 0)
(-3.40235e-06 -2.07679e-10 0)
(-3.39033e-06 3.18482e-10 0)
(-3.37074e-06 1.54209e-09 0)
(-3.3467e-06 3.42789e-09 0)
(-3.32134e-06 5.97614e-09 0)
(-3.2977e-06 9.06402e-09 0)
(-3.2786e-06 1.27269e-08 0)
(-3.26688e-06 1.6907e-08 0)
(-3.2649e-06 2.18152e-08 0)
(-3.27502e-06 2.67036e-08 0)
(-3.2998e-06 3.14831e-08 0)
(-3.34091e-06 3.64444e-08 0)
(-3.39969e-06 4.1172e-08 0)
(-3.47779e-06 4.56657e-08 0)
(-3.57597e-06 5.02558e-08 0)
(-3.69449e-06 5.46447e-08 0)
(-3.83305e-06 5.88115e-08 0)
(-3.99139e-06 6.27216e-08 0)
(-4.1695e-06 6.61038e-08 0)
(-4.36529e-06 6.94267e-08 0)
(-4.57775e-06 7.19602e-08 0)
(-4.80665e-06 7.39182e-08 0)
(-5.04994e-06 7.58868e-08 0)
(-5.30584e-06 7.74829e-08 0)
(-5.57349e-06 7.86897e-08 0)
(-5.85175e-06 7.96384e-08 0)
(-6.13942e-06 8.03773e-08 0)
(-6.4363e-06 8.11936e-08 0)
(-6.74166e-06 8.16939e-08 0)
(-7.05468e-06 8.21405e-08 0)
(-7.37561e-06 8.26932e-08 0)
(-7.70493e-06 8.32833e-08 0)
(-8.04291e-06 8.39581e-08 0)
(-8.39027e-06 8.49346e-08 0)
(-8.74781e-06 8.60294e-08 0)
(-9.11594e-06 8.71445e-08 0)
(-9.49546e-06 8.85372e-08 0)
(-9.8865e-06 8.97438e-08 0)
(-1.02894e-05 9.08278e-08 0)
(-1.07048e-05 9.20524e-08 0)
(-1.11322e-05 9.30986e-08 0)
(-1.15715e-05 9.38661e-08 0)
(-1.20221e-05 9.43937e-08 0)
(-1.24831e-05 9.45243e-08 0)
(-1.29531e-05 9.42532e-08 0)
(-1.34303e-05 9.34442e-08 0)
(-1.39127e-05 9.20874e-08 0)
(-1.43978e-05 9.00885e-08 0)
(-1.48829e-05 8.75183e-08 0)
(-1.53653e-05 8.4275e-08 0)
(-1.58418e-05 8.03063e-08 0)
(-1.63089e-05 7.56632e-08 0)
(-1.67636e-05 7.0406e-08 0)
(-1.72028e-05 6.46192e-08 0)
(-1.76239e-05 5.82461e-08 0)
(-1.80235e-05 5.12191e-08 0)
(-1.83987e-05 4.36584e-08 0)
(-1.87472e-05 3.58239e-08 0)
(-1.90669e-05 2.75492e-08 0)
(-1.93553e-05 1.90174e-08 0)
(-1.96109e-05 1.02723e-08 0)
(-1.98323e-05 1.80277e-09 0)
(-2.00184e-05 -7.08193e-09 0)
(-2.01682e-05 -1.59538e-08 0)
(-2.02813e-05 -2.47904e-08 0)
(-2.03577e-05 -3.35812e-08 0)
(-2.03971e-05 -4.26575e-08 0)
(-2.04002e-05 -5.20852e-08 0)
(-2.03674e-05 -5.97834e-08 0)
(-2.02994e-05 -6.69412e-08 0)
(-2.01985e-05 -7.37331e-08 0)
(-2.00658e-05 -8.02358e-08 0)
(-1.99027e-05 -8.63528e-08 0)
(-1.97111e-05 -9.20338e-08 0)
(-1.94902e-05 -9.79583e-08 0)
(-1.92442e-05 -1.02589e-07 0)
(-1.89647e-05 -1.08986e-07 0)
(-1.86687e-05 -1.11921e-07 0)
(-1.83309e-05 -1.17627e-07 0)
(-1.79917e-05 -1.169e-07 0)
(-1.75863e-05 -1.26338e-07 0)
(-1.71266e-05 -1.13778e-07 0)
(-1.56073e-07 2.21209e-07 0)
(-6.7166e-07 2.83581e-07 0)
(-1.27225e-06 3.04225e-07 0)
(-1.87022e-06 2.96171e-07 0)
(-2.45425e-06 2.82011e-07 0)
(-3.00889e-06 2.63906e-07 0)
(-3.53172e-06 2.43788e-07 0)
(-4.01816e-06 2.21781e-07 0)
(-4.46537e-06 1.98056e-07 0)
(-4.87077e-06 1.73391e-07 0)
(-5.23266e-06 1.48483e-07 0)
(-5.55e-06 1.23908e-07 0)
(-5.82234e-06 1.00049e-07 0)
(-6.0499e-06 7.73522e-08 0)
(-6.23372e-06 5.6135e-08 0)
(-6.37534e-06 3.66686e-08 0)
(-6.47681e-06 1.9367e-08 0)
(-6.5408e-06 4.23729e-09 0)
(-6.57033e-06 -8.7917e-09 0)
(-6.56873e-06 -1.9233e-08 0)
(-6.53948e-06 -2.6989e-08 0)
(-6.48613e-06 -3.21353e-08 0)
(-6.41245e-06 -3.46093e-08 0)
(-6.32226e-06 -3.46329e-08 0)
(-6.21929e-06 -3.21656e-08 0)
(-6.10743e-06 -2.72114e-08 0)
(-5.99069e-06 -1.97752e-08 0)
(-5.87285e-06 -1.04862e-08 0)
(-5.75764e-06 4.17948e-10 0)
(-5.64859e-06 1.30199e-08 0)
(-5.54925e-06 2.65955e-08 0)
(-5.46312e-06 4.08144e-08 0)
(-5.39287e-06 5.61087e-08 0)
(-5.34054e-06 7.20511e-08 0)
(-5.30698e-06 8.85075e-08 0)
(-5.29367e-06 1.04307e-07 0)
(-5.30199e-06 1.19651e-07 0)
(-5.33067e-06 1.34929e-07 0)
(-5.3802e-06 1.49098e-07 0)
(-5.45124e-06 1.61971e-07 0)
(-5.54264e-06 1.74625e-07 0)
(-5.65356e-06 1.86079e-07 0)
(-5.78347e-06 1.96685e-07 0)
(-5.93179e-06 2.06224e-07 0)
(-6.09713e-06 2.14971e-07 0)
(-6.2791e-06 2.23861e-07 0)
(-6.4777e-06 2.3164e-07 0)
(-6.69266e-06 2.39425e-07 0)
(-6.925e-06 2.47812e-07 0)
(-7.17608e-06 2.56428e-07 0)
(-7.4465e-06 2.65397e-07 0)
(-7.73667e-06 2.75015e-07 0)
(-8.04719e-06 2.84968e-07 0)
(-8.37862e-06 2.95508e-07 0)
(-8.73292e-06 3.06481e-07 0)
(-9.11091e-06 3.17791e-07 0)
(-9.51334e-06 3.29332e-07 0)
(-9.94184e-06 3.41346e-07 0)
(-1.0397e-05 3.53288e-07 0)
(-1.08792e-05 3.64842e-07 0)
(-1.13888e-05 3.76128e-07 0)
(-1.19258e-05 3.86423e-07 0)
(-1.24893e-05 3.95726e-07 0)
(-1.30781e-05 4.03483e-07 0)
(-1.36904e-05 4.09441e-07 0)
(-1.43237e-05 4.13326e-07 0)
(-1.49755e-05 4.15111e-07 0)
(-1.56428e-05 4.14424e-07 0)
(-1.63218e-05 4.10969e-07 0)
(-1.70088e-05 4.04796e-07 0)
(-1.76999e-05 3.96058e-07 0)
(-1.83915e-05 3.84948e-07 0)
(-1.90801e-05 3.71279e-07 0)
(-1.9762e-05 3.54783e-07 0)
(-2.04337e-05 3.36176e-07 0)
(-2.1092e-05 3.15704e-07 0)
(-2.1734e-05 2.93066e-07 0)
(-2.23564e-05 2.68541e-07 0)
(-2.29558e-05 2.42415e-07 0)
(-2.35297e-05 2.15651e-07 0)
(-2.40755e-05 1.87158e-07 0)
(-2.4591e-05 1.58259e-07 0)
(-2.50756e-05 1.28859e-07 0)
(-2.55289e-05 9.93193e-08 0)
(-2.59514e-05 6.93317e-08 0)
(-2.63427e-05 3.91434e-08 0)
(-2.67032e-05 1.10481e-08 0)
(-2.70348e-05 -1.54792e-08 0)
(-2.73385e-05 -4.09769e-08 0)
(-2.7615e-05 -6.54887e-08 0)
(-2.7865e-05 -8.88621e-08 0)
(-2.80901e-05 -1.11053e-07 0)
(-2.82865e-05 -1.32898e-07 0)
(-2.84617e-05 -1.54669e-07 0)
(-2.85946e-05 -1.8042e-07 0)
(-2.87229e-05 -1.99105e-07 0)
(-2.87712e-05 -2.2788e-07 0)
(-2.88291e-05 -2.5169e-07 0)
(-2.87012e-05 -3.29899e-07 0)
(-2.83478e-05 -4.34302e-07 0)
(-1.72679e-07 4.43434e-07 0)
(-7.81161e-07 6.05955e-07 0)
(-1.49572e-06 6.38463e-07 0)
(-2.20702e-06 6.30551e-07 0)
(-2.90657e-06 6.04451e-07 0)
(-3.57622e-06 5.70947e-07 0)
(-4.21201e-06 5.32844e-07 0)
(-4.80856e-06 4.91028e-07 0)
(-5.36298e-06 4.46096e-07 0)
(-5.87242e-06 3.99057e-07 0)
(-6.33484e-06 3.50921e-07 0)
(-6.74882e-06 3.02536e-07 0)
(-7.11365e-06 2.5459e-07 0)
(-7.42916e-06 2.07874e-07 0)
(-7.69582e-06 1.63142e-07 0)
(-7.91474e-06 1.20837e-07 0)
(-8.08752e-06 8.16472e-08 0)
(-8.21634e-06 4.58551e-08 0)
(-8.30366e-06 1.35256e-08 0)
(-8.35227e-06 -1.46716e-08 0)
(-8.36542e-06 -3.85615e-08 0)
(-8.3465e-06 -5.81396e-08 0)
(-8.29895e-06 -7.33068e-08 0)
(-8.22632e-06 -8.42284e-08 0)
(-8.13225e-06 -9.0905e-08 0)
(-8.02056e-06 -9.3177e-08 0)
(-7.89517e-06 -9.15234e-08 0)
(-7.75998e-06 -8.56577e-08 0)
(-7.61895e-06 -7.58477e-08 0)
(-7.47589e-06 -6.25128e-08 0)
(-7.33467e-06 -4.61312e-08 0)
(-7.19889e-06 -2.73502e-08 0)
(-7.07134e-06 -6.18398e-09 0)
(-6.9545e-06 1.66815e-08 0)
(-6.85003e-06 4.09533e-08 0)
(-6.75961e-06 6.46478e-08 0)
(-6.6847e-06 8.87008e-08 0)
(-6.62493e-06 1.12917e-07 0)
(-6.58137e-06 1.36066e-07 0)
(-6.55486e-06 1.58203e-07 0)
(-6.54477e-06 1.80052e-07 0)
(-6.55078e-06 2.00256e-07 0)
(-6.57286e-06 2.19868e-07 0)
(-6.61079e-06 2.38027e-07 0)
(-6.66359e-06 2.5484e-07 0)
(-6.73133e-06 2.72175e-07 0)
(-6.8148e-06 2.88533e-07 0)
(-6.9147e-06 3.05209e-07 0)
(-7.03206e-06 3.23384e-07 0)
(-7.16799e-06 3.42214e-07 0)
(-7.32332e-06 3.61765e-07 0)
(-7.49888e-06 3.82362e-07 0)
(-7.69596e-06 4.03595e-07 0)
(-7.91586e-06 4.26367e-07 0)
(-8.16064e-06 4.50058e-07 0)
(-8.43182e-06 4.74964e-07 0)
(-8.73074e-06 5.00931e-07 0)
(-9.05931e-06 5.27902e-07 0)
(-9.41874e-06 5.55279e-07 0)
(-9.80974e-06 5.82534e-07 0)
(-1.02333e-05 6.09976e-07 0)
(-1.069e-05 6.36228e-07 0)
(-1.11791e-05 6.61281e-07 0)
(-1.17003e-05 6.84259e-07 0)
(-1.22522e-05 7.04476e-07 0)
(-1.28331e-05 7.21621e-07 0)
(-1.34408e-05 7.35386e-07 0)
(-1.40727e-05 7.45236e-07 0)
(-1.47258e-05 7.50534e-07 0)
(-1.53968e-05 7.51405e-07 0)
(-1.60823e-05 7.47993e-07 0)
(-1.67793e-05 7.40545e-07 0)
(-1.74845e-05 7.28984e-07 0)
(-1.81952e-05 7.12963e-07 0)
(-1.89086e-05 6.9353e-07 0)
(-1.96216e-05 6.70516e-07 0)
(-2.03311e-05 6.43961e-07 0)
(-2.10347e-05 6.13941e-07 0)
(-2.17297e-05 5.8088e-07 0)
(-2.24143e-05 5.45553e-07 0)
(-2.30861e-05 5.08181e-07 0)
(-2.37437e-05 4.69426e-07 0)
(-2.43869e-05 4.30168e-07 0)
(-2.50152e-05 3.90461e-07 0)
(-2.56297e-05 3.5113e-07 0)
(-2.62318e-05 3.1219e-07 0)
(-2.68218e-05 2.74799e-07 0)
(-2.74014e-05 2.39036e-07 0)
(-2.79719e-05 2.04688e-07 0)
(-2.85335e-05 1.71688e-07 0)
(-2.90864e-05 1.39895e-07 0)
(-2.96317e-05 1.09048e-07 0)
(-3.01656e-05 7.80789e-08 0)
(-3.06968e-05 4.6548e-08 0)
(-3.11964e-05 8.69589e-09 0)
(-3.17144e-05 -2.36337e-08 0)
(-3.21418e-05 -7.80923e-08 0)
(-3.26024e-05 -1.48644e-07 0)
(-3.27953e-05 -3.50455e-07 0)
(-3.2707e-05 -7.13558e-07 0)
(-1.97482e-07 6.91719e-07 0)
(-8.51213e-07 9.5731e-07 0)
(-1.60339e-06 1.01113e-06 0)
(-2.3693e-06 1.00239e-06 0)
(-3.12151e-06 9.65269e-07 0)
(-3.84416e-06 9.15896e-07 0)
(-4.53275e-06 8.59131e-07 0)
(-5.18148e-06 7.96677e-07 0)
(-5.78725e-06 7.29583e-07 0)
(-6.34699e-06 6.5912e-07 0)
(-6.85853e-06 5.8663e-07 0)
(-7.32044e-06 5.13364e-07 0)
(-7.7321e-06 4.40319e-07 0)
(-8.09336e-06 3.68504e-07 0)
(-8.40459e-06 2.99009e-07 0)
(-8.66681e-06 2.32532e-07 0)
(-8.88158e-06 1.69919e-07 0)
(-9.05085e-06 1.11953e-07 0)
(-9.17691e-06 5.91144e-08 0)
(-9.26241e-06 1.17336e-08 0)
(-9.3104e-06 -2.98207e-08 0)
(-9.32405e-06 -6.54245e-08 0)
(-9.30658e-06 -9.49772e-08 0)
(-9.26143e-06 -1.18515e-07 0)
(-9.19225e-06 -1.35988e-07 0)
(-9.10273e-06 -1.47179e-07 0)
(-8.99686e-06 -1.52434e-07 0)
(-8.87864e-06 -1.51549e-07 0)
(-8.75189e-06 -1.44769e-07 0)
(-8.62044e-06 -1.32558e-07 0)
(-8.48788e-06 -1.15385e-07 0)
(-8.3576e-06 -9.39479e-08 0)
(-8.2324e-06 -6.87662e-08 0)
(-8.11467e-06 -4.10159e-08 0)
(-8.00622e-06 -1.14012e-08 0)
(-7.90868e-06 1.87192e-08 0)
(-7.82335e-06 4.94647e-08 0)
(-7.75059e-06 8.0532e-08 0)
(-7.69087e-06 1.1049e-07 0)
(-7.6446e-06 1.39846e-07 0)
(-7.61151e-06 1.68423e-07 0)
(-7.59096e-06 1.9522e-07 0)
(-7.58345e-06 2.21797e-07 0)
(-7.58835e-06 2.4652e-07 0)
(-7.60516e-06 2.69943e-07 0)
(-7.63435e-06 2.94036e-07 0)
(-7.67633e-06 3.17763e-07 0)
(-7.73253e-06 3.42154e-07 0)
(-7.80314e-06 3.6843e-07 0)
(-7.88861e-06 3.95814e-07 0)
(-7.99084e-06 4.24572e-07 0)
(-8.11132e-06 4.551e-07 0)
(-8.25165e-06 4.87111e-07 0)
(-8.4135e-06 5.21481e-07 0)
(-8.5991e-06 5.57949e-07 0)
(-8.81029e-06 5.96225e-07 0)
(-9.04877e-06 6.3663e-07 0)
(-9.31653e-06 6.78857e-07 0)
(-9.61522e-06 7.22099e-07 0)
(-9.94561e-06 7.65854e-07 0)
(-1.0309e-05 8.09647e-07 0)
(-1.07061e-05 8.52969e-07 0)
(-1.11364e-05 8.94708e-07 0)
(-1.15996e-05 9.34073e-07 0)
(-1.2095e-05 9.69978e-07 0)
(-1.26213e-05 1.00199e-06 0)
(-1.31766e-05 1.02956e-06 0)
(-1.37586e-05 1.05191e-06 0)
(-1.43648e-05 1.06821e-06 0)
(-1.49925e-05 1.07863e-06 0)
(-1.56388e-05 1.08328e-06 0)
(-1.6301e-05 1.08242e-06 0)
(-1.69763e-05 1.07602e-06 0)
(-1.7662e-05 1.06413e-06 0)
(-1.83556e-05 1.04727e-06 0)
(-1.90548e-05 1.02542e-06 0)
(-1.97569e-05 9.9898e-07 0)
(-2.04603e-05 9.68044e-07 0)
(-2.11632e-05 9.33029e-07 0)
(-2.18642e-05 8.94754e-07 0)
(-2.25623e-05 8.54449e-07 0)
(-2.32567e-05 8.11913e-07 0)
(-2.39479e-05 7.69264e-07 0)
(-2.46358e-05 7.25967e-07 0)
(-2.53219e-05 6.83945e-07 0)
(-2.6008e-05 6.42799e-07 0)
(-2.66954e-05 6.04504e-07 0)
(-2.73864e-05 5.6801e-07 0)
(-2.80828e-05 5.33452e-07 0)
(-2.87852e-05 5.00401e-07 0)
(-2.94937e-05 4.68508e-07 0)
(-3.02103e-05 4.36981e-07 0)
(-3.09295e-05 4.04016e-07 0)
(-3.16614e-05 3.70929e-07 0)
(-3.23725e-05 3.2922e-07 0)
(-3.31179e-05 2.87912e-07 0)
(-3.37698e-05 2.12545e-07 0)
(-3.44754e-05 8.98124e-08 0)
(-3.48726e-05 -2.536e-07 0)
(-3.5014e-05 -9.02888e-07 0)
(-2.04536e-07 9.56368e-07 0)
(-8.84053e-07 1.32016e-06 0)
(-1.66177e-06 1.40091e-06 0)
(-2.45267e-06 1.39061e-06 0)
(-3.22969e-06 1.34286e-06 0)
(-3.97754e-06 1.27764e-06 0)
(-4.69116e-06 1.2021e-06 0)
(-5.36445e-06 1.11874e-06 0)
(-5.99415e-06 1.02911e-06 0)
(-6.57712e-06 9.34822e-07 0)
(-7.1112e-06 8.37573e-07 0)
(-7.5949e-06 7.39039e-07 0)
(-8.02757e-06 6.4058e-07 0)
(-8.40921e-06 5.43422e-07 0)
(-8.7402e-06 4.48914e-07 0)
(-9.02156e-06 3.58127e-07 0)
(-9.25501e-06 2.72079e-07 0)
(-9.4425e-06 1.91765e-07 0)
(-9.58635e-06 1.17889e-07 0)
(-9.68917e-06 5.08187e-08 0)
(-9.75382e-06 -8.95355e-09 0)
(-9.78352e-06 -6.11207e-08 0)
(-9.78156e-06 -1.05613e-07 0)
(-9.75135e-06 -1.42271e-07 0)
(-9.69663e-06 -1.70992e-07 0)
(-9.6212e-06 -1.91573e-07 0)
(-9.52905e-06 -2.04099e-07 0)
(-9.42426e-06 -2.08599e-07 0)
(-9.31062e-06 -2.05297e-07 0)
(-9.19198e-06 -1.94685e-07 0)
(-9.07177e-06 -1.77505e-07 0)
(-8.95329e-06 -1.54397e-07 0)
(-8.83931e-06 -1.26445e-07 0)
(-8.73212e-06 -9.4698e-08 0)
(-8.63361e-06 -6.04497e-08 0)
(-8.54538e-06 -2.4729e-08 0)
(-8.46862e-06 1.18117e-08 0)
(-8.4038e-06 4.88938e-08 0)
(-8.3512e-06 8.51637e-08 0)
(-8.31085e-06 1.20983e-07 0)
(-8.2824e-06 1.55317e-07 0)
(-8.26463e-06 1.87571e-07 0)
(-8.2585e-06 2.19971e-07 0)
(-8.26333e-06 2.49868e-07 0)
(-8.27808e-06 2.78889e-07 0)
(-8.30337e-06 3.08613e-07 0)
(-8.33907e-06 3.38283e-07 0)
(-8.3868e-06 3.69299e-07 0)
(-8.44681e-06 4.02124e-07 0)
(-8.51936e-06 4.36631e-07 0)
(-8.60661e-06 4.73536e-07 0)
(-8.71021e-06 5.12945e-07 0)
(-8.83209e-06 5.55014e-07 0)
(-8.97418e-06 6.00397e-07 0)
(-9.13887e-06 6.48821e-07 0)
(-9.32815e-06 7.00028e-07 0)
(-9.54392e-06 7.54513e-07 0)
(-9.78834e-06 8.11653e-07 0)
(-1.00631e-05 8.70463e-07 0)
(-1.03691e-05 9.30551e-07 0)
(-1.07075e-05 9.90579e-07 0)
(-1.10792e-05 1.05061e-06 0)
(-1.14838e-05 1.10892e-06 0)
(-1.19206e-05 1.16458e-06 0)
(-1.23895e-05 1.2163e-06 0)
(-1.28894e-05 1.26344e-06 0)
(-1.34184e-05 1.30518e-06 0)
(-1.39746e-05 1.34043e-06 0)
(-1.45556e-05 1.36853e-06 0)
(-1.51591e-05 1.38947e-06 0)
(-1.57827e-05 1.40331e-06 0)
(-1.64237e-05 1.41021e-06 0)
(-1.70793e-05 1.41018e-06 0)
(-1.77469e-05 1.40364e-06 0)
(-1.84243e-05 1.39084e-06 0)
(-1.91089e-05 1.37177e-06 0)
(-1.97989e-05 1.34739e-06 0)
(-2.0493e-05 1.31766e-06 0)
(-2.11898e-05 1.28345e-06 0)
(-2.18885e-05 1.24509e-06 0)
(-2.25887e-05 1.20496e-06 0)
(-2.32904e-05 1.16288e-06 0)
(-2.39947e-05 1.12039e-06 0)
(-2.47016e-05 1.07774e-06 0)
(-2.54129e-05 1.03717e-06 0)
(-2.61307e-05 9.99006e-07 0)
(-2.68566e-05 9.64246e-07 0)
(-2.75935e-05 9.32393e-07 0)
(-2.83434e-05 9.03353e-07 0)
(-2.9108e-05 8.76388e-07 0)
(-2.98883e-05 8.50807e-07 0)
(-3.06867e-05 8.25531e-07 0)
(-3.14974e-05 7.98242e-07 0)
(-3.23311e-05 7.68586e-07 0)
(-3.31503e-05 7.27624e-07 0)
(-3.40134e-05 6.80557e-07 0)
(-3.47807e-05 5.86079e-07 0)
(-3.56101e-05 4.0595e-07 0)
(-3.60948e-05 -8.74078e-08 0)
(-3.63072e-05 -1.05515e-06 0)
(-2.08888e-07 1.2284e-06 0)
(-9.05414e-07 1.69343e-06 0)
(-1.70013e-06 1.7991e-06 0)
(-2.50511e-06 1.78682e-06 0)
(-3.29539e-06 1.72854e-06 0)
(-4.05659e-06 1.64745e-06 0)
(-4.78323e-06 1.55298e-06 0)
(-5.46898e-06 1.44846e-06 0)
(-6.11039e-06 1.33593e-06 0)
(-6.70421e-06 1.21746e-06 0)
(-7.24831e-06 1.09512e-06 0)
(-7.74124e-06 9.7096e-07 0)
(-8.18235e-06 8.46745e-07 0)
(-8.57169e-06 7.23978e-07 0)
(-8.90976e-06 6.04208e-07 0)
(-9.19763e-06 4.88893e-07 0)
(-9.43712e-06 3.79292e-07 0)
(-9.63027e-06 2.76467e-07 0)
(-9.77939e-06 1.81315e-07 0)
(-9.8872e-06 9.44971e-08 0)
(-9.95649e-06 1.65175e-08 0)
(-9.99052e-06 -5.2493e-08 0)
(-9.99278e-06 -1.12027e-07 0)
(-9.96664e-06 -1.61892e-07 0)
(-9.91598e-06 -2.01831e-07 0)
(-9.84476e-06 -2.31745e-07 0)
(-9.75696e-06 -2.51497e-07 0)
(-9.65677e-06 -2.61233e-07 0)
(-9.54806e-06 -2.61337e-07 0)
(-9.43463e-06 -2.52179e-07 0)
(-9.32006e-06 -2.34927e-07 0)
(-9.20749e-06 -2.10097e-07 0)
(-9.09975e-06 -1.79305e-07 0)
(-8.9991e-06 -1.43554e-07 0)
(-8.90747e-06 -1.04552e-07 0)
(-8.82641e-06 -6.32571e-08 0)
(-8.7572e-06 -2.08258e-08 0)
(-8.70018e-06 2.23457e-08 0)
(-8.6555e-06 6.46788e-08 0)
(-8.62311e-06 1.06509e-07 0)
(-8.60228e-06 1.46483e-07 0)
(-8.59137e-06 1.84021e-07 0)
(-8.59162e-06 2.21321e-07 0)
(-8.60233e-06 2.55919e-07 0)
(-8.62166e-06 2.89902e-07 0)
(-8.65048e-06 3.24438e-07 0)
(-8.68821e-06 3.59218e-07 0)
(-8.73632e-06 3.95916e-07 0)
(-8.79549e-06 4.34478e-07 0)
(-8.86597e-06 4.75383e-07 0)
(-8.94994e-06 5.19664e-07 0)
(-9.0491e-06 5.67355e-07 0)
(-9.16565e-06 6.18825e-07 0)
(-9.30164e-06 6.74734e-07 0)
(-9.45966e-06 7.3472e-07 0)
(-9.64192e-06 7.98629e-07 0)
(-9.85036e-06 8.66815e-07 0)
(-1.00873e-05 9.38733e-07 0)
(-1.03543e-05 1.01286e-06 0)
(-1.06526e-05 1.08887e-06 0)
(-1.0983e-05 1.16547e-06 0)
(-1.13464e-05 1.24152e-06 0)
(-1.17426e-05 1.31623e-06 0)
(-1.21708e-05 1.38795e-06 0)
(-1.26308e-05 1.45537e-06 0)
(-1.31218e-05 1.51756e-06 0)
(-1.3642e-05 1.57343e-06 0)
(-1.41895e-05 1.62168e-06 0)
(-1.47621e-05 1.66177e-06 0)
(-1.53577e-05 1.69354e-06 0)
(-1.59739e-05 1.71689e-06 0)
(-1.66078e-05 1.73188e-06 0)
(-1.72566e-05 1.73866e-06 0)
(-1.7918e-05 1.73763e-06 0)
(-1.85895e-05 1.72933e-06 0)
(-1.92688e-05 1.71351e-06 0)
(-1.99538e-05 1.69182e-06 0)
(-2.06437e-05 1.66399e-06 0)
(-2.13375e-05 1.63156e-06 0)
(-2.20344e-05 1.59434e-06 0)
(-2.27345e-05 1.55579e-06 0)
(-2.34382e-05 1.51571e-06 0)
(-2.41467e-05 1.47507e-06 0)
(-2.48601e-05 1.43538e-06 0)
(-2.55806e-05 1.39819e-06 0)
(-2.6311e-05 1.3651e-06 0)
(-2.70528e-05 1.33617e-06 0)
(-2.78089e-05 1.31131e-06 0)
(-2.85816e-05 1.29054e-06 0)
(-2.93734e-05 1.27285e-06 0)
(-3.01859e-05 1.25709e-06 0)
(-3.10219e-05 1.24172e-06 0)
(-3.18755e-05 1.22358e-06 0)
(-3.27582e-05 1.20063e-06 0)
(-3.36301e-05 1.16319e-06 0)
(-3.45526e-05 1.11207e-06 0)
(-3.53782e-05 9.9872e-07 0)
(-3.62705e-05 7.56322e-07 0)
(-3.67963e-05 1.01113e-07 0)
(-3.70346e-05 -1.21737e-06 0)
(-2.13503e-07 1.50584e-06 0)
(-9.2414e-07 2.07459e-06 0)
(-1.73235e-06 2.20345e-06 0)
(-2.54851e-06 2.18844e-06 0)
(-3.34891e-06 2.11942e-06 0)
(-4.11978e-06 2.02227e-06 0)
(-4.85535e-06 1.90855e-06 0)
(-5.54912e-06 1.78249e-06 0)
(-6.19755e-06 1.64661e-06 0)
(-6.79731e-06 1.50348e-06 0)
(-7.34633e-06 1.3556e-06 0)
(-7.84321e-06 1.20539e-06 0)
(-8.28731e-06 1.05499e-06 0)
(-8.67869e-06 9.06227e-07 0)
(-9.01796e-06 7.60862e-07 0)
(-9.30633e-06 6.20731e-07 0)
(-9.54577e-06 4.87358e-07 0)
(-9.73844e-06 3.61824e-07 0)
(-9.88662e-06 2.45242e-07 0)
(-9.99308e-06 1.38478e-07 0)
(-1.00609e-05 4.201e-08 0)
(-1.00931e-05 -4.38189e-08 0)
(-1.00933e-05 -1.18382e-07 0)
(-1.00651e-05 -1.81482e-07 0)
(-1.00124e-05 -2.32579e-07 0)
(-9.93927e-06 -2.71688e-07 0)
(-9.84981e-06 -2.98588e-07 0)
(-9.74816e-06 -3.13367e-07 0)
(-9.63844e-06 -3.16654e-07 0)
(-9.52439e-06 -3.08774e-07 0)
(-9.40974e-06 -2.91093e-07 0)
(-9.2977e-06 -2.64383e-07 0)
(-9.19102e-06 -2.30392e-07 0)
(-9.09205e-06 -1.9045e-07 0)
(-9.00282e-06 -1.46293e-07 0)
(-8.92478e-06 -9.92974e-08 0)
(-8.85921e-06 -5.0544e-08 0)
(-8.80648e-06 -1.23785e-09 0)
(-8.76644e-06 4.73348e-08 0)
(-8.73903e-06 9.52416e-08 0)
(-8.72337e-06 1.40745e-07 0)
(-8.71727e-06 1.83694e-07 0)
(-8.7221e-06 2.25601e-07 0)
(-8.73738e-06 2.64468e-07 0)
(-8.76041e-06 3.03137e-07 0)
(-8.7922e-06 3.41841e-07 0)
(-8.83184e-06 3.81106e-07 0)
(-8.8803e-06 4.22728e-07 0)
(-8.93892e-06 4.66645e-07 0)
(-9.00818e-06 5.13597e-07 0)
(-9.09027e-06 5.64799e-07 0)
(-9.18702e-06 6.2043e-07 0)
(-9.30065e-06 6.81024e-07 0)
(-9.43335e-06 7.4723e-07 0)
(-9.58794e-06 8.1869e-07 0)
(-9.7667e-06 8.95298e-07 0)
(-9.9715e-06 9.77149e-07 0)
(-1.0205e-05 1.06375e-06 0)
(-1.04689e-05 1.15325e-06 0)
(-1.07641e-05 1.24523e-06 0)
(-1.10916e-05 1.33827e-06 0)
(-1.14524e-05 1.4306e-06 0)
(-1.18461e-05 1.52166e-06 0)
(-1.22723e-05 1.60945e-06 0)
(-1.27307e-05 1.69265e-06 0)
(-1.32204e-05 1.76997e-06 0)
(-1.37398e-05 1.84011e-06 0)
(-1.4287e-05 1.90156e-06 0)
(-1.48596e-05 1.9537e-06 0)
(-1.54551e-05 1.99634e-06 0)
(-1.60712e-05 2.02926e-06 0)
(-1.6705e-05 2.05241e-06 0)
(-1.7354e-05 2.06611e-06 0)
(-1.80155e-05 2.07068e-06 0)
(-1.86874e-05 2.06666e-06 0)
(-1.93667e-05 2.05461e-06 0)
(-2.00517e-05 2.03547e-06 0)
(-2.07415e-05 2.00963e-06 0)
(-2.14353e-05 1.97886e-06 0)
(-2.21323e-05 1.94387e-06 0)
(-2.28326e-05 1.90697e-06 0)
(-2.35372e-05 1.86882e-06 0)
(-2.42464e-05 1.83096e-06 0)
(-2.49615e-05 1.79513e-06 0)
(-2.56849e-05 1.76239e-06 0)
(-2.64196e-05 1.73502e-06 0)
(-2.71676e-05 1.71318e-06 0)
(-2.79314e-05 1.6965e-06 0)
(-2.87136e-05 1.68524e-06 0)
(-2.95167e-05 1.67819e-06 0)
(-3.03425e-05 1.67402e-06 0)
(-3.11948e-05 1.67048e-06 0)
(-3.20677e-05 1.66348e-06 0)
(-3.29746e-05 1.64951e-06 0)
(-3.38736e-05 1.61765e-06 0)
(-3.48294e-05 1.5641e-06 0)
(-3.5689e-05 1.43241e-06 0)
(-3.66209e-05 1.12572e-06 0)
(-3.71774e-05 3.02524e-07 0)
(-3.7443e-05 -1.37667e-06 0)
(-2.18869e-07 1.78897e-06 0)
(-9.43365e-07 2.46264e-06 0)
(-1.76444e-06 2.6137e-06 0)
(-2.592e-06 2.59526e-06 0)
(-3.40275e-06 2.51505e-06 0)
(-4.18309e-06 2.40143e-06 0)
(-4.92702e-06 2.26797e-06 0)
(-5.62787e-06 2.11978e-06 0)
(-6.28204e-06 1.95994e-06 0)
(-6.8862e-06 1.79156e-06 0)
(-7.4383e-06 1.61758e-06 0)
(-7.93704e-06 1.44077e-06 0)
(-8.3818e-06 1.26365e-06 0)
(-8.7727e-06 1.0884e-06 0)
(-9.1106e-06 9.17052e-07 0)
(-9.39687e-06 7.5176e-07 0)
(-9.63354e-06 5.94348e-07 0)
(-9.82293e-06 4.45885e-07 0)
(-9.96732e-06 3.07617e-07 0)
(-1.00695e-05 1.80732e-07 0)
(-1.01326e-05 6.55099e-08 0)
(-1.01599e-05 -3.71908e-08 0)
(-1.01549e-05 -1.26821e-07 0)
(-1.01215e-05 -2.03117e-07 0)
(-1.00636e-05 -2.65395e-07 0)
(-9.9853e-06 -3.136e-07 0)
(-9.89089e-06 -3.47536e-07 0)
(-9.78445e-06 -3.67286e-07 0)
(-9.6703e-06 -3.73438e-07 0)
(-9.55232e-06 -3.66698e-07 0)
(-9.43423e-06 -3.48194e-07 0)
(-9.31941e-06 -3.19347e-07 0)
(-9.21065e-06 -2.81762e-07 0)
(-9.11038e-06 -2.37303e-07 0)
(-9.02067e-06 -1.8754e-07 0)
(-8.94305e-06 -1.34523e-07 0)
(-8.87864e-06 -7.90792e-08 0)
(-8.82775e-06 -2.33465e-08 0)
(-8.79012e-06 3.17493e-08 0)
(-8.76527e-06 8.57449e-08 0)
(-8.75253e-06 1.36809e-07 0)
(-8.74922e-06 1.85168e-07 0)
(-8.75666e-06 2.31564e-07 0)
(-8.77448e-06 2.74676e-07 0)
(-8.79922e-06 3.17372e-07 0)
(-8.83226e-06 3.59994e-07 0)
(-8.8727e-06 4.03389e-07 0)
(-8.9212e-06 4.49329e-07 0)
(-8.97894e-06 4.98223e-07 0)
(-9.0463e-06 5.5093e-07 0)
(-9.12578e-06 6.08709e-07 0)
(-9.21957e-06 6.72112e-07 0)
(-9.33001e-06 7.41716e-07 0)
(-9.45938e-06 8.18176e-07 0)
(-9.6106e-06 9.01051e-07 0)
(-9.78606e-06 9.9045e-07 0)
(-9.98763e-06 1.08619e-06 0)
(-1.02183e-05 1.18726e-06 0)
(-1.04799e-05 1.29245e-06 0)
(-1.0773e-05 1.4007e-06 0)
(-1.10992e-05 1.51006e-06 0)
(-1.14592e-05 1.61924e-06 0)
(-1.18527e-05 1.72686e-06 0)
(-1.22794e-05 1.83106e-06 0)
(-1.27391e-05 1.9302e-06 0)
(-1.32306e-05 2.02295e-06 0)
(-1.37523e-05 2.10761e-06 0)
(-1.4302e-05 2.18237e-06 0)
(-1.48771e-05 2.24661e-06 0)
(-1.54754e-05 2.30016e-06 0)
(-1.60946e-05 2.34269e-06 0)
(-1.67316e-05 2.37404e-06 0)
(-1.73839e-05 2.39467e-06 0)
(-1.80485e-05 2.4048e-06 0)
(-1.87231e-05 2.40497e-06 0)
(-1.94049e-05 2.39655e-06 0)
(-2.00922e-05 2.3798e-06 0)
(-2.07837e-05 2.3558e-06 0)
(-2.14785e-05 2.32656e-06 0)
(-2.21762e-05 2.29367e-06 0)
(-2.28772e-05 2.25835e-06 0)
(-2.35815e-05 2.22197e-06 0)
(-2.42899e-05 2.18696e-06 0)
(-2.50044e-05 2.1548e-06 0)
(-2.57274e-05 2.12711e-06 0)
(-2.64616e-05 2.10581e-06 0)
(-2.72096e-05 2.0914e-06 0)
(-2.79742e-05 2.08387e-06 0)
(-2.87582e-05 2.08268e-06 0)
(-2.9565e-05 2.08703e-06 0)
(-3.0396e-05 2.09533e-06 0)
(-3.12553e-05 2.10479e-06 0)
(-3.21375e-05 2.11042e-06 0)
(-3.30578e-05 2.10736e-06 0)
(-3.39727e-05 2.08308e-06 0)
(-3.4951e-05 2.02924e-06 0)
(-3.58363e-05 1.88115e-06 0)
(-3.68021e-05 1.51111e-06 0)
(-3.73921e-05 5.17289e-07 0)
(-3.76888e-05 -1.52785e-06 0)
(-2.25186e-07 2.07849e-06 0)
(-9.64418e-07 2.8576e-06 0)
(-1.79895e-06 3.03023e-06 0)
(-2.63927e-06 3.0079e-06 0)
(-3.46176e-06 2.91589e-06 0)
(-4.25245e-06 2.7852e-06 0)
(-5.00531e-06 2.63129e-06 0)
(-5.71352e-06 2.46026e-06 0)
(-6.37347e-06 2.27572e-06 0)
(-6.98179e-06 2.08133e-06 0)
(-7.53647e-06 1.88055e-06 0)
(-8.03639e-06 1.67651e-06 0)
(-8.481e-06 1.47202e-06 0)
(-8.87046e-06 1.26974e-06 0)
(-9.20591e-06 1.072e-06 0)
(-9.489e-06 8.81188e-07 0)
(-9.72169e-06 6.99362e-07 0)
(-9.90632e-06 5.27703e-07 0)
(-1.00454e-05 3.67494e-07 0)
(-1.01418e-05 2.20178e-07 0)
(-1.01985e-05 8.62015e-08 0)
(-1.02192e-05 -3.35885e-08 0)
(-1.02073e-05 -1.38448e-07 0)
(-1.01669e-05 -2.2791e-07 0)
(-1.01019e-05 -3.0139e-07 0)
(-1.00166e-05 -3.58697e-07 0)
(-9.91519e-06 -3.99505e-07 0)
(-9.80211e-06 -4.24159e-07 0)
(-9.68158e-06 -4.32934e-07 0)
(-9.55776e-06 -4.27068e-07 0)
(-9.43436e-06 -4.0749e-07 0)
(-9.31487e-06 -3.76095e-07 0)
(-9.20222e-06 -3.34567e-07 0)
(-9.09907e-06 -2.85056e-07 0)
(-9.00745e-06 -2.2933e-07 0)
(-8.92892e-06 -1.69703e-07 0)
(-8.86462e-06 -1.07301e-07 0)
(-8.81447e-06 -4.47425e-08 0)
(-8.77823e-06 1.71483e-08 0)
(-8.75508e-06 7.72163e-08 0)
(-8.74423e-06 1.34058e-07 0)
(-8.74277e-06 1.87664e-07 0)
(-8.75194e-06 2.38253e-07 0)
(-8.77134e-06 2.85607e-07 0)
(-8.79716e-06 3.32054e-07 0)
(-8.83071e-06 3.78319e-07 0)
(-8.87113e-06 4.25652e-07 0)
(-8.91883e-06 4.75457e-07 0)
(-8.97489e-06 5.28868e-07 0)
(-9.03982e-06 5.86952e-07 0)
(-9.11616e-06 6.51033e-07 0)
(-9.20631e-06 7.22033e-07 0)
(-9.31291e-06 8.00576e-07 0)
(-9.43832e-06 8.87296e-07 0)
(-9.58558e-06 9.81597e-07 0)
(-9.75732e-06 1.08387e-06 0)
(-9.95565e-06 1.19359e-06 0)
(-1.01835e-05 1.30956e-06 0)
(-1.04426e-05 1.43067e-06 0)
(-1.07343e-05 1.55548e-06 0)
(-1.10596e-05 1.68156e-06 0)
(-1.14195e-05 1.80785e-06 0)
(-1.18138e-05 1.93248e-06 0)
(-1.22422e-05 2.05348e-06 0)
(-1.27044e-05 2.16896e-06 0)
(-1.31992e-05 2.2774e-06 0)
(-1.37242e-05 2.37662e-06 0)
(-1.42772e-05 2.46475e-06 0)
(-1.48562e-05 2.54131e-06 0)
(-1.54589e-05 2.60595e-06 0)
(-1.60827e-05 2.6582e-06 0)
(-1.67247e-05 2.69782e-06 0)
(-1.73818e-05 2.72525e-06 0)
(-1.80509e-05 2.74089e-06 0)
(-1.87294e-05 2.74526e-06 0)
(-1.9415e-05 2.73984e-06 0)
(-2.01059e-05 2.72516e-06 0)
(-2.07999e-05 2.70318e-06 0)
(-2.14962e-05 2.67521e-06 0)
(-2.2195e-05 2.64345e-06 0)
(-2.28963e-05 2.60955e-06 0)
(-2.35998e-05 2.57509e-06 0)
(-2.43066e-05 2.54235e-06 0)
(-2.50194e-05 2.51357e-06 0)
(-2.574e-05 2.49081e-06 0)
(-2.64714e-05 2.47568e-06 0)
(-2.72164e-05 2.46874e-06 0)
(-2.79779e-05 2.47063e-06 0)
(-2.87594e-05 2.48007e-06 0)
(-2.95649e-05 2.49663e-06 0)
(-3.03966e-05 2.51825e-06 0)
(-3.12589e-05 2.54183e-06 0)
(-3.21467e-05 2.56153e-06 0)
(-3.3077e-05 2.57131e-06 0)
(-3.40054e-05 2.55697e-06 0)
(-3.50047e-05 2.50568e-06 0)
(-3.59158e-05 2.3442e-06 0)
(-3.69166e-05 1.91359e-06 0)
(-3.75447e-05 7.47523e-07 0)
(-3.78672e-05 -1.67231e-06 0)
(-2.32502e-07 2.37527e-06 0)
(-9.87916e-07 3.25995e-06 0)
(-1.83709e-06 3.45371e-06 0)
(-2.69198e-06 3.42728e-06 0)
(-3.52804e-06 3.32263e-06 0)
(-4.33045e-06 3.17411e-06 0)
(-5.09331e-06 2.9989e-06 0)
(-5.80959e-06 2.80414e-06 0)
(-6.47576e-06 2.59405e-06 0)
(-7.08849e-06 2.37278e-06 0)
(-7.64581e-06 2.14438e-06 0)
(-8.1467e-06 1.91238e-06 0)
(-8.59082e-06 1.67986e-06 0)
(-8.97846e-06 1.44991e-06 0)
(-9.31092e-06 1.22532e-06 0)
(-9.59013e-06 1.00861e-06 0)
(-9.81812e-06 8.01926e-07 0)
(-9.99712e-06 6.06677e-07 0)
(-1.01299e-05 4.24306e-07 0)
(-1.02194e-05 2.56287e-07 0)
(-1.02688e-05 1.03235e-07 0)
(-1.02816e-05 -3.37064e-08 0)
(-1.02616e-05 -1.53947e-07 0)
(-1.02128e-05 -2.56646e-07 0)
(-1.01394e-05 -3.41307e-07 0)
(-1.00456e-05 -4.07714e-07 0)
(-9.93588e-06 -4.5531e-07 0)
(-9.8148e-06 -4.84628e-07 0)
(-9.68664e-06 -4.95937e-07 0)
(-9.55562e-06 -4.90558e-07 0)
(-9.42565e-06 -4.69703e-07 0)
(-9.3003e-06 -4.35285e-07 0)
(-9.1827e-06 -3.89427e-07 0)
(-9.07572e-06 -3.34208e-07 0)
(-8.98151e-06 -2.72081e-07 0)
(-8.90152e-06 -2.05227e-07 0)
(-8.8367e-06 -1.35521e-07 0)
(-8.78684e-06 -6.5756e-08 0)
(-8.75156e-06 3.0659e-09 0)
(-8.72962e-06 6.93665e-08 0)
(-8.72007e-06 1.32115e-07 0)
(-8.72029e-06 1.90943e-07 0)
(-8.73152e-06 2.45863e-07 0)
(-8.75275e-06 2.97245e-07 0)
(-8.77973e-06 3.47157e-07 0)
(-8.81356e-06 3.96598e-07 0)
(-8.85349e-06 4.47453e-07 0)
(-8.89972e-06 5.00764e-07 0)
(-8.95335e-06 5.58274e-07 0)
(-9.01532e-06 6.21363e-07 0)
(-9.08799e-06 6.91553e-07 0)
(-9.17395e-06 7.69906e-07 0)
(-9.2762e-06 8.57289e-07 0)
(-9.39717e-06 9.54303e-07 0)
(-9.53996e-06 1.06008e-06 0)
(-9.70758e-06 1.17537e-06 0)
(-9.90233e-06 1.2992e-06 0)
(-1.0127e-05 1.43069e-06 0)
(-1.03838e-05 1.56794e-06 0)
(-1.06739e-05 1.70962e-06 0)
(-1.09989e-05 1.8531e-06 0)
(-1.13591e-05 1.99678e-06 0)
(-1.17548e-05 2.13888e-06 0)
(-1.21857e-05 2.27719e-06 0)
(-1.26516e-05 2.40959e-06 0)
(-1.31506e-05 2.53381e-06 0)
(-1.36799e-05 2.64754e-06 0)
(-1.42374e-05 2.74923e-06 0)
(-1.48216e-05 2.83842e-06 0)
(-1.54298e-05 2.9143e-06 0)
(-1.60592e-05 2.97633e-06 0)
(-1.67068e-05 3.02427e-06 0)
(-1.73694e-05 3.0584e-06 0)
(-1.80438e-05 3.07936e-06 0)
(-1.87273e-05 3.08777e-06 0)
(-1.94175e-05 3.08514e-06 0)
(-2.01121e-05 3.07211e-06 0)
(-2.08091e-05 3.05176e-06 0)
(-2.15076e-05 3.02461e-06 0)
(-2.22074e-05 2.99353e-06 0)
(-2.29086e-05 2.96047e-06 0)
(-2.36108e-05 2.92752e-06 0)
(-2.43157e-05 2.89676e-06 0)
(-2.50258e-05 2.87108e-06 0)
(-2.57429e-05 2.85281e-06 0)
(-2.64702e-05 2.84373e-06 0)
(-2.72106e-05 2.84419e-06 0)
(-2.79673e-05 2.85528e-06 0)
(-2.87446e-05 2.8759e-06 0)
(-2.9547e-05 2.90543e-06 0)
(-3.03775e-05 2.9415e-06 0)
(-3.12413e-05 2.98053e-06 0)
(-3.21336e-05 3.01611e-06 0)
(-3.30733e-05 3.04102e-06 0)
(-3.40157e-05 3.03951e-06 0)
(-3.50379e-05 2.99438e-06 0)
(-3.59784e-05 2.82339e-06 0)
(-3.70202e-05 2.33608e-06 0)
(-3.76952e-05 9.95945e-07 0)
(-3.80502e-05 -1.81164e-06 0)
(-2.40784e-07 2.68023e-06 0)
(-1.01424e-06 3.67047e-06 0)
(-1.87972e-06 3.88497e-06 0)
(-2.75112e-06 3.8544e-06 0)
(-3.60271e-06 3.73613e-06 0)
(-4.41831e-06 3.56882e-06 0)