/*--------------------------------*- C++ -*----------------------------------*\
| =========                 |                                                 |
| \\      /  F ield         | OpenFOAM: The Open Source CFD Toolbox           |
|  \\    /   O peration     | Version:  2.4.0                                 |
|   \\  /    A nd           | Web:      www.OpenFOAM.org                      |
|    \\/     M anipulation  |                                                 |
\*---------------------------------------------------------------------------*/
FoamFile
{
    version     2.0;
    format      ascii;
    class       surfaceScalarField;
    location    "0.017";
    object      phiAlpha;
}
// * * * * * * * * * * * * * * * * * * * * * * * * * * * * * * * * * * * * * //

dimensions      [0 3 -1 0 0 0 0];

internalField   nonuniform List<scalar> 
7080
(
-4.12228e-13
4.1217e-13
-2.29632e-12
1.88398e-12
-6.27519e-12
3.97906e-12
-1.24939e-11
6.219e-12
-2.10559e-11
8.56314e-12
-3.18183e-11
1.07649e-11
-4.39308e-11
1.21135e-11
-5.56963e-11
1.17652e-11
-6.39579e-11
8.26272e-12
-6.77078e-11
3.74936e-12
-5.70558e-11
-1.06526e-11
-4.23797e-11
-1.46776e-11
-8.15082e-12
-3.42298e-11
2.62851e-11
-3.44367e-11
6.43608e-11
-3.80777e-11
9.23856e-11
-2.80249e-11
1.10685e-10
-1.83023e-11
1.1684e-10
-6.15396e-12
1.13177e-10
3.66122e-12
1.02454e-10
1.07215e-11
8.79774e-11
1.44762e-11
7.18265e-11
1.61487e-11
5.63394e-11
1.54871e-11
4.20079e-11
1.43294e-11
3.0183e-11
1.18272e-11
2.03613e-11
9.82135e-12
1.33319e-11
7.03055e-12
7.97459e-12
5.35878e-12
4.58222e-12
3.39135e-12
2.56643e-12
2.01717e-12
-5.33985e-13
9.46197e-13
-2.30671e-12
3.657e-12
-5.51876e-12
7.19203e-12
-1.03675e-11
1.1069e-11
-1.67222e-11
1.49199e-11
-2.40203e-11
1.8066e-11
-3.11271e-11
1.9222e-11
-3.63111e-11
1.69494e-11
-3.63163e-11
8.26854e-12
-2.99693e-11
-2.59844e-12
-9.51581e-12
-3.11074e-11
1.71021e-11
-4.12965e-11
6.20744e-11
-7.92053e-11
1.01192e-10
-7.35541e-11
1.4427e-10
-8.11601e-11
1.70807e-10
-5.45622e-11
1.84471e-10
-3.19707e-11
1.82859e-10
-4.54069e-12
1.697e-10
1.68177e-11
1.4877e-10
3.16491e-11
1.24483e-10
3.87619e-11
9.94791e-11
4.11488e-11
7.65104e-11
3.84583e-11
5.61016e-11
3.47358e-11
3.96957e-11
2.82366e-11
2.64726e-11
2.30456e-11
1.712e-11
1.63832e-11
1.01674e-11
1.23142e-11
5.97438e-12
7.58208e-12
5.66385e-12
2.87969e-12
-5.64875e-13
1.51117e-12
-2.42672e-12
5.51909e-12
-5.7303e-12
1.04962e-11
-1.06602e-11
1.59996e-11
-1.71484e-11
2.14096e-11
-2.46613e-11
2.55813e-11
-3.19766e-11
2.65383e-11
-3.72381e-11
2.22106e-11
-3.65925e-11
7.62318e-12
-2.93791e-11
-9.81277e-12
-6.81969e-12
-5.36678e-11
2.1582e-11
-6.96987e-11
6.94986e-11
-1.27125e-10
1.0985e-10
-1.13905e-10
1.53855e-10
-1.25169e-10
1.79626e-10
-8.03331e-11
1.92321e-10
-4.46698e-11
1.89221e-10
-1.43885e-12
1.74632e-10
3.14033e-11
1.52473e-10
5.3806e-11
1.2719e-10
6.40448e-11
1.01376e-10
6.6959e-11
7.78314e-11
6.20054e-11
5.69714e-11
5.55935e-11
4.0257e-11
4.49543e-11
2.68358e-11
3.6468e-11
1.7344e-11
2.5875e-11
1.0259e-11
1.94021e-11
6.06739e-12
1.17714e-11
7.79548e-12
3.93853e-12
-5.28367e-13
2.03956e-12
-2.48689e-12
7.47767e-12
-6.18196e-12
1.41916e-11
-1.17988e-11
2.16168e-11
-1.92544e-11
2.88662e-11
-2.79255e-11
3.42544e-11
-3.63625e-11
3.49758e-11
-4.27249e-11
2.85721e-11
-4.20254e-11
6.92368e-12
-3.46771e-11
-1.71621e-11
-9.61453e-12
-7.87315e-11
2.06313e-11
-9.9945e-11
7.19317e-11
-1.78428e-10
1.13838e-10
-1.5581e-10
1.58921e-10
-1.70255e-10
1.83749e-10
-1.0516e-10
1.95528e-10
-5.64524e-11
1.91088e-10
3.0027e-12
1.75491e-10
4.69977e-11
1.52683e-10
7.66126e-11
1.27095e-10
8.96325e-11
1.01163e-10
9.2887e-11
7.75968e-11
8.55745e-11
5.67741e-11
7.6414e-11
4.01075e-11
6.1624e-11
2.67102e-11
4.98665e-11
1.72543e-11
3.53309e-11
1.02278e-11
2.64314e-11
5.97399e-12
1.6023e-11
1.06812e-11
3.09102e-12
-6.64995e-13
2.70453e-12
-3.0281e-12
9.84064e-12
-7.46034e-12
1.86239e-11
-1.41938e-11
2.83502e-11
-2.30829e-11
3.77561e-11
-3.34247e-11
4.45981e-11
-4.34108e-11
4.4962e-11
-5.12272e-11
3.6387e-11
-5.02733e-11
5.96956e-12
-4.26868e-11
-2.47498e-11
-1.40631e-11
-1.07356e-10
1.88558e-11
-1.32864e-10
7.47798e-11
-2.34354e-10
1.18791e-10
-1.99819e-10
1.6515e-10
-2.16616e-10
1.88674e-10
-1.28683e-10
1.99237e-10
-6.70177e-11
1.93055e-10
9.18561e-12
1.76227e-10
6.38248e-11
1.52657e-10
1.00181e-10
1.26735e-10
1.15555e-10
1.00693e-10
1.18926e-10
7.71549e-11
1.09115e-10
5.64067e-11
9.71603e-11
3.98334e-11
7.82003e-11
2.65147e-11
6.31863e-11
1.71236e-11
4.47219e-11
1.01494e-11
3.34083e-11
5.92157e-12
2.02486e-11
1.36219e-11
2.98361e-12
-8.37716e-13
3.54215e-12
-3.74178e-12
1.27443e-11
-9.15765e-12
2.40396e-11
-1.73556e-11
3.65476e-11
-2.81641e-11
4.85649e-11
-4.07902e-11
5.7226e-11
-5.26738e-11
5.68452e-11
-6.24822e-11
4.61933e-11
-6.10826e-11
4.56965e-12
-5.30511e-11
-3.27827e-11
-1.96509e-11
-1.40757e-10
1.69526e-11
-1.69467e-10
7.88255e-11
-2.96229e-10
1.25509e-10
-2.465e-10
1.73222e-10
-2.64331e-10
1.95043e-10
-1.50503e-10
2.0386e-10
-7.5837e-11
1.95413e-10
1.76344e-11
1.77061e-10
8.21757e-11
1.52555e-10
1.24685e-10
1.26231e-10
1.4188e-10
1.00065e-10
1.45089e-10
7.65753e-11
1.32607e-10
5.59292e-11
1.17805e-10
3.94782e-11
9.46541e-11
2.62641e-11
7.64014e-11
1.6957e-11
5.4029e-11
1.00465e-11
4.03214e-11
5.8616e-12
2.44313e-11
1.65244e-11
2.96177e-12
-1.05376e-12
4.59574e-12
-4.64546e-12
1.63354e-11
-1.13288e-11
3.07222e-11
-2.14835e-11
4.67013e-11
-3.47813e-11
6.18628e-11
-5.04357e-11
7.28822e-11
-6.47281e-11
7.11369e-11
-7.70932e-11
5.85557e-11
-7.48004e-11
2.27661e-12
-6.61115e-11
-4.14729e-11
-2.64277e-11
-1.80442e-10
1.50916e-11
-2.10986e-10
8.43766e-11
-3.65515e-10
1.34337e-10
-2.96459e-10
1.83344e-10
-3.13338e-10
2.0303e-10
-1.70188e-10
2.09423e-10
-8.22316e-11
1.98123e-10
2.89361e-11
1.77988e-10
1.0231e-10
1.52381e-10
1.5029e-10
1.25591e-10
1.68672e-10
9.92915e-11
1.71385e-10
7.58677e-11
1.56033e-10
5.535e-11
1.38321e-10
3.90492e-11
1.10958e-10
2.59617e-11
8.94901e-11
1.67561e-11
6.32344e-11
9.92257e-12
4.71576e-11
5.78952e-12
2.85622e-11
1.93959e-11
2.9207e-12
-1.34403e-12
5.93949e-12
-5.8371e-12
2.08277e-11
-1.41636e-11
3.90482e-11
-2.6901e-11
5.94377e-11
-4.33403e-11
7.83026e-11
-6.30355e-11
9.25801e-11
-8.00147e-11
8.81155e-11
-9.57011e-11
7.4239e-11
-9.20056e-11
-1.41863e-12
-8.22996e-11
-5.11802e-11
-3.44989e-11
-2.28243e-10
1.34917e-11
-2.58975e-10
9.1797e-11
-4.43822e-10
1.45658e-10
-3.50317e-10
1.95719e-10
-3.63399e-10
2.12717e-10
-1.87185e-10
2.1589e-10
-8.54054e-11
2.01156e-10
4.36715e-11
1.7897e-10
1.24496e-10
1.52111e-10
1.77148e-10
1.24801e-10
1.95983e-10
9.8367e-11
1.97817e-10
7.50313e-11
1.79372e-10
5.46694e-11
1.58681e-10
3.85481e-11
1.27081e-10
2.56077e-11
1.02432e-10
1.65209e-11
7.2321e-11
9.77788e-12
5.39033e-11
5.70473e-12
3.26333e-11
2.22218e-11
2.88143e-12
-1.671e-12
7.61018e-12
-7.33263e-12
2.64884e-11
-1.77678e-11
4.94827e-11
-3.38709e-11
7.55397e-11
-5.42358e-11
9.86681e-11
-7.92256e-11
1.17574e-10
-9.95364e-11
1.08426e-10
-1.19411e-10
9.41104e-11
-1.13386e-10
-7.4427e-12
-1.0214e-10
-6.24271e-11
-4.39451e-11
-2.86438e-10
1.24289e-11
-3.15348e-10
1.01537e-10
-5.3293e-10
1.59953e-10
-4.08729e-10
2.106e-10
-4.14044e-10
2.24142e-10
-2.00727e-10
2.23191e-10
-8.44544e-11
2.04503e-10
6.23613e-11
1.79947e-10
1.49053e-10
1.51703e-10
2.05391e-10
1.23838e-10
2.2385e-10
9.72781e-11
2.24375e-10
7.40582e-11
2.02594e-10
5.38831e-11
1.78855e-10
3.7975e-11
1.42992e-10
2.52004e-11
1.15207e-10
1.62501e-11
8.12711e-11
9.61189e-12
6.0544e-11
5.60649e-12
3.66366e-11
2.5001e-11
2.82978e-12
-2.08736e-12
9.69716e-12
-9.24941e-12
3.36493e-11
-2.24137e-11
6.26463e-11
-4.29781e-11
9.6103e-11
-6.82038e-11
1.23895e-10
-9.99537e-11
1.49329e-10
-1.24123e-10
1.32596e-10
-1.49221e-10
1.19205e-10
-1.39789e-10
-1.68735e-11
-1.2625e-10
-7.59669e-11
-5.48627e-11
-3.57824e-10
1.23413e-11
-3.8255e-10
1.14273e-10
-6.34862e-10
1.77792e-10
-4.72245e-10
2.28241e-10
-4.64492e-10
2.37386e-10
-2.09871e-10
2.31277e-10
-7.83444e-11
2.08111e-10
8.5529e-11
1.80876e-10
1.76288e-10
1.5114e-10
2.35126e-10
1.22697e-10
2.52296e-10
9.60282e-11
2.51042e-10
7.29544e-11
2.2567e-10
5.29968e-11
1.98811e-10
3.73358e-11
1.58655e-10
2.47429e-11
1.27802e-10
1.59454e-11
9.00683e-11
9.42587e-12
6.70661e-11
5.49526e-12
4.05653e-11
2.77285e-11
2.7702e-12
-2.60779e-12
1.23045e-11
-1.15944e-11
4.26347e-11
-2.8098e-11
7.91495e-11
-5.43966e-11
1.22401e-10
-8.58364e-11
1.55338e-10
-1.26608e-10
1.90108e-10
-1.55345e-10
1.61332e-10
-1.86834e-10
1.50689e-10
-1.72311e-10
-3.13944e-11
-1.55305e-10
-9.29733e-11
-6.73342e-11
-4.45794e-10
1.37465e-11
-4.63629e-10
1.30741e-10
-7.51858e-10
1.99962e-10
-5.41464e-10
2.49063e-10
-5.13591e-10
2.52502e-10
-2.1331e-10
2.40045e-10
-6.5887e-11
2.1189e-10
1.13685e-10
1.8169e-10
2.06489e-10
1.50385e-10
2.6643e-10
1.2136e-10
2.81323e-10
9.46115e-11
2.7779e-10
7.172e-11
2.48564e-10
5.20107e-11
2.1852e-10
3.66236e-11
1.74044e-10
2.42357e-11
1.40191e-10
1.56072e-11
9.86965e-11
9.22011e-12
7.34556e-11
5.37119e-12
4.44123e-11
3.03984e-11
2.7036e-12
-3.3269e-12
1.5631e-11
-1.47927e-11
5.40993e-11
-3.53705e-11
9.97275e-11
-6.93045e-11
1.56335e-10
-1.08588e-10
1.94625e-10
-1.60809e-10
2.42338e-10
-1.9487e-10
1.95395e-10
-2.34092e-10
1.89906e-10
-2.12226e-10
-5.32578e-11
-1.90134e-10
-1.15067e-10
-8.13845e-11
-5.54545e-10
1.74647e-11
-5.62478e-10
1.52057e-10
-8.86451e-10
2.27268e-10
-6.16674e-10
2.73304e-10
-5.59626e-10
2.69485e-10
-2.09491e-10
2.49357e-10
-4.57583e-11
2.15711e-10
1.47333e-10
1.82288e-10
2.39913e-10
1.49383e-10
2.99335e-10
1.19798e-10
3.10911e-10
9.30139e-11
3.04572e-10
7.03519e-11
2.71228e-10
5.09209e-11
2.3795e-10
3.58266e-11
1.89141e-10
2.36778e-11
1.5234e-10
1.52344e-11
1.0714e-10
8.99415e-12
7.96982e-11
5.23412e-12
4.81704e-11
3.30049e-11
2.62994e-12
-3.74543e-12
1.9376e-11
-1.71434e-11
6.7496e-11
-4.32765e-11
1.25862e-10
-8.7497e-11
2.00554e-10
-1.3739e-10
2.44521e-10
-2.04969e-10
3.0993e-10
-2.45133e-10
2.3556e-10
-2.93435e-10
2.38201e-10
-2.6114e-10
-8.55512e-11
-2.31538e-10
-1.44673e-10
-9.70273e-11
-6.89059e-10
2.45612e-11
-6.84066e-10
1.79505e-10
-1.0414e-09
2.60847e-10
-6.98015e-10
3.01454e-10
-6.00232e-10
2.88357e-10
-1.96394e-10
2.5906e-10
-1.6461e-11
2.19439e-10
1.86956e-10
1.82593e-10
2.76759e-10
1.48104e-10
3.33823e-10
1.18005e-10
3.41013e-10
9.1239e-11
3.31338e-10
6.88612e-11
2.93608e-10
4.9733e-11
2.57077e-10
3.49493e-11
2.03926e-10
2.30724e-11
1.64219e-10
1.48289e-11
1.15383e-10
8.74925e-12
8.57801e-11
5.08491e-12
5.1833e-11
3.5544e-11
2.54792e-12
-5.55616e-12
2.49317e-11
-2.47423e-11
8.66807e-11
-5.50636e-11
1.56182e-10
-1.1428e-10
2.59768e-10
-1.76816e-10
3.07062e-10
-2.62776e-10
3.95905e-10
-3.09629e-10
2.82413e-10
-3.68219e-10
2.9678e-10
-3.21213e-10
-1.32556e-10
-2.80519e-10
-1.85373e-10
-1.14101e-10
-8.55481e-10
3.6568e-11
-8.34737e-10
2.14893e-10
-1.21973e-09
3.01984e-10
-7.85105e-10
3.33877e-10
-6.32125e-10
3.09016e-10
-1.71533e-10
2.68936e-10
2.36196e-11
2.229e-10
2.32994e-10
1.82501e-10
3.17158e-10
1.46503e-10
3.6982e-10
1.15971e-10
3.71547e-10
8.92824e-11
3.58027e-10
6.72334e-11
3.15659e-10
4.8448e-11
2.75862e-10
3.39951e-11
2.18381e-10
2.24206e-11
1.75794e-10
1.43914e-11
1.23412e-10
8.48584e-12
9.16878e-11
4.92402e-12
5.53931e-11
3.80138e-11
2.4564e-12
-2.9642e-12
2.78957e-11
-1.75271e-11
1.01242e-10
-6.41509e-11
2.02803e-10
-1.3884e-10
3.34453e-10
-2.24157e-10
3.92384e-10
-3.36286e-10
5.08052e-10
-3.90241e-10
3.36367e-10
-4.61468e-10
3.67991e-10
-3.94045e-10
-1.99979e-10
-3.37784e-10
-2.41641e-10
-1.32284e-10
-1.06099e-09
5.55657e-11
-1.02259e-09
2.60405e-10
-1.42457e-09
3.52165e-10
-8.76866e-10
3.70946e-10
-6.50906e-10
3.31288e-10
-1.31875e-10
2.78652e-10
7.6256e-11
2.25861e-10
2.85788e-10
1.81886e-10
3.61133e-10
1.4452e-10
4.07185e-10
1.13667e-10
4.02403e-10
8.7133e-11
3.84561e-10
6.54362e-11
3.37357e-10
4.7063e-11
2.94235e-10
3.29632e-11
2.32482e-10
2.17218e-11
1.87037e-10
1.39214e-11
1.31212e-10
8.20364e-12
9.74076e-11
4.7516e-12
5.88435e-11
4.04091e-11
2.3583e-12
-1.22056e-11
4.01006e-11
-4.78093e-11
1.36839e-10
-7.52511e-11
2.30241e-10
-1.87778e-10
4.4697e-10
-2.91552e-10
4.96163e-10
-4.3537e-10
6.51891e-10
-4.99443e-10
4.00435e-10
-5.79334e-10
4.47863e-10
-4.84575e-10
-2.94739e-10
-4.04293e-10
-3.21933e-10
-1.51194e-10
-1.31409e-09
8.41411e-11
-1.25793e-09
3.18969e-10
-1.65941e-09
4.13292e-10
-9.7119e-10
4.13053e-10
-6.50668e-10
3.5487e-10
-7.36903e-11
2.87843e-10
1.43283e-10
2.28103e-10
3.45532e-10
1.80662e-10
4.08574e-10
1.42124e-10
4.45722e-10
1.11058e-10
4.33471e-10
8.47967e-11
4.10822e-10
6.34761e-11
3.5868e-10
4.55844e-11
3.12127e-10
3.18584e-11
2.46209e-10
2.09795e-11
1.97917e-10
1.34209e-11
1.3877e-10
7.90398e-12
1.02927e-10
4.56857e-12
6.21774e-11
4.27219e-11
2.25759e-12
2.01533e-11
1.99494e-11
3.64488e-11
1.20549e-10
-6.96427e-11
3.36341e-10
-2.10803e-10
5.88121e-10
-3.76744e-10
6.62096e-10
-5.65105e-10
8.40266e-10
-6.28809e-10
4.64133e-10
-7.27484e-10
5.46513e-10
-5.89961e-10
-4.32263e-10
-4.80602e-10
-4.31304e-10
-1.69588e-10
-1.62511e-09
1.25975e-10
-1.55349e-09
3.94136e-10
-1.92758e-09
4.87375e-10
-1.06443e-09
4.60405e-10
-6.23698e-10
3.79305e-10
7.41059e-12
2.96055e-10
2.26533e-10
2.29349e-10
4.12242e-10
1.78702e-10
4.5922e-10
1.39273e-10
4.8515e-10
1.08111e-10
4.64635e-10
8.22714e-11
4.36662e-10
6.13582e-11
3.79594e-10
4.40145e-11
3.29471e-10
3.06819e-11
2.59543e-10
2.01951e-11
2.08405e-10
1.28909e-11
1.46074e-10
7.58743e-12
1.08232e-10
4.37532e-12
6.5388e-11
4.49441e-11
2.15496e-12
-5.94238e-11
7.93654e-11
-1.3348e-10
1.94578e-10
-4.37061e-11
2.46565e-10
-2.83239e-10
8.27668e-10
-5.00401e-10
8.79284e-10
-7.34784e-10
1.0747e-09
-8.25255e-10
5.54593e-10
-9.09744e-10
6.30962e-10
-7.28305e-10
-6.13704e-10
-5.66022e-10
-5.93602e-10
-1.87073e-10
-2.00407e-09
1.85321e-10
-1.92588e-09
4.90689e-10
-2.23295e-09
5.7688e-10
-1.15062e-09
5.13016e-10
-5.59835e-10
4.03783e-10
1.16646e-10
3.02596e-10
3.2772e-10
2.29261e-10
4.85582e-10
1.75794e-10
5.12687e-10
1.35921e-10
5.25023e-10
1.04795e-10
4.95762e-10
7.95495e-11
4.61909e-10
5.90787e-11
4.00067e-10
4.23523e-11
3.46197e-10
2.94319e-11
2.72465e-10
1.93682e-11
2.18469e-10
1.23311e-11
1.5311e-10
7.25396e-12
1.13311e-10
4.17174e-12
6.84689e-11
4.7068e-11
2.0496e-12
1.06908e-10
-2.75446e-11
3.56947e-10
-5.54315e-11
1.87624e-10
4.15883e-10
-2.76614e-10
1.29192e-09
-6.53511e-10
1.2562e-09
-1.00123e-09
1.42249e-09
-1.03149e-09
5.84852e-10
-1.14983e-09
7.49273e-10
-8.74388e-10
-8.89151e-10
-6.6192e-10
-8.0609e-10
-2.00119e-10
-2.46588e-09
2.68326e-10
-2.39432e-09
6.14636e-10
-2.57927e-09
6.85165e-10
-1.22114e-09
5.71174e-10
-4.45844e-10
4.27343e-10
2.60478e-10
3.06746e-10
4.48318e-10
2.27515e-10
5.6482e-10
1.71807e-10
5.68395e-10
1.32048e-10
5.64782e-10
1.01113e-10
5.26698e-10
7.66424e-11
4.8638e-10
5.66452e-11
4.20065e-10
4.06061e-11
3.62236e-10
2.81119e-11
2.8496e-10
1.85022e-11
2.2808e-10
1.17432e-11
1.59869e-10
6.90497e-12
1.18151e-10
3.95842e-12
7.14142e-11
4.90872e-11
1.94081e-12
-2.75925e-10
2.4793e-10
-3.38958e-10
9.05335e-12
-6.12778e-11
1.3595e-10
-5.8888e-10
1.81954e-09
-1.15732e-09
1.82486e-09
-1.26447e-09
1.52972e-09
-1.41148e-09
7.31931e-10
-1.42621e-09
7.63961e-10
-1.08017e-09
-1.2352e-09
-7.6292e-10
-1.12336e-09
-2.07409e-10
-3.0214e-09
3.83704e-10
-2.98542e-09
7.74774e-10
-2.97035e-09
8.12903e-10
-1.25926e-09
6.31694e-10
-2.64634e-10
4.4809e-10
4.44084e-10
3.07522e-10
5.88886e-10
2.23733e-10
6.48614e-10
1.66631e-10
6.25497e-10
1.27636e-10
6.03777e-10
9.70657e-11
5.57269e-10
7.35593e-11
5.09888e-10
5.40611e-11
4.39564e-10
3.87807e-11
3.77517e-10
2.67234e-11
2.97018e-10
1.75986e-11
2.37206e-10
1.11282e-11
1.66339e-10
6.54115e-12
1.22739e-10
3.73547e-12
7.42187e-11
5.09966e-11
1.82759e-12
-2.12388e-10
4.56105e-10
-7.44902e-10
5.32762e-10
-9.5189e-10
3.42938e-10
-5.16187e-10
1.38382e-09
-1.6087e-09
2.91748e-09
-2.08277e-09
2.00413e-09
-1.67636e-09
3.25552e-10
-1.79252e-09
8.80093e-10
-1.27126e-09
-1.75649e-09
-8.67499e-10
-1.52715e-09
-2.04474e-10
-3.68441e-09
5.35334e-10
-3.72522e-09
9.7717e-10
-3.41219e-09
9.72772e-10
-1.25486e-09
7.02158e-10
5.97989e-12
4.65324e-10
6.80919e-10
3.03912e-10
7.50298e-10
2.17524e-10
7.35009e-10
1.6014e-10
6.8288e-10
1.22679e-10
6.41238e-10
9.26544e-11
5.87294e-10
7.03107e-11
5.32233e-10
5.13284e-11
4.58547e-10
3.68793e-11
3.91967e-10
2.52665e-11
3.08631e-10
1.66582e-11
2.45815e-10
1.04859e-11
1.72511e-10
6.16267e-12
1.27064e-10
3.50301e-12
7.68773e-11
5.2792e-11
1.70896e-12
5.21082e-10
-6.66629e-11
9.26223e-10
1.27156e-10
-1.57021e-10
1.4227e-09
-1.04448e-09
2.25516e-09
-1.87524e-09
3.74836e-09
-2.92608e-09
3.05526e-09
-2.55025e-09
-5.02462e-11
-2.18771e-09
5.17498e-10
-1.5266e-09
-2.41759e-09
-9.67731e-10
-2.08604e-09
-1.77702e-10
-4.47441e-09
7.48727e-10
-4.65162e-09
1.2377e-09
-3.90118e-09
1.14511e-09
-1.16227e-09
7.56415e-10
3.94678e-10
4.72241e-10
9.65095e-10
2.94226e-10
9.28313e-10
2.08502e-10
8.2074e-10
1.52282e-10
7.391e-10
1.17237e-10
6.76284e-10
8.79078e-11
6.16623e-10
6.69111e-11
5.53231e-10
4.84628e-11
4.76996e-10
3.49129e-11
4.05517e-10
2.37476e-11
3.19797e-10
1.56853e-11
2.53878e-10
9.81799e-12
1.78378e-10
5.7709e-12
1.31112e-10
3.26258e-12
7.93846e-11
5.44679e-11
1.58792e-12
1.69472e-10
-2.35584e-10
5.48342e-10
-2.52286e-10
5.68859e-10
1.40096e-09
-3.45419e-10
3.16819e-09
-1.70247e-09
5.10545e-09
-3.36344e-09
4.71639e-09
-3.74276e-09
3.29113e-10
-2.40595e-09
-8.19353e-10
-1.7705e-09
-3.05301e-09
-1.03433e-09
-2.82223e-09
-1.4509e-10
-5.36372e-09
1.01504e-09
-5.81175e-09
1.58008e-09
-4.46624e-09
1.39108e-09
-9.73254e-10
8.39949e-10
9.45808e-10
4.73746e-10
1.3313e-09
2.77866e-10
1.12419e-09
1.96443e-10
9.02169e-10
1.43145e-10
7.92397e-10
1.11345e-10
7.08086e-10
8.28543e-11
6.45113e-10
6.33481e-11
5.72738e-10
4.54778e-11
4.94867e-10
3.28817e-11
4.18114e-10
2.21721e-11
3.30507e-10
1.4683e-11
2.61368e-10
9.12555e-12
1.83936e-10
5.36653e-12
1.34873e-10
3.01207e-12
8.17382e-11
5.60244e-11
1.45673e-12
-2.83329e-10
4.75138e-11
-1.29148e-09
7.55091e-10
-1.50427e-09
1.61442e-09
-2.10143e-09
3.7784e-09
-3.46028e-09
6.46439e-09
-4.28106e-09
5.53726e-09
-4.45124e-09
4.99329e-10
-3.28076e-09
-1.98989e-09
-1.91969e-09
-4.41405e-09
-1.09556e-09
-3.64637e-09
-5.42075e-11
-6.40509e-09
1.3757e-09
-7.2416e-09
1.98467e-09
-5.07524e-09
1.60526e-09
-5.93827e-10
8.5732e-10
1.69374e-09
4.4786e-10
1.74076e-09
2.50895e-10
1.32116e-09
1.80901e-10
9.72168e-10
1.32781e-10
8.40517e-10
1.04872e-10
7.35996e-10
7.75012e-11
6.72484e-10
5.95815e-11
5.90659e-10
4.23774e-11
5.12071e-10
3.07721e-11
4.2972e-10
2.05423e-11
3.40737e-10
1.36519e-11
2.6826e-10
8.40862e-12
1.89179e-10
4.95019e-12
1.38332e-10
2.75967e-12
8.3928e-11
5.74484e-11
1.33675e-12
-4.79128e-10
5.25537e-10
-1.53599e-09
1.83659e-09
-3.01075e-09
3.00789e-09
-6.19427e-09
6.96188e-09
-7.55e-09
7.82044e-09
-5.77384e-09
3.0748e-09
-4.0085e-09
-1.26599e-09
-4.46172e-09
-1.53677e-09
-1.87191e-09
-7.00384e-09
-1.14167e-09
-4.37661e-09
4.53011e-11
-7.59208e-09
1.84805e-09
-9.04434e-09
2.58098e-09
-5.80821e-09
1.99521e-09
-8.04084e-12
9.36963e-10
2.75199e-09
4.19621e-10
2.2581e-09
2.1571e-10
1.52506e-09
1.6281e-10
1.02507e-09
1.21703e-10
8.81623e-10
9.79723e-11
7.59728e-10
7.20116e-11
6.98444e-10
5.56701e-11
6.07001e-10
3.92267e-11
5.28515e-10
2.86104e-11
4.40337e-10
1.88886e-11
3.50459e-10
1.26061e-11
2.74543e-10
7.67696e-12
1.94108e-10
4.52544e-12
1.41484e-10
2.49254e-12
8.59602e-11
5.87519e-11
1.18991e-12
-4.37505e-10
9.61936e-10
-1.2428e-09
2.6382e-09
-3.17422e-09
4.77181e-09
-7.57243e-09
9.594e-09
-9.71603e-09
5.82893e-09
-1.15858e-08
1.14509e-09
-8.16499e-09
-4.98981e-09
-4.12666e-09
-5.57514e-09
-2.08621e-09
-9.04427e-09
-9.70056e-10
-5.49277e-09
1.69763e-10
-8.73191e-09
2.38941e-09
-1.1264e-08
3.19432e-09
-6.61319e-09
2.23468e-09
9.51629e-10
8.55228e-10
4.13143e-09
3.22972e-10
2.79036e-09
1.62568e-10
1.68547e-09
1.41106e-10
1.04654e-09
1.09283e-10
9.13445e-10
9.01312e-11
7.78881e-10
6.60604e-11
7.22514e-10
5.13599e-11
6.21703e-10
3.58667e-11
5.44008e-10
2.62677e-11
4.49937e-10
1.71388e-11
3.59588e-10
1.14918e-11
2.80191e-10
6.90396e-12
1.98695e-10
4.07892e-12
1.4431e-10
2.22605e-12
8.78125e-11
5.99049e-11
1.07384e-12
2.21665e-10
7.39282e-10
-3.95088e-10
3.2514e-09
-2.22894e-09
6.33958e-09
-1.9673e-09
4.00569e-09
-1.7325e-09
-1.87116e-10
-1.95094e-09
-1.88515e-11
-5.77677e-09
-6.55846e-10
-4.80618e-09
-5.42623e-09
-1.81417e-09
-1.20363e-08
-7.15039e-10
-6.5919e-09
3.38051e-10
-9.78502e-09
3.24367e-09
-1.41696e-08
4.24143e-09
-7.61105e-09
2.80133e-09
2.39175e-09
9.2591e-10
6.00686e-09
2.48299e-10
3.46797e-09
1.08278e-10
1.82549e-09
1.17789e-10
1.03703e-09
9.79474e-11
9.33286e-10
8.27913e-11
7.94038e-10
6.05308e-11
7.44774e-10
4.72536e-11
6.34981e-10
3.27128e-11
5.58548e-10
2.40411e-11
4.58609e-10
1.54992e-11
3.6813e-10
1.04409e-11
2.8525e-10
6.1739e-12
2.02962e-10
3.6571e-12
1.46828e-10
1.95364e-12
8.95156e-11
6.09445e-11
9.14754e-13
3.30363e-10
4.07937e-10
1.67014e-10
3.41125e-09
-6.01289e-11
6.47209e-09
2.18547e-10
-5.17865e-13
2.1239e-11
1.02931e-12
2.43263e-12
6.07117e-14
-6.51754e-10
-1.82802e-13
-5.31135e-09
-2.5357e-10
-1.1986e-09
-8.65645e-09
-2.19384e-10
-7.57109e-09
4.48129e-10
-1.04525e-08
3.84346e-09
-1.75648e-08
5.16007e-09
-8.92779e-09
3.08423e-09
4.46761e-09
6.53131e-10
8.43796e-09
1.17668e-11
4.10933e-09
1.73036e-11
1.81995e-09
8.72851e-11
9.6705e-10
8.47303e-11
9.35839e-10
7.3838e-11
8.04932e-10
5.39345e-11
7.64677e-10
4.22758e-11
6.4664e-10
2.90051e-11
5.71819e-10
2.13496e-11
4.66265e-10
1.3572e-11
3.75908e-10
9.16817e-12
2.89654e-10
5.31559e-12
2.06815e-10
3.15907e-12
1.48985e-10
1.65913e-12
9.10152e-11
6.18098e-11
7.9439e-13
-1.74861e-10
4.93806e-10
4.80603e-11
3.18476e-09
-4.70891e-13
4.93293e-09
-9.93583e-13
1.56015e-15
6.08984e-14
6.50856e-14
1.96745e-13
-3.17019e-14
5.71016e-14
-1.05572e-14
-2.53627e-10
1.45434e-13
-5.09152e-09
-5.58669e-11
2.74499e-09
-5.32706e-09
1.15247e-09
-8.40184e-09
5.5151e-09
-2.19274e-08
6.96754e-09
-1.03804e-08
3.85631e-09
7.57887e-09
6.52618e-10
1.16417e-08
-1.29099e-10
4.89105e-09
-4.66835e-11
1.73754e-09
6.59609e-11
8.54406e-10
7.68535e-11
9.24946e-10
6.83505e-11
8.13435e-10
4.98912e-11
7.83136e-10
3.93283e-11
6.57204e-10
2.68285e-11
5.84318e-10
1.98216e-11
4.73273e-10
1.24865e-11
3.83243e-10
8.46836e-12
2.93673e-10
4.83845e-12
2.10445e-10
2.90193e-12
1.50922e-10
1.495e-12
9.2422e-11
6.26405e-11
6.64637e-13
5.21082e-10
-1.28111e-10
1.03334e-09
4.95915e-10
-5.69824e-14
2.02944e-09
-6.86777e-14
1.05398e-14
-1.64146e-14
8.07096e-15
5.9074e-15
-2.15061e-16
2.37439e-14
-4.95826e-16
6.13822e-14
7.76242e-15
-5.57983e-11
-4.3057e-15
-6.39045e-10
-9.54796e-14
2.18017e-09
-6.38923e-12
6.28099e-09
-1.59887e-08
7.44183e-09
-1.15413e-08
3.61082e-09
1.14099e-08
-9.22916e-11
1.53448e-08
-6.63456e-10
5.46222e-09
-1.66567e-10
1.24065e-09
7.1058e-11
6.16782e-10
9.9548e-11
8.96454e-10
8.95208e-11
8.23463e-10
6.78752e-11
8.0478e-10
5.52103e-11
6.6987e-10
3.86477e-11
6.0088e-10
2.8837e-11
4.83085e-10
1.81627e-11
3.93917e-10
1.2242e-11
2.99594e-10
6.84348e-12
2.15844e-10
4.18464e-12
1.53581e-10
2.11054e-12
9.44963e-11
1.18578e-12
6.35656e-11
1.79188e-12
2.23227e-13
1.86678e-12
-7.20676e-14
1.86945e-12
-4.82042e-15
1.39587e-12
4.74634e-13
1.07804e-12
3.17338e-13
9.56982e-13
1.21145e-13
8.06646e-13
1.50447e-13
6.79282e-13
1.27257e-13
4.81007e-13
1.98404e-13
4.01886e-13
7.89903e-14
3.73765e-13
2.82089e-14
2.16392e-13
1.57208e-13
8.63244e-14
1.30166e-13
1.57738e-14
7.03832e-14
-6.61243e-14
8.19854e-14
-8.01743e-14
1.39346e-14
-8.846e-14
8.33108e-15
-5.77261e-14
-3.07852e-14
2.49093e-14
-8.26271e-14
1.29815e-14
1.19185e-14
9.87872e-15
3.09543e-15
1.41018e-14
-4.21446e-15
-1.13876e-14
2.54818e-14
-3.68512e-14
2.54758e-14
-6.54988e-14
2.86441e-14
-9.49547e-14
2.94678e-14
-1.37382e-13
4.24263e-14
-4.09159e-14
-9.64543e-14
1.18968e-13
-1.59884e-13
1.18979e-13
2.43082e-12
6.67961e-13
2.32525e-12
3.72759e-14
1.82138e-12
4.96558e-13
1.12597e-12
1.17111e-12
9.49217e-13
4.93747e-13
7.61344e-13
3.08991e-13
6.08299e-13
3.03721e-13
5.04274e-13
2.31059e-13
3.98653e-13
3.04226e-13
3.78932e-13
9.84345e-14
3.38045e-13
6.927e-14
1.56689e-13
3.38249e-13
9.08884e-14
1.96143e-13
1.10205e-13
5.07973e-14
8.96612e-14
1.02654e-13
7.09903e-14
3.24478e-14
5.90013e-14
2.03705e-14
4.34138e-14
-1.52545e-14
4.54753e-14
-8.46883e-14
5.43243e-14
3.0695e-15
3.84602e-14
1.8945e-14
3.24682e-14
1.79759e-15
3.38578e-14
2.40819e-14
4.06629e-14
1.86932e-14
2.89774e-14
4.03254e-14
2.35322e-14
3.49361e-14
2.00453e-14
4.59123e-14
2.11027e-15
-7.84975e-14
-1.32141e-15
-1.56448e-13
1.17667e-13
3.13823e-12
1.46421e-12
1.48399e-12
1.69514e-12
8.87018e-13
1.09121e-12
9.7369e-13
1.0854e-12
9.25716e-13
5.41424e-13
7.28312e-13
5.06357e-13
5.83233e-13
4.49021e-13
5.34375e-13
2.79704e-13
4.77096e-13
3.61699e-13
2.7047e-13
3.04792e-13
1.09244e-13
2.30668e-13
1.39425e-13
3.07765e-13
1.50743e-13
1.84996e-13
1.31175e-13
7.01104e-14
1.10157e-13
1.2379e-13
7.98175e-14
6.26404e-14
9.30998e-14
7.13383e-15
7.04326e-14
7.36107e-15
-8.3549e-15
-5.90212e-15
1.07558e-14
-1.604e-14
4.49966e-14
-1.53102e-14
4.10991e-14
5.71452e-15
6.4528e-14
6.43045e-16
8.54727e-14
-2.22999e-15
3.71434e-14
8.86506e-14
3.93295e-14
3.27721e-14
3.46729e-14
5.05679e-14
-4.84978e-14
4.69377e-15
-5.87296e-14
-1.46213e-13
5.89467e-14
2.4823e-12
2.06902e-12
1.8346e-12
2.34629e-12
1.48753e-12
1.4361e-12
1.20629e-12
1.36753e-12
9.77991e-13
7.69454e-13
7.43958e-13
7.40348e-13
5.89093e-13
6.04097e-13
4.73241e-13
3.95351e-13
3.86718e-13
4.48409e-13
2.73986e-13
4.17265e-13
1.94831e-13
3.09991e-13
1.67206e-13
3.35098e-13
1.50626e-13
2.01739e-13
1.44558e-13
7.59365e-14
1.13409e-13
1.55048e-13
9.44708e-14
8.14412e-14
8.45823e-14
1.70632e-14
6.26013e-14
2.92949e-14
4.72933e-14
9.40309e-15
4.64338e-14
-1.51784e-14
4.54959e-14
-1.43863e-14
4.08723e-14
1.03568e-14
3.7233e-14
4.27301e-15
3.72157e-14
-2.19209e-15
3.54785e-14
9.03839e-14
3.63047e-14
3.19672e-14
2.94757e-14
5.73962e-14
6.61074e-15
2.75781e-14
-4.19969e-15
-1.35398e-13
5.47552e-14
2.40847e-12
2.64036e-12
1.87557e-12
2.88251e-12
1.54694e-12
1.76268e-12
1.21962e-12
1.69567e-12
9.63359e-13
1.02547e-12
7.35971e-13
9.67694e-13
5.90084e-13
7.50183e-13
4.54475e-13
5.30766e-13
3.65783e-13
5.37281e-13
2.80628e-13
5.02169e-13
2.05912e-13
3.84871e-13
1.77088e-13
3.6364e-13
1.71147e-13
2.07836e-13
1.42091e-13
1.04762e-13
1.05476e-13
1.91764e-13
8.91456e-14
9.76421e-14
6.91803e-14
3.70647e-14
4.85276e-14
4.99042e-14
4.15139e-14
1.64128e-14
4.23326e-14
-1.59943e-14
3.85874e-14
-1.06548e-14
3.91118e-14
9.85037e-15
3.68692e-14
6.50687e-15
3.46459e-14
5.11523e-17
3.95072e-14
8.5519e-14
3.98505e-14
3.16444e-14
3.93783e-14
5.7868e-14
3.13559e-14
3.56188e-14
-2.95144e-15
-1.01085e-13
5.18112e-14
2.39904e-12
3.19941e-12
1.85857e-12
3.42616e-12
1.51809e-12
2.10121e-12
1.20848e-12
2.00605e-12
9.47182e-13
1.28655e-12
7.27045e-13
1.18779e-12
5.86464e-13
8.90954e-13
4.28905e-13
6.88141e-13
3.44042e-13
6.22317e-13
2.72886e-13
5.73082e-13
2.13611e-13
4.44304e-13
1.98388e-13
3.7859e-13
1.78654e-13
2.27718e-13
1.27286e-13
1.5591e-13
1.00582e-13
2.18563e-13
9.15065e-14
1.06596e-13
7.56176e-14
5.29856e-14
6.64312e-14
5.90504e-14
5.58389e-14
2.7e-14
4.96494e-14
-9.80157e-15
4.4162e-14
-5.18068e-15
4.11923e-14
1.28375e-14
3.52128e-14
1.24783e-14
2.60308e-14
9.25248e-15
2.92722e-14
8.22744e-14
2.97921e-14
3.11445e-14
3.9229e-14
4.84315e-14
3.19193e-14
4.29456e-14
-1.6859e-14
-5.23009e-14
3.49589e-14
2.3742e-12
3.74235e-12
1.85362e-12
3.94981e-12
1.49205e-12
2.46091e-12
1.17361e-12
2.32523e-12
9.20309e-13
1.53963e-12
7.18934e-13
1.38913e-12
5.82723e-13
1.02734e-12
4.04944e-13
8.65744e-13
3.23553e-13
7.03875e-13
2.65648e-13
6.3075e-13
2.22783e-13
4.87322e-13
2.06892e-13
3.94218e-13
1.74489e-13
2.60263e-13
1.18214e-13
2.11974e-13
9.41971e-14
2.42668e-13
8.01479e-14
1.2053e-13
5.6817e-14
7.63446e-14
5.32136e-14
6.26167e-14
4.73629e-14
3.28445e-14
3.9067e-14
-1.50192e-15
3.29695e-14
9.04008e-16
3.51136e-14
1.07105e-14
3.80038e-14
9.58072e-15
3.83408e-14
8.93429e-15
4.49215e-14
7.56912e-14
4.48741e-14
3.12113e-14
6.53833e-14
2.79233e-14
6.07739e-14
4.75712e-14
-3.23287e-14
4.08089e-14
2.63607e-15
2.3467e-12
4.27364e-12
1.83089e-12
4.46858e-12
1.45214e-12
2.83788e-12
1.13513e-12
2.64295e-12
8.94195e-13
1.78036e-12
6.94404e-13
1.5889e-12
5.68022e-13
1.15389e-12
4.24655e-13
1.00894e-12
3.29399e-13
7.99292e-13
2.55791e-13
7.04129e-13
2.38788e-13
5.04472e-13
2.09501e-13
4.23251e-13
1.59756e-13
3.10141e-13
1.17585e-13
2.53944e-13
1.02563e-13
2.57771e-13
9.1839e-14
1.31145e-13
7.5342e-14
9.28658e-14
7.29148e-14
6.50094e-14
6.33559e-14
4.23965e-14
5.17339e-14
1.01242e-14
4.22145e-14
1.04112e-14
3.7708e-14
1.52335e-14
3.60326e-14
1.12495e-14
3.09127e-14
1.40725e-14
4.03094e-14
6.62925e-14
3.87678e-14
3.27716e-14
3.76977e-14
2.89954e-14
4.28865e-14
4.23974e-14
-2.41405e-15
8.61179e-14
2.27099e-16
2.30402e-12
4.79607e-12
1.80236e-12
4.97309e-12
1.42009e-12
3.21843e-12
1.10423e-12
2.95948e-12
8.72547e-13
2.01183e-12
6.76379e-13
1.78505e-12
5.56097e-13
1.27433e-12
4.2807e-13
1.13681e-12
3.37657e-13
8.8986e-13
2.64867e-13
7.76696e-13
2.30662e-13
5.38819e-13
1.92062e-13
4.61605e-13
1.46531e-13
3.55797e-13
1.11695e-13
2.88588e-13
9.2691e-14
2.76848e-13
7.8481e-14
1.45253e-13
5.81455e-14
1.13222e-13
5.13579e-14
7.1765e-14
4.54013e-14
4.83454e-14
3.78032e-14
1.77267e-14
3.17831e-14
1.64197e-14
3.27211e-14
1.43117e-14
3.74975e-14
6.46724e-15
4.30183e-14
8.56974e-15
6.04602e-14
4.88493e-14
5.816e-14
3.509e-14
5.59879e-14
3.11704e-14
8.25809e-14
1.58182e-14
2.34721e-14
1.45237e-13
2.37034e-14
2.25123e-12
5.31183e-12
1.76461e-12
5.46246e-12
1.38773e-12
3.59366e-12
1.07607e-12
3.2718e-12
8.55334e-13
2.23236e-12
6.63093e-13
1.97728e-12
5.44475e-13
1.39309e-12
4.21771e-13
1.25937e-12
3.37944e-13
9.73836e-13
2.6825e-13
8.46174e-13
2.20426e-13
5.86778e-13
1.78435e-13
5.0336e-13
1.38287e-13
3.96062e-13
1.13761e-13
3.12932e-13
9.88311e-14
2.91844e-13
8.97085e-14
1.54279e-13
7.90875e-14
1.2386e-13
7.30324e-14
7.77905e-14
6.45626e-14
5.68069e-14
5.50635e-14
2.72305e-14
4.61767e-14
2.52955e-14
3.92376e-14
2.12665e-14
3.55605e-14
1.01393e-14
3.29693e-14
1.11785e-14
4.02487e-14
4.15694e-14
3.67167e-14
3.86396e-14
2.63886e-14
4.15025e-14
3.04066e-14
1.18127e-14
9.76666e-15
1.65888e-13
3.34734e-14
2.19088e-12
5.82145e-12
1.71921e-12
5.93678e-12
1.35115e-12
3.96012e-12
1.04583e-12
3.57775e-12
8.43792e-13
2.43419e-12
6.56555e-13