/*--------------------------------*- C++ -*----------------------------------*\
| =========                 |                                                 |
| \\      /  F ield         | OpenFOAM: The Open Source CFD Toolbox           |
|  \\    /   O peration     | Version:  2.4.0                                 |
|   \\  /    A nd           | Web:      www.OpenFOAM.org                      |
|    \\/     M anipulation  |                                                 |
\*---------------------------------------------------------------------------*/
FoamFile
{
    version     2.0;
    format      ascii;
    class       volVectorField;
    location    "0.017";
    object      U;
}
// * * * * * * * * * * * * * * * * * * * * * * * * * * * * * * * * * * * * * //

dimensions      [0 1 -1 0 0 0 0];

internalField   nonuniform List<vector> 
3600
(
(-3.2042e-05 7.50175e-05 6.48493e-11)
(-0.000102123 0.000111872 7.45062e-11)
(-0.000207203 0.000126242 3.96558e-11)
(-0.000309846 0.000122078 2.53718e-11)
(-0.000412658 0.000113829 1.80583e-11)
(-0.000505976 0.000103277 1.35396e-11)
(-0.000582916 8.8205e-05 1.04319e-11)
(-0.000630351 6.904e-05 8.15334e-12)
(-0.000629586 4.54276e-05 6.41002e-12)
(-0.00059691 2.75685e-05 5.02453e-12)
(-0.000465246 -3.2862e-06 3.91503e-12)
(-0.000333132 -7.35851e-06 2.99612e-12)
(-0.000138289 -2.69729e-05 2.24692e-12)
(5.94853e-05 -2.37852e-05 1.6396e-12)
(0.000196342 -2.25692e-05 1.1572e-12)
(0.000303516 -1.46567e-05 7.8708e-13)
(0.000336996 -8.94735e-06 5.15697e-13)
(0.000330173 -4.04967e-06 3.25453e-13)
(0.00029256 -1.1232e-06 1.978e-13)
(0.000241425 4.08299e-07 1.15995e-13)
(0.000188166 9.9397e-07 6.56738e-14)
(0.000139407 1.1123e-06 3.58879e-14)
(9.90532e-05 9.47931e-07 1.89521e-14)
(6.72229e-05 7.67611e-07 9.61628e-15)
(4.37671e-05 5.37162e-07 4.69262e-15)
(2.70733e-05 3.79908e-07 2.19301e-15)
(1.59288e-05 2.24e-07 9.72979e-16)
(8.91953e-06 1.44352e-07 4.16032e-16)
(4.58936e-06 7.64947e-08 1.59545e-16)
(2.21318e-06 3.68649e-08 6.46431e-17)
(-5.04886e-05 0.000217039 7.25511e-11)
(-0.000114758 0.000272253 9.42214e-11)
(-0.000191135 0.000289643 5.36434e-11)
(-0.000262593 0.000275116 3.53543e-11)
(-0.000335914 0.000249168 2.54393e-11)
(-0.000392754 0.000214465 1.91975e-11)
(-0.000427776 0.000169281 1.48424e-11)
(-0.000431624 0.000115146 1.16044e-11)
(-0.000383567 5.1694e-05 9.0999e-12)
(-0.000314761 5.69085e-06 7.09521e-12)
(-0.000143332 -6.90556e-05 5.4863e-12)
(1.28046e-05 -7.18288e-05 4.1628e-12)
(0.000216663 -0.000115689 3.09162e-12)
(0.000411869 -8.74505e-05 2.23411e-12)
(0.000524377 -7.61658e-05 1.56244e-12)
(0.000595089 -4.22217e-05 1.05419e-12)
(0.000582863 -2.06514e-05 6.85995e-13)
(0.000528455 -3.82016e-06 4.30407e-13)
(0.000445407 4.88174e-06 2.60292e-13)
(0.000354601 8.39162e-06 1.52002e-13)
(0.000268639 8.53283e-06 8.57034e-14)
(0.00019452 7.40934e-06 4.6663e-14)
(0.000135409 5.62925e-06 2.45528e-14)
(9.02415e-05 4.12259e-06 1.24123e-14)
(5.78195e-05 2.71971e-06 6.04004e-15)
(3.5308e-05 1.79764e-06 2.81559e-15)
(2.05268e-05 1.03622e-06 1.24752e-15)
(1.13938e-05 6.30675e-07 5.33059e-16)
(5.80135e-06 3.19915e-07 2.04624e-16)
(3.11333e-06 2.07543e-07 8.8177e-17)
(-5.34021e-05 0.000436958 7.62617e-11)
(-0.000121331 0.000463369 9.94222e-11)
(-0.00019988 0.000456374 5.66279e-11)
(-0.000270765 0.000426166 3.73704e-11)
(-0.000344554 0.000379932 2.68786e-11)
(-0.00040321 0.000318696 2.02386e-11)
(-0.000439701 0.000240445 1.56057e-11)
(-0.000444749 0.000152389 1.21666e-11)
(-0.000387913 4.66326e-05 9.51677e-12)
(-0.000317708 -2.74541e-05 7.39885e-12)
(-0.00012843 -0.000143752 5.70772e-12)
(3.64866e-05 -0.000146172 4.31775e-12)
(0.000249391 -0.000212759 3.19622e-12)
(0.000453518 -0.000151912 2.30212e-12)
(0.000562489 -0.000132127 1.60406e-12)
(0.000630148 -6.85193e-05 1.07866e-12)
(0.000609659 -3.10461e-05 6.99694e-13)
(0.000548485 -2.12814e-06 4.37842e-13)
(0.000459318 1.22042e-05 2.64229e-13)
(0.000363957 1.7382e-05 1.54052e-13)
(0.000274793 1.67911e-05 8.67593e-14)
(0.000198406 1.41664e-05 4.7195e-14)
(0.000137811 1.05888e-05 2.48149e-14)
(9.17093e-05 7.66039e-06 1.25398e-14)
(5.8641e-05 5.00375e-06 6.09811e-15)
(3.57965e-05 3.28205e-06 2.84292e-15)
(2.08015e-05 1.88135e-06 1.25986e-15)
(1.15326e-05 1.14135e-06 5.38223e-16)
(5.81029e-06 5.62256e-07 2.05789e-16)
(3.26852e-06 3.1928e-07 9.08766e-17)
(-4.69604e-05 0.000610618 8.90271e-11)
(-0.000119426 0.000647446 1.08259e-10)
(-0.000211639 0.000632105 6.04917e-11)
(-0.000297171 0.000588653 3.95222e-11)
(-0.000384462 0.000522775 2.82775e-11)
(-0.000455527 0.000434897 2.12024e-11)
(-0.000498665 0.000323693 1.62988e-11)
(-0.000509857 0.000197405 1.26677e-11)
(-0.000442157 4.38721e-05 9.88221e-12)
(-0.000370612 -5.86391e-05 7.65746e-12)
(-0.000155471 -0.000224374 5.89166e-12)
(2.35388e-05 -0.000223347 4.44015e-12)
(0.000253142 -0.000315082 3.27326e-12)
(0.000473451 -0.00021867 2.34765e-12)
(0.000580747 -0.000189201 1.62755e-12)
(0.000649238 -9.42562e-05 1.08954e-12)
(0.000621222 -4.10146e-05 7.03593e-13)
(0.000555462 1.5428e-07 4.38666e-13)
(0.000462422 1.98417e-05 2.63962e-13)
(0.000364927 2.65416e-05 1.5358e-13)
(0.000274768 2.51e-05 8.63723e-14)
(0.000198071 2.09656e-05 4.69418e-14)
(0.000137447 1.55635e-05 2.46706e-14)
(9.13871e-05 1.12061e-05 1.24613e-14)
(5.84425e-05 7.29092e-06 6.0607e-15)
(3.56415e-05 4.76424e-06 2.82439e-15)
(2.06906e-05 2.72602e-06 1.25122e-15)
(1.14768e-05 1.65e-06 5.34621e-16)
(5.81686e-06 8.07722e-07 2.0499e-16)
(3.0951e-06 4.21684e-07 8.81935e-17)
(-6.03714e-05 0.000809543 8.79652e-11)
(-0.000147038 0.000860266 1.14149e-10)
(-0.000255513 0.000840231 6.40576e-11)
(-0.000358106 0.00078192 4.18358e-11)
(-0.000461814 0.000693511 2.99001e-11)
(-0.000545057 0.000573781 2.23928e-11)
(-0.000595034 0.000420169 1.71714e-11)
(-0.000612511 0.000252688 1.33122e-11)
(-0.000524939 3.91624e-05 1.03619e-11)
(-0.00044978 -9.15528e-05 7.99565e-12)
(-0.00019754 -0.00031546 6.13283e-12)
(2.1333e-06 -0.000306515 4.60002e-12)
(0.000255909 -0.00042567 3.37327e-12)
(0.000498447 -0.000288382 2.40607e-12)
(0.000603054 -0.000247847 1.65693e-12)
(0.000672755 -0.000118878 1.10258e-12)
(0.000634618 -5.01092e-05 7.07793e-13)
(0.00056321 3.52124e-06 4.39156e-13)
(0.000465399 2.80901e-05 2.6327e-13)
(0.000365419 3.59898e-05 1.52765e-13)
(0.000274213 3.35183e-05 8.57583e-14)
(0.000197258 2.77856e-05 4.65541e-14)
(0.0001367 2.05327e-05 2.44495e-14)
(9.08143e-05 1.47364e-05 1.23443e-14)
(5.80432e-05 9.56503e-06 6.00243e-15)
(3.53867e-05 6.23932e-06 2.79686e-15)
(2.0531e-05 3.56518e-06 1.23882e-15)
(1.13888e-05 2.15424e-06 5.29328e-16)
(5.77183e-06 1.05455e-06 2.03013e-16)
(3.06053e-06 5.78601e-07 8.71167e-17)
(-7.69375e-05 0.00106938 8.68344e-11)
(-0.000182624 0.00112251 1.22496e-10)
(-0.000314103 0.00109183 6.89118e-11)
(-0.000438873 0.00101555 4.49615e-11)
(-0.000563072 0.000897895 3.20891e-11)
(-0.000666282 0.000740861 2.39572e-11)
(-0.00072098 0.000535933 1.83288e-11)
(-0.000748587 0.00032147 1.4158e-11)
(-0.000634453 3.30528e-05 1.09839e-11)
(-0.000552472 -0.000125706 8.43395e-12)
(-0.000251616 -0.000420617 6.44416e-12)
(-2.32964e-05 -0.000398085 4.80551e-12)
(0.000261634 -0.000547238 3.50092e-12)
(0.000532622 -0.000362044 2.48017e-12)
(0.00063251 -0.000308204 1.69374e-12)
(0.000703099 -0.000141992 1.11867e-12)
(0.000651363 -5.80298e-05 7.12807e-13)
(0.000572795 8.09445e-06 4.39623e-13)
(0.000468918 3.70223e-05 2.62329e-13)
(0.000365882 4.57826e-05 1.51711e-13)
(0.000273417 4.20555e-05 8.4975e-14)
(0.000196176 3.46353e-05 4.60626e-14)
(0.000135725 2.54938e-05 2.41699e-14)
(9.00759e-05 1.82512e-05 1.21968e-14)
(5.75278e-05 1.18243e-05 5.92884e-15)
(3.50609e-05 7.70395e-06 2.76219e-15)
(2.03297e-05 4.39765e-06 1.22328e-15)
(1.12772e-05 2.65428e-06 5.22683e-16)
(5.70953e-06 1.29897e-06 2.00445e-16)
(3.03445e-06 7.08227e-07 8.60386e-17)
(-9.69299e-05 0.00139058 8.76766e-11)
(-0.00022825 0.0014443 1.33823e-10)
(-0.00038767 0.00140078 7.54575e-11)
(-0.000543745 0.00130155 4.90519e-11)
(-0.000696702 0.00114798 3.48841e-11)
(-0.000823431 0.000945424 2.59752e-11)
(-0.000884161 0.000672627 1.97964e-11)
(-0.000927248 0.000407071 1.52184e-11)
(-0.000773893 2.32091e-05 1.17672e-11)
(-0.000682392 -0.000162116 8.98056e-12)
(-0.000319048 -0.000544387 6.83102e-12)
(-5.19601e-05 -0.000500963 5.0597e-12)
(0.000271528 -0.000682612 3.65771e-12)
(0.000577877 -0.000440402 2.57054e-12)
(0.000670142 -0.000370303 1.73795e-12)
(0.000740788 -0.000163192 1.13769e-12)
(0.000671511 -6.42952e-05 7.18512e-13)
(0.000584211 1.43254e-05 4.40003e-13)
(0.000472896 4.68066e-05 2.61111e-13)
(0.000366279 5.59931e-05 1.50409e-13)
(0.000272365 5.07355e-05 8.40213e-14)
(0.000194823 4.15187e-05 4.54679e-14)
(0.000134525 3.04429e-05 2.38328e-14)
(8.91752e-05 2.17464e-05 1.20193e-14)
(5.69015e-05 1.40649e-05 5.8404e-15)
(3.46656e-05 9.15566e-06 2.72054e-15)
(2.00866e-05 5.22182e-06 1.20464e-15)
(1.11427e-05 3.14919e-06 5.14714e-16)
(5.63401e-06 1.54064e-06 1.97355e-16)
(3.0034e-06 8.46133e-07 8.4762e-17)
(-0.000124389 0.00180218 8.77799e-11)
(-0.000287895 0.0018454 1.48322e-10)
(-0.000484984 0.00178402 8.362e-11)
(-0.00068018 0.00165768 5.42537e-11)
(-0.000867526 0.00145767 3.84402e-11)
(-0.00103196 0.001203 2.84704e-11)
(-0.00109079 0.000837701 2.16285e-11)
(-0.00115513 0.000516734 1.6529e-11)
(-0.000950442 6.83033e-06 1.27257e-11)
(-0.000843601 -0.000202048 9.64541e-12)
(-0.000402294 -0.000692563 7.29927e-12)
(-8.26367e-05 -0.000618848 5.36638e-12)
(0.00028706 -0.00083496 3.84514e-12)
(0.000636462 -0.000525027 2.67765e-12)
(0.00071704 -0.000433995 1.7894e-12)
(0.000786317 -0.000181958 1.15939e-12)
(0.000695025 -6.83327e-05 7.24711e-13)
(0.000597336 2.25619e-05 4.40197e-13)
(0.000477196 5.75693e-05 2.59571e-13)
(0.000366544 6.66861e-05 1.48844e-13)
(0.000271028 5.95779e-05 8.28929e-14)
(0.000193187 4.8438e-05 4.47692e-14)
(0.000133099 3.5376e-05 2.34385e-14)
(8.81121e-05 2.52174e-05 1.18122e-14)
(5.6165e-05 1.62829e-05 5.7373e-15)
(3.42013e-05 1.05921e-05 2.67202e-15)
(1.98019e-05 6.03618e-06 1.18294e-15)
(1.09855e-05 3.63804e-06 5.05442e-16)
(5.54557e-06 1.77908e-06 1.93756e-16)
(2.9661e-06 9.80166e-07 8.32661e-17)
(-0.000152039 0.0023216 9.16458e-11)
(-0.000361525 0.00234944 1.67445e-10)
(-0.000607186 0.00226355 9.42044e-11)
(-0.000856526 0.00210875 6.0829e-11)
(-0.00108498 0.00183882 4.28894e-11)
(-0.00130094 0.00152644 3.15868e-11)
(-0.00135394 0.0010358 2.38698e-11)
(-0.00144815 0.000654093 1.81034e-11)
(-0.00117204 -1.90359e-05 1.38802e-11)
(-0.00104159 -0.000247609 1.04402e-11)
(-0.000503925 -0.000871816 7.85667e-12)
(-0.000113639 -0.000756333 5.73008e-12)
(0.000310072 -0.00100778 4.06492e-12)
(0.000711223 -0.000615967 2.80205e-12)
(0.00077474 -0.000498755 1.8479e-12)
(0.000840204 -0.000197734 1.18342e-12)
(0.000721833 -6.94378e-05 7.31171e-13)
(0.000612023 3.31711e-05 4.4009e-13)
(0.000481652 6.94633e-05 2.57657e-13)
(0.000366599 7.79193e-05 1.46998e-13)
(0.000269367 6.85973e-05 8.15848e-14)
(0.000191255 5.5392e-05 4.39658e-14)
(0.000131442 4.02878e-05 2.29872e-14)
(8.68869e-05 2.86592e-05 1.15757e-14)
(5.53189e-05 1.84741e-05 5.61976e-15)
(3.36687e-05 1.20112e-05 2.61673e-15)
(1.94758e-05 6.83917e-06 1.15823e-15)
(1.08057e-05 4.11983e-06 4.94889e-16)
(5.44449e-06 2.01381e-06 1.89659e-16)
(2.92183e-06 1.1123e-06 8.15451e-17)
(-0.000186952 0.00295714 9.66984e-11)
(-0.000456101 0.0029805 1.92939e-10)
(-0.000761065 0.0028633 1.08168e-10)
(-0.00109062 0.00267754 6.91055e-11)
(-0.00136158 0.00231199 4.84562e-11)
(-0.00165024 0.00193991 3.54068e-11)
(-0.0016854 0.00126825 2.6602e-11)
(-0.0018176 0.000829797 1.99946e-11)
(-0.00144894 -6.22269e-05 1.52558e-11)
(-0.00128226 -0.000300735 1.13792e-11)
(-0.000627362 -0.00109116 8.51147e-12)
(-0.000142405 -0.000919107 6.1564e-12)
(0.000343731 -0.00120509 4.31938e-12)
(0.000805736 -0.000715539 2.94426e-12)
(0.000844512 -0.000563944 1.91297e-12)
(0.000903003 -0.000209519 1.2094e-12)
(0.000751843 -6.67915e-05 7.37618e-13)
(0.000628025 4.64801e-05 4.3954e-13)
(0.000486074 8.26506e-05 2.55311e-13)
(0.00036635 8.97424e-05 1.4485e-13)
(0.000267337 7.78037e-05 8.00915e-14)
(0.00018901 6.23774e-05 4.30569e-14)
(0.00012955 4.51723e-05 2.24791e-14)
(8.54999e-05 3.20666e-05 1.13103e-14)
(5.43642e-05 2.06338e-05 5.48804e-15)
(3.30687e-05 1.3411e-05 2.55481e-15)
(1.91087e-05 7.62928e-06 1.13056e-15)
(1.06037e-05 4.59356e-06 4.83083e-16)
(5.33104e-06 2.24443e-06 1.85075e-16)
(2.87018e-06 1.24198e-06 7.95969e-17)
(-0.000229914 0.00378611 1.05118e-10)
(-0.000575218 0.00380399 2.25993e-10)
(-0.000944 0.00362886 1.26582e-10)
(-0.00138714 0.00341039 8.00473e-11)
(-0.00170137 0.00290291 5.56307e-11)
(-0.00210369 0.00246449 4.00746e-11)
(-0.00210681 0.00155073 2.98948e-11)
(-0.00228586 0.00104979 2.22333e-11)
(-0.00179569 -0.000127894 1.68776e-11)
(-0.00157179 -0.000366646 1.24805e-11)
(-0.000776799 -0.00136065 9.27392e-12)
(-0.000165273 -0.00111441 6.65227e-12)
(0.000391126 -0.00143129 4.60978e-12)
(0.000924416 -0.000823765 3.10481e-12)
(0.000928896 -0.000628249 1.98472e-12)
(0.00097529 -0.000216195 1.23684e-12)
(0.000784826 -5.96982e-05 7.43717e-13)
(0.000645047 6.28219e-05 4.38389e-13)
(0.000490242 9.72833e-05 2.52469e-13)
(0.000365688 0.000102194 1.42378e-13)
(0.000264891 8.72015e-05 7.84069e-14)
(0.000186437 6.9388e-05 4.20419e-14)
(0.000127418 5.00223e-05 2.19148e-14)
(8.39508e-05 3.54344e-05 1.10165e-14)
(5.3302e-05 2.27577e-05 5.34239e-15)
(3.24023e-05 1.47892e-05 2.4864e-15)
(1.87011e-05 8.40508e-06 1.1e-15)
(1.03799e-05 5.05823e-06 4.70051e-16)
(5.20542e-06 2.47051e-06 1.80014e-16)
(2.81121e-06 1.36897e-06 7.74278e-17)
(-0.000287398 0.00472341 1.15137e-10)
(-0.000749705 0.00474937 2.69962e-10)
(-0.00117048 0.00455907 1.51536e-10)
(-0.0017799 0.00432589 9.41256e-11)
(-0.00213823 0.00362964 6.46481e-11)
(-0.00269083 0.00313364 4.58348e-11)
(-0.00264188 0.00188271 3.38715e-11)
(-0.0028769 0.0013247 2.4871e-11)
(-0.00222854 -0.000229608 1.87809e-11)
(-0.00191862 -0.000450328 1.37612e-11)
(-0.00095667 -0.00169342 1.01563e-11)
(-0.000177499 -0.0013512 7.22587e-12)
(0.000458126 -0.00169133 4.94073e-12)
(0.00107274 -0.000941293 3.28415e-12)
(0.0010295 -0.000689806 2.0616e-12)
(0.00105745 -0.000216548 1.2651e-12)
(0.000820499 -4.69799e-05 7.49092e-13)
(0.000662722 8.25228e-05 4.36464e-13)
(0.000493897 0.000113504 2.49059e-13)
(0.000364492 0.000115296 1.3956e-13)
(0.000261975 9.67877e-05 7.65254e-14)
(0.00018352 7.64141e-05 4.09202e-14)
(0.000125041 5.48289e-05 2.12946e-14)
(8.22387e-05 3.87573e-05 1.06946e-14)
(5.21334e-05 2.48428e-05 5.18313e-15)
(3.16709e-05 1.61429e-05 2.41167e-15)
(1.82533e-05 9.16516e-06 1.06661e-15)
(1.01345e-05 5.51284e-06 4.55827e-16)
(5.06789e-06 2.69167e-06 1.74489e-16)
(2.7452e-06 1.49324e-06 7.50469e-17)
(-0.000310464 0.0062056 1.51783e-10)
(-0.000864682 0.00622854 3.36075e-10)
(-0.00136378 0.00578123 1.88144e-10)
(-0.00226465 0.00563955 1.13122e-10)
(-0.00267059 0.00455494 7.63547e-11)
(-0.00345533 0.00401884 5.28679e-11)
(-0.00332729 0.00227845 3.86178e-11)
(-0.00362083 0.00167072 2.79563e-11)
(-0.00277063 -0.00038093 2.09916e-11)
(-0.00232912 -0.000560939 1.52489e-11)
(-0.00117298 -0.00210517 1.11713e-11)
(-0.000172129 -0.00164119 7.88723e-12)
(0.000550917 -0.001991 5.31431e-12)
(0.00125739 -0.00106963 3.48261e-12)
(0.0011494 -0.000746067 2.14321e-12)
(0.00114987 -0.000208513 1.29348e-12)
(0.000858409 -2.75343e-05 7.53307e-13)
(0.000680512 0.000105905 4.33556e-13)
(0.000496748 0.00013143 2.45004e-13)
(0.000362625 0.000129052 1.36372e-13)
(0.000258537 0.000106552 7.44412e-14)
(0.000180244 8.34429e-05 3.96916e-14)
(0.000122415 5.95813e-05 2.06192e-14)
(8.03639e-05 4.20306e-05 1.03453e-14)
(5.08596e-05 2.68866e-05 5.01061e-15)
(3.08755e-05 1.74684e-05 2.33081e-15)
(1.77663e-05 9.90815e-06 1.03049e-15)
(9.86803e-06 5.95639e-06 4.40445e-16)
(4.91873e-06 2.90749e-06 1.68514e-16)
(2.67246e-06 1.61441e-06 7.24635e-17)
(-0.000401692 0.00715688 1.69396e-10)
(-0.00142104 0.00726927 4.04144e-10)
(-0.0016957 0.00729058 2.38582e-10)
(-0.00296814 0.00695644 1.38843e-10)
(-0.00344315 0.00578074 9.13502e-11)
(-0.00445809 0.00504705 6.14132e-11)
(-0.00421994 0.00274174 4.42304e-11)
(-0.00455941 0.0020748 3.15435e-11)
(-0.00345257 -0.000603928 2.35449e-11)
(-0.0028132 -0.000711423 1.69704e-11)
(-0.00143116 -0.0026147 1.23361e-11)
(-0.000140264 -0.00199933 8.64796e-12)
(0.000679291 -0.00233569 5.73422e-12)
(0.00148671 -0.0012074 3.70041e-12)
(0.00129129 -0.00079339 2.22842e-12)
(0.00125255 -0.00019009 1.32104e-12)
(0.000897842 8.96301e-08 7.55855e-13)
(0.00069782 0.000133265 4.2945e-13)
(0.000498472 0.000151148 2.40223e-13)
(0.000359942 0.000143443 1.32789e-13)
(0.000254522 0.000116472 7.21492e-14)
(0.000176592 9.04594e-05 3.83563e-14)
(0.000119537 6.42691e-05 1.98894e-14)
(7.83268e-05 4.52489e-05 9.96922e-15)
(4.94817e-05 2.88865e-05 4.82519e-15)
(3.00175e-05 1.87621e-05 2.244e-15)
(1.72408e-05 1.06328e-05 9.91724e-16)
(9.58081e-06 6.3879e-06 4.23944e-16)
(4.7582e-06 3.11759e-06 1.62102e-16)
(2.59352e-06 1.73238e-06 6.96902e-17)
(-0.000229893 0.0103211 3.61153e-10)
(-0.000720529 0.0103872 6.36592e-10)
(-0.00167493 0.0087921 3.0427e-10)
(-0.00365824 0.0097253 2.00721e-10)
(-0.00420822 0.00701443 1.12504e-10)
(-0.00579217 0.00672896 7.19507e-11)
(-0.00532062 0.00323153 5.08921e-11)
(-0.00573807 0.00262336 3.56755e-11)
(-0.00429824 -0.000927603 2.6477e-11)
(-0.00337612 -0.00091777 1.89638e-11)
(-0.00173784 -0.00324374 1.36697e-11)
(-6.92413e-05 -0.00244489 9.52194e-12)
(0.000855656 -0.00273303 6.20444e-12)
(0.00177036 -0.00135461 3.9376e-12)
(0.00145841 -0.000827216 2.31581e-12)
(0.00136525 -0.000158238 1.34668e-12)
(0.000937916 3.72706e-05 7.56175e-13)
(0.000713821 0.000164861 4.23906e-13)
(0.000498719 0.000172701 2.34637e-13)
(0.000356289 0.000158426 1.28789e-13)
(0.000249876 0.000126517 6.96446e-14)
(0.00017255 9.74454e-05 3.69147e-14)
(0.000116406 6.88848e-05 1.91063e-14)
(7.61288e-05 4.84029e-05 9.56705e-15)
(4.80007e-05 3.08397e-05 4.62725e-15)
(2.90983e-05 2.00208e-05 2.15145e-15)
(1.6678e-05 1.13377e-05 9.50401e-16)
(9.27339e-06 6.80641e-06 4.06365e-16)
(4.58662e-06 3.32157e-06 1.55271e-16)
(2.50903e-06 1.84698e-06 6.6742e-17)
(-0.000555409 0.00876133 2.65677e-10)
(-0.00377854 0.00972899 -9.89814e-10)
(-0.00181398 0.0124335 4.20952e-09)
(-0.00476732 0.0110883 -3.526e-09)
(-0.00571101 0.00974443 1.80587e-10)
(-0.00737839 0.0079826 8.42429e-11)
(-0.00695819 0.00401053 5.82149e-11)
(-0.00719505 0.00310064 4.0348e-11)
(-0.00539386 -0.001379 2.98022e-11)
(-0.00402482 -0.00121396 2.12716e-11)
(-0.00210009 -0.00402305 1.51965e-11)
(5.52472e-05 -0.00300097 1.05247e-11)
(0.0010968 -0.00318902 6.72954e-12)
(0.00212072 -0.00150811 4.19415e-12)
(0.00165432 -0.000841206 2.4036e-12)
(0.00148706 -0.000110052 1.36906e-12)
(0.000977237 8.51601e-05 7.53596e-13)
(0.000727635 0.000200873 4.16675e-13)
(0.000497111 0.000196067 2.28162e-13)
(0.000351516 0.00017393 1.24351e-13)
(0.000244551 0.000136649 6.69241e-14)
(0.000168105 0.000104375 3.53676e-14)
(0.000113022 7.34238e-05 1.8271e-14)
(7.37714e-05 5.14811e-05 9.13963e-15)
(4.64182e-05 3.27433e-05 4.41725e-15)
(2.81193e-05 2.12412e-05 2.05341e-15)
(1.60791e-05 1.20219e-05 9.06635e-16)
(8.94629e-06 7.21095e-06 3.87752e-16)
(4.40434e-06 3.51902e-06 1.48036e-16)
(2.41941e-06 1.95791e-06 6.36299e-17)
(0.00178833 0.0195891 1.72824e-08)
(0.00420992 0.0183525 -5.25301e-09)
(-0.000344903 0.0113113 -3.11054e-07)
(-0.00566088 0.0178619 3.34647e-07)
(-0.00667954 0.0108051 -6.88205e-09)
(-0.0100655 0.0115528 2.51879e-10)
(-0.00863103 0.0043566 6.6528e-11)
(-0.00913975 0.00402966 4.55609e-11)
(-0.00667159 -0.00205348 3.36289e-11)
(-0.00476775 -0.00161524 2.39611e-11)
(-0.00252011 -0.00497673 1.69437e-11)
(0.000255408 -0.00369834 1.16805e-11)
(0.00142453 -0.00371038 7.31506e-12)
(0.00255133 -0.00166239 4.46738e-12)
(0.00188211 -0.000826244 2.48916e-12)
(0.00161638 -4.09389e-05 1.38658e-12)
(0.00101427 0.000145427 7.47418e-13)
(0.00073817 0.000241374 4.07491e-13)
(0.00049325 0.000221149 2.20721e-13)
(0.000345475 0.00018986 1.19456e-13)
(0.000238505 0.000146833 6.39856e-14)
(0.000163244 0.000111213 3.3716e-14)
(0.000109384 7.78802e-05 1.73848e-14)
(7.12564e-05 5.44718e-05 8.68787e-15)
(4.47363e-05 3.45947e-05 4.19564e-15)
(2.7082e-05 2.24201e-05 1.95011e-15)
(1.54454e-05 1.2684e-05 8.60534e-16)
(8.60011e-06 7.60063e-06 3.68152e-16)
(4.21173e-06 3.70956e-06 1.40415e-16)
(2.32493e-06 2.06477e-06 6.0363e-17)
(-0.0043309 -0.00615257 -1.75946e-05)
(-0.0152869 0.00557 5.25781e-06)
(0.00131424 0.0236527 1.10633e-05)
(-0.00584208 0.0184342 -1.65036e-05)
(-0.0102115 0.0175405 5.79212e-07)
(-0.0122167 0.0126268 -1.71394e-08)
(-0.0120152 0.00570957 1.89627e-10)
(-0.0112666 0.00443714 5.10891e-11)
(-0.00849861 -0.0029337 3.78036e-11)
(-0.00557958 -0.00221021 2.71265e-11)
(-0.00301177 -0.00614803 1.89447e-11)
(0.000552605 -0.004582 1.30088e-11)
(0.00186909 -0.00430969 7.96873e-12)
(0.00307972 -0.00181969 4.75629e-12)
(0.00214507 -0.000773086 2.56942e-12)
(0.00175029 5.44413e-05 1.39727e-12)
(0.00104649 0.000219484 7.3682e-13)
(0.000744159 0.000286278 3.96082e-13)
(0.000486724 0.000247783 2.1224e-13)
(0.000338025 0.000206064 1.1409e-13)
(0.000231703 0.000157026 6.08285e-14)
(0.000157954 0.000117918 3.19615e-14)
(0.000105491 8.22474e-05 1.64493e-14)
(6.85862e-05 5.73638e-05 8.21277e-15)
(4.29576e-05 3.63913e-05 3.96294e-15)
(2.59875e-05 2.35541e-05 1.84178e-15)
(1.47781e-05 1.33231e-05 8.1221e-16)
(8.23548e-06 7.97455e-06 3.47616e-16)
(4.0092e-06 3.89279e-06 1.32428e-16)
(2.22557e-06 2.16716e-06 5.69468e-17)
(0.0073038 0.0626345 0.000823336)
(0.0259874 0.0332531 -0.000114572)
(0.0190793 0.00153254 -0.000496028)
(-0.00641989 0.0355417 0.000424217)
(-0.0103084 0.0187707 -2.42464e-05)
(-0.0187168 0.0196926 1.01501e-06)
(-0.0144228 0.00583944 -1.21598e-08)
(-0.0146102 0.00564054 1.43344e-10)
(-0.0103572 -0.00424439 4.28221e-11)
(-0.0065024 -0.00301243 3.08723e-11)
(-0.00355719 -0.00757183 2.12553e-11)
(0.00098185 -0.00567959 1.45426e-11)
(0.00246886 -0.00497221 8.69847e-12)
(0.00372709 -0.00191258 5.05759e-12)
(0.00244873 -0.000659122 2.64054e-12)
(0.00188511 0.000182215 1.3989e-12)
(0.00107099 0.000308722 7.20919e-13)
(0.000744172 0.000335247 3.82185e-13)
(0.000477119 0.00027572 2.02654e-13)
(0.000329032 0.000222336 1.08241e-13)
(0.000224117 0.000167182 5.74534e-14)
(0.00015223 0.000124443 3.01067e-14)
(0.000101347 8.65186e-05 1.54663e-14)
(6.57639e-05 6.01453e-05 7.71545e-15)
(4.10852e-05 3.81309e-05 3.71971e-15)
(2.48372e-05 2.46398e-05 1.7287e-15)
(1.40783e-05 1.39381e-05 7.61779e-16)
(7.85311e-06 8.33158e-06 3.26197e-16)
(3.7972e-06 4.06831e-06 1.24096e-16)
(2.12116e-06 2.26476e-06 5.33876e-17)
(-0.0368475 -0.0797029 0.0445916)
(-0.0360184 -0.0428004 -0.00130197)
(-0.00136254 0.0431708 0.0055907)
(-0.00439515 0.0437803 -0.0050235)
(-0.030327 0.0353362 0.000524229)
(-0.0201255 0.0212018 -3.02574e-05)
(-0.0218087 0.00692449 6.19207e-07)
(-0.0176742 0.00601238 -7.38233e-09)
(-0.0133067 -0.00605151 7.80439e-11)
(-0.0074319 -0.0041822 3.53235e-11)
(-0.00417616 -0.00930904 2.39503e-11)
(0.0015846 -0.00710367 1.63131e-11)
(0.00328861 -0.00578611 9.50911e-12)
(0.00451274 -0.00210999 5.36557e-12)
(0.00277762 -0.000496564 2.69563e-12)
(0.00201211 0.000345624 1.38853e-12)
(0.0010837 0.000413839 6.98782e-13)
(0.000736573 0.000387613 3.65537e-13)
(0.000464048 0.000304588 1.9191e-13)
(0.000318378 0.000238426 1.01902e-13)
(0.000215731 0.000177248 5.38633e-14)
(0.00014607 0.00013074 2.81552e-14)
(9.69577e-05 9.06882e-05 1.44377e-14)
(6.27923e-05 6.28044e-05 7.19706e-15)
(3.91228e-05 3.9812e-05 3.46653e-15)
(2.36324e-05 2.56738e-05 1.61114e-15)
(1.33471e-05 1.45281e-05 7.09362e-16)
(7.45367e-06 8.67115e-06 3.03949e-16)
(3.57619e-06 4.23577e-06 1.15438e-16)
(2.01141e-06 2.35728e-06 4.96858e-17)
(-0.0215951 0.245932 -0.0982242)
(-0.039061 0.0441522 0.11177)
(-0.0618238 -0.0306014 -0.0914808)
(-0.00712901 0.0736424 0.0277091)
(-0.0256137 0.0396687 -0.00438127)
(-0.0445369 0.0249626 0.000420054)
(-0.024047 0.00841785 -1.72318e-05)
(-0.0229047 0.00622679 3.17722e-07)
(-0.0159589 -0.00828803 -1.89876e-09)
(-0.0083936 -0.00571665 4.39078e-11)
(-0.00482873 -0.0113649 2.7133e-11)
(0.00238615 -0.00870713 1.8371e-11)
(0.00434655 -0.00649491 1.04039e-11)
(0.0054857 -0.00195219 5.67622e-12)
(0.00318928 -0.000170957 2.73449e-12)
(0.00213094 0.000560049 1.36365e-12)
(0.00108079 0.000535981 6.69473e-13)
(0.000719692 0.000442296 3.45906e-13)
(0.000447182 0.000333879 1.79975e-13)
(0.000305985 0.000254049 9.50744e-14)
(0.000206548 0.000187168 5.00631e-14)
(0.000139479 0.000136759 2.61111e-14)
(9.233e-05 9.47523e-05 1.3366e-14)
(5.96738e-05 6.53292e-05 6.65884e-15)
(3.70747e-05 4.14335e-05 3.20402e-15)
(2.23749e-05 2.66529e-05 1.48939e-15)
(1.25862e-05 1.5092e-05 6.55089e-16)
(7.0379e-06 8.9924e-06 2.8093e-16)
(3.34661e-06 4.39487e-06 1.06478e-16)
(1.89656e-06 2.44461e-06 4.58531e-17)
(0.0530759 0.0885206 0.0262377)
(0.100441 0.0671146 -0.0991501)
(0.0100543 0.069129 -0.0153258)
(-0.0290502 0.0140391 -0.0329495)
(-0.0294651 0.0858316 0.0132432)
(-0.0542541 0.0321092 -0.00206368)
(-0.0426981 -0.00118982 0.000169692)
(-0.0275881 0.00740404 -6.08395e-06)
(-0.0198355 -0.012419 8.17885e-08)
(-0.00930827 -0.0079759 -3.71635e-10)
(-0.00546088 -0.0139659 3.15475e-11)
(0.00352602 -0.0112426 2.07543e-11)
(0.00581697 -0.0077788 1.14049e-11)
(0.00660984 -0.00221642 5.964e-12)
(0.00353269 0.000172377 2.72932e-12)
(0.0022021 0.00081425 1.31851e-12)
(0.00105413 0.000672482 6.31899e-13)
(0.000691526 0.000497547 3.23097e-13)
(0.000426294 0.000362928 1.66837e-13)
(0.000291824 0.00026886 8.77674e-14)
(0.000196593 0.000196883 4.60609e-14)
(0.000132462 0.000142449 2.3979e-14)
(8.7474e-05 9.87063e-05 1.22537e-14)
(5.64107e-05 6.77073e-05 6.10208e-15)
(3.49456e-05 4.29945e-05 2.93286e-15)
(2.10666e-05 2.75733e-05 1.36377e-15)
(1.17972e-05 1.56282e-05 5.99097e-16)
(6.6065e-06 9.29381e-06 2.572e-16)
(3.10895e-06 4.54449e-06 9.72367e-17)
(1.77824e-06 2.52392e-06 4.19059e-17)
(0.0222221 -0.139627 -0.177637)
(0.0297846 -0.0436857 -0.242214)
(0.0417767 0.0760579 0.208545)
(-0.000696945 0.131272 -0.0364447)
(-0.023316 0.0694907 -0.002058)
(-0.0488781 0.0619342 0.00113339)
(-0.0702424 0.000118281 -0.000353093)
(-0.0286045 0.00144126 3.27518e-05)
(-0.0239607 -0.0156104 -8.18298e-07)
(-0.00965408 -0.0103995 6.7002e-09)
(-0.00619134 -0.0164886 2.26481e-11)
(0.00487596 -0.013298 2.34344e-11)
(0.00772119 -0.00833426 1.24999e-11)
(0.00812851 -0.00151491 6.26409e-12)
(0.00409917 0.00087222 2.71193e-12)
(0.00226397 0.00116066 1.25329e-12)
(0.00100222 0.000826321 5.85458e-13)
(0.000650855 0.000552881 2.97013e-13)
(0.000401334 0.000391814 1.52514e-13)
(0.000275934 0.000283 7.99991e-14)
(0.000185916 0.000206617 4.18671e-14)
(0.000125028 0.00014793 2.17644e-14)
(8.24043e-05 0.000102645 1.11036e-14)
(5.30056e-05 6.99899e-05 5.52816e-15)
(3.27407e-05 4.45331e-05 2.65372e-15)
(1.97094e-05 2.84548e-05 1.23459e-15)
(1.09817e-05 1.61545e-05 5.41526e-16)
(6.16018e-06 9.58663e-06 2.3282e-16)
(2.86352e-06 4.69899e-06 8.77374e-17)
(1.6524e-06 2.61868e-06 3.78383e-17)
(-0.00238237 -0.0296569 -0.240789)
(-0.0953758 -0.00720495 -0.276293)
(-0.0750573 0.0689097 0.0814382)
(-0.0431216 0.066719 -0.0052224)
(-0.0839824 0.143724 -0.00624414)
(-0.0618848 0.0703953 0.00212725)
(-0.0797729 0.00740764 -0.00151633)
(-0.0434984 -0.0151837 0.000142611)
(-0.026558 -0.0200643 -3.99191e-06)
(-0.0101673 -0.0150128 2.72023e-08)
(-0.00664399 -0.0205578 -3.74781e-12)
(0.00680315 -0.0178473 2.65981e-11)
(0.01019 -0.0103831 1.36647e-11)
(0.00965031 -0.00177549 6.43632e-12)
(0.00432922 0.00147493 2.58687e-12)
(0.00218588 0.00151547 1.15381e-12)
(0.000904029 0.000976523 5.28539e-13)
(0.000595063 0.000597521 2.67574e-13)
(0.000372201 0.000414908 1.37046e-13)
(0.00025832 0.000293352 7.17928e-14)
(0.000174544 0.00021449 3.74937e-14)
(0.000117162 0.000152029 1.94728e-14)
(7.71245e-05 0.000105788 9.9187e-15)
(4.94547e-05 7.16899e-05 4.93845e-15)
(3.0461e-05 4.57335e-05 2.36727e-15)
(1.8303e-05 2.91052e-05 1.10219e-15)
(1.01408e-05 1.65413e-05 4.8252e-16)
(5.69933e-06 9.78128e-06 2.07845e-16)
(2.61168e-06 4.77833e-06 7.80097e-17)
(1.5319e-06 2.63349e-06 3.37368e-17)
(-0.0458797 0.0693673 -0.0452636)
(-0.100615 0.164677 0.0924836)
(-0.0909049 0.107658 0.066139)
(-0.167165 0.182109 -0.0150744)
(-0.183494 0.140574 -0.0375595)
(-0.138842 0.103781 0.0732663)
(-0.0451041 0.00438976 -0.0163403)
(-0.0692846 -0.0135891 0.000874365)
(-0.0254399 -0.0316766 -2.60442e-05)
(-0.0103471 -0.0172565 1.39944e-07)
(-0.00730837 -0.0228598 -1.55085e-10)
(0.00904223 -0.0203477 2.99755e-11)
(0.0137076 -0.0106262 1.50678e-11)
(0.0120665 -9.18605e-05 6.69986e-12)
(0.00507968 0.00297699 2.47477e-12)
(0.002123 0.00205891 1.03361e-12)
(0.000775807 0.00116084 4.62462e-13)
(0.000526296 0.000648942 2.35085e-13)
(0.000340375 0.000444991 1.20587e-13)
(0.000239697 0.000308713 6.32138e-14)
(0.000162848 0.000226447 3.29687e-14)
(0.000109033 0.000158745 1.71163e-14)
(7.1738e-05 0.000110852 8.70471e-15)
(4.58171e-05 7.45946e-05 4.33563e-15)
(2.81432e-05 4.77576e-05 2.07476e-15)
(1.6867e-05 3.02555e-05 9.6712e-16)
(9.28538e-06 1.72619e-05 4.22321e-16)
(5.22859e-06 1.01999e-05 1.82371e-16)
(2.35339e-06 5.02569e-06 6.80733e-17)
(1.39504e-06 2.81005e-06 2.94671e-17)
(-0.0544515 0.276469 -0.0585048)
(-0.0672129 0.196445 -0.11181)
(-0.0914568 0.197522 0.0842107)
(-0.184152 0.24987 0.0595521)
(-0.30821 0.179856 -0.190151)
(-0.29933 -0.00506648 0.211792)
(-0.170816 -0.03041 -0.0587244)
(-0.0563541 -0.0118997 0.00450009)
(-0.0320808 -0.0515268 -9.15434e-05)
(-0.00752523 -0.0216643 4.31156e-07)
(-0.00790491 -0.0301049 -5.06403e-10)
(0.0117205 -0.0280156 3.23328e-11)
(0.0176018 -0.0137552 1.6198e-11)
(0.0141137 -1.07665e-05 6.59146e-12)
(0.00494907 0.00388662 2.13458e-12)
(0.00168587 0.0024588 8.49418e-13)
(0.000557222 0.00127676 3.82856e-13)
(0.000436477 0.000655989 1.9918e-13)
(0.000304026 0.000451751 1.03054e-13)
(0.00021883 0.000309319 5.42087e-14)
(0.000150067 0.000229 2.8265e-14)
(0.000100153 0.000158806 1.4681e-14)
(6.59525e-05 0.00011147 7.45509e-15)
(4.19026e-05 7.43565e-05 3.71629e-15)
(2.56744e-05 4.7797e-05 1.7746e-15)
(1.5334e-05 3.00593e-05 8.28617e-16)
(8.38033e-06 1.71671e-05 3.60623e-16)
(4.73018e-06 1.00561e-05 1.56283e-16)
(2.0843e-06 4.91234e-06 5.79173e-17)
(1.27214e-06 2.6787e-06 2.52941e-17)