/*--------------------------------*- C++ -*----------------------------------*\
| =========                 |                                                 |
| \\      /  F ield         | OpenFOAM: The Open Source CFD Toolbox           |
|  \\    /   O peration     | Version:  2.4.0                                 |
|   \\  /    A nd           | Web:      www.OpenFOAM.org                      |
|    \\/     M anipulation  |                                                 |
\*---------------------------------------------------------------------------*/
FoamFile
{
    version     2.0;
    format      ascii;
    class       surfaceScalarField;
    location    "0.338";
    object      phiAlpha;
}
// * * * * * * * * * * * * * * * * * * * * * * * * * * * * * * * * * * * * * //

dimensions      [0 3 -1 0 0 0 0];

internalField   nonuniform List<scalar> 
19800
(
-1.84286e-61
2.42172e-65
2.17464e-60
-6.4737e-57
1.65813e-56
-2.56758e-53
3.17915e-53
-2.76694e-50
1.94663e-50
-1.01437e-47
3.88665e-48
-1.34457e-45
2.99644e-46
-7.54444e-44
1.063e-44
-2.08365e-42
1.97085e-43
-3.14932e-41
2.1029e-42
-2.82273e-40
1.44824e-41
-1.6623e-39
7.28605e-41
-7.18194e-39
3.05557e-40
-2.59665e-38
1.25163e-39
-9.25715e-38
5.40379e-39
-3.50352e-37
2.48841e-38
-1.40717e-36
1.31245e-37
-6.35465e-36
7.47364e-37
-3.0945e-35
4.11134e-36
-1.43667e-34
2.15428e-35
-6.32434e-34
1.04844e-34
-2.58659e-33
4.70294e-34
-9.62759e-33
1.9516e-33
-3.25476e-32
7.49172e-33
-9.9043e-32
2.63013e-32
-2.67909e-31
8.29675e-32
-6.24552e-31
2.3104e-31
-1.20862e-30
5.57171e-31
-1.88136e-30
1.09132e-30
-2.24947e-30
1.56493e-30
-2.06044e-30
1.63485e-30
-1.78763e-30
1.25435e-30
-1.81379e-30
7.29257e-31
-1.79236e-30
3.3564e-31
-1.40982e-30
1.2914e-31
-8.64203e-31
4.38132e-32
-4.29695e-31
1.34771e-32
-1.78685e-31
3.73427e-33
-6.27549e-32
9.0932e-34
-1.85048e-32
1.90444e-34
-4.53646e-33
3.38227e-35
-9.15663e-34
5.0668e-36
-1.51348e-34
6.32534e-37
-2.02673e-35
6.46148e-38
-2.16536e-36
5.32921e-39
-1.82389e-37
3.93514e-40
-1.37893e-38
1.90795e-40
-6.97521e-39
6.19555e-40
-1.74071e-38
2.04627e-39
-3.54126e-38
-2.44994e-38
6.39625e-39
9.49115e-61
-3.30301e-58
2.879e-56
-1.20737e-53
1.26657e-52
-4.07922e-50
1.72578e-49
-4.01111e-47
7.90629e-47
-1.27324e-44
1.2696e-44
-1.46542e-42
8.39362e-43
-7.33942e-41
2.67532e-41
-1.86386e-39
4.59878e-40
-2.64385e-38
4.63978e-39
-2.26017e-37
3.05253e-38
-1.28095e-36
1.46467e-37
-5.31457e-36
5.85135e-37
-1.8401e-35
2.29439e-36
-6.2749e-35
9.5103e-36
-2.26887e-34
4.16779e-35
-8.65116e-34
2.04776e-34
-3.61837e-33
1.08344e-33
-1.61638e-32
5.46941e-33
-6.86507e-32
2.62793e-32
-2.7447e-31
1.18212e-31
-1.02004e-30
4.89992e-31
-3.45942e-30
1.87872e-30
-1.06449e-29
6.65069e-30
-2.94033e-29
2.16559e-29
-7.17199e-29
6.35781e-29
-1.49614e-28
1.64265e-28
-2.52999e-28
3.6679e-28
-3.18848e-28
6.76187e-28
-2.50527e-28
9.62216e-28
-5.1202e-29
1.04827e-27
1.26956e-30
8.80526e-28
3.93381e-31
5.78269e-28
-1.33245e-28
3.05468e-28
-2.18484e-28
1.35289e-28
-1.91574e-28
5.23352e-29
-1.20321e-28
1.80474e-29
-5.9573e-29
5.55063e-30
-2.41402e-29
1.503e-30
-8.0845e-30
3.52985e-31
-2.23176e-30
7.09535e-32
-5.04616e-31
1.2115e-32
-9.28166e-32
1.73749e-33
-1.36984e-32
2.06416e-34
-1.59074e-33
2.01614e-35
-1.42442e-34
1.86042e-36
-1.19519e-35
1.23162e-36
-7.54705e-36
4.49532e-36
-6.09319e-36
1.67964e-35
8.07763e-38
6.40829e-37
5.91686e-35
7.14151e-58
-1.43164e-55
1.9905e-53
-4.21402e-51
8.41011e-50
-1.47902e-47
1.05647e-46
-1.44557e-44
4.16907e-44
-4.13327e-42
5.77742e-42
-4.19433e-40
3.39321e-40
-1.89513e-38
9.91154e-39
-4.41814e-37
1.59534e-37
-5.88389e-36
1.53288e-36
-4.81078e-35
9.69704e-36
-2.63104e-34
4.4666e-35
-1.0515e-33
1.70918e-34
-3.48756e-33
6.41573e-34
-1.1313e-32
2.54432e-33
-3.88598e-32
1.06084e-32
-1.40041e-31
4.84188e-32
-5.43699e-31
2.35925e-31
-2.22761e-30
1.09499e-30
-8.70947e-30
4.8082e-30
-3.17727e-29
1.9807e-29
-1.06845e-28
7.55474e-29
-3.29461e-28
2.67073e-28
-9.23771e-28
8.7358e-28
-2.32531e-27
2.6333e-27
-5.13846e-27
7.21649e-27
-9.56665e-27
1.75663e-26
-1.38658e-26
3.70039e-26
-1.26696e-26
6.53873e-26
7.35275e-30
9.25682e-26
6.84212e-28
1.03749e-25
1.13018e-27
9.26086e-26
9.54403e-28
6.62145e-26
4.0195e-28
3.86306e-26
-1.26385e-27
1.90412e-26
-7.8884e-27
8.18453e-27
-7.30059e-27
3.12062e-27
-4.46839e-27
1.0586e-27
-2.1086e-27
3.16883e-28
-8.00247e-28
8.26396e-29
-2.46356e-28
1.85536e-29
-6.1393e-29
3.55468e-30
-1.22722e-29
5.74275e-31
-1.92678e-30
7.72734e-32
-2.2974e-31
8.63356e-33
-1.96847e-32
1.01375e-33
-1.51269e-33
1.13312e-33
2.32482e-36
4.71818e-33
6.32264e-35
1.93235e-32
4.81425e-34
2.70763e-33
7.46737e-32
1.30215e-55
-1.76985e-53
4.03232e-51
-5.72258e-49
1.85662e-47
-2.48102e-45
2.34021e-44
-2.45636e-42
8.31923e-42
-6.19669e-40
1.0146e-39
-5.55806e-38
5.36607e-38
-2.25516e-36
1.43688e-36
-4.81794e-35
2.16913e-35
-6.01936e-34
1.99197e-34
-4.71112e-33
1.21553e-33
-2.4913e-32
5.39271e-33
-9.62398e-32
1.97722e-32
-3.05834e-31
7.06412e-32
-9.3959e-31
2.66403e-31
-3.04206e-30
1.05134e-30
-1.03033e-29
4.46315e-30
-3.72053e-29
1.99979e-29
-1.40109e-28
8.57294e-29
-5.05677e-28
3.44966e-28
-1.69184e-27
1.29303e-27
-5.1689e-27
4.51782e-27
-1.44529e-26
1.47079e-26
-3.69468e-26
4.45426e-26
-8.49926e-26
1.24818e-25
-1.70735e-25
3.1979e-25
-2.83317e-25
7.35492e-25
-3.41147e-25
1.47547e-24
-1.56247e-25
2.51948e-24
2.42125e-26
3.54365e-24
7.34657e-26
4.05495e-24
1.07788e-25
3.77722e-24
1.00259e-25
2.87289e-24
6.08375e-26
1.80582e-24
2.16684e-26
9.64384e-25
4.81471e-28
4.49762e-25
-1.39655e-25
1.86184e-25
-1.25251e-25
6.87136e-26
-7.16315e-26
2.2453e-26
-3.10118e-26
6.41278e-27
-1.05631e-26
1.58258e-27
-2.84931e-27
3.33888e-28
-5.99399e-28
5.93814e-29
-9.47887e-29
8.79759e-30
-1.03639e-29
1.09045e-30
-5.71457e-31
1.76493e-31
1.21386e-33
3.47848e-31
8.7517e-33
1.57826e-30
7.09144e-32
6.82668e-30
4.49293e-31
2.40549e-30
2.75011e-29
9.91303e-54
-1.09906e-51
3.78451e-49
-4.4881e-47
2.21299e-45
-2.70533e-43
2.84991e-42
-2.4963e-40
8.95911e-40
-5.45142e-38
9.66027e-38
-4.27041e-36
4.58684e-36
-1.53998e-34
1.12512e-34
-3.01138e-33
1.59289e-33
-3.53515e-32
1.39992e-32
-2.65406e-31
8.2588e-32
-1.36055e-30
3.54174e-31
-5.10099e-30
1.24446e-30
-1.55426e-29
4.21284e-30
-4.51111e-29
1.49857e-29
-1.36669e-28
5.56395e-29
-4.32523e-28
2.19998e-28
-1.45477e-27
9.07706e-28
-5.04723e-27
3.60071e-27
-1.68317e-26
1.33302e-26
-5.18109e-26
4.55913e-26
-1.44557e-25
1.45332e-25
-3.68329e-25
4.35334e-25
-8.59828e-25
1.2227e-24
-1.81272e-24
3.19589e-24
-3.3269e-24
7.68326e-24
-4.93626e-24
1.67167e-23
-4.80299e-24
3.20864e-23
5.29607e-26
5.31047e-23
1.19836e-24
7.41389e-23
2.85867e-24
8.61646e-23
4.1003e-24
8.30634e-23
4.02908e-24
6.62903e-23
2.78913e-24
4.41266e-23
1.3528e-24
2.50887e-23
4.05129e-25
1.24911e-23
1.90597e-27
5.5373e-24
-1.46751e-24
2.19658e-24
-1.17369e-24
7.73821e-25
-5.97424e-25
2.38806e-25
-2.25168e-25
6.38242e-26
-6.44887e-26
1.45527e-26
-1.36722e-26
2.78831e-27
-1.96266e-27
4.44059e-28
-1.26218e-28
5.98021e-29
6.77522e-31
1.48681e-29
5.52382e-31
4.44314e-29
2.97282e-30
2.03257e-28
2.04118e-29
8.50196e-28
1.1711e-28
5.72446e-28
3.19462e-27
4.44088e-52
-4.42681e-50
2.26773e-47
-2.89744e-45
1.87585e-43
-2.21315e-41
2.2667e-40
-1.71159e-38
6.18505e-38
-3.12094e-36
5.83113e-36
-2.10583e-34
2.46201e-34
-6.7732e-33
5.52907e-33
-1.21649e-31
7.3561e-32
-1.34444e-30
6.2019e-31
-9.6983e-30
3.54714e-30
-4.83076e-29
1.47654e-29
-1.76525e-28
4.97559e-29
-5.16892e-28
1.59183e-28
-1.41563e-27
5.30112e-28
-3.9932e-27
1.84032e-27
-1.17371e-26
6.78358e-27
-3.67489e-26
2.58149e-26
-1.17516e-25
9.47601e-26
-3.63253e-25
3.23413e-25
-1.03156e-24
1.01307e-24
-2.6415e-24
2.9557e-24
-6.1635e-24
8.14207e-24
-1.32062e-23
2.12128e-23
-2.56548e-23
5.1828e-23
-4.33576e-23
1.17213e-22
-5.81968e-23
2.41775e-22
-4.55323e-23
4.44923e-22
4.2897e-24
7.15092e-22
2.65757e-23
9.90358e-22
5.83481e-23
1.16627e-21
8.3788e-23
1.15865e-21
8.56385e-23
9.63354e-22
6.38282e-23
6.71916e-22
3.55101e-23
4.02061e-22
1.4428e-23
2.11562e-22
3.56964e-24
9.95778e-23
-2.63779e-24
4.21062e-23
-9.74875e-24
1.58532e-23
-6.44742e-24
5.24111e-24
-2.72811e-24
1.50054e-24
-8.11425e-25
3.65127e-25
-1.60003e-25
7.43246e-26
-1.39927e-26
1.25256e-26
1.61758e-28
1.81825e-27
8.05252e-29
7.0526e-28
5.83322e-29
2.53112e-27
3.25031e-28
1.08997e-26
1.98588e-27
4.14568e-26
1.01868e-26
4.45647e-26
1.38389e-25
1.4106e-50
-1.3538e-48
1.19351e-45
-2.12086e-43
1.26506e-41
-1.33775e-39
1.28756e-38
-8.08969e-37
2.94068e-36
-1.22661e-34
2.39136e-34
-7.17341e-33
9.01391e-33
-2.06882e-31
1.86051e-31
-3.42255e-30
2.33151e-30
-3.56581e-29
1.88946e-29
-2.47402e-28
1.05039e-28
-1.19965e-27
4.26285e-28
-4.28933e-27
1.38087e-27
-1.21179e-26
4.16996e-27
-3.13375e-26
1.29339e-26
-8.20609e-26
4.17155e-26
-2.2287e-25
1.43191e-25
-6.46469e-25
5.02447e-25
-1.90768e-24
1.71039e-24
-5.47962e-24
5.38931e-24
-1.43967e-23
1.55123e-23
-3.39831e-23
4.15359e-23
-7.29733e-23
1.05446e-22
-1.44445e-22
2.55126e-22
-2.60519e-22
5.83463e-22
-4.10378e-22
1.24362e-21
-5.08481e-22
2.43305e-21
-3.3621e-22
4.29386e-21
7.07739e-23
6.71585e-21
3.43446e-22
9.22039e-21
7.32226e-22
1.09834e-20
1.06379e-21
1.12293e-20
1.12122e-21
9.6979e-21
8.74685e-22
7.03844e-21
5.28609e-22
4.39976e-21
2.49268e-22
2.43248e-21
8.64845e-23
1.20961e-21
1.6306e-23
5.42699e-22
-2.89042e-23
2.17516e-22
-4.04597e-23
7.67767e-23
-2.01625e-23
2.34589e-23
-5.96987e-24
6.07669e-24
-8.18162e-25
1.31118e-24
1.355e-26
2.32922e-25
9.97894e-27
3.64327e-26
3.10794e-27
1.92612e-26
2.66168e-27
7.11646e-26
1.44308e-26
2.82123e-25
7.94871e-26
9.70272e-25
3.68812e-25
1.46109e-24
2.88018e-24
3.59808e-49
-3.67857e-47
7.44038e-44
-1.30831e-41
6.56037e-40
-5.7599e-38
5.23927e-37
-2.74934e-35
9.97069e-35
-3.48478e-33
7.03781e-33
-1.77885e-31
2.3815e-31
-4.61972e-30
4.53235e-30
-7.05468e-29
5.35894e-29
-6.9334e-28
4.18015e-28
-4.62774e-27
2.26368e-27
-2.18705e-26
8.99396e-27
-7.67412e-26
2.81226e-26
-2.103e-25
8.02197e-26
-5.14904e-25
2.31039e-25
-1.25083e-24
6.88596e-25
-3.12549e-24
2.18948e-24
-8.34183e-24
7.08722e-24
-2.27209e-23
2.2407e-23
-6.07323e-23
6.52761e-23
-1.48088e-22
1.73076e-22
-3.2352e-22
4.26315e-22
-6.42798e-22
1.00022e-21
-1.18232e-21
2.25183e-21
-1.99887e-21
4.83281e-21
-2.97144e-21
9.71557e-21
-3.49234e-21
1.80256e-20
-2.17617e-21
3.04845e-20
6.14973e-22
4.63775e-20
2.89133e-21
6.3112e-20
6.18147e-21
7.60499e-20
9.17813e-21
8.00361e-20
9.9166e-21
7.17314e-20
7.92033e-21
5.38881e-20
5.07188e-21
3.4966e-20
2.64615e-21
2.02158e-20
1.08422e-21
1.05994e-20
3.08638e-22
5.04041e-21
3.3975e-23
2.15128e-21
-1.33023e-22
8.11716e-22
-9.2509e-23
2.65384e-22
-2.34653e-23
7.35064e-23
3.56714e-25
1.68968e-23
5.63817e-25
3.18067e-24
2.35592e-25
5.32067e-25
6.77337e-26
3.16526e-25
6.14644e-26
1.12458e-24
3.11764e-25
4.13876e-24
1.57831e-24
1.30769e-23
6.74654e-24
2.45914e-23
3.51622e-23
8.46294e-48
-1.47355e-45
4.02841e-42
-5.91494e-40
2.49126e-38
-1.84455e-36
1.57427e-35
-6.977e-34
2.50856e-33
-7.4519e-32
1.5478e-31
-3.33887e-30
4.72292e-30
-7.83348e-29
8.30789e-29
-1.10559e-27
9.27768e-28
-1.02477e-26
6.96975e-27
-6.57467e-26
3.68228e-26
-3.02872e-25
1.43706e-25
-1.04462e-24
4.36188e-25
-2.79358e-24
1.17865e-24
-6.50586e-24
3.14996e-24
-1.46907e-23
8.63667e-24
-3.36594e-23
2.52549e-23
-8.21139e-23
7.53796e-23
-2.0583e-22
2.21433e-22
-5.12343e-22
5.97411e-22
-1.16399e-21
1.46206e-21
-2.36249e-21
3.32163e-21
-4.36098e-21
7.216e-21
-7.50468e-21
1.51688e-20
-1.19916e-20
3.05925e-20
-1.70364e-20
5.81196e-20
-1.94961e-20
1.02334e-19
-1.27933e-20
1.65628e-19
3.13507e-21
2.44682e-19
1.68663e-20
3.30049e-19
3.72693e-20
4.03047e-19
5.74356e-20
4.38121e-19
6.34733e-20
4.07804e-19
5.05412e-20
3.14492e-19
3.38524e-20
2.10362e-19
1.92762e-20
1.26722e-19
8.85353e-21
6.99628e-20
2.98141e-21
3.53251e-20
6.13778e-22
1.61189e-20
-2.14976e-23
6.53166e-21
-2.47056e-22
2.29821e-21
-5.06428e-24
6.85908e-22
1.35691e-23
1.69797e-22
9.13442e-24
3.43008e-23
3.49034e-24
6.07426e-24
9.97414e-25
3.38429e-24
8.21438e-25
1.11124e-23
3.78657e-24
3.86036e-23
1.79505e-23
1.14481e-22
7.19305e-23
2.45292e-22
2.86285e-22
3.00989e-46
-9.56901e-44
1.6325e-40
-2.02664e-38
7.17423e-37
-4.52886e-35
3.5986e-34
-1.36791e-32
4.83874e-32
-1.23959e-30
2.62434e-30
-4.8957e-29
7.24552e-29
-1.03987e-27
1.17984e-27
-1.35672e-26
1.24457e-26
-1.18438e-25
9.00085e-26
-7.28839e-25
4.64196e-25
-3.26846e-24
1.78302e-24
-1.108e-23
5.28728e-24
-2.90788e-23
1.36005e-23
-6.48084e-23
3.37998e-23
-1.36658e-22
8.49647e-23
-2.86824e-22
2.26912e-22
-6.35722e-22
6.22326e-22
-1.46011e-21
1.69823e-21
-3.38165e-21
4.25389e-21
-7.18354e-21
9.62671e-21
-1.36011e-20
2.01994e-20
-2.34084e-20
4.07537e-20
-3.79021e-20
8.01761e-20
-5.75893e-20
1.52259e-19
-7.89743e-20
2.73854e-19
-8.96795e-20
4.58316e-19
-6.57181e-20
7.10317e-19
7.92689e-21
1.01958e-18
7.05744e-20
1.36978e-18
1.68477e-19
1.70582e-18
2.77264e-19
1.93067e-18
3.14752e-19
1.87587e-18
2.39593e-19
1.46294e-18
1.67906e-19
9.93667e-19
1.04597e-19
6.18974e-19
5.24289e-20
3.59542e-19
1.90633e-20
1.93561e-19
4.63701e-21
9.50078e-20
4.33714e-22
4.16507e-20
-3.12248e-22
1.59144e-20
1.09088e-22
5.16724e-21
1.58079e-22
1.39369e-21
9.68644e-23
3.06002e-22
3.78124e-23
5.72423e-23
1.10678e-23
2.5791e-23
7.23742e-24
7.43371e-23
2.89362e-23
2.4781e-22
1.30556e-22
7.03248e-22
4.97836e-22
1.61321e-21
1.67693e-21
1.76642e-44
-4.85258e-42
5.0891e-39
-5.43147e-37
1.60606e-35
-8.78268e-34
6.4405e-33
-2.13641e-31
7.35622e-31
-1.65132e-29
3.52192e-29
-5.76601e-28
8.81815e-28
-1.10991e-26
1.32987e-26
-1.3374e-25
1.32379e-25
-1.0966e-24
9.20071e-25
-6.44775e-24
4.62803e-24
-2.80554e-23
1.75038e-23
-9.32819e-23
5.10196e-23
-2.4119e-22
1.2575e-22
-5.18103e-22
2.92035e-22
-1.02688e-21
6.72457e-22
-1.97937e-21
1.63014e-21
-3.96828e-21
4.08853e-21
-8.30624e-21
1.0348e-20
-1.78437e-20
2.41214e-20
-3.55349e-20
5.05896e-20
-6.30268e-20
9.81409e-20
-1.01524e-19
1.84311e-19
-1.55163e-19
3.39703e-19
-2.25066e-19
6.08262e-19
-2.99189e-19
1.03665e-18
-3.40025e-19
1.65397e-18
-2.79544e-19
2.46612e-18
-2.86388e-20
3.46934e-18
2.12697e-19
4.71962e-18
5.96579e-19
6.06914e-18
1.10089e-18
7.26416e-18
1.30726e-18
7.51665e-18
8.86893e-19
5.74666e-18
6.66378e-19
3.8543e-18
4.61543e-19
2.44784e-18
2.44584e-19
1.4888e-18
8.9102e-20
8.54924e-19
2.1575e-20
4.53328e-19
1.86278e-21
2.16496e-19
-1.07095e-21
9.07086e-20
8.70555e-22
3.24358e-20
1.19574e-21
9.64344e-21
7.73415e-22
2.33048e-21
3.24965e-22
4.65671e-22
1.00135e-22
1.56762e-22
4.83934e-23
3.59169e-22
1.52424e-22
1.1569e-21
6.59133e-22
3.19515e-21
2.42657e-21
7.56858e-21
7.39927e-21
8.19754e-43
-1.9399e-40
1.25421e-37
-1.17286e-35
2.86809e-34
-1.38583e-32
9.27044e-32
-2.73333e-30
9.04107e-30
-1.80937e-28
3.8326e-28
-5.59701e-27
8.71257e-27
-9.7656e-26
1.21607e-25
-1.08474e-24
1.13959e-24
-8.32059e-24
7.58599e-24
-4.64767e-23
3.71147e-23
-1.95081e-22
1.38011e-22
-6.33195e-22
3.97199e-22
-1.61406e-21
9.45333e-22
-3.36581e-21
2.066e-21
-6.3181e-21
4.3703e-21
-1.12555e-20
9.57495e-21
-2.04009e-20
2.18406e-20
-3.86369e-20
5.10896e-20
-7.67349e-20
1.11009e-19
-1.43452e-19
2.16322e-19
-2.39189e-19
3.88644e-19
-3.61757e-19
6.79782e-19
-5.22158e-19
1.17401e-18
-7.2277e-19
1.97884e-18
-9.30248e-19
3.19158e-18
-1.05196e-18
4.85262e-18
-9.39851e-19
6.98536e-18
-4.19752e-19
9.7787e-18
4.19027e-19
1.38859e-17
1.64652e-18
1.87079e-17
3.74349e-18
2.49493e-17
4.85937e-18
2.96962e-17
2.83898e-18
2.06874e-17
2.29263e-18
1.28339e-17
1.81723e-18
8.12444e-18
9.60799e-19
5.15297e-18
3.17065e-19
3.15209e-18
6.01826e-20
1.80204e-18
-1.22942e-20
9.36912e-19
-1.67012e-20
4.31286e-19
3.58277e-21
1.70865e-19
6.69684e-21
5.66739e-20
4.91199e-21
1.53392e-20
2.30835e-21
3.36015e-21
7.75943e-22
8.70722e-22
2.86921e-22
1.32918e-21
5.98117e-22
4.10994e-21
2.46472e-21
1.11812e-20
8.86234e-21
2.69535e-20
2.55217e-20
3.0255e-41
-6.24957e-39
2.50931e-36
-2.09496e-34
4.19669e-33
-1.82427e-31
1.10052e-30
-2.93272e-29
9.20099e-29
-1.66818e-27
3.46064e-27
-4.57964e-26
7.14507e-26
-7.2442e-25
9.2151e-25
-7.40445e-24
8.09985e-24
-5.29005e-23
5.13701e-23
-2.78738e-22
2.43186e-22
-1.11922e-21
8.85534e-22
-3.51851e-21
2.52023e-21
-8.80635e-21
5.83838e-21
-1.79274e-20
1.21082e-20
-3.21071e-20
2.36921e-20
-5.33516e-20
4.6907e-20
-8.79136e-20
9.66314e-20
-1.49784e-19
2.08241e-19
-2.74117e-19
4.22116e-19
-4.81455e-19
7.66013e-19
-7.54984e-19
1.27655e-18
-1.07261e-18
2.07736e-18
-1.46148e-18
3.35325e-18
-1.92177e-18
5.29851e-18
-2.3757e-18
8.02127e-18
-2.63815e-18
1.14663e-17
-2.49401e-18
1.57454e-17
-1.75894e-18
2.22187e-17
2.96718e-19
3.533e-17
3.18026e-18
5.2644e-17
1.12397e-17
8.98908e-17
1.95988e-17
1.38108e-16
6.4169e-18
8.04718e-17
9.44906e-18
4.04108e-17
7.28685e-18
2.38923e-17
3.43627e-18
1.56283e-17
7.41831e-19
1.00959e-17
1.13218e-20
6.14853e-18
-2.27648e-19
3.44272e-18
-1.23326e-19
1.72932e-18
7.36378e-21
7.5766e-19
2.93444e-20
2.80987e-19
2.53152e-20
8.56889e-20
1.35499e-20
2.10811e-20
5.12094e-21
4.87052e-21
1.68372e-21
4.08824e-21
1.92082e-21
1.15423e-20
7.18189e-21
3.12332e-20
2.54814e-20
7.633e-20
7.0963e-20
9.05173e-40
-1.65158e-37
4.17344e-35
-3.14746e-33
5.14672e-32
-2.03326e-30
1.10058e-29
-2.67669e-28
7.91431e-28
-1.31292e-26
2.64592e-26
-3.20685e-25
4.96326e-25
-4.6055e-24
5.90553e-24
-4.33102e-23
4.84925e-23
-2.87427e-22
2.91086e-22
-1.41974e-21
1.3231e-21
-5.40269e-21
4.68493e-21
-1.62774e-20
1.31448e-20
-3.96178e-20
2.9841e-20
-7.88491e-20
5.92276e-20
-1.35542e-19
1.08289e-19
-2.12225e-19
1.94944e-19
-3.21609e-19
3.60846e-19
-4.92563e-19
7.14559e-19
-8.27248e-19
1.3525e-18
-1.37358e-18
2.2847e-18
-2.0164e-18
3.53045e-18
-2.6854e-18
5.34236e-18
-3.44202e-18
8.01963e-18
-4.25547e-18
1.17731e-17
-4.9537e-18
1.6551e-17
-5.26086e-18
2.22073e-17
-5.01683e-18
2.97245e-17
-4.59849e-18
4.35855e-17
-1.88737e-18
6.97914e-17
8.25118e-18
1.53291e-16
2.68002e-17
2.26804e-16
6.41887e-17
3.46566e-16
-3.91733e-18
2.74904e-16
4.99674e-17
1.45269e-16
3.40479e-17
7.84012e-17
1.11728e-17
4.78736e-17
-8.99805e-19
2.98426e-17
-1.39581e-18
1.83574e-17
-9.41042e-19
1.07771e-17
-4.64921e-19
5.82854e-18
-3.62571e-21
2.8073e-18
1.0395e-19
1.16416e-18
1.06722e-19
4.0208e-19
6.57909e-20
1.12445e-19
2.8403e-20
2.65183e-20
9.52924e-21
1.20605e-20
5.87105e-21
2.66337e-20
1.70804e-20
7.17937e-20
5.99422e-20
1.78444e-19
1.63662e-19
2.22896e-38
-3.58732e-36
5.85429e-34
-3.97541e-32
5.35762e-31
-1.91921e-29
9.38554e-29
-2.08052e-27
5.82558e-27
-8.84007e-26
1.73565e-25
-1.92854e-24
2.96252e-24
-2.52294e-23
3.25216e-23
-2.18852e-22
2.48879e-22
-1.35042e-21
1.40585e-21
-6.2385e-21
6.08254e-21
-2.23514e-20
2.07419e-20
-6.38794e-20
5.68935e-20
-1.49224e-19
1.26946e-19
-2.88607e-19
2.42976e-19
-4.77569e-19
4.19926e-19
-7.1013e-19
6.95904e-19
-1.00373e-18
1.15751e-18
-1.38851e-18
2.10146e-18
-2.09152e-18
3.73987e-18
-3.37467e-18
5.85126e-18
-4.62034e-18
8.37015e-18
-5.75307e-18
1.17663e-17
-6.8576e-18
1.62904e-17
-7.88878e-18
2.1789e-17
-8.43638e-18
2.77973e-17
-8.41603e-18
3.43517e-17
-8.23016e-18
4.53215e-17
-8.98364e-18
1.65237e-16
-1.19969e-17
2.07327e-16
-7.43319e-18
2.06991e-16
1.85026e-17
2.95572e-15
3.47336e-16
2.2305e-15
1.55972e-15
8.87661e-16
8.35267e-17
3.01731e-16
2.42958e-16
1.81976e-16
-4.1865e-18
1.07134e-16
-7.72712e-18
6.45404e-17
-3.0799e-18
4.08365e-17
-1.8377e-18
2.58064e-17
-9.88452e-19
1.53822e-17
-8.38009e-20
8.28421e-18
2.92095e-19
3.88632e-18
3.58149e-19
1.53459e-18
2.57466e-19
4.9456e-19
1.29107e-19
1.29529e-19
4.81803e-20
3.95739e-20
1.98998e-20
5.3627e-20
3.53697e-20
1.39352e-19
1.18915e-19
3.54997e-19
3.21241e-19
4.5157e-37
-6.27506e-35
6.90796e-33
-4.15388e-31
4.72564e-30
-1.51605e-28
6.81978e-28
-1.36367e-26
3.67048e-26
-5.04827e-25
9.78361e-25
-9.8845e-24
1.52466e-23
-1.18324e-22
1.54834e-22
-9.5106e-22
1.10557e-21
-5.47993e-21
5.86516e-21
-2.37438e-20
2.40106e-20
-8.00723e-20
7.81219e-20
-2.16081e-19
2.0704e-19
-4.79204e-19
4.52183e-19
-8.89642e-19
8.38989e-19
-1.41401e-18
1.38457e-18
-2.00301e-18
2.14516e-18
-2.66896e-18
3.22263e-18
-3.30773e-18
5.25245e-18
-4.0365e-18
9.06034e-18
-6.80841e-18
1.30668e-17
-8.94489e-18
1.72746e-17
-1.02537e-17
2.24306e-17
-1.08119e-17
2.85549e-17
-1.20056e-17
3.41341e-17
-1.14552e-17
3.86155e-17
-9.52929e-18
4.47363e-17
-9.31231e-18
5.9473e-17
-8.78954e-18
9.99619e-17
-5.61183e-18
1.36676e-16
1.3428e-18
3.42756e-15
8.55064e-17
3.66091e-15
1.59626e-16
3.83988e-15
1.41898e-15
4.05216e-15
-1.01193e-16
2.19817e-16
-9.26978e-18
1.93785e-16
1.03982e-17
1.75304e-16
5.71579e-19
1.07958e-16
-1.72706e-18
6.79675e-17
-2.04285e-18
4.60198e-17
-1.42831e-18
3.07598e-17
-1.71846e-19
1.89203e-17
6.27542e-19
1.02159e-17
9.31577e-19
4.66812e-18
7.96611e-19
1.75094e-18
4.70748e-19
5.29381e-19
2.03554e-19
1.44943e-19
7.52686e-20
1.02829e-19
6.97771e-20
2.35584e-19
2.05682e-19
6.15032e-19
5.47995e-19
7.35761e-36
-8.55446e-34
6.73315e-32
-3.51595e-30
3.48319e-29
-9.86371e-28
4.17285e-27
-7.43298e-26
1.95873e-25
-2.41331e-24
4.69359e-24
-4.26248e-23
6.70813e-23
-4.68981e-22
6.33049e-22
-3.50872e-21
4.23589e-21
-1.89743e-20
2.11685e-20
-7.75372e-20
8.20045e-20
-2.47375e-19
2.53589e-19
-6.32497e-19
6.4313e-19
-1.329e-18
1.36097e-18
-2.34736e-18
2.45018e-18
-3.56536e-18
3.88731e-18
-4.80103e-18
5.70977e-18
-6.05382e-18
7.70109e-18
-6.31063e-18
1.01817e-17
-9.18978e-18
1.83451e-17
-1.33698e-17
2.51221e-17
-1.48539e-17
3.01676e-17
-1.39212e-17
3.47146e-17
-1.3769e-17
4.25809e-17
-1.56706e-17
4.60845e-17
-1.23527e-17
4.36131e-17
-6.83594e-18
4.88015e-17
-1.19627e-17
5.77265e-17
-1.02233e-17
1.78493e-16
-8.0094e-18
1.92207e-16
-5.42106e-18
3.72042e-16
7.39381e-19
3.52724e-15
-8.0159e-18
3.43103e-15
1.53633e-15
5.44986e-16
-4.01937e-16
3.94431e-16
-3.0004e-17
3.0682e-16
-3.46808e-18
2.0587e-16
-3.21153e-18
1.3206e-16
-3.92248e-18
9.15834e-17
-3.46695e-18
6.84152e-17
-2.2938e-18
5.10994e-17
-4.1145e-19
3.57062e-17
1.00894e-18
2.21316e-17
1.92544e-18
1.16792e-17
2.00416e-18
5.09057e-18
1.40578e-18
1.79192e-18
7.12391e-19
5.21389e-19
2.7996e-19
2.17155e-19
1.5187e-19
3.58093e-19
3.20536e-19
9.47205e-19
8.28687e-19
9.30849e-35
-8.84598e-33
5.29732e-31
-2.37012e-29
2.10743e-28
-5.21449e-27
2.11631e-26
-3.32885e-25
8.72142e-25
-9.54783e-24
1.88816e-23
-1.52908e-22
2.4856e-22
-1.55253e-21
2.18923e-21
-1.08502e-20
1.37943e-20
-5.52747e-20
6.52878e-20
-2.1401e-19
2.40547e-19
-6.49593e-19
7.09616e-19
-1.58453e-18
1.72015e-18
-3.17662e-18
3.50199e-18
-5.3573e-18
6.10707e-18
-7.78875e-18
9.34645e-18
-9.98053e-18
1.31235e-17
-1.18735e-17
1.49752e-17
-1.22637e-17
2.37891e-17
-1.53881e-17
3.67702e-17
-1.9513e-17
4.24441e-17
-1.73765e-17
4.11951e-17
-7.4282e-18
4.42833e-17
-1.8893e-17
5.56843e-17
-1.94643e-17
6.73338e-17
-2.03731e-17
9.37706e-17
-1.46705e-17
6.62413e-17
-1.08177e-17
6.25368e-17
-1.17855e-17
6.93713e-17
-1.04588e-17
9.41542e-17
-6.48767e-18
1.91234e-16
-6.53986e-18
8.41664e-16
-5.57069e-19
1.56208e-15
-8.59627e-17
7.41414e-16
-2.87919e-17
4.32345e-16
-3.81772e-17
2.69265e-16
-1.23977e-17
1.78932e-16
-8.16414e-18
1.31985e-16
-7.60012e-18
1.07068e-16
-5.8565e-18
9.03288e-17
-3.24256e-18
7.50825e-17
-6.6685e-19
5.88891e-17
1.11537e-18
4.13937e-17
3.21415e-18
2.49602e-17
4.24495e-18
1.25293e-17
3.54879e-18
5.1119e-18
2.10401e-18
1.68177e-18
9.35459e-19
5.49866e-19
3.97229e-19
5.2097e-19
4.79195e-19
1.32231e-18
1.1331e-18
8.88031e-34
-6.82709e-32
3.30095e-30
-1.25732e-28
1.03064e-27
-2.21734e-26
8.77418e-26
-1.21444e-24
3.1976e-24
-3.10318e-23
6.28598e-23
-4.53329e-22
7.65023e-22
-4.26611e-21
6.30841e-21
-2.79431e-20
3.75503e-20
-1.34476e-19
1.68984e-19
-4.94695e-19
5.951e-19
-1.43339e-18
1.68537e-18
-3.35144e-18
3.93177e-18
-6.46251e-18
7.73517e-18
-1.05187e-17
1.31213e-17
-1.48078e-17
1.95244e-17
-1.84288e-17
2.63957e-17
-2.09903e-17
3.02807e-17
-2.17525e-17
4.20129e-17
-2.53789e-17
5.60091e-17
-2.75114e-17
8.06083e-17
-2.92143e-17
8.26287e-17
-2.69332e-17
6.46128e-17
-1.72803e-17
7.16302e-17
-3.3353e-17
7.81041e-17
-2.6156e-17
8.34706e-17
-1.82415e-17
6.83484e-17
-3.08676e-17
7.12732e-17
-1.516e-17
7.57692e-17
-1.43932e-17
8.53324e-17
-1.19593e-17
1.07617e-16
-9.33421e-18
2.05729e-16
-2.73822e-18
3.48781e-16
3.18659e-17
3.41081e-16
-9.10759e-18
2.38991e-16
-2.47751e-17
1.80184e-16
-3.91671e-17
1.45357e-16
-1.53636e-17
1.29563e-16
-1.29958e-17
1.21355e-16
-8.7308e-18
1.13676e-16
-4.00677e-18
1.03192e-16
-8.66635e-19
8.89542e-17
1.04853e-19
6.92626e-17
4.17763e-18
4.67124e-17
7.74495e-18
2.657e-17
7.72888e-18
1.24498e-17
5.31838e-18
4.71322e-18
2.72091e-18
1.526e-18
1.14072e-18
8.2303e-19
7.79264e-19
1.70738e-18
1.43102e-18
6.27251e-33
-3.90429e-31
1.60702e-29
-5.19801e-28
4.02673e-27
-7.5294e-26
2.94386e-25
-3.59192e-24
9.56752e-24
-8.26252e-23
1.71773e-22
-1.10949e-21
1.94032e-21
-9.73259e-21
1.50194e-20
-6.00079e-20
8.46119e-20
-2.73747e-19
3.62616e-19
-9.59561e-19
1.22279e-18
-2.66095e-18
3.33425e-18
-5.98047e-18
7.53235e-18
-1.11449e-17
1.44543e-17
-1.76696e-17
2.41422e-17
-2.45494e-17
3.57552e-17
-3.07775e-17
4.78058e-17
-3.59426e-17
5.70377e-17
-4.06937e-17
7.61134e-17
-4.55846e-17
8.72759e-17
-4.102e-17
8.46926e-17
-4.66943e-17
8.34272e-17
-4.92423e-17
1.7638e-16
-4.49941e-17
1.42371e-16
-3.8765e-17
1.15221e-16
-2.83686e-17
1.00462e-16
-2.08945e-17
9.09315e-17
-1.92425e-17
8.8462e-17
-1.87081e-17
9.01119e-17
-1.76412e-17
9.45596e-17
-1.82763e-17
1.03307e-16
-1.53357e-17
1.28158e-16
-1.01667e-17
1.82264e-16
-3.98014e-18
1.84612e-16
-1.61992e-17
1.71627e-16
-2.79156e-17
1.36019e-16
-4.56386e-17
1.52043e-16
-2.79875e-17
1.52509e-16
-2.35015e-17
1.55338e-16
-1.44915e-17
1.59122e-16
-5.69117e-18
1.55938e-16
-6.46872e-19
1.42681e-16
-7.6837e-18
1.1588e-16
3.80411e-18
8.21765e-17
1.31729e-17
5.05773e-17
1.52079e-17
2.64585e-17
1.17682e-17
1.14333e-17
6.85815e-18
4.06824e-18
3.14734e-18
1.58203e-18
1.54259e-18
2.14181e-18
1.75623e-18
3.25112e-32
-1.63408e-30
6.04455e-29
-1.66486e-27
1.24625e-26
-2.038e-25
7.94543e-25
-8.62198e-24
2.32708e-23
-1.8084e-22
3.84411e-22
-2.25352e-21
4.05116e-21
-1.85639e-20
2.95409e-20
-1.08388e-19
1.5785e-19
-4.7105e-19
6.44967e-19
-1.58013e-18
2.08298e-18
-4.20969e-18
5.4663e-18
-9.12817e-18
1.19645e-17
-1.65133e-17
2.24844e-17
-2.5686e-17
3.74924e-17
-3.5726e-17
5.72365e-17
-4.60668e-17
8.16575e-17
-5.65694e-17
1.12063e-16
-7.24323e-17
1.53296e-16
-7.65939e-17
1.57227e-16
-6.70738e-17
1.5548e-16
-7.37357e-17
1.56166e-16
-9.90487e-17
1.82952e-16
-8.14349e-17
1.79508e-16
-5.96217e-17
1.51898e-16
-3.40886e-17
1.28967e-16
-2.74822e-17
1.16701e-16
-2.90545e-17
1.09502e-16
-2.61579e-17
1.04097e-16
-2.56976e-17
1.20956e-16
-2.40796e-17
1.30196e-16
-2.04039e-17
1.38709e-16
-1.57595e-17
1.61325e-16
-1.30661e-17
1.80907e-16
-3.46001e-17
1.93157e-16
-4.36161e-17
2.02764e-16
-4.6808e-17
2.10813e-16
-4.0107e-17
2.20633e-16
-3.41264e-17
2.41113e-16
-2.28094e-17
2.76691e-16
-7.26362e-18
3.0673e-16
3.00215e-18
3.01548e-16
-3.97987e-17
2.42344e-16
-1.47356e-18
1.6355e-16
2.62863e-17
9.83529e-17
3.10864e-17
5.31817e-17
2.47229e-17
2.50344e-17
1.55935e-17
9.90884e-18
7.92116e-18
3.56038e-18
3.56723e-18
2.88636e-18
2.32177e-18
1.21963e-31
-5.02171e-30
1.74458e-28
-4.14592e-27
3.04751e-26
-4.42282e-25
1.72583e-24
-1.69289e-23
4.6142e-23
-3.28431e-22
7.07913e-22
-3.84e-21
7.00872e-21
-2.99704e-20
4.83932e-20
-1.66958e-19
2.46194e-19
-6.95887e-19
9.61457e-19
-2.24768e-18
2.97736e-18
-5.78633e-18
7.51881e-18
-1.21737e-17
1.59276e-17
-2.15012e-17
2.92857e-17
-3.30348e-17
4.88378e-17
-4.64458e-17
7.72658e-17
-6.07037e-17
1.20164e-16
-7.3433e-17
1.94121e-16
-1.0526e-16
2.71903e-16
-1.1132e-16
3.34483e-16
-7.34436e-17
3.19923e-16
-5.23183e-17
3.47521e-16
-2.01658e-16
3.32871e-16
-1.40231e-16
2.93135e-16
-1.04258e-16
2.29914e-16
-3.47812e-17
1.8368e-16
-3.47894e-17
1.5497e-16
-4.19607e-17
1.40413e-16
-4.13451e-17
1.35326e-16
-3.7864e-17
1.3874e-16
-3.49327e-17
1.46461e-16
-3.09958e-17
1.59212e-16
-3.03906e-17
2.94575e-16
-3.72768e-17
2.57941e-16
-4.89683e-17
2.56739e-16
-5.76314e-17
2.61836e-16
-5.73379e-17
2.71431e-16
-4.81292e-17
2.90039e-16
-3.98206e-17
3.23147e-16
-2.98172e-17
3.86172e-16
-1.38696e-17
3.86894e-16
2.37701e-17
6.23983e-16
-5.47431e-16
3.8204e-16
-4.07622e-17
3.09347e-16
5.20556e-17
1.8103e-16
6.10389e-17
1.04551e-16
5.04173e-17
5.27793e-17
3.39759e-17
2.27062e-17
1.8677e-17
8.4467e-18
8.63779e-18
4.73595e-18
3.76366e-18
3.3198e-31
-1.15327e-29
3.87619e-28
-8.12947e-27
5.92188e-26
-7.78654e-25
3.04083e-24
-2.75125e-23
7.53062e-23
-5.01119e-22
1.08484e-21
-5.56223e-21
1.01769e-20
-4.1538e-20
6.69993e-20
-2.22702e-19
3.2638e-19
-8.97409e-19
1.22403e-18
-2.81305e-18
3.64814e-18
-7.05403e-18
8.88869e-18
-1.45187e-17
1.82439e-17
-2.52416e-17
3.27948e-17
-3.86008e-17
5.46551e-17
-5.53864e-17
8.62707e-17
-6.83867e-17
1.31589e-16
-8.08792e-17
2.55288e-16
-1.77329e-16
3.67204e-16
-1.63704e-16
4.86222e-16
-1.35747e-16
9.76095e-16
-7.11482e-17
8.50108e-16
7.05648e-17
6.50482e-16
6.82369e-17
5.45453e-16
5.77072e-17
3.56789e-16
-6.98499e-18
2.54879e-16
-5.46707e-17
2.06743e-16
-6.81738e-17
1.80863e-16
-6.42281e-17
1.67324e-16
-5.53143e-17
1.66961e-16
-4.76206e-17
1.7626e-16
-1.9766e-17
2.16779e-16
-4.30953e-17
2.61563e-16
-1.09594e-16
2.90931e-16
-9.38032e-17
3.02877e-16
-8.6715e-17
3.04068e-16
-7.18895e-17
3.0354e-16
-5.3749e-17
3.0589e-16
-4.35366e-17
3.1551e-16
-3.8158e-17
3.32273e-16
-3.7482e-17
6.7867e-15
1.38161e-16
7.15737e-15
-9.89534e-16
2.19769e-15
-5.16343e-16
5.0545e-16
4.83301e-16
3.54417e-16
1.18759e-16
1.87526e-16
9.3055e-17
1.05978e-16
7.03176e-17
5.09749e-17
4.28564e-17
2.04375e-17
2.11208e-17
9.78892e-18
7.77835e-18
6.6725e-31
-2.02669e-29
6.717e-28
-1.27458e-26
9.25821e-26
-1.12654e-24
4.40157e-24
-3.74655e-23
1.0253e-22
-6.50378e-22
1.40353e-21
-6.93739e-21
1.2599e-20
-5.00913e-20
7.97542e-20
-2.60916e-19
3.74854e-19
-1.02572e-18
1.35979e-18
-3.14908e-18
3.92824e-18
-7.76604e-18
9.29816e-18
-1.57915e-17
1.86029e-17
-2.72554e-17
3.28523e-17
-4.15767e-17
5.46349e-17
-5.98312e-17
7.91879e-17
-5.86871e-17
1.13247e-16
-1.86203e-16
3.3638e-16
-1.75989e-16
4.34952e-16
-1.02776e-16
5.08541e-16
-7.80267e-17
1.43019e-15
-6.79283e-17
5.04338e-15
-1.75938e-15
2.98393e-15
1.21033e-15
5.74917e-16
-2.56133e-15
5.68465e-16
1.35061e-16
3.75282e-16
-5.47211e-17
2.8441e-16
-6.98653e-17
2.33338e-16
-6.80373e-17
2.04776e-16
-6.37474e-17
2.04289e-16
-5.805e-17
2.76862e-16
-5.52622e-17
2.4308e-16
-5.68486e-17
7.37875e-16
-6.07501e-17
4.95728e-16
-7.76961e-17
4.3395e-16
-9.65152e-17
3.83084e-16
-7.37557e-17
3.46194e-16
-9.68595e-17
3.27226e-16
-3.90005e-17