/*--------------------------------*- C++ -*----------------------------------*\
| =========                 |                                                 |
| \\      /  F ield         | OpenFOAM: The Open Source CFD Toolbox           |
|  \\    /   O peration     | Version:  2.4.0                                 |
|   \\  /    A nd           | Web:      www.OpenFOAM.org                      |
|    \\/     M anipulation  |                                                 |
\*---------------------------------------------------------------------------*/
FoamFile
{
    version     2.0;
    format      ascii;
    class       volScalarField;
    location    "0.018";
    object      p_rgh;
}
// * * * * * * * * * * * * * * * * * * * * * * * * * * * * * * * * * * * * * //

dimensions      [1 -1 -2 0 0 0 0];

internalField   nonuniform List<scalar> 
10000
(
0.00667752
0.00667236
0.00665834
0.00663427
0.00659951
0.00655348
0.00649547
0.00642471
0.00634057
0.00624265
0.00613078
0.00600516
0.00586627
0.00571485
0.00555188
0.00537841
0.00519553
0.00500422
0.00480532
0.00459944
0.00438697
0.00416805
0.00394262
0.00371048
0.00347137
0.00322505
0.00297141
0.0027105
0.00244262
0.00216834
0.00188845
0.00160396
0.00131604
0.00102595
0.000734967
0.00044434
0.000155215
-0.000131378
-0.000414543
-0.000693498
-0.000967562
-0.00123613
-0.00149867
-0.00175469
-0.00200378
-0.00224559
-0.0024798
-0.00270619
-0.0029246
-0.00313496
0.00667987
0.0066751
0.00666119
0.00663699
0.00660195
0.00655543
0.00649672
0.00642511
0.00634008
0.00624127
0.00612863
0.00600239
0.00586309
0.00571149
0.00554854
0.00537529
0.00519276
0.00500187
0.00480338
0.00459783
0.00438553
0.00416655
0.00394083
0.00370815
0.00346829
0.00322104
0.00296637
0.00270442
0.00243559
0.0021605
0.00188001
0.00159515
0.00130708
0.00101704
0.000726256
0.000435917
0.000147118
-0.000139154
-0.000422021
-0.000700699
-0.000974485
-0.00124274
-0.0015049
-0.00176045
-0.00200895
-0.00225008
-0.00248352
-0.00270907
-0.00292663
-0.00313619
0.00668512
0.00668045
0.00666627
0.00664129
0.006605
0.00655689
0.00649637
0.00642289
0.00633607
0.00623573
0.00612194
0.00599503
0.00585557
0.00570431
0.00554215
0.00536999
0.00518873
0.00499912
0.00480175
0.00459699
0.00438507
0.00416597
0.00393959
0.00370577
0.00346436
0.00321532
0.00295878
0.00269506
0.00242468
0.00214839
0.0018671
0.00158181
0.00129364
0.00100371
0.000713159
0.000423044
0.000134378
-0.000151898
-0.000434909
-0.000713837
-0.000987913
-0.00125642
-0.00151871
-0.00177423
-0.0020225
-0.00226314
-0.00249592
-0.00272069
-0.00293741
-0.00314615
0.00669189
0.0066869
0.00667188
0.00664528
0.00660669
0.00655584
0.00649236
0.00641598
0.00632657
0.00622419
0.00610909
0.00598169
0.00584258
0.00569245
0.00553203
0.00536204
0.00518309
0.00499566
0.00480009
0.00459651
0.00438506
0.00416559
0.00393802
0.00370232
0.00345853
0.00320685
0.00294766
0.0026815
0.00240908
0.00213126
0.00184895
0.00156311
0.00127472
0.000984747
0.000694149
0.000403867
0.000114828
-0.00017205
-0.000455854
-0.000735678
-0.00101064
-0.00127991
-0.00154274
-0.00179851
-0.00204672
-0.00228704
-0.00251928
-0.00274338
-0.0029594
-0.00316749
0.00669888
0.00669336
0.00667698
0.00664807
0.00660636
0.00655191
0.00648469
0.00640477
0.00631235
0.00620778
0.00609148
0.00596401
0.00582591
0.00567775
0.00552002
0.00535313
0.00517733
0.00499275
0.00479942
0.00459725
0.00438602
0.00416573
0.00393636
0.00369804
0.00345109
0.003196
0.00293343
0.0026642
0.00238919
0.00210931
0.00182545
0.00153844
0.00124912
0.000958281
0.000666725
0.0003753
8.49053e-05
-0.000203497
-0.000488896
-0.000770257
-0.00104656
-0.00131687
-0.00158038
-0.00183644
-0.0020846
-0.00232461
-0.00255637
-0.00277994
-0.00299546
-0.00320317
0.00670477
0.00669856
0.00668049
0.00664881
0.00660352
0.00654503
0.00647372
0.00639007
0.00629466
0.00618811
0.00607107
0.00594414
0.0058078
0.00566242
0.00550818
0.00534508
0.00517298
0.0049916
0.00480058
0.00459959
0.00438834
0.00416677
0.00393501
0.00369345
0.00344272
0.00318362
0.00291712
0.00264424
0.00236597
0.00208324
0.00179685
0.00150752
0.00121592
0.000922721
0.000628671
0.000334614
4.15208e-05
-0.000249522
-0.000537353
-0.000820791
-0.00109872
-0.00137014
-0.00163426
-0.00189053
-0.00213861
-0.00237836
-0.00260979
-0.00283306
-0.0030484
-0.00325604
0.00670817
0.00670114
0.0066812
0.00664657
0.00659759
0.00653507
0.00645982
0.00637275
0.00627479
0.00616687
0.0060498
0.00592418
0.00579037
0.00564847
0.0054983
0.00533941
0.00517122
0.00499302
0.00480412
0.00460397
0.00439224
0.00416892
0.00393435
0.00368918
0.00343434
0.00317093
0.00290013
0.0026231
0.00234084
0.00205424
0.00176399
0.0014707
0.00117497
0.000877474
0.000579015
0.000280579
-1.66759e-05
-0.000311469
-0.000602469
-0.000888388
-0.00116808
-0.00144061
-0.00170532
-0.00196181
-0.00220991
-0.00244963
-0.00268106
-0.00290439
-0.00311983
-0.00332756
0.00670776
0.00669982
0.00667799
0.00664055
0.00658817
0.00652208
0.00644351
0.00635377
0.00625414
0.00614577
0.00602957
0.00590608
0.0057755
0.00563759
0.00549175
0.00533714
0.00517268
0.00499733
0.00481012
0.00461037
0.00439776
0.00417242
0.0039349
0.00368612
0.00342724
0.00315956
0.00288436
0.00260278
0.00231578
0.00202413
0.00172844
0.00142929
0.00112735
0.000823444
0.000518607
0.000214104
-8.86325e-05
-0.000388101
-0.000682843
-0.000971555
-0.00125318
-0.00152697
-0.00179249
-0.00204954
-0.00229811
-0.00253827
-0.00277014
-0.00299382
-0.0032094
-0.00341692
0.00670248
0.0066936
0.00667005
0.0066302
0.0065751
0.00650633
0.00642551
0.00633426
0.00623414
0.00612644
0.00601207
0.00589148
0.00576461
0.00563088
0.00548932
0.00533864
0.00517743
0.00500435
0.0048183
0.00461856
0.0044049
0.00417762
0.00393746
0.00368554
0.00342314
0.00315158
0.00287209
0.00258569
0.00229319
0.00199525
0.00169248
0.00138557
0.00107542
0.000763179
0.000450284
0.000138372
-0.000170831
-0.000475653
-0.000774613
-0.00106652
-0.00135054
-0.00162618
-0.00189325
-0.0021517
-0.00240155
-0.00264284
-0.00287553
-0.00309955
-0.00331482
-0.00352127
0.00669161
0.00668184
0.00665689
0.00661534
0.00655852
0.00648833
0.00640665
0.00631533
0.00621608
0.00611022
0.00599859
0.00588147
0.00575851
0.00562883
0.0054911
0.00534372
0.00518505
0.00501361
0.00482827
0.00462839
0.00441389
0.00418521
0.00394322
0.00368909
0.00342406
0.00314929
0.0028658
0.00257436
0.00227563
0.00197023
0.00165888
0.00134256
0.00102258
0.0007006
0.000378516
5.83472e-05
-0.00025796
-0.000568694
-0.000872502
-0.00116844
-0.00145593
-0.00173473
-0.00200475
-0.00226593
-0.00251816
-0.00276123
-0.00299486
-0.00321879
-0.00343283
-0.00363691
0.00667492
0.00666437
0.00663851
0.00659618
0.0065389
0.00646878
0.00638782
0.006298
0.00620098
0.00609804
0.00598987
0.00587651
0.00575735
0.00563125
0.00549665
0.00535178
0.00519491
0.00502461
0.00483982
0.00464007
0.00442539
0.00419634
0.00395378
0.00369872
0.00343217
0.00315497
0.00286776
0.00257109
0.00226546
0.00195159
0.00163049
0.00130361
0.000972836
0.000640369
0.000308563
-2.03095e-05
-0.000344259
-0.000661715
-0.000971581
-0.00127318
-0.00156613
-0.0018502
-0.00212519
-0.00239075
-0.00264641
-0.00289164
-0.00312592
-0.0033489
-0.00356051
-0.00376097
0.00665268
0.00664156
0.00661539
0.00657331
0.00651698
0.0064485
0.00636989
0.00628304
0.0061895
0.00609035
0.00598606
0.00587644
0.0057607
0.00563751
0.00550523
0.00536212
0.00520653
0.00503719
0.00485324
0.00465435
0.00444066
0.00421266
0.00397103
0.00371645
0.00344948
0.0031705
0.00287977
0.00257757
0.00226446
0.00194138
0.00160985
0.00127193
0.000930082
0.000586998
0.000245288
-9.27505e-05
-0.000425306
-0.000751086
-0.00106925
-0.00137922
-0.0016805
-0.00197256
-0.00225473
-0.00252612
-0.00278583
-0.00303304
-0.00326721
-0.00348821
-0.00369637
-0.00389244
0.00662567
0.00661424
0.00658844
0.00654771
0.00649369
0.00642836
0.00635357
0.00627097
0.00618186
0.00608705
0.00598678
0.00588065
0.00576777
0.00564679
0.00551617
0.00537434
0.00521991
0.00505185
0.00486952
0.00467269
0.00446147
0.00423613
0.00399694
0.00374407
0.0034775
0.00319709
0.00290275
0.00259469
0.00227365
0.00194104
0.00159898
0.00125014
0.000897454
0.000543812
0.00019179
-0.000156562
-0.000499749
-0.000836709
-0.0011666
-0.00148856
-0.00180153
-0.00210423
-0.00239525
-0.00267315
-0.00293667
-0.00318504
-0.00341806
-0.00363617
-0.0038404
-0.00403218
0.00659515
0.0065837
0.00655893
0.00652056
0.00647006
0.00640915
0.00633934
0.00626192
0.00617786
0.00608763
0.00599125
0.00588824
0.00577769
0.00565843
0.00552916
0.00538864
0.0052358
0.00506988
0.0048904
0.00469713
0.00448997
0.00426876
0.00403322
0.00378284
0.00351699
0.00323507
0.00293682
0.00262255
0.00229342
0.00195141
0.00159922
0.00123993
0.000876595
0.000511958
0.000148229
-0.000212931
-0.000570243
-0.000922527
-0.00126842
-0.00160619
-0.00193374
-0.00224878
-0.00254913
-0.00283301
-0.00309925
-0.00334755
-0.00357847
-0.0037933
-0.00399381
-0.00418201
0.00656268
0.00655151
0.00652836
0.00649316
0.00644713
0.00639153
0.00632745
0.00625575
0.00617696
0.00609128
0.00599857
0.00589834
0.00578987
0.00567225
0.00554458
0.00540598
0.00525572
0.00509326
0.00491814
0.00472998
0.00452826
0.00431227
0.004081
0.00383328
0.00356793
0.00328408
0.00298149
0.00266086
0.00232383
0.00197294
0.00161119
0.00124167
0.000867143
0.000489815
0.00011139
-0.000266693
-0.000642918
-0.00101534
-0.00138139
-0.00173795
-0.0020816
-0.0024091
-0.00271785
-0.00300627
-0.00327381
-0.00352107
-0.00374958
-0.00396141
-0.00415887
-0.0043442
0.00653001
0.00651938
0.00649829
0.00646682
0.00642579
0.00637597
0.00631793
0.00625203
0.00617845
0.00609715
0.00600792
0.00591043
0.0058042
0.00568875
0.00556353
0.00542805
0.00528183
0.00512439
0.00495517
0.00477342
0.00457808
0.00436776
0.00414074
0.00389526
0.00362979
0.00334344
0.00303627
0.00270944
0.00236507
0.0020059
0.00163481
0.00125439
0.000866693
0.000473255
7.54903e-05
-0.000324841
-0.000725219
-0.00112217
-0.00151136
-0.00188804
-0.00224765
-0.00258646
-0.00290211
-0.00319375
-0.00346193
-0.00370823
-0.00393489
-0.00414442
-0.00433921
-0.0045214
0.00649889
0.006489
0.00647022
0.00644269
0.00640679
0.00636274
0.00631059
0.00625027
0.00618164
0.00610455
0.00601887
0.00592448
0.00582125
0.00570907
0.00558774
0.00545701
0.0053165
0.00516564
0.00500357
0.00482907
0.00464045
0.00443562
0.00421228
0.00396828
0.00370203
0.00341286
0.00310128
0.00276883
0.00241779
0.00205063
0.00166952
0.00127611
0.000871574
0.000457056
3.42907e-05
-0.000393812
-0.000822916
-0.00124745
-0.00166116
-0.00205793
-0.00243265
-0.00278181
-0.00310382
-0.00339892
-0.00366863
-0.00391517
-0.00414094
-0.00434835
-0.00453957
-0.00471654
0.00647092
0.00646186
0.00644544
0.00642174
0.00639067
0.00635196
0.0063052
0.00625
0.00618606
0.00611322
0.00603151
0.0059411
0.00584217
0.00573487
0.00561923
0.00549504
0.00536184
0.00521883
0.00506472
0.00489775
0.00471561
0.00451567
0.00429525
0.00405209
0.00378478
0.00349307
0.0031778
0.00284063
0.00248344
0.00210783
0.00171478
0.00130482
0.000878501
0.000437202
-1.61595e-05
-0.000476726
-0.00093784
-0.00139177
-0.00183071
-0.00224782
-0.00263808
-0.00299865
-0.00332881
-0.00362951
-0.00390282
-0.00415093
-0.00437584
-0.00457958
-0.00476423
-0.00493191
0.00644739
0.0064392
0.00642496
0.00640466
0.00637778
0.00634365
0.00630159
0.00625101
0.00619161
0.00612336
0.00604651
0.00596143
0.0058685
0.00576798
0.00565988
0.00554387
0.00541927
0.0052849
0.00513905
0.00497944
0.0048033
0.00460763
0.00438967
0.0041473
0.00387948
0.00358628
0.00326862
0.00292771
0.00256445
0.00217904
0.00177105
0.00134007
0.000886642
0.00041319
-7.54563e-05
-0.000572105
-0.00106787
-0.00155332
-0.00201971
-0.00245995
-0.00286925
-0.00324516
-0.00358716
-0.00389624
-0.00417454
-0.00442394
-0.00464585
-0.00484211
-0.00501533
-0.00516866
0.00642924
0.00642185
0.00640945
0.00639186
0.0063683
0.00633785
0.00629973
0.00625339
0.00619867
0.00613573
0.00606498
0.00598689
0.00590184
0.00580994
0.005711
0.00560442
0.00548919
0.0053638
0.00522616
0.00507362
0.00490314
0.00471165
0.00449649
0.00425588
0.00398909
0.00369627
0.00337792
0.00303421
0.00266449
0.00226726
0.00184085
0.00138441
0.00089917
0.000389171
-0.000138634
-0.000674993
-0.00120939
-0.00173126
-0.00223107
-0.00270114
-0.00313603
-0.00353279
-0.00389012
-0.00420854
-0.00449071
-0.00473857
-0.00495328
-0.00513695
-0.00529342
-0.00542753
0.00641698
0.00641023
0.00639919
0.00638353
0.00636231
0.00633464
0.00629986
0.00625765
0.00620807
0.00615147
0.0060883
0.00601893
0.00594346
0.00586167
0.00577301
0.00567655
0.00557102
0.00545465
0.00532516
0.00517973
0.00501526
0.0048288
0.00461794
0.00438124
0.00411806
0.00382819
0.00351115
0.00316548
0.00278867
0.00237758
0.00192964
0.00144419
0.000923526
0.000373267
-0.000198034
-0.000779845
-0.00136059
-0.00192853
-0.00247239
-0.00298221
-0.00345033
-0.00387242
-0.00424599
-0.00457137
-0.00485367
-0.00509582
-0.0052988
-0.00546514
-0.00560004
-0.00571035
0.00641068
0.00640436
0.00639416
0.0063796
0.00635985
0.00633424
0.00630248
0.0062646
0.00622093
0.00617189
0.00611778
0.00605859
0.00599396
0.00592318
0.0058453
0.00575919
0.00566343
0.00555623
0.00543527
0.00529777
0.0051407
0.00496133
0.00475754
0.00452799
0.00427184
0.00398802
0.00367449
0.00332785
0.00294361
0.00251731
0.00204591
0.00152917
0.000970233
0.000375508
-0.00024597
-0.000883157
-0.00152319
-0.00215196
-0.00275412
-0.00331491
-0.00382266
-0.00427214
-0.00466005
-0.0049872
-0.00526516
-0.00549857
-0.00568658
-0.00583158
-0.00593986
-0.00602033
0.00641002
0.00640389
0.00639403
0.0063799
0.00636096
0.00633704
0.00630834
0.00627532
0.00623851
0.00619822
0.00615434
0.00610628
0.00605307
0.00599352
0.00592642
0.00585063
0.00576486
0.00566747
0.00555627
0.00542856
0.00528149
0.00511248
0.00491956
0.0047013
0.00445621
0.00418189
0.00387441
0.00352825
0.00313717
0.00269566
0.00220041
0.00165125
0.00105117
0.000405939
-0.000276117
-0.00098372
-0.00170095
-0.0024096
-0.00308673
-0.00371014
-0.00426262
-0.00474062
-0.00514031
-0.00546169
-0.0057317
-0.00595601
-0.00612691
-0.00624599
-0.00632063
-0.00636186
0.00641435
0.00640821
0.0063983
0.00638416
0.00636575
0.00634354
0.00631831
0.00629093
0.00626192
0.00623128
0.00619828
0.00616161
0.00611968
0.00607101
0.00601444
0.00594909
0.00587405
0.00578795
0.00568876
0.00557383
0.00544037
0.00528586
0.00510835
0.00490601
0.00467637
0.00441538
0.00411703
0.00377377
0.00337789
0.00292302
0.00240525
0.00182337
0.00117861
0.000474499
-0.000282143
-0.0010792
-0.00189686
-0.00270807
-0.00348046
-0.00418114
-0.00478445
-0.00529438
-0.0057046
-0.00600615
-0.00626388
-0.0064825
-0.00663469
-0.00672164
-0.00675311
-0.00674202
0.00642282
0.00641653
0.00640638
0.00639213
0.00637438
0.00635431
0.00633327
0.00631234
0.0062919
0.00627133
0.00624916
0.00622337
0.00619199
0.0061536
0.00610744
0.0060532
0.00599046
0.00591811
0.00583412
0.00573573
0.00562009
0.00548467
0.00532737
0.00514579
0.00493623
0.00469283
0.00440754
0.00407109
0.00367452
0.00321044
0.00267338
0.00205943
0.00136611
0.000593261
-0.000254378
-0.00116361
-0.00210886
-0.00305286
-0.00394976
-0.00475051
-0.00541255
-0.00596064
-0.00637809
-0.00663142
-0.00686841
-0.00709345
-0.0072286
-0.00727653
-0.00725276
-0.00717234
0.00643449
0.006428
0.00641768
0.00640358
0.00638702
0.00636985
0.00635386
0.00634013
0.00632858
0.00631788
0.00630578
0.00628979
0.00626797
0.00623936
0.00620401
0.00616236
0.00611439
0.00605902
0.00599395
0.00591614
0.00582259
0.00571077
0.00557841
0.00542244
0.00523782
0.00501692
0.00474994
0.00442629
0.00403587
0.00356965
0.00301911
0.00237562
0.00163109
0.000780278
-0.000175215
-0.0012225
-0.00233059
-0.00345174
-0.00452237
-0.00546025
-0.00618426
-0.00676794
-0.00717801
-0.00733783
-0.00753801
-0.00780549
-0.00793591
-0.0079368
-0.00784068
-0.00766783
0.00644845
0.00644186
0.00643164
0.0064183
0.00640379
0.00639051
0.00638041
0.00637429
0.00637145
0.00636976
0.00636643
0.00635889
0.00634572
0.00632694
0.00630359
0.00627681
0.00624673
0.00621187
0.00616938
0.00611582
0.00604816
0.00596404
0.00586108
0.00573554
0.00558108
0.00538859
0.00514708
0.00484504
0.00447116
0.00401371
0.00345925
0.00279239
0.00199769
0.00106317
-1.54757e-05
-0.00123069
-0.00254866
-0.00391233
-0.00524351
-0.0063922
-0.00716157
-0.00776796
-0.00816684
-0.00805886
-0.00823411
-0.00865758
-0.0087991
-0.00873692
-0.00854464
-0.00824714
0.0064639
0.0064574
0.0064478
0.00643608
0.00642469
0.00641629
0.00641271
0.00641422
0.00641935
0.00642534
0.0064292
0.00642887
0.00642397
0.0064158
0.00640644
0.00639739
0.0063884
0.00637722
0.00636022
0.00633373
0.006295
0.00624211
0.00617273
0.00608251
0.00596408
0.00580738
0.00560097
0.00533295
0.0049904
0.00455751
0.00401399
0.00333577
0.00249862
0.00148174
0.000269909
-0.0011466
-0.00273664
-0.00443757
-0.00614079
-0.00762989
-0.00787399
-0.00797336
-0.00899445
-0.00775626
-0.00853124
-0.00980884
-0.00986304
-0.0097102
-0.00939918
-0.00893682
0.00648021
0.0064741
0.00646579
0.00645668
0.00644949
0.00644681
0.00645005
0.00645874
0.00647067
0.00648276
0.00649237
0.00649849
0.00650222
0.00650624
0.00651336
0.00652489
0.00653965
0.00655426
0.00656447
0.00656678
0.0065592
0.00654058
0.0065088
0.00645904
0.00638335
0.00627166
0.00611304
0.00589554
0.00560406
0.00521732
0.00470653
0.0040373
0.00317558
0.00209001
0.000747426
-0.000904091
-0.00284428
-0.00500487
-0.00716217
-0.00764391
-0.00126848
0.00191116
0.00254898
-0.00161337
-0.00322943
-0.0103801
-0.0111117
-0.0108755
-0.0104436
-0.00976895
0.0064969
0.00649156
0.00648527
0.00647975
0.0064777
0.00648131
0.00649126
0.00650627
0.00652361
0.00654032
0.00655468
0.00656722
0.00658073
0.00659906
0.00662516
0.00665946
0.00669939
0.00674046
0.00677823
0.00681005
0.00683526
0.00685369
0.00686344
0.00685953
0.00683425
0.00677873
0.00668356
0.00653705
0.0063213
0.00600855
0.0055608
0.00493269
0.00407967
0.00295727
0.00150968
-0.000410052
-0.00280762
-0.00559972
-0.00866834
-0.00839804
-0.00712105
-0.00915248
-0.00867191
-0.00362516
-0.0023671
-0.0114906
-0.0126062
-0.0123109
-0.0117577
-0.0107783
0.00651368
0.00650949
0.00650592
0.00650483
0.00650859
0.00651865
0.00653481
0.00655505
0.00657645
0.0065967
0.00661551
0.00663525
0.0066603
0.0066951
0.00674203
0.00680002
0.00686494
0.00693159
0.00699617
0.0070576
0.00711692
0.00717494
0.00722999
0.00727735
0.00731073
0.00732387
0.00730994
0.00725781
0.00714671
0.00694203
0.00659664
0.00605316
0.00526345
0.00416859
0.00269434
0.000506184
-0.00247167
-0.00615136
-0.00985871
-0.0120331
-0.01246
-0.00911904
-0.00745672
-0.00665341
-0.00194648
-0.0137227
-0.0138555
-0.0138755
-0.0133099
-0.011857
0.0065304
0.00652772
0.00652744
0.00653136
0.00654119
0.00655747
0.00657904
0.00660338
0.0066278
0.00665113
0.00667486
0.00670324
0.00674173
0.00679467
0.00686308
0.00694404
0.00703216
0.00712235
0.00721235
0.0073033
0.00739794
0.00749773
0.00760117
0.00770461
0.00780451
0.00789868
0.00798395
0.00805072
0.00807684
0.00802277
0.00782673
0.00741241
0.00676473
0.00584982
0.00450123
0.00205043
-0.0017387
-0.00705537
-0.0132367
-0.0178539
-0.0180133
-0.0144344
-0.0111641
-0.0114747
-0.00291903
-0.012565
-0.0144255
-0.0153134
-0.0147093
-0.0124419
0.00654696
0.00654611
0.00654948
0.00655862
0.0065744
0.0065963
0.00662236
0.00664983
0.00667673
0.00670339
0.00673321
0.00677194
0.00682547
0.00689716
0.00698616
0.00708779
0.00719611
0.00730723
0.00742127
0.00754173
0.00767256
0.00781535
0.00796887
0.00813144
0.00830371
0.00848887
0.00868874
0.00889755
0.00909705
0.00925423
0.00930431
0.0090945
0.00904917
0.00832159
0.00742728
0.00474054
0.000166287
-0.00757513
-0.0159116
-0.0262097
-0.0277476
-0.0229516
-0.0166332
-0.00974501
-0.0116445
-0.012726
-0.0130398
-0.0161003
-0.0158934
-0.0121062
0.00656334
0.00656449
0.00657161
0.00658582
0.00660704
0.00663375
0.00666339
0.00669339
0.00672282
0.00675371
0.00679117
0.00684183
0.00691116
0.00700087
0.00710806
0.00722687
0.0073519
0.00748149
0.00761857
0.00776851
0.00793557
0.00812086
0.0083237
0.00854533
0.00879167
0.00907224
0.00939565
0.0097652
0.0101777
0.0106206
0.0110665
0.0115158
0.0163652
0.0184339
0.0159746
0.00974409
0.00492903
-0.00444929
-0.0187485
-0.0267897
-0.0379139
-0.0163178
-0.0123346
-0.00523056
-0.00672604
-0.00670612
-0.00343208
-0.0266555
-0.0363277
-0.0249529
0.00657946
0.00658264
0.00659334
0.00661214
0.00663802
0.00666864
0.00670114
0.0067335
0.00676608
0.00680254
0.00684918
0.00691278
0.00699755
0.00710317
0.00722503
0.00735704
0.00749554
0.00764182
0.00780134
0.00798027
0.00818203
0.00840681
0.00865486
0.00893105
0.00924672
0.00961754
0.0100597
0.0105895
0.0112269
0.0119961
0.0129164
0.0139759
0.0170943
0.0214936
0.0223808
0.0211999
0.0129906
0.00452908
-0.016077
0.016031
0.138866
-0.00626712
0.0722082
0.0458584
-0.0219855
-0.0636961
0.0260062
-0.0946227
1.8911
3.37245
0.00659514
0.00660024
0.00661412
0.00663679
0.00666641
0.00670008
0.00673503
0.00677002
0.0068068
0.00685026
0.00690727
0.00698389
0.00708255
0.00720092
0.00733343
0.00747497
0.00762457
0.00778652
0.00796788
0.00817418
0.00840697
0.00866539
0.00895106
0.00927252
0.0096456
0.0100906
0.0106313
0.0112994
0.0121432
0.0132304
0.0146366
0.0164676
0.0189369
0.0219764
0.0255039
0.0310033
0.029359
0.0302324
0.0490596
0.01715
0.0290486
0.0041443
2.10652
1.79233
1.40044
5.85158
20.4463
34.9109
39.3001
40.0888
0.00661008
0.00661687
0.00663339
0.00665906
0.00669149
0.00672756
0.00676487
0.00680315
0.00684528
0.00689697
0.00696485
0.00705357
0.00716358
0.00729101
0.0074304
0.0075787
0.00773808
0.00791519
0.0081172
0.00834763
0.00860553
0.00888929
0.00920225
0.00955576
0.00996786
0.0104607
0.0110628
0.0118194
0.0128054
0.0141352
0.0159376
0.0183757
0.0215863
0.0259421
0.0317748
0.0372779
0.0376424
0.0351826
0.0644671
0.153107
0.331677
7.19568
14.2857
21.8821
28.7071
34.4918
37.3623
39.265
40.369
40.4811
0.00662389
0.00663207
0.00665058
0.0066784
0.00671284
0.0067509
0.00679078
0.00683316
0.00688174
0.00694237
0.00702075
0.00711977
0.00723801
0.00737092
0.00751422
0.0076677
0.0078364
0.00802807
0.00824842
0.00849797
0.00877344
0.00907312
0.009402
0.00977252
0.0102018
0.0107099
0.0113247
0.0120956
0.013116
0.0145451
0.0165437
0.0192497
0.022729
0.0286815
0.0397466
0.0501545
0.0411385
0.00598948
0.0308857
0.262256
9.96618
22.8441
41.1066
42.7154
39.2793
38.0511
38.7122
39.5736
40.1693
40.3414
0.00663608
0.00664533
0.00666522
0.00669443
0.00673029
0.00677018
0.00681305
0.00686034
0.00691611
0.00698571
0.00707344
0.0071803
0.0073036
0.00743905
0.00758447
0.00774258
0.00792041
0.00812532
0.00836033
0.00862278
0.0089079
0.00921473
0.0095493
0.00992289
0.0103484
0.01084
0.0114174
0.0121138
0.0130102
0.0143036
0.0162427
0.0187433
0.0213282
0.0263567
0.0489928
0.0832431
0.0728878
-0.072534
0.101921
15.5144
31.4108
43.3102
43.4055
42.2075
40.6376
39.8157
39.8339
40.1274
40.3891
40.5019
0.00664616
0.00665617
0.0066769
0.00670693
0.00674387
0.00678567
0.006832
0.00688481
0.00694799
0.00702591
0.0071212
0.00723327
0.00735887
0.00749489
0.0076417
0.00780447
0.00799095
0.0082067
0.00845153
0.00872039
0.00900837
0.00931576
0.00964869
0.0100153
0.0104224
0.0108752
0.0113802
0.0119443
0.0125323
0.0136435
0.0158158
0.0175786
0.0151755
0.0167642
0.091633
0.159018
0.242217
-0.145192
18.4804
51.1845
47.314
44.5682
43.3567
42.3832
41.4427
40.8333
40.6317
40.6453
40.7143
40.7612
0.00665363
0.00666414
0.00668532
0.00671581
0.00675371
0.00679767
0.00684789
0.00690648
0.00697675
0.00706175
0.00716248
0.00727727
0.00740314
0.00753878
0.007687
0.00785448
0.00804831
0.00827144
0.00852086
0.00879053
0.00907673
0.00938106
0.00970866
0.0100639
0.0104482
0.0108612
0.0113002
0.0117663
0.0124606
0.0218236
0.0242507
0.0203111
0.0165345
0.0629799
0.198659
0.107522
0.372456
8.76942
32.2395
47.603
46.2166
44.5813
43.4153
42.6016
41.9328
41.4354
41.167
41.0559
41.0246
41.0262
0.00665804
0.00666887
0.00669026
0.00672109
0.00676005
0.00680643
0.0068608
0.00692503
0.00700155
0.00709199
0.00719602
0.00731154
0.00743651
0.00757161
0.00772149
0.00789322
0.00809217
0.0083186
0.00856785
0.00883449
0.00911663
0.00941651
0.00973695
0.0100779
0.010436
0.0108059
0.0111788
0.0115334
0.0123551
0.0269883
0.0251117
0.0204203
0.0181921
0.016889
-0.011526
-0.199448
8.35184
22.4241
42.6561
44.4169
44.5262
43.8525
43.1969
42.6347
42.1315
41.7499
41.4906
41.3415
41.2696
41.2486
0.00665902
0.00667006
0.00669159
0.00672282
0.00676307
0.00681212
0.00687064
0.00694
0.00702154
0.0071156
0.00722102
0.00733589
0.00745951
0.00759433
0.00774598
0.00792077
0.00812191
0.00834766
0.00859323
0.00885491
0.00913254
0.00942776
0.00974059
0.0100684
0.0104088
0.0107625
0.0111302
0.0114947
0.0129531
0.0274329
0.0230505
0.0210333
0.0227083
0.0256379
0.0398692
1.65086
12.1736
38.6018
42.3038
42.8732
43.1889
43.1078
42.8381
42.5027
42.163
41.8733
41.6585
41.5173
41.4391
41.4116
0.0066563
0.00666752
0.00668925
0.0067211
0.00676291
0.00681476
0.00687716
0.00695078
0.00703587
0.00713181
0.00723712
0.00735059
0.00747292
0.00760776
0.00776078
0.00793682
0.0081371
0.00835903
0.00859894
0.00885517
0.00912817
0.00941773
0.00972111
0.0100354
0.0103618
0.0107089
0.0110923
0.0115499
0.0125249
0.0280142
0.020432
0.0196017
0.0230944
0.029648
0.0464047
2.44766
19.8623
40.6313
41.2168
41.8689
42.3264
42.4997
42.4497
42.2836
42.0772
41.8803
41.7212
41.6087
41.5418
41.517
0.00664972
0.00666117
0.00668326
0.00671599
0.0067596
0.00681422
0.00687998
0.00695675
0.00704387
0.00714016
0.00724436
0.00735619
0.00747749
0.00761243
0.00776589
0.00794106
0.00813789
0.00835411
0.0085878
0.00883862
0.00910605
0.00938695
0.00967649
0.00997276
0.0102805
0.0106135
0.0109921
0.011437
0.01196
0.0214353
0.0147011
0.018225
0.0201563
0.0251323
0.0220252
3.56125
29.9096
38.7711
40.2327
41.128
41.7029
42.0011
42.0843
42.0407
41.9396
41.8235
41.7194
41.6412
41.5929
41.5753
0.0066392
0.00665096
0.00667363
0.00670754
0.00675308
0.00681025
0.00687864
0.00695733
0.00704506
0.00714053
0.00724304
0.00735329
0.00747383
0.00760858
0.00776124
0.00793359
0.00812523
0.00833507
0.00856278
0.00880804
0.00906789
0.0093361
0.00960681
0.00987955
0.0101606
0.0104617
0.0108009
0.0112208
0.0118555
0.0131151
0.0135176
0.0145871
0.0161493
0.0263244
-0.00710052
10.9106
37.5965
38.8429
39.9017
40.7091
41.2759
41.6168
41.7775
41.8126
41.7913
41.7392
41.6829
41.6364
41.6077
41.5985
0.0066248
0.00663694
0.00666038
0.00669568
0.00674318
0.00680252
0.00687265
0.00695205
0.00703917
0.007133
0.00723363
0.0073425
0.00746235
0.00759636
0.00774696
0.0079151
0.00810085
0.00830449
0.00852651
0.0087653
0.00901498
0.00926698
0.00951537
0.00976003
0.0100049
0.0102555
0.0105231
0.0108421
0.0113007
0.0119522
0.0126614
0.0139256
0.0165593
0.019178
-0.128324
26.9978
39.4487
39.3046
39.8967
40.5182
41.0114
41.3435
41.536
41.6274
41.6577
41.6501
41.6319
41.6122
41.599
41.5973
0.00660656
0.00661916
0.00664354
0.00668034
0.00672968
0.00679064
0.00686158
0.00694057
0.00702613
0.00711786
0.0072166
0.00732427
0.0074433
0.00757589
0.00772346
0.00788683
0.00806692
0.00826503
0.00848133
0.00871215
0.00894927
0.00918339
0.00940879
0.00962363
0.00982545
0.0100091
0.0101713
0.0103189
0.0104665
0.0106018
0.010756
0.0118307
0.0141816
0.00614539
-0.0181136
31.8488
37.9043
39.0528
39.827
40.4096
40.85
41.1614
41.3641
41.484
41.5468
41.573
41.5805
41.5803
41.5803
41.585
0.00658459
0.00659771
0.00662311
0.00666142
0.00671231
0.00677425
0.00684506
0.00692268
0.00700602
0.00709544
0.00719243
0.00729899
0.00741689
0.00754738
0.00769139
0.00785009
0.00802533
0.00821869
0.00842911
0.00865086
0.00887464
0.00909176
0.00929655
0.00948348
0.00964221
0.00975785
0.00981494
0.00979959
0.00969294
0.00947091
0.00927608
0.01034
0.0138131
-0.00206109
1.99605
33.1514
37.7323
39.1356
39.8809
40.3871
40.7684
41.052
41.2521
41.3843
41.4656
41.5117
41.5362
41.5492
41.5578
41.5667
0.00655903
0.00657266
0.00659909
0.00663877
0.00669079
0.00675298
0.00682278
0.00689827
0.00697899
0.00706609
0.00716151
0.00726697
0.00738342
0.00751135
0.00765162
0.00780609
0.00797727
0.00816636
0.00837086
0.00858377
0.00879601
0.00899998
0.00918923
0.00935364
0.00947615
0.00953483
0.00950536
0.00935715
0.00904504
0.00849585
0.00779026
0.0076592
0.00898204
-0.00471222
4.8746
39.3377
39.7206
39.8468
40.1282
40.4471
40.748
40.999
41.1902
41.3253
41.4147
41.4703
41.5035
41.5233
41.5365
41.5474
-0.00333728
-0.00353165
-0.00371822
-0.00389718
-0.00406878
-0.00423331
-0.00439111
-0.0045425
-0.00468784
-0.00482747
-0.00496175
-0.00509102
-0.00521566
-0.00533608
-0.00545282
-0.0055664
-0.00567719
-0.00578536
-0.00589095
-0.00599382
-0.00609355
-0.00618921
-0.00627951
-0.00636326
-0.00643995
-0.00651023
-0.00657589
-0.00663973
-0.00670508
-0.00677512
-0.00685197
-0.00693579
-0.00702456
-0.00711463
-0.0072019
-0.00728284
-0.00735544
-0.00741965
-0.00747683
-0.00752872
-0.00757653
-0.00762103
-0.0076628
-0.00770197
-0.00773833
-0.00777126
-0.00779942
-0.0078205
-0.00783226
-0.00783505
-0.0033378
-0.00353158
-0.00371775
-0.00389651
-0.00406816
-0.00423299
-0.00439134
-0.00454353
-0.00468987
-0.00483067
-0.00496625
-0.0050969
-0.00522288
-0.0053445
-0.00546213
-0.00557623
-0.00568713
-0.00579491
-0.0058995
-0.00600084
-0.00609876
-0.00619288
-0.0062825
-0.00636686
-0.00644554
-0.00651888
-0.00658811
-0.00665515
-0.00672242
-0.00679242
-0.00686704
-0.00694687
-0.0070307
-0.00711572
-0.00719846
-0.00727582
-0.00734596
-0.00740875
-0.00746546
-0.00751784
-0.00756752
-0.00761511
-0.0076608
-0.00770384
-0.00774302
-0.00777665
-0.00780275
-0.00781911
-0.00782509
-0.0078239
-0.00334705
-0.00354031
-0.00372617
-0.00390492
-0.00407685
-0.00424228
-0.00440151
-0.00455485
-0.00470257
-0.00484492
-0.00498214
-0.00511442
-0.00524192
-0.00536468
-0.00548286
-0.00559675
-0.00570664
-0.00581265
-0.00591465
-0.00601269
-0.00610712
-0.00619844
-0.00628696
-0.00637256
-0.00645486
-0.00653356
-0.00660868
-0.00668058
-0.00675015
-0.00681884
-0.0068884
-0.00696027
-0.00703488
-0.00711112
-0.00718666
-0.00725888
-0.00732596
-0.00738744
-0.00744422
-0.00749798
-0.00755049
-0.0076027
-0.0076541
-0.0077026
-0.00774511
-0.00777835
-0.00779983
-0.00780864
-0.00780694
-0.00780089
-0.00336789
-0.00356085
-0.00374668
-0.00392566
-0.00409807
-0.0042642
-0.00442432
-0.0045787
-0.00472756
-0.00487105
-0.00500933
-0.00514252
-0.00527065
-0.00539358
-0.00551119
-0.00562359
-0.00573118
-0.00583423
-0.00593278
-0.00602699
-0.00611765
-0.00620599
-0.00629323
-0.00637996
-0.00646581
-0.00654978