/*--------------------------------*- C++ -*----------------------------------*\
| =========                 |                                                 |
| \\      /  F ield         | OpenFOAM: The Open Source CFD Toolbox           |
|  \\    /   O peration     | Version:  2.4.0                                 |
|   \\  /    A nd           | Web:      www.OpenFOAM.org                      |
|    \\/     M anipulation  |                                                 |
\*---------------------------------------------------------------------------*/
FoamFile
{
    version     2.0;
    format      ascii;
    class       volScalarField;
    location    "0.196";
    object      alpha.water;
}
// * * * * * * * * * * * * * * * * * * * * * * * * * * * * * * * * * * * * * //

dimensions      [0 0 0 0 0 0 0];

internalField   nonuniform List<scalar> 
57600
(
1
1
1
1
1
1
1
1
1
1
1
1
1
1
1
1
1
1
1
1
1
1
1
1
1
1
1
1
1
1
1
1
1
1
1
1
1
1
1
1
1
1
1
1
1
1
1
1
1
1
1
1
1
1
1
1
1
1
1
1
1
1
1
1
1
1
1
1
1
1
1
1
1
1
1
1
1
1
1
1
1
1
1
1
1
1
1
1
1
1
1
1
1
1
1
1
1
1
1
1
1
1
1
1
1
1
1
1
1
1
1
1
1
1
1
1
1
1
1
1
1
1
1
1
1
1
1
1
1
1
1
1
1
1
1
1
1
1
1
1
1
1
1
1
1
1
1
1
1
1
1
1
1
1
1
1
1
1
1
1
1
1
1
1
1
1
1
1
1
1
1
1
1
1
1
1
1
1
1
1
1
1
1
1
1
1
1
1
1
1
1
1
1
1
1
1
1
1
1
1
1
1
1
1
1
1
1
1
1
1
1
1
1
1
1
1
1
1
1
1
1
1
1
1
1
1
1
1
1
1
1
1
1
1
1
1
1
1
1
1
1
1
1
1
1
1
1
1
1
1
1
1
1
1
1
1
1
1
1
1
1
1
1
1
1
1
1
1
1
1
1
1
1
1
1
1
1
1
1
1
1
1
1
1
1
1
1
1
1
1
1
1
1
1
1
1
1
1
1
1
1
1
1
1
1
1
1
1
1
1
1
1
1
1
1
1
1
1
1
1
1
1
1
1
1
1
1
1
1
1
1
1
1
1
1
1
1
1
1
1
1
1
1
1
1
1
1
1
1
1
1
1
1
1
1
1
1
1
1
1
1
1
1
1
1
1
1
1
1
1
1
1
1
1
1
1
1
1
1
1
1
1
1
1
1
1
1
1
1
1
1
1
1
1
1
1
1
1
1
1
1
1
1
1
1
1
1
1
1
1
1
1
1
1
1
1
1
1
1
1
1
1
1
1
1
1
1
1
1
1
1
1
1
1
1
1
1
1
1
1
1
1
1
1
1
1
1
1
1
1
1
1
1
1
1
1
1
1
1
1
1
1
1
1
1
1
1
1
1
1
1
1
1
1
1
1
1
1
1
1
1
1
1
1
1
1
1
1
1
1
1
1
1
1
1
1
1
1
1
1
1
1
1
1
1
1
1
1
1
1
1
1
1
1
1
1
1
1
1
1
1
1
1
1
1
1
1
1
1
1
1
1
1
1
1
1
1
1
1
1
0.999998
1
1
1
1
1
1
1
1
1
1
1
1
1
1
1
1
1
1
1
1
1
1
1
0.999998
1
1
1
1
1
0.996167
1
1
1
1
1
0.80637
1
1
1
1
1
1
1
1
1
1
1
1
1
1
1
0.999999
1
1
1
1
1
1
1
0.999266
1
1
1
0.999462
1
0.990964
1
1
1
1
1
1
1
1
1
1
1
1
1
1
1
1
1
1
1
1
1
1
1
0.999952
1
1
1
1
0.999922
0.997607
1
1
1
1
1
1
1
1
1
1
1
1
1
1
1
1
1
1
1
1
1
1
1
0.99872
1
1
1
0.999916
0.999514
0.983018
1
1
1
1
1
0.999808
1
1
1
1
1
1
1
1
1
1
1
1
1
1
1
1
1
0.998675
1
1
1
0.99863
0.999993
0.999466
1
1
0.999998
1
1
0.999991
1
1
1
1
1
1
0.999999
1
1
1
1
1
1
1
1
1
1
0.999983
0.999996
0.999999
1
0.9579
0.999982
0.999868
1
1
0.999999
1
0.999698
0.999974
1
1
0.999884
1
1
0.999827
1
0.999999
1
1
1
1
0.999999
1
1
1
1
0.999983
0.756271
1
0.998921
0.209465
0.955162
1
0.999993
1
1
1
0.999876
0.999792
1
1
0.999194
1
1
0.999989
0.999901
1
1
1
1
1
1
1
1
1
1
0.668412
0.490819
0.99999
0.99982
7.10093e-06
0.70731
1
0.999999
0.999993
0.999995
1
0.999616
0.999901
0.999949
0.999502
0.999964
1
1
0.999997
1
0.999932
1
1
0.954778
0.873966
0.836799
0.806732
0.765263
0.673098
0.538234
0.0577094
0.0811496
9.40301e-11
7.37689e-11
5.91075e-10
0.117481
0.999995
0.998277
1
0.999999
0.999992
0.999955
0.999791
1
0.999981
0.999997
1
1
1
0.783231
0.0268979
1.44629e-06
4.65714e-07
1.15917e-06
5.13018e-07
3.58802e-07
1.58638e-07
3.35874e-07
6.84534e-07
3.52366e-07
0.00974179
0.0078933
0.000126575
9.89242e-10
1.44797e-08
3.931e-06
1
0.998708
1
0.999999
0.999999
0.999881
0.999988
0.999979
0.999988
0.999985
0.738735
0.000471496
1.54084e-07
6.85155e-07
3.44998e-07
2.61706e-07
2.15691e-07
1.49774e-06
2.09301e-07
2.94176e-05
2.14733e-08
2.06976e-08
2.07872e-08
2.03814e-08
0.00619023
0.0034644
0.000146291
1.45527e-08
5.73311e-10
0.0074182
0.999951
0.99994
0.999983
0.999596
0.999986
0.99999
0.999801
0.999688
0.952704
1.34645e-07
1.3338e-07
1.09311e-06
1.74473e-06
4.87735e-06
1.16028e-05
1.87326e-05
2.13493e-07
1.902e-07
1.90635e-07
1.65282e-05
2.0736e-08
2.05779e-08
2.13045e-08
1.68435e-08
1
1
1
1
1
1
1
1
1
1
1
1
1
1
1
1
1
1
1
1
1
1
1
1
1
1
1
1
1
1
1
1
1
1
1
1
1
1
1
1
1
1
1
1
1
1
1
1
1
1
1
1
1
1
1
1
1
1
1
1
1
1
1
1
1
1
1
1
1
1
1
1
1
1
1
1
1
1
1
1
1
1
1
1
1
1
1
1
1
1
1
1
1
1
1
1
1
1
1
1
1
1
1
1
1
1
1
1
1
1
1
1
1
1
1
1
1
1
1
1
1
1
1
1
1
1
1
1
1
1
1
1
1
1
1
1
1
1
1
1
1
1
1
1
1
1
1
1
1
1
1
1
1
1
1
1
1
1
1
1
1
1
1
1
1
1
1
1
1
1
1
1
1
1
1
1
1
1
1
1
1
1
1
1
1
1
1
1
1
1
1
1
1
1
1
1
1
1
1
1
1
1
1
1
1
1
1
1
1
1
1
1
1
1
1
1
1
1
1
1
1
1
1
1
1
1
1
1
1
1
1
1
1
1
1
1
1
1
1
1
1
1
1
1
1
1
1
1
1
1
1
1
1
1
1
1
1
1
1
1
1
1
1
1
1
1
1
1
1
1
1
1
1
1
1
1
1
1
1
1
1
1
1
1
1
1
1
1
1
1
1
1
1
1
1
1
1
1
1
1
0.999989
0.999165
1
1
1
1
1
1
1
1
1
1
1
1
1
1
1
1
1
1
1
1
1
1
1
1
1
1
1
1
1
0.999999
1
1
1
1
1
1
1
1
1
1
1
1
1
1
1
1
1
1
1
1
1
1
1
1
1
1
1
1
0.99979
1
1
1
1
1
1
1
1
1
1
1
1
1
1
1
1
1
1
1
1
1
1
1
1
1
1
1
1
1
1
1
1
1
1
1
1
1
1
1
1
1
1
1
1
1
1
1
1
1
1
1
1
1
1
1
1
1
1
1
1
1
1
1
1
1
0.999999
1
1
1
1
1
1
1
0.999999
1
1
1
1
1
1
1
1
1
1
1
1
1
1
1
1
1
1
1
1
1
1
1
1
1
1
1
1
1
1
1
1
1
1
1
1
1
1
1
1
1
1
1
1
1
1
1
1
0.974217
1
1
1
1
1
1
1
1
1
1
1
1
1
1
1
1
1
1
1
1
1
1
1
1
1
1
1
1
1
1
1
1
1
1
1
1
1
1
1
1
1
1
1
1
1
1
1
1
1
1
1
1
1
1
1
1
1
1
1
1
1
1
1
1
1
1
1
1
1
1
0.999998
1
1
1
1
1
1
1
0.999999
1
1
1
1
1
1
1
1
0.999998
1
1
1
0.999866
0.999999
1
1
1
1
1
1
0.999998
0.999998
1
1
1
1
1
1
1
1
1
1
1
1
1
1
1
1
1
0.99999
0.999996
0.999829
1
1
1
1
1
1
1
1
1
0.999998
1
1
1
1
1
1
1
0.999998
1
1
1
0.999996
1
1
1
1
1
1
1
1
1
1
0.999998
0.999997
0.999999
0.999998
1
1
0.999999
1
1
1
1
1
1
1
1
1
1
1
0.999982
1
1
1
1
1
0.999999
1
0.999997
0.999998
1
1
1
1
0.999994
1
1
0.999999
0.999997
1
1
1
1
1
1
1
1
0.99998
0.994256
1
0.999966
1
1
0.99995
1
1
1
1
1
1
1
1
1
1
1
1
1
0.999996
0.999999
0.999999
1
1
1
1
1
1
1
1
0.999957
1
0.999705
0.999999
1
0.999957
1
1
1
0.999999
1
1
1
1
1
1
1
0.999995
1
0.99998
0.999983
0.999994
1
1
1
1
1
1
1
0.999997
0.999993
0.999969
0.99941
0.99973
1
0.999999
1
1
1
1
1
1
1
1
1
1
1
1
0.999986
0.999996
0.999998
1
0.999999
1
1
1
1
1
1
1
0.999997
0.999032
0.999695
0.824014
0.999999
1
0.999972
0.408996
0.324265
0.269613
0.251822
0.280819
0.399664
0.693875
0.973658
1
1
1
1
1
1
1
1
1
1
1
0.999996
1
1
0.999998
0.999996
0.998467
0.786188
0.000652438
1.80725e-06
1
0.999914
1.45698e-07
1.8255e-07
6.08279e-08
4.13321e-08
5.2652e-08
3.20294e-08
5.27635e-08
3.87003e-07
2.03532e-08
4.93475e-07
0.403122
0.927534
1
0.999999
1
0.999895
0.999999
0.999999
1
0.999798
0.999997
0.999998
0.999908
0.999996
0.985757
0.120972
5.56482e-06
1.96415e-06
5.75074e-05
0.999999
5.89549e-08
1.26396e-06
1.1031e-08
1.05407e-08
1.2016e-08
2.19881e-08
2.25537e-08
8.70084e-07
1.6771e-08
3.52577e-08
4.21362e-08
5.89532e-08
2.50987e-07
7.90429e-08
8.74793e-07
0.999949
0.999975
0.997941
0.999624
0.999983
1
1
0.999999
0.993872
0.958761
0.00480251
3.39589e-07
1.77784e-07
1.09943e-07
0.991336
1.73362e-08
3.71673e-08
2.76246e-06
1.0627e-08
1.17832e-08
6.22104e-06
2.13476e-07
4.82994e-05
1.59293e-08
3.60871e-07
2.79905e-05
1.01943e-05
9.92743e-08
1.13678e-07
7.51277e-06
7.42251e-06
0.999969
0.999986
0.999899
0.998023
0.999981
1
0.99986
0.822335
0.992639
6.42141e-07
6.10906e-07
1.6249e-07
7.69837e-08
0.00829856
0.000494794
0.00100542
0.00082297
5.69144e-10
2.08103e-08
0.000120535
0.999425
0.999983
0.999966
0.999936
0.999857
0.999803
0.99998
0.295148
3.56316e-07
4.05133e-05
9.11793e-07
1.17582e-07
1.0498e-07
3.49703e-05
9.91944e-07
9.11102e-08
3.52768e-07
1.87809e-07
4.40317e-05
5.40843e-08
2.074e-08
2.0457e-08
8.20521e-06
0.0203509
0.00253544
0.000730224
0.00082049
5.11873e-10
9.70263e-09
0.000330621
0.99839
0.999975
0.999988
0.999247
0.999554
0.99996
0.000163164
8.2655e-07
6.5673e-05
2.91641e-05
0.000117198
2.96709e-07
8.52019e-08
5.65258e-05
6.31002e-08
3.89453e-07
4.27779e-06
0.000137146
5.45413e-08
4.16157e-06
1.87777e-08
2.04838e-08
0.000101579
0.0406427
0.000162
0.00302413
0.000481733
3.81333e-10
1.29198e-09
0.000903324
0.998956
0.999996
0.99997
0.999247
0.999994
0.853366
8.64427e-06
4.4841e-06
8.95215e-05
0.00088754
3.21802e-05
8.5632e-08
8.53225e-08
1.2747e-05
9.83446e-08
6.3261e-08
0.000285416
0.000289062
1.60908e-08
0.000171841
2.16355e-07
1.94334e-08
7.02336e-07
0.000310214
0.00409104
3.47945e-05
0.000134959
5.00688e-10
2.07924e-07
4.41454e-05
0.985119
0.999918
0.999952
0.999986
0.999877
0.00014796
7.27284e-05
3.59546e-07
2.73008e-05
0.000853579
2.59459e-07
5.27376e-05
1.05301e-07
2.49355e-05
8.90054e-08
0.000295019
6.65388e-07
3.73929e-08
1.49188e-08
3.63004e-08
8.47576e-06
1.34435e-08
1.21438e-08
1.2978e-08
0.0066272
0.00343512
0.000390012
4.99709e-09
3.99936e-07
1.18245e-05
0.343415
0.999774
0.999799
0.999987
0.000121009
0.00519609
4.83119e-07
6.92044e-07
2.70044e-05
0.000888744
2.70531e-07
5.25023e-05
7.0176e-08
3.54881e-05
1.13782e-07
0.000819869
3.11585e-05
2.05342e-07
1.22548e-07
1.58181e-08
3.10351e-08
1.20235e-08
2.39393e-07
7.45046e-08
0.000178674
0.00432586
0.000456341
4.97573e-10
4.06527e-06
4.02335e-05
8.18532e-05
0.254697
0.999984
0.175227
6.06346e-06
0.00526155
9.24885e-07
6.60643e-07
5.00822e-07
0.000850723
2.57998e-07
7.03453e-05
7.4553e-08
6.49407e-08
1.15979e-06
0.000819853
4.86704e-08
2.12203e-06
4.11099e-08
1.70114e-08
1.05297e-06
1.28892e-08
1.36818e-08
6.98596e-08
0.00153518
0.00116451
0.000547052
3.74151e-10
1.03002e-07
0.00107431
8.74807e-05
9.5282e-05
0.306689
7.0466e-07
6.52081e-06
0.0046205
1.09375e-07
7.97791e-07
1.09723e-06
0.000188618
2.55971e-07
0.000134406
6.47599e-08
1.27589e-06
0.00010403
2.27709e-08
8.02561e-09
6.78239e-09
1.99938e-06
9.79769e-08
1.58513e-06
1.6638e-08
1.42011e-08
5.40902e-07
1.219e-06
0.000222565
0.000379865
5.13898e-10
9.59762e-06
0.000304238
0.00140346
0.000213037
4.36009e-07
5.47382e-05
0.000174284
0.001152
1.93455e-07
1.03188e-07
2.74018e-06
8.24854e-06
1.82092e-05
0.000143239
1.5349e-05
9.51879e-08
0.000110503
1.01648e-08
7.66656e-09
5.95784e-09
1.4953e-07
2.25269e-07
2.44032e-07
5.87926e-06
1.62153e-08
3.95198e-08
0.00452951
0.000138949
2.79887e-09
4.21599e-10
2.72359e-06
8.93257e-05
7.94313e-05
0.000316034
1.04421e-06
3.64196e-07
5.87316e-06
0.00214176
0.00052397
2.64903e-05
9.957e-08
1.30701e-07
1.77064e-05
0.000138707
1.17197e-05
9.35253e-08
2.22637e-05
8.94672e-09
7.46717e-09
1.12702e-05
8.11885e-07
2.76121e-08
2.52721e-07
4.35439e-05
2.07933e-08
4.30262e-07
0.00452875
0.000196398
8.76118e-11
5.94932e-10
4.03994e-06
1.28928e-05
0.000586066
1.26917e-06
3.41523e-06
6.73788e-05
1.74226e-06
0.000562482
0.000527681
2.81783e-05
3.08799e-05
7.55608e-05
5.99646e-05
7.58307e-08
1.28367e-05
1.41746e-05
1.10184e-07
1.36191e-07
7.19591e-08
7.96644e-06
1.42373e-08
1.38972e-06
2.17679e-05
2.04013e-07
3.38619e-07
9.35721e-07
0.000100599
5.09378e-06
3.31287e-11
1.16706e-09
2.0971e-05
0.000360942
3.3904e-05
2.54701e-07
2.51163e-07
3.96624e-05
3.27203e-06
8.53574e-05
0.000241834
6.24442e-09
2.70735e-07
2.85573e-07
0.00029578
7.53751e-08
8.16214e-05
1.75649e-05
1.04998e-07
8.39177e-09
6.95924e-09
6.83824e-09
1.17897e-07
7.39264e-08
3.9324e-07
6.93387e-09
6.07757e-09
7.29783e-09
0.00226985
2.98173e-06
2.66804e-11
4.91872e-10
2.92626e-06
2.052e-05
1.93674e-05
8.26621e-06
3.2202e-05
2.77357e-09
8.30717e-08
9.86852e-05
0.000327739
4.03382e-09
2.31081e-06
2.85384e-07
0.00024555
0.00026257
0.000184204
3.29106e-05
7.45291e-07
8.44871e-09
0.00117664
0.00131924
6.54089e-08
1.09403e-08
1.497e-06
0.000906092
0.000856419
8.04917e-09
0.00189575
1.5506e-13
2.01562e-11
2.45842e-10
2.68679e-06
0.000504877
1.29262e-05
6.75061e-09
1.10961e-09
1.57146e-07
6.22173e-08
8.19802e-07
6.70012e-07
6.58742e-09
1.86937e-09
4.61054e-06
1.37559e-06
3.22008e-05
1.71196e-07
4.13069e-06
6.47713e-08
7.23635e-09
1.30858e-06
1.02119e-07
1.12219e-08
1.01784e-08
1.03464e-08
3.08031e-08
1.17788e-05
6.45024e-09
0.00187886
1.56339e-13
1.06615e-11
7.69632e-10
6.11504e-06
0.00023319
0.000443393
2.26785e-07
1.74538e-09
1.16769e-09
0.000260758
5.80342e-06
5.86225e-06
3.0625e-06
1.87024e-09
0.000478564
4.05957e-07
2.19421e-05
6.72658e-08
2.21991e-08
4.14843e-07
2.49147e-08
3.29376e-06
1.37869e-06
1.03851e-08
0.000796354
0.000152217
2.7359e-07
1.24893e-05
1.66923e-05
0.00133509
2.27091e-13
8.78573e-12
2.78785e-10
2.27111e-05
0.000264984
5.48214e-06
1.25603e-08
8.3662e-10
9.37509e-10
0.000659498
3.33278e-09
1.91805e-09
1.86792e-09
1.87899e-09
0.0003171
1.89605e-08
4.88825e-08
1.14254e-06
1.73692e-08
7.93689e-08
9.25351e-07
6.63094e-07
4.76895e-08
3.0819e-05
4.2781e-07
3.33374e-08
3.64888e-08
6.30554e-06
9.26824e-09
8.96744e-05
1.07312e-06
7.02099e-12
6.36214e-10
2.40067e-06
1.38313e-05
0.000276886
3.24878e-06
9.04498e-10
6.63415e-10
1.80169e-15
0.000115407
3.20365e-08
8.46493e-09
2.06035e-09
1.31015e-06
1.50339e-08
1.99832e-08
1.89157e-07
1.69135e-08
1.71509e-08
3.78396e-06
2.28615e-06
8.36384e-08
3.66055e-07
2.60599e-06
1.13266e-05
1.58599e-06
7.46946e-09
7.45896e-09
0.00109694
5.20081e-14
5.49725e-12
1.98915e-10
2.98388e-05
0.000237438
0.000670058
1.20204e-09
1.02559e-07
9.67501e-10
2.93748e-09
0.000220689
2.12969e-09
1.86635e-09
1.90657e-09
2.02758e-08
1.91894e-05
1.66352e-08
0.000430679
0.00114839
1.73714e-08
1.42698e-08
2.76829e-05
7.22346e-08
9.68216e-08
6.67126e-06
1.01673e-05
2.67493e-08
7.02434e-08
2.31379e-08
0.0104287
4.74096e-10
5.31654e-12
1.7224e-10
9.08308e-06
3.18003e-05
3.18318e-05
5.81393e-08
1.05719e-09
2.21891e-09
1.84985e-09
1.73318e-09
2.79642e-09
2.01665e-09
1.96893e-09
2.43618e-09
2.05436e-05
8.92686e-06
3.31167e-08
5.53217e-07
7.07721e-07
1.01077e-08
5.337e-08
0.00120544
0.00182386
0.00112779
2.5963e-08
0.000162983
7.78169e-09
7.17264e-09
0.00181441
4.49872e-14
5.43788e-12
2.24986e-10
6.507e-07
6.85116e-05
6.58285e-05
0.00937646
1.48111e-09
1.37846e-09
2.63612e-09
7.23381e-07
4.2557e-09
8.95264e-08
2.56915e-09
1.4554e-05
9.30164e-07
3.11679e-08
1.63932e-07
5.71888e-07
1.7546e-08
8.38723e-07
5.89427e-07
8.97482e-09
9.51541e-09
1.56529e-05
2.59726e-07
2.14757e-06
7.35369e-09
1.01708e-08
0.00905877
2.12201e-08
3.48787e-12
2.22707e-10
2.94082e-08
8.34258e-07
0.000672696
0.00936123
7.94736e-05
3.07607e-09
9.32931e-06
1.73525e-07
1.70456e-06
1.19319e-08
1.42596e-05
9.67039e-09
0.00037982
2.70463e-08
1.04249e-06
1.78052e-06
6.76605e-05
2.34717e-06
9.08033e-06
8.89396e-09
1.06504e-07
7.15238e-09
2.80779e-07
5.19188e-08
9.11764e-09
2.13242e-07
0.0105882
4.40208e-09
1.34244e-12
1.41219e-10
7.18177e-10
0.000132661
0.000788381
3.27939e-05
0.00300174
0.000439814
2.43574e-10
9.11549e-06
2.57953e-06
6.98631e-06
8.00877e-07
4.11957e-09
2.60044e-07
2.73753e-08
1.61728e-06
1.22821e-08
8.30347e-09
2.32736e-08
2.30587e-05
3.25686e-06
5.94243e-06
7.04383e-09
6.92402e-09
7.00746e-09
8.45386e-09
1.3797e-08
1.70964e-06
1.33335e-13
7.5963e-13
6.05972e-11
5.82514e-10
0.00019564
6.62543e-06
2.55942e-05
0.00109134
3.25302e-08
1.53297e-10
8.63082e-06
2.83184e-07
5.53813e-09
3.91282e-09
4.0401e-09
6.44591e-09
8.85875e-06
3.84424e-07
3.10046e-08
5.33801e-06
7.68032e-09
1.04506e-08
1.08891e-07
7.14424e-06
7.11289e-09
7.55979e-09
3.65413e-06
1.08845e-07
7.44935e-09
5.71084e-08
6.68413e-12
6.97749e-13
7.51789e-11
1.04925e-06
1.08704e-06
1.19484e-05
2.25432e-05
0.000438662
4.82905e-09
8.23074e-11
9.04616e-08
2.87685e-08
4.8601e-07
3.54769e-07
4.17545e-06
1.04069e-07
0.000415927
1.71697e-08
1.87519e-06
6.99791e-07
7.59316e-09
8.16025e-08
1.26021e-06
8.3838e-09
5.03673e-07
1.78036e-05
4.62342e-06
2.0251e-06
3.62855e-06
2.85299e-15
9.33088e-16
4.01901e-13
9.63548e-11
1.014e-09
1.21814e-05
0.00487299
1.93822e-08
3.08302e-05
2.8568e-07
3.49628e-11
1.47875e-10
3.48533e-05
3.94534e-07
8.12758e-09
2.90285e-09
6.82094e-09
2.32698e-09
7.35306e-06
3.0718e-05
1.07939e-06
5.31684e-06
9.51659e-06
1.4346e-05
5.77654e-07
2.46907e-08
4.09231e-09
1.13349e-08
4.51124e-09
6.41213e-08
3.33988e-20
6.42398e-12
1.00945e-13
7.43306e-11
1.00666e-09
2.45162e-07
0.00241245
5.0737e-09
5.43391e-06
1.62066e-07
1.6924e-11
5.44492e-11
3.5327e-10
3.43569e-05
0.000322361
1.64699e-07
2.10864e-07
1.80539e-05
8.12604e-06
7.38711e-09
3.54583e-09
5.09428e-09
1.02595e-08
3.90667e-09
1.14293e-07
7.64456e-07
3.91978e-09
1.49016e-08
3.91049e-09
6.32069e-08
2.12232e-11
1.61883e-15
9.90222e-15
2.72626e-11
6.26794e-09
0.00369475
0.000307779
4.84251e-09
6.01455e-05
8.58882e-05
6.66999e-11
4.57867e-12
5.26479e-10
1.41546e-09
2.5147e-05
1.86871e-08
1.89732e-08
1.97792e-08
8.68779e-05
2.72245e-05
1.47177e-06
9.5934e-08
1.03516e-07
3.39264e-05
3.10346e-09
3.22106e-09
2.91266e-09
2.58645e-09
4.67394e-09
4.09888e-09
1.21324e-05
1.43058e-06
1.07273e-15
2.88379e-12
1.0308e-10
9.89068e-05
3.79708e-05
0.00030615
2.58593e-05
0.000150365
5.69625e-11
6.80086e-14
6.854e-12
3.04283e-11
8.21098e-08
4.2939e-08
1.20191e-06
1.81174e-06
1.78563e-06
5.94287e-09
2.15459e-06
1.17592e-06
6.65612e-05
8.73544e-05
1.04127e-05
3.43175e-05
3.67276e-09
1.42392e-08
3.87097e-09
2.97964e-09
6.3434e-06
9.88888e-09
5.45536e-17
4.92546e-13
1.23581e-10
1.49045e-07
3.69288e-05
0.000648407
2.12576e-06
0.000108344
3.76338e-11
2.86057e-16
5.22452e-14
1.47394e-12
9.11328e-12
1.40957e-07
4.61663e-07
5.36019e-09
6.78695e-09
2.42949e-08
4.46944e-09
1.13134e-07
6.91141e-09
1.06253e-07
1.51492e-08
8.06927e-05
3.9073e-09
3.16381e-09
3.27069e-05
1.1882e-08
4.59153e-08
3.91477e-07
7.80305e-19
3.33022e-14
2.36463e-11
4.8958e-10
7.04343e-06
1.72793e-05
3.91805e-08
1.14673e-07
8.13217e-12
1.14602e-18
5.2656e-17
5.12167e-15
1.27023e-13
4.81524e-12
7.90881e-11
1.39796e-09
5.36576e-10
8.20179e-10
1.69236e-09
1.252e-09
1.06604e-05
1.19872e-08
2.27948e-08
3.48274e-08
3.28722e-09
3.15907e-09
2.06e-05
4.87112e-08
9.74675e-16
3.21304e-15
1.44152e-21
7.11841e-16
1.75645e-12
9.82932e-11
3.28067e-10
0.00124651
5.42867e-07
2.60567e-11
1.79155e-14
2.56342e-21
4.54026e-23
3.62947e-20
1.15686e-17
2.17474e-15
1.80523e-13
2.3622e-11
4.63734e-12
4.50339e-12
3.97223e-11
2.85222e-10
2.43951e-10
2.02049e-10
3.87622e-06
4.35106e-06
3.80559e-06
2.17361e-06
1.19256e-06
2.63456e-09
4.15989e-07
2.18369e-08
2.21827e-08
6.09826e-07
1.05943e-08
2.40957e-08
2.34585e-08
6.47852e-05
1.61885e-08
9.26304e-09
1.2607e-07
0.000196703
1.78463e-06
0.000356817
0.000141105
9.12134e-05
4.13407e-05
0.999985
0.998579
0.999985
0.999113
0.99988
0.999996
0.138541
0.000253813
9.68535e-07
2.87511e-06
1.78016e-06
3.02755e-10
5.53308e-13
3.81246e-07
2.18957e-08
2.18247e-08
3.33214e-06
1.06015e-08
5.40926e-07
2.18138e-08
1.97724e-05
2.90949e-08
9.17196e-09
1.17558e-08
0.000322931
1.3111e-06
0.000108913
0.00118456
8.12039e-05
1.77311e-06
0.011083
0.99997
0.999939
0.999983
0.99992
0.99989
0.00917054
1.25423e-05
2.47508e-07
1.37454e-06
2.45954e-07
2.75257e-10
4.73917e-13
1.41801e-05
2.43273e-08
9.46772e-08
3.18918e-06
1.06411e-08
5.93926e-06
2.14336e-08
1.19319e-08
1.11808e-08
8.56527e-09
9.77973e-09
0.00028745
1.45065e-08
2.77289e-05
0.00118222
2.36653e-07
1.753e-06
0.000111204
0.971359
0.999995
0.999938
0.999963
0.999893
7.47999e-05
3.84717e-05
1.03401e-08
3.39706e-06
4.77069e-06
2.4298e-10
4.79895e-13
1.22819e-06
1.15793e-05
2.20697e-08
2.12395e-08
1.13316e-08
1.33844e-07
2.1385e-08
1.08969e-08
8.69224e-09
9.17216e-09
1.79176e-08
1.14621e-06
8.86616e-09
1.76449e-07
0.000345645
1.94354e-07
9.72968e-07
0.00370259
0.000226641
0.999994
0.999835
0.999895
0.99997
1.77348e-05
1.23054e-05
5.84912e-10
7.07341e-06
5.52219e-06
1.70024e-10
4.339e-13
6.1955e-06
1.42967e-07
2.19947e-08
2.08891e-08
4.48602e-06
1.06999e-08
4.18578e-06
3.06242e-07
8.59372e-09
3.15911e-06
7.49691e-09
8.28579e-09
8.62425e-09
7.42511e-09
0.000445856
0.000759316
3.98226e-08
0.00407965
0.000991755
0.00105478
0.999982
0.99998
0.773661
2.89188e-05
6.74905e-05
2.56103e-10
3.7755e-06
7.7302e-10
1.09644e-10
3.78106e-13
6.97065e-08
3.12908e-08
1.90152e-06
2.36148e-08
3.2467e-07
9.61096e-09
3.51141e-08
9.59176e-07
8.63323e-09
6.17802e-05
7.50627e-09
8.01331e-07
1.71573e-05
7.79497e-09
0.000446559
0.000761257
2.6978e-08
0.00402197
2.12523e-05
0.000294673
0.0707501
0.936461
1.88051e-05
3.11294e-06
4.52684e-05
1.80206e-10
7.00763e-07
7.01437e-06
6.67337e-11
3.31469e-13
4.27834e-06
1.31309e-07
2.3768e-08
8.70007e-08
5.68028e-07
1.79002e-08
1.07666e-06
9.59884e-07
2.41038e-08
5.78494e-07
7.64037e-09
8.92876e-09
3.17246e-05
6.06401e-07
0.000447343
0.000760622
2.01674e-07
0.000401595
8.95856e-06
9.59389e-06
2.74564e-05
4.37107e-05
1.95913e-05
3.41097e-05
4.22024e-06
1.21939e-10
4.29055e-10
3.77147e-08
3.61023e-11
3.00929e-13
1.1655e-05
2.33864e-08
3.88692e-07
4.90247e-07
2.91891e-07
7.83047e-09
9.1036e-06
1.64103e-06
1.33559e-08
2.04233e-08
2.30726e-07
5.07104e-08
3.16378e-05
2.03964e-07
0.00018165
1.52961e-05
1.59802e-08
0.00309108
7.66327e-05
1.97745e-05
3.34691e-05
2.08927e-05
6.22244e-05
5.50504e-06
0.000116179
2.00056e-11
1.33536e-10
2.9723e-10
1.66755e-11
2.84478e-13
7.85885e-07
1.85558e-06
1.81843e-06
5.10649e-07
3.53679e-08
6.99699e-07
2.71586e-08
1.65673e-08
1.61788e-07
2.27113e-06
2.07482e-07
1.0906e-08
1.67471e-07
4.28478e-08
9.98677e-09
0.000105752
1.68453e-08
2.87902e-06
3.96948e-06
3.81633e-06
2.72794e-05
5.69708e-05
2.32754e-06
3.97821e-07
9.80235e-06
8.90691e-12
1.50498e-11
3.10209e-11
6.45514e-12
2.73127e-13
3.94276e-06
3.66818e-08
9.66382e-09
3.88732e-07
1.55111e-08
4.43803e-08
1.35554e-07
1.37892e-08
1.35055e-06
1.10471e-05
1.19724e-05
3.25133e-05
8.46228e-08
4.40989e-08
1.02984e-08
0.000168941
3.73992e-07
1.47247e-08
9.09166e-06
4.40029e-06
0.000114617
4.11966e-05
2.7119e-06
5.59431e-08
2.04657e-05
1.42239e-11
5.54684e-13
8.42067e-13
2.14859e-12
2.56113e-13
1.00373e-08
8.61289e-09
8.42408e-09
5.35267e-06
1.06735e-08
7.40344e-07
2.71494e-07
1.28905e-08
2.70533e-08
7.14601e-06
1.28028e-08
3.23058e-05
7.5278e-08
1.86447e-06
1.03309e-08
2.67562e-07
8.80198e-09
4.61231e-08
0.00030057
0.000301102
8.42498e-05
2.57187e-05
1.93662e-06
3.14559e-08
4.40145e-05
1.52662e-11
1.29382e-14
8.01214e-15
6.8462e-13
2.26404e-13
7.01522e-09
7.28551e-09
4.0871e-08
1.6666e-06
8.13219e-09
6.85563e-09
4.5093e-08
2.26634e-08
1.39974e-08
1.45174e-05
8.9369e-09
3.62281e-08
4.86755e-07
1.38505e-08
9.22992e-08
2.31531e-07
8.70653e-09
6.74333e-05
3.07603e-05
1.84474e-06
1.84007e-06
0.00037981
2.27202e-06
2.65265e-05
3.75082e-06
1.01562e-11
3.25181e-15
3.46493e-16
2.49567e-13
1.83049e-13
1.66973e-08
9.26654e-09
7.34608e-09
2.23031e-06
2.4056e-08
5.61344e-09
0.000130768
1.39851e-08
1.35178e-08
2.06578e-05
6.10272e-08
1.87007e-07
1.53735e-06
7.09492e-08
2.59522e-07
8.65116e-09
8.64083e-09
0.000309049
0.00107307
2.21264e-06
1.86455e-06
2.17788e-06
5.58406e-07
4.72271e-06
2.89569e-09
5.2148e-12
9.51768e-16
6.47587e-17
1.04206e-13
1.30992e-13
6.7515e-06
3.7506e-08
3.40978e-07
8.90096e-09
2.55993e-08
5.78419e-09
3.5278e-08
0.000833573
9.85996e-09
9.16912e-09
9.03623e-09
9.00159e-09
6.49424e-06
1.12631e-08
9.57823e-09
1.08657e-08
6.51144e-07
4.47984e-06
0.000576502
1.98138e-06
2.59322e-06
2.80382e-06
6.42832e-07
2.67587e-05
7.46467e-07
2.4366e-12
2.88848e-16
1.01427e-17
3.88861e-14
7.94384e-14
7.96539e-09
8.06478e-09
5.66516e-07
2.37185e-07
6.91986e-05
2.874e-05
3.29383e-08
1.14694e-05
3.84341e-05
1.41904e-08
1.89527e-06
7.93487e-06
9.01281e-09
5.36845e-08
1.44922e-07
1.66554e-07
0.000345557
2.60454e-08
2.75081e-08
2.64071e-05
1.32699e-05
1.3269e-05
5.32477e-06
1.23036e-05
6.53156e-10
8.32419e-13
5.96474e-17
1.19145e-18
1.06095e-14
3.81266e-14
7.09231e-09
7.16295e-09
7.41338e-09
8.12996e-09
1.60689e-07
6.97782e-07
2.46731e-07
3.58354e-07
1.94409e-08
1.89869e-08
1.22856e-05
1.11669e-08
9.57408e-09
1.20617e-07
1.24045e-05
0.000172456
2.60085e-08
2.60242e-08
5.30808e-05
3.93537e-07
0.000584717
1.39037e-05
1.19953e-05
1.04714e-05
2.19419e-05
1.51924e-13
6.4108e-18
9.76778e-20
1.83143e-15
1.25964e-14
6.81473e-09
6.91529e-09
2.10625e-08
7.56004e-09
9.02714e-06
5.65401e-07
3.05462e-08
0.00546904
0.000580577
2.65279e-06
1.28748e-08
4.74613e-08
1.502e-08
2.117e-05
1.10631e-05
0.00019562
3.82193e-07
2.8909e-08
4.49702e-08
0.000206761
7.61647e-07
2.7452e-05
1.59101e-06
2.04665e-05
5.79108e-06
9.46668e-15
8.8161e-19
5.17963e-21
1.65429e-16
2.13092e-15
1.95684e-08
1.13138e-08
1.02873e-08
3.41001e-06
5.50878e-08
2.23783e-06
2.13823e-06
1.01151e-06
1.03314e-08
1.78419e-07
2.06313e-07
6.83114e-09
1.12353e-05
6.59069e-08
1.47202e-06
5.90615e-05
1.98685e-05
1.97629e-05
7.8351e-08
1.02888e-07
1.50295e-05
1.53528e-06
2.93135e-10
9.5399e-05
2.39454e-12
5.92606e-16
2.32284e-19
1.7062e-22
5.74923e-18
1.2459e-16
6.19045e-07
1.7497e-08
1.79376e-06
8.70453e-07
9.02535e-09
9.40045e-09
2.46034e-07
8.0275e-09
6.74942e-08
6.01051e-09
6.07375e-09
2.15686e-06
2.83277e-07
6.091e-09
1.0228e-07
2.98314e-09
1.02213e-09
9.63762e-10
7.66276e-08
6.17025e-07
9.59025e-08
5.10297e-06
1.47844e-10
1.94551e-05
5.36035e-06
1.58549e-16
7.21888e-20
7.67411e-24
4.7166e-20
1.86121e-18
1.48031e-08
2.01662e-07
1.35646e-08
8.78025e-09
8.87959e-09
8.48797e-07
6.32723e-09
8.83142e-09
6.55682e-09
6.39467e-09
6.50712e-09
3.06713e-05
4.57669e-09
1.73406e-08
2.07648e-05
4.69975e-08
1.423e-05
4.00297e-09
2.60521e-08
1.57275e-09
5.79194e-06
1.2736e-06
6.57055e-11
5.73453e-10
4.50809e-05
6.30164e-17
2.99662e-20
1.43462e-24
5.17342e-23
3.67648e-21
1.1812e-07
9.11372e-09
9.41536e-09
1.31055e-08
2.50219e-07
1.10743e-08
7.89443e-07
6.85846e-09
2.45541e-06
4.78471e-07
6.40045e-09
3.06756e-05
4.51924e-09
4.62282e-09
4.96435e-09
2.39713e-07
1.20308e-08
6.10802e-08
4.9629e-09
3.05243e-10
3.00062e-10
2.70208e-10
1.4134e-11
7.54803e-11
1.10378e-06
4.29856e-17
1.64964e-20
3.39757e-25
4.05497e-27
4.12701e-25
1.18651e-06
7.37162e-09
1.71016e-08
6.1453e-05
1.96509e-05
6.11639e-09
1.57588e-06
1.67482e-06
2.45338e-06
2.32985e-06
5.65849e-09
3.96948e-09
4.25266e-09
9.69277e-05
4.02271e-06
4.77822e-06
1.0124e-05
1.25873e-07
3.37379e-08
6.35e-10
2.94925e-10
7.14844e-11
6.51133e-12
9.01047e-13
3.44936e-13
4.3257e-17
1.19399e-20
8.20228e-26
3.96499e-32
7.12129e-31
4.16962e-06
6.28504e-09
3.00759e-08
1.24448e-06
1.27783e-06
5.95787e-09
3.53602e-06
4.49375e-08
6.489e-09
2.33041e-06
3.89882e-09
8.94428e-09
1.98898e-08
9.65492e-07
7.61684e-08
1.59985e-06
0.000161033
1.79561e-09
1.91441e-09
7.88236e-08
1.01746e-09
3.2459e-10
3.56445e-11
1.19756e-12
2.15002e-14
5.71869e-17
9.57364e-21
1.98791e-26
3.01579e-35
3.14378e-37
1.97404e-07
1.82653e-05
0.000184344
0.00019053
2.41053e-06
2.65251e-07
4.50361e-06
6.72758e-09
5.2523e-09
4.53702e-06
3.8961e-09
5.37447e-09
2.68014e-09
1.0472e-09
1.34823e-08
3.72517e-07
6.49118e-09
4.82259e-07
2.42613e-09
3.35978e-09
0.000152402
4.13786e-10
1.33027e-10
9.77562e-12
7.64291e-14
9.18617e-17
7.82115e-21
4.87526e-27
5.04703e-38
1.6661e-42
8.36659e-07
5.71257e-09
6.28769e-09
2.11006e-06
6.5796e-08
4.4078e-08
1.84257e-06
4.42658e-08
2.77851e-09
7.49635e-08
1.19183e-08
1.61167e-09
2.00428e-09
0.000241782
1.19474e-07
6.94441e-09
4.6972e-07
1.77165e-07
0.00173831
4.56349e-06
0.000379168
4.65303e-09
7.81407e-07
4.09568e-11
2.77157e-13
1.35331e-16
5.08552e-21
1.40132e-27
1.30074e-45
9.07794e-48
4.1278e-09
4.48468e-09
4.72388e-09
6.6501e-09
8.20184e-09
4.82776e-08
9.64238e-07
2.41256e-08
1.09462e-07
5.30891e-09
1.78675e-06
0.00221078
0.00355011
2.07729e-09
9.73504e-09
6.20715e-07
5.78289e-06
8.3735e-07
0.0016963
6.18173e-09
3.82491e-09
4.35362e-09
1.67651e-06
5.47253e-11
7.64472e-13
1.45015e-16
1.98911e-21
2.06563e-28
1.56667e-50
3.12978e-53
2.87262e-09
3.19085e-09
4.76046e-09
5.68982e-09
1.67645e-05
4.19176e-06
8.74308e-09
1.24546e-05
4.50951e-09
3.47858e-09
3.00327e-09
6.0248e-09
3.25751e-08
2.65078e-07
0.000345887
2.77567e-08
2.79929e-08
3.83721e-08
4.82705e-05
2.96358e-09
8.91563e-05
6.1105e-08
2.51456e-09
5.90014e-09
1.26753e-12
7.07136e-17
2.76685e-22
7.96786e-30
1.40102e-55
6.19661e-59
2.97746e-09
2.61426e-09
2.64105e-09
4.38895e-09
1.69477e-05
8.46613e-07
1.8046e-08
7.15555e-06
1.42382e-06
8.29634e-08
2.91573e-09
3.74097e-09
6.81825e-06
0.000348117
4.09867e-05
2.77482e-08
7.01732e-05
2.661e-05
1.92432e-06
4.83356e-05
1.41468e-08
6.47103e-06
1.50042e-05
1.86146e-08
9.97819e-13
8.94807e-18
5.60253e-24
2.30482e-32
4.86825e-60
4.67421e-64
3.00811e-09
3.14417e-09
2.40553e-09
3.35519e-09
3.84327e-09
2.20634e-06
4.78156e-05
6.40865e-06
2.46391e-05
2.35608e-08
3.665e-09
1.22417e-05
5.46658e-06
6.46568e-09
2.73533e-07
2.78838e-08
9.74038e-05
5.14018e-10
3.56513e-10
7.05742e-06
0.000131275
9.64404e-09
5.54503e-08
1.09549e-08
1.10678e-13
5.55245e-20
1.81037e-27
2.33391e-37
1.32798e-64
3.14049e-69
2.62803e-09
4.86696e-09
2.77804e-09
2.7245e-09
2.82187e-09
3.01987e-09
3.85896e-08
2.88503e-05
3.29985e-05
7.13292e-07
6.47114e-06
5.02731e-08
1.93812e-07
7.16397e-09
6.3125e-09
3.41924e-08
1.63178e-08
1.65284e-11
6.52025e-11
3.0802e-05
0.00053864
1.06644e-11
9.24524e-09
2.63632e-10
8.35031e-15
3.79629e-24
3.79956e-34
1.62747e-46
2.1942e-69
1.23461e-74
1
1
1
1
1
1
1
1
1
1
1
1
1
1
1
1
1
1
1
1
1
1
1
1
1
1
1
1
1
1
1
1
1
1
1
1
1
1
1
1
1
1
1
1
1
1
1
1
1
1
1
1
1
1
1
1
1
1
1
1
1
1
1
1
1
1
1
1
1
1
1
1
1
1
1
1
1
1
1
1
1
1
1
1
1
1
1
1
1
1
1
1
1
1
1
1
1
1
1
1
1
1
1
1
1
1
1
1
1
1
1
1
1
1
1
1
1
1
1
1
1
1
1
1
1
1
1
1
1
1
1
1
1
1
1
1
1
1
1
1
1
1
1
1
1
1
1
1
1
1
1
1
1
1
1
1
1
1
1
1
1
1
1
1
1
1
1
1
1
1
1
1
1
1
1
1
1
1
1
1
1
1
1
1
1
1
1
1
1
1
1
1
1
1
1
1
1
1
1
1
1
1
1
1
1
1
1
1
1
1
1
1
1
1
1
1
1
1
1
1
1
1
1
1
1
1
1
1
1
1
1
1
1
1
1
1
1
1
1
1
1
1
1
1
1
1
1
1
1
1
1
1
1
1
1
1
1
1
1
1
1
1
1
1
1
1
1
1
1
1
1
1
1
1
1
1
1
1
1
1
1
1
1
1
1
1
1
1
1
1
1
1
1
1
1
1
1
1
1
1
1
1
1
1
1
1
1
1
1
1
1
1
1
1
1
1
1
1
1
1
1
1
1
1
1
1
1
1
1
1
1
1
1
1
1
1
1
1
1
1
1
1
1
1
1
1
1
1
1
1
1
1
1
1
1
1
1
1
1
1
1
1
1
1
1
1
1
1
1
1
1
1
1
1
1
1
1
1
1
1
1
1
1
1
1
1
1
1
1
0.999997
1
1
1
1
1
1
1
1
1
1
1
1
1
1
1
1
1
1
1
1
1
1
1
1
1
1
1
1
1
1
1
1
1
1
1
1
1
1
1
1
1
1
1
1
1
1
1
1
1
1
1
1
1
1
1
1
1
1
1
1
1
1
1
1
1
1
1
1
1
1
1
1
1
1
1
1
1
1
1
1
1
1
1
1
1
1
1
1
1
1
1
1
1
1
1
1
1
1
1
1
1
1
1
1
1
1
1
1
1
1
1
1
1
1
1
1
1
1
1
1
1
1
1
1
1
1
1
1
1
1
1
1
1
1
1
1
1
1
1
1
1
1
1
1
1
1
1
1
1
1
1
1
1
1
1
1
1
1
1
1
1
1
1
1
1
1
1
1
1
1
1
1
1
1
1
1
1
1
1
1
1
1
1
1
1
1
0.996982
1
1
1
1
1
1
1
1
1
1
1
1
1
1
1
1
0.999999
0.999997
1
1
1
1
1
1
1
1
1
0.999973
1
0.988159
1
1
1
1
1
1
1
1
1
1
1
1
1
1
1
1
1
1
1
1
1
1
1
0.999999
1
1
0.999999
0.999262
1
0.987548
1
1
1
1
1
1
1
1
1
1
1
1
1
1
1
1
1
1
1
1
1
1
1
0.999989
1
1
0.999983
0.999986
1
0.999754
1
1
1
1
1
0.999996
1
1
1
1
1
1
1
1
1
1
1
1
1
1
1
1
1
0.999888
1
1
1
0.999993
0.999993
0.994329
1
1
1
1
0.999999
0.999892
1
1
1
1
1
1
1
1
1
1
1
1
1
1
1
1
1
0.999923
1
1
0.999585
0.919608
0.999983
1
1
1
0.999992
1
0.999852
0.999911
1
0.99999
0.999911
1
0.999993
0.999959
1
0.999999
1
1
1
0.999998
1
1
1
1
1
0.999778
0.999965
1
1
0.208399
0.999963
1
1
1
1
0.999976
0.999874
0.999782
0.999998
0.999755
0.999583
1
0.999996
0.999901
1
1
1
1
1
1