/*--------------------------------*- C++ -*----------------------------------*\
| =========                 |                                                 |
| \\      /  F ield         | OpenFOAM: The Open Source CFD Toolbox           |
|  \\    /   O peration     | Version:  2.4.0                                 |
|   \\  /    A nd           | Web:      www.OpenFOAM.org                      |
|    \\/     M anipulation  |                                                 |
\*---------------------------------------------------------------------------*/
FoamFile
{
    version     2.0;
    format      ascii;
    class       surfaceScalarField;
    location    "0.034";
    object      phi;
}
// * * * * * * * * * * * * * * * * * * * * * * * * * * * * * * * * * * * * * //

dimensions      [0 3 -1 0 0 0 0];

internalField   nonuniform List<scalar> 
119500
(
9.67831e-14
-9.67831e-14
5.04166e-14
4.52414e-14
-3.25316e-14
8.19568e-14
-1.16571e-13
8.30208e-14
-1.9381e-13
7.61845e-14
-2.72498e-13
7.75995e-14
-3.51302e-13
7.769e-14
-4.30483e-13
7.80475e-14
-5.0864e-13
7.70088e-14
-5.85803e-13
7.60011e-14
-6.62878e-13
7.58996e-14
-7.4188e-13
7.78146e-14
-8.2426e-13
8.11809e-14
-9.10363e-13
8.48958e-14
-9.99664e-13
8.80884e-14
-1.09105e-12
9.01713e-14
-1.1836e-12
9.1331e-14
-1.27715e-12
9.23256e-14
-1.37246e-12
9.41099e-14
-1.47098e-12
9.73231e-14
-1.57362e-12
1.01486e-13
-1.6812e-12
1.06469e-13
-1.79361e-12
1.11364e-13
-1.91003e-12
1.15458e-13
-2.02905e-12
1.18133e-13
-2.14925e-12
1.19417e-13
-2.26936e-12
1.19397e-13
-2.389e-12
1.18993e-13
-2.50858e-12
1.18978e-13
-2.62951e-12
1.2035e-13
-2.75446e-12
1.24383e-13
-2.88572e-12
1.30671e-13
-3.02508e-12
1.38761e-13
-3.17276e-12
1.47054e-13
-3.32758e-12
1.54195e-13
-3.48679e-12
1.58583e-13
-3.64879e-12
1.61367e-13
-3.81488e-12
1.65457e-13
-3.98985e-12
1.74334e-13
-4.17715e-12
1.8666e-13
-4.37951e-12
2.01709e-13
-4.59576e-12
2.15586e-13
-4.82446e-12
2.28025e-13
-5.0661e-12
2.40963e-13
-5.32059e-12
2.53797e-13
-5.5942e-12
2.72916e-13
-5.89052e-12
2.95601e-13
-6.21055e-12
3.19287e-13
-6.55683e-12
3.45508e-13
-6.92811e-12
3.70469e-13
-7.32077e-12
3.91822e-13
-7.73195e-12
4.10318e-13
-8.15795e-12
4.25113e-13
-8.59663e-12
4.37774e-13
-9.04695e-12
4.49412e-13
-9.50746e-12
4.59598e-13
-9.9779e-12
4.69542e-13
-1.04586e-11
4.79775e-13
-1.09494e-11
4.89955e-13
-1.14512e-11
5.00998e-13
-1.19649e-11
5.12911e-13
-1.24903e-11
5.2469e-13
-1.30268e-11
5.3589e-13
-1.35724e-11
5.45076e-13
-1.41229e-11
5.5e-13
-1.46728e-11
5.49467e-13
-1.5216e-11
5.42824e-13
-1.57457e-11
5.29473e-13
-1.62557e-11
5.09674e-13
-1.67403e-11
4.84359e-13
-1.71952e-11
4.54698e-13
-1.76179e-11
4.225e-13
-1.80079e-11
3.89822e-13
-1.83651e-11
3.56944e-13
-1.8688e-11
3.22792e-13
-1.89757e-11
2.87495e-13
-1.92279e-11
2.52028e-13
-1.94437e-11
2.15623e-13
-1.96221e-11
1.78287e-13
-1.97648e-11
1.42509e-13
-1.98758e-11
1.10866e-13
-1.99617e-11
8.58328e-14
-2.00319e-11
7.01054e-14
-2.00982e-11
6.63461e-14
-2.01739e-11
7.57259e-14
-2.02715e-11
9.77248e-14
-2.04036e-11
1.32251e-13
-2.05816e-11
1.78245e-13
-2.08159e-11
2.34444e-13
-2.11151e-11
2.99391e-13
-2.14858e-11
3.70826e-13
-2.19317e-11
4.4591e-13
-2.24534e-11
5.21718e-13
-2.30497e-11
5.96179e-13
-2.37125e-11
6.62762e-13
-2.44631e-11
7.50561e-13
-2.50923e-11
6.29251e-13
-2.63783e-11
1.28625e-12
-2.65208e-11
1.42708e-13
4.83153e-13
-2.70036e-11
1.86558e-13
-2.84494e-13
1.1527e-13
1.14539e-13
-1.76493e-14
2.13009e-13
-1.49111e-13
2.12561e-13
-2.78624e-13
2.03721e-13
-4.06915e-13
2.03872e-13
-5.36058e-13
2.04782e-13
-6.65408e-13
2.05322e-13
-7.94585e-13
2.04089e-13
-9.23806e-13
2.03107e-13
-1.05376e-12
2.03718e-13
-1.18627e-12
2.0818e-13
-1.32248e-12
2.15226e-13
-1.46281e-12
2.23065e-13
-1.60725e-12
2.30356e-13
-1.75517e-12
2.35923e-13
-1.90601e-12
2.40014e-13
-2.05989e-12
2.44069e-13
-2.21742e-12
2.49535e-13
-2.37975e-12
2.57624e-13
-2.54789e-12
2.67679e-13
-2.72249e-12
2.79227e-13
-2.90365e-12
2.9083e-13
-3.09093e-12
3.01183e-13
-3.2834e-12
3.09189e-13
-3.47991e-12
3.14636e-13
-3.68021e-12
3.18514e-13
-3.88388e-12
3.21544e-13
-4.09167e-12
3.25679e-13
-4.30548e-12
3.33074e-13
-4.52719e-12
3.44972e-13
-4.75964e-12
3.61972e-13
-5.00405e-12
3.81994e-13
-5.26126e-12
4.03057e-13
-5.53015e-12
4.21875e-13
-5.80927e-12
4.36484e-13
-6.09765e-12
4.48513e-13
-6.39768e-12
4.64264e-13
-6.71307e-12
4.88479e-13
-7.04779e-12
5.20125e-13
-7.40304e-12
5.55695e-13
-7.77942e-12
5.90687e-13
-8.17658e-12
6.23894e-13
-8.5941e-12
6.57187e-13
-9.03611e-12
6.94494e-13
-9.50661e-12
7.42065e-13
-1.00077e-11
7.95331e-13
-1.05424e-11
8.52575e-13
-1.1112e-11
9.13565e-13
-1.17152e-11
9.72128e-13
-1.23504e-11
1.02548e-12
-1.30155e-11
1.07386e-12
-1.37081e-11
1.11603e-12
-1.44264e-11
1.15445e-12
-1.51698e-11
1.19119e-12
-1.59376e-11
1.22586e-12
-1.67296e-11
1.25988e-12
-1.75461e-11
1.29479e-12
-1.83883e-11
1.33076e-12
-1.92569e-11
1.36824e-12
-2.01524e-11
1.40717e-12
-2.10752e-11
1.44643e-12
-2.20245e-11
1.48425e-12
-2.29979e-11
1.51763e-12
-2.39918e-11
1.54319e-12
-2.50011e-11
1.55814e-12
-2.60194e-11
1.56056e-12
-2.70401e-11
1.54969e-12
-2.80569e-11
1.52595e-12
-2.90635e-11
1.49057e-12
-3.0055e-11
1.44581e-12
-3.10278e-11
1.39496e-12
-3.19794e-11
1.34113e-12
-3.29079e-11
1.28502e-12
-3.38113e-11
1.22592e-12
-3.46882e-11
1.16403e-12
-3.55368e-11
1.1003e-12
-3.63561e-11
1.03461e-12
-3.71467e-11
9.6851e-13
-3.79109e-11
9.06517e-13
-3.86543e-11
8.54072e-13
-3.93854e-11
8.16895e-13
-4.01159e-11
8.00622e-13
-4.08596e-11
8.10072e-13
-4.16316e-11
8.47941e-13
-4.24481e-11
9.14562e-13
-4.33249e-11
1.00936e-12
-4.42767e-11
1.13027e-12
-4.53165e-11
1.27451e-12
-4.64556e-11
1.43863e-12
-4.7702e-11
1.61734e-12
-4.906e-11
1.80386e-12
-5.05286e-11
1.9903e-12
-5.2101e-11
2.16852e-12
-5.3765e-11
2.32689e-12
-5.54941e-11
2.47987e-12
-5.72559e-11
2.39146e-12
-5.9161e-11
3.19194e-12
-6.06312e-11
1.61356e-12
1.44206e-12
-6.15893e-11
1.85039e-13
-4.70529e-13
1.04407e-13
1.93448e-13
-3.4954e-14
3.50763e-13
-1.73764e-13
3.49725e-13
-3.13362e-13
3.41638e-13
-4.51161e-13
3.39966e-13
-5.89356e-13
3.41259e-13
-7.28012e-13
3.42251e-13
-8.68001e-13
3.42346e-13
-1.00969e-12
3.4306e-13
-1.15314e-12
3.45427e-13
-1.29885e-12
3.52152e-13
-1.44699e-12
3.61622e-13
-1.5979e-12
3.72232e-13
-1.7522e-12
3.82918e-13
-1.91028e-12
3.92274e-13
-2.07256e-12
4.00573e-13
-2.23934e-12
4.09147e-13
-2.41078e-12
4.19289e-13
-2.58721e-12
4.32423e-13
-2.76893e-12
4.47829e-13
-2.95613e-12
4.6493e-13
-3.14925e-12
4.82549e-13
-3.34849e-12
4.99112e-13
-3.55408e-12
5.13573e-13
-3.76635e-12
5.25763e-13
-3.98604e-12
5.3712e-13
-4.21311e-12
5.4756e-13
-4.44849e-12
5.5999e-13
-4.69296e-12
5.76455e-13
-4.94655e-12
5.97431e-13
-5.2107e-12
6.24935e-13
-5.48568e-12
6.55754e-13
-5.77271e-12
6.88832e-13
-6.07152e-12
7.19413e-13
-6.38346e-12
7.47147e-13
-6.7089e-12
7.7267e-13
-7.04931e-12
8.03403e-13
-7.40515e-12
8.43041e-13
-7.77842e-12
8.92133e-13
-8.16817e-12
9.44192e-13
-8.57695e-12
9.9822e-13
-9.00507e-12
1.05079e-12
-9.45276e-12
1.10366e-12
-9.92418e-12
1.1647e-12
-1.04177e-11
1.2344e-12
-1.09353e-11
1.31162e-12
-1.14799e-11
1.39594e-12
-1.20493e-11
1.48172e-12
-1.26443e-11
1.56581e-12
-1.32654e-11
1.64526e-12
-1.39124e-11
1.71944e-12
-1.45865e-11
1.78879e-12
-1.52876e-11
1.85422e-12
-1.60152e-11
1.91754e-12
-1.67705e-11
1.97984e-12
-1.7553e-11
2.04113e-12
-1.83627e-11
2.10331e-12
-1.92005e-11
2.1675e-12
-2.00662e-11
2.23285e-12
-2.0959e-11
2.29902e-12
-2.18786e-11
2.3652e-12
-2.28235e-11
2.4284e-12
-2.37915e-11
2.48494e-12
-2.47805e-11
2.53165e-12
-2.57877e-11
2.5648e-12
-2.68089e-11
2.58129e-12
-2.78398e-11
2.58016e-12
-2.88757e-11
2.56138e-12
-2.99115e-11
2.52599e-12
-3.09427e-11
2.47669e-12
-3.1965e-11
2.4169e-12
-3.29735e-11
2.34927e-12
-3.3964e-11
2.27516e-12
-3.49341e-11
2.19557e-12
-3.58821e-11
2.11172e-12
-3.68071e-11
2.02484e-12
-3.77098e-11
1.93695e-12
-3.85934e-11
1.85182e-12
-3.94627e-11
1.77553e-12
-4.03245e-11
1.7156e-12
-4.11877e-11
1.67996e-12
-4.20635e-11
1.67642e-12
-4.29644e-11
1.71101e-12
-4.39038e-11
1.78747e-12
-4.48967e-11
1.90762e-12
-4.5958e-11
2.07088e-12
-4.71025e-11
2.27491e-12
-4.83436e-11
2.5158e-12
-4.96925e-11
2.78771e-12
-5.11578e-11
3.08274e-12
-5.27442e-11
3.3904e-12
-5.44514e-11
3.69774e-12
-5.6273e-11
3.99032e-12
-5.81945e-11
4.24868e-12
-6.01861e-11
4.47196e-12
-6.22635e-11
4.46945e-12
-6.41889e-11
5.11796e-12
-6.62241e-11
3.64948e-12
2.45786e-12
-6.7239e-11
1.52483e-13
-6.23925e-13
8.02219e-14
2.64104e-13
-5.21317e-14
4.81622e-13
-1.89741e-13
4.85815e-13
-3.28411e-13
4.78772e-13
-4.66194e-13
4.76209e-13
-6.04439e-13
4.77968e-13
-7.43447e-13
4.79732e-13
-8.84372e-13
4.81754e-13
-1.02752e-12
4.84706e-13
-1.1729e-12
4.89314e-13
-1.32042e-12
4.98188e-13
-1.46993e-12
5.0966e-13
-1.62174e-12
5.22581e-13
-1.77666e-12
5.36393e-13
-1.93526e-12
5.49426e-13
-2.09838e-12
5.6226e-13
-2.26631e-12
5.75646e-13
-2.43913e-12
5.90702e-13
-2.61699e-12
6.08892e-13
-2.79968e-12
6.29173e-13
-2.98751e-12
6.51448e-13
-3.18102e-12
6.74804e-13
-3.3805e-12
6.97397e-13
-3.58683e-12
7.18735e-13
-3.80128e-12
7.39084e-13
-4.02409e-12
7.58807e-13
-4.25631e-12
7.78634e-13
-4.49839e-12
8.00884e-13
-4.75031e-12
8.2714e-13
-5.01226e-12
8.58069e-13
-5.28314e-12
8.94455e-13
-5.56444e-12
9.35629e-13
-5.85648e-12
9.79421e-13
-6.16084e-12
1.0223e-12
-6.47878e-12
1.06361e-12
-6.81195e-12
1.10437e-12
-7.16029e-12
1.15029e-12
-7.52432e-12
1.20564e-12
-7.90309e-12
1.26952e-12
-8.29746e-12
1.3372e-12
-8.70755e-12
1.40699e-12
-9.13561e-12
1.47757e-12
-9.5836e-12
1.55039e-12
-1.00505e-11
1.6304e-12
-1.05369e-11
1.7196e-12
-1.10433e-11
1.81676e-12
-1.15683e-11
1.91972e-12
-1.2113e-11
2.02522e-12
-1.26786e-11
2.13021e-12
-1.32663e-11
2.23178e-12
-1.38776e-11
2.3295e-12
-1.45135e-11
2.42357e-12
-1.51753e-11
2.51487e-12
-1.58636e-11
2.60471e-12
-1.65787e-11
2.69387e-12
-1.73212e-11
2.78262e-12
-1.80911e-11
2.87226e-12
-1.88879e-11
2.96345e-12
-1.97114e-11
3.05544e-12
-2.05607e-11
3.14752e-12
-2.14344e-11
3.23828e-12
-2.23314e-11
3.32471e-12
-2.32499e-11
3.4028e-12
-2.41878e-11
3.46905e-12
-2.51432e-11
3.51971e-12
-2.61135e-11
3.55115e-12
-2.70953e-11
3.56147e-12
-2.80845e-11
3.55011e-12
-2.90766e-11
3.51774e-12
-3.00669e-11
3.46662e-12
-3.10503e-11
3.39987e-12
-3.20215e-11
3.32001e-12
-3.29757e-11
3.22897e-12
-3.39097e-11
3.12906e-12
-3.48214e-11
3.02293e-12
-3.57105e-11
2.91347e-12
-3.65786e-11
2.80461e-12
-3.74296e-11
2.70243e-12
-3.82695e-11
2.6151e-12
-3.91057e-11
2.5516e-12
-3.99474e-11
2.52144e-12
-4.08053e-11
2.53425e-12
-4.16917e-11
2.5974e-12
-4.26197e-11
2.71548e-12
-4.36034e-11
2.8914e-12
-4.46578e-11
3.12542e-12
-4.57977e-11
3.41494e-12
-4.70368e-11
3.75513e-12
-4.83872e-11
4.13834e-12
-4.98581e-11
4.55391e-12
-5.1455e-11
4.98765e-12
-5.31786e-11
5.42172e-12
-5.50236e-11
5.83585e-12
-5.69762e-11
6.20186e-12
-5.90079e-11
6.50437e-12
-6.1131e-11
6.59331e-12
-6.30733e-11
7.06107e-12
-6.51927e-11
5.76974e-12
3.48392e-12
-6.62178e-11
1.37815e-13
-7.62608e-13
6.45089e-14
3.35878e-13
-6.19846e-14
6.06694e-13
-1.96696e-13
6.19097e-13
-3.33218e-13
6.13868e-13
-4.69948e-13
6.11524e-13
-6.07402e-13
6.14029e-13
-7.45919e-13
6.1688e-13
-8.86454e-13
6.20946e-13
-1.02914e-12
6.26071e-13
-1.17426e-12
6.33139e-13
-1.32143e-12
6.44085e-13
-1.47055e-12
6.57529e-13
-1.62201e-12
6.72802e-13
-1.7766e-12
6.89759e-13
-1.93474e-12
7.06349e-13
-2.09745e-12
7.23752e-13
-2.26495e-12
7.41935e-13
-2.43732e-12
7.61864e-13
-2.61473e-12
7.85092e-13
-2.79696e-12
8.10209e-13
-2.98427e-12
8.37578e-13
-3.17724e-12
8.66603e-13
-3.37615e-12
8.95144e-13
-3.58202e-12
9.23441e-13
-3.79614e-12
9.52016e-13
-4.01909e-12
9.80532e-13
-4.2518e-12
1.01007e-12
-4.4947e-12
1.04243e-12
-4.74771e-12
1.07873e-12
-5.01045e-12
1.11931e-12
-5.28237e-12
1.1648e-12
-5.56384e-12
1.21547e-12
-5.85641e-12
1.27032e-12
-6.16131e-12
1.32551e-12
-6.48014e-12
1.38076e-12
-6.81389e-12
1.43646e-12
-7.16286e-12
1.49764e-12
-7.52654e-12
1.56775e-12
-7.90481e-12
1.64627e-12
-8.29793e-12
1.72885e-12
-8.70671e-12
1.81437e-12
-9.13275e-12
1.90226e-12
-9.57739e-12
1.99375e-12
-1.00411e-11
2.09287e-12
-1.05224e-11
2.19967e-12
-1.1021e-11
2.31419e-12
-1.15374e-11
2.43493e-12
-1.20722e-11
2.55881e-12
-1.26262e-11
2.68312e-12
-1.32014e-11
2.80581e-12
-1.37989e-11
2.92599e-12
-1.44205e-11
3.04407e-12
-1.50673e-11
3.16072e-12
-1.57401e-11
3.27653e-12
-1.64393e-11
3.39221e-12
-1.71656e-11
3.50813e-12
-1.79191e-11
3.62488e-12
-1.86991e-11
3.7427e-12
-1.95053e-11
3.86097e-12
-2.0337e-11
3.9785e-12
-2.11927e-11
4.09339e-12
-2.20712e-11
4.20257e-12
-2.2971e-11
4.30204e-12
-2.38904e-11
4.388e-12
-2.48275e-11
4.45628e-12
-2.57796e-11
4.50275e-12
-2.67434e-11
4.52478e-12
-2.77151e-11
4.52137e-12
-2.86905e-11
4.49267e-12
-2.96645e-11
4.44015e-12
-3.06315e-11
4.36635e-12
-3.15857e-11
4.27379e-12
-3.25225e-11
4.16523e-12
-3.34383e-11
4.04429e-12
-3.43307e-11
3.91484e-12
-3.51992e-11
3.78143e-12
-3.60455e-11
3.65038e-12
-3.68735e-11
3.53005e-12
-3.76892e-11
3.43048e-12
-3.85005e-11
3.36261e-12
-3.9317e-11
3.33773e-12
-4.01495e-11
3.36661e-12
-4.101e-11
3.45778e-12
-4.1912e-11
3.61747e-12
-4.28703e-11
3.84965e-12
-4.38999e-11
4.1551e-12
-4.50161e-11
4.53124e-12
-4.62331e-11
4.97241e-12
-4.7564e-11
5.46958e-12
-4.90191e-11
6.00947e-12
-5.06052e-11
6.57431e-12
-5.23243e-11
7.14155e-12
-5.41717e-11
7.68397e-12
-5.61345e-11
8.16558e-12
-5.81868e-11
8.55754e-12
-6.03285e-11
8.73585e-12
-6.23304e-11
9.06394e-12
-6.44289e-11
7.86914e-12
4.47847e-12
-6.54224e-11
1.26229e-13
-8.8967e-13
5.35279e-14
4.07114e-13
-6.81825e-14
7.27054e-13
-2.00273e-13
7.49845e-13
-3.34753e-13
7.47021e-13
-4.70498e-13
7.4597e-13
-6.07295e-13
7.49559e-13
-7.45417e-13
7.53767e-13
-8.85482e-13
7.5981e-13
-1.02751e-12
7.66928e-13
-1.17198e-12
7.76469e-13
-1.31852e-12
7.8952e-13
-1.46713e-12
8.05057e-13
-1.61829e-12
8.22887e-13
-1.77266e-12
8.43078e-13
-1.93042e-12
8.63064e-13
-2.09265e-12
8.8493e-13
-2.25963e-12
9.07856e-13
-2.43134e-12
9.32505e-13
-2.60808e-12
9.60751e-13
-2.78986e-12
9.90902e-13
-2.97679e-12
1.0234e-12
-3.16947e-12
1.05815e-12
-3.36836e-12
1.09287e-12
-3.57402e-12
1.1279e-12
-3.78781e-12
1.16455e-12
-4.01045e-12
1.20185e-12
-4.24251e-12
1.24073e-12
-4.48483e-12
1.28327e-12
-4.73713e-12
1.32946e-12
-4.99914e-12
1.37966e-12
-5.27044e-12
1.43438e-12
-5.55127e-12
1.49453e-12
-5.84328e-12
1.56054e-12
-6.14791e-12
1.62833e-12
-6.46625e-12
1.69732e-12
-6.79943e-12
1.76789e-12
-7.14734e-12
1.84386e-12
-7.50952e-12
1.92828e-12
-7.88626e-12
2.02144e-12
-8.27779e-12
2.11889e-12
-8.68506e-12
2.22022e-12
-9.10978e-12
2.32562e-12
-9.552e-12
2.43467e-12
-1.00124e-11
2.55204e-12
-1.04905e-11
2.67653e-12
-1.09864e-11
2.80895e-12
-1.15006e-11
2.94793e-12
-1.2033e-11
3.09009e-12
-1.25846e-11
3.23358e-12
-1.31567e-11
3.37696e-12
-1.37513e-11
3.51952e-12
-1.43695e-11
3.66139e-12
-1.50128e-11
3.80305e-12
-1.56817e-11
3.94459e-12
-1.63769e-11
4.08668e-12
-1.70991e-11
4.22959e-12
-1.78482e-11
4.37328e-12
-1.86241e-11
4.51785e-12
-1.94263e-11
4.66258e-12
-2.02542e-11
4.8058e-12
-2.11067e-11
4.94526e-12
-2.19825e-11
5.0778e-12
-2.28804e-11
5.19932e-12
-2.37986e-11
5.30564e-12
-2.47351e-11
5.39218e-12
-2.5687e-11
5.45416e-12
-2.6651e-11
5.48828e-12
-2.76232e-11
5.49305e-12
-2.8599e-11
5.46797e-12
-2.95731e-11
5.41375e-12
-3.05397e-11
5.33243e-12
-3.14931e-11
5.22663e-12
-3.2428e-11
5.09961e-12
-3.33405e-11
4.95616e-12
-3.42279e-11
4.80175e-12
-3.50897e-11
4.6427e-12
-3.59273e-11
4.48754e-12
-3.67445e-11
4.34678e-12
-3.75469e-11
4.23257e-12
-3.83426e-11
4.15804e-12
-3.91414e-11
4.13633e-12
-3.99544e-11
4.17943e-12
-4.07941e-11
4.29731e-12
-4.16745e-11
4.49784e-12
-4.26109e-11
4.786e-12
-4.36191e-11
5.16334e-12
-4.47152e-11
5.62746e-12
-4.59144e-11
6.17187e-12
-4.72307e-11
6.78632e-12
-4.86758e-11
7.45519e-12
-5.02579e-11
8.15712e-12
-5.198e-11
8.86458e-12
-5.38385e-11
9.54344e-12
-5.58228e-11
1.01508e-11
-5.79087e-11
1.06444e-11
-6.00852e-11
1.09134e-11
-6.2173e-11
1.11527e-11
-6.42764e-11
9.97348e-12
5.49985e-12
-6.52967e-11
1.16789e-13
-1.00726e-12
4.54286e-14
4.7708e-13
-7.2433e-14
8.4364e-13
-2.02439e-13
8.78593e-13
-3.35222e-13
8.78571e-13
-4.70088e-13
8.79636e-13
-6.06267e-13
8.84573e-13
-7.43984e-13
8.90354e-13
-8.83543e-13
8.98271e-13
-1.02494e-12
9.07255e-13
-1.16869e-12
9.19188e-13
-1.31458e-12
9.34403e-13
-1.46269e-12
9.52178e-13
-1.61349e-12
9.72715e-13
-1.76747e-12
9.96096e-13
-1.92487e-12
1.0195e-12
-2.08657e-12
1.04567e-12
-2.25288e-12
1.07319e-12
-2.42394e-12
1.10256e-12
-2.60004e-12
1.13583e-12
-2.78126e-12
1.17108e-12
-2.96794e-12
1.20899e-12
-3.1604e-12
1.24949e-12
-3.35923e-12
1.29051e-12
-3.56491e-12
1.33234e-12
-3.77837e-12
1.37668e-12
-4.00052e-12
1.4226e-12
-4.23171e-12
1.47045e-12
-4.47281e-12
1.52281e-12
-4.72408e-12
1.57909e-12
-4.98497e-12
1.63886e-12
-5.25536e-12
1.70301e-12
-5.53535e-12
1.77274e-12
-5.82649e-12
1.84989e-12
-6.1305e-12
1.93055e-12
-6.44796e-12
2.01302e-12
-6.78003e-12
2.09825e-12
-7.12658e-12
2.18875e-12
-7.48717e-12
2.28729e-12
-7.86191e-12
2.39467e-12
-8.25186e-12
2.5074e-12
-8.65722e-12
2.6242e-12
-9.07954e-12
2.74664e-12
-9.52009e-12
2.87396e-12
-9.97854e-12
3.00927e-12
-1.04553e-11
3.15211e-12
-1.09501e-11
3.30259e-12
-1.14626e-11
3.45932e-12
-1.19937e-11
3.62014e-12
-1.25444e-11
3.78321e-12
-1.31162e-11
3.94779e-12
-1.37107e-11
4.11299e-12
-1.43287e-11
4.27851e-12
-1.49714e-11
4.44489e-12
-1.56397e-11
4.61214e-12
-1.63342e-11
4.78036e-12
-1.70553e-11
4.94997e-12
-1.78034e-11
5.12074e-12
-1.85786e-11
5.29234e-12
-1.93805e-11
5.46384e-12
-2.02086e-11
5.63331e-12
-2.10622e-11
5.7982e-12
-2.19402e-11
5.95516e-12
-2.28413e-11
6.09974e-12
-2.37635e-11
6.22721e-12
-2.47046e-11
6.33269e-12
-2.56621e-11
6.41105e-12
-2.66325e-11
6.45815e-12
-2.76115e-11
6.47148e-12
-2.85939e-11
6.44983e-12
-2.95741e-11
6.39346e-12
-3.05461e-11
6.30393e-12
-3.1504e-11
6.18396e-12
-3.24424e-11
6.03739e-12
-3.33565e-11
5.86981e-12
-3.42435e-11
5.68824e-12
-3.51025e-11
5.50118e-12
-3.59348e-11
5.31938e-12
-3.67438e-11
5.15553e-12
-3.75355e-11
5.02393e-12
-3.83174e-11
4.93974e-12
-3.90993e-11
4.91807e-12
-3.98929e-11
4.97281e-12
-4.07114e-11
5.11563e-12
-4.15695e-11
5.35586e-12
-4.24831e-11
5.69959e-12
-4.34689e-11
6.14917e-12
-4.4544e-11
6.7027e-12
-4.57251e-11
7.35327e-12
-4.70274e-11
8.08914e-12
-4.84641e-11
8.89254e-12
-5.00447e-11
9.73855e-12
-5.17739e-11
1.05947e-11
-5.36499e-11
1.14205e-11
-5.56642e-11
1.2166e-11
-5.77949e-11
1.2776e-11
-6.00248e-11
1.31441e-11
-6.22141e-11
1.33427e-11
-6.4367e-11
1.21272e-11
6.58637e-12
-6.54524e-11
1.10774e-13
-1.11879e-12
4.05318e-14
5.46005e-13
-7.48905e-14
9.57863e-13
-2.03446e-13
1.00597e-12
-3.34983e-13
1.00896e-12
-4.69116e-13
1.01265e-12
-6.04729e-13
1.01909e-12
-7.42012e-13
1.02657e-12
-8.80998e-13
1.03621e-12
-1.02179e-12
1.04702e-12
-1.1648e-12
1.06119e-12
-1.30998e-12
1.0786e-12
-1.45753e-12
1.09876e-12
-1.60787e-12
1.1221e-12
-1.76121e-12
1.14849e-12
-1.91811e-12
1.17545e-12
-2.07932e-12
1.20591e-12
-2.24476e-12
1.23766e-12
-2.4151e-12
1.2719e-12
-2.5907e-12
1.31041e-12
-2.77126e-12
1.35058e-12
-2.95754e-12
1.39417e-12
-3.1498e-12
1.4406e-12
-3.34825e-12
1.48774e-12
-3.55385e-12
1.53666e-12
-3.76709e-12
1.58857e-12
-3.98855e-12
1.64265e-12
-4.21883e-12
1.69924e-12
-4.45839e-12
1.76083e-12
-4.70825e-12
1.82735e-12
-4.96805e-12
1.89704e-12
-5.23757e-12
1.97088e-12
-5.51672e-12
2.05024e-12
-5.8068e-12
2.13832e-12
-6.10978e-12
2.23191e-12
-6.42624e-12
2.32789e-12
-6.75696e-12
2.42743e-12
-7.10197e-12
2.53229e-12
-7.46097e-12
2.64487e-12
-7.83413e-12
2.76648e-12
-8.22249e-12
2.89446e-12
-8.6268e-12
3.02726e-12
-9.04818e-12
3.16681e-12
-9.48716e-12
3.31177e-12
-9.94379e-12
3.46474e-12
-1.04187e-11
3.62593e-12
-1.09115e-11
3.79422e-12
-1.14223e-11
3.96908e-12
-1.19524e-11
4.14912e-12
-1.25026e-11
4.3324e-12
-1.30742e-11
4.51839e-12
-1.36683e-11
4.70619e-12
-1.4286e-11
4.89531e-12
-1.49284e-11
5.08641e-12
-1.55964e-11
5.27925e-12
-1.62904e-11
5.47363e-12
-1.70112e-11
5.66994e-12
-1.7759e-11
5.86786e-12
-1.85342e-11
6.06679e-12
-1.93366e-11
6.26554e-12
-2.01659e-11
6.4619e-12
-2.10216e-11
6.6531e-12
-2.19026e-11
6.83549e-12
-2.28078e-11
7.00419e-12
-2.37353e-11
7.15395e-12
-2.46828e-11
7.27952e-12
-2.56475e-11
7.37519e-12
-2.66259e-11
7.4359e-12
-2.76133e-11
7.45827e-12
-2.86044e-11
7.44038e-12
-2.95932e-11
7.38172e-12
-3.05731e-11
7.28332e-12
-3.15377e-11
7.14806e-12
-3.24813e-11
6.98046e-12
-3.33988e-11
6.78686e-12
-3.42867e-11
6.57572e-12
-3.51437e-11
6.35777e-12
-3.59707e-11
6.14604e-12
-3.6771e-11
5.95561e-12
-3.75504e-11
5.80312e-12
-3.83167e-11
5.70583e-12
-3.90796e-11
5.68086e-12
-3.98512e-11
5.74422e-12
-4.06454e-11
5.90968e-12
-4.14778e-11
6.18812e-12
-4.2365e-11
6.58679e-12
-4.33248e-11
7.10903e-12
-4.43755e-11
7.75358e-12
-4.55352e-11
8.51329e-12
-4.68208e-11
9.37522e-12
-4.82469e-11
1.03193e-11
-4.9825e-11
1.13174e-11
-5.1562e-11
1.23325e-11
-5.34588e-11
1.33181e-11
-5.5509e-11
1.42169e-11
-5.76937e-11
1.49615e-11
-5.99928e-11
1.5444e-11
-6.2297e-11
1.56477e-11
-6.45436e-11
1.43747e-11
7.75896e-12
-6.57152e-11
1.09149e-13
-1.22866e-12
3.93459e-14
6.14572e-13
-7.5338e-14
1.07142e-12
-2.03144e-13
1.13267e-12
-3.33932e-13
1.13866e-12
-4.67581e-13
1.14522e-12
-6.02737e-13
1.15319e-12
-7.39581e-13
1.16236e-12
-8.77898e-13
1.17348e-12
-1.01811e-12
1.1862e-12
-1.16035e-12
1.20241e-12
-1.30476e-12
1.22199e-12
-1.45161e-12
1.2446e-12
-1.60138e-12
1.27085e-12
-1.75402e-12
1.30012e-12
-1.91019e-12
1.3306e-12
-2.07081e-12
1.3655e-12
-2.23541e-12
1.40121e-12
-2.40493e-12
1.44037e-12
-2.57993e-12
1.48434e-12
-2.75984e-12
1.52939e-12
-2.9454e-12
1.57857e-12
-3.1374e-12
1.63141e-12
-3.33563e-12
1.68473e-12
-3.54071e-12
1.74044e-12
-3.75359e-12
1.80009e-12
-3.97432e-12
1.86199e-12
-4.20353e-12
1.92702e-12
-4.44161e-12
1.99748e-12
-4.68978e-12
2.07408e-12
-4.94819e-12
2.154e-12
-5.21691e-12
2.23817e-12
-5.49528e-12
2.3272e-12
-5.78422e-12
2.42587e-12
-6.08593e-12
2.53228e-12
-6.40102e-12
2.64169e-12
-6.7303e-12
2.75546e-12
-7.07394e-12
2.87471e-12
-7.43123e-12
3.00099e-12
-7.803e-12
3.13712e-12
-8.19041e-12
3.28076e-12
-8.59365e-12
3.42942e-12
-9.0134e-12
3.58548e-12
-9.45063e-12
3.74793e-12
-9.90574e-12
3.91878e-12
-1.03786e-11
4.09773e-12
-1.08699e-11
4.2844e-12
-1.13797e-11
4.47784e-12
-1.19086e-11
4.67707e-12
-1.24579e-11
4.88068e-12
-1.30286e-11
5.08801e-12
-1.36218e-11
5.29842e-12
-1.42388e-11
5.51133e-12
-1.48803e-11
5.72705e-12
-1.55475e-11
5.94554e-12
-1.62412e-11
6.16637e-12
-1.69616e-11
6.3895e-12
-1.77092e-11
6.61467e-12
-1.84845e-11
6.84122e-12
-1.92875e-11
7.06771e-12
-2.01182e-11
7.29172e-12
-2.0976e-11
7.51012e-12
-2.18602e-11
7.71887e-12
-2.27698e-11
7.91296e-12
-2.37033e-11
8.08663e-12
-2.4658e-11
8.2335e-12
-2.56309e-11
8.34734e-12
-2.66183e-11
8.42259e-12
-2.76154e-11
8.45475e-12
-2.86166e-11
8.44099e-12
-2.96155e-11
8.38005e-12
-3.0605e-11
8.27232e-12
-3.15781e-11
8.12069e-12
-3.25284e-11
7.93023e-12
-3.34501e-11
7.70825e-12
-3.43395e-11
7.46478e-12
-3.51946e-11
7.21252e-12
-3.60156e-11
6.9669e-12
-3.6806e-11
6.74575e-12
-3.75712e-11
6.56818e-12
-3.83192e-11
6.45374e-12
-3.90603e-11
6.42179e-12
-3.98067e-11
6.49042e-12
-4.05728e-11
6.67564e-12
-4.13751e-11
6.99031e-12
-4.22315e-11
7.44311e-12
-4.31609e-11
8.03848e-12
-4.41829e-11
8.77574e-12
-4.53172e-11
9.64797e-12
-4.65826e-11
1.0641e-11
-4.79955e-11
1.17327e-11
-4.95697e-11
1.28922e-11
-5.13146e-11
1.4078e-11
-5.32342e-11
1.52382e-11
-5.53244e-11
1.63077e-11
-5.75704e-11
1.7208e-11
-5.99529e-11
1.7827e-11
-6.23868e-11
1.80822e-11
-6.47702e-11
1.67587e-11
9.04064e-12
-6.60509e-11
1.1158e-13
-1.34092e-12
4.15329e-14
6.83465e-13
-7.39736e-14
1.18588e-12
-2.01719e-13
1.25937e-12
-3.32166e-13
1.26806e-12
-4.6554e-13
1.27755e-12
-6.00333e-13
1.28693e-12
-7.36729e-13
1.29769e-12
-8.74317e-13
1.31e-12
-1.01392e-12
1.32472e-12
-1.15536e-12
1.34275e-12
-1.299e-12
1.36453e-12
-1.44504e-12
1.38952e-12
-1.59403e-12
1.41873e-12
-1.74598e-12
1.45094e-12
-1.90131e-12
1.4848e-12
-2.06116e-12
1.52423e-12
-2.22501e-12
1.56391e-12
-2.39373e-12
1.60794e-12
-2.56789e-12
1.65735e-12
-2.74714e-12
1.70746e-12
-2.93196e-12
1.76219e-12
-3.12332e-12
1.82154e-12
-3.3212e-12
1.88135e-12
-3.52561e-12
1.94356e-12
-3.73781e-12
2.01098e-12
-3.95789e-12
2.08075e-12
-4.18595e-12
2.15379e-12
-4.42258e-12
2.23282e-12
-4.66913e-12
2.31939e-12
-4.92601e-12
2.40969e-12
-5.1934e-12
2.50442e-12
-5.47098e-12
2.60369e-12
-5.75887e-12
2.71272e-12
-6.05885e-12
2.83125e-12
-6.37239e-12
2.95427e-12
-6.69977e-12
3.08191e-12
-7.04132e-12
3.21535e-12
-7.39685e-12
3.35563e-12
-7.76649e-12
3.50586e-12
-8.1513e-12
3.66467e-12
-8.55288e-12
3.83008e-12
-8.97131e-12
4.00297e-12
-9.40724e-12
4.18289e-12
-9.86055e-12
4.3711e-12
-1.03317e-11
4.56784e-12
-1.08213e-11
4.773e-12
-1.13297e-11
4.98522e-12
-1.18575e-11
5.20392e-12
-1.24059e-11
5.42805e-12
-1.29757e-11
5.65681e-12
-1.35681e-11
5.88974e-12
-1.41842e-11
6.12642e-12
-1.4825e-11
6.36689e-12
-1.54916e-11
6.6111e-12
-1.61846e-11
6.85844e-12
-1.69047e-11
7.10858e-12
-1.76522e-11
7.36129e-12
-1.84278e-11
7.61585e-12
-1.92317e-11
7.87068e-12
-2.00641e-11
8.12311e-12
-2.09245e-11
8.3696e-12
-2.18125e-11
8.60593e-12
-2.27273e-11
8.82688e-12
-2.36674e-11
9.02585e-12
-2.46301e-11
9.1954e-12
-2.56123e-11
9.32879e-12
-2.66103e-11
9.41986e-12
-2.7619e-11
9.46276e-12
-2.86322e-11
9.45346e-12
-2.96428e-11
9.39007e-12
-3.06435e-11
9.27246e-12
-3.16265e-11
9.10324e-12
-3.25846e-11
8.88793e-12
-3.35115e-11
8.63484e-12
-3.44027e-11
8.35572e-12
-3.52557e-11
8.06529e-12
-3.60704e-11
7.78145e-12
-3.68497e-11
7.52486e-12
-3.7599e-11
7.31732e-12
-3.83264e-11
7.18096e-12
-3.90424e-11
7.13764e-12
-3.97598e-11
7.20766e-12
-4.04937e-11
7.40937e-12
-4.12614e-11
7.75792e-12
-4.2082e-11
8.26371e-12
-4.2976e-11
8.93252e-12
-4.39645e-11
9.76435e-12
-4.5069e-11
1.07527e-11
-4.63102e-11
1.18826e-11
-4.77071e-11
1.31299e-11
-4.92755e-11
1.4461e-11
-5.10279e-11
1.58308e-11
-5.29714e-11
1.7182e-11
-5.51052e-11
1.84418e-11
-5.74194e-11
1.95226e-11
-5.98991e-11
2.03071e-11
-6.24797e-11
2.06633e-11
-6.50393e-11
1.93191e-11
1.04645e-11
-6.64623e-11
1.16792e-13
-1.45835e-12
4.61897e-14
7.52998e-13
-7.10749e-14
1.30216e-12
-1.99287e-13
1.3866e-12
-3.29754e-13
1.39753e-12
-4.63011e-13
1.40979e-12
-5.97487e-13
1.42035e-12
-7.33403e-13
1.43252e-12
-8.70335e-13
1.44581e-12
-1.00926e-12
1.4625e-12
-1.14982e-12
1.48215e-12
-1.29272e-12
1.50624e-12
-1.43788e-12
1.53348e-12
-1.58594e-12
1.56557e-12
-1.73709e-12
1.60087e-12
-1.89166e-12
1.63813e-12
-2.05069e-12
1.68202e-12
-2.21373e-12
1.72573e-12
-2.38171e-12
1.7747e-12
-2.55496e-12
1.82938e-12
-2.7333e-12
1.88458e-12
-2.91736e-12
1.94503e-12
-3.10787e-12
2.0108e-12
-3.30499e-12
2.07721e-12
-3.50873e-12
2.14604e-12
-3.72009e-12
2.2211e-12
-3.93929e-12
2.29875e-12
-4.16629e-12
2.37962e-12
-4.40145e-12
2.4669e-12
-4.64626e-12
2.5632e-12
-4.90158e-12
2.66409e-12
-5.16736e-12
2.76935e-12
-5.44381e-12
2.87937e-12
-5.73069e-12
2.99887e-12
-6.02856e-12
3.12844e-12
-6.34001e-12
3.26506e-12
-6.66538e-12
3.40664e-12
-7.00434e-12
3.55366e-12
-7.35751e-12
3.70812e-12
-7.72477e-12
3.87243e-12
-8.10785e-12
4.04701e-12
-8.50789e-12
4.22933e-12
-8.92446e-12
4.4187e-12
-9.35807e-12
4.61562e-12
-9.80921e-12
4.82132e-12
-1.02785e-11
5.03614e-12
-1.07662e-11
5.25973e-12
-1.12728e-11
5.49092e-12
-1.17994e-11
5.72945e-12
-1.23466e-11
5.9743e-12
-1.29155e-11
6.22464e-12
-1.3507e-11
6.48024e-12
-1.41224e-11
6.74077e-12
-1.47626e-11
7.00603e-12
-1.54283e-11
7.2758e-12
-1.61206e-11
7.54967e-12
-1.68403e-11
7.82726e-12
-1.7588e-11
8.10799e-12
-1.83642e-11
8.39104e-12
-1.91693e-11
8.67476e-12
-2.00035e-11
8.95629e-12
-2.08669e-11
9.23197e-12
-2.17592e-11
9.49727e-12
-2.26797e-11
9.74643e-12
-2.3627e-11
9.97217e-12
-2.45989e-11
1.01664e-11
-2.55922e-11
1.03212e-11
-2.66024e-11
1.04293e-11
-2.76243e-11
1.04839e-11
-2.86514e-11
1.04798e-11
-2.96758e-11
1.04138e-11
-3.06894e-11
1.02855e-11
-3.16838e-11
1.00972e-11
-3.26511e-11
9.85475e-12
-3.35842e-11
9.56763e-12
-3.44778e-11
9.24906e-12
-3.53288e-11
8.9161e-12
-3.61369e-11
8.58935e-12
-3.69043e-11
8.29203e-12
-3.7636e-11
8.04881e-12
-3.834e-11
7.88477e-12
-3.90274e-11
7.82477e-12
-3.97118e-11
7.89185e-12
-4.04091e-11
8.10652e-12
-4.11375e-11
8.48626e-12
-4.19176e-11
9.04378e-12
-4.27711e-11
9.78609e-12
-4.3721e-11
1.07143e-11
-4.47905e-11
1.18223e-11
-4.60028e-11
1.30951e-11
-4.73796e-11
1.45069e-11
-4.89394e-11
1.6021e-11
-5.06977e-11
1.75893e-11
-5.26646e-11
1.91491e-11
-5.48442e-11
2.06216e-11
-5.72318e-11
2.19105e-11
-5.98191e-11
2.28948e-11
-6.25577e-11
2.34025e-11
-6.53185e-11
2.20805e-11
1.20569e-11
-6.691e-11
1.23543e-13
-1.58248e-12
5.2297e-14
8.23263e-13
-6.7087e-14
1.42064e-12
-1.96177e-13
1.51477e-12
-3.26936e-13
1.52733e-12
-4.60166e-13
1.54202e-12
-5.94395e-13
1.55353e-12
-7.29781e-13
1.56681e-12
-8.66195e-13
1.58109e-12
-1.00439e-12
1.59952e-12
-1.14397e-12
1.62052e-12
-1.28601e-12
1.64705e-12
-1.43018e-12
1.67639e-12
-1.57729e-12
1.71142e-12
-1.72741e-12
1.7497e-12
-1.88109e-12
1.79052e-12
-2.03922e-12
1.83886e-12
-2.20118e-12
1.88641e-12
-2.36833e-12
1.94058e-12
-2.54082e-12
2.00063e-12
-2.71828e-12
2.0608e-12
-2.90156e-12
2.12708e-12
-3.09123e-12
2.19925e-12
-3.28735e-12
2.27212e-12
-3.49024e-12
2.34774e-12
-3.70067e-12
2.43038e-12
-3.9188e-12
2.51579e-12
-4.14453e-12
2.60434e-12
-4.37841e-12
2.69987e-12
-4.62124e-12
2.80523e-12
-4.87493e-12
2.91707e-12
-5.13888e-12
3.03269e-12
-5.41375e-12
3.15369e-12
-5.69913e-12
3.28377e-12
-5.99541e-12
3.42427e-12
-6.30479e-12
3.57399e-12
-6.62788e-12
3.72927e-12
-6.96492e-12
3.89021e-12
-7.31641e-12
4.05908e-12
-7.6818e-12
4.23723e-12
-8.06269e-12
4.42724e-12
-8.46034e-12
4.62625e-12
-8.87458e-12
4.83215e-12
-9.30603e-12
5.04623e-12
-9.75503e-12
5.26945e-12
-1.02219e-11
5.50215e-12
-1.07076e-11
5.74446e-12
-1.12126e-11
5.99497e-12
-1.17375e-11
6.25343e-12
-1.22833e-11
6.51914e-12
-1.28509e-11
6.79126e-12
-1.34413e-11
7.06965e-12
-1.40557e-11
7.35408e-12
-1.46948e-11
7.64409e-12
-1.53594e-11
7.9394e-12
-1.60507e-11
8.23988e-12
-1.67696e-11
8.54512e-12
-1.75169e-11
8.85422e-12
-1.82931e-11
9.1662e-12
-1.90988e-11
9.47943e-12
-1.99345e-11
9.791e-12
-2.08006e-11
1.0097e-11
-2.1697e-11
1.03927e-11
-2.26232e-11
1.06716e-11
-2.3578e-11
1.0926e-11
-2.45595e-11
1.1147e-11
-2.55643e-11
1.13251e-11
-2.65879e-11
1.1452e-11
-2.76246e-11
1.15197e-11
-2.86673e-11
1.15216e-11
-2.97076e-11
1.14533e-11
-3.07364e-11
1.13136e-11
-3.17444e-11
1.11046e-11
-3.27226e-11
1.08325e-11
-3.36632e-11
1.05079e-11
-3.45601e-11
1.01456e-11