/*--------------------------------*- C++ -*----------------------------------*\
| =========                 |                                                 |
| \\      /  F ield         | OpenFOAM: The Open Source CFD Toolbox           |
|  \\    /   O peration     | Version:  2.4.0                                 |
|   \\  /    A nd           | Web:      www.OpenFOAM.org                      |
|    \\/     M anipulation  |                                                 |
\*---------------------------------------------------------------------------*/
FoamFile
{
    version     2.0;
    format      ascii;
    class       volScalarField;
    location    "0.092";
    object      alpha.water;
}
// * * * * * * * * * * * * * * * * * * * * * * * * * * * * * * * * * * * * * //

dimensions      [0 0 0 0 0 0 0];

internalField   nonuniform List<scalar> 
3600
(
1
1
1
1
1
1
1
1
1
1
1
1
1
1
1
1
1
1
0.999707
0.989688
0.992838
0.999041
0.995891
0.995891
0.995895
0.99902
0.999975
0.987079
0.979229
0.979227
1
1
1
1
1
1
1
1
1
1
1
1
1
1
1
1
1
1
1
0.989694
0.998868
0.999831
0.9988
0.997337
0.997273
0.999281
0.999976
0.995189
0.979226
0.979227
1
1
1
1
1
1
1
1
1
1
1
1
1
1
1
1
1
1
1
0.99124
0.998862
0.999831
0.999831
0.99983
0.999829
0.998839
0.999976
0.999955
0.984287
0.979227
1
1
1
1
1
1
1
1
1
1
1
1
1
1
1
1
1
1
1
0.99137
0.991389
0.999831
0.999361
0.999831
0.999807
0.999294
0.999996
0.999996
0.997859
0.97998
1
1
1
1
1
1
1
1
1
1
1
1
1
1
1
1
1
1
1
0.992279
0.990891
0.99913
0.999004
0.999588
0.99999
0.999994
0.999996
0.999997
0.999817
0.99689
1
1
1
1
1
1
1
1
1
1
1
1
1
1
1
1
1
1
1
0.997453
0.990891
0.996732
0.999196
0.999026
0.999672
0.999864
0.999881
0.999998
0.999998
0.999999
1
1
1
1
1
1
1
1
1
1
1
1
1
1
1
1
1
1
1
1
0.9951
0.998127
0.99921
0.999026
0.999089
0.999377
0.999608
0.999957
0.999999
0.999999
1
1
1
1
1
1
1
1
1
1
1
1
1
1
1
1
1
1
1
1
0.99999
0.999974
0.999905
0.999163
0.99919
0.99962
0.999514
0.999513
0.999997
0.999999
1
1
1
1
1
1
1
1
1
1
1
1
1
1
1
1
1
1
1
1
1
1
1
0.999947
0.999895
0.999979
0.999868
0.999513
0.999686
0.999985
1
1
1
1
1
1
1
1
1
1
1
1
1
1
1
1
1
1
1
1
1
1
1
1
1
1
1
0.999582
0.999548
0.999911
1
1
1
1
1
1
1
1
1
1
1
1
1
1
1
1
1
1
1
1
1
1
1
1
1
1
1
0.999661
0.999819
0.999984
1
1
1
1
1
1
1
1
1
1
1
1
1
1
1
1
1
1
1
1
1
1
1
1
1
1
1
0.999444
0.999525
0.999984
1
1
1
1
1
1
1
1
1
1
1
1
1
1
1
1
1
1
1
1
1
1
1
1
1
1
0.999996
0.999309
0.99931
0.999857
1
1
1
1
1
1
1
1
1
1
1
1
1
1
1
1
1
1
1
1
1
1
1
1
1
1
1
0.999646
0.999309
0.999702
1
1
1
1
1
1
1
1
1
1
1
1
1
1
1
1
1
1
1
1
1
1
1
1
1
1
1
0.999547
0.999314
0.999862
1
1
1
1
1
1
1
1
1
1
1
1
1
1
1
1
1
1
1
1
1
1
1
1
1
1
0.999937
0.999654
0.999753
0.999985
1
1
1
1
1
1
1
1
1
1
1
1
1
1
1
1
1
1
1
1
1
1
1
1
1
0.999988
0.999935
0.999987
0.999999
0.999985
1
1
1
1
1
1
1
1
1
1
1
1
1
1
1
1
1
1
1
1
1
1
1
1
1
0.999996
0.999983
0.999999
0.999999
0.999966
1
1
1
1
1
1
1
1
1
1
1
1
1
1
0.999998
1
1
1
1
1
1
1
1
1
1
0.999999
0.999999
0.999999
0.999999
0.999933
1
1
1
1
1
1
1
1
1
1
1
1
1
0.999991
0.994502
0.897269
0.985845
0.991964
0.998841
1
1
1
1
1
1
0.999998
0.999998
0.999999
0.999999
0.999902
1
1
1
1
1
1
1
1
1
1
1
1
0.999991
0.994928
0.527817
0.237126
0.682225
0.865585
0.996942
0.999986
0.996051
1
1
1
1
0.999999
0.999999
0.999996
0.999999
0.9999
1
1
1
1
1
1
1
1
1
1
1
0.999995
0.997928
0.484103
0.0304237
0.142984
0.656576
0.923818
0.987657
0.965509
0.960626
0.988518
0.999995
1
1
0.999999
0.999999
0.99962
0.999933
0.999901
1
1
1
1
1
1
1
1
1
1
0.999999
0.996005
0.526201
0.000324518
0.00155731
0.0134064
0.190231
0.822922
0.972392
0.953606
0.960581
0.960626
0.968936
0.996011
0.999999
0.999999
0.999999
0.999575
0.999574
0.999905
1
1
1
1
1
1
1
1
1
1
0.99997
0.515085
0.000221846
0.000140974
0.000324934
0.00121257
0.229531
0.637926
0.913908
0.977792
0.996177
0.985872
0.985328
0.996951
0.999992
0.999997
0.999999
0.999573
0.999569
0.999927
1
1
1
1
1
1
1
1
1
0.999995
0.694305
0.0153912
3.62703e-05
4.49375e-06
0.00644864
0.0147492
0.00310194
0.170515
0.793329
0.991618
0.998459
0.998473
0.998502
0.998866
0.998922
0.99992
0.999995
0.999575
0.999643
0.999935
1
1
1
1
1
1
1
1
1
0.971798
0.0681494
3.24226e-05
4.49275e-06
2.44562e-06
0.00332738
0.00502314
7.67927e-05
0.0322127
0.488004
0.96341
0.998459
0.998435
0.993138
0.977264
0.996281
0.999988
0.999989
0.999576
0.999913
0.9998
1
1
1
1
1
1
1
1
0.994388
0.40416
0.00345599
1.30224e-05
1.4859e-06
1.96667e-06
1.05356e-06
4.42218e-05
3.47188e-05
7.67927e-05
0.0752588
0.74814
0.998435
0.998395
0.984992
0.975275
0.999144
0.999941
0.999987
0.999639
0.999977
0.999733
1
1
1
1
1
1
1
0.999998
0.954302
0.0383637
4.75033e-05
2.33824e-06
1.83043e-06
1.88017e-06
1.96493e-06
2.17596e-05
2.04914e-05
3.47188e-05
0.00085275
0.275954
0.946134
0.998355
0.988795
0.975266
0.995718
0.999984
0.999984
0.999968
0.999977
0.99979
1
1
1
1
1
1
1
0.999929
0.321699
0.000255167
2.01192e-06
-1.63091e-07
1.76781e-06
1.8706e-06
1.88019e-06
1.15305e-05
1.48134e-05
0.000115404
8.55207e-05
0.0206325
0.625959
0.998939
0.995991
0.975317
0.979389
0.999984
0.999984
0.999926
0.999281
0.999948
1
1
1
1
1
1
0.994948
0.796479
0.0148556
7.47662e-06
2.56741e-07
7.689e-08
2.05182e-06
8.67855e-06
1.21809e-05
7.66872e-06
7.50178e-06
1.45669e-05
1.6315e-05
0.000764736
0.313387
0.999738
0.999877
0.994075
0.990594
0.999983
0.999984
0.999963
0.995944
0.999521
0.979227
0.979229
0.987471
0.999991
0.999027
0.995814
0.995814
0.995816
0.999226
0.993003
0.9898
0.999712
1
1
1
1
1
1
1
1
1
1
1
1
1
1
1
1
1
1
0.979227
0.979227
0.994926
0.999992
0.999361
0.997028
0.997092
0.998915
0.999863
0.998855
0.989806
1
1
1
1
1
1
1
1
1
1
1
1
1
1
1
1
1
1
1
0.979227
0.984033
0.999947
0.999992
0.998965
0.99987
0.999866
0.999866
0.999864
0.998758
0.991501
1
1
1
1
1
1
1
1
1
1
1
1
1
1
1
1
1
1
1
0.979609
0.997321
0.999996
0.999995
0.999431
0.999873
0.99987
0.999359
0.999863
0.991388
0.991509
1
1
1
1
1
1
1
1
1
1
1
1
1
1
1
1
1
1
1
0.996734
0.999774
0.999997
0.999996
0.999993
0.999989
0.999736
0.99902
0.999141
0.990976
0.992192
1
1
1
1
1
1
1
1
1
1
1
1
1
1
1
1
1
1
1
0.999999
0.999998
0.999998
0.999876
0.999835
0.999711
0.999019
0.999152
0.996696
0.990976
0.997333
1
1
1
1
1
1
1
1
1
1
1
1
1
1
1
1
1
1
1
0.999999
0.999999
0.99996
0.999648
0.99927
0.999128
0.999019
0.999165
0.998042
0.994996
1
1
1
1
1
1
1
1
1
1
1
1
1
1
1
1
1
1
1
1
0.999999
0.999996
0.999525
0.999526
0.99969
0.999191
0.99911
0.999885
0.999969
0.999986
1
1
1
1
1
1
1
1
1
1
1
1
1
1
1
1
1
1
1
1
0.999981
0.999671
0.999525
0.999848
0.999977
0.999888
0.999945
1
1
1
1
1
1
1
1
1
1
1
1
1
1
1
1
1
1
1
1
1
1
1
0.999893
0.999552
0.999617
1
1
1
1
1
1
1
1
1
1
1
1
1
1
1
1
1
1
1
1
1
1
1
1
1
1
1
0.999984
0.99985
0.999673
1
1
1
1
1
1
1
1
1
1
1
1
1
1
1
1
1
1
1
1
1
1
1
1
1
1
1
0.999982
0.99952
0.999514
1
1
1
1
1
1
1
1
1
1
1
1
1
1
1
1
1
1
1
1
1
1
1
1
1
1
1
0.999823
0.999346
0.999346
1
1
1
1
1
1
1
1
1
1
1
1
1
1
1
1
1
1
1
1
1
1
1
1
1
1
1
0.999688
0.999346
0.999682
1
1
1
1
1
1
1
1
1
1
1
1
1
1
1
1
1
1
1
1
1
1
1
1
1
1
1
0.999849
0.999351
0.999639
1
1
1
1
1
1
1
1
1
1
1
1
1
1
1
1
1
1
1
1
1
1
1
1
1
1
1
0.999988
0.999749
0.99972
0.999959
1
1
1
1
1
1
1
1
1
1
1
1
1
1
1
1
1
1
1
1
1
1
1
1
1
1
0.999992
0.999998
0.999987
0.999958
0.999993
1
1
1
1
1
1
1
1
1
1
1
1
1
1
1
1
1
1
1
1
1
1
1
1
1
0.999986
0.999998
0.999998
0.999985
0.999998
1
1
1
1
1
1
1
1
1
1
1
1
1
1
1
1
1
1
1
1
1
1
1
1
1
0.999987
0.999998
0.999998
0.999999
1
1
1
1
1
1
1
1
1
1
1
0.999996
1
1
1
1
1
1
1
1
1
1
1
1
1
1
0.99999
0.999998
0.999998
0.999997
0.999998
1
1
1
1
1
1
1
1
0.99011
0.951851
0.999025
0.999989
1
1
1
1
1
1
1
1
1
1
1
1
1
0.99999
0.999995
0.999998
0.999997
0.999998
1
1
1
1
0.973416
1
0.999409
0.892755
0.545927
0.403625
0.56401
0.986682
0.999992
1
1
1
1
1
1
1
1
1
1
1
1
0.99999
0.999971
0.999603
0.999998
0.999999
1
1
0.999983
0.954174
0.925624
0.930915
0.978896
0.891081
0.616448
0.219065
0.00266745
0.444654
0.998129
0.999995
1
1
1
1
1
1
1
1
1
1
1
0.999963
0.999837
0.999555
0.999996
0.999998
0.999996
0.994234
0.961056
0.958397
0.965153
0.96144
0.962019
0.837864
0.290445
0.0162638
0.00017289
0.0149213
0.537492
0.997024
0.999999
1
1
1
1
1
1
1
1
1
1
0.999935
0.999612
0.999554
0.999996
0.999996
0.999991
0.997426
0.982164
0.997724
0.997827
0.998354
0.92257
0.584848
0.0436469
0.000173368
3.36106e-05
0.00198864
0.0115939
0.527877
0.999971
1
1
1
1
1
1
1
1
1
1
0.999935
0.999693
0.999551
0.999995
0.999994
0.997068
0.989478
0.998888
0.998888
0.998888
0.998888
0.789955
0.165292
0.000238636
3.35265e-05
6.10572e-06
6.33215e-06
5.37892e-05
0.013633
0.704147
0.999995
1
1
1
1
1
1
1
1
1
0.999916
0.999882
0.999551
0.999991
0.999991
0.993849
0.973637
0.993299
0.998888
0.998888
0.997664
0.491671
0.015156
5.16641e-05
1.43926e-05
6.54334e-07
1.18111e-06
6.35152e-06
5.35962e-05
0.0705315
0.972619
1
1
1
1
1
1
1
1
1
0.99992
0.999947
0.999551
0.999989
0.999962
0.997829
0.973637
0.98193
0.998853
0.998869
0.785979
0.0848891
0.000131471
1.76761e-05
1.27397e-05
1.50507e-07
1.61066e-07
8.55587e-07
1.13222e-05
0.00252395
0.406667
0.994277
1
1
1
1
1
1
1
1
0.999948
0.999947
0.999825
0.999987
0.999987
0.993898
0.973633
0.987521
0.998585
0.947977
0.40608
0.0182538
3.26291e-05
2.29696e-06
8.26018e-07
6.70966e-08
5.67176e-08
-1.1481e-07
2.23475e-06
5.04462e-05
0.0390262
0.955231
0.999998
1
1
1
1
1
1
1
0.999947
0.999322
0.999918
0.999987
0.999987
0.97742
0.973714
0.99645
0.998185
0.586451
0.00103219
0.000669896
2.16369e-05
5.43589e-07
6.69978e-08
5.61248e-08
5.55213e-08
5.5157e-08
-1.65879e-07
2.06349e-06
0.00027294
0.324777
0.999931
1
1
1
1
1
1
1
0.998347
0.995974
0.999947
0.999987
0.999986
0.98933
0.99379
0.999845
0.997404
0.237793
0.000413404
1.36773e-06
2.07508e-07
1.61796e-07
5.62864e-08
5.48805e-08
5.52953e-08
5.55045e-08
5.36137e-08
2.57605e-07
8.2615e-06
0.015692
0.800352
0.995135
1
1
1
1
1
1
1
1
1
1
1
1
0.959801
0.10347
9.17056e-05
3.46697e-06
-1.63069e-07
2.73865e-08
1.9796e-06
2.56379e-05
2.58151e-05
7.30868e-06
7.06113e-06
7.15667e-06
8.16669e-06
0.000335054
0.0482344
0.815449
0.999919
0.999973
0.999984
0.999983
0.999983
0.999637
0.995904
0.995951
1
1
1
1
1
0.999999
0.99989
0.036949
4.88932e-05
1.36585e-06
2.02382e-08
5.42166e-10
3.78196e-07
8.592e-06
2.59323e-05
7.08932e-06
7.03808e-06
7.01618e-06
7.21262e-06
3.00411e-05
0.0252098
0.54563
0.999968
0.999977
0.999982
0.999983
0.999982
0.996324
0.995912
0.995914
0.51114
0.923917
1
1
0.999988
0.997087
0.689463
0.00355917
1.4061e-06
-1.56078e-07
-8.83655e-10
3.32387e-10
5.28832e-10
2.89441e-06
2.5883e-05
1.01135e-05
7.05996e-06
7.11249e-06
7.19563e-06
2.37825e-05
0.000665908
0.244169
0.999973
0.999973
0.999977
0.999982
0.997948
0.995916
0.995912
0.995912
0.30724
0.79321
0.983515
0.987975
0.989802
0.880821
0.0709961
2.19352e-05
-3.04976e-07
-3.66509e-10
-6.88407e-09
7.14257e-11
2.50188e-10
7.68422e-08
1.38759e-05
3.01568e-05
7.09847e-06
7.1987e-06
7.20254e-06
1.47404e-05
0.000242974
0.123612
0.924427
0.999973
0.99965
0.99696
0.995912
0.995913
0.995912
0.995913
0.143603
0.666807
0.921787
0.964823
0.974596
0.717044
0.0317813
5.2653e-05
-1.32181e-06
-1.8336e-09
-1.84963e-08
7.22774e-10
2.14693e-09
2.53381e-09
2.23611e-06
3.01777e-05
2.54899e-05
6.97658e-06
4.82493e-05
0.000573675
0.000525096
0.00997935
0.630178
0.999963
0.999764
0.996195
0.995913
0.995916
0.995912
0.996958
0.032659
0.38847
0.792568
0.891973
0.826159
0.179401
0.00564329
-3.42701e-08
-2.79239e-08
2.18844e-11
2.35748e-09
1.32461e-07
2.36361e-08
1.81616e-08
2.05317e-08
1.02323e-05
2.7665e-05
1.77248e-05
3.50476e-05
0.000176245
0.000291542
0.0125878
0.429792
0.999976
0.99999
0.999416
0.997029
0.996806
0.998079
0.99989
0.00328369
0.119154
0.39389
0.439776
0.26667
-8.64887e-11
-3.14283e-10
-3.8508e-10
-8.48114e-10
1.75846e-11
4.77584e-11
2.70722e-07
7.78798e-07
1.91156e-08
1.91014e-08
1.64639e-07
2.75558e-05
2.76622e-05
3.50136e-06
5.94927e-06
9.6115e-05
0.00455588
0.0259439
0.775607
0.999991
0.999992
0.999954
0.999905
0.999998
0.999999
1.40405e-06
2.21664e-06
0.00816031
7.70713e-19
-3.75716e-11
-1.9953e-10
-1.16597e-10
3.97431e-11
1.05074e-11
3.47788e-11
6.45856e-11
1.04666e-10
1.33923e-06
1.58861e-05
1.97393e-05
4.8789e-07
1.16554e-05
1.06181e-05
1.68584e-06
5.17212e-06
0.00124453
0.00265743
0.00183448
0.233309
0.960755
0.999993
0.999996
0.999999
1
1
1.3931e-06
2.82374e-06
4.59335e-09
8.5996e-09
-1.33193e-10
-1.81016e-10
-5.63427e-11
8.49875e-11
1.66778e-11
2.75246e-11
9.78981e-11
1.07217e-10
9.795e-11
6.09032e-05
0.000187644
8.74374e-06
1.83276e-06
1.66718e-06
1.69273e-06
1.69273e-06
0.000855269
0.000823719
0.000485625
0.000270892
0.22627
0.885848
0.983496
1
1
1
1.39035e-06
1.23057e-06
1.50762e-09
3.88006e-07
-6.13205e-11
-1.1342e-10
-1.29896e-11
3.56422e-11
7.53701e-12
1.8337e-11
7.12262e-11
9.12269e-11
7.66235e-11
6.14341e-05
0.000187997
0.000172467
2.02812e-06
2.01213e-05
3.22579e-05
5.49801e-06
0.000320615
0.00113215
0.000625714
0.000235919
0.000270892
0.153122
0.380113
0.606254
0.726623
0.767045
2.21385e-06
4.14406e-06
3.47186e-11
1.0947e-08
7.63815e-12
-3.17118e-11
1.26683e-11
2.54343e-11
4.33789e-12
1.10933e-11
3.76329e-11
6.82382e-11
7.75348e-11
7.75348e-11
0.000108706
0.000192367
6.02339e-05
0.00017887
0.000177104
1.83133e-05
3.75697e-05
0.00113261
0.000620073
0.000186336
0.000514565
1.31963e-05
-9.42972e-06
7.80214e-07
0.0131086
0.0308998
1.34418e-06
1.02519e-05
3.04587e-11
2.59631e-11
2.61705e-11
2.03867e-11
1.7002e-11
1.3757e-11
2.48114e-12
7.06083e-12
2.80099e-11
6.69321e-11
1.4338e-10
9.4716e-11
1.55264e-10
0.000177007
0.000182275
0.000183727
0.000184732
2.67453e-05
3.48912e-05
0.000723664
0.000691288
0.000161458
3.31135e-06
7.92073e-07
7.89421e-07
7.80618e-07
7.91246e-07
7.90442e-07
6.51741e-07
1.07024e-05
3.79005e-06
2.28282e-11
2.19309e-11
2.52856e-11
1.03771e-11
5.71468e-12
1.31753e-12
4.24929e-12
2.00106e-11
5.83761e-11
1.48287e-10
3.552e-09
1.37282e-07
1.23421e-05
2.14315e-05
0.000146266
0.000227933
4.3371e-05
3.88548e-05
4.02025e-05
0.000651618
0.000565905
0.000143929
8.21984e-07
7.92057e-07
7.92159e-07
7.92695e-07
7.94988e-07
9.80954e-08
1.0728e-05
1.31559e-05
2.26883e-11
1.80507e-11
1.39011e-11
4.66184e-12
2.24925e-12
6.81556e-13
2.53037e-12
1.41372e-11
5.08156e-11
2.0966e-10
4.19528e-09
4.45634e-07
1.5869e-07
2.71811e-07
8.93381e-05
0.000234372
0.000225273
4.00609e-05
4.83658e-05
0.000165727
0.000571471
0.000523229
9.32338e-05
8.21262e-07
8.0708e-07
7.95754e-07
7.97038e-07
4.97311e-12
2.61207e-06
1.35058e-05
2.4431e-07
1.9869e-11
1.37249e-11
2.39453e-12
9.81019e-13
3.4668e-13
1.47955e-12
9.50613e-12
3.82797e-11
9.78034e-11
9.03295e-11
1.48936e-07
1.49951e-07
7.67611e-06
3.22675e-05
0.000238688
0.000245851
0.000240719
6.61565e-05
7.56686e-05
0.000233736
0.000249141
0.000138014
2.81003e-05
3.6171e-06
8.01474e-07
8.00739e-07
4.83161e-12
3.44374e-11
1.35006e-05
3.87885e-07
1.90025e-11
1.47223e-11
1.1187e-12
3.82428e-13
1.57427e-13
7.90342e-13
5.8933e-12
2.78018e-11
8.65099e-11
8.7809e-11
2.92633e-07
1.20447e-05
4.83573e-06
6.81692e-08
0.000118222
0.000246416
0.000246623
0.000246672
0.000172684
3.65799e-05
2.04356e-05
3.11507e-05
2.53683e-05
1.30374e-05
3.6205e-06
8.03402e-07
4.40422e-12
6.72033e-12
6.52875e-06
1.99411e-07
1.43186e-11
1.03378e-11
4.47163e-13
1.21068e-13
6.17595e-14
4.1495e-13
3.67043e-12
2.22276e-11
1.10195e-10
2.00465e-09
2.62665e-07
1.07562e-06
4.6961e-08
5.31557e-08
3.12231e-05
0.00022482
0.000246672
0.000246672
0.000246672
0.000122328
7.45082e-06
3.83257e-06
2.87163e-06
7.88875e-06
5.45729e-06
9.09494e-07
3.50996e-12
1.33277e-10
7.74333e-11
1.39527e-11
1.36365e-11
1.31239e-12
1.36182e-13
3.00917e-14
2.24487e-14
2.36461e-13
2.61575e-12
2.69477e-11
3.89436e-10
5.74419e-09
6.68478e-11
6.96778e-11
4.6623e-08
4.206e-06
2.42311e-06
8.12262e-08
0.000123298
0.000246672
0.000246409
0.000246146
4.83756e-05
2.14298e-06
1.38184e-06
9.91173e-07
2.15445e-06
1.02461e-06
1.16439e-12
5.56711e-11
5.26672e-11
4.85682e-11
5.02435e-12
5.33432e-13
4.72168e-14
6.03942e-15
6.81694e-15
9.48907e-14
9.64248e-13
5.82956e-12
2.16314e-11
4.98978e-11
6.44892e-11
1.60375e-08
3.38815e-07
8.30054e-08
8.12287e-08
8.08916e-08
8.12332e-08
4.39488e-05
0.000246146
0.000223999
3.45183e-05
1.32466e-06
9.82013e-07
9.18351e-07
8.9539e-07
9.69279e-07
3.2183e-13
1.23292e-11
1.02655e-10
1.41196e-11
1.63306e-12
1.7965e-13
1.38817e-14
1.00407e-15
2.15082e-15
4.04044e-14
4.99606e-13
3.89638e-12
2.1572e-11
9.76043e-11
2.92604e-10
2.94255e-08
6.89567e-08
3.39524e-08
2.02843e-07
2.63666e-07
1.54482e-06
1.66021e-06
4.02835e-05
5.49288e-05
2.29782e-05
1.05971e-06
9.18436e-07
8.95375e-07
8.73901e-07
8.70918e-07
5.0423e-14
1.93646e-12
2.49788e-11
4.13253e-12
4.88971e-13
4.71401e-14
3.09549e-15
1.4052e-16
6.60404e-16
1.54007e-14
2.25599e-13
2.20232e-12
1.68346e-11
1.28906e-10
1.07294e-09
3.96402e-09
1.09294e-09
3.36924e-08
2.95114e-08
1.57768e-06
3.25158e-05
7.49738e-05
4.20596e-05
1.08536e-05
3.40634e-06
9.36422e-07
9.0513e-07
8.81156e-07
8.62438e-07
8.64355e-07
5.13914e-15
2.2943e-13
6.77269e-12
1.06994e-12
1.07282e-13
8.50963e-15
4.70208e-16
1.6282e-17
2.17606e-16
5.93258e-15
9.51087e-14
9.70997e-13
6.6602e-12
2.94742e-11
7.69513e-11
8.15449e-11
1.04216e-09
8.96594e-10
3.47574e-09
1.74745e-05
8.9492e-05
8.94995e-05
8.72268e-05
1.62894e-05
9.44659e-07
9.20493e-07
9.17072e-07
9.12453e-07
8.58121e-07
8.45268e-07
3.3778e-16
2.03949e-14
1.47199e-12
1.97852e-13
1.60218e-14
1.00328e-15
4.50276e-17
1.45529e-18
4.75547e-17
1.56494e-15
2.98685e-14
3.45766e-13
2.53632e-12
1.23514e-11
4.31523e-11
1.34152e-10
1.46888e-10
3.89168e-10
1.15797e-08
2.0281e-05
8.94979e-05
8.9492e-05
8.93576e-05
4.10583e-05
1.01605e-06
9.45098e-07
2.8668e-06
1.85746e-06
8.45267e-07
8.45128e-07
1.42913e-17
1.22513e-15
1.92545e-13
2.26965e-14
1.51013e-15
7.30873e-17
2.52938e-18
9.35625e-20
6.05939e-18
2.49577e-16
6.09996e-15
9.72679e-14
1.06217e-12
8.0553e-12
4.17214e-11
1.3663e-10
1.39287e-10
2.26558e-10
3.57623e-09
7.34982e-07
5.77228e-05
8.93576e-05
8.91134e-05
2.682e-05
1.04927e-06
2.01031e-06
2.95964e-06
2.45744e-06
8.45145e-07
8.45145e-07
3.87605e-19
4.16522e-17
1.36821e-14
1.45893e-15
8.22746e-17
3.07085e-18
7.73147e-20
4.67932e-21
5.13914e-19
2.677e-17
8.09135e-16
1.54985e-14
1.96295e-13
1.67469e-12
9.7406e-12
3.99945e-11
1.04316e-10
1.3283e-10
2.8711e-10
5.03942e-09
6.14306e-06
4.3802e-05
4.51801e-05
2.74377e-06
1.07592e-06
1.12057e-06
1.51911e-06
1.19377e-06
2.50633e-06
2.80635e-06
6.71106e-21
5.64066e-19
4.83197e-16
4.68503e-17
2.29302e-18
6.74998e-20
1.20038e-21
1.35572e-22
2.11023e-20
1.44201e-18
5.77521e-17
1.47204e-15
2.45446e-14
2.72061e-13
2.03498e-12
1.05329e-11
3.97495e-11
1.17918e-10
9.47392e-11
2.38479e-09
8.48791e-09
6.8465e-08
1.28912e-06
5.42339e-06
2.88464e-06
2.77015e-07
1.0388e-08
1.19928e-06
3.16341e-06
3.16342e-06
7.36134e-23
1.15975e-21
7.51934e-18
6.45125e-19
2.72449e-20
6.45964e-22
8.32055e-24
2.04007e-24
4.35024e-22
4.04253e-20
2.18181e-18
7.42606e-17
1.64691e-15
2.42086e-14
2.39296e-13
1.6231e-12
7.79413e-12
2.78813e-11
8.08005e-11
5.7193e-11
9.04665e-11
2.61788e-10
1.30424e-09
1.278e-06
2.873e-06
1.92733e-07
4.53193e-09
2.54141e-07
1.61892e-06
2.21259e-06
5.12309e-25
4.59389e-25
4.21177e-20
2.99252e-21
1.03918e-22
1.9602e-24
1.93608e-26
1.02015e-26
3.12681e-24
4.2601e-22
3.3676e-20
1.66976e-18
5.36464e-17
1.13804e-15
1.61833e-14
1.56914e-13
1.0624e-12
5.08826e-12
1.71091e-11
4.43529e-11
5.04029e-11
6.62037e-11
8.24062e-11
1.16524e-09
1.28727e-07
4.51017e-08
4.07396e-09
5.61039e-09
3.70621e-08
2.35668e-08
2.31636e-27
1.07793e-27
6.65199e-23
3.32008e-24
8.08275e-26
1.04807e-27
7.17906e-30
8.91065e-30
4.62224e-27
1.08793e-24
1.47881e-22
1.25162e-20
6.82062e-19
2.43858e-17
5.80496e-16
9.40095e-15
1.01939e-13
6.29842e-13
2.53348e-12
7.5905e-12
1.95533e-11
5.55419e-11
4.31217e-11
6.52433e-11
1.18573e-10
1.57166e-10
6.82446e-10
9.57005e-11
1.28609e-10
1.81674e-10
7.53664e-30
3.56752e-30
3.10462e-26
5.97519e-28
5.53392e-30
2.63082e-32
1.57102e-34
6.80235e-35
6.57053e-32
4.89379e-29
2.09842e-26
5.55359e-24
9.32749e-22
1.00517e-19
6.97756e-18
3.17029e-16
5.86364e-15
5.08565e-14
2.5617e-13
8.7616e-13
2.40898e-12
6.52003e-12
1.61046e-11
5.35217e-11
1.01036e-10
1.33692e-10
8.84774e-11
6.213e-11
1.23824e-10
1.67979e-10
0.995933
0.995914
0.999857
0.999986
0.999986
0.999966
0.999971
0.999907
0.745903
0.0295953
0.000109446
4.02262e-05
9.8037e-08
8.17562e-08
5.4594e-08
5.47093e-08
5.49062e-08
6.01337e-08
7.91238e-08
-1.31776e-07
3.66266e-06
9.35521e-05
0.107027
0.960773
1
1
1
1
1
1
0.995922
0.995926
0.996703
0.999985
0.999986
0.999985
0.999971
0.99996
0.583804
0.0170983
4.82436e-05
4.75099e-05
8.28555e-08
6.62795e-08
6.0287e-08
5.47989e-08
5.48292e-08
6.80874e-08
1.69692e-07
3.11893e-08
1.63325e-06
5.59764e-05
0.0366797
0.999894
0.999999
1
1
1
1
1
0.995914
0.995922
0.995932
0.997988
0.999985
0.999974
0.999964
0.999964
0.240425
0.00123698
1.6482e-05
1.65508e-05
8.8276e-08
8.28028e-08
2.2529e-07
9.9659e-06
9.69607e-06
8.26636e-06
1.65587e-07
-8.53134e-10
-1.75844e-07
1.66524e-06
0.00409722
0.700731
0.997436
0.999989
1
1
0.921977
0.510705
0.995913
0.995916
0.995924
0.995936
0.997014
0.999571
0.999964
0.958138
0.18508
0.000535505
5.39477e-07
-1.60567e-08
8.82617e-08
8.89034e-08
7.67315e-07
6.30308e-05
5.47309e-05
1.97526e-05
3.41597e-11
-1.06051e-08
-1.96453e-10
-3.56092e-07
2.54566e-05
0.0749826
0.884154
0.989857
0.987733
0.982873
0.794524
0.312179
0.997938
0.995922
0.995935
0.995942
0.995947
0.999542
0.999953
0.762591
0.0580103
0.000128954
6.25506e-05
1.57708e-07
1.17171e-07
1.43428e-07
1.22201e-05
6.32028e-05
6.32028e-05
2.08785e-06
2.53173e-11
-2.63893e-08
-2.36173e-09
-1.1442e-06
5.08273e-05
0.0312315
0.718112
0.974745
0.964796
0.921603
0.667614
0.143112
0.999996
0.99901
0.997678
0.997257
0.999213
0.999967
0.99995
0.411018
0.00320694
4.2075e-05
2.49807e-05
5.38411e-07
5.07599e-07
4.18072e-07
7.56501e-06
2.59815e-05
4.58777e-06
7.11384e-09
6.97976e-09
1.30996e-11
-3.25397e-11
-4.18861e-08
-3.9983e-08
0.00677564
0.184165
0.826757
0.889995
0.789581
0.383042
0.0314354
0.999999
0.999999
0.999993
0.99998
0.999995
0.999995
0.906404
0.139355
0.000800015
4.24644e-05
3.30144e-06
6.9658e-07
6.58495e-07
7.36394e-07
7.77601e-07
1.67238e-06
3.87905e-08
1.68145e-08
1.50016e-09
8.96354e-10
5.61944e-12
-7.06745e-10
-3.18879e-11
-3.15455e-10
1.10941e-20
0.264031
0.432251
0.38594
0.113763
0.00295113
1
1
1
0.999998
0.999996
0.999995
0.368678
0.00136763
0.00163408
0.00169888
1.36407e-05
6.9703e-07
1.68026e-06
1.19353e-06
1.44071e-05
5.00895e-06
2.57248e-07
2.17972e-07
5.55585e-09
7.403e-11
4.51333e-11
1.40877e-11
6.35605e-11
7.92274e-11
6.68248e-11
2.7838e-11
2.7838e-11
0.00652607
1.97879e-06
1.56976e-06
1
1
1
0.99748
0.940714
0.3677
0.00758415
0.000991672
0.00152888
0.00161936
6.98216e-06
5.01229e-06
0.000103412
1.35453e-06
2.75844e-05
9.55351e-06
1.73576e-06
2.19711e-07
1.45887e-10
1.36198e-10
3.72426e-11
1.73033e-11
9.90224e-11
1.28822e-10
1.05382e-10
2.79156e-11
1.15697e-08
6.01902e-09
2.19912e-06
1.56049e-06
0.776681
0.733817
0.662559
0.443947
0.226409
0.000495391
0.000500267
0.000960548
0.00202005
0.000395118
1.1551e-05
3.84541e-05
0.000130365
3.43663e-05
2.93207e-05
4.3484e-05
4.11509e-06
1.81369e-10
1.15234e-10
8.92463e-11
2.17496e-11
6.71178e-12
2.22757e-11
6.38304e-11
9.5877e-11
3.82995e-11
2.58932e-07
9.85923e-10
1.19224e-06
1.56112e-06
0.0354027
0.017642
9.82196e-05
0.000161779
0.000512628
0.000832632
0.000727494
0.00129937
0.00113038
1.89037e-05
1.61168e-05
0.000130365
0.000130365
0.000130365
6.01821e-05
4.64223e-05
4.24647e-07
8.44704e-09
2.0036e-10
9.10436e-11
1.60332e-11
3.08539e-12
1.17152e-11
4.09407e-11
6.99255e-11
3.19958e-11
3.27069e-09
3.52667e-11
3.79673e-06
2.59454e-06
7.89162e-07
7.91733e-07
8.27138e-07
1.57785e-05
6.42015e-05
0.000320797
0.00123272
0.00129658
2.51818e-05
2.28355e-05
2.11856e-05
7.65045e-05
0.000130365
2.89319e-05
3.83566e-05
5.0917e-11
1.35926e-07
2.7196e-08
7.98778e-11
6.18994e-11
1.0121e-11
1.9479e-12
6.84194e-12
2.27332e-11
4.78901e-11
2.87738e-11
2.94403e-11
3.31491e-11
1.03653e-05
1.65252e-06
7.92463e-07
7.94038e-07
8.62865e-07
2.09564e-06
3.64935e-05
0.000313135
0.000422982
0.000217943
2.79727e-05
2.55044e-05
5.75993e-05
7.32801e-06
2.85423e-05
5.3077e-06
4.28395e-06
4.58486e-11
4.59346e-11
4.5939e-11
2.78305e-10
4.85915e-11
6.10081e-12
1.18449e-12
4.21625e-12
1.17473e-11
2.80637e-11
2.26123e-11
2.34323e-11
3.27449e-06
1.23956e-05
8.64913e-07
7.94842e-07
8.02584e-07
8.42045e-07
1.60901e-06
3.38666e-05
6.80553e-05
7.12252e-05
7.40664e-05
6.6881e-05
0.000220279
0.000141041
7.38536e-06
7.33464e-06
8.66158e-06
6.10397e-11
4.59684e-11
3.48025e-10
5.67872e-11
2.36684e-11
8.11336e-12
1.62107e-12
5.92297e-13
2.21515e-12
5.60507e-12
1.64918e-11
2.02069e-11
2.40215e-11
1.33437e-05
1.24263e-05
1.878e-07
8.01839e-07
8.08254e-07
8.43862e-07
1.13509e-06
3.14462e-06
8.25778e-05
0.000233586
0.00026211
0.000263822
0.000261237
0.000259128
0.000236867
3.66125e-05
2.90961e-06
2.87741e-06
4.74489e-11
1.08032e-09
8.48754e-11
2.27977e-11
5.59377e-12
9.18178e-13
3.05812e-13
1.00204e-12
2.54164e-12
1.24706e-11
2.06788e-11
1.84913e-07
1.41548e-05
3.69153e-06
6.87423e-10
8.10206e-07
8.17379e-07
8.83087e-07
1.61365e-06
8.66586e-05
0.000265798
0.000266029
0.000265187
0.000264401
0.000263777
0.00011411
1.84085e-05
2.24472e-05
2.10296e-05
1.67315e-05
8.762e-11
6.33654e-09
8.09921e-11
1.92891e-11
4.22238e-12
5.82459e-13
1.4288e-13
3.84475e-13
1.13165e-12
1.33056e-11
1.72203e-11
2.93555e-07
1.41488e-05
6.85228e-11
3.72539e-12
8.18485e-07
8.26246e-07
8.97983e-07
1.77139e-05
0.000229403
0.000266029
0.000266353
0.000266265
0.000226722
6.93841e-06
6.07992e-06
2.07088e-06
3.09253e-08
1.07695e-10
1.15251e-10
1.73202e-07
7.88455e-09
3.21035e-11
1.6136e-11
3.21743e-12
3.90753e-13
6.05198e-14
1.20091e-13
4.47359e-13
8.9685e-12
1.2393e-11
1.93592e-07
6.32622e-06
5.71683e-12
3.24236e-12
8.26334e-07
8.34198e-07
8.45392e-07
1.56116e-05
0.000232303
0.000266122
0.000266492
0.000130554
1.8402e-05
1.64239e-05
1.9175e-05
2.1813e-05
6.80385e-06
1.07686e-10
1.26971e-10
1.05471e-10
3.30332e-11
3.1848e-11
1.07723e-11
2.08483e-12
2.34633e-13
2.31181e-14
2.95261e-14
1.39398e-13
1.26875e-12
1.20212e-11
1.22832e-11
5.84753e-11
7.72176e-11
3.45828e-12
9.25359e-07
8.53771e-07
8.64257e-07
6.90532e-06
0.000137989
0.000261654
9.57154e-05
1.52935e-06
4.19767e-06
2.28894e-05
2.29035e-05
2.28757e-05
6.83804e-06
1.07696e-10
3.08171e-10
1.29331e-10
5.10307e-11
2.15323e-11
6.14881e-12
1.05719e-12
1.06224e-13
7.44681e-15
5.9198e-15
4.77888e-14
5.2427e-13
4.71812e-12
4.16167e-11
4.59904e-11
4.79752e-11
1.17982e-12
1.01608e-06
8.69774e-07
8.66781e-07
2.77183e-06
2.05882e-05
2.30988e-05
1.68372e-06
1.27059e-06
1.45253e-06
6.6356e-06
1.84717e-05
4.77979e-06
1.03887e-09
1.0358e-09
8.58709e-10
2.26037e-10
5.46273e-11
1.27731e-11
2.53529e-12
3.57027e-13
3.12049e-14
1.78002e-15
9.83285e-16
1.40485e-14
1.80284e-13
1.64563e-12
1.38706e-11
8.92662e-11
1.3729e-11
3.08413e-13
1.01608e-06
8.79036e-07
8.76478e-07
8.81301e-07
1.12354e-06
1.54688e-06
1.26906e-06
1.25328e-06
1.60723e-06
1.60062e-05
4.9691e-06
8.91892e-08
7.46759e-09
2.46936e-09
2.00736e-09
4.55051e-10
7.96178e-11
1.21611e-11
1.62536e-12
1.68989e-13
1.17574e-14
5.19755e-16
1.39268e-16
3.16618e-15
4.81416e-14
5.03441e-13
4.24038e-12
2.40454e-11
2.58246e-12
4.78136e-14
8.6088e-07
9.54119e-07
1.43861e-06
6.56539e-06
2.14787e-06
1.30757e-06
1.25273e-06
1.24925e-06
1.24624e-06
1.1534e-05
2.2916e-05
3.90155e-06
2.26729e-09
1.69086e-09
1.72545e-09
5.27782e-10
9.11551e-11
1.16956e-11
1.26041e-12
1.08111e-13
6.37543e-15
2.30627e-16
1.70009e-17
4.90671e-16
8.94469e-15
1.14406e-13
1.15373e-12
7.07537e-12
3.33883e-13
4.81773e-15
8.45146e-07
8.45685e-07
6.845e-06
8.09254e-06
8.16417e-06
2.40527e-06
1.25258e-06
1.24657e-06
1.24729e-06
2.05518e-05
2.2916e-05
4.47945e-06
1.84569e-09
9.38355e-11
4.79754e-11
3.45653e-11
1.1264e-11
2.5341e-12
3.59036e-13
3.129e-14
1.63748e-15
5.01088e-17
1.57089e-18
4.82622e-17
1.09152e-15
1.76668e-14
2.19958e-13
1.58432e-12
3.06869e-14
3.13371e-16
8.44975e-07
8.44853e-07
4.68175e-06
8.16416e-06
8.16417e-06
3.79101e-06
1.32818e-06
5.08273e-06
2.39087e-05
2.48452e-05
1.72398e-05
2.94661e-07
7.45527e-10
1.02158e-10
6.09002e-11
3.16576e-11
6.60528e-12
9.75407e-13
9.73176e-14
6.40875e-15
2.69013e-16
6.68024e-18
1.06534e-19
2.79945e-18
8.25641e-17
1.71973e-15
2.58968e-14
2.13337e-13
1.90752e-15
1.311e-17
1.80419e-06
1.9316e-06
1.10103e-06
1.59464e-06
2.12672e-06
1.27018e-05
2.33562e-05
2.48381e-05
2.47902e-05
2.05297e-05
1.12726e-06
1.61018e-09
1.16288e-10
5.76686e-11
4.75917e-11
1.11329e-11
1.87605e-12
2.19202e-13
1.7339e-14
9.07604e-16
3.01794e-17
5.88301e-19
5.60865e-21
8.93729e-20
3.61916e-18
9.68288e-17
1.70993e-15
1.55818e-14
6.97952e-17
3.51814e-19
3.16343e-06
2.80611e-06
8.21133e-07
3.98462e-07
4.26015e-07
1.35396e-05
2.43794e-05
2.46207e-05
1.14323e-05
4.52793e-07
1.04228e-09
1.13583e-10
5.52187e-11
4.92724e-11
1.2424e-11
2.30556e-12
3.0406e-13
2.74376e-14
1.65386e-15
6.53108e-17
1.64535e-18
2.45284e-20
1.66642e-22
1.45698e-21
8.28664e-20
2.78516e-18
5.6376e-17
5.64443e-16
1.13174e-18
6.03834e-21
1.39404e-06
1.08133e-06
4.87837e-07
3.86648e-07
4.1488e-07
2.0973e-06
5.55432e-06
3.14439e-06
1.80438e-07
4.09049e-10
9.48795e-11
4.51358e-11
4.153e-11
9.90109e-12
1.88792e-12
2.69633e-13
2.71114e-14
1.85147e-15
8.41169e-17
2.495e-18
4.68159e-20
5.15099e-22
2.56193e-24
1.052e-23
8.23379e-22
3.42186e-20
7.99592e-19
9.02027e-18
3.26432e-21
6.58267e-23
1.17637e-08
2.12714e-09
1.60366e-08
3.56104e-08
2.21183e-08
5.73631e-10
1.10375e-09
5.60034e-10
1.10034e-10
5.89478e-11
5.82049e-11
2.83408e-11
7.01918e-12
1.36029e-12
1.85505e-13
1.85089e-14
1.28613e-15
6.05404e-17
1.89101e-18
3.83947e-20
4.91072e-22
3.68307e-24
1.27297e-26
2.57807e-26
2.66887e-24
1.40848e-22
4.04257e-21
5.56564e-20
8.61245e-25
4.54264e-25
1.47142e-10
1.15827e-10
9.26894e-11
1.09911e-10
7.62148e-11
1.09448e-10
1.07433e-10
6.62648e-11
3.01606e-11
3.91932e-11
1.34752e-11
3.58122e-12
8.09955e-13
1.30788e-13
1.28058e-14
7.54677e-16
3.04778e-17
8.32328e-19
1.50397e-20
1.76196e-22
1.2955e-24
5.57502e-27
1.12952e-29
1.04484e-29
1.56351e-27
1.20266e-25
4.93609e-24
9.69849e-23
9.87526e-28
2.04633e-27
1.27204e-10
9.32429e-11
7.57792e-11
1.03423e-10
6.26058e-11
1.00282e-10
7.15745e-11
4.72031e-11
1.35596e-11
4.34576e-12
1.25709e-12
3.29954e-13
6.49471e-14
7.93941e-15
4.94905e-16
1.13968e-17
1.5544e-19
1.36102e-21
7.69885e-24
2.79219e-26
6.3263e-29
8.39425e-32
9.15288e-35
2.18959e-34
4.51939e-32
9.57131e-30
1.03386e-27
5.24913e-26
3.21047e-30
6.61015e-30
)
;
