/*--------------------------------*- C++ -*----------------------------------*\
| =========                 |                                                 |
| \\      /  F ield         | OpenFOAM: The Open Source CFD Toolbox           |
|  \\    /   O peration     | Version:  2.4.0                                 |
|   \\  /    A nd           | Web:      www.OpenFOAM.org                      |
|    \\/     M anipulation  |                                                 |
\*---------------------------------------------------------------------------*/
FoamFile
{
    version     2.0;
    format      ascii;
    class       volScalarField;
    location    "0.046";
    object      p_rgh;
}
// * * * * * * * * * * * * * * * * * * * * * * * * * * * * * * * * * * * * * //

dimensions      [1 -1 -2 0 0 0 0];

internalField   nonuniform List<scalar> 
3600
(
98.0883
98.0807
98.0749
98.0643
98.0537
98.0289
98.0107
97.965
97.9375
97.8664
97.8292
97.7368
97.6983
97.6073
97.604
97.5651
97.6693
97.7195
97.8543
97.8446
97.897
97.8387
97.8373
97.7868
97.7715
97.7424
97.7294
97.7162
97.7088
97.7042
98.0936
98.0908
98.0847
98.0731
98.0617
98.0364
98.0174
97.9709
97.9425
97.8705
97.8319
97.7384
97.6981
97.6057
97.6007
97.5612
97.6668
97.719
97.8552
97.8454
97.8975
97.839
97.8374
97.7869
97.7714
97.7424
97.7294
97.7162
97.7088
97.7042
98.101
98.0995
98.0948
98.0834
98.0724
98.0463
98.0274
97.9796
97.9503
97.8765
97.8359
97.74
97.6966
97.6015
97.594
97.5532
97.6624
97.7185
97.8576
97.8472
97.8987
97.8396
97.8374
97.7869
97.7713
97.7424
97.7293
97.7162
97.7087
97.7042
98.1211
98.1177
98.1128
98.1009
98.0897
98.0623
98.0427
97.9929
97.9621
97.8854
97.8417
97.7422
97.6943
97.5948
97.5837
97.541
97.6558
97.7181
97.8615
97.85
97.9006
97.8404
97.8375
97.7868
97.7711
97.7422
97.7292
97.7161
97.7087
97.7041
98.1457
98.1423
98.1373
98.1245
98.1132
98.0839
98.0636
98.0109
97.978
97.8973
97.8495
97.745
97.691
97.5856
97.5695
97.5246
97.647
97.7177
97.867
97.8539
97.9032
97.8415
97.8376
97.7868
97.7708
97.7421
97.729
97.716
97.7086
97.7041
98.1771
98.1734
98.1686
98.1546
98.1432
98.1115
98.0902
98.0337
97.9982
97.9125
97.8594
97.7485
97.6868
97.5737
97.551
97.5031
97.6357
97.7176
97.874
97.8593
97.9064
97.8429
97.8377
97.7867
97.7705
97.7419
97.7289
97.7159
97.7086
97.7041
98.216
98.2122
98.2074
98.192
98.1803
98.1456
98.1231
98.0619
98.0231
97.9312
97.8716
97.753
97.6817
97.559
97.5279
97.4762
97.6217
97.7179
97.8828
97.866
97.9103
97.8445
97.8378
97.7865
97.7701
97.7416
97.7286
97.7158
97.7085
97.704
98.2639
98.2593
98.2547
98.2373
98.2254
98.1866
98.1628
98.0959
98.0531
97.954
97.8865
97.7588
97.6756
97.5414
97.4995
97.443
97.6046
97.7188
97.8937
97.8743
97.9148
97.8464
97.8379
97.7864
97.7696
97.7413
97.7284
97.7156
97.7084
97.7039
98.3197
98.3159
98.3116
98.2916
98.2793
98.2358
98.2102
98.1365
98.0889
97.9813
97.9043
97.7662
97.6688
97.5207
97.4652
97.4026
97.5842
97.7207
97.9071
97.8841
97.92
97.8485
97.8379
97.7861
97.7691
97.7409
97.7281
97.7154
97.7083
97.7039
98.388
98.3834
98.3792
98.3552
98.3432
98.2926
98.2662
98.1836
98.131
98.0137
97.9255
97.7756
97.6614
97.4967
97.4239
97.3541
97.5598
97.724
97.9233
97.8957
97.9259
97.8509
97.8379
97.7859
97.7684
97.7405
97.7277
97.7152
97.7082
97.7038
98.4674
98.462
98.458
98.4315
98.4183
98.362
98.331
98.2407
98.18
98.0522
97.9505
97.7874
97.6535
97.4694
97.3746
97.2961
97.5308
97.7291
97.9429
97.9092
97.9324
97.8534
97.8379
97.7855
97.7677
97.7401
97.7274
97.715
97.708
97.7037
98.5621
98.554
98.5518
98.515
98.5061
98.4351
98.4078
98.3016
98.2372
98.0965
97.9799
97.8024
97.6454
97.4385
97.3158
97.2269
97.4965
97.7367
97.9665
97.9248
97.9396
97.856
97.8377
97.7851
97.7669
97.7396
97.7269
97.7147
97.7079
97.7036
98.6741
98.665
98.6591
98.6255
98.606
98.5347
98.4926
98.3831
98.3017
98.1511
98.0141
97.8212
97.6378
97.4044
97.2461
97.1446
97.4558
97.7475
97.9947
97.9428
97.9473
97.8587
97.8374
97.7846
97.7661
97.739
97.7265
97.7144
97.7077
97.7035
98.7802
98.7653
98.7798
98.7152
98.7244
98.6188
98.5953
98.4568
98.3778
98.2069
98.0543
97.844
97.6313
97.367
97.1629
97.0465
97.4073
97.7628
98.0286
97.9634
97.9555
97.8613
97.8368
97.784
97.7651
97.7384
97.726
97.7141
97.7075
97.7033
98.9853
98.9666
98.9567
98.9023
98.8599
98.7716
98.7052
98.5751
98.4604
98.2899
98.1006
97.8724
97.6274
97.3275
97.0639
96.9303
97.349
97.7835
98.0696
97.9869
97.9642
97.8641
97.8361
97.7833
97.764
97.7378
97.7254
97.7138
97.7073
97.7032
99.0522
99.0246
99.0629
98.9668
99.0058
98.8496
98.8325
98.6594
98.5556
98.3546
98.1535
97.9018
97.6274
97.2869
96.9444
96.7912
97.2787
97.8127
98.1182
98.0135
97.9731
97.8666
97.8351
97.7825
97.7628
97.7371
97.7249
97.7134
97.7071
97.7031
99.426
99.3947
99.3871
99.2846
99.2228
99.095
98.9886
98.8312
98.6712
98.48
98.2235
97.9465
97.6335
97.2475
96.802
96.6274
97.1945
97.8524
98.1757
98.0435
97.9822
97.8688
97.8338
97.7815
97.7615
97.7363
97.7243
97.713
97.7069
97.7029
99.41
99.3216
99.429
99.2968
99.3421
99.1363
99.0928
98.9242
98.7524
98.5573
98.278
97.9796
97.6457
97.2093
96.6306
96.4285
97.094
97.9036
98.2444
98.0772
97.9912
97.8706
97.8322
97.7804
97.7601
97.7355
97.7236
97.7126
97.7066
97.7027
99.6965
99.9695
99.9739
99.792
99.7064
99.5224
99.3577
99.172
98.9385
98.7398
98.3978
98.0448
97.6728
97.1786
96.4251
96.1961
96.9749
97.9701
98.3266
98.1149
98.0001
97.8717
97.8301
97.7791
97.7586
97.7346
97.7229
97.7122
97.7064
97.7026
100.02
99.7518
99.8619
99.8006
99.8102
99.4865
99.3987
99.2781
98.9667
98.8512
98.4515
98.077
97.7084
97.1567
96.1795
95.9083
96.8328
98.0528
98.4245
98.1567
98.0079
97.8721
97.8275
97.7776
97.757
97.7337
97.7222
97.7118
97.7061
97.7024
100.604
100.159
100.592
100.37
100.363
100.087
99.7697
99.6598
99.2129
99.0947
98.639
98.151
97.7742
97.1543
95.8791
95.5733
96.664
98.1591
98.5435
98.2035
98.0146
97.8715
97.8244
97.776
97.7553
97.7327
97.7214
97.7113
97.7059
97.7022
101.375
101.411
100.899
100.496
100.219
99.8585
99.6741
99.7388
99.2058
99.2625
98.7206
98.1733
97.8748
97.1824
95.5332
95.1528
96.4612
98.2883
98.684
98.2516
98.0191
97.8695
97.8207
97.7742
97.7535
97.7317
97.7206
97.7109
97.7056
97.702
104.995
103.199
102.679
101.412
101.083
100.734
100.118
100.299
99.4761
99.5559
99.0044
98.2245
97.8804
97.2161
95.0728
94.6447
96.2175
98.4536
98.8579
98.3145
98.021
97.8659
97.8163
97.7722
97.7515
97.7307
97.7198
97.7104
97.7053
97.7018
103.316
102.229
101.871
101.391
101.145
100.029
99.9595
100.267
99.435
99.7941
99.1499
98.2423
98.2726
97.423
94.6197
94.1013
95.922
98.6541
99.0614
98.3623
98.0178
97.8602
97.8112
97.77
97.7495
97.7296
97.7189
97.7099
97.7049
97.7016
106.051
103.48
104.032
105.16
102.508
101.136
100.282
101.217
99.7564
100.19
99.5846
98.2419
98.0353
97.4761
93.8545
93.0877
95.5593
98.9049
99.3138
98.4544
98.0129
97.8523
97.8054
97.7676
97.7473
97.7284
97.718
97.7093
97.7046
97.7014
102.177
101.862
102.44
103.018
103.066
99.193
100.249
101.056
99.8619
100.404
99.8189
98.2259
98.8771
98.0687
93.3073
92.657
95.1285
99.2248
99.6173
98.4891
97.9897
97.8405
97.7985
97.765
97.745
97.7272
97.717
97.7088
97.7043
97.7012
109.966
108.181
105.303
107.508
104.475
98.1241
100.426
101.867
100.058
100.942
100.507
98.1584
98.3377
98.2091
92.0247
90.6395
94.5468
99.5542
99.9514
98.5983
97.9793
97.8283
97.7915
97.7626
97.7429
97.7261
97.7161
97.7083
97.704
97.701
94.6389
112.386
105.821
111.57
108.784
93.8501
101.097
101.93
100.394
101.257
100.775
97.7742
99.7054
99.4178
91.3186
90.2421
93.9435
100.148
100.458
98.6351
97.9136
97.8033
97.7822
97.7595
97.74
97.7245
97.7149
97.7075
97.7035
97.7007
99.2123
105.851
92.9975
114.138
109.048
89.4698
100.373
103.762
100.747
101.694
101.888
97.9379
96.6169
95.3363
80.2831
74.3887
91.825
100.498
100.854
98.742
97.9045
97.7928
97.7759
97.7576
97.7383
97.7238
97.7143
97.7072
97.7033
97.7006
100.436
104.548
78.3807
123.337
106.904
53.4988
96.9119
106.7
100.534
99.8437
99.0631
81.5419
79.8894
75.0032
25.8085
13.5964
48.5902
91.0115
101.711
98.8022
97.755
97.7393
97.7612
97.7537
97.7341
97.7216
97.7124
97.7062
97.7026
97.7002
97.7017
97.7015
97.7004
97.7001
97.6995
97.6993
97.6989
97.6987
97.6985
97.6984
97.6982
97.6981
97.698
97.6979
97.6979
97.6978
97.6978
97.6977
97.6977
97.6977
97.6977
97.6976
97.6976
97.6976
97.6976
97.6976
97.6976
97.6977
97.6976
97.6976
97.7017
97.7015
97.7004
97.7001
97.6995
97.6993
97.6989
97.6987
97.6985
97.6984
97.6982
97.6981
97.698
97.6979
97.6979
97.6978
97.6978
97.6977
97.6977
97.6977
97.6977
97.6976
97.6976
97.6976
97.6976
97.6976
97.6976
97.6977
97.6976
97.6976
97.7016
97.7015
97.7004
97.7001
97.6995
97.6993
97.6989
97.6987
97.6985
97.6984
97.6982
97.6981
97.698
97.6979
97.6979
97.6978
97.6978
97.6977
97.6977
97.6977
97.6977
97.6976
97.6976
97.6976
97.6976
97.6976
97.6976
97.6977
97.6976
97.6976
97.7016
97.7015
97.7004
97.7001
97.6995
97.6993
97.6989
97.6987
97.6985
97.6984
97.6982
97.6981
97.698
97.6979
97.6979
97.6978
97.6978
97.6977
97.6977
97.6977
97.6977
97.6976
97.6976
97.6976
97.6976
97.6976
97.6976
97.6977
97.6976
97.6976
97.7016
97.7015
97.7004
97.7001
97.6995
97.6993
97.6989
97.6987
97.6985
97.6983
97.6982
97.6981
97.698
97.6979
97.6979
97.6978
97.6978
97.6977
97.6977
97.6977
97.6977
97.6976
97.6976
97.6976
97.6976
97.6976
97.6976
97.6977
97.6976
97.6977
97.7016
97.7014
97.7004
97.7001
97.6995
97.6993
97.6989
97.6987
97.6985
97.6983
97.6982
97.6981
97.698
97.6979
97.6979
97.6978
97.6978
97.6977
97.6977
97.6977
97.6977
97.6976
97.6976
97.6976
97.6976
97.6976
97.6976
97.6977
97.6976
97.6977
97.7015
97.7014
97.7004
97.7001
97.6995
97.6992
97.6989
97.6987
97.6985
97.6983
97.6982
97.6981
97.698
97.6979
97.6979
97.6978
97.6978
97.6977
97.6977
97.6977
97.6977
97.6976
97.6976
97.6976
97.6976
97.6977
97.6976
97.6977
97.6976
97.6977
97.7015
97.7013
97.7003
97.7
97.6995
97.6992
97.6989
97.6987
97.6985
97.6983
97.6982
97.6981
97.698
97.6979
97.6978
97.6978
97.6978
97.6977
97.6977
97.6977
97.6977
97.6976
97.6976
97.6976
97.6976
97.6977
97.6976
97.6977
97.6976
97.6977
97.7015
97.7013
97.7003
97.7
97.6995
97.6992
97.6989
97.6987
97.6985
97.6983
97.6982
97.6981
97.698
97.6979
97.6978
97.6978
97.6978
97.6977
97.6977
97.6977
97.6977
97.6977
97.6976
97.6976
97.6976
97.6977
97.6976
97.6977
97.6976
97.6977
97.7014
97.7012
97.7003
97.7
97.6994
97.6992
97.6989
97.6987
97.6985
97.6983
97.6982
97.6981
97.698
97.6979
97.6978
97.6978
97.6978
97.6977
97.6977
97.6977
97.6977
97.6977
97.6976
97.6976
97.6976
97.6977
97.6976
97.6977
97.6976
97.6977
97.7014
97.7012
97.7002
97.6999
97.6994
97.6992
97.6989
97.6987
97.6985
97.6983
97.6982
97.6981
97.698
97.6979
97.6978
97.6978
97.6978
97.6977
97.6977
97.6977
97.6977
97.6977
97.6976
97.6977
97.6976
97.6977
97.6976
97.6977
97.6976
97.6977
97.7013
97.7011
97.7002
97.6999
97.6994
97.6991
97.6988
97.6986
97.6984
97.6983
97.6982
97.6981
97.698
97.6979
97.6978
97.6978
97.6978
97.6977
97.6977
97.6977
97.6977
97.6977
97.6976
97.6977
97.6976
97.6977
97.6976
97.6977
97.6976
97.6977
97.7013
97.701
97.7002
97.6998
97.6994
97.6991
97.6988
97.6986
97.6984
97.6983
97.6982
97.6981
97.698
97.6979
97.6978
97.6978
97.6978
97.6977
97.6977
97.6977
97.6977
97.6977
97.6976
97.6977
97.6976
97.6977
97.6976
97.6977
97.6976
97.6977
97.7012
97.7009
97.7001
97.6998
97.6993
97.6991
97.6988
97.6986
97.6984
97.6983
97.6981
97.6981
97.698
97.6979
97.6978
97.6978
97.6978
97.6977
97.6977
97.6977
97.6977
97.6977
97.6976
97.6977
97.6976
97.6977
97.6976
97.6977
97.6976
97.6977
97.7011
97.7009
97.7001
97.6998
97.6993
97.6991
97.6988
97.6986
97.6984
97.6983
97.6981
97.698
97.698
97.6979
97.6978
97.6978
97.6978
97.6977
97.6977
97.6977
97.6977
97.6977
97.6977
97.6977
97.6976
97.6977
97.6976
97.6977
97.6976
97.6977
97.7011
97.7008
97.7
97.6997
97.6993
97.699
97.6987
97.6986
97.6984
97.6983
97.6981
97.698
97.698
97.6979
97.6978
97.6978
97.6978
97.6977
97.6977
97.6977
97.6977
97.6977
97.6977
97.6977
97.6976
97.6977
97.6976
97.6977
97.6976
97.6977
97.701
97.7007
97.7
97.6996
97.6992
97.699
97.6987
97.6985
97.6984
97.6982
97.6981
97.698
97.698
97.6979
97.6978
97.6978
97.6978
97.6977
97.6977
97.6977
97.6977
97.6977
97.6977
97.6977
97.6976
97.6977
97.6976
97.6977
97.6976
97.6977
97.7009
97.7006
97.6999
97.6996
97.6992
97.6989
97.6987
97.6985
97.6983
97.6982
97.6981
97.698
97.6979
97.6979
97.6978
97.6978
97.6978
97.6977
97.6977
97.6977
97.6977
97.6977
97.6977
97.6977
97.6976
97.6977
97.6976
97.6977
97.6976
97.6977
97.7008
97.7005
97.6998
97.6995
97.6991
97.6989
97.6987
97.6985
97.6983
97.6982
97.6981
97.698
97.6979
97.6979
97.6978
97.6978
97.6978
97.6977
97.6977
97.6977
97.6977
97.6977
97.6977
97.6977
97.6976
97.6977
97.6976
97.6977
97.6976
97.6977
97.7007
97.7004
97.6998
97.6995
97.6991
97.6989
97.6986
97.6985
97.6983
97.6982
97.6981
97.698
97.6979
97.6979
97.6978
97.6978
97.6978
97.6977
97.6977
97.6977
97.6977
97.6977
97.6977
97.6977
97.6977
97.6977
97.6976
97.6977
97.6976
97.6978
97.7007
97.7003
97.6997
97.6994
97.699
97.6988
97.6986
97.6984
97.6983
97.6982
97.6981
97.698
97.6979
97.6979
97.6978
97.6978
97.6978
97.6977
97.6977
97.6977
97.6977
97.6977
97.6977
97.6977
97.6977
97.6977
97.6976
97.6977
97.6975
97.6978
97.7006
97.7002
97.6996
97.6993
97.699
97.6988
97.6986
97.6984
97.6983
97.6982
97.6981
97.698
97.6979
97.6979
97.6978
97.6978
97.6978
97.6977
97.6977
97.6977
97.6977
97.6977
97.6977
97.6977
97.6977
97.6977
97.6976
97.6977
97.6975
97.6978
97.7005
97.7001
97.6996
97.6993
97.6989
97.6987
97.6985
97.6984
97.6982
97.6981
97.6981
97.698
97.6979
97.6979
97.6978
97.6978
97.6978
97.6977
97.6977
97.6977
97.6977
97.6977
97.6977
97.6977
97.6977
97.6977
97.6976
97.6977
97.6975
97.6978
97.7003
97.6999
97.6995
97.6992
97.6989
97.6987
97.6985
97.6984
97.6982
97.6981
97.698
97.698
97.6979
97.6979
97.6978
97.6978
97.6978
97.6977
97.6977
97.6977
97.6977
97.6977
97.6977
97.6977
97.6977
97.6977
97.6976
97.6977
97.6975
97.6979
97.7002
97.6998
97.6994
97.6991
97.6988
97.6986
97.6985
97.6983
97.6982
97.6981
97.698
97.698
97.6979
97.6979
97.6978
97.6978
97.6978
97.6977
97.6977
97.6977
97.6977
97.6977
97.6977
97.6977
97.6977
97.6977
97.6976
97.6978
97.6974
97.6978
97.7001
97.6997
97.6993
97.699
97.6988
97.6986
97.6984
97.6983
97.6982
97.6981
97.698
97.6979
97.6979
97.6979
97.6978
97.6978
97.6978
97.6977
97.6977
97.6977
97.6977
97.6977
97.6977
97.6977
97.6977
97.6977
97.6976
97.6978
97.6974
97.6979
97.7
97.6996
97.6993
97.6989
97.6987
97.6985
97.6984
97.6983
97.6982
97.6981
97.698
97.6979
97.6979
97.6978
97.6978
97.6978
97.6978
97.6977
97.6977
97.6977
97.6977
97.6977
97.6977
97.6977
97.6977
97.6977
97.6976
97.6978
97.6974
97.6979
97.6998
97.6994
97.6991
97.6988
97.6987
97.6985
97.6983
97.6982
97.6981
97.698
97.698
97.6979
97.6979
97.6978
97.6978
97.6978
97.6978
97.6977
97.6977
97.6977
97.6977
97.6977
97.6977
97.6977
97.6977
97.6977
97.6977
97.6978
97.6974
97.6981
97.6998
97.6993
97.6991
97.6988
97.6986
97.6984
97.6983
97.6982
97.6981
97.698
97.698
97.6979
97.6979
97.6978
97.6978
97.6978
97.6978
97.6977
97.6977
97.6977
97.6977
97.6977
97.6977
97.6977
97.6977
97.6977
97.6977
97.6978
97.6972
97.6979
97.6995
97.6991
97.6989
97.6986
97.6985
97.6983
97.6983
97.6981
97.6981
97.698
97.6979
97.6979
97.6979
97.6978
97.6978
97.6978
97.6978
97.6977
97.6977
97.6977
97.6977
97.6977
97.6977
97.6977
97.6969
97.6977
97.6956
97.6978
97.6937
97.6983
-10.2639
44.7537
0.431706
52.0369
8.10019
1.63075
12.7035
11.6471
9.77768
9.42644
8.60107
0.482389
1.38816
6.07016
0.55957
-0.182658
0.897553
19.5583
20.8091
9.87633
3.95773
1.83073
1.32841
0.875534
0.605654
0.376273
0.232991
0.13391
0.072856
0.0387484
102.292
-0.175995
0.164615
-0.311064
0.141562
-0.107802
-0.0208477
-0.0286535
-0.0375154
-0.0224172
-0.0388336
-0.017676
-0.063532
-0.0419906
-0.0633465
-0.0443467
-0.0433854
0.0330215
-0.0129037
0.0234533
-0.00379391
0.0114229
-0.000870363
0.00466856
0.000507036
0.00149752
0.000892567
0.000498982
0.000575373
0.000128145
152.103
16.428
0.534736
-0.115547
0.184696
-0.000973595
0.0221899
0.00405193
-0.00740133
-0.0126542
-0.0175795
-0.0289305
-0.0374126
-0.0439204
-0.0389846
-0.0375328
-0.0429462
0.104487
-0.0149117
0.0252851
-0.00410406
0.0113609
-0.000903469
0.00464796
0.000486013
0.00150192
0.000885895
0.000500216
0.000573142
0.000128336
118.393
63.5251
0.811178
-0.298026
0.168034
-0.12372
0.0199097
-0.0387447
-0.0307037
-0.0246541
-0.0356351
-0.0186859
-0.0410588
-0.0245207
-0.0382829
-0.0251697
-0.0251265
0.0319484
-0.0109949
0.0218561
-0.00428892
0.0109008
-0.000955643
0.00455731
0.000494087
0.00146558
0.000881237
0.000487829
0.000569981
0.000123498
66.8364
13.011
0.799409
0.271928
-0.208153
0.106975
-0.10168
0.024354
-0.0343975
-0.0112978
-0.0229021
-0.0215339
-0.0312704
-0.0244684
-0.0296712
-0.0119325
-0.0258088
0.0474183
-0.0129488
0.0208272
-0.00421465
0.0103804
-0.000936782
0.00441837
0.000512093
0.00142387
0.000877744
0.000480826
0.000565182
0.000123459
127.976
-2.87274
-1.25427
0.553468
-0.0528084
-0.0599195
0.0659458
-0.0835178
0.0317576
-0.0539691
-0.017274
-0.0194868
-0.0287338
-0.0164831
-0.0270639
-0.0105449
-0.0173983
0.0226654
-0.00987943
0.0181588
-0.00406014
0.0096956
-0.000875093
0.00422879
0.000540421
0.00136018
0.000872949
0.000466545
0.000558831
0.000118812
54.8761
-3.02828
-0.371934
-0.452247
0.014175
-0.148694
-0.0775124
-0.0441298
-0.0427594
-0.0283329
-0.0236821
-0.0188842
-0.0251388
-0.015117
-0.0230462
-0.00560864
-0.0173237
0.0233756
-0.00970877
0.0160094
-0.00370793
0.00895236
-0.000774436
0.00400499
0.000577857
0.00129735
0.000864974
0.000454914
0.000550901
0.000115987
33.2621
-0.375514
-0.861086
-0.129878
-0.0734264
-0.0328395
0.0211862
-0.0351888
0.0164817
-0.0304228
-0.0157987
-0.0163871
-0.0224712
-0.0119333
-0.0205242
-0.00365055
-0.0134564
0.0145716
-0.00811106
0.0137921
-0.00340515
0.00815884
-0.000647534
0.00373446
0.000622445
0.00122429
0.000852692
0.000439456
0.000541387
0.000111947
56.8483
2.83774
-0.856388
0.124214
-0.211518
0.0157134
-0.0921235
-0.0325043
-0.0316142
-0.0263682
-0.0211586
-0.0150047
-0.0204122
-0.00986896
-0.017792
-0.0026161
-0.0122107
0.0135075
-0.00709019
0.0118362
-0.00294781
0.00735513
-0.000497137
0.00345858
0.000672506
0.00114909
0.000836023
0.000423347
0.0005303
0.00010799
103.299
21.7008
0.975564
-0.0749046
-0.0388551
-0.0167559
-0.0067599
-0.0251385
-0.00400106
-0.0212233
-0.0166483
-0.0130628
-0.0184318
-0.0082298
-0.0160045
-0.00158302
-0.0107017
0.00980157
-0.00620002
0.0100391
-0.00257522
0.00654945
-0.000333639
0.0031665
0.000724878
0.00107066
0.00081605
0.000405918
0.00051766
0.000103762
113.846
24.2059
1.88095
-0.114828
0.060726
-0.0263269
0.0171356
-0.0273787
-0.00465489
-0.0175299
-0.0165162
-0.0110184
-0.0167974
-0.00687427
-0.0140383
-0.00134275
-0.00936637
0.00749326
-0.00532393
0.00843134
-0.00213075
0.00577146
-0.000162453
0.00286654
0.000775955
0.000991173
0.000793552
0.00038753
0.000503498
9.93471e-05
109.385
12.4755
0.032573
-0.0207469
0.0644187
-0.0250915
0.0243118
-0.0218979
-0.0068684
-0.0114886
-0.0156257
-0.00955871
-0.0153657
-0.00591602
-0.0125552
-0.0010715
-0.00826686
0.00572971
-0.00457191
0.0069958
-0.00173369
0.00502446
9.24003e-06
0.00256485
0.000820587
0.000913974
0.000768907
0.000368397
0.000487846
9.47704e-05
94.1621
3.87923
-0.0325846
-0.0137773
0.0115051
-0.0313455
-0.00736926
-0.021322
-0.018282
-0.0136403
-0.0162424
-0.00884916
-0.0140677
-0.00520284
-0.0110467
-0.00100012
-0.00715823
0.00434035
-0.00382356
0.00573694
-0.00132843
0.00431852
0.000178638
0.00226582
0.000854081
0.000842501
0.000742284
0.000348709
0.000470742
9.0054e-05
15.3756
2.11122
0.0736352
-0.0844381
-0.0326216
-0.0384043
-0.0217244
-0.0214458
-0.0189065
-0.013399
-0.0157507
-0.00845898
-0.0127402
-0.00470636
-0.00965867
-0.00102275
-0.00617769
0.00321326
-0.00315835
0.00462876
-0.00095164
0.00365945
0.0003401
0.00197496
0.00087425
0.000777785
0.000713746
0.000328626
0.000452231
8.52196e-05
0.026017
0.0850105
0.0638837
-0.0998019
-0.0491897
-0.0494374
-0.0246814
-0.030154
-0.0272256
-0.0157378
-0.0163694
-0.00829303
-0.0113729
-0.0042742
-0.00831642
-0.00108204
-0.00520225
0.00229475
-0.00250432
0.00365764
-0.000591671
0.00305089
0.000490251
0.00169927
0.000881545
0.000717466
0.00068324
0.000308271
0.000432356
8.02864e-05
0.190517
0.0711896
0.0516977
0.207592
0.0145701
0.135457
0.137039
-0.0411366
-0.0282964
-0.0152961
-0.0146029
-0.00727679
-0.00965823
-0.00380213
-0.00699129
-0.00114601
-0.00429052
0.00153763
-0.00190794
0.00281195
-0.000263103
0.00249641
0.000622967
0.00144944
0.000873335
0.000659737
0.000650696
0.000287742
0.000411166
7.52716e-05
0.591191
0.527335
0.701339
1.11274
0.94776
0.835056
0.0474549
-0.0116281
-0.0116373
-0.0087696
-0.0105977
-0.0057634
-0.00787958
-0.0033021
-0.00570336
-0.0011996
-0.00342037
0.000909236
-0.00134941
0.00208113
4.28938e-05
0.00200006
0.000728876
0.00123568
0.000847834
0.000603931
0.000616096
0.000267131
0.000388718
7.01922e-05
1.19479
0.959801
1.4285
0.992986
0.897376
0.309176
-0.00867175
-0.0118438
-0.010605
-0.0074771
-0.0075198
-0.00448672
-0.00603086
-0.00272937
-0.00446012
-0.00122589
-0.00260253
0.000394761
-0.000847424
0.0014634
0.000293544
0.00157206
0.000792747
0.00105975
0.000809892
0.000549859
0.000579476
0.000246509
0.00036507
6.50617e-05
4.15535
4.84145
0.440607
0.142894
0.0646633
-0.00763229
-0.00426655
-0.00260691
-0.00296803
-0.00331739
-0.00410104
-0.00306236
-0.00415022
-0.00220454
-0.00330054
-0.00123094
-0.0018561
-1.10732e-05
-0.000426243
0.000972568
0.000470804
0.00123236
0.000808025
0.000914589
0.000764079
0.000497501
0.000540908
0.000225934
0.000340286
5.98912e-05
9.38909
2.98624
-0.015416
0.0199863
0.00446051
0.00730198
0.00358503
0.00267227
0.000544739
-0.000551631
-0.00147722
-0.00171231
-0.00244842
-0.00168576
-0.00224623
-0.00119915
-0.00121582
-0.000255057
-0.000151491
0.000646855
0.000544869
0.000983638
0.000785631
0.000789408
0.000712484
0.000446867
0.000500497
0.000205459
0.00031444
5.46944e-05
11.0918
0.216325
-0.0067812
0.0189472
0.0119885
0.0150422
0.00925081
0.00748276
0.00428966
0.00210689
0.000696652
-0.000358373
-0.00101176
-0.00120209
-0.00134837
-0.00105778
-0.000778866
-0.00034328
1.09083e-05
0.000437518
0.000564508
0.000792155
0.000742846
0.000678851
0.000656315
0.000397943
0.000458355
0.00018512
0.000287605
4.948e-05
5.00342
0.0088815
-0.0142028
0.0148525
0.00997012
0.0147336
0.0102163
0.00912506
0.00600611
0.00375056
0.00221793
0.00068043
0.000111901
-0.000729783
-0.000640148
-0.000879557
-0.000436837
-0.000370052
0.000119605
0.000291487
0.000553281
0.000637981
0.000687146
0.000579922
0.000596371
0.000350691
0.000414609
0.00016494
0.000259859
4.42551e-05
0.0314934
-0.00249824
0.00746605
0.0198384
0.0148095
0.0171805
0.0128087
0.0110734
0.00803718
0.00517305
0.00367613
0.0014467
0.0010537
-0.000317329
-8.26807e-05
-0.000704516
-0.000169786
-0.000363553
0.000191693
0.000187666
0.000523317
0.00051127
0.000622528
0.000490634
0.000533255
0.000305049
0.000369406
0.00014494
0.000231288
3.90264e-05
0.0124421
0.00297237
0.0227061
0.0248555
0.0214499
0.0194007
0.0153918
0.0123022
0.00908624
0.00602854
0.00444841
0.00198869
0.00165572
9.53942e-06
0.00032008
-0.000544988
2.66035e-05
-0.000337091
0.000232946
0.000114242
0.000479135
0.000405818
0.000551219
0.000409448
0.000467439
0.000260914
0.000322892
0.000125122
0.000201979
3.37983e-05
0.0074076
0.00931023
0.0178666
0.0199022
0.0196987
0.0183775
0.0154704
0.0127009
0.00957858
0.00642211
0.00489653
0.00229819
0.00202715
0.000235604
0.000580683
-0.000407272
0.000156958
-0.000298368
0.000247546
6.35415e-05
0.000423824
0.000317196
0.000474557
0.000335078
0.000399331
0.000218152
0.000275218
0.000105482
0.000172021
2.85733e-05
-0.0115376
-0.00501315
0.0135831
0.0214966
0.0219821
0.0207669
0.0170213
0.0135279
0.0100544
0.00649064
0.00497966
0.00233707
0.00210693
0.000356267
0.000695212
-0.000294378
0.000224143
-0.000252275
0.000238106
3.00241e-05
0.000359359
0.000241872
0.000393627
0.000266336
0.000329326
0.00017661
0.000226558
8.60116e-05
0.000141511
2.33543e-05
-0.00990684
-0.00418147
0.0148728
0.0203373
0.0191099
0.0176509
0.014225
0.0110775
0.00876732
0.00535074
0.00449886
0.0020298
0.001952
0.000370315
0.00068638
-0.000206041
0.000236572
-0.00020185
0.000207998
9.40576e-06
0.000287404
0.000176926
0.000309418
0.000202146
0.000257775
0.000136102
0.000177081
6.66895e-05
0.000110546
1.81416e-05
-0.0207771
-0.00373152
0.0165101
0.0167417
0.0164937
0.0141411
0.0111329
0.0078075
0.00678895
0.00396476
0.00353325
0.00155084
0.00154646
0.0003058
0.000566828
-0.000138165
0.000202361
-0.000148956
0.000160812
-1.79423e-06
0.000209518
0.000119786
0.000222733
0.000141478
0.000185015
9.64189e-05
0.000126958
4.74887e-05
7.92207e-05
1.29338e-05
-0.0575469
-0.0240194
0.0124455
0.00970049
0.0100313
0.0069059
0.00511659
0.00327594
0.00389706
0.00208167
0.00219564
0.000871855
0.000985262
0.000180123
0.000370489
-8.52879e-05
0.000134481
-9.45941e-05
0.000101134
-6.54698e-06
0.000127394
6.81093e-05
0.000134353
8.3338e-05
0.000111404
5.73425e-05
7.63817e-05
2.83796e-05
4.76433e-05
7.72903e-06
-0.0624753
-0.0431338
-0.00758367
-0.00153973
0.000518605
-0.000439462
-0.000944951
-0.00180047
-0.000479645
1.02174e-05
0.000411293
0.000179486
0.000310281
3.47284e-05
0.000127009
-3.99275e-05
4.60321e-05
-3.93572e-05
3.39379e-05
-7.51802e-06
4.27559e-05
1.96545e-05
4.50387e-05
2.66507e-05
3.73001e-05
1.86383e-05
2.55433e-05
9.33052e-06
1.59223e-05
2.5299e-06
0.0248659
0.0199316
0.0154754
0.0123379
0.00958407
0.00765109
0.00592414
0.00478009
0.00367594
0.00296801
0.00228824
0.00183582
0.00142388
0.00112198
0.000878034
0.000668785
0.000519973
0.000379056
0.000287428
0.000201244
0.00014815
6.84804e-05
-3.82192e-05
-2.53329e-05
-6.85558e-05
4.50936e-05
-5.90982e-05
0.00065335
-0.000139552
0.00304333
0.000308011
0.000164825
0.000246314
0.000125822
0.000184267
9.38141e-05
0.00012314
6.20101e-05
6.85731e-05
3.08024e-05
2.04116e-05
-1.01518e-06
-1.74703e-05
-3.31524e-05
-4.70768e-05
-5.91423e-05
-6.90117e-05
-7.67458e-05
-8.20362e-05
-8.5162e-05
-8.56911e-05
-8.45705e-05
-8.05769e-05
-7.61809e-05
-6.82465e-05
-6.15654e-05
-5.20171e-05
-4.11888e-05
-2.51135e-05
-2.47356e-07
0.000308915
0.000162694
0.000247153
0.000124236
0.000184535
9.32688e-05
0.000122674
6.12391e-05
6.87114e-05
3.01025e-05
2.06059e-05
-1.20837e-06
-1.73038e-05
-3.30299e-05
-4.68822e-05
-5.88759e-05
-6.87072e-05
-7.6378e-05
-8.16507e-05
-8.47448e-05
-8.5274e-05
-8.41475e-05
-8.00679e-05
-7.5838e-05
-6.81807e-05
-6.27801e-05
-5.58928e-05
-5.33186e-05
-6.79109e-05
-8.06194e-05
0.000307187
0.000160595
0.000245492
0.00012209
0.000183636
9.08873e-05
0.000122945
6.00812e-05
6.86526e-05
2.95972e-05
2.08182e-05
-1.3858e-06
-1.72343e-05
-3.27999e-05
-4.65244e-05
-5.84516e-05
-6.81633e-05
-7.57923e-05
-8.10037e-05
-8.40733e-05
-8.45625e-05
-8.34566e-05
-7.94126e-05
-7.51584e-05
-6.71636e-05
-6.11545e-05
-5.01702e-05
-4.28504e-05
-2.80243e-05
-1.18872e-05
0.000304387
0.000158889
0.000242969
0.000120428
0.000181855
8.91867e-05
0.000122342
5.90836e-05
6.83545e-05
2.91267e-05
2.09479e-05
-1.4037e-06
-1.70906e-05
-3.24567e-05
-4.60263e-05
-5.78351e-05
-6.74036e-05
-7.49519e-05
-8.00985e-05
-8.31299e-05
-8.35954e-05
-8.25029e-05
-7.84538e-05
-7.42918e-05
-6.64467e-05
-6.12083e-05
-5.11606e-05
-4.85006e-05
-3.7166e-05
-4.18383e-05
0.000300855
0.000155863
0.000239913
0.000117989
0.000179502
8.72607e-05
0.000121073
5.80001e-05
6.76591e-05
2.86504e-05
2.07854e-05
-1.34407e-06
-1.69321e-05
-3.20366e-05
-4.54098e-05
-5.70666e-05
-6.6468e-05
-7.39242e-05
-7.89706e-05
-8.19598e-05
-8.23886e-05
-8.13099e-05
-7.72636e-05
-7.31329e-05
-6.51075e-05
-5.95054e-05
-4.74587e-05
-4.1989e-05
-2.37634e-05
-1.67573e-05
0.000296228
0.000153026
0.000236077
0.000115753
0.000176595
8.54687e-05
0.000119305
5.68578e-05
6.67132e-05
2.81473e-05
2.05135e-05
-1.24465e-06
-1.67022e-05
-3.15164e-05
-4.46584e-05
-5.61216e-05
-6.53425e-05
-7.26818e-05
-7.762e-05
-8.05592e-05
-8.09494e-05
-7.98859e-05
-7.58501e-05
-7.17845e-05
-6.37792e-05
-5.85015e-05
-4.66086e-05
-4.30121e-05
-2.44312e-05
-2.4635e-05
0.000290742
0.000149219
0.000231575
0.000112854
0.000173154
8.3358e-05
0.000117067
5.55818e-05
6.54761e-05
2.75851e-05
2.00945e-05
-1.14529e-06
-1.64422e-05
-3.09313e-05
-4.37966e-05
-5.50321e-05
-6.40376e-05
-7.12468e-05
-7.60549e-05
-7.8937e-05
-7.9285e-05
-7.82374e-05
-7.42175e-05
-7.02094e-05
-6.21724e-05
-5.68459e-05
-4.43491e-05
-3.93969e-05
-1.97404e-05
-1.58407e-05
0.000284378
0.000145607
0.000226415
0.000110102
0.000169226
8.1278e-05
0.000114436
5.42298e-05
6.40232e-05
2.69828e-05
1.96194e-05
-1.033e-06
-1.61054e-05
-3.02482e-05
-4.2811e-05
-5.3787e-05
-6.25551e-05
-6.96183e-05
-7.42797e-05
-7.70983e-05
-7.74013e-05
-7.63718e-05
-7.23788e-05
-6.84409e-05
-6.04374e-05
-5.52357e-05
-4.28301e-05
-3.81e-05
-1.86095e-05
-1.68127e-05
0.000277155
0.000141388
0.000220592
0.000106905
0.000164803
7.89613e-05
0.000111403
5.2756e-05
6.22868e-05
2.63134e-05
1.90173e-05
-9.31888e-07
-1.57185e-05
-2.94798e-05
-4.1707e-05
-5.23919e-05
-6.08983e-05
-6.78028e-05
-7.22998e-05
-7.50487e-05
-7.53049e-05
-7.4296e-05
-7.03413e-05
-6.64813e-05
-5.85399e-05
-5.33957e-05
-4.08592e-05
-3.6008e-05
-1.68657e-05
-1.35958e-05
0.000269108
0.000136857
0.000214132
0.0001035
0.000159922
7.64938e-05
0.000108355
5.11722e-05
6.04043e-05
2.55771e-05
1.83539e-05
-8.40735e-07
-1.52795e-05
-2.86271e-05
-4.04871e-05
-5.08505e-05
-5.90881e-05
-6.57897e-05
-7.01214e-05
-7.27952e-05
-7.3003e-05
-7.2018e-05
-6.81154e-05
-6.4345e-05
-5.65037e-05
-5.14603e-05
-3.901e-05
-3.42794e-05
-1.58211e-05
-1.26609e-05
0.000260266
0.000131985
0.000207053
9.98513e-05
0.000154582
7.38354e-05
0.000104655
4.94469e-05
5.83303e-05
2.47706e-05
1.7631e-05
-7.60361e-07
-1.47906e-05
-2.76919e-05
-3.91541e-05
-4.91664e-05
-5.71168e-05
-6.35961e-05
-6.77514e-05
-7.03448e-05
-7.05029e-05
-6.95458e-05
-6.57096e-05
-6.20425e-05
-5.43291e-05
-4.9424e-05
-3.71856e-05
-3.24384e-05
-1.48941e-05
-1.12281e-05
0.000250664
0.000126784
0.000199378
9.59619e-05
0.000148798
7.09917e-05
0.000100681
4.75897e-05
5.60817e-05
2.38927e-05
1.68567e-05
-6.90436e-07
-1.42549e-05
-2.66772e-05
-3.77114e-05
-4.73436e-05
-5.49791e-05
-6.12381e-05
-6.51974e-05
-6.77051e-05
-6.78119e-05
-6.68877e-05
-6.31325e-05
-5.95881e-05
-5.20174e-05
-4.72176e-05
-3.54709e-05
-3.06411e-05
-1.41179e-05
-1.01628e-05
0.000240338
0.000121272
0.000191134
9.18397e-05
0.000142596
6.79709e-05