/*--------------------------------*- C++ -*----------------------------------*\
| =========                 |                                                 |
| \\      /  F ield         | OpenFOAM: The Open Source CFD Toolbox           |
|  \\    /   O peration     | Version:  2.4.0                                 |
|   \\  /    A nd           | Web:      www.OpenFOAM.org                      |
|    \\/     M anipulation  |                                                 |
\*---------------------------------------------------------------------------*/
FoamFile
{
    version     2.0;
    format      ascii;
    class       volScalarField;
    location    "0.053";
    object      p;
}
// * * * * * * * * * * * * * * * * * * * * * * * * * * * * * * * * * * * * * //

dimensions      [1 -1 -2 0 0 0 0];

internalField   nonuniform List<scalar> 
3600
(
98.5052
99.3327
100.73
102.44
104.301
106.171
107.849
109.099
109.693
109.485
108.402
106.469
103.925
100.996
98.1229
95.0382
93.7386
91.7733
94.3577
81.6125
71.254
82.2196
93.061
98.7567
96.0261
95.5804
98.9674
102.613
104.613
105.29
95.2427
96.0702
97.468
99.1789
101.041
102.912
104.593
105.847
106.444
106.235
105.153
103.212
100.658
97.7166
94.8224
91.661
90.1535
87.5227
88.8461
74.2172
64.1385
73.6177
85.2049
90.7045
89.2217
89.0899
92.9453
96.674
99.0942
100.715
91.9763
92.8042
94.203
95.9148
97.7778
99.6536
101.34
102.603
103.208
103.005
101.919
99.9693
97.4
94.4332
91.512
88.2392
86.6424
83.2321
83.9766
68.998
57.3966
65.44
76.6961
84.9522
84.8991
86.2817
89.3565
91.7045
93.7896
95.4222
88.7061
89.5345
90.9349
92.6481
94.513
96.3951
98.0922
99.3685
99.9876
99.7953
98.7065
96.7452
94.1542
91.1524
88.1988
84.7941
83.2435
78.9942
79.853
64.3158
50.4651
59.5025
70.6124
80.8223
82.6669
84.2617
85.7487
86.295
87.721
89.8334
85.4322
86.2612
87.6636
89.3786
91.2462
93.1369
94.8484
96.1442
96.7836
96.606
95.5149
93.5404
90.9217
87.8759
84.8797
81.3455
79.8362
74.856
76.4738
62.0076
49.7086
55.8477
66.6255
76.5778
82.937
85.2511
83.6425
82.8075
81.8039
84.4704
82.1544
82.9841
84.3891
86.1064
87.9773
89.8789
91.609
92.9299
93.5957
93.4377
92.345
90.3552
87.7027
84.6052
81.5495
77.9062
76.2612
71.0497
72.7144
61.894
50.8765
54.464
64.1322
72.3388
78.4595
80.4619
81.8977
81.3763
80.8078
81.7646
78.8729
79.7034
81.1115
82.8314
84.7062
86.621
88.3736
89.7254
90.4241
90.2904
89.1971
87.1899
84.4971
81.3403
78.203
74.4684
72.5611
67.3755
68.4313
60.1261
50.6353
53.1084
61.361
72.5459
77.862
78.0069
79.3906
78.5857
78.6807
79.294
75.5875
76.419
77.8307
79.5537
81.4328
83.363
85.1421
86.5307
87.2687
87.1644
86.0713
84.045
81.3052
78.0818
74.8388
71.027
68.7027
63.8033
62.0711
56.6205
48.947
47.5683
56.3065
70.76
81.2861
79.8276
77.3325
75.7214
75.4874
75.6424
72.2984
73.1309
74.5467
76.2731
78.157
80.1047
81.9142
83.3454
84.1297
84.0599
82.9678
80.9207
78.1269
74.83
71.4586
67.5991
64.7394
60.1054
54.554
51.3671
46.6637
45.3378
51.0362
62.9016
70.9293
73.6413
72.6144
71.8668
71.5529
71.9981
69.0055
69.8391
71.2596
72.9898
74.8786
76.846
78.6898
80.1696
81.0071
80.9771
79.8869
77.8175
74.9623
71.5839
68.0745
64.1885
60.8038
56.3968
49.7399
47.2206
43.3464
41.5433
44.2619
54.2192
62.5818
65.5982
66.6736
66.5217
67.2481
67.8591
65.7087
66.5435
67.9693
69.7035
71.5975
73.5865
75.4684
77.003
77.9009
77.9163
76.8285
74.7363
71.8115
68.3422
64.6966
60.7566
56.8502
52.7626
46.3685
43.4989
37.7365
32.6013
31.5769
42.005
52.9163
57.3241
59.6053
61.7238
63.2745
64.5427
62.4082
63.2441
64.6758
66.4144
68.3134
70.3261
72.2498
73.8453
74.8113
74.8779
73.7928
71.6777
68.6743
65.1043
61.3304
57.2551
53.0347
48.8827
42.4254
38.1362
27.5854
21.5741
15.6945
24.5129
39.2279
48.4433
53.7379
56.9178
58.5876
59.5789
59.1038
59.9409
61.3791
63.1224
65.0262
67.0644
69.0336
70.6962
71.7383
71.8623
70.7797
68.6423
65.5498
61.8722
57.9698
53.7664
49.2915
44.8671
38.44
31.2626
17.2732
6.63379
-0.504613
3.45117
23.9938
38.1602
46.0005
49.4124
51.2848
51.8365
55.7956
56.6338
58.0793
59.8275
61.7356
63.8011
65.8193
67.5554
68.682
68.8699
67.7955
65.6238
62.4367
58.6467
54.6139
50.3035
45.6544
40.51
34.9258
23.7136
7.82201
-16.8269
-25.7227
-15.9659
10.22
26.9082
35.7605
40.3191
43.1256
44.3632
52.4837
53.3229
54.7763
56.5296
58.4413
60.5358
62.6064
64.4225
65.6423
65.9013
64.838
62.6251
59.3335
55.4262
51.259
46.9045
42.0282
36.2179
30.9883
17.8192
0.824593
-21.4358
-10.9843
-8.94618
1.45614
15.6438
27.9676
34.7363
37.4233
37.9647
49.1678
50.0081
51.4702
53.2288
55.1432
57.2682
59.3944
61.2971
62.6195
62.9568
61.9069
59.6469
56.2392
52.2092
47.9016
43.5854
38.4087
32.6725
25.5018
13.9925
-7.05447
-4.28205
0.103577
0.306278
-0.166651
9.46706
26.1812
32.719
32.5559
30.7362
45.8482
46.6893
48.1609
49.925
51.8408
53.9977
56.1825
58.1785
59.6134
60.037
59.0021
56.6893
53.1511
48.9937
44.5461
40.3483
34.5679
29.9589
19.2935
11.3968
-10.0886
-0.461192
-0.0165337
-0.135871
0.314212
1.73679
10.9933
24.6426
23.6448
22.2783
42.5247
43.3665
44.8485
46.6182
48.5339
50.7241
52.9702
55.0663
56.6241
57.1421
56.1232
53.7526
50.0654
45.7662
41.1782
37.1871
30.5814
27.1816
14.1597
2.41224
-1.19944
-0.035962
0.0200334
-0.0972452
0.0260308
-0.00622803
0.0189449
1.74126
2.30401
3.78409
39.1974
40.0397
41.5331
43.3086
45.222
47.4467
49.7565
51.9596
53.6516
54.2724
53.27
50.8374
46.9837
42.5312
37.8308
34.1231
27.2058
23.5245
11.8465
-8.01436
-0.223277
-0.0107578
-0.0907732
-0.0898117
-0.0903153
-0.107045
-0.105537
-0.0230692
0.0895896
0.270728
35.8663
36.7087
38.2146
39.9961
41.9048
44.1651
46.5405
48.8577
50.6961
51.4283
50.4421
47.9419
43.8967
39.2716
34.4779
31.0745
25.1853
19.0103
10.1346
-6.51457
-0.0867499
-0.00474054
-0.0362667
-0.0775477
-0.0987989
-0.0783156
-0.0409403
-0.00997983
0.0454418
0.110738
32.5313
33.3735
34.8932
36.6806
38.5819
40.8788
43.3211
45.7598
47.7573
48.6099
47.6399
45.0705
40.8162
35.989
31.0769
27.8475
24.1621
14.7397
-4.87493
-0.493521
-0.0743693
-0.0397023
-0.052581
-0.0800671
-0.0897281
-0.0705784
-0.0597086
-0.0416483
-0.0112334
0.0137845
29.1925
30.0341
31.5688
33.3624
35.2529
37.5873
40.0971
42.6655
44.8355
45.8173
44.86
42.2144
37.718
32.5879
27.5152
24.4941
22.7004
13.0516
-6.82198
-0.0765377
-0.0769389
-0.0504339
-0.061534
-0.0834058
-0.0922649
-0.0877196
-0.0852761
-0.0706501
-0.0529397
-0.041891
25.8499
26.6903
28.2415
30.0413
31.9175
34.2902
36.8675
39.5725
41.93
43.0501
42.1044
39.4013
34.6424
29.0973
23.8804
21.3565
19.6715
10.4076
-2.09974
-0.0567298
-0.0782984
-0.0608475
-0.0711334
-0.0883471
-0.0996355
-0.101902
-0.101893
-0.0910944
-0.0795392
-0.0736155
22.5035
23.3419
24.9114
26.7173
28.575
30.9867
33.6309
36.4783
39.0409
40.3095
39.3721
36.6259
31.5719
25.506
20.096
18.4457
16.1471
-4.35502
-0.602282
-0.0889288
-0.0881457
-0.0778815
-0.0821411
-0.0924803
-0.105044
-0.11067
-0.111377
-0.104417
-0.0960192
-0.0922437
19.1533
19.989
21.5787
23.3906
25.2253
27.6766
30.3863
33.3835
36.1683
37.593
36.6533
33.8588
28.4608
21.6218
16.158
15.3241
14.513
-4.99175
-0.600507
-0.0705272
-0.116177
-0.0913361
-0.0915646
-0.101334
-0.0894802
-0.115301
-0.114843
-0.111125
-0.103883
-0.101535
15.7994
16.6314
18.2435
20.061
21.8676
24.3589
27.1315
30.283
33.3086
34.9005
33.9664
31.1908
25.5308
17.5751
12.4261
11.0215
6.74341
1.19126
-0.143444
-0.23409
-0.147554
-0.102571
-0.101996
-0.112128
-0.0856249
-0.108632
-0.112812
-0.110672
-0.106729
-0.10474
12.4417
13.2688
14.906
16.7285
18.5019
21.0337
23.8663
27.1782
30.4679
32.2492
31.3338
28.5878
22.6827
13.1285
8.55721
4.61387
-0.536724
-0.815554
-0.0296552
-0.137419
-0.128455
-0.108535
-0.110329
-0.120245
-0.0937535
-0.108225
-0.109314
-0.108367
-0.105491
-0.103798
9.08036
9.90131
11.5664
13.3934
15.1273
17.6996
20.5876
24.0637
27.6401
29.604
28.6116
25.7959
19.6806
7.91341
4.24853
-1.91838
-0.249807
-0.39458
-0.110462
-0.277988
-0.12309
-0.11673
-0.120988
-0.121704
-0.126665
-0.108667
-0.113879
-0.107821
-0.10274
-0.101124
5.71409
6.52751
8.22486
10.0542
11.7433
14.356
17.2935
20.935
24.8173
26.9707
25.9401
23.2453
17.344
2.62475
-2.09642
-1.05351
-0.341013
-0.21854
-0.187982
-0.21984
-0.115741
-0.0999207
-0.129377
-0.123679
-0.127233
-0.117332
-0.112826
-0.114729
-0.109032
-0.10429
2.35021
3.15769
4.8825
6.71345
8.35071
11.0042
13.9847
17.7953
22.0382
24.437
23.4424
20.9374
15.5204
-5.40565
-2.91745
-0.426236
-0.380909
-0.272282
-0.175469
-0.191913
-0.13138
-0.100255
-0.140453
-0.130788
-0.129731
-0.125638
-0.11465
-0.113921
-0.1126
-0.110564
105.304
104.662
102.698
99.0895
95.7318
96.2321
98.968
93.3013
82.5849
71.6129
81.9624
94.6547
91.994
93.9052
95.1296
98.1473
100.95
103.815
106.309
108.213
109.292
109.515
108.95
107.734
106.093
104.253
102.416
100.72
99.3302
98.506
100.703
99.1278
96.754
93.0741
89.2697
89.4095
90.9089
85.5035
74.0051
64.5193
74.5699
89.1382
87.7426
90.3202
91.7521
94.8462
97.6698
100.548
103.052
104.963
106.042
106.265
105.697
104.478
102.834
100.993
99.1547
97.4581
96.0678
95.2435
95.4907
93.9276
91.8187
89.4974
86.44
85.0882
85.1642
76.9891
65.8706
57.7911
69.3792
84.2738
83.452
86.8092
88.3293
91.5343
94.3848
97.2879
99.8071
101.728
102.811
103.029
102.453
101.226
99.5751
97.7302
95.8908
94.1933
92.8018
91.9772
89.7668
87.7623
86.307
85.8246
84.4358
82.8884
81.0705
70.9841
59.958
50.8286
64.6965
80.1631
79.2148
83.4095
84.8829
88.2189
91.1015
94.0391
96.5799
98.5126
99.599
99.8083
99.2188
97.9777
96.3168
94.4658
92.6243
90.9253
89.5322
88.707
84.349
82.353
82.8165
83.7727
85.4357
83.2102
76.7932
67.0385
56.3026
50.0815
62.3878
76.7935
75.0787
80
81.4325
84.8966
87.8217
90.8026
93.371
95.3177
96.4076
96.6033
95.9945
94.7342
93.059
91.1994
89.3552
87.6543
86.2589
85.4331
81.7721
81.0262
81.5967
82.0341
80.6241
78.8439
72.6691
64.5631
54.9222
51.237
62.2701
73.0243
71.2775
76.4203
77.9911
81.5625
84.547
87.5786
90.1806
92.1436
93.2365
93.4143
92.78
91.495
89.8014
87.9309
86.0834
84.3801
82.982
82.1554
79.2877
78.7028
78.7452
79.7387
78.4426
78.2481
72.9952
61.9054
53.6111
51.0274
60.5087
68.7193
67.609
72.7137
74.5509
78.2112
81.2772
84.367
87.0091
88.9904
90.086
90.2414
89.5753
88.2599
86.544
84.6605
82.8089
81.1028
79.7014
78.874
75.6077
75.5048
75.9485
77.7566
80.2727
81.6382
71.0995
56.8595
48.0381
49.3647
57.007
62.3139
64.0399
68.8483
71.1068
74.8414
78.0132
81.1678
83.8566
85.8585
86.9563
87.0845
86.3804
85.0288
83.2866
81.3878
79.5317
77.8224
76.4172
75.5888
71.956
71.4933
71.9856
72.839
73.8696
71.091
63.1481
51.5462
45.878
47.0912
51.7362
54.7803
60.3415
64.8778
67.6756
71.4549
74.7552
77.9811
80.7236
82.7479
83.8476
83.9439
83.1951
81.8013
80.0291
78.1128
76.2518
74.5389
73.1293
72.2997
67.8119
67.2014
66.5419
66.8243
65.7197
62.8397
54.5538
44.9521
42.1186
43.7906
47.6219
49.9801
56.633
60.9338
64.2613
68.0639
71.5022
74.8069
77.6104
79.6587
80.7601
80.8195
80.0192
78.5774
76.7712
74.8353
72.9691
71.2522
69.8376
69.0069
64.6979
63.5035
61.9302
59.8201
57.6191
53.4276
42.564
32.2614
33.2686
38.0543
43.9378
46.6119
52.9898
56.9715
60.8246
64.6784
68.253
71.6451
74.5176
76.5911
77.6943
77.7115
76.8525
75.3566
73.5126
71.5552
69.6837
67.9625
66.5422
65.7103
59.6551
58.7932
57.2143
54.2483
49.1249
39.9658
25.2911
16.4835
22.2754
27.9358
38.5667
42.6657
49.1043
53.1461
57.3183
61.3041
65.0071
68.4956
71.4459
73.5451
74.6503
74.6201
73.6949
72.1387
70.2532
68.2723
66.3954
64.6697
63.2431
62.4099
51.8964
51.3133
49.6817
46.6728
38.7427
24.7095
4.16563
0.188611
7.25142
17.6965
31.6646
38.6657
45.0761
49.3924
53.8259
57.9347
61.7667
65.3572
68.3956
70.5205
71.6288
71.5452
70.5459
68.9233
66.9927
64.9864
63.1043
61.3737
59.9401
59.1057
44.8265
43.5102
41.278
36.4709
27.2243
10.711
-15.6009
-25.1548
-16.3476
8.23555
24.0691
35.0896
40.713
45.7403
50.3614
54.5694
58.5324
62.2286
65.3605
67.5233
68.6302
68.4871
67.4054
65.7099
63.7306
61.6972
59.8104
58.0747
56.6334
55.7977
38.4497
37.9399
36.3107
29.0901
15.9859
1.4921
-9.43918
-11.8396
-21.9799
1.28294
18.0479
31.0836
36.4199
42.094
46.9623
51.205
55.3029
59.1081
62.343
64.5516
65.655
65.4458
64.273
62.498
60.4667
58.4045
56.5136
54.7725
53.3227
52.4859
30.9121
32.0456
33.3601
27.576
10.0549
-0.246578
0.308423
0.085029
-4.81608
-6.23894
14.0311
25.5574
32.8706
38.4468
43.6446
47.8384
52.0766
55.9944
59.3435
61.605
62.7039
62.4214
61.1482
59.287
57.2005
55.108
53.214
51.4673
50.0082
49.1703
22.0919
23.2947
22.8548
11.7644
2.01732
0.321316
-0.125546
-0.0579238
-0.56656
-9.37581
11.1393
19.3591
30.115
34.5583
40.4123
44.4743
48.8514
52.8847
56.3618
58.6833
59.7772
59.4141
58.0305
56.0764
53.9316
51.8075
49.9115
48.159
46.6897
45.8508
3.25107
2.10104
1.19104
0.247663
-0.0579178
-0.0298784
-0.100307
-0.011199
-0.0950561
-1.37906
1.40014
14.2597
27.235
30.5149
37.2655
41.1007
45.614
49.7746
53.3978
55.7861
56.8755
56.424
54.9194
52.8653
50.6597
48.5025
46.6061
44.8477
43.3672
42.5276
0.248697
0.0313106
-0.0916625
-0.0865482
-0.109892
-0.10908
-0.107547
-0.121083
-0.0198318
-0.353187
-9.64514
11.7884
23.5257
27.1096
34.2207
37.7538
42.369
46.6654
50.4516
52.9132
53.9993
53.4512
51.8142
49.653
47.3841
45.1927
43.2978
41.5334
40.0406
39.2005
0.106163
0.0362694
-0.0238168
-0.0575794
-0.0936428
-0.104282
-0.0920293
-0.0534673
-0.00345961
-0.0633428
-6.6875
10.2607
19.0884
25.1504
31.1911
34.4128
39.0996
43.5473
47.5205
50.0641
51.1489
50.4958
48.7141
46.4384
44.1044
41.8779
39.9867
38.2161
36.7099
35.8696
0.013068
-0.0131039
-0.0461974
-0.0728626
-0.0925301
-0.100138
-0.0941025
-0.0686416
-0.0403684
-0.0531996
-0.486369
-5.65073
14.8782
24.2305
27.9633
31.0435
35.8072
40.4301
44.6082
47.2393
48.325
47.558
45.6186
43.2205
40.8202
38.5575
36.6728
34.8959
33.375
32.5348
-0.0429579
-0.0561378
-0.0773589
-0.097298
-0.107536
-0.107814
-0.0989091
-0.0762986
-0.0477879
-0.0683075
-0.111884
-7.39673
13.9093
22.7744
24.6024
27.5382
32.3912
37.2889
41.7046
44.4357
45.5277
44.6379
42.5268
39.9982
37.531
35.2311
33.3562
31.5729
30.0358
29.1963
-0.0748093
-0.0834412
-0.0986825
-0.114245
-0.120249
-0.116684
-0.104647
-0.084893
-0.0684986
-0.104986
-0.117774
-2.15876
12.9123
19.6134
21.4198
23.9773
28.8806
34.1611
38.8364
41.6557
42.757
41.7351
39.4366
36.7702
34.2362
31.8985
30.0367
28.2471
26.6922
25.854
-0.0935212
-0.100022
-0.111779
-0.12396
-0.126255
-0.121282
-0.11028
-0.0975068
-0.0897094
-0.115398
-0.151138
-0.532284
-3.20263
15.9263
18.4192
20.3006
25.2714
31.0272
35.9965
38.8983
40.0146
38.8498
36.3458
33.5352
30.9352
28.5591
26.7145
24.9186
23.3441
22.5078
-0.102785
-0.107831
-0.116757
-0.12492
-0.127185
-0.121102
-0.113024
-0.104872
-0.0989915
-0.130779
-0.142399
-0.374929
-4.39596
13.8134
15.2614
16.5121
21.3828
27.8373
33.1542
36.1542
37.2983
35.9822
33.2547
30.2923
27.6277
25.2127
23.3895
21.5876
19.9913
19.1579
-0.105417
-0.10893
-0.114779
-0.120723
-0.122827
-0.100718
-0.118683
-0.11224
-0.106724
-0.152557
-0.278421
-0.105186
1.15325
4.53362
10.9813
12.9507
17.3521
24.8005
30.3986
33.4431
34.6085
33.1288
30.1583
27.0391
24.3127
21.8585
20.0617
18.2542
16.6338
15.8042
-0.103791
-0.105966
-0.110299
-0.115227
-0.107152
-0.0942084
-0.124075
-0.116602
-0.112542
-0.143855
-0.160498
-0.0368432
-0.636236
-0.727533
4.47589
9.295
12.9551
21.8074
27.6943
30.7886
31.9631
30.2961
27.0581
23.7754
20.9902
18.4964
16.7312
14.9186
13.2713
12.4468
-0.100956
-0.102086
-0.10657
-0.117242
-0.101825
-0.121254
-0.12183
-0.120626
-0.113391
-0.128817
-0.260241
-0.154987
-0.284443
-0.148778
-2.34603
5.3015
7.83651
18.6138
24.7901
28.0491
29.3276
27.478
23.9486
20.498
17.6591
15.1258
13.3979
11.5811
9.90375
9.08575
-0.103511
-0.106534
-0.111992
-0.108009
-0.111668
-0.123058
-0.121188
-0.128009
-0.102556
-0.0952882
-0.238474
-0.20196
-0.170201
-0.199467
-1.01135
-0.799636
2.6501
15.9981
22.1174
25.3672
26.7086
24.6669
20.8253
17.2051
14.3184
11.7459
10.0607
8.24174
6.52987
5.71977
-0.109577
-0.109902
-0.110445
-0.109793
-0.121771
-0.12394
-0.125752
-0.136506
-0.0921588
-0.15784
-0.174413
-0.18972
-0.252703
-0.287803
-0.428813
-2.57157
-5.10455
13.7936
19.6694
22.8644
24.1936
21.8992
17.6913
13.8971
10.9698
8.35779
6.72198
4.90175
3.15995
2.35619
0.326389
0.883055
2.4041
4.19883
5.78939
8.47122
11.4788
15.4227
19.9629
22.542
21.4232
19.1247
13.8129
-12.61
0.0173281
-0.404008
-0.397995
-0.321054
-0.232311
-0.207284
-0.16051
-0.142849
-0.145472
-0.136459
-0.133135
-0.129473
-0.116526
-0.113438
-0.11208
-0.110808
0.0289653
0.438615
1.38444
2.72477
4.06394
6.70059
9.7249
13.7554
18.5038
21.1867
19.915
17.8164
11.1872
-5.02029
0.0840471
-0.385032
-0.426451
-0.366996
-0.262334
-0.22013
-0.170981
-0.156926
-0.148428
-0.140136
-0.135856
-0.130862
-0.122523
-0.117808
-0.1138
-0.111209
-0.0998144
0.131224
0.844764
1.84541
2.72563
5.13644
7.97549
11.9502
16.8994
19.6565
18.1432
15.9618
13.2189
0.842332
0.0551777
-0.376828
-0.458322
-0.417076
-0.29734
-0.230126
-0.180033
-0.165355
-0.153494
-0.143948
-0.138905
-0.133901
-0.130358
-0.121691
-0.115646
-0.11355
-0.0788208
-0.00875126
0.345415
0.828015
1.18735
3.2552
5.98132
10.0956
16.0082
18.0143
16.2634
13.8302
7.16097
0.426378
-0.0158174
-0.363534
-0.478171
-0.461412
-0.330247
-0.242981
-0.188978
-0.173819
-0.15835
-0.148101
-0.14218
-0.136864
-0.133138
-0.129206
-0.125069
-0.120853
-0.0806167
-0.0110204
-0.0304848
-0.0857981
0.0624621
1.3715
3.76015
7.89447
13.4768
16.4132
14.6373
12.6746
-5.50633
-0.311635
-0.0753623
-0.358538
-0.483992
-0.471264
-0.356906
-0.257256
-0.197986
-0.182231
-0.163427
-0.152428
-0.145569
-0.13988
-0.135852
-0.132251
-0.129664
-0.128121
-0.0835457
-0.0193033
-0.0387438
-0.128599
-0.132959
0.279264
1.74756
5.2354
11.5917
14.8277
13.1563
10.8175
-4.43297
-0.325165
-0.0961848
-0.359313
-0.497561
-0.487863
-0.378819
-0.27058
-0.204315
-0.189239
-0.168234
-0.156649
-0.149002
-0.143023
-0.138683
-0.135127
-0.132607
-0.131081
-0.0868864
-0.024412
-0.0415763
-0.128752
-0.16198
-0.0737096
0.403781
2.56621
9.02519
12.8327
11.0298
5.25072
0.422262
-0.0982307
-0.136534
-0.347743
-0.500672
-0.505532
-0.394353
-0.281087
-0.207639
-0.194406
-0.172609
-0.160479
-0.152294
-0.14614
-0.141659
-0.138206
-0.135816
-0.134412
-0.0905278
-0.0359839
-0.0455909
-0.141242
-0.168191
-0.112857
-0.0512101
0.515817
5.66085
10.2853
6.79732
-2.02604
-0.10831
-0.0875434
-0.152224
-0.330119
-0.481686
-0.505011
-0.400567
-0.288087
-0.211757
-0.197737
-0.176145
-0.16364
-0.155276
-0.149121
-0.14468
-0.141383
-0.139153
-0.137856
-0.0948082
-0.0419282
-0.0499308
-0.145861
-0.173138
-0.118162
-0.101349
-0.0426764
2.31741
6.11083
-1.9655
0.278126
-0.0246122
-0.114927
-0.145962
-0.310483
-0.448062
-0.484438
-0.395114
-0.288355
-0.216525
-0.198058
-0.178125
-0.16594
-0.157845
-0.151896
-0.147642
-0.144561
-0.142512
-0.141322
-0.101607
-0.0487038
-0.0557517
-0.15589
-0.178393
-0.122466
-0.106088
-0.108906
0.0572784
0.482402
0.473154
0.255855
-0.00485526
-0.085165
-0.143226
-0.281656
-0.413655
-0.447537
-0.376142
-0.280441
-0.218302
-0.197354
-0.179244
-0.167315
-0.160012
-0.154425
-0.150484
-0.147668
-0.145813
-0.144732
-0.107536
-0.0553095
-0.0619078
-0.16166
-0.18329
-0.127134
-0.110531
-0.115995
-0.119101
-0.143862
-0.192558
-0.181758
0.00845559
-0.0659469
-0.145035
-0.26192
-0.372127
-0.402062
-0.345813
-0.266055
-0.217262
-0.1956
-0.179304
-0.167812
-0.16179
-0.156701
-0.153153
-0.150631
-0.148971
-0.147996
-0.112749
-0.061959
-0.0678723
-0.166336
-0.18692
-0.132027
-0.115669
-0.121443
-0.126186
-0.151266
-0.176992
-0.210729
-0.0157729
-0.0915308
-0.14496
-0.239266
-0.328672
-0.340886
-0.294329
-0.243685
-0.212028
-0.192749
-0.178578
-0.169007
-0.163256
-0.158764
-0.155624
-0.153391
-0.151916
-0.151038
-0.117899
-0.069018
-0.0744336
-0.16934
-0.188839
-0.13703
-0.121443
-0.127557
-0.132069
-0.150497
-0.170369
-0.19042
-0.0372939
-0.0989173
-0.144919
-0.216245
-0.279968
-0.286284
-0.268067
-0.228259
-0.197289
-0.187559
-0.176715
-0.169512
-0.164532
-0.160664
-0.157899
-0.155925
-0.154611
-0.153819
-0.123081
-0.076661
-0.0817893
-0.170687
-0.189169
-0.142003
-0.127571
-0.133503
-0.13767
-0.149594
-0.165299
-0.180888
-0.0604624
-0.105718
-0.143212
-0.19703
-0.227212
-0.236354
-0.221886
-0.196196
-0.183899
-0.181473
-0.175031
-0.169946
-0.165855
-0.162519
-0.160059
-0.158292
-0.15711
-0.15639
-0.128733
-0.0848469
-0.0898736
-0.170963
-0.188324
-0.147195
-0.134047
-0.139018
-0.142822
-0.14972
-0.164962
-0.170022
-0.0829639
-0.116263
-0.143861
-0.182572
-0.195701
-0.199833
-0.194147
-0.194723
-0.177557
-0.174914
-0.175348
-0.170863
-0.167406
-0.164502
-0.162306
-0.160719
-0.159654
-0.159001
-0.134828
-0.0937219
-0.0986328
-0.171007
-0.187275
-0.152572
-0.140738
-0.144548
-0.147744
-0.151461
-0.164891
-0.16265
-0.102987
-0.123925
-0.145356
-0.17066
-0.184472
-0.175457
-0.184543
-0.179459
-0.16556
-0.159748
-0.173003
-0.171763
-0.168948
-0.166538
-0.164673
-0.163312
-0.162388
-0.161814
-0.141446
-0.103198
-0.108045
-0.171522
-0.186634
-0.158177
-0.147663
-0.150496
-0.152782
-0.154419
-0.165053
-0.158982
-0.120605
-0.132286
-0.147591
-0.165568
-0.176724
-0.180942
-0.178301
-0.183647
-0.172471
-0.162739
-0.175525
-0.173366
-0.170569
-0.16852
-0.16698
-0.165864
-0.165098
-0.164613
-0.14861
-0.113265
-0.118143
-0.172863
-0.186761
-0.164061
-0.15487
-0.156846
-0.158273
-0.158955
-0.166442
-0.159307
-0.135018
-0.140741
-0.151259
-0.163302
-0.171624
-0.175075
-0.176787
-0.181125
-0.181266
-0.179383
-0.17678
-0.173986
-0.171697
-0.170101
-0.16894
-0.168099
-0.16751
-0.167123
-0.15633
-0.123923
-0.129012
-0.175088
-0.18787
-0.170281
-0.162408
-0.163607
-0.164355
-0.164509
-0.169146
-0.161851
-0.146972
-0.14909
-0.15605
-0.163523
-0.169591
-0.173078
-0.17609
-0.178792
-0.178917
-0.177611
-0.17575
-0.173924
-0.172571
-0.171567
-0.170814
-0.170249
-0.169837
-0.16955
-0.164626
-0.13516
-0.14036
-0.178553
-0.190108
-0.1769
-0.17033
-0.170846
-0.171053
-0.170836
-0.172928
-0.166782
-0.158013
-0.158405
-0.16188
-0.166876
-0.171293
-0.174553
-0.176738
-0.178131
-0.178064
-0.177339
-0.176299
-0.175263
-0.174498
-0.173906
-0.173446
-0.173087
-0.172812
-0.172609
-0.17351
-0.146972
-0.152105
-0.183373
-0.193581
-0.183993
-0.178693
-0.178629
-0.178469
-0.178023
-0.178372
-0.173502
-0.167905
-0.167664
-0.170093
-0.173245
-0.175724
-0.177927
-0.179394
-0.180092
-0.180025
-0.179631
-0.179093
-0.178567
-0.178147
-0.177804
-0.177525
-0.177298
-0.177116
-0.176972
-0.183005
-0.159365
-0.164301
-0.189511
-0.19836
-0.191655
-0.187556
-0.18703
-0.186627
-0.185958
-0.185259
-0.181683
-0.178102
-0.177377
-0.178238
-0.179898
-0.181841
-0.183307
-0.184278
-0.18472
-0.18471
-0.184512
-0.184234
-0.183959
-0.183722
-0.183518
-0.183344
-0.183196
-0.183073
-0.182971
-0.193136
-0.172338
-0.176997
-0.196952
-0.204485
-0.199995
-0.196969
-0.196151
-0.195582
-0.194783
-0.19356
-0.190863
-0.18836
-0.187582
-0.187998
-0.189015
-0.189984
-0.190783
-0.191345
-0.191613
-0.191642
-0.191558
-0.191419
-0.191272
-0.191133
-0.191008
-0.190896
-0.190797
-0.190712
-0.190639
-0.203935
-0.1859
-0.190254
-0.205689
-0.211976
-0.209129
-0.207001
-0.206077
-0.20541
-0.204512
-0.203188
-0.201229
-0.199453
-0.198681
-0.198647
-0.199014
-0.199539
-0.200009
-0.200298
-0.200448
-0.200479
-0.200446
-0.200379
-0.200299
-0.200219
-0.200141
-0.200068
-0.200002
-0.199944
-0.199893
-0.215445
-0.200113
-0.204104
-0.21572
-0.220844
-0.219178
-0.217757
-0.216871
-0.216176
-0.215277
-0.214037
-0.212515
-0.211183
-0.210447
-0.210208
-0.210299
-0.210505
-0.210716
-0.21087
-0.210954
-0.21098
-0.21097
-0.210939
-0.210897
-0.210851
-0.210804
-0.210758
-0.210716
-0.210676
-0.210641
-0.227714
-0.215063
-0.218602
-0.227048
-0.231097
-0.230248
-0.229356
-0.228606
-0.227955
-0.227127
-0.22607
-0.224906
-0.223904
-0.22326
-0.222941
-0.222837
-0.222855
-0.222912
-0.22296
-0.222993
-0.223004
-0.222998
-0.222982
-0.222959
-0.222933
-0.222905
-0.222876
-0.222849
-0.222823
-0.2228
-0.240809
-0.230843
-0.233831
-0.239678
-0.242745
-0.242426
-0.241929
-0.24137
-0.240825
-0.240132
-0.239283
-0.238389
-0.237613
-0.237056
-0.236714
-0.236538
-0.236465
-0.236446
-0.236448
-0.236459
-0.236458
-0.23645
-0.236438
-0.236424
-0.236409
-0.236393
-0.236376
-0.23636
-0.236344
-0.236329
-0.25481
-0.247566
-0.249653
-0.253611
-0.2558
-0.2558
-0.255596
-0.255252
-0.254864
-0.25435
-0.253719
-0.253059
-0.25247
-0.252011
-0.251693
-0.251492
-0.251377
-0.251319
-0.251296
-0.251294
-0.251318
-0.251291
-0.251275
-0.251264
-0.251255
-0.251246
-0.251236
-0.251227
-0.251218
-0.25121
-0.269823
-0.265386
-0.266653
-0.268899
-0.270278
-0.270446
-0.270465
-0.270346
-0.270155
-0.269849
-0.26944
-0.26899
-0.268562
-0.268202
-0.267929
-0.267737
-0.267613
-0.267536
-0.267489
-0.267458
-0.267431
-0.267461
-0.267463
-0.267465
-0.267466
-0.267466
-0.267464
-0.267461
-0.267458
-0.267454
-0.285971
-0.284488
-0.284888
-0.285593
-0.286187
-0.286433
-0.286638
-0.286752
-0.28679
-0.286718
-0.286542
-0.286298
-0.286027
-0.285771
-0.285554
-0.285387
-0.285268
-0.285186
-0.285133
-0.285099
-0.285076
-0.285061
-0.285075
-0.285091
-0.285101
-0.285108
-0.285111
-0.285113
-0.285113
-0.285112
-0.110117
-0.110543
-0.111145
-0.111676
-0.124483
-0.126162
-0.128734
-0.1346
-0.124318
-0.0896973
-0.189286
-0.25006
-0.305436
-0.321033
-0.376983
0.0205478
-12.0301
11.532
17.7632
20.8515
22.3171
19.8345
15.3229
11.3916
8.43927
5.80002
4.20897
2.42464
0.884684
0.332421
-0.110858
-0.111518
-0.113963
-0.116983
-0.125264
-0.128197
-0.130963
-0.134808
-0.138875
-0.128121
-0.189911
-0.285031
-0.353248
-0.345953
-0.348405
0.0747624
-4.36864
8.48399
16.3984
19.3545
20.9775
18.3842
13.6588
9.63794
6.67048
4.07784
2.74172
1.40568
0.439778
0.0349446
-0.113082
-0.113585
-0.117607
-0.126029
-0.128093
-0.131035
-0.133649
-0.138984
-0.14348
-0.135511
-0.151349
-0.320125
-0.401979
-0.372205
-0.334574
0.0560489
1.7564
6.98814
14.4754
17.5999
19.4659
16.7906
11.8575
7.88725
5.10534
2.73282
1.86615
0.870612
0.128212
-0.0939663
-0.120029
-0.122878
-0.126041
-0.128853
-0.131043
-0.134307
-0.137629
-0.144909
-0.163615
-0.145218
-0.241252
-0.359798
-0.44113
-0.387543
-0.31385
0.00247563
0.735666
0.400025
12.336
15.7437
17.8423
15.933
10.0081
5.89307
3.22528
1.19392
0.845071
0.363247
-0.00518465
-0.0722232
-0.127522
-0.127807
-0.129188
-0.131575
-0.13409
-0.137931
-0.142479
-0.151851
-0.170926
-0.157451
-0.194546
-0.392029
-0.459795
-0.387504
-0.299017
-0.0537496
-0.319165
-8.61971
11.3969
14.1518
16.2625
13.3973
7.81311
3.67443
1.34219
0.0564406
-0.091426
-0.0331129
-0.00837256
-0.0741373
-0.130499
-0.13084
-0.132162
-0.134471
-0.137337
-0.141677
-0.147237
-0.157729
-0.178238
-0.168838
-0.269318
-0.410128
-0.474861
-0.390152
-0.294859
-0.0868943
-0.272951
-5.13889
9.94217
12.722
14.7096
11.5384
5.16601
1.67973
0.265043
-0.139591
-0.134802
-0.0417371
-0.0173519
-0.0771134
-0.133861
-0.134128
-0.135324
-0.137515
-0.14058
-0.145281
-0.151487
-0.163484
-0.185999
-0.171671
-0.286426
-0.419717
-0.485497
-0.38788
-0.282993
-0.129225
-0.0278668
0.375355
4.66223
10.665
12.7558
8.98889
2.521
0.367263
-0.0786776
-0.167867
-0.134747
-0.0445626
-0.0227379
-0.08056
-0.137323
-0.137515
-0.138571
-0.140633
-0.14371
-0.148567
-0.15503
-0.167746
-0.187547
-0.18656
-0.288876
-0.417501
-0.480155
-0.379665
-0.2692
-0.130868
-0.0399948
0.0026847
-2.46158
6.53067
10.2579
5.6366
0.49562
-0.0586673
-0.115161
-0.174201
-0.147498
-0.0485996
-0.038221
-0.0842048
-0.140811
-0.140937
-0.141847
-0.14373
-0.146664
-0.15142
-0.157748
-0.169814
-0.188542
-0.214911
-0.286163
-0.403279
-0.45692
-0.363394
-0.25424
-0.115911
-0.060258
0.0470196
-0.0513049
-2.06097
6.14753
2.32114
-0.0520853
-0.105615
-0.120459
-0.179244
-0.152185
-0.052891
-0.044211
-0.0892199
-0.144246
-0.144313
-0.145074
-0.146733
-0.149407
-0.153849
-0.159719
-0.170741
-0.188472
-0.217486
-0.277722
-0.376521
-0.421489
-0.340822
-0.229936
-0.111247
-0.0297215
0.0617843
0.0703817
0.48088
0.483546
0.0528577
-0.115068
-0.110242
-0.1248
-0.184593
-0.162557
-0.0587669
-0.0509533
-0.102815
-0.147537
-0.147551
-0.148168
-0.149578
-0.151912
-0.155849
-0.160806
-0.169684
-0.185615
-0.211358
-0.261143
-0.338226
-0.374808
-0.309223
-0.214674
-0.118096
-0.0237245
0.0590307
-0.278727
-0.21282
-0.15789
-0.127652
-0.122336
-0.114752
-0.129538
-0.18957
-0.168355
-0.0649165
-0.0575159
-0.108374
-0.150606
-0.150579
-0.151064
-0.152232
-0.15421
-0.157537
-0.161933
-0.169501
-0.18211
-0.200498
-0.237588
-0.294463
-0.316587
-0.27547
-0.194475
-0.114274
-0.0612428
0.016916
-0.286748
-0.195725
-0.165254
-0.134826
-0.127801
-0.11995
-0.134543
-0.193239
-0.172983
-0.070874
-0.0641204
-0.113423
-0.153415
-0.153356
-0.153735
-0.154692
-0.156343
-0.15904
-0.162622
-0.168475
-0.177147
-0.188863
-0.214686
-0.250446
-0.261118
-0.236994
-0.178008
-0.120134
-0.074918
-0.0138153
-0.245752
-0.187764
-0.164053
-0.140786
-0.133926
-0.125789
-0.139705
-0.195127
-0.175845
-0.0774108
-0.0711661
-0.118482
-0.156012
-0.155937
-0.156241
-0.157044
-0.158442
-0.160653
-0.16341
-0.16746
-0.171871
-0.17939
-0.197197
-0.213229
-0.217412
-0.191301
-0.16798
-0.121166
-0.0865434
-0.0444316
-0.221133
-0.180979
-0.162521
-0.146349
-0.139821
-0.13197
-0.144857
-0.195329
-0.17693
-0.084713
-0.0788034
-0.123606
-0.158651
-0.158565
-0.158812
-0.159495
-0.160692
-0.162514
-0.164649
-0.167659
-0.16358
-0.161198
-0.168028
-0.181409
-0.182236
-0.174436
-0.157819
-0.124002
-0.100645
-0.0725561
-0.198958
-0.179155
-0.161878
-0.151354
-0.145259
-0.138451
-0.150195
-0.194269
-0.176832
-0.0927301
-0.0870022
-0.129206
-0.161495
-0.161397
-0.161575
-0.162115
-0.163082
-0.164527
-0.166249
-0.167007
-0.150088
-0.152512
-0.173863
-0.176705
-0.165973
-0.166385
-0.152138
-0.129647
-0.11208
-0.0962459
-0.182421
-0.177965
-0.162646
-0.156015
-0.150672
-0.145116
-0.155712
-0.192915
-0.176424
-0.101419
-0.0957472
-0.135361
-0.164332
-0.164224
-0.164336
-0.164739
-0.165514
-0.166767
-0.168766
-0.170806
-0.157604
-0.167827
-0.17759
-0.174429
-0.172238
-0.163194
-0.151347
-0.135329
-0.123508
-0.116649
-0.172764
-0.176525
-0.164534
-0.16068
-0.156464
-0.151986
-0.161432
-0.191913
-0.176446
-0.110775
-0.105097
-0.142019
-0.166884
-0.166767
-0.166801
-0.167038
-0.167549
-0.168452
-0.170007
-0.172122
-0.174569
-0.176486
-0.176265
-0.172927
-0.168642
-0.16211
-0.153014
-0.141894
-0.134156
-0.13288
-0.169026
-0.176306
-0.167999
-0.165693
-0.162606
-0.159105
-0.167393
-0.19166
-0.177261
-0.120844
-0.115032
-0.149208
-0.169355
-0.169231
-0.169189
-0.169258
-0.169478
-0.169911
-0.170671
-0.171942
-0.173462
-0.174586
-0.174486