/*--------------------------------*- C++ -*----------------------------------*\
| =========                 |                                                 |
| \\      /  F ield         | OpenFOAM: The Open Source CFD Toolbox           |
|  \\    /   O peration     | Version:  2.4.0                                 |
|   \\  /    A nd           | Web:      www.OpenFOAM.org                      |
|    \\/     M anipulation  |                                                 |
\*---------------------------------------------------------------------------*/
FoamFile
{
    version     2.0;
    format      ascii;
    class       volVectorField;
    location    "0.314";
    object      U;
}
// * * * * * * * * * * * * * * * * * * * * * * * * * * * * * * * * * * * * * //

dimensions      [0 1 -1 0 0 0 0];

internalField   nonuniform List<vector> 
10000
(
(-1.68449e-07 1.68636e-07 0)
(-1.02512e-06 3.34425e-07 0)
(-1.56297e-06 1.44915e-07 0)
(-1.09561e-06 -1.21241e-07 0)
(4.54807e-07 -3.57824e-07 0)
(2.93794e-06 -5.49687e-07 0)
(6.14556e-06 -6.88808e-07 0)
(9.84658e-06 -7.73834e-07 0)
(1.38009e-05 -8.06382e-07 0)
(1.77751e-05 -7.90406e-07 0)
(2.15552e-05 -7.31771e-07 0)
(2.49553e-05 -6.3791e-07 0)
(2.78243e-05 -5.17065e-07 0)
(3.00514e-05 -3.77244e-07 0)
(3.15762e-05 -2.28353e-07 0)
(3.23654e-05 -9.13889e-08 0)
(3.24295e-05 4.17569e-08 0)
(3.18263e-05 1.63646e-07 0)
(3.0623e-05 2.69909e-07 0)
(2.88949e-05 3.61328e-07 0)
(2.67087e-05 4.41594e-07 0)
(2.41052e-05 5.17631e-07 0)
(2.10867e-05 5.99408e-07 0)
(1.76064e-05 6.98891e-07 0)
(1.35645e-05 8.28488e-07 0)
(8.81113e-06 9.98625e-07 0)
(3.16037e-06 1.21497e-06 0)
(-3.58593e-06 1.47586e-06 0)
(-1.16044e-05 1.77088e-06 0)
(-2.10129e-05 2.08154e-06 0)
(-3.18392e-05 2.38432e-06 0)
(-4.40025e-05 2.65405e-06 0)
(-5.73108e-05 2.86737e-06 0)
(-7.14684e-05 3.00383e-06 0)
(-8.60983e-05 3.04932e-06 0)
(-0.000100802 3.00825e-06 0)
(-0.000115229 2.89809e-06 0)
(-0.000129125 2.74381e-06 0)
(-0.000142352 2.57236e-06 0)
(-0.000154884 2.40828e-06 0)
(-0.000166786 2.27066e-06 0)
(-0.000178195 2.1715e-06 0)
(-0.000189284 2.11537e-06 0)
(-0.000200238 2.10031e-06 0)
(-0.000211233 2.11971e-06 0)
(-0.000222413 2.1646e-06 0)
(-0.000233883 2.22575e-06 0)
(-0.000245703 2.29492e-06 0)
(-0.00025789 2.36508e-06 0)
(-0.000270424 2.43007e-06 0)
(-3.58951e-07 1.03116e-06 0)
(-1.75742e-06 1.64623e-06 0)
(-1.61882e-06 7.37274e-08 0)
(9.04127e-07 -1.99023e-06 0)
(5.87792e-06 -3.91353e-06 0)
(1.30006e-05 -5.50811e-06 0)
(2.18177e-05 -6.68947e-06 0)
(3.17911e-05 -7.41561e-06 0)
(4.23454e-05 -7.67877e-06 0)
(5.29083e-05 -7.50115e-06 0)
(6.29456e-05 -6.92889e-06 0)
(7.19886e-05 -6.02603e-06 0)
(7.96542e-05 -4.86871e-06 0)
(8.56589e-05 -3.53938e-06 0)
(8.9823e-05 -2.12273e-06 0)
(9.20839e-05 -7.07948e-07 0)
(9.24767e-05 6.51143e-07 0)
(9.11082e-05 1.90175e-06 0)
(8.81449e-05 3.01544e-06 0)
(8.37736e-05 3.99281e-06 0)
(7.81625e-05 4.86383e-06 0)
(7.14228e-05 5.68855e-06 0)
(6.35737e-05 6.55251e-06 0)
(5.45162e-05 7.55755e-06 0)
(4.40208e-05 8.80724e-06 0)
(3.17355e-05 1.03874e-05 0)
(1.72175e-05 1.23443e-05 0)
(-6.15272e-09 1.46649e-05 0)
(-2.03566e-05 1.72671e-05 0)
(-4.41142e-05 2.00031e-05 0)
(-7.13431e-05 2.26807e-05 0)
(-0.00010185 2.50899e-05 0)
(-0.000135179 2.70298e-05 0)
(-0.000170632 2.8325e-05 0)
(-0.000207314 2.88665e-05 0)
(-0.000244274 2.8681e-05 0)
(-0.000280676 2.79052e-05 0)
(-0.000315914 2.67428e-05 0)
(-0.000349654 2.54174e-05 0)
(-0.000381835 2.41343e-05 0)
(-0.00041262 2.30541e-05 0)
(-0.00044234 2.22798e-05 0)
(-0.000471416 2.18558e-05 0)
(-0.0005003 2.17762e-05 0)
(-0.000529412 2.19975e-05 0)
(-0.000559104 2.24533e-05 0)
(-0.000589631 2.30675e-05 0)
(-0.000621143 2.37627e-05 0)
(-0.000653688 2.44663e-05 0)
(-0.000687223 2.51128e-05 0)
(-1.976e-07 1.67216e-06 0)
(-3.21525e-07 1.57785e-06 0)
(2.32263e-06 -2.57491e-06 0)
(8.39576e-06 -7.60935e-06 0)
(1.78443e-05 -1.22938e-05 0)
(3.02371e-05 -1.6197e-05 0)
(4.49472e-05 -1.9094e-05 0)
(6.12212e-05 -2.08577e-05 0)
(7.8242e-05 -2.14507e-05 0)
(9.51873e-05 -2.09167e-05 0)
(0.000111283 -1.9365e-05 0)
(0.000125844 -1.69541e-05 0)
(0.000138308 -1.38768e-05 0)
(0.000148256 -1.03451e-05 0)
(0.000155428 -6.57561e-06 0)
(0.000159724 -2.76954e-06 0)
(0.000161189 8.91392e-07 0)
(0.000159984 4.27289e-06 0)
(0.000156361 7.29877e-06 0)
(0.000150601 9.96377e-06 0)
(0.000142971 1.23411e-05 0)
(0.000133656 1.45824e-05 0)
(0.000122712 1.69051e-05 0)
(0.000110019 1.95683e-05 0)
(9.52637e-05 2.28351e-05 0)
(7.79449e-05 2.69241e-05 0)
(5.74185e-05 3.19552e-05 0)
(3.29863e-05 3.79006e-05 0)
(4.0185e-06 4.45576e-05 0)
(-2.99059e-05 5.15577e-05 0)
(-6.88867e-05 5.84186e-05 0)
(-0.000112647 6.46139e-05 0)
(-0.000160537 6.964e-05 0)
(-0.00021156 7.30499e-05 0)
(-0.000264399 7.45587e-05 0)
(-0.000317646 7.42379e-05 0)
(-0.000370093 7.24393e-05 0)
(-0.000420888 6.96813e-05 0)
(-0.000469594 6.6529e-05 0)
(-0.000516172 6.34977e-05 0)
(-0.000560907 6.0988e-05 0)
(-0.000604316 5.92561e-05 0)
(-0.00064704 5.84133e-05 0)
(-0.000689747 5.84468e-05 0)
(-0.000733052 5.92516e-05 0)
(-0.000777463 6.06634e-05 0)
(-0.000823348 6.24884e-05 0)
(-0.000870921 6.45245e-05 0)
(-0.000920248 6.65773e-05 0)
(-0.000971259 6.84701e-05 0)
(4.51593e-08 1.37695e-06 0)
(1.71151e-06 -8.25662e-07 0)
(7.44793e-06 -8.63487e-06 0)
(1.75734e-05 -1.75396e-05 0)
(3.18159e-05 -2.57477e-05 0)
(4.95835e-05 -3.25696e-05 0)
(7.00876e-05 -3.7608e-05 0)
(9.23957e-05 -4.0626e-05 0)
(0.000115498 -4.15447e-05 0)
(0.000138377 -4.04307e-05 0)
(0.000160069 -3.74708e-05 0)
(0.00017972 -3.29441e-05 0)
(0.000196626 -2.71949e-05 0)
(0.000210264 -2.06062e-05 0)
(0.000220306 -1.35724e-05 0)
(0.00022663 -6.46953e-06 0)
(0.000229298 3.68844e-07 0)
(0.00022853 6.68848e-06 0)
(0.000224662 1.23397e-05 0)
(0.000218086 1.73025e-05 0)
(0.000209177 2.17031e-05 0)
(0.00019822 2.58128e-05 0)
(0.000185333 3.00267e-05 0)
(0.000170409 3.48196e-05 0)
(0.000153079 4.06791e-05 0)
(0.000132712 4.80184e-05 0)
(0.000108471 5.70748e-05 0)
(7.94224e-05 6.78153e-05 0)
(4.47084e-05 7.98789e-05 0)
(3.74768e-06 9.25909e-05 0)
(-4.36062e-05 0.000105066 0)
(-9.69971e-05 0.000116348 0)
(-0.000155615 0.000125534 0)
(-0.000218213 0.000131789 0)
(-0.000283035 0.000134539 0)
(-0.000348179 0.000133952 0)
(-0.0004121 0.000130718 0)
(-0.000473781 0.000125815 0)
(-0.000532775 0.000120283 0)
(-0.000589156 0.000115055 0)
(-0.000643403 0.000110844 0)
(-0.000696262 0.000108093 0)
(-0.000748607 0.00010699 0)
(-0.000801315 0.000107497 0)
(-0.000855175 0.000109414 0)
(-0.000910822 0.000112437 0)
(-0.000968705 0.000116207 0)
(-0.00102908 0.000120347 0)
(-0.001092 0.000124496 0)
(-0.00115736 0.000128326 0)
(2.77101e-07 -1.11019e-08 0)
(3.80892e-06 -5.84073e-06 0)
(1.27925e-05 -1.83947e-05 0)
(2.71482e-05 -3.19792e-05 0)
(4.63175e-05 -4.43193e-05 0)
(6.95041e-05 -5.44935e-05 0)
(9.57417e-05 -6.19359e-05 0)
(0.000123924 -6.62965e-05 0)
(0.000152869 -6.74531e-05 0)
(0.00018139 -6.5499e-05 0)
(0.000208363 -6.07103e-05 0)
(0.000232791 -5.35068e-05 0)
(0.000253851 -4.44123e-05 0)
(0.00027093 -3.40156e-05 0)
(0.000283651 -2.29291e-05 0)
(0.000291874 -1.17441e-05 0)
(0.000295692 -9.86045e-07 0)
(0.000295391 8.93469e-06 0)
(0.000291409 1.7768e-05 0)
(0.000284268 2.54655e-05 0)
(0.000274486 3.2209e-05 0)
(0.00026248 3.84128e-05 0)
(0.000248468 4.4692e-05 0)
(0.000232387 5.17966e-05 0)
(0.000213836 6.05128e-05 0)
(0.000192061 7.15267e-05 0)
(0.000166003 8.52587e-05 0)
(0.000134438 0.000101698 0)
(9.62073e-05 0.000120291 0)
(5.05191e-05 0.000139954 0)
(-2.82667e-06 0.00015927 0)
(-6.33661e-05 0.000176736 0)
(-0.000130136 0.000190992 0)
(-0.000201689 0.00020067 0)
(-0.000275707 0.000204694 0)
(-0.000349618 0.000203446 0)
(-0.000421535 0.000198152 0)
(-0.000490357 0.000190437 0)
(-0.000555752 0.000181964 0)
(-0.000618029 0.000174177 0)
(-0.000677964 0.000168147 0)
(-0.00073661 0.000164518 0)
(-0.000795113 0.000163526 0)
(-0.000854575 0.00016507 0)
(-0.000915944 0.00016881 0)
(-0.000979961 0.000174246 0)
(-0.00104713 0.000180807 0)
(-0.0011177 0.000187897 0)
(-0.0011917 0.00019495 0)
(-0.00126895 0.00020145 0)
(4.97622e-07 -2.46938e-06 0)
(5.86989e-06 -1.35127e-05 0)
(1.81384e-05 -3.1962e-05 0)
(3.68232e-05 -5.10534e-05 0)
(6.10337e-05 -6.81047e-05 0)
(8.97347e-05 -8.20059e-05 0)
(0.000121761 -9.20444e-05 0)
(0.000155825 -9.77692e-05 0)
(0.000190574 -9.90216e-05 0)
(0.000224659 -9.59303e-05 0)
(0.000256807 -8.88729e-05 0)
(0.000285888 -7.84282e-05 0)
(0.000310967 -6.53256e-05 0)
(0.000331349 -5.03921e-05 0)
(0.000346608 -3.44959e-05 0)
(0.000356599 -1.84838e-05 0)
(0.000361445 -3.11638e-06 0)
(0.000361514 1.10009e-05 0)
(0.000357366 2.34838e-05 0)
(0.000349685 3.42328e-05 0)
(0.000339172 4.34816e-05 0)
(0.000326422 5.1807e-05 0)
(0.000311799 6.0088e-05 0)
(0.000295326 6.94181e-05 0)
(0.000276599 8.09747e-05 0)
(0.00025474 9.5827e-05 0)
(0.000228421 0.000114683 0)
(0.000196027 0.000137611 0)
(0.00015597 0.000163827 0)
(0.00010715 0.000191689 0)
(4.93262e-05 0.000219053 0)
(-1.68188e-05 0.000243735 0)
(-9.01638e-05 0.000263947 0)
(-0.00016921 0.000277594 0)
(-0.000250806 0.000282606 0)
(-0.000331325 0.000279883 0)
(-0.000408548 0.000271526 0)
(-0.000481432 0.000260074 0)
(-0.000549933 0.000247979 0)
(-0.000614764 0.000237283 0)
(-0.000677138 0.000229438 0)
(-0.000738504 0.000225255 0)
(-0.000800338 0.000224964 0)
(-0.000863976 0.000228335 0)
(-0.000930517 0.00023481 0)
(-0.00100077 0.000243638 0)
(-0.00107526 0.000253975 0)
(-0.00115421 0.000264966 0)
(-0.00123756 0.000275799 0)
(-0.00132502 0.000285745 0)
(7.02229e-07 -5.95604e-06 0)
(7.87636e-06 -2.38308e-05 0)
(2.3439e-05 -4.93841e-05 0)
(4.65151e-05 -7.48571e-05 0)
(7.58691e-05 -9.72203e-05 0)
(0.000110206 -0.00011522 0)
(0.000148145 -0.000128028 0)
(0.000188204 -0.000135111 0)
(0.000228852 -0.000136287 0)
(0.000268575 -0.000131731 0)
(0.000305948 -0.000121937 0)
(0.000339702 -0.000107659 0)
(0.000368787 -8.98586e-05 0)
(0.00039242 -6.9634e-05 0)
(0.000410124 -4.81478e-05 0)
(0.000421742 -2.65455e-05 0)
(0.000427435 -5.86858e-06 0)
(0.000427657 1.30361e-05 0)
(0.000423113 2.96055e-05 0)
(0.000414679 4.36531e-05 0)
(0.000403291 5.54507e-05 0)
(0.00038978 6.57541e-05 0)
(0.000374712 7.57518e-05 0)
(0.000358253 8.69572e-05 0)
(0.000340044 0.000101055 0)
(0.000319097 0.000119655 0)
(0.000293763 0.000143917 0)
(0.000261888 0.000174104 0)
(0.000221231 0.000209166 0)
(0.00017023 0.000246648 0)
(0.000108628 0.000283358 0)
(3.76307e-05 0.000316229 0)
(-4.14422e-05 0.00034335 0)
(-0.000127523 0.000361656 0)
(-0.000216103 0.000366882 0)
(-0.000301709 0.000361226 0)
(-0.000381952 0.000348272 0)
(-0.000456129 0.000331818 0)
(-0.000524752 0.000315279 0)
(-0.000589156 0.000301356 0)
(-0.000651149 0.000291857 0)
(-0.000712687 0.000287684 0)
(-0.000775615 0.000288961 0)
(-0.00084151 0.000295217 0)
(-0.000911593 0.000305587 0)
(-0.000986708 0.000318987 0)
(-0.00106733 0.000334245 0)
(-0.0011536 0.0003502 0)
(-0.00124534 0.000365767 0)
(-0.00134211 0.000379972 0)
(8.94913e-07 -1.0443e-05 0)
(9.83606e-06 -3.67687e-05 0)
(2.86907e-05 -7.0682e-05 0)
(5.62016e-05 -0.000103462 0)
(9.07914e-05 -0.000131778 0)
(0.000130897 -0.000154275 0)
(0.00017491 -0.000170038 0)
(0.000221144 -0.000178475 0)
(0.00026788 -0.000179394 0)
(0.000313428 -0.000173029 0)
(0.000356198 -0.00016 0)
(0.000394768 -0.00014126 0)
(0.000427956 -0.000118025 0)
(0.000454877 -9.16987e-05 0)
(0.000474984 -6.37788e-05 0)
(0.000488102 -3.57559e-05 0)
(0.000494421 -9.0029e-06 0)
(0.000494483 1.53372e-05 0)
(0.000489144 3.64626e-05 0)
(0.00047951 5.40432e-05 0)
(0.000466809 6.83608e-05 0)
(0.000452173 8.03624e-05 0)
(0.000436438 9.1591e-05 0)
(0.000419991 0.000104055 0)
(0.000402607 0.000120085 0)
(0.000383241 0.000142043 0)
(0.000359891 0.000171809 0)
(0.000329671 0.000210061 0)
(0.000289328 0.000255479 0)
(0.000236526 0.000304366 0)
(0.000171032 0.000351896 0)
(9.52924e-05 0.000393712 0)
(1.10027e-05 0.00042882 0)
(-8.25482e-05 0.000452995 0)
(-0.000178468 0.000456771 0)
(-0.000267805 0.000445718 0)
(-0.000348659 0.000425936 0)
(-0.000421226 0.000402859 0)
(-0.000486952 0.000380976 0)
(-0.000548051 0.000363639 0)
(-0.000607102 0.00035292 0)
(-0.000666655 0.000349668 0)
(-0.000728953 0.00035374 0)
(-0.000795783 0.000364278 0)
(-0.00086843 0.000379991 0)
(-0.000947699 0.000399374 0)
(-0.00103396 0.00042087 0)
(-0.0011272 0.000442975 0)
(-0.00122706 0.0004643 0)
(-0.00133291 0.000483609 0)
(1.08073e-06 -1.59081e-05 0)
(1.17665e-05 -5.23071e-05 0)
(3.39142e-05 -9.58712e-05 0)
(6.59016e-05 -0.000136932 0)
(0.00010582 -0.000171892 0)
(0.000151839 -0.000199329 0)
(0.000202121 -0.000218271 0)
(0.00025477 -0.000228083 0)
(0.000307869 -0.000228578 0)
(0.000359538 -0.000220058 0)
(0.000408001 -0.00020328 0)
(0.000451663 -0.00017941 0)
(0.000489182 -0.000149944 0)
(0.00051954 -0.000116626 0)
(0.000542102 -8.13316e-05 0)
(0.00055665 -4.59464e-05 0)
(0.000563387 -1.22289e-05 0)
(0.000562924 1.83194e-05 0)
(0.00055626 4.45777e-05 0)
(0.000544761 6.59836e-05 0)
(0.000530016 8.27799e-05 0)
(0.000513535 9.61153e-05 0)
(0.000496487 0.000107927 0)
(0.000479576 0.000120771 0)
(0.000462862 0.00013776 0)
(0.000445394 0.000162286 0)
(0.000424851 0.000197359 0)
(0.000397412 0.000244511 0)
(0.000358234 0.000302291 0)
(0.000303586 0.000365034 0)
(0.000233135 0.000425163 0)
(0.000152181 0.000475982 0)
(6.34481e-05 0.000520347 0)
(-3.89128e-05 0.000552924 0)
(-0.00014351 0.000551767 0)
(-0.000234632 0.000531274 0)
(-0.000312878 0.000501652 0)
(-0.000380324 0.000470087 0)
(-0.000439789 0.000442056 0)
(-0.000494613 0.000421443 0)
(-0.000548294 0.000410389 0)
(-0.000604028 0.000409466 0)
(-0.000664428 0.000418036 0)
(-0.000731417 0.000434666 0)
(-0.000806245 0.000457499 0)
(-0.000889577 0.000484524 0)
(-0.000981584 0.000513749 0)
(-0.00108203 0.0005433 0)
(-0.00119033 0.000571471 0)
(-0.00130561 0.000596749 0)
(1.26417e-06 -2.23397e-05 0)
(1.36878e-05 -7.04403e-05 0)
(3.91413e-05 -0.000124976 0)
(7.56543e-05 -0.000175337 0)
(0.000121002 -0.000217687 0)
(0.000173099 -0.000250566 0)
(0.000229883 -0.000272967 0)
(0.00028925 -0.000284229 0)
(0.000349078 -0.000284175 0)
(0.000407282 -0.000273175 0)
(0.000461881 -0.000252132 0)
(0.000511071 -0.000222432 0)
(0.000553315 -0.000185876 0)
(0.000587426 -0.000144581 0)
(0.00061264 -0.000100849 0)
(0.000628668 -5.70095e-05 0)
(0.000635694 -1.52635e-05 0)
(0.000634357 2.24652e-05 0)
(0.000625759 5.46331e-05 0)
(0.000611544 8.0302e-05 0)
(0.00059375 9.95986e-05 0)
(0.000574341 0.000113897 0)
(0.000554857 0.000125561 0)
(0.000536424 0.000137676 0)
(0.000519625 0.000154224 0)
(0.000503899 0.000179944 0)
(0.000486823 0.000219574 0)
(0.000463526 0.00027634 0)
(0.000426739 0.000349277 0)
(0.000370114 0.000429565 0)
(0.000292399 0.000504728 0)
(0.000205046 0.000562526 0)
(0.000113611 0.00061733 0)
(-4.25925e-08 0.00066486 0)
(-0.00011562 0.000651015 0)
(-0.000204719 0.000614634 0)
(-0.000275517 0.000571577 0)
(-0.000333354 0.000529755 0)
(-0.0003827 0.00049519 0)
(-0.000428149 0.000472045 0)
(-0.000474188 0.000462234 0)
(-0.000524638 0.000465721 0)
(-0.000582376 0.000481081 0)
(-0.000649318 0.000506081 0)
(-0.000726527 0.000538161 0)
(-0.000814394 0.00057473 0)
(-0.000912792 0.000613333 0)
(-0.00102119 0.000651721 0)
(-0.00113871 0.000687873 0)
(-0.00126421 0.000719993 0)
(1.44869e-06 -2.97372e-05 0)
(1.56164e-05 -9.11777e-05 0)
(4.4398e-05 -0.000158032 0)
(8.54929e-05 -0.000218758 0)
(0.00013638 -0.000269306 0)
(0.000194738 -0.000308201 0)
(0.000258295 -0.000334422 0)
(0.000324747 -0.000347287 0)
(0.000391767 -0.000346628 0)
(0.000457058 -0.000332878 0)
(0.000518404 -0.000307078 0)
(0.000573759 -0.000270836 0)
(0.000621341 -0.000226273 0)
(0.000659739 -0.000175914 0)
(0.000688015 -0.000122536 0)
(0.000705764 -6.8972e-05 0)
(0.000713116 -1.79119e-05 0)
(0.000710665 2.82505e-05 0)
(0.000699517 6.74218e-05 0)
(0.000681588 9.80459e-05 0)
(0.000659499 0.000120016 0)
(0.000635754 0.00013501 0)
(0.000612197 0.000145868 0)
(0.000590435 0.000156017 0)
(0.000571933 0.000170262 0)
(0.000557011 0.000194998 0)
(0.000543645 0.000237425 0)
(0.000526216 0.000303877 0)
(0.000494257 0.00039574 0)
(0.000436523 0.000499704 0)
(0.000347726 0.000594449 0)
(0.000251218 0.000651522 0)
(0.000160571 0.0007165 0)
(3.16752e-05 0.000795999 0)
(-9.7802e-05 0.000752025 0)
(-0.000177058 0.000690388 0)
(-0.000233312 0.000630528 0)
(-0.000276106 0.000577344 0)
(-0.000311142 0.00053672 0)
(-0.000344203 0.000512772 0)
(-0.000380738 0.000506747 0)
(-0.000425031 0.000517569 0)
(-0.000480016 0.000542682 0)
(-0.000547377 0.000578823 0)
(-0.000627793 0.000622603 0)
(-0.000721226 0.000670816 0)
(-0.000827141 0.000720556 0)
(-0.000944643 0.000769226 0)
(-0.00107256 0.000814508 0)
(-0.00120944 0.000854335 0)
(1.63624e-06 -3.81079e-05 0)
(1.75592e-05 -0.000114539 0)
(4.96912e-05 -0.000195082 0)
(9.542e-05 -0.000267282 0)
(0.000151954 -0.000326899 0)
(0.000216762 -0.000372473 0)
(0.000287391 -0.000402979 0)
(0.000361353 -0.000417713 0)
(0.000436131 -0.000416506 0)
(0.000509205 -0.000399832 0)
(0.00057811 -0.000368844 0)
(0.00064051 -0.000325364 0)
(0.000694317 -0.000271833 0)
(0.000737827 -0.00021122 0)
(0.000769857 -0.000146835 0)
(0.000789842 -8.20792e-05 0)
(0.000797822 -2.01681e-05 0)
(0.000794253 3.60469e-05 0)
(0.000780033 8.37861e-05 0)
(0.000757314 0.000120434 0)
(0.000729538 0.00014548 0)
(0.000699834 0.000161163 0)
(0.000670051 0.000170926 0)
(0.000642185 0.000178004 0)
(0.000619094 0.000187699 0)
(0.000602692 0.000208288 0)
(0.000592112 0.000250152 0)
(0.000582147 0.000324503 0)
(0.000560297 0.000438604 0)
(0.0005072 0.000576609 0)
(0.000403272 0.000703582 0)
(0.000290569 0.000741076 0)
(0.000201813 0.000809915 0)
(5.24272e-05 0.000957254 0)
(-9.01356e-05 0.000847916 0)
(-0.00014557 0.000750109 0)
(-0.000177841 0.00067205 0)
(-0.000199622 0.000607785 0)
(-0.000216375 0.000562972 0)
(-0.000234735 0.000541352 0)
(-0.000260858 0.00054288 0)
(-0.000299143 0.000564915 0)
(-0.000352249 0.000603419 0)
(-0.000421344 0.000653891 0)
(-0.000506496 0.000712057 0)
(-0.00060709 0.000774119 0)
(-0.000722096 0.00083678 0)
(-0.000850228 0.000897164 0)
(-0.000989999 0.000952705 0)
(-0.0011397 0.00100108 0)
(1.82676e-06 -4.74612e-05 0)
(1.95094e-05 -0.000140539 0)
(5.49963e-05 -0.000236161 0)
(0.000105386 -0.000320982 0)
(0.000167648 -0.000390612 0)
(0.000239081 -0.000443628 0)
(0.000317083 -0.000479015 0)
(0.000399022 -0.000496039 0)
(0.00048221 -0.000494501 0)
(0.000563918 -0.00047488 0)
(0.000641412 -0.000438398 0)
(0.000712027 -0.000387044 0)
(0.000773295 -0.000323572 0)
(0.000823114 -0.000251418 0)
(0.000859962 -0.000174504 0)
(0.000883049 -9.68879e-05 0)
(0.000892334 -2.235e-05 0)
(0.000888034 4.59678e-05 0)
(0.000870461 0.000104526 0)
(0.000841903 0.000148764 0)
(0.000807073 0.000177534 0)
(0.000769826 0.000194361 0)
(0.000731251 0.00020367 0)
(0.000693373 0.000207124 0)
(0.000661252 0.000209733 0)
(0.000639341 0.000221877 0)
(0.000628519 0.000257775 0)
(0.000625433 0.000334658 0)
(0.000621364 0.00046752 0)
(0.000591679 0.000650396 0)
(0.000481477 0.000846747 0)
(0.000336321 0.000844369 0)
(0.00022251 0.000898303 0)
(4.61697e-05 0.00115651 0)
(-8.95881e-05 0.000921834 0)
(-9.99425e-05 0.000778507 0)
(-9.52223e-05 0.000686393 0)
(-8.92223e-05 0.000614997 0)
(-8.48413e-05 0.000570704 0)
(-8.82161e-05 0.000556655 0)
(-0.00010508 0.000570889 0)
(-0.000139191 0.000608878 0)
(-0.000192605 0.000664914 0)
(-0.000265761 0.000733137 0)
(-0.000357938 0.00080842 0)
(-0.000467839 0.000886478 0)
(-0.00059391 0.000963749 0)
(-0.000734485 0.00103718 0)
(-0.000887812 0.00110404 0)
(-0.00105198 0.00116176 0)
(2.01793e-06 -5.78e-05 0)
(2.14438e-05 -0.000169175 0)
(6.02499e-05 -0.000281268 0)
(0.000115275 -0.000379894 0)
(0.000183289 -0.000460553 0)
(0.000261466 -0.000521894 0)
(0.000347112 -0.000562917 0)
(0.000437495 -0.000582849 0)
(0.000529804 -0.000581422 0)
(0.000621131 -0.000559061 0)
(0.00070848 -0.000516978 0)
(0.00078882 -0.000457257 0)
(0.000859213 -0.000382906 0)
(0.000917024 -0.000297843 0)
(0.000960232 -0.000206696 0)
(0.000987714 -0.000114343 0)
(0.000999428 -2.52367e-05 0)
(0.000995347 5.76379e-05 0)
(0.000974575 0.000130255 0)
(0.000939273 0.000184305 0)
(0.000896276 0.000217521 0)
(0.000850454 0.000236518 0)
(0.000800601 0.000247925 0)
(0.000747772 0.00024857 0)
(0.000700177 0.000241703 0)
(0.00066568 0.000240242 0)
(0.000647413 0.00026272 0)
(0.000648164 0.000329899 0)
(0.000671715 0.00046309 0)
(0.000697808 0.000685995 0)
(0.00065168 0.00099394 0)
(0.000470717 0.00103412 0)
(0.000183277 0.00106154 0)
(-2.6474e-05 0.0013313 0)
(-5.21866e-05 0.000939531 0)
(9.91062e-07 0.000754649 0)
(5.08948e-05 0.000664282 0)
(8.4255e-05 0.000596831 0)
(0.000104956 0.000561146 0)
(0.000110625 0.000561457 0)
(9.75429e-05 0.000593936 0)
(6.31098e-05 0.000652567 0)
(5.59159e-06 0.000730155 0)
(-7.49901e-05 0.000819361 0)
(-0.000177164 0.000914248 0)
(-0.000298977 0.00101019 0)
(-0.000438388 0.00110351 0)
(-0.000593414 0.00119114 0)
(-0.000762135 0.00127026 0)
(-0.000942532 0.00133812 0)
(2.20518e-06 -6.91106e-05 0)
(2.33212e-05 -0.000200397 0)
(6.53452e-05 -0.00033034 0)
(0.000124892 -0.000443978 0)
(0.000198583 -0.000536756 0)
(0.000283524 -0.000607432 0)
(0.000376992 -0.000655035 0)
(0.00047623 -0.000678738 0)
(0.000578373 -0.000678161 0)
(0.000680395 -0.00065359 0)
(0.000779075 -0.000606121 0)
(0.000871015 -0.0005378 0)
(0.000952728 -0.000451775 0)
(0.00102087 -0.000352391 0)
(0.00107266 -0.000245084 0)
(0.00110637 -0.000135816 0)
(0.00112205 -3.01094e-05 0)
(0.00111967 6.99789e-05 0)
(0.00109655 0.000161004 0)
(0.00105396 0.000228274 0)
(0.0010021 0.000266218 0)
(0.000948067 0.00028832 0)
(0.000886028 0.000307372 0)
(0.000813618 0.000309214 0)
(0.00074267 0.000292049 0)
(0.000684094 0.000272797 0)
(0.000640003 0.000274734 0)
(0.000625275 0.000304085 0)
(0.000676151 0.000379866 0)
(0.000791699 0.000597512 0)
(0.000874354 0.00107593 0)
(0.000795227 0.0012997 0)
(0.000267799 0.00155322 0)
(-0.00010311 0.00144227 0)
(6.05191e-05 0.000833167 0)
(0.000213024 0.000654343 0)
(0.000297551 0.00059869 0)
(0.000346589 0.000557447 0)
(0.00037056 0.000542526 0)
(0.00037312 0.000564016 0)
(0.000354681 0.000618698 0)
(0.000313759 0.000701146 0)
(0.000247512 0.000803365 0)
(0.000155628 0.000916117 0)
(4.0176e-05 0.00103257 0)
(-9.63478e-05 0.00114783 0)
(-0.000251497 0.00125829 0)
(-0.000423052 0.00136101 0)
(-0.000609033 0.00145322 0)
(-0.000807468 0.00153197 0)
(2.38184e-06 -8.13529e-05 0)
(2.5083e-05 -0.000234093 0)
(7.01321e-05 -0.000383223 0)
(0.000133967 -0.000513081 0)
(0.000213113 -0.00061913 0)
(0.00030468 -0.000700279 0)
(0.000405989 -0.000755613 0)
(0.000514346 -0.000784237 0)
(0.000626933 -0.000785615 0)
(0.000740711 -0.000759806 0)
(0.000852333 -0.000707646 0)
(0.00095809 -0.000630954 0)
(0.00105393 -0.000532794 0)
(0.00113564 -0.000417761 0)
(0.00119928 -0.000292082 0)
(0.00124192 -0.000163091 0)
(0.00126348 -3.84282e-05 0)
(0.00126387 8.19398e-05 0)
(0.00123895 0.000196063 0)
(0.00118958 0.00028071 0)
(0.0011294 0.000323851 0)
(0.00106846 0.000348603 0)
(0.000996586 0.000382515 0)
(0.000904362 0.000396531 0)
(0.000803031 0.000376666 0)
(0.00070231 0.00034985 0)
(0.000600458 0.0003468 0)
(0.000488673 0.000368369 0)
(0.000330686 0.000431579 0)
(0.000109497 0.000594074 0)
(0.000211885 0.000898857 0)
(0.000513418 0.0013264 0)
(0.000332413 0.00200665 0)
(0.000567524 0.00108817 0)
(0.000979866 0.000799516 0)
(0.000829623 0.000665952 0)
(0.000744916 0.000588438 0)
(0.000727906 0.000547633 0)
(0.00071925 0.000542677 0)
(0.000699171 0.00058063 0)
(0.000665192 0.000654347 0)
(0.000613291 0.00076015 0)
(0.000535231 0.000888779 0)
(0.000428889 0.00102695 0)
(0.000297236 0.0011664 0)
(0.000143407 0.00130201 0)
(-2.97765e-05 0.00143033 0)
(-0.000219865 0.00154873 0)
(-0.000424882 0.00165472 0)
(-0.000643073 0.00174519 0)
(2.5395e-06 -9.44508e-05 0)
(2.66563e-05 -0.000270064 0)
(7.4425e-05 -0.000439636 0)
(0.00014216 -0.0005869 0)
(0.000226356 -0.000707407 0)
(0.000324189 -0.00080028 0)
(0.000433109 -0.000864693 0)
(0.000550586 -0.000899694 0)
(0.000673976 -0.00090456 0)
(0.000800379 -0.00087904 0)
(0.000926492 -0.00082356 0)
(0.00104847 -0.000739474 0)
(0.00116183 -0.000629425 0)
(0.00126142 -0.000497842 0)
(0.00134179 -0.000351438 0)
(0.00139778 -0.000198909 0)
(0.00142883 -5.25048e-05 0)
(0.00143442 9.25441e-05 0)
(0.00140679 0.000236536 0)
(0.00134898 0.000340559 0)
(0.00128292 0.000388353 0)
(0.00121604 0.000417034 0)
(0.00113555 0.000466759 0)
(0.00103467 0.000503633 0)
(0.000923531 0.000489903 0)
(0.000804578 0.000470276 0)
(0.000685894 0.00046083 0)
(0.000612245 0.000468128 0)
(0.000592933 0.000549443 0)
(0.000583966 0.000685584 0)
(0.000519595 0.000797828 0)
(0.000403267 0.00128471 0)
(0.000424556 0.00200511 0)
(0.000611581 0.000638316 0)
(0.00081968 0.00074524 0)
(0.000962266 0.000689749 0)
(0.00104113 0.000573583 0)
(0.00109426 0.000542473 0)
(0.00109668 0.000558141 0)
(0.00106201 0.000614787 0)
(0.00101506 0.00070239 0)
(0.000956364 0.000830114 0)
(0.000867999 0.000988131 0)
(0.000745803 0.00115419 0)
(0.00059593 0.00131813 0)
(0.000422747 0.001475 0)
(0.000229519 0.0016217 0)
(1.90374e-05 0.00175612 0)
(-0.000206623 0.00187643 0)
(-0.000446068 0.00197947 0)
(2.66856e-06 -0.000108286 0)
(2.79601e-05 -0.000308011 0)
(7.80198e-05 -0.000499158 0)
(0.000149099 -0.000664943 0)
(0.000237721 -0.000801092 0)
(0.000341189 -0.000907008 0)
(0.000457155 -0.000982007 0)
(0.000583352 -0.00102512 0)
(0.000717445 -0.00103544 0)
(0.000856868 -0.00101238 0)
(0.000998616 -0.000955813 0)
(0.00113902 -0.000866391 0)
(0.00127349 -0.000745911 0)
(0.00139619 -0.000597947 0)
(0.00149999 -0.000428867 0)
(0.00157646 -0.000247812 0)
(0.0016216 -7.46818e-05 0)
(0.00163391 0.000100834 0)
(0.00160502 0.000282792 0)
(0.00153738 0.000408757 0)
(0.00146998 0.000450804 0)
(0.00140201 0.000498585 0)
(0.001293 0.000572767 0)
(0.0011759 0.000608187 0)
(0.00109175 0.000585877 0)
(0.00100674 0.000588553 0)
(0.000891277 0.000577768 0)
(0.000814315 0.000500365 0)
(0.000803974 0.000545821 0)
(0.000798997 0.000696458 0)
(0.000780292 0.000900085 0)
(0.000752628 0.00135032 0)
(0.000968414 0.00172121 0)
(0.00121236 0.000560561 0)
(0.00132772 0.000527308 0)
(0.0014685 0.000592866 0)
(0.00152787 0.000503266 0)
(0.00155788 0.000516395 0)
(0.00153228 0.000589285 0)
(0.00145968 0.000669809 0)
(0.00139743 0.000758177 0)
(0.00134141 0.000905928 0)
(0.00124688 0.00110086 0)
(0.00110733 0.00129922 0)
(0.000937429 0.0014895 0)
(0.000743347 0.00166858 0)
(0.000528468 0.00183428 0)
(0.000295879 0.00198487 0)
(4.80991e-05 0.00211973 0)
(-0.00021379 0.00223626 0)
(2.75947e-06 -0.000122698 0)
(2.8917e-05 -0.000347536 0)
(8.07221e-05 -0.000561217 0)
(0.000154425 -0.000746524 0)
(0.000246627 -0.00089943 0)
(0.000354799 -0.0010197 0)
(0.000476844 -0.00110686 0)
(0.000610823 -0.00116 0)
(0.000754828 -0.00117811 0)
(0.000906813 -0.00116027 0)
(0.00106438 -0.00110582 0)
(0.0012245 -0.00101452 0)
(0.00138308 -0.000886904 0)
(0.00153433 -0.000724819 0)
(0.00166994 -0.000532811 0)
(0.00177894 -0.000318995 0)
(0.00184939 -0.000108529 0)
(0.00187208 0.000108798 0)
(0.00183984 0.000336885 0)
(0.00175603 0.000490303 0)
(0.00168256 0.00049868 0)
(0.00163071 0.000577371 0)
(0.00151809 0.000714984 0)
(0.00137642 0.000720774 0)
(0.00128009 0.000662372 0)
(0.00122762 0.000661004 0)
(0.00119637 0.000659138 0)
(0.00116396 0.000533921 0)
(0.00113974 0.000550897 0)
(0.00114301 0.000688032 0)
(0.00116529 0.000882666 0)
(0.00128386 0.00123406 0)
(0.00162998 0.00131684 0)
(0.00181286 0.000563856 0)
(0.00180502 0.000375432 0)
(0.00194597 0.00046714 0)
(0.0020534 0.000467072 0)
(0.00206043 0.000523591 0)
(0.00198503 0.000674784 0)
(0.00186135 0.000755597 0)
(0.00179703 0.000807923 0)
(0.00176766 0.00097497 0)
(0.00167418 0.00122596 0)
(0.00151364 0.00146383 0)
(0.00132169 0.00168206 0)
(0.00110579 0.00188411 0)
(0.000868316 0.00206953 0)
(0.000612228 0.00223668 0)
(0.000340852 0.00238587 0)
(5.55935e-05 0.00251653 0)
(2.80433e-06 -0.000137487 0)
(2.9467e-05 -0.000388153 0)
(8.23839e-05 -0.000625112 0)
(0.000157861 -0.000830767 0)
(0.00025261 -0.0010014 0)
(0.000364282 -0.00113721 0)
(0.000491026 -0.00123803 0)
(0.00063124 -0.0013031 0)
(0.000783468 -0.00133143 0)
(0.000946275 -0.00132194 0)
(0.0011181 -0.00127357 0)
(0.00129704 -0.00118531 0)
(0.00148039 -0.0010563 0)
(0.00166388 -0.000885998 0)
(0.00183992 -0.000675167 0)
(0.00199571 -0.000428158 0)
(0.00211123 -0.000168498 0)
(0.00217013 0.000104111 0)
(0.00215524 0.000399591 0)
(0.0020539 0.000601042 0)
(0.00192881 0.000562703 0)
(0.00184435 0.000638344 0)
(0.00175369 0.000855797 0)
(0.00166355 0.000816472 0)
(0.00161492 0.000720897 0)
(0.00160223 0.0006759 0)
(0.00164103 0.000645363 0)
(0.00166684 0.000558452 0)
(0.00165001 0.000564971 0)
(0.00165193 0.000660551 0)
(0.00169731 0.000809721 0)
(0.00187636 0.000976457 0)
(0.00218703 0.000975539 0)
(0.00236066 0.000570108 0)
(0.00235031 0.000344719 0)
(0.0023815 0.00034004 0)
(0.00247449 0.000409739 0)
(0.00251485 0.000544225 0)
(0.00243071 0.000807116 0)
(0.00227373 0.000864696 0)
(0.00222332 0.000819812 0)
(0.00224633 0.0010173 0)
(0.00215363 0.00136799 0)
(0.00196148 0.00165153 0)
(0.00174611 0.0018965 0)
(0.00150905 0.00212201 0)
(0.00124892 0.00232822 0)
(0.000968612 0.0025129 0)
(0.000672433 0.00267607 0)
(0.000363067 0.00282067 0)
(2.79899e-06 -0.000152431 0)
(2.95845e-05 -0.000429321 0)
(8.29458e-05 -0.000690056 0)
(0.000159291 -0.000916669 0)
(0.000255457 -0.00110579 0)
(0.000369243 -0.0012581 0)
(0.000498992 -0.0013738 0)
(0.000643358 -0.00145239 0)
(0.00080123 -0.00149306 0)
(0.000971674 -0.00149479 0)
(0.00115389 -0.00145645 0)
(0.00134712 -0.00137669 0)
(0.00155047 -0.0012538 0)
(0.00176261 -0.00108529 0)
(0.00198039 -0.000867391 0)
(0.00219442 -0.00059608 0)
(0.00237786 -0.000281113 0)
(0.00250217 5.15431e-05 0)
(0.00254236 0.000448743 0)
(0.00245691 0.000745753 0)
(0.00225875 0.000714762 0)
(0.00206513 0.000720271 0)
(0.0020132 0.000906611 0)
(0.00202715 0.000856909 0)
(0.00202074 0.000736794 0)
(0.00205251 0.000644916 0)
(0.00212842 0.000573674 0)
(0.00219322 0.000547602 0)
(0.00222966 0.000555342 0)
(0.00227026 0.000626831 0)
(0.00233095 0.000720204 0)
(0.00248821 0.00072221 0)
(0.00272793 0.00072483 0)
(0.00289842 0.000479423 0)
(0.00296298 0.000334596 0)
(0.00301193 0.000270712 0)
(0.00305355 0.000366721 0)
(0.00304693 0.000579755 0)