/*--------------------------------*- C++ -*----------------------------------*\
| =========                 |                                                 |
| \\      /  F ield         | OpenFOAM: The Open Source CFD Toolbox           |
|  \\    /   O peration     | Version:  2.4.0                                 |
|   \\  /    A nd           | Web:      www.OpenFOAM.org                      |
|    \\/     M anipulation  |                                                 |
\*---------------------------------------------------------------------------*/
FoamFile
{
    version     2.0;
    format      ascii;
    class       volScalarField;
    location    "0.36";
    object      alpha.water;
}
// * * * * * * * * * * * * * * * * * * * * * * * * * * * * * * * * * * * * * //

dimensions      [0 0 0 0 0 0 0];

internalField   nonuniform List<scalar> 
10000
(
9.6959e-51
6.39639e-47
4.10299e-43
7.99599e-40
3.69286e-37
5.08655e-35
2.76937e-33
7.2547e-32
1.03949e-30
8.9004e-30
5.01123e-29
2.04377e-28
6.85359e-28
2.22918e-27
7.6676e-27
2.79799e-26
1.12887e-25
4.92284e-25
2.09467e-24
8.55889e-24
3.31174e-23
1.19916e-22
4.05892e-22
1.27949e-21
3.72788e-21
9.86246e-21
2.32101e-20
4.77678e-20
8.19631e-20
1.08209e-19
1.08287e-19
8.23877e-20
4.89401e-20
2.37349e-20
9.94534e-21
3.80214e-21
1.36845e-21
4.6341e-22
1.44795e-22
4.08368e-23
1.01693e-23
2.19694e-24
4.0568e-25
6.32606e-26
8.2664e-27
9.19414e-28
1.46139e-28
1.79702e-28
4.00871e-28
8.07959e-28
9.04625e-48
1.1481e-43
6.48207e-40
1.08324e-36
4.13661e-34
4.87605e-32
2.35805e-30
5.65567e-29
7.6102e-28
6.24143e-27
3.40298e-26
1.34608e-25
4.35082e-25
1.35144e-24
4.4189e-24
1.52838e-23
5.76944e-23
2.33345e-22
9.22164e-22
3.48213e-21
1.24381e-20
4.17612e-20
1.3168e-19
3.88244e-19
1.06382e-18
2.66795e-18
5.99013e-18
1.1788e-17
1.96598e-17
2.64479e-17
2.84198e-17
2.44502e-17
1.7026e-17
9.84416e-18
4.89845e-18
2.17598e-18
8.84921e-19
3.32131e-19
1.14393e-19
3.57164e-20
9.94706e-21
2.43623e-21
5.18671e-22
9.51229e-23
1.49472e-23
2.03479e-24
3.38579e-25
3.52564e-25
8.80894e-25
2.0966e-24
2.7913e-45
4.17159e-41
2.64779e-37
3.89773e-34
1.2384e-31
1.25309e-29
5.38321e-28
1.18135e-26
1.4921e-25
1.17238e-24
6.19514e-24
2.38179e-23
7.42728e-23
2.19948e-22
6.80914e-22
2.22517e-21
7.87126e-21
2.95602e-20
1.08852e-19
3.81115e-19
1.25607e-18
3.90274e-18
1.14514e-17
3.16088e-17
8.14829e-17
1.93737e-16
4.16933e-16
7.92434e-16
1.29705e-15
1.7681e-15
1.99046e-15
1.85254e-15
1.43185e-15
9.33118e-16
5.25897e-16
2.63222e-16
1.19344e-16
4.9471e-17
1.87326e-17
6.43081e-18
1.97827e-18
5.39292e-19
1.29062e-19
2.69271e-20
4.88121e-21
7.78977e-22
1.51696e-22
1.72559e-22
4.94306e-22
1.41692e-21
3.42298e-43
6.54782e-39
5.15819e-35
6.47177e-32
1.70403e-29
1.48112e-27
5.6545e-26
1.13596e-24
1.34733e-23
1.0149e-22
5.20403e-22
1.94942e-21
5.87363e-21
1.65679e-20
4.83748e-20
1.48757e-19
4.93268e-19
1.72262e-18
5.92325e-18
1.92935e-17
5.87931e-17
1.68936e-16
4.60886e-16
1.19141e-15
2.89455e-15
6.5295e-15
1.34633e-14
2.47894e-14
3.98976e-14
5.48082e-14
6.37511e-14
6.26981e-14
5.21828e-14
3.70864e-14
2.29202e-14
1.25776e-14
6.2323e-15
2.81423e-15
1.15927e-15
4.33082e-16
1.45359e-16
4.3419e-17
1.14488e-17
2.6499e-18
5.37324e-19
9.72424e-20
2.31792e-20
3.36084e-20
1.10594e-19
3.72284e-19
2.16817e-41
6.4503e-37
6.05514e-33
6.17083e-30
1.34102e-27
1.00245e-25
3.40731e-24
6.27635e-23
6.99697e-22
5.05681e-21
2.5193e-20
9.21863e-20
2.68986e-19
7.2289e-19
1.98483e-18
5.71915e-18
1.77558e-17
5.77169e-17
1.85546e-16
5.63589e-16
1.59329e-15
4.2395e-15
1.07531e-14
2.60303e-14
5.96488e-14
1.27779e-13
2.52261e-13
4.4993e-13
7.1123e-13
9.79963e-13
1.16647e-12
1.19624e-12
1.05357e-12
7.9985e-13
5.30645e-13
3.13086e-13
1.66798e-13
8.0969e-14
3.58715e-14
1.44265e-14
5.22271e-15
1.68678e-15
4.82347e-16
1.21522e-16
2.69481e-17
5.40656e-18
1.61904e-18
3.04556e-18
1.0975e-17
3.94821e-17
8.67973e-40
5.26616e-35
4.7207e-31
3.78047e-28
6.78065e-26
4.37305e-24
1.32784e-22
2.24733e-21
2.35709e-20
1.63534e-19
7.92455e-19
2.83924e-18
8.04745e-18
2.06354e-17
5.32001e-17
1.43078e-16
4.14694e-16
1.25471e-15
3.77447e-15
1.07086e-14
2.81642e-14
6.95747e-14
1.64229e-13
3.72298e-13
8.04802e-13
1.6373e-12
3.09214e-12
5.33338e-12
8.26385e-12
1.13671e-11
1.37592e-11
1.45921e-11
1.34563e-11
1.07722e-11
7.5642e-12
4.73401e-12
2.67978e-12
1.38433e-12
6.53626e-13
2.80596e-13
1.08611e-13
3.75659e-14
1.15234e-14
3.12008e-15
7.45481e-16
1.63356e-16
6.04744e-17
1.34619e-16
4.94504e-16
1.74603e-15
2.58417e-38
3.72459e-33
2.55986e-29
1.59469e-26
2.37068e-24
1.32575e-22
3.60974e-21
5.62394e-20
5.55256e-19
3.6985e-18
1.74436e-17
6.13071e-17
1.69413e-16
4.15602e-16
1.00627e-15
2.51812e-15
6.78368e-15
1.90836e-14
5.37454e-14
1.42626e-13
3.49759e-13
8.03875e-13
1.76895e-12
3.75861e-12
7.66754e-12
1.48109e-11
2.67174e-11
4.4443e-11
6.73209e-11
9.2068e-11
1.12759e-10
1.22981e-10
1.17977e-10
9.87384e-11
7.26794e-11
4.77977e-11
2.8512e-11
1.55645e-11
7.78503e-12
3.54872e-12
1.46133e-12
5.38556e-13
1.76252e-13
5.09652e-14
1.30205e-14
3.08048e-15
1.30919e-15
3.07109e-15
1.09948e-14
3.7131e-14
6.84954e-37
2.07567e-31
1.0012e-27
4.87171e-25
6.04293e-23
2.9461e-21
7.21546e-20
1.0361e-18
9.6283e-18
6.15313e-17
2.82442e-16
9.74804e-16
2.63645e-15
6.21144e-15
1.41523e-14
3.28926e-14
8.19436e-14
2.13851e-13
5.63591e-13
1.40083e-12
3.20904e-12
6.87501e-12
1.41276e-11
2.81754e-11
5.42839e-11
9.95574e-11
1.71341e-10
2.74085e-10
4.04309e-10
5.47589e-10
6.76151e-10
7.55788e-10
7.51285e-10
6.5338e-10
5.00385e-10
3.43261e-10
2.14491e-10
1.23206e-10
6.50966e-11
3.14487e-11
1.37604e-11
5.39896e-12
1.88361e-12
5.81036e-13
1.58386e-13
4.00171e-14
1.76495e-14
3.96824e-14
1.36426e-13
4.37188e-13
2.30779e-35
8.69987e-30
2.93095e-26
1.1233e-23
1.17028e-21
4.99568e-20
1.10301e-18
1.46044e-17
1.27618e-16
7.81213e-16
3.48637e-15
1.18162e-14
3.13902e-14
7.13614e-14
1.53581e-13
3.315e-13
7.60249e-13
1.83394e-12
4.51589e-12
1.05264e-11
2.25673e-11
4.51411e-11
8.67623e-11
1.62664e-10
2.96197e-10
5.16039e-10
8.47242e-10
1.30093e-09
1.86254e-09
2.49058e-09
3.094e-09
3.54099e-09
3.64217e-09
3.27306e-09
2.58868e-09
1.8399e-09
1.19859e-09
7.22733e-10
4.03284e-10
2.06707e-10
9.62852e-11
4.03171e-11
1.50356e-11
4.96103e-12
1.44578e-12
3.87169e-13
1.61946e-13
3.1997e-13
1.04557e-12
3.20062e-12
1.15008e-33
2.79132e-28
6.6488e-25
2.02249e-22
1.77983e-20
6.67483e-19
1.33051e-17
1.62382e-16
1.3318e-15
7.78757e-15
3.37095e-14
1.12043e-13
2.93108e-13
6.46328e-13
1.32085e-12
2.65366e-12
5.58606e-12
1.23992e-11
2.8451e-11
6.22549e-11
1.25149e-10
2.34077e-10
4.21478e-10
7.43576e-10
1.28052e-09
2.12012e-09
3.3227e-09
4.89898e-09
6.80828e-09
9.00608e-09
1.12831e-08
1.3258e-08
1.41527e-08
1.30708e-08
1.05669e-08
7.70238e-09
5.19684e-09
3.28201e-09
1.93557e-09
1.05524e-09
5.25217e-10
2.3577e-10
9.44602e-11
3.35099e-11
1.04891e-11
2.97498e-12
1.12146e-12
1.76103e-12
5.40634e-12
1.59448e-11
5.65483e-32
7.06798e-27
1.20291e-23
2.92505e-21
2.18447e-19
7.21631e-18
1.29981e-16
1.46095e-15
1.12166e-14
6.24036e-14
2.60976e-13
8.48098e-13
2.18657e-12
4.70038e-12
9.17843e-12
1.72459e-11
3.33136e-11
6.77349e-11
1.44292e-10
2.96494e-10
5.59994e-10
9.81095e-10
1.65683e-09
2.75147e-09
4.47995e-09
7.04406e-09
1.05388e-08
1.49462e-08
2.02744e-08
2.68631e-08
3.43362e-08
4.18845e-08
4.70908e-08
4.4495e-08
3.62229e-08
2.66128e-08
1.83701e-08
1.20742e-08
7.5067e-09
4.35232e-09
2.31884e-09
1.11986e-09
4.8437e-10
1.85828e-10
6.28712e-11
1.9016e-11
6.49417e-12
7.23267e-12
2.02358e-11
5.78819e-11
2.20893e-30
1.44856e-25
1.77735e-22
3.47594e-20
2.21169e-18
6.45085e-17
1.05082e-15
1.08679e-14
7.78848e-14
4.10317e-13
1.64886e-12
5.21322e-12
1.32238e-11
2.78237e-11
5.2249e-11
9.2462e-11
1.64459e-10
3.05274e-10
6.01114e-10
1.15984e-09
2.06152e-09
3.38917e-09
5.37135e-09
8.39259e-09
1.28949e-08
1.9197e-08
2.73245e-08
3.72212e-08
4.9565e-08
6.72789e-08
8.98786e-08
1.17355e-07
1.46787e-07
1.42288e-07
1.13939e-07
8.15422e-08
5.62129e-08
3.79162e-08
2.46069e-08
1.50565e-08
8.54262e-09
4.42837e-09
2.06927e-09
8.61486e-10
3.16867e-10
1.03332e-10
3.36521e-11
2.46869e-11
5.82219e-11
1.61798e-10
6.96178e-29
2.44838e-24
2.18164e-21
3.44887e-19
1.87652e-17
4.84457e-16
7.14678e-15
6.80057e-14
4.53959e-13
2.2543e-12
8.65011e-12
2.64335e-11
6.5661e-11
1.35481e-10
2.46066e-10
4.13517e-10
6.82309e-10
1.15546e-09
2.09399e-09
3.79568e-09
6.3553e-09
9.81506e-09
1.46015e-08
2.14327e-08
3.09557e-08
4.336e-08
5.82871e-08
7.5918e-08
9.9009e-08
1.4194e-07
2.09235e-07
3.18297e-07
4.92174e-07
5.01775e-07
3.80589e-07
2.51468e-07
1.64983e-07
1.09706e-07
7.17924e-08
4.51463e-08
2.68008e-08
1.47644e-08
7.4221e-09
3.35325e-09
1.3453e-09
4.77517e-10
1.57821e-10
7.93588e-11
1.37039e-10
3.63932e-10
1.79415e-27
3.44783e-23
2.24451e-20
2.88149e-18
1.34566e-16
3.08422e-15
4.12976e-14
3.62029e-13
2.25021e-12
1.0502e-11
3.82644e-11
1.12208e-10
2.70966e-10
5.47576e-10
9.65778e-10
1.55383e-09
2.40354e-09
3.72568e-09
6.18561e-09
1.05645e-08
1.66779e-08
2.41936e-08
3.37705e-08
4.64812e-08
6.27217e-08
8.19311e-08
1.03519e-07
1.30065e-07
1.63788e-07
2.62085e-07
4.37559e-07
6.96715e-07
1.02447e-06
1.00405e-06
9.4091e-07
7.04483e-07
4.67403e-07
2.98036e-07
1.8709e-07
1.16063e-07
7.03142e-08
4.06882e-08
2.19415e-08
1.07835e-08
4.74573e-09
1.85198e-09
6.51783e-10
2.62046e-10
2.86099e-10
6.8533e-10
3.79607e-26
4.04791e-22
1.9372e-19
2.02965e-17
8.16882e-16
1.66796e-14
2.03338e-13
1.64653e-12
9.5459e-12
4.18623e-11
1.44395e-10
4.04025e-10
9.40878e-10
1.85344e-09
3.17927e-09
4.92907e-09
7.22964e-09
1.03208e-08
1.56118e-08
2.52855e-08
3.77279e-08
5.13456e-08
6.70921e-08
8.65346e-08
1.0834e-07
1.30402e-07
1.54089e-07
1.87872e-07
2.17247e-07
4.63624e-07
6.69767e-07
6.7134e-07
6.67638e-06
9.67258e-06
4.1948e-06
1.01193e-06
7.73155e-07
5.24336e-07
3.40186e-07
2.17495e-07
1.38107e-07
8.56725e-08
5.04465e-08
2.73982e-08
1.3415e-08
5.83722e-09
2.25989e-09
8.59508e-10
5.90156e-10
1.12818e-09
6.53978e-25
3.93484e-21
1.39592e-18
1.20065e-16
4.18364e-15
7.63908e-14
8.50755e-13
6.3843e-12
3.46331e-11
1.4304e-10
4.67286e-10
1.24495e-09
2.7795e-09
5.30308e-09
8.83851e-09
1.32581e-08
1.8619e-08
2.46188e-08
3.38969e-08
5.23268e-08
7.38447e-08
9.3821e-08
1.14102e-07
1.38559e-07
1.6039e-07
1.75761e-07
1.98612e-07
2.36459e-07
2.47642e-07
6.31576e-07
5.4756e-07
8.86021e-06
1.60289e-05
1.60321e-05
1.603e-05
7.73069e-06
5.45262e-07
5.39982e-07
4.21035e-07
2.9884e-07
2.05539e-07
1.3908e-07
9.061e-08
5.50276e-08
3.02938e-08
1.48436e-08
6.43228e-09
2.56088e-09
1.30085e-09
1.71984e-09
9.01004e-24
3.13415e-20
8.33777e-18
5.92982e-16
1.79805e-14
2.94752e-13
3.00877e-12
2.09903e-11
1.06891e-10
4.17176e-10
1.29441e-09
3.28909e-09
7.03109e-09
1.29355e-08
2.09139e-08
3.04284e-08
4.12073e-08
5.08115e-08
6.55728e-08
9.57623e-08
1.25083e-07
1.46538e-07
1.65077e-07
1.91142e-07
2.0095e-07
1.92727e-07
2.34844e-07
2.51109e-07
2.533e-07
4.77165e-07
5.4738e-07
5.47497e-07
1.23285e-05
1.60277e-05
9.55119e-06
9.30441e-07
8.25619e-07
6.84758e-07
4.96582e-07
3.53418e-07
2.57347e-07
1.90059e-07
1.3729e-07
9.32318e-08
5.76519e-08
3.17869e-08
1.54673e-08
6.72367e-09
3.03768e-09
2.63119e-09
9.7246e-23
2.02491e-19
4.09941e-17
2.43162e-15
6.45379e-14
9.53848e-13
8.95326e-12
5.82244e-11
2.79058e-10
1.03206e-09
3.05082e-09
7.41789e-09
1.52239e-08
2.70206e-08
4.24198e-08
6.01134e-08
7.90829e-08
9.3395e-08
1.19831e-07
1.62521e-07
1.85538e-07
2.07795e-07
2.2433e-07
2.49319e-07
2.05616e-07
4.21196e-07
4.02959e-07
3.23194e-07
2.94123e-07
2.96374e-07
4.39022e-07
7.22508e-07
2.31028e-06
2.7845e-06
2.5332e-06
1.28393e-06
5.71376e-07
5.70167e-07
4.40217e-07
3.43534e-07
2.79812e-07
2.31039e-07
1.85815e-07
1.40352e-07
9.66752e-08
5.95145e-08
3.23726e-08
1.55704e-08
7.05545e-09
4.3796e-09
8.0869e-22
1.0524e-18
1.64994e-16
8.24682e-15
1.92924e-13
2.58355e-12
2.23793e-11
1.36024e-10
6.14863e-10
2.15899e-09
6.09215e-09
1.42083e-08
2.80927e-08
4.82937e-08
7.39872e-08
1.03085e-07
1.33631e-07
1.60283e-07
1.98268e-07
2.44363e-07
2.46625e-07
3.20119e-07
3.61751e-07
3.7657e-07
3.74926e-07
3.60401e-07
6.99563e-07
4.23329e-07
3.1985e-07
3.05562e-07
3.26712e-07
4.37508e-07
6.58337e-07
7.98612e-07
6.07516e-07
6.36633e-07
5.38788e-07
4.36357e-07
3.69749e-07
3.31078e-07
3.04798e-07
2.78513e-07
2.45143e-07
2.01378e-07
1.50487e-07
1.00971e-07
6.0368e-08
3.20056e-08
1.53833e-08
8.05103e-09
5.12364e-21
4.37098e-18
5.41556e-16
2.30932e-14
4.80267e-13
5.86383e-12
4.70895e-11
2.68415e-10
1.14716e-09
3.83142e-09
1.03344e-08
2.31464e-08
4.41778e-08
7.38163e-08
1.11075e-07
1.54068e-07
2.01511e-07
2.53933e-07
3.19708e-07
3.76137e-07
4.0945e-07
4.25899e-07
5.62195e-07
6.07415e-07
5.60984e-07
4.85884e-07
3.88615e-07
3.52002e-07
3.34613e-07
3.28115e-07
3.31325e-07
3.49166e-07
3.90757e-07
4.25077e-07
4.30736e-07
6.82778e-07
4.49066e-07
3.95069e-07
3.84331e-07
3.85049e-07
3.8788e-07
3.84088e-07
3.67025e-07
3.19626e-07
2.47114e-07
1.70861e-07
1.07154e-07
6.07906e-08
3.1207e-08
1.55802e-08
2.45373e-20
1.44369e-17
1.44767e-15
5.34578e-14
9.98769e-13
1.12055e-11
8.39253e-11
4.50758e-10
1.82838e-09
5.82634e-09
1.50577e-08
3.24459e-08
5.98747e-08
9.74592e-08
1.44785e-07
2.0111e-07
2.7031e-07
3.70217e-07
4.89818e-07
5.79342e-07
6.46444e-07
6.96713e-07
7.70615e-07
7.78762e-07
7.17915e-07
6.21144e-07
5.26206e-07
4.50631e-07
3.96082e-07
3.71225e-07
3.6581e-07
3.6907e-07
3.77385e-07
3.89282e-07
4.35527e-07
4.43577e-07
4.57187e-07
4.67013e-07
4.7916e-07
5.03264e-07
5.39344e-07
5.87421e-07
6.61444e-07
5.77922e-07
4.63894e-07
3.29768e-07
2.06076e-07
1.18947e-07
6.31145e-08
3.13473e-08
8.80675e-20
3.78713e-17
3.15932e-15
1.02789e-13
1.74666e-12
1.81766e-11
1.27927e-10
6.51517e-10
2.52208e-09
7.70659e-09
1.91719e-08
3.99126e-08
7.1485e-08
1.13747e-07
1.67469e-07
2.30559e-07
3.17665e-07
4.73063e-07
6.46958e-07
7.41114e-07
9.21618e-07
1.0913e-06
1.20955e-06
1.16411e-06
1.03762e-06
8.78011e-07
7.18488e-07
5.82164e-07
4.85343e-07
4.24303e-07
3.87594e-07
3.78623e-07
3.80157e-07
5.8698e-07
6.01544e-07
5.7212e-07
5.53309e-07
5.46085e-07
5.49118e-07
5.68776e-07
5.40214e-07
7.7133e-07
1.25406e-06
2.24477e-06
1.30129e-06
6.06976e-07
3.92287e-07
2.27586e-07
1.23737e-07
6.28222e-08
2.37681e-19
7.92823e-17
5.66634e-15
1.65505e-13
2.59271e-12
2.52918e-11
1.68749e-10
8.21267e-10
3.05607e-09
9.01794e-09
2.17495e-08
4.40648e-08
7.71415e-08
1.20728e-07
1.76862e-07
2.36045e-07
3.40726e-07
5.37811e-07
6.2508e-07
9.80433e-07
9.83207e-07
1.93361e-06
1.51089e-06
1.88148e-06
1.13092e-06
9.45449e-07
8.77387e-07
7.08688e-07
5.66563e-07
4.69597e-07
3.9419e-07
4.00735e-07
4.63547e-07
5.74689e-07
6.20558e-07
6.08522e-07
6.09801e-07
5.99421e-07
5.81218e-07
5.65034e-07
5.53377e-07
5.53537e-07
7.33753e-06
1.47608e-05
1.12294e-05
1.21963e-06
3.02809e-07
2.94225e-07
1.96842e-07
1.13558e-07
4.89493e-19
1.33808e-16
8.43245e-15
2.25344e-13
3.30055e-12
3.05244e-11
1.94957e-10
9.14763e-10
3.30031e-09
9.48711e-09
2.23878e-08
4.45708e-08
7.69985e-08
1.19409e-07
1.74311e-07
2.22883e-07
3.65634e-07
5.71478e-07
5.75545e-07
9.86347e-07
5.65862e-07
1.54794e-06
1.45046e-05
2.61438e-05
1.89472e-05
3.41845e-06
7.07135e-07
7.00587e-07
5.79437e-07
4.73714e-07
5.61561e-07
4.01847e-07
4.04902e-07
7.88972e-07
8.49045e-07
6.47864e-07
7.00141e-07
6.99423e-07
6.34978e-07
6.03905e-07
5.53654e-07
1.09309e-06
1.43823e-05
1.47617e-05
1.47599e-05
1.0611e-05
5.06415e-07
2.92935e-07
2.42175e-07
1.60247e-07
7.84817e-19
1.84284e-16
1.05204e-14
2.62028e-13
3.63949e-12
3.22869e-11
1.99452e-10
9.11042e-10
3.21739e-09
9.09904e-09
2.12278e-08
4.19761e-08
7.23004e-08
1.11907e-07
1.62414e-07
2.05946e-07
3.72495e-07
5.00171e-07
6.79059e-07
4.55237e-07
4.49106e-07
1.67972e-05
3.09069e-05
3.09062e-05
3.09044e-05
2.19904e-05
1.22849e-06
5.3325e-07
5.02249e-07
4.41187e-07
4.00969e-07
3.98963e-07
4.02385e-07
4.04655e-07
4.04692e-07
8.39288e-07
8.82853e-07
8.8287e-07
8.50616e-07
5.89193e-07
5.85706e-07
5.27874e-07
6.13747e-06
1.47628e-05
1.43621e-05
3.08713e-06
3.79403e-07
3.75488e-07
3.09648e-07
2.21143e-07
9.9901e-19
2.09675e-16
1.11161e-14
2.62634e-13
3.50755e-12
3.02027e-11
1.82404e-10
8.19415e-10
2.86156e-09
8.04458e-09
1.8752e-08
3.72243e-08
6.45763e-08
1.00583e-07
1.45403e-07
1.91834e-07
3.01134e-07
4.33574e-07
4.44078e-07
4.80018e-07
4.47124e-07
2.42233e-05
3.09062e-05
3.09045e-05
3.0904e-05
2.85633e-05
2.56857e-06
6.07711e-07
5.20361e-07
4.4754e-07
4.16704e-07
4.06399e-07
4.07335e-07
4.17574e-07
4.17752e-07
6.39391e-07
6.90372e-07
5.50381e-07
6.49917e-07
7.84476e-07
6.72265e-07
5.41843e-07
6.92015e-07
3.86473e-06
3.4192e-06
1.25089e-06
4.07133e-07
4.77371e-07
4.23486e-07
3.19425e-07
1.02724e-18
1.99374e-16
1.00367e-14
2.28665e-13
2.9755e-12
2.51587e-11
1.50144e-10
6.70261e-10
2.33841e-09
6.60178e-09
1.55317e-08
3.12568e-08
5.51302e-08
8.72059e-08
1.26667e-07
1.6761e-07
2.34393e-07
3.27557e-07
3.97631e-07
4.4354e-07
4.45042e-07
1.30692e-05
3.09005e-05
3.09039e-05
3.09041e-05
2.18445e-05
1.4696e-06
4.55437e-07
4.52133e-07
4.43758e-07
4.34947e-07
4.25771e-07
4.19673e-07
4.30673e-07
4.41957e-07
4.4555e-07
4.61407e-07
4.70657e-07
4.59348e-07
4.48699e-07
4.5751e-07
4.92615e-07
4.59897e-07
4.37307e-07
4.36615e-07
6.68189e-07
6.1189e-07
5.75139e-07
5.12772e-07
4.15582e-07
8.63567e-19
1.5972e-16
7.78908e-15
1.73713e-13
2.23028e-12
1.87242e-11
1.11578e-10
5.00004e-10
1.76011e-09
5.03877e-09
1.20759e-08
2.48537e-08
4.4943e-08
7.28565e-08
1.0772e-07
1.47547e-07
1.84871e-07
2.34979e-07
2.85496e-07
4.14571e-07
5.08195e-07
3.24491e-07
1.13562e-05
2.85905e-05
2.00394e-05
1.56893e-06
4.45661e-07
5.87788e-07
4.54361e-07
4.72927e-07
4.67362e-07
4.56497e-07
4.52847e-07
4.58553e-07
4.53147e-07
4.53042e-07
4.88619e-07
4.9368e-07
4.78234e-07
4.58761e-07
4.38693e-07
5.47234e-07
4.70638e-07
4.67457e-07
4.52963e-07
4.41455e-07
5.64257e-07
7.56074e-07
7.08107e-07
3.85126e-07
5.9705e-19
1.0802e-16
5.19651e-15
1.15134e-13
1.47649e-12
1.24424e-11
7.48004e-11
3.39846e-10
1.21877e-09
3.57046e-09
8.79108e-09
1.86454e-08
3.48066e-08
5.82442e-08
8.86484e-08
1.24101e-07
1.59982e-07
1.83525e-07
2.1635e-07
3.96911e-07
4.05786e-07
3.24427e-07
3.245e-07
3.24732e-07
3.25193e-07
3.32278e-07
4.39678e-07
3.50862e-07
4.69774e-07
5.4904e-07
4.93261e-07
4.58904e-07
4.77187e-07
4.99986e-07
4.54099e-07
6.49125e-07
6.49403e-07
5.49081e-07
4.67083e-07
4.56105e-07
4.35883e-07
4.30381e-07
4.26097e-07
4.1967e-07
4.22282e-07
4.30593e-07
4.24202e-07
7.56285e-07
5.51916e-07
4.22563e-07
3.38865e-19
6.13764e-17
2.96825e-15
6.63105e-14
8.59945e-13
7.35623e-12
4.50886e-11
2.09764e-10
7.73468e-10
2.33836e-09
5.9592e-09
1.3108e-08
2.53968e-08
4.40884e-08
6.95021e-08
1.0052e-07
1.32583e-07
1.312e-07
2.5791e-07
2.46535e-07
2.97226e-07
2.99267e-07
4.48456e-07
4.90022e-07
4.5104e-07
3.85213e-07
3.56308e-07
3.47446e-07
3.59179e-07
4.7194e-07
4.60278e-07
4.15041e-07
5.11002e-07
5.46127e-07
4.98759e-07
3.8587e-07
4.1574e-07
4.19804e-07
4.95096e-06
5.46629e-06
3.95549e-06
5.67288e-07
4.43218e-07
4.31483e-07
4.22099e-07
4.21106e-07
4.22886e-07
5.19217e-07
5.77083e-07
5.12939e-07
1.56335e-19
2.90963e-17
1.44325e-15
3.30074e-14
4.38624e-13
3.85392e-12
2.4337e-11
1.17019e-10
4.47285e-10
1.40533e-09
3.72869e-09
8.54586e-09
1.72517e-08
3.11834e-08
5.1136e-08
7.68666e-08
1.03682e-07
1.27279e-07
1.22071e-07
2.3097e-07
2.72423e-07
2.8701e-07
3.83472e-07
3.29285e-07
3.22139e-07
3.20901e-07
3.2043e-07
3.00689e-07
3.63954e-07
3.35392e-07
3.62557e-07
3.81656e-07
3.45246e-07
3.33702e-07
3.33292e-07
3.27389e-07
3.23235e-07
6.77198e-06
5.79262e-05
6.13995e-05
5.78445e-05
1.27784e-05
4.41568e-07
4.34242e-07
4.35861e-07
4.3524e-07
4.35315e-07
4.41385e-07
4.42042e-07
5.26192e-07
5.85296e-20
1.14735e-17
5.93968e-16
1.41252e-14
1.94976e-13
1.78034e-12
1.16973e-11
5.86111e-11
2.33804e-10
7.67494e-10
2.12827e-09
5.09624e-09
1.07421e-08
2.0264e-08
3.46693e-08
5.43659e-08
7.40168e-08
9.00377e-08
1.177e-07
2.38974e-07
2.95942e-07
2.61454e-07
5.13209e-07
2.4782e-07
2.84846e-07
2.94823e-07
2.97358e-07
2.99417e-07
2.87087e-07
3.00868e-07
3.11156e-07
3.19183e-07
3.24692e-07
3.27058e-07
3.2636e-07
3.2341e-07
3.23146e-07
5.19803e-05
6.14299e-05
6.1421e-05
6.14086e-05
5.56627e-05
5.81974e-06
4.40096e-07
4.36854e-07
4.47363e-07
4.61531e-07
4.64036e-07
4.69198e-07
4.83513e-07
1.77153e-20
3.7382e-18
2.05869e-16
5.17186e-15
7.51333e-14
7.20867e-13
4.97439e-12
2.61783e-11
1.0961e-10
3.77258e-10
1.09515e-09
2.7414e-09
6.03609e-09
1.18956e-08
2.12812e-08
3.49417e-08
4.72934e-08
5.59671e-08
6.90911e-08
2.15813e-07
2.22734e-07
2.55033e-07
2.31402e-07
2.30024e-07
3.24282e-07
3.11606e-07
2.96301e-07
2.87344e-07
2.86068e-07
2.91087e-07
2.99189e-07
3.07586e-07
3.14927e-07
3.20305e-07
3.23015e-07
3.2314e-07
3.2314e-07
5.70104e-05
6.14436e-05
6.14016e-05
6.14309e-05
6.1402e-05
8.27046e-06
4.43625e-07
4.3868e-07
6.55216e-07
7.27287e-07
7.06139e-07
4.72602e-07
4.92612e-07
4.31653e-21
9.98205e-19
5.96619e-17
1.61001e-15
2.49825e-14
2.55197e-13
1.87094e-12
1.04275e-11
4.6023e-11
1.66228e-10
5.04522e-10
1.31769e-09
3.02571e-09
6.22367e-09
1.16436e-08
2.00434e-08
2.67326e-08
2.96388e-08
7.86352e-08
5.40061e-08
1.05548e-07
7.16136e-08
2.31982e-07
1.79816e-07
3.91626e-07
2.96334e-07
2.71279e-07
2.60639e-07
2.59597e-07
2.67625e-07
2.80335e-07
2.93519e-07
3.06156e-07
3.17302e-07
3.23895e-07
3.23758e-07
3.23148e-07
4.30432e-05
6.14694e-05
6.14433e-05
6.14385e-05
5.42687e-05
6.27169e-06
4.46326e-07
4.41566e-07
4.75006e-07
5.04241e-07
5.06609e-07
5.65843e-07
5.16541e-07
8.32174e-22
2.17344e-19
1.44265e-17
4.27478e-16
7.23605e-15
8.02407e-14
6.34049e-13
3.76919e-12
1.75515e-11
6.6324e-11
2.09463e-10
5.67935e-10
1.35376e-09
2.89439e-09
5.6422e-09
1.01495e-08
1.41513e-08
2.43819e-08
1.75802e-08
4.091e-08
6.96874e-08
5.48242e-08
2.86633e-07
1.74979e-07
7.38156e-08
1.50482e-07
1.97356e-07
2.12284e-07
2.21438e-07
2.36574e-07
2.55457e-07
2.73424e-07
2.91656e-07
3.11988e-07
3.27808e-07
3.32589e-07
3.23436e-07
2.65575e-06
4.42227e-05
6.14192e-05
5.48962e-05
1.2636e-05
4.59624e-07
4.51713e-07
4.49516e-07
4.87661e-07
5.00354e-07
5.05403e-07
4.88735e-07
5.82112e-07
1.21015e-22
3.76057e-20
2.90335e-18
9.85097e-17
1.89055e-15
2.34333e-14
2.03114e-13
1.29876e-12
6.39448e-12
2.52075e-11
8.22815e-11
2.29515e-10
5.6202e-10
1.23521e-09
2.48061e-09
4.61232e-09
8.00322e-09
9.83123e-09
1.5461e-08
2.50663e-08
3.78517e-08
5.21059e-08
3.5132e-08
5.95258e-08
6.93122e-08
1.27412e-07
1.58586e-07
1.67764e-07
1.78193e-07
1.97419e-07
2.20383e-07
2.40618e-07
2.6127e-07
2.91984e-07
3.2782e-07
3.55512e-07
3.64289e-07
3.1942e-07
3.17699e-07
1.91173e-06
3.35878e-07
3.52667e-07
6.15275e-07
6.20834e-07
4.40982e-07
4.69878e-07
4.82485e-07
4.87338e-07
4.88358e-07
4.84829e-07
1.34332e-23
5.28708e-21
5.04892e-19
2.09096e-17
4.79466e-16
6.93093e-15
6.92996e-14
5.0287e-13
2.72293e-12
1.13879e-11
3.82857e-11
1.07857e-10
2.63629e-10
5.75431e-10
1.14777e-09
2.12844e-09
3.71154e-09
6.12385e-09
9.25399e-09
1.31103e-08
1.82342e-08
2.50776e-08
3.36617e-08
4.35677e-08
5.49935e-08
5.71577e-08
7.31623e-08
9.46107e-08
1.18704e-07
1.45267e-07
1.7127e-07
1.92004e-07
2.08718e-07
2.35756e-07
2.99042e-07
3.68938e-07
3.88251e-07
3.28007e-07
3.17687e-07
3.18761e-07
3.34995e-07
3.87461e-07
3.93481e-07
3.95615e-07
4.37833e-07
4.53338e-07
4.58513e-07
4.61363e-07
4.64015e-07
4.65855e-07
1.15868e-24
6.19319e-22
8.06456e-20
4.45078e-18
1.33345e-16
2.75819e-15
4.05862e-14
3.86763e-13
2.42181e-12
1.07308e-11
3.62084e-11
9.9039e-11
2.29752e-10
4.68956e-10
8.6745e-10
1.48858e-09
2.4125e-09
3.73844e-09
5.51017e-09
7.806e-09
1.07641e-08
1.45912e-08
1.94055e-08
2.53049e-08
3.26528e-08
4.20777e-08
5.41213e-08
6.77907e-08
8.31435e-08
1.00723e-07
1.20125e-07
1.38507e-07
1.49901e-07
1.46063e-07
2.54584e-07
2.95368e-07
3.04583e-07
2.80229e-07
2.51684e-07
5.52961e-07
5.52987e-07
5.52988e-07
4.50156e-07
3.89165e-07
4.09344e-07
4.16697e-07
4.21825e-07
4.26574e-07
4.31142e-07
4.34159e-07
8.03638e-26
6.41908e-23
1.29698e-20
1.08758e-18
7.16042e-17
3.31437e-15
7.00045e-14
7.41369e-13
4.69023e-12
2.02901e-11
6.58803e-11
1.72173e-10
3.79009e-10
7.28778e-10
1.25988e-09
2.00391e-09
2.98658e-09
4.22966e-09
5.75173e-09
7.5375e-09
9.61287e-09
1.20662e-08
1.49433e-08
1.82989e-08
2.23447e-08
2.747e-08
3.41196e-08
4.26379e-08
5.2207e-08
6.31206e-08
7.66609e-08
9.3405e-08
1.11848e-07
1.28157e-07
1.34906e-07
1.64653e-07
1.97841e-07
2.37541e-07
2.43601e-07
2.43519e-07
3.59711e-07
3.74165e-07
3.74757e-07
3.87254e-07
3.89313e-07
3.94969e-07
4.01457e-07
4.07892e-07
4.16175e-07
4.20906e-07
4.70889e-27
5.99606e-24
2.24679e-21
6.8786e-19
1.54261e-16
8.96294e-15
1.83402e-13
1.81811e-12
1.08066e-11
4.4306e-11
1.37276e-10
3.44485e-10
7.30661e-10
1.3563e-09
2.26512e-09
3.47967e-09
5.00212e-09
6.81333e-09
8.868e-09
1.11001e-08
1.34378e-08
1.58261e-08
1.82123e-08
2.05742e-08
2.29615e-08
2.55167e-08
2.84944e-08
3.22505e-08
3.72022e-08
4.37917e-08
5.24717e-08
6.36914e-08
7.78539e-08
9.52236e-08
1.15793e-07
1.39154e-07
1.64413e-07
1.88979e-07
2.13597e-07
2.40194e-07
2.57559e-07
2.84058e-07
3.16168e-07
3.43023e-07
3.55857e-07
3.80229e-07
4.0195e-07
4.07223e-07
4.07283e-07
4.07436e-07
2.132e-28
5.09184e-25
9.41813e-22
2.06109e-18
5.10299e-16
2.61758e-14
4.78332e-13
4.33857e-12
2.40641e-11
9.3382e-11
2.76353e-10
6.67594e-10
1.3698e-09
2.46898e-09
4.0161e-09
6.0266e-09
8.48769e-09
1.13552e-08
1.45379e-08
1.79027e-08
2.12932e-08
2.45653e-08
2.75919e-08
3.02545e-08
3.24728e-08
3.42109e-08
3.55417e-08
3.66871e-08
3.80152e-08
4.00068e-08
4.32226e-08
4.82735e-08
5.57888e-08
6.63695e-08
8.05195e-08
9.8572e-08
1.20649e-07
1.46696e-07
1.76382e-07
2.08713e-07
2.42266e-07
2.75802e-07
3.08366e-07
2.74538e-07
4.19807e-07
5.24536e-07
4.19218e-07
4.12905e-07
4.07513e-07
4.1085e-07
6.61762e-30
5.93344e-26
3.11897e-21
8.0309e-18
1.63462e-15
7.18005e-14
1.16834e-12
9.71418e-12
5.04095e-11
1.85565e-10
5.25271e-10
1.22277e-09
2.42867e-09
4.25311e-09
6.7422e-09
9.89111e-09
1.36677e-08
1.80067e-08
2.2776e-08
2.77849e-08
3.28074e-08
3.76458e-08
4.21171e-08
4.60039e-08
4.91399e-08
5.1322e-08
5.24451e-08
5.25686e-08
5.19497e-08
5.10009e-08
5.02544e-08
5.03447e-08
5.20072e-08
5.60671e-08
6.33936e-08
7.48318e-08
9.11424e-08
1.12933e-07
1.40399e-07
1.72817e-07
2.08779e-07
2.45815e-07
2.74048e-07
2.70029e-07
4.60444e-07
5.2453e-07
4.66559e-07
4.58496e-07
4.24867e-07
5.78719e-07
1.09632e-31
6.71339e-26
1.51391e-20
2.94e-17
4.852e-15
1.83021e-13
2.66435e-12
2.03984e-11
9.93883e-11
3.47919e-10
9.43231e-10
2.11728e-09
4.07126e-09
6.92674e-09
1.06979e-08
1.53335e-08
2.07702e-08
2.69217e-08
3.36139e-08
4.06057e-08
4.76128e-08
5.44391e-08
6.0885e-08
6.66311e-08
7.15088e-08
7.50685e-08
7.70017e-08
7.71442e-08
7.5692e-08
7.30441e-08
6.96968e-08
6.62217e-08
6.33051e-08
6.1795e-08
6.27115e-08
6.72189e-08
7.6584e-08
9.20601e-08
1.14469e-07
1.43482e-07
1.78388e-07
2.20423e-07
2.63977e-07
2.66387e-07
3.70453e-07
3.17066e-07
5.47393e-07
5.66876e-07
5.59495e-07
4.79465e-07
9.07196e-34
4.48785e-25
6.86492e-20
9.92084e-17
1.33348e-14
4.34464e-13
5.69098e-12
4.03142e-11
1.85078e-10
6.17485e-10
1.6051e-09
3.47588e-09
6.47066e-09
1.06976e-08
1.60977e-08
2.25363e-08
2.99033e-08
3.80894e-08
4.68752e-08
5.59782e-08
6.50682e-08
7.4042e-08
8.27214e-08
9.06783e-08
9.79577e-08
1.03658e-07
1.07434e-07
1.08516e-07
1.0709e-07
1.03703e-07
9.8883e-08
9.31333e-08
8.70074e-08
8.12162e-08
7.6716e-08
7.47515e-08
7.68681e-08
8.48222e-08
1.00059e-07
1.22561e-07
1.50738e-07
1.85702e-07
1.99641e-07
2.98719e-07
3.73255e-07
3.11523e-07
5.10746e-07
1.70611e-06
1.70469e-06
7.28191e-07
5.16632e-35
2.96838e-24
2.85777e-19
3.08847e-16
3.40223e-14
9.63851e-13
1.14294e-11
7.52663e-11
3.26593e-10
1.04037e-09
2.59519e-09
5.42319e-09
9.77355e-09
1.5709e-08
2.30486e-08
3.15314e-08
4.0983e-08
5.12647e-08
6.21047e-08
7.31881e-08
8.4147e-08
9.51009e-08
1.05866e-07
1.15959e-07
1.25946e-07
1.34034e-07
1.41196e-07
1.44364e-07
1.4369e-07
1.40464e-07
1.35159e-07
1.28257e-07
1.20204e-07
1.11511e-07
1.02926e-07
9.55591e-08
9.09721e-08
9.11662e-08
9.81849e-08
1.12998e-07
1.33178e-07
1.54802e-07
1.88904e-07
3.0463e-07
3.05229e-07
3.07581e-07
6.77371e-07
1.69361e-06
1.70023e-06
1.10361e-06
6.31744e-34
1.79497e-23
1.09293e-18
8.89046e-16
8.0847e-14
2.00591e-12
2.16634e-11
1.33181e-10
5.47568e-10
1.66746e-09
3.99399e-09
8.05495e-09
1.40518e-08
2.19773e-08
3.14839e-08
4.21446e-08
5.37007e-08
6.59697e-08
7.86124e-08
9.12812e-08
1.03566e-07
1.15935e-07
1.27995e-07
1.39501e-07
1.51377e-07
1.60615e-07
1.74849e-07
1.8172e-07
1.81587e-07
1.79906e-07
1.75493e-07
1.686e-07
1.59796e-07
1.49513e-07
1.38275e-07
1.26931e-07
1.16829e-07
1.09895e-07
1.08457e-07
1.14725e-07
1.27145e-07
1.35784e-07
2.16741e-07
1.85707e-07
2.00692e-07
6.04258e-07
3.18622e-07
3.07928e-07
2.93914e-07
2.2225e-06
9.51717e-33
9.91866e-23
3.84644e-18
2.373e-15
1.79575e-13
3.93108e-12
3.88837e-11
2.23939e-10
8.73897e-10
2.54565e-09
5.85733e-09
1.14009e-08
1.92504e-08
2.93344e-08
4.11127e-08
5.39648e-08
6.75269e-08
8.15434e-08
9.5585e-08
1.09253e-07
1.22071e-07
1.34886e-07
1.46644e-07
1.58082e-07
1.69034e-07
1.7729e-07
2.09806e-07
2.05737e-07
2.15681e-07
2.16252e-07
2.15844e-07
2.10722e-07
2.02482e-07
1.91883e-07
1.79399e-07
1.65648e-07
1.5165e-07
1.3901e-07
1.2987e-07
1.26686e-07
1.2713e-07
1.52128e-07
1.73332e-07
1.7235e-07
4.34554e-07
6.11892e-07
5.6657e-07
3.0465e-07
2.92969e-07
7.66016e-06
1.29967e-31
5.01325e-22
1.24844e-17
5.89194e-15
3.74244e-13
7.28083e-12
6.62813e-11
3.58513e-10
1.3292e-09
3.70451e-09
8.19085e-09
1.53884e-08
2.51492e-08
3.73984e-08
5.14046e-08
6.63478e-08
8.17408e-08
9.72109e-08
1.12212e-07
1.26257e-07
1.38774e-07
1.50795e-07
1.60178e-07
1.69432e-07
1.77407e-07
1.80467e-07
1.88028e-07
2.08917e-07
2.19424e-07
2.24549e-07
2.50857e-07
2.50085e-07
2.44157e-07
2.34731e-07
2.22469e-07
2.07962e-07
1.91974e-07
1.75712e-07
1.60924e-07
1.49898e-07
1.45242e-07
1.47945e-07
1.63667e-07
1.72197e-07
2.50051e-07
6.16983e-07
4.51897e-07
2.99257e-07
2.92654e-07
1.73454e-05
1.60811e-30
2.32092e-21
3.74678e-17
1.3657e-14
7.34609e-13
1.27863e-11
1.07544e-10
5.47204e-10
1.9281e-09
5.14071e-09
1.09269e-08
1.9821e-08
3.13615e-08
4.55951e-08
6.16264e-08
7.8461e-08
9.54826e-08
1.12147e-07
1.27773e-07
1.41741e-07
1.53365e-07
1.63432e-07
1.69032e-07
1.73634e-07
1.85254e-07
1.90179e-07
6.6473e-06
9.45648e-06
2.13691e-06
2.42879e-07
2.72619e-07
2.81796e-07
2.79506e-07
2.7323e-07
2.62924e-07
2.49478e-07
2.33593e-07
2.16185e-07
1.98528e-07
1.82434e-07
1.70159e-07
1.66885e-07
1.77341e-07
1.90645e-07
1.99992e-07
3.30917e-07
4.50324e-07
2.92849e-07
2.92146e-07
9.34388e-06