/*--------------------------------*- C++ -*----------------------------------*\
| =========                 |                                                 |
| \\      /  F ield         | OpenFOAM: The Open Source CFD Toolbox           |
|  \\    /   O peration     | Version:  2.4.0                                 |
|   \\  /    A nd           | Web:      www.OpenFOAM.org                      |
|    \\/     M anipulation  |                                                 |
\*---------------------------------------------------------------------------*/
FoamFile
{
    version     2.0;
    format      ascii;
    class       volScalarField;
    location    "0.033";
    object      alpha.water;
}
// * * * * * * * * * * * * * * * * * * * * * * * * * * * * * * * * * * * * * //

dimensions      [0 0 0 0 0 0 0];

internalField   nonuniform List<scalar> 
60000
(
1
1
1
1
1
1
1
1
1
1
1
1
1
1
1
1
1
1
1
1
1
1
1
1
1
1
1
1
1
1
1
1
1
1
1
1
1
1
1
1
1
1
1
1
1
1
1
1
1
1
1
1
1
1
1
1
1
1
1
1
1
1
1
1
1
1
1
1
1
1
1
1
1
1
1
1
1
1
1
1
1
1
1
1
1
1
1
1
1
1
1
1
1
1
1
1
1
1
1
1
1
1
1
1
1
1
1
1
1
1
1
1
1
1
1
1
1
1
1
1
1
1
1
1
1
1
1
1
1
1
1
1
1
1
1
1
1
1
1
1
1
1
1
1
1
1
1
1
1
1
1
1
1
1
1
1
1
1
1
1
1
1
1
1
1
1
1
1
1
1
1
1
1
1
1
1
1
1
1
1
1
1
1
1
1
1
1
1
1
1
1
1
1
1
1
1
1
1
1
1
1
1
1
1
1
1
1
1
1
1
1
1
1
1
1
1
1
1
1
1
1
1
1
1
1
1
1
1
1
1
1
1
1
1
1
1
1
1
1
1
1
1
1
1
1
1
1
1
1
1
1
1
1
1
1
1
1
1
1
1
1
1
1
1
1
1
1
1
1
1
1
1
1
1
1
1
1
1
1
1
1
1
1
1
1
1
1
1
1
1
1
1
1
1
1
1
1
1
1
1
1
1
1
1
1
1
1
1
1
1
1
1
1
1
1
1
1
1
1
1
1
1
1
1
1
1
1
1
1
1
1
1
1
1
1
1
1
1
1
1
1
1
1
1
1
1
1
1
1
1
1
1
1
1
1
1
1
1
1
1
1
1
1
1
1
1
1
1
1
1
1
1
1
1
1
1
1
1
1
1
1
1
1
1
1
1
1
1
1
1
1
1
1
1
1
1
1
1
1
1
1
1
1
1
1
1
1
1
1
1
1
1
1
1
1
1
1
1
1
1
1
1
1
1
1
1
1
1
1
1
1
1
1
1
1
1
1
1
1
1
1
1
1
1
1
1
1
1
1
1
1
1
1
1
1
1
1
1
1
1
1
1
1
1
1
1
1
1
1
1
1
1
1
1
1
1
1
1
1
1
1
1
1
1
1
1
1
1
1
1
1
1
1
1
1
1
1
1
1
1
1
1
1
1
1
1
1
1
1
1
1
1
1
1
1
1
1
1
1
1
1
1
1
1
1
1
1
1
1
1
1
1
1
1
1
1
1
1
1
1
1
1
1
1
1
1
1
1
1
1
1
1
1
1
1
1
1
1
1
1
1
1
1
1
1
1
1
1
1
1
1
1
1
1
1
1
1
1
1
1
1
1
1
1
1
1
1
1
1
1
1
1
1
1
1
1
1
1
1
1
1
1
1
1
1
1
1
1
1
1
1
1
1
1
1
1
1
1
1
1
1
1
1
1
1
1
1
1
1
1
1
1
1
1
1
1
1
1
1
1
1
1
1
1
1
1
1
1
1
1
1
1
1
1
1
1
1
1
1
1
1
1
1
1
1
1
1
1
1
1
1
1
1
1
1
1
1
1
1
1
1
1
1
1
1
1
1
1
1
1
1
1
1
1
1
1
1
1
1
1
1
1
1
1
1
1
1
1
1
1
1
1
1
1
1
1
1
1
1
1
1
1
1
1
1
1
1
1
1
1
1
1
1
1
1
1
1
1
1
1
1
1
1
1
1
1
1
1
1
1
1
1
1
1
1
1
1
1
1
1
1
1
1
1
1
1
1
1
1
1
1
1
1
1
1
1
1
1
1
1
1
1
1
1
1
1
1
1
1
1
1
1
1
1
1
1
1
1
1
1
1
1
1
1
1
1
1
1
1
1
1
1
1
1
1
1
1
1
1
1
1
1
1
1
1
1
1
1
1
1
1
1
1
1
1
1
1
1
1
1
1
1
1
1
1
1
1
1
1
1
1
1
1
1
1
1
1
1
1
1
1
1
1
1
1
1
1
1
1
1
1
1
1
1
1
1
1
1
1
1
1
1
1
1
1
1
1
1
1
1
1
1
1
1
1
1
1
1
1
1
1
1
1
1
1
1
1
1
1
1
1
1
1
1
1
1
1
1
1
1
1
1
1
1
1
1
1
1
1
1
1
1
1
1
1
1
1
1
1
1
1
1
1
1
1
1
1
1
1
1
1
1
1
1
1
1
1
1
1
1
1
1
1
1
1
1
1
1
1
1
1
1
1
1
1
1
1
1
1
1
1
1
1
1
1
1
1
1
1
1
1
1
1
1
1
1
1
1
1
1
1
1
1
1
1
1
1
1
1
1
1
1
1
1
1
1
1
1
1
1
1
1
1
1
1
1
1
1
1
1
1
1
1
1
1
1
1
1
1
1
1
1
1
1
1
1
1
1
1
1
1
1
1
1
1
1
1
1
1
1
1
1
1
1
1
1
1
1
1
1
1
1
1
1
1
1
1
1
1
1
1
1
1
1
1
1
1
1
1
1
1
1
1
1
1
1
1
1
1
1
1
1
1
1
1
1
1
1
1
1
1
1
1
1
1
1
1
1
1
1
1
1
1
1
1
1
1
1
1
1
1
1
1
1
1
1
1
1
1
1
1
1
1
1
1
1
1
1
1
1
1
1
1
1
1
1
1
1
1
1
1
1
1
1
1
1
1
1
1
1
1
1
1
1
1
1
1
1
1
1
1
1
1
1
1
1
1
1
1
1
1
1
1
1
1
1
1
1
1
1
1
1
1
1
1
1
1
1
1
1
1
1
1
1
1
1
1
1
1
1
1
1
1
1
1
1
1
1
1
1
1
1
1
1
1
1
1
1
1
1
1
1
1
1
1
1
1
1
1
1
1
1
1
1
1
1
1
1
1
1
1
1
1
1
1
1
1
1
1
1
1
1
1
1
1
1
1
1
1
1
1
1
1
1
1
1
1
1
1
1
1
1
1
1
1
1
1
1
1
1
1
1
1
1
1
1
1
1
1
1
1
1
1
1
1
1
1
1
1
1
1
1
1
1
1
1
1
1
1
1
1
1
1
1
1
1
1
1
1
1
1
1
1
1
1
1
1
1
1
1
1
1
1
1
1
1
1
1
1
1
1
1
1
1
1
1
1
1
1
1
1
1
1
1
1
1
1
1
1
1
1
1
1
1
1
1
1
1
1
1
1
1
1
1
1
1
1
1
1
1
1
1
1
1
1
1
1
1
1
1
1
1
1
1
1
1
1
1
1
1
1
1
1
1
1
1
1
1
1
1
1
1
1
1
1
1
1
1
1
1
1
1
1
1
1
1
1
1
1
1
1
1
1
1
1
1
1
1
1
1
1
1
1
1
1
1
1
1
1
1
1
1
1
1
1
1
1
1
1
1
1
1
1
1
1
1
1
1
1
1
1
1
1
1
1
1
1
1
1
1
1
1
1
1
1
1
1
1
1
1
1
1
1
1
1
1
1
1
1
1
1
1
1
1
1
1
1
1
1
1
1
1
1
1
1
1
1
1
1
1
1
1
1
1
1
1
1
1
1
1
1
1
1
1
1
1
1
1
1
1
1
1
1
1
1
1
1
1
1
1
1
1
1
1
1
1
1
1
1
1
1
1
1
1
1
1
1
1
1
1
1
1
1
1
1
1
1
1
1
1
1
1
1
1
1
1
1
1
1
1
1
1
1
1
1
1
1
1
1
1
1
1
1
1
1
1
1
1
1
1
1
1
1
1
1
1
1
1
1
1
1
1
1
1
1
1
1
1
1
1
1
1
1
1
1
1
1
1
1
1
1
1
1
1
1
1
1
1
1
1
1
1
1
1
1
1
1
1
1
1
1
1
1
1
1
1
1
1
1
1
1
1
1
1
1
1
1
1
1
1
1
1
1
1
1
1
1
1
1
1
1
1
1
1
1
1
1
1
1
1
1
1
1
1
1
1
1
1
1
1
1
1
1
1
1
1
1
1
1
1
1
1
1
1
1
1
1
1
1
1
1
1
1
1
1
1
1
1
1
1
1
1
1
1
1
1
1
1
1
1
1
1
1
1
1
1
1
1
1
1
1
1
1
1
1
1
1
1
1
1
1
1
1
1
1
1
1
1
1
1
1
1
1
1
1
1
1
1
1
1
1
1
1
1
1
1
1
1
1
1
1
1
1
1
1
1
1
1
1
1
1
1
1
1
1
1
1
1
1
1
1
1
1
1
1
1
1
1
1
1
1
1
1
1
1
1
1
1
1
1
1
1
1
1
1
1
1
1
1
1
1
1
1
1
1
1
1
1
1
1
1
1
1
1
1
1
1
1
1
1
1
1
1
1
1
1
1
1
1
1
1
1
1
1
1
1
1
1
1
1
1
1
1
1
1
1
1
1
1
1
1
1
1
1
1
1
1
1
1
1
1
1
1
1
1
1
1
1
1
1
1
1
1
1
1
1
1
1
1
1
1
1
1
1
1
1
1
1
1
1
1
1
1
1
1
1
1
1
1
1
1
1
1
1
1
1
1
1
1
1
1
1
1
1
1
1
1
1
1
1
1
1
1
1
1
1
1
1
1
1
1
1
1
1
1
1
1
1
1
1
1
1
1
1
1
1
1
1
1
1
1
1
1
1
1
1
1
1
1
1
1
1
1
1
1
1
1
1
1
1
1
1
1
1
1
1
1
1
1
1
1
1
1
1
1
1
1
1
1
1
1
1
1
1
1
1
1
1
1
1
1
1
1
1
1
1
1
1
1
1
1
1
1
1
1
1
1
1
1
1
1
1
1
1
1
1
1
1
1
1
1
1
1
1
1
1
1
1
1
1
1
1
1
1
1
1
1
1
1
1
1
1
1
1
1
1
1
1
1
1
1
1
1
1
1
1
1
1
1
1
1
1
1
1
1
1
1
1
1
1
1
1
1
1
1
1
1
1
1
1
1
1
1
1
1
1
1
1
1
1
1
1
1
1
1
1
1
1
1
1
1
1
1
1
1
1
1
1
1
1
1
1
1
1
1
1
1
1
1
1
1
1
1
1
1
1
1
1
1
1
1
1
1
1
1
1
1
1
1
1
1
1
1
1
1
1
1
1
1
1
1
1
1
1
1
1
1
1
1
1
1
1
1
1
1
1
1
1
1
1
1
1
1
1
1
1
1
1
1
1
1
1
1
1
1
1
1
1
1
1
1
1
1
1
1
1
1
1
1
1
1
1
1
1
1
1
1
1
1
1
1
1
1
1
1
1
1
1
1
1
1
1
1
1
1
1
1
1
1
1
1
1
1
1
1
1
1
1
1
1
1
1
1
1
1
1
1
1
1
1
1
1
1
1
1
1
1
1
1
1
1
1
1
1
1
1
1
1
1
1
1
1
1
1
1
1
1
1
1
1
1
1
1
1
1
1
1
1
1
1
1
1
1
1
1
1
1
1
1
1
1
1
1
1
1
1
1
1
1
1
1
1
1
1
1
1
1
1
1
1
1
1
1
1
1
1
1
1
1
1
1
1
1
1
1
1
1
1
1
1
1
1
1
1
1
1
1
1
1
1
1
1
1
1
1
1
1
1
1
1
1
1
1
1
1
1
1
1
1
1
1
1
1
1
1
1
1
1
1
1
1
1
1
1
1
1
1
1
1
1
1
1
1
1
1
1
1
1
1
1
1
1
1
1
1
1
1
1
1
1
1
1
1
1
1
1
1
1
1
1
1
1
1
1
1
1
1
1
1
1
1
1
1
1
1
1
1
1
1
1
1
1
1
1
1
1
1
1
1
1
1
1
1
1
1
1
1
1
1
1
1
1
1
1
1
1
1
1
1
1
1
1
1
1
1
1
1
1
1
1
1
1
1
1
1
1
1
1
1
1
1
1
1
1
1
1
1
1
1
1
1
1
1
1
1
1
1
1
1
1
1
1
1
1
1
1
1
1
1
1
1
1
1
1
1
1
1
1
1
1
1
1
1
1
1
1
1
1
1
1
1
1
1
1
1
1
1
1
1
1
1
1
1
1
1
1
1
1
1
1
1
1
1
1
1
1
1
1
1
1
1
1
1
1
1
1
1
1
1
1
1
1
1
1
1
1
1
1
1
1
1
1
1
1
1
1
1
1
1
1
1
1
1
1
1
1
1
1
1
1
1
1
1
1
1
1
1
1
1
1
1
1
1
1
1
1
1
1
1
1
1
1
1
1
1
1
1
1
1
1
1
1
1
1
1
1
1
1
1
1
1
1
1
1
1
1
1
1
1
1
1
1
1
1
1
1
1
1
1
1
1
1
1
1
1
1
1
1
1
1
1
1
1
1
1
1
1
1
1
1
1
1
1
1
1
1
1
1
1
1
1
1
1
1
1
1
1
1
1
1
1
1
1
1
1
1
1
1
1
1
1
1
1
1
1
1
1
1
1
1
1
1
1
1
1
1
1
1
1
1
1
1
1
1
1
1
1
1
1
1
1
1
1
1
1
1
1
1
1
1
1
1
1
1
1
1
1
1
1
1
1
1
1
1
1
1
1
1
1
1
1
1
1
1
1
1
1
1
1
1
1
1
1
1
1
1
1
1
1
1
1
1
1
1
1
1
1
1
1
1
1
1
1
1
1
1
1
1
1
1
1
1
1
1
1
1
1
1
1
1
1
1
1
1
1
1
1
1
1
1
1
1
1
1
1
1
1
1
1
1
1
1
1
1
1
1
1
1
1
1
1
1
1
1
1
1
1
1
1
1
1
1
1
1
1
1
1
1
1
1
1
1
1
1
1
1
1
1
1
1
1
1
1
1
1
1
1
1
1
1
1
1
1
1
1
1
1
1
1
1
1
1
1
1
1
1
1
1
1
1
1
1
1
1
1
1
1
1
1
1
1
1
1
1
1
1
1
1
1
1
1
1
1
1
1
1
1
1
1
1
1
1
1
1
1
1
1
1
1
1
1
1
1
1
1
1
1
1
1
1
1
1
1
1
1
1
1
1
1
1
1
1
1
1
1
1
1
1
1
1
1
1
1
1
1
1
1
1
1
1
1
1
1
1
1
1
1
1
1
1
1
1
1
1
1
1
1
1
1
1
1
1
1
1
1
1
1
1
1
1
1
1
1
1
1
1
1
1
1
1
1
1
1
1
1
1
1
1
1
1
1
1
1
1
1
1
1
1
1
1
1
1
1
1
1
1
1
1
1
1
1
1
1
1
1
1
1
1
1
1
1
1
1
1
1
1
1
1
1
1
1
1
1
1
1
1
1
1
1
1
1
1
1
1
1
1
1
1
1
1
1
1
1
1
1
1
1
1
1
1
1
1
1
1
1
1
1
1
1
1
1
1
1
1
1
1
1
1
1
1
1
1
1
1
1
1
1
1
1
1
1
1
1
1
1
1
1
1
1
1
1
1
1
1
1
1
1
1
1
1
1
1
1
1
1
1
1
1
1
1
1
1
1
1
1
1
1
1
1
1
1
1
1
1
1
1
1
1
1
1
1
1
1
1
1
1
1
1
1
1
1
1
1
1
1
1
1
1
1
1
1
1
1
1
1
1
1
1
1
1
1
1
1
1
1
1
1
1
1
1
1
1
1
1
1
1
1
1
1
1
1
1
1
1
1
1
1
1
1
1
1
1
1
1
1
1
1
1
1
1
1
1
1
1
1
1
1
1
1
1
1
1
1
1
1
1
1
1
1
1
1
1
1
1
1
1
1
1
1
1
1
1
1
1
1
1
1
1
1
1
1
1
1
1
1
1
1
1
1
1
1
1
1
1
1
1
1
1
1
1
1
1
1
1
1
1
1
1
1
1
1
1
1
1
1
1
1
1
1
1
1
1
1
1
1
1
1
1
1
1
1
1
1
1
1
1
1
1
1
1
1
1
1
1
1
1
1
1
1
1
1
1
1
1
1
1
1
1
1
1
1
1
1
1
1
1
1
1
1
1
1
1
1
1
1
1
1
1
1
1
1
1
1
1
1
1
1
1
1
1
1
1
1
1
1
1
1
1
1
1
1
1
1
1
1
1
1
1
1
1
1
1
1
1
1
1
1
1
1
1
1
1
1
1
1
1
1
1
1
1
1
1
1
1
1
1
1
1
1
1
1
1
1
1
1
1
1
1
1
1
1
1
1
1
1
1
1
1
1
1
1
1
1
1
1
1
1
1
1
1
1
1
1
1
1
1
1
1
1
1
1
1
1
1
1
1
1
1
1
1
1
1
1
1
1
1
1
1
1
1
1
1
1
1
1
1
1
1
1
1
1
1
1
1
1
1
1
1
1
1
1
1
1
1
1
1
1
1
1
1
1
1
1
1
1
1
1
1
1
1
1
1
1
1
1
1
1
1
1
1
1
1
1
1
1
1
1
1
1
1
1
1
1
1
1
1
1
1
1
1
1
1
1
1
1
1
1
1
1
1
1
1
1
1
1
1
1
1
1
1
1
1
1
1
1
1
1
1
1
1
1
1
1
1
1
1
1
1
1
1
1
1
1
1
1
1
1
1
1
1
1
1
1
1
1
1
1
1
1
1
1
1
1
1
1
1
1
1
1
1
1
1
1
1
1
1
1
1
1
1
1
1
1
1
1
1
1
1
1
1
1
1
1
1
1
1
1
1
1
1
1
1
1
1
1
1
1
1
1
1
1
1
1
1
1
1
1
1
1
1
1
1
1
1
1
1
1
1
1
1
1
1
1
1
1
1
1
1
1
1
1
1
1
1
1
1
1
1
1
1
1
1
1
1
1
1
1
1
1
1
1
1
1
1
1
1
1
1
1
1
1
1
1
1
1
1
1
1
1
1
1
1
1
1
1
1
1
1
1
1
1
1
1
1
1
1
1
1
1
1
1
1
1
1
1
1
1
1
1
1
1
1
1
1
1
1
1
1
1
1
1
1
1
1
1
1
1
1
1
1
1
1
1
1
1
1
1
1
1
1
1
1
1
1
1
1
1
1
1
1
1
1
1
1
1
1
1
1
1
1
1
1
1
1
1
1
1
1
1
1
1
1
1
1
1
1
1
1
1
1
1
1
1
1
1
1
1
1
1
1
1
1
1
1
1
1
1
1
1
1
1
1
1
1
1
1
1
1
1
1
1
1
1
1
1
1
1
1
1
1
1
1
1
1
1
1
1
1
1
1
1
1
1
1
1
1
1
1
1
1
1
1
1
1
1
1
1
1
1
1
1
1
1
1
1
1
1
1
1
1
1
1
1
1
1
1
1
1
1
1
1
1
1
1
1
1
1
1
1
1
1
1
1
1
1
1
1
1
1
1
1
1
1
1
1
1
1
1
1
1
1
1
1
1
1
1
1
1
1
1
1
1
1
1
1
1
1
1
1
1
1
1
1
1
1
1
1
1
1
1
1
1
1
1
1
1
1
1
1
1
1
1
1
1
1
1
1
1
1
1
1
1
1
1
1
1
1
1
1
1
1
1
1
1
1
1
1
1
1
1
1
1
1
1
1
1
1
1
1
1
1
1
1
1
1
1
1
1
1
1
1
1
1
1
1
1
1
1
1
1
1
1
1
1
1
1
1
1
1
1
1
1
1
1
1
1
1
1
1
1
1
1
1
1
1
1
1
1
1
1
1
1
1
1
1
1
1
1
1
1
1
1
1
1
1
1
1
1
1
1
1
1
1
1
1
1
1
1
1
1
1
1
1
1
1
1
1
1
1
1
1
1
1
1
1
1
1
1
1
1
1
1
1
1
1
1
1
1
1
1
1
1
1
1
1
1
1
1
1
1
1
1
1
1
1
1
1
1
1
1
1
1
1
1
1
1
1
1
1
1
1
1
1
1
1
1
1
1
1
1
1
1
1
1
1
1
1
1
1
1
1
1
1
1
1
1
1
1
1
1
1
1
1
1
1
1
1
1
1
1
1
1
1
1
1
1
1
1
1
1
1
1
1
1
1
1
1
1
1
1
1
1
1
1
1
1
1
1
1
1
1
1
1
1
1
1
1
1
1
1
1
1
1
1
1
1
1
1
1
1
1
1
1
1
1
1
1
1
1
1
1
1
1
1
1
1
1
1
1
1
1
1
1
1
1
1
1
1
1
1
1
1
1
1
1
1
1
1
1
1
1
1
1
1
1
1
1
1
1
1
1
1
1
1
1
1
1
1
1
1
1
1
1
1
1
1
1
1
1
1
1
1
1
1
1
1
1
1
1
1
1
1
1
1
1
1
1
1
1
1
1
1
1
1
1
1
1
1
1
1
1
1
1
1
1
1
1
1
1
1
1
1
1
1
1
1
1
1
1
1
1
1
1
1
1
1
1
1
1
1
1
1
1
1
1
1
1
1
1
1
1
1
1
1
1
1
1
1
1
1
1
1
1
1
1
1
1
1
1
1
1
1
1
1
1
1
1
1
1
1
1
1
1
1
1
1
1
1
1
1
1
1
1
1
1
1
1
1
1
1
1
1
1
1
1
1
1
1
1
1
1
1
1
1
1
1
1
1
1
1
1
1
1
1
1
1
1
1
1
1
1
1
1
1
1
1
1
1
1
1
1
1
1
1
1
1
1
1
1
1
1
1
1
1
1
1
1
1
1
1
1
1
1
1
1
1
1
1
1
1
1
1
1
1
1
1
1
1
1
1
1
1
1
1
1
1
1
1
1
1
1
1
1
1
1
1
1
1
1
1
1
1
1
1
1
1
1
1
1
1
1
1
1
1
1
1
1
1
1
1
1
1
1
1
1
1
1
1
1
1
1
1
1
1
1
1
1
1
1
1
1
1
1
1
1
1
1
1
1
1
1
1
1
1
1
1
1
1
1
1
1
1
1
1
1
1
1
1
1
1
1
1
1
1
1
1
1
1
1
1
1
1
1
1
1
1
1
1
1
1
1
1
1
1
1
1
1
1
1
1
1
1
1
1
1
1
1
1
1
1
1
1
1
1
1
1
1
1
1
1
1
1
1
1
1
1
1
1
1
1
1
1
1
1
1
1
1
1
1
1
1
1
1
1
1
1
1
1
1
1
1
1
1
1
1
1
1
1
1
1
1
1
1
1
1
1
1
1
1
1
1
1
1
1
1
1
1
1
1
1
1
1
1
1
1
1
1
1
1
1
1
1
1
1
1
1
1
1
1
1
1
1
1
1
1
1
1
1
1
1
1
1
1
1
1
1
1
1
1
1
1
1
1
1
1
1
1
1
1
1
1
1
1
1
1
1
1
1
1
1
1
1
1
1
1
1
1
1
1
1
1
1
1
1
1
1
1
1
1
1
1
1
1
1
1
1
1
1
1
1
1
1
1
1
1
1
1
1
1
1
1
1
1
1
0.999982
0.999933
0.999898
0.999908
0.999951
1
1
1
1
1
1
1
1
1
1
1
0.999971
0.9999
0.9998
0.999676
0.99953
0.999383
0.999224
0.999078
0.998937
0.998818
0.998718
0.998643
0.99861
0.99858
0.998626
0.998638
0.998807
0.998873
0.999177
0.999226
0.000100737
0.000101118
0.000101855
0.000103098
0.00010451
0.000106419
0.000108596
0.000111134
0.000113911
0.000117074
0.00012048
0.000124222
0.000128097
0.000132234
0.000136441
0.000140669
0.000144859
0.000148977
0.000152789
0.000156474
0.000159929
0.000163042
0.000166231
0.000169858
0.000173851
0.000178872
0.00018585
0.000195357
0.000207527
0.000222509
0.000240533
0.000261334
0.000283263
0.000303906
0.000321507
0.000336171
0.000349204
0.00036306
0.000379285
0.000399034
0.000421448
0.000446344
0.000471911
0.000498924
0.00052601
0.000555169
0.00058486
0.000617331
0.000650729
0.000687328
0.000725575
0.000767273
0.000810331
0.000854537
0.000896854
0.00093826
0.000981213
0.00103452
0.00110515
0.00119725
0.00130386
0.00140643
0.00148017
0.00150793
0.00150606
0.00149434
0.00148675
0.0015063
0.00159712
0.00177681
0.00208723
0.0024519
0.00284689
0.00324293
0.0036207
0.00394558
0.00420318
0.00439224
0.00450271
0.00452911
0.00450858
0.00446593
0.00440391
0.00432037
0.00422148
0.00410396
0.00397361
0.00382143
0.0036578
0.00347006
0.00326334
0.00304098
0.00277847
0.00251695
0.00217971
0.00187899
0.0014485
0.00113799
0.00056432
0.000212664
1.60685e-09
6.95644e-09
7.18352e-09
7.00678e-09
6.4972e-09
6.11814e-09
6.26761e-09
6.30507e-09
6.80484e-09
7.08788e-09
7.64928e-09
8.09387e-09
8.76916e-09
9.36549e-09
8.56434e-09
8.08667e-09
5.34978e-09
1.88118e-09
1.67428e-10
1.67066e-10
1.67018e-10
1.67028e-10
1.67115e-10
1.73199e-10
1.4336e-09
3.31276e-10
2.00216e-10
2.22419e-10
2.13993e-10
1.68387e-10
1.67336e-10
1.6731e-10
1.67177e-10
1.10003e-10
1.04408e-10
1.00851e-10
9.90493e-11
9.85259e-11
9.86437e-11
9.89525e-11
9.86797e-11
9.79575e-11
9.6608e-11
9.55974e-11
9.44621e-11
9.39314e-11
9.3147e-11
9.28416e-11
9.21588e-11
9.18068e-11
9.12071e-11
9.09751e-11
9.08977e-11
9.12915e-11
9.19493e-11
9.24637e-11
9.19207e-11
9.09613e-11
9.12136e-11
9.25572e-11
9.55171e-11
9.79922e-11
1.01512e-10
1.43197e-11
1.45677e-11
1.47591e-11
1.47667e-11
1.00641e-10
1.06832e-10
1.27453e-10
1.71842e-10
2.31031e-10
3.05746e-10
3.86832e-10
4.64224e-10
5.22721e-10
5.63797e-10
4.3869e-10
1.30416e-10
4.14808e-11
4.14744e-11
4.14652e-11
4.14538e-11
4.14397e-11
4.14243e-11
4.14074e-11
4.13899e-11
4.13724e-11
4.13549e-11
4.13388e-11
4.13232e-11
4.13098e-11
4.12969e-11
4.12864e-11
4.12764e-11
4.1269e-11
4.12622e-11
4.12567e-11
4.12506e-11
4.12415e-11
9.76847e-13
1.87925e-12
6.70873e-13
3.09233e-13
1.26413e-13
7.61719e-14
1.05796e-13
1.70602e-13
2.65322e-13
3.22133e-13
3.86762e-13
4.31935e-13
4.97236e-13
5.50379e-13
6.14439e-13
6.72963e-13
6.62179e-13
5.17331e-13
3.55517e-13
3.35732e-13
2.92361e-13
3.01911e-13
3.84998e-13
5.12314e-13
6.96741e-13
5.48272e-13
5.41266e-13
5.96183e-13
6.64094e-13
6.69239e-13
6.0796e-13
5.8058e-13
5.78853e-13
5.80961e-13
5.80947e-13
5.71663e-13
5.53007e-13
5.30818e-13
5.31654e-13
5.40727e-13
5.61329e-13
5.91e-13
6.33144e-13
6.93807e-13
7.6973e-13
8.59511e-13
9.66714e-13
1.08445e-12
1.26485e-12
1.42728e-12
1.68997e-12
1.9206e-12
2.28704e-12
2.56455e-12
2.97737e-12
3.2372e-12
3.76907e-12
4.31151e-12
5.69733e-12
7.61261e-12
1.07694e-11
1.29585e-11
1.45301e-11
1.42655e-11
1.51274e-11
1.47591e-11
1.59076e-11
1.57764e-11
2.25741e-11
4.35268e-11
8.79793e-11
1.4722e-10
2.22004e-10
3.03078e-10
3.80368e-10
4.38672e-10
4.79597e-10
4.99725e-10
5.18919e-10
5.20584e-10
5.44676e-10
5.34393e-10
5.67892e-10
5.38684e-10
5.84091e-10
5.31408e-10
5.86935e-10
5.08289e-10
5.68586e-10
4.68746e-10
5.23604e-10
4.12677e-10
4.47147e-10
3.45899e-10
3.51632e-10
2.80604e-10
2.57646e-10
1.91059e-10
9.40358e-11
4.12383e-11
3.7012e-15
1.09849e-15
8.31998e-17
1.11015e-17
8.29489e-19
6.04203e-20
1.68792e-19
1.48921e-18
6.99384e-18
1.28166e-17
1.83699e-17
2.24439e-17
2.74421e-17
3.13778e-17
3.62519e-17
4.12055e-17
4.48571e-17
4.17851e-17
3.41485e-17
3.40389e-17
3.13621e-17
3.30806e-17
4.08375e-17
5.14123e-17
6.50587e-17
5.59618e-17
5.95963e-17
7.06403e-17
8.62189e-17
9.94521e-17
1.04617e-16
1.12464e-16
1.22666e-16
1.31112e-16
1.36439e-16
1.38155e-16
1.3715e-16
1.35017e-16
1.393e-16
1.44215e-16
1.49679e-16
1.55279e-16
1.6166e-16
1.75651e-16
1.92362e-16
2.18557e-16
2.43804e-16
2.8047e-16
3.3618e-16
3.90972e-16
4.75365e-16
5.60073e-16
6.8934e-16
8.19002e-16
1.00133e-15
1.17032e-15
1.4375e-15
1.72187e-15
2.25956e-15
2.93368e-15
4.15279e-15
5.30823e-15
6.65396e-15
7.00072e-15
7.6186e-15
7.63209e-15
8.40871e-15
8.8906e-15
1.25253e-14
2.10649e-14
4.79986e-14
9.8168e-14
1.86137e-13
3.04223e-13
4.53415e-13
5.97844e-13
7.40194e-13
8.27449e-13
9.05872e-13
8.96432e-13
9.52377e-13
9.13292e-13
9.8655e-13
9.0967e-13
1.00204e-12
8.83942e-13
9.88192e-13
8.25705e-13
9.32526e-13
7.4318e-13
8.47617e-13
6.61185e-13
7.74348e-13
6.59491e-13
9.352e-13
1.21097e-12
2.39711e-12
2.72283e-12
2.18579e-12
7.28923e-13
1.55794e-17
9.08179e-19
1.26238e-20
3.7095e-22
2.17385e-24
1.66118e-33
6.13372e-29
2.37441e-24
1.18157e-22
4.66179e-22
8.62265e-22
1.18515e-21
1.53823e-21
1.80775e-21
2.1114e-21
2.41132e-21
2.6664e-21
2.6606e-21
2.3535e-21
2.40491e-21
2.31996e-21
2.51818e-21
3.06899e-21
3.8112e-21
4.76256e-21
4.5569e-21
5.23568e-21
6.62044e-21
8.62192e-21
1.08007e-20
1.25278e-20
1.46848e-20
1.72741e-20
1.97737e-20
2.18877e-20
2.3471e-20
2.45887e-20
2.54551e-20
2.75176e-20
2.96802e-20
3.18111e-20
3.37196e-20
3.54182e-20
3.89387e-20
4.28231e-20
4.95431e-20
5.50515e-20
6.43828e-20
7.92273e-20
9.39278e-20
1.17252e-19
1.41783e-19
1.79804e-19
2.23363e-19
2.83335e-19
3.49543e-19
4.48587e-19
5.68889e-19
7.72946e-19
1.03595e-18
1.47879e-18
1.94795e-18
2.54688e-18
2.86953e-18
3.2342e-18
3.35512e-18
3.7942e-18
4.43258e-18
6.64179e-18
1.0909e-17
2.40351e-17
5.265e-17
1.16822e-16
2.19639e-16
3.79362e-16
5.57624e-16
7.6721e-16
9.11864e-16
1.05909e-15
1.05555e-15
1.1372e-15
1.07748e-15
1.17908e-15
1.07354e-15
1.19607e-15
1.04801e-15
1.18328e-15
9.92564e-16
1.13741e-15
9.38157e-16
1.11787e-15
9.67922e-16
1.31879e-15
1.53565e-15
3.72958e-15
8.4581e-15
2.58713e-14
4.39557e-14
4.58708e-14
1.06475e-14
6.39369e-20
8.77594e-22
2.19976e-24
1.24849e-26
3.226e-30
5.9057e-40
1.24962e-35
2.91163e-31
1.2925e-27
1.57501e-26
4.03091e-26
6.36178e-26
8.77402e-26
1.05653e-25
1.23617e-25
1.40245e-25
1.53257e-25
1.56577e-25
1.45033e-25
1.51032e-25
1.53032e-25
1.73095e-25
2.12663e-25
2.66978e-25
3.38117e-25
3.60591e-25
4.43023e-25
5.8826e-25
7.99441e-25
1.05649e-24
1.31042e-24
1.63295e-24
2.0349e-24
2.46933e-24
2.8978e-24
3.29457e-24
3.65756e-24
4.00746e-24
4.5651e-24
5.17222e-24
5.79137e-24
6.36734e-24
6.87269e-24
7.74343e-24
8.66564e-24
1.02585e-23
1.14609e-23
1.36262e-23
1.72018e-23
2.07056e-23
2.64886e-23
3.26481e-23
4.25718e-23
5.49252e-23
7.20191e-23
9.29821e-23
1.24008e-22
1.65258e-22
2.32575e-22
3.24481e-22
4.73536e-22
6.46461e-22
8.74382e-22
1.05312e-21
1.26294e-21
1.41166e-21
1.73092e-21
2.19111e-21
3.387e-21
5.65914e-21
1.19722e-20
2.60025e-20
6.2002e-20
1.27773e-19
2.48501e-19
4.01129e-19
6.08914e-19
7.72484e-19
9.60119e-19
9.93453e-19
1.09152e-18
1.03574e-18
1.15033e-18
1.0551e-18
1.19323e-18
1.0663e-18
1.22571e-18
1.07113e-18
1.26857e-18
1.14295e-18
1.4853e-18
1.55986e-18
2.74161e-18
5.20094e-18
1.97565e-17
6.62496e-17
2.83581e-16
6.89565e-16
8.59447e-16
1.27975e-16
2.37429e-22
8.97624e-25
4.19031e-28
4.41067e-31
4.70936e-36
1.68207e-45
3.29133e-41
6.10151e-37
1.04966e-32
5.05385e-31
1.87875e-30
3.4508e-30
5.06779e-30
6.24845e-30
7.30397e-30
8.21628e-30
8.83639e-30
9.10173e-30
8.74157e-30
9.36713e-30
1.01071e-29
1.20801e-29
1.52039e-29
1.95058e-29
2.52534e-29
2.9496e-29
3.82155e-29
5.2526e-29
7.32833e-29
1.00201e-28
1.30325e-28
1.70018e-28
2.21876e-28
2.82996e-28
3.50009e-28
4.20209e-28
4.93239e-28
5.71542e-28
6.85698e-28
8.16674e-28
9.57748e-28
1.09741e-27
1.22653e-27
1.42465e-27
1.6348e-27
1.98692e-27
2.25043e-27
2.72576e-27
3.52889e-27
4.31079e-27
5.64458e-27
7.06577e-27
9.45539e-27
1.26078e-26
1.70423e-26
2.28829e-26
3.15954e-26
4.39582e-26
6.39191e-26
9.25929e-26
1.38766e-25
1.96886e-25
2.76237e-25
3.5541e-25
4.54678e-25
5.55459e-25
7.33612e-25
1.00535e-24
1.62264e-24
2.80879e-24
5.86546e-24
1.25421e-23
3.02633e-23
6.53571e-23
1.3802e-22
2.40474e-22
3.98339e-22
5.40755e-22
7.22213e-22
7.89937e-22
9.0906e-22
8.77041e-22
9.94189e-22
9.37007e-22
1.08503e-21
1.01365e-21
1.2039e-21
1.13276e-21
1.42621e-21
1.46759e-21
2.1925e-21
3.00598e-21
7.70481e-21
2.1601e-20
1.07786e-19
5.17356e-19
3.00933e-18
9.91949e-18
1.40416e-17
1.25033e-18
7.57124e-25
9.50467e-28
8.74345e-32
1.6639e-35
9.71137e-42
7.49104e-51
1.71656e-46
3.78653e-42
7.78587e-38
1.59256e-35
8.77829e-35
1.8875e-34
2.95651e-34
3.73574e-34
4.3689e-34
4.89435e-34
5.2204e-34
5.43329e-34
5.43203e-34
6.0925e-34
7.09913e-34
9.03315e-34
1.17237e-33
1.53577e-33
2.02796e-33
2.53486e-33
3.42057e-33
4.81858e-33
6.83147e-33
9.54195e-33
1.28493e-32
1.73862e-32
2.35909e-32
3.14237e-32
4.07176e-32
5.13358e-32
6.34108e-32
7.74214e-32
9.75222e-32
1.21836e-31
1.49511e-31
1.7863e-31
2.07251e-31
2.48683e-31
2.93701e-31
3.67025e-31
4.23908e-31
5.24155e-31
6.95736e-31
8.63427e-31
1.15646e-30
1.46825e-30
2.01342e-30
2.76451e-30
3.84312e-30
5.33973e-30
7.60874e-30
1.09956e-29
1.64903e-29
2.4733e-29
3.81473e-29
5.62699e-29
8.21324e-29
1.1273e-28
1.53886e-28
2.04657e-28
2.90736e-28
4.29926e-28
7.28122e-28
1.31533e-27
2.76509e-27
5.92566e-27
1.41792e-26
3.12493e-26
6.9223e-26
1.27942e-25
2.27798e-25
3.3085e-25
4.74633e-25
5.55605e-25
6.83562e-25
6.90739e-25
8.04824e-25
7.93615e-25
9.51451e-25
9.49224e-25
1.18672e-24
1.23433e-24
1.70617e-24
2.08277e-24
3.79423e-24
7.30105e-24
2.43349e-23
8.96636e-23
5.81342e-22
3.87886e-21
2.98016e-20
1.27016e-19
1.95586e-19
9.80585e-21
1.99544e-27
1.25123e-30
7.3448e-35
2.94239e-39
3.08541e-47
5.26056e-56
1.26515e-51
2.96728e-47
6.57854e-43
5.11427e-40
4.15266e-39
1.04343e-38
1.7432e-38
2.26052e-38
2.65597e-38
2.99063e-38
3.21311e-38
3.42322e-38
3.60144e-38
4.29356e-38
5.43241e-38
7.34432e-38
9.81071e-38
1.30381e-37
1.74578e-37
2.29067e-37
3.19155e-37
4.58192e-37
6.56371e-37
9.29058e-37
1.28413e-36
1.79098e-36
2.51406e-36
3.47916e-36
4.69656e-36
6.18198e-36
7.99186e-36
1.02332e-35
1.34802e-35
1.76089e-35
2.25596e-35
2.80684e-35
3.38098e-35
4.19142e-35
5.10203e-35
6.5574e-35
7.75224e-35
9.80042e-35
1.33325e-34
1.68347e-34
2.30578e-34
2.96921e-34
4.16813e-34
5.8777e-34
8.38685e-34
1.20116e-33
1.7617e-33
2.63407e-33
4.06959e-33
6.30788e-33
1.00306e-32
1.53774e-32
2.33906e-32
3.41709e-32
4.97056e-32
7.15772e-32
1.09029e-31
1.73179e-31
3.08041e-31
5.81788e-31
1.24415e-30
2.71084e-30
6.45361e-30
1.44157e-29
3.27428e-29
6.33719e-29
1.19416e-28
1.85199e-28
2.84372e-28
3.59132e-28
4.74435e-28
5.20877e-28
6.36244e-28
6.65825e-28
8.37479e-28
9.08405e-28
1.22019e-27
1.43613e-27
2.25546e-27
3.40129e-27
7.80711e-27
1.87523e-26
7.60527e-26
3.62185e-25
3.01508e-24
2.71602e-23
2.67831e-22
1.4167e-21
2.28195e-21
6.11001e-23
4.22707e-30
2.4979e-33
3.59186e-37
2.81445e-41
1.68671e-46
6.69876e-61
1.7009e-56
4.06532e-52
7.92001e-48
1.72845e-44
2.01192e-43
5.85741e-43
1.04143e-42
1.38785e-42
1.64835e-42
1.89079e-42
2.09007e-42
2.32056e-42
2.59574e-42
3.31132e-42
4.5264e-42
6.4499e-42
8.82008e-42
1.18131e-41
1.59577e-41
2.16895e-41
3.1037e-41
4.52857e-41
6.53688e-41
9.33041e-41
1.31552e-40
1.88245e-40
2.723e-40
3.89756e-40
5.45277e-40
7.45127e-40
1.0027e-39
1.33998e-39
1.83847e-39
2.50237e-39
3.33765e-39
4.31562e-39
5.39146e-39
6.89994e-39
8.65838e-39
1.1441e-38
1.38757e-38
1.79527e-38
2.50201e-38
3.21906e-38
4.50812e-38
5.89241e-38
8.46182e-38
1.22327e-37
1.78891e-37
2.63335e-37
3.9672e-37
6.11921e-37
9.7316e-37
1.55693e-36
2.55635e-36
4.07108e-36
6.45786e-36
1.00128e-35
1.54822e-35
2.40037e-35
3.90584e-35
6.63239e-35
1.23842e-34
2.44461e-34
5.34837e-34
1.19366e-33
2.85283e-33
6.48116e-33
1.49588e-32
3.0124e-32
5.93779e-32
9.81052e-32
1.60492e-31
2.1959e-31
3.11968e-31
3.75388e-31
4.95865e-31
5.67547e-31
7.61165e-31
9.11696e-31
1.34553e-30
1.83535e-30
3.34656e-30
6.06099e-30
1.6171e-29
4.71138e-29
2.30684e-28
1.39824e-27
1.47292e-26
1.73975e-25
2.14043e-24
1.35555e-23
2.20258e-23
3.0037e-25
7.05797e-33
5.52942e-36
1.27912e-39
1.31512e-43
2.86813e-48
2.6227e-61
4.1239e-61
9.95505e-57
1.58827e-52
6.28843e-49
1.00871e-47
3.35679e-47
6.32439e-47
8.67017e-47
1.04921e-46
1.24731e-46
1.45329e-46
1.70972e-46
2.04115e-46
2.77653e-46
4.05498e-46
6.03616e-46
8.40713e-46
1.1296e-45
1.53435e-45
2.14218e-45
3.13887e-45
4.64985e-45
6.75543e-45
9.69488e-45
1.38797e-44
2.03033e-44
3.01657e-44
4.44848e-44
6.41974e-44
9.0608e-44
1.26279e-43
1.7532e-43
2.49567e-43
3.52742e-43
4.88403e-43
6.54777e-43
8.47076e-43
1.11778e-42
1.44531e-42
1.96213e-42
2.4442e-42
3.23821e-42
4.6209e-42
6.06511e-42
8.68385e-42
1.15327e-41
1.69344e-41
2.50653e-41
3.75267e-41
5.6661e-41
8.75451e-41
1.39002e-40
2.27414e-40
3.75219e-40
6.36821e-40
1.05289e-39
1.74166e-39
2.85736e-39
4.68259e-39
7.77402e-39
1.34618e-38
2.43296e-38
4.76447e-38
9.82057e-38
2.20591e-37
5.06067e-37
1.22371e-36
2.84289e-36
6.66837e-36
1.39549e-35
2.85992e-35
5.02519e-35
8.72525e-35
1.29521e-34
1.97926e-34
2.61936e-34
3.75232e-34
4.77615e-34
7.01757e-34
9.46316e-34
1.55105e-33
2.42157e-33
4.99298e-33
1.05679e-32
3.26506e-32
1.14405e-31
6.70725e-31
5.09164e-30
6.67517e-29
1.00442e-27
1.50012e-26
1.10165e-25
1.74555e-25
1.16068e-27
9.17652e-36
1.00307e-38
2.9424e-42
3.57203e-46
1.10625e-50
4.60036e-58
1.60151e-65
3.57242e-61
4.98318e-57
2.49365e-53
5.27362e-52
1.97295e-51
3.91561e-51
5.52674e-51
6.88136e-51
8.65049e-51
1.08729e-50
1.36911e-50
1.73703e-50
2.49508e-50
3.84769e-50
5.94221e-50
8.40114e-50
1.12952e-49
1.53988e-49
2.197e-49
3.29098e-49
4.94861e-49
7.23356e-49
1.04196e-48
1.50963e-48
2.25084e-48
3.4255e-48
5.18699e-48
7.69005e-48
1.11597e-47
1.60355e-47
2.30321e-47
3.38969e-47
4.95927e-47
7.10801e-47
9.85711e-47
1.31819e-46
1.79105e-46
2.38433e-46
3.32272e-46
4.25342e-46
5.7712e-46
8.42721e-46
1.12938e-45
1.65287e-45
2.23266e-45
3.3509e-45
5.07373e-45
7.7704e-45
1.20166e-44
1.90198e-44
3.10372e-44
5.22119e-44
8.87861e-44
1.55867e-43
2.67359e-43
4.60944e-43
7.97833e-43
1.38148e-42
2.44388e-42
4.48751e-42
8.59831e-42
1.76416e-41
3.79339e-41
8.77053e-41
2.07233e-40
5.0993e-40
1.21666e-39
2.91145e-39
6.33931e-39
1.34904e-38
2.51848e-38
4.63174e-38
7.457e-38
1.22564e-37
1.78515e-37
2.77677e-37
3.93249e-37
6.33936e-37
9.63e-37
1.75359e-36
3.12627e-36
7.27934e-36
1.79169e-35
6.38195e-35
2.66487e-34
1.85305e-33
1.73261e-32
2.7766e-31
5.17585e-30
9.14237e-29
7.56285e-28
1.13214e-27
3.52256e-30
9.24399e-39
1.39506e-41
4.6053e-45
6.22811e-49
2.2159e-53
9.74688e-60
7.69504e-70
1.61183e-65
2.058e-61
1.08199e-57
2.88774e-56
1.19313e-55
2.47717e-55
3.60339e-55
4.67112e-55
6.34367e-55
8.75518e-55
1.18175e-54
1.57798e-54
2.36717e-54
3.81868e-54
6.09154e-54
8.72665e-54
1.1727e-53
1.60315e-53
2.32998e-53
3.56483e-53
5.44181e-53
8.00336e-53
1.156e-52
1.69085e-52
2.5637e-52
3.98749e-52
6.18256e-52
9.38409e-52
1.39481e-51
2.0583e-51
3.04719e-51
4.62206e-51
6.97932e-51
1.03276e-50
1.47804e-50
2.03941e-50
2.84903e-50
3.90084e-50
5.57454e-50
7.33279e-50
1.01877e-49
1.52115e-49
2.08249e-49
3.11435e-49
4.28232e-49
6.56677e-49
1.01644e-48
1.59137e-48
2.51798e-48
4.07929e-48
6.83339e-48
1.18147e-47
2.06956e-47
3.75926e-47
6.68498e-47
1.20027e-46
2.18594e-46
3.98772e-46
7.48457e-46
1.45266e-45
2.94103e-45
6.31624e-45
1.41573e-44
3.37611e-44
8.22805e-44
2.06934e-43
5.08615e-43
1.24731e-42
2.83078e-42
6.26425e-42
1.24197e-41
2.41839e-41
4.21779e-41
7.45713e-41
1.19426e-40
2.01851e-40
3.17677e-40
5.62177e-40
9.60288e-40
1.94208e-39
3.94134e-39
1.03403e-38
2.94328e-38
1.20218e-37
5.92379e-37
4.83547e-36
5.47557e-35
1.05289e-33
2.36764e-32
4.8259e-31
4.37879e-30
6.01297e-30
8.41155e-33
7.23065e-42
1.50038e-44
5.26628e-48
7.30666e-52
2.85934e-56
1.93328e-62
4.25809e-74
8.41994e-70
9.98974e-66
5.12574e-62
1.65863e-60
7.43701e-60
1.60364e-59
2.40788e-59
3.2954e-59
4.93342e-59
7.54484e-59
1.08572e-58
1.50899e-58
2.34215e-58
3.92727e-58
6.45515e-58
9.36364e-58
1.25728e-57
1.7228e-57
2.54561e-57
3.97595e-57
6.16289e-57
9.12106e-57
1.32039e-56
1.94642e-56
2.9959e-56
4.7537e-56
7.52999e-56
1.16683e-55
1.7707e-55
2.67458e-55
4.06797e-55
6.34208e-55
9.85788e-55
1.50229e-54
2.21391e-54
3.14595e-54
4.51181e-54
6.34575e-54
9.28903e-54
1.255e-53
1.78453e-53
2.72219e-53
3.80747e-53
5.81557e-53
8.14497e-53
1.27556e-52
2.01714e-52
3.22676e-52
5.21991e-52
8.65001e-52
1.48611e-51
2.6397e-51
4.76089e-51
8.94866e-51
1.64851e-50
3.07958e-50
5.88737e-50
1.12854e-49
2.23914e-49
4.5807e-49
9.772e-49
2.19493e-48
5.12543e-48
1.26288e-47
3.17885e-47
8.20039e-47
2.08108e-46
5.25183e-46
1.24431e-45
2.87031e-45
6.04223e-45
1.24649e-44
2.35142e-44
4.47358e-44
7.86419e-44
1.44487e-43
2.5219e-43
4.89945e-43
9.38634e-43
2.10623e-42
4.84705e-42
1.42862e-41
4.67355e-41
2.17579e-40
1.2524e-39
1.18728e-38
1.60132e-37
3.62686e-36
9.59623e-35
2.20579e-33
2.14191e-32
2.62527e-32
1.58677e-35
4.43441e-45
1.27523e-47
4.62479e-51
6.26283e-55
2.48667e-59
1.51658e-65
2.62533e-78
4.89337e-74
5.41083e-70
2.63555e-66
9.98436e-65
4.77997e-64
1.06302e-63
1.65192e-63
2.42484e-63
4.0666e-63
6.8931e-63
1.04817e-62
1.50164e-62
2.39535e-62
4.15813e-62
7.03361e-62
1.03296e-61
1.38602e-61
1.90341e-61
2.85575e-61
4.55175e-61
7.16543e-61
1.06741e-60
1.54839e-60
2.29778e-60
3.58568e-60
5.7962e-60
9.36337e-60
1.47797e-59
2.28402e-59
3.52141e-59
5.48726e-59
8.77167e-59
1.40017e-58
2.19251e-58
3.32003e-58
4.84935e-58
7.1288e-58
1.02856e-57
1.54035e-57
2.13579e-57
3.10594e-57
4.83569e-57
6.90879e-57
1.0771e-56
1.53702e-56
2.45703e-56
3.96737e-56
6.48132e-56
1.07131e-55
1.81494e-55
3.19574e-55
5.82925e-55
1.08203e-54
2.10426e-54
4.01286e-54
7.79226e-54
1.56052e-53
3.13592e-53
6.55728e-53
1.41052e-52
3.16336e-52
7.42605e-52
1.80587e-51
4.6044e-51
1.19862e-50
3.18124e-50
8.35198e-50
2.17661e-49
5.39061e-49
1.29945e-48
2.90378e-48
6.35285e-48
1.29427e-47
2.65077e-47
5.10459e-47
1.01967e-46
1.96907e-46
4.19839e-46
8.99384e-46
2.23603e-45
5.81005e-45
1.91727e-44
7.16145e-44
3.776e-43
2.51327e-42
2.7374e-41
4.32704e-40
1.13379e-38
3.44948e-37
8.75317e-36
8.89179e-35
9.48503e-35
2.37876e-38
2.16924e-48
8.77463e-51
3.23999e-54
4.14107e-58
1.50107e-62
6.97968e-69
1.76725e-82
3.09367e-78
3.18845e-74
1.45944e-70
6.28417e-69
3.16604e-68
7.2159e-68
1.16534e-67
1.86582e-67
3.53967e-67
6.60738e-67
1.05191e-66
1.54193e-66
2.51651e-66
4.51171e-66
7.84935e-66
1.16728e-65
1.5657e-65
2.15495e-65
3.28018e-65
5.33386e-65
8.5288e-65
1.27913e-64
1.85937e-64
2.77577e-64
4.38757e-64
7.21788e-64
1.1875e-63
1.90606e-63
2.99345e-63
4.69995e-63
7.48526e-63
1.2243e-62
2.00264e-62
3.21538e-62
4.99283e-62
7.482e-62
1.12564e-61
1.66366e-61
2.54555e-61
3.61856e-61
5.37689e-61
8.53509e-61
1.24507e-60
1.9798e-60
2.87889e-60
4.69492e-60
7.73646e-60
1.29012e-59
2.17781e-59
3.77023e-59
6.79981e-59
1.2732e-58
2.43131e-58
4.89071e-58
9.64823e-58
1.94558e-57
4.07423e-57
8.5656e-57
1.88275e-56
4.24967e-56
1.00005e-55
2.4521e-55
6.20842e-55
1.64021e-54
4.42141e-54
1.21055e-53
3.29371e-53
8.89093e-53
2.30414e-52
5.81718e-52
1.37961e-51
3.20425e-51
7.03985e-51
1.5527e-50
3.26863e-50
7.09869e-50
1.51282e-49
3.53792e-49
8.44752e-49
2.32283e-48
6.78393e-48
2.49709e-47
1.0579e-46
6.27648e-46
4.78272e-45
5.92221e-44
1.08044e-42
3.21991e-41
1.10311e-39
3.03047e-38
3.15394e-37
2.86106e-37