/*--------------------------------*- C++ -*----------------------------------*\
| =========                 |                                                 |
| \\      /  F ield         | OpenFOAM: The Open Source CFD Toolbox           |
|  \\    /   O peration     | Version:  2.4.0                                 |
|   \\  /    A nd           | Web:      www.OpenFOAM.org                      |
|    \\/     M anipulation  |                                                 |
\*---------------------------------------------------------------------------*/
FoamFile
{
    version     2.0;
    format      ascii;
    class       volScalarField;
    location    "0.248";
    object      alpha.water;
}
// * * * * * * * * * * * * * * * * * * * * * * * * * * * * * * * * * * * * * //

dimensions      [0 0 0 0 0 0 0];

internalField   nonuniform List<scalar> 
60000
(
1
1
1
1
1
1
1
1
1
1
1
1
1
1
1
1
1
1
1
1
1
1
1
1
1
1
1
1
1
1
1
1
1
1
1
1
1
1
1
1
1
1
1
1
1
1
1
1
1
1
1
1
1
1
1
1
1
1
1
1
1
1
1
1
1
1
1
1
1
1
1
1
1
1
1
1
1
1
1
1
1
1
1
1
1
1
1
1
1
1
1
1
1
1
1
1
1
1
1
1
1
1
1
1
1
1
1
1
1
1
1
1
1
1
1
1
1
1
1
1
1
1
1
1
1
1
1
1
1
1
1
1
1
1
1
1
1
1
1
1
1
1
1
1
1
1
1
1
1
1
1
1
1
1
1
1
1
1
1
1
1
1
1
1
1
1
1
1
1
1
1
1
1
1
1
1
1
1
1
1
1
1
1
1
1
1
1
1
1
1
1
1
1
1
1
1
1
1
1
1
1
1
1
1
1
1
1
1
1
1
1
1
1
1
1
1
1
1
1
1
1
1
1
1
1
1
1
1
1
1
1
1
1
1
1
1
1
1
1
1
1
1
1
1
1
1
1
1
1
1
1
1
1
1
1
1
1
1
1
1
1
1
1
1
1
1
1
1
1
1
1
1
1
1
1
1
1
1
1
1
1
1
1
1
1
1
1
1
1
1
1
1
1
1
1
1
1
1
1
1
1
1
1
1
1
1
1
1
1
1
1
1
1
1
1
1
1
1
1
1
1
1
1
1
1
1
1
1
1
1
1
1
1
1
1
1
1
1
1
1
1
1
1
1
1
1
1
1
1
1
1
1
1
1
1
1
1
1
1
1
1
1
1
1
1
1
1
1
1
1
1
1
1
1
1
1
1
1
1
1
1
1
1
1
1
1
1
1
1
1
1
1
1
1
1
1
1
1
1
1
1
1
1
1
1
1
1
1
1
1
1
1
1
1
1
1
1
1
1
1
1
1
1
1
1
1
1
1
1
1
1
1
1
1
1
1
1
1
1
1
1
1
1
1
1
1
1
1
1
1
1
1
1
1
1
1
1
1
1
1
1
1
1
1
1
1
1
1
1
1
1
1
1
1
1
1
1
1
1
1
1
1
1
1
1
1
1
1
1
1
1
1
1
1
1
1
1
1
1
1
1
1
1
1
1
1
1
1
1
1
1
1
1
1
1
1
1
1
1
1
1
1
1
1
1
1
1
1
1
1
1
1
1
1
1
1
1
1
1
1
1
1
1
1
1
1
1
1
1
1
1
1
1
1
1
1
1
1
1
1
1
1
1
1
1
1
1
1
1
1
1
1
1
1
1
1
1
1
1
1
1
1
1
1
1
1
1
1
1
1
1
1
1
1
1
1
1
1
1
1
1
1
1
1
1
1
1
1
1
1
1
1
1
1
1
1
1
1
1
1
1
1
1
1
1
1
1
1
1
1
1
1
1
1
1
1
1
1
1
1
1
1
1
1
1
1
1
1
1
1
1
1
1
1
1
1
1
1
1
1
1
1
1
1
1
1
1
1
1
1
1
1
1
1
1
1
1
1
1
1
1
1
1
1
1
1
1
1
1
1
1
1
1
1
1
1
1
1
1
1
1
1
1
1
1
1
1
1
1
1
1
1
1
1
1
1
1
1
1
1
1
1
1
1
1
1
1
1
1
1
1
1
1
1
1
1
1
1
1
1
1
1
1
1
1
1
1
1
1
1
1
1
1
1
1
1
1
1
1
1
1
1
1
1
1
1
1
1
1
1
1
1
1
1
1
1
1
1
1
1
1
1
1
1
1
1
1
1
1
1
1
1
1
1
1
1
1
1
1
1
1
1
1
1
1
1
1
1
1
1
1
1
1
1
1
1
1
1
1
1
1
1
1
1
1
1
1
1
1
1
1
1
1
1
1
1
1
1
1
1
1
1
1
1
1
1
1
1
1
1
1
1
1
1
1
1
1
1
1
1
1
1
1
1
1
1
1
1
1
1
1
1
1
1
1
1
1
1
1
1
1
1
1
1
1
1
1
1
1
1
1
1
1
1
1
1
1
1
1
1
1
1
1
1
1
1
1
1
1
1
1
1
1
1
1
1
1
1
1
1
1
1
1
1
1
1
1
1
1
1
1
1
1
1
1
1
1
1
1
1
1
1
1
1
1
1
1
1
1
1
1
1
1
1
1
1
1
1
1
1
1
1
1
1
1
1
1
1
1
1
1
1
1
1
1
1
1
1
1
1
1
1
1
1
1
1
1
1
1
1
1
1
1
1
1
1
1
1
1
1
1
1
1
1
1
1
1
1
1
1
1
1
1
1
1
1
1
1
1
1
1
1
1
1
1
1
1
1
1
1
1
1
1
1
1
1
1
1
1
1
1
1
1
1
1
1
1
1
1
1
1
1
1
1
1
1
1
1
1
1
1
1
1
1
1
1
1
1
1
1
1
1
1
1
1
1
1
1
1
1
1
1
1
1
1
1
1
1
1
1
1
1
1
1
1
1
1
1
1
1
1
1
1
1
1
1
1
1
1
1
1
1
1
1
1
1
1
1
1
1
1
1
1
1
1
1
1
1
1
1
1
1
1
1
1
1
1
1
1
1
1
1
1
1
1
1
1
1
1
1
1
1
1
1
1
1
1
1
1
1
1
1
1
1
1
1
1
1
1
1
1
1
1
1
1
1
1
1
1
1
1
1
1
1
1
1
1
1
1
1
1
1
1
1
1
1
1
1
1
1
1
1
1
1
1
1
1
1
1
1
1
1
1
1
1
1
1
1
1
1
1
1
1
1
1
1
1
1
1
1
1
1
1
1
1
1
1
1
1
1
1
1
1
1
1
1
1
1
1
1
1
1
1
1
1
1
1
1
1
1
1
1
1
1
1
1
1
1
1
1
1
1
1
1
1
1
1
1
1
1
1
1
1
1
1
1
1
1
1
1
1
1
1
1
1
1
1
1
1
1
1
1
1
1
1
1
1
1
1
1
1
1
1
1
1
1
1
1
1
1
1
1
1
1
1
1
1
1
1
1
1
1
1
1
1
1
1
1
1
1
1
1
1
1
1
1
1
1
1
1
1
1
1
1
1
1
1
1
1
1
1
1
1
1
1
1
1
1
1
1
1
1
1
1
1
1
1
1
1
1
1
1
1
1
1
1
1
1
1
1
1
1
1
1
1
1
1
1
1
1
1
1
1
1
1
1
1
1
1
1
1
1
1
1
1
1
1
1
1
1
1
1
1
1
1
1
1
1
1
1
1
1
1
1
1
1
1
1
1
1
1
1
1
1
1
1
1
1
1
1
1
1
1
1
1
1
1
1
1
1
1
1
1
1
1
1
1
1
1
1
1
1
1
1
1
1
1
1
1
1
1
1
1
1
1
1
1
1
1
1
1
1
1
1
1
1
1
1
1
1
1
1
1
1
1
1
1
1
1
1
1
1
1
1
1
1
1
1
1
1
1
1
1
1
1
1
1
1
1
1
1
1
1
1
1
1
1
1
1
1
1
1
1
1
1
1
1
1
1
1
1
1
1
1
1
1
1
1
1
1
1
1
1
1
1
1
1
1
1
1
1
1
1
1
1
1
1
1
1
1
1
1
1
1
1
1
1
1
1
1
1
1
1
1
1
1
1
1
1
1
1
1
1
1
1
1
1
1
1
1
1
1
1
1
1
1
1
1
1
1
1
1
1
1
1
1
1
1
1
1
1
1
1
1
1
1
1
1
1
1
1
1
1
1
1
1
1
1
1
1
1
1
1
1
1
1
1
1
1
1
1
1
1
1
1
1
1
1
1
1
1
1
1
1
1
1
1
1
1
1
1
1
1
1
1
1
1
1
1
1
1
1
1
1
1
1
1
1
1
1
1
1
1
1
1
1
1
1
1
1
1
1
1
1
1
1
1
1
1
1
1
1
1
1
1
1
1
1
1
1
1
1
1
1
1
1
1
1
1
1
1
1
1
1
1
1
1
1
1
1
1
1
1
1
1
1
1
1
1
1
1
1
1
1
1
1
1
1
1
1
1
1
1
1
1
1
1
1
1
1
1
1
1
1
1
1
1
1
1
1
1
1
1
1
1
1
1
1
1
1
1
1
1
1
1
1
1
1
1
1
1
1
1
1
1
1
1
1
1
1
1
1
1
1
1
1
1
1
1
1
1
1
1
1
1
1
1
1
1
1
1
1
1
1
1
1
1
1
1
1
1
1
1
1
1
1
1
1
1
1
1
1
1
1
1
1
1
1
1
1
1
1
1
1
1
1
1
1
1
1
1
1
1
1
1
1
1
1
1
1
1
1
1
1
1
1
1
1
1
1
1
1
1
1
1
1
1
1
1
1
1
1
1
1
1
1
1
1
1
1
1
1
1
1
1
1
1
1
1
1
1
1
1
1
1
1
1
1
1
1
1
1
1
1
1
1
1
1
1
1
1
1
1
1
1
1
1
1
1
1
1
1
1
1
1
1
1
1
1
1
1
1
1
1
1
1
1
1
1
1
1
1
1
1
1
1
1
1
1
1
1
1
1
1
1
1
1
1
1
1
1
1
1
1
1
1
1
1
1
1
1
1
1
1
1
1
1
1
1
1
1
1
1
1
1
1
1
1
1
1
1
1
1
1
1
1
1
1
1
1
1
1
1
1
1
1
1
1
1
1
1
1
1
1
1
1
1
1
1
1
1
1
1
1
1
1
1
1
1
1
1
1
1
1
1
1
1
1
1
1
1
1
1
1
1
1
1
1
1
1
1
1
1
1
1
1
1
1
1
1
1
1
1
1
1
1
1
1
1
1
1
1
1
1
1
1
1
1
1
1
1
1
1
1
1
1
1
1
1
1
1
1
1
1
1
1
1
1
1
1
1
1
1
1
1
1
1
1
1
1
1
1
1
1
1
1
1
1
1
1
1
1
1
1
1
1
1
1
1
1
1
1
1
1
1
1
1
1
1
1
1
1
1
1
1
1
1
1
1
1
1
1
1
1
1
1
1
1
1
0.999999
1
1
1
1
1
1
1
1
1
1
1
1
1
1
1
1
1
1
1
1
1
1
1
1
1
1
1
1
1
1
1
1
1
1
1
1
1
1
1
1
1
1
1
1
1
1
1
1
1
1
1
1
1
1
1
1
1
1
1
1
1
1
1
1
1
1
1
1
1
1
1
1
1
1
1
1
1
1
1
1
1
1
1
1
1
1
1
1
1
1
1
1
1
1
1
1
1
1
1
1
1
1
1
1
1
1
1
1
1
1
1
1
1
1
1
1
1
1
1
1
1
1
1
1
1
1
1
1
1
1
1
1
1
1
1
1
1
1
1
1
1
1
1
1
1
1
1
1
1
1
1
1
1
1
1
1
1
1
1
1
1
1
1
1
1
1
1
1
1
1
1
1
1
1
1
1
1
1
1
1
1
1
1
1
1
1
1
1
1
1
1
1
1
1
1
1
1
1
1
1
1
1
1
1
1
1
1
1
1
1
1
1
1
1
1
1
1
1
1
1
1
1
1
1
1
1
1
1
1
1
1
1
1
1
1
1
1
1
1
1
1
1
1
1
1
1
1
1
1
1
1
1
1
1
1
1
1
1
1
1
1
1
1
1
1
1
1
1
1
1
1
1
1
1
1
1
1
1
1
1
1
1
1
1
1
1
1
1
1
1
1
1
1
1
1
1
1
1
1
1
1
1
1
1
1
1
1
1
1
1
1
1
1
1
1
1
1
1
1
1
1
1
1
1
1
1
1
1
1
1
1
1
1
1
1
1
1
1
1
1
1
1
1
1
1
1
1
1
1
1
1
1
1
1
1
1
1
1
1
1
1
1
1
1
1
1
1
1
1
1
1
1
1
1
1
1
1
1
1
1
1
1
1
1
1
1
1
0.999999
0.999999
1
1
1
1
1
1
1
1
1
1
1
1
1
1
1
1
1
1
1
1
1
1
1
1
1
1
1
1
1
1
1
1
1
1
1
1
1
1
1
1
1
1
1
1
1
1
1
1
1
1
1
1
1
1
1
1
1
1
1
1
1
1
1
1
1
1
1
1
1
1
1
1
1
1
1
1
1
1
1
1
1
1
1
1
1
1
1
1
1
1
1
1
1
1
1
1
1
1
1
0.999996
0.999996
1
1
1
1
1
1
1
1
1
1
1
1
1
1
1
1
1
1
1
1
1
1
1
1
1
1
1
1
1
1
1
1
1
1
1
1
1
1
1
1
1
1
1
1
1
1
1
1
1
1
1
1
1
1
1
1
1
1
1
1
1
1
1
1
1
1
1
1
1
1
1
1
1
1
1
1
1
1
1
1
1
1
1
1
1
1
1
1
1
1
1
1
1
1
1
1
1
1
0.999999
0.999972
0.999933
0.999911
0.999919
0.999938
0.999946
0.999944
0.999961
0.999988
1
1
1
1
1
1
1
1
1
1
1
1
1
1
1
1
1
1
1
1
1
1
1
1
1
1
1
1
1
1
1
1
1
1
1
1
1
1
1
1
1
1
1
1
1
1
1
1
1
1
1
1
1
1
1
1
1
1
1
1
1
1
1
1
1
1
1
1
1
1
1
1
1
1
1
1
1
1
1
1
1
1
1
1
1
1
1
1
1
1
1
0.999988
0.99983
0.999813
0.999813
0.999812
0.999812
0.999812
0.999812
0.999946
1
1
1
1
1
1
1
1
1
1
1
1
1
1
1
1
1
1
1
1
1
1
1
1
1
1
1
1
1
1
1
1
1
1
1
1
1
1
1
1
1
1
1
1
1
1
1
1
1
1
1
1
1
1
1
1
1
1
1
1
1
1
1
1
1
1
1
1
1
1
1
1
1
1
1
1
1
1
1
1
1
1
1
1
1
1
1
1
1
1
1
1
1
0.999962
0.9999
0.999821
0.999812
0.999812
0.999837
0.999961
1
1
1
1
1
1
1
1
1
1
1
1
1
1
1
1
1
1
1
1
1
1
1
1
1
1
1
1
1
1
1
1
1
1
1
1
1
1
1
1
1
1
1
1
1
1
1
1
1
1
1
1
1
1
1
1
1
1
1
1
1
1
1
1
1
1
1
1
1
1
1
1
1
1
1
1
1
1
1
1
1
1
1
1
1
1
1
1
1
1
1
1
1
1
1
0.999997
0.999951
0.999957
0.999998
1
1
1
1
1
1
1
1
1
1
1
1
1
1
1
1
1
1
1
1
1
1
1
1
1
1
1
1
1
1
1
1
1
1
1
1
1
1
1
1
1
1
1
1
1
1
1
1
1
1
1
1
1
1
1
1
1
1
1
1
1
1
1
1
1
1
1
1
1
1
1
1
1
1
1
1
1
1
1
1
1
1
1
1
1
1
1
1
1
1
1
1
1
1
1
1
1
1
1
1
1
1
1
1
1
1
1
1
1
1
1
1
1
1
1
1
1
1
1
1
1
1
1
1
1
1
1
1
1
1
1
1
1
1
1
1
1
1
1
1
1
1
1
1
1
1
1
1
1
1
1
1
1
1
1
1
1
1
1
1
1
1
1
1
1
1
1
1
1
1
1
1
1
1
1
1
1
1
1
1
1
1
1
1
1
1
1
1
1
1
1
1
1
1
1
1
1
1
1
0.999999
0.996881
0.951515
0.62703
1
1
1
1
1
1
1
1
1
1
1
1
1
1
1
1
1
1
1
1
1
1
1
1
1
1
1
1
1
1
1
1
1
1
1
1
1
1
1
1
1
1
1
1
1
1
1
1
1
1
1
1
1
1
1
1
1
1
1
1
1
1
1
1
1
1
1
1
1
1
1
1
1
1
1
1
1
1
1
1
1
1
1
1
1
1
1
1
1
1
1
1
1
1
0.999999
0.999996
0.954969
0.683172
0.213076
4.00423e-06
1
1
1
1
1
1
1
1
1
1
1
1
1
1
1
1
1
1
1
1
1
1
1
1
1
1
1
1
1
1
1
1
1
1
1
1
1
1
1
1
1
1
1
1
1
1
1
1
1
1
1
1
1
1
1
1
1
1
1
1
1
1
1
1
1
1
1
1
1
1
1
1
1
1
1
1
1
1
1
1
1
1
1
1
1
1
1
1
1
1
1
0.999998
0.999993
0.999642
0.953568
0.702586
0.281119
0.00363301
-2.16269e-07
1.73812e-07
1
1
1
1
1
1
1
1
1
1
1
1
1
1
1
1
1
1
1
1
1
1
1
1
1
1
1
1
1
1
1
1
1
1
1
1
1
1
1
1
1
1
1
1
1
1
1
1
1
1
1
1
1
1
1
1
1
1
1
1
1
1
1
1
1
1
1
1
1
1
1
1
1
1
1
1
1
1
1
1
1
1
1
1
1
1
1
1
0.999999
0.999997
0.999977
0.989767
0.88891
0.617158
0.256835
0.00368951
1.54484e-07
1.74034e-07
1.72967e-07
1.7409e-07
1
1
1
1
1
1
1
1
1
1
1
1
1
1
1
1
1
1
1
1
1
1
1
1
1
1
1
1
1
1
1
1
1
1
1
1
1
1
1
1
1
1
1
1
1
1
1
1
1
1
1
1
1
1
1
1
1
1
1
1
1
1
1
1
1
1
1
1
1
1
1
1
1
1
1
1
1
1
1
1
1
1
1
1
1
1
1
0.999998
0.999967
0.99743
0.843128
0.48266
0.152592
4.83767e-07
1.77601e-07
1.75682e-07
1.75153e-07
1.74795e-07
1.74673e-07
1.74315e-07
1
1
1
1
1
1
1
1
1
1
1
1
1
1
1
1
1
1
1
1
1
1
1
1
1
1
1
1
1
1
1
1
1
1
1
1
1
1
1
1
1
1
1
1
1
1
1
1
1
1
1
1
1
1
1
1
1
1
1
1
1
1
1
1
1
1
1
1
1
1
1
1
1
1
1
1
1
1
1
1
1
1
1
1
1
1
0.999995
0.999912
0.910075
0.521832
0.12214
1.12739e-06
1.66438e-07
1.77586e-07
1.75904e-07
1.75586e-07
1.75353e-07
1.75099e-07
1.74794e-07
1.74682e-07
1
1
1
1
1
1
1
1
1
1
1
1
1
1
1
1
1
1
1
1
1
1
1
1
1
1
1
1
1
1
1
1
1
1
1
1
1
1
1
1
1
1
1
1
1
1
1
1
1
1
1
1
1
1
1
1
1
1
1
1
1
1
1
1
1
1
1
1
1
1
1
1
1
1
1
1
1
1
1
1
1
1
1
1
1
0.999993
0.999846
0.772065
0.232001
1.73194e-05
7.76861e-07
1.91357e-07
1.78054e-07
1.76696e-07
1.76311e-07
1.75922e-07
1.75562e-07
1.75326e-07
1.75047e-07
1.76745e-07
1
1
1
1
1
1
1
1
1
1
1
1
1
1
1
1
1
1
1
1
1
1
1
1
1
1
1
1
1
1
1
1
1
1
1
1
1
1
1
1
1
1
1
1
1
1
1
1
1
1
1
1
1
1
1
1
1
1
1
1
1
1
1
1
1
1
1
1
1
1
1
1
1
1
1
1
1
1
1
1
1
1
1
1
0.99999
0.99922
0.640455
0.0939741
8.69524e-06
1.20922e-06
1.01636e-06
1.00819e-06
1.00894e-06
8.6446e-07
1.76697e-07
1.76275e-07
1.76024e-07
1.75869e-07
2.0506e-07
3.59997e-06
1
1
1
1
1
1
1
1
1
1
1
1
1
1
1
1
1
1
1
1
1
1
1
1
1
1
1
1
1
1
1
1
1
1
1
1
1
1
1
1
1
1
1
1
1
1
1
1
1
1
1
1
1
1
1
1
1
1
1
1
1
1
1
1
1
1
1
1
1
1
1
1
1
1
1
1
1
1
1
1
1
1
1
0.99999
0.996055
0.5386
0.0285393
9.40555e-06
2.78278e-06
2.66429e-06
2.74572e-06
3.48443e-06
2.79466e-06
8.55781e-07
1.78923e-07
9.21122e-07
9.80956e-07
1.33988e-06
9.12455e-06
1.50745e-05
1
1
1
1
1
1
1
1
1
1
1
1
1
1
1
1
1
1
1
1
1
1
1
1
1
1
1
1
1
1
1
1
1
1
1
1
1
1
1
1
1
1
1
1
1
1
1
1
1
1
1
1
1
1
1
1
1
1
1
1
1
1
1
1
1
1
1
1
1
1
1
1
1
1
1
1
1
1
1
1
1
1
0.999993
0.998599
0.500188
0.0037889
1.2848e-05
9.7255e-06
9.60185e-06
1.01028e-05
1.27305e-05
6.37357e-06
4.95328e-07
6.08816e-07
1.59365e-06
3.14402e-06
3.15289e-06
1.27748e-05
1.50391e-05
1.50566e-05
1
1
1
1
1
1
1
1
1
1
1
1
1
1
1
1
1
1
1
1
1
1
1
1
1
1
1
1
1
1
1
1
1
1
1
1
1
1
1
1
1
1
1
1
1
1
1
1
1
1
1
1
1
1
1
1
1
1
1
1
1
1
1
1
1
1
1
1
1
1
1
1
1
1
1
1
1
1
1
1
1
0.999996
0.999823
0.533058
0.0124999
1.56223e-05
1.06741e-05
1.05089e-05
1.68408e-05
1.93507e-05
1.63754e-05
5.03234e-07
5.42621e-07
3.5794e-06
3.98634e-06
3.74269e-06
1.25285e-05
1.50114e-05
1.50343e-05
1.46243e-05
1
1
1
1
1
1
1
1
1
1
1
1
1
1
1
1
1
1
1
1
1
1
1
1
1
1
1
1
1
1
1
1
1
1
1
1
1
1
1
1
1
1
1
1
1
1
1
1
1
1
1
1
1
1
1
1
1
1
1
1
1
1
1
1
1
1
1
1
1
1
1
1
1
1
1
1
1
1
1
1
0.999999
0.999914
0.643758
0.0472314
5.04661e-05
1.1223e-05
1.06705e-05
1.08396e-05
1.93711e-05
1.93668e-05
6.02233e-06
5.01641e-07
3.11857e-06
4.81176e-06
4.83896e-06
7.4979e-06
1.49863e-05
1.49975e-05
1.10107e-05
4.70754e-07
1
1
1
1
1
1
1
1
1
1
1
1
1
1
1
1
1
1
1
1
1
1
1
1
1
1
1
1
1
1
1
1
1
1
1
1
1
1
1
1
1
1
1
1
1
1
1
1
1
1
1
1
1
1
1
1
1
1
1
1
1
1
1
1
1
1
1
1
1
1
1
1
1
1
1
1
1
1
1
0.999999
0.999962
0.805916
0.114391
9.42664e-05
1.23633e-05
1.06869e-05
1.06858e-05
1.48949e-05
1.81039e-05
3.19589e-06
8.57683e-07
2.3926e-06
3.90632e-06
3.66441e-06
3.90398e-06
1.49725e-05
1.49893e-05
8.67743e-06
1.54096e-07
1.52021e-07
1
1
1
1
1
1
1
1
1
1
1
1
1
1
1
1
1
1
1
1
1
1
1
1
1
1
1
1
1
1
1
1
1
1
1
1
1
1
1
1
1
1
1
1
1
1
1
1
1
1
1
1
1
1
1
1
1
1
1
1
1
1
1
1
1
1
1
1
1
1
1
1
1
1
1
1
1
1
0.999999
0.999966
0.939745
0.215301
0.000165474
1.37528e-05
1.08763e-05
1.08426e-05
1.14401e-05
1.15769e-05
3.65077e-06
8.41674e-07
8.45089e-07
2.45186e-06
3.44468e-06
3.66049e-06
1.1964e-05
1.49972e-05
8.58202e-06
3.33273e-07
3.67393e-07
7.07966e-07
1
1
1
1
1
1
1
1
1
1
1
1
1
1
1
1
1
1
1
1
1
1
1
1
1
1
1
1
1
1
1
1
1
1
1
1
1
1
1
1
1
1
1
1
1
1
1
1
1
1
1
1
1
1
1
1
1
1
1
1
1
1
1
1
1
1
1
1
1
1
1
1
1
1
1
1
1
0.999998
0.999966
0.995456
0.323194
0.000211942
1.51593e-05
1.3838e-05
1.38327e-05
1.35309e-05
3.46023e-06
1.05894e-06
8.41686e-07
8.41661e-07
9.82188e-07
1.57282e-06
2.86165e-06
1.16748e-05
1.45701e-05
1.0359e-05
3.14221e-07
3.27204e-07
9.64264e-07
9.64264e-07
1
1
1
1
1
1
1
1
1
1
1
1
1
1
1
1
1
1
1
1
1
1
1
1
1
1
1
1
1
1
1
1
1
1
1
1
1
1
1
1
1
1
1
1
1
1
1
1
1
1
1
1
1
1
1
1
1
1
1
1
1
1
1
1
1
1
1
1
1
1
1
1
1
1
1
1
0.999997
0.999964
0.999349
0.476696
0.000334319
1.1948e-05
9.84716e-06
1.44687e-05
1.41316e-05
5.58886e-06
7.83938e-07
7.88768e-07
8.66363e-07
2.50483e-06
2.74749e-06
3.89604e-06
1.26766e-05
1.44365e-05
1.12068e-05
2.81955e-07
3.06964e-07
3.18462e-07
5.45076e-07
6.13273e-07
1
1
1
1
1
1
1
1
1
1
1
1
1
1
1
1
1
1
1
1
1
1
1
1
1
1
1
1
1
1
1
1
1
1
1
1
1
1
1
1
1
1
1
1
1
1
1
1
1
1
1
1
1
1
1
1
1
1
1
1
1
1
1
1
1
1
1
1
1
1
1
1
1
1
0.999999
0.999993
0.999953
0.999345
0.59721
0.0140868
-1.46229e-05
2.99828e-06
9.74052e-06
1.43921e-05
8.42888e-06
7.83859e-07
7.8392e-07
7.83944e-07
2.22653e-06
4.64914e-06
6.64898e-06
1.32016e-05
1.35249e-05
1.09358e-05
2.51173e-07
2.67995e-07
3.08463e-07
7.08965e-07
3.81692e-08
7.92613e-09
1
1
0.946289
0.805686
0.606665
0.531012
0.534231
0.75853
0.953358
0.999998
1
1
1
1
1
1
1
1
1
1
1
1
1
1
1
1
1
1
1
1
1
1
1
1
1
1
1
1
1
1
1
1
1
1
1
1
1
1
1
1
1
1
1
1
1
1
1
1
1
1
1
1
1
1
1
1
1
1
1
1
1
1
1
0.999997
0.999973
0.999874
0.998283
0.622117
0.0248704
5.45039e-07
1.43739e-06
4.31633e-06
1.09778e-05
1.05409e-05
1.50067e-06
7.86393e-07
7.8826e-07
1.07508e-06
2.89239e-06
5.93809e-06
1.23694e-05
1.24502e-05
7.87322e-06
2.2899e-07
2.37012e-07
3.07503e-07
3.32903e-07
1.41588e-06
6.7229e-06
8.66257e-09
0.450436
0.414702
0.221319
0.092469
0.031686
0.0136579
0.0144631
0.144366
0.581897
0.928085
0.999997
1
1
1
1
1
1
1
1
1
1
1
1
1
1
1
1
1
1
1
1
1
1
1
1
1
1
1
1
1
1
1
1
1
1
1
1
1
1
1
1
1
1
1
1
1
1
1
1
1
1
1
1
1
1
1
1
1
1
1
1
1
0.999998
0.999932
0.999532
0.962109
0.554164
0.0126505
4.83001e-07
5.1784e-07
1.29451e-06
6.38584e-06
1.0281e-05
2.36146e-06
8.41878e-07
9.09204e-07
2.37563e-06
2.37673e-06
1.72355e-06
1.59426e-06
4.15694e-06
3.33582e-06
6.97046e-08
2.15317e-07
5.30108e-07
7.96495e-07
1.86519e-06
2.00554e-05
2.68006e-05
1.13416e-05
0.00426598
0.00795837
0.0116837
0.0108807
0.00944548
0.00393924
0.000190378
0.000274082
0.12814
0.512059
0.957767
0.999994
1
1
1
1
1
1
1
1
1
1
1
1
1
1
1
1
1
1
1
1
1
1
1
1
1
1
1
1
1
1
1
1
1
1
1
1
1
1
1
1
1
1
1
1
1
1
1
1
1
1
1
1
1
1
1
1
1
1
1
1
0.99995
0.988524
0.804998
0.319519
4.82736e-07
4.83076e-07
4.82817e-07
4.83269e-07
2.45238e-06
6.0259e-06
2.90398e-06
8.42212e-07
8.42575e-07
8.93196e-07
2.37612e-06
1.12766e-06
5.62251e-08
5.62251e-08
5.62031e-08
5.61922e-08
6.577e-08
7.03122e-07
1.34508e-06
1.73349e-06
1.84107e-05
2.68343e-05
2.68855e-05
2.63146e-05
0.00173686
0.00696491
0.0161873
0.0119897
0.00413805
0.000147471
0.000110482
4.93289e-05
0.000118518
0.0878557
0.476507
0.912833
0.999987
1
1
1
1
1
1
1
1
1
1
1
1
1
1
1
1
1
1
1
1
1
1
1
1
1
1
1
1
1
1
1
1
1
1
1
1
1
1
1
1
1
1
1
1
1
1
1
1
1
1
1
1
1
1
1
1
1
1
0.999998
0.885874
0.448318
0.08756
4.85272e-07
4.83728e-07
4.82825e-07
4.83237e-07
5.05336e-07
1.47884e-06
1.69162e-06
1.4455e-06
1.43259e-06
2.14219e-06
1.70752e-06
5.63295e-08
5.62549e-08
5.62257e-08
5.62253e-08
5.62275e-08
5.63122e-08
2.7341e-07
8.36354e-07
9.0064e-07
1.22476e-05
2.68264e-05
2.68855e-05
2.45631e-05
2.52832e-06
0.00165141
0.00268375
0.0129764
0.0128391
0.00447509
8.51861e-06
9.82037e-05
2.4518e-05
1.43175e-05
1.84107e-05
0.0239928
0.238418
0.701941
0.955324
1
1
1
1
1
1
1
1
1
1
1
1
1
1
1
1
1
1
1
1
1
1
1
1
1
1
1
1
1
1
1
1
1
1
1
1
1
1
1
1
1
1
1
1
1
1
1
1
1
1
1
1
1
1
1
1
1
0.935907
0.179854
4.97844e-07
4.86109e-07
4.84955e-07
4.85297e-07
5.98208e-07
4.84287e-07
4.88075e-07
4.91265e-07
1.67907e-06
4.45079e-06
4.69681e-06
4.65308e-06
1.08916e-06
5.62706e-08
5.627e-08
5.627e-08
5.62314e-08
5.62382e-08
5.63454e-08
1.78709e-07
3.14999e-07
9.73494e-06
2.67048e-05
2.68258e-05
2.26763e-05
5.32011e-07
8.42527e-09
0.00163522
0.00244385
0.0127403
0.0127108
0.000867933
3.38761e-06
5.06514e-05
1.73219e-05
4.85779e-06
1.76357e-05
1.05629e-05
1.87407e-05
0.0643584
0.288392
0.655582
0.934932
1
1
1
1
1
1
1
1
1
1
1
1
1
1
1
1
1
1
1
1
1
1
1
1
1
1
1
1
1
1
1
1
1
1
1
1
1
1
1
1
1
1
1
1
1
1
1
1
1
1
1
1
1
1
1
0.435006
6.4476e-05
6.97518e-06
5.97917e-07
4.86271e-07
1.60126e-06
3.36304e-06
1.28251e-06
4.93267e-07
2.44587e-06
4.76204e-06
4.75633e-06
4.75053e-06
2.41848e-06
5.62792e-08
5.6272e-08
5.62712e-08
5.62654e-08
5.62393e-08
5.63032e-08
5.70008e-08
4.79732e-07
1.0963e-05
2.61572e-05
2.66147e-05
1.8317e-05
9.31337e-09
9.04326e-09
8.49539e-09
0.00163084
0.00279352
0.00979205
0.00484536
4.15245e-05
1.97949e-06
1.82259e-06
1.7978e-06
2.57721e-06
1.13613e-05
3.50987e-06
1.85685e-05
1.44507e-06
1.88449e-06
0.0334456
0.296061
0.790741
0.999999
1
1
1
1
1
1
1
1
1
1
1
1
1
1
1
1
1
1
1
1
1
1
1
1
1
1
1
1
1
1
1
1
1
1
1
1
1
1
1
1
1
1
1
1
1
1
1
1
1
1
1
1
0.943261
0.20076
6.91823e-05
2.024e-06
5.46156e-07
5.03655e-07
2.92808e-06
3.36379e-06
3.36293e-06
2.44725e-06
4.41323e-06
4.76206e-06
4.76206e-06
2.19289e-06
5.62959e-08
5.6277e-08
5.62733e-08
5.62763e-08
5.62897e-08
5.6314e-08
5.70285e-08
1.09453e-07
8.4218e-06
1.99543e-05
1.95847e-05
1.08802e-05
1.69012e-08
1.19515e-08
9.31814e-09
9.31979e-09
0.0013707
0.00167048
0.0042453
0.000589365
1.13329e-06
1.82252e-06
1.79783e-06
1.78538e-06
1.65491e-06
1.52161e-06
1.48249e-06
1.89054e-06
1.38215e-06
9.22311e-05
9.30311e-05
0.000179942
0.104353
0.706754
0.999998
1
1
1
1
1
1
1
1
1
1
1
1
1
1
1
1
1
1
1
1
1
1
1
1
1
1
1
1
1
1
1
1
1
1
1
1
1
1
1
1
1
1
1
1
1
1
1
1
1
1
1
0.6467
0.0173096
3.46959e-06
3.54114e-06
3.6107e-06
1.06936e-06
1.034e-06
2.90746e-06
4.78843e-06
4.78863e-06
4.78843e-06
4.71287e-06
1.43537e-06
5.63605e-08
5.63202e-08
5.6289e-08
5.62967e-08
5.6344e-08
5.65873e-08
5.81266e-08
4.16024e-07
4.5718e-06
9.76901e-06
7.60676e-06
9.76484e-07
2.75702e-08
1.92876e-08
1.89773e-08
1.19078e-08
1.70113e-08
0.000615814
7.40268e-07
0.000359856
8.81489e-05
2.97164e-07
1.66679e-06
4.63962e-06
4.22052e-06
1.59389e-06
1.48436e-06
1.42007e-06
1.38276e-06
1.37836e-06
1.75619e-05
0.000242924
0.000275232
0.000117161
0.0149549
0.612188
0.999995
1
1
1
1
1
1
1
1
1
1
1
1
1
1
1
1
1
1
1
1
1
1
1
1
1
1
1
1
1
1
1
1
1
1
1
1
1
1
1
1
1
1
1
1
1
1
1
1
1
1
0.320412
0.000121593
5.43164e-06
6.18554e-06
9.65512e-06
2.92609e-06
1.03399e-06
1.6626e-06
4.78851e-06
4.78843e-06
4.74807e-06
1.51181e-06
5.65437e-08
5.64625e-08
5.63865e-08
5.63453e-08
5.66086e-08
2.0755e-07
1.90248e-06
6.41554e-06
8.9659e-06
8.61156e-06
1.28048e-06
3.69965e-08
3.59427e-08
3.51654e-08
2.89926e-07
2.10298e-06
3.2022e-07
2.79277e-07
1.96014e-07
3.23744e-07
1.40495e-07
1.48859e-07
1.48398e-07
2.94905e-06
2.50868e-05
2.51879e-05
2.54094e-05
1.19851e-05
1.44603e-06
1.38332e-06
1.37973e-06
1.37495e-06
0.000128761
0.000263257
0.000116167
0.000117026
0.00011697
0.423343
0.961597
1
1
1
1
1
1
1
1
1
1
1
1
1
1
1
1
1
1
1
1
1
1
1
1
1
1
1
1
1
1
1
1
1
1
1
1
1
1
1
1
1
1
1
1
1
1
1
1
0.918428
0.132577
2.74026e-05
7.52899e-07
9.90624e-06
9.90622e-06
3.39261e-06
1.034e-06
2.08184e-06
4.78843e-06
4.78502e-06
2.16739e-06
5.77291e-08
5.71523e-08
5.65877e-08
1.8098e-07
1.45146e-06
4.49932e-06
9.08444e-06
1.28112e-05
1.27419e-05
1.25279e-05
3.39569e-06
3.71883e-08
3.68137e-08
3.77473e-08
1.72733e-07
6.98846e-06
1.09154e-05
7.4488e-06
4.74095e-06
4.48619e-08
5.10234e-08
1.35913e-07
1.40525e-07
1.52309e-07
5.87269e-06
2.15956e-05
2.53872e-05
2.53947e-05
2.53872e-05
1.99515e-05
1.86146e-06
1.38329e-06
1.50359e-06
1.10411e-05
0.000104268
2.90855e-05
0.000259302
0.000372164
0.000375051
0.194618
0.629604
0.889397
0.994205
1
1
1
1
1
1
1
1
1
1
1
1
1
1
1
1
1
1
1
1
1
1
1
1
1
1
1
1
1
1
1
1
1
1
1
1
1
1
1
1
1
1
1
1
1
0.665189
0.0312025
7.68672e-07
2.6794e-07
5.87932e-06
9.02009e-06
1.175e-06
1.0436e-06
3.57947e-06
4.78499e-06
2.92768e-06
7.10651e-08
6.05029e-08
2.46567e-07
2.86126e-06
9.17491e-06
1.30955e-05
1.30948e-05
1.3092e-05
1.30781e-05
1.01369e-05
1.0177e-06
3.81251e-08
3.70412e-08
3.77569e-08
5.47103e-08
4.66748e-06
1.11106e-05
1.16151e-05
1.24252e-05
1.32416e-05
4.48136e-08
4.4844e-08
1.72713e-06
8.63639e-07
1.00991e-06
1.27079e-06
2.98795e-06
1.11499e-05
2.53872e-05
2.5299e-05
2.52108e-05
2.17063e-05
2.17428e-06
1.61249e-06
1.72283e-06
1.95838e-06
1.878e-06
2.44022e-06
9.11155e-05
0.000572809
0.000567285
0.0271203
0.137241
0.28567
0.436973
0.597016
0.786475
0.99972
1
1
1
1
1
1
1
1
1
1
1
1
1
1
1
1
1
1
1
1
1
1
1
1
1
1
1
1
1
1
1
1
1
1
1
1
1
1
1
1
1
0.471864
0.00639407
2.00771e-07
2.21998e-07
3.60987e-06
5.65194e-06
1.31841e-06
2.32636e-06
4.20513e-06
3.57536e-06
2.44618e-07
1.38549e-07
1.81763e-06
1.01932e-05
1.30912e-05
1.30919e-05
1.30946e-05
1.30915e-05
1.29953e-05
5.94622e-06
4.45012e-08
4.13097e-08
3.85251e-08
3.87933e-08
5.18068e-08
2.84583e-06
1.07714e-05
1.08418e-05
1.05999e-05
5.77476e-06
2.31962e-06
4.48137e-08
9.31848e-07
1.94625e-06
1.89302e-06
1.60851e-06
2.98665e-06
4.26486e-06
5.39488e-06
1.11179e-05
2.52108e-05
2.51872e-05
2.51876e-05
2.23064e-05
4.31614e-06
1.99538e-06
1.51155e-06
1.38399e-06
1.35065e-06
0.000126739
0.000573107
0.00056225
0.000109139
4.79817e-05
5.34375e-05
0.000502985
0.0129197
0.0720965
0.326746
0.856686
0.999996
1
1
1
1
1
0.989576
0.888055
0.958053
0.999211
0.994093
0.99654
1
1
1
1
1
1
1
1
1
1
1
1
1
1
1
1
1
1
1
1
1
1
1
1
1
1
1
1
0.232792
2.87491e-06
2.19695e-07
2.25696e-07
3.21101e-07
3.73016e-06
4.14043e-06
4.12131e-06
2.30649e-06
5.89033e-07
5.54395e-07
4.1585e-06
1.2577e-05
1.30898e-05
1.30913e-05
1.30912e-05
1.30892e-05
9.71878e-06
1.69719e-06
5.13779e-08
4.45492e-08
4.45373e-08
1.52233e-07
1.01807e-06
4.24844e-06
9.95954e-06
1.07262e-05
1.01876e-05
2.95682e-06
2.01365e-08
1.94335e-08
4.50714e-08
2.55155e-06
1.9889e-06
4.47957e-07
4.45144e-07
9.31084e-06
9.7493e-06
1.01168e-05
1.09936e-05
1.78985e-05
2.52401e-05
2.523e-05
2.53e-05
1.11418e-05
1.50183e-06
1.38211e-06
1.34956e-06
1.34374e-06
3.99627e-05
0.000544126
0.000629703
0.000113905
1.69965e-05
3.08264e-06
2.431e-06
5.44907e-06
5.96012e-05
0.000434297
0.188915
0.805882
0.999964
1
1
1
0.999994
0.94133
0.871251
0.933089
0.993442
0.990676
0.993051
1
1
1
1
1
1
1
1
1
1
1
1
1
1
1
1
1
1
1
1
1
1
1
1
1
1
1
0.967281
0.111672
3.80066e-07
2.61759e-07
2.25351e-07
2.62355e-06
4.15089e-06
4.15957e-06
2.96998e-06
6.60847e-07
6.35808e-07
4.71897e-06
1.30797e-05
1.30846e-05
1.30893e-05
1.30688e-05
7.01399e-06
9.68767e-07
5.50812e-08
5.53123e-08
5.65407e-08
1.95499e-07
2.59329e-06
6.4769e-06
9.30992e-06
9.78919e-06
9.91726e-06
7.90699e-06
5.18728e-07
2.01763e-08
1.95046e-08
1.8882e-08
4.50749e-08
2.24031e-06
2.91473e-07
3.07695e-07
5.74502e-08
0.000922054
0.00077459
0.000164445
1.11406e-05
8.24412e-06
1.15097e-05
1.39246e-05
1.19023e-05
4.23236e-06
1.373e-06
1.34956e-06
1.34374e-06
1.3437e-06
1.3437e-06
0.000470087
0.000629703
0.000339624
6.29843e-06
1.23465e-06
5.99086e-07
8.83095e-07
3.19983e-06
2.64911e-05
0.00013935
0.154141
0.684692
0.97457
1
0.999993
0.985521
0.91909
0.948078
0.99822
0.995615
0.994252
0.996536
0.998091
0.997703
0.999177
1
1
1
1
1
1
1
1
1
1
1
1
1
1
1
1
1
1
1
1
1
1
1
1
0.801662
0.0457932
3.08772e-07
4.33728e-07
1.76098e-06
4.16351e-06
4.15726e-06
3.31559e-06
6.85608e-07
6.94098e-07
3.56743e-06
1.29038e-05
1.30597e-05
1.30797e-05
6.7855e-06
7.3189e-08
5.34899e-08
5.35202e-08
5.38969e-08
5.71404e-08
1.04532e-06
6.44392e-06
9.77143e-06
9.78939e-06
9.80515e-06
9.81957e-06
5.979e-06
2.16169e-08
2.07008e-08
1.98767e-08
1.93819e-08
1.8307e-08
4.54592e-08
5.28899e-08
1.07266e-07
1.71302e-07
0.000258598
0.00254825
0.00255399
0.000883887
9.47844e-06
2.92061e-06
1.80998e-06
1.32926e-06
1.21198e-06
1.18507e-06
1.41318e-06
1.36887e-06
2.41987e-06
1.34379e-06
1.90082e-06
0.000311069
0.000629703
0.000465887
1.21979e-05
5.99039e-07
5.31574e-07
7.54535e-07
7.02052e-07
3.61655e-06
2.64986e-05
0.000139389
0.0620764
0.497674
0.812105
0.999599
0.98203
0.9186
0.999981
0.999988
0.999974
0.999691
0.998021
0.997084
0.997084
0.997084
0.997363
0.999709
0.999975
1
1
1
1
1
1
1
1
1
1
1
1
1
1
1
1
1
1
1
1
1
0.564281
0.00505421
1.15416e-07
3.72859e-07
3.97856e-06
4.14706e-06
3.36769e-06
6.34999e-07
6.55248e-07
1.56713e-06
1.11457e-05
1.28808e-05
1.23435e-05
2.57559e-06
5.32601e-08
5.32675e-08
5.33012e-08
5.37843e-08
1.34199e-07
2.89707e-06
8.76254e-06
9.63905e-06
9.7211e-06
9.77015e-06
9.78944e-06
4.58229e-06
2.54201e-08
2.28433e-08
2.16825e-08
2.09169e-08
2.01919e-08
1.85717e-08
5.27113e-08
9.15144e-08
1.71365e-07
4.07096e-07
0.00207697
0.00255509
0.00255209
0.00158305
2.5736e-05
2.14575e-06
1.30841e-06
1.21416e-06
1.18631e-06
1.17719e-06
2.31599e-06
4.31758e-05
7.18958e-05
1.35689e-05
2.28454e-06
0.000294291
0.000622885
0.000301813
2.16141e-06
5.31566e-07
5.22404e-07
5.18661e-07
5.25877e-07
6.49919e-07
0.00025587
0.00248375
0.00200991
0.0377454
0.474258
0.980337
0.979319
0.930386
0.999988
0.99999
0.99999
0.999968
0.999843
0.99964
0.999541
0.999292
0.99901
0.998865
0.998965
0.999949
0.999996
1
1
1
1
1
1
1
1
1
1
1
1
1
1
1
1
1
1
1
0.34836
1.00614e-07
1.01372e-07
3.64308e-07
1.8353e-06
2.24021e-06
6.25248e-07
6.23123e-07
7.96983e-07
9.45118e-06
1.23428e-05
1.15109e-05
1.39089e-06
5.32873e-08
5.3265e-08
5.32938e-08
5.35929e-08
5.77512e-08
3.47847e-06
9.37437e-06
9.45867e-06
9.56747e-06
9.61954e-06
8.88736e-06
2.7425e-06
3.32099e-08
2.75879e-08
2.54732e-08
2.42545e-08
2.24845e-08
2.14299e-08
1.99863e-08
1.5982e-07
3.6053e-07
4.06853e-07
1.69468e-06
0.00247894
0.00253928
0.00255209
0.00108957
1.95108e-05
2.08954e-06
1.70405e-06
1.18632e-06
1.17937e-06
1.17885e-06
1.17875e-06
7.03587e-05
7.18958e-05
4.20437e-05
3.34864e-06
0.000545677
0.00055384
0.000129252
6.75562e-07
5.22489e-07
5.18651e-07
5.18511e-07
9.06655e-07
4.41463e-06
0.000438261
0.000648083
0.000504192
0.00213263
0.152411
0.665682
0.827711
0.84338
0.979916
0.999995
0.999996
0.999996
0.999996
0.999996
0.999996
0.999996
0.999994
0.999562
0.999144
0.999146
0.999213
0.999743
0.999945
1
1
1
1
1
1
1
1
1
1
1
1
1
1
1
1
0.999486
0.145983
1.00047e-07
1.00684e-07
1.55011e-07
2.00962e-07
2.67566e-07
3.25067e-07
1.29689e-06
9.64633e-06
1.09922e-05
1.02953e-05
7.97119e-07
5.34251e-08
5.3363e-08
5.33086e-08
5.34482e-08
5.39713e-08
1.33927e-07
5.07946e-06
8.367e-06
7.10109e-06
4.1175e-06
2.87365e-06
8.77885e-07
4.44831e-08
3.80185e-08
3.32561e-08
1.56677e-07
1.92463e-07
3.05836e-08
2.87617e-08
2.91223e-08
1.45992e-06
2.07045e-06
1.63524e-06
1.17125e-05
0.00235771
0.00243434
0.000313342
7.74274e-05
1.24625e-05
1.52304e-06
5.86176e-06
1.19579e-06
1.17893e-06
1.17878e-06
1.17768e-06
4.0318e-05
7.18957e-05
7.13192e-05
7.60422e-06
0.000385145
0.00109903
0.000259678
7.91176e-07
5.2442e-07
5.18555e-07
5.18647e-07
1.18791e-06
2.71928e-05
0.000172236
1.68904e-05
8.95399e-05
0.00170904
0.014125
0.0790353
0.200009
0.372658
0.796668
0.99871
0.999995
0.999996
0.999996
0.999996
0.999996
0.999997
0.999997
0.999978
0.999528
0.999154
0.99916
0.999167
0.999372
1
1
1
1
1
1
1
1
1
1
1
1
1
1
1
1
0.857536
0.0420407
9.99462e-08
1.002e-07
1.00969e-07
1.03586e-07
1.10726e-07
9.27081e-07
8.64845e-06
1.10296e-05
1.08237e-05
1.49673e-06
5.81326e-08
5.59624e-08
9.62616e-08
9.66191e-08
5.40561e-08
1.11088e-07
6.5869e-07
5.98348e-07
6.04957e-08
6.04101e-08
5.91075e-08
5.78638e-08
5.45176e-08
4.98539e-08
4.75355e-08
1.51004e-06
6.11869e-06
6.29438e-06
2.28691e-06
1.27125e-06
1.66258e-06
1.3387e-05
1.28108e-05
8.30971e-06
5.09367e-05
0.00182052
0.000112893
4.69574e-07
6.28382e-07
1.67622e-06
9.47067e-07
9.7688e-07
4.81108e-05
0.000102301
3.37175e-05
1.18858e-06
2.8053e-06
5.86628e-05
3.77858e-05
7.21505e-06
8.67421e-05
0.00195185
0.000800374
3.45781e-05
8.00788e-07
1.47327e-06
7.38856e-07
1.93231e-06
1.79143e-05
2.74996e-06
2.82889e-06
1.42818e-05
0.000242679
0.0006231
0.00126701
0.00146225
0.00271313
0.174399
0.700029
0.978507
0.999977
0.99999
0.999994
0.999997
0.999998
0.999998
0.999999
1
0.999755
0.999323
0.999275
0.999721
0.99999
1
1
1
1
1
1
1
1
1
1
1
1
1
1
0.999999
0.602595
9.95337e-08
9.97269e-08
9.99006e-08
1.00265e-07
1.01442e-07
1.11086e-07
3.10731e-06
9.02076e-06
9.03256e-06
1.42328e-06
5.91352e-08
5.86365e-08
5.81503e-08
1.65013e-07
3.95416e-07
5.70128e-07
4.87771e-07
8.64709e-08
6.32942e-08
6.17503e-08
6.05101e-08
6.03981e-08
5.91386e-08
5.79312e-08
5.76719e-08
1.18651e-06
8.1382e-06
8.9237e-06
8.92384e-06
8.93738e-06
8.91539e-06
8.89009e-06
9.78183e-05
7.00607e-05
4.36697e-05
0.000221615
0.000264237
4.69616e-07
4.64461e-07
7.52745e-07
8.20928e-07
8.70983e-07
9.32134e-07
1.38572e-05
0.000319086
0.000335795
7.26513e-05
5.71533e-06
1.00796e-05
7.20421e-06
6.79164e-06
4.50378e-05
0.00212282
0.00219392
0.000248612
1.97596e-06
9.12967e-06
9.69626e-07
1.10738e-06
1.34541e-06
6.20237e-07
4.81692e-07
1.80459e-06
8.56512e-06
5.80837e-05
0.000132799
0.000121718
3.75717e-05
2.39952e-05
0.0469062
0.433317
0.840496
0.978337
0.999883
0.999963
0.999992
1
1
1
1
1
1
1
1
0.999998
1
1
1
1
1
1
1
1
1
1
1
1
1
0.999991
0.327379
9.9757e-08
9.98567e-08
1.00134e-07
1.01288e-07
2.10813e-07
4.0646e-07
1.64021e-06
2.1502e-06
5.2099e-07
8.6382e-08
6.98404e-08
2.87429e-07
2.65534e-06
4.84638e-06
5.64365e-06
2.76737e-06
6.63897e-08
6.56962e-08
6.45059e-08
6.84095e-08
6.17739e-08
6.34325e-08
1.8258e-07
1.80202e-07
9.97671e-07
6.95038e-06
8.91421e-06
8.92029e-06
8.92278e-06
8.92763e-06
8.91367e-06
8.90147e-06
0.000578242
0.000348227
0.000203091
-1.25786e-05
2.60296e-06
4.38443e-06
4.59378e-07
6.1918e-07
1.75029e-06
1.29384e-06
1.00094e-06
5.62862e-07
0.00024599
0.000340193
0.000344565
5.27691e-05
7.29282e-06
6.79609e-06
6.75736e-06
0.00036089
0.00217343
0.00218166
0.000139629
3.4999e-05
5.18756e-05
1.00648e-06
2.37757e-07
2.82859e-07
1.9993e-07
1.03755e-07
2.64574e-07
9.97887e-07
4.16375e-06
1.15312e-05
8.11889e-06
1.21164e-06
4.0936e-07
1.3551e-06
1.54036e-05
0.0452032
0.399582
0.762787
0.965968
0.999811
0.999986
0.999999
1
1
1
1
1
1
1
1
1
1
1
1
1
1
1
1
1
1
1
1
0.941355
0.124002
2.13602e-07
1.00162e-07
4.18078e-06
2.89056e-06