/*--------------------------------*- C++ -*----------------------------------*\
| =========                 |                                                 |
| \\      /  F ield         | OpenFOAM: The Open Source CFD Toolbox           |
|  \\    /   O peration     | Version:  2.4.0                                 |
|   \\  /    A nd           | Web:      www.OpenFOAM.org                      |
|    \\/     M anipulation  |                                                 |
\*---------------------------------------------------------------------------*/
FoamFile
{
    version     2.0;
    format      ascii;
    class       volScalarField;
    location    "0.193";
    object      alpha.water;
}
// * * * * * * * * * * * * * * * * * * * * * * * * * * * * * * * * * * * * * //

dimensions      [0 0 0 0 0 0 0];

internalField   nonuniform List<scalar> 
14400
(
1
1
1
1
1
1
1
1
1
1
1
1
1
1
1
1
1
1
1
1
1
1
1
1
1
1
1
1
1
1
1
1
1
1
1
1
1
1
1
1
1
1
1
1
1
1
1
1
1
1
1
1
1
1
1
1
1
1
1
1
1
1
1
1
1
1
1
1
1
1
1
1
1
1
1
1
1
1
1
1
1
1
1
1
1
1
1
1
1
1
1
1
1
1
1
1
1
1
1
1
1
1
1
1
1
1
1
1
1
1
1
1
1
1
1
1
1
1
1
1
1
1
1
1
1
1
1
1
1
1
1
1
1
1
1
1
1
1
1
1
1
1
1
1
1
1
1
1
1
1
1
1
1
1
1
1
1
1
1
1
1
1
1
1
1
1
1
1
1
1
1
1
1
1
1
1
1
1
1
1
1
1
1
1
1
1
1
1
1
1
1
1
1
1
1
1
1
1
1
1
1
1
1
1
1
1
1
1
1
1
1
1
1
1
1
1
1
1
1
1
1
1
1
1
1
1
1
1
1
1
1
1
1
1
1
1
1
1
1
1
1
1
1
1
1
1
1
1
1
1
1
1
1
1
1
1
1
1
1
1
1
1
1
1
1
1
1
1
1
1
1
1
1
1
1
1
1
1
1
1
1
1
1
1
1
1
1
1
1
1
1
1
1
1
1
1
1
1
1
1
1
1
1
1
1
1
1
1
1
1
1
1
1
1
1
1
1
1
1
1
1
1
1
1
1
1
1
1
1
1
1
1
1
1
1
1
1
1
1
1
1
1
1
1
1
1
1
1
1
1
1
1
1
1
1
1
1
1
1
1
1
1
1
1
1
1
1
1
1
1
1
1
1
1
1
1
1
1
1
1
1
1
1
1
1
1
1
1
1
1
1
1
1
1
1
1
1
1
1
1
1
1
1
1
1
1
1
1
1
1
1
1
1
1
1
1
1
1
1
1
1
1
1
1
1
1
1
1
1
1
1
1
1
1
1
1
1
1
1
1
1
1
1
1
1
1
1
1
1
1
1
1
1
1
1
1
1
1
1
1
1
1
1
1
1
1
1
1
1
1
1
1
1
1
1
1
1
1
1
1
1
1
1
1
1
1
1
1
1
1
1
1
1
1
1
1
1
1
1
1
1
1
1
1
1
1
1
1
1
1
1
1
1
1
1
1
1
1
1
1
1
1
1
1
1
1
1
1
1
1
1
1
1
1
1
1
1
1
1
1
1
1
1
0.999242
1
1
1
1
1
1
1
1
1
1
1
1
1
1
1
1
1
1
1
1
1
1
1
1
1
1
1
1
0.999996
0.99174
1
1
1
1
1
1
1
1
1
1
1
1
1
1
1
1
1
1
1
1
1
1
1
1
1
1
1
0.998774
1
0.998175
1
1
1
1
1
1
1
1
1
1
1
1
1
1
0.999963
0.999994
1
1
1
1
1
1
1
1
1
1
1
0.98658
0.999999
0.990489
1
1
1
1
1
1
1
1
1
1
1
1
1
1
0.99996
0.999999
1
1
1
1
1
1
1
1
1
1
1
0.986581
0.999988
0.972628
1
1
1
1
1
0.999999
1
1
1
1
1
1
1
0.99996
0.999972
1
0.999968
1
1
1
1
1
1
1
1
1
1
0.995857
0.999607
0.999994
0.999989
1
0.99909
1
1
0.999999
1
1
1
0.999991
0.999945
1
1
0.999998
0.999998
0.999999
0.999256
0.999807
1
1
1
1
1
1
1
1
0.999977
0.998565
0.997882
0.999965
0.999996
0.999875
1
0.999996
1
0.999999
1
1
0.999987
0.999849
0.999447
1
1
0.999868
0.999194
0.99995
0.999961
0.999309
1
1
1
1
1
1
1
1
0.99988
0.999148
0.995242
0.336519
0.471783
0.997101
0.966583
0.999957
0.99998
1
1
0.999988
0.999374
0.999373
0.999993
0.999967
1
0.999979
0.998963
0.999045
0.999985
0.999772
0.999973
1
1
1
1
1
1
1
0.999861
0.999141
0.460703
0.0245855
0.230205
0.97327
0.983446
0.999998
0.999973
1
1
0.999924
0.999963
0.999435
0.999989
0.999966
1
0.99915
0.999632
0.998964
0.999411
0.99999
0.999954
1
1
1
1
1
1
1
0.999807
0.838858
0.00765367
0.000873141
0.0211609
0.974428
0.998682
0.999997
0.999974
0.999985
0.999999
0.999998
0.997914
0.997626
0.999984
0.999994
1
0.999393
0.999774
0.999998
0.999066
0.999901
1
0.999999
1
1
1
1
1
1
0.981787
0.0380673
0.00156523
0.000666591
0.000150806
0.745184
0.99111
1
1
1
0.999919
0.999965
0.998268
0.998573
0.999853
0.972472
0.915835
0.977388
0.999998
0.999998
0.999998
1
1
1
1
1
1
1
1
1
0.359258
9.78891e-06
1.40294e-05
0.00165413
2.19969e-05
0.204451
0.928804
1
0.999997
0.999999
0.998816
0.998822
0.999639
0.41535
0.0214948
4.16214e-09
4.6408e-08
9.07866e-08
0.0379824
0.22488
0.599948
0.855034
0.97542
1
1
1
1
1
1
1
1
1
1
1
1
1
1
1
1
1
1
1
1
1
1
1
1
1
1
1
1
1
1
1
1
1
1
1
1
1
1
1
1
1
1
1
1
1
1
1
1
1
1
1
1
1
1
1
1
1
1
1
1
1
1
1
1
1
1
1
1
1
1
1
1
1
1
1
1
1
1
1
1
1
1
1
1
1
1
1
1
1
1
1
1
1
1
1
1
1
1
1
1
1
1
1
1
1
1
1
1
1
1
1
1
1
1
1
1
1
1
1
1
1
1
1
1
1
1
1
1
1
1
1
1
1
1
1
1
1
1
1
1
1
1
1
1
1
1
1
1
1
1
1
1
1
1
1
1
1
1
1
1
1
1
1
1
1
1
1
1
1
1
1
1
1
1
1
1
1
1
1
1
1
1
1
1
1
1
1
1
1
1
1
1
1
1
1
1
1
1
1
1
1
1
1
1
1
1
1
1
1
1
1
1
1
1
1
1
1
1
1
1
1
1
1
1
1
1
1
1
1
1
1
1
1
1
1
1
1
1
1
1
1
1
1
1
1
1
1
1
1
1
1
1
1
1
1
1
1
1
1
1
1
1
1
1
1
1
1
1
1
1
1
1
1
1
1
1
1
1
1
1
1
1
1
1
1
1
1
1
1
1
1
1
1
1
1
1
1
1
1
1
1
1
1
1
1
1
1
1
1
1
1
1
1
1
1
1
1
1
1
1
1
1
1
1
1
1
1
1
1
1
1
1
1
1
1
1
1
1
1
1
1
1
1
1
1
1
1
1
1
1
1
1
1
1
1
1
1
1
1
1
1
1
1
1
1
1
1
1
1
1
1
1
1
1
1
1
1
1
1
1
1
1
1
1
1
1
1
1
1
1
1
1
1
1
1
1
1
1
1
1
1
1
1
1
1
1
1
1
1
1
1
1
1
1
1
1
1
1
1
1
1
1
1
1
1
1
1
1
1
1
1
1
1
1
1
1
1
1
1
1
1
1
1
1
1
1
1
1
1
1
1
1
1
1
1
1
1
1
1
1
1
1
1
1
1
1
1
1
1
1
1
1
1
1
1
1
1
1
1
1
1
1
1
1
1
1
1
1
1
1
1
1
1
1
1
1
1
1
1
1
1
1
1
1
1
1
1
1
1
1
1
1
1
1
1
1
1
1
1
1
1
1
1
1
1
1
1
1
1
1
1
1
1
1
1
1
1
1
1
1
1
1
1
1
1
1
1
1
1
1
1
1
1
1
1
1
1
1
1
1
1
1
1
1
1
1
1
1
1
1
1
1
1
1
1
1
1
1
1
1
1
1
1
1
1
1
1
1
1
1
1
1
1
1
1
1
1
1
1
1
1
1
1
1
1
1
1
1
1
1
1
1
1
1
1
1
1
1
1
1
1
1
1
1
1
1
1
1
1
1
1
1
1
1
1
1
1
1
1
1
1
1
1
1
1
1
1
1
0.999998
0.99995
1
1
1
1
1
1
1
1
0.999999
1
1
1
1
1
1
1
1
1
1
1
1
1
1
1
1
1
1
1
1
0.999317
0.99934
1
1
1
1
1
1
1
0.999999
1
1
1
1
1
1
1
1
1
1
1
1
1
1
1
1
1
1
1
1
0.999341
0.999995
1
1
0.999856
0.999991
1
1
1
0.999999
1
1
1
1
1
1
1
1
1
1
1
1
1
1
1
1
1
0.999999
1
0.99986
0.999813
0.999442
1
0.999974
0.999985
0.99988
1
1
0.999999
1
1
1
0.992909
0.995586
0.837699
1
1
1
1
1
1
1
1
1
1
1
1
1
1
0.999105
0.999608
0.999379
1
0.999916
0.999994
0.999634
0.999996
1
1
0.999999
1
0.999794
0.99904
0.91266
0.397264
0.925341
1
1
1
1
1
1
1
1
1
1
0.99999
0.999976
0.99999
0.999105
0.999997
0.99993
1
0.999996
0.999968
0.999634
0.999713
1
1
1
0.99993
0.999695
0.999989
0.756277
0.303777
0.000451989
0.99999
1
1
1
1
1
1
1
1
1
0.999997
0.999997
0.99985
0.999106
0.999996
0.999969
0.999899
0.999996
0.999927
0.999634
0.999984
0.999985
1
1
0.999876
1
0.981991
0.230364
0.000114628
1.04306e-05
0.0681423
0.999999
1
1
1
1
1
1
1
1
1
1
1
0.999998
0.999998
0.999998
0.973149
0.982873
0.999894
0.999859
0.999795
0.99991
0.999983
1
1
1
0.634572
0.00448821
1.80925e-06
1.33512e-07
1.88579e-05
0.848696
1
1
1
1
1
1
1
0.988217
0.922011
0.809255
0.622102
0.319839
0.132599
0.00905727
3.23375e-05
5.84677e-06
0.290084
0.99945
0.999971
0.999872
0.999836
1
1
1
0.0635535
1.57202e-05
0.000259157
5.10233e-10
7.51551e-08
0.00219107
1.34389e-07
1.75144e-07
2.11237e-05
0.0036356
8.01295e-06
0.00183777
0.16217
1
0.999999
0.999915
0.99994
0.999802
0.0156095
8.07295e-07
3.5966e-09
2.45541e-09
-7.58547e-11
0.000184987
0.00227331
0.00156298
0.000558238
0.00052679
0.000684568
0.0236815
0.0989532
0.180762
0.248515
0.291957
0.311113
0.310885
1.16873e-06
1.81142e-05
3.85707e-05
0.00270458
8.72716e-06
1.28353e-05
0.000350698
0.766919
0.999999
0.999978
0.999949
0.159992
2.18372e-05
1.90023e-07
3.19305e-07
5.92833e-08
4.76834e-09
4.44927e-06
0.00421838
0.000608582
3.09481e-05
7.5463e-06
4.06159e-06
1.22395e-05
1.7982e-05
2.46517e-05
3.13535e-05
3.89737e-05
4.63727e-05
5.06559e-05
7.08411e-10
2.41139e-05
6.1425e-05
0.0030355
8.89509e-06
1.13181e-05
3.51884e-05
0.0331391
0.999941
0.999927
0.84605
4.7133e-05
1.66088e-06
5.2383e-05
5.17453e-05
0.000230455
2.22262e-08
4.90872e-07
0.00412989
0.000410381
1.98087e-06
9.09261e-08
6.81327e-09
4.74643e-09
6.63012e-09
7.93679e-09
1.00193e-08
1.40402e-08
2.2101e-08
3.03452e-08
2.46948e-11
3.63298e-06
4.17458e-06
0.00155357
7.31444e-05
9.70176e-05
9.88566e-05
0.000101402
0.0565778
0.404003
8.59315e-06
2.31679e-06
2.06422e-06
0.000360116
0.000366103
0.000366103
6.10514e-07
3.37618e-06
0.00408999
5.10813e-06
4.97479e-08
7.03829e-09
4.45254e-09
4.5006e-09
4.73328e-09
4.89534e-09
5.31968e-09
6.22324e-09
7.49999e-09
9.13896e-09
1.84298e-21
7.00362e-05
4.17383e-06
2.4861e-06
3.67215e-06
7.95306e-07
7.94855e-07
0.00019335
1.30423e-05
1.73225e-05
1.58304e-05
4.54165e-05
1.41058e-06
0.000365745
0.00036611
0.000164557
1.77935e-05
1.60642e-06
0.0040932
4.77763e-05
5.47072e-09
4.1454e-09
4.12164e-09
4.09826e-09
4.13031e-09
4.20862e-09
4.51583e-09
5.32317e-09
6.56982e-09
8.24385e-09
8.10357e-19
5.42124e-06
4.18507e-06
6.47408e-06
1.46561e-05
0.000186449
7.91262e-07
0.000193385
0.000163248
4.97936e-05
4.46691e-05
2.55337e-05
8.82027e-07
0.000362542
0.000135278
7.81012e-05
7.86981e-05
2.03723e-06
0.000103647
7.5176e-05
4.01576e-09
3.70621e-09
3.65322e-09
3.63652e-09
3.64269e-09
3.63575e-09
3.79947e-09
4.45295e-09
5.81037e-09
7.88917e-09
1.0058e-18
1.1054e-05
1.37074e-05
8.17349e-05
1.4351e-05
0.000618176
1.49128e-06
0.000163146
0.000115876
1.10263e-05
1.28899e-05
8.99197e-07
8.79045e-07
0.000355079
7.15559e-07
4.13266e-06
5.47091e-05
1.75268e-06
0.000646608
5.20808e-05
5.27389e-08
6.56573e-08
3.47564e-09
3.55075e-09
3.58321e-09
3.31498e-09
3.36927e-09
3.9708e-09
5.44885e-09
7.79007e-09
8.81358e-18
3.17393e-06
5.91745e-06
1.41134e-05
0.000508278
0.000626595
0.000355451
3.04068e-05
1.57755e-06
2.38712e-05
3.07535e-05
5.5831e-06
8.85084e-07
8.85087e-07
2.75504e-05
3.0241e-07
1.51431e-05
1.43299e-06
0.000610598
4.14599e-08
1.15612e-06
7.73006e-08
1.27077e-06
5.44103e-09
3.26135e-09
3.15214e-09
3.20114e-09
3.74758e-09
5.19844e-09
7.12282e-09
1.42572e-17
2.44824e-05
6.06643e-06
3.36149e-05
1.2821e-05
0.000386735
2.32875e-05
2.67144e-05
9.57681e-07
3.37066e-07
9.27486e-07
1.56816e-05
1.78727e-05
9.37579e-07
2.72183e-05
1.71062e-06
2.25661e-05
1.46752e-06
0.000566241
5.40713e-08
1.08821e-07
2.31466e-06
1.99748e-07
1.81169e-05
5.99988e-06
3.09074e-09
3.36158e-09
3.76074e-09
4.9813e-09
6.52741e-09
7.09015e-17
5.47233e-07
5.49386e-05
4.27372e-05
1.11863e-05
0.000323026
0.000200998
1.24736e-06
3.83823e-07
2.00595e-05
1.82989e-06
7.55019e-06
2.45657e-05
1.81418e-05
2.20588e-05
2.69312e-05
2.31132e-06
9.74958e-07
0.000116208
1.83513e-07
3.99482e-08
1.15696e-05
1.32624e-07
1.43662e-05
2.85156e-05
1.33911e-05
6.20423e-09
4.12316e-09
4.91987e-09
6.1531e-09
1.81078e-16
3.69848e-06
2.30162e-07
6.24219e-06
1.58858e-05
0.000475121
0.000143865
3.58119e-05
2.79289e-07
3.1736e-05
3.09038e-05
6.91312e-06
2.45732e-05
2.029e-05
6.4777e-07
3.40741e-05
3.42248e-08
1.18861e-06
2.58899e-06
1.96129e-05
4.11316e-09
1.14845e-05
5.2379e-07
7.29168e-08
2.85261e-05
2.83737e-05
5.10451e-06
5.62955e-09
5.14962e-09
5.87682e-09
4.34604e-16
4.1657e-07
1.45608e-08
9.74687e-05
1.98068e-05
0.000122197
1.5106e-05
3.51708e-05
4.08653e-07
3.14124e-05
3.10268e-05
3.72436e-06
1.71627e-05
1.41219e-06
3.99806e-07
0.000146552
7.95133e-09
7.51732e-09
1.64346e-05
1.22631e-05
3.52398e-09
2.8771e-09
5.18867e-06
6.77164e-08
1.71937e-06
2.2713e-05
4.38551e-06
6.84747e-09
5.6562e-09
5.74516e-09
9.15238e-16
1.81027e-11
0.000328658
0.000153545
0.000152454
0.000172878
8.54884e-05
7.48945e-06
2.93989e-06
2.74897e-07
2.74896e-07
5.08727e-06
1.57731e-05
1.11209e-06
3.99746e-07
0.000146552
3.52097e-06
7.4023e-09
2.79292e-05
2.75045e-06
3.15638e-09
2.83649e-09
5.09478e-06
5.29487e-06
1.49282e-06
1.01097e-07
1.1603e-08
6.0576e-09
5.70963e-09
5.53739e-09
1.52346e-15
2.44591e-12
0.00036146
6.83806e-07
0.000134517
0.000103386
7.92372e-05
6.30168e-07
6.86412e-06
2.7513e-07
2.4291e-06
1.95937e-06
2.09284e-06
4.59108e-07
8.55531e-06
9.59377e-06
1.47986e-05
3.80146e-05
4.436e-05
1.73736e-05
3.08802e-09
2.58391e-09
2.80688e-09
2.57914e-05
3.47757e-05
3.47077e-05
3.35208e-05
1.71196e-08
4.92788e-09
4.4107e-09
1.72958e-15
1.70895e-13
0.000361476
2.36868e-06
2.1443e-08
3.4609e-05
2.17692e-05
5.9862e-07
5.71927e-07
1.52162e-06
9.38249e-09
2.37507e-06
3.02025e-06
7.18218e-06
1.91684e-08
2.18213e-05
1.0623e-05
0.000210261
0.000172496
3.72153e-05
1.42916e-08
2.64334e-09
2.94994e-09
6.57022e-09
2.25457e-06
3.32137e-06
1.43364e-06
2.04911e-06
9.92201e-09
9.70053e-07
1.11965e-15
2.46682e-11
0.00036148
3.55348e-06
6.6206e-11
4.45701e-05
5.15674e-07
7.66055e-06
9.89308e-07
7.56447e-06
4.04521e-09
8.50793e-06
6.5885e-06
1.52531e-08
1.49555e-08
1.24828e-05
7.80765e-08
0.00241701
0.00241996
0.000124354
8.90699e-06
2.67495e-09
2.49271e-09
2.79926e-09
3.18038e-09
3.07701e-09
2.89977e-09
2.82496e-09
6.53489e-09
4.4022e-08
3.60148e-16
3.07508e-11
0.000362585
4.14322e-11
2.1278e-11
2.81495e-06
3.89643e-08
7.67105e-06
1.80445e-05
7.20522e-08
2.12048e-09
3.01673e-10
3.01619e-10
3.59354e-05
1.46495e-06
6.30226e-08
3.90832e-08
0.0024115
0.0024143
0.00118002
1.24664e-05
2.96436e-09
2.56334e-09
2.60853e-09
2.80429e-09
2.65959e-09
2.33818e-09
2.16616e-09
2.06369e-09
2.26712e-09
5.64916e-17
8.31736e-07
0.000358805
3.88564e-11
5.26409e-11
7.08801e-10
3.34537e-05
5.85603e-06
1.90704e-05
1.46966e-07
2.9544e-10
3.05897e-10
3.26326e-10
5.34047e-05
5.94334e-05
4.33409e-08
3.90741e-08
0.00220206
0.00241853
0.000578219
8.3467e-08
2.90489e-09
2.6037e-09
2.58926e-09
2.5911e-09
7.21162e-09
4.87676e-09
3.02585e-09
2.93304e-09
2.7935e-09
4.95072e-18
3.23371e-12
3.02676e-11
2.17821e-10
1.02694e-10
9.18271e-11
5.57468e-05
1.9601e-05
1.90739e-05
3.41799e-07
1.9544e-10
2.47102e-10
4.52119e-08
1.03507e-08
7.25468e-05
1.68526e-05
4.03672e-08
7.06784e-08
0.000925868
4.9921e-05
0.000114508
3.02571e-09
2.60151e-09
0.000323167
0.000323913
3.65917e-08
8.84653e-09
5.81805e-06
7.52734e-09
1.43091e-05
3.28252e-19
2.6903e-08
6.87465e-11
1.56999e-10
1.27458e-10
9.18234e-11
5.49432e-05
3.54562e-06
2.04216e-06
8.83746e-06
1.73722e-10
2.14184e-10
1.00862e-08
1.74495e-08
3.58423e-09
9.10994e-06
7.99806e-08
1.91026e-05
0.0001034
1.13774e-05
0.000110194
3.20317e-08
0.000322954
0.00032743
0.000219213
3.02786e-07
0.00027755
0.00130362
0.00130366
0.00130365
1.35932e-20
7.29709e-11
0.000261012
4.61311e-11
1.387e-10
9.57711e-11
1.31846e-05
4.27262e-05
3.86112e-05
3.23573e-09
3.78008e-10
1.9235e-10
2.88753e-10
2.94687e-10
5.24086e-07
1.14558e-07
1.19892e-07
4.39079e-05
2.15662e-05
1.63439e-05
2.22584e-07
1.10121e-07
0.000258184
0.000319518
1.70437e-05
3.53637e-07
2.9693e-06
0.000636205
0.000364384
0.000165362
2.88495e-22
1.23542e-06
0.000513766
1.89077e-11
2.43195e-10
1.29904e-07
5.05467e-05
9.80342e-06
0.000211402
3.23573e-09
3.87025e-09
1.9614e-10
2.37753e-09
3.39913e-09
1.67977e-06
2.67e-06
9.39865e-07
7.91119e-06
1.07313e-05
2.4878e-06
1.76864e-07
1.08939e-07
1.24428e-07
3.04507e-06
0.000112413
8.69628e-08
2.24968e-08
5.8803e-09
2.13971e-09
1.83296e-09
2.59716e-24
6.11099e-13
0.000514066
1.26815e-11
2.17729e-10
4.75411e-07
5.49641e-05
9.79784e-06
0.000211296
1.85871e-08
3.38391e-09
3.56673e-10
3.8929e-05
3.02751e-05
2.5784e-08
8.55977e-07
2.66918e-06
3.20418e-07
9.84576e-05
1.36341e-06
1.21383e-07
1.08937e-07
7.00496e-06
3.77535e-06
0.000280335
6.56284e-05
6.51009e-09
5.8557e-09
5.6955e-09
5.4293e-08
8.77768e-27
5.87458e-07
0.000513711
7.03386e-12
1.0873e-10
8.06878e-07
5.97817e-05
5.96863e-05
0.000206389
8.44142e-08
3.77627e-10
5.34017e-06
5.22311e-05
1.32037e-05
2.01595e-08
2.0164e-08
8.31833e-07
3.19524e-07
0.000157306
3.31006e-06
1.10102e-07
1.10103e-07
8.60615e-05
0.000280335
0.000280401
2.42537e-06
1.75181e-08
1.44927e-07
8.83015e-08
3.31038e-09
2.62629e-29
3.63143e-12
0.000513163
3.26653e-12
3.91294e-11
2.15108e-07
3.2709e-05
1.50591e-06
7.85079e-05
1.67576e-06
4.08729e-10
4.40548e-05
1.06711e-05
2.05691e-06
2.45869e-06
2.02461e-08
7.22466e-08
0.000152756
5.2318e-05
6.61673e-06
0.000230138
0.000247206
0.000216757
7.9626e-05
1.21058e-06
4.69083e-07
2.22329e-08
3.60691e-08
1.08033e-09
1.16527e-09
2.37109e-25
2.16326e-08
5.73546e-05
5.91946e-12
1.20805e-11
8.53904e-11
3.04057e-05
1.50589e-06
2.19764e-05
3.26704e-10
8.06621e-10
2.85012e-05
4.42652e-07
4.82588e-06
9.29166e-08
6.07252e-07
3.21361e-06
6.04848e-06
5.88909e-06
1.70535e-05
2.68872e-07
5.79557e-08
2.25265e-08
4.01823e-08
5.56778e-07
9.95545e-10
7.83073e-10
7.39529e-10
5.77141e-10
4.25404e-10
1.67347e-21
5.48963e-11
0.00065062
3.91802e-12
1.75131e-12
1.84745e-11
2.65957e-06
2.22387e-05
1.83581e-05
8.87116e-11
4.07087e-10
9.52218e-06
2.98324e-07
1.44912e-06
2.51123e-06
1.28217e-06
1.77871e-07
9.60456e-08
5.3315e-08
3.66152e-08
2.52417e-08
2.41398e-08
1.25465e-08
2.94273e-09
2.61265e-09
1.88946e-09
4.41129e-08
1.3921e-08
3.57469e-10
3.6483e-10
4.35996e-18
1.76107e-10
0.000614184
7.73813e-09
1.44073e-13
9.21941e-12
7.82816e-11
1.8697e-10
8.52347e-11
8.77408e-11
1.89594e-10
5.70758e-06
6.42627e-07
2.00735e-07
2.29217e-07
4.73832e-05
5.88933e-05
5.41302e-05
5.62612e-05
5.62923e-05
5.62446e-05
1.26704e-06
1.36571e-05
1.49186e-05
5.51863e-07
2.5177e-06
3.74149e-06
2.29791e-07
3.43911e-08
1.15385e-09
3.85719e-17
6.09358e-16
0.000104647
1.3524e-10
2.86485e-15
6.40419e-13
2.76935e-11
1.20962e-10
9.68296e-11
1.04418e-11
5.09901e-10
3.27816e-10
4.84131e-07
2.06816e-07
2.3525e-07
3.09772e-06
3.80779e-06
1.73367e-06
7.45724e-06
5.56465e-05
4.71621e-05
1.26716e-05
1.31676e-06
1.58477e-09
1.5838e-09
1.68575e-09
1.60564e-09
7.75983e-09
4.36067e-07
5.24111e-10
2.24441e-48
4.89249e-16
0.00021208
1.03775e-15
3.25161e-17
2.08558e-14
1.70231e-12
2.275e-11
1.41391e-11
8.32871e-13
2.85966e-11
9.91981e-11
5.61284e-09
0.000173743
2.27732e-10
9.60157e-08
4.96754e-07
8.52293e-06
3.89232e-05
6.30455e-06
4.34906e-17
3.38009e-16
3.98244e-13
2.15328e-08
1.98602e-09
1.31253e-09
1.63104e-09
2.1949e-09
9.40534e-10
6.22372e-10
0.297663
0.271786
0.232017
0.180541
0.119915
0.0593922
0.0114838
0.000523401
0.000323982
0.000155588
4.64903e-05
7.39848e-06
7.01261e-06
7.87148e-06
1.73545e-05
5.81695e-06
5.90617e-06
8.21395e-05
0.884702
0.999995
0.999798
0.999966
1
0.89869
9.37844e-05
4.10608e-07
0.000173064
3.36437e-11
-1.2006e-11
-3.18096e-11
5.16803e-05
4.66821e-05
3.64205e-05
2.57606e-05
1.61336e-05
1.01681e-05
3.67994e-06
1.25121e-06
9.39371e-07
5.28836e-07
1.79233e-07
1.11113e-07
1.35953e-07
4.44204e-06
0.000111437
3.96236e-05
5.00968e-06
1.00688e-05
0.000893436
0.999834
1
1
1
0.27496
8.07231e-06
4.64418e-09
-1.30605e-06
5.35788e-11
2.61765e-11
6.1325e-13
3.42614e-08
3.35926e-08
3.22169e-08
6.1224e-08
6.84741e-08
6.3333e-08
6.59568e-08
7.22193e-08
8.75872e-08
9.91423e-08
1.04736e-07
1.09642e-07
1.19112e-07
7.51601e-05
3.97007e-06
0.000165001
1.01702e-05
2.20171e-07
1.72905e-05
0.129512
0.999985
0.999995
0.961167
0.0200797
-7.43972e-07
-6.79544e-12
2.13494e-11
6.22232e-11
1.90024e-11
6.08011e-13
1.02302e-08
1.13138e-08
1.58944e-08
1.23e-06
7.08508e-08
6.35383e-08
6.51252e-08
8.88613e-08
8.73993e-08
9.62842e-08
8.51093e-07
5.07806e-06
2.14091e-06
6.71297e-06
3.75129e-06
0.0001126
4.44216e-07
2.0941e-07
1.2693e-07
6.97812e-05
0.679362
0.957167
0.596943
-9.50016e-06
-2.96526e-08
-6.41954e-09
-3.56187e-08
4.72959e-11
1.51111e-11
5.36207e-13
9.75187e-09
1.08113e-08
5.03285e-06
5.20766e-06
4.51041e-08
8.97054e-06
1.11682e-05
1.06041e-07
1.02723e-07
1.05794e-07
5.08988e-06
5.08566e-06
1.03169e-06
5.63909e-07
1.11193e-05
4.45776e-07
0.000281267
2.10587e-07
1.42091e-07
9.26463e-08
3.44319e-06
0.181349
2.63797e-05
1.98613e-05
1.12033e-07
-2.52981e-09
-2.12896e-08
4.8806e-11
1.25664e-11
4.69971e-13
9.05227e-09
4.53589e-06
5.44659e-06
1.15683e-08
1.05174e-08
1.57281e-06
1.48647e-05
8.0178e-06
8.768e-06
9.6307e-06
9.01013e-06
3.20794e-07
2.86829e-07
2.86562e-07
1.52176e-06
2.12046e-07
0.000317219
3.60472e-05
4.7614e-06
1.37363e-07
0.000266916
4.65092e-05
0.000118995
4.07031e-07
8.60892e-07
-1.13352e-09
-2.49284e-08
7.64441e-11
1.02974e-11
4.11277e-13
3.87955e-07
5.54132e-06
7.64399e-07
7.874e-09
8.59133e-09
8.67218e-09
2.34193e-07
2.67441e-05
6.74496e-06
1.75641e-05
1.75195e-05
3.57988e-07
1.35609e-06
6.44475e-07
2.12017e-07
2.11393e-07
0.000167867
0.000323568
8.53077e-07
1.37445e-07
0.000399585
0.000351951
1.60205e-06
4.05074e-07
2.92291e-07
-8.49886e-10
-2.27505e-08
1.23897e-10
8.2814e-12
3.58621e-13
5.37618e-07
5.57445e-06
7.94031e-09
7.56778e-09
7.61814e-09
7.34199e-09
1.1113e-08
2.5355e-05
4.70662e-06
1.75642e-05
3.03372e-06
6.76958e-07
4.32647e-07
3.18647e-07
2.13906e-07
2.11766e-07
2.11624e-07
0.000323568
8.62896e-06
1.38999e-07
0.000343539
5.42816e-05
6.87713e-06
2.23479e-06
2.94691e-08
-1.96187e-11
-1.42862e-08
1.54882e-10
6.47836e-12
3.06394e-13
5.54444e-06
5.58434e-06
8.19259e-09
7.25772e-09
6.93706e-09
6.36242e-09
6.74404e-09
2.16018e-06
2.68282e-05
6.35196e-06
3.21028e-07
3.21011e-07
3.29157e-07
0.000130047
1.40671e-05
3.65805e-07
2.16914e-07
0.000124601
1.0635e-05
1.60922e-07
0.000141917
8.07728e-05
1.2001e-05
1.70213e-05
9.65486e-12
4.27255e-09
-5.29998e-09
1.15723e-10
4.89717e-12
2.53518e-13
9.77148e-09
1.27405e-06
7.93867e-09
7.3261e-09
6.48072e-09
7.19745e-08
3.36819e-07
7.80917e-09
1.07293e-05
5.99583e-08
0.000331614
3.22873e-07
1.39802e-05
0.000284903
0.000285619
2.56234e-07
2.30126e-07
2.32021e-07
5.64409e-06
1.67944e-06
0.000136058
2.37983e-05
2.91751e-06
9.69948e-06
-1.25192e-09
6.39426e-09
-7.27945e-10
4.0921e-11
3.59931e-12
2.00739e-13
6.14478e-09
9.53934e-09
8.03977e-09
7.42463e-09
6.69662e-09
5.77665e-09
8.66155e-07
1.27827e-07
2.22801e-08
2.62244e-08
0.000335031
7.12046e-06
2.44134e-05
0.000284924
0.000285831
9.53203e-07
2.32609e-07
2.33035e-07
6.91022e-06
0.000406928
9.68828e-05
3.3606e-06
5.26021e-06
-6.87163e-09
-2.91144e-09
6.98584e-09
1.36116e-08
7.94257e-12
2.5712e-12
1.49904e-13
5.90791e-09
6.42291e-09
7.01903e-09
7.10484e-09
6.68969e-09
5.59379e-09
3.00502e-08
8.02515e-07
2.50623e-07
2.62245e-08
0.000334629
3.27913e-05
3.49966e-07
4.68215e-06
9.69972e-05
1.50666e-09
7.75226e-07
2.33721e-07
5.58334e-06
1.07065e-06
0.00011531
3.35647e-06
7.69277e-06
-1.3178e-08
-3.39536e-09
1.04498e-08
2.34334e-08
-2.99802e-12
1.75472e-12
1.03619e-13
5.77272e-09
6.11599e-09
6.83237e-09
5.47702e-09
5.6113e-09
5.3621e-09
4.78535e-09
4.88253e-09
4.86571e-09
4.50373e-06
3.95504e-06
4.64565e-07
7.72256e-06
4.08403e-09
1.59785e-09
1.52059e-09
1.42551e-09
1.16955e-05
5.48015e-06
0.000373173
4.72103e-05
6.97011e-06
1.28286e-05
-1.52069e-08
-3.81381e-09
1.37912e-08
1.85694e-11
-1.05919e-12
1.11536e-12
6.4753e-14
4.30048e-09
4.107e-09
3.58972e-09
9.44675e-07
4.79003e-09
4.71021e-09
9.61492e-06
4.84086e-09
4.90802e-09
4.12437e-06
4.48072e-06
3.46981e-07
9.89934e-06
3.86317e-07
2.06024e-09
1.82529e-09
1.59643e-09
1.15783e-06
9.35824e-09
0.000525102
0.000106948
3.1255e-06
8.2541e-06
-1.55071e-08
-4.65075e-09
1.06135e-08
-2.94278e-10
2.31161e-12
6.42173e-13
3.55223e-14
9.84245e-07
3.85246e-08
3.39454e-09
3.22024e-09
4.38218e-06
1.7895e-05
1.79223e-05
1.38406e-05
1.6133e-08
2.35664e-06
3.33077e-07
1.82546e-07
9.89934e-06
9.57415e-08
5.04149e-09
1.69663e-08
1.81351e-09
2.81256e-09
1.81036e-09
0.000237461
8.0926e-05
3.12598e-06
6.78663e-06
-1.3458e-08
-6.33144e-09
2.22849e-09
-1.30863e-10
3.05259e-12
3.25767e-13
1.6516e-14
4.22095e-07
1.63474e-08
2.67264e-09
9.01508e-09
3.01349e-09
4.14187e-09
5.23613e-06
1.22542e-06
2.45254e-09
2.34018e-09
1.98052e-09
1.0651e-06
5.16036e-06
2.20385e-08
1.63057e-08
0.000121705
1.54946e-05
2.20417e-09
1.78851e-09
0.00035078
0.000147337
1.0185e-05
6.36718e-06
-6.26882e-09
-9.87751e-09
-4.48327e-11
-6.07289e-11
2.61517e-12
1.41185e-13
6.24892e-15
2.24023e-09
2.17709e-09
2.04332e-09
1.97696e-09
2.17422e-09
1.75294e-09
1.73972e-09
1.7499e-09
1.85585e-09
1.74816e-09
1.42741e-09
3.94111e-06
1.29651e-06
3.84493e-08
0.000121205
0.000113171
7.5753e-05
4.83078e-09
3.29366e-06
0.000218526
0.000145099
9.61236e-05
5.91686e-06
2.03758e-08
-1.90545e-08
-6.08525e-11
-1.26956e-11
1.88411e-12
5.03925e-14
1.82927e-15
2.43773e-09
2.14666e-09
1.85063e-09
1.65152e-09
1.51076e-09
1.41796e-09
1.37554e-09
1.31191e-09
1.27072e-09
1.2214e-09
7.69013e-06
4.15677e-06
4.98941e-08
2.81507e-05
0.000139932
5.03789e-07
4.99024e-07
5.11881e-05
0.000209505
1.43472e-06
2.3411e-06
6.517e-05
8.65203e-06
3.89288e-06
-3.97779e-08
2.17671e-11
2.27544e-11
1.11185e-12
1.41749e-14
3.90817e-16
1.81261e-09
1.36764e-09
1.35238e-09
1.34407e-09
1.33688e-09
1.13191e-09
1.11875e-09
1.1007e-09
1.09763e-09
7.89048e-06
1.143e-05
9.59513e-09
1.70383e-08
0.000144153
1.35241e-05
4.98574e-07
4.98632e-07
4.98267e-06
0.000375715
1.06352e-06
1.05867e-06
3.25249e-05
7.93125e-05
5.07873e-06
-5.19973e-08
2.83097e-10
2.21561e-11
5.2342e-13
3.03387e-15
5.74732e-17
0.00130075
0.00097927
3.5173e-05
6.29265e-05
1.81106e-06
2.16829e-06
5.45082e-07
6.77023e-07
4.68549e-06
9.76901e-06
1.53667e-09
2.31621e-09
0.000156658
1.19488e-06
6.91367e-07
4.98567e-07
5.08665e-07
0.000326904
0.000285328
2.74775e-05
1.05947e-06
3.27376e-05
2.52601e-05
5.81515e-07
-2.15353e-08
2.05882e-10
1.054e-11
1.60472e-13
5.11501e-16
5.46682e-18
6.39691e-06
2.33327e-08
1.90854e-09
8.81484e-09
6.45407e-07
8.79893e-07
1.32084e-06
2.27718e-08
2.89968e-09
1.3629e-09
1.32922e-09
3.0973e-05
0.00016587
2.03574e-05
7.43414e-06
9.16019e-06
0.000253901
5.27588e-05
3.58734e-06
1.71025e-05
9.9273e-05
1.35276e-05
1.76758e-05
1.55705e-11
1.06389e-08
5.6812e-11
3.18026e-12
4.2613e-14
8.57016e-17
3.07387e-19
1.21772e-09
1.28737e-09
1.53585e-09
1.52704e-09
3.74962e-07
7.78016e-10
8.78678e-10
9.41199e-10
1.01064e-09
1.23545e-09
9.04375e-06
0.00021694
8.24999e-06
5.02971e-05
1.99082e-06
0.000107453
2.35049e-05
1.07399e-06
4.28147e-07
5.8109e-08
7.91424e-05
9.08769e-06
0.000514421
3.83553e-05
2.07585e-10
1.72071e-11
8.46431e-13
8.77866e-15
1.14142e-17
9.24288e-21
1.15132e-09
8.77443e-10
6.60181e-10
5.58002e-10
6.181e-10
5.51732e-10
6.22222e-10
9.19672e-10
1.35961e-09
2.42599e-08
0.000244309
0.000122318
1.06664e-05
2.85383e-05
5.29151e-07
6.32635e-07
8.54656e-07
6.92379e-06
8.86116e-07
5.71785e-08
5.77376e-08
5.53218e-06
1.38021e-05
1.96535e-05
7.52161e-11
5.14619e-12
1.53802e-13
1.05409e-15
9.84206e-19
1.55368e-22
1.11316e-09
7.47896e-10
5.05332e-10
3.96532e-10
3.9041e-10
4.90356e-10
7.31441e-10
1.19251e-09
2.51297e-09
6.49026e-05
0.000244556
6.30007e-05
3.26962e-05
4.97653e-05
5.28478e-07
6.72988e-07
0.000356632
0.000356434
6.0858e-08
1.85624e-06
1.44897e-06
4.1618e-05
3.84094e-05
2.08405e-10
2.58431e-11
1.01601e-12
1.7494e-14
7.92397e-17
5.31789e-20
1.65384e-24
6.54031e-10
4.57853e-10
3.41926e-10
2.95381e-10
3.1854e-10
4.25141e-10
6.35315e-10
8.36364e-10
3.15606e-09
0.000100243
0.000244646
0.000182078
4.71695e-06
7.31138e-05
2.71641e-05
8.70316e-05
0.000356647
0.000356505
2.00499e-05
1.48873e-09
2.77651e-06
6.01661e-09
3.05371e-07
2.35562e-10
5.30265e-12
1.22863e-13
1.21775e-15
3.49862e-18
1.59735e-21
8.03465e-27
3.25662e-10
2.6059e-10
2.12534e-10
1.85304e-10
1.88117e-10
2.35763e-10
3.47472e-10
5.45225e-10
5.46089e-10
3.90117e-08
0.000239661
0.000244702
0.000105942
5.19266e-06
4.7906e-05
1.37427e-06
0.000102906
1.56009e-05
1.77242e-05
7.0757e-11
8.72953e-11
2.95636e-10
1.08002e-10
1.68196e-11
5.95802e-13
8.57623e-15
4.71117e-17
7.66637e-20
2.13232e-23
1.73976e-29
3.58023e-10
3.39743e-10
3.06004e-10
2.47421e-10
1.7531e-10
1.16695e-10
1.03125e-10
1.56927e-10
3.30606e-10
3.94658e-10
6.80211e-09
6.31126e-05
0.000125835
0.000132558
4.44142e-05
7.35648e-06
5.60938e-05
1.41349e-05
2.83779e-05
7.06066e-11
6.13665e-11
4.38757e-11
3.38152e-11
1.53982e-12
3.58228e-14
3.17513e-16
8.88888e-19
7.01609e-22
9.99876e-26
1.71774e-32
3.65414e-08
8.12422e-10
1.20302e-09
1.17078e-09
8.41414e-10
4.0661e-10
1.34886e-10
4.05998e-11
3.46633e-11
8.57593e-11
1.15295e-10
1.75069e-10
2.11514e-10
1.86883e-09
1.20327e-05
8.87464e-06
1.52446e-05
4.6582e-07
3.95274e-07
2.31743e-10
2.27934e-11
4.00415e-12
1.883e-12
7.8576e-14
1.10055e-15
5.61008e-18
7.04782e-21
2.24411e-24
1.38307e-28
8.29016e-36
6.61597e-07
6.40505e-07
2.62108e-10
8.25277e-10
6.27772e-10
4.8976e-10
3.21006e-10
7.96938e-11
1.36122e-11
4.93082e-12
1.04216e-11
5.4218e-11
1.04443e-10
3.18791e-10
1.62887e-10
3.03945e-10
2.7989e-08
1.48854e-07
1.61004e-09
1.68715e-10
3.42715e-12
2.09571e-13
5.26615e-14
1.97934e-15
1.65594e-17
4.37854e-20
2.06187e-23
1.97992e-27
3.9107e-32
2.19719e-39
3.57142e-10
2.14437e-10
2.73212e-10
2.63223e-10
1.73926e-10
1.21084e-10
6.78703e-11
2.75214e-11
6.66064e-12
1.02702e-12
2.1016e-13
8.75701e-13
4.49418e-12
1.13989e-11
2.94385e-11
6.53198e-11
2.31125e-10
3.26556e-10
1.03921e-10
1.99316e-11
1.85077e-13
6.59901e-15
8.21826e-16
2.43028e-17
1.26186e-19
1.49733e-22
1.87084e-26
2.54438e-31
6.91162e-37
3.90876e-43
1
1
1
1
1
1
1
1
1
1
1
1
1
1
1
1
1
1
1
1
1
1
1
1
1
1
1
1
1
1
1
1
1
1
1
1
1
1
1
1
1
1
1
1
1
1
1
1
1
1
1
1
1
1
1
1
1
1
1
1
1
1
1
1
1
1
1
1
1
1
1
1
1
1
1
1
1
1
1
1
1
1
1
1
1
1
1
1
1
1
1
1
1
1
1
1
1
1
1
1
1
1
1
1
1
1
1
1
1
1
1
1
1
1
1
1
1
1
1
1
1
1
1
1
1
1
1
1
1
1
1
1
1
1
1
1
1
1
1
1
1
1
1
1
1
1
1
1
1
1
1
1
1
1
1
1
1
1
1
1
1
1
1
1
1
1
1
1
1
1
1
1
1
1
1
1
1
1
1
1
1
1
1
1
1
1
1
1
1
1
1
1
1
1
1
1
1
1
1
1
1
1
1
1
1
1
1
1
1
1
1
1
1
1
1
1
1
1
1
1
1
1
1
1
1
1
1
1
1
1
1
1
1
1
1
1
1
1
1
1
1
1
1
1
1
1
1
1
1
1
1
1
1
1
1
1
1
1
1
1
1
1
1
1
1
1
1
1
1
1
1
1
1
1
1
1
1
1
1
1
1
1
1
1
1
1
1
1
1
1
1
1
1
1
1
1
1
1
1
1
1
1
1
1
1
1
1
1
1
1
1
1
1
1
1
1
1
1
1
1
1
1
1
1
1
1
1
1
1
1
1
1
1
1
1
1
1
1
1
1
1
1
1
1
1
1
1
1
1
1
1
1
1
1
1
1
1
1
1
1
1
1
1
1
1
1
1
1
1
1
1
1
1
1
1
1
1
1
1
1
1
1
1
1
1
1
1
1
1
1
1
1
1
1
1
1
1
1
1
1
1
1
1
1
1
1
1
1
1
1
1
1
1
1
1
1
1
1
1
1
1
1
1
1
1
1
1
1
1
1
1
1
1
1
1
1
1
1
1
1
1
1
1
1
1
1
1
1
1
1
1
1
1
1
1
1
1
1
1
1
1
1
1
1
1
1
1
1
1
1
1
1
1
1
1
1
1
1
1
1
1
1
1
1
1
1
1
1
1
1
1
1
1
1
1
1
1
1
1
1
1
1
1
1
1
1
1
1
1
1
1
1
1
1
1
1
1
1
1
1
1
1
1
1
1
1
1
1
1
1
1
1
1
1
1
1
1
1
1
1
1
1
0.973236
1
1
1
1
1
1
1
1
1
1
1
1
1
1
1
1
1
1
1
1
1
1
1
1
1
1
1
1
1
0.969131
1
1
1
1
1
1
1
1
1
1
1
1
1
1
1
1
1
1
1
1
1
1
1
1
1
1
1
1
0.999983
0.969146
1
1
1
1
1
0.999999
1
1
1
1
1
1
1
1
0.999997
0.999963
1
1
1
1
1
1
1
1
1
1
1
0.999988
0.999259
0.97731
0.999948
1
1
1
1
0.999999
1
1
1
1
1
1
1
1
0.999961
0.999983
1
1
1
1
1
1
1
1
1
1
1
0.999759
0.999986
0.972515
0.994684
1
1
1
1
1
0.999999
1
1
1
1
1
1
0.999996
0.99996
0.999998
1
1
1
1
1
1
1
1
1
1
1
0.999409
0.986018
0.999993
0.999995
1
1
1
1
1
1
1
1
1
0.999635
1
1
0.999999
0.999995
0.999999
0.999867
0.999256
1
1
1
1
1
1
1
1
1
0.997675
0.985294
0.999949
0.99953
0.999989
1
0.999702
1
0.999999
1
1
1
0.9995
0.999437
0.99992
1
0.999997
0.999702
0.999414
0.999976
0.999487
0.999817
1
1
1
1
1
1
1
1
0.997675
0.999148
0.967513
0.170212
0.999267
0.967437
0.99944
1
1
1
1
0.999755
0.999372
0.999993
0.999897
1
0.999997
0.999707
0.998963
0.999951
0.999985
0.999768
1
1
1
1
1
1
1
1
0.997681
0.927135
0.0149235
0.0249777
0.758576
0.959529
0.999998
0.999973
0.999996
1
0.999988
0.999964
0.999944
0.999707
0.999979
0.999997
0.999988
0.999126
0.999288
0.998966
0.9999
0.999991
0.999987
1
1
1
1
1
1
1
0.999568
0.193556
0.00455063
0.000812963
0.525066
0.971613
0.999998
0.999997
0.999974
1
0.999999
0.999381
0.997628
0.99902
0.999994
0.999998
0.999821
0.999405
0.999981
0.999724
0.999269
1
1
1
1
1
1
1
1
1
0.953687