/*--------------------------------*- C++ -*----------------------------------*\
| =========                 |                                                 |
| \\      /  F ield         | OpenFOAM: The Open Source CFD Toolbox           |
|  \\    /   O peration     | Version:  2.4.0                                 |
|   \\  /    A nd           | Web:      www.OpenFOAM.org                      |
|    \\/     M anipulation  |                                                 |
\*---------------------------------------------------------------------------*/
FoamFile
{
    version     2.0;
    format      ascii;
    class       surfaceScalarField;
    location    "0.372";
    object      phiAlpha;
}
// * * * * * * * * * * * * * * * * * * * * * * * * * * * * * * * * * * * * * //

dimensions      [0 3 -1 0 0 0 0];

internalField   nonuniform List<scalar> 
19800
(
-1.42059e-57
2.16988e-61
-1.22854e-53
5.91095e-57
-1.85721e-50
1.46168e-53
-9.31822e-48
1.0931e-50
-1.69833e-45
3.22215e-48
-1.20221e-43
3.726e-46
-3.87568e-42
1.73136e-44
-6.45114e-41
3.68266e-43
-6.16656e-40
3.93571e-42
-3.73743e-39
2.22893e-41
-1.57948e-38
6.46208e-41
-5.25746e-38
3.95042e-41
-1.626e-37
-3.29919e-37
-5.15547e-37
-2.00038e-36
-1.69947e-36
-8.64053e-36
-6.02453e-36
-3.42748e-35
-2.25736e-35
-1.36962e-34
-8.23033e-35
-5.54685e-34
-2.84131e-34
-2.14201e-33
-9.18094e-34
-7.62822e-33
-2.76335e-33
-2.46552e-32
-7.75004e-33
-7.16427e-32
-2.02222e-32
-1.83647e-31
-4.90449e-32
-3.96114e-31
-1.10091e-31
-6.36181e-31
-2.29089e-31
-3.85438e-31
-4.36478e-31
7.71148e-33
-7.34779e-31
3.8196e-32
-1.01411e-30
1.00927e-31
-1.12134e-30
1.75686e-31
-9.98596e-31
2.13885e-31
-7.05781e-31
1.9133e-31
-4.09799e-31
1.27331e-31
-2.04174e-31
6.63965e-32
-9.19715e-32
2.86394e-32
-3.92339e-32
1.08249e-32
-1.59754e-32
3.75967e-33
-6.13502e-33
1.20557e-33
-2.21417e-33
3.4986e-34
-7.55085e-34
9.01364e-35
-2.29466e-34
2.00718e-35
-6.05234e-35
3.36028e-36
-1.39366e-35
2.92991e-37
-2.80823e-36
-5.9663e-35
-4.78236e-37
-4.03596e-35
-7.71227e-38
-1.15008e-35
-3.37813e-38
-2.46704e-36
-5.78617e-38
-9.71385e-37
-1.0635e-37
-1.61914e-36
-3.27361e-36
-1.71893e-37
-2.24185e-53
6.48827e-57
-9.02145e-50
7.77553e-53
-8.63007e-47
1.22411e-49
-3.06245e-44
6.39341e-47
-4.29935e-42
1.38735e-44
-2.51844e-40
1.24823e-42
-7.01294e-39
4.72679e-41
-1.05227e-37
8.25903e-40
-9.32436e-37
7.05899e-39
-5.33124e-36
2.63522e-38
-2.16047e-35
-2.74494e-36
-6.76803e-35
-1.10519e-34
-1.91257e-34
-6.01509e-34
-5.41207e-34
-2.29638e-33
-1.57137e-33
-7.9285e-33
-4.81282e-33
-2.68909e-32
-1.52079e-32
-9.44504e-32
-4.58925e-32
-3.40187e-31
-1.263e-31
-1.18735e-30
-3.07319e-31
-3.84577e-30
-6.37223e-31
-1.13499e-29
-1.02519e-30
-3.04548e-29
-8.22069e-31
-7.36979e-29
8.11031e-31
-1.56231e-28
5.08423e-30
-2.71535e-28
1.55961e-29
-3.18753e-28
3.28397e-29
3.70808e-31
4.66471e-29
2.10114e-29
2.82015e-29
6.69195e-29
-5.25009e-29
1.29695e-28
-1.48446e-28
1.77949e-28
-1.96505e-28
1.85797e-28
-1.80389e-28
1.50222e-28
-1.29245e-28
9.63986e-29
-7.7566e-29
5.09336e-29
-4.09311e-29
2.30129e-29
-1.9539e-29
9.16156e-30
-8.56501e-30
3.25766e-30
-3.48307e-30
1.03371e-30
-1.29979e-30
2.8911e-31
-4.32784e-31
6.75885e-32
-1.26327e-31
1.15071e-32
-3.27781e-32
7.6203e-34
-7.34754e-33
-9.4817e-32
-1.41415e-33
-5.22697e-32
-2.50838e-34
-1.57959e-32
-9.08419e-35
-3.72132e-33
-1.49778e-34
-1.40507e-33
-3.17512e-34
-2.31526e-33
-5.34835e-33
-6.16345e-34
-1.03324e-50
4.41107e-54
-3.92385e-47
4.74554e-50
-3.5766e-44
7.27644e-47
-1.14843e-41
3.68561e-44
-1.36886e-39
7.28292e-42
-6.88973e-38
5.5155e-40
-1.6985e-36
1.73586e-38
-2.3126e-35
2.45899e-37
-1.90395e-34
1.45307e-36
-1.02333e-33
-7.27246e-35
-3.81389e-33
-5.27891e-33
-1.07592e-32
-3.64558e-32
-2.63624e-32
-1.50341e-31
-6.1671e-32
-4.93517e-31
-1.38911e-31
-1.511e-30
-2.91991e-31
-4.60811e-30
-4.4771e-31
-1.4686e-29
1.03933e-31
-4.81556e-29
2.22628e-30
-1.54643e-28
1.29947e-29
-4.62815e-28
5.57668e-29
-1.26371e-27
2.01522e-28
-3.15363e-27
6.44176e-28
-7.19412e-27
1.85043e-27
-1.47356e-26
4.77498e-27
-2.59253e-26
1.09666e-26
-3.54034e-26
2.20623e-26
-2.50805e-26
3.80745e-26
1.32263e-27
5.53202e-26
6.61302e-27
6.50315e-26
1.47241e-26
6.0534e-26
2.25157e-26
4.40629e-26
2.6202e-26
2.38481e-26
2.41661e-26
7.88189e-27
1.79169e-26
-2.6669e-28
1.09611e-26
-1.48035e-27
5.68421e-27
-1.24594e-27
2.55545e-27
-7.48549e-28
1.00864e-27
-3.7539e-28
3.49764e-28
-1.62445e-28
1.05155e-28
-6.08082e-29
2.5684e-29
-1.97527e-29
4.27806e-30
-5.61455e-30
6.8969e-32
-1.36805e-30
-2.77146e-29
-2.86829e-31
-1.3804e-29
-5.4777e-32
-4.39958e-30
-1.82714e-32
-1.13276e-30
-2.82909e-32
-4.43104e-31
-6.47908e-32
-7.43658e-31
-1.90135e-30
-1.42009e-31
-1.39261e-48
7.4044e-52
-5.64147e-45
8.84421e-48
-5.09015e-42
1.44581e-44
-1.459e-39
7.24441e-42
-1.50376e-37
1.27058e-39
-6.56354e-36
8.14995e-38
-1.42594e-34
2.0972e-36
-1.74144e-33
2.17115e-35
-1.29337e-32
2.09774e-35
-6.11479e-32
-7.29274e-32
-1.93299e-31
-7.38673e-31
-4.21383e-31
-3.94536e-30
-6.2717e-31
-1.43955e-29
-1.73303e-31
-4.29598e-29
1.44896e-30
-1.19751e-28
8.73298e-30
-3.32815e-28
4.04359e-29
-9.70084e-28
1.72217e-28
-2.9199e-27
6.79993e-28
-8.69474e-27
2.43168e-27
-2.42324e-26
7.83773e-27
-6.16933e-26
2.31242e-26
-1.4397e-25
6.33988e-26
-3.09925e-25
1.61975e-25
-6.09625e-25
3.82709e-25
-1.06133e-24
8.2562e-25
-1.53147e-24
1.60201e-24
-1.54199e-24
2.7399e-24
-1.51862e-25
4.07893e-24
2.15188e-25
5.18275e-24
5.9517e-25
5.55211e-24
1.01856e-24
5.03531e-24
1.30161e-24
3.9095e-24
1.32571e-24
2.58175e-24
1.09346e-24
1.46554e-24
7.45995e-25
7.28814e-25
4.30121e-25
3.24907e-25
2.13392e-25
1.33291e-25
9.20328e-26
5.18194e-26
3.44612e-26
1.97066e-26
1.09741e-26
7.42688e-27
2.74374e-27
2.77101e-27
4.11622e-28
1.01232e-27
-1.91976e-27
3.49119e-28
-2.82534e-27
1.0938e-28
-1.33492e-27
3.05561e-29
-4.4483e-28
7.8958e-30
-1.23456e-28
3.34085e-30
-5.11777e-29
6.37741e-30
-8.77759e-29
-2.35847e-28
1.93091e-29
-9.50522e-47
6.61551e-50
-4.00452e-43
8.36635e-46
-3.54661e-40
1.41435e-42
-9.06201e-38
6.92762e-40
-7.98907e-36
1.07251e-37
-2.98056e-34
5.70415e-36
-5.55748e-33
1.12768e-34
-5.77007e-32
5.37688e-34
-3.42818e-31
-3.47624e-31
-1.11477e-30
-5.97186e-30
-1.11595e-30
-4.48792e-29
2.49215e-30
-2.1207e-28
1.91343e-29
-7.17296e-28
8.21013e-29
-1.99383e-27
2.93003e-28
-5.13428e-27
9.86653e-28
-1.3098e-26
3.37538e-27
-3.50136e-26
1.16895e-26
-9.70707e-26
3.95691e-26
-2.69065e-25
1.24665e-25
-7.01708e-25
3.59121e-25
-1.67447e-24
9.56376e-25
-3.66995e-24
2.39315e-24
-7.46853e-24
5.65568e-24
-1.407e-23
1.25363e-23
-2.39658e-23
2.57206e-23
-3.5165e-23
4.81529e-23
-4.01953e-23
8.09039e-23
-2.42653e-23
1.20178e-22
2.69894e-24
1.56846e-22
1.16964e-23
1.77705e-22
2.29139e-23
1.74887e-22
3.20662e-23
1.51409e-22
3.54789e-23
1.14706e-22
3.18226e-23
7.66441e-23
2.36122e-23
4.59397e-23
1.47714e-23
2.52117e-23
7.91649e-24
1.2927e-23
3.66284e-24
6.29643e-24
1.45703e-24
2.93047e-24
4.82212e-25
1.29211e-24
1.1934e-25
5.33524e-25
1.31469e-26
2.05047e-25
-1.5459e-25
7.17962e-26
-1.33941e-25
2.26485e-26
-6.18187e-26
6.41576e-27
-2.14166e-26
1.70575e-27
-6.31955e-27
7.31315e-28
-2.72126e-27
1.37489e-27
-4.57573e-27
-1.21898e-26
4.26088e-27
-3.86833e-45
3.41098e-48
-1.73051e-41
4.71345e-44
-1.47151e-38
8.42925e-41
-3.24425e-36
3.95947e-38
-2.37732e-34
5.24784e-36
-7.23824e-33
2.2248e-34
-1.05066e-31
2.82513e-33
-7.0391e-31
-5.20682e-31
-6.0242e-31
-2.11028e-29
5.00729e-30
-2.39437e-28
5.80181e-29
-1.55291e-27
3.50364e-28
-6.78637e-27
1.42756e-27
-2.17495e-26
4.64076e-27
-5.71302e-26
1.37162e-26
-1.37299e-25
3.96235e-26
-3.23237e-25
1.18735e-25
-7.9298e-25
3.66321e-25
-2.02597e-24
1.12509e-24
-5.23457e-24
3.24845e-24
-1.28142e-23
8.61224e-24
-2.87684e-23
2.11651e-23
-5.94124e-23
4.9125e-23
-1.14519e-22
1.08592e-22
-2.06477e-22
2.27454e-22
-3.42092e-22
4.455e-22
-5.01022e-22
8.04514e-22
-6.04895e-22
1.32116e-21
-5.00491e-22
1.94619e-21
3.24218e-25
2.56247e-21
1.28358e-22
2.99609e-21
3.03274e-22
3.10155e-21
4.67695e-22
2.86367e-21
5.57582e-22
2.34918e-21
5.36369e-22
1.71685e-21
4.25714e-22
1.13245e-21
2.83949e-22
6.85916e-22
1.61659e-22
3.88028e-22
7.89451e-23
2.07783e-22
3.278e-23
1.05449e-22
1.10384e-23
5.02866e-23
2.56917e-24
2.23546e-23
6.5071e-26
9.18249e-24
-4.98099e-24
3.42602e-24
-3.53451e-24
1.15349e-24
-1.62402e-24
3.501e-25
-5.83593e-25
1.0019e-25
-1.80927e-25
4.48883e-26
-7.74386e-26
8.31337e-26
-1.19453e-25
-3.03847e-25
2.57226e-25
-1.08613e-43
1.21219e-46
-5.11779e-40
1.82593e-42
-3.98862e-37
3.46372e-39
-7.20424e-35
1.50764e-36
-4.07949e-33
1.64879e-34
-8.45958e-32
5.15709e-33
-3.90286e-31
1.14905e-32
1.04589e-30
-3.36389e-29
2.93171e-29
-6.36033e-28
3.51865e-28
-5.92955e-27
2.53259e-27
-3.48417e-26
1.24049e-26
-1.43516e-25
4.4564e-26
-4.41055e-25
1.3077e-25
-1.10589e-24
3.4943e-25
-2.50173e-24
9.10018e-25
-5.46394e-24
2.45791e-24
-1.23075e-23
6.88779e-24
-2.89415e-23
1.9479e-23
-6.96591e-23
5.22136e-23
-1.60351e-22
1.28847e-22
-3.3962e-22
2.94993e-22
-6.62584e-22
6.39925e-22
-1.21177e-21
1.33059e-21
-2.09122e-21
2.64344e-21
-3.3601e-21
4.95245e-21
-4.86484e-21
8.62429e-21
-6.01199e-21
1.37962e-20
-5.66724e-21
2.00686e-20
-2.41081e-21
2.64105e-20
8.07115e-22
3.14485e-20
2.60283e-21
3.36977e-20
4.48262e-21
3.25959e-20
5.75209e-21
2.83099e-20
5.88286e-21
2.2045e-20
4.93654e-21
1.55538e-20
3.46449e-21
1.01004e-20
2.06825e-21
6.13342e-21
1.05161e-21
3.52376e-21
4.48469e-22
1.9143e-21
1.49924e-22
9.75567e-22
2.99732e-23
4.63676e-22
-4.84202e-23
2.02738e-22
-9.06952e-23
8.06049e-23
-5.8737e-23
2.89787e-23
-2.72301e-23
9.41702e-24
-1.01525e-23
2.88297e-24
-3.2796e-24
1.30008e-24
-1.33818e-24
2.23354e-24
-1.76311e-24
-4.1672e-24
6.68364e-24
-2.29211e-42
3.26491e-45
-1.11502e-38
5.31218e-41
-7.31999e-36
1.07069e-37
-9.72407e-34
4.09479e-35
-3.1028e-32
3.52666e-33
1.09284e-32
6.61633e-32
1.95054e-30
-2.09557e-29
6.15098e-29
-8.72306e-28
9.5571e-28
-1.23562e-26
8.98178e-27
-1.00895e-25
5.63042e-26
-5.48114e-25
2.52567e-25
-2.14663e-24
8.51579e-25
-6.36827e-24
2.3463e-24
-1.53569e-23
5.82482e-24
-3.29527e-23
1.3924e-23
-6.71653e-23
3.42229e-23
-1.39134e-22
8.75808e-23
-3.00545e-22
2.29067e-22
-6.72372e-22
5.73271e-22
-1.45622e-21
1.3245e-21
-2.9155e-21
2.8399e-21
-5.38415e-21
5.7833e-21
-9.35586e-21
1.13506e-20
-1.54581e-20
2.14389e-20
-2.40456e-20
3.84753e-20
-3.4233e-20
6.46309e-20
-4.26457e-20
1.00528e-19
-4.29716e-20
1.43727e-19
-2.73137e-20
1.88184e-19
2.26252e-21
2.26207e-19
1.53489e-20
2.4843e-19
3.03353e-20
2.492e-19
4.20177e-20
2.26316e-19
4.5404e-20
1.85104e-19
3.99208e-20
1.37582e-19
2.9148e-20
9.43711e-20
1.80538e-20
6.07108e-20
9.4419e-21
3.70222e-20
4.06969e-21
2.13701e-20
1.30798e-21
1.15877e-20
1.7872e-22
5.86397e-21
-9.65036e-22
2.72623e-21
-1.0818e-21
1.15417e-21
-6.72775e-22
4.42596e-22
-3.17956e-22
1.53636e-22
-1.23267e-22
4.99285e-23
-4.13597e-23
2.17696e-23
-1.57541e-23
3.23646e-23
-1.64322e-23
-3.51083e-23
9.13531e-23
-3.89643e-41
7.24163e-44
-1.82266e-37
1.25667e-39
-8.70998e-35
2.60891e-36
-5.32102e-33
8.29557e-34
7.27918e-33
5.24423e-32
1.2968e-30
1.00251e-31
6.08164e-29
-5.9259e-28
1.34404e-27
-1.45192e-26
1.72128e-26
-1.71426e-25
1.42892e-25
-1.25859e-24
8.23735e-25
-6.37722e-24
3.48599e-24
-2.38235e-23
1.12596e-23
-6.84296e-23
2.96299e-23
-1.59576e-22
6.93445e-23
-3.27048e-22
1.53844e-22
-6.26281e-22
3.45982e-22
-1.19737e-21
8.09389e-22
-2.37226e-21
1.958e-21
-4.91662e-21
4.58583e-21
-1.00128e-20
9.95426e-21
-1.8974e-20
2.0054e-20
-3.32196e-20
3.84438e-20
-5.49012e-20
7.13642e-20
-8.68332e-20
1.2832e-19
-1.30559e-19
2.20807e-19
-1.82091e-19
3.58099e-19
-2.26759e-19
5.41595e-19
-2.37613e-19
7.59768e-19
-1.80488e-19
9.8822e-19
-2.73859e-20
1.1925e-18
6.39451e-20
1.33391e-18
1.53101e-19
1.3788e-18
2.308e-19
1.29879e-18
2.62073e-19
1.10446e-18
2.39558e-19
8.55506e-19
1.79896e-19
6.13479e-19
1.14539e-19
4.14676e-19
6.08383e-20
2.66961e-19
2.60087e-20
1.63273e-19
7.62844e-21
9.41582e-20
8.43463e-23
5.067e-20
-1.00434e-20
2.50665e-20
-9.25381e-21
1.13084e-20
-5.68232e-21
4.62699e-21
-2.75951e-21
1.71469e-21
-1.11603e-21
5.8931e-22
-3.89654e-22
2.43342e-22
-1.39507e-22
2.90375e-22
-1.0804e-22
-1.98995e-22
7.53015e-22
-5.58892e-40
1.38292e-42
-2.14738e-36
2.58019e-38
-4.48489e-34
5.15837e-35
9.37094e-34
1.29394e-32
3.49929e-31
5.02845e-31
2.95145e-29
-1.48632e-28
1.02952e-27
-9.37674e-27
1.89845e-26
-1.75495e-25
2.14086e-25
-1.80118e-24
1.61986e-24
-1.20382e-23
8.73196e-24
-5.70772e-23
3.52084e-23
-2.0336e-22
1.0984e-22
-5.65582e-22
2.78722e-22
-1.27985e-21
6.21184e-22
-2.52004e-21
1.29089e-21
-4.56657e-21
2.67109e-21
-8.10473e-21
5.71238e-21
-1.47284e-20
1.27547e-20
-2.81743e-20
2.79672e-20
-5.38779e-20
5.71494e-20
-9.66847e-20
1.08412e-19
-1.6065e-19
1.95951e-19
-2.52617e-19
3.44299e-19
-3.8217e-19
5.89393e-19
-5.54119e-19
9.72249e-19
-7.54003e-19
1.52288e-18
-9.32647e-19
2.24262e-18
-1.00221e-18
3.09372e-18
-8.4749e-19
4.01192e-18
-3.59834e-19
4.87366e-18
1.84247e-19
5.54603e-18
6.04752e-19
5.89557e-18
1.01116e-18
5.73552e-18
1.20091e-18
5.02696e-18
1.13419e-18
4.01525e-18
8.62896e-19
2.97867e-18
5.59291e-19
2.09983e-18
2.96538e-19
1.42194e-18
1.22202e-19
9.20663e-19
2.9236e-20
5.64977e-19
-3.47555e-20
3.2335e-19
-7.22155e-20
1.70422e-19
-6.03645e-20
8.20308e-20
-3.71311e-20
3.58549e-20
-1.86181e-20
1.41975e-20
-7.87802e-21
5.16515e-21
-2.87581e-21
2.03337e-21
-9.96157e-22
1.82699e-21
-5.61473e-22
-8.20245e-22
4.15465e-21
-6.83508e-39
2.32586e-41
-1.45132e-35
4.7935e-37
2.45175e-35
8.51269e-34
3.46185e-32
1.52132e-31
6.64702e-30
2.00922e-30
4.21701e-28
-2.88187e-27
1.22318e-26
-1.05329e-25
1.97112e-25
-1.63437e-24
2.00265e-24
-1.48965e-23
1.39706e-23
-9.1247e-23
7.08067e-23
-4.05088e-22
2.72702e-22
-1.37365e-21
8.23748e-22
-3.69031e-21
2.02683e-21
-8.11335e-21
4.33466e-21
-1.54171e-20
8.51104e-21
-2.6623e-20
1.63176e-20
-4.42038e-20
3.19345e-20
-7.38667e-20
6.56209e-20
-1.29993e-19
1.34601e-19
-2.33057e-19
2.59171e-19
-3.96016e-19
4.63538e-19
-6.24689e-19
7.90422e-19
-9.34338e-19
1.31392e-18
-1.34991e-18
2.13793e-18
-1.88059e-18
3.37302e-18
-2.48199e-18
5.09374e-18
-3.0266e-18
7.30747e-18
-3.30227e-18
9.9573e-18
-3.01053e-18
1.30296e-17
-1.85298e-18
1.61842e-17
2.85949e-19
1.89157e-17
1.94587e-18
2.08494e-17
3.7625e-18
2.10227e-17
4.67684e-18
1.88589e-17
4.56612e-18
1.53448e-17
3.44024e-18
1.16101e-17
2.24529e-18
8.44949e-18
1.15449e-18
5.9852e-18
4.34924e-19
4.09132e-18
5.76721e-20
2.66257e-18
-3.07404e-19
1.61729e-18
-3.97698e-19
9.06633e-19
-3.12619e-19
4.65242e-19
-1.93327e-19
2.17248e-19
-1.00154e-19
9.20009e-20
-4.4406e-20
3.55624e-20
-1.70353e-20
1.3732e-20
-5.91508e-21
9.1068e-21
-2.56196e-21
-2.66232e-21
1.67204e-20
-6.78637e-38
3.49344e-40
4.49455e-38
8.19675e-36
9.32986e-34
1.12753e-32
6.05471e-31
1.32337e-30
8.53949e-29
-2.01306e-28
4.43222e-27
-3.32643e-26
1.11031e-25
-9.07506e-25
1.59531e-24
-1.21305e-23
1.4766e-23
-9.95143e-23
9.54666e-23
-5.61397e-22
4.55503e-22
-2.33399e-21
1.67425e-21
-7.5131e-21
4.89185e-21
-1.94202e-20
1.17008e-20
-4.14406e-20
2.41494e-20
-7.6206e-20
4.51645e-20
-1.26177e-19
8.09275e-20
-1.97717e-19
1.45411e-19
-3.05382e-19
2.74264e-19
-4.93434e-19
5.25703e-19
-8.28561e-19
9.54002e-19
-1.33269e-18
1.6094e-18
-1.99463e-18
2.58809e-18
-2.83417e-18
4.06353e-18
-3.90177e-18
6.26275e-18
-5.19663e-18
9.40125e-18
-6.59749e-18
1.36141e-17
-7.8601e-18
1.89713e-17
-8.64285e-18
2.55582e-17
-8.30629e-18
3.43198e-17
-6.52905e-18
4.49448e-17
-1.09749e-18
5.53764e-17
5.16739e-18
6.55791e-17
1.26606e-17
7.0135e-17
1.68134e-17
6.4257e-17
1.73272e-17
5.25124e-17
1.24342e-17
3.96449e-17
8.08345e-18
2.92892e-17
3.82482e-18
2.1448e-17
1.16924e-18
1.53198e-17
-3.83367e-19
1.04268e-17
-1.71944e-18
6.64458e-18
-1.74969e-18
3.92697e-18
-1.30202e-18
2.13598e-18
-8.06662e-19
1.06243e-18
-4.31122e-19
4.80934e-19
-2.00585e-19
1.98283e-19
-8.13006e-20
7.77546e-20
-2.91481e-20
4.01796e-20
-1.08181e-20
-7.4646e-21
5.34587e-20
-4.34577e-37
4.83317e-39
3.32677e-36
1.30075e-34
1.6696e-32
1.18956e-31
7.38312e-30
7.91301e-30
8.27864e-28
-4.0324e-27
3.63734e-26
-2.80117e-25
8.0196e-25
-6.21384e-24
1.03956e-23
-7.31669e-23
8.83039e-23
-5.45715e-22
5.31001e-22
-2.84908e-21
2.38598e-21
-1.11055e-20
8.35408e-21
-3.38796e-20
2.35396e-20
-8.39223e-20
5.47336e-20
-1.73338e-19
1.09431e-19
-3.08791e-19
1.96318e-19
-4.9253e-19
3.31932e-19
-7.3462e-19
5.50814e-19
-1.05623e-18
9.52367e-19
-1.56754e-18
1.70518e-18
-2.4649e-18
2.91653e-18
-3.75025e-18
4.6388e-18
-5.31753e-18
7.02577e-18
-7.16087e-18
1.03942e-17
-9.37179e-18
1.50962e-17
-1.18634e-17
2.13862e-17
-1.43413e-17
2.94417e-17
-1.65427e-17
3.96563e-17
-1.82765e-17
5.2483e-17
-1.8082e-17
7.3754e-17
-1.76168e-17
1.06286e-16
-1.06974e-17
1.47486e-16
1.02653e-17
1.95462e-16
1.21995e-16
2.44354e-16
6.32591e-17
2.31715e-16
7.15092e-17
1.86524e-16
4.78008e-17
1.35268e-16
2.99491e-17
9.76542e-17
1.16245e-17
7.12793e-17
1.91415e-18
5.12411e-17
-4.85185e-18
3.5256e-17
-6.91295e-18
2.29762e-17
-5.94023e-18
1.4071e-17
-4.20417e-18
8.03006e-18
-2.61409e-18
4.23382e-18
-1.44792e-18
2.04661e-18
-7.119e-19
9.03251e-19
-3.07658e-19
3.70149e-19
-1.16538e-19
1.66159e-19
-4.12195e-20
-1.98353e-20
1.49681e-19
9.35681e-41
6.57157e-38
7.29284e-35
1.68039e-33
2.07936e-31
1.00056e-30
6.87315e-29
2.18001e-29
6.3253e-27
-3.89049e-26
2.39681e-25
-1.83074e-24
4.70696e-24
-3.44206e-23
5.55203e-23
-3.62402e-22
4.35515e-22
-2.47797e-21
2.44525e-21
-1.20355e-20
1.03603e-20
-4.41067e-20
3.45172e-20
-1.27575e-19
9.34951e-20
-3.02106e-19
2.10948e-19
-6.021e-19
4.09391e-19
-1.03889e-18
7.08536e-19
-1.60152e-18
1.14115e-18
-2.29037e-18
1.76275e-18
-3.09047e-18
2.79727e-18
-4.23444e-18
4.68146e-18
-6.23619e-18
7.54652e-18
-8.94793e-18
1.1303e-17
-1.1982e-17
1.60871e-17
-1.5239e-17
2.23737e-17
-1.89302e-17
3.04454e-17
-2.26341e-17
4.02974e-17
-2.58076e-17
5.22334e-17
-2.86436e-17
6.7698e-17
-3.16034e-17
8.66415e-17
-3.07397e-17
1.31197e-16
-3.69739e-17
2.1139e-16
-3.39442e-17
5.77375e-16
4.32134e-18
5.08692e-16
1.14684e-16
3.62105e-16
6.0473e-16
2.69626e-16
1.147e-15
3.59946e-16
5.01764e-16
3.47279e-16
8.48554e-17
2.75617e-16
2.45387e-17
2.05197e-16
-5.85637e-18
1.45086e-16
-1.73647e-17
9.85496e-17
-1.7474e-17
6.45044e-17
-1.38135e-17
4.04924e-17
-9.68005e-18
2.41347e-17
-6.20353e-18
1.34908e-17
-3.63733e-18
6.9881e-18
-1.92498e-18
3.32338e-18
-9.01089e-19
1.45441e-18
-3.67626e-19
6.30627e-19
-1.32997e-19
-5.14736e-20
4.04524e-19
7.00242e-39
9.49688e-37
1.05108e-33
1.76552e-32
1.96436e-30
6.64441e-30
5.05255e-28
-7.78345e-28
3.88422e-26
-2.62872e-25
1.28513e-24
-9.53522e-24
2.26788e-23
-1.55697e-22
2.45115e-22
-1.48179e-21
1.7859e-21
-9.3531e-21
9.4051e-21
-4.24842e-20
3.76815e-20
-1.4695e-19
1.19571e-19
-4.04006e-19
3.10827e-19
-9.14878e-19
6.79066e-19
-1.75654e-18
1.28047e-18
-2.9353e-18
2.14758e-18
-4.3852e-18
3.32287e-18
-6.05049e-18
4.82209e-18
-7.73995e-18
7.06637e-18
-9.9312e-18
1.10677e-17
-1.37019e-17
1.67807e-17
-1.83644e-17
2.36107e-17
-2.31085e-17
3.14837e-17
-2.77007e-17
4.11178e-17
-3.26964e-17
5.21452e-17
-3.6627e-17
6.39839e-17
-3.95596e-17
7.76421e-17
-4.2631e-17
9.57403e-17
-4.62412e-17
1.1288e-16
-4.04807e-17
1.88205e-16
-5.85609e-17
3.02671e-16
-3.9696e-17
3.98841e-16
-2.95551e-17
4.88969e-16
8.56307e-17
6.80694e-15
1.8214e-15
3.9961e-15
3.8218e-15
6.93902e-16
7.97489e-16
4.40198e-16
5.41898e-16
4.51874e-16
-1.58026e-18
3.69054e-16
-2.14733e-17
2.73754e-16
-2.81908e-17
1.93353e-16
-2.71618e-17
1.31881e-16
-2.19826e-17
8.70388e-17
-1.60838e-17
5.51923e-17
-1.09585e-17
3.31959e-17
-6.95497e-18
1.8663e-17
-4.03651e-18
9.67916e-18
-2.0751e-18
4.6043e-18
-9.222e-19
2.06995e-18
-3.52974e-19
-1.24947e-19
1.09294e-18
1.5574e-37
1.34195e-35
1.11311e-32
1.50347e-31
1.44941e-29
3.40339e-29
2.9687e-27
-1.08923e-26
1.93363e-25
-1.35369e-24
5.64004e-24
-4.01256e-23
9.00817e-23
-5.78404e-22
8.97393e-22
-5.01762e-21
6.10486e-21
-2.94037e-20
3.0299e-20
-1.25485e-19
1.15253e-19
-4.11341e-19
3.49364e-19
-1.07883e-18
8.72485e-19
-2.34254e-18
1.84454e-18
-4.33758e-18
3.38353e-18
-7.03151e-18
5.52282e-18
-1.02195e-17
8.27418e-18
-1.36962e-17
1.1413e-17
-1.68837e-17
1.56883e-17
-2.07866e-17
2.30328e-17
-2.69195e-17
3.25758e-17
-3.32154e-17
4.28935e-17
-3.92805e-17
5.35268e-17
-4.48911e-17
6.5765e-17
-5.08104e-17
7.72587e-17
-5.29106e-17
8.86836e-17
-5.69333e-17
1.02343e-16
-6.10881e-17
1.18137e-16
-6.27065e-17
1.14843e-16
-5.96421e-17
5.11864e-16
-5.73367e-17
3.38262e-16
-1.14337e-16
3.55839e-16
-2.88612e-17
1.01815e-14
1.03074e-16
1.02328e-14
3.15913e-15
1.00659e-14
5.38258e-15
9.10625e-15
3.15117e-15
1.04447e-15
2.44069e-16
4.61864e-16
-2.01665e-18
3.78003e-16
-2.31273e-17
3.28195e-16
-3.12467e-17
2.64863e-16
-3.229e-17
1.99544e-16
-2.76612e-17
1.43185e-16
-2.14191e-17
9.85484e-17
-1.56168e-17
6.46413e-17
-1.08295e-17
3.98565e-17
-6.98351e-18
2.27371e-17
-3.97224e-18
1.18743e-17
-1.92475e-18
5.73222e-18
-7.86459e-19
-2.72461e-19
2.84604e-18
2.30755e-36
1.64497e-34
8.93129e-32
1.03256e-30
8.43816e-29
1.2791e-28
1.4017e-26
-6.91671e-26
7.83181e-25
-5.49455e-24
2.03115e-23
-1.37654e-22
2.95487e-22
-1.77346e-21
2.72709e-21
-1.4121e-20
1.73998e-20
-7.71949e-20
8.17319e-20
-3.1073e-19
2.96383e-19
-9.68665e-19
8.61638e-19
-2.432e-18
2.07411e-18
-5.08234e-18
4.2519e-18
-9.10733e-18
7.60981e-18
-1.43806e-17
1.21575e-17
-2.04639e-17
1.77967e-17
-2.69067e-17
2.37756e-17
-3.2801e-17
3.14856e-17
-3.96816e-17
4.34914e-17
-4.84674e-17
5.66238e-17
-5.5109e-17
6.98908e-17
-6.24321e-17
8.26923e-17
-7.07807e-17
9.64839e-17
-7.86001e-17
1.04423e-16
-7.90209e-17
1.19061e-16
-8.57448e-17
1.36398e-16
-8.88724e-17
1.46212e-16
-8.84935e-17
1.47935e-16
-7.9357e-17
1.65983e-16
-6.52908e-17
2.19081e-16
-5.40667e-17
2.54223e-16
-4.48835e-17
3.75252e-16
-1.72597e-18
9.21604e-15
8.18545e-16
1.10725e-14
4.92215e-15
3.86673e-15
4.93888e-16
9.23612e-17
1.06707e-17
9.33978e-16
-1.84859e-17
4.02215e-16
-3.00178e-17
3.57197e-16
-3.62936e-17
3.17428e-16
-3.52206e-17
2.59495e-16
-3.04316e-17
2.00883e-16
-2.43386e-17
1.49741e-16
-1.88531e-17
1.07159e-16
-1.44118e-17
7.25613e-17
-1.05252e-17
4.55748e-17
-6.64986e-18
2.61642e-17
-3.47509e-18
1.37326e-17
-1.50407e-18
-5.19487e-19
6.9241e-18
2.35321e-35
1.63263e-33
5.46473e-31
5.69551e-30
3.88435e-28
3.05951e-28
5.32828e-26
-3.03096e-25
2.5852e-24
-1.7899e-23
6.01223e-23
-3.87928e-22
8.01625e-22
-4.51418e-21
6.88682e-21
-3.32051e-20
4.13721e-20
-1.7011e-19
1.8457e-19
-6.48139e-19
6.40202e-19
-1.92724e-18
1.79129e-18
-4.64518e-18
4.17272e-18
-9.37398e-18
8.32797e-18
-1.63234e-17
1.46174e-17
-2.52495e-17
2.30448e-17
-3.54716e-17
3.33796e-17
-4.64031e-17
4.4478e-17
-5.75948e-17
5.83481e-17
-6.96585e-17
7.64321e-17
-8.12194e-17
9.17996e-17
-8.85162e-17
1.08376e-16
-9.74409e-17
1.26888e-16
-1.12784e-16
1.43722e-16
-1.24046e-16
1.47953e-16
-1.32217e-16
1.72637e-16
-9.38927e-17
1.9009e-16
-7.21667e-17
2.00217e-16
-9.76171e-17
1.87981e-16
-9.077e-17
1.7584e-16
-7.45743e-17
1.9665e-16
-5.74606e-17
2.78735e-16
-4.24943e-17
5.00278e-16
-2.12797e-17
2.37068e-15
1.97602e-16
3.06998e-15
-1.94335e-16
1.47607e-15
4.61104e-17
8.58298e-16
-3.67885e-18
5.51726e-16
-2.48626e-17
4.72451e-16
-3.58596e-17
4.1905e-16
-3.84994e-17
3.6028e-16
-3.73523e-17
3.03267e-16
-3.29188e-17
2.51396e-16
-2.63989e-17
2.03937e-16
-2.10673e-17
1.59747e-16
-1.77385e-17
1.18751e-16
-1.50815e-17
8.17755e-17
-1.04943e-17
5.13108e-17
-5.69267e-18
2.92787e-17
-2.52906e-18
-8.48697e-19
1.55371e-17
1.58812e-34
1.27016e-32
2.53774e-30
2.51744e-29
1.41134e-27
1.38801e-28
1.63108e-25
-1.00423e-24
6.9644e-24
-4.73942e-23
1.46595e-22
-9.05295e-22
1.80348e-21
-9.61086e-21
1.4495e-20
-6.57513e-20
8.23027e-20
-3.17258e-19
3.4979e-19
-1.14876e-18
1.16353e-18
-3.26892e-18
3.14106e-18
-7.58572e-18
7.10227e-18
-1.48266e-17
1.38551e-17
-2.5183e-17
2.3991e-17
-3.83761e-17
3.76684e-17
-5.35659e-17
5.48827e-17
-7.07465e-17
7.54188e-17
-9.13475e-17
1.00314e-16
-1.12918e-16
1.26979e-16
-1.29279e-16
1.46719e-16
-1.40767e-16
1.67921e-16
-1.47843e-16
2.00071e-16
-1.66693e-16
2.2484e-16
-1.71079e-16
2.3963e-16
-1.9011e-16
3.30517e-16
-1.7492e-16
1.8067e-16
-2.46427e-16
2.17549e-16
-1.21484e-16
2.12944e-16
-1.02116e-16
1.9872e-16
-8.51453e-17
1.96642e-16
-6.90789e-17
2.23424e-16
-5.22983e-17
2.99497e-16
-3.00145e-17
4.39532e-16
1.40978e-17
4.94553e-16
5.3224e-17
5.17759e-16
2.20278e-17
5.20616e-16
-1.39204e-17
4.99884e-16
-3.11483e-17
4.58413e-16
-4.24372e-17
4.1465e-16
-4.68927e-17
3.77986e-16
-4.65324e-17
3.46577e-16
-4.03731e-17
3.13897e-16
-2.98068e-17
2.77193e-16
-2.30497e-17
2.35229e-16
-2.11388e-17
1.89244e-16
-2.23128e-17
1.40302e-16
-1.70389e-17
9.42315e-17
-8.94927e-18
5.7552e-17
-3.89097e-18
-1.17814e-18
3.23271e-17
6.1879e-34
7.63365e-32
8.81923e-30
8.91712e-29
4.03027e-27
-6.09845e-27
4.02101e-25
-2.61377e-24
1.53461e-23
-1.03162e-22
2.95525e-22
-1.76575e-21
3.38092e-21
-1.72777e-20
2.55704e-20
-1.10765e-19
1.3784e-19
-5.06427e-19
5.60011e-19
-1.75163e-18
1.79108e-18
-4.79171e-18
4.67453e-18
-1.07496e-17
1.02792e-17
-2.04284e-17
1.96491e-17
-3.39762e-17
3.37121e-17
-5.12558e-17
5.30049e-17
-7.11065e-17
7.88598e-17
-9.5825e-17
1.14538e-16
-1.30384e-16
1.59096e-16
-1.63755e-16
2.02803e-16
-1.84676e-16
2.37356e-16
-1.96623e-16
2.57823e-16
-2.18601e-16
2.97763e-16
-2.09254e-16
3.07523e-16
-7.22703e-17
3.37908e-16
-2.22866e-16
3.3259e-16
-2.19814e-16
2.89506e-16
-1.90326e-16
2.65854e-16
-1.49002e-16
2.39769e-16
-1.29441e-16
2.24799e-16
-1.10046e-16
2.2092e-16
-8.88949e-17
2.29076e-16
-6.97286e-17
2.52027e-16
-4.75389e-17
2.98782e-16
-2.15998e-17
3.68336e-16
-5.35587e-18
4.47928e-16
-1.94316e-17
4.47139e-16
-3.21698e-17
4.52961e-16
-4.81618e-17
4.52281e-16
-5.95208e-17
4.49182e-16
-6.38948e-17
4.50316e-16
-6.4015e-17
4.47444e-16
-4.47307e-17
4.2544e-16
-1.24289e-17
4.10582e-16
-2.19721e-17
3.69806e-16
-1.64412e-17
3.1376e-16
-2.31203e-17
2.46742e-16
-2.19456e-17
1.74144e-16
-1.14319e-17
1.11506e-16
-5.23196e-18
-1.26616e-18
6.53482e-17
4.20983e-34
3.51836e-31
2.2295e-29
2.53936e-28
8.98678e-27
-2.59747e-26
7.98771e-25
-5.46915e-24
2.77624e-23
-1.86725e-22
4.9538e-22
-2.90918e-21
5.31941e-21
-2.65193e-20
3.81295e-20
-1.60662e-19
1.96247e-19
-7.01081e-19
7.65689e-19
-2.33169e-18
2.36338e-18
-6.17062e-18
5.98058e-18
-1.34645e-17
1.28176e-17
-2.50239e-17
2.40463e-17
-4.09635e-17
4.09511e-17
-6.14194e-17
6.42541e-17
-8.41864e-17
9.82236e-17
-1.16911e-16
1.52334e-16
-1.66708e-16
2.20281e-16
-2.04775e-16
2.89117e-16
-2.21414e-16
3.47076e-16
-2.41182e-16
3.98489e-16
-3.36375e-16
6.13163e-16
-2.70816e-16
2.36902e-16
-2.40616e-16
4.06052e-16
-2.36506e-16
4.2665e-16
-2.36224e-16
3.94765e-16
-1.97824e-16
3.27149e-16
-8.04232e-17
3.07212e-16
-1.39542e-16
2.85027e-16
-1.38029e-16
2.70927e-16
-1.14141e-16
2.70091e-16
-9.06602e-17
2.84366e-16
-7.03621e-17
3.24247e-16
-5.60252e-17
3.85139e-16
-5.01826e-17
4.22456e-16
-5.76355e-17
4.69286e-16
-6.66489e-17
5.03762e-16
-7.82339e-17
5.28956e-16
-8.6208e-17
5.52044e-16
-8.70087e-17
5.77428e-16
-8.30907e-17
6.66377e-16
-6.76124e-17
4.28365e-16
-3.76625e-17
5.75785e-16
-1.59699e-17
4.59198e-16
-6.38533e-18
3.61838e-16
6.06541e-17
3.44029e-16
3.33863e-17
2.99623e-16
-1.02697e-17
2.15658e-16
-5.50094e-18
-5.05531e-19
1.35198e-16
-4.38522e-30
1.23576e-30
3.84146e-29
5.86062e-28
1.55061e-26
-6.43568e-26
1.28032e-24
-9.36526e-24
4.14584e-23
-2.84386e-22
6.95812e-22
-4.09489e-21
7.09042e-21
-3.51646e-20
4.85868e-20
-2.03189e-19
2.40487e-19
-8.53326e-19
9.06771e-19
-2.75086e-18
2.71632e-18
-7.0992e-18
6.69798e-18
-1.51892e-17
1.40485e-17
-2.78221e-17
2.59338e-17
-4.51127e-17
4.38488e-17
-6.74094e-17
6.78632e-17
-9.08662e-17
1.06766e-16
-1.3201e-16
1.73956e-16
-1.90599e-16
2.48091e-16
-2.30299e-16
3.22628e-16
-2.17392e-16
4.4058e-16
-3.54607e-16
6.96091e-16
-2.74482e-16
5.29174e-16
-2.4802e-16
4.45191e-16
-3.51215e-16
4.27463e-16
-3.68384e-16
4.26019e-16
-2.94702e-16
3.95739e-16
-2.15955e-16
3.05173e-16
-1.86024e-16
3.23173e-16
-1.8285e-16
3.43448e-16
-1.68561e-16
3.24434e-16
-1.38871e-16
3.14171e-16
-1.13994e-16
3.25207e-16
-9.74844e-17
3.92783e-16
-8.90493e-17
4.92236e-16
-9.21283e-17
5.6884e-16
-9.61208e-17
6.1132e-16
-9.96425e-17
6.31943e-16
-1.08251e-16
6.42977e-16
-1.14243e-16
6.5339e-16
-1.11882e-16
6.59179e-16
-1.02556e-16
6.46564e-16
-8.44497e-17
6.27627e-16
-5.92137e-17
7.40101e-16
-3.39708e-17
4.35132e-15
7.59028e-16
3.76331e-15
-2.77368e-16
8.50429e-16
-2.01317e-16
4.73043e-16
5.21952e-20
3.72218e-16
-2.33697e-18
1.37823e-18
2.59155e-16
-2.09473e-29
3.32019e-30
3.54016e-29
1.11112e-27
2.03149e-26
-1.15588e-25
1.65728e-24
-1.3325e-23
5.14346e-23
-3.68689e-22
8.2636e-22
-4.97949e-21
8.09343e-21
-4.07453e-20
5.35601e-20
-2.26775e-19
2.57194e-19
-9.25033e-19
9.44777e-19
-2.9167e-18
2.76807e-18
-7.40808e-18
6.70103e-18
-1.56869e-17
1.38487e-17
-2.85733e-17
2.52796e-17
-4.62117e-17
4.24513e-17
-6.89012e-17
6.42161e-17
-9.19795e-17
1.04919e-16
-1.38365e-16
1.70023e-16
-1.83232e-16
2.35054e-16
-2.65646e-16
3.80748e-16
-3.3781e-16
5.2865e-16
-2.51731e-16
5.58395e-16
-1.11956e-16
1.38594e-15
-8.87677e-16
8.30733e-15
-5.54764e-15
5.63372e-15
-4.76007e-15
2.81369e-15
-1.25823e-14
3.43643e-16
-6.96247e-16
3.89724e-16
-2.50572e-16
3.99568e-16
-2.00355e-16
3.91693e-16
-1.83199e-16
3.59216e-16
-1.12221e-16
3.4786e-16
-1.35114e-16
3.63658e-16
-1.19192e-16
4.25886e-16
-1.06413e-16
5.43913e-16
-1.28642e-16
6.28594e-16
-1.30557e-16
6.79295e-16
-1.29064e-16
7.1088e-16
-1.40974e-16
7.27601e-16
-1.5115e-16
7.2512e-16
-1.46166e-16
7.07523e-16
-1.22313e-16
6.76062e-16
-1.01415e-16
6.34844e-16
-7.72575e-17
8.4716e-16
-3.04573e-16
1.77253e-14
7.2866e-16
1.72235e-14
1.8939e-16
5.39094e-15
-6.54052e-16
-2.6325e-16
1.46283e-16
3.45947e-16
3.40682e-19
5.64533e-18
3.03897e-16
-5.64195e-29
6.92488e-30
-1.17487e-27
1.76323e-27
1.91948e-26
-1.61418e-25
1.72781e-24
-1.59625e-23
5.33459e-23
-4.11231e-22
8.37659e-22
-5.28461e-21
8.00043e-21
-4.16807e-20
5.17273e-20
-2.25745e-19
2.43453e-19
-9.03115e-19
8.79699e-19
-2.81211e-18
2.54497e-18
-7.09773e-18
6.10629e-18
-1.50189e-17
1.25476e-17
-2.74536e-17
2.28081e-17
-4.46132e-17
3.80814e-17
-6.65098e-17
5.68495e-17
-8.96051e-17
9.45538e-17
-1.25027e-16
1.37841e-16
-1.28495e-16
4.79987e-16
-3.73543e-16
2.6142e-16
-3.7948e-16
1.51196e-16
-1.49865e-16
1.48675e-16
-1.12454e-16
1.01297e-14
-4.27293e-15
1.56231e-14
-1.14016e-14
2.0788e-14
-1.02846e-14
2.15792e-14
-1.37282e-14
6.50914e-16
-5.07968e-15
5.17903e-16
-9.95168e-16
4.28359e-16
-1.5505e-16
5.80142e-16
-1.80439e-16
2.32037e-16
-2.29363e-16