/*--------------------------------*- C++ -*----------------------------------*\
| =========                 |                                                 |
| \\      /  F ield         | OpenFOAM: The Open Source CFD Toolbox           |
|  \\    /   O peration     | Version:  2.4.0                                 |
|   \\  /    A nd           | Web:      www.OpenFOAM.org                      |
|    \\/     M anipulation  |                                                 |
\*---------------------------------------------------------------------------*/
FoamFile
{
    version     2.0;
    format      ascii;
    class       volScalarField;
    location    "0.089";
    object      p;
}
// * * * * * * * * * * * * * * * * * * * * * * * * * * * * * * * * * * * * * //

dimensions      [1 -1 -2 0 0 0 0];

internalField   nonuniform List<scalar> 
3600
(
96.473
96.4664
96.4627
96.4578
96.4497
96.4425
96.4249
96.4172
96.3862
96.3796
96.333
96.3264
96.2667
96.2561
96.1832
96.1591
96.0801
96.0294
95.9546
95.8605
95.8192
95.8439
95.9788
96.0603
96.1344
96.1304
96.1341
96.1123
96.1021
96.0881
93.2131
93.2107
93.2068
93.2011
93.1917
93.1853
93.1656
93.16
93.1259
93.1224
93.0726
93.0694
93.0066
92.9971
92.9247
92.8999
92.8209
92.7703
92.6953
92.5998
92.5574
92.5822
92.7187
92.8007
92.875
92.8707
92.8744
92.8524
92.8423
92.8282
89.9495
89.9489
89.9455
89.9415
89.9316
89.9268
89.9055
89.9024
89.8656
89.8653
89.8121
89.8121
89.7464
89.7392
89.6657
89.6418
89.5617
89.5119
89.4364
89.338
89.2937
89.319
89.4588
89.5417
89.616
89.6112
89.6146
89.5926
89.5824
89.5683
86.6934
86.6918
86.6877
86.685
86.6731
86.6709
86.6464
86.647
86.6057
86.61
86.5519
86.5561
86.4865
86.4825
86.4071
86.3848
86.3026
86.2541
86.1779
86.075
86.0279
86.0542
86.1989
86.2833
86.3575
86.352
86.355
86.3328
86.3225
86.3085
83.4388
83.4369
83.4312
83.4304
83.4156
83.4171
83.3878
83.3939
83.346
83.3563
83.2917
83.3015
83.2266
83.2268
83.1485
83.1288
83.0437
82.997
82.9199
82.8108
82.76
82.7876
82.9391
83.0254
83.0994
83.093
83.0953
83.073
83.0626
83.0486
80.1813
80.181
80.1749
80.1763
80.1588
80.1639
80.1299
80.1409
80.0866
80.1037
80.0314
80.0481
79.9669
79.9722
79.8902
79.8737
79.7849
79.7405
79.6625
79.5455
79.4898
79.5192
79.6794
79.7681
79.8418
79.8342
79.8357
79.8131
79.8026
79.7886
76.932
76.9322
76.9229
76.9284
76.9047
76.9173
76.8733
76.895
76.8276
76.8552
76.7713
76.7963
76.7072
76.7188
76.6323
76.6198
76.5263
76.4848
76.4062
76.2789
76.2173
76.2489
76.42
76.5115
76.5848
76.5757
76.5762
76.5534
76.5427
76.5287
73.6774
73.6787
73.6691
73.6763
73.6503
73.6651
73.6171
73.6418
73.5689
73.6038
73.5111
73.5458
73.4475
73.4665
73.3747
73.3668
73.2678
73.2298
73.151
73.011
72.9421
72.9765
73.1608
73.2555
73.3283
73.3173
73.3168
73.2936
73.2828
73.2688
70.4385
70.4421
70.4267
70.4414
70.4039
70.4321
70.3653
70.4108
70.3114
70.3645
70.251
70.2975
70.1878
70.2152
70.1176
70.1149
70.0093
69.9755
69.8973
69.7417
69.6639
69.702
69.902
70.0003
70.0723
70.0592
70.0573
70.0338
70.0228
70.0088
67.184
67.1878
67.1764
67.1839
67.1558
67.1713
67.1131
67.1445
67.0545
67.1091
66.9912
67.0484
66.9283
66.965
66.8612
66.8643
66.7509
66.7221
66.6456
66.4711
66.3826
66.4251
66.6437
66.746
66.8169
66.8013
66.7979
66.774
66.7628
66.7489
63.9719
63.9766
63.9594
63.9711
63.927
63.9612
63.8731
63.945
63.8009
63.8874
63.7318
63.806
63.6688
63.7157
63.6055
63.6147
63.492
63.4693
63.3964
63.1989
63.0977
63.1456
63.386
63.4925
63.5621
63.5436
63.5385
63.5142
63.5028
63.4889
60.7142
60.7177
60.7091
60.7074
60.6823
60.6809
60.6248
60.6545
60.5475
60.6161
60.4727
60.5549
60.4093
60.4673
60.3508
60.3666
60.2336
60.2173
60.1506
59.9252
59.8088
59.8633
60.129
60.24
60.3078
60.286
60.2792
60.2544
60.2427
60.2289
57.5355
57.5436
57.5225
57.5287
57.4759
57.5017
57.3948
57.4663
57.3008
57.4232
57.2145
57.3223
57.1498
57.2199
57.0961
57.1199
56.9731
56.9659
56.9089
56.6499
56.5154
56.5781
56.8729
56.9888
57.0543
57.0287
57.0198
56.9946
56.9827
56.9689
54.3075
54.3157
54.2754
54.2947
54.2342
54.2545
54.1518
54.2089
54.0464
54.1277
53.9566
54.0637
53.8904
53.9729
53.8458
53.8754
53.714
53.7149
53.6723
53.3728
53.2184
53.2893
53.618
53.7386
53.8013
53.7715
53.7605
53.7348
53.7226
53.7089
51.148
51.1551
51.1211
51.1217
51.0516
51.0682
50.9412
50.994
50.8081
50.9649
50.7
50.8452
50.6297
50.7267
50.5901
50.6316
50.4498
50.463
50.4417
50.0938
49.9132
49.9968
50.3637
50.4905
50.5491
50.5145
50.5011
50.4749
50.4625
50.4489
47.9723
47.9798
47.904
47.9214
47.8107
47.8449
47.6958
47.7457
47.5539
47.6455
47.4439
47.5739
47.3709
47.481
47.3492
47.3929
47.1889
47.2181
47.2186
46.8131
46.6009
46.7002
47.1108
47.2443
47.2976
47.2576
47.2418
47.2151
47.2024
47.1889
44.9049
44.8776
44.7786
44.7892
44.6728
44.6842
44.5062
44.5477
44.3197
44.5057
44.1898
44.3711
44.1068
44.2349
44.0888
44.1526
43.9176
43.9616
44.0038
43.5304
43.2804
43.3988
43.8595
44
44.0468
44.0008
43.9824
43.9552
43.9423
43.9288
41.8739
41.7782
41.555
41.6099
41.4181
41.4647
41.2415
41.317
41.0529
41.1709
40.9364
41.0861
40.8477
40.9896
40.8633
40.9228
40.6525
40.725
40.7997
40.2461
39.9504
40.0923
40.6102
40.7581
40.7968
40.7441
40.7229
40.6953
40.6821
40.6687
38.6471
38.5253
38.4213
38.5553
38.3465
38.3597
38.0845
38.1522
37.8234
38.0395
37.687
37.8937
37.5771
37.7421
37.5973
37.6879
37.3684
37.4658
37.6071
36.9601
36.6091
36.7802
37.3634
37.519
37.5475
37.4875
37.4634
37.4354
37.422
37.4087
35.8815
36.9851
34.9133
35.349
35.034
35.1422
34.778
34.9155
34.5279
34.6952
34.438
34.6031
34.3145
34.4962
34.3898
34.471
34.094
34.2325
34.43
33.6731
33.2555
33.4616
34.1194
34.2828
34.2989
34.2308
34.2038
34.1754
34.1617
34.1486
32.2499
33.8625
32.7108
32.5998
32.1203
32.129
31.6678
31.8379
31.3141
31.5564
31.2011
31.4042
31.0342
31.2449
31.1243
31.2456
30.7906
30.9799
31.267
30.385
29.8847
30.1358
30.8789
31.05
31.051
30.9741
30.9441
30.9153
30.9015
30.8884
27.9513
30.617
29.1798
29.7808
28.8399
28.895
28.3124
28.4803
27.9989
28.1968
27.9612
28.1264
27.7546
27.9968
27.9317
28.0478
27.4953
27.7489
28.1273
27.0975
26.4986
26.802
27.6425
27.8212
27.8039
27.7172
27.6844
27.6553
27.6412
27.6283
27.732
28.3942
27.8527
26.9036
26.142
25.9805
25.2996
25.5219
24.8245
25.0241
24.7586
24.9129
24.4523
24.7373
24.6862
24.8375
24.1647
24.4952
25.0062
23.8104
23.0869
23.4591
24.4111
24.5967
24.5577
24.4602
24.4244
24.3951
24.3809
24.3682
13.2261
28.4063
21.2762
24.0702
22.2355
22.6704
21.7779
22.1564
21.4194
21.6387
21.5158
21.6475
21.1378
21.4826
21.5046
21.6717
20.8303
21.2643
21.9219
20.5268
19.6537
20.1074
21.1854
21.377
21.312
21.2029
21.1643
21.1349
21.1206
21.108
24.7934
23.9146
22.4599
21.1723
21.2712
19.9659
18.9072
19.1885
18.2542
18.403
18.3633
18.4366
17.7834
18.2103
18.2745
18.4788
17.458
18.0062
18.8598
17.2466
16.1858
16.7398
17.9651
18.1625
18.0684
17.9453
17.904
17.8746
17.8603
17.8479
13.6945
19.2042
13.0164
18.0057
17.0728
16.4669
15.0147
15.9357
14.678
14.9285
15.1404
15.1857
14.3752
14.938
15.1241
15.3696
14.0613
14.7681
15.8564
13.9745
12.685
13.3673
14.7582
14.9561
14.8235
14.687
14.6434
14.6143
14.5999
14.5876
17.5249
20.1431
16.6833
18.5825
20.7722
14.0761
11.8862
13.0797
11.3838
11.6023
12.0825
11.9664
10.9433
11.6609
11.9004
12.2137
10.6203
11.4939
12.8754
10.7027
9.13916
9.96762
11.5488
11.7514
11.5808
11.4286
11.3828
11.3539
11.3395
11.3274
4.68328
21.5019
-3.70737
18.0737
14.9477
10.2422
6.88
9.90655
7.55533
7.88794
8.92591
8.68865
7.30834
8.29965
8.82381
9.1406
7.13093
8.23812
10.0282
7.43416
5.54336
6.56451
8.37238
8.56617
8.33764
8.16853
8.12152
8.09335
8.07905
8.06719
43.9129
27.1215
-1.6993
23.9095
25.3427
6.00796
1.1766
7.5063
3.96652
4.29749
6.1901
5.40215
3.88496
5.02735
5.57554
6.08605
3.58393
4.93468
7.1368
4.17713
1.89864
3.13021
5.17421
5.36766
5.09512
4.90877
4.8606
4.83293
4.81873
4.80702
66.0429
85.864
-25.8657
33.0646
29.2518
-1.2101
-8.65045
5.3421
-0.32642
0.72559
3.26809
2.48489
0.538793
1.84507
2.76947
3.18446
0.558594
1.91804
4.5497
1.45092
-0.450473
0.379689
2.16145
2.24005
1.8573
1.64581
1.59791
1.57198
1.55796
1.54657
96.0835
96.0808
96.079
96.0771
96.0756
96.0744
96.0733
96.0724
96.0716
96.071
96.0704
96.07
96.0696
96.0693
96.069
96.0688
96.0686
96.0684
96.0682
96.0681
96.0679
96.0679
96.0676
96.0677
96.0673
96.0675
96.067
96.0673
96.0669
96.0672
92.8236
92.8209
92.8191
92.8172
92.8158
92.8145
92.8134
92.8125
92.8118
92.8111
92.8106
92.8101
92.8097
92.8094
92.8091
92.8089
92.8087
92.8085
92.8084
92.8082
92.8081
92.808
92.8078
92.8078
92.8074
92.8076
92.8071
92.8074
92.807
92.8073
89.5637
89.561
89.5592
89.5573
89.5559
89.5546
89.5536
89.5527
89.5519
89.5512
89.5507
89.5502
89.5499
89.5495
89.5493
89.549
89.5488
89.5487
89.5485
89.5484
89.5482
89.5482
89.5479
89.5479
89.5476
89.5477
89.5473
89.5476
89.5472
89.5474
86.3038
86.3012
86.2993
86.2975
86.296
86.2948
86.2937
86.2928
86.292
86.2914
86.2908
86.2904
86.29
86.2897
86.2894
86.2892
86.289
86.2888
86.2887
86.2885
86.2884
86.2883
86.2881
86.2881
86.2877
86.2879
86.2874
86.2877
86.2873
86.2876
83.0439
83.0413
83.0394
83.0376
83.0361
83.0349
83.0338
83.0329
83.0321
83.0315
83.031
83.0305
83.0301
83.0298
83.0295
83.0293
83.0291
83.0289
83.0288
83.0287
83.0285
83.0284
83.0282
83.0282
83.0278
83.028
83.0275
83.0278
83.0274
83.0277
79.784
79.7813
79.7795
79.7776
79.7762
79.775
79.7739
79.773
79.7722
79.7716
79.7711
79.7706
79.7702
79.7699
79.7696
79.7694
79.7692
79.7691
79.7689
79.7688
79.7686
79.7686
79.7683
79.7683
79.768
79.7681
79.7676
79.768
79.7675
79.7678
76.5241
76.5214
76.5196
76.5178
76.5163
76.5151
76.514
76.5131
76.5124
76.5118
76.5112
76.5108
76.5104
76.5101
76.5098
76.5096
76.5094
76.5092
76.5091
76.5089
76.5088
76.5087
76.5085
76.5085
76.5081
76.5083
76.5078
76.5081
76.5076
76.508
73.2641
73.2615
73.2596
73.2578
73.2564
73.2552
73.2541
73.2532
73.2525
73.2518
73.2513
73.2509
73.2505
73.2502
73.2499
73.2497
73.2495
73.2493
73.2492
73.2491
73.2489
73.2488
73.2486
73.2486
73.2483
73.2484
73.2479
73.2483
73.2477
73.2482
70.0042
70.0015
69.9997
69.9979
69.9965
69.9952
69.9942
69.9933
69.9926
69.9919
69.9914
69.991
69.9906
69.9903
69.99
69.9898
69.9896
69.9894
69.9893
69.9892
69.989
69.989
69.9887
69.9888
69.9884
69.9885
69.988
69.9884
69.9878
69.9883
66.7442
66.7416
66.7398
66.738
66.7366
66.7354
66.7343
66.7334
66.7327
66.7321
66.7316
66.7311
66.7308
66.7304
66.7302
66.73
66.7298
66.7296
66.7295
66.7293
66.7292
66.7291
66.7289
66.7289
66.7285
66.7287
66.7281
66.7286
66.7279
66.7285
63.4842
63.4817
63.4798
63.478
63.4766
63.4754
63.4744
63.4735
63.4728
63.4722
63.4717
63.4712
63.4709
63.4705
63.4703
63.4701
63.4699
63.4697
63.4696
63.4695
63.4693
63.4693
63.469
63.469
63.4687
63.4688
63.4682
63.4687
63.468
63.4686
60.2242
60.2217
60.2198
60.2181
60.2167
60.2155
60.2144
60.2136
60.2129
60.2123
60.2117
60.2113
60.211
60.2106
60.2104
60.2102
60.21
60.2098
60.2097
60.2096
60.2094
60.2094
60.2091
60.2092
60.2088
60.209
60.2083
60.2088
60.208
60.2088
56.9642
56.9617
56.9599
56.9582
56.9568
56.9556
56.9546
56.9537
56.953
56.9524
56.9519
56.9515
56.9511
56.9508
56.9505
56.9503
56.9502
56.95
56.9499
56.9498
56.9496
56.9495
56.9493
56.9493
56.9489
56.9491
56.9484
56.949
56.9481
56.949
53.7042
53.7017
53.6999
53.6982
53.6968
53.6956
53.6946
53.6938
53.6931
53.6925
53.692
53.6915
53.6912
53.6909
53.6907
53.6904
53.6903
53.6901
53.69
53.6899
53.6897
53.6897
53.6894
53.6895
53.6891
53.6892
53.6885
53.6891
53.6881
53.6892
50.4442
50.4417
50.4399
50.4382
50.4368
50.4356
50.4346
50.4338
50.4331
50.4325
50.432
50.4316
50.4313
50.431
50.4308
50.4305
50.4304
50.4302
50.4301
50.43
50.4298
50.4298
50.4296
50.4296
50.4292
50.4294
50.4286
50.4293
50.4281
50.4294
47.1842
47.1817
47.1799
47.1782
47.1769
47.1757
47.1747
47.1739
47.1732
47.1726
47.1722
47.1718
47.1714
47.1711
47.1709
47.1707
47.1705
47.1704
47.1703
47.1702
47.17
47.17
47.1698
47.1698
47.1694
47.1695
47.1687
47.1695
47.1681
47.1696
43.9241
43.9217
43.9199
43.9182
43.9169
43.9157
43.9148
43.914
43.9133
43.9127
43.9122
43.9118
43.9115
43.9112
43.911
43.9108
43.9106
43.9105
43.9104
43.9103
43.9101
43.9101
43.9099
43.9099
43.9095
43.9097
43.9088
43.9096
43.9081
43.9099
40.664
40.6616
40.6598
40.6582
40.6569
40.6558
40.6548
40.654
40.6533
40.6528
40.6523
40.6519
40.6516
40.6513
40.6511
40.6509
40.6507
40.6506
40.6505
40.6504
40.6503
40.6502
40.65
40.65
40.6496
40.6498
40.6489
40.6497
40.648
40.6501
37.404
37.4016
37.3998
37.3982
37.3969
37.3958
37.3949
37.3941
37.3934
37.3929
37.3924
37.392
37.3917
37.3915
37.3912
37.3911
37.3909
37.3908
37.3906
37.3905
37.3904
37.3904
37.3902
37.3902
37.3898
37.3899
37.389
37.3899
37.3879
37.3904
34.1439
34.1416
34.1398
34.1382
34.1369
34.1358
34.1349
34.1341
34.1335
34.1329
34.1325
34.1321
34.1318
34.1316
34.1313
34.1312
34.131
34.1309
34.1308
34.1307
34.1306
34.1305
34.1303
34.1303
34.1299
34.1301
34.129
34.1301
34.1277
34.1308
30.8838
30.8815
30.8797
30.8782
30.8769
30.8758
30.8749
30.8742
30.8735
30.873
30.8726
30.8722
30.8719
30.8716
30.8714
30.8713
30.8711
30.871
30.8709
30.8708
30.8707
30.8706
30.8705
30.8704
30.8701
30.8702
30.8691
30.8702
30.8675
30.8711
27.6237
27.6214
27.6197
27.6182
27.6169
27.6159
27.615
27.6142
27.6136
27.6131
27.6127
27.6123
27.612
27.6118
27.6116
27.6114
27.6113
27.6111
27.611
27.6109
27.6109
27.6108
27.6107
27.6106
27.6103
27.6104
27.6092
27.6105
27.6072
27.6117
24.3635
24.3613
24.3596
24.3581
24.3569
24.3558
24.355
24.3543
24.3536
24.3531
24.3527
24.3524
24.3521
24.3519
24.3517
24.3515
24.3514
24.3512
24.3511
24.3511
24.351
24.3509
24.3508
24.3507
24.3504
24.3505
24.3493
24.3506
24.3468
24.352
21.1034
21.1012
21.0995
21.0981
21.0968
21.0958
21.095
21.0943
21.0937
21.0932
21.0928
21.0925
21.0922
21.0919
21.0918
21.0916
21.0915
21.0914
21.0913
21.0912
21.0911
21.091
21.0909
21.0909
21.0906
21.0906
21.0893
21.0908
21.0863
21.0929
17.8433
17.8412
17.8395
17.838
17.8368
17.8358
17.835
17.8343
17.8338
17.8333
17.8329
17.8326
17.8323
17.8321
17.8319
17.8317
17.8316
17.8315
17.8314
17.8313
17.8313
17.8312
17.8311
17.831
17.8308
17.8308
17.8294
17.831
17.8256
17.8333
14.5831
14.581
14.5794
14.578
14.5768
14.5758
14.575
14.5743
14.5738
14.5733
14.5729
14.5726
14.5724
14.5722
14.572
14.5718
14.5717
14.5716
14.5715
14.5714
14.5714
14.5713
14.5713
14.5712
14.5709
14.5709
14.5695
14.5712
14.5649
14.5747
11.3229
11.3209
11.3193
11.3179
11.3167
11.3158
11.315
11.3143
11.3138
11.3134
11.313
11.3127
11.3124
11.3122
11.3121
11.3119
11.3118
11.3117
11.3116
11.3116
11.3116
11.3114
11.3114
11.3113
11.3111
11.3111
11.3096
11.3113
11.3037
11.3149
8.06272
8.06075
8.05916
8.0578
8.0567
8.05577
8.05501
8.05438
8.05386
8.05343
8.05308
8.05279
8.05256
8.05236
8.0522
8.05207
8.05196
8.05187
8.0518
8.05172
8.05173
8.0516
8.05165
8.05146
8.05137
8.05127
8.0498
8.05157
8.04289
8.05725
4.80258
4.80065
4.79908
4.79775
4.79667
4.79576
4.79502
4.7944
4.7939
4.79348
4.79314
4.79286
4.79263
4.79245
4.79229
4.79216
4.79206
4.79197
4.79191
4.79183
4.79186
4.79171
4.7918
4.79159
4.79155
4.79141
4.78986
4.79167
4.78075
4.79681
1.54221
1.54035
1.53882
1.53754
1.5365
1.53563
1.53493
1.53434
1.53386
1.53347
1.53315
1.53289
1.53268
1.5325
1.53236
1.53224
1.53215
1.53206
1.53202
1.53193
1.532
1.53182
1.53208
1.53171
1.53215
1.53155
1.53104
1.5318
1.52184
1.54261
17.0744
35.7411
-5.512
39.876
14.1456
-0.286106
-1.90137
-0.0346018
-0.0103383
0.459775
0.722065
0.325611
0.0363092
0.0889353
0.146691
0.499096
0.135048
0.262449
0.557507
0.086212
-0.0937388
-0.078692
0.032016
0.0258082
0.00292713
-0.0464216
-0.0655696
-0.08008
-0.087847
-0.0936655
7.93695
16.9696
26.9224
0.977288
-0.372945
-0.0649175
-0.153364
-0.107223
-0.116087
-0.113659
-0.11235
-0.113701
-0.102901
-0.10905
-0.108299
-0.108612
-0.106786
-0.107456
-0.111893
-0.106683
-0.104564
-0.103438
-0.111004
-0.107468
-0.109249
-0.107234
-0.108412
-0.10753
-0.108118
-0.107805
5.56626
3.11457
-0.583831
0.0292663
-0.201321
-0.0655724
-0.131657
-0.092447
-0.123272
-0.112753
-0.116211
-0.117065
-0.110012
-0.113938
-0.11365
-0.115152
-0.113816
-0.113634
-0.117905
-0.113658
-0.111541
-0.10991
-0.117127
-0.113793
-0.115755
-0.113773
-0.114954
-0.114071
-0.114658
-0.114344
2.22974
4.54465
0.0428268
0.199034
-0.219754
-0.00480549
-0.141801
-0.0898191
-0.120065
-0.118021
-0.117789
-0.122959
-0.116751
-0.121891
-0.119846
-0.121214
-0.12077
-0.120371
-0.123446
-0.119703
-0.119208
-0.117498
-0.123257
-0.120217
-0.122232
-0.120331
-0.1215
-0.12062
-0.1212
-0.120887
5.9654
3.00294
4.24924
2.22945
-0.11266
-0.131443
-0.144732
-0.119499
-0.127671
-0.126484
-0.125986
-0.128415
-0.124416
-0.127152
-0.126539
-0.127132
-0.127591
-0.126563
-0.129524
-0.126056
-0.126217
-0.12432
-0.129479
-0.126655
-0.12871
-0.126881
-0.128036
-0.127167
-0.12774
-0.127429
0.371616
1.06149
-0.551243
0.391269
-0.113436
-0.134649
-0.121235
-0.132649
-0.124101
-0.134645
-0.128282
-0.135541
-0.130604
-0.134927
-0.133223
-0.13368
-0.134313
-0.13311
-0.135602
-0.132508
-0.133332
-0.131317
-0.135789
-0.133147
-0.135189
-0.133434
-0.134569
-0.133717
-0.134279
-0.133971
1.66087
0.869098
-0.170366
-0.166427
-0.134881
-0.136167
-0.135423
-0.137244
-0.136843
-0.139286
-0.137657
-0.140203
-0.137995
-0.139637
-0.139954
-0.139621
-0.140969
-0.139366
-0.141924
-0.138984
-0.140179
-0.138106
-0.142139
-0.139651
-0.141668
-0.139986
-0.141104
-0.140264
-0.140818
-0.140513
5.86304
-0.619154
-0.164086
-0.203735
-0.146841
-0.164138
-0.143562
-0.150394
-0.141446
-0.148171
-0.142859
-0.147826
-0.144909
-0.147045
-0.146721
-0.146339
-0.147598
-0.145936
-0.148276
-0.145509
-0.14704
-0.144912
-0.148522
-0.146187
-0.148149
-0.14654
-0.147636
-0.146812
-0.147355
-0.147055
4.01166
-0.110143
-0.172025
-0.139001
-0.154975
-0.14689
-0.15143
-0.149022
-0.150545
-0.15096
-0.151024
-0.151807
-0.152028
-0.152271
-0.153385
-0.152427
-0.154193
-0.152324
-0.154693
-0.152056
-0.153773
-0.151659
-0.15493
-0.152725
-0.154632
-0.153095
-0.154164
-0.153361
-0.153891
-0.153598
6.30058
0.114468
-0.146718
-0.146769
-0.157315
-0.158225
-0.156695
-0.15828
-0.156418
-0.15907
-0.157778
-0.15951
-0.15906
-0.159362
-0.160083
-0.159102
-0.160776
-0.158879
-0.161149
-0.158631
-0.160482
-0.158386
-0.16136
-0.159283
-0.161118
-0.159652
-0.160691
-0.159912
-0.160427
-0.160141
5.10046
1.75198
-0.146028
-0.129556
-0.143857
-0.15014
-0.156902
-0.158432
-0.162116
-0.163063
-0.164549
-0.16466
-0.165839
-0.165262
-0.166749
-0.165461
-0.167343
-0.1654
-0.167625
-0.165221
-0.167122
-0.165082
-0.167805
-0.165844
-0.167604
-0.16621
-0.167216
-0.166463
-0.166961
-0.166684
1.09375
0.926668
-0.00991622
-0.165943
-0.160507
-0.16958
-0.167662
-0.169506
-0.170369
-0.170976
-0.171751
-0.171902
-0.172715
-0.172155
-0.173418
-0.172082
-0.173901
-0.17197
-0.174115
-0.171826
-0.173751
-0.171763
-0.174263
-0.172415
-0.174093
-0.17277
-0.173738
-0.173014
-0.173495
-0.173227
0.117714
-0.096913
-0.036015
-0.135727
-0.152207
-0.163271
-0.170059
-0.174123
-0.176947
-0.177403
-0.178858
-0.178297
-0.179558
-0.178594
-0.180072
-0.178656
-0.180451
-0.178562
-0.180613
-0.178442
-0.180341
-0.178429
-0.18073
-0.17899
-0.180584
-0.179331
-0.18026
-0.179567
-0.180029
-0.17977
0.330034
-0.242992
-0.181435
-0.279192
-0.170267
-0.202014
-0.180912
-0.186606
-0.184986
-0.185101
-0.185909
-0.185335
-0.186393
-0.185378
-0.186716
-0.185294
-0.186993
-0.185174
-0.187114
-0.185066
-0.186913
-0.185084
-0.187204
-0.185569
-0.187076
-0.185894
-0.186781
-0.18612
-0.186562
-0.186314
11.697
0.299928
0.737939
-0.289571
-0.281697
-0.216647
-0.21017
-0.199364
-0.197064
-0.193677
-0.193992
-0.19242
-0.193294
-0.192133
-0.193346
-0.191957
-0.193528
-0.191802
-0.193615
-0.191696
-0.193466
-0.191731
-0.193683
-0.192151
-0.193569
-0.192458
-0.1933
-0.192674
-0.193094
-0.192857
6.74103
6.1853
5.56628
0.435457
-0.231989
-0.184254
-0.200007
-0.197428
-0.199931
-0.199178
-0.200092
-0.199166
-0.199974
-0.198895
-0.199952
-0.198637
-0.200056
-0.198442
-0.200116
-0.19833
-0.200006
-0.198371
-0.200166
-0.198736
-0.200064
-0.199023
-0.19982
-0.199228
-0.199626
-0.199401
7.81612
5.36284
0.769701
-0.228797
-0.253884
-0.22025
-0.219114
-0.20805
-0.21013
-0.206485
-0.207819
-0.206087
-0.206781
-0.205672
-0.20654
-0.205325
-0.206576
-0.205088
-0.206615
-0.204966
-0.206534
-0.205006
-0.206652
-0.205323
-0.206559
-0.205589
-0.206338
-0.205783
-0.206157
-0.205945
0.0583111
0.132846
0.0309503
-0.263212
-0.248603
-0.222538
-0.224865
-0.214654
-0.216903
-0.213696
-0.214281
-0.213073
-0.213376
-0.212456
-0.213102
-0.212014
-0.213089
-0.211738
-0.213112
-0.211602
-0.213054
-0.211637
-0.21314
-0.211911
-0.213055
-0.212157
-0.212855
-0.212337
-0.212688
-0.212489
-0.240343
-0.283425
-0.250822
-0.249035
-0.233662
-0.226112
-0.228581
-0.22202
-0.223741
-0.220709
-0.221169
-0.219886
-0.219995
-0.219196
-0.219647
-0.218695
-0.219596
-0.218386
-0.219609
-0.218238
-0.219567
-0.218264
-0.21963
-0.218501
-0.219553
-0.218725
-0.219373
-0.218893
-0.219219
-0.219034
-0.133555
-0.256587
-0.240578
-0.241934
-0.233607
-0.230627
-0.232029
-0.228939
-0.229465
-0.227873
-0.227477
-0.226782
-0.226533
-0.225914
-0.226174
-0.225362
-0.226098
-0.225031
-0.226103
-0.224874
-0.226075
-0.224888
-0.22612
-0.225091
-0.22605
-0.225295
-0.225889
-0.225449
-0.225748
-0.225578
-0.228267
-0.26167
-0.24317
-0.239673
-0.236914
-0.236679
-0.236713
-0.235165
-0.235465
-0.234399
-0.233932
-0.233389
-0.233049
-0.232568
-0.232687
-0.23201
-0.232597
-0.231668
-0.232597
-0.231504
-0.232579
-0.231508
-0.232611
-0.231682
-0.232549
-0.231864
-0.232405
-0.232005
-0.232278
-0.232123
-0.26842
-0.265807
-0.254042
-0.24929
-0.246026
-0.24452
-0.24341
-0.242315
-0.241813
-0.241064
-0.240442
-0.239966
-0.23956
-0.239186
-0.23919
-0.238639
-0.239093
-0.238298
-0.239091
-0.238131
-0.239081
-0.238127
-0.239104
-0.238273
-0.239048
-0.238435
-0.238921
-0.238562
-0.238808
-0.238668
-0.250938
-0.257451
-0.257421
-0.257452
-0.255944
-0.253491
-0.250941
-0.24936
-0.248304
-0.247525
-0.246846
-0.24643
-0.246035
-0.245751
-0.245682
-0.245246
-0.245586
-0.244917
-0.245584
-0.244753
-0.24558
-0.244742
-0.245596
-0.244864
-0.245547
-0.245006
-0.245437
-0.245118
-0.245337
-0.245212
-0.243509
-0.261199
-0.25673
-0.25695
-0.255806
-0.255849
-0.254481
-0.253746
-0.253638
-0.253395
-0.253063
-0.252818
-0.252483
-0.252281
-0.252165
-0.251833
-0.252079
-0.251527
-0.252077
-0.251371
-0.252077
-0.251355
-0.252089
-0.251456
-0.252047
-0.251578
-0.251952
-0.251675
-0.251865
-0.251757
0.260554
-0.174452
-0.262504
-0.258902
-0.260061
-0.259391
-0.259249
-0.259475
-0.259595
-0.259614
-0.25934
-0.2592
-0.258919
-0.258782
-0.258646
-0.258402
-0.258573
-0.258128
-0.258572
-0.257985
-0.258575
-0.257966
-0.258583
-0.258048
-0.258547
-0.25815
-0.258468
-0.258233
-0.258394
-0.258302
1.16726
-0.185082
-0.271378
-0.261387
-0.266186
-0.262333
-0.262626
-0.265121
-0.26587
-0.265692
-0.265654
-0.265555
-0.265349
-0.26526
-0.265128
-0.264955
-0.265067
-0.264719
-0.265067
-0.264594
-0.265071
-0.264575
-0.265076
-0.264639
-0.265047
-0.264722
-0.264983
-0.26479
-0.264923
-0.264847
1.54863
-0.260944
-0.268075
-0.266037
-0.262611
-0.275704
-0.271661
-0.272688
-0.272301
-0.272219
-0.272005
-0.271968
-0.27178
-0.271729
-0.27161
-0.271495
-0.271563
-0.271302
-0.271564
-0.2712
-0.271567
-0.271182
-0.27157
-0.27123
-0.271548
-0.271295
-0.271498
-0.271347
-0.271451
-0.271392
0.875843
0.255681
-0.212428
-0.265951
-0.257518
-0.280272
-0.278989
-0.278937
-0.27862
-0.278527
-0.2784
-0.278353
-0.278221
-0.278188
-0.278094
-0.278022
-0.278062
-0.277879
-0.278062
-0.277803
-0.278064
-0.277788
-0.278065
-0.277822
-0.278049
-0.277868
-0.278013
-0.277906
-0.27798
-0.277937
0.518129
0.60938
-0.22251
-0.271965
-0.268116
-0.285229
-0.284737
-0.28487
-0.28467
-0.284796
-0.284679
-0.284736
-0.284641
-0.28464
-0.284582
-0.284539
-0.284562
-0.28445
-0.28456
-0.284402
-0.28456
-0.284393
-0.284559
-0.284413
-0.284549
-0.28444
-0.284528
-0.284463
-0.284508
-0.284482
0.694377
-0.203122
-0.337331
-0.278345
-0.298303
-0.289502
-0.291489
-0.291169
-0.291143
-0.291172
-0.291181
-0.291128
-0.291109
-0.291088
-0.291075
-0.29105
-0.291064
-0.291018
-0.291059
-0.291001
-0.291056
-0.290998
-0.291054
-0.291004
-0.29105
-0.291013
-0.291043
-0.291021
-0.291036
-0.291027
-0.0959342
-0.0969179
-0.0977041
-0.0983742
-0.0989141
-0.0993687
-0.0997383
-0.100046
-0.100296
-0.100503
-0.100671
-0.100809
-0.100922
-0.101015
-0.101091
-0.101155
-0.101207
-0.101253
-0.101294
-0.101329
-0.101396
-0.101392
-0.101438
-0.101446
-0.101477
-0.101448
-0.101551
-0.10115
-0.102645
-0.102203
-0.107882
-0.107874
-0.107886
-0.107886
-0.107894
-0.107897
-0.107903
-0.107905
-0.10791
-0.107912
-0.107916
-0.107919
-0.107922
-0.107925
-0.107928
-0.107931
-0.107935
-0.107939
-0.107944
-0.107951
-0.107958
-0.10797
-0.10798
-0.108001
-0.108016
-0.108052
-0.108074
-0.108172
-0.108137
-0.10859
-0.114422
-0.114412
-0.114425
-0.114426
-0.114434
-0.114436
-0.114442
-0.114445
-0.114449
-0.114452
-0.114456
-0.114458
-0.114461
-0.114464
-0.114467
-0.114471
-0.114474
-0.114479
-0.114483
-0.114491
-0.114496
-0.114509
-0.114519
-0.114541
-0.114558
-0.114601
-0.114649
-0.114773
-0.114928
-0.115847
-0.120964
-0.120954
-0.120966
-0.120967
-0.120975
-0.120977
-0.120983
-0.120986
-0.12099
-0.120993
-0.120996
-0.120999
-0.121002
-0.121005
-0.121008
-0.121011
-0.121015
-0.121019
-0.121024
-0.121031
-0.121037
-0.121049
-0.121059
-0.121079
-0.121093
-0.121127
-0.121149
-0.121221
-0.121156
-0.121614
-0.127505
-0.127495
-0.127507
-0.127508
-0.127515
-0.127518
-0.127523
-0.127526
-0.12753
-0.127533
-0.127536
-0.127539
-0.127542
-0.127545
-0.127548
-0.127551
-0.127554
-0.127559
-0.127563
-0.12757
-0.127576
-0.127588
-0.127597
-0.127618
-0.127632
-0.127669
-0.127701
-0.127789
-0.127749
-0.128205
-0.134047
-0.134036
-0.134048
-0.134049
-0.134056
-0.134058
-0.134064
-0.134066
-0.13407
-0.134073
-0.134076
-0.134079
-0.134082
-0.134085
-0.134088
-0.134091
-0.134094
-0.134098
-0.134103
-0.134109
-0.134115
-0.134127
-0.134135
-0.134155
-0.134166
-0.134196
-0.134209
-0.134265
-0.134181
-0.134451
-0.140589
-0.140578
-0.14059
-0.14059
-0.140597
-0.140599
-0.140605
-0.140607
-0.140611
-0.140614
-0.140617
-0.140619
-0.140622
-0.140625
-0.140628
-0.140631
-0.140634
-0.140638
-0.140642
-0.140649
-0.140654
-0.140666
-0.140673
-0.140692
-0.140701
-0.140732
-0.140743
-0.140805
-0.140728
-0.140961
-0.147131
-0.147119
-0.147131
-0.147131
-0.147138
-0.14714
-0.147145
-0.147147
-0.147151
-0.147154
-0.147157
-0.147159
-0.147162
-0.147165
-0.147167
-0.14717
-0.147173
-0.147178
-0.147181
-0.147188
-0.147193
-0.147204
-0.14721
-0.147228
-0.147235
-0.147262
-0.147264
-0.147307
-0.14723
-0.147371
-0.153672
-0.15366
-0.153672
-0.153672
-0.153678
-0.15368
-0.153685
-0.153687
-0.153691
-0.153694
-0.153697
-0.153699
-0.153702
-0.153704
-0.153707
-0.15371
-0.153713
-0.153717
-0.15372
-0.153726
-0.153731
-0.153741
-0.153747
-0.153764
-0.153769
-0.153793
-0.153791
-0.153832
-0.153763
-0.153875
-0.160214
-0.160202
-0.160213
-0.160213
-0.160219
-0.160221
-0.160226
-0.160228
-0.160232
-0.160234
-0.160237
-0.160239
-0.160242
-0.160244
-0.160247
-0.16025
-0.160253
-0.160256
-0.16026
-0.160266
-0.16027
-0.16028
-0.160284
-0.1603
-0.160303
-0.160325
-0.160319
-0.16035
-0.160289
-0.160359
-0.166756
-0.166743
-0.166754
-0.166754
-0.16676
-0.166762
-0.166766
-0.166768
-0.166772
-0.166774
-0.166777
-0.166779
-0.166781
-0.166784
-0.166786
-0.166789
-0.166792
-0.166795
-0.166799
-0.166804
-0.166808
-0.166817
-0.166821
-0.166835
-0.166836
-0.166857
-0.166848
-0.166874
-0.16682
-0.166871
-0.173297
-0.173284
-0.173295
-0.173295
-0.173301
-0.173302
-0.173307
-0.173308
-0.173312
-0.173314
-0.173317
-0.173319
-0.173321
-0.173323
-0.173326
-0.173328
-0.173331
-0.173334
-0.173337
-0.173342
-0.173346
-0.173354
-0.173357
-0.173371
-0.17337
-0.173388
-0.173378
-0.173399
-0.173351
-0.173386
-0.179839
-0.179826
-0.179836
-0.179836
-0.179842
-0.179843
-0.179847
-0.179849
-0.179852
-0.179854
-0.179857
-0.179859
-0.179861
-0.179863
-0.179866
-0.179868
-0.17987
-0.179874
-0.179876
-0.179881
-0.179884
-0.179892
-0.179894
-0.179907
-0.179905
-0.179921
-0.179909
-0.179927
-0.179884
-0.179909
-0.18638
-0.186367
-0.186377
-0.186377
-0.186382
-0.186383
-0.186388
-0.186389
-0.186392
-0.186394
-0.186397
-0.186398
-0.186401
-0.186403
-0.186405
-0.186407
-0.186409
-0.186413
-0.186415
-0.18642
-0.186422
-0.186429
-0.186431
-0.186442
-0.186439
-0.186454
-0.186441
-0.186457
-0.186418
-0.186436
-0.192921
-0.192908
-0.192918
-0.192917
-0.192923
-0.192924
-0.192928
-0.192929
-0.192932
-0.192934
-0.192936
-0.192938
-0.19294
-0.192942
-0.192944
-0.192946
-0.192948
-0.192951
-0.192954
-0.192958
-0.19296
-0.192967
-0.192967
-0.192978
-0.192974
-0.192988
-0.192974
-0.192988
-0.192953
-0.192967
-0.199462
-0.19945
-0.199459
-0.199459
-0.199464
-0.199465
-0.199468
-0.19947
-0.199473
-0.199474
-0.199476
-0.199478
-0.19948
-0.199482
-0.199484
-0.199486
-0.199488
-0.19949
-0.199493
-0.199496
-0.199498
-0.199504
-0.199505
-0.199514
-0.19951
-0.199522
-0.199509
-0.19952
-0.199489
-0.1995
-0.206003
-0.205991
-0.206
-0.205999
-0.206004
-0.206005
-0.206009
-0.20601
-0.206012
-0.206014
-0.206016
-0.206018
-0.206019
-0.206021
-0.206023
-0.206025
-0.206027
-0.206029
-0.206031
-0.206034
-0.206036
-0.206042
-0.206041
-0.20605
-0.206045
-0.206056
-0.206043
-0.206054
-0.206025
-0.206034
-0.212544
-0.212532
-0.212541
-0.21254
-0.212544
-0.212545
-0.212549
-0.21255
-0.212552
-0.212554
-0.212556
-0.212557
-0.212559
-0.21256
-0.212562
-0.212564
-0.212565
-0.212568
-0.212569
-0.212573
-0.212574
-0.212579
-0.212578
-0.212586
-0.212581
-0.212591
-0.212578
-0.212588
-0.212562
-0.21257
-0.219085
-0.219074
-0.219082
-0.219081
-0.219085
-0.219086
-0.219089
-0.21909
-0.219093
-0.219094
-0.219096
-0.219097
-0.219098
-0.2191
-0.219101
-0.219103
-0.219105
-0.219107
-0.219108
-0.219111
-0.219112
-0.219117
-0.219116
-0.219123
-0.219118
-0.219127
-0.219115
-0.219123
-0.2191
-0.219107
-0.225625
-0.225615
-0.225623
-0.225622
-0.225626
-0.225627
-0.225629
-0.22563
-0.225632
-0.225633
-0.225635
-0.225636
-0.225638
-0.225639
-0.22564
-0.225642
-0.225643
-0.225645
-0.225647
-0.225649
-0.22565
-0.225654
-0.225653
-0.225659
-0.225654
-0.225662
-0.225651
-0.225658
-0.225638
-0.225644
-0.232166
-0.232156
-0.232164
-0.232163
-0.232166
-0.232167
-0.232169
-0.23217
-0.232172
-0.232173
-0.232175
-0.232176
-0.232177
-0.232178
-0.232179
-0.232181
-0.232182
-0.232184