/*--------------------------------*- C++ -*----------------------------------*\
| =========                 |                                                 |
| \\      /  F ield         | OpenFOAM: The Open Source CFD Toolbox           |
|  \\    /   O peration     | Version:  2.4.0                                 |
|   \\  /    A nd           | Web:      www.OpenFOAM.org                      |
|    \\/     M anipulation  |                                                 |
\*---------------------------------------------------------------------------*/
FoamFile
{
    version     2.0;
    format      ascii;
    class       volScalarField;
    location    "0.199";
    object      p_rgh;
}
// * * * * * * * * * * * * * * * * * * * * * * * * * * * * * * * * * * * * * //

dimensions      [1 -1 -2 0 0 0 0];

internalField   nonuniform List<scalar> 
6500
(
58.9085
50.1075
79.0918
114.609
10.5815
-55.9665
-164.42
-144.534
20.7135
-20.7829
-6.76451
19.7889
-1.53304
-11.5377
-9.02952
-19.181
-17.0414
-8.52508
-2.46169
-2.77871
-5.17966
-7.51814
-7.11166
-3.91908
-1.96715
-1.85474
-1.38698
-1.42904
-1.496
-1.57276
-1.80048
-1.05618
-0.0767347
-0.737317
-1.88227
-1.70451
-1.8854
-1.7906
-1.6053
-1.41596
-1.23353
-1.10936
-1.04541
-1.00368
-0.994211
-1.02315
-1.08097
-1.14089
-1.24912
-1.41923
58.9176
49.9959
79.1298
114.996
10.5734
-55.6967
-164.321
-143.075
-5.65094
-21.3939
3.2258
23.4107
3.34018
-11.577
-8.9957
-18.6125
-17.418
-8.50474
-2.48374
-5.55589
-5.35684
-4.62904
-6.38338
-3.32536
-1.95429
-0.990607
-1.33575
-1.42851
-1.48425
-1.61869
-1.78481
-0.0226099
0.323728
-0.59447
-1.50952
-2.2961
-1.95772
-1.82755
-1.61793
-1.4145
-1.21923
-1.09365
-1.03836
-0.995266
-0.878729
-0.927727
-1.08082
-1.13311
-1.20904
-1.50712
58.554
50.1397
78.3827
112.994
10.3224
-56.0647
-166.809
-137.765
-11.5703
-21.7942
1.70791
15.5258
3.16877
-7.31907
-8.83419
-19.5579
-17.6591
20.1331
1.10396
-4.72235
-5.49099
-6.40043
-9.09379
-3.84571
-2.10815
-1.63266
-1.21738
-1.43607
-1.46135
-1.72725
-1.82377
17.1911
18.4337
-0.952271
-1.62143
-1.95944
-1.94225
-1.86203
-1.63846
-1.4185
-1.15776
-1.06858
-1.08812
-0.990027
-0.952413
-0.970175
-1.08389
-1.11689
-0.942653
0.630719
58.0189
49.1508
73.1327
114.606
9.99331
-56.4652
-169.369
-133.475
-29.9249
-22.2116
6.57644
15.4685
2.93213
-9.2664
-8.62288
-20.1499
4.77139
13.2473
5.22655
-2.02666
-6.37411
-6.60768
-9.16648
-3.77509
-2.56671
-1.4648
-1.25111
-1.44886
-1.41931
-1.79924
-1.56352
9.73558
14.4095
8.88192
-1.02606
-3.15459
-2.29327
-2.1783
-0.870701
-0.611937
-0.389112
-0.717915
-1.10364
-0.969417
-1.00471
-1.0976
-1.11705
-1.10969
-0.922127
-0.928294
57.3732
48.5127
73.1468
110.683
9.53526
-56.7749
-172.533
-140.591
-38.2629
124.155
4.58768
15.5029
3.20988
-9.85122
-4.38825
-20.6615
6.95587
13.0961
0.927876
-0.500554
-6.60516
-7.25989
-9.42947
-3.53444
-2.37375
-1.89036
-0.383005
-1.07974
-1.35475
-1.9005
-1.44554
-1.07221
2.60004
1.54582
8.65399
-5.128
-5.39282
-6.68204
-1.25571
7.4542
14.4727
4.95304
-0.813557
-0.885826
-1.05819
-1.16616
-1.11721
-1.03041
-0.936689
-0.780254
56.6355
49.4858
69.6044
113.084
10.8133
-57.0333
-175.941
-134.284
67.9482
73.1897
9.10268
15.582
3.1399
-8.1541
-5.89547
-21.1422
-5.99361
13.5262
0.961103
-1.2353
-0.0193825
-7.62315
-9.94571
-3.26772
-2.44447
-1.79316
1.00657
0.328361
-1.24361
-2.05989
-1.83894
-1.31645
2.33797
2.23936
-1.32135
16.8278
8.73969
15.5368
-0.656427
15.7119
20.3686
13.9031
1.29512
-0.904404
-1.20407
-1.26622
-1.11167
-0.973022
-0.859279
-0.7459
56.9569
48.1119
73.281
114.368
8.27705
-57.1858
-183.059
-143.339
-3.78035
74.2644
8.1158
16.3174
2.38919
-11.4051
-3.40779
-21.6434
-8.91086
6.82807
0.845145
-1.18338
-8.46022
-7.13235
-10.6111
-3.03668
-2.68082
-0.356455
1.67956
2.28759
1.33245
-2.35263
-1.10929
-0.552268
2.58899
2.20178
1.35425
5.84167
7.25028
-16.7715
3.91316
15.9307
20.5441
26.9051
3.58757
-1.24105
-1.64113
-1.43344
-1.12143
-0.925535
-0.813205
-0.599561
56.328
51.779
72.3973
115.515
8.95039
-55.0214
-189.224
-146.179
-24.5845
71.6822
9.81429
29.1107
4.31412
-12.1937
-6.01383
-22.2358
-11.0869
17.8421
0.652584
-0.953473
-10.7544
-7.17235
-11.589
-2.73919
-2.35384
1.00525
2.44029
6.67395
1.63642
-3.13398
-0.648093
-0.0198451
1.35144
1.97155
1.53391
1.58995
-13.4679
9.06984
-6.68545
10.0615
19.9539
32.1979
7.83355
-1.61216
-2.31052
-1.60529
-1.12785
-0.875818
-0.779877
-0.494664
55.4253
50.9578
71.9149
116.23
6.00022
-52.281
-189.554
-147.004
-71.6884
67.5937
15.5074
4.91509
1.96045
-13.0674
2.14177
1.59703
-12.8656
1.11168
0.563813
-0.552615
-1.56305
-5.85974
-13.2622
-2.38392
10.1933
1.70258
0.918675
7.49265
2.65054
8.80882
-0.566505
0.53028
1.87807
1.83223
1.24955
-0.07674
-6.41717
3.67955
-15.0288
6.51526
22.0382
34.4429
14.2218
-1.72988
-2.69821
-1.68567
-1.10693
-0.8096
-0.690643
-0.591914
63.8423
78.4777
89.1322
121.232
5.37834
-60.8781
-190.314
-147.421
-95.2578
66.4807
-2.93963
5.57585
1.80193
-8.76394
3.95421
-3.54333
-14.2588
2.08075
0.637777
-0.210995
-11.2716
-5.57454
-16.0892
-0.974222
8.00156
2.23801
0.774566
7.12937
3.49042
7.63926
0.449828
0.681773
1.80414
1.45322
1.08548
0.479183
1.74947
92.9408
9.359
11.0968
22.0149
15.2488
17.9291
-1.40696
-2.24442
-1.3482
-1.03088
-0.725162
-0.596483
-0.564567
61.4005
70.9957
63.7748
121.578
4.72592
-63.9097
-192.868
-150.398
-128.929
87.9369
0.713272
6.037
1.64214
-10.2113
4.44323
22.7327
7.69676
2.17761
0.666603
0.637213
-0.730138
-4.59742
-19.7124
8.83378
3.18716
2.6104
0.982577
5.89892
3.49376
9.39277
13.1933
-0.182005
1.66557
1.4391
0.986599
0.714331
1.97846
11.5465
16.4584
16.4846
21.7625
16.2295
-3.93401
-0.380781
-2.24614
-1.46413
-1.02348
-0.669213
-0.510958
-0.480613
59.5416
70.3916
63.4336
124.153
10.5499
-65.4149
-193.644
-154.975
-170.803
92.0661
-1.55754
6.41708
1.24179
-11.3455
5.49491
20.7386
1.3683
1.23525
0.641015
0.733093
-5.52977
-3.18518
22.6723
-2.59126
2.55651
1.24664
0.822741
5.83091
3.99059
7.94647
19.1515
-2.25302
5.24669
1.29957
0.836914
0.788854
2.07662
5.61796
5.46697
17.8522
23.9289
10.843
3.45592
-0.757067
-2.48461
-1.35667
-0.977941
-0.621522
-0.444284
-0.403302
58.6712
69.7868
63.2499
130.305
7.50684
-64.8717
-194.536
-158.89
-201.074
143.182
-2.55037
7.30226
7.01941
-12.1382
6.39425
21.2552
30.1431
2.91647
0.587135
0.757438
0.725155
-1.20612
7.55261
-2.04243
2.32961
1.23613
0.66935
6.0665
4.49856
8.21181
1.7793
-4.49392
5.59316
0.367343
0.814877
0.779227
2.10944
3.43227
3.01396
10.5531
15.4765
5.76298
5.35449
-1.4976
-3.21265
-1.62429
-0.972722
-0.599066
-0.402005
-0.311132
57.7405
69.5471
75.2757
132.634
25.7072
-67.6115
-134.069
48.8302
133.723
38.6036
-2.38602
8.65702
0.0861376
-6.59847
6.70692
39.3717
17.8476
6.1059
0.564681
0.731356
30.7332
0.583713
3.7166
-2.12517
2.58244
1.31815
0.653117
6.13561
4.73928
7.46153
2.95016
-6.02805
5.7293
0.033117
0.660675
0.726027
1.88888
3.33023
3.22632
2.53406
3.14944
-1.50895
3.13905
2.60003
-4.38579
-1.95608
-0.963172
-0.584421
-0.371282
-0.133987
56.8374
68.9769
79.698
131.915
17.9753
-70.5222
-152.559
10.1456
76.3887
98.692
0.188352
3.75633
-0.247712
-7.01048
7.13981
44.7202
47.6462
6.34628
0.543238
0.758974
4.71477
1.72079
10.7807
-2.08978
0.152694
1.33851
0.900416
7.15319
5.36012
6.78261
4.87526
5.58615
13.3907
-2.936
0.573543
0.59849
1.97975
3.21544
3.11891
1.9804
3.48795
1.74565
9.63271
-1.36214
-5.15533
3.54773
-1.08753
-0.525113
-0.355097
0.266716
55.9722
67.2819
79.5552
457.604
10.4697
-70.3326
82.0483
13.3353
72.5604
69.8914
39.2917
4.97085
0.0564985
11.9975
7.31254
7.84448
19.5265
6.00156
0.537629
0.784021
3.21508
2.49791
9.47294
-2.12117
-0.441318
1.46137
1.14703
8.44835
6.63554
6.42354
4.93354
8.34083
7.27572
44.435
0.12153
1.02374
2.01179
2.98022
2.97728
1.97982
3.44894
1.26876
14.1957
-5.24733
-2.86406
59.2348
2.67219
-0.131426
-0.415248
0.170336
55.152
94.2396
147.4
143.676
9.37328
-74.0828
3.96928
13.9675
59.3131
70.6361
36.2188
5.89747
-0.131142
2.8518
8.00234
9.14393
50.554
6.51002
0.740051
0.81851
5.1892
2.98268
24.136
6.25511
5.51578
1.47241
1.09205
8.82143
7.59865
6.52147
4.22123
-1.0874
8.46836
17.3434
1.89285
0.462615
2.00344
2.69265
2.90148
1.89827
2.77026
1.73139
6.70154
-4.50882
-2.49118
8.45935
38.234
20.4941
-2.41071
-2.98887
54.3824
74.7834
28.2138
229.869
9.02985
4.7481
0.0562077
14.6006
47.1631
74.9709
84.8196
6.00802
0.133161
2.13387
8.88517
9.94116
6.12771
6.90217
2.18727
0.856482
4.30217
3.63451
11.9607
0.617729
3.69457
1.47106
1.10276
6.5635
8.61287
6.85492
3.05839
0.84336
7.59951
10.0801
-0.00549728
0.660193
2.0133
2.56731
2.8338
1.77911
4.9716
2.10876
4.32637
13.6799
-2.73724
-9.30872
89.8958
57.8494
-10.9469
-55.7065
53.6573
74.6002
28.2928
126.175
11.4847
5.50797
-0.430428
15.4592
40.993
77.8836
15.383
6.44769
-1.00864
1.94063
8.85198
10.7153
6.72657
6.51415
0.824684
0.899054
3.98431
2.95877
11.2929
0.56569
3.09169
1.48481
0.972342
8.20377
9.76312
7.41095
3.66894
1.52413
5.38273
35.6012
0.704274
0.662318
1.94924
2.47754
2.82544
1.68955
4.12961
2.27638
1.47251
1.81948
-1.2785
-17.6391
88.8822
63.1847
-2.60983
-52.2407
52.9745
74.3331
28.4418
157.1
12.357
3.51819
-0.4064
16.3176
33.2789
83.1171
17.8238
7.61598
-0.944284
1.31623
9.54699
10.9523
4.91272
9.40006
1.08426
0.93805
3.29346
2.83146
13.1173
0.682887
2.89373
1.49608
0.898727
6.81423
11.1127
7.37714
4.46495
2.29533
5.66568
18.1512
1.14014
0.605894
1.83994
2.41567
2.79526
1.52225
7.3213
4.90461
0.931647
1.18999
-0.680388
-13.7384
47.4427
62.8067
10.3564
-40.5936
-1.502
-1.33185
-0.982459
-0.481659
0.0203705
0.256935
1.21636
1.53792
1.54214
1.213
1.29092
1.31431
2.84127
40.4194
56.8925
57.255
50.4589
25.2691
6.3944
5.56488
5.38344
3.68917
4.41585
2.46924
2.29613
3.48169
2.04638
0.795136
1.96557
1.94314
2.50189
2.70269
7.7514
4.29859
-4.67273
0.208951
0.242418
0.24581
0.994675
17.9223
9.76799
-26.0662
-30.6741
-62.7592
-37.9701
65.17
-28.999
26.8608
35.9707
59.9619
-1.89616
-1.73086
-1.27598
-0.722355
-0.0766778
0.227884
0.324003
0.386551
1.53607
1.08984
1.28698
1.42676
9.43917
31.997
59.8951
58.0426
58.6194
40.9093
9.21762
5.96454
3.60098
3.40531
2.96726
1.94526
2.20385
2.7618
1.98492
0.56916
1.14662
1.92116
2.51164
2.16257
20.7566
4.57629
-5.12964
-0.215114
-0.281732
0.211942
1.1632
17.5711
14.5684
-6.74677
-31.1241
-85.4185
-112.909
-98.4829
-28.9479
24.155
36.2952
60.0802
1.38649
-0.594942
-1.32173
-0.749652
-0.14588
0.180826
0.321547
0.437877
0.915873
0.981639
1.23721
1.29898
24.5546
57.9015
61.7154
64.4505
65.9947
46.0018
9.19566
6.4834
4.14081
3.32219
2.8479
1.92316
2.26427
3.95099
4.1238
0.483745
0.933288
1.84527
2.33364
4.00601
4.71524
4.3911
-6.47705
-2.1917
0.18653
0.0506055
-0.68624
23.2054
5.67726
-9.62377
-31.0867
-85.874
-134.345
-100.252
-29.5642
24.9404
35.9352
59.9621
-1.01201
-1.19203
2.15485
-0.345314
0.183815
0.51612
0.259128
0.448605
0.662575
0.933758
1.14693
2.46869
32.0299
60.9018
63.3043
61.874
65.7444
75.4593
7.78799
7.21171
4.9427
4.07484
2.67161
1.80655
2.13435
4.21892
3.0582
5.78786
0.900104
2.03231
2.71746
3.85786
5.0116
5.9337
11.0244
-3.77684
0.702176
-0.502791
-0.174966
10.9339
11.6382
-10.3948
-28.8707
-106.066
-134.668
-113.584
-21.3789
27.1656
35.223
59.7893
-0.814736
-0.716059
0.158292
4.24462
2.83243
3.40479
0.294159
0.459957
0.57762
0.818843
0.94683
1.56566
52.444
61.1145
62.1891
60.7782
65.738
73.1723
6.95372
7.5348
5.36467
4.67762
2.95863
1.72967
2.02591
2.87013
2.34608
3.68531
0.795254
1.93254
2.75723
12.4274
5.40977
6.69274
11.1357
-4.10258
1.29016
-1.38825
2.67818
9.26213
10.1999
-4.13644
-25.2677
-107.897
-135.013
-116.143
-17.7783
27.7336
34.7283
59.6195
-0.749032
-0.670167
2.43683
26.15
19.1977
1.40485
0.438059
0.449572
0.548853
0.608527
0.719718
1.51159
55.1825
63.7554
62.8256
60.0614
65.5854
74.5973
17.0954
7.79742
4.85611
4.33028
2.54575
1.56061
1.81328
2.68475
2.75823
4.29425
0.504423
1.54026
2.54339
8.47885
5.54639
6.60569
8.41092
-6.75887
2.26697
21.5783
2.91761
9.19493
10.4548
-3.98507
-0.135412
-110.168
-135.321
-108.821
-12.5561
27.6304
34.2027
59.3742
-0.673337
-0.661212
26.3624
83.0844
22.3706
1.63425
0.437063
0.422943
0.517717
0.610895
0.571818
2.8725
58.5839
65.0549
63.5703
58.7844
65.0564
75.7324
12.0879
7.99771
5.87008
4.57671
3.34353
1.21392
1.38681
2.69425
2.52089
2.64171
2.91062
8.16158
2.34162
9.12045
6.66506
6.74867
8.20886
-8.11969
2.75409
19.4398
3.56283
9.07054
10.4764
11.7036
4.98414
-111.116
-136.662
-81.1762
-9.60161
32.2393
33.6059
59.0957
-0.693666
-0.871813
62.0641
65.699
24.7247
1.27974
0.420113
0.403803
0.466218
0.54789
0.544343
2.62746
55.6247
66.4982
63.9999
57.7173
64.538
77.261
17.4789
8.17341
6.84041
4.47805
3.54632
1.8922
0.952583
2.68426
2.57716
7.53231
2.32616
5.22735
2.41379
9.28287
6.22225
6.84968
8.18773
-9.45932
2.11563
17.6718
2.98233
8.94944
10.5673
12.9752
4.10634
-116.972
-55.8463
-84.3552
-8.54804
26.3353
32.9514
58.7588
-0.659022
-0.820344
63.6648
44.6649
31.463
1.07736
0.406457
0.393421
0.424523
0.51098
0.53822
3.67745
53.0982
67.3243
64.1701
56.7072
63.7233
75.44
13.1021
8.30589
7.85896
3.79416
3.78031
1.25521
0.787058
2.65411
2.87092
2.25749
0.769072
4.69782
2.28239
5.86786
6.26279
6.94073
13.2089
-10.3468
1.65601
17.0394
6.83855
8.80278
10.4504
34.2405
4.25352
-113.739
-46.8467
-77.2927
-6.60252
27.753
32.3168
58.4439
-0.586767
-0.224626
1.50912
34.8802
32.3693
1.82104
0.395278
0.390459
0.389581
0.478229
0.494263
2.92925
46.5138
67.7504
64.0193
55.5175
62.6286
75.709
13.6968
8.40032
9.10652
3.9039
3.32241
1.27247
0.518494
2.5744
2.73
2.39427
0.582536
7.43067
1.25869
12.7988
6.2978
6.99777
10.7823
-9.59582
1.82821
17.2512
1.8117
8.61392
15.4802
12.4377
3.86705
-64.7782
-47.9966
-100.836
-4.97934
28.3715
31.5555
58.1346
-0.563593
0.397188
-42.6697
35.6756
30.3215
2.51236
0.395888
0.390192
0.3519
0.440948
0.4504
3.26483
42.6698
67.5433
62.8459
53.8177
61.001
70.1388
12.9874
8.50673
11.0799
6.29369
2.88886
1.30329
0.146867
2.55286
3.03697
2.45407
0.881707
7.66592
1.84604
12.1312
6.33233
7.31461
11.4494
-11.4841
1.577
13.8302
2.30738
14.5581
29.4099
20.1897
2.44164
-70.1861
90.6724
-101.017
-1.65231
28.1354
30.9134
57.8799
-0.668903
0.361689
-46.7753
39.0274
27.8144
3.08843
0.384288
0.395419
0.310474
0.406324
0.409314
2.17664
36.5567
65.2147
60.7358
51.6287
58.8683
64.4521
12.386
8.64866
11.1959
3.48307
2.89112
1.32172
-0.438058
3.06073
6.02757
2.05218
0.463231
7.51342
1.8825
6.68647
6.3401
24.9076
12.421
-12.1491
2.59693
14.2693
3.44304
9.60584
-0.480555
-3.48147
2.28986
2.70115
106.437
-101.618
53.1308
27.8763
41.3307
57.4829
-1.04314
1.05092
-62.5093
35.5504
28.7936
2.09699
0.336263
0.399625
0.264449
0.374921
0.366291
2.1127
33.2524
62.4133
58.6021
49.2279
56.6029
55.3685
13.7321
8.78237
6.15357
4.09844
4.08982
1.38142
-2.06435
2.40664
7.15056
2.27087
-0.125417
7.64367
7.34931
7.343
6.34474
11.6837
8.69185
-12.7506
3.9157
14.7076
7.31659
9.4123
-4.5155
-1.11557
-0.25323
-14.2904
67.6707
36.4151
25.1833
31.0477
37.492
56.8867
-1.77674
-10.8246
-22.758
31.9339
35.7687
2.21415
0.254314
0.402666
0.211302
0.346377
0.334736
1.0183
29.1983
58.9549
56.6452
46.5321
55.1564
44.9954
17.9718
8.99279
6.65278
4.10008
4.02267
1.40342
-2.64135
2.148
3.79317
2.26274
0.207124
7.96362
8.89635
3.47386
6.40462
11.5156
9.66588
96.2984
4.5667
16.2645
7.55085
9.15798
-3.04665
0.398747
5.86296
-29.7786
74.1019
63.1929
27.0955
20.6701
52.9775
65.0684
-2.30367
-29.9006
-5.53989
33.0154
46.5791
3.98477
0.0787291
0.407442
0.152822
0.327565
0.325114
0.339299
28.3161
53.1925
57.3615
43.0882
54.4585
28.9592
17.9966
9.20242
6.51346
3.86058
2.86416
1.38981
20.3002
3.05316
24.3225
1.57733
0.0989807
8.84929
3.90717
3.67115
6.38304
11.5821
11.8144
64.2315
5.19019
19.8594
7.57017
9.14289
-2.92503
0.273914
19.9668
-40.9461
94.9382
52.1387
27.8727
21.9493
31.7923
43.1066
-13.0901
40.9295
5.0544
35.5923
40.6722
-2.80235
-0.195697
0.440111
0.154329
0.323752
0.336514
0.0668447
18.886
63.3803
69.0367
41.4232
48.2008
34.138
18.3971
8.46449
6.19776
11.8748
3.20556
1.29063
6.7987
3.85071
0.481082
1.82931
0.103133
9.04808
4.71912
4.84607
6.33627
11.6313
12.4942
58.8575
5.47849
23.3859
7.80653
10.7885
-2.5875
-0.045741
37.2558
-41.6289
52.2353
44.7142
26.2719
22.4827
50.85
43.008
104.999
53.4813
16.6291
40.3052
31.9794
-1.80506
-2.05116
0.485875
0.0644162
0.329569
0.348225
0.394413
10.661
61.6514
58.565
40.1611
44.1885
141.971
16.8206
6.81826
7.99032
5.04921
3.16595
1.1416
7.07883
4.35534
0.265085
2.44421
15.2424
8.68804
5.1283
5.15556
6.25971
11.7907
12.9836
59.0491
6.36975
25.0608
-0.390806
12.1811
-2.42754
0.57142
29.1836
-330.98
48.431
46.0912
33.6188
22.9623
50.3033
42.7182
77.6343
103.159
25.2929
41.0978
34.9701
1.19592
9.72112
0.535769
0.0507394
0.331857
0.32528
0.359118
0.760901
69.7254
56.3661
37.7893
37.4993
293.162
13.0388
13.6741
5.28992
5.09886
3.24229
1.19501
6.4605
3.39361
-0.00969217
0.729984
2.91979
23.4357
5.43746
4.7064
6.16597
12.2675
12.8909
58.7723
6.88543
26.7283
-0.0315034
12.4473
-2.35606
0.547159
29.5493
37.0701
45.1518
47.5147
27.3435
23.4601
49.5709
42.4654
75.1522
41.5589
28.8398
46.0487
26.2695
1.987
1.36326
0.680591
0.0694497
0.327892
0.302635
0.359126
1.17089
23.4222
52.1618
29.4583
53.3757
521.449
2.06785
-2.42536
5.10461
4.86262
3.09693
1.22303
7.20098
2.93981
0.921252
0.713765
3.28561
8.47169
5.83755
26.3654
6.23387
13.5985
12.1144
58.1962
7.53386
26.6806
0.577545
12.2454
-2.31698
-0.262278
24.8785
23.494
45.4663
50.4905
23.9004
23.8026
49.016
42.2749
36.2771
48.7544
25.3768
45.3297
31.2603
1.89668
1.17239
0.178073
0.0918868
0.319
0.302216
0.303403
1.71124
13.392
35.5198
16.9365
17.4563
81.2775
-1.34336
-1.19691
5.18532
4.53104
2.6584
1.27797
6.92195
3.34991
1.58393
2.4806
3.57466
9.16105
6.0386
6.67303
7.4743
23.8581
11.2054
57.751
7.96732
26.5622
0.480407
9.90945
-2.34291
-1.97627
23.1639
8.41327
45.3423
49.2306
28.313
24.1352
48.6521
42.1077
51.2498
46.4571
27.5519
29.9253
10.981
0.324383
1.54481
8.39813
7.64629
98.3478
25.125
11.3035
-0.887944
2.42819
14.3088
9.4721
2.12284
-1.47062
0.705461
1.02265
3.18878
2.88558
5.98616
0.655896
2.1887
1.53178
0.880424
3.67738
26.6357
10.0795
5.3072
3.78063
7.2083
6.03246
1.42978
0.556623
1.64648
2.24703
2.57948
0.597217
-4.20484
-3.1208
0.313472
0.704511
0.0552281
0.627105
21.1011
48.4736
30.2
14.5218
54.9648
46.6593
26.9056
14.5298
3.77951
0.595932
1.00137
3.99428
26.2142
-17.6237
4.64922
-3.18287
-0.985802
3.18501
-2.93976
4.43772
1.69851
0.902671
0.209942
1.06159
2.69437
1.81488
6.43615
0.69633
1.6909
1.52521
0.903479
3.79094
3.70442
0.872781
6.47921
5.68439
8.23851
7.0772
0.764728
0.323184
1.17926
2.18548
4.02576
4.85167
5.09292
5.22115
0.147708
0.387794
0.251065
0.193964
3.45682
38.1246
38.6603
24.6731
52.8141
45.0085
27.8711
4.99272
0.367002
0.612361
0.982359
2.72916
16.6408
-15.5804
6.17433
-2.97031
-1.03373
0.851948
-1.16898
2.37133
2.41123
-1.07493
0.510763
0.973237
9.64945
2.67284
6.06742
0.773358
1.54846
1.47773
1.07128
4.23479
6.80124
-6.39581
4.91933
7.08947
8.25278
6.70898
1.53159
-0.127051
0.453172
0.850313
2.79122
2.19897
-0.503664
-0.455482
-0.206672
0.0688346
0.144693
0.14792
-2.76621
46.3668
60.7926
2.42509
52.0793
44.6804
29.9681
-3.55788
0.0857371
0.595964
0.954308
2.4733
11.6836
-12.8311
14.0822
-2.91654
-1.075
0.674329
-0.921277
1.74039
1.78396
-0.650011
0.596726
0.726111
2.11671
3.36044
4.13558
2.04073
1.21682
1.37707
0.840745
2.51191
2.50146
0.45805
5.82102
7.4075
7.2912
5.95195
2.07926
-1.7116
-0.457841
3.35167
-0.524342
-0.21978
-0.441509
-0.428185
-0.272951
-0.0673339
0.040941
-0.0478527
-0.0934425
65.9167
52.0878
7.54287
51.2119
44.3019
32.9199
0.552638
0.0854583
0.543182
0.950343
1.82822
7.70843
-13.1434
0.314052
-3.26363
-1.1078
0.468805
-0.914939
1.79891
2.1021
-0.272566
0.57767
0.951648
2.04572
2.78026
1.50508
0.723906
0.808719
1.3149
1.6185
7.88207
7.41802
5.87441
5.72305
6.64932
6.20619
5.47472
3.8017
2.24552
6.54991
10.9345
-0.521944
-0.205412
-0.316409
-0.33274
-0.261105
-0.155398
-0.0934182
-0.155957
-0.505536
26.2563
2.52847
1.76959
50.581
44.8016
36.679
0.114028
0.0712431
0.51763
0.961184
1.78979
4.96336
-12.322
5.1385
-2.98659
-1.06276
0.255708
-0.797844
1.8719
0.928629
-0.0132232
0.550431
0.705432
1.86628
1.93053
3.00101
0.61509
0.84348
1.27208
6.43824
26.68
24.3887
10.6525
4.64915
5.0143
4.90599
4.80047
4.91859
5.71608
9.58099
4.19967
-0.207805
-0.243908
-0.304694
-0.326241
-0.279087
-0.192563
-0.123238
-0.0372174
-0.067983
0.0891305
0.0200443
-0.1507
50.1612
44.6193
35.882
0.358884
0.0625198
0.503924
0.944523
1.71865
4.94347
-13.6855
-0.856385
-2.75473
-1.03382
0.0766333
-0.810447
1.02614
2.26081
0.202119
0.465016
0.656282
1.1895
1.57276
1.94418
0.526952
0.907761
1.23924
1.51896
0.0345768
-0.501956
0.152509
1.48774
2.87127
3.38584
3.85927
5.21933
6.61203
7.78828
0.862791
-0.280815
-0.268849
-0.297401
-0.310774
-0.275342
-0.202324
-0.138003
-0.0759378
-0.0930423
-0.100541
-0.134131
-0.170335
49.8411
43.8828
35.8208
0.348516
0.0590946
0.496303
0.920583
1.62592
11.3448
-7.70931
1.5651
-2.52836
-1.01461
-0.0701535
-0.751727
0.957433
2.08323
0.347732
0.223598
0.433986
1.23233
1.23131
4.62239
0.565296
0.825516
0.976041
0.195377
-0.0761143
-0.562934
-0.577159
-0.409474
0.00345799
0.333153
1.27641
4.66395
6.17794
4.23011
0.0728623
-0.302388
-0.289876
-0.29556
-0.299026
-0.26823
-0.210561
-0.154507
-0.102115
-0.0730678
-0.0190411
-0.0623945
-0.096521
49.5416
43.3174
29.1118
0.322715
0.0504886
0.4888
0.913861
1.56263
5.48405
2.06051
0.533896
-2.27577
-0.96989
-0.162918
-0.69866
-0.0379151
0.591685
0.372356
0.0336999
0.738397
1.49621
0.791095
1.21432
1.01397
0.699269
1.75897
-0.212321
0.0206653
-0.53962
-0.59629
-0.446103
-0.357635
-0.32219
-0.307805
-0.282484
-0.200319
-0.398108
-0.409191
-0.351137
-0.323999
-0.313373
-0.300117
-0.26854
-0.22171
-0.174106
-0.129978
-0.0986374
-0.0599527
-0.0701354
-0.070512
49.2633
41.858
5.87325
0.308941
0.0575754
0.481756
0.884597
1.45792
3.20845
4.41445
-0.944235
-2.03604
-0.891225
-0.257319
-0.561988
-0.064505
-0.00642149
0.000235512
0.0339268
0.0407945
0.736245
0.363278
1.00422
0.686672
0.756674
0.185912
-0.174745
-0.310179
-0.545885
-0.605401
-0.489301
-0.390968
-0.344723
-0.332354
-0.351841
-0.367541
-0.381408
-0.385591
-0.351996
-0.330209
-0.318102
-0.30068
-0.271518
-0.233489
-0.194649
-0.159133
-0.130374
-0.10398
-0.0860156
-0.0669529
48.6804
39.0858
0.374183
0.305869
0.0794435
0.478423
0.885648
1.31879
1.28886
3.73929
1.64815
-1.89967
-0.794119
-0.333361
-0.460543
-0.0977163
-0.0235563
-0.0892217
0.028755
-0.0280678
0.221062
0.469404
1.05852
0.769705
0.558046
0.589404
-0.049591
0.172826
-0.603461
-0.583874
-0.504873
-0.41459
-0.365402
-0.350688
-0.355619
-0.356404
-0.372118
-0.37143
-0.352213
-0.33489
-0.320202
-0.301279
-0.275501
-0.244541
-0.212355
-0.180895
-0.153023
-0.126308
-0.100857
-0.0751669
48.5268
9.33516
0.439335
0.311041
0.105307
0.470805
0.811067
1.11893
0.61236
-0.307101
-0.865238
-1.77633
-0.732333
-0.374092
-0.440612
-0.125956
-0.0435964
-0.0848509
0.0203449
0.0184453
0.255246
0.458362
0.262568
1.09947
0.494371
0.442233
-0.0491429
-0.505966
-0.498542
-0.546892
-0.501405
-0.426934
-0.384062
-0.368704
-0.366009
-0.35517
-0.344443
-0.361271
-0.349593
-0.335591
-0.320748
-0.30275
-0.280593
-0.254788
-0.22778
-0.200858
-0.174989
-0.148631
-0.124432
-0.0970531
35.2795
0.0501601
0.271908
0.302958
0.123192
0.469274
0.787439
0.902372
0.575872
-0.212163
0.559681
-1.63903
-0.691353
-0.402076
-0.425539
-0.137969
-0.061266
-0.0830078
0.0105364
0.0330992
0.249788
0.333416
0.493015
0.40355
0.577065
0.435047
-0.262464
-0.358617
-0.432263
-0.499357
-0.468283
-0.429175
-0.397899
-0.384072
-0.375753
-0.337906
-0.338083
-0.355913
-0.346365
-0.335258
-0.322107
-0.306159
-0.286601
-0.264473
-0.24194
-0.219487
-0.196223
-0.17235
-0.149345
-0.126962
2.60731
0.0490297
0.278892
0.307423
0.149552
0.687144
0.836756
0.721029
0.520787
-0.0990058
0.47995
-1.39313
-0.659023
-0.413158
-0.396203
-0.149948
-0.0762564
-0.084333
-0.00273102
0.0406177
0.209343
0.854317
0.635959
0.407703
0.572406
0.539776
0.015672
-0.289973
-0.38035
-0.409051
-0.449495
-0.421235
-0.403538
-0.393851
-0.38333
-0.310612
-0.329229
-0.352258
-0.346278
-0.337771
-0.32666
-0.31253
-0.294504
-0.275556
-0.256087
-0.235373
-0.213047
-0.189718
-0.166829
-0.146058
0.0239164
0.0373449
0.209056
0.291967
0.171018
0.389113
0.561869
0.612519
0.472936
-0.0499446
0.999261
-1.09465
-0.590622
-0.415713
-0.36346
-0.161424
-0.0894995
-0.0891084
-0.0212307
0.00392892
0.547883
1.08116
0.682577
0.421614
0.536961
0.858075
0.371363
-0.188982
-0.223534
-0.386764
-0.418807
-0.408832
-0.402172
-0.398071
-0.389812
-0.281085
-0.321175
-0.350884
-0.349356
-0.344251
-0.335345
-0.322196
-0.305484
-0.28654
-0.268102
-0.249843
-0.226935
-0.201317
-0.176513
-0.154833
0.0240715
0.0132924
0.207951
0.27211
0.187551
0.370661
0.509671
0.495756
0.425044
-0.0554532
1.31653
-0.945364
-0.54775
-0.409446
-0.334259
-0.171096
-0.10153
-0.0963454
-0.0438529
-0.0318797
-0.024709
0.744495
0.724779
0.53031
0.652926
1.12977
0.963141
0.0135268
-0.107982
-0.324419
-0.391904
-0.395143
-0.395811
-0.395117
-0.37898
-0.29105
-0.324862
-0.354047
-0.356332
-0.355184
-0.348739
-0.336207
-0.317714
-0.294443
-0.276812
-0.260691
-0.230172
-0.203879
-0.178427
-0.154176
0.0268909
0.0173842
0.200883
0.259314
0.198929
0.353218
0.439812
0.40317
0.389815
0.163334
0.787923
-0.784208
-0.490238
-0.394855
-0.308766
-0.178572
-0.112079
-0.104482
-0.0626199
-0.0661726
-0.0769789
0.0294774
0.724353
0.583533
1.20278
1.04778
0.801423
-0.0576218
-0.223737
-0.2312
-0.355344
-0.379306
-0.38429
-0.386209
-0.354889
-0.290321
-0.338796
-0.358221
-0.365216
-0.369299
-0.367304
-0.35679
-0.334898
-0.299027
-0.274725
-0.257118
-0.224475
-0.194171
-0.167168
-0.140843
0.0281411
0.021639
0.193453
0.246818
0.204556
0.348079
0.389954
0.345416
0.343897
0.192773
1.35782
-0.548107
-0.433855
-0.373208
-0.286779
-0.183586
-0.120598
-0.111562
-0.0881025
-0.0868563
-0.108611
-0.103975
0.581025
0.274622
0.163753
0.843728
0.155923
-0.130604
-0.129452
-0.131004
-0.32975
-0.355297
-0.367273
-0.376807
-0.298951
-0.290214
-0.340191
-0.355169
-0.369959
-0.38163
-0.389512
-0.391124
-0.348975
0.00977228
-0.257123
-0.229502
-0.205473
-0.176995
-0.148692
-0.125804
0.0291705
0.023711
0.175712
0.230942
0.206191
0.307599
0.344258
0.312776
0.380851
0.0097224
0.0692524
-0.499563
-0.380582
-0.35249
-0.267236
-0.185249
-0.126453
-0.11598
-0.0960611
-0.0991448
-0.126566
-0.130679
-0.00428961
0.207044
0.50354
0.692823
0.0446116
-0.126101
-0.146211
-0.092744
-0.30332
-0.314056
-0.33584
-0.333079
-0.266268
-0.311178
-0.331756
-0.347898
-0.365503
-0.378961
-0.391879
-0.387308
-0.102062
0.221939
-0.136319
-0.178043
-0.164991
-0.156498
-0.140416
-0.107673
0.0296931
0.0276159
0.157763
0.21894
0.204771
0.286087
0.321671
0.285881
0.244275
-0.0178011
0.141023
-0.422838
-0.337868
-0.332423
-0.248692
-0.183543
-0.129609
-0.117819
-0.0959971
-0.0990476
-0.115209
-0.122973
0.00516102
0.312427
0.35652
0.298858
-0.0561629
-0.154101
-0.131133
-0.180072
-0.267113
-0.272415
-0.295985
-0.277196
-0.248922
-0.299039
-0.309543
-0.32737
-0.334896
-0.350726
-0.359103
-0.308288
-0.0609075
0.0134761
-0.00327697
-0.148003
-0.162697
-0.166859
-0.183005
-0.163562
0.0297992
0.0312613
0.151886
0.206953
0.201784
0.270195
0.295699
0.263881
0.206575
-0.0449363
0.126328
-0.372405
-0.199476
-0.307572
-0.233549
-0.179171
-0.130727
-0.117237
-0.0936395
-0.0821184
-0.0829623
-0.0923183
-0.00751455
0.575818
0.589347
0.229345
-0.145078
-0.159718
-0.160838
-0.191165
-0.227314
-0.23164
-0.243074
-0.210036
-0.248638
-0.260997
-0.272408
-0.289255
-0.296008
-0.306501
-0.304128
-0.267604
-0.0261436
0.0273753
0.039845
-0.0304351
-0.212057
-0.218682
-0.240468
-0.223586
0.0295643
0.0344989
0.145251
0.194897
0.196976
0.255293
0.270923
0.256343
0.179421
-0.032307
0.153657
-0.344495
-0.114462
-0.281446
-0.220457
-0.17283
-0.130293
-0.115221
-0.0878174
-0.0678171
-0.0620385
-0.0792538
-0.0201813
0.378482
0.670357
0.137576
-0.167429
-0.150151
-0.160566
-0.167879
-0.206381
-0.205823
-0.21229
-0.161874
-0.215602
-0.226614
-0.234372
-0.247976
-0.259193
-0.264366
-0.26003
-0.249647
-0.187523
0.0156877
0.0676501
-0.00260521
-0.249716
-0.250724
-0.266917
-0.29082
0.0290344
0.0373229
0.138502
0.183264
0.190523
0.238611
0.245548
0.233504
0.158207
-0.016936
0.144622
-0.280682
-0.0547507
-0.254461
-0.202977
-0.164791
-0.12877
-0.113251
-0.0853506
-0.0624879
-0.0600486
-0.0957156
0.0560899
0.700397
0.585371
-0.0317507
-0.165247
-0.147715
-0.11435
-0.0978628
-0.196831
-0.193512
-0.196177
-0.137461
-0.172249
-0.198354
-0.202536
-0.211416
-0.223776
-0.234971
-0.237056
-0.232457
-0.226776
-0.227755
-0.0936698
-0.182358
-0.189168
-0.179407
-0.189007
-0.210453
0.0282473
0.0396559
0.131538
0.172012
0.183236
0.223336
0.222857
0.201746
0.138735
-0.00850172
0.0928294
-0.184099
-0.0168581
-0.228189
-0.18531
-0.155571
-0.126512
-0.111602
-0.0875668
-0.063865
-0.0585763
-0.098326
0.6827
0.727705
0.320225
-0.146297
-0.162862
-0.153507
-0.090272
-0.117804
-0.189886
-0.188204
-0.190438
-0.159696
-0.153306
-0.185114
-0.185249
-0.193269
-0.196573
-0.182946
-0.202054
-0.200721
-0.206081
0.0489424
0.115756
-0.0526794
-0.0357753
-0.0405846
-0.0529532
-0.0799013
0.0272279
0.0414117
0.124371
0.161155
0.175238
0.209057
0.202896
0.176732
0.124668
0.00147918
0.0315934
0.0138081
0.0378945
-0.204814
-0.171385
-0.146022
-0.123714
-0.110844
-0.0930808
-0.0467887
-0.0671568
0.0639223
0.751083
0.473192
-0.077793
-0.198488
-0.181874
-0.122856
-0.118464
-0.17808
-0.189371
-0.186851
-0.184477
-0.180136
-0.176955
-0.173679
-0.179282
-0.187421
-0.192852
-0.194289
-0.198775
-0.168695
0.0149484
0.155485
0.147256
0.0745336
0.0671317
0.0744026
0.0663238
0.0703603
0.0260022
0.0426458
0.117016
0.150699
0.166358
0.194813
0.184131
0.161027
0.111813
0.0123228
0.0351002
0.109802
0.0832182
-0.160377
-0.157792
-0.137018
-0.120017
-0.109995
-0.101706
-0.0423714
0.0752723
-0.173841
-0.242062
-0.252835
-0.230239
-0.20789
-0.180061
-0.192437
-0.197531
-0.196543
-0.192174
-0.18846
-0.184675
-0.180265
-0.177574
-0.176235
-0.176473
-0.188302
-0.197503
-0.205053
-0.20861
-0.196736
-0.0823289
0.0854186
0.0903802
0.0992627
0.151054
0.178269
0.169343
0.170429
0.0246592
0.0433424
0.109555
0.140561
0.156496
0.180212
0.168888
0.146523
0.0977795
0.0190843
0.0435789
0.14707
0.13127
0.0754951
-0.141137
-0.128227
-0.114989
-0.107886
-0.104823
-0.113189
-0.125439
-0.176726
-0.218696
-0.218336