/*--------------------------------*- C++ -*----------------------------------*\
| =========                 |                                                 |
| \\      /  F ield         | OpenFOAM: The Open Source CFD Toolbox           |
|  \\    /   O peration     | Version:  2.4.0                                 |
|   \\  /    A nd           | Web:      www.OpenFOAM.org                      |
|    \\/     M anipulation  |                                                 |
\*---------------------------------------------------------------------------*/
FoamFile
{
    version     2.0;
    format      ascii;
    class       volScalarField;
    location    "0.2";
    object      p_rgh;
}
// * * * * * * * * * * * * * * * * * * * * * * * * * * * * * * * * * * * * * //

dimensions      [1 -1 -2 0 0 0 0];

internalField   nonuniform List<scalar> 
3600
(
92.8714
90.0744
88.0961
88.3598
90.4112
92.7544
94.7793
95.4115
96.3805
96.4772
96.7067
96.3584
96.3439
96.3229
96.015
96.1253
96.2648
95.9958
95.5407
94.9258
95.8024
96.3186
96.908
97.563
96.9891
97.4729
98.4041
98.5553
98.5861
98.6323
92.8735
90.0676
88.0821
88.3479
90.4073
92.7629
94.7863
95.4204
96.3901
96.4855
96.709
96.3615
96.3482
96.3284
96.0053
96.1262
96.2405
95.8842
95.3662
94.903
94.6688
94.6629
95.1846
95.8807
96.8338
97.3196
97.4815
97.6387
97.7398
97.7986
92.8833
90.0572
88.0564
88.323
90.3982
92.7781
94.7997
95.4331
96.4054
96.502
96.7137
96.357
96.349
96.3275
95.9988
96.1407
96.167
95.9129
95.4417
94.6262
93.6624
93.6616
94.4747
95.2122
96.1832
96.9615
97.2034
97.413
97.5194
97.5666
92.9006
90.043
88.0179
88.2846
90.3829
92.8
94.8183
95.451
96.4267
96.5284
96.7215
96.3472
96.3451
96.3225
95.9992
96.1726
96.2332
96.0112
95.5547
94.541
92.7124
92.3267
93.6539
94.9064
95.9825
96.564
96.9172
97.1234
97.1907
97.1812
92.9252
90.025
87.9665
88.2325
90.3616
92.829
94.8422
95.4741
96.4532
96.5638
96.7358
96.3353
96.3296
96.31
95.9987
96.2122
96.3194
96.1339
95.5535
94.0358
91.5013
91.2578
92.5619
94.0071
95.3216
96.2152
96.6106
96.8767
96.9312
96.9419
92.9575
90.0031
87.902
88.1664
90.3343
92.8657
94.8714
95.5026
96.4846
96.6076
96.759
96.3248
96.2911
96.2836
95.991
96.2327
96.3178
96.2315
95.5547
93.6862
90.9618
90.5571
92.0973
93.7477
95.088
95.9341
96.3463
96.609
96.7224
96.7575
92.9977
89.9771
87.824
88.0859
90.3007
92.9106
94.9058
95.5363
96.5205
96.6592
96.7899
96.3169
96.254
96.2446
95.9725
96.1933
96.2122
96.1659
95.6334
93.6383
90.782
90.3628
91.9914
93.6752
95.0095
95.7147
96.1477
96.3957
96.5251
96.5777
93.0459
89.9471
87.7324
87.9903
90.2609
92.9645
94.9453
95.5754
96.5613
96.7187
96.8242
96.3075
96.2699
96.2204
95.9231
96.0916
96.0159
96.0142
95.5341
93.7008
91.2021
90.7944
92.3881
93.825
94.8914
95.6065
96.005
96.2208
96.3302
96.3846
93.1024
89.9129
87.6266
87.8792
90.2146
93.0279
94.9897
95.62
96.6077
96.7871
96.8611
96.2909
96.3369
96.2168
95.8396
96.0009
95.8523
95.8897
95.1946
93.8616
91.8296
91.4952
92.8704
94.1361
95.0006
95.5747
95.9125
96.0946
96.1889
96.261
93.1674
89.8745
87.5064
87.7518
90.162
93.1019
95.0388
95.6703
96.6603
96.8671
96.9006
96.2644
96.4154
96.215
95.7422
95.938
95.7822
95.7885
95.1938
94.0887
92.6758
92.4358
93.5542
94.4659
95.1461
95.627
95.9062
96.038
96.1002
96.1653
93.2414
89.8316
87.3712
87.6073
90.103
93.1872
95.0923
95.7263
96.7193
96.9613
96.9407
96.2264
96.4835
96.2094
95.6419
95.8581
95.7695
95.7202
95.2777
94.5485
93.684
93.4965
94.1698
94.7894
95.2903
95.6672
95.9207
96.0258
96.0623
96.0994
93.3246
89.7842
87.2206
87.4448
90.0376
93.2847
95.1501
95.7881
96.7841
97.0709
96.9791
96.1759
96.5422
96.22
95.5393
95.7422
95.7015
95.6606
95.3809
94.9924
94.4583
94.3246
94.6864
95.0958
95.4287
95.6764
95.8645
95.975
96.0187
96.0261
93.4176
89.7321
87.054
87.2633
89.9661
93.3954
95.2118
95.8554
96.8534
97.1966
97.0093
96.1132
96.5932
96.2494
95.4354
95.613
95.5609
95.6095
95.4783
95.3034
94.9605
94.902
95.119
95.3726
95.558
95.7005
95.8353
95.9422
95.9945
95.9978
93.5207
89.6752
86.8707
87.0615
89.8886
93.5203
95.2769
95.928
96.9263
97.3404
97.0286
96.0339
96.6583
96.2967
95.3184
95.474
95.429
95.598
95.5636
95.5177
95.3652
95.3353
95.4592
95.606
95.6748
95.6621
95.7172
95.8889
95.9873
95.9833
93.6344
89.6134
86.6701
86.8383
89.8053
93.6606
95.3448
96.0056
97.0022
97.5047
97.032
95.9361
96.738
96.3624
95.2228
95.3491
95.3127
95.578
95.6257
95.6818
95.6614
95.6438
95.6967
95.8092
95.8738
95.7999
95.7176
95.8559
95.9797
95.9621
93.7594
89.5463
86.4514
86.5922
89.7168
93.8174
95.4151
96.0874
97.0808
97.6931
97.0101
95.8169
96.8403
96.4257
95.0431
95.1108
95.2124
95.5231
95.6304
95.8026
95.8929
95.8757
95.8523
95.9045
96.0107
96.0612
95.9915
95.9693
96.0174
95.9743
93.8962
89.4739
86.2138
86.3214
89.6234
93.9924
95.4867
96.1746
97.1614
97.9075
96.9514
95.6724
96.9659
96.5076
94.8495
94.7975
95.0462
95.46
95.6541
95.9033
96.139
96.0639
95.9749
95.9247
95.9468
96.018
96.0449
95.971
95.9543
95.9612
94.0455
89.3959
85.9564
86.024
89.5258
94.187
95.5594
96.2595
97.2371
98.157
96.8424
95.4772
97.1274
96.6166
94.6275
94.428
94.8374
95.4201
95.7171
96.0009
96.308
96.251
96.0884
95.9727
95.9298
96.007
96.0953
96.0364
96.0242
96.1369
94.2081
89.3121
85.6781
85.6981
89.4244
94.4037
95.6297
96.3575
97.319
98.4375
96.6649
95.2795
97.2998
96.7309
94.2928
93.8746
94.6384
95.399
95.7778
96.0961
96.4444
96.4133
96.1984
96.1001
95.9822
96.0434
96.1826
96.2002
96.1937
96.2587
94.3846
89.2226
85.378
85.3416
89.32
94.6451
95.6938
96.4373
97.3899
98.7735
96.3895
94.9945
97.4988
96.8818
93.9535
93.2717
94.497
95.3808
95.789
96.1344
96.5154
96.4833
96.1272
96.088
96.1028
96.1794
96.3371
96.3633
96.3295
96.3584
94.5763
89.128
85.0554
84.9534
89.2134
94.9137
95.7954
96.5403
97.4573
99.1352
95.2362
94.735
97.6263
96.7434
93.3987
92.6198
94.4958
95.3475
95.739
96.1423
96.5065
96.3713
95.8842
96.0314
96.2604
96.4021
96.4854
96.4894
96.4475
96.4646
94.7835
89.0307
84.7107
84.5344
89.1047
95.2111
95.7559
96.6282
97.5631
99.57
96.1841
94.4081
97.5626
96.4418
93.0576
91.6141
93.9806
95.3799
95.6553
96.1846
96.1684
96.3025
95.8592
96.104
96.4275
96.5837
96.6324
96.6228
96.6094
96.6316
95.0083
88.9329
84.3475
84.0925
88.9951
95.5335
95.9485
96.7277
97.6626
99.7784
95.3205
93.7638
96.9497
96.1336
92.602
90.3324
93.8188
95.4293
95.5459
96.2949
96.242
96.2869
96.1501
96.3207
96.5863
96.6594
96.713
96.7388
96.759
96.7678
95.2507
88.8385
83.9736
83.6222
88.8818
95.8695
95.8943
96.8568
97.7535
99.895
95.5309
93.0458
96.4192
95.7571
91.2631
89.3853
93.5203
95.5502
95.5565
96.2595
96.1775
96.8105
96.4481
96.5648
96.7496
96.792
96.8363
96.8529
96.8746
96.8911
95.5136
88.7549
83.5857
82.7682
88.7709
96.1928
95.8319
96.0407
97.7354
100.26
96.2219
93.4667
96.4548
95.496
91.4005
89.3096
93.2853
95.8563
95.6197
95.6822
96.2636
97.0009
96.7253
96.7906
96.8707
96.8776
96.9116
96.9408
96.9829
97.0062
95.8004
88.6734
61.6643
41.2015
80.9551
96.5009
98.9678
97.9091
97.7928
100.517
96.2173
93.3548
96.9868
95.3765
90.6447
89.649
93.5018
95.8592
95.6597
96.58
96.3977
96.6138
96.7767
96.9863
96.9953
97.022
97.0589
97.0867
97.1287
97.1418
96.1164
84.1668
10.411
16.0524
51.5994
94.4682
97.1282
95.5633
97.9803
100.839
96.751
95.1488
97.4303
95.0661
91.2631
91.1732
93.3266
95.5989
95.3804
95.5614
96.7057
97.037
97.044
97.0788
96.9904
97.0244
97.1456
97.2154
97.2812
97.2991
96.4412
27.6027
4.15995
17.5413
55.8927
87.6142
97.2602
94.432
98.5369
101.165
97.5059
96.4996
97.9225
95.0566
92.0566
92.0818
93.4904
95.5294
95.5374
97.0269
97.2083
97.065
97.1999
97.0938
97.1372
97.1484
97.3241
97.3867
97.4539
97.4808
84.3248
0.923466
3.19585
5.47026
26.8495
83.8654
97.0749
94.5649
98.7824
101.395
98.2575
96.9748
98.4591
93.0297
82.0723
88.246
91.4026
95.5378
95.7868
97.3684
97.1641
97.1755
97.3426
97.4525
97.3886
97.3118
97.4123
97.5119
97.617
97.6649
14.5131
0.897299
0.620514
0.0141213
9.38892
52.4558
73.1171
62.3102
94.221
101.575
93.8763
88.0681
93.9193
41.7895
22.0929
15.0108
16.0011
39.2366
39.9075
63.4993
61.2007
67.7866
67.5528
72.8111
70.5634
71.5933
70.9834
71.987
71.8837
72.3532
98.6411
98.6921
98.7195
98.0188
97.7534
98.1022
97.731
96.7812
96.0487
95.4391
94.648
95.2591
95.5451
95.9487
95.7129
95.5304
95.6736
95.5019
95.364
95.3078
94.7179
94.5734
93.9383
94.2056
93.0618
91.4252
89.2567
88.6645
90.6111
93.1186
97.811
97.7855
97.7615
97.6961
97.5141
96.947
96.1396
95.3386
94.3908
93.977
94.5969
95.0896
95.3774
95.8228
95.7181
95.525
95.6818
95.5066
95.37
95.3141
94.7221
94.5726
93.9393
94.2121
93.072
91.4266
89.2482
88.6512
90.6038
93.1203
97.5566
97.5059
97.4104
97.3739
97.1248
96.4355
95.7261
94.8826
93.4566
93.4567
94.4496
95.0994
95.4059
95.7731
95.7259
95.5208
95.6861
95.5077
95.3735
95.3196
94.7261
94.5679
93.9367
94.2249
93.0916
91.429
89.2299
88.6253
90.5924
93.1293
97.2231
97.2575
97.1832
97.0187
96.7719
96.1681
95.4391
94.2272
92.1405
91.8608
94.023
95.1713
95.4893
95.8392
95.7601
95.5378
95.6844
95.503
95.3764
95.3269
94.7313
94.5591
93.9317
94.2428
93.1208
91.4315
89.2013
88.5861
90.5768
93.1452
96.9375
96.8934
96.7778
96.5882
96.2731
95.591
94.5912
93.1474
91.1928
90.9882
93.3344
95.1197
95.7195
95.9446
95.8112
95.5564
95.6781
95.4884
95.3819
95.3385
94.738
94.5463
93.9247
94.2665
93.1598
91.4342
89.1621
88.5337
90.5568
93.168
96.7359
96.6406
96.4628
96.2129
95.8999
95.2968
94.3187
92.8788
90.8679
90.5854
93.137
95.0753
95.7367
95.9545
95.8457
95.5705
95.6625
95.4546
95.3943
95.3557
94.7459
94.5292
93.9155
94.296
93.2092
91.4372
89.1122
88.4678
90.5323
93.198
96.5377
96.4238
96.2391
96.0098
95.6954
95.1433
94.3033
92.8277
90.9208
90.7329
93.0974
95.3266
95.6925
95.8696
95.827
95.5775
95.6336
95.4053
95.4153
95.3763
94.754
94.507
93.9036
94.3316
93.2693
91.4408
89.0511
88.388
90.5032
93.2353
96.3507
96.2554
96.0975
95.8868
95.5779
95.0819
94.2674
93.1781
91.553
91.3027
93.2145
95.0555
95.5873
95.7082
95.7481
95.5594
95.6161
95.3979
95.443
95.3986
94.7617
94.479
93.8885
94.3732
93.3409
91.4452
88.9783
88.294
90.4694
93.2803
96.2144
96.1349
95.9955
95.8151
95.5553
95.1472
94.5222
93.6003
92.1886
92.0492
93.4038
94.9175
95.4924
95.5476
95.6654
95.5096
95.619
95.443
95.4721
95.4228
94.769
94.4448
93.87
94.421
93.4246
91.4508
88.8934
88.1853
90.4305
93.333
96.1104
96.0605
95.9717
95.8363
95.6126
95.2643
94.783
94.1188
93.1695
92.9637
93.8505
94.9441
95.4366
95.4733
95.6211
95.4401
95.6282
95.5135
95.4996
95.4528
94.7774
94.4037
93.8475
94.4753
93.5211
91.4582
88.7957
88.0615
90.3866
93.3939
96.0562
96.0254
95.9556
95.8399
95.6474
95.3682
95.0249
94.5644
93.9856
93.8464
94.4294
95.0352
95.4254
95.4857
95.5882
95.3845
95.6277
95.5752
95.5237
95.4908
94.7883
94.3549
93.8205
94.5361
93.6311
91.4678
88.6844
87.9221
90.3374
93.4633
96.0097
95.9901
95.9383
95.8319
95.6642
95.4673
95.2588
94.9496
94.5557
94.467
94.8288
95.1358
95.4219
95.4808
95.5448
95.3269
95.6375
95.6175
95.5428
95.5378
94.8027
94.2971
93.788
94.6039
93.7554
91.4806
88.5586
87.7663
90.2825
93.5415
95.9959
95.9642
95.8758
95.7794
95.6551
95.555
95.4634
95.2618
94.9756
94.8904
95.0429
95.2223
95.4163
95.4362
95.5046
95.2906
95.6631
95.6393
95.5645
95.5914
94.8199
94.2283
93.7488
94.6789
93.8957
91.4972
88.4172
87.5935
90.2219
93.629
95.9569
95.8934
95.8049
95.7019
95.6692
95.6763
95.643
95.4925
95.2898
95.2037
95.2157
95.2794
95.4324
95.3784
95.4604
95.2453
95.705
95.6578
95.5819
95.6522
94.8401
94.1465
93.7014
94.7614
94.0528
91.5188
88.2591
87.4028
90.1551
93.7263
95.8862
95.8641
95.8867
95.9028
95.8757
95.8597
95.8127
95.6662
95.5214
95.4097
95.3598
95.3042
95.4326
95.3236
95.4318
95.2298
95.7657
95.6809
95.6203
95.7189
94.8622
94.0491
93.6444
94.8516
94.2278
91.5462
88.083
87.1935
90.0819
93.8338
95.8463
95.8337
95.9591
95.9924
95.9242
95.9077
95.9423
95.8024
95.7007
95.5413
95.4456
95.2829
95.3925
95.2886
95.3415
95.2953
95.8546
95.704
95.6261
95.7958
94.8929
93.9341
93.5752
94.95
94.4223
91.5806
87.8874
86.9645
90.0019
93.9523
95.9266
95.9097
95.9456
95.8381
95.7792
95.8863
96.0476
95.9519
95.8696
95.6327
95.5236
95.2834
95.3535
95.2196
95.2196
95.11
95.8843
95.7462
95.6878
95.8873
94.9176
93.7935
93.4962
95.0567
94.638
91.623
87.6707
86.7148
89.9147
94.0822
96.1405
96.1075
96.0299
95.8116
95.7821
95.936
96.1304
95.9643
95.7955
95.5662
95.5058
95.2965
95.321
95.0958
95.0734
95.205
96.0383
95.7728
95.6715
95.954
94.9546
93.6376
93.3916
95.1723
94.8767
91.6748
87.431
86.4432
89.8201
94.2244
96.2979
96.233
96.1414
95.9287
95.8463
95.9899
96.1009
96.096
95.946
95.5897
95.3752
95.2926
95.27
94.9814
94.8994
94.9976
96.065
95.8016
95.737
96.1196
95.0005
93.4258
93.2787
95.2966
95.1406
91.7371
87.1665
86.1483
89.7175
94.3796
96.389
96.3688
96.3046
96.2208
96.0972
96.1048
96.0877
95.7472
96.1237
95.722
95.3337
95.2414
95.2202
94.8867
94.6751
94.8565
96.1376
95.8382
95.778
96.1627
95.0536
93.2032
93.1254
95.431
95.4322
91.811
86.8753
85.8288
89.6066
94.5485
96.5086
96.528
96.5111
96.4792
96.3319
96.1555
96.0301
95.8895
96.1956
95.8937
95.3653
95.1115
95.1801
94.7625
94.4118
94.695
96.3075
95.8624
95.7729
96.312
95.126
92.9163
92.9634
95.5754
95.7515
91.8977
86.5565
85.4835
89.4883
94.7324
96.6759
96.6965
96.718
96.7022
96.5157
96.2973
96.0855
96.416
95.9602
95.0617
95.4164
95.1799
95.1542
94.5845
93.8962
94.4805
96.4847
95.9789
95.7416
96.4883
95.2262
92.5947
92.6895
95.7378
96.1078
91.9957
86.2095
85.1121
89.3647
94.9318
96.7898
96.8117
96.8134
96.7714
96.6668
96.4966
96.2603
96.0139
95.8701
94.8505
95.385
95.1022
95.1022
94.4161
93.4864
94.1699
96.719
96.1082
95.7603
96.6662
95.3171
92.2737
92.6126
95.931
96.4709
92.1052
85.8428
84.7166
89.239
95.1488
96.9007
96.9043
96.8896
96.8303
96.778
96.7123
96.3675
96.2619
96.009
95.2273
94.818
95.0943
95.0974
93.9219
92.9064
93.7758
96.8428
96.0641
95.7593
96.6667
95.3599
91.9856
92.1665
96.1446
96.8978
92.2089
85.4508
84.3059
89.1167
95.3836
97.0094
96.9951
96.9717
96.902
96.8916
96.8953
96.4417
96.2872
96.8894
95.1007
94.9013
94.4677
95.0205
93.7387
91.8347
93.0941
97.1339
96.0051
95.5164
96.9069
95.4337
92.5341
93.1067
96.3019
97.2122
92.3231
85.0699
83.8843
89.0076
95.6393
97.1394
97.1161
97.09
96.9907
96.9496
97.0972
96.4497
96.1699
96.9787
94.9568
94.3501
94.604
95.0568
92.9295
91.2529
92.365
97.1344
95.9021
95.631
97.8935
95.508
92.0993
92.7456
96.6239
97.5376
88.9174
57.6012
60.4523
88.906
95.9181
97.2989
97.2772
97.2189
97.129
97.0219
97.1138
96.5888
96.4027
96.6969
95.5606
94.5596
94.184
95.0949
93.7773
92.6282
92.3495
96.9591
95.3963
95.3776
98.1642
96.07
92.3829
93.7928
96.7159
97.5963
73.5736
26.1983
9.84563
83.9453
96.2219
97.4878
97.4927
97.4265
97.3697
97.196
97.1702
96.9449
96.7309
96.5573
95.6259
94.7042
94.4203
95.015
93.9977
93.2886
92.9862
97.3592
95.6954
96.13
99.499
96.4695
92.2923
93.9521
97.0509
95.2839
75.7307
28.6822
7.47076
31.8205
96.523
97.6804
97.7053
97.6579
97.6221
97.4752
97.2554
97.4352
97.2257
96.5931
95.4633
94.5013
93.7776
94.8764
93.8226
92.3009
84.7186
97.7661
96.9472
96.5784
99.9133
96.4818
73.3178
85.4343
97.0201
94.723
56.4737
16.0369
6.69978
1.16067
85.6541
71.9562
71.874
70.9913
69.9784
68.5797
66.0501
65.1149
59.0369
53.4969
40.462
33.4961
20.688
26.5871
14.4139
28.4008
28.9346
69.1374
83.6892
75.4901
97.6223
53.4936
9.06718
20.4407
58.3506
59.551
19.184
1.55367
3.00107
0.806922
17.1664
0.00682305
-4.66919e-05
0.0287751
-0.000511972
-0.0198385
7.34375
14.6839
2.72172
43.2236
89.4116
44.6383
16.1441
12.06
0.0904685
0.518624
0.104146
0.0368469
0.0218136
0.0483543
1.48453
2.79524
7.8472
7.96379
10.0988
10.8808
13.0517
13.0251
13.6752
13.2809
13.38
0.00723544
-0.000227692
0.0277352
-0.0017083
-0.0177575
-0.00360356
-0.00911139
-0.00221932
5.95536
40.7861
4.12062
0.0480639
0.0522156
0.0690856
0.01673
0.0451329
0.0391282
0.0306154
0.0368064
0.0141944
0.0122316
0.0102889
0.0116099
0.010063
0.0129746
0.0133776
0.0147462
0.0155791
0.0156009
0.0157123
0.00728617
-0.000306134
0.0269553
-0.0018161
-0.0173616
-0.00393093
-0.00833128
-0.00229767
0.00202576
-0.00278814
-0.00880776
0.347011
0.126504
0.032455
0.0161209
0.049704
0.0352387
0.0184022
0.0171339
0.0144926
0.0126988
0.01108
0.011195
0.0104033
0.0110841
0.0114147
0.0119499
0.0124702
0.0127446
0.0129385
0.00626426
-0.00110809
0.0262817
-0.00169369
-0.0165512
-0.00372649
-0.00844152
-0.00225505
0.0027448
-0.00148801
-0.00837917
-0.0111702
0.00527346
0.0275086
0.0069334
0.0186752
0.0279733
0.0186932
0.0175781
0.0134391
0.012135
0.0111661
0.0112664
0.0106396
0.0112054
0.0115715
0.0120658
0.0125165
0.0128247
0.0130543
0.00610952
-0.000923945
0.0255305
-0.00144139
-0.0155537
-0.00358159
-0.00831819
-0.00196271
0.0025286
-0.00172842
-0.00838414
-0.0112772
0.00423227
0.0202824
0.00498749
0.00125941
0.0280687
0.0175764
0.0175541
0.0133328
0.0121297
0.0115416
0.0113951
0.0108278
0.0113444
0.0117704
0.0122504
0.0126668
0.0129761
0.013111
0.00608259
-0.000603242
0.0245864
-0.00115558
-0.0146772
-0.00352509
-0.00799441
-0.00170581
0.00296282
-0.00139388
-0.00850004
-0.0115706
0.00345361
0.0136856
-0.0105048
0.000719279
0.0266765
0.0162653
0.0179745
0.0131511
0.0121414
0.0115277
0.0111869
0.0109905
0.0114553
0.01192
0.0123667
0.0127647
0.0131504
0.0139259
0.00606202
-0.000390652
0.0234149
-0.000940682
-0.0140357
-0.00351583
-0.00743041
-0.00134966
0.00294146
-0.00129843
-0.00879487
-0.0119235
0.00204595
0.00540463
-0.0305552
-0.00101007
0.0267253
0.0160683
0.0183091
0.0130769
0.011935
0.0112414
0.011137
0.0111097
0.0115505
0.0120434
0.0124694
0.0133136
0.0141254
0.0147344
0.00605221
-0.000321986
0.0220798
-0.000848005
-0.0135769
-0.00343819
-0.00646486
-0.00086384
0.00325606
-0.00122783
-0.00910254
-0.0123143
-0.000221269
0.00226588
-0.020189
0.0212791
0.0263201
0.0156699
0.0160943
0.0130823
0.0119541
0.0112905
0.0111649
0.0111772
0.0116147
0.012436
0.0133486
0.0137852
0.0142128
0.0133955
0.0060434
-0.000348139
0.0207407
-0.000850744
-0.0131312
-0.00336328
-0.00553047
-0.000415666
0.00292516
-0.00074985
-0.00969023
-0.0127495
-0.00274549
-0.00124396
-0.0177688
0.0213295
0.0462122
0.0158755
0.0156617
0.0132218
0.0120486
0.011387
0.0112008
0.0111713
0.0121133
0.0129845
0.0133756
0.0129428
0.0123624
0.0126432
0.00602132
-0.000405292
0.0194844
-0.000890836
-0.0124373
-0.00335317
-0.004345
-0.000148592
0.00260974
0.000615306
-0.00909197
-0.0127826
-0.00494912
-0.00634454
0.0544569
0.0722807
0.0741435
0.0182325
0.0153217
0.0134669
0.0122679
0.0115175
0.0112429
0.0111799
0.0132555
0.0131647
0.0118111
0.0118116
0.012086
0.0123189
0.00598306
-0.000468606
0.0182911
-0.000937073
-0.012016
-0.00354077
-0.00309869
-0.000239778
0.000586229
-1.10345e-05
-0.00996352
-0.0104265
-0.00661216
-0.00905671
-0.0131712
0.0759987
0.076026
0.0222268
0.0154065
0.0138314
0.01262
0.0116957
0.0112688
0.0110932
0.0112397
0.0111523
0.0111844
0.0114581
0.0116136
0.0118398
0.00592464
-0.000532623
0.0170859
-0.000940782
-0.0114693
-0.00394787
-0.00196697
-0.000826889
-0.00178558
-0.0010383
-0.0114799
-0.0144088
-0.00805623
-0.0100846
-0.0133756
0.0304867
0.0698002
0.022372
0.0159415
0.0140339
0.012793
0.0119096
0.0113875
0.0109866
0.0108362
0.010785
0.0108327
0.0109523
0.0111046
0.0112581
0.00584238
-0.000597575
0.0158691
-0.000882277
-0.0108342
-0.00428728
-0.0011019
-0.00187842
-0.00404552
-0.00240742
-0.0135693
-0.015597
-0.00802174
-0.0105198
-0.00963531
0.025368
0.0765613
0.0330424
0.0161152
0.0137856
0.0125665
0.011736
0.0111566
0.010768
0.0105355
0.0103826
0.0103764
0.0104085
0.0104823
0.0105773
0.00573336
-0.000663744
0.014654
-0.000791232
-0.0100539
-0.00428036
-0.000657938
-0.00314076
-0.00546547
-0.00562594
-0.0163308
-0.0162017
-0.00810439
-0.00990291
-0.00719865
0.00748369
0.0723108
0.0717207
0.0181738
0.0128958
0.0119311
0.0112904
0.0107686
0.0104591
0.010146
0.00992293
0.00981191
0.00978713
0.00981753
0.00984758
0.00559534
-0.000721383
0.0134446
-0.000696311
-0.00907268
-0.0038339
-0.000737501
-0.00450109
-0.00574308
-0.00810891
-0.0165623
-0.0159122
-0.00951133
-0.00811281
-0.00481738
0.00191255
0.041194
0.0845317
0.0634145
0.0109252
0.0106566
0.0106496
0.0102998
0.00999045
0.00967631
0.00939671
0.00914613
0.00906104
0.00906182
0.00911566
0.00542679
-0.00076704
0.0122494
-0.00060724
-0.00797265
-0.00318961
-0.0011475
-0.00595061
-0.00544684
-0.00944843
-0.0158577
-0.0153979
-0.0100134
-0.00795102
-0.00283998
0.0030975
0.0280671
0.0876996
0.0876477
0.0264206
0.00896754
0.00998918
0.00986965
0.00953206
0.00912227
0.00879202
0.00858013
0.00847594
0.00845855
0.00848997
0.00522692
-0.000796446
0.0110741
-0.000528375
-0.00685754
-0.00260114
-0.00145385
-0.00730321
-0.00595218
-0.0107613
-0.0145236
-0.0138644
-0.00919748
-0.00640109
-0.00146746
0.00438014
0.0102071
0.0732379
0.0938528
0.0539709
0.00722135
0.00973974
0.00989332
0.00948484
0.00886684
0.00840701
0.00810335
0.00796957
0.00794738
0.00797983
0.00499553
-0.000800637
0.00991821
-0.00045785
-0.00579982
-0.00215179
-0.00151526
-0.00797551
-0.00746713
-0.0119556
-0.0128768
-0.0123505
-0.00879673
-0.00559413
-0.0011452
0.00392689
0.00700873
0.0496046
0.0881284
0.00658499
0.00753328
0.0102361
0.010798
0.0101195
0.00979228
0.010263
0.0105469
0.00868304
0.00774357
0.00767785
0.00473276
-0.000787735
0.00879926
-0.000396517
-0.00485265
-0.00181798
-0.00142803
-0.00741407
-0.00889301
-0.0122624
-0.0108669
-0.0106213
-0.00876974
-0.0056357
-0.00199045
0.00155121
0.00354816
0.00225264
0.0103622
0.00562703
0.0278006
0.0185069
0.0129086
0.0114559
0.0109424
0.0111903
0.0106842
0.00917158
0.00831083
0.00805738
0.00443903
-0.000770284
0.0077383
-0.000341427
-0.0040355
-0.00157179
-0.00138095
-0.00576579
-0.00979198
-0.0111196
-0.00847576
-0.00828381
-0.00849166
-0.00637918
-0.00373313
-0.00135585
0.000806534
0.000533037
0.000536396
0.000866232
0.00376644
0.0349198
0.0356892
0.015209
0.0101742
0.00971947
0.0095388
0.00897222
0.00877924
0.00855311
0.00411517
-0.00074331
0.00673523
-0.000295721
-0.00332826
-0.00140383
-0.00145193
-0.00434285
-0.010633
-0.00913813
-0.00609337
-0.00553563
-0.00792239
-0.00777679
-0.0066614
-0.00478239
-0.00192876
-0.000442432
0.000359349
0.000967972
0.00164311
0.00260023
0.0266375
0.0154321
0.00851513
0.00874736
0.00884468
0.0107593
0.0325363
0.0504214
0.0037626
-0.000706052
0.00579283
-0.00025911
-0.0027183
-0.00128553
-0.00152106
-0.00344299
-0.0100933
-0.00673611
-0.00337283
-0.00317167
-0.00762431
-0.00999103
-0.0104917
-0.00851514
-0.00463321
-0.00155336
0.00049892
0.00203834
0.00351875
0.00502952
0.0127565
0.0161679
0.0077883
0.00805017
0.0082003
0.0358751
0.0527072
0.0537628
0.00338357
-0.000658459
0.00491309
-0.000230058
-0.00219612
-0.00118718
-0.00152178
-0.00278629
-0.00742182
-0.00441114
-0.000111613
-0.00132807
-0.00729472
-0.0121021
-0.0145693
-0.0121313
-0.00693838
-0.00252484
0.000522569
0.00252871
0.00391455
0.00526445
0.0059001
0.00794256
0.00613767
0.00576987
0.00539944
0.00986484
0.0153074
0.0513975
0.00298111
-0.000600808
0.00409642
-0.000227252
-0.00172884
-0.00109033
-0.00144968
-0.00228592
-0.00494847
-0.00287118
0.00169249
-0.000751336
-0.00639601
-0.0134315
-0.0165884
-0.0137137
-0.00803663
-0.00318236
0.000135885
0.00217243
0.0044039
0.00483971
0.00419873
0.00415642
0.00442455
0.00422584
0.00397069
0.00361576
0.00413881
0.00686253
0.00255866
-0.000533342
0.00334146
-0.000210817
-0.00134568
-0.000981676
-0.00132333
-0.00190412
-0.00351598
-0.00236047
0.00103206
-0.000116076
-0.00525597
-0.0109702
-0.0141063
-0.0112321
-0.00668381
-0.00282039
-0.000107851
0.00176711
0.00290813
0.00307839
0.00315441
0.00336193
0.0035672
0.0037965
0.00393656
0.00401949
0.00402299
0.00396409
0.00211952
-0.000456495
0.0026446
-0.00018605
-0.00102789
-0.000854098
-0.00115085
-0.00156219
-0.00252496
-0.00189404
-7.50794e-06
-0.00037588
-0.00293872
-0.00727064
-0.00843338
-0.00658674
-0.00400698
-0.00174261
-1.42769e-05
0.00114739
0.00179588
0.00223075
0.00255791
0.00284937
0.00313211
0.00341186
0.00374198
0.00395122
0.00414336
0.00434403
0.00166595
-0.000370609
0.00199918
-0.000154575
-0.000759987
-0.000705444
-0.000945147
-0.00123391
-0.00175774
-0.00143845
-0.000564927
-0.00109523
-0.00279026
-0.0048474
-0.00460123
-0.00348903
-0.00217586
-0.000855471
0.000153021
0.000868832
0.00134339
0.00168425
0.0019538
0.00219031
0.00241296
0.00269486
0.00321431
0.00324278
0.00335466
0.00357901
0.00119798
-0.000275781
0.00139499
-0.000117311
-0.000527698
-0.000535567
-0.000711362
-0.000906302
-0.00113944
-0.000974585
-0.00055376
-0.00103969
-0.00224159
-0.00282941
-0.00245046
-0.00183162
-0.00111026
-0.00038622
0.000175162
0.000584411
0.000858067
0.00102909
0.00113908
0.00121813
0.0013831
0.00169012
0.00172917
0.00172155
0.00172867
0.00480025
0.00071195
-0.000171204
0.000818659
-7.33928e-05
-0.000317288
-0.000345416
-0.000450396
-0.000567349
-0.000647245
-0.000546749
-0.000378264
-0.000596386
-0.00116744
-0.00140413
-0.00111657
-0.000801437
-0.000457126
-9.05661e-05
0.000248152
0.000560256
0.000836161
0.00109223
0.00134543
0.00159731
0.00199501
0.00236086
0.00245702
0.00239043
0.00260571
0.014562
0.000198735
-5.93464e-05
0.000245607
-2.73925e-05
-0.000115647
-0.000136255
-0.000165183
-0.000213653
-0.000192165
-0.000118062
-6.0742e-05
-0.000155202
-0.000344219
-0.000408104
-0.000293173
-0.000215361
-0.000136063
-4.9442e-05
3.75339e-05
0.000129017
0.000215038
0.000295698
0.00036807
0.000419414
0.000457143
0.000465128
0.000357266
0.000159998
-0.000176462
0.000944712
12.8595
12.8142
12.1493
11.4378
10.1828
8.46954
6.02847
3.83457
1.58446
0.0341701
0.0101015
0.01136
0.00489714
0.00221882
0.0111711
0.0212401
0.00481897
1.94282
0.244856
47.4566
2.41318
-0.00342576
-0.0080231
5.91827
6.01779
-0.0154517
-0.0075555
0.0265158
-0.00136479
0.00619311
0.0156845
0.0150018
0.0149463
0.015728
0.0155199
0.0155893
0.0132535
0.0129166
0.0112261
0.0109187
0.010281
0.00837875
0.00593868
0.00449931
0.00974559
0.0171547
0.00938417
0.0165356
0.0214591
3.1543
-0.00121928
-0.00375386
-0.00732707
-0.013159
-0.00531268
-0.0131463
-0.010834
0.0241584
-0.00147186
0.00691724
0.0131144
0.0131552
0.0133853
0.0137464
0.0140265
0.0140807
0.0133303
0.0128074
0.0113942
0.0106075
0.00945281
0.00782529
0.00550571
0.00462519
0.00965592
0.0169037
0.0090981
0.0157484
0.015644
-0.033458
-0.0122848
-0.00389867
-0.00734936
-0.0126459
-0.00519339
-0.013676
-0.0110297
0.02323
-0.00178734
0.00698645
0.0132216
0.0133399
0.013486
0.0137959
0.0140709
0.0140367
0.0133928
0.0128156
0.0113908
0.0102891
0.00885369
0.00725508
0.00526441
0.00470074
0.00962883
0.0167527
0.00911979
0.0139395
0.0122784
-0.0287441
-0.0123691
-0.00387432
-0.00728832
-0.0124675
-0.00505354
-0.0137642
-0.0108916
0.0226575
-0.00241254
0.00656857
0.0132282
0.0133666
0.0136341
0.0140576
0.0142448
0.0140105
0.0134409
0.0127952
0.0112972
0.00989352
0.00816326
0.00651785
0.00496235
0.00474801
0.00957342
0.0163547
0.00924052
0.0123124
0.00917887
-0.0250473
-0.0120897
-0.00373831
-0.00711722
-0.0121887
-0.00491711
-0.0133851
-0.0105049
0.022212
-0.00250447
0.00652594
0.015156
0.0134786
0.0136006
0.0137839
0.0139279
0.0139543
0.0134233
0.0126745
0.0110552
0.00934124
0.00749288
0.00618036
0.00495433
0.00481654
0.00946861
0.0160776
0.00929329
0.0104767
0.00642637
-0.022125
-0.0117346
-0.00355081
-0.00688006
-0.0117512
-0.00478753
-0.0126634
-0.00988981
0.0218317
-0.00233198
0.00649883
0.0150973
0.013419
0.0135473
0.0137476
0.0138629
0.0138199
0.0132949
0.0123888
0.0106462
0.00904416
0.0074839
0.00578121
0.00590459
0.00489172
0.00943322
0.0158471
0.00914297
0.00888922
0.00402419
-0.0191792
-0.0112451
-0.00335965
-0.00662791
-0.0111297
-0.00467147
-0.0118334
-0.00907025
0.0215265
-0.0019551
0.00647746
0.0131111
0.0132495
0.013427
0.0136023
0.0136836
0.0135662
0.0130036
0.0119572
0.0102698
0.00910186
0.00635102
0.00462062
0.00471375
0.00445329
0.00950304
0.0155812
0.00893061
0.00737571
0.00190438
-0.016687
-0.0109586
-0.00323656
-0.00640681
-0.0103333
-0.00453519
-0.0111947
-0.00839984
0.0209552
-0.00161812
0.00646376
0.012864
0.0130522
0.0131949
0.0133266
0.0133597
0.0131675
0.0125431
0.011404
0.00965713
0.00808045
0.00519413
0.00344668
0.00263862
0.00400944
0.00967214
0.0151816
0.00847113
0.00587104
8.2649e-05
-0.0146637
-0.0110024
-0.00326007
-0.00627414
-0.00940111
-0.00439286
-0.0107635
-0.00783274
0.0201083
-0.00144221
0.00645144
0.0124731
0.0127162
0.012792
0.0128947
0.0128807
0.0126246
0.0119326
0.0107466
0.00910825
0.00715217
0.00422727
0.00208235
0.00176443
0.00396754
0.00983334
0.0145978
0.00792797
0.00446014
-0.00143725
-0.0131002
-0.0114819
-0.00349319
-0.00627177
-0.00843766
-0.00426397
-0.0104248
-0.00736136
0.01902
-0.00145116
0.00642951
0.0120315
0.0122047
0.0123517
0.0124272
0.0122719
0.011986
0.0112401
0.0104863
0.00909308
0.00643617
0.00307351
0.000800882
0.0014566
0.00407082
0.00989321
0.013874
0.00706546
0.00294014
-0.00260845
-0.0119836
-0.0123798
-0.00399492
-0.00636413
-0.00759001
-0.00416292
-0.0100228
-0.00693322
0.0178012
-0.00154791
0.00638816
0.0114063
0.0115481
0.0116786
0.0117584
0.011655
0.0113506
0.0107097
0.0109839
0.00892807
0.00582706
0.00249036
0.000843294
0.00157959
0.00432561
0.00976982
0.0126453
0.00609455
0.00176919
-0.00339525
-0.0112911
-0.0134148
-0.00478009
-0.00638896
-0.00692961
-0.00407688
-0.00948721
-0.00649456
0.0166815
-0.00166679
0.00632666
0.0106791
0.010803
0.0109386
0.0110264
0.01097
0.0107295
0.0102048
0.0103699
0.00893627
0.00609892
0.00297401
0.00172179
0.00213495
0.00463089
0.00924346
0.0110115
0.00530581
0.00101589
-0.00376077
-0.0110033
-0.0140423
-0.00571346
-0.00623548
-0.00640225
-0.00393571
-0.00882658
-0.00601135
0.0153824
-0.00178334
0.00624233
0.00997206
0.0100698
0.010207
0.0102983
0.0102442
0.0101683
0.00979181
0.00932727
0.00915673
0.00736943
0.00385252
0.00256821
0.00268265
0.00455621
0.00819303
0.00922971
0.00486272
0.000883432
-0.00369964
-0.0111517
-0.0140071
-0.00659273
-0.00606731
-0.00589257
-0.0036618
-0.00806947
-0.00550398
0.0141033
-0.00188967
0.00613234
0.00921132
0.00944216
0.0095654
0.00954772
0.00964749
0.00969231
0.00955124
0.0091146
0.00880268
0.00820993
0.00495631
0.00349565
0.00299378
0.00407367
0.00681948
0.00763418
0.00483694
0.00142462
-0.00326012
-0.0118438
-0.0137443
-0.00737939
-0.00614075
-0.00543585
-0.00324997
-0.00725647
-0.00497931
0.0128642
-0.00197925
0.00599447
0.00854607
0.00863495
0.00877275
0.00894185
0.00911659
0.00925341
0.00927364
0.00904789
0.00846789
0.00755025
0.00620525
0.0041233
0.00292747
0.00323757
0.00531719
0.0065147
0.00518894
0.00244605