/*--------------------------------*- C++ -*----------------------------------*\
| =========                 |                                                 |
| \\      /  F ield         | OpenFOAM: The Open Source CFD Toolbox           |
|  \\    /   O peration     | Version:  2.4.0                                 |
|   \\  /    A nd           | Web:      www.OpenFOAM.org                      |
|    \\/     M anipulation  |                                                 |
\*---------------------------------------------------------------------------*/
FoamFile
{
    version     2.0;
    format      ascii;
    class       surfaceScalarField;
    location    "0.393";
    object      phiAlpha;
}
// * * * * * * * * * * * * * * * * * * * * * * * * * * * * * * * * * * * * * //

dimensions      [0 3 -1 0 0 0 0];

internalField   nonuniform List<scalar> 
19800
(
-7.35037e-58
6.79428e-62
-7.23843e-54
4.14369e-57
-8.8469e-51
1.04081e-53
-3.34734e-48
6.50602e-51
-4.98238e-46
1.52953e-48
-3.21613e-44
1.5317e-46
-1.00164e-42
6.83502e-45
-1.65238e-41
1.45347e-43
-1.57656e-40
1.53369e-42
-9.52071e-40
7.72111e-42
-4.46803e-39
8.89359e-42
-1.75423e-38
-1.01548e-37
-5.95284e-38
-9.0055e-37
-1.89596e-37
-4.76685e-36
-5.67394e-37
-2.12971e-35
-1.57243e-36
-8.86744e-35
-3.41117e-36
-3.65574e-34
-8.64822e-37
-1.49195e-33
1.24053e-35
-5.71564e-33
9.43789e-35
-1.98363e-32
4.80481e-34
-6.14216e-32
1.97297e-33
-1.69929e-31
6.90528e-33
-4.19994e-31
2.09704e-32
-9.15544e-31
5.54089e-32
-1.71721e-30
1.26274e-31
-2.64941e-30
2.48155e-31
-3.0573e-30
4.33878e-31
-2.02152e-30
6.51459e-31
7.29325e-33
7.58261e-31
3.32056e-32
6.62608e-31
5.28729e-32
4.41959e-31
5.379e-32
2.23094e-31
3.88932e-32
8.777e-32
2.18185e-32
2.73243e-32
1.02324e-32
6.45631e-33
4.31366e-33
7.28699e-34
1.72931e-33
-1.40634e-34
6.64922e-34
-1.29956e-34
2.40806e-34
-6.90534e-35
8.12004e-35
-2.79147e-35
2.54258e-35
-9.04505e-36
6.92352e-36
-2.58027e-36
1.58697e-36
-7.44936e-37
3.23711e-37
-1.84579e-37
6.57855e-38
-4.16762e-38
1.09752e-38
-2.06211e-38
1.52032e-39
-4.05319e-38
3.69768e-40
-9.4464e-38
1.1733e-40
-1.43583e-36
-1.93678e-37
-6.04516e-53
2.20726e-56
-1.61403e-49
2.25688e-52
-9.3327e-47
2.48108e-49
-1.9986e-44
8.33797e-47
-1.91922e-42
1.1712e-44
-9.03347e-41
7.7536e-43
-2.2463e-39
2.53886e-41
-3.17983e-38
4.25773e-40
-2.74125e-37
3.6756e-39
-1.60227e-36
1.39574e-38
-7.50135e-36
-3.26214e-36
-2.67878e-35
-1.04561e-34
-8.02289e-35
-7.0029e-34
-2.16717e-34
-3.22092e-33
-5.14147e-34
-1.28151e-32
-9.02952e-34
-4.80711e-32
1.34902e-34
-1.80059e-31
4.66769e-33
-6.70419e-31
3.22598e-32
-2.37223e-30
1.60681e-31
-7.59134e-30
6.55051e-31
-2.16466e-29
2.29975e-30
-5.52955e-29
7.13628e-30
-1.27146e-28
1.97112e-29
-2.60886e-28
4.83308e-29
-4.66973e-28
1.0415e-28
-7.01046e-28
1.94101e-28
-8.17026e-28
3.27226e-28
-6.03492e-28
4.88304e-28
2.60632e-30
5.9967e-28
2.42103e-29
5.86103e-28
4.51785e-29
4.65238e-28
5.42344e-29
2.98064e-28
4.79228e-29
1.5537e-28
3.31886e-29
6.74203e-29
1.91119e-29
2.47712e-29
9.6519e-30
7.61737e-30
4.44584e-30
1.7744e-30
1.90248e-30
1.52592e-31
7.58199e-31
-5.04039e-32
2.80803e-31
-3.7808e-32
9.45986e-32
-1.65552e-32
2.7995e-32
-5.87095e-33
7.09433e-33
-1.87348e-33
1.62376e-33
-5.07402e-34
3.44198e-34
-1.23408e-34
6.07652e-35
-5.72777e-35
8.94583e-36
-1.12014e-34
2.06381e-36
-2.88175e-34
8.01364e-37
-1.704e-33
-6.72934e-34
-7.72498e-50
5.90644e-53
-1.40493e-46
3.54419e-49
-6.0189e-44
2.77667e-46
-9.97409e-42
7.11161e-44
-7.67104e-40
7.86217e-42
-3.01423e-38
4.20039e-40
-6.52747e-37
1.14524e-38
-8.34686e-36
1.64074e-37
-6.7507e-35
1.20134e-36
-3.9536e-34
3.11342e-36
-1.73782e-33
-1.73652e-33
-5.59976e-33
-2.27455e-32
-1.45741e-32
-1.29814e-31
-3.18072e-32
-5.36904e-31
-4.91032e-32
-1.93534e-30
8.91709e-33
-6.6171e-30
2.42376e-31
-2.27095e-29
1.59269e-30
-7.7533e-29
7.9616e-30
-2.53043e-28
3.30274e-29
-7.51493e-28
1.17383e-28
-1.9897e-27
3.67856e-28
-4.72549e-27
1.03766e-27
-1.01602e-26
2.65007e-27
-1.96944e-26
6.09864e-27
-3.37393e-26
1.2521e-26
-4.92903e-26
2.26276e-26
-5.75333e-26
3.65254e-26
-4.52704e-26
5.41938e-26
-1.98459e-27
6.89844e-26
2.71521e-27
7.27665e-26
5.86568e-27
6.42365e-26
7.89926e-27
4.77602e-26
7.99133e-27
2.98088e-26
6.42766e-27
1.57864e-26
4.29651e-27
7.23012e-27
2.49681e-27
2.90143e-27
1.30695e-27
1.01286e-27
6.26591e-28
2.96423e-28
2.76658e-28
6.38943e-29
1.12558e-28
3.30031e-30
4.12824e-29
-1.78311e-30
1.33088e-29
-1.10576e-30
3.7225e-30
-4.51252e-31
9.42824e-31
-1.4372e-31
2.13556e-31
-3.95033e-32
4.04915e-32
-1.8453e-32
6.42169e-33
-3.64705e-32
1.46348e-33
-1.02525e-31
6.11402e-34
-4.51105e-31
-2.66917e-31
-1.80098e-47
2.26006e-50
-2.74121e-44
1.07129e-46
-1.0002e-41
7.00648e-44
-1.4293e-39
1.53399e-41
-9.59926e-38
1.46764e-39
-3.3463e-36
6.84453e-38
-6.56709e-35
1.64109e-36
-7.81839e-34
2.07007e-35
-6.1177e-33
1.27899e-34
-3.46782e-32
1.13501e-34
-1.39461e-31
-2.22411e-31
-3.9685e-31
-2.06846e-30
-8.40973e-31
-1.05116e-29
-1.15578e-30
-3.98451e-29
3.38071e-31
-1.31716e-28
5.93266e-30
-4.10933e-28
3.44496e-29
-1.28451e-27
1.62327e-28
-4.01423e-27
6.7434e-28
-1.21401e-26
2.45286e-27
-3.36252e-26
7.81482e-27
-8.31957e-26
2.22346e-26
-1.84866e-25
5.76368e-26
-3.73526e-25
1.3711e-25
-6.86417e-25
2.97921e-25
-1.12847e-24
5.85119e-25
-1.60672e-24
1.02649e-24
-1.87333e-24
1.59859e-24
-1.55708e-24
2.34515e-24
-4.08252e-25
3.05007e-24
1.06499e-25
3.39441e-24
2.70679e-25
3.23403e-24
4.01563e-25
2.66636e-24
4.48678e-25
1.89172e-24
4.02687e-25
1.16216e-24
3.0271e-25
6.25687e-25
1.97855e-25
2.98449e-25
1.15588e-25
1.27073e-25
6.13223e-26
4.86112e-26
2.98488e-26
1.65081e-26
1.32816e-26
4.7728e-27
5.30156e-27
1.08429e-27
1.86396e-27
1.5245e-28
5.74329e-28
-3.69939e-30
1.59042e-28
-5.19462e-30
3.87156e-29
-2.14848e-30
7.91413e-30
-1.15176e-30
1.35676e-30
-2.3785e-30
3.09033e-31
-7.20395e-30
1.28717e-31
-4.38061e-29
-1.98956e-29
-1.44878e-45
2.60653e-48
-2.04085e-42
1.11667e-44
-6.86919e-40
6.70115e-42
-9.00171e-38
1.34969e-39
-5.5152e-36
1.18239e-37
-1.75791e-34
5.00782e-36
-3.18898e-33
1.0824e-34
-3.57339e-32
1.2088e-33
-2.69115e-31
5.87994e-33
-1.42582e-30
-4.55841e-31
-5.06057e-30
-1.34492e-29
-1.16415e-29
-1.02274e-28
-1.40263e-29
-4.74994e-28
9.33369e-30
-1.66852e-27
9.84874e-29
-5.07133e-27
4.82559e-28
-1.44297e-26
2.00719e-27
-4.10849e-26
7.79043e-27
-1.17606e-25
2.82833e-26
-3.29981e-25
9.24876e-26
-8.55398e-25
2.68576e-25
-1.98763e-24
7.02145e-25
-4.1541e-24
1.68659e-24
-7.92403e-24
3.75805e-24
-1.38523e-23
7.74089e-24
-2.19055e-23
1.45842e-23
-3.04322e-23
2.48496e-23
-3.53775e-23
3.77908e-23
-3.09269e-23
5.41369e-23
-1.29127e-23
7.1085e-23
1.93759e-24
8.21519e-23
6.14017e-24
8.29258e-23
9.99272e-24
7.38276e-23
1.21017e-23
5.7673e-23
1.18187e-23
3.96066e-23
9.71272e-24
2.41078e-23
6.97425e-24
1.31387e-23
4.49686e-24
6.47283e-24
2.6386e-24
2.90573e-24
1.41083e-24
1.18986e-24
6.83324e-25
4.40064e-25
2.95485e-25
1.4565e-25
1.12634e-25
4.34708e-26
3.79503e-26
1.19286e-26
1.1414e-26
2.99709e-27
2.99326e-27
6.91563e-28
6.61082e-28
1.56356e-28
1.22166e-28
5.82249e-29
2.7366e-29
9.96277e-29
1.03299e-29
-1.93806e-27
3.24105e-28
-5.5093e-44
1.30727e-46
-7.62164e-41
5.47947e-43
-2.48296e-38
3.20947e-40
-3.08966e-36
6.23899e-38
-1.7655e-34
5.17807e-36
-5.20802e-33
2.03317e-34
-8.76957e-32
3.98987e-33
-9.21681e-31
3.8672e-32
-6.46999e-30
1.14206e-31
-2.97834e-29
-3.34787e-29
-8.08908e-29
-4.79646e-28
-7.22608e-29
-3.16411e-27
1.64207e-28
-1.35792e-26
1.20966e-27
-4.43797e-26
5.22416e-27
-1.2485e-25
1.88194e-26
-3.25946e-25
6.44605e-26
-8.45803e-25
2.16269e-25
-2.21583e-24
7.01883e-25
-5.76648e-24
2.09376e-24
-1.40223e-23
5.60455e-24
-3.07177e-23
1.35852e-23
-6.06395e-23
3.04473e-23
-1.09625e-22
6.38505e-23
-1.82858e-22
1.25076e-22
-2.78719e-22
2.26493e-22
-3.78198e-22
3.7486e-22
-4.37718e-22
5.6141e-22
-3.97445e-22
7.79442e-22
-2.11761e-22
1.02154e-21
1.73255e-23
1.21062e-21
8.0571e-23
1.27784e-21
1.44871e-22
1.20684e-21
1.88363e-22
1.01644e-21
1.96888e-22
7.62417e-22
1.73461e-22
5.11672e-22
1.34445e-22
3.09652e-22
9.4382e-23
1.70458e-22
6.06258e-23
8.61566e-23
3.5445e-23
4.01121e-23
1.86811e-23
1.71462e-23
8.77282e-24
6.71915e-24
3.63972e-24
2.44158e-24
1.33832e-24
8.32905e-25
4.36522e-25
2.65615e-25
1.23708e-25
7.89338e-26
2.96081e-26
2.25711e-26
5.90478e-27
9.04649e-27
1.27034e-27
1.37487e-26
3.77916e-28
-4.3886e-26
4.13625e-26
-1.18297e-42
3.5166e-45
-1.67471e-39
1.52332e-41
-5.45424e-37
9.1255e-39
-6.56005e-35
1.77465e-36
-3.51285e-33
1.42456e-34
-9.53835e-32
5.22106e-33
-1.46564e-30
9.21657e-32
-1.38683e-29
7.25933e-31
-8.2021e-29
-7.90062e-30
-2.43724e-28
-1.08972e-27
3.7858e-29
-1.13245e-26
1.62261e-27
-6.61336e-26
1.05599e-26
-2.6398e-25
4.38557e-26
-8.10491e-25
1.47187e-25
-2.12813e-24
4.44925e-25
-5.12991e-24
1.31602e-24
-1.21602e-23
3.89886e-24
-2.91277e-23
1.1443e-23
-7.01962e-23
3.14271e-23
-1.60296e-22
7.81722e-23
-3.32011e-22
1.76903e-22
-6.21162e-22
3.71981e-22
-1.06748e-21
7.37178e-22
-1.70291e-21
1.37704e-21
-2.5055e-21
2.4006e-21
-3.32296e-21
3.86004e-21
-3.82558e-21
5.67598e-21
-3.57656e-21
7.67238e-21
-2.22443e-21
9.94332e-21
4.47824e-23
1.1951e-20
6.69602e-22
1.30309e-20
1.35686e-21
1.28976e-20
1.89082e-21
1.15423e-20
2.09151e-21
9.30549e-21
1.94198e-21
6.76776e-21
1.60037e-21
4.46324e-21
1.21188e-21
2.68807e-21
8.48404e-22
1.49256e-21
5.39644e-22
7.67597e-22
3.078e-22
3.65435e-22
1.56058e-22
1.6125e-22
7.00463e-23
6.65859e-23
2.79345e-23
2.58033e-23
9.84287e-24
9.32742e-24
3.0075e-24
3.1322e-24
7.76931e-25
9.97029e-25
1.65812e-25
3.91539e-25
3.36168e-26
4.7882e-25
6.67759e-27
-5.74247e-25
1.32507e-24
-1.60071e-41
5.7893e-44
-2.39439e-38
2.71307e-40
-7.95809e-36
1.7325e-37
-9.24865e-34
3.47068e-35
-4.56371e-32
2.72067e-33
-1.10278e-30
9.25823e-32
-1.44564e-29
1.42877e-30
-1.01266e-28
7.45459e-30
-1.82954e-28
-1.06576e-27
6.12614e-28
-2.23262e-26
8.58028e-27
-1.8713e-25
5.88675e-26
-9.85565e-25
2.66767e-25
-3.6885e-24
9.1617e-25
-1.07143e-23
2.66981e-24
-2.64643e-23
7.11268e-24
-5.93448e-23
1.86053e-23
-1.29102e-22
4.92144e-23
-2.82718e-22
1.31366e-22
-6.29474e-22
3.34038e-22
-1.34976e-21
7.76642e-22
-2.6486e-21
1.64955e-21
-4.70857e-21
3.26838e-21
-7.70921e-21
6.14023e-21
-1.17774e-20
1.09597e-20
-1.67337e-20
1.84175e-20
-2.16889e-20
2.87899e-20
-2.48184e-20
4.15159e-20
-2.37585e-20
5.49495e-20
-1.65828e-20
6.99532e-20
-3.08068e-21
8.43409e-20
3.68452e-21
9.40326e-20
8.81936e-21
9.65548e-20
1.32419e-20
9.0791e-20
1.53716e-20
7.77476e-20
1.47615e-20
6.05124e-20
1.27284e-20
4.28989e-20
1.03288e-20
2.78447e-20
7.88767e-21
1.67154e-20
5.44623e-21
9.34151e-21
3.34499e-21
4.86672e-21
1.82112e-21
2.37004e-21
8.79887e-22
1.08487e-21
3.78201e-22
4.65453e-22
1.43338e-22
1.85951e-22
4.70727e-23
6.88867e-23
1.30689e-23
2.3939e-23
2.96598e-24
9.2017e-24
5.65912e-25
8.47677e-24
5.88103e-26
-4.84712e-24
2.04207e-23
-1.44481e-40
6.30083e-43
-2.35171e-37
3.34939e-39
-8.02724e-35
2.39234e-36
-8.74047e-33
5.07949e-34
-3.72253e-31
3.89561e-32
-6.77143e-30
1.2175e-30
-3.92312e-29
1.52616e-29
5.76729e-29
8.86286e-31
1.93879e-27
-2.42426e-26
2.54053e-26
-3.19025e-25
1.98925e-25
-2.27671e-24
1.06449e-24
-1.09338e-23
4.17273e-24
-3.85277e-23
1.28727e-23
-1.0645e-22
3.40239e-23
-2.4909e-22
8.20667e-23
-5.23853e-22
1.92922e-22
-1.05315e-21
4.5885e-22
-2.11227e-21
1.11646e-21
-4.33487e-21
2.63649e-21
-8.72e-21
5.75329e-21
-1.62292e-20
1.15159e-20
-2.74674e-20
2.15701e-20
-4.29066e-20
3.84946e-20
-6.27903e-20
6.57188e-20
-8.60749e-20
1.06507e-19
-1.08838e-19
1.61958e-19
-1.23559e-19
2.29128e-19
-1.20674e-19
3.00316e-19
-9.19286e-20
3.73556e-19
-3.50046e-20
4.47865e-19
1.32389e-20
5.0638e-19
4.19766e-20
5.34892e-19
6.9107e-20
5.23586e-19
8.37846e-20
4.71824e-19
8.10914e-20
3.89178e-19
7.15933e-20
2.93387e-19
6.19842e-20
2.02714e-19
5.20849e-20
1.30005e-19
3.90239e-20
7.81276e-20
2.56515e-20
4.41239e-20
1.49073e-20
2.34877e-20
7.71638e-21
1.17862e-20
3.5584e-21
5.54076e-21
1.44645e-21
2.42352e-21
5.09459e-22
9.82028e-22
1.51543e-22
3.70543e-22
3.64228e-23
1.42562e-22
6.61998e-24
9.69655e-23
1.76537e-25
-2.94566e-23
1.86133e-22
-8.64979e-40
4.65991e-42
-1.58793e-36
2.97933e-38
-5.41094e-34
2.59283e-35
-4.68101e-32
6.1325e-33
-8.81569e-31
4.61635e-31
1.30356e-30
1.24943e-29
1.05768e-28
9.74245e-29
2.92146e-27
-1.31018e-26
4.41992e-26
-3.35918e-25
4.18246e-25
-3.39083e-24
2.70553e-24
-2.11815e-23
1.27431e-23
-9.33329e-23
4.56537e-23
-3.10122e-22
1.30744e-22
-8.17721e-22
3.20861e-22
-1.82325e-21
7.13676e-22
-3.6248e-21
1.52836e-21
-6.79306e-21
3.28897e-21
-1.25332e-20
7.29998e-21
-2.36756e-20
1.60284e-20
-4.46223e-20
3.2916e-20
-7.88034e-20
6.22795e-20
-1.27126e-19
1.10531e-19
-1.8958e-19
1.87563e-19
-2.65569e-19
3.06169e-19
-3.50357e-19
4.78004e-19
-4.30458e-19
7.06612e-19
-4.82741e-19
9.8154e-19
-4.79004e-19
1.27667e-18
-3.91867e-19
1.56789e-18
-2.06261e-19
1.87124e-18
2.44818e-20
2.1395e-18
1.52262e-19
2.31347e-18
2.8691e-19
2.34155e-18
3.65234e-19
2.20542e-18
3.42471e-19
1.91166e-18
2.99281e-19
1.5163e-18
2.75669e-19
1.10066e-18
2.60373e-19
7.45409e-19
2.11136e-19
4.77725e-19
1.46878e-19
2.90826e-19
9.03407e-20
1.68277e-19
4.98052e-20
9.20147e-20
2.45411e-20
4.71411e-20
1.06743e-20
2.24676e-20
4.0252e-21
9.91626e-21
1.2795e-21
4.05702e-21
3.24477e-22
1.60803e-21
5.68162e-23
8.5293e-22
-1.27772e-23
-1.46241e-22
1.1616e-21
-3.10602e-39
2.31879e-41
-6.90809e-36
1.95693e-37
-9.84289e-34
2.80706e-34
2.93742e-33
7.28539e-32
8.88691e-31
4.67875e-30
6.86759e-29
9.18047e-29
2.3966e-27
-1.09103e-27
4.68916e-26
-2.17001e-25
5.62062e-25
-3.34465e-24
4.515e-24
-2.79226e-23
2.58656e-23
-1.55179e-22
1.11086e-22
-6.29559e-22
3.71299e-22
-1.97166e-21
1.00308e-21
-4.96729e-21
2.31893e-21
-1.05973e-20
4.82279e-21
-2.00576e-20
9.52949e-21
-3.5373e-20
1.86879e-20
-6.04533e-20
3.78601e-20
-1.0518e-19
7.73079e-20
-1.85583e-19
1.49642e-19
-3.1101e-19
2.68206e-19
-4.7847e-19
4.51648e-19
-6.81058e-19
7.28745e-19
-9.11775e-19
1.13531e-18
-1.15299e-18
1.7018e-18
-1.36738e-18
2.43732e-18
-1.5036e-18
3.32009e-18
-1.50655e-18
4.29398e-18
-1.30629e-18
5.29814e-18
-8.53293e-19
6.37701e-18
-1.12341e-19
7.42736e-18
4.2555e-19
8.26213e-18
1.00643e-18
8.64666e-18
1.39172e-18
8.50437e-18
1.19421e-18
7.69502e-18
9.81958e-19
6.34817e-18
9.58497e-19
4.75691e-18
1.06556e-18
3.3515e-18
9.22349e-19
2.26832e-18
6.63565e-19
1.47945e-18
4.25361e-19
9.24409e-19
2.47336e-19
5.47128e-19
1.2944e-19
3.03619e-19
6.00123e-20
1.56843e-19
2.41561e-20
7.50754e-20
8.176e-21
3.32551e-20
2.17532e-21
1.38933e-20
3.65084e-22
6.40917e-21
-2.20798e-22
-6.78544e-22
5.74357e-21
-6.36804e-39
1.06222e-40
3.78255e-38
2.18632e-36
2.63709e-34
3.71308e-33
1.4694e-31
7.38081e-31
1.99884e-29
3.5123e-29
1.08215e-27
3.3484e-28
3.02238e-26
-7.85248e-26
4.89501e-25
-2.18181e-24
5.0511e-24
-2.55116e-23
3.59647e-23
-1.83062e-22
1.86929e-22
-9.15326e-22
7.4226e-22
-3.42796e-21
2.33389e-21
-1.01056e-20
5.99553e-21
-2.43114e-20
1.31782e-20
-4.9747e-20
2.59032e-20
-9.01429e-20
4.77952e-20
-1.50968e-19
8.61575e-20
-2.4111e-19
1.59613e-19
-3.87732e-19
3.03141e-19
-6.40649e-19
5.53576e-19
-1.01872e-18
9.4108e-19
-1.49444e-18
1.5046e-18
-2.02847e-18
2.30673e-18
-2.58972e-18
3.4191e-18
-3.12292e-18
4.89259e-18
-3.54348e-18
6.74294e-18
-3.7827e-18
8.96327e-18
-3.80207e-18
1.14986e-17
-3.44626e-18
1.44896e-17
-2.65222e-18
1.80594e-17
-1.31338e-18
2.18574e-17
8.56452e-19
2.56528e-17
3.1249e-18
2.83439e-17
5.01379e-18
2.64126e-17
3.4198e-18
2.67137e-17
2.62277e-18
2.33264e-17
2.72002e-18
1.77174e-17
3.97549e-18
1.27222e-17
3.52697e-18
8.96105e-18
2.50882e-18
6.18518e-18
1.62801e-18
4.11643e-18
9.82603e-19
2.60133e-18
5.40328e-19
1.54486e-18
2.64892e-19
8.56552e-19
1.13107e-19
4.41416e-19
4.05209e-20
2.10874e-19
1.12052e-20
9.40156e-20
1.74109e-21
4.18204e-20
-1.92709e-21
-3.11731e-21
2.60994e-20
2.61673e-41
1.18986e-39
2.31443e-36
3.37537e-35
6.74639e-33
3.92253e-32
2.43707e-30
5.6705e-30
2.51511e-28
1.72161e-28
1.1331e-26
-1.11822e-26
2.69775e-25
-8.98813e-25
3.78281e-24
-1.5959e-23
3.4627e-23
-1.53887e-22
2.22767e-22
-9.72228e-22
1.06299e-21
-4.41486e-21
3.92945e-21
-1.53116e-20
1.16616e-20
-4.24581e-20
2.8588e-20
-9.73996e-20
6.009e-20
-1.91352e-19
1.12542e-19
-3.33306e-19
1.96005e-19
-5.3427e-19
3.27972e-19
-8.05257e-19
5.57876e-19
-1.2058e-18
9.86249e-19
-1.86948e-18
1.69983e-18
-2.81872e-18
2.74246e-18
-3.93974e-18
4.16303e-18
-5.09245e-18
6.05895e-18
-6.18683e-18
8.51347e-18
-7.07422e-18
1.15452e-17
-7.60447e-18
1.51694e-17
-7.79144e-18
1.9529e-17
-7.8059e-18
2.46631e-17
-7.31445e-18
3.18924e-17
-6.3268e-18
4.26775e-17
-5.38985e-18
5.68733e-17
7.10306e-21
5.54961e-17
2.27065e-17
7.13789e-17
1.52615e-17
1.1887e-16
1.3887e-17
1.04819e-16
6.55629e-18
8.77905e-17
7.92293e-18
6.42347e-17
1.58027e-17
4.50617e-17
1.31686e-17
3.20586e-17
8.3334e-18
2.26796e-17
5.22933e-18
1.55639e-17
3.20275e-18
1.02118e-17
1.81846e-18
6.35088e-18
9.30672e-19
3.72084e-18
4.1789e-19
2.0429e-18
1.57324e-19
1.04645e-18
4.46466e-20
5.00122e-19
5.91185e-21
2.2851e-19
-1.1312e-20
-1.32271e-20
1.16818e-19
7.69426e-40
1.50995e-38
5.26858e-35
4.13332e-34
9.90783e-32
3.21404e-31
2.69196e-29
3.12545e-29
2.29802e-27
2.2674e-28
8.90546e-26
-2.13613e-25
1.82904e-24
-6.54135e-24
2.2713e-23
-9.00139e-23
1.87471e-22
-7.46579e-22
1.10288e-21
-4.22505e-21
4.87159e-21
-1.7578e-20
1.68507e-20
-5.67106e-20
4.72992e-20
-1.4807e-19
1.10818e-19
-3.23625e-19
2.23561e-19
-6.10738e-19
4.01398e-19
-1.02568e-18
6.65871e-19
-1.58377e-18
1.04485e-18
-2.27675e-18
1.64383e-18
-3.21472e-18
2.71017e-18
-4.69812e-18
4.40614e-18
-6.70361e-18
6.74492e-18
-8.91515e-18
9.7194e-18
-1.09701e-17
1.3425e-17
-1.26735e-17
1.78248e-17
-1.3667e-17
2.27557e-17
-1.38052e-17
2.82432e-17
-1.34358e-17
3.48556e-17
-1.3262e-17
4.26723e-17
-1.26353e-17
5.714e-17
-1.19405e-17
8.28534e-17
-1.22999e-17
1.05295e-16
-9.73444e-18
2.08158e-16
1.79751e-17
1.79167e-16
5.0891e-17
1.66181e-16
1.70589e-17
1.24159e-16
8.16794e-17
1.54841e-16
1.31206e-17
1.46549e-16
4.54363e-17
1.20696e-16
3.62613e-17
9.45721e-17
1.9429e-17
6.91681e-17
1.27862e-17
4.81224e-17
8.10549e-18
3.21198e-17
4.75811e-18
2.05764e-17
2.53894e-18
1.25971e-17
1.19899e-18
7.32229e-18
4.74537e-19
4.01308e-18
1.36897e-19
2.06361e-18
1.27821e-20
1.00018e-18
-4.67674e-20
-4.66462e-20
4.85767e-19
1.664e-38
2.03284e-37
7.98012e-34
3.97124e-33
1.04119e-30
1.97893e-30
2.2209e-28
9.90744e-29
1.6209e-26
-2.43429e-26
5.38487e-25
-1.64542e-24
9.71949e-24
-3.5055e-23
1.08337e-22
-4.01939e-22
8.1537e-22
-2.94143e-21
4.42738e-21
-1.51092e-20
1.82366e-20
-5.80702e-20
5.93461e-20
-1.75238e-19
1.5803e-19
-4.32151e-19
3.54402e-19
-9.00729e-19
6.88216e-19
-1.63481e-18
1.19064e-18
-2.65499e-18
1.89596e-18
-3.97218e-18
2.82028e-18
-5.51524e-18
4.1532e-18
-7.47841e-18
6.40889e-18
-1.03891e-17
9.80306e-18
-1.40066e-17
1.42211e-17
-1.77335e-17
1.94709e-17
-2.08853e-17
2.55665e-17
-2.30487e-17
3.2019e-17
-2.34124e-17
3.83985e-17
-2.21594e-17
4.48796e-17
-2.03989e-17
5.24186e-17
-1.94935e-17
5.97265e-17
-1.83103e-17
7.97099e-17
-1.57994e-17
1.18341e-16
-2.20856e-17
1.59305e-16
-4.37942e-18
2.10356e-16
-7.90941e-18
2.03868e-16
8.2817e-17
2.65256e-15
3.30406e-16
1.91571e-15
8.42442e-16
8.71924e-16
6.83655e-17
2.70203e-16
4.76246e-16
2.19323e-16
2.97847e-17
1.79753e-16
2.49872e-17
1.39272e-16
1.93445e-17
1.02009e-16
1.36307e-17
7.15256e-17
8.71411e-18
4.83268e-17
5.03093e-18
3.14412e-17
2.57095e-18
1.95908e-17
1.0945e-18
1.16051e-17
3.22527e-19
6.4864e-18
1.05793e-20
3.40204e-18
-1.43398e-19
-1.31127e-19
1.70811e-18
3.02356e-37
2.60567e-36
8.88431e-33
2.93391e-32
8.30542e-30
8.38485e-30
1.4406e-27
-5.70522e-28
8.91505e-26
-2.30249e-25
2.56103e-24
-8.58361e-24
4.10958e-23
-1.45486e-22
4.15176e-22
-1.44269e-21
2.87377e-21
-9.4774e-21
1.45142e-20
-4.46517e-20
5.6133e-20
-1.59707e-19
1.72883e-19
-4.53376e-19
4.38719e-19
-1.06073e-18
9.44628e-19
-2.11462e-18
1.77227e-18
-3.7015e-18
2.97067e-18
-5.83657e-18
4.57656e-18
-8.51707e-18
6.54037e-18
-1.16056e-17
9.17488e-18
-1.5438e-17
1.33381e-17
-2.06467e-17
1.91241e-17
-2.64508e-17
2.62795e-17
-3.21777e-17
3.44016e-17
-3.6919e-17
4.3253e-17
-3.94801e-17
5.12566e-17
-3.83794e-17
5.81e-17
-3.37202e-17
6.46961e-17
-2.92829e-17
7.15251e-17
-2.69506e-17
7.39639e-17
-2.54128e-17
7.54854e-17
-2.31324e-17
2.97107e-16
-1.9179e-17
1.60481e-16
-2.63025e-17
1.57279e-16
-2.1642e-18
6.38161e-15
3.15878e-17
5.53014e-15
1.36808e-15
5.36612e-15
1.16933e-15
4.17871e-15
1.37279e-15
2.71495e-16
2.19477e-16
2.33307e-16
3.13325e-17
2.04261e-16
2.29566e-17
1.7597e-16
1.97636e-17
1.43921e-16
1.5622e-17
1.11833e-16
1.13384e-17
8.30134e-17
7.38425e-18
5.8997e-17
4.25536e-18
4.01051e-17
2.02461e-18
2.59866e-17
6.17875e-19
1.59381e-17
-6.50715e-20
9.15074e-18
-3.55631e-19
-2.99107e-19
4.92747e-18
4.35484e-36
2.80659e-35
7.49361e-32
1.60391e-31
5.14001e-29
1.65305e-29
7.37711e-27
-1.4933e-26
3.85236e-25
-1.21938e-24
9.68923e-24
-3.36148e-23
1.39496e-22
-4.79806e-22
1.28736e-21
-4.21112e-21
8.25233e-21
-2.5154e-20
3.90161e-20
-1.09633e-19
1.42526e-19
-3.67277e-19
4.17838e-19
-9.86028e-19
1.01599e-18
-2.1991e-18
2.11029e-18
-4.21093e-18
3.84543e-18
-7.13965e-18
6.2894e-18
-1.09876e-17
9.46539e-18
-1.57687e-17
1.32327e-17
-2.14723e-17
1.80687e-17
-2.85584e-17
2.50049e-17
-3.73323e-17
3.36612e-17
-4.63813e-17
4.40704e-17
-5.53842e-17
5.61219e-17
-6.32856e-17
6.86493e-17
-6.63293e-17
7.8607e-17
-6.42902e-17
8.43753e-17
-4.87157e-17
9.11572e-17
-3.96318e-17
9.76082e-17
-3.58715e-17
9.97288e-17
-3.29752e-17
1.01622e-16
-2.77519e-17
1.08254e-16
-2.07803e-17
1.26618e-16
-1.31648e-17
1.32735e-16
-4.77577e-18
3.65163e-15
7.86537e-18
5.06245e-15
6.49436e-16
5.69918e-15
6.21695e-16
2.53843e-15
4.86058e-16
-1.84655e-16
1.55678e-17
3.5344e-16
2.44351e-17
2.65445e-16
1.99055e-17
2.15269e-16
1.6475e-17
1.8094e-16
1.42516e-17
1.5006e-16
1.19012e-17
1.20351e-16
8.95547e-18
9.27246e-17
6.04598e-18
6.85166e-17
3.35328e-18
4.85119e-17
1.07598e-18
3.26817e-17
-3.32598e-19
2.05878e-17
-7.77997e-19
-5.62584e-19
1.20237e-17
4.74265e-35
2.35468e-34
4.83405e-31
5.94547e-31
2.50387e-28
-2.56661e-28
2.95637e-26
-8.7974e-26
1.32113e-24
-4.6081e-24
2.93892e-23
-1.03095e-22
3.82806e-22
-1.27983e-21
3.24985e-21
-1.01093e-20
1.94092e-20
-5.54912e-20
8.63644e-20
-2.25453e-19
2.99475e-19
-7.11631e-19
8.39754e-19
-1.81581e-18
1.96655e-18
-3.8783e-18
3.96165e-18
-7.16571e-18
7.05696e-18
-1.18282e-17
1.13571e-17
-1.78556e-17
1.69059e-17
-2.543e-17
2.36402e-17
-3.51407e-17
3.21006e-17
-4.73334e-17
4.28925e-17
-6.13935e-17
5.50338e-17
-7.60352e-17
6.96331e-17
-9.12075e-17
8.79512e-17
-1.03365e-16
1.05677e-16
-1.03436e-16
1.2121e-16
-1.03509e-16
1.18123e-16
-5.58805e-17
1.22729e-16
-5.03472e-17
1.31023e-16
-4.53859e-17
1.32007e-16
-3.9336e-17
1.25373e-16
-3.12084e-17
1.23894e-16
-2.32046e-17
1.45246e-16
-1.59171e-17
2.1496e-16
-1.25814e-17
2.67351e-16
-7.81038e-18
2.59383e-15
1.87944e-16
2.21534e-15
7.87284e-17
4.08056e-16
-4.82211e-17
5.99645e-16
1.64251e-18
4.02007e-16
-2.93066e-18
3.00965e-16
1.61793e-18
2.50207e-16
5.89672e-18
2.16031e-16
8.54494e-18
1.85841e-16
1.01461e-17
1.57136e-16
9.56396e-18
1.29518e-16
8.00492e-18
1.03433e-16
5.42113e-18
7.98565e-17
1.8742e-18
5.91036e-17
-1.11357e-18
4.07629e-17
-1.67716e-18
-8.67984e-19
2.57844e-17
3.80537e-34
1.47654e-33
2.38974e-30
1.05309e-30
9.56275e-28
-2.45161e-27
9.33831e-26
-3.3294e-25
3.61948e-24
-1.33455e-23
7.19629e-23
-2.53896e-22
8.55288e-22
-2.80318e-21
6.72641e-21
-2.02034e-20
3.76474e-20
-1.02911e-19
1.58444e-19
-3.92716e-19
5.23776e-19
-1.17526e-18
1.41031e-18
-2.86552e-18
3.19373e-18
-5.8902e-18
6.26908e-18
-1.05514e-17
1.09832e-17
-1.70436e-17
1.75229e-17
-2.53092e-17
2.6153e-17
-3.60547e-17
3.73814e-17
-5.09785e-17
5.14236e-17
-6.96878e-17
6.75606e-17
-9.02044e-17
8.45633e-17
-1.12279e-16
1.05088e-16
-1.37925e-16
1.29228e-16
-1.47153e-16
1.5038e-16
-1.35187e-16
1.78773e-16
-1.50701e-16
2.20665e-16
-1.09563e-16
1.7039e-16
-1.16566e-16
1.6149e-16
-6.14395e-17
1.5429e-16
-4.74311e-17
1.4498e-16
-3.63042e-17
1.37394e-16
-2.80628e-17
1.39109e-16
-2.14558e-17
1.58239e-16
-1.65044e-17
2.11003e-16
-7.12941e-18
2.35415e-16
2.12054e-17
2.71669e-16
3.65789e-17
2.68918e-16
2.42366e-17
2.69415e-16
4.70882e-19
2.65837e-16
-8.26116e-18
2.57862e-16
-8.63453e-18
2.4692e-16
-5.62053e-18
2.32429e-16
9.31439e-19
2.14995e-16
7.43059e-18
1.95984e-16
1.00585e-17
1.74984e-16
1.05626e-17
1.5106e-16
9.21543e-18
1.26397e-16
3.52823e-18
1.02061e-16
-3.53777e-18
7.60417e-17
-3.8163e-18
-8.90059e-19
5.12447e-17
2.21197e-33
6.74529e-33
9.0219e-30
-8.80305e-30
2.84005e-27
-1.01324e-26
2.3367e-25
-9.29827e-25
7.97054e-24
-3.06843e-23
1.4328e-22
-5.11742e-22
1.5684e-21
-5.11562e-21
1.15146e-20
-3.40656e-20
6.07826e-20
-1.62596e-19
2.43254e-19
-5.87564e-19
7.70062e-19
-1.67918e-18
1.99856e-18
-3.93811e-18
4.39138e-18
-7.83844e-18
8.4275e-18
-1.36903e-17
1.45818e-17
-2.17497e-17
2.31328e-17
-3.177e-17
3.49765e-17
-4.55609e-17
5.18527e-17
-6.58525e-17
7.31511e-17
-9.00403e-17
9.59301e-17
-1.13747e-16
1.18551e-16
-1.37103e-16
1.44857e-16
-1.73776e-16
1.64161e-16
-1.6468e-16
1.72639e-16
-1.49828e-16
2.2254e-16
-2.61789e-16
2.18446e-16
-1.87151e-16
1.99145e-16
-1.21909e-16
1.92795e-16
-7.30099e-17
1.80946e-16
-5.29207e-17
1.67977e-16
-4.40331e-17
1.57269e-16
-3.63203e-17
1.51382e-16
-2.87379e-17
1.51584e-16
-2.2549e-17
1.61968e-16
-1.36404e-17
1.849e-16
3.99427e-19
2.5049e-16
6.61782e-18
2.52132e-16
4.77481e-18
2.57257e-16
-7.56908e-18
2.61485e-16
-1.56928e-17
2.66347e-16
-1.87907e-17
2.7194e-16
-1.71763e-17
2.73231e-16
-6.62055e-18
2.63295e-16
1.66969e-17
2.61643e-16
8.58282e-18
2.52298e-16
1.39946e-17
2.3181e-16
1.71949e-17
2.0528e-16
7.80966e-18
1.77309e-16
-8.97248e-18
1.40644e-16
-7.85722e-18
6.87161e-19
9.95776e-17
9.15509e-33
2.20155e-32
2.57834e-29
-7.12918e-29
6.55698e-27
-2.83325e-26
4.65109e-25
-2.02128e-24
1.41979e-23
-5.7352e-23
2.33812e-22
-8.58353e-22
2.38252e-21
-7.89259e-21
1.64735e-20
-4.91492e-20
8.26322e-20
-2.22042e-19
3.16504e-19
-7.66674e-19
9.64864e-19
-2.1101e-18
2.42524e-18
-4.79886e-18
5.19093e-18
-9.32074e-18
9.76828e-18
-1.59805e-17
1.67255e-17
-2.5089e-17
2.62966e-17
-3.60246e-17
4.04365e-17
-5.22792e-17
6.21408e-17
-7.59556e-17
8.97031e-17
-1.02316e-16
1.1773e-16
-1.21358e-16
1.40249e-16
-1.25915e-16
1.65003e-16
-1.54871e-16
2.65425e-16
-2.60341e-16
4.32017e-16
-2.65795e-16
3.5123e-16
-5.54097e-16
3.88366e-16
-4.43093e-16
2.76791e-16
-2.03588e-16
2.21173e-16
-1.30463e-16
1.99696e-16
-6.34897e-17
1.93036e-16
-5.41656e-17
1.85803e-16
-4.79951e-17
1.78505e-16
-3.92509e-17
1.75223e-16
-3.19662e-17
1.81805e-16
-2.51311e-17
2.01839e-16
-1.6661e-17
2.2764e-16
-1.30496e-17
2.56086e-16
-1.5099e-17
2.80534e-16
-2.38647e-17
3.01239e-16
-3.04797e-17
3.18854e-16
-3.28669e-17
3.3659e-16
-3.26154e-17
3.44233e-16
-2.00964e-17
3.01206e-16
2.39846e-18
3.06109e-16
-4.704e-19
3.09827e-16
1.19398e-17
2.86613e-16
2.78827e-17
2.53732e-16
1.47909e-17
2.72161e-16
-8.023e-17
2.30526e-16
-4.63727e-17
6.64062e-18
1.71115e-16
2.62453e-32
5.06202e-32
5.50506e-29
-2.27897e-28
1.1768e-26
-5.92759e-26
7.39132e-25
-3.52653e-24
2.05899e-23
-8.87984e-23
3.15375e-22
-1.21656e-21
3.02849e-21
-1.0441e-20
1.99257e-20
-6.15281e-20
9.58292e-20
-2.65853e-19
3.54123e-19
-8.8567e-19
1.04721e-18
-2.36984e-18
2.56624e-18
-5.27528e-18
5.3809e-18
-1.00878e-17
9.96848e-18
-1.71067e-17
1.6904e-17
-2.66457e-17
2.61712e-17
-3.77119e-17
4.0783e-17
-5.50096e-17
6.36354e-17
-7.7416e-17
8.97734e-17
-9.85304e-17
1.13423e-16
-1.08356e-16
2.49798e-16
-2.27127e-16
2.17569e-16
-3.89755e-16
1.79885e-16
-8.58878e-17
2.07259e-16
-1.59267e-16
6.00036e-16
-2.36462e-15
6.21714e-16
-2.02191e-15
3.44955e-16
-1.01122e-15
3.2047e-16
-2.64428e-16
2.14927e-16
-1.01087e-16
2.02064e-16
-7.63101e-17
2.00928e-16
-6.09504e-17
1.98611e-16
-5.22948e-17
1.97963e-16
-4.51486e-17
2.09493e-16
-3.95159e-17
2.40994e-16
-3.55777e-17
2.85141e-16
-3.53482e-17
3.29672e-16
-3.80431e-17
3.63536e-16
-4.26912e-17
3.86301e-16
-4.65211e-17
4.02821e-16
-4.9936e-17
4.12449e-16
-4.80605e-17
4.16664e-16
-3.42475e-17
4.24357e-16
-1.96752e-17
4.26899e-16
-1.13635e-17
4.93066e-16
1.10541e-18
7.32822e-16
3.12191e-17
1.29025e-15
8.04626e-16
1.76359e-15
-3.33336e-16
1.2086e-15
-2.58073e-17
3.98151e-17
6.72695e-16
4.99486e-32
8.41849e-32
8.65052e-29
-4.81416e-28
1.63485e-26
-9.70852e-26
9.3938e-25
-5.0467e-24
2.44422e-23
-1.15711e-22
3.54447e-22
-1.47715e-21
3.25376e-21
-1.19978e-20
2.06176e-20
-6.76962e-20
9.60844e-20
-2.82753e-19
3.45917e-19
-9.1813e-19
1.00149e-18
-2.41234e-18
2.41362e-18
-5.30772e-18
4.99688e-18
-1.00859e-17
9.1653e-18
-1.70461e-17
1.54016e-17
-2.64289e-17
2.33897e-17
-3.70536e-17
3.64862e-17
-5.23382e-17
5.277e-17
-6.52825e-17
6.85535e-17
-6.98595e-17
1.69641e-16
-1.75372e-16
1.14646e-16
-1.59231e-16
6.14119e-17
-7.10538e-17
6.78255e-17
-7.15207e-17
1.31495e-15
-3.40612e-15
5.87666e-15
-1.18421e-14
3.01559e-15
-5.2849e-15
1.77973e-15
-1.04829e-14
6.03443e-16
-1.45925e-15
2.5362e-16
-1.01977e-16
2.10628e-16
-8.01153e-17
1.94826e-16
-5.42559e-17
2.0107e-16
-6.43925e-17
2.0862e-16
-6.01106e-17
2.23028e-16
-5.491e-17
2.56721e-16
-5.29222e-17
3.05024e-16
-5.38481e-17
3.55322e-16
-5.58554e-17
3.99106e-16
-5.82279e-17
4.34864e-16
-6.12982e-17
4.62422e-16
-6.86828e-17
4.79337e-16
-7.25883e-17
4.79249e-16
-5.61456e-17
4.67902e-16
-3.79597e-17
4.51246e-16
-2.54324e-17
4.49447e-16
-1.75162e-17
4.76233e-16
-1.57901e-17
1.18322e-14
1.46502e-15
1.10483e-14
3.78083e-16
3.25995e-15
1.01939e-16
3.10556e-16
7.7546e-16
5.52776e-32
1.16506e-31
9.61353e-29
-7.52535e-28
1.7302e-26
-1.27951e-25
9.5088e-25
-6.025e-24
2.38067e-23
-1.28615e-22
3.34025e-22
-1.55502e-21
2.98147e-21
-1.21115e-20
1.84541e-20
-6.61897e-20
8.43816e-20
-2.70096e-19
2.99384e-19
-8.63576e-19
8.57967e-19
-2.25015e-18
2.05521e-18
-4.94039e-18
4.24283e-18
-9.41205e-18
7.76754e-18
-1.59753e-17
1.29867e-17
-2.47754e-17
1.95699e-17
-3.4358e-17
2.88294e-17
-4.35408e-17
3.78197e-17
-4.74623e-17
1.17344e-16
-1.27183e-16
1.08407e-16
-1.52553e-16
4.49574e-17
-9.42257e-17
4.16853e-17
-6.84128e-17
3.55187e-17
-6.2965e-17
2.48911e-15
-6.58974e-15
1.39115e-15
-1.11635e-14
6.01425e-15
-1.0332e-14
7.12956e-15
-1.20252e-14
2.36543e-16
-3.15689e-15
1.86257e-16
-1.1659e-16
1.81919e-16
-8.56905e-17
1.65077e-16
-1.59045e-16
1.89428e-16
-8.44095e-17
2.07184e-16
-7.90139e-17
2.22666e-16
-7.35769e-17
2.50544e-16
-6.89805e-17
2.91726e-16
-6.51636e-17
3.372e-16
-6.18545e-17
3.83498e-16
-5.88067e-17
4.3916e-16
-6.00431e-17
5.21915e-16