/*--------------------------------*- C++ -*----------------------------------*\
| =========                 |                                                 |
| \\      /  F ield         | OpenFOAM: The Open Source CFD Toolbox           |
|  \\    /   O peration     | Version:  2.4.0                                 |
|   \\  /    A nd           | Web:      www.OpenFOAM.org                      |
|    \\/     M anipulation  |                                                 |
\*---------------------------------------------------------------------------*/
FoamFile
{
    version     2.0;
    format      ascii;
    class       volScalarField;
    location    "0.175";
    object      p_rgh;
}
// * * * * * * * * * * * * * * * * * * * * * * * * * * * * * * * * * * * * * //

dimensions      [1 -1 -2 0 0 0 0];

internalField   nonuniform List<scalar> 
6500
(
35.5211
39.5268
50.1362
58.433
104.664
196.32
287.143
103.897
73.4111
-69.2345
8.12641
1.38207
6.07426
6.37155
5.87584
8.69417
0.537655
1.34495
-3.09113
0.105234
0.949219
0.100243
-0.422032
-0.286845
-0.181984
-0.13174
0.0271406
1.02292
1.76262
0.705362
-0.126909
-0.179902
-0.292808
-0.129231
-0.186412
-0.228625
-0.208716
-0.195076
-0.185053
-0.181268
-0.179001
-0.195725
-0.182253
-0.145143
-0.094822
-0.0648704
-0.0241422
0.0018884
0.0183917
0.0204004
35.5215
39.5108
50.1259
58.2464
104.638
197.673
288.208
67.4614
103.593
-30.9995
9.20144
1.57834
6.03025
6.33021
5.8446
9.13711
0.554003
1.30308
-3.22466
0.157616
1.57605
-0.250282
-0.426037
-0.280447
-0.182568
-0.206306
0.192323
1.31242
1.56441
2.14819
0.396003
-0.189843
-0.240601
0.0275396
-0.0611456
-0.227006
-0.202371
-0.193197
-0.181749
-0.178348
-0.184225
-0.0932976
-0.187561
-0.162052
-0.105297
-0.0690065
-0.0238772
0.00519115
0.0198728
0.0217246
35.3451
39.3633
50.1135
58.7419
104.059
197.832
294.44
65.619
64.5176
-54.0272
16.4192
1.6793
5.90087
6.15466
5.90014
11.1897
5.18478
1.10444
-3.43276
-0.118806
1.13001
-0.229421
-0.433643
-0.270509
-0.143761
-0.287496
2.45392
1.17323
1.12713
1.7966
-0.0765713
-0.261553
-0.209703
0.0576756
0.0265198
-0.213221
-0.208289
-0.18585
-0.168715
-0.176259
-0.178255
-0.172097
0.0463175
-0.145299
-0.11055
-0.0743747
-0.0295222
0.000450022
0.0175093
0.026668
35.0579
39.2056
51.3549
58.0927
103.274
198.388
307.115
41.372
68.3786
-36.4304
-3.44742
3.08204
5.57304
5.98021
5.84921
11.9615
4.68328
4.45998
-3.82611
1.20876
2.21551
-0.257437
-0.452598
-0.194834
-0.10324
-0.402564
-0.156407
0.696844
1.0213
0.178787
-0.318329
-0.287761
-0.252838
0.0407438
0.0216082
-0.213399
-0.200676
-0.182488
-0.159871
-0.167726
-0.165036
-0.173386
-0.00201319
-0.179822
-0.068714
-0.0791788
-0.0206383
0.0144065
0.0283835
0.0360874
34.7723
39.0869
51.0895
57.2789
102.249
198.301
316.398
45.7324
71.7695
-38.6617
-2.9942
-0.504946
5.62075
5.86822
6.00002
13.9803
3.4618
2.69589
1.21553
0.807347
4.44755
-0.301982
-0.478071
-0.218282
0.585153
-0.525158
-0.0724014
0.207896
0.862235
-0.0426171
-0.359522
-0.297525
-0.252348
0.0500528
0.0528248
-0.219716
-0.204127
-0.181946
-0.161426
-0.158566
-0.150161
-0.155766
-0.115304
0.557203
0.00908037
-0.073259
-0.0094422
0.0312546
0.0432374
0.0463167
34.4421
38.8603
51.0183
67.9025
112.701
198.264
324.51
48.1875
69.7268
41.5521
-3.15784
-0.191377
5.8673
6.1364
6.3925
15.2624
3.38006
1.24032
0.648093
0.591105
2.7783
-0.689911
-0.511245
-0.205342
0.309968
-0.977253
-0.545896
0.151677
0.639724
0.38772
-0.287272
-0.323646
0.243477
0.0822798
0.112734
-0.245021
-0.214261
-0.173782
-0.162442
-0.151631
-0.138872
-0.134781
-0.0897631
0.247896
0.224992
-0.0692264
0.00236679
0.0496395
0.0582838
0.0570456
34.0811
38.5532
51.0635
67.0511
108.835
198.873
330.64
47.1892
69.6501
37.1379
-2.41925
-0.156589
0.445656
6.05682
6.81059
18.3734
2.95066
9.48049
5.36332
7.11613
2.76517
-1.04035
-0.555916
-0.188375
0.374344
0.244683
-0.241032
0.0632323
0.233292
-0.0173984
-0.350133
-0.342364
0.0216751
0.0791748
0.205818
-0.296943
-0.230876
-0.173621
-0.157232
-0.144297
-0.133409
-0.115836
-0.0845609
0.274066
0.184812
0.00519524
0.0282719
0.0666661
0.0686449
0.0664979
33.7035
38.3366
51.5602
66.3605
107.863
199.383
336.913
53.0458
69.3204
20.4407
-3.25567
-0.493927
-0.0571641
4.19205
7.26071
17.9964
2.40048
9.88103
10.8729
7.40009
2.81697
-1.65594
-0.635445
-0.178056
0.404574
-0.61315
-0.130465
0.0121567
0.233737
-0.0271309
-0.408164
-0.366387
-0.148513
0.0423298
0.191355
-0.354674
-0.24549
-0.172452
-0.152221
-0.139041
-0.136111
-0.13593
-0.122718
0.163697
0.563348
0.109036
0.137022
0.0724975
0.067353
0.0704243
33.3208
38.0995
49.7921
69.2929
106.268
199.567
345.233
56.2609
69.1811
33.4537
-2.82976
-1.29736
-0.238782
3.73178
7.22975
18.8233
2.25798
10.0792
11.7181
7.80359
2.74235
-1.66557
-0.680194
-0.158769
0.411445
0.0280445
0.0081226
0.170928
0.235566
-0.0430249
-0.441025
-0.390052
-0.142849
-0.10014
-0.10183
-0.373105
-0.254298
-0.168223
-0.146384
-0.135376
-0.145563
-0.174694
-0.191986
0.20146
1.2526
0.428038
0.202341
0.057424
0.0541329
0.0670583
32.9389
37.9958
55.054
68.5279
96.1336
210.932
353.402
57.6285
68.6499
-40.656
78.3368
-1.65108
-0.163855
3.62159
7.04169
19.3189
1.71421
21.4386
13.2396
40.8167
19.9064
-2.41995
-0.595845
-0.12929
0.423918
-0.221719
0.388731
0.129579
0.227711
-0.0588952
-0.458538
-0.411964
-0.13421
-0.210956
-0.154474
-0.417213
-0.252262
-0.160949
-0.138784
-0.132331
-0.157314
-0.226358
-0.321334
0.434246
2.51481
2.65849
0.442544
0.0164849
0.0418988
0.0637198
32.5775
43.0842
47.6086
67.7538
94.9515
211.243
361.213
55.7055
68.2632
2.25646
4.26604
2.87723
0.206564
3.49613
6.91909
19.7074
1.19301
15.7439
13.6444
43.0548
17.2931
-3.37775
-0.792316
0.0110485
0.428836
1.0481
0.32568
0.0289345
0.220483
-0.07066
-0.512275
-0.440884
-0.126697
-0.179789
-0.103285
-0.467607
-0.253776
-0.1515
-0.129386
-0.129012
-0.170339
-0.282878
-0.272574
1.19827
4.30312
5.69274
2.77517
0.0411444
0.0403041
0.0606986
32.2026
40.4962
48.3635
72.7113
93.9408
225.421
368.88
55.5784
78.7316
-28.3095
5.66792
2.58271
0.24908
3.4686
6.87836
20.601
0.627822
29.4756
-1.79788
88.5487
34.305
-3.09262
0.159253
0.166928
0.398649
-0.230569
0.09715
0.320019
0.309429
-0.0354676
-0.0950387
0.432815
-0.119866
-0.191905
-0.152179
-0.288077
-0.260091
-0.140524
-0.118888
-0.124843
-0.17495
-0.31851
-0.0256714
4.21032
5.7066
6.34909
7.42693
0.244055
0.0530993
0.0614963
31.8394
43.7462
48.2837
62.2652
92.9668
228.861
376.376
54.8084
144.664
40.814
7.73868
0.786549
0.09159
3.45626
6.79564
20.6304
0.105362
20.1512
4.12674
69.3257
14.7951
-4.47067
-1.01655
0.496237
0.35616
2.74416
-0.162222
0.32659
0.336622
0.220433
-0.238141
0.0492326
-0.109179
-0.194024
-0.112338
-0.542352
-0.256018
-0.12644
-0.108121
-0.119967
-0.171089
-0.335405
-0.306329
10.0907
6.58809
6.86985
6.73118
0.307451
0.077045
0.0643914
31.4994
44.0786
48.2945
61.7668
92.1482
228.943
383.48
53.1027
100.348
65.7542
8.55735
0.578333
0.925619
3.48732
6.62884
21.7577
52.8179
20.4013
-0.355344
74.6621
15.1145
-4.20442
-0.995044
0.410524
0.327387
3.31601
-0.478411
0.385474
0.363336
-0.029379
-0.203885
-0.0309792
-0.103404
-0.176982
-0.0983836
-0.0681951
-0.247695
-0.111801
-0.0984406
-0.11463
-0.160845
-0.307771
-0.0270587
7.05037
6.39806
7.01053
6.7264
0.439545
0.0800783
0.0629189
31.1738
43.8249
48.3846
61.4284
91.3309
248.11
390.278
52.1921
95.9899
59.8581
8.78294
0.536438
1.09447
3.49173
11.0073
22.2064
17.1714
21.0491
56.3298
81.6296
32.8402
-6.63694
-1.19267
0.648234
0.204867
3.13656
-0.714783
0.091693
0.342902
0.0162078
-0.105968
-0.045745
-0.0876627
-0.162081
-0.10328
0.0342523
-0.240544
-0.0967824
-0.0906848
-0.109083
-0.149259
-0.257969
0.0413797
4.40521
6.05342
7.32343
8.01295
1.01982
0.0602078
0.0565966
41.3312
43.6497
47.8821
60.6942
90.6155
250.06
396.807
51.7301
85.1939
64.5806
9.28472
0.492605
1.32381
3.42411
7.99422
22.5581
32.9048
19.7865
24.9119
68.9878
24.4889
-9.60436
-1.11837
7.01251
0.262758
6.23287
-0.983366
0.0259482
0.235999
0.0505745
-0.452247
-0.0779735
-0.0733475
-0.152019
0.740542
0.108141
-0.226298
-0.0834528
-0.085469
-0.103881
-0.141316
-0.244318
0.0297257
3.46557
5.7706
8.686
6.32647
0.617789
0.0519648
0.0516298
38.4265
43.5852
43.3706
59.9344
89.8942
280.909
402.111
53.2499
87.3624
68.7962
19.1482
0.469063
1.65943
3.62311
7.66632
23.2521
31.4638
17.7513
27.7193
91.8074
52.688
43.6177
19.9206
-2.10593
0.172835
7.44514
-1.12197
-0.0144047
0.233773
-0.00710827
1.17768
-0.108775
-0.0611596
-0.156656
0.699097
0.414615
-0.131397
-0.0665302
-0.0836462
-0.099175
-0.138487
-0.25282
-0.0264921
2.82414
5.14547
6.9251
5.12213
0.422523
0.0534173
0.0525176
38.2353
43.5268
43.2817
59.4604
86.9246
427.331
610.384
268.62
89.4265
15.608
8.69762
0.461554
2.29312
3.65437
7.38076
27.0841
30.8782
15.5247
22.8882
95.5142
20.8691
21.6794
-2.32524
-1.89403
0.109984
7.88126
-0.994474
-0.0308164
0.247922
-0.0433702
0.435756
0.78684
-0.051057
-0.15673
1.16731
0.376504
-0.0545759
-0.0172204
-0.0832337
-0.0947684
-0.13983
-0.262243
-0.0373361
2.81739
4.70587
5.55753
3.71544
0.173676
0.0561881
0.0560901
38.0439
43.4736
44.0551
59.2366
86.1023
314.842
410.443
373.289
74.3998
14.5679
10.7431
0.454925
2.44286
3.44743
21.1254
39.769
29.5769
14.4874
23.1423
100.093
20.8748
21.3388
3.93341
-2.089
-0.0127298
7.82003
-0.550237
-0.0405799
0.190122
-0.020984
0.365016
0.364117
-0.0425564
-0.145125
3.32563
1.34643
0.0594725
0.159163
-0.0713326
-0.0904768
-0.144518
-0.273552
-0.0472213
0.758558
3.65295
3.99636
2.49125
0.0605383
0.0675699
0.0659374
37.8203
43.6002
44.0055
58.9146
85.2485
316.133
377.653
16.7666
82.1932
16.9587
13.0416
0.445771
2.24745
3.31346
9.04874
-8.67023
26.0568
14.3724
21.949
149.638
1.14881
25.2231
3.41085
-2.46025
-0.120809
9.33052
-1.35163
-0.0578583
0.149981
-0.00582768
0.332684
0.325316
-0.0452024
-0.118131
-0.881265
1.00173
0.120176
0.307335
-0.059706
-0.0865027
-0.153662
-0.286757
-0.211017
-0.305779
0.909491
0.982874
1.23712
0.0527792
0.0734636
0.068635
0.0298333
0.0372213
0.0423198
0.0454159
0.0482614
0.0489978
0.0489368
0.0491056
0.054633
0.0395011
0.135825
2.87644
55.4087
56.9108
51.7338
45.0346
25.8338
1.19633
1.34261
0.933676
0.280734
-0.0290716
-0.157486
0.255019
-0.248718
-0.582855
-0.656663
-0.827313
-0.791601
-1.34431
-3.8454
0.311572
-2.74191
-13.2831
-15.9077
-37.6959
-42.8493
-46.0363
-39.2804
-66.2535
55.3004
35.3467
-12.8029
-69.5531
-63.4824
55.755
38.5466
47.1052
30.786
16.2306
0.0315616
0.0374724
0.0450006
0.0486511
0.0496621
0.0491746
0.0489397
0.0496651
0.0496078
0.0530934
0.292436
18.8649
61.432
66.8167
58.1892
43.0527
31.2639
1.27614
1.36351
0.882633
0.222128
-0.0146924
0.0687984
0.120193
-0.237139
-0.63798
-0.869975
-0.83206
-0.754888
-1.30913
-3.94046
0.204685
1.69437
-13.3735
-15.6689
-38.0685
-43.2068
-46.3103
-39.4401
-66.8611
54.6181
37.7661
-13.1117
-73.5515
-62.717
56.2092
38.5586
47.2027
30.7464
16.1941
0.0356174
0.0397694
0.0459001
0.0462214
0.0443069
0.0420274
0.0404333
0.0417345
0.0498846
0.0630168
2.01524
45.613
62.9231
63.6712
58.959
57.6334
48.8518
4.66036
1.41777
0.870846
0.103246
0.318064
0.879804
0.0414179
-0.218346
-0.610928
-0.860466
-0.868119
-1.04948
-1.24942
-4.4081
1.5449
-0.901663
-9.27819
-14.8353
-37.7284
-43.6088
-45.9249
-39.329
-68.6099
17.3854
13.2199
-13.881
-85.3914
-63.0707
56.6252
38.5561
47.4041
30.6412
15.9822
0.0402686
0.0453695
0.0443865
0.0454145
0.042726
0.0380492
0.0356596
0.0370282
0.0452707
0.0471049
5.25196
57.349
64.3182
62.295
57.4505
58.595
60.6302
6.16786
1.49775
0.101591
-0.299774
-0.532974
1.20103
5.14749
-0.25822
-0.63136
-0.895923
-1.05932
-1.06239
-0.84236
-5.06668
0.139097
-0.932073
-11.7244
-14.3337
-37.6824
-39.0311
-46.4356
-27.0562
-74.7168
22.7355
13.9184
-1.51023
-60.3583
-62.2984
57.1548
38.8191
47.8667
30.4985
15.6976
0.050089
0.0480693
0.0485153
0.0464757
0.0410388
0.0334819
0.0295319
0.0313
0.041374
0.0383904
10.9998
58.8326
64.6433
62.2131
57.3484
59.0598
69.039
13.1415
1.60403
-0.449453
-0.333753
-1.37551
0.774502
1.14106
-0.420766
-0.646439
-0.959446
-1.00251
-1.0475
0.740443
-0.865682
0.368593
-0.886875
-5.497
-14.3691
-37.5052
-42.1952
-46.4881
-21.8053
-84.6515
21.6119
15.7476
-2.7165
-73.3663
-63.3393
57.6401
38.7262
48.1534
30.3295
15.3541
0.0598915
0.054374
0.0530341
0.0480205
0.0399417
0.0300893
0.0251293
0.0289693
0.0428438
0.052387
11.9159
59.4789
64.8291
63.5481
59.9071
59.9146
71.771
16.9089
1.72962
0.84285
0.246097
-1.98567
0.178335
0.830224
-0.474995
-0.609906
-0.930679
-1.00761
-1.05752
-1.68272
-2.69794
0.418762
-0.812749
-5.15956
-4.43064
-35.2705
-41.9216
-46.4979
-38.364
-92.4756
10.858
17.2468
-22.0014
9.93341
-34.1016
58.0539
38.4501
48.4391
30.1251
14.9597
0.0671873
0.0609564
0.0577501
0.0507826
0.0396948
0.0278638
0.022238
0.0289241
0.0480633
0.0810691
10.9396
62.9262
65.5987
65.1296
61.2955
59.7328
70.8098
21.1997
2.43885
-0.109846
0.384761
3.96407
2.1591
0.88268
-0.693006
-0.690688
-0.867921
-1.00785
-1.05564
-1.51775
-3.42679
0.404766
-0.724212
-5.38286
-12.225
-35.1868
-42.2996
-46.7856
-34.1092
-95.8977
10.8114
17.542
-23.375
-55.2074
-61.324
58.4558
39.6165
48.6774
29.9233
14.5285
0.069556
0.066265
0.0622719
0.0535993
0.0399872
0.0290769
0.0237139
0.0284366
0.0527077
0.110552
9.73613
64.8855
66.8695
66.5994
62.751
59.2851
70.3584
19.9112
3.66949
1.79856
0.254408
2.10391
2.1526
0.909794
-0.838786
-0.786269
-0.849813
-1.00742
-1.06209
-1.45383
-3.28022
0.391829
-0.235871
-1.73269
-9.64201
-35.0919
-42.7669
-47.1791
-31.4236
-99.1334
9.60119
33.9815
-16.8315
-54.8265
-61.8531
60.7072
34.1733
49.0439
29.6845
14.073
0.0707232
0.0699317
0.0661471
0.0561911
0.0409361
0.0358896
0.0255851
0.0309902
0.0544666
0.148923
8.33166
64.9276
68.4998
67.7266
63.2476
58.2344
70.1642
15.9933
3.88784
2.04521
0.0928636
2.58584
1.59331
0.913923
-0.964922
-0.877049
-0.817242
-0.992446
-1.0682
-1.41504
-3.14385
0.407074
8.22155
-6.43083
-3.11781
-34.1
-8.35353
-47.5683
-32.5752
-103.517
7.87716
43.1274
-18.1522
-72.7738
-80.5407
55.7861
34.2324
49.4637
29.5572
13.6038
0.0711187
0.0718989
0.0687946
0.0574939
0.0406366
0.0268059
0.0224147
0.0300727
0.056137
0.182438
7.47252
60.2558
69.6669
68.3032
62.9804
56.7449
65.4802
10.3294
3.56607
-0.890207
0.432898
-0.803518
3.92375
0.991968
-1.09433
-0.974933
-0.765595
-1.00768
-1.05044
-1.36575
-4.52664
3.00944
-1.64751
-7.74116
-13.957
-33.6076
-17.7778
-47.7948
-30.5665
-75.3924
43.3767
14.1355
-18.2543
-89.4268
-82.5635
58.2909
34.1065
49.8698
48.4023
13.1231
0.0706252
0.0722787
0.0701527
0.0571327
0.0393189
0.0266995
0.0239779
0.02541
0.032049
0.1974
5.89116
51.3539
70.5473
68.1959
61.954
54.3646
65.0103
5.4676
2.84369
-2.69734
0.124105
5.76002
0.320926
1.14418
-1.22477
-1.0904
-0.697152
-0.905801
-0.987209
-1.06761
-0.222554
0.186817
-1.01021
-8.54881
-14.2921
5.92174
-18.5865
-48.0029
-30.4713
-90.3079
27.1618
17.3224
-23.8396
-109.109
-82.8762
60.3847
33.9304
50.4448
44.5185
16.7754
0.069972
0.0712773
0.0708396
0.0548822
0.0356268
0.0260159
0.0240395
0.0150329
0.0188725
0.188203
3.64822
44.4691
71.5442
67.9944
60.487
51.4529
63.5581
1.24801
1.98495
-2.17928
0.21667
-3.0365
0.490376
1.22703
-0.860685
-0.760897
-0.601306
-0.919275
-0.470077
-0.580837
-4.83398
0.194538
-0.617568
-1.51208
-13.2121
3.91861
-16.3995
-48.2559
-19.8397
-71.4374
23.8686
20.3378
177.513
359.383
-64.1059
60.8223
33.5416
59.8233
44.6719
14.0351
0.068544
0.069591
0.0734948
0.0506897
0.0297258
0.0242289
0.0234597
0.00401311
0.0136582
0.193184
1.81504
36.2119
71.4297
68.8234
59.2824
49.3798
55.3212
0.47248
1.45587
-2.8789
0.365584
-3.52073
0.542036
1.60559
-1.03912
-0.844716
-0.490955
-0.799605
0.280269
0.228207
8.42674
0.173888
-0.205319
-2.70378
-18.6769
6.13151
-18.8227
-48.5895
-18.1703
-77.719
23.3406
45.9094
38.7074
235.154
-50.1678
104.33
86.6061
39.3376
46.6989
13.6529
0.0657993
0.0712557
0.081
0.0450224
0.0215226
0.020923
0.0216039
-0.0093008
0.0140331
0.203194
0.157336
31.6749
67.4978
69.9162
58.1371
48.4382
53.1453
5.22804
0.86809
7.56386
0.488732
-3.76154
0.549798
1.32578
-0.671592
-0.956186
-0.290603
-0.752223
0.170663
0.542007
1.34719
0.229459
8.78316
-2.848
-17.3944
21.9695
-19.0475
-49.1258
-12.368
-19.9799
28.1065
35.4001
41.1996
236.959
-92.1993
32.8671
54.9587
39.3455
43.3017
13.2388
0.0619626
0.066943
0.083879
0.0391413
0.0119298
0.0173563
0.0199569
-0.0279105
-0.00785212
0.226793
-0.422955
18.7553
58.1928
69.2236
56.5071
44.2439
16.2138
5.39945
0.449385
2.55393
0.73741
-1.76941
0.141782
1.56519
-0.819345
-1.0723
-0.220526
-0.73671
0.204342
0.509251
18.8004
0.345958
-1.3671
-3.04374
16.2441
26.1429
-17.8611
-49.7682
-11.9564
-63.7105
22.745
37.9752
46.2843
243.762
-7.27815
34.189
55.0928
39.702
44.2473
12.8375
0.0597764
0.060733
0.0840134
0.0324885
0.00144766
0.0135557
0.0178028
-0.0534102
-0.0523127
0.272221
-0.227437
10.1
56.1116
66.9145
55.2883
40.0323
0.206657
5.65588
12.2255
1.1665
0.268495
-1.68381
0.590434
1.91726
-1.04872
3.27942
-0.139103
-0.831656
0.514344
15.2828
13.3349
0.398886
-1.03248
54.2814
13.3561
28.755
-14.6821
-51.586
-4.86978
-64.5747
22.5449
51.9167
46.4559
225.017
-18.8455
33.0645
54.9472
41.0078
43.7567
12.4662
0.0579917
0.0512634
0.10006
0.0253674
-0.00958251
0.00977784
0.0148871
-0.0803371
-0.0941048
0.0404103
-0.14311
0.869182
51.309
65.4892
53.2416
51.1888
1.50476
6.05961
2.25629
0.920362
0.543699
-1.09383
-0.35412
2.90398
8.65298
2.0959
-0.0713131
-0.90126
0.595315
0.20627
13.159
0.433816
-2.04008
4.68463
10.6748
29.9419
-7.52555
-54.9233
6.25457
-64.7888
148.117
72.7543
46.362
212.941
101.726
33.2211
54.7858
33.5089
42.9595
53.9615
0.0576368
0.0484341
0.106298
0.0176099
-0.020383
0.00810026
0.00967208
-0.101746
-0.0979159
-0.221636
-0.150363
0.778456
46.3343
58.8789
39.6535
42.8966
84.3058
6.16838
3.11951
1.03881
0.822666
-0.93318
-1.15759
13.3352
0.676369
1.83159
-0.0198244
-0.76186
4.09667
0.636957
12.1611
0.412709
-1.39656
3.58405
10.3493
35.6013
-6.98679
123.735
12.6564
-78.2212
70.8885
29.9686
45.5283
198.94
45.4307
33.5116
54.4273
33.9444
43.2017
42.9256
0.0547464
0.0416661
0.129755
0.00936998
-0.0305718
0.0364679
0.0269448
-0.112054
-0.00787792
-0.162856
-0.191445
0.22284
22.4752
56.3094
27.4654
47.6068
51.9317
5.10848
2.96339
1.676
0.895754
-0.769591
-1.22855
-1.64079
4.32158
1.83579
-0.00469501
-0.956991
0.894064
0.960696
11.2491
0.129197
-1.24238
3.27249
10.871
-1.24209
-6.62101
34.6501
18.1043
293.739
68.9188
29.9537
47.3868
183.518
49.5463
17.0003
104.187
34.2547
43.2354
42.9786
0.052895
0.0317222
0.152704
0.000325848
-0.0397217
0.0360571
0.0139894
-0.117351
0.169191
-0.337258
-0.20132
-0.311952
4.69516
43.4266
14.7132
6.32917
7.23923
3.60188
2.82916
1.60555
0.822608
-0.696566
-1.19474
-1.51073
1.4176
1.82087
0.0345606
-0.812405
1.11862
1.18739
10.582
0.0661472
-1.28317
3.05617
11.2132
-1.76931
-6.31384
31.9671
22.385
157.028
67.8521
31.9889
52.226
184.317
46.7921
18.6339
40.9622
35.1183
43.1313
42.8939
37.2454
44.371
47.0738
58.2939
86.449
16.0149
-23.3688
5.09068
83.5827
19.8081
10.1381
0.430021
1.86487
2.92141
9.0415
-6.2484
7.22305
13.2958
19.0368
-17.2624
-1.26238
10.7392
3.54967
-1.80779
-0.111442
-6.5259
-1.30173
-0.122288
0.0486145
-0.0217621
0.238103
0.282796
-0.0612508
-0.415531
-0.680978
0.0498498
0.0836444
0.376014
-0.0660718
-0.0866779
-0.180265
-0.307472
-0.279703
-0.357325
-0.233423
0.124094
0.397889
0.0984236
0.0902328
0.0689765
36.635
44.1542
52.6126
56.8283
62.7941
13.2263
-12.5418
0.84036
12.5921
15.2144
5.29989
0.45909
1.84437
2.08189
4.64535
-5.26756
2.56231
37.0769
14.0905
-10.315
0.0855459
9.92173
5.18727
0.433078
0.391606
-4.97674
-1.14996
-0.178842
0.018754
-0.03148
0.0977608
0.130346
0.00764866
-0.170773
-0.452315
-0.0458062
-0.0315111
0.34967
0.365084
-0.168969
-0.219828
-0.282329
-0.300567
-0.216189
-0.0791072
-0.117286
0.266658
0.251914
0.137108
0.0852233
36.0499
43.454
45.5194
55.215
60.9211
19.4912
-12.2784
0.79417
10.1268
8.57265
15.9798
0.528661
1.85279
2.06286
3.65218
-3.82439
1.46483
3.39088
9.79205
0.0943217
-0.288545
8.75597
5.18279
1.86638
0.817354
-3.29867
-0.834556
-0.181809
-0.00434952
-0.0578473
0.0614118
-0.0194623
0.0664104
-0.210427
-0.33041
-0.14323
-0.0959687
-0.027658
0.486354
0.587703
-0.0187806
-0.256179
-0.233618
-0.216529
-0.215988
0.704217
0.866625
0.0149915
0.0383914
0.0477761
35.0023
44.2272
45.4466
53.3962
58.522
22.6307
-7.61354
0.554694
4.67275
7.29462
5.5099
0.649675
1.87561
1.91289
2.7534
-1.84161
1.15074
1.37884
3.2964
0.716432
6.32441
8.35954
4.0823
2.60543
1.74825
0.570511
-0.757336
-0.143321
-0.0418498
-0.0870717
-0.097406
-0.149147
-0.262961
-0.270213
-0.303786
-0.207788
-0.166476
-0.180799
-0.130194
0.424921
0.279342
-0.279437
-0.230897
-0.221281
-0.0917517
0.962746
0.785381
-0.0575669
-0.00586082
0.0280369
39.4007
44.0797
44.7424
51.3136
56.3201
26.8018
-3.28576
0.64897
6.31889
7.36672
2.04771
0.699792
1.8112
1.8514
1.78928
-1.25324
0.938742
0.924791
0.872046
-0.353361
2.17833
7.81827
3.39798
3.04009
2.61427
2.6451
-0.718865
-0.311158
0.0537944
0.177203
0.217208
-0.172695
-0.234331
-0.262665
-0.293354
-0.257728
-0.22904
-0.227655
-0.260066
-0.286455
-0.309409
-0.254624
-0.213497
-0.143166
-0.0387949
0.320101
0.0670995
0.0584724
0.0563911
0.0590465
38.742
40.1219
43.9718
49.3312
54.1492
25.1653
-0.427229
0.660053
7.86482
4.95463
1.12233
0.64092
1.77104
1.72807
1.21251
-0.846486
0.811591
0.878556
0.716013
0.126534
1.42575
9.44016
3.53585
3.24146
3.17532
2.91625
-0.626147
-0.0871161
0.13634
0.0354808
-0.133314
-0.195362
-0.233829
-0.267848
-0.302861
-0.300188
-0.285766
-0.275947
-0.285679
-0.292976
-0.294493
-0.268054
-0.205467
-0.169996
-0.140521
0.762175
0.0961332
0.124226
0.110917
0.086372
38.8966
40.571
42.0788
46.648
52.142
24.7791
0.563402
1.00186
4.05124
5.28962
1.61478
0.940642
1.53263
1.43531
1.15469
-0.574342
0.688881
0.787445
0.614277
0.35632
1.76942
1.43802
3.44005
3.13016
3.29854
3.94938
-0.583334
-0.518662
-0.366589
-0.222871
-0.238862
-0.220036
-0.240241
-0.278071
-0.321298
-0.337887
-0.332826
-0.319125
-0.305928
-0.287647
-0.270707
-0.244428
-0.204094
-0.18585
-0.0162376
1.62708
0.305494
0.0814381
0.0873132
0.055393
39.4094
40.6525
41.8215
45.2805
50.1892
18.3772
-0.378886
1.02073
4.10586
4.77716
1.4362
0.559089
1.22258
1.65282
1.12726
-0.378834
0.620436
0.717068
0.587213
0.398457
1.37133
0.471621
3.73553
2.08062
2.66009
2.00267
-0.653157
-0.446177
-0.235363
-0.240739
-0.264306
-0.241386
-0.250936
-0.291926
-0.348052
-0.381579
-0.380191
-0.358255
-0.326123
-0.291053
-0.265118
-0.23967
-0.214091
-0.120591
0.271734
0.861597
0.951768
0.0423789
0.00743611
-0.0151986
38.8029
37.8549
39.4443
42.8788
48.5073
14.2181
-0.203013
1.05125
-2.21342
3.71402
1.26899
0.574049
1.2265
1.71788
1.02113
-0.20168
0.513884
0.648098
0.546389
0.44197
2.61684
1.87259
3.53729
0.837667
0.286397
-0.27699
-0.577864
-0.454612
-0.3821
-0.307923
-0.290453
-0.259171
-0.262744
-0.307404
-0.374657
-0.417958
-0.418754
-0.392928
-0.34775
-0.301353
-0.248065
-0.126218
-0.0524935
-0.0488502
0.13509
0.499125
0.748915
-0.133004
-0.117434
-0.105946
24.3176
21.5608
25.9796
30.9535
45.1615
33.0624
-0.106578
1.08889
-0.379634
4.37555
0.963173
0.589018
1.28243
1.73226
1.12266
-0.043752
0.459038
0.601844
0.493373
0.455248
2.64485
2.98916
2.33593
0.218452
-0.209382
-0.39294
-0.559044
-0.401319
-0.289567
-0.287432
-0.294374
-0.271353
-0.277106
-0.324858
-0.400395
-0.449642
-0.450836
-0.427606
-0.371288
-0.121388
0.148109
0.0027962
-0.115614
-0.0891763
0.0594901
0.334019
-0.089588
-0.293118
-0.228321
-0.192457
1.17408
5.31092
6.45869
5.12762
24.8583
26.6707
-0.109318
1.00004
1.10879
4.7869
0.902675
0.587902
1.22893
1.6249
1.27915
0.172326
0.416447
0.568868
0.464138
0.639259
5.3131
4.14658
1.09716
-0.219256
-0.271131
-0.356822
-0.455298
-0.334398
-0.25479
-0.293795
-0.286103
-0.279229
-0.291769
-0.342345
-0.423971
-0.480296
-0.488816
-0.4875
-0.203825
0.275719
0.157603
0.0221954
-0.074517
-0.0381783
-0.297044
-0.351093
-0.365414
-0.328214
-0.285815
-0.249751
0.0121721
0.0338359
0.0174826
0.0386712
0.634596
2.4235
-0.0553939
3.41387
1.70116
4.28328
0.853441
0.588182
0.871475
1.51391
1.71815
0.203456
0.383226
0.538946
0.452102
0.706363
4.49993
3.73527
0.115614
-0.201008
-0.299848
-0.321544
-0.379381
-0.296437
-0.258988
-0.274237
-0.278392
-0.283985
-0.303512
-0.356239
-0.444094
-0.518274
-0.543043
-0.500387
0.646778
0.268563
0.0137399
-0.11109
-0.505295
-0.532685
-0.480079
-0.431598
-0.389206
-0.34762
-0.310083
-0.281161
0.0115198
0.0352078
0.0168953
0.0358862
-0.0220081
-0.0573935
-0.265708
-0.0395925
1.08474
1.32646
0.802114
0.573814
0.620473
1.39706
1.24914
0.238639
0.377021
0.4997
0.437545
0.8803
3.9747
2.57831
0.266696
-0.227898
-0.35849
-0.303444
-0.317903
-0.257122
-0.235649
-0.261147
-0.273233
-0.28611
-0.31068
-0.363306
-0.452666
-0.554475
-0.654108
-0.719177
-0.0677237
-0.20795
-0.578929
-0.639096
-0.595219
-0.54987
-0.496875
-0.443124
-0.397009
-0.35658
-0.323944
-0.298966
0.00924279
0.0317329
0.0113787
0.0234228
-0.0233147
-0.0519814
-0.236419
-0.111835
-0.00654732
0.556457
0.757487
0.575447
0.614701
1.23567
0.58697
0.285475
0.414898
0.488598
0.480635
2.60984
5.20341
1.67565
0.315668
-0.342521
-0.394391
-0.293413
-0.270177
-0.2614
-0.234079
-0.259201
-0.271418
-0.287567
-0.314545
-0.363258
-0.441798
-0.540612
-0.663981
-0.837362
-0.918685
-0.887735
-0.783233
-0.686809
-0.610488
-0.539442
-0.478159
-0.427159
-0.386813
-0.35365
-0.326724
-0.305466
0.013794
0.0433342
0.021246
0.0513197
-0.0247887
-0.0589121
-0.214262
-0.066658
0.178357
0.536209
0.723167
0.576546
0.601375
0.755799
0.430633
0.310668
0.457975
0.490946
0.5432
6.24218
5.52617
0.823672
0.133222
0.121718
-0.330547
-0.269414
-0.262075
-0.255859
-0.236475
-0.25728
-0.272154
-0.289547
-0.317306
-0.361008
-0.419115
-0.487279
-0.57848
-0.682038
-0.731599
-0.711841
-0.658335
-0.582952
-0.529909
-0.481391
-0.432845
-0.395705
-0.366518
-0.341168
-0.320082
-0.302773
0.00665933
0.0577874
0.0271744
0.037585
-0.026497
-0.0654813
-0.194175
-0.0887676
0.067292
0.496088
0.755831
0.575487
0.592901
0.462304
0.416567
0.325432
0.485928
0.50693
0.350552
2.55304
4.31151
0.0711575
-0.320981
-0.270419
-0.0871937
-0.234086
-0.208261
-0.0872572
-0.23931
-0.257044
-0.272938
-0.2903
-0.315976
-0.341708
-0.398443
-0.426992
-0.473611
-0.521398
-0.551864
-0.550447
-0.52645
-0.49057
-0.455207
-0.409482
-0.376919
-0.34118
-0.306476
-0.290487
-0.285126
-0.290555
0.0052009
0.00941323
0.0251461
0.0176588
-0.0282536
-0.0684444
-0.180574
-0.0890314
0.146661
0.454948
0.756959
0.568372
0.541981
0.445632
0.400694
0.338339
0.606716
0.534911
0.376309
1.93006
4.51635
0.197826
-0.198854
-0.218712
-0.180108
0.174959
0.213588
-0.138989
-0.242396
-0.254992
-0.271175
-0.289899
-0.303971
-0.0232737
-0.268674
-0.369793
-0.390842
-0.420764
-0.440507
-0.444615
-0.435236
-0.417506
-0.396709
-0.35116
-0.299526
-0.275434
-0.259724
-0.246138
-0.241811
-0.267149
0.00430637
0.00936716
0.0227867
0.0141066
-0.0285805
-0.0683244
-0.158822
-0.14606
0.160042
0.418951
0.658997
0.676042
0.744355
0.416718
0.386194
0.446766
1.29568
0.466846
0.36596
3.88069
5.12175
0.608398
-0.238653
-0.214119
-0.209617
0.309138
0.254239
-0.22519
-0.238715
-0.251854
-0.265842
-0.282489
-0.245257
-0.00758766
-0.0366444
-0.175574
-0.333761
-0.356791
-0.375012
-0.382816
-0.380742
-0.371922
-0.36002
-0.338302
-0.30821
-0.281581
-0.260943
-0.2586
-0.268559
-0.271978
0.00325829
0.00745974
0.0113717
0.0112668
-0.0348416
-0.066456
-0.137546
-0.123546
0.162621
0.765239
0.572065
0.820904
0.736134
0.507138
0.372631
0.862776
1.26472
0.239783
1.48167
4.86628
4.90774
0.431212
-0.172482
-0.20955
-0.204112
0.332054
0.103162
-0.230049
-0.234664
-0.248255
-0.258138
-0.265801
-0.202797
-0.0303668
-0.0265981
-0.0687063
-0.288668
-0.322401
-0.335974
-0.34299
-0.343315
-0.338226
-0.329598
-0.319265
-0.307755
-0.296513
-0.286076
-0.277923
-0.279079
-0.261255
0.00218213
0.00622114
-0.00521547
0.00652573
-0.0357116
-0.0630175
-0.118585
-0.101688
0.150372
0.168944
0.499525
0.265848
0.282627
0.412755
0.362701
1.44081
1.03834
0.106883
1.84683
4.92002
5.68446
0.331758
-0.0812764
-0.217942
-0.199407
0.328071
-0.172529
-0.230996
-0.232579
-0.243862
-0.252823
-0.260372
-0.26719
-0.0954034
0.000841195
-0.0363985
-0.278691
-0.318687
-0.318978
-0.319025
-0.317411
-0.313438
-0.305687
-0.294937
-0.283412
-0.273213
-0.265699
-0.25949
-0.213361
-0.197838
0.00106409
0.00592222
-0.00552824
0.00434903
-0.0359307
-0.0594764
-0.102988
-0.0834915
0.0947606
0.101822
0.47513
0.228846
0.199742
0.188868
0.335885
1.51052
0.604162
0.0305693
-0.248461
4.82677
6.15727
0.398983
-0.255045
-0.208057
-0.21989
0.0495459
-0.196999
-0.222878
-0.229215
-0.239351
-0.24818
-0.254998
-0.260679
-0.248071
-0.192739
0.0827125
-0.308255
-0.318582
-0.309642
-0.30297
-0.297546
-0.294529
-0.289784
-0.276888
-0.262896
-0.250536
-0.241219
-0.235261
-0.201773
-0.192676
-2.08062e-05
0.00553954
-0.00764712
0.00205911
-0.0354633
-0.0560931
-0.0924112
-0.0646247
0.0131916
0.0916699
0.451056
0.21573
0.184934
0.173187
0.571314
1.17566
-0.025994
-0.0288077
-0.510302
5.6032
1.79855
0.00854189
-0.232435
-0.197663
-0.216561
-0.184842
-0.198537
-0.213661
-0.224643
-0.235307
-0.244269
-0.251356
-0.258373
-0.261938
-0.274725
-0.257018
-0.302326
-0.304037
-0.29553
-0.288049
-0.277756
-0.223701
-0.123601
-0.171673
-0.203934
-0.208773
-0.207535
-0.213459
-0.213669
-0.17258
-0.00106293
0.00526287
-0.00895796
1.52691e-05
-0.0341149
-0.0516617
-0.0805669
-0.0337961
0.0197401
0.0802791
0.348618
0.201474
0.15897
0.142286
1.27057
0.668756
-0.0187931
-0.0532255
-0.230248
3.15576
0.116946
-0.0997137
-0.201988
-0.189034
-0.195099
-0.180356
-0.19274
-0.206993
-0.220392
-0.231556
-0.239939
-0.247319
-0.25474
-0.258909
-0.268749
-0.278113
-0.281045
-0.278655
-0.276883
-0.241407
-0.0321519
0.0599228
0.0640663
0.0522534
0.0490791
0.01866
-0.014684
-0.18897
-0.204926
-0.209102
-0.00203878
0.00499987
-0.00990564
-0.00130997
-0.032397
-0.0461257
-0.068898
-0.0275803
0.0164515
0.0714857
0.154311
0.188643
0.145998
0.134674
0.618318
0.190616
-0.0264655
-0.0890284
-0.41585
-0.115015
0.12141
-0.0675297
-0.160072
-0.174695
-0.177672
-0.176838
-0.18869
-0.201534
-0.215202
-0.227698
-0.237288
-0.24321
-0.248633
-0.2525
-0.258371
-0.261833
-0.258905
-0.253482
-0.249011
-0.184483
0.080418
0.109702
0.11441
0.118942
0.125327
0.119395
-0.0341068
-0.181774
-0.211294
-0.210455
-0.00293243
0.00472721
-0.0106878
-0.00231279
-0.0308095
-0.0405605
-0.0591114
-0.0449309
0.0161137
0.0621863