/*--------------------------------*- C++ -*----------------------------------*\
| =========                 |                                                 |
| \\      /  F ield         | OpenFOAM: The Open Source CFD Toolbox           |
|  \\    /   O peration     | Version:  2.4.0                                 |
|   \\  /    A nd           | Web:      www.OpenFOAM.org                      |
|    \\/     M anipulation  |                                                 |
\*---------------------------------------------------------------------------*/
FoamFile
{
    version     2.0;
    format      ascii;
    class       surfaceScalarField;
    location    "0.214";
    object      phiAlpha;
}
// * * * * * * * * * * * * * * * * * * * * * * * * * * * * * * * * * * * * * //

dimensions      [0 3 -1 0 0 0 0];

internalField   nonuniform List<scalar> 
19800
(
-8.2101e-67
1.5757e-70
-5.25202e-63
1.45707e-66
-9.6469e-60
3.14248e-63
-5.69498e-57
2.54616e-60
-1.30641e-54
6.34236e-58
-1.51947e-52
2.81775e-56
-1.05634e-50
-1.50734e-50
-4.86778e-49
-2.00412e-48
-1.61623e-47
-1.18864e-46
-4.14308e-46
-4.43795e-45
-8.4908e-45
-1.16534e-43
-1.41384e-43
-2.18385e-42
-1.97528e-42
-2.60676e-41
-2.49582e-41
-1.0215e-40
-3.0451e-40
3.24541e-42
-3.521e-39
8.64962e-41
-3.62871e-38
1.27715e-39
-3.24373e-37
1.35499e-38
-2.49118e-36
1.12627e-37
-1.63472e-35
7.70758e-37
-9.32082e-35
4.43087e-36
-4.72172e-34
2.20257e-35
-2.15231e-33
9.7384e-35
-8.79942e-33
3.89324e-34
-3.20493e-32
1.40464e-33
-1.02053e-31
4.54251e-33
-2.75497e-31
1.28964e-32
-5.88997e-31
3.10506e-32
-8.52939e-31
5.89312e-32
-8.20665e-31
7.50443e-32
-5.25039e-31
6.27468e-32
-2.29518e-31
3.4561e-32
-7.13321e-32
1.2995e-32
-1.63204e-32
3.51064e-33
-2.8201e-33
7.12288e-34
-3.97168e-34
1.11897e-34
-4.66764e-35
1.47278e-35
-4.49727e-36
1.66768e-36
-3.50736e-37
1.60067e-37
-2.19886e-38
1.28608e-38
-1.09069e-39
8.5517e-40
-4.25746e-41
4.59082e-41
-1.29285e-42
1.95788e-42
-2.9998e-44
6.49337e-44
-5.20735e-46
1.63252e-45
-6.54629e-48
3.031e-47
-5.78632e-50
4.0112e-49
-3.58618e-51
3.66931e-51
-2.09178e-49
2.31391e-52
1.3514e-50
-1.11895e-47
-4.98598e-63
1.17687e-66
-3.54479e-59
1.25064e-62
-5.81484e-56
2.97965e-59
-2.57542e-53
1.88065e-56
-4.46088e-51
1.22604e-54
-3.60544e-49
-5.27533e-49
-1.4137e-47
-9.36656e-47
-1.19386e-46
-7.26739e-45
4.74533e-46
-3.41918e-43
3.75728e-44
-1.10761e-41
1.61006e-42
-2.67023e-40
4.86224e-41
-4.92826e-39
1.09393e-39
-6.74005e-38
1.83814e-38
-6.17242e-37
2.34183e-37
-2.64841e-36
2.30396e-36
7.79176e-38
1.77569e-35
2.20138e-36
1.0548e-34
2.58942e-35
4.76789e-34
2.11522e-34
1.53672e-33
1.37209e-33
2.02805e-33
7.37874e-33
-5.45317e-32
3.40202e-32
-5.10567e-31
1.38975e-31
-2.73562e-30
5.1235e-31
-1.14192e-29
1.72077e-30
-3.92628e-29
5.22921e-30
-1.10881e-28
1.40719e-29
-2.45425e-28
3.2356e-29
-3.87511e-28
5.95431e-29
-4.30106e-28
7.88871e-29
-3.38652e-28
7.36999e-29
-1.93085e-28
4.90123e-29
-8.27886e-29
2.3837e-29
-2.81789e-29
8.88436e-30
-8.04469e-30
2.69608e-30
-2.00114e-30
7.0517e-31
-4.30997e-31
1.65109e-31
-7.8964e-32
3.43783e-32
-1.20796e-32
6.25153e-33
-1.51673e-33
9.72581e-34
-1.53327e-34
1.26661e-34
-1.22233e-35
1.34505e-35
-7.48413e-37
1.13192e-36
-3.44526e-38
7.29983e-38
-1.15197e-39
3.51223e-39
-2.6671e-41
1.21358e-40
-5.2537e-43
2.86539e-42
-5.06841e-42
5.67678e-44
-1.57509e-40
5.4337e-43
1.65399e-41
-3.84103e-39
-4.06356e-60
9.70212e-64
-3.40377e-56
1.60381e-59
-4.08393e-53
4.30791e-56
-1.16834e-50
1.27835e-53
-7.79592e-49
-2.07455e-48
9.0752e-49
-6.9524e-46
2.7384e-46
-7.85101e-44
2.853e-44
-4.87509e-42
1.72595e-42
-1.96622e-40
7.11788e-41
-5.63431e-39
2.20455e-39
-1.22554e-37
5.38793e-38
-2.09108e-36
1.0422e-36
-2.74994e-35
1.56754e-35
-2.62984e-34
1.83895e-34
-1.65686e-33
1.70109e-33
-4.27953e-33
1.26403e-32
4.04195e-34
7.61258e-32
6.98223e-33
3.73916e-31
5.92278e-32
1.54959e-30
3.67397e-31
5.48857e-30
1.8516e-30
1.65431e-29
7.93452e-30
4.18927e-29
3.00139e-29
8.30288e-29
1.02526e-28
9.01171e-29
3.19622e-28
-4.75944e-28
9.12064e-28
-3.45932e-27
2.33543e-27
-1.06941e-26
5.1704e-27
-2.09761e-26
9.34677e-27
-2.83174e-26
1.27221e-26
-2.73844e-26
1.28495e-26
-1.9512e-26
9.71176e-27
-1.07062e-26
5.60437e-27
-4.79396e-27
2.58238e-27
-1.84299e-27
1.00685e-27
-6.20633e-28
3.48273e-28
-1.82241e-28
1.08613e-28
-4.60474e-29
3.03177e-29
-9.84004e-30
7.46023e-30
-1.7477e-30
1.58605e-30
-2.52478e-31
2.84968e-31
-2.88351e-32
4.20793e-32
-2.51001e-33
4.93021e-33
-1.59659e-34
4.3925e-34
-7.10814e-36
2.84034e-35
-2.12033e-37
1.27319e-36
-2.12968e-38
3.78178e-38
-4.88339e-37
3.73946e-39
-1.0319e-35
8.34818e-38
1.69955e-36
-1.67152e-34
-1.45416e-57
4.00771e-61
-9.49479e-54
9.32089e-57
-4.98028e-51
1.86007e-53
5.75153e-51
-1.2868e-48
6.79388e-48
-1.50575e-45
1.81294e-45
-2.85886e-43
2.22625e-43
-2.51578e-41
1.59863e-41
-1.31782e-39
7.62605e-40
-4.64213e-38
2.62354e-38
-1.18278e-36
6.97138e-37
-2.31054e-35
1.49226e-35
-3.5857e-34
2.57432e-34
-4.37913e-33
3.50482e-33
-4.02542e-32
3.76055e-32
-2.63743e-31
3.20485e-31
-1.06427e-30
2.19576e-30
-5.15178e-31
1.22813e-29
5.98054e-31
5.67189e-29
5.84923e-30
2.22129e-28
3.5545e-29
7.61448e-28
1.68465e-28
2.31733e-27
6.72107e-28
6.33403e-27
2.35714e-27
1.56255e-26
7.47348e-27
3.44376e-26
2.17082e-26
6.59475e-26
5.80417e-26
1.01865e-25
1.41417e-25
9.88877e-26
3.02261e-25
-3.93407e-26
5.38317e-25
-3.49833e-25
7.48964e-25
-5.61015e-25
8.00203e-25
-5.53217e-25
6.63173e-25
-3.97439e-25
4.33465e-25
-2.28838e-25
2.32664e-25
-1.11626e-25
1.08092e-25
-4.73145e-26
4.48775e-26
-1.7439e-26
1.68433e-26
-5.53692e-27
5.67556e-27
-1.49449e-27
1.69355e-27
-3.37224e-28
4.39801e-28
-6.21563e-29
9.7222e-29
-9.08302e-30
1.776e-29
-1.00867e-30
2.58503e-30
-8.04868e-32
2.85747e-31
-4.32354e-33
2.25882e-32
-1.48029e-34
1.19328e-33
-6.21876e-35
3.98346e-35
-1.32878e-33
1.61715e-35
-2.19474e-32
3.31008e-34
5.19394e-33
-2.73647e-31
-2.32653e-55
9.70439e-59
-1.15772e-52
2.80646e-54
3.79026e-51
1.91251e-51
7.53295e-48
-9.9899e-46
3.37424e-45
-4.15034e-43
6.06617e-43
-5.81586e-41
5.7898e-41
-4.21826e-39
3.4406e-39
-1.90232e-37
1.40446e-37
-5.90186e-36
4.20995e-36
-1.34083e-34
9.83382e-35
-2.3486e-33
1.86617e-33
-3.28991e-32
2.88489e-32
-3.67461e-31
3.55544e-31
-3.15227e-30
3.47816e-30
-1.99651e-29
2.71543e-29
-8.6325e-29
1.70739e-28
-1.81428e-28
8.7421e-28
1.95692e-29
3.72147e-27
2.82519e-28
1.3452e-26
1.73553e-27
4.2645e-26
7.77061e-27
1.21876e-25
2.88401e-26
3.18469e-25
9.37283e-26
7.68337e-25
2.7565e-25
1.71148e-24
7.4605e-25
3.49204e-24
1.87036e-24
6.40268e-24
4.32229e-24
1.00484e-23
8.92599e-24
1.24557e-23
1.56697e-23
1.07144e-23
2.21659e-23
4.50472e-24
2.47695e-23
-1.97908e-24
2.19854e-23
-4.21353e-24
1.57746e-23
-3.79136e-24
9.514e-24
-2.50686e-24
5.0277e-24
-1.36013e-24
2.38586e-24
-6.24545e-25
1.0255e-24
-2.43274e-25
3.97086e-25
-7.97461e-26
1.3655e-25
-2.17804e-26
4.09391e-26
-4.87201e-27
1.04981e-26
-8.64354e-28
2.24344e-27
-1.16465e-28
3.83829e-28
-1.11728e-29
5.00247e-29
-7.01354e-31
4.63481e-30
-2.71876e-32
2.79781e-31
-2.69801e-32
1.03694e-32
-5.10345e-31
9.77649e-33
-7.08468e-30
1.74577e-31
2.27367e-30
-7.33927e-29
-1.11856e-54
1.45061e-56
1.99576e-52
5.41879e-52
1.89086e-48
-1.3061e-46
2.13587e-45
-2.30847e-43
6.92223e-43
-6.32602e-41
9.89299e-41
-7.05297e-39
7.88355e-39
-4.32266e-37
4.02542e-37
-1.69662e-35
1.43726e-35
-4.6596e-34
3.80593e-34
-9.46029e-33
7.88078e-33
-1.48585e-31
1.33031e-31
-1.8713e-30
1.8426e-30
-1.89478e-29
2.0514e-29
-1.49362e-28
1.8242e-28
-8.8709e-28
1.30052e-27
-3.7637e-27
7.4814e-27
-9.56906e-27
3.50367e-26
7.0877e-29
1.36495e-25
7.97392e-27
4.51939e-25
5.09359e-26
1.31355e-24
2.16512e-25
3.46163e-24
7.44945e-25
8.44778e-24
2.23758e-24
1.9277e-23
6.0905e-24
4.12107e-23
1.53303e-23
8.2097e-23
3.59873e-23
1.50513e-22
7.86216e-23
2.46921e-22
1.56561e-22
3.43771e-22
2.70924e-22
3.85214e-22
3.88413e-22
3.34231e-22
4.50049e-22
2.1378e-22
4.20885e-22
8.65185e-23
3.24256e-22
1.80454e-24
2.14312e-22
-1.64638e-23
1.25472e-22
-1.57167e-23
6.61244e-23
-9.94695e-24
3.15701e-23
-4.92404e-24
1.36131e-23
-1.97937e-24
5.24314e-24
-6.48347e-25
1.77144e-24
-1.7177e-25
5.12426e-25
-3.61486e-26
1.23727e-25
-5.77257e-27
2.41741e-26
-6.54742e-28
3.61791e-27
-4.7703e-29
3.85872e-28
-2.10876e-30
2.6427e-29
-3.18622e-30
1.09549e-30
-5.47036e-29
1.54683e-30
-6.68472e-28
2.47215e-29
2.80067e-28
-6.03517e-27
2.05644e-55
2.289e-54
6.97378e-50
3.70191e-50
3.95824e-46
-3.68854e-44
3.22508e-43
-2.99649e-41
8.25199e-41
-6.15401e-39
9.78717e-39
-5.64552e-37
6.67203e-37
-2.96498e-35
2.9715e-35
-1.02004e-33
9.37105e-34
-2.4896e-32
2.20723e-32
-4.52725e-31
4.07077e-31
-6.38324e-30
6.12203e-30
-7.21611e-29
7.58871e-29
-6.58766e-28
7.61175e-28
-4.72539e-27
6.13259e-27
-2.58685e-26
3.98052e-26
-1.03704e-25
2.09091e-25
-2.69812e-25
8.95772e-25
-1.96799e-25
3.18754e-24
1.49224e-25
9.63436e-24
1.01006e-24
2.55619e-23
4.06109e-24
6.16761e-23
1.28818e-23
1.39287e-22
3.55635e-23
2.97349e-22
8.91736e-23
6.01256e-22
2.07896e-22
1.1452e-21
4.55489e-22
2.0322e-21
9.38355e-22
3.2974e-21
1.7946e-21
4.69447e-21
3.05834e-21
5.64171e-21
4.43543e-21
5.59306e-21
5.29734e-21
4.51032e-21
5.15813e-21
2.90009e-21
4.19396e-21
1.42281e-21
2.98308e-21
4.50177e-22
1.90537e-21
-4.1095e-24
1.09666e-21
-6.09146e-23
5.70592e-22
-4.86356e-23
2.68472e-22
-2.57613e-23
1.13495e-22
-1.04266e-23
4.24796e-23
-3.30478e-24
1.37316e-23
-8.16911e-25
3.71051e-24
-1.537e-25
8.11264e-25
-2.05295e-26
1.37797e-25
-1.75341e-27
1.67957e-26
-8.86481e-29
1.31569e-27
-1.46394e-28
6.11178e-29
-2.34692e-27
9.27329e-29
-2.61267e-26
1.3644e-27
1.39151e-26
-2.12645e-25
7.3956e-53
3.68425e-52
1.2755e-47
-5.40152e-46
4.98116e-44
-4.76808e-42
3.10964e-41
-2.54813e-39
6.48487e-39
-4.13e-37
6.50449e-37
-3.17654e-35
3.83923e-35
-1.44269e-33
1.50372e-33
-4.37346e-32
4.21349e-32
-9.51844e-31
8.8683e-31
-1.55414e-29
1.46239e-29
-1.97118e-28
1.96266e-28
-2.00068e-27
2.17529e-27
-1.64175e-26
1.96086e-26
-1.06475e-25
1.42653e-25
-5.31186e-25
8.40225e-25
-1.96884e-24
4.02188e-24
-4.91867e-24
1.57536e-23
-4.94105e-24
5.12641e-23
2.08152e-24
1.41145e-22
1.47433e-23
3.40581e-22
5.53347e-23
7.49431e-22
1.60466e-22
1.55682e-21
4.03697e-22
3.09164e-21
9.25468e-22
5.87863e-21
1.98517e-21
1.06247e-20
4.03665e-21
1.80323e-20
7.80453e-21
2.84061e-20
1.42896e-20
4.01891e-20
2.39545e-20
4.96204e-20
3.5159e-20
5.24365e-20
4.31629e-20
4.68798e-20
4.32755e-20
3.49879e-20
3.65291e-20
2.142e-20
2.76247e-20
1.04001e-20
1.91037e-20
3.70512e-21
1.18797e-20
6.12298e-22
6.64981e-21
-1.62228e-22
3.37092e-21
-1.75012e-22
1.54604e-21
-9.68522e-23
6.34219e-22
-3.83644e-23
2.27496e-22
-1.13779e-23
6.8911e-23
-2.52654e-24
1.68806e-23
-4.00133e-25
3.22496e-24
-4.06949e-26
4.4951e-25
-2.37736e-27
4.07604e-26
-3.2548e-27
2.13893e-27
-5.00386e-26
2.64163e-27
-5.22273e-25
3.67173e-26
3.46785e-25
-3.93374e-24
1.487e-50
3.85382e-50
1.50993e-45
-1.25099e-43
4.23281e-42
-3.9145e-40
2.07901e-39
-1.52593e-37
3.59242e-37
-2.00654e-35
3.08008e-35
-1.30975e-33
1.5857e-33
-5.1779e-32
5.49229e-32
-1.38897e-30
1.37349e-30
-2.70419e-29
2.59326e-29
-3.97527e-28
3.83805e-28
-4.54784e-27
4.60802e-27
-4.15157e-26
4.56672e-26
-3.05964e-25
3.69321e-25
-1.78736e-24
2.41884e-24
-8.06421e-24
1.28835e-23
-2.72344e-23
5.60573e-23
-6.30902e-23
2.00653e-22
-6.50335e-23
5.98437e-22
2.42507e-23
1.49935e-21
1.68769e-22
3.27944e-21
5.79526e-22
6.54821e-21
1.51818e-21
1.24435e-20
3.44461e-21
2.28821e-20
7.14634e-21
4.07862e-20
1.39651e-20
6.97796e-20
2.61298e-20
1.12927e-19
4.71453e-20
1.71444e-19
8.23687e-20
2.37495e-19
1.35751e-19
2.95835e-19
2.02756e-19
3.25265e-19
2.56525e-19
3.11245e-19
2.61458e-19
2.55153e-19
2.24615e-19
1.75199e-19
1.79186e-19
9.8682e-20
1.34243e-19
4.53104e-20
8.95584e-20
1.61323e-20
5.33429e-20
3.33444e-21
2.88484e-20
-3.41023e-22
1.42648e-20
-4.96075e-22
6.39122e-21
-2.77504e-22
2.53633e-21
-1.04491e-22
8.62041e-22
-2.80281e-23
2.39479e-22
-5.34014e-24
5.15733e-23
-6.59071e-25
8.24669e-24
-4.60232e-26
8.76344e-25
-4.0681e-26
5.35262e-26
-6.12201e-25
4.18016e-26
-6.14884e-24
5.59412e-25
5.01701e-24
-4.37887e-23
1.9978e-48
2.25363e-48
1.2493e-43
-1.23045e-41
2.57094e-40
-2.24892e-38
1.00927e-37
-6.70981e-36
1.46067e-35
-7.28696e-34
1.07832e-33
-4.07261e-32
4.86736e-32
-1.40858e-30
1.49712e-30
-3.35487e-29
3.35393e-29
-5.85942e-28
5.70155e-28
-7.77723e-27
7.60355e-27
-8.0504e-26
8.19442e-26
-6.62967e-25
7.27154e-25
-4.39324e-24
5.27375e-24
-2.30875e-23
3.10339e-23
-9.37959e-23
1.49007e-22
-2.85745e-22
5.87688e-22
-5.99455e-22
1.92077e-21
-5.57918e-22
5.26592e-21
2.52863e-22
1.20001e-20
1.57707e-21
2.37196e-20
4.85346e-21
4.27108e-20
1.1352e-20
7.37734e-20
2.29936e-20
1.24943e-19
4.26551e-20
2.08225e-19
7.49244e-20
3.37209e-19
1.27316e-19
5.20734e-19
2.12085e-19
7.63529e-19
3.527e-19
1.02742e-18
5.72966e-19
1.2872e-18
8.87669e-19
1.46136e-18
1.17551e-18
1.47627e-18
1.20334e-18
1.30143e-18
1.02241e-18
9.64871e-19
8.53227e-19
5.88322e-19
6.97573e-19
3.0311e-19
4.94713e-19
1.33205e-19
3.09526e-19
4.75445e-20
1.76943e-19
1.07849e-20
9.39489e-20
-5.82569e-22
4.60209e-20
-1.1513e-21
2.02806e-20
-6.36254e-22
7.75352e-21
-2.21267e-22
2.46047e-21
-5.17966e-23
6.10502e-22
-7.94789e-24
1.11807e-22
-6.91505e-25
1.40951e-23
-3.22601e-25
1.03737e-24
-4.74903e-24
4.17075e-25
-4.70817e-23
5.35706e-24
4.67231e-23
-3.23005e-22
1.91678e-46
6.97427e-49
7.5135e-42
-7.7656e-40
1.15164e-38
-9.46269e-37
3.65721e-36
-2.22513e-34
4.47107e-34
-2.02261e-32
2.85836e-32
-9.74827e-31
1.13585e-30
-2.96177e-29
3.1129e-29
-6.27987e-28
6.26752e-28
-9.86196e-27
9.62722e-27
-1.18504e-25
1.1616e-25
-1.11343e-24
1.12856e-24
-8.30416e-24
8.99301e-24
-4.96257e-23
5.85642e-23
-2.34876e-22
3.09565e-22
-8.58319e-22
1.33716e-21
-2.34522e-21
4.76765e-21
-4.37936e-21
1.42115e-20
-3.31937e-21
3.59415e-20
2.34035e-21
7.4499e-20
1.22583e-20
1.32679e-19
3.33321e-20
2.13882e-19
6.9093e-20
3.33009e-19
1.23989e-19
5.15521e-19
2.03191e-19
8.00072e-19
3.15361e-19
1.22705e-18
4.77249e-19
1.81349e-18
7.20266e-19
2.59814e-18
1.1311e-18
3.40479e-18
1.82666e-18
4.40416e-18
3.10851e-18
5.21778e-18
4.48359e-18
5.54315e-18
4.57452e-18
5.18456e-18
3.70016e-18
4.03067e-18
3.1795e-18
2.52576e-18
2.86984e-18
1.37536e-18
2.11263e-18
6.80234e-19
1.3558e-18
3.03212e-19
8.08815e-19
1.13602e-19
4.59727e-19
2.85209e-20
2.46838e-19
-6.58411e-22
1.21527e-19
-2.27231e-21
5.26337e-20
-1.21862e-21
1.91472e-20
-3.77247e-22
5.54694e-21
-7.37154e-23
1.18713e-21
-8.30109e-24
1.77594e-22
-1.88601e-24
1.61645e-23
-2.50476e-23
3.06686e-24
-2.51756e-22
3.47335e-23
3.01894e-22
-1.69363e-21
1.34994e-44
-6.98951e-43
3.34459e-40
-3.45504e-38
3.87037e-37
-2.99256e-35
1.00556e-34
-5.66756e-33
1.04669e-32
-4.36041e-31
5.82479e-31
-1.82367e-29
2.04477e-29
-4.88423e-28
5.00633e-28
-9.23781e-27
9.08337e-27
-1.30649e-25
1.26486e-25
-1.42421e-24
1.38634e-24
-1.2181e-23
1.22025e-23
-8.26236e-23
8.76959e-23
-4.47202e-22
5.14355e-22
-1.91257e-21
2.44707e-21
-6.30095e-21
9.50996e-21
-1.54276e-20
3.06033e-20
-2.53651e-20
8.30808e-20
-1.37963e-20
1.94623e-19
1.83766e-20
3.66593e-19
7.95614e-20
5.86888e-19
1.90325e-19
8.3875e-19
3.49065e-19
1.16555e-18
5.54279e-19
1.63123e-18
7.94593e-19
2.34103e-18
1.06826e-18
3.39528e-18
1.39873e-18
4.81068e-18
1.85284e-18
6.80313e-18
2.66658e-18
8.75898e-18
4.19854e-18
1.27262e-17
8.93292e-18
1.57937e-17
1.50455e-17
1.71216e-17
1.48212e-17
1.68603e-17
1.08308e-17
1.35881e-17
9.77653e-18
8.3855e-18
1.00644e-17
4.63756e-18
7.3657e-18
2.50172e-18
4.65417e-18
1.30544e-18
2.8428e-18
6.24216e-19
1.72217e-18
2.50066e-19
1.01591e-18
6.79587e-20
5.61428e-19
-2.33114e-22
2.77219e-19
-4.01239e-21
1.16318e-19
-2.00089e-21
3.93872e-20
-5.25319e-22
1.00791e-20
-7.92738e-23
1.78922e-21
-1.06475e-23
2.03879e-22
-9.47588e-23
2.19145e-23
-9.92333e-22
1.61594e-22
1.43358e-21
-6.66394e-21
6.99921e-43
-5.62366e-41
1.10787e-38
-1.12519e-36
9.83869e-36
-7.23222e-34
2.11639e-33
-1.12331e-31
1.89072e-31
-7.38808e-30
9.20627e-30
-2.69703e-28
2.86423e-28
-6.38782e-27
6.27859e-27
-1.07945e-25
1.02864e-25
-1.3761e-24
1.302e-24
-1.36242e-23
1.30099e-23
-1.06298e-22
1.04274e-22
-6.58204e-22
6.79523e-22
-3.24244e-21
3.60668e-21
-1.2593e-20
1.55116e-20
-3.75961e-20
5.44052e-20
-8.287e-20
1.58147e-19
-1.19768e-19
3.90596e-19
-3.79883e-20
8.52238e-19
1.18587e-19
1.45521e-18
4.31369e-19
2.08677e-18
9.09232e-19
2.60658e-18
1.48121e-18
3.19328e-18
2.09675e-18
3.97379e-18
2.61428e-18
5.20698e-18
2.97849e-18
7.09319e-18
3.24733e-18
9.63844e-18
3.56244e-18
1.33072e-17
4.41685e-18
1.35031e-17
5.10708e-18
3.58132e-17
2.09209e-17
4.25264e-17
4.22676e-17
3.33385e-17
3.39897e-17
2.57386e-17
1.45392e-17
2.7237e-17
2.07866e-17
1.81057e-17
2.70493e-17
1.12457e-17
1.97841e-17
7.08628e-18
1.23543e-17
4.3168e-18
7.79821e-18
2.45263e-18
5.04248e-18
1.23802e-18
3.2683e-18
5.0963e-19
2.03082e-18
1.39206e-19
1.14553e-18
-6.87618e-23
5.56302e-19
-6.57493e-21
2.20628e-19
-2.7974e-21
6.75057e-20
-5.85223e-22
1.45973e-20
-7.24745e-23
2.05524e-21
-2.68841e-22
1.91514e-22
-3.00731e-21
5.66716e-22
5.23581e-21
-2.05565e-20
2.62691e-41
-2.51721e-39
2.72175e-37
-2.73574e-35
1.89387e-34
-1.35101e-32
3.41758e-32
-1.74869e-30
2.64288e-30
-9.92283e-29
1.13225e-28
-3.18007e-27
3.13263e-27
-6.68272e-26
6.16089e-26
-1.01059e-24
9.12771e-25
-1.1618e-23
1.05208e-23
-1.04484e-22
9.6115e-23
-7.44406e-22
7.04685e-22
-4.21832e-21
4.18818e-21
-1.89957e-20
2.02371e-20
-6.73649e-20
7.91878e-20
-1.83562e-19
2.5234e-19
-3.67949e-19
6.66096e-19
-4.73418e-19
1.4976e-18
-5.42494e-20
3.0761e-18
6.24603e-19
4.74763e-18
1.96874e-18
6.01223e-18
3.6333e-18
6.43388e-18
5.3145e-18
6.80802e-18
6.8091e-18
7.32005e-18
7.36693e-18
8.57318e-18
6.94584e-18
1.08238e-17
6.04604e-18
1.40094e-17
5.06967e-18
1.83095e-17
4.78301e-18
2.63851e-17
6.94076e-18
4.21857e-17
1.65563e-17
7.58183e-17
5.13681e-17
4.11823e-16
1.45029e-15
4.55735e-16
1.62328e-15
1.72896e-16
8.33746e-16
6.79973e-17
1.36054e-16
3.44581e-17
5.84067e-17
2.08383e-17
3.0304e-17
1.29366e-17
1.84551e-17
7.85767e-18
1.21601e-17
4.47764e-18
8.43125e-18
2.24887e-18
5.81966e-18
9.00604e-19
3.73292e-18
2.26481e-19
2.09235e-18
-3.33749e-21
9.7173e-19
-9.80084e-21
3.53482e-19
-3.19901e-21
9.39952e-20
-5.05832e-22
1.62948e-20
-6.04898e-22
1.75914e-21
-7.23941e-21
1.59272e-21
1.52445e-20
-5.15207e-20
6.84478e-40
-7.34289e-38
4.89922e-36
-5.02445e-34
2.74092e-33
-1.96542e-31
4.21162e-31
-2.15098e-29
2.8465e-29
-1.06242e-27
1.08006e-27
-3.00774e-26
2.66872e-26
-5.62978e-25
4.72101e-25
-7.63374e-24
6.33405e-24
-7.9174e-23
6.65527e-23
-6.46406e-22
5.56939e-22
-4.20404e-21
3.7475e-21
-2.18148e-20
2.04169e-20
-9.00301e-20
9.03607e-20
-2.92774e-19
3.24123e-19
-7.33448e-19
9.47676e-19
-1.35581e-18
2.29919e-18
-1.60292e-18
4.73044e-18
9.28877e-21
9.3706e-18
2.71639e-18
1.3097e-17
7.7553e-18
1.40264e-17
1.21216e-17
1.24454e-17
1.62206e-17
1.08216e-17
1.91769e-17
9.3936e-18
1.78953e-17
9.49285e-18
1.35415e-17
1.11238e-17
8.93933e-18
1.36828e-17
5.50863e-18
1.63326e-17
3.74997e-18
1.92459e-17
3.88299e-18
2.38929e-17
7.66258e-18
1.01358e-15
1.97533e-16
2.1506e-15
1.96517e-15
1.48283e-15
2.02857e-15
6.96126e-16
1.48656e-15
1.49102e-16
6.14007e-16
6.65651e-17
7.54487e-17
3.82933e-17
4.31531e-17
2.6006e-17
2.8856e-17
1.78293e-17
2.09709e-17
1.16147e-17
1.63042e-17
6.85057e-18
1.28391e-17
3.42233e-18
9.48642e-18
1.29428e-18
6.16478e-18
2.69154e-19
3.34596e-18
-1.33169e-20
1.44396e-18
-1.22491e-20
4.65297e-19
-2.8513e-21
1.01683e-19
-1.24929e-21
1.35834e-20
-1.42139e-20
4.17711e-21
3.64495e-20
-1.07945e-19
1.15894e-38
-1.46528e-36
6.26637e-35
-7.01769e-33
2.9174e-32
-2.23562e-30
3.88933e-30
-2.0967e-28
2.32585e-28
-9.0959e-27
7.88709e-27
-2.29124e-25
1.75137e-25
-3.83964e-24
2.79802e-24
-4.6807e-23
3.40706e-23
-4.38288e-22
3.26638e-22
-3.24573e-21
2.50616e-21
-1.92345e-20
1.55014e-20
-9.12438e-20
7.7672e-20
-3.45035e-19
3.16301e-19
-1.03043e-18
1.04699e-18
-2.38442e-18
2.83951e-18
-4.12051e-18
6.45906e-18
-4.69405e-18
1.23694e-17
2.36955e-20
2.49139e-17
9.99839e-18
3.24183e-17
2.80995e-17
2.53846e-17
3.28984e-17
1.79856e-17
4.29583e-17
1.04643e-17
4.76956e-17
4.9559e-18
3.7336e-17
4.58781e-18
2.0825e-17
6.05724e-18
1.0024e-17
8.47474e-18
4.22889e-18
1.07664e-17
1.88749e-18
1.16728e-17
2.63182e-18
1.02203e-17
7.94169e-18
1.60382e-15
3.41884e-16
1.61503e-15
1.70897e-15
1.18489e-15
2.19715e-15
5.40856e-16
1.87125e-15
4.18822e-17
5.26017e-16
4.13969e-17
4.52774e-17
3.69145e-17
3.60329e-17
3.15358e-17
2.85943e-17
2.63957e-17
2.40796e-17
2.08003e-17
2.23694e-17
1.47711e-17
2.12262e-17
8.98623e-18
1.86741e-17
4.36272e-18
1.42803e-17
1.47661e-18
9.08238e-18
1.96639e-19
4.61914e-18
-2.69541e-20
1.78742e-18
-1.17073e-20
4.86721e-19
-3.09615e-21
8.16256e-20
-2.3352e-20
1.34683e-20
7.36717e-20
-1.93358e-19
1.05301e-37
-2.06268e-35
5.2266e-34
-7.48349e-32
2.15193e-31
-1.98974e-29
2.56712e-29
-1.61936e-27
1.38592e-27
-6.22986e-26
4.26429e-26
-1.40831e-24
8.6058e-25
-2.12815e-23
1.25103e-23
-2.34189e-22
1.38898e-22
-1.98252e-21
1.21781e-21
-1.33076e-20
8.57201e-21
-7.16326e-20
4.87429e-20
-3.09435e-19
2.24802e-19
-1.0687e-18
8.43732e-19
-2.9258e-18
2.5859e-18
-6.25583e-18
6.55327e-18
-1.01759e-17
1.42547e-17
-1.15943e-17
2.62994e-17
-1.87811e-18
6.08835e-17
3.08722e-17
7.40535e-17
1.0245e-16
3.24463e-17
6.65001e-17
1.5489e-17
1.14225e-16
-5.86183e-18
1.11053e-16
-9.29928e-18
6.38661e-17
-4.17458e-18
2.24413e-17
-1.08249e-18
1.995e-17
3.27672e-18
3.70756e-19
7.37584e-18
-2.22924e-18
1.04808e-17
1.15425e-19
1.55445e-17
5.56144e-18
1.96255e-16
1.71813e-17
9.65442e-16
5.37296e-16
1.06682e-15
1.84055e-15
3.74983e-16
8.19798e-16
9.66078e-17
1.30785e-16
1.00775e-16
9.72292e-17
4.4023e-17
3.83073e-17
3.5756e-17
2.62669e-17
3.42325e-17
2.33227e-17
3.14524e-17
2.55596e-17
2.60628e-17
2.9377e-17
1.86036e-17
3.07503e-17
1.08494e-17
2.74807e-17
4.76572e-18
2.02596e-17
1.289e-18
1.19718e-17
-2.16964e-22
5.4627e-18
-3.35215e-20
1.80595e-18
-9.5127e-21
3.86205e-19
-3.30214e-20
5.57586e-20
1.29977e-19
-3.01479e-19
-8.85463e-35
-2.04074e-34
1.89995e-33
-6.07053e-31
8.88249e-31
-1.3764e-28
1.04304e-28
-9.85876e-27
5.36295e-27
-3.40068e-25
1.55275e-25
-6.96653e-24
2.92539e-24
-9.58317e-23
3.94302e-23
-9.587e-22
4.04272e-22
-7.36084e-21
3.26748e-21
-4.47781e-20
2.11687e-20
-2.18202e-19
1.10712e-19
-8.54151e-19
4.69656e-19
-2.68139e-18
1.62287e-18
-6.70087e-18
4.60069e-18
-1.31949e-17
1.09053e-17
-2.01523e-17
2.27497e-17
-2.28384e-17
3.92175e-17
-6.8055e-18
1.319e-16
6.66948e-17
8.55354e-17
1.02245e-15
1.77018e-16
3.59596e-15
-4.0131e-17
2.11121e-15
-4.53309e-17
2.54008e-16
-2.22972e-17
8.04313e-17
-2.40327e-17
1.79569e-17
-1.33662e-17
2.33872e-18
4.09526e-19
-7.38259e-18
7.0236e-18
-9.21675e-18
1.23735e-17
-5.6072e-18
1.58241e-17
2.91624e-18
1.93887e-17
1.4643e-17
1.00665e-16
1.12681e-16
2.14378e-16
3.47939e-16
1.3989e-16
1.83673e-16
5.75885e-17
5.66559e-17
3.97664e-17
3.80523e-17
3.64242e-17
2.62185e-17
3.88325e-17
2.07841e-17
4.28365e-17
1.89326e-17
4.44408e-17
2.53059e-17
4.11344e-17
3.61656e-17
3.29047e-17
4.47406e-17
2.18899e-17
4.5929e-17
1.14462e-17
3.85156e-17
4.20176e-18
2.59544e-17
7.09111e-19
1.36754e-17
-5.60318e-20
5.36568e-18
-2.78161e-20
1.4283e-18
-4.24037e-20
2.31614e-19
2.12246e-19
-4.15738e-19
-9.00534e-33
-1.38112e-33
-1.67249e-30
-3.69233e-30
-5.05956e-29
-7.33915e-28
5.58465e-29
-4.69829e-26
6.52662e-27
-1.4702e-24
2.36201e-25
-2.7579e-23
4.83391e-24
-3.48781e-22
6.64272e-23
-3.20273e-21
6.69385e-22
-2.24507e-20
5.19575e-21
-1.23951e-19
3.17685e-20
-5.46523e-19
1.54966e-19
-1.93463e-18
6.08767e-19
-5.5027e-18
1.94075e-18
-1.25036e-17
5.09079e-18
-2.2569e-17
1.13238e-17
-3.21335e-17
2.27212e-17
-3.51747e-17
3.49756e-17
-1.32761e-17
7.32582e-17
2.52341e-17
1.39944e-15
3.56503e-15
-6.63822e-16
5.24522e-15
-7.86387e-16
4.94771e-15
-6.35423e-17
3.69317e-16
-2.66944e-17
7.94671e-17
-1.3681e-17
1.24188e-17
-1.1209e-17
-7.14101e-18
3.50065e-18
-1.73797e-17
1.03545e-17
-1.76339e-17
1.59954e-17
-1.19954e-17
2.0489e-17
-1.16181e-18
2.52147e-17
1.10183e-17
3.64711e-17
2.84614e-17
6.10397e-17
5.87626e-17
5.65308e-17
5.36108e-17
4.28533e-17
3.7394e-17
3.8453e-17
4.17135e-17
3.70518e-17
2.49626e-17
4.19425e-17
1.53338e-17
5.13918e-17
9.88414e-18
5.8471e-17
1.95699e-17
5.84224e-17
3.93532e-17
5.06716e-17
5.82884e-17
3.71128e-17
6.80148e-17
2.204e-17
6.38162e-17
9.82653e-18
4.82101e-17
2.68598e-18
2.88142e-17
-9.87902e-22
1.3118e-17
-6.52793e-20
4.21962e-18
-5.44225e-20
8.42848e-19
3.55791e-19
-5.13934e-19
-1.10543e-31
-6.17923e-33
-2.79323e-29
-1.67724e-29
-1.91388e-27
-3.01993e-27
-6.02742e-26
-1.76508e-25
-1.0931e-24
-5.08159e-24
-1.28437e-23
-8.80887e-23
-1.04376e-22
-1.03102e-21
-6.05373e-22
-8.74682e-21
-2.4857e-21
-5.63478e-20
-6.58691e-21
-2.84231e-19
-6.27157e-21
-1.14121e-18
1.19858e-20
-3.66894e-18
8.48762e-20
-9.45428e-18
3.02459e-19
-1.94857e-17
7.61444e-19
-3.19969e-17
1.57883e-18
-4.15973e-17
3.48284e-18
-4.18494e-17
5.4475e-18
-1.93822e-17
1.83117e-16
1.69063e-16
3.09902e-16
2.95744e-15
-3.20004e-16
5.43282e-15
-1.6798e-16
4.3056e-15
-1.87218e-17
5.38634e-16
-4.81618e-18
6.92107e-17
2.47709e-18
5.19683e-18
8.3348e-18
-1.38417e-17
1.32461e-17
-2.31547e-17
1.8107e-17
-2.35429e-17
2.32471e-17
-1.84041e-17
2.88157e-17
-6.83492e-18
3.3961e-17
7.21712e-18
4.18908e-17
1.92387e-17
5.27627e-17
3.23188e-17
5.94973e-17
3.9011e-17
5.20759e-17
3.98062e-17
4.69499e-17
7.36609e-17
4.06099e-17
2.66838e-17
4.61245e-17
1.03922e-17
6.26504e-17
-9.58755e-18
7.42915e-17
8.13177e-18
7.63607e-17
3.89048e-17
6.91356e-17
7.02417e-17
5.41225e-17
9.15013e-17
3.53527e-17
9.43245e-17
1.81636e-17
7.85328e-17
6.46188e-18
5.23706e-17
9.24181e-19
2.71498e-17
-1.06642e-19
1.03044e-17
-7.62775e-20
2.55334e-18
6.78721e-19
-5.7482e-19
-7.96473e-31
-1.5674e-32
-2.00123e-28
-5.5485e-29
-1.38315e-26
-9.43724e-27
-4.47259e-25
-5.14612e-25
-8.48228e-24
-1.38247e-23
-1.0673e-22
-2.23876e-22
-9.61711e-22
-2.44773e-21
-6.53716e-21
-1.93647e-20
-3.48125e-20
-1.15883e-19
-1.49075e-19
-5.40096e-19
-5.2305e-19
-1.99586e-18
-1.52939e-18
-5.89185e-18
-3.78891e-18
-1.39043e-17
-8.08661e-18
-2.61092e-17
-1.51886e-17
-3.87409e-17
-2.59269e-17
-4.51164e-17
-3.71253e-17
-4.01716e-17
-6.03328e-17
-2.19977e-17
3.57941e-18
2.34135e-17
1.15227e-17
7.52749e-17
-2.00127e-16
5.16161e-15
-6.65129e-17
3.22565e-16
3.38174e-17
1.38058e-16
2.69754e-17
4.80641e-17
1.98421e-17
7.07576e-18
1.89992e-17
-1.56225e-17
2.10745e-17
-2.6699e-17
2.43908e-17
-2.8412e-17
3.23572e-17
-2.64488e-17
4.1388e-17
-1.53274e-17
4.889e-17
1.55955e-18
5.6701e-17
1.30407e-17
6.78438e-17
2.47368e-17
7.64324e-17
3.61857e-17
7.37821e-17
4.52835e-17
6.68078e-17
5.39487e-17
5.41023e-17
3.56801e-17
6.33107e-17
9.64265e-18
1.40262e-16
-2.53717e-16
1.38556e-16
-6.03719e-17
1.07569e-16
4.4102e-17
8.65291e-17
8.3477e-17
6.86546e-17
1.13924e-16
4.79941e-17
1.26638e-16
2.76525e-17
1.14329e-16
1.19091e-17
8.38662e-17
2.93458e-18
4.87982e-17
-7.66841e-20
2.14317e-17
-1.14407e-19
6.45113e-18
1.49268e-18
-5.85433e-19
-3.8685e-30
-7.95094e-33
-9.2732e-28
-1.31955e-28
-6.13478e-26
-2.21893e-26
-1.90573e-24
-1.15719e-24
-3.47864e-23
-2.95264e-23
-4.21505e-22
-4.5298e-22
-3.65479e-21
-4.68293e-21
-2.38437e-20
-3.49526e-20
-1.21335e-19
-1.96719e-19
-4.9454e-19
-8.58709e-19
-1.64441e-18
-2.95918e-18
-4.52747e-18
-8.1125e-18
-1.04676e-17
-1.76401e-17
-2.07047e-17
-3.00849e-17
-3.6159e-17
-3.9553e-17
-5.86023e-17
-3.88751e-17
-9.15e-17
-2.46255e-17
-1.48733e-16
3.65286e-18
-4.00307e-16
4.287e-17
-1.12748e-15
1.68826e-16
5.04188e-16
1.02202e-15
2.4719e-16
2.76741e-16
1.00071e-16
1.37904e-16
6.27333e-17
8.40455e-17
3.33762e-17
2.76073e-17
2.31779e-17
-9.43826e-18
2.16861e-17
-2.66255e-17
2.47922e-17
-3.29641e-17
3.78831e-17
-2.91669e-17
5.71416e-17
-2.48024e-17
6.67216e-17
-6.71135e-18
7.47292e-17
4.37122e-18
8.39072e-17
1.57974e-17
1.07077e-16
3.20154e-17
1.36451e-16
5.06928e-17
1.65598e-16
8.25242e-17
2.01313e-16
7.10205e-16
3.25753e-16
3.82473e-16
9.0168e-16
-1.29347e-15
7.21271e-16
-3.42549e-16
2.59302e-16
6.05676e-16
1.60366e-16
1.53304e-16
6.97625e-17
2.5477e-16
5.39082e-17
1.53496e-16
3.49994e-17
1.49575e-16
1.79567e-17
1.20144e-16
6.18734e-18
7.78094e-17
5.97842e-19
3.90059e-17
-1.52359e-19
1.39983e-17
3.46814e-18
-5.42088e-19
-1.32987e-29
4.15558e-32
-3.03052e-27
-2.22956e-28
-1.91179e-25
-3.97608e-26
-5.67331e-24
-2.04362e-24
-9.89286e-23
-5.05385e-23
-1.14386e-21
-7.46467e-22
-9.44558e-21
-7.40159e-21
-5.84983e-20
-5.28444e-20
-2.81284e-19
-2.83826e-19
-1.07749e-18
-1.17862e-18
-3.34804e-18
-3.84485e-18
-8.53557e-18
-9.90502e-18
-1.80421e-17
-2.00287e-17
-3.22271e-17
-3.13134e-17
-5.08117e-17
-3.693e-17
-7.65326e-17
-3.06576e-17
-1.19356e-16
-8.10723e-18
-1.88773e-16
3.6153e-17
-2.16056e-16
7.21443e-17
-2.50763e-16
2.29385e-16
7.29471e-17
-2.32204e-16
1.0559e-16
1.17711e-16
7.80819e-17
1.77205e-16
3.4495e-17
1.64558e-16
1.36947e-17
3.92509e-17
9.77627e-18
-7.28178e-18
1.16051e-17
-2.84737e-17
1.67625e-17
-3.7614e-17
2.43994e-17
-3.71804e-17
5.07102e-17
-2.69953e-17
6.10612e-17
-1.11959e-17
7.82038e-17
-1.2116e-17
8.85692e-17
1.76172e-18
9.93769e-17
1.33378e-17
1.21167e-16
1.96443e-17
1.80215e-15
4.91834e-17
5.35071e-15
3.67377e-16
4.72636e-15
1.24991e-16
3.1911e-15
-4.26538e-16
2.12315e-15
1.91258e-17
4.49151e-16
1.98884e-15
1.46685e-16
1.87809e-16
4.86191e-17
3.29245e-16
4.41118e-17
1.54501e-16
3.52372e-17
1.70652e-16
2.25876e-17
1.53154e-16
1.05713e-17
1.11041e-16
2.70184e-18
6.33657e-17
-9.16751e-20
2.67809e-17
7.74426e-18
-4.40894e-19
-3.37468e-29
2.31306e-31
-7.39622e-27
-2.52617e-28
-4.48904e-25
-5.44727e-26
-1.28169e-23
-2.86825e-24
-2.14797e-22
-7.04036e-23
-2.38306e-21
-1.0202e-21
-1.88468e-20
-9.86558e-21
-1.11535e-19
-6.84364e-20
-5.10611e-19
-3.56049e-19
-1.85097e-18
-1.4263e-18
-5.39391e-18
-4.45861e-18
-1.2743e-17
-1.09157e-17
-2.4633e-17
-2.08409e-17
-3.98952e-17
-3.07137e-17
-5.75751e-17
-3.43394e-17
-8.5318e-17
-2.72816e-17
-1.70676e-16
-4.11518e-18
-4.98686e-16
6.30459e-17
-1.56283e-15
1.40358e-15
-9.35601e-16
-7.52686e-16
-4.99611e-15
-1.331e-15
-1.3046e-15
2.01217e-15
-1.73573e-16
4.28127e-15
-3.7425e-17
2.29884e-16
-2.18759e-17
2.12388e-17
-1.25314e-17
-1.52744e-17
-6.0215e-18
-3.4599e-17
1.0393e-19
-4.31957e-17
8.16615e-18
-4.66832e-17
7.86902e-17
-5.1189e-17
4.32511e-17
-3.35856e-17
5.08757e-17
-1.41915e-17
5.89253e-17
-8.69585e-18
6.44367e-17
4.75905e-19
8.00317e-17
-3.91724e-18
1.12289e-16
-5.95913e-18
3.67601e-15
-5.00429e-17
2.86762e-15
2.91299e-16
1.6387e-15
6.47626e-17
-1.58007e-16