/*--------------------------------*- C++ -*----------------------------------*\
| =========                 |                                                 |
| \\      /  F ield         | OpenFOAM: The Open Source CFD Toolbox           |
|  \\    /   O peration     | Version:  2.4.0                                 |
|   \\  /    A nd           | Web:      www.OpenFOAM.org                      |
|    \\/     M anipulation  |                                                 |
\*---------------------------------------------------------------------------*/
FoamFile
{
    version     2.0;
    format      ascii;
    class       volVectorField;
    location    "0.214";
    object      U;
}
// * * * * * * * * * * * * * * * * * * * * * * * * * * * * * * * * * * * * * //

dimensions      [0 1 -1 0 0 0 0];

internalField   nonuniform List<vector> 
10000
(
(-9.90423e-07 9.69175e-07 0)
(-6.82784e-06 2.21349e-06 0)
(-1.42397e-05 2.24385e-06 0)
(-2.0212e-05 1.67798e-06 0)
(-2.36142e-05 1.0331e-06 0)
(-2.43765e-05 4.75772e-07 0)
(-2.28842e-05 4.42917e-08 0)
(-1.96631e-05 -2.676e-07 0)
(-1.52666e-05 -4.66211e-07 0)
(-1.02277e-05 -5.55567e-07 0)
(-5.05364e-06 -5.40098e-07 0)
(-2.30692e-07 -4.25473e-07 0)
(3.77817e-06 -2.1802e-07 0)
(6.55071e-06 6.85492e-08 0)
(7.68974e-06 4.0671e-07 0)
(6.88163e-06 8.05696e-07 0)
(3.934e-06 1.24052e-06 0)
(-1.25641e-06 1.67869e-06 0)
(-8.67687e-06 2.09475e-06 0)
(-1.82016e-05 2.4673e-06 0)
(-2.96179e-05 2.78023e-06 0)
(-4.2657e-05 3.02662e-06 0)
(-5.70293e-05 3.20779e-06 0)
(-7.24589e-05 3.33134e-06 0)
(-8.87057e-05 3.40619e-06 0)
(-0.000105565 3.43825e-06 0)
(-0.000122847 3.42551e-06 0)
(-0.000140336 3.35663e-06 0)
(-0.000157757 3.21401e-06 0)
(-0.000174757 2.98187e-06 0)
(-0.000190943 2.65995e-06 0)
(-0.000205979 2.27477e-06 0)
(-0.000219701 1.87663e-06 0)
(-0.000232167 1.51581e-06 0)
(-0.00024361 1.2198e-06 0)
(-0.000254343 9.92688e-07 0)
(-0.000264687 8.32618e-07 0)
(-0.000274975 7.42306e-07 0)
(-0.000285576 7.31052e-07 0)
(-0.00029691 8.11222e-07 0)
(-0.000309449 9.93418e-07 0)
(-0.00032369 1.28252e-06 0)
(-0.000340117 1.67505e-06 0)
(-0.000359161 2.15804e-06 0)
(-0.000381161 2.70964e-06 0)
(-0.00040634 3.30216e-06 0)
(-0.000434784 3.90645e-06 0)
(-0.000466441 4.49579e-06 0)
(-0.000501122 5.04766e-06 0)
(-0.000538518 5.54308e-06 0)
(-2.14189e-06 6.66722e-06 0)
(-1.35869e-05 1.35826e-05 0)
(-2.56204e-05 1.28508e-05 0)
(-3.33254e-05 8.48768e-06 0)
(-3.47593e-05 3.31314e-06 0)
(-2.99585e-05 -1.4161e-06 0)
(-1.97798e-05 -5.24647e-06 0)
(-5.38126e-06 -8.0553e-06 0)
(1.1975e-05 -9.831e-06 0)
(3.10007e-05 -1.05955e-05 0)
(5.04202e-05 -1.03825e-05 0)
(6.89863e-05 -9.2333e-06 0)
(8.54982e-05 -7.20468e-06 0)
(9.88274e-05 -4.38177e-06 0)
(0.000107983 -8.96132e-07 0)
(0.000112148 3.1163e-06 0)
(0.000110728 7.45365e-06 0)
(0.000103411 1.18854e-05 0)
(9.01752e-05 1.61888e-05 0)
(7.12748e-05 2.01702e-05 0)
(4.7184e-05 2.36888e-05 0)
(1.85195e-05 2.66722e-05 0)
(-1.40447e-05 2.91144e-05 0)
(-4.98642e-05 3.10591e-05 0)
(-8.83767e-05 3.25705e-05 0)
(-0.000129104 3.36927e-05 0)
(-0.000171607 3.4415e-05 0)
(-0.000215401 3.46563e-05 0)
(-0.00025986 3.4289e-05 0)
(-0.000304186 3.32044e-05 0)
(-0.000347481 3.14156e-05 0)
(-0.000388973 2.91352e-05 0)
(-0.000428283 2.67475e-05 0)
(-0.000465573 2.46462e-05 0)
(-0.000501426 2.30758e-05 0)
(-0.000536609 2.21182e-05 0)
(-0.000571925 2.17981e-05 0)
(-0.000608218 2.21625e-05 0)
(-0.000646429 2.3299e-05 0)
(-0.000687638 2.53103e-05 0)
(-0.000733042 2.82719e-05 0)
(-0.000783891 3.21976e-05 0)
(-0.000841383 3.70209e-05 0)
(-0.000906566 4.25956e-05 0)
(-0.000980238 4.87097e-05 0)
(-0.00106288 5.51089e-05 0)
(-0.00115462 6.1522e-05 0)
(-0.0012552 6.76831e-05 0)
(-0.00136403 7.33472e-05 0)
(-0.00148018 7.82978e-05 0)
(-2.15469e-06 1.4063e-05 0)
(-1.27508e-05 2.56113e-05 0)
(-2.13033e-05 2.14868e-05 0)
(-2.28408e-05 1.02784e-05 0)
(-1.53641e-05 -2.53501e-06 0)
(9.05819e-07 -1.43534e-05 0)
(2.48011e-05 -2.40901e-05 0)
(5.47636e-05 -3.13417e-05 0)
(8.906e-05 -3.59991e-05 0)
(0.000125878 -3.80663e-05 0)
(0.000163376 -3.75918e-05 0)
(0.000199716 -3.46535e-05 0)
(0.000233099 -2.93757e-05 0)
(0.000261814 -2.19567e-05 0)
(0.000284323 -1.26919e-05 0)
(0.000299343 -2.00048e-06 0)
(0.00030592 9.60151e-06 0)
(0.000303528 2.1532e-05 0)
(0.000292086 3.32106e-05 0)
(0.000271936 4.41314e-05 0)
(0.000243764 5.39266e-05 0)
(0.000208473 6.24029e-05 0)
(0.000167045 6.95388e-05 0)
(0.000120408 7.54431e-05 0)
(6.93407e-05 8.02857e-05 0)
(1.44589e-05 8.4195e-05 0)
(-4.37241e-05 8.71641e-05 0)
(-0.000104654 8.90058e-05 0)
(-0.000167577 8.94019e-05 0)
(-0.000231441 8.80653e-05 0)
(-0.000294973 8.5005e-05 0)
(-0.000357023 8.07442e-05 0)
(-0.000417059 7.62611e-05 0)
(-0.000475425 7.25623e-05 0)
(-0.000533122 7.02629e-05 0)
(-0.000591351 6.95581e-05 0)
(-0.000651286 7.05137e-05 0)
(-0.000714133 7.32646e-05 0)
(-0.000781264 7.80516e-05 0)
(-0.000854279 8.5143e-05 0)
(-0.000934979 9.47235e-05 0)
(-0.00102524 0.000106804 0)
(-0.00112685 0.000121182 0)
(-0.00124134 0.000137444 0)
(-0.00136985 0.000155008 0)
(-0.00151299 0.000173188 0)
(-0.00167082 0.000191249 0)
(-0.00184281 0.000208466 0)
(-0.0020279 0.000224164 0)
(-0.00222451 0.000237741 0)
(-1.63965e-06 2.00531e-05 0)
(-8.21774e-06 3.32664e-05 0)
(-9.36712e-06 2.29002e-05 0)
(-8.58765e-07 2.19698e-06 0)
(1.88968e-05 -2.06517e-05 0)
(4.94115e-05 -4.16897e-05 0)
(8.92746e-05 -5.91565e-05 0)
(0.000136654 -7.23167e-05 0)
(0.000189498 -8.08992e-05 0)
(0.000245626 -8.48335e-05 0)
(0.000302774 -8.41381e-05 0)
(0.000358628 -7.88973e-05 0)
(0.000410872 -6.92915e-05 0)
(0.000457258 -5.56496e-05 0)
(0.00049572 -3.84987e-05 0)
(0.000524498 -1.85972e-05 0)
(0.000542276 3.09651e-06 0)
(0.000548299 2.5495e-05 0)
(0.000542436 4.75001e-05 0)
(0.000525151 6.81525e-05 0)
(0.000497389 8.67567e-05 0)
(0.000460392 0.000102953 0)
(0.00041549 0.000116713 0)
(0.000363905 0.000128276 0)
(0.000306592 0.000138015 0)
(0.000244192 0.000146239 0)
(0.000177109 0.000153001 0)
(0.000105726 0.000157988 0)
(3.06944e-05 0.000160583 0)
(-4.68242e-05 0.000160151 0)
(-0.000125162 0.000156585 0)
(-0.000202664 0.000150815 0)
(-0.000278589 0.00014475 0)
(-0.000353615 0.000140349 0)
(-0.00042938 0.000138703 0)
(-0.000507586 0.000140021 0)
(-0.000589648 0.000144332 0)
(-0.000676949 0.000151883 0)
(-0.00077113 0.000163161 0)
(-0.000874222 0.000178706 0)
(-0.00098858 0.000198876 0)
(-0.00111669 0.000223674 0)
(-0.0012609 0.000252684 0)
(-0.0014232 0.000285092 0)
(-0.00160501 0.000319772 0)
(-0.00180702 0.000355402 0)
(-0.00202918 0.000390578 0)
(-0.00227063 0.000423912 0)
(-0.00252978 0.000454111 0)
(-0.00280438 0.000480022 0)
(-1.00696e-06 2.31857e-05 0)
(-2.58088e-06 3.40782e-05 0)
(4.93892e-06 1.45306e-05 0)
(2.47705e-05 -1.80101e-05 0)
(5.78554e-05 -5.28402e-05 0)
(0.000103361 -8.47534e-05 0)
(0.000159654 -0.000111367 0)
(0.000224707 -0.000131612 0)
(0.000296252 -0.000145018 0)
(0.000371844 -0.000151382 0)
(0.000448885 -0.000150625 0)
(0.000524649 -0.000142778 0)
(0.000596329 -0.00012803 0)
(0.000661132 -0.000106821 0)
(0.000716424 -7.99308e-05 0)
(0.000759912 -4.85286e-05 0)
(0.000789857 -1.4143e-05 0)
(0.000805255 2.14569e-05 0)
(0.000805952 5.64655e-05 0)
(0.000792625 8.92955e-05 0)
(0.000766618 0.000118806 0)
(0.000729668 0.000144426 0)
(0.000683607 0.000166155 0)
(0.000630061 0.000184474 0)
(0.000570199 0.000200131 0)
(0.000504604 0.000213808 0)
(0.000433362 0.000225754 0)
(0.000356391 0.000235542 0)
(0.000273925 0.00024209 0)
(0.00018707 0.000244081 0)
(9.80282e-05 0.00024099 0)
(9.33862e-06 0.000234222 0)
(-7.7841e-05 0.000227167 0)
(-0.000164789 0.000223296 0)
(-0.000254235 0.000224227 0)
(-0.000348511 0.000229826 0)
(-0.000449058 0.000239863 0)
(-0.000557153 0.000254709 0)
(-0.000674529 0.000275267 0)
(-0.000803597 0.000302529 0)
(-0.000947308 0.000337135 0)
(-0.00110883 0.000379098 0)
(-0.00129115 0.000427706 0)
(-0.00149677 0.000481594 0)
(-0.00172738 0.000538899 0)
(-0.00198376 0.000597452 0)
(-0.00226569 0.000654969 0)
(-0.00257197 0.000709206 0)
(-0.00290045 0.000758078 0)
(-0.00324817 0.000799732 0)
(-4.06587e-07 2.33013e-05 0)
(2.98706e-06 2.76475e-05 0)
(1.91416e-05 -4.07562e-06 0)
(5.02179e-05 -5.06817e-05 0)
(9.64515e-05 -9.92506e-05 0)
(0.000156639 -0.000143503 0)
(0.000228943 -0.000180526 0)
(0.000311192 -0.000208945 0)
(0.000400974 -0.000228067 0)
(0.000495651 -0.000237494 0)
(0.000592348 -0.000236966 0)
(0.000687948 -0.000226362 0)
(0.000779137 -0.000205795 0)
(0.000862511 -0.000175759 0)
(0.000934762 -0.000137281 0)
(0.000992945 -9.20099e-05 0)
(0.00103478 -4.22001e-05 0)
(0.00105895 9.46694e-06 0)
(0.00106533 6.02113e-05 0)
(0.00105493 0.00010757 0)
(0.00102974 0.000149791 0)
(0.000992257 0.000186041 0)
(0.000945086 0.000216399 0)
(0.000890498 0.000241763 0)
(0.000830004 0.000263545 0)
(0.000764094 0.000283137 0)
(0.0006923 0.000301266 0)
(0.000613658 0.000317473 0)
(0.000527484 0.000329993 0)
(0.000434509 0.00033621 0)
(0.000337723 0.000334489 0)
(0.000241353 0.000326681 0)
(0.000147469 0.000318694 0)
(5.36898e-05 0.000316568 0)
(-4.47143e-05 0.000322406 0)
(-0.000150914 0.000334848 0)
(-0.000265889 0.000352955 0)
(-0.000390348 0.000377302 0)
(-0.000525912 0.000409531 0)
(-0.000675403 0.000451405 0)
(-0.000842527 0.000504039 0)
(-0.00103132 0.000567478 0)
(-0.00124559 0.000640611 0)
(-0.00148841 0.00072133 0)
(-0.00176185 0.000806802 0)
(-0.00206675 0.000893774 0)
(-0.00240271 0.000978858 0)
(-0.00276814 0.00105875 0)
(-0.00316031 0.00113041 0)
(-0.00357552 0.00119114 0)
(1.44206e-07 2.0662e-05 0)
(8.05622e-06 1.43834e-05 0)
(3.21683e-05 -3.24352e-05 0)
(7.37187e-05 -9.52638e-05 0)
(0.000132254 -0.000159254 0)
(0.00020623 -0.000217252 0)
(0.000293644 -0.000265933 0)
(0.000392237 -0.000303656 0)
(0.000499518 -0.000329486 0)
(0.000612714 -0.000342758 0)
(0.000728708 -0.000342921 0)
(0.000843995 -0.000329568 0)
(0.0009547 -0.000302598 0)
(0.00105669 -0.000262451 0)
(0.00114582 -0.000210361 0)
(0.00121827 -0.000148523 0)
(0.00127103 -8.0108e-05 0)
(0.00130234 -9.03103e-06 0)
(0.0013121 6.0553e-05 0)
(0.0013019 0.000124937 0)
(0.00127468 0.000181515 0)
(0.0012341 0.000229115 0)
(0.00118395 0.000267949 0)
(0.00112755 0.000299579 0)
(0.00106702 0.000326536 0)
(0.00100281 0.000351486 0)
(0.000933626 0.000376146 0)
(0.000857039 0.000400288 0)
(0.000770588 0.000421253 0)
(0.00067391 0.000434043 0)
(0.000571105 0.000434436 0)
(0.000469673 0.000424399 0)
(0.000373708 0.000414372 0)
(0.000278729 0.000415095 0)
(0.000176182 0.000428856 0)
(6.18291e-05 0.00045105 0)
(-6.37629e-05 0.000479293 0)
(-0.000199949 0.000514674 0)
(-0.00034804 0.000560234 0)
(-0.00051147 0.000619051 0)
(-0.000695044 0.00069298 0)
(-0.000904001 0.00078211 0)
(-0.00114318 0.000884769 0)
(-0.00141643 0.000997844 0)
(-0.00172621 0.00111724 0)
(-0.00207346 0.00123833 0)
(-0.00245757 0.00135638 0)
(-0.00287648 0.00146682 0)
(-0.00332685 0.00156548 0)
(-0.0038042 0.00164868 0)
(6.01251e-07 1.56343e-05 0)
(1.24299e-05 -4.98003e-06 0)
(4.35495e-05 -6.96102e-05 0)
(9.43977e-05 -0.000150704 0)
(0.00016396 -0.000231743 0)
(0.000250424 -0.000304895 0)
(0.000351695 -0.00036654 0)
(0.000465497 -0.000414823 0)
(0.000589333 -0.000448542 0)
(0.000720362 -0.000466676 0)
(0.000855266 -0.000468239 0)
(0.000990147 -0.000452352 0)
(0.0011205 -0.000418499 0)
(0.00124131 -0.00036689 0)
(0.00134734 -0.000298862 0)
(0.00143358 -0.000217199 0)
(0.00149596 -0.000126228 0)
(0.00153203 -3.15424e-05 0)
(0.00154171 6.07256e-05 0)
(0.00152739 0.000145055 0)
(0.00149348 0.000217624 0)
(0.00144532 0.000276815 0)
(0.00138845 0.000322999 0)
(0.00132788 0.000358709 0)
(0.00126685 0.000388252 0)
(0.00120591 0.000416465 0)
(0.00114267 0.000446943 0)
(0.00107254 0.000480324 0)
(0.000989846 0.00051308 0)
(0.000891502 0.000536065 0)
(0.000782856 0.000539415 0)
(0.000677698 0.000523994 0)
(0.000584608 0.000508714 0)
(0.000495084 0.000513375 0)
(0.000393072 0.000539589 0)
(0.000273196 0.000575022 0)
(0.000139994 0.000614815 0)
(-3.30669e-06 0.000661558 0)
(-0.000157693 0.000720993 0)
(-0.000327745 0.000798349 0)
(-0.000519977 0.000896534 0)
(-0.000741321 0.00101562 0)
(-0.00099798 0.00115307 0)
(-0.0012947 0.0013044 0)
(-0.00163441 0.00146388 0)
(-0.00201808 0.00162519 0)
(-0.00244485 0.00178194 0)
(-0.00291214 0.00192809 0)
(-0.00341588 0.00205817 0)
(-0.00395077 0.00216743 0)
(9.64856e-07 8.58047e-06 0)
(1.60301e-05 -2.95388e-05 0)
(5.30132e-05 -0.000114387 0)
(0.000111707 -0.00021561 0)
(0.000190685 -0.000315251 0)
(0.000287983 -0.000404979 0)
(0.000401509 -0.000480999 0)
(0.000529073 -0.000541284 0)
(0.000668268 -0.000584336 0)
(0.000816275 -0.000608676 0)
(0.000969639 -0.000612697 0)
(0.00112408 -0.000594803 0)
(0.00127441 -0.000553775 0)
(0.00141455 -0.00048931 0)
(0.00153786 -0.00040265 0)
(0.0016377 -0.000297142 0)
(0.0017084 -0.000178534 0)
(0.0017464 -5.47188e-05 0)
(0.00175148 6.52878e-05 0)
(0.00172719 0.000173254 0)
(0.00168009 0.000263616 0)
(0.00161787 0.000334214 0)
(0.00154857 0.000385474 0)
(0.0014798 0.000421223 0)
(0.00141677 0.000448466 0)
(0.0013605 0.000475546 0)
(0.00130738 0.000509353 0)
(0.0012499 0.000552684 0)
(0.00117704 0.00060213 0)
(0.00107962 0.000641737 0)
(0.000963329 0.000649826 0)
(0.000853661 0.00062261 0)
(0.000768984 0.000595173 0)
(0.000693301 0.000605221 0)
(0.000595893 0.000651705 0)
(0.000470858 0.000704674 0)
(0.000331869 0.000755991 0)
(0.000186274 0.000812381 0)
(3.27975e-05 0.000884641 0)
(-0.000135443 0.000981307 0)
(-0.000327637 0.00110657 0)
(-0.000553029 0.00126017 0)
(-0.000819512 0.00143823 0)
(-0.00113285 0.00163437 0)
(-0.0014964 0.00184073 0)
(-0.00191112 0.00204888 0)
(-0.00237573 0.00225054 0)
(-0.00288704 0.00243794 0)
(-0.00344017 0.00260419 0)
(-0.00402891 0.00274333 0)
(1.23748e-06 -9.62965e-08 0)
(1.88017e-05 -5.82951e-05 0)
(6.03405e-05 -0.000165346 0)
(0.000125178 -0.000288305 0)
(0.000211639 -0.000407976 0)
(0.00031774 -0.000515696 0)
(0.000441521 -0.000607607 0)
(0.000580997 -0.000681555 0)
(0.000733981 -0.000735716 0)
(0.0008978 -0.000768025 0)
(0.00106897 -0.000776041 0)
(0.00124292 -0.000757137 0)
(0.00141374 -0.000708999 0)
(0.00157413 -0.000630381 0)
(0.00171569 -0.000522055 0)
(0.00182957 -0.00038777 0)
(0.00190772 -0.000234935 0)
(0.00194469 -7.45553e-05 0)
(0.00193976 8.00737e-05 0)
(0.00189811 0.000216581 0)
(0.00182943 0.000326926 0)
(0.00174457 0.000408454 0)
(0.00165485 0.000461231 0)
(0.00157193 0.000490587 0)
(0.00150428 0.000507484 0)
(0.00145402 0.000525696 0)
(0.00141634 0.00055737 0)
(0.00138068 0.000609564 0)
(0.00132812 0.000682873 0)
(0.00123697 0.000751523 0)
(0.00110917 0.000769291 0)
(0.000990598 0.000718201 0)
(0.000920083 0.000664961 0)
(0.000868782 0.000683299 0)
(0.000778182 0.000764906 0)
(0.000644362 0.000840318 0)
(0.000500388 0.000899772 0)
(0.00035861 0.000960648 0)
(0.000215186 0.00104266 0)
(5.88281e-05 0.00115875 0)
(-0.000123568 0.00131414 0)
(-0.000344184 0.00150757 0)
(-0.000612816 0.00173301 0)
(-0.00093624 0.00198143 0)
(-0.00131811 0.00224228 0)
(-0.00175915 0.00250464 0)
(-0.00225756 0.00275796 0)
(-0.00280933 0.00299262 0)
(-0.00340871 0.00320013 0)
(-0.00404851 0.00337329 0)
(1.41785e-06 -9.95731e-06 0)
(2.06733e-05 -9.0135e-05 0)
(6.52888e-05 -0.000220869 0)
(0.000134302 -0.000366822 0)
(0.000225959 -0.000507753 0)
(0.000338403 -0.000634822 0)
(0.00046994 -0.000744215 0)
(0.000618935 -0.000833702 0)
(0.000783574 -0.000901101 0)
(0.000961502 -0.000943645 0)
(0.00114939 -0.000957817 0)
(0.00134252 -0.000939587 0)
(0.00153434 -0.00088503 0)
(0.00171628 -0.000791338 0)
(0.00187785 -0.00065818 0)
(0.00200727 -0.000489263 0)
(0.00209302 -0.000293732 0)
(0.00212642 -8.66867e-05 0)
(0.00210542 0.000112132 0)
(0.00203737 0.000283857 0)
(0.00193687 0.000416969 0)
(0.00181862 0.000508985 0)
(0.00169789 0.000558407 0)
(0.00159256 0.000571938 0)
(0.00151627 0.000566278 0)
(0.00147295 0.000563376 0)
(0.0014567 0.000582909 0)
(0.00145532 0.000638097 0)
(0.00144139 0.000743488 0)
(0.00137013 0.000865746 0)
(0.00122675 0.000908033 0)
(0.00108906 0.000810809 0)
(0.0010361 0.000703614 0)
(0.00102021 0.000738709 0)
(0.000933748 0.000885535 0)
(0.000781506 0.000986206 0)
(0.000634283 0.00104246 0)
(0.000506278 0.00109736 0)
(0.000385497 0.00118418 0)
(0.000253198 0.00131992 0)
(9.13026e-05 0.00150955 0)
(-0.000115546 0.00174947 0)
(-0.000378983 0.0020304 0)
(-0.000706575 0.00233978 0)
(-0.00110199 0.00266375 0)
(-0.00156547 0.00298843 0)
(-0.00209441 0.00330078 0)
(-0.00268389 0.00358915 0)
(-0.00332713 0.00384341 0)
(-0.00401591 0.00405504 0)
(1.4977e-06 -2.05206e-05 0)
(2.15452e-05 -0.00012381 0)
(6.75654e-05 -0.000279106 0)
(0.000138491 -0.000448872 0)
(0.000232661 -0.000612 0)
(0.000348483 -0.000759623 0)
(0.000484661 -0.000888084 0)
(0.00064006 -0.000995136 0)
(0.000813411 -0.00107824 0)
(0.00100289 -0.00113382 0)
(0.00120557 -0.00115705 0)
(0.00141684 -0.00114211 0)
(0.00162981 -0.00108283 0)
(0.00183474 -0.000974 0)
(0.00201887 -0.000813192 0)
(0.00216682 -0.000603127 0)
(0.00226217 -0.000354301 0)
(0.00229074 -8.68678e-05 0)
(0.00224739 0.000169612 0)
(0.0021423 0.000385694 0)
(0.00199808 0.000544999 0)
(0.00183368 0.000647799 0)
(0.0016683 0.000687923 0)
(0.00152949 0.00067253 0)
(0.00143903 0.000626845 0)
(0.00140278 0.000585168 0)
(0.00141285 0.00057676 0)
(0.00145776 0.000620076 0)
(0.00151023 0.000756197 0)
(0.0014957 0.000971624 0)
(0.00134425 0.0010862 0)
(0.00116746 0.000910494 0)
(0.00112266 0.000693041 0)
(0.00114359 0.000765896 0)
(0.00104624 0.00103382 0)
(0.000861148 0.00114766 0)
(0.00072165 0.00117387 0)
(0.000626595 0.00120759 0)
(0.000545724 0.00129486 0)
(0.00045112 0.00145251 0)
(0.000320403 0.0016827 0)
(0.000135636 0.00197782 0)
(-0.000116217 0.00232408 0)
(-0.00044311 0.0027045 0)
(-0.000848336 0.00310123 0)
(-0.0013313 0.00349709 0)
(-0.00188834 0.00387637 0)
(-0.00251344 0.00422531 0)
(-0.00319874 0.00453214 0)
(-0.00393501 0.00478701 0)
(1.46399e-06 -3.12503e-05 0)
(2.12965e-05 -0.000157916 0)
(6.68405e-05 -0.000337954 0)
(0.000137104 -0.000531803 0)
(0.000230672 -0.000717655 0)
(0.000346338 -0.000886758 0)
(0.000483319 -0.00103573 0)
(0.000641102 -0.00116239 0)
(0.00081913 -0.00126387 0)
(0.00101633 -0.00133576 0)
(0.0012305 -0.00137176 0)
(0.00145756 -0.00136385 0)
(0.0016907 -0.00130299 0)
(0.00191952 -0.00118053 0)
(0.00212923 -0.000990488 0)
(0.00230047 -0.000732894 0)
(0.00241035 -0.00041819 0)
(0.00243573 -7.18379e-05 0)
(0.00236452 0.000261543 0)
(0.00221002 0.000534439 0)
(0.00200897 0.0007235 0)
(0.00178417 0.000839565 0)
(0.00155693 0.000863962 0)
(0.00137088 0.000801986 0)
(0.00126009 0.00069237 0)
(0.00123048 0.000588949 0)
(0.00126925 0.00053085 0)
(0.00136303 0.000540216 0)
(0.0014985 0.000679617 0)
(0.00161434 0.00100107 0)
(0.00153872 0.00130348 0)
(0.00131591 0.00106055 0)
(0.00118687 0.000650284 0)
(0.00117078 0.000777591 0)
(0.00103946 0.00124399 0)
(0.000839219 0.00130704 0)
(0.000756772 0.0012617 0)
(0.000729947 0.00126625 0)
(0.000708025 0.00135753 0)
(0.000662389 0.00154437 0)
(0.000570881 0.00182465 0)
(0.000414312 0.00218597 0)
(0.000178627 0.00260913 0)
(-0.000144217 0.0030719 0)
(-0.000556779 0.00355192 0)
(-0.00105727 0.00402838 0)
(-0.00164072 0.00448284 0)
(-0.00229989 0.00489946 0)
(-0.00302584 0.0052649 0)
(-0.0038084 0.00556809 0)
(1.30231e-06 -4.15476e-05 0)
(1.98036e-05 -0.000190882 0)
(6.27907e-05 -0.000395043 0)
(0.000129515 -0.000612584 0)
(0.000218943 -0.00082114 0)
(0.000330338 -0.0010122 0)
(0.000463494 -0.00118278 0)
(0.000618598 -0.00133087 0)
(0.000795919 -0.0014534 0)
(0.000995333 -0.00154513 0)
(0.00121567 -0.00159823 0)
(0.00145389 -0.0016023 0)
(0.001704 -0.00154484 0)
(0.0019558 -0.00141267 0)
(0.00219347 -0.00119445 0)
(0.00239418 -0.000884826 0)
(0.0025277 -0.0004909 0)
(0.0025571 -4.09749e-05 0)
(0.00245556 0.000397646 0)
(0.00223719 0.000744346 0)
(0.00196538 0.000964473 0)
(0.00166509 0.00110142 0)
(0.00135501 0.001104 0)
(0.00110734 0.00097155 0)
(0.000973021 0.000766257 0)
(0.000950666 0.000575928 0)
(0.00101254 0.000446221 0)
(0.00113868 0.000398711 0)
(0.00133261 0.000485984 0)
(0.00161372 0.000815909 0)
(0.00183418 0.00136398 0)
(0.00177758 0.00130002 0)
(0.00126578 0.0010536 0)
(0.000857825 0.000841258 0)
(0.000777407 0.0014412 0)
(0.00074344 0.0013416 0)
(0.00081549 0.00124612 0)
(0.000871088 0.00125241 0)
(0.000902407 0.00136398 0)
(0.000902881 0.00159032 0)
(0.000851493 0.00193106 0)
(0.000725337 0.00237029 0)
(0.000507934 0.00288275 0)
(0.000190739 0.00343993 0)
(-0.000227963 0.00401423 0)
(-0.00074492 0.00458093 0)
(-0.00135362 0.00511886 0)
(-0.00204554 0.0056103 0)
(-0.00281078 0.00604053 0)
(-0.00363841 0.00639735 0)
(1.00035e-06 -5.07531e-05 0)
(1.69678e-05 -0.000220987 0)
(5.51629e-05 -0.000447764 0)
(0.000115235 -0.000687838 0)
(0.000196634 -0.000918385 0)
(0.000299122 -0.00113124 0)
(0.000423072 -0.00132391 0)
(0.000569359 -0.00149473 0)
(0.000739094 -0.00164052 0)
(0.000933185 -0.00175542 0)
(0.00115173 -0.00183022 0)
(0.00139318 -0.00185211 0)
(0.00165322 -0.0018049 0)
(0.00192318 -0.00167012 0)
(0.00218807 -0.00142924 0)
(0.00242391 -0.00106809 0)
(0.00259467 -0.000584556 0)
(0.00264534 -1.22576e-07 0)
(0.00251974 0.000587876 0)
(0.00222075 0.00103379 0)
(0.00186205 0.00127562 0)
(0.00146939 0.00145352 0)
(0.0010513 0.00142831 0)
(0.000733774 0.00118989 0)
(0.000586258 0.000845919 0)
(0.000582189 0.000550068 0)
(0.000657764 0.000347921 0)
(0.000776089 0.000248269 0)
(0.000932705 0.000268199 0)
(0.00113023 0.000545885 0)
(0.00127672 0.00130791 0)
(0.00134777 0.00138225 0)
(0.00136553 0.00143547 0)
(0.00122094 0.000998503 0)
(0.00103013 0.00164042 0)
(0.00100629 0.00128202 0)
(0.00105955 0.00118918 0)
(0.00109614 0.00120959 0)
(0.00113944 0.00133521 0)
(0.00117459 0.00159769 0)
(0.00116231 0.00200325 0)
(0.00106801 0.00253015 0)
(0.000870177 0.00314407 0)
(0.000559253 0.00380793 0)
(0.000134758 0.00448757 0)
(-0.000398094 0.00515395 0)
(-0.00103098 0.00578333 0)
(-0.00175407 0.00635649 0)
(-0.00255679 0.00685766 0)
(-0.00342778 0.00727369 0)
(5.51438e-07 -5.81644e-05 0)
(1.27449e-05 -0.000246413 0)
(4.38497e-05 -0.000493353 0)
(9.40471e-05 -0.000753944 0)
(0.00016333 -0.00100494 0)
(0.000251936 -0.00123857 0)
(0.000360729 -0.00145293 0)
(0.000491149 -0.00164679 0)
(0.000645011 -0.0018171 0)
(0.000824146 -0.00195762 0)
(0.00102991 -0.00205807 0)
(0.00126248 -0.00210362 0)
(0.00151983 -0.00207473 0)
(0.00179625 -0.00194751 0)
(0.00208013 -0.00169537 0)
(0.00235069 -0.00129238 0)
(0.00257306 -0.000720129 0)
(0.00267786 2.91463e-05 0)
(0.00255791 0.000835339 0)
(0.00216206 0.00143439 0)
(0.00169066 0.00165704 0)
(0.00117842 0.00192788 0)
(0.000621148 0.00185906 0)
(0.00024747 0.00144865 0)
(0.000134345 0.000899822 0)
(0.00018588 0.000504427 0)
(0.00028859 0.000251718 0)
(0.000404237 0.000137152 0)
(0.000487995 0.0001509 0)
(0.000522014 0.000395286 0)
(0.000951161 0.000890992 0)
(0.0012721 0.00140152 0)
(0.0010281 0.00153557 0)
(0.000594165 0.00127072 0)
(0.000845678 0.00128396 0)
(0.00134468 0.0012682 0)
(0.00127877 0.00119778 0)
(0.00127886 0.00118192 0)
(0.00135132 0.00128152 0)
(0.00144277 0.00156465 0)
(0.00148483 0.00203685 0)
(0.00143138 0.00266212 0)
(0.00125737 0.00339141 0)
(0.000954024 0.00417535 0)
(0.000524013 0.00497159 0)
(-2.40759e-05 0.00574665 0)
(-0.000679503 0.00647478 0)
(-0.00143125 0.00713604 0)
(-0.00226845 0.00771415 0)
(-0.00318001 0.00819529 0)
(-4.14349e-08 -6.30726e-05 0)
(7.17387e-06 -0.000265334 0)
(2.89617e-05 -0.000529026 0)
(6.61411e-05 -0.000807216 0)
(0.000119274 -0.00107619 0)
(0.000188986 -0.00132856 0)
(0.000276469 -0.00156303 0)
(0.000383488 -0.0017789 0)
(0.000512246 -0.00197337 0)
(0.000665127 -0.00214012 0)
(0.000844354 -0.0022683 0)
(0.00105152 -0.00234172 0)
(0.00128692 -0.00233836 0)
(0.00154842 -0.0022301 0)
(0.00182975 -0.00198314 0)
(0.0021179 -0.0015597 0)
(0.00239121 -0.000923511 0)
(0.00258932 -1.42151e-05 0)
(0.00255588 0.00110124 0)
(0.00207286 0.00201237 0)
(0.00143668 0.00211017 0)
(0.000736305 0.00259885 0)
(7.10509e-06 0.00240058 0)
(-0.000331223 0.00167268 0)
(-0.000306596 0.000857452 0)
(-0.000152867 0.00040771 0)
(1.05306e-05 0.000119177 0)
(0.000187827 9.0367e-06 0)
(0.000341838 6.08981e-05 0)
(0.000476645 0.000287829 0)
(0.000540446 0.000539182 0)
(0.000639303 0.0013953 0)
(0.000794887 0.0016206 0)
(0.00070757 0.00154421 0)
(0.000626663 0.000795286 0)
(0.000841797 0.00110445 0)
(0.00109411 0.00109897 0)
(0.00128188 0.00106855 0)
(0.00148089 0.00114318 0)
(0.00167837 0.00145566 0)
(0.00180312 0.0020118 0)
(0.00180453 0.00275622 0)
(0.00165936 0.00362109 0)
(0.00136402 0.00454138 0)
(0.000928134 0.00546583 0)
(0.000365781 0.00635759 0)
(-0.000309255 0.00719059 0)
(-0.00108519 0.00794546 0)
(-0.00195183 0.00860635 0)
(-0.00289923 0.00915908 0)
(-7.63329e-07 -6.48149e-05 0)
(3.9831e-07 -0.000276037 0)
(1.08791e-05 -0.000552172 0)
(3.2217e-05 -0.000844169 0)
(6.55363e-05 -0.00112772 0)
(0.000111733 -0.00139569 0)
(0.000172107 -0.00164735 0)
(0.000248426 -0.00188246 0)
(0.000342827 -0.00209859 0)
(0.000457627 -0.0022895 0)
(0.000595113 -0.00244412 0)
(0.000757296 -0.00254566 0)
(0.000945659 -0.00257084 0)
(0.00116074 -0.00248922 0)
(0.0014012 -0.00226243 0)
(0.00166156 -0.00184359 0)
(0.0019327 -0.00118314 0)
(0.00219314 -0.000175125 0)
(0.00235765 0.0012278 0)
(0.00196728 0.00277211 0)
(0.00105231 0.00280213 0)
(-4.8099e-05 0.00358086 0)
(-0.000820591 0.00291182 0)
(-0.000872539 0.00169541 0)
(-0.000659892 0.000696022 0)
(-0.000411102 0.000195858 0)
(-0.00014397 -0.000100308 0)
(0.000109039 -0.000201383 0)
(0.0003261 -0.000104439 0)
(0.000486464 0.000154457 0)
(0.000599147 0.000549351 0)
(0.000787316 0.00118013 0)
(0.000952938 0.00153767 0)
(0.00104657 0.00156711 0)
(0.00104123 0.000861825 0)
(0.000990801 0.000913945 0)
(0.00109489 0.000888717 0)
(0.00129757 0.000836435 0)
(0.00159204 0.000884681 0)
(0.00190834 0.00124094 0)
(0.00212816 0.00191086 0)
(0.00218701 0.00280586 0)
(0.00206717 0.00383301 0)
(0.00177465 0.00490764 0)
(0.0013302 0.00597052 0)
(0.000755192 0.00698441 0)
(6.59529e-05 0.00792602 0)
(-0.000726423 0.0087787 0)
(-0.00161406 0.00952811 0)
(-0.00258972 0.0101599 0)
(-1.57952e-06 -6.28168e-05 0)
(-7.32547e-06 -0.000277083 0)
(-9.73828e-06 -0.000560575 0)
(-6.48463e-06 -0.000861813 0)
(4.0858e-06 -0.00115567 0)
(2.30209e-05 -0.00143509 0)
(5.15201e-05 -0.00169967 0)
(9.10265e-05 -0.00194954 0)
(0.000143128 -0.00218245 0)
(0.000209368 -0.00239223 0)
(0.000291054 -0.00256765 0)
(0.000389108 -0.0026917 0)
(0.000504152 -0.00274089 0)
(0.00063689 -0.00268459 0)
(0.000788834 -0.0024839 0)
(0.00096295 -0.00208841 0)
(0.00116372 -0.00143929 0)
(0.00140337 -0.000408859 0)
(0.00161997 0.00119922 0)
(0.0014372 0.00352788 0)
(0.000251461 0.00410916 0)
(-0.00111173 0.00462359 0)
(-0.00132956 0.00294294 0)
(-0.000901488 0.0014189 0)
(-0.00057437 0.00043814 0)
(-0.000321388 -8.81412e-05 0)
(-5.92459e-05 -0.000381473 0)
(0.000206648 -0.000463147 0)
(0.000425912 -0.00030517 0)
(0.000582657 6.51099e-06 0)
(0.000716155 0.000415869 0)
(0.000920028 0.000925774 0)
(0.00118735 0.00138589 0)
(0.0014039 0.00141524 0)
(0.00139136 0.00100364 0)
(0.00129678 0.000881058 0)
(0.00129102 0.000796322 0)
(0.00138514 0.000599656 0)
(0.00172094 0.000531443 0)
(0.00216059 0.000918163 0)
(0.00247187 0.00173652 0)
(0.00257276 0.00281908 0)
(0.00246235 0.00403655 0)
(0.00216085 0.00528043 0)
(0.00170409 0.00648647 0)
(0.0011209 0.00762239 0)
(0.000427964 0.00867239 0)
(-0.000367351 0.00962552 0)
(-0.00126243 0.0104696 0)
(-0.00225477 0.0111896 0)
(-2.46518e-06 -5.66719e-05 0)
(-1.56633e-05 -0.00026743 0)
(-3.19711e-05 -0.000552623 0)
(-4.82419e-05 -0.000857964 0)
(-6.23079e-05 -0.00115721 0)
(-7.30451e-05 -0.00144311 0)
(-7.94925e-05 -0.00171533 0)
(-8.0746e-05 -0.00197405 0)
(-7.61008e-05 -0.00221689 0)
(-6.53207e-05 -0.00243734 0)
(-4.89727e-05 -0.00262364 0)
(-2.87257e-05 -0.00275815 0)
(-7.40397e-06 -0.0028171 0)
(1.1453e-05 -0.00277047 0)
(2.50361e-05 -0.00258145 0)
(3.39695e-05 -0.00220204 0)
(4.69458e-05 -0.00157282 0)
(8.29799e-05 -0.000556924 0)
(0.000196581 0.00111739 0)
(0.000364619 0.00385774 0)
(-3.24201e-05 0.00533412 0)
(-0.000516458 0.00510939 0)
(-0.000399722 0.00267679 0)
(-0.000204697 0.00112897 0)
(-5.32526e-05 0.000194748 0)
(0.000115897 -0.000322988 0)
(0.000301244 -0.000620406 0)
(0.000477594 -0.000674439 0)
(0.000627121 -0.000468458 0)
(0.000754821 -0.000131071 0)
(0.000884835 0.000256459 0)
(0.00109139 0.000669051 0)
(0.00140569 0.00109223 0)
(0.00170475 0.00123812 0)
(0.00174269 0.0011512 0)
(0.00152846 0.000995694 0)
(0.00136245 0.000814624 0)
(0.0014161 0.000383213 0)
(0.00183381 5.35047e-05 0)
(0.00243327 0.000473194 0)
(0.00281851 0.00150578 0)
(0.00292675 0.00281851 0)
(0.00280108 0.00424781 0)
(0.00247809 0.0056678 0)
(0.00200992 0.00701154 0)
(0.0014314 0.00826081 0)
(0.000754978 0.00941407 0)
(-2.07627e-05 0.010469 0)
(-0.000902478 0.0114155 0)
(-0.00189483 0.0122363 0)
(-3.36766e-06 -4.61627e-05 0)
(-2.4198e-05 -0.000246522 0)
(-5.47415e-05 -0.000527472 0)
(-9.10221e-05 -0.000831488 0)
(-0.000130347 -0.0011309 0)
(-0.000171521 -0.00141792 0)
(-0.000213826 -0.001692 0)
(-0.000256898 -0.00195299 0)
(-0.000300912 -0.00219799 0)
(-0.000346951 -0.00241954 0)
(-0.000397545 -0.00260452 0)
(-0.000457272 -0.00273365 0)
(-0.000533339 -0.00278164 0)
(-0.000635627 -0.00271844 0)
(-0.000774742 -0.00251194 0)
(-0.000953566 -0.00212982 0)
(-0.00114769 -0.00154523 0)
(-0.00123327 -0.00069419 0)
(-0.000924974 0.000667781 0)
(-0.000231477 0.00361699 0)
(-0.000141203 0.00607577 0)
(-0.000333471 0.00509779 0)
(0.000121274 0.00224629 0)
(0.000490766 0.000921917 0)
(0.000489861 8.18935e-05 0)
(0.00047408 -0.00044565 0)
(0.000537647 -0.000759423 0)
(0.000650923 -0.000811342 0)
(0.000789594 -0.000600973 0)
(0.000923539 -0.000255457 0)
(0.00106226 8.86262e-05 0)
(0.0012724 0.000410811 0)
(0.00158292 0.000763316 0)
(0.00189261 0.00102569 0)
(0.00203524 0.00122861 0)
(0.00191213 0.00126294 0)
(0.00167197 0.000936583 0)
(0.00156641 0.000222732 0)
(0.00201027 -0.000622164 0)
(0.00275044 -9.43247e-05 0)
(0.00311922 0.00127978 0)
(0.00316964 0.00283871 0)
(0.0030104 0.00448733 0)
(0.00265979 0.00607699 0)
(0.00219314 0.00753499 0)
(0.00164858 0.0088773 0)
(0.00102449 0.010124 0)
(0.000303591 0.0112824 0)
(-0.000534623 0.0123434 0)
(-0.00150464 0.0132839 0)
(-4.25653e-06 -3.12933e-05 0)
(-3.25263e-05 -0.000214374 0)