/*--------------------------------*- C++ -*----------------------------------*\
| =========                 |                                                 |
| \\      /  F ield         | OpenFOAM: The Open Source CFD Toolbox           |
|  \\    /   O peration     | Version:  2.4.0                                 |
|   \\  /    A nd           | Web:      www.OpenFOAM.org                      |
|    \\/     M anipulation  |                                                 |
\*---------------------------------------------------------------------------*/
FoamFile
{
    version     2.0;
    format      ascii;
    class       volScalarField;
    location    "0.153";
    object      alpha.water;
}
// * * * * * * * * * * * * * * * * * * * * * * * * * * * * * * * * * * * * * //

dimensions      [0 0 0 0 0 0 0];

internalField   nonuniform List<scalar> 
57600
(
1
1
1
1
1
1
1
1
1
1
1
1
1
1
1
1
1
1
1
1
1
1
1
1
1
1
1
1
1
1
1
1
1
1
1
1
1
1
1
1
1
1
1
1
1
1
1
1
1
1
1
1
1
1
1
1
1
1
1
1
1
1
1
1
1
1
1
1
1
1
1
1
1
1
1
1
1
1
1
1
1
1
1
1
1
1
1
1
1
1
1
1
1
1
1
1
1
1
1
1
1
1
1
1
1
1
1
1
1
1
1
1
1
1
1
1
1
1
1
1
1
1
1
1
1
1
1
1
1
1
1
1
1
1
1
1
1
1
1
1
1
1
1
1
1
1
1
1
1
1
1
1
1
1
1
1
1
1
1
1
1
1
1
1
1
1
1
1
1
1
1
1
1
1
1
1
1
1
1
1
1
1
1
1
1
1
1
1
1
1
1
1
1
1
1
1
1
1
1
1
1
1
1
1
1
1
1
1
1
1
1
1
1
1
1
1
1
1
1
1
1
1
1
1
1
1
1
1
1
1
1
1
1
1
1
1
1
1
1
1
1
1
1
1
1
1
1
1
1
1
1
1
1
1
1
1
1
1
1
1
1
1
1
1
1
1
1
1
1
1
1
1
1
1
1
1
1
1
1
1
1
1
1
1
1
1
1
1
1
1
1
1
1
1
1
1
1
1
1
1
1
1
1
1
1
1
1
1
1
1
1
1
1
1
1
1
1
1
1
1
1
1
1
1
1
1
1
1
1
1
1
1
1
1
1
1
1
1
1
1
1
1
1
1
1
1
1
1
1
1
1
1
1
1
1
1
1
1
1
1
1
1
1
1
1
1
1
1
1
1
1
1
1
1
1
1
1
1
1
1
1
1
1
1
1
1
1
1
1
1
1
1
1
1
1
1
1
1
1
1
1
1
1
1
1
1
1
1
1
1
1
1
1
1
1
1
1
1
1
0.999989
1
1
1
1
1
1
1
1
1
1
1
1
1
1
1
1
1
1
1
1
1
1
1
1
1
1
1
1
1
1
1
1
1
1
1
1
1
1
1
1
1
1
1
1
1
1
1
1
1
1
1
1
1
1
1
1
1
1
1
1
1
1
1
1
1
1
1
1
0.999999
1
1
1
1
1
1
1
1
1
1
1
1
1
1
1
1
1
1
1
1
1
1
1
1
1
1
1
1
1
1
0.999999
1
1
1
1
1
1
1
1
1
1
1
1
1
1
1
1
1
1
1
1
1
1
1
1
1
1
1
1
1
0.999987
1
1
1
1
1
1
1
1
1
1
1
1
1
1
1
1
1
1
1
1
1
1
1
1
1
1
1
1
1
1
1
1
1
1
1
1
1
1
1
1
1
1
1
1
1
1
1
1
1
1
1
1
1
1
1
1
1
1
1
0.999987
0.999998
1
1
1
1
1
1
1
1
1
1
1
1
1
1
1
1
1
1
1
1
1
1
1
1
1
0.999994
1
0.331446
0.999996
0.999999
1
1
1
1
1
1
1
1
1
1
1
1
1
1
1
1
1
1
1
1
1
1
1
0.998777
1
1
0.999902
0.000442059
0.9965
1
1
1
1
0.999219
1
1
1
1
1
1
1
0.999999
1
0.999994
1
1
1
1
1
1
1
1
1
0.998593
1
1
7.21133e-05
2.72643e-05
1
1
0.999998
1
0.999911
0.999989
1
1
1
1
1
1
1
1
1
1
0.999999
1
1
1
1
1
1
1
0.99997
0.99839
1
4.29109e-05
9.22934e-07
4.30178e-09
0.394786
1
0.999999
1
0.999706
0.999999
1
1
1
1
1
0.999999
1
1
1
1
1
1
1
1
1
1
1
1
1
0.999997
0.19682
4.89563e-07
1.088e-09
2.38418e-09
0.0557485
1
1
1
0.999943
1
0.99999
1
1
0.999945
1
1
1
1
1
1
1
1
1
1
1
1
1
1
1
0.999999
7.10438e-06
1.28699e-09
1.10732e-09
1.76729e-09
0.000155709
0.999999
0.999994
1
0.999999
0.999868
1
1
0.9998
0.999992
1
1
1
0.999988
1
1
0.999999
0.999986
0.999772
0.8579
0.582957
1
1
1
1
0.117243
7.48238e-09
6.96244e-10
3.81877e-09
1.89306e-09
4.83461e-05
1
1
0.999991
1
0.999905
1
0.99998
0.999985
1
1
1
0.999999
0.999995
0.999809
0.686951
2.11611e-07
3.39192e-09
4.35812e-09
1.30679e-08
1.03358e-06
1
1
0.999993
0.999965
9.88714e-06
4.43396e-10
3.594e-10
1.08348e-09
5.04236e-09
7.48831e-06
1
0.999976
0.999965
0.999996
1
0.999881
0.999984
0.999926
1
0.999869
0.845432
0.175931
4.87549e-09
4.48178e-09
4.78591e-09
5.24998e-09
5.39165e-09
4.01791e-05
4.21301e-05
1.21039e-07
1
1
1
0.897477
8.08261e-08
1.71336e-10
4.50135e-10
2.59424e-05
2.46746e-07
1.96803e-07
1
1
0.999802
0.999984
0.999998
0.999998
0.999925
0.999999
0.173214
2.24231e-08
4.81046e-09
4.91977e-09
1.92552e-08
7.18759e-09
1.32801e-05
1.51414e-05
4.3468e-08
3.79216e-08
2.24373e-06
4.38596e-06
1
1
1
1
1
1
1
1
1
1
1
1
1
1
1
1
1
1
1
1
1
1
1
1
1
1
1
1
1
1
1
1
1
1
1
1
1
1
1
1
1
1
1
1
1
1
1
1
1
1
1
1
1
1
1
1
1
1
1
1
1
1
1
1
1
1
1
1
1
1
1
1
1
1
1
1
1
1
1
1
1
1
1
1
1
1
1
1
1
1
1
1
1
1
1
1
1
1
1
1
1
1
1
1
1
1
1
1
1
1
1
1
1
1
1
1
1
1
1
1
1
1
1
1
1
1
1
1
1
1
1
1
1
1
1
1
1
1
1
1
1
1
1
1
1
1
1
1
1
1
1
1
1
1
1
1
1
1
1
1
1
1
1
1
1
1
1
1
1
1
1
1
1
1
1
1
1
1
1
1
1
1
1
1
1
1
1
1
1
1
1
1
1
1
1
1
1
1
1
1
1
1
1
1
1
1
1
1
1
1
1
1
1
1
1
1
1
1
1
1
1
1
1
1
1
1
1
1
1
1
1
1
1
1
1
1
1
1
1
1
1
1
1
1
1
1
1
1
1
1
1
1
1
1
1
1
1
1
1
1
1
1
1
1
1
1
1
1
1
1
1
1
1
1
1
1
1
1
1
1
1
1
1
1
1
1
1
1
1
1
1
1
1
1
1
1
1
1
1
1
1
1
1
1
1
1
1
1
1
1
1
1
1
1
1
1
1
1
1
1
1
1
1
1
1
1
1
1
1
1
1
0.999522
0.999978
1
1
1
1
1
1
1
1
1
1
1
1
1
1
1
1
1
1
1
1
1
1
1
1
1
1
1
0.999943
0.999709
1
1
1
1
1
1
1
1
1
1
1
1
1
1
1
1
1
1
1
1
1
1
1
1
1
1
1
1
1
0.999978
1
1
1
1
1
1
1
1
1
1
1
1
1
1
1
1
1
1
1
1
1
1
1
1
1
1
1
1
0.999992
1
1
1
1
1
1
1
1
1
1
1
1
1
1
1
1
1
1
1
1
1
1
1
1
1
1
1
1
1
1
1
1
1
0.999999
1
1
1
1
1
1
1
1
1
1
1
1
1
1
1
1
1
1
1
1
1
1
1
1
1
1
1
1
1
1
1
1
1
1
1
1
1
1
1
1
1
1
1
1
1
1
1
1
1
1
1
1
1
1
1
1
1
1
0.998568
1
1
1
1
1
1
1
1
1
1
1
1
1
1
1
1
1
1
1
0.999997
1
1
1
1
1
1
1
1
1
0.977596
1
1
1
1
1
1
1
1
1
0.999998
1
1
1
1
1
1
1
1
0.999999
0.999998
1
1
1
1
1
1
1
1
1
1
1
1
1
1
1
1
1
1
1
0.999997
1
1
1
1
1
1
0.999999
1
1
0.999997
1
1
1
1
1
1
1
1
1
1
1
1
1
1
1
1
1
1
1
0.999997
1
1
1
1
1
1
0.999999
1
1
1
1
1
1
1
1
1
1
1
1
1
1
1
1
1
1
1
1
1
1
0.999999
1
1
1
1
1
1
1
0.125458
1
1
1
1
1
1
1
1
1
1
0.999999
0.999999
1
0.999987
0.998832
1
1
1
1
1
1
1
1
1
1
1
1
1
1
0.00499796
0.84367
1
1
1
1
1
1
1
1
1
1
1
0.999999
1
1
1
1
0.999997
0.999999
1
1
1
0.999978
1
1
1
1
1
1
3.97144e-06
1.47496e-05
0.999988
1
0.999963
1
1
1
1
1
1
1
0.999999
1
1
0.999997
0.999999
1
1
1
1
1
1
1
1
1
1
1
0.999999
1
-1.06442e-07
7.79412e-10
1.14329e-08
0.999979
0.998881
0.999897
1
1
1
1
1
1
1
1
0.999999
1
1
1
0.999991
0.999999
1
1
1
1
1
0.999992
1
1
1
0.955064
3.93297e-07
6.74426e-10
9.88093e-10
5.21879e-06
0.999999
1
0.999999
1
1
0.367313
0.315267
0.402134
0.698332
0.980113
0.999986
1
0.991249
1
1
1
0.999996
1
1
0.999954
1
0.999832
0.999845
0.999999
1
0.802847
9.55439e-07
4.84291e-10
8.77777e-10
1.45998e-08
0.0176784
0.999998
1
1
1
2.36164e-05
2.0175e-06
1.28861e-05
8.70427e-07
2.01908e-07
2.80561e-07
0.00365632
0.936037
0.999994
1
1
0.999996
1
0.999996
1
0.999976
1
0.999923
1
0.999999
0.517821
0.00168914
5.18139e-10
5.00332e-10
6.54729e-10
3.62974e-06
0.999995
0.999999
1
1
6.31847e-08
5.53035e-08
7.51053e-08
9.60679e-07
3.13472e-07
7.91623e-06
5.07203e-05
1.14761e-08
1.13983e-08
0.967211
0.999999
1
0.999995
0.999991
1
1
1
1
0.999998
1
0.162484
0.000983433
2.16341e-06
2.83181e-10
4.07582e-10
-5.05422e-10
0.933726
1
1
1
5.85513e-05
5.76234e-05
1.82612e-05
2.29585e-05
3.99582e-06
1.59564e-08
1.06215e-08
1.09287e-08
1.38175e-05
4.19629e-09
0.041922
0.999905
1
0.999997
0.999979
1
0.999476
0.999571
0.999786
0.999995
0.0160924
-1.24974e-07
8.18705e-07
1.3905e-10
1.13452e-10
3.81037e-10
0.0255608
0.999996
1
1
1
1
1
0.000175051
7.55263e-07
4.20382e-11
1.15015e-09
6.69593e-05
7.5105e-05
-4.46216e-06
1
0.999998
0.999999
0.999403
0.999908
0.999966
0.999883
0.00489303
-2.6779e-07
2.95075e-08
5.49359e-09
9.97578e-09
0.000431814
1.19888e-08
9.97132e-05
3.52123e-07
6.62572e-06
1.48815e-07
3.71079e-06
1.45709e-06
0.999999
1
0.653675
1.54934e-08
1.44086e-10
6.22066e-11
8.86449e-08
6.69526e-05
7.89103e-05
0.000376074
1
0.999992
0.999883
0.999986
0.9987
0.998773
0.984111
6.88843e-06
8.25235e-07
0.000288787
8.27746e-08
1.04973e-08
0.000435372
2.29268e-08
9.7831e-05
1.19269e-07
9.67817e-09
8.58818e-09
8.59259e-09
8.64691e-09
1
0.999936
4.68191e-05
4.89091e-10
3.70952e-10
1.14841e-10
8.98239e-07
7.39053e-05
5.27931e-05
0.00123683
0.967833
1
1
0.999995
0.99934
0.99999
5.2888e-05
1.2154e-06
2.12191e-06
0.000290612
1.09037e-07
1.91189e-07
0.00043468
2.04099e-08
1.03947e-08
9.05053e-09
8.47823e-09
8.81427e-09
9.47563e-09
1.03426e-08
0.999979
0.999972
-2.45983e-06
3.86705e-10
7.63293e-11
2.21131e-10
3.25256e-06
6.99688e-07
1.28149e-05
9.43996e-05
0.916974
0.99999
1
0.999515
0.999986
0.203451
1.7767e-06
1.25745e-06
9.82771e-05
0.000109112
1.41811e-05
1.66682e-08
0.000113797
1.00433e-08
9.41502e-09
8.80985e-09
9.7975e-09
1.03612e-08
1.11301e-08
1.02418e-08
1
0.913791
2.94671e-08
2.76199e-10
9.77251e-12
2.09289e-10
3.06012e-06
7.54176e-05
5.21141e-07
0.000781148
0.828555
1
0.999844
0.999811
0.918689
4.66276e-06
6.94963e-07
4.02681e-05
1.3044e-05
2.46897e-05
1.32684e-05
9.47337e-08
1.13564e-08
1.41212e-07
9.42262e-09
1.31114e-08
9.26096e-09
1.96989e-06
1.23122e-05
1.49083e-07
0.999988
0.692941
3.72114e-10
6.03509e-11
1.16882e-12
2.60767e-10
8.20874e-08
5.75157e-05
1.39761e-05
0.000152098
0.452544
0.999978
0.999281
0.999945
0.000118177
3.87787e-07
3.3358e-07
5.39053e-05
8.55884e-06
1.6663e-05
8.51281e-08
2.34133e-08
7.66694e-09
8.88548e-09
8.3627e-09
9.7446e-06
8.05876e-09
8.43526e-09
8.41819e-09
8.47358e-09
0.00272734
0.0715566
1.50748e-10
8.21735e-12
7.85928e-13
1.74338e-10
7.81829e-07
5.14201e-06
9.82885e-06
0.000150647
0.000765046
1
0.999998
0.270151
4.51368e-07
3.42583e-07
5.28741e-07
5.24233e-05
0.000158841
1.17266e-07
2.73708e-05
2.08535e-08
1.01192e-07
8.47662e-09
1.50727e-08
3.47955e-05
7.52848e-09
8.36434e-09
9.19218e-09
1.08135e-08
0.000149532
2.75493e-06
3.44192e-08
1.15983e-12
4.18369e-13
9.66942e-11
4.67259e-09
4.16995e-05
9.86099e-06
3.93807e-05
0.00101747
0.954463
0.999995
0.000687938
6.74271e-05
8.83701e-06
3.18377e-07
0.000227187
1.2935e-05
8.57199e-08
6.58786e-08
1.34698e-07
1.71277e-06
7.50887e-09
1.62192e-08
8.04531e-09
7.20809e-09
8.46929e-09
1.0895e-08
2.10992e-05
1.00824e-06
1.63109e-05
3.16059e-11
2.91493e-13
2.15841e-13
4.76526e-11
9.79645e-10
5.44585e-07
1.82685e-06
2.71365e-05
0.00354615
0.0689823
0.192771
4.60601e-06
0.000534386
0.000640135
3.20416e-07
1.48937e-05
3.97537e-07
0.000101938
6.44047e-07
1.48769e-07
3.83202e-08
6.57892e-09
7.17949e-09
6.68471e-09
6.5314e-09
6.55697e-09
2.04153e-07
8.01092e-07
1.91229e-12
2.55384e-10
5.53938e-12
7.1181e-14
1.12872e-13
3.30052e-11
2.98465e-07
6.48423e-06
4.36383e-05
0.00086702
0.000521337
4.50757e-06
1.91326e-06
2.70557e-06
1.79882e-05
1.14592e-05
5.35615e-07
1.87204e-06
2.18133e-07
0.000375591
7.42742e-06
1.3347e-06
3.18945e-06
1.55538e-07
6.6953e-09
1.23337e-05
3.30119e-05
3.78813e-06
6.42936e-09
0.00973342
9.76134e-13
3.86088e-11
1.39674e-12
1.43251e-14
6.26314e-14
2.9156e-11
2.06492e-08
2.08317e-05
3.05193e-05
2.21403e-05
0.000820275
5.20962e-06
0.000145388
0.000573254
2.3121e-07
2.92714e-06
6.82385e-06
6.20124e-05
1.39875e-07
0.000437594
1.88879e-07
1.25291e-07
7.03109e-06
2.94002e-08
2.20555e-07
7.43772e-09
1.89378e-08
7.26753e-09
3.68635e-07
7.30864e-09
6.56378e-13
2.22933e-07
3.30386e-13
2.36606e-15
4.87619e-14
3.2953e-11
6.82449e-10
1.12016e-05
3.608e-06
3.47953e-05
0.000766757
1.89919e-06
0.000117926
2.59346e-08
4.96377e-07
1.21926e-07
4.01698e-05
0.000250489
1.82238e-06
1.1097e-07
1.50297e-07
1.15097e-07
4.08956e-07
7.83131e-06
3.64907e-08
1.22296e-06
5.93345e-09
5.68427e-09
5.86354e-08
6.62977e-09
1.66379e-13
3.55412e-08
7.44535e-14
3.58724e-16
2.46444e-14
2.66119e-11
1.97549e-09
2.77551e-05
5.75343e-08
0.000439746
0.000892638
0.000267217
0.000589221
2.62687e-08
7.67514e-08
6.04739e-08
2.49751e-08
0.000305613
1.63097e-05
9.50847e-07
1.04123e-07
1.03279e-07
0.00026205
9.38504e-06
5.64375e-06
8.96008e-08
1.36115e-07
1.24156e-06
3.67022e-09
1.91165e-07
6.88713e-14
2.22471e-16
1.10319e-14
5.61093e-17
1.32381e-14
6.47927e-12
1.87071e-10
4.31662e-05
1.37064e-07
1.769e-05
5.15699e-05
0.000318831
0.000132439
1.69578e-05
2.69891e-08
3.60559e-06
2.64143e-08
6.33554e-05
1.67253e-08
7.16394e-06
2.86831e-07
5.78118e-07
1.19701e-07
0.000272555
9.40968e-08
8.42778e-08
1.36361e-05
1.32089e-05
3.78902e-09
2.20813e-09
4.14801e-14
5.60395e-17
9.82797e-16
1.38227e-17
1.86539e-14
8.07256e-12
4.17238e-10
4.25124e-05
1.44259e-05
0.000178254
1.21103e-06
0.00036601
0.00742382
8.74799e-07
2.73594e-09
8.00842e-05
9.6141e-08
3.8475e-06
3.74816e-09
1.0339e-08
1.56382e-06
1.19574e-07
1.2048e-07
0.000276063
3.60693e-08
7.95965e-08
3.54035e-08
1.01375e-07
6.72674e-09
0.000179164
3.71272e-14
4.93917e-17
6.52926e-17
1.21831e-17
3.01183e-14
1.18577e-11
5.79115e-10
1.62047e-09
7.19636e-08
6.52471e-05
5.84279e-08
4.91746e-06
0.00541448
7.1287e-06
2.36029e-09
7.36356e-05
1.22096e-08
2.64812e-09
3.73129e-09
2.9016e-09
2.90944e-05
1.17326e-07
0.000276675
6.0963e-05
5.70417e-09
2.83852e-09
1.90122e-07
8.74901e-06
4.68833e-07
0.000184578
3.45767e-14
2.69582e-17
2.90842e-18
1.70373e-17
4.9883e-14
1.76114e-11
5.52195e-10
8.13511e-06
1.27089e-06
7.73268e-09
2.84799e-07
4.20982e-08
0.000570557
3.51058e-07
2.11516e-09
1.50348e-09
4.0345e-05
5.0767e-09
2.28284e-09
2.6205e-09
3.95372e-09
2.8864e-09
4.93741e-08
3.29435e-09
2.56872e-09
2.22996e-09
1.86336e-09
9.94147e-06
2.47722e-08
4.3238e-09
1.83964e-14
8.25674e-12
6.30404e-20
2.1815e-17
7.92753e-14
2.79115e-11
6.77126e-10
9.24569e-10
2.0124e-09
3.04138e-07
6.99058e-10
6.92278e-10
3.9766e-08
2.26023e-08
1.8568e-09
1.93807e-09
1.88664e-06
9.98732e-10
0.000133369
7.95442e-09
1.35786e-08
2.99556e-08
2.47286e-09
2.01501e-09
1.81161e-09
1.74469e-09
1.75193e-09
2.20253e-09
8.9633e-07
3.20633e-09
6.05073e-12
7.00119e-12
1.02073e-21
2.1368e-17
1.07702e-13
4.7133e-11
6.29105e-10
1.36125e-07
9.28287e-09
4.3344e-10
4.64692e-10
1.33919e-05
1.98582e-06
8.16898e-10
7.41915e-10
5.3198e-10
3.44225e-08
9.90917e-10
0.000133667
1.16748e-07
2.3354e-09
2.00067e-09
1.69937e-09
1.48436e-09
1.37078e-09
1.34155e-09
1.37669e-09
1.52221e-09
1.84114e-09
2.28061e-09
4.20034e-12
4.83731e-10
1.43801e-22
1.37021e-17
9.70508e-14
9.35881e-11
4.86117e-09
4.32341e-06
5.39532e-10
4.77457e-10
1.74232e-05
1.78627e-07
7.34356e-08
2.08681e-07
2.05381e-05
1.86063e-09
7.7669e-10
2.48294e-08
1.77375e-09
1.8435e-09
1.85928e-09
1.48823e-09
1.19913e-09
1.01352e-09
9.21118e-10
9.05144e-10
9.43235e-10
1.00643e-09
1.09619e-09
1.18546e-09
1.84934e-17
2.0095e-14
6.17915e-23
8.18275e-18
4.62089e-14
2.03706e-11
2.5317e-10
4.40796e-06
1.10475e-09
1.2446e-06
2.61172e-06
1.52631e-09
1.49253e-09
3.67242e-07
3.91547e-08
1.97085e-05
1.46962e-09
7.40894e-10
7.00124e-10
8.67015e-10
1.08607e-09
1.15896e-09
1.06826e-09
9.0778e-10
7.68841e-10
6.99569e-10
7.09696e-10
7.85559e-10
8.92168e-10
9.73055e-10
2.97783e-29
3.63538e-18
3.50562e-23
8.00863e-18
6.13631e-14
3.38125e-11
1.05417e-09
1.52246e-08
1.11295e-09
8.29096e-07
1.64794e-09
1.58544e-09
1.78684e-09
1.6531e-09
8.1563e-06
3.37975e-06
1.64543e-05
1.02753e-09
5.91762e-10
3.24574e-10
2.87269e-10
3.79933e-10
5.10776e-10
5.99188e-10
6.21906e-10
6.0936e-10
6.12028e-10
6.78309e-10
8.09001e-10
9.91534e-10
7.54907e-36
2.23726e-23
1.60966e-23
7.24044e-18
8.41871e-14
4.17968e-11
2.62673e-08
1.65796e-09
4.4392e-08
3.31227e-06
3.45936e-08
3.39702e-05
7.7678e-08
1.8449e-09
1.72747e-05
3.40515e-06
1.64686e-05
1.04412e-09
5.25677e-10
3.51105e-10
2.85091e-10
2.45022e-10
2.35378e-10
2.70631e-10
3.74492e-10
6.74467e-10
7.71549e-10
6.45211e-10
6.39138e-10
6.6273e-10
2.72417e-41
3.24802e-30
2.51483e-24
2.20948e-18
4.70767e-14
3.9438e-11
4.35499e-10
1.12987e-05
8.54009e-09
6.36962e-09
5.09283e-05
3.93983e-08
0.000676066
8.72056e-09
1.0954e-09
1.54525e-09
4.12839e-10
1.41934e-05
8.5256e-09
8.38494e-06
8.3848e-06
2.8479e-09
6.16283e-10
3.24192e-10
5.64418e-10
8.4896e-10
8.04017e-10
7.50399e-09
1.20178e-09
1.3921e-09
2.00756e-46
5.02671e-39
1.72892e-25
2.43913e-19
7.66812e-15
1.12173e-11
2.71054e-10
7.867e-06
3.17425e-09
0.000101279
2.2442e-09
2.2828e-07
1.33741e-09
1.27261e-09
6.84568e-10
5.30574e-05
0.000238012
5.06884e-06
7.55113e-05
7.22036e-08
1.43807e-06
2.82241e-06
4.10243e-05
5.74924e-06
9.4525e-10
6.73272e-10
1.47658e-06
2.87795e-09
1.77571e-09
1.35119e-09
8.22585e-52
2.17474e-46
9.34814e-27
3.11763e-20
2.12932e-15
5.41614e-12
3.23027e-10
1.53042e-05
4.68194e-09
1.78388e-05
4.32322e-09
5.64645e-06
5.07649e-06
1.80479e-09
6.87828e-06
0.000129645
2.16258e-08
5.77528e-06
8.9341e-06
1.24084e-07
1.5843e-06
4.99145e-06
4.33633e-08
6.62792e-06
5.14182e-05
7.35298e-07
5.40873e-09
3.35388e-09
1.48508e-09
1.40234e-07
1.49436e-57
1.29946e-51
3.25589e-29
2.64635e-22
7.28031e-17
7.46034e-13
1.86105e-10
3.56024e-07
4.82481e-06
1.75118e-07
1.44429e-09
4.09915e-10
4.32763e-10
5.29407e-09
9.03167e-06
2.89164e-05
1.53952e-05
7.06319e-07
8.12959e-06
1.06926e-08
7.2275e-08
5.67157e-09
1.03361e-06
2.55915e-07
4.56459e-07
1.43581e-05
1.41889e-06
2.1817e-09
8.93548e-05
0.000236147
1.55328e-63
4.17171e-57
2.1427e-32
6.59068e-25
5.1628e-19
1.5397e-14
2.11984e-11
5.23821e-10
6.04189e-05
5.39181e-05
1.29828e-06
5.53738e-11
7.12097e-10
8.01364e-10
6.02924e-07
3.0573e-06
1.14849e-07
4.97046e-06
7.21219e-09
1.67775e-07
2.18712e-06
1.49915e-06
1.5666e-07
1.45104e-07
7.32782e-06
8.50843e-07
7.83482e-07
7.85815e-07
1.10567e-05
4.55775e-07
1.73903e-69
1.51826e-62
1.6029e-36
7.67788e-28
6.90276e-21
1.66191e-15
1.02927e-11
2.6039e-10
2.0874e-05
9.83288e-07
8.94736e-05
1.36144e-09
1.06957e-11
1.06429e-10
6.28849e-10
6.55202e-05
3.42362e-06
1.55365e-06
5.36674e-07
9.98416e-09
2.21219e-08
1.07096e-08
1.69442e-05
4.98184e-09
7.19737e-05
1.26808e-05
0.000476768
1.01745e-07
0.000279201
2.09392e-07
4.57636e-75
1.11269e-67
1.26198e-43
1.98039e-32
9.85507e-24
5.29286e-17
2.90489e-12
1.72e-10
6.4838e-06
5.2537e-07
2.31555e-06
1.29202e-11
5.59702e-15
1.37305e-14
4.31387e-13
1.32541e-11
1.37362e-11
2.67848e-05
1.69579e-06
2.47729e-06
5.70299e-06
0.00011437
1.54836e-08
1.02033e-05
9.80531e-08
2.47859e-06
4.22067e-08
4.6202e-09
4.96338e-09
3.20155e-06
5.95264e-07
5.02586e-08
2.6683e-08
4.1115e-05
5.25045e-05
7.26218e-09
3.00686e-08
1.45076e-08
4.83947e-07
3.18242e-09
9.3807e-09
0.00010106
0.999994
1
1
0.998942
0.999956
0.999759
1
1
0.0253991
-2.1786e-09
2.44844e-06
1.64775e-10
1.06803e-11
2.13698e-10
6.85817e-06
1
1
1
8.82799e-09
6.02945e-07
2.97967e-08
2.89657e-08
3.36061e-08
7.45691e-09
6.91308e-09
1.49035e-08
1.68003e-06
3.91576e-09
7.59287e-06
2.55771e-06
0.0309035
0.999997
0.999957
0.998942
0.997657
0.996728
0.999942
1
9.56446e-05
-1.92185e-11
3.9529e-07
2.32262e-10
5.18439e-12
1.1358e-10
1.85311e-08
0.94547
1
1
1.14336e-08
1.05747e-07
5.19396e-07
5.15797e-07
3.13302e-08
1.27757e-06
7.07449e-09
9.52652e-09
2.04626e-06
5.11178e-09
7.41302e-09
6.89384e-07
-5.90698e-06
0.993138
0.999154
1
0.997489
0.998251
0.999753
0.996751
1.66978e-06
2.85755e-09
2.46627e-05
9.51647e-10
8.23822e-12
4.00546e-11
3.53161e-10
0.0174215
1
1
5.87695e-08
4.25931e-08
8.91138e-09
9.02695e-09
2.7705e-07
2.87513e-08
7.14277e-09
9.29046e-09
1.60306e-07
1.09913e-07
9.56051e-06
1.63311e-06
1.38108e-07
3.25825e-07
0.999981
1
1
0.99709
1
1
1.57368e-06
2.21481e-07
1.88268e-06
4.61134e-10
1.19521e-11
6.5766e-12
2.89762e-10
-1.08372e-06
0.999997
0.999989
8.30077e-09
8.47874e-09
3.53632e-08
8.92701e-09
9.71515e-09
4.59103e-06
5.50891e-09
8.65118e-09
1.23574e-06
4.13521e-09
2.49691e-08
2.09137e-06
3.10139e-07
4.7326e-05
4.23815e-05
0.971777
1
0.999887
0.999861
0.990121
0.000185405
3.97245e-05
5.61893e-07
8.57439e-10
1.56196e-11
3.23209e-13
1.8439e-10
-1.53666e-09
0.273977
0.999999
1.06499e-08
8.79594e-09
8.83432e-09
9.42753e-09
1.10819e-08
0.000790688
4.92786e-09
9.21253e-09
1.43824e-08
4.08713e-09
9.88209e-09
5.42022e-06
1.25699e-06
0.000311583
6.30746e-06
2.32272e-06
0.0125409
0.983636
0.999887
0.679389
0.000243098
1.4194e-06
3.11375e-05
1.29952e-09
2.18252e-11
7.72282e-14
3.55132e-11
2.77529e-10
6.71492e-06
0.999999
9.89496e-09
8.86604e-09
5.32582e-08
3.06911e-07
2.11719e-08
5.41225e-09
5.47799e-09
1.24908e-06
2.79706e-08
7.09488e-09
3.77983e-06
1.04907e-05
0.000315322
0.000276011
9.67502e-06
1.68626e-06
0.000123077
0.0133171
0.998684
0.105426
3.10058e-05
1.06085e-05
4.52234e-07
1.52535e-08
7.29538e-12
4.30854e-14
3.70842e-12
6.75208e-11
1.46189e-08
0.997114
9.09504e-06
1.11033e-08
8.67341e-09
0.000157792
8.49794e-09
6.84607e-07
3.22485e-08
2.53808e-08
4.05718e-05
2.25633e-08
1.00317e-08
8.58646e-09
5.51546e-05
6.23451e-05
2.38219e-06
0.000529675
3.49041e-07
3.47451e-07
0.48069
2.31024e-06
0.00015783
4.65593e-05
4.25673e-06
4.57788e-10
1.07485e-12
2.18713e-14
6.13955e-13
9.69236e-12
1.85182e-07
9.39902e-07
4.50604e-06
8.07597e-09
7.60193e-09
5.01629e-08
4.217e-05
9.05718e-07
2.89459e-08
3.24381e-05
2.40669e-06
6.51498e-09
5.93599e-09
9.8228e-06
2.20237e-05
1.85478e-06
2.40854e-06
0.00137105
2.35696e-07
3.20783e-05
1.48104e-06
2.28659e-06
1.102e-05
2.51962e-06
2.57254e-06
2.03407e-10
5.32731e-13
9.65218e-15
1.52348e-13
2.32347e-12
9.38875e-07
4.8085e-07
0.00967458
5.45519e-08
7.30304e-09
3.08382e-05
1.08151e-07
1.76121e-07
1.12646e-05
3.6903e-05
8.07255e-07
3.26607e-07
3.96325e-05
0.000208238
7.95362e-07
1.48318e-07
1.22279e-05
0.000471502
1.95278e-07
1.9293e-07
5.48141e-06
3.12198e-05
0.000306457
2.476e-06
9.53539e-07
1.75371e-10
1.70987e-13
3.69637e-15
3.08865e-14
5.91403e-13
7.58714e-11
3.88357e-05
7.0471e-09
8.74498e-09
7.47246e-09
2.90551e-05
9.16946e-05
4.81285e-05
3.68514e-05
2.24068e-06
1.90024e-08
4.25947e-08
1.00901e-06
0.000128188
2.37677e-05
5.8452e-06
6.64234e-05
1.54072e-06
1.919e-07
1.94542e-07
2.07528e-06
6.4594e-06
0.00110103
1.9427e-05
3.63816e-06
2.87032e-11
5.10289e-14
1.22317e-15
5.1949e-15
1.55608e-13
8.38686e-10
1.86693e-08
3.67525e-07
1.03092e-08
1.39429e-08
1.24493e-05
9.17176e-05
4.79745e-05
7.53813e-07
0.00234154
1.8692e-08
2.30136e-08
1.45223e-05
2.90612e-07
8.01417e-07
1.03808e-06
4.27769e-05
4.30145e-06
1.55567e-06
5.3876e-05
1.37893e-05
0.000100032
3.09931e-05
2.59492e-05
3.73136e-09
4.03926e-11
2.77795e-14
3.46288e-16
8.17226e-16
4.27243e-14
1.24665e-11
3.16851e-07
5.02763e-09
4.28976e-08
5.53067e-07
1.82529e-08
2.07086e-08
1.83065e-07
1.15606e-07
0.00233609
1.87026e-08
3.08815e-08
2.4034e-08
1.75754e-05
9.75364e-07
1.19626e-08
1.54844e-06
0.00089907
5.73259e-06
1.22062e-05
0.00058856
5.33621e-05
0.000479301
6.58275e-05
3.56526e-06
1.48206e-11
1.96082e-14
8.31497e-17
1.29748e-16
1.05603e-14
2.07247e-10
6.25119e-06
3.31514e-09
3.15794e-09
1.12168e-08
2.74577e-06
5.03096e-07
4.28512e-05
2.81068e-07
1.89604e-08
1.88906e-08
4.32079e-05
9.66983e-06
4.26717e-08
9.54457e-07
1.34766e-08
1.6977e-08
0.00089991
1.54828e-07
2.46314e-05
0.00319955
2.84898e-05
0.000420302
1.25641e-06
3.1122e-10
1.26565e-11
1.14746e-14
1.77737e-17
1.88501e-17
2.06117e-15
7.46129e-11
1.54259e-10
1.75255e-09
0.000402141
1.90732e-08
1.53393e-06
1.73266e-06
2.71611e-05
1.23786e-06
4.34942e-06
2.15613e-08
3.80502e-06
3.8677e-08
3.15522e-06
1.25428e-08
3.87577e-06
4.93224e-05
7.92496e-05
8.38101e-05
0.000117584
0.00323863
7.41971e-06
3.53823e-05
4.15004e-05
3.94518e-10
7.32313e-12
7.18045e-15
4.72839e-18
2.11607e-18
2.91373e-16
3.59711e-12
8.46267e-13
4.53738e-07
1.45065e-07
2.70657e-09
1.62536e-08
1.49362e-06
7.33753e-05
9.75489e-06
8.27594e-08
5.34923e-06
2.10351e-08
5.60699e-08
1.10351e-08
5.91662e-06
8.24571e-05
4.86433e-06
4.24088e-06
3.6316e-06
9.8575e-05
5.41264e-05
0.000286411
2.81199e-06
3.89541e-05
6.87293e-10
3.12506e-12
6.51107e-15
2.63346e-18
1.56355e-19
2.73123e-17
3.35895e-13
6.4391e-12
9.1496e-07
0.000241275
8.1657e-05
0.00630199
0.00691777
2.47309e-07
2.35323e-06
1.07162e-06
1.05669e-08
1.86224e-05
1.62813e-05
1.05344e-08
1.709e-07
4.41629e-05
5.2046e-05
0.00733221
3.70154e-06
0.000258524
2.93731e-05
0.000180986
2.66905e-09
4.75897e-09
2.79074e-10
2.47696e-12
6.1119e-15
2.27092e-18
6.6384e-21
1.50447e-18
5.23403e-14
2.622e-12
5.94213e-08
7.31708e-09
8.4326e-06
3.80985e-08
5.48325e-08
9.09044e-08
1.05215e-08
1.05562e-08
1.04417e-08
6.31087e-08
1.04738e-08
1.04692e-08
1.11194e-08
1.82255e-05
1.40681e-08
0.00730668
5.42638e-07
0.00048918
0.00202139
1.17329e-05
6.18707e-05
3.25823e-09
1.3036e-10
2.41697e-12
5.40589e-15
2.08124e-18
2.36785e-22
4.13083e-20
2.59172e-15
2.66219e-13
6.05755e-07
2.81198e-08
1.45478e-06
1.26737e-06
6.6374e-08
9.35915e-08
0.00019394
1.03217e-08
1.34782e-08
1.04358e-08
1.05676e-08
1.68193e-08
1.04418e-08
1.07353e-08
1.10081e-08
6.64355e-07
5.01048e-05
1.83358e-05
0.00110685
8.06438e-06
0.000703403
8.80126e-10
2.25546e-10
2.02019e-12
4.37448e-15
1.9467e-18
9.9936e-23
4.53228e-22
2.02811e-17
3.64603e-15
1.37921e-09
8.91911e-07
5.28527e-08
1.45789e-06
3.86164e-06
2.5911e-07
0.000194247
1.27491e-05
1.03235e-08
1.09256e-08
8.75021e-07
1.16638e-08
5.45225e-06
4.26885e-08
1.17528e-06
0.000218543
4.9976e-06
4.73492e-05
0.000873109
0.00270251
3.43139e-08
5.35187e-10
1.7255e-10
1.24702e-12
3.94084e-15
2.05316e-18
9.79931e-23
1.47911e-24
1.19527e-20
2.82719e-18
1.07515e-09
1.52244e-09
7.92074e-07
9.39235e-07
5.62387e-08
3.85632e-06
2.24383e-08
3.82361e-06
6.70136e-08
1.05318e-08
1.19454e-06
3.48095e-06
2.9597e-08
3.82242e-07
6.52521e-08
2.83305e-08
0.000253332
8.69799e-06
3.95622e-07
0.00270147
7.88526e-09
2.2248e-09
9.1098e-11
1.07742e-12
4.8482e-15
2.57326e-18
1.03484e-22
1.31157e-27
3.71714e-25
8.9809e-23
1.43261e-09
1.25599e-09
1.73509e-07
5.2121e-09
7.1621e-07
2.3317e-08
1.2291e-06
2.13172e-08
1.79688e-08
2.66813e-07
4.0133e-07
1.69859e-08
1.48212e-07
5.81267e-05
7.18334e-05
2.87271e-08
6.22768e-08
1.45553e-05
4.77014e-06
1.10317e-06
6.03505e-09
1.76776e-08
8.88194e-11
1.79543e-12
8.18912e-15
3.73148e-18
1.12863e-22
8.25765e-29
9.28846e-30
5.04138e-29
7.5685e-10
2.92535e-08
1.94979e-09
2.42752e-09
6.669e-09
1.17224e-07
7.88949e-06
3.13313e-06
2.94568e-07
1.12385e-08
1.14519e-08
1.70604e-08
2.31299e-05
1.95297e-07
5.1562e-08
1.87525e-07
2.92879e-09
3.92523e-07
5.19027e-05
5.69918e-06
2.58659e-09
6.82661e-10
5.77913e-10
4.76103e-12
1.75535e-14
6.04871e-18
1.24481e-22
4.86881e-29
3.86389e-34
1.33375e-35
9.46983e-10
3.25557e-09
1.71016e-06
2.09746e-09
1.53099e-09
0.000400857
3.62456e-07
1.59743e-07
0.000631597
1.63979e-08
1.01433e-06
2.19314e-06
0.0001204
1.108e-08
0.0001917
7.78549e-09
4.52413e-09
4.394e-06
5.51609e-07
7.8703e-06
6.82287e-08
1.12139e-09
4.72565e-09
1.43044e-11
4.5224e-14
1.09322e-17
1.38415e-22
2.68769e-29
4.2061e-39
3.67324e-41
3.58208e-07
3.81125e-09
2.4305e-06
5.99123e-09
4.12949e-08
1.18825e-07
3.81996e-08
1.68861e-07
0.000152025
7.39224e-07
1.3075e-07
6.03857e-07
1.22043e-08
2.31835e-08
1.12043e-08
0.000192045
2.33337e-08
2.66053e-07
1.02122e-08
1.32954e-05
1.71083e-09
1.24198e-06
3.0076e-10
4.34557e-11
1.28796e-13
1.97403e-17
1.36112e-22
1.21156e-29
4.31709e-44
1.06269e-46
4.20786e-07
4.03942e-07
1.06497e-06
6.45452e-09
1.53686e-05
6.16556e-08
1.60045e-09
1.26083e-09
0.000225294
1.36298e-07
6.46673e-07
5.19019e-07
1.11233e-08
1.09104e-08
1.11834e-08
0.000191503
1.24818e-07
5.53461e-06
1.30574e-06
9.52058e-08
1.9763e-06
1.34794e-05
9.5493e-05
1.17497e-10
3.13062e-13
2.6278e-17
8.26901e-23
3.00286e-30
3.12352e-49
2.23404e-52
0.000170121
7.83115e-09
6.79694e-09
5.42026e-09
5.99415e-09
4.40464e-05
0.000252167
1.32182e-07
5.7167e-07
1.47458e-08
5.54823e-05
1.38735e-07
1.1683e-08
2.3694e-05
1.51968e-06
1.0161e-08
7.88325e-05
2.00786e-07
4.1963e-06
0.00156728
3.97403e-08
1.30312e-07
9.54842e-05
8.16424e-11
5.94552e-13
1.87968e-17
1.87552e-23
2.07925e-31
1.69332e-54
2.8918e-58
6.46141e-07
0.000103149
0.000223854
1.43362e-08
5.82101e-09
3.20832e-05
3.54496e-07
5.13976e-06
3.77874e-08
4.86275e-08
1.21617e-08
0.000270647
1.05381e-07
3.08904e-06
1.01322e-08
1.01227e-08
9.35899e-08
1.99367e-10
1.88244e-10
2.5248e-07
1.04297e-09
0.000123106
1.60497e-06
1.29299e-10
3.44562e-13
2.78932e-18
5.12372e-25
9.56074e-34
3.9703e-59
1.5631e-63
8.57664e-06
2.11875e-06
3.74209e-08
2.12599e-05
7.15823e-06
1.80611e-05
1.56596e-08
0.000374077
0.000299501
8.29863e-08
0.00246724
0.00182964
1.96696e-08
2.5301e-05
1.01873e-08
0.000130597
4.47292e-09
1.63058e-10
1.57972e-10
9.79872e-07
5.07059e-09
1.16009e-08
9.00663e-07
1.24712e-10
1.60554e-14
8.28924e-21
8.68293e-29
8.62273e-39
8.16802e-64
8.20409e-69
3.49017e-05
0.000126677
3.43384e-08
2.52961e-07
2.92961e-08
4.84863e-06
5.93686e-06
5.3167e-05
9.72457e-07
2.04475e-07
1.79458e-07
1.92442e-06
1.13434e-08
1.12254e-08
4.09231e-06
3.15362e-10
2.20628e-10
5.25201e-12
1.08242e-11
1.52116e-10
1.76343e-06
6.09611e-09
1.27542e-08
3.79215e-12
7.92095e-18
3.82784e-26
3.89406e-36
3.16341e-48
1.05573e-68
2.62085e-74
1
1
1
1
1
1
1
1
1
1
1
1
1
1
1
1
1
1
1
1
1
1
1
1
1
1
1
1
1
1
1
1
1
1
1
1
1
1
1
1
1
1
1
1
1
1
1
1
1
1
1
1
1
1
1
1
1
1
1
1
1
1
1
1
1
1
1
1
1
1
1
1
1
1
1
1
1
1
1
1
1
1
1
1
1
1
1
1
1
1
1
1
1
1
1
1
1
1
1
1
1
1
1
1
1
1
1
1
1
1
1
1
1
1
1
1
1
1
1
1
1
1
1
1
1
1
1
1
1
1
1
1
1
1
1
1
1
1
1
1
1
1
1
1
1
1
1
1
1
1
1
1
1
1
1
1
1
1
1
1
1
1
1
1
1
1
1
1
1
1
1
1
1
1
1
1
1
1
1
1
1
1
1
1
1
1
1
1
1
1
1
1
1
1
1
1
1
1
1
1
1
1
1
1
1
1
1
1
1
1
1
1
1
1
1
1
1
1
1
1
1
1
1
1
1
1
1
1
1
1
1
1
1
1
1
1
1
1
1
1
1
1
1
1
1
1
1
1
1
1
1
1
1
1
1
1
1
1
1
1
1
1
1
1
1
1
1
1
1
1
1
1
1
1
1
1
1
1
1
1
1
1
1
1
1
1
1
1
1
1
1
1
1
1
1
1
1
1
1
1
1
1
1
1
1
1
1
1
1
1
1
1
1
1
1
1
1
1
1
1
1
1
1
1
1
1
1
1
1
1
1
1
1
1
1
1
1
1
1
1
1
1
1
1
1
1
1
1
1
1
1
1
1
1
1
1
1
1
1
1
1
1
1
1
1
1
1
1
1
1
1
1
1
1
1
1
1
1
1
1
1
1
1
1
1
1
1
1
1
1
1
1
1
1
1
1
1
1
1
1
1
1
1
1
1
1
1
1
1
1
1
1
1
1
1
1
1
1
1
1
1
1
1
1
1
1
1
1
1
1
1
1
1
1
1
1
1
1
1
1
1
1
1
1
1
1
1
1
1
0.999797
1
1
1
1
1
1
1
1
1
1
1
1
1
1
1
1
1
1
1
1
1
1
1
1
1
1
1
1
1
1
1
1
1
1
1
1
1
1
0.999999
1
1
1
1
1
1
1
1
1
1
1
1
1
1
1
1
1
1
1
1
1
1
1
1
1
1
1
1
1
0.999996
1
1
1
1
1
1
1
1
1
1
1
1
1
1
1
1
1
1
1
1
1
1
1
1
1
1
1
1
1
1
0.999987
1
1
1
1
1
1
1
1
1
1
1
1
1
1
1
1
1
1
1
1
1
1
1
1
1
1
1
1
0.999995
1
1
1
1
1
1
1
1
1
1
1
1
1
1
1
1
1
1
1
1
1
1
1
1
1
1
1
1
1
1
0.999992
1
1
1
1
1
1
1
1
1
1
1
1
1
1
1
1
1
1
1
1
1
1
1
1
1
1
0.999989
0.999999
0.561735
0.999987
1
1
1
1
1
1
1
1
1
1
1
1
1
1
1
1
1
1
1
1
1
1
1
1
0.999744
1
0.999998
0.959071
0.00159543
0.999981
1
1
1
1
0.999257
1
1
1
1
1
1
1
1
1
1
1
1
1
1
1
1
1
1
1
0.999385
1
1
2.27886e-05
0.00149172
1
1
0.999999
1
0.999597
0.999238
1
1
1
1
1
1
1
0.999999
1
0.999997
1
1
1
1
1
1
1
1
0.99979
0.999553
0.999904
0.126278
6.94714e-08
6.75222e-08
0.994871
1
1
1
0.999787
0.999981
1
1
1
1
1
0.999999
1
1
1
1
1
1
1
1
1
1
1
1
0.999912
0.999999
0.0373143
2.15303e-06
2.39863e-09
1.10994e-05
0.621674
0.999998
1
0.999977
1
1
1
1
1
0.999978
1
1
1
1
1
1
1
1
1
1
1
1
1
1
1
0.999808
-1.13567e-07
1.35101e-09
1.1114e-09
8.50685e-05
0.246796
1
0.999996
0.999985
0.999993
0.999842
1
1
0.999869
1
1
1
1
1
1
1
1
0.999999
0.999985
0.999863
0.996533
1
1
1
1
0.00807506
9.36082e-10
9.45545e-10
8.93733e-10
0.000204998
0.0633734
0.999994
0.999997
0.999927
0.999994
1
1
0.999934
0.999975
1
1
1
1
0.995974
0.999981
0.987102
0.311014
7.53805e-09
5.22689e-09
2.05817e-08
2.37029e-08
1
1
0.999951
0.999793
1.07768e-06
4.43209e-10
5.16202e-10
7.59669e-09
0.000184527
0.00202463
1
1
0.999827
0.999996
1
1
0.999985
0.999955
1
0.999981
0.999584
0.7533
0.0826253
4.41307e-09