/*--------------------------------*- C++ -*----------------------------------*\
| =========                 |                                                 |
| \\      /  F ield         | OpenFOAM: The Open Source CFD Toolbox           |
|  \\    /   O peration     | Version:  2.4.0                                 |
|   \\  /    A nd           | Web:      www.OpenFOAM.org                      |
|    \\/     M anipulation  |                                                 |
\*---------------------------------------------------------------------------*/
FoamFile
{
    version     2.0;
    format      ascii;
    class       surfaceScalarField;
    location    "0.153";
    object      phiAlpha;
}
// * * * * * * * * * * * * * * * * * * * * * * * * * * * * * * * * * * * * * //

dimensions      [0 3 -1 0 0 0 0];

internalField   nonuniform List<scalar> 
114720
(
1.29017e-09
-1.76253e-10
-1.67141e-09
5.57498e-10
-3.85182e-09
5.53212e-09
8.47927e-10
-2.52822e-09
-1.17689e-08
1.36745e-08
7.47853e-10
-2.65344e-09
-1.95198e-08
2.11277e-08
5.93664e-10
-2.20149e-09
-2.50425e-08
2.58976e-08
2.27171e-10
-1.08224e-09
-2.74944e-08
2.77658e-08
-4.18185e-11
-2.29588e-10
-2.81709e-08
2.8082e-08
-2.16915e-10
3.05829e-10
-2.66572e-08
2.5648e-08
-6.46231e-10
1.65546e-09
-2.00136e-08
1.74133e-08
-1.35036e-09
3.95066e-09
-7.17978e-09
3.62893e-09
-1.57186e-09
5.12271e-09
7.01969e-09
-9.92005e-09
-1.02661e-09
3.92697e-09
1.70158e-08
-1.86167e-08
-3.88003e-10
1.98889e-09
2.19938e-08
-2.26396e-08
-2.38594e-11
6.69577e-10
2.38173e-08
-2.40023e-08
9.76466e-11
8.73596e-11
2.42554e-08
-2.42629e-08
1.0744e-10
-9.99822e-11
2.41232e-08
-2.40294e-08
1.01964e-10
-1.95795e-10
2.35588e-08
-2.33495e-08
1.15512e-10
-3.24807e-10
2.24881e-08
-2.21536e-08
1.44284e-10
-4.78844e-10
2.09235e-08
-2.04865e-08
1.71938e-10
-6.08987e-10
1.89891e-08
-1.8486e-08
1.90689e-10
-6.93808e-10
1.68397e-08
-1.63068e-08
1.98282e-10
-7.31145e-10
1.46145e-08
-1.40807e-08
1.96507e-10
-7.30315e-10
1.24197e-08
-1.19049e-08
1.87834e-10
-7.02627e-10
1.03264e-08
-9.84431e-09
1.74426e-10
-6.56541e-10
8.38083e-09
-7.93752e-09
1.58896e-10
-6.02208e-10
6.60297e-09
-6.2012e-09
1.4262e-10
-5.44384e-10
4.99623e-09
-4.63456e-09
1.27258e-10
-4.88921e-10
3.55237e-09
-3.22789e-09
1.13272e-10
-4.37758e-10
2.25738e-09
-1.96661e-09
1.00956e-10
-3.91724e-10
1.09533e-09
-8.34241e-10
9.03453e-11
-3.51432e-10
1.60516e-09
1.11072e-09
1.30304e-10
-2.84618e-09
-8.59444e-10
1.05417e-08
3.44042e-09
-1.31227e-08
-1.36201e-08
1.26676e-08
1.73444e-08
-1.63919e-08
-2.82687e-08
1.00208e-08
3.1574e-08
-1.33261e-08
-4.03548e-08
5.88551e-09
4.26868e-08
-8.21752e-09
-4.84928e-08
3.28486e-09
5.01256e-08
-4.91768e-09
-5.43746e-08
9.03305e-10
5.54506e-08
-1.97932e-09
-5.67918e-08
-5.46117e-09
5.63394e-08
5.91359e-09
-5.13581e-08
-1.4931e-08
4.84426e-08
1.78464e-08
-3.60245e-08
-2.03477e-08
3.10633e-08
2.53089e-08
-1.47179e-08
-1.77458e-08
9.34528e-09
2.31185e-08
5.86087e-09
-1.15785e-08
-1.02621e-08
1.59797e-08
2.16157e-08
-6.37152e-09
-2.46468e-08
9.40267e-09
3.19991e-08
-3.2042e-09
-3.38378e-08
5.04287e-09
3.79775e-08
-1.3306e-09
-3.89038e-08
2.25689e-09
4.06211e-08
6.12099e-11
-4.08546e-08
1.72226e-10
4.06976e-08
1.31039e-09
-4.03954e-08
-1.61264e-09
3.88564e-08
2.3273e-09
-3.81866e-08
-2.99715e-09
3.5772e-08
3.00804e-09
-3.48898e-08
-3.89017e-09
3.20178e-08
3.37196e-09
-3.10393e-08
-4.35048e-09
2.80017e-08
3.48756e-09
-2.70039e-08
-4.48536e-09
2.39894e-08
3.42896e-09
-2.30213e-08
-4.39704e-09
2.01483e-08
3.25788e-09
-1.92399e-08
-4.16633e-09
1.6579e-08
3.01888e-09
-1.57475e-08
-3.85042e-09
1.33343e-08
2.7498e-09
-1.25865e-08
-3.49757e-09
1.04306e-08
2.47679e-09
-9.76567e-09
-3.14175e-09
7.85255e-09
2.22093e-09
-7.263e-09
-2.81048e-09
5.56609e-09
1.98881e-09
-5.04221e-09
-2.51269e-09
3.53053e-09
1.78469e-09
-3.06183e-09
-2.25339e-09
1.70562e-09
1.60224e-09
-1.28466e-09
-2.0232e-09
2.31212e-09
7.86857e-09
-6.00817e-09
-4.17252e-09
2.16573e-09
2.05918e-08
2.64469e-10
-2.3022e-08
-1.04616e-08
2.77748e-08
1.42728e-08
-3.15859e-08
-2.56247e-08
2.37e-08
2.91273e-08
-2.72027e-08
-3.86274e-08
1.58046e-08
4.12137e-08
-1.8391e-08
-4.78487e-08
1.04648e-08
4.97771e-08
-1.23932e-08
-5.50259e-08
5.99831e-09
5.64812e-08
-7.4536e-09
-5.91855e-08
-6.20274e-09
5.92583e-08
6.13002e-09
-5.62176e-08
-2.50966e-08
5.4061e-08
2.72533e-08
-4.43792e-08
-3.84174e-08
4.04223e-08
4.23744e-08
-2.70444e-08
-3.81839e-08
2.24666e-08
4.27618e-08
-8.76418e-09
-2.9381e-08
4.53888e-09
3.36063e-08
7.07429e-09
-1.94121e-08
-1.03802e-08
2.2718e-08
1.88196e-08
-1.14746e-08
-2.10347e-08
1.36897e-08
2.62282e-08
-5.64256e-09
-2.74534e-08
6.86768e-09
2.99611e-08
-1.23676e-09
-3.0427e-08
1.70268e-09
3.09644e-08
2.23807e-09
-3.08926e-08
-2.30987e-09
3.00853e-08
4.72201e-09
-2.96637e-08
-5.14362e-09
2.80219e-08
6.23222e-09
-2.73939e-08
-6.86021e-09
2.52863e-08
6.97589e-09
-2.45509e-08
-7.7113e-09
2.22245e-08
7.17915e-09
-2.1448e-08
-7.95569e-09
1.90713e-08
7.02011e-09
-1.82997e-08
-7.79171e-09
1.59918e-08
6.62855e-09
-1.52578e-08
-7.36258e-09
1.31025e-08
6.09435e-09
-1.2429e-08
-6.76783e-09
1.04822e-08
5.49534e-09
-9.883e-09
-6.09454e-09
8.17297e-09
4.89198e-09
-7.65206e-09
-5.41288e-09
6.17347e-09
4.33773e-09
-5.72428e-09
-4.78693e-09
4.4469e-09
3.85271e-09
-4.0567e-09
-4.24292e-09
2.9383e-09
3.44492e-09
-2.59294e-09
-3.79027e-09
1.59398e-09
3.09316e-09
-1.28348e-09
-3.40366e-09
2.55756e-09
1.58239e-08
-1.3779e-08
-4.60254e-09
2.92134e-09
3.03598e-08
-4.53267e-10
-3.28279e-08
-9.77364e-09
4.30588e-08
1.36157e-08
-4.69009e-08
-2.502e-08
3.77413e-08
2.85421e-08
-4.12634e-08
-3.80927e-08
2.61499e-08
4.06739e-08
-2.87311e-08
-4.72937e-08
1.82183e-08
4.9239e-08
-2.01636e-08
-5.46115e-08
1.19408e-08
5.61382e-08
-1.34675e-08
-5.91139e-08
-5.74133e-09
5.92843e-08
5.57093e-09
-5.65215e-08
-3.35471e-08
5.44327e-08
3.56359e-08
-4.49753e-08
-5.38732e-08
4.11476e-08
5.77009e-08
-2.8549e-08
-5.56932e-08
2.43585e-08
5.98837e-08
-1.20834e-08
-4.54197e-08
8.3507e-09
4.91524e-08
1.89497e-09
-3.20677e-08
-4.83594e-09
3.50087e-08
1.25006e-08
-2.01501e-08
-1.45822e-08
2.22317e-08
1.97109e-08
-1.06707e-08
-2.10127e-08
1.19725e-08
2.3973e-08
-3.42416e-09
-2.46434e-08
4.09457e-09
2.59202e-08
2.08862e-09
-2.6115e-08
-1.89382e-09
2.61444e-08
5.95123e-09
-2.59925e-08
-6.10317e-09
2.51308e-08
8.33225e-09
-2.47386e-08
-8.72447e-09
2.32837e-08
9.57611e-09
-2.27395e-08
-1.01203e-08
2.0931e-08
1.00153e-08
-2.03036e-08
-1.06427e-08
1.83256e-08
9.89966e-09
-1.76668e-08
-1.05585e-08
1.56535e-08
9.41174e-09
-1.50007e-08
-1.00645e-08
1.30499e-08
8.68015e-09
-1.24299e-08
-9.30014e-09
1.06089e-08
7.8191e-09
-1.00395e-08
-8.38848e-09
8.39017e-09
6.92758e-09
-7.88022e-09
-7.43753e-09
6.41294e-09
6.10331e-09
-5.96115e-09
-6.5551e-09
4.66177e-09
5.39314e-09
-4.26046e-09
-5.79446e-09
3.10031e-09
4.81321e-09
-2.73934e-09
-5.17417e-09
1.68943e-09
4.32787e-09
-1.36152e-09
-4.65578e-09
2.73419e-09
2.42968e-08
-2.2135e-08
-4.89598e-09
3.22224e-09
4.03053e-08
-7.03259e-10
-4.28242e-08
-9.62597e-09
5.84885e-08
1.35106e-08
-6.23732e-08
-2.49798e-08
5.18596e-08
2.8523e-08
-5.54028e-08
-3.81312e-08
3.64571e-08
4.07006e-08
-3.90264e-08
-4.72591e-08
2.60004e-08
4.92047e-08
-2.7946e-08
-5.46612e-08
1.81452e-08
5.62565e-08
-1.97405e-08
-5.95078e-08
-4.92471e-09
5.97756e-08
4.65689e-09
-5.72171e-08
-4.19124e-08
5.51244e-08
4.4005e-08
-4.54109e-08
-6.9363e-08
4.14512e-08
7.33227e-08
-2.85028e-08
-7.24779e-08
2.42544e-08
7.67262e-08
-1.20692e-08
-6.00925e-08
8.44861e-09
6.37131e-08
1.31552e-09
-4.35081e-08
-4.08795e-09
4.62805e-08
1.13446e-08
-2.83314e-08
-1.33499e-08
3.03366e-08
1.84495e-08
-1.59621e-08
-1.98024e-08
1.73149e-08
2.30413e-08
-6.31084e-09
-2.38272e-08
7.09677e-09
2.54759e-08
1.08677e-09
-2.57895e-08
-7.7319e-10
2.61479e-08
6.37227e-09
-2.60905e-08
-6.42968e-09
2.5476e-08
9.76017e-09
-2.51525e-08
-1.00837e-08
2.38758e-08
1.16473e-08
-2.33823e-08
-1.21409e-08
2.17108e-08
1.2443e-08
-2.11234e-08
-1.30304e-08
1.9255e-08
1.2472e-08
-1.86284e-08
-1.30986e-08
1.67006e-08
1.19792e-08
-1.6071e-08
-1.26089e-08
1.41724e-08
1.11406e-08
-1.35624e-08
-1.17506e-08
1.17455e-08
1.01078e-08
-1.11679e-08
-1.06853e-08
9.46181e-09
9.01179e-09
-8.92281e-09
-9.55079e-09
7.33646e-09
7.98405e-09
-6.83679e-09
-8.48371e-09
5.36993e-09
7.09059e-09
-4.90854e-09
-7.55198e-09
3.55577e-09
6.35591e-09
-3.13032e-09
-6.78136e-09
1.88496e-09
5.73528e-09
-1.49466e-09
-6.12558e-09
2.94044e-09
3.32693e-08
-3.09737e-08
-5.23605e-09
3.51219e-09
5.04697e-08
-9.32225e-10
-5.30496e-08
-9.52824e-09
7.41002e-08
1.34628e-08
-7.80347e-08
-2.50122e-08
6.60713e-08
2.85822e-08
-6.96413e-08
-3.82704e-08
4.67148e-08
4.08255e-08
-4.92699e-08
-4.73027e-08
3.37812e-08
4.92467e-08
-3.57252e-08
-5.4803e-08
2.46511e-08
5.64849e-08
-2.63329e-08
-6.00932e-08
-3.66392e-09
6.04953e-08
3.26185e-09
-5.82341e-08
-5.02702e-08
5.61531e-08
5.23511e-08
-4.61445e-08
-8.5441e-08
4.20208e-08
8.95646e-08
-2.85435e-08
-8.96975e-08
2.41375e-08
9.41036e-08
-1.16108e-08
-7.46375e-08
7.93312e-09
7.83151e-08
1.86821e-09
-5.45477e-08
-4.62464e-09
5.73041e-08
1.18231e-08
-3.63285e-08
-1.38202e-08
3.83256e-08
1.89521e-08
-2.14211e-08
-2.03329e-08
2.2802e-08
2.36885e-08
-9.52999e-09
-2.45156e-08
1.03571e-08
2.62734e-08
-2.22206e-10
-2.66136e-08
5.62463e-10
2.702e-08
6.58047e-09
-2.6968e-08
-6.63242e-09
2.63493e-08
1.10515e-08
-2.60201e-08
-1.13807e-08
2.47217e-08
1.36241e-08
-2.42205e-08
-1.41253e-08
2.25292e-08
1.4793e-08
-2.19365e-08
-1.53857e-08
2.0057e-08
1.4974e-08
-1.94281e-08
-1.56029e-08
1.74967e-08
1.44925e-08
-1.68662e-08
-1.5123e-08
1.49632e-08
1.35808e-08
-1.43503e-08
-1.41937e-08
1.25158e-08
1.24317e-08
-1.19287e-08
-1.30189e-08
1.01788e-08
1.12005e-08
-9.62026e-09
-1.1759e-08
7.95878e-09
1.00341e-08
-7.4297e-09
-1.05632e-08
5.86149e-09
9.00056e-09
-5.36388e-09
-9.49816e-09
3.89532e-09
8.12681e-09
-3.43095e-09
-8.59118e-09
2.06708e-09
7.36387e-09
-1.63858e-09
-7.79237e-09
3.197e-09
4.28554e-08
-4.03939e-08
-5.6585e-09
3.85985e-09
6.08946e-08
-1.20726e-09
-6.35471e-08
-9.41716e-09
8.99219e-08
1.3409e-08
-9.39137e-08
-2.50572e-08
8.03997e-08
2.86609e-08
-8.40035e-08
-3.84543e-08
5.69082e-08
4.09904e-08
-5.94443e-08
-4.73596e-08
4.15522e-08
4.92998e-08
-4.34923e-08
-5.49719e-08
3.15287e-08
5.67574e-08
-3.33141e-08
-6.08016e-08
-1.80574e-09
6.13801e-08
1.22729e-09
-5.95083e-08
-5.85593e-08
5.74541e-08
6.06135e-08
-4.70862e-08
-1.02217e-07
4.2767e-08
1.06536e-07
-2.86726e-08
-1.07592e-07
2.40803e-08
1.12185e-07
-1.11095e-08
-8.94882e-08
7.33461e-09
9.32631e-08
2.63968e-09
-6.56087e-08
-5.42282e-09
6.83918e-08
1.26672e-08
-4.43324e-08
-1.46764e-08
4.63416e-08
1.98561e-08
-2.69744e-08
-2.12569e-08
2.83751e-08
2.46803e-08
-1.28706e-08
-2.55283e-08
1.37186e-08
2.73301e-08
-1.5921e-09
-2.76752e-08
1.93721e-09
2.80632e-08
6.80894e-09
-2.7996e-08
-6.87622e-09
2.731e-08
1.24038e-08
-2.69548e-08
-1.2759e-08
2.55724e-08
1.56663e-08
-2.50434e-08
-1.61953e-08
2.32686e-08
1.71975e-08
-2.26502e-08
-1.78159e-08
2.06958e-08
1.75189e-08
-2.0044e-08
-1.81707e-08
1.80464e-08
1.70395e-08
-1.73959e-08
-1.76901e-08
1.54364e-08
1.6054e-08
-1.48064e-08
-1.66839e-08
1.2924e-08
1.48e-08
-1.23224e-08
-1.54016e-08
1.05321e-08
1.3454e-08
-9.96146e-09
-1.40247e-08
8.26573e-09
1.21702e-08
-7.72632e-09
-1.27096e-08
6.12806e-09
1.10116e-08
-5.62092e-09
-1.15188e-08
4.12249e-09
1.00066e-08
-3.64779e-09
-1.04813e-08
2.2498e-09
9.10194e-09
-1.80908e-09
-9.54266e-09
3.51278e-09
5.31971e-08
-5.05327e-08
-6.17725e-09
4.27256e-09
7.1627e-08
-1.53597e-09
-7.43636e-08
-9.28393e-09
1.05981e-07
1.33386e-08
-1.10036e-07
-2.51005e-08
9.48723e-08
2.87443e-08
-9.8516e-08
-3.86691e-08
6.70157e-08
4.11792e-08
-6.95258e-08
-4.74056e-08
4.93022e-08
4.9338e-08
-5.12346e-08
-5.51376e-08
3.88436e-08
5.70414e-08
-4.07474e-08
-6.1598e-08
8.33922e-10
6.24066e-08
-1.6425e-09
-6.10297e-08
-6.67101e-08
5.90256e-08
6.87142e-08
-4.82107e-08
-1.19834e-07
4.3655e-08
1.2439e-07
-2.88297e-08
-1.26276e-07
2.40198e-08
1.31086e-07
-1.05382e-08
-1.04749e-07
6.65283e-09
1.08635e-07
3.51694e-09
-7.67882e-08
-6.33123e-09
7.96025e-08
1.36297e-08
-5.23907e-08
-1.56535e-08
5.44146e-08
2.08903e-08
-3.26106e-08
-2.23147e-08
3.4035e-08
2.58182e-08
-1.62978e-08
-2.66915e-08
1.71711e-08
2.85479e-08
-2.98034e-09
-2.88994e-08
3.33183e-09
2.92651e-08
7.10722e-09
-2.91776e-08
-7.1947e-09
2.84022e-08
1.3875e-08
-2.80119e-08
-1.42653e-08
2.65157e-08
1.78366e-08
-2.59486e-08
-1.84037e-08
2.40579e-08
1.97249e-08
-2.34018e-08
-2.0381e-08
2.13345e-08
2.01773e-08
-2.06465e-08
-2.08653e-08
1.85434e-08
1.9688e-08
-1.786e-08
-2.03715e-08
1.58071e-08
1.86127e-08
-1.51493e-08
-1.92704e-08
1.31936e-08
1.72343e-08
-1.25722e-08
-1.78557e-08
1.07363e-08
1.57514e-08
-1.01558e-08
-1.63319e-08
8.44533e-09
1.43302e-08
-7.90567e-09
-1.48698e-08
6.31758e-09
1.30351e-08
-5.81625e-09
-1.35364e-08
4.33819e-09
1.18998e-08
-3.86982e-09
-1.23682e-08
2.48491e-09
1.08656e-08
-2.04567e-09
-1.13048e-08
3.89395e-09
6.44489e-08
-6.15419e-08
-6.801e-09
4.75248e-09
8.27143e-08
-1.91978e-09
-8.5547e-08
-9.13225e-09
1.22302e-07
1.32555e-08
-1.26425e-07
-2.515e-08
1.09517e-07
2.88419e-08
-1.13209e-07
-3.89343e-08
7.70084e-08
4.14105e-08
-7.94845e-08
-4.7454e-08
5.70155e-08
4.93743e-08
-5.89358e-08
-5.53119e-08
4.66518e-08
5.73464e-08
-4.86863e-08
-6.24903e-08
4.49608e-09
6.36016e-08
-5.60739e-09
-6.28419e-08
-7.46097e-08
6.09259e-08
7.65257e-08
-4.95461e-08
-1.3847e-07
4.47046e-08
1.43311e-07
-2.90095e-08
-1.45889e-07
2.39422e-08
1.50957e-07
-9.86604e-09
-1.20472e-07
5.8572e-09
1.24481e-07
4.5158e-09
-8.8088e-08
-7.35737e-09
9.09296e-08
1.46979e-08
-6.05076e-08
-1.67354e-08
6.2545e-08
2.20406e-08
-3.8353e-08
-2.34966e-08
3.9809e-08
2.71111e-08
-1.98416e-08
-2.80207e-08
2.07512e-08
2.99624e-08
-4.40404e-09
-3.03274e-08
4.76903e-09
3.06756e-08
7.49168e-09
-3.05642e-08
-7.60306e-09
2.96789e-08
1.54987e-08
-2.92452e-08
-1.59323e-08
2.76094e-08
2.01722e-08
-2.69959e-08
-2.07857e-08
2.49647e-08
2.24159e-08
-2.42627e-08
-2.31179e-08
2.20573e-08
2.29937e-08
-2.13249e-08
-2.3726e-08
1.909e-08
2.24818e-08
-1.83651e-08
-2.32067e-08
1.61937e-08
2.12944e-08
-1.55007e-08
-2.19874e-08
1.34513e-08
1.97555e-08
-1.2805e-08
-2.04018e-08
1.09133e-08
1.80889e-08
-1.0322e-08
-1.86802e-08
8.60226e-09
1.6483e-08
-8.06727e-09
-1.7018e-08
6.51389e-09
1.50188e-08
-6.02942e-09
-1.55033e-08
4.61191e-09
1.37482e-08
-4.16387e-09
-1.41963e-08
2.83193e-09
1.2609e-08
-2.4047e-09
-1.30362e-08
4.34813e-09
7.67772e-08
-7.35848e-08
-7.54045e-09
5.29907e-09
9.42026e-08
-2.3592e-09
-9.71424e-08
-8.96287e-09
1.38903e-07
1.31592e-08
-1.431e-07
-2.52043e-08
1.24368e-07
2.89532e-08
-1.28117e-07
-3.92574e-08
8.68501e-08
4.16892e-08
-8.92819e-08
-4.75006e-08
6.46717e-08
4.94029e-08
-6.6574e-08
-5.54854e-08
5.49957e-08
5.76583e-08
-5.71686e-08
-6.34575e-08
9.50895e-09
6.49717e-08
-1.10232e-08
-6.49735e-08
-8.20727e-08
6.32076e-08
8.38385e-08
-5.11059e-08
-1.58329e-07
4.59229e-08
1.63512e-07
-2.92038e-08
-1.66598e-07
2.38332e-08
1.71969e-07
-9.06864e-09
-1.36709e-07
4.92274e-09
1.40855e-07
5.65436e-09
-9.94874e-08
-8.51589e-09
1.02349e-07
1.58748e-08
-6.86743e-08
-1.79226e-08
7.0722e-08
2.33067e-08
-4.42348e-08
-2.48033e-08
4.57314e-08
2.85657e-08
-2.35504e-08
-2.95256e-08
2.45103e-08
3.15951e-08
-5.89558e-09
-3.19837e-08
6.28417e-09
3.23219e-08
7.97879e-09
-3.21815e-08
-8.11923e-09
3.11582e-08
1.73097e-08
-3.06713e-08
-1.77966e-08
2.88682e-08
2.27043e-08
-2.82004e-08
-2.33721e-08
2.60061e-08
2.53006e-08
-2.52517e-08
-2.6055e-08
2.2888e-08
2.59976e-08
-2.21046e-08
-2.6781e-08
1.97166e-08
2.54521e-08
-1.89431e-08
-2.62257e-08
1.66306e-08
2.41282e-08
-1.58946e-08
-2.48642e-08
1.37283e-08
2.23866e-08
-1.30496e-08
-2.30654e-08
1.1082e-08
2.04756e-08
-1.04746e-08
-2.1083e-08
8.73722e-09
1.86138e-08
-8.20766e-09
-1.91433e-08
6.70666e-09
1.69168e-08
-6.25045e-09
-1.73731e-08
4.94536e-09
1.54845e-08
-4.53933e-09
-1.58905e-08
3.32934e-09
1.4278e-08
-2.93357e-09
-1.46738e-08
4.88454e-09
9.03605e-08
-8.68367e-08
-8.40835e-09
5.90864e-09
1.06132e-07
-2.85389e-09
-1.09187e-07
-8.77346e-09
1.558e-07
1.30444e-08
-1.60071e-07
-2.52531e-08
1.39457e-07
2.90666e-08
-1.43271e-07
-3.96339e-08
9.6494e-08
4.2007e-08
-9.88671e-08
-4.75237e-08
7.22438e-08
4.93994e-08
-7.41195e-08
-5.56265e-08
6.38972e-08
5.79393e-08
-6.62101e-08
-6.44452e-08
1.63273e-08
6.65008e-08
-1.8383e-08
-6.74365e-08
-8.87995e-08
6.59207e-08
9.03153e-08
-5.28842e-08
-1.79643e-07
4.72992e-08
1.85228e-07
-2.93932e-08
-1.88593e-07
2.36688e-08
1.94318e-07
-8.11765e-09
-1.53511e-07
3.82319e-09
1.57806e-07
6.94603e-09
-1.10948e-07
-9.81425e-09
1.13816e-07
1.71519e-08
-7.68724e-08
-1.92028e-08
7.89234e-08
2.46731e-08
-5.02937e-08
-2.62204e-08
5.18411e-08
3.01716e-08
-2.74848e-08
-3.11988e-08
2.8512e-08
3.34537e-08
-7.50205e-09
-3.38809e-08
7.92925e-09
3.42203e-08
8.59316e-09
-3.40427e-08
-8.77081e-09
3.28408e-08
1.93518e-08
-3.22875e-08
-1.9905e-08
3.0286e-08
2.54665e-08
-2.95561e-08
-2.61964e-08
2.71788e-08
2.84037e-08
-2.63658e-08
-2.92168e-08
2.38282e-08
2.9215e-08
-2.2987e-08
-3.00563e-08
2.04252e-08
2.86279e-08
-1.95957e-08
-2.94574e-08
1.71171e-08
2.7147e-08
-1.63289e-08
-2.79352e-08
1.40138e-08
2.51633e-08
-1.3291e-08
-2.58861e-08
1.12082e-08
2.29438e-08
-1.05708e-08
-2.35812e-08
8.77094e-09
2.07367e-08
-8.2316e-09
-2.12761e-08
6.73562e-09
1.87061e-08
-6.29267e-09
-1.91491e-08
5.06335e-09
1.70384e-08
-4.69365e-09
-1.74081e-08
3.62011e-09
1.57938e-08
-3.26894e-09
-1.6145e-08
5.51442e-09
1.05394e-07
-1.01489e-07
-9.41998e-09
6.57984e-09
1.1853e-07
-3.40567e-09
-1.21704e-07
-8.56826e-09
1.72998e-07
1.29147e-08
-1.77344e-07
-2.53043e-08
1.54819e-07
2.91906e-08
-1.58705e-07
-4.00907e-08
1.05878e-07
4.23873e-08
-1.08175e-07
-4.75349e-08
7.96949e-08
4.93734e-08
-8.15333e-08
-5.57396e-08
7.3359e-08
5.81935e-08
-7.58128e-08
-6.54292e-08
2.55741e-08
6.82078e-08
-2.83527e-08
-7.02967e-08
-9.43113e-08
6.91915e-08
9.54165e-08
-5.49095e-08
-2.02667e-07
4.88543e-08
2.08723e-07
-2.95783e-08
-2.12095e-07
2.34376e-08
2.18236e-07
-6.98619e-09
-1.70927e-07
2.53141e-09
1.75382e-07
8.40917e-09
-1.22411e-07
-1.12659e-08
1.25268e-07
1.8527e-08
-8.50699e-08
-2.05709e-08
8.71137e-08
2.61359e-08
-5.65743e-08
-2.7747e-08
5.81854e-08
3.19339e-08
-3.17189e-08
-3.30493e-08
3.28344e-08
3.55731e-08
-9.29526e-09
-3.60627e-08
9.78492e-09
3.6422e-08
9.37438e-09
-3.61936e-08
-9.60278e-09
3.47469e-08
2.16864e-08
-3.41085e-08
-2.23249e-08
3.1874e-08
2.8487e-08
-3.10755e-08
-2.92855e-08
2.84999e-08
3.17489e-08
-2.76236e-08
-3.26252e-08
2.48899e-08
3.26719e-08
-2.39858e-08
-3.3576e-08
2.123e-08
3.20387e-08
-2.03365e-08
-3.29321e-08
1.76621e-08
3.03917e-08
-1.68102e-08
-3.12435e-08
1.43039e-08
2.81405e-08
-1.352e-08
-2.89244e-08
1.12584e-08
2.55684e-08
-1.05651e-08
-2.62617e-08
8.59975e-09
2.29609e-08
-8.00625e-09
-2.35544e-08
6.33531e-09
2.05478e-08
-5.83098e-09
-2.10521e-08
4.40891e-09
1.85698e-08
-3.98073e-09
-1.8998e-08
2.7954e-09
1.71469e-08
-2.44682e-09
-1.74955e-08
6.25135e-09
1.22091e-07
-1.17749e-07
-1.05936e-08
7.3064e-09
1.31405e-07
-4.0154e-09
-1.34696e-07
-8.34729e-09
1.90496e-07
1.27673e-08
-1.94916e-07
-2.53534e-08
1.70482e-07
2.93186e-08
-1.74447e-07
-4.06396e-08
1.14923e-07
4.28363e-08
-1.1712e-07
-4.75227e-08
8.6977e-08
4.93096e-08
-8.87639e-08
-5.57915e-08
8.34102e-08
5.84159e-08
-8.60345e-08
-6.63244e-08
3.79655e-08
6.99575e-08
-4.15986e-08
-7.35155e-08
-9.77977e-08
7.3125e-08
9.81882e-08
-5.71811e-08
-2.27678e-07
5.05858e-08
2.34274e-07
-2.97441e-08
-2.37371e-07
2.31114e-08
2.44003e-07
-5.63563e-09
-1.88999e-07
1.0114e-09
1.93623e-07
1.00621e-08
-1.33792e-07
-1.28814e-08
1.36611e-07
1.99851e-08
-9.32165e-08
-2.20053e-08
9.52366e-08
2.76751e-08
-6.31342e-08
-2.93674e-08
6.48265e-08
3.38369e-08
-3.63412e-08
-3.50642e-08
3.75685e-08
3.79789e-08
-1.13908e-08
-3.85701e-08
1.19821e-08
3.89814e-08
1.03909e-08
-3.86777e-08
-1.06947e-08
3.68762e-08
2.43967e-08
-3.61273e-08
-2.51456e-08
3.36255e-08
3.17903e-08
-3.27537e-08
-3.26621e-08
2.99684e-08
3.5355e-08
-2.90245e-08
-3.6299e-08
2.60835e-08
3.63903e-08
-2.51104e-08
-3.73634e-08
2.21394e-08
3.57188e-08
-2.11739e-08
-3.66843e-08
1.82744e-08
3.39091e-08
-1.73469e-08
-3.48366e-08
1.46028e-08
3.139e-08
-1.3739e-08
-3.22538e-08
1.12281e-08
2.8458e-08
-1.04521e-08
-2.9234e-08
8.2366e-09
2.54504e-08
-7.56415e-09
-2.61228e-08
5.67439e-09
2.26744e-08
-5.10808e-09
-2.32407e-08
3.51592e-09
2.04208e-08
-3.02247e-09
-2.09142e-08
1.43312e-09
1.90112e-08
-8.16435e-10
-1.96279e-08
7.11246e-09
1.40684e-07
-1.35844e-07
-1.19523e-08
8.0781e-09
1.4473e-07
-4.68478e-09
-1.48124e-07
-8.11165e-09
2.08281e-07
1.25998e-08
-2.12769e-07
-2.53989e-08
1.86465e-07
2.94453e-08
-1.90511e-07
-4.13021e-08
1.23526e-07
4.33693e-08
-1.25593e-07
-4.74794e-08
9.40259e-08
4.9196e-08
-9.57426e-08
-5.57425e-08
9.42821e-08
5.86377e-08
-9.71772e-08
-6.70741e-08
5.35907e-08
7.13494e-08
-5.78661e-08
-7.65576e-08
-9.75442e-08
7.75607e-08
9.65412e-08
-5.96855e-08
-2.5494e-07
5.24996e-08
2.62126e-07
-2.98792e-08
-2.64753e-07
2.26558e-08
2.71976e-07
-4.01998e-09
-2.07758e-07
-7.79775e-10
2.12558e-07
1.19279e-08
-1.44973e-07
-1.4674e-08
1.47719e-07
2.15064e-08
-1.01233e-07
-2.34768e-08
1.03203e-07
2.92674e-08
-7.00551e-08
-3.10678e-08
7.18555e-08
3.58551e-08
-4.14468e-08
-3.72175e-08
4.28092e-08
4.07066e-08
-1.39821e-08
-4.14668e-08
1.47423e-08
4.1995e-08
1.17676e-08
-4.15712e-08
-1.21914e-08
3.92132e-08
2.75988e-08
-3.83181e-08
-2.84939e-08
3.55307e-08
3.53876e-08
-3.45867e-08
-3.63315e-08
3.15925e-08
3.9235e-08
-3.05788e-08
-4.02487e-08
2.74192e-08
4.03918e-08
-2.63725e-08
-4.14385e-08
2.31704e-08
3.96967e-08
-2.21265e-08
-4.07405e-08
1.89766e-08
3.77461e-08
-1.79626e-08
-3.87601e-08
1.49378e-08
3.49874e-08
-1.39757e-08
-3.59496e-08
1.11409e-08
3.17212e-08
-1.02509e-08
-3.26113e-08
7.66578e-09
2.83011e-08
-6.86757e-09
-2.90993e-08
4.59008e-09
2.50671e-08
-3.89759e-09
-2.57596e-08
1.93897e-09
2.24295e-08
-1.34609e-09
-2.30224e-08
-2.78933e-10
2.08929e-08
7.01181e-10
-2.1314e-08
8.1157e-09
1.61429e-07
-1.56026e-07
-1.35192e-08
8.88105e-09
1.5842e-07
-5.42014e-09
-1.61881e-07
-7.86224e-09
2.26326e-07
1.24095e-08
-2.30874e-07
-2.54387e-08
2.0277e-07
2.95623e-08
-2.06893e-07
-4.21067e-08
1.31559e-07
4.40078e-08
-1.3346e-07
-4.73949e-08
1.0076e-07
4.9018e-08
-1.02383e-07
-5.56154e-08
1.0623e-07
5.86748e-08
-1.09289e-07
-6.87332e-08
7.12202e-08
7.32802e-08
-7.57672e-08
-8.01225e-08
-9.0903e-08
8.25803e-08
8.84451e-08
-6.22375e-08
-2.84529e-07
5.45147e-08
2.92252e-07
-2.99707e-08
-2.94686e-07
2.20221e-08
3.02635e-07
-2.08124e-09
-2.27223e-07
-2.89481e-09
2.32199e-07
1.40333e-08
-1.55795e-07
-1.66604e-08
1.58422e-07
2.30618e-08
-1.08994e-07
-2.49412e-08
1.10873e-07
3.08822e-08
-7.74693e-08
-3.28369e-08
7.94241e-08
3.79442e-08
-4.71165e-08
-3.94522e-08
4.86245e-08
4.37942e-08
-1.74057e-08
-4.48418e-08
1.84533e-08
4.56311e-08
1.37315e-08
-4.50055e-08
-1.43571e-08
4.16891e-08
3.14518e-08
-4.06022e-08
-3.25388e-08
3.758e-08
3.92614e-08
-3.65734e-08
-4.0268e-08
3.33854e-08
4.33969e-08
-3.22998e-08
-4.44825e-08
2.89109e-08
4.46934e-08
-2.77871e-08
-4.58172e-08
2.43432e-08
4.3995e-08
-2.3217e-08
-4.51211e-08
1.98018e-08
4.19397e-08
-1.86954e-08
-4.30461e-08
1.53645e-08
3.89997e-08
-1.42925e-08
-4.00717e-08
1.10802e-08
3.54911e-08
-1.0049e-08
-3.65224e-08
6.95974e-09
3.17779e-08
-5.96844e-09
-3.27692e-08
3.00496e-09
2.82189e-08
-2.05568e-09
-2.91682e-08
-7.83223e-10
2.53019e-08
1.695e-09
-2.62137e-08
-4.09364e-09
2.30955e-08
4.73884e-09
-2.37407e-08
9.28423e-09
1.8461e-07
-1.7857e-07
-1.53243e-08
9.70914e-09
1.72305e-07
-6.23081e-09
-1.75783e-07
-7.60056e-09
2.44589e-07
1.21933e-08
-2.49181e-07
-2.54738e-08
2.19364e-07
2.9659e-08
-2.23549e-07
-4.30972e-08
1.38862e-07
4.47874e-08
-1.40552e-07
-4.72597e-08
1.07083e-07
4.87645e-08
-1.08587e-07
-5.54482e-08
1.18142e-07
5.82428e-08
-1.20936e-07
-7.20572e-08
8.87015e-08
7.57505e-08
-9.23949e-08
-9.0133e-08
-8.2565e-08
9.06026e-08
8.20954e-08
-6.41113e-08
-3.16287e-07
5.5586e-08
3.24812e-07
-2.99765e-08
-3.27766e-07
2.11389e-08
3.36603e-07
2.68555e-10
-2.47387e-07
-5.40026e-09
2.52519e-07
1.64128e-08
-1.66061e-07
-1.88652e-08
1.68513e-07
2.46129e-08
-1.16301e-07
-2.63347e-08
1.18023e-07
3.248e-08
-8.5615e-08
-3.46782e-08
8.78131e-08
4.00488e-08
-5.33248e-08
-4.16495e-08
5.49255e-08
4.72745e-08
-2.22573e-08
-4.88202e-08
2.38029e-08
5.02114e-08
1.67026e-08
-4.92264e-08
-1.76876e-08
4.40261e-08
3.61263e-08
-4.27319e-08
-3.74205e-08
3.98057e-08
4.33732e-08
-3.87392e-08
-4.44397e-08
3.53727e-08
4.78551e-08
-3.42071e-08
-4.90207e-08
3.05759e-08
4.93077e-08
-2.93721e-08
-5.05116e-08
2.56837e-08
4.86243e-08
-2.44747e-08
-4.98333e-08
2.07928e-08
4.65053e-08
-1.95936e-08
-4.77045e-08
1.59601e-08
4.34496e-08
-1.47825e-08
-4.46272e-08
1.12253e-08
3.98107e-08
-1.00728e-08
-4.09633e-08
6.58015e-09
3.5993e-08
-5.44406e-09
-3.71291e-08
1.99604e-09
3.23248e-08
-8.76778e-10
-3.34441e-08
-2.47916e-09
2.91836e-08
3.54827e-09
-3.02527e-08
-6.67151e-09
2.66327e-08
7.6295e-09
-2.75907e-08
1.06496e-08
2.10542e-07
-2.03782e-07
-1.74093e-08
1.0557e-08
1.86191e-07
-7.10215e-09
-1.89646e-07
-7.3253e-09
2.63002e-07
1.19425e-08
-2.6762e-07
-2.54961e-08
2.36156e-07
2.97062e-08
-2.40366e-07
-4.43176e-08
1.45242e-07
4.57414e-08
-1.46666e-07
-4.7039e-08
1.12898e-07
4.84045e-08
-1.14264e-07
-5.50326e-08
1.29219e-07
5.79508e-08
-1.32137e-07
-7.32167e-08
1.01157e-07
7.58171e-08
-1.03757e-07
-1.03146e-07
-8.80534e-08
9.84221e-08
9.27773e-08
-6.60038e-08
-3.54269e-07
5.42329e-08
3.66039e-07
-2.96725e-08
-3.64571e-07
1.98816e-08
3.74362e-07
3.08702e-09
-2.68145e-07
-8.37388e-09
2.73432e-07
1.91093e-08
-1.75531e-07
-2.13209e-08
1.77743e-07
2.6097e-08
-1.22831e-07
-2.75527e-08
1.24287e-07
3.39741e-08
-9.49655e-08
-3.6596e-08
9.75873e-08
4.20095e-08
-5.96271e-08
-4.34686e-08
6.10862e-08
5.11173e-08
-2.95884e-08
-5.35251e-08
3.19963e-08
5.61996e-08
2.16114e-08
-5.4408e-08
-2.34031e-08
4.51281e-08
4.13097e-08
-4.39974e-08
-4.24405e-08
4.23777e-08
4.77766e-08
-4.12023e-08
-4.8952e-08
3.7582e-08
5.26573e-08
-3.63186e-08
-5.39206e-08
3.24167e-08
5.42445e-08
-3.11321e-08
-5.55291e-08
2.72074e-08
5.35802e-08
-2.59194e-08
-5.48682e-08
2.19822e-08
5.14366e-08
-2.0694e-08
-5.27248e-08
1.67751e-08
4.83052e-08
-1.55018e-08
-4.95785e-08
1.16598e-08
4.45574e-08
-1.04201e-08
-4.5797e-08
6.69778e-09
4.06392e-08
-5.50239e-09
-4.18346e-08
1.93495e-09
3.68484e-08
-7.97994e-10
-3.79854e-08
-2.55416e-09
3.3459e-08
3.6075e-09
-3.45124e-08
-6.65539e-09
3.04418e-08
7.59186e-09
-3.13783e-08
1.22408e-08
2.39571e-07
-2.32003e-07
-1.98093e-08
1.14142e-08
1.99944e-07
-8.00933e-09
-2.03349e-07
-7.03655e-09
2.81473e-07
1.16483e-08
-2.86085e-07
-2.55044e-08
2.52957e-07
2.96692e-08
-2.57121e-07
-4.58498e-08
1.50458e-07
4.69386e-08
-1.51547e-07
-4.66996e-08
1.1812e-07
4.78964e-08
-1.19317e-07
-5.4463e-08
1.42137e-07
5.83314e-08
-1.46006e-07
-7.26655e-08
1.12776e-07
7.63322e-08
-1.16442e-07
-1.11405e-07
-1.15235e-07
1.01666e-07
1.24974e-07
-7.00551e-08
-4.07497e-07
5.50084e-08
4.2254e-07
-2.87381e-08
-4.05134e-07
1.80316e-08
4.15841e-07
6.50343e-09
-2.89396e-07
-1.18743e-08
2.94767e-07
2.21898e-08
-1.83927e-07
-2.40859e-08
1.85823e-07
2.74418e-08
-1.28058e-07
-2.84527e-08
1.29069e-07
3.51309e-08
-1.06435e-07
-3.84636e-08
1.09767e-07
4.31161e-08
-6.47803e-08
-4.41338e-08
6.57981e-08
5.51924e-08
-4.11351e-08
-5.89936e-08
4.49364e-08
6.36481e-08
3.11954e-08
-6.0115e-08
-3.47284e-08
4.53628e-08
4.46026e-08
-4.49941e-08
-4.49713e-08
4.55274e-08
5.27483e-08
-4.41533e-08
-5.41224e-08
3.99777e-08
5.787e-08
-3.86115e-08
-5.92361e-08
3.44264e-08
5.94943e-08
-3.30707e-08
-6.085e-08
2.89305e-08
5.88405e-08
-2.75728e-08
-6.01983e-08
2.34032e-08
5.67178e-08
-2.20301e-08
-5.80909e-08
1.78299e-08
5.35392e-08
-1.64613e-08
-5.49079e-08
1.2341e-08
4.96361e-08
-1.10203e-08
-5.09568e-08
7.10121e-09
4.5488e-08
-5.86176e-09
-4.67275e-08
2.23243e-09
4.13938e-08
-1.10017e-09
-4.25261e-08
-2.16337e-09
3.76061e-08
3.16479e-09
-3.86076e-08
-5.99506e-09
3.40845e-08
6.84429e-09
-3.49338e-08
1.41025e-08
2.72091e-07
-2.63612e-07
-2.25819e-08
1.22567e-08
2.1345e-07
-8.9374e-09
-2.1677e-07
-6.73449e-09
2.99867e-07
1.12994e-08
-3.04432e-07
-2.55037e-08
2.69416e-07
2.95022e-08
-2.73414e-07
-4.78357e-08
1.54213e-07
4.85025e-08
-1.5488e-07
-4.6202e-08
1.22611e-07
4.72055e-08
-1.23614e-07
-5.43784e-08
1.59415e-07
5.93508e-08
-1.64387e-07
-6.80199e-08
1.3297e-07
7.69009e-08
-1.41851e-07
-1.12912e-07
-1.53362e-07
1.06887e-07
1.59386e-07
-7.48904e-08
-4.67098e-07
6.02002e-08
4.81789e-07
-2.6433e-08
-4.49045e-07
1.50849e-08
4.60393e-07
1.05721e-08
-3.10924e-07
-1.59864e-08
3.16338e-07
2.57549e-08
-1.90943e-07
-2.72608e-08
1.92449e-07
2.858e-08
-1.311e-07
-2.8838e-08
1.31358e-07
3.47124e-08
-1.20456e-07
-3.79762e-08
1.2372e-07
4.00795e-08
-7.02278e-08
-4.31848e-08
7.33332e-08
5.92471e-08
-5.89101e-08
-6.47548e-08
6.44177e-08
7.18946e-08
4.77013e-08
-6.67141e-08
-5.28819e-08
5.11167e-08
4.57983e-08
-5.09303e-08
-4.59847e-08
4.87559e-08
5.85492e-08
-4.72052e-08
-6.00999e-08
4.25089e-08
6.34921e-08
-4.10165e-08
-6.49845e-08
3.65847e-08
6.50089e-08
-3.5169e-08
-6.64246e-08
3.08568e-08
6.43574e-08
-2.9447e-08
-6.57672e-08
2.50858e-08
6.23332e-08
-2.36324e-08
-6.37866e-08
1.91341e-08
5.91705e-08
-1.76585e-08
-6.06461e-08
1.32356e-08
5.50431e-08
-1.18363e-08
-5.64424e-08
7.77998e-09
5.04823e-08
-6.53502e-09
-5.17272e-08
3.01814e-09
4.58512e-08
-1.96432e-09
-4.6905e-08
-9.45247e-10
4.14374e-08
1.79812e-09
-4.22903e-08
-4.10077e-09
3.72272e-08
4.75885e-09
-3.78853e-08
1.62842e-08
3.08534e-07
-2.99029e-07
-2.57888e-08
1.30498e-08
2.26532e-07
-9.87662e-09
-2.29705e-07
-6.41659e-09
3.1799e-07
1.08776e-08
-3.22451e-07
-2.54897e-08
2.84937e-07
2.91178e-08
-2.88565e-07
-5.04286e-08
1.5608e-07
5.05039e-08
-1.56155e-07
-4.54357e-08
1.26449e-07
4.63598e-08
-1.27373e-07
-5.44185e-08
1.78657e-07
5.79559e-08
-1.82195e-07
-5.55245e-08
1.79398e-07
6.93903e-08
-1.93264e-07
-9.3155e-08
-1.53174e-07
1.04728e-07
1.41601e-07
-8.50905e-08
-5.29868e-07
6.50431e-08
5.49915e-07
-2.20549e-08
-4.95173e-07
1.07709e-08
5.06457e-07
1.54428e-08
-3.32594e-07
-2.08367e-08
3.37988e-07
2.99259e-08
-1.96289e-07
-3.09794e-08
1.97342e-07
2.94501e-08
-1.30395e-07
-2.8398e-08
1.29343e-07
2.84263e-08
-1.28508e-07
-2.72755e-08
1.27357e-07
2.93642e-08
-9.3139e-08
-3.99548e-08
1.0373e-07
6.24589e-08
-8.31561e-08
-6.92605e-08
8.99576e-08
7.48519e-08
7.18918e-08
-6.77544e-08