/*--------------------------------*- C++ -*----------------------------------*\
| =========                 |                                                 |
| \\      /  F ield         | OpenFOAM: The Open Source CFD Toolbox           |
|  \\    /   O peration     | Version:  2.4.0                                 |
|   \\  /    A nd           | Web:      www.OpenFOAM.org                      |
|    \\/     M anipulation  |                                                 |
\*---------------------------------------------------------------------------*/
FoamFile
{
    version     2.0;
    format      ascii;
    class       surfaceScalarField;
    location    "0.161";
    object      phi;
}
// * * * * * * * * * * * * * * * * * * * * * * * * * * * * * * * * * * * * * //

dimensions      [0 3 -1 0 0 0 0];

internalField   nonuniform List<scalar> 
119500
(
-8.88686e-13
8.88686e-13
-1.96932e-12
1.08118e-12
-3.13088e-12
1.16203e-12
-4.28936e-12
1.15895e-12
-5.44122e-12
1.15233e-12
-6.58047e-12
1.13972e-12
-7.70736e-12
1.12734e-12
-8.82129e-12
1.11437e-12
-9.92138e-12
1.10051e-12
-1.10084e-11
1.0874e-12
-1.20845e-11
1.07646e-12
-1.31531e-11
1.06901e-12
-1.42186e-11
1.0658e-12
-1.5286e-11
1.0678e-12
-1.63613e-11
1.07555e-12
-1.74506e-11
1.08961e-12
-1.85609e-11
1.11059e-12
-1.96996e-11
1.13908e-12
-2.08744e-11
1.17509e-12
-2.20931e-11
1.21894e-12
-2.33628e-11
1.27014e-12
-2.46905e-11
1.32802e-12
-2.60822e-11
1.39211e-12
-2.75426e-11
1.46079e-12
-2.90757e-11
1.53353e-12
-3.06844e-11
1.60908e-12
-3.23705e-11
1.68654e-12
-3.41349e-11
1.7648e-12
-3.59773e-11
1.84278e-12
-3.78965e-11
1.91958e-12
-3.989e-11
1.99383e-12
-4.19545e-11
2.06497e-12
-4.40878e-11
2.13367e-12
-4.62866e-11
2.19922e-12
-4.85481e-11
2.26205e-12
-5.08692e-11
2.32152e-12
-5.3247e-11
2.37838e-12
-5.56806e-11
2.43412e-12
-5.81677e-11
2.48766e-12
-6.07069e-11
2.53983e-12
-6.32995e-11
2.59326e-12
-6.59454e-11
2.64659e-12
-6.8646e-11
2.70123e-12
-7.1402e-11
2.75675e-12
-7.42146e-11
2.81333e-12
-7.70862e-11
2.87226e-12
-8.00159e-11
2.93044e-12
-8.30047e-11
2.98948e-12
-8.60537e-11
3.04957e-12
-8.91623e-11
3.10927e-12
-9.23295e-11
3.16777e-12
-9.55544e-11
3.22538e-12
-9.88342e-11
3.28029e-12
-1.02165e-10
3.33157e-12
-1.05543e-10
3.37837e-12
-1.08963e-10
3.41959e-12
-1.12417e-10
3.45511e-12
-1.15902e-10
3.48461e-12
-1.19408e-10
3.50699e-12
-1.2293e-10
3.52135e-12
-1.26457e-10
3.5274e-12
-1.29981e-10
3.52445e-12
-1.33494e-10
3.5125e-12
-1.36985e-10
3.49062e-12
-1.40443e-10
3.45857e-12
-1.4386e-10
3.41633e-12
-1.47224e-10
3.36402e-12
-1.50526e-10
3.30123e-12
-1.53754e-10
3.22757e-12
-1.56897e-10
3.14342e-12
-1.59947e-10
3.04969e-12
-1.62895e-10
2.94708e-12
-1.6573e-10
2.83518e-12
-1.68443e-10
2.71322e-12
-1.71026e-10
2.58259e-12
-1.7347e-10
2.44386e-12
-1.75767e-10
2.29627e-12
-1.77907e-10
2.14043e-12
-1.79884e-10
1.97693e-12
-1.81692e-10
1.80749e-12
-1.83322e-10
1.63003e-12
-1.84768e-10
1.44534e-12
-1.86021e-10
1.25275e-12
-1.87074e-10
1.05286e-12
-1.87919e-10
8.45043e-13
-1.88549e-10
6.30277e-13
-1.88956e-10
4.06747e-13
-1.89136e-10
1.79682e-13
-1.89082e-10
-5.40881e-14
-1.88787e-10
-2.95361e-13
-1.88243e-10
-5.44408e-13
-1.87442e-10
-8.01104e-13
-1.86374e-10
-1.06796e-12
-1.85033e-10
-1.34203e-12
-1.83398e-10
-1.63473e-12
-1.81476e-10
-1.92224e-12
-1.7924e-10
-2.236e-12
-1.76694e-10
-2.54618e-12
-1.7371e-10
-2.98386e-12
-3.40434e-12
-1.70306e-10
-1.38287e-12
2.2721e-12
-3.22853e-12
2.92778e-12
-5.14719e-12
3.08155e-12
-7.08018e-12
3.0928e-12
-8.98401e-12
3.05701e-12
-1.08522e-11
3.00873e-12
-1.2679e-11
2.95492e-12
-1.44609e-11
2.89705e-12
-1.61958e-11
2.83608e-12
-1.78827e-11
2.77496e-12
-1.95223e-11
2.71678e-12
-2.11168e-11
2.6641e-12
-2.26697e-11
2.61928e-12
-2.41866e-11
2.5853e-12
-2.56752e-11
2.5647e-12
-2.71441e-11
2.55899e-12
-2.86035e-11
2.57054e-12
-3.00643e-11
2.6005e-12
-3.15379e-11
2.64923e-12
-3.30357e-11
2.71733e-12
-3.45686e-11
2.80378e-12
-3.61472e-11
2.90732e-12
-3.77812e-11
3.02682e-12
-3.94791e-11
3.15935e-12
-4.12478e-11
3.30295e-12
-4.30937e-11
3.45571e-12
-4.5021e-11
3.61456e-12
-4.70331e-11
3.77756e-12
-4.91321e-11
3.94245e-12
-5.13185e-11
4.10673e-12
-5.35932e-11
4.26931e-12
-5.59546e-11
4.42716e-12
-5.84016e-11
4.58147e-12
-6.09317e-11
4.73019e-12
-6.35425e-11
4.87367e-12
-6.62295e-11
5.0095e-12
-6.89911e-11
5.14101e-12
-7.18257e-11
5.26978e-12
-7.47333e-11
5.39629e-12
-7.77131e-11
5.52078e-12
-8.07655e-11
5.64696e-12
-8.38909e-11
5.77323e-12
-8.7091e-11
5.90251e-12
-9.03665e-11
6.03359e-12
-9.3718e-11
6.16604e-12
-9.71489e-11
6.30444e-12
-1.0066e-10
6.44245e-12
-1.04254e-10
6.58444e-12
-1.07933e-10
6.73012e-12
-1.11698e-10
6.87566e-12
-1.15548e-10
7.01883e-12
-1.19481e-10
7.15884e-12
-1.23493e-10
7.29264e-12
-1.27581e-10
7.42079e-12
-1.31741e-10
7.53876e-12
-1.35967e-10
7.64654e-12
-1.40255e-10
7.74329e-12
-1.44597e-10
7.82665e-12
-1.48984e-10
7.89484e-12
-1.53409e-10
7.94612e-12
-1.57861e-10
7.97954e-12
-1.6233e-10
7.99288e-12
-1.66803e-10
7.98605e-12
-1.7127e-10
7.95683e-12
-1.75716e-10
7.9039e-12
-1.80127e-10
7.82729e-12
-1.8449e-10
7.7268e-12
-1.88791e-10
7.60136e-12
-1.93014e-10
7.45009e-12
-1.97145e-10
7.27386e-12
-2.0117e-10
7.07406e-12
-2.05075e-10
6.85213e-12
-2.08848e-10
6.60791e-12
-2.12476e-10
6.34055e-12
-2.15947e-10
6.0534e-12
-2.1925e-10
5.7467e-12
-2.22374e-10
5.41977e-12
-2.25307e-10
5.0725e-12
-2.28036e-10
4.70612e-12
-2.30552e-10
4.32306e-12
-2.32844e-10
3.92142e-12
-2.34902e-10
3.50355e-12
-2.3672e-10
3.07065e-12
-2.3829e-10
2.62168e-12
-2.39602e-10
2.15732e-12
-2.40651e-10
1.67885e-12
-2.41431e-10
1.18658e-12
-2.41935e-10
6.83298e-13
-2.42156e-10
1.66315e-13
-2.42087e-10
-3.64927e-13
-2.41718e-10
-9.13547e-13
-2.4104e-10
-1.47933e-12
-2.40042e-10
-2.06624e-12
-2.38713e-10
-2.6718e-12
-2.37033e-10
-3.31474e-12
-2.34996e-10
-3.95976e-12
-2.32554e-10
-4.6784e-12
-2.29638e-10
-5.46193e-12
-2.26022e-10
-6.6009e-12
-8.15503e-12
-2.21272e-10
-1.55552e-12
3.8281e-12
-3.68162e-12
5.05468e-12
-5.89031e-12
5.29099e-12
-8.11484e-12
5.31807e-12
-1.03125e-11
5.2554e-12
-1.24669e-11
5.16383e-12
-1.45703e-11
5.05901e-12
-1.6618e-11
4.94542e-12
-1.86072e-11
4.82585e-12
-2.05361e-11
4.70444e-12
-2.24046e-11
4.58581e-12
-2.42144e-11
4.47434e-12
-2.59686e-11
4.37397e-12
-2.7672e-11
4.28922e-12
-2.93316e-11
4.22472e-12
-3.09555e-11
4.18334e-12
-3.25534e-11
4.16891e-12
-3.41362e-11
4.18372e-12
-3.57151e-11
4.22865e-12
-3.73019e-11
4.30465e-12
-3.89079e-11
4.41029e-12
-4.05439e-11
4.54388e-12
-4.22198e-11
4.70331e-12
-4.39446e-11
4.88466e-12
-4.57259e-11
5.08478e-12
-4.75705e-11
5.30093e-12
-4.94831e-11
5.52773e-12
-5.14682e-11
5.76324e-12
-5.35286e-11
6.00343e-12
-5.56663e-11
6.24495e-12
-5.78819e-11
6.48553e-12
-6.01755e-11
6.72145e-12
-6.25461e-11
6.95273e-12
-6.49917e-11
7.17649e-12
-6.75102e-11
7.39296e-12
-7.01001e-11
7.60022e-12
-7.27602e-11
7.80192e-12
-7.54891e-11
7.99957e-12
-7.82862e-11
8.19434e-12
-8.11521e-11
8.38774e-12
-8.40889e-11
8.58472e-12
-8.70963e-11
8.78168e-12
-9.01777e-11
8.985e-12
-9.33347e-11
9.19168e-12
-9.65687e-11
9.40106e-12
-9.98838e-11
9.6206e-12
-1.03283e-10
9.84262e-12
-1.06768e-10
1.00706e-11
-1.10343e-10
1.0306e-11
-1.14008e-10
1.05411e-11
-1.17762e-10
1.07732e-11
-1.21603e-10
1.10012e-11
-1.25531e-10
1.12211e-11
-1.29542e-10
1.14324e-11
-1.33634e-10
1.16312e-11
-1.37801e-10
1.18143e-11
-1.42039e-10
1.19817e-11
-1.46342e-10
1.21298e-11
-1.50702e-10
1.2255e-11
-1.55111e-10
1.23548e-11
-1.5956e-10
1.24282e-11
-1.64038e-10
1.24709e-11
-1.68534e-10
1.24826e-11
-1.73038e-10
1.24601e-11
-1.77535e-10
1.24009e-11
-1.82013e-10
1.23046e-11
-1.86458e-10
1.21711e-11
-1.90855e-10
1.19982e-11
-1.9519e-10
1.17847e-11
-1.99449e-10
1.1532e-11
-2.03617e-10
1.12419e-11
-2.07682e-10
1.09164e-11
-2.1163e-10
1.05562e-11
-2.15451e-10
1.01609e-11
-2.19132e-10
9.73392e-12
-2.2266e-10
9.27507e-12
-2.26026e-10
8.78487e-12
-2.29217e-10
8.2632e-12
-2.32223e-10
7.71164e-12
-2.35032e-10
7.13206e-12
-2.37638e-10
6.52678e-12
-2.40028e-10
5.89356e-12
-2.42197e-10
5.23924e-12
-2.44137e-10
4.56088e-12
-2.45842e-10
3.86198e-12
-2.47306e-10
3.1429e-12
-2.48525e-10
2.40525e-12
-2.49491e-10
1.64893e-12
-2.50196e-10
8.71459e-13
-2.50631e-10
7.00719e-14
-2.50789e-10
-7.56627e-13
-2.50657e-10
-1.61126e-12
-2.50224e-10
-2.49881e-12
-2.49479e-10
-3.41751e-12
-2.48403e-10
-4.39102e-12
-2.46974e-10
-5.38924e-12
-2.45132e-10
-6.52083e-12
-2.42757e-10
-7.83692e-12
-2.39503e-10
-9.85487e-12
-1.28195e-11
-2.34839e-10
-1.67158e-12
5.50012e-12
-3.87351e-12
7.25737e-12
-6.21558e-12
7.63376e-12
-8.56419e-12
7.66736e-12
-1.08873e-11
7.57915e-12
-1.31666e-11
7.44385e-12
-1.53932e-11
7.28617e-12
-1.75613e-11
7.11414e-12
-1.96675e-11
6.93255e-12
-2.17095e-11
6.74695e-12
-2.36868e-11
6.56358e-12
-2.5601e-11
6.389e-12
-2.74556e-11
6.22889e-12
-2.9255e-11
6.08902e-12
-3.10057e-11
5.97585e-12
-3.27162e-11
5.89419e-12
-3.43956e-11
5.84873e-12
-3.60546e-11
5.8431e-12
-3.77042e-11
5.87867e-12
-3.93556e-11
5.95646e-12
-4.10201e-11
6.07526e-12
-4.27083e-11
6.23257e-12
-4.443e-11
6.42549e-12
-4.61943e-11
6.64945e-12
-4.80091e-11
6.89999e-12
-4.98807e-11
7.17297e-12
-5.18149e-11
7.46249e-12
-5.38157e-11
7.76453e-12
-5.5886e-11
8.07423e-12
-5.80274e-11
8.38683e-12
-6.02401e-11
8.69877e-12
-6.25241e-11
9.00611e-12
-6.48779e-11
9.30718e-12
-6.73001e-11
9.59934e-12
-6.97884e-11
9.88191e-12
-7.23416e-11
1.01542e-11
-7.49581e-11
1.04193e-11
-7.76375e-11
1.06798e-11
-8.03792e-11
1.09369e-11
-8.31855e-11
1.1195e-11
-8.60548e-11
1.1455e-11
-8.89898e-11
1.17176e-11
-9.19939e-11
1.199e-11
-9.50676e-11
1.22664e-11
-9.82163e-11
1.25507e-11
-1.01442e-10
1.28472e-11
-1.04749e-10
1.31506e-11
-1.0814e-10
1.34625e-11
-1.11616e-10
1.37823e-11
-1.15177e-10
1.41032e-11
-1.18826e-10
1.44231e-11
-1.22562e-10
1.47378e-11
-1.26384e-10
1.50435e-11
-1.3029e-10
1.53386e-11
-1.34277e-10
1.56183e-11
-1.3834e-10
1.58784e-11
-1.42476e-10
1.6118e-11
-1.46679e-10
1.63327e-11
-1.50942e-10
1.65175e-11
-1.55256e-10
1.66697e-11
-1.59613e-10
1.67842e-11
-1.64003e-10
1.68608e-11
-1.68415e-10
1.68946e-11
-1.72838e-10
1.68831e-11
-1.7726e-10
1.68228e-11
-1.81669e-10
1.6713e-11
-1.86051e-10
1.65526e-11
-1.90392e-10
1.6339e-11
-1.94679e-10
1.60712e-11
-1.98899e-10
1.5751e-11
-2.03038e-10
1.53805e-11
-2.07084e-10
1.49618e-11
-2.11024e-10
1.44958e-11
-2.14847e-10
1.39843e-11
-2.18543e-10
1.3429e-11
-2.22099e-10
1.28308e-11
-2.25505e-10
1.2191e-11
-2.28753e-10
1.15103e-11
-2.31832e-10
1.07901e-11
-2.34733e-10
1.0033e-11
-2.37448e-10
9.2411e-12
-2.39969e-10
8.41504e-12
-2.42291e-10
7.56043e-12
-2.44406e-10
6.67571e-12
-2.4631e-10
5.76525e-12
-2.47996e-10
4.82953e-12
-2.49463e-10
3.87143e-12
-2.50702e-10
2.88831e-12
-2.51709e-10
1.8775e-12
-2.52473e-10
8.3391e-13
-2.52985e-10
-2.44065e-13
-2.53236e-10
-1.36042e-12
-2.53213e-10
-2.52204e-12
-2.52901e-10
-3.73007e-12
-2.52279e-10
-5.01262e-12
-2.51316e-10
-6.35287e-12
-2.49946e-10
-7.89058e-12
-2.48014e-10
-9.76916e-12
-2.45149e-10
-1.27207e-11
-1.71744e-11
-2.40794e-10
-1.71121e-12
7.21174e-12
-3.97514e-12
9.52202e-12
-6.36927e-12
1.00285e-11
-8.77399e-12
1.00727e-11
-1.1154e-11
9.95976e-12
-1.34903e-11
9.78077e-12
-1.57732e-11
9.56966e-12
-1.79965e-11
9.33803e-12
-2.01562e-11
9.09274e-12
-2.22499e-11
8.84107e-12
-2.42769e-11
8.59099e-12
-2.62386e-11
8.35101e-12
-2.81382e-11
8.12888e-12
-2.99807e-11
7.93191e-12
-3.17726e-11
7.76807e-12
-3.35224e-11
7.6443e-12
-3.52396e-11
7.56632e-12
-3.69346e-11
7.53847e-12
-3.86187e-11
7.56311e-12
-4.0303e-11
7.64112e-12
-4.1999e-11
7.7717e-12
-4.37178e-11
7.95168e-12
-4.54689e-11
8.17697e-12
-4.72618e-11
8.44279e-12
-4.91045e-11
8.7431e-12
-5.10035e-11
9.07235e-12
-5.29646e-11
9.42404e-12
-5.49916e-11
9.79196e-12
-5.70869e-11
1.017e-11
-5.92522e-11
1.05526e-11
-6.14868e-11
1.09339e-11
-6.37908e-11
1.13107e-11
-6.61617e-11
1.16787e-11
-6.85983e-11
1.20366e-11
-7.10978e-11
1.23821e-11
-7.36594e-11
1.27166e-11
-7.62809e-11
1.30415e-11
-7.89623e-11
1.33621e-11
-8.17022e-11
1.36776e-11
-8.45024e-11
1.39961e-11
-8.73634e-11
1.43168e-11
-9.0286e-11
1.46411e-11
-9.32735e-11
1.49784e-11
-9.6328e-11
1.53217e-11
-9.94532e-11
1.56766e-11
-1.02652e-10
1.60473e-11
-1.05929e-10
1.64281e-11
-1.09287e-10
1.68211e-11
-1.12726e-10
1.72222e-11
-1.16249e-10
1.76264e-11
-1.19856e-10
1.80311e-11
-1.23549e-10
1.84308e-11
-1.27326e-10
1.88209e-11
-1.31186e-10
1.9199e-11
-1.35126e-10
1.95585e-11
-1.39142e-10
1.98953e-11
-1.43231e-10
2.02069e-11
-1.47386e-10
2.04881e-11
-1.51601e-10
2.07323e-11
-1.55867e-10
2.0936e-11
-1.60177e-10
2.10938e-11
-1.64519e-10
2.12026e-11
-1.68883e-10
2.12588e-11
-1.73259e-10
2.12584e-11
-1.77634e-10
2.11976e-11
-1.81997e-10
2.10752e-11
-1.86334e-10
2.0889e-11
-1.90631e-10
2.06362e-11
-1.94877e-10
2.03165e-11
-1.99059e-10
1.99322e-11
-2.03164e-10
1.94851e-11
-2.0718e-10
1.89772e-11
-2.11094e-10
1.84101e-11
-2.14897e-10
1.77861e-11
-2.18576e-10
1.71077e-11
-2.22121e-10
1.63755e-11
-2.25523e-10
1.55929e-11
-2.28773e-10
1.47601e-11
-2.31864e-10
1.38803e-11
-2.34784e-10
1.2953e-11
-2.3753e-10
1.19872e-11
-2.40098e-10
1.09819e-11
-2.42477e-10
9.9397e-12
-2.44663e-10
8.86158e-12
-2.46652e-10
7.75314e-12
-2.4844e-10
6.61748e-12
-2.50022e-10
5.45323e-12
-2.51393e-10
4.2593e-12
-2.52547e-10
3.03177e-12
-2.53479e-10
1.76586e-12
-2.5418e-10
4.57101e-13
-2.54641e-10
-8.99912e-13
-2.54848e-10
-2.31518e-12
-2.54782e-10
-3.79567e-12
-2.54422e-10
-5.37292e-12
-2.53728e-10
-7.04716e-12
-2.52629e-10
-8.9898e-12
-2.50943e-10
-1.1455e-11
-2.48271e-10
-1.53937e-11
-2.15352e-11
-2.4391e-10
-1.7313e-12
8.94344e-12
-4.03014e-12
1.18215e-11
-6.4544e-12
1.24534e-11
-8.88595e-12
1.25049e-11
-1.1293e-11
1.23674e-11
-1.36564e-11
1.21447e-11
-1.59659e-11
1.18796e-11
-1.82146e-11
1.15873e-11
-2.03981e-11
1.12766e-11
-2.25135e-11
1.09569e-11
-2.45603e-11
1.06382e-11
-2.65397e-11
1.03307e-11
-2.84549e-11
1.00444e-11
-3.03112e-11
9.78854e-12
-3.21152e-11
9.5724e-12
-3.38756e-11
9.40495e-12
-3.56022e-11
9.29322e-12
-3.73056e-11
9.24225e-12
-3.89977e-11
9.25547e-12
-4.069e-11
9.33375e-12
-4.23938e-11
9.47593e-12
-4.41211e-11
9.67925e-12
-4.58817e-11
9.93797e-12
-4.7685e-11
1.02464e-11
-4.95398e-11
1.05982e-11
-5.14523e-11
1.09853e-11
-5.34283e-11
1.14005e-11
-5.54719e-11
1.18359e-11
-5.75846e-11
1.22833e-11
-5.97683e-11
1.27367e-11
-6.20218e-11
1.31879e-11
-6.43444e-11
1.36339e-11
-6.67338e-11
1.40688e-11
-6.91879e-11
1.44913e-11
-7.17041e-11
1.48991e-11
-7.42809e-11
1.52942e-11
-7.69169e-11
1.56784e-11
-7.96104e-11
1.60564e-11
-8.23618e-11
1.64299e-11
-8.5171e-11
1.68062e-11
-8.80386e-11
1.71852e-11
-9.09674e-11
1.75707e-11
-9.3958e-11
1.79699e-11
-9.70129e-11
1.83774e-11
-1.00138e-10
1.88025e-11
-1.03334e-10
1.92443e-11
-1.06606e-10
1.9701e-11
-1.09958e-10
2.01728e-11
-1.13389e-10
2.06543e-11
-1.16903e-10
2.11406e-11
-1.205e-10
2.16289e-11
-1.24181e-10
2.21127e-11
-1.27947e-10
2.25868e-11
-1.31795e-10
2.30475e-11
-1.35724e-10
2.34874e-11
-1.39729e-10
2.3901e-11
-1.43807e-10
2.42848e-11
-1.47951e-10
2.46328e-11
-1.52156e-10
2.49364e-11
-1.56411e-10
2.51918e-11
-1.6071e-10
2.53926e-11
-1.65041e-10
2.5533e-11
-1.69393e-10
2.56112e-11
-1.73757e-10
2.56213e-11
-1.78119e-10
2.55599e-11
-1.82469e-10
2.54244e-11
-1.86793e-10
2.52123e-11
-1.91078e-10
2.49208e-11
-1.95312e-10
2.455e-11
-1.99483e-10
2.41025e-11
-2.03577e-10
2.35794e-11
-2.07584e-10
2.29832e-11
-2.1149e-10
2.23162e-11
-2.15286e-10
2.1581e-11
-2.18959e-10
2.07808e-11
-2.22501e-10
1.99164e-11
-2.25902e-10
1.89933e-11
-2.29153e-10
1.80112e-11
-2.32247e-10
1.69742e-11
-2.35178e-10
1.5883e-11
-2.37938e-10
1.47474e-11
-2.40524e-10
1.35669e-11
-2.42928e-10
1.23432e-11
-2.45147e-10
1.10806e-11
-2.47176e-10
9.78198e-12
-2.49011e-10
8.45252e-12
-2.50649e-10
7.09118e-12
-2.52085e-10
5.69472e-12
-2.53313e-10
4.26012e-12
-2.54329e-10
2.78233e-12
-2.55127e-10
1.25504e-12
-2.55697e-10
-3.30418e-13
-2.56024e-10
-1.98802e-12
-2.5609e-10
-3.72956e-12
-2.55871e-10
-5.59203e-12
-2.55325e-10
-7.59376e-12
-2.54374e-10
-9.94117e-12
-2.52819e-10
-1.30094e-11
-2.50236e-10
-1.79769e-11
-2.5883e-11
-2.45888e-10
-1.74606e-12
1.06899e-11
-4.06874e-12
1.41448e-11
-6.51365e-12
1.48989e-11
-8.96299e-12
1.49548e-11
-1.13868e-11
1.47918e-11
-1.37661e-11
1.45245e-11
-1.60901e-11
1.42041e-11
-1.83517e-11
1.38494e-11
-2.0546e-11
1.34713e-11
-2.267e-11
1.30813e-11
-2.4723e-11
1.26914e-11
-2.6706e-11
1.2314e-11
-2.86224e-11
1.19612e-11
-3.04775e-11
1.16439e-11
-3.22781e-11
1.13733e-11
-3.40332e-11
1.11604e-11
-3.57535e-11
1.10138e-11
-3.745e-11
1.0939e-11
-3.91344e-11
1.09402e-11
-4.08194e-11
1.1019e-11
-4.25168e-11
1.11737e-11
-4.42381e-11
1.14009e-11
-4.59947e-11
1.16948e-11
-4.77958e-11
1.20479e-11
-4.96503e-11
1.24531e-11
-5.15652e-11
1.29006e-11
-5.35455e-11
1.33812e-11
-5.55955e-11
1.38863e-11
-5.77168e-11
1.44051e-11
-5.991e-11
1.49305e-11
-6.2175e-11
1.54535e-11
-6.45093e-11
1.59689e-11
-6.6911e-11
1.64713e-11
-6.93769e-11
1.6958e-11
-7.19053e-11
1.74282e-11
-7.44928e-11
1.78826e-11
-7.71396e-11
1.8326e-11
-7.98424e-11
1.876e-11
-8.26021e-11
1.91904e-11
-8.54186e-11
1.96236e-11
-8.82922e-11
2.00596e-11
-9.12254e-11
2.05048e-11
-9.42196e-11
2.09649e-11
-9.72776e-11
2.14362e-11
-1.00404e-10
2.19297e-11
-1.03601e-10
2.24423e-11
-1.06873e-10
2.29732e-11
-1.10222e-10
2.35227e-11
-1.13652e-10
2.40845e-11
-1.17164e-10
2.46534e-11
-1.2076e-10
2.52256e-11
-1.24441e-10
2.57939e-11
-1.28206e-10
2.63527e-11
-1.32055e-10
2.68969e-11
-1.35985e-10
2.74179e-11
-1.39994e-10
2.79097e-11
-1.44075e-10
2.83667e-11
-1.48224e-10
2.87818e-11
-1.52434e-10
2.91458e-11
-1.56695e-10
2.94532e-11
-1.61e-10
2.96968e-11
-1.65337e-10
2.98703e-11
-1.69696e-10
2.99702e-11
-1.74066e-10
2.99911e-11
-1.78436e-10
2.99291e-11
-1.82793e-10
2.9781e-11
-1.87125e-10
2.95435e-11
-1.91418e-10
2.92135e-11
-1.95659e-10
2.87912e-11
-1.99837e-10
2.82798e-11
-2.03939e-10
2.76804e-11
-2.07952e-10
2.69957e-11
-2.11865e-10
2.62288e-11
-2.15667e-10
2.53826e-11
-2.19347e-10
2.44597e-11
-2.22896e-10
2.34652e-11
-2.26304e-10
2.24008e-11
-2.29563e-10
2.12698e-11
-2.32665e-10
2.00759e-11
-2.35607e-10
1.88245e-11
-2.38379e-10
1.75195e-11
-2.40977e-10
1.61644e-11
-2.43397e-10
1.47625e-11
-2.45634e-10
1.33173e-11
-2.47685e-10
1.18331e-11
-2.49547e-10
1.03149e-11
-2.51217e-10
8.76075e-12
-2.52689e-10
7.16654e-12
-2.53959e-10
5.52979e-12
-2.55021e-10
3.84461e-12
-2.5587e-10
2.10435e-12
-2.56498e-10
2.97455e-13
-2.56892e-10
-1.59424e-12
-2.57034e-10
-3.588e-12
-2.56899e-10
-5.72724e-12
-2.56443e-10
-8.04962e-12
-2.55586e-10
-1.07979e-11
-2.54122e-10
-1.44736e-11
-2.51609e-10
-2.04898e-11
-3.01873e-11
-2.47305e-10
-1.76019e-12
1.24504e-11
-4.1032e-12
1.64884e-11
-6.56603e-12
1.73622e-11
-9.03183e-12
1.74211e-11
-1.14706e-11
1.72311e-11
-1.38631e-11
1.69175e-11
-1.61983e-11
1.65397e-11
-1.84687e-11
1.61202e-11
-2.06689e-11
1.56719e-11
-2.2796e-11
1.52087e-11
-2.4849e-11
1.47448e-11
-2.68291e-11
1.42944e-11
-2.87395e-11
1.38718e-11
-3.05857e-11
1.34904e-11
-3.23751e-11
1.3163e-11
-3.4117e-11
1.29026e-11
-3.58226e-11
1.27197e-11
-3.75036e-11
1.26203e-11
-3.91719e-11
1.26089e-11
-4.08409e-11
1.26883e-11
-4.25232e-11
1.28564e-11
-4.42308e-11
1.31088e-11
-4.59753e-11
1.34397e-11
-4.7767e-11
1.384e-11
-4.96144e-11
1.43008e-11
-5.15248e-11
1.48114e-11
-5.35036e-11
1.53605e-11
-5.55539e-11
1.59371e-11
-5.76784e-11
1.65302e-11
-5.98763e-11
1.71289e-11
-6.21475e-11
1.77254e-11
-6.4489e-11
1.83111e-11
-6.68985e-11
1.88815e-11
-6.93722e-11
1.94325e-11
-7.19081e-11
1.9965e-11
-7.45031e-11
2.04785e-11
-7.71558e-11
2.09796e-11
-7.98642e-11
2.14693e-11
-8.2628e-11
2.19551e-11
-8.54469e-11
2.24433e-11
-8.83224e-11
2.2936e-11
-9.12565e-11
2.34397e-11
-9.42497e-11
2.3959e-11
-9.73075e-11
2.44947e-11
-1.00432e-10
2.50547e-11
-1.03627e-10
2.56384e-11
-1.06897e-10
2.62442e-11
-1.10245e-10
2.6871e-11
-1.13673e-10
2.75132e-11
-1.17185e-10
2.81652e-11
-1.20781e-10
2.88221e-11
-1.24463e-10
2.94766e-11
-1.28231e-10
3.01217e-11
-1.32085e-10
3.0751e-11
-1.36021e-10
3.13544e-11
-1.40037e-10
3.19257e-11
-1.44128e-10
3.24578e-11
-1.48287e-10
3.29407e-11
-1.52508e-10
3.33668e-11
-1.56783e-10
3.37281e-11
-1.61101e-10
3.40148e-11
-1.65453e-10
3.42224e-11
-1.69828e-10
3.43452e-11
-1.74215e-10
3.43779e-11
-1.78602e-10
3.43155e-11
-1.82977e-10
3.41551e-11
-1.87326e-10
3.38923e-11
-1.91636e-10
3.35231e-11
-1.95894e-10
3.30489e-11
-2.00088e-10
3.24733e-11
-2.04206e-10
3.17976e-11
-2.08235e-10
3.10241e-11
-2.12164e-10
3.0157e-11
-2.15981e-10
2.91991e-11
-2.19675e-10
2.81538e-11
-2.23237e-10
2.70268e-11
-2.26658e-10
2.58213e-11
-2.2993e-10
2.45407e-11
-2.33045e-10
2.31909e-11
-2.35998e-10
2.17769e-11
-2.38783e-10
2.03038e-11
-2.41393e-10
1.87741e-11
-2.43824e-10
1.71937e-11
-2.46074e-10
1.55669e-11
-2.4814e-10
1.38994e-11
-2.50019e-10
1.21934e-11
-2.51706e-10
1.04477e-11
-2.532e-10
8.66061e-12
-2.54496e-10
6.8248e-12
-2.55588e-10
4.93648e-12
-2.5647e-10
2.98699e-12
-2.57136e-10
9.63296e-13
-2.57574e-10
-1.15664e-12
-2.57766e-10
-3.3954e-12
-2.5769e-10
-5.80348e-12
-2.57303e-10
-8.43721e-12
-2.56524e-10
-1.15771e-11
-2.55144e-10
-1.58533e-11
-2.52705e-10
-2.29287e-11
-3.44387e-11
-2.48454e-10
-1.7756e-12
1.42263e-11
-4.13843e-12
1.88517e-11
-6.61966e-12
1.98439e-11
-9.10353e-12
1.99054e-11
-1.15581e-11
1.9686e-11
-1.39642e-11
1.9324e-11
-1.63103e-11
1.88862e-11
-1.85887e-11
1.83989e-11
-2.07937e-11
1.78772e-11
-2.29219e-11
1.73372e-11
-2.49725e-11
1.67958e-11
-2.69468e-11
1.6269e-11
-2.88476e-11
1.57729e-11
-3.06809e-11
1.53239e-11
-3.24548e-11
1.49372e-11
-3.4179e-11
1.46271e-11
-3.58649e-11
1.44059e-11
-3.75249e-11
1.42806e-11
-3.91721e-11
1.42564e-11
-4.08196e-11
1.43362e-11
-4.24815e-11
1.45186e-11
-4.41705e-11
1.47981e-11
-4.58982e-11
1.51678e-11
-4.7676e-11
1.56182e-11
-4.95125e-11
1.61379e-11
-5.14147e-11
1.67141e-11
-5.33887e-11
1.7335e-11
-5.5437e-11
1.7986e-11
-5.75618e-11
1.86557e-11
-5.97626e-11
1.93304e-11
-6.20377e-11
2.00013e-11
-6.43846e-11
2.06588e-11
-6.67996e-11
2.12974e-11
-6.92798e-11
2.19137e-11
-7.18211e-11
2.25073e-11
-7.44217e-11
2.30801e-11
-7.70787e-11
2.36375e-11
-7.97902e-11
2.41818e-11
-8.25555e-11
2.47213e-11
-8.53742e-11
2.52629e-11
-8.82483e-11
2.5811e-11
-9.11792e-11
2.63715e-11
-9.41693e-11
2.69499e-11
-9.72229e-11
2.75491e-11
-1.00344e-10
2.81762e-11
-1.03535e-10
2.88305e-11
-1.06802e-10
2.95117e-11
-1.10147e-10
3.02165e-11
-1.13573e-10
3.09397e-11
-1.17082e-10
3.16757e-11
-1.20679e-10
3.24189e-11
-1.24363e-10
3.31612e-11
-1.28135e-10
3.38943e-11
-1.31994e-10
3.46107e-11
-1.35938e-10
3.52986e-11
-1.39963e-10
3.59512e-11
-1.44065e-10
3.65598e-11
-1.48238e-10
3.71141e-11
-1.52475e-10
3.76035e-11
-1.56766e-10
3.80197e-11
-1.61104e-10
3.83522e-11
-1.65476e-10
3.85946e-11
-1.69873e-10
3.87415e-11
-1.74282e-10
3.87869e-11
-1.78693e-10
3.87257e-11
-1.8309e-10
3.85526e-11
-1.87462e-10
3.82631e-11
-1.91793e-10
3.7854e-11
-1.96073e-10
3.73286e-11
-2.00289e-10
3.6689e-11
-2.04429e-10
3.59365e-11
-2.08479e-10
3.50739e-11
-2.12428e-10
3.41054e-11
-2.16265e-10
3.30351e-11
-2.19978e-10
3.18665e-11
-2.23558e-10
3.06062e-11
-2.26995e-10
2.92574e-11
-2.30283e-10
2.78284e-11
-2.33413e-10
2.63207e-11
-2.36379e-10
2.47425e-11
-2.39176e-10
2.30997e-11
-2.41799e-10
2.13968e-11
-2.44242e-10
1.9637e-11
-2.46505e-10
1.7829e-11
-2.48582e-10
1.59769e-11
-2.50474e-10
1.40845e-11
-2.52175e-10
1.21487e-11
-2.53683e-10
1.01681e-11
-2.54995e-10
8.13667e-12
-2.56107e-10
6.04922e-12
-2.57016e-10
3.89508e-12
-2.57712e-10
1.66005e-12
-2.58187e-10
-6.81805e-13
-2.58425e-10
-3.15728e-12
-2.58405e-10
-5.82452e-12
-2.58084e-10
-8.75777e-12
-2.57384e-10
-1.22775e-11
-2.56092e-10
-1.7145e-11
-2.53735e-10
-2.52868e-11
-3.86688e-11
-2.49505e-10
-1.79302e-12
1.60196e-11
-4.17677e-12
2.12358e-11
-6.67817e-12
2.23456e-11
-9.18284e-12
2.24104e-11
-1.16554e-11
2.21589e-11
-1.40768e-11
2.17458e-11
-1.64349e-11
2.12447e-11
-1.87216e-11
2.0686e-11
-2.09313e-11
2.00872e-11
-2.30603e-11
1.94665e-11
-2.51074e-11
1.88432e-11
-2.70741e-11
1.82359e-11
-2.89634e-11
1.76626e-11
-3.07813e-11
1.71421e-11
-3.25365e-11
1.66928e-11
-3.42398e-11
1.63307e-11
-3.59023e-11
1.60688e-11
-3.75373e-11
1.5916e-11
-3.91591e-11
1.58786e-11
-4.07814e-11
1.5959e-11
-4.24187e-11
1.61564e-11
-4.40852e-11
1.6465e-11
-4.57929e-11
1.6876e-11
-4.75534e-11
1.73791e-11
-4.93763e-11
1.79613e-11
-5.12684e-11
1.86068e-11
-5.32356e-11
1.93028e-11
-5.5281e-11
2.00321e-11
-5.74052e-11
2.07807e-11
-5.96082e-11
2.15342e-11
-6.18868e-11
2.22808e-11
-6.42387e-11
2.30116e-11
-6.66591e-11
2.37188e-11
-6.91453e-11
2.4401e-11
-7.16923e-11
2.50554e-11
-7.42979e-11
2.56866e-11
-7.69581e-11
2.62988e-11
-7.96712e-11
2.68959e-11
-8.24365e-11
2.74876e-11
-8.52528e-11
2.80802e-11
-8.81228e-11
2.8682e-11
-9.10497e-11
2.92994e-11
-9.40356e-11
2.99368e-11
-9.70846e-11
3.05989e-11
-1.002e-10
3.12923e-11
-1.03386e-10
3.20172e-11
-1.06647e-10
3.27739e-11
-1.09987e-10
3.35574e-11
-1.1341e-10
3.43628e-11
-1.16918e-10
3.51844e-11
-1.20514e-10
3.60158e-11
-1.242e-10
3.68476e-11
-1.27976e-10
3.76712e-11
-1.31842e-10
3.84771e-11
-1.35795e-10
3.92517e-11
-1.39832e-10
3.99883e-11
-1.43947e-10
4.06757e-11
-1.48136e-10
4.13033e-11
-1.52391e-10
4.18584e-11
-1.56703e-10
4.2332e-11
-1.61063e-10
4.27121e-11
-1.6546e-10
4.29911e-11
-1.69882e-10
4.31633e-11
-1.74319e-10
4.32234e-11
-1.78758e-10
4.31643e-11
-1.83183e-10
4.29776e-11
-1.8758e-10
4.266e-11
-1.91938e-10
4.22116e-11
-1.96245e-10
4.1635e-11
-2.00487e-10
4.09306e-11
-2.04652e-10
4.01007e-11
-2.08727e-10
3.91484e-11
-2.127e-10
3.80778e-11
-2.16559e-10
3.68937e-11
-2.20294e-10
3.5601e-11
-2.23895e-10
3.42066e-11
-2.27352e-10
3.27144e-11
-2.30658e-10
3.1133e-11
-2.33804e-10
2.94666e-11
-2.36786e-10
2.77239e-11
-2.39596e-10
2.59099e-11
-2.42231e-10
2.40307e-11
-2.44687e-10
2.20928e-11
-2.46961e-10
2.01026e-11
-2.4905e-10
1.80659e-11
-2.50953e-10
1.59867e-11
-2.52665e-10
1.38608e-11
-2.54185e-10
1.16883e-11
-2.55513e-10
9.46364e-12
-2.56644e-10
7.18054e-12
-2.57576e-10
4.82725e-12
-2.58303e-10
2.3865e-12
-2.58816e-10
-1.69274e-13
-2.59101e-10
-2.87214e-12
-2.59139e-10
-5.7866e-12
-2.58893e-10
-9.00445e-12
-2.58282e-10
-1.28887e-11
-2.57094e-10
-1.83331e-11
-2.54828e-10
-2.75526e-11
-4.28616e-11
-2.50636e-10
-1.81267e-12
1.78325e-11
-4.21967e-12
2.36432e-11
-6.74356e-12
2.48698e-11
-9.27216e-12
2.49393e-11
-1.17652e-11
2.46523e-11
-1.42038e-11
2.41846e-11
-1.65756e-11
2.36167e-11
-1.88718e-11
2.29825e-11
-2.10867e-11
2.23024e-11
-2.32166e-11
2.15967e-11
-2.52599e-11
2.08868e-11
-2.72176e-11
2.0194e-11
-2.90937e-11
1.9539e-11
-3.08943e-11
1.89431e-11
-3.26283e-11
1.84272e-11
-3.43071e-11
1.801e-11
-3.59431e-11
1.77051e-11
-3.75495e-11
1.75228e-11
-3.91418e-11
1.74714e-11
-4.07353e-11
1.7553e-11
-4.23446e-11
1.77661e-11
-4.39848e-11
1.81058e-11
-4.56695e-11
1.85613e-11
-4.74102e-11
1.91204e-11
-4.92169e-11
1.97686e-11
-5.10978e-11
2.04883e-11
-5.3057e-11
2.12627e-11
-5.50987e-11
2.20746e-11
-5.72224e-11
2.29052e-11
-5.94272e-11
2.37399e-11
-6.171e-11
2.45646e-11
-6.4067e-11
2.53696e-11
-6.64938e-11
2.61467e-11
-6.89861e-11
2.68943e-11
-7.15391e-11
2.76095e-11
-7.4149e-11
2.82976e-11
-7.68122e-11
2.89631e-11
-7.9526e-11
2.96109e-11
-8.22896e-11
3.02523e-11
-8.51038e-11
3.08954e-11
-8.79705e-11
3.15497e-11
-9.08926e-11
3.22225e-11
-9.38725e-11
3.29176e-11
-9.69145e-11
3.36418e-11
-1.00023e-10
3.44014e-11
-1.03202e-10
3.51971e-11
-1.06457e-10
3.60295e-11
-1.09791e-10
3.68926e-11
-1.13209e-10
3.77818e-11
-1.16715e-10
3.86909e-11
-1.20311e-10
3.96128e-11
-1.24e-10
4.05369e-11
-1.27781e-10
4.14529e-11
-1.31654e-10
4.23505e-11
-1.35617e-10
4.32154e-11
-1.39667e-10
4.40382e-11
-1.43799e-10
4.48074e-11
-1.48006e-10
4.5511e-11
-1.52282e-10
4.61345e-11
-1.56618e-10
4.66676e-11
-1.61004e-10
4.70978e-11
-1.65428e-10
4.74157e-11
-1.69881e-10
4.76155e-11
-1.74349e-10
4.76912e-11
-1.78818e-10
4.76333e-11
-1.83273e-10
4.74323e-11
-1.87701e-10
4.70876e-11
-1.92091e-10
4.66007e-11
-1.96429e-10
4.59724e-11
-2.00701e-10
4.52026e-11
-2.04895e-10
4.42938e-11
-2.08998e-10
4.32506e-11
-2.12997e-10
4.20768e-11
-2.16882e-10
4.0778e-11
-2.20641e-10
3.93599e-11
-2.24266e-10
3.78303e-11
-2.27744e-10
3.61925e-11
-2.3107e-10
3.4458e-11
-2.34235e-10
3.26313e-11
-2.37233e-10
3.07214e-11
-2.40058e-10
2.87342e-11
-2.42707e-10
2.66791e-11
-2.45175e-10
2.45606e-11
-2.4746e-10
2.23879e-11
-2.49561e-10
2.01657e-11
-2.51474e-10
1.78993e-11
-2.53197e-10
1.55837e-11
-2.5473e-10
1.32212e-11
-2.56073e-10
1.0806e-11
-2.57224e-10
8.33137e-12
-2.5818e-10
5.78389e-12
-2.58938e-10
3.14424e-12
-2.59491e-10
3.82829e-13
-2.59827e-10
-2.53649e-12
-2.5993e-10
-5.68354e-12
-2.59765e-10
-9.16933e-12
-2.59256e-10
-1.33982e-11
-2.58188e-10
-1.9402e-11
-2.56031e-10
-2.97091e-11
-4.69996e-11
-2.51894e-10
-1.83474e-12
1.96674e-11
-4.26834e-12
2.6077e-11
-6.81736e-12
2.74191e-11
-9.37288e-12
2.74951e-11
-1.18892e-11
2.71688e-11
-1.43471e-11
2.66428e-11
-1.67343e-11
2.60041e-11
-1.90416e-11
2.52901e-11
-2.12627e-11
2.45237e-11
-2.33937e-11
2.3728e-11
-2.54329e-11
2.29263e-11
-2.73809e-11
2.21424e-11
-2.92419e-11
2.14004e-11
-3.1023e-11
2.07246e-11
-3.27335e-11
2.01381e-11
-3.43847e-11
1.96616e-11
-3.59902e-11
1.93111e-11
-3.75646e-11
1.90976e-11
-3.91237e-11
1.90309e-11
-4.06842e-11
1.91139e-11
-4.2262e-11
1.93444e-11
-4.38727e-11
1.97171e-11
-4.55311e-11
2.02202e-11
-4.72498e-11
2.08398e-11
-4.90385e-11
2.15578e-11
-5.09059e-11
2.23565e-11
-5.28568e-11
2.32144e-11
-5.48937e-11
2.41124e-11
-5.7017e-11
2.50294e-11
-5.92239e-11
2.59478e-11
-6.15116e-11
2.68532e-11
-6.38747e-11
2.77337e-11
-6.63087e-11
2.85818e-11
-6.88084e-11
2.93951e-11
-7.13684e-11
3.01705e-11
-7.39836e-11
3.09139e-11
-7.66507e-11
3.16313e-11
-7.93673e-11
3.23286e-11
-8.21317e-11
3.30178e-11
-8.49437e-11
3.37085e-11
-8.78051e-11
3.44122e-11
-9.07204e-11
3.51388e-11
-9.36916e-11
3.58898e-11
-9.67246e-11
3.66757e-11
-9.98236e-11
3.75013e-11
-1.02994e-10
3.83679e-11
-1.0624e-10
3.92767e-11
-1.09568e-10
4.0221e-11
-1.12981e-10
4.1196e-11
-1.16484e-10
4.21948e-11
-1.2008e-10
4.32094e-11
-1.23771e-10
4.42284e-11
-1.27558e-10
4.524e-11
-1.31439e-10
4.62323e-11
-1.35414e-10
4.71903e-11
-1.39478e-10
4.81026e-11
-1.43628e-10
4.89579e-11
-1.47855e-10
4.97382e-11
-1.52154e-10
5.04334e-11
-1.56515e-10
5.10288e-11
-1.60929e-10
5.15114e-11
-1.65383e-10
5.18702e-11
-1.69867e-10
5.20993e-11
-1.74364e-10
5.21883e-11
-1.78864e-10
5.21328e-11
-1.83354e-10
5.1922e-11
-1.8782e-10
5.15529e-11
-1.92246e-10
5.10269e-11
-1.9662e-10
5.03458e-11
-2.00927e-10
4.95096e-11
-2.05155e-10
4.85209e-11
-2.0929e-10
4.73852e-11