/*--------------------------------*- C++ -*----------------------------------*\
| =========                 |                                                 |
| \\      /  F ield         | OpenFOAM: The Open Source CFD Toolbox           |
|  \\    /   O peration     | Version:  2.4.0                                 |
|   \\  /    A nd           | Web:      www.OpenFOAM.org                      |
|    \\/     M anipulation  |                                                 |
\*---------------------------------------------------------------------------*/
FoamFile
{
    version     2.0;
    format      ascii;
    class       volScalarField;
    location    "0.189";
    object      p;
}
// * * * * * * * * * * * * * * * * * * * * * * * * * * * * * * * * * * * * * //

dimensions      [1 -1 -2 0 0 0 0];

internalField   nonuniform List<scalar> 
3600
(
92.4015
89.8881
87.2691
86.178
87.0539
89.0715
91.6844
92.8523
94.1146
94.5218
95.0023
94.7748
94.8225
94.8667
94.5497
94.6466
94.7115
94.4295
94.0376
93.1782
92.9961
94.2373
94.5641
95.2523
96.3308
96.0342
96.3838
97.0633
97.2113
97.2633
89.1454
86.6255
83.9977
82.904
83.7819
85.8113
88.433
89.6026
90.8647
91.2724
91.7502
91.5185
91.5689
91.616
91.2832
91.3904
91.4529
91.0678
90.4261
89.8759
89.1969
89.1901
89.6515
90.3585
91.3315
92.0754
92.5374
92.7095
92.8222
92.9099
85.8974
83.3634
80.7173
79.6163
80.4969
82.5483
85.1903
86.3552
87.6208
88.0334
88.5012
88.2575
88.3129
88.359
88.0213
88.1508
88.1144
87.7626
87.2032
86.5945
85.5722
84.944
85.7179
86.6284
87.3825
88.2982
88.9255
89.1988
89.2797
89.3548
82.6573
80.1018
77.4274
76.3142
77.1983
79.2824
81.9554
83.1106
84.3824
84.8053
85.2592
84.9935
85.0523
85.0993
84.7718
84.9342
84.9138
84.5491
83.9983
83.0044
80.7645
80.4334
81.7868
82.8661
83.784
84.543
85.1009
85.4753
85.5942
85.6197
79.4254
76.8408
74.1277
72.9977
73.886
76.0139
78.7289
79.869
81.1491
81.5881
82.0279
81.73
81.7808
81.8335
81.523
81.7241
81.7258
81.4717
80.7249
79.3712
76.6998
75.9474
77.3085
78.5921
79.6311
80.7798
81.5984
82.0072
81.988
81.9991
76.2018
73.5803
70.818
69.6667
70.5596
72.743
75.5113
76.6301
77.9205
78.3811
78.8074
78.47
78.4911
78.5555
78.2705
78.4828
78.4435
78.2675
77.5436
76.0851
73.0186
72.0891
73.745
75.3266
76.3028
77.3359
78.0034
78.3627
78.5063
78.5536
72.9866
70.3204
67.4983
66.3207
67.2186
69.4699
72.3029
73.3935
74.6965
75.1837
75.5937
75.2131
75.2195
75.2735
75.0082
75.1789
75.0556
74.9431
74.1924
72.7886
69.7208
68.8008
70.3503
71.8418
73.0933
73.9718
74.5072
74.8903
75.0867
75.1497
69.7801
67.061
64.1683
62.9595
63.8623
66.195
69.1045
70.1587
71.4774
71.9955
72.3856
71.954
72.0062
72.0121
71.7048
71.8285
71.585
71.553
70.6608
69.329
66.6624
66.0039
67.3325
68.7922
69.8416
70.5407
71.0538
71.3942
71.5931
71.6636
66.5825
63.8024
60.8277
59.5825
60.4902
62.9187
65.9168
66.9253
68.2636
68.8167
69.1848
68.6859
68.8371
68.7687
68.367
68.5061
68.1783
68.1581
67.3065
66.0584
64.0797
63.5052
64.7827
65.8546
66.717
67.2859
67.681
67.9423
68.112
68.2201
63.394
60.5445
57.4764
56.1894
57.1012
59.6415
62.7407
63.6927
65.0561
65.6536
65.9941
65.4059
65.6703
65.5221
65.0338
65.2094
64.8839
64.8022
64.0896
63.0743
61.7916
61.4262
62.1668
62.9659
63.6119
64.0691
64.3648
64.5498
64.6679
64.7633
60.2149
57.2874
54.1139
52.7795
53.6945
56.3638
59.5773
60.46
61.8548
62.509
62.8131
62.1121
62.4878
62.2715
61.7072
61.8947
61.6128
61.4774
60.9333
60.2237
59.5089
59.1565
59.5356
60.0183
60.4814
60.8497
61.0985
61.2215
61.2921
61.3481
57.0455
54.0312
50.7402
49.3521
50.2689
53.0866
56.4275
57.2262
58.6592
59.3731
59.6398
58.8056
59.302
59.0469
58.3852
58.5596
58.281
58.1567
57.7726
57.3192
56.7954
56.5719
56.7441
57.0354
57.3281
57.5787
57.7727
57.8886
57.9404
57.9422
53.8861
50.7761
47.3547
45.9065
46.823
49.8106
53.2923
53.9901
55.4684
56.2627
56.4713
55.4883
56.1137
55.8429
55.0665
55.2318
54.8989
54.863
54.594
54.2954
53.9402
53.8168
53.8925
54.0134
54.1387
54.2905
54.4418
54.552
54.6074
54.6055
50.7372
47.522
43.9572
42.4417
43.3554
46.537
50.1725
50.7504
52.2818
53.1736
53.3052
52.1537
52.9464
52.6596
51.7471
51.8925
51.5193
51.5916
51.3958
51.2194
51.0301
50.9467
50.9567
50.9401
50.8889
50.8494
50.9671
51.1878
51.2976
51.2579
47.5992
44.2692
40.5474
38.9566
39.8643
43.2671
47.0689
47.5058
49.0984
50.1052
50.1564
48.7977
49.7955
49.5018
48.459
48.5346
48.1375
48.2849
48.1731
48.1031
48.0264
47.9409
47.9056
47.8983
47.8269
47.6708
47.6423
47.8069
47.9518
47.8859
44.4725
41.0177
37.1247
35.4501
36.3478
40.0025
43.9819
44.2537
45.9197
47.0784
46.9913
45.4162
46.6658
46.3301
45.0882
45.0745
44.7567
44.9619
44.9183
44.957
44.9753
44.8545
44.7481
44.7286
44.7592
44.7603
44.6441
44.5778
44.6079
44.5495
41.3576
37.7677
33.6888
31.921
32.8037
36.7452
40.9114
40.9937
42.7471
44.0136
43.8234
41.9954
43.551
43.1903
41.7098
41.5179
41.2655
41.6516
41.7294
41.792
41.9381
41.7357
41.545
41.4226
41.3792
41.3805
41.4003
41.2601
41.2335
41.2903
38.2552
34.5194
30.2392
28.3677
29.2294
33.4975
37.8582
37.718
39.5773
41.2448
40.6363
38.5204
40.4676
40.1095
38.293
37.8835
37.736
38.3498
38.5471
38.608
38.8031
38.6317
38.3358
38.154
38.0474
38.0512
38.126
38.0606
38.0519
38.1704
35.1658
31.2727
26.7753
24.7886
25.6221
30.2626
34.82
34.4397
36.4189
38.2335
37.4352
35.0164
37.3857
36.9897
34.7684
34.2037
34.2533
35.0597
35.325
35.4248
35.6688
35.5005
35.1296
34.9634
34.7801
34.768
34.9082
34.9287
34.8918
34.9476
32.0899
28.028
23.2965
21.182
21.9786
27.0442
31.7982
31.126
33.2495
35.4406
34.1861
31.3772
34.294
33.9556
31.2329
30.5729
30.8605
31.7519
32.0342
32.1589
32.478
32.2004
31.6476
31.562
31.5786
31.6097
31.7393
31.739
31.6753
31.6919
29.0287
24.7858
19.8025
17.5467
18.2956
23.8469
28.7902
27.8257
30.0846
32.2628
30.9544
27.8424
31.2325
30.8349
27.5773
26.7375
27.5213
28.4644
28.7304
28.8736
29.2036
28.6869
28.0285
28.189
28.4277
28.5297
28.574
28.542
28.495
28.5103
25.9824
21.5471
16.2934
13.8829
14.5708
20.6747
25.784
24.4872
26.957
29.5427
27.5205
24.0361
28.1724
27.8938
24.403
22.6989
24.2869
25.3182
25.4199
25.6204
26.2506
25.3291
24.8324
24.9687
25.2745
25.3895
25.3934
25.3542
25.3338
25.3435
22.9531
18.313
12.7709
10.1956
10.8063
17.531
22.8397
21.1549
23.8106
26.662
25.3162
20.3162
24.5478
24.7231
20.2943
18.4383
20.707
22.1427
22.1057
22.2325
22.9235
22.5129
21.8564
21.8775
22.1158
22.1173
22.1305
22.1176
22.1198
22.1148
19.942
15.082
9.23985
6.49953
7.00779
14.4163
19.8352
17.8568
20.6574
23.621
21.9978
19.3941
20.5734
21.0406
16.321
13.7166
16.4423
19.1105
18.9045
19.1563
19.7761
20.3071
19.0155
18.9395
18.9775
18.9619
18.9318
18.8964
18.8668
18.8599
16.9494
11.8614
5.7037
2.79503
3.18923
11.3108
17.0027
17.762
17.6406
21.4948
18.7359
15.5177
16.734
17.2956
12.0973
10.1021
13.0893
16.2125
15.4425
16.647
16.6519
16.2918
15.7657
15.8174
15.7566
15.6529
15.6255
15.5942
15.6008
15.5907
13.9761
8.64956
2.19639
-0.0963133
0.882652
8.39364
16.0988
14.5185
14.433
18.566
15.8635
12.0769
13.3293
13.6633
9.11391
6.98836
9.9162
13.2379
12.4543
12.495
13.3405
12.7449
12.6426
12.6115
12.4742
12.4245
12.4068
12.3676
12.3694
12.3372
11.014
5.43138
0.25943
-0.115587
2.09669
6.82435
12.7274
14.5159
11.3635
15.5262
13.3851
9.35783
10.6605
10.1039
6.63464
4.60959
7.05826
10.3811
8.07746
8.94407
9.95359
9.39617
9.54064
9.21324
9.02582
9.0099
9.13805
9.10353
9.1243
9.09329
8.05674
1.85636
0.192921
-0.161995
1.23121
4.94677
8.3516
6.59779
8.07559
12.4445
11.3248
6.47939
7.96545
7.11098
4.22732
2.57909
4.68132
7.39731
4.94309
6.37957
6.66215
6.04389
6.40302
5.82631
5.87692
5.85306
5.96507
5.88819
5.86956
5.85222
4.93601
-0.135081
0.017657
-0.0661455
0.0684332
2.46227
4.0828
3.43107
4.93948
9.39578
8.96464
3.47793
5.27607
4.48292
1.45756
-0.295317
2.06503
4.50312
1.60613
3.51328
3.43921
2.96371
3.25991
2.8737
2.73871
2.69149
2.74677
2.71065
2.72746
2.7514
1.67572
0.00939545
-0.0548647
-0.0836831
-0.0129425
0.44257
0.807988
0.403771
1.91247
6.43521
6.10748
0.31013
2.27755
1.41553
0.158148
-0.180674
0.398993
1.54506
0.133907
0.886764
0.689017
0.924936
0.627251
0.18828
0.393662
0.432663
0.459233
0.639724
0.753515
0.761744
97.2922
97.2362
96.7084
96.4622
96.7667
96.2303
95.1683
94.5441
94.0737
92.5378
92.8401
93.6175
93.8889
94.2798
94.1319
94.036
94.215
94.0581
93.8728
93.8008
93.0215
92.8061
91.9361
91.507
89.4642
87.6289
86.5032
87.3763
90.1381
92.5001
92.8854
92.8539
92.8287
92.6001
92.1734
91.4633
90.5547
89.7333
88.9399
88.8296
89.5187
89.9409
90.4779
90.9579
90.8774
90.7736
90.9669
90.8053
90.6207
90.5495
89.7664
89.5481
88.6818
88.2559
86.2089
84.3609
83.2295
84.1035
86.8761
89.2438
89.3322
89.3443
89.2082
88.8984
88.4605
87.7343
86.9839
86.0294
84.3626
84.711
86.0343
86.672
87.1844
87.6236
87.6368
87.5159
87.7144
87.549
87.367
87.2987
86.511
86.2886
85.4279
85.0139
82.9568
81.0841
79.9446
80.8201
83.6153
85.9952
85.5893
85.6055
85.6047
85.2387
84.8295
84.2353
83.3438
81.926
80.0029
80.2345
82.3567
83.4143
84.0045
84.437
84.4138
84.2784
84.4587
84.2863
84.1139
84.051
83.2569
83.0273
82.1751
81.7802
79.7078
77.7978
76.6429
77.5254
80.3557
82.7542
82.0393
82.159
81.8959
81.5027
80.9573
80.0693
79.1406
77.6493
75.6498
76.2876
78.7123
80.1064
80.9275
81.2549
81.2253
81.0446
81.1987
81.0141
80.8655
80.8091
80.0043
79.7643
78.9237
78.5551
76.4623
74.5021
73.3269
74.2192
77.0973
79.521
78.546
78.4858
78.3078
77.9282
77.3847
76.6534
75.6882
74.0962
72.2135
72.8009
75.4738
77.2751
77.703
77.983
77.9891
77.8086
77.9291
77.7219
77.6264
77.574
76.7529
76.4993
75.6736
75.3389
73.2206
71.1966
69.9962
70.9014
73.8401
76.2958
75.1241
74.9965
74.7467
74.3616
74.0164
73.378
72.3395
70.7351
69.159
69.6416
72.1278
73.7039
74.416
74.6223
74.698
74.5673
74.6528
74.4299
74.3983
74.3426
73.5014
73.2318
72.4245
72.1322
69.9834
67.8809
66.6505
67.5717
70.5841
73.0788
71.6395
71.5077
71.2563
70.9201
70.5088
69.9452
69.1535
67.9306
66.4393
66.7744
68.765
70.2086
71.0577
71.18
71.3578
71.2934
71.3983
71.1881
71.1785
71.1132
70.2488
69.9611
69.1763
68.9355
66.7514
64.5546
63.2892
64.2297
67.3294
69.8701
68.167
68.0414
67.8178
67.5454
67.2198
66.7844
66.176
65.2724
64.1315
64.2809
65.6634
66.9223
67.6959
67.7782
68.0352
67.9863
68.1684
67.9975
67.9599
67.8865
66.9952
66.6869
65.9286
65.7493
63.5253
61.2173
59.9118
60.8751
64.0762
66.67
64.6728
64.6043
64.4476
64.2437
63.9827
63.636
63.1861
62.5966
61.9304
61.9981
62.8091
63.7476
64.3821
64.4773
64.7463
64.6811
64.9391
64.8191
64.7394
64.6675
63.7418
63.4088
62.6814
62.5746
60.3061
57.8681
56.5178
57.5076
60.8244
63.4786
61.2899
61.2452
61.1211
60.9649
60.7571
60.4739
60.1513
59.7715
59.4252
59.5302
60.0309
60.6
61.1051
61.2282
61.4649
61.3896
61.6988
61.6276
61.5142
61.4585
60.4901
60.1259
59.4341
59.4122
57.0952
54.5064
53.1064
54.1268
57.5742
60.2963
57.9292
57.8952
57.8085
57.6746
57.4972
57.2844
57.1022
56.8878
56.657
56.6888
57.0647
57.4323
57.8281
57.9525
58.1853
58.1079
58.4809
58.417
58.2857
58.2605
57.24
56.8371
56.1862
56.2631
53.8938
51.1312
49.6768
50.7321
54.3258
57.1234
54.6084
54.5592
54.4232
54.2689
54.161
54.0574
54.0179
53.9421
53.7662
53.7745
53.9696
54.2368
54.564
54.6449
54.9251
54.8612
55.2835
55.1887
55.0608
55.0706
53.9901
53.5409
52.9367
53.1284
50.7037
47.7415
46.2279
47.323
51.0792
53.9602
51.2051
51.1167
51.0173
50.912
50.8511
50.8665
50.9078
50.8959
50.7722
50.7808
50.8615
51.0138
51.3095
51.3227
51.6476
51.6013
52.1094
51.9646
51.832
51.8896
50.7397
50.2357
49.6848
50.0093
47.5268
44.3361
42.7586
43.8991
47.8346
50.8072
47.75
47.7195
47.7697
47.8145
47.7889
47.7933
47.8021
47.7658
47.6779
47.6897
47.7259
47.7632
48.0237
47.9908
48.3805
48.4142
48.9596
48.7443
48.622
48.7161
47.4871
46.9195
46.4298
46.907
44.3651
40.9139
39.2675
40.4597
44.5922
47.6646
44.4118
44.378
44.5237
44.5902
44.5343
44.5502
44.6418
44.5979
44.527
44.465
44.5311
44.4742
44.7192
44.6716
45.0266
45.2076
45.8258
45.5264
45.3752
45.5559
44.2374
43.5904
43.1702
43.8229
41.2208
37.4736
35.753
37.0043
41.352
44.5331
41.2416
41.2094
41.2177
41.0847
41.021
41.181
41.4422
41.447
41.4338
41.4356
41.3573
41.2432
41.4234
41.2912
41.6577
41.8974
42.6447
42.3285
42.1919
42.4078
40.9714
40.243
39.9066
40.7577
38.0962
34.014
32.2135
33.5321
38.1144
41.413
38.195
38.1159
37.9676
37.7035
37.6767
37.9102
38.229
38.1633
38.1058
37.865
38.0127
37.9792
38.1226
37.8613
38.2398
38.7349
39.6528
39.1031
38.8986
39.2568
37.7166
36.8917
36.6241
37.7147
34.9938
30.5337
28.6469
30.0424
34.8794
38.3051
34.9685
34.8757
34.7728
34.5065
34.4317
34.6203
34.7869
34.9078
35.4641
34.9466
34.6281
34.6965
34.812
34.4392
34.7847
35.392
36.4216
35.8804
35.7434
36.1876
34.4419
33.4763
33.3599
34.6883
31.9159
27.0319
25.051
26.5345
31.6473
35.2097
31.7196
31.683
31.6083
31.533
31.4098
31.3947
31.4032
31.5895
32.7542
32.0781
31.3441
31.3821
31.5147
31.0209
31.2662
32.0804
33.3728
32.6614
32.4907
32.9902
31.1729
30.1063
30.0556
31.6934
28.8651
23.5074
21.4236
23.0076
28.4182
32.1276
28.5334
28.5456
28.517
28.4976
28.3629
28.1311
28.0336
28.6921
29.533
29.1525
28.0844
28.102
28.2207
27.5553
27.7105
28.8136
30.4313
29.4182
29.197
29.9622
27.8985
26.6221
26.7527
28.7249
25.8425
19.96
17.7624
19.461
25.1927
29.0599
25.3651
25.3731
25.383
25.36
25.2098
25.0038
24.91
26.0793
25.9957
25.5338
24.8452
25.2288
24.9605
23.9759
24.1491
25.5281
27.4717
26.2922
25.9046
26.8965
24.6334
23.1524
23.4415
25.7859
22.8521
16.3886
14.0669
15.8946
21.9723
26.0067
22.1159
22.1143
22.0971
22.054
21.9959
21.8791
21.6884
21.8831
22.2776
22.3139
21.597
21.64
21.6926
20.3066
20.5324
22.0919
24.4061
23.111
22.6881
23.7828
21.3566
19.7019
20.1447
22.8763
19.8801
12.7983
10.34
12.3098
18.7584
22.9703
18.8458
18.8244
18.794
18.7177
18.7171
18.7259
18.3941
18.3818
19.2176
19.3367
18.489
18.2575
18.5213
17.0925
16.5499
18.9485
21.2898
19.803
19.4616
20.6636
18.055
16.2798
16.7231
19.9467
16.9394
9.18689
6.59785
8.71206
15.5505
19.9516
15.5685
15.5294
15.5096
15.4153
15.4169
15.5161
15.0188
14.833
15.8343
15.4574
14.4086
14.2449
15.1827
12.9129
12.2656
15.5486
19.2851
16.6911
16.7631
17.8905
14.8696
14.3876
15.4193
17.0749
13.991
5.58236
2.8584
5.10536
12.3568
16.9513
12.3098
12.2518
12.2202
12.1197
12.0324
12.2938
11.5835
11.4102
12.3401
11.7246
11.1225
11.1447
12.1048
9.5062
7.845
11.4205
17.4032
13.4458
13.4399
16.4552
12.5137
9.86612
11.6871
14.2907
11.2889
2.82672
-0.375387
1.54963
9.17655
13.9696
9.06642
9.02304
8.9506
8.90294
8.65637
8.79085
8.29691
8.23012
8.69277
8.64389
8.17231
7.77735
9.04613
5.86585
4.95505
7.66365
13.9086
10.3987
9.67921
12.453
9.01287
6.91645
9.6474
10.9266
9.97321
3.95464
-0.387955
-0.0535468
5.99798
10.9963
5.83313
5.80746
5.72155
5.75283
5.56508
5.48742
5.34864
5.19804
5.34388
5.51068
5.46023
5.03676
5.65217
2.87842
1.8163
4.95309
11.057
7.53101
6.7716
9.86309
6.17909
3.70814
6.38444
8.03235
7.63949
2.43573
-0.462148
0.399784
2.25669
8.02583
2.741
2.71664
2.62239
2.63387
2.41503
2.18277
2.45373
2.25038
2.10339
2.23762
2.55916
1.79079
2.39322
-0.0730205
-1.32189
2.58244
8.39149
5.57381
4.10139
6.8259
2.96692
0.336646
2.82599
4.65397
4.84336
0.909417
-0.13688
0.138975
-0.048525
4.9345
0.713283
0.701635
0.602719
0.330173
0.399837
0.229357
0.0751373
0.440218
0.661002
0.298618
0.200139
0.0398085
0.219752
-0.0545123
-0.845378
1.25916
5.74238
2.67389
0.943082
3.89904
1.27445
-0.292693
0.536582
1.18417
0.972716
0.115239
-0.0984011
-0.0297842
0.0228219
1.69463
-0.0603951
-0.0589333
-0.0605193
-0.0876854
-0.119882
-0.103577
-0.113731
-0.171782
0.543431
3.81462
3.64489
-0.669819
-0.364586
0.00853353
0.0487647
-0.0105618
-0.0494209
-0.0618002
-0.0608072
-0.0683569
-0.0771928
-0.0743049
-0.0790207
-0.0787996
-0.076788
-0.0776561
-0.0769824
-0.0761268
-0.0770059
-0.0766496
-0.0599596
-0.0620933
-0.0644461
-0.0900439
-0.120746
-0.107986
-0.112302
-0.111825
0.0948087
1.31037
1.67279
-0.0249606
-0.175842
0.0129897
0.0480194
-0.0112375
-0.0492712
-0.0392019
-0.0755797
-0.0713118
-0.0775567
-0.0784864
-0.0786686
-0.0799902
-0.0797675
-0.0795375
-0.0795535
-0.079398
-0.0793423
-0.0790829
-0.0639077
-0.0663986
-0.0685856
-0.0924601
-0.122089
-0.109818
-0.113935
-0.114272
-0.108763
-0.104174
-0.116136
-0.0511883
-0.0905598
-0.213654
0.0360792
-0.016367
-0.051214
-0.0636293
-0.0668552
-0.0736081
-0.0792188
-0.0798904
-0.0810632
-0.08176
-0.0816542
-0.0814189
-0.0813617
-0.081164
-0.080969
-0.080675
-0.0662998
-0.0694728
-0.072986
-0.0950116
-0.123698
-0.111697
-0.115622
-0.116232
-0.10945
-0.116573
-0.111948
-0.0765123
-0.229462
-0.207364
-0.0334717
-0.00925581
-0.0539133
-0.0654745
-0.0701176
-0.0765834
-0.081143
-0.0820087
-0.0827658
-0.083876
-0.0836861
-0.0834677
-0.0833038
-0.0830385
-0.0827818
-0.0824569
-0.0718568
-0.073625
-0.0775941
-0.097775
-0.125476
-0.113637
-0.117372
-0.118197
-0.111748
-0.118758
-0.115725
-0.0818986
-0.231467
-0.272262
-0.0570321
-0.0445795
-0.0578832
-0.0682242
-0.0733784
-0.0793181
-0.0832805
-0.0836255
-0.0850091
-0.0860246
-0.0859365
-0.0857137
-0.0854922
-0.0851766
-0.0848749
-0.0845788
-0.0753496
-0.0770896
-0.082241
-0.100807
-0.127294
-0.115583
-0.119132
-0.120178
-0.113481
-0.121236
-0.119038
-0.0903367
-0.225582
-0.250659
-0.101528
-0.0607324
-0.0639869
-0.0726414
-0.0767936
-0.0821573
-0.0855759
-0.0864732
-0.0874899
-0.0883415
-0.0883606
-0.0881633
-0.0879146
-0.087539
-0.0871643
-0.0869736
-0.0790726
-0.0808077
-0.0867387
-0.104057
-0.128999
-0.1176
-0.120806
-0.122143
-0.115729
-0.12346
-0.12244
-0.099776
-0.214897
-0.227973
-0.109829
-0.0749193
-0.0714589
-0.0759939
-0.079522
-0.0851274
-0.0880249
-0.0891293
-0.0900615
-0.0908504
-0.0909562
-0.0908297
-0.090605
-0.0901218
-0.0894471
-0.0889987
-0.0830762
-0.084739
-0.0909888
-0.107481
-0.130491
-0.119737
-0.122513
-0.124151
-0.11831
-0.125975
-0.126245
-0.109453
-0.202111
-0.206689
-0.117219
-0.088529
-0.0793229
-0.0807279
-0.0831836
-0.0880475
-0.0906159
-0.0918849
-0.0928116
-0.0935577
-0.0937525
-0.0937365
-0.0934201
-0.0923001
-0.0921355
-0.0920876
-0.0873716
-0.08891
-0.0951107
-0.111067
-0.131997
-0.122099
-0.124181
-0.126372
-0.121262
-0.128829
-0.130588
-0.118806
-0.189864
-0.188877
-0.124719
-0.101248
-0.0869176
-0.0851698
-0.0876011
-0.0910684
-0.0933721
-0.0947733
-0.0957366
-0.0964887
-0.0967878
-0.0969179
-0.0965444
-0.0952737
-0.096484
-0.0963567
-0.0919798
-0.0933431
-0.0993256
-0.114772
-0.133672
-0.124837
-0.126006
-0.129031
-0.125635
-0.131736
-0.135554
-0.127414
-0.179334
-0.175619
-0.13097
-0.10197
-0.0875248
-0.0878298
-0.0913269
-0.0944448
-0.0963059
-0.0977989
-0.0988667
-0.0996897
-0.100128
-0.100354
-0.100545
-0.100612
-0.100382
-0.10014
-0.0969208
-0.0980616
-0.103786
-0.118525
-0.135652
-0.128109
-0.128248
-0.132394
-0.131098
-0.135849
-0.141176
-0.13421
-0.171059
-0.166842
-0.136561
-0.0991996
-0.0937627
-0.0830954
-0.0957545
-0.0978912
-0.0993554
-0.100992
-0.102146
-0.103081
-0.103703
-0.104171
-0.104391
-0.104466
-0.104461
-0.104479
-0.102214
-0.103091
-0.108556
-0.122395
-0.137936
-0.131998
-0.131137
-0.136708
-0.137912
-0.141224
-0.147679
-0.141619
-0.165401
-0.161892
-0.140687
-0.128485
-0.110899
-0.0925368
-0.100309
-0.101498
-0.102906
-0.104631
-0.105965
-0.107061
-0.107853
-0.108342
-0.108709
-0.109023
-0.109124
-0.109167
-0.107877
-0.108463
-0.113665
-0.126464
-0.140555
-0.136325
-0.134745
-0.14206
-0.145615
-0.14655
-0.153611
-0.147719
-0.161777
-0.159923
-0.145699
-0.133913
-0.11425
-0.103762
-0.103525
-0.105189
-0.106775
-0.108636
-0.110178
-0.111458
-0.112433
-0.113122
-0.113612
-0.11395
-0.114168
-0.114303
-0.113929
-0.114197
-0.11915
-0.13086
-0.143562
-0.140667
-0.138899
-0.147974
-0.152762
-0.152026
-0.158771
-0.152787
-0.160336
-0.160093
-0.152109
-0.141759
-0.125839
-0.107297
-0.110818
-0.109385
-0.111265
-0.113246
-0.114977
-0.116433
-0.117568
-0.118374
-0.118953
-0.119385
-0.119673
-0.119854
-0.120386
-0.120328
-0.125032
-0.135668
-0.147033
-0.144947
-0.14367
-0.154095
-0.15825
-0.157488
-0.162994
-0.157938
-0.161655
-0.161525
-0.157403
-0.149283
-0.134184
-0.110284
-0.113578
-0.114641
-0.116799
-0.118685
-0.120493
-0.122064
-0.123313
-0.124266
-0.124918
-0.125355
-0.125635
-0.125808
-0.127267
-0.126884
-0.131344
-0.140945
-0.151044
-0.149531
-0.149125
-0.160373
-0.162175
-0.162908
-0.166346
-0.162847
-0.164109
-0.164216
-0.160665
-0.152714
-0.14465
-0.126403
-0.119082
-0.121742
-0.123475
-0.12517
-0.126805
-0.128421
-0.129727
-0.130727
-0.131421
-0.131852
-0.132085
-0.132191
-0.134589
-0.133895
-0.138115
-0.146723
-0.155646
-0.15466
-0.155141
-0.166865
-0.166757
-0.168564
-0.169442
-0.167643
-0.167729
-0.167545
-0.164326
-0.157022
-0.149437
-0.14421
-0.122631
-0.115993
-0.131556
-0.132921
-0.13384
-0.135287
-0.136469
-0.137643
-0.138452
-0.138943
-0.139046
-0.139047
-0.14237
-0.141393
-0.145374
-0.153031
-0.160853
-0.160397
-0.161413
-0.173014
-0.172996
-0.174604
-0.173481
-0.172506
-0.172486
-0.172122
-0.168944
-0.161852
-0.154578
-0.150039
-0.134352
-0.124402
-0.13931
-0.141703
-0.14151
-0.142786
-0.143732
-0.143799
-0.144532
-0.145152
-0.145907
-0.145836
-0.150634
-0.149413
-0.15315
-0.159898
-0.166718
-0.166724
-0.168041
-0.178267
-0.180651
-0.181013
-0.178722
-0.178353
-0.178874
-0.178204
-0.175519
-0.169287
-0.163844
-0.162554
-0.163698
-0.162427
-0.14366
-0.150746
-0.148973
-0.150118
-0.151715
-0.152389
-0.15292
-0.153102
-0.153393
-0.154196
-0.159408
-0.157993
-0.161475
-0.16736
-0.173274
-0.173662
-0.175187
-0.183202
-0.188717
-0.186777
-0.184328
-0.185623
-0.186552
-0.186073
-0.184156
-0.178519
-0.173595
-0.171604
-0.171838
-0.171886
-0.170301
-0.139157
-0.153553
-0.157965
-0.159015
-0.159697
-0.160133
-0.160578
-0.162029
-0.139428
-0.168722
-0.167164
-0.170394
-0.175453
-0.180527
-0.18127
-0.182905
-0.188918
-0.195638
-0.191119
-0.18887
-0.191877
-0.194724
-0.195989
-0.194579
-0.188794
-0.183396
-0.180235
-0.178847
-0.177895
-0.176323
-0.173712
-0.160787
-0.169666
-0.167864
-0.168152
-0.16788
-0.162019
-0.159249
-0.157847
-0.178614
-0.176982
-0.17993
-0.184219
-0.188516
-0.189569
-0.191196
-0.19561
-0.200839
-0.195448
-0.192694
-0.197445
-0.20383
-0.207206
-0.205838
-0.199364
-0.193067
-0.188738
-0.186032
-0.184169
-0.182622
-0.180491
-0.17954
-0.180063
-0.178764
-0.178928
-0.178152
-0.172399
-0.170478
-0.169667
-0.189128
-0.187489
-0.190131
-0.193705
-0.19727
-0.198609
-0.200095
-0.203316
-0.206293
-0.201788
-0.198726
-0.204471
-0.214164
-0.219264
-0.217633
-0.209928
-0.20279
-0.197793
-0.194607
-0.192696
-0.191105
-0.19107
-0.190891
-0.190982
-0.191122
-0.191845
-0.192774
-0.193607
-0.168705
-0.180888
-0.200318
-0.198734
-0.201047
-0.203968
-0.206892
-0.208374
-0.20968
-0.212071
-0.213597
-0.210607
-0.208141
-0.213714
-0.224086
-0.229181
-0.227092
-0.219482
-0.212788
-0.208028
-0.204993
-0.203194
-0.202472
-0.202102
-0.201871
-0.201674
-0.201459
-0.201351
-0.201298
-0.201275
-0.201165
-0.200528
-0.212243
-0.210772
-0.212738
-0.21507
-0.217436
-0.218919
-0.220028
-0.22185
-0.222696
-0.221097
-0.219476
-0.223492
-0.231859
-0.234544
-0.232471
-0.227069
-0.222264
-0.21861
-0.21628
-0.214945
-0.214167
-0.213664
-0.213258
-0.212874
-0.212504
-0.212173
-0.211889
-0.211633
-0.21138
-0.211056
-0.22497
-0.223665
-0.225272
-0.227079
-0.228951
-0.23032
-0.231213
-0.2326
-0.233033
-0.232322
-0.231508
-0.233892
-0.237688
-0.239503
-0.237984
-0.234937
-0.232154
-0.22981
-0.22824
-0.227203
-0.226501
-0.22598
-0.225548
-0.22516
-0.224798
-0.224386
-0.224074
-0.22377
-0.223438
-0.223108
-0.238576
-0.237487
-0.238727
-0.240068
-0.241493
-0.24266
-0.243309
-0.244396
-0.244568
-0.244317
-0.243975
-0.245174
-0.247473
-0.248098
-0.246811
-0.245011
-0.243447
-0.242028
-0.24098
-0.240208
-0.239644
-0.239217
-0.238877
-0.238595
-0.238355
-0.238031
-0.237853
-0.23775
-0.237596
-0.237501
-0.253153
-0.252327
-0.25319
-0.254117
-0.255128
-0.256028
-0.256461
-0.257227
-0.257276
-0.257224
-0.25705
-0.25761
-0.258886
-0.259261
-0.258354
-0.257284
-0.256342
-0.255467
-0.25476
-0.254197
-0.253757
-0.253392
-0.253064
-0.252745
-0.252421
-0.252063
-0.251758
-0.25137
-0.251085
-0.250832
-0.268806
-0.268258
-0.268793
-0.269314
-0.269927
-0.270525
-0.270717
-0.271199
-0.271208
-0.271206
-0.27112
-0.271358
-0.271899
-0.272107
-0.271594
-0.271064
-0.270552
-0.270048
-0.269588
-0.269165
-0.268772
-0.268394
-0.268013
-0.267631
-0.267255
-0.266899
-0.266605
-0.266422
-0.26619
-0.266242
-0.285669
-0.285423
-0.285637
-0.285763
-0.28597
-0.286176
-0.286226
-0.28638
-0.286326
-0.286339
-0.286328
-0.286402
-0.28657
-0.286646
-0.286475
-0.286335
-0.286197
-0.286061
-0.285929
-0.285796
-0.285662
-0.285531
-0.285408
-0.285307
-0.285246
-0.285249
-0.285335
-0.285423
-0.285672
-0.286032
-0.0757637
-0.0757632
-0.0737438
-0.0738081
-0.0751699
-0.0719291
-0.0720936
-0.0764741
-0.0783311
-0.0816451
-0.088489
-0.0918922
-0.101534
-0.100428
-0.0842988
-0.0888601
0.880611
0.114853
-0.0716482
0.878712
-0.0175225
-0.10452
-0.10294
-0.0765324
-0.0816027
-0.129151
-0.104213
-0.0418234
-0.0590296
-0.0512991
-0.0786705
-0.0782219
-0.0774264
-0.0770472
-0.0766968
-0.0759343
-0.0760547
-0.0772348
-0.0801384
-0.0842083
-0.0892068
-0.0936986
-0.100027
-0.100223
-0.0898815
-0.0924918
-0.0982045
-0.0981029
-0.104432
-0.0762328
-0.110667
-0.106724
-0.108863
-0.106753
-0.0921492
-0.127747
-0.106097
-0.0457516
-0.0618233
-0.0509354
-0.080291
-0.0798572
-0.0792167
-0.0787545
-0.0786105
-0.0780572
-0.0781727
-0.0796406
-0.0821305
-0.0860229
-0.0912783
-0.0959599
-0.101862
-0.102065
-0.0923753
-0.0933906
-0.0975572
-0.0991552
-0.106152
-0.106273
-0.109151
-0.108659
-0.110819
-0.108373
-0.0937841
-0.128108
-0.107515
-0.0493769
-0.0658907
-0.0545323
-0.0820742
-0.0816941
-0.0811108
-0.0807983
-0.0807602
-0.0802656
-0.0804193
-0.081935
-0.0842899
-0.0880753
-0.0935328
-0.0984992
-0.104069
-0.104304
-0.0948393
-0.0953929
-0.099677
-0.101612
-0.108571
-0.10824
-0.111444
-0.110577
-0.112631
-0.110153
-0.0957604
-0.12826
-0.108705
-0.0532413
-0.0687489
-0.0571051
-0.0842267
-0.0839284
-0.0838772
-0.0834838
-0.0831315
-0.0827116
-0.0829818
-0.0844077
-0.086714
-0.0904565
-0.0960699
-0.101414
-0.10666
-0.10691
-0.0980444
-0.0973287
-0.101537
-0.103865
-0.110939
-0.110432
-0.113588
-0.112539
-0.114437
-0.111956
-0.0980424
-0.128456
-0.109844
-0.0575822
-0.0725362
-0.0627191
-0.086264
-0.0854883
-0.0846835
-0.0853968
-0.0856853
-0.0854579
-0.0857945
-0.0871647
-0.0894943
-0.0932685
-0.0990529
-0.104771
-0.109768
-0.109949
-0.101207
-0.0993371
-0.103411
-0.10647
-0.113811
-0.11317
-0.115754
-0.114596
-0.116279
-0.113736
-0.100595
-0.129128
-0.111134
-0.0624912
-0.0756389
-0.0664493
-0.0886593
-0.0880972
-0.0888493
-0.0890257
-0.0886303
-0.0884746
-0.0888998
-0.0902784
-0.0926984
-0.0965695
-0.102428
-0.108435
-0.113241
-0.113387
-0.104431
-0.101536
-0.105433
-0.109106
-0.116603
-0.115817
-0.118165
-0.116818
-0.118186
-0.115526
-0.103347
-0.13037
-0.112709
-0.0679435
-0.0791588
-0.0704395
-0.0925891
-0.092556
-0.0922947
-0.0920739
-0.0918488
-0.0918272
-0.0923484
-0.0937787
-0.096356
-0.100354
-0.10618
-0.112257
-0.11686
-0.117038
-0.107733
-0.103952
-0.1077
-0.11203
-0.119599
-0.118717
-0.120994
-0.119321
-0.12023
-0.117371
-0.106256
-0.132028
-0.114592
-0.0735645
-0.0830549
-0.0747077
-0.0961277
-0.095924
-0.0957079
-0.0955877
-0.0954742
-0.0955728
-0.0961838
-0.0976744
-0.100371
-0.104049
-0.110439
-0.116621
-0.121143
-0.120705
-0.111185
-0.106768
-0.110115
-0.115362
-0.122771
-0.121889
-0.124376
-0.122258
-0.122433
-0.119357
-0.10934
-0.133905
-0.116728
-0.0790564
-0.0872189
-0.0793204
-0.0999854
-0.0998716
-0.0997465
-0.0996075
-0.0995756
-0.0997573
-0.100425
-0.10194
-0.104732
-0.108523
-0.114821
-0.120941
-0.125019
-0.124192
-0.114835
-0.110048
-0.113127
-0.118962
-0.126075
-0.125359
-0.128475
-0.125737
-0.125263
-0.121633
-0.112731
-0.135907
-0.119126
-0.084407
-0.0916265
-0.0842905
-0.104397
-0.104295
-0.104191
-0.104121
-0.104139
-0.104382
-0.105059
-0.106528
-0.109198
-0.11335
-0.119069
-0.124959
-0.128614
-0.127461
-0.118672
-0.113865
-0.116582
-0.123099
-0.129519
-0.129141
-0.133421
-0.129774
-0.128764
-0.124409
-0.116586
-0.138069
-0.121769
-0.089905
-0.0962911
-0.0896355
-0.109175
-0.109162
-0.109135
-0.109119
-0.109169
-0.109401
-0.110038
-0.111366
-0.113854
-0.117812
-0.122912
-0.128502
-0.131717
-0.130494
-0.122742
-0.118308
-0.120962
-0.127405
-0.133117
-0.133281
-0.139211
-0.134265
-0.132885
-0.127823
-0.120919
-0.140475
-0.124712
-0.095706
-0.101239
-0.0953721
-0.114389
-0.114446
-0.114469
-0.114495
-0.114547
-0.114733
-0.115243
-0.116346
-0.118536
-0.121609
-0.126321
-0.131392
-0.134327
-0.13338
-0.127242
-0.123546
-0.125951
-0.131755
-0.136699
-0.137819
-0.145561
-0.139096
-0.137185
-0.131854
-0.125538
-0.143193
-0.127921
-0.101887
-0.106494
-0.101514
-0.119977
-0.120067
-0.120118
-0.120152
-0.120178
-0.120286
-0.120625
-0.121412
-0.123107
-0.125753
-0.129383
-0.133673
-0.136753
-0.136446
-0.1324
-0.129483
-0.131276
-0.135928
-0.140171
-0.142786
-0.151835
-0.144228
-0.141325
-0.136314
-0.130343
-0.146198
-0.131513
-0.108475
-0.112082
-0.108073
-0.125912
-0.125971
-0.126024
-0.126031
-0.126009
-0.12603
-0.126215
-0.126661
-0.127781
-0.129791
-0.132547
-0.135945
-0.139207
-0.140201
-0.138203
-0.136037
-0.136543
-0.139809
-0.143556
-0.14827
-0.157508
-0.149687
-0.145509
-0.14111
-0.135412
-0.149609
-0.135532
-0.115443
-0.118075
-0.115057
-0.13223
-0.132231
-0.132237
-0.132211
-0.132144
-0.132064
-0.132053
-0.132243
-0.132904
-0.134302
-0.136568
-0.139605
-0.142795
-0.14495
-0.144617
-0.142809
-0.141688
-0.143503
-0.147069
-0.154501
-0.162933
-0.155669
-0.150385
-0.146342
-0.140891
-0.153493
-0.14006
-0.122804
-0.124515
-0.122473
-0.139046
-0.139002
-0.138897
-0.138726
-0.138541
-0.138372
-0.138268
-0.13832
-0.138703
-0.139663
-0.141438
-0.144178
-0.147649
-0.150624
-0.151275
-0.149388
-0.146868
-0.147386
-0.150959
-0.161633
-0.169352
-0.16223
-0.155997
-0.152078
-0.146852
-0.157898
-0.145166
-0.13057
-0.131442
-0.130328
-0.145328
-0.14533
-0.145203
-0.145147
-0.145083
-0.145001
-0.144943
-0.14499
-0.145286
-0.146088
-0.147586
-0.150069
-0.153469
-0.156779
-0.157725
-0.15565
-0.152418
-0.152084
-0.155436
-0.169228
-0.1771
-0.168705
-0.161854
-0.158289
-0.153318
-0.162862
-0.150907
-0.138755
-0.138898
-0.13863
-0.153853
-0.152777
-0.152674
-0.153408
-0.152908
-0.152514
-0.152312
-0.152318
-0.152668
-0.153418
-0.15478
-0.156956
-0.159892
-0.162848
-0.1637
-0.161713
-0.158668
-0.158077
-0.160835
-0.175818
-0.183774
-0.174477
-0.167908