/*--------------------------------*- C++ -*----------------------------------*\
| =========                 |                                                 |
| \\      /  F ield         | OpenFOAM: The Open Source CFD Toolbox           |
|  \\    /   O peration     | Version:  2.4.0                                 |
|   \\  /    A nd           | Web:      www.OpenFOAM.org                      |
|    \\/     M anipulation  |                                                 |
\*---------------------------------------------------------------------------*/
FoamFile
{
    version     2.0;
    format      ascii;
    class       volScalarField;
    location    "0.166";
    object      p_rgh;
}
// * * * * * * * * * * * * * * * * * * * * * * * * * * * * * * * * * * * * * //

dimensions      [1 -1 -2 0 0 0 0];

internalField   nonuniform List<scalar> 
60000
(
97.8058
97.8057
97.8057
97.8056
97.8056
97.8055
97.8054
97.8052
97.8051
97.805
97.8048
97.8047
97.8045
97.8043
97.8042
97.804
97.8038
97.8037
97.8035
97.8034
97.8033
97.8032
97.8031
97.803
97.8029
97.8029
97.8029
97.8029
97.803
97.8031
97.8032
97.8033
97.8035
97.8037
97.804
97.8043
97.8047
97.8051
97.8056
97.8061
97.8067
97.8074
97.8081
97.8089
97.8098
97.8108
97.8118
97.813
97.8143
97.8156
97.8171
97.8187
97.8204
97.8223
97.8243
97.8264
97.8287
97.8311
97.8337
97.8365
97.8394
97.8425
97.8458
97.8493
97.853
97.857
97.8611
97.8655
97.8701
97.875
97.8801
97.8855
97.8912
97.8972
97.9035
97.9101
97.917
97.9242
97.9318
97.9398
97.9481
97.9568
97.9659
97.9754
97.9853
97.9956
98.0063
98.0175
98.0291
98.0411
98.0536
98.0664
98.0798
98.0935
98.1077
98.1223
98.1373
98.1527
98.1684
98.1845
97.8058
97.8057
97.8057
97.8056
97.8056
97.8055
97.8054
97.8053
97.8051
97.805
97.8048
97.8047
97.8045
97.8043
97.8042
97.804
97.8038
97.8037
97.8035
97.8034
97.8033
97.8032
97.8031
97.803
97.8029
97.8029
97.8029
97.8029
97.803
97.8031
97.8032
97.8033
97.8035
97.8037
97.804
97.8043
97.8047
97.8051
97.8056
97.8061
97.8067
97.8073
97.8081
97.8089
97.8098
97.8108
97.8118
97.813
97.8142
97.8156
97.8171
97.8187
97.8204
97.8223
97.8243
97.8264
97.8287
97.8311
97.8337
97.8364
97.8394
97.8425
97.8458
97.8493
97.853
97.8569
97.8611
97.8654
97.8701
97.8749
97.8801
97.8855
97.8911
97.8971
97.9034
97.91
97.9169
97.9242
97.9318
97.9397
97.948
97.9567
97.9658
97.9753
97.9852
97.9955
98.0062
98.0174
98.029
98.041
98.0535
98.0663
98.0797
98.0934
98.1076
98.1222
98.1372
98.1526
98.1683
98.1844
97.8058
97.8058
97.8057
97.8057
97.8056
97.8055
97.8054
97.8053
97.8051
97.805
97.8048
97.8047
97.8045
97.8043
97.8042
97.804
97.8038
97.8037
97.8035
97.8034
97.8033
97.8032
97.8031
97.803
97.8029
97.8029
97.8029
97.8029
97.803
97.8031
97.8032
97.8033
97.8035
97.8037
97.804
97.8043
97.8047
97.8051
97.8055
97.8061
97.8067
97.8073
97.808
97.8089
97.8097
97.8107
97.8118
97.8129
97.8142
97.8156
97.8171
97.8187
97.8204
97.8222
97.8242
97.8263
97.8286
97.831
97.8336
97.8364
97.8393
97.8424
97.8457
97.8492
97.8529
97.8568
97.861
97.8653
97.87
97.8748
97.8799
97.8853
97.891
97.897
97.9033
97.9098
97.9168
97.924
97.9316
97.9395
97.9479
97.9566
97.9656
97.9751
97.985
97.9953
98.006
98.0172
98.0288
98.0408
98.0532
98.0661
98.0795
98.0932
98.1074
98.122
98.137
98.1524
98.1681
98.1842
97.8058
97.8058
97.8057
97.8057
97.8056
97.8055
97.8054
97.8053
97.8051
97.805
97.8048
97.8047
97.8045
97.8043
97.8042
97.804
97.8038
97.8037
97.8035
97.8034
97.8033
97.8031
97.8031
97.803
97.8029
97.8029
97.8029
97.8029
97.803
97.803
97.8031
97.8033
97.8035
97.8037
97.804
97.8043
97.8046
97.805
97.8055
97.806
97.8066
97.8073
97.808
97.8088
97.8097
97.8107
97.8117
97.8129
97.8141
97.8155
97.817
97.8186
97.8203
97.8221
97.8241
97.8262
97.8285
97.8309
97.8335
97.8363
97.8392
97.8423
97.8456
97.8491
97.8528
97.8567
97.8608
97.8652
97.8698
97.8746
97.8798
97.8851
97.8908
97.8968
97.903
97.9096
97.9165
97.9238
97.9313
97.9393
97.9476
97.9563
97.9654
97.9748
97.9847
97.995
98.0057
98.0169
98.0285
98.0405
98.0529
98.0658
98.0792
98.0929
98.1071
98.1217
98.1367
98.1521
98.1679
98.184
97.8058
97.8058
97.8058
97.8057
97.8056
97.8055
97.8054
97.8053
97.8051
97.805
97.8048
97.8047
97.8045
97.8043
97.8042
97.804
97.8038
97.8037
97.8035
97.8034
97.8032
97.8031
97.803
97.803
97.8029
97.8029
97.8029
97.8029
97.8029
97.803
97.8031
97.8033
97.8034
97.8037
97.8039
97.8042
97.8046
97.805
97.8055
97.806
97.8066
97.8072
97.8079
97.8087
97.8096
97.8106
97.8116
97.8128
97.8141
97.8154
97.8169
97.8185
97.8202
97.822
97.824
97.8261
97.8284
97.8308
97.8334
97.8361
97.839
97.8421
97.8454
97.8489
97.8526
97.8565
97.8606
97.865
97.8696
97.8744
97.8795
97.8849
97.8905
97.8965
97.9027
97.9093
97.9162
97.9234
97.931
97.9389
97.9472
97.9559
97.965
97.9744
97.9843
97.9946
98.0053
98.0165
98.028
98.0401
98.0525
98.0654
98.0787
98.0925
98.1067
98.1213
98.1363
98.1518
98.1675
98.1837
97.8058
97.8058
97.8058
97.8057
97.8056
97.8055
97.8054
97.8053
97.8052
97.805
97.8049
97.8047
97.8045
97.8043
97.8042
97.804
97.8038
97.8037
97.8035
97.8034
97.8032
97.8031
97.803
97.8029
97.8029
97.8028
97.8028
97.8029
97.8029
97.803
97.8031
97.8032
97.8034
97.8036
97.8039
97.8042
97.8045
97.8049
97.8054
97.8059
97.8065
97.8071
97.8079
97.8086
97.8095
97.8105
97.8115
97.8127
97.8139
97.8153
97.8167
97.8183
97.82
97.8219
97.8238
97.8259
97.8282
97.8306
97.8332
97.8359
97.8388
97.8419
97.8452
97.8486
97.8523
97.8562
97.8603
97.8647
97.8693
97.8741
97.8792
97.8845
97.8902
97.8961
97.9024
97.9089
97.9158
97.923
97.9306
97.9385
97.9468
97.9554
97.9645
97.9739
97.9838
97.9941
98.0048
98.0159
98.0275
98.0395
98.052
98.0649
98.0782
98.092
98.1062
98.1208
98.1359
98.1513
98.1671
98.1833
97.8059
97.8058
97.8058
97.8057
97.8057
97.8056
97.8055
97.8053
97.8052
97.805
97.8049
97.8047
97.8045
97.8043
97.8042
97.804
97.8038
97.8036
97.8035
97.8033
97.8032
97.8031
97.803
97.8029
97.8029
97.8028
97.8028
97.8028
97.8029
97.8029
97.803
97.8032
97.8033
97.8036
97.8038
97.8041
97.8045
97.8049
97.8053
97.8058
97.8064
97.807
97.8078
97.8085
97.8094
97.8104
97.8114
97.8125
97.8138
97.8151
97.8166
97.8182
97.8199
97.8217
97.8236
97.8257
97.828
97.8304
97.8329
97.8356
97.8385
97.8416
97.8449
97.8483
97.852
97.8559
97.86
97.8643
97.8689
97.8737
97.8788
97.8841
97.8898
97.8957
97.9019
97.9084
97.9153
97.9225
97.93
97.9379
97.9462
97.9549
97.9639
97.9733
97.9832
97.9935
98.0042
98.0153
98.0269
98.0389
98.0513
98.0642
98.0776
98.0913
98.1056
98.1202
98.1353
98.1507
98.1666
98.1828
97.8059
97.8059
97.8058
97.8058
97.8057
97.8056
97.8055
97.8053
97.8052
97.805
97.8049
97.8047
97.8045
97.8043
97.8042
97.804
97.8038
97.8036
97.8035
97.8033
97.8032
97.8031
97.803
97.8029
97.8028
97.8028
97.8028
97.8028
97.8028
97.8029
97.803
97.8031
97.8033
97.8035
97.8037
97.804
97.8044
97.8048
97.8052
97.8057
97.8063
97.8069
97.8076
97.8084
97.8093
97.8102
97.8113
97.8124
97.8136
97.815
97.8164
97.818
97.8196
97.8215
97.8234
97.8255
97.8277
97.8301
97.8326
97.8354
97.8382
97.8413
97.8446
97.848
97.8517
97.8555
97.8596
97.8639
97.8685
97.8733
97.8783
97.8837
97.8893
97.8952
97.9014
97.9079
97.9147
97.9219
97.9294
97.9373
97.9456
97.9542
97.9632
97.9726
97.9825
97.9927
98.0034
98.0145
98.0261
98.0381
98.0506
98.0635
98.0768
98.0906
98.1048
98.1195
98.1346
98.1501
98.166
98.1822
97.806
97.8059
97.8059
97.8058
97.8057
97.8056
97.8055
97.8054
97.8052
97.8051
97.8049
97.8047
97.8045
97.8043
97.8042
97.804
97.8038
97.8036
97.8035
97.8033
97.8032
97.803
97.8029
97.8028
97.8028
97.8027
97.8027
97.8027
97.8028
97.8028
97.8029
97.803
97.8032
97.8034
97.8037
97.8039
97.8043
97.8047
97.8051
97.8056
97.8062
97.8068
97.8075
97.8083
97.8091
97.8101
97.8111
97.8122
97.8134
97.8147
97.8162
97.8177
97.8194
97.8212
97.8231
97.8252
97.8274
97.8298
97.8323
97.835
97.8379
97.8409
97.8442
97.8476
97.8512
97.8551
97.8592
97.8635
97.868
97.8728
97.8778
97.8831
97.8887
97.8946
97.9008
97.9073
97.9141
97.9212
97.9287
97.9366
97.9448
97.9534
97.9624
97.9718
97.9817
97.9919
98.0026
98.0137
98.0252
98.0372
98.0497
98.0626
98.076
98.0898
98.104
98.1187
98.1338
98.1493
98.1653
98.1816
97.806
97.806
97.8059
97.8059
97.8058
97.8057
97.8055
97.8054
97.8053
97.8051
97.8049
97.8047
97.8045
97.8043
97.8042
97.804
97.8038
97.8036
97.8034
97.8033
97.8031
97.803
97.8029
97.8028
97.8027
97.8027
97.8027
97.8027
97.8027
97.8028
97.8028
97.803
97.8031
97.8033
97.8036
97.8038
97.8042
97.8046
97.805
97.8055
97.806
97.8066
97.8073
97.8081
97.8089
97.8099
97.8109
97.812
97.8132
97.8145
97.8159
97.8175
97.8191
97.8209
97.8228
97.8249
97.8271
97.8295
97.832
97.8346
97.8375
97.8405
97.8438
97.8472
97.8508
97.8546
97.8587
97.8629
97.8674
97.8722
97.8772
97.8825
97.8881
97.8939
97.9001
97.9065
97.9133
97.9205
97.9279
97.9358
97.944
97.9526
97.9616
97.9709
97.9807
97.991
98.0016
98.0127
98.0243
98.0363
98.0487
98.0616
98.075
98.0888
98.1031
98.1178
98.1329
98.1485
98.1645
98.1808
97.806
97.806
97.806
97.8059
97.8058
97.8057
97.8056
97.8054
97.8053
97.8051
97.8049
97.8047
97.8045
97.8043
97.8041
97.804
97.8038
97.8036
97.8034
97.8032
97.8031
97.803
97.8029
97.8028
97.8027
97.8026
97.8026
97.8026
97.8026
97.8027
97.8028
97.8029
97.803
97.8032
97.8035
97.8037
97.8041
97.8044
97.8048
97.8053
97.8059
97.8065
97.8072
97.8079
97.8087
97.8097
97.8107
97.8118
97.813
97.8142
97.8157
97.8172
97.8188
97.8206
97.8225
97.8245
97.8267
97.8291
97.8316
97.8342
97.8371
97.8401
97.8433
97.8467
97.8503
97.8541
97.8581
97.8623
97.8668
97.8716
97.8766
97.8818
97.8874
97.8932
97.8993
97.9057
97.9125
97.9196
97.9271
97.9349
97.943
97.9516
97.9606
97.9699
97.9797
97.9899
98.0006
98.0116
98.0232
98.0352
98.0476
98.0605
98.0739
98.0877
98.102
98.1168
98.1319
98.1476
98.1636
98.18
97.8061
97.8061
97.806
97.806
97.8059
97.8058
97.8056
97.8055
97.8053
97.8051
97.8049
97.8048
97.8046
97.8043
97.8041
97.8039
97.8037
97.8036
97.8034
97.8032
97.8031
97.8029
97.8028
97.8027
97.8026
97.8026
97.8025
97.8025
97.8026
97.8026
97.8027
97.8028
97.8029
97.8031
97.8033
97.8036
97.8039
97.8043
97.8047
97.8052
97.8057
97.8063
97.807
97.8077
97.8085
97.8094
97.8104
97.8115
97.8127
97.814
97.8154
97.8169
97.8185
97.8202
97.8221
97.8242
97.8263
97.8286
97.8311
97.8338
97.8366
97.8396
97.8428
97.8461
97.8497
97.8535
97.8575
97.8617
97.8662
97.8709
97.8758
97.8811
97.8866
97.8924
97.8985
97.9049
97.9116
97.9187
97.9261
97.9339
97.942
97.9505
97.9595
97.9688
97.9786
97.9888
97.9994
98.0104
98.022
98.0339
98.0464
98.0593
98.0727
98.0865
98.1009
98.1156
98.1308
98.1465
98.1626
98.1791
97.8062
97.8061
97.8061
97.806
97.8059
97.8058
97.8057
97.8055
97.8053
97.8052
97.805
97.8048
97.8046
97.8044
97.8041
97.8039
97.8037
97.8035
97.8033
97.8032
97.803
97.8029
97.8028
97.8026
97.8026
97.8025
97.8025
97.8025
97.8025
97.8025
97.8026
97.8027
97.8028
97.803
97.8032
97.8035
97.8038
97.8041
97.8045
97.805
97.8055
97.8061
97.8068
97.8075
97.8083
97.8092
97.8101
97.8112
97.8124
97.8136
97.815
97.8165
97.8181
97.8199
97.8217
97.8237
97.8259
97.8282
97.8306
97.8333
97.8361
97.839
97.8422
97.8455
97.8491
97.8528
97.8568
97.861
97.8654
97.8701
97.875
97.8802
97.8857
97.8915
97.8975
97.9039
97.9106
97.9176
97.925
97.9328
97.9409
97.9494
97.9583
97.9676
97.9773
97.9875
97.9981
98.0091
98.0206
98.0326
98.0451
98.058
98.0714
98.0852
98.0996
98.1144
98.1296
98.1454
98.1615
98.1781
97.8062
97.8062
97.8062
97.8061
97.806
97.8059
97.8057
97.8056
97.8054
97.8052
97.805
97.8048
97.8046
97.8044
97.8041
97.8039
97.8037
97.8035
97.8033
97.8031
97.803
97.8028
97.8027
97.8026
97.8025
97.8024
97.8024
97.8024
97.8024
97.8024
97.8025
97.8026
97.8027
97.8029
97.8031
97.8033
97.8036
97.804
97.8044
97.8048
97.8053
97.8059
97.8065
97.8072
97.808
97.8089
97.8099
97.8109
97.8121
97.8133
97.8147
97.8161
97.8177
97.8194
97.8213
97.8233
97.8254
97.8277
97.8301
97.8327
97.8355
97.8384
97.8416
97.8449
97.8484
97.8521
97.8561
97.8602
97.8646
97.8693
97.8742
97.8793
97.8848
97.8905
97.8965
97.9029
97.9095
97.9165
97.9239
97.9316
97.9397
97.9481
97.957
97.9663
97.976
97.9861
97.9967
98.0077
98.0192
98.0312
98.0436
98.0565
98.0699
98.0838
98.0982
98.113
98.1283
98.1441
98.1603
98.1769
97.8063
97.8063
97.8062
97.8061
97.806
97.8059
97.8058
97.8056
97.8054
97.8052
97.805
97.8048
97.8046
97.8044
97.8041
97.8039
97.8037
97.8035
97.8033
97.8031
97.8029
97.8028
97.8026
97.8025
97.8024
97.8024
97.8023
97.8023
97.8023
97.8023
97.8024
97.8025
97.8026
97.8027
97.8029
97.8032
97.8035
97.8038
97.8042
97.8046
97.8051
97.8057
97.8063
97.807
97.8077
97.8086
97.8095
97.8106
97.8117
97.8129
97.8143
97.8157
97.8173
97.819
97.8208
97.8228
97.8249
97.8271
97.8296
97.8321
97.8349
97.8378
97.8409
97.8442
97.8477
97.8514
97.8553
97.8594
97.8638
97.8684
97.8732
97.8784
97.8838
97.8895
97.8955
97.9018
97.9084
97.9153
97.9226
97.9303
97.9383
97.9468
97.9556
97.9648
97.9745
97.9846
97.9952
98.0062
98.0176
98.0296
98.042
98.055
98.0684
98.0823
98.0967
98.1115
98.1269
98.1427
98.159
98.1757
97.8064
97.8064
97.8063
97.8062
97.8061
97.806
97.8058
97.8057
97.8055
97.8053
97.8051
97.8048
97.8046
97.8044
97.8041
97.8039
97.8037
97.8034
97.8032
97.803
97.8029
97.8027
97.8026
97.8024
97.8023
97.8023
97.8022
97.8022
97.8022
97.8022
97.8023
97.8023
97.8025
97.8026
97.8028
97.803
97.8033
97.8036
97.804
97.8044
97.8049
97.8054
97.806
97.8067
97.8074
97.8083
97.8092
97.8102
97.8113
97.8125
97.8139
97.8153
97.8168
97.8185
97.8203
97.8223
97.8243
97.8266
97.829
97.8315
97.8342
97.8371
97.8402
97.8434
97.8469
97.8506
97.8544
97.8585
97.8629
97.8674
97.8723
97.8773
97.8827
97.8883
97.8943
97.9005
97.9071
97.914
97.9213
97.9289
97.9369
97.9453
97.9541
97.9633
97.9729
97.983
97.9935
98.0045
98.016
98.0279
98.0403
98.0533
98.0667
98.0806
98.095
98.1099
98.1253
98.1412
98.1576
98.1744
97.8065
97.8064
97.8064
97.8063
97.8062
97.8061
97.8059
97.8057
97.8055
97.8053
97.8051
97.8048
97.8046
97.8044
97.8041
97.8039
97.8036
97.8034
97.8032
97.803
97.8028
97.8026
97.8025
97.8024
97.8023
97.8022
97.8021
97.8021
97.8021
97.8021
97.8021
97.8022
97.8023
97.8025
97.8026
97.8028
97.8031
97.8034
97.8037
97.8041
97.8046
97.8051
97.8057
97.8064
97.8071
97.8079
97.8088
97.8098
97.8109
97.8121
97.8134
97.8148
97.8163
97.818
97.8198
97.8217
97.8237
97.826
97.8283
97.8308
97.8335
97.8364
97.8394
97.8426
97.8461
97.8497
97.8535
97.8576
97.8619
97.8664
97.8712
97.8762
97.8816
97.8872
97.8931
97.8993
97.9058
97.9127
97.9199
97.9275
97.9354
97.9438
97.9525
97.9617
97.9713
97.9813
97.9918
98.0027
98.0142
98.0261
98.0385
98.0514
98.0649
98.0788
98.0933
98.1082
98.1237
98.1396
98.1561
98.173
97.8066
97.8065
97.8065
97.8064
97.8063
97.8061
97.806
97.8058
97.8056
97.8054
97.8051
97.8049
97.8046
97.8044
97.8041
97.8038
97.8036
97.8034
97.8031
97.8029
97.8027
97.8026
97.8024
97.8023
97.8022
97.8021
97.802
97.802
97.802
97.802
97.802
97.8021
97.8022
97.8023
97.8025
97.8027
97.8029
97.8032
97.8035
97.8039
97.8043
97.8049
97.8054
97.8061
97.8068
97.8076
97.8085
97.8094
97.8105
97.8117
97.8129
97.8143
97.8158
97.8175
97.8192
97.8211
97.8231
97.8253
97.8276
97.8301
97.8328
97.8356
97.8386
97.8418
97.8452
97.8488
97.8526
97.8566
97.8608
97.8653
97.8701
97.8751
97.8803
97.8859
97.8917
97.8979
97.9044
97.9112
97.9184
97.9259
97.9338
97.9421
97.9508
97.9599
97.9695
97.9795
97.9899
98.0009
98.0123
98.0242
98.0366
98.0495
98.0629
98.0769
98.0914
98.1064
98.1219
98.1379
98.1544
98.1714
97.8067
97.8066
97.8066
97.8065
97.8064
97.8062
97.806
97.8059
97.8056
97.8054
97.8052
97.8049
97.8046
97.8044
97.8041
97.8038
97.8036
97.8033
97.8031
97.8029
97.8027
97.8025
97.8023
97.8022
97.8021
97.802
97.8019
97.8019
97.8018
97.8018
97.8019
97.8019
97.802
97.8021
97.8023
97.8025
97.8027
97.803
97.8033
97.8036
97.8041
97.8046
97.8051
97.8057
97.8064
97.8072
97.8081
97.809
97.8101
97.8112
97.8124
97.8138
97.8153
97.8169
97.8186
97.8205
97.8225
97.8246
97.8269
97.8294
97.832
97.8348
97.8378
97.8409
97.8443
97.8478
97.8516
97.8555
97.8597
97.8642
97.8689
97.8738
97.879
97.8846
97.8904
97.8965
97.9029
97.9096
97.9168
97.9242
97.9321
97.9403
97.949
97.9581
97.9676
97.9775
97.9879
97.9988
98.0102
98.0221
98.0345
98.0474
98.0609
98.0748
98.0893
98.1044
98.12
98.1361
98.1527
98.1698
97.8068
97.8067
97.8067
97.8066
97.8065
97.8063
97.8061
97.8059
97.8057
97.8055
97.8052
97.8049
97.8046
97.8044
97.8041
97.8038
97.8035
97.8033
97.803
97.8028
97.8026
97.8024
97.8022
97.8021
97.802
97.8019
97.8018
97.8017
97.8017
97.8017
97.8017
97.8018
97.8018
97.8019
97.8021
97.8022
97.8025
97.8027
97.803
97.8034
97.8038
97.8042
97.8048
97.8054
97.806
97.8068
97.8076
97.8086
97.8096
97.8107
97.8119
97.8132
97.8147
97.8163
97.818
97.8198
97.8218
97.8239
97.8261
97.8286
97.8312
97.8339
97.8368
97.84
97.8433
97.8468
97.8505
97.8544
97.8586
97.863
97.8676
97.8725
97.8777
97.8831
97.8889
97.8949
97.9013
97.908
97.9151
97.9225
97.9303
97.9385
97.9471
97.9561
97.9655
97.9755
97.9858
97.9967
98.0081
98.0199
98.0323
98.0452
98.0587
98.0726
98.0872
98.1023
98.1179
98.1341
98.1508
98.168
97.8069
97.8069
97.8068
97.8067
97.8066
97.8064
97.8062
97.806
97.8058
97.8055
97.8052
97.805
97.8047
97.8044
97.8041
97.8038
97.8035
97.8032
97.803
97.8027
97.8025
97.8023
97.8021
97.802
97.8019
97.8017
97.8017
97.8016
97.8016
97.8016
97.8016
97.8016
97.8017
97.8018
97.8019
97.802
97.8022
97.8025
97.8027
97.8031
97.8035
97.8039
97.8044
97.805
97.8057
97.8064
97.8072
97.8081
97.8091
97.8102
97.8114
97.8127
97.8141
97.8156
97.8173
97.8191
97.821
97.8231
97.8253
97.8277
97.8303
97.833
97.8359
97.839
97.8422
97.8457
97.8494
97.8533
97.8574
97.8617
97.8663
97.8711
97.8763
97.8817
97.8873
97.8933
97.8996
97.9063
97.9133
97.9206
97.9284
97.9365
97.945
97.954
97.9634
97.9733
97.9836
97.9944
98.0058
98.0176
98.03
98.0429
98.0563
98.0703
98.0849
98.1
98.1157
98.132
98.1488
98.1661
97.807
97.807
97.8069
97.8068
97.8067
97.8065
97.8063
97.8061
97.8058
97.8056
97.8053
97.805
97.8047
97.8044
97.8041
97.8037
97.8035
97.8032
97.8029
97.8027
97.8024
97.8022
97.802
97.8019
97.8017
97.8016
97.8015
97.8015
97.8014
97.8014
97.8014
97.8014
97.8015
97.8016
97.8017
97.8018
97.802
97.8022
97.8025
97.8028
97.8031
97.8036
97.8041
97.8046
97.8052
97.8059
97.8067
97.8076
97.8086
97.8096
97.8108
97.8121
97.8134
97.8149
97.8166
97.8184
97.8203
97.8223
97.8245
97.8269
97.8294
97.8321
97.8349
97.8379
97.8412
97.8446
97.8482
97.852
97.8561
97.8604
97.8649
97.8697
97.8748
97.8801
97.8857
97.8916
97.8979
97.9045
97.9114
97.9187
97.9264
97.9344
97.9429
97.9518
97.9612
97.971
97.9813
97.9921
98.0033
98.0152
98.0275
98.0404
98.0538
98.0679
98.0825
98.0976
98.1134
98.1297
98.1466
98.1641
97.8072
97.8071
97.807
97.8069
97.8068
97.8066
97.8064
97.8062
97.8059
97.8056
97.8053
97.805
97.8047
97.8044
97.804
97.8037
97.8034
97.8031
97.8028
97.8026
97.8023
97.8021
97.8019
97.8018
97.8016
97.8015
97.8014
97.8013
97.8013
97.8012
97.8012
97.8013
97.8013
97.8014
97.8014
97.8016
97.8017
97.8019
97.8022
97.8025
97.8028
97.8032
97.8037
97.8042
97.8048
97.8055
97.8062
97.8071
97.808
97.809
97.8102
97.8114
97.8128
97.8142
97.8158
97.8176
97.8194
97.8215
97.8236
97.8259
97.8284
97.8311
97.8339
97.8369
97.84
97.8434
97.847
97.8508
97.8548
97.859
97.8635
97.8682
97.8732
97.8785
97.884
97.8899
97.8961
97.9026
97.9094
97.9167
97.9243
97.9323
97.9407
97.9495
97.9588
97.9686
97.9788
97.9895
98.0008
98.0126
98.0249
98.0378
98.0512
98.0653
98.0799
98.0951
98.1109
98.1273
98.1443
98.1619
97.8073
97.8073
97.8072
97.8071
97.8069
97.8067
97.8065
97.8063
97.806
97.8057
97.8054
97.8051
97.8047
97.8044
97.804
97.8037
97.8034
97.803
97.8028
97.8025
97.8022
97.802
97.8018
97.8016
97.8015
97.8014
97.8013
97.8012
97.8011
97.8011
97.8011
97.8011
97.8011
97.8011
97.8012
97.8013
97.8015
97.8016
97.8019
97.8021
97.8025
97.8028
97.8033
97.8038
97.8043
97.805
97.8057
97.8065
97.8074
97.8084
97.8095
97.8107
97.8121
97.8135
97.8151
97.8168
97.8186
97.8206
97.8227
97.825
97.8274
97.83
97.8328
97.8357
97.8389
97.8422
97.8457
97.8494
97.8534
97.8575
97.862
97.8666
97.8715
97.8768
97.8822
97.888
97.8941
97.9006
97.9074
97.9145
97.9221
97.93
97.9383
97.9471
97.9563
97.966
97.9762
97.9869
97.9981
98.0099
98.0221
98.035
98.0485
98.0625
98.0771
98.0924
98.1083
98.1248
98.1419
98.1596
97.8075
97.8074
97.8073
97.8072
97.8071
97.8069
97.8066
97.8064
97.8061
97.8058
97.8054
97.8051
97.8047
97.8044
97.804
97.8036
97.8033
97.803
97.8027
97.8024
97.8021
97.8019
97.8017
97.8015
97.8014
97.8012
97.8011
97.801
97.801
97.8009
97.8009
97.8009
97.8009
97.8009
97.801
97.8011
97.8012
97.8014
97.8016
97.8018
97.8021
97.8024
97.8029
97.8033
97.8039
97.8045
97.8052
97.806
97.8068
97.8078
97.8089
97.8101
97.8113
97.8127
97.8143
97.8159
97.8177
97.8197
97.8218
97.824
97.8264
97.8289
97.8317
97.8346
97.8376
97.8409
97.8444
97.848
97.8519
97.856
97.8604
97.865
97.8698
97.875
97.8804
97.8861
97.8921
97.8985
97.9052
97.9123
97.9198
97.9276
97.9359
97.9446
97.9537
97.9634
97.9735
97.9841
97.9953
98.007
98.0193
98.0321
98.0456
98.0596
98.0743
98.0896
98.1055
98.1221
98.1393
98.1571
97.8076
97.8076
97.8075
97.8074
97.8072
97.807
97.8068
97.8065
97.8062
97.8058
97.8055
97.8051
97.8047
97.8044
97.804
97.8036
97.8032
97.8029
97.8026
97.8023
97.802
97.8018
97.8016
97.8014
97.8012
97.8011
97.801
97.8009
97.8008
97.8008
97.8007
97.8007
97.8007
97.8007
97.8008
97.8008
97.8009
97.8011
97.8012
97.8014
97.8017
97.802
97.8024
97.8029
97.8034
97.804
97.8046
97.8054
97.8062
97.8072
97.8082
97.8093
97.8106
97.8119
97.8134
97.8151
97.8168
97.8187
97.8208
97.823
97.8253
97.8278
97.8305
97.8333
97.8364
97.8396
97.843
97.8466
97.8504
97.8545
97.8588
97.8633
97.8681
97.8731
97.8785
97.8841
97.8901
97.8963
97.903
97.91
97.9173
97.9251
97.9333
97.9419
97.951
97.9606
97.9707
97.9812
97.9923
98.004
98.0162
98.0291
98.0425
98.0565
98.0712
98.0866
98.1026
98.1192
98.1365
98.1545
97.8078
97.8077
97.8076
97.8075
97.8073
97.8071
97.8069
97.8066
97.8063
97.8059
97.8056
97.8052
97.8048
97.8044
97.804
97.8036
97.8032
97.8028
97.8025
97.8022
97.8019
97.8017
97.8014
97.8012
97.8011
97.8009
97.8008
97.8007
97.8006
97.8006
97.8005
97.8005
97.8005
97.8005
97.8005
97.8006
97.8006
97.8007
97.8009
97.8011
97.8013
97.8016
97.802
97.8024
97.8029
97.8034
97.8041
97.8048
97.8056
97.8065
97.8075
97.8086
97.8098
97.8111
97.8126
97.8142
97.8159
97.8177
97.8197
97.8219
97.8242
97.8266
97.8293
97.8321
97.835
97.8382
97.8416
97.8451
97.8489
97.8528
97.8571
97.8615
97.8662
97.8712
97.8765
97.882
97.8879
97.8941
97.9006
97.9076
97.9148
97.9225
97.9306
97.9392
97.9482
97.9577
97.9677
97.9782
97.9892
98.0009
98.0131
98.0258
98.0393
98.0533
98.068
98.0834
98.0995
98.1162
98.1336
98.1517
97.808
97.8079
97.8078
97.8077
97.8075
97.8073
97.807
97.8067
97.8064
97.806
97.8056
97.8052
97.8048
97.8044
97.8039
97.8035
97.8031
97.8027
97.8024
97.8021
97.8018
97.8015
97.8013
97.8011
97.8009
97.8008
97.8007
97.8006
97.8005
97.8004
97.8003
97.8003
97.8003
97.8002
97.8003
97.8003
97.8003
97.8004
97.8005
97.8007
97.8009
97.8012
97.8015
97.8019
97.8023
97.8029
97.8035
97.8042
97.8049
97.8058
97.8067
97.8078
97.809
97.8103
97.8117
97.8132
97.8149
97.8167
97.8187
97.8208
97.823
97.8254
97.828
97.8308
97.8337
97.8368
97.8401
97.8436
97.8472
97.8512
97.8553
97.8597
97.8643
97.8692
97.8744
97.8799
97.8857
97.8918
97.8982
97.905
97.9122
97.9198
97.9279
97.9363
97.9452
97.9547
97.9646
97.975
97.986
97.9976
98.0097
98.0225
98.0359
98.0499
98.0647
98.0801
98.0962
98.113
98.1305
98.1488
97.8082
97.8081
97.808
97.8079
97.8077
97.8075
97.8072
97.8069
97.8065
97.8061
97.8057
97.8053
97.8048
97.8044
97.8039
97.8035
97.803
97.8027
97.8023
97.8019
97.8016
97.8014
97.8011
97.8009
97.8008
97.8006
97.8005
97.8004
97.8003
97.8002
97.8001
97.8001
97.8
97.8
97.8
97.8
97.8
97.8001
97.8002
97.8003
97.8005
97.8007
97.801
97.8014
97.8018
97.8023
97.8029
97.8035
97.8042
97.8051
97.806
97.807
97.8081
97.8094
97.8107
97.8122
97.8139
97.8156
97.8176
97.8196
97.8218
97.8242
97.8267
97.8294
97.8323
97.8353
97.8385
97.842
97.8456
97.8494
97.8535
97.8578
97.8623
97.8671
97.8722
97.8776
97.8833
97.8893
97.8957
97.9024
97.9095
97.917
97.925
97.9333
97.9422
97.9515
97.9613
97.9717
97.9826
97.9941
98.0062
98.019
98.0323
98.0464
98.0611
98.0766
98.0927
98.1096
98.1273
98.1456
97.8084
97.8083
97.8082
97.8081
97.8079
97.8076
97.8073
97.807
97.8066
97.8062
97.8058
97.8053
97.8048
97.8044
97.8039
97.8034
97.803
97.8026
97.8022
97.8018
97.8015
97.8012
97.801
97.8008
97.8006
97.8005
97.8003
97.8002
97.8001
97.8
97.7999
97.7999
97.7998
97.7998
97.7997
97.7997
97.7997
97.7998
97.7998
97.7999
97.8001
97.8003
97.8005
97.8009
97.8012
97.8017
97.8022
97.8028
97.8035
97.8043
97.8052
97.8062
97.8073
97.8085
97.8098
97.8112
97.8128
97.8145
97.8164
97.8184
97.8206
97.8229
97.8254
97.828
97.8308
97.8338
97.837
97.8403
97.8439
97.8476
97.8516
97.8558
97.8603
97.865
97.87
97.8753
97.8809
97.8868
97.8931
97.8997
97.9067
97.9141
97.922
97.9302
97.939
97.9482
97.958
97.9683
97.9791
97.9905
98.0026
98.0153
98.0286
98.0427
98.0574
98.0729
98.0891
98.1061
98.1238
98.1423
97.8086
97.8085
97.8084
97.8083
97.8081
97.8078
97.8075
97.8072
97.8068
97.8063
97.8059
97.8054
97.8049
97.8044
97.8038
97.8034
97.8029
97.8024
97.802
97.8017
97.8014
97.8011
97.8008
97.8006
97.8004
97.8003
97.8001
97.8
97.7999
97.7998
97.7997
97.7997
97.7996
97.7995
97.7995
97.7994
97.7994
97.7994
97.7994
97.7995
97.7996
97.7998
97.8
97.8003
97.8007
97.8011
97.8016
97.8021
97.8028
97.8035
97.8044
97.8053
97.8064
97.8075
97.8088
97.8102
97.8117
97.8134
97.8152
97.8172
97.8193
97.8216
97.824
97.8266
97.8293
97.8322
97.8353
97.8386
97.8421
97.8458
97.8497
97.8538
97.8582
97.8628
97.8677
97.8729
97.8784
97.8842
97.8904
97.8969
97.9038
97.9111
97.9189
97.927
97.9357
97.9448
97.9545
97.9647
97.9754
97.9868
97.9988
98.0114
98.0248
98.0388
98.0535
98.069
98.0853
98.1023
98.1202
98.1388
97.8088
97.8088
97.8086
97.8085
97.8083
97.808
97.8077
97.8073
97.8069
97.8064
97.806
97.8054
97.8049
97.8043
97.8038
97.8033
97.8028
97.8023
97.8019
97.8015
97.8012
97.8009
97.8007
97.8004
97.8003
97.8001
97.8
97.7999
97.7997
97.7996
97.7996
97.7995
97.7994
97.7993
97.7992
97.7991
97.7991
97.799
97.799
97.7991
97.7992
97.7993
97.7995
97.7998
97.8001
97.8005
97.8009
97.8014
97.802
97.8027
97.8035
97.8044
97.8054
97.8065
97.8078
97.8091
97.8106
97.8122
97.814
97.8159
97.818
97.8202
97.8226
97.8251
97.8278
97.8306
97.8336
97.8368
97.8402
97.8438
97.8477
97.8517
97.856
97.8605
97.8654
97.8705
97.8759
97.8816
97.8876
97.894
97.9008
97.908
97.9156
97.9237
97.9322
97.9413
97.9508
97.9609
97.9716
97.9829
97.9948
98.0074
98.0207
98.0347
98.0494
98.0649
98.0812
98.0984
98.1163
98.1351
97.8091
97.809
97.8089
97.8087
97.8085
97.8082
97.8079
97.8075
97.8071
97.8066
97.806
97.8055
97.8049
97.8043
97.8038
97.8032
97.8027
97.8022
97.8018
97.8014
97.801
97.8007
97.8005
97.8003
97.8001
97.7999
97.7998
97.7997
97.7996
97.7995
97.7994
97.7992
97.7991
97.799
97.7989
97.7988
97.7987
97.7987
97.7987
97.7987
97.7987
97.7988
97.799
97.7992
97.7995
97.7998
97.8002
97.8007
97.8013
97.8019
97.8027
97.8035
97.8045
97.8055
97.8067
97.808
97.8095
97.811
97.8128
97.8146
97.8167
97.8188
97.8211
97.8236
97.8262
97.829
97.8319
97.8351
97.8384
97.8419
97.8456
97.8496
97.8538
97.8582
97.8629
97.8679
97.8732
97.8788
97.8848
97.891
97.8977
97.9048
97.9123
97.9202
97.9287
97.9376
97.947
97.957
97.9676
97.9788
97.9907
98.0032
98.0165
98.0304
98.0452
98.0607
98.077
98.0942
98.1122
98.1312
97.8093
97.8092
97.8091
97.809
97.8087
97.8085
97.8081
97.8077
97.8072
97.8067
97.8062
97.8056
97.8049
97.8043
97.8037
97.8031
97.8026
97.8021
97.8016
97.8012
97.8008
97.8005
97.8003
97.8001
97.7999
97.7997
97.7996
97.7995
97.7994
97.7993
97.7992
97.799
97.7989
97.7988
97.7986
97.7985
97.7984
97.7983
97.7982
97.7982
97.7982
97.7983
97.7984
97.7986
97.7988
97.7991
97.7995
97.8
97.8005
97.8011
97.8018
97.8026
97.8035
97.8045
97.8056
97.8069
97.8083
97.8098
97.8115
97.8133
97.8153
97.8174
97.8196
97.822
97.8246
97.8273
97.8302
97.8332
97.8364
97.8399
97.8435
97.8474
97.8514
97.8558
97.8604
97.8653
97.8705
97.876
97.8818
97.888
97.8945
97.9015
97.9088
97.9167
97.925
97.9338
97.9431
97.953
97.9635
97.9746
97.9864
97.9989
98.012
98.026
98.0407
98.0562
98.0726
98.0898
98.108
98.127
97.8096
97.8095
97.8094
97.8092
97.809
97.8087
97.8083
97.8079
97.8074
97.8069
97.8063
97.8056
97.805
97.8043
97.8037
97.803
97.8025
97.8019
97.8014
97.801
97.8006
97.8003
97.8001
97.7999
97.7997
97.7995
97.7994
97.7993
97.7992
97.7991
97.799
97.7988
97.7987
97.7985
97.7984
97.7982
97.7981
97.7979
97.7978
97.7978
97.7977
97.7978
97.7978
97.798
97.7982
97.7985
97.7988
97.7992
97.7997
97.8002
97.8009
97.8016
97.8025
97.8034
97.8045
97.8057
97.8071
97.8085
97.8102
97.8119
97.8139
97.8159
97.8181
97.8204
97.8229
97.8256
97.8284
97.8313
97.8345
97.8378
97.8413
97.8451
97.8491
97.8533
97.8578
97.8626
97.8677
97.873
97.8787
97.8848
97.8912
97.898
97.9053
97.913
97.9212
97.9298
97.9391
97.9489
97.9592
97.9703
97.9819
97.9943
98.0074
98.0213
98.036
98.0515
98.0679
98.0852
98.1035
98.1226
97.8099
97.8098
97.8097
97.8095
97.8093
97.809
97.8086
97.8081
97.8076
97.807
97.8064
97.8057
97.805
97.8043
97.8036
97.803
97.8023
97.8018
97.8012
97.8008
97.8004
97.8001
97.7999
97.7996
97.7995
97.7993
97.7992
97.7991
97.799
97.7989
97.7988
97.7986
97.7985
97.7983
97.7981
97.7979
97.7977
97.7976
97.7974
97.7973
97.7972
97.7972
97.7973
97.7974
97.7975
97.7978
97.798
97.7984
97.7988
97.7993
97.7999
97.8006
97.8014
97.8023
97.8033
97.8045
97.8058
97.8072
97.8088
97.8105
97.8124
97.8144
97.8165
97.8188
97.8212
97.8238
97.8265
97.8294
97.8324
97.8357
97.8391
97.8428
97.8467
97.8508
97.8552
97.8598
97.8648
97.87
97.8756
97.8815
97.8878
97.8945
97.9016
97.9092
97.9172
97.9258
97.9349
97.9445
97.9548
97.9657
97.9773
97.9896
98.0026
98.0165
98.0311
98.0466
98.063
98.0804
98.0987
98.118
97.8101
97.8101
97.81
97.8098
97.8095
97.8092
97.8088
97.8084
97.8078
97.8072
97.8065
97.8058
97.805
97.8043
97.8036
97.8028
97.8022
97.8016
97.801
97.8006
97.8002
97.7999
97.7996
97.7994
97.7993
97.7991
97.799
97.7989
97.7988
97.7987
97.7986
97.7984
97.7982
97.798
97.7978
97.7976
97.7974
97.7972
97.797
97.7968
97.7967
97.7967
97.7967
97.7967
97.7969
97.797
97.7973
97.7976
97.798
97.7984
97.799
97.7996
97.8003
97.8012
97.8022
97.8033
97.8045
97.8059
97.8074
97.8091
97.8109
97.8129
97.8149
97.8172
97.8195
97.822
97.8246
97.8274
97.8303
97.8335
97.8368
97.8404
97.8442
97.8482
97.8525
97.857
97.8618
97.8669
97.8724
97.8781
97.8843
97.8908
97.8978
97.9052
97.9131
97.9216
97.9305
97.9401
97.9502
97.961
97.9725
97.9847