/*--------------------------------*- C++ -*----------------------------------*\
| =========                 |                                                 |
| \\      /  F ield         | OpenFOAM: The Open Source CFD Toolbox           |
|  \\    /   O peration     | Version:  2.4.0                                 |
|   \\  /    A nd           | Web:      www.OpenFOAM.org                      |
|    \\/     M anipulation  |                                                 |
\*---------------------------------------------------------------------------*/
FoamFile
{
    version     2.0;
    format      ascii;
    class       volScalarField;
    location    "0.243";
    object      alpha.water;
}
// * * * * * * * * * * * * * * * * * * * * * * * * * * * * * * * * * * * * * //

dimensions      [0 0 0 0 0 0 0];

internalField   nonuniform List<scalar> 
60000
(
1
1
1
1
1
1
1
1
1
1
1
1
1
1
1
1
1
1
1
1
1
1
1
1
1
1
1
1
1
1
1
1
1
1
1
1
1
1
1
1
1
1
1
1
1
1
1
1
1
1
1
1
1
1
1
1
1
1
1
1
1
1
1
1
1
1
1
1
1
1
1
1
1
1
1
1
1
1
1
1
1
1
1
1
1
1
1
1
1
1
1
1
1
1
1
1
1
1
1
1
1
1
1
1
1
1
1
1
1
1
1
1
1
1
1
1
1
1
1
1
1
1
1
1
1
1
1
1
1
1
1
1
1
1
1
1
1
1
1
1
1
1
1
1
1
1
1
1
1
1
1
1
1
1
1
1
1
1
1
1
1
1
1
1
1
1
1
1
1
1
1
1
1
1
1
1
1
1
1
1
1
1
1
1
1
1
1
1
1
1
1
1
1
1
1
1
1
1
1
1
1
1
1
1
1
1
1
1
1
1
1
1
1
1
1
1
1
1
1
1
1
1
1
1
1
1
1
1
1
1
1
1
1
1
1
1
1
1
1
1
1
1
1
1
1
1
1
1
1
1
1
1
1
1
1
1
1
1
1
1
1
1
1
1
1
1
1
1
1
1
1
1
1
1
1
1
1
1
1
1
1
1
1
1
1
1
1
1
1
1
1
1
1
1
1
1
1
1
1
1
1
1
1
1
1
1
1
1
1
1
1
1
1
1
1
1
1
1
1
1
1
1
1
1
1
1
1
1
1
1
1
1
1
1
1
1
1
1
1
1
1
1
1
1
1
1
1
1
1
1
1
1
1
1
1
1
1
1
1
1
1
1
1
1
1
1
1
1
1
1
1
1
1
1
1
1
1
1
1
1
1
1
1
1
1
1
1
1
1
1
1
1
1
1
1
1
1
1
1
1
1
1
1
1
1
1
1
1
1
1
1
1
1
1
1
1
1
1
1
1
1
1
1
1
1
1
1
1
1
1
1
1
1
1
1
1
1
1
1
1
1
1
1
1
1
1
1
1
1
1
1
1
1
1
1
1
1
1
1
1
1
1
1
1
1
1
1
1
1
1
1
1
1
1
1
1
1
1
1
1
1
1
1
1
1
1
1
1
1
1
1
1
1
1
1
1
1
1
1
1
1
1
1
1
1
1
1
1
1
1
1
1
1
1
1
1
1
1
1
1
1
1
1
1
1
1
1
1
1
1
1
1
1
1
1
1
1
1
1
1
1
1
1
1
1
1
1
1
1
1
1
1
1
1
1
1
1
1
1
1
1
1
1
1
1
1
1
1
1
1
1
1
1
1
1
1
1
1
1
1
1
1
1
1
1
1
1
1
1
1
1
1
1
1
1
1
1
1
1
1
1
1
1
1
1
1
1
1
1
1
1
1
1
1
1
1
1
1
1
1
1
1
1
1
1
1
1
1
1
1
1
1
1
1
1
1
1
1
1
1
1
1
1
1
1
1
1
1
1
1
1
1
1
1
1
1
1
1
1
1
1
1
1
1
1
1
1
1
1
1
1
1
1
1
1
1
1
1
1
1
1
1
1
1
1
1
1
1
1
1
1
1
1
1
1
1
1
1
1
1
1
1
1
1
1
1
1
1
1
1
1
1
1
1
1
1
1
1
1
1
1
1
1
1
1
1
1
1
1
1
1
1
1
1
1
1
1
1
1
1
1
1
1
1
1
1
1
1
1
1
1
1
1
1
1
1
1
1
1
1
1
1
1
1
1
1
1
1
1
1
1
1
1
1
1
1
1
1
1
1
1
1
1
1
1
1
1
1
1
1
1
1
1
1
1
1
1
1
1
1
1
1
1
1
1
1
1
1
1
1
1
1
1
1
1
1
1
1
1
1
1
1
1
1
1
1
1
1
1
1
1
1
1
1
1
1
1
1
1
1
1
1
1
1
1
1
1
1
1
1
1
1
1
1
1
1
1
1
1
1
1
1
1
1
1
1
1
1
1
1
1
1
1
1
1
1
1
1
1
1
1
1
1
1
1
1
1
1
1
1
1
1
1
1
1
1
1
1
1
1
1
1
1
1
1
1
1
1
1
1
1
1
1
1
1
1
1
1
1
1
1
1
1
1
1
1
1
1
1
1
1
1
1
1
1
1
1
1
1
1
1
1
1
1
1
1
1
1
1
1
1
1
1
1
1
1
1
1
1
1
1
1
1
1
1
1
1
1
1
1
1
1
1
1
1
1
1
1
1
1
1
1
1
1
1
1
1
1
1
1
1
1
1
1
1
1
1
1
1
1
1
1
1
1
1
1
1
1
1
1
1
1
1
1
1
1
1
1
1
1
1
1
1
1
1
1
1
1
1
1
1
1
1
1
1
1
1
1
1
1
1
1
1
1
1
1
1
1
1
1
1
1
1
1
1
1
1
1
1
1
1
1
1
1
1
1
1
1
1
1
1
1
1
1
1
1
1
1
1
1
1
1
1
1
1
1
1
1
1
1
1
1
1
1
1
1
1
1
1
1
1
1
1
1
1
1
1
1
1
1
1
1
1
1
1
1
1
1
1
1
1
1
1
1
1
1
1
1
1
1
1
1
1
1
1
1
1
1
1
1
1
1
1
1
1
1
1
1
1
1
1
1
1
1
1
1
1
1
1
1
1
1
1
1
1
1
1
1
1
1
1
1
1
1
1
1
1
1
1
1
1
1
1
1
1
1
1
1
1
1
1
1
1
1
1
1
1
1
1
1
1
1
1
1
1
1
1
1
1
1
1
1
1
1
1
1
1
1
1
1
1
1
1
1
1
1
1
1
1
1
1
1
1
1
1
1
1
1
1
1
1
1
1
1
1
1
1
1
1
1
1
1
1
1
1
1
1
1
1
1
1
1
1
1
1
1
1
1
1
1
1
1
1
1
1
1
1
1
1
1
1
1
1
1
1
1
1
1
1
1
1
1
1
1
1
1
1
1
1
1
1
1
1
1
1
1
1
1
1
1
1
1
1
1
1
1
1
1
1
1
1
1
1
1
1
1
1
1
1
1
1
1
1
1
1
1
1
1
1
1
1
1
1
1
1
1
1
1
1
1
1
1
1
1
1
1
1
1
1
1
1
1
1
1
1
1
1
1
1
1
1
1
1
1
1
1
1
1
1
1
1
1
1
1
1
1
1
1
1
1
1
1
1
1
1
1
1
1
1
1
1
1
1
1
1
1
1
1
1
1
1
1
1
1
1
1
1
1
1
1
1
1
1
1
1
1
1
1
1
1
1
1
1
1
1
1
1
1
1
1
1
1
1
1
1
1
1
1
1
1
1
1
1
1
1
1
1
1
1
1
1
1
1
1
1
1
1
1
1
1
1
1
1
1
1
1
1
1
1
1
1
1
1
1
1
1
1
1
1
1
1
1
1
1
1
1
1
1
1
1
1
1
1
1
1
1
1
1
1
1
1
1
1
1
1
1
1
1
1
1
1
1
1
1
1
1
1
1
1
1
1
1
1
1
1
1
1
1
1
1
1
1
1
1
1
1
1
1
1
1
1
1
1
1
1
1
1
1
1
1
1
1
1
1
1
1
1
1
1
1
1
1
1
1
1
1
1
1
1
1
1
1
1
1
1
1
1
1
1
1
1
1
1
1
1
1
1
1
1
1
1
1
1
1
1
1
1
1
1
1
1
1
1
1
1
1
1
1
1
1
1
1
1
1
1
1
1
1
1
1
1
1
1
1
1
1
1
1
1
1
1
1
1
1
1
1
1
1
1
1
1
1
1
1
1
1
1
1
1
1
1
1
1
1
1
1
1
1
1
1
1
1
1
1
1
1
1
1
1
1
1
1
1
1
1
1
1
1
1
1
1
1
1
1
1
1
1
1
1
1
1
1
1
1
1
1
1
1
1
1
1
1
1
1
1
1
1
1
1
1
1
1
1
1
1
1
1
1
1
1
1
1
1
1
1
1
1
1
1
1
1
1
1
1
1
1
1
1
1
1
1
1
1
1
1
1
1
1
1
1
1
1
1
1
1
1
1
1
1
1
1
1
1
1
1
1
1
1
1
1
1
1
1
1
1
1
1
1
1
1
1
1
1
1
1
1
1
1
1
1
1
1
1
1
1
1
1
1
1
1
1
1
1
1
1
1
1
1
1
1
1
1
1
1
1
1
1
1
1
1
1
1
1
1
1
1
1
1
1
1
1
1
1
1
1
1
1
1
1
1
1
1
1
1
1
1
1
1
1
1
1
1
1
1
1
1
1
1
1
1
1
1
1
1
1
1
1
1
1
1
1
1
1
1
1
1
1
1
1
1
1
1
1
1
1
1
1
1
1
1
1
1
1
1
1
1
1
1
1
1
1
1
1
1
1
1
1
1
1
1
1
1
1
1
1
1
1
1
1
1
1
1
1
1
1
1
1
1
1
1
1
1
1
1
1
1
1
1
1
1
1
1
1
1
1
1
1
1
1
1
1
1
1
1
1
1
1
1
1
1
1
1
1
1
1
1
1
1
1
1
1
1
1
1
1
1
1
1
1
1
1
1
1
1
1
1
1
1
1
1
1
1
1
1
1
1
1
1
1
1
1
1
1
1
1
1
1
1
1
1
1
1
1
1
1
1
1
1
1
1
1
1
1
1
1
1
1
1
1
1
1
1
1
1
1
1
1
1
1
1
1
1
1
1
1
1
1
1
1
1
1
1
1
1
1
1
1
1
1
1
1
1
1
1
1
1
1
1
1
1
1
1
1
1
1
1
1
1
1
1
1
1
1
1
1
1
1
1
1
0.999999
1
1
1
1
1
1
1
1
1
1
1
1
1
1
1
1
1
1
1
1
1
1
1
1
1
1
1
1
1
1
1
1
1
1
1
1
1
1
1
1
1
1
1
1
1
1
1
1
1
1
1
1
1
1
1
1
1
1
1
1
1
1
1
1
1
1
1
1
1
1
1
1
1
1
1
1
1
1
1
1
1
1
1
1
1
1
1
1
1
1
1
1
1
1
1
1
1
1
1
0.999999
1
1
1
1
1
1
1
1
1
1
1
1
1
1
1
1
1
1
1
1
1
1
1
1
1
1
1
1
1
1
1
1
1
1
1
1
1
1
1
1
1
1
1
1
1
1
1
1
1
1
1
1
1
1
1
1
1
1
1
1
1
1
1
1
1
1
1
1
1
1
1
1
1
1
1
1
1
1
1
1
1
1
1
1
1
1
1
1
1
1
1
1
1
1
1
1
1
1
1
0.999999
1
1
1
1
1
1
1
1
1
1
1
1
1
1
1
1
1
1
1
1
1
1
1
1
1
1
1
1
1
1
1
1
1
1
1
1
1
1
1
1
1
1
1
1
1
1
1
1
1
1
1
1
1
1
1
1
1
1
1
1
1
1
1
1
1
1
1
1
1
1
1
1
1
1
1
1
1
1
1
1
1
1
1
1
1
1
1
1
1
1
1
1
1
1
1
1
1
1
1
1
1
1
1
1
1
1
1
1
1
1
1
1
1
1
1
1
1
1
1
1
1
1
1
1
1
1
1
1
1
1
1
1
1
1
1
1
1
1
1
1
1
1
1
1
1
1
1
1
1
1
1
1
1
1
1
1
1
1
1
1
1
1
1
1
1
1
1
1
1
1
1
1
1
1
1
1
1
1
1
1
1
1
1
1
1
1
1
1
1
1
1
1
1
1
1
1
1
1
0.999999
0.999998
1
1
1
1
1
1
1
1
1
1
1
1
1
1
1
1
1
1
1
1
1
1
1
1
1
1
1
1
1
1
1
1
1
1
1
1
1
1
1
1
1
1
1
1
1
1
1
1
1
1
1
1
1
1
1
1
1
1
1
1
1
1
1
1
1
1
1
1
1
1
1
1
1
1
1
1
1
1
1
1
1
1
1
1
1
1
1
1
1
1
1
1
1
1
1
1
1
1
0.999998
0.999998
1
1
1
1
1
1
1
1
1
1
1
1
1
1
1
1
1
1
1
1
1
1
1
1
1
1
1
1
1
1
1
1
1
1
1
1
1
1
1
1
1
1
1
1
1
1
1
1
1
1
1
1
1
1
1
1
1
1
1
1
1
1
1
1
1
1
1
1
1
1
1
1
1
1
1
1
1
1
1
1
1
1
1
1
1
1
1
0.999998
0.999999
1
1
1
1
1
1
1
1
1
1
0.999999
1
1
1
1
1
1
1
1
1
1
1
1
1
1
1
1
1
1
1
1
1
1
1
1
1
1
1
1
1
1
1
1
1
1
1
1
1
1
1
1
1
1
1
1
1
1
1
1
1
1
1
1
1
1
1
1
1
1
1
1
1
1
1
1
1
1
1
1
1
1
1
1
1
1
1
1
1
1
1
1
1
1
1
1
1
1
1
0.999996
0.999997
0.999999
0.999999
0.999998
0.999998
0.999999
1
0.999999
0.999999
1
1
1
1
1
1
1
1
1
1
1
1
1
1
1
1
1
1
1
1
1
1
1
1
1
1
1
1
1
1
1
1
1
1
1
1
1
1
1
1
1
1
1
1
1
1
1
1
1
1
1
1
1
1
1
1
1
1
1
1
1
1
1
1
1
1
1
1
1
1
1
1
1
1
1
1
1
1
1
1
1
1
1
1
1
1
1
1
1
1
0.999998
0.999956
0.999905
0.999868
0.99986
0.999857
0.999857
0.999879
0.999955
1
1
1
1
1
1
1
1
1
1
1
1
1
1
1
1
1
1
1
1
1
1
1
1
1
1
1
1
1
1
1
1
1
1
1
1
1
1
1
1
1
1
1
1
1
1
1
1
1
1
1
1
1
1
1
1
1
1
1
1
1
1
1
1
1
1
1
1
1
1
1
1
1
1
1
1
1
1
1
1
1
1
1
1
1
1
1
1
1
1
1
1
0.99995
0.999793
0.999789
0.999788
0.999788
0.999788
0.999788
0.99991
1
1
1
1
1
1
1
1
1
1
1
1
1
1
1
1
1
1
1
1
1
1
1
1
1
1
1
1
1
1
1
1
1
1
1
1
1
1
1
1
1
1
1
1
1
1
1
1
1
1
1
1
1
1
1
1
1
1
1
1
1
1
1
1
1
1
1
1
1
1
1
1
1
1
1
1
1
1
1
1
1
1
1
1
1
1
1
1
1
1
1
1
1
1
0.999959
0.999886
0.999835
0.999846
0.999925
0.999997
1
1
1
0.943115
1
1
1
1
1
1
1
1
1
1
1
1
1
1
1
1
1
1
1
1
1
1
1
1
1
1
1
1
1
1
1
1
1
1
1
1
1
1
1
1
1
1
1
1
1
1
1
1
1
1
1
1
1
1
1
1
1
1
1
1
1
1
1
1
1
1
1
1
1
1
1
1
1
1
1
1
1
1
1
1
1
1
1
1
1
1
1
1
1
1
1
1
1
1
1
1
0.999999
0.994168
0.837801
0.293964
1
1
1
1
1
1
1
1
1
1
1
1
1
1
1
1
1
1
1
1
1
1
1
1
1
1
1
1
1
1
1
1
1
1
1
1
1
1
1
1
1
1
1
1
1
1
1
1
1
1
1
1
1
1
1
1
1
1
1
1
1
1
1
1
1
1
1
1
1
1
1
1
1
1
1
1
1
1
1
1
1
1
1
1
1
1
1
1
1
1
1
1
1
1
1
0.999997
0.965793
0.708589
0.163453
2.50485e-05
1
1
1
1
1
1
1
1
1
1
1
1
1
1
1
1
1
1
1
1
1
1
1
1
1
1
1
1
1
1
1
1
1
1
1
1
1
1
1
1
1
1
1
1
1
1
1
1
1
1
1
1
1
1
1
1
1
1
1
1
1
1
1
1
1
1
1
1
1
1
1
1
1
1
1
1
1
1
1
1
1
1
1
1
1
1
1
1
1
1
1
1
1
0.999998
0.999992
0.903954
0.539341
0.0857641
1.34502e-05
-1.32549e-07
1
1
1
1
1
1
1
1
1
1
1
1
1
1
1
1
1
1
1
1
1
1
1
1
1
1
1
1
1
1
1
1
1
1
1
1
1
1
1
1
1
1
1
1
1
1
1
1
1
1
1
1
1
1
1
1
1
1
1
1
1
1
1
1
1
1
1
1
1
1
1
1
1
1
1
1
1
1
1
1
1
1
1
1
1
1
1
1
1
1
1
0.999998
0.999979
0.961032
0.719007
0.27839
0.0123962
6.85789e-07
-4.14031e-07
1.79537e-07
1
1
1
1
1
1
1
1
1
1
1
1
1
1
1
1
1
1
1
1
1
1
1
1
1
1
1
1
1
1
1
1
1
1
1
1
1
1
1
1
1
1
1
1
1
1
1
1
1
1
1
1
1
1
1
1
1
1
1
1
1
1
1
1
1
1
1
1
1
1
1
1
1
1
1
1
1
1
1
1
1
1
1
1
1
1
1
1
1
0.999999
0.999988
0.999927
0.827732
0.356862
0.0332369
1.53267e-06
2.17413e-07
1.44729e-07
1.79122e-07
1.8096e-07
1
1
1
1
1
1
1
1
1
1
1
1
1
1
1
1
1
1
1
1
1
1
1
1
1
1
1
1
1
1
1
1
1
1
1
1
1
1
1
1
1
1
1
1
1
1
1
1
1
1
1
1
1
1
1
1
1
1
1
1
1
1
1
1
1
1
1
1
1
1
1
1
1
1
1
1
1
1
1
1
1
1
1
1
1
1
1
1
0.999997
0.99996
0.976218
0.613322
0.114729
8.00126e-06
1.4019e-07
1.79287e-07
1.77965e-07
1.78618e-07
1.79175e-07
1.79406e-07
1
1
1
1
1
1
1
1
1
1
1
1
1
1
1
1
1
1
1
1
1
1
1
1
1
1
1
1
1
1
1
1
1
1
1
1
1
1
1
1
1
1
1
1
1
1
1
1
1
1
1
1
1
1
1
1
1
1
1
1
1
1
1
1
1
1
1
1
1
1
1
1
1
1
1
1
1
1
1
1
1
1
1
1
1
1
1
0.999995
0.999918
0.921423
0.393019
4.91035e-05
2.31236e-06
2.24377e-07
1.77327e-07
1.77539e-07
1.78443e-07
1.78598e-07
1.78673e-07
1.797e-07
1
1
1
1
1
1
1
1
1
1
1
1
1
1
1
1
1
1
1
1
1
1
1
1
1
1
1
1
1
1
1
1
1
1
1
1
1
1
1
1
1
1
1
1
1
1
1
1
1
1
1
1
1
1
1
1
1
1
1
1
1
1
1
1
1
1
1
1
1
1
1
1
1
1
1
1
1
1
1
1
1
1
1
1
1
0.999999
0.999992
0.999868
0.864583
0.26083
4.40492e-05
1.16482e-06
1.97369e-07
1.78238e-07
1.77957e-07
1.78009e-07
1.7807e-07
1.7845e-07
1.79766e-07
6.93271e-07
1
1
1
1
1
1
1
1
1
1
1
1
1
1
1
1
1
1
1
1
1
1
1
1
1
1
1
1
1
1
1
1
1
1
1
1
1
1
1
1
1
1
1
1
1
1
1
1
1
1
1
1
1
1
1
1
1
1
1
1
1
1
1
1
1
1
1
1
1
1
1
1
1
1
1
1
1
1
1
1
1
1
1
1
0.999999
0.999989
0.99981
0.813706
0.18951
4.06878e-05
1.35857e-06
8.98353e-07
8.98464e-07
6.21438e-07
1.78923e-07
1.78074e-07
1.78435e-07
1.82021e-07
5.98277e-07
8.24377e-06
1
1
1
1
1
1
1
1
1
1
1
1
1
1
1
1
1
1
1
1
1
1
1
1
1
1
1
1
1
1
1
1
1
1
1
1
1
1
1
1
1
1
1
1
1
1
1
1
1
1
1
1
1
1
1
1
1
1
1
1
1
1
1
1
1
1
1
1
1
1
1
1
1
1
1
1
1
1
1
1
1
1
1
0.999999
0.999988
0.999757
0.773224
0.145065
4.1574e-05
3.02765e-06
2.40988e-06
2.71122e-06
2.69646e-06
8.91145e-07
1.83319e-07
1.90152e-07
7.55525e-07
3.1424e-06
6.88797e-06
9.05494e-06
1
1
1
1
1
1
1
1
1
1
1
1
1
1
1
1
1
1
1
1
1
1
1
1
1
1
1
1
1
1
1
1
1
1
1
1
1
1
1
1
1
1
1
1
1
1
1
1
1
1
1
1
1
1
1
1
1
1
1
1
1
1
1
1
1
1
1
1
1
1
1
1
1
1
1
1
1
1
1
1
1
1
1
0.999992
0.999759
0.755894
0.117825
4.60296e-05
8.56216e-06
7.74781e-06
8.4153e-06
7.88503e-06
6.50891e-07
2.94481e-07
5.51256e-07
3.10629e-06
4.34947e-06
6.42747e-06
6.55252e-06
5.54174e-06
1
1
1
1
1
1
1
1
1
1
1
1
1
1
1
1
1
1
1
1
1
1
1
1
1
1
1
1
1
1
1
1
1
1
1
1
1
1
1
1
1
1
1
1
1
1
1
1
1
1
1
1
1
1
1
1
1
1
1
1
1
1
1
1
1
1
1
1
1
1
1
1
1
1
1
1
1
1
1
1
1
1
0.999997
0.999846
0.775179
0.110771
5.43177e-05
1.32875e-05
1.58256e-05
1.67657e-05
2.00109e-05
2.38921e-06
2.92812e-07
3.11934e-07
4.44092e-06
4.64309e-06
4.6109e-06
1.66559e-06
8.72837e-07
9.22865e-08
1
1
1
0.999999
0.999999
1
1
1
1
1
1
1
1
1
1
1
1
1
1
1
1
1
1
1
1
1
1
1
1
1
1
1
1
1
1
1
1
1
1
1
1
1
1
1
1
1
1
1
1
1
1
1
1
1
1
1
1
1
1
1
1
1
1
1
1
1
1
1
1
1
1
1
1
1
1
1
1
1
1
1
1
0.999999
0.999935
0.835956
0.128115
6.51201e-05
1.30069e-05
1.2447e-05
1.7567e-05
2.04681e-05
1.91473e-05
8.50306e-07
4.47785e-07
3.94596e-06
4.50965e-06
4.09571e-06
1.61035e-06
1.71159e-06
3.41702e-06
6.53782e-07
1
1
1
1
1
1
1
1
1
1
1
1
1
1
1
1
1
1
1
1
1
1
1
1
1
1
1
1
1
1
1
1
1
1
1
1
1
1
1
1
1
1
1
1
1
1
1
1
1
1
1
1
1
1
1
1
1
1
1
1
1
1
1
1
1
1
1
1
1
1
1
1
1
1
1
1
1
1
1
1
1
0.999968
0.921065
0.176221
8.57077e-05
1.31369e-05
1.23938e-05
1.24069e-05
1.75356e-05
1.70232e-05
1.02578e-06
1.4597e-06
2.79294e-06
4.87055e-06
3.52345e-06
1.4477e-06
1.52784e-06
1.01396e-05
1.65671e-05
1.20362e-05
1
1
1
1
1
1
1
1
1
1
1
1
1
1
1
1
1
1
1
1
1
1
1
1
1
1
1
1
1
1
1
1
1
1
1
1
1
1
1
1
1
1
1
1
1
1
1
1
1
1
1
1
1
1
1
1
1
1
1
1
1
1
1
1
1
1
1
1
1
1
1
1
1
1
1
1
1
1
1
1
0.999988
0.988411
0.274866
0.000108325
1.19506e-05
1.23307e-05
1.23327e-05
1.23788e-05
1.42495e-05
3.66957e-06
3.38426e-07
3.77443e-07
4.52557e-06
4.87005e-06
1.42926e-06
1.42924e-06
1.22244e-05
1.66341e-05
1.65954e-05
1.65671e-05
1
0.972958
0.948092
0.977172
1
1
1
1
1
1
1
1
1
1
1
1
1
1
1
1
1
1
1
1
1
1
1
1
1
1
1
1
1
1
1
1
1
1
1
1
1
1
1
1
1
1
1
1
1
1
1
1
1
1
1
1
1
1
1
1
1
1
1
1
1
1
1
1
1
1
1
1
1
1
1
1
1
1
1
0.999997
0.999814
0.459624
0.000287006
1.2398e-05
9.46987e-06
1.21967e-05
1.2526e-05
8.10782e-06
1.39259e-06
3.40007e-07
3.38488e-07
2.16529e-06
4.41396e-06
2.36235e-06
1.4267e-06
8.09623e-06
1.66907e-05
1.66638e-05
1.66341e-05
1.34071e-05
0.42947
0.306818
0.236128
0.294942
0.584815
0.943119
0.999998
1
1
1
1
1
1
1
1
1
1
1
1
1
1
1
1
1
1
1
1
1
1
1
1
1
1
1
1
1
1
1
1
1
1
1
1
1
1
1
1
1
1
1
1
1
1
1
1
1
1
1
1
1
1
1
1
1
1
1
1
1
1
1
1
1
1
1
1
1
1
1
1
0.999954
0.714838
0.0224688
2.33865e-05
5.77267e-06
9.06895e-06
1.27135e-05
1.26049e-05
3.59097e-06
3.45639e-07
3.39676e-07
2.17938e-06
3.70362e-06
2.51417e-06
1.62071e-06
2.74229e-06
1.67078e-05
1.67176e-05
1.66908e-05
8.41517e-06
1.24134e-08
0.00263081
0.00183133
0.00183265
0.00191612
0.0135559
0.296987
0.752965
0.994764
0.999999
1
1
1
1
1
1
1
1
1
1
1
1
1
1
1
1
1
1
1
1
1
1
1
1
1
1
1
1
1
1
1
1
1
1
1
1
1
1
1
1
1
1
1
1
1
1
1
1
1
1
1
1
1
1
1
1
1
1
1
1
1
1
1
1
1
1
1
1
1
0.999986
0.923436
0.111155
3.64304e-05
2.49969e-06
5.64095e-06
9.45287e-06
1.27586e-05
8.78467e-06
3.57149e-07
3.45281e-07
1.90441e-06
3.75848e-06
3.6718e-06
1.60702e-06
1.78687e-06
1.60911e-05
1.67176e-05
1.66951e-05
5.28119e-06
8.94715e-08
3.07855e-08
0.00127754
0.00156737
0.00181548
0.00183304
0.00191626
0.00193356
0.212387
0.664299
0.957292
0.999997
1
1
1
1
1
1
1
1
1
1
1
1
1
1
1
1
1
1
1
1
1
1
1
1
1
1
1
1
1
1
1
1
1
1
1
1
1
1
1
1
1
1
1
1
1
1
1
1
1
1
1
1
1
1
1
1
1
1
1
1
1
1
1
1
1
1
1
0.999996
0.999793
0.287053
8.1098e-05
1.55738e-06
2.47886e-06
6.58108e-06
1.20674e-05
1.11897e-05
9.05034e-07
3.6153e-07
1.47417e-06
3.76722e-06
3.76259e-06
1.97843e-06
1.68821e-06
1.27993e-05
1.6637e-05
1.66951e-05
5.3088e-06
4.43869e-07
3.91145e-07
1.00168e-06
0.00127754
0.00520488
0.00398961
0.00375823
0.00195164
0.0016827
0.00144509
0.192583
0.551975
0.957356
0.999999
1
1
1
1
1
1
1
1
1
1
1
1
1
1
1
1
1
1
1
1
1
1
1
1
1
1
1
1
1
1
1
1
1
1
1
1
1
1
1
1
1
1
1
1
1
1
1
1
1
1
1
1
1
1
1
1
1
1
1
1
1
1
1
1
1
0.999999
0.999956
0.630849
0.00875687
7.19625e-06
7.46025e-07
2.36211e-06
9.16599e-06
1.0862e-05
1.71055e-06
5.14032e-07
7.04749e-07
3.69881e-06
3.77451e-06
2.53232e-06
3.56156e-06
1.08087e-05
1.65471e-05
1.66015e-05
6.01523e-06
8.51065e-07
9.77508e-07
2.14498e-06
2.09787e-06
0.00614938
0.00997936
0.0110755
0.0110685
0.00893093
0.00152703
0.00127139
0.000708219
0.0762191
0.534146
0.952519
0.999999
1
1
1
1
1
1
1
1
1
1
1
1
1
1
1
1
1
1
1
1
1
1
1
1
1
1
1
1
1
1
1
1
1
1
1
1
1
1
1
1
1
1
1
1
1
1
1
1
1
1
1
1
1
1
1
1
1
1
1
1
1
1
1
1
0.999977
0.918159
0.0784878
2.10249e-05
7.20796e-07
7.03055e-07
2.50486e-06
4.48221e-06
1.66488e-06
5.16842e-07
5.14098e-07
1.42832e-06
3.59965e-06
2.16467e-06
4.49554e-07
6.18591e-06
1.58045e-05
1.61324e-05
6.0622e-06
6.10507e-07
8.27964e-07
2.22154e-06
2.22927e-06
7.87024e-07
0.00836654
0.011082
0.0110714
0.0110756
0.011079
0.00491296
0.00116146
0.000180064
0.000131679
0.0896573
0.351234
0.896768
0.999999
1
1
1
1
1
1
1
1
1
1
1
1
1
1
1
1
1
1
1
1
1
1
1
1
1
1
1
1
1
1
1
1
1
1
1
1
1
1
1
1
1
1
1
1
1
1
1
1
1
1
1
1
1
1
1
1
1
1
1
1
1
1
0.999989
0.999691
0.283881
5.28925e-05
6.8389e-07
7.18575e-07
7.17955e-07
7.47242e-07
7.58646e-07
7.88358e-07
1.30303e-06
3.23251e-06
3.86998e-06
5.44733e-07
5.87517e-08
4.24889e-07
2.68627e-06
3.70725e-06
1.49837e-06
1.88091e-07
5.88906e-07
2.24484e-06
2.25918e-06
9.65357e-07
1.00034e-08
0.0011183
0.0110906
0.011082
0.0110714
0.0110633
0.0110357
0.00256382
0.000131647
0.00012003
0.000112645
0.0132786
0.300002
0.878018
0.999995
1
1
1
1
1
1
1
1
1
1
1
1
1
1
1
1
1
1
1
1
1
1
1
1
1
1
1
1
1
1
1
1
1
1
1
1
1
1
1
1
1
1
1
1
1
1
1
1
1
1
1
1
1
1
1
1
1
1
1
0.999999
0.999991
0.999867
0.637405
0.00910414
3.3424e-06
3.40283e-06
3.39274e-06
7.18574e-07
7.1794e-07
8.30807e-07
4.18182e-06
5.19877e-06
5.19884e-06
5.18606e-06
1.14933e-07
5.66527e-08
1.65694e-07
5.67008e-08
5.67314e-08
5.69826e-08
2.80825e-07
2.2287e-06
2.25918e-06
1.17651e-06
2.47454e-08
1.02128e-08
0.00103132
0.00916794
0.0110818
0.0110692
0.0108307
0.00372733
0.00140388
0.000162512
0.00011179
0.00011179
0.000524789
0.00296369
0.292652
0.880405
0.999969
0.999998
1
1
1
1
1
1
1
1
1
1
1
1
1
1
1
1
1
1
1
1
1
1
1
1
1
1
1
1
1
1
1
1
1
1
1
1
1
1
1
1
1
1
1
1
1
1
1
1
1
1
1
1
1
1
1
1
0.999999
0.999992
0.999875
0.891493
0.0721102
4.12195e-06
3.99288e-06
6.6072e-06
6.67925e-06
3.17686e-06
7.24533e-07
2.21509e-06
5.19837e-06
5.19885e-06
5.1984e-06
3.20989e-06
5.66172e-08
5.66154e-08
5.66153e-08
5.66261e-08
5.67194e-08
1.22453e-07
1.77613e-06
2.20999e-06
1.55482e-06
6.2873e-08
3.14872e-08
1.41156e-08
0.000880148
0.000550351
0.00857001
0.0103953
0.00213215
0.000410196
4.63434e-05
0.000240296
0.000116492
0.00011554
0.000528694
0.000515461
0.000297771
0.240489
0.79406
0.993443
0.999979
1
1
1
1
1
1
1
1
1
1
1
1
1
1
1
1
1
1
1
1
1
1
1
1
1
1
1
1
1
1
1
1
1
1
1
1
1
1
1
1
1
1
1
1
1
1
1
1
1
1
1
1
1
1
1
0.999993
0.999893
0.989179
0.238645
2.61246e-05
3.7895e-06
3.69008e-06
4.23913e-06
4.71833e-06
2.45243e-06
1.41796e-06
4.90342e-06
5.1972e-06
5.1984e-06
3.4662e-06
5.66185e-08
5.66174e-08
5.66103e-08
5.66246e-08
5.66493e-08
5.68164e-08
2.88801e-07
1.47457e-06
1.403e-06
1.07188e-07
8.10783e-08
1.31406e-07
5.93804e-08
0.000776968
0.000144729
0.00141693
0.000361838
1.04861e-07
9.73275e-08
9.5231e-08
8.34002e-05
8.43569e-05
8.85716e-05
0.000118548
0.000583392
0.000179272
0.000205177
0.112833
0.506676
0.774196
0.996717
0.999999
1
1
1
1
1
1
1
1
1
1
1
1
1
1
1
1
1
1
1
1
1
1
1
1
1
1
1
1
1
1
1
1
1
1
1
1
1
1
1
1
1
1
1
1
1
1
1
1
1
1
1
1
0.999994
0.999911
0.998811
0.459027
0.000133374
3.6489e-06
3.63719e-06
3.56053e-06
6.65038e-07
7.0554e-07
1.41069e-06
5.18438e-06
5.18932e-06
5.19586e-06
3.58864e-06
7.59159e-08
5.66334e-08
5.66115e-08
5.66307e-08
5.66479e-08
5.66841e-08
5.67673e-08
7.32773e-08
7.644e-08
8.991e-08
1.15817e-07
4.31098e-07
1.47956e-05
1.50473e-05
0.000157936
8.6749e-05
1.41923e-07
1.04852e-07
9.73387e-08
9.52419e-08
9.56072e-08
2.74014e-05
0.000148562
0.0001037
0.000114941
0.00016261
0.000175199
0.000178785
0.000205173
0.0149025
0.11733
0.326735
0.632754
0.900183
1
1
1
1
1
1
1
1
1
1
1
1
1
1
1
1
1
1
1
1
1
1
1
1
1
1
1
1
1
1
1
1
1
1
1
1
1
1
1
1
1
1
1
1
1
1
1
1
1
1
0.999996
0.999921
0.999022
0.638844
0.00308392
5.9644e-06
1.16368e-05
1.1263e-05
6.65042e-07
6.65044e-07
6.65088e-07
3.01541e-06
5.16265e-06
5.18339e-06
3.9028e-06
1.47721e-07
5.67362e-08
5.66548e-08
5.66416e-08
5.66645e-08
5.66859e-08
5.67103e-08
5.73225e-08
6.13657e-08
7.67441e-08
1.12717e-07
3.67987e-07
1.48934e-05
3.03238e-05
3.03251e-05
6.08892e-09
1.54277e-06
1.35178e-07
1.41941e-07
1.04866e-07
9.73688e-08
9.5283e-08
1.00033e-07
0.000233754
0.000300805
0.000155876
0.000162517
0.000154095
0.000734837
0.00136687
0.000903359
0.00088534
0.0178422
0.0719603
0.164906
0.390098
0.661221
0.868441
1
1
1
1
1
1
1
1
1
1
1
1
1
1
1
1
1
1
1
1
1
1
1
1
1
1
1
1
1
1
1
1
1
1
1
1
1
1
1
1
1
1
1
1
1
1
0.999998
0.999952
0.999108
0.764017
0.0448234
9.30588e-07
8.39117e-06
1.72713e-05
1.53537e-05
6.85216e-07
6.65072e-07
1.98777e-06
5.11697e-06
5.14518e-06
4.05641e-06
2.57922e-07
5.79982e-08
5.68207e-08
5.67708e-08
5.69066e-08
5.68488e-08
5.69954e-08
5.77485e-08
6.04626e-08
7.59209e-08
3.82333e-07
2.8185e-06
1.52823e-05
3.03082e-05
3.03352e-05
3.03082e-05
6.08804e-09
6.12601e-09
1.31691e-08
4.27961e-07
1.03492e-06
5.99757e-07
1.09129e-07
1.00652e-07
0.000204004
0.000329759
0.00034053
0.000242947
0.000123378
0.000112329
0.00273541
0.00274348
0.000917018
0.00014438
0.000142381
0.00879445
0.00553143
0.0343799
0.115747
0.263142
0.482107
0.703472
0.900973
1
1
1
1
1
1
1
0.996508
0.977421
1
1
1
1
1
1
1
1
1
1
1
1
1
1
1
1
1
1
1
1
1
1
1
1
1
1
1
1
1
1
1
1
0.999999
0.99998
0.999432
0.84235
0.0912597
2.79054e-08
7.09019e-07
8.62938e-06
1.74175e-05
7.15484e-06
6.86183e-07
1.28449e-06
5.06629e-06
5.08928e-06
4.37547e-06
4.30613e-07
6.03503e-08
5.83939e-08
5.80835e-08
8.42712e-08
1.16726e-07
7.10845e-08
8.03536e-08
2.38729e-07
7.7909e-07
3.2077e-06
1.20561e-05
2.13003e-05
2.99958e-05
3.03003e-05
3.03082e-05
3.00642e-05
6.15276e-09
6.80004e-08
4.09579e-06
8.89631e-06
7.68782e-06
5.95888e-06
5.3214e-06
1.25294e-07
2.44329e-05
0.000341308
0.000342869
0.000345207
0.00016652
0.00010319
0.00265022
0.00215108
0.000180105
0.000142381
0.000142381
0.000142381
0.000177822
0.000172364
0.00018004
0.000104549
0.00253181
0.0401754
0.156357
0.418083
0.717025
0.912977
0.977551
1
0.993878
0.811301
0.436573
0.276256
0.501049
0.781885
0.927475
0.996489
1
1
1
1
1
1
1
1
1
1
1
1
1
1
1
1
1
1
1
1
1
1
1
1
1
1
1
1
0.999994
0.999775
0.853571
0.14339
-1.718e-08
4.01239e-14
7.32644e-07
5.75662e-06
6.47011e-06
1.51245e-06
1.34579e-06
5.00602e-06
5.0315e-06
4.51444e-06
5.10083e-07
6.64524e-08
6.24237e-08
7.61474e-07
4.82087e-06
7.72821e-06
8.13355e-06
6.97045e-06
7.09657e-06
8.87684e-06
1.06294e-05
1.2015e-05
1.68396e-05
1.54449e-05
1.55676e-05
2.79931e-05
2.98183e-05
1.19684e-05
7.0676e-09
5.97285e-07
1.15065e-05
1.15448e-05
7.23928e-06
8.44359e-06
1.04328e-05
5.51737e-06
5.95228e-06
0.000146493
0.000345207
0.000345207
0.000241342
8.81009e-05
0.00280804
0.00399825
0.00152463
0.00014438
0.000367835
0.000711128
0.000173808
0.000167915
0.00016162
3.73271e-05
5.30289e-06
2.63794e-05
0.000134945
0.00100113
0.0595169
0.228861
0.37817
0.51117
0.469929
0.131207
0.00332692
0.00114138
0.00173678
0.06235
0.223992
0.407445
0.618483
0.818291
0.993152
1
1
1
1
1
1
1
1
1
1
1
1
1
1
1
1
1
1
1
1
1
1
1
1
0.999999
0.999922
0.900248
0.167397
-1.20006e-10
-1.67674e-07
4.89918e-11
5.07271e-07
9.48064e-07
1.01048e-06
2.56236e-06
4.90673e-06
4.94946e-06
4.50203e-06
5.33841e-07
8.04534e-08
7.05696e-08
2.0626e-06
1.03006e-05
1.29804e-05
1.29801e-05
1.29789e-05
1.29775e-05
1.29754e-05
1.29747e-05
1.29719e-05
1.13453e-05
1.72782e-07
1.27559e-07
1.10237e-07
3.27533e-07
5.73701e-06
1.42309e-08
1.52097e-08
4.49667e-06
1.15448e-05
5.49471e-06
8.02301e-07
7.94938e-07
4.99479e-06
2.3283e-05
1.20606e-05
1.27526e-05
0.000213432
0.000345207
0.000258448
7.20945e-05
0.00141784
0.00401115
0.00391657
0.00039827
0.000311225
0.000898807
0.000237979
0.000284772
0.000230322
4.50057e-05
1.49855e-06
1.24951e-06
8.28038e-06
3.82266e-05
0.000168348
0.00060391
0.00125631
0.0095928
0.00587445
0.00108949
0.00100203
0.0010038
0.00114092
0.00171421
0.013687
0.0858873
0.410237
0.750108
0.880088
0.962976
0.99795
1
1
1
1
1
1
1
1
1
1
1
1
1
1
1
1
1
1
1
1
1
1
0.999996
0.969199
0.349098
1.99061e-05
9.28876e-06
4.49004e-12
1.52352e-07
1.85409e-07
3.12146e-07
3.45136e-06
4.81548e-06
4.86111e-06
4.22948e-06
3.85966e-07
1.12129e-07
1.00326e-07
3.67785e-06
1.2181e-05
1.29755e-05
1.29801e-05
1.29788e-05
1.29774e-05
1.29753e-05
1.29723e-05
1.29615e-05
1.20629e-05
1.28783e-06
1.35939e-07
1.1598e-07
1.10233e-07
1.10236e-07
7.49433e-08
2.53094e-08
1.70639e-07
1.16542e-05
1.15743e-05
1.41086e-06
9.11346e-07
7.44039e-07
7.62707e-07
2.20614e-05
3.15146e-05
1.96947e-05
2.11828e-05
0.000195973
0.000209162
6.32598e-05
9.0854e-06
0.00352528
0.00381389
0.000777549
0.000309431
0.000907455
0.00107118
0.000641136
1.50825e-06
1.50786e-06
1.50819e-06
1.50828e-06
1.86277e-06
4.37063e-06
1.81182e-05
7.55037e-05
0.000167474
0.000212829
0.000329747
0.000536738
0.000813499
0.00101536
0.00107172
0.00139774
0.00197218
0.00738248
0.151267
0.520667
0.909129
0.975052
0.984766
0.998568
1
1
1
1
1
1
1
1
1
1
1
1
1
1
1
1
1
1
1
1
1
0.999993
0.883317
0.111749
6.64745e-05
1.01976e-07
8.96009e-08
2.93762e-07
2.09593e-07
4.64488e-07
3.90423e-06
4.80013e-06
2.58181e-06
2.7841e-07
1.56736e-07
1.34993e-07
3.96493e-06
1.24014e-05
1.29512e-05
1.29735e-05
1.29755e-05
1.2847e-05
1.2541e-05
1.2739e-05
1.29446e-05
1.11918e-05
1.52375e-06
1.57208e-07
1.50081e-07
1.42581e-07
1.13079e-07
1.11316e-07
1.1596e-07
4.4398e-07
2.29928e-07
1.16954e-05
2.8043e-06
1.76712e-06
2.80506e-06
8.46161e-07
7.06976e-07
6.22579e-07
1.9812e-05
3.7235e-05
1.91317e-05
1.318e-05
2.10781e-05
1.12184e-05
1.77369e-06
0.000279845
0.0030109
0.00277699
0.000457454
0.000727702
0.00115059
0.000799703
1.52786e-06
1.50827e-06
1.50817e-06
1.76004e-06
1.32714e-06
7.66624e-07
2.68672e-06
1.24242e-05
3.01696e-05
5.57535e-05
0.000146991
0.000333028
0.000836911
0.00335461
0.00353494
0.00343749
0.00072236
0.000537043
0.00138228
0.0276693
0.612158
0.998216
0.998375
0.996704
0.996299
0.99791
1
1
1
1
1
1
1
1
1
1
1
1
1
1
1
1
1
1
1
0.999987
0.819224
0.059935
1.02338e-06
1.50509e-07
1.84958e-07
2.11128e-07
2.15842e-07
3.26555e-07
6.58089e-07
7.11628e-07
2.72576e-07
1.98257e-07
1.79402e-07
3.08421e-06
1.18177e-05
1.29273e-05
1.29399e-05
1.13457e-05
4.95975e-06
1.77434e-06
9.81815e-07
1.46188e-06
2.77487e-06
7.12878e-07
1.62209e-07
1.60355e-07
1.57481e-07
1.5817e-07
1.70094e-07
2.34026e-07
1.35017e-06
7.58255e-06
2.31752e-07
9.12639e-06
1.0069e-06
6.69114e-06
2.48539e-05
1.21065e-05
8.68768e-07
5.7528e-07
5.81354e-07
3.71172e-05
3.54422e-05
6.43782e-06
2.26929e-06
1.30526e-06
9.31371e-07
1.53697e-06
0.000206759
0.00104084
0.000591981
8.80081e-05
0.00109217
0.000853292
2.7648e-05
1.54563e-06
2.36144e-06
2.46184e-06
1.4794e-06
1.83218e-07
5.02652e-07
2.38525e-06
6.32117e-06
1.70761e-05
4.69867e-05
0.000294592
0.00267293
0.00368172
0.00365016
0.000983139
8.3756e-05
0.00013138
0.0004946
0.0027211
0.208342
0.841868
0.999651
0.999718
0.9991
0.998725
0.998799
0.999391
1
1
1
1
1
1
1
1
1
1
1
1
1
1
1
1
1
0.998077
0.583563
0.00216066
1.91575e-06
1.81427e-06
5.12829e-07
1.23847e-06
1.15588e-06
2.51804e-07
2.48147e-07
2.52012e-07
2.61069e-07
1.30705e-06
3.88075e-06
1.14392e-05
1.27931e-05
1.26759e-05
4.25658e-06
1.3244e-07
1.32437e-07
1.32383e-07
1.32325e-07
1.32301e-07
1.32983e-07
1.37423e-07
1.51772e-07
1.62244e-07
1.63374e-07
1.65891e-07
1.8228e-07
2.92754e-07
5.8374e-06
9.29079e-06
2.37598e-07
2.40571e-07
3.26574e-07
2.62889e-05
2.63155e-05
2.62889e-05
1.55379e-06
5.83235e-07
5.76135e-07
3.27875e-05
6.09524e-05
2.26728e-05
1.30141e-06
9.39112e-07
8.29953e-07
7.52527e-07
4.85861e-06
1.23696e-05
0.000117482
3.10064e-06
0.000853174
0.000843077
6.5402e-05
1.68864e-06
1.78278e-06
2.46852e-06
1.5967e-06
8.65242e-08
1.20079e-07
5.18252e-07
1.60779e-06
5.35781e-06
1.44447e-05
0.000205065
0.00298898
0.00367663
0.00359222
0.000202096
7.06128e-05
5.70391e-05
0.000124791
0.000442781
0.0053996
0.402969
0.974165
0.999963
0.999976
0.999831
0.999236
0.99904
0.999145
0.999776
1
1
1
1
1
1
1
1
1
1
1
1
1
1
1
0.974907
0.419443
0.000581117
3.54405e-06
6.24554e-05
5.13485e-07
1.89239e-06
2.59624e-06
7.74303e-07
2.49746e-07
2.47932e-07
2.59399e-07
5.11067e-06
1.20506e-05
1.20624e-05
1.04552e-05
9.44039e-07
1.32467e-07
1.32455e-07
1.32441e-07
1.32428e-07
1.32412e-07
1.32989e-07
1.37347e-07
1.52063e-07
2.27392e-07
2.91826e-07
3.07003e-07
2.37601e-07
2.28763e-07
1.42116e-06
9.29079e-06
9.30748e-06
3.74681e-07
2.57778e-07
5.56455e-06
2.63155e-05
2.63174e-05
1.29242e-05
1.27468e-06
6.4765e-07
5.83234e-07
4.80722e-05
8.53429e-05
5.19027e-05
6.37394e-06
8.11574e-07
6.82209e-07
4.57717e-07
8.05325e-07
1.9183e-06
2.09216e-06
7.10867e-07
0.000656016
0.000758961
9.32918e-05
1.16794e-05
1.61082e-06
5.04624e-07
9.43965e-07
7.07064e-08
3.28864e-08
1.12532e-07
4.4324e-07
1.32752e-06
4.767e-06
9.79508e-05
0.000967337
0.00270863
0.00334569
0.000725183
3.78093e-05
2.10904e-05
4.41929e-05
0.000245269
0.00153332
0.0986356
0.703502
0.999986
0.999993
0.999996
0.99996
0.999364
0.99906
0.99906
0.999603
1
1
1
1
1
1
1
1
1
1
1
1
1
1
0.94637
0.367576
1.92202e-07
8.04029e-06
6.34315e-05
5.636e-07
2.54252e-06
2.61158e-06
1.26225e-06
2.47982e-07
2.92853e-07
3.52689e-07
5.20531e-06
1.20615e-05
8.46864e-06
4.43533e-07
1.32537e-07
1.32481e-07
1.3247e-07
1.32468e-07
1.32481e-07
1.32898e-07
1.3847e-07
1.27536e-06
4.539e-06
6.48685e-06
6.83587e-06
6.74085e-06
5.58423e-06
3.93742e-06
6.30207e-06
9.37737e-06
9.33882e-06
2.7439e-06
1.53749e-06
1.31597e-05
2.63174e-05
2.63298e-05
1.83512e-06
1.4031e-06
3.37928e-06
9.06274e-07
0.000114468
0.000228012
0.000129436
1.16774e-05
6.7159e-07
4.68246e-07
3.91021e-07
2.66552e-07
3.67017e-07
4.06712e-07
1.87218e-07
0.000436954
0.000742455
0.000267258
9.88661e-05
1.79566e-06
3.21014e-08
1.89759e-07
3.81214e-08
9.19626e-09
2.85551e-08
1.05134e-07
3.74405e-07
1.66455e-06
2.84207e-05
5.80568e-05
0.00042376
0.00302775
0.00211909
1.48725e-05
8.02764e-06
2.04564e-05
7.84212e-05
0.000508315
0.00457773
0.308886
0.917344
0.999996
0.999997
1
0.999948
0.999334
0.999061
0.999062
0.999838
1
1
1
1
1
1
1
1
1
1
1
1
1
0.925199
0.244916
9.54979e-08
6.01922e-06
3.24687e-05
1.92778e-06
2.01791e-06
2.5036e-06
4.99591e-07
4.49381e-07
1.48647e-06
1.82185e-06
1.82998e-06
1.5708e-06
3.75245e-07
1.331e-07
1.32575e-07
1.32563e-07
1.32597e-07
1.32546e-07
1.32784e-07
1.37619e-07
1.02812e-06
6.78161e-06
9.5479e-06
9.70451e-06
9.71798e-06
9.71568e-06
9.71693e-06
9.71777e-06
9.69551e-06
9.55756e-06
9.39152e-06
1.95163e-05
5.60864e-06
2.81917e-06
2.62836e-05
2.63591e-05
7.853e-06
1.55273e-06
1.46932e-05
0.000157993
0.000404966
0.000406404
0.000289365
1.98683e-05
6.54764e-07
3.91004e-07
3.13802e-07
1.91157e-07
1.31247e-07
1.06975e-07
6.47819e-08
0.000505234
0.000728925
0.000383594
0.000120359
2.32389e-07
3.11056e-08
2.70207e-09
2.70426e-08
3.12314e-09
8.32477e-09
2.75723e-08
1.08718e-07
4.86378e-07
3.82547e-06
0.000114571
0.00176383
0.00281011
0.00186062
7.64062e-07
4.57287e-06
7.32092e-06
3.1947e-05
0.000212196
0.00150279
0.0765981
0.66982
0.999994
1
1
1
0.999958
0.999616
0.999441
0.999702
1
1
1
1
1
1
1
1
1
1
1
1
1
0.906956
0.179893
8.26044e-08
6.60471e-07
7.25849e-07
1.79134e-06
1.28996e-06
1.84768e-06
1.84942e-06
1.83182e-06
9.91931e-07
2.63037e-07
1.58162e-07
1.47382e-07
1.46278e-07
1.3342e-07
1.49979e-07
2.49336e-07
2.41491e-07
1.34506e-07
1.3828e-07
3.26177e-07
3.55432e-06
4.58858e-06
3.46586e-06
6.14037e-06
9.70676e-06
9.71798e-06
9.71568e-06
9.69125e-06
8.54649e-06
4.16658e-06
9.32928e-06
1.95163e-05
5.25006e-07
3.3126e-07
2.58488e-05
2.63872e-05
2.54074e-05
1.72008e-06
1.34779e-05
0.00040543
0.000406404
0.000406417
0.000406417
0.000108585
1.0303e-06
2.99061e-07
1.94643e-07
1.64223e-07