/*--------------------------------*- C++ -*----------------------------------*\
| =========                 |                                                 |
| \\      /  F ield         | OpenFOAM: The Open Source CFD Toolbox           |
|  \\    /   O peration     | Version:  2.4.0                                 |
|   \\  /    A nd           | Web:      www.OpenFOAM.org                      |
|    \\/     M anipulation  |                                                 |
\*---------------------------------------------------------------------------*/
FoamFile
{
    version     2.0;
    format      ascii;
    class       volScalarField;
    location    "0.341";
    object      p_rgh;
}
// * * * * * * * * * * * * * * * * * * * * * * * * * * * * * * * * * * * * * //

dimensions      [1 -1 -2 0 0 0 0];

internalField   nonuniform List<scalar> 
10000
(
0.0132065
0.0132088
0.0132133
0.0132197
0.0132277
0.0132372
0.013248
0.0132601
0.0132734
0.0132879
0.0133036
0.0133203
0.0133382
0.0133571
0.0133769
0.0133978
0.0134196
0.0134423
0.0134658
0.0134901
0.0135152
0.0135409
0.0135673
0.0135943
0.0136219
0.0136501
0.013679
0.0137085
0.0137387
0.0137697
0.0138015
0.013834
0.0138673
0.0139012
0.0139356
0.0139704
0.0140054
0.0140404
0.0140752
0.0141097
0.0141436
0.014177
0.0142095
0.0142413
0.0142722
0.0143022
0.0143312
0.0143593
0.0143864
0.0144125
0.0132043
0.0132066
0.0132108
0.0132169
0.0132247
0.013234
0.0132446
0.0132565
0.0132697
0.0132842
0.0132998
0.0133165
0.0133343
0.0133532
0.0133731
0.013394
0.0134158
0.0134386
0.0134622
0.0134866
0.0135118
0.0135377
0.0135642
0.0135915
0.0136193
0.0136478
0.0136769
0.0137067
0.0137372
0.0137684
0.0138003
0.0138329
0.0138661
0.0139
0.0139343
0.013969
0.0140039
0.0140388
0.0140735
0.014108
0.014142
0.0141754
0.0142081
0.0142401
0.0142712
0.0143014
0.0143307
0.0143591
0.0143864
0.0144128
0.0131999
0.0132024
0.0132066
0.0132126
0.0132202
0.0132293
0.0132398
0.0132517
0.0132648
0.0132791
0.0132947
0.0133114
0.0133293
0.0133482
0.0133681
0.0133891
0.013411
0.0134339
0.0134576
0.0134822
0.0135076
0.0135337
0.0135605
0.0135879
0.0136161
0.0136448
0.0136742
0.0137043
0.013735
0.0137663
0.0137983
0.0138311
0.0138644
0.0138983
0.0139327
0.0139674
0.0140023
0.0140372
0.014072
0.0141066
0.0141407
0.0141743
0.0142072
0.0142395
0.0142709
0.0143014
0.014331
0.0143597
0.0143874
0.0144141
0.0131935
0.0131963
0.0132008
0.0132068
0.0132143
0.0132234
0.0132338
0.0132456
0.0132587
0.0132731
0.0132886
0.0133054
0.0133233
0.0133423
0.0133623
0.0133834
0.0134055
0.0134285
0.0134524
0.0134772
0.0135027
0.0135291
0.0135562
0.0135839
0.0136123
0.0136413
0.013671
0.0137012
0.0137321
0.0137636
0.0137958
0.0138287
0.0138622
0.0138962
0.0139307
0.0139656
0.0140007
0.0140358
0.0140709
0.0141057
0.0141401
0.014174
0.0142072
0.0142398
0.0142715
0.0143024
0.0143324
0.0143614
0.0143894
0.0144164
0.0131856
0.0131887
0.0131933
0.0131994
0.013207
0.0132161
0.0132265
0.0132383
0.0132514
0.0132658
0.0132815
0.0132983
0.0133162
0.0133353
0.0133555
0.0133768
0.013399
0.0134222
0.0134464
0.0134714
0.0134972
0.0135239
0.0135512
0.0135793
0.0136079
0.0136372
0.0136671
0.0136976
0.0137286
0.0137603
0.0137927
0.0138257
0.0138594
0.0138937
0.0139285
0.0139637
0.0139991
0.0140346
0.01407
0.0141052
0.01414
0.0141743
0.014208
0.0142409
0.0142731
0.0143043
0.0143347
0.014364
0.0143924
0.0144197
0.0131761
0.0131794
0.0131843
0.0131905
0.0131982
0.0132074
0.0132179
0.0132297
0.0132429
0.0132574
0.0132731
0.01329
0.0133081
0.0133273
0.0133477
0.0133691
0.0133916
0.013415
0.0134395
0.0134648
0.0134909
0.0135179
0.0135456
0.013574
0.013603
0.0136325
0.0136626
0.0136933
0.0137245
0.0137563
0.0137889
0.0138222
0.0138562
0.0138908
0.0139259
0.0139615
0.0139974
0.0140335
0.0140694
0.0141052
0.0141405
0.0141754
0.0142095
0.0142429
0.0142755
0.0143072
0.0143379
0.0143677
0.0143964
0.0144241
0.0131652
0.0131688
0.0131738
0.0131803
0.0131881
0.0131973
0.0132079
0.0132199
0.0132331
0.0132477
0.0132635
0.0132805
0.0132988
0.0133182
0.0133388
0.0133604
0.0133832
0.0134069
0.0134316
0.0134573
0.0134839
0.0135112
0.0135393
0.0135681
0.0135974
0.0136273
0.0136576
0.0136885
0.0137198
0.0137517
0.0137844
0.0138179
0.0138523
0.0138873
0.0139229
0.0139591
0.0139957
0.0140324
0.0140691
0.0141056
0.0141416
0.014177
0.0142117
0.0142457
0.0142788
0.0143109
0.0143421
0.0143723
0.0144014
0.0144295
0.0131528
0.0131567
0.013162
0.0131686
0.0131765
0.0131859
0.0131966
0.0132087
0.0132221
0.0132367
0.0132527
0.0132699
0.0132883
0.0133079
0.0133287
0.0133507
0.0133737
0.0133978
0.0134229
0.013449
0.013476
0.0135039
0.0135324
0.0135616
0.0135913
0.0136215
0.0136521
0.0136831
0.0137144
0.0137463
0.013779
0.0138127
0.0138478
0.0138833
0.0139194
0.0139563
0.0139937
0.0140314
0.014069
0.0141063
0.0141432
0.0141793
0.0142148
0.0142493
0.014283
0.0143156
0.0143473
0.0143779
0.0144075
0.0144359
0.0131391
0.0131431
0.0131487
0.0131555
0.0131636
0.0131731
0.013184
0.0131962
0.0132097
0.0132245
0.0132406
0.013258
0.0132766
0.0132965
0.0133176
0.0133398
0.0133632
0.0133877
0.0134133
0.0134398
0.0134674
0.0134958
0.0135249
0.0135546
0.0135848
0.0136153
0.0136461
0.0136771
0.0137083
0.0137399
0.0137722
0.0138062
0.0138422
0.0138782
0.013915
0.0139528
0.0139915
0.0140305
0.0140692
0.0141076
0.0141454
0.0141824
0.0142186
0.0142538
0.0142881
0.0143213
0.0143535
0.0143846
0.0144146
0.0144435
0.013124
0.0131282
0.013134
0.013141
0.0131493
0.013159
0.0131701
0.0131824
0.0131961
0.013211
0.0132273
0.0132449
0.0132637
0.0132838
0.0133052
0.0133278
0.0133516
0.0133765
0.0134026
0.0134298
0.0134579
0.0134869
0.0135167
0.013547
0.0135777
0.0136086
0.0136396
0.0136705
0.0137011
0.013732
0.0137635
0.0137976
0.0138354
0.0138717
0.0139089
0.0139481
0.0139887
0.0140294
0.0140697
0.0141094
0.0141483
0.0141863
0.0142233
0.0142593
0.0142942
0.014328
0.0143607
0.0143923
0.0144227
0.0144521
0.0131074
0.013112
0.013118
0.0131252
0.0131337
0.0131436
0.0131548
0.0131673
0.0131811
0.0131963
0.0132127
0.0132305
0.0132496
0.01327
0.0132916
0.0133146
0.0133388
0.0133643
0.0133909
0.0134187
0.0134476
0.0134773
0.0135078
0.0135387
0.0135699
0.0136012
0.0136325
0.0136633
0.0136933
0.0137231
0.0137532
0.0137878
0.01383
0.0138649
0.013901
0.0139417
0.0139849
0.0140279
0.0140702
0.0141117
0.014152
0.0141912
0.0142291
0.0142658
0.0143013
0.0143357
0.0143689
0.014401
0.014432
0.0144618
0.0130896
0.0130943
0.0131006
0.013108
0.0131167
0.0131268
0.0131382
0.0131509
0.0131649
0.0131802
0.0131968
0.0132148
0.0132341
0.0132548
0.0132768
0.0133001
0.0133248
0.0133508
0.0133781
0.0134065
0.0134361
0.0134667
0.0134979
0.0135295
0.0135614
0.0135935
0.0136255
0.0136567
0.013686
0.0137154
0.0137437
0.0137826
0.0138351
0.0138642
0.0138931
0.0139336
0.01398
0.0140259
0.0140707
0.0141143
0.0141564
0.0141969
0.0142359
0.0142734
0.0143096
0.0143445
0.0143783
0.0144108
0.0144423
0.0144725
0.0130703
0.0130754
0.0130818
0.0130895
0.0130984
0.0131087
0.0131202
0.0131331
0.0131473
0.0131628
0.0131796
0.0131978
0.0132173
0.0132382
0.0132605
0.0132843
0.0133095
0.0133361
0.0133638
0.0133929
0.0134233
0.0134548
0.0134869
0.0135195
0.0135526
0.0135859
0.0136193
0.0136518
0.0136804
0.0137127
0.013742
0.0138075
0.0139202
0.0138921
0.0138897
0.0139237
0.0139752
0.0140254
0.0140724
0.0141177
0.0141615
0.0142035
0.0142437
0.0142821
0.0143189
0.0143544
0.0143887
0.0144217
0.0144536
0.0144843
0.0130498
0.0130551
0.0130618
0.0130697
0.0130788
0.0130892
0.013101
0.013114
0.0131284
0.0131441
0.0131611
0.0131794
0.0131991
0.0132202
0.0132428
0.013267
0.0132927
0.0133197
0.0133479
0.0133775
0.0134089
0.0134415
0.0134748
0.0135089
0.0135439
0.0135788
0.0136135
0.0136474
0.0136805
0.0137159
0.01376
0.0138889
0.0141096
0.0140405
0.0139295
0.0139297
0.013985
0.0140342
0.0140787
0.0141239
0.0141684
0.0142113
0.0142525
0.0142918
0.0143294
0.0143654
0.0144001
0.0144337
0.014466
0.014497
0.013028
0.0130335
0.0130404
0.0130485
0.0130578
0.0130685
0.0130804
0.0130937
0.0131082
0.0131241
0.0131412
0.0131596
0.0131794
0.0132007
0.0132234
0.0132478
0.013274
0.0133015
0.0133299
0.0133602
0.013393
0.0134272
0.0134618
0.0134978
0.0135353
0.013573
0.0136102
0.0136454
0.0136795
0.0138602
0.0137616
0.0142349
0.0183668
0.014805
0.0140261
0.0140278
0.0140234
0.0140562
0.0140909
0.0141341
0.0141781
0.0142209
0.0142623
0.0143023
0.0143407
0.0143774
0.0144126
0.0144466
0.0144793
0.0145108
0.0130048
0.0130106
0.0130177
0.013026
0.0130356
0.0130464
0.0130586
0.013072
0.0130867
0.0131027
0.01312
0.0131384
0.0131581
0.0131792
0.0132019
0.0132264
0.013253
0.0132812
0.0133101
0.0133414
0.0133763
0.0134126
0.0134485
0.0134864
0.0135252
0.0135655
0.0136099
0.0136603
0.0137647
0.0139179
0.0145997
0.0212352
0.0216826
0.0218901
0.0162474
0.0142002
0.0141033
0.0140878
0.0141063
0.0141465
0.0141898
0.0142324
0.0142737
0.0143137
0.0143525
0.01439
0.0144259
0.0144605
0.0144936
0.0145254
0.0129805
0.0129864
0.0129938
0.0130022
0.013012
0.013023
0.0130354
0.0130491
0.013064
0.0130801
0.0130973
0.0131156
0.0131351
0.0131558
0.0131782
0.0132026
0.0132298
0.0132587
0.0132884
0.0133211
0.0133581
0.0133963
0.0134349
0.0134761
0.0135191
0.0135525
0.0136028
0.0136537
0.0137134
0.0138903
0.0138947
0.0165038
0.0214469
0.0180427
0.0140696
0.0141173
0.0140979
0.014085
0.014111
0.0141548
0.0142001
0.0142443
0.0142862
0.0143262
0.0143649
0.0144028
0.0144397
0.0144751
0.0145089
0.014541
0.0129548
0.0129609
0.0129685
0.0129771
0.0129871
0.0129984
0.013011
0.0130248
0.0130399
0.0130561
0.0130733
0.0130913
0.0131103
0.0131308
0.0131529
0.0131773
0.0132044
0.0132341
0.0132634
0.0133011
0.0133444
0.0133781
0.0134182
0.0134573
0.0135134
0.013659
0.0135789
0.0136467
0.0137108
0.0137698
0.0138509
0.0140282
0.0154268
0.0143614
0.0141142
0.0140415
0.0140437
0.0140735
0.014118
0.0141637
0.0142086
0.0142557
0.0142995
0.0143399
0.0143781
0.014416
0.0144535
0.0144901
0.0145249
0.0145574
0.012928
0.0129342
0.0129419
0.0129507
0.0129608
0.0129724
0.0129852
0.0129993
0.0130147
0.0130309
0.0130479
0.0130657
0.0130847
0.0131051
0.0131272
0.0131511
0.0131768
0.0132046
0.0132359
0.0132754
0.0133297
0.013389
0.0133905
0.0134323
0.013483
0.0135561
0.0142338
0.0136398
0.0137043
0.0137541
0.0137883
0.013928
0.0141109
0.0139978
0.0139255
0.0139671
0.0140412
0.0140988
0.0141377
0.014172
0.0142131
0.0142661
0.0143133
0.0143545
0.0143916
0.0144292
0.0144671
0.0145049
0.0145415
0.0145749
0.0128998
0.0129061
0.0129139
0.0129229
0.0129332
0.012945
0.0129582
0.0129726
0.0129882
0.0130046
0.0130216
0.0130396
0.013059
0.01308
0.0131024
0.0131258
0.0131493
0.0131744
0.0132051
0.0132434
0.0132994
0.0133742
0.013468
0.0134396
0.0134517
0.0135209
0.0136131
0.013636
0.0136816
0.0137415
0.0137954
0.013857
0.0139577
0.0139591
0.0139771
0.0141683
0.014067
0.0141095
0.0141344
0.0141685
0.0142141
0.014282
0.0143339
0.0143734
0.014406
0.0144422
0.0144804
0.0145191
0.0145579
0.0145935
0.0128704
0.0128766
0.0128845
0.0128937
0.0129042
0.0129163
0.0129299
0.0129447
0.0129606
0.0129773
0.0129948
0.0130135
0.0130339
0.0130562
0.0130798
0.0131038
0.0131291
0.0131579
0.01319
0.0132062
0.0132531
0.0133355
0.0134009
0.0134371
0.0134422
0.013474
0.0135467
0.0136012
0.0136586
0.0137078
0.0137679
0.0138443
0.0139511
0.0139639
0.0139894
0.0140291
0.0140573
0.0140939
0.0141392
0.0141823
0.0142419
0.0143332
0.0143823
0.0144039
0.0144221
0.0144547
0.0144935
0.0145331
0.0145731
0.0146126
0.0128395
0.0128457
0.0128536
0.0128629
0.0128738
0.0128862
0.0129002
0.0129155
0.0129319
0.0129492
0.0129675
0.0129874
0.0130093
0.0130333
0.0130586
0.0130855
0.0131173
0.0131591
0.0131933
0.0132489
0.0132482
0.0133522
0.0134286
0.013468
0.0134402
0.0134466
0.0134863
0.0135596
0.0136236
0.0136884
0.0137514
0.013801
0.0138704
0.0138986
0.0139475
0.0140041
0.0140576
0.014109
0.0141644
0.0142246
0.0142107
0.01446
0.0144814
0.0144807
0.0144471
0.0144694
0.0145076
0.0145475
0.0145879
0.0146306
0.0128072
0.0128133
0.0128212
0.0128306
0.0128417
0.0128545
0.012869
0.0128849
0.0129021
0.0129202
0.0129397
0.0129611
0.0129849
0.0130107
0.0130383
0.013071
0.0130974
0.0131432
0.0132002
0.0131653
0.0136188
0.0135051
0.0135397
0.0135621
0.0134848
0.0134565
0.0134815
0.0135455
0.0136047
0.0136729
0.0137295
0.0137729
0.0138293
0.0138925
0.0139646
0.0140178
0.0140743
0.0141353
0.0142121
0.0142419
0.0142353
0.0197855
0.0182154
0.014751
0.0145548
0.0145069
0.0145299
0.0145653
0.0146041
0.0146466
0.0127733
0.0127792
0.0127871
0.0127966
0.012808
0.0128212
0.0128363
0.0128529
0.0128709
0.0128901
0.012911
0.0129342
0.0129598
0.0129876
0.0130198
0.0130517
0.0130879
0.0132026
0.0132671
0.0132594
0.013121
0.0143372
0.0151472
0.0144348
0.0134679
0.0135145
0.0134979
0.0135442
0.0136069
0.0136779
0.0137643
0.0137549
0.014605
0.0140341
0.013996
0.0140409
0.0140934
0.014159
0.0142945
0.0144732
0.0175512
0.0204061
0.0206904
0.0181779
0.0145941
0.0145233
0.0145422
0.0145786
0.014619
0.0146627
0.0127376
0.0127433
0.0127511
0.0127608
0.0127725
0.0127861
0.0128018
0.0128192
0.0128383
0.0128587
0.0128811
0.012906
0.0129334
0.0129634
0.0129968
0.0130286
0.013132
0.0131837
0.0132156
0.013351
0.0153851
0.0209602
0.0212953
0.0209089
0.0156916
0.0134913
0.0135117
0.0135714
0.0136111
0.0136715
0.0137254
0.013775
0.013856
0.0139233
0.0140081
0.014043
0.0145779
0.0141887
0.0143286
0.0144104
0.0151923
0.0200891
0.0207545
0.0164245
0.014389
0.0144723
0.0145256
0.0145735
0.0146267
0.0146779
0.0126998
0.0127053
0.0127131
0.0127229
0.0127349
0.012749
0.0127653
0.0127837
0.0128038
0.0128257
0.0128496
0.0128762
0.0129055
0.0129375
0.0129702
0.0129996
0.0130748
0.0131657
0.0132329
0.0132871
0.0188694
0.0213879
0.0213115
0.0213883
0.0196542
0.013449
0.0135243
0.0137263
0.0135968
0.0136657
0.013718
0.0137732
0.0138494
0.0139182
0.0143591
0.0142062
0.0141314
0.0142004
0.0145764
0.0143236
0.0143351
0.0153301
0.0158824
0.0145899
0.0142273
0.0144194
0.0145279
0.0145729
0.014638
0.0146959
0.0126599
0.0126652
0.0126729
0.0126828
0.0126951
0.0127098
0.0127268
0.012746
0.0127673
0.0127906
0.0128163
0.0128448
0.0128764
0.0129116
0.0129484
0.0129865
0.01306
0.0131501
0.0132358
0.0133848
0.0188844
0.020937
0.0211377
0.0211503
0.0194923
0.0135406
0.013507
0.0135734
0.0136042
0.0136536
0.0137104
0.0137668
0.0138041
0.0138429
0.0138974
0.0139806
0.0141046
0.0141703
0.01418
0.014274
0.0143541
0.0144554
0.0144371
0.0142923
0.0143421
0.0148419
0.0145297
0.0146041
0.0146671
0.0147231
0.0126175
0.0126226
0.0126303
0.0126404
0.012653
0.0126681
0.0126858
0.012706
0.0127284
0.0127532
0.0127805
0.012811
0.0128451
0.0128834
0.0129253
0.0129759
0.0130363
0.0131181
0.0132064
0.0133434
0.0139147
0.0194401
0.0211649
0.0202597
0.014324
0.0133458
0.0134538
0.0135149
0.0135787
0.0136324
0.0136819
0.01373
0.0137839
0.0138297
0.0138918
0.0140316
0.0141286
0.0141965
0.0142261
0.0142617
0.0143245
0.0145071
0.0144295
0.0143961
0.0144372
0.0148399
0.014603
0.0146449
0.0147002
0.0147608
0.0125726
0.0125775
0.0125851
0.0125954
0.0126083
0.0126239
0.0126423
0.0126633
0.0126869
0.012713
0.0127419
0.0127741
0.0128102
0.0128508
0.0128966
0.0129492
0.0130118
0.0130832
0.0131706
0.0134181
0.0132837
0.0135154
0.0133287
0.0136232
0.0135039
0.0135819
0.013451
0.0135064
0.0135603
0.0136146
0.0136626
0.0137023
0.0137388
0.0137655
0.0138225
0.0140981
0.0141534
0.0142277
0.0142344
0.0142398
0.0142949
0.0143606
0.0144145
0.0144453
0.0144932
0.0145405
0.0148455
0.0146975
0.0147468
0.0147957
0.0125248
0.0125296
0.0125372
0.0125476
0.0125609
0.012577
0.012596
0.0126178
0.0126425
0.0126698
0.0127001
0.0127336
0.0127711
0.0128132
0.0128605
0.0129138
0.0129744
0.0130389
0.0131097
0.0131635
0.013226
0.0133011
0.013347
0.0134342
0.0134309
0.0134391
0.0134485
0.0134914
0.0135453
0.0136258
0.013654
0.0136759
0.0140176
0.0137503
0.0137019
0.0139709
0.0142802
0.0143598
0.0142308
0.0141437
0.0142451
0.0143532
0.01442
0.0144743
0.0145306
0.0145848
0.014654
0.0148969
0.0149302
0.0148209
0.012474
0.0124788
0.0124865
0.0124971
0.0125107
0.0125273
0.0125469
0.0125694
0.012595
0.0126234
0.0126548
0.0126895
0.012728
0.0127708
0.0128187
0.012872
0.0129307
0.0129933
0.0130554
0.0131097
0.0131697
0.013245
0.013284
0.0133442
0.0133737
0.0134141
0.0134575
0.0135123
0.0138948
0.0136347
0.0136539
0.0136796
0.0136933
0.0136783
0.0133942
0.0148236
0.0175648
0.0179003
0.0151716
0.0139046
0.014239
0.0143609
0.0144138
0.0144914
0.0145637
0.0146301
0.0146971
0.0147573
0.0148607
0.015008
0.0124201
0.0124249
0.0124327
0.0124435
0.0124575
0.0124745
0.0124947
0.0125179
0.0125443
0.0125737
0.0126062
0.0126418
0.0126809
0.0127242
0.012772
0.0128251
0.0128816
0.0129426
0.0130015
0.0130666
0.0131219
0.0131823
0.0133381
0.0133042
0.013366
0.0133943
0.0134409
0.013488
0.0135264
0.0135861
0.0136515
0.0137131
0.0137866
0.0138574
0.0147222
0.0262952
0.0271217
0.0271404
0.0259419
0.0154374
0.0143478
0.0144664
0.0146536
0.0145232
0.01458
0.0146511
0.0147301
0.0148174
0.0149298
0.0150153
0.012363
0.0123679
0.0123758
0.0123869
0.0124012
0.0124187
0.0124394
0.0124633
0.0124903
0.0125206
0.012554
0.0125905
0.0126302
0.0126736
0.0127211
0.0127735
0.0128272
0.0128862
0.0129525
0.0130633
0.0130653
0.0131696
0.0132514
0.0132744
0.0133176
0.0133745
0.0134182
0.0134677
0.0135219
0.013586
0.0136587
0.0137397
0.0138479
0.0140389
0.020591
0.0271295
0.0271327
0.0271883
0.0272503
0.0214051
0.0145913
0.0145535
0.0145744
0.0146669
0.0149192
0.0147108
0.0147628
0.0148379
0.0149494
0.015019
0.0123026
0.0123075
0.0123157
0.0123271
0.0123418
0.0123597
0.0123809
0.0124054
0.0124331
0.0124641
0.0124983
0.0125357
0.0125761
0.0126198
0.0126668
0.0127185
0.012772
0.0128247
0.012927
0.0129594
0.0130136
0.0131118
0.0131815
0.0132091
0.0137492
0.0133591
0.0133953
0.0134464
0.0135069
0.0135757
0.0136525
0.0137391
0.0138465
0.0139772
0.0182638
0.0270623
0.0271636
0.0272571
0.0274008
0.0187454
0.0144508
0.0145269
0.0145385
0.0145819
0.014642
0.0147184
0.0147859
0.0149919
0.0150144
0.015117
0.0122388
0.0122439
0.0122523
0.012264
0.012279
0.0122974
0.0123191
0.0123442
0.0123726
0.0124043
0.0124393
0.0124775
0.0125187
0.012563
0.0126106
0.0126618
0.0127163
0.0127801
0.0128295
0.0128873
0.0129494
0.0130198
0.0137096
0.013164
0.0132693
0.0133229
0.0133688
0.0134166
0.0134814
0.0135556
0.0136369
0.0137288
0.0138336
0.0139528
0.0161979
0.0261776
0.0271997
0.0273534
0.0267393
0.017447
0.0144143
0.0144975
0.0145475
0.0146058
0.0146737
0.0147481
0.0148204
0.0148909
0.0149675
0.0151325
0.0121715
0.0121768
0.0121855
0.0121975
0.012213
0.0122318
0.012254
0.0122797
0.0123087
0.012341
0.0123767
0.0124157
0.0124579
0.0125031
0.0125512
0.0126025
0.0126572
0.0127143
0.0127704
0.0128275
0.0128947
0.0129595
0.0129892
0.0130969
0.0131944
0.0136966
0.0133177
0.0133785
0.0134474
0.0135286
0.013611
0.013703
0.0137959
0.0138804
0.0139478
0.0160059
0.0245373
0.0241855
0.0166045
0.0142006
0.0144893
0.0144867
0.0145553
0.014623
0.0146991
0.0147766
0.0148532
0.0149293
0.0150058
0.0150929
0.0121006
0.0121062
0.0121152
0.0121276
0.0121435
0.0121628
0.0121855
0.0122117
0.0122414
0.0122744
0.0123108
0.0123506
0.0123935
0.0124396
0.0124886
0.0125403
0.0125947
0.012651
0.0127089
0.0127665
0.0128283
0.0128893
0.012955
0.0130367
0.0131174
0.013168
0.0132579
0.0133418
0.0134162
0.0134994
0.0135768
0.013665
0.0137687
0.0138707
0.0140004
0.0141947
0.0139594
0.0139559
0.014392
0.0143533
0.0143802
0.0145817
0.0145622
0.014639
0.0147206
0.0148033
0.014885
0.0149618
0.015045
0.0151402
0.0120263
0.0120322
0.0120415
0.0120542
0.0120705
0.0120903
0.0121136
0.0121404
0.0121706
0.0122043
0.0122414
0.0122819
0.0123257
0.0123726
0.0124225
0.0124752
0.0125304
0.0125875
0.0126462
0.0127078
0.0127716
0.0128376
0.0129064
0.0129812
0.013054
0.0131278
0.0132088
0.0132905
0.0133911
0.0134605
0.0135454
0.0136497
0.0139228
0.0138804
0.0139425
0.0140457
0.0140364
0.0140996
0.0142766
0.0143204
0.0143931
0.0144905
0.0145666
0.0146575
0.0147463
0.0148323
0.0149167
0.0150022
0.0151082
0.0151813
0.0119484
0.0119545
0.0119642
0.0119773
0.011994
0.0120143
0.0120381
0.0120655
0.0120964
0.0121307
0.0121686
0.0122098
0.0122544
0.0123022
0.0123531
0.0124068
0.0124632
0.012522
0.0125829
0.0126465
0.0127123
0.0127803
0.0128509
0.0129259
0.0130014
0.013078
0.0131595
0.0132447
0.013325
0.0134113
0.0135084
0.0136032
0.0136885
0.0137763
0.0138797
0.0139936
0.0140825
0.0142328
0.0142438
0.0143014
0.0143954
0.0144817
0.0145776
0.0146755
0.0147715
0.0148649
0.0149504
0.0150329
0.0151948
0.0152272
0.0118668
0.0118733
0.0118833
0.0118968
0.011914
0.0119347
0.0119591
0.011987
0.0120186
0.0120536
0.0120922
0.0121343
0.0121797
0.0122283
0.0122802
0.0123351
0.0123929
0.0124533
0.0125163
0.0125818
0.0126497
0.0127199
0.0127927
0.0128686
0.0129458
0.0130243
0.0131067
0.0131912
0.0132782
0.0133689
0.0134624
0.0135548
0.0136477
0.0137427
0.0138397
0.0139332
0.0139854
0.0140601
0.0141875
0.0142927
0.0144032
0.0144892
0.0145851
0.0146878
0.0147945
0.0148984
0.0149922
0.0156603
0.0159067
0.0152978
0.0117817
0.0117884
0.0117988
0.0118127
0.0118303
0.0118515
0.0118764
0.011905
0.0119371
0.0119729
0.0120123
0.0120551
0.0121014
0.012151
0.0122038
0.0122598
0.0123188
0.0123808
0.0124456
0.0125132
0.0125836
0.0126565
0.0127319
0.0128096
0.0128891
0.0129704
0.0130545
0.0131415
0.0132305
0.0133217
0.0134164
0.0135119
0.0136084
0.0137047
0.0138023
0.0138957
0.0139768
0.0140672
0.0141778
0.0142825
0.0143827
0.0144787
0.0145903
0.0146985
0.0148113
0.0149306
0.0150581
0.0158359
0.0155818
0.0155527
0.0116928
0.0116999
0.0117106
0.0117249
0.0117429
0.0117646
0.0117901
0.0118192
0.0118521
0.0118886
0.0119287
0.0119723
0.0120194
0.01207
0.0121239
0.012181
0.0122412
0.0123045
0.0123708
0.0124401
0.0125122
0.0125872
0.012665
0.0127456
0.0128286
0.0129135
0.0130004
0.013089
0.0131795
0.013273
0.0133695
0.0134675
0.013567
0.0136676
0.013769
0.0138687
0.0139646
0.0140653
0.0141734
0.0142816
0.0144035
0.0145883
0.0146069
0.0147059
0.0148265
0.0149467
0.0150759
0.0152412
0.015462
0.0155889
0.0116002
0.0116076
0.0116187
0.0116333
0.0116518
0.011674
0.0117
0.0117297
0.0117632
0.0118004
0.0118413
0.0118858
0.0119338
0.0119853
0.0120402
0.0120985
0.01216
0.0122248
0.0122926
0.0123635
0.0124375
0.0125142
0.0125938
0.0126759
0.0127606
0.0128481
0.0129386
0.0130317
0.0131266
0.0132231
0.0133214
0.013422
0.013525
0.0136297
0.0137355
0.0138411
0.0139457
0.0140533
0.014165
0.0142828
0.0144024
0.0145004
0.0145927
0.0146995
0.0148316
0.0149752
0.0151749
0.0153715
0.0155469
0.0157367
0.0115038
0.0115115
0.0115229
0.011538
0.0115568
0.0115795
0.0116061
0.0116364
0.0116706
0.0117085
0.0117501
0.0117954
0.0118443
0.0118967
0.0119527
0.0120122
0.0120751
0.0121414
0.0122109
0.0122837
0.0123596
0.0124385
0.0125201
0.0126044
0.012691
0.01278
0.0128716
0.0129659
0.0130639
0.0131658
0.0132706
0.0133758
0.013482
0.0135902
0.0137007
0.0138122
0.0139245
0.0140392
0.0141568
0.0142713
0.0143999
0.014516
0.0146096
0.0147618
0.0148984
0.0150301
0.0152287
0.0154246
0.0156209
0.0157773
0.0114037
0.0114116
0.0114233
0.0114388
0.011458
0.0114812
0.0115083
0.0115392
0.011574
0.0116126
0.0116549
0.011701
0.0117508
0.0118042
0.0118613
0.011922
0.0119863
0.0120542
0.0121256
0.0122004
0.0122785
0.0123597
0.0124437
0.0125303
0.0126189
0.0127098
0.0128031
0.0128988
0.012998
0.0131008
0.013208
0.0133201
0.0134353
0.0135497
0.0136646
0.0137818
0.013901
0.0140246
0.0141504
0.0142812
0.0144969
0.0145581
0.0146918
0.0150328
0.0161065
0.0158906
0.0153946
0.0155699
0.015702
0.0158253
0.0112996
0.0113078
0.0113198
0.0113356
0.0113553
0.0113789
0.0114065
0.011438
0.0114734
0.0115127
0.0115557
0.0116026
0.0116532
0.0117076
0.0117658
0.0118278
0.0118936
0.0119631
0.0120364
0.0121134
0.0121939
0.0122777
0.0123645
0.0124536
0.0125443
0.012637
0.0127317
0.0128286
0.0129292
0.0130342
0.0131437
0.0132578
0.0133768
0.0135012
0.0136264
0.0137496
0.0138756
0.0140063
0.0141401
0.0142829
0.0144311
0.0145689
0.0147146
0.0148289
0.0150952
0.0153979
0.0153564
0.0155668
0.0157678
0.0158327
0.0111916
0.0112001
0.0112124
0.0112285
0.0112486
0.0112726
0.0113007
0.0113327
0.0113687
0.0114086
0.0114524
0.0114999
0.0115513
0.0116067
0.0116661
0.0117294
0.0117966
0.0118679
0.0119432
0.0120225
0.0121057
0.0121925
0.0122826
0.0123748
0.0124672
0.0125617
0.0126575
0.0127546
0.0128563
0.0129634
0.0130759
0.0131935
0.0133162
0.013444
0.0135777
0.0137139
0.0138472
0.0139844
0.0141269
0.014274
0.0144127
0.0145818
0.0147667
0.0149937
0.0153569
0.0154473
0.0197298
0.02219
0.0184377
0.0159403
0.0110797
0.0110884
0.011101
0.0111174
0.0111378
0.0111623
0.0111908
0.0112234
0.0112599
0.0113004
0.0113447
0.0113929
0.0114452
0.0115015
0.011562
0.0116266
0.0116953
0.0117683
0.0118456
0.0119274
0.0120134
0.012104
0.0121984
0.0122947
0.0123878
0.012484
0.0125807
0.012676
0.012778
0.0128873
0.0130031
0.0131249
0.0132523
0.013385
0.0135232
0.013668
0.0138161
0.0139611
0.0141113
0.0142657
0.0144251
0.014584
0.0151412
0.0151163
0.0154273
0.0174114
0.022038
0.0221336
0.02219
0.0177662
0.0109638
0.0109727
0.0109855
0.0110022
0.0110229
0.0110478
0.0110767
0.0111098
0.0111469
0.0111878
0.0112327
0.0112816
0.0113346
0.0113919
0.0114535
0.0115193
0.0115893
0.0116639
0.0117431
0.0118273
0.0119164
0.0120114
0.0121125
0.0122168
0.0123077
0.0124051
0.0125026
0.0125915
0.0126927
0.0128047
0.0129244
0.013051
0.0131838
0.0133223
0.0134665
0.0136166
0.0137741
0.0139355
0.014095
0.0142573
0.014422
0.0146033
0.0151036
0.0151787
0.0153752
0.0167912
0.0216946
0.0221971
0.0225017
0.018108
0.0108439
0.0108529
0.0108659
0.0108829
0.0109039
0.0109291
0.0109585
0.0109919
0.0110295
0.0110709
0.0111163
0.0111658
0.0112196
0.0112778
0.0113403
0.0114071
0.0114783
0.0115542
0.0116351
0.0117214
0.0118135
0.0119138
0.0120217
0.0121402
0.0122271
0.0123274
0.0124248
0.0124983
0.0125975
0.0127137
0.0128387
0.0129709
0.0131097
0.0132546
0.0134054
0.0135623
0.0137257
0.0138971
0.0140746
0.0142466
0.0144224
0.0146496
0.014849
0.0151503
0.0153772
0.0156523
0.0181323
0.0224886
0.0193077
0.0159947
0.0144376
0.0144617
0.0144848
0.0145069
0.014528
0.0145479
0.0145667
0.0145842
0.0146005
0.0146154
0.014629
0.0146413
0.0146522
0.0146619
0.0146704
0.0146779
0.0146844
0.0146901
0.014695
0.0146992
0.0147028
0.0147058
0.0147083
0.01471
0.014711
0.014711
0.0147101
0.0147081
0.0147053
0.0147015
0.0146971
0.014692
0.0146866
0.0146808
0.0146749
0.0146689
0.0146628
0.0146569
0.0146512
0.0146457
0.0146405
0.0146358
0.0146317
0.0146284
0.014626
0.014625
0.0146253
0.0146272
0.01463
0.014633
0.0144382
0.0144626
0.0144859
0.0145082
0.0145293
0.0145493
0.0145682
0.0145858
0.0146021
0.0146171
0.0146308
0.0146432
0.0146543
0.0146642
0.0146729
0.0146805
0.0146873
0.0146931
0.0146981
0.0147024
0.014706
0.0147089
0.0147111
0.0147127
0.0147134
0.0147132
0.0147121
0.01471
0.0147071
0.0147034
0.014699
0.014694
0.0146886
0.0146829
0.014677
0.014671
0.0146651
0.0146592
0.0146535
0.0146481
0.0146431
0.0146387
0.0146348
0.0146317
0.0146296
0.0146287
0.0146289
0.0146305
0.0146331
0.014636
0.0144397
0.0144644
0.0144879
0.0145104
0.0145317
0.0145519
0.0145708
0.0145885
0.0146049
0.0146201
0.0146339
0.0146464
0.0146576
0.0146676
0.0146764
0.0146842
0.014691
0.014697
0.0147021
0.0147064
0.0147099
0.0147127
0.0147148
0.0147161
0.0147167
0.0147163
0.014715
0.0147128
0.0147098
0.014706
0.0147015
0.0146965
0.0146911
0.0146853
0.0146794
0.0146734
0.0146674
0.0146615
0.0146558
0.0146505
0.0146455
0.0146412
0.0146375
0.0146346
0.0146326
0.0146316
0.0146318
0.0146332
0.0146358
0.0146391
0.0144423
0.0144672
0.014491
0.0145137
0.0145352
0.0145556
0.0145747
0.0145925
0.014609
0.0146243
0.0146382
0.0146507
0.014662
0.014672
0.0146809
0.0146887
0.0146956
0.0147016
0.0147068
0.014711
0.0147145
0.0147171
0.0147191
0.0147204
0.0147207
0.0147202
0.0147187
0.0147164
0.0147132
0.0147092
0.0147045
0.0146994
0.0146938
0.0146879
0.0146818
0.0146756
0.0146695
0.0146635
0.0146577
0.0146523
0.0146473
0.0146429
0.0146392
0.0146363
0.0146343
0.0146334
0.0146335
0.0146348
0.0146375
0.0146411
0.014446
0.0144712
0.0144952
0.0145182
0.0145399
0.0145605
0.0145797
0.0145978
0.0146144
0.0146298
0.0146437
0.0146563
0.0146676
0.0146776
0.0146864
0.0146941
0.014701
0.014707
0.0147122
0.0147164
0.0147197
0.0147222
0.0147242
0.0147253
0.0147257
0.014725
0.0147234
0.0147208
0.0147173
0.014713
0.0147081
0.0147027
0.0146968
0.0146907
0.0146843
0.0146779
0.0146715
0.0146653
0.0146593
0.0146537
0.0146486
0.0146441
0.0146402
0.0146372
0.0146351
0.014634
0.014634
0.0146352
0.0146379
0.0146416
0.0144507
0.0144762
0.0145005
0.0145238
0.0145458
0.0145666
0.0145861
0.0146043
0.0146211
0.0146366
0.0146506
0.0146632
0.0146744
0.0146843
0.0146929
0.0147005
0.0147072
0.0147132
0.0147186
0.0147226
0.0147257
0.0147279
0.0147299
0.0147311
0.0147315
0.0147307
0.0147289
0.014726
0.0147222
0.0147176
0.0147123
0.0147064
0.0147002
0.0146936
0.0146869
0.0146802
0.0146735
0.0146669
0.0146607
0.0146548
0.0146494
0.0146446
0.0146405
0.0146373
0.0146349
0.0146336
0.0146334
0.0146344
0.014637
0.0146404
0.0144564
0.0144823
0.014507
0.0145305
0.0145529
0.014574
0.0145937
0.0146122
0.0146292
0.0146448
0.0146588
0.0146714
0.0146825
0.0146921
0.0147004
0.0147076
0.0147139
0.0147199
0.0147257
0.0147295
0.0147321
0.0147337
0.0147359
0.0147374
0.014738
0.0147373
0.0147353
0.0147321
0.0147279
0.0147228
0.0147169
0.0147106
0.0147038
0.0146968
0.0146896
0.0146824
0.0146753
0.0146683
0.0146616
0.0146554
0.0146496
0.0146444
0.01464
0.0146365
0.0146338
0.0146322
0.0146317
0.0146325
0.0146347
0.0146378
0.0144633
0.0144895
0.0145146
0.0145385
0.0145612
0.0145826
0.0146027
0.0146214
0.0146386
0.0146543
0.0146684
0.0146809
0.0146917
0.0147009
0.0147086
0.0147151
0.0147206
0.0147267
0.0147337
0.0147369
0.0147388
0.0147391
0.0147419
0.0147442
0.0147453
0.0147447
0.0147425
0.0147389
0.0147341
0.0147285
0.0147221
0.0147151
0.0147078
0.0147002
0.0146924
0.0146847
0.014677
0.0146695
0.0146623
0.0146555
0.0146493
0.0146437
0.0146388
0.0146348
0.0146318
0.0146298
0.0146289
0.0146292
0.014631
0.0146338
0.0144712
0.0144979
0.0145234
0.0145476
0.0145707
0.0145924
0.0146129
0.0146318
0.0146493
0.0146651
0.0146792
0.0146914
0.0147018
0.0147104
0.0147173
0.0147225
0.0147267
0.0147329
0.0147434
0.0147455
0.0147463
0.0147438
0.0147485
0.0147524
0.0147542
0.0147538
0.014751
0.0147466
0.0147411
0.0147346
0.0147276
0.01472
0.014712
0.0147037
0.0146953
0.0146869
0.0146785
0.0146704
0.0146626
0.0146552
0.0146484
0.0146422
0.0146368
0.0146323
0.0146287