/*--------------------------------*- C++ -*----------------------------------*\
| =========                 |                                                 |
| \\      /  F ield         | OpenFOAM: The Open Source CFD Toolbox           |
|  \\    /   O peration     | Version:  2.4.0                                 |
|   \\  /    A nd           | Web:      www.OpenFOAM.org                      |
|    \\/     M anipulation  |                                                 |
\*---------------------------------------------------------------------------*/
FoamFile
{
    version     2.0;
    format      ascii;
    class       volScalarField;
    location    "0.017";
    object      p_rgh;
}
// * * * * * * * * * * * * * * * * * * * * * * * * * * * * * * * * * * * * * //

dimensions      [1 -1 -2 0 0 0 0];

internalField   nonuniform List<scalar> 
10000
(
-0.00272361
-0.00273747
-0.00276688
-0.00281296
-0.0028752
-0.00295318
-0.00304656
-0.00315496
-0.00327788
-0.00341483
-0.00356527
-0.00372857
-0.003904
-0.0040908
-0.00428815
-0.00449527
-0.00471142
-0.00493586
-0.00516789
-0.00540688
-0.0056523
-0.00590365
-0.00616061
-0.0064229
-0.0066903
-0.0069626
-0.00723963
-0.00752124
-0.00780721
-0.00809739
-0.00839158
-0.00868953
-0.00899094
-0.00929547
-0.00960273
-0.00991232
-0.0102238
-0.0105366
-0.0108503
-0.0111643
-0.011478
-0.0117908
-0.0121022
-0.0124115
-0.0127181
-0.013021
-0.0133199
-0.013614
-0.0139025
-0.0141845
-0.00271155
-0.00272541
-0.00275471
-0.00280059
-0.00286275
-0.00294074
-0.00303419
-0.00314271
-0.00326584
-0.00340306
-0.00355376
-0.00371727
-0.00389285
-0.00407973
-0.0042771
-0.0044842
-0.00470025
-0.00492454
-0.00515639
-0.00539518
-0.00564039
-0.00589162
-0.00614854
-0.0064109
-0.00667848
-0.0069511
-0.00722857
-0.00751075
-0.00779745
-0.00808848
-0.00838358
-0.00868248
-0.00898482
-0.00929023
-0.00959828
-0.00990852
-0.0102205
-0.0105335
-0.0108472
-0.0111609
-0.0114741
-0.0117861
-0.0120963
-0.0124041
-0.0127089
-0.0130101
-0.0133071
-0.0135992
-0.0138856
-0.0141657
-0.00268695
-0.00270102
-0.00273045
-0.00277645
-0.00283873
-0.00291692
-0.00301064
-0.00311944
-0.00324284
-0.00338028
-0.00353112
-0.00369467
-0.00387018
-0.00405684
-0.00425388
-0.00446053
-0.00467604
-0.00489974
-0.00513098
-0.00536923
-0.005614
-0.00586495
-0.0061218
-0.00638433
-0.00665236
-0.00692572
-0.00720425
-0.00748776
-0.00777607
-0.00806892
-0.00836603
-0.00866703
-0.00897152
-0.00927904
-0.00958906
-0.00990104
-0.0102144
-0.0105285
-0.0108428
-0.0111566
-0.0114694
-0.0117804
-0.0120891
-0.0123949
-0.0126973
-0.0129956
-0.0132894
-0.013578
-0.0138609
-0.0141375
-0.00265011
-0.00266443
-0.0026941
-0.00274037
-0.00280296
-0.0028815
-0.00297558
-0.00308473
-0.0032084
-0.003346
-0.00349686
-0.00366023
-0.00383536
-0.00402144
-0.00421768
-0.00442336
-0.0046378
-0.00486036
-0.00509052
-0.0053278
-0.00557183
-0.00582233
-0.0060791
-0.00634198
-0.00661086
-0.00688557
-0.00716595
-0.00745179
-0.00774285
-0.00803881
-0.00833929
-0.00864382
-0.00895187
-0.00926285
-0.00957612
-0.00989098
-0.0102068
-0.0105228
-0.0108383
-0.0111526
-0.011465
-0.011775
-0.0120819
-0.0123852
-0.0126844
-0.012979
-0.0132685
-0.0135526
-0.0138307
-0.0141024
-0.00260137
-0.00261586
-0.00264583
-0.00269244
-0.00275545
-0.00283445
-0.00292898
-0.00303851
-0.00316244
-0.00330011
-0.00345081
-0.00361377
-0.00378819
-0.00397329
-0.00416831
-0.00437257
-0.00458548
-0.00480652
-0.00503526
-0.00527137
-0.00551458
-0.00576474
-0.00602175
-0.00628552
-0.00655598
-0.006833
-0.00711636
-0.00740582
-0.00770105
-0.00800162
-0.008307
-0.00861658
-0.00892966
-0.00924548
-0.00956323
-0.00988208
-0.0102012
-0.0105198
-0.0108371
-0.0111522
-0.0114646
-0.0117736
-0.0120786
-0.0123791
-0.0126748
-0.0129651
-0.0132499
-0.0135286
-0.0138012
-0.0140673
-0.00254086
-0.00255553
-0.00258579
-0.0026328
-0.00269629
-0.00277581
-0.00287081
-0.00298071
-0.00310482
-0.00324244
-0.0033928
-0.00355508
-0.00372848
-0.00391224
-0.00410565
-0.00430814
-0.00451923
-0.00473853
-0.00496576
-0.00520074
-0.00544339
-0.00569367
-0.00595161
-0.0062172
-0.00649037
-0.00677099
-0.00705879
-0.00735343
-0.00765446
-0.00796127
-0.00827315
-0.00858928
-0.00890876
-0.00923065
-0.00955396
-0.0098777
-0.0102009
-0.0105227
-0.0108421
-0.0111584
-0.011471
-0.0117791
-0.0120822
-0.0123801
-0.0126722
-0.0129583
-0.0132382
-0.0135116
-0.0137785
-0.0140386
-0.0024688
-0.00248363
-0.00251418
-0.00256161
-0.0026256
-0.00270562
-0.00280107
-0.00291126
-0.00303544
-0.00317283
-0.00332259
-0.0034839
-0.00365596
-0.00383804
-0.00402955
-0.00423004
-0.00443916
-0.00465672
-0.0048826
-0.00511685
-0.00535954
-0.00561081
-0.00587077
-0.00613946
-0.00641681
-0.00670263
-0.00699656
-0.0072981
-0.0076066
-0.00792123
-0.00824105
-0.008565
-0.00889199
-0.00922086
-0.00955045
-0.00987964
-0.0102073
-0.0105326
-0.0108544
-0.0111721
-0.0114849
-0.0117923
-0.0120939
-0.0123892
-0.0126781
-0.0129603
-0.0132356
-0.013504
-0.0137655
-0.0140199
-0.00238542
-0.00240038
-0.00243121
-0.00247904
-0.00254349
-0.00262396
-0.00271975
-0.00283008
-0.00295414
-0.00309105
-0.00323993
-0.00339994
-0.00357033
-0.00375047
-0.00393988
-0.00413827
-0.00434549
-0.00456154
-0.00478657
-0.00502081
-0.00526454
-0.00551803
-0.00578143
-0.00605481
-0.00633804
-0.00663082
-0.00693262
-0.00724271
-0.00756016
-0.0078839
-0.00821272
-0.00854535
-0.00888047
-0.00921674
-0.00955287
-0.00988761
-0.0102198
-0.0105485
-0.0108728
-0.0111918
-0.011505
-0.0118119
-0.0121121
-0.0124052
-0.0126912
-0.0129699
-0.0132412
-0.0135051
-0.0137618
-0.0140111
-0.00229097
-0.00230603
-0.0023371
-0.00238526
-0.00245009
-0.00253088
-0.00262683
-0.0027371
-0.00286075
-0.00299686
-0.00314452
-0.0033029
-0.00347134
-0.00364932
-0.00383654
-0.00403291
-0.0042385
-0.00445359
-0.00467856
-0.00491388
-0.00515997
-0.00541717
-0.00568569
-0.00596551
-0.0062564
-0.00655783
-0.00686903
-0.00718898
-0.00751644
-0.00785008
-0.00818844
-0.00853004
-0.00887337
-0.00921697
-0.00955947
-0.00989959
-0.0102362
-0.0105682
-0.0108948
-0.0112151
-0.0115287
-0.0118351
-0.012134
-0.0124251
-0.0127085
-0.012984
-0.0132517
-0.0135117
-0.0137642
-0.0140093
-0.00218568
-0.00220082
-0.00223206
-0.00228046
-0.00234551
-0.00242641
-0.00252229
-0.00263218
-0.00275508
-0.00289001
-0.00303606
-0.00319249
-0.00335873
-0.00353443
-0.0037195
-0.00391411
-0.00411862
-0.00433357
-0.00455959
-0.00479732
-0.00504731
-0.00530993
-0.00558531
-0.0058733
-0.00617342
-0.00648488
-0.00680659
-0.00713719
-0.00747516
-0.00781891
-0.0081668
-0.00851716
-0.0088684
-0.00921903
-0.00956763
-0.00991292
-0.0102537
-0.010589
-0.0109179
-0.0112396
-0.0115536
-0.0118596
-0.0121572
-0.0124465
-0.0127273
-0.0129998
-0.0132641
-0.0135206
-0.0137695
-0.014011
-0.00206978
-0.00208497
-0.0021163
-0.00216478
-0.00222985
-0.0023106
-0.00240606
-0.00251518
-0.0026369
-0.00277022
-0.00291429
-0.00306845
-0.00323229
-0.00340568
-0.00358883
-0.00378217
-0.00398638
-0.00420226
-0.00443065
-0.00467233
-0.00492787
-0.00519759
-0.00548146
-0.00577907
-0.00608962
-0.00641198
-0.00674472
-0.0070862
-0.00743465
-0.00778828
-0.00814534
-0.00850412
-0.00886303
-0.00922057
-0.00957534
-0.009926
-0.0102714
-0.0106103
-0.0109419
-0.0112653
-0.01158
-0.0118856
-0.012182
-0.0124692
-0.0127473
-0.0130167
-0.0132776
-0.0135306
-0.0137761
-0.0140144
-0.00194349
-0.00195871
-0.00199
-0.00203837
-0.00210318
-0.00218343
-0.00227804
-0.00238592
-0.00250598
-0.00263725
-0.00277894
-0.00293055
-0.00309189
-0.00326311
-0.00344473
-0.00363751
-0.00384242
-0.00406048
-0.0042927
-0.00453989
-0.00480258
-0.0050809
-0.00537455
-0.00568278
-0.00600443
-0.006338
-0.00668179
-0.00703395
-0.00739255
-0.00775576
-0.00812181
-0.00848909
-0.00885603
-0.00922113
-0.00958294
-0.00994003
-0.0102911
-0.0106347
-0.01097
-0.0112958
-0.0116116
-0.0119171
-0.0122122
-0.0124971
-0.0127721
-0.0130379
-0.0132951
-0.0135443
-0.0137863
-0.0140217
-0.001807
-0.0018222
-0.0018533
-0.00190133
-0.00196553
-0.00204484
-0.00213813
-0.00224425
-0.00236213
-0.00249088
-0.00262983
-0.00277868
-0.00293753
-0.00310687
-0.00328755
-0.00348066
-0.00368741
-0.00390901
-0.00414651
-0.00440069
-0.00467189
-0.00495996
-0.00526423
-0.00558354
-0.00591642
-0.0062611
-0.00661569
-0.00697826
-0.0073469
-0.00771987
-0.00809553
-0.00847236
-0.0088488
-0.00922329
-0.00959419
-0.00995982
-0.0103185
-0.0106687
-0.011009
-0.0113382
-0.0116556
-0.011961
-0.0122546
-0.0125367
-0.0128081
-0.0130697
-0.0133224
-0.0135674
-0.0138054
-0.0140374
-0.00166049
-0.00167561
-0.00170635
-0.00175373
-0.00181693
-0.00189481
-0.00198622
-0.00209002
-0.00220519
-0.00233095
-0.00246684
-0.00261282
-0.00276934
-0.00293725
-0.00311774
-0.00331219
-0.00352201
-0.00374848
-0.00399263
-0.00425504
-0.00453576
-0.00483426
-0.00514946
-0.00547991
-0.00582386
-0.00617942
-0.0065447
-0.00691785
-0.00729722
-0.00768122
-0.00806836
-0.00845716
-0.00884598
-0.00923296
-0.00961608
-0.0099932
-0.0103621
-0.0107208
-0.0110675
-0.0114009
-0.0117202
-0.0120253
-0.0123167
-0.0125951
-0.0128619
-0.0131183
-0.0133657
-0.0136054
-0.0138387
-0.0140669
-0.00150411
-0.00151908
-0.00154926
-0.00159566
-0.00165739
-0.0017333
-0.00182225
-0.00192314
-0.00203506
-0.00215741
-0.00228999
-0.00243312
-0.00258761
-0.00275469
-0.00293586
-0.00313273
-0.00334681
-0.0035794
-0.00383131
-0.00410286
-0.00439368
-0.00470285
-0.00502898
-0.0053704
-0.00572527
-0.00609178
-0.00646826
-0.00685317
-0.00724515
-0.00764284
-0.0080448
-0.00844938
-0.0088546
-0.00925806
-0.00965708
-0.0100488
-0.0104303
-0.0107991
-0.0111531
-0.0114908
-0.0118115
-0.0121155
-0.0124036
-0.0126771
-0.0129378
-0.0131875
-0.013428
-0.0136613
-0.0138889
-0.0141122
-0.00133804
-0.00135276
-0.00138214
-0.00142718
-0.00148695
-0.00156033
-0.0016462
-0.00174358
-0.00185174
-0.00197031
-0.00209946
-0.00223988
-0.00239278
-0.00255974
-0.00274252
-0.00294288
-0.00316237
-0.00340211
-0.00366264
-0.00394381
-0.00424493
-0.00456473
-0.00490164
-0.00525394
-0.00561998
-0.00599824
-0.00638745
-0.00678652
-0.00719437
-0.00760974
-0.00803098
-0.008456
-0.00888212
-0.0093061
-0.00972431
-0.010133
-0.0105287
-0.0109082
-0.0112694
-0.0116108
-0.0119319
-0.0122333
-0.0125165
-0.0127833
-0.0130361
-0.013277
-0.0135087
-0.0137335
-0.0139536
-0.014171
-0.00116245
-0.00117677
-0.00120511
-0.00124838
-0.00130567
-0.00137592
-0.00145811
-0.00155141
-0.00165533
-0.00176988
-0.00189559
-0.00203359
-0.00218545
-0.00235306
-0.0025384
-0.00274328
-0.00296914
-0.00321679
-0.00348639
-0.0037774
-0.00408877
-0.00441907
-0.00476673
-0.00513026
-0.00550838
-0.00590014
-0.00630476
-0.00672154
-0.00714952
-0.00758728
-0.00803265
-0.00848268
-0.00893368
-0.00938129
-0.00982086
-0.0102478
-0.010658
-0.0110481
-0.0114158
-0.0117599
-0.0120803
-0.0123778
-0.0126543
-0.0129122
-0.0131545
-0.0133841
-0.0136041
-0.0138177
-0.0140279
-0.0142375
-0.000977501
-0.000991252
-0.00101828
-0.00105937
-0.00111365
-0.00118017
-0.00125807
-0.00134678
-0.00144613
-0.00155651
-0.00167892
-0.00181489
-0.00196635
-0.00213546
-0.00232429
-0.00253459
-0.00276753
-0.00302356
-0.00330241
-0.0036032
-0.00392468
-0.00426544
-0.00462416
-0.00499981
-0.00539175
-0.00579961
-0.00622311
-0.00666173
-0.00711437
-0.00757907
-0.00805277
-0.00853135
-0.00900988
-0.00948289
-0.00994478
-0.0103903
-0.0108151
-0.0112156
-0.0115897
-0.0119364
-0.0122556
-0.0125483
-0.0128166
-0.0130634
-0.0132923
-0.0135071
-0.0137117
-0.0139105
-0.0141076
-0.0143073
-0.000783342
-0.000796353
-0.000821788
-0.000860263
-0.000911013
-0.000973238
-0.00104633
-0.00113002
-0.00122456
-0.0013308
-0.00145017
-0.00158462
-0.00173641
-0.00190787
-0.00210104
-0.00231745
-0.00255792
-0.0028225
-0.00311054
-0.00342093
-0.00375238
-0.00410375
-0.00447422
-0.00486343
-0.00527144
-0.00569843
-0.0061444
-0.00660875
-0.00708988
-0.00758495
-0.00808976
-0.00859895
-0.00910637
-0.00960565
-0.0100906
-0.0105555
-0.010996
-0.0114085
-0.0117908
-0.0121418
-0.012461
-0.0127491
-0.0130079
-0.0132407
-0.0134522
-0.0136477
-0.0138325
-0.0140123
-0.0141929
-0.01438
-0.000580143
-0.000592245
-0.000615804
-0.000651252
-0.000697971
-0.000755395
-0.000823229
-0.000901616
-0.000991263
-0.0010935
-0.00121023
-0.00134379
-0.00149669
-0.00167129
-0.00186948
-0.00209247
-0.00234065
-0.00261369
-0.00291065
-0.00323034
-0.00357167
-0.00393397
-0.00431712
-0.00472151
-0.00514782
-0.00559662
-0.00606794
-0.00656078
-0.00707279
-0.00760009
-0.00813736
-0.00867821
-0.00921564
-0.00974267
-0.0102528
-0.0107404
-0.0112006
-0.0116298
-0.012025
-0.0123841
-0.0127058
-0.0129896
-0.0132367
-0.0134509
-0.0136394
-0.0138098
-0.0139694
-0.0141259
-0.0142868
-0.0144591
-0.000368126
-0.000379169
-0.000400573
-0.000432605
-0.000474851
-0.000527057
-0.000589318
-0.000662244
-0.000747052
-0.000845583
-0.000960202
-0.00109357
-0.00124834
-0.00142675
-0.00163044
-0.0018602
-0.002116
-0.00239714
-0.00270253
-0.00303108
-0.00338211
-0.0037556
-0.00415219
-0.00457297
-0.0050191
-0.00549132
-0.00598943
-0.00651191
-0.0070556
-0.00761577
-0.00818636
-0.00876039
-0.00933046
-0.00988936
-0.0104304
-0.0109477
-0.0114356
-0.0118893
-0.0123042
-0.0126764
-0.0130026
-0.0132811
-0.0135119
-0.0136999
-0.0138573
-0.0139952
-0.0141236
-0.0142523
-0.0143906
-0.014546
-0.000147596
-0.000157448
-0.000176439
-0.000204712
-0.000242123
-0.000288801
-0.000345301
-0.000412755
-0.000492932
-0.000588197
-0.000701335
-0.000835237
-0.000992536
-0.00117528
-0.00138469
-0.00162111
-0.00188408
-0.00217263
-0.00248563
-0.00282231
-0.00318254
-0.00356702
-0.00397709
-0.00441445
-0.00488056
-0.00537619
-0.00590089
-0.00645268
-0.00702799
-0.00762174
-0.00822765
-0.00883867
-0.00944739
-0.0100463
-0.0106283
-0.011186
-0.0117124
-0.0122002
-0.0126422
-0.0130315
-0.0133624
-0.0136323
-0.013839
-0.013989
-0.0141045
-0.0142016
-0.014292
-0.014388
-0.0145002
-0.0146362
8.10392e-05
7.24944e-05
5.61461e-05
3.19101e-05
-4.04081e-07
-4.13677e-05
-9.2057e-05
-0.000154179
-0.000230085
-0.000322645
-0.000434979
-0.000570081
-0.000730445
-0.00091777
-0.00113281
-0.00137541
-0.00164468
-0.00193947
-0.0022588
-0.00260233
-0.00297057
-0.0033649
-0.00378729
-0.00423992
-0.00472453
-0.00524197
-0.00579179
-0.00637207
-0.00697941
-0.00760904
-0.00825503
-0.00891053
-0.00956798
-0.0102191
-0.0108552
-0.0114666
-0.0120433
-0.0125745
-0.0130495
-0.0134585
-0.013793
-0.0140503
-0.0142227
-0.014318
-0.0143793
-0.0144277
-0.0144729
-0.0145291
-0.0146093
-0.014721
0.000317263
0.000310132
0.000296612
0.000276609
0.000249546
0.000214352
0.000169373
0.000112285
4.01532e-05
-5.03379e-05
-0.000162532
-0.000299389
-0.000463127
-0.000654985
-0.000875155
-0.00112292
-0.00139706
-0.00169633
-0.00202
-0.00236825
-0.00274223
-0.00314397
-0.00357603
-0.00404106
-0.00454125
-0.0050779
-0.00565113
-0.0062598
-0.0069014
-0.007572
-0.00826623
-0.00897724
-0.00969665
-0.0104145
-0.0111192
-0.0117979
-0.0124363
-0.0130197
-0.013534
-0.0139661
-0.0143045
-0.0145505
-0.0146794
-0.014694
-0.0146872
-0.0146814
-0.0146733
-0.0146787
-0.0147157
-0.0147943
0.000560453
0.000554829
0.000544268
0.000528601
0.000506823
0.000477312
0.000437787
0.000385288
0.000316334
0.000227259
0.000114626
-2.43495e-05
-0.00019147
-0.000387381
-0.000611621
-0.000862936
-0.00113979
-0.00144098
-0.00176611
-0.00211585
-0.00249203
-0.00289733
-0.003335
-0.00380835
-0.00432042
-0.00487362
-0.00546941
-0.00610809
-0.00678853
-0.00750781
-0.00826091
-0.00904033
-0.00983598
-0.0106352
-0.0114232
-0.0121833
-0.0128963
-0.0135433
-0.014107
-0.0145713
-0.0149187
-0.0151667
-0.0152441
-0.0151336
-0.015042
-0.0149811
-0.0149098
-0.0148466
-0.0148217
-0.0148536
0.000809874
0.000805826
0.000798288
0.000786964
0.000770379
0.000746317
0.000711843
0.000663373
0.000596958
0.000508698
0.000395206
0.000254027
8.39368e-05
-0.000114989
-0.000341584
-0.000594071
-0.000870696
-0.00117034
-0.00149296
-0.00183981
-0.00221341
-0.00261725
-0.00305549
-0.00353257
-0.00405298
-0.00462089
-0.00523972
-0.00591163
-0.00663695
-0.00741357
-0.00823637
-0.0090967
-0.00998239
-0.0108779
-0.0117654
-0.0126247
-0.0134315
-0.0141609
-0.0147925
-0.0153061
-0.0156731
-0.0159497
-0.0159638
-0.0156529
-0.0154487
-0.015346
-0.0152022
-0.0150404
-0.0149236
-0.0148894
0.00106466
0.00106223
0.00105771
0.00105063
0.00103902
0.00102004
0.000990089
0.000945029
0.00088054
0.000792623
0.000678099
0.000535025
0.000362916
0.000162672
-6.38187e-05
-0.000314304
-0.000586867
-0.000880537
-0.0011957
-0.00153429
-0.00189964
-0.00229633
-0.00272985
-0.00320633
-0.00373225
-0.00431399
-0.0049571
-0.00566555
-0.00644093
-0.00728178
-0.00818301
-0.00913537
-0.0101252
-0.0111348
-0.0121438
-0.0131294
-0.0140587
-0.0148988
-0.015626
-0.0162104
-0.0166157
-0.0169978
-0.0169328
-0.016184
-0.0158573
-0.0158037
-0.0155712
-0.0152596
-0.0150062
-0.0148807
0.00132382
0.00132299
0.00132142
0.00131839
0.00131142
0.00129703
0.00127102
0.00122876
0.00116568
0.00107785
0.000962475
0.000818316
0.000645769
0.000446612
0.000223438
-2.10767e-05
-0.000284927
-0.000567392
-0.000869428
-0.00119378
-0.00154491
-0.00192879
-0.0023527
-0.00282491
-0.00335412
-0.00394877
-0.00461623
-0.00536193
-0.00618874
-0.00709663
-0.00808225
-0.00913791
-0.01025
-0.0113987
-0.0125605
-0.0137106
-0.0148
-0.0157812
-0.016632
-0.0173517
-0.0175119
-0.0178485
-0.0179853
-0.0158748
-0.0160434
-0.0164785
-0.0160316
-0.0154992
-0.0150518
-0.0148032
0.00158622
0.00158694
0.00158819
0.00158893
0.00158617
0.00157583
0.00155316
0.00151316
0.00145115
0.00136345
0.00124786
0.001104
0.000933252
0.000738277
0.000522332
0.000288435
3.85534e-05
-0.000227012
-0.000509972
-0.00081414
-0.00114536
-0.00151138
-0.00192153
-0.00238617
-0.00291588
-0.0035205
-0.00420845
-0.00498655
-0.00586011
-0.00683315
-0.00790779
-0.00908167
-0.0103426
-0.0116648
-0.0130174
-0.0143801
-0.0156723
-0.0168264
-0.0177724
-0.0178011
-0.0131324
-0.00710551
-0.00757268
-0.0100482
-0.011674
-0.0166101
-0.0165684
-0.0157568
-0.0150304
-0.0146224
0.00185061
0.00185281
0.00185668
0.00186085
0.00186182
0.00185496
0.00183509
0.00179695
0.00173594
0.0016488
0.00153414
0.00139257
0.00122647
0.00103937
0.000835113
0.000616906
0.00038648
0.0001435
-0.000114729
-0.000393337
-0.000699827
-0.00104382
-0.00143646
-0.00188956
-0.0024145
-0.0030215
-0.00371957
-0.00451777
-0.00542681
-0.00645959
-0.00762902
-0.00894132
-0.0103856
-0.0119234
-0.0135059
-0.0151431
-0.0167046
-0.0180562
-0.0190677
-0.0179626
-0.0128017
-0.0158522
-0.0173312
-0.00980561
-0.0111799
-0.0172726
-0.0174621
-0.0160379
-0.0148491
-0.014233
0.00211568
0.00211924
0.00212551
0.00213272
0.00213692
0.00213304
0.00211553
0.00207906
0.00201929
0.00193361
0.00182155
0.00168478
0.00152669
0.00135159
0.00116376
0.000966367
0.000760654
0.000545414
0.000316741
6.79963e-05
-0.000209995
-0.000528381
-0.000899292
-0.00133461
-0.00184505
-0.00244019
-0.00313015
-0.0039286
-0.00485601
-0.00594075
-0.00721355
-0.00869012
-0.0103541
-0.0121461
-0.0139942
-0.0159897
-0.0179566
-0.0196601
-0.0204635
-0.0202166
-0.0193782
-0.0171224
-0.0157035
-0.0159748
-0.0101269
-0.0213828
-0.0191419
-0.016258
-0.0142415
-0.0133062
0.00238005
0.00238485
0.00239326
0.00240313
0.00241011
0.00240877
0.00239337
0.00235864
0.00230074
0.00221786
0.00211053
0.00198152
0.00183514
0.00167635
0.00150959
0.00133773
0.00116128
0.000977934
0.000782415
0.000566585
0.000319987
3.08729e-05
-0.000312377
-0.000719956
-0.00120042
-0.00176249
-0.00241892
-0.0031913
-0.00411396
-0.0052353
-0.00661379
-0.00829339
-0.0102179
-0.0122604
-0.0143953
-0.0169332
-0.0196432
-0.0224382
-0.0242531
-0.0222262
-0.0179686
-0.0191881
-0.0185298
-0.0195347
-0.0123454
-0.0208119
-0.0201799
-0.0154222
-0.0122937
-0.0110335
0.00264231
0.00264822
0.00265854
0.00267071
0.0026801
0.00268101
0.00266767
0.0026351
0.00258008
0.00250173
0.00240165
0.00228361
0.00215274
0.00201438
0.00187285
0.00173044
0.00158669
0.00143805
0.0012779
0.00109695
0.00088433
0.000629147
0.000322153
-4.34398e-05
-0.000473276
-0.000975886
-0.00156859
-0.0022831
-0.00316792
-0.00428562
-0.00571711
-0.00761399
-0.00948708
-0.0118634
-0.0143091
-0.0178484
-0.0215907
-0.0264446
-0.0305759
-0.0275273
-0.0220438
-0.0199641
-0.0222296
-0.0210065
-0.0242969
-0.0251572
-0.0200496
-0.0125823
-0.00829637
-0.00690466
0.0029011
0.00290797
0.00291997
0.00293416
0.00294569
0.00294876
0.00293771
0.00290803
0.00285727
0.00278552
0.00269541
0.00259162
0.00247985
0.00236552
0.00225252
0.00214232
0.00203334
0.00192077
0.00179693
0.00165217
0.00147648
0.00126156
0.00100226
0.000696143
0.000340155
-7.5413e-05
-0.000573205
-0.0011922
-0.00198621
-0.00302312
-0.00438032
-0.00609849
-0.00391233
-0.00446565
-0.00978565
-0.0178752
-0.0227985
-0.0305443
-0.0387559
-0.0219052
-0.00344584
-0.0053643
-0.0204088
-0.0185105
-0.0251886
-0.0260559
-0.017929
-0.00529233
-0.00538912
-0.00651342
0.003155
0.00316275
0.00317625
0.00319228
0.00320584
0.00321119
0.00320295
0.00317721
0.00313236
0.00306945
0.00299208
0.00290562
0.00281602
0.00272846
0.00264617
0.00256961
0.00249603
0.0024196
0.00233218
0.0022248
0.00208987
0.00192324
0.00172481
0.00149619
0.00123532
0.000929861
0.000553046
6.52059e-05
-0.000581151
-0.00144351
-0.00259931
-0.00417663
-0.00382681
-0.0041903
-0.0079653
-0.0135286
-0.0238084
-0.0345624
-0.0513832
0.00829829
0.0448789
0.250084
0.024857
0.0159466
-0.02496
-0.0893748
-0.0718323
0.00706331
0.113323
0.476099
0.00340264
0.00341136
0.00342619
0.00344397
0.00345965
0.00346764
0.00346301
0.00344251
0.00340539
0.00335362
0.00329157
0.00322502
0.00315987
0.00310078
0.00305009
0.00300721
0.00296838
0.00292722
0.00287596
0.00280759
0.00271824
0.00260885
0.00248409
0.00234797
0.00219726
0.00201678
0.00178061
0.00145997
0.00102852
0.000449181
-0.00035746
-0.00153542
-0.00317512
-0.00582492
-0.00887684
-0.0153239
-0.0215905
-0.0384286
-0.0763647
-0.077634
0.108342
0.286246
1.8646
3.30339
5.26358
10.0024
17.7828
23.7609
24.6345
25.484
0.003643
0.00365253
0.0036687
0.00368831
0.00370639
0.00371762
0.00371759
0.00370378
0.00367626
0.00363778
0.00359321
0.00354846
0.00350906
0.00347894
0.0034595
0.00344915
0.00344348
0.00343622
0.00342099
0.00339384
0.00335549
0.00331176
0.00327052
0.00323557
0.00320076
0.00314991
0.00306541
0.00294138
0.00278665
0.00259986
0.00230721
0.00170005
0.000385661
-0.00180896
-0.00558772
-0.00966467
-0.0143938
-0.0271747
-0.121032
-0.37765
0.498436
6.82015
13.1822
25.6475
36.5224
38.8386
36.0061
33.8651
32.4339
32.0046
0.00387501
0.00388535
0.00390292
0.00392452
0.00394543
0.00396069
0.00396643
0.00396082
0.00394466
0.00392126
0.00389574
0.0038738
0.00386038
0.00385859
0.00386891
0.00388904
0.00391445
0.00393971
0.00396074
0.00397747
0.00399516
0.00402332
0.00407042
0.00413732
0.00421451
0.00428863
0.00435765
0.00444635
0.00460883
0.00490412
0.00528815
0.00543795
0.00456965
0.00332186
0.000662426
-0.00680736
0.0152041
0.0387445
-0.074785
0.960819
16.6924
28.4808
41.7179
42.5916
40.909
39.0354
37.2068
35.7354
34.744
34.4172
0.00409781
0.00410899
0.00412808
0.00415202
0.00417634
0.00419653
0.00420923
0.00421326
0.00420994
0.00420293
0.00419726
0.0041982
0.00420999
0.00423488
0.00427262
0.00432066
0.00437492
0.00443157
0.00448947
0.00455269
0.00463003
0.00473272
0.00486709
0.00502921
0.00520728
0.00539483
0.00560819
0.0058954
0.00634884
0.00712123
0.00839456
0.00970592
0.00951212
0.00810182
0.00488325
-0.0164921
0.0572842
0.363579
0.421286
25.0661
41.9618
46.4263
43.9162
42.4904
41.0039
39.5143
38.1686
37.0781
36.3373
36.0364
0.00431073
0.00432282
0.00434363
0.00437033
0.00439877
0.0044248
0.00444561
0.00446049
0.0044711
0.00448113
0.00449531
0.00451831
0.0045536
0.00460271
0.00466506
0.00473829
0.00481938
0.00490667
0.00500222
0.00511347
0.00525183
0.00542758
0.00564297
0.00588921
0.00615457
0.00644131
0.00677939
0.00722513
0.00783617
0.0089118
0.0109932
0.0154098
0.0150554
0.0186837
0.0344242
-0.0568818
-0.291223
0.677115
17.0459
44.0689
46.3922
44.8694
43.457
42.2515
41.0488
39.8972
38.8702
38.0379
37.465
37.202
0.0045133
0.00452639
0.00454918
0.00457912
0.00461236
0.00464514
0.00467504
0.00470166
0.00472676
0.00475382
0.00478706
0.00483044
0.00488674
0.00495711
0.00504104
0.00513686
0.00524307
0.00536037
0.00549385
0.00565353
0.00585144
0.00609522
0.00638227
0.00670108
0.00704347
0.0074219
0.00787143
0.00844821
0.00930342
0.016272
0.0218025
0.0242975
0.0273765
0.0559967
0.125721
0.324728
0.396169
20.1313
39.8314
45.4677
45.9505
44.41
43.0881
42.0469
41.0754
40.1652
39.3614
38.7138
38.2659
38.0489
0.00470523
0.00471944
0.00474447
0.00477812
0.00481682
0.00485711
0.00489682
0.00493567
0.00497526
0.00501863
0.00506938
0.00513077
0.00520512
0.00529354
0.00539603
0.00551205
0.00564183
0.00578838
0.00595917
0.00616557
0.00641871
0.00672281
0.00707142
0.00745307
0.00786589
0.00832932
0.00887649
0.00954074
0.0110312
0.0254437
0.0237454
0.0308005
0.0338275
0.0435749
0.177698
0.543251
4.76833
27.5222
46.6112
44.9709
44.451
43.5547
42.6158
41.785
41.0128
40.298
39.6706
39.1689
38.8226
38.6522
0.0048864
0.00490183
0.00492937
0.00496715
0.00501184
0.00506019
0.0051101
0.00516118
0.00521468
0.00527302
0.00533908
0.00541559
0.00550474
0.00560799
0.00572624
0.00586029
0.00601208
0.0061865
0.00639251
0.00664167
0.00694327
0.00729835
0.00769881
0.00813602
0.00861504
0.00915864
0.00979068
0.010492
0.0121823
0.0269947
0.0232104
0.0287685
0.026783
0.0282799
0.059248
3.36481
17.2701
40.8509
44.0597
43.5294
43.1011
42.6073
42.0142
41.4208
40.8436
40.3025
39.832
39.454
39.1934
39.0657
0.00505685
0.00507359
0.00510383
0.00514607
0.00519713
0.00525379
0.0053139
0.00537673
0.00544299
0.00551437
0.00559308
0.00568153
0.00578212
0.00589711
0.00602852
0.00617854
0.00635052
0.0065505
0.00678798
0.00707387
0.00741551
0.00781206
0.00825659
0.00874711
0.00929833
0.00994005
0.0106978
0.0116016
0.0131704
0.0288705
0.023975
0.0238863
0.0260402
0.0253319
0.0491474
5.15318
31.3803
43.8738
42.6782
42.2122
41.9789
41.7258
41.3859
41.0022
40.6056
40.2238
39.8851
39.613
39.425
39.3339
0.00521674
0.00523484
0.00526792
0.00531478
0.00537231
0.00543724
0.00550712
0.00558076
0.00565811
0.00574013
0.00582851
0.00592562
0.00603444
0.00615827
0.00630042
0.00646426
0.00665398
0.00687603
0.00713965
0.00745468
0.00782696
0.0082552
0.00873537
0.0092722
0.00988654
0.0106084
0.0114577
0.0124427
0.0135952
0.0236742
0.0183964
0.0245862
0.0252201
0.0318193
0.0568476
3.66439
34.4338
40.8806
40.6298
40.7708
40.8831
40.8828
40.7632
40.5675
40.3332
40.0909
39.8662
39.6817
39.5554
39.4943
0.00536634
0.00538582
0.00542174
0.00547319
0.00553705
0.00560981
0.00568864
0.00577168
0.00585807
0.00594803
0.00604294
0.00614545
0.00625945
0.00638949
0.00654008
0.00671532
0.00691957
0.00715893
0.00744195
0.00777768
0.00817134
0.00862256
0.00913084
0.009706
0.010371
0.0111489
0.0120508
0.013097
0.0144044
0.0165618
0.0178487
0.0206533
0.0240145
0.0321992
-0.00813321
5.90722
33.7007
37.2025
38.6306
39.4149
39.8734
40.1095
40.1839
40.1505
40.0574
39.9335
39.8038
39.6909
39.6117
39.5781
0.00550598
0.00552677
0.00556543
0.00562124
0.00569096
0.00577079
0.00585735
0.00594801
0.00604107
0.00613612
0.00623444
0.00633926
0.0064556
0.00658938
0.00674607
0.00692996
0.00714477
0.00739564
0.00769035
0.00803775
0.00844378
0.00891008
0.00943954
0.0100446
0.0107463
0.0115599
0.0124891
0.0135562
0.0148413
0.0163652
0.0178913
0.0201779
0.0245946
0.033473
-0.00632039
12.6024
32.4321
35.5854
37.3497
38.4018
39.0612
39.4633
39.6859
39.7858
39.806
39.7786
39.7228
39.666
39.6289
39.615
0.00563605
0.00565802
0.00569913
0.00575882
0.00583367
0.00591947
0.00601223
0.00610845
0.00620564
0.0063029
0.00640163
0.00650589
0.00662202
0.00675719
0.00691749
0.00710677
0.00732756
0.00758367
0.0078822
0.00823231
0.00864159
0.00911425
0.00965602
0.0102801
0.0110037
0.0118353
0.0127721
0.0138196
0.0150079
0.0163706
0.0178911
0.0198859
0.0235011
0.033386
0.040511
24.0082
33.5904
35.429
36.7825
37.7698
38.4806
38.9734
39.2964
39.492
39.5962
39.6391
39.6443
39.6339
39.6244
39.6244
0.00575694
0.00577989
0.00582302
0.00588588
0.00596483
0.00605522
0.00615235
0.00625191
0.00635065
0.00644735
0.00654371
0.00664483
0.00675841
0.00689268
0.00705388
0.00724487
0.00746659
0.00772158
0.00801673
0.0083621
0.00876671
0.00923657
0.00977879
0.0104063
0.0111328
0.011962
0.0128872
0.0138982
0.0149805
0.0161005
0.0171129
0.0179499
0.0186895
0.00909145
0.436171
31.9925
35.3137
35.7003
36.5426
37.3862
38.0947
38.6369
39.0244
39.2838
39.4452
39.5366
39.582
39.6019
39.6119
39.6212
0.00586902
0.00589266
0.00593726
0.00600239
0.00608417
0.00617751
0.00627701
0.00637759
0.00647539
0.00656894
0.00666046
0.00675615
0.00686503
0.00699613
0.0071553
0.00734395
0.0075612
0.0078086
0.00809365
0.00842817
0.00882252
0.00928281
0.00981487
0.0104298
0.0111399
0.0119491
0.0128529
0.0138419
0.0148906
0.0159462
0.0169188
0.0176762
0.0178576
0.00510216
1.41688
34.9644
35.5856
35.5175
36.2733
37.1172
37.8589
38.4437
38.873
39.1697
39.3626
39.4798
39.5458
39.5812
39.6011
39.6152
-0.0144594
-0.0147261
-0.0149837
-0.0152311
-0.0154671
-0.0156908
-0.0159008
-0.0160962
-0.0162759
-0.016439
-0.0165849
-0.0167132
-0.0168239
-0.0169172
-0.0169936
-0.0170541
-0.0170996
-0.0171316
-0.0171516
-0.017161
-0.0171615
-0.0171544
-0.017141
-0.0171221
-0.0170982
-0.0170695
-0.0170361
-0.0169979
-0.016955
-0.0169072
-0.016855
-0.0167987
-0.0167391
-0.0166774
-0.016615
-0.0165532
-0.0164934
-0.016437
-0.0163849
-0.016338
-0.0162969
-0.0162619
-0.0162329
-0.0162099
-0.0161926
-0.0161801
-0.0161712
-0.0161649
-0.0161611
-0.0161607
-0.0144387
-0.0147038
-0.0149601
-0.0152065
-0.0154421
-0.0156657
-0.0158762
-0.0160726
-0.0162537
-0.0164186
-0.0165666
-0.0166973
-0.0168104
-0.0169061
-0.0169849
-0.0170474
-0.0170947
-0.017128
-0.0171487
-0.0171586
-0.017159
-0.0171514
-0.017137
-0.0171169
-0.0170917
-0.017062
-0.0170281
-0.0169899
-0.0169474
-0.0169007
-0.0168499
-0.0167954
-0.0167378
-0.016678
-0.0166174
-0.0165572
-0.0164987
-0.0164431
-0.0163915
-0.0163448
-0.0163036
-0.016268
-0.0162383
-0.0162142
-0.0161957
-0.0161823
-0.0161723
-0.0161657
-0.0161621
-0.016162
-0.0144072
-0.0146692
-0.0149229
-0.0151673
-0.0154015
-0.0156245
-0.0158353
-0.0160327
-0.0162157
-0.0163833
-0.0165347
-0.0166691
-0.0167863
-0.0168862
-0.0169689
-0.017035
-0.0170854
-0.017121
-0.0171433
-0.0171533
-0.0171531
-0.0171439
-0.0171274
-0.0171048
-0.0170773
-0.0170455
-0.0170102
-0.0169715
-0.0169296
-0.0168846
-0.0168364
-0.0167853
-0.0167315