/*--------------------------------*- C++ -*----------------------------------*\
| =========                 |                                                 |
| \\      /  F ield         | OpenFOAM: The Open Source CFD Toolbox           |
|  \\    /   O peration     | Version:  2.4.0                                 |
|   \\  /    A nd           | Web:      www.OpenFOAM.org                      |
|    \\/     M anipulation  |                                                 |
\*---------------------------------------------------------------------------*/
FoamFile
{
    version     2.0;
    format      ascii;
    class       volVectorField;
    location    "0.017";
    object      U;
}
// * * * * * * * * * * * * * * * * * * * * * * * * * * * * * * * * * * * * * //

dimensions      [0 1 -1 0 0 0 0];

internalField   nonuniform List<vector> 
10000
(
(5.85356e-06 -5.86441e-06 0)
(1.94399e-05 -6.376e-06 0)
(3.12001e-05 -5.87691e-06 0)
(4.12267e-05 -5.49076e-06 0)
(4.96512e-05 -5.22096e-06 0)
(5.71093e-05 -5.02867e-06 0)
(6.39454e-05 -4.87015e-06 0)
(7.03266e-05 -4.74578e-06 0)
(7.63199e-05 -4.63212e-06 0)
(8.1991e-05 -4.51837e-06 0)
(8.7321e-05 -4.41089e-06 0)
(9.23083e-05 -4.26865e-06 0)
(9.70161e-05 -4.09659e-06 0)
(0.000101505 -3.90458e-06 0)
(0.000105891 -3.70121e-06 0)
(0.000110336 -3.50254e-06 0)
(0.000115029 -3.32832e-06 0)
(0.000120175 -3.19695e-06 0)
(0.000125985 -3.12122e-06 0)
(0.000132676 -3.10296e-06 0)
(0.000140427 -3.15046e-06 0)
(0.000149377 -3.23348e-06 0)
(0.000159615 -3.33907e-06 0)
(0.000171141 -3.45431e-06 0)
(0.000183879 -3.56141e-06 0)
(0.000197697 -3.63718e-06 0)
(0.000212446 -3.65439e-06 0)
(0.000227922 -3.6064e-06 0)
(0.000243928 -3.45814e-06 0)
(0.000260297 -3.23437e-06 0)
(0.000276826 -2.94885e-06 0)
(0.000293328 -2.62039e-06 0)
(0.000309626 -2.26824e-06 0)
(0.000325544 -1.90732e-06 0)
(0.000340892 -1.54783e-06 0)
(0.000355448 -1.19484e-06 0)
(0.000368942 -8.47362e-07 0)
(0.00038106 -4.98006e-07 0)
(0.000391442 -1.34136e-07 0)
(0.0003997 2.61225e-07 0)
(0.000405433 7.06016e-07 0)
(0.000408248 1.21234e-06 0)
(0.000407789 1.77967e-06 0)
(0.000403756 2.39256e-06 0)
(0.000395835 3.03222e-06 0)
(0.000383985 3.84978e-06 0)
(0.000368293 4.6849e-06 0)
(0.000348795 5.52661e-06 0)
(0.000325737 6.35348e-06 0)
(0.000299448 7.13444e-06 0)
(6.33933e-06 -1.94651e-05 0)
(2.02791e-05 -2.04794e-05 0)
(2.92924e-05 -1.65116e-05 0)
(3.40223e-05 -1.30465e-05 0)
(3.52637e-05 -1.06257e-05 0)
(3.40841e-05 -8.99011e-06 0)
(3.13087e-05 -7.83832e-06 0)
(2.7562e-05 -7.02826e-06 0)
(2.33691e-05 -6.46115e-06 0)
(1.91851e-05 -6.08148e-06 0)
(1.53767e-05 -5.87415e-06 0)
(1.22688e-05 -5.78238e-06 0)
(1.01703e-05 -5.82131e-06 0)
(9.34687e-06 -6.02155e-06 0)
(1.00414e-05 -6.42104e-06 0)
(1.24808e-05 -7.06522e-06 0)
(1.68715e-05 -7.99656e-06 0)
(2.34026e-05 -9.24413e-06 0)
(3.2262e-05 -1.0817e-05 0)
(4.36342e-05 -1.26853e-05 0)
(5.77074e-05 -1.48139e-05 0)
(7.46551e-05 -1.71212e-05 0)
(9.46104e-05 -1.95304e-05 0)
(0.000117671 -2.19604e-05 0)
(0.000143886 -2.43239e-05 0)
(0.000173254 -2.65307e-05 0)
(0.000205713 -2.84952e-05 0)
(0.000241103 -3.01656e-05 0)
(0.000279146 -3.14542e-05 0)
(0.000319463 -3.23634e-05 0)
(0.000361558 -3.2866e-05 0)
(0.000404801 -3.29445e-05 0)
(0.000448445 -3.25763e-05 0)
(0.000491634 -3.17292e-05 0)
(0.000533404 -3.03601e-05 0)
(0.000572696 -2.84176e-05 0)
(0.000608378 -2.58445e-05 0)
(0.000639284 -2.25846e-05 0)
(0.000664252 -1.85945e-05 0)
(0.00068217 -1.3854e-05 0)
(0.000692012 -8.3748e-06 0)
(0.000692882 -2.20884e-06 0)
(0.000684058 4.52913e-06 0)
(0.000665039 1.16861e-05 0)
(0.00063565 1.90845e-05 0)
(0.00059589 2.66474e-05 0)
(0.000546033 3.40504e-05 0)
(0.000486739 4.10938e-05 0)
(0.000418878 4.75755e-05 0)
(0.000343562 5.33083e-05 0)
(5.92036e-06 -3.08888e-05 0)
(1.63565e-05 -2.91117e-05 0)
(1.97301e-05 -1.95687e-05 0)
(1.7494e-05 -1.13288e-05 0)
(1.088e-05 -5.5783e-06 0)
(1.25034e-06 -1.79194e-06 0)
(-1.03157e-05 6.20862e-07 0)
(-2.29308e-05 2.01377e-06 0)
(-3.58131e-05 2.58797e-06 0)
(-4.82707e-05 2.47926e-06 0)
(-5.97059e-05 1.78779e-06 0)
(-6.95954e-05 6.00367e-07 0)
(-7.7471e-05 -1.05159e-06 0)
(-8.29186e-05 -3.17624e-06 0)
(-8.55665e-05 -5.80288e-06 0)
(-8.50796e-05 -8.97046e-06 0)
(-8.11592e-05 -1.27141e-05 0)
(-7.35378e-05 -1.70517e-05 0)
(-6.19492e-05 -2.19794e-05 0)
(-4.61431e-05 -2.74513e-05 0)
(-2.5888e-05 -3.33923e-05 0)
(-9.67094e-07 -3.97014e-05 0)
(2.87891e-05 -4.62422e-05 0)
(6.34957e-05 -5.28536e-05 0)
(0.000103196 -5.93557e-05 0)
(0.000147846 -6.55589e-05 0)
(0.000197286 -7.12773e-05 0)
(0.00025122 -7.63357e-05 0)
(0.000309141 -8.05572e-05 0)
(0.000370375 -8.37746e-05 0)
(0.000434062 -8.58246e-05 0)
(0.000499103 -8.65489e-05 0)
(0.000564209 -8.57879e-05 0)
(0.000627904 -8.33809e-05 0)
(0.000688545 -7.91692e-05 0)
(0.000744359 -7.30027e-05 0)
(0.000793482 -6.47529e-05 0)
(0.00083402 -5.43288e-05 0)
(0.000864111 -4.16989e-05 0)
(0.000882003 -2.69159e-05 0)
(0.000886125 -1.01302e-05 0)
(0.000875139 8.4199e-06 0)
(0.000848024 2.83595e-05 0)
(0.000804168 4.92285e-05 0)
(0.000743394 7.05025e-05 0)
(0.000665949 9.15321e-05 0)
(0.000572568 0.000111743 0)
(0.000464471 0.000130533 0)
(0.000343284 0.000147349 0)
(0.00021105 0.000161704 0)
(5.49335e-06 -4.04944e-05 0)
(1.3011e-05 -3.39044e-05 0)
(1.18841e-05 -1.75009e-05 0)
(4.28428e-06 -3.72117e-06 0)
(-8.18711e-06 5.93917e-06 0)
(-2.39668e-05 1.22832e-05 0)
(-4.17992e-05 1.61823e-05 0)
(-6.06281e-05 1.81612e-05 0)
(-7.95117e-05 1.85279e-05 0)
(-9.76038e-05 1.75067e-05 0)
(-0.000114158 1.52817e-05 0)
(-0.000128517 1.1997e-05 0)
(-0.000140093 7.73744e-06 0)
(-0.000148354 2.53612e-06 0)
(-0.000152811 -3.60652e-06 0)
(-0.000153014 -1.0704e-05 0)
(-0.000148552 -1.87668e-05 0)
(-0.000139058 -2.77861e-05 0)
(-0.000124178 -3.77011e-05 0)
(-0.000103585 -4.84577e-05 0)
(-7.69947e-05 -5.99295e-05 0)
(-4.41609e-05 -7.19483e-05 0)
(-4.90813e-06 -8.42996e-05 0)
(4.08488e-05 -9.67288e-05 0)
(9.3084e-05 -0.000108949 0)
(0.000151639 -0.000120647 0)
(0.000216197 -0.000131493 0)
(0.000286248 -0.000141139 0)
(0.00036105 -0.000149232 0)
(0.000439622 -0.000155382 0)
(0.000520732 -0.000159223 0)
(0.000602871 -0.000160378 0)
(0.000684279 -0.000158468 0)
(0.000762958 -0.000153121 0)
(0.0008367 -0.000143993 0)
(0.000903126 -0.000130788 0)
(0.000959747 -0.00011329 0)
(0.00100404 -9.13965e-05 0)
(0.00103351 -6.51447e-05 0)
(0.00104583 -3.47454e-05 0)
(0.00103895 -6.08284e-07 0)
(0.00101109 3.66917e-05 0)
(0.000960958 7.63409e-05 0)
(0.000887826 0.000117369 0)
(0.000791558 0.000158678 0)
(0.000672644 0.000199079 0)
(0.000532266 0.000237387 0)
(0.00037226 0.000272451 0)
(0.000195053 0.000303243 0)
(3.5924e-06 0.000328899 0)
(5.21728e-06 -4.86433e-05 0)
(1.07725e-05 -3.56044e-05 0)
(6.42173e-06 -1.1314e-05 0)
(-5.13237e-06 8.61897e-06 0)
(-2.19635e-05 2.25429e-05 0)
(-4.23325e-05 3.16207e-05 0)
(-6.48276e-05 3.70247e-05 0)
(-8.82562e-05 3.94532e-05 0)
(-0.000111555 3.93272e-05 0)
(-0.000133771 3.69682e-05 0)
(-0.000154059 3.26486e-05 0)
(-0.000171671 2.65852e-05 0)
(-0.000185932 1.89256e-05 0)
(-0.000196219 9.75653e-06 0)
(-0.000201951 -8.76803e-07 0)
(-0.000202584 -1.29495e-05 0)
(-0.00019762 -2.64373e-05 0)
(-0.00018658 -4.12964e-05 0)
(-0.000169055 -5.74397e-05 0)
(-0.000144666 -7.47495e-05 0)
(-0.000113048 -9.30387e-05 0)
(-7.39223e-05 -0.000112061 0)
(-2.71095e-05 -0.000131509 0)
(2.74502e-05 -0.000151023 0)
(8.96726e-05 -0.000170185 0)
(0.000159306 -0.000188527 0)
(0.000235905 -0.000205531 0)
(0.000318789 -0.000220631 0)
(0.000407012 -0.000233222 0)
(0.000499344 -0.000242663 0)
(0.000594248 -0.0002483 0)
(0.000689875 -0.00024946 0)
(0.000784077 -0.000245474 0)
(0.000874415 -0.000235697 0)
(0.000958191 -0.000219553 0)
(0.00103249 -0.000196576 0)
(0.00109425 -0.00016646 0)
(0.00114036 -0.000129104 0)
(0.00116774 -8.46551e-05 0)
(0.0011735 -3.35445e-05 0)
(0.00115507 2.34776e-05 0)
(0.00111025 8.52966e-05 0)
(0.00103745 0.000150576 0)
(0.000935769 0.00021767 0)
(0.000805104 0.000284741 0)
(0.000646158 0.000349858 0)
(0.000460516 0.000411087 0)
(0.000250629 0.000466567 0)
(1.9667e-05 0.000514662 0)
(-0.000228479 0.000553988 0)
(5.05308e-06 -5.58298e-05 0)
(9.30922e-06 -3.52075e-05 0)
(2.54012e-06 -2.14467e-06 0)
(-1.21227e-05 2.4518e-05 0)
(-3.2495e-05 4.30352e-05 0)
(-5.66619e-05 5.50015e-05 0)
(-8.30543e-05 6.19307e-05 0)
(-0.000110355 6.47207e-05 0)
(-0.000137406 6.39195e-05 0)
(-0.000163177 5.99503e-05 0)
(-0.000186759 5.31762e-05 0)
(-0.000207346 4.38923e-05 0)
(-0.000224197 3.23142e-05 0)
(-0.000236623 1.85854e-05 0)
(-0.000243971 2.79671e-06 0)
(-0.000245628 -1.499e-05 0)
(-0.000241019 -3.47157e-05 0)
(-0.000229609 -5.62981e-05 0)
(-0.000210898 -7.96229e-05 0)
(-0.000184419 -0.000104485 0)
(-0.000149759 -0.000130624 0)
(-0.000106595 -0.000157709 0)
(-5.47197e-05 -0.000185332 0)
(5.93071e-06 -0.000213008 0)
(7.52577e-05 -0.000240167 0)
(0.000152972 -0.000266149 0)
(0.000238558 -0.000290213 0)
(0.000331234 -0.000311538 0)
(0.000429916 -0.000329229 0)
(0.000533197 -0.000342331 0)
(0.000639325 -0.000349842 0)
(0.000746191 -0.00035073 0)
(0.000851329 -0.000343966 0)
(0.000951919 -0.00032858 0)
(0.00104482 -0.000303717 0)
(0.0011266 -0.000268705 0)
(0.00119365 -0.000223121 0)
(0.00124226 -0.000166859 0)
(0.00126877 -0.000100193 0)
(0.00126967 -2.38319e-05 0)
(0.00124176 6.10452e-05 0)
(0.00118242 0.000152741 0)
(0.00108971 0.000249205 0)
(0.00096249 0.000347977 0)
(0.000800607 0.000446319 0)
(0.000604947 0.000541363 0)
(0.000377468 0.000630244 0)
(0.000121177 0.000710232 0)
(-0.000159952 0.000778894 0)
(-0.000461097 0.000834211 0)
(4.9407e-06 -6.2338e-05 0)
(8.28543e-06 -3.32697e-05 0)
(-4.46381e-07 9.41645e-06 0)
(-1.77751e-05 4.34272e-05 0)
(-4.13057e-05 6.69278e-05 0)
(-6.89403e-05 8.19948e-05 0)
(-9.89507e-05 9.05288e-05 0)
(-0.000129903 9.36591e-05 0)
(-0.00016056 9.20798e-05 0)
(-0.000189839 8.63279e-05 0)
(-0.000216785 7.68655e-05 0)
(-0.000240548 6.4074e-05 0)
(-0.00026034 4.82407e-05 0)
(-0.000275423 2.95637e-05 0)
(-0.000285092 8.17282e-06 0)
(-0.00028868 -1.58402e-05 0)
(-0.000285548 -4.23864e-05 0)
(-0.000275087 -7.13447e-05 0)
(-0.000256711 -0.000102535 0)
(-0.000229871 -0.000135702 0)
(-0.000194084 -0.000170514 0)
(-0.000148965 -0.000206552 0)
(-9.4254e-05 -0.000243302 0)
(-2.98346e-05 -0.000280137 0)
(4.42355e-05 -0.000316311 0)
(0.00012769 -0.000350947 0)
(0.00022001 -0.00038305 0)
(0.000320383 -0.000411505 0)
(0.000427665 -0.000435088 0)
(0.000540355 -0.000452461 0)
(0.000656566 -0.00046221 0)
(0.000773993 -0.000462877 0)
(0.000889899 -0.000453017 0)
(0.00100111 -0.000431274 0)
(0.00110406 -0.00039646 0)
(0.0011948 -0.00034764 0)
(0.00126914 -0.000284232 0)
(0.00132274 -0.000206099 0)
(0.00135123 -0.00011365 0)
(0.00135043 -7.90692e-06 0)
(0.00131648 0.00010946 0)
(0.00124617 0.000236153 0)
(0.00113711 0.000369225 0)
(0.00098785 0.00050525 0)
(0.000798131 0.000640416 0)
(0.000568963 0.000770708 0)
(0.000302654 0.000892114 0)
(2.77301e-06 0.00100083 0)
(-0.000325884 0.00109345 0)
(-0.000677513 0.00116717 0)
(4.85733e-06 -6.83538e-05 0)
(7.52665e-06 -3.00859e-05 0)
(-2.91325e-06 2.30646e-05 0)
(-2.26778e-05 6.50852e-05 0)
(-4.91984e-05 9.40227e-05 0)
(-8.0188e-05 0.00011247 0)
(-0.000113761 0.000122755 0)
(-0.000148375 0.000126271 0)
(-0.000182724 0.000123887 0)
(-0.000215679 0.00011627 0)
(-0.000246252 0.000103998 0)
(-0.000273554 8.75426e-05 0)
(-0.000296765 6.72619e-05 0)
(-0.00031511 4.33999e-05 0)
(-0.000327846 1.61164e-05 0)
(-0.000334253 -1.44718e-05 0)
(-0.000333627 -4.82465e-05 0)
(-0.000325277 -8.50483e-05 0)
(-0.000308529 -0.000124655 0)
(-0.000282743 -0.000166763 0)
(-0.000247353 -0.00021098 0)
(-0.000201888 -0.000256806 0)
(-0.000145988 -0.000303612 0)
(-7.94373e-05 -0.000350618 0)
(-2.19493e-06 -0.000396881 0)
(8.55567e-05 -0.000441294 0)
(0.000183364 -0.00048258 0)
(0.000290457 -0.000519288 0)
(0.000405718 -0.000549815 0)
(0.000527629 -0.000572373 0)
(0.000654223 -0.00058508 0)
(0.000783046 -0.000585992 0)
(0.000911116 -0.000573183 0)
(0.00103492 -0.000544837 0)
(0.00115043 -0.000499349 0)
(0.00125317 -0.000435448 0)
(0.0013383 -0.00035233 0)
(0.00140073 -0.000249785 0)
(0.00143531 -0.000128326 0)
(0.00143703 1.07248e-05 0)
(0.00140125 0.000165193 0)
(0.00132404 0.000332028 0)
(0.00120241 0.000507325 0)
(0.00103449 0.000686501 0)
(0.000819835 0.000864447 0)
(0.000559513 0.00103576 0)
(0.000256173 0.00119502 0)
(-8.60006e-05 0.00133711 0)
(-0.000461339 0.0014574 0)
(-0.000862968 0.00155212 0)
(4.79264e-06 -7.4015e-05 0)
(6.93794e-06 -2.58243e-05 0)
(-5.06309e-06 3.8643e-05 0)
(-2.71476e-05 8.93774e-05 0)
(-5.65996e-05 0.000124263 0)
(-9.09396e-05 0.00014643 0)
(-0.000128129 0.000158669 0)
(-0.000166523 0.000162678 0)
(-0.000204747 0.000159527 0)
(-0.000241631 0.000150045 0)
(-0.000276153 0.000134934 0)
(-0.000307397 0.00011476 0)
(-0.00033452 8.9942e-05 0)
(-0.000356717 6.07621e-05 0)
(-0.000373208 2.7403e-05 0)
(-0.000383218 -9.99851e-06 0)
(-0.000385969 -5.13024e-05 0)
(-0.000380689 -9.63265e-05 0)
(-0.000366609 -0.00014483 0)
(-0.000342986 -0.000196474 0)
(-0.000309149 -0.000250818 0)
(-0.0002645 -0.00030728 0)
(-0.000208536 -0.000365112 0)
(-0.000140887 -0.000423376 0)
(-6.13605e-05 -0.000480932 0)
(3.00115e-05 -0.000536422 0)
(0.000132918 -0.000588258 0)
(0.000246712 -0.000634618 0)
(0.000370383 -0.000673447 0)
(0.000502455 -0.00070249 0)
(0.000640925 -0.000719331 0)
(0.000783222 -0.000721471 0)
(0.000926138 -0.000706419 0)
(0.00106581 -0.000671798 0)
(0.00119774 -0.000615483 0)
(0.00131683 -0.000535766 0)
(0.00141749 -0.000431519 0)
(0.00149378 -0.000302373 0)
(0.0015396 -0.000148868 0)
(0.00154897 2.74093e-05 0)
(0.00151627 0.000223751 0)
(0.00143667 0.000436265 0)
(0.00130638 0.000659947 0)
(0.001123 0.000888843 0)
(0.000885735 0.00111628 0)
(0.000595668 0.00133518 0)
(0.000255783 0.00153838 0)
(-0.000129071 0.00171911 0)
(-0.000552248 0.00187127 0)
(-0.00100562 0.00198987 0)
(4.7526e-06 -7.94321e-05 0)
(6.46849e-06 -2.05787e-05 0)
(-7.03011e-06 5.60827e-05 0)
(-3.14023e-05 0.000116277 0)
(-6.38068e-05 0.000157673 0)
(-0.000101571 0.00018395 0)
(-0.000142508 0.000198397 0)
(-0.000184867 0.000203057 0)
(-0.000227208 0.000199244 0)
(-0.000268319 0.000187967 0)
(-0.00030715 0.000170061 0)
(-0.000342767 0.000146187 0)
(-0.000374307 0.000116816 0)
(-0.000400938 8.2262e-05 0)
(-0.000421836 4.27246e-05 0)
(-0.000436166 -1.65051e-06 0)
(-0.000443076 -5.07225e-05 0)
(-0.000441713 -0.000104313 0)
(-0.000431203 -0.00016217 0)
(-0.000410675 -0.000223948 0)
(-0.000379322 -0.00028916 0)
(-0.000336375 -0.00035715 0)
(-0.000281142 -0.000427057 0)
(-0.000213049 -0.000497794 0)
(-0.000131687 -0.000568018 0)
(-3.68633e-05 -0.000636107 0)
(7.13371e-05 -0.000700136 0)
(0.000192482 -0.000757876 0)
(0.000325715 -0.0008068 0)
(0.000469661 -0.00084414 0)
(0.000622343 -0.000866884 0)
(0.000781103 -0.000871891 0)
(0.000942521 -0.00085599 0)
(0.00110238 -0.000816118 0)
(0.00125564 -0.000749494 0)
(0.00139652 -0.000653819 0)
(0.00151855 -0.000527489 0)
(0.0016148 -0.000369826 0)
(0.00167804 -0.00018129 0)
(0.00170112 3.63141e-05 0)
(0.00167715 0.000279719 0)
(0.00160018 0.000544099 0)
(0.00146541 0.000823169 0)
(0.00126964 0.00110935 0)
(0.00101164 0.00139408 0)
(0.000692376 0.0016682 0)
(0.000315176 0.00192243 0)
(-0.000114364 0.00214794 0)
(-0.000588448 0.00233686 0)
(-0.00109742 0.00248273 0)
(4.73523e-06 -8.46752e-05 0)
(6.06402e-06 -1.43754e-05 0)
(-8.92892e-06 7.5388e-05 0)
(-3.56266e-05 0.000145827 0)
(-7.10753e-05 0.00019434 0)
(-0.000112406 0.000225161 0)
(-0.000157283 0.000242118 0)
(-0.00020385 0.000247644 0)
(-0.0002506 0.000243331 0)
(-0.000296283 0.000230388 0)
(-0.00033983 0.000209793 0)
(-0.000380294 0.000182295 0)
(-0.000416791 0.000148419 0)
(-0.000448459 0.000108503 0)
(-0.00047443 6.27534e-05 0)
(-0.000493808 1.13012e-05 0)
(-0.000505669 -4.57419e-05 0)
(-0.000509064 -0.000108231 0)
(-0.000503001 -0.000175883 0)
(-0.000486463 -0.000248393 0)
(-0.000458457 -0.000325241 0)
(-0.000418005 -0.00040571 0)
(-0.000364181 -0.000488844 0)
(-0.000296147 -0.000573419 0)
(-0.000213203 -0.00065789 0)
(-0.000114849 -0.000740363 0)
(-8.63356e-07 -0.000818573 0)
(0.000128602 -0.000889878 0)
(0.000272926 -0.000951266 0)
(0.0004309 -0.000999381 0)
(0.000600631 -0.00103055 0)
(0.000779426 -0.00104087 0)
(0.000963673 -0.00102636 0)
(0.00114878 -0.000983095 0)
(0.00132914 -0.000907441 0)
(0.00149818 -0.000796291 0)
(0.00164847 -0.000647349 0)
(0.00177185 -0.000459441 0)
(0.00185977 -0.000232817 0)
(0.00190357 3.05623e-05 0)
(0.00189486 0.000326842 0)
(0.0018262 0.000650162 0)
(0.00169148 0.000992737 0)
(0.00148647 0.00134506 0)
(0.00120927 0.00169624 0)
(0.000860629 0.00203461 0)
(0.00044421 0.00234829 0)
(-3.35066e-05 0.00262595 0)
(-0.000563329 0.0028575 0)
(-0.00113374 0.00303472 0)
(4.73597e-06 -8.97926e-05 0)
(5.67191e-06 -7.18757e-06 0)
(-1.08591e-05 9.66241e-05 0)
(-3.99774e-05 0.000178131 0)
(-7.86195e-05 0.000234406 0)
(-0.000123713 0.00027025 0)
(-0.000172772 0.000290068 0)
(-0.000223833 0.000296726 0)
(-0.000275327 0.000292128 0)
(-0.000325976 0.000277703 0)
(-0.000374699 0.000254576 0)
(-0.000420534 0.00022359 0)
(-0.000462577 0.000185324 0)
(-0.000499935 0.00014013 0)
(-0.000531699 8.81977e-05 0)
(-0.000556926 2.96189e-05 0)
(-0.000574616 -3.55446e-05 0)
(-0.000583673 -0.000107193 0)
(-0.000582991 -0.000185094 0)
(-0.000571407 -0.000268939 0)
(-0.000547678 -0.000358212 0)
(-0.000510578 -0.00045217 0)
(-0.000458895 -0.000549793 0)
(-0.000391459 -0.000649734 0)
(-0.000307203 -0.000750264 0)
(-0.000205243 -0.000849241 0)
(-8.49759e-05 -0.000944077 0)
(5.38068e-05 -0.00103172 0)
(0.00021081 -0.00110864 0)
(0.000385092 -0.00117084 0)
(0.000574921 -0.00121386 0)
(0.00077763 -0.00123291 0)
(0.000989457 -0.001223 0)
(0.00120545 -0.00117911 0)
(0.0014194 -0.00109651 0)
(0.00162387 -0.000970982 0)
(0.00181029 -0.000799292 0)
(0.0019691 -0.000579551 0)
(0.00209006 -0.000311637 0)
(0.00216272 2.4234e-06 0)
(0.00217678 0.000358182 0)
(0.00212293 0.000748618 0)
(0.0019934 0.00116419 0)
(0.00178253 0.00159307 0)
(0.0014875 0.00202163 0)
(0.00110873 0.0024351 0)
(0.000650211 0.00281844 0)
(0.000119482 0.00315722 0)
(-0.000472566 0.00343863 0)
(-0.00111215 0.00365231 0)
(4.74924e-06 -9.47993e-05 0)
(5.24536e-06 1.05591e-06 0)
(-1.29008e-05 0.000119903 0)
(-4.45747e-05 0.000213337 0)
(-8.65955e-05 0.000278062 0)
(-0.00013568 0.000319452 0)
(-0.00018919 0.000342528 0)
(-0.00024506 0.000350634 0)
(-0.000301671 0.000346013 0)
(-0.000357721 0.000330337 0)
(-0.000412119 0.000304894 0)
(-0.000463892 0.000270627 0)
(-0.000512118 0.000228161 0)
(-0.000555882 0.000177845 0)
(-0.000594245 0.000119825 0)
(-0.00062621 5.41303e-05 0)
(-0.000650688 -1.92437e-05 0)
(-0.000666472 -0.000100261 0)
(-0.000672273 -0.000188794 0)
(-0.000666725 -0.000284537 0)
(-0.000648354 -0.000387027 0)
(-0.000615638 -0.000495534 0)
(-0.000567015 -0.000609008 0)
(-0.000500913 -0.000726021 0)
(-0.000415831 -0.000844707 0)
(-0.00031043 -0.000962724 0)
(-0.000183641 -0.00107719 0)
(-3.4785e-05 -0.00118465 0)
(0.000136284 -0.001281 0)
(0.000329013 -0.0013615 0)
(0.000541943 -0.00142081 0)
(0.000772525 -0.00145305 0)
(0.00101693 -0.00145198 0)
(0.00126989 -0.00141122 0)
(0.00152458 -0.00132455 0)
(0.00177262 -0.0011864 0)
(0.00200408 -0.000992256 0)
(0.00220774 -0.000739264 0)
(0.00237139 -0.00042671 0)
(0.00248232 -5.65539e-05 0)
(0.00252792 0.000366183 0)
(0.00249646 0.00083319 0)
(0.00237804 0.00133289 0)
(0.00216519 0.00185073 0)
(0.00185384 0.0023698 0)
(0.00144387 0.00287157 0)
(0.000939573 0.00333707 0)
(0.000349749 0.00374805 0)
(-0.000312649 0.00408827 0)
(-0.00103104 0.00434468 0)
(4.76851e-06 -9.96737e-05 0)
(4.74499e-06 1.04558e-05 0)
(-1.51116e-05 0.000145363 0)
(-4.94945e-05 0.000251624 0)
(-9.50905e-05 0.00032553 0)
(-0.000148402 0.000373033 0)
(-0.000206641 0.000399809 0)
(-0.000267652 0.000409717 0)
(-0.000329769 0.000405383 0)
(-0.000391675 0.000388744 0)
(-0.000452271 0.00036127 0)
(-0.000510578 0.000324008 0)
(-0.00056567 0.000277614 0)
(-0.000616627 0.000222412 0)
(-0.000662486 0.000158483 0)
(-0.000702189 8.57748e-05 0)
(-0.000734551 4.19141e-06 0)
(-0.000758236 -8.63296e-05 0)
(-0.000771765 -0.000185761 0)
(-0.000773558 -0.000293894 0)
(-0.000761873 -0.000410368 0)
(-0.000734846 -0.000534511 0)
(-0.000690508 -0.0006653 0)
(-0.000626837 -0.000801295 0)
(-0.000541834 -0.000940573 0)
(-0.000433622 -0.00108065 0)
(-0.000300553 -0.00121837 0)
(-0.000141347 -0.00134985 0)
(4.47326e-05 -0.00147038 0)
(0.000257667 -0.00157439 0)
(0.000496428 -0.00165547 0)
(0.000758734 -0.00170644 0)
(0.00104082 -0.00171951 0)
(0.00133715 -0.0016866 0)
(0.00164031 -0.0015997 0)
(0.00194082 -0.00145146 0)
(0.00222729 -0.00123577 0)
(0.00248652 -0.000948422 0)
(0.00270394 -0.00058784 0)
(0.00286414 -0.000155711 0)
(0.0029516 0.000342432 0)
(0.0029516 0.000896909 0)
(0.00285149 0.00149384 0)
(0.00264149 0.00211548 0)
(0.00231582 0.00274094 0)
(0.00187353 0.00334713 0)
(0.00131916 0.00391016 0)
(0.00066292 0.00440695 0)
(-7.96449e-05 0.00481691 0)
(-0.000888481 0.00512353 0)
(4.78504e-06 -0.000104361 0)
(4.13804e-06 2.1125e-05 0)
(-1.75264e-05 0.00017315 0)
(-5.4769e-05 0.000293176 0)
(-0.000104126 0.000377033 0)
(-0.000161889 0.000431257 0)
(-0.000225129 0.000462211 0)
(-0.000291605 0.000474322 0)
(-0.000359614 0.000470635 0)
(-0.000427826 0.000453392 0)
(-0.000495143 0.000424255 0)
(-0.000560598 0.000384373 0)
(-0.000623282 0.000334416 0)
(-0.000682282 0.000274667 0)
(-0.000736607 0.00020513 0)
(-0.000785142 0.00012565 0)
(-0.000826601 3.6012e-05 0)
(-0.000859521 -6.39855e-05 0)
(-0.000882228 -0.000174467 0)
(-0.000892918 -0.000295423 0)
(-0.000889554 -0.000426606 0)
(-0.000869881 -0.000567481 0)
(-0.000831496 -0.00071715 0)
(-0.000771878 -0.000874259 0)
(-0.000688464 -0.00103691 0)
(-0.000578731 -0.00120252 0)
(-0.000440319 -0.00136771 0)
(-0.000271189 -0.00152814 0)
(-6.98416e-05 -0.00167843 0)
(0.000164435 -0.00181207 0)
(0.000431254 -0.00192141 0)
(0.000728801 -0.00199772 0)
(0.00105352 -0.00203139 0)
(0.00139976 -0.00201227 0)
(0.00175949 -0.00193017 0)
(0.00212215 -0.00177552 0)
(0.00247466 -0.0015401 0)
(0.00280161 -0.00121796 0)
(0.00308564 -0.000806209 0)
(0.00330809 -0.000305941 0)
(0.00344989 0.000276979 0)
(0.00349254 0.000931455 0)
(0.00341988 0.00164102 0)
(0.00321909 0.00238417 0)
(0.00288209 0.00313522 0)
(0.00240667 0.00386547 0)
(0.00179742 0.00454486 0)
(0.00106618 0.0051441 0)
(0.000231726 0.00563699 0)
(-0.000681494 0.00600263 0)
(4.78705e-06 -0.000108782 0)
(3.39765e-06 3.31714e-05 0)
(-2.01579e-05 0.000203395 0)
(-6.0391e-05 0.000338158 0)
(-0.000113666 0.000432775 0)
(-0.000176078 0.00049436 0)
(-0.000244564 0.000530008 0)
(-0.000316803 0.000544766 0)
(-0.000391059 0.000542155 0)
(-0.000465999 0.000524745 0)
(-0.000540546 0.000494407 0)
(-0.000613769 0.000452379 0)
(-0.000684795 0.000399342 0)
(-0.000752722 0.000335526 0)
(-0.000816541 0.000260841 0)
(-0.000875081 0.000175007 0)
(-0.000926972 7.76418e-05 0)
(-0.000970624 -3.16524e-05 0)
(-0.00100422 -0.000153216 0)
(-0.00102568 -0.000287266 0)
(-0.00103262 -0.000433784 0)
(-0.00102243 -0.000592474 0)
(-0.000992234 -0.000762665 0)
(-0.000938972 -0.000943197 0)
(-0.00085942 -0.00113227 0)
(-0.000750292 -0.00132726 0)
(-0.00060837 -0.00152458 0)
(-0.000430684 -0.00171946 0)
(-0.000214759 -0.0019058 0)
(4.10831e-05 -0.00207605 0)
(0.000337361 -0.00222115 0)
(0.000672961 -0.00233063 0)
(0.00104476 -0.00239275 0)
(0.00144718 -0.00239494 0)
(0.00187173 -0.00232433 0)
(0.00230679 -0.00216858 0)
(0.00273751 -0.00191679 0)
(0.00314601 -0.00156059 0)
(0.00351172 -0.00109521 0)
(0.00381207 -0.000520632 0)
(0.00402364 0.000157285 0)
(0.00412314 0.000926028 0)
(0.00408988 0.00176622 0)
(0.003907 0.00265192 0)
(0.00356333 0.00355172 0)
(0.00305469 0.00442996 0)
(0.00238544 0.00524876 0)
(0.00156926 0.00597086 0)
(0.000628977 0.00656278 0)
(-0.000405282 0.00699794 0)
(4.7615e-06 -0.000112846 0)
(2.50521e-06 4.66854e-05 0)
(-2.2999e-05 0.000236199 0)
(-6.63204e-05 0.000386696 0)
(-0.000123632 0.000492907 0)
(-0.000190848 0.000562524 0)
(-0.000264775 0.000603422 0)
(-0.00034302 0.000621333 0)
(-0.000423822 0.000620299 0)
(-0.000505866 0.000603252 0)
(-0.000588123 0.000572273 0)
(-0.000669721 0.000528697 0)
(-0.000749834 0.000473209 0)
(-0.000827585 0.00040598 0)
(-0.000901962 0.000326807 0)
(-0.000971766 0.000235237 0)
(-0.00103557 0.000130674 0)
(-0.00109167 1.24644e-05 0)
(-0.00113808 -0.000120014 0)
(-0.00117247 -0.000267252 0)
(-0.00119217 -0.000429598 0)
(-0.00119415 -0.000607111 0)
(-0.00117508 -0.000799461 0)
(-0.00113127 -0.00100576 0)
(-0.00105875 -0.0012244 0)
(-0.000953366 -0.0014528 0)
(-0.000810885 -0.0016872 0)
(-0.000627224 -0.00192243 0)
(-0.0003987 -0.00215167 0)
(-0.000122404 -0.00236628 0)
(0.000203375 -0.00255574 0)
(0.000578557 -0.00270765 0)
(0.0010008 -0.0028079 0)
(0.00146493 -0.00284102 0)
(0.0019623 -0.00279092 0)
(0.00248042 -0.00264179 0)
(0.00300271 -0.00237923 0)
(0.00350863 -0.0019916 0)
(0.00397397 -0.00147143 0)
(0.00437153 -0.000816832 0)
(0.00467234 -3.3112e-05 0)
(0.00484715 0.00086594 0)
(0.00486916 0.00185764 0)
(0.00471633 0.00291086 0)
(0.00437316 0.00398738 0)
(0.00383254 0.00504294 0)
(0.00309807 0.00602969 0)
(0.00218551 0.00689999 0)
(0.00112276 0.00761087 0)
(-5.25041e-05 0.0081283 0)
(4.69803e-06 -0.000116457 0)
(1.45507e-06 6.17337e-05 0)
(-2.60251e-05 0.000271621 0)
(-7.24901e-05 0.000438864 0)
(-0.000133904 0.000557524 0)
(-0.000206015 0.000635873 0)
(-0.000285507 0.000682622 0)
(-0.000369922 0.000704252 0)
(-0.000457498 0.000705377 0)
(-0.000546961 0.000689315 0)
(-0.000637357 0.000658375 0)
(-0.000727891 0.000613993 0)
(-0.000817803 0.000556864 0)
(-0.000906264 0.000487081 0)
(-0.000992294 0.000404292 0)
(-0.0010747 0.000307835 0)
(-0.00115201 0.000196849 0)
(-0.00122246 7.03759e-05 0)
(-0.00128389 -7.25611e-05 0)
(-0.00133378 -0.000232873 0)
(-0.00136918 -0.00041134 0)
(-0.00138668 -0.000608501 0)
(-0.0013824 -0.000824461 0)
(-0.00135201 -0.00105872 0)
(-0.00129072 -0.00130993 0)
(-0.0011934 -0.00157567 0)
(-0.00105467 -0.00185212 0)
(-0.000869172 -0.00213377 0)
(-0.000631788 -0.00241319 0)
(-0.000338103 -0.00268075 0)
(1.51273e-05 -0.00292444 0)
(0.00042936 -0.00312983 0)
(0.000903561 -0.00328015 0)
(0.00143351 -0.00335661 0)
(0.00201096 -0.00333914 0)
(0.00262296 -0.00320761 0)
(0.00325145 -0.0029431 0)
(0.00387316 -0.00252958 0)
(0.00445982 -0.00195567 0)
(0.0049787 -0.00121654 0)
(0.00539385 -0.000316012 0)
(0.00566819 0.000731211 0)
(0.00576684 0.00189864 0)
(0.00566104 0.00314899 0)
(0.00532936 0.00443627 0)
(0.00476014 0.00570555 0)
(0.00395536 0.00689601 0)
(0.00293312 0.00794636 0)
(0.00172788 0.00880096 0)
(0.000387319 0.00941605 0)
(4.59211e-06 -0.000119513 0)
(2.58063e-07 7.83561e-05 0)
(-2.91959e-05 0.000309677 0)
(-7.88075e-05 0.000494676 0)
(-0.00014432 0.000626652 0)
(-0.000221335 0.00071446 0)
(-0.000306421 0.000767706 0)
(-0.000397077 0.000793685 0)
(-0.000491562 0.000797629 0)
(-0.000588677 0.000783277 0)
(-0.000687559 0.000753187 0)
(-0.000787515 0.000708912 0)
(-0.00088788 0.000651145 0)
(-0.000987914 0.000579882 0)
(-0.00108671 0.000494591 0)
(-0.00118311 0.000394361 0)
(-0.00127566 0.000278026 0)
(-0.00136253 0.000144254 0)
(-0.0014415 -8.37626e-06 0)
(-0.00150985 -0.000181297 0)
(-0.00156441 -0.000375829 0)
(-0.00160138 -0.000593076 0)
(-0.00161635 -0.000833685 0)
(-0.00160428 -0.00109765 0)
(-0.00155956 -0.00138404 0)
(-0.00147599 -0.00169069 0)
(-0.00134701 -0.00201388 0)
(-0.0011658 -0.00234801 0)
(-0.000925681 -0.00268524 0)
(-0.00062041 -0.00301512 0)
(-0.000244736 -0.00332431 0)
(0.000204986 -0.00359628 0)
(0.000729828 -0.00381136 0)
(0.0013274 -0.00394693 0)
(0.00199076 -0.00397822 0)
(0.00270725 -0.00387964 0)
(0.00345783 -0.0036265 0)
(0.00421668 -0.00319692 0)
(0.0049511 -0.00257395 0)
(0.00562181 -0.00174802 0)
(0.00618398 -0.00072 0)
(0.00658994 0.000495288 0)
(0.00679396 0.0018666 0)
(0.00675889 0.00334924 0)
(0.00645525 0.00488893 0)
(0.00586401 0.0064176 0)
(0.00498403 0.00785706 0)
(0.00383612 0.00912764 0)
(0.00246345 0.0101568 0)
(0.000927195 0.0108879 0)
(4.44477e-06 -0.000121907 0)
(-1.05898e-06 9.65629e-05 0)
(-3.24554e-05 0.000350335 0)
(-8.51535e-05 0.000554086 0)
(-0.000154678 0.000700244 0)
(-0.000236502 0.000798258 0)
(-0.0003271 0.000858683 0)
(-0.000423956 0.000889693 0)
(-0.000525377 0.000897196 0)
(-0.00063026 0.000885389 0)
(-0.000737863 0.00085711 0)
(-0.000847624 0.000814032 0)
(-0.000959022 0.000756836 0)
(-0.00107145 0.0006854 0)
(-0.00118411 0.00059899 0)
(-0.00129594 0.000496419 0)
(-0.00140554 0.000376162 0)
(-0.0015111 0.000236442 0)
(-0.00161037 7.53038e-05 0)
(-0.00170055 -0.000109286 0)
(-0.00177821 -0.00031929 0)
(-0.00183922 -0.00055645 0)
(-0.00187865 -0.000822084 0)
(-0.00189079 -0.00111681 0)
(-0.0018692 -0.00144025 0)
(-0.00180666 -0.00179072 0)
(-0.00169538 -0.00216485 0)
(-0.00152713 -0.00255724 0)
(-0.00129345 -0.00295999 0)
(-0.000985971 -0.0033622 0)
(-0.000596823 -0.00374943 0)
(-0.000119347 -0.00410321 0)
(0.000450849 -0.0044008 0)
(0.00111449 -0.00461532 0)
(0.0018672 -0.00471644 0)
(0.00269786 -0.00467193 0)
(0.0035874 -0.00444976 0)
(0.00450799 -0.00402025 0)
(0.00542249 -0.00335849 0)
(0.00628393 -0.00244741 0)
(0.00703599 -0.00128231 0)
(0.00761591 0.000123202 0)
(0.00796347 0.00173142 0)
(0.00803179 0.00348796 0)
(0.00778068 0.00533117 0)
(0.00717861 0.00717715 0)
(0.0062186 0.0089238 0)
(0.00492495 0.010466 0)
(0.00335283 0.0117085 0)
(0.00158167 0.0125777 0)
(4.25977e-06 -0.00012354 0)
(-2.45768e-06 0.00011633 0)
(-3.57304e-05 0.000393508 0)
(-9.13798e-05 0.000616972 0)
(-0.00016473 0.000778167 0)
(-0.000251153 0.000887135 0)
(-0.000347058 0.000955444 0)
(-0.00044994 0.000992218 0)
(-0.000558184 0.0010041 0)
(-0.000670808 0.000995792 0)
(-0.000787226 0.000970435 0)
(-0.000907057 0.000929822 0)
(-0.00102997 0.000874616 0)
(-0.00115553 0.000804572 0)
(-0.00128311 0.000718741 0)
(-0.00141179 0.000615626 0)
(-0.0015403 0.000493291 0)
(-0.00166695 0.000349445 0)
(-0.00178954 0.000181529 0)
(-0.0019052 -1.31516e-05 0)
(-0.00201031 -0.000237286 0)
(-0.00210046 -0.000493371 0)
(-0.0021703 -0.00078351 0)
(-0.00221351 -0.00110909 0)
(-0.0022229 -0.00147047 0)
(-0.00219038 -0.0018667 0)
(-0.00210707 -0.00229508 0)
(-0.00196335 -0.00275083 0)
(-0.00174893 -0.00322645 0)
(-0.00145295 -0.00371108 0)
(-0.00106424 -0.00418974 0)