/*--------------------------------*- C++ -*----------------------------------*\
| =========                 |                                                 |
| \\      /  F ield         | OpenFOAM: The Open Source CFD Toolbox           |
|  \\    /   O peration     | Version:  2.4.0                                 |
|   \\  /    A nd           | Web:      www.OpenFOAM.org                      |
|    \\/     M anipulation  |                                                 |
\*---------------------------------------------------------------------------*/
FoamFile
{
    version     2.0;
    format      ascii;
    class       volScalarField;
    location    "0.106";
    object      p;
}
// * * * * * * * * * * * * * * * * * * * * * * * * * * * * * * * * * * * * * //

dimensions      [1 -1 -2 0 0 0 0];

internalField   nonuniform List<scalar> 
3600
(
95.7968
95.7934
95.7908
95.7987
95.7967
95.8139
95.8107
95.841
95.8354
95.8823
95.8709
95.9351
95.9122
95.9888
95.9514
96.0287
95.978
96.039
95.9643
96.0056
95.8904
95.8405
95.8158
95.9082
96.0362
96.0912
96.1264
96.1188
96.1118
96.0973
92.5316
92.5323
92.5295
92.5368
92.5352
92.5517
92.5497
92.5788
92.5752
92.6206
92.6113
92.6742
92.6529
92.7286
92.6923
92.769
92.7191
92.7796
92.7052
92.7469
92.6311
92.5796
92.5544
92.6476
92.7766
92.8315
92.8668
92.859
92.852
92.8375
89.2619
89.2648
89.2633
89.2718
89.2702
89.2874
89.286
89.3158
89.3129
89.3591
89.3504
89.4141
89.3931
89.4693
89.433
89.5099
89.4604
89.5209
89.4464
89.4894
89.372
89.3176
89.2917
89.3865
89.5175
89.5723
89.6073
89.5993
89.5922
89.5776
85.9945
85.9962
85.9944
86.0025
86.0027
86.021
86.0199
86.0513
86.0491
86.0964
86.089
86.1533
86.1332
86.2097
86.174
86.2513
86.2023
86.2628
86.1881
86.233
86.1133
86.0543
86.0275
86.1248
86.2587
86.3134
86.3481
86.3397
86.3324
86.3177
82.7267
82.7298
82.7252
82.7394
82.7349
82.7558
82.7537
82.7871
82.7847
82.8346
82.8269
82.8939
82.873
82.9516
82.9151
82.9931
82.9448
83.0053
82.9303
82.9778
82.8548
82.7897
82.7618
82.8625
83.0004
83.0549
83.0891
83.0801
83.0726
83.0579
79.4509
79.4541
79.4514
79.4611
79.462
79.4849
79.4825
79.5202
79.5176
79.5705
79.5641
79.6329
79.6128
79.6922
79.6564
79.7354
79.6878
79.7483
79.6728
79.7239
79.5967
79.5237
79.4944
79.5996
79.7425
79.7968
79.8303
79.8206
79.8128
79.798
76.1806
76.1854
76.179
76.199
76.19
76.2199
76.2124
76.2557
76.2505
76.3088
76.3007
76.3747
76.3524
76.4356
76.3978
76.4783
76.4314
76.492
76.4158
76.4715
76.3391
76.2563
76.2254
76.3362
76.4852
76.5392
76.5718
76.5612
76.553
76.5381
72.8982
72.9033
72.8979
72.9174
72.91
72.945
72.9351
72.9866
72.9789
73.0435
73.0364
73.1137
73.0919
73.1766
73.1394
73.2218
73.1756
73.2362
73.1597
73.2207
73.0822
72.9873
72.9546
73.0722
73.2283
73.2819
73.3134
73.3018
73.2933
73.2782
69.6245
69.6319
69.6236
69.6464
69.6341
69.6764
69.6631
69.7237
69.7079
69.7828
69.7715
69.8575
69.8313
69.9213
69.881
69.965
69.9203
69.9809
69.9025
69.9717
69.8259
69.7165
69.6818
69.8075
69.972
70.0251
70.0553
70.0425
70.0335
70.0183
66.3312
66.3413
66.3334
66.3595
66.3447
66.3962
66.378
66.4528
66.4298
66.5162
66.5053
66.5969
66.5707
66.6631
66.6231
66.7101
66.6664
66.7265
66.6478
66.7246
66.5707
66.4439
66.407
66.5422
66.7164
66.7689
66.7975
66.7834
66.7738
66.7584
63.0575
63.0669
63.0584
63.0845
63.0675
63.1222
63.0991
63.1866
63.1601
63.2593
63.2388
63.3444
63.31
63.4091
63.3647
63.4535
63.4121
63.4719
63.3917
63.4798
63.3167
63.1691
63.1298
63.2762
63.4615
63.5131
63.5398
63.5242
63.5141
63.4985
59.7497
59.7634
59.7455
59.7881
59.7661
59.8314
59.8045
59.9043
59.8766
59.9909
59.9689
60.0846
60.0494
60.1521
60.1072
60.2002
60.1607
60.2189
60.1367
60.2376
60.0643
59.8919
59.85
60.0095
60.2073
60.2579
60.2824
60.265
60.2543
60.2385
56.4733
56.4871
56.474
56.5078
56.4813
56.5536
56.5197
56.639
56.6027
56.7449
56.6994
56.8384
56.7885
56.8996
56.8488
56.9436
56.9071
56.9647
56.8809
56.9982
56.8139
56.612
56.5675
56.7422
56.9541
57.0033
57.0252
57.006
56.9946
56.9786
53.1501
53.1703
53.1379
53.1986
53.1605
53.25
53.202
53.3507
53.3061
53.4633
53.431
53.5817
53.5284
53.6439
53.5917
53.6916
53.6598
53.713
53.6257
53.7621
53.5657
53.329
53.2818
53.4741
53.7018
53.7493
53.7682
53.747
53.7349
53.7187
49.8698
49.8893
49.8603
49.9164
49.864
49.9669
49.9089
50.0819
50.0246
50.2226
50.1666
50.3445
50.2676
50.3925
50.3327
50.4346
50.4058
50.459
50.3693
50.5296
50.3201
50.0426
49.9928
50.2053
50.4506
50.496
50.5114
50.4879
50.4751
50.4587
46.5202
46.5509
46.4655
46.594
46.5083
46.6456
46.5622
46.7752
46.7098
46.9323
46.8956
47.0947
47.0082
47.1383
47.0757
47.1838
47.1651
47.2083
47.1134
47.3016
47.0775
46.7526
46.7001
46.9357
47.2006
47.2435
47.2549
47.229
47.2154
47.1988
43.209
43.2583
43.1885
43.3167
43.1904
43.3538
43.2421
43.5085
43.4152
43.7039
43.6338
43.8739
43.7479
43.8872
43.8158
43.926
43.9103
43.9543
43.855
44.0781
43.8382
43.4585
43.4031
43.6654
43.952
43.9918
43.9986
43.97
43.9557
43.9388
40.0169
39.9499
39.6043
39.9965
39.7648
39.9977
39.8427
40.168
40.0741
40.4127
40.3651
40.6296
40.4916
40.6334
40.5583
40.6749
40.6781
40.7035
40.5977
40.8597
40.603
40.1599
40.1014
40.3943
40.705
40.7409
40.7424
40.7111
40.6959
40.6788
38.1287
38.5552
36.425
36.7485
36.4018
36.7115
36.4635
36.9127
36.7628
37.2103
37.1138
37.4198
37.2354
37.3807
37.2968
37.4177
37.4171
37.4494
37.3363
37.6473
37.372
36.8562
36.7944
37.1225
37.4597
37.491
37.4865
37.4521
37.4362
37.4188
33.7067
34.9373
32.799
33.5071
32.8644
33.2534
32.975
33.4584
33.4035
33.917
33.8524
34.2009
33.9823
34.1244
34.0373
34.1635
34.1841
34.1979
34.0753
34.4435
34.1462
33.5468
33.4814
33.8498
34.2164
34.2421
34.2306
34.1931
34.1763
34.1587
30.8733
31.4205
29.9857
30.187
29.2669
30.0533
29.4439
30.2579
30.0584
30.7602
30.6137
31.0155
30.7331
30.8649
30.7729
30.9053
30.9441
30.9443
30.8075
31.2426
30.9262
30.2309
30.1615
30.5764
30.9753
30.9944
30.9749
30.9341
30.9165
30.8987
26.8488
27.4199
25.0906
26.0763
25.4234
26.2724
25.7804
26.652
26.6644
27.4774
27.3828
27.8329
27.4808
27.6013
27.509
27.6486
27.713
27.6925
27.5401
28.0784
27.7137
26.9079
26.8343
27.3023
27.7367
27.7479
27.7194
27.675
27.6567
27.6386
24.0955
24.8404
23.9463
23.1966
21.3646
23.3042
22.1209
23.4343
23.2862
24.3951
24.1699
24.6913
24.2401
24.3279
24.2391
24.3865
24.482
24.4377
24.2613
24.8453
24.5091
23.5766
23.4972
24.0272
24.501
24.5028
24.4639
24.4159
24.3967
24.3785
21.7485
21.3297
17.7264
18.7069
16.968
18.8298
18.4039
19.628
19.8837
21.1555
20.9749
21.5688
20.9866
21.0459
20.9662
21.1237
21.2612
21.1834
20.9831
21.7687
21.315
20.236
20.1527
20.7522
21.2686
21.2591
21.2085
21.1566
21.1368
21.1184
8.15649
19.9966
17.476
17.7301
12.254
16.4564
14.645
16.3173
16.4883
18.2077
17.8155
18.4881
17.7463
17.7424
17.6852
17.8531
18.0449
17.9251
17.6873
18.5845
18.1327
16.8847
16.7926
17.4745
18.0395
18.017
17.9532
17.8972
17.8768
17.8583
5.58251
7.3277
8.55597
6.24211
8.15872
11.4483
11.0158
12.1633
13.0502
15.08
14.6648
15.4494
14.4819
14.4164
14.3918
14.5784
14.8429
14.6651
14.3896
15.4956
14.9621
13.5211
13.4249
14.1992
14.8162
14.7769
14.6976
14.6376
14.6168
14.5981
-25.9067
28.9906
-8.86085
10.1184
5.06209
8.38129
7.54614
8.20121
9.68366
12.4209
11.5622
12.4698
11.2306
11.0624
11.1035
11.2961
11.6454
11.4013
11.0635
12.3556
11.8084
10.1458
10.0369
10.9186
11.5933
11.5375
11.4423
11.3779
11.3567
11.3379
-76.215
-31.3588
20.0874
8.00843
2.42175
3.9173
4.10438
3.35298
6.1358
9.83967
8.50988
9.55918
7.92251
7.6077
7.75682
8.00829
8.47777
8.12912
7.73408
9.29613
8.66787
6.74724
6.63403
7.64612
8.38442
8.30367
8.18647
8.11789
8.09646
8.07765
5.75076
15.6382
6.41873
7.67635
-4.43294
-2.74521
-0.100237
-2.01587
2.8602
8.01425
5.62744
6.65941
4.71265
4.20238
4.48065
4.70298
5.29729
4.85892
4.3635
6.19203
5.55067
3.35328
3.23411
4.363
5.1602
5.06337
4.93065
4.85788
4.83633
4.81747
24.0093
3.87305
-2.93562
2.00301
-10.8814
-9.04192
-1.86498
-6.54568
0.240711
7.07609
3.51272
4.07165
1.7743
0.716065
1.44254
1.81359
2.41092
1.83102
1.40679
3.2933
2.64149
0.528001
0.381764
1.33523
2.01854
1.84686
1.67446
1.59685
1.5757
1.55697
96.0911
96.0879
96.0853
96.0828
96.0806
96.0788
96.0771
96.0757
96.0745
96.0734
96.0725
96.0717
96.0711
96.0705
96.07
96.0696
96.0692
96.0689
96.0685
96.0683
96.0679
96.0677
96.0671
96.0672
96.0662
96.0669
96.0652
96.0667
96.0651
96.0662
92.8312
92.8281
92.8254
92.8229
92.8208
92.8189
92.8173
92.8158
92.8146
92.8136
92.8127
92.8119
92.8112
92.8106
92.8101
92.8097
92.8093
92.809
92.8086
92.8084
92.808
92.8078
92.8072
92.8074
92.8063
92.807
92.8054
92.8068
92.8052
92.8063
89.5713
89.5682
89.5655
89.563
89.5609
89.559
89.5574
89.556
89.5547
89.5537
89.5528
89.552
89.5513
89.5508
89.5503
89.5498
89.5495
89.5491
89.5488
89.5485
89.5481
89.548
89.5474
89.5475
89.5464
89.5472
89.5455
89.547
89.5453
89.5465
86.3114
86.3083
86.3056
86.3031
86.301
86.2992
86.2975
86.2961
86.2949
86.2938
86.2929
86.2922
86.2915
86.2909
86.2904
86.29
86.2896
86.2893
86.2889
86.2887
86.2883
86.2881
86.2875
86.2877
86.2866
86.2873
86.2856
86.2871
86.2854
86.2866
83.0515
83.0484
83.0457
83.0432
83.0411
83.0393
83.0376
83.0362
83.035
83.0339
83.033
83.0323
83.0316
83.031
83.0305
83.0301
83.0297
83.0294
83.0291
83.0288
83.0284
83.0283
83.0276
83.0278
83.0267
83.0275
83.0257
83.0273
83.0255
83.0268
79.7916
79.7885
79.7858
79.7833
79.7812
79.7793
79.7777
79.7763
79.7751
79.774
79.7731
79.7724
79.7717
79.7711
79.7706
79.7702
79.7698
79.7695
79.7692
79.7689
79.7685
79.7684
79.7678
79.7679
79.7668
79.7676
79.7658
79.7674
79.7656
79.7669
76.5317
76.5286
76.5259
76.5234
76.5213
76.5195
76.5178
76.5164
76.5152
76.5142
76.5133
76.5125
76.5119
76.5113
76.5108
76.5104
76.51
76.5097
76.5093
76.5091
76.5087
76.5086
76.5079
76.5081
76.5069
76.5078
76.5059
76.5076
76.5056
76.5072
73.2718
73.2687
73.266
73.2635
73.2614
73.2595
73.2579
73.2565
73.2553
73.2543
73.2534
73.2526
73.252
73.2514
73.2509
73.2505
73.2501
73.2498
73.2495
73.2492
73.2488
73.2487
73.2481
73.2482
73.2471
73.2479
73.2459
73.2478
73.2456
73.2473
70.0118
70.0087
70.006
70.0036
70.0014
69.9996
69.998
69.9966
69.9954
69.9943
69.9935
69.9927
69.992
69.9915
69.991
69.9906
69.9902
69.9899
69.9896
69.9893
69.989
69.9888
69.9882
69.9883
69.9872
69.988
69.9859
69.988
69.9856
69.9875
66.7519
66.7488
66.7461
66.7436
66.7415
66.7397
66.7381
66.7367
66.7355
66.7345
66.7336
66.7328
66.7322
66.7316
66.7312
66.7308
66.7304
66.7301
66.7297
66.7295
66.7291
66.729
66.7284
66.7285
66.7273
66.7282
66.726
66.7282
66.7256
66.7278
63.492
63.4888
63.4861
63.4837
63.4816
63.4797
63.4781
63.4768
63.4756
63.4745
63.4737
63.4729
63.4723
63.4717
63.4713
63.4709
63.4705
63.4702
63.4699
63.4696
63.4693
63.4691
63.4685
63.4687
63.4674
63.4684
63.466
63.4684
63.4655
63.468
60.232
60.2288
60.2261
60.2237
60.2216
60.2198
60.2182
60.2168
60.2156
60.2146
60.2137
60.213
60.2124
60.2118
60.2114
60.211
60.2106
60.2103
60.21
60.2097
60.2094
60.2092
60.2086
60.2088
60.2075
60.2085
60.206
60.2086
60.2054
60.2083
56.9721
56.9689
56.9662
56.9638
56.9617
56.9599
56.9583
56.9569
56.9557
56.9547
56.9539
56.9531
56.9525
56.952
56.9515
56.9511
56.9508
56.9505
56.9501
56.9499
56.9496
56.9494
56.9488
56.949
56.9477
56.9487
56.9461
56.9489
56.9453
56.9486
53.7121
53.7089
53.7062
53.7038
53.7017
53.6999
53.6983
53.6969
53.6958
53.6948
53.6939
53.6932
53.6926
53.6921
53.6916
53.6912
53.6909
53.6906
53.6903
53.69
53.6897
53.6895
53.689
53.6891
53.6878
53.6889
53.686
53.6891
53.6851
53.6889
50.452
50.4489
50.4462
50.4438
50.4417
50.4399
50.4383
50.437
50.4358
50.4348
50.434
50.4333
50.4327
50.4321
50.4317
50.4313
50.431
50.4307
50.4304
50.4301
50.4298
50.4297
50.4291
50.4292
50.4279
50.429
50.426
50.4293
50.4248
50.4293
47.1921
47.1889
47.1862
47.1838
47.1817
47.1799
47.1784
47.1771
47.1759
47.1749
47.1741
47.1734
47.1728
47.1723
47.1718
47.1714
47.1711
47.1708
47.1705
47.1703
47.17
47.1698
47.1693
47.1694
47.1681
47.1692
47.166
47.1696
47.1645
47.1698
43.932
43.9289
43.9262
43.9238
43.9217
43.9199
43.9184
43.9171
43.9159
43.915
43.9142
43.9134
43.9129
43.9123
43.9119
43.9115
43.9112
43.9109
43.9107
43.9104
43.9101
43.91
43.9094
43.9096
43.9082
43.9094
43.9059
43.9099
43.9041
43.9102
40.672
40.6688
40.6661
40.6637
40.6617
40.6599
40.6584
40.6571
40.656
40.655
40.6542
40.6535
40.6529
40.6524
40.652
40.6516
40.6513
40.651
40.6508
40.6505
40.6503
40.6501
40.6496
40.6497
40.6483
40.6495
40.6458
40.6502
40.6436
40.6508
37.412
37.4088
37.4061
37.4038
37.4017
37.4
37.3984
37.3971
37.396
37.3951
37.3943
37.3936
37.393
37.3925
37.3921
37.3918
37.3915
37.3912
37.3909
37.3907
37.3905
37.3903
37.3898
37.3899
37.3885
37.3897
37.3858
37.3905
37.383
37.3915
34.1519
34.1487
34.1461
34.1437
34.1417
34.1399
34.1384
34.1372
34.1361
34.1351
34.1343
34.1337
34.1331
34.1326
34.1322
34.1319
34.1316
34.1313
34.1311
34.1308
34.1306
34.1304
34.13
34.13
34.1286
34.1299
34.1256
34.1308
34.1223
34.1323
30.8918
30.8886
30.886
30.8836
30.8816
30.8799
30.8784
30.8771
30.8761
30.8751
30.8744
30.8737
30.8732
30.8727
30.8723
30.8719
30.8716
30.8714
30.8712
30.8709
30.8708
30.8705
30.8701
30.8701
30.8688
30.87
30.8655
30.8711
30.8614
30.8731
27.6318
27.6286
27.6259
27.6236
27.6216
27.6199
27.6184
27.6172
27.6161
27.6152
27.6145
27.6138
27.6133
27.6128
27.6124
27.6121
27.6118
27.6115
27.6113
27.6111
27.6109
27.6107
27.6104
27.6103
27.609
27.6102
27.6054
27.6115
27.6003
27.6143
24.3716
24.3685
24.3658
24.3635
24.3615
24.3598
24.3584
24.3572
24.3561
24.3552
24.3545
24.3538
24.3533
24.3529
24.3525
24.3522
24.3519
24.3516
24.3514
24.3512
24.3511
24.3508
24.3505
24.3505
24.3491
24.3504
24.3453
24.3518
24.339
24.3553
21.1115
21.1083
21.1057
21.1034
21.1015
21.0998
21.0984
21.0971
21.0961
21.0952
21.0945
21.0939
21.0934
21.0929
21.0926
21.0922
21.092
21.0917
21.0916
21.0913
21.0913
21.091
21.0907
21.0906
21.0893
21.0905
21.0852
21.0921
21.0775
21.0971
17.8514
17.8483
17.8456
17.8434
17.8414
17.8398
17.8384
17.8372
17.8361
17.8353
17.8346
17.834
17.8335
17.833
17.8327
17.8324
17.8321
17.8319
17.8317
17.8315
17.8315
17.8312
17.831
17.8308
17.8296
17.8307
17.8251
17.8324
17.8155
17.8382
14.5912
14.5881
14.5855
14.5832
14.5813
14.5797
14.5783
14.5771
14.5761
14.5753
14.5746
14.574
14.5735
14.5731
14.5727
14.5724
14.5722
14.572
14.5718
14.5716
14.5716
14.5713
14.5712
14.5709
14.5698
14.5709
14.5651
14.5728
14.5534
14.5814
11.3311
11.3279
11.3253
11.3231
11.3212
11.3196
11.3182
11.3171
11.3161
11.3153
11.3146
11.314
11.3136
11.3131
11.3128
11.3125
11.3123
11.3121
11.312
11.3117
11.3118
11.3114
11.3114
11.3111
11.3101
11.311
11.305
11.3129
11.2903
11.3218
8.07088
8.06777
8.0652
8.06298
8.06111
8.05952
8.05819
8.05706
8.05611
8.05532
8.05465
8.0541
8.05363
8.05324
8.05292
8.05264
8.05241
8.0522
8.05212
8.05187
8.052
8.05158
8.05171
8.05128
8.05048
8.05118
8.04521
8.05332
8.02794
8.06811
4.81075
4.80765
4.80509
4.80289
4.80104
4.79947
4.79815
4.79704
4.79611
4.79533
4.79468
4.79414
4.79368
4.7933
4.79299
4.79272
4.7925
4.7923
4.79224
4.79198
4.79215
4.79171
4.79191
4.79141
4.79073
4.7913
4.78517
4.79334
4.7624
4.80577
1.55034
1.54726
1.54474
1.54257
1.54076
1.53923
1.53796
1.53689
1.53599
1.53524
1.53462
1.5341
1.53367
1.53332
1.53302
1.53276
1.53257
1.53237
1.53235
1.53208
1.53239
1.53183
1.53262
1.53156
1.53247
1.53139
1.52851
1.53344
1.50544
1.56146
50.8488
1.34953
-7.57521
-9.96138
0.18915
-0.783795
-0.143171
-0.159801
0.16928
0.792275
0.300965
0.51684
0.197329
0.0883267
0.100579
0.231611
0.296871
0.274785
0.190213
0.447594
0.251722
-0.0558292
-0.0975691
-0.0611274
-0.000946769
-0.025938
-0.0406155
-0.068232
-0.0785041
-0.0883776
143.536
19.7484
-0.361147
-0.0186349
-0.0722159
-0.0930637
-0.0906151
-0.0910898
-0.100962
-0.111414
-0.109531
-0.109998
-0.109297
-0.106144
-0.105938
-0.107602
-0.109355
-0.107432
-0.10892
-0.10999
-0.109403
-0.107012
-0.106696
-0.10697
-0.109151
-0.108394
-0.108381
-0.108016
-0.108043
-0.107876
4.22186
-0.645388
-0.0405436
-0.212822
-0.111619
-0.130738
-0.10585
-0.106802
-0.1136
-0.115633
-0.114897
-0.115735
-0.114808
-0.113011
-0.112329
-0.113604
-0.115433
-0.11411
-0.115194
-0.116042
-0.115918
-0.113647
-0.112084
-0.113687
-0.115566
-0.114857
-0.114913
-0.11455
-0.114583
-0.114414
0.422656
-0.112443
0.0405819
-0.125313
-0.133323
-0.105257
-0.119611
-0.109638
-0.117152
-0.117417
-0.119817
-0.120406
-0.120481
-0.119724
-0.119557
-0.120136
-0.121687
-0.120672
-0.121865
-0.122181
-0.12208
-0.120362
-0.120449
-0.120382
-0.121942
-0.121352
-0.12144
-0.121093
-0.121127
-0.120957
-0.212087
-0.0645115
-0.0722801
-0.0907333
-0.115619
-0.11447
-0.122152
-0.121401
-0.123915
-0.125368
-0.125519
-0.126832
-0.126519
-0.12626
-0.126316
-0.126634
-0.128041
-0.127194
-0.128343
-0.128373
-0.128465
-0.126926
-0.125908
-0.127024
-0.12836
-0.12784
-0.127963
-0.127632
-0.127667
-0.127498
-0.578339
-0.235107
-0.0829593
-0.152168
-0.111811
-0.129923
-0.126135
-0.127171
-0.129254
-0.130459
-0.131599
-0.132286
-0.132783
-0.132659
-0.133198
-0.133146
-0.134475
-0.13369
-0.134857
-0.134623
-0.134864
-0.133579
-0.133846
-0.133659
-0.134813
-0.134342
-0.134485
-0.13417
-0.134207
-0.13404
-0.00907396
-0.0164245
-0.111431
-0.126217
-0.126654
-0.133017
-0.133514
-0.135619
-0.136188
-0.137563
-0.137905
-0.138712
-0.139218
-0.139108
-0.139912
-0.13964
-0.140973
-0.140167
-0.141367
-0.140928
-0.141309
-0.140158
-0.139776
-0.140259
-0.141278
-0.140849
-0.141008
-0.140707
-0.140747
-0.140581
-0.101375
-0.0902334
-0.0816404
-0.146667
-0.141722
-0.143404
-0.142648
-0.142657
-0.143176
-0.143645
-0.144536
-0.14485
-0.145808
-0.145549
-0.146645
-0.146128
-0.147519
-0.14664
-0.147885
-0.14728
-0.147796
-0.146749
-0.146906
-0.146859
-0.147758
-0.147361
-0.14753
-0.147244
-0.147285
-0.147123
-0.0662928
-0.120274
-0.120476
-0.138932
-0.150865
-0.156992
-0.152634
-0.150523
-0.149471
-0.149962
-0.150811
-0.15118
-0.152397
-0.152014
-0.153365
-0.152615
-0.1541
-0.153111
-0.154416
-0.153666
-0.154303
-0.15332
-0.153491
-0.153443
-0.154248
-0.153876
-0.154052
-0.15378
-0.153823
-0.153664
-0.0405139
-0.1433
-0.160059
-0.148879
-0.150084
-0.172529
-0.159448
-0.156919
-0.157253
-0.156693
-0.157974
-0.157605
-0.159253
-0.158513
-0.160113
-0.159111
-0.160709
-0.159586
-0.160959
-0.160082
-0.160828
-0.159885
-0.160177
-0.16002
-0.160747
-0.160395
-0.160575
-0.160316
-0.16036
-0.160206
0.00384087
-0.0480411
-0.0739392
-0.0639755
-0.0575881
-0.00445886
-0.0516229
-0.154902
-0.155894
-0.159582
-0.162915
-0.163732
-0.165855
-0.165047
-0.166871
-0.16562
-0.167336
-0.166065
-0.167511
-0.16652
-0.167362
-0.16644
-0.166823
-0.166588
-0.167252
-0.166916
-0.167098
-0.166851
-0.166897
-0.166747
-0.109945
-0.118721
-0.135078
-0.13761
-0.142179
-0.15068
-0.160039
-0.170587
-0.170572
-0.169085
-0.171855
-0.170722
-0.173126
-0.171664
-0.173685
-0.172144
-0.173976
-0.172552
-0.174069
-0.172977
-0.173903
-0.172989
-0.173448
-0.173148
-0.173762
-0.173439
-0.173621
-0.173386
-0.173433
-0.173288
0.587576
-0.128144
-0.166161
-0.156311
-0.167059
-0.170447
-0.17852
-0.176527
-0.176964
-0.177118
-0.179065
-0.178099
-0.18013
-0.178436
-0.18049
-0.178686
-0.180617
-0.179047
-0.18063
-0.17945
-0.180447
-0.179535
-0.180053
-0.179706
-0.180276
-0.179964
-0.180145
-0.179922
-0.179969
-0.17983
4.49903
0.0427193
-0.202909
-0.151906
-0.163286
-0.171094
-0.169002
-0.183686
-0.184767
-0.185232
-0.186978
-0.1852
-0.187342
-0.185067
-0.187296
-0.18522
-0.187253
-0.185548
-0.187191
-0.185937
-0.186991
-0.186078
-0.186642
-0.186259
-0.186792
-0.186491
-0.186669
-0.186457
-0.186504
-0.186371
3.06981
0.366767
-0.30935
-0.13711
-0.188977
-0.174864
-0.207902
-0.1946
-0.195418
-0.194951
-0.19517
-0.193014
-0.194488
-0.191909
-0.194061
-0.191773
-0.193873
-0.192056
-0.193747
-0.192435
-0.193533
-0.192619
-0.193218
-0.19281
-0.193309
-0.193018
-0.193193
-0.192992
-0.193039
-0.192913
1.33194
1.18946
-0.0597614
-0.0445381
-0.0740116
-0.0154035
0.0464247
-0.252404
-0.218701
-0.211597
-0.204675
-0.200528
-0.201489
-0.198437
-0.200763
-0.198282
-0.200471
-0.19857
-0.200297
-0.198945
-0.200072
-0.199162
-0.199783
-0.199358
-0.199828
-0.199548
-0.199717
-0.199527
-0.199574
-0.199454
1.93977
1.72449
1.23128
-0.113868
0.157458
0.614635
-0.130812
-0.218426
-0.211222
-0.210148
-0.209495
-0.206453
-0.208132
-0.204967
-0.207384
-0.204805
-0.207042
-0.205091
-0.206838
-0.205465
-0.206606
-0.205705
-0.206338
-0.205905
-0.206347
-0.206077
-0.206241
-0.206063
-0.206108
-0.205995
2.30769
0.0605755
0.831617
-0.334046
-0.0132204
-0.114847
-0.20909
-0.238784
-0.217093
-0.21589
-0.215542
-0.21201
-0.21453
-0.211155
-0.213915
-0.211272
-0.213583
-0.211618
-0.213368
-0.211995
-0.213136
-0.212251
-0.212885
-0.21245
-0.212866
-0.212608
-0.212765
-0.212598
-0.212642
-0.212536
2.09149
-0.595646
-0.201174
-0.191468
-0.154884
-0.200413
-0.214428
-0.212757
-0.220443
-0.216765
-0.22132
-0.217401
-0.220798
-0.217556
-0.220374
-0.217793
-0.220096
-0.218157
-0.219887
-0.218534
-0.219659
-0.218799
-0.219425
-0.218996
-0.219385
-0.21914
-0.219289
-0.219134
-0.219176
-0.219078
1.32169
-0.308067
-0.194297
-0.161717
-0.171306
-0.19764
-0.211809
-0.216755
-0.223459
-0.221297
-0.226481
-0.223045
-0.226905
-0.223759
-0.226768
-0.224274
-0.226583
-0.224704
-0.226395
-0.225082
-0.226176
-0.225349
-0.225958
-0.225541
-0.225904
-0.225673
-0.225813
-0.225669
-0.22571
-0.225619
1.19365
-0.221118
-0.225703
-0.182983
-0.218081
-0.205268
-0.223719
-0.220898
-0.229559
-0.227001
-0.231976
-0.229353
-0.232939
-0.230283
-0.233121
-0.230826
-0.233049
-0.231266
-0.232892
-0.231639
-0.232687
-0.231902
-0.232484
-0.232086
-0.232421
-0.232206
-0.232336
-0.232205
-0.232243
-0.23216
0.745132
-0.231772
-0.242632
-0.220653
-0.227251
-0.224628
-0.228445
-0.229539
-0.233938
-0.233326
-0.237495
-0.235441
-0.23899
-0.236637
-0.239462
-0.23736
-0.239502
-0.237841
-0.23938
-0.238206
-0.239193
-0.23846
-0.239006
-0.238633
-0.238938
-0.238741
-0.23886
-0.238741
-0.238776
-0.238701
-0.217452
-0.260657
-0.246485
-0.241096
-0.23695
-0.236408
-0.23562
-0.237812
-0.239803
-0.240132
-0.243315
-0.24203
-0.245118
-0.243233
-0.245808
-0.24395
-0.245946
-0.244432
-0.24586
-0.244781
-0.245692
-0.245019
-0.245523
-0.245179
-0.245454
-0.245275
-0.245383
-0.245277
-0.245309
-0.245242
-0.286175
-0.261722
-0.232349
-0.248411
-0.235788
-0.24366
-0.240206
-0.24418
-0.245877
-0.246423
-0.249391
-0.24834
-0.251349
-0.24974
-0.252178
-0.250555
-0.252387
-0.251038
-0.252333
-0.251363
-0.252186
-0.251583
-0.252036
-0.251726
-0.251969
-0.25181
-0.251906
-0.251813
-0.251841
-0.251783
-0.320656
-0.262321
-0.229014
-0.248288
-0.23639
-0.248498
-0.245397
-0.250118
-0.252163
-0.252821
-0.255723
-0.255044
-0.257703
-0.256403
-0.258578
-0.2572
-0.258829
-0.257659
-0.258801
-0.257954
-0.258675
-0.258149
-0.258546
-0.258275
-0.258484
-0.258347
-0.258429
-0.25835
-0.258374
-0.258324
-0.261616
-0.265747
-0.239883
-0.257119
-0.244718
-0.255694
-0.251017
-0.256468
-0.25845
-0.259266
-0.262165
-0.261658
-0.264142
-0.263104
-0.265012
-0.263878
-0.265274
-0.264295
-0.265264
-0.264552
-0.26516
-0.264718
-0.265052
-0.264824
-0.264997
-0.264883
-0.264951
-0.264886
-0.264906
-0.264865
-0.316348
-0.258273
-0.229029
-0.253024
-0.239797
-0.25442
-0.253397
-0.26069
-0.263977
-0.265733
-0.268695
-0.268496
-0.270678
-0.2699
-0.271481
-0.270591
-0.271723
-0.270945
-0.271724
-0.271155
-0.271642
-0.271289
-0.271555
-0.271373
-0.27151
-0.271419
-0.271473
-0.271422
-0.271438
-0.271406
-0.275187
-0.118758
-0.218395
-0.202039
-0.235043
-0.251999
-0.257213
-0.267523
-0.271029
-0.273291
-0.275593
-0.275684
-0.277329
-0.276799
-0.277986
-0.277337
-0.278178
-0.277608
-0.278182
-0.277765
-0.278121
-0.277862
-0.278057
-0.277923
-0.278023
-0.277957
-0.277996
-0.277959
-0.27797
-0.277948
-0.358952
-0.284493
-0.216384
-0.258031
-0.243193
-0.276331
-0.266863
-0.280084
-0.279159
-0.281756
-0.282897
-0.28304
-0.284091
-0.28376
-0.28452
-0.284109
-0.284638
-0.28428
-0.284639
-0.284377
-0.284598
-0.284436
-0.284557
-0.284474
-0.284535
-0.284494
-0.284518
-0.284495
-0.284502
-0.284488
0.168995
0.0770346
-0.236629
-0.371792
-0.271788
-0.307075
-0.284757
-0.293211
-0.288794
-0.290632
-0.290507
-0.290568
-0.290938
-0.290782
-0.291077
-0.290899
-0.291101
-0.290958
-0.291094
-0.290991
-0.291073
-0.291012
-0.291056
-0.291024
-0.291046
-0.291031
-0.29104
-0.291032
-0.291034
-0.291029
-0.0917823
-0.0933878
-0.0946671
-0.0957777
-0.0967067
-0.0974918
-0.0981521
-0.0987067
-0.0991732
-0.0995636
-0.09989
-0.100163
-0.10039
-0.100581
-0.10074
-0.100877
-0.100992
-0.101094
-0.101196
-0.101261
-0.101433
-0.101397
-0.101489
-0.101486
-0.101564
-0.101319
-0.101719
-0.100047
-0.104469
-0.101376
-0.107904
-0.107862
-0.107871
-0.107844
-0.107854
-0.107841
-0.107852
-0.107851
-0.107862
-0.107866
-0.107876
-0.107884
-0.107893
-0.107901
-0.10791
-0.107919
-0.10793
-0.107942
-0.107954
-0.10797
-0.107987
-0.108008
-0.108032
-0.108062
-0.108099
-0.108149
-0.10819
-0.108312
-0.108181
-0.108461
-0.114444
-0.1144
-0.11441
-0.114382
-0.114392
-0.11438
-0.114391
-0.11439
-0.114401
-0.114405
-0.114416
-0.114423
-0.114432
-0.11444
-0.114449
-0.114459
-0.114469
-0.114481
-0.114493
-0.11451
-0.114524
-0.114548
-0.11457
-0.114602
-0.114643
-0.114703
-0.114803
-0.115029
-0.11555
-0.11703
-0.120984
-0.120941
-0.12095
-0.120924
-0.120933
-0.120921
-0.120932
-0.120931
-0.120942
-0.120946
-0.120957
-0.120964
-0.120973
-0.120981
-0.12099
-0.120999
-0.121009
-0.121021
-0.121034
-0.12105
-0.121065
-0.121087
-0.121109
-0.121139
-0.121173
-0.121223
-0.121262
-0.121391
-0.121285
-0.121768
-0.127524
-0.127481
-0.12749
-0.127464
-0.127473
-0.127462
-0.127473
-0.127471
-0.127482
-0.127487
-0.127497
-0.127504
-0.127513
-0.127521
-0.127529
-0.127539
-0.127549
-0.127561
-0.127573
-0.127589
-0.127604
-0.127626
-0.127647
-0.127677
-0.12771
-0.127766
-0.127814
-0.127993
-0.127949
-0.128684
-0.134064
-0.134022
-0.13403
-0.134005
-0.134014
-0.134003
-0.134014
-0.134012
-0.134023
-0.134027
-0.134037
-0.134044
-0.134053
-0.134061
-0.13407
-0.134079
-0.134089
-0.1341
-0.134112
-0.134128
-0.134142
-0.134163
-0.134183
-0.134211
-0.134238
-0.134286
-0.134301
-0.134429
-0.134262
-0.134647
-0.140604
-0.140564
-0.140572
-0.140548
-0.140556
-0.140545
-0.140556
-0.140554
-0.140565
-0.140569
-0.140579
-0.140585
-0.140594
-0.140602
-0.14061
-0.140619
-0.140629
-0.14064
-0.140652
-0.140667
-0.140681
-0.140701
-0.14072
-0.140747
-0.14077
-0.140819
-0.140826
-0.140962
-0.140791
-0.14119
-0.147145
-0.147106
-0.147113
-0.14709
-0.147098
-0.147088
-0.147097
-0.147096
-0.147106
-0.14711
-0.14712
-0.147126
-0.147134
-0.147142
-0.14715
-0.147159
-0.147168
-0.147179
-0.14719
-0.147205
-0.147219
-0.147238
-0.147255
-0.147281
-0.147298
-0.147342
-0.147333
-0.147442
-0.147263
-0.147525
-0.153686
-0.153648
-0.153655
-0.153633
-0.153641
-0.15363
-0.15364
-0.153638
-0.153648
-0.153652
-0.153661
-0.153667
-0.153675
-0.153682
-0.15369
-0.153699
-0.153708
-0.153718
-0.153729
-0.153743
-0.153756
-0.153775
-0.15379
-0.153815
-0.153828
-0.15387
-0.153853
-0.153954
-0.153783
-0.154009
-0.160227
-0.160191
-0.160198
-0.160176
-0.160184
-0.160173
-0.160182
-0.160181
-0.16019
-0.160194
-0.160203
-0.160209
-0.160216
-0.160223
-0.160231
-0.160239
-0.160247
-0.160258
-0.160268
-0.160282
-0.160294
-0.160311
-0.160325
-0.160348
-0.160357
-0.160395
-0.160371
-0.160453
-0.1603
-0.160463
-0.166768
-0.166733
-0.16674
-0.166719
-0.166726
-0.166716
-0.166725
-0.166723
-0.166732
-0.166736
-0.166744
-0.16675
-0.166757
-0.166764
-0.166771
-0.166779
-0.166787
-0.166797
-0.166806
-0.166819
-0.166831
-0.166847
-0.16686
-0.166881
-0.166887
-0.166922
-0.166895
-0.166965
-0.166827
-0.166958
-0.173309
-0.173276
-0.173282
-0.173262
-0.173269
-0.173259
-0.173267
-0.173266
-0.173274
-0.173277
-0.173285
-0.173291
-0.173298
-0.173304
-0.173311
-0.173318
-0.173326
-0.173335
-0.173345
-0.173357
-0.173368
-0.173383
-0.173394
-0.173414
-0.173417
-0.173448
-0.173419
-0.173477
-0.173356
-0.173455
-0.179851
-0.179818
-0.179825
-0.179805
-0.179812
-0.179802
-0.17981
-0.179808
-0.179817
-0.17982
-0.179827
-0.179832
-0.179839
-0.179845
-0.179851
-0.179858
-0.179865
-0.179875
-0.179883
-0.179895
-0.179905
-0.179919
-0.179929
-0.179947
-0.179948
-0.179976
-0.179946
-0.179994
-0.179889
-0.179966
-0.186391
-0.186361
-0.186367
-0.186348
-0.186354
-0.186345
-0.186352
-0.186351
-0.186359
-0.186361
-0.186368
-0.186373
-0.186379
-0.186385
-0.186391
-0.186398
-0.186405
-0.186413
-0.186421
-0.186432
-0.186441
-0.186455
-0.186463
-0.186479
-0.186479
-0.186504
-0.186475
-0.186514
-0.186423
-0.186481
-0.192932
-0.192903
-0.192908
-0.19289
-0.192896
-0.192888
-0.192895
-0.192893
-0.1929
-0.192903
-0.19291
-0.192914
-0.19292
-0.192925
-0.192931
-0.192937
-0.192944
-0.192952
-0.192959
-0.192969
-0.192978
-0.19299
-0.192997
-0.193012
-0.193011
-0.193032
-0.193005
-0.193036
-0.192958
-0.193003
-0.199473
-0.199445
-0.199451
-0.199433
-0.199439
-0.199431
-0.199437
-0.199436
-0.199443
-0.199445
-0.199451
-0.199455
-0.199461
-0.199466
-0.199471
-0.199477
-0.199483
-0.199491
-0.199497
-0.199507
-0.199515
-0.199526
-0.199532
-0.199546
-0.199543
-0.199562
-0.199537
-0.199562
-0.199495
-0.199529
-0.206013
-0.205987
-0.205992
-0.205976
-0.205981
-0.205973
-0.20598
-0.205978
-0.205984
-0.205986
-0.205992
-0.205996
-0.206001
-0.206006
-0.206011
-0.206016
-0.206022
-0.206029
-0.206035
-0.206044
-0.206051
-0.206061
-0.206067
-0.206079
-0.206076
-0.206092
-0.206069
-0.206089
-0.206032
-0.206058
-0.212553
-0.212529
-0.212534
-0.212518
-0.212523
-0.212516
-0.212522
-0.21252
-0.212526
-0.212528
-0.212533
-0.212537
-0.212542
-0.212546
-0.212551
-0.212556
-0.212561
-0.212567
-0.212573
-0.212581
-0.212587
-0.212597
-0.212601
-0.212612
-0.212609
-0.212622
-0.212602
-0.212617
-0.212569
-0.212589
-0.219094
-0.219071
-0.219075
-0.219061
-0.219066
-0.219059
-0.219064
-0.219063
-0.219068
-0.21907
-0.219075
-0.219078
-0.219083
-0.219087
-0.219091
-0.219096
-0.2191
-0.219106
-0.219112
-0.219119
-0.219124
-0.219133
-0.219137
-0.219146
-0.219143
-0.219154
-0.219136
-0.219148
-0.219107
-0.219122
-0.225633
-0.225612
-0.225617
-0.225604
-0.225608
-0.225601
-0.225606
-0.225605
-0.22561
-0.225612
-0.225616
-0.225619
-0.225623
-0.225627
-0.225631
-0.225635
-0.225639
-0.225645
-0.225649
-0.225656
-0.225661
-0.225669
-0.225672
-0.22568
-0.225677
-0.225686
-0.22567
-0.22568
-0.225645
-0.225656
-0.232173
-0.232154
-0.232158
-0.232146
-0.23215
-0.232144
-0.232148
-0.232147
-0.232152