/*--------------------------------*- C++ -*----------------------------------*\
| =========                 |                                                 |
| \\      /  F ield         | OpenFOAM: The Open Source CFD Toolbox           |
|  \\    /   O peration     | Version:  2.4.0                                 |
|   \\  /    A nd           | Web:      www.OpenFOAM.org                      |
|    \\/     M anipulation  |                                                 |
\*---------------------------------------------------------------------------*/
FoamFile
{
    version     2.0;
    format      ascii;
    class       surfaceScalarField;
    location    "0.004";
    object      phi;
}
// * * * * * * * * * * * * * * * * * * * * * * * * * * * * * * * * * * * * * //

dimensions      [0 3 -1 0 0 0 0];

internalField   nonuniform List<scalar> 
119500
(
6.43704e-13
-6.43704e-13
5.57798e-13
8.59629e-14
4.2042e-13
1.37426e-13
3.07372e-13
1.13096e-13
2.03321e-13
1.04098e-13
9.01719e-14
1.13196e-13
-2.5123e-14
1.15341e-13
-1.38987e-13
1.1391e-13
-2.44148e-13
1.05208e-13
-3.38549e-13
9.44484e-14
-4.25908e-13
8.74077e-14
-5.14137e-13
8.82781e-14
-6.10642e-13
9.65564e-14
-7.1758e-13
1.06991e-13
-8.32184e-13
1.14659e-13
-9.49233e-13
1.17106e-13
-1.06374e-12
1.14564e-13
-1.17432e-12
1.10646e-13
-1.28377e-12
1.09517e-13
-1.39777e-12
1.14065e-13
-1.52188e-12
1.24185e-13
-1.65954e-12
1.37724e-13
-1.81047e-12
1.51009e-13
-1.97015e-12
1.59758e-13
-2.13109e-12
1.61022e-13
-2.28464e-12
1.53631e-13
-2.42352e-12
1.38964e-13
-2.54415e-12
1.20712e-13
-2.64848e-12
1.04421e-13
-2.74487e-12
9.64775e-14
-2.84715e-12
1.02369e-13
-2.97037e-12
1.23306e-13
-3.12497e-12
1.54684e-13
-3.31131e-12
1.86429e-13
-3.51831e-12
2.07083e-13
-3.72943e-12
2.11206e-13
-3.93639e-12
2.07047e-13
-4.1486e-12
2.12289e-13
-4.39025e-12
2.41733e-13
-4.68549e-12
2.95315e-13
-5.04574e-12
3.60323e-13
-5.46747e-12
4.21798e-13
-5.94103e-12
4.73635e-13
-6.4637e-12
5.22733e-13
-7.04714e-12
5.83494e-13
-7.71698e-12
6.69906e-13
-8.50278e-12
7.85847e-13
-9.41681e-12
9.14081e-13
-1.04622e-11
1.04548e-12
-1.16308e-11
1.16857e-12
-1.29069e-11
1.27612e-12
-1.42738e-11
1.36696e-12
-1.57177e-11
1.44394e-12
-1.72291e-11
1.5114e-12
-1.88028e-11
1.57371e-12
-2.04374e-11
1.63459e-12
-2.21347e-11
1.69736e-12
-2.39e-11
1.76524e-12
-2.57414e-11
1.84136e-12
-2.76697e-11
1.9283e-12
-2.96969e-11
2.02721e-12
-3.18341e-11
2.13708e-12
-3.40887e-11
2.2546e-12
-3.64631e-11
2.37432e-12
-3.89529e-11
2.48974e-12
-4.15481e-11
2.59503e-12
-4.42347e-11
2.68656e-12
-4.69988e-11
2.76397e-12
-4.98295e-11
2.83061e-12
-5.27225e-11
2.89288e-12
-5.56813e-11
2.95858e-12
-5.87164e-11
3.03497e-12
-6.18433e-11
3.1267e-12
-6.50777e-11
3.23429e-12
-6.84316e-11
3.35371e-12
-7.19094e-11
3.47767e-12
-7.55073e-11
3.59768e-12
-7.92139e-11
3.70644e-12
-8.30141e-11
3.79997e-12
-8.68931e-11
3.87889e-12
-9.08413e-11
3.94801e-12
-9.48562e-11
4.01471e-12
-9.89427e-11
4.0863e-12
-1.03111e-10
4.16779e-12
-1.07371e-10
4.26033e-12
-1.11732e-10
4.36096e-12
-1.16196e-10
4.46393e-12
-1.20759e-10
4.56206e-12
-1.25407e-10
4.64781e-12
-1.3012e-10
4.71345e-12
-1.34871e-10
4.75033e-12
-1.3962e-10
4.74907e-12
-1.4432e-10
4.70052e-12
-1.48919e-10
4.59854e-12
-1.53361e-10
4.44221e-12
-1.57597e-10
4.23586e-12
-1.61582e-10
3.98445e-12
-1.65413e-10
3.83094e-12
-1.66302e-10
8.89142e-13
4.12228e-12
-1.70424e-10
2.95209e-13
-9.38857e-13
2.41517e-13
1.39752e-13
1.75414e-13
2.03616e-13
9.90033e-14
1.89593e-13
2.10994e-14
1.82088e-13
-5.61023e-14
1.90483e-13
-1.33131e-13
1.92456e-13
-2.09792e-13
1.90657e-13
-2.86577e-13
1.8208e-13
-3.63964e-13
1.71924e-13
-4.40679e-13
1.64214e-13
-5.17225e-13
1.64917e-13
-5.93577e-13
1.73005e-13
-6.69859e-13
1.83373e-13
-7.46982e-13
1.91888e-13
-8.25749e-13
1.95982e-13
-9.06654e-13
1.95583e-13
-9.89864e-13
1.93975e-13
-1.07522e-12
1.95e-13
-1.16318e-12
2.02151e-13
-1.25327e-12
2.14408e-13
-1.34565e-12
2.30238e-13
-1.44126e-12
2.46764e-13
-1.54055e-12
2.59195e-13
-1.64401e-12
2.64631e-13
-1.75305e-12
2.62823e-13
-1.86836e-12
2.54432e-13
-1.99026e-12
2.42768e-13
-2.11945e-12
2.33766e-13
-2.25657e-12
2.33763e-13
-2.40255e-12
2.485e-13
-2.55819e-12
2.79105e-13
-2.72408e-12
3.20737e-13
-2.89933e-12
3.61838e-13
-3.08283e-12
3.90736e-13
-3.27488e-12
4.03407e-13
-3.47839e-12
4.10708e-13
-3.69863e-12
4.3267e-13
-3.93902e-12
4.82264e-13
-4.19815e-12
5.54575e-13
-4.47321e-12
6.35508e-13
-4.76361e-12
7.12322e-13
-5.07174e-12
7.8189e-13
-5.40173e-12
8.5283e-13
-5.75695e-12
9.38814e-13
-6.1368e-12
1.04986e-12
-6.53772e-12
1.18685e-12
-6.96228e-12
1.33872e-12
-7.41112e-12
1.4944e-12
-7.88612e-12
1.64364e-12
-8.38977e-12
1.77982e-12
-8.92498e-12
1.90221e-12
-9.49436e-12
2.01336e-12
-1.01e-11
2.11706e-12
-1.07437e-11
2.21744e-12
-1.14272e-11
2.31803e-12
-1.2152e-11
2.42215e-12
-1.29199e-11
2.53312e-12
-1.37327e-11
2.65415e-12
-1.45924e-11
2.78784e-12
-1.55007e-11
2.93549e-12
-1.646e-11
3.09621e-12
-1.74724e-11
3.26687e-12
-1.85406e-11
3.44241e-12
-1.96678e-11
3.61678e-12
-2.08574e-11
3.78451e-12
-2.21133e-11
3.94217e-12
-2.3439e-11
4.08951e-12
-2.48384e-11
4.22979e-12
-2.63151e-11
4.36928e-12
-2.78724e-11
4.51563e-12
-2.95137e-11
4.67592e-12
-3.12419e-11
4.85463e-12
-3.30601e-11
5.05214e-12
-3.49712e-11
5.26451e-12
-3.69784e-11
5.48461e-12
-3.90852e-11
5.70414e-12
-4.1295e-11
5.91584e-12
-4.36108e-11
6.11548e-12
-4.60354e-11
6.30321e-12
-4.85708e-11
6.48302e-12
-5.12175e-11
6.66114e-12
-5.3975e-11
6.84349e-12
-5.68411e-11
7.0336e-12
-5.98122e-11
7.23112e-12
-6.28832e-11
7.43167e-12
-6.60473e-11
7.62781e-12
-6.92956e-11
7.81013e-12
-7.2616e-11
7.968e-12
-7.59926e-11
8.08981e-12
-7.94052e-11
8.16279e-12
-8.28294e-11
8.17317e-12
-8.62364e-11
8.1074e-12
-8.9592e-11
7.95401e-12
-9.28543e-11
7.7044e-12
-9.59693e-11
7.35087e-12
-9.88674e-11
6.88245e-12
-1.01345e-10
6.30838e-12
-1.04365e-10
3.9092e-12
5.15643e-12
-1.05399e-10
3.18247e-13
-1.25706e-12
2.34861e-13
2.23224e-13
1.56772e-13
2.81781e-13
7.91703e-14
2.67271e-13
-2.15301e-16
2.61548e-13
-7.25736e-14
2.62915e-13
-1.44148e-13
2.64105e-13
-2.1527e-13
2.61853e-13
-2.88438e-13
2.55323e-13
-3.63911e-13
2.47474e-13
-4.39794e-13
2.40176e-13
-5.14888e-13
2.40092e-13
-5.87748e-13
2.45949e-13
-6.58695e-13
2.54406e-13
-7.2961e-13
2.62893e-13
-8.02188e-13
2.68655e-13
-8.77949e-13
2.71442e-13
-9.57297e-13
2.73425e-13
-1.03961e-12
2.77421e-13
-1.12416e-12
2.8681e-13
-1.20973e-12
3.00088e-13
-1.2962e-12
3.16827e-13
-1.38465e-12
3.35344e-13
-1.47622e-12
3.50886e-13
-1.57268e-12
3.61222e-13
-1.67655e-12
3.66827e-13
-1.7894e-12
3.67411e-13
-1.91201e-12
3.65518e-13
-2.04483e-12
3.66721e-13
-2.1871e-12
3.76168e-13
-2.33651e-12
3.98053e-13
-2.49171e-12
4.34442e-13
-2.65338e-12
4.82544e-13
-2.82246e-12
5.31061e-13
-3.00076e-12
5.69166e-13
-3.19118e-12
5.93961e-13
-3.39619e-12
6.15841e-13
-3.61704e-12
6.5365e-13
-3.85308e-12
7.1843e-13
-4.10166e-12
8.03274e-13
-4.36114e-12
8.95096e-13
-4.63254e-12
9.83838e-13
-4.91906e-12
1.06851e-12
-5.22364e-12
1.15751e-12
-5.54686e-12
1.26213e-12
-5.88731e-12
1.39039e-12
-6.24159e-12
1.54122e-12
-6.60852e-12
1.70573e-12
-6.98892e-12
1.87486e-12
-7.38575e-12
2.04053e-12
-7.8033e-12
2.19742e-12
-8.24592e-12
2.34487e-12
-8.7174e-12
2.48487e-12
-9.2209e-12
2.62057e-12
-9.75884e-12
2.7554e-12
-1.03333e-11
2.89245e-12
-1.09459e-11
3.03473e-12
-1.15981e-11
3.18531e-12
-1.22911e-11
3.34717e-12
-1.30261e-11
3.52277e-12
-1.38041e-11
3.71337e-12
-1.46264e-11
3.91843e-12
-1.5495e-11
4.13543e-12
-1.64129e-11
4.36017e-12
-1.73839e-11
4.58766e-12
-1.84128e-11
4.81325e-12
-1.95048e-11
5.03398e-12
-2.06651e-11
5.24961e-12
-2.18985e-11
5.46301e-12
-2.32091e-11
5.67973e-12
-2.46004e-11
5.90669e-12
-2.60749e-11
6.15019e-12
-2.76347e-11
6.41417e-12
-2.92818e-11
6.69894e-12
-3.10186e-11
7.00105e-12
-3.28485e-11
7.31427e-12
-3.47757e-11
7.63109e-12
-3.6805e-11
7.94481e-12
-3.89411e-11
8.25132e-12
-4.11883e-11
8.55015e-12
-4.35496e-11
8.84402e-12
-4.6026e-11
9.13727e-12
-4.86165e-11
9.43375e-12
-5.13179e-11
9.7348e-12
-5.41252e-11
1.00382e-11
-5.70321e-11
1.03384e-11
-6.00312e-11
1.06267e-11
-6.31133e-11
1.0892e-11
-6.62669e-11
1.11215e-11
-6.94773e-11
1.13001e-11
-7.27262e-11
1.14116e-11
-7.59916e-11
1.14384e-11
-7.92473e-11
1.1363e-11
-8.2462e-11
1.11686e-11
-8.55967e-11
1.08391e-11
-8.85986e-11
1.03527e-11
-9.13971e-11
9.68092e-12
-9.38697e-11
8.78106e-12
-9.67605e-11
6.80002e-12
6.22208e-12
-9.78262e-11
3.044e-13
-1.56141e-12
2.28784e-13
2.98923e-13
1.50663e-13
3.59976e-13
7.60533e-14
3.41953e-13
-9.45822e-16
3.38619e-13
-7.33584e-14
3.35399e-13
-1.46205e-13
3.37023e-13
-2.18288e-13
3.34007e-13
-2.91118e-13
3.28225e-13
-3.64495e-13
3.20925e-13
-4.37883e-13
3.13637e-13
-5.11247e-13
3.13533e-13
-5.83756e-13
3.18537e-13
-6.55621e-13
3.26353e-13
-7.28094e-13
3.35451e-13
-8.01739e-13
3.42388e-13
-8.77673e-13
3.47468e-13
-9.56216e-13
3.52063e-13
-1.03708e-12
3.58389e-13
-1.12011e-12
3.69935e-13
-1.20463e-12
3.84724e-13
-1.29075e-12
4.03051e-13
-1.37925e-12
4.23967e-13
-1.47067e-12
4.42421e-13
-1.56665e-12
4.57321e-13
-1.66975e-12
4.70047e-13
-1.78187e-12
4.79657e-13
-1.90389e-12
4.87671e-13
-2.03626e-12
4.99215e-13
-2.17797e-12
5.18006e-13
-2.32623e-12
5.46447e-13
-2.47925e-12
5.87597e-13
-2.63817e-12
6.41592e-13
-2.80519e-12
6.98209e-13
-2.98231e-12
7.46414e-13
-3.17224e-12
7.84015e-13
-3.37634e-12
8.20068e-13
-3.595e-12
8.72426e-13
-3.828e-12
9.51553e-13
-4.074e-12
1.04939e-12
-4.33113e-12
1.15234e-12
-4.60002e-12
1.25283e-12
-4.88322e-12
1.35182e-12
-5.18333e-12
1.45771e-12
-5.50138e-12
1.58027e-12
-5.83614e-12
1.72523e-12
-6.18561e-12
1.89078e-12
-6.54889e-12
2.06908e-12
-6.9267e-12
2.25274e-12
-7.32148e-12
2.43537e-12
-7.73683e-12
2.61282e-12
-8.1766e-12
2.7847e-12
-8.64439e-12
2.95269e-12
-9.14318e-12
3.11939e-12
-9.67545e-12
3.28769e-12
-1.02432e-11
3.46025e-12
-1.08483e-11
3.63975e-12
-1.14921e-11
3.82912e-12
-1.21761e-11
4.03118e-12
-1.29017e-11
4.24829e-12
-1.36702e-11
4.48185e-12
-1.44834e-11
4.73159e-12
-1.53436e-11
4.99552e-12
-1.62537e-11
5.27012e-12
-1.72173e-11
5.55116e-12
-1.82388e-11
5.83465e-12
-1.93229e-11
6.11798e-12
-2.04745e-11
6.40101e-12
-2.16981e-11
6.68642e-12
-2.29979e-11
6.97933e-12
-2.43775e-11
7.28608e-12
-2.58399e-11
7.61241e-12
-2.73877e-11
7.96179e-12
-2.90234e-11
8.33443e-12
-3.07498e-11
8.72719e-12
-3.25701e-11
9.13436e-12
-3.44883e-11
9.54902e-12
-3.65086e-11
9.96489e-12
-3.86356e-11
1.0378e-11
-4.08733e-11
1.07877e-11
-4.32249e-11
1.11954e-11
-4.56919e-11
1.1604e-11
-4.82737e-11
1.20153e-11
-5.09676e-11
1.24285e-11
-5.3769e-11
1.28395e-11
-5.66722e-11
1.32413e-11
-5.96698e-11
1.36241e-11
-6.27528e-11
1.39749e-11
-6.59098e-11
1.42784e-11
-6.91268e-11
1.45169e-11
-7.23862e-11
1.46709e-11
-7.56669e-11
1.4719e-11
-7.89432e-11
1.46392e-11
-8.21841e-11
1.44094e-11
-8.53497e-11
1.40047e-11
-8.83886e-11
1.33915e-11
-9.12416e-11
1.25339e-11
-9.38388e-11
1.13783e-11
-9.65456e-11
9.50687e-12
7.53254e-12
-9.78561e-11
2.96944e-13
-1.85831e-12
2.2411e-13
3.71839e-13
1.49668e-13
4.34491e-13
7.49112e-14
4.16782e-13
-1.49161e-15
4.15093e-13
-7.4374e-14
4.08352e-13
-1.47153e-13
4.09872e-13
-2.19333e-13
4.06257e-13
-2.9192e-13
4.00883e-13
-3.64379e-13
3.93456e-13
-4.37353e-13
3.86684e-13
-5.10181e-13
3.86436e-13
-5.82411e-13
3.90843e-13
-6.54424e-13
3.98446e-13
-7.27329e-13
4.08439e-13
-8.01096e-13
4.1624e-13
-8.76946e-13
4.23408e-13
-9.55097e-13
4.30305e-13
-1.03526e-12
4.3865e-13
-1.11739e-12
4.52167e-13
-1.201e-12
4.68434e-13
-1.28635e-12
4.88504e-13
-1.37432e-12
5.12054e-13
-1.46531e-12
5.33526e-13
-1.56085e-12
5.52978e-13
-1.66358e-12
5.72896e-13
-1.77558e-12
5.91777e-13
-1.89805e-12
6.10264e-13
-2.03131e-12
6.326e-13
-2.17363e-12
6.6045e-13
-2.32135e-12
6.94299e-13
-2.47187e-12
7.38244e-13
-2.62622e-12
7.96069e-13
-2.78952e-12
8.61641e-13
-2.96549e-12
9.22509e-13
-3.15634e-12
9.74994e-13
-3.36196e-12
1.02581e-12
-3.58047e-12
1.09106e-12
-3.81058e-12
1.18178e-12
-4.05212e-12
1.29105e-12
-4.30512e-12
1.40545e-12
-4.57099e-12
1.5188e-12
-4.85198e-12
1.63292e-12
-5.14977e-12
1.75561e-12
-5.4649e-12
1.89549e-12
-5.7963e-12
2.05673e-12
-6.14268e-12
2.23724e-12
-6.50392e-12
2.43041e-12
-6.88091e-12
2.6298e-12
-7.27571e-12
2.83024e-12
-7.69155e-12
3.02872e-12
-8.13178e-12
3.22498e-12
-8.59961e-12
3.42056e-12
-9.09788e-12
3.6177e-12
-9.62893e-12
3.81877e-12
-1.01948e-11
4.02613e-12
-1.07973e-11
4.24227e-12
-1.14381e-11
4.46988e-12
-1.21187e-11
4.71176e-12
-1.28407e-11
4.97028e-12
-1.36058e-11
5.24692e-12
-1.4416e-11
5.5417e-12
-1.52736e-11
5.85307e-12
-1.61816e-11
6.17808e-12
-1.71437e-11
6.51309e-12
-1.81637e-11
6.85459e-12
-1.92461e-11
7.2003e-12
-2.03955e-11
7.55022e-12
-2.16163e-11
7.90704e-12
-2.29127e-11
8.27558e-12
-2.42885e-11
8.6617e-12
-2.57469e-11
9.07064e-12
-2.72908e-11
9.5055e-12
-2.89229e-11
9.96637e-12
-3.06462e-11
1.04503e-11
-3.24639e-11
1.09518e-11
-3.43796e-11
1.14646e-11
-3.63978e-11
1.19828e-11
-3.85228e-11
1.25028e-11
-4.07588e-11
1.30235e-11
-4.31092e-11
1.35456e-11
-4.55758e-11
1.40704e-11
-4.81583e-11
1.45976e-11
-5.08545e-11
1.51245e-11
-5.36604e-11
1.56452e-11
-5.65704e-11
1.61512e-11
-5.95773e-11
1.66308e-11
-6.26722e-11
1.70696e-11
-6.58442e-11
1.74502e-11
-6.90799e-11
1.77525e-11
-7.23631e-11
1.79539e-11
-7.56737e-11
1.80296e-11
-7.8987e-11
1.79524e-11
-8.22715e-11
1.7694e-11
-8.54872e-11
1.72203e-11
-8.8588e-11
1.64923e-11
-9.15201e-11
1.5466e-11
-9.42264e-11
1.40846e-11
-9.68629e-11
1.21433e-11
9.06286e-12
-9.83931e-11
2.83748e-13
-2.14201e-12
2.174e-13
4.3827e-13
1.47489e-13
5.04477e-13
7.28347e-14
4.91509e-13
-2.61151e-15
4.90611e-13
-7.60043e-14
4.81816e-13
-1.48708e-13
4.82646e-13
-2.20941e-13
4.78561e-13
-2.93145e-13
4.73158e-13
-3.64776e-13
4.65158e-13
-4.37073e-13
4.59054e-13
-5.09264e-13
4.58701e-13
-5.8119e-13
4.62845e-13
-6.53252e-13
4.70586e-13
-7.26175e-13
4.81443e-13
-7.99582e-13
4.8973e-13
-8.74831e-13
4.98744e-13
-9.5202e-13
5.07585e-13
-1.03097e-12
5.17696e-13
-1.11201e-12
5.33302e-13
-1.19491e-12
5.51432e-13
-1.28018e-12
5.73875e-13
-1.36882e-12
6.0081e-13
-1.46074e-12
6.25549e-13
-1.55671e-12
6.49062e-13
-1.65915e-12
6.75455e-13
-1.77026e-12
7.03003e-13
-1.8915e-12
7.31633e-13
-2.0236e-12
7.64821e-13
-2.16476e-12
8.01735e-13
-2.31116e-12
8.40824e-13
-2.45995e-12
8.87161e-13
-2.612e-12
9.48249e-13
-2.77326e-12
1.02303e-12
-2.9484e-12
1.09777e-12
-3.139e-12
1.16573e-12
-3.34446e-12
1.23138e-12
-3.5619e-12
1.30862e-12
-3.78908e-12
1.40908e-12
-4.02664e-12
1.52874e-12
-4.27598e-12
1.65491e-12
-4.53895e-12
1.78188e-12
-4.81763e-12
1.91171e-12
-5.11295e-12
2.05103e-12
-5.42503e-12
2.20766e-12
-5.75315e-12
2.38495e-12
-6.09669e-12
2.58087e-12
-6.45587e-12
2.78968e-12
-6.83163e-12
3.00564e-12
-7.22593e-12
3.22461e-12
-7.64157e-12
3.44444e-12
-8.08161e-12
3.66508e-12
-8.54892e-12
3.88793e-12
-9.04614e-12
4.11497e-12
-9.57555e-12
4.34821e-12
-1.01392e-11
4.58979e-12
-1.07389e-11
4.842e-12
-1.13764e-11
5.10742e-12
-1.20535e-11
5.3888e-12
-1.27718e-11
5.68862e-12
-1.35333e-11
6.00841e-12
-1.43401e-11
6.34847e-12
-1.51947e-11
6.70762e-12
-1.61001e-11
7.08337e-12
-1.70596e-11
7.47253e-12
-1.80771e-11
7.87199e-12
-1.91567e-11
8.27981e-12
-2.03028e-11
8.69626e-12
-2.152e-11
9.12407e-12
-2.28124e-11
9.5679e-12
-2.4184e-11
1.00332e-11
-2.56382e-11
1.05246e-11
-2.71779e-11
1.10451e-11
-2.8806e-11
1.15944e-11
-3.05255e-11
1.21696e-11
-3.23396e-11
1.27658e-11
-3.4252e-11
1.33768e-11
-3.6267e-11
1.39977e-11
-3.83892e-11
1.46249e-11
-4.06231e-11
1.52572e-11
-4.29723e-11
1.58946e-11
-4.54387e-11
1.65367e-11
-4.80227e-11
1.71815e-11
-5.07223e-11
1.7824e-11
-5.35341e-11
1.84569e-11
-5.64526e-11
1.90696e-11
-5.9471e-11
1.96491e-11
-6.25807e-11
2.01792e-11
-6.57714e-11
2.06408e-11
-6.90307e-11
2.10117e-11
-7.23434e-11
2.12665e-11
-7.56904e-11
2.13765e-11
-7.90477e-11
2.13097e-11
-8.23845e-11
2.10307e-11
-8.56636e-11
2.04994e-11
-8.88415e-11
1.96702e-11
-9.18663e-11
1.84909e-11
-9.46807e-11
1.6899e-11
-9.73242e-11
1.47868e-11
1.07708e-11
-9.90321e-11
2.70898e-13
-2.41287e-12
2.11582e-13
4.97672e-13
1.45189e-13
5.70945e-13
7.07529e-14
5.6602e-13
-3.87821e-15
5.65316e-13
-7.73345e-14
5.55345e-13
-1.49857e-13
5.5524e-13
-2.22096e-13
5.50872e-13
-2.93989e-13
5.45122e-13
-3.65117e-13
5.36359e-13
-4.36908e-13
5.30917e-13
-5.08639e-13
5.30506e-13
-5.80366e-13
5.34648e-13
-6.52478e-13
5.42776e-13
-7.25033e-13
5.54078e-13
-7.97847e-13
5.62626e-13
-8.72331e-13
5.73313e-13
-9.4833e-13
5.83672e-13
-1.02584e-12
5.95292e-13
-1.10587e-12
6.13428e-13
-1.18814e-12
6.33801e-13
-1.27342e-12
6.59263e-13
-1.36267e-12
6.90163e-13
-1.45525e-12
7.18236e-13
-1.55169e-12
7.45613e-13
-1.65416e-12
7.78038e-13
-1.76427e-12
8.13232e-13
-1.88345e-12
8.5093e-13
-2.01306e-12
8.94553e-13
-2.15229e-12
9.41086e-13
-2.29748e-12
9.86145e-13
-2.4453e-12
1.0351e-12
-2.59614e-12
1.09921e-12
-2.75572e-12
1.18274e-12
-2.92964e-12
1.27182e-12
-3.11925e-12
1.35545e-12
-3.32362e-12
1.43588e-12
-3.53948e-12
1.52461e-12
-3.76394e-12
1.63365e-12
-3.99768e-12
1.7626e-12
-4.2435e-12
1.90085e-12
-4.50354e-12
2.04204e-12
-4.77965e-12
2.18793e-12
-5.07244e-12
2.34393e-12
-5.38154e-12
2.51688e-12
-5.70656e-12
2.71007e-12
-6.0472e-12
2.92161e-12
-6.40387e-12
3.14644e-12
-6.77778e-12
3.37964e-12
-7.17082e-12
3.61774e-12
-7.58554e-12
3.85924e-12
-8.02466e-12
4.10428e-12
-8.49079e-12
4.35413e-12
-8.98637e-12
4.6106e-12
-9.51361e-12
4.87551e-12
-1.00745e-11
5.15073e-12
-1.0671e-11
5.4385e-12
-1.13049e-11
5.74134e-12
-1.1978e-11
6.06198e-12
-1.26923e-11
6.40293e-12
-1.34498e-11
6.76588e-12
-1.42527e-11
7.15135e-12
-1.51036e-11
7.55846e-12
-1.60053e-11
7.98508e-12
-1.69612e-11
8.42834e-12
-1.79749e-11
8.88559e-12
-1.90504e-11
9.35529e-12
-2.01922e-11
9.838e-12
-2.14048e-11
1.03366e-11
-2.26925e-11
1.08555e-11
-2.40591e-11
1.13997e-11
-2.55084e-11
1.19737e-11
-2.70432e-11
1.25798e-11
-2.86666e-11
1.32176e-11
-3.03813e-11
1.38843e-11
-3.21907e-11
1.4575e-11
-3.40986e-11
1.52845e-11
-3.61093e-11
1.60083e-11
-3.8228e-11
1.67434e-11
-4.04592e-11
1.74883e-11
-4.28068e-11
1.82421e-11
-4.52732e-11
1.9003e-11
-4.78588e-11
1.9767e-11
-5.05623e-11
2.05275e-11
-5.33806e-11
2.12751e-11
-5.63087e-11
2.19977e-11
-5.93402e-11
2.26805e-11
-6.2467e-11
2.3306e-11
-6.56797e-11
2.38535e-11
-6.89668e-11
2.42989e-11
-7.23142e-11
2.46138e-11
-7.57035e-11
2.47658e-11
-7.91117e-11
2.47179e-11
-8.25101e-11
2.44292e-11
-8.58643e-11
2.38535e-11
-8.91331e-11
2.29391e-11
-9.22663e-11
2.16241e-11
-9.51998e-11
1.98326e-11
-9.79106e-11
1.74976e-11
1.26309e-11
-9.97706e-11
2.63653e-13
-2.67647e-12
2.08424e-13
5.5299e-13
1.43801e-13
6.35648e-13
7.02221e-14
6.39676e-13
-4.45668e-15
6.40071e-13
-7.78723e-14
6.28836e-13
-1.50597e-13
6.28039e-13
-2.23075e-13
6.23424e-13
-2.94778e-13
6.16899e-13
-3.65607e-13
6.07261e-13
-4.36967e-13
6.02352e-13
-5.08282e-13
6.01895e-13
-5.79755e-13
6.06198e-13
-6.51611e-13
6.1471e-13
-7.23469e-13
6.26016e-13
-7.9541e-13
6.34649e-13
-8.68934e-13
6.46922e-13
-9.43535e-13
6.58361e-13
-1.0198e-12
6.71652e-13
-1.09929e-12
6.93003e-13
-1.18126e-12
7.15875e-13
-1.2664e-12
7.44503e-13
-1.35532e-12
7.79182e-13
-1.44783e-12
8.10848e-13
-1.54508e-12
8.42976e-13
-1.64833e-12
8.81398e-13
-1.75772e-12
9.22738e-13
-1.87404e-12
9.67366e-13
-1.9997e-12
1.02033e-12
-2.13582e-12
1.07732e-12
-2.27997e-12
1.13042e-12
-2.42784e-12
1.1831e-12
-2.57853e-12
1.25003e-12
-2.73671e-12
1.34105e-12
-2.90898e-12
1.44421e-12
-3.09691e-12
1.54351e-12
-3.29938e-12
1.63848e-12
-3.51302e-12
1.73838e-12
-3.73473e-12
1.85549e-12
-3.96517e-12
1.99316e-12
-4.20769e-12
2.1435e-12
-4.46491e-12
2.29937e-12
-4.73833e-12
2.46147e-12
-5.02828e-12
2.634e-12
-5.33437e-12
2.82308e-12
-5.65623e-12
3.03204e-12
-5.99376e-12
3.25924e-12
-6.34765e-12
3.50044e-12
-6.71926e-12
3.75135e-12
-7.11046e-12
4.00903e-12
-7.52357e-12
4.27244e-12
-7.96105e-12
4.54184e-12
-8.42529e-12
4.81845e-12
-8.91859e-12
5.10398e-12
-9.44308e-12
5.40007e-12
-1.00008e-11
5.70848e-12
-1.05936e-11
6.03137e-12
-1.12235e-11
6.37128e-12
-1.18924e-11
6.73092e-12
-1.26023e-11
7.11285e-12
-1.33553e-11
7.51889e-12
-1.41537e-11
7.94977e-12
-1.50001e-11
8.40485e-12
-1.58973e-11
8.88225e-12
-1.68484e-11
9.37947e-12
-1.78571e-11
9.89425e-12
-1.89275e-11
1.04256e-11
-2.00639e-11
1.09743e-11
-2.12709e-11
1.15435e-11
-2.25528e-11
1.21374e-11
-2.39138e-11
1.27607e-11
-2.53574e-11
1.34172e-11
-2.68865e-11
1.41089e-11
-2.85041e-11
1.48351e-11
-3.0213e-11
1.55931e-11
-3.20166e-11
1.63785e-11
-3.39188e-11
1.71866e-11
-3.59244e-11
1.80139e-11
-3.80388e-11
1.88577e-11
-4.02669e-11
1.97163e-11
-4.26128e-11
2.05879e-11
-4.5079e-11
2.14691e-11
-4.76664e-11
2.23543e-11
-5.03741e-11
2.32351e-11
-5.31992e-11
2.41002e-11
-5.61376e-11
2.4936e-11
-5.91832e-11
2.57262e-11
-6.23291e-11
2.64519e-11
-6.55668e-11
2.70911e-11
-6.88857e-11
2.76178e-11
-7.22724e-11
2.80006e-11
-7.57098e-11
2.82032e-11
-7.91765e-11
2.81846e-11
-8.26462e-11
2.78989e-11
-8.60871e-11
2.72946e-11
-8.94602e-11
2.63122e-11
-9.27156e-11
2.48795e-11
-9.57861e-11
2.29032e-11
-9.86216e-11
2.03331e-11
1.46512e-11
-1.00642e-10
2.63393e-13
-2.93982e-12
2.09819e-13
6.06659e-13
1.44944e-13
7.00605e-13
7.24129e-14
7.1229e-13
-3.06581e-15
7.15629e-13
-7.74615e-14
7.0331e-13
-1.51066e-13
7.01722e-13
-2.23988e-13
6.96423e-13
-2.95438e-13
6.88426e-13
-3.6616e-13
6.7806e-13
-4.37148e-13
6.73417e-13
-5.08083e-13
6.72908e-13
-5.79202e-13
6.77395e-13
-6.50429e-13
6.86016e-13
-7.21459e-13
6.97127e-13
-7.92345e-13
7.05617e-13
-8.6478e-13
7.19441e-13
-9.37812e-13
7.31481e-13
-1.01292e-12
7.46851e-13
-1.09148e-12
7.71659e-13
-1.17257e-12
7.97053e-13
-1.2572e-12
8.29236e-13
-1.3465e-12
8.68581e-13
-1.44e-12
9.04452e-13
-1.53807e-12
9.41153e-13
-1.64164e-12
9.85083e-13
-1.75e-12
1.03121e-12
-1.86308e-12
1.08056e-12
-1.98388e-12
1.14124e-12
-2.11582e-12
1.20938e-12
-2.25814e-12
1.27287e-12
-2.40717e-12
1.33225e-12
-2.55885e-12
1.40183e-12
-2.7163e-12
1.49863e-12
-2.88655e-12
1.61459e-12
-3.07201e-12
1.72909e-12
-3.27163e-12
1.83823e-12
-3.4825e-12
1.94938e-12
-3.70133e-12
2.07445e-12
-3.92886e-12
2.22082e-12
-4.16841e-12
2.38318e-12
-4.42278e-12
2.55387e-12
-4.69331e-12
2.73212e-12
-4.98031e-12
2.92112e-12
-5.28334e-12
3.12623e-12
-5.60188e-12
3.3507e-12
-5.9362e-12
3.59367e-12
-6.28712e-12
3.85148e-12
-6.65603e-12
4.12037e-12
-7.04481e-12
4.39792e-12
-7.4556e-12
4.68333e-12
-7.89069e-12
4.97704e-12
-8.35237e-12
5.28021e-12
-8.84274e-12
5.59444e-12
-9.36391e-12
5.92132e-12
-9.91791e-12
6.26255e-12
-1.05067e-11
6.62021e-12
-1.11322e-11
6.99685e-12
-1.17965e-11
7.39524e-12
-1.25015e-11
7.81797e-12
-1.32496e-11
8.26698e-12
-1.40429e-11
8.74312e-12
-1.48841e-11
9.24598e-12
-1.57758e-11
9.77399e-12
-1.67212e-11
1.03249e-11
-1.77239e-11
1.0897e-11
-1.8788e-11
1.14896e-11
-1.99179e-11
1.21042e-11
-2.11183e-11
1.27439e-11
-2.23937e-11
1.34128e-11
-2.37482e-11
1.41151e-11
-2.51851e-11
1.48541e-11
-2.67076e-11
1.56313e-11
-2.83183e-11
1.64458e-11
-3.00203e-11
1.7295e-11
-3.18168e-11
1.8175e-11
-3.37124e-11
1.90822e-11
-3.57121e-11
2.00136e-11
-3.78216e-11
2.09672e-11
-4.00462e-11
2.19409e-11
-4.23901e-11
2.29318e-11
-4.48561e-11
2.39351e-11
-4.74452e-11
2.49435e-11
-5.01569e-11
2.59468e-11
-5.2989e-11
2.69323e-11
-5.59378e-11
2.78849e-11
-5.89987e-11
2.8787e-11
-6.21655e-11
2.96187e-11
-6.54309e-11
3.03566e-11
-6.87853e-11
3.09722e-11
-7.22162e-11
3.14315e-11
-7.57079e-11
3.1695e-11
-7.92409e-11
3.17177e-11
-8.27913e-11
3.14493e-11
-8.63291e-11
3.08324e-11
-8.98166e-11
2.97997e-11
-9.32062e-11
2.82692e-11
-9.64363e-11
2.61334e-11
-9.94542e-11
2.33511e-11
1.68758e-11
-1.01679e-10
2.71272e-13
-3.21104e-12
2.15262e-13
6.62769e-13
1.47006e-13
7.6895e-13
7.40999e-14
7.85283e-13
-8.73451e-16
7.90689e-13
-7.68036e-14
7.79325e-13
-1.51589e-13
7.76591e-13
-2.24949e-13
7.69865e-13
-2.95954e-13
7.59512e-13
-3.6682e-13
7.49006e-13
-4.3743e-13
7.44109e-13
-5.07988e-13
7.43547e-13
-5.78606e-13
7.48095e-13
-6.48948e-13
7.56441e-13
-7.19096e-13
7.67358e-13
-7.88881e-13
7.75488e-13
-8.60286e-13
7.90933e-13
-9.31952e-13
8.03236e-13
-1.00589e-12
8.2088e-13
-1.08336e-12
8.49221e-13
-1.16322e-12
8.77013e-13
-1.24702e-12
9.13134e-13
-1.33642e-12
9.58083e-13
-1.43058e-12
9.98713e-13
-1.52896e-12
1.03964e-12
-1.63254e-12
1.08877e-12
-1.74009e-12
1.13887e-12
-1.85042e-12
1.19101e-12
-1.96652e-12
1.25746e-12
-2.09429e-12
1.33727e-12
-2.23425e-12
1.41295e-12
-2.38362e-12
1.48175e-12
-2.537e-12
1.55533e-12
-2.69461e-12
1.65637e-12
-2.86222e-12
1.78233e-12
-3.04445e-12
1.91145e-12
-3.24033e-12
2.03424e-12
-3.44778e-12
2.15697e-12
-3.6638e-12
2.29059e-12
-3.88859e-12
2.44575e-12
-4.12534e-12
2.62006e-12
-4.37693e-12
2.80559e-12
-4.64452e-12
2.99984e-12
-4.9284e-12
3.20513e-12
-5.22807e-12
3.42603e-12
-5.54318e-12
3.66593e-12
-5.87404e-12
3.92467e-12
-6.22164e-12
4.19919e-12
-6.58743e-12
4.48629e-12
-6.9733e-12
4.78389e-12
-7.38125e-12
5.0914e-12
-7.81344e-12
5.40933e-12
-8.27198e-12
5.73886e-12
-8.75893e-12
6.08148e-12
-9.27629e-12
6.43878e-12
-9.8261e-12
6.81244e-12
-1.04103e-11
7.20453e-12
-1.1031e-11
7.61761e-12
-1.16902e-11
8.0545e-12
-1.239e-11
8.51783e-12
-1.31326e-11
9.0096e-12
-1.39202e-11
9.53077e-12
-1.47553e-11
1.00811e-11
-1.56406e-11
1.06594e-11
-1.65793e-11
1.12637e-11
-1.7575e-11
1.18927e-11
-1.86318e-11
1.25464e-11
-1.97543e-11
1.32268e-11
-2.09473e-11
1.39369e-11
-2.22153e-11
1.46807e-11
-2.35622e-11
1.5462e-11
-2.49915e-11
1.62835e-11
-2.65062e-11
1.7146e-11
-2.81089e-11
1.80485e-11
-2.98026e-11
1.89887e-11
-3.1591e-11
1.99635e-11
-3.34791e-11
2.09702e-11
-3.54722e-11
2.20068e-11
-3.75765e-11
2.30715e-11
-3.97972e-11
2.41617e-11
-4.21387e-11
2.52734e-11
-4.4604e-11
2.64004e-11
-4.71943e-11
2.75338e-11
-4.99095e-11
2.8662e-11
-5.27482e-11
2.9771e-11
-5.57078e-11
3.08445e-11
-5.87848e-11
3.18641e-11
-6.19744e-11
3.28084e-11
-6.52703e-11
3.36525e-11
-6.8664e-11
3.4366e-11
-7.21442e-11
3.49118e-11
-7.56964e-11
3.52473e-11
-7.9303e-11
3.53243e-11
-8.29416e-11
3.50879e-11
-8.65836e-11
3.44746e-11
-9.01935e-11
3.34097e-11
-9.37287e-11
3.18044e-11
-9.71416e-11
2.95464e-11
-1.00391e-10
2.66008e-11
1.93592e-11
-1.02874e-10
2.8376e-13
-3.49475e-12
2.2319e-13
7.23448e-13
1.50576e-13
8.4166e-13
7.59089e-14
8.60044e-13
1.48211e-15
8.65208e-13
-7.58572e-14
8.56756e-13
-1.51623e-13
8.52447e-13
-2.25071e-13
8.43402e-13
-2.95781e-13
8.30311e-13
-3.66799e-13
8.20112e-13
-4.37042e-13
8.14438e-13
-5.07313e-13
8.13906e-13
-5.77313e-13
8.18182e-13
-6.46878e-13
8.26094e-13
-7.16259e-13
8.36827e-13
-7.85264e-13
8.44583e-13
-8.56264e-13
8.62024e-13
-9.27387e-13
8.7445e-13
-1.00059e-12
8.94178e-13
-1.07674e-12
9.25461e-13
-1.15479e-12
9.55161e-13
-1.23693e-12
9.95377e-13
-1.32514e-12
1.0464e-12
-1.41846e-12
1.09214e-12
-1.51642e-12
1.1377e-12
-1.61998e-12
1.19244e-12
-1.72737e-12
1.24638e-12
-1.83614e-12
1.2999e-12
-1.94855e-12
1.36999e-12
-2.0723e-12
1.46114e-12
-2.20969e-12
1.55047e-12
-2.35829e-12
1.63048e-12
-2.51297e-12
1.71014e-12
-2.67117e-12
1.8147e-12
-2.83588e-12
1.94717e-12
-3.01418e-12
2.08989e-12
-3.20582e-12
2.22601e-12
-3.40933e-12
2.36062e-12
-3.6226e-12
2.504e-12
-3.84498e-12
2.66827e-12
-4.07921e-12
2.85442e-12
-4.328e-12
3.05451e-12
-4.59246e-12
3.26443e-12
-4.87286e-12
3.48567e-12
-5.16892e-12
3.72223e-12
-5.48036e-12
3.97751e-12
-5.80752e-12
4.25196e-12
-6.15148e-12
4.54328e-12
-6.5138e-12
4.84873e-12
-6.89629e-12
5.16652e-12
-7.30092e-12
5.49615e-12
-7.72969e-12
5.83822e-12
-8.1846e-12
6.19389e-12
-8.66759e-12
6.56459e-12
-9.18061e-12
6.95191e-12
-9.72568e-12
7.35762e-12
-1.03049e-11
7.78383e-12
-1.09203e-11
8.2331e-12
-1.15739e-11
8.70824e-12
-1.22679e-11
9.21189e-12
-1.30043e-11
9.74612e-12
-1.37855e-11
1.0312e-11
-1.46138e-11
1.09095e-11
-1.5492e-11
1.15376e-11
-1.6423e-11
1.21948e-11
-1.74108e-11
1.28804e-11
-1.84594e-11
1.35951e-11
-1.95736e-11
1.43411e-11
-2.07582e-11
1.51215e-11
-2.20177e-11
1.59402e-11
-2.3356e-11
1.68004e-11
-2.47765e-11
1.7704e-11
-2.6282e-11
1.86516e-11
-2.78753e-11
1.96419e-11
-2.95596e-11
2.0673e-11
-3.13391e-11
2.1743e-11
-3.32188e-11
2.285e-11
-3.52049e-11
2.3993e-11
-3.73034e-11
2.517e-11
-3.95198e-11
2.63781e-11
-4.18583e-11
2.7612e-11
-4.43221e-11
2.88643e-11
-4.69128e-11
3.01246e-11
-4.96308e-11
3.13802e-11
-5.24758e-11
3.26161e-11
-5.54466e-11
3.38154e-11
-5.85409e-11
3.49585e-11
-6.1755e-11
3.60227e-11
-6.50839e-11
3.69815e-11
-6.85203e-11
3.78025e-11
-7.20542e-11
3.84458e-11
-7.56724e-11
3.88657e-11
-7.93583e-11
3.90104e-11
-8.30908e-11
3.88205e-11
-8.6843e-11
3.82269e-11
-9.05829e-11
3.71497e-11
-9.42747e-11
3.54964e-11
-9.78882e-11
3.316e-11
-1.01398e-10
3.01103e-11
2.21348e-11
-1.04173e-10
2.9793e-13
-3.79262e-12
2.32052e-13
7.89443e-13
1.55111e-13
9.18706e-13
7.82549e-14
9.37004e-13
2.17164e-15
9.41393e-13
-7.65956e-14
9.35623e-13
-1.53597e-13
9.29547e-13
-2.27174e-13
9.17077e-13
-2.98414e-13
9.01649e-13
-3.69344e-13
8.91138e-13
-4.38734e-13
8.83924e-13
-5.08227e-13
8.83494e-13
-5.76752e-13
8.86801e-13
-6.44922e-13
8.94359e-13
-7.1256e-13
9.0456e-13
-7.79786e-13
9.11904e-13
-8.49241e-13
9.31575e-13
-9.18488e-13
9.43795e-13
-9.90844e-13
9.66632e-13
-1.06727e-12
1.00199e-12
-1.14509e-12
1.03309e-12
-1.22652e-12
1.07691e-12
-1.31337e-12
1.13335e-12
-1.40497e-12
1.18385e-12
-1.50196e-12
1.2348e-12
-1.60522e-12
1.29581e-12
-1.71242e-12
1.3537e-12
-1.82045e-12
1.40804e-12
-1.931e-12
1.48065e-12
-2.0509e-12
1.58117e-12
-2.18561e-12
1.6853e-12
-2.3321e-12
1.7771e-12
-2.48643e-12
1.86459e-12
-2.64403e-12
1.97243e-12
-2.80686e-12
2.11013e-12
-2.98129e-12
2.26446e-12
-3.16888e-12
2.41374e-12
-3.36866e-12
2.56054e-12
-3.5791e-12
2.71459e-12
-3.79912e-12
2.88842e-12
-4.03065e-12
3.0861e-12
-4.27626e-12
3.30027e-12
-4.53726e-12
3.52557e-12
-4.81399e-12
3.76255e-12
-5.10626e-12
4.01464e-12
-5.41382e-12
4.28521e-12
-5.7371e-12
4.57538e-12
-6.07721e-12
4.88353e-12
-6.43573e-12
5.20739e-12
-6.81447e-12
5.54539e-12
-7.21529e-12
5.8971e-12
-7.6401e-12
6.26316e-12
-8.0908e-12
6.64472e-12
-8.56926e-12
7.04317e-12
-9.07738e-12
7.46015e-12
-9.61719e-12
7.89755e-12
-1.01908e-11
8.35755e-12
-1.08003e-11
8.84272e-12
-1.14478e-11
9.35582e-12
-1.21353e-11
9.89951e-12
-1.2865e-11
1.04759e-11
-1.36391e-11
1.10862e-11
-1.44599e-11
1.17304e-11
-1.53301e-11
1.24079e-11
-1.62528e-11
1.31176e-11
-1.72318e-11
1.38595e-11
-1.82714e-11
1.46348e-11
-1.93764e-11
1.54461e-11
-2.05516e-11
1.62968e-11
-2.18014e-11
1.71902e-11
-2.31299e-11
1.81289e-11
-2.45402e-11
1.91144e-11
-2.60352e-11
2.01467e-11
-2.76178e-11
2.12246e-11
-2.92915e-11
2.23469e-11
-3.10609e-11
2.35125e-11
-3.29316e-11
2.47209e-11
-3.49099e-11