/*--------------------------------*- C++ -*----------------------------------*\
| =========                 |                                                 |
| \\      /  F ield         | OpenFOAM: The Open Source CFD Toolbox           |
|  \\    /   O peration     | Version:  2.4.0                                 |
|   \\  /    A nd           | Web:      www.OpenFOAM.org                      |
|    \\/     M anipulation  |                                                 |
\*---------------------------------------------------------------------------*/
FoamFile
{
    version     2.0;
    format      ascii;
    class       volScalarField;
    location    "0.115";
    object      alpha.water;
}
// * * * * * * * * * * * * * * * * * * * * * * * * * * * * * * * * * * * * * //

dimensions      [0 0 0 0 0 0 0];

internalField   nonuniform List<scalar> 
3600
(
1
1.00002
1.00002
1.00002
1.00002
1.00001
1.00001
1.00001
1.00001
1.00001
1
1
1
1
1
1
1
1
1
1
1
1
1
1
1
1
1
1
1
1
1.00005
1.00004
1.00004
1.00003
1.00003
1.00002
1.00002
1.00001
1.00001
1.00001
1.00001
1.00001
1
1
1
1
1
1
1
1
1
1
1
1
1
1
1
1
1
1
1.00003
1.00003
1.00003
1.00002
1.00002
1.00002
1.00001
1.00001
1.00001
1.00001
1.00001
1
1
1
1
1
1
1
1
1
1
1
1
1
1
1
1
1
1
1
1.00003
1.00003
1.00003
1.00002
1.00002
1.00001
1.00001
1.00001
1.00001
1.00001
1
1
1
1
1
1
1
1
1
1
1
1
1
1
1
1
1
1
1
1
1.00003
1.00002
1.00002
1.00002
1.00001
1.00001
1.00001
1.00001
1.00001
1
1
1
1
1
1
1
1
1
1
1
1
1
1
1
1
1
1
1
1
1
1.00002
1.00002
1.00001
1.00001
1.00001
1.00001
1.00001
1
1
1
1
1
1
1
1
1
1
1
1
1
1
1
1
1
1
1
1
1
1
1
1.00002
1.00001
1.00001
1.00001
1.00001
1
1
1
1
1
1
1
1
1
1
1
1
1
1
1
1
1
1
1
1
1
1
1
1
1
1.00001
1
1
1
1
1
1
1
1
1
1
1
1
1
1
1
1
1
1
1
1
1
1
1
1
1
1
1
1
1
0.999999
0.999996
0.999996
0.999997
0.999998
0.999999
0.999999
1
1
1
1
1
1
1
1
1
1
1
1
1
1
1
1
1
1
1
1
1
1
1
0.999993
0.999992
0.999994
0.999995
0.999996
0.999997
0.999998
0.999999
0.999999
1
1
1
1
1
1
1
1
1
1
1
1
1
1
1
1
1
1
1
1
1
0.999989
0.999989
0.999987
0.999988
0.999991
0.999995
0.999997
0.999998
0.999999
0.999999
0.999999
1
1
1
1
1
1
1
1
1
1
1
1
1
1
1
1
1
1
1
0.999986
0.999986
0.999985
0.999986
0.999991
0.999995
0.999997
0.999998
0.999998
0.999999
0.999999
1
1
1
1
1
1
1
1
1
1
1
1
1
1
1
1
1
1
1
0.999986
0.999986
0.999986
0.999991
0.999995
0.999996
0.999996
0.999997
0.999997
0.999998
0.999999
1
1
1
1
1
1
1
1
1
1
1
1
1
1
1
1
1
1
1
0.999987
0.999987
0.999993
0.999995
0.999996
0.999996
0.999996
0.999996
0.999997
0.999998
0.999998
0.999999
1
1
1
1
1
1
1
1
1
1
1
1
1
1
1
1
1
1
0.999989
0.999992
0.999995
0.999996
0.999992
0.999991
0.999993
0.999996
0.999997
0.999997
0.999998
0.999999
1
1
1
1
1
1
1
1
1
1
1
1
1
1
1
1
1
1
0.999992
0.999992
0.999987
0.999992
0.999988
0.999988
0.999993
0.999996
0.999996
0.999997
0.999998
0.999999
1
1
1
1
1
1
1
1
1
1
1
1
1
1
1
1
1
1
0.999513
0.999912
0.999983
0.999989
0.999994
0.999994
0.999994
0.999993
0.999995
0.999996
0.999997
0.999999
0.999999
1
1
1
1
1
1
1
1
1
1
1
1
1
1
1
1
1
0.990998
0.993525
0.999846
0.999995
0.999995
0.999993
0.999994
0.99999
0.999995
0.999992
0.999996
0.999999
0.999999
1
1
1
1
1
1
1
1
1
1
1
1
1
1
1
1
1
0.988811
0.988811
0.999347
0.999498
0.999979
0.999951
0.999994
0.99999
0.999988
0.999995
0.999997
0.999998
0.999999
1
1
1
1
1
1
1
1
1
1
1
1
1
1
1
1
1
0.988811
0.988811
0.998069
0.998099
0.9998
0.999925
0.999975
0.999952
0.999984
0.999996
0.999996
0.999996
0.999999
1
1
1
1
1
1
1
1
1
1
1
1
1
1
1
1
1
0.988811
0.988811
0.996299
0.999385
0.999685
0.999942
0.999911
0.999912
0.99997
0.999977
0.999991
0.999997
0.999998
1
1
1
1
1
1
1
1
1
1
1
1
1
1
1
1
1
0.988811
0.988811
0.997529
0.999802
0.999577
0.999982
0.99991
0.999973
0.999978
0.999978
0.99998
0.999999
0.999999
1
1
1
1
1
1
1
1
1
1
1
1
1
1
1
1
1
0.988846
0.988811
0.990893
0.999761
0.999577
1
0.999918
1
0.999999
0.999996
0.99999
0.999991
0.999999
1
1
1
1
1
1
1
1
1
1
1
1
1
1
1
1
1
0.993494
0.994183
0.99807
0.999982
0.999831
1.00001
0.999994
1
1
1
0.999998
0.999991
0.999994
1
1
1
1
1
1
1
1
1
1
1
1
1
1
1
1
1
0.896864
0.999052
0.999384
0.999997
0.999999
1.00001
1
1
1
1
1
0.999996
0.999993
0.999999
1
1
1
1
1
1
1
1
1
1
1
1
1
1
1
1
0.798102
0.99478
1
0.999999
1
1.00001
1.00001
1
1
1
1
1
0.999996
0.999999
1
1
1
1
1
1
1
1
1
1
1
1
1
1
1
1
0.80254
0.989437
1
1
0.999862
0.999968
1.00001
1.00001
1
1
1
1
0.999999
1
1
1
1
1
1
1
1
1
1
1
1
1
1
1
1
1
0.70699
0.962394
0.999232
0.996794
0.99712
0.9999
1
1
1
1
1
1
0.999999
1
1
1
1
1
1
1
1
1
1
1
1
1
1
1
1
1
0.5181
0.707708
0.952269
0.992101
0.999954
1
1
1
1
1
1
1
1
1
1
1
1
1
1
1
1
1
1
1
1
1
1
1
1
1
0.533799
0.802972
0.896636
0.825085
0.841567
0.903555
0.963923
0.900202
0.826408
0.850073
0.757179
0.786823
0.768082
0.90868
0.904497
0.851267
0.791643
0.885981
0.750042
0.862759
0.933421
0.846828
0.703192
0.780862
0.925538
0.985075
1
1
1
1
1
1
1
1
1
1
1
1
1
1
1
1
1
1
1
1
1
1
1
1
1
1
1
1
1
1
1
1
1
1
1
0.999999
1
1
1
1
1
1
1
1
1
1
1
1
1
1
1
1
1
1
1
1
1
1
1
1
1
1
1
1
1
0.999999
1
1
1
1
1
1
1
1
1
1
1
1
1
1
1
1
1
1
1
1
1
1
1
1
1
1
1
1
1
0.999999
1
1
1
1
1
1
1
1
1
1
1
1
1
1
1
1
1
1
1
1
1
1
1
1
1
1
1
1
1
0.999999
1
1
1
1
1
1
1
1
1
1
1
1
1
1
1
1
1
1
1
1
1
1
1
1
1
1
1
1
1
0.999999
1
1
1
1
1
1
1
1
1
1
1
1
1
1
1
1
1
1
1
1
1
1
1
1
1
1
1
1
1
0.999999
1
1
1
1
1
1
1
1
1
1
1
1
1
1
1
1
1
1
1
1
1
1
1
1
1
1
1
1
1
0.999999
1
1
1
1
1
1
1
1
1
1
1
1
1
1
1
1
1
1
1
1
1
1
1
1
1
1
1
1
1
0.999999
1
1
1
1
1
1
1
1
1
1
1
1
1
1
1
1
1
1
1
1
1
1
1
1
1
1
1
1
1
0.999999
1
1
1
1
1
1
1
1
1
1
1
1
1
1
1
1
1
1
1
1
1
1
1
1
1
1
1
1
1
0.999999
1
1
1
1
1
1
1
1
1
1
1
1
1
1
1
1
1
1
1
1
1
1
1
1
1
1
1
1
1
1
1
1
1
1
1
1
1
1
1
1
1
1
1
1
1
1
1
1
1
1
1
1
1
1
1
1
1
1
1
1
1
1
1
1
1
1
1
1
1
1
1
1
1
1
1
1
1
1
1
1
1
1
1
1
1
1
1
1
1
1
1
1
1
1
1
1
1
1
1
1
1
1
1
1
1
1
1
1
1
1
1
1
1
1
1
1
1
1
1
1
1
1
1
1
1
1
1
1
1
1
1
1
1
1
1
1
1
1
1
1
1
1
1
1
1
1
1
1
1
1
1
1
1
1
1
1
1
1
1
1
1
1
1
1
1
1
1
1
1
1
1
1
1
1
1
1
1
1
1
1
1
1
1
1
1
1
1
1
1
1
1
1
1
1
1
1
1
1
1
1
1
1
1
1
1
1
1
1
1
1
1
1
1
1
1
1
1
1
1
1
1
1
1
1
1
1
1
1
1
1
1
1
1
1
1
1
1
1
1
1
1
1
1
1
1
1
1
1
1
1
1
1
1
1
1
1
1
1
1
1
1
1
1
1
1
1
1
1
1
1
1
1
1
1
1
1
1
1
1
1
1
1
1
1
1
1
1
1
1
1
1
1
1
1
1
1
1
1
1
1
1
1
1
1
1
1
1
1
1
1
1
1
1
1
1
1
1
1
1
1
1
1
1
1
1
1
1
1
1
1
1
1
1
1
1
1
1
1
1
1
1
1
1
1
1
1
1
1
1
1
1
1
1
1
1
1
1
1
1
1
1
1
1
1
1
1
1
1
1
1
1
1
1
1
1
1
1
1
1
1
1
1
1
1
1
1
1
1
1
1
1
1
1
1
1
1
1
1
1
1
1
1
1
1
1
1
1
1
1
1
1
1
1
1
1
1
1
1
1
1
1
1
1
1
1
1
1
1
1
1
1
1
1
1
1
1
1
1
1
1
1
1
1
1
1
1
1
1
1
1
1
1
1
1
1
1
1
1
1
1
1
1
1
1
1
1
1
1
1
1
1
1
1
1
1
1
1
1
1
1
1
1
1
1
1
1
1
1
1
1
1
1
1
1
1
1
1
1
1
1
1
1
1
1
1
1
1
1
1
1
1
1
1
1
1
1
1
1
1
1
1
1
1
1
1
1
1
1
1
1
1
1
1
1
1
1
1
1
1
1
1
1
1
1
1
1
1
1
1
1
1
1
1
1
1
1
1
1
1
1
1
1
1
1
1
1
1
1
1
1
1
1
1
1
1
1
1
1
1
1
1
1
1
1
1
1
1
1
0.999915
1
0.999526
1
0.99865
1
0.99715
1
0.995951
1
0.487123
0.193512
0.110409
0.0337776
0.190473
0.186304
0.256791
0.142661
0.0799168
0.0881049
0.0604281
0.0541618
0.0536314
0.107505
0.120077
0.0987636
0.0841794
0.137837
0.0782796
0.115667
0.149174
0.0676073
0.00320621
7.39374e-11
0.0201105
0.0206399
0.0218513
0.0126528
0.00894625
0.00507191
0.227024
-7.88624e-09
-3.64424e-09
1.06311e-09
-6.86771e-07
7.06426e-09
1.41381e-08
7.05734e-09
-5.28477e-09
-1.18113e-08
1.26193e-12
1.93018e-12
9.65323e-13
-6.20948e-11
1.66109e-09
1.71229e-09
1.56293e-09
1.57143e-09
1.67354e-09
1.76633e-09
1.68988e-09
1.38823e-09
6.60887e-11
6.62587e-11
1.29188e-11
1.29188e-11
1.35764e-11
3.67928e-10
1.86317e-10
4.52849e-11
0.00689495
0.000293737
3.7359e-06
8.62059e-06
8.68451e-06
9.82133e-06
3.37908e-07
1.55322e-08
9.05074e-10
8.96532e-10
8.96296e-10
5.047e-10
1.91767e-09
1.94057e-09
3.32196e-09
3.60076e-09
1.56293e-09
1.57076e-09
1.86823e-09
1.76633e-09
1.60796e-09
1.09539e-10
4.77409e-11
4.47687e-11
5.13995e-11
3.95273e-10
1.85612e-10
7.20571e-10
3.09291e-10
6.18254e-11
-6.08e-08
2.25999e-05
2.8248e-06
1.6675e-06
1.15601e-05
2.10043e-05
1.22898e-05
2.434e-08
1.20565e-07
1.22662e-08
8.8445e-10
3.61752e-10
7.13097e-10
2.81772e-09
3.29699e-09
1.25343e-09
1.76116e-09
1.66425e-09
2.41443e-09
1.88062e-09
1.60356e-09
4.89353e-10
5.28107e-11
1.41169e-11
7.45335e-12
9.38218e-12
8.55549e-12
5.74783e-12
1.19801e-12
1.68421e-13
1.6806e-06
1.67134e-06
1.66793e-06
1.66779e-06
1.66096e-05
1.28296e-05
1.26112e-07
1.26108e-07
4.82889e-08
7.44196e-10
1.21427e-10
8.0293e-11
7.63948e-11
1.46885e-10
1.09781e-10
1.806e-10
1.75126e-10
2.04932e-10
4.01104e-10
4.44617e-10
1.88952e-10
4.29443e-11
4.16833e-12
6.25285e-13
2.67047e-13
2.03473e-13
1.10077e-13
3.57104e-14
3.20812e-15
3.79887e-16
3.91846e-05
3.59205e-05
1.66785e-06
7.13135e-05
6.38971e-06
1.68443e-06
4.7568e-07
1.1531e-07
1.37257e-08
2.121e-09
3.40377e-11
1.85667e-11
7.88703e-12
1.04862e-11
9.40699e-12
1.76224e-11
1.80971e-11
1.68898e-11
3.75142e-11
6.61128e-11
1.40199e-11
2.58322e-12
1.6409e-13
1.37075e-14
4.13942e-15
2.47926e-15
5.51893e-16
1.76104e-16
5.928e-18
7.4017e-19
0.000966323
3.64988e-05
0.000484752
0.000364824
4.8347e-06
3.68385e-08
6.1057e-08
3.33588e-08
1.60281e-09
5.10432e-10
1.20282e-11
2.93316e-12
6.63459e-13
4.524e-13
2.88766e-13
8.03752e-13
9.23359e-13
6.96489e-13
2.09784e-12
6.66522e-12
7.40852e-13
1.20909e-13
3.74071e-15
1.90228e-16
3.56462e-17
2.07685e-17
1.32486e-18
7.23775e-19
7.10478e-21
1.25724e-21
0.0136403
0.00307354
0.000994441
4.25954e-08
3.69484e-08
3.67166e-08
3.40857e-08
1.17224e-08
1.12161e-09
1.54216e-10
2.93843e-12
2.8889e-13
1.11103e-14
1.58045e-14
6.8342e-15
2.07974e-14
1.98218e-14
1.90926e-14
7.55675e-14
4.75453e-13
2.57599e-14
4.51644e-15
5.06956e-17
1.92343e-18
1.90616e-19
1.44317e-19
1.60508e-21
2.57347e-21
4.8333e-24
1.88226e-24
0.0138308
0.00221991
8.29776e-05
5.12667e-05
7.38298e-07
4.47177e-08
2.66621e-08
6.73899e-10
7.21856e-10
3.15233e-09
1.32543e-11
5.95074e-14
2.86798e-16
4.16823e-16
9.0155e-17
2.95115e-16
1.58638e-16
3.83075e-16
1.97136e-15
2.41075e-14
5.14208e-16
1.31597e-16
3.99926e-19
1.63119e-20
6.58056e-22
9.21573e-22
1.45687e-24
8.12045e-24
1.37548e-27
2.51814e-27
0.0138303
0.00219589
0.000308656
3.78724e-05
1.62107e-05
4.50774e-10
4.17797e-10
4.17801e-10
7.06548e-06
1.8117e-07
1.11596e-09
7.48443e-13
1.91421e-16
7.78833e-18
8.49009e-19
3.27607e-18
8.86663e-19
5.90242e-18
4.23311e-17
8.88531e-16
4.8711e-18
2.95813e-18
1.72175e-21
1.31104e-22
1.49719e-24
5.2529e-24
1.22848e-27
2.31738e-26
3.96345e-31
3.05227e-30
0.0124853
0.00528969
0.000341945
0.000466908
0.000122125
0.000575935
0.000685178
0.000686169
0.00023939
2.0258e-10
7.50427e-11
2.56635e-11
1.31177e-14
6.75041e-19
5.47583e-21
2.31843e-20
6.83536e-21
6.9431e-20
7.91945e-19
2.40154e-17
1.15643e-20
5.16373e-20
3.50149e-24
1.08854e-24
2.27964e-27
2.70358e-26
1.01465e-30
6.06398e-29
1.68379e-34
3.39173e-33
1.01408e-06
0.000574539
1.28345e-07
4.20503e-05
2.87201e-05
2.69167e-06
2.49684e-09
1.78956e-05
2.36607e-05
9.41447e-11
6.34762e-11
1.02232e-13
1.33368e-16
6.70011e-19
1.0114e-21
1.00403e-22
4.55419e-23
6.75459e-22
1.24686e-20
4.84863e-19
2.93633e-24
7.10525e-22
2.22982e-27
9.00017e-27
2.03949e-30
1.27222e-28
7.16931e-34
1.46945e-31
6.61188e-38
3.487e-36
5.79782e-07
3.28565e-07
3.41023e-07
2.11124e-08
3.14706e-09
2.4839e-09
2.49655e-09
1.64897e-10
9.83607e-11
5.41503e-11
5.87714e-12
3.8976e-14
1.54178e-16
7.43593e-19
1.63906e-21
9.46723e-25
2.51279e-25
5.32626e-24
1.53971e-22
7.40006e-21
2.65668e-26
7.84768e-24
1.00444e-30
6.98392e-29
1.10726e-33
5.5166e-31
4.02216e-37
3.32367e-34
2.4089e-41
3.34271e-39
0.00012388
1.47262e-08
3.1483e-06
6.52189e-05
1.32964e-06
1.62014e-09
2.8162e-09
3.03492e-09
1.36976e-09
4.00557e-11
3.14836e-12
7.91236e-14
3.25515e-16
8.62903e-19
2.50241e-21
1.84636e-24
1.34959e-27
3.48582e-26
1.47661e-24
8.68892e-23
2.04255e-28
7.08589e-26
7.92517e-34
4.92274e-31
9.04715e-37
2.21758e-33
1.99851e-40
7.0601e-37
7.98448e-45
3.00691e-42
0.00611231
0.00599721
2.9872e-06
0.000230134
6.14739e-10
1.47577e-09
1.05099e-08
2.04217e-08
1.84089e-10
5.74304e-11
3.95555e-12
1.31417e-13
7.99561e-16
1.06389e-18
3.66733e-21
3.72388e-24
7.31571e-28
1.92755e-28
1.10608e-26
7.97736e-25
1.32251e-30
5.32053e-28
1.977e-36
3.11692e-33
2.14581e-39
8.29726e-36
1.41606e-43
1.41463e-39
2.33661e-48
2.55032e-45
0.00930389
0.0167957
0.000206991
1.51273e-05
6.15541e-10
1.12509e-09
1.69947e-09
9.78701e-09
2.11021e-10
1.87136e-10
6.28747e-12
1.89112e-13
1.7702e-15
1.39193e-18
4.85456e-21
6.01187e-24
1.71861e-27
9.51818e-31
6.59611e-29
5.84248e-27
7.26241e-33
3.37768e-30
8.58744e-39
1.77358e-35
6.15913e-42
2.90026e-38
1.73848e-46
2.68408e-42
5.89909e-52
2.04841e-48
0.0227011
0.0226958
0.0064386
2.7998e-07
5.39117e-06
0.000152938
0.000205473
3.13026e-10
3.27617e-10
5.36107e-10
7.94938e-12
2.34295e-13
2.98781e-15
2.15057e-18
5.26485e-21
8.23477e-24
3.35267e-27
1.68544e-31
3.19637e-31
3.48927e-29
3.42357e-35
1.84153e-32
4.12047e-41
9.10856e-38
1.70989e-44
9.49967e-41
2.55121e-49
4.83748e-45
1.2749e-55
1.56383e-51
0.0226966
0.0226949
0.01126
0.000768787
0.0011266
0.00112663
0.000557392
3.13027e-10
3.7623e-10
1.74072e-09
9.84691e-12
3.00029e-13
4.53072e-15
4.40085e-18
6.23002e-21
1.07275e-23
5.49361e-27
4.45736e-31
1.28684e-33
1.73761e-31
1.40304e-37
8.74605e-35
1.80604e-43
4.24303e-40
4.51215e-47
2.92205e-43
3.67025e-52
8.29865e-48
2.34697e-59
1.1374e-54
0.0226976
0.0156303
0.00700616
0.00329549
0.000147936
0.000168702
0.000188169
3.13029e-10
2.65371e-09
2.14867e-09
8.4356e-12
3.12075e-13
5.45379e-15
8.68987e-18
7.47201e-21
1.10112e-23
6.4215e-27
8.97094e-31
7.46004e-36
7.38258e-34
5.06077e-40
3.66795e-37
7.06853e-46
1.8027e-42
1.12698e-49
8.45993e-46
5.05162e-55
1.35784e-50
3.70523e-63
7.89987e-58
0.0226919
0.0118941
0.00152705
0.00331665
0.000430284
8.27505e-09
8.23844e-11
5.17709e-10
7.20599e-10
1.08517e-09
6.90846e-12
2.84359e-13
6.17796e-15
1.37199e-17
1.27941e-20
9.95703e-24
5.58828e-27
1.18026e-30
5.8098e-36
2.73035e-36
1.62452e-42
1.37535e-39
2.48596e-48
7.02261e-45
2.65661e-52
2.31006e-48
6.64409e-58
2.12253e-53
5.15138e-67
5.25037e-61
0.0133431
0.00731199
0.000938923
0.00225031
0.000718511
1.50395e-08
1.47236e-08
1.83328e-08
1.67549e-10
3.61837e-10
6.55017e-12
2.78057e-13
7.07886e-15
1.76335e-17
2.72364e-20
5.99337e-24
2.42572e-27
5.37711e-31
6.45101e-36
8.94824e-39
4.68337e-45
4.66056e-42
7.90924e-51
2.5198e-47
5.89406e-55
5.95715e-51
8.33951e-61
3.17256e-56
6.38115e-71
3.34314e-64
0.00056829
0.00188386
0.000861046
7.52024e-05
0.00110222
5.63918e-05
1.50468e-08
1.03424e-06
7.52515e-11
1.2516e-10
7.37018e-12
3.14638e-13
8.414e-15
2.4199e-17
5.3418e-20
9.3977e-24
1.93494e-27
5.29266e-31
8.74762e-36
4.94172e-41
1.22198e-47
1.44132e-44
2.28843e-53
8.36617e-50
1.22813e-57
1.45315e-53
9.9742e-64
4.53918e-59
7.03892e-75
2.04229e-67
0.000258347
3.33607e-07
0.000612808
9.54373e-07
0.000354562
3.3565e-05
1.4373e-06
1.02924e-06
7.5223e-11
7.51932e-11
8.68957e-12
3.72099e-13
9.01388e-15
3.26997e-17
7.66673e-20
1.56051e-23
1.1473e-27
2.7324e-31
5.56624e-36
3.08429e-41
2.90212e-50
4.1027e-47
6.0417e-56
2.58119e-52
2.39749e-60
3.35779e-56
1.13411e-66
6.22191e-62
7.07383e-79
1.19829e-70
0.000856353
5.57588e-07
1.80565e-05
9.57108e-07
2.57569e-08
9.69431e-07
1.01214e-06
2.25307e-07
1.92201e-10
7.78432e-11
9.60253e-12
3.93484e-13
7.55614e-15
3.24793e-17
7.26239e-20
2.03246e-23
6.77749e-28
2.15951e-31
5.73466e-36
7.65522e-41
6.29097e-53
1.08219e-49
1.45671e-58
7.42547e-55
4.36875e-63
7.35571e-59
1.22152e-69
8.17215e-65
7.95661e-83
6.75582e-74
0.000992111
5.59354e-07
2.6809e-09
6.6558e-08
3.033e-08
2.66229e-07
2.22356e-08
1.48384e-08
1.64373e-09
1.1814e-10
1.00793e-11
2.70769e-13
4.3654e-15
2.09841e-17
4.31346e-20
1.52238e-23
2.25278e-28
6.37379e-32
1.7829e-36
2.76697e-41
1.24491e-55
2.66127e-52
3.20351e-61
1.99875e-57
7.39581e-66
1.52933e-61
1.24143e-72
1.02903e-67
1.0548e-86
3.66238e-77
0.000976285
-7.43285e-11
4.33121e-09
4.25523e-08
3.01238e-08
1.68242e-08
8.40808e-09
7.97245e-09
1.96085e-08
4.23508e-10
1.23533e-11
1.90493e-13
2.04243e-15
7.7486e-18
1.36673e-20
5.23608e-24
1.08089e-28
3.74968e-32
1.09223e-36
2.24281e-41
2.23944e-58
6.13232e-55
6.3933e-64
5.05009e-60
1.15481e-68
3.02068e-64
1.18559e-75
1.24264e-70
1.51355e-90
1.91001e-80
0.000547762
1.17995e-14
4.66027e-09
5.25046e-08
7.31451e-08
1.57615e-08
7.30987e-09
5.61379e-07
1.77507e-08
3.08871e-10
7.60598e-12
1.44496e-13
1.11202e-15
3.02244e-18
4.43343e-21
1.95022e-24
4.52482e-29
1.38961e-32
3.61022e-37
8.96996e-42
3.61879e-61
1.3291e-57
1.1446e-66
1.20059e-62
1.64498e-71
5.67012e-67
1.06108e-78
1.43872e-73
2.36753e-94
9.58169e-84
2.46562e-05
-1.67009e-08
1.00237e-08
7.40133e-08
3.11699e-07
1.40126e-08
7.086e-06
8.86376e-07
1.12582e-09
1.15237e-10
4.96127e-12
9.62587e-14
4.92956e-16
1.08518e-18
1.1622e-21
4.12611e-25
5.85967e-30
7.95428e-34
9.98664e-39
2.6641e-43
5.12988e-64
2.71932e-60
1.80429e-69
2.6926e-65
2.12054e-74
1.0122e-69
8.99314e-82
1.59718e-76
3.98182e-98
4.62441e-87
9.45146e-10
-8.70056e-08
-1.36136e-08
6.02476e-08
3.11101e-07
3.80267e-06
1.04164e-05
5.41548e-07
1.0074e-10
9.16831e-11
3.36704e-12
5.73014e-14
2.96083e-16
4.56793e-19
3.02728e-22
1.07783e-25
2.60473e-30
1.71953e-34
1.63306e-39
2.0405e-44
6.14697e-67
5.26916e-63
2.48222e-72
5.71048e-68
2.57934e-77
1.71945e-72
7.81398e-85
1.70011e-79
7.5716e-102
2.14722e-90
6.02528e-07
-1.46911e-08
-4.76094e-08
2.08852e-07
5.22259e-07
8.06912e-06
9.27575e-06
4.56372e-10
3.83413e-10
6.05993e-11
4.15856e-13
7.60081e-15
1.70937e-17
5.42751e-20
9.32831e-24
1.2248e-27
1.67772e-34
2.73319e-37
5.88452e-44
2.8456e-46
6.3538e-70
9.69671e-66
3.36574e-75
1.14738e-70
3.72281e-80
2.77971e-75
8.89343e-88
1.7344e-82
7.73257e-100
9.58576e-94
0.00382362
0.0031898
0.00270881
0.00226539
0.00190597
0.00158929
0.00132898
0.00110367
0.000917496
0.00075819
0.000626089
0.000514126
0.000421226
0.000342696
0.000277431
0.000222012
0.000175643
0.00013645
8.79034e-05
7.39306e-05
9.37316e-10
2.72159e-05
1.01812e-12
1.66656e-05
7.02693e-13
0.000178024
6.81336e-13
0.000931191
1.16693e-13
0.00242624
2.29209e-11
1.48259e-11
9.71445e-12
6.52375e-12
4.6254e-12
2.93777e-12
2.16618e-12
1.53701e-12
1.24371e-12
1.00837e-12
8.9929e-13
8.26755e-13
7.63123e-13
7.49199e-13
7.15761e-13
7.11837e-13
7.06053e-13
7.35417e-13
7.39905e-13
2.00103e-17
9.37314e-10
6.65992e-12
1.01804e-12
6.9509e-13
8.12596e-13
5.33771e-13
1.26603e-12
1.28886e-19
1.04832e-13
5.43144e-20
2.61336e-11
1.59247e-11
1.00802e-11
5.81415e-12
3.80612e-12
2.11644e-12
1.36693e-12
7.58316e-13
4.84262e-13
2.66619e-13
1.7367e-13
1.15623e-13
6.42341e-14
6.04262e-14
3.29279e-14
3.20295e-14
1.56398e-14
5.63402e-15
4.33916e-17
9.96e-18
1.32337e-19
7.17132e-20
2.35899e-20
1.98199e-19
2.21808e-20
3.69993e-15
7.69341e-18
1.21699e-19
3.2475e-20
5.43049e-20
5.37327e-14
2.4693e-14
1.43937e-14
6.26344e-15
3.73734e-15
1.59086e-15
9.36445e-16
4.12476e-16
2.4558e-16
1.05173e-16
6.97023e-17
4.36876e-17
1.87695e-17
1.46964e-17
3.67567e-18
8.348e-19
3.7395e-20
3.05474e-21
8.91929e-24
1.09698e-25
8.2012e-26
1.90753e-26
5.08379e-27
6.29906e-26
3.04778e-27
5.84606e-27
7.01976e-27
9.17532e-27
7.47124e-27
1.08079e-26
8.65549e-17
3.10318e-17
1.62997e-17
5.41523e-18
2.91699e-18
9.57921e-19
5.18846e-19
1.84984e-19
1.05393e-19
3.4341e-20
2.25246e-20
1.09349e-20
3.09045e-21
8.68179e-22
5.95454e-23
3.59195e-24
2.73282e-26
2.73202e-28
8.75829e-31
9.33092e-32
7.41627e-32
9.92574e-33
2.20813e-33
1.23065e-32
7.05254e-34
1.11565e-33
1.23691e-33
1.39517e-33
1.50985e-33
1.31974e-33
1.12683e-19
3.33117e-20
1.52859e-20
3.97999e-21
1.90958e-21
4.91564e-22
2.46845e-22
7.19165e-23
3.90763e-23
9.30032e-24
5.46178e-24
1.63165e-24
2.16962e-25
1.27041e-26
4.93133e-28
8.61826e-30
1.99515e-32
2.70427e-35
2.36469e-37
9.99299e-38
7.16336e-38
6.08633e-39
1.16993e-39
2.6265e-39
1.71056e-40
1.80043e-40
1.49853e-40
1.89301e-40
2.50718e-40
1.18671e-40
1.1933e-22
3.08238e-23
1.19516e-23
2.51893e-24
1.0576e-24
2.18087e-25
1.01542e-25
2.41252e-26
1.21509e-26
2.00774e-27
9.46769e-28
1.3072e-28
5.04425e-30
1.43396e-31
2.85645e-33
1.41134e-35
2.48468e-38
2.85297e-41
3.10371e-43
1.15191e-43
7.00189e-44
4.47623e-45
6.58634e-46
3.84383e-46
4.24252e-47
3.63501e-47
3.53646e-47
3.49835e-47
3.55137e-47
7.60723e-48
1.03606e-25
2.47502e-26
7.83014e-27
1.38368e-27
4.97064e-28
8.42136e-29
3.60634e-29
6.92407e-30
3.11149e-30
3.37645e-31
1.14754e-31
3.98871e-33
1.24034e-34
1.26149e-36
1.20316e-38
2.33583e-41
2.65029e-44
2.38406e-47
4.31709e-49
1.38473e-49
6.87933e-50
3.57248e-51
4.17863e-52
1.10865e-52
1.25169e-53
8.9093e-54
1.1979e-53
7.14616e-54
5.8257e-54
3.87965e-55
7.4425e-29
1.74281e-29
4.33221e-30
6.66888e-31
1.99523e-31
2.85667e-32
1.10788e-32
1.69792e-33
6.5312e-34
4.37234e-35
9.37766e-36
8.54158e-38
2.44518e-39
1.03652e-41
4.59845e-44
7.02148e-47
6.6331e-50
5.02204e-53
6.60615e-55
1.72857e-55
7.02043e-56
3.05782e-57
2.72554e-58
3.15136e-59
4.90073e-60
2.6128e-60
4.37771e-60
1.27892e-60
8.42598e-61
1.61203e-62
4.45922e-32
1.08912e-32
2.04109e-33
2.85447e-34
6.89669e-35
8.60308e-36
2.95568e-36
3.56924e-37
1.12526e-37
4.32059e-39
4.75541e-40
2.04293e-42
3.92996e-44
8.626e-47
1.8155e-49
2.24579e-52
1.90844e-55
1.31852e-58
1.05601e-60
2.20828e-61
7.22351e-62
2.71835e-63
1.9845e-64
1.52545e-65
2.50958e-66
7.04615e-67
1.41579e-66
1.5875e-67
7.71491e-68
5.77421e-70
2.24064e-35
6.10505e-36
8.24318e-37
1.09685e-37
2.06779e-38
2.32132e-39
6.87069e-40
6.46056e-41
1.59353e-41
3.20551e-43
1.46502e-44
4.31264e-47
5.56249e-49
8.20533e-52
9.12149e-55
8.06992e-58
5.7293e-61
3.48896e-64
1.74789e-66
2.90067e-67
7.70495e-68
2.57316e-69
1.53712e-70
7.63672e-72
1.11036e-72
1.39793e-73
3.45495e-73
1.56195e-74
4.78365e-75
1.83046e-77
9.46733e-39
3.0958e-39
2.86545e-40
3.81588e-41
5.40534e-42
5.64961e-43
1.39396e-43
1.01101e-44
1.85312e-45
1.73284e-47
4.66514e-49
8.57578e-52
7.07512e-54
8.77446e-57
6.72021e-60
4.08187e-63
2.15494e-66
1.0423e-69
2.99383e-72
3.87147e-73
8.30971e-74
2.50368e-75
1.26921e-76
4.64776e-78
6.25812e-79
2.24001e-80
6.19856e-80
1.99973e-81
4.10801e-82
5.28975e-85
3.3694e-42
1.43063e-42
8.59776e-44
1.21063e-44
1.23697e-45
1.24708e-46
2.47119e-47
1.37361e-48
1.76348e-49
6.46506e-52
1.63898e-53
1.89298e-56
8.79044e-59
9.84965e-62
6.48053e-65
3.19512e-68
1.3258e-71
4.95588e-75
5.88276e-78
5.27208e-79
9.21944e-80
2.55284e-81
1.10088e-82
2.89811e-84
3.23279e-85
4.48874e-87
9.60267e-87
2.57934e-88
3.4219e-89
1.42059e-92
1.01137e-45
6.0625e-46
2.23017e-47
3.52364e-48
2.48549e-49
2.50774e-50
3.83017e-51
1.62676e-52
1.36331e-53
1.79016e-56
5.27192e-58
4.69705e-61
1.0769e-63
1.06788e-66
6.45431e-70
2.89753e-73
1.07468e-76
3.49713e-80
1.72908e-83
7.30647e-85
1.03805e-85
2.67757e-87
9.75486e-89
1.9129e-90
1.86147e-91
1.03625e-93
1.43339e-93
3.62117e-95
2.69758e-96
3.60864e-100
2.55801e-49
2.36742e-49
5.00169e-51
9.45258e-52
4.39325e-53
4.60941e-54
5.1892e-55
1.68495e-56
8.45252e-58
5.72961e-61
1.53927e-62
1.20921e-65
1.39987e-68
1.13613e-71
6.22506e-75
2.58808e-78
8.90594e-82
2.66941e-85
8.39612e-89
1.03853e-90
1.18849e-91
2.88332e-93
8.82361e-95
1.33268e-96
1.09322e-97
2.55631e-100
2.18285e-100
5.03603e-102
2.05627e-103
8.79728e-108
5.31145e-53
8.55966e-53
9.69803e-55
2.34767e-55
6.84398e-57
7.77147e-58
6.14585e-59
1.53192e-60
4.11877e-62
2.10502e-65
4.19901e-67
3.05713e-70
2.08148e-73
1.25638e-76
5.92622e-80
2.23068e-83
7.06535e-87
1.95449e-90
5.07613e-94
1.55825e-96
1.37957e-97
3.16456e-99
8.07507e-101
9.92611e-103
6.46284e-104
7.90164e-107
3.93365e-107
6.91866e-109
1.53526e-110
2.09305e-115
9.24041e-57
2.87782e-56
1.62513e-58
5.42031e-59
9.41422e-61
1.20598e-61
6.36385e-63
1.22712e-64
1.66838e-66
8.2117e-70
1.08595e-71
7.40879e-75
3.57371e-78
1.54287e-81
5.85048e-85
1.9052e-88
5.40321e-92
1.35631e-95
3.1177e-99
2.70488e-102
1.62254e-103
3.51756e-105
7.46076e-107
7.73357e-109
3.87713e-110
3.00052e-113
9.7014e-114
9.42358e-116
1.12362e-117
4.97595e-123
1.29616e-60
9.02871e-60
2.35279e-62
1.16727e-62
1.14539e-64
1.72761e-65
5.76145e-67
8.6914e-69
6.7648e-71
3.1217e-74
2.63743e-76
1.68105e-79
6.59832e-83
2.14765e-86
6.3122e-90
1.68857e-93
4.11294e-97
9.09282e-101
1.84878e-104
6.364e-108
1.92853e-109
3.94062e-111
6.90658e-113
6.26738e-115
2.3789e-116
1.54299e-119
2.87523e-120
1.28026e-122
8.11812e-125
1.23387e-130
1.35303e-64
2.65307e-63
2.94803e-66
2.35308e-66
1.23611e-68
2.29264e-69
4.56609e-71
5.46796e-73
2.7207e-75
1.17072e-78
6.04006e-81
3.56109e-84
1.2217e-87
3.25647e-91
7.6099e-95
1.63565e-98
3.29237e-102
6.17532e-106
1.08251e-109
2.16027e-113
2.32014e-115
4.43448e-117
6.40434e-119
5.19256e-121
1.50929e-122
9.08069e-126
9.32984e-127
1.74055e-129
5.97515e-132
3.43378e-138
8.87322e-69
7.32731e-67
3.21854e-70
4.45576e-70
1.18846e-72
2.82864e-73
3.17648e-75
3.07266e-77
1.10072e-79
4.38576e-83
1.33555e-85
7.15701e-89
2.19841e-92
5.06127e-96
9.86707e-100
1.73494e-103
2.85334e-107
4.41709e-111
6.47398e-115
9.36968e-119
2.85628e-121
4.99011e-123
5.94245e-125
4.36015e-127
9.78642e-129
5.53412e-132
3.27624e-133
2.38956e-136
4.4936e-139
1.15525e-145
3.99606e-73
1.90745e-70
3.1211e-74
7.94846e-74
1.02468e-76
3.25542e-77
1.94935e-79
1.55252e-81
4.69523e-84
1.68396e-87
2.88834e-90
1.37135e-93
3.77661e-97
7.68161e-101
1.29432e-104
1.92413e-108
2.63215e-112
3.36025e-116
4.0559e-120
4.61213e-124
3.75412e-127
5.60146e-129
5.50824e-131
3.69846e-133
6.513e-135
3.40749e-138
1.1839e-139
3.60351e-143
3.36102e-146
4.75035e-153
2.11636e-77
4.69506e-74
2.82444e-78
1.34009e-77
8.01425e-81
3.50844e-81
1.06547e-83
7.11781e-86
1.97658e-88
6.34148e-92
6.2016e-95
2.52403e-98
6.16065e-102
1.10909e-105
1.63689e-109
2.10097e-113
2.44352e-117
2.6138e-121
2.61318e-125
2.40438e-129
5.92956e-133
6.25946e-135
5.08975e-137
3.14563e-139
4.35727e-141
2.13149e-144
4.3696e-146
6.96723e-150
2.50644e-153
2.4076e-160
1.76831e-81
1.09602e-77
2.6325e-82
2.14223e-81
5.79399e-85
3.5552e-85
5.28704e-88
2.99626e-90
8.00073e-93
2.27911e-96
1.3295e-99
4.46535e-103
9.47469e-107
1.49454e-110
1.927e-114
2.1445e-118
2.14095e-122
1.94245e-126
1.62676e-130
1.23249e-134
1.30653e-138
6.96252e-141
4.68089e-143
2.67524e-145
2.91519e-147
1.36807e-150
1.61374e-152
1.79336e-156
1.99622e-160
1.46491e-167
1.74914e-85
2.43252e-81
2.83513e-86
3.25574e-85
3.98372e-89
3.40015e-89
2.66409e-92
1.17532e-94
3.10448e-97
7.74132e-101
2.86351e-104
7.63572e-108
1.37185e-111
1.85995e-115
2.06522e-119
1.97317e-123
1.6817e-127
1.29223e-131
9.0797e-136
5.6983e-140
3.72625e-144
7.71665e-147
4.28116e-149
2.26949e-151
1.94676e-153
8.89254e-157
5.89477e-159
5.08802e-163
1.78029e-167
9.58409e-175
1.6905e-89
5.14717e-85
3.66505e-90
4.71893e-89
2.7059e-93
3.08255e-93
1.34526e-96
4.37434e-99
1.16269e-101
2.48045e-105
6.16058e-109
1.26078e-112
1.85769e-116
2.10687e-120
1.96703e-124
1.57975e-128
1.12852e-132
7.2324e-137
4.21115e-141
2.17021e-145
1.04639e-149
8.5366e-153
3.89203e-155
1.91639e-157
1.2956e-159
5.79068e-163
2.12579e-165
1.51677e-169
1.73777e-174
5.74587e-182
1.58392e-93
1.0412e-88
5.17521e-94
6.54314e-93
1.88224e-97
2.66104e-97
6.83112e-101
1.57552e-103
4.22195e-106
7.45517e-110
1.29704e-113
1.98428e-117
2.31162e-121
2.11591e-125
1.60494e-129
1.04841e-133
6.08423e-138
3.15783e-142
1.48266e-146
6.12139e-151
2.27454e-155
9.32967e-159
3.51344e-161
1.60196e-163
8.60229e-166
3.68512e-169
7.93766e-172
4.70873e-176
1.76048e-181
2.13071e-189
1.36825e-97
2.01783e-92
7.11286e-98
8.70181e-97
1.36392e-101
2.19641e-101
3.49787e-105
5.59316e-108
1.49541e-110
2.08101e-114
2.58161e-118
2.88274e-122
2.54218e-126
1.78912e-130
1.04903e-134
5.30351e-139
2.38034e-143
9.53504e-148
3.44484e-152
1.08927e-156
3.06523e-161
9.75423e-165
3.14372e-167
1.32264e-169
5.67367e-172
2.26436e-175
2.99777e-178
1.40643e-182
1.66424e-188
3.43806e-197
7.72625e-102
3.75572e-96
9.03156e-102
1.11329e-100
1.02671e-105
1.74134e-105
1.79186e-109
1.98891e-112
5.18448e-115
5.27446e-119
4.63499e-123
3.66359e-127
2.30197e-131
1.1564e-135
4.83799e-140
1.74348e-144
5.56994e-149
1.58515e-153
4.0593e-158
9.06733e-163
1.84386e-167
9.66286e-171
2.79056e-173
1.07833e-175
3.73384e-178
1.35112e-181
1.1676e-184
4.04025e-189
1.46544e-195
1.63713e-204
3.96033e-106
6.72845e-100
9.83259e-106
1.374e-104
7.53755e-110
1.33206e-109
9.16857e-114
7.20772e-117
1.77033e-119
1.16193e-123
6.99579e-128
3.65242e-132
1.44861e-136
4.48299e-141
1.14123e-145
2.48712e-150
4.78638e-155
8.18269e-160
1.25578e-164
1.6774e-169
3.06754e-174
9.54758e-177
2.44696e-179
8.67269e-182
2.42282e-184
7.78678e-188
4.57908e-191
1.12113e-195
1.20036e-202
6.92879e-212
5.52624e-110
1.16177e-103
3.30307e-110
1.63822e-108
5.17358e-114
9.87334e-114
4.64382e-118
2.66912e-121
5.96827e-124
1.80379e-128
7.63314e-133
2.00917e-137
3.23659e-142
3.7308e-147
3.39698e-152
2.5945e-157
1.73168e-162
1.01899e-167
5.36665e-173
3.79071e-178
1.27254e-180
9.54474e-183
2.13288e-185
6.94255e-188
1.56475e-190
4.38184e-194
1.74579e-197
2.78467e-202
9.40417e-210
2.19237e-219
)
;

boundaryField
{
    symmetryAxis
    {
        type            symmetryPlane;
    }
    rightWall
    {
        type            zeroGradient;
    }
    lowerWall
    {
        type            zeroGradient;
    }
    atmosphere
    {
        type            inletOutlet;
        inletValue      uniform 0;
        value           nonuniform List<scalar> 
90
(
6.02528e-07
-1.46911e-08
-4.76094e-08
2.08852e-07
5.22259e-07
8.06912e-06
9.27575e-06
4.56372e-10
3.83413e-10
6.05993e-11
0
0
0
0
0
0
0
0
0
2.8456e-46
0
9.69671e-66
0
1.14738e-70
0
2.77971e-75
0
1.7344e-82
0
9.58576e-94
0
1.16177e-103
0
1.63822e-108
0
9.87334e-114
0
0
0
0
0
0
0
0
0
0
0
0
0
0
0
0
0
0
0
0
0
0
0
0
0.00242624
5.43144e-20
0
0
0
0
0
0
0
0
0
0
0
0
0
0
0
0
0
0
0
0
0
0
0
0
0
0
0
0
)
;
    }
    frontAndBack
    {
        type            empty;
    }
    frontAndBack_pos
    {
        type            wedge;
    }
    frontAndBack_neg
    {
        type            wedge;
    }
}


// ************************************************************************* //
