/*--------------------------------*- C++ -*----------------------------------*\
| =========                 |                                                 |
| \\      /  F ield         | OpenFOAM: The Open Source CFD Toolbox           |
|  \\    /   O peration     | Version:  2.4.0                                 |
|   \\  /    A nd           | Web:      www.OpenFOAM.org                      |
|    \\/     M anipulation  |                                                 |
\*---------------------------------------------------------------------------*/
FoamFile
{
    version     2.0;
    format      ascii;
    class       surfaceScalarField;
    location    "0.115";
    object      phiAlpha;
}
// * * * * * * * * * * * * * * * * * * * * * * * * * * * * * * * * * * * * * //

dimensions      [0 3 -1 0 0 0 0];

internalField   nonuniform List<scalar> 
7080
(
4.82343e-13
-4.82358e-13
1.85876e-12
-1.37618e-12
3.24375e-12
-1.38491e-12
5.86385e-12
-2.61996e-12
7.56857e-12
-1.70462e-12
1.30095e-11
-5.44263e-12
1.35001e-11
-4.90737e-13
2.33177e-11
-9.81729e-12
1.95752e-11
3.74187e-12
3.55101e-11
-1.59351e-11
2.37564e-11
1.17528e-11
4.46255e-11
-2.08686e-11
2.37864e-11
2.08387e-11
4.46563e-11
-2.08691e-11
2.08567e-11
2.38014e-11
3.60395e-11
-1.51801e-11
2.30059e-11
1.30371e-11
2.70557e-11
-4.04554e-12
1.50671e-11
1.19926e-11
-8.75927e-12
2.38337e-11
-1.13397e-10
1.04637e-10
-3.65538e-10
2.52158e-10
-5.15218e-10
1.49666e-10
-4.85738e-10
-2.94529e-11
-2.32499e-10
-2.53271e-10
-1.44757e-11
-2.1798e-10
9.86143e-11
-1.13134e-10
1.43198e-10
-4.45391e-11
1.26337e-10
1.68226e-11
2.56319e-11
1.00735e-10
1.48301e-15
-4.8384e-13
-7.43547e-15
-1.36694e-12
-9.42141e-14
-1.29794e-12
-6.89198e-14
-2.64507e-12
-7.73739e-13
-9.99461e-13
4.93354e-13
-6.71099e-12
-1.94967e-12
1.95174e-12
2.47498e-12
-1.42423e-11
-6.09254e-12
1.23084e-11
1.36378e-12
-2.33921e-11
-1.92931e-11
3.24088e-11
-1.02461e-11
-2.99153e-11
-4.60516e-11
5.66469e-11
-3.92401e-11
-2.76777e-11
-8.29847e-11
6.75513e-11
-8.03129e-11
-1.78452e-11
-1.10836e-10
4.3569e-11
-1.15817e-10
9.43543e-13
-1.41253e-10
3.74329e-11
-1.70234e-10
5.28353e-11
-2.92924e-10
2.27312e-10
-5.38555e-10
4.97834e-10
-6.30419e-10
2.41485e-10
-5.14006e-10
-1.45797e-10
-1.91116e-10
-5.76235e-10
7.16852e-11
-4.80695e-10
1.85658e-10
-2.27189e-10
2.21663e-10
-8.04704e-11
1.83951e-10
5.44759e-11
6.72294e-11
1.42407e-10
-5.92047e-14
-4.24639e-13
-3.16058e-13
-1.10992e-12
-7.60771e-13
-8.53304e-13
-8.63395e-13
-2.54266e-12
-2.33122e-12
4.6834e-13
-1.62432e-12
-7.41962e-12
-6.63179e-12
6.95822e-12
-3.59455e-12
-1.72806e-11
-1.74023e-11
2.61148e-11
-1.15412e-11
-2.92545e-11
-3.99141e-11
6.07802e-11
-3.34075e-11
-3.64226e-11
-7.75291e-11
1.00771e-10
-7.47782e-11
-3.04266e-11
-1.24988e-10
1.17765e-10
-1.23886e-10
-1.8941e-11
-1.55769e-10
7.54607e-11
-1.57017e-10
2.19903e-12
-1.77713e-10
5.81326e-11
-1.96536e-10
7.16785e-11
-3.10396e-10
3.41158e-10
-5.47222e-10
7.34705e-10
-6.28077e-10
3.22295e-10
-4.96691e-10
-2.77115e-10
-1.67021e-10
-9.05979e-10
9.84037e-11
-7.46035e-10
2.07108e-10
-3.35974e-10
2.37763e-10
-1.11052e-10
1.94769e-10
9.74117e-11
1.09506e-10
1.52546e-10
1.8114e-13
-6.0582e-13
4.46613e-13
-1.37536e-12
3.57948e-13
-7.65119e-13
6.98478e-13
-2.88396e-12
-6.11035e-13
1.77709e-12
-1.05313e-13
-7.92808e-12
-5.53766e-12
1.23886e-11
-3.02379e-12
-1.97963e-11
-1.80388e-11
4.11274e-11
-1.27989e-11
-3.44965e-11
-4.34412e-11
9.14201e-11
-3.79124e-11
-4.19528e-11
-8.46e-11
1.4746e-10
-8.20355e-11
-3.29897e-11
-1.3324e-10
1.68974e-10
-1.31782e-10
-2.03941e-11
-1.61834e-10
1.0552e-10
-1.61513e-10
1.88486e-12
-1.78274e-10
7.48967e-11
-1.92153e-10
8.55781e-11
-3.05097e-10
4.54087e-10
-5.48013e-10
9.77665e-10
-6.31857e-10
4.06094e-10
-4.95684e-10
-4.13222e-10
-1.60489e-10
-1.24125e-09
1.0686e-10
-1.0133e-09
2.13209e-10
-4.42402e-10
2.41521e-10
-1.39291e-10
1.96526e-10
1.42349e-10
1.54894e-10
1.51191e-10
1.7314e-13
-7.79076e-13
5.83381e-13
-1.78579e-12
9.15433e-13
-1.09814e-12
1.7763e-12
-3.74629e-12
1.04139e-12
2.51031e-12
2.74698e-12
-9.63775e-12
-3.04109e-12
1.81735e-11
8.82449e-14
-2.29285e-11
-1.6165e-11
5.73772e-11
-9.83992e-12
-4.08247e-11
-4.20764e-11
1.23653e-10
-3.59145e-11
-4.81168e-11
-8.36133e-11
1.9516e-10
-8.29366e-11
-3.36657e-11
-1.3447e-10
2.20511e-10
-1.3425e-10
-2.06085e-11
-1.62151e-10
1.33429e-10
-1.61662e-10
1.40276e-12
-1.7499e-10
8.82264e-11
-1.8494e-10
9.5548e-11
-2.99644e-10
5.68776e-10
-5.53926e-10
1.23199e-09
-6.43282e-10
4.95406e-10
-5.016e-10
-5.54839e-10
-1.57986e-10
-1.58493e-09
1.12725e-10
-1.28393e-09
2.17234e-10
-5.46988e-10
2.4344e-10
-1.65427e-10
1.97112e-10
1.88621e-10
2.01732e-10
1.50327e-10
1.44916e-13
-9.24224e-13
5.43018e-13
-2.1844e-12
6.82766e-13
-1.23946e-12
1.72882e-12
-4.79464e-12
6.83402e-13
3.55304e-12
2.79452e-12
-1.17542e-11
-3.22355e-12
2.4187e-11
7.52785e-13
-2.69089e-11
-1.59192e-11
7.40445e-11
-9.12213e-12
-4.76259e-11
-4.27915e-11
1.57318e-10
-3.69097e-11
-5.40013e-11
-8.67966e-11
2.45047e-10
-8.5434e-11
-3.50281e-11
-1.37962e-10
2.73042e-10
-1.37202e-10
-2.13641e-11
-1.63055e-10
1.59288e-10
-1.61636e-10
-9.1239e-15
-1.7125e-10
9.78427e-11
-1.76585e-10
1.00903e-10
-2.93951e-10
6.86126e-10
-5.63008e-10
1.50109e-09
-6.59238e-10
5.91593e-10
-5.10309e-10
-7.03704e-10
-1.55728e-10
-1.93958e-09
1.19372e-10
-1.55895e-09
2.21709e-10
-6.49401e-10
2.45375e-10
-1.89025e-10
1.97639e-10
2.36302e-10
2.49421e-10
1.50003e-10
1.93027e-13
-1.1176e-12
8.44727e-13
-2.83693e-12
1.61802e-12
-2.01499e-12
3.55199e-12
-6.7318e-12
3.26906e-12
3.83213e-12
6.99236e-12
-1.54845e-11
5.28894e-13
3.06446e-11
6.86302e-12
-3.32485e-11
-1.31408e-11
9.40424e-11
-4.25081e-12
-5.6521e-11
-4.04008e-11
1.93462e-10
-3.33958e-11
-6.10095e-11
-8.45196e-11
2.9617e-10
-8.64651e-11
-3.3083e-11
-1.3949e-10
3.26069e-10
-1.41219e-10
-1.96306e-11
-1.63667e-10
1.81742e-10
-1.62925e-10
-7.44512e-13
-1.67623e-10
1.02542e-10
-1.66696e-10
9.99956e-11
-2.87159e-10
8.06574e-10
-5.74477e-10
1.78845e-09
-6.79049e-10
6.96122e-10
-5.21018e-10
-8.61672e-10
-1.52972e-10
-2.30769e-09
1.27433e-10
-1.83928e-09
2.27074e-10
-7.49116e-10
2.47637e-10
-2.0952e-10
1.98247e-10
2.85638e-10
2.97898e-10
1.4982e-10
1.3167e-13
-1.24978e-12
8.30992e-13
-3.53744e-12
1.49229e-12
-2.67921e-12
4.02785e-12
-9.27151e-12
2.98505e-12
4.87001e-12
7.51051e-12
-2.00184e-11
2.44324e-13
3.79036e-11
7.31332e-12
-4.0324e-11
-1.36405e-11
1.14989e-10
-4.50901e-12
-6.56585e-11
-4.22856e-11
2.31231e-10
-3.602e-11
-6.72788e-11
-9.0453e-11
3.50601e-10
-9.12922e-11
-3.22448e-11
-1.45995e-10
3.80774e-10
-1.46395e-10
-1.92267e-11
-1.65768e-10
2.01122e-10
-1.63235e-10
-3.27069e-12
-1.62229e-10
1.01536e-10
-1.54347e-10
9.21342e-11
-2.78861e-10
9.31072e-10
-5.88239e-10
2.09787e-09
-7.0278e-10
8.10621e-10
-5.33649e-10
-1.03074e-09
-1.49543e-10
-2.69186e-09
1.37061e-10
-2.12581e-09
2.33405e-10
-8.45533e-10
2.50262e-10
-2.26311e-10
1.98938e-10
3.3691e-10
3.47242e-10
1.49643e-10
1.88545e-13
-1.43897e-12
1.33641e-12
-4.68677e-12
3.17672e-12
-4.5231e-12
7.36988e-12
-1.34696e-11
7.71371e-12
4.52021e-12
1.46976e-11
-2.70128e-11
6.02288e-12
4.65703e-11
1.71537e-11
-5.14621e-11
-8.69533e-12
1.40829e-10
4.07072e-12
-7.8431e-11
-3.82693e-11
2.73562e-10
-3.05798e-11
-7.49721e-11
-8.63863e-11
4.06406e-10
-9.28478e-11
-2.57847e-11
-1.47907e-10
4.35835e-10
-1.52382e-10
-1.47477e-11
-1.67052e-10
2.15797e-10
-1.65696e-10
-4.6201e-12
-1.58164e-10
9.40039e-11
-1.403e-10
7.42904e-11
-2.68705e-10
1.05946e-09
-6.04326e-10
2.43353e-09
-7.30615e-10
9.36869e-10
-5.48213e-10
-1.21309e-09
-1.45339e-10
-3.0948e-09
1.48336e-10
-2.41941e-09
2.40706e-10
-9.37972e-10
2.53224e-10
-2.38766e-10
1.99681e-10
3.90401e-10
3.97566e-10
1.49404e-10
3.52874e-13
-1.79264e-12
1.99365e-12
-6.32918e-12
3.56647e-12
-6.1e-12
8.79964e-12
-1.87082e-11
7.12736e-12
6.18588e-12
1.5792e-11
-3.5689e-11
5.39297e-12
5.69604e-11
1.74242e-11
-6.35012e-11
-1.06868e-11
1.68931e-10
4.92563e-13
-8.96166e-11
-4.20708e-11
3.16116e-10
-3.59628e-11
-8.10854e-11
-9.62746e-11
4.66715e-10
-1.00809e-10
-2.12522e-11
-1.58412e-10
4.9344e-10
-1.60285e-10
-1.28706e-11
-1.69705e-10
2.25222e-10
-1.65944e-10
-8.37451e-12
-1.50113e-10
7.81727e-11
-1.22423e-10
4.6621e-11
-2.56025e-10
1.19305e-09
-6.22916e-10
2.80046e-09
-7.62941e-10
1.07685e-09
-5.64849e-10
-1.41112e-09
-1.40281e-10
-3.51943e-09
1.6137e-10
-2.72099e-09
2.49021e-10
-1.02569e-09
2.56535e-10
-2.46219e-10
2.00485e-10
4.46403e-10
4.48988e-10
1.49109e-10
6.2831e-13
-2.42184e-12
3.03652e-12
-8.7391e-12
5.69839e-12
-8.76633e-12
1.30608e-11
-2.60766e-11
1.45374e-11
4.70218e-12
2.80372e-11
-4.9202e-11
1.61215e-11
6.88669e-11
3.35361e-11
-8.09234e-11
-1.64085e-12
2.04098e-10
1.59289e-11
-1.07192e-10
-3.47237e-11
3.6676e-10
-2.7047e-11
-8.87679e-11
-8.86699e-11
5.28335e-10
-1.02543e-10
-7.3808e-12
-1.60368e-10
5.51266e-10
-1.68457e-10
-4.77811e-12
-1.72317e-10
2.29086e-10
-1.70346e-10
-1.03386e-11
-1.46216e-10
5.40416e-11
-1.03399e-10
3.82454e-12
-2.39703e-10
1.32934e-09
-6.44174e-10
3.20497e-09
-8.00153e-10
1.23279e-09
-5.83671e-10
-1.62755e-09
-1.34267e-10
-3.9689e-09
1.76276e-10
-3.03146e-09
2.58376e-10
-1.10786e-09
2.60184e-10
-2.47968e-10
2.01337e-10
5.05203e-10
5.01612e-10
1.48757e-10
1.0431e-12
-3.46596e-12
4.72068e-12
-1.24181e-11
7.28394e-12
-1.13341e-11
1.8574e-11
-3.73728e-11
1.67096e-11
6.55982e-12
3.31944e-11
-6.57004e-11
1.60459e-11
8.60066e-11
3.2674e-11
-9.75585e-11
-7.2615e-12
2.44024e-10
6.49144e-12
-1.20952e-10
-4.28459e-11
4.1609e-10
-3.77687e-11
-9.3851e-11
-1.04941e-10
5.95505e-10
-1.15049e-10
2.7248e-12
-1.76188e-10
6.12406e-10
-1.7987e-10
-1.09213e-12
-1.74865e-10
2.24085e-10
-1.69797e-10
-1.53995e-11
-1.34755e-10
1.8998e-11
-7.81718e-11
-5.27386e-11
-2.21048e-10
1.4722e-09
-6.68202e-10
3.65216e-09
-8.42632e-10
1.40719e-09
-6.04753e-10
-1.86537e-09
-1.27163e-10
-4.44654e-09
1.93167e-10
-3.35173e-09
2.68773e-10
-1.18352e-09
2.64131e-10
-2.43269e-10
2.02207e-10
5.67082e-10
5.5553e-10
1.4833e-10
1.97515e-12
-5.44204e-12
8.40456e-12
-1.88485e-11
1.45199e-11
-1.74538e-11
3.16212e-11
-5.44795e-11
3.4399e-11
3.77568e-12
5.60349e-11
-8.73511e-11
3.36262e-11
1.08408e-10
5.76209e-11
-1.21558e-10
6.61842e-12
2.95019e-10
2.94991e-11
-1.43838e-10
-2.86189e-11
4.74201e-10
-2.26663e-11
-9.9809e-11
-9.08262e-11
6.63662e-10
-1.16539e-10
2.84355e-11
-1.78296e-10
6.74164e-10
-1.90687e-10
1.13021e-11
-1.79748e-10
2.1315e-10
-1.77664e-10
-1.74774e-11
-1.31934e-10
-2.67343e-11
-5.31358e-11
-1.31516e-10
-2.00755e-10
1.6198e-09
-6.95317e-10
4.14676e-09
-8.90974e-10
1.60281e-09
-6.28294e-10
-2.128e-09
-1.18844e-10
-4.95605e-09
2.12207e-10
-3.68271e-09
2.80266e-10
-1.25164e-09
2.6838e-10
-2.31328e-10
2.03099e-10
6.32319e-10
6.1084e-10
1.47829e-10
3.81792e-12
-9.26057e-12
1.51928e-11
-3.02233e-11
2.01811e-11
-2.24454e-11
4.59811e-11
-8.02834e-11
4.01861e-11
9.56594e-12
6.45336e-11
-1.11712e-10
3.2915e-11
1.40021e-10
5.26241e-11
-1.4127e-10
-5.26715e-12
3.52905e-10
6.49794e-12
-1.55608e-10
-4.66942e-11
5.27387e-10
-4.30966e-11
-1.03412e-10
-1.17227e-10
7.37791e-10
-1.35013e-10
4.6219e-11
-2.00401e-10
7.39554e-10
-2.06571e-10
1.74749e-11
-1.81279e-10
1.87862e-10
-1.75052e-10
-2.36978e-11
-1.16128e-10
-8.56607e-11
-1.85899e-11
-2.29034e-10
-1.76713e-10
1.77791e-09
-7.25699e-10
4.69579e-09
-9.45749e-10
1.82282e-09
-6.54462e-10
-2.41924e-09
-1.09153e-10
-5.50141e-09
2.33566e-10
-4.02537e-09
2.92889e-10
-1.31102e-09
2.7291e-10
-2.11297e-10
2.04001e-10
7.01187e-10
6.67633e-10
1.47245e-10
7.29767e-12
-1.65579e-11
2.62994e-11
-4.92234e-11
3.44117e-11
-3.05592e-11
6.89604e-11
-1.14833e-10
6.78382e-11
1.06853e-11
9.98014e-11
-1.43688e-10
5.97177e-11
1.80102e-10
9.19188e-11
-1.7347e-10
1.63318e-11
4.2849e-10
4.16045e-11
-1.80882e-10
-1.77193e-11
5.86708e-10
-1.60666e-11
-1.05068e-10
-9.14765e-11
8.13198e-10
-1.35988e-10
9.07284e-11
-2.03815e-10
8.07382e-10
-2.20885e-10
3.45483e-11
-1.89584e-10
1.56564e-10
-1.88657e-10
-2.46173e-11
-1.15596e-10
-1.58726e-10
1.4945e-11
-3.59554e-10
-1.49906e-10
1.94274e-09
-7.59692e-10
5.30561e-09
-1.0076e-09
2.0707e-09
-6.83378e-10
-2.74342e-09
-9.79013e-11
-6.08694e-09
2.57417e-10
-4.38063e-09
3.0665e-10
-1.36031e-09
2.77673e-10
-1.82271e-10
2.04877e-10
7.73944e-10
7.25972e-10
1.46573e-10
1.66427e-11
-3.31989e-11
5.75826e-11
-9.01593e-11
4.96767e-11
-2.26531e-11
1.01882e-10
-1.67036e-10
8.75366e-11
2.50312e-11
1.16664e-10
-1.72826e-10
6.01105e-11
2.3666e-10
7.46941e-11
-1.88048e-10
-1.26289e-11
5.15812e-10
-8.22686e-12
-1.85283e-10
-5.55151e-11
6.33994e-10
-5.14675e-11
-1.09117e-10
-1.32825e-10
8.94556e-10
-1.62147e-10
1.2005e-10
-2.33057e-10
8.78293e-10
-2.42029e-10
4.35242e-11
-1.88933e-10
1.0347e-10
-1.82464e-10
-3.10785e-11
-9.44357e-11
-2.46759e-10
6.44154e-11
-5.18385e-10
-1.17133e-10
2.12428e-09
-7.97453e-10
5.98596e-09
-1.07723e-09
2.35045e-09
-7.15304e-10
-3.10531e-09
-8.49013e-11
-6.71739e-09
2.84e-10
-4.74948e-09
3.21613e-10
-1.39798e-09
2.82664e-10
-1.43276e-10
2.05727e-10
8.50845e-10
7.85891e-10
1.45841e-10
1.80748e-11
-5.1142e-11
8.10361e-11
-1.52947e-10
8.11555e-11
-2.27661e-11
1.54409e-10
-2.40285e-10
1.43871e-10
3.55732e-11
1.82952e-10
-2.11917e-10
1.00836e-10
3.18786e-10
1.31369e-10
-2.18567e-10
2.11423e-11
6.26045e-10
4.17602e-11
-2.05894e-10
2.05612e-12
6.73699e-10
-4.41653e-12
-1.02644e-10
-8.87853e-11
9.78924e-10
-1.6213e-10
1.93393e-10
-2.39722e-10
9.55887e-10
-2.61706e-10
6.55116e-11
-2.01605e-10
4.33716e-11
-2.04087e-10
-2.85891e-11
-9.81076e-11
-3.52744e-10
1.06558e-10
-7.2303e-10
-8.14935e-11
2.31231e-09
-8.39812e-10
6.74431e-09
-1.15586e-09
2.66646e-09
-7.50481e-10
-3.51064e-09
-6.99309e-11
-7.39798e-09
3.13578e-10
-5.13294e-09
3.37817e-10
-1.42226e-09
2.87851e-10
-9.32658e-11
2.0653e-10
9.32132e-10
8.47407e-10
1.45045e-10
-7.69271e-12
-4.30263e-11
1.53488e-11
-1.74537e-10
3.01613e-11
-3.75384e-11
2.13034e-10
-4.23147e-10
2.02767e-10
4.5852e-11
2.0459e-10
-2.1374e-10
8.93436e-11
4.3405e-10
7.43442e-11
-2.03549e-10
-4.91912e-11
7.49592e-10
-5.65131e-11
-1.98563e-10
-7.2775e-11
6.89968e-10
-6.00087e-11
-1.15409e-10
-1.51432e-10
1.07035e-09
-1.98257e-10
2.40218e-10
-2.76321e-10
1.03395e-09
-2.8828e-10
7.74749e-11
-1.97767e-10
-4.71395e-11
-1.93578e-10
-3.27689e-11
-7.01956e-11
-4.76133e-10
1.70564e-10
-9.63769e-10
-3.7095e-11
2.51996e-09
-8.86395e-10
7.59364e-09
-1.24367e-09
3.02371e-09
-7.89049e-10
-3.96522e-09
-5.27468e-11
-8.13432e-09
3.46442e-10
-5.53208e-09
3.55273e-10
-1.43114e-09
2.9317e-10
-3.11228e-11
2.07242e-10
1.01803e-09
9.10517e-10
1.4416e-10
-2.18038e-12
-4.08324e-11
-2.05528e-11
-1.56103e-10
3.66106e-11
-9.46679e-11
3.45371e-10
-7.31159e-10
3.05163e-10
8.6162e-11
3.14245e-10
-2.2282e-10
1.35212e-10
6.13111e-10
1.425e-10
-2.10809e-10
1.09473e-11
8.81156e-10
1.48318e-11
-2.02433e-10
3.35752e-11
6.71233e-10
2.68196e-11
-1.08648e-10
-8.02732e-11
1.17744e-09
-1.96845e-10
3.56791e-10
-2.89906e-10
1.12702e-09
-3.16592e-10
1.04166e-10
-2.14978e-10
-1.48752e-10
-2.24783e-10
-2.29557e-11
-8.09892e-11
-6.19935e-10
2.22419e-10
-1.26716e-09
9.13947e-12
2.73323e-09
-9.38973e-10
8.54178e-09
-1.34319e-09
3.4279e-09
-8.31527e-10
-4.47685e-09
-3.31245e-11
-8.93277e-09
3.83131e-10
-5.94829e-09
3.74048e-10
-1.4221e-09
2.98607e-10
4.4356e-11
2.07855e-10
1.10875e-09
9.75212e-10
1.43187e-10
2.6687e-11
-6.75036e-11
4.8274e-11
-1.77617e-10
1.88614e-11
-6.45976e-11
4.2922e-10
-1.14105e-09
4.00433e-10
1.15215e-10
2.96457e-10
-1.18844e-10
5.06953e-11
8.58838e-10
-2.65658e-11
-1.33508e-10
-1.44739e-10
9.99354e-10
-1.63092e-10
-1.8406e-10
-9.86894e-11
6.06842e-10
-6.00149e-11
-1.47316e-10
-1.71069e-10
1.2885e-09
-2.45054e-10
4.30778e-10
-3.31276e-10
1.21324e-09
-3.47838e-10
1.20732e-10
-2.07438e-10
-2.89151e-10
-2.10625e-10
-1.97594e-11
-4.50728e-11
-7.85496e-10
3.10784e-10
-1.62299e-09
7.70927e-11
2.9669e-09
-9.96364e-10
9.61527e-09
-1.45341e-09
3.88492e-09
-8.77677e-10
-5.05256e-09
-1.09814e-11
-9.7995e-09
4.25127e-10
-6.38436e-09
3.94187e-10
-1.3912e-09
3.04104e-10
1.34473e-10
2.08337e-10
1.20449e-09
1.04146e-09
1.42109e-10
2.13001e-11
-8.87915e-11
1.0506e-10
-2.61303e-10
1.2204e-10
-8.04119e-11
4.61951e-10
-1.48215e-09
3.50358e-10
2.26741e-10
3.35255e-10
-1.03716e-10
3.06731e-11
1.16344e-09
-1.03093e-11
-9.2479e-11
-6.28229e-11
1.05192e-09
-6.87009e-11
-1.78158e-10
7.95732e-11
4.58581e-10
9.94092e-11
-1.67141e-10
-5.44751e-11
1.44239e-09
-2.4248e-10
6.18786e-10
-3.53786e-10
1.32455e-09
-3.89745e-10
1.56696e-10
-2.28565e-10
-4.50329e-10
-2.5246e-10
4.14453e-12
-6.74154e-11
-9.70547e-10
3.75168e-10
-2.06556e-09
1.44753e-10
3.19731e-09
-1.06159e-09
1.08216e-08
-1.5796e-09
4.40291e-09
-9.29156e-10
-5.70297e-09
1.66237e-11
-1.07453e-08
4.70235e-10
-6.83793e-09
4.15703e-10
-1.3367e-09
3.09581e-10
2.40627e-10
2.08639e-10
1.30541e-09
1.10922e-09
1.409e-10
-1.15373e-11
-7.7248e-11
1.15085e-10
-3.87867e-10
1.61057e-10
-1.24544e-10
2.45277e-10
-1.56589e-09
5.12942e-11
4.20685e-10
-3.69611e-12
-4.86543e-11
-9.95031e-11
1.2593e-09
-2.73835e-10
8.18921e-11
-3.06821e-10
1.08496e-09
-3.51187e-10
-1.33765e-10
-1.22395e-10
2.29808e-10
-1.53245e-11
-2.742e-10
-1.81387e-10
1.60846e-09
-3.06355e-10
7.43758e-10
-3.93464e-10
1.41166e-09
-4.2479e-10
1.88027e-10
-2.17119e-10
-6.57999e-10
-2.36656e-10
2.36905e-11
-2.36173e-11
-1.18359e-09
4.96341e-10
-2.5855e-09
2.37368e-10
3.45627e-09
-1.13224e-09
1.21913e-08
-1.71741e-09
4.98806e-09
-9.83599e-10
-6.43676e-09
4.90925e-11
-1.1778e-08
5.19198e-10
-7.308e-09
4.38621e-10
-1.25616e-09
3.14978e-10
3.64298e-10
2.08744e-10
1.41162e-09
1.17842e-09
1.39566e-10
-5.7854e-11
-1.95518e-11
1.61351e-10
-6.07005e-10
3.27111e-10
-2.89163e-10
1.59509e-10
-1.39794e-09
-3.32301e-10
9.12469e-10
-1.85398e-10
-1.9548e-10
-1.53969e-10
1.22799e-09
-2.17964e-10
1.45935e-10
-9.96934e-11
9.66748e-10
-1.68456e-10
-6.49761e-11
1.75677e-10
-1.14304e-10
2.6476e-10
-3.63263e-10
1.03858e-11
1.86283e-09
-3.05081e-10
1.05923e-09
-4.48287e-10
1.55487e-09
-4.86151e-10
2.25895e-10
-2.42127e-10
-9.02019e-10
-2.89949e-10
7.15215e-11
-6.40875e-11
-1.40946e-09
5.72401e-10
-3.22197e-09
3.25006e-10
3.70366e-09
-1.21311e-09
1.37294e-08
-1.8777e-09
5.65264e-09
-1.04666e-09
-7.26778e-09
8.56311e-11
-1.29103e-08
5.7303e-10
-7.79537e-09
4.63137e-10
-1.14629e-09
3.20295e-10
5.07166e-10
2.08622e-10
1.52328e-09
1.24896e-09
1.38104e-10
1.73568e-10
-1.92029e-10
2.92362e-10
-7.30844e-10
1.52289e-10
-1.49541e-10
-4.20109e-10
-8.25399e-10
-5.46594e-10
1.03921e-09
-6.51306e-10
-9.0656e-11
-4.59851e-10
1.03664e-09
-5.70656e-10
2.56791e-10
-5.91509e-10
9.8766e-10
-5.61648e-10
-9.48102e-11
-7.36432e-11
-6.02289e-10
1.25277e-10
-5.62165e-10
-1.93284e-10
2.18139e-09
-3.96552e-10
1.2625e-09
-4.87493e-10
1.64582e-09
-5.24636e-10
2.6304e-10
-2.26946e-10
-1.19971e-09
-2.78751e-10
1.23335e-10
-1.59317e-11
-1.67229e-09
7.38568e-10
-3.97645e-09
4.54756e-10
3.98746e-09
-1.30094e-09
1.54851e-08
-2.05177e-09
6.40346e-09
-1.10982e-09
-8.20971e-09
1.28902e-10
-1.41491e-08
6.321e-10
-8.29854e-09
4.88856e-10
-1.00307e-09
3.25213e-10
6.70831e-10
2.08193e-10
1.64028e-09
1.32068e-09
1.36486e-10
-2.54673e-10
6.24796e-11
-2.26168e-10
-7.71103e-10
2.92747e-11
-4.05611e-10
-6.146e-11
-7.34566e-10
-2.30945e-11
1.00091e-09
-2.55147e-10
1.41526e-10
2.53917e-10
5.27682e-10
4.75926e-11
4.63178e-10
-2.09208e-10
1.24452e-09
-3.38321e-10
3.43305e-11
3.4086e-10
-1.28145e-09
5.84543e-10
-8.05835e-10
1.35883e-10
2.63003e-09
-3.98194e-10
1.79659e-09
-5.88656e-10
1.83628e-09
-6.09294e-10
2.83679e-10
-2.5221e-10
-1.55678e-09
-3.42385e-10
2.13518e-10
-8.37358e-11
-1.93095e-09
8.23161e-10
-4.88333e-09
5.65265e-10
4.24535e-09
-1.39983e-09
1.74502e-08
-2.25157e-09
7.25518e-09
-1.18701e-09
-9.27427e-09
1.73441e-10
-1.55096e-08
6.96095e-10
-8.82118e-09
5.16405e-10
-8.23403e-10
3.30113e-10
8.57142e-10
2.07504e-10
1.76287e-09
1.39344e-09
1.34756e-10
-3.52436e-10
3.38979e-10
-4.74118e-10
-6.69527e-10
-1.52231e-09
6.42709e-10
-1.6682e-09
-5.88537e-10
-1.19248e-09
5.25357e-10
-8.76475e-10
-1.74245e-10
-4.36962e-10
8.82989e-11
-2.95774e-10
3.22047e-10
-5.42952e-10
1.49175e-09
-7.39858e-10
2.31265e-10
-1.25676e-11
-2.00873e-09
3.27365e-10
-1.14575e-09
-2.10638e-10
3.16805e-09
-5.51594e-10
2.13755e-09
-6.05684e-10
1.89038e-09
-6.4271e-10
3.20703e-10
-2.22828e-10
-1.97666e-09
-3.39964e-10
3.30661e-10
-3.53557e-11
-2.23556e-09
1.055e-09
-5.97368e-09
7.51671e-10
4.54868e-09
-1.51058e-09
1.97125e-08
-2.47797e-09
8.22255e-09
-1.26141e-09
-1.04908e-08
2.36166e-10
-1.70072e-08
7.70484e-10
-9.35548e-09
5.45923e-10
-5.98859e-10
3.34222e-10
1.06886e-09
2.06348e-10
1.89074e-09
1.46698e-09
1.32815e-10
-4.21151e-10
6.71674e-10
-5.55373e-10
-5.97155e-10
8.40544e-11
3.46062e-12
-1.03277e-10
-4.01135e-10
1.1091e-09
-6.85794e-10
1.15228e-10
8.19953e-10
2.38441e-10
-3.47505e-11
6.7306e-10
-1.12504e-10
6.96763e-10
1.4681e-09
-6.27751e-11
9.90837e-10
2.50947e-10
-2.32244e-09
5.49657e-10
-1.44445e-09
8.36382e-11
3.63405e-09
-5.53529e-10
2.77473e-09
-6.65948e-10
2.00281e-09
-6.06867e-10
2.61618e-10
-1.42838e-10
-2.44069e-09
-3.61663e-10
5.49494e-10
-9.71226e-11
-2.5001e-09
1.1543e-09
-7.2251e-09
8.89261e-10
4.81372e-09
-1.61818e-09
2.22199e-08
-2.70608e-09
9.31045e-09
-1.34587e-09
-1.1851e-08
2.87751e-10
-1.86408e-08
8.42593e-10
-9.9103e-09
5.75134e-10
-3.31413e-10
3.38732e-10
1.30527e-09
2.05375e-10
2.02409e-09
1.54127e-09
1.31093e-10
-2.11027e-10
7.98576e-10
-1.27107e-10
-5.59212e-10
7.1815e-10
-8.33389e-10
1.41558e-10
1.73501e-10
7.01816e-10
-1.24902e-09
-7.99736e-11
1.60238e-09
1.6478e-10
-2.79321e-10
9.3544e-10
-8.83034e-10
1.01076e-09
1.39281e-09
1.91093e-10
1.81054e-09
-6.86747e-10
-1.44459e-09
-1.87668e-10
-1.94356e-09
7.34347e-10
2.712e-09
-1.65261e-10
3.67434e-09
-1.59548e-10
1.9971e-09
-1.68273e-11
1.18886e-10
2.98713e-10
-2.75623e-09
-1.42203e-10
9.90418e-10
1.32023e-10
-2.77432e-09
1.57311e-09
-8.66619e-09
1.25386e-09
5.13298e-09
-1.68621e-09
2.516e-08
-2.95301e-09
1.05773e-08
-1.40668e-09
-1.33974e-08
3.99048e-10
-2.04465e-08
9.54593e-10
-1.04658e-08
6.19489e-10
3.68162e-12
3.46591e-10
1.57818e-09
2.06018e-10
2.16465e-09
1.6168e-09
1.30491e-10
4.08315e-10
2.12353e-10
1.29456e-09
-1.21029e-09
3.92508e-10
1.11448e-10
4.81443e-10
7.57949e-11
2.70597e-10
-1.06737e-09
8.31262e-10
1.04165e-09
2.40453e-09
-1.85261e-09
3.57035e-09
-2.04882e-09
2.93134e-09
2.0318e-09
1.94637e-09
2.79558e-09
-5.74208e-10
1.07604e-09
-1.34431e-09
-1.17352e-09
-2.46615e-10
1.6143e-09
4.12602e-10
3.01513e-09
2.35353e-09
5.61857e-11
2.09452e-09
3.77885e-10
1.86062e-09
-2.52236e-09
9.17326e-10
1.93373e-09
8.81195e-10
-2.7382e-09
2.02764e-09
-9.81263e-09
1.64698e-09
5.51364e-09
-1.5046e-09
2.83116e-08
-2.86947e-09
1.19421e-08
-1.27856e-09
-1.49883e-08
5.63647e-10
-2.22887e-08
1.08689e-09
-1.09891e-08
6.84234e-10
4.0633e-10
3.79149e-10
1.88327e-09
2.2446e-10
2.31934e-09
1.69955e-09
1.41718e-10
-4.49983e-10
5.49964e-10
-1.35074e-09
-3.20123e-10
-6.34112e-10
-3.20424e-10
-7.1879e-10
8.50555e-11
-2.81572e-09
6.81426e-10
-1.56167e-09
-3.457e-10
-1.9759e-10
-2.14932e-09
2.39282e-09
-2.49344e-09
1.49476e-09
1.3631e-09
8.44147e-10
1.78519e-09
-4.47283e-10
9.21238e-10
-1.1634e-11
-6.09882e-10
1.24851e-09
-2.36469e-12
4.03438e-09
1.15492e-10
7.67126e-09
-1.86892e-09
6.21308e-09
6.86451e-10
4.91647e-09
-4.75542e-10
4.07304e-09
1.98779e-09
2.94182e-09
-8.14858e-10
3.94442e-09
-4.67822e-09
3.50403e-09
3.98798e-09
-2.69845e-10
1.57833e-08
-1.56125e-09
3.73845e-09
-5.16198e-10
-1.86915e-10
1.33178e-09
-6.65807e-09
1.59915e-09
-2.96761e-09
9.80712e-10
1.02477e-09
5.62873e-10
2.30111e-09
3.41361e-10
2.54085e-09
2.2153e-10
1.81938e-09
9.2149e-11
8.55187e-12
8.46533e-11
7.54423e-12
7.62388e-11
8.37795e-12
6.68362e-11
9.42669e-12
5.83848e-11
8.43538e-12
5.14703e-11
6.92431e-12
4.51292e-11
6.33466e-12
3.94549e-11
5.67817e-12
3.43208e-11
5.13154e-12
3.01468e-11
4.17548e-12
2.62939e-11
3.85203e-12
2.27027e-11
3.59176e-12
1.96268e-11
3.0754e-12
1.72895e-11
2.33749e-12
1.52677e-11
2.0215e-12
1.37175e-11
1.55019e-12
1.23479e-11
1.36942e-12
1.13396e-11
1.00813e-12
1.1178e-11
1.61525e-13
1.07426e-11
4.35219e-13
1.12256e-11
-4.83013e-13
1.13593e-11
-1.33647e-13
1.19389e-11
-5.79476e-13
1.27574e-11
-8.18305e-13
1.04641e-11
2.29391e-12
1.29789e-11
-2.5145e-12
2.09328e-12
1.08867e-11
9.07707e-12
-6.98369e-12
-7.01506e-12
1.60936e-11
-7.01503e-12
1.2839e-10
2.25e-11
1.15844e-10
2.01596e-11
1.0224e-10
2.19326e-11
8.90619e-11
2.26368e-11
7.85227e-11
1.89536e-11
6.87578e-11
1.67019e-11
6.0016e-11
1.5068e-11
5.24361e-11
1.32632e-11
4.54797e-11
1.20847e-11
3.96491e-11
1.0008e-11
3.44924e-11
9.00747e-12
2.93004e-11
8.7844e-12
2.53146e-11
7.0606e-12
2.2321e-11
5.33124e-12
1.95964e-11
4.74559e-12
1.73563e-11
3.79011e-12
1.57192e-11
3.00616e-12
1.43811e-11
2.34605e-12
1.39114e-11
6.30994e-13
1.33646e-11
9.81954e-13
1.40183e-11
-1.13658e-12
1.40351e-11
-1.5016e-13
1.49172e-11
-1.46093e-12
1.57196e-11
-1.62016e-12
1.30549e-11
4.96019e-12
1.58222e-11
-5.28137e-12
2.95748e-12
2.37538e-11
1.09097e-11
-1.49358e-11
-8.72056e-12
3.57267e-11
-1.57356e-11
1.3628e-10
3.86978e-11
1.17747e-10
3.8761e-11
1.03307e-10
3.63252e-11
9.20536e-11
3.39202e-11
8.15269e-11
2.94608e-11
7.13377e-11
2.69029e-11
6.21806e-11
2.42173e-11
5.4474e-11
2.09745e-11
4.74393e-11
1.91163e-11
4.0609e-11
1.68401e-11
3.46696e-11
1.49457e-11
3.02501e-11
1.32045e-11
2.62826e-11
1.10275e-11
2.30201e-11
8.59385e-12
2.01118e-11
7.65341e-12
1.77032e-11
6.19864e-12
1.61491e-11
4.55991e-12
1.47679e-11
3.72702e-12
1.40397e-11
1.35902e-12
1.35308e-11
1.49078e-12
1.43577e-11
-1.9634e-12
1.43523e-11
-1.4447e-13
1.53819e-11
-2.48992e-12
1.61763e-11
-2.41407e-12
1.34163e-11
7.72169e-12
1.61967e-11
-8.06146e-12
3.07174e-12
3.68812e-11
1.09955e-11
-2.28595e-11
-9.6087e-12
5.63336e-11
-2.53442e-11
1.35134e-10
5.46885e-11
1.19121e-10
5.48386e-11
1.05276e-10
5.01265e-11
9.32149e-11
4.60089e-11
8.19854e-11
4.06721e-11
7.1635e-11
3.72642e-11
6.23751e-11
3.347e-11
5.43845e-11
2.89695e-11
4.71775e-11
2.63204e-11
4.05742e-11
2.3445e-11
3.48904e-11
2.06284e-11
3.03029e-11
1.77926e-11
2.64029e-11
1.4927e-11
2.31402e-11
1.18567e-11
2.01628e-11
1.06304e-11
1.77877e-11
8.57357e-12
1.61261e-11
6.22122e-12
1.47248e-11
5.12813e-12
1.41515e-11
1.93214e-12
1.35906e-11
2.05155e-12
1.43584e-11
-2.73103e-12
1.43566e-11
-1.42502e-13
1.54111e-11
-3.54378e-12
1.6112e-11
-3.11453e-12
1.36575e-11
1.01777e-11
1.64e-11
-1.08037e-11
3.14e-12
5.01434e-11
1.1409e-11
-3.11285e-11
-1.03605e-11
7.81055e-11
-3.57047e-11
1.34447e-10
7.05037e-11
1.19418e-10
6.99296e-11
1.05808e-10
6.36958e-11
9.33974e-11
5.84452e-11
8.18615e-11
5.21909e-11
7.14998e-11
4.7636e-11
6.22551e-11
4.27081e-11
5.40943e-11
3.71343e-11
4.68644e-11
3.35477e-11
4.04711e-11
2.98399e-11
3.48832e-11
2.62152e-11
3.0292e-11
2.23844e-11
2.64812e-11
1.87372e-11
2.30111e-11
1.53269e-11
2.00578e-11
1.35833e-11
1.77397e-11
1.08916e-11
1.60348e-11
7.9258e-12
1.46468e-11
6.51594e-12
1.413e-11
2.44878e-12
1.35493e-11
2.63217e-12
1.43256e-11
-3.50726e-12
1.43248e-11
-1.41494e-13
1.5484e-11
-4.70229e-12
1.61024e-11
-3.73254e-12
1.39368e-11
1.23446e-11
1.66149e-11
-1.34815e-11
3.22573e-12
6.35349e-11
1.17964e-11
-3.96991e-11
-1.15744e-11
1.01479e-10
-4.7279e-11
1.34153e-10
8.62918e-11
1.19346e-10
8.4796e-11
1.05688e-10
7.73149e-11
9.31972e-11
7.09598e-11
8.15471e-11
6.38251e-11
7.12535e-11
5.79391e-11
6.20562e-11
5.18991e-11
5.37417e-11
4.54526e-11
4.6527e-11
4.07599e-11
4.02797e-11
3.60886e-11
3.4826e-11
3.1668e-11
3.03075e-11
2.69034e-11
2.64235e-11
2.26208e-11
2.27946e-11
1.89558e-11
1.99028e-11
1.64747e-11
1.76339e-11
1.31603e-11
1.59168e-11
9.64264e-12
1.45651e-11
7.86743e-12
1.40647e-11
2.94904e-12
1.34615e-11
3.23532e-12
1.42774e-11
-4.3231e-12
1.42702e-11
-1.34009e-13
1.56027e-11
-6.03419e-12
1.61603e-11
-4.28989e-12
1.43143e-11
1.4192e-11
1.68931e-11
-1.60601e-11
3.3629e-12
7.70673e-11
1.22317e-11
-4.85679e-11
-1.32552e-11
1.26968e-10
-6.05341e-11
1.33939e-10
1.02113e-10
1.1915e-10
9.96419e-11
1.05333e-10
9.10953e-11
9.27934e-11
8.35221e-11
8.11467e-11
7.54568e-11
7.09431e-11
6.81516e-11
6.18161e-11
6.10202e-11
5.33968e-11
5.38755e-11
4.62058e-11
4.79486e-11
4.00384e-11
4.22574e-11
3.47403e-11
3.69651e-11
3.02209e-11
3.14232e-11
2.6238e-11
2.66031e-11
2.25906e-11
2.26033e-11
1.97636e-11
1.93013e-11
1.75094e-11
1.54144e-11
1.57809e-11
1.13709e-11
1.44588e-11
9.1893e-12
1.39717e-11
3.43595e-12
1.33506e-11
3.85639e-12
1.42193e-11
-5.1917e-12
1.41967e-11
-1.11221e-13
1.57521e-11
-7.58902e-12
1.62628e-11
-4.80025e-12
1.48088e-11
1.56474e-11
1.72539e-11
-1.8505e-11
3.53929e-12
9.0784e-11
1.27371e-11
-5.77657e-11
-1.53651e-11
1.55072e-10
-7.5899e-11
1.33684e-10
1.18014e-10
1.18851e-10
1.1453e-10
1.04874e-10
1.05036e-10
9.22965e-11
9.61215e-11
8.07003e-11
8.70389e-11
7.05282e-11
7.83319e-11
6.14272e-11
7.01157e-11
5.31969e-11
6.21091e-11
4.59698e-11
5.51735e-11
3.97687e-11
4.84598e-11
3.46587e-11
4.20742e-11
3.00402e-11
3.60421e-11
2.59568e-11
3.06861e-11
2.2405e-11
2.61552e-11
1.9631e-11
2.2075e-11
1.73804e-11
1.76647e-11
1.5645e-11
1.31061e-11
1.43253e-11
1.05089e-11
1.38486e-11
3.91244e-12
1.32221e-11
4.48282e-12
1.41593e-11
-6.12869e-12
1.41156e-11
-6.74071e-14
1.59261e-11
-9.3989e-12
1.63819e-11
-5.25576e-12
1.54125e-11
1.66182e-11
1.76904e-11
-2.07827e-11
3.70048e-12
1.04776e-10
1.32824e-11
-6.73476e-11
-1.78329e-11
1.86189e-10
-9.37318e-11
1.3333e-10
1.34033e-10
1.18452e-10
1.29461e-10
1.04376e-10
1.19079e-10
9.17738e-11
1.08744e-10
8.02329e-11
9.85666e-11
7.00779e-11
8.84946e-11
6.10184e-11
7.91701e-11
5.29169e-11
7.02136e-11
4.57362e-11
6.23523e-11
3.95582e-11
5.46389e-11
3.43677e-11
4.7264e-11
2.97302e-11
4.06801e-11
2.56577e-11
3.47582e-11
2.22035e-11
2.96095e-11
1.94572e-11
2.48209e-11
1.7218e-11
1.99039e-11
1.54904e-11
1.48333e-11
1.41623e-11
1.18368e-11
1.36976e-11
4.37706e-12
1.3073e-11
5.10736e-12
1.40935e-11
-7.14915e-12
1.4028e-11
-1.62723e-15
1.61197e-11
-1.149e-11
1.65064e-11
-5.64227e-12
1.61095e-11
1.70165e-11
1.81781e-11
-2.28512e-11
3.94842e-12
1.19008e-10
1.39386e-11
-7.73377e-11
-2.0893e-11
2.21022e-10
-1.14625e-10
1.32886e-10
1.50203e-10
1.17964e-10
1.44432e-10
1.0384e-10
1.33171e-10
9.12226e-11
1.21381e-10
7.97562e-11
1.10021e-10
6.96187e-11
9.86393e-11
6.05747e-11
8.82093e-11
5.25405e-11
7.82507e-11
4.54356e-11
6.94553e-11
3.93064e-11
6.07691e-11
3.40447e-11
5.2525e-11
2.94031e-11
4.53221e-11
2.53426e-11
3.88183e-11
2.19701e-11
3.29819e-11
1.92317e-11
2.75589e-11
1.70145e-11
2.2121e-11
1.53132e-11
1.65344e-11
1.3979e-11
1.31708e-11