/*--------------------------------*- C++ -*----------------------------------*\
| =========                 |                                                 |
| \\      /  F ield         | OpenFOAM: The Open Source CFD Toolbox           |
|  \\    /   O peration     | Version:  2.4.0                                 |
|   \\  /    A nd           | Web:      www.OpenFOAM.org                      |
|    \\/     M anipulation  |                                                 |
\*---------------------------------------------------------------------------*/
FoamFile
{
    version     2.0;
    format      ascii;
    class       volScalarField;
    location    "0.021";
    object      p;
}
// * * * * * * * * * * * * * * * * * * * * * * * * * * * * * * * * * * * * * //

dimensions      [1 -1 -2 0 0 0 0];

internalField   nonuniform List<scalar> 
57600
(
95.8485
96.7096
96.8207
96.9615
97.092
97.1447
97.0167
96.5802
95.7017
94.2709
92.2285
89.5808
86.4013
82.8204
79.0071
75.1429
71.397
67.9122
64.7985
62.1311
59.9436
58.227
56.9369
56.0047
55.3562
54.9219
54.6436
54.4765
54.3878
54.3545
92.5885
93.4724
93.5939
93.7372
93.8574
93.8786
93.6907
93.1623
92.1625
90.5907
88.4019
85.6187
82.329
78.6741
74.8281
70.9714
67.2668
63.8488
60.8198
58.2464
56.1556
54.5319
53.3251
52.4641
51.8733
51.484
51.2398
51.0978
51.027
51.006
89.328
90.2123
90.3341
90.4781
90.6
90.6245
90.4419
89.9211
88.9306
87.3689
85.1899
82.4144
79.1291
75.4734
71.6202
67.7489
64.0211
60.57
57.4984
54.8771
52.74
51.0793
49.8489
48.9771
48.3854
48.0014
47.7652
47.631
47.5663
47.5489
86.0672
86.9519
87.074
87.219
87.3433
87.3725
87.1978
86.6882
85.7116
84.1654
82.0013
79.2383
75.9606
72.305
68.4418
64.5486
60.7852
57.2829
54.1446
51.4469
49.2354
47.5146
46.2454
45.3562
44.7634
44.3886
44.1659
44.0455
43.9915
43.9803
82.806
83.6911
83.8136
83.9598
84.0871
84.1225
83.9581
83.4634
82.5055
80.9799
78.8361
76.0905
72.8239
69.1693
65.2935
61.3717
57.5612
53.9902
50.7609
47.9569
45.6393
43.8315
42.5065
41.5929
40.9997
40.6393
40.4383
40.3401
40.3039
40.3033
79.5443
80.4301
80.5531
80.7006
80.8317
80.8746
80.723
80.2467
79.3121
77.8124
75.6944
72.9712
69.7194
66.067
62.1765
58.2199
54.3517
50.6955
47.3512
44.4086
41.9484
40.0213
38.6198
37.6746
37.0833
36.745
36.5764
36.513
36.506
36.5232
76.2823
77.1687
77.2922
77.4414
77.5767
77.6286
77.4922
77.0379
76.1313
74.6629
72.5761
69.8802
66.6472
62.9989
59.0918
55.0951
51.1596
47.4036
43.9208
40.8049
38.159
36.0715
34.5676
33.5836
32.9992
32.6931
32.5707
32.56
32.6014
32.6499
73.0198
73.9071
74.031
74.182
74.3223
74.3844
74.2655
73.8368
72.9629
71.5311
69.4809
66.8177
63.6079
59.9656
56.041
51.9993
47.9889
44.1204
40.4774
37.1516
34.2678
31.9656
30.3244
29.2955
28.7294
28.4689
28.406
28.4707
28.5938
28.7021
69.7568
70.6451
70.7696
70.9226
71.0683
71.1421
71.043
70.6435
69.8067
68.4169
66.409
63.7837
60.6017
56.9684
53.0256
48.935
44.8434
40.8531
37.0314
33.4584
30.274
27.6818
25.8527
24.7764
24.2548
24.0597
24.0597
24.2145
24.4762
24.7138
66.4933
67.3828
67.5079
67.6629
67.8147
67.9013
67.8244
67.4574
66.6626
65.3201
63.36
60.7782
57.629
54.0081
50.0471
45.9044
41.7272
37.6099
33.5965
29.7414
26.1824
23.1923
21.0939
19.9737
19.5583
19.4711
19.5098
19.7056
20.1709
20.7416
63.2294
64.1202
64.2458
64.4031
64.5615
64.662
64.6094
64.2785
63.5302
62.2405
60.3339
57.801
54.6903
51.0858
47.1073
42.9098
38.6443
34.3996
30.19
26.0262
22.011
18.4654
15.9523
14.7965
14.6278
14.7653
14.7953
14.7548
15.1881
16.6861
59.9648
60.8574
60.9835
61.1432
61.3085
61.4241
61.398
61.1065
60.4094
59.178
57.3303
54.8521
51.7858
48.2028
44.2083
39.9532
35.5978
31.2313
26.8323
22.3497
17.8037
13.4763
10.2647
9.06616
9.4413
10.1129
10.2011
9.35668
7.20134
8.12331
56.6996
57.5941
57.7208
57.8829
58.0556
58.1873
58.1897
57.941
57.2996
56.132
54.349
51.9312
48.9157
45.3604
41.352
37.0362
32.5895
28.1128
23.5458
18.7607
13.6503
8.24498
3.75015
2.39795
3.90907
5.78661
6.3759
5.10796
1.96586
-4.15604
53.4337
54.3307
54.4579
54.6224
54.8028
54.9517
54.9844
54.7818
54.2008
53.1025
51.3898
49.038
46.0804
42.5599
38.5408
34.1603
29.619
25.05
20.3529
15.3137
9.70761
2.95103
-4.04576
-6.07885
-2.28522
2.05858
3.76916
2.91658
4.95099
2.43645
50.1671
51.0669
51.1945
51.3616
51.55
51.7169
51.7819
51.6284
51.1124
50.0889
48.4522
46.1718
43.2797
39.8028
35.7773
31.3263
26.6827
22.0436
17.2738
12.0521
6.18658
-1.79176
-13.8254
-18.1809
-10.3835
-0.133937
2.3701
1.93641
-0.671335
-1.7367
46.8995
47.8028
47.9308
48.1003
48.297
48.4827
48.5816
48.4804
48.034
47.091
45.5358
43.3321
40.5133
37.0906
33.0646
28.5356
23.7719
19.0871
14.3266
8.99019
3.18381
-5.09337
-1.9185
0.0275871
0.0323701
0.0184863
0.0112739
0.0108823
0.0176127
0.0212899
43.631
44.5384
44.6668
44.8387
45.0439
45.249
45.3834
45.3375
44.9651
44.1084
42.6403
40.5179
37.7807
34.4248
30.4069
25.7903
20.8721
16.1608
11.5325
6.12748
-0.425039
-3.77871
0.022231
0.0381877
0.0295719
0.0181651
0.0150576
0.0102184
0.0114185
0.0116266
40.3614
41.2738
41.4023
41.5765
41.7903
42.0155
42.1869
42.1991
41.9053
41.1406
39.7651
37.7279
35.0806
31.8068
27.8092
23.0952
17.9629
13.2191
8.92111
3.49837
-19.7819
0.029568
-0.0247629
0.0165779
0.0225723
0.0142408
0.00815215
0.00559395
0.00481926
0.00429324
37.0904
38.0088
38.1373
38.3138
38.5362
38.782
38.9917
39.0646
38.854
38.1871
36.9101
34.9608
32.4113
29.2379
25.2777
20.4596
15.0212
10.1648
6.52543
1.4971
-0.155549
0.0058655
-0.0215386
0.00359088
0.00833011
0.0048191
0.00131222
-0.000880295
-0.00206382
-0.00270465
33.8178
34.7437
34.8721
35.0505
35.2815
35.5483
35.7974
35.9338
35.8106
35.2476
34.0748
32.2147
29.7704
26.7193
22.8202
17.9007
12.0354
6.77524
4.33661
-21.1967
-0.0203168
-0.0134294
-0.018186
-0.00603707
-0.00269529
-0.00459892
-0.00674987
-0.00818914
-0.00891019
-0.0091827
30.5435
31.4785
31.6064
31.7867
32.0262
32.3141
32.6037
32.8058
32.7746
32.3216
31.2593
29.4874
27.1542
24.2514
20.4453
15.4444
9.04391
2.46753
2.60618
0.147501
-0.00843481
-0.0176576
-0.0201977
-0.014539
-0.0129257
-0.013774
-0.0148034
-0.0154365
-0.0156261
-0.0155907
27.2669
28.213
28.3402
28.522
28.7699
29.0792
29.4099
29.68
29.7451
29.4083
28.4637
26.7762
24.5572
21.8341
18.1621
13.1238
6.19769
-4.4879
-1.31643
0.0462465
-0.00669854
-0.0226478
-0.0250966
-0.0231352
-0.022271
-0.0224284
-0.0228744
-0.023294
-0.0235727
-0.0237143
23.9876
24.9475
25.0736
25.2567
25.5126
25.8432
26.2156
26.5558
26.7216
26.5071
25.6885
24.0782
21.9722
19.4659
15.9798
10.9726
3.77314
-12.5104
0.122653
-0.0182314
-0.0179913
-0.0295472
-0.0327087
-0.0321674
-0.0315849
-0.0315989
-0.0319724
-0.0323991
-0.0327258
-0.032907
20.7049
21.6819
21.8065
21.9904
22.2541
22.6058
23.0203
23.4325
23.7033
23.617
22.935
21.3898
19.3891
17.1441
13.9066
9.01512
1.94726
-21.1765
0.149567
-0.0185419
-0.0315375
-0.0394345
-0.0421375
-0.0419446
-0.041489
-0.0414633
-0.0417073
-0.0420071
-0.0422507
-0.042393
17.4179
18.4162
18.5389
18.7233
18.9942
19.3667
19.8232
20.3092
20.6892
20.7369
20.2052
18.7075
16.7937
14.8643
11.9498
7.26202
0.431223
-0.606408
-0.0379508
-0.0314034
-0.0465231
-0.0513702
-0.0528201
-0.0523072
-0.0517319
-0.0515352
-0.0515921
-0.0517486
-0.0519085
-0.0520176
14.1258
15.1508
15.271
15.4552
15.7329
16.1254
16.6239
17.1854
17.6788
17.8651
17.5027
16.0279
14.1669
12.6198
10.1162
5.71225
-0.80347
-0.480137
0.568173
-0.0519878
-0.0635926
-0.0646506
-0.0642142
-0.062988
-0.0620958
-0.0616626
-0.0615307
-0.0615565
-0.0616428
-0.0617275
10.8273
11.8856
12.0026
12.1861
12.47
12.8812
13.4213
14.0601
14.6708
14.999
14.8324
13.3485
11.4813
10.4019
8.41276
4.35323
-0.204152
-0.293349
0.8157
-0.0792918
-0.082553
-0.0784843
-0.0758638
-0.0737873
-0.0724999
-0.0718128
-0.0715014
-0.0714074
-0.0714266
-0.0714919
7.52085
8.62068
8.73365
8.91592
9.20512
9.63307
10.2138
10.9331
11.6643
12.1348
12.2016
10.6683
8.69859
8.19932
6.84836
3.17419
-3.01959
-0.285506
0.297025
-0.151271
-0.101522
-0.0919453
-0.0873802
-0.0845433
-0.0828764
-0.0819505
-0.0814796
-0.0812845
-0.0812516
-0.0813096
4.20443
5.35617
5.46429
5.64455
5.93802
6.37927
6.99872
7.805
8.65737
9.26656
9.62128
7.99004
5.76348
5.99948
5.43457
2.19295
-8.53958
-0.275542
-0.117173
-0.157914
-0.115796
-0.104225
-0.0985082
-0.0951351
-0.0931623
-0.092036
-0.0914344
-0.0911625
-0.0910989
-0.0911647
0.872991
2.09222
2.19458
2.3721
2.66825
3.11732
3.77083
4.67903
5.64577
6.38349
7.10854
5.32296
2.59338
3.78959
4.18466
1.4706
4.07977
-0.273257
-0.220075
-0.136623
-0.125405
-0.115234
-0.109155
-0.105489
-0.103309
-0.102037
-0.10134
-0.101017
-0.100939
-0.101024
54.3609
54.4024
54.4905
54.6422
54.8819
55.2444
55.7769
56.5394
57.6038
59.0442
60.9259
63.2868
66.1244
69.3925
73.0008
76.8249
80.7083
84.4717
87.931
90.9231
93.3344
95.1181
96.2992
96.9631
97.2351
97.2513
97.1319
96.9682
96.8161
96.7087
51.0215
51.0731
51.1739
51.3428
51.6071
52.0055
52.5902
53.4261
54.5883
56.1509
58.1726
60.6792
63.6534
67.0348
70.7232
74.5858
78.4603
82.1641
85.5163
88.3646
90.6122
92.2313
93.265
93.8116
94.0023
93.9715
93.8324
93.667
93.5234
93.4317
47.5654
47.6156
47.7125
47.875
48.1318
48.524
49.1069
49.9496
51.1307
52.7261
54.7918
57.3471
60.3666
63.7846
67.4991
71.3782
75.2614
78.967
82.3152
85.1556
87.393
89.0013
90.0251
90.5638
90.7488
90.7144
90.5734
90.4071
90.2632
90.1714
43.9987
44.0465
44.1361
44.2873
44.5312
44.9124
45.4921
46.3455
47.5575
49.2063
51.3433
53.9763
57.0671
60.5418
64.2964
68.2005
72.0959
75.8031
79.1443
81.9718
84.1933
85.7852
86.7942
87.321
87.4976
87.458
87.3143
87.147
87.0027
86.9107
40.3246
40.368
40.4454
40.5779
40.8006
41.1643
41.7376
42.6053
43.8615
45.5876
47.8267
50.5689
53.7577
57.3088
61.1166
65.0535
68.9646
72.6728
76.0037
78.8132
81.0129
82.5827
83.572
84.083
84.2487
84.2023
84.0553
83.8865
83.7418
83.6496
36.5495
36.585
36.6414
36.7436
36.9335
37.2701
37.8315
38.7161
40.0321
41.8647
44.2423
47.1282
50.4423
54.0887
57.9618
61.9385
65.868
69.5766
72.8936
75.6798
77.8519
79.394
80.3585
80.85
81.002
80.9474
80.7962
80.6258
80.4806
80.3881
32.6848
32.7054
32.7254
32.7792
32.9204
33.2166
33.7569
34.6595
36.0544
38.0308
40.5911
43.6594
47.1259
50.885
54.834
58.8568
62.8071
66.5148
69.8139
72.5715
74.7101
76.2187
77.1535
77.6217
77.7574
77.693
77.5369
77.3647
77.219
77.1263
28.753
28.7427
28.6966
28.6753
28.7491
28.9882
29.4912
30.4087
31.9076
34.078
36.8765
40.1698
43.8155
47.7024
51.7361
55.8099
59.7828
63.488
66.7649
69.4882
71.5872
73.0566
73.9568
74.3979
74.5149
74.4392
74.2776
74.1032
73.957
73.8641
24.7995
24.7143
24.542
24.4141
24.4082
24.5693
25.0037
25.924
27.5626
29.9991
33.1057
36.6702
40.5194
44.5459
48.6709
52.7996
56.7961
60.4966
63.7468
66.4299
68.4833
69.9076
70.7684
71.1786
71.2743
71.186
71.0181
70.8415
70.6948
70.6016
20.9217
20.6113
20.1989
19.9665
19.8996
19.9504
20.2493
21.1428
22.979
25.7894
29.2926
33.1756
37.2475
41.4209
45.6412
49.8277
53.8483
57.5413
60.7595
63.3964
65.3978
66.7714
67.5877
67.9635
68.0355
67.9331
67.7585
67.5794
67.4321
67.3387
17.2242
16.1377
15.4546
15.321
15.2763
15.1397
15.1544
15.9595
18.1018
21.4547
25.4624
29.7062
34.0116
38.333
42.6497
46.8961
50.9406
54.6226
57.8032
60.3874
62.3307
63.6477
64.4147
64.7523
64.7983
64.6806
64.4986
64.317
64.169
64.0755
10.4691
8.74809
9.94291
10.6389
10.7117
10.1717
9.57611
10.1844
12.8637
17.0253
21.6559
26.2874
30.8241
35.2873
39.699
44.0065
48.0743
51.7413
54.8778
57.4028
59.2816
60.5361
61.2491
61.545
61.5627
61.4284
61.2386
61.0542
60.9057
60.812
4.68898
-2.46392
4.66671
6.48313
6.5398
5.09477
3.20266
3.46023
7.20842
12.5835
17.934
22.9486
27.6969
32.2876
36.7907
41.1607
45.2508
48.8976
51.9832
54.4422
56.25
57.4361
58.0903
58.3411
58.3283
58.1762
57.9781
57.7909
57.6419
57.5481
-1.93705
-1.31181
1.27398
3.31863
3.1855
-0.0780228
-4.68396
-4.88462
1.1939
8.30462
14.3762
19.721
24.6406
29.3356
33.9259
38.3606
42.4718
46.0925
49.1194
51.5052
53.2357
54.3476
54.9382
55.1405
55.0952
54.9243
54.7174
54.5273
54.3778
54.2841
-3.68226
-4.66394
-2.45979
1.33743
1.66818
-5.16178
-16.761
-15.3743
-4.64109
4.48556
11.0655
16.632
21.6616
26.4297
31.1044
35.6081
39.7388
43.3261
46.2858
48.5914
50.2381
51.27
51.7923
51.9428
51.863
51.6722
51.4562
51.2633
51.1134
51.0198
0.024348
0.0151552
0.0113237
0.00938998
0.0108972
0.0318667
0.0295946
0.20616
-8.17942
1.48944
8.05875
13.7003
18.7607
23.563
28.3253
32.9052
37.0537
40.5989
43.482
45.7002
47.2567
48.2026
48.6521
48.7476
48.6314
48.42
48.1946
47.9988
47.8486
47.7552
0.0114842
0.00974299
0.00840144
0.00793561
0.0127923
0.0203295
0.0308689
0.0668484
0.103726
-0.692228
5.36918
10.9346
15.9282
20.7222
25.5869
30.2546
34.4184
37.9112
40.7072
42.8311
44.2911
45.1451
45.5173
45.5547
45.4004
45.1675
44.9325
44.7339
44.5835
44.4904
0.00394169
0.00366805
0.00371312
0.00452039
0.0078172
0.0139161
0.0229532
0.000206434
0.0139851
-9.83795
2.84372
8.34565
13.1359
17.8846
22.8876
27.6602
31.8353
35.2628
37.9603
39.9832
41.3405
42.0967
42.3871
42.3635
42.1696
41.9145
41.6698
41.4685
41.318
41.2254
-0.00296553
-0.00286947
-0.00231433
-0.00101458
0.00145333
0.00440113
0.00855245
-0.0142511
-0.00522449
-0.0279262
-1.01657
5.97222
10.3193
15.017
20.2282
25.1268
29.307
32.6532
35.2397
37.1559
38.4042
39.0567
39.2612
39.1737
38.9388
38.6609
38.4064
38.2025
38.0521
37.9602
-0.00930842
-0.00937466
-0.00912375
-0.00816981
-0.00634213
-0.00389677
-0.00384361
-0.013812
-0.0151357
-0.0113556
-0.13155
3.88504
7.31537
12.0806
17.6142
22.6619
26.8364
30.0818
32.5436
34.3484
35.4819
36.0247
36.1389
35.985
35.7078
35.4066
35.1424
34.9361
34.7859
34.6951
-0.0156336
-0.0158465
-0.0159756
-0.0156476
-0.014639
-0.0132285
-0.0131694
-0.0174892
-0.0207132
-0.0175083
0.0513417
-13.0992
3.70771
9.05246
15.0597
20.2749
24.4266
27.5467
29.8693
31.5601
32.5725
32.9997
33.0197
32.7968
32.4764
32.1514
31.8777
31.6693
31.5193
31.4298
-0.0237749
-0.0237914
-0.0237201
-0.0234726
-0.0229717
-0.0223216
-0.0221974
-0.0233475
-0.0229733
-0.0147346
0.0272739
-1.0583
-1.209
5.97436
12.5909
17.9777
22.0808
25.0453
27.2132
28.7903
29.6753
29.9809
29.9028
29.6086
29.2441
28.8952
28.612
28.4018
28.2524
28.1645
-0.032962
-0.0329212
-0.0327703
-0.0324897
-0.0321137
-0.031769
-0.0316467
-0.0314597
-0.0289745
-0.0185127
0.0143834
-0.0199675
-12.8636
2.96291
10.2489
15.7846
19.8022
22.5737
24.5709
26.0389
26.7894
26.9675
26.7876
26.42
26.011
25.6377
25.3456
25.1338
24.9851
24.8993
-0.0424408
-0.0424235
-0.0423442
-0.0421981
-0.0420215
-0.0419133
-0.0419164
-0.0414458
-0.0385796
-0.0292497
0.00278297
0.12258
-0.340544
0.0264911
8.08745
13.7109
17.5933
20.1258
21.9363
23.3062
23.9135
23.9587
23.6734
23.2304
22.7766
22.3788
22.078
21.8653
21.7173
21.6342
-0.0520697
-0.0520939
-0.0521122
-0.0521385
-0.0522128
-0.0524136
-0.0527678
-0.0527764
-0.0510129
-0.0452663
-0.0207637
0.0674751
-0.230799
-2.47794
6.16293
11.7712
15.4559
17.6932
19.3015
20.5936
21.0461
20.9537
20.5592
20.0393
19.5408
19.1182
18.8094
18.5961
18.4491
18.3692
-0.0617937
-0.0618739
-0.062004
-0.0622137
-0.0625558
-0.0631155
-0.0639724
-0.0649399
-0.0653617
-0.0650592
-0.0576191
0.0544642
-0.233095
-3.98738
4.51548
9.97795
13.3911
15.2642
16.6564
17.9041
18.1849
17.9518
17.4445
16.8464
16.3038
15.8558
15.5397
15.3265
15.1805
15.1044
-0.0715821
-0.0717321
-0.0719879
-0.0723913
-0.0730123
-0.0739616
-0.0753958
-0.0774641
-0.080466
-0.0864058
-0.103071
0.0377491
-0.240829
-2.11191
3.13389
8.34058
11.3982
12.8222
13.9868
15.243
15.3259
14.9527
14.3282
13.6516
13.0662
12.5912
12.2688
12.0563
11.9115
11.8399
-0.0814333
-0.0816589
-0.0820434
-0.0826399
-0.0835372
-0.0848772
-0.0868934
-0.0899845
-0.0951804
-0.106248
-0.142787
0.801078
-0.279585
-7.71013
1.98507
6.86659
9.47556
10.344
11.2731
12.619
12.4625
11.9567
11.2094
10.4551
9.82889
9.32405
8.99639
8.78562
8.64189
8.5755
-0.0913302
-0.0916334
-0.0921425
-0.0929222
-0.0940787
-0.0957826
-0.098325
-0.102244
-0.108869
-0.122272
-0.155977
-0.157518
-0.23125
-7.59075
1.05383
5.56228
7.62018
7.79797
8.48678
10.0449
9.58349
8.96554
8.08658
7.25871
6.59478
6.05369
5.72231
5.51441
5.37175
5.31125
-0.101239
-0.101624
-0.102255
-0.103205
-0.104594
-0.106616
-0.109592
-0.114102
-0.121432
-0.13489
-0.162335
-0.226739
-0.200269
-1.70032
0.365034
4.43043
5.82835
5.13863
5.58134
7.53673
6.66813
5.98363
4.95732
4.06666
3.36939
2.77929
2.44623
2.24282
2.10109
2.04714
-0.102509
-0.0985687
-0.0912459
-0.0709185
0.0168245
0.452975
1.12507
2.14199
3.18245
4.01004
5.13178
3.16687
-0.248647
1.98115
3.2994
1.09883
-32.2205
-0.253456
-0.203863
-0.142198
-0.132538
-0.123325
-0.117226
-0.113508
-0.111263
-0.109938
-0.109212
-0.108884
-0.108821
-0.108938
-0.10408
-0.100403
-0.0999837
-0.0995736
-0.098027
-0.0982367
-0.313242
0.531916
1.59887
2.47601
3.90593
1.78602
-2.24025
0.822241
2.80051
0.982131
-17.2421
-0.267715
-0.191103
-0.147538
-0.136911
-0.127899
-0.121907
-0.118274
-0.116063
-0.114763
-0.114069
-0.113781
-0.113766
-0.113934
-0.105595
-0.102259
-0.101832
-0.101424
-0.099951
-0.10006
-0.0983277
-0.0906389
-0.130703
0.793749
2.61629
0.276975
-4.60291
-0.441316
2.32099
0.89853
-3.77695
-0.259989
-0.166256
-0.15426
-0.141655
-0.132746
-0.126976
-0.123445
-0.121278
-0.120011
-0.119352
-0.119105
-0.119136
-0.11935
-0.107286
-0.10425
-0.103826
-0.103425
-0.10204
-0.102041
-0.100252
-0.092632
-0.0736694
-1.04815
1.27066
-1.41723
-7.47756
-1.80506
1.87924
0.690749
-1.08811
-0.269088
-0.154887
-0.161318
-0.146593
-0.137924
-0.132438
-0.129027
-0.126922
-0.125699
-0.12508
-0.124876
-0.12495
-0.125209
-0.109161
-0.10641
-0.105985
-0.105586
-0.104202
-0.104173
-0.102337
-0.095068
-0.0749071
0.0984626
-0.120211
-3.46048
-11.1235
-3.25304
1.49849
0.259177
-0.449724
-0.262643
-0.200824
-0.165999
-0.151627
-0.143473
-0.13831
-0.135045
-0.133022
-0.131855
-0.131283
-0.131124
-0.131244
-0.131547
-0.111236
-0.108758
-0.108325
-0.107925
-0.106596
-0.106483
-0.104615
-0.0975763
-0.0771305
0.0520146
-0.542493
-6.16406
-15.9565
-4.74355
1.20892
0.349301
-0.0100695
-0.239216
-0.192056
-0.169105
-0.156794
-0.14939
-0.144593
-0.141512
-0.139596
-0.138498
-0.13798
-0.13787
-0.138036
-0.138384
-0.113533
-0.111294
-0.110858
-0.110457
-0.10919
-0.109
-0.107109
-0.100258
-0.0807581
-0.0146268
-0.515061
-2.95572
-22.5662
-6.20079
1.0379
2.27162
-0.0806595
-0.209495
-0.187687
-0.172259
-0.162176
-0.155676
-0.151307
-0.148452
-0.146665
-0.145649
-0.145192
-0.145133
-0.145347
-0.145739
-0.11607
-0.114041
-0.113602
-0.113201
-0.111973
-0.111742
-0.109843
-0.103301
-0.0859292
-0.0621183
-0.47614
-0.741587
-32.0068
-7.49794
1.00673
4.17438
-0.174758
-0.187609
-0.185732
-0.175599
-0.167851
-0.162355
-0.158482
-0.155892
-0.154255
-0.153335
-0.152945
-0.152939
-0.1532
-0.153638
-0.118867
-0.117034
-0.11658
-0.116173
-0.115048
-0.114732
-0.112852
-0.10671
-0.0924132
-0.104831
-0.453875
-0.433528
-35.8694
-8.58621
1.09728
2.23388
-0.12427
-0.177244
-0.184212
-0.179358
-0.173928
-0.169501
-0.166178
-0.163881
-0.162411
-0.161595
-0.161275
-0.161321
-0.161626
-0.162106
-0.121941
-0.120279
-0.119804
-0.119388
-0.118456
-0.117988
-0.116173
-0.110598
-0.100008
-0.130575
-0.446463
-0.291582
-2.05772
-9.28984
1.30199
5.8497
-0.139001
-0.170497
-0.184249
-0.183907
-0.180597
-0.177233
-0.174475
-0.172477
-0.171179
-0.170465
-0.170214
-0.170311
-0.170657
-0.171177
-0.125313
-0.123778
-0.12329
-0.122866
-0.122148
-0.121526
-0.11983
-0.115111
-0.108521
-0.148084
-0.385133
-0.105696
-0.50679
-11.9718
1.29021
1.85919
-0.155453
-0.170183
-0.186872
-0.18972
-0.18815
-0.185738
-0.183494
-0.181772
-0.180629
-0.180009
-0.179818
-0.179961
-0.180345
-0.1809
-0.129002
-0.127536
-0.127053
-0.12663
-0.126059
-0.125365
-0.123844
-0.120234
-0.117592
-0.161768
-0.345807
-0.19281
-0.067897
-43.9562
1.26707
-3.8606
-0.125689
-0.173651
-0.192788
-0.197367
-0.196971
-0.195256
-0.193395
-0.191878
-0.19085
-0.190297
-0.190149
-0.190321
-0.190732
-0.191315
-0.133031
-0.131583
-0.131121
-0.130706
-0.1302
-0.129532
-0.128238
-0.125838
-0.126713
-0.167059
-0.284227
-0.139829
-0.0454222
-4.37623
-1.29332
3.62898
-0.174374
-0.185787
-0.202815
-0.207475
-0.207492
-0.206069
-0.20437
-0.202933
-0.20194
-0.201401
-0.20126
-0.201437
-0.201858
-0.202457
-0.137426
-0.135964
-0.135526
-0.135124
-0.134662
-0.134067
-0.133048
-0.13178
-0.135442
-0.170417
-0.23063
-0.15863
-0.0944606
-0.186913
-5.67626
-1.79607
-0.198781
-0.207499
-0.217637
-0.220654
-0.220166
-0.218497
-0.216641
-0.215088
-0.214005
-0.213399
-0.213207
-0.213353
-0.21376
-0.214358
-0.142208
-0.140707
-0.140297
-0.139912
-0.139498
-0.139003
-0.138307
-0.138059
-0.143618
-0.171579
-0.19716
-0.140567
-0.149662
0.06249
-5.10541
0.395362
-0.234794
-0.234976
-0.237497
-0.237442
-0.235425
-0.232844
-0.230412
-0.228474
-0.227125
-0.226333
-0.226015
-0.226078
-0.226434
-0.227007
-0.14741
-0.145846
-0.145464
-0.145103
-0.144745
-0.144375
-0.144037
-0.144722
-0.151345
-0.172599
-0.178919
-0.126919
-0.15369
-17.4649
-16.7656
-0.434118
-0.28535
-0.266886
-0.262782
-0.258374
-0.25366
-0.249366
-0.245829
-0.243163
-0.241324
-0.240198
-0.239653
-0.239564
-0.239824
-0.240341
-0.15306
-0.151413
-0.151061
-0.150729
-0.150436
-0.150215
-0.150259
-0.151761
-0.158792
-0.174444
-0.172018
-0.124079
0.214589
0.187338
-1.68308
-0.366089
-0.312804
-0.30536
-0.294642
-0.284044
-0.275141
-0.268151
-0.262885
-0.25909
-0.256499
-0.254865
-0.253976
-0.253658
-0.253769
-0.254195
-0.159194
-0.157445
-0.157122
-0.156826
-0.156608
-0.156554
-0.156986
-0.159166
-0.166162
-0.177778
-0.173971
-0.152967
24.7214
13.8972
-0.366348
-0.192973
-0.360989
-0.358551
-0.3354
-0.314943
-0.299781
-0.288932
-0.281256
-0.275919
-0.272316
-0.270005
-0.268659
-0.268032
-0.267939
-0.268238
-0.165849
-0.16398
-0.163686
-0.163433
-0.163298
-0.163424
-0.164229
-0.166941
-0.173679
-0.182907
-0.18267
-0.188672
39.9748
11.423
-0.483762
-0.494203
-0.49805
-0.440681
-0.387168
-0.350552
-0.326592
-0.310733
-0.300072
-0.292879
-0.28808
-0.284976
-0.283094
-0.282103
-0.281766
-0.281907
-0.173067
-0.17106
-0.170796
-0.17059
-0.170545
-0.170856
-0.172005
-0.175105
-0.181535
-0.189776
-0.195264
-0.222715
38.9668
19.3367
-0.971649
-1.10355
-0.768609
-0.555452
-0.446378
-0.3872
-0.352715
-0.331384
-0.317639
-0.308591
-0.302617
-0.29874
-0.296332
-0.294977
-0.294386
-0.294352
-0.18089
-0.178731
-0.178497
-0.17834
-0.178391
-0.178881
-0.180326
-0.183686
-0.189857
-0.198023
-0.208889
-0.265613
-0.318678
-1.39967
-1.56975
-2.27268
-1.16599
-0.671163
-0.496079
-0.415714
-0.372646
-0.347247
-0.33134
-0.321038
-0.314278
-0.309875
-0.307097
-0.305469
-0.304668
-0.30447
-0.189368
-0.187041
-0.186838
-0.186732
-0.186875
-0.187531
-0.189211
-0.192716
-0.198683
-0.207103
-0.221088
-0.262528
-0.284756
-0.23707
-1.79333
-2.95797
-1.32324
-0.701155
-0.506859
-0.423041
-0.379374
-0.35398
-0.338182
-0.32797
-0.321255
-0.316853
-0.314035
-0.312336
-0.311439
-0.311127
-0.19855
-0.196046
-0.195873
-0.195815
-0.196044
-0.196838
-0.19868
-0.202221
-0.207975
-0.216465
-0.230883
-0.259417
-0.287748
-0.374961
-1.30251
-1.87391
-0.9264
-0.58499
-0.460876
-0.401582
-0.368767
-0.348931
-0.336262
-0.327913
-0.322339
-0.318631
-0.316219
-0.314728
-0.313904
-0.313564
-0.208495
-0.205799
-0.205656
-0.205644
-0.205942
-0.206836
-0.208756
-0.212219
-0.217656
-0.225731
-0.238812
-0.260649
-0.29589
-0.407401
-0.257914
-0.409042
-0.459636
-0.418546
-0.384114
-0.360533
-0.344694
-0.33393
-0.326517
-0.321378
-0.317825
-0.315398
-0.313782
-0.31276
-0.312174
-0.31191
-0.219265
-0.216365
-0.216251
-0.216276
-0.216623
-0.217566
-0.219472
-0.222731
-0.22767
-0.234772
-0.245284
-0.260315
-0.278795
-0.278803
-0.175698
-0.202936
-0.279189
-0.310986
-0.319413
-0.319707
-0.317624
-0.315156
-0.312957
-0.311197
-0.309864
-0.308899
-0.308231
-0.307797
-0.307545
-0.307432
-0.230928
-0.227809
-0.227722
-0.227773
-0.228142
-0.229073
-0.230864
-0.233785
-0.238021
-0.243721
-0.251034
-0.25901
-0.262598
-0.24731
-0.213066
-0.214747
-0.243807
-0.268913
-0.284185
-0.292572
-0.297027
-0.299383
-0.30064
-0.301324
-0.301705
-0.301923
-0.302055
-0.302142
-0.302206
-0.302257
-0.24356
-0.240206
-0.240143
-0.240209
-0.240563
-0.241416
-0.242987
-0.245441
-0.248807
-0.252915
-0.257211
-0.260066
-0.257925
-0.247491
-0.235428
-0.235609
-0.247087
-0.260924
-0.272414
-0.280749
-0.286508
-0.290443
-0.293138
-0.294991
-0.296273
-0.297159
-0.297769
-0.298181
-0.298454
-0.298626
-0.25724
-0.253635
-0.253591
-0.253657
-0.253958
-0.25466
-0.255912
-0.257788
-0.260202
-0.262806
-0.264865
-0.265113
-0.262225
-0.256674
-0.252339
-0.253163
-0.258813
-0.266465
-0.273897
-0.280162
-0.285096
-0.288848
-0.291648
-0.293711
-0.295215
-0.296296
-0.29706
-0.297586
-0.297933
-0.298148
-0.272056
-0.268184
-0.268155
-0.268205
-0.268416
-0.268896
-0.269736
-0.270951
-0.272416
-0.273796
-0.274527
-0.273951
-0.271891
-0.269322
-0.268062
-0.26931
-0.272813
-0.277488
-0.282324
-0.286719
-0.290429
-0.29342
-0.29576
-0.297547
-0.298885
-0.299866
-0.300565
-0.301048
-0.301363
-0.301553
-0.288102
-0.283947
-0.283934
-0.283955
-0.284042
-0.28424
-0.284585
-0.285073
-0.285634
-0.286102
-0.286235
-0.285818
-0.284907
-0.284176
-0.284404
-0.285919
-0.288515
-0.291698
-0.294978
-0.298023
-0.300662
-0.302843
-0.304581
-0.305927
-0.306939
-0.307678
-0.308198
-0.308546
-0.308761
-0.308876
-0.109205
-0.109665
-0.110391
-0.111468
-0.113022
-0.115266
-0.118533
-0.123388
-0.130944
-0.143644
-0.166571
-0.215162
-0.268468
0.991568
0.00779047
3.63352
4.41446
2.84266
3.06905
5.55218
4.24167
3.56941
2.40019
1.47701
0.755897
0.108559
-0.0734511
-0.0779139
-0.0928474
-0.0968537
-0.114247
-0.114745
-0.115518
-0.116658
-0.118302
-0.120668
-0.124101
-0.129152
-0.136824
-0.149028
-0.169528
-0.212084
-0.26723
-0.189963
0.167417
3.1792
3.53197
1.29788
1.36401
4.31372
2.65575
2.04008
0.759158
-0.195257
-0.0767407
-0.081972
-0.0875133
-0.0916436
-0.0952337
-0.0987127
-0.119707
-0.12025
-0.121075
-0.122282
-0.124017
-0.126499
-0.130078
-0.135287
-0.143029
-0.154835
-0.17344
-0.214631
-0.283377
-0.512956
0.656468
2.73314
2.59168
-0.468442
-0.627007
2.98991
0.892231
0.403743
-0.0676799
-0.0715842
-0.0784893
-0.0839129
-0.0893407
-0.0934985
-0.0970954
-0.100615
-0.12561
-0.1262
-0.12708
-0.128356
-0.130179
-0.132771
-0.136477
-0.141807
-0.149568
-0.161044
-0.178346
-0.21113
-0.29791
-0.297133
0.545902
2.30333
1.59289
-2.5083
-3.05471
1.55442
-1.08786
-0.0567952
-0.0656379
-0.0736145
-0.0803467
-0.0860647
-0.0913164
-0.0955036
-0.0990963
-0.102637
-0.131991
-0.132629
-0.133566
-0.134911
-0.136819
-0.139513
-0.143325
-0.14874
-0.156478
-0.167634
-0.184084
-0.211191
-0.297813
-0.228334
-2.23043
1.90133
0.531725
-4.88995
-6.27823
-0.0783111
-0.315357
-0.0581523
-0.068212
-0.0757465
-0.0822746
-0.0882541
-0.093468
-0.0976735
-0.101264
-0.104813
-0.138873
-0.139558
-0.140552
-0.141965
-0.143954
-0.146737
-0.150635
-0.156099
-0.163773
-0.174588
-0.19034
-0.215814
-0.294367
-0.200744
-3.82991
1.54409
-0.594529
-7.64147
-11.088
-2.06695
-0.0547604
-0.0600633
-0.0707426
-0.0779287
-0.0844823
-0.0906596
-0.0958136
-0.100025
-0.10362
-0.107168
-0.146273
-0.147006
-0.148056
-0.149536
-0.1516
-0.154462
-0.158424
-0.163901
-0.171462
-0.181886
-0.196691
-0.222237
-0.28249
-0.256082
2.28716
1.23556
-1.78714
-10.5838
-22.4773
-0.32154
-0.0549839
-0.062363
-0.0732616
-0.0804476
-0.0870214
-0.0932653
-0.0983657
-0.102573
-0.106167
-0.109705
-0.154215
-0.154997
-0.156102
-0.157645
-0.159778
-0.162705
-0.166709
-0.172161
-0.17955
-0.18949
-0.203008
-0.224138
-0.252537
-0.310244
10.1089
0.929956
-3.06572
-13.2752
-0.428806
-0.312052
-0.0648193
-0.0652013
-0.076051
-0.0832316
-0.089811
-0.0960467
-0.101143
-0.105334
-0.108926
-0.112449
-0.162726
-0.163557
-0.164718
-0.16632
-0.168514
-0.171494
-0.175518
-0.180909
-0.188062
-0.197395
-0.209359
-0.225125
-0.241366
-0.266743
-3.95587
0.524819
-4.40854
7.5349
-0.233057
-0.312452
-0.0849924
-0.0687279
-0.0790668
-0.0862736
-0.0929248
-0.0991112
-0.104169
-0.108331
-0.111932
-0.115439
-0.171839
-0.172715
-0.173928
-0.175585
-0.177833
-0.180855
-0.184881
-0.190183
-0.197054
-0.205683
-0.215955
-0.226733
-0.231033
-0.211086
3.66985
0.0462701
-6.04803
-23.446
-0.13032
-0.306103
-0.0948729
-0.0727459
-0.0823668
-0.0897723
-0.0964676
-0.102512
-0.107451
-0.111578
-0.115195
-0.118682
-0.181599
-0.182517
-0.183775
-0.185482
-0.187777
-0.190831
-0.19485
-0.200056
-0.206636
-0.214568
-0.223269
-0.230332
-0.226484
-0.170114
7.33606
-0.175131
-10.5933
-0.387463
-0.0760073
-0.236968
-0.101269
-0.0772619
-0.0861639
-0.0937719
-0.10039
-0.106214
-0.111002
-0.115094
-0.118723
-0.12218
-0.192045
-0.192999
-0.194299
-0.196051
-0.19839
-0.201477
-0.205497
-0.210629
-0.216977
-0.224364
-0.231943
-0.237019
-0.231954
-0.207261
-2.23345
0.145961
-16.4845
-0.115224
-0.055057
-0.227222
-0.101873
-0.0824124
-0.0904656
-0.098114
-0.104563
-0.110159
-0.114838
-0.118901
-0.122523
-0.125937
-0.203209
-0.204192
-0.205529
-0.207325
-0.209714
-0.21285
-0.216905
-0.222034
-0.228295
-0.235449
-0.242625
-0.247566
-0.24611
-0.244578
-0.407012
0.692042
-15.2266
0.0462708
-0.0588879
-0.16457
-0.101371
-0.0880917
-0.0951987
-0.102627
-0.108905
-0.114353
-0.118991
-0.123026
-0.126626
-0.129987
-0.215119
-0.216121
-0.217491
-0.219337
-0.221792
-0.225013
-0.229173
-0.234427
-0.240841
-0.248223
-0.255879
-0.262325
-0.266371
-0.280613
-0.116196
-3.30129
0.0120438
-0.0300106
-0.0718846
-0.124528
-0.101261
-0.094043
-0.100255
-0.107343
-0.113521
-0.118891
-0.1235
-0.127504
-0.131073
-0.134375
-0.227762
-0.228775
-0.230176
-0.23208
-0.23463
-0.237994
-0.242366
-0.247936
-0.254842
-0.263039
-0.272163
-0.281498
-0.291204
-0.30426
-0.579393
5.14672
-3.19879
-0.0839512
-0.0838013
-0.100018
-0.102028
-0.10003
-0.105666
-0.112454
-0.11854
-0.123834
-0.1284
-0.132365
-0.135894
-0.13913
-0.241071
-0.242084
-0.243516
-0.245495
-0.248179
-0.251764
-0.256489
-0.26262
-0.270437
-0.280155
-0.291872
-0.30557
-0.321748
-0.344966
-0.375514
2.16006
-20.6729
-0.12368
-0.0780069
-0.0862219
-0.103683
-0.106119
-0.111577
-0.118071
-0.124021
-0.129223
-0.13373
-0.137643
-0.141121
-0.144286
-0.254878
-0.255878
-0.257341
-0.259409
-0.262271
-0.266163
-0.271396
-0.278363
-0.287567
-0.299625
-0.315306
-0.335459
-0.360367
-0.38865
-0.414001
-0.724475
-6.71674
-4.37393
-0.0311202
-0.0817571
-0.106745
-0.112565
-0.118061
-0.124251
-0.130018
-0.135105
-0.139529
-0.143376
-0.146788
-0.149876
-0.268848
-0.26982
-0.271305
-0.273471
-0.276539
-0.280804
-0.286677
-0.294725
-0.305773
-0.321041
-0.342387
-0.372426