/*--------------------------------*- C++ -*----------------------------------*\
| =========                 |                                                 |
| \\      /  F ield         | OpenFOAM: The Open Source CFD Toolbox           |
|  \\    /   O peration     | Version:  2.4.0                                 |
|   \\  /    A nd           | Web:      www.OpenFOAM.org                      |
|    \\/     M anipulation  |                                                 |
\*---------------------------------------------------------------------------*/
FoamFile
{
    version     2.0;
    format      ascii;
    class       volScalarField;
    location    "0.417";
    object      p_rgh;
}
// * * * * * * * * * * * * * * * * * * * * * * * * * * * * * * * * * * * * * //

dimensions      [1 -1 -2 0 0 0 0];

internalField   nonuniform List<scalar> 
10000
(
0.000961075
0.00096071
0.000960264
0.000959902
0.000959733
0.000959819
0.000960188
0.000960851
0.000961806
0.000963047
0.000964563
0.000966339
0.000968362
0.000970617
0.000973089
0.000975764
0.000978627
0.000981665
0.000984865
0.000988218
0.000991717
0.00099536
0.000999147
0.00100309
0.00100719
0.00101148
0.00101597
0.00102069
0.00102567
0.00103093
0.00103649
0.00104237
0.00104857
0.00105508
0.00106186
0.00106889
0.00107613
0.00108359
0.0010913
0.00109929
0.00110763
0.00111635
0.00112549
0.00113503
0.00114497
0.00115524
0.00116581
0.00117661
0.00118756
0.00119862
0.00096144
0.000961077
0.000960705
0.000960442
0.000960358
0.000960496
0.000960885
0.000961535
0.000962451
0.000963628
0.000965062
0.000966744
0.000968663
0.00097081
0.000973174
0.000975744
0.00097851
0.000981463
0.000984594
0.000987897
0.000991368
0.000995006
0.000998814
0.0010028
0.00100697
0.00101134
0.00101593
0.00102077
0.00102586
0.00103124
0.00103691
0.0010429
0.0010492
0.00105579
0.00106267
0.0010698
0.00107717
0.00108476
0.00109259
0.0011007
0.00110913
0.0011179
0.00112703
0.00113651
0.00114634
0.00115646
0.00116685
0.00117743
0.00118817
0.001199
0.000961882
0.000961451
0.000961082
0.00096087
0.000960838
0.000961009
0.000961406
0.000962038
0.000962912
0.000964028
0.000965382
0.000966971
0.00096879
0.000970831
0.000973089
0.000975557
0.000978229
0.000981098
0.000984161
0.000987413
0.000990854
0.000994484
0.000998306
0.00100233
0.00100656
0.00101101
0.00101569
0.00102062
0.00102582
0.00103131
0.0010371
0.00104319
0.00104959
0.0010563
0.0010633
0.00107056
0.00107805
0.00108576
0.00109371
0.00110192
0.00111042
0.00111922
0.00112835
0.00113779
0.00114753
0.00115753
0.00116777
0.00117818
0.00118873
0.00119936
0.000962233
0.000961712
0.000961302
0.000961093
0.000961076
0.000961257
0.000961648
0.000962257
0.00096309
0.000964149
0.000965433
0.00096694
0.000968669
0.000970617
0.000972781
0.000975158
0.000977746
0.000980541
0.000983542
0.000986747
0.000990158
0.000993776
0.000997605
0.00100165
0.00100592
0.00101043
0.00101518
0.00102019
0.00102548
0.00103105
0.00103694
0.00104313
0.00104965
0.00105648
0.00106362
0.00107102
0.00107865
0.00108646
0.0010945
0.00110277
0.00111132
0.00112015
0.00112928
0.0011387
0.00114838
0.00115831
0.00116845
0.00117875
0.00118917
0.00119968
0.000962381
0.000961791
0.000961341
0.000961121
0.000961104
0.000961281
0.000961658
0.00096224
0.000963031
0.000964034
0.000965249
0.000966678
0.000968322
0.000970181
0.000972256
0.000974547
0.000977054
0.000979777
0.000982717
0.000985875
0.000989254
0.000992855
0.000996684
0.00100075
0.00100505
0.0010096
0.0010144
0.00101948
0.00102483
0.00103048
0.00103645
0.00104274
0.00104937
0.00105635
0.00106366
0.00107124
0.00107901
0.00108693
0.00109502
0.00110333
0.0011119
0.00112076
0.0011299
0.00113931
0.00114898
0.00115887
0.00116895
0.00117919
0.00118953
0.00119995
0.000962272
0.000961651
0.000961182
0.000960956
0.000960936
0.000961105
0.000961464
0.000962015
0.000962762
0.000963707
0.000964853
0.000966203
0.000967762
0.000969531
0.000971516
0.00097372
0.000976145
0.000978796
0.000981673
0.000984781
0.000988123
0.000991704
0.000995527
0.000999598
0.00100392
0.00100851
0.00101335
0.00101848
0.00102389
0.0010296
0.00103564
0.00104202
0.00104876
0.0010559
0.00106343
0.00107126
0.0010792
0.0010872
0.00109531
0.00110364
0.00111222
0.00112109
0.00113025
0.00113967
0.00114935
0.00115924
0.0011693
0.00117951
0.00118983
0.0012002
0.000961886
0.000961273
0.000960813
0.000960595
0.000960576
0.000960737
0.000961076
0.000961595
0.000962295
0.00096318
0.000964254
0.000965522
0.000966991
0.000968667
0.000970558
0.000972671
0.000975012
0.000977586
0.000980397
0.000983451
0.000986752
0.000990307
0.00099412
0.000998195
0.00100254
0.00100714
0.00101203
0.00101719
0.00102264
0.00102839
0.00103447
0.00104092
0.00104777
0.00105509
0.00106292
0.00107112
0.0010793
0.00108734
0.00109541
0.00110369
0.00111226
0.00112114
0.00113033
0.00113979
0.00114951
0.00115943
0.00116952
0.00117974
0.00119005
0.00120042
0.000961228
0.000960661
0.000960238
0.000960042
0.000960032
0.000960189
0.000960509
0.000960993
0.000961644
0.000962464
0.000963461
0.000964641
0.000966014
0.00096759
0.00096938
0.000971395
0.000973645
0.000976137
0.000978878
0.000981871
0.000985125
0.000988649
0.000992447
0.000996521
0.00100087
0.0010055
0.0010104
0.00101559
0.00102105
0.0010268
0.00103289
0.00103936
0.00104625
0.00105376
0.00106203
0.00107087
0.00107941
0.00108741
0.00109531
0.00110347
0.001112
0.0011209
0.00113013
0.00113967
0.00114946
0.00115945
0.00116961
0.00117988
0.00119023
0.00120063
0.00096032
0.00095983
0.000959469
0.00095931
0.000959317
0.000959474
0.000959776
0.000960224
0.000960822
0.000961573
0.000962485
0.000963568
0.000964834
0.000966299
0.000967977
0.000969885
0.000972036
0.00097444
0.000977102
0.000980027
0.000983226
0.00098671
0.000990484
0.000994546
0.000998888
0.0010035
0.00100838
0.00101354
0.00101896
0.00102464
0.00103064
0.00103703
0.00104382
0.00105145
0.00106037
0.00107045
0.00107958
0.00108737
0.00109487
0.00110284
0.00111134
0.0011203
0.00112964
0.00113929
0.00114921
0.00115932
0.00116958
0.00117995
0.00119038
0.00120084
0.000959192
0.000958805
0.000958527
0.000958419
0.000958451
0.000958611
0.000958895
0.000959306
0.000959845
0.00096052
0.000961338
0.000962312
0.000963457
0.000964795
0.000966346
0.000968132
0.000970173
0.000972481
0.000975056
0.000977898
0.000981018
0.000984432
0.000988143
0.000992141
0.000996411
0.00100094
0.00100572
0.0010108
0.0010161
0.00102157
0.00102738
0.00103359
0.00103997
0.00104745
0.00105731
0.00106983
0.00107988
0.00108692
0.00109355
0.00110132
0.00110996
0.00111915
0.00112874
0.00113862
0.00114875
0.00115904
0.00116945
0.00117996
0.00119051
0.00120107
0.000957886
0.00095762
0.000957441
0.000957391
0.000957454
0.00095762
0.000957887
0.000958257
0.000958734
0.000959323
0.000960034
0.000960883
0.000961889
0.000963078
0.000964479
0.000966125
0.000968041
0.000970239
0.000972703
0.000975412
0.000978377
0.000981632
0.000985193
0.000989047
0.000993195
0.000997618
0.00100235
0.00100743
0.00101264
0.00101778
0.00102329
0.00102929
0.00103495
0.00104173
0.00105263
0.00107013
0.00108139
0.00108612
0.00109075
0.00109821
0.00110718
0.00111689
0.00112702
0.00113742
0.00114796
0.00115858
0.00116923
0.00117993
0.00119064
0.00120134
0.000956445
0.000956312
0.00095624
0.000956256
0.000956354
0.000956527
0.000956776
0.000957102
0.000957509
0.000958002
0.000958592
0.000959295
0.000960136
0.000961145
0.000962361
0.000963825
0.000965576
0.000967622
0.000969909
0.000972374
0.000975059
0.000978069
0.000981443
0.000985173
0.000989288
0.000993749
0.000998623
0.00100405
0.00100939
0.00101412
0.00101952
0.00102517
0.00102935
0.00103585
0.00104717
0.00107434
0.0010882
0.00108708
0.00108711
0.00109335
0.00110265
0.0011131
0.001124
0.00113517
0.00114645
0.00115767
0.00116879
0.00117982
0.00119079
0.00120167
0.000954919
0.000954922
0.000954959
0.000955044
0.000955176
0.000955357
0.000955587
0.000955866
0.000956196
0.000956583
0.000957034
0.000957565
0.0009582
0.000958969
0.000959918
0.000961104
0.000962589
0.000964397
0.000966428
0.000968573
0.000970962
0.000973789
0.000977072
0.000980772
0.00098499
0.00098958
0.000994733
0.00100105
0.00100705
0.00101091
0.00101713
0.00102687
0.00102498
0.00102277
0.00105204
0.00110931
0.00112006
0.0010966
0.00108049
0.00108484
0.00109661
0.00110879
0.0011205
0.00113227
0.00114416
0.00115602
0.00116778
0.00117939
0.00119084
0.00120206
0.000953356
0.00095349
0.000953634
0.000953784
0.00095395
0.000954138
0.000954347
0.000954577
0.000954826
0.000955094
0.000955386
0.000955704
0.000956056
0.000956463
0.000956988
0.000957736
0.00095883
0.00096034
0.000962128
0.000964043
0.000966307
0.000969141
0.000972437
0.000976105
0.000980437
0.00098491
0.000989915
0.000997506
0.00100577
0.00101235
0.00102292
0.0010311
0.00102191
0.00110231
0.00105026
0.00119461
0.00120224
0.00112031
0.00106311
0.00107824
0.00109709
0.00110999
0.00112049
0.00113132
0.00114273
0.00115443
0.00116634
0.0011784
0.00119049
0.00120231
0.000951804
0.000952057
0.000952297
0.000952507
0.000952705
0.000952899
0.000953087
0.000953267
0.000953432
0.000953573
0.000953673
0.000953702
0.000953636
0.000953523
0.000953498
0.000953727
0.00095438
0.000955559
0.000957131
0.000958974
0.00096138
0.000964476
0.000967851
0.000971316
0.000975606
0.000979232
0.00098273
0.000991453
0.00100301
0.00101388
0.00103249
0.00104383
0.00104043
0.000971686
0.00100091
0.00209543
0.00184222
0.00124672
0.00114467
0.00113002
0.00112646
0.00112411
0.00112692
0.0011339
0.00114336
0.00115396
0.00116527
0.00117725
0.00118978
0.00120219
0.000950307
0.000950659
0.00095098
0.000951241
0.000951466
0.000951665
0.000951837
0.000951971
0.000952054
0.000952056
0.000951912
0.000951543
0.000950957
0.000950309
0.000949794
0.000949568
0.000949775
0.0009505
0.000951743
0.000953595
0.000956431
0.000960212
0.000963928
0.000967008
0.000970946
0.000972123
0.000972186
0.000983395
0.000998653
0.00102099
0.0010444
0.00114904
0.00111441
0.00129525
0.00574258
0.00961569
0.00963717
0.00726325
0.00143295
0.00121972
0.00115796
0.00113805
0.00113266
0.00113606
0.00114408
0.00115372
0.00116434
0.00117613
0.00118914
0.00120202
0.000948904
0.000949328
0.000949708
0.000950007
0.000950255
0.000950463
0.000950624
0.000950725
0.000950734
0.00095058
0.000950132
0.000949329
0.000948316
0.000947338
0.00094656
0.000946031
0.000945802
0.000945934
0.000946694
0.000948522
0.000951953
0.000957117
0.000962156
0.000965086
0.000969205
0.000963873
0.000956963
0.000971466
0.000991447
0.00100596
0.00102703
0.00105038
0.00109376
0.00117357
0.00361068
0.0097092
0.00978414
0.00364287
0.00123292
0.00118757
0.00115382
0.00113232
0.00112686
0.00113283
0.00114253
0.00115213
0.00116224
0.00117411
0.00118852
0.00120225
0.000947622
0.000948084
0.000948497
0.000948821
0.000949089
0.00094931
0.000949475
0.00094956
0.000949511
0.000949192
0.000948452
0.000947353
0.000946181
0.00094519
0.000944448
0.000943841
0.000943356
0.000943102
0.000943511
0.000945154
0.000949011
0.000956435
0.000964373
0.000969347
0.000985176
0.000966425
0.000924543
0.000968173
0.000994923
0.00100379
0.00101663
0.00102936
0.001028
0.00103141
0.00106718
0.00200865
0.00199176
0.00130964
0.0012595
0.00117898
0.00114628
0.00112331
0.00111689
0.00112717
0.00113913
0.00114805
0.00115702
0.00116922
0.00118725
0.0012031
0.000946475
0.000946937
0.000947355
0.00094769
0.000947975
0.000948217
0.000948404
0.000948503
0.000948421
0.000947975
0.000947071
0.000945927
0.000944893
0.000944176
0.000943735
0.000943322
0.000943026
0.000943203
0.000943938
0.000945367
0.000949979
0.000961629
0.000966919
0.000978959
0.000976119
0.000997006
0.00212721
0.000997854
0.00100653
0.00100542
0.00100894
0.00102693
0.00101381
0.00100548
0.00104708
0.0011785
0.00119366
0.00109154
0.00104139
0.001069
0.00109084
0.00109915
0.00110865
0.00112432
0.00113552
0.0011409
0.00114734
0.00116013
0.00118562
0.00120581
0.000945461
0.000945883
0.000946276
0.000946608
0.000946908
0.000947183
0.000947417
0.000947565
0.0009475
0.000947028
0.00094616
0.000945219
0.000944542
0.000944266
0.000944258
0.000944148
0.000944193
0.000945416
0.000947374
0.00094892
0.000960601
0.000975412
0.000982878
0.000977714
0.00102387
0.00111991
0.00129768
0.00109751
0.00100822
0.00100026
0.00100549
0.00101167
0.00103073
0.00105882
0.00108336
0.00110779
0.00111923
0.00109421
0.00109047
0.00109841
0.00111152
0.00111027
0.00110491
0.00112308
0.00113244
0.0011302
0.00112992
0.00114293
0.00118502
0.00121304
0.000944561
0.000944903
0.000945242
0.000945557
0.000945873
0.000946193
0.000946501
0.000946742
0.000946768
0.000946413
0.000945779
0.000945231
0.000945057
0.000945298
0.000945783
0.00094582
0.000945839
0.000947773
0.000951179
0.000946637
0.000941208
0.000956022
0.000984644
0.00119142
0.00108793
0.00115608
0.00113078
0.000973911
0.000956607
0.000984811
0.0010054
0.00101237
0.00101956
0.00103842
0.00106795
0.00110732
0.00111358
0.0010972
0.00108482
0.00108748
0.00109527
0.00113159
0.00190364
0.00113427
0.0011394
0.00111934
0.00109792
0.00110675
0.00120288
0.00124477
0.000943734
0.000943962
0.000944219
0.000944506
0.000944838
0.000945217
0.000945626
0.000946007
0.000946212
0.000946116
0.000945878
0.000945857
0.000946294
0.000947173
0.000948363
0.00094882
0.000949454
0.000952415
0.000956815
0.000926452
0.000863404
0.00221239
0.00107408
0.000789807
0.0013869
0.0016731
0.00197203
0.000938091
0.000961801
0.000985548
0.00101018
0.00102163
0.00102372
0.00103335
0.00104717
0.00106743
0.00108025
0.00108678
0.0010974
0.00110099
0.00109839
0.00112793
0.00117013
0.00113423
0.00112067
0.00113033
0.00116562
0.00111497
0.00134405
0.00140446
0.000942926
0.000943008
0.000943163
0.000943411
0.00094376
0.000944208
0.000944741
0.000945307
0.000945773
0.00094605
0.000946315
0.000946911
0.000948066
0.000949824
0.000952167
0.000954318
0.000958328
0.000965365
0.000967858
0.000979042
0.00121172
0.00115508
0.00129427
0.00161189
0.00904278
0.0102923
0.00996115
0.0036497
0.00110114
0.00103309
0.0010122
0.0010191
0.00102542
0.00103418
0.00104517
0.00106067
0.001076
0.00108924
0.00110251
0.00111535
0.00113093
0.00113673
0.00114509
0.00114292
0.00113989
0.00116179
0.0011207
0.000948925
0.0063141
0.00579732
0.000942064
0.000941979
0.000942016
0.000942218
0.000942584
0.000943108
0.000943782
0.000944564
0.000945348
0.000946068
0.00094689
0.000948136
0.00095006
0.000952817
0.00095651
0.000960988
0.000968914
0.000975708
0.000988654
0.00166754
0.00101426
0.00110668
0.00121045
0.00479203
0.0103869
0.0102884
0.0103584
0.00899888
0.00126447
0.00104095
0.00144347
0.00101682
0.00103088
0.00103649
0.00104571
0.00105516
0.0010654
0.00107547
0.00108591
0.00109475
0.00111628
0.00115412
0.0011747
0.00117309
0.00117025
0.00123488
0.00140032
0.0042429
0.00717116
0.00730635
0.000941068
0.000940806
0.000940715
0.000940867
0.000941249
0.000941851
0.000942671
0.000943683
0.000944811
0.000946001
0.00094739
0.000949277
0.000951944
0.000955626
0.000960876
0.000968109
0.00097675
0.000989025
0.00109529
0.00100664
0.00103438
0.00110116
0.00116569
0.00505635
0.0100469
0.0101769
0.0101866
0.00830028
0.00133816
0.00104494
0.00104816
0.00105583
0.00105379
0.0010488
0.0010498
0.00105713
0.00106724
0.00107772
0.0010879
0.00110001
0.00110687
0.00175085
0.00119333
0.00118698
0.00118857
0.00119708
0.00119405
0.00126317
0.00679326
0.00720369
0.000939854
0.000939413
0.000939193
0.000939294
0.000939689
0.000940367
0.00094133
0.000942567
0.000944033
0.000945685
0.000947616
0.000950086
0.000953369
0.000957829
0.000964647
0.000972277
0.000982277
0.0010292
0.00100849
0.00102408
0.00109066
0.00109442
0.00111944
0.00130018
0.00708915
0.0102135
0.00968175
0.00250316
0.00111522
0.0011364
0.00113322
0.00112469
0.00109711
0.00106419
0.00105463
0.00105621
0.00106909
0.00108171
0.00108823
0.0010891
0.00109098
0.00108517
0.00110434
0.00114208
0.0011938
0.00120799
0.00116813
0.0011809
0.00161264
0.00168172
0.000938337
0.000937727
0.000937384
0.000937435
0.000937841
0.000938589
0.000939683
0.000941126
0.0009429
0.000944974
0.000947399
0.000950368
0.000954136
0.00095938
0.000966076
0.000974062
0.000994979
0.000996278
0.00100576
0.00103479
0.00108811
0.0010919
0.00109547
0.00109216
0.00132882
0.00124283
0.00143464
0.00118375
0.00121485
0.00115959
0.00115724
0.00116776
0.00115939
0.00169561
0.00105817
0.00106723
0.00107002
0.00108576
0.00110963
0.00109077
0.00107663
0.0010734
0.00108245
0.00112247
0.00124907
0.00132003
0.00131561
0.00129996
0.00123792
0.0012776
0.000936441
0.000935679
0.000935225
0.00093523
0.000935646
0.000936455
0.000937664
0.000939284
0.000941318
0.000943752
0.000946607
0.000950007
0.000954197
0.000959533
0.000966255
0.000975514
0.000984485
0.000995672
0.00100823
0.00101934
0.00143721
0.00108353
0.00110036
0.00112079
0.00120599
0.00122944
0.00125423
0.00119423
0.00115571
0.00114247
0.00113827
0.00184126
0.00110547
0.00110936
0.00107774
0.00107883
0.00107701
0.00108292
0.00182856
0.00109629
0.00107324
0.00104708
0.0010251
0.00105609
0.00124613
0.00135176
0.00136587
0.0012743
0.00123712
0.00127948
0.000934098
0.000933207
0.000932661
0.000932627
0.000933051
0.000933912
0.000935217
0.000936982
0.000939222
0.000941944
0.000945157
0.000948926
0.000953417
0.000958861
0.00096552
0.000973695
0.000984234
0.000995092
0.00100585
0.00102955
0.00103494
0.00106286
0.00109705
0.00113366
0.00117211
0.00119122
0.00121775
0.00117496
0.00114403
0.00112119
0.00109539
0.00106046
0.00134218
0.00110696
0.00108722
0.00108136
0.00108324
0.00109873
0.00106948
0.00108227
0.00107519
0.00102674
0.000933104
0.000888007
0.00153315
0.00158598
0.00176509
0.00131942
0.00102966
0.00115956
0.000931254
0.000930263
0.000929644
0.000929581
0.000930014
0.000930918
0.0009323
0.000934178
0.000936574
0.000939508
0.000942995
0.000947064
0.000951802
0.000957355
0.000963926
0.000971856
0.000981446
0.000992083
0.00100268
0.00101869
0.00103177
0.00105554
0.00107929
0.00112354
0.00113068
0.00145949
0.00114941
0.00117326
0.00118818
0.00107964
0.0010819
0.00106876
0.0010694
0.00108571
0.00108713
0.00108439
0.00108573
0.00108525
0.00108505
0.00108961
0.00108536
0.00105122
0.00085592
0.000119833
0.0081578
0.0191695
0.0193571
0.00821464
0.000630478
0.00113611
0.000927868
0.000926807
0.000926137
0.000926056
0.000926499
0.000927438
0.000928881
0.000930844
0.000933351
0.00093643
0.000940104
0.000944399
0.000949352
0.00095504
0.000961581
0.000969142
0.000978114
0.000988587
0.00100171
0.00101294
0.00102685
0.00104381
0.0010732
0.00107172
0.00108438
0.00109059
0.00111186
0.00114898
0.00106794
0.00106859
0.00107237
0.00106908
0.00107021
0.00107646
0.00108007
0.00108287
0.00108711
0.00109362
0.00110475
0.00112323
0.00114925
0.00120294
0.00139128
0.00551935
0.0185659
0.019081
0.0191256
0.0185944
0.00615289
0.00167003
0.000923913
0.000922812
0.000922115
0.000922027
0.000922481
0.00092345
0.000924938
0.000926962
0.000929544
0.000932712
0.000936496
0.000940927
0.000946033
0.000951847
0.00095842
0.000965858
0.000974455
0.000984488
0.000995643
0.00100608
0.00101811
0.00103203
0.00104628
0.00105456
0.00106479
0.00107291
0.00108138
0.00107074
0.00106144
0.00106365
0.00106422
0.00106406
0.00106687
0.00107064
0.00107537
0.00108085
0.00108815
0.00109817
0.00111306
0.00113911
0.00118194
0.00127046
0.0014678
0.00177291
0.0170996
0.0195208
0.0194765
0.0169778
0.00208551
0.00161461
0.000919375
0.000918262
0.000917559
0.000917475
0.000917944
0.000918937
0.000920459
0.000922524
0.000925151
0.000928365
0.000932197
0.000936681
0.000941846
0.00094772
0.000954325
0.000961711
0.000970033
0.000979374
0.00098937
0.000999837
0.0010107
0.00102223
0.00103242
0.00104154
0.00104952
0.00105488
0.00105896
0.00105834
0.00105587
0.00105481
0.00105654
0.00105844
0.00106157
0.00106603
0.00107112
0.00107741
0.00108548
0.00109573
0.00111051
0.0011352
0.00117802
0.00125659
0.00147645
0.00313881
0.0177518
0.0191823
0.0194917
0.0191552
0.00418212
0.00150856
0.000914251
0.000913151
0.000912462
0.000912392
0.000912878
0.000913893
0.000915438
0.000917527
0.000920175
0.000923403
0.000927238
0.000931707
0.000936842
0.000942668
0.000949203
0.000956465
0.000964492
0.000973256
0.000982599
0.00099236
0.00100238
0.00101261
0.00102192
0.00103
0.00103729
0.00104323
0.00104783
0.00104896
0.00104827
0.00104883
0.00105035
0.00105264
0.00105613
0.0010606
0.00106565
0.00107177
0.0010794
0.00108758
0.0010943
0.00110168
0.00112575
0.00112816
0.0010025
0.000461458
0.00314707
0.0142817
0.0141777
0.00367079
0.000149451
0.000893255
0.000908547
0.000907481
0.000906821
0.000906775
0.000907282
0.000908315
0.000909877
0.000911976
0.000914626
0.000917844
0.000921647
0.000926054
0.000931084
0.000936746
0.000943041
0.000949962
0.000957492
0.000965592
0.00097415
0.000983005
0.00099218
0.00100137
0.00101025
0.00101841
0.00102561
0.00103152
0.00103618
0.001039
0.00104095
0.00104304
0.00104562
0.00104863
0.00105185
0.00105554
0.00105973
0.00106502
0.00107148
0.00107924
0.00108828
0.001094
0.001134
0.00108823
0.00101557
0.000971326
0.00128088
0.00117563
0.00109874
0.00124511
0.000854335
0.00093827
0.000902275
0.000901259
0.000900642
0.000900628
0.00090116
0.00090221
0.000903782
0.000905883
0.000908522
0.00091171
0.000915458
0.000919772
0.00092465
0.00093008
0.000936049
0.000942541
0.000949533
0.000956987
0.000964818
0.000972923
0.000981153
0.000989298
0.000997034
0.00100413
0.00101047
0.00101603
0.00102066
0.00102416
0.00102704
0.00103012
0.00103401
0.00103933
0.00104542
0.00105179
0.00105687
0.00106119
0.00106589
0.00107088
0.00107697
0.00107893
0.00107395
0.00106408
0.00105249
0.00105932
0.00114691
0.00113479
0.0011094
0.00111308
0.00101291
0.00103846
0.000895452
0.000894498
0.000893936
0.00089396
0.000894518
0.000895585
0.000897164
0.00089926
0.00090188
0.000905029
0.000908708
0.000912909
0.00091761
0.00092279
0.000928442
0.000934562
0.000941135
0.00094812
0.000955443
0.000962993
0.000970631
0.000978176
0.000985393
0.00099209
0.000998168
0.00100353
0.00100807
0.00101158
0.00101427
0.00101677
0.0010198
0.00102477
0.00103046
0.00103853
0.00104649
0.00105485
0.00106195
0.00106781
0.00107179
0.00107213
0.00106981
0.00106756
0.00106653
0.00107152
0.00111288
0.00110976
0.00109714
0.00109462
0.00104265
0.0010673
0.000888099
0.000887216
0.000886714
0.00088678
0.000887367
0.000888453
0.000890037
0.000892126
0.000894721
0.000897825
0.000901426
0.000905498
0.000910007
0.000914944
0.000920324
0.000926158
0.000932432
0.000939102
0.00094609
0.00095329
0.00096057
0.000967769
0.000974705
0.000981213
0.000987174
0.000992477
0.000996969
0.00100038
0.00100272
0.00100471
0.00100733
0.00101372
0.00101929
0.0010288
0.00103513
0.00104115
0.00104861
0.00105671
0.00106394
0.0010678
0.00106845
0.00106797
0.00106852
0.00107312
0.00109291
0.00109248
0.00108779
0.00109238
0.00108157
0.00116372
0.000880237
0.000879429
0.000878991
0.000879103
0.000879721
0.000880825
0.000882415
0.000884496
0.000887066
0.000890121
0.000893634
0.000897561
0.000901877
0.000906602
0.000911774
0.000917411
0.000923496
0.000929973
0.000936764
0.000943765
0.000950848
0.00095787
0.000964672
0.000971102
0.000977035
0.000982339
0.000986793
0.000989937
0.000991482
0.000992463
0.00099536
0.00100707
0.00100947
0.00102366
0.0010277
0.00103167
0.00103835
0.00104516
0.00105109
0.00105695
0.00106289
0.00106852
0.00107202
0.00107586
0.00108429
0.00108527
0.00108471
0.00108566
0.00107996
0.00107714
0.000871886
0.000871155
0.000870784
0.000870942
0.000871592
0.000872715
0.000874312
0.000876385
0.000878932
0.000881933
0.000885345
0.000889118
0.000893259
0.000897823
0.000902862
0.000908389
0.000914375
0.00092076
0.000927461
0.000934375
0.000941382
0.00094835
0.000955135
0.000961594
0.000967591
0.000972954
0.000977373
0.000980216
0.000980462
0.000978213
0.000979415
0.00100656
0.00100947
0.00102386
0.00101947
0.00102044
0.00102859
0.00103622
0.00104235
0.00104769
0.00105237
0.00105704
0.0010636
0.00107179
0.00108007
0.00108238
0.00108232
0.00108263
0.00108254
0.00108442
0.000863068
0.000862412
0.000862106
0.000862312
0.000862994
0.000864138
0.000865743
0.00086781
0.000870332
0.000873274
0.000876572
0.000880196
0.000884202
0.000888667
0.000893644
0.000899134
0.000905099
0.000911471
0.000918165
0.000925084
0.000932112
0.000939128
0.000946006
0.00095261
0.000958808
0.000964393
0.000968968
0.000971921
0.000970978
0.000963357
0.000950727
0.000985331
0.00101748
0.0010318
0.0010038
0.00100851
0.00101974
0.00102828
0.00103464
0.00104016
0.00104507
0.00104961
0.00105452
0.00105999
0.00106709
0.0010742
0.00107985
0.00108241
0.00108338
0.00108705
0.000853798
0.000853215
0.000852973
0.000853225
0.000853941
0.000855106
0.00085672
0.000858784
0.00086128
0.00086415
0.000867329
0.00087083
0.000874753
0.000879183
0.000884157
0.000889667
0.000895667
0.000902088
0.000908844
0.00091584
0.00092297
0.000930128
0.000937204
0.000944077
0.000950677
0.000956916
0.000962764
0.000967646
0.000970231
0.00096452
0.000900457
0.00112492
0.00139366
0.00135593
0.000966241
0.00102721
0.00101848
0.00102302
0.00102815
0.00103346
0.00103854
0.00104293
0.00104738
0.00105224
0.00105779
0.00106322
0.00106903
0.00107659
0.00108398
0.00108861
0.000844093
0.000843578
0.000843397
0.000843695
0.000844444
0.000845631
0.000847257
0.000849317
0.000851782
0.000854572
0.00085764
0.000861059
0.000864955
0.000869398
0.000874413
0.000879983
0.000886057
0.000892568
0.000899433
0.00090656
0.000913853
0.000921225
0.000928576
0.000935805
0.00094301
0.000950516
0.0009585
0.000970121
0.000983603
0.00101036
0.0014955
0.00771858
0.01315
0.0112149
0.00295053
0.0010425
0.00103492
0.00102695
0.00102375
0.00102701
0.00103223
0.0010364
0.00104051
0.00104498
0.00105011
0.00105538
0.00106084
0.00106685
0.00107411
0.00108389
0.000833965
0.000833513
0.000833391
0.000833733
0.000834515
0.000835725
0.000837363
0.000839421
0.000841848
0.000844552
0.000847533
0.000850918
0.000854834
0.000859328
0.000864409
0.000870057
0.000876222
0.000882839
0.000889829
0.000897103
0.000904574
0.000912172
0.000919776
0.000927175
0.000934532
0.000941274
0.000946121
0.000950625
0.000957655
0.00094748
0.00576801
0.0126842
0.0128705
0.0127902
0.0103264
0.00112999
0.00101931
0.00101857
0.00101435
0.00101782
0.00102503
0.00102922
0.00103322
0.0010378
0.00104283
0.00104809
0.00105346
0.00105917
0.00106555
0.00107328
0.000823423
0.000823031
0.000822964
0.00082335
0.000824164
0.000825398
0.00082705
0.000829103
0.000831484
0.000834108
0.000837037
0.000840433
0.000844405
0.00084897
0.000854127
0.000859851
0.000866098
0.0008728
0.00087988
0.000887254
0.000894853
0.000902642
0.000910556
0.000918152
0.000925877
0.000933497
0.000938422
0.000941169
0.000948427
0.000977011
0.00655948
0.0129543
0.012847
0.0129346
0.0112474
0.00117029
0.00100531
0.00100634
0.00100535
0.00101
0.00101763
0.00102169
0.00102585
0.00102989
0.0010351
0.00104084
0.0010462
0.00105154
0.00105726
0.00106393
0.000812476
0.00081214
0.000812126
0.000812553
0.000813401
0.000814659
0.000816325
0.00081837
0.000820702
0.000823263
0.000826179
0.000829623
0.000833671
0.000838313
0.000843539
0.000849318
0.000855603
0.000862322
0.000869393
0.00087674
0.000884319
0.000892161
0.000900334
0.000907814
0.000915618
0.000927279
0.000935657
0.000947984
0.000965321
0.000984584
0.00130683
0.00896591
0.0128376
0.0120446
0.00311082
0.000932914
0.00101551
0.000991827
0.000994121
0.00100455
0.00101639
0.00101683
0.00101939
0.00101945
0.00102826
0.00103441
0.00103904
0.00104384
0.00104865
0.00105379
0.00080113
0.000800847
0.000800882
0.000801351
0.000802232
0.000803515
0.000805196
0.00080723
0.000809515
0.000812041
0.000814981
0.000818496
0.000822627
0.00082734
0.000832611
0.0008384
0.000844648
0.000851281
0.000858214
0.00086539
0.000872794
0.000880524
0.000888696
0.000895529
0.000902826
0.000923486
0.000923013
0.00093198
0.000942444
0.000955187
0.000970558
0.000983248
0.00163001
0.00137087
0.000992168
0.00097479
0.000968245
0.000977871
0.000988518
0.000996421
0.00117886
0.00100552
0.00101289
0.00105061
0.00102017
0.00102683
0.00103242
0.00103637
0.00104018
0.001044
0.000789388
0.000789156
0.000789241
0.000789751
0.000790665
0.000791975
0.000793671
0.000795692
0.000797941
0.000800463
0.000803454
0.000807052
0.000811259
0.000816022
0.000821299
0.000827035
0.000833167
0.000839627
0.000846351
0.000853312
0.000860516
0.000868117
0.00087614
0.000883471
0.000890796
0.000917684
0.000908499
0.000917057
0.000926617
0.000935892
0.000937547
0.000948993
0.000980917
0.0010056
0.000975038
0.000963747
0.000966834
0.000973077
0.000979989
0.0010714
0.000981907
0.000990736
0.00100231
0.00101276
0.00101549
0.00102203
0.0010265
0.00102973
0.00103228
0.00103446
0.000777254
0.000777073
0.000777207
0.000777758
0.000778708
0.000780046
0.000781756
0.000783766
0.000785997
0.000788546
0.000791606
0.000795284
0.000799548
0.000804326
0.000809561
0.000815188
0.000821157
0.000827423
0.000833954
0.000840744
0.000847799
0.000855408
0.000863333
0.000871119
0.000885029
0.000889385
0.000895734
0.000902664
0.000912122
0.000919361
0.000926039
0.000944707
0.000944796
0.000972919
0.000965788
0.000961013
0.00096058
0.000962367
0.000981819
0.000969732
0.000973188
0.000979107
0.000987764
0.00100292
0.0010102
0.00101618
0.00102022
0.00102256
0.00102464
0.00102592
0.000764729
0.0007646
0.000764784
0.000765379
0.000766365
0.000767733
0.000769459
0.000771463
0.0007737
0.000776299
0.000779436
0.00078318
0.000787471
0.000792225
0.000797376
0.000802869
0.000808678
0.000814781
0.000821169
0.000827844
0.00083482
0.000842129
0.000850181
0.000858495
0.000866775
0.000873889
0.00088482
0.000891501
0.000898173
0.000904994
0.000913135
0.000926608
0.000931635
0.000974294
0.000948868
0.000963787
0.000953429
0.000950061
0.000956801
0.000958902
0.000964097
0.000967412
0.000971949
0.00114617
0.00100777
0.00100733
0.00100898
0.00101011
0.0010116
0.00101277
0.0012097
0.00122077
0.00123176
0.00124264
0.00125337
0.00126392
0.00127427
0.00128438
0.00129422
0.00130377
0.00131298
0.00132182
0.00133024
0.00133818
0.0013456
0.00135244
0.00135866
0.00136422
0.0013691
0.00137328
0.00137677
0.00137962
0.00138194
0.00138389
0.00138569
0.0013875
0.0013894
0.00139144
0.00139363
0.00139594
0.00139833
0.00140076
0.0014032
0.00140563
0.00140802
0.00141037
0.00141267
0.00141491
0.0014171
0.00141922
0.00142127
0.00142322
0.00142506
0.00142674
0.00142824
0.0014295
0.00143048
0.00143112
0.0014314
0.00143137
0.00120986
0.00122071
0.0012315
0.0012422
0.00125275
0.00126314
0.00127334
0.0012833
0.00129301