/*--------------------------------*- C++ -*----------------------------------*\
| =========                 |                                                 |
| \\      /  F ield         | OpenFOAM: The Open Source CFD Toolbox           |
|  \\    /   O peration     | Version:  2.4.0                                 |
|   \\  /    A nd           | Web:      www.OpenFOAM.org                      |
|    \\/     M anipulation  |                                                 |
\*---------------------------------------------------------------------------*/
FoamFile
{
    version     2.0;
    format      ascii;
    class       volScalarField;
    location    "0.048";
    object      alpha.water;
}
// * * * * * * * * * * * * * * * * * * * * * * * * * * * * * * * * * * * * * //

dimensions      [0 0 0 0 0 0 0];

internalField   nonuniform List<scalar> 
57600
(
1
1
1
1
1
1
1
1
1
1
1
1
1
1
1
1
1
1
1
1
1
1
1
1
1
1
1
1
1
1
1
1
1
1
1
1
1
1
1
1
1
1
1
1
1
1
1
1
1
1
1
1
1
1
1
1
1
1
1
1
1
1
1
1
1
1
1
1
1
1
1
1
1
1
1
1
1
1
1
1
1
1
1
1
1
1
1
1
1
1
1
1
1
1
1
1
1
1
1
1
1
1
1
1
1
1
1
1
1
1
1
1
1
1
1
1
1
1
1
1
1
1
1
1
1
1
1
1
1
1
1
1
1
1
1
1
1
1
1
1
1
1
1
1
1
1
1
1
1
1
1
1
1
1
1
1
1
1
1
1
1
1
1
1
1
1
1
1
1
1
1
1
1
1
1
1
1
1
1
1
1
1
1
1
1
1
1
1
1
1
1
1
1
1
1
1
1
1
1
1
1
1
1
1
1
1
1
1
1
1
1
1
1
1
1
1
1
1
1
1
1
1
1
1
1
1
1
1
1
1
1
1
1
1
1
1
1
1
1
1
1
1
1
1
1
1
1
1
1
1
1
1
1
1
1
1
1
1
1
1
1
1
1
1
1
1
1
1
1
1
1
1
1
1
1
1
1
1
1
1
1
1
1
1
1
1
1
1
1
1
1
1
1
1
1
1
1
1
1
1
1
1
1
1
1
1
1
1
1
1
1
1
1
1
1
1
1
1
1
1
1
1
1
1
1
1
1
1
1
0.999988
1
1
1
1
1
1
1
1
1
1
1
1
1
1
1
1
1
1
1
1
1
1
1
1
1
1
1
1
1
0.999977
1
1
1
1
1
1
1
1
1
1
1
1
1
1
1
1
1
1
1
1
1
1
1
1
1
1
1
1
1
1
1
1
1
1
1
1
1
1
1
1
1
1
1
1
1
1
1
1
1
1
1
1
1
1
1
1
1
1
1
1
1
1
1
1
1
1
1
1
1
1
1
1
1
1
1
1
1
1
1
1
1
1
1
1
1
1
1
1
1
1
1
1
1
1
1
1
1
1
1
1
1
1
1
1
1
1
1
1
1
1
1
1
1
0.921005
0.742303
0.412867
0.131081
0.0190263
0.00092353
0.00320808
1
1
1
1
1
1
1
1
1
1
1
1
1
1
1
1
1
1
1
1
1
0.0190169
0.000151656
2.86737e-05
1.71399e-05
5.49442e-06
1.18091e-06
7.21307e-07
9.91858e-08
1.20394e-07
1
1
1
1
1
1
1
1
1
1
1
1
1
1
1
1
1
1
0.999993
0.873114
5.93592e-06
5.59982e-08
9.32965e-09
9.58216e-09
1.00252e-08
9.88996e-09
8.93822e-09
9.97525e-06
6.33861e-09
4.95611e-09
1
1
1
1
1
1
1
1
1
1
1
1
1
1
1
1
1
0.994343
0.999979
7.40692e-05
9.03128e-08
8.05369e-09
6.83855e-09
6.34739e-09
6.88801e-09
8.34397e-09
7.73185e-09
9.97116e-06
3.0162e-09
1.97894e-09
1
1
1
1
1
1
1
1
1
1
1
1
1
1
1
1
1
0.992803
0.0010565
2.94664e-07
3.37504e-09
6.09155e-05
7.52141e-09
3.34347e-06
4.06818e-07
7.75851e-09
7.38832e-09
9.53083e-06
7.44685e-10
6.90788e-10
1
1
1
1
1
1
1
1
1
1
1
1
1
1
1
1
1
0.30936
3.85378e-06
2.51129e-09
4.13134e-05
7.33833e-07
2.50262e-06
6.16208e-07
3.30156e-08
8.01484e-09
3.4404e-07
1.01769e-05
1.28532e-09
4.06238e-10
1
1
1
1
1
1
1
1
1
1
1
1
1
1
1
1
0.972696
1.76743e-05
1.26027e-09
1.70911e-09
5.11815e-09
4.35459e-07
2.52691e-06
8.21977e-09
7.63693e-09
7.24255e-09
1.63001e-07
1.09039e-05
-1.90297e-10
3.16792e-07
1
1
1
1
1
1
1
1
1
1
1
1
1
1
1
1
0.0566064
2.27718e-07
5.44237e-10
2.84668e-09
2.58752e-07
7.14567e-09
8.94303e-09
7.29699e-09
7.16383e-09
8.05584e-09
1.66058e-07
8.4648e-06
1.0976e-07
2.27762e-07
1
1
1
1
1
1
1
1
1
1
1
1
1
1
1
0.999772
2.03032e-05
1.4771e-10
1.20928e-10
1.03246e-09
4.32088e-09
5.63184e-09
7.7251e-09
7.73996e-09
7.62994e-09
8.46837e-09
1.42465e-08
4.79949e-09
7.58596e-09
7.93986e-09
1
1
1
1
1
1
1
1
1
1
1
1
1
1
1
0.0885292
1.10859e-05
4.54957e-12
1.63397e-11
3.08207e-10
2.25956e-09
1.9535e-07
5.85373e-09
7.65971e-09
7.87061e-09
9.55453e-07
1.36876e-05
2.45239e-09
4.39697e-09
4.46389e-09
1
1
1
1
1
1
1
1
1
1
1
1
1
1
1
-4.04266e-05
6.01473e-10
6.11058e-13
1.26729e-12
3.96279e-11
5.73215e-10
2.74971e-09
4.67019e-09
4.39354e-07
9.45461e-07
5.35125e-08
1.75326e-08
1.94412e-09
1.57765e-09
1.37687e-09
1
1
1
1
1
1
1
1
1
1
1
1
1
1
0.914058
4.26152e-05
7.62829e-11
7.67818e-13
4.91757e-14
2.18359e-12
5.35347e-11
4.79208e-10
1.7811e-09
3.21613e-09
3.22684e-09
3.46234e-09
2.05969e-09
5.97395e-10
3.09061e-10
2.04346e-10
1
1
1
1
1
1
1
1
1
1
1
1
1
1
0.190164
2.58671e-05
4.09013e-10
8.69692e-13
5.52946e-15
4.54329e-14
1.82493e-12
2.9206e-11
1.77277e-10
5.07967e-10
6.18814e-10
4.05283e-10
2.11795e-10
7.01832e-11
2.68009e-11
1.18763e-11
1
1
1
1
1
1
1
1
1
1
1
1
1
1
0.0414727
5.9459e-07
6.63414e-11
6.41975e-13
5.13604e-15
3.81802e-16
1.91729e-14
4.95273e-13
4.65443e-12
1.69227e-11
2.4856e-11
1.74767e-11
8.56003e-12
2.81357e-12
8.23301e-13
1.78697e-13
1
1
1
1
1
1
1
1
1
1
1
1
1
1
0.000235264
1.57361e-10
3.10402e-11
2.98582e-13
4.57418e-15
7.09921e-17
5.58221e-17
2.13234e-15
2.96174e-14
1.43716e-13
2.58839e-13
2.0659e-13
1.01363e-13
3.21649e-14
6.88406e-15
-6.10559e-16
1
1
1
1
1
1
1
1
1
1
1
1
1
1
1
1
1
1
1
1
1
1
1
1
1
1
1
1
1
1
1
1
1
1
1
1
1
1
1
1
1
1
1
1
1
1
1
1
1
1
1
1
1
1
1
1
1
1
1
1
1
1
1
1
1
1
1
1
1
1
1
1
1
1
1
1
1
1
1
1
1
1
1
1
1
1
1
1
1
1
1
1
1
1
1
1
1
1
1
1
1
1
1
1
1
1
1
1
1
1
1
1
1
1
1
1
1
1
1
1
1
1
1
1
1
1
1
1
1
1
1
1
1
1
1
1
1
1
1
1
1
1
1
1
1
1
1
1
1
1
1
1
1
1
1
1
1
1
1
1
1
1
1
1
1
1
1
1
1
1
1
1
1
1
1
1
1
1
1
1
1
1
1
1
1
1
1
1
1
1
1
1
1
1
1
1
1
1
1
1
1
1
1
1
1
1
1
1
1
1
0.999408
0.999531
1
1
1
1
1
1
1
1
1
1
1
1
1
1
1
1
1
1
1
1
1
1
1
1
1
1
1
1
0.999909
1
1
1
1
1
1
1
1
1
1
1
1
1
1
1
1
1
1
1
1
1
1
1
1
1
1
1
1
1
0.999993
1
0.977884
1
1
1
1
1
1
1
1
1
1
1
1
1
1
1
1
1
1
1
1
1
1
1
1
1
1
1
1
1
0.9931
1
1
1
1
1
1
1
1
1
1
1
1
1
1
1
1
1
1
1
1
1
1
1
1
1
1
1
1
0.999999
1
1
1
1
1
1
1
1
1
1
1
1
1
1
1
1
1
1
1
1
1
1
1
1
1
1
1
1
1
1
1
1
1
1
1
1
1
1
1
1
1
1
1
1
1
1
1
1
1
1
1
1
1
1
1
1
1
1
1
1
1
1
1
1
1
1
1
1
1
1
1
1
1
1
1
1
1
1
1
1
1
1
1
1
1
1
1
1
1
1
1
1
1
1
1
1
1
1
1
1
1
1
1
1
1
1
1
1
1
1
1
1
1
1
1
1
1
1
0.00134877
0.00119226
0.00105304
0.0326457
0.205135
0.441782
0.648425
0.933159
1
1
1
1
1
1
1
1
1
1
1
1
1
1
1
1
1
1
1
1
1
1
9.61961e-08
3.68963e-07
8.68071e-08
2.56182e-07
1.53028e-06
4.81367e-06
1.10355e-05
2.79758e-05
0.00035253
0.745558
1
0.999997
1
1
1
1
1
1
1
1
1
1
1
1
1
1
1
1
1
1
9.83496e-09
2.97677e-07
1.00054e-08
1.03571e-08
1.38962e-08
4.07739e-08
3.469e-08
3.79822e-08
8.72745e-08
2.61771e-05
0.38803
0.999998
1
1
1
1
1
1
1
1
1
1
1
1
1
1
1
1
1
1
8.08872e-09
1.55243e-07
2.41772e-07
9.65474e-09
3.10128e-07
1.60344e-07
4.54313e-07
2.28931e-08
1.87158e-07
1.4967e-07
3.18919e-05
0.871591
0.997089
1
1
1
1
1
1
1
1
1
1
1
1
1
1
1
1
1
5.86858e-09
1.65227e-07
1.5338e-06
6.83307e-09
1.08666e-08
1.32307e-06
3.13071e-06
1.33358e-08
2.86463e-05
2.42008e-05
6.47027e-08
0.00020342
0.999128
1
1
1
1
1
1
1
1
1
1
1
1
1
1
1
1
1
2.9169e-09
5.68616e-09
1.01385e-08
6.95883e-09
7.55217e-09
1.18475e-08
9.36332e-09
6.83994e-07
1.11345e-08
4.29588e-09
6.5422e-09
4.32247e-07
0.00465439
0.990672
1
1
1
1
1
1
1
1
1
1
1
1
1
1
1
1
1.82268e-06
1.2349e-07
7.60415e-09
6.54904e-06
6.80304e-09
7.43454e-09
7.96783e-09
2.672e-07
8.62073e-07
1.41164e-07
2.76519e-09
1.63415e-09
4.1992e-06
0.891089
1
1
1
1
1
1
1
1
1
1
1
1
1
1
1
1
6.5785e-06
3.82347e-07
4.78273e-09
1.0069e-08
7.47299e-09
7.33881e-09
1.32339e-08
8.69357e-09
1.32819e-08
7.62823e-09
7.61981e-07
2.08822e-09
-6.07623e-10
0.00022859
1
1
1
1
1
1
1
1
1
1
1
1
1
1
1
1
7.83216e-09
6.47174e-09
2.78268e-09
2.89485e-09
1.06655e-05
7.96625e-09
8.51759e-09
8.32516e-09
1.07668e-08
8.79076e-09
2.39516e-09
9.41284e-10
1.63116e-10
-2.57602e-10
0.803009
1
1
1
1
1
1
1
1
1
1
1
1
1
1
1
3.30845e-09
1.9354e-09
1.18661e-09
2.56682e-09
6.63043e-08
2.07902e-07
9.37433e-09
7.78796e-09
7.95616e-09
8.16788e-07
1.96878e-09
1.66307e-10
1.14729e-11
1.42983e-10
0.000130569
1
1
1
1
1
1
1
1
1
1
1
1
1
1
1
7.94233e-10
3.4726e-10
3.50482e-10
1.42608e-09
3.51998e-09
4.29195e-09
3.20207e-09
7.52209e-07
1.28708e-07
3.25575e-09
3.07491e-10
1.36183e-11
4.14661e-13
1.22245e-11
0.00010353
0.99913
1
1
1
1
1
1
1
1
1
1
1
1
1
1
9.02582e-11
2.80035e-11
6.66622e-11
3.88975e-10
1.12965e-09
1.60877e-09
1.79614e-09
2.9274e-09
1.45228e-09
2.74775e-10
1.47559e-11
3.3238e-13
4.04821e-14
5.79964e-12
5.54666e-11
0.23195
1
1
1
1
1
1
1
1
1
1
1
1
1
1
3.05697e-12
-1.92762e-13
6.11706e-12
4.34628e-11
1.40774e-10
2.28136e-10
3.07459e-10
2.75283e-10
8.60846e-11
7.45159e-12
1.825e-13
2.7589e-15
5.06482e-14
4.53647e-12
5.21226e-11
1.59025e-05
1
1
1
1
1
1
1
1
1
1
1
1
1
1
-6.17765e-14
-1.14643e-13
1.85419e-13
1.65247e-12
5.52612e-12
9.38247e-12
1.12573e-11
6.36198e-12
1.03549e-12
4.04539e-14
4.29187e-16
1.07215e-15
9.94164e-14
9.49481e-12
2.64338e-08
4.16169e-05
1
1
1
1
1
1
1
1
1
1
1
1
1
1
-2.49373e-15
-2.68126e-15
1.18895e-15
1.72839e-14
5.52856e-14
8.68651e-14
7.79148e-14
2.55348e-14
1.97025e-15
3.01364e-17
1.15337e-17
7.65175e-16
8.96755e-14
1.53105e-11
2.46589e-10
0.000932058
1
1
1
1
1
1
1
1
1
1
1
1
1
1
3.54046e-12
0.327165
1
1
1
1
1
1
1
1
1
1
1
1
0.000129864
1.04116e-06
1.71204e-11
1.43095e-13
2.80712e-15
4.81794e-17
6.30075e-19
6.23631e-18
1.21562e-16
7.79854e-16
1.72726e-15
1.58253e-15
7.99606e-16
2.4153e-16
3.36567e-17
-2.09077e-17
5.36831e-12
1.66718e-09
2.64959e-09
1.16054e-05
0.918013
1
1
1
1
1
1
1
1
1
0.000519779
6.29416e-10
7.21668e-12
6.51745e-14
1.5165e-15
2.83564e-17
3.44007e-19
1.87952e-20
4.2418e-19
3.58384e-18
9.77147e-18
1.02453e-17
5.36512e-18
1.5215e-18
9.96205e-20
-2.16036e-19
7.27543e-14
3.75165e-12
1.18416e-10
1.33632e-09
8.81395e-09
0.0702181
1
1
1
1
1
1
1
0.939136
0.000229614
9.83608e-10
2.02174e-12
2.7548e-14
7.03494e-16
1.38115e-17
1.84933e-19
1.81283e-21
4.04094e-22
4.37611e-21
1.48493e-20
1.78583e-20
9.67568e-21
2.51446e-21
-2.99096e-23
-4.65283e-22
4.71156e-17
9.55104e-16
4.12609e-13
3.50253e-11
4.9465e-10
0.000342116
0.233649
1
1
1
1
1
1
0.546388
0.000709807
4.90101e-10
5.57224e-13
1.02961e-14
2.65269e-16
5.33758e-18
7.75147e-20
8.31777e-22
7.1352e-24
1.20651e-24
4.90849e-24
6.74523e-24
3.73751e-24
8.62037e-25
-7.30085e-26
-1.7644e-25
2.14062e-21
1.17666e-19
4.87396e-16
3.56448e-13
7.35688e-11
2.36171e-07
0.00083623
0.963146
0.999857
1
1
1
1
0.0974092
4.31945e-05
2.0855e-10
1.61715e-13
3.3707e-15
8.08395e-17
1.62022e-18
2.49688e-20
2.90222e-22
2.57665e-24
1.79092e-26
3.49435e-28
3.973e-28
2.19976e-28
4.29909e-29
-6.02502e-30
-8.13233e-30
6.47407e-27
1.1668e-23
5.05395e-19
3.07249e-15
3.56594e-11
5.88926e-06
0.000106513
0.800752
1
0.999971
1
1
1
2.33766e-07
4.66854e-05
5.91974e-11
4.9533e-14
9.75284e-16
2.00176e-17
3.82554e-19
6.12246e-21
7.55743e-23
6.94872e-25
4.73694e-27
2.37461e-29
8.7307e-32
1.25962e-33
1.60901e-34
-2.56595e-35
-2.08882e-35
1.27022e-33
3.59311e-27
1.11203e-21
3.82844e-16
5.20013e-11
1.45558e-05
5.74048e-05
0.0282777
1
0.999998
1
1
1
-1.26141e-06
6.72207e-08
8.69057e-12
1.54236e-14
2.54075e-16
4.36147e-18
7.55693e-20
1.17705e-21
1.48453e-23
1.39505e-25
9.38316e-28
4.45832e-30
1.4789e-32
3.1974e-35
3.90714e-38
-5.8144e-40
-4.39765e-40
8.49675e-36
5.22182e-29
2.59751e-22
6.92657e-16
1.08887e-10
1.27441e-06
3.40651e-05
9.38363e-05
0.999999
0.999995
0.999999
1
1
-1.03847e-05
2.35751e-09
8.31337e-13
4.77465e-15
1.49487e-16
6.504e-18
1.29545e-19
9.17007e-22
3.77e-24
2.22976e-26
1.41376e-28
6.46094e-31
2.00407e-33
3.9897e-36
4.5771e-39
1.44732e-42
-7.78283e-43
3.0531e-35
2.41019e-28
9.52795e-22
9.64999e-16
1.1918e-10
5.4131e-05
0.000175537
9.9753e-06
0.0719801
0.999999
0.999999
1
1
1.19311e-05
5.69835e-11
1.31653e-13
8.17971e-15
1.23407e-15
8.23925e-17
1.89063e-18
1.42392e-20
3.7663e-23
4.08898e-26
3.34164e-29
7.39179e-32
2.05847e-34
3.77338e-37
3.95316e-40
2.03011e-43
2.86227e-43
3.2456e-35
5.18598e-28
1.95035e-21
1.6988e-15
8.83554e-11
1.15926e-05
9.56153e-05
0.000249564
0.000145078
0.999998
0.999894
1
1
0.000204961
4.15793e-12
2.2965e-13
6.5269e-14
1.10771e-14
8.10303e-16
2.03483e-17
1.80262e-19
5.75216e-22
7.18367e-25
3.97541e-28
1.12164e-31
2.95792e-35
2.7277e-38
2.53674e-41
1.08787e-41
5.0007e-40
1.93336e-35
3.53164e-28
1.6436e-21
1.43337e-15
1.01927e-10
2.2718e-07
0.000109307
0.0002218
1.57338e-09
0.258608
0.999998
1
1
1.53597e-07
4.08904e-12
1.29694e-12
3.99631e-13
6.96378e-14
5.32636e-15
1.48844e-16
1.56389e-18
6.08856e-21
9.31792e-24
6.22427e-27
1.94864e-30
2.74576e-34
1.61796e-38
1.16436e-40
7.24096e-39
3.51197e-37
1.05435e-35
2.06163e-28
1.01269e-21
7.29666e-16
7.64685e-11
5.49021e-05
0.000632212
0.000257558
1.56125e-09
0.000278254
1
0.999997
0.947501
2.48235e-07
1.98468e-11
5.51378e-12
1.66398e-12
2.96192e-13
2.34006e-14
7.57179e-16
9.77296e-18
4.82197e-20
9.45935e-23
7.95036e-26
2.92897e-29
4.27281e-33
2.04199e-37
3.24643e-38
2.19379e-36
1.14453e-34
3.80048e-36
8.4435e-29
3.92621e-22
3.07456e-16
1.11105e-11
5.52612e-08
0.000100527
0.00011728
1.65507e-10
-8.73108e-06
1
0.999978
0.44527
9.85363e-07
3.3368e-11
1.57776e-11
4.72254e-12
8.45823e-13
7.34037e-14
2.9649e-15
4.98675e-17
3.2944e-19
8.65505e-22
9.25862e-25
3.92124e-28
5.70669e-32
2.33173e-36
4.33859e-36
3.21825e-34
1.84344e-32
8.47679e-37
2.45111e-29
1.00788e-22
7.90723e-17
4.74349e-12
3.32365e-09
0.000163562
3.57412e-05
1.06564e-09
7.718e-08
0.999999
0.99979
0.0142059
3.17087e-06
8.54548e-11
3.12051e-11
9.63377e-12
1.90484e-12
2.17079e-13
1.16718e-14
2.61884e-16
2.31913e-18
7.94647e-21
1.03116e-23
4.76664e-27
6.65025e-31
2.43141e-35
2.76838e-34
2.31094e-32
1.48776e-30
1.11022e-37
4.60689e-30
1.96474e-23
1.15635e-17
6.9877e-13
3.4449e-10
4.67349e-06
0.000338804
1.05406e-09
7.62283e-08
0.998745
0.99957
0.000131957
9.23451e-11
1.47678e-10
5.05648e-11
1.89909e-11
5.32453e-12
8.41736e-13
5.76608e-14
1.65099e-15
1.84155e-17
7.62326e-20
1.12353e-22
5.4065e-26
7.01138e-30
2.50084e-34
8.10873e-33
7.85134e-31
5.84562e-29
8.71381e-39
4.88399e-31
2.53057e-24
1.52629e-18
7.13449e-14
1.61127e-10
4.6728e-10
0.000311336
7.17688e-10
1.66308e-06
4.63814e-09
1.66445e-09
0.00286665
9.94948e-10
2.64181e-10
1.03799e-10
4.81235e-11
1.70979e-11
3.42093e-12
3.0081e-13
1.12787e-14
1.60203e-16
7.94805e-19
1.31593e-21
6.59829e-25
8.33823e-29
3.4189e-33
9.99839e-32
1.16704e-29
1.04236e-27
4.02412e-40
3.0288e-32
1.82214e-25
1.37189e-19
7.15668e-15
1.71528e-11
3.07477e-10
3.79894e-09
4.71696e-10
4.23683e-06
2.14169e-06
4.04327e-08
0.00108377
5.35383e-10
3.83742e-10
2.20491e-10
9.70657e-11
4.97134e-11
1.30188e-11
1.58018e-12
7.97993e-14
1.49641e-15
9.63761e-18
2.00352e-20
1.27908e-23
2.74788e-27
4.14076e-31
4.49737e-31
6.66228e-29
7.49849e-27
9.60601e-42
1.06081e-33
7.36378e-27
6.62634e-21
4.79358e-16
1.72649e-12
1.32693e-10
5.27778e-10
2.3467e-10
7.32857e-09
5.29869e-10
2.99836e-09
6.96156e-07
8.27336e-07
5.35471e-10
2.44008e-10
3.21654e-10
3.5931e-10
1.27217e-10
1.43248e-11
9.2007e-13
1.78604e-14
1.45677e-16
4.4408e-19
4.9901e-22
2.65436e-25
9.92542e-29
6.21508e-31
1.19468e-28
1.81792e-26
1.06594e-43
1.84351e-35
1.568e-28
1.68042e-22
1.60004e-17
1.04753e-13
2.60079e-11
1.33183e-10
6.98498e-11
1.4388e-09
5.32765e-10
1.69556e-05
0.00145496
5.8943e-07
5.76538e-10
6.61127e-10
2.61848e-09
5.70039e-09
9.86137e-10
1.75466e-10
2.01638e-11
4.06277e-13
3.20744e-15
1.311e-17
2.62802e-20
2.83734e-23
2.00966e-26
1.11802e-29
4.95383e-29
1.13722e-26
5.20128e-46
1.43554e-37
1.56418e-30
2.11142e-24
2.60545e-19
2.83104e-15
1.62536e-12
1.18636e-11
1.12673e-11
2.1398e-10
3.36038e-10
0.000115328
5.77222e-07
3.6557e-06
8.82745e-08
4.30233e-05
4.00063e-05
3.78444e-05
1.01994e-05
8.72751e-10
3.2728e-10
1.10202e-11
1.10401e-13
4.97456e-16
1.42303e-18
2.6289e-21
3.27909e-24
3.06884e-27
5.29876e-30
1.21193e-27
1.11307e-48
4.8015e-40
6.74104e-33
1.18732e-26
1.97906e-21
3.38662e-17
3.49242e-14
4.28048e-13
9.01147e-13
6.89646e-11
2.60312e-10
0.000154933
8.1789e-07
3.1949e-08
1.50851e-07
1.53157e-06
1.0606e-06
4.47079e-07
3.35259e-07
4.82018e-07
2.45749e-09
1.70688e-10
3.58656e-12
2.31006e-14
8.18278e-17
2.14919e-19
4.33323e-22
6.73615e-25
8.34992e-28
1.97683e-29
1.10867e-51
7.00566e-43
1.23526e-35
2.81661e-29
6.42347e-24
1.72821e-19
2.85061e-16
6.31281e-15
4.40055e-14
1.60917e-11
2.5771e-10
5.28152e-05
7.19252e-07
8.87857e-06
2.92505e-08
3.20672e-05
3.41164e-05
0.000173106
3.35111e-07
0.000162608
4.44397e-05
8.01916e-10
6.25223e-11
8.55524e-13
4.34263e-15
1.36075e-17
3.39656e-20
6.78934e-23
1.04691e-25
1.27032e-28
6.54153e-55
4.94544e-46
1.0169e-38
2.85893e-32
8.61796e-27
3.50934e-22
8.77649e-19
3.74995e-17
2.47425e-15
2.27092e-12
9.69551e-11
1.30172e-05
4.42192e-05
2.71456e-05
5.2482e-08
0.000139118
0.000118698
2.60965e-07
2.65139e-05
0.000128792
7.07789e-05
1.38043e-09
2.44278e-10
7.01977e-12
5.80379e-14
2.25259e-16
6.04697e-19
1.349e-21
2.44161e-24
3.42634e-27
3.20147e-58
2.37059e-49
4.68054e-42
1.40473e-35
5.09366e-30
2.86315e-25
1.04417e-21
1.26614e-19
1.02656e-16
1.30549e-13
1.16281e-11
1.73256e-07
9.89689e-06
1.87544e-05
3.47878e-08
2.68013e-08
4.60511e-08
7.97784e-06
7.25534e-05
0.000122011
1.96026e-05
1.29799e-09
2.30388e-10
8.23387e-12
9.26683e-14
4.55582e-16
1.3558e-18
3.12404e-21
5.99333e-24
9.08437e-27
8.70123e-62
9.65898e-53
1.87018e-45
4.99293e-39
1.75873e-33
1.14743e-28
6.52872e-25
5.82831e-22
1.49814e-18
2.24038e-15
2.01333e-13
1.11119e-10
2.56586e-05
7.74415e-05
2.74875e-05
3.23893e-06
7.11234e-05
6.47269e-06
7.78376e-06
6.17959e-05
6.02981e-09
4.51013e-10
3.20735e-11
8.61995e-13
8.94175e-15
4.64211e-17
1.4922e-19
3.50274e-22
6.49283e-25
9.35693e-28
7.7774e-66
1.99187e-56
5.50621e-49
1.7267e-42
6.24901e-37
4.38276e-32
5.045e-28
1.9302e-24
6.505e-21
1.00449e-17
1.35029e-15
3.90961e-13
1.47802e-10
3.91703e-09
2.24981e-09
2.16299e-05
3.47009e-08
7.67881e-05
1.77424e-05
3.03587e-11
2.24151e-11
2.7005e-12
1.00244e-13
1.66214e-15
1.44727e-17
7.22764e-20
2.2139e-22
4.44891e-25
6.20644e-28
6.21423e-31
1.84228e-70
1.40416e-60
6.98321e-53
3.45932e-46
1.79376e-40
1.7091e-35
3.41067e-31
2.28923e-27
8.60299e-24
1.19482e-20
2.44723e-18
1.67323e-16
3.28794e-13
3.59617e-11
1.83918e-10
4.26846e-11
3.845e-10
3.02186e-11
4.2975e-12
2.71108e-13
9.05818e-15
1.66703e-16
1.68739e-18
9.54096e-21
3.0945e-23
5.95201e-26
6.98804e-29
5.14852e-32
2.4298e-35
7.45651e-39
9.75216e-76
2.96191e-65
3.1539e-57
2.85368e-50
2.42532e-44
3.32189e-39
9.66348e-35
9.00588e-31
3.69528e-27
4.49679e-24
9.86851e-22
4.59114e-20
3.91307e-18
1.56575e-14
1.47566e-13
1.67141e-13
7.72975e-15
6.20802e-17
3.10294e-19
1.41467e-21
5.22952e-24
1.38121e-26
2.43866e-29
2.79598e-32
2.05999e-35
9.76123e-39
2.9719e-42
5.81223e-46
7.24914e-50
5.68176e-54
8.37141e-82
1.67293e-70
4.84018e-62
9.29139e-55
1.40693e-48
2.68022e-43
1.04409e-38
1.2057e-34
4.87372e-31
4.85905e-28
9.16647e-26
1.60805e-24
3.11561e-24
5.55866e-23
1.00951e-28
1.04011e-31
8.8221e-35
1.27729e-37
2.72403e-40
5.85973e-43
1.03649e-45
1.35739e-48
1.24167e-51
7.65601e-55
3.10113e-58
8.10008e-62
1.33439e-65
1.35635e-69
8.2595e-74
2.9002e-78
6.53424e-89
2.07335e-76
2.41436e-67
1.23954e-59
3.76015e-53
9.65656e-48
4.56674e-43
5.73363e-39
2.00217e-35
1.5535e-32
2.21904e-30
8.50311e-30
1.69034e-31
2.56247e-35
1.02427e-39
2.13377e-44
4.86108e-49
1.74281e-53
8.04674e-58
3.6618e-62
1.39225e-66
4.00569e-71
8.19728e-76
1.14484e-80
1.0577e-85
6.31524e-91
2.36985e-96
5.42581e-102
7.27024e-108
5.38892e-114
-3.00319e-17
-2.99325e-17
9.80165e-19
1.10839e-16
3.2068e-16
4.16352e-16
2.49029e-16
4.25672e-17
1.31012e-18
8.15457e-20
5.56e-18
3.02163e-16
2.0339e-14
6.57549e-12
2.25653e-10
9.41692e-05
0.839583
1
1
1
1
1
1
1
1
1
1
1
0.672664
0.252965
-2.43475e-19
-2.36318e-19
-3.96564e-20
5.49164e-19
1.3804e-18
1.35863e-18
4.92004e-19
3.9002e-20
9.35901e-22
4.23823e-20
2.79121e-18
1.40481e-16
6.52742e-15
1.59259e-12
2.53662e-10
1.12185e-05
0.422725
1
1
1
1
1
1
1
1
1
0.00329958
2.88316e-08
9.18125e-10
9.86426e-11
-4.55622e-22
-4.30978e-22
-1.1939e-22
6.32476e-22
1.30097e-21
8.66733e-22
1.62409e-22
7.64852e-24
2.52108e-22
1.86341e-20
1.1184e-18
5.37598e-17
2.25126e-15
2.3585e-13
1.77169e-10
7.94684e-06
0.0669678
1
1
1
1
1
1
1
0.529185
1.40151e-07
9.66251e-10
2.65559e-10
8.95087e-12
1.66959e-11
-1.53558e-25
-1.39647e-25
-4.53381e-26
1.26921e-25
1.952e-25
7.51108e-26
1.56942e-26
1.08724e-24
9.20826e-23
6.34628e-21
3.53119e-19
1.66127e-17
7.3173e-16
5.06101e-14
9.1594e-11
5.45145e-06
0.0129572
1
1
1
1
1
0.999995
0.538215
7.03015e-06
8.19052e-10
7.01806e-11
1.50662e-12
6.99657e-15
1.96489e-14
-6.18478e-30
-5.26686e-30
-1.71694e-30
2.74408e-30
2.74917e-30
1.85855e-29
2.80037e-27
3.06894e-25
2.55416e-23
1.65157e-21
8.68257e-20
4.07937e-18
1.96467e-16
1.58055e-14
3.54255e-11
2.2817e-08
-3.32241e-06
1
1
1
1
0.999522
0.999984
0.0588096
0.000872661
3.34707e-10
1.1448e-12
2.78979e-15
1.36572e-18
1.87436e-18
-1.2938e-35
-9.82283e-36
-2.82299e-36
3.81611e-35
1.52358e-32
3.68312e-30
5.88806e-28
6.54239e-26
5.28444e-24
3.2515e-22
1.64963e-20
7.90852e-19
4.24276e-17
3.60746e-15
8.05257e-12
1.05705e-09
2.7322e-10
1
1
1
1
1
0.996305
0.00034953
1.01232e-06
9.07646e-11
1.57118e-14
4.34525e-18
1.84888e-22
1.34179e-23
-4.83999e-40
-5.237e-40
4.76865e-39
5.1756e-36
2.29002e-33
5.73019e-31
9.30572e-29
1.02839e-26
8.12956e-25
5.03328e-23
2.87417e-21
1.53633e-19
7.97512e-18
7.04854e-16
9.35048e-13
1.67284e-09
2.65662e-07
1
1
1
0.999967
0.999997
0.603922
1.75853e-05
2.76284e-05
6.97387e-10
6.86297e-15
1.25627e-20
7.00254e-26
5.74252e-30
-8.726e-43
-4.91664e-43
5.37156e-40
5.74561e-37
2.64574e-34
7.16359e-32
1.6574e-29
5.67553e-27
2.07305e-24
3.28288e-22
1.63767e-20
4.9361e-19
9.10102e-18
1.59494e-16
6.23807e-14
3.46572e-10
1.40961e-05
1
1
1
0.999999
1
0.000218689
6.57319e-05
1.66033e-06
2.76851e-10
7.48356e-15
2.38099e-21
4.12326e-28
7.85e-35
9.74535e-42
3.41153e-40
2.65097e-38
1.14139e-35
7.72735e-33
6.01138e-30
4.30948e-27
2.29891e-24
7.35452e-22
8.35624e-20
2.32724e-18
1.50059e-17
7.76873e-17
3.80257e-16
6.72419e-15
1.20466e-10
0.000486267
1
1
0.999946
1
0.568959
1.47494e-05
1.49701e-05
0.000150334
1.58305e-10
9.28671e-15
6.63729e-21
5.69902e-28
2.87723e-35
1.767e-38
6.21829e-37
3.59909e-35
1.03151e-32
5.26457e-30
3.04178e-27
1.59687e-24
6.35325e-22
1.59781e-19
1.36609e-17
3.10794e-16
1.60894e-15
1.78985e-15
2.66988e-15
7.86211e-15
9.65682e-11
0.000216519
0.852497
1
0.999995
1
7.53712e-05
6.34952e-06
0.000213031
0.00025811
2.28218e-10
1.27701e-14
6.32418e-21
8.11742e-28
5.50138e-35
1.31714e-35
4.856e-34
2.45343e-32
4.58489e-30
1.8201e-27
8.10538e-25
3.24283e-22
1.00691e-19
2.01888e-17
1.26277e-15
2.33468e-14
1.18538e-13
1.41849e-13
3.14187e-14
3.53403e-14
6.3334e-11
8.1364e-07
0.414229
1
1
0.999998
-1.41749e-06
0.000273393
0.000384251
7.30579e-06
1.62287e-10
6.91744e-15
4.98589e-21
1.0379e-27
7.28236e-35
4.63378e-33
1.83554e-31
9.11871e-30
1.12525e-27
3.52871e-25
1.23648e-22
3.85085e-20
9.57507e-18
1.48889e-15
6.46583e-14
9.22437e-13
4.37814e-12
6.48845e-12
1.87212e-12
1.6831e-13
2.07958e-11
-7.45362e-08
0.0964843
1
0.999933
0.182668
8.89614e-09
8.52463e-07
0.000141688
8.27203e-05
1.00843e-10
2.0783e-15
3.75508e-21
8.40737e-28
5.79177e-35
8.19985e-31
3.55881e-29
1.86451e-27
1.62334e-25
4.08204e-23
1.13728e-20
2.78669e-18
5.61819e-16
6.35448e-14
1.80142e-12
1.8241e-11
7.38536e-11
1.2063e-10
6.2198e-11
4.36968e-12
5.30032e-12
5.57767e-09
-9.63008e-08
1
0.999999
0.0173524
2.37482e-09
1.08479e-05
0.000164822
2.21033e-06
2.44612e-11
9.66794e-16
1.74883e-21
3.9187e-28
2.77454e-35
7.42182e-29
3.59864e-27
2.06759e-25
1.51029e-23
2.92414e-21
6.51165e-19
1.26224e-16
2.06653e-14
1.54472e-12
2.69421e-11
1.72689e-10
5.28418e-10
1.00961e-09
7.0892e-10
1.17064e-10
5.98258e-12
5.88764e-11
1.45829e-06
0.999981
0.999964
-0.000148106
2.23161e-09
0.000326003
6.83606e-06
4.27612e-10
6.06054e-12
2.67964e-16
4.41169e-22
1.23908e-28
8.13472e-36
3.35539e-27
1.86003e-25
1.20491e-23
9.06707e-22
1.31304e-19
2.35288e-17
3.62633e-15
4.78393e-13
2.09688e-11
2.15234e-10
8.37271e-10
1.4541e-09
2.0144e-08
8.52556e-09
9.37948e-10
8.06144e-11
1.82788e-11
9.7986e-08
0.990315
0.999305
2.87568e-06
1.58828e-09
0.000189507
4.09781e-05
1.76905e-10
1.61272e-12
4.40696e-17
8.49541e-23
2.52574e-29
1.23691e-36
7.11753e-26
4.64673e-24
3.48981e-22
2.94082e-20
3.61784e-18
5.32265e-16
6.59179e-14
6.92596e-12
1.57637e-10
9.31551e-10
1.03615e-08
1.68426e-07
1.3306e-05
1.21368e-05
4.86588e-09
4.92468e-10
1.96101e-11
0.000237324
9.82451e-09
-7.70657e-10
5.90791e-07
9.64729e-10
1.33285e-09
7.52393e-09
1.62136e-10
2.10222e-13
5.11891e-18
1.13346e-23
2.63405e-30
9.07663e-38
6.37259e-25
5.10122e-23
4.59999e-21
4.51708e-19
5.67484e-17
7.19982e-15
7.32832e-13
6.15142e-11
6.79366e-10
2.91499e-09
4.44158e-09
2.08523e-07
3.66888e-07
1.79931e-07
1.83924e-07
2.23726e-09
1.0229e-10
0.00239419
1.62285e-07
5.73671e-10
3.31708e-08
4.48699e-10
7.30429e-10
5.54946e-10
3.66955e-11
1.69245e-14
4.59727e-19
7.83013e-25
1.29834e-31
3.33299e-39
2.0526e-24
2.13598e-22
2.43293e-20
3.11545e-18
4.43299e-16
5.22851e-14
4.49995e-12
3.16715e-10
1.74886e-09
1.7374e-08
7.48586e-07
4.15467e-06
9.91947e-07
7.37746e-05
0.000176371
3.95841e-08
2.40246e-10
9.43326e-06
1.01588e-09
5.88204e-10
1.4241e-07
1.47666e-10
6.28578e-10
1.62242e-10
3.34481e-12
1.09619e-15
2.05597e-20
2.38038e-26
3.00822e-33
6.45658e-41
1.89105e-24
2.81449e-22
4.77274e-20
9.10546e-18
1.52085e-15
1.76013e-13
1.27631e-11
7.85934e-10
2.76444e-09
8.6933e-05
1.70187e-05
5.77963e-08
4.97687e-08
8.0522e-05
2.9935e-07
2.2969e-06
2.48954e-10
0.00177941
9.69037e-10
5.92152e-10
1.27279e-08
3.62892e-11
1.01553e-10
2.93746e-11
1.97289e-13
3.26604e-17
3.71585e-22
3.20831e-28
3.52177e-35
7.05175e-43
3.71821e-25
1.12567e-22
3.69167e-20
1.0626e-17
2.15483e-15
2.53222e-13
1.51757e-11
6.00027e-10
1.69973e-07
1.70456e-07
3.25925e-07
2.40365e-06
3.70277e-07
1.00071e-07
3.01019e-07
0.000169316
8.14369e-10
0.00183667
9.34515e-06
2.38772e-10
7.66872e-10
6.55029e-12
4.54057e-12
1.43086e-12
4.54373e-15
3.57827e-19
2.85424e-24
2.15175e-30
2.29381e-37
4.51484e-45
1.92951e-26
1.5584e-23
1.04216e-20
4.74447e-18
1.2371e-15
1.58914e-13
8.83749e-12
1.94083e-10
6.75609e-10
7.97388e-05
7.50006e-05
3.5838e-05
3.90009e-07
5.25895e-06
8.62285e-06
0.000357939
1.80509e-08
1.07311e-07
2.52623e-06
1.7889e-10
1.19032e-10
1.19326e-12
9.18854e-14
1.74374e-14
3.37444e-17
1.62062e-21
1.09877e-26
8.15442e-33
8.86916e-40
1.74608e-47
2.74681e-28
6.72517e-25
9.89551e-22
7.60833e-19
2.75854e-16
4.31746e-14
2.68516e-12
6.17504e-11
3.85024e-10
2.98308e-10
3.48985e-05
6.64202e-06
1.38057e-07
9.38877e-08
7.82074e-07
3.35655e-05
2.00735e-09
1.19747e-07
6.98788e-05
1.21614e-10
3.60212e-11
2.17552e-13
1.21644e-15
7.4832e-17
9.96276e-20
3.80857e-24
2.49521e-29
1.94527e-35
2.26385e-42
4.67742e-50
4.17045e-30
8.10729e-27
2.76664e-23
3.81797e-20
2.08137e-17
4.37632e-15
3.42445e-13
9.45668e-12
8.52885e-11
1.42291e-10
2.11752e-11
6.49431e-07
7.77285e-09
1.88555e-08
7.89392e-08
6.53257e-09
1.76906e-09
1.4237e-06
1.91612e-06
3.35393e-09
9.05219e-12
2.45611e-14
2.28677e-17
1.85841e-19
1.6243e-22
5.93911e-27
4.10236e-32
3.72319e-38
4.94638e-45
1.06184e-52
8.79407e-30
2.08755e-29
1.71271e-25
4.49399e-22
4.01428e-19
1.26957e-16
1.43889e-14
5.71574e-13
7.71218e-12
1.982e-11
2.49855e-11
2.82043e-10
8.80665e-08
6.59922e-06
1.08929e-07
7.89981e-08
3.72898e-09
2.48564e-05
0.000168852
6.7005e-10
2.24615e-12
1.20884e-15
5.89748e-19
6.03463e-22
2.42637e-25
9.18784e-30
6.97537e-35
6.74567e-41
8.23528e-48
1.40324e-55
8.42109e-31
5.68221e-33
1.13148e-28
6.40394e-25
1.08719e-21
6.1408e-19
1.23873e-16
9.4304e-15
2.24978e-13
1.6333e-12
1.29956e-11
7.36844e-11
1.26481e-10
1.29017e-09
3.38276e-08
9.19789e-05
7.96635e-07
2.23099e-06
2.99803e-05
1.51386e-10
9.72122e-14
2.22921e-17
6.70938e-21
2.94989e-24
5.30521e-28
1.58813e-32
9.61619e-38
7.10446e-44
6.08843e-51
6.67748e-59
3.74778e-34
1.0785e-37
1.19476e-33
1.78612e-29
7.80072e-26
1.18298e-22
9.16204e-20
1.81391e-17
1.13592e-15
2.66826e-14
2.8325e-13
4.08348e-12
1.02241e-10
2.33112e-10
2.00035e-10
2.81317e-10
1.92363e-05
1.27034e-06
1.19199e-09
3.30046e-12
7.22963e-16
1.59409e-19
2.68834e-23
7.16883e-27
7.72501e-31
1.54423e-35
6.11566e-41
2.9355e-47
1.54602e-54
9.55458e-63
1.24396e-42
7.44072e-47
3.93944e-43
2.48477e-38
4.90045e-34
9.31825e-30
3.38252e-26
2.74626e-23
8.69403e-21
1.53789e-18
1.78877e-16
1.04496e-14
2.22241e-13
1.50025e-12
3.13409e-12
7.73574e-12
1.23544e-10
2.06986e-10
6.34344e-12
1.59043e-15
1.98573e-18
3.57368e-22
3.96813e-26
6.47019e-30
4.52203e-34
6.03593e-39
1.49501e-44
4.30373e-51
1.2526e-58
3.7716e-67
2.24228e-58
2.68487e-63
9.35379e-61
3.61398e-55
1.14828e-49
4.28026e-44
8.09343e-40
4.14836e-36
1.08292e-32
1.98274e-29
2.10372e-26
9.33725e-24
1.46607e-21
7.47238e-20
1.10473e-18
3.33516e-17
2.30707e-14
1.32847e-13
4.20817e-16
6.85393e-19
1.52406e-21
2.70017e-25
2.27467e-29
2.20292e-33
1.02303e-37
9.25276e-43
1.39648e-48
2.21209e-55
3.10039e-63
3.68945e-72
4.56016e-83
1.82704e-88
9.12047e-85
8.57391e-79
4.39693e-72
2.17535e-66
1.45494e-61
3.81169e-57
7.41753e-53
1.28865e-48
1.36719e-44
6.73892e-41
1.41606e-37
1.2602e-34
3.08031e-31
3.96663e-26
6.99637e-21
8.13912e-19
4.40588e-21
7.20163e-23
2.7767e-25
6.48472e-29
4.80455e-33
2.94706e-37
9.45426e-42
5.91401e-47
5.18023e-53
3.97589e-60
2.17188e-68
7.23186e-78
1.66034e-120
4.49011e-127
5.88577e-119
4.73801e-111
5.04908e-102
1.09076e-94
4.01245e-88
6.65332e-82
8.75552e-76
8.48505e-70
4.372e-64
1.03529e-58
1.0815e-53
4.94935e-49
1.01527e-44
7.2782e-39
3.46875e-31
6.08737e-26
7.76641e-27
1.19237e-27
1.29297e-29
4.73109e-33
3.60642e-37
1.60541e-41
3.90963e-46
1.7911e-51
8.08321e-58
2.45444e-65
3.70011e-74
1.8677e-84
1
1
1
1
1
1
1
1
1
1
1
1
1
1
1
1
1
1
1
1
1
1
1
1
1
1
1
1
1
1
1
1
1
1
1
1
1
1
1
1
1
1
1
1
1
1
1
1
1
1
1
1
1
1
1
1
1
1
1
1
1
1
1
1
1
1
1
1
1
1
1
1
1
1
1
1
1
1
1
1
1
1
1
1
1
1
1
1
1
1
1
1
1
1
1
1
1
1
1
1
1
1
1
1
1
1
1
1
1
1
1
1
1
1
1
1
1
1
1
1
1
1
1
1
1
1
1
1
1
1
1
1
1
1
1
1
1
1
1
1
1
1
1
1
1
1
1
1
1
1
1
1
1
1
1
1
1
1
1
1
1
1
1
1
1
1
1
1
1
1
1
1
1
1
1
1
1
1
1
1
1
1
1
1
1
1
1
1
1
1
1
1
1
1
1
1
1
1
1
1
1
1
1
1
1
1
1
1
1
1
1
1
1
1
1
1
1
1
1
1
1
1
1
1
1
1
1
1
1
1
1
1
1
1
1
1
1
1
1
1
1
1
1
1
1
1
1
1
1
1
1
1
1
1
1
1
1
1
1
1
1
1
1
1
1
1
1
1
1
0.999983
1
1
1
1
1
1
1
1
1
1
1
1
1
1
1
1
1
1
1
1
1
1
1
1
1
1
1
1
1
1
1
1
1
1
1
1
1
1
1
1
1
1
1
1
1
1
1
1
1
1
1
1
1
1
1
1
1
1
1
0.999966
1
1
1
1
1
1
1
1
1
1
1
1
1
1
1
1
1
1
1
1
1
1
1
1
1
1
1
1
1
0.999991
1
1
1
1
1
1
1
1
1
1
1
1
1
1
1
1
1
1
1
1
1
1
1
1
1
1
1
1
1
1
1
1
1
1
1
1
1
1
1
1
1
1
1
1
1
1
1
1
1
1
1
1
1
1
1
1
1
1
1
1
1
1
1
1
1
1
1
1
1
1
1
1
1
1
1
1
1
1
1
1
1
1
1
1
1
1
1
1
1
1
1
1
1
1
1
1
1
1
1
1
1
1
1
1
1
1
1
1
1
1
1
1
1
1
1
0.964879
0.787376
0.534853
0.303313
0.235932
1
1
1
1
1
1
1
1
1
1
1
1
1
1
1
1
1
1
1
1
1
0.178306
0.000604266
0.000266443
8.1548e-05
2.65927e-05
6.82941e-06
2.6428e-06
1.53724e-06
2.49577e-06
1
1
1
1
1
1
1
1
1
1
1
1
1
1
1
1
1
1
1
0.869993
4.70505e-05
5.97382e-07
4.00569e-08
7.80194e-08
3.67748e-08
1.5235e-08
9.49289e-09
1.30565e-06
5.79756e-09
6.52042e-09
1
1
1
1
1
1
1