/*--------------------------------*- C++ -*----------------------------------*\
| =========                 |                                                 |
| \\      /  F ield         | OpenFOAM: The Open Source CFD Toolbox           |
|  \\    /   O peration     | Version:  2.4.0                                 |
|   \\  /    A nd           | Web:      www.OpenFOAM.org                      |
|    \\/     M anipulation  |                                                 |
\*---------------------------------------------------------------------------*/
FoamFile
{
    version     2.0;
    format      ascii;
    class       volVectorField;
    location    "0.048";
    object      U;
}
// * * * * * * * * * * * * * * * * * * * * * * * * * * * * * * * * * * * * * //

dimensions      [0 1 -1 0 0 0 0];

internalField   nonuniform List<vector> 
57600
(
(-0.000513516 3.91784e-05 0)
(-0.00118938 1.5168e-05 0)
(-0.00224607 1.98091e-05 0)
(-0.00347314 2.51726e-05 0)
(-0.00479079 2.77477e-05 0)
(-0.00592229 2.11279e-05 0)
(-0.00634684 -7.40285e-06 0)
(-0.00524916 -7.32836e-05 0)
(-0.0018392 -0.00017397 0)
(0.00407564 -0.000281607 0)
(0.011967 -0.000371727 0)
(0.0209383 -0.000429736 0)
(0.0300542 -0.000448808 0)
(0.0384589 -0.000423476 0)
(0.045432 -0.00035067 0)
(0.0504807 -0.000236705 0)
(0.0534107 -9.41806e-05 0)
(0.0542679 6.57505e-05 0)
(0.0532193 0.00023751 0)
(0.0505154 0.000408979 0)
(0.0464999 0.000565224 0)
(0.041579 0.000694156 0)
(0.0361531 0.000791211 0)
(0.0305572 0.000858422 0)
(0.0250436 0.00090191 0)
(0.0197827 0.000928096 0)
(0.0148797 0.000942829 0)
(0.0103882 0.000949405 0)
(0.0063247 0.000950154 0)
(0.00267475 0.000946322 0)
(-0.000643844 0.000151681 0)
(-0.0022849 0.0001227 0)
(-0.00412536 0.000157415 0)
(-0.00634872 0.000200334 0)
(-0.00884046 0.000219483 0)
(-0.0112046 0.000171052 0)
(-0.0127213 -1.9224e-05 0)
(-0.0123649 -0.000419032 0)
(-0.00926677 -0.000993968 0)
(-0.00325924 -0.00161809 0)
(0.00512048 -0.00216929 0)
(0.0149817 -0.00256837 0)
(0.0253349 -0.00275496 0)
(0.0352129 -0.00268195 0)
(0.043772 -0.0023313 0)
(0.0504207 -0.00173796 0)
(0.0548793 -0.000962197 0)
(0.0570959 -4.56219e-05 0)
(0.0571349 0.000983748 0)
(0.05517 0.0020624 0)
(0.0515125 0.00310464 0)
(0.0465749 0.00403833 0)
(0.0407924 0.00482351 0)
(0.0345619 0.00544529 0)
(0.02822 0.00590151 0)
(0.0220432 0.00619591 0)
(0.0162359 0.00634231 0)
(0.0109308 0.00637042 0)
(0.00617995 0.00632355 0)
(0.00196711 0.00624631 0)
(-0.000655426 0.000273204 0)
(-0.00236674 0.000247371 0)
(-0.00429735 0.000323132 0)
(-0.00666639 0.000420886 0)
(-0.00938665 0.000481437 0)
(-0.0120921 0.000424631 0)
(-0.0140907 0.000114946 0)
(-0.0143602 -0.000574224 0)
(-0.0119964 -0.00159024 0)
(-0.00677165 -0.00271898 0)
(0.000855778 -0.00374794 0)
(0.0100756 -0.00453329 0)
(0.0199564 -0.004959 0)
(0.0295506 -0.00492833 0)
(0.0380014 -0.0044011 0)
(0.0446893 -0.00343127 0)
(0.049309 -0.00211952 0)
(0.0517856 -0.000528927 0)
(0.0521524 0.00129775 0)
(0.050547 0.00325028 0)
(0.0472644 0.0051675 0)
(0.0427183 0.00690915 0)
(0.0373505 0.00839191 0)
(0.0315595 0.00957793 0)
(0.0256726 0.0104523 0)
(0.0199493 0.0110124 0)
(0.0145788 0.0112765 0)
(0.00969115 0.0112978 0)
(0.00534771 0.0111629 0)
(0.00154147 0.0109688 0)
(-0.000657446 0.000396078 0)
(-0.00236529 0.000373509 0)
(-0.00429669 0.000491647 0)
(-0.00667378 0.000646985 0)
(-0.00941501 0.000753609 0)
(-0.0121649 0.00069617 0)
(-0.0142456 0.000277969 0)
(-0.0146286 -0.000690284 0)
(-0.0123745 -0.00214112 0)
(-0.00722762 -0.00377332 0)
(0.000364714 -0.00528574 0)
(0.00959954 -0.00646975 0)
(0.0195552 -0.00715397 0)
(0.0292838 -0.00718657 0)
(0.0379061 -0.00649974 0)
(0.0447708 -0.00516615 0)
(0.0495647 -0.00333203 0)
(0.0522277 -0.0010829 0)
(0.0527779 0.00153642 0)
(0.0513031 0.00437277 0)
(0.0480689 0.0071789 0)
(0.0434959 0.00973697 0)
(0.0380463 0.0119185 0)
(0.0321328 0.0136677 0)
(0.0260843 0.0149644 0)
(0.0201596 0.0158002 0)
(0.0145616 0.0161855 0)
(0.00946243 0.0161739 0)
(0.00498347 0.0158835 0)
(0.00115758 0.0154817 0)
(-0.00065967 0.000520133 0)
(-0.00235737 0.000499358 0)
(-0.00428281 0.000659981 0)
(-0.00665908 0.000873565 0)
(-0.00940963 0.00102764 0)
(-0.0121898 0.000972811 0)
(-0.0143394 0.000451248 0)
(-0.0148206 -0.000793755 0)
(-0.0126481 -0.00268271 0)
(-0.00753638 -0.0048247 0)
(6.96112e-05 -0.00682808 0)
(0.00936674 -0.00842157 0)
(0.0194454 -0.00937921 0)
(0.0293631 -0.00949152 0)
(0.0382179 -0.00865546 0)
(0.0453182 -0.00696148 0)
(0.0503425 -0.00461396 0)
(0.0532645 -0.00172286 0)
(0.0540877 0.00169033 0)
(0.052816 0.00544303 0)
(0.0496606 0.00918623 0)
(0.0450484 0.0126086 0)
(0.0394707 0.0155332 0)
(0.0333596 0.0178934 0)
(0.0270445 0.0196729 0)
(0.0207725 0.0208569 0)
(0.0147476 0.0214223 0)
(0.00919369 0.0213688 0)
(0.00435611 0.0207972 0)
(0.000407123 0.0199687 0)
(-0.000662599 0.000645768 0)
(-0.00234687 0.0006247 0)
(-0.00426437 0.000827892 0)
(-0.006639 0.00110043 0)
(-0.00940029 0.00130348 0)
(-0.0122174 0.00125507 0)
(-0.0144525 0.000636488 0)
(-0.0150578 -0.00088265 0)
(-0.0129891 -0.00321435 0)
(-0.00792248 -0.0058743 0)
(-0.000301424 -0.00837776 0)
(0.00907009 -0.0103933 0)
(0.0192996 -0.0116433 0)
(0.0294549 -0.0118565 0)
(0.0386057 -0.010885 0)
(0.0460052 -0.0088347 0)
(0.0513146 -0.00598562 0)
(0.054568 -0.0024819 0)
(0.0557646 0.00172105 0)
(0.054779 0.00643446 0)
(0.0517373 0.0111832 0)
(0.0470782 0.0155362 0)
(0.0413416 0.0192619 0)
(0.0349944 0.0222935 0)
(0.0283683 0.0246376 0)
(0.0216758 0.0262917 0)
(0.0150633 0.0271912 0)
(0.00873945 0.0271926 0)
(0.00311667 0.0261937 0)
(-0.00121686 0.0244496 0)
(-0.000666373 0.000773455 0)
(-0.00233381 0.000749371 0)
(-0.00424153 0.000995258 0)
(-0.00661382 0.00132759 0)
(-0.0093875 0.00158147 0)
(-0.012248 0.00154415 0)
(-0.0145863 0.000836537 0)
(-0.0153437 -0.000953293 0)
(-0.0134034 -0.00373346 0)
(-0.00839366 -0.00692134 0)
(-0.000757588 -0.00993583 0)
(0.0086989 -0.0123885 0)
(0.0191057 -0.0139547 0)
(0.0295475 -0.0142961 0)
(0.0390621 -0.0132074 0)
(0.0468257 -0.0108031 0)
(0.0524672 -0.00746445 0)
(0.0561204 -0.00339512 0)
(0.0578131 0.00158179 0)
(0.0572199 0.00731657 0)
(0.0543335 0.0131644 0)
(0.0496165 0.0185335 0)
(0.0436872 0.0231265 0)
(0.037076 0.0268884 0)
(0.0301311 0.0298791 0)
(0.0230203 0.0321626 0)
(0.015746 0.0337034 0)
(0.00825896 0.0342026 0)
(0.000839773 0.0329437 0)
(-0.00503535 0.02925 0)
(-0.000671152 0.000903745 0)
(-0.00231811 0.000873188 0)
(-0.00421423 0.00116195 0)
(-0.00658342 0.00155509 0)
(-0.00937096 0.00186193 0)
(-0.0122811 0.00184119 0)
(-0.0147399 0.00105434 0)
(-0.0156786 -0.00100179 0)
(-0.0138923 -0.00423723 0)
(-0.00895183 -0.00796496 0)
(-0.00130113 -0.0115027 0)
(0.00824885 -0.0144105 0)
(0.0188571 -0.0163214 0)
(0.0296339 -0.0168256 0)
(0.0395841 -0.0156427 0)
(0.047781 -0.0128827 0)
(0.0537886 -0.00906269 0)
(0.0578983 -0.00450168 0)
(0.0602441 0.00121145 0)
(0.0601848 0.00805016 0)
(0.0575042 0.0151248 0)
(0.0527095 0.0216188 0)
(0.0465438 0.0271498 0)
(0.0396418 0.0316855 0)
(0.0324058 0.0353696 0)
(0.0250027 0.038402 0)
(0.017307 0.0409728 0)
(0.00873364 0.0430676 0)
(-0.00187343 0.0434993 0)
(-0.0111437 0.0350917 0)
(-0.000677126 0.0010373 0)
(-0.00229968 0.000995947 0)
(-0.0041824 0.00132784 0)
(-0.00654771 0.00178291 0)
(-0.00935032 0.00214513 0)
(-0.0123156 0.00214725 0)
(-0.0149119 0.0012929 0)
(-0.0160627 -0.00102401 0)
(-0.0144577 -0.00472275 0)
(-0.00959906 -0.00900423 0)
(-0.00193472 -0.0130792 0)
(0.00771491 -0.0164621 0)
(0.0185455 -0.0187508 0)
(0.0297056 -0.0194602 0)
(0.0401686 -0.0182125 0)
(0.0488755 -0.0150902 0)
(0.0552648 -0.0107826 0)
(0.059859 -0.00584443 0)
(0.0630711 0.000524787 0)
(0.0637391 0.00858503 0)
(0.0613222 0.0170618 0)
(0.0564134 0.0248201 0)
(0.0499417 0.0313639 0)
(0.0427043 0.0366904 0)
(0.0352039 0.0410432 0)
(0.0277074 0.0447624 0)
(0.0202546 0.048372 0)
(0.0124374 0.0528295 0)
(0.00357294 0.0564318 0)
(0.00335833 0.0288537 0)
(-0.000684501 0.00117492 0)
(-0.00227841 0.00111742 0)
(-0.00414596 0.0014928 0)
(-0.00650651 0.00201107 0)
(-0.0093252 0.00243134 0)
(-0.0123503 0.00246332 0)
(-0.015101 0.0015553 0)
(-0.0164963 -0.00101561 0)
(-0.0151014 -0.00518697 0)
(-0.0103378 -0.0100383 0)
(-0.00266135 -0.0146659 0)
(0.00709201 -0.0185449 0)
(0.0181615 -0.0212498 0)
(0.0297514 -0.0222158 0)
(0.0408117 -0.020942 0)
(0.0501193 -0.0174427 0)
(0.056884 -0.0126095 0)
(0.0619245 -0.00746877 0)
(0.0663095 -0.00060187 0)
(0.0679757 0.00885714 0)
(0.0658857 0.0189788 0)
(0.0607965 0.0281834 0)
(0.0539045 0.0358224 0)
(0.0462457 0.041929 0)
(0.0384446 0.0468622 0)
(0.0309014 0.0509893 0)
(0.024074 0.0548299 0)
(0.0187543 0.0592422 0)
(0.0173175 0.0585673 0)
(0.023736 0.0167321 0)
(-0.000693506 0.00131755 0)
(-0.00225417 0.00123736 0)
(-0.00410483 0.00165668 0)
(-0.00645971 0.00223955 0)
(-0.00929518 0.00272075 0)
(-0.0123842 0.00279026 0)
(-0.0153054 0.00184472 0)
(-0.0169797 -0.000971833 0)
(-0.0158257 -0.00562665 0)
(-0.0111709 -0.0110663 0)
(-0.00348382 -0.0162628 0)
(0.00637408 -0.0206599 0)
(0.0176938 -0.0238243 0)
(0.0297571 -0.0251089 0)
(0.0415077 -0.0238598 0)
(0.0515312 -0.0199625 0)
(0.0586456 -0.0145006 0)
(0.0639472 -0.00941173 0)
(0.0699874 -0.002359 0)
(0.0730302 0.00878725 0)
(0.0713262 0.0208907 0)
(0.0659467 0.0317816 0)
(0.0584479 0.0406152 0)
(0.0502304 0.0474575 0)
(0.0420128 0.0528949 0)
(0.0341532 0.0571849 0)
(0.0272977 0.0604567 0)
(0.0224419 0.0625973 0)
(0.0213893 0.0553318 0)
(0.0236684 0.0109874 0)
(-0.000704398 0.00146637 0)
(-0.00222682 0.00135546 0)
(-0.00405892 0.00181935 0)
(-0.00640712 0.00246831 0)
(-0.00925983 0.00301352 0)
(-0.0124158 0.0031288 0)
(-0.0155228 0.00216442 0)
(-0.0175131 -0.000887636 0)
(-0.0166334 -0.00603834 0)
(-0.0121012 -0.0120874 0)
(-0.00440509 -0.0178697 0)
(0.0055547 -0.0228077 0)
(0.0171293 -0.0264787 0)
(0.0297058 -0.028156 0)
(0.0422477 -0.027 0)
(0.053141 -0.0226838 0)
(0.0605834 -0.0163708 0)
(0.0656331 -0.0116675 0)
(0.0741733 -0.00505322 0)
(0.0791 0.00828673 0)
(0.0778236 0.0228319 0)
(0.0719967 0.0357223 0)
(0.0635948 0.0458966 0)
(0.0546468 0.0533313 0)
(0.0459303 0.0593081 0)
(0.0373075 0.0638314 0)
(0.0294354 0.0666138 0)
(0.0229318 0.0671179 0)
(0.0178694 0.0569928 0)
(0.00974171 0.0213154 0)
(-0.000717438 0.00162281 0)
(-0.00219619 0.00147141 0)
(-0.00400812 0.00198066 0)
(-0.00634857 0.00269734 0)
(-0.00921867 0.00330978 0)
(-0.0124436 0.00347951 0)
(-0.0157509 0.00251778 0)
(-0.0180969 -0.000757488 0)
(-0.0175273 -0.00641839 0)
(-0.0131322 -0.0131009 0)
(-0.00542802 -0.0194865 0)
(0.00462728 -0.0249871 0)
(0.0164536 -0.0292162 0)
(0.0295757 -0.0313734 0)
(0.0430177 -0.0304029 0)
(0.054988 -0.0256654 0)
(0.0628156 -0.0180859 0)
(0.0663467 -0.0140554 0)
(0.0790787 -0.00919035 0)
(0.0864706 0.00727615 0)
(0.0856682 0.0248654 0)
(0.0792702 0.0401242 0)
(0.0694457 0.051988 0)
(0.0595062 0.0594366 0)
(0.0506366 0.0662196 0)
(0.0410715 0.0714129 0)
(0.0315769 0.0742154 0)
(0.0223944 0.0745717 0)
(0.0136429 0.0661026 0)
(-0.000584116 0.044125 0)
(-0.000732893 0.0017886 0)
(-0.00216211 0.00158483 0)
(-0.00395233 0.00214045 0)
(-0.00628388 0.00292655 0)
(-0.00917121 0.00360957 0)
(-0.012466 0.00384272 0)
(-0.0159865 0.00290826 0)
(-0.0187315 -0.000575369 0)
(-0.0185109 -0.00676289 0)
(-0.0142674 -0.0141062 0)
(-0.00655518 -0.0211125 0)
(0.0035853 -0.0271953 0)
(0.0156502 -0.0320371 0)
(0.0293404 -0.034776 0)
(0.0437951 -0.0341146 0)
(0.0571121 -0.0290083 0)
(0.0656243 -0.0195056 0)
(0.0645731 -0.0157114 0)
(0.0853945 -0.0155732 0)
(0.0955894 0.00567867 0)
(0.0956399 0.0270631 0)
(0.0888517 0.045075 0)
(0.0755367 0.0602065 0)
(0.0608331 0.0654133 0)
(0.0535757 0.0729725 0)
(0.0462548 0.0794294 0)
(0.0374388 0.083868 0)
(0.0268749 0.0844749 0)
(0.0140596 0.0788058 0)
(-0.00261732 0.0686585 0)
(-0.000751033 0.00196588 0)
(-0.00212435 0.0016953 0)
(-0.00389143 0.00229857 0)
(-0.00621288 0.0031559 0)
(-0.00911699 0.00391293 0)
(-0.0124812 0.00421857 0)
(-0.016226 0.00333945 0)
(-0.0194174 -0.00033451 0)
(-0.0195882 -0.00706754 0)
(-0.0155112 -0.0151034 0)
(-0.0077886 -0.0227473 0)
(0.00242257 -0.0294285 0)
(0.0147008 -0.0349395 0)
(0.0289675 -0.0383767 0)
(0.0445471 -0.0381862 0)
(0.0595341 -0.0328728 0)
(0.0695253 -0.0207161 0)
(0.0567055 -0.0133632 0)
(0.0955508 -0.025124 0)
(0.107381 0.0031783 0)
(0.109379 0.0292417 0)
(0.101903 0.0505519 0)
(0.081724 0.0744757 0)
(0.0673183 0.0696882 0)
(0.0452952 0.083105 0)
(0.0234764 0.0873722 0)
(0.0145016 0.091478 0)
(0.0101499 0.0936461 0)
(0.00760528 0.0912148 0)
(-0.00267217 0.0881029 0)
(-0.000772107 0.0021573 0)
(-0.00208269 0.00180234 0)
(-0.00382528 0.00245487 0)
(-0.00613538 0.00338529 0)
(-0.00905549 0.00421983 0)
(-0.0124874 0.00460692 0)
(-0.0164652 0.00381498 0)
(-0.0201552 -2.75018e-05 0)
(-0.0207635 -0.00732777 0)
(-0.0168681 -0.0160926 0)
(-0.00912981 -0.0243905 0)
(0.00113301 -0.0316807 0)
(0.013586 -0.0379177 0)
(0.0284185 -0.042185 0)
(0.0452275 -0.0426685 0)
(0.0622234 -0.0374604 0)
(0.0747183 -0.0226934 0)
(0.0535281 -0.00835854 0)
(0.119687 -0.0341242 0)
(0.122947 -0.00132393 0)
(0.126686 0.0309137 0)
(0.11176 0.056845 0)
(0.121158 0.07927 0)
(0.103136 0.0868992 0)
(0.0539385 0.099147 0)
(0.0218168 0.0992081 0)
(0.0257594 0.102496 0)
(0.0108142 0.0890658 0)
(0.00453059 0.113214 0)
(-0.00390811 0.0776574 0)
(-0.000796324 0.00236609 0)
(-0.00203687 0.00190539 0)
(-0.00375378 0.00260916 0)
(-0.00605119 0.00361463 0)
(-0.00898624 0.0045302 0)
(-0.0124827 0.00500724 0)
(-0.0166988 0.00433858 0)
(-0.0209455 0.000354059 0)
(-0.0220419 -0.00753846 0)
(-0.0183434 -0.0170747 0)
(-0.0105792 -0.0260418 0)
(-0.000287932 -0.0339439 0)
(0.012285 -0.0409619 0)
(0.0276488 -0.0462048 0)
(0.0457764 -0.0476039 0)
(0.0650515 -0.0428665 0)
(0.0801109 -0.0304721 0)
(0.126731 -0.0502813 0)
(0.149833 -0.022982 0)
(0.129357 -0.00769982 0)
(0.108455 0.0371673 0)
(0.105205 -0.0175641 0)
(0.251404 0.0948412 0)
(0.23086 0.123837 0)
(0.165928 0.142884 0)
(0.102809 0.136948 0)
(0.0486738 0.122393 0)
(0.0166148 0.112499 0)
(-0.00751606 0.110883 0)
(-0.0201872 0.113385 0)
(-0.000823838 0.0025962 0)
(-0.00198661 0.00200385 0)
(-0.00367678 0.00276128 0)
(-0.00596012 0.00384379 0)
(-0.0089088 0.00484394 0)
(-0.0124652 0.00541868 0)
(-0.0169206 0.004914 0)
(-0.0217894 0.000819674 0)
(-0.0234287 -0.00769399 0)
(-0.019943 -0.0180514 0)
(-0.012136 -0.0277016 0)
(-0.00184328 -0.036208 0)
(0.0107766 -0.0440574 0)
(0.0266057 -0.0504327 0)
(0.0461172 -0.0530222 0)
(0.067265 -0.0488856 0)
(0.125083 -0.0569637 0)
(0.179608 -0.106157 0)
(0.103114 0.00331362 0)
(0.0496702 0.0122231 0)
(0.269516 -0.0154083 0)
(0.429928 -0.00391389 0)
(0.368537 0.106463 0)
(0.300071 0.180131 0)
(0.216208 0.20222 0)
(0.143015 0.190282 0)
(0.0887829 0.162759 0)
(0.0501243 0.14885 0)
(0.0176959 0.138781 0)
(-0.010605 0.139948 0)
(-0.000854715 0.00285251 0)
(-0.00193162 0.00209698 0)
(-0.00359412 0.00291104 0)
(-0.00586201 0.00407263 0)
(-0.00882271 0.00516093 0)
(-0.0124333 0.00583991 0)
(-0.0171233 0.00554496 0)
(-0.0226882 0.0013803 0)
(-0.0249299 -0.00778791 0)
(-0.0216739 -0.0190259 0)
(-0.0137977 -0.0293709 0)
(-0.0035339 -0.0384603 0)
(0.00903999 -0.0471843 0)
(0.0252301 -0.0548545 0)
(0.0461542 -0.0589466 0)
(0.069596 -0.057422 0)
(0.0863956 -0.0418887 0)
(0.165573 -0.0805734 0)
(-0.0654749 0.0474757 0)
(0.371026 -0.144887 0)
(0.37795 -0.0470149 0)
(0.313125 0.00475364 0)
(0.284483 0.128866 0)
(0.256481 0.226345 0)
(0.199325 0.2597 0)
(0.13713 0.24238 0)
(0.0890824 0.20389 0)
(0.0525147 0.180545 0)
(0.0237916 0.175324 0)
(-0.00641085 0.176832 0)
(-0.000888895 0.00314085 0)
(-0.00187159 0.002184 0)
(-0.00350569 0.00305827 0)
(-0.00575672 0.00430096 0)
(-0.00872752 0.00548098 0)
(-0.0123853 0.00626909 0)
(-0.0172979 0.00623506 0)
(-0.0236438 0.00204866 0)
(-0.0265512 -0.00781307 0)
(-0.0235441 -0.0200022 0)
(-0.0155595 -0.0310521 0)
(-0.00535767 -0.0406851 0)
(0.00705515 -0.0503166 0)
(0.0234567 -0.0594401 0)
(0.045715 -0.0654122 0)
(0.0735432 -0.0627485 0)
(0.0658348 -0.0465021 0)
(0.0779495 0.0421761 0)
(0.725844 -0.202089 0)
(0.327862 -0.11227 0)
(0.170416 -0.00311264 0)
(0.109064 0.031814 0)
(0.143928 0.126 0)
(0.147738 0.242766 0)
(0.124946 0.296759 0)
(0.0922503 0.280168 0)
(0.0626299 0.236771 0)
(0.034084 0.212506 0)
(0.0116577 0.207147 0)
(-0.00819116 0.20789 0)
(-0.000926149 0.00346782 0)
(-0.00180622 0.002264 0)
(-0.00341132 0.00320277 0)
(-0.0056441 0.00452857 0)
(-0.00862291 0.00580396 0)
(-0.0123202 0.00670387 0)
(-0.0174336 0.00698771 0)
(-0.0246593 0.00283996 0)
(-0.0282982 -0.00776042 0)
(-0.0255634 -0.0209867 0)
(-0.0174142 -0.0327497 0)
(-0.00730872 -0.0428635 0)
(0.00480375 -0.0534224 0)
(0.0212173 -0.0641399 0)
(0.0444812 -0.0725401 0)
(0.091632 -0.0729739 0)
(0.173408 -0.0665461 0)
(0.11711 -0.0983696 0)
(0.341924 -0.151661 0)
(0.0851211 -0.0190948 0)
(0.0934076 0.00806474 0)
(0.0489144 0.0279365 0)
(0.0299064 0.119761 0)
(0.0327102 0.245879 0)
(0.0338555 0.308004 0)
(0.0335722 0.294069 0)
(0.0267469 0.25564 0)
(0.0175031 0.231194 0)
(0.000255291 0.225375 0)
(-0.0111166 0.225819 0)
(-0.000966053 0.00384682 0)
(-0.00173522 0.00233602 0)
(-0.00331086 0.00334438 0)
(-0.00552407 0.00475519 0)
(-0.00850845 0.00612968 0)
(-0.0122373 0.00714131 0)
(-0.0175174 0.00780594 0)
(-0.0257391 0.0037727 0)
(-0.0301743 -0.00762033 0)
(-0.0277431 -0.0219877 0)
(-0.019351 -0.0344706 0)
(-0.00937618 -0.0449731 0)
(0.00227005 -0.0564649 0)
(0.0184506 -0.068871 0)
(0.0421736 -0.0808021 0)
(0.0382779 -0.0613888 0)
(0.00471591 0.0340083 0)
(0.908578 -0.301406 0)
(0.0241791 0.00719576 0)
(-0.0552408 0.00886832 0)
(-0.0531911 0.0029194 0)
(-0.0474103 0.0371514 0)
(-0.0660056 0.124934 0)
(-0.0621729 0.240433 0)
(-0.039996 0.297131 0)
(-0.0178878 0.287901 0)
(-0.0112685 0.259214 0)
(-0.0122646 0.242217 0)
(-0.0119203 0.234082 0)
(-0.0122514 0.233856 0)
(-0.00100713 0.0042932 0)
(-0.00165832 0.002399 0)
(-0.00320415 0.00348294 0)
(-0.00539663 0.00498047 0)
(-0.00838385 0.00645794 0)
(-0.0121369 0.00757786 0)
(-0.0175336 0.00869215 0)
(-0.0268901 0.00487006 0)
(-0.0321786 -0.00738104 0)
(-0.0300968 -0.0230161 0)
(-0.021355 -0.0362253 0)
(-0.0115428 -0.0469866 0)
(-0.000560492 -0.0594034 0)
(0.0151187 -0.0735107 0)
(0.0388651 -0.0897653 0)
(0.0853606 -0.0961791 0)
(0.318654 -0.124385 0)
(0.159257 -0.101042 0)
(-0.11504 0.0257759 0)
(-0.128109 0.0117561 0)
(-0.131742 0.00697379 0)
(-0.132665 0.041643 0)
(-0.140291 0.128747 0)
(-0.125832 0.225261 0)
(-0.0907839 0.272266 0)
(-0.0584815 0.269893 0)
(-0.0374744 0.251822 0)
(-0.0294246 0.235201 0)
(-0.0247831 0.232429 0)
(-0.018898 0.229225 0)
(-0.00104728 0.00482276 0)
(-0.00157533 0.00245191 0)
(-0.00309102 0.00361831 0)
(-0.00526182 0.0052039 0)
(-0.00824877 0.00678849 0)
(-0.0120207 0.00800952 0)
(-0.0174637 0.00964805 0)
(-0.0281228 0.00616234 0)
(-0.0343008 -0.00702904 0)
(-0.0326403 -0.024086 0)
(-0.0234058 -0.0380291 0)
(-0.0137827 -0.0488717 0)
(-0.00370446 -0.0621977 0)
(0.0112348 -0.0778855 0)
(0.0368018 -0.101884 0)
(0.117202 -0.0850958 0)
(0.317661 -0.209533 0)
(-0.0669968 0.0887341 0)
(-0.159113 0.037132 0)
(-0.17165 0.0151556 0)
(-0.183637 0.0108934 0)
(-0.194373 0.0462268 0)
(-0.194275 0.124331 0)
(-0.169354 0.20288 0)
(-0.129768 0.24291 0)
(-0.0944459 0.244516 0)
(-0.0651264 0.233822 0)
(-0.0536704 0.229156 0)
(-0.0380531 0.220142 0)
(-0.0239481 0.215794 0)
(-0.00108366 0.00545673 0)
(-0.00148616 0.00249373 0)
(-0.00297129 0.00375044 0)
(-0.00511985 0.00542478 0)
(-0.00810293 0.00712094 0)
(-0.011892 0.00843197 0)
(-0.0172859 0.0106744 0)
(-0.0294534 0.00769055 0)
(-0.0365118 -0.00654992 0)
(-0.0353928 -0.0252153 0)
(-0.0254766 -0.0399034 0)
(-0.016059 -0.0505888 0)
(-0.00718924 -0.0648052 0)
(0.00689835 -0.0817539 0)
(0.0211972 -0.106622 0)
(0.313906 -0.270035 0)
(-0.0122211 -0.0167658 0)
(-0.172001 0.11359 0)
(-0.184257 0.0448705 0)
(-0.197526 0.0213621 0)
(-0.214753 0.0187905 0)
(-0.229664 0.0511004 0)
(-0.226338 0.115062 0)
(-0.197838 0.177326 0)
(-0.155835 0.211797 0)
(-0.115471 0.217371 0)
(-0.0862005 0.214542 0)
(-0.0615124 0.208363 0)
(-0.043633 0.200858 0)
(-0.0270566 0.196734 0)
(-0.00111238 0.00622256 0)
(-0.00139089 0.00252364 0)
(-0.00284477 0.00387936 0)
(-0.00497114 0.00564198 0)
(-0.00794608 0.00745457 0)
(-0.0117569 0.0088411 0)
(-0.016976 0.0117709 0)
(-0.030907 0.00951256 0)
(-0.0387453 -0.00592898 0)
(-0.0383781 -0.0264286 0)
(-0.027532 -0.0418771 0)
(-0.0183187 -0.0520894 0)
(-0.0110665 -0.0671813 0)
(0.00234341 -0.0849448 0)
(0.0265262 -0.139587 0)
(-0.0591178 -0.369602 0)
(-0.345313 0.0897193 0)
(-0.215075 0.0974311 0)
(-0.201938 0.0483987 0)
(-0.211324 0.0281375 0)
(-0.227642 0.0279714 0)
(-0.240698 0.0552515 0)
(-0.235254 0.104271 0)
(-0.206711 0.151444 0)
(-0.166431 0.178374 0)
(-0.1277 0.184765 0)
(-0.0974312 0.190042 0)
(-0.0696093 0.185943 0)
(-0.0481744 0.179771 0)
(-0.0298722 0.175568 0)
(-0.00112826 0.00715575 0)
(-0.00128984 0.00254113 0)
(-0.00271128 0.00400528 0)
(-0.00481637 0.00585373 0)
(-0.00777805 0.00778815 0)
(-0.0116248 0.00923392 0)
(-0.0165086 0.0129372 0)
(-0.0325227 0.0117138 0)
(-0.040863 -0.00510563 0)
(-0.0416305 -0.027762 0)
(-0.029526 -0.0439897 0)
(-0.0204869 -0.0533152 0)
(-0.0154297 -0.0692675 0)
(-0.00210492 -0.087687 0)
(-0.0298327 -0.126164 0)
(-0.178831 -0.282868 0)
(-0.331431 0.0563022 0)
(-0.233524 0.07745 0)
(-0.213632 0.0483796 0)
(-0.217509 0.0333597 0)
(-0.228445 0.0352273 0)
(-0.235719 0.0572235 0)
(-0.227595 0.0932175 0)
(-0.201721 0.127447 0)
(-0.166592 0.148857 0)
(-0.132712 0.15772 0)
(-0.102126 0.161383 0)
(-0.0745987 0.159907 0)
(-0.0517697 0.156215 0)
(-0.0324919 0.152982 0)
(-0.00112653 0.00829763 0)
(-0.00118383 0.00254627 0)
(-0.00257071 0.00412867 0)
(-0.00465665 0.00605707 0)
(-0.00759892 0.00811937 0)
(-0.0115095 0.00961031 0)
(-0.0158622 0.0141732 0)
(-0.034364 0.0144249 0)
(-0.0425975 -0.00384836 0)
(-0.0452 -0.0292692 0)
(-0.0313978 -0.0462963 0)
(-0.0224584 -0.0541966 0)
(-0.0204088 -0.0709686 0)
(-0.00513203 -0.0918758 0)
(-0.0479254 0.0245797 0)
(-0.213849 -0.168379 0)
(-0.290467 0.0354524 0)
(-0.239931 0.0619191 0)
(-0.220772 0.0461044 0)
(-0.219591 0.0360232 0)
(-0.223802 0.0390011 0)
(-0.224291 0.0562259 0)
(-0.213227 0.0821848 0)
(-0.189687 0.106783 0)
(-0.159408 0.123326 0)
(-0.128878 0.131687 0)
(-0.100594 0.134852 0)
(-0.0752613 0.134471 0)
(-0.05333 0.132339 0)
(-0.0343411 0.130075 0)
(-0.00105181 0.00950262 0)
(-0.00107754 0.00253997 0)
(-0.002426 0.00425051 0)
(-0.00449569 0.00624705 0)
(-0.00741014 0.00844412 0)
(-0.0114311 0.00997664 0)
(-0.0150283 0.0154716 0)
(-0.0365394 0.0178501 0)
(-0.0434338 -0.00153685 0)
(-0.0491342 -0.0310149 0)
(-0.033066 -0.0488771 0)
(-0.0240887 -0.0546545 0)
(-0.0261006 -0.0721274 0)
(-0.00457286 -0.104326 0)
(-0.177146 0.189509 0)
(-0.201497 -0.0913509 0)
(-0.262081 0.028252 0)
(-0.240976 0.0510371 0)
(-0.224887 0.0426305 0)
(-0.219753 0.0361014 0)
(-0.217897 0.0392456 0)
(-0.212527 0.0523644 0)
(-0.198849 0.0709751 0)
(-0.176795 0.0885656 0)
(-0.150145 0.101026 0)
(-0.12296 0.107958 0)
(-0.0973836 0.110765 0)
(-0.0742325 0.110831 0)
(-0.0537027 0.109446 0)
(-0.0355518 0.107752 0)
(0.0107035 0.00782259 0)
(-0.00101364 0.00252632 0)
(-0.00231736 0.00437269 0)
(-0.00437219 0.00641556 0)
(-0.00723894 0.00875522 0)
(-0.0114313 0.0103533 0)
(-0.0140287 0.0167847 0)
(-0.0392414 0.0223023 0)
(-0.042429 0.00306082 0)
(-0.0534164 -0.0330352 0)
(-0.0344311 -0.0518671 0)
(-0.0251957 -0.0546045 0)
(-0.0323606 -0.0724066 0)
(0.0278863 -0.126751 0)
(0.709279 -0.0417698 0)
(-0.1768 -0.00585056 0)
(-0.24658 0.0291164 0)
(-0.240119 0.0438902 0)
(-0.226874 0.0385455 0)
(-0.218731 0.0339961 0)
(-0.212033 0.0365998 0)
(-0.202255 0.0462489 0)
(-0.186625 0.059494 0)
(-0.165491 0.0720308 0)
(-0.141375 0.0812163 0)
(-0.116912 0.086593 0)
(-0.0936974 0.0888674 0)
(-0.0724345 0.0889781 0)
(-0.0532882 0.0878623 0)
(-0.0361274 0.0864161 0)
(-0.000629705 0.000940473 0)
(-0.00394718 0.00093334 0)
(-0.00759125 0.000924343 0)
(-0.0115919 0.000914456 0)
(-0.0159835 0.000904796 0)
(-0.0207841 0.000893564 0)
(-0.0259739 0.000875667 0)
(-0.0314606 0.000841389 0)
(-0.0370655 0.000779885 0)
(-0.0424999 0.000682666 0)
(-0.0473812 0.000547774 0)
(-0.0512651 0.00038247 0)
(-0.0537194 0.00020301 0)
(-0.0544002 2.7103e-05 0)
(-0.0530809 -0.000133275 0)
(-0.0496313 -0.000270919 0)
(-0.0440695 -0.000375564 0)
(-0.0366702 -0.000436061 0)
(-0.0279966 -0.000448681 0)
(-0.0188151 -0.000418728 0)
(-0.00999901 -0.000352472 0)
(-0.00247243 -0.000257599 0)
(0.00292752 -0.00014984 0)
(0.0057955 -5.52979e-05 0)
(0.00646238 2.50906e-06 0)
(0.00577851 2.51069e-05 0)
(0.00452802 2.85369e-05 0)
(0.00318564 2.44798e-05 0)
(0.0019825 1.8876e-05 0)
(0.000921615 1.7238e-05 0)
(-0.00190366 0.00616792 0)
(-0.0058675 0.0061008 0)
(-0.010219 0.00605047 0)
(-0.0150259 0.00601012 0)
(-0.0203393 0.00594309 0)
(-0.0261376 0.00578937 0)
(-0.0322932 0.00549099 0)
(-0.0385528 0.00500844 0)
(-0.0445694 0.00432742 0)
(-0.0499177 0.00345754 0)
(-0.0541268 0.00243667 0)
(-0.0567329 0.00133731 0)
(-0.057362 0.000257454 0)
(-0.0557937 -0.000718579 0)
(-0.0519494 -0.00154821 0)
(-0.0458635 -0.00219965 0)
(-0.0377541 -0.00262058 0)
(-0.0281348 -0.0027662 0)
(-0.0178004 -0.00264132 0)
(-0.00770119 -0.00229148 0)
(0.00118072 -0.00177705 0)
(0.00793199 -0.00116797 0)
(0.0118839 -0.000568171 0)
(0.0129527 -0.000107259 0)
(0.0118247 0.000141461 0)
(0.00956295 0.000220757 0)
(0.0070169 0.000212558 0)
(0.00467524 0.000170966 0)
(0.00273319 0.000128756 0)
(0.00105587 0.000103722 0)
(-0.00191146 0.0107845 0)
(-0.00541234 0.0106418 0)
(-0.00924712 0.0105642 0)
(-0.0135175 0.0105369 0)
(-0.0183089 0.0104696 0)
(-0.023618 0.0102242 0)
(-0.0293196 0.0096766 0)
(-0.0351581 0.00876004 0)
(-0.0407821 0.00746509 0)
(-0.0457574 0.00582939 0)
(-0.0496029 0.00393846 0)
(-0.0518503 0.001936 0)
(-0.0521362 6.78112e-06 0)
(-0.0502768 -0.00169791 0)
(-0.0462357 -0.00311019 0)
(-0.0400757 -0.00418621 0)
(-0.0320371 -0.00484068 0)
(-0.0226596 -0.00500142 0)
(-0.0127544 -0.00468456 0)
(-0.0032617 -0.00398232 0)
(0.00488575 -0.00301255 0)
(0.0108543 -0.00190363 0)
(0.0140557 -0.000837065 0)
(0.0144684 -3.54185e-05 0)
(0.0128203 0.000379605 0)
(0.0101831 0.000491023 0)
(0.00738272 0.000448921 0)
(0.00487723 0.000352037 0)
(0.00283436 0.000260851 0)
(0.00109178 0.000208458 0)
(-0.00220441 0.0151122 0)
(-0.00553387 0.0148588 0)
(-0.00918352 0.0147903 0)
(-0.0133655 0.0148712 0)
(-0.0182242 0.0149023 0)
(-0.0237224 0.0146256 0)
(-0.0296564 0.0138517 0)
(-0.0357067 0.0125021 0)
(-0.0414887 0.0105842 0)
(-0.0465508 0.00816704 0)
(-0.0503952 0.00538543 0)
(-0.0525426 0.00246206 0)
(-0.0526512 -0.000320205 0)
(-0.0505915 -0.00274031 0)
(-0.0463649 -0.00471851 0)
(-0.0400259 -0.00620501 0)
(-0.0318117 -0.00707732 0)
(-0.0222873 -0.00723265 0)
(-0.0122913 -0.00670348 0)
(-0.00277061 -0.00563376 0)
(0.00535164 -0.00420188 0)
(0.0112536 -0.00259349 0)
(0.0143549 -0.00106524 0)
(0.014653 6.80932e-05 0)
(0.0129114 0.000638373 0)
(0.0102199 0.000773189 0)
(0.00739357 0.000691799 0)
(0.00487744 0.000536459 0)
(0.00283362 0.000394456 0)
(0.00109373 0.00031356 0)
(-0.00280068 0.0192022 0)
(-0.00576094 0.0187502 0)
(-0.00903462 0.0188131 0)
(-0.0131231 0.0192471 0)
(-0.0182308 0.019558 0)
(-0.0241586 0.0192982 0)
(-0.0305291 0.0182575 0)
(-0.0369318 0.0164055 0)
(-0.0429555 0.0137962 0)
(-0.0481395 0.0105336 0)
(-0.0519697 0.00680139 0)
(-0.0539566 0.00291067 0)
(-0.0537963 -0.000739764 0)
(-0.0514516 -0.00386125 0)
(-0.0469761 -0.00639082 0)
(-0.040401 -0.00828224 0)
(-0.0319498 -0.00936379 0)
(-0.0222205 -0.00949883 0)
(-0.0120835 -0.00874091 0)
(-0.00248818 -0.00729209 0)
(0.0056575 -0.00538992 0)
(0.0115386 -0.00327595 0)
(0.014573 -0.00128166 0)
(0.0147744 0.00018297 0)
(0.0129518 0.000903695 0)
(0.0102196 0.0010579 0)
(0.00737956 0.000935412 0)
(0.00486233 0.000720825 0)
(0.00282527 0.00052751 0)
(0.00109418 0.000417449 0)
(-0.00407128 0.0226956 0)
(-0.00600869 0.0217855 0)
(-0.00831025 0.0224005 0)
(-0.0123308 0.0238078 0)
(-0.0180495 0.0246786 0)
(-0.0247294 0.0244223 0)
(-0.0317276 0.022997 0)
(-0.0385824 0.0205237 0)
(-0.0449005 0.0171252 0)
(-0.0502277 0.0129314 0)
(-0.054025 0.00816631 0)
(-0.0557799 0.00324433 0)
(-0.0552449 -0.00129018 0)
(-0.0525249 -0.00508614 0)
(-0.047741 -0.00814476 0)
(-0.0408693 -0.010435 0)
(-0.0321168 -0.0117151 0)
(-0.0221286 -0.0118098 0)
(-0.0118175 -0.0108023 0)
(-0.00213241 -0.00895975 0)
(0.00604003 -0.00657824 0)
(0.0118939 -0.00395101 0)
(0.0148434 -0.00148473 0)
(0.0149224 0.000311174 0)
(0.0129984 0.00117647 0)
(0.0102164 0.00134521 0)
(0.00736012 0.00117957 0)
(0.0048422 0.000904898 0)
(0.00281427 0.000659719 0)
(0.00109487 0.000519655 0)
(-0.00718223 0.0246174 0)
(-0.00607949 0.0221867 0)
(-0.0056334 0.0252332 0)
(-0.0103891 0.0291398 0)
(-0.0176655 0.0307262 0)
(-0.0255644 0.0302168 0)
(-0.0333629 0.0281569 0)
(-0.0407296 0.0248933 0)
(-0.0473726 0.0205895 0)
(-0.0528577 0.0153615 0)
(-0.056597 0.00945691 0)
(-0.0580287 0.00341754 0)
(-0.0569854 -0.00201547 0)
(-0.0537938 -0.00643856 0)
(-0.0486505 -0.00999705 0)
(-0.0414237 -0.0126816 0)
(-0.0323013 -0.0141474 0)
(-0.0219992 -0.0141758 0)
(-0.0114815 -0.0128925 0)
(-0.00169365 -0.0106383 0)
(0.00650722 -0.00776644 0)
(0.0123259 -0.00461669 0)
(0.0151704 -0.00167107 0)
(0.0150989 0.000455983 0)
(0.0130518 0.00145834 0)
(0.0102107 0.00163564 0)
(0.00733558 0.00142436 0)
(0.00481724 0.00108859 0)
(0.00280074 0.000790865 0)
(0.00109601 0.000619737 0)
(0.000355068 0.0192612 0)
(0.011046 0.017898 0)
(0.00441632 0.0300249 0)
(-0.00708148 0.0372022 0)
(-0.0175299 0.0383782 0)
(-0.0269914 0.0368561 0)
(-0.0356083 0.0337677 0)
(-0.043463 0.0295231 0)
(-0.0504329 0.0241998 0)
(-0.05609 0.0178245 0)
(-0.0597425 0.0106437 0)
(-0.060731 0.00337012 0)
(-0.0590021 -0.00296963 0)
(-0.0552385 -0.00793788 0)
(-0.0497018 -0.0119612 0)
(-0.0420634 -0.0150413 0)
(-0.0324978 -0.0166773 0)
(-0.021825 -0.0166065 0)
(-0.0110704 -0.0150157 0)
(-0.00116925 -0.0123284 0)
(0.00706082 -0.00895406 0)
(0.012836 -0.00527092 0)
(0.0155547 -0.00183712 0)
(0.0153033 0.000620813 0)
(0.0131111 0.00175093 0)
(0.0102021 0.00192968 0)
(0.00730582 0.00166985 0)
(0.00478737 0.0012718 0)
(0.00278471 0.00092073 0)
(0.00109784 0.000717221 0)
(0.0186138 -0.00965202 0)
(0.0299603 0.0132537 0)
(0.012343 0.052705 0)
(-0.00592361 0.0503236 0)
(-0.0189053 0.0478613 0)
(-0.0295066 0.0442553 0)