/*--------------------------------*- C++ -*----------------------------------*\
| =========                 |                                                 |
| \\      /  F ield         | OpenFOAM: The Open Source CFD Toolbox           |
|  \\    /   O peration     | Version:  2.4.0                                 |
|   \\  /    A nd           | Web:      www.OpenFOAM.org                      |
|    \\/     M anipulation  |                                                 |
\*---------------------------------------------------------------------------*/
FoamFile
{
    version     2.0;
    format      ascii;
    class       surfaceScalarField;
    location    "0.256";
    object      phiAlpha;
}
// * * * * * * * * * * * * * * * * * * * * * * * * * * * * * * * * * * * * * //

dimensions      [0 3 -1 0 0 0 0];

internalField   nonuniform List<scalar> 
19800
(
-5.35248e-64
6.73502e-68
-3.87541e-60
5.90814e-64
-8.65816e-57
1.1579e-60
-5.57895e-54
4.52747e-58
-1.07662e-51
-1.05654e-51
-7.63416e-50
-4.13466e-49
-2.25549e-48
-4.22817e-47
-2.61433e-47
-1.75764e-45
4.69704e-49
-3.33981e-44
2.07191e-46
-2.2949e-43
2.87131e-46
2.19636e-45
-5.55389e-43
7.58174e-44
-1.06288e-41
1.07996e-42
-1.24557e-40
1.07795e-41
-1.19891e-39
8.61524e-41
-1.13073e-38
6.26385e-40
-1.01887e-37
4.70032e-39
-8.15845e-37
3.46761e-38
-5.73983e-36
2.31088e-37
-3.50348e-35
1.36508e-36
-1.88495e-34
7.02274e-36
-9.06023e-34
3.1857e-35
-3.92657e-33
1.2882e-34
-1.52564e-32
4.6766e-34
-5.28409e-32
1.51241e-33
-1.60557e-31
4.32126e-33
-4.17752e-31
1.06961e-32
-8.6577e-31
2.22663e-32
-1.24011e-30
3.5979e-32
-1.21762e-30
3.8753e-32
-8.24184e-31
2.72847e-32
-3.97632e-31
1.25468e-32
-1.42584e-31
3.94824e-33
-3.97852e-32
9.41453e-34
-9.09392e-33
2.00006e-34
-1.79045e-33
4.39387e-35
-3.01008e-34
1.01216e-35
-4.10654e-35
2.17634e-36
-4.26471e-36
3.86715e-37
-3.19718e-37
5.18175e-38
-1.69135e-38
4.92208e-39
-6.37694e-40
3.22965e-40
-1.92513e-41
1.47579e-41
-3.05239e-43
5.26935e-43
-2.76937e-45
9.63605e-45
-2.40206e-47
9.83117e-47
-2.49077e-49
9.35218e-49
-1.17369e-48
1.03803e-50
-4.63577e-47
5.11485e-50
2.06601e-48
-1.5768e-45
-1.43879e-60
3.38802e-64
-8.66879e-57
2.28896e-60
-1.20929e-53
1.30278e-57
-5.59052e-52
-6.99462e-51
8.77008e-51
-6.02118e-48
3.67863e-48
-1.22659e-45
4.69868e-46
-9.41176e-44
2.64964e-44
-3.36672e-42
7.8863e-43
-6.16024e-41
1.38284e-41
-5.44331e-40
1.56839e-40
-4.13314e-40
1.23469e-39
1.8836e-40
6.76815e-39
3.06317e-39
2.04637e-38
3.09676e-38
-3.08211e-37
2.44396e-37
-8.84461e-36
1.70971e-36
-1.04082e-34
1.22247e-35
-8.89475e-34
8.4861e-35
-6.26058e-33
5.15036e-34
-3.75045e-32
2.77835e-33
-1.93055e-31
1.32482e-32
-8.77393e-31
5.53834e-32
-3.5685e-30
2.06563e-31
-1.3061e-29
6.92619e-31
-4.26278e-29
2.09103e-30
-1.21836e-28
5.61351e-30
-2.9825e-28
1.31163e-29
-5.88383e-28
2.59892e-29
-8.57078e-28
4.09142e-29
-9.08734e-28
4.67108e-29
-7.05964e-28
3.81308e-29
-4.09187e-28
2.26536e-29
-1.82174e-28
1.02792e-29
-6.504e-29
3.83835e-30
-1.94767e-29
1.27159e-30
-4.9982e-30
3.89377e-31
-1.09067e-30
1.09169e-31
-1.95537e-31
2.69228e-32
-2.77476e-32
5.52622e-33
-3.06779e-33
8.99613e-34
-2.68951e-34
1.13666e-34
-1.97626e-35
1.13018e-35
-1.20935e-36
9.31864e-37
-6.04824e-38
6.3146e-38
-2.29753e-39
3.44433e-39
-7.33725e-41
1.40358e-40
-2.3248e-40
4.72636e-42
-4.28044e-39
1.55183e-41
-6.75534e-38
2.91041e-40
4.60106e-39
-9.0911e-37
-4.09873e-58
1.39668e-61
-1.24817e-54
8.75685e-58
5.04205e-54
-2.08544e-51
2.66035e-50
-8.37603e-48
2.15647e-47
-4.33973e-45
4.99224e-45
-6.65079e-43
4.64667e-43
-4.22971e-41
2.14004e-41
-1.33186e-39
5.55236e-40
-2.25106e-38
8.84615e-39
-1.97236e-37
9.38375e-38
-4.51001e-37
7.18949e-37
8.52639e-38
4.10787e-36
1.47332e-36
1.67785e-35
1.4566e-35
3.27779e-35
1.106e-34
-1.12311e-33
7.408e-34
-1.98176e-32
4.90473e-33
-1.76124e-31
3.14344e-32
-1.19389e-30
1.73484e-31
-6.73427e-30
8.47829e-31
-3.23787e-29
3.68046e-30
-1.3691e-28
1.40817e-29
-5.18274e-28
4.82467e-29
-1.76891e-27
1.49413e-28
-5.43794e-27
4.18988e-28
-1.47503e-26
1.05884e-27
-3.4397e-26
2.3547e-27
-6.58215e-26
4.47564e-27
-9.69628e-26
6.91826e-27
-1.08783e-25
8.14265e-27
-9.31304e-26
7.23858e-27
-6.14219e-26
4.93586e-27
-3.19493e-26
2.68241e-27
-1.36505e-26
1.23134e-27
-4.97755e-27
5.04548e-28
-1.56858e-27
1.89388e-28
-4.24461e-28
6.42857e-29
-9.68757e-29
1.9173e-29
-1.84214e-29
4.86695e-30
-2.89799e-30
1.03104e-30
-3.84796e-31
1.80235e-31
-4.30151e-32
2.64415e-32
-3.77471e-33
3.23842e-33
-2.46621e-34
3.08007e-34
-1.15976e-35
2.15351e-35
-2.84485e-36
1.06864e-36
-3.5515e-35
2.7254e-37
-4.29438e-34
3.48448e-36
-4.40091e-33
4.25066e-35
4.33035e-34
-3.82509e-32
-3.45589e-56
2.21278e-59
1.87101e-55
1.33696e-56
6.09254e-51
-1.61872e-48
1.79659e-47
-3.29244e-45
9.97006e-45
-1.21311e-42
1.76414e-42
-1.48299e-40
1.35399e-40
-8.02463e-39
5.41236e-39
-2.24744e-37
1.26315e-37
-3.50138e-36
1.85672e-36
-2.95142e-35
1.84048e-35
-8.39145e-35
1.33709e-34
1.46826e-35
7.42119e-34
2.64545e-34
3.11558e-33
2.51867e-33
8.47381e-33
1.82549e-32
-2.16422e-32
1.16124e-31
-1.48849e-30
7.10622e-31
-1.39717e-29
4.15198e-30
-9.08377e-29
2.09699e-29
-4.76679e-28
9.31355e-29
-2.12494e-27
3.65962e-28
-8.31771e-27
1.27757e-27
-2.92455e-26
4.01202e-27
-9.31297e-26
1.14701e-26
-2.68643e-25
2.99122e-26
-6.9287e-25
7.08768e-26
-1.54794e-24
1.50133e-25
-2.89386e-24
2.74611e-25
-4.30207e-24
4.17818e-25
-5.02968e-24
5.01636e-25
-4.63106e-24
4.71455e-25
-3.36754e-24
3.52308e-25
-1.96904e-24
2.16114e-25
-9.60215e-25
1.14311e-25
-4.02635e-25
5.44098e-26
-1.47144e-25
2.36184e-26
-4.67544e-26
9.25411e-27
-1.27909e-26
3.20613e-27
-2.98088e-27
9.62569e-28
-5.85575e-28
2.46439e-28
-9.88821e-29
5.30666e-29
-1.34534e-29
9.77454e-30
-1.39806e-30
1.43981e-30
-1.04867e-31
1.60413e-31
-6.07449e-33
1.27507e-32
-1.06502e-32
7.72601e-34
-1.14161e-31
1.39766e-33
-1.04419e-30
1.5243e-32
-8.0533e-30
1.39886e-31
1.06763e-30
-5.27604e-29
1.87468e-58
2.26955e-57
9.74715e-53
-1.82886e-50
2.5266e-48
-4.90395e-46
5.02062e-45
-6.38538e-43
2.07283e-42
-1.78225e-40
2.9563e-40
-1.7884e-38
1.93003e-38
-8.35986e-37
6.82272e-37
-2.09997e-35
1.44951e-35
-3.02782e-34
1.9809e-34
-2.44855e-33
1.84742e-33
-7.78642e-33
1.26886e-32
1.24635e-33
6.76172e-32
2.38907e-32
2.80909e-31
2.18257e-31
8.5448e-31
1.50692e-30
1.0464e-30
9.05578e-30
-5.09196e-29
5.13386e-29
-5.60385e-28
2.7259e-28
-3.57634e-27
1.26103e-27
-1.7587e-26
5.11405e-27
-7.27998e-26
1.82018e-26
-2.64516e-25
5.78729e-26
-8.64849e-25
1.66671e-25
-2.57297e-24
4.39658e-25
-6.96905e-24
1.06613e-24
-1.70493e-23
2.36683e-24
-3.66312e-23
4.75662e-24
-6.69595e-23
8.38915e-24
-1.00198e-22
1.25402e-23
-1.21105e-22
1.52496e-23
-1.18052e-22
1.49191e-23
-9.26305e-23
1.18988e-23
-5.93102e-23
7.97309e-24
-3.19364e-23
4.70021e-24
-1.48908e-23
2.5087e-24
-6.10126e-24
1.22e-24
-2.19885e-24
5.35713e-25
-6.90308e-25
2.09357e-25
-1.85334e-25
7.15675e-26
-4.27001e-26
2.09327e-26
-8.28327e-27
5.24374e-27
-1.27816e-27
1.10113e-27
-1.49167e-28
1.82655e-28
-1.23151e-29
2.27035e-29
-1.11272e-30
1.97415e-30
-5.00468e-30
1.8554e-31
-4.44124e-29
8.56667e-31
-3.31337e-28
7.6997e-30
-2.08603e-27
5.7403e-29
3.56392e-28
-1.11866e-26
4.98668e-56
1.61319e-55
3.20922e-50
-6.51048e-48
5.34636e-46
-7.96702e-44
7.52074e-43
-7.25172e-41
2.41644e-40
-1.58918e-38
2.85532e-38
-1.33435e-36
1.61354e-36
-5.44953e-35
5.10264e-35
-1.23661e-33
9.94856e-34
-1.65816e-32
1.27166e-32
-1.28952e-31
1.12224e-31
-4.42747e-31
7.29301e-31
5.8828e-32
3.7134e-30
1.27235e-30
1.49928e-29
1.11872e-29
4.734e-29
7.3282e-29
9.3583e-29
4.14807e-28
-7.05791e-28
2.18184e-27
-1.30185e-26
1.05655e-26
-8.45772e-26
4.48304e-26
-3.95264e-25
1.66249e-25
-1.52551e-24
5.37738e-25
-5.1613e-24
1.5558e-24
-1.57301e-23
4.10988e-24
-4.37624e-23
1.00069e-23
-1.11385e-22
2.25493e-23
-2.57813e-22
4.68793e-23
-5.32112e-22
8.90651e-23
-9.49852e-22
1.51155e-22
-1.42548e-21
2.2146e-22
-1.77187e-21
2.71152e-22
-1.81039e-21
2.73362e-22
-1.51091e-21
2.28619e-22
-1.03943e-21
1.63837e-22
-6.05053e-22
1.05535e-22
-3.06826e-22
6.19653e-23
-1.3782e-22
3.30958e-23
-5.50022e-23
1.596e-23
-1.92211e-23
6.88419e-24
-5.78879e-24
2.60549e-24
-1.50145e-24
8.49975e-25
-3.21243e-25
2.38423e-25
-5.46965e-26
5.49529e-26
-7.03597e-27
1.00134e-26
-6.37632e-28
1.36608e-27
-9.77715e-29
1.2986e-28
-5.77018e-28
2.06315e-29
-4.40862e-27
1.2453e-28
-2.82418e-26
9.60296e-28
-1.52813e-25
6.12758e-27
3.26006e-26
-7.0575e-25
7.86759e-54
8.3548e-54
6.06483e-48
-1.12317e-45
6.5835e-44
-7.93982e-42
6.83496e-41
-5.30474e-39
1.75875e-38
-9.35394e-37
1.75438e-36
-6.66787e-35
8.68923e-35
-2.40106e-33
2.47953e-33
-4.95187e-32
4.46466e-32
-6.20199e-31
5.36517e-31
-4.65095e-30
4.50026e-30
-1.68999e-29
2.77645e-29
1.58652e-30
1.34625e-28
4.39688e-29
5.21909e-28
3.74909e-28
1.64006e-27
2.32397e-27
3.75909e-27
1.23412e-26
1.26728e-27
6.03867e-26
-1.90274e-25
2.67726e-25
-1.32874e-24
1.04621e-24
-5.98144e-24
3.54901e-24
-2.1636e-23
1.04514e-23
-6.83024e-23
2.75363e-23
-1.94357e-22
6.67022e-23
-5.06089e-22
1.49923e-22
-1.20962e-21
3.13858e-22
-2.64203e-21
6.10152e-22
-5.21207e-21
1.09256e-21
-9.06246e-21
1.77549e-21
-1.35885e-20
2.54429e-21
-1.72877e-20
3.12325e-21
-1.84132e-20
3.21756e-21
-1.61854e-20
2.78453e-21
-1.17818e-20
2.10008e-21
-7.30152e-21
1.46116e-21
-3.97225e-21
9.34086e-22
-1.92837e-21
5.41708e-22
-8.36215e-22
2.83052e-22
-3.19612e-22
1.32302e-22
-1.06414e-22
5.4524e-23
-3.03837e-23
1.95802e-23
-7.11409e-24
6.02484e-24
-1.32143e-24
1.51524e-24
-1.86285e-25
3.00427e-25
-1.8696e-26
4.48022e-26
-4.09592e-27
4.70423e-27
-2.44525e-26
1.06494e-27
-1.666e-25
6.48434e-27
-9.50449e-25
4.44677e-26
-4.58084e-24
2.52021e-25
1.19131e-24
-1.88708e-23
9.50619e-52
-1.74292e-50
7.09764e-46
-1.17181e-43
5.15645e-42
-5.25469e-40
4.06943e-39
-2.65998e-37
8.55854e-37
-3.84311e-35
7.30773e-35
-2.3528e-33
3.20298e-33
-7.52676e-32
8.30393e-32
-1.41795e-30
1.38807e-30
-1.66473e-29
1.5752e-29
-1.20649e-28
1.26134e-28
-4.57622e-28
7.42806e-28
2.01475e-29
3.42819e-27
1.04786e-27
1.26732e-26
8.77521e-27
3.8658e-26
5.14451e-26
9.24061e-26
2.55528e-25
1.07778e-25
1.1626e-24
-1.79208e-24
4.73898e-24
-1.48338e-23
1.71448e-23
-6.52203e-23
5.3307e-23
-2.22259e-22
1.43081e-22
-6.55242e-22
3.43742e-22
-1.74202e-21
7.62768e-22
-4.24835e-21
1.58182e-21
-9.52057e-21
3.07586e-21
-1.95468e-20
5.57971e-21
-3.66478e-20
9.38031e-21
-6.17383e-20
1.45273e-20
-9.21301e-20
2.02981e-20
-1.1965e-19
2.49274e-20
-1.32405e-19
2.61023e-20
-1.21653e-19
2.30527e-20
-9.25263e-20
1.79935e-20
-6.02901e-20
1.34899e-20
-3.48247e-20
9.3489e-21
-1.81167e-20
5.83447e-21
-8.45699e-21
3.2725e-21
-3.50314e-21
1.64089e-21
-1.27383e-21
7.29748e-22
-3.97307e-22
2.85272e-22
-1.02156e-22
9.5693e-23
-2.07733e-23
2.63958e-23
-3.21469e-24
5.72366e-24
-3.59646e-25
9.35913e-25
-8.87993e-26
1.09385e-25
-4.88705e-25
2.78584e-26
-3.05347e-24
1.56058e-25
-1.59491e-23
9.79311e-25
-7.033e-23
5.07038e-24
2.1881e-23
-2.65221e-22
1.15858e-49
-1.17244e-47
5.46183e-44
-8.11864e-42
2.72991e-40
-2.43483e-38
1.67345e-37
-9.55615e-36
2.92097e-35
-1.14738e-33
2.15821e-33
-6.09015e-32
8.43606e-32
-1.74183e-30
1.99819e-30
-3.00994e-29
3.11422e-29
-3.32184e-28
3.35067e-28
-2.33031e-27
2.5727e-27
-9.13615e-27
1.45558e-26
-2.12067e-27
6.41035e-26
1.78478e-26
2.25647e-25
1.49982e-25
6.59239e-25
8.33979e-25
1.56733e-24
3.86694e-24
2.38547e-24
1.63253e-23
-9.89231e-24
6.15042e-23
-1.22839e-22
2.07044e-22
-5.37224e-22
5.91643e-22
-1.73185e-21
1.4502e-21
-4.76943e-21
3.17659e-21
-1.18516e-20
6.4471e-21
-2.70635e-20
1.23251e-20
-5.68028e-20
2.22338e-20
-1.09291e-19
3.75682e-20
-1.93514e-19
5.91132e-20
-3.13412e-19
8.68355e-20
-4.63701e-19
1.17902e-19
-6.14664e-19
1.45027e-19
-7.06385e-19
1.54214e-19
-6.74823e-19
1.36701e-19
-5.28711e-19
1.07927e-19
-3.5797e-19
8.79351e-20
-2.18168e-19
6.60678e-20
-1.20842e-19
4.40374e-20
-6.05151e-20
2.62633e-20
-2.70859e-20
1.40506e-20
-1.07058e-20
6.72105e-21
-3.64333e-21
2.84927e-21
-1.03143e-21
1.04234e-21
-2.32685e-22
3.16699e-22
-3.98257e-23
7.62221e-23
-4.97182e-24
1.37858e-23
-1.14555e-24
1.797e-24
-5.43972e-24
4.26641e-25
-3.1876e-23
2.05914e-24
-1.55837e-22
1.20979e-23
-6.41994e-22
5.85169e-23
2.35463e-22
-2.26062e-21
1.07648e-47
-1.55713e-45
2.88903e-42
-3.94978e-40
1.01767e-38
-8.20661e-37
4.93048e-36
-2.54233e-34
7.23128e-34
-2.56615e-32
4.66534e-32
-1.19037e-30
1.637e-30
-3.06019e-29
3.55941e-29
-4.86729e-28
5.19135e-28
-5.06003e-27
5.3143e-27
-3.43907e-26
3.92942e-26
-1.38339e-25
2.15042e-25
-1.34766e-25
9.08917e-25
2.20421e-25
3.05694e-24
1.92811e-24
8.50998e-24
1.02469e-23
1.96489e-23
4.43409e-23
3.28179e-23
1.73382e-22
-7.35339e-24
6.06102e-22
-7.72118e-22
1.90847e-21
-3.45388e-21
5.03396e-21
-1.05828e-20
1.13003e-20
-2.72469e-20
2.25494e-20
-6.32899e-20
4.17857e-20
-1.35245e-19
7.35192e-20
-2.65365e-19
1.22777e-19
-4.77048e-19
1.92625e-19
-7.9396e-19
2.82622e-19
-1.22601e-18
3.92536e-19
-1.80088e-18
5.17398e-19
-2.45354e-18
6.4479e-19
-2.94637e-18
7.03724e-19
-2.91681e-18
6.14696e-19
-2.30398e-18
4.70878e-19
-1.59464e-18
4.28834e-19
-1.01755e-18
3.48542e-19
-5.97919e-19
2.44438e-19
-3.20864e-19
1.53539e-19
-1.55235e-19
8.73049e-20
-6.67715e-20
4.49307e-20
-2.49133e-20
2.07086e-20
-7.79255e-21
8.31741e-21
-1.96765e-21
2.79816e-21
-3.79108e-22
7.55195e-22
-5.29838e-23
1.53924e-22
-1.02558e-23
2.24674e-23
-3.79574e-23
4.47892e-24
-2.12374e-22
1.68306e-23
-9.89829e-22
9.42797e-23
-3.87447e-21
4.34029e-22
1.65643e-21
-1.29392e-20
7.2794e-46
-1.21684e-43
1.08113e-40
-1.39983e-38
2.74272e-37
-2.07059e-35
1.0662e-34
-5.13831e-33
1.32822e-32
-4.4028e-31
7.54299e-31
-1.79723e-29
2.39009e-29
-4.17233e-28
4.79139e-28
-6.12526e-27
6.56136e-27
-6.00696e-26
6.41078e-26
-3.9562e-25
4.58323e-25
-1.62278e-24
2.44246e-24
-2.50668e-24
9.99196e-24
1.94739e-24
3.23341e-23
1.8962e-23
8.59044e-23
9.77059e-23
1.90514e-22
3.95787e-22
3.27239e-22
1.43278e-21
1.79722e-22
4.66494e-21
-3.69028e-21
1.38003e-20
-1.77249e-20
3.37984e-20
-5.20231e-20
6.97452e-20
-1.25561e-19
1.26696e-19
-2.72405e-19
2.14149e-19
-5.43493e-19
3.45566e-19
-9.94791e-19
5.31789e-19
-1.6668e-18
7.7129e-19
-2.60273e-18
1.05012e-18
-3.81577e-18
1.37521e-18
-5.66647e-18
1.77029e-18
-8.08456e-18
2.32084e-18
-1.02615e-17
2.68055e-18
-1.05387e-17
2.26049e-18
-8.10747e-18
1.53899e-18
-5.60797e-18
1.68936e-18
-3.69932e-18
1.4645e-18
-2.28758e-18
1.04938e-18
-1.31147e-18
6.82353e-19
-6.86522e-19
4.10174e-19
-3.22415e-19
2.27615e-19
-1.32601e-19
1.14707e-19
-4.61368e-20
5.09727e-20
-1.30746e-20
1.91517e-20
-2.8724e-21
5.81918e-21
-4.5752e-22
1.35495e-21
-7.4677e-23
2.2556e-22
-1.81607e-22
3.79087e-23
-9.81609e-22
9.35204e-23
-4.43257e-21
5.05425e-22
-1.67223e-20
2.25076e-21
8.26455e-21
-5.364e-20
3.4491e-44
-6.37304e-42
2.89654e-39
-3.71069e-37
5.41405e-36
-3.99914e-34
1.7138e-33
-8.0514e-32
1.83251e-31
-5.9065e-30
9.23414e-30
-2.13469e-28
2.65826e-28
-4.49379e-27
4.93505e-27
-6.10332e-26
6.36672e-26
-5.65075e-25
5.95535e-25
-3.60404e-24
4.13249e-24
-1.49857e-23
2.15738e-23
-2.98418e-23
8.62698e-23
1.13649e-23
2.71436e-22
1.43308e-22
6.93262e-22
7.3351e-22
1.47373e-21
2.80448e-21
2.52811e-21
9.42033e-21
2.25937e-21
2.86812e-20
-1.29368e-20
8.00208e-20
-7.36413e-20
1.83165e-19
-2.0981e-19
3.49121e-19
-4.7726e-19
5.77405e-19
-9.65409e-19
8.90258e-19
-1.79163e-18
1.31053e-18
-3.04876e-18
1.84532e-18
-4.74019e-18
2.45718e-18
-6.911e-18
3.07782e-18
-9.57124e-18
3.75751e-18
-1.48893e-17
4.71021e-18
-2.24418e-17
6.98529e-18
-3.01339e-17
8.96756e-18
-3.40777e-17
7.0363e-18
-2.35184e-17
3.62262e-18
-1.62131e-17
5.65086e-18
-1.101e-17
5.19115e-18
-7.08179e-18
3.64286e-18
-4.29696e-18
2.39925e-18
-2.42022e-18
1.51532e-18
-1.23965e-18
9.05604e-19
-5.64186e-19
5.00334e-19
-2.19695e-19
2.47608e-19
-7.02218e-20
1.04704e-19
-1.76194e-20
3.60249e-20
-3.2604e-21
9.60147e-21
-4.94887e-22
1.85843e-21
-6.44372e-22
2.90399e-22
-3.35156e-21
3.83229e-22
-1.488e-20
1.99037e-21
-5.4788e-20
8.70052e-21
3.11248e-20
-1.70607e-19
1.08341e-42
-2.36045e-40
5.50279e-38
-7.51535e-36
7.80004e-35
-6.02372e-33
2.0449e-32
-9.94945e-31
1.8992e-30
-6.29606e-29
8.57028e-29
-2.02575e-27
2.25759e-27
-3.88112e-26
3.90258e-26
-4.88538e-25
4.76302e-25
-4.2707e-24
4.28064e-24
-2.63362e-23
2.89477e-23
-1.10297e-22
1.48926e-22
-2.58163e-22
5.88181e-22
2.80023e-23
1.82253e-21
8.23008e-22
4.53002e-21
4.35856e-21
9.28097e-21
1.59776e-20
1.57018e-20
5.01121e-20
1.71342e-20
1.42898e-19
-2.84438e-20
3.79031e-19
-2.49595e-19
8.17073e-19
-7.05301e-19
1.44516e-18
-1.52191e-18
2.17893e-18
-2.86875e-18
3.06221e-18
-4.92908e-18
4.09071e-18
-7.72618e-18
5.22418e-18
-1.09909e-17
6.30016e-18
-1.43985e-17
7.10829e-18
-1.75196e-17
7.72066e-18
-3.42743e-17
8.60853e-18
-4.94114e-17
1.73257e-17
-7.70767e-17
2.57109e-17
-1.4576e-16
2.18462e-17
-5.67904e-17
4.43541e-18
-3.58904e-17
1.79435e-17
-2.67862e-17
1.42929e-17
-1.81399e-17
9.58331e-18
-1.16121e-17
6.72881e-18
-6.96947e-18
4.53527e-18
-3.86297e-18
2.91967e-18
-1.93698e-18
1.76217e-18
-8.45591e-19
9.6848e-19
-3.07608e-19
4.61931e-19
-8.8414e-20
1.81592e-19
-1.90287e-20
5.55486e-20
-3.04226e-21
1.25112e-20
-1.86524e-21
2.0582e-21
-8.87352e-21
1.27753e-21
-3.9267e-20
6.05956e-21
-1.42759e-19
2.63552e-20
9.2917e-20
-4.35604e-19
1.89513e-41
-6.45253e-39
7.00304e-37
-1.18763e-34
7.91339e-34
-7.20993e-32
1.7632e-31
-9.86164e-30
1.44738e-29
-5.41742e-28
5.92829e-28
-1.55891e-26
1.44446e-26
-2.72622e-25
2.34495e-25
-3.18372e-24
2.72605e-24
-2.62552e-23
2.36752e-23
-1.56094e-22
1.56901e-22
-6.53448e-22
8.00864e-22
-1.70264e-21
3.16321e-21
-9.31391e-22
9.77338e-21
3.44791e-21
2.40141e-20
2.03595e-20
4.8031e-20
7.35214e-20
8.00549e-20
2.18149e-19
9.63423e-20
5.84467e-19
-4.23544e-22
1.49379e-18
-6.91491e-19
3.06024e-18
-1.99607e-18
5.0271e-18
-4.13399e-18
6.90024e-18
-7.27303e-18
8.86502e-18
-1.14408e-17
1.07032e-17
-1.62573e-17
1.22124e-17
-2.09801e-17
1.30894e-17
-2.5544e-17
1.30714e-17
-3.17279e-17
1.28978e-17
-4.67711e-17
1.4465e-17
-9.83667e-17
2.18384e-17
-3.26154e-16
5.78608e-17
-7.51948e-16
6.85737e-16
-3.17686e-16
2.1225e-16
-1.55901e-16
4.92422e-16
-7.80648e-17
5.64934e-17
-4.5381e-17
2.80754e-17
-2.79599e-17
1.83621e-17
-1.70373e-17
1.22624e-17
-9.95099e-18
8.11377e-18
-5.40511e-18
5.18604e-18
-2.62469e-18
3.09976e-18
-1.08515e-18
1.65048e-18
-3.61467e-19
7.39077e-19
-9.06894e-20
2.6222e-19
-1.64289e-20
6.88251e-20
-5.10164e-21
1.28157e-20
-1.89359e-20
4.02289e-21
-8.44981e-20
1.48608e-20
-3.0685e-19
6.50475e-20
2.28583e-19
-9.25575e-19
-7.92736e-38
-1.34621e-37
4.51496e-36
-1.52323e-33
4.86772e-33
-7.05798e-31
9.88823e-31
-8.03216e-29
7.48071e-29
-3.84601e-27
2.86601e-27
-9.92428e-26
6.61274e-26
-1.58607e-24
1.02731e-24
-1.71718e-23
1.15517e-23
-1.33206e-22
9.82037e-23
-7.59437e-22
6.44984e-22
-3.14607e-21
3.30183e-21
-8.77751e-21
1.32117e-20
-1.10717e-20
4.13729e-20
9.26081e-21
1.02374e-19
7.30896e-20
2.04067e-19
2.72118e-19
3.37485e-19
7.8124e-19
4.26704e-19
1.98077e-18
2.02929e-19
4.99285e-18
-1.56383e-18
9.90162e-18
-4.81693e-18
1.48959e-17
-9.74611e-18
1.85593e-17
-1.59252e-17
2.19657e-17
-2.24537e-17
2.37606e-17
-2.81616e-17
2.36387e-17
-3.2238e-17
2.19612e-17
-3.44853e-17
1.90779e-17
-3.97573e-17
1.6051e-17
-8.49897e-17
1.60622e-17
-3.23309e-16
3.21404e-17
-4.1207e-16
3.43819e-16
-1.84752e-15
1.09059e-15
-2.86069e-15
8.84242e-16
-9.69446e-16
1.39543e-15
-1.16144e-16
8.74129e-17
-6.56428e-17
4.98687e-17
-4.40638e-17
3.23637e-17
-3.00678e-17
2.35325e-17
-1.95593e-17
1.70091e-17
-1.18192e-17
1.19156e-17
-6.44804e-18
7.87568e-18
-3.04213e-18
4.7067e-18
-1.17732e-18
2.40451e-18
-3.49984e-19
9.90362e-19
-7.4258e-20
3.07577e-19
-1.55357e-20
6.69658e-20
-3.37618e-20
1.41348e-20
-1.52431e-19
3.05059e-20
-5.5974e-19
1.3479e-19
4.77802e-19
-1.68415e-18
-2.68406e-35
-2.10768e-36
-8.11569e-33
-1.66258e-32
4.8166e-34
-5.94149e-30
1.63613e-30
-5.62774e-28
1.6626e-28
-2.34491e-26
7.13638e-27
-5.41417e-25
1.74362e-25
-7.88666e-24
2.80204e-24
-7.8844e-23
3.22846e-23
-5.71687e-22
2.80752e-22
-3.09566e-21
1.89089e-21
-1.25008e-20
9.97734e-21
-3.60748e-20
4.1383e-20
-6.18089e-20
1.3453e-19
6.17748e-21
3.43607e-19
1.91479e-19
7.00152e-19
7.94037e-19
1.17149e-18
2.29319e-18
1.50065e-18
5.60672e-18
1.16904e-18
1.44915e-17
-2.8171e-18
2.89625e-17
-1.01926e-17
3.76716e-17
-2.05988e-17
4.33599e-17
-3.04039e-17
4.74449e-17
-3.69994e-17
4.4793e-17
-3.9989e-17
3.75256e-17
-4.16591e-17
2.98416e-17
-4.42638e-17
2.36055e-17
-7.06728e-17
1.97465e-17
-2.16441e-16
2.77917e-17
1.43782e-16
8.3359e-17
-2.20936e-15
3.34245e-16
-2.29734e-15
8.3667e-16
-2.97702e-15
1.22391e-15
-2.01991e-15
3.57246e-16
-1.03027e-16
2.97822e-16
-5.37011e-17
8.21191e-17
-4.41452e-17
3.91719e-17
-3.63542e-17
3.06099e-17
-2.79685e-17
2.51248e-17
-1.96405e-17
2.01815e-17
-1.23558e-17
1.53269e-17
-6.73494e-18
1.05444e-17
-3.04296e-18
6.21987e-18
-1.07373e-18
2.98655e-18
-2.74754e-19
1.09881e-18
-5.31675e-20
2.87899e-19
-5.28597e-20
5.60784e-20
-2.35154e-19
5.5231e-20
-8.85227e-19
2.39807e-19
8.68953e-19
-2.68357e-18
-6.13974e-34
-2.26654e-35
-2.81957e-31
-1.49708e-31
-2.93158e-29
-4.26641e-29
-1.24184e-27
-3.41972e-27
-2.70669e-26
-1.2514e-25
-3.34096e-25
-2.59788e-24
-2.21123e-24
-3.45486e-23
-1.60579e-24
-3.1854e-22
2.28222e-23
-2.1478e-21
3.47305e-22
-1.09285e-20
3.05263e-21
-4.22655e-20
1.8965e-20
-1.21804e-19
8.84118e-20
-2.39129e-19
3.15707e-19
-1.8584e-19
8.69032e-19
3.15144e-19
1.87134e-18
1.75335e-18
3.28778e-18
5.37048e-18
4.32542e-18
1.31056e-17
2.0178e-18
1.72876e-17
-4.36525e-18
7.68692e-17
-1.85873e-17
7.96536e-17
-2.80033e-17
8.76533e-17
-5.12224e-17
6.39003e-17
-4.99939e-17
7.07682e-17
-4.12716e-17
4.65574e-17
-4.65308e-17
3.96724e-17
-4.52658e-17
2.50277e-17
-4.71056e-17
1.88132e-17
-7.79603e-17
1.72923e-17
-2.6807e-16
2.89115e-17
-4.10224e-16
8.96824e-17
-1.72728e-15
1.61292e-16
-2.28886e-15
1.44416e-15
-1.00833e-15
3.82378e-17
-1.43759e-16
9.52472e-17
-6.52553e-17
8.93624e-17
-4.68788e-17
4.69886e-17
-4.03488e-17
3.66774e-17
-3.44831e-17
3.22611e-17
-2.73702e-17
2.88621e-17
-1.95778e-17
2.48577e-17
-1.22334e-17
1.96002e-17
-6.40488e-18
1.32981e-17
-2.66336e-18
7.39431e-18
-8.20287e-19
3.19966e-18
-1.78383e-19
1.00675e-18
-8.08461e-20
2.19823e-19
-3.14392e-19
9.84084e-20
-1.23187e-18
3.72289e-19
1.3992e-18
-3.80808e-18
-9.12358e-33
-1.21667e-34
-3.79095e-30
-1.04952e-30
-3.7854e-28
-2.49858e-28
-1.61384e-26
-1.7322e-26
-3.75433e-25
-5.64261e-25
-5.46013e-24
-1.06256e-23
-5.3987e-23
-1.29713e-22
-3.81276e-22
-1.10602e-21
-1.95487e-21
-6.93491e-21
-7.03484e-21
-3.30419e-20
-1.49312e-20
-1.21276e-19
1.42237e-21
-3.41135e-19
7.69013e-20
-7.05818e-19
4.25781e-19
-9.00081e-19
1.46539e-18
9.48263e-20
3.61384e-18
2.69135e-18
6.98603e-18
9.67007e-18
5.61837e-18
1.44768e-17
1.6028e-17
1.06619e-16
-4.3091e-18
1.50353e-16
-3.33616e-17
1.19218e-16
-5.68433e-17
1.52608e-16
-7.2238e-17
3.98401e-16
-6.9606e-17
8.69488e-17
-7.23256e-17
5.52421e-17
-4.61728e-17
5.54196e-17
-4.4287e-17
2.53233e-17
-4.06934e-17
1.70018e-17
-3.99001e-17
1.40187e-17
-6.09744e-17
1.41212e-17
-2.3326e-16
2.3732e-17
-4.88475e-16
1.57996e-16
-2.33487e-16
4.07796e-16
-1.05099e-16
1.30413e-16
-6.91706e-17
4.4953e-17
-4.98845e-17
5.06467e-17
-4.35904e-17
4.06888e-17
-4.16349e-17
4.02587e-17
-3.91513e-17
3.9418e-17
-3.40735e-17
3.79808e-17
-2.68742e-17
3.59569e-17
-1.88831e-17
3.18729e-17
-1.12936e-17
2.44812e-17
-5.46039e-18
1.55328e-17
-2.00501e-18
7.79489e-18
-5.19595e-19
2.91716e-18
-1.43829e-19
7.57066e-19
-3.68221e-19
2.06299e-19
-1.52057e-18
5.11682e-19
2.01755e-18
-4.86783e-18
-9.85605e-32
5.24744e-35
-3.47456e-29
-5.35084e-30
-3.09323e-27
-1.14262e-27
-1.21157e-25
-7.05697e-26
-2.64929e-24
-2.07883e-24
-3.69348e-23
-3.58172e-23
-3.56973e-22
-4.03031e-22
-2.5269e-21
-3.18199e-21
-1.35476e-20
-1.85348e-20
-5.57924e-20
-8.23992e-20
-1.76184e-19
-2.8489e-19
-4.16117e-19
-7.69963e-19
-6.73355e-19
-1.60308e-18
-4.57695e-19
-2.40151e-18
7.82915e-19
-1.76812e-18
4.03241e-18
2.13982e-18
1.02107e-17
1.25371e-17
1.37713e-17
3.16614e-17
2.1681e-17
1.08886e-16
-5.94096e-18
1.89432e-16
-4.55064e-17
1.69002e-16
-8.55275e-17
2.10083e-16
-2.01674e-16
3.38973e-16
-7.42207e-17
8.99886e-17
-6.04619e-17
4.97929e-17
-4.14003e-17
3.34668e-17
-3.91547e-17
2.58081e-17
-3.18415e-17
1.39094e-17
-3.14627e-17
1.38949e-17
-3.38585e-17
1.44722e-17
-6.26425e-17
1.77956e-17
-1.11356e-16
4.59777e-17
-5.8819e-17
9.8202e-17
-4.09156e-17
5.52354e-17
-3.56473e-17
2.86785e-17
-3.29874e-17
4.51571e-17
-3.62723e-17
4.12984e-17
-4.03442e-17
4.62033e-17
-4.15171e-17
4.76669e-17
-3.80699e-17
4.68209e-17
-3.21031e-17
4.68817e-17
-2.50168e-17
4.62396e-17
-1.69253e-17
3.9635e-17
-9.40701e-18
2.82854e-17
-4.06546e-18
1.62446e-17
-1.27131e-18
7.13873e-18
-3.11488e-19
2.22988e-18
-3.89729e-19
5.35633e-19
-1.66459e-18
6.4561e-19
2.61623e-18
-5.63742e-18
-7.7051e-31
2.19937e-33
-2.33314e-28
-1.84189e-29
-1.84344e-26
-3.89501e-27
-6.55844e-25
-2.21705e-25
-1.3247e-23
-6.01079e-24
-1.72748e-22
-9.55566e-23
-1.57718e-21
-9.93849e-22
-1.06422e-20
-7.25689e-21
-5.49965e-20
-3.90893e-20
-2.22295e-19
-1.60834e-19
-7.10811e-19
-5.17049e-19
-1.80577e-18
-1.31458e-18
-3.6348e-18
-2.64563e-18
-5.71163e-18
-4.1255e-18
-6.56631e-18
-4.46138e-18
-3.70667e-18
-6.53508e-19
4.69367e-18
1.01327e-17
1.85677e-17
3.95592e-17
5.07574e-17
2.3096e-16
8.42446e-18
2.43978e-16
-8.08101e-17
4.98101e-15
-1.57398e-16
2.9994e-16
-1.09325e-16
2.18926e-16
-5.457e-17
9.68632e-17
-3.31784e-17
3.66704e-17
-2.19932e-17
2.27665e-17
-1.64366e-17
1.76897e-17
-1.68475e-17
1.52939e-17
-2.00837e-17
1.73872e-17
-2.43715e-17
2.02585e-17
-2.9486e-17
2.2455e-17
-3.13759e-17
2.69528e-17
-2.42263e-17
3.58416e-17
-2.05369e-17
3.15645e-17
-4.58767e-17
3.14589e-17
-3.71106e-17
6.93274e-17
-3.1492e-17
4.65002e-17
-4.33168e-17
6.05697e-17
-4.78413e-17
6.58517e-17
-4.06311e-17
6.26923e-17
-3.3655e-17
5.97513e-17
-2.85533e-17
6.18232e-17
-2.17655e-17
5.75588e-17
-1.37715e-17
4.54037e-17
-6.90228e-18
2.94923e-17
-2.59272e-18
1.50275e-17
-7.03794e-19
5.62795e-18
-4.10809e-19
1.48967e-18
-1.61272e-18
8.30606e-19
3.06406e-18
-5.90073e-18
-4.41106e-30
2.57691e-32
-1.16013e-27
-3.41687e-29
-8.18711e-26
-9.25809e-27
-2.6491e-24
-5.11749e-25
-4.9251e-23
-1.30835e-23
-5.96486e-22
-1.94542e-22
-5.09193e-21
-1.88221e-21
-3.22969e-20
-1.27172e-20
-1.57787e-19
-6.30255e-20
-6.08202e-19
-2.3718e-19
-1.87957e-18
-6.93632e-19
-4.71757e-18
-1.59745e-18
-9.76516e-18
-2.90734e-18
-1.70879e-17
-4.12498e-18
-2.63533e-17
-4.16507e-18
-3.84456e-17
-6.7008e-19
-5.94271e-17
1.14786e-17
-8.63962e-17
6.59793e-17
-9.76125e-18
3.70274e-16
-9.55685e-16
6.02531e-15
-9.77498e-16
7.9788e-15
-5.47016e-16
6.43884e-15
-3.21441e-17
2.20425e-16
-3.89961e-18
6.88021e-17
5.20557e-18
3.05781e-17
6.86703e-18
2.17516e-17
5.45761e-18
1.97335e-17
1.98527e-18
1.94025e-17
-3.08329e-18
2.3941e-17
-9.19269e-18
3.09018e-17
-1.61856e-17
6.74582e-17
-1.59609e-17
3.04072e-17
-1.16624e-17
3.0574e-17
-1.00813e-17
3.20485e-17
-1.22558e-17
3.6809e-17
-1.50397e-17
5.36699e-17
-2.84466e-17
6.66501e-17
-6.65356e-17
1.12308e-16
-7.48613e-17
1.52224e-16
-5.79176e-17
1.23045e-16
-3.55599e-17
1.10194e-16
-2.9634e-17
9.28051e-17
-2.4514e-17
7.98229e-17
-1.71662e-17
6.5278e-17
-9.8617e-18
4.72375e-17
-4.40501e-18
2.78291e-17
-1.43239e-18
1.23829e-17
-5.13719e-19
3.89189e-18
-1.3841e-18
1.31481e-18
3.27651e-18
-5.548e-18
-1.8173e-29
1.72976e-31
-4.23137e-27
3.98253e-30
-2.6952e-25
-1.3679e-26
-7.97707e-24
-8.29012e-25
-1.36961e-22
-2.09392e-23
-1.54201e-21
-2.98227e-22
-1.22933e-20
-2.71376e-21
-7.30679e-20
-1.69802e-20
-3.35657e-19
-7.6632e-20
-1.22239e-18
-2.569e-19
-3.5954e-18
-6.47559e-19
-8.69283e-18
-1.21055e-18
-1.77237e-17
-1.54796e-18
-3.19028e-17
-7.81629e-19
-5.45072e-17
2.24298e-18
-9.6035e-17
1.04407e-17
-1.98357e-16
3.2345e-17
-5.87848e-16
1.06482e-16
-2.49191e-15
5.75826e-16
-1.45452e-15
7.08283e-15
-2.75915e-18
9.46597e-15
1.96823e-16
3.88711e-15
1.36833e-16
1.57559e-16
9.6996e-17
7.93002e-17
6.39641e-17
4.65908e-17
4.21943e-17
3.39786e-17
2.87645e-17
2.91162e-17
1.95493e-17
2.7679e-17
1.52543e-17
3.22263e-17
2.14741e-17
3.99166e-17
3.56847e-18
6.11611e-17
-1.16107e-18
4.34183e-17
-1.94525e-18
3.85322e-17
-4.37974e-18
4.23247e-17
-5.93663e-18
5.01017e-17
-5.36939e-18
6.77309e-17
3.13402e-18
1.09236e-16
-9.95367e-17
1.97454e-16
-1.93454e-16
2.49652e-15
-9.85437e-17
3.30989e-15
-5.93114e-17
1.40113e-15
-3.91494e-17
2.51083e-16
-2.60754e-17
1.3593e-16
-1.79256e-17
9.183e-17
-1.1425e-17
6.85846e-17
-6.07447e-18
4.56722e-17
-2.46434e-18
2.40513e-17
-8.03582e-19
9.24273e-18
-1.08172e-18
2.76321e-18
3.34342e-18
-4.62822e-18
-5.39403e-29
7.50428e-31
-1.13662e-26
1.24647e-28
-6.64095e-25
-6.75751e-27
-1.81961e-23
-8.45672e-25
-2.90969e-22
-2.36276e-23
-3.06276e-21
-3.37105e-22
-2.28815e-20
-2.93552e-21
-1.27608e-19
-1.69654e-20
-5.50362e-19
-6.78305e-20
-1.88323e-18
-1.8792e-19
-5.21311e-18
-3.32173e-19
-1.18973e-17
-1.89057e-19
-2.30339e-17
8.78045e-19
-3.98477e-17
4.04184e-18
-6.71875e-17
1.11883e-17
-1.2311e-16
2.63859e-17
-2.63879e-16
6.41701e-17
-5.6263e-16
1.62852e-16
-6.88568e-16
3.58775e-16
-6.91581e-17
4.51181e-15
1.94672e-16
9.00973e-15
1.36881e-16
1.35395e-15
2.65265e-16
2.16332e-16
1.64235e-16
2.34083e-16
1.10021e-16
7.96865e-17
7.03305e-17
5.63568e-17
4.64169e-17
4.38409e-17
3.3421e-17
3.88452e-17
2.64884e-17
3.79055e-17
2.69814e-17
5.34168e-17
1.47428e-17
8.85405e-17
1.33766e-17
5.63605e-17
5.82739e-18
5.45232e-17
-1.53662e-18
5.40656e-17
-5.60819e-18
5.45001e-17
-2.70483e-18
6.00376e-17
7.99779e-18
7.49656e-17
4.4436e-16
1.81184e-15
1.72568e-16
3.15041e-15
-1.52054e-16
3.06487e-15
-2.67512e-16
3.09774e-15
-5.03794e-17
6.01669e-16
-2.29184e-17
2.73101e-16
-1.40722e-17
1.47849e-16
-9.62112e-18
9.83069e-17
-6.18459e-18
6.87271e-17
-3.23667e-18
4.15474e-17
-1.28576e-18
1.93567e-17
-8.65692e-19
6.61427e-18
3.78178e-18
-3.35916e-18
-1.18262e-28
2.25001e-30
-2.30592e-26
5.15954e-28
-1.2567e-24
1.39799e-26
-3.22813e-23
-2.1557e-25
-4.85484e-22
-1.54694e-23
-4.81457e-21
-2.55569e-22
-3.39098e-20
-2.21272e-21
-1.7822e-19
-1.15557e-20
-7.23319e-19
-3.63275e-20
-2.32362e-18
-4.90013e-20
-6.02578e-18
1.17962e-19
-1.28906e-17
9.37093e-19
-2.36469e-17
3.30413e-18
-4.02578e-17
8.37783e-18
-7.06426e-17
1.8232e-17
-1.33522e-16
3.94027e-17
-2.62304e-16
9.17043e-17
-5.68179e-16
2.588e-16
-1.14755e-15
1.73932e-15
-4.49753e-16
6.24925e-15
1.272e-15
1.00244e-14
6.82216e-16
2.13987e-15
2.99625e-16
8.52846e-16
1.17302e-16
2.53816e-16
9.55546e-17
8.00874e-17
7.01713e-17
6.63056e-17
5.02602e-17