/*--------------------------------*- C++ -*----------------------------------*\
| =========                 |                                                 |
| \\      /  F ield         | OpenFOAM: The Open Source CFD Toolbox           |
|  \\    /   O peration     | Version:  2.4.0                                 |
|   \\  /    A nd           | Web:      www.OpenFOAM.org                      |
|    \\/     M anipulation  |                                                 |
\*---------------------------------------------------------------------------*/
FoamFile
{
    version     2.0;
    format      ascii;
    class       volVectorField;
    location    "0.2";
    object      U;
}
// * * * * * * * * * * * * * * * * * * * * * * * * * * * * * * * * * * * * * //

dimensions      [0 1 -1 0 0 0 0];

internalField   nonuniform List<vector> 
60000
(
(-7.17012e-05 2.86262e-05 0)
(-0.000250273 2.89664e-05 0)
(-0.000438429 2.98434e-05 0)
(-0.000628952 3.01563e-05 0)
(-0.000821316 3.04497e-05 0)
(-0.00101591 3.07837e-05 0)
(-0.00121321 3.11809e-05 0)
(-0.0014137 3.16456e-05 0)
(-0.00161792 3.21789e-05 0)
(-0.00182637 3.27823e-05 0)
(-0.0020396 3.34559e-05 0)
(-0.00225814 3.41987e-05 0)
(-0.00248254 3.50111e-05 0)
(-0.00271334 3.58924e-05 0)
(-0.00295111 3.68418e-05 0)
(-0.0031964 3.78587e-05 0)
(-0.00344978 3.89421e-05 0)
(-0.00371183 4.00906e-05 0)
(-0.00398311 4.13024e-05 0)
(-0.00426422 4.25755e-05 0)
(-0.00455574 4.39076e-05 0)
(-0.00485826 4.52958e-05 0)
(-0.00517235 4.67366e-05 0)
(-0.00549862 4.82257e-05 0)
(-0.00583764 4.97586e-05 0)
(-0.00619 5.13295e-05 0)
(-0.00655625 5.29321e-05 0)
(-0.00693698 5.45601e-05 0)
(-0.00733273 5.62054e-05 0)
(-0.00774402 5.78583e-05 0)
(-0.00817137 5.95088e-05 0)
(-0.00861528 6.11457e-05 0)
(-0.00907619 6.27565e-05 0)
(-0.00955452 6.43269e-05 0)
(-0.0100507 6.58418e-05 0)
(-0.0105649 6.72842e-05 0)
(-0.0110977 6.86357e-05 0)
(-0.011649 6.98758e-05 0)
(-0.0122191 7.09822e-05 0)
(-0.0128081 7.19307e-05 0)
(-0.013416 7.26953e-05 0)
(-0.0140426 7.32479e-05 0)
(-0.0146876 7.35582e-05 0)
(-0.0153509 7.35937e-05 0)
(-0.0160318 7.33199e-05 0)
(-0.0167299 7.27003e-05 0)
(-0.0174442 7.16965e-05 0)
(-0.0181739 7.0268e-05 0)
(-0.0189179 6.83728e-05 0)
(-0.0196748 6.59681e-05 0)
(-0.0204432 6.30094e-05 0)
(-0.0212213 5.94521e-05 0)
(-0.0220072 5.52511e-05 0)
(-0.0227987 5.03617e-05 0)
(-0.0235935 4.47406e-05 0)
(-0.0243888 3.83459e-05 0)
(-0.0251819 3.11385e-05 0)
(-0.0259696 2.30829e-05 0)
(-0.0267485 1.4148e-05 0)
(-0.0275152 4.30821e-06 0)
(-0.0282658 -6.45521e-06 0)
(-0.0289964 -1.81528e-05 0)
(-0.029703 -3.07858e-05 0)
(-0.0303814 -4.4345e-05 0)
(-0.0310272 -5.88094e-05 0)
(-0.0316362 -7.41452e-05 0)
(-0.0322042 -9.03042e-05 0)
(-0.0327271 -0.000107222 0)
(-0.0332008 -0.000124819 0)
(-0.0336218 -0.000142997 0)
(-0.0339866 -0.000161643 0)
(-0.0342927 -0.000180624 0)
(-0.0345377 -0.000199799 0)
(-0.0347201 -0.000219023 0)
(-0.0348395 -0.000238174 0)
(-0.0348968 -0.000257188 0)
(-0.0348941 -0.000274782 0)
(-0.0348337 -0.00028883 0)
(-0.0347197 -0.000301257 0)
(-0.034559 -0.00031188 0)
(-0.0343599 -0.000320298 0)
(-0.0341323 -0.000326075 0)
(-0.0338885 -0.000328735 0)
(-0.0336428 -0.000327772 0)
(-0.0334118 -0.000322627 0)
(-0.0332146 -0.000312672 0)
(-0.0330725 -0.000297136 0)
(-0.0330106 -0.000275306 0)
(-0.033052 -0.000242834 0)
(-0.0332179 -0.000204132 0)
(-0.0335336 -0.000158269 0)
(-0.034021 -0.00010462 0)
(-0.0346985 -4.33071e-05 0)
(-0.0355786 2.46689e-05 0)
(-0.036668 9.833e-05 0)
(-0.0379667 0.000177778 0)
(-0.0394594 0.000261989 0)
(-0.0410964 0.00034187 0)
(-0.0427803 0.000398776 0)
(-0.0443996 0.000427207 0)
(-0.000107055 0.000134968 0)
(-0.000392399 0.000160187 0)
(-0.00068703 0.000163851 0)
(-0.000984496 0.000165459 0)
(-0.00128467 0.000167247 0)
(-0.00158857 0.000169425 0)
(-0.00189709 0.000172045 0)
(-0.0022111 0.000175121 0)
(-0.00253151 0.000178661 0)
(-0.00285923 0.000182674 0)
(-0.00319518 0.000187167 0)
(-0.00354032 0.000192144 0)
(-0.00389561 0.000197612 0)
(-0.00426202 0.000203579 0)
(-0.00464056 0.00021005 0)
(-0.00503226 0.000217034 0)
(-0.00543816 0.000224537 0)
(-0.00585934 0.000232565 0)
(-0.00629687 0.000241125 0)
(-0.00675189 0.000250223 0)
(-0.00722553 0.000259864 0)
(-0.00771897 0.000270054 0)
(-0.0082334 0.000280797 0)
(-0.00877004 0.000292095 0)
(-0.00933013 0.000303949 0)
(-0.00991496 0.000316358 0)
(-0.0105258 0.000329322 0)
(-0.011164 0.000342836 0)
(-0.0118308 0.000356893 0)
(-0.0125277 0.000371484 0)
(-0.013256 0.000386595 0)
(-0.0140171 0.000402212 0)
(-0.0148124 0.000418313 0)
(-0.0156432 0.000434875 0)
(-0.016511 0.000451869 0)
(-0.0174172 0.000469262 0)
(-0.0183631 0.000487013 0)
(-0.0193501 0.000505076 0)
(-0.0203796 0.0005234 0)
(-0.0214528 0.000541922 0)
(-0.022571 0.000560576 0)
(-0.0237353 0.000579286 0)
(-0.0249469 0.000597964 0)
(-0.0262069 0.000616517 0)
(-0.027516 0.00063484 0)
(-0.0288753 0.000652816 0)
(-0.0302854 0.000670322 0)
(-0.0317467 0.00068722 0)
(-0.0332598 0.000703363 0)
(-0.0348247 0.000718594 0)
(-0.0364416 0.000732745 0)
(-0.03811 0.00074564 0)
(-0.0398297 0.000757093 0)
(-0.0415997 0.00076691 0)
(-0.0434192 0.000774894 0)
(-0.0452867 0.000780841 0)
(-0.0472007 0.000784547 0)
(-0.0491591 0.000785808 0)
(-0.0511597 0.000784425 0)
(-0.0531998 0.000780206 0)
(-0.0552764 0.000772974 0)
(-0.0573861 0.000762568 0)
(-0.0595252 0.000748852 0)
(-0.0616897 0.000731716 0)
(-0.0638753 0.000711087 0)
(-0.0660773 0.000686935 0)
(-0.0682909 0.00065928 0)
(-0.0705111 0.000628199 0)
(-0.0727328 0.000593835 0)
(-0.0749507 0.000556405 0)
(-0.0771598 0.000516208 0)
(-0.0793548 0.000473632 0)
(-0.0815311 0.000429157 0)
(-0.0836842 0.000383355 0)
(-0.08581 0.000336878 0)
(-0.0879049 0.000290487 0)
(-0.0899655 0.000246214 0)
(-0.0919904 0.000206477 0)
(-0.0939787 0.0001706 0)
(-0.09593 0.000139723 0)
(-0.0978455 0.000115332 0)
(-0.0997276 9.90447e-05 0)
(-0.10158 9.25557e-05 0)
(-0.103407 9.7618e-05 0)
(-0.105215 0.000115968 0)
(-0.107011 0.000149213 0)
(-0.108799 0.000198713 0)
(-0.110583 0.000265341 0)
(-0.11237 0.000352181 0)
(-0.114163 0.000455372 0)
(-0.115962 0.000573681 0)
(-0.117763 0.000704268 0)
(-0.119559 0.00084283 0)
(-0.12134 0.000984403 0)
(-0.123088 0.00112316 0)
(-0.124775 0.00124885 0)
(-0.126346 0.00134098 0)
(-0.127716 0.00136886 0)
(-0.128768 0.00130825 0)
(-0.129396 0.00116738 0)
(-0.000114654 0.000268884 0)
(-0.000423742 0.000316469 0)
(-0.00074062 0.000321639 0)
(-0.00106101 0.000324502 0)
(-0.00138427 0.000328066 0)
(-0.00171162 0.000332512 0)
(-0.00204405 0.000337883 0)
(-0.00238252 0.000344199 0)
(-0.00272805 0.000351475 0)
(-0.00308164 0.000359727 0)
(-0.00344431 0.000368972 0)
(-0.00381712 0.000379224 0)
(-0.00420114 0.000390503 0)
(-0.00459746 0.000402827 0)
(-0.0050072 0.000416216 0)
(-0.00543151 0.000430689 0)
(-0.00587157 0.00044627 0)
(-0.00632857 0.000462978 0)
(-0.00680375 0.000480837 0)
(-0.0072984 0.000499869 0)
(-0.00781379 0.000520096 0)
(-0.00835129 0.000541539 0)
(-0.00891225 0.000564222 0)
(-0.0094981 0.000588165 0)
(-0.0101103 0.000613388 0)
(-0.0107503 0.000639908 0)
(-0.0114196 0.000667741 0)
(-0.0121199 0.000696902 0)
(-0.0128526 0.000727402 0)
(-0.0136195 0.000759246 0)
(-0.0144222 0.000792439 0)
(-0.0152625 0.000826981 0)
(-0.016142 0.000862863 0)
(-0.0170625 0.000900075 0)
(-0.0180259 0.000938597 0)
(-0.0190338 0.000978403 0)
(-0.0200883 0.00101946 0)
(-0.021191 0.00106172 0)
(-0.0223439 0.00110514 0)
(-0.0235488 0.00114964 0)
(-0.0248076 0.00119515 0)
(-0.026122 0.00124158 0)
(-0.0274939 0.00128882 0)
(-0.0289251 0.00133675 0)
(-0.0304171 0.00138523 0)
(-0.0319718 0.00143411 0)
(-0.0335906 0.00148321 0)
(-0.0352751 0.00153233 0)
(-0.0370266 0.00158127 0)
(-0.0388463 0.00162979 0)
(-0.0407354 0.00167764 0)
(-0.0426948 0.00172453 0)
(-0.0447252 0.00177019 0)
(-0.0468271 0.00181429 0)
(-0.049001 0.00185651 0)
(-0.0512467 0.00189651 0)
(-0.0535642 0.00193393 0)
(-0.0559529 0.0019684 0)
(-0.058412 0.00199956 0)
(-0.0609403 0.00202703 0)
(-0.0635363 0.00205045 0)
(-0.0661981 0.00206948 0)
(-0.0689235 0.00208377 0)
(-0.0717098 0.00209304 0)
(-0.0745539 0.00209702 0)
(-0.0774524 0.0020955 0)
(-0.0804013 0.00208832 0)
(-0.0833964 0.00207539 0)
(-0.086433 0.00205674 0)
(-0.0895061 0.00203244 0)
(-0.0926102 0.0020027 0)
(-0.0957394 0.00196786 0)
(-0.0988878 0.00192838 0)
(-0.102049 0.00188486 0)
(-0.105216 0.00183809 0)
(-0.108382 0.00178913 0)
(-0.11154 0.00173881 0)
(-0.114682 0.00168776 0)
(-0.117801 0.00163793 0)
(-0.120889 0.00159076 0)
(-0.123938 0.00154782 0)
(-0.126938 0.00151081 0)
(-0.129882 0.00148146 0)
(-0.13276 0.0014614 0)
(-0.135564 0.00145194 0)
(-0.138282 0.00145392 0)
(-0.140902 0.00146769 0)
(-0.143412 0.00149329 0)
(-0.1458 0.00152896 0)
(-0.148053 0.00157423 0)
(-0.150155 0.00162592 0)
(-0.152091 0.00168043 0)
(-0.153842 0.00173357 0)
(-0.155387 0.00177915 0)
(-0.156691 0.0018058 0)
(-0.1577 0.00179311 0)
(-0.158345 0.00170996 0)
(-0.158537 0.00152065 0)
(-0.158188 0.00120352 0)
(-0.15725 0.000770706 0)
(-0.000116139 0.000403828 0)
(-0.000428784 0.000475604 0)
(-0.000748652 0.000482748 0)
(-0.00107251 0.000486965 0)
(-0.00139925 0.000492355 0)
(-0.00173013 0.000499125 0)
(-0.00206616 0.000507316 0)
(-0.00240832 0.000516954 0)
(-0.00275764 0.000528062 0)
(-0.00311514 0.000540664 0)
(-0.00348187 0.000554786 0)
(-0.00385889 0.000570454 0)
(-0.0042473 0.000587699 0)
(-0.0046482 0.000606552 0)
(-0.00506275 0.000627046 0)
(-0.0054921 0.000649216 0)
(-0.00593745 0.000673098 0)
(-0.00640004 0.000698731 0)
(-0.00688113 0.000726153 0)
(-0.00738201 0.000755405 0)
(-0.00790401 0.000786526 0)
(-0.00844852 0.000819557 0)
(-0.00901693 0.000854541 0)
(-0.00961069 0.000891517 0)
(-0.0102313 0.000930526 0)
(-0.0108803 0.000971606 0)
(-0.0115592 0.00101479 0)
(-0.0122697 0.00106012 0)
(-0.0130134 0.00110762 0)
(-0.013792 0.00115733 0)
(-0.0146073 0.00120925 0)
(-0.015461 0.00126341 0)
(-0.0163549 0.00131983 0)
(-0.0172909 0.00137849 0)
(-0.0182708 0.00143941 0)
(-0.0192967 0.00150257 0)
(-0.0203703 0.00156795 0)
(-0.0214937 0.0016355 0)
(-0.0226688 0.00170518 0)
(-0.0238977 0.00177694 0)
(-0.0251823 0.00185068 0)
(-0.0265246 0.00192631 0)
(-0.0279266 0.00200372 0)
(-0.0293902 0.00208277 0)
(-0.0309174 0.00216329 0)
(-0.03251 0.00224511 0)
(-0.0341699 0.00232801 0)
(-0.0358988 0.00241176 0)
(-0.0376985 0.0024961 0)
(-0.0395704 0.00258073 0)
(-0.041516 0.00266533 0)
(-0.0435366 0.00274955 0)
(-0.0456334 0.002833 0)
(-0.0478075 0.00291529 0)
(-0.0500595 0.00299597 0)
(-0.05239 0.00307457 0)
(-0.0547995 0.00315062 0)
(-0.057288 0.0032236 0)
(-0.0598552 0.00329299 0)
(-0.0625007 0.00335826 0)
(-0.0652236 0.00341886 0)
(-0.0680228 0.00347426 0)
(-0.0708967 0.00352394 0)
(-0.0738433 0.00356737 0)
(-0.0768603 0.0036041 0)
(-0.0799447 0.00363367 0)
(-0.0830935 0.0036557 0)
(-0.0863028 0.00366988 0)
(-0.0895682 0.00367594 0)
(-0.0928851 0.00367373 0)
(-0.0962481 0.00366318 0)
(-0.0996512 0.00364435 0)
(-0.103088 0.00361742 0)
(-0.10655 0.00358268 0)
(-0.110031 0.0035406 0)
(-0.113522 0.00349178 0)
(-0.117012 0.00343686 0)
(-0.120491 0.00337651 0)
(-0.123949 0.003312 0)
(-0.127372 0.0032444 0)
(-0.130747 0.00317494 0)
(-0.13406 0.00310498 0)
(-0.137297 0.0030359 0)
(-0.140441 0.00296894 0)
(-0.143477 0.00290496 0)
(-0.146388 0.00284452 0)
(-0.149157 0.00278802 0)
(-0.151767 0.0027357 0)
(-0.154205 0.00268666 0)
(-0.156457 0.00264001 0)
(-0.158509 0.00259305 0)
(-0.160346 0.00254157 0)
(-0.161947 0.00247838 0)
(-0.163281 0.00239071 0)
(-0.164305 0.00225781 0)
(-0.164961 0.00205118 0)
(-0.165188 0.00173797 0)
(-0.164921 0.00128939 0)
(-0.164098 0.000694925 0)
(-0.162697 -2.53542e-05 0)
(-0.00011629 0.000539022 0)
(-0.000428726 0.000634757 0)
(-0.000748086 0.000644031 0)
(-0.00107172 0.000649632 0)
(-0.00139821 0.00065685 0)
(-0.00172885 0.000665946 0)
(-0.00206463 0.000676963 0)
(-0.00240656 0.000689929 0)
(-0.00275563 0.000704876 0)
(-0.00311289 0.000721837 0)
(-0.00347937 0.000740846 0)
(-0.00385615 0.000761943 0)
(-0.00424433 0.000785169 0)
(-0.004645 0.000810567 0)
(-0.00505932 0.000838185 0)
(-0.00548845 0.000868071 0)
(-0.0059336 0.000900279 0)
(-0.00639599 0.000934861 0)
(-0.00687689 0.000971873 0)
(-0.0073776 0.00101138 0)
(-0.00789946 0.00105342 0)
(-0.00844383 0.00109808 0)
(-0.00901213 0.00114541 0)
(-0.00960581 0.00119546 0)
(-0.0102264 0.00124831 0)
(-0.0108753 0.001304 0)
(-0.0115543 0.00136261 0)
(-0.0122649 0.00142417 0)
(-0.0130087 0.00148875 0)
(-0.0137875 0.00155638 0)
(-0.014603 0.00162713 0)
(-0.015457 0.00170101 0)
(-0.0163514 0.00177806 0)
(-0.0172879 0.0018583 0)
(-0.0182684 0.00194175 0)
(-0.019295 0.00202841 0)
(-0.0203695 0.00211825 0)
(-0.0214939 0.00221127 0)
(-0.0226702 0.00230742 0)
(-0.0239004 0.00240663 0)
(-0.0251865 0.00250884 0)
(-0.0265305 0.00261394 0)
(-0.0279345 0.00272181 0)
(-0.0294003 0.00283229 0)
(-0.03093 0.00294521 0)
(-0.0325255 0.00306036 0)
(-0.0341886 0.00317751 0)
(-0.0359211 0.00329638 0)
(-0.0377246 0.00341665 0)
(-0.0396009 0.00353799 0)
(-0.0415514 0.00366001 0)
(-0.0435775 0.00378229 0)
(-0.0456803 0.00390438 0)
(-0.047861 0.00402576 0)
(-0.0501203 0.00414591 0)
(-0.0524589 0.00426425 0)
(-0.0548772 0.00438018 0)
(-0.0573754 0.00449306 0)
(-0.0599533 0.00460221 0)
(-0.0626106 0.00470696 0)
(-0.0653463 0.00480659 0)
(-0.0681595 0.0049004 0)
(-0.0710486 0.00498767 0)
(-0.0740118 0.0050677 0)
(-0.0770468 0.00513979 0)
(-0.0801508 0.00520329 0)
(-0.0833207 0.00525756 0)
(-0.0865527 0.00530204 0)
(-0.0898426 0.0053362 0)
(-0.0931856 0.0053596 0)
(-0.0965764 0.00537186 0)
(-0.100009 0.00537271 0)
(-0.103476 0.00536196 0)
(-0.106971 0.00533952 0)
(-0.110485 0.00530541 0)
(-0.11401 0.00525977 0)
(-0.117535 0.00520274 0)
(-0.121049 0.00513459 0)
(-0.12454 0.00505587 0)
(-0.127997 0.00496716 0)
(-0.131404 0.00486922 0)
(-0.134748 0.00476302 0)
(-0.138015 0.00464965 0)
(-0.141187 0.00453002 0)
(-0.144251 0.00440478 0)
(-0.147191 0.00427451 0)
(-0.149989 0.00414011 0)
(-0.152633 0.00400263 0)
(-0.155109 0.00386226 0)
(-0.157404 0.00371786 0)
(-0.159505 0.00356551 0)
(-0.161391 0.00339814 0)
(-0.163037 0.00320428 0)
(-0.164403 0.00296601 0)
(-0.165444 0.00265763 0)
(-0.166107 0.00224733 0)
(-0.166336 0.00170236 0)
(-0.166073 0.000998275 0)
(-0.165253 0.000130909 0)
(-0.163842 -0.000876773 0)
(-0.000116096 0.000673922 0)
(-0.000427585 0.000793378 0)
(-0.000745815 0.000804847 0)
(-0.00106846 0.000811846 0)
(-0.00139396 0.000820893 0)
(-0.0017236 0.00083231 0)
(-0.00205837 0.000846143 0)
(-0.00239927 0.00086243 0)
(-0.0027473 0.000881208 0)
(-0.00310349 0.000902518 0)
(-0.00346889 0.000926406 0)
(-0.00384457 0.000952921 0)
(-0.00423161 0.000982116 0)
(-0.00463113 0.00101405 0)
(-0.00504427 0.00104878 0)
(-0.0054722 0.00108637 0)
(-0.00591611 0.00112688 0)
(-0.00637723 0.0011704 0)
(-0.00685683 0.00121699 0)
(-0.00735621 0.00126672 0)
(-0.00787669 0.00131968 0)
(-0.00841966 0.00137595 0)
(-0.00898653 0.0014356 0)
(-0.00957874 0.00149872 0)
(-0.0101978 0.00156538 0)
(-0.0108452 0.00163568 0)
(-0.0115226 0.00170968 0)
(-0.0122315 0.00178746 0)
(-0.0129737 0.0018691 0)
(-0.0137509 0.00195466 0)
(-0.0145647 0.0020442 0)
(-0.0154169 0.00213779 0)
(-0.0163095 0.00223547 0)
(-0.0172442 0.00233728 0)
(-0.018223 0.00244324 0)
(-0.0192477 0.00255338 0)
(-0.0203203 0.0026677 0)
(-0.0214429 0.00278618 0)
(-0.0226173 0.00290879 0)
(-0.0238457 0.00303547 0)
(-0.0251299 0.00316614 0)
(-0.0264721 0.00330072 0)
(-0.0278742 0.00343905 0)
(-0.0293382 0.00358098 0)
(-0.0308661 0.00372631 0)
(-0.0324598 0.00387482 0)
(-0.0341211 0.00402622 0)
(-0.0358519 0.00418022 0)
(-0.0376537 0.00433645 0)
(-0.0395283 0.00449452 0)
(-0.0414772 0.00465398 0)
(-0.0435016 0.00481434 0)
(-0.0456027 0.00497505 0)
(-0.0477817 0.00513553 0)
(-0.0500393 0.00529514 0)
(-0.0523761 0.00545319 0)
(-0.0547925 0.00560895 0)
(-0.0572885 0.00576165 0)
(-0.0598641 0.00591047 0)
(-0.0625187 0.00605456 0)
(-0.0652514 0.00619306 0)
(-0.0680611 0.00632507 0)
(-0.0709462 0.00644967 0)
(-0.0739047 0.00656596 0)
(-0.0769342 0.00667302 0)
(-0.0800318 0.00676998 0)
(-0.0831941 0.00685595 0)
(-0.0864174 0.00693012 0)
(-0.0896971 0.00699168 0)
(-0.0930284 0.0070399 0)
(-0.0964058 0.00707411 0)
(-0.0998232 0.00709371 0)
(-0.103274 0.00709817 0)
(-0.10675 0.00708703 0)
(-0.110244 0.00705993 0)
(-0.113747 0.00701658 0)
(-0.117249 0.00695676 0)
(-0.120741 0.00688031 0)
(-0.12421 0.00678733 0)
(-0.127646 0.00667801 0)
(-0.131036 0.00655283 0)
(-0.134367 0.00641255 0)
(-0.137628 0.00625811 0)
(-0.140803 0.00609026 0)
(-0.14388 0.00590951 0)
(-0.146844 0.00571637 0)
(-0.14968 0.00551194 0)
(-0.152374 0.00529765 0)
(-0.154913 0.00507395 0)
(-0.15728 0.00483886 0)
(-0.159459 0.00458649 0)
(-0.161427 0.00430646 0)
(-0.163154 0.00398299 0)
(-0.164602 0.00359354 0)
(-0.165725 0.00310846 0)
(-0.166472 0.00249344 0)
(-0.16679 0.00171562 0)
(-0.166616 0.000752974 0)
(-0.165873 -0.000395616 0)
(-0.164517 -0.00170535 0)
(-0.00011574 0.000808413 0)
(-0.00042599 0.000951368 0)
(-0.000742852 0.000965057 0)
(-0.00106421 0.000973461 0)
(-0.00138839 0.000984335 0)
(-0.00171673 0.000998066 0)
(-0.00205016 0.00101471 0)
(-0.00238971 0.00103431 0)
(-0.00273637 0.0010569 0)
(-0.00309117 0.00108255 0)
(-0.00345515 0.00111131 0)
(-0.00382938 0.00114323 0)
(-0.00421494 0.00117838 0)
(-0.00461295 0.00121682 0)
(-0.00502455 0.00125865 0)
(-0.00545089 0.00130392 0)
(-0.00589317 0.00135273 0)
(-0.00635263 0.00140516 0)
(-0.00683053 0.00146131 0)
(-0.00732816 0.00152126 0)
(-0.00784685 0.00158511 0)
(-0.00838798 0.00165296 0)
(-0.00895295 0.00172492 0)
(-0.00954323 0.00180107 0)
(-0.0101603 0.00188154 0)
(-0.0108057 0.00196641 0)
(-0.011481 0.00205578 0)
(-0.0121878 0.00214976 0)
(-0.0129279 0.00224844 0)
(-0.0137028 0.0023519 0)
(-0.0145144 0.00246023 0)
(-0.0153644 0.00257351 0)
(-0.0162546 0.0026918 0)
(-0.017187 0.00281516 0)
(-0.0181634 0.00294363 0)
(-0.0191857 0.00307725 0)
(-0.020256 0.00321603 0)
(-0.0213762 0.00335997 0)
(-0.0225482 0.00350904 0)
(-0.0237742 0.00366319 0)
(-0.0250561 0.00382234 0)
(-0.026396 0.0039864 0)
(-0.0277959 0.00415521 0)
(-0.0292577 0.00432861 0)
(-0.0307835 0.00450638 0)
(-0.0323752 0.00468827 0)
(-0.0340346 0.00487397 0)
(-0.0357636 0.00506314 0)
(-0.0375638 0.00525536 0)
(-0.0394369 0.0054502 0)
(-0.0413844 0.00564714 0)
(-0.0434076 0.00584561 0)
(-0.0455078 0.00604499 0)
(-0.047686 0.00624459 0)
(-0.049943 0.00644367 0)
(-0.0522794 0.00664143 0)
(-0.0546956 0.00683701 0)
(-0.0571916 0.00702949 0)
(-0.0597673 0.0072179 0)
(-0.062422 0.00740123 0)
(-0.065155 0.00757844 0)
(-0.067965 0.00774843 0)
(-0.0708503 0.0079101 0)
(-0.0738088 0.00806232 0)
(-0.0768381 0.00820395 0)
(-0.0799352 0.00833388 0)
(-0.0830965 0.00845098 0)
(-0.0863181 0.00855416 0)
(-0.0895955 0.00864237 0)
(-0.0929236 0.00871459 0)
(-0.0962968 0.00876985 0)
(-0.0997089 0.00880726 0)
(-0.103153 0.00882598 0)
(-0.106622 0.00882525 0)
(-0.110107 0.00880436 0)
(-0.113601 0.00876274 0)
(-0.117093 0.00869982 0)
(-0.120574 0.0086152 0)
(-0.124034 0.00850864 0)
(-0.127463 0.00838009 0)
(-0.130848 0.00822982 0)
(-0.134178 0.00805848 0)
(-0.137442 0.00786684 0)
(-0.140627 0.00765541 0)
(-0.143721 0.00742432 0)
(-0.146709 0.0071737 0)
(-0.149576 0.00690438 0)
(-0.152308 0.00661771 0)
(-0.154888 0.00631391 0)
(-0.1573 0.00598997 0)
(-0.159527 0.00563811 0)
(-0.161546 0.00524528 0)
(-0.163329 0.00479246 0)
(-0.16484 0.00425361 0)
(-0.166037 0.00359538 0)
(-0.166871 0.00277982 0)
(-0.167287 0.00177169 0)
(-0.167213 0.00054915 0)
(-0.166564 -0.000886943 0)
(-0.165285 -0.00251012 0)
(-0.000115263 0.00094237 0)
(-0.000424035 0.00110863 0)
(-0.00073932 0.00112455 0)
(-0.00105913 0.00113436 0)
(-0.00138176 0.00114706 0)
(-0.00170852 0.0011631 0)
(-0.00204037 0.00118254 0)
(-0.0023783 0.00120544 0)
(-0.00272332 0.00123184 0)
(-0.00307646 0.00126181 0)
(-0.00343874 0.00129542 0)
(-0.00381124 0.00133273 0)
(-0.00419504 0.00137381 0)
(-0.00459124 0.00141876 0)
(-0.00500099 0.00146766 0)
(-0.00542544 0.0015206 0)
(-0.00586579 0.00157768 0)
(-0.00632326 0.001639 0)
(-0.00679912 0.00170468 0)
(-0.00729465 0.00177482 0)
(-0.0078112 0.00184954 0)
(-0.00835013 0.00192895 0)
(-0.00891285 0.00201318 0)
(-0.00950082 0.00210236 0)
(-0.0101155 0.00219659 0)
(-0.0107585 0.00229601 0)
(-0.0114313 0.00240074 0)
(-0.0121356 0.0025109 0)
(-0.0128731 0.00262659 0)
(-0.0136454 0.00274794 0)
(-0.0144543 0.00287503 0)
(-0.0153015 0.00300798 0)
(-0.016189 0.00314687 0)
(-0.0171186 0.00329176 0)
(-0.0180922 0.00344274 0)
(-0.0191117 0.00359983 0)
(-0.0201792 0.00376307 0)
(-0.0212965 0.00393247 0)
(-0.0224657 0.00410801 0)
(-0.0236889 0.00428965 0)
(-0.0249681 0.00447731 0)
(-0.0263053 0.00467088 0)
(-0.0277026 0.00487021 0)
(-0.0291619 0.00507513 0)
(-0.0306853 0.0052854 0)
(-0.0322747 0.00550073 0)
(-0.0339321 0.0057208 0)
(-0.0356591 0.00594522 0)
(-0.0374577 0.00617355 0)
(-0.0393293 0.00640526 0)
(-0.0412756 0.0066398 0)
(-0.043298 0.00687652 0)
(-0.0453977 0.0071147 0)
(-0.0475757 0.00735358 0)
(-0.0498328 0.0075923 0)
(-0.0521699 0.00782994 0)
(-0.0545871 0.0080655 0)
(-0.0570846 0.00829793 0)
(-0.0596622 0.0085261 0)
(-0.0623194 0.00874884 0)
(-0.0650553 0.00896491 0)
(-0.0678687 0.00917304 0)
(-0.0707579 0.0093719 0)
(-0.0737208 0.00956015 0)
(-0.0767549 0.00973643 0)
(-0.0798571 0.00989937 0)
(-0.0830239 0.0100476 0)
(-0.0862514 0.0101797 0)
(-0.0895348 0.0102945 0)
(-0.0928691 0.0103906 0)
(-0.0962486 0.0104667 0)
(-0.099667 0.0105217 0)
(-0.103117 0.0105544 0)
(-0.106592 0.0105638 0)
(-0.110084 0.010549 0)
(-0.113583 0.010509 0)
(-0.117082 0.010443 0)
(-0.120569 0.0103504 0)
(-0.124036 0.0102307 0)
(-0.127472 0.0100837 0)
(-0.130866 0.00990945 0)
(-0.134206 0.00970845 0)
(-0.137482 0.00948128 0)
(-0.140681 0.00922809 0)
(-0.14379 0.00894847 0)
(-0.146795 0.00864201 0)
(-0.14968 0.00830919 0)
(-0.152431 0.00795123 0)
(-0.155033 0.00756825 0)
(-0.157469 0.00715665 0)
(-0.159723 0.00670736 0)
(-0.161776 0.00620524 0)
(-0.163603 0.00562845 0)
(-0.165172 0.00494731 0)
(-0.166445 0.00412397 0)
(-0.167373 0.00311536 0)
(-0.167898 0.00188189 0)
(-0.167939 0.000399873 0)
(-0.167399 -0.00132913 0)
(-0.16621 -0.00327575 0)
(-0.000114682 0.00107567 0)
(-0.00042174 0.00126507 0)
(-0.000735233 0.00128321 0)
(-0.00105325 0.00129442 0)
(-0.00137408 0.00130894 0)
(-0.00169902 0.00132728 0)
(-0.00202903 0.00134951 0)
(-0.0023651 0.00137569 0)
(-0.00270823 0.00140589 0)
(-0.00305944 0.00144017 0)
(-0.00341976 0.00147861 0)
(-0.00379025 0.00152129 0)
(-0.004172 0.00156829 0)
(-0.00456611 0.00161972 0)
(-0.00497371 0.00167566 0)
(-0.00539597 0.00173624 0)
(-0.00583407 0.00180157 0)
(-0.00628924 0.00187176 0)
(-0.00676273 0.00194694 0)
(-0.00725584 0.00202724 0)
(-0.0077699 0.00211279 0)
(-0.00830628 0.00220374 0)
(-0.00886638 0.00230022 0)
(-0.00945166 0.00240238 0)
(-0.0100636 0.00251035 0)
(-0.0107038 0.0026243 0)
(-0.0113737 0.00274435 0)
(-0.0120751 0.00287065 0)
(-0.0128095 0.00300333 0)
(-0.0135787 0.00314253 0)
(-0.0143845 0.00328838 0)
(-0.0152286 0.00344097 0)
(-0.0161129 0.00360044 0)
(-0.0170392 0.00376686 0)
(-0.0180095 0.00394032 0)
(-0.0190257 0.00412088 0)
(-0.0200898 0.00430858 0)
(-0.0212038 0.00450345 0)
(-0.0223698 0.00470547 0)
(-0.0235897 0.00491461 0)
(-0.0248656 0.0051308 0)
(-0.0261996 0.00535392 0)
(-0.0275938 0.00558382 0)
(-0.0290502 0.00582032 0)
(-0.0305707 0.00606315 0)
(-0.0321575 0.00631201 0)
(-0.0338123 0.00656655 0)
(-0.0355371 0.00682634 0)
(-0.0373336 0.00709088 0)
(-0.0392035 0.00735962 0)
(-0.0411484 0.00763192 0)
(-0.0431697 0.00790706 0)
(-0.0452687 0.00818425 0)
(-0.0474465 0.00846261 0)
(-0.0497039 0.00874119 0)
(-0.0520416 0.00901895 0)
(-0.0544601 0.00929476 0)
(-0.0569595 0.00956742 0)
(-0.0595397 0.00983565 0)
(-0.0622 0.0100981 0)
(-0.0649398 0.0103534 0)
(-0.0677577 0.0105999 0)
(-0.0706521 0.0108363 0)
(-0.073621 0.0110609 0)
(-0.0766618 0.0112722 0)
(-0.0797715 0.0114684 0)
(-0.0829466 0.0116481 0)
(-0.086183 0.0118095 0)
(-0.0894762 0.0119511 0)
(-0.0928209 0.0120713 0)
(-0.0962114 0.0121685 0)
(-0.0996415 0.0122413 0)
(-0.103104 0.0122882 0)
(-0.106592 0.012308 0)
(-0.110097 0.0122993 0)
(-0.11361 0.0122611 0)
(-0.117122 0.0121922 0)
(-0.120625 0.0120918 0)
(-0.124106 0.0119592 0)
(-0.127557 0.0117939 0)
(-0.130966 0.0115958 0)
(-0.134322 0.0113654 0)
(-0.137613 0.0111028 0)
(-0.140826 0.0108079 0)
(-0.14395 0.0104797 0)
(-0.146968 0.0101174 0)
(-0.149868 0.00972113 0)
(-0.152633 0.00929229 0)
(-0.15525 0.00883112 0)
(-0.157706 0.00833379 0)
(-0.159985 0.00779032 0)
(-0.162073 0.00718392 0)
(-0.163947 0.00649019 0)
(-0.165582 0.0056756 0)
(-0.166941 0.00469685 0)
(-0.167977 0.003504 0)
(-0.168628 0.00205065 0)
(-0.168802 0.000309252 0)
(-0.168388 -0.00171824 0)
(-0.167307 -0.0039995 0)
(-0.000114007 0.00120822 0)
(-0.000419118 0.00142056 0)
(-0.000730594 0.00144091 0)
(-0.00104658 0.00145353 0)
(-0.00136537 0.00146986 0)
(-0.00168825 0.00149048 0)
(-0.00201618 0.00151549 0)
(-0.00235013 0.00154494 0)
(-0.0026911 0.00157892 0)
(-0.00304012 0.00161749 0)
(-0.00339821 0.00166074 0)
(-0.00376643 0.00170876 0)
(-0.00414585 0.00176166 0)
(-0.00453759 0.00181954 0)
(-0.00494276 0.00188251 0)
(-0.00536252 0.0019507 0)
(-0.00579807 0.00202424 0)
(-0.00625061 0.00210327 0)
(-0.00672142 0.00218792 0)
(-0.00721177 0.00227834 0)
(-0.007723 0.0023747 0)
(-0.00825646 0.00247715 0)
(-0.00881358 0.00258584 0)
(-0.0093958 0.00270094 0)
(-0.0100046 0.00282263 0)
(-0.0106416 0.00295106 0)
(-0.0113082 0.0030864 0)
(-0.0120062 0.00322881 0)
(-0.0127372 0.00337845 0)
(-0.0135029 0.00353548 0)
(-0.0143051 0.00370003 0)
(-0.0151456 0.00387225 0)
(-0.0160262 0.00405227 0)
(-0.0169488 0.00424019 0)
(-0.0179153 0.00443612 0)
(-0.0189277 0.00464014 0)
(-0.019988 0.0048523 0)
(-0.0210981 0.00507264 0)
(-0.0222603 0.00530115 0)
(-0.0234764 0.00553782 0)
(-0.0247486 0.00578256 0)
(-0.0260789 0.00603527 0)
(-0.0274695 0.00629579 0)
(-0.0289224 0.00656392 0)
(-0.0304396 0.00683939 0)
(-0.0320232 0.00712187 0)
(-0.033675 0.00741099 0)
(-0.0353971 0.00770626 0)
(-0.0371911 0.00800717 0)
(-0.0390589 0.00831309 0)
(-0.0410021 0.00862332 0)
(-0.043022 0.00893709 0)
(-0.04512 0.0092535 0)
(-0.0472973 0.00957159 0)
(-0.0495548 0.0098903 0)
(-0.0518932 0.0102085 0)
(-0.054313 0.0105248 0)
(-0.0568143 0.010838 0)
(-0.059397 0.0111467 0)
(-0.0620607 0.0114492 0)
(-0.0648046 0.011744 0)
(-0.0676275 0.0120294 0)
(-0.0705277 0.0123037 0)
(-0.0735033 0.0125651 0)
(-0.0765516 0.0128118 0)
(-0.0796698 0.0130418 0)
(-0.0828542 0.0132533 0)
(-0.0861009 0.0134444 0)
(-0.0894052 0.0136133 0)
(-0.092762 0.013758 0)
(-0.0961655 0.0138767 0)
(-0.0996094 0.0139677 0)
(-0.103087 0.0140292 0)
(-0.10659 0.0140596 0)
(-0.110111 0.0140574 0)
(-0.113641 0.0140212 0)
(-0.117171 0.0139497 0)
(-0.120691 0.0138416 0)
(-0.124191 0.0136962 0)
(-0.12766 0.0135126 0)
(-0.131087 0.0132908 0)
(-0.134461 0.0130306 0)
(-0.13777 0.0127323 0)
(-0.141 0.0123953 0)
(-0.14414 0.0120182 0)
(-0.147174 0.0115997 0)
(-0.150089 0.0111402 0)
(-0.152871 0.0106411 0)
(-0.155507 0.0101033 0)
(-0.157986 0.00952285 0)
(-0.160295 0.00888936 0)
(-0.162423 0.00818474 0)
(-0.164352 0.0073823 0)
(-0.166061 0.00644453 0)
(-0.167519 0.0053218 0)
(-0.168679 0.00395533 0)
(-0.169475 0.00228906 0)
(-0.169803 0.000288926 0)
(-0.169536 -0.00204321 0)
(-0.168582 -0.00467103 0)
(-0.000113241 0.00133989 0)
(-0.000416175 0.00157499 0)
(-0.00072541 0.00159755 0)
(-0.00103913 0.00161156 0)
(-0.00135564 0.00162969 0)
(-0.00167622 0.00165259 0)
(-0.00200181 0.00168036 0)
(-0.00233339 0.00171307 0)
(-0.00267197 0.0017508 0)
(-0.00301853 0.00179364 0)
(-0.00337413 0.00184168 0)
(-0.0037398 0.00189502 0)
(-0.00411662 0.00195379 0)
(-0.0045057 0.00201809 0)
(-0.00490814 0.00208805 0)
(-0.00532512 0.00216382 0)
(-0.0057578 0.00224554 0)
(-0.00620742 0.00233337 0)
(-0.00667521 0.00242745 0)
(-0.00716247 0.00252797 0)
(-0.00767052 0.00263509 0)
(-0.00820073 0.00274899 0)
(-0.0087545 0.00286985 0)
(-0.00933328 0.00299786 0)
(-0.00993857 0.00313321 0)
(-0.0105719 0.00327609 0)
(-0.0112349 0.00342668 0)
(-0.0119291 0.00358516 0)
(-0.0126562 0.00375172 0)
(-0.013418 0.00392653 0)
(-0.0142161 0.00410977 0)
(-0.0150525 0.00430158 0)
(-0.0159289 0.00450212 0)
(-0.0168473 0.00471153 0)
(-0.0178096 0.00492991 0)
(-0.0188177 0.00515737 0)
(-0.0198736 0.00539398 0)
(-0.0209794 0.00563978 0)
(-0.0221372 0.0058948 0)
(-0.023349 0.006159 0)
(-0.0246169 0.00643233 0)
(-0.0259431 0.00671466 0)
(-0.0273295 0.00700586 0)
(-0.0287784 0.00730569 0)
(-0.0302918 0.00761388 0)
(-0.0318717 0.00793008 0)
(-0.0335201 0.00825388 0)
(-0.035239 0.00858478 0)
(-0.0370302 0.00892221 0)
(-0.0388955 0.00926548 0)
(-0.0408364 0.00961385 0)
(-0.0428546 0.00996645 0)
(-0.0449515 0.0103223 0)
(-0.0471281 0.0106804 0)
(-0.0493854 0.0110395 0)
(-0.0517243 0.0113984 0)
(-0.0541453 0.0117557 0)
(-0.0566485 0.0121098 0)
(-0.059234 0.0124592 0)
(-0.0619012 0.0128022 0)
(-0.0646495 0.013137 0)
(-0.0674777 0.0134617 0)
(-0.0703841 0.0137744 0)
(-0.0733669 0.014073 0)
(-0.0764234 0.0143555 0)
(-0.0795508 0.0146198 0)
(-0.0827454 0.0148636 0)
(-0.0860033 0.0150849 0)
(-0.0893199 0.0152815 0)
(-0.09269 0.0154512 0)
(-0.0961077 0.0155919 0)
(-0.0995668 0.0157015 0)
(-0.10306 0.0157781 0)
(-0.106581 0.0158196 0)
(-0.110119 0.0158243 0)
(-0.113668 0.0157905 0)
(-0.117218 0.0157165 0)
(-0.120758 0.0156011 0)
(-0.124278 0.0154429 0)
(-0.127768 0.0152412 0)
(-0.131216 0.0149954 0)
(-0.134611 0.0147055 0)
(-0.137939 0.0143712 0)
(-0.14119 0.0139919 0)
(-0.144349 0.0135656 0)
(-0.147403 0.0130909 0)
(-0.150338 0.0125683 0)
(-0.153141 0.0119999 0)
(-0.1558 0.011387 0)
(-0.158305 0.0107263 0)
(-0.160649 0.0100071 0)
(-0.162821 0.00921078 0)
(-0.164812 0.00830864 0)
(-0.166604 0.00725924 0)
(-0.168172 0.00600568 0)
(-0.169474 0.00447807 0)
(-0.170436 0.00260709 0)
(-0.170943 0.000349221 0)
(-0.170847 -0.00229377 0)
(-0.170043 -0.00527984 0)
(-0.000112389 0.0014706 0)
(-0.000412917 0.00172825 0)
(-0.000719682 0.001753 0)
(-0.0010309 0.00176839 0)
(-0.00134489 0.00178831 0)
(-0.00166292 0.00181347 0)
(-0.00198594 0.00184399 0)
(-0.00231491 0.00187993 0)
(-0.00265082 0.0019214 0)
(-0.00299469 0.00196848 0)
(-0.00334752 0.00202129 0)
(-0.00371038 0.00207993 0)
(-0.00408433 0.00214453 0)
(-0.00447046 0.00221522 0)
(-0.00486989 0.00229214 0)
(-0.00528378 0.00237546 0)
(-0.0057133 0.00246532 0)
(-0.00615967 0.0025619 0)
(-0.00662413 0.00266538 0)