/*--------------------------------*- C++ -*----------------------------------*\
| =========                 |                                                 |
| \\      /  F ield         | OpenFOAM: The Open Source CFD Toolbox           |
|  \\    /   O peration     | Version:  2.4.0                                 |
|   \\  /    A nd           | Web:      www.OpenFOAM.org                      |
|    \\/     M anipulation  |                                                 |
\*---------------------------------------------------------------------------*/
FoamFile
{
    version     2.0;
    format      ascii;
    class       surfaceScalarField;
    location    "0.174";
    object      phiAlpha;
}
// * * * * * * * * * * * * * * * * * * * * * * * * * * * * * * * * * * * * * //

dimensions      [0 3 -1 0 0 0 0];

internalField   nonuniform List<scalar> 
119500
(
-7.0967e-11
7.0967e-11
-1.43469e-10
7.25039e-11
-2.16778e-10
7.33112e-11
-2.91011e-10
7.42351e-11
-3.66453e-10
7.54437e-11
-4.43406e-10
7.6955e-11
-5.22189e-10
7.87841e-11
-6.03124e-10
8.09352e-11
-6.86533e-10
8.34097e-11
-7.72762e-10
8.62281e-11
-8.62158e-10
8.93957e-11
-9.55077e-10
9.29192e-11
-1.05189e-09
9.6816e-11
-1.153e-09
1.01104e-10
-1.25879e-09
1.05795e-10
-1.3697e-09
1.10907e-10
-1.48616e-09
1.16457e-10
-1.60863e-09
1.22467e-10
-1.73759e-09
1.28961e-10
-1.87355e-09
1.35963e-10
-2.01705e-09
1.43501e-10
-2.16865e-09
1.51602e-10
-2.32896e-09
1.60301e-10
-2.49858e-09
1.69629e-10
-2.67821e-09
1.79624e-10
-2.86853e-09
1.90326e-10
-3.07031e-09
2.01776e-10
-3.28433e-09
2.1402e-10
-3.51144e-09
2.27106e-10
-3.75252e-09
2.41085e-10
-4.00854e-09
2.56012e-10
-4.28048e-09
2.71946e-10
-4.56943e-09
2.88948e-10
-4.87652e-09
3.07085e-10
-5.20294e-09
3.26428e-10
-5.54999e-09
3.47049e-10
-5.91902e-09
3.69031e-10
-6.31147e-09
3.92455e-10
-6.72889e-09
4.17413e-10
-7.17288e-09
4.43999e-10
-7.6452e-09
4.72316e-10
-8.14767e-09
5.0247e-10
-8.68225e-09
5.34578e-10
-9.25101e-09
5.68758e-10
-9.85615e-09
6.05141e-10
-1.05e-08
6.43865e-10
-1.11851e-08
6.85069e-10
-1.1914e-08
7.28909e-10
-1.26895e-08
7.75549e-10
-1.35147e-08
8.25158e-10
-1.43926e-08
8.77917e-10
-1.53266e-08
9.3402e-10
-1.63203e-08
9.93664e-10
-1.73774e-08
1.05707e-09
-1.85018e-08
1.12445e-09
-1.96979e-08
1.19604e-09
-2.097e-08
1.2721e-09
-2.23228e-08
1.35287e-09
-2.37615e-08
1.43863e-09
-2.52911e-08
1.52966e-09
-2.69174e-08
1.62626e-09
-2.86461e-08
1.72871e-09
-3.04834e-08
1.83733e-09
-3.24359e-08
1.95244e-09
-3.45102e-08
2.07436e-09
-3.67137e-08
2.20343e-09
-3.90536e-08
2.33996e-09
-4.15379e-08
2.48429e-09
-4.41746e-08
2.63674e-09
-4.69722e-08
2.7976e-09
-4.99394e-08
2.96718e-09
-5.30851e-08
3.14572e-09
-5.64186e-08
3.33346e-09
-5.99492e-08
3.53057e-09
-6.36863e-08
3.73716e-09
-6.76396e-08
3.95327e-09
-7.18184e-08
4.17882e-09
-7.62321e-08
4.41366e-09
-8.08895e-08
4.65743e-09
-8.57991e-08
4.90964e-09
-9.09687e-08
5.16958e-09
-9.6405e-08
5.43629e-09
-1.02114e-07
5.70851e-09
-1.08098e-07
5.98465e-09
-1.14361e-07
6.26275e-09
-1.20901e-07
6.54038e-09
-1.27716e-07
6.8146e-09
-1.34798e-07
7.08193e-09
-1.42136e-07
7.33826e-09
-1.49715e-07
7.57878e-09
-1.57513e-07
7.79796e-09
-1.65502e-07
7.98951e-09
-1.73649e-07
8.14633e-09
-1.81909e-07
8.2605e-09
-1.90233e-07
8.32336e-09
-1.98558e-07
8.32548e-09
-2.06815e-07
8.25693e-09
-2.14922e-07
8.10747e-09
-2.22787e-07
7.86409e-09
7.50918e-09
-2.30296e-07
-7.62138e-11
1.47183e-10
-1.54815e-10
1.51109e-10
-2.34107e-10
1.52606e-10
-3.1439e-10
1.54522e-10
-3.9596e-10
1.57016e-10
-4.79146e-10
1.60143e-10
-5.64283e-10
1.63923e-10
-6.51717e-10
1.68369e-10
-7.41803e-10
1.73496e-10
-8.34903e-10
1.79327e-10
-9.31389e-10
1.85882e-10
-1.03165e-09
1.93183e-10
-1.1361e-09
2.01258e-10
-1.24513e-09
2.10142e-10
-1.3592e-09
2.19864e-10
-1.47876e-09
2.30461e-10
-1.60427e-09
2.41972e-10
-1.73625e-09
2.54443e-10
-1.87521e-09
2.6792e-10
-2.0217e-09
2.82455e-10
-2.17631e-09
2.98104e-10
-2.33963e-09
3.14927e-10
-2.51232e-09
3.3299e-10
-2.69506e-09
3.52363e-10
-2.88856e-09
3.73122e-10
-3.09358e-09
3.9535e-10
-3.31094e-09
4.19133e-10
-3.54148e-09
4.44564e-10
-3.78612e-09
4.71745e-10
-4.04582e-09
5.00781e-10
-4.3216e-09
5.31787e-10
-4.61453e-09
5.64882e-10
-4.92578e-09
6.00197e-10
-5.25656e-09
6.37869e-10
-5.60818e-09
6.78044e-10
-5.982e-09
7.20874e-10
-6.37949e-09
7.66529e-10
-6.80222e-09
8.15182e-10
-7.25183e-09
8.67023e-10
-7.73008e-09
9.22248e-10
-8.23884e-09
9.81071e-10
-8.78008e-09
1.04371e-09
-9.35593e-09
1.11042e-09
-9.96861e-09
1.18144e-09
-1.06205e-08
1.25703e-09
-1.13141e-08
1.3375e-09
-1.20522e-08
1.42313e-09
-1.28375e-08
1.51425e-09
-1.36732e-08
1.61119e-09
-1.45623e-08
1.71432e-09
-1.55084e-08
1.82402e-09
-1.65151e-08
1.94067e-09
-1.75861e-08
2.06471e-09
-1.87257e-08
2.19658e-09
-1.9938e-08
2.33674e-09
-2.12276e-08
2.4857e-09
-2.25995e-08
2.64398e-09
-2.40587e-08
2.8121e-09
-2.56107e-08
2.99065e-09
-2.72613e-08
3.18021e-09
-2.90164e-08
3.3814e-09
-3.08826e-08
3.59486e-09
-3.28665e-08
3.82124e-09
-3.49753e-08
4.06122e-09
-3.72164e-08
4.3155e-09
-3.95978e-08
4.58477e-09
-4.21276e-08
4.86974e-09
-4.48144e-08
5.17111e-09
-4.76672e-08
5.48958e-09
-5.06954e-08
5.8258e-09
-5.39087e-08
6.18042e-09
-5.73169e-08
6.55401e-09
-6.09306e-08
6.94707e-09
-6.476e-08
7.36002e-09
-6.8816e-08
7.79314e-09
-7.31093e-08
8.24654e-09
-7.76506e-08
8.72015e-09
-8.24506e-08
9.21363e-09
-8.75195e-08
9.72635e-09
-9.28671e-08
1.02573e-08
-9.85026e-08
1.08051e-08
-1.04434e-07
1.13677e-08
-1.10668e-07
1.19425e-08
-1.1721e-07
1.25263e-08
-1.24062e-07
1.31149e-08
-1.31225e-07
1.37032e-08
-1.38695e-07
1.42849e-08
-1.46466e-07
1.48528e-08
-1.54525e-07
1.53978e-08
-1.62856e-07
1.59098e-08
-1.71435e-07
1.63768e-08
-1.80231e-07
1.67851e-08
-1.89204e-07
1.71194e-08
-1.98306e-07
1.73623e-08
-2.07477e-07
1.74949e-08
-2.16648e-07
1.74966e-08
-2.25737e-07
1.73455e-08
-2.34648e-07
1.70184e-08
-2.43271e-07
1.64877e-08
1.57248e-08
-2.51487e-07
-7.64415e-11
2.23626e-10
-1.55351e-10
2.30021e-10
-2.34996e-10
2.32255e-10
-3.15634e-10
2.35162e-10
-3.97558e-10
2.38943e-10
-4.8109e-10
2.43676e-10
-5.66562e-10
2.49396e-10
-6.5432e-10
2.56127e-10
-7.44717e-10
2.63892e-10
-8.38115e-10
2.72724e-10
-9.34887e-10
2.82654e-10
-1.03542e-09
2.93719e-10
-1.14013e-09
3.0596e-10
-1.24941e-09
3.19425e-10
-1.36371e-09
3.34164e-10
-1.48348e-09
3.50232e-10
-1.6092e-09
3.67692e-10
-1.74137e-09
3.86609e-10
-1.88051e-09
4.07056e-10
-2.02716e-09
4.29112e-10
-2.18192e-09
4.52861e-10
-2.34539e-09
4.78395e-10
-2.51822e-09
5.05814e-10
-2.70108e-09
5.35222e-10
-2.89469e-09
5.66737e-10
-3.09982e-09
6.00482e-10
-3.31728e-09
6.36588e-10
-3.54792e-09
6.752e-10
-3.79264e-09
7.16468e-10
-4.05241e-09
7.60554e-10
-4.32826e-09
8.07631e-10
-4.62126e-09
8.57881e-10
-4.93256e-09
9.11501e-10
-5.26339e-09
9.68699e-10
-5.61504e-09
1.0297e-09
-5.98889e-09
1.09473e-09
-6.3864e-09
1.16404e-09
-6.80913e-09
1.23791e-09
-7.25873e-09
1.31662e-09
-7.73695e-09
1.40047e-09
-8.24566e-09
1.48978e-09
-8.78684e-09
1.58489e-09
-9.3626e-09
1.68617e-09
-9.97516e-09
1.794e-09
-1.06269e-08
1.90878e-09
-1.13204e-08
2.03095e-09
-1.20582e-08
2.16097e-09
-1.28433e-08
2.29932e-09
-1.36786e-08
2.44653e-09
-1.45674e-08
2.60312e-09
-1.55131e-08
2.76968e-09
-1.65192e-08
2.94681e-09
-1.75897e-08
3.13515e-09
-1.87285e-08
3.33539e-09
-1.994e-08
3.54823e-09
-2.12287e-08
3.77443e-09
-2.25995e-08
4.01478e-09
-2.40575e-08
4.27009e-09
-2.56081e-08
4.54124e-09
-2.7257e-08
4.82913e-09
-2.90103e-08
5.13468e-09
-3.08743e-08
5.45888e-09
-3.28558e-08
5.80273e-09
-3.49618e-08
6.16725e-09
-3.71999e-08
6.55352e-09
-3.95777e-08
6.96258e-09
-4.21034e-08
7.39553e-09
-4.47858e-08
7.85343e-09
-4.76335e-08
8.33735e-09
-5.0656e-08
8.84831e-09
-5.38629e-08
9.38728e-09
-5.72641e-08
9.95517e-09
-6.08697e-08
1.05527e-08
-6.46904e-08
1.11807e-08
-6.87366e-08
1.18393e-08
-7.3019e-08
1.2529e-08
-7.75485e-08
1.32496e-08
-8.23354e-08
1.40006e-08
-8.73901e-08
1.4781e-08
-9.27223e-08
1.55895e-08
-9.83411e-08
1.64239e-08
-1.04255e-07
1.72812e-08
-1.1047e-07
1.81575e-08
-1.16991e-07
1.90479e-08
-1.23822e-07
1.99461e-08
-1.30964e-07
2.08444e-08
-1.38412e-07
2.17334e-08
-1.46161e-07
2.26019e-08
-1.542e-07
2.34364e-08
-1.62511e-07
2.42213e-08
-1.71073e-07
2.49385e-08
-1.79855e-07
2.55671e-08
-1.88819e-07
2.60836e-08
-1.97919e-07
2.64617e-08
-2.07096e-07
2.66723e-08
-2.16283e-07
2.66838e-08
-2.254e-07
2.64627e-08
-2.34355e-07
2.59729e-08
-2.4304e-07
2.51731e-08
2.40211e-08
-2.51337e-07
-7.63762e-11
3.00004e-10
-1.55139e-10
3.08787e-10
-2.34714e-10
3.11832e-10
-3.15274e-10
3.15724e-10
-3.97116e-10
3.20788e-10
-4.8056e-10
3.27121e-10
-5.65938e-10
3.34774e-10
-6.5359e-10
3.4378e-10
-7.4387e-10
3.54172e-10
-8.37138e-10
3.65991e-10
-9.33767e-10
3.79283e-10
-1.03414e-09
3.94095e-10
-1.13867e-09
4.10485e-10
-1.24776e-09
4.28514e-10
-1.36185e-09
4.48251e-10
-1.48139e-09
4.69771e-10
-1.60685e-09
4.93156e-10
-1.73874e-09
5.18496e-10
-1.87757e-09
5.45887e-10
-2.02389e-09
5.75436e-10
-2.17829e-09
6.07255e-10
-2.34136e-09
6.41467e-10
-2.51375e-09
6.78207e-10
-2.69615e-09
7.17615e-10
-2.88926e-09
7.59848e-10
-3.09385e-09
8.05071e-10
-3.31072e-09
8.53461e-10
-3.54073e-09
9.05209e-10
-3.78478e-09
9.60519e-10
-4.04383e-09
1.01961e-09
-4.31891e-09
1.0827e-09
-4.61108e-09
1.15005e-09
-4.9215e-09
1.22192e-09
-5.25138e-09
1.29858e-09
-5.60202e-09
1.38034e-09
-5.97479e-09
1.4675e-09
-6.37116e-09
1.56041e-09
-6.79266e-09
1.65942e-09
-7.24096e-09
1.76492e-09
-7.7178e-09
1.87731e-09
-8.22503e-09
1.99702e-09
-8.76465e-09
2.1245e-09
-9.33873e-09
2.26026e-09
-9.94952e-09
2.40479e-09
-1.05994e-08
2.55864e-09
-1.12908e-08
2.72241e-09
-1.20265e-08
2.89669e-09
-1.28094e-08
3.08214e-09
-1.36423e-08
3.27946e-09
-1.45285e-08
3.48936e-09
-1.54715e-08
3.71263e-09
-1.64747e-08
3.95007e-09
-1.75421e-08
4.20254e-09
-1.86777e-08
4.47097e-09
-1.98858e-08
4.75629e-09
-2.11709e-08
5.05952e-09
-2.25378e-08
5.38173e-09
-2.39917e-08
5.724e-09
-2.5538e-08
6.08751e-09
-2.71824e-08
6.47347e-09
-2.89308e-08
6.88313e-09
-3.07897e-08
7.3178e-09
-3.27658e-08
7.77882e-09
-3.48662e-08
8.2676e-09
-3.70982e-08
8.78554e-09
-3.94697e-08
9.33409e-09
-4.19889e-08
9.9147e-09
-4.46642e-08
1.05288e-08
-4.75048e-08
1.11779e-08
-5.05197e-08
1.18632e-08
-5.37187e-08
1.25863e-08
-5.71117e-08
1.33482e-08
-6.07089e-08
1.415e-08
-6.45209e-08
1.49926e-08
-6.85582e-08
1.58767e-08
-7.28317e-08
1.68025e-08
-7.7352e-08
1.77699e-08
-8.21299e-08
1.87785e-08
-8.71757e-08
1.98268e-08
-9.24993e-08
2.09131e-08
-9.811e-08
2.20345e-08
-1.04016e-07
2.31872e-08
-1.10224e-07
2.43659e-08
-1.1674e-07
2.55641e-08
-1.23568e-07
2.67734e-08
-1.30707e-07
2.79837e-08
-1.38156e-07
2.91824e-08
-1.45909e-07
3.03544e-08
-1.53954e-07
3.14819e-08
-1.62277e-07
3.2544e-08
-1.70855e-07
3.35163e-08
-1.79658e-07
3.43709e-08
-1.88651e-07
3.50762e-08
-1.97786e-07
3.55969e-08
-2.07008e-07
3.58937e-08
-2.16248e-07
3.59243e-08
-2.25428e-07
3.56429e-08
-2.34456e-07
3.50011e-08
-2.43226e-07
3.39429e-08
3.24118e-08
-2.51617e-07
-7.61225e-11
3.76128e-10
-1.5463e-10
3.87297e-10
-2.33948e-10
3.91153e-10
-3.14252e-10
3.96031e-10
-3.95836e-10
4.02373e-10
-4.79015e-10
4.10303e-10
-5.64121e-10
4.19881e-10
-6.51493e-10
4.31152e-10
-7.41481e-10
4.4416e-10
-8.34445e-10
4.58955e-10
-9.30757e-10
4.75594e-10
-1.0308e-09
4.94138e-10
-1.13498e-09
5.1466e-10
-1.2437e-09
5.37235e-10
-1.3574e-09
5.6195e-10
-1.47652e-09
5.88899e-10
-1.60155e-09
6.18186e-10
-1.73298e-09
6.49921e-10
-1.87132e-09
6.84228e-10
-2.01712e-09
7.21238e-10
-2.17096e-09
7.61093e-10
-2.33344e-09
8.03948e-10
-2.50521e-09
8.4997e-10
-2.68693e-09
8.99337e-10
-2.87933e-09
9.52243e-10
-3.08315e-09
1.0089e-09
-3.29921e-09
1.06952e-09
-3.52836e-09
1.13435e-09
-3.77148e-09
1.20365e-09
-4.02955e-09
1.27767e-09
-4.30358e-09
1.35672e-09
-4.59463e-09
1.44111e-09
-4.90386e-09
1.53115e-09
-5.23247e-09
1.6272e-09
-5.58176e-09
1.72963e-09
-5.9531e-09
1.83884e-09
-6.34793e-09
1.95524e-09
-6.76781e-09
2.0793e-09
-7.21438e-09
2.21148e-09
-7.68937e-09
2.3523e-09
-8.19465e-09
2.50229e-09
-8.73218e-09
2.66203e-09
-9.30405e-09
2.83213e-09
-9.91248e-09
3.01322e-09
-1.05598e-08
3.206e-09
-1.12486e-08
3.4112e-09
-1.19815e-08
3.62958e-09
-1.27613e-08
3.86196e-09
-1.35911e-08
4.1092e-09
-1.44739e-08
4.37222e-09
-1.54133e-08
4.65199e-09
-1.64128e-08
4.94952e-09
-1.74761e-08
5.2659e-09
-1.86074e-08
5.60227e-09
-1.98109e-08
5.95982e-09
-2.10912e-08
6.33982e-09
-2.24531e-08
6.7436e-09
-2.39017e-08
7.17255e-09
-2.54423e-08
7.62812e-09
-2.70806e-08
8.11183e-09
-2.88228e-08
8.62527e-09
-3.06751e-08
9.17007e-09
-3.26442e-08
9.74793e-09
-3.47372e-08
1.03606e-08
-3.69615e-08
1.10099e-08
-3.93249e-08
1.16975e-08
-4.18357e-08
1.24254e-08
-4.45023e-08
1.31954e-08
-4.73337e-08
1.40093e-08
-5.03391e-08
1.48687e-08
-5.35284e-08
1.57755e-08
-5.69114e-08
1.67311e-08
-6.04984e-08
1.7737e-08
-6.42999e-08
1.87942e-08
-6.83268e-08
1.99035e-08
-7.25899e-08
2.10655e-08
-7.70999e-08
2.228e-08
-8.18679e-08
2.35464e-08
-8.69042e-08
2.48632e-08
-9.2219e-08
2.6228e-08
-9.78219e-08
2.76374e-08
-1.03721e-07
2.90867e-08
-1.09925e-07
3.05694e-08
-1.16439e-07
3.20775e-08
-1.23266e-07
3.36006e-08
-1.30408e-07
3.5126e-08
-1.37864e-07
3.66381e-08
-1.45628e-07
3.81182e-08
-1.5369e-07
3.9544e-08
-1.62035e-07
4.08893e-08
-1.70642e-07
4.21236e-08
-1.79484e-07
4.32122e-08
-1.88523e-07
4.41152e-08
-1.97714e-07
4.47882e-08
-2.07002e-07
4.51819e-08
-2.16321e-07
4.52428e-08
-2.25591e-07
4.49131e-08
-2.34721e-07
4.41315e-08
-2.43606e-07
4.28272e-08
4.09282e-08
-2.52122e-07
-7.57575e-11
4.51887e-10
-1.53899e-10
4.6544e-10
-2.32847e-10
4.70103e-10
-3.12775e-10
4.75961e-10
-3.93978e-10
4.83578e-10
-4.7677e-10
4.93096e-10
-5.6148e-10
5.04591e-10
-6.48446e-10
5.18118e-10
-7.38015e-10
5.33729e-10
-8.30547e-10
5.51486e-10
-9.26409e-10
5.71456e-10
-1.02599e-09
5.93715e-10
-1.12968e-09
6.18348e-10
-1.23789e-09
6.45448e-10
-1.35106e-09
6.75117e-10
-1.46963e-09
7.07469e-10
-1.59407e-09
7.42629e-10
-1.72488e-09
7.80729e-10
-1.86257e-09
8.21918e-10
-2.00768e-09
8.66353e-10
-2.1608e-09
9.14205e-10
-2.32251e-09
9.6566e-10
-2.49346e-09
1.02092e-09
-2.67431e-09
1.08019e-09
-2.86579e-09
1.14372e-09
-3.06865e-09
1.21175e-09
-3.28367e-09
1.28455e-09
-3.51172e-09
1.3624e-09
-3.75368e-09
1.44561e-09
-4.01051e-09
1.5345e-09
-4.28322e-09
1.62943e-09
-4.57287e-09
1.73076e-09
-4.88061e-09
1.83889e-09
-5.20764e-09
1.95423e-09
-5.55525e-09
2.07724e-09
-5.92479e-09
2.20838e-09
-6.31772e-09
2.34817e-09
-6.73558e-09
2.49715e-09
-7.17999e-09
2.65589e-09
-7.6527e-09
2.825e-09
-8.15554e-09
3.00513e-09
-8.69048e-09
3.19697e-09
-9.2596e-09
3.40124e-09
-9.86511e-09
3.61873e-09
-1.05094e-08
3.85025e-09
-1.11949e-08
4.09669e-09
-1.19242e-08
4.35896e-09
-1.27003e-08
4.63805e-09
-1.35261e-08
4.93499e-09
-1.44048e-08
5.25088e-09
-1.53397e-08
5.58689e-09
-1.63344e-08
5.94425e-09
-1.73927e-08
6.32424e-09
-1.85187e-08
6.72825e-09
-1.97166e-08
7.15771e-09
-2.09909e-08
7.61415e-09
-2.23465e-08
8.09916e-09
-2.37884e-08
8.61442e-09
-2.53219e-08
9.16167e-09
-2.69528e-08
9.74274e-09
-2.86871e-08
1.03595e-08
-3.05311e-08
1.1014e-08
-3.24915e-08
1.17083e-08
-3.45753e-08
1.24444e-08
-3.679e-08
1.32246e-08
-3.91433e-08
1.40509e-08
-4.16435e-08
1.49256e-08
-4.42991e-08
1.5851e-08
-4.71191e-08
1.68292e-08
-5.01127e-08
1.78624e-08
-5.32898e-08
1.89525e-08
-5.66602e-08
2.01016e-08
-6.02343e-08
2.13111e-08
-6.40229e-08
2.25827e-08
-6.80366e-08
2.39173e-08
-7.22865e-08
2.53154e-08
-7.67837e-08
2.67772e-08
-8.1539e-08
2.83017e-08
-8.65634e-08
2.98875e-08
-9.18671e-08
3.15317e-08
-9.74601e-08
3.32304e-08
-1.03351e-07
3.49779e-08
-1.09549e-07
3.67668e-08
-1.16058e-07
3.85873e-08
-1.22885e-07
4.04274e-08
-1.30031e-07
4.22718e-08
-1.37495e-07
4.4102e-08
-1.45273e-07
4.58957e-08
-1.53355e-07
4.76263e-08
-1.61728e-07
4.92625e-08
-1.70372e-07
5.07677e-08
-1.7926e-07
5.21001e-08
-1.88357e-07
5.32119e-08
-1.97618e-07
5.40495e-08
-2.0699e-07
5.45535e-08
-2.16406e-07
5.4659e-08
-2.25789e-07
5.42962e-08
-2.35048e-07
5.33902e-08
-2.44076e-07
5.18552e-08
4.96032e-08
-2.52751e-07
-7.53031e-11
5.27192e-10
-1.52984e-10
5.43124e-10
-2.31468e-10
5.48589e-10
-3.10925e-10
5.5542e-10
-3.9165e-10
5.64305e-10
-4.73955e-10
5.75402e-10
-5.58168e-10
5.88804e-10
-6.44624e-10
6.04574e-10
-7.33668e-10
6.22774e-10
-8.25658e-10
6.43475e-10
-9.2096e-10
6.66758e-10
-1.01996e-09
6.92711e-10
-1.12304e-09
7.21432e-10
-1.23062e-09
7.5303e-10
-1.34313e-09
7.87625e-10
-1.46101e-09
8.25349e-10
-1.58473e-09
8.66348e-10
-1.71478e-09
9.10777e-10
-1.85167e-09
9.58807e-10
-1.99594e-09
1.01062e-09
-2.14816e-09
1.06643e-09
-2.30893e-09
1.12643e-09
-2.47888e-09
1.19087e-09
-2.65869e-09
1.26e-09
-2.84905e-09
1.33409e-09
-3.05072e-09
1.41342e-09
-3.2645e-09
1.49832e-09
-3.49122e-09
1.58911e-09
-3.73177e-09
1.68616e-09
-3.9871e-09
1.78983e-09
-4.25821e-09
1.90055e-09
-4.54618e-09
2.01873e-09
-4.85212e-09
2.14483e-09
-5.17725e-09
2.27936e-09
-5.52283e-09
2.42282e-09
-5.89022e-09
2.57577e-09
-6.28086e-09
2.73882e-09
-6.69628e-09
2.91258e-09
-7.13811e-09
3.09772e-09
-7.60807e-09
3.29496e-09
-8.10799e-09
3.50506e-09
-8.63983e-09
3.72881e-09
-9.20565e-09
3.96706e-09
-9.80765e-09
4.22073e-09
-1.04482e-08
4.49078e-09
-1.11297e-08
4.77822e-09
-1.18549e-08
5.08414e-09
-1.26265e-08
5.40967e-09
-1.34476e-08
5.75603e-09
-1.43212e-08
6.12451e-09
-1.52508e-08
6.51645e-09
-1.62398e-08
6.9333e-09
-1.72921e-08
7.37657e-09
-1.84118e-08
7.84786e-09
-1.96029e-08
8.34886e-09
-2.08701e-08
8.88133e-09
-2.22181e-08
9.44716e-09
-2.36519e-08
1.00483e-08
-2.5177e-08
1.06867e-08
-2.6799e-08
1.13647e-08
-2.85238e-08
1.20844e-08
-3.03579e-08
1.28481e-08
-3.23078e-08
1.36582e-08
-3.43806e-08
1.45172e-08
-3.65837e-08
1.54277e-08
-3.8925e-08
1.63921e-08
-4.14125e-08
1.74132e-08
-4.40549e-08
1.84934e-08
-4.68611e-08
1.96354e-08
-4.98405e-08
2.08418e-08
-5.30028e-08
2.21148e-08
-5.6358e-08
2.34568e-08
-5.99167e-08
2.48698e-08
-6.36895e-08
2.63555e-08
-6.76873e-08
2.79151e-08
-7.19214e-08
2.95495e-08
-7.64028e-08
3.12586e-08
-8.11429e-08
3.30418e-08
-8.61527e-08
3.48973e-08
-9.14429e-08
3.68219e-08
-9.70237e-08
3.88113e-08
-1.02905e-07
4.08589e-08
-1.09094e-07
4.29563e-08
-1.15599e-07
4.50924e-08
-1.22425e-07
4.72532e-08
-1.29574e-07
4.94212e-08
-1.37048e-07
5.15752e-08
-1.44841e-07
5.36892e-08
-1.52947e-07
5.57325e-08
-1.61353e-07
5.76686e-08
-1.70041e-07
5.94552e-08
-1.78984e-07
6.10433e-08
-1.88149e-07
6.23773e-08
-1.97494e-07
6.33944e-08
-2.06966e-07
6.40249e-08
-2.16499e-07
6.41925e-08
-2.26018e-07
6.38147e-08
-2.35431e-07
6.28033e-08
-2.44632e-07
6.10564e-08
5.84697e-08
-2.53498e-07
-7.47669e-11
6.0196e-10
-1.51904e-10
6.20262e-10
-2.29838e-10
6.26524e-10
-3.08738e-10
6.34322e-10
-3.88899e-10
6.44466e-10
-4.70629e-10
6.57133e-10
-5.54253e-10
6.72428e-10
-6.40105e-10
6.90426e-10
-7.28528e-10
7.11197e-10
-8.19877e-10
7.34823e-10
-9.14516e-10
7.61397e-10
-1.01282e-09
7.91018e-10
-1.11519e-09
8.238e-10
-1.22203e-09
8.59866e-10
-1.33376e-09
8.99354e-10
-1.45082e-09
9.42415e-10
-1.57369e-09
9.89214e-10
-1.70284e-09
1.03993e-09
-1.83879e-09
1.09475e-09
-1.98207e-09
1.1539e-09
-2.13324e-09
1.2176e-09
-2.29291e-09
1.2861e-09
-2.4617e-09
1.35966e-09
-2.64027e-09
1.43857e-09
-2.82932e-09
1.52314e-09
-3.02961e-09
1.61371e-09
-3.24191e-09
1.71063e-09
-3.46707e-09
1.81427e-09
-3.70597e-09
1.92506e-09
-3.95955e-09
2.04341e-09
-4.2288e-09
2.1698e-09
-4.51479e-09
2.30471e-09
-4.81863e-09
2.44868e-09
-5.14153e-09
2.60225e-09
-5.48474e-09
2.76603e-09
-5.84961e-09
2.94065e-09
-6.23758e-09
3.12679e-09
-6.65016e-09
3.32516e-09
-7.08897e-09
3.53653e-09
-7.55572e-09
3.76171e-09
-8.05223e-09
4.00157e-09
-8.58044e-09
4.25702e-09
-9.14241e-09
4.52903e-09
-9.74033e-09
4.81865e-09
-1.03765e-08
5.12696e-09
-1.10534e-08
5.45514e-09
-1.17737e-08
5.80441e-09
-1.25401e-08
6.17609e-09
-1.33556e-08
6.57155e-09
-1.42234e-08
6.99227e-09
-1.51467e-08
7.43979e-09
-1.61292e-08
7.91576e-09
-1.71745e-08
8.4219e-09
-1.82867e-08
8.96005e-09
-1.947e-08
9.53213e-09
-2.07288e-08
1.01402e-08
-2.2068e-08
1.07863e-08
-2.34925e-08
1.14728e-08
-2.50077e-08
1.2202e-08
-2.66193e-08
1.29762e-08
-2.83331e-08
1.37982e-08
-3.01555e-08
1.46705e-08
-3.20932e-08
1.55959e-08
-3.41531e-08
1.65772e-08
-3.63428e-08
1.76173e-08
-3.86699e-08
1.87192e-08
-4.11426e-08
1.98859e-08
-4.37695e-08
2.11204e-08
-4.65597e-08
2.24256e-08
-4.95224e-08
2.38045e-08
-5.26674e-08
2.52599e-08
-5.6005e-08
2.67944e-08
-5.95455e-08
2.84103e-08
-6.32998e-08
3.01098e-08
-6.7279e-08
3.18943e-08
-7.14943e-08
3.37648e-08
-7.59573e-08
3.57216e-08
-8.06794e-08
3.77639e-08
-8.56719e-08
3.98898e-08
-9.09459e-08
4.2096e-08
-9.65122e-08
4.43776e-08
-1.02381e-07
4.67274e-08
-1.08561e-07
4.91361e-08
-1.1506e-07
5.15913e-08
-1.21884e-07
5.40772e-08
-1.29037e-07
5.65743e-08
-1.3652e-07
5.90585e-08
-1.44331e-07
6.15005e-08
-1.52464e-07
6.38655e-08
-1.60908e-07
6.61122e-08
-1.69645e-07
6.81924e-08
-1.78652e-07
7.00503e-08
-1.87897e-07
7.16221e-08
-1.97339e-07
7.28361e-08
-2.06926e-07
7.36121e-08
-2.16596e-07
7.38622e-08
-2.26272e-07
7.34913e-08
-2.35866e-07
7.23968e-08
-2.4527e-07
7.04606e-08
6.75611e-08
-2.54361e-07
-7.41524e-11
6.76113e-10
-1.50664e-10
6.96775e-10
-2.27967e-10
7.03828e-10
-3.06231e-10
7.12587e-10
-3.85744e-10
7.2398e-10
-4.66815e-10
7.38204e-10
-5.49764e-10
7.55378e-10
-6.34924e-10
7.75585e-10
-7.22634e-10
7.98907e-10
-8.13248e-10
8.25436e-10
-9.07126e-10
8.55275e-10
-1.00464e-09
8.88537e-10
-1.10619e-09
9.25348e-10
-1.21218e-09
9.65849e-10
-1.32301e-09
1.01019e-09
-1.43915e-09
1.05855e-09
-1.56104e-09
1.1111e-09
-1.68916e-09
1.16806e-09
-1.82403e-09
1.22962e-09
-1.96617e-09
1.29604e-09
-2.11615e-09
1.36758e-09
-2.27455e-09
1.4445e-09
-2.442e-09
1.5271e-09
-2.61916e-09
1.61572e-09
-2.80671e-09
1.7107e-09
-3.00542e-09
1.81241e-09
-3.21604e-09
1.92125e-09
-3.43942e-09
2.03765e-09
-3.67643e-09
2.16207e-09
-3.928e-09
2.29498e-09
-4.19512e-09
2.43692e-09
-4.47885e-09
2.58844e-09
-4.78029e-09
2.75012e-09
-5.10063e-09
2.92259e-09
-5.44113e-09
3.10653e-09
-5.80313e-09
3.30264e-09
-6.18804e-09
3.5117e-09
-6.59738e-09
3.73449e-09
-7.03273e-09
3.97188e-09
-7.49582e-09
4.22479e-09
-7.98843e-09
4.49419e-09
-8.51251e-09
4.78109e-09
-9.07008e-09
5.08661e-09
-9.66332e-09
5.41189e-09
-1.02945e-08
5.75818e-09
-1.09662e-08
6.12678e-09
-1.16809e-08
6.51909e-09
-1.24413e-08
6.93656e-09
-1.32505e-08
7.38076e-09
-1.41116e-08
7.85333e-09
-1.50278e-08
8.35601e-09
-1.60027e-08
8.89066e-09
-1.704e-08
9.45922e-09
-1.81438e-08
1.00638e-08
-1.9318e-08
1.07064e-08
-2.05674e-08
1.13895e-08
-2.18964e-08
1.21154e-08
-2.33103e-08
1.28866e-08
-2.48142e-08
1.37059e-08
-2.64138e-08
1.45759e-08
-2.81151e-08
1.54994e-08
-2.99242e-08
1.64797e-08
-3.18479e-08
1.75196e-08
-3.38932e-08
1.86225e-08
-3.60674e-08
1.97915e-08
-3.83783e-08
2.10301e-08
-4.08341e-08
2.23417e-08
-4.34433e-08
2.37296e-08
-4.6215e-08
2.51973e-08
-4.91586e-08
2.67481e-08
-5.22839e-08
2.83851e-08
-5.56011e-08
3.01115e-08
-5.91207e-08
3.193e-08
-6.28538e-08
3.38429e-08
-6.68115e-08
3.5852e-08
-7.10053e-08
3.79587e-08
-7.5447e-08
4.01632e-08
-8.01481e-08
4.2465e-08
-8.51206e-08
4.48622e-08
-9.03759e-08
4.73513e-08
-9.59251e-08
4.99269e-08
-1.01779e-07
5.25814e-08
-1.07947e-07
5.53045e-08
-1.14439e-07
5.80826e-08
-1.2126e-07
6.08986e-08
-1.28417e-07
6.37308e-08
-1.35911e-07
6.65524e-08
-1.43741e-07
6.93312e-08
-1.51904e-07
7.20284e-08
-1.6039e-07
7.45977e-08
-1.69183e-07
7.69854e-08
-1.78261e-07
7.91289e-08
-1.87596e-07
8.09566e-08
-1.97147e-07
8.23875e-08
-2.06866e-07
8.3331e-08
-2.16691e-07
8.36874e-08
-2.26548e-07
8.33484e-08
-2.36348e-07
8.21968e-08
-2.45985e-07
8.00976e-08
7.69109e-08
-2.55335e-07
-7.34613e-11
7.49575e-10
-1.49269e-10
7.72583e-10
-2.25862e-10
7.80422e-10
-3.03411e-10
7.90137e-10
-3.82197e-10
8.02767e-10
-4.62526e-10
8.18534e-10
-5.44716e-10
8.37568e-10
-6.29097e-10
8.59966e-10
-7.16006e-10
8.85817e-10
-8.05792e-10
9.15223e-10
-8.98815e-10
9.48298e-10
-9.95447e-10
9.85169e-10
-1.09607e-09
1.02597e-09
-1.2011e-09
1.07087e-09
-1.31093e-09
1.12003e-09
-1.42602e-09
1.17363e-09
-1.54681e-09
1.23189e-09
-1.67378e-09
1.29503e-09
-1.80743e-09
1.36328e-09
-1.9483e-09
1.43691e-09
-2.09693e-09
1.51621e-09
-2.25391e-09
1.60148e-09
-2.41985e-09
1.69305e-09
-2.59542e-09
1.79129e-09
-2.7813e-09
1.89658e-09
-2.97822e-09
2.00933e-09
-3.18695e-09
2.12999e-09
-3.40833e-09
2.25903e-09
-3.64321e-09
2.39695e-09
-3.89253e-09
2.5443e-09
-4.15726e-09
2.70165e-09
-4.43844e-09
2.86962e-09
-4.73719e-09
3.04886e-09
-5.05466e-09
3.24007e-09
-5.39212e-09
3.44399e-09
-5.75089e-09
3.66141e-09
-6.13236e-09
3.89317e-09
-6.53804e-09
4.14017e-09
-6.96952e-09
4.40336e-09
-7.42848e-09
4.68375e-09
-7.91672e-09
4.98242e-09
-8.43614e-09
5.30051e-09
-8.98877e-09
5.63924e-09
-9.57677e-09
5.99988e-09
-1.02024e-08
6.38382e-09
-1.08681e-08
6.79251e-09
-1.15765e-08
7.22747e-09
-1.23303e-08
7.69035e-09
-1.31324e-08
8.18287e-09
-1.39859e-08
8.70685e-09
-1.48942e-08
9.26425e-09
-1.58606e-08
9.85709e-09
-1.68889e-08
1.04876e-08
-1.79831e-08
1.11579e-08
-1.91473e-08
1.18706e-08
-2.03859e-08
1.26281e-08
-2.17036e-08
1.34331e-08
-2.31055e-08
1.42885e-08
-2.45967e-08
1.51971e-08
-2.6183e-08
1.61621e-08
-2.787e-08
1.71865e-08
-2.96643e-08
1.82739e-08
-3.15722e-08
1.94276e-08
-3.36009e-08
2.06512e-08
-3.57578e-08
2.19483e-08
-3.80504e-08
2.33228e-08
-4.04871e-08
2.47784e-08
-4.30764e-08
2.63189e-08
-4.58274e-08
2.79482e-08
-4.87494e-08
2.96701e-08
-5.18524e-08
3.14881e-08
-5.51465e-08
3.34057e-08
-5.86426e-08
3.5426e-08
-6.23516e-08
3.75519e-08
-6.62849e-08
3.97854e-08
-7.04543e-08
4.21281e-08
-7.48717e-08
4.45806e-08
-7.9549e-08
4.71424e-08
-8.44986e-08
4.98117e-08
-8.97323e-08
5.2585e-08
-9.52619e-08
5.54565e-08
-1.01099e-07
5.84182e-08
-1.07253e-07
6.14591e-08
-1.13735e-07
6.45646e-08
-1.20553e-07
6.77161e-08
-1.27712e-07
7.089e-08
-1.35217e-07
7.40573e-08
-1.43068e-07
7.71826e-08
-1.51263e-07
8.02233e-08
-1.59794e-07
8.31289e-08
-1.68649e-07
8.58397e-08
-1.77807e-07
8.82868e-08
-1.8724e-07
9.03906e-08
-1.96914e-07
9.20609e-08
-2.0678e-07
9.31968e-08
-2.16779e-07
9.36864e-08
-2.26838e-07
9.3408e-08
-2.36871e-07
9.22294e-08
-2.46771e-07
8.99975e-08
8.65533e-08
-2.56413e-07
-7.26949e-11
8.2227e-10
-1.47721e-10
8.47609e-10
-2.23528e-10
8.56228e-10
-3.00284e-10
8.66893e-10
-3.78263e-10
8.80746e-10
-4.57769e-10
8.9804e-10
-5.39118e-10
9.18917e-10
-6.22635e-10
9.43483e-10
-7.08655e-10
9.71837e-10
-7.97524e-10
1.00409e-09
-8.89598e-10
1.04037e-09
-9.85245e-10
1.08082e-09
-1.08485e-09
1.12558e-09
-1.18881e-09
1.17483e-09
-1.29753e-09
1.22875e-09
-1.41145e-09
1.28756e-09
-1.53102e-09
1.35147e-09
-1.65672e-09
1.42072e-09
-1.78903e-09
1.49559e-09
-1.92848e-09
1.57636e-09
-2.07561e-09
1.66334e-09
-2.23102e-09
1.75688e-09
-2.39529e-09
1.85733e-09
-2.5691e-09
1.96509e-09
-2.75311e-09
2.08059e-09
-2.94805e-09
2.20427e-09
-3.15469e-09
2.33663e-09
-3.37385e-09
2.47818e-09
-3.60637e-09
2.62948e-09
-3.85319e-09
2.79112e-09
-4.11527e-09
2.96373e-09
-4.39363e-09
3.14799e-09
-4.68938e-09
3.34461e-09
-5.00368e-09
3.55437e-09
-5.33777e-09
3.77807e-09
-5.69294e-09
4.01658e-09
-6.07061e-09
4.27083e-09
-6.47224e-09
4.5418e-09
-6.89942e-09
4.83053e-09
-7.35381e-09
5.13814e-09
-7.83719e-09
5.4658e-09
-8.35146e-09
5.81478e-09
-8.89861e-09
6.18639e-09
-9.48078e-09
6.58205e-09
-1.01002e-08
7.00328e-09
-1.07594e-08
7.45166e-09
-1.14608e-08
7.92888e-09
-1.22072e-08
8.43673e-09
-1.30014e-08
8.97711e-09
-1.38466e-08
9.55203e-09
-1.4746e-08
1.01636e-08
-1.5703e-08
1.08141e-08
-1.67213e-08
1.15059e-08
-1.78049e-08
1.22415e-08
-1.89579e-08
1.30236e-08
-2.01846e-08
1.38548e-08
-2.14898e-08
1.47383e-08
-2.28783e-08
1.5677e-08
-2.43555e-08
1.66743e-08
-2.59268e-08
1.77334e-08
-2.75982e-08
1.88579e-08
-2.93759e-08
2.00515e-08
-3.12664e-08
2.13181e-08
-3.32767e-08
2.26615e-08
-3.54141e-08
2.40858e-08
-3.76865e-08
2.55952e-08
-4.0102e-08
2.71938e-08
-4.26691e-08
2.8886e-08
-4.53969e-08
3.06761e-08
-4.82949e-08
3.25681e-08
-5.1373e-08
3.45662e-08
-5.46415e-08
3.66742e-08
-5.81112e-08
3.88958e-08
-6.17933e-08
4.1234e-08
-6.56994e-08
4.36914e-08
-6.98413e-08
4.627e-08
-7.42314e-08
4.89706e-08
-7.88819e-08
5.1793e-08
-8.38055e-08
5.47353e-08
-8.90147e-08
5.77941e-08
-9.45218e-08
6.09636e-08
-1.00339e-07
6.42354e-08
-1.06478e-07
6.75977e-08
-1.12948e-07
7.10353e-08
-1.1976e-07
7.45281e-08
-1.26921e-07
7.8051e-08
-1.34437e-07
8.15728e-08
-1.42309e-07
8.50553e-08
-1.50538e-07
8.84523e-08
-1.59118e-07
9.17089e-08
-1.68039e-07
9.47603e-08
-1.77283e-07
9.75308e-08
-1.86826e-07
9.99332e-08
-1.96633e-07
1.01868e-07
-2.06661e-07
1.03224e-07
-2.16852e-07
1.03878e-07
-2.27136e-07
1.03692e-07
-2.37427e-07
1.0252e-07
-2.4762e-07
1.0019e-07
9.65226e-08
-2.57589e-07
-7.18539e-11
8.94124e-10
-1.46024e-10
9.21779e-10
-2.20967e-10
9.31171e-10
-2.96854e-10
9.42779e-10
-3.73948e-10
9.57841e-10
-4.52552e-10
9.76643e-10
-5.32977e-10
9.99342e-10
-6.15546e-10
1.02605e-09
-7.0059e-10
1.05688e-09
-7.88453e-10
1.09195e-09
-8.79486e-10
1.13141e-09
-9.74054e-10
1.17538e-09
-1.07254e-09
1.22406e-09
-1.17532e-09
1.27762e-09
-1.28283e-09
1.33626e-09
-1.39548e-09
1.4002e-09
-1.51371e-09
1.4697e-09
-1.638e-09
1.54501e-09
-1.76884e-09
1.62642e-09
-1.90673e-09
1.71425e-09
-2.05223e-09
1.80884e-09
-2.2059e-09
1.91055e-09
-2.36835e-09
2.01978e-09
-2.54022e-09
2.13696e-09
-2.72219e-09
2.26255e-09
-2.91496e-09
2.39705e-09
-3.1193e-09
2.54097e-09
-3.33602e-09
2.6949e-09
-3.56596e-09
2.85942e-09
-3.81004e-09
3.03519e-09
-4.0692e-09
3.22289e-09
-4.34447e-09
3.42326e-09
-4.63694e-09
3.63708e-09
-4.94775e-09
3.86518e-09
-5.27813e-09
4.10845e-09
-5.62937e-09
4.36783e-09
-6.00286e-09
4.64432e-09
-6.40005e-09
4.93899e-09
-6.82251e-09
5.25299e-09
-7.27189e-09
5.58752e-09
-7.74994e-09
5.94386e-09
-8.25854e-09
6.32338e-09
-8.79968e-09
6.72752e-09
-9.37546e-09
7.15783e-09
-9.98812e-09
7.61595e-09
-1.06401e-08
8.1036e-09
-1.13338e-08
8.62262e-09
-1.20721e-08
9.17498e-09
-1.28577e-08
9.76272e-09
-1.36937e-08
1.0388e-08
-1.45833e-08
1.10533e-08
-1.553e-08
1.17608e-08
-1.65374e-08
1.25133e-08
-1.76094e-08
1.33135e-08
-1.87501e-08
1.41642e-08
-1.99637e-08
1.50685e-08
-2.12551e-08
1.60297e-08
-2.2629e-08
1.7051e-08
-2.40907e-08
1.8136e-08
-2.56457e-08
1.92884e-08
-2.72998e-08
2.0512e-08
-2.90592e-08
2.1811e-08
-3.09305e-08
2.31894e-08
-3.29206e-08
2.46516e-08
-3.50368e-08
2.6202e-08
-3.72868e-08
2.78452e-08
-3.96789e-08
2.95859e-08
-4.22216e-08
3.14287e-08
-4.49239e-08
3.33784e-08
-4.77954e-08
3.54396e-08
-5.0846e-08
3.76168e-08
-5.40861e-08
3.99143e-08
-5.75267e-08
4.23363e-08
-6.1179e-08
4.48863e-08
-6.50548e-08
4.75672e-08