/*--------------------------------*- C++ -*----------------------------------*\
| =========                 |                                                 |
| \\      /  F ield         | OpenFOAM: The Open Source CFD Toolbox           |
|  \\    /   O peration     | Version:  2.4.0                                 |
|   \\  /    A nd           | Web:      www.OpenFOAM.org                      |
|    \\/     M anipulation  |                                                 |
\*---------------------------------------------------------------------------*/
FoamFile
{
    version     2.0;
    format      ascii;
    class       volScalarField;
    location    "0.48";
    object      alpha.water;
}
// * * * * * * * * * * * * * * * * * * * * * * * * * * * * * * * * * * * * * //

dimensions      [0 0 0 0 0 0 0];

internalField   nonuniform List<scalar> 
10000
(
2.81773e-47
4.74542e-44
7.17357e-41
3.13706e-38
5.71432e-36
4.95133e-34
2.17255e-32
5.15438e-31
7.04998e-30
5.95715e-29
3.39297e-28
1.58731e-27
6.67681e-27
2.61628e-26
1.03813e-25
4.13855e-25
1.69838e-24
7.0199e-24
2.74094e-23
9.79569e-23
3.17106e-22
9.32912e-22
2.50209e-21
6.09724e-21
1.33988e-20
2.62306e-20
4.56849e-20
7.31634e-20
1.04895e-19
1.26071e-19
1.18065e-19
8.77216e-20
5.17142e-20
2.52842e-20
1.07766e-20
4.26948e-21
1.65475e-21
6.15051e-22
2.15313e-22
7.18576e-23
2.3268e-23
6.83637e-24
1.76744e-24
4.28261e-25
1.09306e-25
2.4805e-26
5.42948e-27
2.99644e-27
6.30216e-27
1.76381e-26
5.54029e-43
1.59273e-39
9.16519e-37
1.96599e-34
1.99471e-32
1.0738e-30
3.27243e-29
5.94077e-28
6.75962e-27
5.11219e-26
2.84935e-25
1.34632e-24
5.33228e-24
1.94862e-23
7.05638e-23
2.5683e-22
9.59439e-22
3.5875e-21
1.27345e-20
4.14048e-20
1.22015e-19
3.28123e-19
8.10943e-19
1.83888e-18
3.79476e-18
7.04627e-18
1.16636e-17
1.78533e-17
2.49413e-17
3.0655e-17
3.10579e-17
2.62529e-17
1.84676e-17
1.09528e-17
5.64981e-18
2.62727e-18
1.14328e-18
4.66164e-19
1.79095e-19
6.57267e-20
2.27717e-20
7.19456e-21
2.03834e-21
5.48672e-22
1.44341e-22
3.42913e-23
8.23874e-24
5.35217e-24
1.23816e-23
3.77616e-23
1.0981e-39
1.81157e-36
7.01442e-34
1.09098e-31
8.41838e-30
3.59095e-28
9.05082e-27
1.41993e-25
1.45983e-24
1.05193e-23
5.88084e-23
2.66341e-22
9.92008e-22
3.37946e-21
1.123e-20
3.7505e-20
1.28537e-19
4.40276e-19
1.439e-18
4.30871e-18
1.16989e-17
2.90744e-17
6.6811e-17
1.42037e-16
2.77425e-16
4.92603e-16
7.88632e-16
1.15652e-15
1.59136e-15
1.98736e-15
2.13094e-15
1.95587e-15
1.54511e-15
1.05037e-15
6.23023e-16
3.30434e-16
1.61181e-16
7.28125e-17
3.07613e-17
1.23058e-17
4.59532e-18
1.56865e-18
4.87355e-19
1.43957e-19
4.01791e-20
1.02097e-20
2.73934e-21
2.12855e-21
5.43355e-21
1.74731e-20
3.27047e-37
4.18402e-34
1.31331e-31
1.70472e-29
1.12328e-27
4.17973e-26
9.40376e-25
1.35352e-23
1.32017e-22
9.34164e-22
5.14145e-21
2.22616e-20
7.87361e-20
2.51124e-19
7.70181e-19
2.3659e-18
7.44037e-18
2.34016e-17
7.06619e-17
1.96448e-16
4.95973e-16
1.14733e-15
2.46558e-15
4.94265e-15
9.18886e-15
1.56801e-14
2.43409e-14
3.4534e-14
4.67796e-14
5.87534e-14
6.55865e-14
6.39477e-14
5.48339e-14
4.12117e-14
2.73322e-14
1.62127e-14
8.75291e-15
4.34229e-15
2.00699e-15
8.70767e-16
3.50495e-16
1.29333e-16
4.39268e-17
1.40931e-17
4.21187e-18
1.15407e-18
3.45235e-19
3.07656e-19
8.33425e-19
2.70949e-18
3.07348e-35
3.47748e-32
9.77393e-30
1.14669e-27
6.88632e-26
2.35702e-24
4.94106e-23
6.74944e-22
6.39474e-21
4.4793e-20
2.42049e-19
1.01148e-18
3.43381e-18
1.03114e-17
2.93238e-17
8.25246e-17
2.36917e-16
6.84344e-16
1.9191e-15
4.98528e-15
1.17705e-14
2.55019e-14
5.15336e-14
9.78325e-14
1.73782e-13
2.85984e-13
4.31901e-13
5.98304e-13
7.91059e-13
9.91098e-13
1.13844e-12
1.16328e-12
1.06203e-12
8.62745e-13
6.24676e-13
4.06474e-13
2.40901e-13
1.31001e-13
6.59696e-14
3.09784e-14
1.34441e-14
5.35412e-15
1.97521e-15
6.84045e-16
2.19591e-16
6.5039e-17
2.11252e-17
1.94319e-17
5.2535e-17
1.66768e-16
1.29269e-33
1.3927e-30
3.72713e-28
4.15996e-26
2.37464e-24
7.73387e-23
1.55205e-21
2.05559e-20
1.91933e-19
1.334e-18
7.05401e-18
2.87022e-17
9.42306e-17
2.67662e-16
7.06362e-16
1.819e-15
4.76288e-15
1.26379e-14
3.29622e-14
8.02192e-14
1.78073e-13
3.63257e-13
6.93322e-13
1.25078e-12
2.12875e-12
3.38623e-12
4.98728e-12
6.78349e-12
8.71813e-12
1.08074e-11
1.26356e-11
1.33989e-11
1.2863e-11
1.11341e-11
8.67387e-12
6.1072e-12
3.92657e-12
2.31454e-12
1.26221e-12
6.41081e-13
3.0145e-13
1.30829e-13
5.27029e-14
1.97898e-14
6.86765e-15
2.20845e-15
7.55303e-16
6.21888e-16
1.54477e-15
4.66658e-15
2.95936e-32
3.19524e-29
8.51429e-27
9.38664e-25
5.24766e-23
1.66351e-21
3.2501e-20
4.22469e-19
3.91532e-18
2.70533e-17
1.39613e-16
5.55142e-16
1.76275e-15
4.7512e-15
1.17018e-14
2.7695e-14
6.61704e-14
1.60852e-13
3.89424e-13
8.90255e-13
1.86532e-12
3.59662e-12
6.50524e-12
1.11817e-11
1.82713e-11
2.81411e-11
4.04519e-11
5.40095e-11
6.77207e-11
8.2529e-11
9.71437e-11
1.05896e-10
1.05988e-10
9.68346e-11
8.03742e-11
6.06633e-11
4.19712e-11
2.65846e-11
1.55722e-11
8.50641e-12
4.31524e-12
2.03164e-12
8.91679e-13
3.64546e-13
1.37793e-13
4.81566e-14
1.70368e-14
1.13497e-14
2.36932e-14
6.73689e-14
4.16758e-31
4.70648e-28
1.29734e-25
1.45822e-23
8.17851e-22
2.56851e-20
4.95503e-19
6.38876e-18
5.87296e-17
3.97917e-16
1.99716e-15
7.7107e-15
2.3671e-14
6.10255e-14
1.41328e-13
3.09582e-13
6.75426e-13
1.50006e-12
3.36297e-12
7.22259e-12
1.43173e-11
2.61729e-11
4.49791e-11
7.38008e-11
1.15931e-10
1.73085e-10
2.43125e-10
3.19135e-10
3.92503e-10
4.68704e-10
5.4842e-10
6.08884e-10
6.30574e-10
6.03736e-10
5.30207e-10
4.26409e-10
3.15411e-10
2.13046e-10
1.32986e-10
7.7703e-11
4.23699e-11
2.15854e-11
1.02946e-11
4.57896e-12
1.8864e-12
7.18757e-13
2.65707e-13
1.4069e-13
2.17942e-13
5.68753e-13
3.89466e-30
4.81293e-27
1.43007e-24
1.69513e-22
9.77306e-21
3.0899e-19
5.92302e-18
7.55928e-17
6.82924e-16
4.42523e-15
2.13445e-14
7.99119e-14
2.38021e-13
5.90585e-13
1.29663e-12
2.64737e-12
5.2983e-12
1.07341e-11
2.21928e-11
4.47296e-11
8.40155e-11
1.45946e-10
2.38734e-10
3.74231e-10
5.65228e-10
8.18153e-10
1.12409e-09
1.45482e-09
1.77128e-09
2.07144e-09
2.38544e-09
2.67294e-09
2.84386e-09
2.83634e-09
2.62185e-09
2.24015e-09
1.76146e-09
1.25868e-09
8.30105e-10
5.15709e-10
3.01109e-10
1.65637e-10
8.57671e-11
4.15529e-11
1.86975e-11
7.78602e-12
3.0615e-12
1.38066e-12
1.40082e-12
3.11828e-12
2.53128e-29
3.65151e-26
1.24182e-23
1.62432e-21
9.83472e-20
3.12605e-18
5.89113e-17
7.25992e-16
6.21528e-15
3.82404e-14
1.76972e-13
6.40292e-13
1.85575e-12
4.43983e-12
9.29059e-12
1.7821e-11
3.29654e-11
6.10579e-11
1.16025e-10
2.18937e-10
3.89743e-10
6.44259e-10
1.00414e-09
1.50365e-09
2.18101e-09
3.05587e-09
4.10394e-09
5.24389e-09
6.34947e-09
7.34399e-09
8.34255e-09
9.37994e-09
1.01993e-08
1.05534e-08
1.02357e-08
9.28798e-09
7.73275e-09
5.77879e-09
3.97804e-09
2.60664e-09
1.6221e-09
9.60968e-10
5.39627e-10
2.84826e-10
1.40146e-10
6.39468e-11
2.72068e-11
1.16675e-11
7.69267e-12
1.24276e-11
1.24559e-28
2.33064e-25
9.81007e-23
1.43903e-20
8.7902e-19
2.68858e-17
4.83762e-16
5.68201e-15
4.55946e-14
2.6609e-13
1.18251e-12
4.11302e-12
1.14812e-11
2.65004e-11
5.31293e-11
9.6603e-11
1.66846e-10
2.84141e-10
4.95481e-10
8.72542e-10
1.47028e-09
2.31355e-09
3.43665e-09
4.91162e-09
6.8238e-09
9.2192e-09
1.2059e-08
1.51931e-08
1.83527e-08
2.13171e-08
2.42234e-08
2.74118e-08
3.05022e-08
3.28032e-08
3.34743e-08
3.25534e-08
2.86472e-08
2.19877e-08
1.54669e-08
1.05476e-08
6.93892e-09
4.4039e-09
2.672e-09
1.53236e-09
8.22736e-10
4.1089e-10
1.90683e-10
8.43797e-11
4.27418e-11
4.21971e-11
5.84496e-28
1.47585e-24
7.64334e-22
1.15839e-19
6.79565e-18
1.97696e-16
3.39348e-15
3.74993e-14
2.83699e-13
1.55784e-12
6.53199e-12
2.15535e-11
5.75471e-11
1.27889e-10
2.46364e-10
4.27646e-10
6.96596e-10
1.10013e-09
1.76309e-09
2.89115e-09
4.60542e-09
6.89864e-09
9.76796e-09
1.33139e-08
1.7669e-08
2.29025e-08
2.90011e-08
3.58539e-08
4.30893e-08
5.08244e-08
5.92267e-08
6.83934e-08
7.89543e-08
8.93369e-08
9.20895e-08
1.04196e-07
9.90254e-08
7.52116e-08
5.23528e-08
3.63827e-08
2.49154e-08
1.6734e-08
1.08503e-08
6.69426e-09
3.88858e-09
2.11144e-09
1.06762e-09
5.05891e-10
2.39035e-10
1.51514e-10
2.40779e-27
8.81175e-24
5.65501e-21
8.58205e-19
4.77767e-17
1.33081e-15
2.14601e-14
2.17067e-13
1.5056e-12
7.68714e-12
3.01434e-11
9.35417e-11
2.37574e-10
5.07218e-10
9.40656e-10
1.56636e-09
2.42773e-09
3.5923e-09
5.32153e-09
8.12319e-09
1.22091e-08
1.73958e-08
2.34695e-08
3.04814e-08
3.85307e-08
4.76556e-08
5.80143e-08
6.99315e-08
8.2975e-08
9.93619e-08
1.2178e-07
1.48638e-07
1.55895e-07
9.76824e-08
2.71515e-07
3.88403e-07
3.55146e-07
2.60477e-07
1.77294e-07
1.1857e-07
8.0769e-08
5.56559e-08
3.7574e-08
2.43908e-08
1.5056e-08
8.76726e-09
4.78873e-09
2.45068e-09
1.19635e-09
6.22129e-10
9.24268e-27
7.01401e-23
4.7242e-20
6.40877e-18
3.20822e-16
8.05479e-15
1.15393e-13
1.05609e-12
6.72612e-12
3.19308e-11
1.16459e-10
3.40039e-10
8.19777e-10
1.67562e-09
2.98879e-09
4.79034e-09
7.11897e-09
9.98475e-09
1.38299e-08
1.97224e-08
2.79046e-08
3.77531e-08
4.85131e-08
6.00162e-08
7.2097e-08
8.46949e-08
9.85177e-08
1.15e-07
1.33306e-07
1.61065e-07
2.07582e-07
2.01707e-07
1.72443e-07
5.76316e-07
4.91288e-07
1.3458e-06
9.53003e-07
5.90551e-07
4.026e-07
2.92602e-07
2.1548e-07
1.55556e-07
1.08405e-07
7.27776e-08
4.69284e-08
2.89065e-08
1.68979e-08
9.32862e-09
4.87555e-09
2.4961e-09
7.69879e-26
7.16898e-22
3.77587e-19
4.19915e-17
1.84255e-15
4.05119e-14
5.17828e-13
4.30039e-12
2.53927e-11
1.1143e-10
3.7999e-10
1.0421e-09
2.37731e-09
4.64123e-09
7.96373e-09
1.23218e-08
1.76711e-08
2.37828e-08
3.12892e-08
4.20692e-08
5.61575e-08
7.20093e-08
8.82191e-08
1.04142e-07
1.18877e-07
1.32293e-07
1.46561e-07
1.64766e-07
1.82948e-07
2.13623e-07
2.74798e-07
3.3492e-07
4.13387e-07
5.21354e-07
7.40999e-07
5.8339e-06
3.50839e-06
1.7176e-06
8.37002e-07
5.36207e-07
4.07357e-07
3.08653e-07
2.2594e-07
1.59527e-07
1.08824e-07
7.15237e-08
4.50209e-08
2.6974e-08
1.53301e-08
8.33287e-09
9.89882e-25
6.54401e-21
2.52895e-18
2.32653e-16
8.79054e-15
1.68969e-13
1.93424e-12
1.47315e-11
8.0173e-11
3.26601e-10
1.03943e-09
2.68336e-09
5.80689e-09
1.08433e-08
1.79352e-08
2.68966e-08
3.7473e-08
4.90259e-08
6.24198e-08
8.01555e-08
1.01518e-07
1.24268e-07
1.45858e-07
1.65398e-07
1.80608e-07
1.90434e-07
2.01098e-07
2.18139e-07
2.31196e-07
2.38223e-07
2.41833e-07
5.20984e-07
5.01857e-07
1.56315e-06
6.00483e-06
1.72466e-05
1.7249e-05
1.50681e-05
2.79129e-06
1.11907e-06
5.97385e-07
4.21356e-07
3.23393e-07
2.46785e-07
1.83264e-07
1.3143e-07
9.04416e-08
5.93833e-08
3.70492e-08
2.19886e-08
1.23334e-23
4.87493e-20
1.3996e-17
1.07602e-15
3.45819e-14
5.84829e-13
6.03366e-12
4.2232e-11
2.11483e-10
7.99728e-10
2.38554e-09
5.81908e-09
1.19862e-08
2.14681e-08
3.43387e-08
5.01437e-08
6.83838e-08
8.82786e-08
1.10894e-07
1.3834e-07
1.68505e-07
1.99231e-07
2.27845e-07
2.50618e-07
2.66874e-07
2.6668e-07
2.68264e-07
2.83432e-07
2.97378e-07
3.04988e-07
3.14424e-07
3.34382e-07
3.94198e-07
8.00283e-07
4.2638e-06
1.59342e-05
1.72462e-05
7.33579e-06
1.85345e-06
8.45078e-07
5.8909e-07
4.74946e-07
3.89691e-07
3.16941e-07
2.53398e-07
1.97122e-07
1.47813e-07
1.06122e-07
7.2657e-08
4.73624e-08
1.24541e-22
2.94317e-19
6.4173e-17
4.07988e-15
1.12506e-13
1.68504e-12
1.5821e-11
1.00968e-10
4.66717e-10
1.64636e-09
4.61817e-09
1.0676e-08
2.09984e-08
3.61974e-08
5.62163e-08
8.03271e-08
1.08106e-07
1.39632e-07
1.75803e-07
2.16663e-07
2.58773e-07
3.00955e-07
3.38962e-07
3.64306e-07
3.88043e-07
3.63402e-07
2.69697e-07
3.44926e-07
3.70417e-07
3.66531e-07
3.55092e-07
3.64838e-07
4.30885e-07
5.2221e-07
8.98307e-07
4.53922e-06
3.78528e-06
2.31564e-06
1.26695e-06
8.62918e-07
6.63082e-07
5.36657e-07
4.44629e-07
3.72814e-07
3.12908e-07
2.58987e-07
2.08823e-07
1.62667e-07
1.21699e-07
8.71022e-08
9.83936e-22
1.43282e-18
2.41473e-16
1.26961e-14
3.03255e-13
4.05904e-12
3.45912e-11
2.02476e-10
8.68642e-10
2.86876e-09
7.59827e-09
1.67131e-08
3.15079e-08
5.24566e-08
7.94073e-08
1.11418e-07
1.49032e-07
1.94538e-07
2.47783e-07
3.05215e-07
3.62419e-07
4.20492e-07
4.63673e-07
4.83657e-07
5.3108e-07
3.66447e-07
1.42001e-06
5.09269e-07
4.60463e-07
4.23759e-07
3.93365e-07
3.72482e-07
3.76491e-07
4.18971e-07
4.93699e-07
1.35041e-06
1.46096e-06
9.23258e-07
6.15354e-07
5.70744e-07
5.19724e-07
4.74146e-07
4.30811e-07
3.8966e-07
3.51122e-07
3.12507e-07
2.71719e-07
2.29233e-07
1.86804e-07
1.46977e-07
5.97839e-21
5.59979e-18
7.38295e-16
3.2537e-14
6.80827e-13
8.20353e-12
6.36059e-11
3.43912e-10
1.37711e-09
4.28384e-09
1.07688e-08
2.26407e-08
4.10861e-08
6.63467e-08
9.83022e-08
1.35647e-07
1.81166e-07
2.39798e-07
3.08826e-07
3.80016e-07
4.47529e-07
5.19126e-07
5.57472e-07
5.33083e-07
6.51788e-07
6.93125e-07
5.98366e-07
5.77426e-07
5.3001e-07
4.86457e-07
4.48674e-07
4.16366e-07
3.9346e-07
3.84233e-07
3.81852e-07
5.52222e-07
6.30685e-07
5.38492e-07
4.84075e-07
4.70453e-07
4.59975e-07
4.49031e-07
4.05601e-07
4.04392e-07
3.9545e-07
3.79185e-07
3.53526e-07
3.19498e-07
2.8055e-07
2.41798e-07
2.79143e-20
1.75782e-17
1.84221e-15
6.91007e-14
1.28033e-12
1.39682e-11
9.95843e-11
5.01399e-10
1.88873e-09
5.57268e-09
1.33837e-08
2.70663e-08
4.75633e-08
7.48915e-08
1.09061e-07
1.48038e-07
1.97925e-07
2.64123e-07
3.39663e-07
4.10902e-07
4.67799e-07
4.89297e-07
5.59455e-07
9.21006e-07
9.95696e-07
1.03613e-06
9.41306e-07
8.09037e-07
6.31787e-07
5.76908e-07
5.23572e-07
4.8011e-07
4.45633e-07
4.22887e-07
4.1262e-07
4.29085e-07
4.51166e-07
4.54535e-07
4.63925e-07
4.78138e-07
4.92467e-07
4.49272e-07
1.14371e-06
4.32614e-07
4.30573e-07
4.22461e-07
4.02881e-07
3.83445e-07
2.83753e-07
3.93768e-07
1.01307e-19
4.48747e-17
3.82477e-15
1.23981e-13
2.05305e-12
2.03966e-11
1.3471e-10
6.36583e-10
2.27518e-09
6.42022e-09
1.48525e-08
2.91326e-08
4.99789e-08
7.72964e-08
1.11213e-07
1.48723e-07
1.9878e-07
2.62509e-07
3.29172e-07
3.84235e-07
3.84947e-07
1.61247e-06
7.15966e-07
7.82175e-07
1.4892e-06
4.13681e-06
4.64495e-06
8.63515e-07
1.03525e-06
5.88275e-07
5.79775e-07
5.20604e-07
4.76782e-07
4.5068e-07
4.42621e-07
4.52436e-07
4.75031e-07
5.02418e-07
5.31511e-07
5.56131e-07
5.75669e-07
5.82672e-07
5.85403e-07
5.74018e-07
5.66985e-07
5.72408e-07
6.06722e-07
5.97436e-07
7.56591e-07
5.50445e-07
2.87697e-19
9.40918e-17
6.68008e-15
1.89868e-13
2.84073e-12
2.60069e-11
1.60651e-10
7.18023e-10
2.44895e-09
6.65624e-09
1.49607e-08
2.87401e-08
4.86042e-08
7.44671e-08
1.06487e-07
1.40769e-07
1.8581e-07
2.36423e-07
2.80183e-07
2.82672e-07
7.03948e-07
3.88971e-07
4.03935e-07
1.75623e-06
1.64376e-05
3.63107e-05
3.48304e-05
1.6251e-05
9.77886e-07
6.85082e-07
5.0867e-07
5.00973e-07
4.6826e-07
4.47565e-07
4.41782e-07
4.51685e-07
4.73979e-07
5.03059e-07
5.35311e-07
5.68985e-07
6.01537e-07
6.26021e-07
6.35952e-07
6.28289e-07
6.07336e-07
5.84749e-07
5.75229e-07
5.9087e-07
6.25305e-07
5.60337e-06
6.45313e-19
1.64067e-16
9.90015e-15
2.50996e-13
3.43701e-12
2.929e-11
1.70676e-10
7.27712e-10
2.39147e-09
6.31804e-09
1.39161e-08
2.63892e-08
4.43583e-08
6.78872e-08
9.70548e-08
1.26685e-07
1.61249e-07
1.93251e-07
1.97658e-07
7.95724e-07
3.63393e-07
3.70504e-07
9.05039e-07
6.0024e-06
3.22959e-05
3.64228e-05
3.6459e-05
3.28127e-05
4.89066e-06
1.59937e-06
1.66305e-06
4.70518e-07
4.33599e-07
4.23138e-07
4.21906e-07
4.28402e-07
4.41965e-07
4.6091e-07
4.85974e-07
5.20715e-07
5.68176e-07
6.29214e-07
6.57896e-07
6.78794e-07
6.544e-07
6.14039e-07
5.93654e-07
1.0752e-06
7.57138e-06
1.61819e-05
1.13544e-18
2.39647e-16
1.26286e-14
2.89825e-13
3.67404e-12
2.94282e-11
1.63275e-10
6.69915e-10
2.13781e-09
5.53405e-09
1.20462e-08
2.27511e-08
3.83255e-08
5.90047e-08
8.46724e-08
1.07567e-07
1.31118e-07
1.54465e-07
3.21224e-07
2.15911e-07
3.85971e-07
3.35583e-07
7.76187e-07
5.69932e-06
3.5324e-05
3.64576e-05
3.64589e-05
3.18693e-05
5.6173e-06
1.8272e-06
7.22929e-07
4.48708e-07
4.01969e-07
3.98099e-07
4.01426e-07
4.06895e-07
4.13412e-07
4.20762e-07
4.30598e-07
4.41597e-07
4.47004e-07
4.9904e-07
1.06836e-06
6.91557e-07
6.81597e-07
6.3473e-07
6.01894e-07
6.61123e-07
2.59328e-06
1.62307e-05
1.58385e-18
2.90199e-16
1.3729e-14
2.91836e-13
3.47382e-12
2.65062e-11
1.41485e-10
5.63409e-10
1.76022e-09
4.49988e-09
9.74797e-09
1.84534e-08
3.13297e-08
4.87534e-08
7.03416e-08
8.5527e-08
1.08081e-07
1.88326e-07
1.39752e-07
2.06387e-07
2.27439e-07
3.00109e-07
3.1418e-07
8.14143e-07
1.74988e-05
3.62522e-05
3.5224e-05
1.70719e-05
1.88181e-06
5.34087e-07
5.4035e-07
3.7832e-07
3.47663e-07
3.47736e-07
3.68101e-07
3.79805e-07
3.93113e-07
4.06471e-07
4.20053e-07
4.33362e-07
4.45507e-07
4.5362e-07
4.62957e-07
4.93344e-07
5.16251e-07
5.35404e-07
5.82906e-07
7.15752e-07
1.28124e-06
4.84599e-06
1.79697e-18
2.94951e-16
1.28246e-14
2.5519e-13
2.89926e-12
2.12979e-11
1.10542e-10
4.31708e-10
1.33358e-09
3.39299e-09
7.36518e-09
1.40468e-08
2.41248e-08
3.80532e-08
5.53337e-08
6.77872e-08
1.10699e-07
8.92042e-08
1.33942e-07
1.47873e-07
3.26914e-07
2.884e-07
2.8609e-07
2.98782e-07
1.14638e-06
5.22829e-06
5.35691e-06
9.7384e-07
5.10561e-07
3.54245e-07
3.01345e-07
3.03246e-07
3.0715e-07
9.57421e-07
3.31669e-07
3.4019e-07
3.56737e-07
3.7164e-07
3.75356e-07
4.03752e-07
4.22535e-07
4.42087e-07
4.60184e-07
4.76149e-07
4.89012e-07
4.92139e-07
5.18089e-07
5.54578e-07
7.74218e-07
2.10207e-06
1.65432e-18
2.54165e-16
1.03605e-14
1.94846e-13
2.13482e-12
1.52758e-11
7.77833e-11
3.00493e-10
9.24885e-10
2.35929e-09
5.15942e-09
9.95196e-09
1.7332e-08
2.77645e-08
4.14236e-08
5.68828e-08
5.85311e-08
8.4699e-08
9.72016e-08
1.0491e-07
4.80609e-07
2.54853e-07
2.4637e-07
3.06055e-07
3.46794e-07
8.41226e-07
8.28613e-07
4.02077e-07
3.18889e-07
3.05836e-07
2.7507e-07
8.8728e-07
3.5373e-07
2.88541e-07
2.87313e-07
3.05791e-07
3.20601e-07
3.21328e-07
9.95131e-07
3.57624e-07
3.72594e-07
3.99158e-07
4.32933e-07
4.47215e-07
5.53042e-07
6.47593e-07
5.33799e-07
8.73989e-07
9.35732e-07
1.06947e-06
1.2417e-18
1.83958e-16
7.2297e-15
1.30788e-13
1.38548e-12
9.75469e-12
4.91999e-11
1.89439e-10
5.845e-10
1.50369e-09
3.32555e-09
6.5018e-09
1.14909e-08
1.86915e-08
2.83756e-08
4.05141e-08
5.33715e-08
6.00543e-08
6.67751e-08
9.90771e-08
9.37431e-08
1.5053e-07
1.32603e-07
3.73945e-07
3.19412e-07
3.49067e-07
4.18018e-07
2.96303e-07
3.04472e-07
2.89949e-07
2.74361e-07
2.30529e-07
5.35057e-07
2.61394e-07
2.67953e-07
2.82538e-07
2.73195e-07
3.43379e-07
2.96367e-07
3.08365e-07
3.30868e-07
3.51831e-07
3.74603e-07
4.28174e-07
4.81282e-07
4.81546e-07
1.87424e-05
7.75611e-06
6.87584e-06
8.50108e-07
7.61581e-19
1.11517e-16
4.31611e-15
7.66252e-14
7.93881e-13
5.53058e-12
2.78749e-11
1.07746e-10
3.35125e-10
8.7182e-10
1.95541e-09
3.87809e-09
6.95399e-09
1.14781e-08
1.76846e-08
2.56179e-08
3.40404e-08
3.97453e-08
4.57608e-08
4.08512e-08
8.86823e-08
9.48378e-08
1.19805e-07
1.66057e-07
1.46425e-07
5.14884e-07
2.25266e-07
1.73919e-07
3.2497e-07
2.50493e-07
2.24783e-07
2.16683e-07
1.96295e-07
2.15393e-07
2.35635e-07
2.5358e-07
2.67612e-07
2.58616e-07
2.78535e-07
2.94272e-07
3.04904e-07
3.07886e-07
3.04273e-07
3.22437e-07
5.25141e-07
3.37398e-05
7.26891e-05
7.26809e-05
7.09994e-05
7.51511e-06
3.81162e-19
5.65691e-17
2.19776e-15
3.89447e-14
4.01272e-13
2.78048e-12
1.40915e-11
5.50356e-11
1.73259e-10
4.5676e-10
1.04048e-09
2.09449e-09
3.81109e-09
6.38349e-09
9.98478e-09
1.46883e-08
1.97227e-08
2.43883e-08
2.36296e-08
3.36501e-08
5.02998e-08
4.68304e-08
8.42881e-08
7.02641e-08
8.0825e-08
6.25978e-08
7.52413e-08
1.5636e-07
1.04577e-07
1.25325e-07
1.49232e-07
1.67153e-07
1.80556e-07
1.94745e-07
2.09116e-07
2.23742e-07
2.38748e-07
2.52424e-07
2.68469e-07
2.83737e-07
2.95264e-07
2.9945e-07
3.01671e-07
6.78839e-07
6.51367e-06
7.26819e-05
7.26798e-05
7.26792e-05
7.26734e-05
4.69781e-05
1.56086e-19
2.4032e-17
9.53349e-16
1.71049e-14
1.77487e-13
1.23703e-12
6.34778e-12
2.51514e-11
8.05093e-11
2.1589e-10
5.00655e-10
1.02739e-09
1.90639e-09
3.2574e-09
5.19839e-09
7.80347e-09
1.06491e-08
1.35019e-08
1.55855e-08
2.06783e-08
2.47502e-08
2.9976e-08
3.12719e-08
4.30844e-08
5.44866e-08
5.23637e-08
8.83322e-08
6.64659e-08
7.52479e-08
9.26931e-08
1.08824e-07
1.22679e-07
1.35881e-07
1.49689e-07
1.64572e-07
1.80758e-07
1.98354e-07
2.17078e-07
2.3728e-07
2.58741e-07
2.78068e-07
2.90018e-07
2.90242e-07
3.769e-07
4.27102e-06
6.85993e-05
7.26731e-05
7.2679e-05
7.26745e-05
4.39486e-05
5.23521e-20
8.55131e-18
3.52289e-16
6.48736e-15
6.86022e-14
4.86718e-13
2.55096e-12
1.03401e-11
3.39956e-11
9.4071e-11
2.26271e-10
4.85213e-10
9.42328e-10
1.68302e-09
2.79666e-09
4.35552e-09
6.21243e-09
8.32323e-09
1.07047e-08
1.24438e-08
1.6342e-08
2.04995e-08
2.54314e-08
3.12884e-08
3.73879e-08
4.18987e-08
4.14958e-08
4.78825e-08
5.57181e-08
6.42204e-08
7.35534e-08
8.37245e-08
9.48914e-08
1.07304e-07
1.2125e-07
1.37059e-07
1.54843e-07
1.74431e-07
1.96419e-07
2.22722e-07
2.5125e-07
2.7393e-07
2.8323e-07
2.80676e-07
7.99753e-07
3.83319e-05
7.26819e-05
7.2674e-05
6.95454e-05
1.13152e-05
1.43886e-20
2.54838e-18
1.10928e-16
2.12726e-15
2.32471e-14
1.70728e-13
9.34111e-13
4.00182e-12
1.42096e-11
4.35846e-11
1.17887e-10
2.84918e-10
6.15573e-10
1.19849e-09
2.12563e-09
3.47521e-09
5.25976e-09
7.46948e-09
1.00686e-08
1.29158e-08
1.635e-08
2.002e-08
2.39162e-08
2.80969e-08
3.23116e-08
3.62648e-08
4.0022e-08
4.38636e-08
4.81054e-08
5.30233e-08
5.87104e-08
6.51913e-08
7.25222e-08
8.08906e-08
9.07036e-08
1.0251e-07
1.16544e-07
1.32665e-07
1.50789e-07
1.74211e-07
2.08719e-07
2.44257e-07
2.67229e-07
2.7304e-07
2.83627e-07
2.51935e-07
1.92638e-05
1.37676e-05
7.73029e-06
2.76372e-07
3.23968e-21
6.38315e-19
2.99403e-17
6.09659e-16
7.05901e-15
5.61174e-14
3.50024e-13
1.8411e-12
8.45305e-12
3.32501e-11
1.09601e-10
3.0449e-10
7.19353e-10
1.47692e-09
2.69626e-09
4.47838e-09
6.88365e-09
9.87924e-09
1.33636e-08
1.73076e-08
2.16197e-08
2.61514e-08
3.07035e-08
3.52274e-08
3.96171e-08
4.37865e-08
4.76934e-08
5.13535e-08
5.4846e-08
5.83245e-08
6.19754e-08
6.5857e-08
6.9904e-08
7.4053e-08
7.86138e-08
8.43728e-08
9.19579e-08
1.01614e-07
1.11983e-07
1.20265e-07
1.47576e-07
1.90126e-07
2.26313e-07
2.44845e-07
2.47541e-07
2.51693e-07
2.21667e-07
2.97374e-07
2.45222e-07
2.63796e-07
5.93873e-22
1.35036e-19
7.03663e-18
1.58386e-16
2.11626e-15
2.22586e-14
2.14607e-13
1.74437e-12
1.0762e-11
4.94873e-11
1.74955e-10
4.97951e-10
1.17689e-09
2.39047e-09
4.29708e-09
7.03781e-09
1.06256e-08
1.4971e-08
1.9986e-08
2.55311e-08
3.14309e-08
3.75025e-08
4.35658e-08
4.94553e-08
5.50221e-08
6.01256e-08
6.46477e-08
6.85636e-08
7.20488e-08
7.52191e-08
7.83637e-08
8.16059e-08
8.46439e-08
8.65481e-08
8.68523e-08
8.64213e-08
8.67805e-08
8.9073e-08
9.3379e-08
9.85566e-08
1.06078e-07
1.17026e-07
1.31107e-07
1.46541e-07
1.61899e-07
1.82051e-07
2.09389e-07
2.25858e-07
2.39987e-07
2.56691e-07
9.11597e-23
2.49343e-20
1.53545e-18
4.46237e-17
9.89189e-16
2.04262e-14
3.15387e-13
3.12628e-12
2.03181e-11
9.2986e-11
3.2053e-10
8.83787e-10
2.01973e-09
3.97327e-09
6.95623e-09
1.10922e-08
1.62856e-08
2.24348e-08
2.93771e-08
3.68924e-08
4.4734e-08
5.26576e-08
6.04351e-08
6.78534e-08
7.47218e-08
8.08607e-08
8.61299e-08
9.0544e-08
9.45294e-08
9.84664e-08
1.02657e-07
1.0763e-07
1.13671e-07
1.17438e-07
1.16032e-07
1.10114e-07
1.03088e-07
9.77445e-08
9.49388e-08
9.44698e-08
9.62655e-08
1.00443e-07
1.06921e-07
1.15318e-07
1.25951e-07
1.39665e-07
1.58007e-07
1.74141e-07
1.89829e-07
2.08955e-07
1.25524e-23
4.5801e-21
4.40733e-19
2.73407e-17
1.29615e-15
3.89605e-14
6.56996e-13
6.42744e-12
4.01008e-11
1.75335e-10
5.77416e-10
1.5243e-09
3.34337e-09
6.34305e-09
1.07885e-08
1.66311e-08
2.37462e-08
3.19535e-08
4.09898e-08
5.05544e-08
6.03331e-08
7.00299e-08
7.93773e-08
8.81255e-08
9.60609e-08
1.02993e-07
1.08783e-07
1.13475e-07
1.17871e-07
1.22991e-07
1.29256e-07
1.38002e-07
1.55889e-07
1.68963e-07
1.6918e-07
1.57823e-07
1.41801e-07
1.27955e-07
1.18238e-07
1.12039e-07
1.08499e-07
1.07085e-07
1.07462e-07
1.09474e-07
1.1309e-07
1.18374e-07
1.25323e-07
1.33035e-07
1.40892e-07
1.48481e-07
2.37933e-24
1.75063e-21
4.02367e-19
4.60399e-17
2.75173e-15
8.58928e-14
1.39885e-12
1.29537e-11
7.64328e-11
3.17268e-10
9.94426e-10
2.50456e-09
5.26155e-09
9.64447e-09
1.57997e-08
2.35614e-08
3.27379e-08
4.30196e-08
5.40498e-08
6.54568e-08
7.68781e-08
8.79897e-08
9.85082e-08
1.08156e-07
1.16713e-07
1.24024e-07
1.29925e-07
1.34319e-07
1.38414e-07
1.4419e-07
1.52434e-07
1.65741e-07
1.85156e-07
2.46381e-07
2.4958e-07
2.3486e-07
2.06705e-07
1.81185e-07
1.63864e-07
1.52655e-07
1.44686e-07
1.38331e-07
1.33049e-07
1.28663e-07
1.25502e-07
1.23879e-07
1.24141e-07
1.26621e-07
1.31338e-07
1.38193e-07
1.92939e-24
2.41599e-21
7.65006e-19
9.93519e-17
6.13166e-15
1.86345e-13
2.87157e-12
2.5e-11
1.39203e-10
5.47634e-10
1.63047e-09
3.91158e-09
7.87662e-09
1.38842e-08
2.18576e-08
3.15884e-08
4.27205e-08
5.4836e-08
6.75026e-08
8.03063e-08
9.28717e-08
1.0488e-07
1.16062e-07
1.26104e-07
1.34799e-07
1.42153e-07
1.47817e-07
1.51122e-07
1.53847e-07
1.59168e-07
1.6737e-07
1.66646e-07
4.35097e-07
3.62116e-07
2.70688e-07
3.39946e-07
3.18485e-07
2.70488e-07
2.39129e-07
2.19971e-07
2.05156e-07
1.9239e-07
1.80974e-07
1.7086e-07
1.61871e-07
1.54021e-07
1.47565e-07
1.42963e-07
1.40659e-07
1.41145e-07
3.41357e-24
4.71322e-21
1.59358e-18
2.14745e-16
1.33382e-14
3.89677e-13
5.64569e-12
4.61252e-11
2.42137e-10
9.00909e-10
2.54378e-09
5.81541e-09
1.12151e-08
1.88866e-08
2.86581e-08
4.01541e-08
5.28865e-08
6.63576e-08
8.00977e-08
9.36942e-08
1.06803e-07
1.19147e-07
1.30495e-07
1.40471e-07
1.48878e-07
1.56253e-07
1.61459e-07
1.62832e-07
1.63639e-07
1.67971e-07
1.73056e-07
2.17287e-07
2.49395e-07
6.98746e-07
3.38265e-06
1.8079e-06
6.64004e-07
5.39384e-07
3.98474e-07
3.2473e-07
2.84997e-07
2.59191e-07
2.40119e-07
2.24693e-07
2.11356e-07
1.99287e-07
1.88155e-07
1.77974e-07
1.68969e-07
1.6153e-07
6.53397e-24
9.41949e-21
3.30192e-18
4.54585e-16
2.81338e-14
7.8389e-13
1.06311e-11
8.14272e-11
4.0219e-10
1.4128e-09
3.78149e-09
8.24746e-09
1.51187e-08
2.43714e-08
3.56784e-08
4.85002e-08
6.22641e-08
7.64416e-08
9.05753e-08
1.04302e-07
1.17348e-07
1.29511e-07
1.40617e-07
1.50154e-07
1.57845e-07
1.65611e-07
1.70048e-07
1.68956e-07
1.69061e-07
1.73676e-07
1.74564e-07
1.75321e-07
2.08307e-06
3.19922e-05
4.29904e-05
4.18028e-05
1.00199e-05
4.74309e-07
4.58062e-07
4.00269e-07
3.52783e-07
3.17984e-07
2.92967e-07
2.74211e-07
2.59056e-07
2.45737e-07
2.33241e-07
2.21007e-07
2.08859e-07
1.96821e-07
1.22863e-23
1.84194e-20
6.69185e-18
9.39652e-16
5.75366e-14
1.5165e-12
1.91875e-11
1.37608e-10
6.37726e-10
2.11365e-09
5.3757e-09
1.10959e-08
1.93472e-08
2.99006e-08
4.22651e-08
5.57932e-08
6.98906e-08
8.40551e-08
9.78896e-08
1.11118e-07
1.23568e-07
1.35123e-07
1.45676e-07
1.54487e-07
1.60666e-07
1.69047e-07
1.73461e-07
1.69893e-07
2.33323e-07
1.79314e-07
1.76728e-07
1.74821e-07
1.66903e-05
4.29919e-05
4.2988e-05
4.29813e-05
3.43996e-05
2.11217e-06
7.55163e-07
4.64641e-07
3.82558e-07
3.4388e-07
3.19627e-07
3.02781e-07
2.90034e-07
2.79127e-07
2.68935e-07
2.58426e-07
2.47356e-07
2.35384e-07
2.30156e-23
3.54762e-20
1.32973e-17
1.8995e-15
1.14064e-13
2.82088e-12
3.32284e-11
2.22399e-10
9.65992e-10
3.03053e-09
7.25973e-09
1.41881e-08
2.35539e-08
3.49484e-08
4.77518e-08
6.12852e-08
7.50001e-08
8.84708e-08
1.01395e-07
1.13605e-07
1.25034e-07
1.35651e-07
1.45411e-07
1.53271e-07
1.55617e-07
1.64517e-07
2.12224e-07
1.77694e-07
1.75551e-07
1.80384e-07
1.77652e-07
1.74823e-07
2.15346e-05
4.29902e-05
4.29824e-05
4.29788e-05
3.66783e-05
3.2619e-06
4.10162e-07
4.298e-07
3.62022e-07
3.30251e-07
3.12886e-07
3.02785e-07
2.96157e-07
2.8992e-07
2.85438e-07
2.78747e-07
2.71607e-07
2.63915e-07
4.32044e-23
6.73698e-20
2.58754e-17
3.75405e-15
2.1899e-13
5.04306e-12
5.52021e-11
3.43782e-10
1.40541e-09
4.13823e-09
9.32514e-09
1.72603e-08
2.73393e-08
3.90045e-08
5.15894e-08
6.44587e-08
7.71645e-08
8.93883e-08
1.00935e-07
1.11746e-07
1.21848e-07
1.31278e-07
1.40036e-07
1.46803e-07
1.3895e-07
2.13174e-07
1.61093e-07
2.40439e-07
1.73869e-07
1.82335e-07
1.78818e-07
1.80574e-07
1.80632e-07
3.47789e-05
4.29801e-05
4.29786e-05
1.1318e-05
2.92526e-07
3.29919e-07
3.11591e-07
2.99025e-07
2.90911e-07
2.81831e-07
2.80422e-07
2.80083e-07
2.74142e-07
2.83924e-07
2.75879e-07
2.725e-07
2.71758e-07
8.11477e-23
1.25813e-19
4.91979e-17
7.25697e-15
4.06676e-13
8.67607e-12
8.78773e-11
5.11372e-10
1.95387e-09
5.37553e-09
1.1403e-08
2.00161e-08
3.0317e-08
4.16709e-08
5.34458e-08
6.51098e-08
7.63445e-08
8.69455e-08
9.68201e-08
1.05998e-07
1.14575e-07
1.22631e-07
1.30197e-07
1.35868e-07
1.34606e-07
1.23695e-07
1.54959e-07
1.41563e-07
1.62402e-07
1.68695e-07
1.71717e-07
1.88655e-07
1.80592e-07
1.95915e-06
6.87573e-07
3.08152e-06
5.23063e-07
2.76062e-07
2.40967e-07
2.3963e-07
2.56266e-07
2.58186e-07
2.39577e-07
2.53479e-07
2.53324e-07
2.21816e-07
5.43402e-07
2.2225e-07
2.43633e-07
2.58332e-07
1.53848e-22
2.32083e-19
9.14009e-17
1.37184e-14
7.292e-13
1.43733e-11
1.34883e-10
7.29375e-10
2.58501e-09
6.65149e-09
1.32847e-08
2.21684e-08
3.21907e-08
4.27289e-08
5.32466e-08
6.33474e-08
7.28429e-08
8.1631e-08
8.97014e-08
9.71473e-08
1.04105e-07
1.10673e-07
1.16894e-07
1.21623e-07
1.25212e-07
1.18854e-07
1.26813e-07
1.38869e-07
1.51079e-07
1.59384e-07
1.50562e-07
2.03044e-07
1.77283e-07
1.85115e-07
1.81203e-07
2.00726e-07
2.05638e-07
2.11052e-07
2.16248e-07
2.16777e-07
6.718e-07
2.33175e-07
1.59681e-07
5.20754e-07
2.20055e-07
2.20193e-07
1.91418e-07
1.95842e-07
6.20031e-07
2.59958e-07
2.96836e-22
4.25793e-19
1.66228e-16
2.53465e-14
1.26304e-12
2.3055e-11
1.99331e-10
9.91509e-10
3.26454e-09
7.83697e-09
1.47749e-08
2.34933e-08
3.28035e-08
4.21588e-08
5.11514e-08
5.95225e-08
6.71938e-08
7.4143e-08
8.04202e-08
8.6156e-08
9.15017e-08
9.65561e-08
1.0136e-07
1.05293e-07
1.08851e-07
1.09564e-07
1.09875e-07
1.23606e-07
1.36411e-07
1.43058e-07
1.46399e-07
1.27171e-07
1.39899e-07
1.56614e-07
1.6045e-07
1.61918e-07
2.43734e-07
2.21179e-07
2.18741e-07
2.55313e-07
1.31386e-07
1.42536e-07
1.5444e-07
1.48358e-07
1.64953e-07
1.79021e-07
1.80715e-07
5.82035e-07
2.55009e-07
2.45561e-07
5.83504e-22
7.81206e-19
2.97266e-16
4.59561e-14
2.14784e-12
3.57244e-11
2.81396e-10
1.28837e-09
3.92768e-09
8.81098e-09
1.57135e-08
2.38721e-08
3.21524e-08
4.01163e-08
4.74878e-08
5.4127e-08
6.0036e-08
6.52504e-08
6.986e-08
7.40112e-08
7.78512e-08
8.14678e-08
8.48928e-08
8.79734e-08
9.04013e-08
9.2342e-08
9.13555e-08
1.03943e-07
1.1566e-07
1.20793e-07
1.22341e-07
1.20677e-07
1.22775e-07
1.34804e-07
1.14523e-07
1.80871e-07
1.2496e-07
1.42183e-07
1.8138e-07
1.19273e-07
1.21873e-07
1.28432e-07
1.36669e-07
1.45366e-07
1.48815e-07
1.5043e-07
2.7161e-07
1.64559e-07
1.89476e-07