/*--------------------------------*- C++ -*----------------------------------*\
| =========                 |                                                 |
| \\      /  F ield         | OpenFOAM: The Open Source CFD Toolbox           |
|  \\    /   O peration     | Version:  2.4.0                                 |
|   \\  /    A nd           | Web:      www.OpenFOAM.org                      |
|    \\/     M anipulation  |                                                 |
\*---------------------------------------------------------------------------*/
FoamFile
{
    version     2.0;
    format      ascii;
    class       volScalarField;
    location    "0.15";
    object      p;
}
// * * * * * * * * * * * * * * * * * * * * * * * * * * * * * * * * * * * * * //

dimensions      [1 -1 -2 0 0 0 0];

internalField   nonuniform List<scalar> 
10000
(
0.001486
0.00148805
0.00148944
0.00148922
0.00148711
0.00148325
0.00147784
0.0014711
0.00146322
0.00145438
0.00144468
0.00143418
0.0014229
0.00141085
0.001398
0.00138433
0.00136978
0.00135431
0.0013379
0.00132053
0.00130218
0.00128284
0.00126247
0.00124101
0.00121833
0.0011943
0.00116876
0.00114161
0.00111278
0.00108232
0.00105041
0.00101732
0.000983431
0.000949165
0.000914937
0.000881121
0.000848032
0.000815915
0.000784955
0.000755291
0.00072703
0.000700252
0.000675005
0.000651307
0.000629134
0.000608438
0.000589154
0.000571193
0.000554434
0.000538721
0.00148171
0.00148397
0.0014854
0.00148507
0.00148302
0.00147939
0.00147432
0.00146794
0.00146039
0.00145178
0.00144222
0.00143177
0.00142045
0.00140827
0.00139522
0.00138126
0.00136638
0.00135056
0.00133376
0.001316
0.00129727
0.00127758
0.00125688
0.00123513
0.00121224
0.00118811
0.00116263
0.00113573
0.00110742
0.00107774
0.00104689
0.00101511
0.000982765
0.000950226
0.000917874
0.000886053
0.000855049
0.000825088
0.000796339
0.000768924
0.000742928
0.000718398
0.000695344
0.000673736
0.000653498
0.00063452
0.000616678
0.000599832
0.000583817
0.000568437
0.00147403
0.0014763
0.00147777
0.00147744
0.00147546
0.00147201
0.00146719
0.00146111
0.00145384
0.00144548
0.00143609
0.00142573
0.00141443
0.00140219
0.00138901
0.00137489
0.00135982
0.00134378
0.00132679
0.00130885
0.00128998
0.00127018
0.00124945
0.00122773
0.00120497
0.00118109
0.00115603
0.00112972
0.00110219
0.0010735
0.00104384
0.00101346
0.00098271
0.000951966
0.00092159
0.000891902
0.000863167
0.000835591
0.000809321
0.00078446
0.000761062
0.000739137
0.000718645
0.000699504
0.000681588
0.000664723
0.000648713
0.000633359
0.000618442
0.000603726
0.00146288
0.00146508
0.00146652
0.00146616
0.00146419
0.00146082
0.00145614
0.00145022
0.00144313
0.00143495
0.00142572
0.00141548
0.00140425
0.00139206
0.00137891
0.0013648
0.00134974
0.00133374
0.0013168
0.00129896
0.00128025
0.00126069
0.00124027
0.00121898
0.00119677
0.00117356
0.00114929
0.00112391
0.0010974
0.00106982
0.00104135
0.00101228
0.000983
0.000953914
0.000925406
0.000897786
0.000871303
0.000846143
0.000822435
0.000800254
0.000779622
0.000760507
0.000742817
0.000726417
0.000711125
0.000696709
0.000682896
0.000669415
0.000655993
0.000642351
0.00144838
0.00145039
0.00145164
0.00145114
0.0014491
0.00144572
0.00144108
0.00143525
0.00142828
0.00142024
0.00141116
0.00140106
0.00138998
0.00137794
0.00136494
0.001351
0.00133614
0.00132035
0.00130369
0.00128619
0.00126789
0.00124884
0.00122906
0.00120855
0.00118725
0.00116509
0.00114198
0.00111784
0.00109259
0.00106624
0.00103898
0.00101115
0.000983236
0.000955726
0.000929048
0.000903518
0.000879366
0.000856761
0.000835809
0.000816557
0.00079899
0.000783026
0.000768522
0.000755279
0.000743057
0.000731556
0.000720421
0.000709298
0.000697854
0.000685759
0.00143052
0.00143214
0.00143305
0.0014323
0.00143008
0.0014266
0.00142193
0.00141614
0.00140926
0.00140134
0.00139242
0.00138251
0.00137164
0.00135984
0.00134712
0.00133349
0.00131896
0.00130357
0.00128735
0.00127037
0.0012527
0.00123441
0.00121555
0.00119611
0.00117607
0.00115533
0.00113377
0.00111121
0.00108748
0.00106248
0.00103639
0.00100968
0.000982988
0.000956961
0.000932102
0.000908737
0.000887067
0.000867237
0.000849327
0.000833353
0.000819258
0.000806908
0.000796097
0.000786556
0.00077797
0.000769963
0.000762095
0.000753918
0.000745021
0.000735014
0.00140913
0.0014102
0.0014106
0.00140948
0.001407
0.00140335
0.0013986
0.0013928
0.00138598
0.00137819
0.00136944
0.00135977
0.0013492
0.00133774
0.0013254
0.00131221
0.00129816
0.00128329
0.00126766
0.00125136
0.00123449
0.00121716
0.00119943
0.00118136
0.00116292
0.00114399
0.00112438
0.00110382
0.00108193
0.00105838
0.00103334
0.00100748
0.000981754
0.000957057
0.000934003
0.000912909
0.000893925
0.000877156
0.000862652
0.000850394
0.000840275
0.000832101
0.000825593
0.000820405
0.000816133
0.000812309
0.000808395
0.000803841
0.000798143
0.000790837
0.00138399
0.00138433
0.00138411
0.00138252
0.00137971
0.00137583
0.00137094
0.00136511
0.00135835
0.00135069
0.00134216
0.00133279
0.00132259
0.00131157
0.00129973
0.00128709
0.00127364
0.00125942
0.00124449
0.00122898
0.00121302
0.00119677
0.00118038
0.00116392
0.0011474
0.0011307
0.00111355
0.00109553
0.00107593
0.00105391
0.00102965
0.00100412
0.000978905
0.000955294
0.000934043
0.000915389
0.000899375
0.00088604
0.000875397
0.000867387
0.000861853
0.000858529
0.000857055
0.00085699
0.000857824
0.00085898
0.000859807
0.000859641
0.000857869
0.000853946
0.0013548
0.0013543
0.00135334
0.00135121
0.001348
0.00134385
0.00133881
0.00133292
0.00132622
0.00131873
0.00131048
0.00130147
0.00129173
0.00128125
0.00127003
0.00125805
0.0012453
0.00123182
0.00121768
0.00120302
0.00118801
0.00117291
0.00115794
0.00114328
0.001129
0.00111499
0.00110092
0.00108621
0.00106961
0.00104918
0.00102513
0.000998993
0.000973517
0.000950679
0.000931326
0.000915427
0.000902791
0.000893374
0.000887156
0.000884046
0.00088383
0.000886169
0.0008906
0.000896565
0.000903421
0.000910461
0.000916912
0.000921973
0.00092492
0.000925104
0.00132125
0.00131981
0.00131805
0.00131532
0.00131167
0.00130721
0.00130199
0.00129606
0.00128945
0.00128217
0.00127425
0.00126569
0.0012565
0.00124668
0.00123619
0.00122499
0.00121306
0.00120039
0.00118707
0.00117324
0.00115914
0.00114512
0.00113157
0.00111882
0.00110703
0.00109615
0.00108585
0.00107554
0.0010633
0.00104456
0.00101967
0.000991128
0.000964088
0.000941649
0.000924591
0.000912087
0.000903479
0.000898636
0.00089755
0.000900136
0.000906136
0.000915118
0.000926493
0.000939545
0.000953469
0.000967404
0.000980436
0.000991621
0.0010001
0.00100511
0.00128298
0.00128057
0.00127794
0.00127457
0.00127045
0.00126567
0.00126028
0.00125432
0.00124782
0.0012408
0.00123328
0.00122527
0.00121676
0.00120772
0.0011981
0.00118782
0.00117681
0.00116503
0.00115252
0.00113942
0.00112605
0.0011129
0.00110059
0.00108966
0.00108041
0.00107293
0.00106723
0.0010634
0.0010586
0.00104192
0.00101435
0.000979947
0.00094888
0.000926184
0.000912151
0.000904145
0.000900584
0.000901275
0.000906272
0.000915565
0.000928887
0.000945705
0.00096526
0.000986632
0.00100881
0.00103074
0.00105135
0.00106955
0.00108433
0.00109483
0.00123965
0.00123625
0.00123272
0.00122869
0.00122407
0.00121895
0.0012134
0.00120743
0.00120109
0.00119439
0.00118736
0.00118
0.0011723
0.0011642
0.00115563
0.00114645
0.00113651
0.00112569
0.00111395
0.0011014
0.00108838
0.00107562
0.00106404
0.00105449
0.00104747
0.00104354
0.00104383
0.00105079
0.00106048
0.00104631
0.00101275
0.00096565
0.000926331
0.000902594
0.000892729
0.000890734
0.000893367
0.00090066
0.000912992
0.00093039
0.000952475
0.000978606
0.00100783
0.00103895
0.00107071
0.0011018
0.00113098
0.00115699
0.00117871
0.00119516
0.0011909
0.00118647
0.00118203
0.00117731
0.0011722
0.00116676
0.00116105
0.0011551
0.00114896
0.00114265
0.0011362
0.00112963
0.0011229
0.00111596
0.00110866
0.00110081
0.00109215
0.00108241
0.0010714
0.0010591
0.0010458
0.00103247
0.00102059
0.00101162
0.00100645
0.00100585
0.00101261
0.00103632
0.00107422
0.0010663
0.00101838
0.000946813
0.000893571
0.000869972
0.00086634
0.000872307
0.000882256
0.000896807
0.000917463
0.000944593
0.000977448
0.00101488
0.00105561
0.00109815
0.00114093
0.00118236
0.001221
0.00125546
0.0012845
0.00130705
0.00113634
0.00113089
0.00112553
0.00112013
0.00111453
0.00110877
0.00110292
0.00109701
0.00109111
0.00108526
0.00107951
0.00107386
0.00106831
0.00106276
0.00105703
0.00105083
0.00104378
0.00103536
0.00102509
0.00101262
0.000997949
0.000982434
0.000968724
0.00095945
0.000955734
0.000957337
0.000969038
0.00102372
0.00111549
0.00111934
0.00104344
0.00091671
0.00085059
0.000833942
0.000834571
0.000850076
0.000868013
0.000890821
0.000920739
0.000958725
0.00100429
0.00105565
0.00111037
0.00116633
0.00122167
0.00127458
0.0013234
0.00136665
0.00140299
0.0014313
0.0010756
0.00106913
0.00106287
0.0010568
0.00105072
0.00104465
0.00103867
0.00103283
0.00102722
0.00102189
0.00101693
0.00101238
0.00100821
0.00100434
0.00100055
0.000996471
0.000991515
0.000984852
0.000975437
0.000962285
0.000944639
0.000924618
0.000907081
0.000896341
0.00089277
0.000894144
0.000907696
0.000963615
0.00187717
0.00273896
0.00221645
0.000853006
0.000794055
0.000782604
0.000801295
0.000822929
0.000849618
0.000884589
0.000925219
0.000974899
0.0010345
0.001102
0.0011737
0.00124569
0.00131535
0.00138075
0.00144019
0.00149214
0.00153524
0.00156839
0.0010083
0.00100086
0.000993721
0.000987005
0.000980458
0.000974094
0.000967988
0.000962231
0.000956924
0.000952178
0.000948098
0.000944763
0.000942194
0.000940322
0.000938928
0.000937578
0.000935458
0.000931252
0.0009231
0.000909073
0.000886426
0.000858067
0.000833642
0.000820748
0.000816326
0.000811087
0.000811457
0.00177421
0.00481432
0.00502141
0.00523372
0.00303583
0.000691112
0.000725225
0.000771689
0.000789664
0.000831906
0.000884085
0.000933491
0.00099499
0.00107027
0.00115605
0.00124711
0.00133777
0.00142381
0.00150269
0.00157283
0.00163291
0.00168169
0.00171819
0.000934084
0.000925726
0.00091777
0.00091044
0.00090344
0.000896777
0.000890543
0.000884858
0.000879859
0.0008757
0.000872539
0.000870515
0.000869718
0.000870154
0.000871663
0.000873779
0.000875452
0.000874911
0.000869454
0.000855392
0.000824416
0.00078039
0.00074439
0.00073012
0.000720114
0.000703815
0.000718251
0.00344788
0.00516771
0.00508062
0.00516747
0.00430241
0.000723381
0.000716289
0.000794451
0.00100203
0.000820954
0.000878015
0.000941971
0.00101763
0.00111151
0.00121922
0.00133262
0.00144369
0.00154749
0.00164074
0.00172147
0.00178872
0.0018417
0.00187967
0.000852611
0.000843426
0.000834714
0.000826804
0.000819363
0.000812392
0.000806004
0.000800351
0.000795611
0.000791991
0.000789715
0.000789006
0.000790067
0.000793033
0.000797866
0.000804196
0.000811067
0.000816662
0.000817528
0.00080782
0.000762883
0.000690457
0.000632493
0.000613905
0.000613868
0.000599244
0.000525652
0.000734153
0.00254955
0.00325089
0.00193036
0.000870742
0.00072032
0.000722136
0.000756081
0.000807101
0.000824324
0.000873017
0.00094486
0.00103573
0.00115319
0.00128963
0.00143071
0.00156421
0.00168572
0.00179288
0.00188382
0.00195731
0.00201298
0.00205058
0.000763559
0.000753655
0.000744265
0.000735815
0.000727938
0.000720634
0.000714038
0.000708334
0.000703746
0.000700538
0.000699011
0.000699493
0.000702322
0.000707793
0.000716079
0.000727362
0.000742009
0.000759558
0.000776047
0.000786229
0.000729206
0.000607389
0.000493588
0.000502973
0.000527081
0.000530683
0.000573539
0.000514091
0.000702386
0.000710886
0.000813687
0.000779416
0.000719125
0.000703753
0.000721553
0.000755657
0.000801648
0.000858397
0.000930723
0.00103407
0.00118305
0.00136051
0.00153889
0.00169755
0.00183606
0.00195515
0.0020546
0.00213349
0.00219106
0.00222736
0.000666636
0.000656139
0.000646163
0.000637213
0.000628896
0.000621215
0.000614323
0.000608439
0.00060383
0.000600819
0.000599782
0.000601143
0.000605353
0.000612859
0.000624256
0.000640816
0.000665606
0.000702867
0.000767761
0.000845866
0.000858191
0.000663342
0.000338322
0.000383721
0.000450904
0.000477126
0.000486943
0.000507612
0.00057874
0.000625702
0.000669698
0.00066657
0.00065182
0.000651301
0.000673256
0.000838268
0.000765423
0.000817449
0.000883775
0.000993947
0.00118565
0.00142383
0.00165412
0.00183883
0.00199201
0.0021202
0.00222579
0.00230906
0.00236909
0.00240504
0.000561595
0.000550652
0.000540196
0.000530788
0.000522019
0.000513893
0.000506586
0.000500345
0.000495479
0.00049236
0.000491421
0.00049313
0.000497948
0.000506441
0.00051985
0.000540406
0.000574223
0.000632923
0.000756257
0.0012977
0.0033145
0.00415912
0.00148571
0.000404077
0.000428981
0.000420019
0.000422851
0.000439969
0.000481112
0.00052733
0.000565391
0.00057746
0.000578345
0.000585578
0.000616308
0.000667259
0.0006998
0.00073941
0.00077894
0.000882335
0.00113376
0.00146333
0.00177501
0.0019819
0.00214305
0.00227595
0.00238581
0.00247355
0.00253826
0.00257778
0.000448267
0.000437044
0.000426227
0.000416406
0.000407162
0.000398504
0.000390628
0.00038381
0.000378394
0.000374788
0.000373444
0.000374798
0.000379193
0.000387108
0.000399629
0.000418387
0.00044559
0.000496587
0.000665435
0.00311021
0.00372959
0.00366256
0.0014244
0.000524446
0.000417041
0.000358663
0.000340699
0.0003526
0.000520234
0.000434413
0.000472438
0.00048938
0.000495701
0.000503567
0.000528198
0.000602786
0.000667727
0.000656134
0.000559898
0.000621326
0.00101973
0.00149243
0.00191076
0.00213084
0.00227869
0.00240609
0.00251958
0.00261484
0.0026893
0.00273968
0.000326581
0.000315269
0.000304224
0.000294032
0.000284277
0.000274978
0.000266351
0.000258697
0.00025239
0.000247869
0.000245592
0.000245934
0.000249126
0.000255496
0.000265412
0.000278577
0.000292065
0.000308729
0.000444649
0.00378623
0.00362859
0.00221052
0.000782581
0.000522071
0.000353837
0.000257993
0.000225228
0.000244763
0.000291138
0.000315677
0.000425836
0.000397685
0.000403381
0.00038703
0.00041683
0.00047819
0.000554607
0.000499919
0.000178308
0.000257847
0.00103348
0.00165185
0.00212942
0.00231283
0.00238755
0.00249065
0.00261009
0.0027204
0.00281381
0.00288578
0.000196594
0.0001854
0.000174267
0.000163742
0.000153426
0.00014335
0.00013375
0.000124951
0.000117357
0.000111441
0.000107685
0.00010645
0.000107976
0.000112518
0.000119938
0.00012911
0.000136478
0.000115008
-3.45591e-05
0.00106672
0.00225831
0.000670924
0.000580456
0.000380171
0.000205338
8.33369e-05
5.40846e-05
9.37768e-05
0.000145648
0.000192231
0.000243875
0.000291169
0.000503488
0.000606452
0.000377017
0.000292307
0.000593187
0.000605823
-0.000156135
0.00484389
0.0164433
0.0160593
0.00506703
0.00250301
0.00240181
0.00250412
0.00263895
0.00277881
0.00290515
0.00301242
5.84903e-05
4.76329e-05
3.65514e-05
2.57222e-05
1.47712e-05
3.75075e-06
-7.09182e-06
-1.74094e-05
-2.67633e-05
-3.46297e-05
-4.04627e-05
-4.37847e-05
-4.40231e-05
-4.03021e-05
-3.18405e-05
-1.80701e-05
9.61895e-07
1.86894e-05
0.000229112
0.000130452
0.000393061
0.000466838
0.000359523
0.000214414
1.52504e-05
-0.000163635
-0.000197282
-0.000106245
-2.12498e-05
5.12278e-05
0.000218034
0.00101768
0.00141886
0.00150701
0.00140877
0.000325782
0.000833762
0.00145256
-0.000180104
0.0158552
0.015338
0.0151284
0.0140318
0.0029809
0.00219829
0.00237281
0.00257906
0.00277815
0.00295859
0.00311641
-8.7414e-05
-9.77162e-05
-0.000108614
-0.000119738
-0.000131422
-0.000143597
-0.000156009
-0.000168297
-0.000179995
-0.000190531
-0.000199291
-0.000205629
-0.000208528
-0.000206315
-0.000196944
-0.000178482
-0.000148473
-9.21155e-05
-1.27758e-05
0.000103035
0.000296425
0.000369848
0.000226336
8.41243e-05
-0.000165178
-0.000551471
-0.000618982
-0.000365354
-0.000206872
-8.55273e-05
0.001252
0.00167663
0.00132158
0.00142563
0.00148517
0.00131917
-0.000182158
0.00126347
0.00117906
0.0101112
0.0136906
0.0149215
0.0161554
0.00419626
0.00172206
0.00207028
0.00243014
0.00272679
0.00297783
0.00319537
-0.000240677
-0.000250216
-0.000260812
-0.000272239
-0.000284784
-0.000298362
-0.000312724
-0.00032751
-0.000342245
-0.000356343
-0.000369165
-0.000379937
-0.000387252
-0.000388778
-0.000381409
-0.000361257
-0.000323175
-0.000257849
-0.000149433
4.10745e-05
0.000331938
0.00043334
0.000157043
0.00124575
0.00264923
0.000683979
-0.00115739
-0.000597111
-0.000397946
-0.000276293
0.00216081
0.00149637
0.000697256
3.4538e-05
-0.000208047
0.000498814
0.00119065
-0.000870039
0.00189598
0.00132035
0.0113541
0.0148736
0.0146554
0.00132424
0.00112874
0.00183701
0.00231861
0.00267509
0.00297687
0.00324622
-0.000400728
-0.000409314
-0.000419509
-0.000431267
-0.000444823
-0.000460081
-0.000476808
-0.000494666
-0.000513207
-0.00053189
-0.000550144
-0.000567204
-0.000581547
-0.000590659
-0.00059108
-0.000578117
-0.000545244
-0.000484633
-0.000362804
5.64265e-05
0.000539403
0.000881294
0.00135667
0.00489569
0.00603804
0.00656953
-0.00127505
-0.000470776
-0.000607735
-0.000234074
-0.000375236
-0.00028013
2.71617e-05
0.000176008
-3.16862e-06
-0.000462768
-0.0016219
-0.000444331
-0.00105086
-8.12028e-05
-0.00133985
-0.00066939
0.000206811
-8.29127e-05
0.000999973
0.00186233
0.00231364
0.00265268
0.00295549
0.00325509
-0.000566863
-0.000574328
-0.000584041
-0.000596176
-0.000610906
-0.000628132
-0.000647648
-0.00066916
-0.000692288
-0.000716602
-0.000741698
-0.000766999
-0.000791217
-0.000812288
-0.00082754
-0.000833247
-0.000823661
-0.000793889
-0.000711214
-0.000420655
0.000701973
0.00169042
0.00282947
0.00503706
0.00548252
0.00452437
-0.0010071
-0.000549772
-0.000953219
0.000996816
-0.000459762
0.000110258
0.000103404
-0.000174392
-0.00049414
-0.00100382
-0.00176404
-0.00271041
-0.000762963
-0.00177583
-0.00220756
-0.000666385
-0.000140034
0.000696383
0.00171325
0.00226667
0.00242943
0.00263097
0.00287927
0.00319041
-0.000738237
-0.000744442
-0.000753614
-0.000766183
-0.000782258
-0.000801733
-0.000824445
-0.000850163
-0.000878606
-0.000909495
-0.000942653
-0.000977821
-0.00101421
-0.00105073
-0.00108672
-0.00112277
-0.0011577
-0.00119507
-0.00127743
-0.00112157
-0.000578236
-0.00104773
-0.000580055
0.00477053
0.00491419
0.000285901
-0.000744857
-0.000719619
-0.000866161
0.000112848
-0.000550277
-1.75394e-05
-0.000279402
-0.000466767
-0.000761895
-0.00131706
-0.00218986
-0.00335821
-0.00464787
-0.00421118
-0.00389478
-0.0019826
-0.000317185
0.00155952
0.00254644
0.0027122
0.00254391
0.00249634
0.00266792
0.00300151
-0.000913876
-0.000918708
-0.000927307
-0.000940381
-0.00095797
-0.000979967
-0.00100625
-0.00103668
-0.00107106
-0.00110926
-0.00115131
-0.0011972
-0.00124649
-0.00129851
-0.00135292
-0.00141005
-0.0014701
-0.00152804
-0.00151402
0.000638998
0.00190939
0.000610073
-0.000319588
-0.000395542
-0.000179671
-0.00086431
-0.000852592
-0.000858519
-0.000834987
-0.00056135
-0.000323838
-0.000179342
0.000232294
-0.000467304
-0.000746402
-0.00133467
-0.00237064
-0.00379944
-0.00521224
-0.00714211
-0.00780675
-0.0072507
-0.00211692
0.00277981
0.00413124
0.00349164
0.00250311
0.00204296
0.00219437
0.00262577
-0.00109269
-0.00109608
-0.00110409
-0.00111776
-0.00113704
-0.00116182
-0.00119204
-0.00122762
-0.00126847
-0.00131457
-0.0013661
-0.00142329
-0.00148597
-0.00155389
-0.0016273
-0.00170674
-0.00179303
-0.00187597
-0.00142394
0.00221509
0.00190132
0.00102077
-0.00117829
0.000259122
-0.000448661
-0.000901241
-0.00101472
-0.000992851
-0.000883722
-0.000668961
-0.000509744
0.000169688
0.000449388
-0.000104084
-0.000354361
-0.000941213
-0.00219869
-0.00438255
-0.00690744
-0.0088326
-0.00416819
-0.00475877
-0.00123483
0.0078447
0.00764707
0.0046308
0.00189646
0.000828348
0.00122454
0.00203369
-0.00127351
-0.00127541
-0.00128288
-0.00129725
-0.0013184
-0.00134623
-0.00138072
-0.00142184
-0.0014696
-0.00152405
-0.00158545
-0.00165422
-0.00173044
-0.00181408
-0.00190555
-0.00200583
-0.0021191
-0.00223741
-0.00177276
0.00246179
0.00241605
0.000152531
-0.00131404
-0.000965044
-0.00108192
-0.00124031
-0.00128813
-0.00121226
-0.00105385
-0.000826105
-0.000239656
0.000362814
0.000194069
0.000267921
0.00041984
0.000127853
-0.00116666
-0.00469361
-0.00654449
-0.00658418
-0.0130002
-0.0148504
0.00186602
0.0173864
0.012772
0.00580398
0.000394387
-0.00130623
-0.000262284
0.0015607
-0.00145509
-0.00145552
-0.00146251
-0.00147772
-0.00150095
-0.0015321
-0.00157118
-0.00161823
-0.00167328
-0.00173644
-0.001808
-0.00188849
-0.00197825
-0.00207764
-0.00218782
-0.00231168
-0.00245643
-0.00263871
-0.00287387
-0.000772446
0.00267421
-0.00215264
-0.00196908
-0.00178011
-0.00166404
-0.00173144
-0.00165841
-0.00150632
-0.00127411
-0.000975388
-0.000570452
-5.00896e-05
0.00062847
0.0010869
0.0015266
0.0023359
0.00211498
-0.00249245
-0.00210504
-0.0127082
-0.0232544
-0.0363312
-0.00911926
0.0222031
0.0187619
0.00722476
-0.00122025
-0.00332598
-0.00126821
0.00187267
-0.00163617
-0.00163517
-0.00164178
-0.00165798
-0.00168352
-0.00171827
-0.00176228
-0.00181562
-0.00187835
-0.00195054
-0.00203245
-0.00212452
-0.00222709
-0.00234023
-0.00246446
-0.0026014
-0.00275627
-0.0029404
-0.00314216
-0.00326125
-0.00299418
-0.00299382
-0.00266882
-0.00245305
-0.00235029
-0.00224347
-0.0020927
-0.00186841
-0.0015524
-0.00111992
-0.000512115
0.00025759
0.00111632
0.00197692
0.00474142
0.00468957
0.00650567
0.00611911
-0.00432233
-0.00472696
-0.0323035
-0.12681
-0.0607511
0.0315114
0.0387285
0.0136772
0.000416681
-0.00293008
0.00105297
-0.00202573
-0.00181542
-0.00181307
-0.00181942
-0.0018368
-0.00186487
-0.00190351
-0.00195278
-0.0020128
-0.0020836
-0.00216522
-0.00225777
-0.00236149
-0.00247645
-0.00260214
-0.00273784
-0.00288304
-0.00303813
-0.00320121
-0.00335588
-0.00344059
-0.00340946
-0.00332101
-0.00318514
-0.00303454
-0.00291437
-0.00277603
-0.0025843
-0.00231118
-0.00193324
-0.00142132
-0.000720612
0.000283511
0.0015935
0.0032689
0.0050393
0.00825928
0.00981918
0.00995454
0.00646755
-2.62457e-05
0.00272736
0.121528
1.99826
0.23795
0.197057
0.0224124
-0.103984
-0.124342
-0.0322785
0.582746
-0.00199152
-0.00198789
-0.00199413
-0.00201286
-0.00204371
-0.00208652
-0.00214142
-0.00220852
-0.00228785
-0.00237939
-0.00248309
-0.0025989
-0.0027266
-0.00286515
-0.00301281
-0.00316731
-0.00332562
-0.0034816
-0.00362241
-0.0037229
-0.00375325
-0.00372986
-0.00367008
-0.00358345
-0.00348119
-0.00334057
-0.00313543
-0.00284634
-0.00243951
-0.00187997
-0.00096784
0.0005041
0.00159614
0.00421313
0.00675886
0.0114336
0.0160094
0.0190991
0.0170894
0.0111168
-0.0189123
-0.0232617
-0.348423
0.756203
0.146548
-0.550217
4.21232
19.9835
37.0645
40.0698
-0.00216307
-0.00215828
-0.00216454
-0.00218482
-0.00221868
-0.00226598
-0.00232687
-0.00240148
-0.00248984
-0.00259189
-0.00270739
-0.00283607
-0.00297741
-0.00313005
-0.0032916
-0.00345881
-0.00362738
-0.00379108
-0.00394018
-0.00406028
-0.00413339
-0.00416783
-0.00416758
-0.00413292
-0.00406293
-0.00394336
-0.00371274
-0.00347833
-0.00308071
-0.00251341
-0.0016726
0.000986974
0.0024989
0.00386614
0.00753055
0.0183543
0.0224547
0.0221664
0.0270209
0.0282623
0.0323906
0.123106
3.69942
8.37117
12.1333
27.1649
42.3811
45.3572
47.021
46.2602
-0.00232868
-0.00232283
-0.00232927
-0.0023513
-0.00238842
-0.0024405
-0.00250775
-0.0025903
-0.00268821
-0.00280134
-0.00292938
-0.00307182
-0.0032279
-0.00339609
-0.00357368
-0.00375698
-0.0039414
-0.0041212
-0.00428868
-0.00443402
-0.00454752
-0.00462898
-0.00467951
-0.00468988
-0.00466158
-0.00458418
-0.00443987
-0.00421196
-0.00386844
-0.00339186
-0.0026678
-0.00147563
0.000265626
0.00269897
0.0102496
0.0300319
0.04417
0.0466441
0.0372434
-0.00612943
0.158168
4.5935
11.2786
27.0101
40.43
41.2719
42.3465
43.6665
44.5803
44.494
-0.00248694
-0.00248015
-0.00248691
-0.00251087
-0.00255148
-0.00260863
-0.00268256
-0.00277345
-0.00288136
-0.00300614
-0.0031474
-0.00330447
-0.00347635
-0.00366141
-0.00385683
-0.00405877
-0.00426264
-0.00446315
-0.00465405
-0.00482825
-0.00497969
-0.00510679
-0.00520125
-0.00525119
-0.00528124
-0.00526062
-0.00518248
-0.00504347
-0.00482811
-0.00452261
-0.00404595
-0.00320685
-0.00151396
0.00154909
0.00946386
0.0479478
0.0691379
0.114815
0.121998
-0.456114
8.01089
19.7169
33.3887
37.9521
39.4671
40.5549
41.5895
42.5279
43.1527
43.2617
-0.00263639
-0.00262879
-0.00263604
-0.00266209
-0.00270639
-0.00276884
-0.00284971
-0.00294925
-0.00306753
-0.00320442
-0.00335947
-0.00353188
-0.00372042
-0.00392332
-0.00413779
-0.00435997
-0.00458534
-0.00480901
-0.00502586
-0.00523073
-0.00541691
-0.00558746
-0.0057294
-0.00546393
-0.00591771
-0.00596081
-0.0059632
-0.00593291
-0.00588958
-0.00589318
-0.00596913
-0.00614957
-0.00653706
-0.00498105
0.00249995
0.0544456
0.0713009
0.157098
0.342863
8.95479
28.8231
36.6924
37.5606
38.2211
39.1679
40.1364
41.0167
41.7546
42.241
42.4002
-0.00277559
-0.00276729
-0.00277516
-0.00280346
-0.00285159
-0.00291949
-0.00300749
-0.00311588
-0.00324479
-0.00339409
-0.00356331
-0.00375152
-0.00395727
-0.00417859
-0.00441268
-0.00465576
-0.00490341
-0.00515113
-0.00539467
-0.00563014
-0.00585324
-0.00606017
-0.00625376
-0.00642818
-0.00656089
-0.00666599
-0.00674603
-0.00681171
-0.00692784
-0.00719457
-0.00778264
-0.00893272
-0.0111113
-0.00805776
0.0163526
0.0224247
0.0454531
-0.0766588
7.99566
28.0951
35.8816
37.1946
37.8691
38.4451
39.1712
39.9439
40.6644
41.2592
41.6601
41.8264
-0.00290304
-0.00289416
-0.00290276
-0.00293341
-0.00298546
-0.00305888
-0.00315408
-0.00327141
-0.00341105
-0.00357289
-0.00375642
-0.00396058
-0.00418372
-0.00442358
-0.00467725
-0.00494104
-0.00521072
-0.00548225
-0.00575218
-0.00601788
-0.00627696
-0.00652733
-0.00676876
-0.00699299
-0.00719214
-0.00736496
-0.00751096
-0.00739734
-0.00783084
-0.00817413
-0.00892738
-0.0104656
-0.013349
-0.0186179
-0.0133223
-9.78133e-05
0.123192
6.10753
22.1415
37.3543
37.3579
37.8806
38.3009
38.7447
39.3145
39.9237
40.4961
40.9737
41.3063
41.4639
-0.00301725
-0.0030079
-0.00301733
-0.00305037
-0.00310636
-0.0031853
-0.00328765
-0.00341386
-0.00356415
-0.00373842
-0.00393611
-0.00415604
-0.00439632
-0.00465439
-0.00492707
-0.00521069
-0.00550136
-0.00579561
-0.006091
-0.00638632
-0.0066811
-0.00697454
-0.00726539
-0.00754842
-0.00781483
-0.00805226
-0.00826111
-0.0084451
-0.00860483
-0.00885207
-0.00936034
-0.0105738
-0.0133216
-0.0192863
-0.0325192
-0.097072
4.04605
12.5495
33.2339
37.7964
37.9646
38.3516
38.7056
39.087
39.5437
40.0168
40.4598
40.8339
41.1027
41.2417
-0.00311675
-0.00310706
-0.00311738
-0.00315281
-0.00321267
-0.00329701
-0.00340634
-0.00354119
-0.00370183
-0.00388816
-0.00409957
-0.00433473
-0.0045915
-0.00486697
-0.00515761
-0.0054597
-0.00576973
-0.00608504
-0.00640446
-0.00672863
-0.00705925
-0.00739759
-0.0077431
-0.0080908
-0.00842897
-0.00874194
-0.00901285
-0.00922079
-0.00934282
-0.00934311
-0.00913669
-0.00858083
-0.00776952
-0.0050414
0.0107878
2.34065
10.4164
27.4205
37.07
37.9344
38.3054
38.6743
39.0496
39.4229
39.8021
40.1669
40.5005
40.7819
40.988
41.1004
-0.00320015
-0.00319024
-0.00320149
-0.00323925
-0.00330284
-0.00339232
-0.0035083
-0.00365136
-0.00382181
-0.00401956
-0.00424394
-0.00449342
-0.00476561
-0.00505722
-0.00536439
-0.00568324
-0.00601062
-0.00634487
-0.00668652
-0.00703848
-0.00740512
-0.00779029
-0.00819487
-0.00861403
-0.0090354
-0.00944007
-0.00980451
-0.0100972
-0.0102639
-0.0101877
-0.00955321
-0.00788462
-0.00555316
-0.000646984
0.0621494
2.66042
16.2589
39.9885
38.8332
38.6851
38.8154
39.0803
39.414
39.7477
40.0566
40.3327
40.5732
40.7722
40.9182
40.9993
-0.00326609
-0.00325611
-0.00326834
-0.00330832
-0.00337538
-0.00346963
-0.00359174
-0.00374235
-0.00392182
-0.00413008
-0.00436634
-0.00462891
-0.00491505
-0.00522114
-0.005543
-0.00587661
-0.0062191
-0.00656993
-0.00693165
-0.00730991
-0.00771229
-0.00814572
-0.00861335
-0.00911178
-0.00963008
-0.0101519
-0.0106589
-0.0111303
-0.0115313
-0.0117919
-0.0117549
-0.0111432
-0.00949041
-0.00480064
0.0231993
2.50979
29.9292
40.4608
39.6326
39.3309
39.3279
39.5086
39.7767
40.0488
40.2883
40.4867
40.6477
40.7751
40.8668
40.9159
-0.00331336
-0.00330346
-0.00331668
-0.00335872
-0.00342892
-0.00352742
-0.00365497
-0.00381227
-0.00399974
-0.0042173
-0.00446406
-0.0047381
-0.00503638
-0.00535494
-0.00568927
-0.00603525
-0.0063904
-0.00675532
-0.00713467
-0.00753722
-0.00797415
-0.00845604
-0.00898903
-0.00957224
-0.0101979
-0.0108555
-0.0115373
-0.0122408
-0.0129632
-0.013708
-0.0144858
-0.0150485
-0.0142688
-0.0115183
-0.0443914
5.99793
40.6831
40.7056
40.251
39.9445
39.8527
39.9394
40.1215
40.3176
40.4855
40.6134
40.7071
40.7755
40.8213
40.8404
-0.00334084
-0.00333117
-0.00334537
-0.00338925
-0.00346217
-0.00356429
-0.00369644
-0.0038594
-0.00405362
-0.004279
-0.00453454
-0.00481812
-0.00512642
-0.00545509
-0.00579935
-0.006155
-0.00652002
-0.00689623
-0.00729051
-0.00771475
-0.00818396
-0.00871269
-0.00931075
-0.00998067
-0.010719
-0.0115218
-0.0123922
-0.0133416
-0.0143858
-0.0155457
-0.016845
-0.0180335
-0.017635
-0.0136849
-0.0256142
23.3416
42.5372
41.7545
41.0753
40.6107
40.3863
40.3557
40.4381
40.5478
40.6425
40.7069
40.7455
40.7682
40.7788
40.7748
-0.00334759
-0.0033383
-0.00335345
-0.00339889
-0.00347401
-0.00357902
-0.00371479
-0.00388218
-0.00408166
-0.00431311
-0.00457543
-0.00486632
-0.00518219
-0.00551834
-0.0058697
-0.00623206
-0.00660388
-0.00698823
-0.00739419
-0.00783678
-0.00833479
-0.00890672
-0.0095663
-0.0103202
-0.0111702
-0.0121205
-0.0131854
-0.0143915
-0.0157761
-0.0173887
-0.0192653
-0.0211596
-0.0220381
-0.0264218
-0.138024
42.9448
44.7808
42.919
41.8463
41.1919
40.8413
40.705
40.6919
40.723
40.7525
40.7641
40.7609
40.7508
40.7372
40.7176
0.000523858
0.000509616
0.000495736
0.000481927
0.000467866
0.000453205
0.000437592
0.000420682
0.000402136
0.00038163
0.000358864
0.000333574
0.000305566
0.000274675
0.000240835
0.00020402
0.000164272
0.000121708
7.65226e-05
2.89531e-05
-2.07231e-05
-7.21758e-05
-0.000125028
-0.00017892
-0.000233487
-0.000288349
-0.000343167
-0.000397618
-0.000451407
-0.000504289
-0.000556014
-0.000606401
-0.00065527
-0.000702443
-0.000747736
-0.00079097
-0.000831985
-0.00087064
-0.000906811
-0.000940425
-0.000971451
-0.000999896
-0.0010258
-0.0010493
-0.00107055
-0.00108973
-0.00110702
-0.00112232
-0.001135
-0.00114348
0.000553477
0.000538702
0.000523857
0.000508668
0.000492842
0.000476071
0.000458058
0.000438519
0.000417179
0.000393774
0.000368065
0.000339862
0.000309012
0.000275425
0.000239056
0.000199918
0.000158073
0.000113646
6.68353e-05
1.78827e-05
-3.29457e-05
-8.53483e-05