/*--------------------------------*- C++ -*----------------------------------*\
| =========                 |                                                 |
| \\      /  F ield         | OpenFOAM: The Open Source CFD Toolbox           |
|  \\    /   O peration     | Version:  2.4.0                                 |
|   \\  /    A nd           | Web:      www.OpenFOAM.org                      |
|    \\/     M anipulation  |                                                 |
\*---------------------------------------------------------------------------*/
FoamFile
{
    version     2.0;
    format      ascii;
    class       volVectorField;
    location    "0.05";
    object      U;
}
// * * * * * * * * * * * * * * * * * * * * * * * * * * * * * * * * * * * * * //

dimensions      [0 1 -1 0 0 0 0];

internalField   nonuniform List<vector> 
3600
(
(-0.00117942 7.02391e-05 0)
(-0.00358792 7.1519e-05 0)
(-0.0060218 7.42672e-05 0)
(-0.0084014 6.98177e-05 0)
(-0.0104059 4.55859e-05 0)
(-0.0116455 -4.72361e-06 0)
(-0.0116623 -0.000101628 0)
(-0.00977156 -0.000258006 0)
(-0.00541767 -0.000489226 0)
(0.00201001 -0.000757371 0)
(0.012455 -0.0010543 0)
(0.0252606 -0.00136872 0)
(0.0395941 -0.00161946 0)
(0.0541224 -0.00180058 0)
(0.0690058 -0.00209375 0)
(0.0804826 -0.00194964 0)
(0.0957848 -0.00305263 0)
(0.0950101 0.00679855 0)
(0.035275 0.0175314 0)
(-0.164981 -0.00167961 0)
(-0.185943 -0.0463601 0)
(-0.0174439 -0.0697725 0)
(-0.03151 -0.0539326 0)
(0.131566 -0.0499543 0)
(0.197092 -0.0278092 0)
(0.172316 0.00224971 0)
(0.114555 0.0243199 0)
(0.0788627 0.0224421 0)
(0.0469276 0.0272202 0)
(0.00864411 0.0348607 0)
(-0.00145475 0.000254096 0)
(-0.00447502 0.000288496 0)
(-0.00765013 0.000320945 0)
(-0.0109372 0.000334979 0)
(-0.0139779 0.00028579 0)
(-0.0163458 0.000156449 0)
(-0.0175623 -0.000120489 0)
(-0.0168748 -0.000599919 0)
(-0.0136446 -0.00132897 0)
(-0.00711777 -0.00224737 0)
(0.00272343 -0.00323406 0)
(0.015178 -0.00424662 0)
(0.0292351 -0.0050321 0)
(0.0432554 -0.00552572 0)
(0.0570924 -0.00616276 0)
(0.066614 -0.00546187 0)
(0.0800805 -0.006838 0)
(0.0696713 0.0239549 0)
(0.060558 0.0681903 0)
(-0.102876 0.0751555 0)
(-0.118951 -0.00443034 0)
(-0.0532957 -0.0465184 0)
(-0.0657146 -0.0853556 0)
(0.0968098 -0.0875599 0)
(0.115303 -0.00721679 0)
(0.0973005 0.0426246 0)
(0.0774646 0.0519398 0)
(0.0701254 0.0496992 0)
(0.0574399 0.0582669 0)
(0.0167344 0.0385294 0)
(-0.00148441 0.000454964 0)
(-0.0045759 0.000517343 0)
(-0.00785147 0.000586968 0)
(-0.0112842 0.000631594 0)
(-0.0145231 0.000573495 0)
(-0.0171547 0.000389846 0)
(-0.0187161 -3.7522e-05 0)
(-0.018462 -0.000798022 0)
(-0.0157431 -0.0019709 0)
(-0.00976383 -0.00351598 0)
(-0.000498049 -0.00513801 0)
(0.0113563 -0.00674045 0)
(0.0247246 -0.00793495 0)
(0.0377379 -0.00852949 0)
(0.0502484 -0.00908652 0)
(0.0566636 -0.00703629 0)
(0.0674572 -0.00684722 0)
(0.0481111 0.0300411 0)
(0.0815483 0.0889588 0)
(-0.0323058 0.0935286 0)
(-0.0322434 -0.0373676 0)
(0.017891 -0.093204 0)
(0.0462872 -0.130905 0)
(0.0591924 -0.13746 0)
(0.0602264 -0.0211512 0)
(0.0655194 0.0498516 0)
(0.0508099 0.0518699 0)
(0.0675382 0.0578051 0)
(0.0520286 0.088962 0)
(0.035736 0.0965975 0)
(-0.00148495 0.000656567 0)
(-0.00458075 0.000749574 0)
(-0.00786778 0.000857579 0)
(-0.0113244 0.000934032 0)
(-0.0146024 0.000868343 0)
(-0.0172965 0.000631405 0)
(-0.0189533 5.264e-05 0)
(-0.0188314 -0.00098774 0)
(-0.0162739 -0.00261181 0)
(-0.0104411 -0.00479285 0)
(-0.00128973 -0.0070839 0)
(0.0104991 -0.00928493 0)
(0.0238466 -0.010881 0)
(0.036712 -0.0115641 0)
(0.0492439 -0.0118697 0)
(0.0542826 -0.00852749 0)
(0.068195 -0.00746806 0)
(0.0421173 0.025706 0)
(0.109571 0.0915804 0)
(0.0566739 0.10503 0)
(0.0699286 -0.0228846 0)
(0.0585401 -0.103331 0)
(0.0897565 -0.123315 0)
(0.0872437 -0.0938017 0)
(0.0210726 -0.0115669 0)
(0.0389955 0.0481351 0)
(0.0273863 0.0358255 0)
(0.0390695 0.0619189 0)
(0.0242797 0.10225 0)
(0.0221425 0.157457 0)
(-0.00148155 0.000857724 0)
(-0.00457321 0.000981843 0)
(-0.00786109 0.00112882 0)
(-0.0113276 0.00123798 0)
(-0.0146258 0.00116623 0)
(-0.017358 0.000878781 0)
(-0.0190818 0.000156335 0)
(-0.0190599 -0.00115999 0)
(-0.0166304 -0.00323331 0)
(-0.0109026 -0.00605479 0)
(-0.00180392 -0.0090257 0)
(0.0100093 -0.0118355 0)
(0.0234836 -0.0138443 0)
(0.0364626 -0.0146292 0)
(0.0495326 -0.0146502 0)
(0.0540804 -0.0103749 0)
(0.0737944 -0.00682468 0)
(0.0420213 0.02294 0)
(0.132225 0.0740274 0)
(0.104779 0.121327 0)
(0.179335 -0.0011715 0)
(0.10665 -0.110387 0)
(0.104399 -0.145154 0)
(0.101823 -0.0964325 0)
(0.0702862 0.0360296 0)
(0.0175281 0.0467702 0)
(-0.0334805 0.0469857 0)
(-0.0356938 0.0817822 0)
(-0.022512 0.130291 0)
(-0.0153349 0.153354 0)
(-0.00147685 0.00105836 0)
(-0.00456223 0.0012138 0)
(-0.00784961 0.00140033 0)
(-0.0113261 0.00154307 0)
(-0.0146458 0.00146687 0)
(-0.0174202 0.00113202 0)
(-0.0192203 0.000270086 0)
(-0.0193147 -0.0013165 0)
(-0.0170376 -0.003837 0)
(-0.0114354 -0.00730595 0)
(-0.0023921 -0.0109714 0)
(0.00946686 -0.0144131 0)
(0.0231302 -0.0168596 0)
(0.0363407 -0.0178073 0)
(0.050166 -0.0176301 0)
(0.0550314 -0.0134335 0)
(0.0816219 -0.00875803 0)
(0.0481009 0.0142828 0)
(0.143588 0.0458567 0)
(0.143988 0.0962931 0)
(0.191261 0.00883372 0)
(0.172725 -0.0742326 0)
(0.138502 -0.130716 0)
(0.128322 -0.103145 0)
(0.0897883 0.0170424 0)
(0.0646067 0.110782 0)
(-0.0055552 0.0887928 0)
(-0.0274769 0.050641 0)
(-0.0275221 0.0979207 0)
(-0.00535159 0.102749 0)
(-0.00147106 0.00125842 0)
(-0.00454861 0.00144539 0)
(-0.00783502 0.00167217 0)
(-0.011323 0.00184956 0)
(-0.0146677 0.00177082 0)
(-0.0174916 0.00139235 0)
(-0.019382 0.000396983 0)
(-0.0196152 -0.0014519 0)
(-0.0175234 -0.00441685 0)
(-0.0120753 -0.00854184 0)
(-0.00309738 -0.0129202 0)
(0.00882088 -0.0170194 0)
(0.0227114 -0.0199294 0)
(0.0362267 -0.0210962 0)
(0.0507385 -0.0207254 0)
(0.0561332 -0.0170799 0)
(0.0874637 -0.00934352 0)
(0.0481481 0.00851189 0)
(0.163051 0.0163133 0)
(0.164015 0.0808576 0)
(0.179522 0.0135294 0)
(0.181732 -0.0757048 0)
(0.136722 -0.114308 0)
(0.0822751 -0.0231965 0)
(0.028808 0.110661 0)
(0.0343532 0.167446 0)
(0.0230446 0.126721 0)
(-0.0217669 0.0859908 0)
(-0.0289239 0.0811612 0)
(9.91358e-05 0.0886958 0)
(-0.0014642 0.00145779 0)
(-0.00453238 0.00167654 0)
(-0.00781739 0.0019444 0)
(-0.0113185 0.0021577 0)
(-0.0146918 0.00207865 0)
(-0.0175724 0.00166098 0)
(-0.0195672 0.000539381 0)
(-0.0199627 -0.00156261 0)
(-0.018091 -0.00496897 0)
(-0.0128281 -0.00975948 0)
(-0.00392823 -0.0148744 0)
(0.00806046 -0.0196569 0)
(0.0222159 -0.0230709 0)
(0.0361136 -0.0245188 0)
(0.0512751 -0.0241233 0)
(0.0579765 -0.0220555 0)
(0.0921102 -0.0111165 0)
(0.0548329 -0.00446864 0)
(0.161763 -0.0209368 0)
(0.207964 0.07565 0)
(0.177819 0.0126494 0)
(0.222895 -0.0638449 0)
(0.204376 -0.0894673 0)
(0.119463 -0.0424872 0)
(0.0950642 0.0689872 0)
(0.077432 0.125965 0)
(0.0642111 0.138419 0)
(0.0172791 0.120243 0)
(0.000712395 0.0841428 0)
(0.00331954 0.0707911 0)
(-0.00145626 0.00165634 0)
(-0.00451349 0.00190715 0)
(-0.00779663 0.00221705 0)
(-0.0113124 0.00246769 0)
(-0.0147177 0.00239087 0)
(-0.0176621 0.00193906 0)
(-0.019775 0.000699637 0)
(-0.0203566 -0.00164461 0)
(-0.018741 -0.00548606 0)
(-0.0136973 -0.0109556 0)
(-0.0048891 -0.0168316 0)
(0.00717805 -0.022328 0)
(0.0216255 -0.0262874 0)
(0.0359416 -0.0280479 0)
(0.0514483 -0.0277176 0)
(0.060524 -0.0269337 0)
(0.0894577 -0.0134014 0)
(0.0817345 -0.0105408 0)
(0.142567 -0.0656111 0)
(0.191155 0.0632825 0)
(0.238939 0.0294645 0)
(0.27339 -0.0564277 0)
(0.262425 -0.0508473 0)
(0.17633 0.000930892 0)
(0.129915 0.104372 0)
(0.105818 0.174341 0)
(0.0842555 0.184109 0)
(0.0550179 0.143922 0)
(0.0285118 0.0972789 0)
(0.0136995 0.0839602 0)
(-0.00144723 0.00185395 0)
(-0.00449189 0.00213714 0)
(-0.00777265 0.00249016 0)
(-0.0113045 0.00277974 0)
(-0.0147451 0.00270798 0)
(-0.0177599 0.00222769 0)
(-0.0200042 0.00088007 0)
(-0.0207954 -0.00169344 0)
(-0.0194742 -0.0059622 0)
(-0.0146859 -0.012126 0)
(-0.00598533 -0.0187936 0)
(0.00616679 -0.0250343 0)
(0.0209379 -0.0296 0)
(0.0357225 -0.0316859 0)
(0.0515165 -0.0317269 0)
(0.063535 -0.0314454 0)
(0.0822137 -0.020671 0)
(0.114153 -0.0207624 0)
(0.121522 -0.0636175 0)
(0.109205 0.0406298 0)
(0.241366 -0.022659 0)
(0.289494 -0.0528266 0)
(0.257741 -0.0347719 0)
(0.218256 0.0626047 0)
(0.105437 0.168303 0)
(0.0910947 0.193638 0)
(0.101887 0.190996 0)
(0.0909653 0.168171 0)
(0.0464906 0.138908 0)
(0.00872164 0.117989 0)
(-0.00143709 0.00205051 0)
(-0.00446754 0.00236639 0)
(-0.00774533 0.00276374 0)
(-0.0112947 0.00309402 0)
(-0.0147734 0.00303043 0)
(-0.0178648 0.00252788 0)
(-0.0202532 0.00108296 0)
(-0.0212778 -0.00170452 0)
(-0.0202911 -0.00639392 0)
(-0.0157984 -0.0132639 0)
(-0.0072224 -0.0207495 0)
(0.00501422 -0.0277932 0)
(0.0201426 -0.0330064 0)
(0.0353901 -0.0354146 0)
(0.0514579 -0.0359975 0)
(0.0654228 -0.034649 0)
(0.075386 -0.0321673 0)
(0.137014 -0.0251771 0)
(0.0848626 -0.0581565 0)
(0.13332 -0.0107242 0)
(0.22208 -0.061938 0)
(0.280544 -0.0745261 0)
(0.283013 -0.0144879 0)
(0.24497 0.087286 0)
(0.20589 0.161872 0)
(0.16236 0.187146 0)
(0.101494 0.183109 0)
(0.0863216 0.189496 0)
(0.0475927 0.176614 0)
(0.0349778 0.178025 0)
(-0.00142585 0.00224591 0)
(-0.00444037 0.00259481 0)
(-0.00771455 0.00303781 0)
(-0.0112826 0.00341068 0)
(-0.0148022 0.00335864 0)
(-0.0179759 0.00284057 0)
(-0.0205204 0.00131053 0)
(-0.0218022 -0.00167388 0)
(-0.021192 -0.00677617 0)
(-0.0170366 -0.0143651 0)
(-0.00861024 -0.0226901 0)
(0.0037128 -0.0306179 0)
(0.0192379 -0.03651 0)
(0.0349537 -0.0392565 0)
(0.0515748 -0.040414 0)
(0.0652815 -0.0379912 0)
(0.0791106 -0.0435732 0)
(0.121128 -0.0332695 0)
(0.124173 -0.0497864 0)
(0.133721 -0.0558405 0)
(0.233671 -0.103638 0)
(0.262212 -0.0598289 0)
(0.296549 -0.040802 0)
(0.272158 0.0885308 0)
(0.206679 0.208193 0)
(0.145654 0.244534 0)
(0.0741131 0.231178 0)
(0.0507387 0.22225 0)
(0.0254147 0.205765 0)
(0.00473276 0.211911 0)
(-0.00141348 0.00244001 0)
(-0.00441032 0.00282228 0)
(-0.00768017 0.00331242 0)
(-0.0112682 0.00372982 0)
(-0.014831 0.00369299 0)
(-0.018092 0.00316663 0)
(-0.020804 0.00156496 0)
(-0.0223668 -0.00159585 0)
(-0.0221773 -0.0070964 0)
(-0.0184043 -0.0154253 0)
(-0.0101573 -0.0246187 0)
(0.00224956 -0.0335031 0)
(0.0182178 -0.0401249 0)
(0.0344157 -0.0432219 0)
(0.0516801 -0.0447802 0)
(0.0642955 -0.0421139 0)
(0.0833342 -0.0504301 0)
(0.102605 -0.0473893 0)
(0.130655 -0.0525284 0)
(0.189746 -0.0849128 0)
(0.21929 -0.10913 0)
(0.213716 -0.100435 0)
(0.293154 -0.094472 0)
(0.302837 0.153673 0)
(0.118704 0.251486 0)
(0.12122 0.259198 0)
(0.0734251 0.277981 0)
(0.0643738 0.265581 0)
(0.0397228 0.245315 0)
(0.0282951 0.2381 0)
(-0.00139997 0.00263269 0)
(-0.00437732 0.00304868 0)
(-0.00764205 0.00358766 0)
(-0.011251 0.00405144 0)
(-0.0148592 0.00403382 0)
(-0.0182121 0.00350679 0)
(-0.0211016 0.00184831 0)
(-0.0229687 -0.00146572 0)
(-0.0232476 -0.00735088 0)
(-0.0199059 -0.0164372 0)
(-0.011873 -0.0265353 0)
(0.000612975 -0.0364511 0)
(0.0170744 -0.0438522 0)
(0.0337938 -0.0473087 0)
(0.051701 -0.0491039 0)
(0.0631265 -0.0466295 0)
(0.0846912 -0.0553177 0)
(0.0890049 -0.0587244 0)
(0.125379 -0.0659161 0)
(0.218311 -0.1166 0)
(0.205842 -0.105982 0)
(0.216996 -0.157418 0)
(0.335663 -0.145808 0)
(0.377025 0.27134 0)
(0.135099 0.347449 0)
(0.115644 0.283653 0)
(0.0679897 0.307835 0)
(0.0810496 0.283312 0)
(0.042914 0.286566 0)
(0.038065 0.264739 0)
(-0.00138531 0.00282385 0)
(-0.00434129 0.00327386 0)
(-0.00760005 0.00386364 0)
(-0.0112309 0.00437551 0)
(-0.0148862 0.00438145 0)
(-0.0183348 0.00386167 0)
(-0.0214109 0.00216252 0)
(-0.0236058 -0.00127856 0)
(-0.024403 -0.00753236 0)
(-0.0215454 -0.0173939 0)
(-0.0137672 -0.02844 0)
(-0.00120964 -0.0394679 0)
(0.0158026 -0.0477099 0)
(0.0331151 -0.0515098 0)
(0.0516925 -0.0533436 0)
(0.0622719 -0.051103 0)
(0.0837102 -0.0600167 0)
(0.0804226 -0.0631796 0)
(0.127541 -0.0981709 0)
(0.207661 -0.132538 0)
(0.168682 -0.107057 0)
(0.19319 -0.226591 0)
(0.361753 -0.123665 0)
(0.489637 0.423685 0)
(0.304576 0.484266 0)
(0.277524 0.422958 0)
(0.0898814 0.33859 0)
(0.0787677 0.281888 0)
(0.0379035 0.30398 0)
(0.0322073 0.272783 0)
(-0.0013695 0.00301336 0)
(-0.00430214 0.00349768 0)
(-0.00755403 0.00414048 0)
(-0.0112076 0.00470195 0)
(-0.0149114 0.00473612 0)
(-0.0184588 0.00423172 0)
(-0.021729 0.00250934 0)
(-0.0242744 -0.00102875 0)
(-0.0256438 -0.00763002 0)
(-0.0233289 -0.0182876 0)
(-0.0158516 -0.0303288 0)
(-0.00323285 -0.0425621 0)
(0.0143966 -0.0517168 0)
(0.0323884 -0.055925 0)
(0.0516101 -0.057562 0)
(0.0617823 -0.0549693 0)
(0.0789401 -0.0639258 0)
(0.0772424 -0.0719304 0)
(0.154329 -0.126423 0)
(0.163676 -0.132314 0)
(0.139053 -0.123122 0)
(0.161799 -0.285595 0)
(-0.292658 -0.0282058 0)
(0.312101 0.579544 0)
(0.20968 0.50638 0)
(0.265267 0.473385 0)
(0.178131 0.411179 0)
(0.141694 0.315915 0)
(0.0953742 0.322813 0)
(0.0389009 0.306899 0)
(-0.00135252 0.0032011 0)
(-0.00425977 0.00372 0)
(-0.00750382 0.0044183 0)
(-0.0111807 0.00503062 0)
(-0.0149341 0.00509807 0)
(-0.0185826 0.00461724 0)
(-0.022053 0.00289025 0)
(-0.0249713 -0.000710402 0)
(-0.0269695 -0.00763562 0)
(-0.0252615 -0.0191096 0)
(-0.0181385 -0.0321912 0)
(-0.0054742 -0.0457408 0)
(0.0128204 -0.0558483 0)
(0.0315607 -0.0604672 0)
(0.0516153 -0.0619688 0)
(0.0615156 -0.0585252 0)
(0.0734762 -0.0666858 0)
(0.0658687 -0.0866671 0)
(0.197022 -0.160701 0)
(0.146982 -0.114793 0)
(0.116061 -0.158558 0)
(0.261289 0.00255147 0)
(0.0557622 -0.183207 0)
(0.0229892 0.158304 0)
(0.129042 0.357385 0)
(0.208617 0.413263 0)
(0.202232 0.422053 0)
(0.177658 0.398631 0)
(0.12608 0.411194 0)
(0.0451437 0.445762 0)
(-0.00133437 0.00338695 0)
(-0.00421408 0.00394062 0)
(-0.0074493 0.00469726 0)
(-0.0111501 0.00536134 0)
(-0.0149536 0.00546747 0)
(-0.0187047 0.00501832 0)
(-0.0223793 0.0033063 0)
(-0.0256915 -0.000319375 0)
(-0.02838 -0.00753555 0)
(-0.0273488 -0.0198506 0)
(-0.020643 -0.0340239 0)
(-0.0079504 -0.0490076 0)
(0.0110282 -0.0601568 0)
(0.0303375 -0.0650068 0)
(0.0511958 -0.0655745 0)
(0.0617652 -0.0604193 0)
(0.0662048 -0.0649342 0)
(0.0644056 -0.110491 0)
(0.194311 -0.183542 0)
(0.123074 -0.118137 0)
(0.2007 -0.124942 0)
(-0.0641027 -0.142703 0)
(0.00258274 -0.0589549 0)
(-0.0448099 0.14006 0)
(0.103631 0.286487 0)
(0.193859 0.389223 0)
(0.221138 0.460761 0)
(0.193699 0.489711 0)
(0.125094 0.518043 0)
(0.0415846 0.533773 0)
(-0.00131503 0.0035708 0)
(-0.00416494 0.00415936 0)
(-0.0073903 0.00497749 0)
(-0.0111153 0.00569385 0)
(-0.0149694 0.00584449 0)
(-0.0188236 0.00543482 0)
(-0.0227045 0.00375784 0)
(-0.0264299 0.000159921 0)
(-0.0298742 -0.00732125 0)
(-0.0295964 -0.0205005 0)
(-0.0233781 -0.0358356 0)
(-0.0106992 -0.0523558 0)
(0.0088249 -0.0647359 0)
(0.0281431 -0.0704653 0)
(0.0495768 -0.0714194 0)
(0.0633817 -0.064841 0)
(0.0667084 -0.064463 0)
(0.0714992 -0.134692 0)
(0.142855 -0.184988 0)
(0.0439439 -0.10852 0)
(-0.101924 -0.0357777 0)
(-0.0276806 -0.0460259 0)
(0.00200345 -0.0644923 0)
(-0.0302696 0.0940426 0)
(0.0779546 0.222215 0)
(0.154187 0.357061 0)
(0.195178 0.477968 0)
(0.173277 0.547169 0)
(0.108448 0.591729 0)
(0.0358959 0.609056 0)
(-0.00129451 0.00375254 0)
(-0.00411223 0.004376 0)
(-0.0073267 0.00525919 0)
(-0.0110762 0.00602784 0)
(-0.0149806 0.00622925 0)
(-0.0189377 0.00586633 0)
(-0.023023 0.00424403 0)
(-0.0271811 0.00073198 0)
(-0.0314533 -0.00697983 0)
(-0.0320161 -0.0210415 0)
(-0.0263779 -0.0375639 0)
(-0.0138889 -0.0556472 0)
(0.00531462 -0.0687976 0)
(0.0227663 -0.0742816 0)
(0.0438978 -0.0740233 0)
(0.0651747 -0.0667893 0)
(0.0731094 -0.0642191 0)
(0.115485 -0.156246 0)
(0.11226 -0.159688 0)
(0.025956 -0.06014 0)
(0.550607 -0.0546688 0)
(0.00358476 -0.0442179 0)
(0.0276991 -0.0356721 0)
(-0.027989 0.0628287 0)
(0.0298677 0.170479 0)
(0.0746309 0.317026 0)
(0.123602 0.475583 0)
(0.117659 0.581395 0)
(0.0757389 0.650208 0)
(0.0269772 0.680304 0)
(-0.00127281 0.00393205 0)
(-0.0040558 0.00459031 0)
(-0.00725836 0.00554255 0)
(-0.0110324 0.00636295 0)
(-0.0149868 0.00662197 0)
(-0.0190456 0.00631224 0)
(-0.0233308 0.00476464 0)
(-0.0279381 0.00139714 0)
(-0.0331138 -0.00649849 0)
(-0.0345971 -0.0214688 0)
(-0.0296142 -0.0392826 0)
(-0.0175578 -0.0590899 0)
(-8.8309e-05 -0.0736233 0)
(0.0141677 -0.0803687 0)
(0.0358467 -0.0834486 0)
(0.0668534 -0.0771652 0)
(0.081852 -0.0740507 0)
(0.175739 -0.17249 0)
(0.0841594 -0.166794 0)
(0.1419 -0.170809 0)
(0.509497 0.00170495 0)
(0.0254192 0.068434 0)
(0.0130959 -0.00424337 0)
(-0.0403491 0.0610142 0)
(-0.028731 0.151344 0)
(-0.0224546 0.287088 0)
(0.0240749 0.4607 0)
(0.043468 0.599622 0)
(0.0338415 0.690478 0)
(0.0157592 0.730863 0)
(-0.00124993 0.00410921 0)
(-0.00399549 0.00480204 0)
(-0.00718516 0.00582779 0)
(-0.0109837 0.00669871 0)
(-0.0149871 0.00702279 0)
(-0.0191459 0.00677122 0)
(-0.0236221 0.00531929 0)
(-0.0286935 0.00216295 0)
(-0.0348595 -0.00587933 0)
(-0.0373967 -0.0217507 0)
(-0.033354 -0.0406867 0)
(-0.0227834 -0.0613966 0)
(-0.00920991 -0.0753084 0)
(0.00251269 -0.0812493 0)
(0.0327433 -0.0867178 0)
(0.0679835 -0.0826697 0)
(0.0841341 -0.0888206 0)
(0.126144 -0.16563 0)
(-0.00854385 -0.0995016 0)
(-0.322792 -0.42075 0)
(-0.1202 0.167367 0)
(-0.0666318 0.104408 0)
(-0.0208078 0.0214675 0)
(-0.0537988 0.0629422 0)
(-0.0602884 0.156801 0)
(-0.0882859 0.272491 0)
(-0.0706751 0.428809 0)
(-0.0298393 0.577967 0)
(-0.0067518 0.688059 0)
(0.00359361 0.737805 0)
(-0.00122588 0.00428388 0)
(-0.00393115 0.00501091 0)
(-0.00710698 0.00611523 0)
(-0.0109297 0.00703479 0)
(-0.0149811 0.0074326 0)
(-0.0192372 0.00724381 0)
(-0.0238918 0.00591468 0)
(-0.0294401 0.00305906 0)
(-0.0366755 -0.00503028 0)
(-0.0402953 -0.0218606 0)
(-0.03716 -0.0421819 0)
(-0.0284071 -0.0647687 0)
(-0.0165309 -0.0806893 0)
(-0.00121646 -0.0934818 0)
(0.0424254 -0.104989 0)
(0.0559417 -0.0928953 0)
(0.0800242 -0.0947207 0)
(0.0659347 -0.135091 0)
(-0.033998 -0.03126 0)
(0.766541 -0.172904 0)
(-0.150543 0.052857 0)
(-0.0203917 0.0898979 0)
(-0.0395709 0.0358825 0)
(-0.0653406 0.0665309 0)
(-0.06415 0.166389 0)
(-0.0881025 0.285867 0)
(-0.107561 0.406671 0)
(-0.0748478 0.522571 0)
(-0.0277215 0.642969 0)
(0.000388012 0.7115 0)
(-0.00120068 0.00445592 0)
(-0.00386258 0.00521659 0)
(-0.00702372 0.00640484 0)
(-0.01087 0.00736973 0)
(-0.0149681 0.00784935 0)
(-0.0193174 0.00772093 0)
(-0.0241308 0.00653002 0)
(-0.0301612 0.00402001 0)
(-0.0385934 -0.00419282 0)
(-0.0436379 -0.0218854 0)
(-0.042389 -0.0427528 0)
(-0.0361604 -0.0649338 0)
(-0.0213595 -0.0805061 0)
(-0.00010177 -0.09539 0)
(0.0352998 -0.0976765 0)
(0.0230319 -0.0903817 0)
(0.0882163 -0.107867 0)
(0.0190296 -0.100693 0)
(0.0484202 -0.365525 0)
(0.361328 -0.237918 0)
(0.0312669 0.133225 0)
(0.00171696 0.0880279 0)
(-0.0373498 0.0524727 0)
(-0.0791483 0.0773654 0)
(-0.0867624 0.168191 0)
(-0.0894078 0.314157 0)
(-0.101833 0.410885 0)
(-0.0877876 0.479775 0)
(-0.0455359 0.586436 0)
(-0.0072057 0.674227 0)
(-0.00117435 0.00462534 0)
(-0.00378958 0.00541919 0)
(-0.00693535 0.00669859 0)
(-0.0108046 0.00770721 0)
(-0.0149482 0.00828453 0)
(-0.0193868 0.00823071 0)
(-0.0243387 0.00724144 0)
(-0.0308685 0.00526613 0)
(-0.0405221 -0.00268858 0)
(-0.046581 -0.0212815 0)
(-0.0458667 -0.0436087 0)
(-0.0392021 -0.0694337 0)
(-0.0172992 -0.0890754 0)
(0.00560321 -0.106526 0)
(0.0251731 -0.11246 0)
(0.0839285 -0.104101 0)
(0.0620955 -0.0977841 0)
(-0.0105118 -0.104472 0)
(0.368381 -0.525242 0)
(0.367711 -0.0108721 0)
(0.304115 0.219621 0)
(0.163695 0.170032 0)
(0.0165955 0.105463 0)
(-0.0719294 0.107342 0)
(-0.120292 0.17638 0)
(-0.124331 0.317407 0)
(-0.108478 0.407798 0)
(-0.0935073 0.460691 0)
(-0.0634772 0.541144 0)
(-0.0212346 0.62173 0)
(-0.00114697 0.00479214 0)
(-0.00371185 0.00561764 0)
(-0.00684153 0.00698969 0)
(-0.0107323 0.00802902 0)
(-0.0149187 0.00869368 0)
(-0.0194377 0.00865928 0)
(-0.0244911 0.00780355 0)
(-0.0315037 0.00625692 0)
(-0.0426827 -0.00189316 0)
(-0.0512201 -0.0214071 0)
(-0.0548942 -0.0446146 0)
(-0.0508739 -0.0725849 0)
(-0.0345551 -0.0935812 0)
(-0.0220849 -0.110983 0)
(0.00175694 -0.120014 0)
(0.0585443 -0.110816 0)
(0.0383221 -0.08623 0)
(0.13114 -0.234109 0)
(0.660242 -0.368292 0)
(-0.204375 0.0314701 0)
(0.156159 0.190596 0)
(0.138434 0.228845 0)
(0.040637 0.181917 0)
(-0.0539815 0.157034 0)
(-0.11645 0.201604 0)
(-0.134179 0.306836 0)
(-0.119085 0.38567 0)
(-0.0981801 0.438351 0)
(-0.0672038 0.501295 0)
(-0.0255331 0.56124 0)
(-0.0011203 0.00495738 0)
(-0.0036296 0.00581895 0)
(-0.00674327 0.00731603 0)
(-0.0106556 0.00840498 0)
(-0.014887 0.00924021 0)
(-0.0194861 0.00934313 0)
(-0.0246126 0.0088526 0)
(-0.0321254 0.00818811 0)
(-0.0445833 0.000678361 0)
(-0.052736 -0.0193165 0)
(-0.0510926 -0.0432508 0)
(-0.0395007 -0.0717297 0)
(-0.0210777 -0.0905346 0)
(-0.000294764 -0.111726 0)
(0.0416504 -0.128517 0)
(0.0755816 -0.121379 0)
(0.0336849 -0.0875079 0)
(0.395983 -0.277631 0)
(0.521456 -0.25689 0)
(-0.395775 0.111207 0)
(0.182581 0.100653 0)
(0.0494341 0.257847 0)
(0.0457395 0.240043 0)
(-0.0390033 0.208708 0)
(-0.0973514 0.236092 0)
(-0.119967 0.306113 0)
(-0.11026 0.366372 0)
(-0.0924152 0.412257 0)
(-0.0647179 0.458316 0)
(-0.025467 0.503769 0)
(-0.00111975 0.00511648 0)
(-0.00354057 0.0059905 0)
(-0.00663683 0.00752943 0)
(-0.0105638 0.00862709 0)
(-0.0148293 0.00948716 0)
(-0.0194869 0.00949041 0)
(-0.0246395 0.00909373 0)
(-0.0326123 0.00902336 0)
(-0.0465775 0.00124004 0)
(-0.0584908 -0.0202775 0)
(-0.0682136 -0.0461198 0)
(-0.0759088 -0.0785909 0)
(-0.0740512 -0.102054 0)
(-0.0457099 -0.130379 0)
(0.00228557 -0.135807 0)
(0.00597306 -0.112172 0)
(0.0369655 -0.199604 0)
(0.746092 -0.522668 0)
(-0.525725 -0.0963919 0)
(-0.0933866 0.0511938 0)
(0.0761885 -0.00847108 0)
(0.0436894 0.244914 0)
(0.0419601 0.275436 0)
(-0.0312902 0.253742 0)
(-0.0775031 0.268923 0)
(-0.098191 0.312486 0)
(-0.0935458 0.356091 0)
(-0.078783 0.39349 0)
(-0.0560549 0.424069 0)
(-0.0238046 0.456106 0)
(-0.0014671 0.00517878 0)
(-0.00345698 0.00613221 0)
(-0.00655131 0.00801731 0)
(-0.0105546 0.00898813 0)
(-0.014902 0.0102849 0)
(-0.0196028 0.0104778 0)
(-0.0245743 0.010591 0)
(-0.0330925 0.0114567 0)
(-0.0507315 0.00491236 0)
(-0.0648261 -0.0167767 0)
(-0.0689162 -0.0431906 0)
(-0.0568458 -0.0769011 0)
(-0.0356267 -0.103099 0)
(0.00622809 -0.141702 0)
(0.0380552 -0.138037 0)
(-0.0117447 -0.133707 0)
(0.377677 -0.377487 0)
(0.766699 -0.149503 0)
(1.10171 0.0494525 0)
(0.446975 -0.0133283 0)
(0.110511 0.0608166 0)
(0.00209147 0.263898 0)
(0.0181119 0.307571 0)
(-0.0371493 0.287926 0)
(-0.0646963 0.294101 0)
(-0.0805042 0.319069 0)
(-0.0769511 0.348883 0)
(-0.0639659 0.375388 0)
(-0.0452017 0.396834 0)
(-0.0201338 0.416034 0)
(0.00046274 0.00559929 0)
(-0.00242234 0.00653694 0)
(-0.00506876 0.00808695 0)
(-0.00847333 0.0095846 0)
(-0.0129073 0.0105012 0)
(-0.0187746 0.0105424 0)
(-0.0252438 0.0108061 0)
(-0.0339812 0.0131803 0)
(-0.0472412 0.00635712 0)
(-0.0589206 -0.016917 0)
(-0.0648792 -0.0451263 0)
(-0.0503964 -0.0829877 0)
(-0.0297855 -0.110878 0)
(0.0452105 -0.147742 0)
(0.0424414 -0.129851 0)
(0.243511 -0.206021 0)
(0.577945 -0.543974 0)
(-0.189239 -0.360941 0)
(0.40865 -0.00953663 0)
(0.18835 0.233844 0)
(0.0703024 0.192329 0)
(-0.0155509 0.278313 0)
(-0.00451056 0.320397 0)
(-0.0455687 0.30781 0)
(-0.0578535 0.309361 0)
(-0.0683238 0.322433 0)
(-0.0638375 0.342156 0)
(-0.052223 0.360073 0)
(-0.0361518 0.374554 0)
(-0.0162333 0.385547 0)
(-0.00928626 0.0351597 0)
(-0.0469326 0.0272201 0)
(-0.0788993 0.0220104 0)
(-0.114195 0.0241117 0)
(-0.172176 0.00228661 0)
(-0.197218 -0.0276091 0)
(-0.131629 -0.0499766 0)
(0.031114 -0.0538861 0)
(0.0168442 -0.0699917 0)
(0.185929 -0.0465679 0)
(0.164958 -0.00174724 0)
(-0.0353536 0.0175084 0)
(-0.0949724 0.00680952 0)
(-0.0958358 -0.00305475 0)
(-0.0804846 -0.00194528 0)
(-0.0690335 -0.00209376 0)
(-0.054145 -0.00180033 0)
(-0.039619 -0.00161928 0)
(-0.0252854 -0.00136882 0)
(-0.012479 -0.00105443 0)
(-0.00203506 -0.000757204 0)
(0.00538974 -0.000489064 0)
(0.00973885 -0.000257744 0)
(0.0116259 -0.000101631 0)
(0.0116159 -5.21836e-06 0)
(0.0103858 4.50958e-05 0)
(0.00839343 6.92581e-05 0)
(0.00602181 7.42701e-05 0)
(0.00358795 7.14416e-05 0)
(0.00118059 7.028e-05 0)
(-0.0169863 0.0372585 0)
(-0.0579975 0.0574516 0)
(-0.0704396 0.0497864 0)
(-0.0774392 0.0518872 0)
(-0.0975454 0.0428779 0)
(-0.115505 -0.00708482 0)
(-0.0968345 -0.0873464 0)
(0.0657827 -0.0850069 0)
(0.0530988 -0.0465526 0)
(0.118535 -0.00456754 0)
(0.102626 0.0752117 0)
(-0.0607865 0.068174 0)
(-0.069678 0.0239513 0)
(-0.080154 -0.00684465 0)
(-0.0666264 -0.00545322 0)
(-0.0571219 -0.00616318 0)
(-0.0432776 -0.00552551 0)
(-0.0292582 -0.00503174 0)
(-0.0152006 -0.00424689 0)
(-0.00274583 -0.00323397 0)
(0.00709239 -0.00224664 0)
(0.0136146 -0.00132811 0)
(0.0168389 -0.000598925 0)
(0.0175221 -0.000120553 0)
(0.0163137 0.000154807 0)
(0.0139557 0.000284233 0)
(0.0109282 0.000333091 0)
(0.0076504 0.000320938 0)
(0.00447506 0.000288253 0)
(0.00145611 0.000254217 0)
(-0.0355477 0.0980185 0)
(-0.052058 0.0897671 0)
(-0.0671779 0.0571351 0)
(-0.0506404 0.0515395 0)
(-0.0652588 0.0496721 0)
(-0.0604221 -0.0210038 0)
(-0.0589792 -0.137622 0)
(-0.0457601 -0.13088 0)
(-0.0182316 -0.0931069 0)
(0.0318723 -0.0375791 0)
(0.0319036 0.0935337 0)
(-0.0819113 0.0888684 0)
(-0.0481324 0.0299931 0)
(-0.067572 -0.00686753 0)
(-0.0566885 -0.00703288 0)
(-0.0502821 -0.00908921 0)
(-0.0377607 -0.00852979 0)
(-0.0247474 -0.00793461 0)
(-0.0113782 -0.00674104 0)
(0.000476576 -0.00513751 0)
(0.0097391 -0.00351475 0)
(0.0157132 -0.00196919 0)
(0.0184258 -0.00079641 0)
(0.0186754 -3.76307e-05 0)
(0.0171223 0.000387028 0)
(0.0145007 0.000570893 0)
(0.0112752 0.000628321 0)
(0.00785181 0.000586994 0)
(0.00457592 0.000516919 0)
(0.00148578 0.000455173 0)
(-0.023814 0.155206 0)
(-0.02425 0.0996977 0)
(-0.040079 0.0609702 0)
(-0.0276247 0.0353401 0)
(-0.0399295 0.048999 0)
(-0.020149 -0.0114666 0)
(-0.0866903 -0.0937486 0)
(-0.0897958 -0.122415 0)
(-0.0592215 -0.102813 0)
(-0.0697048 -0.0230605 0)
(-0.0570197 0.105062 0)
(-0.109877 0.0914062 0)
(-0.0421257 0.0256405 0)
(-0.0683372 -0.00749172 0)
(-0.0543111 -0.00853445 0)
(-0.0492797 -0.0118756 0)
(-0.0367349 -0.0115652 0)
(-0.0238697 -0.0108811 0)
(-0.0105209 -0.00928599 0)
(0.00126867 -0.00708306 0)
(0.0104167 -0.00479107 0)
(0.0162442 -0.00260918 0)
(0.0187952 -0.000985326 0)
(0.0189123 5.25195e-05 0)
(0.0172639 0.000627374 0)
(0.0145799 0.000864667 0)
(0.0113155 0.00092935 0)
(0.00786827 0.000857646 0)
(0.00458076 0.000748971 0)
(0.00148634 0.000656863 0)
(0.020463 0.155593 0)
(0.0248467 0.132293 0)
(0.0385671 0.0823549 0)
(0.0323913 0.0475 0)
(-0.0143781 0.0450541 0)
(-0.0720387 0.0349652 0)
(-0.10122 -0.0972443 0)
(-0.104618 -0.143641 0)
(-0.106064 -0.110655 0)
(-0.17873 -0.00140329 0)
(-0.105265 0.12155 0)
(-0.132406 0.073741 0)
(-0.042037 0.0228589 0)
(-0.0739457 -0.00685929 0)
(-0.0541089 -0.0103931 0)
(-0.0495678 -0.0146599 0)
(-0.0364846 -0.0146313 0)
(-0.0235063 -0.0138444 0)
(-0.0100309 -0.011837 0)
(0.00178323 -0.00902459 0)
(0.0108784 -0.00605242 0)
(0.0166007 -0.00322973 0)
(0.0190235 -0.00115679 0)
(0.0190403 0.000156199 0)
(0.0173252 0.000873514 0)
(0.0146032 0.00116146 0)
(0.0113189 0.00123187 0)
(0.00786178 0.00112895 0)
(0.00457323 0.000981064 0)
(0.00148298 0.000858108 0)
(-0.00282043 0.100514 0)
(0.0260402 0.0981015 0)
(0.0198788 0.0523299 0)
(0.00701539 0.0874913 0)
(-0.0669017 0.111586 0)
(-0.0840771 0.0186369 0)
(-0.128784 -0.101565 0)
(-0.137752 -0.130384 0)
(-0.172079 -0.0746037 0)
(-0.191022 0.00910648 0)
(-0.144812 0.0966924 0)
(-0.143525 0.0454077 0)
(-0.0481656 0.0142259 0)
(-0.0817543 -0.00880391 0)
(-0.0550565 -0.0134629 0)
(-0.0501991 -0.0176423 0)
(-0.0363615 -0.0178106 0)
(-0.0231527 -0.0168592 0)
(-0.0094883 -0.0144149 0)
(0.0023718 -0.01097 0)
(0.0114114 -0.0073029 0)
(0.017008 -0.00383241 0)
(0.0192779 -0.00131227 0)
(0.0191783 0.000269938 0)
(0.0173871 0.00112549 0)
(0.0146232 0.00146097 0)
(0.0113176 0.00153551 0)
(0.00785056 0.00140054 0)
(0.00456226 0.00121285 0)
(0.00147832 0.00105884 0)
(0.0118587 0.0892568 0)
(0.0326434 0.0817297 0)
(0.0308739 0.082844 0)
(-0.0204812 0.124743 0)
(-0.0346653 0.165149 0)
(-0.0296345 0.109063 0)
(-0.0803414 -0.0221908 0)
(-0.135907 -0.112659 0)
(-0.181973 -0.0757588 0)
(-0.179789 0.0141647 0)
(-0.164531 0.0813242 0)
(-0.162906 0.0156263 0)
(-0.0482653 0.00854662 0)
(-0.0875668 -0.00941117 0)
(-0.0561545 -0.0171203 0)
(-0.0507672 -0.0207388 0)
(-0.036246 -0.021101 0)
(-0.0227337 -0.0199276 0)
(-0.00884225 -0.0170216 0)
(0.00307757 -0.0129186 0)
(0.0120516 -0.00853811 0)
(0.0174939 -0.00441125 0)
(0.0195781 -0.00144649 0)
(0.0193392 0.000396833 0)
(0.0174581 0.00138451 0)
(0.0146451 0.00176376 0)
(0.0113148 0.00184051 0)
(0.00783629 0.00167251 0)
(0.00454864 0.00144427 0)
(0.00147258 0.00125898 0)
(-0.00065563 0.0743766 0)
(0.00406975 0.0878754 0)
(-0.0148264 0.11933 0)
(-0.0663677 0.139826 0)
(-0.0752952 0.126279 0)
(-0.0984586 0.0675407 0)
(-0.121451 -0.0426545 0)
(-0.202152 -0.0885899 0)
(-0.224547 -0.063589 0)
(-0.177153 0.0130854 0)
(-0.208221 0.0757206 0)
(-0.161863 -0.0216263 0)
(-0.0548873 -0.00443043 0)
(-0.0921974 -0.0111929 0)
(-0.0579937 -0.022107 0)
(-0.0512983 -0.024137 0)
(-0.036131 -0.024524 0)
(-0.022238 -0.0230681 0)
(-0.00808199 -0.0196595 0)
(0.00390897 -0.0148728 0)
(0.0128048 -0.00975502 0)
(0.0180616 -0.00496274 0)
(0.0199252 -0.00155632 0)
(0.0195236 0.000539231 0)
(0.0175385 0.00165178 0)
(0.0146691 0.00207039 0)
(0.0113106 0.00214712 0)
(0.00781903 0.00194492 0)
(0.0045324 0.00167525 0)
(0.00146579 0.00145844 0)
(-0.0192812 0.0878506 0)
(-0.0308784 0.100742 0)
(-0.0570324 0.147432 0)
(-0.0841563 0.185294 0)
(-0.10359 0.176877 0)
(-0.130277 0.104489 0)
(-0.177764 0.000251936 0)
(-0.260552 -0.0503706 0)
(-0.274524 -0.055561 0)
(-0.238517 0.0294894 0)
(-0.191075 0.0639087 0)
(-0.142762 -0.0662806 0)
(-0.0818317 -0.0105551 0)
(-0.0894994 -0.0134803 0)
(-0.0605385 -0.0269938 0)
(-0.0514633 -0.0277296 0)
(-0.035957 -0.0280525 0)
(-0.0216474 -0.0262838 0)
(-0.00719979 -0.0223307 0)
(0.00487043 -0.0168303 0)
(0.0136742 -0.0109504 0)
(0.0187118 -0.00547846 0)
(0.0203187 -0.00163717 0)
(0.0197304 0.000699507 0)
(0.0176277 0.00192844 0)
(0.014695 0.00238137 0)
(0.0113048 0.00245554 0)