/*--------------------------------*- C++ -*----------------------------------*\
| =========                 |                                                 |
| \\      /  F ield         | OpenFOAM: The Open Source CFD Toolbox           |
|  \\    /   O peration     | Version:  2.4.0                                 |
|   \\  /    A nd           | Web:      www.OpenFOAM.org                      |
|    \\/     M anipulation  |                                                 |
\*---------------------------------------------------------------------------*/
FoamFile
{
    version     2.0;
    format      ascii;
    class       surfaceScalarField;
    location    "0.011";
    object      phiAlpha;
}
// * * * * * * * * * * * * * * * * * * * * * * * * * * * * * * * * * * * * * //

dimensions      [0 3 -1 0 0 0 0];

internalField   nonuniform List<scalar> 
7080
(
-5.00144e-13
5.00176e-13
-2.60074e-12
2.10025e-12
-6.86393e-12
4.26238e-12
-1.3377e-11
6.51208e-12
-2.22166e-11
8.8389e-12
-3.31093e-11
1.08933e-11
-4.50067e-11
1.1897e-11
-5.58943e-11
1.08872e-11
-6.34834e-11
7.59049e-12
-6.4789e-11
1.30707e-12
-5.77118e-11
-7.07478e-12
-4.17931e-11
-1.59167e-11
-2.06988e-11
-2.10911e-11
3.46473e-12
-2.41608e-11
2.71734e-11
-2.37046e-11
4.60739e-11
-1.8896e-11
5.7788e-11
-1.17072e-11
6.25041e-11
-4.70509e-12
6.13839e-11
1.13376e-12
5.62517e-11
5.14313e-12
4.87216e-11
7.55185e-12
4.01744e-11
8.54735e-12
3.17425e-11
8.4602e-12
2.39364e-11
7.78863e-12
1.73307e-11
6.64045e-12
1.18637e-11
5.43486e-12
7.83698e-12
4.06361e-12
4.74971e-12
3.05404e-12
2.83185e-12
1.94722e-12
1.81486e-12
9.93987e-13
-4.80924e-13
9.80848e-13
-2.06291e-12
3.68162e-12
-4.85954e-12
7.05822e-12
-9.00886e-12
1.06609e-11
-1.4246e-11
1.40762e-11
-1.98445e-11
1.64934e-11
-2.45065e-11
1.65609e-11
-2.68031e-11
1.31868e-11
-2.39369e-11
4.72853e-12
-1.42696e-11
-8.35505e-12
3.30357e-12
-2.46414e-11
2.792e-11
-4.05263e-11
5.74156e-11
-5.05805e-11
8.6818e-11
-5.35551e-11
1.10977e-10
-4.78522e-11
1.26344e-10
-3.42499e-11
1.31257e-10
-1.66015e-11
1.26936e-10
-3.61698e-13
1.15738e-10
1.2364e-11
1.00284e-10
2.06078e-11
8.30886e-11
2.47952e-11
6.59624e-11
2.56565e-11
5.03589e-11
2.41249e-11
3.68277e-11
2.12713e-11
2.59133e-11
1.76251e-11
1.73294e-11
1.39544e-11
1.11709e-11
1.02875e-11
6.67283e-12
7.49648e-12
4.04046e-12
4.62481e-12
4.1274e-12
1.68704e-12
-5.19856e-13
1.50059e-12
-2.26417e-12
5.42593e-12
-5.32584e-12
1.01202e-11
-9.77195e-12
1.51081e-11
-1.53726e-11
1.9679e-11
-2.1595e-11
2.27198e-11
-2.68144e-11
2.17848e-11
-2.89937e-11
1.53719e-11
-2.56703e-11
1.41238e-12
-1.47979e-11
-1.92194e-11
4.35507e-12
-4.37854e-11
3.09468e-11
-6.71094e-11
6.19093e-11
-8.15357e-11
9.2149e-11
-8.37859e-11
1.16444e-10
-7.21359e-11
1.31239e-10
-4.90328e-11
1.35399e-10
-2.07441e-11
1.3018e-10
4.87733e-12
1.18212e-10
2.43618e-11
1.02056e-10
3.67733e-11
8.4375e-11
4.25229e-11
6.68161e-11
4.31976e-11
5.09456e-11
4.00556e-11
3.71998e-11
3.49689e-11
2.6145e-11
2.87492e-11
1.74834e-11
2.25524e-11
1.12658e-11
1.65696e-11
6.70309e-12
1.20043e-11
4.08734e-12
7.28527e-12
5.81783e-12
2.3557e-12
-5.45551e-13
2.0462e-12
-2.5058e-12
7.38701e-12
-6.11293e-12
1.37294e-11
-1.14524e-11
2.04511e-11
-1.82198e-11
2.64521e-11
-2.53127e-11
2.9821e-11
-3.17203e-11
2.82015e-11
-3.39759e-11
1.7638e-11
-3.02791e-11
-2.27236e-12
-1.82716e-11
-3.12147e-11
2.80718e-12
-6.48515e-11
3.17098e-11
-9.60004e-11
6.44985e-11
-1.14315e-10
9.57309e-11
-1.15008e-10
1.2002e-10
-9.64145e-11
1.34129e-10
-6.31292e-11
1.37292e-10
-2.38916e-11
1.31292e-10
1.08958e-11
1.18641e-10
3.70417e-11
1.0214e-10
5.32821e-11
8.42263e-11
6.04818e-11
6.66355e-11
6.07702e-11
5.075e-11
5.60001e-11
3.70435e-11
4.86278e-11
2.60314e-11
3.98293e-11
1.73901e-11
3.11311e-11
1.11988e-11
2.28243e-11
6.6804e-12
1.64687e-11
4.02015e-12
9.98957e-12
8.00328e-12
1.79361e-12
-7.04056e-13
2.7506e-12
-3.19965e-12
9.88463e-12
-7.73238e-12
1.82665e-11
-1.43378e-11
2.70635e-11
-2.2699e-11
3.48232e-11
-3.17362e-11
3.8872e-11
-3.89801e-11
3.54602e-11
-4.23795e-11
2.10535e-11
-3.79121e-11
-6.72191e-12
-2.35273e-11
-4.55821e-11
5.96251e-13
-8.89579e-11
3.26763e-11
-1.28065e-10
6.80091e-11
-1.49637e-10
1.0044e-10
-1.47427e-10
1.24612e-10
-1.20575e-10
1.3763e-10
-7.61354e-11
1.39585e-10
-2.58314e-11
1.32488e-10
1.80098e-11
1.19049e-10
5.05078e-11
1.0207e-10
7.02682e-11
8.39407e-11
7.8655e-11
6.62905e-11
7.8402e-11
5.04294e-11
7.1919e-11
3.67827e-11
6.22278e-11
2.58364e-11
5.08423e-11
1.7254e-11
3.96523e-11
1.11073e-11
2.9033e-11
6.62636e-12
2.08968e-11
3.98383e-12
1.26753e-11
1.01921e-11
1.75446e-12
-9.31601e-13
3.68295e-12
-4.06034e-12
1.30168e-11
-9.875e-12
2.40882e-11
-1.83335e-11
3.55326e-11
-2.87873e-11
4.5292e-11
-3.98923e-11
4.99967e-11
-4.94052e-11
4.49941e-11
-5.25949e-11
2.42653e-11
-4.68487e-11
-1.24442e-11
-2.98801e-11
-6.25279e-11
-1.74761e-12
-1.17068e-10
3.44225e-11
-1.64216e-10
7.29868e-11
-1.88187e-10
1.06704e-10
-1.81131e-10
1.3052e-10
-1.4438e-10
1.42075e-10
-8.76792e-11
1.42418e-10
-2.61598e-11
1.33918e-10
2.65254e-11
1.19493e-10
6.49598e-11
1.01929e-10
8.78374e-11
8.35427e-11
9.70841e-11
6.58305e-11
9.60958e-11
5.00082e-11
8.77976e-11
3.64432e-11
7.57471e-11
2.55832e-11
6.17673e-11
1.7079e-11
4.80967e-11
1.09906e-11
3.5182e-11
6.55602e-12
2.52797e-11
3.94062e-12
1.5333e-11
1.2354e-11
1.73888e-12
-1.2044e-12
4.88854e-12
-5.25069e-12
1.7068e-11
-1.26227e-11
3.14699e-11
-2.36557e-11
4.658e-11
-3.71093e-11
5.87653e-11
-5.13945e-11
6.43073e-11
-6.22118e-11
5.58379e-11
-6.63995e-11
2.84805e-11
-5.89747e-11
-1.98395e-11
-3.8046e-11
-8.34287e-11
-3.8105e-12
-1.51278e-10
3.72927e-11
-2.05297e-10
7.96554e-11
-2.30533e-10
1.14721e-10
-2.16181e-10
1.37825e-10
-1.67471e-10
1.47504e-10
-9.73467e-11
1.45799e-10
-2.44417e-11
1.3557e-10
3.67686e-11
1.19961e-10
8.05947e-11
1.01716e-10
1.06087e-10
8.30348e-11
1.15806e-10
6.52599e-11
1.13852e-10
4.9492e-11
1.03621e-10
3.60296e-11
8.91647e-11
2.52757e-11
7.25846e-11
1.68669e-11
5.64472e-11
1.08496e-11
4.12582e-11
6.471e-12
2.9608e-11
3.8887e-12
1.79565e-11
1.44817e-11
1.72215e-12
-1.58742e-12
6.47758e-12
-6.97822e-12
2.24652e-11
-1.67102e-11
4.12143e-11
-3.07757e-11
6.06632e-11
-4.84275e-11
7.64411e-11
-6.59868e-11
8.1897e-11
-8.00259e-11
6.99078e-11
-8.42462e-11
3.27321e-11
-7.42556e-11
-2.97965e-11
-4.69082e-11
-1.10745e-10
-6.04147e-12
-1.92114e-10
4.17411e-11
-2.53053e-10
8.83549e-11
-2.77128e-10
1.24707e-10
-2.52516e-10
1.46583e-10
-1.89334e-10
1.53927e-10
-1.04679e-10
1.49695e-10
-2.01968e-11
1.37404e-10
4.90723e-11
1.20423e-10
9.75999e-11
1.01413e-10
1.25101e-10
8.24086e-11
1.34851e-10
6.45755e-11
1.31667e-10
4.88798e-11
1.1937e-10
3.5542e-11
1.02459e-10
2.49143e-11
8.3274e-11
1.66181e-11
6.46867e-11
1.06847e-11
4.72489e-11
6.37151e-12
3.38724e-11
3.82769e-12
2.05404e-11
1.65704e-11
1.70138e-12
-2.11669e-12
8.59632e-12
-9.34934e-12
2.9705e-11
-2.22548e-11
5.41333e-11
-4.07301e-11
7.91574e-11
-6.3629e-11
9.93658e-11
-8.61982e-11
1.04499e-10
-1.02124e-10
8.58659e-11
-1.05955e-10
3.65953e-11
-9.158e-11
-4.41353e-11
-5.76927e-11
-1.44598e-10
-8.20748e-12
-2.41567e-10
4.81595e-11
-3.09391e-10
9.9503e-11
-3.28451e-10
1.36923e-10
-2.89917e-10
1.56965e-10
-2.09362e-10
1.61315e-10
-1.09019e-10
1.54056e-10
-1.29257e-11
1.39359e-10
6.37811e-11
1.20834e-10
1.16148e-10
1.00992e-10
1.44946e-10
8.16471e-11
1.54234e-10
6.37675e-11
1.49529e-10
4.81665e-11
1.35023e-10
3.49775e-11
1.15605e-10
2.44971e-11
9.38143e-11
1.63313e-11
7.27975e-11
1.04951e-11
5.31406e-11
6.2572e-12
3.8063e-11
3.75718e-12
2.30792e-11
1.8616e-11
1.67507e-12
-2.81405e-12
1.14125e-11
-1.21985e-11
3.90967e-11
-2.9491e-11
7.1439e-11
-5.43171e-11
1.04002e-10
-8.34522e-11
1.28526e-10
-1.12841e-10
1.33919e-10
-1.32748e-10
1.05804e-10
-1.35566e-10
3.94434e-11
-1.14798e-10
-6.48676e-11
-7.06434e-11
-1.88719e-10
-9.09979e-12
-3.03077e-10
5.71386e-11
-3.75599e-10
1.13734e-10
-3.85024e-10
1.51585e-10
-3.27748e-10
1.69112e-10
-2.26875e-10
1.69699e-10
-1.09596e-10
1.58801e-10
-2.01651e-12
1.41384e-10
8.12089e-11
1.21162e-10
1.36393e-10
1.00436e-10
1.65675e-10
8.07467e-11
1.73961e-10
6.28376e-11
1.6742e-10
4.73556e-11
1.50556e-10
3.43396e-11
1.2858e-10
2.40271e-11
1.04185e-10
1.60087e-11
8.07627e-11
1.02822e-11
5.89207e-11
6.12892e-12
4.21706e-11
3.67752e-12
2.5568e-11
2.06151e-11
1.64341e-12
-3.77624e-12
1.51908e-11
-1.66389e-11
5.19653e-11
-3.93793e-11
9.41908e-11
-7.21344e-11
1.36773e-10
-1.11051e-10
1.67465e-10
-1.47721e-10
1.70619e-10
-1.71861e-10
1.2997e-10
-1.70494e-10
3.81018e-11
-1.42069e-10
-9.32603e-11
-8.38837e-11
-2.46872e-10
-8.06081e-12
-3.78867e-10
6.95829e-11
-4.53211e-10
1.3149e-10
-4.46909e-10
1.69408e-10
-3.65645e-10
1.83244e-10
-2.40696e-10
1.78983e-10
-1.05324e-10
1.63849e-10
1.31286e-11
1.43405e-10
1.01663e-10
1.21359e-10
1.58459e-10
9.97193e-11
1.87316e-10
7.96956e-11
1.94021e-10
6.17813e-11
1.85316e-10
4.64461e-11
1.6594e-10
3.36285e-11
1.41357e-10
2.35049e-11
1.14364e-10
1.56507e-11
8.85656e-11
1.00462e-11
6.45768e-11
5.98686e-12
4.61859e-11
3.58888e-12
2.8002e-11
2.25629e-11
1.60742e-12
-5.18609e-12
2.03784e-11
-2.26994e-11
6.94825e-11
-5.36804e-11
1.25181e-10
-9.75388e-11
1.80641e-10
-1.4953e-10
2.19472e-10
-1.95464e-10
2.16577e-10
-2.21222e-10
1.55748e-10
-2.16921e-10
3.38181e-11
-1.72568e-10
-1.37586e-10
-9.74995e-11
-3.21912e-10
-3.2572e-12
-4.73077e-10
8.68708e-11
-5.43307e-10
1.53967e-10
-5.13983e-10
1.90449e-10
-4.02104e-10
1.99233e-10
-2.49465e-10
1.89062e-10
-9.51437e-11
1.69061e-10
3.31393e-11
1.45317e-10
1.25416e-10
1.21362e-10
1.82434e-10
9.88057e-11
2.09873e-10
7.84744e-11
2.14387e-10
6.05888e-11
2.03184e-10
4.54327e-11
1.81143e-10
3.28416e-11
1.5391e-10
2.29293e-11
1.24331e-10
1.52565e-11
9.61891e-11
9.78678e-12
7.00961e-11
5.83078e-12
5.00998e-11
3.49124e-12
3.03761e-11
2.44552e-11
1.56683e-12
-7.21687e-12
2.75958e-11
-3.14722e-11
9.37396e-11
-7.31112e-11
1.66822e-10
-1.33516e-10
2.41048e-10
-2.01578e-10
2.87542e-10
-2.60361e-10
2.75379e-10
-2.88652e-10
1.8405e-10
-2.74207e-10
1.93834e-11
-2.10782e-10
-2.00989e-10
-1.09947e-10
-4.22721e-10
5.8055e-12
-5.888e-10
1.10437e-10
-6.47906e-10
1.82015e-10
-5.85538e-10
2.1537e-10
-4.35438e-10
2.17163e-10
-2.51243e-10
1.99808e-10
-7.77795e-11
1.74307e-10
5.86503e-11
1.4703e-10
1.527e-10
1.21121e-10
2.08361e-10
9.76744e-11
2.3332e-10
7.70783e-11
2.35016e-10
5.92618e-11
2.20983e-10
4.43189e-11
1.96132e-10
3.19824e-11
1.66209e-10
2.2303e-11
1.34062e-10
1.48283e-11
1.03617e-10
9.50529e-12
7.54665e-11
5.66153e-12
5.39032e-11
3.38521e-12
3.26854e-11
2.62887e-11
1.52114e-12
-1.00268e-11
3.7622e-11
-4.31394e-11
1.26848e-10
-9.85597e-11
2.22239e-10
-1.82996e-10
3.25479e-10
-2.73973e-10
3.78523e-10
-3.47178e-10
3.48601e-10
-3.75705e-10
2.12582e-10
-3.43913e-10
-1.24064e-11
-2.54289e-10
-2.90595e-10
-1.20054e-10
-5.56935e-10
2.17077e-11
-7.30532e-10
1.42226e-10
-7.68391e-10
2.17007e-10
-6.60298e-10
2.44504e-10
-4.62911e-10
2.3695e-10
-2.43673e-10
2.11013e-10
-5.18334e-11
1.79401e-10
9.02708e-11
1.48423e-10
1.83686e-10
1.20573e-10
2.36227e-10
9.62946e-11
2.57598e-10
7.54955e-11
2.55847e-10
5.77968e-11
2.38665e-10
4.31042e-11
2.10868e-10
3.10514e-11
1.78226e-10
2.16271e-11
1.43535e-10
1.43669e-11
1.10832e-10
9.2023e-12
8.06762e-11
5.47941e-12
5.75877e-11
3.27116e-12
3.4925e-11
2.80609e-11
1.46993e-12
-1.44613e-11
5.20813e-11
-6.10298e-11
1.73411e-10
-1.3271e-10
2.93913e-10
-2.52451e-10
4.4521e-10
-3.76312e-10
5.02386e-10
-4.63513e-10
4.35821e-10
-4.85771e-10
2.34841e-10
-4.2799e-10
-7.0193e-11
-3.01076e-10
-4.17494e-10
-1.26046e-10
-7.31946e-10
4.7535e-11
-9.04085e-10
1.84636e-10
-9.05458e-10
2.60266e-10
-7.35905e-10
2.78141e-10
-4.80761e-10
2.5832e-10
-2.23837e-10
2.22433e-10
-1.59371e-11
1.84115e-10
1.28597e-10
1.49356e-10
2.18451e-10
1.19642e-10
2.65958e-10
9.46279e-11
2.82611e-10
7.37073e-11
2.76797e-10
5.61856e-11
2.5617e-10
4.17847e-11
2.2531e-10
3.00468e-11
1.8993e-10
2.09005e-11
1.52729e-10
1.3872e-11
1.17817e-10
8.87763e-12
8.57134e-11
5.28431e-12
6.11448e-11
3.14924e-12
3.70897e-11
2.97681e-11
1.41476e-12
-2.26229e-11
7.46992e-11
-8.96376e-11
2.40416e-10
-1.77442e-10
3.81718e-10
-3.54132e-10
6.21891e-10
-5.22628e-10
6.70886e-10
-6.29414e-10
5.4263e-10
-6.27446e-10
2.32871e-10
-5.34574e-10
-1.63077e-10
-3.48858e-10
-6.03202e-10
-1.26899e-10
-9.5389e-10
8.72331e-11
-1.11819e-09
2.40773e-10
-1.05896e-09
3.13281e-10
-8.08391e-10
3.16545e-10
-4.84e-10
2.8102e-10
-1.88298e-10
2.33605e-10
3.1487e-11
1.88192e-10
1.74017e-10
1.49703e-10
2.56946e-10
1.18272e-10
2.97403e-10
9.26553e-11
3.08226e-10
7.17098e-11
2.97771e-10
5.44311e-11
2.73433e-10
4.03649e-11
2.39416e-10
2.89724e-11
2.0129e-10
2.01264e-11
1.61619e-10
1.3346e-11
1.24557e-10
8.53286e-12
9.05668e-11
5.07711e-12
6.45663e-11
3.02012e-12
3.91745e-11
3.14048e-11
1.35782e-12
-3.63424e-11
1.11035e-10
-1.29571e-10
3.33635e-10
-2.27475e-10
4.79642e-10
-4.96199e-10
8.9065e-10
-7.34285e-10
9.08982e-10
-8.54116e-10
6.62495e-10
-8.15609e-10
1.94363e-10
-6.57086e-10
-3.21619e-10
-3.95507e-10
-8.64776e-10
-1.11589e-10
-1.2378e-09
1.46236e-10
-1.37599e-09
3.14749e-10
-1.22744e-09
3.77193e-10
-8.70816e-10
3.59371e-10
-4.66152e-10
3.04515e-10
-1.33426e-10
2.44015e-10
9.19948e-11
1.91339e-10
2.26701e-10
1.49314e-10
2.98975e-10
1.16399e-10
3.30332e-10
9.03523e-11
3.34271e-10
6.94933e-11
3.18657e-10
5.25304e-11
2.90381e-10
3.88451e-11
2.53138e-10
2.78295e-11
2.12275e-10
1.93058e-11
1.70184e-10
1.27897e-11
1.31036e-10
8.16867e-12
9.52256e-11
4.85823e-12
6.78447e-11
2.88407e-12
4.11747e-11
3.29655e-11
1.29951e-12
-6.96167e-11
1.80641e-10
-2.09603e-10
4.73607e-10
-3.12547e-10
5.82609e-10
-7.05503e-10
1.28362e-09
-1.03802e-09
1.24165e-09
-1.15548e-09
7.80075e-10
-1.0399e-09
7.8792e-11
-7.93611e-10
-5.67938e-10
-4.35816e-10
-1.22257e-09
-7.89852e-11
-1.59462e-09
2.31292e-10
-1.68624e-09
4.10728e-10
-1.40684e-09
4.53589e-10
-9.1366e-10
4.06238e-10
-4.18775e-10
3.27912e-10
-5.50848e-11
2.53057e-10
1.66858e-10
1.93206e-10
2.86558e-10
1.48028e-10
3.44157e-10
1.1395e-10
3.64422e-10
8.76884e-11
3.60531e-10
6.70441e-11
3.39326e-10
5.04772e-11
3.06933e-10
3.7223e-11
2.66427e-10
2.66173e-11
2.22852e-10
1.84385e-11
1.78402e-10
1.2203e-11
1.37236e-10
7.78504e-12
9.96786e-11
4.62769e-12
7.09723e-11
2.74109e-12
4.30855e-11
3.44451e-11
1.23934e-12
-9.28347e-11
2.73462e-10
-2.01397e-10
5.82176e-10
-4.74996e-10
8.56271e-10
-1.02169e-09
1.83042e-09
-1.48807e-09
1.70823e-09
-1.58459e-09
8.7675e-10
-1.31613e-09
-1.89555e-10
-9.38035e-10
-9.46087e-10
-4.62439e-10
-1.69816e-09
-1.36954e-11
-2.04335e-09
3.51734e-10
-2.05164e-09
5.34159e-10
-1.58922e-09
5.43607e-10
-9.23092e-10
4.5595e-10
-3.31092e-10
3.50189e-10
5.06918e-11
2.59986e-10
2.57068e-10
1.93455e-10
3.53096e-10
1.45711e-10
3.91905e-10
1.10879e-10
3.99265e-10
8.46515e-11
3.86755e-10
6.43633e-11
3.59637e-10
4.82757e-11
3.23007e-10
3.5504e-11
2.79231e-10
2.53405e-11
2.32989e-10
1.75277e-11
1.86251e-10
1.1588e-11
1.43143e-10
7.38348e-12
1.03916e-10
4.38642e-12
7.39418e-11
2.59167e-12
4.49025e-11
3.58397e-11
1.17673e-12
-2.63469e-10
2.9503e-10
-1.14791e-09
9.18648e-10
-2.49191e-09
1.353e-09
-2.39126e-09
1.5883e-09
-2.38099e-09
1.69805e-09
-2.18975e-09
6.85761e-10
-1.642e-09
-7.37186e-10
-1.0798e-09
-1.50828e-09
-4.51934e-10
-2.32598e-09
1.12722e-10
-2.60797e-09
5.20344e-10
-2.45923e-09
6.89708e-10
-1.75854e-09
6.47067e-10
-8.80439e-10
5.07149e-10
-1.91148e-10
3.6917e-10
1.88685e-10
2.63878e-10
3.62367e-10
1.91716e-10
4.25262e-10
1.42228e-10
4.41397e-10
1.07138e-10
4.34365e-10
8.12252e-11
4.12666e-10
6.14481e-11
3.79435e-10
4.59275e-11
3.38514e-10
3.369e-11
2.91498e-10
2.4001e-11
2.42653e-10
1.65749e-11
1.9371e-10
1.09458e-11
1.48742e-10
6.9647e-12
1.07926e-10
4.13494e-12
7.67465e-11
2.43589e-12
4.66218e-11
3.71462e-11
1.11095e-12
-2.87567e-10
-1.99276e-11
-1.30434e-09
6.73206e-11
-4.32049e-09
8.52597e-10
-5.29491e-09
2.10348e-10
-3.48338e-09
-1.1338e-10
-3.06844e-09
2.71021e-10
-1.99852e-09
-1.80709e-09
-1.17889e-09
-2.32797e-09
-3.88724e-10
-3.11619e-09
2.95863e-10
-3.2925e-09
7.49376e-10
-2.91269e-09
8.85245e-10
-1.89436e-09
7.63442e-10
-7.58629e-10
5.56526e-10
1.57932e-11
3.8276e-10
3.62466e-10
2.63721e-10
4.81413e-10
1.87623e-10
5.01365e-10
1.37452e-10
4.9157e-10
1.02685e-10
4.69141e-10
7.73932e-11
4.37955e-10
5.82943e-11
3.98554e-10
4.34314e-11
3.53365e-10
3.17806e-11
3.03176e-10
2.25988e-11
2.51812e-10
1.55805e-11
2.00758e-10
1.02765e-11
1.54018e-10
6.5289e-12
1.11701e-10
3.87337e-12
7.93793e-11
2.2739e-12
4.82396e-11
3.83616e-11
1.04186e-12
-2.39805e-11
-5.24694e-12
-5.92126e-11
9.05687e-11
-1.38165e-09
1.50995e-11
-5.3681e-09
-9.30169e-11
-5.03491e-09
-2.56051e-09
-3.80224e-09
-9.61424e-10
-2.32566e-09
-3.28366e-09
-1.1619e-09
-3.49179e-09
-2.40923e-10
-4.03723e-09
5.67932e-10
-4.10139e-09
1.05334e-09
-3.39808e-09
1.12377e-09
-1.96472e-09
8.89795e-10
-5.24647e-10
5.97675e-10
3.07937e-10
3.87965e-10
5.7219e-10
2.58515e-10
6.10869e-10
1.80885e-10
5.78999e-10
1.31317e-10
5.41141e-10
9.75146e-11
5.02952e-10
7.31627e-11
4.62304e-10
5.49105e-11
4.16823e-10
4.07946e-11
3.6747e-10
2.97819e-11
3.14213e-10
2.11386e-11
2.60435e-10
1.4548e-11
2.07376e-10
9.58251e-12
1.58959e-10
6.07756e-12
1.1523e-10
3.60265e-12
8.1834e-11
2.10632e-12
4.97521e-11
3.94829e-11
9.70209e-13
-2.36486e-11
8.48371e-12
-3.42063e-11
2.45396e-11
-1.16526e-11
-6.22441e-11
-2.00394e-09
7.87485e-11
-6.85221e-09
-3.33332e-09
-3.15919e-09
-5.23686e-09
-2.70301e-09
-3.73981e-09
-9.59981e-10
-5.23485e-09
4.24394e-11
-5.03964e-09
9.5161e-10
-5.0106e-09
1.45254e-09
-3.89898e-09
1.41228e-09
-1.92438e-09
1.02108e-09
-1.33451e-10
6.23715e-10
7.05328e-10
3.82018e-10
8.139e-10
2.47343e-10
7.4555e-10
1.7129e-10
6.55056e-10
1.23793e-10
5.88639e-10
9.16299e-11
5.35122e-10
6.85413e-11
4.8539e-10
5.13026e-11
4.34077e-10
3.80223e-11
3.8074e-10
2.76974e-11
3.24559e-10
1.96227e-11
2.68492e-10
1.34792e-11
2.13543e-10
8.86502e-12
1.63552e-10
5.61148e-12
1.18504e-10
3.3233e-12
8.41044e-11
1.93357e-12
5.1156e-11
4.05068e-11
8.96879e-13
-9.26338e-12
6.98468e-12
-1.23286e-11
1.50514e-11
-6.32928e-11
-1.80667e-11
-1.03782e-10
8.9499e-11
-6.73316e-09
-1.93512e-09
-5.82448e-09
-9.58369e-09
-3.06513e-09
-6.49912e-09
-7.03233e-10
-7.59677e-09
5.29797e-10
-6.27266e-09
1.46911e-09
-5.94988e-09
1.96033e-09
-4.3902e-09
1.75382e-09
-1.7178e-09
1.14591e-09
4.7446e-10
6.31901e-10
1.21936e-09
3.62644e-10
1.08317e-09
2.29492e-10
8.78707e-10
1.58728e-10
7.25823e-10
1.14895e-10
6.32474e-10
8.50496e-11
5.64974e-10
6.35406e-11
5.06896e-10
4.74751e-11
4.50156e-10
3.51176e-11
3.93088e-10
2.55288e-11
3.34166e-10
1.80519e-11
2.75953e-10
1.23747e-11
2.19241e-10
8.12456e-12
1.67784e-10
5.13084e-12
1.21516e-10
3.03546e-12
8.61846e-11
1.75589e-12
5.24476e-11
4.14295e-11
8.2213e-13
-1.88638e-12
2.91117e-12
-2.22452e-12
2.50306e-12
-2.05902e-11
-5.67261e-14
4.56253e-11
6.13492e-12
-8.71154e-10
-1.45261e-10
-5.7682e-09
-3.21195e-09
-1.59773e-09
-1.06696e-08
-1.69949e-10
-9.02456e-09
1.18637e-09
-7.62897e-09
2.13412e-09
-6.89759e-09
2.59932e-09
-4.8554e-09
2.15885e-09
-1.27726e-09
1.25308e-09
1.38022e-09
6.12238e-10
1.86022e-09
3.26001e-10
1.36942e-09
2.04536e-10
1.00018e-09
1.43279e-10
7.87082e-10
1.0473e-10
6.71025e-10
7.78326e-11
5.91877e-10
5.81926e-11
5.26533e-10
4.34454e-11
4.64914e-10
3.20907e-11
4.04435e-10
2.32827e-11
3.4299e-10
1.64308e-11
2.82792e-10
1.12373e-11
2.24451e-10
7.36303e-12
1.71642e-10
4.63685e-12
1.24257e-10
2.73995e-12
8.80689e-11
1.5735e-12
5.3624e-11
4.22484e-11
7.45571e-13
3.17897e-13
1.23187e-12
1.33232e-13
4.36806e-13
-4.26188e-13
1.83105e-13
-5.72443e-15
-1.14443e-12
-9.5757e-11
-5.66085e-11
-4.32732e-09
-5.45961e-10
-2.48405e-10
-1.31441e-08
8.35446e-10
-1.01084e-08
1.96811e-09
-8.76164e-09
2.93506e-09
-7.8645e-09
3.36426e-09
-5.28457e-09
2.60081e-09
-5.13739e-10
1.33086e-09
2.65016e-09
5.50363e-10
2.64073e-09
2.67791e-10
1.652e-09
1.72163e-10
1.09581e-09
1.25187e-10
8.34061e-10
9.346e-11
7.02752e-10
7.00438e-11
6.15297e-10
5.2522e-11
5.44053e-10
3.9224e-11
4.78221e-10
2.89462e-11
4.14706e-10
2.0961e-11
3.50987e-10
1.47599e-11
2.88982e-10
1.00673e-11
2.29157e-10
6.58042e-12
1.75117e-10
4.12957e-12
1.26719e-10
2.43696e-12
8.97514e-11
1.38772e-12
5.46811e-11
4.29625e-11
6.66401e-13
2.72297e-13
4.00849e-13
5.16743e-13
2.64243e-13
-7.77505e-16
2.28024e-13
-1.15993e-12
3.37473e-14
-5.34506e-11
-1.43222e-12
-5.42595e-10
-5.5748e-11
-1.86086e-09
-7.49327e-09
1.78666e-09
-1.37557e-08
2.8284e-09
-9.80299e-09
3.97784e-09
-9.01388e-09
4.4362e-09
-5.74293e-09
3.25667e-09
6.6588e-10
1.39449e-09
4.51232e-09
4.34529e-10
3.60071e-09
1.86641e-10
1.89989e-09
1.32379e-10
1.15007e-09
1.05142e-10
8.613e-10
8.1448e-11
7.26447e-10
6.18462e-11
6.34901e-10
4.66098e-11
5.59287e-10
3.48572e-11
4.89981e-10
2.57096e-11
4.23848e-10
1.85783e-11
3.58128e-10
1.30477e-11
2.94504e-10
8.86836e-12
2.33347e-10
5.77876e-12
1.78197e-10
3.60954e-12
1.28897e-10
2.12668e-12
9.12268e-11
1.18633e-12
5.56271e-11
4.35689e-11
5.74605e-13
1.81596e-13
8.06906e-14
1.50374e-13
2.89526e-14
8.52111e-14
1.86989e-13
5.55422e-15
9.97969e-15
-1.43798e-12
1.01498e-14
-3.73868e-11
-1.55958e-11
-4.19111e-09
-8.87918e-11
4.34367e-09
-1.52975e-08
4.17379e-09
-9.63239e-09
4.85431e-09
-9.69418e-09
5.30142e-09
-6.19001e-09
3.60638e-09
2.361e-09
1.27575e-09
6.84293e-09
2.2019e-10
4.65628e-09
6.25001e-11
2.05759e-09
8.09518e-11
1.13162e-09
8.10533e-11
8.612e-10
6.70452e-11
7.40456e-10
5.1981e-11
6.49967e-10
3.95491e-11
5.71718e-10
2.96959e-11
4.99839e-10
2.19342e-11
4.31606e-10
1.58255e-11
3.64243e-10
1.10869e-11
2.99236e-10
7.50934e-12
2.36931e-10
4.87648e-12
1.80823e-10
3.03071e-12
1.30749e-10
1.78815e-12
9.24645e-11
9.81985e-13
5.64368e-11
4.40492e-11
4.9819e-13
5.13549e-14
4.15425e-15
4.65508e-14
8.69426e-16
6.15482e-14
9.72228e-15
5.60347e-14
1.07672e-14
5.3353e-14
1.26974e-15
1.43669e-12
-1.37161e-12
3.59701e-11
-1.12181e-10
5.226e-10
-4.42745e-09
5.29006e-09
-1.31405e-08
6.90978e-09
-1.13126e-08
7.70924e-09
-6.98915e-09
4.85585e-09
5.21453e-09
1.28455e-09
1.04142e-08
-2.84263e-11
5.96926e-09
-7.78296e-11
2.107e-09
4.14645e-11
1.01233e-09
6.94846e-11
8.3318e-10
6.1144e-11
7.48798e-10
4.79482e-11
6.63164e-10
3.67073e-11
5.82957e-10
2.76302e-11
5.08918e-10
2.04004e-11
4.38833e-10
1.46611e-11
3.69986e-10
1.02183e-11
3.03676e-10
6.85578e-12
2.40297e-10
4.42622e-12
1.83249e-10
2.70875e-12
1.32469e-10
1.61614e-12
9.35549e-11
8.49987e-13
5.72044e-11
4.44813e-11
4.16278e-13
4.30966e-15
-1.35425e-15
3.5149e-15
5.94363e-16
8.64641e-15
2.03559e-15
8.54752e-15
-2.61592e-16
9.30396e-15
3.11243e-16
-2.16167e-12
7.99462e-13
-1.14281e-10
-5.8868e-14
-5.03779e-09
-1.28052e-10
3.78149e-09
-5.26533e-09
4.57471e-09
-8.11665e-09
6.68666e-09
-9.10067e-09
4.15643e-09
7.74501e-09
3.99591e-10
1.4171e-08
-8.12153e-10
7.18101e-09
-3.41788e-10
1.63663e-09
-3.15276e-11
7.02072e-10
4.96416e-11
7.52012e-10
5.10769e-11
7.47363e-10
4.38476e-11
6.70393e-10
3.66601e-11
5.90144e-10
2.97265e-11
5.15853e-10
2.33226e-11
4.45235e-10
1.75487e-11
3.75761e-10
1.26104e-11
3.08612e-10
8.60611e-12
2.44302e-10
5.58623e-12
1.86267e-10
3.49144e-12
1.34564e-10
2.16355e-12
9.48815e-11
1.33037e-12
5.80379e-11
9.11879e-13
4.48989e-11
9.88648e-13
3.1721e-14
1.00161e-12
-5.06898e-14
1.19278e-12
-1.62762e-13
8.77106e-13
2.96435e-13
7.95251e-13
9.41105e-14
7.47445e-13
3.97916e-14
6.51105e-13
1.00892e-13
5.82003e-13
6.58899e-14
4.06978e-13
1.76225e-13
3.23517e-13
8.2252e-14
3.13566e-13
9.86896e-15
1.74844e-13
1.38357e-13
4.40114e-14
1.30405e-13
-2.1741e-14
6.58359e-14
-1.28511e-13
1.06187e-13
-1.45368e-13
1.74111e-14
-1.24738e-13
-2.15337e-14
-7.04081e-14
-5.32425e-14
-9.08964e-16
-7.07524e-14
1.24794e-15
-7.53376e-16
1.22276e-14
-1.22541e-14
1.68365e-14
-3.36306e-15
-8.01081e-15
2.40079e-14
-4.34422e-14
3.61287e-14
-9.93452e-14
5.57034e-14
-1.14577e-13
1.53384e-14
-1.60128e-13
4.58463e-14
-7.08793e-14
-8.95004e-14
1.03084e-13
-1.73451e-13
1.02703e-13
1.50738e-12
2.64764e-13
1.41925e-12
-1.75722e-14
1.18433e-12
1.10556e-13
6.52137e-13
8.03052e-13
6.10094e-13
1.51876e-13
4.58078e-13
1.81299e-13
3.92186e-13
1.72137e-13
3.17231e-13
1.36705e-13
2.59518e-13
2.34956e-13
2.56419e-13
8.38749e-14
2.23268e-13
4.25265e-14
1.23917e-13
2.37436e-13
7.05038e-14
1.82873e-13
9.20819e-14
4.48447e-14
7.33038e-14
1.23575e-13
7.20324e-14
2.02236e-14
5.14099e-14
-2.94532e-15
4.32515e-14
-4.2722e-14
3.8939e-14
-6.88419e-14
5.38674e-14
-1.31568e-14
3.50049e-14
4.5943e-15
3.28318e-14
6.6329e-16
3.34121e-14
2.24402e-14
3.99608e-14
3.03435e-14
3.41456e-14
6.16149e-14
2.69276e-14
2.2416e-14
3.05847e-14
4.29607e-14
1.05676e-14
-7.00808e-14
-5.62707e-16
-1.61224e-13
1.01773e-13
2.05538e-12
6.1751e-13
8.01867e-13
1.18295e-12
5.3141e-13
4.17222e-13
5.57865e-13
7.52679e-13
5.969e-13
1.27474e-13
4.30972e-13
3.37472e-13
3.67274e-13
2.40766e-13
3.34671e-13
1.65494e-13
3.06095e-13
2.64427e-13
1.85677e-13
2.0295e-13
6.50023e-14
1.62699e-13
1.02556e-13
1.99662e-13
1.07522e-13
1.76973e-13
1.07979e-13
4.49979e-14
9.49576e-14
1.35215e-13
8.93683e-14
2.73498e-14
8.53234e-14
-9.07458e-16
7.03568e-14
-2.54455e-14
8.73418e-15
-9.55153e-15
2.12659e-14
-2.32644e-14
4.1031e-14
-1.70875e-14
4.00721e-14
3.36195e-15
5.07707e-14
1.08366e-14
6.95435e-14
1.22527e-14
4.00882e-14
9.12018e-14
3.85543e-14
2.37775e-14
3.7569e-14
4.47085e-14
-3.13233e-14
-1.78632e-15
-4.01366e-14
-1.51382e-13
6.12877e-14
1.55662e-12
9.0549e-13
1.07297e-12
1.6158e-12
9.68342e-13
5.55961e-13
7.09705e-13
9.8896e-13
6.22388e-13
2.28391e-13
4.46209e-13
5.04596e-13
3.75408e-13
3.16096e-13
2.97197e-13
2.40182e-13
2.47176e-13
3.15226e-13
1.94931e-13
2.53962e-13
1.32342e-13
2.24777e-13
1.28055e-13
2.03766e-13
1.06268e-13
1.97841e-13
1.13498e-13
3.8386e-14
8.88423e-14
1.58507e-13
8.7323e-14
3.03834e-14
6.8667e-14
1.57867e-14
5.70286e-14
-1.15668e-14
4.03924e-14
4.83822e-15
4.49758e-14
-2.55335e-14
3.93535e-14
-1.32774e-14
3.94624e-14
4.88184e-15
3.59669e-14
1.35071e-14
3.87467e-14
1.00834e-14
4.1693e-14
8.84166e-14
3.85068e-14
2.67701e-14
3.79724e-14
4.59916e-14
1.47548e-14
2.08468e-14
-6.21864e-16
-1.35036e-13
6.03371e-14
1.52348e-12
1.18583e-12
1.08502e-12
2.00556e-12
9.82081e-13
6.91113e-13
7.22102e-13
1.22798e-12
6.14972e-13
3.48191e-13
4.43139e-13
6.68e-13
3.76113e-13
3.87286e-13
2.89023e-13
3.24003e-13
2.37902e-13
3.67016e-13
1.97158e-13
2.93567e-13
1.38128e-13
2.83284e-13
1.34596e-13
2.07142e-13
1.19775e-13
2.11755e-13
1.1198e-13
4.67993e-14
8.65639e-14
1.82581e-13
8.6599e-14
3.18346e-14
6.49351e-14
3.55376e-14
5.43983e-14
1.13911e-15
4.15972e-14
1.54792e-14
4.60603e-14
-2.77874e-14
3.89607e-14
-7.88979e-15
3.95772e-14
5.79245e-15
3.55322e-14
1.68012e-14
3.31983e-14
1.29657e-14
3.93237e-14
8.24782e-14
3.53648e-14
3.05205e-14
3.71277e-14
4.49627e-14
2.17632e-14
3.56454e-14
6.95763e-16
-1.1305e-13
6.07224e-14
1.51175e-12
1.46063e-12
1.08658e-12
2.38405e-12
9.68771e-13
8.39416e-13
7.1669e-13
1.46036e-12
6.00893e-13
4.75817e-13
4.39049e-13
8.21975e-13
3.74626e-13
4.55539e-13
2.74994e-13
4.20592e-13
2.24059e-13
4.18519e-13
1.92383e-13
3.2418e-13
1.43091e-13
3.32042e-13
1.45287e-13
2.04811e-13
1.25085e-13
2.3106e-13
1.04626e-13
6.78748e-14
8.28766e-14
2.03009e-13
8.21108e-14
3.40572e-14
5.9668e-14
5.6116e-14
5.63547e-14
6.55195e-15
4.50945e-14
2.46629e-14
4.48087e-14
-2.53919e-14
3.85754e-14
-3.27352e-15
3.93606e-14
6.44099e-15
3.60456e-14
1.94341e-14
3.27761e-14
1.67287e-14
3.81432e-14
7.73212e-14
3.46481e-14
3.37961e-14
4.51538e-14
3.51763e-14
3.27498e-14
4.75039e-14
-7.21076e-15
-7.22146e-14
5.32186e-14
1.49832e-12
1.7304e-12
1.08415e-12
2.75348e-12
9.45812e-13
1.00664e-12
6.98988e-13
1.68863e-12
5.83996e-13
6.01864e-13
4.35711e-13
9.62901e-13
3.7185e-13
5.22925e-13
2.61169e-13
5.28431e-13
2.12878e-13
4.67287e-13
1.88048e-13
3.48014e-13
1.4887e-13
3.70675e-13
1.50697e-13
2.02864e-13
1.2443e-13
2.56442e-13
1.00001e-13
9.29148e-14
8.13088e-14
2.20403e-13
7.88983e-14
3.78935e-14
5.6925e-14
7.62741e-14
5.82989e-14
7.20884e-15
4.92476e-14
3.17198e-14
4.45445e-14
-1.86744e-14
3.67788e-14
2.96613e-15
3.75907e-14
6.97533e-15
3.68879e-14
1.95192e-14
3.52916e-14
1.87685e-14
4.14238e-14
7.14195e-14
3.73352e-14
3.76572e-14
5.29796e-14
2.0236e-14
4.28876e-14
5.70721e-14
-1.72226e-14
-1.12704e-14
3.57198e-14
1.47913e-12
1.99685e-12
1.07612e-12
3.11364e-12
9.20062e-13
1.19008e-12
6.77153e-13
1.91407e-12
5.66712e-13
7.22635e-13
4.22568e-13
1.10016e-12
3.62026e-13
5.86703e-13
2.73829e-13
6.13974e-13
2.17918e-13
5.23588e-13
1.82271e-13
3.82726e-13
1.59169e-13
3.93224e-13
1.51615e-13
2.10311e-13
1.15664e-13
2.91519e-13
9.75814e-14
1.11601e-13
8.13789e-14
2.35329e-13
7.80474e-14
4.26179e-14
5.85223e-14
9.40347e-14
5.85916e-14
9.10065e-15
5.01426e-14
3.82565e-14
4.43611e-14
-1.09721e-14
3.69619e-14
8.92777e-15
3.67857e-14
8.41419e-15
3.72395e-14
1.85086e-14
3.71976e-14
1.9208e-14
4.60861e-14
6.27797e-14
4.21583e-14
4.13517e-14
4.39872e-14
1.90949e-14
4.06314e-14
5.99263e-14
2.15613e-15
2.80007e-14
3.76161e-14
1.45182e-12
2.26253e-12
1.06183e-12
3.46269e-12
8.98256e-13
1.37956e-12
6.60516e-13
2.13538e-12
5.52747e-13
8.40038e-13
4.13813e-13
1.23267e-12
3.54598e-13
6.48885e-13
2.74872e-13
6.9122e-13
2.21683e-13
5.77088e-13
1.85497e-13
4.18032e-13
1.55043e-13
4.23118e-13
1.41369e-13
2.2389e-13
1.07696e-13
3.24328e-13
9.50499e-14
1.24843e-13
7.97614e-14
2.49366e-13
7.65738e-14
4.71624e-14
5.99665e-14
1.08931e-13
5.77029e-14
1.32534e-14
5.01945e-14
4.39359e-14
4.46425e-14
-3.59274e-15
3.78894e-14
1.43304e-14
3.68489e-14
1.06363e-14
3.73691e-14
1.74895e-14
3.82183e-14
1.87137e-14
4.93798e-14
5.18822e-14
4.44074e-14
4.60876e-14
4.14747e-14
2.26975e-14
5.57815e-14
4.51411e-14
2.52039e-14
5.93366e-14
6.25765e-14
1.41793e-12
2.52863e-12
1.04196e-12
3.79962e-12
8.77333e-13
1.56864e-12
6.44936e-13
2.35235e-12
5.41859e-13
9.5208e-13
4.07336e-13
1.3612e-12
3.47118e-13
7.11811e-13
2.7118e-13
7.64844e-13
2.21437e-13
6.27068e-13
1.86269e-13
4.52373e-13
1.48265e-13
4.60559e-13
1.32101e-13
2.39966e-13
1.01799e-13
3.53782e-13
9.24282e-14
1.34798e-13
7.63504e-14
2.64221e-13
7.34394e-14
5.13906e-14
6.00624e-14
1.20654e-13
5.64113e-14
1.87186e-14
5.03708e-14
4.82327e-14
4.49407e-14
3.57067e-15
3.94592e-14
1.85478e-14
3.77063e-14
1.34918e-14
3.71118e-14
1.76404e-14
3.90271e-14
1.71133e-14
4.57251e-14
4.5461e-14
4.15373e-14
5.00378e-14
3.79172e-14
2.69677e-14
3.36634e-14
4.89404e-14
1.38383e-14
7.98828e-14
7.61872e-14
1.37974e-12
2.79508e-12
1.017e-12
4.12527e-12
8.5396e-13
1.7547e-12
6.27529e-13
2.56433e-12
5.35188e-13
1.05274e-12
4.05841e-13