/*--------------------------------*- C++ -*----------------------------------*\
| =========                 |                                                 |
| \\      /  F ield         | OpenFOAM: The Open Source CFD Toolbox           |
|  \\    /   O peration     | Version:  2.4.0                                 |
|   \\  /    A nd           | Web:      www.OpenFOAM.org                      |
|    \\/     M anipulation  |                                                 |
\*---------------------------------------------------------------------------*/
FoamFile
{
    version     2.0;
    format      ascii;
    class       volScalarField;
    location    "0.305";
    object      alpha.water;
}
// * * * * * * * * * * * * * * * * * * * * * * * * * * * * * * * * * * * * * //

dimensions      [0 0 0 0 0 0 0];

internalField   nonuniform List<scalar> 
10000
(
8.07313e-53
6.85652e-49
2.29189e-45
3.65892e-42
1.84253e-39
2.83098e-37
1.70124e-35
4.87172e-34
7.59588e-33
7.14139e-32
4.56078e-31
2.2393e-30
9.46769e-30
3.93677e-29
1.72816e-28
8.18577e-28
4.49173e-27
2.63554e-26
1.49424e-25
8.01138e-25
3.95662e-24
1.80317e-23
7.62309e-23
2.9868e-22
1.07023e-21
3.45619e-21
9.90113e-21
2.45923e-20
4.93219e-20
7.15667e-20
7.48611e-20
5.69078e-20
3.23905e-20
1.43961e-20
5.26162e-21
1.66456e-21
4.67925e-22
1.16114e-22
2.47832e-23
4.45262e-24
6.65952e-25
8.32912e-26
8.68744e-27
7.42358e-28
5.1089e-29
3.11668e-30
1.49388e-30
5.59271e-30
2.15555e-29
8.0557e-29
1.11015e-49
1.01636e-45
3.85163e-42
6.60486e-39
2.81742e-36
3.65178e-34
1.92182e-32
4.9935e-31
7.2554e-30
6.46238e-29
3.93712e-28
1.8429e-27
7.43027e-27
2.99064e-26
1.28625e-25
5.87202e-25
3.04573e-24
1.6848e-23
8.79524e-23
4.33885e-22
1.9934e-21
8.40216e-21
3.27286e-20
1.17825e-19
3.90365e-19
1.1688e-18
3.08957e-18
7.06039e-18
1.32586e-17
1.90654e-17
2.08161e-17
1.73661e-17
1.12077e-17
5.74781e-18
2.44124e-18
8.93596e-19
2.87096e-19
8.08193e-20
1.96409e-20
4.06123e-21
7.07516e-22
1.0386e-22
1.27426e-23
1.28562e-24
1.05493e-25
8.13811e-27
6.08047e-27
2.58255e-26
1.10483e-25
4.56515e-25
1.88941e-47
2.53097e-43
1.92438e-39
3.3174e-36
1.14819e-33
1.2476e-31
5.76837e-30
1.36554e-28
1.85652e-27
1.57424e-26
9.20516e-26
4.12441e-25
1.59497e-24
6.2124e-24
2.58268e-23
1.13363e-22
5.48661e-22
2.80902e-21
1.34539e-20
6.06791e-20
2.55471e-19
9.90457e-19
3.55531e-18
1.18105e-17
3.61895e-17
1.01154e-16
2.51244e-16
5.3948e-16
9.69403e-16
1.38648e-15
1.56068e-15
1.38848e-15
9.80147e-16
5.58846e-16
2.66411e-16
1.09612e-16
3.95097e-17
1.24731e-17
3.41432e-18
8.00883e-19
1.59601e-19
2.69376e-20
3.80032e-21
4.41052e-22
4.18286e-23
4.24733e-24
5.83754e-24
2.80254e-23
1.31694e-22
5.91525e-22
1.3589e-45
3.99637e-41
5.64552e-37
7.69569e-34
2.11053e-31
1.93483e-29
7.90807e-28
1.71332e-26
2.18806e-25
1.77326e-24
9.98786e-24
4.29445e-23
1.59231e-22
5.94953e-22
2.37174e-21
9.91787e-21
4.45845e-20
2.09678e-19
9.26406e-19
3.82174e-18
1.46539e-17
5.20543e-17
1.71753e-16
5.27517e-16
1.50313e-15
3.92614e-15
9.21412e-15
1.88307e-14
3.27105e-14
4.65808e-14
5.36602e-14
5.00315e-14
3.77786e-14
2.33544e-14
1.21617e-14
5.48161e-15
2.16911e-15
7.55001e-16
2.29133e-16
5.98993e-17
1.33843e-17
2.53549e-18
4.00188e-19
5.17966e-20
5.49856e-21
8.36318e-22
2.16201e-21
1.13029e-20
5.63814e-20
2.63073e-19
8.15192e-44
7.94596e-39
9.78838e-35
9.85192e-32
2.17036e-29
1.69754e-27
6.17608e-26
1.23014e-24
1.4812e-23
1.15158e-22
6.26826e-22
2.59397e-21
9.21813e-21
3.27717e-20
1.24261e-19
4.90503e-19
2.04891e-18
8.84199e-18
3.6087e-17
1.36621e-16
4.76087e-16
1.54339e-15
4.67711e-15
1.32985e-14
3.52974e-14
8.6456e-14
1.91906e-13
3.75708e-13
6.33356e-13
8.97646e-13
1.05382e-12
1.0204e-12
8.11671e-13
5.34113e-13
2.98021e-13
1.44556e-13
6.18416e-14
2.33825e-14
7.74586e-15
2.21773e-15
5.44508e-16
1.12836e-16
1.93723e-17
2.71456e-18
3.15461e-19
8.73578e-20
3.48085e-19
1.83755e-18
8.92137e-18
3.88999e-17
4.20222e-42
1.24062e-36
1.03677e-32
7.83828e-30
1.40954e-27
9.50188e-26
3.09695e-24
5.69416e-23
6.48491e-22
4.85333e-21
2.5614e-20
1.02433e-19
3.48573e-19
1.17322e-18
4.1877e-18
1.5508e-17
6.02468e-17
2.39182e-16
8.98817e-16
3.12203e-15
9.92452e-15
2.93532e-14
8.17277e-14
2.14919e-13
5.31906e-13
1.22361e-12
2.57172e-12
4.82862e-12
7.91593e-12
1.11607e-11
1.33182e-11
1.33226e-11
1.10593e-11
7.64187e-12
4.50436e-12
2.32196e-12
1.06207e-12
4.31725e-13
1.54275e-13
4.78026e-14
1.26982e-14
2.82782e-15
5.18899e-16
7.72819e-17
9.86685e-18
5.20187e-18
2.4298e-17
1.21255e-16
5.36753e-16
2.09979e-15
3.35721e-40
1.28942e-34
7.24958e-31
4.19683e-28
6.24329e-26
3.65897e-24
1.07428e-22
1.82977e-21
1.97591e-20
1.42759e-19
7.32912e-19
2.84617e-18
9.27456e-18
2.94519e-17
9.81883e-17
3.38563e-16
1.22565e-15
4.46703e-15
1.54879e-14
4.9342e-14
1.43306e-13
3.87086e-13
9.90482e-13
2.41283e-12
5.56647e-12
1.20298e-11
2.39308e-11
4.30519e-11
6.8708e-11
9.62651e-11
1.16563e-10
1.20137e-10
1.03461e-10
7.4295e-11
4.58025e-11
2.48801e-11
1.20728e-11
5.23068e-12
2.00009e-12
6.65974e-13
1.89896e-13
4.52362e-14
8.82823e-15
1.3911e-15
1.98039e-16
1.66419e-16
7.83346e-16
3.5892e-15
1.44326e-14
5.11238e-14
2.73515e-38
9.26343e-33
3.54939e-29
1.59857e-26
1.98864e-24
1.02056e-22
2.71173e-21
4.29097e-20
4.40182e-19
3.07666e-18
1.54112e-17
5.84224e-17
1.82644e-16
5.46193e-16
1.69107e-15
5.39632e-15
1.81337e-14
6.06778e-14
1.94471e-13
5.68577e-13
1.50906e-12
3.72869e-12
8.78003e-12
1.98324e-11
4.27365e-11
8.66603e-11
1.62875e-10
2.80125e-10
4.34771e-10
6.04993e-10
7.43269e-10
7.89004e-10
7.02042e-10
5.18822e-10
3.31729e-10
1.88775e-10
9.67417e-11
4.44835e-11
1.81362e-11
6.46532e-12
1.97496e-12
5.04126e-13
1.04948e-13
1.75598e-14
2.76921e-15
2.92121e-15
1.31339e-14
5.5589e-14
2.05799e-13
6.70376e-13
2.26544e-36
4.78524e-31
1.27132e-27
4.51188e-25
4.73496e-23
2.14051e-21
5.1669e-20
7.61224e-19
7.42664e-18
5.02772e-17
2.46315e-16
9.16052e-16
2.75831e-15
7.76809e-15
2.22545e-14
6.53922e-14
2.02408e-13
6.22861e-13
1.84581e-12
4.95789e-12
1.20426e-11
2.72332e-11
5.90929e-11
1.24061e-10
2.49964e-10
4.75825e-10
8.43777e-10
1.38302e-09
2.08223e-09
2.87914e-09
3.59861e-09
3.94578e-09
3.61804e-09
2.71641e-09
1.78617e-09
1.06039e-09
5.72376e-10
2.79258e-10
1.21541e-10
4.6449e-11
1.52426e-11
4.1885e-12
9.3857e-13
1.68306e-13
2.85581e-14
3.05954e-14
1.29037e-13
5.11249e-13
1.76935e-12
5.39196e-12
1.60405e-34
1.84069e-29
3.445e-26
9.73711e-24
8.68249e-22
3.47439e-20
7.64196e-19
1.04975e-17
9.74367e-17
6.39042e-16
3.06673e-15
1.12305e-14
3.27681e-14
8.71173e-14
2.30697e-13
6.20924e-13
1.75749e-12
4.96233e-12
1.36108e-11
3.36825e-11
7.49917e-11
1.55286e-10
3.11034e-10
6.08383e-10
1.14803e-09
2.0526e-09
3.43172e-09
5.35285e-09
7.81437e-09
1.08059e-08
1.38548e-08
1.58283e-08
1.49442e-08
1.11361e-08
7.4362e-09
4.58121e-09
2.60111e-09
1.34884e-09
6.291e-10
2.59086e-10
9.19847e-11
2.74188e-11
6.68526e-12
1.30186e-12
2.30451e-13
2.09318e-13
8.20358e-13
3.08766e-12
1.01444e-11
2.92946e-11
9.00262e-33
5.42779e-28
7.25824e-25
1.64858e-22
1.25645e-20
4.46781e-19
8.97384e-18
1.15008e-16
1.01503e-15
6.44361e-15
3.03023e-14
1.09479e-13
3.11804e-13
7.85941e-13
1.92831e-12
4.73491e-12
1.21705e-11
3.14124e-11
7.9797e-11
1.82587e-10
3.73441e-10
7.08748e-10
1.31261e-09
2.39551e-09
4.23581e-09
7.1189e-09
1.12352e-08
1.67265e-08
2.38722e-08
3.36645e-08
4.49173e-08
5.43843e-08
5.3606e-08
3.7567e-08
2.50187e-08
1.58706e-08
9.4422e-09
5.2067e-09
2.61075e-09
1.16432e-09
4.50496e-10
1.46977e-10
3.93434e-11
8.41495e-12
1.54711e-12
1.02883e-12
3.6528e-12
1.32301e-11
4.17782e-11
1.15639e-10
3.96673e-31
1.25877e-26
1.21838e-23
2.24065e-21
1.46646e-19
4.64683e-18
8.53324e-17
1.01991e-15
8.54442e-15
5.23832e-14
2.41119e-13
8.59526e-13
2.4064e-12
5.78734e-12
1.32206e-11
2.95914e-11
6.86211e-11
1.61337e-10
3.7887e-10
8.0461e-10
1.51649e-09
2.6436e-09
4.53624e-09
7.71782e-09
1.27793e-08
2.01761e-08
3.00314e-08
4.27458e-08
6.05739e-08
8.99997e-08
1.26874e-07
1.73096e-07
1.93724e-07
1.0863e-07
7.03398e-08
4.59005e-08
2.85129e-08
1.66567e-08
8.95773e-09
4.32932e-09
1.8339e-09
6.59855e-10
1.95632e-10
4.63787e-11
9.03137e-12
4.03467e-12
1.21169e-11
4.26757e-11
1.30977e-10
3.51592e-10
1.38562e-29
2.35629e-25
1.6699e-22
2.50156e-20
1.41072e-18
3.98964e-17
6.69791e-16
7.45313e-15
5.90782e-14
3.48341e-13
1.5643e-12
5.49085e-12
1.51905e-11
3.51341e-11
7.52579e-11
1.54056e-10
3.20918e-10
6.82721e-10
1.48185e-09
2.93012e-09
5.10826e-09
8.2031e-09
1.30523e-08
2.06674e-08
3.19482e-08
4.69556e-08
6.48709e-08
8.67252e-08
1.24671e-07
2.11584e-07
3.33929e-07
6.09001e-07
8.39844e-07
2.97749e-07
1.74214e-07
1.16504e-07
7.47635e-08
4.57207e-08
2.60726e-08
1.35565e-08
6.26895e-09
2.49511e-09
8.25943e-10
2.19102e-10
4.64234e-11
1.42886e-11
3.15802e-11
1.08529e-10
3.27393e-10
8.60143e-10
3.92496e-28
3.66441e-24
1.91891e-21
2.3518e-19
1.14512e-17
2.89098e-16
4.43081e-15
4.57535e-14
3.4139e-13
1.92332e-12
8.37443e-12
2.8803e-11
7.88733e-11
1.76932e-10
3.58084e-10
6.75608e-10
1.26592e-09
2.41916e-09
4.85989e-09
8.96563e-09
1.44781e-08
2.14444e-08
3.1741e-08
4.67081e-08
6.68246e-08
9.07415e-08
1.17077e-07
1.51567e-07
2.23279e-07
4.20422e-07
9.53068e-07
2.26829e-06
3.07623e-06
1.18584e-06
5.74244e-07
3.13857e-07
1.83087e-07
1.10604e-07
6.51118e-08
3.5938e-08
1.8012e-08
7.91404e-09
2.93392e-09
8.8029e-10
2.082e-10
5.08741e-11
6.82909e-11
2.25771e-10
6.76848e-10
1.75409e-09
9.23504e-27
4.87213e-23
1.89734e-20
1.9086e-18
8.03449e-17
1.81003e-15
2.52731e-14
2.41182e-13
1.68273e-12
8.97656e-12
3.75212e-11
1.25342e-10
3.38024e-10
7.41934e-10
1.42901e-09
2.51368e-09
4.27333e-09
7.29638e-09
1.36291e-08
2.35926e-08
3.5047e-08
4.78862e-08
6.623e-08
8.99927e-08
1.17045e-07
1.43662e-07
1.70115e-07
2.21596e-07
4.01787e-07
9.41828e-07
2.36017e-06
1.16155e-05
1.42719e-05
2.55865e-06
1.02369e-06
5.48653e-07
3.05283e-07
1.92153e-07
1.23247e-07
7.51045e-08
4.18187e-08
2.05748e-08
8.62207e-09
2.95438e-09
7.98305e-10
1.84727e-10
1.32471e-10
3.95855e-10
1.19021e-09
3.07011e-09
1.82862e-25
5.62572e-22
1.63973e-19
1.35931e-17
4.95891e-16
9.97792e-15
1.26837e-13
1.11548e-12
7.23488e-12
3.61916e-11
1.43381e-10
4.59012e-10
1.20432e-09
2.59397e-09
4.78761e-09
7.93943e-09
1.2439e-08
1.90092e-08
3.35096e-08
5.53038e-08
7.33968e-08
9.31898e-08
1.20887e-07
1.49437e-07
1.73839e-07
1.93749e-07
2.23958e-07
3.1585e-07
5.86472e-07
1.39313e-06
1.17681e-05
1.66089e-05
1.67658e-05
1.30354e-05
1.68414e-06
7.81406e-07
3.73674e-07
2.38544e-07
1.71409e-07
1.19702e-07
7.64661e-08
4.3115e-08
2.07404e-08
8.2101e-09
2.57418e-09
6.40286e-10
2.61065e-10
6.01115e-10
1.81751e-09
4.71931e-09
3.00296e-24
5.5833e-21
1.2323e-18
8.48081e-17
2.69521e-15
4.86209e-14
5.64128e-13
4.57734e-12
2.75614e-11
1.28561e-10
4.7766e-10
1.44389e-09
3.62133e-09
7.57544e-09
1.34602e-08
2.12265e-08
3.11311e-08
4.30593e-08
5.08646e-08
1.10018e-07
1.32403e-07
1.52916e-07
1.71908e-07
2.1373e-07
2.13802e-07
1.96558e-07
2.387e-07
2.77458e-07
4.20802e-07
9.06509e-07
2.40851e-06
1.24333e-05
1.53015e-05
2.78822e-06
1.23023e-06
7.27421e-07
4.00897e-07
2.71027e-07
2.1035e-07
1.63986e-07
1.18801e-07
7.64577e-08
4.21645e-08
1.9263e-08
7.03382e-09
1.99967e-09
5.92993e-10
8.20754e-10
2.45117e-09
6.47865e-09
3.92182e-23
4.62177e-20
7.87412e-18
4.54914e-16
1.26905e-14
2.06434e-13
2.1967e-12
1.65167e-11
9.26758e-11
4.03764e-10
1.40377e-09
3.97765e-09
9.38679e-09
1.86904e-08
3.18354e-08
4.79131e-08
6.66325e-08
6.74433e-08
1.37462e-07
2.02446e-07
1.97755e-07
2.13379e-07
1.9225e-07
2.77064e-07
2.84239e-07
4.51008e-07
2.49487e-07
2.70722e-07
2.97788e-07
4.01316e-07
8.3134e-07
2.21524e-06
2.78422e-06
1.52475e-06
7.20287e-07
4.68408e-07
3.37642e-07
2.7672e-07
2.41102e-07
2.07191e-07
1.66366e-07
1.19948e-07
7.50118e-08
3.93019e-08
1.66356e-08
5.50229e-09
1.54029e-09
1.09727e-09
2.9541e-09
8.03805e-09
3.92035e-22
3.09974e-19
4.17705e-17
2.0525e-15
5.06672e-14
7.47173e-13
7.32202e-12
5.12113e-11
2.68904e-10
1.09955e-09
3.59365e-09
9.57764e-09
2.12128e-08
3.9816e-08
6.46522e-08
9.22968e-08
1.22089e-07
1.26463e-07
2.10963e-07
2.70838e-07
2.38449e-07
2.96211e-07
2.71105e-07
3.10365e-07
3.40479e-07
3.41681e-07
7.07251e-07
2.82555e-07
2.94855e-07
3.13094e-07
3.89199e-07
7.11013e-07
1.03204e-06
6.89142e-07
4.31641e-07
3.15351e-07
2.93502e-07
2.8208e-07
2.71634e-07
2.528e-07
2.17602e-07
1.70484e-07
1.18496e-07
7.04302e-08
3.44888e-08
1.33993e-08
4.1104e-09
1.69844e-09
3.24973e-09
9.06721e-09
2.9301e-21
1.65283e-18
1.80735e-16
7.6581e-15
1.68684e-13
2.26687e-12
2.05257e-11
1.33834e-10
6.58785e-10
2.53368e-09
7.80727e-09
1.96585e-08
4.11744e-08
7.32423e-08
1.13162e-07
1.54803e-07
1.93822e-07
2.12155e-07
3.37283e-07
3.49138e-07
2.73763e-07
2.71511e-07
9.09082e-07
4.34692e-07
3.835e-07
3.51914e-07
3.15739e-07
3.06745e-07
3.14384e-07
3.1656e-07
3.3776e-07
3.8393e-07
4.42845e-07
4.13282e-07
3.83003e-07
6.39447e-07
3.06939e-07
3.23691e-07
3.46719e-07
3.55315e-07
3.06293e-07
2.37538e-07
1.72452e-07
1.12835e-07
6.29397e-08
2.85944e-08
1.02677e-08
3.42882e-09
3.4931e-09
9.35046e-09
1.62738e-20
6.89874e-18
6.27942e-16
2.32956e-14
4.62356e-13
5.70016e-12
4.79025e-11
2.92046e-10
1.35027e-09
4.89088e-09
1.42218e-08
3.38612e-08
6.72793e-08
1.14314e-07
1.71432e-07
2.35533e-07
3.09711e-07
4.07313e-07
6.21722e-07
4.68585e-07
5.06729e-07
4.37731e-07
6.50419e-07
5.42323e-07
4.46825e-07
3.86988e-07
3.51184e-07
3.31193e-07
3.15558e-07
3.9868e-07
3.69083e-07
3.81639e-07
4.16697e-07
4.20916e-07
4.17402e-07
4.41096e-07
4.27636e-07
4.61765e-07
5.77158e-07
7.22964e-07
6.02606e-07
4.08086e-07
2.66951e-07
1.72848e-07
1.04244e-07
5.41215e-08
2.286e-08
8.00235e-09
4.35347e-09
8.97931e-09
6.60461e-20
2.22453e-17
1.73467e-15
5.73548e-14
1.03853e-12
1.18529e-11
9.30738e-11
5.3332e-10
2.32553e-09
7.95956e-09
2.18992e-08
4.94169e-08
9.34381e-08
1.5259e-07
2.25355e-07
3.21506e-07
4.75094e-07
7.67351e-07
9.56261e-07
1.14934e-06
9.89919e-07
7.77803e-07
8.94632e-07
8.00066e-07
6.1831e-07
4.8663e-07
4.05243e-07
3.5999e-07
3.55234e-07
3.56715e-07
4.38571e-07
6.45865e-07
5.03443e-07
5.04798e-07
5.01537e-07
5.12045e-07
5.48914e-07
6.26317e-07
7.16274e-07
1.50523e-06
1.49712e-06
7.20223e-07
4.91452e-07
2.98012e-07
1.74205e-07
9.58144e-08
4.59276e-08
1.83024e-08
7.43334e-09
8.61884e-09
1.96328e-19
5.5417e-17
3.81792e-15
1.14829e-13
1.92487e-12
2.05648e-11
1.52224e-10
8.25924e-10
3.41881e-09
1.11211e-08
2.90972e-08
6.2508e-08
1.12909e-07
1.77702e-07
2.58429e-07
3.75162e-07
5.8061e-07
9.7283e-07
1.19651e-06
1.89059e-06
5.29748e-06
4.35134e-06
2.47476e-06
1.00768e-06
7.2173e-07
5.66697e-07
4.51339e-07
3.84061e-07
3.57548e-07
3.79652e-07
4.36297e-07
5.22265e-07
5.1595e-07
5.47003e-07
5.40308e-07
5.29118e-07
5.43556e-07
5.45428e-07
9.99307e-07
1.2181e-05
1.36475e-05
4.76042e-06
8.65916e-07
6.25169e-07
3.41671e-07
1.78973e-07
8.90784e-08
3.94226e-08
1.57036e-08
9.90865e-09
4.35793e-19
1.0816e-16
6.782e-15
1.89404e-13
2.98446e-12
3.02115e-11
2.13009e-10
1.10452e-09
4.37803e-09
1.36503e-08
3.42564e-08
7.07011e-08
1.23333e-07
1.90569e-07
2.82656e-07
4.25852e-07
5.06119e-07
1.42033e-06
1.29658e-06
2.81383e-06
7.44459e-06
9.46564e-06
4.92944e-06
1.05495e-06
9.69243e-07
7.03067e-07
4.97438e-07
3.94758e-07
3.5818e-07
3.50881e-07
1.02531e-06
8.64524e-07
1.12497e-06
5.59863e-07
5.69242e-07
5.58279e-07
5.67436e-07
5.45525e-07
7.59935e-06
1.365e-05
1.36486e-05
1.36466e-05
2.1915e-06
5.99629e-07
4.44583e-07
2.67376e-07
1.48733e-07
7.45563e-08
3.29531e-08
1.55516e-08
7.41224e-19
1.68308e-16
9.86482e-15
2.60931e-13
3.92613e-12
3.81458e-11
2.59032e-10
1.29673e-09
4.97049e-09
1.50074e-08
3.65306e-08
7.33362e-08
1.25055e-07
1.90632e-07
2.85281e-07
2.9966e-07
1.10687e-06
8.35572e-07
1.35638e-06
1.7041e-05
2.94886e-05
2.94857e-05
2.69405e-05
5.29568e-06
5.32414e-07
5.21936e-07
4.35706e-07
3.70869e-07
3.56834e-07
3.76869e-07
3.816e-07
5.91016e-07
7.93865e-07
8.0105e-07
6.93368e-07
5.61124e-07
8.30174e-07
5.83343e-07
2.5005e-06
1.32313e-05
1.36478e-05
1.08708e-05
1.13094e-06
6.78024e-07
4.85084e-07
3.30659e-07
2.07791e-07
1.19279e-07
6.08982e-08
2.88199e-08
9.89444e-19
2.12345e-16
1.19206e-14
3.04216e-13
4.4379e-12
4.1924e-11
2.77366e-10
1.35496e-09
5.07661e-09
1.50131e-08
3.58992e-08
7.1085e-08
1.20134e-07
1.8192e-07
2.69515e-07
4.23129e-07
8.7125e-07
6.96611e-07
3.89299e-06
2.88318e-05
2.94846e-05
2.94788e-05
2.94767e-05
1.89734e-05
6.22381e-07
4.73575e-07
3.95506e-07
6.03018e-07
3.61974e-07
3.84931e-07
4.77098e-07
4.78283e-07
1.46507e-06
1.20569e-06
9.08986e-07
6.80681e-07
4.6104e-07
8.90318e-07
6.95818e-07
3.27355e-06
6.65394e-06
2.12953e-06
2.60909e-06
1.27708e-06
7.67989e-07
4.95763e-07
3.13874e-07
1.90553e-07
1.07265e-07
5.51186e-08
1.05843e-18
2.20817e-16
1.21276e-14
3.03973e-13
4.36379e-12
4.06242e-11
2.65138e-10
1.27934e-09
4.74267e-09
1.39119e-08
3.31084e-08
6.54907e-08
1.10778e-07
1.66909e-07
2.41063e-07
2.43571e-07
1.02431e-06
6.74808e-07
4.282e-06
2.89095e-05
2.94841e-05
2.94778e-05
2.94766e-05
1.94653e-05
6.80269e-07
4.73597e-07
3.95862e-07
3.61743e-07
3.59174e-07
3.81866e-07
4.41046e-07
5.31487e-07
5.32985e-07
6.02426e-07
5.50455e-07
4.86438e-07
4.57364e-07
4.45963e-07
6.33706e-07
5.91247e-07
5.1583e-07
6.50083e-07
6.98346e-07
7.45213e-07
6.79262e-07
5.51124e-07
4.10213e-07
2.82206e-07
1.78269e-07
1.01871e-07
9.20599e-19
1.91726e-16
1.05162e-14
2.63056e-13
3.76961e-12
3.50531e-11
2.28671e-10
1.10377e-09
4.09932e-09
1.20756e-08
2.89494e-08
5.78617e-08
9.8929e-08
1.48943e-07
2.04824e-07
2.71509e-07
2.86573e-07
6.26659e-07
6.27545e-07
1.22204e-05
2.94865e-05
2.94841e-05
2.6268e-05
3.74321e-06
4.76303e-07
4.66247e-07
4.08306e-07
3.8388e-07
3.84698e-07
3.98211e-07
4.22847e-07
4.56611e-07
4.76265e-07
4.65309e-07
4.34186e-07
4.08207e-07
3.99414e-07
4.09118e-07
4.56878e-07
4.98255e-07
5.13422e-07
5.21544e-07
4.12204e-07
9.61855e-07
9.21226e-07
7.42468e-07
5.82173e-07
4.23666e-07
2.83408e-07
1.73604e-07
6.56212e-19
1.3984e-16
7.80302e-15
1.9808e-13
2.87695e-12
2.70879e-11
1.78886e-10
8.74726e-10
3.29558e-09
9.86757e-09
2.4104e-08
4.92278e-08
8.6166e-08
1.32507e-07
1.83452e-07
2.33826e-07
2.7896e-07
3.74902e-07
7.14789e-07
1.43022e-06
4.09573e-06
4.735e-06
2.13147e-06
1.0878e-06
6.98603e-07
5.00087e-07
4.26415e-07
4.15118e-07
4.22552e-07
4.30102e-07
4.30471e-07
4.38761e-07
4.38282e-07
4.28426e-07
4.10598e-07
6.9905e-07
3.90173e-07
3.9053e-07
4.04179e-07
4.20389e-07
4.29544e-07
4.26983e-07
4.10518e-07
3.99857e-07
4.02986e-07
9.68332e-07
1.0446e-06
7.27059e-07
5.61012e-07
3.72927e-07
3.83136e-19
8.53503e-17
4.93906e-15
1.29406e-13
1.93262e-12
1.86787e-11
1.26598e-10
6.35578e-10
2.46086e-09
7.58278e-09
1.90933e-08
4.02545e-08
7.27418e-08
1.15119e-07
1.62273e-07
2.05836e-07
2.27347e-07
3.48358e-07
4.38946e-07
6.13444e-07
7.64627e-07
8.19719e-07
6.52069e-07
5.14632e-07
4.41229e-07
4.21954e-07
4.44985e-07
4.76835e-07
4.61559e-07
5.09337e-07
4.31894e-07
9.92055e-07
4.85083e-07
4.55065e-07
4.46882e-07
3.87996e-07
3.84175e-07
3.78925e-07
3.93646e-07
4.04838e-07
4.19593e-07
4.23192e-07
4.13259e-07
4.00334e-07
4.31125e-07
4.5963e-07
5.57104e-07
1.01729e-06
1.05941e-06
7.79838e-07
1.81283e-19
4.32221e-17
2.65103e-15
7.29247e-14
1.13733e-12
1.14489e-11
8.0779e-11
4.22381e-10
1.70495e-09
5.48172e-09
1.44101e-08
3.17161e-08
5.97686e-08
9.84547e-08
1.44225e-07
1.90358e-07
2.28876e-07
2.47706e-07
3.54545e-07
3.87538e-07
3.78653e-07
3.64957e-07
4.0631e-07
3.73397e-07
3.83316e-07
3.83954e-07
9.62001e-07
5.89195e-07
6.77496e-07
5.43751e-07
5.42937e-07
5.50966e-07
1.08136e-06
5.40306e-07
7.64336e-07
3.98237e-07
4.14121e-07
4.00732e-07
3.93763e-07
4.35329e-07
4.29511e-07
4.51999e-07
4.53476e-07
4.39299e-07
4.30384e-07
4.34088e-07
5.03353e-07
5.54303e-07
9.09903e-07
8.08317e-07
6.94449e-20
1.81374e-17
1.1992e-15
3.52247e-14
5.83378e-13
6.21708e-12
4.63711e-11
2.56158e-10
1.09218e-09
3.7093e-09
1.02979e-08
2.39101e-08
4.73996e-08
8.17226e-08
1.2448e-07
1.69893e-07
2.10124e-07
2.39251e-07
2.63309e-07
2.81174e-07
2.96321e-07
2.95732e-07
6.98199e-07
3.16988e-07
3.22607e-07
4.38858e-07
3.70795e-07
4.50268e-07
4.51791e-07
4.35327e-07
4.35934e-07
6.52967e-06
3.58782e-05
4.54553e-05
3.36643e-05
5.75432e-06
4.22235e-07
4.59227e-07
4.429e-07
4.36415e-07
8.48059e-07
5.4763e-07
5.31529e-07
5.01503e-07
4.89517e-07
4.88385e-07
4.94705e-07
5.10154e-07
5.4224e-07
7.5429e-07
2.14677e-20
6.26987e-18
4.55747e-16
1.45539e-14
2.60087e-13
2.9774e-12
2.37747e-11
1.40335e-10
6.38912e-10
2.31713e-09
6.86736e-09
1.69907e-08
3.57684e-08
6.51402e-08
1.04004e-07
1.47333e-07
1.83459e-07
2.05238e-07
2.71234e-07
2.80402e-07
2.87126e-07
2.9541e-07
2.89824e-07
3.04669e-07
3.17088e-07
3.22646e-07
3.60085e-07
3.63084e-07
3.46997e-07
3.25551e-07
2.64198e-06
4.60336e-05
5.03841e-05
5.03769e-05
5.03831e-05
4.16435e-05
3.64959e-06
4.65308e-07
4.80298e-07
5.41638e-07
5.2938e-07
7.80076e-07
5.06749e-07
5.21216e-07
5.22295e-07
4.9299e-07
3.53529e-06
7.22284e-06
1.08239e-05
3.67726e-06
5.3381e-21
1.77026e-18
1.44225e-16
5.08876e-15
9.95508e-14
1.23911e-12
1.0717e-11
6.83966e-11
3.36215e-10
1.3147e-09
4.19101e-09
1.11216e-08
2.5042e-08
4.86584e-08
8.26458e-08
1.23848e-07
1.48795e-07
1.51577e-07
8.38284e-07
2.89874e-07
2.83142e-07
2.83767e-07
2.88542e-07
2.81482e-07
7.92403e-07
2.98135e-07
3.15993e-07
3.24705e-07
3.26071e-07
3.25425e-07
1.34841e-05
5.04578e-05
5.04081e-05
5.03692e-05
5.0378e-05
5.03604e-05
1.32746e-05
4.93844e-07
5.53584e-07
5.19997e-07
5.09118e-07
4.96303e-07
4.94768e-07
4.83829e-07
4.72244e-07
2.08671e-06
4.45937e-05
5.2439e-05
5.2457e-05
4.0244e-05
1.05058e-21
4.0794e-19
3.80218e-17
1.50774e-15
3.27212e-14
4.48043e-13
4.24157e-12
2.95196e-11
1.57611e-10
6.66933e-10
2.2926e-09
6.54356e-09
1.58287e-08
3.30784e-08
6.06e-08
9.81291e-08
1.0324e-07
2.28577e-07
1.18477e-07
2.56799e-07
2.7944e-07
2.78633e-07
4.52592e-07
2.80006e-07
2.73219e-07
2.8323e-07
3.05975e-07
3.20245e-07
3.25412e-07
3.25414e-07
1.04026e-05
5.01841e-05
5.03675e-05
5.03654e-05
5.03617e-05
5.03543e-05
9.84635e-06
5.73709e-07
8.48317e-07
6.03297e-07
5.75519e-07
5.11386e-07
4.8363e-07
4.74125e-07
4.72169e-07
3.09122e-05
5.24884e-05
5.24413e-05
5.24667e-05
5.24942e-05
1.55616e-22
7.42619e-20
8.25572e-18
3.80156e-16
9.39677e-15
1.44473e-13
1.5156e-12
1.15258e-11
6.64612e-11
3.01818e-10
1.11097e-09
3.39662e-09
8.81651e-09
1.98177e-08
3.91968e-08
6.88172e-08
1.07427e-07
1.11712e-07
1.137e-07
7.86704e-07
3.15336e-07
2.99608e-07
2.62377e-07
2.99735e-07
2.71599e-07
5.82096e-07
3.1032e-07
3.28301e-07
3.34288e-07
3.25594e-07
2.16302e-06
4.17562e-05
5.03652e-05
5.03282e-05
5.03517e-05
4.21527e-05
5.05252e-06
5.45514e-07
5.3766e-07
5.19694e-07
4.94288e-07
4.8558e-07
4.78754e-07
4.73574e-07
4.72166e-07
2.38585e-05
5.25015e-05
5.24753e-05
5.24593e-05
5.24902e-05
1.75691e-23
1.09451e-20
1.5316e-18
8.60493e-17
2.52423e-15
4.45572e-14
5.19434e-13
4.27613e-12
2.62392e-11
1.2574e-10
4.87261e-10
1.57325e-09
4.33901e-09
1.04175e-08
2.2137e-08
4.20682e-08
7.15474e-08
1.08716e-07
1.28999e-07
1.32386e-07
3.04936e-07
2.75065e-07
2.59894e-07
2.4293e-07
2.70283e-07
2.71762e-07
3.02387e-07
3.31906e-07
3.56256e-07
3.68708e-07
3.69284e-07
4.08741e-06
2.89613e-05
4.54095e-05
3.36625e-05
4.36971e-06
6.42971e-07
1.00454e-06
5.02059e-07
8.53108e-07
4.293e-07
4.69296e-07
4.75188e-07
4.72948e-07
4.72165e-07
1.66157e-05
5.20446e-05
5.24646e-05
5.2491e-05
5.25368e-05
1.53957e-24
1.33687e-21
2.56492e-19
1.9008e-17
6.89659e-16
1.41274e-14
1.82149e-13
1.60504e-12
1.03325e-11
5.12861e-11
2.04674e-10
6.82227e-10
1.95336e-09
4.90808e-09
1.10143e-08
2.23352e-08
4.10331e-08
6.79029e-08
6.56022e-08
1.81315e-07
1.13662e-07
1.6608e-07
2.06295e-07
2.37686e-07
2.66905e-07
2.84509e-07
3.04814e-07
3.34244e-07
3.7828e-07
3.79056e-07
6.25237e-07
4.62434e-07
4.6406e-07
4.65605e-07
4.68404e-07
6.0114e-07
6.36222e-07
4.85452e-07
4.91048e-07
4.15477e-07
4.1861e-07
5.73709e-07
4.69714e-07
4.72946e-07
4.72803e-07
4.72896e-07
1.38115e-05
3.66966e-05
3.69581e-05
2.35473e-05
1.08398e-25
1.44489e-22
4.30746e-20
4.48758e-18
2.02173e-16
4.72083e-15
6.58616e-14
6.09526e-13
4.04822e-12
2.05208e-11
8.33379e-11
2.82723e-10
8.26502e-10
2.13454e-09
4.95913e-09
1.05056e-08
2.04472e-08
3.64517e-08
5.90011e-08
5.23176e-08
9.67684e-08
1.37777e-07
1.67901e-07
1.98219e-07
2.68375e-07
2.78639e-07
2.87142e-07
3.08298e-07
3.4663e-07
4.1272e-07
4.47449e-07
4.59085e-07
1.07183e-06
1.16539e-06
7.53174e-07
5.72856e-07
5.08105e-07
4.75681e-07
4.52855e-07
4.09142e-07
5.77803e-07
4.29768e-07
4.55931e-07
4.56828e-07
4.79955e-07
6.14878e-07
5.73898e-07
5.35856e-07
4.97062e-07
4.50777e-07
6.46033e-27
1.41076e-23
7.42344e-21
1.10141e-18
5.98415e-17
1.54579e-15
2.2794e-14
2.1761e-13
1.47246e-12
7.56261e-12
3.11034e-11
1.0701e-10
3.18387e-10
8.40842e-10
2.00958e-09
4.40681e-09
8.95439e-09
1.68987e-08
2.94866e-08
4.74427e-08
7.05335e-08
9.77962e-08
1.13901e-07
1.17832e-07
3.2717e-07
2.83431e-07
2.66007e-07
2.72474e-07
3.00707e-07
3.49782e-07
4.0611e-07
4.37448e-07
3.99812e-07
4.16947e-07
4.67262e-07
4.7363e-07
4.53561e-07
4.29831e-07
4.0975e-07
4.07991e-07
3.91162e-07
4.00644e-07
4.00298e-07
3.87213e-07
3.95779e-07
3.8464e-06
5.07436e-06
2.01712e-06
5.44082e-07
5.31124e-07
2.97962e-28
1.22125e-24
1.38959e-21
2.71609e-19
1.66893e-17
4.65319e-16
7.28957e-15
7.28861e-14
5.07093e-13
2.63686e-12
1.08835e-11
3.74802e-11
1.11973e-10
2.98718e-10
7.26814e-10
1.636e-09
3.44134e-09
6.79753e-09
1.25945e-08
2.18133e-08
3.52662e-08
5.3374e-08
4.99762e-08
1.43362e-07
1.02394e-07
1.72442e-07
1.98877e-07
2.16611e-07
2.40397e-07
2.72194e-07
3.07488e-07
3.39455e-07
3.60327e-07
3.71989e-07
3.79596e-07
3.8578e-07
3.92154e-07
3.9758e-07
3.94206e-07
3.93702e-07
3.90652e-07
3.90216e-07
3.88176e-07
3.82587e-07
3.61272e-06
5.04447e-06
4.50184e-06
2.03955e-06
3.21017e-05
4.81625e-05
9.43404e-30
1.28471e-25
2.52555e-22
6.04382e-20
4.65062e-18
1.78782e-16
3.73104e-15
4.40775e-14
3.2442e-13
1.65183e-12
6.36162e-12
1.99095e-11
5.35867e-11
1.29534e-10
2.907e-10
6.19312e-10
1.26816e-09
2.50615e-09
4.76798e-09
8.679e-09
1.50185e-08
2.45978e-08
3.79892e-08
3.38801e-08
5.97713e-08
8.56828e-08
1.15014e-07
1.46075e-07
1.78814e-07
2.13626e-07
2.49124e-07
2.8238e-07
3.11494e-07
3.37105e-07
3.59875e-07
3.80092e-07
4.00059e-07
4.16316e-07
3.9545e-07
5.62685e-07
4.04897e-07
4.26302e-07
4.2299e-07
3.89086e-07
8.09757e-07
1.35263e-06
4.50811e-07
2.0091e-05
0.000141028
0.000143163
1.59257e-31
1.4013e-26
4.11099e-23
2.21185e-20
5.09129e-18
3.50666e-16
8.83582e-15
1.06445e-13
7.47757e-13
3.52276e-12
1.22826e-11
3.40225e-11
7.89318e-11
1.59621e-10
2.9135e-10
4.95899e-10
8.12257e-10
1.31769e-09
2.16158e-09
3.60987e-09
6.08722e-09
1.01927e-08
1.66543e-08
2.62351e-08
3.95899e-08
5.7011e-08
7.82668e-08
1.029e-07
1.31007e-07
1.63027e-07
1.98392e-07
2.3531e-07
2.72627e-07
3.11173e-07
3.49483e-07
3.83011e-07
4.16356e-07
4.43614e-07
4.51045e-07
4.62484e-07
5.4278e-07
5.73816e-07
5.36267e-07
4.89311e-07
4.53441e-07
4.49799e-07
4.49529e-07
9.80932e-05
0.000143269
0.000143133
1.33318e-33
1.34475e-27
2.66351e-23
7.85135e-20
2.27591e-17
1.43235e-15
3.21334e-14
3.49608e-13
2.25738e-12
9.91934e-12
3.26035e-11
8.56819e-11
1.88878e-10
3.61372e-10
6.16184e-10
9.56462e-10
1.37601e-09
1.86646e-09
2.43325e-09
3.12507e-09
4.07689e-09
5.55944e-09
8.0236e-09
1.2122e-08
1.86828e-08
2.85747e-08
4.2463e-08
6.06006e-08
8.35458e-08
1.1259e-07
1.48487e-07
1.9037e-07
2.36969e-07
2.89825e-07
3.44091e-07
3.81923e-07
4.24228e-07
4.69561e-07
4.68123e-07
4.93921e-07
8.20418e-07
8.96892e-07
7.07468e-07
5.59975e-07
4.99798e-07
4.59514e-07
4.4953e-07
0.000100303
0.000143402
0.000143287
2.04544e-35
8.22321e-28
1.77342e-22
4.49727e-19
1.04407e-16
5.51091e-15
1.07857e-13
1.05562e-12
6.27744e-12
2.5864e-11
8.08071e-11
2.03998e-10
4.35477e-10
8.12237e-10
1.35671e-09
2.0677e-09
2.91601e-09
3.84622e-09
4.78337e-09
5.65329e-09
6.41703e-09
7.10915e-09
7.88609e-09
9.08931e-09
1.13115e-08
1.54189e-08
2.24396e-08
3.32125e-08
4.89356e-08
7.19423e-08
1.04552e-07
1.47235e-07
1.982e-07
2.60599e-07
3.18998e-07
3.2678e-07
6.74383e-07
5.04609e-07
4.7599e-07
4.80899e-07
2.79388e-06
2.88168e-06
7.97432e-07
7.9369e-07
4.89524e-07
4.61087e-07
4.49623e-07
4.31147e-05
0.000141763
0.000143398
6.05837e-37
8.49012e-27
1.25618e-21
2.3144e-18
4.26161e-16
1.88999e-14
3.23957e-13
2.86423e-12
1.57472e-11
6.10282e-11
1.8168e-10
4.41404e-10
9.13804e-10
1.66462e-09
2.73274e-09
4.11556e-09
5.76157e-09
7.57157e-09
9.39895e-09
1.10739e-08
1.24473e-08
1.34114e-08
1.39212e-08
1.4044e-08
1.40542e-08
1.45348e-08
1.64233e-08
2.08464e-08
2.93486e-08
4.45596e-08
6.95431e-08
1.06623e-07
1.54056e-07
2.12035e-07
2.14857e-07
6.19139e-07
4.71424e-07
4.40776e-07
4.41936e-07
2.01175e-06
2.88098e-06
2.88132e-06
7.94811e-07
5.90173e-07
4.87338e-07
4.66537e-07
4.51992e-07
4.51736e-07
4.76047e-05
9.36719e-05
3.97471e-36
8.66077e-26
7.8561e-21
1.05402e-17
1.54701e-15
5.79761e-14
8.75458e-13
7.03071e-12
3.59036e-11
1.31355e-10
3.73504e-10
8.74513e-10
1.75603e-09
3.12235e-09
5.03283e-09
7.48101e-09
1.03844e-08
1.35882e-08
1.68526e-08
1.98987e-08
2.2496e-08
2.44557e-08
2.56043e-08
2.57992e-08
2.50453e-08
2.36049e-08
2.21149e-08
2.1665e-08
2.38314e-08
3.09433e-08
4.58824e-08
7.31836e-08
1.13943e-07
1.54626e-07
2.81112e-07
2.86448e-07
5.29712e-07
4.04436e-07
6.50917e-07
2.64327e-06
2.29391e-06
2.66072e-06
1.11924e-05
1.29961e-05
4.31627e-06
9.41767e-07
4.65847e-07
4.6143e-07
4.60434e-07
4.60431e-07
1.00056e-34
7.7595e-25
4.33668e-20
4.26301e-17
5.02154e-15
1.60186e-13
2.14633e-12
1.57595e-11
7.51622e-11
2.60683e-10
7.09969e-10
1.60456e-09
3.12558e-09
5.42007e-09
8.56647e-09
1.25481e-08
1.72368e-08
2.2403e-08
2.76642e-08
3.25954e-08
3.69307e-08
4.04695e-08
4.29611e-08
4.40651e-08
4.35775e-08
4.14947e-08
3.80933e-08
3.41131e-08
3.09411e-08
3.07639e-08
3.64616e-08
5.40478e-08
9.07712e-08
1.46415e-07
2.17229e-07
2.90859e-07
3.1829e-07
3.29553e-07
1.51451e-06
2.64123e-06
8.43215e-07
6.33038e-06
2.08509e-05
2.08501e-05
1.30204e-05
1.52471e-06
5.40926e-07
4.71424e-07
4.68631e-07
4.68039e-07
2.2001e-33
6.11007e-24
2.11979e-19
1.53894e-16
1.46724e-14
4.01894e-13
4.81837e-12
3.25867e-11
1.46041e-10
4.82414e-10
1.26217e-09
2.75853e-09
5.21296e-09
8.80615e-09
1.36251e-08
1.96364e-08
2.66508e-08
3.43367e-08
4.20698e-08
4.92216e-08
5.56179e-08
6.11617e-08
6.55584e-08
6.81882e-08
6.87381e-08
6.70764e-08
6.31281e-08
5.71404e-08
5.00128e-08
4.35177e-08
4.04755e-08
4.60729e-08
6.58023e-08
1.03584e-07
1.98707e-07
2.25702e-07
4.82659e-07
4.39205e-07
1.5816e-06
1.38492e-06
8.32734e-07
1.42655e-05
2.08512e-05
2.0852e-05
1.53883e-05
1.60987e-06
1.75232e-06
1.28709e-06
1.13419e-06