/*--------------------------------*- C++ -*----------------------------------*\
| =========                 |                                                 |
| \\      /  F ield         | OpenFOAM: The Open Source CFD Toolbox           |
|  \\    /   O peration     | Version:  2.4.0                                 |
|   \\  /    A nd           | Web:      www.OpenFOAM.org                      |
|    \\/     M anipulation  |                                                 |
\*---------------------------------------------------------------------------*/
FoamFile
{
    version     2.0;
    format      ascii;
    class       surfaceScalarField;
    location    "0.24";
    object      phi;
}
// * * * * * * * * * * * * * * * * * * * * * * * * * * * * * * * * * * * * * //

dimensions      [0 3 -1 0 0 0 0];

internalField   nonuniform List<scalar> 
19800
(
-3.75711e-13
3.75709e-13
-5.44074e-13
1.66846e-13
-3.85152e-13
-1.57927e-13
4.79243e-14
-4.32646e-13
6.88273e-13
-6.40675e-13
1.48166e-12
-7.93886e-13
2.38273e-12
-9.01356e-13
3.3484e-12
-9.65683e-13
4.33432e-12
-9.85732e-13
5.29413e-12
-9.59562e-13
6.18057e-12
-8.86275e-13
6.94751e-12
-7.66999e-13
7.55251e-12
-6.05369e-13
7.9596e-12
-4.07777e-13
8.14224e-12
-1.83498e-13
8.08689e-12
5.45541e-14
7.78874e-12
2.97678e-13
7.26738e-12
5.21388e-13
6.55054e-12
7.17386e-13
5.68136e-12
8.70072e-13
4.71328e-12
9.6898e-13
3.70576e-12
1.00808e-12
2.71961e-12
9.86207e-13
1.81239e-12
9.06881e-13
1.03471e-12
7.77287e-13
4.27695e-13
6.06956e-13
2.15193e-14
4.06613e-13
-1.60502e-13
1.82783e-13
-1.01495e-13
-5.83557e-14
1.87464e-13
-2.88844e-13
6.98661e-13
-5.1176e-13
1.40241e-12
-7.04745e-13
2.25147e-12
-8.50038e-13
3.18873e-12
-9.37859e-13
4.15938e-12
-9.70838e-13
5.11873e-12
-9.5942e-13
6.03275e-12
-9.14291e-13
6.87401e-12
-8.41737e-13
7.61531e-12
-7.41705e-13
8.2257e-12
-6.10325e-13
8.67276e-12
-4.46426e-13
8.91052e-12
-2.36917e-13
8.89896e-12
1.20155e-14
8.60697e-12
2.9171e-13
8.00047e-12
6.05704e-13
7.05752e-12
9.42223e-13
5.76592e-12
1.29143e-12
4.12388e-12
1.64237e-12
2.14048e-12
1.98375e-12
2.30479e-12
-1.64391e-13
-2.24122e-13
6.01003e-13
9.41921e-14
-1.53727e-13
1.11027e-12
-1.17515e-12
2.72482e-12
-2.04751e-12
4.80967e-12
-2.72566e-12
7.25068e-12
-3.23508e-12
9.94256e-12
-3.59332e-12
1.27788e-11
-3.80181e-12
1.56468e-11
-3.85342e-12
1.84277e-11
-3.74016e-12
2.09998e-11
-3.45845e-12
2.32443e-11
-3.01205e-12
2.50517e-11
-2.41374e-12
2.63288e-11
-1.68617e-12
2.70062e-11
-8.62128e-13
2.70439e-11
1.61996e-14
2.64415e-11
9.00155e-13
2.52306e-11
1.73321e-12
2.34858e-11
2.46364e-12
2.1314e-11
3.04337e-12
1.88479e-11
3.43601e-12
1.62357e-11
3.62051e-12
1.36287e-11
3.59276e-12
1.11705e-11
3.3646e-12
8.98704e-12
2.96059e-12
7.18141e-12
2.41313e-12
5.83143e-12
1.75755e-12
4.98672e-12
1.02825e-12
4.66916e-12
2.59157e-13
4.88329e-12
-5.03989e-13
5.58835e-12
-1.2184e-12
6.7054e-12
-1.82325e-12
8.1132e-12
-2.25863e-12
9.66564e-12
-2.49043e-12
1.12212e-11
-2.52629e-12
1.26614e-11
-2.39988e-12
1.38921e-11
-2.14551e-12
1.48337e-11
-1.78382e-12
1.54089e-11
-1.31675e-12
1.5533e-11
-7.33468e-13
1.51092e-11
-2.12497e-14
1.40418e-11
8.31207e-13
1.22336e-11
1.8199e-12
9.59257e-12
2.93149e-12
6.05181e-12
4.14529e-12
1.56439e-12
5.42928e-12
-3.88948e-12
6.74577e-12
-1.03005e-11
8.05399e-12
-1.76293e-11
9.31264e-12
1.04824e-11
-2.58073e-11
6.78161e-14
5.34182e-13
1.04668e-12
-1.13263e-12
2.95211e-12
-3.08117e-12
5.64385e-12
-4.73973e-12
8.96538e-12
-6.04748e-12
1.27704e-11
-7.04024e-12
1.69154e-11
-7.7382e-12
2.1249e-11
-8.13498e-12
2.56072e-11
-8.21109e-12
2.98152e-11
-7.94759e-12
3.36926e-11
-7.33556e-12
3.70619e-11
-6.38158e-12
3.97584e-11
-5.11102e-12
4.1641e-11
-3.56985e-12
4.2603e-11
-1.82515e-12
4.25826e-11
3.61293e-14
4.1572e-11
1.91117e-12
3.96189e-11
3.68747e-12
3.68303e-11
5.2537e-12
3.33643e-11
6.51077e-12
2.9418e-11
7.38314e-12
2.52112e-11
7.82716e-12
2.09688e-11
7.8344e-12
1.69029e-11
7.42979e-12
1.31983e-11
6.66478e-12
1.00044e-11
5.60728e-12
7.43111e-12
4.33132e-12
5.54961e-12
2.90999e-12
4.39323e-12
1.41517e-12
3.9624e-12
-7.40155e-14
4.20383e-12
-1.4607e-12
5.00074e-12
-2.62046e-12
6.16534e-12
-3.42282e-12
7.46868e-12
-3.79299e-12
8.69235e-12
-3.74945e-12
9.65931e-12
-3.36695e-12
1.0229e-11
-2.71568e-12
1.02857e-11
-1.84077e-12
9.7128e-12
-7.43217e-13
8.37982e-12
6.00849e-13
6.14334e-12
2.21652e-12
2.85666e-12
4.11829e-12
-1.62366e-12
6.29946e-12
-7.4242e-12
8.73074e-12
-1.4641e-11
1.13612e-11
-2.33339e-11
1.41223e-11
-3.35206e-11
1.69333e-11
-4.51731e-11
1.97071e-11
-5.82165e-11
2.23559e-11
2.47959e-11
-7.25307e-11
3.30621e-13
2.03382e-13
1.89321e-12
-2.69466e-12
4.57287e-12
-5.76089e-12
8.17177e-12
-8.33893e-12
1.25043e-11
-1.03803e-11
1.74007e-11
-1.19367e-11
2.26909e-11
-1.30281e-11
2.81915e-11
-1.36348e-11
3.37005e-11
-1.37191e-11
3.89998e-11
-1.3246e-11
4.38624e-11
-1.21976e-11
4.80625e-11
-1.05817e-11
5.13879e-11
-8.43708e-12
5.36544e-11
-5.83719e-12
5.47197e-11
-2.89119e-12
5.44984e-11
2.57353e-13
5.29726e-11
3.43766e-12
5.02007e-11
6.46075e-12
4.63175e-11
9.13848e-12
4.15267e-11
1.13028e-11
3.60843e-11
1.28258e-11
3.02766e-11
1.36342e-11
2.43948e-11
1.3715e-11
1.87106e-11
1.31128e-11
1.34571e-11
1.19176e-11
8.8175e-12
1.02468e-11
4.92216e-12
8.22684e-12
1.8535e-12
5.9787e-12
-3.47005e-13
3.61542e-12
-1.67513e-12
1.2538e-12
-2.18589e-12
-9.49846e-13
-2.01907e-12
-2.78653e-12
-1.43239e-12
-4.00825e-12
-7.50556e-13
-4.47369e-12
-2.69603e-13
-4.22992e-12
-2.09813e-13
-3.42697e-12
-7.43242e-13
-2.18265e-12
-1.98809e-12
-5.95762e-13
-4.09454e-12
1.36427e-12
-7.23376e-12
3.74152e-12
-1.15911e-11
6.57484e-12
-1.73608e-11
9.88778e-12
-2.47288e-11
1.36663e-11
-3.38551e-11
1.78558e-11
-4.48591e-11
2.23649e-11
-5.78092e-11
2.70733e-11
-7.27162e-11
3.18414e-11
-8.95291e-11
3.65204e-11
-1.08135e-10
4.09608e-11
4.50195e-11
-1.28359e-10
5.4115e-13
-3.38146e-13
2.58896e-12
-4.742e-12
5.92452e-12
-9.09628e-12
1.02901e-11
-1.27046e-11
1.54675e-11
-1.55579e-11
2.12651e-11
-1.77342e-11
2.74917e-11
-1.92542e-11
3.39398e-11
-2.00819e-11
4.03788e-11
-2.01569e-11
4.65572e-11
-1.94233e-11
5.22097e-11
-1.78495e-11
5.70689e-11
-1.54409e-11
6.08794e-11
-1.22481e-11
6.34145e-11
-8.37298e-12
6.44944e-11
-3.97143e-12
6.40056e-11
7.46532e-13
6.19156e-11
5.52871e-12
5.82881e-11
1.00897e-11
5.32841e-11
1.41438e-11
4.71534e-11
1.7434e-11
4.02142e-11
1.97646e-11
3.28217e-11
2.10253e-11
2.53349e-11
2.12001e-11
1.80837e-11
2.03627e-11
1.1343e-11
1.86576e-11
5.31876e-12
1.6271e-11
1.48315e-13
1.33975e-11
-4.0881e-12
1.02153e-11
-7.34863e-12
6.87602e-12
-9.61435e-12
3.51974e-12
-1.09119e-11
3.48348e-13
-1.13935e-11
-2.30375e-12
-1.13947e-11
-4.00576e-12
-1.13752e-11
-4.49233e-12
-1.17226e-11
-3.88252e-12
-1.26858e-11
-2.46425e-12
-1.44113e-11
-4.57382e-13
-1.70189e-11
2.01227e-12
-2.06826e-11
5.02915e-12
-2.55959e-11
8.65585e-12
-3.19933e-11
1.29725e-11
-4.01215e-11
1.80151e-11
-5.02139e-11
2.37574e-11
-6.24674e-11
3.01087e-11
-7.70247e-11
3.69228e-11
-9.39618e-11
4.40116e-11
-1.1328e-10
5.11607e-11
-1.34903e-10
5.81437e-11
-1.58678e-10
6.47344e-11
7.07174e-11
-1.84377e-10
7.08706e-13
-1.0469e-12
3.15848e-12
-7.19142e-12
7.04865e-12
-1.29863e-11
1.20676e-11
-1.77235e-11
1.79654e-11
-2.14557e-11
2.45294e-11
-2.42979e-11
3.15512e-11
-2.62752e-11
3.88051e-11
-2.73346e-11
4.60391e-11
-2.73895e-11
5.29752e-11
-2.63584e-11
5.93165e-11
-2.41902e-11
6.47579e-11
-2.08823e-11
6.90014e-11
-1.6492e-11
7.17752e-11
-1.11471e-11
7.28558e-11
-5.05199e-12
7.20927e-11
1.51036e-12
6.94325e-11
8.19003e-12
6.49377e-11
1.45856e-11
5.87952e-11
2.0287e-11
5.13074e-11
2.49216e-11
4.28641e-11
2.82067e-11
3.39012e-11
2.99865e-11
2.48553e-11
3.02443e-11
1.61191e-11
2.90978e-11
8.00671e-12
2.67698e-11
7.36228e-13
2.35418e-11
-5.56658e-12
1.97008e-11
-1.08451e-11
1.54941e-11
-1.50721e-11
1.11032e-11
-1.82003e-11
6.64825e-12
-2.01859e-11
2.33443e-12
-2.11458e-11
-1.34315e-12
-2.15226e-11
-3.62841e-12
-2.19972e-11
-4.01774e-12
-2.30751e-11
-2.80509e-12
-2.49981e-11
-5.41806e-13
-2.78151e-11
2.35939e-12
-3.16637e-11
5.86136e-12
-3.66823e-11
1.00485e-11
-4.31099e-11
1.50838e-11
-5.12402e-11
2.11023e-11
-6.13846e-11
2.81584e-11
-7.38341e-11
3.62061e-11
-8.88296e-11
4.51043e-11
-1.0654e-10
5.46343e-11
-1.27049e-10
6.45218e-11
-1.50347e-10
7.446e-11
-1.76333e-10
8.41287e-11
-2.0481e-10
9.32108e-11
1.01405e-10
-2.35499e-10
8.41518e-13
-1.88816e-12
3.61852e-12
-9.96803e-12
7.96752e-12
-1.7335e-11
1.35327e-11
-2.32886e-11
2.00368e-11
-2.79596e-11
2.72498e-11
-3.15106e-11
3.49505e-11
-3.39753e-11
4.2901e-11
-3.52841e-11
5.08345e-11
-3.53221e-11
5.84533e-11
-3.39765e-11
6.54335e-11
-3.11702e-11
7.14347e-11
-2.68835e-11
7.61149e-11
-2.11724e-11
7.91512e-11
-1.41833e-11
8.02661e-11
-6.16639e-12
7.92597e-11
2.51754e-12
7.60437e-11
1.1407e-11
7.06718e-11
1.99581e-11
6.33574e-11
2.76013e-11
5.4466e-11
3.3812e-11
4.44777e-11
3.81934e-11
3.39293e-11
4.05332e-11
2.33542e-11
4.08183e-11
1.32202e-11
3.92314e-11
3.88195e-12
3.61085e-11
-4.44236e-12
3.18669e-11
-1.16639e-11
2.69231e-11
-1.77857e-11
2.16161e-11
-2.28327e-11
1.61501e-11
-2.672e-11
1.05353e-11
-2.92468e-11
4.8609e-12
-3.03988e-11
-1.9143e-13
-3.07639e-11
-3.2637e-12
-3.14333e-11
-3.34906e-12
-3.30727e-11
-1.16662e-12
-3.57921e-11
2.17688e-12
-3.95685e-11
6.13562e-12
-4.43965e-11
1.06896e-11
-5.04329e-11
1.60851e-11
-5.79713e-11
2.2622e-11
-6.73884e-11
3.05187e-11
-7.90807e-11
3.985e-11
-9.34119e-11
5.05372e-11
-1.10675e-10
6.23682e-11
-1.31069e-10
7.50292e-11
-1.54685e-10
8.81389e-11
-1.81503e-10
1.01279e-10
-2.11393e-10
1.14018e-10
-2.44117e-10
1.25934e-10
1.36627e-10
-2.7934e-10
9.41329e-13
-2.82913e-12
3.96847e-12
-1.29947e-11
8.67233e-12
-2.20386e-11
1.46645e-11
-2.92807e-11
2.16478e-11
-3.49427e-11
2.93812e-11
-3.92437e-11
3.76373e-11
-4.22308e-11
4.61728e-11
-4.38191e-11
5.47138e-11
-4.38627e-11
6.29502e-11
-4.22127e-11
7.05365e-11
-3.87565e-11
7.70992e-11
-3.34464e-11
8.225e-11
-2.6323e-11
8.56059e-11
-1.75389e-11
8.6821e-11
-7.38081e-12
8.5626e-11
3.71334e-12
8.18785e-11
1.51552e-11
7.56085e-11
2.62281e-11
6.70555e-11
3.61537e-11
5.66648e-11
4.42015e-11
4.50357e-11
4.98211e-11
3.28367e-11
5.27312e-11
2.07282e-11
5.29265e-11
9.27554e-12
5.06845e-11
-1.12091e-12
4.65059e-11
-1.02537e-11
4.10006e-11
-1.81054e-11
3.47754e-11
-2.47959e-11
2.83065e-11
-3.04866e-11
2.18402e-11
-3.50717e-11
1.51193e-11
-3.80439e-11
7.83197e-12
-3.90188e-11
7.82299e-13
-3.88112e-11
-3.47252e-12
-3.92762e-11
-2.88516e-12
-4.13239e-11
8.8024e-13
-4.47704e-11
5.6228e-12
-4.92911e-11
1.06561e-11
-5.47699e-11
1.61685e-11
-6.13821e-11
2.26973e-11
-6.95185e-11
3.07581e-11
-7.96776e-11
4.06774e-11
-9.23696e-11
5.2542e-11
-1.08048e-10
6.62158e-11
-1.27065e-10
8.13863e-11
-1.49651e-10
9.76169e-11
-1.75907e-10
1.14395e-10
-2.05797e-10
1.31169e-10
-2.39163e-10
1.47384e-10
-2.75722e-10
1.62494e-10
1.75991e-10
-3.15084e-10
1.00555e-12
-3.83431e-12
4.19564e-12
-1.61841e-11
9.133e-12
-2.69756e-11
1.54095e-11
-3.5557e-11
2.27179e-11
-4.22509e-11
3.08147e-11
-4.73403e-11
3.94745e-11
-5.08904e-11
4.84581e-11
-5.28026e-11
5.74938e-11
-5.28985e-11
6.62679e-11
-5.0987e-11
7.44213e-11
-4.691e-11
8.15514e-11
-4.05764e-11
8.72213e-11
-3.19925e-11
9.09787e-11
-2.12956e-11
9.23895e-11
-8.79078e-12
9.10879e-11
5.01558e-12
8.68451e-11
1.93983e-11
7.96431e-11
3.34299e-11
6.97427e-11
4.60535e-11
5.76937e-11
5.62496e-11
4.42574e-11
6.32567e-11
3.0277e-11
6.67113e-11
1.65854e-11
6.66184e-11
3.88013e-12
6.33906e-11
-7.37702e-12
5.77641e-11
-1.70122e-11
5.06367e-11
-2.51008e-11
4.28643e-11
-3.19629e-11
3.51682e-11
-3.80686e-11
2.79447e-11
-4.3386e-11
2.04352e-11
-4.68747e-11
1.1319e-11
-4.72918e-11
1.19786e-12
-4.56841e-11
-5.08148e-12
-4.55294e-11
-3.04088e-12
-4.79973e-11
3.34756e-12
-5.21595e-11
9.78482e-12
-5.72184e-11
1.57151e-11
-6.29323e-11
2.18826e-11
-6.95662e-11
2.93313e-11
-7.76827e-11
3.88746e-11
-8.79571e-11
5.09519e-11
-1.01046e-10
6.56309e-11
-1.17505e-10
8.26759e-11
-1.37752e-10
1.01634e-10
-1.62047e-10
1.21912e-10
-1.90492e-10
1.4284e-10
-2.23037e-10
1.63715e-10
-2.59489e-10
1.83837e-10
-2.99525e-10
2.02531e-10
2.19164e-10
-3.42699e-10
1.02955e-12
-4.86347e-12
4.28181e-12
-1.94356e-11
9.3097e-12
-3.2003e-11
1.56995e-11
-4.19464e-11
2.3145e-11
-4.96962e-11
3.14103e-11
-5.56054e-11
4.02825e-11
-5.97626e-11
4.95372e-11
-6.20575e-11
5.89168e-11
-6.22785e-11
6.81165e-11
-6.0187e-11
7.67746e-11
-5.55682e-11
8.44678e-11
-4.82693e-11
9.07121e-11
-3.82363e-11
9.49768e-11
-2.55595e-11
9.67167e-11
-1.05298e-11
9.54318e-11
6.30108e-12
9.07588e-11
2.40716e-11
8.25869e-11
4.16017e-11
7.11848e-11
5.74553e-11
5.72434e-11
7.01906e-11
4.1751e-11
7.87488e-11
2.578e-11
8.26824e-11
1.04002e-11
8.19986e-11
-3.50813e-12
7.72997e-11
-1.54095e-11
6.96663e-11
-2.51539e-11
6.03817e-11
-3.29362e-11
5.06466e-11
-3.93434e-11
4.15749e-11
-4.5492e-11
3.40921e-11
-5.16885e-11
2.66301e-11
-5.61172e-11
1.5746e-11
-5.56456e-11
7.24849e-13
-5.14594e-11
-9.26857e-12
-5.0324e-11
-4.17666e-12
-5.35642e-11
6.58787e-12
-5.8573e-11
1.47941e-11
-6.38983e-11
2.1041e-11
-6.92786e-11
2.72633e-11
-7.52291e-11
3.5282e-11
-8.25967e-11
4.62423e-11
-9.22932e-11
6.06485e-11
-1.05145e-10
7.8483e-11
-1.21816e-10
9.93476e-11
-1.42781e-10
1.22599e-10
-1.68321e-10
1.47452e-10
-1.98535e-10
1.73055e-10
-2.33352e-10
1.98534e-10
-2.72548e-10
2.23034e-10
-3.15752e-10
2.45736e-10
2.65877e-10
-3.62465e-10
1.00822e-12
-5.87125e-12
4.20802e-12
-2.26346e-11
9.16163e-12
-3.69561e-11
1.54644e-11
-4.82487e-11
2.28233e-11
-5.70547e-11
3.10208e-11
-6.38025e-11
3.98674e-11
-6.8609e-11
4.91663e-11
-7.13564e-11
5.86882e-11
-7.18005e-11
6.81531e-11
-6.9652e-11
7.7214e-11
-6.46291e-11
8.54417e-11
-5.64966e-11
9.2314e-11
-4.51078e-11
9.72173e-11
-3.04617e-11
9.94714e-11
-1.2783e-11
9.83938e-11
7.3795e-12
9.3415e-11
2.90508e-11
8.42525e-11
5.07645e-11
7.11497e-11
7.05583e-11
5.49946e-11
8.63458e-11
3.71062e-11
9.66372e-11
1.88442e-11
1.00944e-10
1.60771e-12
9.92352e-11
-1.34682e-11
9.23758e-11
-2.57521e-11
8.19507e-11
-3.51623e-11
6.97924e-11
-4.19715e-11
5.7456e-11
-4.69026e-11
4.65058e-11
-5.22605e-11
3.94491e-11
-5.95479e-11
3.39162e-11
-6.5847e-11
2.20438e-11
-6.44183e-11
-7.04772e-13
-5.61108e-11
-1.75762e-11
-5.394e-11
-6.34701e-12
-5.8861e-11
1.15099e-11
-6.49355e-11
2.08697e-11
-6.99928e-11
2.60991e-11
-7.41767e-11
3.14476e-11
-7.85401e-11
3.96454e-11
-8.43299e-11
5.20319e-11
-9.27248e-11
6.90432e-11
-1.04717e-10
9.04748e-11
-1.2106e-10
1.15691e-10
-1.42268e-10
1.43808e-10
-1.68628e-10
1.73814e-10
-2.00229e-10
2.04656e-10
-2.36973e-10
2.3528e-10
-2.78603e-10
2.64665e-10
-3.24708e-10
2.91841e-10
3.15907e-10
-3.74738e-10
9.37105e-13
-6.80786e-12
3.95785e-12
-2.56545e-11
8.6533e-12
-4.16508e-11
1.46426e-11
-5.42372e-11
2.16574e-11
-6.40687e-11
2.95092e-11
-7.16534e-11
3.80428e-11
-7.71419e-11
4.71014e-11
-8.04146e-11
5.65004e-11
-8.11994e-11
6.60051e-11
-7.91566e-11
7.53069e-11
-7.39306e-11
8.39958e-11
-6.51849e-11
9.15321e-11
-5.26433e-11
9.72265e-11
-3.61551e-11
1.00246e-10
-1.58012e-11
9.96685e-11
7.95776e-12
9.46174e-11
3.41026e-11
8.44984e-11
6.08838e-11
6.94562e-11
8.56007e-11
5.0664e-11
1.05138e-10
2.99514e-11
1.1735e-10
8.99458e-12
1.21901e-10
-1.03365e-11
1.18566e-10
-2.6553e-11
1.08592e-10
-3.89281e-11
9.4326e-11
-4.75318e-11
7.83967e-11
-5.27399e-11
6.26644e-11
-5.49897e-11
4.87555e-11
-5.72906e-11
4.17493e-11
-6.49536e-11
4.15783e-11
-7.5192e-11
3.22814e-11
-7.372e-11
-2.17704e-12
-5.95806e-11
-3.17148e-11
-5.71002e-11
-8.82616e-12
-6.56949e-11
2.01062e-11
-7.26102e-11
2.77862e-11
-7.59992e-11
2.94886e-11
-7.76373e-11
3.30854e-11
-7.93351e-11
4.13426e-11
-8.2704e-11
5.54001e-11
-8.91288e-11
7.54678e-11
-9.97166e-11
1.01063e-10
-1.1527e-10
1.31245e-10
-1.36312e-10
1.64851e-10
-1.63121e-10
2.00625e-10
-1.95765e-10
2.37301e-10
-2.34123e-10
2.7364e-10
-2.77908e-10
3.08451e-10
-3.26676e-10
3.40609e-10
3.69064e-10
-3.79834e-10
8.132e-13
-7.62052e-12
3.52019e-12
-2.83606e-11
7.75999e-12
-4.58897e-11
1.31893e-11
-5.96653e-11
1.95747e-11
-7.04526e-11
2.67651e-11
-7.88422e-11
3.46487e-11
-8.50243e-11
4.31203e-11
-8.88854e-11
5.20561e-11
-9.01349e-11
6.12899e-11
-8.83902e-11
7.05826e-11
-8.3223e-11
7.95818e-11
-7.41835e-11
8.77697e-11
-6.08301e-11
9.44097e-11
-4.27939e-11
9.85153e-11
-1.99058e-11
9.8874e-11
7.59997e-12
9.41709e-11
3.88063e-11
8.32525e-11
7.18025e-11
6.60034e-11
1.0285e-10
4.40281e-11
1.27113e-10
2.0004e-11
1.41373e-10
-4.15767e-12
1.46062e-10
-2.59054e-11
1.40313e-10
-4.3191e-11
1.25878e-10
-5.5275e-11
1.0641e-10
-6.26815e-11
8.58037e-11
-6.57055e-11
6.56889e-11
-6.47592e-11
4.78093e-11
-6.17715e-11
3.87611e-11
-6.2881e-11
4.26871e-11
-7.83186e-11
4.77186e-11
-8.37489e-11
3.2535e-12
-6.21013e-11
-5.33613e-11
-6.54335e-11
-5.49236e-12
-8.04684e-11
3.51426e-11
-8.31549e-11
3.04735e-11
-8.14636e-11
2.77971e-11
-7.87339e-11
3.03548e-11
-7.68062e-11
3.9414e-11
-7.71681e-11
5.57615e-11
-8.11888e-11
7.94887e-11
-9.00067e-11
1.09881e-10
-1.04437e-10
1.45676e-10
-1.24992e-10
1.85407e-10
-1.51932e-10
2.27567e-10
-1.85309e-10
2.70679e-10
-2.24985e-10
3.13318e-10
-2.70658e-10
3.54124e-10
-3.21862e-10
3.91813e-10
4.25181e-10
-3.77979e-10
6.35689e-13
-8.25568e-12
2.89188e-12
-3.0616e-11
6.47336e-12
-4.94701e-11
1.10861e-11
-6.42764e-11
1.65391e-11
-7.59036e-11
2.27237e-11
-8.50248e-11
2.95766e-11
-9.18756e-11
3.70515e-11
-9.63595e-11
4.50986e-11
-9.81817e-11
5.36431e-11
-9.69346e-11
6.25525e-11
-9.21321e-11
7.15841e-11
-8.32143e-11
8.03065e-11
-6.95513e-11
8.8e-11
-5.04862e-11
9.3562e-11
-2.54667e-11
9.54633e-11
5.69933e-12
9.18234e-11
4.24464e-11
8.05385e-11
8.30874e-11
6.07845e-11
1.22603e-10
3.49109e-11
1.52986e-10
7.08921e-12
1.69194e-10
-2.09594e-11
1.74109e-10
-4.54151e-11
1.64768e-10
-6.34424e-11
1.43904e-10
-7.4582e-11
1.1755e-10
-8.06316e-11
9.18537e-11
-8.1831e-11
6.68886e-11
-7.80483e-11
4.40267e-11
-7.0579e-11
3.12914e-11
-5.93538e-11
3.14613e-11
-5.66493e-11
4.50138e-11
-7.02863e-11
1.68909e-11
-9.12514e-11
-3.2395e-11
-1.03955e-10
7.21253e-12
-9.98521e-11
3.10407e-11
-8.98766e-11
2.04981e-11
-8.10753e-11
1.89952e-11
-7.41395e-11
2.3418e-11
-6.91188e-11
3.43927e-11
-6.67951e-11
5.34379e-11
-6.84898e-11
8.1184e-11
-7.54588e-11
1.16851e-10
-8.85865e-11
1.58805e-10
-1.08413e-10
2.05234e-10
-1.35203e-10
2.54358e-10
-1.69009e-10
3.04487e-10
-2.09702e-10
3.54012e-10
-2.56983e-10
4.01406e-10
-3.10389e-10
4.45221e-10
4.84086e-10
-3.69295e-10
4.0678e-13
-8.66199e-12
2.0806e-12
-3.22891e-11
4.80753e-12
-5.21958e-11
8.35141e-12
-6.78184e-11
1.25672e-11
-8.01172e-11
1.73891e-11
-8.98446e-11
2.28004e-11
-9.72856e-11
2.88137e-11
-1.02372e-10
3.54588e-11
-1.04827e-10
4.27688e-11
-1.04245e-10
5.07536e-11
-1.00117e-10
5.93438e-11
-9.18036e-11
6.82895e-11
-7.84957e-11
7.70037e-11
-5.91994e-11
8.43728e-11
-3.2835e-11
8.85861e-11
1.48644e-12
8.70735e-11
4.3959e-11
7.63717e-11
9.37889e-11
5.41335e-11
1.44841e-10
2.31279e-11
1.83991e-10
-8.95937e-12
2.0128e-10
-4.17422e-11
2.06891e-10
-6.87253e-11
1.9175e-10
-8.66501e-11
1.61829e-10
-9.54342e-11
1.26334e-10
-9.94748e-11
9.58946e-11
-1.00674e-10
6.80883e-11
-9.8308e-11
4.16603e-11
-9.27685e-11
2.57514e-11
-7.94968e-11
1.81888e-11
-8.00347e-11
4.55512e-11
-7.50949e-11
1.19512e-11
-9.81023e-11
-9.3868e-12
-9.41213e-11
3.23241e-12
-8.80933e-11
2.50132e-11
-7.50362e-11
7.44074e-12
-6.68477e-11
1.0806e-11
-6.0967e-11
1.75367e-11
-5.54027e-11
2.88284e-11
-5.14138e-11
4.94497e-11
-5.11088e-11
8.08799e-11
-5.6252e-11
1.21995e-10
-6.79381e-11
1.70491e-10
-8.67922e-11
2.24089e-10
-1.13123e-10
2.8069e-10
-1.47016e-10
3.38382e-10
-1.88378e-10
3.95376e-10
-2.36944e-10
4.49974e-10
-2.92282e-10
5.00559e-10
5.45587e-10
-3.53783e-10
1.32675e-13
-8.79433e-12
1.10774e-12
-3.32636e-11
2.80499e-12
-5.38918e-11
5.05102e-12
-7.00626e-11
7.7457e-12
-8.28099e-11
1.08598e-11
-9.29572e-11
1.44141e-11
-1.00839e-10
1.84684e-11
-1.06427e-10
2.31228e-11
-1.09482e-10
2.8519e-11
-1.09641e-10
3.48315e-11
-1.06429e-10
4.22264e-11
-9.91975e-11
5.0757e-11
-8.70251e-11
6.01566e-11
-6.85979e-11
6.95077e-11
-4.21855e-11
7.69094e-11
-5.91523e-12
7.91075e-11
4.17607e-11
6.98979e-11
1.02998e-10
4.58562e-11
1.68883e-10
8.8434e-12
2.21003e-10
-2.78848e-11
2.38008e-10
-6.73155e-11
2.46321e-10
-9.63659e-11
2.208e-10
-1.11088e-10
1.76551e-10
-1.14208e-10
1.29454e-10
-1.15019e-10
9.67064e-11
-1.15634e-10
6.87039e-11
-1.17024e-10
4.30497e-11
-1.20423e-10
2.91493e-11
-1.28546e-10
2.63115e-11
-8.61065e-11
3.1104e-12
-7.68037e-11
2.64824e-12
-9.64644e-11
1.02744e-11
-7.2749e-11
-2.04822e-11
-3.66367e-11
-1.10986e-11
-4.33448e-11
1.41488e-11
-4.69369e-11
1.43978e-11
-4.46093e-11
1.52093e-11
-3.89263e-11
2.31462e-11
-3.30318e-11
4.35562e-11
-3.02679e-11
7.81166e-11
-3.31634e-11
1.24891e-10
-4.30201e-11
1.80348e-10
-6.05056e-11
2.41575e-10
-8.59507e-11
3.06137e-10
-1.19485e-10
3.71919e-10
-1.61076e-10
4.36968e-10
-2.10523e-10
4.99421e-10
-2.67453e-10
5.57488e-10
6.09442e-10
-3.31308e-10
-1.75497e-13
-8.61862e-12
1.00797e-14
-3.34486e-11
5.40884e-13
-5.44215e-11
1.30666e-12
-7.08268e-11
2.24538e-12
-8.37471e-11
3.35418e-12
-9.40651e-11
4.67179e-12
-1.02157e-10
6.28054e-12
-1.08036e-10
8.32073e-12
-1.11522e-10
1.10141e-11
-1.12334e-10
1.46866e-11
-1.101e-10
1.97685e-11
-1.04278e-10
2.67363e-11
-9.39916e-11
3.59198e-11
-7.77806e-11
4.70149e-11
-5.32802e-11
5.83297e-11
-1.72301e-11
6.68903e-11
3.32e-11
6.35358e-11
1.06353e-10
3.61944e-11
1.96224e-10
-9.313e-12
2.6651e-10
-4.86436e-11
2.77338e-10
-9.5963e-11
2.9364e-10
-1.28683e-10
2.53519e-10
-1.3548e-10
1.83348e-10
-1.24559e-10
1.18533e-10
-1.20645e-10
9.2793e-11
-1.14379e-10
6.24391e-11
-1.08072e-10
3.67427e-11
-9.9369e-11
2.0445e-11
-8.37412e-11
1.06821e-11
-7.52775e-11
-5.35442e-12
-6.92719e-11
-3.35762e-12
-9.83851e-11
3.93883e-11
-9.39646e-11
-2.49017e-11
-7.77854e-11
-2.72771e-11
-6.0047e-11
-3.58947e-12
-4.63226e-11
6.73607e-13
-3.62781e-11
5.1654e-12
-2.50279e-11
1.18972e-11
-1.43357e-11
3.28648e-11
-7.37623e-12
7.11571e-11
-7.05079e-12
1.24564e-10
-1.4425e-11
1.87722e-10
-2.99696e-11
2.5712e-10
-5.39463e-11
3.30116e-10
-8.65314e-11
4.04506e-10
-1.2778e-10
4.78217e-10
-1.77589e-10
5.49229e-10
-2.35677e-10
6.15575e-10
6.75336e-10
-3.01572e-10
-5.0629e-13
-8.11221e-12
-1.15957e-12
-3.27948e-11
-1.87686e-12
-5.37032e-11
-2.70594e-12
-6.99966e-11
-3.67221e-12
-8.278e-11
-4.77492e-12
-9.29621e-11
-5.98099e-12
-1.00951e-10
-7.22285e-12
-1.06795e-10
-8.37245e-12
-1.10373e-10
-9.19671e-12
-1.1151e-10
-9.29736e-12
-1.09999e-10
-8.04115e-12
-1.05533e-10
-4.51199e-12
-9.75197e-11
2.43496e-12
-8.47268e-11
1.38748e-11
-6.47198e-11
2.91785e-11
-3.25336e-11
4.64267e-11
1.59519e-11
5.286e-11
9.99198e-11
3.4493e-11
2.14592e-10
-3.1507e-11
3.3251e-10
-6.99268e-11
3.15758e-10
-1.4558e-10
3.69292e-10
-1.57527e-10
2.65465e-10
-1.46994e-10
1.72815e-10
-1.3487e-10
1.06409e-10
-1.12423e-10
7.03479e-11
-9.92207e-11
4.92378e-11
-8.49831e-11
2.2505e-11
-7.22578e-11
7.71825e-12
-5.8886e-11
-2.6914e-12
-5.07662e-11
-1.34752e-11
-6.1397e-11
7.27357e-12
-5.45236e-11
3.25161e-11
-7.02582e-11
-9.16591e-12
-5.72767e-11
-4.02583e-11
-4.77549e-11
-1.31112e-11
-3.63767e-11
-1.07043e-11
-2.41705e-11
-7.03984e-12
-9.97435e-12
-2.29796e-12
5.79876e-12
1.70918e-11
1.79745e-11
5.89803e-11
2.20364e-11
1.20501e-10
1.75676e-11
1.9219e-10
4.5188e-12
2.7017e-10
-1.72951e-11
3.51931e-10
-4.81742e-11
4.35385e-10
-8.83488e-11
5.1839e-10
-1.37865e-10
5.98744e-10
-1.96561e-10
6.74271e-10
7.42862e-10
-2.64087e-10
-8.365e-13
-7.2756e-12
-2.3349e-12
-3.12959e-11
-4.30733e-12
-5.173e-11
-6.74587e-12
-6.75572e-11
-9.658e-12
-7.98672e-11
-1.30427e-11
-8.95771e-11
-1.68995e-11
-9.7094e-11
-2.12182e-11
-1.02476e-10
-2.59504e-11
-1.0564e-10
-3.09574e-11
-1.06502e-10
-3.59245e-11
-1.05031e-10
-4.023e-11
-1.01227e-10
-4.27528e-11
-9.49961e-11
-4.16648e-11
-8.58143e-11
-3.43247e-11
-7.20597e-11
-1.70843e-11
-4.97738e-11
9.54681e-12
-1.06789e-11
4.33381e-11
6.61289e-11
4.46992e-11
2.13231e-10
-2.23825e-11
3.99592e-10
-9.57723e-11
3.89146e-10
-1.61173e-10
4.34692e-10
-1.47499e-10
2.5179e-10
-1.15098e-10
1.40415e-10
-9.21882e-11
8.35009e-11
-7.57816e-11
5.39431e-11
-6.06062e-11
3.40633e-11
-5.05206e-11
1.24187e-11
-4.58487e-11
3.04482e-12
-4.35311e-11
-5.01041e-12
-4.60914e-11
-1.0915e-11
-4.19357e-11
3.11899e-12
-1.89758e-11
9.55745e-12
-2.08467e-11
-7.2944e-12
-2.45761e-11
-3.65291e-11
-1.03342e-11
-2.73534e-11
-1.12509e-11
-9.78736e-12
-7.00223e-12
-1.12878e-11
7.01881e-12
-1.63186e-11
2.84458e-11
-4.3359e-12
4.66038e-11
4.08207e-11
5.41483e-11
1.12955e-10
5.26076e-11
1.9373e-10
4.26264e-11
2.80152e-10
2.38682e-11
3.7069e-10
-4.31841e-12
4.63571e-10
-4.24763e-11
5.56547e-10
-9.08785e-11
6.47146e-10
-1.49502e-10
7.32895e-10
8.11502e-10
-2.18141e-10
-1.14613e-12
-6.12928e-12
-3.44094e-12
-2.90004e-11
-6.59918e-12
-4.8571e-11
-1.05607e-11
-6.35948e-11
-1.53134e-11
-7.51136e-11
-2.08708e-11
-8.4019e-11
-2.72786e-11
-9.06855e-11
-3.46131e-11
-9.51409e-11
-4.2963e-11
-9.72898e-11
-5.23918e-11
-9.70728e-11
-6.28687e-11
-9.45532e-11
-7.41352e-11
-8.99598e-11
-8.54773e-11
-8.36534e-11
-9.53283e-11
-7.5963e-11
-1.00654e-10
-6.67345e-11
-9.63262e-11
-5.41012e-11
-7.4826e-11
-3.21789e-11
-2.99218e-11
2.1225e-11
2.36681e-11
1.59641e-10
-2.86842e-11
4.51944e-10
-1.41385e-10
5.01846e-10
-1.44266e-10
4.37571e-10
-8.61584e-11
1.93682e-10
-4.7735e-11
1.01993e-10
-2.25142e-11
5.8282e-11
-9.51126e-12
4.09418e-11
-2.77583e-12
2.73283e-11
-4.3321e-12
1.3974e-11
-9.54528e-12
8.25664e-12
-1.68647e-11
2.30838e-12
-2.09287e-11
-6.85039e-12
-9.20103e-12
-8.60749e-12
1.21517e-11
-1.17946e-11
2.89137e-11
-2.40567e-11
2.28267e-11
-3.0443e-11
2.09562e-11
-2.54834e-11
1.4291e-11
-3.12194e-12
1.04695e-11
-7.46595e-12
2.55229e-11
-3.13723e-11
5.37273e-11
-3.25416e-11
7.84487e-11
1.60977e-11
8.82715e-11
1.03132e-10
8.9619e-11
1.92383e-10
8.37827e-11
2.85989e-10
6.94554e-11
3.85017e-10
4.52988e-11
4.87728e-10
1.03605e-11
5.91485e-10
-3.59093e-11
6.93416e-10
-9.36449e-11
7.90632e-10
8.80623e-10
-1.62765e-10
-1.41532e-12
-4.71364e-12
-4.406e-12
-2.6009e-11
-8.59932e-12
-4.43768e-11
-1.38851e-11
-5.83079e-11
-2.02308e-11
-6.87667e-11
-2.76575e-11
-7.6591e-11
-3.62513e-11
-8.20906e-11
-4.61726e-11
-8.52189e-11
-5.76572e-11
-8.58048e-11
-7.10133e-11
-8.37165e-11
-8.66026e-11
-7.89636e-11
-1.04797e-10
-7.17646e-11
-1.2588e-10
-6.25703e-11
-1.49778e-10
-5.20651e-11
-1.75491e-10
-4.10221e-11
-1.99631e-10
-2.99616e-11
-2.1426e-10
-1.75502e-11
-2.03151e-10
1.01168e-11
-1.30383e-10
8.68727e-11
-1.12375e-10
4.33935e-10
-8.29449e-11
4.72414e-10
1.597e-11
3.38655e-10
4.9886e-11
1.59766e-10
6.55058e-11
8.63743e-11
6.36124e-11
6.01771e-11
5.68124e-11
4.77428e-11
4.83114e-11
3.5829e-11
3.88137e-11
2.34707e-11
2.98259e-11
1.72436e-11
2.02992e-11
1.18352e-11
1.44704e-11
-1.02079e-12
2.36758e-11
-1.78123e-11
4.62428e-11
-3.43618e-11
6.38514e-11
-4.16661e-11
7.31952e-11
-3.97877e-11
6.83434e-11
-2.0632e-11
5.69965e-11
8.22504e-12
3.85558e-11
1.09746e-11
5.14608e-11
-4.42783e-11
8.2538e-11
-6.36201e-11
1.11972e-10
-1.33373e-11
1.20665e-10
9.44384e-11
1.26953e-10
1.86096e-10
1.27642e-10
2.853e-10
1.19712e-10
3.92948e-10
1.01268e-10
5.06172e-10
7.09774e-11
6.21776e-10
2.80466e-11
7.36349e-10
-2.78706e-11
8.4655e-10
9.49476e-10
-9.67237e-11
-1.62645e-12
-3.08678e-12
-5.16951e-12
-2.24654e-11
-1.01807e-11
-3.93647e-11
-1.65001e-11
-5.19872e-11
-2.40646e-11
-6.12006e-11
-3.28829e-11
-6.77713e-11
-4.30499e-11
-7.19227e-11
-5.47642e-11
-7.35044e-11
-6.83455e-11
-7.22235e-11
-8.42602e-11
-6.78019e-11
-1.03151e-10
-6.00723e-11
-1.25904e-10
-4.90115e-11
-1.53741e-10
-3.47338e-11
-1.88303e-10
-1.75044e-11
-2.31613e-10
2.28782e-12
-2.85673e-10
2.40979e-11
-3.4941e-10
4.61868e-11
-3.98192e-10
5.88986e-11
-3.64555e-10
5.32351e-11
-1.34481e-10
2.0386e-10
1.16257e-11
3.26306e-10
1.54919e-10
1.95361e-10
1.95175e-10
1.19511e-10
1.67643e-10
1.13908e-10
1.33393e-10
9.44283e-11
1.05076e-10
7.60599e-11
8.31613e-11
5.77427e-11
6.70752e-11
3.9556e-11
5.97996e-11
2.45189e-11
5.35455e-11
1.80895e-11
4.73111e-11
5.21408e-12
5.52356e-11
-2.57368e-11
6.92157e-11
-4.83424e-11
8.2605e-11
-5.50561e-11
9.88586e-11
-5.60419e-11
1.20346e-10
-4.21196e-11
1.30213e-10
-1.64223e-12
1.03911e-10
3.72761e-11
9.9608e-11
-3.99762e-11
1.10151e-10
-7.41643e-11
1.38493e-10
-4.16793e-11
1.52378e-10
8.05548e-11
1.66639e-10
1.71835e-10
1.75253e-10
2.76687e-10
1.75662e-10
3.92539e-10
1.64668e-10
5.17167e-10
1.40527e-10
6.45918e-10
1.02238e-10
7.74638e-10
4.9261e-11
8.99527e-10
1.01719e-09
-1.84543e-11
-1.76867e-12
-1.31775e-12
-5.69316e-12
-1.85406e-11
-1.12627e-11
-3.37944e-11
-1.82664e-11
-4.49823e-11
-2.6596e-11
-5.28697e-11
-3.62182e-11
-5.81483e-11
-4.71871e-11
-6.09535e-11
-5.96618e-11
-6.10301e-11
-7.39227e-11
-5.79629e-11
-9.03913e-11
-5.13333e-11
-1.09654e-10
-4.08097e-11
-1.32506e-10
-2.61592e-11
-1.6002e-10
-7.22106e-12
-1.93611e-10
1.60854e-11
-2.35317e-10
4.39936e-11
-2.87661e-10
7.64422e-11
-3.54503e-10
1.13028e-10
-4.37072e-10
1.41468e-10
-4.68882e-10
8.50449e-11
-1.30962e-10
-1.34062e-10
1.52491e-10
4.28526e-11
3.48494e-10
-6.41867e-13
2.69056e-10
1.98949e-10
2.08967e-10
1.73997e-10
1.58985e-10
1.44411e-10
1.2183e-10
1.13214e-10
9.50739e-11
8.44981e-11
7.78262e-11
5.68031e-11
7.08918e-11
3.1453e-11
6.957e-11
1.94113e-11
6.01435e-11
1.46406e-11
6.9256e-11
-3.48493e-11
7.84361e-11
-5.75226e-11
8.80265e-11
-6.46466e-11
1.08861e-10
-7.68764e-11
1.40744e-10
-7.4003e-11
1.99409e-10
-6.03077e-11
2.34126e-10
2.55821e-12
2.10285e-10
-1.61356e-11
1.88798e-10
-5.26769e-11
1.9205e-10
-4.49306e-11
1.92656e-10
7.99491e-11
2.10271e-10
1.54222e-10
2.28721e-10
2.58238e-10
2.38673e-10
3.82586e-10
2.36585e-10
5.19255e-10
2.20228e-10
6.62274e-10
1.88158e-10
8.06707e-10
1.39534e-10
9.48152e-10
1.08271e-09
7.40099e-11
-1.83933e-12
5.21761e-13
-5.96672e-12
-1.44133e-11
-1.18239e-11
-2.79369e-11
-1.91485e-11
-3.7657e-11
-2.77741e-11
-4.42438e-11
-3.75967e-11
-4.83258e-11
-4.85831e-11
-4.99676e-11
-6.07788e-11
-4.88351e-11
-7.4309e-11
-4.4433e-11
-8.93687e-11
-3.62735e-11
-1.06194e-10
-2.39843e-11
-1.2498e-10
-7.37388e-12
-1.45664e-10
1.34622e-11
-1.67487e-10
3.79078e-11
-1.87876e-10
6.4382e-11
-2.0072e-10
8.92873e-11
-1.94424e-10
1.06733e-10
-1.65832e-10
1.12876e-10
-6.96529e-11
-1.11342e-11
-8.68618e-11
-1.16853e-10
-6.10621e-11
1.70522e-11
2.46508e-11
-8.6355e-11
1.02431e-10
1.21169e-10
1.21798e-10
1.54629e-10
1.17737e-10
1.48472e-10
9.97963e-11
1.31155e-10
7.97552e-11
1.04539e-10
6.49731e-11
7.15845e-11
6.43094e-11
3.21161e-11
7.72575e-11