/*--------------------------------*- C++ -*----------------------------------*\
| =========                 |                                                 |
| \\      /  F ield         | OpenFOAM: The Open Source CFD Toolbox           |
|  \\    /   O peration     | Version:  2.4.0                                 |
|   \\  /    A nd           | Web:      www.OpenFOAM.org                      |
|    \\/     M anipulation  |                                                 |
\*---------------------------------------------------------------------------*/
FoamFile
{
    version     2.0;
    format      ascii;
    class       volScalarField;
    location    "0.008";
    object      alpha.water;
}
// * * * * * * * * * * * * * * * * * * * * * * * * * * * * * * * * * * * * * //

dimensions      [0 0 0 0 0 0 0];

internalField   nonuniform List<scalar> 
14400
(
1
1
1
1
1
1
1
1
1
1
1
1
1
1
1
1
1
1
1
1
1
1
1
1
1
1
1
1
1
1
1
1
1
1
1
1
1
1
1
1
1
1
1
1
1
1
1
1
1
1
1
1
1
1
1
1
1
1
1
1
1
1
1
1
1
1
1
1
1
1
1
1
1
1
1
1
1
1
1
1
1
1
1
1
1
1
1
1
1
1
1
1
1
1
1
1
1
1
1
1
1
1
1
1
1
1
1
1
1
1
1
1
1
1
1
1
1
1
1
1
1
1
1
1
1
1
1
1
1
1
1
1
1
1
1
1
1
1
1
1
1
1
1
1
1
1
1
1
1
1
1
1
1
1
1
1
1
1
1
1
1
1
1
1
1
1
1
1
1
1
1
1
1
1
1
1
1
1
1
1
1
1
1
1
1
1
1
1
1
1
1
1
1
1
1
1
1
1
1
1
1
1
1
1
1
1
1
1
1
1
1
1
1
1
1
1
1
1
1
1
1
1
1
1
1
1
1
1
1
1
1
1
1
1
1
1
1
1
1
1
1
1
1
1
1
1
1
1
1
1
1
1
1
1
1
1
1
1
1
1
1
1
1
1
1
1
1
1
1
1
1
1
1
1
1
1
1
1
1
1
1
1
1
1
1
1
1
1
1
1
1
1
1
1
1
1
1
1
1
1
1
1
1
1
1
1
1
1
1
1
1
1
1
1
1
1
1
1
1
1
1
1
1
1
1
1
1
1
1
1
1
1
1
1
1
1
1
1
1
1
1
1
1
1
1
1
1
1
1
1
1
1
1
1
1
1
1
1
1
1
1
1
1
1
1
1
1
1
1
1
1
1
1
1
1
1
1
1
1
1
1
1
1
1
1
1
1
1
1
1
1
1
1
1
1
1
1
1
1
1
1
1
1
1
1
1
1
1
1
1
1
1
1
1
1
1
1
1
1
1
1
1
1
1
1
1
1
1
1
1
1
1
1
1
1
1
1
1
1
1
1
1
1
1
1
1
1
1
1
1
1
1
1
1
1
1
1
1
1
1
1
1
1
1
1
1
1
1
1
1
1
1
1
1
1
1
1
1
1
1
1
1
1
1
1
1
1
1
1
1
1
1
1
1
1
1
1
1
1
1
1
1
1
1
1
1
1
1
1
1
1
1
1
1
1
1
1
1
1
1
1
1
1
1
1
1
1
1
1
1
1
1
1
1
1
1
1
1
1
1
1
1
1
1
1
1
1
1
1
1
1
1
1
1
1
1
1
1
1
1
1
1
1
1
1
1
1
1
1
1
1
1
1
1
1
1
1
1
1
1
1
1
1
1
1
1
1
1
1
1
1
1
1
1
0.999946
0.999985
0.999979
0.999953
0.999964
0.999948
1
1
1
1
1
1
1
1
1
1
1
1
1
1
1
1
1
1
1
1
1
0.999987
0.999994
0.999975
0.999332
0.993945
0.998956
0.998061
0.998347
0.997964
1
1
1
1
1
1
1
1
1
1
1
1
1
1
1
1
1
1
1
1
1
0.999993
0.986586
0.998991
0.987202
0.768614
0.561737
0.406128
0.364923
0.361779
1
1
1
1
1
1
1
1
1
1
1
1
1
1
1
1
1
1
1
1
1
0.999945
0.996256
0.632774
0.0366907
-9.65878e-09
-2.84229e-08
-1.21196e-07
-1.44377e-10
4.50749e-07
1
1
1
1
1
1
1
1
1
1
1
1
1
1
1
1
1
1
1
1
0.999988
0.9977
0.147679
3.16163e-09
-6.56433e-08
-4.76262e-08
3.71088e-11
-1.26097e-07
-3.83793e-09
4.43348e-05
1
1
1
1
1
1
1
1
1
1
1
1
1
1
1
1
1
1
1
0.999999
0.999714
0.375758
1.41679e-07
9.63513e-08
-1.14611e-07
-7.14962e-08
4.33516e-07
3.59446e-07
1.38135e-07
4.87003e-05
1
1
1
1
1
1
1
1
1
1
1
1
1
1
1
1
1
1
1
0.999993
0.980014
0.000737417
1.511e-06
3.51082e-05
-3.21024e-08
-5.13699e-08
6.2894e-08
3.81787e-07
1.12513e-07
4.56564e-05
1
1
1
1
1
1
1
1
1
1
1
1
1
1
1
1
1
1
1
0.999926
0.596256
3.30891e-06
6.08831e-05
3.15925e-05
4.04104e-09
-3.26603e-09
1.68855e-09
1.64196e-09
6.79038e-09
4.54677e-05
1
1
1
1
1
1
1
1
1
1
1
1
1
1
1
1
1
1
0.999996
0.999308
0.14904
5.56111e-07
0.000131386
4.73637e-10
3.98762e-08
5.66321e-09
1.61983e-09
2.66664e-09
2.46353e-05
1.04383e-05
1
1
1
1
1
1
1
1
1
1
1
1
1
1
1
1
1
1
0.999998
0.997107
3.20495e-07
1.27096e-07
6.06434e-10
5.28198e-10
2.94764e-10
2.82211e-10
1.19348e-09
2.17786e-07
6.74876e-07
1.40087e-09
1
1
1
1
1
1
1
1
1
1
1
1
1
1
1
1
1
1
0.999983
0.912116
6.52221e-07
3.81586e-06
5.71163e-10
4.55008e-10
2.06202e-10
2.19125e-10
1.31539e-08
2.01239e-06
1.83545e-10
2.1513e-09
1
1
1
1
1
1
1
1
1
1
1
1
1
1
1
1
1
1
1
1
1
1
1
1
1
1
1
1
1
1
1
1
1
1
1
1
1
1
1
1
1
1
1
1
1
1
1
1
1
1
1
1
1
1
1
1
1
1
1
1
1
1
1
1
1
1
1
1
1
1
1
1
1
1
1
1
1
1
1
1
1
1
1
1
1
1
1
1
1
1
1
1
1
1
1
1
1
1
1
1
1
1
1
1
1
1
1
1
1
1
1
1
1
1
1
1
1
1
1
1
1
1
1
1
1
1
1
1
1
1
1
1
1
1
1
1
1
1
1
1
1
1
1
1
1
1
1
1
1
1
1
1
1
1
1
1
1
1
1
1
1
1
1
1
1
1
1
1
1
1
1
1
1
1
1
1
1
1
1
1
1
1
1
1
1
1
1
1
1
1
1
1
1
1
1
1
1
1
1
1
1
1
1
1
1
1
1
1
1
1
1
1
1
1
1
1
1
1
1
1
1
1
1
1
1
1
1
1
1
1
1
1
1
1
1
1
1
1
1
1
1
1
1
1
1
1
1
1
1
1
1
1
1
1
1
1
1
1
1
1
1
1
1
1
1
1
1
1
1
1
1
1
1
1
1
1
1
1
1
1
1
1
1
1
1
1
1
1
1
1
1
1
1
1
1
1
1
1
1
1
1
1
1
1
1
1
1
1
1
1
1
1
1
1
1
1
1
1
1
1
1
1
1
1
1
1
1
1
1
1
1
1
1
1
1
1
1
1
1
1
1
1
1
1
1
1
1
1
1
1
1
1
1
1
1
1
1
1
1
1
1
1
1
1
1
1
1
1
1
1
1
1
1
1
1
1
1
1
1
1
1
1
1
1
1
1
1
1
1
1
1
1
1
1
1
1
1
1
1
1
1
1
1
1
1
1
1
1
1
1
1
1
1
1
1
1
1
1
1
1
1
1
1
1
1
1
1
1
1
1
1
1
1
1
1
1
1
1
1
1
1
1
1
1
1
1
1
1
1
1
1
1
1
1
1
1
1
1
1
1
1
1
1
1
1
1
1
1
1
1
1
1
1
1
1
1
1
1
1
1
1
1
1
1
1
1
1
1
1
1
1
1
1
1
1
1
1
1
1
1
1
1
1
1
1
1
1
1
1
1
1
1
1
1
1
1
1
1
1
1
1
1
1
1
1
1
1
1
1
1
1
1
1
1
1
1
1
1
1
1
0.999999
1
1
1
1
1
1
1
1
1
1
1
1
1
1
1
1
1
1
1
1
1
1
1
1
1
1
1
1
1
0.999937
0.999949
0.999934
0.999967
0.999988
0.999981
0.999993
1
1
1
1
1
1
1
1
1
1
1
1
1
1
1
1
1
1
1
1
1
1
1
0.997673
0.997962
0.997468
0.998444
0.999317
0.996366
0.99989
0.999991
0.999944
1
1
1
1
1
1
1
1
1
1
1
1
1
1
1
1
1
1
1
1
1
0.362407
0.362853
0.349863
0.441488
0.660087
0.902502
0.997079
0.985368
0.998833
0.999999
1
1
1
1
1
1
1
1
1
1
1
1
1
1
1
1
1
1
1
1
1.41766e-06
3.18656e-08
1.28562e-12
-1.08997e-07
-1.65738e-08
1.72442e-11
0.297986
0.882076
0.99953
0.999996
1
1
1
1
1
1
1
1
1
1
1
1
1
1
1
1
1
1
1
1
3.81882e-05
1.73727e-05
9.76328e-11
-1.05423e-07
-1.31877e-08
-5.40235e-08
9.42352e-11
5.89771e-08
0.758997
0.999839
0.999999
1
1
1
1
1
1
1
1
1
1
1
1
1
1
1
1
1
1
1
4.87182e-05
1.32e-05
3.13708e-07
4.10798e-07
6.90571e-08
-1.07883e-07
-4.79687e-09
3.32506e-07
8.43124e-07
0.95428
0.999979
1
1
1
1
1
1
1
1
1
1
1
1
1
1
1
1
1
1
1
4.8365e-05
3.70934e-06
1.72438e-07
2.86931e-07
1.55411e-08
-5.36046e-08
2.62122e-05
3.15068e-05
2.97126e-06
0.475895
0.999817
1
1
1
1
1
1
1
1
1
1
1
1
1
1
1
1
1
1
1
2.79785e-06
1.9644e-05
2.0767e-09
1.4747e-09
1.65611e-08
-2.35454e-09
5.0999e-06
2.27826e-05
4.03244e-05
0.01492
0.996091
0.999996
1
1
1
1
1
1
1
1
1
1
1
1
1
1
1
1
1
1
2.82715e-06
3.63022e-05
9.7326e-09
1.56251e-09
4.4578e-10
2.18862e-09
4.22087e-10
4.37921e-10
2.34244e-05
1.28755e-06
0.838866
0.999951
1
1
1
1
1
1
1
1
1
1
1
1
1
1
1
1
1
1
1.25837e-09
5.73408e-06
2.36584e-06
1.47827e-08
4.84116e-10
2.62027e-10
4.21579e-10
7.18228e-10
6.45426e-10
4.06593e-07
0.55175
0.999962
1
1
1
1
1
1
1
1
1
1
1
1
1
1
1
1
1
1
2.12184e-09
9.07936e-10
2.2297e-06
2.16275e-07
6.29737e-10
1.51751e-10
3.23925e-10
6.14466e-10
2.0108e-07
4.96727e-07
0.190452
0.999658
0.999999
1
1
1
1
1
1
1
1
1
1
1
1
1
1
1
1
1
5.20574e-11
0.0374019
0.0666664
0.121717
0.213772
0.357263
0.551986
0.767927
0.950487
1
1
1
1
1
1
1
1
1
0.999988
0.717102
1.43428e-06
2.45555e-06
5.91405e-10
3.49099e-10
1.13625e-10
1.61676e-10
1.06219e-07
1.0458e-07
1.71631e-10
1.58015e-10
1.80581e-11
3.61511e-11
1.74329e-10
8.90381e-10
7.77096e-09
5.87076e-08
1.20137e-06
1.32032e-05
8.69673e-05
0.0587747
0.453646
1
1
1
1
1
1
1
0.999984
0.559356
9.69938e-07
5.99838e-10
5.9485e-10
3.12494e-10
8.70647e-11
1.02342e-10
3.32222e-08
1.07639e-08
1.21226e-10
8.18593e-11
3.16222e-16
2.15627e-12
6.36074e-12
6.10771e-11
3.51805e-10
1.36074e-10
2.81689e-10
3.47966e-09
4.79556e-08
1.3786e-06
0.000219822
0.198724
0.997725
1
1
1
1
1
0.999961
0.343257
2.93967e-07
6.14741e-10
6.08225e-10
2.82811e-10
6.66298e-11
4.80868e-11
6.84761e-10
2.16064e-09
9.19623e-11
4.78967e-11
1.04613e-21
9.87767e-17
2.33647e-15
4.49584e-14
1.49669e-12
8.05704e-12
5.98953e-11
1.45529e-10
5.27649e-10
8.33497e-09
4.07117e-05
8.20482e-05
0.0444618
0.572162
1
1
1
1
0.999803
0.153444
1.27398e-07
1.09203e-08
6.23976e-10
2.57203e-10
5.10825e-11
2.38936e-11
6.78412e-10
1.14819e-09
8.94828e-11
2.99235e-11
1.27755e-28
3.04452e-21
3.08978e-19
1.81157e-17
1.43089e-15
3.44207e-14
8.00275e-13
1.48385e-11
1.09407e-10
4.97011e-07
4.51179e-07
1.82926e-06
5.1534e-05
0.00667649
0.539345
1
0.99999
0.999998
0.999395
0.0143112
9.86308e-08
2.54747e-08
6.24487e-10
2.32759e-10
3.91608e-11
1.26904e-11
1.01279e-09
1.16891e-09
8.68831e-11
1.99165e-11
2.27259e-33
7.63646e-26
2.52686e-23
5.15775e-21
9.5622e-19
8.60322e-17
5.38903e-15
3.76597e-13
6.65549e-11
6.15913e-10
1.40039e-08
5.6562e-08
3.55612e-06
0.000373565
0.171276
0.915861
0.999992
0.999992
0.998795
0.00207795
1.1712e-07
6.98571e-10
5.98721e-10
2.07556e-10
2.98621e-11
5.88568e-12
9.55432e-10
9.8155e-10
7.20462e-11
1.34594e-11
3.40333e-38
1.60242e-30
1.62986e-27
1.15452e-24
5.36278e-22
1.56133e-19
3.37591e-17
2.31926e-14
1.1036e-11
2.75172e-10
9.37415e-10
1.19205e-09
1.43066e-07
4.87571e-05
0.00192092
0.686586
0.999992
0.999995
0.976658
3.6222e-07
9.37902e-06
6.86937e-10
5.50734e-10
1.80847e-10
2.24799e-11
2.22027e-12
6.21921e-10
5.31987e-10
4.91465e-11
8.58581e-12
4.47948e-43
2.879e-35
9.53146e-32
2.20765e-28
2.78586e-25
3.31745e-22
1.24145e-18
3.96339e-15
2.84004e-12
1.97257e-10
4.48458e-10
1.97573e-10
2.02514e-09
1.95303e-06
0.000223421
0.365833
0.999992
1.00001
0.845234
3.2853e-06
1.47217e-05
6.84333e-10
4.94185e-10
1.52774e-10
1.65868e-11
9.93651e-13
2.65767e-10
1.98766e-10
2.63179e-11
4.88837e-12
5.86873e-48
4.79098e-40
5.66113e-36
4.30575e-32
4.71073e-28
1.30645e-23
1.76358e-19
7.45447e-16
7.22883e-13
8.8904e-11
3.95226e-10
1.25945e-10
1.26918e-10
3.01252e-07
7.342e-05
0.166394
0.99999
0.999999
0.574761
1.10545e-05
2.79525e-06
9.26129e-10
4.39388e-10
1.23467e-10
1.18977e-11
5.68954e-13
6.1819e-11
5.99282e-11
9.91478e-12
2.34147e-12
5.11339e-52
1.09806e-44
1.50247e-39
3.01397e-34
3.22612e-29
1.38665e-24
2.18141e-20
1.0971e-16
1.38139e-13
2.78384e-11
2.9798e-10
8.75178e-11
1.32262e-10
2.48223e-09
3.60021e-06
0.0455257
0.999462
0.999492
0.123832
1.35261e-05
5.03844e-07
7.42371e-10
3.78064e-10
9.1723e-11
7.87816e-12
3.16425e-13
6.388e-12
1.10177e-11
2.12977e-12
8.67678e-13
1.71243e-53
1.05703e-46
6.57412e-41
1.87788e-35
2.25781e-30
1.08205e-25
1.933e-21
1.14278e-17
1.81758e-14
5.53975e-12
1.70321e-10
4.3229e-11
1.78146e-11
1.74451e-10
2.01293e-06
0.011602
0.99752
0.997559
5.60542e-05
6.76623e-05
3.76957e-08
5.6804e-10
2.9209e-10
5.69382e-11
4.25726e-12
1.45912e-13
3.03699e-13
1.31181e-12
2.12573e-13
2.2661e-13
4.5974e-55
3.80431e-48
2.56725e-42
7.98903e-37
1.05661e-31
5.64502e-27
1.14506e-22
7.92347e-19
1.56646e-15
6.8271e-13
5.91127e-11
1.14299e-11
1.73748e-12
1.08764e-10
2.95245e-06
0.0174907
0.975737
0.978808
6.06726e-05
3.21752e-05
4.5606e-09
4.0748e-10
1.8191e-10
2.62511e-11
1.56958e-12
4.52872e-14
2.57673e-15
3.59989e-14
7.74791e-15
3.54538e-14
7.76675e-57
8.76411e-50
6.41699e-44
2.17752e-38
3.1697e-33
1.88761e-28
4.34336e-24
3.50698e-20
8.52684e-17
5.092e-14
1.04314e-11
1.63214e-12
1.41707e-13
7.74663e-11
1.1773e-05
0.00105137
0.274879
0.615741
0.000142525
9.96881e-06
5.86889e-10
2.28233e-10
7.57056e-11
7.7901e-12
3.31328e-13
7.20716e-15
1.1694e-16
-1.34336e-17
2.93903e-16
2.13617e-15
8.14944e-59
1.26408e-51
1.00552e-45
3.7222e-40
5.95998e-35
3.95064e-30
1.02892e-25
9.65959e-22
2.86269e-18
2.26929e-15
8.93957e-13
1.63483e-13
1.29248e-14
3.06118e-12
-2.35262e-09
5.25851e-06
2.95323e-05
0.000819743
0.000425776
3.15924e-07
2.03144e-09
1.21414e-10
1.20619e-11
8.32222e-13
2.80567e-14
4.73634e-16
5.20935e-18
1.22717e-18
-3.64321e-19
-8.23132e-21
5.28107e-61
1.13216e-53
9.79717e-48
3.95745e-42
6.96467e-37
5.12936e-32
1.50799e-27
1.63925e-23
5.86909e-20
6.01178e-17
3.8815e-14
1.03892e-14
8.95522e-16
1.04252e-13
-2.81569e-11
2.32984e-08
9.08183e-08
7.33319e-06
3.69475e-06
-4.08541e-09
9.11415e-11
2.49327e-11
6.6793e-13
2.1755e-14
5.23724e-16
7.51133e-18
6.19514e-20
3.18629e-22
5.30554e-24
1.37819e-25
2.1055e-63
6.26589e-56
5.90971e-50
2.60662e-44
5.03912e-39
4.1162e-34
1.36219e-29
1.70706e-25
7.31705e-22
9.40449e-19
9.11526e-16
4.15107e-16
4.22211e-17
2.42907e-15
1.15942e-11
7.52694e-11
-3.97204e-10
3.91495e-10
8.23113e-11
6.27846e-12
1.85059e-12
1.36751e-13
5.23175e-15
1.23078e-16
1.85586e-18
1.80006e-20
1.09039e-22
3.83359e-25
7.17637e-28
1.43156e-30
5.14904e-66
2.13926e-58
2.2049e-52
1.06324e-46
2.25744e-41
2.04216e-36
7.58733e-32
1.09145e-27
5.55633e-24
9.10568e-21
1.23049e-17
1.04234e-17
1.29825e-18
3.88709e-17
8.02044e-14
1.24086e-11
2.26484e-11
5.15186e-11
1.96409e-12
8.82796e-14
2.77732e-15
6.08289e-17
9.76369e-19
1.18671e-20
1.09497e-22
7.48497e-25
3.58698e-27
1.09262e-29
1.7534e-32
9.93262e-36
7.71112e-69
4.50235e-61
5.08979e-55
2.68863e-49
6.27137e-44
6.27597e-39
2.61161e-34
4.29552e-30
2.58028e-26
5.58541e-23
9.9656e-20
1.62369e-19
2.4972e-20
4.29125e-19
8.35654e-16
2.01215e-13
1.63017e-13
1.79118e-14
6.44176e-16
1.99315e-17
4.98197e-19
9.75604e-21
1.48393e-22
1.73948e-24
1.54578e-26
1.00974e-28
4.57353e-31
1.29855e-33
1.90847e-36
9.25422e-40
7.06114e-72
5.8397e-64
7.27651e-58
4.22271e-52
1.08313e-46
1.19812e-41
5.57124e-37
1.04323e-32
7.3313e-29
2.17436e-25
4.95457e-22
1.53355e-21
2.86677e-22
3.02183e-21
4.04007e-18
1.07595e-15
3.19764e-16
7.31303e-18
1.67861e-19
3.52738e-21
6.28957e-23
9.12395e-25
1.05498e-26
9.57434e-29
6.67321e-31
3.4505e-33
1.24578e-35
2.83892e-38
3.37629e-41
1.33706e-44
3.94328e-75
4.67009e-67
6.45567e-61
4.13219e-55
1.16743e-49
1.42668e-44
7.39396e-40
1.5682e-35
1.28131e-31
5.36051e-28
1.52154e-24
8.53101e-24
1.86534e-24
1.20275e-23
7.81671e-21
1.36e-18
6.67628e-20
8.1967e-22
1.07016e-23
1.34963e-25
1.52973e-27
1.4846e-29
1.19503e-31
7.77074e-34
3.95853e-36
1.51606e-38
4.08917e-41
6.99445e-44
6.25287e-47
1.86227e-50
1.33918e-78
2.30319e-70
3.5622e-64
2.52867e-58
7.88852e-53
1.06477e-47
6.13193e-43
1.46386e-38
1.37792e-34
8.32143e-31
2.86425e-27
2.70151e-26
6.49874e-27
2.40165e-26
5.35288e-24
2.74908e-22
1.61491e-24
1.08503e-26
7.87251e-29
5.74967e-31
3.95238e-33
2.4269e-35
1.277e-37
5.55519e-40
1.92418e-42
5.07079e-45
9.50021e-48
1.13787e-50
7.17523e-54
1.51943e-57
2.75143e-82
7.00279e-74
1.2254e-67
9.71841e-62
3.36018e-56
5.01024e-51
3.19458e-46
8.51407e-42
9.27862e-38
8.05568e-34
3.24501e-30
4.68348e-29
1.13775e-29
2.1398e-29
1.05605e-27
9.29963e-28
3.23053e-30
1.18118e-32
4.67901e-35
1.96739e-37
8.31952e-40
3.3219e-42
1.17663e-44
3.50662e-47
8.37836e-50
1.52449e-52
1.968e-55
1.61879e-58
6.98698e-62
1.0114e-65
3.39296e-86
1.31034e-77
2.63296e-71
2.35658e-65
9.07995e-60
1.49687e-54
1.05234e-49
3.10077e-45
4.12882e-41
4.79449e-37
2.15374e-33
4.24831e-32
9.29283e-33
7.3892e-33
3.79411e-32
2.44908e-34
4.97671e-37
1.0233e-39
2.30641e-42
5.77211e-45
1.57594e-47
4.31319e-50
1.08606e-52
2.35972e-55
4.20604e-58
5.84505e-61
5.89541e-64
3.86306e-67
1.34686e-70
1.58751e-74
2.4773e-90
1.5037e-81
3.53927e-75
3.62475e-69
1.56889e-63
2.86546e-58
2.21135e-53
7.12321e-49
1.19669e-44
1.72328e-40
8.10028e-37
1.91271e-35
3.22891e-36
7.99999e-37
1.10506e-38
1.46145e-41
2.55399e-44
5.40073e-47
1.27533e-49
3.12124e-52
7.46013e-55
1.65838e-57
3.28347e-60
5.5476e-63
7.62684e-66
8.0644e-69
6.06513e-72
2.89225e-75
7.15713e-79
5.85596e-83
1.04654e-94
1.04951e-85
2.97306e-79
3.55176e-73
1.74746e-67
3.55095e-62
2.99594e-57
1.04317e-52
2.22311e-48
3.66158e-44
1.65989e-40
4.00747e-39
4.20076e-40
1.78455e-41
1.25991e-44
1.21654e-47
1.47237e-50
2.05972e-53
3.10756e-56
4.77063e-59
7.09444e-62
9.78276e-65
1.19999e-67
1.25455e-70
1.0652e-73
6.93657e-77
3.20129e-80
9.32844e-84
1.40466e-87
6.97509e-92
2.45935e-99
4.38923e-90
1.55399e-83
2.22497e-77
1.26633e-71
2.88554e-66
2.65412e-61
9.88881e-57
2.60915e-52
4.50266e-48
1.7766e-44
3.60818e-43
1.67562e-44
2.86743e-47
1.25656e-50
7.31324e-54
5.17352e-57
4.1483e-60
3.54305e-63
3.05883e-66
2.55115e-69
1.97204e-72
1.3568e-75
7.96327e-79
3.7987e-82
1.3906e-85
3.60913e-89
5.91585e-93
5.01205e-97
1.40164e-101
2.99912e-104
1.06919e-94
4.99344e-88
8.9092e-82
6.02199e-76
1.56023e-70
1.56554e-65
6.35533e-61
1.91716e-56
3.14767e-52
9.51593e-49
1.25914e-47
1.39216e-49
2.27257e-53
5.30443e-57
1.61526e-60
5.92695e-64
2.44652e-67
1.07249e-70
4.75036e-74
2.03445e-77
8.08787e-81
2.86717e-84
8.68784e-88
2.14372e-91
4.0657e-95
5.47265e-99
4.65497e-103
2.04715e-107
2.97475e-112
1.66215e-109
1.44106e-99
9.62324e-93
2.26638e-86
1.89373e-80
5.71345e-75
6.29781e-70
2.79336e-65
8.84178e-61
1.2445e-56
2.46764e-53
1.48713e-52
8.146e-56
6.35222e-60
6.9596e-64
9.86839e-68
1.68768e-71
3.24149e-75
6.58598e-79
1.3452e-82
2.64355e-86
4.80334e-90
7.76376e-94
1.07187e-97
1.20657e-101
1.04738e-105
6.4861e-110
2.55421e-114
5.23364e-119
3.56282e-124
3.13421e-115
9.73373e-105
1.05712e-97
3.59141e-91
3.94902e-85
1.44475e-79
1.78259e-74
8.54802e-70
2.61639e-65
2.84071e-61
3.08894e-58
4.99906e-58
2.46971e-62
7.07565e-67
2.84068e-71
1.45657e-75
8.89645e-80
6.04958e-84
4.32905e-88
3.10641e-92
2.1428e-96
1.36685e-100
7.76189e-105
3.76919e-109
1.49426e-113
4.57408e-118
1.00016e-122
1.39265e-127
1.01072e-132
2.44269e-138
8.97116e-122
2.68407e-110
5.9652e-103
3.38187e-96
5.41483e-90
2.57366e-84
3.69741e-79
1.89029e-74
5.23881e-70
4.00694e-66
2.00826e-63
4.11801e-64
1.28033e-69
6.1288e-75
4.05874e-80
3.41337e-85
3.38597e-90
3.72092e-95
4.29559e-100
4.97487e-105
5.54914e-110
5.73856e-115
5.29598e-120
4.18562e-125
2.69969e-130
1.34084e-135
4.73204e-141
1.056e-146
1.21927e-152
4.66087e-159
3.17022e-10
3.76633e-10
3.84468e-10
6.71775e-07
4.51964e-10
7.40432e-11
2.20155e-10
5.70401e-10
6.61892e-10
1.11534e-06
0.0137153
0.999227
0.999998
1
1
1
1
1
1
1
1
1
0.867128
0.659884
0.449139
0.277896
0.162072
0.0902419
0.0492125
0.02856
7.9228e-11
2.15456e-10
1.33149e-09
4.77028e-07
3.22369e-10
5.08637e-11
1.83981e-10
5.32402e-10
6.66506e-10
2.84183e-06
-5.50364e-06
0.995728
0.999998
1
1
1
1
1
1
0.808867
0.195237
0.00583889
3.55519e-05
4.29682e-06
2.72711e-07
2.06192e-08
2.6401e-09
3.17646e-10
4.13106e-10
5.9785e-12
4.82173e-11
1.01039e-10
4.86942e-09
6.20783e-10
2.39141e-10
3.33086e-11
1.5346e-10
4.99465e-10
6.627e-10
2.84716e-06
3.85841e-07
0.971998
0.999997
1
1
1
1
1
0.775135
0.00157596
1.37135e-05
1.89217e-07
1.3006e-08
9.02965e-10
3.67948e-10
7.00585e-11
2.39672e-10
1.64299e-11
7.38129e-12
1.83601e-14
2.84962e-11
4.91098e-11
8.4086e-10
7.15561e-10
1.41064e-10
2.15244e-11
1.28093e-10
4.7427e-10
6.66e-10
7.08181e-07
1.49183e-07
0.904608
0.999994
1
0.999983
1
0.88539
0.252868
0.00060571
5.22245e-05
6.21442e-06
2.12752e-09
2.13144e-10
1.85778e-10
3.26804e-11
2.30781e-12
2.7557e-13
8.74132e-15
6.32733e-16
3.62792e-19
1.69152e-11
3.22978e-11
2.36304e-10
7.07066e-10
1.08081e-10
1.40126e-11
1.07036e-10
4.53902e-10
6.92854e-10
3.27968e-09
1.16192e-07
0.766108
0.99998
0.999999
0.999988
0.904853
0.125974
0.000641783
3.0635e-05
6.43844e-07
2.26764e-06
2.02408e-10
4.68923e-11
3.09937e-12
1.82856e-13
6.50813e-15
1.68638e-16
2.23501e-18
3.04038e-20
9.15804e-24
9.92844e-12
2.33763e-11
2.39226e-10
5.90539e-10
6.2753e-11
9.29483e-12
8.91592e-11
4.30563e-10
7.34619e-10
-1.89939e-08
1.3304e-07
0.610544
0.999989
0.999993
0.999992
0.562404
0.0040436
5.60083e-05
2.35753e-07
9.45269e-09
3.62992e-09
6.08333e-10
4.81951e-12
3.90794e-14
6.98847e-16
9.54313e-18
7.42233e-20
3.63548e-22
1.16697e-24
1.90732e-28
5.46944e-12
1.56046e-11
1.85298e-10
4.05159e-10
1.94583e-11
6.32694e-12
7.32221e-11
3.95284e-10
6.9801e-10
8.3156e-06
1.70532e-07
0.362895
0.999895
0.999993
0.982391
0.130321
0.000281352
6.42953e-06
5.58306e-09
5.42275e-10
3.96295e-10
1.0489e-10
6.36887e-13
7.81312e-16
2.1698e-18
9.89272e-21
2.64501e-23
4.48704e-26
3.97932e-29
3.27155e-33
2.75751e-12
8.93252e-12
9.91735e-11
2.1499e-10
1.79746e-12
4.35411e-12
5.83546e-11
3.44417e-10
6.67607e-10
3.48319e-08
1.59984e-06
0.040048
0.999594
0.999992
0.937068
0.00160454
3.5649e-05
1.19915e-07
2.71216e-10
4.07525e-10
4.22404e-10
3.29598e-11
1.34041e-13
8.46201e-17
1.81713e-20
9.35408e-24
8.2577e-27
4.79667e-30
1.28669e-33
4.8799e-38
1.21714e-12
3.9624e-12
3.30451e-11
7.8952e-11
1.22906e-13
2.92257e-12
4.42597e-11
2.81035e-10
6.08206e-10
8.60396e-10
3.71196e-05
9.38489e-06
0.996509
0.999986
0.826996
0.00131231
4.9383e-06
2.73006e-09
1.18522e-10
3.11899e-10
2.83999e-10
1.07226e-11
2.95215e-14
1.44034e-17
1.88625e-21
8.83296e-26
3.78062e-30
5.08749e-34
4.30761e-38
7.0486e-43
4.33366e-13
1.19095e-12
6.08373e-12
1.72599e-11
5.82819e-14
1.74481e-12
3.01717e-11
2.10403e-10
5.31183e-10
7.77219e-09
3.3135e-05
6.17357e-06
0.921131
0.999798
0.671154
0.000165572
8.57121e-07
1.70929e-10
2.5994e-11
2.50905e-10
1.48754e-10
2.60422e-12
5.02219e-15
1.96539e-18
2.18654e-22
8.34165e-27
1.21293e-31
7.61066e-37
3.50579e-42
1.47263e-47
1.10931e-13
2.35819e-13
5.91118e-13
1.80665e-12
2.22218e-14
8.2281e-13
1.66565e-11
1.3646e-10
4.44382e-10
7.74396e-10
4.14443e-06
3.67568e-05
0.695664
0.99876
0.540846
9.73047e-05
7.98834e-09
7.95313e-11
6.14862e-12
1.33109e-10
4.63603e-11
4.17984e-13
5.87215e-16
1.87935e-19
1.80335e-23
6.10294e-28
7.97583e-33
4.26382e-38
9.93907e-44
1.14252e-49
1.68924e-14
3.08608e-14
1.35816e-14
4.08076e-14
5.66693e-15
2.6356e-13
6.58401e-12
7.13378e-11
3.39631e-10
6.61145e-10
1.00798e-06
2.28837e-05
0.382407
0.995547
0.530896
0.000282925
8.99424e-09
4.83599e-11
1.20024e-12
4.27359e-11
8.09213e-12
4.22966e-14
4.47436e-17
1.18706e-20
9.87957e-25
2.9726e-29
3.51064e-34
1.71634e-39
3.68593e-45
3.90439e-51
9.85441e-16
1.80512e-15
-5.67162e-17
2.85659e-17
7.9597e-16
4.93848e-14
1.67055e-12
2.57293e-11
2.14925e-10
5.48429e-10
8.47396e-08
0.000123074
0.000151895
0.675746
0.00870391
0.000480791
2.16851e-08
1.12987e-12
1.83139e-13
7.8377e-12
7.87123e-13
2.62833e-15
2.15155e-18
4.7763e-22
3.461e-26
9.27291e-31
9.89919e-36
4.42245e-41
8.74156e-47
8.53123e-53
5.44176e-19
-7.70961e-19
4.8355e-19
1.47541e-18
4.78156e-17
3.87865e-15
1.65692e-13
3.47763e-12
6.23877e-11
2.71102e-10
7.09026e-09
3.73963e-06
0.00128767
0.000446263
9.11907e-06
2.39348e-07
-2.1281e-12
5.16655e-14
1.93274e-14
8.1271e-13
4.40119e-14
9.89197e-17
6.40092e-20
1.19771e-23
7.5821e-28
1.81251e-32
1.75065e-37
7.14551e-43
1.29863e-48
1.16571e-54
7.60106e-27
8.52706e-25
2.59192e-23
3.77126e-21
6.05044e-19
5.69232e-17
3.14123e-15
1.10042e-13
3.64231e-12
7.10005e-11
-1.05008e-11
-1.09663e-09
1.28754e-05
2.59125e-06
4.40852e-08
1.44097e-09
5.36293e-12
2.44799e-15
1.34613e-15
4.81426e-14
1.45325e-15
2.24599e-18
1.16913e-21
1.85598e-25
1.02996e-29
2.20153e-34
1.926e-39
7.18226e-45
1.19893e-50
9.88116e-57
6.28164e-32
2.29164e-29
1.2007e-26
4.52296e-24
9.47698e-22
1.21811e-19
1.02828e-17
5.98537e-16
2.45955e-14
6.48721e-13
7.43695e-12
2.50984e-11
1.56873e-10
4.29622e-10
-9.84807e-11
4.16097e-11
9.76748e-14
9.50663e-17
6.11185e-17
1.65067e-15
2.8794e-17
3.07219e-20
1.30668e-23
1.77076e-27
8.64315e-32
1.65545e-36
1.31306e-41
4.47268e-47
6.8479e-53
5.16985e-59
1.24705e-37
5.39243e-34
5.43006e-31
2.46036e-28
6.50996e-26
1.14152e-23
1.41906e-21
1.29479e-19
8.78118e-18
4.3691e-16
1.53497e-14
3.66446e-13
6.11446e-12
3.70812e-11
1.82816e-11
2.28318e-12
1.59029e-15
2.54051e-18
1.77923e-18
3.32004e-17
3.46148e-19
2.55393e-22
8.94748e-26
1.04069e-29
4.4818e-34
7.70637e-39
5.54578e-44
1.72451e-49
2.41669e-55
1.66602e-61
7.57058e-42
4.34859e-38
4.72385e-35
2.25879e-32
6.28554e-30
1.16598e-27
1.55426e-25
1.55056e-23
1.18218e-21
6.93784e-20
3.14998e-18
1.12405e-16
3.32797e-15
8.90919e-14
3.14956e-13
3.31895e-14
1.51431e-17
4.24563e-20
3.23273e-20
3.95481e-19
2.55224e-21
1.29515e-24
3.76431e-28
3.77605e-32
1.43887e-36
2.22464e-41
1.45293e-46
4.11959e-52
5.26874e-58
3.30251e-64
9.17175e-47
6.57643e-43
8.87448e-40
5.29528e-37
1.84823e-34
4.32254e-32
7.31678e-30
9.37601e-28
9.34902e-26
7.36945e-24
4.6689e-22
2.44573e-20
1.12252e-18
4.94479e-17
1.07088e-15
1.74868e-16
7.21232e-20
4.16062e-22
3.53818e-22
2.79783e-21
1.16241e-23
3.96953e-27
9.74462e-31
8.48052e-35
2.86807e-39
3.99295e-44
2.36641e-49
6.1062e-55
7.09914e-61
4.02267e-67
9.65443e-53
9.47952e-49
1.7311e-45
1.3918e-42
6.54482e-40
2.07041e-37
4.78075e-35
8.47724e-33
1.19571e-30
1.37638e-28
1.32908e-26
1.11719e-24
8.67407e-23
6.76957e-21
5.78736e-19
2.95247e-19
1.64651e-22
2.25158e-24
2.23969e-24
1.16945e-23
3.27787e-26
7.82373e-30
1.5565e-33
1.18281e-37
3.5634e-42
4.47375e-47
2.40454e-52
5.63073e-58
5.91974e-64
3.00935e-70
5.60241e-60
8.11392e-56
2.17803e-52
2.57385e-49
1.77876e-46
8.27135e-44
2.81207e-41
7.37799e-39
1.55656e-36
2.73281e-34
4.14807e-32
5.70257e-30
7.55786e-28
1.03771e-25
1.6007e-23
1.31572e-22
1.68756e-25
6.29626e-27
7.83605e-27
2.84672e-26
5.69833e-29
1.00571e-32
1.537e-36
1.02841e-40
2.77239e-45
3.14369e-50
1.53065e-55
3.23995e-61
3.05887e-67
1.38116e-73
2.60292e-68
5.69762e-64
2.29544e-60
4.05265e-57
4.16563e-54
2.87128e-51
1.44535e-48
5.62902e-46
1.77698e-43
4.74198e-41
1.12272e-38
2.49502e-36
5.52898e-34
1.3034e-31
3.36924e-29
9.84341e-27
6.93538e-29
8.41336e-30
1.44052e-29
3.9429e-29
6.03868e-32
8.32786e-36
9.40802e-40
5.59866e-44
1.35836e-48
1.3935e-53
6.13447e-59
1.16726e-64
9.80539e-71
3.88111e-77
3.47226e-77
8.82646e-73
4.16044e-69
8.79165e-66
1.11695e-62
9.86888e-60
6.59958e-57
3.52339e-54
1.56411e-51
5.98979e-49
2.07345e-46
6.90188e-44
2.3682e-41
8.90854e-39
3.66065e-36
1.42585e-33
9.24301e-33
4.86987e-33
1.3126e-32
3.00981e-32
3.83062e-35
4.37706e-39
3.57842e-43
1.9191e-47
4.22002e-52
3.92291e-57
1.55645e-62
2.64178e-68
1.95027e-74
6.65047e-81
1.00738e-85
3.73946e-81
2.48602e-77
7.16728e-74
1.20359e-70
1.36976e-67
1.16135e-64
7.8335e-62
4.4268e-59
2.1863e-56
9.8352e-54
4.20492e-51
1.79609e-48
8.15274e-46
4.24077e-43
2.76678e-40
2.49926e-37
1.0679e-36
5.5294e-36
1.21722e-35
1.42065e-38
1.43709e-42
8.69379e-47
4.17504e-51
8.38882e-56
7.07452e-61
2.51705e-66
3.76969e-72
2.40502e-78
6.90339e-85
8.38668e-95
5.22962e-90
5.77119e-86
2.74218e-82
7.54095e-79
1.39736e-75
1.91964e-72
2.08977e-69
1.90046e-66
1.50725e-63
1.08639e-60
7.40961e-58
4.99937e-55
3.51415e-52
2.73609e-49
2.52997e-46
3.03251e-43
7.17304e-41
9.84567e-40
2.48512e-39
2.99319e-42
2.89621e-46
1.40583e-50
5.82292e-55
1.07842e-59
8.24978e-65
2.61108e-70
3.39765e-76
1.83065e-82
4.28569e-89
1.103e-104
1.24473e-99
2.47142e-95
2.10953e-91
1.04132e-87
3.46111e-84
8.52093e-81
1.66047e-77
2.69942e-74
3.82085e-71
4.90442e-68
5.93707e-65
7.07067e-62
8.69091e-59
1.16505e-55
1.82009e-52
3.57657e-49
9.6679e-46
6.5533e-44
2.4215e-43
3.47626e-46
3.52534e-50
1.49645e-54
5.27781e-59
9.09009e-64
6.29168e-69
1.74914e-74
1.93413e-80
8.52262e-87
1.55721e-93
1.46572e-115
3.23905e-110
1.25281e-105
2.08093e-101
1.99916e-97
1.29452e-93
6.21937e-90
2.37024e-86
7.55259e-83
2.09928e-79
5.29786e-76
1.26108e-72
2.94893e-69
7.09025e-66
1.84622e-62
5.5433e-59
2.05377e-55
1.029e-51
1.34927e-48
1.05595e-47
2.16391e-50
2.56106e-54
1.0414e-58
3.17143e-63
5.10821e-68
3.17595e-73
7.60162e-79
6.91485e-85
2.38e-91
3.18499e-98
1.10407e-127
5.19499e-122
4.27927e-117
1.52034e-112
3.14205e-108
4.40131e-104
4.59479e-100
3.81605e-96
2.65342e-92
1.60935e-88
8.85158e-85
4.58208e-81
2.32379e-77
1.20847e-73
6.79154e-70
4.3925e-66
3.51854e-62
3.79892e-58
6.10763e-54
1.92959e-52
7.10525e-55
1.11065e-58
4.75084e-63
1.29385e-67
1.9552e-72
1.07522e-77
2.1462e-83
1.53017e-89
3.84355e-96
3.41964e-103
4.96667e-142
6.60553e-136
1.53427e-130
1.53615e-125
8.94281e-121
3.5269e-116
1.0362e-111
2.4215e-107
4.73822e-103
8.08941e-99
1.25269e-94
1.82527e-90
2.60171e-86
3.78826e-82
5.91615e-78
1.05035e-73
2.27354e-69
6.49132e-65
2.71298e-60
1.41157e-57
1.24692e-59
2.94117e-63
1.44933e-67
3.73053e-72
5.23235e-77
2.47073e-82
3.90753e-88
2.02647e-94
3.34132e-101
1.68238e-108
4.61353e-163
3.87379e-156
5.64889e-150
3.52207e-144
1.26548e-138
3.05604e-133
5.46704e-128
7.75624e-123
9.20931e-118
9.55377e-113
9.01291e-108
8.02514e-103
7.01112e-98
6.27175e-93
6.02105e-88
6.56025e-83
8.68204e-78
1.48996e-72
3.69482e-67
4.32841e-63
1.25899e-64
5.05621e-68
3.09451e-72
7.96915e-77
1.01038e-81
3.88108e-87
4.47056e-93
1.49437e-99
1.35192e-106
2.8141e-114
1
1
1
1
1
1
1
1
1
1
1
1
1
1
1
1
1
1
1
1
1
1
1
1
1
1
1
1
1
1
1
1
1
1
1
1
1
1
1
1
1
1
1
1
1
1
1
1
1
1
1
1
1
1
1
1
1
1
1
1
1
1
1
1
1
1
1
1
1
1
1
1
1
1
1
1
1
1
1
1
1
1
1
1
1
1
1
1
1
1
1
1
1
1
1
1
1
1
1
1
1
1
1
1
1
1
1
1
1
1
1
1
1
1
1
1
1
1
1
1
1
1
1
1
1
1
1
1
1
1
1
1
1
1
1
1
1
1
1
1
1
1
1
1
1
1
1
1
1
1
1
1
1
1
1
1
1
1
1
1
1
1
1
1
1
1
1
1
1
1
1
1
1
1
1
1
1
1
1
1
1
1
1
1
1
1
1
1
1
1
1
1
1
1
1
1
1
1
1
1
1
1
1
1
1
1
1
1
1
1
1
1
1
1
1
1
1
1
1
1
1
1
1
1
1
1
1
1
1
1
1
1
1
1
1
1
1
1
1
1
1
1
1
1
1
1
1
1
1
1
1
1
1
1
1
1
1
1
1
1
1
1
1
1
1
1
1
1
1
1
1
1
1
1
1
1
1
1
1
1
1
1
1
1
1
1
1
1
1
1
1
1
1
1
1
1
1
1
1
1
1
1
1
1
1
1
1
1
1
1
1
1
1
1
1
1
1
1
1
1
1
1
1
1
1
1
1
1
1
1
1
1
1
1
1
1
1
1
1
1
1
1
1
1
1
1
1
1
1
1
1
1
1
1
1
1
1
1
1
1
1
1
1
1
1
1
1
1
1
1
1
1
1
1
1
1
1
1
1
1
1
1
1
1
1
1
1
1
1
1
1
1
1
1
1
1
1
1
1
1
1
1
1
1
1
1
1
1
1
1
1
1
1
1
1
1
1
1
1
1
1
1
1
1
1
1
1
1
1
1
1
1
1
1
1
1
1
1
1
1
1
1
1
1
1
1
1
1
1
1
1
1
1
1
1
1
1
1
1
1
1
1
1
1
1
1
1
1
1
1
1
1
1
1
1
1
1
1
1
1
1
1
1
1
1
1
1
1
1
1
1
1
1
1
1
1
1
1
1
1
1
1
1
1
1
1
1
1
1
1
1
1
1
1
1
1
1
1
1
1
1
1
1
1
1
1
1
1
1
1
1
1
1
1
1
1
1
1
1
1
1
1
1
1
1
1
1
1
1
1
1
1
1
1
1
1
1
1
1
1
1
1
1
1
1
1
1
1
1
0.999999
1
1
1
1
1
1
1
1
1
1
1
1
1
1
1
1
1
1
1
1
1
1
1
0.999993
0.99998
0.999988
0.999968
0.999939
0.999948
0.999935
1
1
1
1
1
1
1
1
1
1
1
1
1
1
1
1
1
1
1
1
1
0.999945
0.999991
0.999889
0.996221
0.999315
0.99847
0.997597
0.997873
0.997698
1
1
1
1
1
1
1
1
1
1
1
1
1
1
1
1
1
1
1
1
0.999999
0.998803
0.985362
0.99707
0.901577
0.661817
0.446717
0.354966
0.357666
0.372109
1
1
1
1
1
1
1
1
1
1
1
1
1
1
1
1
1
1
1
1
0.999996
0.999525
0.880229
0.296884
1.72908e-11
-1.32067e-08
-8.23129e-08
-5.46128e-09
3.43251e-08
1.46843e-06
1
1
1
1
1
1
1
1
1
1
1
1
1
1
1
1
1
1
1
0.999999
0.999839
0.757495
1.89518e-08
5.09813e-11
-6.11501e-08
-6.25038e-09
-6.23708e-08
1.54391e-10
1.94899e-05
3.68846e-05
1
1
1
1
1
1
1
1
1
1
1
1
1
1
1
1
1
1
1
0.999979
0.955116
3.34255e-07
1.16783e-07
-3.2098e-09
-1.30648e-07
6.21462e-08
4.28498e-07
2.88432e-07
1.48197e-05
4.87217e-05
1
1
1
1
1
1
1
1
1
1
1
1
1
1
1
1
1
1
1
0.999819
0.477874
1.45992e-06
2.44169e-05
1.43305e-05
-7.28519e-08
1.08846e-08
2.7474e-07
1.61766e-07
3.4723e-06
4.84566e-05
1
1
1
1
1
1
1
1
1
1
1
1
1
1
1
1
1
1
0.999996
0.99609
0.0150493
3.99262e-05
3.72118e-05
2.83095e-06
-8.66845e-09
1.58014e-08
1.59464e-09
2.2487e-09
1.82654e-05
3.49011e-06
1
1
1
1
1
1
1
1
1
1
1
1
1
1
1
1
1
1
0.99995
0.83798
1.09143e-06
2.10173e-05
4.74598e-10
5.09651e-10
1.53746e-09
1.76487e-09
1.82255e-09
1.06314e-08
3.53048e-05
2.38222e-06
1
1
1
1
1
1
1
1
1
1
1
1
1
1
1
1
1
1
0.999962
0.552313
2.90831e-07
6.31085e-10
1.28928e-09
4.15149e-10
2.89729e-10
5.13966e-10
1.71285e-08
2.40271e-06
4.86892e-06
1.11331e-09
1
1
1
1
1
1
1
1
1
1
1
1
1
1
1
1
1
0.999999
0.999663
0.190958
4.22542e-07
1.135e-07
1.04555e-09
3.11749e-10
1.56935e-10
6.90699e-10
2.00254e-07
2.04656e-06