/*--------------------------------*- C++ -*----------------------------------*\
| =========                 |                                                 |
| \\      /  F ield         | OpenFOAM: The Open Source CFD Toolbox           |
|  \\    /   O peration     | Version:  2.4.0                                 |
|   \\  /    A nd           | Web:      www.OpenFOAM.org                      |
|    \\/     M anipulation  |                                                 |
\*---------------------------------------------------------------------------*/
FoamFile
{
    version     2.0;
    format      ascii;
    class       volScalarField;
    location    "0.008";
    object      p;
}
// * * * * * * * * * * * * * * * * * * * * * * * * * * * * * * * * * * * * * //

dimensions      [1 -1 -2 0 0 0 0];

internalField   nonuniform List<scalar> 
14400
(
95.4207
97.1219
97.298
97.6134
98.1173
98.8625
99.8964
101.25
102.925
104.885
107.05
109.303
111.517
113.591
115.469
117.152
118.68
120.104
121.457
122.744
123.945
125.031
125.977
126.766
127.398
127.88
128.229
128.464
128.606
128.674
92.1605
93.8619
94.0378
94.353
94.8567
95.6017
96.6354
97.9888
99.6646
101.626
103.794
106.049
108.267
110.343
112.221
113.899
115.419
116.831
118.172
119.447
120.638
121.717
122.657
123.443
124.072
124.552
124.899
125.134
125.275
125.343
88.8999
90.6013
90.7766
91.091
91.5933
92.3365
93.3679
94.7189
96.3925
98.3532
100.521
102.78
105.004
107.084
108.964
110.639
112.15
113.547
114.87
116.127
117.302
118.368
119.298
120.077
120.701
121.177
121.523
121.755
121.896
121.964
85.6388
87.34
87.5144
87.8271
88.327
89.0668
90.0938
91.4396
93.1082
95.0652
97.2326
99.4952
101.725
103.814
105.699
107.373
108.873
110.252
111.551
112.784
113.937
114.984
115.899
116.666
117.282
117.753
118.094
118.324
118.463
118.53
82.3773
84.0782
84.2513
84.5616
85.0579
85.7926
86.8131
88.1512
89.8118
91.7626
93.9276
96.1933
98.4316
100.532
102.426
104.101
105.59
106.946
108.215
109.415
110.538
111.559
112.453
113.204
113.808
114.27
114.606
114.832
114.969
115.035
79.1155
80.8158
80.9871
81.2943
81.7859
82.5139
83.5257
84.8535
86.5033
88.4451
90.6059
92.8745
95.1227
97.2373
99.1442
100.822
102.299
103.628
104.859
106.017
107.1
108.087
108.953
109.682
110.269
110.72
111.047
111.268
111.402
111.466
75.8532
77.5528
77.7219
78.0253
78.511
79.2309
80.2319
81.5466
83.1827
85.1126
87.2672
89.5381
91.7977
93.9296
95.8529
97.5361
98.9995
100.296
101.48
102.586
103.618
104.559
105.388
106.088
106.653
107.087
107.403
107.617
107.746
107.808
72.5906
74.2892
74.4558
74.7546
75.2334
75.9434
76.9316
78.2306
79.8498
81.7649
83.9112
86.1838
88.4557
90.608
92.5517
94.2431
95.6919
96.9488
98.075
99.1146
100.081
100.965
101.745
102.406
102.941
103.353
103.654
103.858
103.981
104.041
69.3275
71.0251
71.1887
71.4822
71.953
72.6516
73.6248
74.9055
76.5048
78.4019
80.5373
82.8106
85.0957
87.2712
89.2394
90.942
92.3751
93.5849
94.6396
95.5958
96.4795
97.2886
98.0061
98.6158
99.1106
99.4933
99.7733
99.9639
100.08
100.136
66.0641
67.7604
67.9206
68.2082
68.6698
69.3556
70.3116
71.5713
73.1476
75.0234
77.1452
79.4178
81.7164
83.9176
85.9149
87.6321
89.0481
90.2018
91.1687
92.0202
92.7985
93.5121
94.1479
94.6903
95.1318
95.4748
95.7275
95.9006
96.0065
96.0578
62.8002
64.4952
64.6517
64.9326
65.3841
66.0553
66.9922
68.2282
69.7782
71.6292
73.7344
76.0045
78.3164
80.5455
82.5764
84.3127
85.7102
86.7978
87.6569
88.3764
89.0208
89.612
90.1423
90.5961
90.9663
91.2558
91.4719
91.6223
91.7153
91.7608
59.5361
61.2295
61.3818
61.6554
62.0956
62.7509
63.6665
64.8762
66.3965
68.2191
70.3042
72.5695
74.8941
77.1526
79.2218
80.9822
82.3603
83.3692
84.0956
84.6503
85.124
85.5581
85.9522
86.2897
86.5637
86.7807
86.9482
87.0693
87.1466
87.1851
56.2716
57.9632
58.111
58.3767
58.8045
59.4424
60.3347
61.5154
63.0027
64.7928
66.854
69.1119
71.4474
73.7362
75.8487
77.6392
78.9974
79.9131
80.4769
80.8248
81.0804
81.3127
81.5314
81.7163
81.8598
81.9771
82.0798
82.1645
82.2237
82.2547
53.0067
54.6965
54.8395
55.0965
55.511
56.13
56.997
58.1459
59.5968
61.3502
63.3831
65.6304
67.9743
70.293
72.4538
74.2819
75.6208
76.4271
76.7918
76.8797
76.8553
76.8271
76.8204
76.806
76.7706
76.7486
76.7657
76.8072
76.8471
76.8708
49.7415
51.4292
51.567
51.8148
52.215
52.8137
53.6535
54.7679
56.1787
57.8909
59.8908
62.1237
64.4725
66.8193
69.0327
70.9078
72.2297
72.9088
73.0317
72.791
72.4052
72.0374
71.7409
71.4694
71.1858
70.9634
70.8692
70.8648
70.8878
70.9064
46.476
48.1615
48.2938
48.5317
48.9166
49.4936
50.3042
51.3815
52.7487
54.4149
56.3763
58.5906
60.9395
63.3104
65.5803
67.5137
68.8237
69.3563
69.1846
68.5312
67.6757
66.8591
66.1883
65.5928
64.9612
64.4391
64.2051
64.1642
64.1773
64.1966
43.2102
44.8934
45.0198
45.2473
45.616
46.1699
46.9494
47.987
49.3069
50.9221
52.8389
55.03
57.3729
59.7612
62.0899
64.0955
65.4026
65.7685
65.2409
64.07
62.6002
61.1802
60.0152
59.0298
57.9134
56.9185
56.5256
56.487
56.489
56.5142
39.9441
41.6248
41.7451
41.9615
42.3131
42.8427
43.5893
44.5844
45.8533
47.4122
49.2776
51.4405
53.77
56.1653
58.5529
60.6472
61.9666
62.1459
61.193
59.3742
57.0998
54.8541
52.9996
51.5755
49.8117
48.0348
47.5069
47.566
47.5016
47.5331
36.6777
38.3558
38.4696
38.6745
39.008
39.512
40.2239
41.1739
42.3883
43.8854
45.6916
47.8212
50.1285
52.5156
54.9585
57.1612
58.516
58.491
57.033
54.411
51.0856
47.7018
44.7884
42.8772
40.3484
37.2753
36.7554
37.0562
36.7893
36.822
33.4111
35.0865
35.1936
35.3863
35.701
36.1781
36.8536
37.7561
38.9122
40.3416
42.0799
44.1712
46.4465
48.8041
51.2929
53.6266
55.0525
54.809
52.7573
49.1603
44.4635
39.5413
34.8524
32.1646
28.9776
24.1574
23.6057
23.9724
23.6281
24.306
30.1443
31.8168
31.9169
32.097
32.392
32.8411
33.4784
34.3309
35.4251
36.781
38.4413
40.4899
42.7224
45.0214
47.5383
50.0279
51.5777
51.1105
48.363
43.607
37.1448
30.2761
22.8336
17.9688
13.8825
6.86619
8.16757
6.99695
8.27302
10.6754
26.8773
28.5467
28.6395
28.8067
29.0811
29.5011
30.0988
30.8987
31.9274
33.204
34.7744
36.7767
38.956
41.1574
43.6717
46.3427
48.0928
47.4162
43.841
37.7682
29.0625
20.0569
13.5406
2.95431
-3.5329
-10.0321
-2.31907
-7.29944
-0.58052
0.754781
23.6101
25.2764
25.3617
25.5154
25.7686
26.1583
26.7148
27.46
28.4197
29.611
31.0777
33.0315
35.1486
37.2012
39.6648
42.5392
44.5965
43.769
39.1566
31.6914
20.205
7.84567
0.752152
-6.12454
-0.849273
0.114629
0.0365763
0.0780836
0.0448055
0.0545815
20.3427
22.0058
22.0834
22.2231
22.4543
22.8128
23.3268
24.0149
24.9024
26.003
27.3492
29.2543
31.3038
33.1414
35.4814
38.5712
41.0789
40.25
34.2195
25.469
10.8636
-10.6478
-3.15769
0.0893565
0.0176097
0.0409339
0.0394698
0.0439792
0.0404867
0.0469075
17.0752
18.7349
18.8046
18.9299
19.1385
19.4649
19.935
20.5638
21.3758
22.381
23.5867
25.4452
27.4291
28.967
31.0766
34.3691
37.5071
36.9964
28.7504
19.7989
2.65646
-19.1417
-0.107879
-0.00227711
0.0133996
0.0152043
0.0148818
0.0174319
0.0183104
0.0207916
13.8075
15.4639
15.5254
15.6361
15.8214
16.1146
16.5398
17.1073
17.8407
18.7468
19.7878
21.6036
23.5369
24.668
26.395
29.8306
33.8188
34.2089
21.6792
15.1844
-3.4834
-0.348615
0.00380078
-0.0181905
-0.0117958
-0.00921904
-0.0096569
-0.00798624
-0.0061581
-0.00526392
10.5398
12.1926
12.2458
12.3415
12.5029
12.7623
13.1414
13.6456
14.2974
15.1027
15.9498
17.7275
19.6461
20.2361
21.3654
24.7954
29.9288
31.5684
18.0995
5.29365
-29.2164
-0.0992012
-0.0160599
-0.0377611
-0.0367519
-0.0349146
-0.0343926
-0.0335069
-0.0326176
-0.0204963
7.27202
8.9212
8.96594
9.04633
9.18329
9.40794
9.74017
10.1793
10.7465
11.4522
12.0707
13.8137
15.7841
15.6584
15.8839
19.0615
25.8558
28.7908
16.0764
1.87757
-2.99058
-0.112872
-0.0105286
-0.058487
-0.0609831
-0.0603026
-0.0595235
-0.0590998
-0.0542751
-0.0576285
4.00416
5.64969
5.68578
5.75061
5.86256
6.05186
6.33646
6.70908
7.18888
7.80029
8.14973
9.8564
11.9797
10.8937
9.89755
12.6405
21.0595
23.6726
13.4587
5.59758
-0.0852632
-0.144711
-0.0872243
-0.0871083
-0.0874147
-0.0858939
-0.0846289
-0.0840546
-0.0847321
-0.0824538
0.737126
2.3787
2.40647
2.45623
2.5435
2.6974
2.93353
3.2366
3.62178
4.14373
4.17024
5.83565
8.27177
5.99065
4.1195
4.76181
14.4426
21.5077
14.186
-8.42776
-0.295787
-0.178518
-0.13119
-0.119844
-0.115106
-0.111585
-0.109141
-0.106913
-0.106287
-0.105032
128.686
128.647
128.543
128.356
128.065
127.651
127.094
126.382
125.512
124.491
123.341
122.092
120.769
119.381
117.909
116.308
114.531
112.554
110.402
108.157
105.935
103.863
102.041
100.527
99.3375
98.4543
97.8371
97.4344
97.1946
97.0739
125.355
125.316
125.213
125.026
124.737
124.324
123.769
123.06
122.194
121.18
120.039
118.801
117.49
116.114
114.652
113.059
111.284
109.305
107.15
104.901
102.677
100.604
98.7802
97.2659
96.0766
95.1936
94.5766
94.1742
93.9345
93.8139
121.976
121.937
121.834
121.649
121.361
120.951
120.4
119.698
118.84
117.837
116.711
115.489
114.196
112.837
111.388
109.801
108.027
106.044
103.884
101.631
99.4044
97.3306
95.5091
93.9972
92.8103
91.9293
91.3139
90.9126
90.6736
90.5534
118.542
118.504
118.402
118.219
117.934
117.529
116.985
116.292
115.448
114.462
113.356
112.158
110.89
109.552
108.118
106.537
104.76
102.77
100.601
98.3431
96.1157
94.0443
92.2273
90.7206
89.5385
88.6614
88.049
87.6497
87.412
87.2924
115.047
115.009
114.909
114.728
114.448
114.05
113.517
112.838
112.012
111.049
109.972
108.805
107.569
106.258
104.841
103.265
101.482
99.4814
97.3032
95.039
92.8113
90.7446
88.9349
87.4362
86.2613
85.39
84.7818
84.3855
84.1497
84.031
111.478
111.441
111.343
111.167
110.894
110.505
109.986
109.326
108.525
107.594
106.553
105.428
104.232
102.955
101.558
99.9857
98.1944
96.1792
93.9884
91.7177
89.491
87.4312
85.6318
84.1439
82.9786
82.1149
81.5124
81.12
80.8865
80.769
107.819
107.784
107.689
107.519
107.255
106.88
106.38
105.746
104.978
104.088
103.096
102.023
100.878
99.6415
98.2677
96.6987
94.8952
92.8621
90.6566
88.3791
86.1546
84.1043
82.3181
80.8439
79.6905
78.8363
78.2408
77.8531
77.6226
77.5066
104.051
104.017
103.927
103.764
103.513
103.156
102.682
102.082
101.358
100.521
99.5908
98.5851
97.5035
96.3168
94.9701
93.4033
91.584
89.5292
87.307
85.0226
82.8018
80.7637
78.9938
77.5361
76.397
75.5542
74.967
74.5851
74.358
74.2438
100.145
100.113
100.028
99.8762
99.6414
99.3101
98.8703
98.3158
97.6483
96.8802
96.0296
95.1084
94.1056
92.9797
91.6644
90.0986
88.2594
86.1794
83.9387
81.6475
79.4323
77.4093
75.659
74.2206
73.0983
72.2686
71.691
71.3157
71.0926
70.9805
96.0669
96.0375
95.9596
95.8208
95.6081
95.31
94.9166
94.4223
93.8291
93.1497
92.4003
91.5859
90.6806
89.6289
88.3501
86.7836
84.9201
82.8113
80.5506
78.2533
76.0459
74.0411
72.3135
70.8974
69.7942
68.9796
68.4129
68.045
67.8265
67.7167
91.7688
91.7428
91.6741
91.5527
91.3693
91.1158
90.7847
90.3703
89.874
89.3087
88.6886
88.0092
87.2291
86.2632
85.0263
83.4571
81.5643
79.4231
77.1419
74.8394
72.6421
70.659
68.9576
67.5668
66.4851
65.6872
65.1328
64.7732
64.5598
64.4526
87.192
87.1699
87.1122
87.0128
86.8676
86.6744
86.4279
86.1198
85.7494
85.3308
84.8762
84.3676
83.7383
82.8809
81.6922
80.1172
78.1895
76.0128
73.7108
71.4049
69.2206
67.2628
65.5911
64.2287
63.1709
62.3915
61.8505
61.5001
61.2924
61.1879
82.2604
82.2424
82.1971
82.124
82.0283
81.9168
81.7863
81.6202
81.413
81.183
80.9409
80.6489
80.2077
79.4804
78.3466
76.7619
74.7931
72.5781
70.2562
67.9488
65.781
63.8526
62.2143
60.8833
59.8516
59.0925
58.5663
58.2259
58.0242
57.9229
76.8754
76.8613
76.8286
76.7852
76.7516
76.7524
76.7837
76.8073
76.8105
76.8236
76.8554
76.8394
76.6318
76.0606
74.9885
73.3885
71.3715
69.1163
66.7763
64.4704
62.3228
60.4282
58.8273
57.5307
56.5275
55.7904
55.2801
54.9506
54.7555
54.6575
70.9104
70.8986
70.8762
70.8614
70.9015
71.0584
71.3214
71.5979
71.8698
72.1986
72.5867
72.9228
73.0053
72.6205
71.6164
69.9933
67.9203
65.6241
63.2696
60.9686
58.8456
56.9897
55.43
54.1709
53.1986
52.4851
51.992
51.6741
51.4861
51.3916
64.2033
64.188
64.171
64.1731
64.2898
64.6691
65.2741
65.8828
66.4944
67.2385
68.0947
68.8811
69.323
69.1597
68.2288
66.5719
64.4344
62.0981
59.7343
57.4426
55.349
53.5369
52.0227
50.8043
49.8651
49.1769
48.7021
48.3966
48.2162
48.1253
56.5377
56.5043
56.5017
56.486
56.6531
57.3601
58.4867
59.5129
60.551
61.8547
63.3329
64.6955
65.5804
65.6787
64.8237
63.1181
60.9074
58.5346
56.1691
53.8911
51.8325
50.0701
48.6056
47.431
46.5271
45.8657
45.4104
45.1181
44.9457
44.8588
47.6262
47.5278
47.6237
47.4928
47.6181
48.8316
50.765
52.261
53.8523
55.9382
58.2476
60.3528
61.7749
62.1789
61.3982
59.624
57.3313
54.9293
52.5723
50.3132
48.2957
46.5892
45.1788
44.051
43.1847
42.5518
42.117
41.8386
41.6746
41.5918
37.1093
36.808
37.2814
36.7624
36.6816
38.6849
41.8275
43.7266
46.144
49.3612
52.7842
55.83
57.9053
58.6637
57.9485
56.0792
53.6966
51.2776
48.9428
46.7076
44.7381
43.0945
41.7426
40.6647
39.8381
39.2351
38.8219
38.5581
38.403
38.3245
24.5184
24.0021
24.152
23.3053
23.2099
26.4372
31.0939
33.135
37.1436
41.9855
46.8897
51.1213
53.9722
55.1393
54.4695
52.4696
49.9916
47.575
45.2798
43.0732
41.1595
39.5862
38.2972
37.2723
36.4875
35.9158
35.5253
35.2769
35.1309
35.0569
11.3227
9.87487
6.20168
6.96211
7.11723
9.47932
17.23
19.4054
26.7969
33.6702
40.5256
46.2244
49.9771
51.6162
50.9526
48.7763
46.2022
43.8167
41.5835
39.4083
37.5593
36.0644
34.8428
33.874
33.133
32.594
32.2272
31.9947
31.8584
31.789
0.891132
1.35621
-3.77361
-7.82203
-2.50955
-11.1562
3.46425
4.89619
16.4197
24.271
33.6937
41.1442
45.9214
48.1123
47.3846
44.9737
42.3114
39.9985
37.8548
35.711
33.9373
32.5298
31.3799
30.4701
29.7749
29.2699
28.9277
28.7117
28.5854
28.5207
0.0576978
0.0531922
0.0732193
0.0552377
0.0432646
0.156814
-1.94342
-4.55042
4.52167
13.4203
26.4597
35.8813
41.8067
44.6549
43.7447
41.0273
38.2998
36.117
34.0966
31.9789
30.2935
28.9828
27.9088
27.0609
26.4133
25.9436
25.6269
25.4281
25.312
25.2522
0.0440855
0.0398467
0.0426666
0.0392776
0.0356359
0.0388576
0.0158266
0.0988555
-12.8967
0.188983
19.0289
30.4458
37.6436
41.2775
39.9995
36.8902
34.1442
32.1698
30.3138
28.2081
26.6278
25.4241
24.4297
23.6467
23.0484
22.6151
22.3248
22.1437
22.0383
21.9834
0.0206976
0.0182437
0.0166374
0.0147619
0.0123306
0.0165999
0.00255666
-0.0382555
0.582082
-11.7194
11.8202
24.9928
33.456
38.0034
36.0917
32.4984
29.819
28.1571
26.5152
24.393
22.9406
21.8545
20.9432
20.2277
19.6804
19.2846
19.0216
18.8587
18.7642
18.7143
-0.0040923
-0.00592335
-0.00835931
-0.0103906
-0.0115713
-0.0106314
-0.0143117
-0.0153449
0.0878511
-20.8543
5.15178
17.9847
29.4829
34.8271
31.9278
27.7641
25.2973
24.0818
22.7149
20.525
19.2332
18.2751
17.4497
16.8045
16.3097
15.9523
15.7174
15.5732
15.4899
15.445
-0.0259169
-0.0339458
-0.0342727
-0.0353725
-0.0363685
-0.0374534
-0.0415311
-0.0352008
0.000978054
-0.880424
-3.37287
9.48583
27.7214
31.5802
27.3644
22.5591
20.5504
19.9506
18.9349
16.5903
15.5071
14.6868
13.9495
13.3773
12.9363
12.6183
12.4122
12.2872
12.2153
12.1755
-0.0552567
-0.0466704
-0.0598154
-0.0605024
-0.0614114
-0.0627204
-0.0638587
-0.0534935
-0.0240604
-0.257573
-15.2121
8.24675
25.042
28.3719
22.2923
16.6995
15.5367
15.7725
15.209
12.5675
11.7661
11.0909
10.4431
9.9466
9.56058
9.28279
9.10615
9.00066
8.94052
8.90569
-0.0817096
-0.0833692
-0.0848367
-0.0853439
-0.0865391
-0.0884214
-0.0901519
-0.0884792
-0.0938571
-0.126652
-13.8998
7.40871
19.9935
23.7559
16.7041
10.1257
10.2002
11.5441
11.5825
8.42271
8.01656
7.48936
6.93137
6.51294
6.18277
5.94582
5.79934
5.7138
5.66557
5.63574
-0.104772
-0.105909
-0.106983
-0.109176
-0.111375
-0.114547
-0.118714
-0.124207
-0.147475
-0.159145
0.800132
5.45829
19.8048
19.1366
9.0156
3.03165
4.91989
7.27692
8.10471
4.08452
4.25505
3.87724
3.41405
3.07897
2.80631
2.61053
2.4941
2.42803
2.39129
2.3656
-0.099966
-0.0805258
-0.0659166
-0.0414838
-0.0036956
0.0491705
0.131213
0.25753
0.467524
0.933468
0.669674
2.36383
5.33032
1.73182
-1.88452
-5.08663
9.43159
18.3773
10.9992
-13.9141
-0.294241
-0.205069
-0.166942
-0.148248
-0.139219
-0.13362
-0.129885
-0.127205
-0.125252
-0.123977
-0.101563
-0.0972971
-0.094174
-0.0906691
-0.086627
-0.0815802
-0.074609
-0.064505
-0.0511052
-0.0346265
-0.906701
0.198379
3.45013
-0.849164
-3.74524
-11.5597
4.22529
17.4899
11.5709
-0.00975053
-0.32538
-0.2334
-0.186245
-0.164057
-0.152808
-0.145977
-0.141503
-0.138374
-0.136224
-0.134894
-0.103414
-0.0991207
-0.0959995
-0.0924975
-0.0884579
-0.0834028
-0.0764332
-0.0664465
-0.0532619
-0.0418704
-0.136668
0.215029
1.80114
-4.15576
-7.59095
-18.7488
-1.23098
15.2476
9.47746
0.348351
-0.398155
-0.259104
-0.204867
-0.180113
-0.166917
-0.158851
-0.153678
-0.150231
-0.147957
-0.14666
-0.105401
-0.101096
-0.0979803
-0.0944845
-0.0904522
-0.0853994
-0.0784283
-0.0684785
-0.0550989
-0.042344
-0.1316
-0.15152
-0.196593
-3.05063
-9.75679
-31.378
-7.69298
15.3051
9.53877
-2.16955
-0.402952
-0.27463
-0.221619
-0.196268
-0.181553
-0.172316
-0.166402
-0.162584
-0.160244
-0.159078
-0.107562
-0.103235
-0.100129
-0.096642
-0.0926198
-0.0875723
-0.0806144
-0.070742
-0.057173
-0.0421786
-0.13999
-0.174539
-0.112503
-0.365664
-6.09607
-40.5101
-19.4045
12.2801
13.526
-0.0393429
-0.364877
-0.280212
-0.237503
-0.212573
-0.196728
-0.186379
-0.179668
-0.175396
-0.172896
-0.171768
-0.109904
-0.10555
-0.102456
-0.0989808
-0.0949706
-0.0899337
-0.0830092
-0.0732435
-0.0594989
-0.0415989
-0.158241
-0.213471
-0.106226
-0.165897
1.19776
-45.8126
-31.2691
9.31116
26.03
-0.44995
-0.27042
-0.286967
-0.253494
-0.229131
-0.212326
-0.20095
-0.193461
-0.188671
-0.185816
-0.184467
-0.112445
-0.108057
-0.104979
-0.101519
-0.0975237
-0.0925029
-0.0856302
-0.0760207
-0.0622707
-0.041778
-0.18379
-0.251225
-0.109084
-0.153492
-0.313996
-39.9944
-35.3497
4.02302
16.1098
-0.627989
-0.271992
-0.299055
-0.270548
-0.246123
-0.228258
-0.215912
-0.207679
-0.202338
-0.199014
-0.197299
-0.115201
-0.110771
-0.107712
-0.104271
-0.100296
-0.095303
-0.0885112
-0.079112
-0.0656287
-0.044805
-0.211624
-0.276463
-0.111144
-0.154656
-0.414802
-28.7322
-40.7855
-3.08549
-16.3007
-0.398671
-0.3386
-0.321644
-0.290209
-0.263628
-0.244344
-0.230984
-0.222016
-0.216138
-0.212426
-0.21046
-0.118193
-0.113711
-0.110675
-0.107257
-0.103309
-0.098355
-0.0916736
-0.0825641
-0.0697275
-0.0519804
-0.230875
-0.281815
-0.114509
-0.157159
-0.305078
-4.85007
-39.9986
-17.4138
6.24526
-0.541024
-0.390342
-0.354102
-0.311912
-0.281404
-0.260217
-0.245763
-0.236076
-0.229745
-0.225839
-0.223834
-0.121436
-0.116895
-0.113886
-0.110497
-0.106583
-0.101685
-0.0951541
-0.08642
-0.0745986
-0.0624168
-0.225314
-0.26235
-0.120493
-0.155979
-0.227875
-3.28227
-42.0238
-28.7437
-3.61134
-0.749069
-0.494552
-0.389655
-0.333594
-0.298449
-0.27523
-0.259721
-0.249418
-0.242785
-0.238841
-0.23691
-0.124957
-0.120344
-0.117366
-0.114012
-0.11014
-0.105318
-0.0989758
-0.0907103
-0.0802173
-0.0735909
-0.196505
-0.230973
-0.127654
-0.152924
-0.173137
-0.647326
-26.9613
-15.6586
-0.798186
-0.760998
-0.543194
-0.417746
-0.352392
-0.313349
-0.288523
-0.272238
-0.261558
-0.254791
-0.250867
-0.249006
-0.128776
-0.12408
-0.121139
-0.117826
-0.114008
-0.109284
-0.103177
-0.0954717
-0.0865189
-0.0844262
-0.168228
-0.203829
-0.134763
-0.151173
-0.141495
0.136919
0.862932
16.4716
-1.44414
-0.88476
-0.566728
-0.434561
-0.365212
-0.324563
-0.299108
-0.28261
-0.271888
-0.265154
-0.261281
-0.259464
-0.132919
-0.128127
-0.125228
-0.121966
-0.118213
-0.113611
-0.107788
-0.100735
-0.0934424
-0.0948511
-0.153612
-0.185907
-0.141055
-0.153624
-0.181766
-0.245391
4.7523
25.0495
-1.09094
-0.876297
-0.556864
-0.435869
-0.369923
-0.330726
-0.306056
-0.290084
-0.279724
-0.273229
-0.269494
-0.267741
-0.137414
-0.132512
-0.129663
-0.12646
-0.122788
-0.118337
-0.112844
-0.10652
-0.100902
-0.104841
-0.14802
-0.17538
-0.146318
-0.15744
-0.1813
-0.159816
-0.0543488
-0.842714
-0.858069
-0.764744
-0.5218
-0.421714
-0.365633
-0.331007
-0.308678
-0.294042
-0.284499
-0.278505
-0.275054
-0.273432
-0.142289
-0.137264
-0.134473
-0.13134
-0.127764
-0.123491
-0.118375
-0.112838
-0.108821
-0.114387
-0.147137
-0.16937
-0.152131
-0.160607
-0.174247
-0.159246
-0.159009
-0.472184
-0.663809
-0.587822
-0.468817
-0.397279
-0.353853
-0.325646
-0.306846
-0.294275
-0.286
-0.280774
-0.277744
-0.276305
-0.147577
-0.142414
-0.13969
-0.136639
-0.133177
-0.129113
-0.124413
-0.119688
-0.117113
-0.123548
-0.148812
-0.166509
-0.157863
-0.163759
-0.171575
-0.168677
-0.197471
-0.33438
-0.472773
-0.459559
-0.410029
-0.366788
-0.336603
-0.31563
-0.30107
-0.291075
-0.284391
-0.280124
-0.277625
-0.276424
-0.153312
-0.147996
-0.145349
-0.142393
-0.139065
-0.135238
-0.13099
-0.127076
-0.125728
-0.132397
-0.152044
-0.166168
-0.163339
-0.167509
-0.172991
-0.178373
-0.209093
-0.28544
-0.362292
-0.374576
-0.357596
-0.335441
-0.316878
-0.302789
-0.292498
-0.285202
-0.280214
-0.27698
-0.275061
-0.274125
-0.15953
-0.154049
-0.151488
-0.148643
-0.145469
-0.141908
-0.138136
-0.135011
-0.134658
-0.141139
-0.156442
-0.167849
-0.168644
-0.172139
-0.177245
-0.186548
-0.212744
-0.259014
-0.302834
-0.319043
-0.316579
-0.307308
-0.297454
-0.289072
-0.282536
-0.277706
-0.274313
-0.272068
-0.270712
-0.27004
-0.166272
-0.160611
-0.158149
-0.155429
-0.15243
-0.14916
-0.145879
-0.14349
-0.14389
-0.14992
-0.16187
-0.171229
-0.174088
-0.177626
-0.183072
-0.193392
-0.214031
-0.243407
-0.270002
-0.283877
-0.28699
-0.284605
-0.280411
-0.276178
-0.272561
-0.269736
-0.267681
-0.266283
-0.265416
-0.264977
-0.173582
-0.167724
-0.165375
-0.162797
-0.159994
-0.157035
-0.154247
-0.15252
-0.153458
-0.158902
-0.168264
-0.176036
-0.179939
-0.183839
-0.189587
-0.1994
-0.215116
-0.234468
-0.251589
-0.262302
-0.266955
-0.267813
-0.266868
-0.265298
-0.263696
-0.262327
-0.261279
-0.26054
-0.260067
-0.259819
-0.181503
-0.175437
-0.173215
-0.170796
-0.168209
-0.165576
-0.163268
-0.162114
-0.16339
-0.168185
-0.17559
-0.182114
-0.186431
-0.190659
-0.196426
-0.205078
-0.216911
-0.230094
-0.241646
-0.249707
-0.254307
-0.256441
-0.257119
-0.257055
-0.256692
-0.256273
-0.255908
-0.255633
-0.255445
-0.25534
-0.190088
-0.183799
-0.181719
-0.179477
-0.177125
-0.174826
-0.172969
-0.172289
-0.173739
-0.177896
-0.183807
-0.189321
-0.193671
-0.198028
-0.203531
-0.210842
-0.219763
-0.229024
-0.23712
-0.243185
-0.247205
-0.249627
-0.250961
-0.251634
-0.251945
-0.252075
-0.25212
-0.252129
-0.252128
-0.252128
-0.199391
-0.192866
-0.190946
-0.188898
-0.186796
-0.18483
-0.183387
-0.183082
-0.184587
-0.188135
-0.1929
-0.197571
-0.201714
-0.205957
-0.210975
-0.217026
-0.223787
-0.230479
-0.236327
-0.240921
-0.244245
-0.246512
-0.247999
-0.248957
-0.249571
-0.249963
-0.250213
-0.250376
-0.250487
-0.250558
-0.209467
-0.202696
-0.200953
-0.199117
-0.197276
-0.195635
-0.194554
-0.194528
-0.195997
-0.198986
-0.202849
-0.206797
-0.210579
-0.214503
-0.218907
-0.223836
-0.229004
-0.233951
-0.238276
-0.241777
-0.244451
-0.246413
-0.247816
-0.248806
-0.249496
-0.249975
-0.250309
-0.250543
-0.250703
-0.2508
-0.220383
-0.213352
-0.211806
-0.210198
-0.208627
-0.207294
-0.20652
-0.206682
-0.20804
-0.210522
-0.213652
-0.216955
-0.220276
-0.22374
-0.227474
-0.231434
-0.235407
-0.239123
-0.242373
-0.245056
-0.247177
-0.248802
-0.250019
-0.250918
-0.251575
-0.252053
-0.252398
-0.25264
-0.252799
-0.252889
-0.232206
-0.224904
-0.223573
-0.22221
-0.220911
-0.219865
-0.21934
-0.219603
-0.2208
-0.222815
-0.22532
-0.228025
-0.230823
-0.233745
-0.236809
-0.239941
-0.242991
-0.245801
-0.24826
-0.250317
-0.251978
-0.253285
-0.254294
-0.255062
-0.25564
-0.256067
-0.256374
-0.256583
-0.256715
-0.256787
-0.24501
-0.237424
-0.236331
-0.235227
-0.234202
-0.233416
-0.233083
-0.233377
-0.234374
-0.23595
-0.237891
-0.24002
-0.242263
-0.244606
-0.247024
-0.24944
-0.251754
-0.253869
-0.255722
-0.257287
-0.258571
-0.259601
-0.260411
-0.261036
-0.261509
-0.261856
-0.262103
-0.26227
-0.262373
-0.262429
-0.258878
-0.250993
-0.250159
-0.249327
-0.248573
-0.248023
-0.24783
-0.248101
-0.248863
-0.250016
-0.251425
-0.252986
-0.254652
-0.256412
-0.258216
-0.260004
-0.261707
-0.263263
-0.264633
-0.265801
-0.266771
-0.267556
-0.268177
-0.268656
-0.269018
-0.269283
-0.269469
-0.269595
-0.269673
-0.269715
-0.273895
-0.265695
-0.265143
-0.2646
-0.264116
-0.263778
-0.263682
-0.263884
-0.264384
-0.265119
-0.266009
-0.267004
-0.268093
-0.269261
-0.270478
-0.271697
-0.272869
-0.273951
-0.274914
-0.275743
-0.276436
-0.277001
-0.27745
-0.277798
-0.278062
-0.278256
-0.278392
-0.278484
-0.278542
-0.278572
-0.290155
-0.281623
-0.281378
-0.281138
-0.280929
-0.280788
-0.280756
-0.280853
-0.281073
-0.281386
-0.281761
-0.282174
-0.282672
-0.283251
-0.283895
-0.284577
-0.285263
-0.285918
-0.286517
-0.287044
-0.287492
-0.287861
-0.288159
-0.288391
-0.288569
-0.2887
-0.288793
-0.288856
-0.288894
-0.288913
-0.123755
-0.124723
-0.126574
-0.128807
-0.132485
-0.137154
-0.143922
-0.155352
-0.187803
-0.303257
-1.45251
3.76248
17.0803
15.5599
1.39429
-5.89322
0.188106
3.74243
5.3821
0.12691
0.974519
0.671393
0.34431
0.189935
0.0860256
0.021467
-0.0241206
-0.0548471
-0.0741554
-0.0865452
-0.134655
-0.135604
-0.137551
-0.140239
-0.14429
-0.149879
-0.158211
-0.172461
-0.208611
-0.357676
-0.737083
5.86502
16.9689
12.8725
-5.67089
-10.0835
-1.90609
1.39912
3.73914
-2.08476
-0.212211
-0.0395371
-0.0562215
-0.0684159
-0.0773434
-0.0835138
-0.0882583
-0.0921626
-0.0956305
-0.0994313
-0.146421
-0.147297
-0.149268
-0.152283
-0.156652
-0.163091
-0.173008
-0.189658
-0.226419
-0.368132
-0.393929
3.65976
15.3289
9.04681
-11.2762
-16.0988
-5.51895
-0.777259
2.11311
-0.316206
-0.0505135
-0.0432454
-0.0582446
-0.070282
-0.0791576
-0.0853436
-0.0900871
-0.0939894
-0.0974548
-0.101192
-0.158889
-0.159636
-0.161521
-0.164742
-0.169618
-0.176912
-0.188205
-0.206487
-0.241179
-0.33542
-0.330299
-5.29907
17.3259
5.29103
-21.544
-24.2443
-6.28518
-0.914753
0.0348258
-0.334127
-0.0504344
-0.0444914
-0.0602343
-0.072298
-0.0811499
-0.0873406
-0.0920757
-0.0959728
-0.0994323
-0.103094
-0.17163
-0.172342
-0.174216
-0.177662
-0.183139
-0.191391
-0.203833
-0.222917
-0.254628
-0.315101
-0.163816
-26.5564
19.2354
-1.98137
-33.5848
-25.9788
-2.87316
-0.137767
0.0306338
-0.357161
-0.0517544
-0.0458041
-0.0624748
-0.0745233
-0.0833234
-0.0895119
-0.0942353
-0.0981247
-0.101575
-0.105158
-0.184294
-0.18516
-0.187297
-0.191089
-0.197151
-0.20636
-0.219946
-0.23965
-0.266632
-0.298801
-0.140899
21.2833
18.93
-10.8039
-37.354
-20.1452
0.13548
-0.105169
0.0335448
-0.393823
-0.0494731
-0.0472904
-0.0649667
-0.0769747
-0.085694
-0.0918681
-0.0965766
-0.100456
-0.103895
-0.107399
-0.197018
-0.198101
-0.200669
-0.204952
-0.211596
-0.221671
-0.236457
-0.257353
-0.283494
-0.278689
-0.136737
7.55935
14.9056
-24.999
-37.2141
-10.6523
-0.170369
-0.119972
0.028626
-0.419828
-0.0498093
-0.04949
-0.0677994
-0.0796731
-0.0882798
-0.0944286
-0.0991185
-0.102984
-0.106409
-0.109833
-0.210084
-0.211264
-0.214134
-0.218907
-0.226191
-0.237116
-0.253191
-0.276129
-0.306797
-0.332438
-0.308338
-1.50696
8.47909
-36.7981
-27.4574
-1.35655
-0.176195
-0.125683
0.00712104
-0.430496
-0.0555563
-0.0529899
-0.0710267
-0.0826567
-0.0911103
-0.0972132
-0.101878
-0.105725
-0.10913
-0.112476
-0.223427
-0.224555
-0.227473
-0.232561
-0.240466
-0.252303
-0.269836
-0.295564
-0.332986
-0.386745
-0.559231
-1.50336
10.5934
-48.4
-18.6044
-0.599184
-0.183355
-0.12887
-0.023733
-0.420564
-0.0661094
-0.0581429
-0.0747385
-0.0859529
-0.0942056
-0.100243
-0.104875
-0.108698
-0.112079
-0.115347
-0.236517
-0.237545
-0.240369
-0.245561
-0.253908
-0.266589
-0.285594
-0.314264
-0.359131
-0.436735
-0.6892
-0.99913
-12.0697
-49.309
-28.0116
-0.298158
-0.183348
-0.1323
-0.055175
-0.375271
-0.0780204
-0.0647498
-0.0789767
-0.0896033
-0.0975978
-0.103542
-0.108129
-0.111923
-0.115274
-0.118464
-0.248635
-0.249598
-0.252326
-0.2575
-0.26603
-0.279236
-0.299326
-0.330344
-0.380664
-0.469632
-0.638472
-0.735492
-8.58372
-35.1232
-24.4352
-0.240297
-0.167059
-0.135583
-0.0821572
-0.304648
-0.08978
-0.0723912
-0.0837716
-0.0936323
-0.10131
-0.107133
-0.111663
-0.115419
-0.118735
-0.121848
-0.259107
-0.260041
-0.262702
-0.267787
-0.276248
-0.289489
-0.309852
-0.341711
-0.393747
-0.487457
-0.668762
-1.05144
6.72252
-9.40965
45.7154
-0.234447
-0.153292
-0.138895
-0.10321
-0.24436
-0.100472
-0.0807023
-0.0891371
-0.0980815
-0.105379
-0.111046
-0.115503
-0.119212
-0.122486
-0.125523
-0.267399
-0.2683
-0.270857
-0.275735
-0.283855
-0.296585
-0.316187
-0.346774
-0.396233
-0.483047
-0.654092
-1.19511
-0.330358
16.5432
0.214239
-0.305699
-0.164213
-0.143088
-0.121028
-0.204974
-0.109754
-0.089428
-0.0950866
-0.102982
-0.109831
-0.115308
-0.119674
-0.123325
-0.12655
-0.129512
-0.273113
-0.273941
-0.276298
-0.28079
-0.28825
-0.299896
-0.317678
-0.344901
-0.38769
-0.458834
-0.600892
-0.895103
-0.81807
-0.0664442
-0.0850805
-0.235987
-0.167014
-0.147744
-0.135712
-0.181418
-0.117851
-0.0983882
-0.101604
-0.108367
-0.114705
-0.119952
-0.124207
-0.127789
-0.130957
-0.133842
-0.276014
-0.276744
-0.278815
-0.282738
-0.289215
-0.299246
-0.314336
-0.336837
-0.370837
-0.423706
-0.515305
-0.629079
-0.662346
-0.277809
-0.153817
-0.192485
-0.166352
-0.152628
-0.146393
-0.168326
-0.125187
-0.107475
-0.108669
-0.114261
-0.120033
-0.125013
-0.129133
-0.132634
-0.135735
-0.138541
-0.276174
-0.276776
-0.278487
-0.281703
-0.286966
-0.295014
-0.306871
-0.323984
-0.348546
-0.383677
-0.43225
-0.47285
-0.439615
-0.258873
-0.182247
-0.179431
-0.167143
-0.157684
-0.15418
-0.162151
-0.132158
-0.11662
-0.116244
-0.120686
-0.125852
-0.130526
-0.134488
-0.137892
-0.140916
-0.14364
-0.273926
-0.274392
-0.275711
-0.278166
-0.282134
-0.288102
-0.296669
-0.308558
-0.324562
-0.345005
-0.366925
-0.3757
-0.339221
-0.250519
-0.19563
-0.179341
-0.170066
-0.163025
-0.160274
-0.160556
-0.139121
-0.125814
-0.124301
-0.127666
-0.132197
-0.13653
-0.140309
-0.143599
-0.146535
-0.149174
-0.269898
-0.270238
-0.271178
-0.272901
-0.275645
-0.279687
-0.28531
-0.292737
-0.301964
-0.312139
-0.319838
-0.316501
-0.28926
-0.240789
-0.202437
-0.183933
-0.174728
-0.168676
-0.165613
-0.162097
-0.146296
-0.135098
-0.132835
-0.135221
-0.139105
-0.143067
-0.146636
-0.149796
-0.15263
-0.155177
-0.264887
-0.26512
-0.265741
-0.266841
-0.268546
-0.270992
-0.274264
-0.278314
-0.282811
-0.286749
-0.287659
-0.281028
-0.262034
-0.233051
-0.206512
-0.189817
-0.180531
-0.174712
-0.17099
-0.165839
-0.153852
-0.144507
-0.141829
-0.143369
-0.146613
-0.150177
-0.153513
-0.156522
-0.159241
-0.161689
-0.259769
-0.259913
-0.260279
-0.260899
-0.261818