/*--------------------------------*- C++ -*----------------------------------*\
| =========                 |                                                 |
| \\      /  F ield         | OpenFOAM: The Open Source CFD Toolbox           |
|  \\    /   O peration     | Version:  2.4.0                                 |
|   \\  /    A nd           | Web:      www.OpenFOAM.org                      |
|    \\/     M anipulation  |                                                 |
\*---------------------------------------------------------------------------*/
FoamFile
{
    version     2.0;
    format      ascii;
    class       surfaceScalarField;
    location    "0.022";
    object      phiAlpha;
}
// * * * * * * * * * * * * * * * * * * * * * * * * * * * * * * * * * * * * * //

dimensions      [0 3 -1 0 0 0 0];

internalField   nonuniform List<scalar> 
19800
(
2.17533e-160
-7.76445e-156
-1.52957e-150
1.1035e-154
1.8875e-151
-6.46302e-146
3.24098e-146
-1.13586e-141
1.4141e-142
-2.84813e-138
2.85615e-139
-3.86268e-135
4.83874e-136
-4.71589e-132
8.80287e-133
-6.50791e-129
1.85968e-129
-1.09353e-125
4.59109e-126
-2.27713e-122
1.26614e-122
-5.55134e-119
3.71603e-119
-1.5452e-115
1.0967e-115
-4.27259e-112
2.98916e-112
-1.0905e-108
7.28459e-109
-2.44135e-105
1.48676e-105
-4.52942e-102
2.46785e-102
-6.7683e-99
3.27836e-99
-8.03629e-96
3.47051e-96
-7.5788e-93
2.89919e-93
-5.60536e-90
1.89285e-90
-3.236e-87
9.50965e-88
-1.43901e-84
3.64291e-85
-4.8842e-82
1.05277e-82
-1.25039e-79
2.26173e-80
-2.3828e-77
3.56036e-78
-3.33685e-75
4.04178e-76
-3.38105e-73
3.24981e-74
-2.43474e-71
1.81548e-72
-1.2217e-69
6.93873e-71
-4.20023e-68
1.79215e-69
-9.76625e-67
2.95691e-68
-1.46296e-65
2.70793e-67
-1.23466e-64
1.16586e-66
-4.96302e-64
1.93602e-66
-7.78918e-64
9.16195e-67
-3.53087e-64
7.56916e-68
-2.82033e-65
1.58833e-69
-5.54817e-67
1.23818e-71
-3.50321e-69
4.77135e-74
-2.738e-72
1.18474e-76
1.07296e-78
3.00742e-79
5.92906e-81
9.97796e-82
3.13287e-83
3.64715e-84
1.60961e-85
1.23558e-86
7.19703e-88
3.62597e-89
2.68988e-90
8.97146e-92
8.30568e-93
1.83532e-94
2.09926e-95
3.84972e-97
5.42875e-98
4.34409e-97
2.48431e-96
-2.8625e-150
3.45934e-155
-1.22498e-145
7.32511e-150
1.30909e-145
-3.0937e-141
3.40589e-141
-3.77298e-137
1.23311e-137
-8.84444e-134
2.30877e-134
-1.18669e-130
3.67989e-131
-1.43673e-127
6.21495e-128
-1.96635e-124
1.19788e-124
-3.29132e-121
2.71262e-121
-6.76273e-118
6.94749e-118
-1.6242e-114
1.9827e-114
-4.26269e-111
5.67367e-111
-1.11424e-107
1.49862e-107
-2.65346e-104
3.49557e-104
-5.41972e-101
6.80549e-101
-9.18123e-98
1.0707e-97
-1.25359e-94
1.33814e-94
-1.35961e-91
1.32377e-91
-1.16941e-88
1.02186e-88
-7.8706e-86
6.13007e-86
-4.13485e-83
2.82676e-83
-1.67672e-80
9.96161e-81
-5.21754e-78
2.65939e-78
-1.23494e-75
5.31886e-76
-2.19767e-73
7.87502e-74
-2.90571e-71
8.49778e-72
-2.81022e-69
6.56018e-70
-1.95095e-67
3.55003e-68
-9.51906e-66
1.324e-66
-3.20424e-64
3.36199e-65
-7.3408e-63
5.54799e-64
-1.09991e-61
5.22099e-63
-9.53219e-61
2.38111e-62
-4.05659e-60
4.34767e-62
-6.9941e-60
2.38058e-62
-3.65557e-60
2.43832e-63
-3.52588e-61
6.84867e-65
-8.41087e-63
7.92635e-67
-6.228e-65
5.4616e-69
6.28549e-72
3.87493e-71
6.21333e-73
3.16881e-73
1.01856e-74
2.68345e-75
1.33645e-76
2.13194e-77
1.47978e-78
1.5086e-79
1.38093e-80
9.23871e-82
1.08119e-82
4.7901e-84
7.04965e-85
2.05483e-86
3.78174e-87
7.09381e-89
1.63989e-89
2.67604e-90
9.0667e-90
4.35824e-151
-8.67885e-148
1.26258e-145
-1.94715e-142
9.77393e-141
-4.98596e-137
9.90168e-137
-4.43881e-133
2.76566e-133
-9.79035e-130
4.63471e-130
-1.29032e-126
6.83916e-127
-1.55206e-123
1.08133e-123
-2.09257e-120
1.97514e-120
-3.37714e-117
4.23831e-117
-6.5607e-114
1.03577e-113
-1.4751e-110
2.73245e-110
-3.58458e-107
7.18636e-107
-8.60166e-104
1.72944e-103
-1.86361e-100
3.59226e-100
-3.44662e-97
6.22726e-97
-5.27523e-94
8.74477e-94
-6.50979e-91
9.78991e-91
-6.39266e-88
8.71258e-88
-4.98983e-85
6.07769e-85
-3.0569e-82
3.31461e-82
-1.46843e-79
1.3981e-79
-5.47246e-77
4.53756e-77
-1.57437e-74
1.12406e-74
-3.4693e-72
2.10225e-72
-5.79013e-70
2.93477e-70
-7.23745e-68
3.01208e-68
-6.67387e-66
2.23142e-66
-4.45634e-64
1.16904e-64
-2.10953e-62
4.25594e-63
-6.94513e-61
1.06377e-61
-1.56816e-59
1.75825e-60
-2.35181e-58
1.7052e-59
-2.09712e-57
8.2795e-59
-9.48577e-57
1.67358e-58
-1.80646e-56
1.06781e-58
-1.09563e-56
1.34231e-59
-1.27855e-57
4.71837e-61
-3.62069e-59
7.05027e-63
-2.94267e-61
6.95147e-65
3.04399e-67
7.61965e-67
1.97035e-68
8.90202e-69
4.39002e-70
1.01361e-70
7.6271e-72
1.05853e-72
1.1045e-73
9.78344e-75
1.34624e-75
7.80564e-77
1.37799e-77
5.25397e-79
1.17438e-79
2.90638e-81
8.21203e-82
1.29499e-83
4.67311e-84
7.17605e-84
1.51706e-83
4.51432e-147
-1.89523e-143
1.1992e-141
-3.83896e-138
8.09775e-137
-3.34104e-133
7.21798e-133
-2.51902e-129
1.90928e-129
-5.29383e-126
3.1051e-126
-6.82643e-123
4.48091e-123
-8.04834e-120
6.90103e-120
-1.05722e-116
1.20824e-116
-1.64493e-113
2.44635e-113
-3.04797e-110
5.59705e-110
-6.47042e-107
1.36983e-106
-1.46714e-103
3.30729e-103
-3.24159e-100
7.23553e-100
-6.39209e-97
1.35863e-96
-1.06917e-93
2.1233e-93
-1.47532e-90
2.68919e-90
-1.64139e-87
2.72198e-87
-1.45683e-84
2.19768e-84
-1.03084e-81
1.39676e-81
-5.74915e-79
6.97961e-79
-2.52749e-76
2.7131e-76
-8.66987e-74
8.16475e-74
-2.3095e-71
1.88804e-71
-4.74391e-69
3.31847e-69
-7.42995e-67
4.38596e-67
-8.77994e-65
4.29619e-65
-7.71622e-63
3.06352e-63
-4.95292e-61
1.5584e-61
-2.27386e-59
5.55487e-60
-7.32239e-58
1.37047e-58
-1.62996e-56
2.27185e-57
-2.44483e-55
2.27306e-56
-2.24094e-54
1.17716e-55
-1.0775e-53
2.6407e-55
-2.26957e-53
1.96876e-55
-1.60234e-53
3.02941e-56
-2.27844e-54
1.29544e-57
-7.71705e-56
2.31033e-59
-6.8078e-58
2.83804e-61
2.29476e-63
3.87708e-63
1.44876e-64
5.43565e-65
3.77984e-66
7.23795e-67
7.62679e-68
8.72639e-69
1.27377e-69
9.24211e-71
1.78327e-71
8.39388e-73
2.08866e-73
6.37855e-75
2.02641e-75
3.936e-77
1.60067e-77
2.13865e-79
1.13237e-79
1.04468e-78
1.45897e-78
1.8427e-143
-1.16056e-139
4.82855e-138
-2.13969e-134
2.99413e-133
-1.28899e-129
2.49188e-129
-8.56364e-126
6.41816e-126
-1.728e-122
1.02169e-122
-2.17898e-119
1.44082e-119
-2.51818e-116
2.15698e-116
-3.23717e-113
3.64333e-113
-4.89633e-110
7.06113e-110
-8.73605e-107
1.53373e-106
-1.76271e-103
3.52599e-103
-3.74268e-100
7.89291e-100
-7.60592e-97
1.58251e-96
-1.36034e-93
2.70542e-93
-2.04995e-90
3.83605e-90
-2.54091e-87
4.40654e-87
-2.53987e-84
4.05455e-84
-2.03221e-81
2.98421e-81
-1.30055e-78
1.73614e-78
-6.59327e-76
7.9822e-76
-2.64936e-73
2.87056e-73
-8.3579e-71
8.03701e-71
-2.05997e-68
1.73992e-68
-3.94142e-66
2.88104e-66
-5.78858e-64
3.61237e-64
-6.4609e-62
3.38284e-62
-5.40618e-60
2.32541e-60
-3.33245e-58
1.15023e-58
-1.48242e-56
4.0201e-57
-4.66624e-55
9.80114e-56
-1.02342e-53
1.62885e-54
-1.53242e-52
1.67944e-53
-1.44011e-51
9.27171e-53
-7.3479e-51
2.30845e-52
-1.71074e-50
2.01299e-52
-1.40777e-50
3.80335e-53
-2.46057e-51
1.97651e-54
-1.02068e-52
4.05819e-56
-9.96193e-55
5.82604e-58
6.93053e-60
9.11926e-60
4.57174e-61
1.43504e-61
1.32568e-62
2.11472e-63
2.95619e-64
2.79397e-65
5.42142e-66
3.21505e-67
8.28378e-68
3.1429e-69
1.05177e-69
2.53982e-71
1.09666e-71
1.63851e-73
9.19926e-74
1.37456e-75
1.02948e-75
2.83438e-74
2.68551e-74
4.72621e-140
-4.29774e-136
1.17573e-134
-7.13622e-131
6.49598e-130
-3.37672e-126
5.07854e-126
-2.03059e-122
1.28116e-122
-3.94446e-119
2.00638e-119
-4.90597e-116
2.77647e-116
-5.61824e-113
4.07003e-113
-7.11573e-110
6.70363e-110
-1.05768e-106
1.25881e-106
-1.83363e-103
2.62302e-103
-3.52522e-100
5.71272e-100
-6.97439e-97
1.19162e-96
-1.29125e-93
2.1965e-93
-2.07184e-90
3.42847e-90
-2.78585e-87
4.42246e-87
-3.07792e-84
4.61856e-84
-2.74641e-81
3.87293e-81
-1.97155e-78
2.60399e-78
-1.13639e-75
1.38969e-75
-5.22043e-73
5.88871e-73
-1.91188e-70
1.96233e-70
-5.53461e-68
5.11816e-68
-1.25965e-65
1.03845e-65
-2.24106e-63
1.62132e-63
-3.08137e-61
1.92965e-61
-3.24322e-59
1.72818e-59
-2.57947e-57
1.14541e-57
-1.52437e-55
5.50943e-56
-6.55992e-54
1.88829e-54
-2.01548e-52
4.54931e-53
-4.34984e-51
7.56812e-52
-6.48598e-50
8.02121e-51
-6.22672e-49
4.71129e-50
-3.3612e-48
1.30014e-49
-8.63241e-48
1.32569e-49
-8.27647e-48
3.09267e-50
-1.79191e-48
1.98539e-51
-9.39095e-50
4.65897e-53
-1.05316e-51
7.51544e-55
1.15762e-56
1.30647e-56
8.30886e-58
2.25196e-58
2.63765e-59
3.59493e-60
6.38641e-61
5.09769e-62
1.26229e-62
6.23769e-64
2.06359e-64
6.41322e-66
2.77986e-66
5.37166e-68
3.04236e-68
3.51696e-70
2.63943e-70
5.89641e-72
6.08514e-72
2.46752e-70
1.60544e-70
7.10874e-137
-1.10897e-132
1.6641e-131
-1.65972e-127
8.63307e-127
-6.60887e-123
6.55256e-123
-3.65174e-119
1.63505e-119
-6.89562e-116
2.55115e-116
-8.54329e-113
3.51315e-113
-9.82924e-110
5.09701e-110
-1.25539e-106
8.32318e-107
-1.87931e-103
1.54179e-103
-3.23543e-100
3.12546e-100
-5.98356e-97
6.50068e-97
-1.07957e-93
1.26801e-93
-1.7813e-90
2.15148e-90
-2.5082e-87
3.06965e-87
-2.95217e-84
3.60763e-84
-2.86556e-81
3.42959e-81
-2.25675e-78
2.62519e-78
-1.44181e-75
1.61407e-75
-7.43614e-73
7.91045e-73
-3.08056e-70
3.09107e-70
-1.02386e-67
9.55015e-68
-2.71081e-65
2.32116e-65
-5.6807e-63
4.41454e-63
-9.3736e-61
6.499e-61
-1.20389e-58
7.34056e-59
-1.19225e-56
6.28415e-57
-8.99279e-55
4.01305e-55
-5.08331e-53
1.87559e-53
-2.11142e-51
6.29922e-52
-6.31883e-50
1.49861e-50
-1.33954e-48
2.4904e-49
-1.98333e-47
2.70402e-48
-1.9366e-46
1.68453e-47
-1.10142e-45
5.13965e-47
-3.10994e-45
6.11855e-47
-3.46648e-45
1.77171e-47
-9.34387e-46
1.44091e-48
-6.38296e-47
3.92e-50
-8.64457e-49
7.02388e-52
1.26888e-53
1.34454e-53
1.0343e-54
2.52273e-55
3.59733e-56
4.34037e-57
9.43453e-58
6.57482e-59
2.00322e-59
8.51382e-61
3.49047e-61
9.15665e-63
4.96676e-63
7.89624e-65
5.67532e-65
5.19835e-67
5.05809e-67
1.58453e-68
2.19816e-68
9.59966e-67
4.32227e-67
6.04114e-135
-2.2413e-129
3.63178e-129
-3.0369e-124
4.67574e-124
-1.04364e-119
4.19841e-120
-5.33559e-116
1.1041e-116
-9.84196e-113
1.76162e-113
-1.21959e-109
2.47092e-110
-1.42356e-106
3.70535e-107
-1.86626e-103
6.36628e-104
-2.87269e-100
1.24563e-100
-4.97276e-97
2.60925e-97
-8.93757e-94
5.31944e-94
-1.49835e-90
9.88357e-91
-2.1763e-87
1.55941e-87
-2.62913e-84
2.04526e-84
-2.63825e-81
2.19964e-81
-2.19964e-78
1.90902e-78
-1.50097e-75
1.33746e-75
-8.42099e-73
7.53176e-73
-3.84732e-70
3.39451e-70
-1.42695e-67
1.22383e-67
-4.27873e-65
3.50725e-65
-1.03145e-62
7.94429e-63
-1.98253e-60
1.41609e-60
-3.02394e-58
1.96519e-58
-3.61728e-56
2.1052e-56
-3.36127e-54
1.72111e-54
-2.39764e-52
1.05772e-52
-1.29271e-50
4.79709e-51
-5.16813e-49
1.5767e-49
-1.50259e-47
3.69973e-48
-3.12165e-46
6.12713e-47
-4.57503e-45
6.78749e-46
-4.52071e-44
4.46654e-45
-2.69466e-43
1.50118e-44
-8.32514e-43
2.08013e-44
-1.07439e-42
7.49991e-45
-3.61133e-43
7.93471e-46
-3.29939e-44
2.57738e-47
-5.75261e-46
5.13039e-49
9.83193e-51
1.08468e-50
9.65367e-52
2.22625e-52
3.72175e-53
4.15265e-54
1.06602e-54
6.7633e-56
2.44972e-56
9.33136e-58
4.58272e-58
1.05724e-59
6.9385e-60
9.45263e-62
8.33884e-62
6.29563e-64
7.6899e-64
2.57514e-65
4.66805e-65
2.03694e-63
6.41379e-64
-1.67805e-125
-3.49308e-126
-7.52109e-121
-4.25349e-121
-3.4687e-117
-1.3789e-116
-5.93762e-114
-6.67553e-113
-7.75221e-111
-1.2198e-109
-1.03285e-107
-1.53826e-106
-1.46189e-104
-1.86134e-103
-2.02847e-101
-2.55803e-100
-2.22964e-98
-4.12341e-97
-2.5329e-96
-7.23232e-94
5.56339e-95
-1.23032e-90
2.04982e-91
-1.85369e-87
4.6914e-88
-2.3434e-84
7.78542e-85
-2.43813e-81
9.95704e-82
-2.10002e-78
1.00996e-78
-1.47561e-75
8.1267e-76
-8.53626e-73
5.25935e-73
-4.12105e-70
2.72753e-70
-1.64297e-67
1.13465e-67
-5.39493e-65
3.78197e-65
-1.4474e-62
1.00673e-62
-3.1574e-60
2.1265e-60
-5.53832e-58
3.55301e-58
-7.77515e-56
4.64695e-56
-8.6313e-54
4.71821e-54
-7.50013e-52
3.67963e-52
-5.04253e-50
2.17313e-50
-2.58459e-48
9.54816e-49
-9.91297e-47
3.06615e-47
-2.79119e-45
7.08544e-46
-5.6667e-44
1.16638e-44
-8.1922e-43
1.31208e-43
-8.14524e-42
9.07339e-43
-5.0554e-41
3.34261e-42
-1.69826e-40
5.36558e-42
-2.52208e-40
2.40894e-42
-1.05496e-40
3.38798e-43
-1.31076e-41
1.37669e-44
-3.16352e-43
3.07212e-46
5.48558e-48
7.24577e-48
7.14066e-49
1.64417e-49
3.10823e-50
3.36306e-51
9.85829e-52
5.96177e-53
2.48415e-53
8.88199e-55
5.05652e-55
1.07578e-56
8.26253e-57
1.01353e-58
1.06059e-58
6.94993e-61
1.02895e-60
2.78313e-62
6.36854e-62
2.71435e-60
6.09971e-61
-5.82078e-122
-3.79584e-123
-2.26123e-117
-4.42827e-118
-1.24684e-113
-1.55951e-113
-2.79851e-110
-7.38455e-110
-4.49164e-107
-1.35811e-106
-6.68722e-104
-1.77327e-103
-1.034e-100
-2.2724e-100
-1.67937e-97
-3.30101e-97
-2.67493e-94
-5.45603e-94
-3.76344e-91
-9.3572e-91
-4.24225e-88
-1.48713e-87
-3.44667e-85
-2.01663e-84
-1.57525e-82
-2.24399e-81
4.99004e-83
-2.02398e-78
2.42815e-79
-1.47612e-75
3.05644e-76
-8.77502e-73
2.52521e-73
-4.33014e-70
1.57675e-70
-1.76313e-67
7.69597e-68
-6.02381e-65
2.98973e-65
-1.72143e-62
9.27532e-63
-4.08287e-60
2.30295e-60
-7.98878e-58
4.54665e-58
-1.27004e-55
7.12787e-56
-1.63191e-53
8.78903e-54
-1.67361e-51
8.45506e-52
-1.35442e-49
6.28398e-50
-8.5495e-48
3.56133e-48
-4.15013e-46
1.51323e-46
-1.52129e-44
4.73845e-45
-4.13298e-43
1.07632e-43
-8.17165e-42
1.75626e-42
-1.16081e-40
1.99573e-41
-1.15407e-39
1.4412e-40
-7.40087e-39
5.7829e-40
-2.68229e-38
1.06829e-39
-4.54737e-38
5.95211e-40
-2.35385e-38
1.12745e-40
-4.00261e-39
6.07546e-42
-1.42871e-40
1.54113e-43
2.04907e-45
4.10688e-45
4.28597e-46
1.0437e-46
2.15523e-47
2.37433e-48
7.69884e-49
4.65406e-50
2.16275e-50
7.62015e-52
4.87396e-52
1.0064e-53
8.7581e-54
1.02205e-55
1.22589e-55
7.40825e-58
1.28075e-57
2.19408e-59
6.08122e-59
2.51958e-57
4.19483e-58
-1.38752e-118
-2.88433e-121
-4.58066e-114
-1.86205e-115
-2.53872e-110
-1.49355e-110
-6.04806e-107
-7.24089e-107
-1.04128e-103
-1.36374e-103
-1.65939e-100
-1.86415e-100
-2.68771e-97
-2.54266e-97
-4.41095e-94
-3.86991e-94
-6.85736e-91
-6.34347e-91
-9.28095e-88
-1.02731e-87
-1.0236e-84
-1.50097e-84
-8.85966e-82
-1.82852e-81
-5.85431e-79
-1.79833e-78
-2.81796e-76
-1.41794e-75
-8.65897e-74
-8.99657e-73
-4.86325e-72
-4.63175e-70
3.66869e-71
-1.94494e-67
3.13162e-68
-6.73485e-65
1.6087e-65
-1.9639e-62
6.10225e-63
-4.78714e-60
1.80133e-60
-9.87212e-58
4.22101e-58
-1.71012e-55
7.8387e-56
-2.43983e-53
1.15695e-53
-2.84798e-51
1.34733e-51
-2.68279e-49
1.2287e-49
-2.01213e-47
8.69871e-48
-1.18706e-45
4.72519e-46
-5.43354e-44
1.93823e-44
-1.89538e-42
5.90541e-43
-4.94707e-41
1.31553e-41
-9.48676e-40
2.12139e-40
-1.31849e-38
2.42139e-39
-1.30201e-37
1.81262e-38
-8.55131e-37
7.86099e-38
-3.31286e-36
1.65727e-37
-6.34852e-36
1.13812e-37
-4.03051e-36
2.91279e-38
-9.34727e-37
2.20146e-39
-5.14738e-38
6.56645e-41
3.1468e-43
1.9838e-42
2.09233e-43
5.70567e-44
1.24498e-44
1.46752e-45
5.10959e-46
3.24391e-47
1.63347e-47
5.96636e-49
4.16427e-49
8.80287e-51
8.41864e-51
9.90368e-53
1.31718e-52
7.83813e-55
1.52383e-54
1.42051e-56
4.5553e-56
1.73123e-54
2.26425e-55
-2.91325e-115
8.75152e-120
-7.99639e-111
4.84246e-115
-4.31201e-107
-9.84911e-108
-1.07451e-103
-5.6449e-104
-1.98837e-100
-1.08331e-100
-3.39305e-97
-1.48629e-97
-5.6179e-94
-2.06557e-94
-8.75692e-91
-3.27171e-91
-1.23526e-87
-5.48093e-88
-1.50276e-84
-8.56077e-85
-1.49047e-81
-1.1592e-81
-1.17464e-78
-1.29426e-78
-7.27989e-76
-1.14777e-75
-3.52022e-73
-8.08054e-73
-1.30853e-70
-4.54325e-70
-3.57147e-68
-2.0559e-67
-6.1909e-66
-7.55437e-65
-1.03366e-64
-2.28114e-62
1.75547e-63
-5.69766e-60
8.64657e-61
-1.19099e-57
2.65891e-58
-2.10265e-55
6.10534e-56
-3.16958e-53
1.08574e-53
-3.99977e-51
1.52273e-51
-4.1971e-49
1.68332e-49
-3.60406e-47
1.45878e-47
-2.48981e-45
9.84378e-46
-1.3654e-43
5.12215e-44
-5.86384e-42
2.02512e-42
-1.93703e-40
5.99e-41
-4.83341e-39
1.30525e-39
-8.94688e-38
2.07348e-38
-1.21078e-36
2.36333e-37
-1.17938e-35
1.81876e-36
-7.85632e-35
8.4478e-36
-3.21865e-34
2.01198e-35
-6.89125e-34
1.68627e-35
-5.30299e-34
5.7964e-36
-1.65784e-34
6.37576e-37
-1.42327e-35
2.32589e-38
-4.95123e-38
7.97328e-40
8.07228e-41
2.64479e-41
5.90535e-42
7.88337e-43
2.86721e-43
2.01671e-44
1.07184e-44
4.27671e-46
3.17211e-46
7.23983e-48
7.40046e-48
9.28645e-50
1.3285e-49
8.29867e-52
1.75123e-51
9.0032e-54
3.19081e-53
9.13467e-52
1.01249e-52
-5.56183e-112
3.61151e-116
-1.25976e-107
1.9864e-111
-6.48669e-104
1.23654e-108
-1.65914e-100
-2.22543e-101
-3.21543e-97
-4.43835e-98
-5.63682e-94
-5.0967e-95
-9.12999e-91
-6.70326e-92
-1.31807e-87
-1.38336e-88
-1.64383e-84
-2.95042e-85
-1.7484e-81
-5.06242e-82
-1.54085e-78
-6.6822e-79
-1.0864e-75
-6.96366e-76
-6.09531e-73
-5.67027e-73
-2.71541e-70
-3.6163e-70
-9.57242e-68
-1.82969e-67
-2.64939e-65
-7.4267e-65
-5.65535e-63
-2.44053e-62
-8.75323e-61
-6.54142e-60
-7.76389e-59
-1.44006e-57
2.63804e-59
-2.63141e-55
2.41441e-56
-4.0101e-53
6.49028e-54
-5.20521e-51
1.17436e-51
-5.70629e-49
1.60693e-49
-5.30161e-47
1.70859e-47
-4.10604e-45
1.41636e-45
-2.59191e-43
9.13597e-44
-1.31256e-41
4.55642e-42
-5.25767e-40
1.73463e-40
-1.63561e-38
4.9704e-39
-3.88038e-37
1.05653e-37
-6.89589e-36
1.64793e-36
-9.03921e-35
1.8646e-35
-8.6241e-34
1.46187e-34
-5.76621e-33
7.19682e-34
-2.46805e-32
1.91369e-33
-5.82564e-32
1.93312e-33
-5.35724e-32
8.80857e-34
-2.21838e-32
1.42397e-34
-2.91975e-33
6.64908e-36
-3.89239e-35
2.60149e-37
2.37588e-38
1.02242e-38
2.26309e-39
3.63566e-40
1.34644e-40
1.10463e-41
6.05215e-42
2.76458e-43
2.12893e-43
5.49146e-45
5.85666e-45
8.22317e-47
1.2325e-46
8.53348e-49
1.89538e-48
6.83204e-51
2.5679e-50
3.81777e-49
3.88606e-50
-8.96119e-109
9.39033e-113
-1.76265e-104
4.61574e-108
-8.6131e-101
1.72604e-104
-2.23973e-97
2.56555e-101
-4.46162e-94
4.66246e-98
-7.73717e-91
9.1281e-95
-1.17155e-87
1.32388e-91
-1.51725e-84
1.0823e-88
-1.67238e-81
-2.57805e-83
-1.53665e-78
-1.75235e-79
-1.18407e-75
-2.76166e-76
-7.42121e-73
-2.82687e-73
-3.73269e-70
-2.16678e-70
-1.50738e-67
-1.27236e-67
-4.88966e-65
-5.85675e-65
-1.27171e-62
-2.151e-62
-2.63507e-60
-6.38109e-60
-4.28742e-58
-1.54246e-57
-5.3086e-56
-3.05682e-55
-4.49059e-54
-4.98829e-53
-1.3663e-52
-6.7322e-51
3.34379e-52
-7.61346e-49
8.87645e-50
-7.22983e-47
1.30395e-47
-5.83746e-45
1.38413e-45
-4.01507e-43
1.11623e-43
-2.29029e-41
6.93614e-42
-1.06199e-39
3.3258e-40
-3.93975e-38
1.21957e-38
-1.14697e-36
3.38026e-37
-2.57149e-35
6.9909e-36
-4.36104e-34
1.06711e-34
-5.50499e-33
1.19181e-33
-5.10775e-32
9.42879e-33
-3.39076e-31
4.86278e-32
-1.49603e-30
1.42475e-31
-3.83592e-30
1.70987e-31
-4.14889e-30
1.01441e-31
-2.22756e-30
2.37634e-32
-4.34383e-31
1.65805e-33
-1.47839e-32
7.81151e-35
5.90814e-36
3.70054e-36
7.86047e-37
1.56723e-37
5.77175e-38
5.61913e-39
3.10845e-39
1.65188e-40
1.29471e-40
3.84866e-42
4.19706e-42
6.76314e-44
1.03927e-43
8.25197e-46
1.88125e-45
6.40003e-48
2.46672e-47
1.29381e-46
1.29588e-47
-1.21737e-105
1.83475e-109
-2.13562e-101
7.95772e-105
-1.00915e-97
3.68014e-101
-2.63544e-94
8.16069e-98
-5.22498e-91
1.52816e-94
-8.68549e-88
2.54439e-91
-1.2114e-84
3.45991e-88
-1.39577e-81
3.49057e-85
-1.32462e-78
2.20128e-82
-1.0588e-75
1.69366e-80
-7.03497e-73
-6.80908e-74
-3.89751e-70
-8.43253e-71
-1.75115e-67
-6.35115e-68
-6.36576e-65
-3.51963e-65
-1.87626e-62
-1.49479e-62
-4.48713e-60
-5.01313e-60
-8.6914e-58
-1.35157e-57
-1.35555e-55
-2.96293e-55
-1.68076e-53
-5.32105e-53
-1.61419e-51
-7.86548e-51
-1.13385e-49
-9.59639e-49
-4.48859e-48
-9.68127e-47
1.83283e-48
-8.11776e-45
6.91146e-46
-5.7038e-43
8.46636e-44
-3.41806e-41
6.97429e-42
-1.7341e-39
4.26036e-40
-7.27919e-38
1.98111e-38
-2.47888e-36
7.01983e-37
-6.70424e-35
1.882e-35
-1.41094e-33
3.77943e-34
-2.2685e-32
5.62837e-33
-2.73999e-31
6.17204e-32
-2.45448e-30
4.87999e-31
-1.60009e-29
2.60359e-30
-7.17322e-29
8.28584e-30
-1.96613e-28
1.16307e-29
-2.45867e-28
8.79771e-30
-1.67168e-28
2.89964e-30
-4.62767e-29
3.37215e-31
-3.39281e-30
1.95587e-32
1.06106e-33
1.10881e-33
2.18226e-34
5.55713e-35
1.99017e-35
2.35705e-36
1.29262e-36
8.2261e-38
6.45298e-38
2.28591e-39
2.50731e-39
4.8159e-41
7.45786e-41
7.08982e-43
1.62719e-42
6.32356e-45
2.43771e-44
3.64676e-44
3.77065e-45
-1.39758e-102
2.82732e-106
-2.23535e-98
1.0911e-101
-1.02252e-94
5.32239e-98
-2.63212e-91
1.27811e-94
-5.04162e-88
2.36427e-91
-7.82155e-85
3.67475e-88
-9.88856e-82
4.64079e-85
-1.01508e-78
4.50663e-82
-8.46407e-76
3.15742e-79
-5.78579e-73
1.36358e-76
-3.34279e-70
4.4463e-75
-1.61322e-67
-1.60143e-68
-6.46663e-65
-1.39677e-65
-2.11114e-62
-7.58978e-63
-5.62565e-60
-3.03759e-60
-1.22578e-57
-9.41461e-58
-2.18401e-55
-2.32476e-55
-3.17441e-53
-4.64747e-53
-3.74155e-51
-7.59502e-51
-3.53427e-49
-1.02065e-48
-2.61547e-47
-1.1316e-46
-1.4467e-45
-1.03658e-44
-5.13702e-44
-7.84565e-43
-1.26716e-43
-4.90831e-41
3.11149e-42
-2.57301e-39
3.22561e-40
-1.13852e-37
2.05791e-38
-4.25786e-36
9.49812e-37
-1.31547e-34
3.28316e-35
-3.27576e-33
8.54023e-34
-6.42259e-32
1.66445e-32
-9.71907e-31
2.4123e-31
-1.11538e-29
2.58533e-30
-9.57504e-29
2.02425e-29
-6.06414e-28
1.10264e-28
-2.72108e-27
3.75427e-28
-7.83719e-27
6.06329e-28
-1.11287e-26
5.71773e-28
-9.34642e-27
2.55483e-28
-3.50923e-27
4.94049e-29
-4.84254e-28
3.56013e-30
9.73114e-32
2.49472e-31
4.36489e-32
1.55049e-32
5.2818e-33
8.1746e-34
4.37122e-34
3.54603e-35
2.74458e-35
1.22342e-36
1.33183e-36
3.19827e-38
4.92576e-38
5.85346e-40
1.33367e-39
6.46422e-42
2.45139e-41
8.67496e-42
9.50607e-43
-1.38014e-99
3.56446e-103
-2.05421e-95
1.24338e-98
-9.15051e-92
6.12725e-95
-2.29902e-88
1.50658e-91
-4.15137e-85
2.71931e-88
-5.8383e-82
3.92485e-85
-6.53004e-79
4.48529e-82
-5.88505e-76
3.95664e-79
-4.31225e-73
2.63398e-76
-2.58277e-70
1.25748e-73
-1.2803e-67
3.56201e-71
-5.39374e-65
-4.93209e-67
-1.91162e-62
-2.09078e-63
-5.60142e-60
-1.24576e-60
-1.347e-57
-4.87192e-58
-2.66361e-55
-1.42059e-55
-4.33466e-53
-3.24573e-53
-5.79978e-51
-5.95613e-51
-6.35969e-49
-8.89825e-49
-5.67828e-47
-1.09075e-46
-4.08045e-45
-1.10181e-44
-2.31057e-43
-9.19013e-43
-9.88024e-42
-6.33117e-41
-2.87179e-40
-3.59886e-39
-2.66416e-39
-1.68612e-37
8.15295e-39
-6.56984e-36
7.21778e-37
-2.14694e-34
3.54967e-35
-5.91976e-33
1.22799e-33
-1.34148e-31
3.13002e-32
-2.4286e-30
5.93595e-31
-3.43159e-29
8.3642e-30
-3.71326e-28
8.73013e-29
-3.03125e-27
6.71426e-28
-1.84582e-26
3.68524e-27
-8.16503e-26
1.32136e-26
-2.42682e-25
2.41431e-26
-3.84033e-25
2.77324e-26
-3.88305e-25
1.61482e-26
-1.88974e-25
4.93474e-27
-4.37e-26
4.8332e-28
-2.67236e-28
4.37678e-29
6.44449e-30
3.57132e-30
1.13044e-30
2.43495e-31
1.24991e-31
1.34142e-32
1.01179e-32
5.80226e-34
6.20224e-34
1.88867e-35
2.86479e-35
4.30147e-37
9.63837e-37
5.95259e-39
2.19945e-38
2.11409e-39
2.47876e-40
-1.24996e-96
3.89169e-100
-1.80613e-92
1.27173e-95
-8.07761e-89
6.40906e-92
-1.9868e-85
1.62671e-88
-3.28303e-82
2.87231e-85
-3.9648e-79
3.76215e-82
-3.72552e-76
3.68977e-79
-2.83571e-73
2.77633e-76
-1.78283e-70
1.62637e-73
-9.31519e-68
7.32452e-71
-4.04856e-65
2.37794e-68
-1.47557e-62
4.26055e-66
-4.5838e-60
-1.19834e-61
-1.20318e-57
-1.46292e-58
-2.60965e-55
-6.03065e-56
-4.67532e-53
-1.70649e-53
-6.92572e-51
-3.66265e-51
-8.48001e-49
-6.22381e-49
-8.56489e-47
-8.54791e-47
-7.10599e-45
-9.59417e-45
-4.80843e-43
-8.85318e-43
-2.62269e-41
-6.73594e-41
-1.12997e-39
-4.22925e-39
-3.69891e-38
-2.1898e-37
-8.40869e-37
-9.33395e-36
-8.08881e-36
-3.26865e-34
1.25922e-35
-9.4423e-33
9.46889e-34
-2.27799e-31
3.5484e-32
-4.62039e-30
9.10587e-31
-7.63661e-29
1.69686e-29
-9.98513e-28
2.32989e-28
-1.01031e-26
2.36437e-27
-7.77898e-26
1.7747e-26
-4.50925e-25
9.69251e-26
-1.93723e-24
3.60112e-25
-5.83124e-24
7.31762e-25
-1.00857e-23
1.00016e-24
-1.19598e-23
7.29731e-25
-7.22048e-24
3.29846e-25
-2.54465e-24
5.98158e-26
-2.06398e-25
7.03189e-27
8.00773e-28
7.24535e-28
2.07451e-28
6.07946e-29
2.94957e-29
4.08327e-30
2.96843e-30
2.15306e-31
2.24051e-31
8.58416e-33
1.27341e-32
2.41559e-34
5.29267e-34
4.1951e-36
1.50402e-35
6.71157e-37
8.4061e-38
-1.07501e-93
3.82896e-97
-1.55031e-89
1.21729e-92
-6.87315e-86
6.34459e-89
-1.58139e-82
1.62423e-85
-2.29391e-79
2.68081e-82
-2.34822e-76
3.06649e-79
-1.83899e-73
2.54922e-76
-1.16545e-70
1.61481e-73
-6.16947e-68
8.07814e-71
-2.76244e-65
3.22725e-68
-1.04724e-62
1.00692e-65
-3.35103e-60
2.25e-63
-9.09811e-58
2.40152e-61
-2.10963e-55
-8.87325e-57
-4.12523e-53
-5.48078e-54
-6.69055e-51
-1.59817e-51
-9.00552e-49
-3.30763e-49
-1.00581e-46
-5.27328e-47
-9.30732e-45
-6.70894e-45
-7.11358e-43
-6.92802e-43
-4.46788e-41
-5.85806e-41
-2.28816e-39
-4.07362e-39
-9.44118e-38
-2.33357e-37
-3.07693e-36
-1.10112e-35
-7.6327e-35
-4.27403e-34
-1.32401e-33
-1.36158e-32
-1.08238e-32
-3.55033e-31
1.16285e-32
-7.58026e-30
7.21774e-31
-1.34692e-28
2.02874e-29
-1.99995e-27
3.81878e-28
-2.39365e-26
5.15776e-27
-2.24395e-25
5.09745e-26
-1.61537e-24
3.71925e-25
-8.82766e-24
1.999e-24
-3.63144e-23
7.57343e-24
-1.08618e-22
1.68249e-23
-2.01272e-22
2.67256e-23
-2.72453e-22
2.35228e-23
-1.95627e-22
1.47777e-23
-9.75622e-23
5.40826e-24
-2.14391e-23
7.99677e-25
5.99292e-26
1.01372e-25
2.53809e-26
1.05342e-26
4.7511e-27
8.84267e-28
6.13153e-28
5.86932e-29
5.90361e-29
2.96377e-30
4.27899e-30
1.06432e-31
2.2739e-31
2.39217e-33
8.32192e-33
2.64974e-34
3.51315e-35
-8.34141e-91
3.37022e-94
-1.16004e-86
1.04028e-89
-4.83163e-83
5.36601e-86
-1.00774e-79
1.30584e-82
-1.29263e-76
1.95264e-79
-1.14762e-73
1.9684e-76
-7.6628e-71
1.41958e-73
-4.08847e-68
7.7231e-71
-1.8176e-65
3.30957e-68
-6.89345e-63
1.14788e-65
-2.24806e-60
3.23277e-63
-6.28932e-58
7.15723e-61
-1.50056e-55
1.11206e-58
-3.06429e-53
6.21801e-57
-5.35063e-51
-2.95608e-52
-7.85093e-49
-1.11267e-49
-9.59113e-47
-2.34208e-47
-9.7516e-45
-3.58381e-45
-8.24039e-43
-4.27298e-43
-5.77235e-41
-4.08695e-41
-3.33838e-39
-3.17948e-39
-1.58478e-37
-2.02566e-37
-6.12405e-36
-1.06012e-35
-1.90284e-34
-4.56088e-34
-4.66106e-33
-1.61184e-32
-8.67917e-32
-4.67078e-31
-1.1297e-30
-1.10691e-29
-7.2251e-30
-2.13841e-28
6.4621e-30
-3.36067e-27
3.15152e-28
-4.3789e-26
6.52892e-27
-4.72588e-25
8.91183e-26
-4.06172e-24
8.6516e-25
-2.70787e-23
6.13527e-24
-1.3816e-22
3.21832e-23
-5.37174e-22
1.22474e-22
-1.56734e-21
2.92464e-22
-3.04825e-21
5.27192e-22
-4.57964e-21
5.39643e-22
-3.75511e-21
4.4761e-22
-2.50443e-21
2.782e-22
-1.01175e-21
5.6694e-23
1.71758e-24
1.00379e-23
2.09535e-24
1.42754e-24
5.87063e-25
1.6028e-25
1.04889e-25
1.40286e-26
1.35552e-26
9.31552e-28
1.3049e-27
4.44701e-29
9.26116e-29
1.36722e-30
4.63121e-30
1.58979e-31
2.19966e-32
-5.15616e-88
2.3982e-91
-6.71014e-84
7.02887e-87
-2.58054e-80
3.46101e-83
-4.90327e-77
7.84343e-80
-5.67043e-74
1.06801e-76
-4.48914e-71
9.68429e-74
-2.63199e-68
6.23078e-71
-1.21193e-65
2.99328e-68
-4.58588e-63
1.12122e-65
-1.47305e-60
3.38747e-63
-4.0917e-58
8.41503e-61
-9.88089e-56
1.71287e-58
-2.0657e-53
2.73995e-56
-3.70893e-51
2.97898e-54
-5.73238e-49
6.11126e-53
-7.58138e-47
-4.94621e-48
-8.39759e-45
-1.24261e-45
-7.76051e-43
-1.91377e-43
-5.97454e-41
-2.18249e-41
-3.82239e-39
-1.95387e-39
-2.0251e-37
-1.40684e-37
-8.8421e-36
-8.24009e-36
-3.16136e-34
-3.94708e-34
-9.17478e-33
-1.54944e-32
-2.13431e-31
-4.98499e-31
-3.90152e-30
-1.31289e-29
-5.40318e-29
-2.82466e-28
-5.20431e-28
-4.95054e-27
-2.47015e-27
-7.04269e-26
2.15349e-27
-8.10365e-25
7.74936e-26
-7.69144e-24
1.16144e-24
-5.9792e-23
1.13582e-23
-3.65345e-22
7.88283e-23
-1.72328e-21
4.02037e-22
-6.25871e-21
1.51737e-21
-1.75137e-20
3.83117e-21
-3.50091e-20
7.64768e-21
-5.66627e-20
8.78933e-21
-5.10412e-20
9.24988e-21
-4.35771e-20
8.31088e-21
-2.61602e-20
3.02748e-21
-1.86526e-21
7.43257e-22
1.19792e-22
1.40169e-22
5.12848e-23
2.07174e-23
1.26477e-23
2.45586e-24
2.26696e-24
2.35768e-25
3.1992e-25
1.80096e-26
3.66273e-26
9.93366e-28
3.29742e-27
2.05028e-28
2.9061e-29
-2.36547e-85
1.27124e-88
-2.86421e-81
3.50668e-84
-1.01935e-77
1.63212e-80
-1.78408e-74
3.44516e-77
-1.89293e-71
4.31995e-74
-1.36562e-68
3.58819e-71
-7.217e-66
2.10504e-68
-2.95071e-63
9.15718e-66
-9.74625e-61
3.07594e-63
-2.69306e-58
8.25245e-61
-6.38932e-56
1.81407e-58
-1.3217e-53
3.30892e-56
-2.39373e-51
4.96427e-54
-3.77637e-49
5.8265e-52
-5.14169e-47
4.46851e-50
-6.04239e-45
-8.40305e-48
-6.05693e-43
-4.36001e-44
-5.07986e-41
-7.684e-42
-3.55571e-39
-8.7511e-40
-2.07191e-37
-7.47312e-38
-1.00169e-35
-5.02898e-36
-4.0009e-34
-2.7226e-34
-1.31312e-32
-1.19717e-32
-3.5171e-31
-4.29374e-31
-7.61835e-30
-1.25783e-29
-1.31755e-28
-3.00861e-28
-1.78287e-27
-5.86762e-27
-1.81801e-26
-9.31011e-26
-1.27695e-25
-1.19823e-24
-4.27367e-25
-1.24593e-23
4.23331e-25
-1.0418e-22
1.052e-23
-7.14355e-22
1.11797e-22
-3.95327e-21
7.76487e-22
-1.70661e-20
3.86478e-21
-5.72902e-20
1.43469e-20
-1.51535e-19
3.77185e-20
-3.04895e-19
8.12957e-20
-5.15026e-19
1.01464e-19
-4.91903e-19
1.31367e-19
-5.18851e-19
1.51231e-19
-4.08445e-19
1.02555e-19
-1.17667e-19
3.35442e-20
3.59548e-21
9.14061e-21
2.8766e-21
2.17598e-21
1.22248e-21
4.64829e-22
4.07734e-22
8.58595e-23
1.12839e-22
1.2359e-23
2.46437e-23
1.17222e-24
3.84839e-24
3.69246e-25
5.24077e-26
-7.78105e-83
4.80962e-86
-8.81194e-79
1.25075e-81
-2.92837e-75
5.51378e-78
-4.77927e-72
1.09231e-74
-4.72008e-69
1.27702e-71
-3.15776e-66
9.86269e-69
-1.53711e-63
5.36949e-66
-5.72738e-61
2.15983e-63
-1.69904e-58
6.66468e-61
-4.14516e-56
1.62739e-58
-8.5468e-54
3.22507e-56
-1.52159e-51
5.28364e-54
-2.37093e-49
7.21012e-52
-3.24674e-47
8.09325e-50
-3.88834e-45
7.06307e-48
-4.0337e-43
3.87274e-46
-3.60405e-41
-3.08063e-43
-2.73737e-39
-2.06526e-40
-1.73833e-37
-2.63592e-38
-9.2016e-36
-2.23655e-36
-4.04611e-34
-1.43244e-34
-1.47193e-32
-7.23492e-33
-4.40869e-31
-2.93487e-31
-1.08088e-29
-9.64119e-30
-2.15369e-28
-2.57382e-28
-3.45528e-27
-5.5892e-27
-4.40522e-26
-9.86784e-26
-4.37012e-25
-1.41433e-24
-3.24161e-24
-1.6418e-23
-1.62982e-23
-1.53838e-22
-3.59045e-23
-1.1582e-21
4.75834e-23
-6.9692e-21
7.70377e-22
-3.41613e-20
5.7144e-21
-1.33618e-19
2.82582e-20
-4.10707e-19
1.03109e-19
-1.0152e-18
2.78659e-19
-2.0149e-18
6.3184e-19
-3.43671e-18
8.31239e-19
-3.37846e-18
1.29111e-18
-4.27498e-18
1.76417e-18
-4.03528e-18
1.68871e-18
-1.98356e-18
8.34709e-19
3.8582e-20
3.64153e-19
9.37298e-20
1.38968e-19
7.06389e-20
4.55603e-20
3.77742e-20
1.20294e-20
1.53321e-20
2.32575e-21
4.57504e-21
2.85102e-22
9.36896e-22
1.15892e-22
1.602e-23
-1.80936e-80
1.27826e-83
-1.93154e-76
3.15057e-79
-6.04973e-73
1.32228e-75
-9.30371e-70
2.47875e-72
-8.65188e-67
2.73061e-69
-5.4399e-64
1.98445e-66
-2.47919e-61
1.01623e-63
-8.59196e-59
3.84015e-61
-2.3468e-56
1.10943e-58
-5.1989e-54
2.52087e-56
-9.57181e-52
4.60938e-54
-1.49624e-49
6.90695e-52
-2.02168e-47
8.59008e-50
-2.39092e-45
8.8987e-48
-2.48673e-43