/*--------------------------------*- C++ -*----------------------------------*\
| =========                 |                                                 |
| \\      /  F ield         | OpenFOAM: The Open Source CFD Toolbox           |
|  \\    /   O peration     | Version:  2.4.0                                 |
|   \\  /    A nd           | Web:      www.OpenFOAM.org                      |
|    \\/     M anipulation  |                                                 |
\*---------------------------------------------------------------------------*/
FoamFile
{
    version     2.0;
    format      ascii;
    class       surfaceScalarField;
    location    "0.405";
    object      phiAlpha;
}
// * * * * * * * * * * * * * * * * * * * * * * * * * * * * * * * * * * * * * //

dimensions      [0 3 -1 0 0 0 0];

internalField   nonuniform List<scalar> 
19800
(
-9.78949e-60
8.68833e-64
-6.7641e-54
4.82528e-57
-9.4221e-51
1.35883e-53
-3.60489e-48
8.50704e-51
-5.32763e-46
1.96654e-48
-3.44969e-44
1.96928e-46
-1.09063e-42
9.13678e-45
-1.84612e-41
2.12638e-43
-1.82581e-40
2.66758e-42
-1.15773e-39
1.9291e-41
-5.8277e-39
8.57494e-41
-2.568e-38
2.74066e-40
-1.02435e-37
5.8402e-40
-3.96688e-37
-1.03193e-38
-1.49635e-36
-5.62022e-36
-5.6815e-36
-3.88071e-35
-2.13675e-35
-2.05455e-34
-7.44006e-35
-9.73006e-34
-2.31006e-34
-4.10604e-33
-6.26488e-34
-1.51445e-32
-1.46438e-33
-4.8572e-32
-2.87145e-33
-1.36681e-31
-4.39847e-33
-3.39503e-31
-4.12112e-33
-7.38616e-31
9.56706e-34
-1.38012e-30
1.0144e-32
-2.13678e-30
2.83824e-32
-2.55438e-30
5.51169e-32
-2.07476e-30
8.05932e-32
-4.68088e-33
8.2669e-32
1.5295e-32
5.0249e-32
2.78275e-32
8.18998e-33
2.94377e-32
-8.19801e-33
2.15435e-32
-8.69655e-33
1.21349e-32
-5.68533e-33
5.74249e-33
-3.10612e-33
2.48319e-33
-1.537e-33
1.04524e-33
-7.00464e-34
4.31199e-34
-2.96293e-34
1.69912e-34
-1.17301e-34
6.27443e-35
-4.09885e-35
2.15733e-35
-1.23093e-35
6.46585e-36
-3.38309e-36
1.63888e-36
-9.62689e-37
3.7308e-37
-2.38605e-37
8.60115e-38
-5.45753e-38
1.68041e-38
-2.79072e-38
2.9191e-39
-5.62488e-38
1.07171e-39
-1.36481e-37
1.40608e-39
1.78762e-39
-3.23417e-37
-8.90877e-53
3.08684e-56
-2.42793e-49
3.81456e-52
-1.34154e-46
4.14859e-49
-2.70749e-44
1.32842e-46
-2.47035e-42
1.77913e-44
-1.12871e-40
1.15155e-42
-2.78688e-39
3.86341e-41
-3.99438e-38
7.10404e-40
-3.55664e-37
7.55568e-39
-2.19533e-36
4.86764e-38
-1.12241e-35
2.04337e-37
-4.61968e-35
6.12297e-37
-1.68279e-34
8.74464e-37
-5.80675e-34
-4.40892e-34
-1.94668e-33
-4.52502e-33
-6.53535e-33
-2.4161e-32
-2.15816e-32
-1.10128e-31
-6.5811e-32
-4.63276e-31
-1.75388e-31
-1.77618e-30
-3.91263e-31
-5.99113e-30
-6.86539e-31
-1.76247e-29
-7.43535e-31
-4.56918e-29
2.2792e-31
-1.05401e-28
2.64569e-30
-2.15574e-28
9.60595e-30
-3.83978e-28
2.46907e-29
-5.76769e-28
4.97662e-29
-6.88719e-28
8.53299e-29
-5.80814e-28
1.24535e-28
-1.31982e-28
1.49431e-28
1.10998e-29
1.36885e-28
2.4678e-29
9.55981e-29
3.1154e-29
4.8171e-29
2.80728e-29
1.47581e-29
1.96423e-29
-2.90139e-31
1.14579e-29
-2.00013e-30
5.93439e-30
-1.67026e-30
2.85581e-30
-1.01861e-30
1.29943e-30
-5.29961e-31
5.57662e-31
-2.4248e-31
2.24065e-31
-9.64872e-32
8.2221e-32
-3.30433e-32
2.65895e-32
-1.03971e-32
7.40493e-33
-3.12358e-33
1.88089e-33
-8.23701e-34
4.49838e-34
-2.0026e-34
9.24194e-35
-9.71702e-35
1.69438e-35
-1.96678e-34
5.88619e-36
-5.2397e-34
7.78054e-36
1.10571e-35
-1.3708e-33
-1.49717e-49
1.17352e-52
-2.52169e-46
7.12437e-49
-9.86191e-44
5.23555e-46
-1.50224e-41
1.24409e-43
-1.08354e-39
1.29385e-41
-4.10117e-38
6.73578e-40
-8.78119e-37
1.89037e-38
-1.13721e-35
3.02454e-37
-9.57094e-35
2.89586e-36
-5.97831e-34
1.73822e-35
-2.93724e-33
7.11826e-35
-1.12799e-32
1.84011e-34
-3.7554e-32
1.01006e-34
-1.16372e-31
-1.24112e-31
-3.48122e-31
-8.07859e-31
-1.03711e-30
-3.63547e-30
-3.0007e-30
-1.46606e-29
-7.89218e-30
-5.55318e-29
-1.71989e-29
-1.94551e-28
-2.71314e-29
-6.05969e-28
-1.43236e-29
-1.6508e-27
4.10683e-29
-3.9727e-27
2.24271e-28
-8.56376e-27
7.52575e-28
-1.65413e-26
1.99018e-27
-2.81898e-26
4.38522e-27
-4.11507e-26
8.15645e-27
-4.8903e-26
1.31378e-26
-4.23124e-26
1.90244e-26
-1.59656e-26
2.40103e-26
1.1914e-27
2.48105e-26
3.25774e-27
2.09651e-26
4.66322e-27
1.44784e-26
4.83289e-27
8.02012e-27
3.93903e-27
3.46004e-27
2.67204e-27
1.03723e-27
1.59327e-27
5.92586e-29
8.70489e-28
-8.6958e-29
4.4271e-28
-7.95835e-29
2.09575e-28
-4.83117e-29
9.19228e-29
-2.33438e-29
3.65121e-29
-9.43147e-30
1.28092e-29
-3.4278e-30
3.92392e-30
-1.13211e-30
1.09933e-30
-3.2659e-31
2.80108e-31
-8.64417e-32
6.16123e-32
-4.17135e-32
1.21195e-32
-8.55883e-32
4.1494e-33
-2.48669e-31
5.5398e-33
8.63411e-33
-7.10549e-31
-3.90845e-47
5.20584e-50
-5.35516e-44
2.34696e-46
-1.75531e-41
1.40356e-43
-2.28747e-39
2.81649e-41
-1.43798e-37
2.52681e-39
-4.8404e-36
1.15369e-37
-9.44803e-35
2.88872e-36
-1.15063e-33
4.20933e-35
-9.48308e-33
3.7621e-34
-5.86498e-32
2.16845e-33
-2.74065e-31
8.36152e-33
-9.88737e-31
1.71908e-32
-3.01346e-30
-6.89388e-31
-8.39477e-30
-1.22588e-29
-2.22908e-29
-6.18659e-29
-5.79715e-29
-2.41074e-28
-1.4193e-28
-8.64084e-28
-2.95932e-28
-2.95599e-27
-4.06335e-28
-9.52232e-27
6.02824e-29
-2.75212e-26
1.41503e-27
-6.98773e-26
6.36102e-27
-1.57202e-25
2.05184e-26
-3.18412e-25
5.49927e-26
-5.83098e-25
1.27565e-25
-9.53531e-25
2.58575e-25
-1.35518e-24
4.57393e-25
-1.60061e-24
7.05532e-25
-1.42514e-24
1.00933e-24
-6.94073e-25
1.30059e-24
4.23456e-26
1.43984e-24
1.51277e-25
1.35008e-24
2.41267e-25
1.08208e-24
2.76926e-25
7.35865e-25
2.51982e-25
4.24393e-25
1.92152e-25
2.06809e-25
1.28837e-25
8.28153e-26
7.8635e-26
2.44263e-26
4.43339e-26
2.40841e-27
2.31686e-26
-1.36697e-27
1.1116e-26
-1.22975e-27
4.79253e-27
-6.74444e-28
1.82484e-27
-2.99417e-28
6.13377e-28
-1.13678e-28
1.87399e-28
-3.6919e-29
5.12501e-29
-1.08543e-29
1.2142e-29
-5.29973e-30
2.57646e-30
-1.08802e-29
8.75667e-31
-3.38749e-29
1.15703e-30
1.93033e-30
-1.03362e-28
-3.3484e-45
6.49381e-48
-4.18775e-42
2.56541e-44
-1.25693e-39
1.38619e-41
-1.50087e-37
2.541e-39
-8.65791e-36
2.09048e-37
-2.69317e-34
8.76777e-36
-4.93035e-33
2.0277e-34
-5.76161e-32
2.76017e-33
-4.68433e-31
2.34143e-32
-2.83604e-30
1.29638e-31
-1.26283e-29
4.54558e-31
-4.28512e-29
6.12669e-31
-1.19746e-28
-7.95301e-29
-2.98359e-28
-6.18598e-28
-6.86434e-28
-2.60097e-27
-1.48018e-27
-8.91498e-27
-2.73225e-27
-2.85685e-26
-2.86634e-27
-8.85264e-26
2.53693e-27
-2.62394e-25
2.20928e-26
-7.06522e-25
9.19621e-26
-1.68136e-24
2.90451e-25
-3.55573e-24
7.77683e-25
-6.79989e-24
1.84457e-24
-1.18482e-23
3.9276e-24
-1.86366e-23
7.49631e-24
-2.58198e-23
1.27497e-23
-3.02726e-23
1.91442e-23
-2.7765e-23
2.67433e-23
-1.5758e-23
3.46141e-23
6.09902e-25
4.00173e-23
3.42862e-24
4.02109e-23
6.07554e-24
3.54358e-23
7.5665e-24
2.72805e-23
7.47698e-24
1.83594e-23
6.21545e-24
1.084e-23
4.57021e-24
5.61298e-24
3.08389e-24
2.52235e-24
1.9316e-24
9.53625e-25
1.1144e-24
2.7467e-25
5.84456e-25
3.54614e-26
2.73962e-25
-8.11505e-27
1.13329e-25
-7.53646e-27
4.15681e-26
-3.89461e-27
1.37412e-26
-1.54116e-27
4.03867e-27
-5.23554e-28
1.03304e-27
-2.59476e-28
2.35986e-28
-5.11383e-28
7.79392e-29
-1.65981e-27
9.63086e-29
1.65658e-28
-5.23484e-27
-1.32701e-43
3.41245e-46
-1.61853e-40
1.29214e-42
-4.69298e-38
6.73658e-40
-5.35237e-36
1.1872e-37
-2.92055e-34
9.31097e-36
-8.58024e-33
3.68925e-34
-1.49736e-31
8.03833e-33
-1.70001e-30
1.03673e-31
-1.36221e-29
8.42101e-31
-7.94135e-29
4.43047e-30
-3.36782e-28
1.32945e-29
-1.06938e-27
2.94722e-30
-2.71305e-27
-3.39098e-27
-5.8811e-27
-1.87618e-26
-1.10433e-26
-6.84915e-26
-1.67861e-26
-2.09777e-25
-8.71443e-27
-6.03715e-25
3.15485e-26
-1.69405e-24
1.99348e-25
-4.62389e-24
8.0298e-25
-1.16321e-23
2.55065e-24
-2.60532e-23
6.8603e-24
-5.20239e-23
1.63718e-23
-9.4306e-23
3.55755e-23
-1.56822e-22
7.08662e-23
-2.37742e-22
1.28746e-22
-3.21411e-22
2.11616e-22
-3.73733e-22
3.12336e-22
-3.50297e-22
4.23704e-22
-2.21052e-22
5.43846e-22
1.78846e-24
6.45468e-22
4.46896e-23
6.81412e-22
8.88345e-23
6.42284e-22
1.18679e-22
5.39815e-22
1.24903e-22
4.04264e-22
1.10607e-22
2.70413e-22
8.73957e-23
1.61787e-22
6.43719e-23
8.64752e-23
4.44955e-23
4.11678e-23
2.83128e-23
1.72272e-23
1.62696e-23
6.13736e-24
8.32567e-24
1.74167e-24
3.7662e-24
3.20232e-25
1.51459e-24
-7.02937e-27
5.44911e-25
-1.69517e-26
1.73307e-25
-8.94256e-27
4.81109e-26
-4.95548e-27
1.18779e-26
-9.00675e-27
3.72324e-27
-2.96904e-26
3.8901e-27
6.50325e-27
-9.434e-26
-2.95461e-42
9.45519e-45
-3.68114e-39
3.64144e-41
-1.07087e-36
1.92217e-38
-1.19847e-34
3.38293e-36
-6.29306e-33
2.59726e-34
-1.76514e-31
9.88492e-33
-2.9566e-30
2.04985e-31
-3.26625e-29
2.51889e-30
-2.56424e-28
1.95451e-29
-1.41454e-27
9.56694e-29
-5.64114e-27
2.18252e-28
-1.63912e-26
-6.5724e-27
-3.63945e-26
-8.34645e-26
-6.35593e-26
-3.76938e-25
-7.58512e-26
-1.22865e-24
9.47209e-27
-3.40356e-24
2.54818e-25
-8.84261e-24
1.24169e-24
-2.25018e-23
4.70336e-24
-5.65164e-23
1.51073e-23
-1.33011e-22
4.16097e-23
-2.81245e-22
1.00555e-22
-5.32135e-22
2.20036e-22
-9.17169e-22
4.45387e-22
-1.45876e-21
8.3845e-22
-2.13409e-21
1.45886e-21
-2.81702e-21
2.32428e-21
-3.24725e-21
3.36723e-21
-3.09465e-21
4.45863e-21
-2.11628e-21
5.6301e-21
-3.61655e-22
6.76325e-21
3.66726e-22
7.38602e-21
8.37962e-22
7.32286e-21
1.19573e-21
6.58156e-21
1.32041e-21
5.35151e-21
1.21827e-21
3.93623e-21
1.01364e-21
2.61618e-21
8.08383e-22
1.56918e-21
6.17444e-22
8.51128e-22
4.33378e-22
4.17162e-22
2.722e-22
1.83609e-22
1.51431e-22
7.20518e-23
7.45092e-23
2.51409e-23
3.26602e-23
7.69911e-24
1.27686e-23
2.00343e-24
4.41221e-24
4.17592e-25
1.3341e-24
6.04547e-26
3.56351e-25
9.8582e-28
1.05928e-25
-4.6271e-26
8.51111e-26
1.30748e-25
-2.15275e-25
-4.18557e-41
1.58908e-43
-5.53601e-38
6.52702e-40
-1.66533e-35
3.63516e-37
-1.86109e-33
6.59506e-35
-9.48527e-32
5.04901e-33
-2.555e-30
1.86329e-31
-4.13568e-29
3.70176e-30
-4.42358e-28
4.36298e-29
-3.28481e-27
3.20449e-28
-1.67662e-26
1.37234e-27
-6.02438e-26
1.6334e-27
-1.51632e-25
-1.88092e-25
-2.61351e-25
-1.36324e-24
-2.24146e-25
-5.34382e-24
2.32525e-25
-1.5846e-23
1.65956e-24
-4.0193e-23
6.41488e-24
-9.50261e-23
2.11396e-23
-2.19725e-22
6.49515e-23
-5.07079e-22
1.82075e-22
-1.11658e-21
4.53265e-22
-2.23339e-21
1.00756e-21
-4.01472e-21
2.0513e-21
-6.59374e-21
3.90382e-21
-1.00425e-20
6.98565e-21
-1.41797e-20
1.1684e-20
-1.82679e-20
1.80843e-20
-2.08645e-20
2.57145e-20
-2.01635e-20
3.34432e-20
-1.47901e-20
4.14705e-20
-4.87395e-21
4.96595e-20
1.9756e-21
5.54065e-20
5.48681e-21
5.70551e-20
8.37985e-21
5.4067e-20
9.58687e-21
4.70085e-20
8.96983e-21
3.73886e-20
7.64798e-21
2.70514e-20
6.57613e-21
1.77304e-20
5.61731e-21
1.05707e-20
4.37424e-21
5.76102e-21
2.99852e-21
2.87376e-21
1.80599e-21
1.31463e-21
9.62039e-22
5.54308e-22
4.56988e-22
2.15339e-22
1.93437e-22
7.68621e-23
7.24347e-23
2.52418e-23
2.38013e-23
7.76657e-24
6.87703e-24
2.61177e-24
1.98699e-24
2.01794e-24
1.15602e-24
1.51085e-24
4.40098e-24
-4.08258e-40
1.76278e-42
-5.97581e-37
8.10194e-39
-1.91583e-34
4.97989e-36
-2.16683e-32
9.62384e-34
-1.08054e-30
7.46487e-32
-2.79155e-29
2.70034e-30
-4.30603e-28
5.14895e-29
-4.35021e-27
5.75448e-28
-2.88417e-26
3.88903e-27
-1.28438e-25
1.3038e-26
-3.80123e-25
-8.78227e-26
-6.57107e-25
-2.87263e-24
-6.87253e-26
-1.58724e-23
1.86214e-24
-5.57957e-23
9.02113e-24
-1.52834e-22
2.97909e-23
-3.59104e-22
8.51327e-23
-7.79855e-22
2.30359e-22
-1.64487e-21
6.12846e-22
-3.48362e-21
1.54658e-21
-7.17163e-21
3.54572e-21
-1.35844e-20
7.34173e-21
-2.32433e-20
1.4025e-20
-3.64266e-20
2.52284e-20
-5.31327e-20
4.30404e-20
-7.2318e-20
6.93137e-20
-9.07357e-20
1.04369e-19
-1.02484e-19
1.45822e-19
-1.00263e-19
1.88234e-19
-7.80052e-20
2.29107e-19
-3.48771e-20
2.70725e-19
6.80675e-21
3.0551e-19
2.63574e-20
3.2344e-19
4.36579e-20
3.19631e-19
5.12791e-20
2.93973e-19
4.67948e-20
2.50188e-19
3.89029e-20
1.94577e-19
3.61155e-20
1.37024e-19
3.56834e-20
8.80028e-20
3.12224e-20
5.2103e-20
2.33102e-20
2.86065e-20
1.51205e-20
1.46344e-20
8.67746e-21
6.99461e-21
4.44691e-21
3.11612e-21
2.0325e-21
1.28979e-21
8.23407e-22
4.95686e-22
2.93492e-22
1.78258e-22
9.17161e-23
6.47742e-23
2.66384e-23
3.85582e-23
1.12606e-23
1.11727e-23
6.62286e-23
-2.87514e-39
1.34172e-41
-4.98913e-36
7.36959e-38
-1.78992e-33
5.37883e-35
-2.07665e-31
1.16765e-32
-9.92495e-30
9.34919e-31
-2.39429e-28
3.26884e-29
-3.3546e-27
5.87536e-28
-2.92645e-26
5.99759e-27
-1.60233e-25
3.42328e-26
-5.2745e-25
7.15172e-26
-6.70154e-25
-2.97927e-24
9.97682e-25
-2.97945e-23
8.88443e-24
-1.3796e-22
3.81115e-23
-4.43683e-22
1.20103e-22
-1.13505e-21
3.17693e-22
-2.49588e-21
7.69774e-22
-5.03053e-21
1.80663e-21
-9.73946e-21
4.2623e-21
-1.89304e-20
9.81301e-21
-3.64004e-20
2.09196e-20
-6.53185e-20
4.06487e-20
-1.06499e-19
7.32375e-20
-1.5935e-19
1.2487e-19
-2.22418e-19
2.0324e-19
-2.91015e-19
3.14927e-19
-3.54013e-19
4.61046e-19
-3.93599e-19
6.33523e-19
-3.88662e-19
8.13588e-19
-3.18559e-19
9.81985e-19
-1.741e-19
1.14881e-18
1.07197e-20
1.30642e-18
9.6898e-20
1.41308e-18
1.80463e-19
1.44466e-18
2.18287e-19
1.39491e-18
1.83514e-19
1.26189e-18
1.32032e-19
1.04469e-18
1.34544e-19
7.78482e-19
1.67855e-19
5.29688e-19
1.68153e-19
3.35513e-19
1.35718e-19
1.99804e-19
9.39886e-20
1.12356e-19
5.77333e-20
5.95522e-20
3.17773e-20
2.9593e-20
1.56421e-20
1.37205e-20
6.84449e-21
5.92015e-21
2.6424e-21
2.38219e-21
8.9348e-22
9.25108e-22
2.69341e-22
4.47628e-22
9.04384e-23
5.99665e-23
5.21266e-22
-1.61715e-38
7.27394e-41
-3.92064e-35
5.5096e-37
-1.57388e-32
5.66537e-34
-1.69716e-30
1.39251e-31
-7.1336e-29
1.05452e-29
-1.49074e-27
3.32506e-28
-1.74731e-26
5.36536e-27
-1.13729e-25
4.81357e-26
-3.34115e-25
2.14484e-25
1.76779e-25
1.74551e-26
3.84263e-24
-3.39488e-23
2.64903e-23
-2.28946e-22
1.17069e-22
-9.26819e-22
3.84342e-22
-2.75785e-21
1.02926e-21
-6.63966e-21
2.40044e-21
-1.37794e-20
5.17959e-21
-2.60446e-20
1.08273e-20
-4.66768e-20
2.29207e-20
-8.34589e-20
4.84479e-20
-1.49845e-19
9.6539e-20
-2.54726e-19
1.76826e-19
-3.95924e-19
3.01399e-19
-5.65485e-19
4.87617e-19
-7.54098e-19
7.56204e-19
-9.44608e-19
1.12368e-18
-1.1064e-18
1.59336e-18
-1.20144e-18
2.14955e-18
-1.1911e-18
2.7506e-18
-1.02108e-18
3.34539e-18
-6.54237e-19
3.935e-18
-8.88503e-20
4.53949e-18
2.7726e-19
5.03317e-18
6.2776e-19
5.31833e-18
8.09042e-19
5.38056e-18
5.86472e-19
5.16509e-18
2.43568e-19
4.51529e-18
3.0217e-19
3.49548e-18
6.30379e-19
2.47159e-18
7.35452e-19
1.64978e-18
6.28467e-19
1.05354e-18
4.56909e-19
6.4366e-19
2.97143e-19
3.73422e-19
1.74444e-19
2.04003e-19
9.20456e-20
1.04294e-19
4.33516e-20
4.97081e-20
1.80771e-20
2.20678e-20
6.60751e-21
9.24932e-21
2.111e-21
4.09553e-21
6.38876e-22
2.72757e-22
3.1016e-21
-1.13966e-37
4.59419e-40
-3.33371e-34
5.43802e-36
-1.15539e-31
6.89125e-33
-1.03218e-29
1.50675e-30
-3.56023e-28
9.90588e-29
-5.69189e-27
2.77082e-27
-3.8073e-26
3.96109e-26
9.35181e-27
2.94696e-25
6.13022e-25
8.55783e-25
7.3931e-24
-1.9543e-23
5.17364e-23
-2.55772e-22
2.51126e-22
-1.36633e-21
9.17226e-22
-4.94233e-21
2.6558e-21
-1.36897e-20
6.44421e-21
-3.11647e-20
1.37573e-20
-6.14346e-20
2.71475e-20
-1.09916e-19
5.14612e-20
-1.84142e-19
9.85649e-20
-3.04553e-19
1.91975e-19
-5.1113e-19
3.58576e-19
-8.22928e-19
6.20739e-19
-1.21914e-18
1.0026e-18
-1.66084e-18
1.53923e-18
-2.11183e-18
2.26843e-18
-2.51995e-18
3.21386e-18
-2.81647e-18
4.38142e-18
-2.95529e-18
5.76993e-18
-2.92289e-18
7.33303e-18
-2.59919e-18
9.10257e-18
-1.8964e-18
1.10979e-17
-7.77981e-19
1.32117e-17
5.82456e-19
1.53337e-17
1.92215e-18
1.7051e-17
2.83238e-18
1.68203e-17
1.5995e-18
1.78243e-17
-1.18906e-18
1.69165e-17
-3.59773e-19
1.34418e-17
2.11812e-18
9.66083e-18
2.85817e-18
6.67054e-18
2.47495e-18
4.50092e-18
1.83046e-18
2.94239e-18
1.23752e-18
1.83848e-18
7.65217e-19
1.08663e-18
4.28518e-19
6.03428e-19
2.15536e-19
3.1347e-19
9.65002e-20
1.51963e-19
3.7985e-20
6.90239e-20
1.29738e-20
3.0685e-20
3.89303e-21
1.21228e-21
1.7077e-20
-8.71929e-37
4.12885e-39
-2.19832e-33
6.44254e-35
-5.89343e-31
7.42648e-32
-3.83396e-29
1.36782e-29
-7.75375e-28
7.70297e-28
1.26365e-28
1.89684e-26
2.85493e-26
2.31852e-25
6.94969e-25
1.33091e-24
8.67065e-24
7.59504e-25
6.8788e-23
-1.84387e-22
3.82356e-22
-1.44345e-21
1.5904e-21
-6.52142e-21
5.19413e-21
-2.13588e-20
1.38131e-20
-5.52518e-20
3.11669e-20
-1.19259e-19
6.21106e-20
-2.24319e-19
1.14057e-19
-3.82839e-19
1.98936e-19
-6.05762e-19
3.47643e-19
-9.35517e-19
6.25839e-19
-1.4725e-18
1.0972e-18
-2.24397e-18
1.79748e-18
-3.16641e-18
2.75344e-18
-4.11146e-18
4.01085e-18
-4.9768e-18
5.60061e-18
-5.62773e-18
7.51247e-18
-5.94171e-18
9.74755e-18
-5.94621e-18
1.24149e-17
-5.82125e-18
1.55436e-17
-5.34246e-18
1.97233e-17
-4.30396e-18
2.57155e-17
-2.88854e-18
3.33382e-17
2.57974e-19
3.35737e-17
4.16938e-18
3.76254e-17
2.51166e-17
6.50742e-17
6.11497e-18
7.16748e-17
-9.11601e-18
6.69611e-17
-9.32386e-18
5.07901e-17
7.86681e-18
3.51958e-17
1.1252e-17
2.42996e-17
8.88598e-18
1.68111e-17
6.3315e-18
1.13952e-17
4.32597e-18
7.44402e-18
2.75627e-18
4.64087e-18
1.60905e-18
2.74289e-18
8.52854e-19
1.52884e-18
4.06208e-19
8.0039e-19
1.7112e-19
3.93197e-19
6.25033e-20
1.83872e-19
1.94968e-20
5.33929e-21
9.03208e-20
-5.04814e-36
3.50105e-38
-8.57414e-33
7.3119e-34
-1.18569e-30
6.88276e-31
4.22914e-31
1.03944e-28
2.27984e-28
5.02196e-27
1.50911e-26
1.06127e-25
4.21527e-25
1.0486e-24
6.46532e-24
3.90796e-24
6.25779e-23
-6.76681e-23
4.16229e-22
-1.06937e-21
2.02674e-21
-6.404e-21
7.59141e-21
-2.53572e-20
2.27863e-20
-7.59641e-20
5.66114e-20
-1.84021e-19
1.20381e-19
-3.7731e-19
2.26682e-19
-6.79414e-19
3.92246e-19
-1.11289e-18
6.37581e-19
-1.68128e-18
1.02716e-18
-2.45875e-18
1.71546e-18
-3.65338e-18
2.82247e-18
-5.26658e-18
4.37679e-18
-7.07616e-18
6.36409e-18
-8.77002e-18
8.80257e-18
-1.01126e-17
1.16229e-17
-1.07966e-17
1.46737e-17
-1.06653e-17
1.79397e-17
-1.00339e-17
2.18122e-17
-9.59177e-18
2.64158e-17
-8.95699e-18
3.44683e-17
-7.98797e-18
4.81572e-17
-6.24282e-18
4.25027e-17
-3.62756e-18
1.83532e-16
6.69497e-18
1.23839e-16
2.98021e-17
1.0045e-16
1.71891e-17
9.5595e-17
-2.94859e-16
1.21356e-16
-1.43886e-16
1.06737e-16
2.05578e-17
8.72635e-17
3.22157e-17
6.92305e-17
2.26074e-17
5.13862e-17
1.6825e-17
3.60539e-17
1.19531e-17
2.41995e-17
7.84728e-18
1.56132e-17
4.73688e-18
9.66662e-18
2.62642e-18
5.71416e-18
1.3252e-18
3.2067e-18
5.95911e-19
1.70088e-18
2.3244e-19
8.53621e-19
7.67378e-20
2.10503e-20
4.18729e-19
-7.56611e-36
3.30796e-37
3.29613e-35
7.58802e-33
1.10543e-31
5.4198e-30
3.64321e-29
6.5645e-28
3.50918e-27
2.69187e-26
1.42648e-25
4.68146e-25
3.01074e-24
3.52031e-24
3.80838e-23
2.86431e-24
3.18034e-22
-5.1084e-22
1.87875e-21
-4.56659e-21
8.29655e-21
-2.28638e-20
2.86248e-20
-8.12226e-20
8.01435e-20
-2.24679e-19
1.87889e-19
-5.11626e-19
3.7992e-19
-9.98921e-19
6.82228e-19
-1.72757e-18
1.12379e-18
-2.73094e-18
1.72398e-18
-3.98795e-18
2.59631e-18
-5.62336e-18
4.04485e-18
-7.97204e-18
6.2355e-18
-1.08959e-17
9.14829e-18
-1.39889e-17
1.26605e-17
-1.66856e-17
1.66855e-17
-1.8456e-17
2.08499e-17
-1.86764e-17
2.47328e-17
-1.71133e-17
2.83634e-17
-1.49149e-17
3.2532e-17
-1.37638e-17
3.66527e-17
-1.26667e-17
4.63313e-17
-1.09604e-17
6.78095e-17
-8.43467e-18
9.01228e-17
-4.51986e-18
1.17487e-16
-1.22382e-18
1.31916e-16
1.67707e-17
3.84135e-16
4.46556e-16
1.4137e-15
-1.49259e-16
9.43016e-16
-7.66806e-16
2.32084e-16
4.96323e-16
1.67857e-16
3.60125e-17
1.33774e-16
3.21444e-17
1.04364e-16
2.77638e-17
7.74776e-17
2.17895e-17
5.49522e-17
1.54126e-17
3.75402e-17
9.91932e-18
2.47421e-17
5.88848e-18
1.56794e-17
3.2078e-18
9.50572e-18
1.55984e-18
5.48426e-18
6.52657e-19
2.99563e-18
2.29416e-19
6.75548e-20
1.55763e-18
4.20291e-38
4.22148e-36
1.56506e-33
6.78857e-32
1.77276e-30
3.50561e-29
3.62248e-28
3.42942e-27
2.58056e-26
1.15977e-25
8.36791e-25
1.60692e-24
1.4904e-23
7.80104e-24
1.64835e-22
-1.19454e-22
1.23065e-21
-2.23771e-21
6.62226e-21
-1.52047e-20
2.70202e-20
-6.65802e-20
8.71222e-20
-2.15874e-19
2.30085e-19
-5.56502e-19
5.13367e-19
-1.19762e-18
9.95217e-19
-2.23551e-18
1.71989e-18
-3.72925e-18
2.72534e-18
-5.72516e-18
4.00619e-18
-8.19902e-18
5.74446e-18
-1.13623e-17
8.4201e-18
-1.55813e-17
1.21509e-17
-2.04046e-17
1.68865e-17
-2.53589e-17
2.2425e-17
-2.96322e-17
2.84284e-17
-3.18983e-17
3.39299e-17
-3.13261e-17
3.79311e-17
-2.60951e-17
4.10553e-17
-2.06452e-17
4.45892e-17
-1.85276e-17
4.63976e-17
-1.70863e-17
4.75306e-17
-1.56315e-17
1.00477e-16
-1.20667e-17
1.17072e-16
-9.01634e-18
7.74862e-17
7.56604e-18
1.79523e-15
5.82204e-17
3.20986e-15
5.38834e-16
3.15978e-15
-5.78991e-16
2.47892e-15
-5.70397e-16
7.47534e-16
-3.06691e-17
2.41918e-16
4.16515e-17
1.5817e-16
3.14245e-17
1.30707e-16
2.96719e-17
1.07537e-16
2.60058e-17
8.48537e-17
2.05033e-17
6.41321e-17
1.46447e-17
4.64564e-17
9.6714e-18
3.22192e-17
5.88213e-18
2.13747e-17
3.15883e-18
1.35378e-17
1.41909e-18
8.12798e-18
5.24952e-19
1.72212e-19
4.59322e-18
1.02758e-36
5.15061e-35
1.89585e-32
4.8944e-31
1.42565e-29
1.84508e-28
2.25545e-27
1.46369e-26
1.29557e-25
3.97061e-25
3.55961e-24
4.16718e-24
5.55086e-23
5.34442e-24
5.49637e-22
-6.74859e-22
3.73999e-21
-7.13281e-21
1.86053e-20
-4.06041e-20
7.10004e-20
-1.59819e-19
2.16223e-19
-4.79286e-19
5.43827e-19
-1.1615e-18
1.16483e-18
-2.3777e-18
2.18456e-18
-4.26744e-18
3.67169e-18
-6.90544e-18
5.66966e-18
-1.03767e-17
8.14715e-18
-1.47964e-17
1.13689e-17
-2.0468e-17
1.58757e-17
-2.75272e-17
2.15636e-17
-3.52212e-17
2.85811e-17
-4.32835e-17
3.69502e-17
-5.0274e-17
4.56795e-17
-5.29861e-17
5.36102e-17
-5.28916e-17
5.61925e-17
-3.72897e-17
5.80035e-17
-2.64094e-17
6.08625e-17
-2.35981e-17
6.29161e-17
-2.24379e-17
6.31586e-17
-1.84333e-17
6.52501e-17
-1.28466e-17
7.15806e-17
-3.56352e-18
7.70542e-17
7.1477e-18
1.23452e-16
1.78831e-17
3.7006e-15
3.27833e-17
3.14917e-15
-5.17215e-16
2.12325e-15
-3.37934e-17
1.71513e-16
-3.30853e-16
1.84373e-16
1.64176e-17
1.81962e-16
2.44609e-17
1.59288e-16
2.67407e-17
1.35437e-16
2.50516e-17
1.13316e-16
2.20081e-17
9.2457e-17
1.74594e-17
7.27196e-17
1.30278e-17
5.4806e-17
9.05632e-18
3.96126e-17
5.43608e-18
2.75019e-17
2.57223e-18
1.81749e-17
9.49365e-19
3.55321e-19
1.12386e-17
1.36668e-35
5.05631e-34
1.4321e-31
2.8339e-30
7.87696e-29
7.94444e-28
1.00082e-26
5.01664e-26
4.82472e-25
1.07645e-24
1.15402e-23
7.5933e-24
1.60711e-22
-8.51773e-23
1.446e-21
-2.19715e-21
9.07897e-21
-1.77401e-20
4.21776e-20
-8.87146e-20
1.51848e-19
-3.19855e-19
4.40237e-19
-8.97047e-19
1.06284e-18
-2.06033e-18
2.20334e-18
-4.0401e-18
4.03548e-18
-7.01991e-18
6.67278e-18
-1.10848e-17
1.0202e-17
-1.64524e-17
1.46823e-17
-2.36523e-17
2.04019e-17
-3.29469e-17
2.76044e-17
-4.38649e-17
3.58554e-17
-5.57292e-17
4.58563e-17
-6.88896e-17
5.8029e-17
-7.85906e-17
6.97221e-17
-7.92714e-17
8.33845e-17
-8.54667e-17
7.98633e-17
-4.37123e-17
7.88059e-17
-3.2176e-17
8.26311e-17
-3.10719e-17
8.43474e-17
-2.81689e-17
8.17896e-17
-2.18367e-17
8.00694e-17
-1.49834e-17
9.02177e-17
-6.9518e-18
1.27927e-16
-1.03801e-18
1.83756e-16
2.81602e-18
5.02605e-16
-1.99374e-18
1.54363e-15
1.68696e-16
1.13236e-15
6.16401e-17
3.85586e-16
-2.28194e-17
2.85323e-16
-1.6308e-17
2.27587e-16
1.11565e-18
1.90177e-16
1.20199e-17
1.63656e-16
1.77461e-17
1.41654e-16
1.96243e-17
1.21424e-16
1.78409e-17
1.01532e-16
1.55222e-17
8.20621e-17
1.26997e-17
6.41287e-17
8.61973e-18
4.86641e-17
4.13699e-18
3.53932e-17
1.31419e-18
5.86899e-19
2.39295e-17
1.1803e-34
3.87102e-33
7.54388e-31
1.31665e-29
3.17829e-28
2.78363e-27
3.31368e-26
1.3866e-25
1.37519e-24
2.29514e-24
2.91878e-23
7.24935e-24
3.68137e-22
-3.77082e-22
3.04781e-21
-5.24576e-21
1.7831e-20
-3.57086e-20
7.79778e-20
-1.61455e-19
2.66634e-19
-5.41178e-19
7.40308e-19
-1.43368e-18
1.72572e-18
-3.14621e-18
3.48508e-18
-5.95322e-18
6.2846e-18
-1.00886e-17
1.03243e-17
-1.56218e-17
1.58929e-17
-2.31199e-17
2.34693e-17
-3.37663e-17
3.3191e-17
-4.7314e-17
4.44601e-17
-6.22067e-17
5.63477e-17
-7.78367e-17
7.06656e-17
-9.77478e-17
8.42944e-17
-1.03982e-16
9.5948e-17
-9.94593e-17
1.22436e-16
-1.33589e-16
1.70122e-16
-9.9353e-17
1.23174e-16
-6.51392e-17
1.12209e-16
-4.44154e-17
1.04634e-16
-3.36624e-17
9.91574e-17
-2.69308e-17
9.58977e-17
-2.09546e-17
9.88475e-17
-1.47985e-17
1.13503e-16
-1.02158e-17
1.50343e-16
-5.77136e-18
1.87242e-16
-8.35274e-19
1.90968e-16
7.1232e-18
1.91576e-16
1.46052e-18
1.76798e-16
-1.43144e-17
1.75357e-16
-1.56265e-17
1.78179e-16
-9.30272e-18
1.77309e-16
-1.81374e-18
1.71786e-16
7.04248e-18
1.61531e-16
1.47507e-17
1.48888e-16
1.70489e-17
1.34468e-16
1.76392e-17
1.17181e-16
1.77849e-17
9.87643e-17
1.38686e-17
8.15212e-17
6.42942e-18
6.48588e-17
1.03698e-18
7.27657e-19
4.73614e-17
6.76359e-34
2.28152e-32
2.83505e-30
4.90925e-29
9.45501e-28
7.89662e-27
8.33214e-26
3.11331e-25
3.04558e-24
3.80301e-24
5.83929e-23
-1.25009e-23
6.76422e-22
-9.39056e-22
5.21296e-21
-9.90824e-21
2.86826e-20
-5.97101e-20
1.18968e-19
-2.49196e-19
3.88734e-19
-7.86683e-19
1.03884e-18
-1.98846e-18
2.34846e-18
-4.20565e-18
4.63971e-18
-7.74002e-18
8.27938e-18
-1.2887e-17
1.35705e-17
-1.96324e-17
2.12917e-17
-2.92471e-17
3.28294e-17
-4.34585e-17
4.80567e-17
-6.06118e-17
6.48682e-17
-7.68894e-17
8.16636e-17
-9.1168e-17
1.00302e-16
-1.15774e-16
1.08742e-16
-1.11656e-16
1.09351e-16
-9.58237e-17
1.50745e-16
-1.77166e-16
1.54102e-16
-1.23389e-16
1.55825e-16
-1.14669e-16
1.37225e-16
-4.9222e-17
1.24791e-16
-3.65757e-17
1.19039e-16
-3.5554e-17
1.15771e-16
-3.17038e-17
1.14988e-16
-2.54539e-17
1.17769e-16
-1.99874e-17
1.26163e-16
-1.47748e-17
1.34625e-16
-9.58132e-18
2.00928e-16
-3.77973e-18
1.95245e-16
-7.29922e-18
1.87379e-16
-1.57636e-17
1.86415e-16
-1.87e-17
1.89824e-16
-1.61623e-17
1.96045e-16
-1.17595e-17
1.99432e-16
-3.34934e-19
1.86192e-16
3.07628e-17
1.90514e-16
1.5266e-17
1.87569e-16
1.99025e-17
1.75176e-16
2.65224e-17
1.5644e-16
2.44404e-17
1.37866e-16
1.05532e-17
1.18513e-16
-2.18294e-18
4.97426e-19
9.21149e-17
2.47844e-33
1.02994e-31
7.47668e-30
1.46967e-28
2.06705e-27
1.82768e-26
1.59719e-25
5.7428e-25
5.27921e-24
4.7712e-24
9.32511e-23
-6.99944e-23
1.0081e-21
-1.72811e-21
7.32326e-21
-1.54105e-20
3.82801e-20
-8.47689e-20
1.51839e-19
-3.32066e-19
4.77302e-19
-9.99502e-19
1.23428e-18
-2.4357e-18
2.71692e-18
-5.01168e-18
5.26503e-18
-9.04536e-18
9.30942e-18
-1.48911e-17
1.51724e-17
-2.23801e-17
2.43405e-17
-3.37753e-17
3.91376e-17
-5.04124e-17
5.97952e-17
-6.9698e-17
8.23984e-17
-8.35511e-17
1.01375e-16
-8.68229e-17
1.23362e-16
-1.20735e-16
1.71376e-16
-1.56028e-16
2.75125e-16
-1.33847e-16
1.92058e-16
2.59825e-16
1.95073e-16
2.82474e-16
2.27815e-16
1.48757e-16
1.67339e-16
-7.4697e-17
1.4178e-16
-5.54506e-17
1.38675e-16
-5.33996e-17
1.39888e-16
-4.78443e-17
1.40309e-16
-3.96485e-17
1.41018e-16
-3.21468e-17
1.45961e-16
-2.64886e-17
1.5659e-16
-2.14645e-17
1.72346e-16
-1.85575e-17
1.90359e-16
-2.13788e-17
2.05874e-16
-2.65164e-17
2.19378e-16
-2.78982e-17
2.31267e-16
-2.46948e-17
2.43832e-16
-2.18942e-17
2.49042e-16
-9.49806e-18
2.17865e-16
1.1484e-17
2.25737e-16
8.14634e-18
2.29845e-16
1.66917e-17
2.21241e-16
3.21057e-17
1.98191e-16
3.69967e-17
1.96711e-16
1.58429e-17
1.98674e-16
-3.79525e-17
5.73914e-19
1.6002e-16
4.92404e-33
3.54821e-31
1.28926e-29
3.54126e-28
3.2301e-27
3.49734e-26
2.31088e-25
8.84881e-25
7.16162e-24
4.20877e-24
1.19563e-22
-1.4803e-22
1.22987e-21
-2.54985e-21
8.54822e-21
-2.02816e-20
4.29617e-20
-1.04136e-19
1.64582e-19
-3.88572e-19
5.01834e-19
-1.1285e-18
1.26424e-18
-2.67956e-18
2.7231e-18
-5.41526e-18
5.18836e-18
-9.6612e-18
9.07235e-18
-1.57948e-17
1.45656e-17
-2.35012e-17
2.36322e-17
-3.55641e-17
3.85621e-17
-5.16271e-17
5.76323e-17
-6.73592e-17
8.00207e-17
-8.16896e-17
2.01253e-16
-1.80247e-16
1.98156e-16
-1.24602e-16
1.50605e-16
-5.38166e-17
2.87051e-16
-2.15961e-16
1.51128e-15
-2.95196e-15
8.53505e-16
-1.85579e-15
3.7841e-16
-2.92416e-15
2.20586e-16
2.54096e-18
1.74638e-16
-7.77427e-17
1.60568e-16
-7.54097e-17
1.57656e-16
-6.20397e-17
1.59529e-16
-5.3183e-17
1.62103e-16
-4.53353e-17
1.68954e-16
-3.87923e-17
1.86518e-16
-3.46928e-17
2.14368e-16
-3.34526e-17
2.44757e-16
-3.54413e-17
2.70426e-16
-3.77169e-17
2.89273e-16
-3.70269e-17
3.02038e-16
-3.30376e-17
3.0934e-16
-2.95667e-17
3.1468e-16
-1.92572e-17
3.24157e-16
-4.2539e-18
3.22429e-16
4.4202e-18
3.40755e-16
1.46001e-17
4.20157e-16
4.2212e-17
5.54479e-16
8.16657e-17
7.56406e-16
6.11295e-16
1.03519e-15
-3.16268e-16
1.47331e-16
7.17821e-16
-5.96454e-33
9.43058e-31
1.06496e-29
6.9506e-28
3.24332e-27
5.61982e-26
2.42162e-25
1.1639e-24
7.4966e-24
1.84614e-24
1.22978e-22
-2.20942e-22
1.23575e-21
-3.14222e-21
8.37783e-21
-2.30604e-20
4.10973e-20
-1.12539e-19
1.53953e-19
-4.05399e-19
4.60166e-19
-1.14912e-18
1.13945e-18
-2.68618e-18
2.41799e-18
-5.38084e-18
4.54362e-18
-9.55608e-18
7.82339e-18
-1.55524e-17
1.2221e-17
-2.29123e-17
1.94349e-17
-3.33999e-17
2.83309e-17
-4.33238e-17
3.80716e-17
-5.04436e-17
1.08309e-16
-1.37104e-16
9.62638e-17
-1.23498e-16
3.42494e-17
-6.34099e-17
2.92828e-17
-4.82201e-17
1.08444e-15
-1.88544e-15
2.99122e-15
-7.67912e-15
6.49831e-15
-5.78707e-15
4.20847e-15
-6.64099e-15
5.64787e-17
-1.12529e-15
1.7178e-16
-2.10246e-16
1.74804e-16
-9.34416e-17
1.62874e-16
-6.79768e-17
1.65164e-16
-6.11122e-17
1.71332e-16
-5.61479e-17
1.80495e-16
-5.02884e-17
1.99079e-16
-4.65526e-17
2.2829e-16
-4.53392e-17
2.62218e-16
-4.59171e-17
2.94816e-16
-4.61057e-17
3.23635e-16
-4.43828e-17
3.47164e-16
-4.01642e-17
3.63239e-16
-3.878e-17
3.73428e-16
-3.52586e-17
3.72391e-16
-1.88457e-17
3.59212e-16
-2.65797e-18
3.50526e-16
4.23917e-18
3.66736e-16
1.1564e-17
3.99265e-16
3.46728e-17
9.24904e-15
1.51682e-15
8.23477e-15
4.04652e-16
2.85584e-16
9.59194e-16
-8.43481e-30
1.97702e-30
-7.10277e-28
1.13243e-27
9.57132e-28
7.70409e-26
1.55841e-25
1.33893e-24
5.74526e-24
-1.4406e-24
9.99311e-23
-2.62012e-22
1.02312e-21
-3.31793e-21
6.95299e-21
-2.30257e-20
3.39621e-20
-1.08473e-19
1.26411e-19
-3.81924e-19
3.75475e-19
-1.06809e-18
9.24821e-19
-2.48192e-18
1.95306e-18
-4.96971e-18
3.6448e-18
-8.8445e-18
6.19084e-18
-1.43834e-17
9.45691e-18
-2.07768e-17
1.36478e-17
-2.73513e-17
1.79701e-17
-3.26832e-17
7.11317e-17
-8.87501e-17
6.26363e-17
-9.42299e-17
2.75619e-17
-8.91337e-17
3.18975e-17
-6.66772e-17
4.47726e-17
-6.12625e-17
7.71485e-15
-6.08275e-15
5.51657e-15
-5.90942e-15
4.96369e-15
-5.66044e-15
2.75637e-15
-4.85839e-15
1.584e-15
-5.34362e-15
4.0659e-16
-2.35766e-16
1.80134e-16
-1.0275e-16
1.4193e-16
-1.57126e-16
1.5721e-16
-7.30029e-17
1.70078e-16
-6.73182e-17
1.81048e-16
-6.17389e-17
1.96448e-16
-5.7694e-17
2.19332e-16
-5.44184e-17
2.47181e-16
-5.16098e-17
2.7773e-16