/*--------------------------------*- C++ -*----------------------------------*\
| =========                 |                                                 |
| \\      /  F ield         | OpenFOAM: The Open Source CFD Toolbox           |
|  \\    /   O peration     | Version:  2.4.0                                 |
|   \\  /    A nd           | Web:      www.OpenFOAM.org                      |
|    \\/     M anipulation  |                                                 |
\*---------------------------------------------------------------------------*/
FoamFile
{
    version     2.0;
    format      ascii;
    class       volScalarField;
    location    "0.128";
    object      alpha.water;
}
// * * * * * * * * * * * * * * * * * * * * * * * * * * * * * * * * * * * * * //

dimensions      [0 0 0 0 0 0 0];

internalField   nonuniform List<scalar> 
3600
(
1
1
1
1
1
1
1
1
1
1
1
1
1
1
1
1
1
0.997997
0.99363
0.99363
0.997917
0.999811
0.998651
0.998616
0.998616
0.998892
0.998973
0.996808
0.984193
0.984671
1
1
1
1
1
1
1
1
1
1
1
1
1
1
1
1
1
0.999141
0.99429
0.996653
0.999962
0.999962
0.999962
0.999937
0.999939
0.99956
0.996352
0.980955
0.980271
0.980268
1
1
1
1
1
1
1
1
1
1
1
1
1
1
1
1
1
0.9999
0.997165
0.996682
0.999962
0.999962
0.999963
0.999967
0.999937
0.992238
0.987545
0.98892
0.989936
0.984023
1
1
1
1
1
1
1
1
1
1
1
1
1
1
1
1
1
1
0.9995
0.998896
0.999962
0.999962
0.999913
0.999969
0.999976
0.999981
0.999872
0.999986
0.999985
0.999984
1
1
1
1
1
1
1
1
1
1
1
1
1
1
1
1
1
1
0.999977
0.995934
0.999962
0.999547
0.99935
0.999863
0.999981
0.999985
0.999986
0.999986
0.999945
0.99992
1
1
1
1
1
1
1
1
1
1
1
1
1
1
1
1
1
1
0.999996
0.995899
0.99996
0.999673
0.999172
0.998381
0.998458
0.999882
0.999981
0.999986
0.999904
0.999843
1
1
1
1
1
1
1
1
1
1
1
1
1
1
1
1
1
1
1
0.9959
0.998081
0.999739
0.999739
0.996639
0.994739
0.996482
0.999825
0.999999
0.999999
0.999865
1
1
1
1
1
1
1
1
1
1
1
1
1
1
1
1
1
1
1
0.997044
0.997795
0.999698
0.999739
0.99556
0.994734
0.994739
0.999436
0.999999
0.999999
0.999997
1
1
1
1
1
1
1
1
1
1
1
1
1
1
1
1
1
1
1
0.999933
0.999766
0.99998
0.998628
0.994734
0.994734
0.994924
0.999437
0.999999
0.999999
0.999998
1
1
1
1
1
1
1
1
1
1
1
1
1
1
1
1
1
1
1
1
1
1
0.995483
0.994734
0.994734
0.997851
0.999999
1
0.999999
0.999971
1
1
1
1
1
1
1
1
1
1
1
1
1
1
1
1
1
1
1
1
1
1
0.997653
0.994747
0.994734
0.998847
1
1
0.999885
0.999596
1
1
1
1
1
1
1
1
1
1
1
1
1
1
1
1
1
1
1
1
1
1
0.999688
0.99809
0.999251
0.99997
1
1
0.999648
0.999533
1
1
1
1
1
1
1
1
1
1
1
1
1
1
1
1
1
1
1
1
1
1
1
1
1
1
1
1
0.999537
0.999533
1
1
1
1
1
1
1
1
1
1
1
1
1
1
1
1
1
1
1
1
1
1
1
1
1
0.999998
0.999774
0.999663
0.999626
0.999669
1
1
1
1
1
1
1
1
1
1
1
1
1
1
1
1
1
1
1
1
1
1
1
1
1
0.999924
0.999718
0.999718
0.999998
0.999998
1
1
1
1
1
1
1
1
1
1
1
1
1
1
1
1
1
1
1
1
1
1
1
1
1
0.999991
0.999931
0.999956
0.999994
0.999997
1
1
1
1
1
1
1
1
1
1
1
1
1
1
1
1
1
1
1
1
1
1
1
1
1
1
1
1
1
0.999985
1
1
1
1
1
1
1
1
1
1
1
1
1
1
1
1
1
1
1
1
1
1
1
0.999997
0.99999
1
1
1
1
0.999767
1
1
1
1
1
1
1
1
1
1
1
1
1
1
1
1
1
1
1
1
1
1
1
0.999958
0.999915
0.999922
0.999974
0.999886
0.999741
0.99974
1
1
1
1
1
1
1
1
1
1
1
1
1
1
1
1
1
1
1
1
1
1
1
0.999994
0.999952
0.999909
0.999907
0.999907
0.999899
0.999841
1
1
1
1
1
1
1
1
1
1
1
0.989884
1
1
1
1
1
1
0.999981
0.998177
0.993884
0.999147
1
1
1
0.999963
0.99991
0.999999
1
0.999996
1
1
1
1
1
1
1
1
0.999998
0.999768
0.982858
0.817239
0.961876
0.999999
1
1
0.9968
0.999125
0.999367
0.987765
0.986967
0.999275
1
1
1
0.999996
0.999922
1
1
0.999998
1
1
1
1
1
1
1
1
0.983367
0.602818
0.763191
0.879537
0.999186
0.999971
0.99989
0.993808
0.990916
0.998785
0.999162
0.987003
0.986968
0.997194
1
1
1
0.999999
0.99999
1
1
1
1
1
1
1
1
1
1
0.999991
0.420523
0.0688098
0.375089
0.913697
0.983621
0.993781
0.995226
0.992626
0.993389
0.999068
0.999118
0.996594
0.987045
0.997427
1
1
1
1
0.999997
0.999986
0.999999
0.999993
1
1
1
1
1
1
0.999984
0.745163
0.0295371
0.0467333
0.379864
0.820578
0.944025
0.99484
0.998075
0.992626
0.997498
0.993804
0.992617
0.9884
0.990922
0.999566
1
1
1
0.999861
0.999643
0.999715
0.999969
0.999946
1
1
1
1
1
1
0.990107
0.117233
0.0284094
0.00189021
0.0642303
0.544811
0.807128
0.983535
0.998177
0.997208
0.998172
0.998171
0.993208
0.988253
0.992646
1
1
1
0.999892
0.999643
0.999643
0.999643
0.999718
0.999986
1
1
1
1
1
0.996323
0.467043
0.00707563
0.00114872
2.10629e-05
0.00917566
0.143076
0.545654
0.928665
0.998178
0.998177
0.998175
0.998174
0.990169
0.988252
0.991814
1
1
1
0.999962
0.999686
0.999643
0.999643
0.99988
0.999986
1
1
1
1
0.999998
0.910198
0.0365455
3.25878e-05
1.08312e-05
2.46722e-06
0.00070464
0.00382841
0.140474
0.657198
0.998178
0.998178
0.998177
0.998176
0.993706
0.988266
0.988858
1
1
0.999999
0.999999
0.999884
0.999647
0.999848
0.999984
0.999986
1
1
1
1
0.987464
0.218779
0.00554908
2.40388e-06
2.2275e-07
2.95904e-07
2.23573e-06
4.504e-05
0.000365368
0.228823
0.895931
0.998177
0.998177
0.998184
0.997203
0.991965
0.992811
0.999768
1
0.999998
0.999993
0.999969
0.999986
0.999988
0.999956
0.998928
1
1
1
0.988226
0.518497
5.92071e-05
2.29032e-06
2.23784e-07
5.66073e-08
7.05389e-08
2.48951e-07
1.71608e-05
4.20374e-05
0.00418095
0.389567
0.967903
0.986184
0.998185
0.998661
0.999213
0.999076
0.999816
1
0.999999
0.999993
0.999991
0.99999
0.999988
0.999826
0.996261
0.983836
0.985307
0.997321
0.999148
0.998919
0.998615
0.998615
0.998635
0.999739
0.99796
0.993758
0.993758
0.997943
1
1
1
1
1
1
1
1
1
1
1
1
1
1
1
1
1
0.980268
0.980268
0.980928
0.996249
0.999599
0.99994
0.999938
0.999955
0.999955
0.999955
0.996883
0.994308
0.99909
1
1
1
1
1
1
1
1
1
1
1
1
1
1
1
1
1
0.983613
0.990524
0.989757
0.988229
0.992838
0.99995
0.999962
0.999955
0.999955
0.999955
0.99687
0.997144
0.999878
1
1
1
1
1
1
1
1
1
1
1
1
1
1
1
1
1
0.999983
0.999981
0.999981
0.999976
0.999979
0.999977
0.999963
0.999909
0.999955
0.999955
0.999041
0.999481
0.999999
1
1
1
1
1
1
1
1
1
1
1
1
1
1
1
1
1
0.99992
0.999937
0.999981
0.999981
0.99998
0.999977
0.999894
0.999367
0.999539
0.999955
0.996014
0.99995
1
1
1
1
1
1
1
1
1
1
1
1
1
1
1
1
1
1
0.999843
0.999878
0.999983
0.999973
0.999881
0.998148
0.998242
0.999144
0.999705
0.999952
0.995944
0.999994
1
1
1
1
1
1
1
1
1
1
1
1
1
1
1
1
1
1
0.999849
0.999998
0.999998
0.99988
0.996753
0.994693
0.996144
0.999786
0.999786
0.998358
0.995944
1
1
1
1
1
1
1
1
1
1
1
1
1
1
1
1
1
1
1
0.999986
0.999998
0.999999
0.999616
0.994693
0.994691
0.995219
0.999786
0.999767
0.997767
0.996846
1
1
1
1
1
1
1
1
1
1
1
1
1
1
1
1
1
1
1
0.999998
0.999998
0.999999
0.99961
0.995445
0.994691
0.994691
0.998379
0.999941
0.999718
0.999891
1
1
1
1
1
1
1
1
1
1
1
1
1
1
1
1
1
1
1
0.99999
0.999999
0.999999
0.999999
0.998055
0.994691
0.994692
0.995245
1
1
1
1
1
1
1
1
1
1
1
1
1
1
1
1
1
1
1
1
1
1
0.999694
1
1
1
0.999147
0.994959
0.994702
0.997445
1
1
1
1
1
1
1
1
1
1
1
1
1
1
1
1
1
1
1
1
1
1
0.999533
0.999808
1
1
0.999999
0.999496
0.998331
0.999587
1
1
1
1
1
1
1
1
1
1
1
1
1
1
1
1
1
1
1
1
1
1
0.999534
0.999547
1
1
1
1
1
1
1
1
1
1
1
1
1
1
1
1
1
1
1
1
1
1
1
1
1
1
1
1
0.999829
0.999631
0.999628
0.9997
0.999994
1
1
1
1
1
1
1
1
1
1
1
1
1
1
1
1
1
1
1
1
1
1
1
1
1
0.999998
0.999998
0.999701
0.999783
0.999995
1
1
1
1
1
1
1
1
1
1
1
1
1
1
1
1
1
1
1
1
1
1
1
1
1
0.999991
0.999998
0.999991
0.999993
1
1
1
1
1
1
1
1
1
1
1
1
1
1
1
1
1
1
1
1
1
1
1
1
1
1
0.99999
1
1
1
1
1
1
1
1
1
1
1
1
1
1
1
1
1
1
1
1
1
1
1
1
1
1
1
1
1
0.9998
1
1
1
0.999989
0.99998
0.999998
1
1
1
1
1
1
1
1
1
1
1
1
1
1
1
1
1
1
1
1
1
1
1
0.99974
0.999794
0.99993
0.999967
0.999924
0.999924
0.999974
1
1
1
1
1
1
1
1
1
1
1
1
1
1
1
1
1
1
1
1
1
1
1
0.999849
0.99992
0.999928
0.999924
0.999924
0.999971
0.999999
0.999999
0.999573
0.999195
1
1
1
1
1
1
1
1
1
1
1
1
1
1
1
1
1
1
1
1
0.999998
1
0.999993
0.999924
0.999971
1
1
0.999999
0.999999
0.989364
0.995556
1
1
1
1
1
1
0.99972
1
1
1
1
1
1
1
1
1
1
1
1
0.999999
1
1
0.999954
1
1
1
1
0.994843
0.981089
0.981092
0.993275
1
1
1
0.999698
0.981539
0.963502
0.992781
0.985986
0.995079
0.999999
1
1
1
1
1
1
1
1
0.999999
1
1
1
1
1
1
0.99961
0.986873
0.981092
0.981094
0.9942
0.999885
0.999491
0.999895
0.998791
0.994575
0.965777
0.941382
0.555229
0.55173
0.982941
1
1
1
1
1
1
1
1
0.999992
1
0.999999
1
1
1
1
0.99934
0.989141
0.981095
0.982366
0.999882
0.999883
0.997094
0.997551
0.998402
0.998402
0.980639
0.922517
0.495135
0.127695
0.453277
0.999991
1
1
1
1
1
1
1
0.999982
1
0.999884
0.999799
0.999906
1
1
0.999806
0.996249
0.982721
0.994614
0.996406
0.998841
0.996746
0.99677
0.998085
0.998297
0.979792
0.8236
0.38736
0.0826694
0.0757733
0.733211
0.999972
1
1
1
1
1
1
0.999985
1
0.999817
0.999678
0.999678
0.999807
0.999997
0.999998
0.999995
0.986034
0.988319
0.99145
0.991822
0.996802
0.998396
0.998452
0.982925
0.881056
0.534623
0.167504
0.0260414
0.000182557
0.0965796
0.989399
1
1
1
1
1
1
0.999987
0.999996
0.999721
0.999678
0.999677
0.999725
0.999988
0.999999
0.998289
0.982294
0.982294
0.98918
0.998354
0.998434
0.998484
0.998467
0.873685
0.531829
0.0997914
0.00141304
0.000136329
3.72538e-05
0.00360557
0.460238
0.99671
1
1
1
1
1
0.999986
0.999987
0.999966
0.999705
0.99968
0.999925
0.999999
0.999999
0.997246
0.982761
0.982294
0.987234
0.998108
0.998507
0.998498
0.981557
0.502439
0.0793257
8.92808e-05
4.10241e-05
2.03918e-05
1.57143e-05
3.21674e-05
0.0366522
0.90568
0.999998
1
1
1
1
0.998364
0.999828
0.999982
0.999956
0.999972
0.999994
0.999999
0.999999
0.998659
0.994616
0.99643
0.998635
0.998305
0.998528
0.998507
0.752195
0.134994
7.45841e-05
3.91717e-05
4.20607e-06
3.0106e-06
1.25395e-06
3.09489e-06
0.00401562
0.211159
0.986267
1
1
1
1
0.996261
0.998894
0.999987
0.999993
0.999993
0.999994
0.999998
0.999999
0.999994
0.999234
0.999286
0.999233
0.998594
0.998581
0.92643
0.274638
0.00173971
3.53439e-05
3.14961e-05
7.05282e-07
7.42304e-07
7.22913e-07
7.79899e-07
2.85861e-06
6.25365e-05
0.518165
0.988117
1
1
1
1
1
0.999999
0.967518
0.0178212
2.7862e-05
8.75365e-07
3.55394e-08
1.34837e-08
2.09173e-08
4.86186e-08
2.69042e-06
2.34338e-06
3.23015e-05
0.032134
0.574567
0.753567
0.898078
0.99841
0.999888
0.999966
0.999971
0.999999
0.99999
0.999992
0.999991
0.999989
0.999988
0.999653
0.996816
1
1
0.995587
0.621567
0.0213164
5.76077e-06
2.73831e-07
9.55867e-09
4.44088e-09
9.38922e-09
1.84151e-08
5.58269e-07
5.03102e-07
2.34325e-06
3.50752e-05
0.0486236
0.157596
0.320509
0.640547
0.945588
0.999953
0.999966
0.999977
0.999841
0.999967
0.999969
0.999976
0.999972
0.999645
0.999242
1
1
0.940531
0.0449404
1.23639e-05
-1.34017e-06
-1.33858e-07
4.55255e-09
3.87714e-09
1.68115e-08
1.67409e-08
1.41746e-07
4.63787e-07
5.99917e-07
2.48418e-06
4.5336e-05
1.70388e-05
6.67119e-05
0.0597998
0.403498
0.927132
0.999953
0.999881
0.998687
0.999675
0.999615
0.999825
0.999736
0.999454
0.999043
1
0.974887
0.810037
0.0173825
-1.80239e-06
-9.80444e-08
-1.70542e-09
9.14284e-10
3.71942e-09
2.80165e-08
2.37561e-08
3.60735e-08
2.11057e-07
8.585e-06
1.7702e-05
1.75201e-05
1.21948e-05
1.20063e-05
1.16271e-05
1.1854e-05
0.225221
0.777652
0.741839
0.703172
0.89407
0.811782
0.904457
0.855914
0.893417
0.885133
0.853885
0.858544
0.186086
-4.02865e-07
-1.21002e-08
-1.79368e-09
-1.37846e-10
6.9356e-10
2.90016e-09
1.75415e-08
1.55834e-08
9.26047e-09
2.18434e-07
1.08611e-05
2.0091e-05
1.40379e-05
1.21635e-05
1.21847e-05
1.21633e-05
1.22255e-05
1.2464e-05
1.63838e-05
0.0630684
0.136371
0.202095
0.122561
0.208151
0.152586
0.1977
0.182055
0.25028
0.235065
-9.06397e-09
-3.36862e-08
-2.60871e-09
-3.44818e-09
-4.14662e-10
1.78785e-10
6.45241e-10
1.51342e-09
2.7746e-09
2.43535e-09
4.25056e-08
5.1401e-08
1.10064e-05
4.90208e-05
1.21747e-05
1.21496e-05
1.22165e-05
1.24114e-05
1.21217e-05
2.81446e-05
2.09634e-07
1.85949e-08
1.6308e-08
1.28597e-08
1.19222e-08
1.15752e-08
1.09108e-08
1.05228e-08
1.93586e-11
1.66852e-11
1.1238e-11
4.52241e-12
2.23613e-14
-1.10453e-11
9.34158e-12
9.73752e-11
7.77501e-10
2.81192e-09
1.73334e-09
1.28756e-09
3.22253e-07
4.35592e-06
6.38929e-06
6.12527e-05
1.56958e-05
2.40144e-05
5.89773e-05
1.14176e-05
6.36778e-06
0.000258794
0.000693431
6.00707e-06
1.89273e-08
1.98058e-07
3.78808e-08
1.20333e-08
1.17721e-08
1.11452e-08
5.89254e-11
2.92602e-11
6.96898e-11
4.36303e-09
2.27491e-12
8.55921e-12
1.37049e-11
8.11946e-11
7.25005e-10
4.61632e-09
1.44766e-09
1.02058e-09
1.27465e-09
1.28702e-05
1.9269e-06
6.10275e-05
2.02865e-05
8.2545e-05
0.000136503
7.96206e-05
3.24118e-06
1.78017e-06
2.19938e-06
2.86327e-07
2.86421e-07
1.33512e-06
2.04556e-07
1.33022e-07
3.34171e-07
2.37455e-07
1.08665e-07
7.56347e-11
1.52456e-09
4.63126e-07
2.22726e-12
9.05174e-12
1.18553e-11
6.7196e-11
5.07734e-10
2.82251e-09
1.08716e-09
9.25165e-10
1.15577e-05
2.47708e-05
2.74984e-07
1.98026e-05
3.27331e-08
7.17377e-05
0.000137406
0.000137373
8.05535e-05
1.41504e-06
9.24391e-07
2.89376e-07
3.07474e-07
1.34774e-06
3.02608e-07
3.04995e-07
8.87318e-07
7.94557e-07
1.11559e-06
1.45264e-07
2.58943e-06
8.41687e-07
2.21838e-12
8.05677e-12
9.79043e-12
5.94351e-11
3.61984e-10
3.29461e-09
9.87886e-10
7.71961e-10
5.80616e-05
3.35722e-05
2.86947e-07
3.27566e-08
2.66751e-08
9.42582e-06
0.000133038
0.000137431
0.000137382
1.42654e-05
1.37034e-05
2.29432e-05
4.2321e-07
4.95982e-07
3.04681e-07
3.04151e-07
9.00541e-07
1.0295e-06
2.27763e-06
1.60826e-06
1.19153e-05
2.2187e-12
2.21828e-12
6.79918e-12
6.84547e-12
4.66924e-11
2.83856e-10
5.30021e-09
1.10661e-09
4.54498e-10
6.22098e-05
3.39152e-05
5.24024e-07
5.99162e-07
1.17415e-08
1.3603e-05
0.000137368
0.000137411
0.000137426
1.75712e-05
1.53338e-05
0.000103127
0.000101187
3.6161e-07
3.58587e-07
3.09958e-07
3.71038e-07
3.78011e-07
3.76355e-06
4.62466e-06
1.19725e-05
1.21359e-11
2.16605e-12
5.4367e-12
3.77313e-12
2.31957e-11
1.43926e-10
5.07677e-09
9.15292e-10
2.32427e-10
6.29766e-05
2.88904e-05
5.69847e-07
5.89379e-07
2.37961e-09
5.89316e-06
0.000135243
0.000137392
7.5788e-05
2.90069e-06
1.4178e-06
6.4014e-05
0.000233636
3.61061e-07
7.91049e-07
7.81003e-07
3.77958e-07
3.95435e-07
1.94591e-06
1.20302e-05
1.20289e-05
2.3001e-12
1.98599e-12
4.12908e-12
3.06629e-12
2.70596e-11
1.55351e-10
1.86669e-09
1.88637e-10
1.89497e-10
6.35953e-05
2.68784e-05
1.07067e-08
2.38343e-09
2.1512e-09
1.18096e-05
0.00010093
7.07193e-05
8.55793e-06
9.87166e-07
1.33763e-06
3.65435e-05
0.00024515
1.56052e-06
6.94785e-07
7.05882e-07
3.9546e-07
4.08494e-07
2.77098e-07
1.20314e-05
4.71123e-06
2.48165e-09
1.77519e-12
2.79309e-12
1.0365e-12
8.18899e-12
6.04217e-11
8.84324e-10
1.16511e-10
3.11197e-05
6.33492e-05
1.95138e-05
8.68493e-09
2.16759e-09
2.0616e-09
9.20935e-05
3.53406e-05
6.24866e-07
1.13196e-06
9.80627e-07
8.28535e-07
8.88309e-05
0.000248764
4.4361e-05
6.00458e-07
5.67953e-07
4.05933e-07
4.13619e-07
3.16818e-20
1.18039e-05
7.30181e-09
7.32083e-09
1.74297e-12
1.66867e-12
5.06086e-13
3.96893e-12
2.59817e-11
1.06755e-10
1.06762e-10
5.30651e-05
5.69919e-05
6.96304e-06
4.23444e-09
2.07551e-09
2.06158e-09
0.000165112
3.18198e-05
3.58144e-07
7.20832e-07
7.34575e-07
7.61732e-07
7.90197e-05
0.000250448
0.000124323
6.62484e-07
1.54108e-06
4.13919e-07
4.13816e-07
7.51876e-17
3.61542e-06
1.02556e-07
4.73097e-12
1.83168e-12
8.23723e-13
2.35523e-13
2.14211e-12
1.61432e-11
7.24242e-11
3.52982e-09
7.47271e-06
4.57208e-06
5.34706e-07
3.53017e-09
2.37716e-09
0.000483718
0.000227935
3.26987e-07
3.38504e-07
3.84186e-07
7.87895e-06
3.65223e-06
0.000233182
0.000251504
0.000148119
7.42659e-07
7.63437e-06
2.62502e-06
4.31317e-07
4.24673e-13
4.24703e-13
4.69975e-13
6.10895e-12
2.02798e-12
3.24739e-13
8.82512e-14
9.07984e-13
8.95898e-12
5.82773e-11
1.15205e-08
7.39138e-09
3.42668e-08
2.41226e-08
4.08941e-09
0.000277369
0.000638284
0.000290509
2.11916e-07
1.94311e-07
3.77016e-05
3.76349e-05
3.84331e-06
0.000228279
0.00025165
0.000251797
9.23648e-05
9.66367e-06
5.06066e-06
1.65011e-05
2.16305e-12
1.70343e-11
4.63072e-11
1.49142e-11
1.47154e-12
1.16989e-13
2.74008e-14
2.8501e-13
3.6638e-12
1.77673e-11
2.9756e-09
3.22091e-09
2.27556e-09
2.9876e-10
0.000166454
0.000638284
0.000638284
0.000299845
1.99031e-07
3.38805e-08
6.12243e-06
5.13711e-05
5.29571e-05
9.55651e-05
0.000251797
0.000251797
0.000251797
3.09273e-05
5.22508e-06
1.41561e-05
6.30161e-13
7.92815e-11
4.96901e-11
1.18471e-11
8.20114e-13
5.27051e-14
6.80563e-15
4.80221e-14
7.06448e-13
9.17441e-12
3.62673e-11
3.19918e-09
1.24902e-09
9.25304e-11
0.000201949
0.000628056
0.000556791
6.95119e-05
3.25475e-08
2.87549e-09
1.06243e-09
9.61654e-06
4.55721e-05
1.80975e-05
4.96673e-05
0.000124238
0.000179931
0.000164207
0.000128389
5.87326e-05
1.76518e-13
3.00236e-11
2.60727e-11
5.79197e-12
3.61693e-13
2.01524e-14
2.08432e-15
1.26515e-14
1.63809e-13
2.14579e-12
2.87559e-11
3.06043e-10
5.7435e-09
2.51475e-11
1.38969e-05
0.000300112
0.000111481
2.4187e-06
1.42122e-09
5.31439e-10
5.48344e-10
1.07891e-09
1.77381e-06
1.47195e-08
2.98363e-08
3.04011e-07
1.76807e-06
1.01412e-07
0.000187962
0.000264993
2.73034e-14
8.31268e-12
6.56634e-12
1.62755e-12
1.22646e-13
6.24925e-15
5.61769e-16
3.67509e-15
4.16178e-14
4.39392e-13
6.30968e-12
5.8159e-11
7.2506e-10
1.83759e-11
3.30668e-11
4.75396e-08
6.59189e-09
8.00834e-09
5.0872e-10
4.49979e-10
5.0512e-10
5.46233e-10
1.6069e-09
6.05973e-09
5.1008e-09
6.18818e-09
8.23682e-09
1.2596e-08
0.000103747
0.000271471
2.82602e-15
1.1777e-12
1.89633e-12
4.72397e-13
3.43261e-14
1.48703e-15
1.19325e-16
9.5204e-16
1.04053e-14
8.98978e-14
9.91779e-13
1.17572e-11
7.41997e-11
1.68256e-11
2.22564e-11
4.60256e-10
2.45002e-10
2.2054e-10
2.65901e-10
2.53253e-10
1.62581e-08
5.83494e-08
2.95134e-08
5.66776e-09
4.79143e-09
4.78693e-09
4.84958e-09
8.21094e-09
0.000185525
0.000273131
1.92071e-16
8.61404e-14
3.96259e-13
9.81123e-14
6.89951e-15
2.48391e-16
1.97637e-17
2.14403e-16
2.53465e-15
2.16427e-14
1.76992e-13
1.89065e-12
3.25834e-11
1.26311e-11
2.42577e-11
4.07833e-11
1.94107e-10
1.99501e-10
1.88565e-10
2.45421e-09
8.46776e-08
1.38423e-07
3.74051e-08
4.79437e-09
4.76079e-09
4.76879e-09
4.76102e-09
2.12051e-05
0.00027304
0.000273137
8.49332e-18
3.329e-15
5.47002e-14
1.29546e-14
8.64806e-16
2.61624e-17
2.59272e-18
3.96262e-17
5.37072e-16
5.1628e-15
4.12478e-14
3.28198e-13
5.92199e-12
7.50876e-12
2.48574e-11
6.51272e-11
1.77124e-10
1.4368e-10
9.68687e-09
6.66463e-07
8.73377e-07
3.70328e-07
6.52311e-09
5.59301e-09
8.86644e-06
2.72142e-06
4.84437e-09
8.29361e-08
0.000160821
0.000273131
2.42136e-19
6.37233e-17
4.26619e-15
9.45451e-16
5.93307e-17
1.54539e-18
2.39086e-19
4.92614e-18
7.93685e-17
9.08652e-16
8.26039e-15
7.35631e-14
1.056e-12
3.73663e-12
1.66918e-11
2.90421e-11
9.85366e-10
2.15768e-10
2.16504e-10
1.92422e-06
2.22755e-06
1.71568e-06
1.64868e-08
3.0859e-06
1.32051e-05
1.31145e-05
1.59278e-07
2.68646e-07
3.76364e-07
0.000136365
4.41747e-21
4.28036e-19
1.67383e-16
3.3727e-17
1.95726e-18
4.44038e-20
1.40896e-20
3.8869e-19
7.90712e-18
1.1597e-16
1.35148e-15
1.7399e-14
2.6005e-13
1.99359e-12
1.21667e-11
1.57242e-11
1.35002e-09
3.47395e-09
4.52718e-09
3.29507e-08
9.11466e-07
1.05527e-06
2.01752e-07
7.20007e-07
6.75291e-07
3.40735e-06
7.54271e-05
1.89194e-05
2.70198e-06
4.71863e-06
5.10749e-23
7.33143e-22
2.8983e-18
5.06212e-19
2.59018e-20
5.09465e-22
4.68586e-22
1.77025e-20
4.83071e-19
9.61202e-18
1.50771e-16
2.86556e-15
5.12845e-14
6.04425e-13
4.84006e-12
2.37018e-11
3.56009e-11
3.25768e-11
1.77893e-07
6.06496e-07
6.07709e-07
2.2269e-07
4.38192e-08
4.38424e-08
5.30618e-08
9.8715e-06
9.13044e-05
9.14136e-05
3.5266e-05
7.87188e-06
3.74342e-25
3.20793e-25
1.80112e-20
2.51324e-21
1.04009e-22
1.71577e-24
5.33809e-24
2.9721e-22
1.19904e-20
3.61177e-19
8.86221e-18
2.8179e-16
8.18031e-15
1.75084e-13
2.54198e-12
2.11585e-11
6.98121e-11
3.25999e-11
2.98624e-07
6.02073e-07
2.88131e-07
5.16478e-08
4.26462e-08
4.33837e-08
1.80762e-07
7.76048e-05
9.26985e-05
9.19364e-05
5.69172e-05
7.92359e-06
1.77964e-27
7.94115e-28
3.14101e-23
2.95301e-24
8.22494e-26
9.74424e-28
9.66378e-27
9.40278e-25
6.72675e-23
3.67871e-21
1.7081e-19
1.03363e-17
5.87717e-16
2.49472e-14
6.58609e-13
1.10776e-11
1.22479e-10
4.09844e-11
8.27996e-08
3.68682e-07
5.74302e-08
4.07742e-08
1.0756e-08
1.76678e-05
8.75194e-05
9.27075e-05
9.25937e-05
5.82994e-05
1.38477e-05
7.68888e-06
6.06883e-30
2.59358e-30
1.61169e-26
5.68166e-28
5.72901e-30
2.38161e-32
7.76346e-32
2.50483e-29
6.25381e-27
1.26102e-24
2.37363e-22
5.17266e-20
1.04435e-17
1.27632e-15
6.68628e-14
1.42473e-12
1.16006e-11
3.95312e-11
9.97694e-14
1.20192e-12
2.82324e-08
4.05925e-08
8.1505e-12
1.50365e-06
4.26864e-05
8.23684e-05
9.23649e-05
7.73978e-05
6.26877e-05
5.45233e-05
0.996341
0.998532
0.999957
0.999966
0.999993
0.999993
0.999991
0.999998
0.99999
0.999527
0.999547
0.999265
0.999124
0.939243
0.522993
0.0192696
0.00013299
5.3662e-05
8.06074e-05
1.55834e-07
1.02239e-07
3.48214e-08
7.63129e-08
8.96682e-07
2.82674e-05
0.0186955
0.967275
0.999999
1
1
0.998485
0.99929
0.999928
0.999821
0.999983
0.999976
0.999885
0.999981
0.999982
0.999912
0.999777
0.999291
0.928149
0.584271
0.0675722
4.38052e-05
2.63902e-06
2.12177e-05
5.80079e-05
2.02304e-08
1.52356e-08
3.56657e-09
5.8825e-09
2.28251e-07
5.30767e-06
0.021392
0.622972
0.995549
1
1
0.998533
0.999273
0.99976
0.999677
0.999789
0.999757
0.999088
0.999937
0.999976
0.999936
0.90524
0.646897
0.331565
0.0377063
2.65552e-06
5.20201e-07
4.20215e-07
2.33684e-06
1.42001e-05
7.87563e-09
3.08762e-09
1.73693e-09
2.74868e-09
-1.32789e-07
-1.57104e-06
1.28631e-05
0.0457578
0.939802
1
1
0.896052
0.906859
0.89028
0.928096
0.873464
0.917419
0.810734
0.791276
0.94169
0.744129
0.272522
0.0152385
2.55067e-07
1.10081e-06
5.24334e-07
4.20028e-07
4.16683e-07
2.07943e-07
3.65264e-09
6.55822e-09
1.65008e-09
1.43028e-09
1.0642e-10
-1.95654e-09
-1.23337e-07
-1.9406e-06
0.0172404
0.812419
0.974619
1
0.196627
0.213159
0.20063
0.252826
0.18719
0.231231
0.209009
0.100985
0.185308
5.01123e-06
1.62209e-06
1.00367e-06
1.06829e-06
1.2179e-06
2.81273e-06
3.1955e-06
3.98237e-07
2.37336e-07
1.31763e-08
4.30796e-08
4.94254e-08
1.35076e-09
1.88349e-11
-6.2215e-10
-1.38092e-08
-9.0011e-09
-2.63022e-07
0.190801
0.858357
0.85131
1.04594e-08
1.04388e-08
1.03601e-08
1.02738e-08
1.0291e-08
1.02882e-08
1.02992e-08
1.00433e-06
1.88784e-06
1.62393e-06
1.0069e-06
1.0032e-06
1.00654e-06
4.98627e-06
1.0851e-05
1.0851e-05
2.2213e-06
1.0406e-07
1.89652e-08
2.01844e-08
5.49111e-08
1.64409e-09
1.09452e-10
-4.57402e-10
-2.38254e-09
-2.82461e-09
-2.69534e-08
-6.60901e-09
0.23007
0.244194
1.06904e-08
1.05863e-08
1.05312e-08
1.04426e-08
1.03923e-08
1.03362e-08
1.0887e-08
2.86711e-06
5.50325e-05
8.11472e-05
2.68922e-05
1.0032e-06
5.53447e-06
1.05705e-05
1.07608e-05
1.08491e-05
1.71888e-06
4.48058e-08
1.71519e-08
1.71558e-08
4.5886e-08
1.64795e-09
7.57502e-11
5.20937e-12
-5.42375e-12
3.64904e-14
5.8012e-12
1.15918e-11
1.70917e-11
2.05947e-11
2.92209e-08
1.17525e-08
1.21475e-08
5.88209e-08
1.70436e-08
1.22252e-08
1.67604e-08
4.51971e-06
7.97118e-05
8.46069e-05
7.87239e-06
1.05776e-06
7.22971e-06
3.95505e-06
5.06935e-06
1.20002e-06
2.00517e-07
3.24512e-08
2.28335e-08
1.26044e-07
3.2829e-08
1.02095e-09
3.52318e-11
8.0383e-12
1.04118e-11
3.05941e-12
2.47616e-08
9.45009e-11
2.91113e-11
5.69015e-11
5.47519e-07
6.85056e-07
1.5391e-06
3.0899e-06
2.42871e-06
2.30811e-06
2.19962e-08
5.51651e-08
7.31876e-08
9.4399e-06
7.42275e-06
3.05955e-06
2.50067e-06
3.54321e-08
3.35607e-08
3.15724e-08
2.87923e-08
2.31455e-08
9.34282e-08
1.73621e-07
2.99974e-08
2.24293e-10
2.26884e-11
5.45935e-12
9.85152e-12
3.03818e-12
4.8541e-07
2.54727e-09
9.86999e-11
9.73012e-08
1.03947e-06
2.78265e-06
4.73698e-06
4.73525e-06
4.73287e-06
4.73004e-06
1.69574e-06
7.32497e-08
2.74091e-06
8.03287e-06
6.65955e-06
2.32075e-06
4.83402e-08
3.78613e-08
7.02735e-08
1.18269e-07
2.94834e-08
2.16474e-08
4.67674e-08
1.15534e-07
1.07566e-08
1.21486e-10
1.46564e-11
3.54624e-12
8.27333e-12
3.03002e-12
6.84189e-07
4.3971e-06
2.60067e-07
1.1748e-06
8.09341e-07
4.09484e-06
4.73527e-06
4.73291e-06
4.72734e-06
2.12411e-06
8.65081e-07
5.49167e-06
7.09374e-06
5.56492e-06
5.43257e-07
5.16429e-07
6.32602e-07
3.68555e-07
9.72418e-08
4.53917e-08
2.17454e-08
1.94268e-08
1.65721e-08
1.59479e-08
7.85549e-11
7.05403e-11
6.83925e-12
2.00974e-12
6.9967e-12
3.0299e-12
3.03043e-12
1.22787e-05
1.81559e-06
2.50359e-06
4.1731e-07
1.65443e-06
2.41126e-06
5.41251e-07
4.76576e-07
4.97145e-07
5.47297e-07
3.87435e-06
7.09377e-06
1.08954e-06
7.4039e-08
7.80153e-07
1.54145e-06
1.30752e-06
3.70275e-08
3.57729e-08
2.28346e-08
2.64081e-08
5.89123e-08
1.00494e-08
5.44178e-11
2.84886e-11
2.57907e-12
1.10935e-12
5.72288e-12
2.95622e-12
1.25777e-11
1.23019e-05
4.58999e-06
4.07546e-06
4.14065e-07
4.09746e-07
4.0021e-07
4.10531e-07
4.17928e-07
4.51209e-07
3.77203e-06
6.73704e-06
7.7861e-07
1.58302e-09
4.86686e-08
1.30951e-06
1.54146e-06
1.54146e-06
2.26203e-07
3.90328e-08
9.43487e-08
1.06528e-07
1.03369e-07
1.15025e-08
1.30485e-11
9.40192e-12
9.18933e-13
6.14422e-13
4.43155e-12
2.76612e-12
3.30521e-12
1.23066e-05
1.26396e-05
2.42725e-06
4.16183e-07
4.12124e-07
3.93397e-07
4.0729e-07
5.83332e-06
1.7156e-05
1.79487e-05
8.70807e-06
1.58035e-09
8.77946e-10
1.61669e-09
2.93901e-07
1.54146e-06
1.53135e-06
3.27175e-07
4.22436e-08
7.20855e-08
1.06527e-07
8.2444e-08
2.29726e-09
9.23159e-12
2.80638e-12
3.44562e-13
3.34233e-13
3.12025e-12
2.41974e-12
1.95e-09
2.36555e-06
1.26406e-05
5.07449e-07
4.16681e-07
4.21095e-07
1.639e-06
1.4499e-05
1.80024e-05
1.80018e-05
1.79666e-05
1.67253e-05
5.94535e-07
7.66066e-10
8.74715e-10
1.54981e-08
8.33603e-07
1.50887e-06
1.05669e-06
4.47262e-08
4.33441e-08
7.12235e-08
1.80496e-09
9.72241e-11
6.88563e-12
1.09212e-12
1.59576e-13
1.72188e-13
1.90122e-12
2.33687e-12
2.603e-09
2.62962e-09
1.26378e-05
1.19394e-20
4.30524e-07
4.68115e-07
8.67587e-06
1.80024e-05
1.80072e-05
1.80056e-05
1.80026e-05
1.77403e-05
2.18822e-06
7.34222e-10
7.98099e-10
1.22411e-09
2.15813e-07
1.43141e-06
1.50225e-06
8.85642e-07
4.09522e-08
3.92732e-08
1.39206e-11
4.59939e-11
2.4642e-12
4.30282e-13
6.67095e-14
7.88966e-14
9.4408e-13
2.58813e-12
6.22529e-12
2.25225e-07
5.52718e-06
2.09375e-17
1.29805e-05
5.94756e-07
9.96419e-07
1.28334e-05
1.80056e-05
1.80069e-05
1.80056e-05
1.63967e-05
1.06293e-07
7.02263e-10
2.65055e-09
3.45178e-09
6.82125e-10
2.57228e-07
1.27854e-06
1.38387e-06
1.02439e-06
1.14724e-11
1.04428e-11
1.06397e-11
8.28775e-13
1.67592e-13
2.61599e-14
3.15662e-14
3.65242e-13
2.40002e-12
1.0597e-11
3.46639e-13
3.13618e-13
3.13604e-13
3.54598e-05
1.74058e-05
1.40545e-06
2.57049e-06
5.53769e-06
1.56833e-05
1.79968e-05
5.29411e-06
5.30109e-10
7.02054e-10
1.07023e-09
8.2185e-10
5.56197e-10
5.44323e-10
8.87476e-08
5.01315e-07
4.81372e-07
2.15538e-10
1.66588e-11
2.5131e-12
3.40106e-13
6.35421e-14
9.32986e-15
1.15681e-14
1.27403e-13
1.57911e-12
1.56011e-11
5.18649e-11
1.28074e-11
2.21913e-12
3.52507e-05
3.82339e-05
4.66732e-05
1.69522e-05
2.08909e-06
2.07376e-06
2.22218e-06
6.65511e-08
5.29564e-10
5.29525e-10
4.98382e-10
4.4335e-10
4.17966e-10
4.17762e-10
2.44183e-10
1.79119e-10
1.15873e-10
2.05782e-10
3.68276e-12
8.87433e-13
1.39295e-13
2.23006e-14
3.04471e-15
4.23238e-15
6.02712e-14
9.27486e-13
1.12826e-11
5.11357e-11
1.16188e-10
6.45645e-13
0.000123594
3.65524e-05
5.22665e-05
5.28133e-05
3.42276e-05
3.20841e-06
1.08487e-09
5.56666e-10
5.41552e-10
5.47434e-10
4.48193e-10
3.63751e-10
3.41021e-10
2.82608e-10
2.24309e-10
1.0012e-10
4.03046e-11
2.81534e-11
2.39557e-12
4.23582e-13
6.21536e-14
8.30819e-15
1.03054e-15
1.32211e-15
2.38489e-14
4.2466e-13
5.20261e-12
2.21681e-11
3.11003e-11
1.70964e-13
0.000190429
3.56299e-05
3.56447e-05
5.28133e-05
5.28133e-05
1.49308e-05
6.83818e-10
6.63128e-10
6.89444e-10
7.37663e-10
3.83172e-09
5.93709e-09
7.85969e-11
1.53472e-10
1.2848e-10
9.03005e-11
5.34529e-11
1.00636e-11
1.63675e-12
2.53412e-13
3.07251e-14
3.57603e-15
3.84904e-16
3.32877e-16
7.577e-15
1.461e-13
1.57116e-12
6.00619e-12
7.83927e-12
2.59287e-14
0.000265762
4.27291e-05
3.44505e-06
5.28133e-05
5.25853e-05
1.22816e-05
6.89596e-10
6.83701e-10
6.86661e-10
7.56849e-10
1.04104e-07
3.59553e-08
7.3547e-11
7.34461e-11
5.53855e-11
4.07281e-11
1.89976e-11
4.8845e-12
8.53972e-13
1.22722e-13
1.24509e-14
1.28353e-15
1.20243e-16
6.24082e-17
1.86809e-15
4.24818e-14
4.71205e-13
1.76232e-12
1.20268e-12
2.63366e-15
0.000273144
5.29692e-05
3.00207e-06
2.83915e-05
3.85532e-05
5.94401e-07
7.22052e-10
2.62573e-07
6.56371e-06
6.53119e-06
1.02465e-07
1.0186e-07
6.81912e-11
5.85839e-11
3.41503e-11
2.85034e-11
1.1561e-11
2.33883e-12
3.41316e-13
4.12933e-14
3.48562e-15
3.06335e-16
2.44152e-17
7.96078e-18
3.27049e-16
8.92549e-15
1.00287e-13
3.7769e-13
9.99374e-14
1.76115e-16
0.000272967
8.90516e-05
2.06363e-06
1.3468e-06
1.95641e-06
3.67716e-07
1.75328e-07
9.64489e-06
1.16263e-05
1.1613e-05
1.15988e-05
3.9659e-06
2.13236e-10
3.86281e-11
3.52114e-11
3.29308e-11
1.28144e-11
1.92114e-12
2.00836e-13
1.72433e-14
1.12595e-15
7.56704e-17
4.74226e-18
7.02966e-19
3.66046e-17
1.16692e-15
1.35738e-14
5.34565e-14
4.26587e-15
7.66781e-18
0.00027321
0.000207033
3.52749e-06
1.05122e-06
1.00475e-06
2.24149e-06
9.31052e-06
1.15653e-05
1.16054e-05
8.28519e-06
9.12164e-06
8.73324e-06
4.49613e-06
3.84588e-11
3.52204e-11
3.82828e-11
1.55051e-11
1.64336e-12
1.20554e-13
7.11947e-15
3.34247e-16
1.60298e-17
7.42762e-19
4.59864e-20
2.29137e-18
8.30093e-17
1.01978e-15
4.29872e-15
8.9024e-17
2.15694e-19
0.000127114
0.000204979
0.000122537
1.00477e-06
1.00474e-06
2.99251e-06
1.15393e-05
1.15392e-05
9.97862e-06
2.48488e-06
2.5262e-06
3.72462e-06
5.51565e-06
1.40545e-06
3.52642e-11
4.36179e-11
1.88091e-11
1.44299e-12
6.904e-14
2.52358e-15
7.65451e-17
2.41942e-18
7.68404e-20
2.31704e-21
6.8921e-20
2.80642e-18
3.75474e-17
1.74304e-16
7.95716e-19
3.89532e-21
8.04597e-06
0.000129426
0.00012813
6.97851e-05
1.00739e-06
1.21978e-06
4.22581e-06
1.01088e-05
5.2352e-06
2.48433e-06
2.48488e-06
1.16633e-05
2.80401e-06
2.37175e-07
3.54365e-11
5.9084e-11
1.93276e-11
1.20678e-12
3.71366e-14
8.20644e-16
1.51442e-17
2.8499e-19
5.60699e-21
9.51988e-23
8.27264e-22
3.80379e-20
5.84156e-19
3.12853e-18
1.94633e-21
4.47552e-23
7.67885e-06
7.86325e-06
9.01831e-05
8.90273e-05
1.26785e-05
1.36407e-06
1.60067e-06
9.01627e-06
2.48489e-06
2.48487e-06
3.24701e-05
6.72906e-05
1.28966e-05
1.74345e-10
4.69075e-11
8.66777e-11
1.44175e-11
7.78268e-13
1.55378e-14
1.7409e-16
1.58554e-18
1.55981e-20
1.73074e-22
1.75432e-24
2.96619e-24
1.65574e-22
3.21398e-21
2.16194e-20
5.51786e-25
3.25613e-25
7.71813e-06
7.68879e-06
1.22576e-05
2.26597e-05
1.43356e-05
0.000160837
0.000153894
1.93307e-05
2.62669e-06
3.12407e-06
6.41093e-05
6.72906e-05
3.42875e-05
1.92447e-09
3.1253e-11
1.17864e-11