/*--------------------------------*- C++ -*----------------------------------*\
| =========                 |                                                 |
| \\      /  F ield         | OpenFOAM: The Open Source CFD Toolbox           |
|  \\    /   O peration     | Version:  2.4.0                                 |
|   \\  /    A nd           | Web:      www.OpenFOAM.org                      |
|    \\/     M anipulation  |                                                 |
\*---------------------------------------------------------------------------*/
FoamFile
{
    version     2.0;
    format      ascii;
    class       volScalarField;
    location    "0.128";
    object      p_rgh;
}
// * * * * * * * * * * * * * * * * * * * * * * * * * * * * * * * * * * * * * //

dimensions      [1 -1 -2 0 0 0 0];

internalField   nonuniform List<scalar> 
3600
(
105.75
104.98
102.689
99.222
95.6653
92.0808
88.7332
85.8904
84.3033
83.9102
85.5576
87.3676
90.1825
92.4418
94.4369
96.4617
97.7015
98.6982
99.6379
99.4628
98.3468
97.6955
97.9187
98.555
99.393
100.466
101.787
103.094
103.102
103.04
105.758
104.986
102.693
99.2216
95.6617
92.0765
88.722
85.8682
84.2614
83.8707
85.5233
87.3477
90.1576
92.4383
94.4356
96.5118
97.7747
98.7807
99.5635
99.098
98.2226
97.5529
97.5257
98.1594
99.1966
100.324
101.263
103.797
103.881
104.134
105.767
104.999
102.704
99.2236
95.6578
92.0713
88.7025
85.8276
84.192
83.7923
85.4544
87.3066
90.1029
92.4008
94.4317
96.5341
97.7813
98.8288
99.4511
99.1734
98.0493
96.9381
96.7734
97.498
98.7869
101.114
103.58
102.77
102.565
103.239
105.781
105.019
102.72
99.2299
95.6538
92.0651
88.6746
85.7682
84.0873
83.6745
85.3504
87.2493
90.0191
92.3324
94.4249
96.5332
97.7343
98.8432
99.4411
99.4407
97.6949
95.8797
95.382
96.1734
97.7433
99.4312
100.681
101.696
102.293
102.567
105.799
105.046
102.741
99.2403
95.6497
92.0581
88.6382
85.6895
83.9467
83.5284
85.2101
87.1798
89.9522
92.2537
94.4025
96.499
97.6031
98.735
99.3589
99.1092
97.151
94.6329
93.6663
94.4518
96.2046
98.2345
99.8069
100.914
101.645
101.967
105.82
105.08
102.769
99.2547
95.6453
92.0507
88.5934
85.5916
83.7687
83.3258
85.0287
87.0946
89.9251
92.1984
94.338
96.4442
97.4603
98.5703
99.1621
99.0194
96.7664
94.0302
93.1125
93.8809
95.5425
97.67
99.3666
100.334
100.96
101.265
105.845
105.122
102.803
99.273
95.6406
92.0431
88.5405
85.4743
83.5522
83.0784
84.8035
86.9811
89.912
92.1859
94.2771
96.3742
97.3821
98.5011
99.0024
98.8461
96.8821
94.2705
93.582
94.1783
95.761
97.672
99.3368
100.307
100.858
101.137
105.873
105.171
102.843
99.2954
95.6355
92.0358
88.4799
85.3378
83.2955
82.786
84.5356
86.8297
89.8529
92.1963
94.287
96.3404
97.4103
98.5163
98.8695
98.7958
97.4491
95.0336
94.3106
94.7382
96.1302
98.1994
99.7078
100.645
101.047
101.238
105.905
105.227
102.889
99.3217
95.6298
92.0296
88.4119
85.1817
82.9969
82.4492
84.2271
86.6615
89.7317
92.1898
94.4178
96.3927
97.4895
98.5536
98.8209
99.0331
98.0482
96.3668
95.6181
96.0395
97.1734
99.0501
100.462
101.23
101.504
101.582
105.94
105.291
102.941
99.3518
95.6233
92.0249
88.3372
85.0061
82.6545
82.0644
83.8756
86.5022
89.5665
92.1558
94.5592
96.5208
97.5541
98.6136
98.9203
99.2688
98.8672
97.6379
97.4755
97.7954
98.7458
100.216
101.337
101.838
102.085
102.124
105.978
105.362
102.999
99.3858
95.6159
92.0227
88.2563
84.8107
82.2659
81.6246
83.473
86.3467
89.3712
92.1038
94.7016
96.6858
97.655
98.7507
99.0444
99.422
99.4186
98.7094
98.6745
99.4451
100.254
101.211
102.029
102.501
102.788
102.865
106.019
105.441
103.063
99.4234
95.6075
92.0238
88.17
84.5955
81.8281
81.125
83.0147
86.1747
89.142
92.0374
94.8251
96.8997
97.8012
98.9034
99.2125
99.5951
99.59
99.2345
99.3657
100.311
101.174
101.96
102.615
103.138
103.447
103.612
106.063
105.527
103.134
99.4646
95.5977
92.0295
88.0789
84.3603
81.338
80.5627
82.4956
85.9948
88.8732
91.9567
94.9542
97.1721
97.9961
99.0272
99.4725
99.8984
100.067
99.8895
100.098
101
101.501
101.704
102.335
103.638
104.203
103.836
106.109
105.621
103.211
99.5091
95.5864
92.0409
87.9838
84.1051
80.7923
79.9311
81.9091
85.8271
88.5564
91.8688
95.1349
97.4985
98.2015
99.2412
99.7058
100.186
100.333
100.365
100.696
101.671
102.462
102.747
102.372
102.7
103.364
103.312
106.157
105.722
103.295
99.5566
95.5731
92.0594
87.8854
83.8301
80.1878
79.2205
81.2401
85.6988
88.1731
91.7385
95.3043
97.8852
98.4516
99.4051
99.9708
100.458
100.649
100.419
101.28
102.156
102.18
101.98
102.154
102.065
102.237
103.207
106.207
105.831
103.385
99.607
95.5576
92.0867
87.7846
83.5358
79.5206
78.4183
80.4743
85.6366
87.6877
91.7235
95.563
98.3246
98.7433
99.5487
100.176
100.67
101.161
101.717
101.894
102.438
102.622
102.242
102.287
102.512
103.179
104.653
106.258
105.947
103.482
99.6598
95.5393
92.1245
87.6822
83.2229
78.7856
77.5167
79.6078
85.6336
86.9758
91.3597
95.8701
98.9078
99.0637
99.6828
100.231
100.679
100.95
101.495
102.263
102.616
102.849
102.586
102.927
103.806
104.82
105.992
106.31
106.072
103.586
99.7147
95.5176
92.1746
87.5793
82.8921
77.9775
76.511
78.6474
85.6306
86.3956
91.335
96.1162
99.4001
99.3865
99.8973
100.603
101.272
101.787
102.235
102.655
102.877
103.092
102.766
103.022
104.097
104.708
105.323
106.362
106.204
103.697
99.7714
95.4922
92.2387
87.4771
82.5432
77.0949
75.3834
77.6081
85.7206
84.897
90.7362
96.4497
100.266
99.6959
100.134
100.66
101.105
101.591
102.002
102.581
102.539
102.923
103.129
103.482
104.365
104.902
105.388
106.414
106.345
103.815
99.8295
95.4629
92.3184
87.3769
82.1769
76.1406
74.1119
76.4865
86.0921
84.0994
90.1483
96.4385
100.995
100.222
99.9277
100.748
101.407
100.847
101.654
102.216
102.592
103.3
104.062
104.689
105.191
105.755
106.167
106.465
106.487
103.94
99.8883
95.4296
92.4151
87.2811
81.8013
75.1311
72.7051
75.3863
85.3404
82.6758
89.8425
96.4482
101.496
100.712
100.183
99.6214
100.539
99.5776
100.627
102.26
103.186
104.355
105.338
105.826
105.765
106.164
106.479
106.514
106.658
104.074
99.9474
95.3927
92.5299
87.1931
81.4608
74.0988
71.0625
73.0827
88.8552
83.9871
88.3574
96.766
103.642
101.048
99.5708
99.4528
101.036
99.7327
100.575
102.583
103.39
105.444
106.154
106.387
106.289
106.444
106.665
106.56
106.79
104.215
100.006
95.3526
92.6643
87.1172
81.2447
71.8546
41.066
56.3171
83.6783
84.9387
87.9308
97.8481
104.648
101.179
99.9919
100.118
99.8145
99.0375
101.991
102.745
104.028
106.823
107.14
107.179
107.025
106.991
107.113
106.605
107.017
104.365
100.064
95.3099
92.8199
87.0568
81.1016
30.8235
3.73334
33.0589
91.4495
83.2251
87.9546
98.2472
105.25
100.84
100.712
100.716
99.7175
97.6978
102.302
103.151
104.931
107.641
108.135
108.091
107.668
107.478
107.533
106.642
107.104
104.524
100.119
95.265
92.9952
86.989
60.3638
2.56863
3.08765
33.1861
72.7479
78.7244
88.2992
98.0949
105.227
101.338
101.298
102.444
97.5587
94.832
102.453
104.161
105.704
108.082
108.575
108.449
108.025
107.769
107.798
106.677
107.435
104.692
100.173
95.2179
93.1297
85.3397
9.06535
2.4673
0.198203
5.61216
46.8949
68.1827
87.2234
98.7484
105.276
101.717
100.932
102.019
96.5338
93.8717
101.705
104.408
106.338
108.165
108.343
108.381
108.155
108.066
108.122
106.705
107.437
104.869
100.223
95.1713
92.9298
40.0683
0.567608
0.233971
0.0769561
0.845468
12.3498
47.0385
81.9174
99.4848
104.756
101.884
100.69
100.934
96.0613
93.9938
101.015
104.128
106.802
108.073
107.653
108.103
108.117
108.164
108.239
106.701
107.867
105.058
100.264
95.092
84.2285
2.98643
0.0334962
0.127408
0.0696945
0.0867046
0.297498
12.174
57.3266
100.275
104.763
101.955
100.507
99.9894
96.009
95.5572
100.872
103.279
107.227
108.453
106.947
107.832
107.89
107.973
108.012
106.773
107.938
105.267
100.306
93.4892
20.2772
0.472449
0.0268748
0.105609
0.0641962
0.0266632
-0.0450549
-0.0650862
20.64
89.4491
105.202
102.067
100.103
99.2376
96.239
97.8744
101.296
102.588
105.274
109.343
106.372
107.598
107.535
107.503
107.522
106.728
108.32
105.484
99.3297
48.8865
-0.0534521
-0.0738188
0.0194422
0.0825236
0.057556
0.0195115
-0.049761
-0.100572
0.0882223
39.5222
102.145
100.343
99.3062
98.6531
98.3944
101.016
103.021
99.6305
101.258
110.6
105.728
107.598
106.942
106.976
107.499
103.119
103.105
103.344
102.006
100.637
99.5698
98.7053
98.0017
97.6947
98.3053
99.3906
99.528
98.5724
97.5033
96.179
94.0786
92.0794
89.9064
87.0632
85.3863
83.7967
84.2855
85.7952
88.6431
91.9949
95.6076
99.1829
102.671
104.96
105.733
104.097
104.06
103.991
101.419
100.471
99.3668
98.3119
97.6044
97.5525
98.177
99.022
99.4742
98.6515
97.5776
96.2268
94.0708
92.0719
89.882
87.0415
85.3524
83.7575
84.2521
85.7721
88.6317
91.9903
95.604
99.1825
102.675
104.966
105.74
103.259
102.546
102.8
103.59
101.181
98.9389
97.6203
96.8284
96.9137
97.9908
99.0998
99.3641
98.6976
97.5846
96.2415
94.0535
92.0257
89.8294
86.9963
85.2844
83.6795
84.1871
85.7296
88.6118
91.9847
95.6002
99.1845
102.685
104.979
105.75
102.561
102.296
101.776
100.812
99.5765
97.875
96.2566
95.4043
95.8327
97.6181
99.3782
99.3509
98.7137
97.5298
96.2282
94.0261
91.9436
89.7492
86.9325
85.182
83.5623
84.0897
85.667
88.5831
91.9779
95.5963
99.1909
102.702
104.999
105.764
101.977
101.669
100.988
99.9303
98.4007
96.3599
94.545
93.6894
94.5719
97.063
99.0339
99.2675
98.6068
97.3902
96.1775
93.9753
91.8466
89.6903
86.8545
85.0441
83.407
83.9591
85.584
88.5456
91.9701
95.5924
99.2014
102.724
105.027
105.781
101.281
101.004
100.422
99.5014
97.8492
95.7297
94.0112
93.1623
93.9695
96.6893
98.9628
99.0813
98.441
97.237
96.0999
93.8756
91.7694
89.6763
86.7584
84.8663
83.205
83.7944
85.4805
88.4995
91.9615
95.5882
99.2159
102.752
105.061
105.802
101.164
100.906
100.407
99.4865
97.8282
95.927
94.3644
93.6936
94.2593
96.8109
98.8109
98.9362
98.3702
97.1461
95.9985
93.7753
91.7313
89.6787
86.6312
84.6458
82.9575
83.5946
85.3562
88.4451
91.9527
95.5838
99.2345
102.786
105.103
105.827
101.251
101.081
100.763
99.8671
98.3817
96.2996
94.9522
94.45
95.0777
97.4776
98.8283
98.8276
98.3877
97.1587
95.9263
93.7481
91.7133
89.6428
86.4643
84.3839
82.6644
83.3584
85.2108
88.3825
91.9439
95.5791
99.2571
102.827
105.152
105.856
101.591
101.513
101.304
100.575
99.1297
97.3525
96.2367
95.7723
96.459
98.1365
99.1077
98.8002
98.4328
97.2254
95.931
93.8319
91.6726
89.5564
86.2781
84.0822
82.3261
83.0843
85.0443
88.3124
91.9359
95.5738
99.2836
102.874
105.208
105.888
102.113
102.048
101.816
101.379
100.31
98.9322
97.998
97.7449
97.8253
99.0523
99.4051
98.9179
98.4982
97.2784
96.0076
93.9037
91.5981
89.4408
86.0927
83.7384
81.9386
82.7708
84.8561
88.2351
91.9293
95.5679
99.314
102.926
105.272
105.923
102.836
102.709
102.403
102.042
101.306
100.412
99.7152
98.951
98.9417
99.685
99.6025
99.0692
98.6504
97.3719
96.1108
93.9539
91.4936
89.3127
85.8988
83.345
81.4938
82.4162
84.6459
88.1513
91.925
95.5612
99.3483
102.986
105.343
105.961
103.621
103.348
102.991
102.496
101.95
101.35
100.671
99.7448
99.5386
99.9084
99.8061
99.2797
98.8305
97.511
96.2585
93.9483
91.3631
89.1735
85.6801
82.8987
80.9861
82.0178
84.4133
88.0617
91.9238
95.5536
99.3863
103.051
105.422
106.002
103.832
104.066
103.526
102.334
101.837
101.812
101.45
100.562
100.265
100.4
100.138
99.5813
99.0081
97.7125
96.4389
93.93
91.1999
89.0352
85.4427
82.3954
80.4116
81.5729
84.1579
87.967
91.9269
95.5448
99.4279
103.123
105.508
106.046
103.208
103.174
102.535
102.294
102.7
102.832
102.38
101.235
100.65
100.754
100.464
99.8985
99.2365
97.9108
96.6604
93.9214
91.0124
88.9028
85.1985
81.8306
79.7623
81.0788
83.8793
87.8681
91.9355
95.5347
99.4728
103.202
105.602
106.092
103.082
102.268
102.242
102.487
102.608
102.761
102.57
101.848
101.085
101.381
100.819
100.182
99.4862
98.1874
96.9399
93.898
90.7674
88.7783
84.9549
81.1947
79.0252
80.5329
83.5773
87.7658
91.9511
95.5229
99.5208
103.287
105.704
106.14
104.642
103.515
102.929
102.584
102.728
103.323
103.171
102.562
101.942
101.623
100.967
100.51
99.6749
98.5102
97.2403
93.8843
90.5471
88.6202
84.7235
80.4758
78.1851
79.9316
83.2518
87.6613
91.9752
95.5091
99.5717
103.379
105.813
106.19
105.944
104.923
103.915
102.983
102.802
103.242
103.261
103.099
102.372
102.187
101.213
100.596
99.8767
98.8814
97.654
93.7889
89.984
88.4135
84.5254
79.6624
77.2324
79.2695
82.9029
87.5557
92.0097
95.4929
99.6251
103.478
105.929
106.241
105.291
104.647
103.951
102.72
102.669
103.587
103.99
103.779
102.639
102.488
101.485
100.693
100.11
99.3781
98.0023
93.6821
89.6231
88.4356
84.36
78.7391
76.1613
78.5414
82.5309
87.4504
92.0564
95.4736
99.6807
103.584
106.054
106.293
105.375
104.843
104.283
103.315
103.19
103.274
103.269
103.8
103.125
102.963
101.74
101.237
100.95
99.8485
98.4919
93.5389
88.6176
87.8283
84.3214
77.6899
74.9529
77.7457
82.1357
87.3469
92.1171
95.4509
99.7381
103.697
106.186
106.345
106.168
105.768
105.237
104.861
104.42
104.108
103.694
103.468
103.127
102.517
101.946
101.321
101.131
100.33
98.8673
93.0255
88.0558
88.6628
84.3228
76.4917
73.5738
76.8874
81.7194
87.247
92.1935
95.4245
99.7968
103.817
106.326
106.397
106.486
106.191
105.847
105.978
105.459
104.682
104.166
103.798
102.62
102.091
101.766
101.111
101.352
100.817
99.2971
93.1259
86.9402
87.6398
84.5465
75.3125
72.0189
75.9875
81.2915
87.153
92.2869
95.3945
99.8564
103.946
106.468
106.448
106.672
106.473
106.391
106.593
106.419
105.614
104.479
104.315
104.065
101.156
100.458
101.398
101.759
101.533
99.8847
92.2389
87.7044
85.8018
84.3578
72.866
70.3446
75.0994
80.8807
87.0687
92.3988
95.3611
99.9162
104.082
106.64
106.497
107.115
107.006
107.05
107.241
107.415
106.873
105.158
103.79
103.382
99.4753
100.533
101.202
102.391
102.42
101.062
92.0897
85.0817
85.1655
82.7731
45.768
37.2316
73.0882
80.5239
87.0029
92.5305
95.3248
99.9755
104.227
106.771
106.544
107.547
107.537
107.722
108.015
108.299
107.74
106.13
104.217
102.838
98.9355
100.477
102.934
103.245
103.315
101.971
92.559
85.8224
87.0055
81.4338
42.3823
9.28155
34.395
80.152
86.966
92.6835
95.2861
100.034
104.381
106.998
106.588
107.831
107.726
108.104
108.396
108.976
108.382
107.095
105.7
103.559
98.3084
102.194
103.93
104.007
104.367
102.622
93.0109
85.255
86.3491
72.5835
35.7924
6.55304
5.80509
58.3569
86.9207
92.8557
95.2453
100.09
104.543
107.085
106.625
108.142
108.059
108.246
108.483
108.963
108.733
107.819
106.25
103.124
97.3859
100.472
105.305
105.308
104.867
102.652
93.7126
83.5128
76.2984
45.9016
14.8417
2.48797
0.0749476
7.17511
85.1476
92.9864
95.2027
100.144
104.716
107.415
106.66
108.264
108.22
108.278
108.372
108.37
108.759
108.319
105.948
102.534
97.2439
100.431
104.6
104.68
104.769
102.677
94.7123
73.8481
45.8074
8.69732
0.0962449
0.142613
0.0613006
0.26449
39.4217
92.7868
95.1614
100.195
104.898
107.415
106.688
108.038
108.025
108.113
108.141
107.819
108.885
108.011
105.08
102.325
98.0387
99.8071
104.015
104.427
104.424
102.911
93.1727
43.3762
6.7691
0.00971687
-0.0392393
0.119107
0.0549829
0.045324
2.93915
83.6884
95.0897
100.236
105.093
107.847
106.685
107.586
107.552
107.759
107.865
107.08
109.22
104.937
103.263
102.234
100.12
100.156
103.229
104.113
104.105
103.729
70.8808
11.9057
0.0334265
0.0146915
-0.0392137
0.107031
0.0372514
0.0291428
0.327222
19.5223
93.3728
100.277
105.308
107.914
106.756
107.588
107.058
107.342
107.841
105.862
109.64
101.347
99.3923
103.034
103.752
101.149
102.686
103.769
103.746
96.124
26.2212
-0.0682026
0.0139202
0.021693
-0.0331111
0.0995051
0.0227496
0.0195035
-0.0599769
-0.0639386
48.8378
99.29
105.532
108.298
106.711
106.835
108.34
105.623
96.6336
1.97273
-0.0286536
-0.072044
0.0119781
0.0717626
0.0527057
0.00912093
-0.0598141
-0.107551
0.0140131
3.43952
59.8406
75.261
88.2385
97.5269
98.1125
102.561
106.825
101.666
102.056
110.241
105.711
107.646
106.584
106.588
106.656
106.966
108.388
105.21
61.1995
2.22215
-0.0240572
-0.0698125
0.00822388
0.0658193
0.0498686
0.00236987
-0.066311
-0.108032
-0.0039721
-0.0546554
4.95311
15.6569
30.9756
61.7013
92.373
103.695
110.047
104.231
103.338
110.032
105.727
107.537
106.306
106.333
106.739
107.176
108.433
99.4646
3.31822
0.00464626
-0.0238849
-0.0661872
0.00518053
0.0609675
0.0476445
-0.00195447
-0.0707111
-0.109771
-0.0128859
-0.0308533
0.000650226
0.0035688
0.030329
5.69619
39.6947
98.2145
113.141
106.07
104.407
110.076
105.47
107.279
105.758
105.886
106.048
107.452
105.801
86.2272
1.49043
0.0110901
-0.0236482
-0.0622056
0.00273408
0.057299
0.045766
-0.00342964
-0.072289
-0.111733
-0.0228456
-0.0234073
0.00425027
-0.000239131
0.0163992
0.0322652
0.0404127
24.6874
89.2699
78.7759
75.2287
99.0386
85.6674
97.2057
90.2516
94.4029
93.6086
92.268
93.3156
20.1288
-0.0389385
0.0107256
-0.0239214
-0.0583454
0.000901045
0.0544619
0.0435003
-0.00165021
-0.0721425
-0.113099
-0.0295909
-0.0160713
0.00785359
-0.00229459
0.0143392
0.029592
0.0394059
0.0415927
0.0576791
6.66298
15.3792
22.3073
13.0582
22.5856
16.3512
21.2746
19.4969
27.4764
25.8711
0.0519233
-0.0329893
0.00683592
-0.0232857
-0.054159
-0.000219185
0.051728
0.0397933
0.00249749
-0.0713659
-0.113608
-0.0378465
-0.0137375
0.003623
-0.0053164
0.010926
0.0275378
0.0327423
0.0442766
0.0940841
0.0374998
0.059394
0.0443111
0.0553383
0.0517031
0.0496573
0.047869
0.0445933
-0.0154763
0.00475478
0.0467833
-0.0295008
0.00434736
-0.0220762
-0.0495956
-0.00087574
0.0486497
0.0334464
0.00733696
-0.0713076
-0.113046
-0.045011
-0.0101732
0.0106074
-0.00698446
0.00934843
0.031125
0.0272646
0.0327307
0.0981952
0.20129
0.0517871
0.054798
0.0535065
0.0513965
0.0489392
0.0465861
0.0438315
-0.0105156
0.0058557
0.0412166
-0.0263084
0.00228993
-0.0206421
-0.0448082
-0.00128911
0.0448806
0.0231286
0.0104205
-0.0737866
-0.110937
-0.0500249
-0.00879808
0.0111642
-0.00514523
0.0237831
0.0422566
0.0327873
0.0300356
0.0312464
0.0361682
0.0480597
0.0530757
0.0520093
0.0496851
0.0470859
0.0444625
0.0417588
-0.01038
0.00516867
0.0360895
-0.0229052
0.000651868
-0.01918
-0.0400327
-0.00164485
0.0403167
0.00804116
0.00833976
-0.081481
-0.105889
-0.0528854
-0.00901972
0.00791273
-0.00339975
0.0209747
0.0431134
0.0459859
0.0397182
0.0403337
0.0381294
0.0478186
0.0503149
0.050193
0.0477472
0.0451645
0.0426132
0.0398312
-0.00945783
0.00448558
0.0314299
-0.0196863
-0.000719824
-0.0177355
-0.0354332
-0.00198936
0.0351835
-0.00770511
-2.4318e-06
-0.0971615
-0.0945418
-0.0544321
-0.0102869
0.00762499
0.000720014
0.0143596
0.0421882
0.0482897
0.0551822
0.0428713
0.0413152
0.0478482
0.0482635
0.047927
0.0459806
0.0435537
0.0410398
0.0382585
-0.00846075
0.00394555
0.0278678
-0.0170339
-0.00181039
-0.0163293
-0.0311002
-0.00225169
0.0296764
-0.0168995
-0.0095393
-0.115349
-0.0875854
-0.0558873
-0.0116277
0.0081069
0.00429181
0.0168274
0.0443325
0.0500366
0.0578269
0.0435122
0.0428044
0.0690502
0.0666056
0.0468034
0.0451549
0.0430084
0.0405173
0.0377299
-0.00720368
0.00362071
0.0235172
-0.0143054
-0.00263336
-0.0149682
-0.0270739
-0.00234268
0.0245992
-0.0170527
-0.0134829
-0.119071
-0.0784889
-0.0541824
-0.011659
0.00813311
0.00724178
0.0179826
0.0459222
0.0511383
0.0451274
0.0434778
0.0444307
0.0552483
0.110196
0.0470409
0.0456945
0.0440003
0.0417658
0.039197
-0.00697886
0.00404608
0.019641
-0.0117405
-0.00319758
-0.0136558
-0.0233707
-0.00224807
0.0197581
-0.0121277
-0.0137087
-0.0984849
-0.0639485
-0.0453235
-0.0091904
0.00880797
0.00928687
0.019584
0.0381741
0.0393912
0.0358631
0.0421339
0.0445496
0.0520106
0.119988
0.0477513
0.0473113
0.0462954
0.0446485
0.0425789
-0.00641148
0.00357809
0.0153937
-0.00932789
-0.00352922
-0.0123925
-0.0199994
-0.00204832
0.0148715
-0.00739512
-0.0161638
-0.0625266
-0.0457494
-0.0303779
-0.00319105
0.0112492
0.0124787
0.0299533
0.0280717
0.0303555
0.0355366
0.0421275
0.0455096
0.0608868
0.111355
0.0555314
0.0500693
0.0495735
0.0484096
0.0467295
-0.00570722
0.00321749
0.012095
-0.00709522
-0.00365822
-0.0111749
-0.016966
-0.00189155
0.0099391
-0.00504315
-0.0291346
-0.0314725
-0.0279197
-0.0119906
0.005534
0.0156622
0.0161258
0.0478443
0.0282736
0.0307424
0.0353786
0.0413651
0.0437587
0.056898
0.107512
0.0699186
0.0535247
0.0529918
0.0517343
0.0500763
-0.00502346
0.00191892
0.010034
-0.00511009
-0.00361739
-0.00999677
-0.0142722
-0.00188231
0.00530573
-0.00443578
-0.0454052
-0.0387005
-0.0270841
0.00666577
0.0139307
0.0217098
0.101888
0.06219
0.0246227
0.0307503
0.0348539
0.0420192
0.0445013
0.0901311
0.0997037
0.072267
0.0543928
0.0546618
0.0529036
0.0508506
-0.00438056
0.00141061
0.00841427
-0.00340683
-0.00344346
-0.00885248
-0.0119081
-0.00202268
0.001339
-0.00409802
-0.0539365
-0.0456095
-0.0317927
0.020337
0.0193184
0.0714702
0.145942
0.0730901
0.0254241
0.031007
0.0433667
0.0445728
0.0440564
0.0864931
0.095474
0.0948598
0.0673061
0.0534952
0.0532056
0.0531703
-0.0037759
0.00150581
0.00713167
-0.00201724
-0.0031728
-0.00774138
-0.00984767
-0.00219525
-0.00109512
-0.00387237
-0.0456
-0.0448126
-0.0324876
0.0233207
0.0491977
0.157141
0.153004
0.0754824
0.0264211
0.0306957
0.0340642
0.0472247
0.0499446
0.0593362
0.0923636
0.0959461
0.096686
0.0538078
0.0529638
0.0503558
-0.00320798
0.00159665
0.00604087
-0.000956148
-0.00284009
-0.00667401
-0.00805737
-0.00231463
-0.00229458
-0.0035186
-0.0299928
-0.0311046
-0.0125635
0.0232082
0.0558145
0.160545
0.13354
0.0351107
0.0261733
0.0294362
0.0318141
0.0353072
0.0468571
0.0423949
0.0479366
0.0601463
0.078583
0.0765593
0.0642857
0.0518339
-0.0026795
0.00163905
0.00507071
-0.000202619
-0.00247796
-0.00566289
-0.00651048
-0.00233564
-0.00259989
-0.003011
-0.0164462
-0.0172498
0.0121228
0.023912
0.0160015
0.0742963
0.0413018
0.022285
0.0249892
0.0277968
0.0299675
0.0316232
0.0336613
0.0349858
0.0358872
0.0365736
0.0381913
0.0401826
0.0773851
0.118266
-0.00219679
0.00161568
0.0041942
0.000288539
-0.00211487
-0.00471931
-0.00518958
-0.00223966
-0.00237129
-0.00225662
-0.00777168
-0.00818004
0.0243923
0.0232801
0.0164462
0.0188497
0.0200822
0.021488
0.0236595
0.0258743
0.0277615
0.0292655
0.0304891
0.0313586
0.0317003
0.0313201
0.0306393
0.0293143
0.043627
0.124901
-0.00176573
0.00153293
0.0034048
0.000569682
-0.00177403
-0.0038556
-0.00407945
-0.00202961
-0.00187089
-0.00129972
-0.00235884
-0.00154825
0.0257497
0.0207554
0.0176519
0.0188306
0.0193449
0.0202756
0.0217619
0.0234956
0.0251376
0.0265268
0.0276174
0.0283585
0.028669
0.0284666
0.0278591
0.0267401
0.06037
0.101442
-0.00138885
0.00140776
0.00270462
0.000688864
-0.00147252
-0.00308628
-0.00316371
-0.00172827
-0.00127868
-0.000302174
0.000965217
0.00280827
0.0229598
0.017767
0.0170505
0.0174493
0.0176452
0.0181489
0.0190802
0.020377
0.0218721
0.023408
0.0249474
0.026452
0.0277133
0.0285736
0.0290751
0.0334703
0.0861169
0.0893056
-0.00106571
0.0012528
0.00209164
0.000687099
-0.0012198
-0.00242648
-0.00241954
-0.00137707
-0.000707153
0.000557256
0.0026726
0.00488843
0.0187566
0.0149061
0.0151943
0.015127
0.0149865
0.0149304
0.0151773
0.0159422
0.0168398
0.0178443
0.0191307
0.0204297
0.0246374
0.0225864
0.0218326
0.0200321
0.051738
0.102706
-0.000794279
0.0010761
0.00155833
0.000595297
-0.00101761
-0.00188665
-0.00182314
-0.00102476
-0.000228614
0.00113781
0.00341576
0.00516209
0.0145256
0.012111
0.0124324
0.0119198
0.0110371
0.0100917
0.00918134
0.00882702
0.00840853
0.00781721
0.00779667
0.00883297
0.0138227
0.0142278
0.0123245
0.011981
0.0110334
0.0389918
-0.000571652
0.00088247
0.00109328
0.000435454
-0.000870437
-0.00146316
-0.00135584
-0.000715447
0.000104225
0.00139075
0.00333672
0.00475467
0.0104858
0.00926056
0.00897598
0.00792032
0.00621443
0.00388434
0.000973874
-0.00229321
-0.00539716
-0.00808416
-0.0100775
-0.0105508
-0.0100321
-0.00850854
0.0236555
-0.000241588
0.000571629
0.000458287
-0.000394402
0.000673699
0.000682247
0.000221368
-0.000779983
-0.00114784
-0.00100598
-0.000480129
0.000268516
0.00135386
0.00281721
0.00392694
0.00690298
0.00636829
0.00561017
0.00398736
0.00141744
-0.00227953
-0.00724211
-0.0132626
-0.0200073
-0.0261725
-0.0306896
-0.0330911
-0.0336272
-0.030821
-0.00225678
-0.000751275
-0.0205661
-0.0182136
-0.000258757
0.000448597
0.000307641
-4.31515e-05
-0.000741444
-0.000930202
-0.000762138
-0.0003354
0.000270146
0.00108452
0.00205839
0.00282501
0.00414196
0.00373473
0.0027025
0.000793311
-0.00218375
-0.00651458
-0.012517
-0.0203432
-0.0297429
-0.0391289
-0.0464999
-0.0511475
-0.0534754
-0.0346426
-0.0266663
-0.0252126
-0.0325723
-0.0430746
-0.000160394
0.000203716
-4.9974e-05
-0.000354698
-0.000753212
-0.000798216
-0.000610994
-0.000282026
0.000140891
0.00066017
0.00120576
0.00161474
0.00205126
0.00164126
0.000704577
-0.00092298
-0.00335609
-0.0066294
-0.0112587
-0.0171316
-0.0242044
-0.0311671
-0.0370693
-0.0370212
-0.0213522
-0.0211816
-0.0219625
-0.0308334
-0.0416956
-0.0420385
-9.39829e-05
-6.79235e-05
-0.000417965
-0.000722359
-0.000818797
-0.000737143
-0.000532957
-0.000305534
-8.57752e-05
0.00013452
0.00032017
0.00043177
0.000471626
0.000184036
-0.000312518
-0.00119762
-0.00243934
-0.00401053
-0.00584802
-0.00777425
-0.00961122
-0.0113572
-0.0132695
-0.0152957
-0.00642026
0.00247012
0.00609921
-0.00139531
-0.00547243
-0.00772183
106.777
106.77
107.133
108.083
105.894
109.096
102.202
100.17
105.199
106.25
101.481
102.064
103.509
97.2382
53.9232
1.70193
-0.0789958
0.0141413
0.0521641
-0.0305769
0.0984222
0.0173218
0.0117697
-0.056479
-0.038418
2.03235
96.583
105.676
108.316
106.818
106.527
106.747
107.008
108.092
106.149
108.79
103.075
101.46
107.697
108.152
101.402
101.427
95.8053
60.5658
6.95359
-0.157597
-0.109137
-0.000937156
0.0391119
-0.030015
0.098624
0.0148898
0.00755277
-0.0536358
-0.0335015
2.23905
61.3118
105.263
108.365
106.949
106.1
106.493
106.72
108.262
105.969
108.681
103.939
102.516
111.258
110.4
91.3894
64.062
33.6374
3.89403
-0.0503618
-0.143865
-0.118246
-0.0125531
0.0295362
-0.0311834
0.0984508
0.0128636
0.00399902
-0.0497203
-0.0328575
0.0113199
3.35996
99.4633
108.408
107.159
95.0222
96.6348
94.9485
101.2
92.6339
100.291
85.4813
81.6177
107.884
84.7413
27.8868
1.54815
-0.00452228
-0.0232442
-0.0477886
-0.134324
-0.126819
-0.0238325
0.0193034
-0.0342721
0.0973166
0.0107626
0.00108061
-0.0459647
-0.0320784
0.0178731
1.46014
86.519
105.747
107.434
21.082
22.9709
21.6819
27.8227
20
25.2794
22.9732
10.7916
20.4155
0.049409
-0.0490931
-0.00591736
-0.00999971
-0.0232589
-0.0560808
-0.127819
-0.13535
-0.0350966
0.00836163
-0.0387986
0.0950961
0.00850497
-0.00116032
-0.0426966
-0.0317611
0.0175162
-0.0384826
20.6408
93.2688
91.9782
0.0415912
0.0383408
0.0367525
0.0335143
0.0353104
0.0257219
0.0579619
0.067126
0.0902771
0.0293028
-0.0236301
-0.00602563
-0.0106492
-0.0251857
-0.0607338
-0.119869
-0.143378
-0.046439
-0.00188452
-0.0438386
0.091332
0.0068975
-0.00278543
-0.03928
-0.0309738
0.0138407
-0.0327958
0.052452
25.3193
26.8077
0.0411078
0.0382425
0.0356179
0.0332779
0.033857
0.0340409
0.0513002
0.0587915
0.072278
0.0234852
-0.0149364
-0.00555003
-0.0110178
-0.0253759
-0.065275
-0.115029
-0.151586
-0.0575526
-0.00855972
-0.0485132
0.0862433
0.00589856
-0.00385996
-0.0356239
-0.0296013
0.0111729
-0.0293315
0.0473895
0.00402855
-0.0153928
0.0390719
0.0362884
0.0336429
0.0316197
0.0322853
0.033841
0.0422724
0.0535258
0.0677044
0.029525
-0.0117527
-0.00467005
-0.0114082
-0.0309926
-0.0707543
-0.112986
-0.158517
-0.0677306
-0.00951992
-0.0522476
0.0802154
0.00524381
-0.00442456
-0.0318716
-0.0278798
0.00879857
-0.0261127
0.0418293
0.005131
-0.0105357
0.0369906
0.034049
0.0312695
0.0292487
0.0297667
0.0324911
0.0409634
0.0506436
0.0373495
0.00865681
-0.00258153
-0.00362981
-0.0141478
-0.0345075
-0.0727736
-0.108557
-0.161286
-0.075273
-0.00451312
-0.0554152
0.0735958
0.00475353
-0.00464432
-0.0281569
-0.0260212
0.00677016
-0.0226498
0.0366927
0.00445538
-0.0103835
0.0352394
0.0323514
0.0294659
0.02685
0.026871
0.0299482
0.0374069
0.0454412
0.0341225
0.0130161
0.00364002
-0.00304511
-0.0150991
-0.0363827
-0.0708193
-0.103949
-0.158921
-0.0774879
0.00484548
-0.0577073
0.0664872
0.00427456
-0.0046607
-0.0245769
-0.0241092
0.00498877
-0.0194323
0.032236
0.00379935
-0.00946254
0.0346914
0.0319356
0.0284245
0.0251664
0.0241349
0.0261766
0.0331609
0.0385273
0.0295774
0.0143792
0.00574086
-0.00246192
-0.0149068
-0.0356757
-0.0652652
-0.0959454
-0.149393
-0.0721661
0.0170379
-0.0587285
0.0592887
0.00387883
-0.00456947
-0.0211886
-0.0221907
0.00348962
-0.0166527
0.0284858
0.0032905
-0.00845632
0.0362575
0.0330832
0.0294131
0.0256775
0.0237286
0.0247462
0.0286567
0.0300671
0.0235458
0.0133522
0.00660005
-0.00120789
-0.0131213
-0.0316594
-0.0564546
-0.084464
-0.130485
-0.0596503
0.0283255
-0.0592957
0.0527176
0.00363025
-0.00442612
-0.0180232
-0.020287
0.00226185
-0.01386
0.0241176
0.00296416
-0.0071864
0.0400746
0.0369678
0.0333496
0.0296324
0.0266186
0.0248001
0.0246469
0.0229699
0.0166713
0.0116528
0.00697376
0.000728189
-0.00962256
-0.0249166
-0.0447047
-0.0685435
-0.102219
-0.0423919
0.036365
-0.0539712
0.0464559
0.00367191
-0.0042545
-0.0151
-0.0184096
0.00129308
-0.0112282
0.0202261
0.00347199
-0.00691838
0.0445689
0.0417481
0.038085
0.0336767
0.0295945
0.0273296
0.0235704
0.0172462
0.0122808
0.0100293
0.00756771
0.00303537
-0.00478658
-0.0162606
-0.0305717
-0.0491353
-0.0700578
-0.0213674
0.0394042
-0.0364249
0.040524
0.00401742
-0.00405622
-0.0124338
-0.0165685
0.00056033
-0.00874641
0.0156129
0.00305429
-0.00639715
0.0478459
0.044817
0.0407939
0.0380451
0.0325458
0.0262002
0.0201012
0.0147908
0.00970258
0.00929403
0.00864658
0.00571146
6.97107e-05
-0.00774977
-0.0169637
-0.0315396
-0.0462031
-0.00554323
0.0361379
-0.0223389
0.0343659
0.00446077
-0.00383205
-0.010037
-0.0147756
3.93782e-05
-0.00644028
0.0126513
0.00283051
-0.00571463
0.0485429
0.0454031
0.041859
0.0383044
0.0317449
0.024812
0.0183855
0.0134747
0.00957565
0.00991048
0.0101085
0.00810713
0.00393311
-0.00128322
-0.00702954
-0.0179082
-0.0341318
-0.00481963
0.0276392
-0.0170897
0.028319
0.00483613
-0.00358801
-0.00791848
-0.0130443
-0.000300145
-0.00439911
0.0105902
0.0017535
-0.00502322
0.0492293
0.0440184
0.0407538
0.0354853
0.03092
0.0250261
0.0197799
0.0160462
0.0116974
0.0119171
0.011769
0.00989809
0.00653503
0.00252314
-0.00145131
-0.00848044
-0.0236227
-0.00718455
0.0221944
-0.0115469
0.0225436
0.00513711
-0.00332777
-0.0060836
-0.0113894
-0.000493239
-0.00265612
0.00893892
0.00103014
-0.00436669
0.0538113
0.0443948
0.0392138
0.0354571
0.0303511
0.0267766
0.0236538
0.0178437
0.0153494
0.0145721
0.0133474
0.0110413
0.0079739
0.0046569
0.0012191
-0.00367561
-0.0136602
-0.00599723
0.0158013
-0.00717102
0.0172126
0.00530165
-0.00305559
-0.00453294
-0.00982598