/*--------------------------------*- C++ -*----------------------------------*\
| =========                 |                                                 |
| \\      /  F ield         | OpenFOAM: The Open Source CFD Toolbox           |
|  \\    /   O peration     | Version:  2.4.0                                 |
|   \\  /    A nd           | Web:      www.OpenFOAM.org                      |
|    \\/     M anipulation  |                                                 |
\*---------------------------------------------------------------------------*/
FoamFile
{
    version     2.0;
    format      ascii;
    class       volScalarField;
    location    "0.079";
    object      p;
}
// * * * * * * * * * * * * * * * * * * * * * * * * * * * * * * * * * * * * * //

dimensions      [1 -1 -2 0 0 0 0];

internalField   nonuniform List<scalar> 
10000
(
-0.00534669
-0.00534217
-0.0053333
-0.00532034
-0.00530359
-0.00528312
-0.00525878
-0.00523036
-0.00519763
-0.00516041
-0.00511853
-0.00507183
-0.00502022
-0.00496359
-0.00490188
-0.00483506
-0.00476313
-0.00468612
-0.0046041
-0.00451718
-0.00442552
-0.00432933
-0.00422889
-0.0041245
-0.00401651
-0.0039053
-0.0037913
-0.00367491
-0.0035566
-0.00343678
-0.00331588
-0.00319428
-0.00307232
-0.0029503
-0.00282847
-0.00270708
-0.00258631
-0.00246633
-0.00234726
-0.00222923
-0.00211234
-0.00199669
-0.00188237
-0.00176947
-0.00165807
-0.00154822
-0.00144001
-0.00133349
-0.0012287
-0.00112572
-0.00535081
-0.00534634
-0.00533781
-0.0053253
-0.00530901
-0.00528894
-0.005265
-0.00523702
-0.00520483
-0.00516824
-0.0051271
-0.00508126
-0.00503059
-0.004975
-0.00491441
-0.00484876
-0.00477803
-0.00470223
-0.0046214
-0.00453561
-0.00444501
-0.00434975
-0.00425008
-0.00414625
-0.00403858
-0.00392741
-0.0038131
-0.00369604
-0.00357666
-0.00345536
-0.00333256
-0.00320863
-0.00308393
-0.0029588
-0.00283352
-0.00270839
-0.00258366
-0.00245956
-0.00233628
-0.00221402
-0.00209297
-0.00197329
-0.00185515
-0.00173871
-0.00162412
-0.00151149
-0.00140094
-0.0012926
-0.00118653
-0.00108282
-0.00535844
-0.00535378
-0.00534536
-0.00533321
-0.00531734
-0.00529773
-0.00527427
-0.00524684
-0.00521528
-0.00517942
-0.00513911
-0.00509419
-0.00504454
-0.00499002
-0.00493054
-0.00486603
-0.00479645
-0.00472176
-0.00464199
-0.00455717
-0.0044674
-0.00437281
-0.00427359
-0.00416998
-0.00406224
-0.00395066
-0.00383559
-0.00371738
-0.00359643
-0.00347314
-0.00334793
-0.00322118
-0.00309327
-0.00296456
-0.00283539
-0.00270611
-0.00257703
-0.00244845
-0.00232062
-0.0021938
-0.00206827
-0.00194426
-0.00182204
-0.00170181
-0.00158382
-0.00146823
-0.00135522
-0.00124496
-0.00113755
-0.00103307
-0.00536895
-0.00536403
-0.0053556
-0.00534371
-0.00532823
-0.00530908
-0.00528617
-0.00525936
-0.00522849
-0.00519341
-0.00515395
-0.00510994
-0.00506125
-0.00500773
-0.00494926
-0.00488575
-0.00481713
-0.00474334
-0.00466436
-0.00458019
-0.0044909
-0.00439659
-0.00429741
-0.00419357
-0.00408529
-0.00397283
-0.0038565
-0.00373666
-0.0036137
-0.00348802
-0.00336003
-0.00323015
-0.00309877
-0.00296629
-0.0028331
-0.00269961
-0.00256618
-0.00243314
-0.00230082
-0.00216955
-0.00203964
-0.00191145
-0.00178527
-0.0016614
-0.00154013
-0.0014217
-0.00130633
-0.0011942
-0.00108548
-0.000980249
-0.00538176
-0.0053767
-0.00536833
-0.0053567
-0.00534164
-0.00532301
-0.00530071
-0.00527459
-0.0052445
-0.00521026
-0.0051717
-0.00512864
-0.00508091
-0.00502837
-0.00497086
-0.00490827
-0.0048405
-0.00476746
-0.00468908
-0.00460534
-0.00451626
-0.00442193
-0.00432246
-0.00421801
-0.00410877
-0.00399499
-0.00387697
-0.00375505
-0.00362962
-0.00350111
-0.00336994
-0.00323655
-0.00310136
-0.00296482
-0.00282739
-0.0026895
-0.00255158
-0.002414
-0.00227714
-0.00214137
-0.00200711
-0.00187476
-0.00174468
-0.00161723
-0.00149274
-0.00137151
-0.0012538
-0.00113982
-0.00102975
-0.00092374
-0.00539657
-0.00539153
-0.00538335
-0.00537207
-0.00535749
-0.00533947
-0.00531786
-0.00529252
-0.00526329
-0.00522997
-0.00519237
-0.00515031
-0.00510358
-0.00505203
-0.00499548
-0.00493378
-0.0048668
-0.00479439
-0.00471648
-0.004633
-0.00454394
-0.00444934
-0.00434928
-0.00424389
-0.00413333
-0.00401783
-0.00389768
-0.00377324
-0.00364491
-0.00351312
-0.00337833
-0.00324102
-0.00310167
-0.00296077
-0.00281883
-0.00267633
-0.00253377
-0.00239154
-0.00225005
-0.00210979
-0.0019712
-0.00183474
-0.00170083
-0.00156988
-0.00144225
-0.00131828
-0.00119826
-0.00108243
-0.000971
-0.000864128
-0.0054132
-0.00540834
-0.00540047
-0.00538964
-0.00537564
-0.0053583
-0.00533749
-0.00531304
-0.00528475
-0.00525244
-0.00521588
-0.00517488
-0.00512922
-0.0050787
-0.00502312
-0.0049623
-0.00489606
-0.00482424
-0.00474669
-0.00466334
-0.00457413
-0.00447905
-0.00437814
-0.0042715
-0.00415927
-0.00404167
-0.003919
-0.0037916
-0.00365991
-0.0035244
-0.00338556
-0.00324395
-0.00310009
-0.00295455
-0.00280788
-0.00266061
-0.00251329
-0.00236637
-0.0022203
-0.00207561
-0.00193281
-0.00179239
-0.00165483
-0.00152056
-0.00138997
-0.00126342
-0.0011412
-0.00102359
-0.000910794
-0.000802973
-0.00543151
-0.00542695
-0.00541952
-0.00540924
-0.00539592
-0.00537938
-0.00535947
-0.005336
-0.00530877
-0.00527756
-0.00524214
-0.00520229
-0.00515776
-0.00510833
-0.00505378
-0.00499386
-0.00492836
-0.00485707
-0.00477984
-0.00469651
-0.004607
-0.00451125
-0.00440926
-0.00430109
-0.00418687
-0.00406681
-0.0039412
-0.00381042
-0.00367493
-0.00353524
-0.00339195
-0.00324566
-0.00309699
-0.00294657
-0.00279499
-0.00264287
-0.0024908
-0.00233926
-0.00218872
-0.00203978
-0.00189301
-0.00174893
-0.00160804
-0.0014708
-0.00133759
-0.00120875
-0.00108458
-0.00096533
-0.00085119
-0.000742309
-0.00545137
-0.00544721
-0.00544032
-0.00543071
-0.00541818
-0.00540255
-0.00538365
-0.00536128
-0.00533522
-0.00530522
-0.00527105
-0.00523245
-0.00518916
-0.00514091
-0.00508744
-0.00502847
-0.00496373
-0.00489299
-0.00481603
-0.00473266
-0.00464273
-0.00454615
-0.00444287
-0.00433292
-0.00421641
-0.00409354
-0.0039646
-0.00383
-0.00369025
-0.00354595
-0.00339779
-0.00324647
-0.00309273
-0.00293724
-0.0027807
-0.00262373
-0.00246698
-0.00231098
-0.00215622
-0.00200335
-0.00185299
-0.0017057
-0.001562
-0.00142231
-0.00128698
-0.00115633
-0.00103059
-0.000909961
-0.00079457
-0.000684534
-0.00547258
-0.00546893
-0.0054627
-0.00545387
-0.00544225
-0.00542765
-0.00540989
-0.00538874
-0.00536396
-0.00533531
-0.00530251
-0.00526529
-0.00522336
-0.0051764
-0.00512411
-0.00506616
-0.00500226
-0.0049321
-0.00485541
-0.00477195
-0.00468151
-0.00458397
-0.00447922
-0.00436727
-0.00424818
-0.00412216
-0.00398949
-0.00385064
-0.00370619
-0.00355683
-0.00340337
-0.00324669
-0.00308764
-0.00292701
-0.00276552
-0.00260381
-0.00244257
-0.00228236
-0.00212373
-0.00196738
-0.00181399
-0.00166413
-0.00151829
-0.00137686
-0.00124013
-0.00110832
-0.000981558
-0.000859928
-0.000743486
-0.000632277
-0.00549497
-0.00549192
-0.00548647
-0.00547854
-0.00546795
-0.0054545
-0.005438
-0.0054182
-0.00539486
-0.00536769
-0.00533642
-0.00530073
-0.0052603
-0.00521476
-0.00516378
-0.00510697
-0.00504398
-0.00497446
-0.00489807
-0.0048145
-0.00472352
-0.00462492
-0.00451856
-0.00440439
-0.00428247
-0.00415296
-0.00401621
-0.00387268
-0.00372304
-0.00356812
-0.00340893
-0.00324656
-0.00308205
-0.00291628
-0.00274996
-0.00258371
-0.00241824
-0.00225418
-0.00209215
-0.0019329
-0.00177715
-0.00162547
-0.00147833
-0.00133605
-0.00119881
-0.00106665
-0.000939575
-0.000817504
-0.00070036
-0.000588081
-0.00551833
-0.00551599
-0.00551143
-0.00550452
-0.00549509
-0.00548292
-0.00546782
-0.00544952
-0.00542775
-0.00540224
-0.00537266
-0.00533866
-0.00529989
-0.00525594
-0.00520642
-0.00515089
-0.00508894
-0.00502014
-0.0049441
-0.00486046
-0.00476891
-0.00466919
-0.00456111
-0.00444455
-0.00431956
-0.00418629
-0.00404509
-0.00389645
-0.0037411
-0.00358005
-0.00341462
-0.00324624
-0.00307617
-0.00290539
-0.00273451
-0.00256402
-0.00239465
-0.00222716
-0.00206224
-0.00190069
-0.00174329
-0.00159064
-0.00144314
-0.001301
-0.00116423
-0.00103269
-0.000906164
-0.000784368
-0.000667029
-0.000553918
-0.00554244
-0.00554093
-0.00553739
-0.00553162
-0.00552346
-0.00551272
-0.00549915
-0.00548251
-0.00546249
-0.0054388
-0.00541109
-0.00537897
-0.00534205
-0.00529987
-0.00525199
-0.00519791
-0.00513714
-0.00506919
-0.0049936
-0.00490995
-0.00481785
-0.00471697
-0.00460707
-0.004488
-0.00435976
-0.0042225
-0.00407652
-0.00392233
-0.00376068
-0.00359283
-0.00342055
-0.00324577
-0.00307007
-0.00289456
-0.00271961
-0.00254531
-0.0023724
-0.00220183
-0.00203443
-0.00187111
-0.00171274
-0.00155994
-0.001413
-0.00127199
-0.00113672
-0.00100682
-0.000881808
-0.000761118
-0.000644216
-0.000530662
-0.00556707
-0.0055665
-0.0055641
-0.0055596
-0.00555286
-0.00554367
-0.0055318
-0.00551697
-0.00549889
-0.00547721
-0.00545156
-0.00542153
-0.00538666
-0.00534647
-0.00530043
-0.00524798
-0.00518857
-0.00512162
-0.0050466
-0.00496302
-0.00487042
-0.0047684
-0.00465666
-0.00453501
-0.00440341
-0.00426198
-0.00411097
-0.00395083
-0.00378225
-0.00360671
-0.00342673
-0.00324502
-0.00306365
-0.00288401
-0.00270579
-0.00252819
-0.00235196
-0.00217845
-0.00200878
-0.00184403
-0.00168517
-0.00153284
-0.00138724
-0.00124824
-0.00111543
-0.000988153
-0.00086559
-0.000746852
-0.000631114
-0.000517683
-0.00559199
-0.00559248
-0.00559135
-0.00558824
-0.00558303
-0.00557554
-0.00556552
-0.00555269
-0.00553673
-0.00551726
-0.00549389
-0.00546617
-0.00543358
-0.0053956
-0.00535163
-0.00530103
-0.00524316
-0.0051774
-0.00510312
-0.00501973
-0.00492671
-0.00482359
-0.00471003
-0.00458581
-0.00445085
-0.00430521
-0.00414907
-0.00398276
-0.00380663
-0.00362215
-0.00343312
-0.00324368
-0.00305662
-0.00287402
-0.00269397
-0.00251353
-0.00233381
-0.00215705
-0.0019849
-0.00181867
-0.00165946
-0.00150791
-0.00136415
-0.00122782
-0.00109824
-0.000974391
-0.00085511
-0.000739153
-0.000625371
-0.000512785
-0.00561696
-0.00561862
-0.00561887
-0.00561727
-0.00561374
-0.00560809
-0.00560009
-0.00558944
-0.00557578
-0.00555874
-0.00553788
-0.00551271
-0.00548266
-0.00544713
-0.00540546
-0.00535694
-0.00530085
-0.00523648
-0.00516311
-0.00508006
-0.00498674
-0.00488263
-0.00476735
-0.00464066
-0.00450246
-0.00435279
-0.00419179
-0.00401955
-0.0038353
-0.00363971
-0.00343925
-0.00324077
-0.00304786
-0.00286463
-0.00268564
-0.0025028
-0.00231873
-0.00213762
-0.00196204
-0.00179366
-0.00163374
-0.0014829
-0.00134114
-0.00120785
-0.00108199
-0.000962196
-0.000846941
-0.000734606
-0.000623665
-0.000512833
-0.00564173
-0.00564466
-0.00564641
-0.00564644
-0.00564471
-0.00564105
-0.00563523
-0.00562693
-0.00561578
-0.0056014
-0.00558328
-0.00556091
-0.00553365
-0.00550085
-0.00546175
-0.00541558
-0.00536153
-0.00529876
-0.00522649
-0.00514397
-0.00505051
-0.00494557
-0.00482874
-0.0046998
-0.00455869
-0.00440551
-0.00424053
-0.00406341
-0.0038698
-0.0036599
-0.00344345
-0.00323312
-0.00303368
-0.00285474
-0.00268271
-0.00249785
-0.00230773
-0.00212021
-0.00193925
-0.00176725
-0.00160567
-0.00145503
-0.00131509
-0.00118495
-0.00106321
-0.0009481
-0.000837698
-0.000730004
-0.000623084
-0.000515299
-0.00566606
-0.00567034
-0.00567369
-0.00567546
-0.00567565
-0.00567413
-0.00567064
-0.00566487
-0.00565645
-0.00564493
-0.00562981
-0.00561049
-0.0055863
-0.0055565
-0.00552028
-0.00547675
-0.00542501
-0.00536412
-0.0052932
-0.00521141
-0.00511802
-0.00501244
-0.00489431
-0.00476348
-0.00462005
-0.00446441
-0.0042972
-0.00411705
-0.00391015
-0.00368388
-0.00344424
-0.0032165
-0.00300933
-0.00284356
-0.00268806
-0.00250152
-0.00230164
-0.00210433
-0.00191537
-0.00173766
-0.00157284
-0.00142144
-0.00128297
-0.00115618
-0.00103923
-0.00092987
-0.000825695
-0.000724312
-0.000623334
-0.000520583
-0.00568968
-0.00569539
-0.00570043
-0.00570404
-0.00570627
-0.00570701
-0.00570601
-0.00570295
-0.00569745
-0.00568902
-0.00567713
-0.00566113
-0.00564029
-0.00561379
-0.00558074
-0.00554017
-0.00549105
-0.00543236
-0.0053631
-0.00528235
-0.0051893
-0.00508337
-0.00496425
-0.00483201
-0.00468711
-0.00453039
-0.00436389
-0.0041851
-0.00395599
-0.00370798
-0.00344287
-0.003182
-0.00296233
-0.00283022
-0.00271318
-0.00252506
-0.00230187
-0.00208821
-0.00188803
-0.00170246
-0.00153283
-0.00137971
-0.00124256
-0.00111986
-0.00100931
-0.00090801
-0.0008129
-0.000720961
-0.000629183
-0.000534611
-0.00571233
-0.00571954
-0.00572633
-0.00573186
-0.00573623
-0.00573936
-0.005741
-0.00574082
-0.00573842
-0.00573331
-0.00572488
-0.00571246
-0.00569524
-0.00567235
-0.00564279
-0.0056055
-0.00555935
-0.00550322
-0.005436
-0.00535669
-0.00526441
-0.00515856
-0.00503894
-0.00490591
-0.00476023
-0.00460345
-0.00444094
-0.00427669
-0.00399934
-0.00372862
-0.00341565
-0.00296061
-0.0027376
-0.00279113
-0.00282992
-0.00257258
-0.00230568
-0.00206911
-0.0018535
-0.00165764
-0.0014822
-0.00132736
-0.00119249
-0.00107605
-0.000975385
-0.000886879
-0.000806357
-0.000729601
-0.0006525
-0.000570932
-0.00573376
-0.00574248
-0.00575108
-0.0057586
-0.0057652
-0.00577082
-0.00577522
-0.00577808
-0.00577897
-0.00577736
-0.00577262
-0.00576403
-0.00575072
-0.00573173
-0.00570599
-0.00567234
-0.00562955
-0.00557641
-0.00551173
-0.00543439
-0.00534346
-0.00523835
-0.00511892
-0.0049855
-0.00483901
-0.00468191
-0.00452287
-0.00437798
-0.00411605
-0.0037232
-0.00236135
-0.000582596
4.31978e-05
-0.000713801
-0.00249079
-0.00264326
-0.00231135
-0.00204017
-0.00180542
-0.00159731
-0.00141587
-0.00126046
-0.00113082
-0.00102558
-0.000941737
-0.000874595
-0.00081828
-0.000766438
-0.000712777
-0.000651089
-0.0057537
-0.00576394
-0.00577437
-0.00578391
-0.00579279
-0.00580099
-0.00580827
-0.00581429
-0.00581863
-0.00582071
-0.00581988
-0.00581535
-0.00580621
-0.00579143
-0.00576985
-0.0057402
-0.00570122
-0.00565161
-0.00559008
-0.00551547
-0.00542682
-0.00532347
-0.00520498
-0.00507117
-0.0049229
-0.00476332
-0.00460326
-0.00447284
-0.00435718
-0.00179096
-0.000345393
-0.000369603
0.000477645
0.00154369
-0.00158307
-0.00253871
-0.00227231
-0.00198346
-0.00173311
-0.0015138
-0.0013266
-0.00117243
-0.00105302
-0.00096774
-0.00091268
-0.000881144
-0.000864439
-0.000852602
-0.000835296
-0.000802626
-0.00577187
-0.00578361
-0.00579585
-0.00580743
-0.00581862
-0.00582945
-0.00583968
-0.00584899
-0.00585689
-0.00586283
-0.00586609
-0.00586585
-0.00586115
-0.00585086
-0.00583376
-0.00580855
-0.00577389
-0.00572843
-0.00567089
-0.0056001
-0.00551512
-0.00541497
-0.00529838
-0.00516405
-0.00501098
-0.00483877
-0.00464403
-0.00442931
-0.00444828
-0.00179211
-0.000790481
-0.00131844
-0.00222262
-0.00244175
-0.00282708
-0.00253621
-0.00219708
-0.00190376
-0.00163909
-0.00140319
-0.00120583
-0.00105315
-0.000950363
-0.000897879
-0.000889785
-0.000915416
-0.000960978
-0.00101063
-0.00104756
-0.0010557
-0.00578799
-0.00580116
-0.00581517
-0.00582874
-0.00584224
-0.00585573
-0.00586898
-0.00588163
-0.00589322
-0.00590314
-0.00591067
-0.00591492
-0.00591487
-0.00590935
-0.00589708
-0.00587673
-0.00584695
-0.00580643
-0.00575394
-0.0056885
-0.00560913
-0.00551443
-0.00540259
-0.0052713
-0.00511754
-0.00493735
-0.00471384
-0.00437235
-0.00379415
-0.0035361
-0.00358934
-0.00306847
-0.00283422
-0.00278784
-0.00270635
-0.00243327
-0.00208637
-0.00180481
-0.00151544
-0.0012541
-0.0010386
-0.000885447
-0.00080721
-0.000805718
-0.000870363
-0.000983007
-0.00112165
-0.00126148
-0.00137602
-0.00143977
-0.00580177
-0.00581626
-0.00583193
-0.00584743
-0.00586321
-0.00587934
-0.00589562
-0.00591167
-0.00592702
-0.00594104
-0.00595296
-0.00596187
-0.00596668
-0.00596617
-0.00595906
-0.00594401
-0.00591972
-0.00588499
-0.00583886
-0.00578054
-0.00570904
-0.005623
-0.00552081
-0.00540034
-0.005259
-0.00508214
-0.00488323
-0.00470493
-0.00417874
-0.00432572
-0.0034119
-0.00328242
-0.0031107
-0.00290154
-0.00266979
-0.00236729
-0.00202956
-0.00168669
-0.001355
-0.00105065
-0.000801904
-0.000642771
-0.00059938
-0.000675179
-0.000848217
-0.00108701
-0.00135773
-0.00162384
-0.0018457
-0.00198437
-0.00581286
-0.00582853
-0.00584572
-0.00586306
-0.00588103
-0.00589977
-0.00591906
-0.00593852
-0.00595767
-0.00597585
-0.00599228
-0.00600597
-0.00601581
-0.00602054
-0.00601889
-0.00600956
-0.00599136
-0.00596333
-0.00592484
-0.00587531
-0.00581397
-0.00573997
-0.00565217
-0.00554691
-0.00542283
-0.00525386
-0.00490878
-0.00361999
-0.00247749
-0.00176942
-0.00385989
-0.003821
-0.00340979
-0.00306389
-0.00271791
-0.00233893
-0.00194193
-0.0015423
-0.00114658
-0.000772735
-0.000465181
-0.000287623
-0.000292936
-0.000483472
-0.000815426
-0.00123062
-0.0016807
-0.00211706
-0.00248426
-0.00272443
-0.00582093
-0.00583757
-0.00585611
-0.00587514
-0.00589521
-0.00591648
-0.00593872
-0.00596157
-0.00598452
-0.0060069
-0.00602788
-0.00604645
-0.00606145
-0.00607163
-0.0060757
-0.00607246
-0.0060609
-0.00604038
-0.00601059
-0.00597128
-0.00592245
-0.00586469
-0.0057992
-0.00572554
-0.00564576
-0.00554113
-0.00456206
-0.00307032
-0.00285707
-0.00244838
-0.00431524
-0.0041195
-0.00365466
-0.00321435
-0.00277695
-0.00231398
-0.0018392
-0.00136461
-0.000884928
-0.00040582
7.336e-06
0.000231199
0.000157472
-0.00020745
-0.000763699
-0.00141744
-0.002102
-0.00276292
-0.00332685
-0.00370608
-0.00582559
-0.00584298
-0.00586264
-0.0058832
-0.00590523
-0.00592891
-0.00595402
-0.00598018
-0.00600689
-0.00603346
-0.00605902
-0.00608251
-0.00610277
-0.00611854
-0.00612857
-0.00613174
-0.00612726
-0.00611479
-0.00609423
-0.00606578
-0.00603052
-0.00599088
-0.00595131
-0.00591767
-0.00589427
-0.00588689
-0.00473975
-0.00275861
-0.00345571
-0.00435802
-0.00463373
-0.00432403
-0.00389375
-0.00327295
-0.00285135
-0.00228547
-0.00171757
-0.00114839
-0.000592465
4.33971e-05
0.000655646
0.000994278
0.000823185
0.000193795
-0.000686858
-0.00164739
-0.00262549
-0.00358174
-0.00441843
-0.00498685
-0.00582645
-0.00584431
-0.00586485
-0.00588673
-0.00591054
-0.00593647
-0.00596431
-0.0059937
-0.0060241
-0.0060548
-0.00608491
-0.00611335
-0.00613894
-0.00616043
-0.00617659
-0.00618643
-0.00618935
-0.0061851
-0.00617369
-0.00615574
-0.00613303
-0.00610894
-0.0060887
-0.00607885
-0.00608993
-0.006167
-0.00608715
-0.00352661
-0.00552575
-0.00528149
-0.0050413
-0.00467404
-0.00411868
-0.00343017
-0.00280124
-0.00226035
-0.00159439
-0.000978801
-0.000340737
0.000533483
0.00154066
0.00215538
0.00185883
0.000807494
-0.000585846
-0.00191118
-0.00323636
-0.00458732
-0.00582629
-0.00664657
-0.00582311
-0.00584113
-0.00586225
-0.0058852
-0.00591057
-0.00593856
-0.00596898
-0.00600144
-0.00603542
-0.00607017
-0.00610479
-0.00613817
-0.00616914
-0.00619644
-0.0062189
-0.00623564
-0.00624615
-0.00625014
-0.00624757
-0.00623931
-0.00622746
-0.00621534
-0.00620726
-0.00620842
-0.00622847
-0.00627978
-0.00633544
-0.00608256
-0.00561645
-0.00575633
-0.00559254
-0.00515284
-0.00463448
-0.00384072
-0.00312277
-0.00227138
-0.00146575
-0.000856764
-0.000276987
0.000956789
0.00280148
0.00404606
0.00353624
0.00158591
-0.000490865
-0.00222994
-0.00390936
-0.00579467
-0.00767863
-0.00880843
-0.00581513
-0.00583295
-0.00585433
-0.00587806
-0.00590475
-0.00593457
-0.00596736
-0.00600273
-0.00604013
-0.00607883
-0.00611788
-0.00615619
-0.00619257
-0.00622578
-0.00625472
-0.00627856
-0.00629682
-0.00630904
-0.00631509
-0.00631587
-0.00631359
-0.00631147
-0.0063135
-0.00632475
-0.00635273
-0.00640181
-0.006461
-0.00653324
-0.00666557
-0.00658448
-0.00624107
-0.0057503
-0.00519015
-0.00438122
-0.00338564
-0.00226436
-0.00126118
-0.00081693
-0.00073094
0.00102245
0.00463233
0.00740853
0.00638249
0.00256386
-0.000665626
-0.00272345
-0.00457088
-0.00715666
-0.0101268
-0.0115991
-0.00580203
-0.0058193
-0.00584057
-0.00586476
-0.00589248
-0.00592389
-0.00595881
-0.00599688
-0.00603754
-0.00608005
-0.00612345
-0.00616666
-0.00620848
-0.00624773
-0.00628332
-0.00631449
-0.00634067
-0.00636122
-0.00637583
-0.00638526
-0.00639154
-0.00639766
-0.00640736
-0.00642558
-0.00645959
-0.0065197
-0.00661472
-0.00678616
-0.00571944
-0.00483176
-0.00595092
-0.005764
-0.00594649
-0.00495967
-0.00370975
-0.00216461
-0.000711921
-0.000732537
-0.00241158
-0.000226421
0.00731753
0.0136701
0.011391
0.00449285
-0.00133048
-0.00299457
-0.00441802
-0.00809054
-0.0128918
-0.0147767
-0.00578332
-0.00579964
-0.00582041
-0.00584474
-0.00587318
-0.00590589
-0.0059427
-0.00598324
-0.00602696
-0.00607312
-0.00612077
-0.00616883
-0.00621615
-0.00626155
-0.00630401
-0.0063428
-0.00637723
-0.00640639
-0.00642974
-0.00644775
-0.00646193
-0.00647462
-0.00648854
-0.006507
-0.00653498
-0.00658057
-0.00665356
-0.00674001
-0.00652169
0.000408491
0.000721912
-0.00101749
-0.00623511
-0.0056654
-0.00423408
-0.0018629
0.000772085
-8.71751e-05
-0.00654602
-0.00371285
0.0107971
0.0258802
0.0201411
0.00413181
-0.0029783
-0.00148357
-0.000946223
-0.00689792
-0.015715
-0.0185199
-0.00575849
-0.00577346
-0.00579333
-0.00581744
-0.00584628
-0.00587999
-0.0059184
-0.00596116
-0.00600774
-0.00605737
-0.00610915
-0.00616202
-0.00621486
-0.00626656
-0.00631615
-0.00636292
-0.0064061
-0.0064445
-0.00647721
-0.0065043
-0.00652671
-0.00654595
-0.00656389
-0.00658288
-0.00660748
-0.0066458
-0.00670948
-0.00681548
-0.0070094
-0.00655327
-0.00406287
-0.00103774
-0.00289472
-0.00771858
-0.00577478
-0.00176659
0.00432061
0.00238425
-0.015836
-0.0156233
0.0157131
0.0515857
0.0376574
0.00672948
-0.00325721
0.00604998
0.0119893
-0.00493003
-0.0428439
-0.0506588
-0.00572699
-0.00574021
-0.00575879
-0.00578233
-0.00581124
-0.00584563
-0.00588535
-0.00593006
-0.00597924
-0.00603216
-0.00608792
-0.00614553
-0.00620393
-0.00626208
-0.00631907
-0.00637429
-0.00642693
-0.00647556
-0.00651883
-0.00655626
-0.00658825
-0.00661568
-0.00663976
-0.00666218
-0.00668679
-0.00672159
-0.00678368
-0.00690017
-0.00707284
-0.00720435
-0.00762995
-0.0107786
-0.00850187
-0.0127275
-0.0101991
-0.00445929
0.013144
0.0185922
-0.0354445
-0.0422006
0.0458211
0.117864
0.0858252
0.00356919
-0.0329884
-0.052931
-0.00913878
-0.0992036
2.2081
4.29993
-0.00568828
-0.00569937
-0.00571627
-0.00573888
-0.00576752
-0.00580227
-0.00584299
-0.00588937
-0.0059409
-0.00599687
-0.00605644
-0.0061187
-0.00618267
-0.0062474
-0.00631212
-0.00637631
-0.00643927
-0.00649945
-0.00655512
-0.00660526
-0.00664979
-0.00668925
-0.00672433
-0.00675556
-0.00678554
-0.00682201
-0.00688263
-0.00699204
-0.00720847
-0.00760737
-0.00858984
-0.0107375
-0.0149059
-0.0140947
-0.0175819
0.000184127
0.00896133
0.0724168
0.0301966
0.194281
-0.00949087
0.37469
0.409308
0.943355
1.77717
1.1408
12.5603
37.6073
50.8835
53.8331
-0.00564182
-0.00565044
-0.00566528
-0.00568662
-0.00571465
-0.00574944
-0.00579085
-0.0058386
-0.00589219
-0.00595097
-0.00601416
-0.00608094
-0.00615044
-0.00622188
-0.00629463
-0.00636834
-0.00644261
-0.00651602
-0.00658663
-0.00665311
-0.00671506
-0.00677253
-0.00682528
-0.00687253
-0.00691476
-0.00695442
-0.00699992
-0.00707329
-0.00721404
-0.00754324
-0.00841629
-0.010478
-0.0148386
-0.0124939
0.00335247
0.0386947
0.0464763
0.0277071
0.0593205
0.0279178
-0.618548
0.343369
0.047877
8.80241
31.8005
40.6857
39.0054
43.8761
48.4627
49.3322
-0.00558709
-0.0055929
-0.00560537
-0.00562511
-0.00565222
-0.00568673
-0.00572852
-0.00577733
-0.00583269
-0.00589401
-0.00596059
-0.0060317
-0.00610666
-0.00618488
-0.00626596
-0.00634981
-0.00643647
-0.00652503
-0.00661362
-0.00670071
-0.00678571
-0.00686832
-0.00694925
-0.00702329
-0.00708989
-0.00714143
-0.00714223
-0.00714691
-0.00707362
-0.00695678
-0.00695226
-0.00735101
-0.00874792
-0.000874338
0.0560816
0.0585503
0.0497393
0.041177
0.112398
0.359118
3.40349
11.3406
19.2761
34.1299
39.5377
39.9326
40.4591
42.7312
44.928
45.5878
-0.00552358
-0.00552635
-0.00553613
-0.00555398
-0.00557987
-0.00561378
-0.00565564
-0.00570518
-0.00576199
-0.00582555
-0.00589524
-0.00597047
-0.00605074
-0.00613577
-0.00622551
-0.00632018
-0.00642034
-0.00652604
-0.00663592
-0.00674842
-0.00686261
-0.00697655
-0.00709974
-0.00721525
-0.00732421
-0.00733205
-0.00743031
-0.00734366
-0.00702153
-0.00625412
-0.00475451
-0.00185426
0.00523884
0.00675006
0.0193543
0.0732879
0.0508021
0.0544458
0.0392712
3.99644
13.9656
28.0927
33.5817
35.3884
37.6687
38.9774
40.1493
41.6215
42.8827
43.3697
-0.00545089
-0.00545042
-0.00545728
-0.00547296
-0.00549734
-0.00553036
-0.00557193
-0.00562185
-0.00567976
-0.00574521
-0.00581766
-0.00589668
-0.00598202
-0.00607377
-0.00617236
-0.00627856
-0.00639342
-0.00651806
-0.00665251
-0.00679547
-0.00694555
-0.00710363
-0.00726491
-0.00743972
-0.00761995
-0.00777072
-0.00786641
-0.00782549
-0.00750228
-0.00657462
-0.0045001
-8.59661e-05
0.0144257
0.0466399
0.0441712
0.116076
0.0287919
0.0528253
5.29687
21.374
32.1646
34.4634
34.5609
35.6612
37.127
38.4157
39.6341
40.738
41.5925
41.9717
-0.00536868
-0.00536484
-0.0053686
-0.00538192
-0.00540454
-0.00543635
-0.0054773
-0.00552725
-0.00558589
-0.00565281
-0.00572759
-0.00580995
-0.00589995
-0.00599813
-0.00610553
-0.00622368
-0.00635439
-0.00649962
-0.00666085
-0.00683778
-0.00703131
-0.00724375
-0.0072305
-0.00768078
-0.00797507
-0.00822731
-0.00845273
-0.00860983
-0.0087149
-0.00880414
-0.0090551
-0.00990318
-0.0109141
0.0615535
0.139679
0.161935
0.0366673
4.78992
21.9755
31.394
33.5295
34.6024
35.0565
35.9757
37.0784
38.1971
39.244
40.1372
40.7857
41.0938
-0.00527671
-0.00526947
-0.00527004
-0.00528082
-0.00530145
-0.00533177
-0.0053718
-0.00542144
-0.00548042
-0.00554838
-0.005625
-0.00571018
-0.0058043
-0.0059084
-0.00602426
-0.00615431
-0.00630133
-0.00646811
-0.00665726
-0.00687032
-0.00710917
-0.00736903
-0.00766483
-0.00798318
-0.00833973
-0.00867997
-0.00903564
-0.0093483
-0.0097992
-0.0108061
-0.0133391
-0.0201238
-0.0422329
0.174554
0.115213
0.588795
3.21412
18.0219
31.9485
33.7321
34.7325
35.4013
35.7789
36.4679
37.3367
38.2446
39.0961
39.8096
40.3183
40.5723
-0.00517489
-0.00516427
-0.00516161
-0.00516974
-0.00518819
-0.00521679
-0.00525561
-0.0053046
-0.00536355
-0.00543212
-0.00551007
-0.00559747
-0.00569503
-0.00580434
-0.00592798
-0.00606938
-0.00623239
-0.00642074
-0.00663782
-0.00688654
-0.00716796
-0.00748402
-0.00784949
-0.00826533
-0.00880117
-0.00907737
-0.00945055
-0.00969541
-0.00985836
-0.0100702
-0.0106155
-0.0126894
-0.00730558
-0.0166691
-0.247355
2.39323
9.49657
28.6149
34.1696
34.7736
35.5111
36.0757
36.5057
37.0815
37.7686
38.4732
39.1344
39.6852
40.0789
40.2848
-0.00506324
-0.00504935
-0.00504348
-0.00504889
-0.00506501
-0.00509169
-0.00512905
-0.00517711
-0.00523566
-0.00530441
-0.00538317
-0.00547216
-0.00557236
-0.00568593
-0.00581629
-0.00596792
-0.00614578
-0.00635452
-0.00659802
-0.00687978
-0.00720301
-0.00756798
-0.0079991
-0.00852775
-0.0086906
-0.00837627
-0.0100405
-0.00988866
-0.00957191
-0.00870654
-0.00637811
-0.00167995
0.0102036
0.0572695
0.325503
7.79912
27.5621
34.482
34.9446
35.42
36.029
36.6183
37.1459
37.6889
38.2463
38.7871
39.272
39.6776
39.9714
40.1327
-0.00494189
-0.00492492
-0.00491593
-0.00491861
-0.00493231
-0.00495691
-0.00499262
-0.00503948
-0.00509732
-0.00516585
-0.0052449
-0.00533477
-0.00543672
-0.0055534
-0.00568905
-0.00584916
-0.00603971
-0.0062661
-0.00653223
-0.00684062
-0.00719364
-0.00759282
-0.00804729
-0.00855179
-0.00888264
-0.00647569
-0.00737925
-0.00984294
-0.0102027
-0.0101868
-0.00988601
-0.00575912
0.00596367
0.0554885
0.141935
10.9997
37.9743
36.6005
36.2221
36.3643
36.7443
37.2419
37.7524
38.2385
38.6842
39.083
39.43
39.7164
39.9265
40.0478
-0.00481116
-0.00479134
-0.0047794
-0.00477939
-0.00479063
-0.00481305
-0.00484693
-0.00489237
-0.00494923
-0.00501718
-0.00509602
-0.00518607
-0.00528878
-0.00540723
-0.00554638
-0.00571265
-0.005913
-0.00615343
-0.00643763
-0.00676686
-0.00714156
-0.00756309
-0.00803651
-0.00857633
-0.00919677
-0.00860825
-0.00852512
-0.00975129
-0.0109072
-0.0119856
-0.0130839
-0.0164615
-0.0160346
-0.0762557
2.63894
29.6109
38.8837
38.2017
37.662
37.4887
37.6227
37.9471
38.3412
38.7213
39.0542
39.335
39.5707
39.7633
39.9071
39.9946
-0.00467151
-0.00464915
-0.00463447
-0.00463186
-0.00464065
-0.00466082
-0.00469274
-0.00473657
-0.0047922
-0.00485925
-0.00493741
-0.00502696
-0.0051294
-0.00524812
-0.00538863
-0.00555822
-0.00576472
-0.00601464
-0.00631149
-0.00665549
-0.00704542
-0.00748267
-0.00797441
-0.00853375
-0.00915292
-0.00975831
-0.0105492
-0.011465
-0.0112733
-0.0126715
-0.0147791
-0.0189379
-0.0217691
-0.115223
14.0083
42.8389
41.3936
39.9873
39.1143
38.652
38.5396
38.659
38.894
39.1375
39.3545
39.5339
39.6821
39.8043
39.8986
39.9599
-0.00452353
-0.00449899
-0.00448185
-0.00447678
-0.00448316
-0.00450103
-0.00453087
-0.00457295
-0.00462715
-0.00469302
-0.0047701
-0.00485849
-0.00495963
-0.00507696
-0.0052164
-0.0053859
-0.00559406
-0.00584792
-0.00615097
-0.00650279
-0.00690167
-0.00735011
-0.00786031
-0.0084548
-0.00915583
-0.00999945
-0.0111456
-0.0128105
-0.0149275
-0.0168964
-0.0181223
-0.0174512
-0.00661906
0.0142439
34.0701
45.8381
43.194
41.4865
40.3642
39.691
39.3741
39.3056
39.372
39.4822
39.5913
39.6855
39.7671
39.8385
39.8977
39.94
-0.0043679
-0.00434158
-0.0043223
-0.00431497
-0.00431899
-0.00433454
-0.00436223
-0.00440242
-0.00445503
-0.00451949
-0.00459516
-0.00468182
-0.0047806
-0.00489482
-0.00503051
-0.00519604
-0.00540059
-0.0056517
-0.005953
-0.00630385
-0.0067026
-0.00715331
-0.00767314
-0.00829531
-0.00906576
-0.0100465
-0.0113452
-0.013079
-0.0152271
-0.0175053
-0.0190318
-0.0183114
-0.0291806
0.326299
44.7626
46.366
44.2046
42.5101
41.2861
40.4828
40.0243
39.8128
39.7462
39.7453
39.7675
39.7966
39.8304
39.8674
39.903
39.9323
-0.00420547
-0.00417777
-0.00415666
-0.00414723
-0.00414898
-0.0041622
-0.00418766
-0.00422586
-0.00427671
-0.00433959
-0.00441354
-0.00449794
-0.00459341
-0.00470281
-0.00483198
-0.00498936
-0.00518447
-0.00542528
-0.00571565
-0.00605499
-0.00644201
-0.00688226
-0.00739675
-0.00802537
-0.00882392
-0.00986004
-0.0112236
-0.0130237
-0.0153475
-0.0180153
-0.0200528
-0.0201936
-0.0518202
3.10192
47.1878
46.7935
44.7955
43.1079
41.8399
40.9715
40.4344
40.1375
39.9881
39.9157
39.8815
39.8693
39.8735
39.8896
39.911
39.932
-0.00102457
-0.000925287
-0.00082786
-0.000732313
-0.000638714
-0.000547179
-0.000457865
-0.000370991
-0.000286818
-0.000205637
-0.000127798
-5.36616e-05
1.64131e-05
8.20574e-05
0.000142942
0.000198736
0.00024922
0.000294201
0.0003336
0.00036738
0.000395614
0.000418395
0.000435945
0.000448478
0.000456323
0.000459837
0.000459359
0.000455298
0.00044807