/*--------------------------------*- C++ -*----------------------------------*\
| =========                 |                                                 |
| \\      /  F ield         | OpenFOAM: The Open Source CFD Toolbox           |
|  \\    /   O peration     | Version:  2.4.0                                 |
|   \\  /    A nd           | Web:      www.OpenFOAM.org                      |
|    \\/     M anipulation  |                                                 |
\*---------------------------------------------------------------------------*/
FoamFile
{
    version     2.0;
    format      ascii;
    class       volScalarField;
    location    "0.016";
    object      p;
}
// * * * * * * * * * * * * * * * * * * * * * * * * * * * * * * * * * * * * * //

dimensions      [1 -1 -2 0 0 0 0];

internalField   nonuniform List<scalar> 
10000
(
-0.0241488
-0.0241474
-0.0241422
-0.0241328
-0.0241192
-0.0241012
-0.0240789
-0.0240522
-0.0240213
-0.0239862
-0.023947
-0.0239037
-0.0238565
-0.0238055
-0.0237507
-0.0236923
-0.0236302
-0.0235645
-0.0234952
-0.0234223
-0.0233458
-0.0232659
-0.0231825
-0.023096
-0.0230065
-0.022914
-0.0228189
-0.0227214
-0.0226219
-0.0225207
-0.0224183
-0.022315
-0.0222114
-0.0221078
-0.0220047
-0.0219028
-0.0218025
-0.0217042
-0.0216087
-0.0215164
-0.0214275
-0.0213428
-0.0212625
-0.021187
-0.0211164
-0.0210508
-0.0209904
-0.020935
-0.0208847
-0.0208393
-0.0241509
-0.0241494
-0.0241441
-0.0241346
-0.0241209
-0.0241029
-0.0240807
-0.0240542
-0.0240235
-0.0239886
-0.0239497
-0.0239068
-0.0238601
-0.0238096
-0.0237554
-0.0236976
-0.0236361
-0.023571
-0.0235023
-0.02343
-0.0233541
-0.0232748
-0.023192
-0.0231058
-0.0230164
-0.0229241
-0.022829
-0.0227315
-0.0226319
-0.0225304
-0.0224275
-0.0223236
-0.0222191
-0.0221146
-0.0220105
-0.0219074
-0.0218057
-0.0217062
-0.0216094
-0.0215156
-0.0214256
-0.0213398
-0.0212585
-0.0211821
-0.0211108
-0.0210448
-0.0209841
-0.0209288
-0.0208787
-0.0208337
-0.0241579
-0.0241566
-0.0241513
-0.0241418
-0.0241282
-0.0241105
-0.0240885
-0.0240624
-0.0240322
-0.023998
-0.0239597
-0.0239176
-0.0238717
-0.0238221
-0.0237688
-0.0237118
-0.0236511
-0.0235867
-0.0235188
-0.0234471
-0.0233718
-0.0232928
-0.0232103
-0.0231243
-0.0230349
-0.0229424
-0.022847
-0.0227489
-0.0226483
-0.0225457
-0.0224415
-0.022336
-0.0222297
-0.0221232
-0.0220171
-0.0219119
-0.0218082
-0.0217067
-0.0216081
-0.0215126
-0.0214212
-0.0213342
-0.0212522
-0.0211754
-0.021104
-0.0210383
-0.0209783
-0.020924
-0.0208752
-0.0208319
-0.0241704
-0.0241694
-0.0241644
-0.0241552
-0.0241419
-0.0241246
-0.0241032
-0.0240778
-0.0240484
-0.024015
-0.0239778
-0.0239369
-0.0238922
-0.0238437
-0.0237916
-0.0237358
-0.0236762
-0.0236128
-0.0235457
-0.0234747
-0.0233999
-0.0233213
-0.0232389
-0.0231527
-0.0230629
-0.0229697
-0.0228732
-0.0227736
-0.0226713
-0.0225666
-0.0224599
-0.0223517
-0.0222425
-0.022133
-0.0220238
-0.0219156
-0.021809
-0.0217048
-0.0216035
-0.0215064
-0.0214136
-0.0213257
-0.0212432
-0.0211664
-0.0210957
-0.0210312
-0.0209728
-0.0209207
-0.0208745
-0.020834
-0.0241885
-0.0241878
-0.0241832
-0.0241744
-0.0241617
-0.024145
-0.0241244
-0.0241
-0.0240717
-0.0240396
-0.0240038
-0.0239644
-0.0239212
-0.0238743
-0.0238236
-0.0237692
-0.0237109
-0.0236487
-0.0235825
-0.0235123
-0.0234379
-0.0233594
-0.0232768
-0.0231901
-0.0230994
-0.0230048
-0.0229064
-0.0228046
-0.0226995
-0.0225917
-0.0224814
-0.0223695
-0.0222563
-0.0221428
-0.0220296
-0.0219174
-0.0218072
-0.0216997
-0.0215958
-0.0214963
-0.0214018
-0.0213128
-0.02123
-0.0211536
-0.021084
-0.0210212
-0.0209654
-0.0209163
-0.0208737
-0.0208372
-0.0242123
-0.0242119
-0.0242077
-0.0241995
-0.0241874
-0.0241716
-0.0241521
-0.0241289
-0.0241021
-0.0240716
-0.0240375
-0.0239998
-0.0239584
-0.0239133
-0.0238644
-0.0238115
-0.0237547
-0.0236937
-0.0236284
-0.0235588
-0.0234848
-0.0234062
-0.0233231
-0.0232353
-0.0231431
-0.0230464
-0.0229454
-0.0228404
-0.0227316
-0.0226196
-0.0225048
-0.0223881
-0.02227
-0.0221514
-0.0220332
-0.0219164
-0.0218018
-0.0216904
-0.0215832
-0.021481
-0.0213845
-0.0212943
-0.0212111
-0.0211353
-0.021067
-0.0210065
-0.0209537
-0.0209082
-0.0208699
-0.0208382
-0.0242416
-0.0242416
-0.0242378
-0.0242303
-0.0242192
-0.0242044
-0.0241862
-0.0241645
-0.0241393
-0.0241107
-0.0240785
-0.0240428
-0.0240035
-0.0239604
-0.0239133
-0.0238622
-0.0238068
-0.0237471
-0.0236827
-0.0236136
-0.0235396
-0.0234606
-0.0233765
-0.0232872
-0.0231927
-0.0230932
-0.0229888
-0.0228796
-0.0227663
-0.0226491
-0.0225289
-0.0224064
-0.0222825
-0.022158
-0.0220341
-0.0219118
-0.0217922
-0.0216763
-0.0215652
-0.0214598
-0.021361
-0.0212695
-0.0211858
-0.0211105
-0.0210437
-0.0209855
-0.0209358
-0.0208945
-0.0208609
-0.0208346
-0.0242764
-0.0242767
-0.0242736
-0.0242668
-0.0242567
-0.0242433
-0.0242266
-0.0242066
-0.0241833
-0.0241567
-0.0241267
-0.0240932
-0.0240561
-0.0240151
-0.02397
-0.0239207
-0.0238668
-0.0238081
-0.0237445
-0.0236757
-0.0236015
-0.0235216
-0.023436
-0.0233446
-0.0232473
-0.0231442
-0.0230355
-0.0229215
-0.0228026
-0.0226796
-0.0225531
-0.0224241
-0.0222935
-0.0221624
-0.022032
-0.0219036
-0.0217783
-0.0216573
-0.0215419
-0.021433
-0.0213315
-0.0212383
-0.0211539
-0.0210789
-0.0210133
-0.0209574
-0.020911
-0.0208737
-0.020845
-0.0208244
-0.0243165
-0.0243172
-0.0243147
-0.0243089
-0.0243
-0.024288
-0.024273
-0.0242549
-0.0242337
-0.0242094
-0.0241817
-0.0241506
-0.0241157
-0.0240769
-0.0240339
-0.0239863
-0.0239338
-0.0238762
-0.0238131
-0.0237444
-0.0236695
-0.0235884
-0.0235008
-0.0234067
-0.0233059
-0.0231986
-0.023085
-0.0229655
-0.0228405
-0.0227109
-0.0225774
-0.0224411
-0.0223032
-0.0221648
-0.0220274
-0.0218922
-0.0217607
-0.0216342
-0.0215139
-0.021401
-0.0212965
-0.0212012
-0.0211158
-0.0210406
-0.0209761
-0.0209221
-0.0208786
-0.0208453
-0.0208216
-0.0208067
-0.0243618
-0.024363
-0.0243612
-0.0243564
-0.0243488
-0.0243385
-0.0243253
-0.0243093
-0.0242904
-0.0242684
-0.0242432
-0.0242145
-0.024182
-0.0241454
-0.0241044
-0.0240584
-0.0240073
-0.0239506
-0.0238879
-0.0238188
-0.0237431
-0.0236603
-0.0235704
-0.023473
-0.0233684
-0.0232564
-0.0231374
-0.0230118
-0.0228802
-0.0227434
-0.0226024
-0.0224583
-0.0223124
-0.0221662
-0.0220211
-0.0218787
-0.0217405
-0.0216079
-0.0214823
-0.0213649
-0.0212568
-0.0211588
-0.0210717
-0.0209959
-0.0209318
-0.0208794
-0.0208387
-0.0208093
-0.0207905
-0.0207816
-0.0244121
-0.0244137
-0.0244127
-0.0244091
-0.024403
-0.0243944
-0.0243832
-0.0243694
-0.0243529
-0.0243334
-0.0243107
-0.0242845
-0.0242544
-0.0242201
-0.0241809
-0.0241366
-0.0240867
-0.0240307
-0.0239681
-0.0238986
-0.0238217
-0.023737
-0.0236444
-0.0235437
-0.0234348
-0.0233178
-0.0231931
-0.023061
-0.0229224
-0.022778
-0.0226289
-0.0224765
-0.0223222
-0.0221675
-0.0220143
-0.021864
-0.0217184
-0.0215791
-0.0214474
-0.0213246
-0.0212121
-0.0211106
-0.021021
-0.0209439
-0.0208797
-0.0208286
-0.0207905
-0.0207651
-0.0207517
-0.0207494
-0.024467
-0.0244692
-0.0244691
-0.0244667
-0.0244622
-0.0244554
-0.0244464
-0.024435
-0.0244209
-0.024404
-0.0243839
-0.0243602
-0.0243325
-0.0243003
-0.0242631
-0.0242204
-0.0241715
-0.0241161
-0.0240536
-0.0239834
-0.0239052
-0.0238186
-0.0237232
-0.0236189
-0.0235056
-0.0233835
-0.0232528
-0.0231141
-0.022968
-0.0228155
-0.0226579
-0.0224966
-0.0223333
-0.0221696
-0.0220074
-0.0218484
-0.0216945
-0.0215472
-0.0214082
-0.0212789
-0.0211605
-0.0210542
-0.0209612
-0.020882
-0.0208174
-0.0207675
-0.0207325
-0.0207118
-0.0207049
-0.0207105
-0.0245264
-0.0245291
-0.02453
-0.0245289
-0.0245261
-0.0245213
-0.0245145
-0.0245055
-0.024494
-0.0244797
-0.0244622
-0.024441
-0.0244157
-0.0243857
-0.0243504
-0.0243092
-0.0242614
-0.0242066
-0.0241441
-0.0240733
-0.0239938
-0.0239052
-0.0238071
-0.0236993
-0.0235817
-0.0234543
-0.0233175
-0.0231717
-0.0230178
-0.0228568
-0.0226901
-0.0225193
-0.0223461
-0.0221724
-0.0220001
-0.021831
-0.0216671
-0.0215102
-0.0213619
-0.021224
-0.0210981
-0.0209857
-0.020888
-0.0208062
-0.020741
-0.0206929
-0.0206619
-0.0206474
-0.0206486
-0.0206641
-0.0245899
-0.0245932
-0.0245951
-0.0245955
-0.0245943
-0.0245916
-0.0245871
-0.0245806
-0.0245717
-0.02456
-0.0245452
-0.0245266
-0.0245037
-0.0244758
-0.0244424
-0.0244027
-0.0243561
-0.0243019
-0.0242395
-0.0241683
-0.0240878
-0.0239975
-0.0238968
-0.0237856
-0.0236636
-0.0235309
-0.0233877
-0.0232346
-0.0230724
-0.0229023
-0.0227257
-0.0225444
-0.0223602
-0.022175
-0.0219907
-0.0218095
-0.0216332
-0.021464
-0.0213039
-0.0211551
-0.0210196
-0.0208993
-0.0207962
-0.0207115
-0.0206462
-0.0206009
-0.0205754
-0.0205691
-0.0205806
-0.0206082
-0.0246571
-0.024661
-0.024664
-0.0246658
-0.0246665
-0.0246659
-0.0246637
-0.0246597
-0.0246535
-0.0246445
-0.0246323
-0.0246163
-0.0245958
-0.0245702
-0.0245388
-0.0245007
-0.0244554
-0.0244021
-0.0243401
-0.0242688
-0.0241876
-0.0240958
-0.0239928
-0.0238783
-0.023752
-0.0236137
-0.0234639
-0.0233029
-0.0231318
-0.0229518
-0.0227644
-0.0225713
-0.0223744
-0.0221755
-0.0219768
-0.0217803
-0.0215885
-0.0214038
-0.0212288
-0.0210664
-0.0209192
-0.0207899
-0.0206806
-0.0205932
-0.0205287
-0.0204877
-0.0204697
-0.0204738
-0.020498
-0.0205402
-0.0247276
-0.0247322
-0.0247363
-0.0247395
-0.024742
-0.0247436
-0.0247438
-0.0247423
-0.0247388
-0.0247325
-0.0247231
-0.0247097
-0.0246918
-0.0246685
-0.0246391
-0.0246029
-0.0245592
-0.0245071
-0.024446
-0.024375
-0.0242934
-0.0242004
-0.0240954
-0.0239777
-0.023847
-0.023703
-0.0235461
-0.0233769
-0.0231962
-0.0230054
-0.0228058
-0.0225991
-0.0223871
-0.0221718
-0.0219554
-0.0217402
-0.0215291
-0.0213252
-0.0211321
-0.0209534
-0.0207927
-0.0206532
-0.0205378
-0.0204484
-0.0203861
-0.020351
-0.0203426
-0.0203591
-0.0203982
-0.0204572
-0.0248008
-0.0248062
-0.0248114
-0.0248161
-0.0248205
-0.0248242
-0.0248268
-0.0248279
-0.024827
-0.0248236
-0.0248169
-0.0248063
-0.0247909
-0.0247702
-0.0247432
-0.0247092
-0.0246674
-0.024617
-0.0245571
-0.0244869
-0.0244054
-0.0243117
-0.0242047
-0.0240839
-0.0239486
-0.0237988
-0.0236346
-0.0234566
-0.0232657
-0.0230629
-0.0228496
-0.0226273
-0.0223977
-0.0221627
-0.0219247
-0.0216867
-0.0214522
-0.0212254
-0.021011
-0.0208136
-0.0206378
-0.0204878
-0.0203665
-0.020276
-0.0202172
-0.0201898
-0.0201926
-0.0202234
-0.0202793
-0.0203571
-0.0248764
-0.0248824
-0.0248888
-0.024895
-0.0249012
-0.024907
-0.024912
-0.0249158
-0.0249176
-0.024917
-0.0249132
-0.0249054
-0.0248929
-0.0248748
-0.0248505
-0.0248191
-0.0247797
-0.0247315
-0.0246735
-0.0246046
-0.0245235
-0.0244293
-0.0243206
-0.0241968
-0.0240571
-0.0239014
-0.0237298
-0.0235427
-0.023341
-0.0231253
-0.0228969
-0.0226567
-0.0224065
-0.0221482
-0.0218846
-0.0216194
-0.0213573
-0.0211038
-0.0208649
-0.0206467
-0.0204547
-0.0202937
-0.0201669
-0.0200761
-0.0200217
-0.0200031
-0.0200183
-0.0200647
-0.0201391
-0.020238
-0.0249536
-0.0249604
-0.0249678
-0.0249756
-0.0249836
-0.0249915
-0.0249989
-0.0250052
-0.0250099
-0.0250121
-0.0250112
-0.0250064
-0.0249969
-0.0249818
-0.0249605
-0.0249322
-0.0248958
-0.0248504
-0.0247947
-0.0247275
-0.0246474
-0.024553
-0.024443
-0.0243165
-0.0241727
-0.0240115
-0.0238329
-0.023637
-0.0234243
-0.0231951
-0.02295
-0.0226898
-0.0224158
-0.0221304
-0.0218368
-0.0215399
-0.0212458
-0.0209617
-0.0206951
-0.0204537
-0.0202442
-0.0200715
-0.0199388
-0.0198474
-0.0197974
-0.0197877
-0.0198159
-0.019879
-0.019974
-0.0200973
-0.0250318
-0.0250393
-0.0250478
-0.0250571
-0.0250669
-0.0250769
-0.0250866
-0.0250955
-0.0251029
-0.0251081
-0.0251102
-0.0251085
-0.0251022
-0.0250905
-0.0250727
-0.0250479
-0.025015
-0.0249729
-0.0249202
-0.0248553
-0.0247767
-0.0246827
-0.024572
-0.0244436
-0.0242968
-0.0241312
-0.0239465
-0.0237426
-0.0235193
-0.0232762
-0.0230133
-0.0227308
-0.0224299
-0.0221132
-0.0217849
-0.0214513
-0.0211204
-0.0208011
-0.020503
-0.0202352
-0.0200054
-0.019819
-0.0196788
-0.0195849
-0.019538
-0.0195367
-0.0195785
-0.0196603
-0.019779
-0.0199314
-0.0251104
-0.0251186
-0.0251282
-0.0251388
-0.0251503
-0.0251623
-0.0251744
-0.0251859
-0.025196
-0.0252041
-0.0252093
-0.0252109
-0.0252081
-0.0252001
-0.0251862
-0.0251655
-0.0251367
-0.0250985
-0.0250494
-0.0249875
-0.024911
-0.0248185
-0.0247083
-0.0245796
-0.0244315
-0.0242633
-0.0240745
-0.0238642
-0.0236313
-0.0233745
-0.0230927
-0.0227856
-0.0224542
-0.0221016
-0.0217334
-0.0213575
-0.0209839
-0.0206237
-0.0202885
-0.0199891
-0.0197343
-0.0195303
-0.0193791
-0.0192796
-0.0192337
-0.0192407
-0.0192977
-0.0194017
-0.0195493
-0.0197373
-0.0251885
-0.0251973
-0.0252079
-0.0252199
-0.025233
-0.025247
-0.0252613
-0.0252752
-0.0252881
-0.0252991
-0.0253075
-0.0253125
-0.0253134
-0.0253096
-0.0253
-0.0252839
-0.0252598
-0.0252263
-0.0251815
-0.0251236
-0.0250506
-0.024961
-0.0248535
-0.0247268
-0.0245801
-0.0244124
-0.0242222
-0.0240078
-0.0237668
-0.0234966
-0.0231949
-0.0228606
-0.0224949
-0.0221016
-0.0216875
-0.0212627
-0.020839
-0.02043
-0.0200492
-0.0197097
-0.0194225
-0.0191954
-0.0190297
-0.0189203
-0.0188742
-0.0188915
-0.0189682
-0.0191004
-0.0192842
-0.0195155
-0.0252654
-0.0252747
-0.0252863
-0.0252994
-0.0253141
-0.02533
-0.0253464
-0.0253627
-0.0253782
-0.0253921
-0.0254037
-0.0254123
-0.0254172
-0.0254178
-0.0254131
-0.0254022
-0.0253835
-0.0253555
-0.0253162
-0.0252636
-0.025196
-0.0251118
-0.0250097
-0.0248885
-0.024747
-0.0245835
-0.0243956
-0.02418
-0.0239328
-0.0236496
-0.0233269
-0.0229631
-0.0225593
-0.02212
-0.0216536
-0.0211717
-0.0206884
-0.0202191
-0.0197803
-0.0193884
-0.0190587
-0.0188036
-0.0186223
-0.0184987
-0.0184536
-0.0184873
-0.0185916
-0.0187604
-0.0189888
-0.0192713
-0.02534
-0.0253499
-0.0253623
-0.0253766
-0.0253927
-0.0254102
-0.0254286
-0.0254471
-0.0254651
-0.0254818
-0.0254966
-0.0255089
-0.0255182
-0.0255236
-0.0255243
-0.0255193
-0.0255069
-0.0254855
-0.0254531
-0.025408
-0.0253483
-0.0252727
-0.0251799
-0.0250685
-0.0249368
-0.0247821
-0.0246007
-0.0243872
-0.0241359
-0.0238406
-0.0234966
-0.0231015
-0.0226563
-0.0221661
-0.0216402
-0.0210913
-0.0205352
-0.01999
-0.0194759
-0.019015
-0.0186307
-0.0183466
-0.0181568
-0.0180119
-0.0179717
-0.0180328
-0.0181761
-0.0183909
-0.0186716
-0.0190117
-0.0254115
-0.0254219
-0.025435
-0.0254503
-0.0254676
-0.0254866
-0.0255068
-0.0255273
-0.0255476
-0.0255671
-0.0255851
-0.0256013
-0.0256151
-0.0256257
-0.0256325
-0.0256341
-0.0256292
-0.0256159
-0.0255925
-0.0255574
-0.025509
-0.025446
-0.025367
-0.0252705
-0.0251539
-0.0250132
-0.0248426
-0.0246351
-0.0243825
-0.0240771
-0.0237128
-0.0232864
-0.0227981
-0.0222525
-0.0216589
-0.0210305
-0.0203847
-0.0197427
-0.0191302
-0.0185783
-0.018125
-0.0178196
-0.0176416
-0.0174587
-0.0174291
-0.017536
-0.0177327
-0.0180025
-0.0183411
-0.0187432
-0.0254789
-0.0254896
-0.0255034
-0.0255195
-0.0255378
-0.0255581
-0.0255797
-0.025602
-0.0256245
-0.0256465
-0.0256678
-0.025688
-0.0257066
-0.0257231
-0.0257365
-0.0257459
-0.0257497
-0.0257465
-0.0257347
-0.0257128
-0.0256795
-0.0256336
-0.0255737
-0.0254976
-0.0254016
-0.0252801
-0.0251255
-0.0249284
-0.024679
-0.0243677
-0.023987
-0.0235321
-0.023001
-0.0223963
-0.0217257
-0.0210025
-0.0202455
-0.0194798
-0.0187381
-0.0180631
-0.0175226
-0.0172203
-0.0170881
-0.0168298
-0.0168155
-0.0170049
-0.0172776
-0.0176098
-0.0180086
-0.0184742
-0.025541
-0.0255521
-0.0255663
-0.025583
-0.0256022
-0.0256234
-0.0256461
-0.0256699
-0.0256943
-0.0257189
-0.0257435
-0.0257678
-0.0257916
-0.0258144
-0.0258354
-0.0258537
-0.0258681
-0.0258773
-0.0258799
-0.0258748
-0.0258608
-0.025837
-0.0258014
-0.0257512
-0.0256815
-0.0255849
-0.025452
-0.0252716
-0.0250322
-0.0247228
-0.0243337
-0.023857
-0.0232865
-0.0226198
-0.0218615
-0.021025
-0.0201301
-0.0192075
-0.018297
-0.0174429
-0.0167742
-0.0165492
-0.0165568
-0.016063
-0.0160839
-0.0164589
-0.0168424
-0.0172424
-0.0176995
-0.018224
-0.0255969
-0.0256081
-0.0256226
-0.0256397
-0.0256593
-0.0256812
-0.0257048
-0.0257298
-0.0257558
-0.0257828
-0.0258107
-0.0258394
-0.0258688
-0.0258985
-0.0259282
-0.025957
-0.0259839
-0.026008
-0.0260281
-0.0260434
-0.0260531
-0.026056
-0.0260499
-0.0260311
-0.0259932
-0.0259278
-0.0258237
-0.0256687
-0.0254499
-0.0251546
-0.0247703
-0.0242836
-0.0236809
-0.0229509
-0.022093
-0.0211217
-0.0200561
-0.0189324
-0.0178073
-0.0167233
-0.0156858
-0.015417
-0.0161098
-0.0144965
-0.015155
-0.0159789
-0.0164737
-0.0169548
-0.017464
-0.01803
-0.0256454
-0.0256566
-0.0256712
-0.0256884
-0.0257081
-0.0257302
-0.0257543
-0.0257802
-0.0258078
-0.0258371
-0.0258683
-0.0259016
-0.0259371
-0.0259747
-0.0260141
-0.026055
-0.0260965
-0.026138
-0.0261786
-0.0262178
-0.026255
-0.0262888
-0.0263169
-0.0263345
-0.0263345
-0.0263073
-0.0262412
-0.0261233
-0.0259399
-0.0256763
-0.0253155
-0.0248371
-0.0242158
-0.0234245
-0.0224544
-0.0213262
-0.0200518
-0.0186854
-0.0172398
-0.0155074
-0.0104967
-0.00386222
-0.00442857
-0.00778934
-0.0101934
-0.0153897
-0.0162435
-0.0168366
-0.0173781
-0.0179478
-0.0256853
-0.0256963
-0.0257108
-0.0257278
-0.0257473
-0.0257693
-0.0257935
-0.02582
-0.0258489
-0.0258804
-0.0259151
-0.0259533
-0.0259954
-0.0260417
-0.0260923
-0.0261467
-0.0262048
-0.0262659
-0.0263296
-0.0263956
-0.0264634
-0.0265318
-0.026598
-0.026657
-0.0267011
-0.0267206
-0.0267038
-0.0266379
-0.0265087
-0.0262993
-0.0259879
-0.0255445
-0.0249277
-0.0240848
-0.0229914
-0.0216869
-0.0201641
-0.0185187
-0.0165678
-0.0131761
-0.000750005
-0.00231678
-0.00723134
-0.00662745
-0.00876893
-0.0148926
-0.0164264
-0.0170241
-0.0175333
-0.0180323
-0.0257155
-0.0257262
-0.0257402
-0.0257567
-0.0257757
-0.0257971
-0.0258212
-0.025848
-0.025878
-0.0259117
-0.02595
-0.0259934
-0.0260428
-0.0260988
-0.0261614
-0.0262309
-0.026307
-0.0263894
-0.026478
-0.0265728
-0.0266736
-0.0267793
-0.0268871
-0.0269922
-0.0270872
-0.027163
-0.0272087
-0.0272121
-0.0271589
-0.0270314
-0.026805
-0.0264377
-0.025863
-0.0249892
-0.0237665
-0.0222656
-0.020447
-0.0184811
-0.0162486
-0.012498
-0.00736576
-0.00398731
-0.00150577
-0.00557447
-0.00636062
-0.0173889
-0.0173353
-0.0175133
-0.0178328
-0.0181036
-0.0257348
-0.025745
-0.0257584
-0.025774
-0.025792
-0.0258126
-0.0258362
-0.0258631
-0.0258941
-0.02593
-0.025972
-0.0260211
-0.0260783
-0.0261445
-0.0262203
-0.0263057
-0.0264007
-0.0265053
-0.0266196
-0.0267442
-0.0268792
-0.027024
-0.0271765
-0.0273324
-0.0274854
-0.0276277
-0.0277498
-0.0278404
-0.0278864
-0.0278708
-0.0277748
-0.0275569
-0.027097
-0.0261981
-0.0248343
-0.0231284
-0.0209638
-0.0188204
-0.0164745
-0.010412
0.000122191
0.00235077
-0.000158209
-0.00343048
-0.000290956
-0.0147569
-0.0173778
-0.0173184
-0.0174095
-0.0174197
-0.0257422
-0.0257516
-0.025764
-0.0257785
-0.0257952
-0.0258146
-0.0258374
-0.0258642
-0.0258961
-0.0259343
-0.0259802
-0.0260352
-0.0261006
-0.0261776
-0.0262668
-0.0263684
-0.0264823
-0.026609
-0.0267489
-0.0269032
-0.0270727
-0.0272578
-0.0274574
-0.0276685
-0.0278865
-0.0281053
-0.0283171
-0.0285123
-0.0286778
-0.0287973
-0.0288569
-0.0288935
-0.0284881
-0.0276148
-0.0261472
-0.0245062
-0.0218097
-0.0202685
-0.0205261
-0.0139616
0.00395116
0.00961791
0.0021758
-0.00423967
-0.0131005
-0.0157902
-0.0157116
-0.015368
-0.0154939
-0.0152382
-0.0257366
-0.025745
-0.0257562
-0.0257691
-0.0257842
-0.0258022
-0.0258239
-0.0258505
-0.0258832
-0.0259237
-0.0259736
-0.0260347
-0.0261085
-0.0261963
-0.0262986
-0.0264157
-0.0265478
-0.0266953
-0.0268596
-0.0270425
-0.0272461
-0.0274719
-0.0277204
-0.0279905
-0.0282798
-0.0285839
-0.028897
-0.02921
-0.0295091
-0.0297763
-0.0299839
-0.0300846
-0.0263255
-0.0228583
-0.0245551
-0.026468
-0.0222069
-0.0224053
-0.031678
-0.0274046
0.00941389
0.0226415
0.00678165
-0.00352401
-0.0128198
-0.0134115
-0.0105148
-0.0131976
-0.0265262
-0.0261417
-0.0257169
-0.0257241
-0.0257339
-0.025745
-0.0257582
-0.0257745
-0.025795
-0.0258212
-0.0258547
-0.0258974
-0.0259513
-0.0260184
-0.0261004
-0.0261984
-0.0263129
-0.0264441
-0.0265924
-0.0267587
-0.0269453
-0.027155
-0.0273913
-0.0276575
-0.0279559
-0.0282878
-0.0286531
-0.0290504
-0.0294761
-0.0299225
-0.0303743
-0.030806
-0.0311748
-0.0314327
-0.0285028
-0.0258572
-0.0260446
-0.02678
-0.0221924
-0.0240843
-0.0446863
0.0602697
0.0368839
0.0630481
0.0291856
0.00637881
-0.0206807
-0.0390798
-0.0152657
-0.0871987
0.54453
1.54822
-0.0256824
-0.0256882
-0.0256962
-0.0257053
-0.0257164
-0.0257308
-0.02575
-0.0257757
-0.0258098
-0.0258547
-0.0259124
-0.0259851
-0.0260745
-0.0261814
-0.0263063
-0.0264494
-0.0266113
-0.0267936
-0.0269997
-0.0272337
-0.0275007
-0.027806
-0.0281539
-0.0285484
-0.0289927
-0.0294892
-0.0300386
-0.0306362
-0.0312668
-0.031899
-0.0324729
-0.0328752
-0.0328111
-0.0323434
-0.0307458
-0.0291817
-0.0221108
-0.0102483
-0.0181041
0.166096
0.16293
0.249199
0.991493
2.62614
3.33608
5.78126
15.8682
28.1858
32.8887
33.0723
-0.0256321
-0.0256363
-0.0256424
-0.0256493
-0.0256581
-0.0256704
-0.0256882
-0.0257133
-0.025748
-0.0257947
-0.0258558
-0.0259334
-0.0260288
-0.0261429
-0.0262758
-0.0264278
-0.0266001
-0.0267953
-0.0270175
-0.0272728
-0.0275678
-0.0279094
-0.0283044
-0.0287595
-0.0292822
-0.0298805
-0.0305625
-0.0313315
-0.0321788
-0.0330749
-0.0339517
-0.034689
-0.035094
-0.0345707
-0.0324897
-0.0329465
-0.0391236
-0.0131617
0.0157231
-0.232967
0.85652
5.63769
9.75216
22.3683
33.8754
35.1475
34.4127
35.7353
36.2559
35.992
-0.0255654
-0.0255679
-0.0255718
-0.0255764
-0.0255828
-0.025593
-0.0256092
-0.0256335
-0.0256686
-0.0257168
-0.0257806
-0.0258617
-0.0259615
-0.0260803
-0.0262183
-0.0263761
-0.0265554
-0.0267598
-0.0269949
-0.0272679
-0.027587
-0.0279605
-0.0283972
-0.028907
-0.029502
-0.0301975
-0.031012
-0.0319633
-0.0330594
-0.0342883
-0.0356335
-0.0370764
-0.0384749
-0.0387775
-0.0367527
-0.0405991
-0.0477809
-0.00746309
0.320699
1.00531
15.9038
29.1383
40.8039
40.8728
39.3054
37.6504
36.7962
36.8603
37.014
36.9137
-0.0254817
-0.0254823
-0.0254841
-0.0254861
-0.02549
-0.025498
-0.0255125
-0.025536
-0.0255711
-0.0256202
-0.0256855
-0.0257687
-0.0258706
-0.0259915
-0.0261315
-0.0262917
-0.0264747
-0.0266851
-0.0269295
-0.0272163
-0.0275545
-0.0279535
-0.0284234
-0.0289768
-0.0296305
-0.0304065
-0.0313341
-0.0324519
-0.0337976
-0.0353782
-0.0372294
-0.0397974
-0.0436942
-0.0475556
-0.0449644
-0.054625
-0.0833222
-0.30535
1.92724
22.6237
43.7943
47.3869
44.047
41.836
40.2505
38.8958
38.1362
37.848
37.7482
37.681
-0.0253806
-0.0253792
-0.0253787
-0.0253782
-0.0253796
-0.0253853
-0.025398
-0.0254203
-0.0254549
-0.025504
-0.0255696
-0.025653
-0.0257545
-0.0258746
-0.0260136
-0.0261732
-0.0263569
-0.0265702
-0.0268207
-0.0271171
-0.0274684
-0.0278844
-0.0283759
-0.0289575
-0.0296487
-0.030476
-0.0314751
-0.0327007
-0.0342243
-0.0361033
-0.0382664
-0.0407517
-0.0486621
-0.0617818
-0.0541492
-0.0485705
0.0735283
0.986677
31.0872
48.4006
47.4974
46.099
43.8349
42.1103
40.7325
39.703
39.0108
38.6287
38.4279
38.34
-0.0252617
-0.0252583
-0.0252554
-0.0252524
-0.0252511
-0.0252545
-0.0252653
-0.0252862
-0.0253197
-0.0253678
-0.0254321
-0.0255135
-0.0256123
-0.0257288
-0.0258641
-0.0260205
-0.0262023
-0.026416
-0.0266692
-0.0269705
-0.0273283
-0.0277516
-0.0282514
-0.0288427
-0.0295458
-0.0303875
-0.0314021
-0.0326312
-0.0341207
-0.0318743
-0.0294929
-0.0358327
-0.0422527
-0.0420576
0.0241571
-0.11559
0.550245
8.30477
40.8026
47.266
48.082
45.6181
43.624
42.1907
41.0684
40.2056
39.5913
39.2047
38.984
38.9017
-0.0251248
-0.0251194
-0.0251141
-0.0251084
-0.0251046
-0.0251056
-0.0251143
-0.0251334
-0.025165
-0.025211
-0.0252723
-0.0253497
-0.0254434
-0.0255541
-0.0256834
-0.0258346
-0.0260128
-0.0262246
-0.0264774
-0.0267787
-0.0271356
-0.0275557
-0.0280496
-0.0286316
-0.0293205
-0.0301369
-0.0311025
-0.0322194
-0.0328827
-0.0213722
-0.0247037
-0.0333637
-0.0342467
-0.0406776
-0.0398058
0.0218434
10.0852
30.3058
45.0868
45.2467
45.102
44.202
43.0192
41.9962
41.1403
40.4581
39.9474
39.6019
39.3959
39.3127
-0.0249698
-0.0249624
-0.0249547
-0.0249464
-0.02494
-0.0249386
-0.0249449
-0.0249617
-0.0249907
-0.0250333
-0.0250901
-0.0251616
-0.0252483
-0.0253513
-0.0254732
-0.0256181
-0.0257913
-0.0259994
-0.0262487
-0.026545
-0.0268934
-0.0273001
-0.0277749
-0.0283322
-0.0289906
-0.0297716
-0.0306981
-0.0318059
-0.0323149
-0.0197782
-0.0230876
-0.0314991
-0.0321322
-0.0326622
-0.0245443
1.07006
11.9233
43.0002
44.0097
43.409
43.3283
42.9203
42.2787
41.6263
41.0281
40.524
40.1331
39.8558
39.6819
39.6102
-0.0247966
-0.0247872
-0.0247772
-0.0247664
-0.0247574
-0.0247534
-0.0247572
-0.0247711
-0.0247966
-0.0248347
-0.0248855
-0.0249497
-0.0250279
-0.0251222
-0.025236
-0.0253738
-0.0255414
-0.0257443
-0.0259872
-0.0262734
-0.0266058
-0.0269891
-0.027432
-0.0279473
-0.0285505
-0.0292575
-0.0300872
-0.031047
-0.0315726
-0.0186355
-0.0267844
-0.03198
-0.0317478
-0.0326626
-0.0294694
3.02401
21.6084
41.3959
41.8552
41.9579
42.0179
41.889
41.5811
41.2071
40.8264
40.4822
40.1995
39.9901
39.8627
39.8102
-0.0246055
-0.0245942
-0.0245819
-0.0245686
-0.0245569
-0.0245501
-0.0245511
-0.0245616
-0.0245829
-0.0246154
-0.0246593
-0.0247149
-0.024784
-0.0248692
-0.0249747
-0.0251055
-0.025267
-0.0254634
-0.025697
-0.0259685
-0.0262784
-0.02663
-0.0270309
-0.0274921
-0.0280261
-0.0286443
-0.0293657
-0.0302368
-0.0313041
-0.0258474
-0.0326275
-0.0292148
-0.0322901
-0.0297418
-0.0349366
3.40327
31.9607
38.9967
40.0363
40.6046
40.9199
41.0262
40.9548
40.7929
40.588
40.3807
40.1987
40.0581
39.9693
39.9346
-0.0243966
-0.0243834
-0.0243689
-0.024353
-0.0243387
-0.024329
-0.0243268
-0.0243335
-0.02435
-0.0243761
-0.0244122
-0.0244589
-0.0245186
-0.0245948
-0.0246925
-0.0248167
-0.0249719
-0.0251604
-0.0253822
-0.025635
-0.0259175
-0.0262316
-0.0265835
-0.0269817
-0.0274333
-0.0279447
-0.0285288
-0.0291922
-0.0298537
-0.0299717
-0.0312105
-0.0311785
-0.0301892
-0.0229546
-0.042387
4.80819
34.0751
37.1004
38.6014
39.4938
40.0286
40.3162
40.4249
40.4212
40.3523
40.2548
40.1567
40.0753
40.0221
40.0034
-0.0241702
-0.0241553
-0.0241385
-0.0241202
-0.024103
-0.0240903
-0.0240846
-0.0240871
-0.0240982
-0.0241176
-0.0241455
-0.0241833
-0.024234
-0.024302
-0.0243926
-0.0245107
-0.0246593
-0.0248388
-0.0250465
-0.0252779
-0.0255304
-0.0258049
-0.0261066
-0.0264411
-0.0268115
-0.0272198
-0.0276709
-0.0281596
-0.0286528
-0.0291528
-0.0298929
-0.030142
-0.0279565
-0.0212537
-0.0104641
13.6695
33.8636
36.3683
37.8233
38.763
39.3837
39.7772
40.0034
40.1127
40.1449
40.1321
40.0994
40.0648
40.0408
40.0351
-0.0239266
-0.0239102
-0.0238913
-0.0238703
-0.0238503
-0.0238343
-0.0238249
-0.0238229
-0.0238283
-0.0238408
-0.0238607
-0.02389
-0.0239324
-0.0239932
-0.0240777
-0.0241901
-0.024332
-0.0245013
-0.0246933
-0.0249022
-0.0251246
-0.0253615
-0.0256169
-0.0258942
-0.0261934
-0.026514
-0.0268598
-0.0272392
-0.0276707
-0.0281884
-0.0288688
-0.0292558
-0.0281606
-0.0264659
-0.0995303
28.5248
36.055
36.7341
37.589
38.3581
38.9627
39.4012
39.6971
39.8809
39.9829
40.0298
40.0444
40.0442
40.0417
40.0451
-0.0236664
-0.0236485
-0.0236275
-0.023604
-0.0235808
-0.0235615
-0.0235481
-0.0235414
-0.0235411
-0.0235469
-0.0235592
-0.0235808
-0.0236161
-0.0236708
-0.02375
-0.0238571
-0.0239917
-0.02415
-0.0243258
-0.0245127
-0.0247077
-0.0249121
-0.0251294
-0.0253608
-0.0256041
-0.0258571
-0.0261232
-0.0264173
-0.0267812
-0.0273021
-0.0280252
-0.0285211
-0.0283346
-0.0449907
0.655822
36.0123
37.1229
36.9251
37.4647
38.1136
38.7028
39.1653
39.5018
39.7309
39.876
39.9604
40.0048
40.0261
40.0369
40.0454
-0.0233899
-0.0233708
-0.0233478
-0.0233215
-0.0232952
-0.0232723
-0.0232548
-0.0232434
-0.0232375
-0.0232368
-0.0232423
-0.0232572
-0.0232865
-0.0233362
-0.0234109
-0.0235125
-0.0236394
-0.0237863
-0.0239464
-0.0241138
-0.0242865
-0.0244663
-0.0246564
-0.0248562
-0.0250615
-0.0252682
-0.0254763
-0.0256931
-0.0259469
-0.0262944
-0.0266214
-0.0262654
-0.0246186
-0.0402261
1.61555
33.5922
35.4878
36.3308
37.1885
37.9456
38.5661
39.053
39.4131
39.6646
39.8298
39.9311
39.9886
40.0189
40.0346
40.0439
-0.0207987
-0.0207626
-0.0207309
-0.0207033
-0.0206794
-0.0206591
-0.0206418
-0.0206272
-0.0206148
-0.0206041
-0.0205943
-0.0205849
-0.020575
-0.020564
-0.0205511
-0.0205356
-0.0205169
-0.0204946
-0.0204683
-0.0204379
-0.0204033
-0.0203647
-0.0203223
-0.0202767
-0.0202285
-0.0201786
-0.0201278
-0.0200771
-0.0200274
-0.0199792
-0.0199332
-0.0198895
-0.0198482
-0.0198091
-0.019772
-0.0197367
-0.0197029
-0.0196708
-0.0196404
-0.0196118
-0.0195852
-0.0195612
-0.0195399
-0.0195213
-0.0195053
-0.0194917
-0.019481
-0.0194727
-0.0194668
-0.0194636
-0.0207937
-0.0207584
-0.0207276
-0.0207009
-0.0206781
-0.0206588
-0.0206425
-0.0206287
-0.0206171
-0.020607
-0.0205979
-0.020589
-0.0205796
-0.0205691
-0.0205566
-0.0205416
-0.0205235
-0.0205017
-0.020476
-0.0204461
-0.0204121
-0.020374
-0.0203322
-0.0202869
-0.0202388
-0.0201887
-0.0201375
-0.0200861
-0.0200354
-0.019986
-0.0199387
-0.0198938
-0.0198513
-0.0198113
-0.0197734
-0.0197374
-0.0197032
-0.0196708
-0.0196401
-0.0196112
-0.0195845
-0.0195601
-0.0195383
-0.0195191
-0.0195026
-0.0194887
-0.0194773
-0.0194685
-0.0194623
-0.0194591
-0.0207937
-0.0207603
-0.0207314
-0.0207067
-0.0206856
-0.0206678
-0.0206527
-0.0206399
-0.0206288
-0.020619
-0.0206098
-0.0206007
-0.020591
-0.02058
-0.0205672
-0.0205518
-0.0205335
-0.0205116
-0.020486
-0.0204565
-0.0204229
-0.0203854
-0.0203441
-0.0202993
-0.0202515
-0.0202013
-0.0201494
-0.0200968
-0.0200443
-0.0199929
-0.0199432
-0.0198959
-0.0198513
-0.0198094
-0.0197701
-0.0197332
-0.0196984
-0.0196656
-0.0196347
-0.0196058
-0.0195789
-0.0195542
-0.019532
-0.0195124
-0.0194955
-0.0194811
-0.0194693
-0.0194602
-0.0194538
-0.0194503
-0.0207989
-0.0207687
-0.0207429
-0.0207211
-0.0207026
-0.0206869
-0.0206734
-0.0206616
-0.020651
-0.0206411
-0.0206313
-0.0206212
-0.0206102
-0.0205979
-0.0205837
-0.0205671
-0.0205477
-0.020525
-0.0204989
-0.020469
-0.0204355
-0.0203982
-0.0203574
-0.0203132
-0.0202657
-0.0202153
-0.0201627
-0.0201086
-0.0200539
-0.0199997
-0.0199468
-0.0198962
-0.0198484
-0.0198037
-0.0197623
-0.0197238
-0.0196881
-0.0196547
-0.0196237
-0.0195948
-0.0195679
-0.0195431
-0.0195206
-0.0195006
-0.0194833
-0.0194685
-0.0194566
-0.0194473
-0.0194409
-0.0194374
-0.0208062
-0.0207804
-0.0207589
-0.0207411
-0.0207262
-0.0207136
-0.0207025
-0.0206924
-0.0206826
-0.0206727
-0.0206622
-0.0206508
-0.0206382
-0.0206239
-0.0206076
-0.020589
-0.0205677
-0.0205434
-0.0205158
-0.0204848
-0.0204505
-0.0204129
-0.0203721
-0.020328
-0.0202807
-0.0202302
-0.020177
-0.0201216
-0.0200646
-0.0200072
-0.0199506
-0.0198959