/*--------------------------------*- C++ -*----------------------------------*\
| =========                 |                                                 |
| \\      /  F ield         | OpenFOAM: The Open Source CFD Toolbox           |
|  \\    /   O peration     | Version:  2.4.0                                 |
|   \\  /    A nd           | Web:      www.OpenFOAM.org                      |
|    \\/     M anipulation  |                                                 |
\*---------------------------------------------------------------------------*/
FoamFile
{
    version     2.0;
    format      ascii;
    class       volScalarField;
    location    "0.023";
    object      p_rgh;
}
// * * * * * * * * * * * * * * * * * * * * * * * * * * * * * * * * * * * * * //

dimensions      [1 -1 -2 0 0 0 0];

internalField   nonuniform List<scalar> 
3600
(
251.187
250.264
248.394
246.19
244.006
242.01
240.269
238.776
237.504
236.423
235.521
234.815
234.338
234.148
234.323
234.956
236.152
238.018
240.647
244.105
248.404
253.485
259.204
265.386
271.741
277.881
283.368
287.777
290.788
292.267
251.214
250.299
248.416
246.201
244.009
242.006
240.262
238.767
237.493
236.408
235.494
234.764
234.245
233.986
234.054
234.531
235.508
237.084
239.356
242.41
246.313
251.095
256.739
263.093
270.094
277.476
284.804
291.489
296.727
299.197
251.266
250.37
248.46
246.221
244.012
241.997
240.246
238.748
237.471
236.377
235.441
234.665
234.065
233.674
233.539
233.718
234.276
235.289
236.839
239.022
241.956
245.787
250.677
256.778
264.041
273.055
283.85
295.963
306.976
310.291
251.344
250.477
248.525
246.252
244.016
241.982
240.222
238.719
237.439
236.332
235.365
234.526
233.815
233.242
232.828
232.597
232.576
232.796
233.295
234.118
235.333
237.059
239.502
242.994
247.986
254.625
263.877
276.53
293.16
298.366
251.446
250.622
248.612
246.291
244.021
241.961
240.189
238.679
237.397
236.277
235.276
234.363
233.521
232.737
231.997
231.29
230.595
229.888
229.131
228.257
227.156
225.641
223.381
219.733
213.567
204.155
194.159
191.632
207.746
218.085
251.573
250.809
248.72
246.34
244.026
241.933
240.147
238.629
237.348
236.217
235.182
234.194
233.216
232.21
231.134
229.936
228.554
226.91
224.903
222.376
219.053
214.463
207.893
198.264
183.795
163.371
140.246
113.106
125.321
139.35
251.722
251.042
248.849
246.398
244.031
241.897
240.095
238.568
237.293
236.156
235.093
234.037
232.931
231.72
230.331
228.689
226.701
224.273
221.319
217.777
213.626
208.835
203.387
197.359
190.247
179.192
168.032
160.675
160.713
167.928
251.892
251.326
248.998
246.463
244.035
241.851
240.033
238.494
237.235
236.099
235.021
233.909
232.698
231.316
229.666
227.657
225.168
222.109
218.454
214.322
210.116
206.752
206.046
209.573
217.008
220.964
221.824
225.679
219.701
220.951
252.08
251.668
249.165
246.536
244.039
241.794
239.959
238.404
237.175
236.049
234.972
233.828
232.542
231.045
229.208
226.959
224.135
220.616
216.314
211.143
205.312
198.812
192.708
190.681
193.919
198.721
199.642
202.303
195.396
200.66
252.285
252.077
249.348
246.616
244.042
241.725
239.873
238.296
237.113
236.007
234.957
233.805
232.483
230.936
228.991
226.62
223.591
219.724
214.893
208.39
199.94
185.388
162.756
138.639
129.889
132.649
141.817
147.054
147.371
149.941
252.503
252.562
249.544
246.702
244.044
241.639
239.775
238.163
237.052
235.974
234.98
233.851
232.533
231.017
229.062
226.736
223.754
219.812
214.907
207.196
197.088
178.115
149.928
115.815
99.6637
104.504
126.551
141.965
151.904
155.182
252.729
253.136
249.749
246.793
244.045
241.535
239.662
237.998
236.99
235.948
235.047
233.972
232.693
231.287
229.409
227.297
224.615
221.251
217.288
211.31
203.735
191.412
176.014
161.92
158.372
169.064
182.305
192.636
198.586
205.467
252.96
253.814
249.956
246.89
244.047
241.408
239.535
237.794
236.923
235.929
235.16
234.169
232.954
231.731
229.99
228.137
225.931
223.305
220.697
217.354
215.206
213.273
217.499
218.269
223.484
230.998
228.822
225.522
218.677
221.024
253.19
254.612
250.161
246.991
244.052
241.255
239.386
237.544
236.844
235.917
235.318
234.443
233.301
232.283
230.734
229.2
227.486
225.553
224.499
221.753
222.406
218.243
219.46
216.281
216.51
217.901
214.604
214.189
217.917
220.605
253.413
255.546
250.354
247.099
244.059
241.074
239.208
237.24
236.739
235.915
235.52
234.792
233.732
233.008
231.695
230.481
229.293
227.69
227.47
225.712
226.841
225.866
225.466
228.209
223.079
228.101
229.877
239.071
250.901
257.06
253.623
256.634
250.53
247.214
244.071
240.864
238.995
236.871
236.593
235.926
235.761
235.187
234.235
233.452
232.236
231.257
230.294
229.18
229.584
228.159
231.659
232.621
235.121
243.045
242.666
247.404
249.782
256.264
264.598
272.928
253.811
257.893
250.682
247.342
244.086
240.625
238.738
236.421
236.388
235.957
236.047
235.834
235.23
234.814
233.723
233.104
232.13
230.493
230.595
228.759
227.559
223.016
222.321
221.119
228.457
231.944
230.177
228.761
229.498
234.873
253.969
259.34
250.802
247.486
244.106
240.356
238.432
235.863
236.104
235.993
236.286
235.892
235.179
234.631
233.617
232.899
231.915
230.994
230.06
228.571
223.926
218.97
218.118
219.709
219.834
221.442
223.956
231.464
230.143
230.3
254.087
260.993
250.885
247.655
244.133
240.059
238.078
235.156
235.727
236.186
236.937
237.414
237.245
237.372
235.687
236.461
234.232
233.719
233.092
232.589
229.17
229.621
232.442
235.475
229.817
222.672
231.126
234.637
232.595
239.141
254.153
262.872
250.925
247.857
244.17
239.731
237.679
234.24
235.201
235.815
236.315
236.775
236.042
235.99
235.079
234.559
233.571
232.84
231.219
230.509
229.91
229.511
243.859
240.089
235.777
228.988
228.576
239.58
248.598
252.41
254.151
265.001
250.919
248.096
244.22
239.374
237.255
233.039
234.599
237.115
239.02
239.551
240.272
240.165
237.48
240.961
234.119
235.327
231.5
230.722
227.299
226.079
226.858
227.995
232.674
228.854
226.369
225.719
226.877
229.928
254.066
267.403
250.868
248.373
244.289
238.987
236.841
231.368
233.73
235.466
235.325
238.384
236.789
237.538
237.049
236.523
236.011
234.092
228.983
224.707
219.204
217.213
218.718
217.998
214.904
214.518
211.652
212.969
212.044
216.515
253.876
270.107
250.79
248.674
244.383
238.572
236.508
229.191
232.851
238.625
242.071
242.507
244.133
243.655
239.39
244.874
233.663
235.773
229.795
227.241
207.827
174.23
144.726
166.546
163.404
189.459
199.864
187.544
231.164
241.181
253.557
273.126
250.731
248.974
244.509
238.13
236.372
225.437
231.608
235.72
234.386
242.073
237.595
238.831
240.931
241.297
244.795
240.44
233.529
218.087
128.61
61.7133
45.0901
46.6957
46.1487
37.4904
64.7536
75.5232
201.309
155.141
253.081
276.569
250.655
249.237
244.682
237.691
236.65
222.227
230.694
240.363
244.651
246.033
247.605
248.49
243.055
255.05
236.101
234.204
235.299
241.762
98.7013
43.6037
42.7058
42.1337
41.8733
41.451
41.6656
44.4406
60.2134
73.9382
252.406
280.618
250.519
249.397
244.892
237.2
237.689
212.723
229.677
237.669
233.522
248.418
238.367
237.201
245.732
242.419
259.433
231.407
237.404
173.3
77.0262
41.7268
42.0564
41.71
42.4915
43.2214
43.4499
90.1084
76.0334
137.512
251.485
282.387
250.144
249.41
245.174
236.874
239.748
205.651
228.929
241.349
248.981
253.352
247.419
252.433
248.996
271.142
237.64
199.172
259.673
70.5996
34.8342
40.2223
42.4469
41.7729
42.6054
66.9726
139.066
157.703
160.176
165.585
250.407
288.571
249.618
249.165
245.479
236.481
244.342
185.463
233.199
241.843
232.008
258.967
237.647
229.633
237.722
256.873
238.881
207.778
238.758
110.802
72.5715
38.4176
41.3362
41.516
45.7409
126.157
168.645
161.8
124.974
119.359
248.722
294.036
248.968
248.685
245.811
236.745
249.793
167.752
230.692
240.819
256.103
255.775
235.313
243.17
260.223
250.772
265.702
251.184
204.904
115.412
136.721
59.646
85.45
32.8195
33.651
34.4209
64.412
86.6682
81.5956
85.6718
247.484
302.436
247.959
247.931
246.07
237.225
263.21
127.51
247.876
238.431
221.481
263.789
193.636
185.719
258.937
249.844
196.979
249.55
138.709
67.3815
143.336
231.371
221.631
215.458
45.6758
70.8744
170.873
278.873
293.485
249.491
292.342
291.05
288.262
284.114
278.92
273.104
267.1
261.299
255.992
251.359
247.552
244.632
242.591
241.366
240.863
240.971
241.579
242.582
243.884
245.401
247.054
248.769
250.475
252.109
253.622
254.994
256.228
257.322
258.169
258.501
299.204
296.925
291.937
285.543
278.529
271.481
264.832
258.859
253.617
249.28
245.865
243.35
241.669
240.737
240.455
240.722
241.439
242.513
243.859
245.403
247.071
248.794
250.502
252.135
253.644
255.011
256.241
257.336
258.188
258.511
310.206
307.077
296.367
284.619
274.18
265.501
258.575
252.826
248.331
244.938
242.491
240.849
239.895
239.532
239.675
240.245
241.17
242.38
243.812
245.407
247.104
248.842
250.556
252.186
253.687
255.043
256.267
257.364
258.225
258.53
298.388
293.779
277.547
265.119
256.077
249.646
244.899
241.708
239.627
238.327
237.601
237.327
237.435
237.874
238.605
239.593
240.802
242.2
243.752
245.418
247.157
248.916
250.636
252.263
253.75
255.091
256.304
257.405
258.282
258.558
218.608
209.589
194.215
196.525
206.253
215.525
221.74
225.598
228.191
230.136
231.744
233.188
234.571
235.953
237.369
238.841
240.384
242.002
243.693
245.445
247.233
249.017
250.745
252.366
253.835
255.154
256.353
257.458
258.359
258.594
139.281
127.829
117.454
141.965
164.913
185.235
199.87
209.838
216.85
221.955
225.849
228.991
231.653
233.992
236.109
238.08
239.968
241.815
243.654
245.496
247.337
249.148
250.884
252.497
253.94
255.232
256.412
257.524
258.458
258.637
167.992
162.517
162.414
167.87
178.797
190.153
197.978
204.758
210.923
216.405
221.239
225.46
229.104
232.245
234.98
237.404
239.611
241.672
243.653
245.581
247.475
249.314
251.055
252.656
254.067
255.324
256.48
257.601
258.583
258.687
220.555
218.064
224.148
217.274
217.265
214.01
208.445
206.525
208.518
212.856
217.853
222.707
227.07
230.852
234.094
236.888
239.364
241.603
243.707
245.71
247.652
249.517
251.26
252.846
254.216
255.429
256.555
257.688
258.736
258.74
200.144
192.536
202.043
197.67
198.144
193.953
191.784
194.726
201.468
208.548
214.972
220.786
225.764
229.997
233.573
236.604
239.272
241.63
243.832
245.888
247.872
249.76
251.502
253.069
254.386
255.546
256.636
257.783
258.923
258.795
149.759
149.159
149.356
144.15
136.952
134.915
144.423
168.152
189.882
204.111
212.645
219.654
225.108
229.671
233.443
236.582
239.367
241.769
244.042
246.121
248.141
250.046
251.782
253.326
254.577
255.674
256.72
257.883
259.149
258.849
154.788
152.291
142.193
127.498
106.207
103.481
121.818
155.497
183.236
202.225
211.599
219.945
225.454
230.081
233.794
236.864
239.673
242.027
244.348
246.408
248.463
250.379
252.104
253.62
254.79
255.811
256.803
257.985
259.421
258.899
205.478
198.763
191.781
180.361
166.737
157.844
163.666
179.298
195.728
208.362
216.201
222.659
227.209
231.223
234.614
237.43
240.186
242.392
244.761
246.746
248.841
250.759
252.471
253.956
255.024
255.955
256.884
258.082
259.751
258.94
220.62
220.61
226.115
229.152
231.086
223.372
219.735
219.641
216.816
219.489
222.386
226.356
229.573
232.829
235.714
238.248
240.886
242.838
245.295
247.119
249.281
251.187
252.887
254.338
255.279
256.105
256.957
258.169
260.15
258.968
220.32
217.895
214.798
215.898
219.83
218.087
219.051
222.683
222.276
227.27
227.127
230.576
232.174
234.705
237.062
239.242
241.673
243.369
245.93
247.508
249.797
251.66
253.356
254.771
255.554
256.257
257.018
258.237
260.632
258.978
256.639
249.701
237.587
230.604
230.208
226.001
231.644
229.576
230.653
232.283
231.575
233.935
234.647
236.77
238.581
240.392
242.617
244.003
246.638
247.91
250.391
252.173
253.885
255.26
255.848
256.408
257.062
258.275
261.214
258.961
271.302
264.081
255.766
251.278
249.873
245.541
247.267
239.557
238.716
237.863
234.705
236.558
236.638
238.185
239.681
241.245
243.253
244.719
247.236
248.331
251.053
252.717
254.485
255.811
256.159
256.554
257.086
258.274
261.914
258.912
233.412
229.524
230.64
232.445
234.308
230.46
225.188
226.932
227.877
233.557
235.55
237.877
238.258
240.231
241.761
242.782
244.957
245.707
248.537
248.789
251.892
253.296
255.17
256.431
256.487
256.69
257.083
258.219
262.752
258.822
231.884
230.429
232.155
224.607
224.37
223.78
224.53
223.947
224.643
231.138
236.55
238.201
239.38
240.296
241.426
243.004
244.56
246.1
247.975
249.22
251.963
253.906
255.959
257.131
256.828
256.808
257.051
258.099
263.747
258.681
238.424
235.166
237.092
232.644
227.893
237.471
243.656
240.676
239.393
238.311
241.715
241.738
242.649
243.286
245.38
245.269
248.165
247.773
250.752
249.783
254.053
254.607
256.882
257.928
257.178
256.898
256.987
257.901
264.919
258.479
252.147
249.776
237.992
229.813
237.726
244.285
248.628
251.455
240.481
240.633
240.95
240.819
241.562
242.46
243.575
244.778
245.397
247.128
248.456
250.144
252.755
255.348
257.919
258.841
257.528
256.95
256.888
257.615
266.288
258.204
227.09
226.274
227.82
230.294
240.664
243.169
240
240.078
239.562
239.643
242.417
242.066
245.213
244.822
249.199
247.965
251.504
251.204
252.477
250.856
255.668
256.205
259.203
259.901
257.865
256.949
256.751
257.229
267.874
257.843
216.912
220.37
224.604
223.821
229.168
236.276
240.115
237.499
234.511
234.297
238.222
238.636
241.761
243.447
244.746
246.621
245.282
247.5
248.586
250.78
254.048
257.241
260.523
261.142
258.168
256.879
256.571
256.737
269.699
257.381
238.893
223.816
235.293
197.85
176.19
192.5
195.629
184.44
190.652
228.83
241.349
240.232
248.025
246.769
253.731
251.709
255.389
256.938
253.275
253.12
256.718
258.282
262.412
262.62
258.408
256.721
256.335
256.14
271.79
256.798
163.569
127.497
126.049
94.2132
74.5657
79.1733
82.6847
76.8201
79.7355
152.483
233.297
237.914
241.617
245.498
247.635
250.795
243.76
246.863
247.804
249.1
254.483
259.64
264.052
264.384
258.539
256.448
256.017
255.453
274.169
256.076
59.9588
72.2788
64.932
59.0234
58.6439
58.6291
60.4469
58.8177
58.5684
62.8956
184.86
249.273
250.99
255.133
260.338
256.084
259.88
264.741
251.623
255.991
256.747
261.086
266.939
266.53
258.528
256.037
255.584
254.718
276.857
255.191
145.572
134.587
86.4134
58.4537
58.6157
58.5627
58.4143
58.9147
58.4158
58.167
82.6444
194.204
237.244
245.786
258.989
256.362
239.468
247.126
246.695
245.159
253.55
262.856
269.24
269.109
258.266
255.435
254.974
253.866
279.973
254.112
171.028
169.948
98.5226
60.9697
59.0722
59.0692
59.3943
59.1922
59.0165
59.196
158.042
271.613
249.352
251.818
270.001
260.436
262.488
267.488
244.609
260.75
254.668
264.577
273.757
272.207
257.764
254.626
254.153
252.916
283.146
252.805
107.583
102.147
101.579
66.1816
57.9637
58.3076
58.8428
59.2545
60.0159
60.6763
186.285
260.36
255.783
233.22
278.299
264.525
225.613
255.402
250.865
233.439
249.558
266.521
277.459
275.847
256.853
253.5
253.015
251.708
290.62
251.327
103.819
89.2237
57.3259
57.548
58.6574
58.9573
59.1314
59.0821
62.3973
180.657
305.674
235.407
164.071
185.789
298.662
226.773
257.379
235.52
209.489
268.401
249.645
269.083
285.731
279.888
255.598
251.999
251.406
250.312
292.318
249.152
312.674
315.012
97.7067
57.4168
59.024
61.7589
60.5559
59.8657
61.684
90.8717
202.546
42.9626
27.2512
199.489
310.683
224.373
239.235
280.777
225.716
204.722
177.633
257.598
292.161
284.156
253.796
249.982
249.313
248.527
300.889
247.389
221.373
305.543
247.198
247.365
246.014
239.113
268.702
114.057
213.853
74.3466
207.267
178.685
24.2915
63.6026
290.963
259.3
131.882
228.435
69.1269
116.921
363.086
287.314
220.7
180.025
86.2874
159.421
329.281
400.687
420.168
474.694
24.8408
169.497
243.788
247.254
246.004
239.358
269.032
105.144
166.15
29.8105
146.26
102.847
24.2728
54.4771
294.307
262.666
85.836
214.79
50.2453
171.531
374.376
289.724
219.771
173.971
106.057
178.227
319.168
395.828
424.396
485.148
0.869945
62.1871
107.058
152.189
218.462
238.196
268.662
78.7524
88.0813
14.6905
88.5514
69.4736
23.9319
42.2869
239.484
230.295
28.9582
187.603
48.4806
136.067
332.326
293.023
220.375
189.676
152.059
205.988
321.903
389.176
426.505
482.521
0.644974
53.5692
28.7434
101.712
173.706
219.451
267.4
48.2926
38.6224
1.68853
98.9605
59.7666
24.0627
26.5789
58.4121
54.7948
9.78373
127.671
47.011
187.366
313.939
295.002
230.675
216.641
208.441
241.74
318.617
386.397
425.893
489.591
0.601581
60.6149
59.8928
90.2524
150.646
203.349
265.502
-1.59145
9.61796
1.81958
64.3854
77.9855
23.3718
26.3104
32.5041
17.1137
9.62666
27.0949
2.39707
110.343
267.224
296.279
244.475
243.371
251.211
275.111
329.516
383.091
415.106
472.182
0.356664
-0.00214584
2.85976
2.07739
38.7782
157.377
263.488
-40.957
10.6453
1.60764
-0.222555
8.21144
26.9529
23.6588
32.7282
12.7784
6.733
5.55165
1.1075
23.0055
241.244
301.486
254.115
244.153
266.769
291.589
331.979
376.809
400.682
452.612
0.432013
0.0057297
0.0816906
1.16289
42.7036
156.069
252.029
59.2441
9.15824
1.45171
-0.1802
10.0239
58.4881
36.5232
22.1131
7.53284
3.50989
3.76519
1.07129
17.6873
256.621
301.571
260.843
259.144
278.608
296.661
328.014
367.172
381.135
429.863
0.194239
-0.132962
0.076783
0.133509
11.0286
112.786
247.124
29.979
10.4114
1.29624
-0.288605
26.2877
12.7223
34.8045
43.3875
3.65402
0.980743
3.98374
0.720523
11.4383
101.205
274.706
261.079
269.933
288.542
301.555
322.49
351.371
358.963
388.85
-0.0441237
-0.174685
0.0696817
0.0960755
11.2599
106.278
235.559
105.453
8.11822
1.16898
-0.279768
22.0766
12.0198
31.8093
25.1066
2.76292
1.18493
3.62234
5.2316
3.31647
44.2102
247.596
250.273
262.877
290.78
306.178
318.101
321.698
333.271
351.362
-0.0429621
-0.169398
0.0694611
0.0897379
1.34632
56.0483
198.19
160.443
13.0484
1.0567
-0.139675
14.3069
8.99095
22.4618
12.2888
1.39222
0.858263
1.81874
19.3001
-2.52088
25.7502
186.412
172.725
243.371
288.446
303.796
311.743
297.645
305.324
292.411
-0.0412568
-0.16389
0.0683872
0.088533
1.7698
57.3783
166.21
114.852
25.7358
0.939004
0.0488632
0.764059
3.70532
13.929
10.2243
1.69667
0.599218
1.71852
16.8379
-0.799945
1.16872
18.7055
26.1842
153.569
281.489
306.639
311.301
284.421
270.099
201.323
-0.039038
-0.158038
0.0665315
0.0867569
0.0506338
23.9988
145.035
97.0121
19.7151
0.836139
-0.107756
-0.144958
2.64013
12.2193
11.2846
0.638456
0.338847
1.02247
8.45526
1.84653
1.5143
10.788
16.4271
41.842
207.798
300.497
318.911
275.704
203.132
89.4572
-0.0364294
-0.151833
0.0641509
0.0859766
-0.00439198
22.595
131.34
107.534
30.2768
0.711631
-0.0723544
-0.0872068
2.43794
10.0909
3.7963
-0.634162
0.169256
2.39124
10.9404
2.78298
1.18568
5.43855
19.2552
17.0951
53.3932
245.967
321.54
226.358
116.431
86.3961
-0.0335671
-0.145276
0.0612111
0.0820906
-0.00612685
6.18988
108.377
127.147
51.1744
0.582364
-0.0397426
0.0228585
2.60939
10.7551
0.30583
-0.437449
0.408887
1.24709
8.71922
3.41542
0.660272
2.7638
3.46142
6.41994
2.65252
51.5354
220.063
299.424
99.9213
89.6319
-0.030568
-0.138372
0.0579146
0.0775941
-0.00238173
4.13755
73.2684
138.887
122.508
0.488683
-0.0366075
0.134956
10.1875
9.69244
0.677271
-0.322383
0.459465
0.472132
2.79527
7.59318
0.710248
0.936033
2.16606
1.7955
1.14084
2.58002
34.0653
286.149
150.532
92.4604
-0.0275218
-0.131139
0.0543608
0.0725483
0.000581433
0.172964
18.8642
102.305
23.8587
0.169529
-0.001391
0.243738
0.530185
0.52955
1.07551
1.31624
0.338169
0.712408
2.56271
11.2584
2.63588
1.055
1.97775
2.19353
2.35606
2.74081
11.2058
135.511
104.751
92.6968
-0.0244771
-0.123612
0.0506412
0.0672735
-0.00106927
-0.0204315
0.0305072
2.97852
-0.326978
0.184174
0.0426138
0.217188
0.0252914
0.0436027
3.53596
2.85086
0.0147594
0.606586
4.66754
10.585
3.58593
1.22806
1.94061
2.79398
2.25643
5.01653
105.009
266.677
154.839
100.472
-0.0214822
-0.11582
0.0468217
0.0619038
-0.000895289
-0.0194061
0.0237212
-0.33783
-0.215645
0.10963
0.0738231
0.0800481
0.0282917
0.311375
1.81331
2.79995
-0.155408
0.182714
12.0875
10.5488
0.553131
1.15367
1.5985
2.30792
2.85166
71.7244
271.078
292.385
266.742
224.391
-0.018578
-0.107784
0.0429458
0.0564951
-0.00059473
-0.0197569
0.0162408
-0.29801
-0.295862
0.0348213
0.135822
0.0818586
0.0156655
-0.0521415
0.0417588
0.937614
-0.0932927
0.524558
5.33504
2.05418
0.0460893
2.62064
2.55912
3.24933
7.16656
188.59
287.706
299.41
287.578
263.928
-0.0158002
-0.0995206
0.0390435
0.0510868
-0.000352502
-0.0199984
0.010117
-0.253466
-0.189798
0.164489
0.119735
0.0891695
0.00463855
-0.0359579
0.00548738
0.0443552
0.00911747
0.274527
0.60371
0.438156
0.035916
1.83771
3.55503
4.29973
4.15117
89.397
278.992
288.041
246.224
267.327
-0.0131808
-0.0910466
0.0351388
0.0457147
-0.000175943
-0.0198681
0.00617764
-0.211527
-0.159328
0.067189
0.123616
0.0954573
0.0107414
-0.0309365
-0.0127228
0.144974
0.0786301
0.161192
0.479466
0.395183
0.118331
0.502777
1.27845
4.4751
3.18285
0.962684
76.1323
241.458
146.669
139.038
-0.0107495
-0.0823803
0.0312539
0.0404134
-4.91261e-05
-0.0192862
0.00325296
-0.174967
-0.121536
0.0913876
0.110135
0.0951003
0.014882
-0.00362233
0.00328993
0.148814
0.12227
0.176868
0.334768
0.318132
-0.0646115
1.23647
3.91869
4.18948
1.01551
0.240797
-0.334321
26.4459
23.4388
5.84572
-0.00853282
-0.0735386
0.027409
0.0352149
4.14216e-05
-0.0182604
0.00100587
-0.142878
-0.0912899
0.0671875
0.0957148
0.0906764
0.0174575
0.0199599
0.00134036
0.119669
0.0921915
0.137554
0.215257
-0.00737905
1.70612
3.79058
4.21543
3.32661
0.343385
0.0372025
-0.0259237
-0.291525
-0.717269
-0.583498
-0.00655254
-0.0645355
0.0236212
0.0301464
0.00011047
-0.0168219
-0.00062608
-0.114733
-0.0670711
0.0583905
0.0797431
0.0828129
0.018843
0.0306115
0.0127824
0.0989987
0.0678867
0.0860393
0.118514
-0.0946702
2.52719
3.64958
1.90561
0.247966
-0.253036
-0.144333
-0.199271
-0.573077
-0.638493
-0.562463
-0.00482198
-0.0553784
0.0199019
0.0252264
0.000175316
-0.0150193
-0.00169467
-0.0901699
-0.0480766
0.0452869
0.0639307
0.0724433
0.0185825
0.0353384
0.0121566
0.0805035
0.0511159
0.0746576
0.0596166
-0.114384
-0.0683619
-0.0481
-0.199923
-0.277022
-0.296
-0.371979
-0.441126
-0.500524
-0.504383
-0.506614
-0.00334005
-0.0460691
0.0162543
0.0204613
0.000210629
-0.0128667
-0.00225102
-0.0688072
-0.0335222
0.0340034
0.0486316
0.0602493
0.0164205
0.0331381
0.010837
0.0525369
0.0233992
0.0344471
0.0132163
-0.0548911
-0.0951059
-0.128562
-0.183079
-0.22267
-0.274698
-0.366498
-0.455262
-0.482048
-0.462157
-0.430653
-0.00212143
-0.0365614
0.0126668
0.0158389
0.000131599
-0.0103205
-0.00233655
-0.0502846
-0.0226359
0.0230136
0.0343256
0.0467894
0.0123084
0.0275695
0.00721844
0.0363571
0.0210838
0.0196524
-0.0109426
-0.059468
-0.0926594
-0.119479
-0.181268
-0.223357
-0.296135
-0.403155
-0.475062
-0.472077
-0.390346
-0.296656
-0.0012137
-0.0267297
0.00911263
0.0113248
7.09393e-05
-0.00757525
-0.00200261
-0.0341623
-0.0146966
0.0129462
0.0205085
0.0323907
0.00618289
0.0184371
0.00128022
0.01935
0.00404925
0.00178078
-0.0151612
-0.0486247
-0.0762332
-0.098774
-0.155823
-0.154051
-0.214434
-0.293023
-0.319907
-0.288928
-0.232472
-0.168388
-0.00058033
-0.0164732
0.00553816
0.00684811
3.40816e-05
-0.00466985
-0.00131806
-0.0198944
-0.00895814
0.00336659
0.00704376
0.0170569
-0.00182352
0.00705682
-0.00653939
0.0033113
-0.00733963
-0.00919376
-0.0240429
-0.0372113
-0.0509422
-0.0616117
-0.0778384
0.137333
0.151256
-0.129192
-0.122109
-0.0603196
-0.0600396
-0.046126
-0.000136329
-0.00561288
0.00185823
0.00228239
1.13563e-05
-0.00159951
-0.00045738
-0.00670181
-0.00464957
-0.0067541
-0.00710053
0.000856143
-0.0118001
-0.0061498
-0.0162578
-0.0131632
-0.0178723
-0.0216475
-0.024957
-0.0282823
-0.0351624
-0.0253768
-0.0425391
0.0303551
0.342217
0.0785635
0.00592587
-0.00084364
-0.00151002
0.00014288
492.209
410.649
343.88
134.69
57.1101
63.7062
62.9589
61.5085
62.9927
83.9625
207.901
67.0856
-1.48855
59.4246
284.582
230.217
57.1205
186.979
248.469
226.647
121.461
211.323
300.809
287.31
252.407
248.519
247.909
247.491
301.759
224.131
469.939
410.357
336.015
145.717
57.8351
67.8798
66.1953
62.1725
63.1542
93.4767
245.485
66.9571
0.639088
20.0589
260.802
62.4296
39.0973
121.052
272.434
230.61
113.768
190.329
299.159
287.763
252.123
248.236
247.637
247.241
185.782
28.9664
496.533
420.045
327.461
225.659
127.308
73.9747
67.34
62.6156
70.0046
167.534
240.93
94.8356
0.896869
15.3081
238.658
58.7951
42.7494
25.7457
252.136
234.785
96.4356
151.872
291.321
288.073
251.804
232.36
180.068
121.224
57.5916
0.43201
493.896
398.457
329.905
250.004
151.175
75.2551
67.871
71.6853
116.432
197.408
229.501
23.438
0.931385
12.1367
237.243
76.975
24.6912
9.68225
150.268
215.639
70.4088
97.2939
276.768
288.056
234.894
179.721
95.1466
23.4968
50.9105
0.344901
485.328
392.627
323.841
261.683
209.403
107.182
69.3843
80.7024
161.681
230.057
231.504
18.6716
0.962213
4.00983
213.383
6.40145
33.1674
7.75057
189.197
212.405
38.4124
19.9397
249.64
288.037
221.018
161.543
95.0862
63.5379
58.2211
0.310587
465.164
366.549
327.378
259.781
235.564
190.35
137.058
97.4078
252.571
266.472
262.594
12.8531
0.910425
2.31037
60.3503
11.3251
29.0413
5.02217
253.789
203.369
15.9069
16.6529
394.703
280.156
186.259
61.4677
3.52576
3.46869
-0.0239014
0.358567
434.431
332.782
310.806
252.298
248.749
277.624
244.094
208.586
279.959
269.971
272.574
4.3436
0.852619
2.47391
3.93653
4.50524
27.0531
3.51199
67.5848
130.38
11.6758
16.5578
281.591
272.962
160.671
51.4634
3.06912
0.0813121
-0.0136882
0.445218
391.495
297.695
225.378
264.504
244.057
285.537
266.193
268.449
274.418
274.438
240.474
3.21604
0.858145
1.69884
8.77709
2.91936
3.02982
0.842937
46.2729
24.7695
1.56229
22.8145
374.626
219.383
115.608
22.0007
0.379708
0.0724176
-0.168937
0.199348
408.597
282.854
156.843
264.279
244.52
285.48
283.288
280.706
273.66
267.786
168.186
0.369477
0.815668
1.88501
4.30177
1.66246
0.955683
0.789103
25.3533
0.481005
0.937352
50.8241
157.508
171.965
94.4885
17.8855
0.152361
0.0632976
-0.228759
-0.0478977
348.362
212.375
132.913
256.089
252.001
282.048
282.925
251.338
251.469
261.227
123.406
0.156358
0.882863
1.2903
2.13837
1.67041
0.953984
0.71921
-0.106599
0.317084
0.263919
18.3046
144.001
164.629
74.9355
5.40648
0.102883
0.0624933
-0.221924
-0.0466732
224.195
106.561
120.51
179.347
259.801
281.363
272.65
232.393
227.937
261.824
103.426
0.765743
0.994243
1.39848
2.02819
1.56912
0.93482
0.618156
-0.141406
0.342572
0.291932
26.2653
175.904
164.441
79.8487
4.29288
0.100032
0.0609396
-0.214685
-0.0448787
94.8165
93.9408
100.485
187.692
270.186
282.226
269.848
205.886
173.282
248.477
43.489
0.115853
0.972161
1.47961
1.93965
1.80103
0.819122
0.515931
-0.129678
0.335275
0.234992
23.4348
103.356
162.924
50.4973
1.5744
0.0973476
0.058764
-0.206896
-0.0425404
89.1822
90.753
93.5108
246.964
286.723
286.683
282.637
195.494
91.8409
184.737
82.3353
-0.180109
0.760174
3.44271
2.52479
1.51207
0.788091
0.446223
-0.0873192
0.302452
0.124538
52.0679
119.219
138.091
33.4731
0.319008
0.0950772
0.0560749
-0.198565
-0.0397776
89.6811
89.8094
102.657
265.024
294.656
289.582
293.34
180.865
17.8552
52.6637
94.2283
8.88887
0.282683
5.4753
5.83208
1.46782
0.745438
0.350726
-0.0644959
0.291519
0.0992112
13.9968
120.7
111.233
14.8036
-0.00437348
0.091427
0.052895
-0.189727
-0.0367334
92.2536
90.5975
90.6844
267.414
306.596
290.472
272.27
96.5469
6.37652
2.05429
13.9136
8.85572
0.0443513
5.41727
5.79368
1.48253
0.760736
0.266641
-0.0579676
0.226465
0.699041
2.91944
98.8789
55.2154
2.47173
-0.0179577
0.0855214
0.0493518
-0.180413
-0.0335402
96.0219
92.846
122.253
324.323
285.034
276.658
124.503
-2.27999
3.64914
1.12144
-0.0447989
-0.512559
0.0404445
5.52263
5.01142
2.07529
0.732518
0.204881
-0.004079
0.201643
0.292099
-0.589845
8.06735
1.03754
-0.0522475
-0.0172683
0.0786453
0.0455819
-0.170664
-0.0302889
111.743
104.118
169.571
351.779
260.999
132.353
-0.122747
-1.10998
1.56331
0.550995
0.0958151
-0.225373
0.0737408
5.19927
4.36719
4.25657
0.645071
0.121448
0.0529231
0.208815
0.297126
-0.648863
-0.429001
-0.125367
-0.0619941
-0.0166698
0.071488
0.0416909
-0.160541
-0.0270378
207.785
207.395
265.546
249.709
88.7019
31.1154
0.226357
0.259845
0.755185
0.330671
0.191592
0.0951294
0.131883
2.12414
4.85673
6.37135
0.831132
0.014106
0.0950192
0.170365
0.30509
-0.563356
-0.390978
-0.12884
-0.0624909
-0.0155268
0.0642905
0.0377648
-0.150103
-0.0238373
266.896
287.601
187.016
41.9687
1.07322
0.0609829
0.140078
0.173347
0.247346
0.191733
0.172954
0.244697
0.0572942
0.808881
5.19464
5.01528
2.297
-0.0186224
0.14585
0.152346
0.247117
-0.525522
-0.338602
-0.127395
-0.0625937
-0.0142566
0.0571525
0.0338671
-0.139394
-0.0207316
220.665
154.433
37.5538
0.340527
0.0880564
0.61008
0.0560409
0.0195804
0.186553
0.237368
0.259253
0.207994
0.10556
2.4324
4.64934
5.32411
3.85954
-0.0253857
0.230175
0.104195
0.282362
-0.453118
-0.292015
-0.122672
-0.0620932
-0.0130452
0.0501602
0.0300429
-0.128442
-0.0177576
50.8879
13.9054
1.15095
-0.0585081
-0.0442058
-0.0399987
-0.251196
-0.0917662
0.0883334
0.260488
0.380148
0.283467
0.154478
-0.0109375
1.00767
3.68162
0.0773398
0.0205821
0.220987
0.0692144
0.201619
-0.401445
-0.249754
-0.115779
-0.0607618
-0.0119127
0.0434003
0.026329
-0.117274
-0.0149485
-0.950605
-0.318999
1.05952
0.158868
0.153896
-0.42448
-0.415735
0.432318
0.487407
0.542705
0.393944
0.259964
0.082635
-0.09514
0.108544
0.035176
-0.286416
0.0588282
0.180853
0.0421387
0.183766
-0.347133
-0.211842
-0.10736
-0.0585068
-0.0108535
0.0369568
0.0227594
-0.10591
-0.0123356
-0.442063
-0.386775
0.146248
-0.179749
-0.162416
-0.535129
-0.688474
0.243585
0.236223
0.811792
0.547168
0.231419
0.0911764
0.0151117
0.117079
-0.0167679
-0.126386
0.0824319
0.173605
0.0209521
0.156883
-0.297331
-0.178344
-0.0976797
-0.0552981
-0.00985004
0.0309038
0.0193645
-0.0943704
-0.00994743
-0.560183
-0.581845
-0.5132
-0.452387
-0.430447
-0.509953
-0.5735
-0.47525
0.19771
0.871793
0.918204
0.099814
0.0964905
0.0233291
0.101815
0.00615571
-0.0675894
0.0956397
0.141579
0.00846856
0.124294
-0.250184
-0.148846
-0.0869236
-0.0511179
-0.00886485
0.0252972
0.0161702
-0.0826655
-0.00780841
-0.518305
-0.517021
-0.480597
-0.449645
-0.451331
-0.471238
-0.464206
-0.361136
-0.232966
0.52608
0.683189
-0.000982463
0.0259945
0.0287779
0.0742341
0.0139209
-0.0202463
0.0698284
0.115819
0.000379737
0.103841
-0.206253
-0.122471
-0.0752893
-0.0459503
-0.00784437
0.020171
0.0131939
-0.0707932
-0.00593633
-0.397907
-0.379346
-0.313426
-0.278721
-0.289382
-0.290147
-0.337912
-0.231836
-0.103053
0.108448
0.635554
-0.0146003
0.00680827
0.0201706
0.0473238
0.016209
-0.000246166
0.0580857
0.0893287
-0.00438018