/*--------------------------------*- C++ -*----------------------------------*\
| =========                 |                                                 |
| \\      /  F ield         | OpenFOAM: The Open Source CFD Toolbox           |
|  \\    /   O peration     | Version:  2.4.0                                 |
|   \\  /    A nd           | Web:      www.OpenFOAM.org                      |
|    \\/     M anipulation  |                                                 |
\*---------------------------------------------------------------------------*/
FoamFile
{
    version     2.0;
    format      ascii;
    class       volScalarField;
    location    "0.051";
    object      p;
}
// * * * * * * * * * * * * * * * * * * * * * * * * * * * * * * * * * * * * * //

dimensions      [1 -1 -2 0 0 0 0];

internalField   nonuniform List<scalar> 
60000
(
97.057
97.057
97.057
97.057
97.057
97.057
97.057
97.0571
97.0571
97.0571
97.0571
97.0571
97.0571
97.0571
97.0572
97.0572
97.0572
97.0572
97.0573
97.0573
97.0573
97.0573
97.0574
97.0574
97.0574
97.0575
97.0575
97.0575
97.0576
97.0576
97.0577
97.0577
97.0578
97.0578
97.0579
97.0579
97.058
97.058
97.0581
97.0581
97.0582
97.0582
97.0583
97.0584
97.0584
97.0585
97.0585
97.0586
97.0587
97.0587
97.0588
97.0589
97.0589
97.059
97.0591
97.0591
97.0592
97.0593
97.0593
97.0594
97.0594
97.0594
97.0595
97.0595
97.0595
97.0595
97.0595
97.0594
97.0594
97.0593
97.0593
97.0592
97.0591
97.059
97.0588
97.0587
97.0585
97.0584
97.0582
97.058
97.0578
97.0576
97.0574
97.0572
97.0569
97.0567
97.0564
97.0562
97.0559
97.0557
97.0554
97.0552
97.0549
97.0546
97.0544
97.0541
97.0538
97.0535
97.0533
97.053
95.095
95.095
95.095
95.095
95.095
95.095
95.095
95.0951
95.0951
95.0951
95.0951
95.0951
95.0951
95.0951
95.0952
95.0952
95.0952
95.0952
95.0953
95.0953
95.0953
95.0953
95.0954
95.0954
95.0954
95.0955
95.0955
95.0955
95.0956
95.0956
95.0957
95.0957
95.0958
95.0958
95.0958
95.0959
95.096
95.096
95.0961
95.0961
95.0962
95.0962
95.0963
95.0964
95.0964
95.0965
95.0965
95.0966
95.0967
95.0967
95.0968
95.0969
95.0969
95.097
95.0971
95.0971
95.0972
95.0973
95.0973
95.0974
95.0974
95.0974
95.0975
95.0975
95.0975
95.0975
95.0975
95.0974
95.0974
95.0973
95.0973
95.0972
95.0971
95.097
95.0968
95.0967
95.0965
95.0964
95.0962
95.096
95.0958
95.0956
95.0954
95.0952
95.0949
95.0947
95.0944
95.0942
95.0939
95.0937
95.0934
95.0932
95.0929
95.0926
95.0924
95.0921
95.0918
95.0915
95.0913
95.091
93.133
93.133
93.133
93.133
93.133
93.133
93.133
93.1331
93.1331
93.1331
93.1331
93.1331
93.1331
93.1331
93.1332
93.1332
93.1332
93.1332
93.1333
93.1333
93.1333
93.1333
93.1334
93.1334
93.1334
93.1335
93.1335
93.1335
93.1336
93.1336
93.1337
93.1337
93.1338
93.1338
93.1338
93.1339
93.134
93.134
93.1341
93.1341
93.1342
93.1342
93.1343
93.1344
93.1344
93.1345
93.1345
93.1346
93.1347
93.1347
93.1348
93.1349
93.1349
93.135
93.1351
93.1351
93.1352
93.1353
93.1353
93.1354
93.1354
93.1354
93.1355
93.1355
93.1355
93.1355
93.1355
93.1355
93.1354
93.1354
93.1353
93.1352
93.1351
93.135
93.1349
93.1347
93.1346
93.1344
93.1342
93.134
93.1338
93.1336
93.1334
93.1332
93.1329
93.1327
93.1324
93.1322
93.1319
93.1317
93.1314
93.1312
93.1309
93.1306
93.1304
93.1301
93.1298
93.1295
93.1293
93.129
91.171
91.171
91.171
91.171
91.171
91.171
91.171
91.1711
91.1711
91.1711
91.1711
91.1711
91.1711
91.1711
91.1712
91.1712
91.1712
91.1712
91.1712
91.1713
91.1713
91.1713
91.1714
91.1714
91.1714
91.1715
91.1715
91.1715
91.1716
91.1716
91.1717
91.1717
91.1718
91.1718
91.1718
91.1719
91.172
91.172
91.1721
91.1721
91.1722
91.1722
91.1723
91.1724
91.1724
91.1725
91.1725
91.1726
91.1727
91.1727
91.1728
91.1729
91.1729
91.173
91.1731
91.1731
91.1732
91.1733
91.1733
91.1734
91.1734
91.1735
91.1735
91.1735
91.1735
91.1735
91.1735
91.1735
91.1734
91.1734
91.1733
91.1732
91.1731
91.173
91.1729
91.1727
91.1726
91.1724
91.1722
91.172
91.1718
91.1716
91.1714
91.1712
91.1709
91.1707
91.1704
91.1702
91.1699
91.1697
91.1694
91.1692
91.1689
91.1686
91.1684
91.1681
91.1678
91.1675
91.1673
91.167
89.209
89.209
89.209
89.209
89.209
89.209
89.209
89.2091
89.2091
89.2091
89.2091
89.2091
89.2091
89.2091
89.2092
89.2092
89.2092
89.2092
89.2092
89.2093
89.2093
89.2093
89.2094
89.2094
89.2094
89.2095
89.2095
89.2095
89.2096
89.2096
89.2097
89.2097
89.2098
89.2098
89.2098
89.2099
89.21
89.21
89.2101
89.2101
89.2102
89.2102
89.2103
89.2104
89.2104
89.2105
89.2105
89.2106
89.2107
89.2107
89.2108
89.2109
89.2109
89.211
89.2111
89.2111
89.2112
89.2113
89.2113
89.2114
89.2114
89.2115
89.2115
89.2115
89.2115
89.2115
89.2115
89.2115
89.2114
89.2114
89.2113
89.2112
89.2111
89.211
89.2109
89.2107
89.2106
89.2104
89.2102
89.21
89.2098
89.2096
89.2094
89.2092
89.2089
89.2087
89.2084
89.2082
89.2079
89.2077
89.2074
89.2072
89.2069
89.2066
89.2064
89.2061
89.2058
89.2055
89.2053
89.205
87.247
87.247
87.247
87.247
87.247
87.247
87.247
87.2471
87.2471
87.2471
87.2471
87.2471
87.2471
87.2471
87.2472
87.2472
87.2472
87.2472
87.2472
87.2473
87.2473
87.2473
87.2474
87.2474
87.2474
87.2475
87.2475
87.2475
87.2476
87.2476
87.2477
87.2477
87.2478
87.2478
87.2478
87.2479
87.248
87.248
87.2481
87.2481
87.2482
87.2482
87.2483
87.2484
87.2484
87.2485
87.2485
87.2486
87.2487
87.2487
87.2488
87.2489
87.249
87.249
87.2491
87.2491
87.2492
87.2493
87.2493
87.2494
87.2494
87.2495
87.2495
87.2495
87.2495
87.2495
87.2495
87.2495
87.2495
87.2494
87.2493
87.2492
87.2491
87.249
87.2489
87.2487
87.2486
87.2484
87.2482
87.248
87.2478
87.2476
87.2474
87.2472
87.2469
87.2467
87.2465
87.2462
87.2459
87.2457
87.2454
87.2452
87.2449
87.2446
87.2444
87.2441
87.2438
87.2435
87.2433
87.243
85.285
85.285
85.285
85.285
85.285
85.285
85.285
85.2851
85.2851
85.2851
85.2851
85.2851
85.2851
85.2851
85.2852
85.2852
85.2852
85.2852
85.2852
85.2853
85.2853
85.2853
85.2854
85.2854
85.2854
85.2855
85.2855
85.2855
85.2856
85.2856
85.2857
85.2857
85.2858
85.2858
85.2858
85.2859
85.286
85.286
85.2861
85.2861
85.2862
85.2862
85.2863
85.2864
85.2864
85.2865
85.2865
85.2866
85.2867
85.2867
85.2868
85.2869
85.287
85.287
85.2871
85.2872
85.2872
85.2873
85.2873
85.2874
85.2874
85.2875
85.2875
85.2875
85.2875
85.2875
85.2875
85.2875
85.2875
85.2874
85.2873
85.2873
85.2872
85.287
85.2869
85.2868
85.2866
85.2864
85.2863
85.2861
85.2859
85.2856
85.2854
85.2852
85.2849
85.2847
85.2845
85.2842
85.284
85.2837
85.2834
85.2832
85.2829
85.2826
85.2824
85.2821
85.2818
85.2815
85.2813
85.281
83.323
83.323
83.323
83.323
83.323
83.323
83.323
83.323
83.3231
83.3231
83.3231
83.3231
83.3231
83.3231
83.3232
83.3232
83.3232
83.3232
83.3232
83.3233
83.3233
83.3233
83.3234
83.3234
83.3234
83.3235
83.3235
83.3235
83.3236
83.3236
83.3237
83.3237
83.3237
83.3238
83.3238
83.3239
83.3239
83.324
83.3241
83.3241
83.3242
83.3242
83.3243
83.3244
83.3244
83.3245
83.3245
83.3246
83.3247
83.3247
83.3248
83.3249
83.325
83.325
83.3251
83.3252
83.3252
83.3253
83.3253
83.3254
83.3255
83.3255
83.3255
83.3256
83.3256
83.3256
83.3256
83.3255
83.3255
83.3254
83.3254
83.3253
83.3252
83.3251
83.3249
83.3248
83.3246
83.3245
83.3243
83.3241
83.3239
83.3237
83.3234
83.3232
83.323
83.3227
83.3225
83.3222
83.322
83.3217
83.3214
83.3212
83.3209
83.3206
83.3204
83.3201
83.3198
83.3195
83.3193
83.319
81.361
81.361
81.361
81.361
81.361
81.361
81.361
81.361
81.3611
81.3611
81.3611
81.3611
81.3611
81.3611
81.3612
81.3612
81.3612
81.3612
81.3612
81.3613
81.3613
81.3613
81.3614
81.3614
81.3614
81.3615
81.3615
81.3615
81.3616
81.3616
81.3617
81.3617
81.3617
81.3618
81.3618
81.3619
81.3619
81.362
81.3621
81.3621
81.3622
81.3622
81.3623
81.3624
81.3624
81.3625
81.3625
81.3626
81.3627
81.3627
81.3628
81.3629
81.363
81.363
81.3631
81.3632
81.3632
81.3633
81.3634
81.3634
81.3635
81.3635
81.3636
81.3636
81.3636
81.3636
81.3636
81.3636
81.3635
81.3635
81.3634
81.3633
81.3632
81.3631
81.363
81.3628
81.3627
81.3625
81.3623
81.3621
81.3619
81.3617
81.3614
81.3612
81.361
81.3607
81.3605
81.3602
81.36
81.3597
81.3594
81.3592
81.3589
81.3586
81.3584
81.3581
81.3578
81.3576
81.3573
81.357
79.399
79.399
79.399
79.399
79.399
79.399
79.399
79.399
79.3991
79.3991
79.3991
79.3991
79.3991
79.3991
79.3991
79.3992
79.3992
79.3992
79.3992
79.3993
79.3993
79.3993
79.3994
79.3994
79.3994
79.3995
79.3995
79.3995
79.3996
79.3996
79.3997
79.3997
79.3997
79.3998
79.3998
79.3999
79.3999
79.4
79.4001
79.4001
79.4002
79.4002
79.4003
79.4004
79.4004
79.4005
79.4005
79.4006
79.4007
79.4007
79.4008
79.4009
79.401
79.401
79.4011
79.4012
79.4012
79.4013
79.4014
79.4014
79.4015
79.4015
79.4016
79.4016
79.4016
79.4016
79.4016
79.4016
79.4016
79.4015
79.4014
79.4013
79.4012
79.4011
79.401
79.4008
79.4007
79.4005
79.4003
79.4001
79.3999
79.3997
79.3995
79.3992
79.399
79.3987
79.3985
79.3982
79.398
79.3977
79.3974
79.3972
79.3969
79.3966
79.3964
79.3961
79.3958
79.3956
79.3953
79.395
77.437
77.437
77.437
77.437
77.437
77.437
77.437
77.437
77.4371
77.4371
77.4371
77.4371
77.4371
77.4371
77.4371
77.4372
77.4372
77.4372
77.4372
77.4373
77.4373
77.4373
77.4374
77.4374
77.4374
77.4375
77.4375
77.4375
77.4376
77.4376
77.4377
77.4377
77.4377
77.4378
77.4378
77.4379
77.4379
77.438
77.4381
77.4381
77.4382
77.4382
77.4383
77.4384
77.4384
77.4385
77.4385
77.4386
77.4387
77.4387
77.4388
77.4389
77.439
77.439
77.4391
77.4392
77.4392
77.4393
77.4394
77.4394
77.4395
77.4396
77.4396
77.4396
77.4397
77.4397
77.4397
77.4396
77.4396
77.4395
77.4395
77.4394
77.4393
77.4392
77.439
77.4389
77.4387
77.4385
77.4383
77.4381
77.4379
77.4377
77.4375
77.4372
77.437
77.4368
77.4365
77.4362
77.436
77.4357
77.4355
77.4352
77.4349
77.4347
77.4344
77.4341
77.4338
77.4336
77.4333
77.433
75.475
75.475
75.475
75.475
75.475
75.475
75.475
75.475
75.4751
75.4751
75.4751
75.4751
75.4751
75.4751
75.4751
75.4752
75.4752
75.4752
75.4752
75.4753
75.4753
75.4753
75.4753
75.4754
75.4754
75.4754
75.4755
75.4755
75.4756
75.4756
75.4756
75.4757
75.4757
75.4758
75.4758
75.4759
75.4759
75.476
75.476
75.4761
75.4762
75.4762
75.4763
75.4763
75.4764
75.4765
75.4765
75.4766
75.4767
75.4767
75.4768
75.4769
75.477
75.477
75.4771
75.4772
75.4773
75.4773
75.4774
75.4775
75.4775
75.4776
75.4776
75.4777
75.4777
75.4777
75.4777
75.4777
75.4776
75.4776
75.4775
75.4774
75.4773
75.4772
75.4771
75.4769
75.4767
75.4766
75.4764
75.4762
75.476
75.4757
75.4755
75.4753
75.475
75.4748
75.4745
75.4743
75.474
75.4737
75.4735
75.4732
75.4729
75.4727
75.4724
75.4721
75.4718
75.4716
75.4713
75.471
73.513
73.513
73.513
73.513
73.513
73.513
73.513
73.513
73.513
73.5131
73.5131
73.5131
73.5131
73.5131
73.5131
73.5132
73.5132
73.5132
73.5132
73.5133
73.5133
73.5133
73.5133
73.5134
73.5134
73.5134
73.5135
73.5135
73.5136
73.5136
73.5136
73.5137
73.5137
73.5138
73.5138
73.5139
73.5139
73.514
73.514
73.5141
73.5142
73.5142
73.5143
73.5143
73.5144
73.5145
73.5145
73.5146
73.5147
73.5147
73.5148
73.5149
73.515
73.515
73.5151
73.5152
73.5153
73.5153
73.5154
73.5155
73.5155
73.5156
73.5157
73.5157
73.5157
73.5157
73.5157
73.5157
73.5157
73.5156
73.5156
73.5155
73.5154
73.5153
73.5151
73.515
73.5148
73.5146
73.5144
73.5142
73.514
73.5138
73.5135
73.5133
73.513
73.5128
73.5125
73.5123
73.512
73.5117
73.5115
73.5112
73.5109
73.5107
73.5104
73.5101
73.5099
73.5096
73.5093
73.509
71.551
71.551
71.551
71.551
71.551
71.551
71.551
71.551
71.551
71.5511
71.5511
71.5511
71.5511
71.5511
71.5511
71.5512
71.5512
71.5512
71.5512
71.5513
71.5513
71.5513
71.5513
71.5514
71.5514
71.5514
71.5515
71.5515
71.5516
71.5516
71.5516
71.5517
71.5517
71.5518
71.5518
71.5519
71.5519
71.552
71.552
71.5521
71.5522
71.5522
71.5523
71.5523
71.5524
71.5525
71.5525
71.5526
71.5527
71.5527
71.5528
71.5529
71.553
71.553
71.5531
71.5532
71.5533
71.5534
71.5534
71.5535
71.5536
71.5536
71.5537
71.5537
71.5538
71.5538
71.5538
71.5538
71.5537
71.5537
71.5536
71.5535
71.5534
71.5533
71.5532
71.553
71.5528
71.5526
71.5524
71.5522
71.552
71.5518
71.5515
71.5513
71.5511
71.5508
71.5505
71.5503
71.55
71.5497
71.5495
71.5492
71.5489
71.5487
71.5484
71.5481
71.5479
71.5476
71.5473
71.547
69.589
69.589
69.589
69.589
69.589
69.589
69.589
69.589
69.589
69.5891
69.5891
69.5891
69.5891
69.5891
69.5891
69.5892
69.5892
69.5892
69.5892
69.5893
69.5893
69.5893
69.5893
69.5894
69.5894
69.5894
69.5895
69.5895
69.5896
69.5896
69.5896
69.5897
69.5897
69.5898
69.5898
69.5899
69.5899
69.59
69.59
69.5901
69.5902
69.5902
69.5903
69.5903
69.5904
69.5905
69.5905
69.5906
69.5907
69.5907
69.5908
69.5909
69.591
69.591
69.5911
69.5912
69.5913
69.5914
69.5914
69.5915
69.5916
69.5917
69.5917
69.5918
69.5918
69.5918
69.5918
69.5918
69.5918
69.5917
69.5917
69.5916
69.5915
69.5914
69.5912
69.5911
69.5909
69.5907
69.5905
69.5903
69.59
69.5898
69.5896
69.5893
69.5891
69.5888
69.5886
69.5883
69.588
69.5878
69.5875
69.5872
69.587
69.5867
69.5864
69.5861
69.5859
69.5856
69.5853
69.585
67.627
67.627
67.627
67.627
67.627
67.627
67.627
67.627
67.627
67.6271
67.6271
67.6271
67.6271
67.6271
67.6271
67.6272
67.6272
67.6272
67.6272
67.6272
67.6273
67.6273
67.6273
67.6274
67.6274
67.6274
67.6275
67.6275
67.6275
67.6276
67.6276
67.6277
67.6277
67.6278
67.6278
67.6279
67.6279
67.628
67.628
67.6281
67.6281
67.6282
67.6283
67.6283
67.6284
67.6285
67.6285
67.6286
67.6287
67.6287
67.6288
67.6289
67.629
67.629
67.6291
67.6292
67.6293
67.6294
67.6295
67.6295
67.6296
67.6297
67.6298
67.6298
67.6299
67.6299
67.6299
67.6299
67.6299
67.6298
67.6297
67.6296
67.6295
67.6294
67.6293
67.6291
67.6289
67.6287
67.6285
67.6283
67.6281
67.6278
67.6276
67.6273
67.6271
67.6268
67.6266
67.6263
67.626
67.6258
67.6255
67.6252
67.625
67.6247
67.6244
67.6241
67.6239
67.6236
67.6233
67.6231
65.665
65.665
65.665
65.665
65.665
65.665
65.665
65.665
65.665
65.665
65.6651
65.6651
65.6651
65.6651
65.6651
65.6651
65.6652
65.6652
65.6652
65.6652
65.6653
65.6653
65.6653
65.6654
65.6654
65.6654
65.6655
65.6655
65.6655
65.6656
65.6656
65.6657
65.6657
65.6658
65.6658
65.6659
65.6659
65.666
65.666
65.6661
65.6661
65.6662
65.6663
65.6663
65.6664
65.6665
65.6665
65.6666
65.6667
65.6667
65.6668
65.6669
65.667
65.667
65.6671
65.6672
65.6673
65.6674
65.6675
65.6676
65.6677
65.6677
65.6678
65.6679
65.6679
65.6679
65.668
65.6679
65.6679
65.6679
65.6678
65.6677
65.6676
65.6675
65.6673
65.6672
65.667
65.6668
65.6666
65.6664
65.6661
65.6659
65.6656
65.6654
65.6651
65.6649
65.6646
65.6643
65.6641
65.6638
65.6635
65.6632
65.663
65.6627
65.6624
65.6622
65.6619
65.6616
65.6613
65.6611
63.703
63.703
63.703
63.703
63.703
63.703
63.703
63.703
63.703
63.703
63.7031
63.7031
63.7031
63.7031
63.7031
63.7031
63.7032
63.7032
63.7032
63.7032
63.7033
63.7033
63.7033
63.7034
63.7034
63.7034
63.7035
63.7035
63.7035
63.7036
63.7036
63.7037
63.7037
63.7038
63.7038
63.7039
63.7039
63.704
63.704
63.7041
63.7041
63.7042
63.7043
63.7043
63.7044
63.7045
63.7045
63.7046
63.7047
63.7047
63.7048
63.7049
63.705
63.7051
63.7051
63.7052
63.7053
63.7054
63.7055
63.7056
63.7057
63.7058
63.7058
63.7059
63.706
63.706
63.706
63.706
63.706
63.7059
63.7059
63.7058
63.7057
63.7055
63.7054
63.7052
63.705
63.7048
63.7046
63.7044
63.7042
63.7039
63.7037
63.7034
63.7031
63.7029
63.7026
63.7023
63.7021
63.7018
63.7015
63.7013
63.701
63.7007
63.7004
63.7002
63.6999
63.6996
63.6993
63.6991
61.741
61.741
61.741
61.741
61.741
61.741
61.741
61.741
61.741
61.741
61.7411
61.7411
61.7411
61.7411
61.7411
61.7411
61.7412
61.7412
61.7412
61.7412
61.7413
61.7413
61.7413
61.7414
61.7414
61.7414
61.7415
61.7415
61.7415
61.7416
61.7416
61.7417
61.7417
61.7418
61.7418
61.7419
61.7419
61.742
61.742
61.7421
61.7421
61.7422
61.7423
61.7423
61.7424
61.7425
61.7425
61.7426
61.7427
61.7427
61.7428
61.7429
61.743
61.7431
61.7431
61.7432
61.7433
61.7434
61.7435
61.7436
61.7437
61.7438
61.7439
61.744
61.744
61.7441
61.7441
61.7441
61.7441
61.744
61.744
61.7439
61.7438
61.7436
61.7435
61.7433
61.7431
61.7429
61.7427
61.7424
61.7422
61.742
61.7417
61.7414
61.7412
61.7409
61.7406
61.7404
61.7401
61.7398
61.7395
61.7393
61.739
61.7387
61.7384
61.7382
61.7379
61.7376
61.7374
61.7371
59.779
59.779
59.779
59.779
59.779
59.779
59.779
59.779
59.779
59.779
59.779
59.7791
59.7791
59.7791
59.7791
59.7791
59.7792
59.7792
59.7792
59.7792
59.7793
59.7793
59.7793
59.7793
59.7794
59.7794
59.7794
59.7795
59.7795
59.7796
59.7796
59.7797
59.7797
59.7797
59.7798
59.7798
59.7799
59.78
59.78
59.7801
59.7801
59.7802
59.7803
59.7803
59.7804
59.7805
59.7805
59.7806
59.7807
59.7807
59.7808
59.7809
59.781
59.7811
59.7811
59.7812
59.7813
59.7814
59.7815
59.7817
59.7818
59.7819
59.7819
59.782
59.7821
59.7821
59.7822
59.7822
59.7822
59.7821
59.782
59.7819
59.7818
59.7817
59.7815
59.7814
59.7812
59.781
59.7807
59.7805
59.7802
59.78
59.7797
59.7795
59.7792
59.7789
59.7786
59.7784
59.7781
59.7778
59.7775
59.7773
59.777
59.7767
59.7765
59.7762
59.7759
59.7756
59.7754
59.7751
57.817
57.817
57.817
57.817
57.817
57.817
57.817
57.817
57.817
57.817
57.817
57.8171
57.8171
57.8171
57.8171
57.8171
57.8171
57.8172
57.8172
57.8172
57.8172
57.8173
57.8173
57.8173
57.8174
57.8174
57.8174
57.8175
57.8175
57.8176
57.8176
57.8176
57.8177
57.8177
57.8178
57.8178
57.8179
57.8179
57.818
57.8181
57.8181
57.8182
57.8183
57.8183
57.8184
57.8185
57.8185
57.8186
57.8187
57.8187
57.8188
57.8189
57.819
57.8191
57.8191
57.8192
57.8193
57.8195
57.8196
57.8197
57.8198
57.8199
57.82
57.8201
57.8202
57.8202
57.8202
57.8203
57.8202
57.8202
57.8201
57.82
57.8199
57.8198
57.8196
57.8194
57.8192
57.819
57.8188
57.8185
57.8183
57.818
57.8178
57.8175
57.8172
57.8169
57.8167
57.8164
57.8161
57.8158
57.8156
57.8153
57.815
57.8147
57.8145
57.8142
57.8139
57.8136
57.8134
57.8131
55.855
55.855
55.855
55.855
55.855
55.855
55.855
55.855
55.855
55.855
55.855
55.855
55.8551
55.8551
55.8551
55.8551
55.8551
55.8552
55.8552
55.8552
55.8552
55.8553
55.8553
55.8553
55.8554
55.8554
55.8554
55.8555
55.8555
55.8556
55.8556
55.8556
55.8557
55.8557
55.8558
55.8558
55.8559
55.8559
55.856
55.8561
55.8561
55.8562
55.8563
55.8563
55.8564
55.8565
55.8565
55.8566
55.8567
55.8567
55.8568
55.8569
55.857
55.8571
55.8571
55.8572
55.8574
55.8575
55.8576
55.8577
55.8578
55.858
55.8581
55.8582
55.8582
55.8583
55.8583
55.8583
55.8583
55.8583
55.8582
55.8581
55.858
55.8579
55.8577
55.8575
55.8573
55.8571
55.8568
55.8566
55.8563
55.8561
55.8558
55.8555
55.8552
55.855
55.8547
55.8544
55.8541
55.8538
55.8536
55.8533
55.853
55.8527
55.8525
55.8522
55.8519
55.8517
55.8514
55.8511
53.893
53.893
53.893
53.893
53.893
53.893
53.893
53.893
53.893
53.893
53.893
53.893
53.8931
53.8931
53.8931
53.8931
53.8931
53.8932
53.8932
53.8932
53.8932
53.8933
53.8933
53.8933
53.8934
53.8934
53.8934
53.8935
53.8935
53.8935
53.8936
53.8936
53.8937
53.8937
53.8938
53.8938
53.8939
53.8939
53.894
53.8941
53.8941
53.8942
53.8942
53.8943
53.8944
53.8945
53.8945
53.8946
53.8947
53.8947
53.8948
53.8949
53.895
53.895
53.8951
53.8952
53.8954
53.8955
53.8956
53.8957
53.8959
53.896
53.8961
53.8962
53.8963
53.8964
53.8964
53.8964
53.8964
53.8964
53.8963
53.8962
53.8961
53.896
53.8958
53.8956
53.8954
53.8952
53.8949
53.8947
53.8944
53.8941
53.8938
53.8936
53.8933
53.893
53.8927
53.8924
53.8921
53.8919
53.8916
53.8913
53.891
53.8907
53.8905
53.8902
53.8899
53.8897
53.8894
53.8891
51.9309
51.9309
51.931
51.931
51.931
51.931
51.931
51.931
51.931
51.931
51.931
51.931
51.931
51.9311
51.9311
51.9311
51.9311
51.9311
51.9312
51.9312
51.9312
51.9313
51.9313
51.9313
51.9313
51.9314
51.9314
51.9315
51.9315
51.9315
51.9316
51.9316
51.9317
51.9317
51.9318
51.9318
51.9319
51.9319
51.932
51.932
51.9321
51.9322
51.9322
51.9323
51.9324
51.9325
51.9325
51.9326
51.9327
51.9327
51.9328
51.9329
51.933
51.933
51.9331
51.9332
51.9334
51.9335
51.9336
51.9338
51.9339
51.9341
51.9342
51.9343
51.9344
51.9345
51.9345
51.9346
51.9346
51.9345
51.9344
51.9343
51.9342
51.9341
51.9339
51.9337
51.9335
51.9332
51.933
51.9327
51.9324
51.9322
51.9319
51.9316
51.9313
51.931
51.9307
51.9304
51.9302
51.9299
51.9296
51.9293
51.929
51.9288
51.9285
51.9282
51.9279
51.9277
51.9274
51.9272
49.9689
49.9689
49.9689
49.9689
49.969
49.969
49.969
49.969
49.969
49.969
49.969
49.969
49.969
49.9691
49.9691
49.9691
49.9691
49.9691
49.9692
49.9692
49.9692
49.9692
49.9693
49.9693
49.9693
49.9694
49.9694
49.9694
49.9695
49.9695
49.9696
49.9696
49.9697
49.9697
49.9698
49.9698
49.9699
49.9699
49.97
49.97
49.9701
49.9702
49.9702
49.9703
49.9704
49.9705
49.9705
49.9706
49.9707
49.9707
49.9708
49.9709
49.971
49.971
49.9711
49.9712
49.9714
49.9715
49.9717
49.9718
49.972
49.9721
49.9723
49.9724
49.9725
49.9726
49.9726
49.9727
49.9727
49.9726
49.9726
49.9725
49.9723
49.9722
49.972
49.9718
49.9716
49.9713
49.9711
49.9708
49.9705
49.9702
49.9699
49.9696
49.9693
49.969
49.9687
49.9685
49.9682
49.9679
49.9676
49.9673
49.967
49.9668
49.9665
49.9662
49.966
49.9657
49.9654
49.9652
48.0069
48.0069
48.0069
48.0069
48.0069
48.007
48.007
48.007
48.007
48.007
48.007
48.007
48.007
48.0071
48.0071
48.0071
48.0071
48.0071
48.0072
48.0072
48.0072
48.0072
48.0073
48.0073
48.0073
48.0074
48.0074
48.0074
48.0075
48.0075
48.0076
48.0076
48.0077
48.0077
48.0077
48.0078
48.0079
48.0079
48.008
48.008
48.0081
48.0082
48.0082
48.0083
48.0084
48.0084
48.0085
48.0086
48.0087
48.0087
48.0088
48.0089
48.0089
48.009
48.0091
48.0092
48.0094
48.0095
48.0097
48.0098
48.01
48.0102
48.0103
48.0105
48.0106
48.0107
48.0108
48.0108
48.0108
48.0108
48.0107
48.0106
48.0105
48.0103
48.0101
48.0099
48.0096
48.0094
48.0091
48.0088
48.0086
48.0083
48.008
48.0077
48.0074
48.0071
48.0068
48.0065
48.0062
48.0059
48.0056
48.0053
48.005
48.0048
48.0045
48.0042
48.004
48.0037
48.0035
48.0032
46.0449
46.0449
46.0449
46.0449
46.0449
46.0449
46.0449
46.045
46.045
46.045
46.045
46.045
46.045
46.045
46.0451
46.0451
46.0451
46.0451
46.0451
46.0452
46.0452
46.0452
46.0453
46.0453
46.0453
46.0454
46.0454
46.0454
46.0455
46.0455
46.0456
46.0456
46.0456
46.0457
46.0457
46.0458
46.0458
46.0459
46.046
46.046
46.0461
46.0462
46.0462
46.0463
46.0464
46.0464
46.0465
46.0466
46.0467
46.0467
46.0468
46.0469
46.0469
46.047
46.0471
46.0472
46.0474
46.0475
46.0477
46.0479
46.048
46.0482
46.0484
46.0486
46.0487
46.0488
46.0489
46.0489
46.0489
46.0489
46.0488
46.0487
46.0486
46.0484
46.0482
46.048
46.0477
46.0475
46.0472
46.0469
46.0466
46.0463
46.046
46.0457
46.0454
46.0451
46.0448
46.0445
46.0442
46.0439
46.0436
46.0433
46.043
46.0428
46.0425
46.0422
46.042
46.0417
46.0415
46.0412
44.0829
44.0829
44.0829
44.0829
44.0829
44.0829
44.0829
44.0829
44.083
44.083
44.083
44.083
44.083
44.083
44.0831
44.0831
44.0831
44.0831
44.0831
44.0832
44.0832
44.0832
44.0832
44.0833
44.0833
44.0833
44.0834
44.0834
44.0835
44.0835
44.0835
44.0836
44.0836
44.0837
44.0837
44.0838
44.0838
44.0839
44.0839
44.084
44.0841
44.0841
44.0842
44.0843
44.0844
44.0844
44.0845
44.0846
44.0847
44.0847
44.0848
44.0848
44.0849
44.085
44.0851
44.0852
44.0854
44.0855
44.0857
44.0859
44.0861
44.0863
44.0865
44.0867
44.0868
44.0869
44.087
44.0871
44.0871
44.087
44.087
44.0869
44.0867
44.0865
44.0863
44.0861
44.0858
44.0856
44.0853
44.085
44.0847
44.0844
44.084
44.0837
44.0834
44.0831
44.0828
44.0825
44.0822
44.0819
44.0816
44.0813
44.0811
44.0808
44.0805
44.0802
44.08
44.0797
44.0795
44.0792
42.1209
42.1209
42.1209
42.1209
42.1209
42.1209
42.1209
42.1209
42.1209
42.121
42.121
42.121
42.121
42.121
42.121
42.1211
42.1211
42.1211
42.1211
42.1212
42.1212
42.1212
42.1212
42.1213
42.1213
42.1213
42.1214
42.1214
42.1214
42.1215
42.1215
42.1216
42.1216
42.1217
42.1217
42.1218
42.1218
42.1219
42.1219
42.122
42.1221
42.1221
42.1222
42.1223
42.1224
42.1224
42.1225
42.1226
42.1227
42.1227
42.1228
42.1228
42.1229
42.123
42.1231
42.1232
42.1233
42.1235
42.1237
42.1239
42.1241
42.1244
42.1246
42.1248
42.1249
42.1251
42.1252
42.1252
42.1252
42.1252
42.1251
42.125
42.1249
42.1247
42.1245
42.1242
42.124
42.1237
42.1234
42.1231
42.1227
42.1224
42.1221
42.1218
42.1214
42.1211
42.1208
42.1205
42.1202
42.1199
42.1196
42.1193
42.1191
42.1188
42.1185
42.1182
42.118
42.1177
42.1175
42.1173
40.1589
40.1589
40.1589
40.1589
40.1589
40.1589
40.1589
40.1589
40.1589
40.159
40.159
40.159
40.159
40.159
40.159
40.159
40.1591
40.1591
40.1591
40.1591
40.1592
40.1592
40.1592
40.1593
40.1593
40.1593
40.1594
40.1594
40.1594
40.1595
40.1595
40.1596
40.1596
40.1597
40.1597
40.1598
40.1598
40.1599
40.1599
40.16
40.1601
40.1601
40.1602
40.1603
40.1604
40.1605
40.1605
40.1606
40.1607
40.1607
40.1608
40.1608
40.1609
40.161
40.1611
40.1612
40.1613
40.1615
40.1617
40.1619
40.1622
40.1624
40.1627
40.1629
40.163
40.1632
40.1633
40.1634
40.1634
40.1634
40.1633
40.1632
40.163
40.1628
40.1626
40.1623
40.1621
40.1618
40.1615
40.1611
40.1608
40.1605
40.1601
40.1598
40.1595
40.1592
40.1588
40.1585
40.1582
40.1579
40.1576
40.1574
40.1571
40.1568
40.1565
40.1562
40.156
40.1557
40.1555
40.1553
38.1969
38.1969
38.1969
38.1969
38.1969
38.1969
38.1969
38.1969
38.1969
38.1969
38.197
38.197
38.197
38.197
38.197
38.197
38.1971
38.1971
38.1971
38.1971
38.1972
38.1972
38.1972
38.1973
38.1973
38.1973
38.1974
38.1974
38.1974
38.1975
38.1975
38.1976
38.1976
38.1976
38.1977
38.1977
38.1978
38.1979
38.1979
38.198
38.198
38.1981
38.1982
38.1983
38.1984
38.1985
38.1985
38.1986
38.1987
38.1987
38.1988
38.1988
38.1989
38.1989
38.199
38.1991
38.1993
38.1995
38.1997
38.2
38.2002
38.2005
38.2007
38.201
38.2012
38.2014
38.2015
38.2016
38.2016
38.2016
38.2015
38.2014
38.2012
38.201
38.2007
38.2005
38.2002
38.1999
38.1995
38.1992
38.1989
38.1985
38.1982
38.1978
38.1975
38.1972
38.1969
38.1965
38.1962
38.1959
38.1957
38.1954
38.1951
38.1948
38.1945
38.1942
38.194
38.1937
38.1935
38.1933
36.2349
36.2349
36.2349
36.2349
36.2349
36.2349
36.2349
36.2349
36.2349
36.2349
36.2349
36.235
36.235
36.235
36.235
36.235
36.235
36.2351
36.2351
36.2351
36.2351
36.2352
36.2352
36.2352
36.2353
36.2353
36.2353
36.2354
36.2354
36.2355
36.2355
36.2355
36.2356
36.2356
36.2357
36.2357
36.2358
36.2358
36.2359
36.236
36.236
36.2361
36.2362
36.2363
36.2364
36.2365
36.2365
36.2366
36.2367
36.2367
36.2368
36.2368
36.2368
36.2369
36.237
36.2371
36.2373
36.2375
36.2377
36.238
36.2383
36.2386
36.2388
36.2391
36.2393
36.2395
36.2397
36.2397
36.2398
36.2397
36.2397
36.2395
36.2394
36.2391
36.2389
36.2386
36.2383
36.238
36.2376
36.2373
36.2369
36.2366
36.2362
36.2359
36.2355
36.2352
36.2349
36.2346
36.2343
36.234
36.2337
36.2334
36.2331
36.2328
36.2325
36.2322
36.232
36.2317
36.2315
36.2313
34.2729
34.2729
34.2729
34.2729
34.2729
34.2729
34.2729
34.2729
34.2729
34.2729
34.2729
34.2729
34.273
34.273
34.273
34.273
34.273
34.2731
34.2731
34.2731
34.2731
34.2732
34.2732
34.2732
34.2733
34.2733
34.2733
34.2734
34.2734
34.2734
34.2735
34.2735
34.2736
34.2736
34.2737
34.2737
34.2738
34.2738
34.2739
34.2739
34.274
34.2741
34.2742
34.2743
34.2744
34.2745
34.2746
34.2746
34.2747
34.2747
34.2747
34.2748
34.2748
34.2748
34.2749
34.2751
34.2752
34.2755
34.2757
34.276
34.2763
34.2766
34.2769
34.2772
34.2775
34.2777
34.2778
34.2779
34.278
34.278
34.2779
34.2777
34.2775
34.2773
34.277
34.2767
34.2764
34.2761
34.2757
34.2754
34.275
34.2746
34.2743
34.2739
34.2735
34.2732
34.2729
34.2726
34.2723
34.272
34.2717
34.2714
34.2711
34.2708
34.2705
34.2702
34.27
34.2697
34.2695
34.2693
32.3109
32.3109
32.3109
32.3109
32.3109
32.3109
32.3109
32.3109
32.3109
32.3109
32.3109
32.3109
32.3109
32.311
32.311
32.311
32.311
32.311
32.3111
32.3111
32.3111
32.3112
32.3112
32.3112
32.3112
32.3113
32.3113
32.3114
32.3114
32.3114
32.3115
32.3115
32.3116
32.3116
32.3117
32.3117
32.3118
32.3118
32.3119
32.3119
32.312
32.3121
32.3122
32.3123
32.3124
32.3125
32.3126
32.3126
32.3127
32.3127
32.3127
32.3127
32.3128
32.3128
32.3129
32.313
32.3132
32.3134
32.3137
32.314
32.3144
32.3147
32.3151
32.3154
32.3156
32.3159
32.316
32.3162
32.3162
32.3162
32.3161
32.3159
32.3157
32.3155
32.3152
32.3149
32.3145
32.3142
32.3138
32.3134
32.3131
32.3127
32.3123
32.3119
32.3116
32.3112
32.3109
32.3106
32.3103
32.31
32.3097
32.3094
32.3091
32.3088
32.3085
32.3082
32.3079
32.3077
32.3075
32.3074
30.3488
30.3488
30.3488
30.3488
30.3489
30.3489
30.3489
30.3489
30.3489
30.3489
30.3489
30.3489
30.3489
30.349
30.349
30.349
30.349
30.349
30.3491
30.3491
30.3491
30.3491
30.3492
30.3492
30.3492
30.3493
30.3493
30.3493
30.3494
30.3494
30.3495
30.3495
30.3496
30.3496
30.3496
30.3497
30.3498
30.3498
30.3499
30.3499
30.35
30.3501
30.3501
30.3503
30.3504
30.3505
30.3506
30.3507
30.3507
30.3507
30.3507
30.3507
30.3507
30.3507
30.3508
30.3509
30.3511
30.3514
30.3517
30.352
30.3524
30.3528
30.3532
30.3535
30.3538
30.3541
30.3543
30.3544
30.3544
30.3544
30.3543
30.3542
30.3539
30.3537
30.3534
30.353
30.3527
30.3523
30.3519
30.3515
30.3511
30.3507
30.3503
30.3499
30.3496
30.3492
30.3489
30.3486
30.3483
30.348
30.3477
30.3474
30.3471
30.3467
30.3464
30.3462
30.3459
30.3457
30.3455
30.3454
28.3868
28.3868
28.3868
28.3868
28.3868
28.3868
28.3869
28.3869
28.3869
28.3869
28.3869
28.3869
28.3869
28.3869
28.387
28.387
28.387
28.387
28.387
28.3871
28.3871
28.3871
28.3872
28.3872
28.3872
28.3873
28.3873
28.3873
28.3874
28.3874
28.3874
28.3875
28.3875
28.3876
28.3876
28.3877
28.3877
28.3878
28.3878
28.3879
28.388
28.388
28.3881
28.3882
28.3884
28.3885
28.3886
28.3887
28.3887
28.3888
28.3887
28.3887
28.3887
28.3887
28.3887
28.3888
28.389
28.3893
28.3896
28.39
28.3904
28.3909
28.3913
28.3917
28.392
28.3923
28.3925
28.3926
28.3927
28.3927
28.3926
28.3924
28.3922
28.3919
28.3916
28.3912
28.3908
28.3904
28.39
28.3896
28.3892
28.3888
28.3884
28.388
28.3876
28.3872
28.3869
28.3866
28.3863
28.386
28.3857
28.3854
28.3851
28.3847
28.3844
28.3841
28.3839
28.3837
28.3835
28.3834
26.4248
26.4248
26.4248
26.4248
26.4248
26.4248
26.4248
26.4248
26.4249
26.4249
26.4249
26.4249
26.4249
26.4249
26.4249
26.425
26.425
26.425
26.425
26.4251
26.4251
26.4251
26.4251
26.4252
26.4252
26.4252
26.4253
26.4253
26.4254
26.4254
26.4254
26.4255
26.4255
26.4256
26.4256
26.4257
26.4257
26.4258
26.4258
26.4259
26.4259
26.426
26.4261
26.4262
26.4264
26.4265
26.4266
26.4267
26.4268
26.4268
26.4267
26.4267
26.4266
26.4266
26.4266
26.4267
26.4269
26.4272
26.4276
26.428
26.4285
26.429
26.4294
26.4298
26.4302
26.4305
26.4308
26.4309
26.431
26.4309
26.4308
26.4306
26.4304
26.4301
26.4297
26.4294
26.429
26.4285
26.4281
26.4277
26.4273
26.4268
26.4264
26.426
26.4256
26.4252
26.4249
26.4246
26.4243
26.424
26.4237
26.4234
26.4231
26.4227
26.4224
26.4221
26.4218
26.4216
26.4215
26.4214
24.4628
24.4628
24.4628
24.4628
24.4628
24.4628
24.4628
24.4628
24.4628
24.4629
24.4629
24.4629
24.4629
24.4629