/*--------------------------------*- C++ -*----------------------------------*\
| =========                 |                                                 |
| \\      /  F ield         | OpenFOAM: The Open Source CFD Toolbox           |
|  \\    /   O peration     | Version:  2.4.0                                 |
|   \\  /    A nd           | Web:      www.OpenFOAM.org                      |
|    \\/     M anipulation  |                                                 |
\*---------------------------------------------------------------------------*/
FoamFile
{
    version     2.0;
    format      ascii;
    class       volVectorField;
    location    "0.051";
    object      U;
}
// * * * * * * * * * * * * * * * * * * * * * * * * * * * * * * * * * * * * * //

dimensions      [0 1 -1 0 0 0 0];

internalField   nonuniform List<vector> 
60000
(
(-8.37339e-09 9.33002e-09 0)
(-3.12332e-08 4.03705e-09 0)
(-8.83169e-08 9.90284e-09 0)
(-1.471e-07 9.11868e-09 0)
(-2.12042e-07 9.32987e-09 0)
(-2.71521e-07 9.73222e-09 0)
(-3.34211e-07 9.55835e-09 0)
(-3.95988e-07 9.61263e-09 0)
(-4.57947e-07 9.56845e-09 0)
(-5.19798e-07 9.58304e-09 0)
(-5.81928e-07 9.64969e-09 0)
(-6.44731e-07 9.78644e-09 0)
(-7.08694e-07 9.99451e-09 0)
(-7.74109e-07 1.01953e-08 0)
(-8.40863e-07 1.03477e-08 0)
(-9.08704e-07 1.04315e-08 0)
(-9.7744e-07 1.05277e-08 0)
(-1.04701e-06 1.06022e-08 0)
(-1.11762e-06 1.07667e-08 0)
(-1.1897e-06 1.10163e-08 0)
(-1.26351e-06 1.1225e-08 0)
(-1.33936e-06 1.15589e-08 0)
(-1.41748e-06 1.18568e-08 0)
(-1.49774e-06 1.21496e-08 0)
(-1.57996e-06 1.23842e-08 0)
(-1.6638e-06 1.26071e-08 0)
(-1.74887e-06 1.26745e-08 0)
(-1.83487e-06 1.27739e-08 0)
(-1.92168e-06 1.28241e-08 0)
(-2.00954e-06 1.28838e-08 0)
(-2.09895e-06 1.30884e-08 0)
(-2.19039e-06 1.32628e-08 0)
(-2.2843e-06 1.35328e-08 0)
(-2.3809e-06 1.37752e-08 0)
(-2.48007e-06 1.40329e-08 0)
(-2.58125e-06 1.412e-08 0)
(-2.68377e-06 1.41008e-08 0)
(-2.78748e-06 1.40453e-08 0)
(-2.89302e-06 1.4228e-08 0)
(-3.00117e-06 1.43043e-08 0)
(-3.11262e-06 1.46508e-08 0)
(-3.22733e-06 1.46793e-08 0)
(-3.34482e-06 1.47106e-08 0)
(-3.46507e-06 1.49662e-08 0)
(-3.58746e-06 1.44415e-08 0)
(-3.71285e-06 1.47095e-08 0)
(-3.84253e-06 1.48718e-08 0)
(-3.97565e-06 1.43728e-08 0)
(-4.11251e-06 1.45253e-08 0)
(-4.25376e-06 1.46047e-08 0)
(-4.39817e-06 1.42811e-08 0)
(-4.54431e-06 1.38132e-08 0)
(-4.69009e-06 1.26982e-08 0)
(-4.8333e-06 1.13507e-08 0)
(-4.97244e-06 9.74252e-09 0)
(-5.10534e-06 7.45193e-09 0)
(-5.22969e-06 4.87697e-09 0)
(-5.34367e-06 1.93906e-09 0)
(-5.44494e-06 -1.71673e-09 0)
(-5.53107e-06 -5.75998e-09 0)
(-5.60008e-06 -1.01489e-08 0)
(-5.64981e-06 -1.51038e-08 0)
(-5.67805e-06 -2.05141e-08 0)
(-5.68309e-06 -2.65054e-08 0)
(-5.66242e-06 -3.20524e-08 0)
(-5.61333e-06 -3.77621e-08 0)
(-5.53405e-06 -4.36675e-08 0)
(-5.42353e-06 -4.94396e-08 0)
(-5.28146e-06 -5.51937e-08 0)
(-5.10791e-06 -6.06966e-08 0)
(-4.90383e-06 -6.58529e-08 0)
(-4.67125e-06 -7.043e-08 0)
(-4.41346e-06 -7.41774e-08 0)
(-4.13447e-06 -7.70623e-08 0)
(-3.83813e-06 -7.92543e-08 0)
(-3.52821e-06 -8.06639e-08 0)
(-3.20897e-06 -8.11293e-08 0)
(-2.88471e-06 -8.08276e-08 0)
(-2.55916e-06 -7.99452e-08 0)
(-2.23609e-06 -7.83642e-08 0)
(-1.91973e-06 -7.60753e-08 0)
(-1.61453e-06 -7.31367e-08 0)
(-1.32513e-06 -6.95537e-08 0)
(-1.0565e-06 -6.52414e-08 0)
(-8.13607e-07 -6.03225e-08 0)
(-6.00778e-07 -5.50347e-08 0)
(-4.21733e-07 -4.93909e-08 0)
(-2.7965e-07 -4.3548e-08 0)
(-1.77238e-07 -3.76772e-08 0)
(-1.16956e-07 -3.19577e-08 0)
(-1.00815e-07 -2.65178e-08 0)
(-1.28984e-07 -2.02516e-08 0)
(-2.00461e-07 -1.42396e-08 0)
(-3.15486e-07 -8.17393e-09 0)
(-4.63475e-07 -4.11288e-09 0)
(-7.04379e-07 8.1373e-09 0)
(-7.45369e-07 -8.65024e-09 0)
(-1.37327e-06 4.81512e-08 0)
(-1.17584e-06 -2.24036e-08 0)
(-1.85975e-06 1.26494e-08 0)
(3.07425e-08 1.07492e-08 0)
(1.15827e-08 3.30488e-08 0)
(-1.11129e-07 5.40753e-08 0)
(-2.01375e-07 5.49538e-08 0)
(-3.17502e-07 5.42823e-08 0)
(-4.16928e-07 5.46467e-08 0)
(-5.22804e-07 5.46555e-08 0)
(-6.26997e-07 5.47751e-08 0)
(-7.31914e-07 5.47005e-08 0)
(-8.36979e-07 5.47745e-08 0)
(-9.4272e-07 5.51454e-08 0)
(-1.04956e-06 5.59975e-08 0)
(-1.15813e-06 5.72194e-08 0)
(-1.26888e-06 5.85059e-08 0)
(-1.38186e-06 5.96861e-08 0)
(-1.49709e-06 6.06238e-08 0)
(-1.61445e-06 6.14313e-08 0)
(-1.73388e-06 6.22567e-08 0)
(-1.85568e-06 6.34351e-08 0)
(-1.98017e-06 6.49238e-08 0)
(-2.10777e-06 6.65865e-08 0)
(-2.23894e-06 6.86619e-08 0)
(-2.37386e-06 7.05991e-08 0)
(-2.51246e-06 7.24977e-08 0)
(-2.65463e-06 7.41385e-08 0)
(-2.79985e-06 7.53769e-08 0)
(-2.94796e-06 7.63771e-08 0)
(-3.09878e-06 7.72266e-08 0)
(-3.25206e-06 7.80568e-08 0)
(-3.40861e-06 7.93278e-08 0)
(-3.56895e-06 8.10415e-08 0)
(-3.73381e-06 8.32932e-08 0)
(-3.90389e-06 8.57203e-08 0)
(-4.07945e-06 8.83012e-08 0)
(-4.26033e-06 9.05822e-08 0)
(-4.44578e-06 9.2245e-08 0)
(-4.63529e-06 9.33879e-08 0)
(-4.82909e-06 9.48565e-08 0)
(-5.0279e-06 9.71711e-08 0)
(-5.23289e-06 1.00093e-07 0)
(-5.44495e-06 1.03586e-07 0)
(-5.66412e-06 1.06558e-07 0)
(-5.8905e-06 1.09357e-07 0)
(-6.12318e-06 1.12142e-07 0)
(-6.36283e-06 1.14377e-07 0)
(-6.61148e-06 1.18792e-07 0)
(-6.86932e-06 1.23044e-07 0)
(-7.13672e-06 1.26547e-07 0)
(-7.41433e-06 1.31343e-07 0)
(-7.70131e-06 1.35459e-07 0)
(-7.99633e-06 1.3827e-07 0)
(-8.29796e-06 1.39964e-07 0)
(-8.60405e-06 1.39381e-07 0)
(-8.91212e-06 1.37414e-07 0)
(-9.21988e-06 1.34125e-07 0)
(-9.52499e-06 1.28636e-07 0)
(-9.82466e-06 1.2156e-07 0)
(-1.01159e-05 1.12886e-07 0)
(-1.03962e-05 1.02027e-07 0)
(-1.06628e-05 8.94221e-08 0)
(-1.09122e-05 7.51199e-08 0)
(-1.11415e-05 5.87862e-08 0)
(-1.13476e-05 4.05481e-08 0)
(-1.15267e-05 2.02266e-08 0)
(-1.16753e-05 -1.46426e-09 0)
(-1.17903e-05 -2.47893e-08 0)
(-1.18678e-05 -4.92445e-08 0)
(-1.19053e-05 -7.54487e-08 0)
(-1.19015e-05 -1.02346e-07 0)
(-1.18557e-05 -1.2899e-07 0)
(-1.17681e-05 -1.54639e-07 0)
(-1.16406e-05 -1.78302e-07 0)
(-1.14763e-05 -1.98926e-07 0)
(-1.12793e-05 -2.16206e-07 0)
(-1.10545e-05 -2.3037e-07 0)
(-1.08072e-05 -2.41292e-07 0)
(-1.05427e-05 -2.48464e-07 0)
(-1.02665e-05 -2.52239e-07 0)
(-9.98464e-06 -2.52962e-07 0)
(-9.70343e-06 -2.50098e-07 0)
(-9.42959e-06 -2.43362e-07 0)
(-9.17052e-06 -2.32559e-07 0)
(-8.93425e-06 -2.17369e-07 0)
(-8.72899e-06 -1.97537e-07 0)
(-8.56306e-06 -1.73285e-07 0)
(-8.44482e-06 -1.45116e-07 0)
(-8.38233e-06 -1.13356e-07 0)
(-8.38253e-06 -7.87315e-08 0)
(-8.45139e-06 -4.22864e-08 0)
(-8.59422e-06 -4.6333e-09 0)
(-8.81421e-06 3.41283e-08 0)
(-9.1131e-06 7.3955e-08 0)
(-9.49059e-06 1.13145e-07 0)
(-9.94588e-06 1.50999e-07 0)
(-1.04638e-05 1.8539e-07 0)
(-1.11171e-05 2.20009e-07 0)
(-1.14551e-05 2.2614e-07 0)
(-1.2895e-05 3.37977e-07 0)
(-1.2329e-05 1.50676e-07 0)
(-1.43264e-05 1.16651e-07 0)
(4.61259e-08 -1.2646e-08 0)
(2.78763e-08 7.784e-08 0)
(-1.19888e-07 1.1034e-07 0)
(-2.17004e-07 1.1376e-07 0)
(-3.45621e-07 1.11672e-07 0)
(-4.56704e-07 1.11592e-07 0)
(-5.74935e-07 1.11791e-07 0)
(-6.91171e-07 1.12148e-07 0)
(-8.08705e-07 1.12345e-07 0)
(-9.26979e-07 1.12736e-07 0)
(-1.04642e-06 1.13552e-07 0)
(-1.16707e-06 1.15184e-07 0)
(-1.28926e-06 1.17362e-07 0)
(-1.41341e-06 1.1976e-07 0)
(-1.53974e-06 1.22203e-07 0)
(-1.66856e-06 1.24443e-07 0)
(-1.80013e-06 1.26481e-07 0)
(-1.93461e-06 1.28665e-07 0)
(-2.07204e-06 1.31295e-07 0)
(-2.21258e-06 1.34359e-07 0)
(-2.35666e-06 1.37922e-07 0)
(-2.50436e-06 1.41942e-07 0)
(-2.6559e-06 1.45849e-07 0)
(-2.81147e-06 1.49749e-07 0)
(-2.9709e-06 1.53326e-07 0)
(-3.13423e-06 1.56175e-07 0)
(-3.30179e-06 1.59164e-07 0)
(-3.47353e-06 1.61703e-07 0)
(-3.64954e-06 1.64444e-07 0)
(-3.83052e-06 1.68055e-07 0)
(-4.01649e-06 1.72034e-07 0)
(-4.20789e-06 1.77382e-07 0)
(-4.40515e-06 1.82601e-07 0)
(-4.60852e-06 1.88428e-07 0)
(-4.81773e-06 1.93442e-07 0)
(-5.03251e-06 1.97905e-07 0)
(-5.25311e-06 2.01481e-07 0)
(-5.47993e-06 2.05934e-07 0)
(-5.71313e-06 2.11187e-07 0)
(-5.95334e-06 2.18218e-07 0)
(-6.2007e-06 2.25234e-07 0)
(-6.45535e-06 2.32468e-07 0)
(-6.71789e-06 2.3911e-07 0)
(-6.98736e-06 2.45e-07 0)
(-7.26536e-06 2.52431e-07 0)
(-7.55252e-06 2.61572e-07 0)
(-7.84806e-06 2.70643e-07 0)
(-8.15391e-06 2.8016e-07 0)
(-8.46963e-06 2.89947e-07 0)
(-8.79331e-06 2.98427e-07 0)
(-9.12445e-06 3.05318e-07 0)
(-9.4619e-06 3.10199e-07 0)
(-9.80457e-06 3.12117e-07 0)
(-1.01512e-05 3.11492e-07 0)
(-1.04994e-05 3.08367e-07 0)
(-1.08473e-05 3.02081e-07 0)
(-1.11922e-05 2.92581e-07 0)
(-1.15311e-05 2.80024e-07 0)
(-1.18613e-05 2.64162e-07 0)
(-1.21795e-05 2.44823e-07 0)
(-1.2482e-05 2.21973e-07 0)
(-1.2765e-05 1.95615e-07 0)
(-1.30251e-05 1.65661e-07 0)
(-1.32581e-05 1.32018e-07 0)
(-1.34605e-05 9.45076e-08 0)
(-1.36293e-05 5.36535e-08 0)
(-1.37619e-05 1.00681e-08 0)
(-1.38558e-05 -3.63735e-08 0)
(-1.39093e-05 -8.37652e-08 0)
(-1.3922e-05 -1.31057e-07 0)
(-1.38944e-05 -1.76717e-07 0)
(-1.38284e-05 -2.1922e-07 0)
(-1.37263e-05 -2.57156e-07 0)
(-1.35914e-05 -2.89661e-07 0)
(-1.34281e-05 -3.1634e-07 0)
(-1.3242e-05 -3.37073e-07 0)
(-1.30387e-05 -3.51432e-07 0)
(-1.28242e-05 -3.59282e-07 0)
(-1.26056e-05 -3.60679e-07 0)
(-1.23905e-05 -3.55024e-07 0)
(-1.21867e-05 -3.41709e-07 0)
(-1.20023e-05 -3.20182e-07 0)
(-1.18462e-05 -2.89882e-07 0)
(-1.17272e-05 -2.50646e-07 0)
(-1.16538e-05 -2.02645e-07 0)
(-1.16351e-05 -1.46292e-07 0)
(-1.16795e-05 -8.23899e-08 0)
(-1.17949e-05 -1.18058e-08 0)
(-1.19882e-05 6.37479e-08 0)
(-1.22646e-05 1.43177e-07 0)
(-1.26282e-05 2.25419e-07 0)
(-1.30813e-05 3.08197e-07 0)
(-1.36235e-05 3.89625e-07 0)
(-1.42545e-05 4.67428e-07 0)
(-1.49558e-05 5.37949e-07 0)
(-1.58113e-05 6.07214e-07 0)
(-1.62973e-05 6.22443e-07 0)
(-1.80933e-05 7.70416e-07 0)
(-1.73368e-05 5.09493e-07 0)
(-2.0064e-05 2.54618e-07 0)
(1.96248e-08 -2.61512e-08 0)
(-1.32822e-09 1.18439e-07 0)
(-1.25525e-07 1.67576e-07 0)
(-2.27153e-07 1.72913e-07 0)
(-3.57238e-07 1.70758e-07 0)
(-4.70648e-07 1.70289e-07 0)
(-5.91412e-07 1.7066e-07 0)
(-7.10003e-07 1.71309e-07 0)
(-8.30059e-07 1.72001e-07 0)
(-9.51259e-07 1.72963e-07 0)
(-1.07406e-06 1.74437e-07 0)
(-1.19827e-06 1.76842e-07 0)
(-1.32397e-06 1.79865e-07 0)
(-1.45142e-06 1.83271e-07 0)
(-1.58082e-06 1.86882e-07 0)
(-1.71249e-06 1.90385e-07 0)
(-1.84692e-06 1.93853e-07 0)
(-1.98449e-06 1.97572e-07 0)
(-2.12521e-06 2.01725e-07 0)
(-2.26931e-06 2.06492e-07 0)
(-2.417e-06 2.11895e-07 0)
(-2.56807e-06 2.17706e-07 0)
(-2.72298e-06 2.23639e-07 0)
(-2.88206e-06 2.29569e-07 0)
(-3.04515e-06 2.3519e-07 0)
(-3.21296e-06 2.40325e-07 0)
(-3.38577e-06 2.45644e-07 0)
(-3.56346e-06 2.50613e-07 0)
(-3.74653e-06 2.56023e-07 0)
(-3.93505e-06 2.62277e-07 0)
(-4.12917e-06 2.69029e-07 0)
(-4.32863e-06 2.7719e-07 0)
(-4.53367e-06 2.85369e-07 0)
(-4.74469e-06 2.94239e-07 0)
(-4.96154e-06 3.02253e-07 0)
(-5.18451e-06 3.09914e-07 0)
(-5.41411e-06 3.16798e-07 0)
(-5.65076e-06 3.2468e-07 0)
(-5.8946e-06 3.33336e-07 0)
(-6.14529e-06 3.44064e-07 0)
(-6.40248e-06 3.54515e-07 0)
(-6.66623e-06 3.65563e-07 0)
(-6.93697e-06 3.75971e-07 0)
(-7.21566e-06 3.85601e-07 0)
(-7.50224e-06 3.9748e-07 0)
(-7.79612e-06 4.10459e-07 0)
(-8.09735e-06 4.2369e-07 0)
(-8.4059e-06 4.37789e-07 0)
(-8.72136e-06 4.51292e-07 0)
(-9.04343e-06 4.63272e-07 0)
(-9.37173e-06 4.73412e-07 0)
(-9.70561e-06 4.80965e-07 0)
(-1.00443e-05 4.85288e-07 0)
(-1.03869e-05 4.86259e-07 0)
(-1.07318e-05 4.8364e-07 0)
(-1.10768e-05 4.76912e-07 0)
(-1.14196e-05 4.65564e-07 0)
(-1.17575e-05 4.4959e-07 0)
(-1.20871e-05 4.28798e-07 0)
(-1.24048e-05 4.02675e-07 0)
(-1.27069e-05 3.71063e-07 0)
(-1.29892e-05 3.34052e-07 0)
(-1.32477e-05 2.91446e-07 0)
(-1.34785e-05 2.43119e-07 0)
(-1.36781e-05 1.89346e-07 0)
(-1.38435e-05 1.30617e-07 0)
(-1.39726e-05 6.73746e-08 0)
(-1.40634e-05 1.38856e-09 0)
(-1.41147e-05 -6.58494e-08 0)
(-1.41263e-05 -1.32931e-07 0)
(-1.40988e-05 -1.97821e-07 0)
(-1.40338e-05 -2.58488e-07 0)
(-1.39336e-05 -3.13262e-07 0)
(-1.38012e-05 -3.60834e-07 0)
(-1.36408e-05 -4.00118e-07 0)
(-1.34576e-05 -4.30525e-07 0)
(-1.32575e-05 -4.51661e-07 0)
(-1.30472e-05 -4.62969e-07 0)
(-1.28344e-05 -4.6373e-07 0)
(-1.2627e-05 -4.53556e-07 0)
(-1.24336e-05 -4.3159e-07 0)
(-1.22628e-05 -3.97097e-07 0)
(-1.21233e-05 -3.49402e-07 0)
(-1.2024e-05 -2.88372e-07 0)
(-1.19737e-05 -2.14223e-07 0)
(-1.19809e-05 -1.27463e-07 0)
(-1.20538e-05 -2.92049e-08 0)
(-1.22004e-05 7.94341e-08 0)
(-1.24279e-05 1.96737e-07 0)
(-1.27418e-05 3.20757e-07 0)
(-1.31465e-05 4.48854e-07 0)
(-1.36444e-05 5.78065e-07 0)
(-1.42353e-05 7.0494e-07 0)
(-1.49197e-05 8.25696e-07 0)
(-1.56769e-05 9.3519e-07 0)
(-1.66025e-05 1.03689e-06 0)
(-1.71219e-05 1.07845e-06 0)
(-1.90476e-05 1.22029e-06 0)
(-1.82227e-05 9.50017e-07 0)
(-2.12338e-05 4.31231e-07 0)
(1.61609e-08 -2.70611e-08 0)
(-1.09467e-08 1.54347e-07 0)
(-1.32922e-07 2.22911e-07 0)
(-2.32973e-07 2.32197e-07 0)
(-3.61516e-07 2.30407e-07 0)
(-4.74625e-07 2.29835e-07 0)
(-5.95401e-07 2.30404e-07 0)
(-7.14148e-07 2.31375e-07 0)
(-8.34487e-07 2.32649e-07 0)
(-9.56117e-07 2.34292e-07 0)
(-1.07937e-06 2.3653e-07 0)
(-1.20405e-06 2.39702e-07 0)
(-1.33025e-06 2.43517e-07 0)
(-1.45809e-06 2.47835e-07 0)
(-1.58779e-06 2.52537e-07 0)
(-1.71976e-06 2.57243e-07 0)
(-1.8545e-06 2.62182e-07 0)
(-1.9924e-06 2.67494e-07 0)
(-2.13352e-06 2.73279e-07 0)
(-2.2781e-06 2.79819e-07 0)
(-2.42622e-06 2.86997e-07 0)
(-2.57769e-06 2.94621e-07 0)
(-2.733e-06 3.02576e-07 0)
(-2.89241e-06 3.10576e-07 0)
(-3.05599e-06 3.18388e-07 0)
(-3.22443e-06 3.26128e-07 0)
(-3.39816e-06 3.33915e-07 0)
(-3.57716e-06 3.41686e-07 0)
(-3.76175e-06 3.49974e-07 0)
(-3.95214e-06 3.58965e-07 0)
(-4.14831e-06 3.68638e-07 0)
(-4.34989e-06 3.79326e-07 0)
(-4.55705e-06 3.90424e-07 0)
(-4.77011e-06 4.02102e-07 0)
(-4.98899e-06 4.13266e-07 0)
(-5.21404e-06 4.24189e-07 0)
(-5.44576e-06 4.34634e-07 0)
(-5.68452e-06 4.45945e-07 0)
(-5.93054e-06 4.58069e-07 0)
(-6.18337e-06 4.71885e-07 0)
(-6.44251e-06 4.85712e-07 0)
(-6.7078e-06 4.99891e-07 0)
(-6.97972e-06 5.13914e-07 0)
(-7.25925e-06 5.27502e-07 0)
(-7.54624e-06 5.42758e-07 0)
(-7.8398e-06 5.59049e-07 0)
(-8.13973e-06 5.75701e-07 0)
(-8.44595e-06 5.92915e-07 0)
(-8.75803e-06 6.0946e-07 0)
(-9.07582e-06 6.24408e-07 0)
(-9.39917e-06 6.37299e-07 0)
(-9.72765e-06 6.47304e-07 0)
(-1.00608e-05 6.53778e-07 0)
(-1.03978e-05 6.56329e-07 0)
(-1.07372e-05 6.54356e-07 0)
(-1.1077e-05 6.47217e-07 0)
(-1.1415e-05 6.34235e-07 0)
(-1.17484e-05 6.15017e-07 0)
(-1.20735e-05 5.89162e-07 0)
(-1.23868e-05 5.56115e-07 0)
(-1.26842e-05 5.15563e-07 0)
(-1.29614e-05 4.67476e-07 0)
(-1.32142e-05 4.11779e-07 0)
(-1.34386e-05 3.485e-07 0)
(-1.36312e-05 2.78161e-07 0)
(-1.37889e-05 2.01537e-07 0)
(-1.39095e-05 1.1954e-07 0)
(-1.39913e-05 3.40546e-08 0)
(-1.40332e-05 -5.31934e-08 0)
(-1.40351e-05 -1.4003e-07 0)
(-1.39979e-05 -2.24161e-07 0)
(-1.39228e-05 -3.03102e-07 0)
(-1.38121e-05 -3.74746e-07 0)
(-1.36688e-05 -4.37353e-07 0)
(-1.34971e-05 -4.89394e-07 0)
(-1.33022e-05 -5.29703e-07 0)
(-1.30903e-05 -5.57511e-07 0)
(-1.28683e-05 -5.71878e-07 0)
(-1.2644e-05 -5.71763e-07 0)
(-1.24255e-05 -5.56391e-07 0)
(-1.22218e-05 -5.24913e-07 0)
(-1.20417e-05 -4.76514e-07 0)
(-1.18941e-05 -4.10469e-07 0)
(-1.17876e-05 -3.26631e-07 0)
(-1.17311e-05 -2.25264e-07 0)
(-1.17333e-05 -1.07094e-07 0)
(-1.18024e-05 2.67362e-08 0)
(-1.19467e-05 1.74379e-07 0)
(-1.21732e-05 3.33915e-07 0)
(-1.24879e-05 5.02745e-07 0)
(-1.28954e-05 6.7753e-07 0)
(-1.33986e-05 8.54225e-07 0)
(-1.39977e-05 1.02804e-06 0)
(-1.46935e-05 1.19356e-06 0)
(-1.54642e-05 1.344e-06 0)
(-1.64159e-05 1.47907e-06 0)
(-1.69355e-05 1.55204e-06 0)
(-1.89197e-05 1.67872e-06 0)
(-1.80738e-05 1.4093e-06 0)
(-2.11031e-05 6.16351e-07 0)
(1.46772e-08 -2.70939e-08 0)
(-1.66281e-08 1.92451e-07 0)
(-1.37909e-07 2.77003e-07 0)
(-2.36399e-07 2.90391e-07 0)
(-3.63232e-07 2.89327e-07 0)
(-4.75607e-07 2.8899e-07 0)
(-5.95965e-07 2.8986e-07 0)
(-7.14476e-07 2.9122e-07 0)
(-8.3461e-07 2.93093e-07 0)
(-9.5607e-07 2.95413e-07 0)
(-1.0791e-06 2.98419e-07 0)
(-1.20352e-06 3.02367e-07 0)
(-1.32953e-06 3.07001e-07 0)
(-1.45717e-06 3.12226e-07 0)
(-1.58667e-06 3.18002e-07 0)
(-1.71845e-06 3.23919e-07 0)
(-1.85298e-06 3.30308e-07 0)
(-1.99068e-06 3.37187e-07 0)
(-2.13156e-06 3.44636e-07 0)
(-2.27594e-06 3.52929e-07 0)
(-2.42388e-06 3.61857e-07 0)
(-2.57515e-06 3.71331e-07 0)
(-2.73031e-06 3.81261e-07 0)
(-2.88962e-06 3.91329e-07 0)
(-3.05311e-06 4.01437e-07 0)
(-3.2215e-06 4.11741e-07 0)
(-3.39528e-06 4.22167e-07 0)
(-3.57441e-06 4.328e-07 0)
(-3.75911e-06 4.44001e-07 0)
(-3.94974e-06 4.55895e-07 0)
(-4.14619e-06 4.68426e-07 0)
(-4.34809e-06 4.81818e-07 0)
(-4.55561e-06 4.95717e-07 0)
(-4.76909e-06 5.10276e-07 0)
(-4.9885e-06 5.24569e-07 0)
(-5.21403e-06 5.38801e-07 0)
(-5.44614e-06 5.5276e-07 0)
(-5.68501e-06 5.675e-07 0)
(-5.93102e-06 5.8299e-07 0)
(-6.18402e-06 5.999e-07 0)
(-6.44324e-06 6.16959e-07 0)
(-6.70855e-06 6.34299e-07 0)
(-6.98043e-06 6.51808e-07 0)
(-7.2594e-06 6.69056e-07 0)
(-7.54549e-06 6.87664e-07 0)
(-7.83815e-06 7.07008e-07 0)
(-8.13703e-06 7.2683e-07 0)
(-8.44206e-06 7.47027e-07 0)
(-8.75289e-06 7.664e-07 0)
(-9.06927e-06 7.8414e-07 0)
(-9.39111e-06 7.99679e-07 0)
(-9.71821e-06 8.12125e-07 0)
(-1.00502e-05 8.20778e-07 0)
(-1.03862e-05 8.2496e-07 0)
(-1.0725e-05 8.2374e-07 0)
(-1.10645e-05 8.16304e-07 0)
(-1.14025e-05 8.01782e-07 0)
(-1.17361e-05 7.79395e-07 0)
(-1.20617e-05 7.48512e-07 0)
(-1.23756e-05 7.08507e-07 0)
(-1.26736e-05 6.58898e-07 0)
(-1.29513e-05 5.99543e-07 0)
(-1.32043e-05 5.30484e-07 0)
(-1.34285e-05 4.5196e-07 0)
(-1.36203e-05 3.64719e-07 0)
(-1.37765e-05 2.69825e-07 0)
(-1.38947e-05 1.68575e-07 0)
(-1.39732e-05 6.30251e-08 0)
(-1.40108e-05 -4.45154e-08 0)
(-1.40075e-05 -1.51486e-07 0)
(-1.39638e-05 -2.55198e-07 0)
(-1.38813e-05 -3.52776e-07 0)
(-1.37622e-05 -4.41701e-07 0)
(-1.36098e-05 -5.1973e-07 0)
(-1.34281e-05 -5.84798e-07 0)
(-1.32224e-05 -6.35255e-07 0)
(-1.29991e-05 -6.69887e-07 0)
(-1.27654e-05 -6.87317e-07 0)
(-1.25291e-05 -6.86434e-07 0)
(-1.22985e-05 -6.65953e-07 0)
(-1.20824e-05 -6.24901e-07 0)
(-1.18899e-05 -5.6232e-07 0)
(-1.173e-05 -4.77693e-07 0)
(-1.16118e-05 -3.70806e-07 0)
(-1.15439e-05 -2.41954e-07 0)
(-1.15354e-05 -9.20127e-08 0)
(-1.15947e-05 7.76816e-08 0)
(-1.17303e-05 2.64981e-07 0)
(-1.19496e-05 4.67405e-07 0)
(-1.22588e-05 6.81853e-07 0)
(-1.26629e-05 9.04288e-07 0)
(-1.31653e-05 1.12968e-06 0)
(-1.37666e-05 1.35203e-06 0)
(-1.44683e-05 1.56437e-06 0)
(-1.52477e-05 1.75813e-06 0)
(-1.62196e-05 1.92869e-06 0)
(-1.67426e-05 2.03485e-06 0)
(-1.87729e-05 2.1492e-06 0)
(-1.79375e-05 1.86854e-06 0)
(-2.09687e-05 7.90436e-07 0)
(1.2909e-08 -2.57956e-08 0)
(-2.10208e-08 2.31422e-07 0)
(-1.41077e-07 3.30217e-07 0)
(-2.38512e-07 3.47671e-07 0)
(-3.63991e-07 3.47573e-07 0)
(-4.75655e-07 3.4776e-07 0)
(-5.95544e-07 3.49031e-07 0)
(-7.13745e-07 3.50844e-07 0)
(-8.33583e-07 3.53308e-07 0)
(-9.54735e-07 3.56299e-07 0)
(-1.07739e-06 3.60068e-07 0)
(-1.20144e-06 3.64781e-07 0)
(-1.32708e-06 3.70246e-07 0)
(-1.45436e-06 3.76396e-07 0)
(-1.58356e-06 3.83218e-07 0)
(-1.71503e-06 3.90339e-07 0)
(-1.84924e-06 3.98187e-07 0)
(-1.98666e-06 4.06609e-07 0)
(-2.12719e-06 4.15708e-07 0)
(-2.27122e-06 4.25763e-07 0)
(-2.41885e-06 4.3643e-07 0)
(-2.56981e-06 4.4776e-07 0)
(-2.72474e-06 4.59671e-07 0)
(-2.88389e-06 4.7183e-07 0)
(-3.04724e-06 4.8429e-07 0)
(-3.21551e-06 4.97143e-07 0)
(-3.3892e-06 5.10256e-07 0)
(-3.5682e-06 5.23718e-07 0)
(-3.7527e-06 5.37827e-07 0)
(-3.94315e-06 5.52638e-07 0)
(-4.13943e-06 5.68037e-07 0)
(-4.34115e-06 5.84169e-07 0)
(-4.54849e-06 6.00878e-07 0)
(-4.76192e-06 6.18336e-07 0)
(-4.98145e-06 6.35827e-07 0)
(-5.20707e-06 6.53296e-07 0)
(-5.43914e-06 6.708e-07 0)
(-5.67777e-06 6.88853e-07 0)
(-5.92332e-06 7.07707e-07 0)
(-6.17604e-06 7.2776e-07 0)
(-6.43516e-06 7.48009e-07 0)
(-6.70022e-06 7.68558e-07 0)
(-6.9717e-06 7.89492e-07 0)
(-7.25021e-06 8.10268e-07 0)
(-7.53572e-06 8.32249e-07 0)
(-7.82795e-06 8.54767e-07 0)
(-8.12665e-06 8.77739e-07 0)
(-8.43136e-06 9.00915e-07 0)
(-8.74193e-06 9.2321e-07 0)
(-9.05843e-06 9.43827e-07 0)
(-9.38081e-06 9.6217e-07 0)
(-9.70896e-06 9.77274e-07 0)
(-1.00424e-05 9.88261e-07 0)
(-1.03803e-05 9.94241e-07 0)
(-1.07213e-05 9.94002e-07 0)
(-1.10636e-05 9.86454e-07 0)
(-1.14047e-05 9.70537e-07 0)
(-1.17418e-05 9.45138e-07 0)
(-1.20713e-05 9.09372e-07 0)
(-1.23893e-05 8.62478e-07 0)
(-1.26915e-05 8.03821e-07 0)
(-1.29734e-05 7.3317e-07 0)
(-1.32306e-05 6.50651e-07 0)
(-1.34587e-05 5.56668e-07 0)
(-1.36538e-05 4.52177e-07 0)
(-1.38125e-05 3.38581e-07 0)
(-1.39322e-05 2.17576e-07 0)
(-1.40111e-05 9.1478e-08 0)
(-1.40479e-05 -3.69645e-08 0)
(-1.40423e-05 -1.64755e-07 0)
(-1.39948e-05 -2.88703e-07 0)
(-1.39069e-05 -4.05522e-07 0)
(-1.37812e-05 -5.12232e-07 0)
(-1.36209e-05 -6.0617e-07 0)
(-1.34304e-05 -6.84754e-07 0)
(-1.32151e-05 -7.45817e-07 0)
(-1.29812e-05 -7.87589e-07 0)
(-1.27361e-05 -8.08443e-07 0)
(-1.24879e-05 -8.06873e-07 0)
(-1.22451e-05 -7.8145e-07 0)
(-1.20164e-05 -7.30925e-07 0)
(-1.18109e-05 -6.54249e-07 0)
(-1.16379e-05 -5.50932e-07 0)
(-1.15066e-05 -4.2083e-07 0)
(-1.14263e-05 -2.6429e-07 0)
(-1.14059e-05 -8.22434e-08 0)
(-1.14543e-05 1.23661e-07 0)
(-1.15801e-05 3.51211e-07 0)
(-1.17913e-05 5.97358e-07 0)
(-1.20944e-05 8.58455e-07 0)
(-1.2495e-05 1.12982e-06 0)
(-1.29969e-05 1.40553e-06 0)
(-1.36012e-05 1.67837e-06 0)
(-1.43103e-05 1.93987e-06 0)
(-1.51012e-05 2.17949e-06 0)
(-1.60957e-05 2.38841e-06 0)
(-1.66319e-05 2.52916e-06 0)
(-1.87106e-05 2.63823e-06 0)
(-1.79046e-05 2.33476e-06 0)
(-2.09654e-05 9.70422e-07 0)
(1.15294e-08 -2.3418e-08 0)
(-2.38213e-08 2.70628e-07 0)
(-1.42958e-07 3.8283e-07 0)
(-2.39687e-07 4.04303e-07 0)
(-3.64208e-07 4.05329e-07 0)
(-4.75255e-07 4.06258e-07 0)
(-5.94698e-07 4.08004e-07 0)
(-7.12564e-07 4.10327e-07 0)
(-8.32095e-07 4.13359e-07 0)
(-9.52895e-07 4.17006e-07 0)
(-1.07511e-06 4.21529e-07 0)
(-1.19872e-06 4.26997e-07 0)
(-1.32393e-06 4.33285e-07 0)
(-1.45072e-06 4.40378e-07 0)
(-1.57954e-06 4.4824e-07 0)
(-1.71065e-06 4.56573e-07 0)
(-1.8445e-06 4.65895e-07 0)
(-1.98161e-06 4.75848e-07 0)
(-2.12172e-06 4.86586e-07 0)
(-2.26533e-06 4.98423e-07 0)
(-2.41259e-06 5.10864e-07 0)
(-2.56317e-06 5.24102e-07 0)
(-2.71784e-06 5.38065e-07 0)
(-2.87682e-06 5.52377e-07 0)
(-3.03998e-06 5.67178e-07 0)
(-3.2081e-06 5.82533e-07 0)
(-3.38167e-06 5.98299e-07 0)
(-3.56045e-06 6.14508e-07 0)
(-3.74467e-06 6.31508e-07 0)
(-3.93486e-06 6.49218e-07 0)
(-4.13088e-06 6.67542e-07 0)
(-4.33233e-06 6.86455e-07 0)
(-4.53934e-06 7.06014e-07 0)
(-4.75252e-06 7.26372e-07 0)
(-4.972e-06 7.47115e-07 0)
(-5.19763e-06 7.67782e-07 0)
(-5.42956e-06 7.88777e-07 0)
(-5.66787e-06 8.10128e-07 0)
(-5.91303e-06 8.32295e-07 0)
(-6.16538e-06 8.55516e-07 0)
(-6.42431e-06 8.7902e-07 0)
(-6.68932e-06 9.02763e-07 0)
(-6.96067e-06 9.27084e-07 0)
(-7.2389e-06 9.514e-07 0)
(-7.52401e-06 9.76718e-07 0)
(-7.8159e-06 1.00258e-06 0)
(-8.11443e-06 1.02872e-06 0)
(-8.41919e-06 1.05491e-06 0)
(-8.73012e-06 1.08031e-06 0)
(-9.04737e-06 1.10403e-06 0)
(-9.37097e-06 1.12545e-06 0)
(-9.70084e-06 1.14349e-06 0)
(-1.00365e-05 1.15705e-06 0)
(-1.03772e-05 1.16509e-06 0)
(-1.07217e-05 1.16613e-06 0)
(-1.1068e-05 1.15874e-06 0)
(-1.14138e-05 1.14166e-06 0)
(-1.1756e-05 1.11348e-06 0)
(-1.20911e-05 1.07304e-06 0)
(-1.2415e-05 1.01939e-06 0)
(-1.27234e-05 9.5173e-07 0)
(-1.30116e-05 8.69784e-07 0)
(-1.32748e-05 7.73716e-07 0)
(-1.35086e-05 6.64041e-07 0)
(-1.37087e-05 5.41928e-07 0)
(-1.38716e-05 4.09156e-07 0)
(-1.39943e-05 2.67813e-07 0)
(-1.40747e-05 1.20517e-07 0)
(-1.41115e-05 -2.95502e-08 0)
(-1.41042e-05 -1.78882e-07 0)
(-1.40535e-05 -3.23843e-07 0)
(-1.39607e-05 -4.60687e-07 0)
(-1.38284e-05 -5.85919e-07 0)
(-1.36601e-05 -6.96334e-07 0)
(-1.34604e-05 -7.88971e-07 0)
(-1.32347e-05 -8.61181e-07 0)
(-1.29896e-05 -9.10612e-07 0)
(-1.27323e-05 -9.35226e-07 0)
(-1.2471e-05 -9.33253e-07 0)
(-1.22144e-05 -9.03025e-07 0)
(-1.19715e-05 -8.43156e-07 0)
(-1.17514e-05 -7.52555e-07 0)
(-1.15637e-05 -6.30548e-07 0)
(-1.14176e-05 -4.77108e-07 0)
(-1.13228e-05 -2.92652e-07 0)
(-1.12887e-05 -7.8212e-08 0)
(-1.13245e-05 1.64452e-07 0)
(-1.1439e-05 4.32931e-07 0)
(-1.16406e-05 7.23795e-07 0)
(-1.19367e-05 1.03283e-06 0)
(-1.2333e-05 1.35471e-06 0)
(-1.28343e-05 1.68268e-06 0)
(-1.34423e-05 2.00831e-06 0)
(-1.41603e-05 2.32151e-06 0)
(-1.49658e-05 2.60977e-06 0)
(-1.59855e-05 2.86056e-06 0)
(-1.65436e-05 3.03836e-06 0)
(-1.86751e-05 3.15067e-06 0)
(-1.79121e-05 2.81788e-06 0)
(-2.10244e-05 1.16383e-06 0)
(1.10283e-08 -2.0391e-08 0)
(-2.46914e-08 3.0995e-07 0)
(-1.43676e-07 4.35228e-07 0)
(-2.39991e-07 4.60603e-07 0)
(-3.6393e-07 4.62781e-07 0)
(-4.74474e-07 4.64565e-07 0)
(-5.93552e-07 4.66815e-07 0)
(-7.11068e-07 4.69687e-07 0)
(-8.30269e-07 4.73269e-07 0)
(-9.50676e-07 4.7755e-07 0)
(-1.07238e-06 4.82801e-07 0)
(-1.19549e-06 4.89033e-07 0)
(-1.32018e-06 4.96128e-07 0)
(-1.44643e-06 5.04172e-07 0)
(-1.57482e-06 5.1309e-07 0)
(-1.70552e-06 5.2266e-07 0)
(-1.83896e-06 5.33451e-07 0)
(-1.9757e-06 5.44904e-07 0)
(-2.1153e-06 5.57291e-07 0)
(-2.25846e-06 5.70908e-07 0)
(-2.40531e-06 5.85153e-07 0)
(-2.55547e-06 6.00358e-07 0)
(-2.70986e-06 6.16432e-07 0)
(-2.86863e-06 6.32949e-07 0)
(-3.03154e-06 6.50064e-07 0)
(-3.19942e-06 6.67891e-07 0)
(-3.3728e-06 6.86287e-07 0)
(-3.55133e-06 7.05182e-07 0)
(-3.73522e-06 7.25035e-07 0)
(-3.92515e-06 7.45656e-07 0)
(-4.12092e-06 7.66925e-07 0)
(-4.32206e-06 7.88724e-07 0)
(-4.52868e-06 8.11124e-07 0)
(-4.74152e-06 8.34422e-07 0)
(-4.96085e-06 8.58346e-07 0)
(-5.18639e-06 8.82303e-07 0)
(-5.41822e-06 9.06666e-07 0)
(-5.65624e-06 9.31348e-07 0)
(-5.90099e-06 9.56792e-07 0)
(-6.15297e-06 9.83193e-07 0)
(-6.41169e-06 1.01004e-06 0)
(-6.67666e-06 1.03703e-06 0)
(-6.94801e-06 1.0647e-06 0)
(-7.22609e-06 1.09249e-06 0)
(-7.51101e-06 1.12116e-06 0)
(-7.80266e-06 1.15037e-06 0)
(-8.10103e-06 1.17978e-06 0)
(-8.406e-06 1.20916e-06 0)
(-8.71749e-06 1.23781e-06 0)
(-9.03566e-06 1.26485e-06 0)
(-9.36063e-06 1.28959e-06 0)
(-9.69231e-06 1.31083e-06 0)
(-1.00304e-05 1.32729e-06 0)
(-1.03743e-05 1.33773e-06 0)
(-1.07226e-05 1.34041e-06 0)
(-1.10737e-05 1.33357e-06 0)
(-1.14251e-05 1.31565e-06 0)
(-1.17735e-05 1.28497e-06 0)
(-1.21155e-05 1.24011e-06 0)
(-1.24467e-05 1.17987e-06 0)
(-1.27626e-05 1.10328e-06 0)
(-1.30583e-05 1.01e-06 0)
(-1.33288e-05 9.00173e-07 0)
(-1.35692e-05 7.74497e-07 0)
(-1.37753e-05 6.34404e-07 0)
(-1.39433e-05 4.81924e-07 0)
(-1.40696e-05 3.19506e-07 0)
(-1.41521e-05 1.50213e-07 0)
(-1.41892e-05 -2.2309e-08 0)
(-1.41804e-05 -1.94038e-07 0)
(-1.41262e-05 -3.6087e-07 0)
(-1.40281e-05 -5.18573e-07 0)
(-1.38887e-05 -6.63209e-07 0)
(-1.37116e-05 -7.90829e-07 0)
(-1.35016e-05 -8.98199e-07 0)
(-1.32643e-05 -9.82102e-07 0)
(-1.30063e-05 -1.03973e-06 0)
(-1.27351e-05 -1.06862e-06 0)
(-1.24588e-05 -1.06664e-06 0)
(-1.21864e-05 -1.03186e-06 0)
(-1.19271e-05 -9.62822e-07 0)
(-1.16903e-05 -8.5837e-07 0)
(-1.14856e-05 -7.17768e-07 0)
(-1.13227e-05 -5.40942e-07 0)
(-1.12113e-05 -3.28441e-07 0)
(-1.11614e-05 -8.11085e-08 0)
(-1.11824e-05 1.98989e-07 0)
(-1.12837e-05 5.09192e-07 0)
(-1.1474e-05 8.45867e-07 0)
(-1.17612e-05 1.2043e-06 0)
(-1.21521e-05 1.5785e-06 0)
(-1.26519e-05 1.96089e-06 0)
(-1.32634e-05 2.34182e-06 0)
(-1.3991e-05 2.70962e-06 0)
(-1.4813e-05 3.0499e-06 0)
(-1.58606e-05 3.34696e-06 0)
(-1.64483e-05 3.56593e-06 0)
(-1.86381e-05 3.69098e-06 0)
(-1.79308e-05 3.32729e-06 0)
(-2.11168e-05 1.37398e-06 0)
(1.14164e-08 -1.72735e-08 0)
(-2.37623e-08 3.49402e-07 0)
(-1.43329e-07 4.87743e-07 0)
(-2.39489e-07 5.16803e-07 0)
(-3.63197e-07 5.20078e-07 0)
(-4.73326e-07 5.22717e-07 0)
(-5.92135e-07 5.25472e-07 0)
(-7.09287e-07 5.28898e-07 0)
(-8.28101e-07 5.33004e-07 0)
(-9.48064e-07 5.37913e-07 0)
(-1.06923e-06 5.43847e-07 0)
(-1.19179e-06 5.50855e-07 0)
(-1.31592e-06 5.58755e-07 0)
(-1.44159e-06 5.67752e-07 0)
(-1.56953e-06 5.77749e-07 0)
(-1.69976e-06 5.88585e-07 0)
(-1.83275e-06 6.00838e-07 0)
(-1.96907e-06 6.13751e-07 0)
(-2.1081e-06 6.27822e-07 0)
(-2.25079e-06 6.43214e-07 0)
(-2.39721e-06 6.59256e-07 0)
(-2.54687e-06 6.76454e-07 0)
(-2.7009e-06 6.94647e-07 0)
(-2.85941e-06 7.13389e-07 0)
(-3.02195e-06 7.32834e-07 0)
(-3.18952e-06 7.53158e-07 0)
(-3.36265e-06 7.7418e-07 0)
(-3.54091e-06 7.95777e-07 0)
(-3.72443e-06 8.18384e-07 0)
(-3.91403e-06 8.4197e-07 0)
(-4.10955e-06 8.66145e-07 0)
(-4.31041e-06 8.90925e-07 0)
(-4.5166e-06 9.16147e-07 0)
(-4.72899e-06 9.4245e-07 0)
(-4.94812e-06 9.69438e-07 0)
(-5.17353e-06 9.96768e-07 0)
(-5.40512e-06 1.02442e-06 0)
(-5.64276e-06 1.05242e-06 0)
(-5.88697e-06 1.08112e-06 0)
(-6.13838e-06 1.11071e-06 0)
(-6.39659e-06 1.1409e-06 0)
(-6.66131e-06 1.17129e-06 0)
(-6.93263e-06 1.20231e-06 0)
(-7.21067e-06 1.23355e-06 0)
(-7.49547e-06 1.26555e-06 0)
(-7.78694e-06 1.29808e-06 0)
(-8.08529e-06 1.33087e-06 0)
(-8.3905e-06 1.36361e-06 0)
(-8.70258e-06 1.39567e-06 0)
(-9.02177e-06 1.42627e-06 0)
(-9.34824e-06 1.45454e-06 0)
(-9.68198e-06 1.47925e-06 0)
(-1.00229e-05 1.499e-06 0)
(-1.03704e-05 1.51223e-06 0)
(-1.07233e-05 1.51698e-06 0)
(-1.10799e-05 1.51115e-06 0)
(-1.14377e-05 1.49281e-06 0)
(-1.17935e-05 1.45999e-06 0)
(-1.21434e-05 1.41098e-06 0)
(-1.24833e-05 1.34434e-06 0)
(-1.28081e-05 1.25893e-06 0)
(-1.31128e-05 1.15422e-06 0)
(-1.3392e-05 1.03041e-06 0)
(-1.36406e-05 8.8841e-07 0)
(-1.38541e-05 7.29863e-07 0)
(-1.40281e-05 5.56959e-07 0)
(-1.41588e-05 3.72613e-07 0)
(-1.42438e-05 1.80466e-07 0)
(-1.42815e-05 -1.54426e-08 0)
(-1.42711e-05 -2.10636e-07 0)
(-1.4213e-05 -4.00404e-07 0)
(-1.41089e-05 -5.79862e-07 0)
(-1.39614e-05 -7.44805e-07 0)
(-1.37744e-05 -8.90562e-07 0)
(-1.35526e-05 -1.01347e-06 0)
(-1.33019e-05 -1.10978e-06 0)
(-1.30292e-05 -1.17622e-06 0)
(-1.2742e-05 -1.21003e-06 0)
(-1.24487e-05 -1.20846e-06 0)
(-1.21583e-05 -1.1695e-06 0)
(-1.18802e-05 -1.09157e-06 0)
(-1.16242e-05 -9.73373e-07 0)
(-1.14002e-05 -8.14248e-07 0)
(-1.12183e-05 -6.14022e-07 0)
(-1.10881e-05 -3.73012e-07 0)
(-1.10201e-05 -9.25306e-08 0)
(-1.10244e-05 2.25792e-07 0)
(-1.11105e-05 5.78582e-07 0)
(-1.12876e-05 9.62257e-07 0)
(-1.15645e-05 1.37168e-06 0)
(-1.19486e-05 1.80024e-06 0)
(-1.24462e-05 2.23946e-06 0)
(-1.30612e-05 2.67858e-06 0)
(-1.37993e-05 3.10453e-06 0)
(-1.46398e-05 3.50106e-06 0)
(-1.57183e-05 3.84988e-06 0)
(-1.63425e-05 4.11572e-06 0)
(-1.85974e-05 4.26397e-06 0)
(-1.79585e-05 3.87248e-06 0)
(-2.12458e-05 1.60736e-06 0)
(1.24486e-08 -1.46946e-08 0)
(-2.14929e-08 3.88843e-07 0)
(-1.42093e-07 5.40509e-07 0)
(-2.38281e-07 5.72994e-07 0)