/*--------------------------------*- C++ -*----------------------------------*\
| =========                 |                                                 |
| \\      /  F ield         | OpenFOAM: The Open Source CFD Toolbox           |
|  \\    /   O peration     | Version:  2.4.0                                 |
|   \\  /    A nd           | Web:      www.OpenFOAM.org                      |
|    \\/     M anipulation  |                                                 |
\*---------------------------------------------------------------------------*/
FoamFile
{
    version     2.0;
    format      ascii;
    class       surfaceScalarField;
    location    "0.053";
    object      phiAlpha;
}
// * * * * * * * * * * * * * * * * * * * * * * * * * * * * * * * * * * * * * //

dimensions      [0 3 -1 0 0 0 0];

internalField   nonuniform List<scalar> 
114720
(
-4.84606e-10
3.61868e-10
8.94175e-10
-7.71438e-10
1.20533e-09
-1.47574e-09
-1.29738e-10
4.00151e-10
2.41728e-09
-2.74065e-09
-1.59846e-10
4.83213e-10
3.86385e-09
-4.24966e-09
-1.92868e-10
5.7868e-10
5.52832e-09
-5.93757e-09
-2.08278e-10
6.17534e-10
7.13222e-09
-7.43945e-09
-1.57253e-10
4.64482e-10
7.93924e-09
-7.88227e-09
4.07194e-11
-9.7681e-11
6.76004e-09
-6.06533e-09
3.84239e-10
-1.07895e-09
2.74648e-09
-1.35426e-09
7.45857e-10
-2.13807e-09
-3.9497e-09
5.86773e-09
9.99623e-10
-2.91766e-09
-1.24267e-08
1.46056e-08
1.1059e-09
-3.28478e-09
-2.15733e-08
2.37598e-08
1.07722e-09
-3.26372e-09
-3.04157e-08
3.24064e-08
9.44915e-10
-2.93561e-09
-3.81816e-08
3.98195e-08
7.36993e-10
-2.37494e-09
-4.4291e-08
4.54668e-08
4.81249e-10
-1.65703e-09
-4.83787e-08
4.90419e-08
2.1036e-10
-8.73524e-10
-5.0333e-08
5.04948e-08
-4.26984e-11
-1.19099e-10
-5.02844e-08
5.00046e-08
-2.51934e-10
5.31711e-10
-4.85258e-08
4.78875e-08
-4.0643e-10
1.04472e-09
-4.5419e-08
4.4513e-08
-5.05569e-10
1.41153e-09
-4.13453e-08
4.02635e-08
-5.55127e-10
1.63693e-09
-3.66774e-08
3.55041e-08
-5.65143e-10
1.73851e-09
-3.17423e-08
3.0545e-08
-5.48371e-10
1.74568e-09
-2.67893e-08
2.56176e-08
-5.15721e-10
1.68752e-09
-2.19932e-08
2.08756e-08
-4.77397e-10
1.59506e-09
-1.74568e-08
1.64118e-08
-4.37606e-10
1.48264e-09
-1.32363e-08
1.2271e-08
-4.00349e-10
1.36569e-09
-9.35317e-09
8.47006e-09
-3.65891e-10
1.249e-09
-5.81104e-09
5.00957e-09
-3.33561e-10
1.13503e-09
-2.60024e-09
1.87674e-09
-3.03123e-10
1.02663e-09
4.48446e-10
2.83883e-09
-2.33209e-09
-9.55186e-10
2.30126e-09
-1.70231e-09
-2.7686e-09
2.16966e-09
4.30536e-09
-1.99844e-09
-4.86354e-09
2.55662e-09
6.7482e-09
-2.35805e-09
-7.41777e-09
3.02762e-09
9.56048e-09
-2.41362e-09
-1.02679e-08
3.12108e-09
1.22697e-08
-1.62314e-09
-1.28108e-08
2.16427e-09
1.37799e-08
6.88634e-10
-1.37884e-08
-6.80185e-10
1.2578e-08
4.27786e-09
-1.17369e-08
-5.11893e-09
7.78976e-09
7.89685e-09
-6.0725e-09
-9.6141e-09
-2.69987e-10
1.04711e-08
2.63755e-09
-1.28387e-08
-1.0502e-08
1.16807e-08
1.32165e-08
-1.43952e-08
-2.16801e-08
1.16315e-08
2.4452e-08
-1.44034e-08
-3.27081e-08
1.05611e-08
3.52962e-08
-1.31493e-08
-4.26819e-08
8.69991e-09
4.48935e-08
-1.09115e-08
-5.08989e-08
6.29762e-09
5.25964e-08
-7.99508e-09
-5.6899e-08
3.65529e-09
5.80103e-08
-4.76668e-09
-6.04954e-08
1.07761e-09
6.10161e-08
-1.59832e-09
-6.17545e-08
-1.21033e-09
6.17302e-08
1.23466e-09
-6.09051e-08
-3.11365e-09
6.04047e-08
3.61409e-09
-5.82424e-08
-4.59439e-09
5.73449e-08
5.49189e-09
-5.41044e-08
-5.6351e-09
5.28994e-08
6.84013e-09
-4.88635e-08
-6.25597e-09
4.7445e-08
7.6744e-09
-4.28948e-08
-6.52241e-09
4.13507e-08
8.0665e-09
-3.65369e-08
-6.5132e-09
3.49431e-08
8.10702e-09
-3.00757e-08
-6.30611e-09
2.84946e-08
7.88721e-09
-2.37489e-08
-5.95839e-09
2.22315e-08
7.47583e-09
-1.7739e-08
-5.52712e-09
1.63215e-08
6.94462e-09
-1.21755e-08
-5.04897e-09
1.08806e-08
6.34383e-09
-7.12507e-09
-4.56708e-09
5.9589e-09
5.73326e-09
-2.59276e-09
-4.09529e-09
1.55281e-09
5.13524e-09
4.54884e-10
4.89839e-09
-4.38098e-09
-9.72294e-10
2.37966e-09
-3.61289e-09
-2.86552e-09
4.09875e-09
4.47082e-09
-4.29297e-09
-5.05732e-09
4.87947e-09
7.05154e-09
-5.13145e-09
-7.7658e-09
5.8457e-09
1.00778e-08
-5.38374e-09
-1.0853e-08
6.15898e-09
1.31057e-08
-3.98352e-09
-1.37443e-08
4.62215e-09
1.50551e-08
4.08373e-10
-1.51876e-08
-2.75837e-10
1.43809e-08
7.36495e-09
-1.36773e-08
-8.06852e-09
1.01561e-08
1.44777e-08
-8.57822e-09
-1.60556e-08
2.65717e-09
1.9676e-08
-4.18485e-10
-2.19146e-08
-7.06761e-09
2.22887e-08
9.6674e-09
-2.48885e-08
-1.78164e-08
2.25138e-08
2.04977e-08
-2.51951e-08
-2.85201e-08
2.07636e-08
3.10452e-08
-2.32886e-08
-3.82751e-08
1.7447e-08
4.04469e-08
-1.96187e-08
-4.6362e-08
1.30341e-08
4.8039e-08
-1.47112e-08
-5.23043e-08
8.0909e-09
5.34112e-08
-9.19774e-09
-5.59043e-08
3.1912e-09
5.64344e-08
-3.72129e-09
-5.72228e-08
-1.23894e-09
5.72215e-08
1.24025e-09
-5.64874e-08
-5.01221e-09
5.60233e-08
5.47632e-09
-5.39914e-08
-8.0498e-09
5.31428e-08
8.89837e-09
-5.00719e-08
-1.02921e-08
4.89294e-08
1.14345e-08
-4.51074e-08
-1.17412e-08
4.37666e-08
1.3082e-08
-3.94764e-08
-1.24905e-08
3.80246e-08
1.39422e-08
-3.35122e-08
-1.26668e-08
3.20228e-08
1.41562e-08
-2.74878e-08
-1.24031e-08
2.60188e-08
1.38721e-08
-2.16206e-08
-1.18026e-08
2.02175e-08
1.32057e-08
-1.60714e-08
-1.09802e-08
1.47654e-08
1.22862e-08
-1.09516e-08
-1.00245e-08
9.76266e-09
1.12135e-08
-6.32112e-09
-9.04164e-09
5.25499e-09
1.01078e-08
-2.18616e-09
-8.07807e-09
1.24093e-09
9.0233e-09
4.53323e-10
6.9783e-09
-6.45677e-09
-9.74852e-10
2.37973e-09
-5.55767e-09
-2.86572e-09
6.04366e-09
4.47111e-09
-6.64237e-09
-5.05869e-09
7.22995e-09
7.06018e-09
-7.99718e-09
-7.77844e-09
8.71544e-09
1.01105e-08
-8.50389e-09
-1.0896e-08
9.28937e-09
1.31974e-08
-6.57661e-09
-1.38586e-08
7.23782e-09
1.52555e-08
-1.74445e-10
-1.54194e-08
3.38277e-10
1.47036e-08
1.01329e-08
-1.40258e-08
-1.08107e-08
1.05643e-08
2.07605e-08
-8.99925e-09
-2.23255e-08
3.09824e-09
2.86191e-08
-8.60408e-10
-3.0857e-08
-6.63792e-09
3.26916e-08
9.24615e-09
-3.52998e-08
-1.74352e-08
3.3258e-08
2.01346e-08
-3.59574e-08
-2.82269e-08
3.08974e-08
3.07797e-08
-3.34502e-08
-3.81069e-08
2.6178e-08
4.03138e-08
-2.8385e-08
-4.6342e-08
1.97894e-08
4.80564e-08
-2.15039e-08
-5.24328e-08
1.25591e-08
5.35734e-08
-1.36997e-08
-5.6158e-08
5.34064e-09
5.67139e-08
-5.89659e-09
-5.75711e-08
-1.22466e-09
5.75895e-08
1.20621e-09
-5.69073e-08
-6.85879e-09
5.64565e-08
7.30951e-09
-5.445e-08
-1.1449e-08
5.36036e-08
1.22954e-08
-5.05202e-08
-1.48802e-08
4.93679e-08
1.60325e-08
-4.55024e-08
-1.71286e-08
4.41442e-08
1.84868e-08
-3.97954e-08
-1.83201e-08
3.83234e-08
1.97921e-08
-3.37484e-08
-1.86421e-08
3.22381e-08
2.01523e-08
-2.76372e-08
-1.82936e-08
2.61457e-08
1.97851e-08
-2.16746e-08
-1.74293e-08
2.02461e-08
1.88578e-08
-1.60193e-08
-1.62183e-08
1.46867e-08
1.75509e-08
-1.07957e-08
-1.4789e-08
9.58448e-09
1.60002e-08
-6.09056e-09
-1.33018e-08
5.01362e-09
1.43787e-08
-1.9344e-09
-1.18382e-08
9.93188e-10
1.27794e-08
4.50642e-10
9.0771e-09
-8.55032e-09
-9.77418e-10
2.3726e-09
-7.49928e-09
-2.8569e-09
7.98359e-09
4.45536e-09
-8.99066e-09
-5.04148e-09
9.57678e-09
7.04132e-09
-1.08713e-08
-7.76024e-09
1.15902e-08
1.01011e-08
-1.16552e-08
-1.08931e-08
1.24471e-08
1.32332e-08
-9.25046e-09
-1.39147e-08
9.93195e-09
1.53932e-08
-8.72154e-10
-1.55868e-08
1.06577e-09
1.49535e-08
1.28143e-08
-1.42966e-08
-1.34713e-08
1.08729e-08
2.70152e-08
-9.3115e-09
-2.85766e-08
3.39774e-09
3.75857e-08
-1.14905e-09
-3.98344e-08
-6.39718e-09
4.31527e-08
9.0254e-09
-4.57809e-08
-1.72891e-08
4.4097e-08
2.00179e-08
-4.68258e-08
-2.82185e-08
4.11669e-08
3.08126e-08
-4.3761e-08
-3.82833e-08
3.50798e-08
4.05422e-08
-3.73387e-08
-4.67386e-08
2.67282e-08
4.85104e-08
-2.85e-08
-5.306e-08
1.7198e-08
5.4255e-08
-1.8393e-08
-5.69928e-08
7.62856e-09
5.75944e-08
-8.2301e-09
-5.8581e-08
-1.09406e-09
5.864e-08
1.03499e-09
-5.80774e-08
-8.61176e-09
5.76631e-08
9.02611e-09
-5.57477e-08
-1.48068e-08
5.49221e-08
1.56323e-08
-5.18699e-08
-1.94912e-08
5.07172e-08
2.06439e-08
-4.6822e-08
-2.25873e-08
4.5446e-08
2.39633e-08
-4.1023e-08
-2.42512e-08
3.95209e-08
2.57532e-08
-3.48377e-08
-2.47415e-08
3.32865e-08
2.62927e-08
-2.85426e-08
-2.43352e-08
2.69977e-08
2.58801e-08
-2.23417e-08
-2.32372e-08
2.08455e-08
2.47334e-08
-1.63926e-08
-2.16559e-08
1.4981e-08
2.30674e-08
-1.08461e-08
-1.97358e-08
9.55745e-09
2.10245e-08
-5.85306e-09
-1.76816e-08
4.71966e-09
1.8815e-08
-1.52016e-09
-1.56297e-08
5.58074e-10
1.65917e-08
4.47168e-10
1.12011e-08
-1.06673e-08
-9.80935e-10
2.3636e-09
-9.43338e-09
-2.84567e-09
9.91544e-09
4.43517e-09
-1.13325e-08
-5.01937e-09
1.19167e-08
7.01683e-09
-1.3748e-08
-7.73644e-09
1.44677e-08
1.00877e-08
-1.48344e-08
-1.08875e-08
1.56342e-08
1.32755e-08
-1.20131e-08
-1.39825e-08
1.272e-08
1.55646e-08
-1.70098e-09
-1.57962e-08
1.93261e-09
1.52679e-08
1.54045e-08
-1.46374e-08
-1.6035e-08
1.12614e-08
3.32548e-08
-9.70443e-09
-3.48118e-08
3.77349e-09
4.66008e-08
-1.5108e-09
-4.88635e-08
-6.09646e-09
5.37021e-08
8.74979e-09
-5.63555e-08
-1.71073e-08
5.5066e-08
1.98732e-08
-5.78319e-08
-2.821e-08
5.16188e-08
3.08565e-08
-5.42653e-08
-3.85099e-08
4.42102e-08
4.08347e-08
-4.6535e-08
-4.72473e-08
3.39206e-08
4.90926e-08
-3.5766e-08
-5.3867e-08
2.20792e-08
5.51328e-08
-2.3345e-08
-5.80689e-08
1.01183e-08
5.87286e-08
-1.07781e-08
-5.98801e-08
-7.8261e-10
5.99917e-08
6.70952e-10
-5.95918e-08
-1.01969e-08
5.92291e-08
1.05596e-08
-5.7448e-08
-1.80648e-08
5.66543e-08
1.88585e-08
-5.36531e-08
-2.41e-08
5.25021e-08
2.52511e-08
-4.85729e-08
-2.81225e-08
4.71751e-08
2.95204e-08
-4.26607e-08
-3.03123e-08
4.1122e-08
3.1851e-08
-3.63089e-08
-3.10173e-08
3.47092e-08
3.26169e-08
-2.97956e-08
-3.06089e-08
2.81869e-08
3.22176e-08
-2.33036e-08
-2.93478e-08
2.17206e-08
3.09308e-08
-1.69587e-08
-2.74641e-08
1.54314e-08
2.89914e-08
-1.09057e-08
-2.50709e-08
9.48157e-09
2.6495e-08
-5.37505e-09
-2.23626e-08
4.12469e-09
2.3613e-08
-6.62619e-10
-1.95337e-08
-3.45559e-10
2.05419e-08
4.42667e-10
1.33575e-08
-1.28149e-08
-9.85236e-10
2.35288e-09
-1.13576e-08
-2.83215e-09
1.18369e-08
4.41079e-09
-1.36659e-08
-4.99267e-09
1.42478e-08
6.98723e-09
-1.66276e-08
-7.70762e-09
1.7348e-08
1.0071e-08
-1.8047e-08
-1.088e-08
1.8856e-08
1.33254e-08
-1.48855e-08
-1.40633e-08
1.56234e-08
1.57726e-08
-2.69501e-09
-1.60511e-08
2.97359e-09
1.56527e-08
1.78796e-08
-1.50548e-08
-1.84775e-08
1.17378e-08
3.94751e-08
-1.01862e-08
-4.10267e-08
4.2342e-09
5.56763e-08
-1.95434e-09
-5.79562e-08
-5.72673e-09
6.43594e-08
8.41038e-09
-6.70431e-08
-1.688e-08
6.61936e-08
1.96903e-08
-6.90038e-08
-2.81908e-08
6.22966e-08
3.09008e-08
-6.50066e-08
-3.87759e-08
5.3626e-08
4.11814e-08
-5.60316e-08
-4.78585e-08
4.14329e-08
4.97947e-08
-4.33691e-08
-5.48478e-08
2.72691e-08
5.62017e-08
-2.8623e-08
-5.93822e-08
1.28591e-08
6.01121e-08
-1.3589e-08
-6.14579e-08
-2.44462e-10
6.16325e-08
6.98595e-11
-6.14402e-08
-1.15484e-08
6.11481e-08
1.18404e-08
-5.9557e-08
-2.11758e-08
5.88092e-08
2.19236e-08
-5.58816e-08
-2.87002e-08
5.47333e-08
2.98485e-08
-5.07599e-08
-3.37537e-08
4.9334e-08
3.51795e-08
-4.47069e-08
-3.65298e-08
4.31248e-08
3.81119e-08
-3.8165e-08
-3.74938e-08
3.6513e-08
3.91458e-08
-3.14231e-08
-3.71425e-08
2.97495e-08
3.88161e-08
-2.46334e-08
-3.58197e-08
2.29584e-08
3.74948e-08
-1.78422e-08
-3.37876e-08
1.61682e-08
3.54616e-08
-1.10745e-08
-3.10757e-08
9.42238e-09
3.27278e-08
-4.5188e-09
-2.76985e-08
2.99462e-09
2.92227e-08
1.17892e-09
-2.37279e-08
-2.332e-09
2.4881e-08
4.37183e-10
1.55549e-08
-1.50012e-08
-9.90899e-10
2.33961e-09
-1.32696e-08
-2.81533e-09
1.37453e-08
4.38058e-09
-1.59892e-08
-4.95954e-09
1.65681e-08
6.94987e-09
-1.951e-08
-7.67083e-09
2.0231e-08
1.00469e-08
-2.12979e-08
-1.08661e-08
2.21171e-08
1.33768e-08
-1.78893e-08
-1.41507e-08
1.86633e-08
1.60109e-08
-3.89074e-09
-1.63458e-08
4.22559e-09
1.61034e-08
2.02141e-08
-1.55449e-08
-2.07726e-08
1.22999e-08
4.5671e-08
-1.07555e-08
-4.72154e-08
4.78049e-09
6.48239e-08
-2.48123e-09
-6.71232e-08
-5.28414e-09
7.51436e-08
8.00202e-09
-7.78615e-08
-1.65977e-08
7.75076e-08
1.94581e-08
-8.0368e-08
-2.81459e-08
7.32427e-08
3.0929e-08
-7.60257e-08
-3.90618e-08
6.33851e-08
4.15617e-08
-6.5885e-08
-4.85503e-08
4.93337e-08
5.05943e-08
-5.13777e-08
-5.59823e-08
3.28387e-08
5.74432e-08
-3.42997e-08
-6.09169e-08
1.58968e-08
6.17277e-08
-1.67076e-08
-6.32867e-08
5.57301e-10
6.35308e-08
-8.01438e-10
-6.35953e-08
-1.25813e-08
6.33998e-08
1.27768e-08
-6.20805e-08
-2.40753e-08
6.13989e-08
2.47568e-08
-5.85758e-08
-3.32878e-08
5.74311e-08
3.44325e-08
-5.33973e-08
-3.95082e-08
5.1935e-08
4.09706e-08
-4.71689e-08
-4.29312e-08
4.55362e-08
4.45638e-08
-4.04176e-08
-4.41802e-08
3.87134e-08
4.58845e-08
-3.34637e-08
-4.39219e-08
3.17368e-08
4.56487e-08
-2.64447e-08
-4.26336e-08
2.4703e-08
4.43754e-08
-1.93167e-08
-4.06943e-08
1.75174e-08
4.24936e-08
-1.1824e-08
-3.81374e-08
9.86918e-09
4.00922e-08
-3.54033e-09
-3.46251e-08
1.36462e-09
3.68008e-08
4.87638e-09
-2.89094e-08
-6.3229e-09
3.03559e-08
4.30519e-10
1.78035e-08
-1.72359e-08
-9.98088e-10
2.32468e-09
-1.51664e-08
-2.7962e-09
1.5638e-08
4.34609e-09
-1.83002e-08
-4.92168e-09
1.88758e-08
6.90713e-09
-2.23948e-08
-7.62867e-09
2.31163e-08
1.00185e-08
-2.45911e-08
-1.08488e-08
2.54214e-08
1.34329e-08
-2.10455e-08
-1.42482e-08
2.18608e-08
1.62847e-08
-5.32641e-09
-1.66858e-08
5.72754e-09
1.66274e-08
2.23809e-08
-1.61152e-08
-2.28931e-08
1.29547e-08
5.18367e-08
-1.14187e-08
-5.33728e-08
5.41623e-09
7.40542e-08
-3.09425e-09
-7.63762e-08
-4.76862e-09
8.60731e-08
7.52545e-09
-8.88299e-08
-1.62628e-08
8.90323e-08
1.91796e-08
-9.19491e-08
-2.80792e-08
8.44975e-08
3.0946e-08
-8.73643e-08
-3.93754e-08
7.35437e-08
4.1984e-08
-7.61524e-08
-4.93339e-08
5.76934e-08
5.1504e-08
-5.98635e-08
-5.72902e-08
3.88687e-08
5.888e-08
-4.04586e-08
-6.27047e-08
1.92739e-08
6.36068e-08
-2.0176e-08
-6.53798e-08
1.63778e-09
6.56911e-08
-1.94911e-09
-6.60617e-08
-1.31758e-08
6.6001e-08
1.32364e-08
-6.50799e-08
-2.66686e-08
6.44947e-08
2.72538e-08
-6.18143e-08
-3.78638e-08
6.06705e-08
3.90076e-08
-5.65434e-08
-4.54288e-08
5.50298e-08
4.69424e-08
-5.00817e-08
-4.95499e-08
4.83874e-08
5.12442e-08
-4.30904e-08
-5.10759e-08
4.13335e-08
5.28329e-08
-3.59471e-08
-5.08876e-08
3.41852e-08
5.26495e-08
-2.88245e-08
-4.96338e-08
2.70748e-08
5.13835e-08
-2.17119e-08
-4.79282e-08
1.99323e-08
4.97077e-08
-1.42719e-08
-4.6201e-08
1.22811e-08
4.81919e-08
-5.48848e-09
-4.42711e-08
3.10088e-09
4.66587e-08
2.26535e-09
-3.31103e-08
-2.64281e-09
3.34881e-08
4.2248e-10
2.01156e-08
-1.95309e-08
-1.00714e-09
2.30812e-09
-1.70454e-08
-2.77473e-09
1.7512e-08
4.30723e-09
-2.0597e-08
-4.87902e-09
2.11687e-08
6.85885e-09
-2.52817e-08
-7.58089e-09
2.60037e-08
9.98509e-09
-2.79298e-08
-1.08272e-08
2.87719e-08
1.34919e-08
-2.4375e-08
-1.43537e-08
2.52369e-08
1.65931e-08
-7.04302e-09
-1.70713e-08
7.52123e-09
1.72268e-08
2.43517e-08
-1.67682e-08
-2.48103e-08
1.37057e-08
5.79668e-08
-1.21793e-08
-5.94932e-08
6.1444e-09
8.33809e-08
-3.79574e-09
-8.57295e-08
-4.17794e-09
9.71631e-08
6.97782e-09
-9.9963e-08
-1.58709e-08
1.0079e-07
1.88491e-08
-1.03768e-07
-2.79838e-08
9.61018e-08
3.09442e-08
-9.90623e-08
-3.97088e-08
8.41589e-08
4.24409e-08
-8.6891e-08
-5.02018e-08
6.65854e-08
5.2517e-08
-6.89006e-08
-5.87703e-08
4.54516e-08
6.05153e-08
-4.71966e-08
-6.47648e-08
2.30325e-08
6.57696e-08
-2.40373e-08
-6.77264e-08
2.96126e-09
6.80814e-08
-3.31621e-09
-6.87941e-08
-1.31481e-08
6.89304e-08
1.30117e-08
-6.86189e-08
-2.8813e-08
6.81765e-08
2.92554e-08
-6.56838e-08
-4.24469e-08
6.45314e-08
4.35994e-08
-6.02462e-08
-5.15876e-08
5.86563e-08
5.31775e-08
-5.34571e-08
-5.64397e-08
5.16831e-08
5.82136e-08
-4.61714e-08
-5.81884e-08
4.4356e-08
6.00038e-08
-3.88365e-08
-5.79737e-08
3.70486e-08
5.97616e-08
-3.16897e-08
-5.6579e-08
2.99787e-08
5.829e-08
-2.49345e-08
-5.47734e-08
2.33569e-08
5.63509e-08
-1.88434e-08
-5.33456e-08
1.74941e-08
5.46949e-08
-1.41128e-08
-5.15233e-08
1.34397e-08
5.21964e-08
-1.35841e-08
-3.31133e-08
1.43253e-08
3.23721e-08
4.12815e-10
2.25054e-08
-2.18998e-08
-1.01848e-09
2.28914e-09
-1.89033e-08
-2.74987e-09
1.9364e-08
4.26237e-09
-2.28776e-08
-4.82971e-09
2.34449e-08
6.80241e-09
-2.81701e-08
-7.52457e-09
2.88922e-08
9.94243e-09
-3.13162e-08
-1.07965e-08
3.21702e-08
1.35467e-08
-2.7898e-08
-1.44599e-08
2.88112e-08
1.69291e-08
-9.08484e-09
-1.74959e-08
9.65159e-09
1.78975e-08
2.60963e-08
-1.75004e-08
-2.64933e-08
1.45514e-08
6.40552e-08
-1.30367e-08
-6.55699e-08
6.96589e-09
9.28191e-08
-4.58725e-09
-9.51977e-08
-3.50839e-09
1.08431e-07
6.35449e-09
-1.11277e-07
-1.54113e-08
1.12799e-07
1.84546e-08
-1.15842e-07
-2.78411e-08
1.08094e-07
3.0904e-08
-1.11157e-07
-4.00388e-08
9.52881e-08
4.29079e-08
-9.81572e-08
-5.11258e-08
7.60845e-08
5.36038e-08
-7.85625e-08
-6.03963e-08
5.27009e-08
6.23284e-08
-5.4633e-08
-6.71071e-08
2.72233e-08
6.82311e-08
-2.83473e-08
-7.02974e-08
4.37166e-09
7.06224e-08
-4.69667e-09
-7.16576e-08
-1.21858e-08
7.21041e-08
1.17394e-08
-7.27823e-08
-3.02887e-08
7.25537e-08
3.05172e-08
-7.02884e-08
-4.7096e-08
6.91016e-08
4.82828e-08
-6.45378e-08
-5.81075e-08
6.28299e-08
5.98155e-08
-5.72718e-08
-6.36849e-08
5.53916e-08
6.55651e-08
-4.96092e-08
-6.55504e-08
4.77237e-08
6.74359e-08
-4.20405e-08
-6.51756e-08
4.02139e-08
6.70022e-08
-3.47898e-08
-6.33918e-08
3.30823e-08
6.50994e-08
-2.81904e-08
-6.08254e-08
2.67349e-08
6.2281e-08
-2.29673e-08
-5.78786e-08
2.2031e-08
5.8815e-08
-2.05139e-08
-5.25312e-08
2.05438e-08
5.25013e-08
-2.19783e-08
-2.99587e-08
2.25897e-08
2.93472e-08
4.01204e-10
2.49909e-08
-2.43595e-08
-1.03262e-09
2.26862e-09
-2.07364e-08
-2.72257e-09
2.11903e-08
4.21299e-09
-2.51398e-08
-4.77541e-09
2.57022e-08
6.74011e-09
-3.10588e-08
-7.4622e-09
3.17809e-08
9.89338e-09
-3.47505e-08
-1.07594e-08
3.56166e-08
1.35997e-08
-3.16339e-08
-1.45691e-08
3.26033e-08
1.72974e-08
-1.14996e-08
-1.79654e-08
1.21676e-08
1.86482e-08
2.75825e-08
-1.83209e-08
-2.79097e-08
1.5501e-08
7.00946e-08
-1.39997e-08
-7.15958e-08
7.88651e-09
1.02385e-07
-5.47314e-09
-1.04798e-07
-2.75914e-09
1.1989e-07
5.65548e-09
-1.22786e-07
-1.48849e-08
1.25073e-07
1.7996e-08
-1.28185e-07
-2.76513e-08
1.20511e-07
3.08259e-08
-1.23686e-07
-4.03699e-08
1.06988e-07
4.33905e-08
-1.10008e-07
-5.21116e-08
8.62629e-08
5.47705e-08
-8.89219e-08
-6.21768e-08
6.07574e-08
6.43371e-08
-6.29176e-08
-6.98084e-08
3.19342e-08
7.10867e-08
-3.32124e-08
-7.31587e-08
5.43274e-09
7.32661e-08
-5.5401e-09
-7.4417e-08
-9.68581e-09
7.54114e-08
8.69135e-09
-7.78075e-08
-3.07668e-08
7.78933e-08
3.0681e-08
-7.58429e-08
-5.19587e-08
7.45612e-08
5.32403e-08
-6.94963e-08
-6.51932e-08
6.76015e-08
6.70881e-08
-6.15209e-08
-7.14089e-08
5.94967e-08
7.34332e-08
-5.33698e-08
-7.32136e-08
5.14017e-08
7.51817e-08
-4.55244e-08
-7.25682e-08
4.36372e-08
7.44555e-08
-3.79817e-08
-7.0336e-08
3.61802e-08
7.21375e-08
-3.09084e-08
-6.68032e-08
2.92873e-08
6.84243e-08
-2.48236e-08
-6.193e-08
2.35645e-08
6.31891e-08
-2.05383e-08
-5.32346e-08
1.98711e-08
5.39017e-08
-1.86922e-08
-2.8977e-08
1.80301e-08
2.96388e-08
3.87232e-10
2.75936e-08
-2.69306e-08
-1.05017e-09
2.24636e-09
-2.25409e-08
-2.69245e-09
2.2987e-08
4.15847e-09
-2.73816e-08
-4.71542e-09
2.79385e-08
6.67094e-09
-3.39469e-08
-7.39263e-09
3.46685e-08
9.83598e-09
-3.82324e-08
-1.07136e-08
3.911e-08
1.36463e-08
-3.56012e-08
-1.46762e-08
3.66311e-08
1.76945e-08
-1.434e-08
-1.84777e-08
1.51232e-08
1.94798e-08
2.87766e-08
-1.92311e-08
-2.90253e-08
1.65577e-08
7.60774e-08
-1.50719e-08
-7.75631e-08
8.90946e-09
1.12097e-07
-6.4562e-09
-1.1455e-07
-1.92801e-09
1.31554e-07
4.87845e-09
-1.34505e-07
-1.4284e-08
1.37622e-07
1.74641e-08
-1.40802e-07
-2.73998e-08
1.33388e-07
3.06945e-08
-1.36682e-07
-4.0686e-08
1.19317e-07
4.38732e-08
-1.22504e-07
-5.31385e-08
9.71899e-08
5.5994e-08
-1.00045e-07
-6.40773e-08
6.98017e-08
6.65187e-08
-7.22432e-08
-7.29356e-08
3.7365e-08
7.44514e-08
-3.88809e-08
-7.65297e-08
5.07475e-09
7.59815e-08
-4.52659e-09
-7.64234e-08
-4.28992e-09
7.85522e-08
2.16109e-09
-8.41407e-08
-2.98213e-08
8.46439e-08
2.9318e-08
-8.26212e-08
-5.73628e-08
8.11194e-08
5.88645e-08
-7.51754e-08
-7.31726e-08
7.29876e-08
7.53605e-08
-6.61577e-08
-7.9776e-08
6.3944e-08
8.19897e-08
-5.73969e-08
-8.12083e-08
5.53503e-08
8.32549e-08
-4.9351e-08
-8.02044e-08
4.74338e-08
8.21217e-08
-4.1503e-08
-7.7799e-08
3.95193e-08
7.97828e-08
-3.33827e-08
-7.37725e-08
3.13844e-08
7.57708e-08
-2.54289e-08
-6.789e-08
2.35396e-08
6.97793e-08
-1.79926e-08
-5.75337e-08
1.62408e-08
5.92856e-08
-1.00862e-08
-3.5166e-08
7.16279e-09
3.80897e-08
3.70411e-10
3.03395e-08
-2.96379e-08
-1.07201e-09
2.22243e-09
-2.43121e-08
-2.65942e-09
2.47491e-08
4.09874e-09
-2.96005e-08
-4.64966e-09
3.01515e-08
6.59474e-09
-3.68327e-08
-7.31564e-09
3.75536e-08
9.76948e-09
-4.17591e-08
-1.06577e-08
4.26474e-08
1.36831e-08
-3.98163e-08
-1.47774e-08
4.09106e-08
1.81184e-08
-1.76638e-08
-1.90323e-08
1.85777e-08
2.03957e-08
2.96426e-08
-2.02348e-08
-2.98035e-08
1.77268e-08
8.19943e-08
-1.62592e-08
-8.34619e-08
1.0039e-08
1.21977e-07
-7.53971e-09
-1.24476e-07
-1.01415e-09
1.43437e-07
4.02047e-09
-1.46443e-07
-1.36032e-08
1.50445e-07
1.6851e-08
-1.53693e-07
-2.70731e-08
1.46756e-07
3.04956e-08
-1.50179e-07
-4.09757e-08
1.32334e-07
4.43451e-08
-1.35704e-07
-5.41913e-08
1.0892e-07
5.72535e-08
-1.11982e-07
-6.60426e-08
8.00744e-08
6.88404e-08
-8.28722e-08
-7.65529e-08
4.39971e-08
7.85096e-08
-4.59538e-08
-8.12913e-08
9.21568e-10
7.91914e-08
1.17835e-09
-7.60812e-08
7.58889e-09
8.10057e-08
-1.25134e-08
-9.28219e-08
-2.7184e-08
9.36891e-08
2.63169e-08
-9.10521e-08
-6.39469e-08
8.91101e-08
6.58888e-08
-8.17486e-08
-8.25318e-08
7.91247e-08
8.51557e-08
-7.12248e-08
-8.90002e-08
6.87305e-08
9.14945e-08
-6.14982e-08
-8.94765e-08
5.93934e-08
9.15814e-08
-5.3737e-08
-8.7812e-08
5.19682e-08
8.95808e-08
-4.59818e-08
-8.60224e-08
4.37987e-08
8.82055e-08
-3.6657e-08
-8.23335e-08
3.42044e-08
8.47861e-08
-2.6546e-08
-7.63497e-08
2.40143e-08
7.88813e-08
-1.62152e-08
-6.62105e-08
1.35829e-08
6.88428e-08
-4.13787e-09
-4.85669e-08
3.89189e-10
5.23156e-08
3.49973e-10
3.32607e-08
-3.25119e-08
-1.0988e-09
2.19692e-09
-2.60448e-08
-2.62337e-09
2.64713e-08
4.03367e-09
-3.17946e-08
-4.57798e-09
3.23389e-08
6.51133e-09
-3.97147e-08
-7.231e-09
4.04343e-08
9.69317e-09
-4.53266e-08
-1.05907e-08
4.62241e-08
1.37063e-08
-4.42941e-08
-1.48682e-08
4.5456e-08
1.85668e-08
-2.15357e-08
-1.96286e-08
2.25976e-08
2.13999e-08
3.01434e-08
-2.13362e-08
-3.0207e-08
1.90145e-08
8.78341e-08
-1.75682e-08
-8.92805e-08
1.12803e-08
1.32053e-07
-8.72726e-09
-1.34606e-07
-1.66499e-11
1.55551e-07
3.08244e-09
-1.58616e-07
-1.28369e-08
1.63534e-07
1.61484e-08
-1.66846e-07
-2.66548e-08
1.60647e-07
3.02121e-08
-1.64205e-07
-4.12266e-08
1.46106e-07
4.47961e-08
-1.49676e-07
-5.52586e-08
1.2148e-07
5.85261e-08
-1.24748e-07
-6.79838e-08
9.19213e-08
7.12423e-08
-9.51799e-08
-8.06408e-08
5.29222e-08
8.3397e-08
-5.56784e-08
-9.02908e-08
-1.13731e-08
8.52511e-08
1.64127e-08
-7.69664e-08
3.5608e-08
8.79531e-08
-4.65947e-08
-1.06641e-07
-2.39767e-08
1.06856e-07
2.37615e-08
-1.01876e-07
-7.26883e-08
9.92627e-08
7.53015e-08
-8.99635e-08
-9.39025e-08
8.67124e-08
9.71536e-08
-7.6988e-08
-9.96818e-08
7.39567e-08
1.02713e-07
-6.44291e-08
-9.86649e-08
6.16667e-08
1.01427e-07
-5.54282e-08
-9.39202e-08
5.424e-08
9.51084e-08
-5.0976e-08
-9.46792e-08
4.94324e-08
9.62227e-08
-4.28929e-08
-9.2922e-08
4.02055e-08
9.56094e-08
-3.12368e-08
-8.7041e-08
2.82383e-08
9.00396e-08
-1.87509e-08
-7.71509e-08
1.53647e-08
8.05371e-08
-3.97155e-09
-6.41416e-08
4.91753e-11
6.8064e-08
3.25058e-10
3.63966e-08
-3.55901e-08
-1.13161e-09
2.17018e-09
-2.7733e-08
-2.58449e-09
2.81473e-08
3.96362e-09
-3.39613e-08
-4.50081e-09
3.44985e-08
6.42129e-09
-4.25911e-08
-7.13935e-09
4.33091e-08
9.60752e-09
-4.89286e-08
-1.05126e-08
4.98337e-08
1.3713e-08
-4.90461e-08
-1.49449e-08
5.02781e-08
1.90391e-08
-2.60281e-08
-2.02686e-08
2.72576e-08
2.24996e-08
3.02409e-08
-2.25427e-08
-3.01978e-08
2.04305e-08
9.35828e-08
-1.90095e-08
-9.50038e-08
1.26403e-08
1.42356e-07
-1.00239e-08
-1.44973e-07
1.06374e-09
1.67907e-07
2.06481e-09
-1.71035e-07
-1.19811e-08
1.76868e-07
1.5349e-08
-1.80236e-07
-2.61285e-08
1.75086e-07
2.98268e-08
-1.78785e-07
-4.14309e-08
1.60711e-07
4.52234e-08
-1.64503e-07
-5.63467e-08
1.34835e-07
5.97962e-08
-1.38285e-07
-6.98338e-08
1.05734e-07
7.35663e-08
-1.09467e-07
-8.49754e-08
6.48035e-08
8.79092e-08
-6.77374e-08
-1.07456e-07
-3.81467e-08
9.76937e-08
4.79087e-08
-1.25308e-07
8.60517e-08
1.39414e-07
-1.00157e-07
-1.33847e-07
-2.97937e-08
1.27969e-07
3.56719e-08
-1.16146e-07
-8.45408e-08
1.12577e-07
8.81102e-08
-1.01032e-07
-1.08438e-07
9.66655e-08
1.12804e-07
-8.50859e-08
-1.13066e-07
8.08903e-08
1.17262e-07
-6.64996e-08
-1.12038e-07
6.32412e-08
1.15297e-07
-5.86171e-08
-9.71951e-08
5.66403e-08
9.91719e-08
-4.92555e-08
-1.01359e-07
4.68312e-08
1.03783e-07
-4.04921e-08
-1.03067e-07
3.84081e-08
1.05151e-07
-3.0982e-08
-9.98245e-08
2.79646e-08
1.02842e-07
-1.81548e-08
-9.10882e-08
1.47466e-08
9.44964e-08
-4.466e-09
-7.92862e-08
1.37211e-09
8.23801e-08
2.94682e-10
3.97957e-08
-3.89182e-08
-1.1722e-09
2.14181e-09
-2.93695e-08
-2.54198e-09
2.97696e-08
3.88754e-09
-3.60984e-08
-4.41694e-09
3.66278e-08
6.32294e-09
-4.54599e-08
-7.03876e-09
4.61757e-08
9.50966e-09
-5.25569e-08
-1.04198e-08
5.3467e-08
1.36949e-08
-5.40797e-08
-1.49978e-08
5.53826e-08
1.95275e-08
-3.12226e-08
-2.09465e-08
3.26416e-08
2.36951e-08
2.98979e-08
-2.38538e-08
-2.97392e-08
2.19777e-08
9.92213e-08
-2.0588e-08
-1.00611e-07
1.41225e-08
1.52929e-07
-1.14313e-08
-1.5562e-07
2.22483e-09
1.80517e-07
9.6927e-10
-1.83711e-07
-1.10287e-08
1.90409e-07
1.44401e-08
-1.9382e-07
-2.54633e-08
1.90094e-07
2.9306e-08
-1.93937e-07
-4.15644e-08
1.76247e-07
4.56096e-08
-1.80293e-07
-5.74608e-08
1.48849e-07
6.10436e-08
-1.52431e-07
-7.16259e-08
1.20151e-07
7.44977e-08
-1.23023e-07
-8.34249e-08
8.02339e-08
9.49124e-08
-9.17214e-08
-1.15373e-07
-7.91954e-08
1.09293e-07
8.5275e-08
-1.70433e-07
1.34575e-07
1.72618e-07
-1.3676e-07
-1.51292e-07
-6.15851e-08
1.43414e-07
6.94633e-08
-1.3134e-07
-9.95503e-08
1.27969e-07
1.02921e-07
-1.10021e-07
-1.26837e-07
1.02656e-07
1.34202e-07
-8.81867e-08
-1.29512e-07
8.7146e-08
1.30552e-07
-8.58739e-08
-1.23747e-07
8.56857e-08
1.23935e-07
-6.85708e-08
-1.12144e-07
6.2582e-08
1.18133e-07
-4.11024e-08
-1.14813e-07
3.76113e-08
1.18304e-07
-2.66859e-08
-1.12643e-07
2.40421e-08
1.15287e-07
-1.90024e-08
-1.08081e-07
1.80912e-08
1.08993e-07
-1.39924e-08
-1.0082e-07
1.12765e-08
1.03536e-07
-5.21745e-09
-9.16173e-08
3.72589e-09
9.31089e-08
2.57308e-10
4.35171e-08
-4.25528e-08
-1.22166e-09
2.11193e-09
-3.09462e-08
-2.49564e-09
3.13299e-08
3.80529e-09
-3.82035e-08
-4.32625e-09
3.87245e-08
6.21613e-09
-4.83189e-08
-6.92906e-09
4.90319e-08
9.39921e-09
-5.62013e-08
-1.03114e-08
5.71135e-08
1.36465e-08
-5.93966e-08
-1.50193e-08
6.07694e-08
2.00278e-08
-3.72115e-08
-2.16608e-08
3.88445e-08
2.49924e-08
2.90801e-08
-2.52744e-08
-2.87982e-08
2.36647e-08
1.04723e-07
-2.23146e-08
-1.06073e-07
1.57338e-08
1.63823e-07
-1.29533e-08
-1.66603e-07
3.46204e-09
1.93395e-07
-1.98369e-10
-1.96658e-07
-9.97736e-09
2.04098e-07
1.34134e-08
-2.07534e-07
-2.46287e-08
2.05682e-07
2.86155e-08
-2.09669e-07
-4.16109e-08
1.92854e-07
4.5951e-08
-1.97194e-07
-5.86541e-08
1.63296e-07
6.2278e-08
-1.6692e-07
-7.09643e-08
1.33437e-07
7.82558e-08
-1.40728e-07
-9.44408e-08
1.71421e-07
1.22708e-07
-1.99688e-07
-1.0557e-07
-4.96724e-08
1.40571e-07
1.46711e-08
-1.78248e-07
1.01688e-07
1.54028e-07
-7.72245e-08
-1.19359e-07
-7.89744e-08
1.14225e-07
8.41079e-08
-9.88886e-08
-1.21107e-07
9.6932e-08
1.23064e-07
-8.90494e-08
-1.45549e-07
8.62506e-08
1.16164e-07
-8.24633e-08
-1.34799e-07
7.4214e-08
4.60835e-08
-3.45886e-08
-8.31972e-08
3.16806e-08
-8.32535e-10
-1.11623e-08
-5.92846e-08
1.12719e-08
-3.56976e-11
-3.40086e-09
-3.21175e-08
3.01672e-09
-2.12385e-11
-6.34923e-10
-3.39672e-09
5.01512e-10
-1.10779e-11
-2.63004e-10
3.17938e-11
1.54091e-10
-1.73131e-12
-4.34293e-11
-4.26082e-11
2.2623e-11
3.90838e-12
6.26056e-12
-1.43549e-11
-1.35544e-11
3.6786e-13
2.11317e-10
4.76348e-08
-4.65637e-08
-1.28242e-09
2.08113e-09
-3.24535e-08
-2.44585e-09
3.28182e-08
3.71766e-09
-4.02742e-08
-4.22964e-09
4.07862e-08
6.10221e-09
-5.11659e-08
-6.81174e-09
5.18755e-08
9.27817e-09
-5.98495e-08
-1.01892e-08
6.07605e-08
1.35646e-08
-6.49902e-08
-1.50044e-08
6.643e-08
2.05402e-08
-4.40974e-08
-2.24147e-08
4.59718e-08
2.64055e-08
2.77609e-08
-2.68155e-08
-2.73508e-08
2.55074e-08
1.10052e-07
-2.42083e-08
-1.11351e-07
1.74864e-08
1.75101e-07
-1.45975e-08
-1.7799e-07
4.76888e-09
2.06561e-07
-1.4302e-09
-2.09899e-07
-8.82958e-09
2.17851e-07
1.22647e-08
-2.21286e-07
-2.35916e-08
2.21841e-07
2.77166e-08
-2.25966e-07
-4.15587e-08
2.10731e-07
4.62578e-08
-2.1543e-07
-5.9991e-08
1.77589e-07
6.3494e-08
-1.81092e-07
-7.28345e-08
1.70665e-07
8.1612e-08
-1.79443e-07
-9.67155e-08
2.03331e-07
7.35934e-08
-1.80209e-07
-1.6002e-07
1.01027e-07
1.73016e-07
-1.14023e-07
-1.07829e-07
-3.47712e-09
7.16862e-08
3.9725e-08
-3.2286e-08
-9.00041e-09
7.15465e-10
-7.71216e-10
-3.42586e-11
2.42352e-11
1.00786e-11
-7.59082e-13
-4.45412e-12
1.28939e-12
3.21377e-12
-8.80867e-14
-6.81949e-13
9.36798e-14
5.7477e-13
-9.62898e-15
-1.18356e-13
6.45413e-14
5.64247e-14
-1.43915e-15
-6.74435e-14
-9.39387e-15
6.88113e-14
6.01805e-15
-4.65718e-14
8.47989e-16
3.82826e-14
7.70179e-15
-1.15555e-14
-3.06957e-16
8.06833e-15
6.93669e-15
-9.48908e-16
-4.13233e-15
9.31727e-17
4.16114e-15
1.08544e-15
-5.35531e-15
-1.24561e-15
4.72054e-15
9.89356e-16
-3.31962e-15
-1.08114e-15
3.13984e-15
1.54642e-10
5.22388e-08
-5.10365e-08
-1.35697e-09
2.04924e-09
-3.38805e-08
-2.392e-09
3.42232e-08
3.62403e-09
-4.2308e-08
-4.12646e-09
4.28104e-08
5.98026e-09
-5.39983e-08
-6.68578e-09
5.47038e-08
9.14543e-09
-6.34874e-08
-1.00515e-08
6.43935e-08
1.34404e-08
-7.0843e-08
-1.49407e-08
7.23433e-08
2.10578e-08
-5.19913e-08
-2.32019e-08
5.41354e-08
2.79417e-08
2.59281e-08
-2.84792e-08
-2.53906e-08
2.75151e-08
1.15152e-07
-2.62842e-08
-1.16383e-07
1.93889e-08
1.86847e-07
-1.63678e-08
-1.89868e-07
6.13465e-09
2.20036e-07
-2.7138e-09
-2.23457e-07
-7.58895e-09
2.3155e-07
1.09881e-08
-2.34949e-07
-2.2298e-08
2.3853e-07
2.65437e-08
-2.42775e-07
-4.1372e-08
2.30173e-07
4.65251e-08
-2.35326e-07
-6.1327e-08
1.91825e-07
6.52268e-08
-1.95725e-07
-7.80196e-08
2.05485e-07
8.83963e-08
-2.15861e-07
-9.34811e-08
2.02527e-07
1.29444e-07
-2.3849e-07
-9.25782e-08
6.00686e-08
5.39386e-08