/*--------------------------------*- C++ -*----------------------------------*\
| =========                 |                                                 |
| \\      /  F ield         | OpenFOAM: The Open Source CFD Toolbox           |
|  \\    /   O peration     | Version:  2.4.0                                 |
|   \\  /    A nd           | Web:      www.OpenFOAM.org                      |
|    \\/     M anipulation  |                                                 |
\*---------------------------------------------------------------------------*/
FoamFile
{
    version     2.0;
    format      ascii;
    class       volVectorField;
    location    "0.039";
    object      U;
}
// * * * * * * * * * * * * * * * * * * * * * * * * * * * * * * * * * * * * * //

dimensions      [0 1 -1 0 0 0 0];

internalField   nonuniform List<vector> 
3600
(
(-0.00062883 3.8055e-05 0)
(-0.00201458 4.45894e-05 0)
(-0.0036102 5.19401e-05 0)
(-0.00536037 5.44543e-05 0)
(-0.00699425 3.85603e-05 0)
(-0.00824258 8.21967e-06 0)
(-0.00890512 -4.95779e-05 0)
(-0.00866787 -0.000141089 0)
(-0.00722907 -0.000278702 0)
(-0.00411293 -0.000480454 0)
(0.0010296 -0.000723168 0)
(0.00816376 -0.000976548 0)
(0.0168184 -0.0012388 0)
(0.0264117 -0.00151837 0)
(0.0366016 -0.00186366 0)
(0.0465026 -0.00224901 0)
(0.0535055 -0.00222644 0)
(0.0470313 0.00233597 0)
(-0.00409342 0.0199111 0)
(-0.174246 0.0290391 0)
(-0.279963 -0.0136901 0)
(0.0280368 -0.150481 0)
(0.191719 -0.0192734 0)
(0.191771 0.0289607 0)
(0.0586088 0.0228328 0)
(0.0523314 -0.0100253 0)
(0.0809999 -0.0106599 0)
(0.0800784 0.00197293 0)
(0.0742068 0.0282222 0)
(0.0299354 0.0253875 0)
(-0.000780905 0.000139253 0)
(-0.00252027 0.000180112 0)
(-0.00459429 0.000225606 0)
(-0.00700432 0.00026558 0)
(-0.00949372 0.000256968 0)
(-0.011816 0.000218183 0)
(-0.0138176 0.000113191 0)
(-0.01522 -7.623e-05 0)
(-0.0157524 -0.000397377 0)
(-0.0149017 -0.000916762 0)
(-0.0122432 -0.00156725 0)
(-0.00779836 -0.00224596 0)
(-0.00214532 -0.00289012 0)
(0.00386896 -0.0033789 0)
(0.00937392 -0.00375256 0)
(0.0123625 -0.0033029 0)
(0.00880861 0.000950092 0)
(-0.0114847 0.0219905 0)
(-0.0581329 0.0592963 0)
(-0.159012 0.0622245 0)
(-0.197985 -0.0348107 0)
(0.0699045 -0.269943 0)
(0.0670019 -0.0648632 0)
(0.153381 0.0713548 0)
(0.0633087 0.0492009 0)
(0.0585294 -0.0165138 0)
(0.0595701 -0.0248744 0)
(0.0694317 0.00421516 0)
(0.0556341 0.0407051 0)
(0.0375458 0.0782019 0)
(-0.000795019 0.000249528 0)
(-0.00257024 0.000321905 0)
(-0.00469973 0.000410483 0)
(-0.00719811 0.000496957 0)
(-0.00981768 0.000508178 0)
(-0.0123264 0.000482059 0)
(-0.0145917 0.000361742 0)
(-0.0163597 0.000119781 0)
(-0.0173875 -0.00032832 0)
(-0.0171617 -0.00109192 0)
(-0.0152443 -0.00206596 0)
(-0.0116788 -0.00307438 0)
(-0.00710362 -0.0039314 0)
(-0.00257543 -0.00434125 0)
(0.000659339 -0.00417638 0)
(-0.000149058 -0.00183191 0)
(-0.00814968 0.00650607 0)
(-0.0291081 0.0364691 0)
(-0.0565699 0.0780158 0)
(-0.105195 0.0768231 0)
(-0.106054 -0.0722475 0)
(0.018887 -0.274458 0)
(-0.0410075 -0.0610751 0)
(0.0871701 0.0844402 0)
(0.0296685 0.0796439 0)
(-0.00310006 0.0165922 0)
(-0.00652995 -0.0179521 0)
(0.000449905 0.0273178 0)
(-0.0128808 0.0912076 0)
(-0.0129342 0.141798 0)
(-0.000793366 0.000359943 0)
(-0.00256775 0.000465636 0)
(-0.00470084 0.000598266 0)
(-0.00721097 0.000732505 0)
(-0.00984959 0.000764447 0)
(-0.0123876 0.000751993 0)
(-0.0147006 0.000616698 0)
(-0.0165443 0.000322835 0)
(-0.017692 -0.000249914 0)
(-0.0176204 -0.00125752 0)
(-0.0158667 -0.00255727 0)
(-0.0124653 -0.00389279 0)
(-0.00806139 -0.00492015 0)
(-0.00378275 -0.00522854 0)
(-0.000867886 -0.00441519 0)
(-0.00216048 -0.000260127 0)
(-0.00853062 0.0100928 0)
(-0.0237888 0.0420872 0)
(-0.0297375 0.0801404 0)
(-0.0442787 0.0806551 0)
(-0.0432423 -0.0937949 0)
(0.0759722 -0.289841 0)
(-0.0742613 -0.0925904 0)
(0.0826535 0.0784715 0)
(-0.0161026 0.072908 0)
(-0.00764704 0.00100327 0)
(-0.0335077 -0.0322521 0)
(-0.0509528 0.0153062 0)
(-0.020762 0.0790304 0)
(-0.0277679 0.0487162 0)
(-0.000789306 0.000469852 0)
(-0.00255807 0.000609239 0)
(-0.00468904 0.000786186 0)
(-0.00720377 0.000968897 0)
(-0.00985041 0.00102189 0)
(-0.0124004 0.00102422 0)
(-0.0147363 0.000876017 0)
(-0.0166212 0.000535412 0)
(-0.0178448 -0.000152935 0)
(-0.0178676 -0.0014028 0)
(-0.016188 -0.00303021 0)
(-0.0128074 -0.00469869 0)
(-0.00834162 -0.00590833 0)
(-0.0039085 -0.00611235 0)
(-0.000518472 -0.004674 0)
(-0.000841618 0.00128031 0)
(-0.00292247 0.014271 0)
(-0.0113056 0.047957 0)
(0.0060912 0.0776456 0)
(0.0157199 0.0772533 0)
(0.0336865 -0.114949 0)
(0.125304 -0.259845 0)
(-0.0480808 -0.0964833 0)
(0.0700024 0.0696286 0)
(0.0287285 0.124619 0)
(0.067702 0.0536102 0)
(0.0319048 0.0178809 0)
(-0.0152947 0.00981085 0)
(-0.0104921 0.0709248 0)
(0.0168372 0.0605023 0)
(-0.000784009 0.000579149 0)
(-0.00254524 0.000752491 0)
(-0.00467283 0.000973978 0)
(-0.00719221 0.0012059 0)
(-0.00984702 0.00128003 0)
(-0.0124088 0.00129811 0)
(-0.0147684 0.00113884 0)
(-0.0166969 0.00075583 0)
(-0.0180049 -4.28891e-05 0)
(-0.0181317 -0.00153598 0)
(-0.0165247 -0.00349886 0)
(-0.0131353 -0.00551912 0)
(-0.00852676 -0.00694913 0)
(-0.00376282 -0.00714645 0)
(0.000561197 -0.00546585 0)
(0.00229435 0.000704713 0)
(0.00682052 0.0124678 0)
(0.00750429 0.0408443 0)
(0.0465066 0.0620068 0)
(0.0633881 0.0694241 0)
(0.136033 -0.119559 0)
(0.1489 -0.243838 0)
(0.0590419 -0.0893829 0)
(0.0361243 0.04405 0)
(0.0828655 0.0881151 0)
(0.134281 0.0435127 0)
(0.109671 0.0324054 0)
(0.0796076 0.0325474 0)
(0.0712087 0.0337816 0)
(0.0365032 0.0602324 0)
(-0.00077755 0.000687724 0)
(-0.00252954 0.00089532 0)
(-0.00465279 0.00116162 0)
(-0.00717749 0.00144368 0)
(-0.00984163 0.00153904 0)
(-0.0124167 0.00157395 0)
(-0.0148029 0.00140576 0)
(-0.0167814 0.000985634 0)
(-0.0181893 8.37077e-05 0)
(-0.0184406 -0.00165337 0)
(-0.0169201 -0.00396219 0)
(-0.0135151 -0.00635921 0)
(-0.00873178 -0.00804874 0)
(-0.0036025 -0.00831436 0)
(0.00157091 -0.00645742 0)
(0.00482713 3.00957e-05 0)
(0.0135349 0.0124536 0)
(0.0191426 0.0367443 0)
(0.0751515 0.046189 0)
(0.0725998 0.0490608 0)
(0.201468 -0.114328 0)
(0.147042 -0.232083 0)
(0.100838 -0.0243332 0)
(0.00399392 0.0385881 0)
(0.130194 0.00482002 0)
(0.103585 0.0150594 0)
(0.181347 0.0739942 0)
(0.113218 0.0777818 0)
(0.0177062 0.0984409 0)
(0.0137348 0.140453 0)
(-0.000769922 0.000795434 0)
(-0.00251096 0.00103765 0)
(-0.00462892 0.00134907 0)
(-0.00715966 0.00168239 0)
(-0.00983432 0.00179903 0)
(-0.0124241 0.00185205 0)
(-0.0148399 0.00167739 0)
(-0.0168747 0.00122645 0)
(-0.0183993 0.000229782 0)
(-0.0187984 -0.00175196 0)
(-0.0173823 -0.00442057 0)
(-0.0139607 -0.00722272 0)
(-0.00897323 -0.00922689 0)
(-0.00340756 -0.00968534 0)
(0.00277738 -0.00807507 0)
(0.00810315 -0.00269888 0)
(0.0215262 0.00684801 0)
(0.0304629 0.0230721 0)
(0.096358 0.0291616 0)
(0.0677024 0.0124096 0)
(0.187703 -0.147751 0)
(0.134534 -0.188041 0)
(0.136347 -0.051779 0)
(0.0907938 0.0345487 0)
(0.179445 0.0266055 0)
(0.135995 0.00975828 0)
(0.192389 -0.00811103 0)
(0.309243 0.102895 0)
(0.226842 0.197329 0)
(0.24455 0.197548 0)
(-0.000761112 0.000902137 0)
(-0.00248949 0.0011794 0)
(-0.00460115 0.00153627 0)
(-0.00713866 0.00192214 0)
(-0.00982503 0.00206011 0)
(-0.0124307 0.00213263 0)
(-0.0148788 0.0019542 0)
(-0.0169759 0.00147983 0)
(-0.0186344 0.0003989 0)
(-0.0192066 -0.00182846 0)
(-0.0179162 -0.00486812 0)
(-0.0144834 -0.00811091 0)
(-0.00928607 -0.0104773 0)
(-0.00332709 -0.011195 0)
(0.00357845 -0.00985265 0)
(0.01009 -0.00512155 0)
(0.0257064 0.0030453 0)
(0.038615 0.0109396 0)
(0.103446 0.0182101 0)
(0.095513 0.00172486 0)
(0.130476 -0.194307 0)
(0.202172 -0.138235 0)
(0.0357043 -0.0217351 0)
(0.106959 0.0305694 0)
(0.180406 -0.0372712 0)
(0.213789 0.0487525 0)
(-0.00283099 -0.220056 0)
(0.165332 0.0465898 0)
(0.0789781 0.206673 0)
(0.184784 0.445419 0)
(-0.000751105 0.00100769 0)
(-0.0024651 0.00132047 0)
(-0.00456941 0.00172318 0)
(-0.00711445 0.00216306 0)
(-0.00981368 0.00232236 0)
(-0.0124364 0.00241587 0)
(-0.0149191 0.00223658 0)
(-0.0170837 0.00174729 0)
(-0.0188939 0.000594753 0)
(-0.019666 -0.00187897 0)
(-0.0185261 -0.00530316 0)
(-0.0150901 -0.00902513 0)
(-0.00966927 -0.0118094 0)
(-0.00329383 -0.0128837 0)
(0.00435395 -0.0120577 0)
(0.0120625 -0.00873992 0)
(0.0287682 -0.00351056 0)
(0.0462613 -0.00371754 0)
(0.0974241 0.00255304 0)
(0.138027 -0.00751958 0)
(0.133063 -0.192655 0)
(0.144295 -0.132541 0)
(0.107631 -0.0352172 0)
(0.125873 -0.0437321 0)
(-0.0378921 -0.13092 0)
(0.179202 0.195741 0)
(0.130207 -0.0779273 0)
(0.125236 0.282457 0)
(-0.0300702 0.535242 0)
(0.118142 0.647226 0)
(-0.000739883 0.00111194 0)
(-0.00243774 0.0014608 0)
(-0.00453362 0.00190974 0)
(-0.00708695 0.00240527 0)
(-0.0098002 0.00258587 0)
(-0.012441 0.00270194 0)
(-0.01496 0.00252484 0)
(-0.0171964 0.00203031 0)
(-0.0191768 0.000821308 0)
(-0.0201783 -0.00189654 0)
(-0.0192171 -0.00572373 0)
(-0.0157921 -0.00996499 0)
(-0.0101503 -0.0132189 0)
(-0.00340068 -0.014702 0)
(0.00476484 -0.0143465 0)
(0.0131023 -0.0121139 0)
(0.0297007 -0.00971694 0)
(0.0521328 -0.0148503 0)
(0.0794398 -0.0193647 0)
(0.171792 -0.0202573 0)
(0.145983 -0.192079 0)
(0.114202 -0.109476 0)
(0.154341 -0.0216386 0)
(0.156666 0.0774211 0)
(0.512957 -0.0473671 0)
(0.1518 -0.0088045 0)
(0.194049 -0.136768 0)
(0.138117 0.0894236 0)
(0.0479259 0.39829 0)
(0.121626 0.620609 0)
(-0.000727427 0.00121475 0)
(-0.00240739 0.00160028 0)
(-0.0044937 0.00209588 0)
(-0.0070561 0.00264888 0)
(-0.0097845 0.00285068 0)
(-0.0124441 0.00299096 0)
(-0.0150005 0.00281917 0)
(-0.0173123 0.00233027 0)
(-0.0194816 0.00108281 0)
(-0.0207445 -0.00187706 0)
(-0.0199949 -0.00612587 0)
(-0.0165972 -0.0109293 0)
(-0.010733 -0.0146973 0)
(-0.00361605 -0.016636 0)
(0.00495823 -0.0167993 0)
(0.0134192 -0.0156545 0)
(0.0291428 -0.0166361 0)
(0.0528991 -0.0233903 0)
(0.0674857 -0.0433091 0)
(0.162618 -0.0450621 0)
(0.162565 -0.166918 0)
(0.115643 -0.163072 0)
(0.244953 -0.169441 0)
(0.814019 0.0658056 0)
(0.72981 -0.0218658 0)
(0.318484 0.0842974 0)
(0.138487 0.102346 0)
(0.0399079 0.231322 0)
(-0.039185 0.40916 0)
(0.0539366 0.625694 0)
(-0.000713714 0.00131596 0)
(-0.00237401 0.00173885 0)
(-0.00444955 0.00228159 0)
(-0.00702183 0.00289398 0)
(-0.00976651 0.00311687 0)
(-0.0124455 0.00328303 0)
(-0.01504 0.00311963 0)
(-0.0174292 0.00264849 0)
(-0.019807 0.00138385 0)
(-0.0213663 -0.00181693 0)
(-0.0208649 -0.0065017 0)
(-0.0175142 -0.0119173 0)
(-0.0114257 -0.0162474 0)
(-0.00394266 -0.0186571 0)
(0.00499596 -0.019315 0)
(0.0132407 -0.0190765 0)
(0.028182 -0.0234636 0)
(0.0496896 -0.0313235 0)
(0.0666447 -0.0610325 0)
(0.12622 -0.0785275 0)
(0.183601 -0.137008 0)
(0.153104 -0.22019 0)
(-0.0374636 -0.768609 0)
(0.414016 -0.0154651 0)
(0.437535 0.0994035 0)
(0.180365 0.252012 0)
(0.0401477 0.231043 0)
(-0.0113784 0.307999 0)
(-0.0621008 0.424933 0)
(-0.00464205 0.560035 0)
(-0.000698721 0.00141543 0)
(-0.00233756 0.00187641 0)
(-0.00440106 0.00246681 0)
(-0.00698406 0.00314063 0)
(-0.00974614 0.00338448 0)
(-0.012445 0.00357818 0)
(-0.0150773 0.00342611 0)
(-0.0175446 0.0029861 0)
(-0.0201511 0.0017295 0)
(-0.0220443 -0.0017087 0)
(-0.0218335 -0.00684519 0)
(-0.0185541 -0.0129272 0)
(-0.0122384 -0.0178638 0)
(-0.00440341 -0.0207268 0)
(0.0047653 -0.021732 0)
(0.0121858 -0.0220078 0)
(0.0258371 -0.0292996 0)
(0.0439336 -0.0376406 0)
(0.0625703 -0.0694237 0)
(0.103197 -0.133007 0)
(0.162533 -0.118532 0)
(0.178379 -0.0311394 0)
(0.15192 0.0912893 0)
(-0.186084 -0.0410952 0)
(-0.0992471 0.204282 0)
(-0.123399 0.330276 0)
(-0.10623 0.278604 0)
(-0.082344 0.339032 0)
(-0.078244 0.427788 0)
(-0.0254975 0.493123 0)
(-0.00068242 0.001513 0)
(-0.00229798 0.00201289 0)
(-0.00434812 0.00265154 0)
(-0.00694272 0.00338891 0)
(-0.0097233 0.00365355 0)
(-0.0124423 0.00387644 0)
(-0.0151114 0.00373833 0)
(-0.0176558 0.00334399 0)
(-0.0205115 0.00212537 0)
(-0.02278 -0.00154532 0)
(-0.022907 -0.00715246 0)
(-0.019725 -0.0139598 0)
(-0.0131641 -0.0195595 0)
(-0.00492396 -0.0229012 0)
(0.00455995 -0.0244167 0)
(0.0109797 -0.0251975 0)
(0.0237544 -0.0355212 0)
(0.0372509 -0.0448096 0)
(0.0636405 -0.0762994 0)
(0.0420951 -0.160318 0)
(0.0925763 -0.10377 0)
(-0.22449 -0.301878 0)
(-0.295602 -0.454987 0)
(-0.221148 -0.0675655 0)
(-0.292692 0.173444 0)
(-0.214626 0.273763 0)
(-0.178375 0.243578 0)
(-0.130773 0.320539 0)
(-0.0934084 0.39045 0)
(-0.0390805 0.437485 0)
(-0.000664783 0.00160851 0)
(-0.00225522 0.00214821 0)
(-0.00429063 0.00283572 0)
(-0.00689772 0.00363889 0)
(-0.00969792 0.0039241 0)
(-0.0124372 0.00417778 0)
(-0.0151413 0.00405575 0)
(-0.0177594 0.00372267 0)
(-0.0208856 0.00257774 0)
(-0.0235741 -0.00131872 0)
(-0.0240934 -0.00741653 0)
(-0.0210416 -0.0150074 0)
(-0.0142266 -0.0213016 0)
(-0.00560986 -0.0248585 0)
(0.00410098 -0.0259462 0)
(0.00893515 -0.026657 0)
(0.0201474 -0.038996 0)
(0.0307084 -0.0479899 0)
(0.058135 -0.0759689 0)
(0.0259845 -0.16464 0)
(0.0525593 0.0371687 0)
(-0.12943 -0.131665 0)
(-0.248258 -0.0583627 0)
(-0.293421 -0.0180912 0)
(-0.307229 0.129699 0)
(-0.220821 0.190829 0)
(-0.190019 0.196025 0)
(-0.141068 0.272193 0)
(-0.0909822 0.330813 0)
(-0.0374898 0.380901 0)
(-0.000645777 0.0017018 0)
(-0.00220924 0.0022823 0)
(-0.00422846 0.00301931 0)
(-0.00684898 0.00389061 0)
(-0.00966994 0.00419618 0)
(-0.0124296 0.00448213 0)
(-0.0151659 0.00437762 0)
(-0.0178516 0.00412203 0)
(-0.0212699 0.00309387 0)
(-0.0244282 -0.00102052 0)
(-0.0253986 -0.00762473 0)
(-0.0225047 -0.0160976 0)
(-0.0153453 -0.0233048 0)
(-0.00607271 -0.0278529 0)
(0.00405368 -0.029751 0)
(0.00736235 -0.0303424 0)
(0.0179433 -0.0448559 0)
(0.0276613 -0.0582452 0)
(0.0599899 -0.0871894 0)
(0.0713468 -0.133165 0)
(-0.0660978 0.0545936 0)
(-0.36291 -0.0728494 0)
(-0.200688 -0.122412 0)
(-0.267949 0.00294016 0)
(-0.255581 0.0919133 0)
(-0.203228 0.138575 0)
(-0.174728 0.158218 0)
(-0.136954 0.217543 0)
(-0.0884892 0.267862 0)
(-0.0346727 0.315291 0)
(-0.000625367 0.00179272 0)
(-0.00215997 0.00241509 0)
(-0.00416149 0.00320227 0)
(-0.00679642 0.00414415 0)
(-0.00963927 0.0044698 0)
(-0.0124192 0.00478941 0)
(-0.015184 0.00470285 0)
(-0.0179278 0.00454081 0)
(-0.0216605 0.00368247 0)
(-0.0253421 -0.000642219 0)
(-0.0268387 -0.00775532 0)
(-0.0241854 -0.0171424 0)
(-0.0168387 -0.0248429 0)
(-0.00717224 -0.0286053 0)
(0.00341821 -0.0283701 0)
(0.00440548 -0.029035 0)
(0.0112254 -0.0452638 0)
(0.0200939 -0.0585621 0)
(0.0598897 -0.103762 0)
(0.117703 -0.0910284 0)
(-0.0927506 0.298765 0)
(-0.102587 -0.128358 0)
(-0.179704 -0.0852019 0)
(-0.226732 0.0204409 0)
(-0.200111 0.0674696 0)
(-0.17483 0.108212 0)
(-0.147628 0.130875 0)
(-0.120715 0.173164 0)
(-0.0800617 0.211251 0)
(-0.0309348 0.241847 0)
(-0.000603516 0.00188109 0)
(-0.00210734 0.0025465 0)
(-0.00408958 0.00338453 0)
(-0.00673994 0.00439956 0)
(-0.00960586 0.00474498 0)
(-0.0124061 0.00509951 0)
(-0.0151948 0.00503003 0)
(-0.0179829 0.00497734 0)
(-0.0220526 0.00435335 0)
(-0.0263144 -0.000169886 0)
(-0.0283997 -0.00784912 0)
(-0.025906 -0.0184144 0)
(-0.017859 -0.0279633 0)
(-0.00692524 -0.0341158 0)
(0.00406489 -0.035365 0)
(0.00274578 -0.0337392 0)
(0.00964754 -0.0507736 0)
(0.0219215 -0.073238 0)
(0.0379571 -0.146624 0)
(0.0984791 -0.0791829 0)
(0.00720832 0.168621 0)
(-0.0314613 -0.0735788 0)
(-0.19758 -0.0693786 0)
(-0.173972 0.0283689 0)
(-0.15782 0.049694 0)
(-0.141142 0.0869303 0)
(-0.116888 0.109077 0)
(-0.0947563 0.139665 0)
(-0.0620926 0.165276 0)
(-0.0235589 0.182457 0)
(-0.00058018 0.00196675 0)
(-0.00205129 0.00267647 0)
(-0.0040126 0.00356602 0)
(-0.00667945 0.00465689 0)
(-0.00956967 0.00502177 0)
(-0.0123903 0.0054123 0)
(-0.0151973 0.00535736 0)
(-0.0180108 0.00543154 0)
(-0.0224403 0.00511292 0)
(-0.0273549 0.000408904 0)
(-0.0301689 -0.00778036 0)
(-0.0282484 -0.0191398 0)
(-0.0204315 -0.0283122 0)
(-0.00930578 -0.0318962 0)
(0.00287534 -0.0286282 0)
(0.000770798 -0.0294733 0)
(0.00128235 -0.0526434 0)
(0.0110527 -0.0672854 0)
(0.0295776 -0.151827 0)
(0.0287467 -0.0682285 0)
(-0.0108248 0.340459 0)
(0.0111793 -0.0147398 0)
(-0.182748 -0.034808 0)
(-0.129237 0.0213694 0)
(-0.123672 0.035851 0)
(-0.108783 0.0695503 0)
(-0.0890696 0.0904165 0)
(-0.0701393 0.113103 0)
(-0.0450309 0.130104 0)
(-0.0170743 0.139873 0)
(-0.000555315 0.00204953 0)
(-0.00199175 0.00280494 0)
(-0.00393041 0.00374667 0)
(-0.00661484 0.00491621 0)
(-0.00953066 0.00530032 0)
(-0.0123719 0.0057276 0)
(-0.0151905 0.00568278 0)
(-0.0180051 0.00590621 0)
(-0.0228168 0.00597187 0)
(-0.0284374 0.00110403 0)
(-0.0319347 -0.00774258 0)
(-0.0299246 -0.0211772 0)
(-0.0206804 -0.0339138 0)
(-0.00764039 -0.0421447 0)
(0.00683861 -0.0416161 0)
(0.00533835 -0.0323821 0)
(0.0005795 -0.0507111 0)
(0.00913545 -0.0927219 0)
(0.0907824 -0.145419 0)
(-0.0731114 -0.0659315 0)
(-0.0156788 0.281059 0)
(-0.0506887 0.0029982 0)
(-0.151983 0.000747489 0)
(-0.10177 0.0132042 0)
(-0.0980362 0.0257359 0)
(-0.0850143 0.0551856 0)
(-0.0683069 0.074595 0)
(-0.0521126 0.0921319 0)
(-0.0329327 0.104102 0)
(-0.0128294 0.110205 0)
(-0.000528872 0.00212924 0)
(-0.00192864 0.00293182 0)
(-0.00384287 0.00392639 0)
(-0.00654601 0.00517753 0)
(-0.0094888 0.00558084 0)
(-0.0123513 0.00604488 0)
(-0.0151733 0.00600269 0)
(-0.0179581 0.00639899 0)
(-0.0231763 0.00691788 0)
(-0.0296203 0.00190709 0)
(-0.0343044 -0.00730203 0)
(-0.0339221 -0.0206873 0)
(-0.0274821 -0.0318571 0)
(-0.0209018 -0.0354046 0)
(-0.0186247 -0.0287937 0)
(-0.0163238 -0.0300276 0)
(0.0259083 -0.0575538 0)
(-0.0181934 -0.100826 0)
(0.12485 -0.0699422 0)
(-0.227192 -0.0721561 0)
(-0.0249461 0.397523 0)
(-0.104911 0.0118807 0)
(-0.117283 0.011098 0)
(-0.0837376 0.00444006 0)
(-0.0780714 0.018739 0)
(-0.0681633 0.0431625 0)
(-0.0544111 0.0611214 0)
(-0.0407252 0.0753743 0)
(-0.0256652 0.0844596 0)
(-0.0105504 0.0887457 0)
(-0.000500798 0.00220572 0)
(-0.00186188 0.00305703 0)
(-0.00374981 0.00410512 0)
(-0.00647283 0.00544097 0)
(-0.00944413 0.00586401 0)
(-0.0123291 0.00636475 0)
(-0.0151446 0.00631746 0)
(-0.0178637 0.00692582 0)
(-0.0235087 0.00801954 0)
(-0.0307569 0.00293507 0)
(-0.0358939 -0.00713828 0)
(-0.0346251 -0.0240043 0)
(-0.0264001 -0.0388816 0)
(-0.014529 -0.0459803 0)
(0.0121978 -0.0479318 0)
(0.0648932 -0.0424401 0)
(0.0343972 -0.0450439 0)
(-0.0156197 -0.142927 0)
(0.0710194 -0.0739838 0)
(-0.243037 -0.0283456 0)
(0.083409 0.183887 0)
(-0.0804127 0.0693725 0)
(-0.070179 0.0072546 0)
(-0.0657492 -0.00151246 0)
(-0.0612561 0.0138348 0)
(-0.0550848 0.0341885 0)
(-0.0446219 0.0499989 0)
(-0.0334034 0.061699 0)
(-0.0212773 0.0688701 0)
(-0.00931528 0.0721272 0)
(-0.000471038 0.00227875 0)
(-0.0017914 0.00318045 0)
(-0.00365109 0.00428258 0)
(-0.00639511 0.00570599 0)
(-0.00939659 0.00614884 0)
(-0.0123055 0.0066817 0)
(-0.0151017 0.00660735 0)
(-0.0177082 0.00743408 0)
(-0.023809 0.00909169 0)
(-0.0321852 0.0038886 0)
(-0.0400129 -0.00601614 0)
(-0.0455533 -0.0213363 0)
(-0.054882 -0.035197 0)
(-0.0668654 -0.0450542 0)
(-0.0427627 -0.0511439 0)
(-0.0222251 -0.0386417 0)
(0.0148607 -0.0340323 0)
(0.0626685 -0.140679 0)
(-0.0364876 0.0388667 0)
(0.448342 0.0194843 0)
(-0.156418 0.351459 0)
(0.0201869 0.0493786 0)
(-0.0380005 -0.0055169 0)
(-0.044886 -0.0067799 0)
(-0.045984 0.0116204 0)
(-0.0434988 0.0286003 0)
(-0.0364003 0.0414715 0)
(-0.0276597 0.050668 0)
(-0.0179626 0.056232 0)
(-0.00837083 0.0587398 0)
(-0.000439535 0.0023483 0)
(-0.00171713 0.00330231 0)
(-0.00354658 0.00445978 0)
(-0.00631276 0.00597546 0)
(-0.00934661 0.00644345 0)
(-0.012283 0.00701784 0)
(-0.0150476 0.00692999 0)
(-0.0174958 0.00809958 0)
(-0.0240535 0.0106761 0)
(-0.033087 0.00565806 0)
(-0.0395038 -0.00514182 0)
(-0.0376081 -0.0226336 0)
(-0.0235427 -0.0355409 0)
(-0.00049356 -0.0474236 0)
(0.0417546 -0.0579877 0)
(0.0208159 -0.0560978 0)
(0.0739307 -0.0663938 0)
(0.0985646 -0.111221 0)
(-0.102409 -0.172756 0)
(0.0484246 -0.106833 0)
(0.212677 0.241237 0)
(0.267163 0.0475045 0)
(0.0675051 0.0591364 0)
(-0.00986192 0.016942 0)
(-0.026909 0.0188774 0)
(-0.032783 0.0271431 0)
(-0.0291351 0.0355537 0)
(-0.0226062 0.0420846 0)
(-0.0150024 0.0461813 0)
(-0.00744617 0.0480767 0)
(-0.00040625 0.0024142 0)
(-0.00163889 0.00342195 0)
(-0.00343593 0.00463189 0)
(-0.00622504 0.00623555 0)
(-0.00929269 0.00671316 0)
(-0.012258 0.00727763 0)
(-0.014968 0.00705565 0)
(-0.0171852 0.00840824 0)
(-0.0242683 0.0114902 0)
(-0.0352013 0.00630524 0)
(-0.0491572 -0.00392594 0)
(-0.0680232 -0.0232998 0)
(-0.0802139 -0.0437779 0)
(-0.0646286 -0.0603221 0)
(-0.032427 -0.0584203 0)
(0.00187023 -0.0551512 0)
(0.0742545 -0.0681255 0)
(0.200747 -0.052718 0)
(0.22999 -0.0369629 0)
(-0.427633 -0.0596255 0)
(0.385512 0.299687 0)
(-0.230151 0.127877 0)
(0.0255887 0.118176 0)
(-0.0450879 0.0425978 0)
(-0.0294039 0.0264774 0)
(-0.0298833 0.0262346 0)
(-0.0249359 0.0306893 0)
(-0.0189615 0.0351785 0)
(-0.0126729 0.0382563 0)
(-0.00666648 0.0397636 0)
(-0.000372391 0.00247922 0)
(-0.00155693 0.00354799 0)
(-0.00331983 0.00483329 0)
(-0.00613393 0.00655918 0)
(-0.00924095 0.00711506 0)
(-0.0122472 0.00779833 0)
(-0.0148924 0.00763919 0)
(-0.0168237 0.00959378 0)
(-0.0243644 0.0142036 0)
(-0.0353595 0.00980529 0)
(-0.0431642 -0.000217069 0)
(-0.0401912 -0.0188828 0)
(-0.0292652 -0.0386865 0)
(-0.0377228 -0.061005 0)
(-0.0429052 -0.0768589 0)
(-0.0280753 -0.0879986 0)
(0.0250332 -0.139224 0)
(0.053124 -0.102674 0)
(-0.116324 0.140739 0)
(-0.326195 -0.154868 0)
(0.1426 0.355226 0)
(-0.377281 0.126423 0)
(0.00607778 0.0668079 0)
(-0.0648333 0.0392216 0)
(-0.0337381 0.0228346 0)
(-0.0294196 0.0217315 0)
(-0.0227114 0.0250394 0)
(-0.0166615 0.0288798 0)
(-0.0111085 0.0316769 0)
(-0.0061309 0.0331172 0)
(-0.000358312 0.00252155 0)
(-0.00146944 0.00363329 0)
(-0.00319429 0.00489921 0)
(-0.0060307 0.00667804 0)
(-0.00917285 0.00716024 0)
(-0.012213 0.00768651 0)
(-0.014758 0.0071646 0)
(-0.0162992 0.00929085 0)
(-0.0242052 0.0142328 0)
(-0.0367511 0.00933806 0)
(-0.0522426 -0.00170554 0)
(-0.0623475 -0.0236585 0)
(-0.0499157 -0.0421599 0)
(-0.0179136 -0.0555627 0)
(0.0106529 -0.0616672 0)
(0.0177592 -0.0797071 0)
(0.0207869 -0.0990583 0)
(-0.180129 0.0476584 0)
(-1.04879 -0.105818 0)
(-0.195051 -0.176488 0)
(-0.112312 0.305237 0)
(-0.278231 0.0700527 0)
(-0.0290797 0.0137577 0)
(-0.0616099 0.0280218 0)
(-0.0345358 0.0145601 0)
(-0.0273826 0.0150623 0)
(-0.0204064 0.0187316 0)
(-0.0146944 0.0228492 0)
(-0.00984824 0.0258993 0)
(-0.00569302 0.0275088 0)
(-0.000695157 0.00254913 0)
(-0.00138889 0.00378363 0)
(-0.00307364 0.00532268 0)
(-0.0059474 0.00713062 0)
(-0.00916167 0.00791183 0)
(-0.0122953 0.00868204 0)
(-0.0146426 0.00827779 0)
(-0.0156838 0.0109496 0)
(-0.0253241 0.0181377 0)
(-0.0422853 0.0145886 0)
(-0.0593489 0.00340561 0)
(-0.0764485 -0.021521 0)
(-0.0847262 -0.0494589 0)
(-0.0702044 -0.072388 0)
(-0.0297663 -0.0816975 0)
(0.052927 -0.088295 0)
(0.0355163 -0.0973826 0)
(0.113528 0.266084 0)
(0.347337 -0.135397 0)
(-0.197584 -0.167541 0)
(-0.192138 0.287794 0)
(-0.118193 0.019952 0)
(-0.0525986 -0.0115323 0)
(-0.0385909 0.0129055 0)
(-0.0260582 0.00675761 0)
(-0.0200422 0.00892465 0)
(-0.0153429 0.0131984 0)
(-0.0113395 0.0177528 0)
(-0.00793194 0.0211551 0)
(-0.00501113 0.0229727 0)
(-0.00459097 0.00267116 0)
(-0.00126071 0.00370138 0)
(-0.00260799 0.00510727 0)
(-0.00487121 0.00767338 0)
(-0.00794182 0.00779228 0)
(-0.0115683 0.00833343 0)
(-0.0152032 0.00738262 0)
(-0.0158662 0.0110856 0)
(-0.0205368 0.0186008 0)
(-0.0321846 0.0146064 0)
(-0.0544764 0.00577968 0)
(-0.0739738 -0.0194587 0)
(-0.0911336 -0.0483016 0)
(-0.098354 -0.0751832 0)
(-0.0857016 -0.0970441 0)
(-0.0116761 -0.109957 0)
(0.0486098 -0.0770381 0)
(-0.342111 0.444859 0)
(0.255542 -0.0531511 0)
(-0.207328 -0.0602687 0)
(-0.176154 0.255977 0)
(-0.0142926 -0.0216905 0)
(-0.0339601 -0.0183951 0)
(-0.00793526 0.00114177 0)
(-0.00715274 0.00346117 0)
(-0.00623628 0.0062776 0)
(-0.0060402 0.010521 0)
(-0.00540658 0.0150484 0)
(-0.00461947 0.0184952 0)
(-0.00382408 0.0203598 0)
(-0.0313668 0.0251703 0)
(-0.0746314 0.0280104 0)
(-0.0806912 0.00209595 0)
(-0.081397 -0.0109013 0)
(-0.0524279 -0.0104377 0)
(-0.0587774 0.0227748 0)
(-0.191768 0.0291894 0)
(-0.192084 -0.0191565 0)
(-0.0281692 -0.150742 0)
(0.280359 -0.01363 0)
(0.173942 0.0290625 0)
(0.00390217 0.0198811 0)
(-0.0470365 0.00232682 0)
(-0.0535269 -0.00222559 0)
(-0.046498 -0.00224747 0)
(-0.0365983 -0.00186366 0)
(-0.0264083 -0.00151817 0)
(-0.0168153 -0.00123857 0)
(-0.00816243 -0.000976345 0)
(-0.00103139 -0.000722915 0)
(0.00410674 -0.000480251 0)
(0.00722057 -0.000278651 0)
(0.0086593 -0.000141124 0)
(0.00889741 -4.97064e-05 0)
(0.00823943 7.99248e-06 0)
(0.00699147 3.85819e-05 0)
(0.00535962 5.42385e-05 0)
(0.00361227 5.20476e-05 0)
(0.00201542 4.45459e-05 0)
(0.00062986 3.81035e-05 0)
(-0.0377115 0.0777402 0)
(-0.05605 0.0401122 0)
(-0.0700032 0.00400666 0)
(-0.059896 -0.0250572 0)
(-0.0588062 -0.01657 0)
(-0.0640545 0.0493102 0)
(-0.153779 0.0713959 0)
(-0.067424 -0.0650399 0)
(-0.0705445 -0.270426 0)
(0.198167 -0.0346549 0)
(0.158545 0.0623164 0)
(0.0578574 0.0592773 0)
(0.0114 0.0219458 0)
(-0.00886638 0.000933158 0)
(-0.0123748 -0.00330388 0)
(-0.00937511 -0.0037543 0)
(-0.00386473 -0.00337908 0)
(0.00215113 -0.0028898 0)
(0.0078029 -0.00224533 0)
(0.0122438 -0.00156615 0)
(0.0148962 -0.0009158 0)
(0.0157435 -0.000397071 0)
(0.0152105 -7.6295e-05 0)
(0.013809 0.000112771 0)
(0.0118126 0.000217467 0)
(0.00949013 0.000257102 0)
(0.00700294 0.000264832 0)
(0.00459632 0.000225923 0)
(0.00252099 0.000179974 0)
(0.000781923 0.00013939 0)
(0.0132653 0.141803 0)
(0.0134736 0.091351 0)
(-0.000563361 0.0275623 0)
(0.0060327 -0.0182468 0)
(0.00276328 0.0163479 0)
(-0.0301885 0.0796521 0)
(-0.0873677 0.0845932 0)
(0.0408464 -0.0610293 0)
(-0.0197343 -0.274685 0)
(0.105773 -0.0722888 0)
(0.104638 0.0769091 0)
(0.0562722 0.0779708 0)
(0.0289797 0.0363748 0)
(0.00806656 0.00646325 0)
(0.000124361 -0.00184378 0)
(-0.000665218 -0.00418197 0)
(0.00257899 -0.00434244 0)
(0.00710973 -0.00393111 0)
(0.0116841 -0.0030733 0)
(0.0152457 -0.00206391 0)
(0.0171565 -0.00109011 0)
(0.0173785 -0.000327723 0)
(0.0163501 0.000119714 0)
(0.014583 0.000361037 0)
(0.0123229 0.000480832 0)
(0.00981401 0.000508465 0)
(0.00719663 0.000495629 0)
(0.00470175 0.000411032 0)
(0.00257092 0.000321666 0)
(0.00079603 0.000249753 0)
(0.0291298 0.0481986 0)
(0.0218087 0.0787027 0)
(0.0510566 0.0164651 0)
(0.0335051 -0.0318524 0)
(0.00732632 0.00096348 0)
(0.0157502 0.0729626 0)
(-0.0827987 0.0784685 0)
(0.0742471 -0.0925383 0)
(-0.0768962 -0.289965 0)
(0.0428324 -0.0939275 0)
(0.0436753 0.0807188 0)
(0.0294587 0.0800541 0)
(0.0236448 0.0419684 0)
(0.00844035 0.0100321 0)
(0.0021333 -0.000284641 0)
(0.00086152 -0.00442568 0)
(0.00378648 -0.00523117 0)
(0.00806752 -0.00492051 0)
(0.0124709 -0.00389137 0)
(0.0158683 -0.00255425 0)
(0.0176152 -0.00125484 0)
(0.017683 -0.000248969 0)
(0.0165347 0.000322765 0)
(0.0146918 0.000615696 0)
(0.0123841 0.00075024 0)
(0.00984592 0.000764892 0)
(0.00720948 0.000730586 0)
(0.00470292 0.000599057 0)
(0.00256841 0.000465293 0)
(0.000794393 0.000360256 0)
(-0.016236 0.0614214 0)
(0.0111114 0.0726919 0)
(0.0161684 0.0109153 0)
(-0.0307735 0.0179351 0)
(-0.06747 0.0534024 0)
(-0.0285932 0.12452 0)
(-0.070532 0.0696963 0)
(0.048356 -0.0964405 0)
(-0.125424 -0.259803 0)
(-0.0336906 -0.115102 0)
(-0.0161918 0.0773284 0)
(-0.00629563 0.077482 0)
(0.0111733 0.0477819 0)
(0.00284139 0.0141792 0)
(0.000819532 0.00124205 0)
(0.000514599 -0.00468991 0)
(0.00391363 -0.00611659 0)
(0.00834857 -0.00590882 0)
(0.0128136 -0.00469691 0)
(0.0161898 -0.00302615 0)
(0.0178622 -0.0013992 0)
(0.0178355 -0.000151654 0)
(0.0166114 0.000535333 0)
(0.0147274 0.000874709 0)
(0.012397 0.00102193 0)
(0.00984674 0.0010225 0)
(0.00720228 0.000966372 0)
(0.00469121 0.000787231 0)
(0.00255871 0.000608792 0)
(0.000790359 0.000470254 0)
(-0.0371747 0.0594194 0)
(-0.0696857 0.0327882 0)
(-0.0783104 0.0331189 0)
(-0.108695 0.0335044 0)
(-0.134086 0.0441431 0)
(-0.0825063 0.0886465 0)
(-0.0355687 0.0440541 0)
(-0.0570115 -0.0886154 0)
(-0.148174 -0.243407 0)
(-0.135833 -0.119625 0)
(-0.0636731 0.0695557 0)
(-0.0465909 0.0617849 0)
(-0.00757336 0.0406563 0)
(-0.00686757 0.0123637 0)
(-0.00230379 0.00065717 0)
(-0.000560396 -0.00548534 0)
(0.00377007 -0.00715216 0)
(0.00853455 -0.00694912 0)
(0.013142 -0.0055169 0)
(0.0165268 -0.0034937 0)
(0.018126 -0.00153132 0)
(0.0179952 -4.13144e-05 0)
(0.0166869 0.000755729 0)
(0.0147593 0.00113721 0)
(0.0124056 0.00129526 0)
(0.00984336 0.00128082 0)
(0.00719072 0.00120276 0)
(0.0046751 0.000975294 0)
(0.00254584 0.000751938 0)
(0.000785094 0.000579641 0)
(-0.00438528 0.14128 0)
(-0.0201487 0.0985209 0)
(-0.114985 0.0785502 0)
(-0.182388 0.0764543 0)
(-0.10354 0.0136847 0)
(-0.129224 0.00473883 0)
(-0.00427648 0.0379352 0)
(-0.100021 -0.0251989 0)
(-0.147189 -0.231305 0)
(-0.201399 -0.11421 0)
(-0.072765 0.0493161 0)
(-0.0751053 0.045893 0)
(-0.0191215 0.0365611 0)
(-0.0135417 0.0123408 0)
(-0.0048201 -2.04955e-05 0)
(-0.0015637 -0.00647814 0)
(0.00361223 -0.00832159 0)
(0.00874054 -0.0080474 0)
(0.0135224 -0.00635649 0)
(0.0169224 -0.00395586 0)
(0.0184347 -0.00164761 0)
(0.0181792 8.55996e-05 0)
(0.0167711 0.000985497 0)
(0.0147936 0.00140379 0)
(0.0124136 0.00157054 0)
(0.00983798 0.00154001 0)
(0.00717601 0.00143989 0)
(0.0046552 0.00116322 0)
(0.0025301 0.000894659 0)
(0.000778674 0.000688306 0)
(-0.341672 0.211414 0)
(-0.179724 0.184711 0)
(-0.339223 0.104342 0)
(-0.181971 -0.0100391 0)
(-0.137402 0.00837552 0)
(-0.17944 0.0275672 0)
(-0.0903219 0.0348871 0)
(-0.13664 -0.0513654 0)
(-0.135277 -0.187571 0)
(-0.187826 -0.147509 0)
(-0.0674242 0.0126373 0)
(-0.0962631 0.0288404 0)
(-0.0303803 0.0228951 0)
(-0.021508 0.00673725 0)
(-0.00808249 -0.00274954 0)
(-0.00276509 -0.00809582 0)
(0.00342001 -0.00969247 0)
(0.00898323 -0.00922494 0)
(0.0139683 -0.00721948 0)
(0.017385 -0.004413 0)
(0.018792 -0.00174509 0)
(0.0183887 0.00023198 0)
(0.0168642 0.00122626 0)
(0.0148304 0.00167505 0)
(0.0124211 0.00184804 0)
(0.00983067 0.00180021 0)
(0.00715818 0.00167791 0)
(0.00463148 0.00135099 0)
(0.00251148 0.00103688 0)
(0.000771092 0.000796108 0)
(-0.0626451 0.412788 0)
(-0.109569 0.199912 0)
(-0.171763 0.0714236 0)
(0.0408473 -0.238202 0)