/*--------------------------------*- C++ -*----------------------------------*\
| =========                 |                                                 |
| \\      /  F ield         | OpenFOAM: The Open Source CFD Toolbox           |
|  \\    /   O peration     | Version:  2.4.0                                 |
|   \\  /    A nd           | Web:      www.OpenFOAM.org                      |
|    \\/     M anipulation  |                                                 |
\*---------------------------------------------------------------------------*/
FoamFile
{
    version     2.0;
    format      ascii;
    class       surfaceScalarField;
    location    "0.087";
    object      phiAlpha;
}
// * * * * * * * * * * * * * * * * * * * * * * * * * * * * * * * * * * * * * //

dimensions      [0 3 -1 0 0 0 0];

internalField   nonuniform List<scalar> 
119500
(
-1.87924e-13
1.87924e-13
-3.95915e-13
2.08791e-13
-6.5233e-13
2.57108e-13
-9.13548e-13
2.61911e-13
-1.1766e-12
2.63752e-13
-1.43939e-12
2.63479e-13
-1.70052e-12
2.6182e-13
-1.96032e-12
2.60473e-13
-2.21848e-12
2.58824e-13
-2.47519e-12
2.5736e-13
-2.73061e-12
2.56071e-13
-2.98483e-12
2.54881e-13
-3.23779e-12
2.53611e-13
-3.4889e-12
2.51768e-13
-3.73758e-12
2.49314e-13
-3.98298e-12
2.46034e-13
-4.2247e-12
2.42332e-13
-4.46247e-12
2.3837e-13
-4.69671e-12
2.34836e-13
-4.92744e-12
2.31305e-13
-5.15436e-12
2.27494e-13
-5.37836e-12
2.24547e-13
-5.59913e-12
2.21326e-13
-5.81697e-12
2.18396e-13
-6.03182e-12
2.15443e-13
-6.24369e-12
2.12487e-13
-6.4519e-12
2.08877e-13
-6.65645e-12
2.05254e-13
-6.85658e-12
2.00871e-13
-7.05166e-12
1.95872e-13
-7.24078e-12
1.89942e-13
-7.42193e-12
1.82008e-13
-7.59267e-12
1.71642e-13
-7.75e-12
1.5827e-13
-7.88997e-12
1.40931e-13
-8.00769e-12
1.18686e-13
-8.09783e-12
9.11066e-14
-8.15555e-12
5.86724e-14
-8.17614e-12
2.15028e-14
-8.15537e-12
-1.99031e-14
-8.08757e-12
-6.69674e-14
-7.96749e-12
-1.19288e-13
-7.79187e-12
-1.74872e-13
-7.55728e-12
-2.33872e-13
-7.26039e-12
-2.96196e-13
-6.90219e-12
-3.5754e-13
-6.48142e-12
-4.20137e-13
-5.99755e-12
-4.83246e-13
-5.45415e-12
-5.4277e-13
-4.85401e-12
-5.99518e-13
-4.19974e-12
-6.53626e-13
-3.49506e-12
-7.04022e-13
-2.74365e-12
-7.50744e-13
-1.95113e-12
-7.91857e-13
-1.12362e-12
-8.26846e-13
-2.67269e-13
-8.55694e-13
6.10479e-13
-8.77101e-13
1.50317e-12
-8.92039e-13
2.40306e-12
-8.99218e-13
3.30285e-12
-8.99089e-13
4.19542e-12
-8.91827e-13
5.07394e-12
-8.77758e-13
5.9324e-12
-8.5768e-13
6.76501e-12
-8.3183e-13
7.56703e-12
-8.01276e-13
8.33453e-12
-7.66794e-13
9.06402e-12
-7.28839e-13
9.75252e-12
-6.87886e-13
1.03956e-11
-6.42515e-13
1.09933e-11
-5.97169e-13
1.15443e-11
-5.50605e-13
1.20468e-11
-5.02023e-13
1.25004e-11
-4.53291e-13
1.29057e-11
-4.05029e-13
1.32622e-11
-3.56386e-13
1.35704e-11
-3.08185e-13
1.38316e-11
-2.61162e-13
1.40463e-11
-2.1487e-13
1.42163e-11
-1.70157e-13
1.43418e-11
-1.25693e-13
1.44223e-11
-8.06679e-14
1.44575e-11
-3.54424e-14
1.44458e-11
1.14643e-14
1.43818e-11
6.37986e-14
1.42645e-11
1.17075e-13
1.40897e-11
1.74541e-13
1.38532e-11
2.3629e-13
1.35498e-11
3.03116e-13
1.31749e-11
3.74736e-13
1.27245e-11
4.50154e-13
1.21952e-11
5.29077e-13
1.15847e-11
6.10323e-13
1.08932e-11
6.91392e-13
1.01169e-11
7.76265e-13
9.28388e-12
8.32949e-13
8.29516e-12
9.88663e-13
7.37821e-12
9.16844e-13
6.18623e-12
1.1918e-12
5.19377e-12
9.92194e-13
1.0132e-12
4.18024e-12
-2.44728e-13
4.3346e-13
-6.58925e-13
6.24374e-13
-1.12065e-12
7.20093e-13
-1.60598e-12
7.48506e-13
-2.08481e-12
7.43832e-13
-2.56182e-12
7.41734e-13
-3.03732e-12
7.38535e-13
-3.51153e-12
7.35871e-13
-3.98422e-12
7.32698e-13
-4.45539e-12
7.2971e-13
-4.92526e-12
7.27132e-13
-5.39446e-12
7.2526e-13
-5.86307e-12
7.23399e-13
-6.33084e-12
7.20701e-13
-6.79757e-12
7.17192e-13
-7.26266e-12
7.12249e-13
-7.72506e-12
7.05846e-13
-8.1847e-12
6.99106e-13
-8.64175e-12
6.92975e-13
-9.09572e-12
6.86333e-13
-9.54716e-12
6.79988e-13
-9.99654e-12
6.74984e-13
-1.04432e-11
6.69052e-13
-1.08875e-11
6.63779e-13
-1.13295e-11
6.5868e-13
-1.17678e-11
6.51976e-13
-1.22035e-11
6.45895e-13
-1.26355e-11
6.38656e-13
-1.30632e-11
6.30041e-13
-1.34873e-11
6.21436e-13
-1.39055e-11
6.09738e-13
-1.43178e-11
5.95861e-13
-1.47198e-11
5.7536e-13
-1.51085e-11
5.48656e-13
-1.5478e-11
5.12137e-13
-1.5822e-11
4.64411e-13
-1.61332e-11
4.03964e-13
-1.64058e-11
3.32892e-13
-1.66327e-11
2.4998e-13
-1.6808e-11
1.56871e-13
-1.69245e-11
5.09718e-14
-1.69741e-11
-6.83663e-14
-1.695e-11
-1.97594e-13
-1.68443e-11
-3.38334e-13
-1.66537e-11
-4.85576e-13
-1.63759e-11
-6.34147e-13
-1.60062e-11
-7.88635e-13
-1.55427e-11
-9.45606e-13
-1.49864e-11
-1.09787e-12
-1.43364e-11
-1.24828e-12
-1.35931e-11
-1.39572e-12
-1.27587e-11
-1.53719e-12
-1.18359e-11
-1.67233e-12
-1.08295e-11
-1.79702e-12
-9.74566e-12
-1.90952e-12
-8.59093e-12
-2.00924e-12
-7.37333e-12
-2.09351e-12
-6.10235e-12
-2.1618e-12
-4.78719e-12
-2.21312e-12
-3.43815e-12
-2.24683e-12
-2.06563e-12
-2.263e-12
-6.80116e-13
-2.26194e-12
7.07375e-13
-2.24386e-12
2.08901e-12
-2.21221e-12
3.45672e-12
-2.16779e-12
4.8021e-12
-2.11106e-12
6.11694e-12
-2.04266e-12
7.3967e-12
-1.9667e-12
8.63083e-12
-1.87578e-12
9.81599e-12
-1.78155e-12
1.09462e-11
-1.68018e-12
1.20152e-11
-1.57049e-12
1.30183e-11
-1.45598e-12
1.39499e-11
-1.33636e-12
1.48071e-11
-1.21351e-12
1.5587e-11
-1.0881e-12
1.62862e-11
-9.60589e-13
1.69035e-11
-8.3237e-13
1.7437e-11
-7.03956e-13
1.78835e-11
-5.72595e-13
1.82393e-11
-4.36806e-13
1.85012e-11
-2.9768e-13
1.86614e-11
-1.49032e-13
1.87131e-11
1.16722e-14
1.86487e-11
1.8111e-13
1.84598e-11
3.63012e-13
1.81363e-11
5.59361e-13
1.76696e-11
7.69371e-13
1.7052e-11
9.91993e-13
1.6275e-11
1.22682e-12
1.53332e-11
1.4705e-12
1.42231e-11
1.72021e-12
1.29436e-11
1.97069e-12
1.14965e-11
2.22316e-12
9.90394e-12
2.42533e-12
8.1198e-12
2.77248e-12
6.2832e-12
2.753e-12
4.28549e-12
3.18896e-12
2.54963e-12
2.72741e-12
2.06129e-12
1.50072e-12
-2.46967e-13
6.81122e-13
-7.30363e-13
1.10897e-12
-1.27494e-12
1.26575e-12
-1.83552e-12
1.31016e-12
-2.39493e-12
1.30431e-12
-2.95064e-12
1.29848e-12
-3.50508e-12
1.294e-12
-4.05878e-12
1.29058e-12
-4.61171e-12
1.28663e-12
-5.16364e-12
1.28265e-12
-5.71473e-12
1.27923e-12
-6.2655e-12
1.27706e-12
-6.81605e-12
1.27498e-12
-7.36664e-12
1.27233e-12
-7.91721e-12
1.26881e-12
-8.4674e-12
1.26348e-12
-9.01664e-12
1.25614e-12
-9.56474e-12
1.24825e-12
-1.01109e-11
1.24019e-12
-1.06554e-11
1.23181e-12
-1.11988e-11
1.22451e-12
-1.17406e-11
1.21777e-12
-1.22813e-11
1.2108e-12
-1.28208e-11
1.20433e-12
-1.33589e-11
1.19782e-12
-1.38953e-11
1.18958e-12
-1.44311e-11
1.18283e-12
-1.49652e-11
1.1739e-12
-1.54981e-11
1.16417e-12
-1.60293e-11
1.15387e-12
-1.65571e-11
1.13882e-12
-1.70811e-11
1.12117e-12
-1.7597e-11
1.09267e-12
-1.81021e-11
1.05506e-12
-1.85894e-11
1.00085e-12
-1.90538e-11
9.30168e-13
-1.94876e-11
8.3918e-13
-1.98846e-11
7.31204e-13
-2.02366e-11
6.033e-13
-2.0538e-11
4.59535e-13
-2.07792e-11
2.93433e-13
-2.09544e-11
1.08132e-13
-2.10536e-11
-9.71522e-14
-2.10698e-11
-3.21002e-13
-2.09993e-11
-5.54883e-13
-2.08363e-11
-7.96072e-13
-2.05775e-11
-1.04632e-12
-2.02206e-11
-1.30139e-12
-1.97623e-11
-1.55499e-12
-1.92019e-11
-1.80765e-12
-1.85392e-11
-2.05725e-12
-1.77759e-11
-2.29948e-12
-1.69144e-11
-2.53276e-12
-1.59588e-11
-2.75155e-12
-1.49144e-11
-2.95294e-12
-1.37877e-11
-3.13495e-12
-1.25858e-11
-3.29445e-12
-1.13177e-11
-3.42895e-12
-9.99252e-12
-3.53735e-12
-8.61979e-12
-3.6186e-12
-7.2097e-12
-3.67214e-12
-5.77272e-12
-3.69798e-12
-4.31865e-12
-3.69703e-12
-2.85798e-12
-3.67202e-12
-1.40029e-12
-3.62468e-12
4.52625e-14
-3.55586e-12
1.47097e-12
-3.46765e-12
2.86653e-12
-3.3616e-12
4.23395e-12
-3.24258e-12
5.55379e-12
-3.10082e-12
6.82294e-12
-2.94884e-12
8.03287e-12
-2.78001e-12
9.17879e-12
-2.60157e-12
1.02526e-11
-2.40992e-12
1.12493e-11
-2.21008e-12
1.21639e-11
-2.00265e-12
1.29923e-11
-1.78896e-12
1.37277e-11
-1.56781e-12
1.43675e-11
-1.34389e-12
1.4905e-11
-1.11025e-12
1.53343e-11
-8.66237e-13
1.56461e-11
-6.09704e-13
1.58361e-11
-3.39241e-13
1.58907e-11
-4.32743e-14
1.58006e-11
2.70903e-13
1.55522e-11
6.1113e-13
1.51344e-11
9.76764e-13
1.4536e-11
1.36746e-12
1.37469e-11
1.78071e-12
1.27575e-11
2.21584e-12
1.15604e-11
2.66715e-12
1.01513e-11
3.12899e-12
8.53015e-12
3.59139e-12
6.70071e-12
4.05217e-12
4.67743e-12
4.44814e-12
2.48877e-12
4.96062e-12
4.50739e-14
5.19612e-12
-2.31079e-12
5.54421e-12
-4.47139e-12
4.88735e-12
3.20772e-12
-5.61859e-12
-2.97844e-13
9.79599e-13
-7.66398e-13
1.57864e-12
-1.32676e-12
1.82712e-12
-1.90971e-12
1.89411e-12
-2.49409e-12
1.88967e-12
-3.07623e-12
1.88158e-12
-3.6572e-12
1.8759e-12
-4.23734e-12
1.87163e-12
-4.81713e-12
1.86734e-12
-5.39673e-12
1.86319e-12
-5.97642e-12
1.85989e-12
-6.55616e-12
1.8578e-12
-7.13598e-12
1.85582e-12
-7.71594e-12
1.85333e-12
-8.29573e-12
1.84967e-12
-8.87475e-12
1.84359e-12
-9.4533e-12
1.83579e-12
-1.00311e-11
1.8272e-12
-1.06076e-11
1.81784e-12
-1.11835e-11
1.80875e-12
-1.17585e-11
1.80063e-12
-1.23322e-11
1.7926e-12
-1.29055e-11
1.7852e-12
-1.34784e-11
1.77837e-12
-1.40505e-11
1.77101e-12
-1.46237e-11
1.76394e-12
-1.5197e-11
1.75719e-12
-1.57712e-11
1.74919e-12
-1.63467e-11
1.74075e-12
-1.69215e-11
1.7298e-12
-1.7496e-11
1.71442e-12
-1.80663e-11
1.69259e-12
-1.8631e-11
1.65856e-12
-1.91851e-11
1.61029e-12
-1.97241e-11
1.54109e-12
-2.02417e-11
1.44891e-12
-2.07319e-11
1.33059e-12
-2.11868e-11
1.1873e-12
-2.15989e-11
1.01664e-12
-2.19597e-11
8.21616e-13
-2.22614e-11
5.96304e-13
-2.24956e-11
3.43626e-13
-2.26546e-11
6.3041e-14
-2.27308e-11
-2.43588e-13
-2.27186e-11
-5.65868e-13
-2.26115e-11
-9.01938e-13
-2.24057e-11
-1.25102e-12
-2.2099e-11
-1.60689e-12
-2.1688e-11
-1.9649e-12
-2.11709e-11
-2.32369e-12
-2.05487e-11
-2.67829e-12
-1.98229e-11
-3.02427e-12
-1.89968e-11
-3.35791e-12
-1.80746e-11
-3.67281e-12
-1.70615e-11
-3.96516e-12
-1.5964e-11
-4.23165e-12
-1.47895e-11
-4.46818e-12
-1.35461e-11
-4.67154e-12
-1.22429e-11
-4.83986e-12
-1.08891e-11
-4.97173e-12
-9.49422e-12
-5.06642e-12
-8.06801e-12
-5.12359e-12
-6.62043e-12
-5.14406e-12
-5.16132e-12
-5.13061e-12
-3.70066e-12
-5.08484e-12
-2.24789e-12
-5.00815e-12
-8.12262e-13
-4.90282e-12
5.96823e-13
-4.77023e-12
1.97178e-12
-4.61711e-12
3.30512e-12
-4.43375e-12
4.58886e-12
-4.23219e-12
5.81313e-12
-4.00394e-12
6.97481e-12
-3.76294e-12
8.06442e-12
-3.49924e-12
9.07751e-12
-3.22292e-12
1.00081e-11
-2.93303e-12
1.08492e-11
-2.62984e-12
1.15984e-11
-2.31695e-12
1.22456e-11
-1.99098e-12
1.27816e-11
-1.64624e-12
1.32051e-11
-1.28978e-12
1.35017e-11
-9.06493e-13
1.36629e-11
-5.00578e-13
1.36796e-11
-6.02115e-14
1.35375e-11
4.12715e-13
1.3227e-11
9.21341e-13
1.27335e-11
1.46996e-12
1.20447e-11
2.0559e-12
1.11474e-11
2.6775e-12
1.00324e-11
3.33034e-12
8.69104e-12
4.00796e-12
7.11866e-12
4.70074e-12
5.31516e-12
5.39421e-12
3.28478e-12
6.08184e-12
1.02383e-12
6.70836e-12
-1.38724e-12
7.37096e-12
-3.99639e-12
7.80456e-12
-6.66435e-12
8.21147e-12
-9.13889e-12
7.3612e-12
4.64895e-12
-1.05809e-11
-3.14031e-13
1.29423e-12
-7.92083e-13
2.05778e-12
-1.34999e-12
2.386e-12
-1.93658e-12
2.48166e-12
-2.52639e-12
2.48041e-12
-3.11544e-12
2.47154e-12
-3.70382e-12
2.46517e-12
-4.29172e-12
2.46043e-12
-4.87966e-12
2.45619e-12
-5.46781e-12
2.45229e-12
-6.0563e-12
2.44936e-12
-6.64513e-12
2.44765e-12
-7.23417e-12
2.44592e-12
-7.82316e-12
2.44343e-12
-8.4119e-12
2.43955e-12
-9.00017e-12
2.43303e-12
-9.58793e-12
2.42477e-12
-1.01751e-11
2.41565e-12
-1.07616e-11
2.40559e-12
-1.13472e-11
2.39558e-12
-1.19319e-11
2.3865e-12
-1.25156e-11
2.37755e-12
-1.30985e-11
2.36931e-12
-1.36812e-11
2.3623e-12
-1.42644e-11
2.35535e-12
-1.48488e-11
2.34941e-12
-1.5435e-11
2.34453e-12
-1.60236e-11
2.33877e-12
-1.66142e-11
2.33246e-12
-1.72067e-11
2.32324e-12
-1.77989e-11
2.30762e-12
-1.83891e-11
2.28379e-12
-1.89737e-11
2.24422e-12
-1.95492e-11
2.18676e-12
-2.01103e-11
2.10324e-12
-2.06519e-11
1.99162e-12
-2.11668e-11
1.84657e-12
-2.16484e-11
1.67007e-12
-2.20872e-11
1.45662e-12
-2.2475e-11
1.21065e-12
-2.28034e-11
9.25912e-13
-2.30628e-11
6.04272e-13
-2.32468e-11
2.48337e-13
-2.33475e-11
-1.41702e-13
-2.33571e-11
-5.55036e-13
-2.32697e-11
-9.88039e-13
-2.30818e-11
-1.43779e-12
-2.27895e-11
-1.89797e-12
-2.23895e-11
-2.36378e-12
-2.1881e-11
-2.83116e-12
-2.12647e-11
-3.2935e-12
-2.05427e-11
-3.74531e-12
-1.97191e-11
-4.18069e-12
-1.87981e-11
-4.59293e-12
-1.77853e-11
-4.97728e-12
-1.66875e-11
-5.32871e-12
-1.55125e-11
-5.64259e-12
-1.4268e-11
-5.91543e-12
-1.2963e-11
-6.14443e-12
-1.16066e-11
-6.32769e-12
-1.02081e-11
-6.46454e-12
-8.77694e-12
-6.55446e-12
-7.32287e-12
-6.59785e-12
-5.85602e-12
-6.59718e-12
-4.38656e-12
-6.55403e-12
-2.92448e-12
-6.46996e-12
-1.47935e-12
-6.34766e-12
-5.98809e-14
-6.18942e-12
1.3227e-12
-5.9994e-12
2.66152e-12
-5.77228e-12
3.94636e-12
-5.51672e-12
5.1788e-12
-5.23607e-12
6.34234e-12
-4.92615e-12
7.43903e-12
-4.59559e-12
8.45646e-12
-4.24001e-12
9.39061e-12
-3.86685e-12
1.02362e-11
-3.47515e-12
1.09832e-11
-3.06363e-12
1.16284e-11
-2.63608e-12
1.2166e-11
-2.1837e-12
1.25808e-11
-1.70462e-12
1.28706e-11
-1.1964e-12
1.30204e-11
-6.50453e-13
1.30201e-11
-6.01185e-14
1.28589e-11
5.73607e-13
1.25226e-11
1.2573e-12
1.19984e-11
1.99385e-12
1.1273e-11
2.78087e-12
1.03338e-11
3.61611e-12
9.16955e-12
4.49397e-12
7.77069e-12
5.40607e-12
6.13193e-12
6.33865e-12
4.25048e-12
7.27476e-12
2.13736e-12
8.19405e-12
-2.07895e-13
9.05272e-12
-2.7526e-12
9.91483e-12
-5.45457e-12
1.05057e-11
-8.21443e-12
1.09706e-11
-1.07775e-11
9.92353e-12
6.04331e-12
-1.21726e-11
-3.19313e-13
1.61412e-12
-8.05402e-13
2.54494e-12
-1.36383e-12
2.94539e-12
-1.94854e-12
3.06732e-12
-2.53798e-12
3.07077e-12
-3.128e-12
3.06246e-12
-3.71793e-12
3.05599e-12
-4.30771e-12
3.05111e-12
-4.89773e-12
3.04714e-12
-5.48826e-12
3.0438e-12
-6.07926e-12
3.04138e-12
-6.67067e-12
3.04013e-12
-7.26238e-12
3.03876e-12
-7.85399e-12
3.0362e-12
-8.44516e-12
3.03195e-12
-9.03604e-12
3.02518e-12
-9.62664e-12
3.01668e-12
-1.02166e-11
3.0069e-12
-1.08059e-11
2.99626e-12
-1.13943e-11
2.98539e-12
-1.19813e-11
2.97481e-12
-1.25674e-11
2.96493e-12
-1.31527e-11
2.95591e-12
-1.37375e-11
2.94837e-12
-1.43235e-11
2.9425e-12
-1.4911e-11
2.93806e-12
-1.55009e-11
2.93557e-12
-1.60944e-11
2.93327e-12
-1.66907e-11
2.92974e-12
-1.729e-11
2.9235e-12
-1.78903e-11
2.90889e-12
-1.84895e-11
2.88391e-12
-1.90846e-11
2.84019e-12
-1.96712e-11
2.77434e-12
-2.02448e-11
2.67776e-12
-2.07997e-11
2.54754e-12
-2.13294e-11
2.37729e-12
-2.18255e-11
2.1673e-12
-2.22804e-11
1.9126e-12
-2.26834e-11
1.61488e-12
-2.30264e-11
1.27008e-12
-2.33005e-11
8.79626e-13
-2.34971e-11
4.46155e-13
-2.36092e-11
-2.83132e-14
-2.36297e-11
-5.33393e-13
-2.35504e-11
-1.06615e-12
-2.3367e-11
-1.61995e-12
-2.30766e-11
-2.18729e-12
-2.26758e-11
-2.76349e-12
-2.21642e-11
-3.34176e-12
-2.15429e-11
-3.91386e-12
-2.08141e-11
-4.47324e-12
-1.99818e-11
-5.01223e-12
-1.9051e-11
-5.52302e-12
-1.80274e-11
-6.00029e-12
-1.69177e-11
-6.43777e-12
-1.57301e-11
-6.82971e-12
-1.44727e-11
-7.17246e-12
-1.31541e-11
-7.46263e-12
-1.17837e-11
-7.69781e-12
-1.03708e-11
-7.8773e-12
-8.92466e-12
-8.00046e-12
-7.45514e-12
-8.06725e-12
-5.9726e-12
-8.07961e-12
-4.48739e-12
-8.0391e-12
-3.00984e-12
-7.94735e-12
-1.54985e-12
-7.80747e-12
-1.16705e-13
-7.62238e-12
1.2776e-12
-7.3935e-12
2.63027e-12
-7.12473e-12
3.92808e-12
-6.81427e-12
5.16893e-12
-6.47664e-12
6.3439e-12
-6.1008e-12
7.44461e-12
-5.69596e-12
8.46978e-12
-5.26481e-12
9.41076e-12
-4.80746e-12
1.02617e-11
-4.32577e-12
1.10193e-11
-3.82089e-12
1.16723e-11
-3.2889e-12
1.22145e-11
-2.72583e-12
1.26366e-11
-2.12673e-12
1.29302e-11
-1.49019e-12
1.30832e-11
-8.0363e-13
1.30887e-11
-6.58632e-14
1.29298e-11
7.32212e-13
1.25944e-11
1.59235e-12
1.20706e-11
2.51723e-12
1.13426e-11
3.50836e-12
1.03979e-11
4.56026e-12
9.2242e-12
5.66695e-12
7.81126e-12
6.81816e-12
6.15207e-12
7.99692e-12
4.24372e-12
9.18214e-12
2.09264e-12
1.03442e-11
-2.88298e-13
1.14328e-11
-2.8948e-12
1.25205e-11
-5.65455e-12
1.32647e-11
-8.46698e-12
1.37823e-11
-1.1055e-11
1.25109e-11
7.43246e-12
-1.24449e-11
-3.21915e-13
1.93661e-12
-8.13228e-13
3.03734e-12
-1.37267e-12
3.50581e-12
-1.95518e-12
3.6508e-12
-2.54317e-12
3.65971e-12
-3.13267e-12
3.65289e-12
-3.72254e-12
3.6468e-12
-4.31258e-12
3.64209e-12
-4.90296e-12
3.63851e-12
-5.49403e-12
3.63591e-12
-6.08575e-12
3.63418e-12
-6.67781e-12
3.63334e-12
-7.27017e-12
3.6323e-12
-7.86255e-12
3.62981e-12
-8.45444e-12
3.62512e-12
-9.04607e-12
3.61814e-12
-9.63775e-12
3.60974e-12
-1.02287e-11
3.59925e-12
-1.08187e-11
3.58764e-12
-1.14078e-11
3.57595e-12
-1.19952e-11
3.56363e-12
-1.25813e-11
3.55233e-12
-1.31668e-11
3.54272e-12
-1.37518e-11
3.53464e-12
-1.43378e-11
3.52974e-12
-1.4926e-11
3.52742e-12
-1.55169e-11
3.52754e-12
-1.61118e-11
3.52927e-12
-1.67108e-11
3.52972e-12
-1.73133e-11
3.52694e-12
-1.79187e-11
3.5152e-12
-1.85238e-11
3.48993e-12
-1.91264e-11
3.44369e-12
-1.97217e-11
3.37053e-12
-2.03057e-11
3.26269e-12
-2.08714e-11
3.11419e-12
-2.14137e-11
2.92054e-12
-2.19225e-11
2.67712e-12
-2.23902e-11
2.38135e-12
-2.28071e-11
2.03289e-12
-2.31631e-11
1.62728e-12
-2.34495e-11
1.16716e-12
-2.36586e-11
6.56332e-13
-2.37809e-11
9.51432e-14
-2.38084e-11
-5.04745e-13
-2.37348e-11
-1.13864e-12
-2.35547e-11
-1.79906e-12
-2.32642e-11
-2.47681e-12
-2.28618e-11
-3.16492e-12
-2.23466e-11
-3.85605e-12
-2.17196e-11
-4.5401e-12
-2.09831e-11
-5.20896e-12
-2.01411e-11
-5.85352e-12
-1.9199e-11
-6.46456e-12
-1.81626e-11
-7.03606e-12
-1.70389e-11
-7.56096e-12
-1.58361e-11
-8.03216e-12
-1.45624e-11
-8.4457e-12
-1.32269e-11
-8.7979e-12
-1.18388e-11
-9.08566e-12
-1.0408e-11
-9.30797e-12
-8.94426e-12
-9.46413e-12
-7.45752e-12
-9.5539e-12
-5.95811e-12
-9.57892e-12
-4.45632e-12
-9.54077e-12
-2.96258e-12
-9.44096e-12
-1.48717e-12
-9.28273e-12
-3.94455e-14
-9.06994e-12
1.37145e-12
-8.80422e-12
2.73355e-12
-8.48665e-12
4.04642e-12
-8.12693e-12
5.29582e-12
-7.72581e-12
6.47781e-12
-7.28252e-12
7.59178e-12
-6.80961e-12
8.62711e-12
-6.29981e-12
9.57741e-12
-5.75744e-12
1.04377e-11
-5.18574e-12
1.12045e-11
-4.58751e-12
1.18669e-11
-3.95122e-12
1.242e-11
-3.27897e-12
1.28544e-11
-2.56124e-12
1.31601e-11
-1.79602e-12
1.33284e-11
-9.72206e-13
1.33457e-11
-8.34628e-14
1.32009e-11
8.76668e-13
1.28799e-11
1.91297e-12
1.23684e-11
3.02828e-12
1.16515e-11
4.22476e-12
1.07152e-11
5.49593e-12
9.5466e-12
6.83487e-12
8.13479e-12
8.22919e-12
6.47106e-12
9.6598e-12
4.55163e-12
1.11007e-11
2.37618e-12
1.25188e-11
-4.64264e-14
1.38546e-11
-2.68289e-12
1.51562e-11
-5.49401e-12
1.60752e-11
-8.36747e-12
1.66552e-11
-1.10022e-11
1.5145e-11
8.85648e-12
-1.24268e-11
-3.23643e-13
2.26084e-12
-8.18397e-13
3.53321e-12
-1.37855e-12
4.06698e-12
-1.95946e-12
4.23272e-12
-2.54621e-12
4.24746e-12
-3.13497e-12
4.24264e-12
-3.7244e-12
4.23724e-12
-4.31434e-12
4.23306e-12
-4.90471e-12
4.22994e-12
-5.49574e-12
4.22805e-12
-6.08759e-12
4.22719e-12
-6.67988e-12
4.22683e-12
-7.2723e-12
4.22595e-12
-7.86488e-12
4.22366e-12
-8.45731e-12
4.21886e-12
-9.0495e-12
4.21167e-12
-9.64176e-12
4.20338e-12
-1.02334e-11
4.19234e-12
-1.08237e-11
4.17933e-12
-1.14127e-11
4.16638e-12
-1.20002e-11
4.15246e-12
-1.25858e-11
4.13933e-12
-1.31706e-11
4.12882e-12
-1.37553e-11
4.12064e-12
-1.43407e-11
4.11641e-12
-1.49285e-11
4.1164e-12
-1.55197e-11
4.11988e-12
-1.6115e-11
4.12563e-12
-1.67158e-11
4.13155e-12
-1.73208e-11
4.13297e-12
-1.79302e-11
4.12556e-12
-1.8541e-11
4.10164e-12
-1.91508e-11
4.05441e-12
-1.97549e-11
3.97553e-12
-2.03493e-11
3.85806e-12
-2.09271e-11
3.69284e-12
-2.14816e-11
3.47599e-12
-2.20044e-11
3.20085e-12
-2.2486e-11
2.86392e-12
-2.29164e-11
2.46435e-12
-2.32868e-11
1.9987e-12
-2.35863e-11
1.4676e-12
-2.38062e-11
8.77162e-13
-2.39384e-11
2.28357e-13
-2.39747e-11
-4.67535e-13
-2.39084e-11
-1.20401e-12
-2.37335e-11
-1.97303e-12
-2.34462e-11
-2.76328e-12
-2.30437e-11
-3.56665e-12
-2.25255e-11
-4.37352e-12
-2.18932e-11
-5.17177e-12
-2.11494e-11
-5.95218e-12
-2.0298e-11
-6.70431e-12
-1.93444e-11
-7.41763e-12
-1.82948e-11
-8.08511e-12
-1.71565e-11
-8.69871e-12
-1.59377e-11
-9.25057e-12
-1.4647e-11
-9.73599e-12
-1.32938e-11
-1.01507e-11
-1.18876e-11
-1.04915e-11
-1.04384e-11
-1.0757e-11
-8.95625e-12
-1.09461e-11
-7.45144e-12
-1.10585e-11
-5.93419e-12
-1.1096e-11
-4.41513e-12
-1.10596e-11
-2.90502e-12
-1.09509e-11
-1.41389e-12
-1.07737e-11
4.93669e-14
-1.0533e-11
1.46863e-12
-1.02233e-11
2.85223e-12
-9.87009e-12
4.17415e-12
-9.44869e-12
5.43881e-12
-8.99029e-12
6.63442e-12
-8.47793e-12
7.75608e-12
-7.93105e-12
8.79963e-12
-7.34315e-12
9.75928e-12
-6.71693e-12
1.06308e-11
-6.05711e-12
1.14057e-11
-5.3624e-12
1.20787e-11
-4.6243e-12
1.26428e-11
-3.84318e-12
1.30919e-11
-3.01053e-12
1.34134e-11
-2.11778e-12
1.35985e-11
-1.15766e-12
1.36343e-11
-1.19554e-13
1.35086e-11
1.00197e-12
1.32077e-11
2.21345e-12
1.27164e-11
3.51912e-12
1.20185e-11
4.92223e-12
1.1099e-11
6.41488e-12
9.94332e-12
7.99002e-12
8.53914e-12
9.63278e-12
6.87601e-12
1.13223e-11
4.94789e-12
1.30283e-11
2.75475e-12
1.47114e-11
2.93091e-13
1.63157e-11
-2.37931e-12
1.78281e-11
-5.25046e-12
1.89458e-11
-8.20448e-12
1.96086e-11
-1.09125e-11
1.78524e-11
1.03235e-11
-1.23801e-11
-3.24581e-13
2.58603e-12
-8.21475e-13
4.03126e-12
-1.38236e-12
4.62893e-12
-1.96233e-12
4.81376e-12
-2.54827e-12
4.83446e-12
-3.13648e-12
4.83191e-12
-3.72546e-12
4.8273e-12
-4.31518e-12
4.82389e-12
-4.90545e-12
4.82136e-12
-5.49629e-12
4.82007e-12
-6.08795e-12
4.82006e-12
-6.68034e-12
4.82044e-12
-7.27284e-12
4.8197e-12
-7.8655e-12
4.8176e-12
-8.45851e-12
4.81316e-12
-9.05159e-12
4.80606e-12
-9.6444e-12
4.79752e-12
-1.02366e-11
4.78583e-12
-1.08274e-11
4.77149e-12
-1.14162e-11
4.75654e-12
-1.20032e-11
4.74083e-12
-1.25886e-11
4.726e-12
-1.31723e-11
4.71391e-12
-1.37562e-11
4.70578e-12
-1.4341e-11
4.70239e-12
-1.49278e-11
4.70443e-12
-1.55189e-11
4.71215e-12
-1.61146e-11
4.72248e-12
-1.67165e-11
4.73462e-12
-1.73245e-11
4.742e-12
-1.79377e-11
4.73982e-12
-1.85545e-11
4.71946e-12
-1.91718e-11
4.67274e-12
-1.9786e-11
4.59061e-12
-2.03914e-11
4.46445e-12
-2.09828e-11
4.28511e-12
-2.15516e-11
4.04573e-12
-2.20892e-11
3.73934e-12
-2.25867e-11
3.36223e-12
-2.3033e-11
2.91153e-12
-2.34183e-11
2.38476e-12
-2.37333e-11
1.78342e-12
-2.3968e-11
1.11271e-12
-2.41131e-11
3.7412e-13
-2.41601e-11
-4.19716e-13
-2.41019e-11
-1.26151e-12
-2.3933e-11
-2.1413e-12
-2.36488e-11
-3.04674e-12
-2.32467e-11
-3.96818e-12
-2.27264e-11
-4.89321e-12
-2.20892e-11
-5.80846e-12
-2.13376e-11
-6.70324e-12
-2.04762e-11
-7.5652e-12
-1.95105e-11
-8.38284e-12
-1.84469e-11
-9.14815e-12
-1.7293e-11
-9.85211e-12
-1.60571e-11
-1.04859e-11
-1.47484e-11
-1.10442e-11
-1.33763e-11
-1.15223e-11
-1.19507e-11
-1.19167e-11
-1.04818e-11
-1.22255e-11
-8.97988e-12
-1.24476e-11
-7.45515e-12
-1.25829e-11
-5.91837e-12
-1.26324e-11
-4.38071e-12
-1.2597e-11
-2.85256e-12
-1.24787e-11
-1.34361e-12
-1.22823e-11
1.37867e-13
-1.20143e-11
1.57838e-12
-1.16636e-11
2.96555e-12
-1.12571e-11
4.30721e-12
-1.07902e-11
5.57853e-12
-1.02615e-11
6.7887e-12
-9.688e-12
7.92163e-12
-9.06391e-12
8.97212e-12
-8.39361e-12
9.94463e-12
-7.68945e-12
1.08258e-11
-6.93836e-12
1.16119e-11
-6.14858e-12
1.22967e-11
-5.30927e-12
1.2875e-11
-4.42172e-12
1.33386e-11
-3.47446e-12
1.36773e-11
-2.45681e-12
1.38799e-11
-1.36056e-12
1.39388e-11
-1.78817e-13
1.38365e-11
1.10384e-12
1.35594e-11
2.49021e-12
1.30911e-11
3.98702e-12
1.24177e-11
5.59529e-12
1.15198e-11
7.31246e-12
1.03818e-11
9.12764e-12
8.98945e-12
1.10249e-11
7.33051e-12
1.2981e-11
5.39763e-12
1.49609e-11
3.18746e-12
1.69212e-11
7.00193e-13
1.88026e-11
-2.03181e-12
2.05597e-11
-4.97583e-12
2.18893e-11
-8.03047e-12
2.26627e-11
-1.08371e-11
2.06585e-11
1.18372e-11
-1.23515e-11
-3.24667e-13
2.91134e-12
-8.22654e-13
4.53045e-12
-1.38443e-12
5.19183e-12
-1.96412e-12
5.39456e-12
-2.54966e-12
5.42111e-12
-3.13758e-12
5.42095e-12
-3.72624e-12
5.41711e-12
-4.31559e-12
5.41441e-12
-4.90563e-12
5.4126e-12
-5.49634e-12
5.412e-12
-6.08775e-12
5.4127e-12
-6.68005e-12
5.41397e-12
-7.2728e-12
5.41366e-12
-7.86582e-12
5.41184e-12
-8.45939e-12
5.40794e-12
-9.05353e-12
5.40141e-12
-9.64725e-12
5.39247e-12
-1.02398e-11
5.37958e-12
-1.08311e-11
5.36403e-12
-1.14201e-11
5.3468e-12
-1.20065e-11
5.3285e-12
-1.25912e-11
5.31196e-12
-1.31742e-11
5.2981e-12
-1.37566e-11
5.28942e-12
-1.43401e-11
5.28715e-12
-1.49259e-11
5.29148e-12
-1.55161e-11
5.30353e-12
-1.61125e-11
5.32007e-12
-1.67154e-11
5.33872e-12
-1.73263e-11
5.35406e-12
-1.79439e-11
5.35849e-12
-1.85672e-11
5.34387e-12
-1.91929e-11
5.29955e-12
-1.98182e-11
5.21689e-12
-2.04369e-11
5.08406e-12
-2.1043e-11
4.89209e-12
-2.16286e-11
4.63224e-12
-2.21841e-11
4.29563e-12
-2.26996e-11
3.87844e-12
-2.31651e-11
3.37774e-12
-2.35697e-11
2.79001e-12
-2.39031e-11
2.11744e-12
-2.4154e-11
1.36421e-12
-2.43135e-11
5.34102e-13
-2.43725e-11
-3.60155e-13
-2.43236e-11
-1.30983e-12
-2.41612e-11
-2.30315e-12
-2.38806e-11
-3.32684e-12
-2.34791e-11
-4.36918e-12
-2.29564e-11
-5.41546e-12
-2.23136e-11
-6.45081e-12
-2.15538e-11
-7.46255e-12
-2.06817e-11
-8.43684e-12
-1.97026e-11
-9.36138e-12
-1.86234e-11
-1.02267e-11
-1.74523e-11
-1.10226e-11
-1.61979e-11
-1.17397e-11
-1.48693e-11
-1.23721e-11
-1.34764e-11
-1.29146e-11
-1.20295e-11
-1.33629e-11
-1.05391e-11
-1.37154e-11
-9.01537e-12
-1.39708e-11
-7.46898e-12
-1.41288e-11
-5.91136e-12
-1.41895e-11
-4.35353e-12
-1.41543e-11
-2.80549e-12
-1.40263e-11
-1.27771e-12
-1.38098e-11
2.1463e-13
-1.35063e-11
1.67798e-12
-1.31268e-11
3.0894e-12
-1.26684e-11
4.44017e-12
-1.21409e-11
5.73001e-12
-1.15513e-11
6.94749e-12
-1.09055e-11
8.08937e-12
-1.02059e-11
9.15721e-12
-9.46156e-12
1.01378e-11
-8.67017e-12
1.10299e-11
-7.83067e-12
1.18281e-11
-6.94704e-12
1.25274e-11
-6.00884e-12
1.31212e-11
-5.01574e-12
1.3601e-11
-3.95454e-12
1.39592e-11
-2.81532e-12
1.41863e-11
-1.58797e-12
1.42679e-11
-2.60778e-13
1.4192e-11
1.17939e-12
1.39426e-11
2.73937e-12
1.35031e-11
4.4262e-12
1.28559e-11
6.24232e-12
1.19827e-11
8.18553e-12
1.08654e-11
1.02448e-11
9.48709e-12
1.24032e-11
7.83412e-12
1.4634e-11
5.89537e-12
1.68995e-11
3.6643e-12
1.91522e-11
1.14572e-12
2.13209e-11
-1.65152e-12
2.33566e-11
-4.68128e-12
2.49186e-11
-7.85829e-12
2.58392e-11
-1.07949e-11
2.35946e-11
1.34202e-11
-1.23785e-11
-3.24e-13
3.23601e-12
-8.22236e-13
5.0299e-12
-1.38505e-12
5.75577e-12
-1.96509e-12
5.97573e-12
-2.55057e-12
6.00772e-12
-3.1383e-12
6.00984e-12
-3.72675e-12
6.00673e-12
-4.31574e-12
6.00461e-12
-4.90541e-12
6.00349e-12
-5.49603e-12
6.00383e-12
-6.08735e-12
6.00522e-12
-6.67949e-12
6.00728e-12
-7.27243e-12
6.00775e-12
-7.86621e-12
6.00675e-12
-8.46061e-12
6.00345e-12
-9.05568e-12
5.99758e-12
-9.65061e-12
5.98849e-12
-1.02439e-11
5.97394e-12
-1.08354e-11
5.95671e-12
-1.14248e-11
5.93726e-12
-1.20109e-11
5.91572e-12
-1.25944e-11
5.89668e-12
-1.31763e-11
5.88115e-12
-1.37571e-11
5.87141e-12
-1.43386e-11
5.86979e-12
-1.49232e-11
5.87736e-12
-1.55121e-11
5.89363e-12
-1.61085e-11
5.91765e-12
-1.67127e-11
5.94417e-12
-1.73262e-11
5.9688e-12
-1.79487e-11
5.98216e-12
-1.8579e-11
5.97535e-12
-1.92148e-11
5.93636e-12
-1.98521e-11
5.85526e-12
-2.0486e-11
5.71881e-12
-2.1109e-11
5.51601e-12
-2.17134e-11
5.23747e-12
-2.22895e-11
4.87237e-12
-2.28266e-11
4.41627e-12
-2.33131e-11
3.86476e-12
-2.37385e-11
3.21599e-12
-2.40922e-11
2.47161e-12
-2.4362e-11
1.63438e-12
-2.4538e-11
7.10536e-13
-2.46108e-11
-2.86841e-13
-2.4573e-11
-1.34722e-12
-2.44184e-11
-2.45729e-12
-2.41421e-11
-3.60272e-12
-2.37414e-11
-4.76941e-12
-2.32161e-11
-5.94033e-12
-2.25676e-11
-7.09887e-12
-2.17991e-11
-8.23057e-12
-2.09151e-11
-9.32037e-12
-1.99212e-11
-1.03546e-11
-1.88251e-11
-1.13222e-11
-1.7635e-11
-1.2212e-11
-1.63598e-11
-1.30142e-11
-1.50093e-11
-1.37219e-11
-1.35937e-11
-1.43294e-11
-1.21234e-11
-1.48325e-11
-1.06089e-11
-1.52291e-11
-9.0612e-12
-1.55179e-11
-7.4914e-12
-1.56979e-11
-5.91083e-12
-1.57695e-11
-4.33038e-12
-1.57342e-11
-2.76047e-12
-1.55958e-11
-1.21126e-12
-1.53586e-11
3.09331e-13
-1.50266e-11
1.78415e-12
-1.46013e-11
3.20813e-12
-1.40922e-11
4.57938e-12
-1.3512e-11
5.88355e-12
-1.28554e-11
7.11691e-12
-1.21389e-11
8.27375e-12
-1.13628e-11
9.34989e-12
-1.05379e-11
1.03415e-11
-9.66199e-12
1.12464e-11
-8.73579e-12
1.2058e-11
-7.7589e-12
1.27724e-11
-6.7235e-12
1.33836e-11
-5.62706e-12
1.3884e-11
-4.45512e-12
1.4266e-11
-3.19759e-12
1.45164e-11
-1.83851e-12
1.46268e-11
-3.71443e-13
1.45829e-11
1.22307e-12
1.43657e-11
2.95635e-12
1.3958e-11
4.83372e-12
1.33429e-11
6.85734e-12
1.24985e-11
9.02997e-12
1.14056e-11
1.13379e-11
1.00446e-11
1.37643e-11
8.39933e-12
1.62793e-11
6.45582e-12
1.88431e-11
4.20538e-12
2.14025e-11
1.64485e-12
2.38812e-11
-1.2199e-12
2.62209e-11
-4.34751e-12
2.80457e-11
-7.6649e-12
2.9156e-11
-1.07587e-11
2.66877e-11
1.50967e-11
-1.24359e-11
-3.22803e-13
3.55949e-12
-8.20701e-13
5.529e-12
-1.38455e-12
6.32072e-12
-1.96539e-12
6.55768e-12
-2.55108e-12
6.59454e-12
-3.13867e-12
6.59857e-12
-3.72696e-12
6.59619e-12
-4.31577e-12
6.5946e-12
-4.90511e-12
6.59402e-12
-5.4955e-12
6.59538e-12
-6.0868e-12
6.59766e-12
-6.67892e-12
6.6005e-12
-7.27201e-12
6.60189e-12
-7.86669e-12
6.60245e-12
-8.46239e-12
6.60013e-12
-9.05847e-12
6.59464e-12
-9.65446e-12
6.58546e-12
-1.02489e-11
6.56939e-12
-1.0841e-11
6.54977e-12
-1.14304e-11
6.52759e-12
-1.20164e-11
6.50276e-12
-1.25988e-11
6.48019e-12
-1.3179e-11
6.46237e-12
-1.3758e-11
6.45155e-12
-1.4337e-11
6.4499e-12
-1.49194e-11
6.46095e-12
-1.5507e-11
6.48244e-12
-1.61024e-11
6.51421e-12
-1.67077e-11
6.55075e-12
-1.73237e-11
6.58604e-12
-1.79515e-11
6.61105e-12
-1.85894e-11
6.61438e-12
-1.92359e-11
6.58397e-12
-1.98871e-11
6.50741e-12
-2.05374e-11
6.37007e-12
-2.11799e-11
6.15933e-12
-2.18058e-11
5.8641e-12
-2.24047e-11
5.47191e-12
-2.29657e-11
4.97791e-12
-2.34767e-11
4.37622e-12
-2.39262e-11
3.66594e-12
-2.43023e-11
2.8482e-12
-2.45928e-11
1.92523e-12
-2.47876e-11
9.05729e-13
-2.48765e-11
-1.97541e-13
-2.48511e-11
-1.37212e-12
-2.47053e-11
-2.60268e-12
-2.44338e-11
-3.87375e-12
-2.40344e-11
-5.1684e-12
-2.35066e-11
-6.46763e-12
-2.28517e-11
-7.75329e-12
-2.20731e-11
-9.00872e-12
-2.11757e-11
-1.02172e-11
-2.01656e-11
-1.13641e-11
-1.90503e-11
-1.24368e-11
-1.78388e-11
-1.34228e-11
-1.65405e-11
-1.43117e-11
-1.51654e-11
-1.50961e-11
-1.37239e-11
-1.57701e-11
-1.22265e-11
-1.63291e-11
-1.06845e-11
-1.67704e-11
-9.10922e-12
-1.70924e-11
-7.51168e-12
-1.72948e-11
-5.90328e-12
-1.73773e-11
-4.29562e-12
-1.73413e-11
-2.69993e-12
-1.7191e-11
-1.12679e-12
-1.69313e-11
4.12387e-13
-1.65654e-11
1.9114e-12
-1.61e-11
3.3587e-12