/*--------------------------------*- C++ -*----------------------------------*\
| =========                 |                                                 |
| \\      /  F ield         | OpenFOAM: The Open Source CFD Toolbox           |
|  \\    /   O peration     | Version:  2.4.0                                 |
|   \\  /    A nd           | Web:      www.OpenFOAM.org                      |
|    \\/     M anipulation  |                                                 |
\*---------------------------------------------------------------------------*/
FoamFile
{
    version     2.0;
    format      ascii;
    class       volScalarField;
    location    "0.004";
    object      p;
}
// * * * * * * * * * * * * * * * * * * * * * * * * * * * * * * * * * * * * * //

dimensions      [1 -1 -2 0 0 0 0];

internalField   nonuniform List<scalar> 
3600
(
251.114
252.067
253.789
256.133
258.986
262.237
265.781
269.514
273.337
277.162
280.915
284.538
287.991
291.236
294.243
296.985
299.444
301.607
303.472
305.044
306.341
307.388
308.215
308.851
309.327
309.671
309.909
310.063
310.151
310.189
242.937
243.888
245.606
247.946
250.794
254.041
257.581
261.312
265.134
268.959
272.714
276.342
279.802
283.058
286.081
288.845
291.333
293.53
295.431
297.041
298.374
299.454
300.307
300.966
301.46
301.817
302.065
302.225
302.317
302.356
234.731
235.679
237.39
239.721
242.559
245.797
249.33
253.055
256.875
260.702
264.461
268.097
271.57
274.848
277.903
280.712
283.256
285.521
287.498
289.185
290.592
291.739
292.651
293.358
293.889
294.275
294.543
294.716
294.815
294.858
226.498
227.44
229.14
231.458
234.281
237.506
241.028
244.745
248.56
252.388
256.153
259.801
263.293
266.601
269.701
272.576
275.203
277.569
279.66
281.467
282.992
284.248
285.254
286.039
286.632
287.064
287.365
287.559
287.671
287.719
218.238
219.171
220.857
223.157
225.961
229.167
232.673
236.379
240.189
244.016
247.788
251.45
254.965
258.309
261.466
264.421
267.154
269.652
271.897
273.871
275.565
276.977
278.123
279.024
279.71
280.213
280.563
280.791
280.921
280.978
209.949
210.872
212.54
214.817
217.597
220.779
224.266
227.958
231.76
235.587
239.365
243.041
246.58
249.961
253.177
256.221
259.079
261.738
264.176
266.367
268.288
269.921
271.264
272.334
273.156
273.761
274.184
274.459
274.618
274.686
201.634
202.544
204.191
206.44
209.19
212.344
215.806
219.48
223.273
227.098
230.881
234.569
238.129
241.545
244.818
247.952
250.944
253.783
256.449
258.909
261.124
263.057
264.678
265.989
267.006
267.759
268.288
268.632
268.83
268.915
193.291
194.187
195.808
198.026
200.741
203.86
207.293
210.946
214.726
218.547
222.335
226.032
229.606
233.046
236.363
239.574
242.698
245.721
248.64
251.418
254.003
256.332
258.345
260.002
261.303
262.272
262.951
263.392
263.646
263.755
184.922
185.801
187.394
189.574
192.248
195.328
198.726
202.353
206.118
209.934
213.723
217.426
221.006
224.454
227.788
231.044
234.267
237.466
240.641
243.772
246.799
249.64
252.195
254.36
256.084
257.368
258.257
258.827
259.159
259.3
176.527
177.388
178.947
181.086
183.713
186.747
190.104
193.701
197.447
201.256
205.045
208.749
212.325
215.76
219.075
222.322
225.575
228.905
232.294
235.775
239.301
242.773
246.054
248.977
251.355
253.113
254.269
254.985
255.432
255.611
168.107
168.946
170.469
172.561
175.135
178.117
181.428
184.989
188.713
192.512
196.3
200.002
203.563
206.961
210.212
213.372
216.539
219.834
223.37
227.106
231.119
235.315
239.534
243.541
247.004
249.52
250.888
251.664
252.389
252.577
159.661
160.478
161.961
164
166.516
169.438
172.696
176.215
179.912
183.701
187.487
191.186
194.725
198.062
201.197
204.176
207.105
210.145
213.501
217.342
221.61
226.434
231.638
237.153
242.462
246.597
247.391
247.657
250.064
249.632
151.192
151.983
153.422
155.403
157.854
160.71
163.907
167.378
171.045
174.82
178.607
182.306
185.822
189.084
192.054
194.745
197.238
199.696
202.367
205.639
209.92
215.359
221.9
229.411
236.696
243.695
239.881
240.621
250.585
245.401
142.699
143.463
144.854
146.772
149.151
151.932
155.062
158.477
162.107
165.868
169.66
173.368
176.872
180.062
182.844
185.164
187.015
188.471
189.681
190.915
192.511
194.619
196.823
202.916
214.516
228.017
208.839
224.491
249.121
236.489
134.183
134.919
136.257
138.106
140.406
143.106
146.158
149.509
153.097
156.843
160.645
164.379
167.897
171.043
173.653
175.565
176.628
176.712
175.617
173.362
169.775
165.277
158.533
152.024
147.252
150.488
139.56
183.279
205.144
209.88
125.646
126.35
127.632
129.407
131.622
134.231
137.196
140.474
144.012
147.739
151.56
155.342
158.918
162.088
164.613
166.207
166.532
165.298
161.667
154.974
139.801
121.747
57.6681
-26.7407
-70.6211
-11.1401
16.2336
72.6997
97.7614
116.244
117.088
117.759
118.981
120.676
122.797
125.307
128.176
131.37
134.848
138.552
142.398
146.256
149.948
153.252
155.868
157.369
157.018
154.08
146.111
129.636
103.464
46.7027
-48.6025
-144.831
-330.006
-239.621
-239.751
-220.199
-178.866
-159.874
108.51
109.145
110.304
111.914
113.934
116.336
119.096
122.193
125.6
129.274
133.148
137.11
140.99
144.585
147.61
149.707
150.096
149.159
141.505
135.782
102.936
88.8857
14.5981
-69.6357
-148.531
-206.873
-192.269
-260.238
-191.933
-156.68
99.9131
100.511
101.602
103.121
105.033
107.316
109.956
112.944
116.264
119.896
123.795
127.88
132.018
136.058
139.799
143.035
145.318
147.038
146.718
147.823
146.265
149.103
146.966
154.793
150.628
120.326
122.095
149.495
251.086
359.778
91.2984
91.8575
92.8775
94.3002
96.0962
98.2503
100.757
103.618
106.835
110.407
114.318
118.528
122.96
127.531
132.139
136.72
141.179
145.772
150.591
156.84
162.504
167.798
180.645
199.107
129.044
213.464
199.132
204.42
263.003
355.642
82.6672
83.1856
84.1309
85.4516
87.124
89.1389
91.4991
94.216
97.307
100.793
104.691
109.006
113.72
118.826
124.323
130.241
136.641
143.626
150.667
161.645
160.651
188.63
165.194
204.83
184.296
189.207
127.035
89.2047
123.665
166.045
74.0206
74.4968
75.3639
76.5773
78.1185
79.9836
82.1823
84.7357
87.675
91.0434
94.8869
99.2605
104.196
109.778
116.056
123.095
130.959
139.532
148.437
157.396
164.482
171.619
177.502
177.689
181.396
189.466
194.435
203.388
212.842
221.246
65.3599
65.7923
66.5781
67.6791
69.0816
70.7864
72.8086
75.1771
77.9349
81.1441
84.8777
89.2264
94.2972
100.229
107.087
114.974
124.004
134.081
144.697
155.082
164.971
174.626
181.758
191.184
194.677
200.083
204.04
204.859
212.62
217.382
56.6864
57.0738
57.7751
58.7588
60.0156
61.5495
63.3798
65.541
68.0843
71.0856
74.6383
78.8604
83.9392
90.0378
97.2185
105.625
115.379
126.364
136.975
149.673
162.182
173.36
182.265
188.879
193.604
196.66
198.275
200.07
201.936
203.094
48.0014
48.3428
48.9567
49.8186
50.9229
52.2759
53.8992
55.8301
58.1237
60.8636
64.1509
68.134
73.0568
79.1068
86.3
94.879
105.368
121.146
139.434
152.517
161.96
170.753
178.971
185.237
189.055
191.71
193.179
194.862
195.643
196.165
39.3062
39.6007
40.1245
40.8605
41.8059
42.9683
44.3698
46.0475
48.0559
50.4788
53.4083
57.0295
61.6112
67.3795
74.1402
81.9369
89.3376
96.6351
102.425
118.095
139.758
159.659
171.029
176.691
181.007
185.418
186.804
191.866
192.537
193.58
30.6057
30.853
31.2853
31.8927
32.6749
33.6395
34.8073
36.2124
37.9039
39.9574
42.4361
45.5696
49.6351
54.9554
61.0325
69.1622
80.0641
112.074
142.023
147.942
133.344
118.137
131.282
147.147
156.067
170.072
170.93
185.011
182.042
184.039
21.7633
21.9499
22.261
22.7085
23.2906
24.0161
24.9054
25.9884
27.3063
28.9162
30.8273
33.3329
36.7129
41.3943
45.3924
48.1786
35.928
39.0909
5.833
36.3036
89.8961
122.477
133.02
144.551
133.109
126.754
115.466
130.084
118.864
121.976
13.4439
13.611
13.9063
14.2887
14.7737
15.3618
16.0638
16.8998
17.899
19.0864
20.3674
22.1263
24.6614
28.7246
30.0995
32.5501
29.7471
114.544
208.079
142.788
1.66885
-111.925
-183.012
-159.455
-111.496
-31.1372
-40.1186
-8.26088
-1.48685
9.54448
4.2165
4.33158
4.41654
4.61061
4.87962
5.23169
5.67885
6.23473
6.91919
7.69188
8.32138
9.43003
11.5983
21.7746
39.9879
41.6973
-63.109
42.2688
-245.071
-155.78
-46.3068
-205.314
-356.672
-28.7574
-21.0318
-31.9692
-24.9789
-19.9407
-15.2632
-12.8339
310.19
310.152
310.064
309.911
309.673
309.33
308.854
308.219
307.393
306.347
305.051
303.479
301.616
299.453
296.995
294.254
291.248
288.003
284.551
280.928
277.175
273.349
269.525
265.792
262.246
258.994
256.14
253.795
252.073
251.118
302.356
302.317
302.226
302.067
301.82
301.462
300.969
300.312
299.459
298.38
297.048
295.439
293.539
291.342
288.856
286.093
283.07
279.814
276.355
272.727
268.972
265.146
261.323
257.592
254.05
250.802
247.953
245.612
243.894
242.941
294.858
294.816
294.717
294.544
294.277
293.892
293.361
292.655
291.744
290.598
289.192
287.505
285.53
283.266
280.723
277.914
274.86
271.583
268.111
264.474
260.714
256.887
253.067
249.341
245.806
242.567
239.728
237.396
235.684
234.736
287.72
287.672
287.561
287.366
287.066
286.635
286.042
285.258
284.253
282.999
281.474
279.668
277.578
275.214
272.587
269.713
266.614
263.307
259.815
256.166
252.401
248.573
244.756
241.038
237.515
234.29
231.465
229.146
227.445
226.503
280.978
280.922
280.792
280.565
280.215
279.713
279.028
278.127
276.983
275.571
273.878
271.905
269.662
267.165
264.433
261.478
258.322
254.979
251.464
247.802
244.03
240.202
236.391
232.683
229.176
225.969
223.164
220.863
219.176
218.242
274.686
274.618
274.46
274.186
273.763
273.159
272.338
271.269
269.927
268.295
266.375
264.185
261.748
259.091
256.233
253.19
249.975
246.594
243.055
239.379
235.6
231.773
227.97
224.276
220.789
217.605
214.824
212.546
210.877
209.954
268.916
268.831
268.633
268.29
267.762
267.01
265.994
264.684
263.063
261.132
258.918
256.459
253.794
250.956
247.965
244.831
241.559
238.143
234.584
230.895
227.111
223.286
219.492
215.816
212.353
209.198
206.447
204.196
202.549
201.638
263.755
263.647
263.393
262.953
262.275
261.307
260.007
258.351
256.339
254.011
251.427
248.651
245.733
242.711
239.588
236.377
233.061
229.621
226.047
222.349
218.561
214.739
210.957
207.303
203.869
200.748
198.033
195.814
194.192
193.295
259.3
259.16
258.829
258.259
257.372
256.088
254.366
252.201
249.648
246.809
243.782
240.653
237.479
234.281
231.059
227.804
224.47
221.022
217.442
213.738
209.948
206.131
202.365
198.736
195.337
192.256
189.581
187.399
185.806
184.926
255.612
255.433
254.987
254.272
253.117
251.36
248.983
246.062
242.782
239.311
235.787
232.307
228.919
225.59
222.338
219.092
215.778
212.342
208.766
205.061
201.271
197.461
193.713
190.115
186.755
183.721
181.092
178.953
177.392
176.531
252.577
252.39
251.667
250.891
249.525
247.01
243.548
239.542
235.325
231.13
227.119
223.384
219.85
216.556
213.39
210.23
206.98
203.581
200.019
196.317
192.527
188.726
185
181.438
178.125
175.143
172.567
170.475
168.951
168.111
249.633
250.065
247.66
247.396
246.603
242.469
237.161
231.647
226.444
221.623
217.357
213.517
210.163
207.124
204.196
201.217
198.082
194.744
191.204
187.504
183.716
179.926
176.226
172.706
169.446
166.523
164.006
161.966
160.483
159.665
245.402
250.585
240.623
239.888
243.703
236.704
229.421
221.911
215.372
209.935
205.655
202.386
199.715
197.259
194.767
192.076
189.106
185.843
182.325
178.625
174.835
171.058
167.39
163.917
160.718
157.861
155.409
153.427
151.988
151.196
236.492
249.118
224.491
208.845
228.027
214.525
202.928
196.836
194.633
192.528
190.934
189.702
188.494
187.039
185.188
182.869
180.085
176.894
173.388
169.678
165.884
162.121
158.488
155.071
151.941
149.157
146.777
144.858
143.468
142.703
209.88
205.15
183.288
139.564
150.504
147.261
152.033
158.545
165.294
169.796
173.384
175.641
176.738
176.655
175.592
173.679
171.068
167.921
164.4
160.663
156.859
153.111
149.521
146.168
143.114
140.413
138.112
136.261
134.923
134.187
116.238
97.7729
72.713
16.2374
-11.1082
-70.5765
-26.6795
57.7051
121.771
139.829
155
161.695
165.328
166.562
166.238
164.643
162.116
158.943
155.364
151.579
147.755
144.026
140.486
137.206
134.239
131.628
129.413
127.636
126.354
125.65
-159.878
-178.86
-220.185
-239.726
-239.573
-329.974
-144.795
-48.5541
46.733
103.506
129.662
146.145
154.114
157.053
157.404
155.901
153.282
149.975
146.279
142.417
138.568
134.861
131.381
128.185
125.315
122.803
120.681
118.985
117.762
117.091
-156.707
-191.979
-260.285
-192.285
-206.874
-148.531
-69.6293
14.6328
88.9165
102.98
135.82
141.549
149.199
150.137
149.746
147.646
144.618
141.018
137.133
133.168
129.29
125.613
122.204
119.105
116.343
113.94
111.919
110.308
109.149
108.513
359.748
251.03
149.462
122.101
120.354
150.653
154.824
147.012
149.148
146.316
147.874
146.771
147.089
145.366
143.08
139.839
136.093
132.047
127.904
123.815
119.912
116.277
112.954
109.965
107.323
105.039
103.126
101.606
100.514
99.9158
355.619
262.969
204.418
199.169
213.524
129.098
199.148
180.703
167.863
162.57
156.907
150.656
145.833
141.236
136.771
132.183
127.568
122.99
118.552
114.337
110.422
106.847
103.628
100.765
98.2567
96.1014
94.3044
92.8809
91.8605
91.301
166.034
123.632
89.2
127.082
189.264
184.34
204.888
165.255
188.71
160.725
161.731
150.743
143.699
136.707
130.299
124.371
118.864
113.75
109.029
104.709
100.808
97.3188
94.2253
91.5066
89.1449
87.1288
85.4555
84.1341
83.1884
82.6696
221.253
212.864
203.423
194.482
189.526
181.466
177.775
177.586
171.716
164.583
157.496
148.531
139.617
131.035
123.16
116.107
109.817
104.225
99.2831
94.9047
91.0574
87.6861
84.7444
82.1893
79.9892
78.1229
76.5809
75.3668
74.4993
74.0227
217.388
212.637
204.897
204.089
200.154
194.764
191.285
181.871
174.747
165.093
155.198
144.807
134.18
124.091
115.046
107.141
100.267
94.3247
89.2473
84.8943
81.1571
77.9451
75.1851
72.8149
70.7915
69.0857
67.6823
66.5807
65.7946
65.3618
203.104
201.961
200.118
198.347
196.758
193.725
189.02
182.418
173.515
162.331
149.802
137.069
126.474
115.477
105.705
97.2731
90.073
83.9633
78.879
74.6532
71.0974
68.0935
65.5483
63.3855
61.554
60.0192
58.7617
57.7774
57.0758
56.688
196.182
195.665
194.918
193.269
191.843
189.225
185.433
179.174
170.952
162.157
152.745
139.691
121.318
105.483
94.9667
86.3515
79.1352
73.0757
68.1496
64.164
60.8742
58.1318
55.8365
53.9042
52.2799
50.926
49.8211
48.9587
48.3445
48.0028
193.621
192.529
191.939
186.916
185.605
181.251
176.954
171.245
159.855
139.89
118.097
102.349
96.7007
89.4367
82.0328
74.1812
67.3958
61.6225
57.0419
53.4196
50.4879
48.0629
46.053
44.374
42.9717
41.8085
40.8626
40.1262
39.6021
39.3074
184.111
181.927
185.106
171.081
170.317
156.472
147.527
131.537
118.361
133.555
148.444
142.758
112.478
80.2638
69.2938
61.0505
54.9526
49.6367
45.5788
42.4458
39.9652
37.9096
36.2169
34.8107
33.6422
32.677
31.8944
31.2867
30.8541
30.6066
121.94
118.609
129.992
115.647
126.672
133.218
144.591
133.09
122.797
89.903
35.542
4.86463
39.3813
35.8663
48.2564
45.3421
41.3618
36.7024
33.3394
30.8353
28.9221
27.3102
25.9915
24.9077
24.0181
23.2921
22.7098
22.262
21.9507
21.7639
9.60729
-1.50652
-8.5026
-39.3174
-29.1068
-109.105
-158.305
-183.594
-112.528
1.2918
143.317
209.636
114.169
29.8824
32.8684
30.1009
28.6826
24.6444
22.1346
20.376
19.0921
17.9018
16.9023
16.0657
15.3633
14.7748
14.2895
13.9069
13.6116
13.4444
-12.9358
-15.5745
-20.346
-25.2755
-31.9066
-20.1687
-29.3166
-362.009
-202.997
-44.6489
-159.951
-243.316
44.2905
-62.8298
41.4953
39.2399
21.4747
11.5508
9.44166
8.33109
7.6964
6.91996
6.23557
5.67928
5.23234
4.88001
4.61092
4.41665
4.3317
4.21654
-0.16219
-0.144929
-0.104178
-0.0672181
-0.0148743
0.0545212
0.147587
0.274749
0.479252
0.775343
0.405114
-0.302868
-1.23796
4.23789
3.59227
-15.8306
-67.8237
113.903
40.0844
-71.448
-103.252
81.0672
-33.4048
-2.83523
-1.09972
2.20127
1.37526
-1.45543
-3.50084
-4.84953
-0.250415
-0.245751
-0.229212
-0.218385
-0.200162
-0.173325
-0.13222
-0.0675327
0.0611916
0.231981
-0.232071
-0.947298
-1.68128
6.02028
20.9003
-0.661796
-71.7202
95.2691
65.0944
-39.3541
-100.215
111.127
-5.16338
-2.28058
-0.315846
-0.62762
-0.571045
-0.448149
-2.5373
-3.89717
-0.250697
-0.246804
-0.232883
-0.224376
-0.210244
-0.189949
-0.158508
-0.106997
0.0117403
0.214935
-0.0739256
-0.529902
-2.05218
2.59787
17.7178
-7.57567
-71.9034
57.2098
80.9255
-36.1177
-76.3839
147.235
-18.1884
-2.29211
-0.896301
-0.805448
-0.654914
-0.843589
-2.04496
-2.94044
-0.251831
-0.247788
-0.233962
-0.225472
-0.211372
-0.19112
-0.159732
-0.108245
0.00849093
0.224988
-0.141228
-0.405046
0.201324
0.838946
2.60053
-24.694
-63.0575
33.8992
66.2564
-98.7495
-67.7162
137.532
0.20766
-2.48019
-1.186
-0.76609
-0.614164
-0.753893
-1.58528
-2.31153
-0.252862
-0.248826
-0.235121
-0.226641
-0.212559
-0.19233
-0.16098
-0.109619
0.00339943
0.212234
-0.192518
-0.689581
-0.681508
-0.58448
-0.641193
-9.2158
-36.0373
7.4356
19.9583
-149.268
-58.6128
151.36
154.251
-3.02973
-1.44792
-0.802393
-0.665751
-0.842203
-1.38983
-1.78814
-0.253927
-0.249919
-0.2364
-0.227936
-0.213879
-0.193685
-0.162413
-0.111337
-0.00414368
0.194364
-0.20873
-0.695256
-0.682289
-0.539403
-0.258969
-0.106878
-3.47395
-1.49374
-5.24389
-146.049
-30.6116
125.46
40.7737
-3.72483
-1.45353
-0.872345
-0.718664
-0.832736
-1.1777
-1.45013
-0.255077
-0.251093
-0.237798
-0.229357
-0.215337
-0.195199
-0.164059
-0.113441
-0.0132538
0.17234
-0.217989
-0.691114
-0.683949
-0.532337
-0.274355
0.00297784
0.115428
-1.36716
-1.86058
-67.8804
-1.9879
92.6825
-6.2724
-3.83979
-1.43733
-0.93614
-0.786756
-0.862564
-1.06946
-1.20853
-0.25633
-0.25237
-0.239313
-0.230902
-0.216933
-0.196873
-0.165927
-0.115958
-0.0231725
0.147991
-0.224061
-0.677457
-0.675626
-0.529257
-0.276492
0.0924926
0.242718
-0.521086
-0.733525
-4.4992
8.33518
23.7441
-0.718046
-3.57415
-1.4593
-0.994392
-0.836876
-0.867087
-0.981892
-1.05698
-0.257694
-0.25376
-0.240955
-0.232582
-0.218676
-0.19872
-0.168035
-0.118927
-0.0335681
0.12253
-0.226954
-0.656291
-0.659924
-0.521497
-0.27846
0.0481392
0.15885
-0.695606
-0.987485
-1.50326
0.199986
0.686962
-1.24547
-2.65531
-1.45553
-1.02676
-0.879609
-0.878076
-0.931106
-0.960986
-0.259175
-0.255273
-0.242736
-0.23441
-0.220584
-0.200762
-0.170414
-0.122395
-0.0443643
0.096576
-0.227413
-0.62991
-0.638223
-0.509098
-0.280961
0.0130036
0.0912087
-0.634209
-0.908345
-0.717532
0.106365
-0.176058
-1.06892
-1.81391
-1.35972
-1.00539
-0.891631
-0.87696
-0.894263
-0.901622
-0.260785
-0.25692
-0.244669
-0.2364
-0.222674
-0.203022
-0.173095
-0.126406
-0.0555539
0.0704192
-0.227027
-0.60071
-0.612986
-0.492766
-0.285257
-0.0296004
0.0238812
-0.578712
-0.826918
-0.732343
0.0376097
-0.215298
-0.896713
-1.73879
-1.29203
-1.00069
-0.901461
-0.868007
-0.865725
-0.860845
-0.262535
-0.258712
-0.246766
-0.238568
-0.224964
-0.205524
-0.176112
-0.130999
-0.0671297
0.0442252
-0.226748
-0.570859
-0.586407
-0.476479
-0.290288
-0.075039
-0.0418033
-0.524953
-0.740876
-0.649801
-0.0656233
-0.292026
-0.813779
-1.27034
-1.16091
-0.964837
-0.888406
-0.852341
-0.840054
-0.828778
-0.264437
-0.260664
-0.249043
-0.240929
-0.227476
-0.208296
-0.179502
-0.136208
-0.0790792
0.018144
-0.227097
-0.541524
-0.559772
-0.460803
-0.296272
-0.118768
-0.0996572
-0.477581
-0.662009
-0.603927
-0.221726
-0.377954
-0.749189
-1.10516
-1.04934
-0.925305
-0.861421
-0.829946
-0.812355
-0.797945
-0.266505
-0.262789
-0.251516
-0.243503
-0.230233
-0.211367
-0.183301
-0.142059
-0.0913901
-0.0076733
-0.228266
-0.513249
-0.533755
-0.446037
-0.302901
-0.159137
-0.14932
-0.440435
-0.596377
-0.562216
-0.310591
-0.426582
-0.703369
-0.935425
-0.941566
-0.890412
-0.842515
-0.80366
-0.780586
-0.761381
-0.268753
-0.265104
-0.254202
-0.24631
-0.233261
-0.214771
-0.187551
-0.148575
-0.104052
-0.0330944
-0.230279
-0.486338
-0.508714
-0.432346
-0.309807
-0.195367
-0.191895
-0.41351
-0.544058
-0.524844
-0.380611
-0.455092
-0.65491
-0.817045
-0.85502
-0.835043
-0.80524
-0.780803
-0.767894
-0.742085
-0.271199
-0.267625
-0.257122
-0.249373
-0.236587
-0.218543
-0.192292
-0.155774
-0.117054
-0.0581157
-0.232995
-0.461032
-0.484887
-0.419738
-0.316646
-0.227194
-0.228191
-0.394982
-0.501672
-0.493536
-0.427934
-0.464467
-0.605273
-0.722917
-0.77064
-0.755516
-0.725976
-0.725528
-0.748196
-0.72122
-0.27386
-0.270373
-0.260295
-0.252716
-0.240242
-0.222721
-0.197567
-0.163675
-0.130378
-0.0828206
-0.23617
-0.437563
-0.462491
-0.408213
-0.323116
-0.254546
-0.258825
-0.382738
-0.467816
-0.471164
-0.452956
-0.468732
-0.56574
-0.653621
-0.690724
-0.689276
-0.664492
-0.659794
-0.681251
-0.675769
-0.276754
-0.273367
-0.263746
-0.256366
-0.24426
-0.227347
-0.203422
-0.172296
-0.144
-0.106754
-0.240162
-0.416144
-0.44172
-0.39776
-0.329026
-0.277298
-0.284409
-0.375052
-0.442088
-0.455136
-0.462744
-0.46649
-0.540065
-0.60473
-0.638205
-0.648326
-0.645586
-0.655473
-0.661968
-0.651322
-0.279903
-0.276631
-0.2675
-0.260353
-0.248678
-0.232463
-0.209902
-0.181642
-0.157904
-0.129836
-0.244923
-0.39696
-0.422746
-0.388349
-0.334177
-0.296007
-0.300958
-0.370288
-0.42355
-0.442207
-0.461806
-0.466319
-0.519553
-0.565659
-0.596436
-0.606165
-0.609703
-0.612926
-0.613713
-0.618104
-0.283329
-0.280189
-0.271583
-0.264711
-0.253536
-0.238117
-0.217056
-0.191709
-0.17208
-0.151988
-0.250421
-0.380159
-0.405706
-0.379947
-0.338506
-0.311179
-0.317589
-0.367873
-0.410275
-0.431907
-0.454633
-0.46566
-0.504069
-0.537599
-0.557663
-0.570709
-0.578286
-0.576131
-0.570644
-0.568627
-0.287056
-0.284068
-0.276026
-0.269474
-0.258876
-0.244357
-0.224929
-0.20249
-0.186528
-0.173222
-0.256557
-0.365844
-0.390695
-0.372515
-0.342037
-0.323147
-0.330323
-0.366915
-0.400755
-0.423102
-0.444831
-0.460145
-0.486806
-0.511439
-0.527457
-0.539426
-0.548753
-0.555697
-0.560023
-0.56112
-0.291112
-0.288297
-0.280862
-0.274681
-0.264745
-0.251234
-0.233559
-0.213979
-0.201251
-0.193509
-0.263309
-0.354067
-0.377767
-0.365999
-0.344417
-0.33227
-0.3397
-0.366641
-0.39377
-0.414912
-0.43485
-0.45107
-0.471541
-0.488847
-0.502748
-0.511636
-0.516704
-0.517223
-0.514172
-0.509062
-0.295525
-0.292907
-0.286126
-0.280373
-0.271191
-0.258801
-0.242986
-0.226176
-0.216258
-0.212872
-0.270645
-0.344832
-0.366938
-0.360367
-0.345972
-0.338934
-0.346237
-0.366476
-0.388262
-0.40729
-0.42477
-0.440623
-0.455953
-0.469851
-0.480306
-0.486436
-0.492475
-0.49746
-0.501435
-0.503796
-0.300324
-0.297934
-0.291854
-0.286597
-0.278265
-0.267115
-0.253244
-0.239086
-0.231571
-0.231401
-0.278511
-0.338081
-0.358177
-0.35559
-0.346807
-0.3435
-0.350432
-0.365989
-0.383522
-0.399932
-0.415123
-0.428837
-0.441388
-0.452025
-0.46036
-0.467033
-0.470208
-0.472112
-0.472322
-0.471915
-0.305544
-0.303413
-0.298088
-0.293399
-0.286023
-0.276232
-0.26437
-0.252726
-0.247224
-0.249204
-0.286894
-0.333706
-0.351414
-0.351641
-0.347033
-0.346314
-0.352724
-0.364933
-0.379029
-0.392792
-0.405594
-0.417107
-0.427111
-0.435418
-0.441894
-0.44628
-0.4498
-0.451801
-0.45322
-0.453783
-0.311219
-0.309382
-0.304871
-0.300829
-0.29452
-0.286214
-0.276404
-0.267126
-0.263269
-0.266423
-0.295801
-0.331554
-0.346542
-0.348495
-0.34678
-0.347712
-0.353495
-0.363194
-0.374468
-0.385731
-0.396241
-0.405602
-0.413642
-0.420242
-0.425384
-0.429252
-0.43173
-0.433339
-0.434056
-0.434248
-0.317387
-0.315883
-0.312247
-0.30894
-0.303814
-0.29712
-0.289397
-0.282341
-0.279788
-0.283271
-0.305243
-0.331422
-0.343415
-0.346121
-0.346189
-0.348017
-0.353077
-0.36077
-0.369669
-0.378639
-0.387008
-0.39444
-0.400753
-0.405875
-0.409837
-0.41272
-0.414727
-0.415969
-0.416661
-0.416896
-0.324086
-0.322957
-0.320266
-0.317785
-0.313964
-0.309012
-0.303413
-0.298453
-0.296901
-0.300005
-0.315264
-0.33308
-0.341851
-0.344479
-0.345413
-0.347535
-0.351767
-0.357737
-0.364567
-0.371458
-0.377916
-0.38365
-0.388502
-0.392428
-0.39546
-0.39769
-0.399217
-0.400181
-0.400687
-0.400851
-0.331358
-0.330648
-0.328976
-0.327417
-0.32503
-0.321954
-0.318535
-0.315584
-0.314783
-0.316938
-0.325933
-0.336259
-0.341621
-0.343503
-0.344578
-0.34654
-0.349832
-0.354218
-0.359169
-0.364195
-0.368936
-0.373154
-0.376724
-0.379609
-0.381835
-0.383467
-0.384595
-0.385307
-0.385693
-0.385828
-0.339245
-0.338999
-0.338427
-0.337887
-0.337066
-0.336015
-0.334869
-0.333909
-0.333697
-0.334515
-0.337433
-0.340704
-0.342475
-0.343115
-0.343817
-0.345263
-0.347469
-0.350309
-0.353499
-0.356775
-0.359905
-0.362718
-0.365118
-0.367069
-0.368583
-0.369701
-0.370476
-0.370971
-0.371244
-0.371347
-4.8305
-3.41721
-1.41573
1.68465
2.37035
-1.20051
-2.75033
-33.6494
88.0965
-103.734
-74.3813
39.8599
113.581
-68.6064
-15.8131
3.2823
4.11724
-1.23408
-0.272869
0.417901
0.777397
0.476698
0.274513
0.14751
0.0545765
-0.0148238
-0.0671723
-0.104135
-0.144889
-0.162192
-3.86934
-2.44067
-0.370439
-0.491675
-0.538477
-0.313087
-2.18649
-7.77775
117.608
-100.881
-41.958
65.1662
95.3055
-72.56
2.84231
22.1606
5.83405
-1.69631
-0.919911
-0.220605
0.234246
0.058622
-0.0676794
-0.132265
-0.173266
-0.200117
-0.218324
-0.229162
-0.245708
-0.250417
-2.91597
-1.97344
-0.788569
-0.584763
-0.742624
-0.893953
-2.17796
-17.2995
151.238
-76.9451
-37.581
80.869
56.6525
-72.9127
-4.8269
19.1521
2.4315
-2.01916
-0.503946
-0.0671801
0.216306
0.00893227
-0.107129
-0.158548
-0.189886
-0.210199
-0.224313
-0.232832
-0.246762
-0.2507
-2.28649
-1.52209
-0.696291
-0.549269
-0.702272
-1.17621
-2.35914
-0.204292
139.786
-67.9369
-98.8426
66.4817
33.3216
-63.8848
-23.9717
2.62329
0.872463
0.211742
-0.397779
-0.128146
0.22518
0.0057682
-0.108378
-0.159773
-0.191058
-0.211326
-0.225409
-0.233911
-0.247746
-0.251834
-1.77011
-1.34351
-0.788391
-0.606141
-0.742706
-1.4348
-2.88346
147.639
153.337
-58.7187
-148.128
20.0956
7.25954
-36.8145
-9.12459
-0.637332
-0.576951
-0.672012
-0.67352
-0.178253
0.212541
0.000772424
-0.109748
-0.161021
-0.192268
-0.212514
-0.226579
-0.235071
-0.248784
-0.252865
-1.43485
-1.13885
-0.784461
-0.664181
-0.819875
-1.44524
-3.55994
42.6589
127.765
-30.5154
-145.003
-5.30003
-1.59665
-3.78892
-0.101838
-0.257669
-0.532421
-0.672567
-0.679278
-0.194567
0.194771
-0.00659781
-0.111458
-0.162453
-0.193624
-0.213834
-0.227874
-0.23635
-0.249877
-0.25393
-1.19709
-1.03888
-0.820169
-0.738086
-0.890231
-1.41349
-3.74417
-6.51573
94.6028
-2.00022
-67.9549
-1.90403
-1.41752
0.116773
0.00876505
-0.270461
-0.526652
-0.673613
-0.674935
-0.204062
0.172868
-0.0154704
-0.113552
-0.164097
-0.195138
-0.215293
-0.229295
-0.237747
-0.251051
-0.25508
-1.04783
-0.956749
-0.831088
-0.794814
-0.952789
-1.42814
-3.51537
-0.78076
25.2244
8.35452
-4.53912
-0.737835
-0.556175
0.241716
0.100442
-0.272718
-0.524205
-0.665026
-0.661259
-0.210459
0.148663
-0.0251182
-0.116056
-0.165961
-0.196811
-0.216888
-0.230841
-0.239263
-0.252328
-0.256333
-0.953681
-0.910636
-0.847762
-0.84408
-0.991349
-1.42315
-2.60145
-1.21274
0.817608
0.247738
-1.48173
-0.992614
-0.726767
0.157656
0.0516937
-0.274772
-0.516851
-0.649182
-0.640391
-0.213816
0.123352
-0.0352335
-0.119009
-0.168064
-0.198659
-0.218632
-0.232522
-0.240905
-0.253718
-0.257696
-0.895723
-0.877468
-0.851673
-0.861928
-0.975046
-1.3291
-1.79354
-1.04224
-0.153197
0.125771
-0.706976
-0.91204
-0.658107
0.0900961
0.0150945
-0.277205
-0.499708
-0.627528
-0.614604
-0.214901
0.0975396
-0.0457502
-0.122457
-0.170435
-0.2007
-0.22054
-0.23435
-0.242687
-0.255232
-0.259177
-0.856037
-0.85192
-0.847044
-0.875747
-0.972453
-1.26074
-1.70917
-0.872442
-0.177304
0.0604222
-0.71584
-0.829061
-0.596902
0.0232497
-0.0286523
-0.281386
-0.483881
-0.602497
-0.586199
-0.21524
0.0715171
-0.0566642
-0.126444
-0.173108
-0.202959
-0.22263
-0.236341
-0.244619
-0.256879
-0.260787
-0.824747
-0.828909
-0.835257
-0.866523
-0.940027
-1.13398
-1.24583
-0.789397
-0.261841
-0.0480426
-0.635964
-0.741358
-0.538182
-0.0422957
-0.0742219
-0.28637
-0.468137
-0.576216
-0.557226
-0.215725
0.0454538
-0.0679704
-0.131009
-0.176115
-0.20546
-0.224921
-0.238509
-0.246717
-0.258672
-0.262537
-0.794529
-0.803258
-0.815611
-0.842811
-0.903715
-1.02521
-1.08092
-0.725024
-0.351102
-0.191018
-0.590321
-0.661018
-0.486505
-0.0998663
-0.117872
-0.292329
-0.452929
-0.549949
-0.528789
-0.216845
0.0195014
-0.0796587
-0.136186
-0.179492
-0.208231
-0.227433
-0.240871
-0.248994
-0.260624
-0.264439
-0.758154
-0.772594
-0.79133
-0.826656
-0.871449
-0.920271
-0.913407
-0.679864
-0.401837
-0.28477
-0.549388
-0.594076
-0.445789
-0.149115
-0.158057
-0.29897
-0.43861
-0.524354
-0.501409
-0.218781
-0.00618522
-0.0917193
-0.142003
-0.183278
-0.211301
-0.23019
-0.243446
-0.251467
-0.26275
-0.266506
-0.739226
-0.760524
-0.770664
-0.792195
-0.818507
-0.836426
-0.797314
-0.633201
-0.43301
-0.358817
-0.512819
-0.540652
-0.416031
-0.191133
-0.194064
-0.305906
-0.425349
-0.499779
-0.475387
-0.22158
-0.0314548
-0.104145
-0.148481
-0.187512
-0.214703
-0.233217
-0.246254
-0.254154
-0.265065
-0.268755
-0.719424
-0.741734
-0.7179
-0.71577
-0.74211
-0.754896
-0.705568
-0.586032
-0.444161
-0.409623
-0.482273
-0.49744
-0.395337
-0.226716
-0.225691
-0.312772
-0.413157
-0.476456
-0.45096
-0.225232
-0.0561824
-0.116928
-0.155639
-0.192236
-0.218473
-0.236543
-0.249318
-0.257075
-0.267587
-0.271201
-0.674625
-0.678225
-0.652607
-0.656
-0.678343
-0.67714
-0.638174
-0.549027
-0.451507
-0.437415
-0.460736
-0.463019
-0.381518
-0.256468
-0.252944
-0.319284
-0.402038
-0.454593
-0.42835
-0.229102
-0.0808074
-0.130058
-0.163495
-0.197493
-0.222649
-0.240198
-0.252662
-0.260249
-0.270336
-0.273861
-0.650557
-0.659071
-0.649337
-0.637372
-0.638217
-0.626359
-0.591282
-0.525501
-0.451641
-0.449531
-0.445584
-0.436938
-0.372796
-0.280938
-0.274423
-0.325261
-0.391981
-0.434378
-0.407769
-0.23374
-0.104702
-0.143513
-0.17207
-0.20333
-0.227272
-0.244216
-0.256314
-0.263701
-0.273331
-0.276755
-0.617245
-0.610826
-0.607999
-0.602989
-0.597729
-0.586296
-0.554085
-0.506976
-0.453529
-0.450543
-0.433552
-0.418273
-0.367571
-0.300491
-0.293271
-0.330529
-0.382961
-0.415975
-0.389397
-0.239134
-0.127756
-0.157278
-0.181372
-0.209792
-0.232387
-0.248633
-0.260303
-0.267455
-0.276597
-0.279904
-0.568057
-0.568803
-0.572626
-0.572808
-0.563748
-0.549254
-0.527818
-0.493499
-0.454879
-0.444982
-0.424139
-0.405063
-0.364792
-0.316121
-0.308474
-0.334955
-0.374944
-0.399513
-0.37338
-0.245189
-0.149952
-0.171346
-0.191398
-0.216928
-0.238039
-0.253491
-0.264663
-0.27154
-0.280156
-0.28333
-0.56045
-0.557935
-0.552297
-0.544175
-0.533516
-0.520372
-0.503357
-0.477972
-0.451141
-0.436584
-0.416205
-0.395748
-0.363605
-0.328197
-0.320416
-0.338468
-0.367893
-0.385084
-0.359819
-0.251889
-0.171226
-0.185715
-0.202146
-0.224783
-0.244278
-0.258831
-0.269428
-0.275985