/*--------------------------------*- C++ -*----------------------------------*\
| =========                 |                                                 |
| \\      /  F ield         | OpenFOAM: The Open Source CFD Toolbox           |
|  \\    /   O peration     | Version:  2.4.0                                 |
|   \\  /    A nd           | Web:      www.OpenFOAM.org                      |
|    \\/     M anipulation  |                                                 |
\*---------------------------------------------------------------------------*/
FoamFile
{
    version     2.0;
    format      ascii;
    class       volScalarField;
    location    "0.051";
    object      p_rgh;
}
// * * * * * * * * * * * * * * * * * * * * * * * * * * * * * * * * * * * * * //

dimensions      [1 -1 -2 0 0 0 0];

internalField   nonuniform List<scalar> 
57600
(
99.1342
99.5374
100.619
102.366
104.802
107.749
110.645
112.686
113.241
112.051
109.201
105.038
100.04
94.6983
89.444
84.6084
80.4072
76.9426
74.2142
72.1473
70.6277
69.5337
68.7565
68.2083
67.8239
67.5572
67.3768
67.2616
67.1976
67.174
99.1315
99.738
100.978
102.892
105.482
108.489
111.259
112.991
113.136
111.523
108.312
103.893
98.7578
93.39
88.2
83.4921
79.4547
76.1652
73.6035
71.6814
70.2793
69.2758
68.5655
68.0656
67.7154
67.4728
67.3092
67.2061
67.1508
67.134
99.1256
99.732
100.969
102.88
105.471
108.488
111.279
113.032
113.194
111.588
108.373
103.942
98.7869
93.3945
88.1774
83.4412
79.3766
76.0646
73.488
71.5581
70.1526
69.1474
68.4353
67.9327
67.5789
67.3319
67.1633
67.0549
66.9949
66.9748
99.1163
99.7223
100.955
102.862
105.452
108.486
111.311
113.1
113.289
111.697
108.479
104.028
98.8416
93.4094
88.1481
83.3657
79.2556
75.9056
73.303
71.3583
69.9448
68.9342
68.2168
67.7079
67.3468
67.0917
66.9145
66.7972
66.729
66.7031
99.1037
99.7089
100.936
102.835
105.426
108.482
111.354
113.193
113.423
111.852
108.63
104.153
98.9222
93.4343
88.1113
83.2636
79.0884
75.683
73.0424
71.0755
69.6496
68.631
67.9057
67.3876
67.016
66.7497
66.5605
66.4305
66.3499
66.3146
99.0878
99.6918
100.912
102.802
105.392
108.477
111.408
113.313
113.595
112.052
108.827
104.316
99.0291
93.4695
88.0668
83.1345
78.8734
75.3934
72.7018
70.7051
69.263
68.2338
67.4983
66.9676
66.5815
66.2996
66.0939
65.946
65.8466
65.7962
99.0685
99.671
100.882
102.761
105.35
108.469
111.474
113.459
113.806
112.298
109.069
104.519
99.163
93.5148
88.0143
82.9781
78.6086
75.0323
72.2754
70.2415
68.7793
67.7381
66.9904
66.4434
66.037
65.7323
65.5021
65.3265
65.1953
65.1174
99.0459
99.6465
100.847
102.712
105.3
108.458
111.55
113.632
114.057
112.592
109.36
104.762
99.3244
93.5707
87.9537
82.7941
78.292
74.5939
71.7561
69.6769
68.191
67.1375
66.3771
65.8099
65.3757
65.0378
64.7683
64.5413
64.3327
64.1677
99.0197
99.6185
100.807
102.656
105.241
108.443
111.638
113.83
114.347
112.934
109.698
105.047
99.5144
93.6371
87.8846
82.5827
77.9219
74.0708
71.1349
69.0013
67.4873
66.4238
65.6533
65.0629
64.5928
64.2101
63.8837
63.567
63.1618
62.7215
98.99
99.5868
100.762
102.593
105.172
108.424
111.736
114.056
114.677
113.324
110.086
105.375
99.7339
93.7139
87.8066
82.3443
77.4973
73.4538
70.4008
68.2014
66.6524
65.5856
64.8139
64.2
63.6862
63.2524
62.8714
62.4882
61.9982
61.5153
98.9566
99.5515
100.712
102.522
105.094
108.399
111.843
114.307
115.048
113.765
110.526
105.747
99.9845
93.8013
87.7182
82.0799
77.0191
72.7305
69.5412
67.2589
65.6616
64.6062
63.8557
63.2218
62.6543
62.1675
61.7638
61.4218
61.1311
60.9272
98.9194
99.5127
100.656
102.443
105.006
108.367
111.961
114.585
115.46
114.258
111.018
106.166
100.268
93.899
87.6177
81.7905
76.4918
71.8845
68.5432
66.1474
64.4741
63.46
62.7805
62.1366
61.4906
60.9327
60.5277
60.2862
60.2053
60.1458
98.8784
99.4704
100.596
102.356
104.906
108.327
112.089
114.89
115.913
114.804
111.566
106.633
100.585
94.0068
87.5017
81.4769
75.9252
70.8914
67.3952
64.8247
63.0193
62.1025
61.6034
60.9731
60.1845
59.4802
59.0464
58.9039
58.9621
58.9608
98.8333
99.4247
100.531
102.262
104.795
108.277
112.225
115.221
116.408
115.405
112.17
107.152
100.94
94.1244
87.3651
81.1385
75.3373
69.7075
66.0841
63.2151
61.173
60.4471
60.367
59.8169
58.7385
57.6765
57.1161
57.0958
57.3123
57.3744
98.784
99.3755
100.461
102.16
104.672
108.215
112.371
115.578
116.945
116.063
112.833
107.723
101.336
94.2517
87.2
80.7718
74.755
68.2303
64.5228
61.1757
58.7177
58.2908
59.1484
58.8835
57.2808
55.2945
54.3331
54.6316
55.3643
55.5822
98.7302
99.3229
100.386
102.049
104.535
108.139
112.526
115.961
117.525
116.78
113.558
108.351
101.776
94.3894
86.995
80.3677
74.2192
66.0256
62.1619
58.4809
55.2887
55.1218
58.052
58.6378
56.1726
52.0984
50.2213
50.7571
53.5525
54.4027
98.6718
99.2669
100.306
101.931
104.384
108.046
112.69
116.37
118.146
117.559
114.348
109.039
102.266
94.5387
86.7344
79.9121
73.8041
63.8777
57.0075
55.2868
50.5087
48.8831
57.6701
60.9629
42.5128
14.0593
5.55862
1.54492
0.783834
0.430108
98.6084
99.2077
100.222
101.805
104.219
107.932
112.864
116.805
118.809
118.402
115.204
109.788
102.813
94.7033
86.3975
79.394
72.7149
63.8145
50.8428
53.2968
7.91344
0.316099
0.245651
0.254944
0.278743
0.298545
0.304829
0.306734
0.30287
0.302466
98.5397
99.1452
100.134
101.671
104.038
107.793
113.051
117.265
119.513
119.313
116.13
110.603
103.425
94.8899
85.9605
78.684
72.1375
64.3876
46.1801
0.394125
0.271962
0.26719
0.245242
0.255091
0.27538
0.289704
0.296675
0.299184
0.30052
0.301681
98.4654
99.0795
100.04
101.529
103.841
107.626
113.253
117.751
120.256
120.296
117.129
111.487
104.111
95.1098
85.4004
77.6161
72.3813
62.6132
0.325067
0.269408
0.248767
0.243753
0.22738
0.239603
0.262949
0.280152
0.28915
0.296174
0.296673
0.298375
98.385
99.0108
99.9432
101.379
103.628
107.423
113.476
118.262
121.035
121.354
118.204
112.442
104.884
95.3813
84.7243
75.9288
73.3932
44.6002
0.254663
0.21444
0.223953
0.245288
0.21465
0.224528
0.249167
0.269716
0.281022
0.287088
0.290811
0.293064
98.2981
98.939
99.8419
101.222
103.398
107.177
113.732
118.802
121.846
122.492
119.359
113.469
105.758
95.7316
83.9737
73.4213
82.8928
-0.0228546
0.188814
0.199452
0.207944
0.210858
0.208109
0.215969
0.239635
0.260924
0.273269
0.279224
0.285008
0.286962
98.2047
98.8644
99.7366
101.057
103.151
106.882
114.041
119.374
122.681
123.716
120.597
114.571
106.746
96.2002
83.1704
72.7894
1.96689
0.0579325
0.169998
0.192191
0.199145
0.200214
0.202383
0.214168
0.236466
0.255338
0.267308
0.273939
0.278416
0.281203
98.1043
98.7872
99.6275
100.886
102.887
106.526
114.445
119.986
123.532
125.034
121.921
115.746
107.864
96.849
82.4728
70.9017
0.142962
0.0653924
0.161602
0.186824
0.194128
0.196275
0.201429
0.21551
0.235779
0.252688
0.263868
0.274835
0.274168
0.27646
97.9965
98.7077
99.5149
100.707
102.607
106.099
115.022
120.653
124.381
126.454
123.335
116.994
109.125
97.7851
82.461
0.123268
0.144938
0.0976008
0.159619
0.18349
0.192119
0.196717
0.205102
0.220034
0.237548
0.251497
0.262766
0.267606
0.270962
0.273737
97.8812
98.6264
99.3989
100.521
102.31
105.589
115.927
121.404
125.205
127.988
124.841
118.311
110.555
99.2117
66.8582
0.271167
0.155496
0.128138
0.162041
0.182217
0.19211
0.199508
0.210005
0.224374
0.239277
0.251271
0.257334
0.264112
0.268171
0.270768
97.7582
98.544
99.2798
100.329
101.998
104.986
117.456
122.287
125.964
129.651
126.441
119.699
112.092
101.527
6.50248
0.283314
0.175111
0.14912
0.166455
0.182513
0.193222
0.202699
0.214283
0.227386
0.242695
0.252156
0.257175
0.262101
0.265866
0.268469
97.6276
98.4618
99.1579
100.13
101.673
104.282
120.112
123.382
126.604
131.464
128.135
121.158
113.502
104.684
1.67858
0.294265
0.190644
0.163373
0.171178
0.183683
0.194549
0.205168
0.216866
0.2288
0.239457
0.24873
0.255323
0.260009
0.263495
0.266022
97.4929
98.3811
99.0337
99.9247
101.337
103.474
124.545
124.807
127.074
133.441
129.921
122.689
114.639
108.57
0.126859
0.283942
0.199233
0.172654
0.175222
0.185053
0.195638
0.206609
0.218035
0.229057
0.238785
0.246864
0.252958
0.257425
0.260747
0.263211
97.3934
98.3042
98.9078
99.7133
100.997
102.562
131.247
126.738
127.329
135.595
131.789
124.247
115.129
111.719
0.145142
0.267293
0.201566
0.177991
0.178099
0.186159
0.196281
0.207125
0.21808
0.228309
0.237188
0.24446
0.250088
0.254335
0.257538
0.259959
67.1824
67.2213
67.3009
67.4335
67.6331
67.916
68.3044
68.8299
69.5401
70.5022
71.806
73.5604
75.8817
78.8716
82.5823
86.9833
91.9331
97.1705
102.327
106.957
110.591
112.802
113.331
112.204
109.813
106.856
104.056
101.825
100.268
99.3462
67.1488
67.1969
67.2898
67.4402
67.6617
67.9707
68.3905
68.9562
69.7203
70.7569
72.1621
74.0499
76.5366
79.7154
83.6197
88.1907
93.2552
98.5209
103.595
108.02
111.328
113.122
113.206
111.697
109.078
106.097
103.417
101.359
99.9712
99.2185
66.9881
67.0371
67.134
67.2908
67.5197
67.8353
68.2601
68.8292
69.5961
70.6353
72.0444
73.9394
76.4389
79.6378
83.5681
88.1674
93.2594
98.5493
103.643
108.08
111.391
113.18
113.249
111.719
109.08
106.087
103.406
101.35
99.9649
99.214
66.7143
66.7659
66.8707
67.0395
67.2808
67.6066
68.039
68.6147
69.3879
70.4341
71.8522
73.7613
76.2837
79.5168
83.4905
88.1366
93.2734
98.6027
103.726
108.182
111.499
113.277
113.32
111.755
109.082
106.07
103.386
101.335
99.9547
99.2066
66.3227
66.3803
66.5008
66.6892
66.9467
67.2833
67.7238
68.3075
69.0899
70.147
71.5792
73.5094
76.0656
79.3486
83.3848
88.0971
93.2969
98.6814
103.847
108.329
111.652
113.413
113.418
111.805
109.084
106.047
103.36
101.315
99.9406
99.1964
65.8009
65.8742
66.0271
66.2441
66.5168
66.8605
67.3079
67.9017
68.6973
69.7695
71.2208
73.1796
75.7808
79.1307
83.2501
88.0487
93.3301
98.7858
104.006
108.52
111.85
113.588
113.544
111.867
109.087
106.017
103.326
101.288
99.9227
99.1834
65.1185
65.2405
65.4712
65.7134
65.984
66.3256
66.7799
67.3888
68.2035
69.2959
70.7715
72.7661
75.4247
78.8606
83.0854
87.9914
93.3732
98.9164
104.203
108.756
112.094
113.804
113.699
111.943
109.088
105.979
103.285
101.257
99.9009
99.1677
64.2392
64.3662
64.9004
65.0773
65.3151
65.6526
66.1224
66.7579
67.6006
68.7187
70.2236
72.2622
74.9912
78.535
82.8902
87.9249
93.4265
99.0742
104.439
109.038
112.385
114.06
113.881
112.032
109.089
105.934
103.235
101.219
99.8753
99.1493
63.0435
63.5525
63.7167
64.1575
64.4319
64.8015
65.3136
65.9965
66.8795
68.0279
69.5669
71.659
74.4726
78.1504
82.664
87.8493
93.4902
99.26
104.715
109.367
112.723
114.357
114.092
112.134
109.087
105.88
103.179
101.176
99.846
99.1285
61.6059
61.6944
62.4954
62.8302
63.2697
63.7354
64.3334
65.0949
66.0312
67.21
68.7868
70.9454
73.8593
77.7037
82.4067
87.7641
93.5648
99.4751
105.033
109.744
113.11
114.695
114.331
112.249
109.083
105.818
103.114
101.127
99.813
99.1053
60.7075
60.6235
67.1187
61.3024
61.8503
62.4355
63.1714
64.0507
65.0478
66.245
67.8614
70.1081
73.139
77.1926
82.1191
87.6688
93.6502
99.7207
105.395
110.17
113.548
115.076
114.598
112.375
109.075
105.747
103.041
101.073
99.7763
99.0799
59.6145
59.1177
59.1536
59.5616
60.1403
60.8897
61.8323
62.8774
63.9241
65.0996
66.7549
69.1315
72.2948
76.6177
81.8029
87.5621
93.7466
99.9988
105.8
110.647
114.036
115.5
114.893
112.514
109.062
105.666
102.961
101.013
99.7361
99.0524
58.5071
57.867
57.4869
57.5574
58.1198
59.0944
60.3423
61.6191
62.6584
63.7128
65.4054
67.9953
71.2991
75.9851
81.4601
87.4415
93.8539
100.311
106.253
111.175
114.578
115.968
115.216
112.664
109.043
105.574
102.871
100.948
99.6925
99.0231
56.8962
56.0471
55.2542
55.0289
55.6814
57.0327
58.7579
60.3843
61.248
61.9616
63.7054
66.6638
70.0874
75.3096
81.0935
87.3025
93.9716
100.661
106.754
111.758
115.174
116.481
115.568
112.825
109.016
105.47
102.774
100.877
99.6454
98.9921
55.0506
53.7774
52.1385
51.4784
52.6334
54.715
57.211
59.4241
59.6518
59.5747
61.4802
65.0155
68.4282
74.6149
80.7059
87.138
94.0996
101.051
107.307
112.395
115.827
117.039
115.946
112.997
108.979
105.355
102.668
100.801
99.5951
98.9597
53.8486
52.0143
47.158
45.9823
49.5963
51.8835
55.7413
59.3472
57.6413
55.939
58.5384
62.4559
65.9581
73.9213
80.3018
86.9373
94.2376
101.487
107.912
113.09
116.539
117.645
116.353
113.181
108.93
105.226
102.553
100.719
99.5417
98.9263
0.334953
0.30777
0.347793
0.372552
2.49147
10.9874
41.6797
64.0881
55.138
49.3953
55.1507
57.212
64.4379
73.199
79.8693
86.6843
94.3861
101.973
108.574
113.844
117.313
118.298
116.785
113.375
108.866
105.084
102.43
100.632
99.4853
98.892
0.304091
0.307028
0.31206
0.314349
0.309546
0.306124
0.290383
0.234989
0.294344
1.30765
55.9375
50.1538
63.878
72.6653
79.1753
86.358
94.5473
102.517
109.295
114.658
118.151
118.999
117.243
113.58
108.783
104.927
102.297
100.54
99.4261
98.8573
0.303185
0.305006
0.306672
0.306529
0.302606
0.293492
0.275177
0.260389
0.281691
0.291294
0.197377
43.8279
67.1164
70.7697
78.3771
85.9358
94.7256
103.129
110.076
115.534
119.057
119.751
117.726
113.797
108.677
104.754
102.156
100.443
99.3642
98.8224
0.299857
0.301063
0.301489
0.299621
0.292099
0.275284
0.253073
0.265919
0.262579
0.272843
0.280586
0.360892
74.3221
70.0074
77.2942
85.4084
94.9296
103.821
110.919
116.474
120.035
120.554
118.232
114.026
108.543
104.566
102.005
100.34
99.2998
98.7877
0.294557
0.29564
0.295493
0.292043
0.2812
0.26035
0.241019
0.243642
0.243397
0.261269
0.286734
0.334407
-1.64567
59.7472
75.6382
84.7629
95.1728
104.608
111.826
117.479
121.089
121.409
118.76
114.268
108.372
104.361
101.845
100.233
99.2331
98.7535
0.288402
0.289259
0.289683
0.284623
0.273247
0.253989
0.234341
0.241487
0.238878
0.256713
0.282545
0.307619
0.248712
57.8007
74.1722
83.9414
95.4758
105.509
112.795
118.55
122.225
122.319
119.307
114.525
108.156
104.141
101.676
100.121
99.1644
98.7199
0.28278
0.283361
0.282608
0.279088
0.269572
0.253628
0.235308
0.23044
0.240676
0.254781
0.277821
0.290935
0.274204
0.325795
73.1422
82.9258
95.8724
106.543
113.822
119.69
123.448
123.287
119.874
114.798
107.882
103.904
101.498
100.004
99.0938
98.6871
0.279088
0.278853
0.278497
0.277707
0.268836
0.256602
0.242537
0.23562
0.239797
0.255122
0.273399
0.282548
0.271458
0.16616
0.431772
81.3338
96.4313
107.728
114.9
120.898
124.764
124.321
120.46
115.085
107.531
103.653
101.31
99.8822
99.0216
98.655
0.277026
0.276044
0.275863
0.273991
0.269555
0.261843
0.251432
0.244848
0.246709
0.257517
0.271241
0.278216
0.268367
0.200869
0.292094
77.1961
97.3156
109.066
116.02
122.178
126.181
125.435
121.069
115.378
107.079
103.389
101.113
99.7561
98.9481
98.6232
0.272449
0.273534
0.273853
0.27297
0.2722
0.267322
0.258495
0.253538
0.253907
0.261043
0.270878
0.276575
0.270176
0.242864
0.28565
-14.9082
98.9676
110.522
117.167
123.531
127.705
126.664
121.711
115.653
106.494
103.113
100.907
99.6253
98.8732
98.591
0.270262
0.271498
0.272128
0.271921
0.270576
0.267336
0.263165
0.259948
0.259843
0.264374
0.271605
0.276907
0.275126
0.267756
0.292367
0.361736
101.328
112.011
118.331
124.958
129.346
128.071
122.405
115.839
105.728
102.829
100.69
99.4899
98.797
98.5569
0.267864
0.269252
0.270177
0.270468
0.269878
0.268147
0.26577
0.263882
0.26392
0.267138
0.272872
0.278536
0.281278
0.284774
0.308257
0.377721
105.456
113.375
119.519
126.463
131.119
129.759
123.193
115.766
104.716
102.536
100.464
99.3494
98.7194
98.5189
0.26508
0.266579
0.267728
0.2684
0.268439
0.267746
0.266597
0.265724
0.266174
0.268988
0.274256
0.280826
0.287555
0.298169
0.323816
0.31561
111.481
113.936
120.801
128.048
133.052
131.844
124.145
115.068
103.361
102.234
100.227
99.2031
98.6397
98.4736
0.261844
0.26342
0.264727
0.265681
0.266194
0.266235
0.265994
0.265971
0.266977
0.269947
0.275418
0.283231
0.293425
0.309394
0.338589
0.36834
113.358
111.576
122.439
129.715
135.202
134.411
125.357
113.095
101.516
101.909
99.9779
99.0494
98.5571
98.4182
-0.00082029
47.1385
98.8029
99.5374
100.728
101.736
138.596
128.863
127.287
137.507
133.361
125.405
114.61
110.817
0.234463
0.246164
0.199992
0.180061
0.179529
0.186697
0.19642
0.206982
0.217471
0.227094
0.235367
0.242122
0.247419
0.251486
0.254593
0.256975
-0.00151375
0.010704
0.0220829
0.649814
100.564
101.153
144.27
130.575
127.002
138.835
134.381
126.043
112.116
102.801
0.359532
0.23194
0.197873
0.180665
0.180132
0.186909
0.196375
0.206688
0.21684
0.226078
0.233985
0.240439
0.245531
0.249472
0.252505
0.254845
-0.000985712
0.0106703
0.0220804
0.0454459
0.135663
56.7686
151.382
132.827
126.238
140.386
135.492
126.676
103.39
85.9675
0.0268026
0.218673
0.194671
0.180621
0.180378
0.186926
0.196148
0.206176
0.215965
0.224811
0.232357
0.238517
0.243402
0.247208
0.250159
0.252455
-0.000519067
0.0106255
0.0220674
0.0453556
0.186829
0.40034
178.982
135.68
125.176
142.254
136.693
127.462
94.7906
3.51008
0.0789824
0.206771
0.190414
0.179822
0.180186
0.186673
0.195686
0.205417
0.21483
0.223281
0.230464
0.236332
0.241002
0.244665
0.247525
0.249768
-5.96902e-05
0.0105733
0.0220277
0.0451219
0.144205
0.0277633
44.5075
137.538
125.46
144.641
137.956
128.669
99.6848
-0.552802
0.228151
0.195594
0.185255
0.178207
0.179489
0.186082
0.194941
0.204378
0.21341
0.221462
0.22828
0.233851
0.2383
0.241808
0.244565
0.246744
0.000381959
0.0105065
0.0219264
0.0446873
0.132819
0.00361629
-1.21541
135.251
125.494
146.484
139.232
130.532
108.784
-0.252077
0.208122
0.18373
0.179304
0.175756
0.178224
0.185087
0.193857
0.203019
0.211675
0.219326
0.225778
0.231046
0.235262
0.238602
0.241241
0.243343
0.000789983
0.0104238
0.0217538
0.0439823
0.118365
-0.0697101
-0.430426
133.564
123.923
142.32
140.683
133.166
121.876
-0.104948
0.146617
0.170611
0.172568
0.172453
0.176326
0.183616
0.192375
0.201291
0.209581
0.216835
0.222918
0.227875
0.231847
0.235003
0.23751
0.239519
0.0011504
0.0103228
0.0215035
0.0429661
0.106655
-0.0781122
-0.415365
4.25437
121.334
133.566
140.504
136.565
140.195
-0.113054
0.22585
0.156804
0.165088
0.168289
0.173732
0.1816
0.19043
0.19914
0.20708
0.213942
0.219655
0.224295
0.228008
0.230962
0.233319
0.235217
0.00145476
0.0101997
0.0211642
0.0415944
0.093133
-0.0906631
-0.395737
-0.077078
3.05843
125.848
139.639
140.849
149.459
-0.0598944
0.107963
0.14418
0.156959
0.163242
0.170374
0.178961
0.187953
0.196504
0.204116
0.210595
0.215935
0.220247
0.223688
0.226424
0.228611
0.230378
0.00169972
0.0100511
0.0207236
0.0398325
0.0782191
-0.117338
-0.439384
-0.0775728
0.0056759
124.832
137.193
143.566
129.217
0.02472
0.100333
0.133172
0.148208
0.157268
0.166175
0.17562
0.18487
0.193315
0.200626
0.20673
0.211697
0.215671
0.218825
0.221326
0.223323
0.224937
0.00188586
0.00987441
0.0201726
0.0376586
0.0628802
-0.151098
-0.457332
-0.0823097
-0.0321576
-0.894955
137.647
144.69
70.5105
0.0839447
0.0973382
0.122682
0.138699
0.150258
0.161028
0.171478
0.181094
0.189495
0.196537
0.202276
0.206865
0.210491
0.213342
0.21559
0.217375
0.218813
0.00201608
0.00966447
0.019499
0.035088
0.0481363
-0.159304
-0.399652
-0.0664869
-0.0540161
0.1762
149.318
151.626
1.31313
0.128772
0.0946374
0.111729
0.128095
0.142006
0.154775
0.166413
0.176527
0.184955
0.19176
0.197143
0.201351
0.204617
0.20715
0.209125
0.210679
0.21192
0.00209581
0.00941466
0.0186902
0.032134
0.0346951
-0.148513
-0.391743
-0.0634637
-0.0689282
-0.00959873
169.826
147.182
-0.116156
0.151609
0.0880783
0.0991593
0.115806
0.132139
0.147167
0.160256
0.171042
0.179588
0.186193
0.19123
0.19505
0.197944
0.200145
0.20183
0.203133
0.204156
0.00213191
0.00911998
0.0177403
0.0288329
0.0229054
-0.126962
-0.30945
-0.0513463
-0.0806945
-0.113539
170.045
166.792
0.102273
0.0986531
0.0748479
0.0834474
0.10086
0.119997
0.137784
0.152749
0.164467
0.173254
0.179703
0.1844
0.187826
0.190338
0.192193
0.193574
0.194614
0.195406
0.00213111
0.00877681
0.0166492
0.0252642
0.0129284
-0.113313
-0.2939
-0.0945574
-0.0898191
-0.172332
-0.0183462
-0.306734
0.239368
0.0672303
0.0549503
0.0627892
0.0816395
0.104414
0.125919
0.143499
0.156567
0.165777
0.172124
0.176489
0.179514
0.181633
0.183136
0.184209
0.184982
0.185539
0.00209831
0.00838168
0.015424
0.0215318
0.00475389
-0.0980733
-0.225465
-0.0801338
-0.0954426
-0.180479
-0.113392
-0.282694
0.0437159
0.0309565
0.027964
0.0344524
0.0551977
0.0832138
0.110282
0.131846
0.146994
0.156911
0.163236
0.167276
0.169893
0.171619
0.172772
0.173548
0.174067
0.174403
0.00203689
0.00792985
0.0140741
0.0177607
-0.00170938
-0.0856502
-0.158423
-0.106646
-0.0970199
-0.161981
-0.144283
-0.218639
-0.107105
-0.00786272
-0.00855482
-0.00696496
0.0155807
0.0520246
0.0883844
0.116663
0.135239
0.14633
0.152743
0.156467
0.158677
0.160021
0.16085
0.16136
0.161661
0.161814
0.00194989
0.00741825
0.0126135
0.0140605
-0.00661942
-0.074476
-0.122528
-0.0986014
-0.0941736
-0.134232
-0.155097
-0.200538
0.33067
-0.0469844
-0.0609721
-0.0732625
-0.0505654
0.00146393
0.0551696
0.0959793
0.120584
0.133597
0.140235
0.143657
0.145483
0.146493
0.147063
0.147377
0.14753
0.147568
0.00184013
0.00684836
0.0110687
0.0105411
-0.0101934
-0.0646248
-0.100386
-0.0900611
-0.0874434
-0.109687
-0.151292
-0.214053
0.252449
-0.0944483
-0.140584
-0.189338
-0.169744
-0.0856464
0.00229408
0.0669485
0.102115
0.118128
0.12514
0.128291
0.129816
0.130622
0.131077
0.131332
0.131459
0.13149
0.00171036
0.00622515
0.00947591
0.00730864
-0.0126036
-0.0559328
-0.0837186
-0.0803766
-0.0778367
-0.0882924
-0.13264
-0.225537
-0.135751
-0.159166
-0.258516
-0.386261
-0.372624
-0.226398
-0.0708616
0.0777242
0.0793687
0.099122
0.106574
0.109588
0.111087
0.112
0.112626
0.113068
0.113369
0.113554
0.00156352
0.00555761
0.00787874
0.00445222
-0.0140081
-0.0482482
-0.0701571
-0.0699685
-0.0664041
-0.0672331
-0.0904046
-0.00234685
-0.148868
-0.213299
-0.393389
-0.644817
-0.580889
-0.386704
-0.159273
-0.00794997
0.0894014
0.0753792
0.0828603
0.0864534
0.0887351
0.0904365
0.0917578
0.0927775
0.0935454
0.0941022
0.00140298
0.00485905
0.00632546
0.00203875
-0.0145574
-0.0414102
-0.0585739
-0.0593671
-0.0542153
-0.0466304
-0.0380604
0.0396699
-0.134104
-0.229816
-0.477269
-0.796499
-0.765806
-0.482418
-0.223281
-0.0513809
0.0465537
0.0488299
0.0508875
0.0579301
0.0628636
0.0665195
0.0692685
0.0713385
0.0728889
0.0740379
0.0012326
0.0041465
0.00486626
0.000110931
-0.0143913
-0.0352587
-0.0484461
-0.0490491
-0.0423308
-0.0288232
-0.00139756
0.0875027
-0.103093
-0.206302
-0.441963
-0.654682
-0.630293
-0.429586
-0.219362
-0.0950157
-0.0608741
-0.0179821
0.0114496
0.0269087
0.0363853
0.0427867
0.0473258
0.0506271
0.0530598
0.0548623
0.00105672
0.00343975
0.0035498
-0.00131343
-0.0136364
-0.0296551
-0.0394997
-0.039415
-0.0316734
-0.0157178
0.0134208
0.0579509
-0.0190145
-0.164559
-0.296907
-0.4031
-0.376452
-0.249492
-0.153743
-0.0943237
-0.0444444
-0.0315976
-0.00915745
0.00618765
0.0166785
0.0240482
0.0293628
0.0332688
0.0361771
0.0383596
0.000879948
0.00275962
0.00241734
-0.00223937
-0.0124019
-0.024487
-0.0315724
-0.0307461
-0.0228012
-0.0075289
0.0151999
0.0343862
0.0144154
-0.0430141
-0.116646
-0.145961
-0.120317
-0.0849199
-0.0525038
-0.0381698
-0.0408402
-0.024321
-0.0111319
-0.000865167
0.00699016
0.012969
0.0175299
0.0210227
0.0237093
0.0257837
0.000706528
0.00212658
0.0014995
-0.00268979
-0.0107805
-0.0196725
-0.0245412
-0.0231897
-0.0158457
-0.00305968
0.012716
0.0224445
0.0151033
0.00619445
0.0430752
0.0119582
0.00534691
-0.00851861
-0.016152
-0.0187983
-0.0165276
-0.0113929
-0.00566497
-0.000355543
0.00420776
0.00798839
0.0110652
0.0135461
0.0155378
0.0171335
0.000539392
0.00155713
0.000813024
-0.00270321
-0.00884932
-0.0151473
-0.0183065
-0.0167534
-0.0106058
-0.000848482
0.00987997
0.0170522
0.0196742
0.0272134
0.0403588
0.0376432
0.0258377
0.0131693
0.00395395
-0.000861374
-0.00232775
-0.00171228
-5.38535e-05
0.0019795
0.00402552
0.00591254
0.00757585
0.00900367
0.0102101
0.0112204
0.000379514
0.00105953
0.00035731
-0.00233016
-0.00666883
-0.0108517
-0.0127497
-0.0113224
-0.00670603
0.000129616
0.00734126
0.0131581
0.0181893
0.0248138
0.0301728
0.0290597
0.0230335
0.0157929
0.00974722
0.00568345
0.0034198
0.00246422
0.00233967
0.00268685
0.00326884
0.00394051
0.00461973
0.00526208
0.00584765
0.00636963
0.000223906
0.000628412
0.000109069
-0.00163096
-0.00427898
-0.00670757
-0.00770739
-0.00668895
-0.00374766
0.000402475
0.00477838
0.00871957
0.0124925
0.0162048
0.0184294
0.0178285
0.0149163
0.0111158
0.00756144
0.00477207
0.00282279
0.00158301
0.000871213
0.000523344
0.000412807
0.000449979
0.000574027
0.000745181
0.000937895
0.00113673
6.3481e-05
0.000239595
1.66767e-05
-0.000677545
-0.00169406
-0.00259828
-0.00294591
-0.00251984
-0.00137025
0.000230343
0.00192864
0.00351952
0.00505355
0.00644483
0.00710386
0.00659791
0.00509095
0.00309032
0.00107112
-0.000692864
-0.00210523
-0.00317501
-0.00395462
-0.00450441
-0.00487954
-0.00512484
-0.00527537
-0.00535633
-0.00538692
-0.00538165
0.258861
0.260475
0.261876
0.263005
0.263812
0.264301
0.264633
0.265216
0.266738
0.270079
0.276006
0.284953
0.297681
0.31732
0.35064
0.429811
74.7785
116.198
124.405
131.129
137.177
136.921
126.604
109.975
99.4994
101.6
99.7641
98.9154
82.1514
34.0757
0.256721
0.258356
0.259812
0.261039
0.262006
0.262737
0.263385
0.264326
0.266194
0.269846
0.276147
0.28583
0.300049
0.32182
0.357863
0.423014
28.0902
118.376
126.01
132.058
138.564
138.722
127.547
107.131
97.9282
101.356
16.2174
0.0219785
0.00950391
0.00359583
0.254314
0.25596
0.257458
0.258773
0.259888
0.26084
0.261786
0.263078
0.265317
0.26935
0.276124
0.286618
0.30231
0.326273
0.364646
0.399326
4.61857
111.977
127.922
133.087
140.207
140.783
128.713
103.2
88.2329
0.507048
0.0635157
0.0219575
0.00943681
0.00335583
0.251602
0.253248
0.254777
0.256166
0.257412
0.258564
0.259786
0.261417
0.264042
0.268506
0.275839
0.287228
0.304404
0.330599
0.371748
0.370839
1.67497
108.7
129.99
134.225
142.179
142.979
133.84
98.1965
4.9213
2.02624
0.0631535
0.0218848
0.00934157
0.00313638
0.248543
0.250174
0.251721
0.253168
0.254524
0.255851
0.257322
0.259275
0.262288
0.26722
0.275181
0.287542
0.306235
0.334661
0.379017
0.515086
0.696463
107.841
132.082
135.484
144.675
142.364
132.293
92.9475
-0.0692464
0.307312
0.0620902
0.0217393
0.00925159
0.00297522
0.245092
0.246696
0.248243
0.249725
0.251166
0.252638
0.254324
0.25657
0.25996
0.265378
0.274017
0.287416
0.307668
0.338298
0.386893
0.628851
0.552329
103.772
134.108
136.888
146.006
138.583
125.507
23.0808
-0.0292359
0.220264
0.0602453
0.0214848
0.00912731
0.00285206
0.241202
0.242761
0.244287
0.245779
0.247273
0.248851
0.25071
0.253206
0.256942
0.262837
0.272179
0.286664
0.308516
0.341296
0.393434
0.482602
0.515726
101.936
135.99
138.42
144.779
132.073
117.218
-0.312818
-0.11825
0.157021
0.0575917
0.0211027
0.00897319
0.00274854
0.236817
0.238311
0.23979
0.241262
0.242769
0.244406
0.246382
0.249066
0.253087
0.259416
0.269449
0.285047
0.308534
0.343339
0.397569
0.471382
0.537939
100.048
137.824
140.212
138.904
124.494
31.6351
-0.325496
-0.139902
0.103088
0.0541435
0.0205752
0.00878712
0.00265345
0.231874
0.233279
0.234681
0.236095
0.237568
0.239205
0.241223
0.244008
0.248217
0.254885
0.265542
0.282244
0.307394
0.344008
0.398468
0.464812
0.521148
92.8286
139.892
141.05
132.439
56.1517
-0.115236
-0.356587
-0.120484
0.0625468
0.0499411
0.0198817
0.00856098
0.00256115
0.226305
0.227594
0.228885
0.230198
0.23158
0.233143
0.235107
0.23787
0.242116
0.248959
0.260092
0.27782
0.304645
0.342772
0.395823
0.456188
0.503498
44.1122
141.759
137.11
125.633
-0.338324
-0.130081
-0.293156
-0.159437
0.0334251
0.0450523
0.019003
0.00828602
0.00246894
0.220029
0.221172
0.222315
0.223475
0.224701
0.2261
0.227889
0.230467
0.234534
0.241282
0.252604
0.271164
0.29964
0.338926
0.389177
0.44413
0.506529
15.5981
143.625
142.531
48.6093
-0.297137
-0.137536
-0.342225
-0.279441
0.012057
0.0395659
0.0179236
0.00796519
0.00237465
0.212959
0.213925
0.214879
0.215833
0.216828
0.217961
0.219429
0.221608
0.225195
0.231431
0.24243
0.261371
0.291365
0.331352
0.377361
0.426609
0.513196
0.92765
144.109
146.891
1.4166
-0.297759
-0.134248
-0.16068
-0.29038
-0.00383541
0.0335994
0.0166297
0.00759013
0.00227537
0.204998
0.205761
0.206488
0.207182
0.207871
0.208627
0.209607
0.211132
0.213836
0.218945
0.228729
0.247028
0.278001
0.317924
0.357711
0.400366
0.502929
0.872899
149.691
153.171
-0.230975
-0.290631
-0.118966
-0.43345
-0.275308
-0.0160409
0.0272881
0.015113
0.00714155
0.00216792
0.196033
0.196572
0.197043
0.197436
0.197755
0.19803
0.198352
0.198939
0.200275
0.203393
0.210443
0.22587
0.256406
0.295967
0.324731
0.359695
0.45587
0.774028
114.628
163.134
-0.191785
-0.284264
-0.179438
-0.316422
-0.230274
-0.0258781
0.0207795
0.0133749
0.00661326
0.00204922
0.185948
0.186257
0.186461
0.186533
0.186444
0.186168
0.185698
0.185089
0.184547
0.184615
0.186629
0.195818
0.222996
0.252612
0.270211
0.295813
0.370552
0.55773
-0.910645
-0.569574
-0.324076
-0.281339
-0.223793
-0.351611
-0.210521
-0.0338765
0.0142434
0.0114304
0.00600701
0.00191662
0.174608
0.174701
0.174657
0.174424
0.173939
0.17311
0.171807
0.169857
0.167048
0.163152
0.158189
0.158317
0.172838
0.185824
0.180412
0.199624
0.271965
0.225584
-0.453841
-0.500514
-0.364571
-0.278221
-0.247648
-0.293664
-0.180715
-0.0403274
0.00785443
0.0093069
0.00533566
0.0017675
0.161854
0.161777
0.161538
0.161067
0.160268
0.158986
0.156962
0.15375
0.148549
0.140635
0.136768
0.117414
0.112613
0.0932084
0.0506591
0.0637526
0.163958
0.00323662
-0.269624
-0.444051
-0.359093
-0.272361
-0.240705
-0.250803
-0.159925
-0.0454019
0.00178471
0.00704373
0.00460062
0.00159984
0.147512
0.147342
0.146998
0.146403
0.145439
0.143912
0.141474
0.13743
0.130126
0.115793
0.124387
0.085567
0.0664389
-0.0180192
-0.119213
-0.100365
0.0442727
-0.0579944
-0.258871
-0.408582
-0.337553
-0.262569
-0.230243
-0.219763
-0.144617
-0.0491939
-0.00380844
0.004694
0.00379956
0.00141312
0.131437
0.131276
0.130945
0.130361
0.129403
0.127869
0.125407
0.121294
0.113722
0.0986214
0.0779487
0.0739043
-0.00696576
-0.127439
-0.293713
-0.308692
-0.109048
0.147498
-0.351131
-0.395602
-0.315354
-0.249266
-0.21672
-0.195353
-0.131604
-0.0517616
-0.00878416
0.00232652
0.00294505
0.00120799
0.113638
0.113613
0.113421
0.112977
0.112156
0.110762
0.108468
0.104677
0.0981149
0.0860353
0.0913422
0.0482822
-0.0520137
-0.209695
-0.428808
-0.468485
-0.26287
0.0391088
-0.470736
-0.402877
-0.293227
-0.232477
-0.200702
-0.174431
-0.119896
-0.0530799
-0.0130198
2.22371e-05
0.00205627
0.000986179
0.0944933
0.0947496
0.0948323
0.0946483
0.0940645
0.0928797
0.0907666
0.0871657
0.0810234
0.0702616
0.0507409
0.0106186
-0.0746494
-0.24162
-0.476823
-0.528726
-0.343188
-0.038289
-0.605414
-0.41179
-0.267036