/*--------------------------------*- C++ -*----------------------------------*\
| =========                 |                                                 |
| \\      /  F ield         | OpenFOAM: The Open Source CFD Toolbox           |
|  \\    /   O peration     | Version:  2.4.0                                 |
|   \\  /    A nd           | Web:      www.OpenFOAM.org                      |
|    \\/     M anipulation  |                                                 |
\*---------------------------------------------------------------------------*/
FoamFile
{
    version     2.0;
    format      ascii;
    class       surfaceScalarField;
    location    "0.358";
    object      phiAlpha;
}
// * * * * * * * * * * * * * * * * * * * * * * * * * * * * * * * * * * * * * //

dimensions      [0 3 -1 0 0 0 0];

internalField   nonuniform List<scalar> 
19800
(
-1.54996e-60
2.16726e-64
2.68809e-59
-5.04137e-56
4.86131e-55
-5.42529e-52
1.72812e-51
-1.23371e-48
1.27683e-48
-5.86118e-46
2.56494e-46
-8.05909e-44
1.89914e-44
-4.34587e-42
6.41882e-43
-1.12546e-40
1.13865e-41
-1.59618e-39
1.16871e-40
-1.35552e-38
7.70608e-40
-7.57034e-38
3.62462e-39
-3.05249e-37
1.38866e-38
-1.00678e-36
5.12629e-38
-3.2031e-36
1.98566e-37
-1.07401e-35
8.09961e-37
-3.80494e-35
3.64471e-36
-1.47363e-34
1.76483e-35
-6.11858e-34
8.27431e-35
-2.46966e-33
3.70773e-34
-9.50017e-33
1.56446e-33
-3.44264e-32
6.13813e-33
-1.16315e-31
2.23883e-32
-3.65197e-31
7.56817e-32
-1.05808e-30
2.35297e-31
-2.80261e-30
6.60793e-31
-6.65157e-30
1.64252e-30
-1.37607e-29
3.55287e-30
-2.41773e-29
6.36008e-30
-3.46587e-29
8.66971e-30
-3.84008e-29
8.87609e-30
-3.27136e-29
6.85131e-30
-2.18527e-29
4.09888e-30
-1.20324e-29
1.98819e-30
-5.93176e-30
8.27407e-31
-2.83227e-30
3.11969e-31
-1.34331e-30
1.09978e-31
-6.1587e-31
3.62351e-32
-2.61574e-31
1.09455e-32
-9.93429e-32
2.96708e-33
-3.29149e-32
7.06127e-34
-9.32317e-33
1.44929e-34
-2.22568e-33
2.52474e-35
-4.42899e-34
3.6814e-36
-7.27946e-35
4.45151e-37
-9.81982e-36
4.57062e-38
-1.10405e-36
8.32734e-39
-1.72067e-37
1.32193e-38
-1.95793e-37
3.11144e-38
-3.87095e-37
-6.25864e-37
6.61329e-38
4.55888e-60
-1.30741e-57
2.29749e-55
-8.24938e-53
2.56072e-51
-8.1811e-49
6.9872e-48
-1.60232e-45
4.06174e-45
-6.30745e-43
6.78672e-43
-7.44505e-41
4.38941e-41
-3.57387e-39
1.34427e-39
-8.48895e-38
2.22413e-38
-1.1328e-36
2.17592e-37
-9.23461e-36
1.38401e-36
-5.00455e-35
6.29055e-36
-1.96134e-34
2.31715e-35
-6.24085e-34
8.16511e-35
-1.89461e-33
3.00982e-34
-6.02671e-33
1.16456e-33
-2.02058e-32
4.89782e-33
-7.3291e-32
2.19799e-32
-2.82218e-31
9.55524e-32
-1.05966e-30
3.95063e-31
-3.77098e-30
1.53827e-30
-1.2584e-29
5.59507e-30
-3.93006e-29
1.89976e-29
-1.14696e-28
5.99834e-29
-3.10709e-28
1.75136e-28
-7.73326e-28
4.65436e-28
-1.73922e-27
1.1006e-27
-3.45041e-27
2.26777e-27
-5.86115e-27
3.92998e-27
-8.27123e-27
5.43924e-27
-9.34488e-27
5.95899e-27
-8.42267e-27
5.18164e-27
-6.16505e-27
3.61688e-27
-3.81229e-27
2.0811e-27
-2.12508e-27
1.02448e-27
-1.13713e-27
4.48125e-28
-5.95543e-28
1.7868e-28
-2.98187e-28
6.54462e-29
-1.37695e-28
2.18872e-29
-5.69145e-29
6.60201e-30
-2.0612e-29
1.76633e-30
-6.42871e-30
4.13144e-31
-1.7056e-30
8.34573e-32
-3.81253e-31
1.44152e-32
-7.12665e-32
2.11645e-33
-1.10906e-32
2.68865e-34
-1.46354e-33
4.94298e-35
-2.70089e-34
7.00665e-35
-3.42442e-34
1.86611e-34
-7.66355e-34
-1.43362e-33
4.65252e-34
3.22183e-57
-5.52171e-55
1.5891e-52
-3.05258e-50
1.78572e-48
-3.41153e-46
4.18686e-45
-5.68167e-43
1.98473e-42
-1.84496e-40
2.80183e-40
-1.86604e-38
1.59169e-38
-7.95323e-37
4.42342e-37
-1.72932e-35
6.82867e-36
-2.16833e-34
6.37127e-35
-1.69583e-33
3.91263e-34
-8.92046e-33
1.72176e-33
-3.404e-32
6.10027e-33
-1.04548e-31
2.04648e-32
-3.02213e-31
7.14437e-32
-9.07502e-31
2.61276e-31
-2.86628e-30
1.02827e-30
-9.74254e-30
4.27736e-30
-3.48402e-29
1.72935e-29
-1.21985e-28
6.6143e-29
-4.03065e-28
2.37191e-28
-1.24087e-27
7.97582e-28
-3.57879e-27
2.51748e-27
-9.70335e-27
7.43144e-27
-2.4604e-26
2.03786e-26
-5.76855e-26
5.12638e-26
-1.23067e-25
1.16005e-25
-2.3405e-25
2.30287e-25
-3.85472e-25
3.90682e-25
-5.35704e-25
5.46781e-25
-6.11582e-25
6.26389e-25
-5.71771e-25
5.88211e-25
-4.4437e-25
4.54822e-25
-2.97321e-25
2.94322e-25
-1.81112e-25
1.63796e-25
-1.0591e-25
8.06283e-26
-6.03192e-26
3.58331e-26
-3.26964e-26
1.451e-26
-1.63145e-26
5.34597e-27
-7.29241e-27
1.77776e-27
-2.86156e-27
5.26904e-28
-9.70732e-28
1.37582e-28
-2.81482e-28
3.13324e-29
-6.91558e-29
6.1757e-30
-1.43032e-29
1.04985e-30
-2.48233e-30
1.57261e-31
-3.71609e-31
3.44602e-32
-8.82205e-32
5.49907e-32
-1.42028e-31
1.6883e-31
-3.57257e-31
-7.51395e-31
5.066e-31
5.98451e-55
-7.26379e-53
3.51503e-50
-5.1833e-48
4.7378e-46
-6.8869e-44
9.55352e-43
-9.32488e-41
3.72594e-40
-2.4841e-38
4.47858e-38
-2.15187e-36
2.24364e-36
-8.14413e-35
5.67262e-35
-1.62183e-33
8.18517e-34
-1.91108e-32
7.29504e-33
-1.43431e-31
4.3332e-32
-7.33007e-31
1.85146e-31
-2.72991e-30
6.3178e-31
-8.10629e-30
2.0146e-30
-2.22966e-29
6.63033e-30
-6.29506e-29
2.28189e-29
-1.86416e-28
8.40886e-29
-5.93278e-28
3.24653e-28
-1.97249e-27
1.2234e-27
-6.44845e-27
4.34303e-27
-1.98361e-26
1.43631e-26
-5.65401e-26
4.45858e-26
-1.50765e-25
1.30685e-25
-3.79765e-25
3.60856e-25
-9.01598e-25
9.31311e-25
-1.99392e-24
2.21951e-24
-4.04062e-24
4.80622e-24
-7.36081e-24
9.22844e-24
-1.17482e-23
1.53697e-23
-1.6035e-23
2.1649e-23
-1.83552e-23
2.55963e-23
-1.7539e-23
2.53694e-23
-1.41905e-23
2.1098e-23
-1.00393e-23
1.48707e-23
-6.53668e-24
9.06429e-24
-4.1092e-24
4.88776e-24
-2.51757e-24
2.3734e-24
-1.46605e-24
1.04753e-24
-7.85003e-25
4.20451e-25
-3.76523e-25
1.52415e-25
-1.58636e-25
4.93824e-26
-5.7882e-26
1.41543e-26
-1.80898e-26
3.55695e-27
-4.80189e-27
7.78756e-28
-1.07627e-27
1.48269e-28
-2.03235e-28
2.53271e-29
-3.37859e-29
7.19016e-30
-1.08079e-29
1.47274e-29
-2.18014e-29
5.18011e-29
-5.80314e-29
-1.22003e-28
1.82456e-28
4.83651e-53
-4.82295e-51
4.10526e-48
-6.19569e-46
6.84978e-44
-8.24167e-42
1.13838e-40
-8.72823e-39
3.65308e-38
-1.90553e-36
3.7557e-36
-1.4169e-34
1.66586e-34
-4.77541e-33
3.84462e-33
-8.72481e-32
5.19682e-32
-9.66838e-31
4.43217e-31
-6.96635e-30
2.55156e-30
-3.46223e-29
1.06188e-29
-1.26145e-28
3.4975e-29
-3.63107e-28
1.05979e-28
-9.50943e-28
3.27584e-28
-2.51786e-27
1.05612e-27
-6.95909e-27
3.64132e-27
-2.06835e-26
1.30623e-26
-6.39471e-26
4.5934e-26
-1.95395e-25
1.51721e-25
-5.60537e-25
4.6429e-25
-1.48388e-24
1.3316e-24
-3.66869e-24
3.62309e-24
-8.59479e-24
9.35783e-24
-1.91101e-23
2.27542e-23
-3.9888e-23
5.14405e-23
-7.68118e-23
1.06545e-22
-1.33931e-22
1.97976e-22
-2.06724e-22
3.23482e-22
-2.7618e-22
4.56662e-22
-3.1456e-22
5.52052e-22
-3.0378e-22
5.70055e-22
-2.52139e-22
5.01159e-22
-1.85638e-22
3.76906e-22
-1.27408e-22
2.46374e-22
-8.53082e-23
1.42754e-22
-5.59162e-23
7.45302e-23
-3.48406e-23
3.53881e-23
-1.99301e-23
1.52961e-23
-1.01983e-23
5.97824e-24
-4.58154e-24
2.09245e-24
-1.7829e-24
6.49271e-25
-5.94567e-25
1.77074e-25
-1.68517e-25
4.22103e-26
-4.03616e-26
8.79001e-27
-8.15775e-27
1.678e-27
-1.4856e-27
6.47408e-28
-6.21905e-28
1.68318e-27
-1.40926e-27
6.41184e-27
-3.66573e-27
-6.92476e-27
2.38619e-26
2.25555e-51
-2.08777e-49
3.6483e-46
-6.0931e-44
6.26262e-42
-6.36881e-40
8.24209e-39
-5.20298e-37
2.17823e-36
-9.3485e-35
1.92449e-34
-5.99838e-33
7.59652e-33
-1.80775e-31
1.60611e-31
-3.03625e-30
2.03812e-30
-3.1659e-29
1.66589e-29
-2.19012e-28
9.31185e-29
-1.05927e-27
3.786e-28
-3.78335e-27
1.20737e-27
-1.05937e-26
3.47994e-27
-2.64693e-26
1.00791e-26
-6.56735e-26
3.03059e-26
-1.68758e-25
9.75173e-26
-4.66355e-25
3.25088e-25
-1.33966e-24
1.06778e-24
-3.82889e-24
3.28676e-24
-1.02592e-23
9.33347e-24
-2.52862e-23
2.47955e-23
-5.81061e-23
6.26749e-23
-1.26866e-22
1.5141e-22
-2.64495e-22
3.46981e-22
-5.21454e-22
7.44335e-22
-9.54402e-22
1.47381e-21
-1.59066e-21
2.64691e-21
-2.36737e-21
4.23648e-21
-3.0845e-21
5.96785e-21
-3.47113e-21
7.33207e-21
-3.35286e-21
7.82374e-21
-2.81805e-21
7.19383e-21
-2.13327e-21
5.69751e-21
-1.5296e-21
3.9378e-21
-1.08719e-21
2.41919e-21
-7.61839e-22
1.34249e-21
-5.07603e-22
6.79064e-22
-3.09625e-22
3.13294e-22
-1.68475e-22
1.30922e-22
-8.03779e-23
4.90709e-23
-3.31997e-23
1.6324e-23
-1.17506e-23
4.77812e-24
-3.53481e-24
1.22395e-24
-8.98341e-25
2.7454e-25
-1.92675e-25
5.78558e-26
-3.78779e-26
2.95149e-26
-1.85601e-26
8.7576e-26
-4.24682e-26
3.35623e-25
-1.02858e-25
-1.65527e-25
1.21031e-24
7.3907e-50
-7.23651e-48
2.80717e-44
-4.58801e-42
3.85899e-40
-3.35323e-38
3.95857e-37
-2.1227e-35
8.65534e-35
-3.16388e-33
6.61386e-33
-1.76302e-31
2.33589e-31
-4.76856e-30
4.53876e-30
-7.37371e-29
5.41542e-29
-7.23469e-28
4.24592e-28
-4.80263e-27
2.30752e-27
-2.26074e-26
9.18893e-27
-7.92596e-26
2.8483e-26
-2.16747e-25
7.82685e-26
-5.18427e-25
2.12289e-25
-1.20666e-24
5.9309e-25
-2.87493e-24
1.77332e-24
-7.34614e-24
5.48908e-24
-1.95697e-23
1.68515e-23
-5.23103e-23
4.84047e-23
-1.31105e-22
1.27843e-22
-3.01481e-22
3.15268e-22
-6.45296e-22
7.41574e-22
-1.3158e-21
1.67702e-21
-2.57707e-21
3.62361e-21
-4.80559e-21
7.37583e-21
-8.36397e-21
1.39433e-20
-1.33137e-20
2.41461e-20
-1.90517e-20
3.77782e-20
-2.40951e-20
5.29023e-20
-2.66118e-20
6.57333e-20
-2.54591e-20
7.20766e-20
-2.13846e-20
6.8856e-20
-1.64671e-20
5.692e-20
-1.22694e-20
4.11889e-20
-9.27337e-21
2.65845e-20
-6.96576e-21
1.55584e-20
-4.97265e-21
8.32908e-21
-3.23604e-21
4.07878e-21
-1.8711e-21
1.81376e-21
-9.46759e-22
7.24596e-22
-4.145e-22
2.57207e-22
-1.55517e-22
8.03888e-23
-4.95926e-23
2.19952e-23
-1.33518e-23
5.27493e-24
-3.02962e-24
1.21105e-24
-6.30423e-25
7.32146e-25
-3.14396e-25
2.23613e-24
-6.75024e-25
8.27815e-24
-1.49347e-24
-1.92691e-24
2.83136e-23
2.03711e-48
-2.88013e-46
1.71643e-42
-2.49448e-40
1.67246e-38
-1.26362e-36
1.34061e-35
-6.264e-34
2.44357e-33
-7.80743e-32
1.62593e-31
-3.79843e-30
5.16031e-30
-9.24631e-29
9.2351e-29
-1.31733e-27
1.03676e-27
-1.21531e-26
7.79769e-27
-7.73068e-26
4.12272e-26
-3.53897e-25
1.61076e-25
-1.21827e-24
4.87393e-25
-3.2664e-24
1.2815e-24
-7.5127e-24
3.25916e-24
-1.64541e-23
8.43813e-24
-3.63081e-23
2.33153e-23
-8.53285e-23
6.68809e-23
-2.10073e-22
1.91865e-22
-5.24526e-22
5.14962e-22
-1.23147e-21
1.26726e-21
-2.64715e-21
2.90628e-21
-5.28765e-21
6.37246e-21
-1.00891e-20
1.35095e-20
-1.86036e-20
2.75484e-20
-3.28576e-20
5.32119e-20
-5.44561e-20
9.59366e-20
-8.28516e-20
1.59778e-19
-1.13842e-19
2.43525e-19
-1.39228e-19
3.37817e-19
-1.5006e-19
4.23097e-19
-1.40804e-19
4.75042e-19
-1.16398e-19
4.69504e-19
-9.02404e-20
4.02452e-19
-6.96326e-20
3.02567e-19
-5.63658e-20
2.03701e-19
-4.56239e-20
1.25054e-19
-3.50164e-20
7.06061e-20
-2.43591e-20
3.66219e-20
-1.4985e-20
1.73071e-20
-8.049e-21
7.36515e-21
-3.73977e-21
2.78911e-21
-1.48995e-21
9.30695e-22
-5.0476e-22
2.71867e-22
-1.44298e-22
6.95844e-23
-3.46813e-23
1.70914e-23
-7.50719e-24
1.06704e-23
-3.35464e-24
3.12959e-23
-6.34036e-24
1.10911e-22
-1.25876e-23
-1.17439e-23
3.57786e-22
6.6833e-47
-1.70338e-44
7.8007e-41
-1.00025e-38
5.32077e-37
-3.56501e-35
3.36232e-34
-1.39671e-32
5.14722e-32
-1.46589e-30
2.9983e-30
-6.25245e-29
8.57752e-29
-1.37237e-27
1.41552e-27
-1.80136e-26
1.49475e-26
-1.55999e-25
1.07738e-25
-9.48449e-25
5.53921e-25
-4.21369e-24
2.1247e-24
-1.42281e-23
6.30214e-24
-3.75186e-23
1.593e-23
-8.34142e-23
3.81109e-23
-1.7274e-22
9.13486e-23
-3.53438e-22
2.32019e-22
-7.60885e-22
6.14647e-22
-1.72303e-21
1.64553e-21
-4.00892e-21
4.13215e-21
-8.8278e-21
9.49065e-21
-1.77747e-20
2.02725e-20
-3.31858e-20
4.14986e-20
-5.93706e-20
8.26078e-20
-1.03228e-19
1.59094e-19
-1.7294e-19
2.91812e-19
-2.73353e-19
5.01819e-19
-3.98342e-19
8.0244e-19
-5.26511e-19
1.18784e-18
-6.23149e-19
1.62809e-18
-6.55554e-19
2.05179e-18
-5.99007e-19
2.3565e-18
-4.77207e-19
2.40504e-18
-3.69053e-19
2.12381e-18
-2.94746e-19
1.64607e-18
-2.58993e-19
1.14867e-18
-2.26515e-19
7.36794e-19
-1.87295e-19
4.3816e-19
-1.39527e-19
2.40918e-19
-9.1437e-20
1.21234e-19
-5.22194e-20
5.51011e-20
-2.58159e-20
2.23302e-20
-1.09622e-20
7.98274e-21
-3.96303e-21
2.49826e-21
-1.2087e-21
6.84094e-22
-3.08929e-22
1.76936e-22
-6.90919e-23
1.00664e-22
-2.53093e-23
2.67218e-22
-3.87036e-23
9.02837e-22
-6.75088e-23
-3.33818e-23
2.77099e-21
3.35032e-45
-1.01738e-42
2.67684e-39
-3.07532e-37
1.2941e-35
-7.8082e-34
6.49761e-33
-2.43843e-31
8.40688e-31
-2.16709e-29
4.30409e-29
-8.12958e-28
1.11209e-27
-1.61086e-26
1.69258e-26
-1.94652e-25
1.67888e-25
-1.57832e-24
1.15706e-24
-9.13655e-24
5.7747e-24
-3.92487e-23
2.17299e-23
-1.29644e-22
6.33938e-23
-3.36713e-22
1.54891e-22
-7.27527e-22
3.50327e-22
-1.43323e-21
7.78381e-22
-2.72971e-21
1.81017e-21
-5.37441e-21
4.40766e-21
-1.11378e-20
1.09848e-20
-2.40593e-20
2.58363e-20
-4.97191e-20
5.54819e-20
-9.39659e-20
1.10515e-19
-1.64263e-19
2.11522e-19
-2.75916e-19
3.9573e-19
-4.52698e-19
7.20271e-19
-7.19767e-19
1.25518e-18
-1.08576e-18
2.06067e-18
-1.51909e-18
3.16604e-18
-1.94095e-18
4.55449e-18
-2.24239e-18
6.18472e-18
-2.33383e-18
7.86616e-18
-2.07763e-18
9.26587e-18
-1.54501e-18
9.79024e-18
-1.18853e-18
8.84345e-18
-9.8566e-19
6.9868e-18
-9.65625e-19
5.00331e-18
-9.06888e-19
3.33513e-18
-8.05485e-19
2.08761e-18
-6.40893e-19
1.21952e-18
-4.45875e-19
6.5585e-19
-2.70172e-19
3.19854e-19
-1.42165e-19
1.39469e-19
-6.45233e-20
5.37252e-20
-2.50109e-20
1.81198e-20
-8.18669e-21
5.33546e-21
-2.23898e-21
1.44546e-21
-5.2073e-22
6.87326e-22
-1.52936e-22
1.5263e-21
-1.66799e-22
4.9094e-21
-2.45418e-22
7.64929e-24
1.44834e-20
1.73448e-43
-4.72012e-41
7.18166e-38
-7.48535e-36
2.48693e-34
-1.36813e-32
9.99513e-32
-3.43025e-30
1.09849e-29
-2.59339e-28
4.95756e-28
-8.57939e-27
1.15825e-26
-1.53609e-25
1.62477e-25
-1.70711e-24
1.51024e-24
-1.29207e-23
9.91644e-24
-7.08664e-23
4.78789e-23
-2.92778e-22
1.76316e-22
-9.41602e-22
5.06782e-22
-2.40617e-21
1.2036e-21
-5.07596e-21
2.58977e-21
-9.57525e-21
5.35544e-21
-1.70859e-20
1.13858e-20
-3.08264e-20
2.53547e-20
-5.8205e-20
5.86063e-20
-1.16204e-19
1.29169e-19
-2.25338e-19
2.59829e-19
-4.00412e-19
4.83304e-19
-6.56541e-19
8.65635e-19
-1.03598e-18
1.52213e-18
-1.60338e-18
2.61697e-18
-2.41584e-18
4.32961e-18
-3.47171e-18
6.78903e-18
-4.65966e-18
1.00485e-17
-5.77324e-18
1.41458e-17
-6.59293e-18
1.93043e-17
-6.99422e-18
2.50894e-17
-6.15629e-18
3.06371e-17
-4.06214e-18
3.40109e-17
-3.21154e-18
3.11749e-17
-2.77277e-18
2.4672e-17
-3.21953e-18
1.78124e-17
-3.14081e-18
1.22055e-17
-2.96305e-18
8.00665e-18
-2.49415e-18
4.96468e-18
-1.8206e-18
2.8569e-18
-1.15814e-18
1.49953e-18
-6.44072e-19
7.06815e-19
-3.11511e-19
2.95152e-19
-1.29587e-19
1.08015e-19
-4.57135e-20
3.44476e-20
-1.34686e-20
9.85242e-21
-3.30593e-21
3.84008e-21
-8.21611e-22
6.3319e-21
-5.55334e-22
1.91944e-20
-6.26593e-22
2.44235e-22
5.49049e-20
7.10336e-42
-1.73519e-39
1.55034e-36
-1.47824e-34
3.88072e-33
-1.96163e-31
1.25639e-30
-3.97185e-29
1.17772e-28
-2.56499e-27
4.69663e-27
-7.50294e-26
9.93044e-26
-1.21541e-24
1.28275e-24
-1.2418e-23
1.11409e-23
-8.75058e-23
6.93695e-23
-4.52433e-22
3.2236e-22
-1.78582e-21
1.1566e-21
-5.55482e-21
3.27281e-21
-1.39072e-20
7.59253e-21
-2.87218e-20
1.56479e-20
-5.21989e-20
3.03178e-20
-8.79813e-20
5.90519e-20
-1.46387e-19
1.19744e-19
-2.51263e-19
2.55569e-19
-4.61461e-19
5.27781e-19
-8.39781e-19
9.96017e-19
-1.40405e-18
1.73265e-18
-2.16131e-18
2.90438e-18
-3.2031e-18
4.79504e-18
-4.66689e-18
7.76745e-18
-6.63671e-18
1.21566e-17
-9.03159e-18
1.81398e-17
-1.15631e-17
2.58446e-17
-1.38931e-17
3.59001e-17
-1.58042e-17
5.05569e-17
-1.79381e-17
6.88988e-17
-1.6653e-17
9.00334e-17
-9.00323e-18
1.11406e-16
-7.95062e-18
1.03066e-16
-6.44522e-18
7.91655e-17
-1.14033e-17
5.55353e-17
-1.0623e-17
3.82728e-17
-1.03309e-17
2.60363e-17
-8.8721e-18
1.70113e-17
-6.5445e-18
1.04112e-17
-4.24223e-18
5.85785e-18
-2.44658e-18
2.98101e-18
-1.24847e-18
1.35182e-18
-5.55387e-19
5.39343e-19
-2.11318e-19
1.87672e-19
-6.73463e-20
5.75847e-20
-1.7679e-20
1.94758e-20
-4.0775e-21
2.09097e-20
-1.60038e-21
5.72498e-20
-1.11951e-21
1.51015e-21
1.59915e-19
2.33962e-40
-5.14633e-38
2.75229e-35
-2.40459e-33
5.01764e-32
-2.33251e-30
1.31534e-29
-3.83355e-28
1.05549e-27
-2.12325e-26
3.72856e-26
-5.50889e-25
7.14344e-25
-8.09192e-24
8.49415e-24
-7.6086e-23
6.8764e-23
-4.98729e-22
4.04052e-22
-2.42178e-21
1.79572e-21
-9.0748e-21
6.23756e-21
-2.70901e-20
1.73088e-20
-6.59629e-20
3.93428e-20
-1.33299e-19
7.81658e-20
-2.34468e-19
1.431e-19
-3.76462e-19
2.57039e-19
-5.83522e-19
4.73648e-19
-9.12153e-19
9.29268e-19
-1.53309e-18
1.7986e-18
-2.62476e-18
3.18688e-18
-4.12902e-18
5.18888e-18
-5.96289e-18
8.13687e-18
-8.29082e-18
1.25816e-17
-1.13353e-17
1.91069e-17
-1.50984e-17
2.80662e-17
-1.92643e-17
3.94783e-17
-2.3441e-17
5.38112e-17
-2.77691e-17
7.3755e-17
-3.13621e-17
1.11157e-16
-4.11033e-17
1.69353e-16
-4.38104e-17
2.60219e-16
-1.22903e-17
4.00091e-16
-8.60289e-18
3.77436e-16
4.17177e-19
2.68908e-16
-3.11678e-17
1.72125e-16
-3.38107e-17
1.13599e-16
-3.62587e-17
7.73166e-17
-3.04146e-17
5.16284e-17
-2.10214e-17
3.28199e-17
-1.31554e-17
1.94841e-17
-7.6517e-18
1.061e-17
-4.07463e-18
5.2071e-18
-1.9354e-18
2.2664e-18
-7.9719e-19
8.64099e-19
-2.76577e-19
2.88567e-19
-7.85536e-20
9.32071e-20
-1.81525e-20
6.18261e-20
-4.52062e-21
1.3762e-19
-1.21497e-21
5.83139e-21
3.74235e-19
6.292e-39
-1.24122e-36
4.06912e-34
-3.23479e-32
5.43569e-31
-2.30877e-29
1.15911e-28
-3.09637e-27
7.99207e-27
-1.47728e-25
2.50823e-25
-3.41234e-24
4.36375e-24
-4.55958e-23
4.78168e-23
-3.95588e-22
3.60544e-22
-2.41554e-21
1.99227e-21
-1.10069e-20
8.41677e-21
-3.90005e-20
2.80965e-20
-1.1099e-19
7.59298e-20
-2.6052e-19
1.6909e-19
-5.12847e-19
3.2549e-19
-8.74852e-19
5.68046e-19
-1.3475e-18
9.50818e-19
-1.96863e-18
1.59558e-18
-2.81752e-18
2.86381e-18
-4.30191e-18
5.20982e-18
-6.97879e-18
8.66954e-18
-1.03447e-17
1.32055e-17
-1.3987e-17
1.93551e-17
-1.81828e-17
2.79406e-17
-2.32578e-17
3.946e-17
-2.87106e-17
5.3786e-17
-3.37953e-17
7.07814e-17
-3.87486e-17
9.29501e-17
-4.5643e-17
1.23808e-16
-4.83727e-17
2.10909e-16
-9.8848e-17
3.76988e-16
-9.01772e-17
6.0291e-16
-7.74927e-18
8.76768e-16
-1.32348e-19
8.20725e-16
2.31201e-16
7.18748e-16
1.9604e-17
5.12368e-16
-5.96661e-17
3.38139e-16
-8.16595e-17
2.20385e-16
-7.17573e-17
1.41399e-16
-4.734e-17
8.92118e-17
-2.93111e-17
5.44637e-17
-1.76033e-17
3.13731e-17
-9.99832e-18
1.66165e-17
-5.17318e-18
7.90935e-18
-2.34802e-18
3.32374e-18
-9.00196e-19
1.22338e-18
-2.80496e-19
4.09217e-19
-6.79551e-20
1.86674e-19
-1.28344e-20
2.83854e-19
1.96861e-22
1.67399e-20
7.30831e-19
1.38904e-37
-2.42018e-35
5.01869e-33
-3.57914e-31
4.94206e-30
-1.89561e-28
8.61459e-28
-2.08734e-26
5.12479e-26
-8.62028e-25
1.43403e-24
-1.77997e-23
2.27275e-23
-2.17162e-22
2.30115e-22
-1.7447e-21
1.61867e-21
-9.95725e-21
8.40608e-21
-4.26694e-20
3.36367e-20
-1.4295e-19
1.07235e-19
-3.86649e-19
2.79889e-19
-8.687e-19
6.08316e-19
-1.65409e-18
1.13758e-18
-2.73414e-18
1.90699e-18
-4.05723e-18
3.0108e-18
-5.64437e-18
4.6272e-18
-7.43147e-18
7.5458e-18
-1.02395e-17
1.30033e-17
-1.58644e-17
2.03637e-17
-2.22111e-17
2.89775e-17
-2.79579e-17
3.95967e-17
-3.3717e-17
5.32614e-17
-4.04566e-17
6.92689e-17
-4.59267e-17
8.62223e-17
-4.89636e-17
1.05026e-16
-5.37253e-17
1.32986e-16
-6.31912e-17
1.58458e-16
-8.23475e-17
3.93559e-16
-8.26447e-17
6.00808e-16
-1.14974e-16
1.14455e-15
-3.71884e-16
8.72026e-15
-7.88495e-17
4.9726e-15
1.56241e-15
4.47574e-16
-1.2815e-15
8.27746e-16
-2.82702e-16
6.32311e-16
-1.00424e-16
4.27985e-16
-9.58169e-17
2.78376e-16
-7.03079e-17
1.79696e-16
-4.64578e-17
1.15192e-16
-2.98224e-17
7.14839e-17
-1.84348e-17
4.15478e-17
-1.05689e-17
2.19548e-17
-5.37049e-18
1.03085e-17
-2.30456e-18
4.24487e-18
-7.94911e-19
1.54761e-18
-2.0545e-19
5.97609e-19
-3.28034e-20
5.50124e-19
3.84803e-21
3.88093e-20
1.23534e-18
2.49655e-36
-3.74874e-34
5.12451e-32
-3.22374e-30
3.75016e-29
-1.28194e-27
5.37509e-27
-1.16767e-25
2.7718e-25
-4.19672e-24
6.94299e-24
-7.77942e-23
1.00609e-22
-8.6978e-22
9.4467e-22
-6.49407e-21
6.22046e-21
-3.47703e-20
3.04331e-20
-1.40653e-19
1.1537e-19
-4.46888e-19
3.50364e-19
-1.15051e-18
8.77519e-19
-2.46895e-18
1.8497e-18
-4.52184e-18
3.3605e-18
-7.22695e-18
5.43929e-18
-1.03528e-17
8.18916e-18
-1.38113e-17
1.15855e-17
-1.67772e-17
1.70593e-17
-2.13975e-17
2.80905e-17
-3.14331e-17
4.15314e-17
-4.08115e-17
5.49472e-17
-4.69579e-17
6.95615e-17
-5.20869e-17
8.76395e-17
-5.95289e-17
1.0453e-16
-6.10887e-17
1.16987e-16
-5.60937e-17
1.33862e-16
-6.39341e-17
1.63539e-16
-6.72237e-17
5.72718e-16
-6.48677e-17
3.96366e-16
-1.87318e-16
4.06381e-16
-9.68258e-17
1.14345e-14
-2.28132e-16
1.26346e-14
-3.88579e-16
1.41489e-14
9.35832e-16
1.43628e-14
-6.04329e-16
5.94328e-16
-2.09046e-16
5.53552e-16
-1.37863e-16
5.06572e-16
-1.22622e-16
3.85079e-16
-8.62958e-17
2.69469e-16
-5.93966e-17
1.85594e-16
-4.10898e-17
1.25764e-16
-2.78799e-17
8.12026e-17
-1.78001e-17
4.82016e-17
-1.01688e-17
2.55611e-17
-4.89024e-18
1.18994e-17
-1.86083e-18
4.85142e-18
-5.10139e-19
1.86045e-18
-6.70533e-20
1.11475e-18
1.60837e-20
7.75535e-20
1.88841e-18
3.5819e-35
-4.51596e-33
4.27894e-31
-2.33898e-29
2.35398e-28
-7.08931e-27
2.79444e-26
-5.38906e-25
1.25569e-24
-1.69588e-23
2.82726e-23
-2.83474e-22
3.75951e-22
-2.91469e-21
3.2853e-21
-2.02865e-20
2.03284e-20
-1.02215e-19
9.40643e-20
-3.91674e-19
3.38956e-19
-1.18467e-18
9.82432e-19
-2.91444e-18
2.35768e-18
-5.9911e-18
4.79733e-18
-1.0554e-17
8.4591e-18
-1.63146e-17
1.32649e-17
-2.26338e-17
1.92016e-17
-2.91266e-17
2.50986e-17
-3.33605e-17
3.42401e-17
-4.25778e-17
5.35069e-17
-5.77545e-17
7.3413e-17
-6.47499e-17
8.87678e-17
-6.96021e-17
1.03344e-16
-7.30523e-17
1.24098e-16
-8.0535e-17
1.34796e-16
-6.62396e-17
1.30921e-16
-4.5671e-17
1.55617e-16
-1.05762e-16
1.6896e-16
-8.30466e-17
1.71019e-16
-7.58967e-17
3.6961e-16
-6.87716e-17
3.93212e-16
-9.15772e-17
2.40213e-15
-1.17243e-16
1.156e-14
-1.12433e-15
1.34576e-14
-6.79111e-17
1.00238e-15
-1.16119e-15
8.81233e-16
-1.72531e-16
8.42969e-16
-1.45606e-16
6.59852e-16
-1.14953e-16
4.7226e-16
-8.5146e-17
3.38501e-16
-6.42749e-17
2.50008e-16
-4.93126e-17
1.85881e-16
-3.68764e-17
1.33493e-16
-2.62128e-17
8.89482e-17
-1.68478e-17
5.32141e-17
-9.03366e-18
2.7991e-17
-3.74245e-18
1.28436e-17
-1.06554e-18
5.27617e-18
-9.06796e-20
2.49005e-18
5.70781e-20
1.44139e-19
2.78437e-18
4.00834e-34
-4.15929e-32
2.88591e-30
-1.3554e-28
1.21137e-27
-3.18737e-26
1.20146e-25
-2.04332e-24
4.73237e-24
-5.67e-23
9.61944e-23
-8.59002e-22
1.1778e-21
-8.15305e-21
9.60774e-21
-5.30517e-20
5.60361e-20
-2.52167e-19
2.46096e-19
-9.17541e-19
8.46232e-19
-2.64905e-18
2.35082e-18
-6.24858e-18
5.42425e-18
-1.23608e-17
1.06634e-17
-2.1045e-17
1.82795e-17
-3.16351e-17
2.79113e-17
-4.29017e-17
3.91522e-17
-5.39196e-17
4.83945e-17
-6.22233e-17
6.61843e-17
-7.51653e-17
9.55154e-17
-9.13786e-17
1.13367e-16
-8.74362e-17
1.28312e-16
-1.18609e-16
1.41586e-16
-1.24568e-16
1.63568e-16
-1.24592e-16
2.21002e-16
-1.2126e-16
2.92211e-16
-1.05942e-16
2.61488e-16
-2.13797e-16
2.13206e-16
-1.03423e-16
2.03207e-16
-8.19555e-17
2.12989e-16
-7.50755e-17
3.47369e-16
-7.22832e-17
6.21351e-16
-9.41954e-17
2.37129e-15
-1.02547e-16
2.50958e-15
-8.42587e-17
1.34477e-15
-4.33993e-16
-3.90217e-17
-1.96861e-16
7.69984e-16
-1.17797e-16
5.92416e-16
-9.7681e-17
4.47811e-16
-8.14916e-17
3.56573e-16
-6.97e-17
2.95228e-16
-5.81033e-17
2.44438e-16
-4.66377e-17
1.9506e-16
-3.64692e-17
1.44911e-16
-2.61956e-17
9.70183e-17
-1.53301e-17
5.72467e-17
-6.68536e-18
2.94762e-17
-1.89682e-18
1.33354e-17
-1.54909e-21
5.88449e-18
1.90248e-19
2.7414e-19
4.32568e-18
3.43336e-33
-2.8961e-31
1.55626e-29
-6.231e-28
5.07318e-27
-1.16039e-25
4.24756e-25
-6.35209e-24
1.47675e-23
-1.56775e-22
2.72342e-22
-2.16629e-21
3.08141e-21
-1.90683e-20
2.35281e-20
-1.16407e-19
1.29638e-19
-5.23378e-19
5.41576e-19
-1.81228e-18
1.78164e-18
-5.00376e-18
4.75955e-18
-1.13389e-17
1.06091e-17
-2.16534e-17
2.02583e-17
-3.58108e-17
3.39823e-17
-5.2776e-17
5.1103e-17
-7.10188e-17
7.05431e-17
-8.94014e-17
8.83903e-17
-1.07477e-16
1.14922e-16
-1.30068e-16
1.48451e-16
-1.47607e-16
1.49774e-16
-1.56435e-16
2.15488e-16
-1.57756e-16
2.39959e-16
-2.12508e-16
2.50994e-16
-2.14306e-16
2.54374e-16
-1.8607e-16
2.49812e-16
-1.44899e-16
5.59078e-16
-1.01728e-16
2.75641e-16
-9.84059e-17
2.26659e-16
-9.22458e-17
2.32187e-16
-8.7764e-17
2.65924e-16
-8.48157e-17
3.89808e-16
-8.48553e-17
6.39299e-16
-8.05428e-17
8.18826e-16
-7.82893e-17
6.41164e-16
-9.84169e-17
6.8513e-16
-1.94722e-16
5.64495e-16
-1.0522e-16
4.64847e-16
-1.02351e-16
4.06219e-16
-9.7326e-17
3.72544e-16
-8.92814e-17
3.45794e-16
-7.76414e-17
3.14309e-16
-6.54142e-17
2.73453e-16
-5.63088e-17
2.21386e-16
-4.49447e-17
1.61782e-16
-2.72454e-17
1.04793e-16
-1.15282e-17
5.9731e-17
-2.99103e-18
2.98793e-17
2.30021e-19
1.35956e-17
5.75877e-19
5.71141e-19
7.54492e-18
2.22273e-32
-1.51314e-30
6.65637e-29
-2.26097e-27
1.71994e-26
-3.41522e-25
1.23077e-24
-1.62056e-23
3.80919e-23
-3.59529e-22
6.41252e-22
-4.56699e-21
6.73437e-21
-3.75084e-20
4.8285e-20
-2.15856e-19
2.51918e-19
-9.21603e-19
1.00283e-18
-3.04665e-18
3.16042e-18
-8.06589e-18
8.13032e-18
-1.75988e-17
1.75533e-17
-3.25215e-17
3.27121e-17
-5.24364e-17
5.41515e-17
-7.63359e-17
8.15178e-17
-1.03005e-16
1.13948e-16
-1.3307e-16
1.50375e-16
-1.73504e-16
1.97775e-16
-2.18289e-16
2.39572e-16
-2.44181e-16
2.6474e-16
-2.61223e-16
2.8128e-16
-2.7511e-16
4.07083e-16
-2.94465e-16
4.38391e-16
-2.75421e-16
3.9811e-16
-2.38243e-16
3.4511e-16
-1.86898e-16
2.79618e-16
-1.52212e-16
2.6427e-16
-1.27165e-16
2.59064e-16
-1.12332e-16
2.63427e-16
-1.0672e-16
2.78803e-16
-1.05803e-16
3.10533e-16
-1.03342e-16
3.75791e-16
-9.77558e-17
4.38683e-16
-9.73592e-17
4.88138e-16
-1.19903e-16
4.51154e-16
-1.682e-16
4.4808e-16
-1.39326e-16
4.49118e-16
-1.41507e-16
4.5325e-16
-1.35714e-16
4.62863e-16
-1.28999e-16
4.68995e-16
-1.16293e-16
4.59377e-16
-1.02555e-16
4.3093e-16
-1.07843e-16
3.67465e-16
-9.99169e-17
2.77525e-16
-5.96594e-17
1.86379e-16
-2.17835e-17
1.12787e-16
-4.58105e-18
6.10455e-17
9.62292e-19
2.95539e-17
1.55372e-18
1.28649e-18
1.45575e-17
1.07834e-31
-5.88086e-30
2.24453e-28
-6.46626e-27
4.70849e-26
-8.14494e-25
2.92308e-24
-3.40922e-23
8.13803e-23
-6.88394e-22
1.2602e-21
-8.11517e-21
1.23551e-20
-6.26596e-20
8.35503e-20
-3.42099e-19
4.14155e-19
-1.39473e-18
1.57497e-18
-4.42423e-18
4.76345e-18
-1.12841e-17
1.18138e-17
-2.3811e-17
2.47302e-17
-4.27606e-17
4.50711e-17
-6.75156e-17
7.40645e-17
-9.76474e-17
1.12688e-16
-1.31234e-16
1.63738e-16
-1.73782e-16
2.38171e-16
-2.47168e-16
3.30373e-16
-3.20837e-16
4.02166e-16
-3.62077e-16
4.47866e-16
-4.00474e-16
4.8758e-16
-4.35065e-16
5.58255e-16
-5.02096e-16
5.68739e-16
-4.38913e-16
5.27167e-16
-3.60246e-16
4.58264e-16
-2.75864e-16
3.93231e-16
-2.13435e-16
3.45469e-16
-1.70313e-16
3.14834e-16
-1.46698e-16
3.11407e-16
-1.32741e-16
3.24637e-16
-1.24649e-16
3.45334e-16
-1.21158e-16
3.74181e-16
-1.16431e-16
4.07839e-16
-1.18587e-16
4.82706e-16
-1.97534e-16
5.05494e-16
-1.96038e-16
5.41349e-16
-1.87395e-16
5.66841e-16
-1.80676e-16
5.97817e-16
-1.72169e-16
6.47135e-16
-1.62071e-16
7.11524e-16
-1.35425e-16
7.76642e-16
-1.36384e-16
8.5275e-16
-2.34104e-16
7.76118e-16
-3.29737e-16
5.70796e-16
-1.46177e-16
3.72769e-16
-3.923e-17
2.25664e-16
-6.05951e-18
1.25503e-16
2.9631e-18
6.32013e-17
3.95849e-18
3.03511e-18
3.0079e-17
3.88422e-31
-1.70636e-29
5.95513e-28
-1.46488e-26
1.04275e-25
-1.58494e-24
5.71481e-24
-5.96396e-23
1.44893e-22
-1.11114e-21
2.08308e-21
-1.22862e-20
1.92044e-20
-8.99776e-20
1.23214e-19
-4.69669e-19
5.8319e-19
-1.84167e-18
2.12777e-18
-5.64509e-18
6.19869e-18
-1.39692e-17
1.48665e-17
-2.8715e-17
3.02467e-17
-5.04737e-17
5.4013e-17
-7.85519e-17
8.83149e-17
-1.13468e-16
1.34287e-16
-1.48334e-16
2.01541e-16
-2.05066e-16
3.25183e-16
-3.12835e-16
4.75759e-16
-3.98053e-16
5.959e-16
-3.98747e-16
7.19657e-16
-4.42975e-16
7.78143e-16
-9.74471e-16
9.37865e-16
-7.13077e-16
9.14205e-16
-6.04975e-16
8.01751e-16
-3.94112e-16
6.69302e-16
-3.3358e-16
5.4166e-16
-2.75104e-16
4.52975e-16
-2.26665e-16
3.97405e-16
-1.89747e-16
3.69462e-16
-1.65036e-16
3.60871e-16
-1.45474e-16
3.75431e-16
-1.50818e-16
4.22731e-16
-1.77954e-16
6.96813e-16
-2.15732e-16
6.94373e-16
-2.30133e-16
6.72907e-16
-2.35553e-16
6.7275e-16
-2.28816e-16
6.84324e-16
-2.13848e-16
7.10744e-16
-1.96518e-16
7.6551e-16
-1.77298e-16
8.05568e-16
-1.48374e-16
1.12696e-15
-1.1e-16
2.03211e-15
-3.17406e-16
2.39963e-15
-2.69696e-15
1.30825e-15
-1.06202e-16
7.61046e-16
-3.23623e-17
4.4541e-16
-2.51808e-18
2.50458e-16
7.91303e-18
1.30752e-16
9.53135e-18
7.15956e-18
6.32418e-17
1.04247e-30
-3.7535e-29
1.24934e-27
-2.65712e-26
1.88103e-25
-2.54204e-24
9.27477e-24
-8.76542e-23
2.17076e-22
-1.52839e-21
2.92783e-21
-1.60327e-20
2.55999e-20
-1.12454e-19
1.56981e-19
-5.66178e-19
7.14195e-19
-2.15344e-18
2.51581e-18
-6.43349e-18
7.10319e-18
-1.55868e-17
1.65739e-17
-3.15117e-17
3.29572e-17
-5.47303e-17
5.79218e-17
-8.4586e-17
9.44498e-17
-1.22256e-16
1.39532e-16
-1.52432e-16
2.18598e-16
-2.44308e-16
3.81951e-16
-3.74162e-16
5.58795e-16
-3.63062e-16
6.32721e-16
-5.54614e-16
8.06481e-16
-3.22756e-16
1.81016e-15
-1.80971e-16
1.31049e-15
-1.62935e-16
1.24939e-15
-1.68858e-15
8.53075e-16
-1.43649e-16
7.97288e-16
2.66095e-17
6.96955e-16
-2.67724e-16
5.71895e-16
-2.65263e-16
4.83518e-16
-2.26202e-16
4.29259e-16
-1.91534e-16
3.89011e-16
-1.39938e-16
4.26246e-16
-1.90663e-16
5.43702e-16
-1.97e-16
6.77548e-16
-3.26217e-16
7.35088e-16
-3.48395e-16
7.5337e-16
-2.67982e-16
7.70453e-16
-2.8893e-16
7.67504e-16
-2.64064e-16
7.60026e-16
-2.33248e-16
7.60496e-16
-2.07896e-16
7.80298e-16
-1.78705e-16
1.81732e-15
-1.15573e-15
1.90958e-14
-1.40656e-15
1.91369e-14
-2.87634e-15
1.43704e-15
-2.7713e-15
7.29846e-16
-1.3587e-16
5.37762e-16
-1.46726e-18
3.86078e-16
1.51605e-17
2.36787e-16
1.97413e-17
1.57583e-17
1.26378e-16
2.11781e-30
-6.39084e-29
2.09584e-27
-3.90868e-26
2.79332e-25
-3.39734e-24
1.26307e-23
-1.09372e-22
2.76783e-22
-1.81053e-21
3.5418e-21
-1.82313e-20
2.9651e-20
-1.23744e-19
1.7526e-19
-6.06717e-19
7.72627e-19
-2.25955e-18
2.64899e-18
-6.64354e-18
7.30975e-18
-1.59202e-17
1.67392e-17
-3.19916e-17
3.28115e-17
-5.54606e-17
5.7123e-17
-8.56971e-17
9.29452e-17
-1.23471e-16
1.30654e-16
-1.51907e-16
2.36817e-16
-2.82491e-16
4.11303e-16
-3.84406e-16
9.06118e-16
-3.8397e-16
8.02566e-16
-3.73564e-16
1.21497e-15
-2.24385e-16
6.71175e-15
-2.92083e-15
2.18886e-14
-1.32618e-14
1.13371e-14
-6.76967e-15
3.32719e-15
-1.34899e-14
-7.3062e-17
-1.82971e-15
6.52371e-16
-2.90815e-16
6.2578e-16