/*--------------------------------*- C++ -*----------------------------------*\
| =========                 |                                                 |
| \\      /  F ield         | OpenFOAM: The Open Source CFD Toolbox           |
|  \\    /   O peration     | Version:  2.4.0                                 |
|   \\  /    A nd           | Web:      www.OpenFOAM.org                      |
|    \\/     M anipulation  |                                                 |
\*---------------------------------------------------------------------------*/
FoamFile
{
    version     2.0;
    format      ascii;
    class       volScalarField;
    location    "0.233";
    object      p_rgh;
}
// * * * * * * * * * * * * * * * * * * * * * * * * * * * * * * * * * * * * * //

dimensions      [1 -1 -2 0 0 0 0];

internalField   nonuniform List<scalar> 
10000
(
-0.0133337
-0.013333
-0.013332
-0.0133309
-0.0133301
-0.0133295
-0.0133295
-0.0133301
-0.0133314
-0.0133333
-0.0133359
-0.0133392
-0.0133431
-0.0133477
-0.0133531
-0.0133593
-0.0133665
-0.0133748
-0.0133842
-0.013395
-0.0134074
-0.0134213
-0.0134371
-0.0134549
-0.0134747
-0.0134965
-0.0135205
-0.0135464
-0.0135742
-0.0136037
-0.0136348
-0.0136672
-0.0137009
-0.0137355
-0.0137709
-0.013807
-0.0138434
-0.0138803
-0.0139176
-0.0139555
-0.0139941
-0.0140338
-0.0140747
-0.0141173
-0.0141616
-0.014208
-0.0142566
-0.0143075
-0.0143609
-0.0144169
-0.0133345
-0.013334
-0.0133332
-0.0133324
-0.0133318
-0.0133316
-0.0133317
-0.0133322
-0.0133333
-0.0133349
-0.0133371
-0.0133398
-0.0133431
-0.013347
-0.0133517
-0.0133572
-0.0133637
-0.0133714
-0.0133804
-0.0133908
-0.013403
-0.0134169
-0.0134327
-0.0134506
-0.0134705
-0.0134925
-0.0135166
-0.0135426
-0.0135703
-0.0135997
-0.0136304
-0.0136624
-0.0136955
-0.0137294
-0.0137639
-0.013799
-0.0138345
-0.0138705
-0.013907
-0.0139442
-0.0139822
-0.0140213
-0.0140618
-0.0141039
-0.0141479
-0.014194
-0.0142423
-0.0142931
-0.0143464
-0.0144023
-0.0133361
-0.0133354
-0.0133346
-0.0133338
-0.0133332
-0.0133328
-0.0133327
-0.013333
-0.0133337
-0.0133348
-0.0133364
-0.0133384
-0.0133411
-0.0133445
-0.0133487
-0.0133538
-0.0133601
-0.0133677
-0.0133766
-0.0133872
-0.0133996
-0.0134137
-0.0134298
-0.0134479
-0.013468
-0.0134901
-0.013514
-0.0135396
-0.0135667
-0.0135953
-0.013625
-0.0136557
-0.0136873
-0.0137197
-0.0137527
-0.0137863
-0.0138205
-0.0138552
-0.0138906
-0.0139269
-0.0139642
-0.0140029
-0.0140432
-0.0140852
-0.0141293
-0.0141756
-0.0142242
-0.0142752
-0.0143288
-0.0143849
-0.0133383
-0.0133371
-0.013336
-0.0133349
-0.0133339
-0.0133331
-0.0133324
-0.0133321
-0.0133321
-0.0133326
-0.0133335
-0.013335
-0.0133372
-0.0133403
-0.0133444
-0.0133496
-0.0133561
-0.013364
-0.0133736
-0.0133848
-0.0133978
-0.0134125
-0.0134291
-0.0134476
-0.0134677
-0.0134895
-0.0135128
-0.0135375
-0.0135633
-0.0135901
-0.0136179
-0.0136464
-0.0136758
-0.0137059
-0.0137368
-0.0137684
-0.0138008
-0.013834
-0.0138683
-0.0139037
-0.0139407
-0.0139792
-0.0140196
-0.0140621
-0.0141067
-0.0141536
-0.0142029
-0.0142546
-0.0143088
-0.0143655
-0.0133405
-0.0133388
-0.0133371
-0.0133355
-0.0133339
-0.0133323
-0.0133308
-0.0133296
-0.0133288
-0.0133284
-0.0133287
-0.0133297
-0.0133316
-0.0133346
-0.0133388
-0.0133444
-0.0133516
-0.0133605
-0.013371
-0.0133833
-0.0133972
-0.0134128
-0.01343
-0.0134487
-0.0134688
-0.01349
-0.0135123
-0.0135355
-0.0135594
-0.0135839
-0.013609
-0.0136347
-0.0136612
-0.0136886
-0.0137171
-0.0137465
-0.0137771
-0.0138088
-0.013842
-0.0138768
-0.0139134
-0.0139521
-0.0139929
-0.0140359
-0.0140812
-0.0141289
-0.014179
-0.0142314
-0.0142862
-0.0143434
-0.0133422
-0.0133399
-0.0133376
-0.0133353
-0.0133328
-0.0133303
-0.0133278
-0.0133256
-0.0133237
-0.0133225
-0.013322
-0.0133226
-0.0133243
-0.0133274
-0.0133321
-0.0133385
-0.0133468
-0.0133569
-0.0133688
-0.0133823
-0.0133975
-0.0134141
-0.0134319
-0.0134507
-0.0134705
-0.0134909
-0.0135118
-0.013533
-0.0135546
-0.0135764
-0.0135984
-0.0136209
-0.0136443
-0.013669
-0.0136951
-0.0137226
-0.0137514
-0.0137819
-0.0138141
-0.0138484
-0.0138848
-0.0139235
-0.0139646
-0.0140081
-0.0140539
-0.0141021
-0.0141526
-0.0142053
-0.0142604
-0.0143177
-0.0133428
-0.01334
-0.013337
-0.0133338
-0.0133304
-0.0133268
-0.0133232
-0.0133198
-0.0133169
-0.0133147
-0.0133136
-0.0133138
-0.0133155
-0.013319
-0.0133245
-0.013332
-0.0133416
-0.0133533
-0.0133668
-0.0133818
-0.0133983
-0.0134158
-0.0134341
-0.013453
-0.0134721
-0.0134914
-0.0135106
-0.0135297
-0.0135487
-0.0135676
-0.0135864
-0.0136055
-0.0136258
-0.0136481
-0.0136724
-0.0136984
-0.0137259
-0.0137553
-0.0137867
-0.0138204
-0.0138565
-0.013895
-0.013936
-0.0139794
-0.0140252
-0.0140732
-0.0141234
-0.0141759
-0.0142305
-0.0142874
-0.0133418
-0.0133385
-0.0133348
-0.0133308
-0.0133263
-0.0133215
-0.0133167
-0.0133121
-0.0133082
-0.0133052
-0.0133035
-0.0133034
-0.0133054
-0.0133095
-0.013316
-0.013325
-0.0133363
-0.0133497
-0.0133649
-0.0133816
-0.0133993
-0.0134177
-0.0134363
-0.0134549
-0.0134731
-0.013491
-0.0135083
-0.0135251
-0.0135417
-0.0135579
-0.0135736
-0.0135892
-0.0136065
-0.0136272
-0.0136506
-0.0136757
-0.0137024
-0.0137308
-0.0137614
-0.0137943
-0.0138296
-0.0138673
-0.0139075
-0.01395
-0.0139947
-0.0140416
-0.0140907
-0.014142
-0.0141956
-0.0142516
-0.0133387
-0.013335
-0.0133307
-0.0133258
-0.0133202
-0.0133143
-0.0133082
-0.0133025
-0.0132975
-0.0132938
-0.0132917
-0.0132917
-0.013294
-0.0132991
-0.0133069
-0.0133175
-0.0133306
-0.013346
-0.0133631
-0.0133813
-0.0134002
-0.0134192
-0.0134378
-0.0134558
-0.0134729
-0.0134892
-0.0135046
-0.0135194
-0.0135339
-0.013548
-0.013561
-0.013573
-0.0135872
-0.0136072
-0.0136312
-0.0136562
-0.013682
-0.0137094
-0.0137386
-0.0137701
-0.0138038
-0.0138399
-0.0138782
-0.0139188
-0.0139615
-0.0140063
-0.0140534
-0.0141029
-0.0141549
-0.0142097
-0.0133329
-0.0133289
-0.013324
-0.0133183
-0.0133118
-0.0133047
-0.0132975
-0.0132908
-0.013285
-0.0132807
-0.0132784
-0.0132786
-0.0132817
-0.0132879
-0.0132972
-0.0133097
-0.0133248
-0.0133423
-0.0133612
-0.0133809
-0.0134007
-0.0134201
-0.0134384
-0.0134555
-0.0134713
-0.0134859
-0.0134997
-0.0135128
-0.0135263
-0.0135393
-0.0135499
-0.0135572
-0.0135672
-0.0135886
-0.0136155
-0.0136409
-0.0136657
-0.0136911
-0.0137181
-0.0137471
-0.0137782
-0.0138115
-0.0138469
-0.0138844
-0.0139241
-0.0139661
-0.0140107
-0.0140579
-0.0141081
-0.0141616
-0.0133239
-0.0133197
-0.0133144
-0.013308
-0.0133006
-0.0132926
-0.0132845
-0.0132769
-0.0132704
-0.0132658
-0.0132636
-0.0132643
-0.0132683
-0.0132759
-0.013287
-0.0133014
-0.0133188
-0.0133384
-0.0133592
-0.0133803
-0.0134008
-0.0134203
-0.0134381
-0.0134541
-0.0134685
-0.0134816
-0.0134937
-0.0135055
-0.0135191
-0.013533
-0.0135407
-0.0135397
-0.0135429
-0.0135689
-0.0136034
-0.0136306
-0.0136536
-0.0136757
-0.0136988
-0.0137238
-0.0137509
-0.0137802
-0.0138118
-0.0138455
-0.0138817
-0.0139205
-0.0139622
-0.0140071
-0.0140557
-0.0141081
-0.0133112
-0.013307
-0.0133014
-0.0132945
-0.0132864
-0.0132776
-0.0132688
-0.0132607
-0.0132539
-0.0132493
-0.0132474
-0.0132489
-0.013254
-0.0132631
-0.0132761
-0.0132927
-0.0133123
-0.0133342
-0.0133571
-0.0133796
-0.0134007
-0.0134202
-0.0134374
-0.013452
-0.0134647
-0.0134762
-0.0134867
-0.0134968
-0.0135113
-0.0135301
-0.0135348
-0.0135133
-0.0135015
-0.0135409
-0.0135964
-0.0136273
-0.0136458
-0.0136618
-0.0136791
-0.0136985
-0.0137204
-0.0137448
-0.0137719
-0.0138016
-0.0138341
-0.0138696
-0.0139087
-0.0139517
-0.0139988
-0.0140505
-0.0132945
-0.0132903
-0.0132846
-0.0132774
-0.0132689
-0.0132597
-0.0132505
-0.0132422
-0.0132355
-0.0132311
-0.0132299
-0.0132323
-0.0132387
-0.0132495
-0.0132644
-0.0132831
-0.0133052
-0.0133299
-0.0133554
-0.0133795
-0.0134008
-0.0134206
-0.0134369
-0.0134497
-0.01346
-0.0134695
-0.0134779
-0.0134875
-0.0135004
-0.0135173
-0.0135174
-0.0134773
-0.0134085
-0.0134947
-0.0136046
-0.0136323
-0.0136388
-0.0136458
-0.013656
-0.0136693
-0.0136856
-0.0137049
-0.0137273
-0.013753
-0.0137822
-0.013815
-0.0138519
-0.0138932
-0.0139391
-0.0139899
-0.0132733
-0.0132693
-0.0132637
-0.0132565
-0.0132479
-0.0132387
-0.0132296
-0.0132214
-0.0132151
-0.0132113
-0.0132109
-0.0132145
-0.0132223
-0.0132346
-0.0132514
-0.0132725
-0.0132973
-0.0133256
-0.0133547
-0.0133806
-0.0134014
-0.0134222
-0.0134377
-0.0134478
-0.0134546
-0.0134616
-0.013468
-0.0134767
-0.0134931
-0.0135183
-0.0135556
-0.0131828
-0.0126801
-0.0131341
-0.0134964
-0.0135918
-0.0136084
-0.0136172
-0.0136243
-0.0136332
-0.0136453
-0.0136607
-0.0136794
-0.0137018
-0.0137282
-0.0137587
-0.0137937
-0.0138333
-0.0138778
-0.0139272
-0.0132474
-0.0132438
-0.0132386
-0.0132316
-0.0132233
-0.0132145
-0.0132059
-0.0131984
-0.0131928
-0.01319
-0.0131906
-0.0131953
-0.0132044
-0.0132182
-0.0132368
-0.0132601
-0.013288
-0.0133209
-0.0133547
-0.0133831
-0.0134022
-0.0134257
-0.0134402
-0.0134476
-0.0134494
-0.0134523
-0.0134554
-0.0134559
-0.0134597
-0.013478
-0.0133201
-0.0102335
-0.00814446
-0.00987257
-0.0132256
-0.0134943
-0.0135507
-0.0135739
-0.0135832
-0.0135902
-0.0136001
-0.0136136
-0.0136304
-0.0136505
-0.0136745
-0.013703
-0.0137359
-0.0137734
-0.0138154
-0.0138623
-0.0132166
-0.0132136
-0.013209
-0.0132026
-0.0131951
-0.0131871
-0.0131795
-0.0131731
-0.0131687
-0.0131671
-0.0131689
-0.0131747
-0.0131848
-0.0131998
-0.0132199
-0.013245
-0.0132756
-0.0133147
-0.0133535
-0.0133846
-0.0134031
-0.013435
-0.013447
-0.013447
-0.0134402
-0.0134427
-0.0134441
-0.0134408
-0.0134226
-0.0133697
-0.0124091
-0.00804196
-0.00800501
-0.00800105
-0.0120466
-0.0133954
-0.0135108
-0.0135353
-0.0135413
-0.0135455
-0.0135538
-0.0135665
-0.0135825
-0.0136015
-0.0136236
-0.0136494
-0.0136794
-0.0137135
-0.0137518
-0.0137946
-0.013181
-0.0131787
-0.0131749
-0.0131696
-0.0131633
-0.0131567
-0.0131506
-0.0131458
-0.0131429
-0.0131427
-0.0131456
-0.0131522
-0.013163
-0.0131786
-0.0131994
-0.0132252
-0.0132573
-0.0133005
-0.0133572
-0.0133782
-0.0133814
-0.0134387
-0.0134691
-0.0134383
-0.0134192
-0.0134407
-0.0134462
-0.0134431
-0.0134391
-0.0134502
-0.0133958
-0.0102464
-0.00842492
-0.00976924
-0.0132727
-0.0134191
-0.0135171
-0.0135178
-0.0135087
-0.013505
-0.0135102
-0.0135222
-0.0135378
-0.0135559
-0.0135761
-0.0135985
-0.013624
-0.0136531
-0.0136861
-0.0137233
-0.0131406
-0.0131391
-0.0131366
-0.0131327
-0.0131281
-0.0131234
-0.0131193
-0.0131165
-0.0131155
-0.0131168
-0.0131208
-0.013128
-0.0131388
-0.0131535
-0.013173
-0.0131971
-0.0132338
-0.0132782
-0.0133181
-0.0134016
-0.0132817
-0.0135051
-0.0133442
-0.0134412
-0.0133746
-0.0131688
-0.0134517
-0.01344
-0.0134459
-0.0134602
-0.0135048
-0.0132204
-0.0129776
-0.0131584
-0.0135121
-0.0135407
-0.0135259
-0.0134986
-0.0134757
-0.0134648
-0.0134678
-0.0134805
-0.0134962
-0.0135133
-0.0135309
-0.013549
-0.0135686
-0.013591
-0.0136172
-0.0136479
-0.0130958
-0.0130952
-0.0130941
-0.013092
-0.0130896
-0.0130873
-0.0130858
-0.0130854
-0.0130866
-0.0130896
-0.0130946
-0.0131018
-0.0131114
-0.0131232
-0.013138
-0.0131582
-0.0131925
-0.0132547
-0.0133878
-0.0136392
-0.0121868
-0.0137865
-0.0134263
-0.0133818
-0.0133685
-0.0133477
-0.0129817
-0.0134162
-0.0134358
-0.0134555
-0.0134589
-0.0134477
-0.0133648
-0.0134737
-0.0135422
-0.0134638
-0.0134914
-0.0134683
-0.0134377
-0.01342
-0.0134235
-0.0134404
-0.0134569
-0.0134722
-0.013486
-0.0134988
-0.0135115
-0.013526
-0.0135445
-0.0135683
-0.0130468
-0.0130474
-0.0130478
-0.0130479
-0.013048
-0.0130487
-0.0130502
-0.0130527
-0.0130564
-0.0130613
-0.0130672
-0.0130741
-0.0130809
-0.0130866
-0.0130914
-0.0130959
-0.0131077
-0.0131412
-0.0131544
-0.0107334
-0.00942396
-0.0101772
-0.0132885
-0.0132921
-0.0133188
-0.0133155
-0.0133409
-0.013388
-0.013428
-0.0134473
-0.0134497
-0.0134228
-0.0134202
-0.0134279
-0.0134747
-0.013443
-0.0135109
-0.0134601
-0.0133952
-0.0133604
-0.0133709
-0.0134016
-0.0134199
-0.0134314
-0.0134398
-0.0134459
-0.0134511
-0.0134575
-0.0134677
-0.0134845
-0.0129942
-0.0129959
-0.0129981
-0.0130006
-0.0130038
-0.0130078
-0.0130128
-0.0130186
-0.0130252
-0.0130322
-0.0130394
-0.0130456
-0.0130489
-0.0130472
-0.013039
-0.0130234
-0.013001
-0.0129867
-0.0130265
-0.010568
-0.00970082
-0.0102559
-0.0131642
-0.0131807
-0.0132355
-0.0132883
-0.0133307
-0.0133747
-0.0134201
-0.0134405
-0.0134563
-0.0134612
-0.0134508
-0.0134824
-0.0135246
-0.0135855
-0.0135823
-0.0134801
-0.0133139
-0.0132509
-0.0132796
-0.0133615
-0.0133823
-0.0133891
-0.0133909
-0.0133895
-0.0133867
-0.013385
-0.013387
-0.0133963
-0.0129385
-0.0129413
-0.0129454
-0.0129506
-0.0129571
-0.0129648
-0.0129736
-0.0129831
-0.012993
-0.0130027
-0.0130116
-0.0130178
-0.0130185
-0.0130103
-0.0129889
-0.0129481
-0.0128704
-0.0127092
-0.0122757
-0.0121745
-0.0125736
-0.0121809
-0.0127597
-0.0130084
-0.0131443
-0.0132488
-0.0133184
-0.013369
-0.0134213
-0.0134124
-0.0134405
-0.0134679
-0.0134958
-0.0135272
-0.0135615
-0.0135915
-0.0136181
-0.0134251
-0.0123627
-0.0123147
-0.0130125
-0.0132187
-0.0133263
-0.0133408
-0.0133379
-0.0133292
-0.0133184
-0.0133085
-0.0133024
-0.0133028
-0.0128802
-0.0128841
-0.0128901
-0.0128981
-0.0129081
-0.0129198
-0.0129327
-0.0129463
-0.0129599
-0.012973
-0.0129846
-0.0129926
-0.0129947
-0.012988
-0.0129687
-0.012936
-0.0128736
-0.0127043
-0.0121386
-0.0111664
-0.0117874
-0.0115775
-0.0125979
-0.012961
-0.0131279
-0.0132458
-0.0133218
-0.0133785
-0.0134306
-0.0134477
-0.0134809
-0.0134374
-0.0134741
-0.0135324
-0.0135546
-0.0135956
-0.0135329
-0.00983369
-0.00978919
-0.0101425
-0.0109597
-0.0130279
-0.013228
-0.0132844
-0.0132817
-0.0132665
-0.0132475
-0.0132284
-0.0132133
-0.0132032
-0.0128198
-0.0128247
-0.0128326
-0.0128435
-0.0128571
-0.0128729
-0.0128901
-0.0129079
-0.0129256
-0.0129426
-0.0129578
-0.0129696
-0.0129766
-0.012979
-0.0129782
-0.0129713
-0.012959
-0.0128645
-0.0126947
-0.0107819
-0.0106402
-0.0123998
-0.0132256
-0.0130135
-0.013231
-0.0132931
-0.013346
-0.0133943
-0.0134422
-0.0135034
-0.0121414
-0.0133689
-0.0134425
-0.0135124
-0.0135403
-0.0135655
-0.0134967
-0.0100704
-0.00965793
-0.00999073
-0.0098354
-0.0130809
-0.0132588
-0.0132599
-0.0132398
-0.0132103
-0.013178
-0.0131466
-0.0131192
-0.0130968
-0.0127578
-0.0127636
-0.0127733
-0.0127871
-0.0128042
-0.012824
-0.0128454
-0.0128674
-0.0128894
-0.0129106
-0.01293
-0.0129463
-0.0129592
-0.0129695
-0.0129787
-0.0129818
-0.0129596
-0.0128229
-0.00903765
-0.00720924
-0.00694824
-0.0074958
-0.0124811
-0.0131924
-0.013267
-0.0133235
-0.0133753
-0.0134131
-0.0134316
-0.0134517
-0.0134027
-0.013301
-0.013402
-0.013522
-0.0135194
-0.0134682
-0.013392
-0.0129234
-0.011957
-0.0102673
-0.00956404
-0.0124396
-0.0133251
-0.0132737
-0.013217
-0.0131655
-0.0131131
-0.0130636
-0.0130197
-0.0129829
-0.0126945
-0.0127011
-0.0127126
-0.0127289
-0.0127494
-0.012773
-0.0127984
-0.0128246
-0.0128507
-0.0128762
-0.0129002
-0.0129221
-0.0129423
-0.012963
-0.0129858
-0.0130058
-0.0129835
-0.0129031
-0.00709587
-0.00685035
-0.00675091
-0.0068482
-0.0106332
-0.0132922
-0.0133223
-0.013372
-0.0134226
-0.0131897
-0.0134097
-0.0134558
-0.0134057
-0.0130749
-0.0115568
-0.0135377
-0.013522
-0.0135567
-0.0134461
-0.0132401
-0.0131511
-0.0130685
-0.0133166
-0.0133406
-0.0123101
-0.0132798
-0.0131926
-0.0131203
-0.0130459
-0.0129763
-0.0129136
-0.0128592
-0.0126303
-0.0126375
-0.0126505
-0.0126692
-0.0126927
-0.0127197
-0.0127488
-0.0127788
-0.0128089
-0.0128387
-0.0128674
-0.012895
-0.0129224
-0.0129518
-0.0129831
-0.013007
-0.0129714
-0.0125897
-0.00728642
-0.00684847
-0.00683663
-0.00710277
-0.0105452
-0.0133156
-0.01336
-0.013421
-0.0134603
-0.0134697
-0.0134852
-0.013511
-0.0134903
-0.0134983
-0.0135751
-0.0134887
-0.0135181
-0.0134877
-0.0134518
-0.0133732
-0.0133265
-0.0132941
-0.0133081
-0.0134081
-0.0134816
-0.0132848
-0.0131656
-0.0130895
-0.0129795
-0.0128815
-0.0127958
-0.0127224
-0.0125655
-0.0125732
-0.0125874
-0.0126081
-0.0126341
-0.012664
-0.0126963
-0.0127298
-0.0127636
-0.0127975
-0.012831
-0.0128642
-0.0128983
-0.012936
-0.012979
-0.0130232
-0.0130608
-0.0131058
-0.0113245
-0.00691398
-0.00695885
-0.00926727
-0.0131735
-0.0133799
-0.0134218
-0.0134849
-0.0135209
-0.0135365
-0.0135352
-0.0135415
-0.0135609
-0.0135802
-0.0135966
-0.0135886
-0.0135596
-0.0135194
-0.0134887
-0.0134179
-0.0133616
-0.013314
-0.0132649
-0.013305
-0.0130954
-0.0131422
-0.0131934
-0.0130575
-0.0129104
-0.0127822
-0.0126729
-0.0125692
-0.0125002
-0.0125082
-0.0125233
-0.0125455
-0.0125735
-0.0126058
-0.0126408
-0.0126773
-0.0127146
-0.0127525
-0.0127906
-0.0128292
-0.0128692
-0.0129122
-0.0129595
-0.0130123
-0.0130792
-0.0131581
-0.0132629
-0.0129568
-0.0132059
-0.0131806
-0.0135015
-0.0134533
-0.013499
-0.0135552
-0.0135813
-0.0135964
-0.0135788
-0.0135661
-0.0135773
-0.0136214
-0.0136118
-0.0136339
-0.0136092
-0.0131359
-0.0135534
-0.0135017
-0.0134127
-0.0133401
-0.0132622
-0.0131909
-0.0128912
-0.0117953
-0.0110546
-0.0114012
-0.0127435
-0.012656
-0.0125303
-0.0123984
-0.0124346
-0.0124427
-0.0124584
-0.0124816
-0.012511
-0.012545
-0.0125822
-0.0126214
-0.0126619
-0.0127037
-0.0127465
-0.0127906
-0.0128364
-0.0128852
-0.0129367
-0.012995
-0.0130647
-0.0128345
-0.0130914
-0.0131595
-0.0132486
-0.0133275
-0.0133954
-0.0134715
-0.0135507
-0.0135759
-0.0136601
-0.0136519
-0.0135909
-0.0135818
-0.013601
-0.0136712
-0.0136926
-0.0137119
-0.0136896
-0.0136732
-0.0136394
-0.0135765
-0.0133812
-0.0133937
-0.0132871
-0.0131439
-0.0130298
-0.0129029
-0.0127667
-0.0121149
-0.0115666
-0.0116711
-0.0123839
-0.0121985
-0.0123686
-0.0123767
-0.0123926
-0.0124163
-0.0124465
-0.0124817
-0.0125206
-0.0125621
-0.0126057
-0.0126513
-0.012699
-0.0127485
-0.0128
-0.0128541
-0.012911
-0.012973
-0.0130401
-0.0131215
-0.013005
-0.0131601
-0.0132287
-0.0133021
-0.0133856
-0.0134818
-0.0135732
-0.0136813
-0.0133803
-0.0137503
-0.0133795
-0.013357
-0.013181
-0.0136703
-0.0137191
-0.0137954
-0.0137961
-0.0137867
-0.0137514
-0.0136819
-0.0136086
-0.0134561
-0.0133382
-0.0131675
-0.0129831
-0.0128046
-0.0126116
-0.0123769
-0.0124193
-0.0120369
-0.0115948
-0.0117637
-0.0123024
-0.0123102
-0.0123259
-0.0123496
-0.01238
-0.0124159
-0.012456
-0.0124996
-0.0125461
-0.0125957
-0.0126482
-0.0127032
-0.0127602
-0.0128193
-0.0128801
-0.0129419
-0.0130015
-0.0130562
-0.0130813
-0.0131518
-0.0132231
-0.0132987
-0.0129105
-0.0134759
-0.0135999
-0.013737
-0.0139321
-0.0120802
-0.00645031
-0.00598705
-0.0061849
-0.00844253
-0.0129341
-0.0138937
-0.0139281
-0.0139292
-0.013892
-0.0138113
-0.0136848
-0.0134948
-0.0133591
-0.0131727
-0.0129563
-0.0127499
-0.0125613
-0.0123936
-0.0122885
-0.0121195
-0.0120508
-0.0114319
-0.0122357
-0.012243
-0.0122583
-0.0122814
-0.0123115
-0.0123475
-0.0123886
-0.012434
-0.0124835
-0.012537
-0.0125943
-0.0126545
-0.0127167
-0.0127799
-0.0128435
-0.0129071
-0.0129693
-0.0130276
-0.013074
-0.0131322
-0.0132094
-0.013291
-0.0133823
-0.0134801
-0.0135767
-0.0136693
-0.0133794
-0.00653752
-0.00607802
-0.00615976
-0.00635493
-0.00667013
-0.00876542
-0.013854
-0.0140958
-0.0141067
-0.0140674
-0.0139737
-0.013856
-0.0125398
-0.0134047
-0.0131632
-0.0128968
-0.0126614
-0.0124989
-0.0123847
-0.0122862
-0.0121051
-0.011937
-0.0118174
-0.0121686
-0.0121751
-0.0121895
-0.0122117
-0.0122411
-0.0122768
-0.0123185
-0.0123657
-0.012418
-0.0124753
-0.0125372
-0.0126023
-0.012669
-0.0127357
-0.0128014
-0.0128658
-0.0129321
-0.0130067
-0.0124584
-0.0130655
-0.013196
-0.0132786
-0.0133651
-0.0134752
-0.0135213
-0.0137098
-0.0136126
-0.00582416
-0.006044
-0.00621003
-0.00630836
-0.00636036
-0.00760041
-0.0142685
-0.0143627
-0.0143439
-0.0142844
-0.0141656
-0.0140159
-0.0136927
-0.0134947
-0.013185
-0.0128246
-0.0125408
-0.0124076
-0.012387
-0.0123478
-0.0120991
-0.0118241
-0.011586
-0.0121006
-0.0121061
-0.0121194
-0.0121403
-0.0121685
-0.0122038
-0.0122459
-0.0122946
-0.0123497
-0.0124106
-0.0124766
-0.0125461
-0.0126169
-0.0126866
-0.0127537
-0.0128183
-0.0128819
-0.0129392
-0.012983
-0.0130595
-0.013142
-0.0131454
-0.0133417
-0.0134461
-0.0135376
-0.0136565
-0.0132617
-0.00615418
-0.00626474
-0.00635913
-0.00642194
-0.00645363
-0.00596642
-0.0143683
-0.0146638
-0.0145751
-0.0141708
-0.0143878
-0.0142269
-0.0138725
-0.0135987
-0.0131842
-0.012682
-0.012313
-0.0122454
-0.0124353
-0.0125597
-0.012166
-0.0117108
-0.0113881
-0.0120312
-0.0120358
-0.0120477
-0.012067
-0.0120939
-0.0121284
-0.0121707
-0.0122209
-0.0122784
-0.0123427
-0.0124122
-0.0124854
-0.0125596
-0.0126321
-0.0127012
-0.0127664
-0.0128276
-0.0128846
-0.0129362
-0.0123887
-0.0131195
-0.0131979
-0.0132886
-0.013444
-0.0135674
-0.0137287
-0.0140057
-0.00929505
-0.006778
-0.00656555
-0.00657323
-0.00711613
-0.0101238
-0.0151485
-0.0150182
-0.0149229
-0.0148048
-0.0146378
-0.0144998
-0.0141431
-0.0137496
-0.0133795
-0.01238
-0.0116823
-0.0118426
-0.0124689
-0.0130353
-0.0123012
-0.0115367
-0.0110952
-0.0119604
-0.0119638
-0.0119741
-0.0119917
-0.0120171
-0.0120508
-0.0120932
-0.0121445
-0.0122043
-0.0122713
-0.0123437
-0.0124196
-0.0124962
-0.0125712
-0.0126429
-0.012711
-0.0127763
-0.0128411
-0.0129107
-0.013007
-0.013092
-0.0131854
-0.0133043
-0.0134269
-0.0135433
-0.0136625
-0.0137455
-0.0135999
-0.0112985
-0.0094236
-0.00878672
-0.0114584
-0.0144244
-0.0151578
-0.0152742
-0.0152614
-0.0150551
-0.0149752
-0.0150629
-0.0139046
-0.0106669
-0.00827781
-0.0102212
-0.00978104
-0.00739406
-0.00611927
-0.0110501
-0.01254
-0.0111677
-0.0106087
-0.0118876
-0.0118897
-0.0118983
-0.0119141
-0.011938
-0.0119707
-0.0120131
-0.0120654
-0.012127
-0.0121962
-0.0122707
-0.0123482
-0.0124264
-0.0125032
-0.0125777
-0.01265
-0.0127204
-0.0127959
-0.0128806
-0.0128783
-0.0130702
-0.0131741
-0.0132896
-0.0134093
-0.0135277
-0.0136341
-0.0136524
-0.0135436
-0.0136406
-0.0140063
-0.0143807
-0.0145765
-0.0149222
-0.0153327
-0.0156495
-0.0157107
-0.0153744
-0.0149386
-0.0160988
-0.00734651
-0.00721523
-0.0074379
-0.00699136
-0.00609073
-0.000937408
0.00218861
-0.00499011
-0.0116313
-0.0102204
-0.0097829
-0.0118123
-0.0118131
-0.0118199
-0.011834
-0.0118564
-0.0118883
-0.0119306
-0.0119835
-0.0120463
-0.0121169
-0.0121928
-0.0122713
-0.0123502
-0.0124283
-0.0125055
-0.0125825
-0.0126606
-0.0127437
-0.0128289
-0.0129317
-0.0130388
-0.0131504
-0.0132668
-0.0133887
-0.0135241
-0.013647
-0.0137331
-0.0137222
-0.0138438
-0.0142179
-0.0145514
-0.0148443
-0.0152151
-0.0156786
-0.0161388
-0.0161552
-0.0161009
-0.0133259
-0.0162383
-0.00574841
-0.00710734
-0.00808205
-0.00880007
-0.00991345
-0.0117991
-0.00986086
-0.0122545
-0.0107664
-0.00853747
-0.00853596
-0.011734
-0.0117335
-0.0117387
-0.0117512
-0.0117722
-0.0118032
-0.0118452
-0.0118985
-0.0119618
-0.0120332
-0.0121096
-0.0121885
-0.0122679
-0.0123473
-0.0124273
-0.0125093
-0.012595
-0.0126861
-0.0127845
-0.0128915
-0.0130027
-0.0131227
-0.0132449
-0.0133618
-0.0135102
-0.0136707
-0.0138272
-0.0136746
-0.0135394
-0.0144479
-0.0147651
-0.0151061
-0.015533
-0.0159867
-0.0163071
-0.0121026
-0.0131134
-0.0148062
-0.0162294
-0.0093013
-0.00724266
-0.00886802
-0.0115891
-0.0119078
-0.010964
-0.0121143
-0.0120248
-0.00880174
-0.00545565
-0.006193
-0.0116523
-0.0116505
-0.0116543
-0.0116653
-0.011685
-0.0117152
-0.0117569
-0.01181
-0.0118734
-0.0119447
-0.012021
-0.0120999
-0.0121797
-0.0122607
-0.012344
-0.0124315
-0.0125247
-0.0126246
-0.0127314
-0.012844
-0.0129624
-0.0130903
-0.0132226
-0.0129788
-0.0134808
-0.0136633
-0.0138774
-0.014024
-0.014305
-0.0146029
-0.0149114
-0.0152824
-0.015742
-0.0163745
-0.0144398
-0.0118662
-0.0133847
-0.0160593
-0.0158804
-0.0184153
-0.0161084
-0.0154057
-0.015215
-0.0149906
-0.0131348
-0.0149099
-0.011013
-0.0082985
-0.00149572
-0.00266842
-0.0115668
-0.0115638
-0.0115661
-0.0115759
-0.0115947
-0.0116242
-0.0116653
-0.011718
-0.0117808
-0.0118514
-0.0119271
-0.0120057
-0.0120862
-0.0121692
-0.0122564
-0.0123496
-0.01245
-0.0125577
-0.0126718
-0.012791
-0.0129139
-0.0130406
-0.0131728
-0.0133242
-0.0134698
-0.0136492
-0.0138643
-0.0140376
-0.0143229
-0.0146292
-0.014954
-0.015351
-0.0158397
-0.0164911
-0.0137601
-0.0123757
-0.0134908
-0.0168098
-0.0166908
-0.0144486
-0.0101542
-0.013571
-0.0166148
-0.0159629
-0.0165228
-0.0207954
-0.0261522
-0.0102899
0.00251947
0.00197756
-0.0114769
-0.0114728
-0.0114741
-0.0114829
-0.0115009
-0.0115297
-0.0115702
-0.0116221
-0.0116839
-0.0117533
-0.0118279
-0.0119063
-0.0119879
-0.0120736
-0.0121651
-0.0122639
-0.0123707
-0.0124846
-0.0126039
-0.0127267
-0.0128526
-0.0129828
-0.0131218
-0.0132696
-0.0134296
-0.0136151
-0.0138284
-0.014036
-0.014309
-0.0146022
-0.0149261
-0.0153381
-0.0158079
-0.016336
-0.01666
-0.0133395
-0.0136199
-0.018999
-0.0201588
-0.0235456
-0.0218765
-0.0253424
-0.0239699
-0.0180071
-0.021674
-0.0292173
-0.0132977
0.0480543
0.0196019
0.010978
-0.0113824
-0.0113773
-0.0113777
-0.0113859
-0.0114034
-0.0114317
-0.0114714
-0.0115222
-0.0115825
-0.0116504
-0.011724
-0.0118022
-0.0118853
-0.0119743
-0.0120705
-0.0121746
-0.0122865
-0.0124047
-0.012527
-0.0126518
-0.0127792
-0.0129111
-0.0130509
-0.0132016
-0.0133693
-0.0135571
-0.0137669
-0.0139873
-0.0142488
-0.0145263
-0.0148531
-0.0152527
-0.0157122
-0.0162521
-0.0168992
-0.0174263
-0.0178972
-0.0168833
-0.0217286
-0.00935067
-0.00895435
-0.00887527
-0.0177292
-0.0141662
-0.0201409
-0.0321122
-0.0113345
0.118567
0.0714647
0.0682627
-0.0112829
-0.011277
-0.0112768
-0.0112847
-0.0113019
-0.0113298
-0.0113687
-0.0114182
-0.0114768
-0.0115431
-0.0116156
-0.0116941
-0.0117792
-0.0118717
-0.0119726
-0.0120815
-0.0121972
-0.0123177
-0.0124412
-0.0125666
-0.0126949
-0.0128284
-0.0129709
-0.0131253
-0.0132933
-0.0134802
-0.0136835
-0.0139058
-0.014143
-0.0144017
-0.0147205
-0.0150838
-0.0155006
-0.0160509
-0.0167425
-0.0177439
-0.0189549
-0.0185083
-0.0240741
-0.00807806
-0.0102016
-0.0178346
-0.0109976
-0.0186595
-0.0278907
-0.0358105
-0.0222039
-0.0484799
1.47928
1.9138
-0.0111782
-0.0111717
-0.0111711
-0.0111789
-0.0111962
-0.0112237
-0.0112619
-0.0113099
-0.0113669
-0.0114315
-0.0115033
-0.0115825
-0.0116698
-0.011766
-0.0118711
-0.0119838
-0.0121021
-0.0122236
-0.0123469
-0.0124722
-0.0126013
-0.012737
-0.0128822
-0.0130388
-0.0132064
-0.0133884
-0.0135788
-0.0137967
-0.0139751
-0.0142519
-0.014527
-0.0148274
-0.0150282
-0.0156963
-0.0162559
-0.0168505
-0.0171046
-0.0191495
-0.0201924
-0.0101861
-0.0115518
-0.00885674
-0.0155402
-0.0124765
-0.0243199
-0.0415437
-0.0960291
5.2532
8.81361
14.642
-0.0110681
-0.0110612
-0.0110605
-0.0110686
-0.011086
-0.0111135
-0.0111508
-0.0111975
-0.0112528
-0.0113161
-0.0113875
-0.0114677
-0.0115575
-0.0116571
-0.0117656
-0.0118811
-0.0120008
-0.0121224
-0.0122453
-0.0123705
-0.0125008
-0.0126389
-0.0127865
-0.012944
-0.0131101
-0.0132831
-0.0134659
-0.0136597
-0.0138675
-0.0140776
-0.0143019
-0.0145294
-0.0145794
-0.0152454
-0.0156061
-0.0159999
-0.0162538
-0.0176949
-0.0172686
-0.0139175
-0.0196088
-0.0200511
-0.00684459
-0.00509102
-0.0160368
-0.0165329
7.71458
18.5395
31.7905
40.2773
-0.0109525
-0.0109453
-0.0109448
-0.0109533
-0.0109713
-0.0109987
-0.0110355
-0.011081
-0.0111348
-0.0111972
-0.0112686
-0.0113502
-0.0114424
-0.0115448
-0.0116559
-0.0117729
-0.011893
-0.0120145
-0.0121374
-0.0122635
-0.0123955
-0.012536
-0.0126856
-0.0128427
-0.0130049
-0.0131708
-0.0133408
-0.0135163
-0.0136921
-0.0138714
-0.0140818
-0.0142401
-0.0144129
-0.0147835
-0.0150821
-0.0155033
-0.0160405
-0.0163285
-0.0175016
-0.0200344
-0.0112914
-0.00171868
-0.00151979
0.015999
0.016787
7.88599
30.8908
43.4821
43.1447
41.3928
-0.0108313
-0.0108239
-0.0108238
-0.0108332
-0.0108518
-0.0108795
-0.0109158
-0.0109603
-0.0110131
-0.0110749
-0.0111469
-0.0112299
-0.0113243
-0.011429
-0.0115417
-0.0116592
-0.0117791
-0.0119006
-0.0120244
-0.0121529
-0.0122881
-0.0124308
-0.0125805
-0.0127359
-0.0128943
-0.0130534
-0.0132135
-0.0133745
-0.0135366
-0.0136972
-0.0137955
-0.0140134
-0.0140905
-0.0142633
-0.0144614
-0.0146822
-0.0147578
-0.0150053
-0.014872
-0.0118128
0.0152029
0.0120568
-0.011089
0.0505566
8.70232
34.9845
43.4517
43.9531
42.6413
41.4777
-0.0107044
-0.010697
-0.0106975
-0.0107079
-0.0107275
-0.0107556
-0.0107917
-0.0108356
-0.0108878
-0.0109496
-0.0110223
-0.0111069
-0.0112033
-0.0113095
-0.0114229
-0.0115403
-0.01166
-0.0117819
-0.0119077
-0.0120395
-0.0121788
-0.0123251
-0.0124759
-0.012628
-0.0127808
-0.0129351
-0.0130902
-0.0132434
-0.0133926
-0.0135336
-0.0136637
-0.0135752
-0.0137087
-0.0138007
-0.0138776
-0.0140265
-0.0145833
-0.0154704
-0.0184798
-0.00722378
0.0350259
0.00297032
-0.0267964
5.9449
26.9277
44.0164
43.3738
43.006
42.1422
41.3677
-0.0144754
-0.0145365
-0.0146002
-0.0146663
-0.0147348
-0.0148056
-0.0148786
-0.0149537
-0.0150307
-0.0151096
-0.0151903
-0.0152727
-0.0153566
-0.0154419
-0.0155285
-0.0156161
-0.0157046
-0.0157939
-0.0158838
-0.0159743
-0.0160652
-0.0161567
-0.0162491
-0.0163425
-0.0164374
-0.0165338
-0.0166316
-0.0167303
-0.0168294
-0.0169281
-0.0170258
-0.0171218
-0.0172155
-0.0173061
-0.0173933
-0.0174763
-0.0175547
-0.017628
-0.0176957
-0.0177576
-0.0178136
-0.0178636
-0.0179079
-0.0179469
-0.0179811
-0.0180109
-0.0180365
-0.0180575
-0.018073
-0.0180818
-0.0144608
-0.0145219
-0.0145857
-0.014652
-0.0147208
-0.014792
-0.0148656
-0.0149413
-0.0150191
-0.0150989
-0.0151807
-0.0152642
-0.0153493
-0.0154359
-0.0155239
-0.015613
-0.0157031
-0.015794
-0.0158855
-0.0159776
-0.0160703
-0.0161636
-0.0162578
-0.016353
-0.0164496
-0.0165474
-0.0166464
-0.0167462
-0.0168462
-0.0169458
-0.0170442
-0.0171408
-0.0172348
-0.0173257
-0.0174128
-0.0174955
-0.0175733
-0.0176456
-0.0177121
-0.0177725
-0.0178267
-0.0178749
-0.0179174
-0.0179548
-0.0179878
-0.018017
-0.0180425
-0.0180636
-0.0180789
-0.0180883
-0.0144437
-0.0145051
-0.0145691
-0.0146357
-0.0147047
-0.0147763
-0.0148502
-0.0149264
-0.0150049
-0.0150855
-0.0151681
-0.0152527
-0.015339
-0.015427
-0.0155164
-0.0156071
-0.0156989
-0.0157916
-0.015885
-0.0159791
-0.0160738
-0.0161691
-0.0162653
-0.0163625
-0.0164609
-0.0165607
-0.0166616
-0.0167633
-0.0168651
-0.0169664
-0.0170663
-0.0171641
-0.0172592
-0.0173507
-0.0174381
-0.0175206
-0.0175977
-0.0176689
-0.0177337
-0.0177921
-0.0178441
-0.0178901
-0.0179305
-0.0179664
-0.0179985
-0.0180275
-0.0180534
-0.0180752
-0.0180912
-0.0181017
-0.0144247
-0.0144865
-0.0145508
-0.0146176
-0.0146868
-0.0147586
-0.0148328
-0.0149094
-0.0149883
-0.0150695
-0.015153
-0.0152385
-0.0153261
-0.0154155
-0.0155066
-0.0155992
-0.0156929
-0.0157877
-0.0158833
-0.0159796
-0.0160764
-0.0161739
-0.016272