/*--------------------------------*- C++ -*----------------------------------*\
| =========                 |                                                 |
| \\      /  F ield         | OpenFOAM: The Open Source CFD Toolbox           |
|  \\    /   O peration     | Version:  2.4.0                                 |
|   \\  /    A nd           | Web:      www.OpenFOAM.org                      |
|    \\/     M anipulation  |                                                 |
\*---------------------------------------------------------------------------*/
FoamFile
{
    version     2.0;
    format      ascii;
    class       volVectorField;
    location    "0.063";
    object      U;
}
// * * * * * * * * * * * * * * * * * * * * * * * * * * * * * * * * * * * * * //

dimensions      [0 1 -1 0 0 0 0];

internalField   nonuniform List<vector> 
3600
(
(2.99874e-05 -0.000101945 -9.52855e-12)
(1.25138e-05 -6.76449e-05 -5.31897e-11)
(3.41687e-05 -3.46217e-05 -3.74462e-11)
(-7.02203e-05 -2.72234e-05 -3.11992e-11)
(-1.29477e-05 -2.18326e-05 -2.13306e-11)
(-0.000174552 -1.14155e-05 -1.91648e-11)
(-7.49945e-05 -8.22373e-06 -1.31173e-11)
(-0.000318203 6.2615e-06 -1.25964e-11)
(-0.000185206 1.91557e-06 -8.37801e-12)
(-0.000500769 2.14805e-05 -8.2955e-12)
(-0.000376584 1.38413e-05 -5.38271e-12)
(-0.000734869 3.69285e-05 -5.19922e-12)
(-0.000680752 2.86542e-05 -3.37141e-12)
(-0.00104072 5.02916e-05 -2.95242e-12)
(-0.00108344 3.87426e-05 -1.91236e-12)
(-0.00136639 5.40466e-05 -1.39591e-12)
(-0.00147351 3.67074e-05 -8.48916e-13)
(-0.0015483 2.60441e-05 -4.11383e-13)
(-0.00131166 -1.46865e-05 -1.60495e-13)
(-0.000765318 -2.51113e-05 5.17102e-14)
(-0.000350567 -2.86612e-05 6.78146e-14)
(9.1616e-05 -1.63964e-05 9.55516e-14)
(0.000143485 -6.96728e-06 5.58406e-14)
(0.000248476 -2.27939e-06 4.35921e-14)
(0.00016703 5.35365e-07 2.19921e-14)
(0.000154501 7.50042e-07 1.37307e-14)
(9.1548e-05 9.81415e-07 6.40871e-15)
(6.7436e-05 6.27127e-07 3.42739e-15)
(3.65529e-05 4.90492e-07 1.46377e-15)
(2.25562e-05 2.65298e-07 6.73969e-16)
(-3.50933e-05 -2.01337e-05 -1.18771e-10)
(-0.000130404 3.95123e-05 -1.47422e-10)
(-0.000153412 9.82767e-05 -8.12173e-11)
(-0.000316267 0.000116741 -5.59273e-11)
(-0.00029644 0.000115278 -3.67892e-11)
(-0.000541787 0.000133441 -3.09851e-11)
(-0.000446705 0.000119891 -2.07595e-11)
(-0.000793409 0.000156025 -1.9145e-11)
(-0.00062856 0.000122465 -1.23738e-11)
(-0.00107672 0.00018152 -1.20636e-11)
(-0.000889851 0.000129084 -7.47886e-12)
(-0.001381 0.00020311 -7.1974e-12)
(-0.00124624 0.000137953 -4.37294e-12)
(-0.00168383 0.000205942 -3.76995e-12)
(-0.00163755 0.000128286 -2.24473e-12)
(-0.00189336 0.000170106 -1.5269e-12)
(-0.00189976 8.30693e-05 -8.16593e-13)
(-0.00183073 4.23858e-05 -2.57783e-13)
(-0.00146671 -8.91662e-05 -1.33661e-14)
(-0.000738644 -0.000110665 2.1224e-13)
(-0.000281408 -0.000104358 1.70266e-13)
(0.000231079 -5.85939e-05 1.74489e-13)
(0.000246116 -2.06532e-05 9.8717e-14)
(0.00035052 -5.73693e-06 7.09376e-14)
(0.000231167 4.513e-06 3.56596e-14)
(0.000205022 3.99925e-06 2.13664e-14)
(0.000120932 4.59973e-06 9.96096e-15)
(8.70989e-05 2.79438e-06 5.18171e-15)
(4.69929e-05 2.10211e-06 2.20223e-15)
(2.91918e-05 1.22139e-06 1.02608e-15)
(-3.74066e-05 0.000244041 -1.27317e-10)
(-0.000147611 0.000277848 -1.58759e-10)
(-0.00016998 0.000299187 -8.41895e-11)
(-0.000333638 0.000313772 -5.65138e-11)
(-0.000302258 0.00029192 -3.61965e-11)
(-0.000559931 0.000316553 -3.08769e-11)
(-0.000457316 0.000272049 -2.0332e-11)
(-0.000826705 0.000331913 -1.91631e-11)
(-0.000653066 0.000258725 -1.21253e-11)
(-0.00112697 0.000360656 -1.20771e-11)
(-0.000926399 0.0002516 -7.29929e-12)
(-0.00143667 0.000380349 -7.13003e-12)
(-0.00128705 0.000245382 -4.22649e-12)
(-0.00173096 0.000363571 -3.64753e-12)
(-0.00167078 0.00020916 -2.11686e-12)
(-0.00191611 0.000281099 -1.40006e-12)
(-0.00191934 0.000120589 -7.15064e-13)
(-0.00183544 5.16321e-05 -1.62312e-13)
(-0.00146095 -0.000171053 5.30285e-14)
(-0.000703196 -0.00020142 2.64127e-13)
(-0.000245335 -0.000180429 2.00547e-13)
(0.000268982 -0.000100664 1.9356e-13)
(0.000271117 -3.31149e-05 1.08663e-13)
(0.00036896 -8.09887e-06 7.64803e-14)
(0.000242075 9.31664e-06 3.83769e-14)
(0.000212254 7.8069e-06 2.27572e-14)
(0.000125079 8.56744e-06 1.06026e-14)
(8.95474e-05 5.18294e-06 5.47703e-15)
(4.81239e-05 3.8079e-06 2.31666e-15)
(3.02064e-05 2.09056e-06 1.09429e-15)
(-1.11071e-05 0.000370528 -9.03962e-11)
(-0.00010465 0.000435267 -1.35513e-10)
(-0.000118445 0.000455873 -7.43525e-11)
(-0.000293281 0.000471394 -5.32969e-11)
(-0.000253265 0.000442756 -3.42933e-11)
(-0.00052768 0.000482204 -3.04771e-11)
(-0.000417601 0.000419181 -1.9884e-11)
(-0.000808123 0.000504909 -1.93048e-11)
(-0.00062584 0.000395811 -1.20492e-11)
(-0.00111555 0.000540051 -1.22192e-11)
(-0.00091003 0.000375535 -7.30866e-12)
(-0.00142816 0.000558996 -7.17968e-12)
(-0.00128216 0.000355551 -4.24967e-12)
(-0.00172928 0.000523349 -3.64302e-12)
(-0.00167679 0.000293116 -2.12228e-12)
(-0.00192043 0.000394994 -1.37847e-12)
(-0.00194387 0.000163021 -7.05328e-13)
(-0.00186492 6.19971e-05 -1.39706e-13)
(-0.00148309 -0.000255082 6.98211e-14)
(-0.000696251 -0.000295548 2.79991e-13)
(-0.000229483 -0.000257765 2.09242e-13)
(0.000286885 -0.000142965 1.983e-13)
(0.000281723 -4.50952e-05 1.10766e-13)
(0.000374293 -1.02084e-05 7.73596e-14)
(0.000244582 1.43115e-05 3.87616e-14)
(0.000213111 1.16759e-05 2.29009e-14)
(0.000125425 1.25761e-05 1.06606e-14)
(8.96195e-05 7.58619e-06 5.49837e-15)
(4.82361e-05 5.53006e-06 2.32888e-15)
(2.97935e-05 2.9308e-06 1.0804e-15)
(-1.54572e-05 0.000475585 -9.74581e-11)
(-0.000113211 0.000574881 -1.43014e-10)
(-0.000113508 0.000607925 -7.63096e-11)
(-0.000299505 0.000631907 -5.56866e-11)
(-0.000242276 0.000595529 -3.51851e-11)
(-0.000531441 0.000650452 -3.18969e-11)
(-0.000401579 0.000566116 -2.04311e-11)
(-0.000810804 0.000679411 -2.02002e-11)
(-0.00061149 0.00053113 -1.24121e-11)
(-0.00111703 0.000720499 -1.27257e-11)
(-0.000903918 0.000498313 -7.55753e-12)
(-0.00142891 0.000739087 -7.41033e-12)
(-0.00128902 0.000466404 -4.41029e-12)
(-0.00173867 0.000684993 -3.72893e-12)
(-0.00169794 0.00037813 -2.19996e-12)
(-0.00193877 0.000511428 -1.40088e-12)
(-0.00198978 0.000209713 -7.28008e-13)
(-0.00191717 7.29061e-05 -1.34172e-13)
(-0.00152284 -0.000342286 7.70413e-14)
(-0.000695181 -0.000394214 2.91246e-13)
(-0.000214074 -0.000336637 2.15088e-13)
(0.000305576 -0.000185009 2.01106e-13)
(0.000292252 -5.6354e-05 1.11678e-13)
(0.00037861 -1.17995e-05 7.74969e-14)
(0.000246088 1.9507e-05 3.87512e-14)
(0.000213105 1.5634e-05 2.28375e-14)
(0.000125256 1.66012e-05 1.06232e-14)
(8.9325e-05 9.98923e-06 5.47379e-15)
(4.80889e-05 7.25917e-06 2.31962e-15)
(2.95775e-05 3.9068e-06 1.06933e-15)
(-1.72568e-05 0.00061808 -1.06039e-10)
(-0.000124123 0.000726592 -1.57209e-10)
(-0.000110757 0.000760659 -8.16538e-11)
(-0.000312053 0.000791059 -6.0154e-11)
(-0.000233789 0.000744473 -3.70394e-11)
(-0.000543941 0.000816591 -3.41997e-11)
(-0.000389021 0.000710374 -2.14059e-11)
(-0.00082066 0.000854287 -2.15236e-11)
(-0.000599267 0.000665598 -1.29916e-11)
(-0.00112407 0.000903352 -1.34495e-11)
(-0.000901277 0.000621542 -7.93148e-12)
(-0.00143403 0.000922492 -7.7381e-12)
(-0.00130232 0.000580046 -4.64271e-12)
(-0.00175448 0.000850205 -3.85471e-12)
(-0.00172822 0.000466164 -2.31097e-12)
(-0.0019641 0.00063185 -1.43735e-12)
(-0.00205063 0.000263586 -7.61911e-13)
(-0.00198648 8.49289e-05 -1.30363e-13)
(-0.00157502 -0.000433938 8.45401e-14)
(-0.000694158 -0.000499366 3.04404e-13)
(-0.00019446 -0.000417644 2.2181e-13)
(0.000328811 -0.000226925 2.04187e-13)
(0.00030512 -6.6748e-05 1.12574e-13)
(0.000383655 -1.28802e-05 7.75354e-14)
(0.000247722 2.49395e-05 3.86694e-14)
(0.000212947 1.96754e-05 2.27268e-14)
(0.000124973 2.06408e-05 1.05635e-14)
(8.89106e-05 1.23927e-05 5.43692e-15)
(4.78527e-05 8.98306e-06 2.30355e-15)
(2.9404e-05 4.83393e-06 1.0611e-15)
(-1.55838e-05 0.00075261 -1.12407e-10)
(-0.000132497 0.000878424 -1.73102e-10)
(-0.000102701 0.000915 -8.75938e-11)
(-0.000323822 0.000953965 -6.55555e-11)
(-0.000220512 0.000893443 -3.92808e-11)
(-0.000557403 0.000987325 -3.70705e-11)
(-0.000373646 0.000852994 -2.26333e-11)
(-0.000832974 0.00103098 -2.31935e-11)
(-0.000585346 0.000798735 -1.37273e-11)
(-0.00113343 0.00108855 -1.43539e-11)
(-0.000899644 0.00074469 -8.40651e-12)
(-0.00144058 0.00110935 -8.14078e-12)
(-0.00131991 0.000696523 -4.9348e-12)
(-0.0017747 0.00101937 -4.00856e-12)
(-0.00176569 0.000557052 -2.44825e-12)
(-0.00199401 0.000756639 -1.48225e-12)
(-0.00212532 0.000326078 -8.03595e-13)
(-0.00207286 9.81444e-05 -1.25806e-13)
(-0.00163943 -0.00053106 9.39935e-14)
(-0.000692137 -0.000612712 3.20511e-13)
(-0.000169441 -0.000501191 2.29976e-13)
(0.000357297 -0.000268567 2.07827e-13)
(0.000320665 -7.60081e-05 1.13602e-13)
(0.000389599 -1.32524e-05 7.75524e-14)
(0.000249596 3.06613e-05 3.85576e-14)
(0.000212706 2.38192e-05 2.25882e-14)
(0.000124613 2.46963e-05 1.04899e-14)
(8.84023e-05 1.47967e-05 5.3918e-15)
(4.75586e-05 1.06996e-05 2.28346e-15)
(2.92082e-05 5.77719e-06 1.05226e-15)
(-2.6748e-05 0.000910259 -1.37478e-10)
(-0.000158863 0.00102938 -2.01005e-10)
(-9.631e-05 0.00106206 -9.58878e-11)
(-0.000339338 0.0011059 -7.22749e-11)
(-0.000203173 0.00103759 -4.19417e-11)
(-0.000572458 0.00114532 -4.05766e-11)
(-0.000355692 0.000993221 -2.40985e-11)
(-0.000846157 0.0012026 -2.52099e-11)
(-0.000569802 0.000931509 -1.46267e-11)
(-0.00114383 0.00127574 -1.54418e-11)
(-0.000898702 0.000868609 -8.98924e-12)
(-0.00144741 0.00130038 -8.61516e-12)
(-0.00134152 0.000817034 -5.28957e-12)
(-0.00179905 0.00119334 -4.18898e-12)
(-0.0018101 0.000651478 -2.6122e-12)
(-0.00202733 0.000886134 -1.5351e-12)
(-0.0022141 0.000400305 -8.52986e-13)
(-0.002178 0.000113036 -1.20201e-13)
(-0.00171704 -0.000635187 1.0586e-13)
(-0.000688707 -0.000736126 3.39862e-13)
(-0.000138173 -0.00058774 2.39712e-13)
(0.000391382 -0.000309837 2.12048e-13)
(0.000338955 -8.3886e-05 1.14766e-13)
(0.00039641 -1.28104e-05 7.75492e-14)
(0.000251694 3.67225e-05 3.84183e-14)
(0.000212375 2.80809e-05 2.2423e-14)
(0.000124175 2.87694e-05 1.04031e-14)
(8.78017e-05 1.72011e-05 5.33884e-15)
(4.72108e-05 1.24074e-05 2.2598e-15)
(2.89761e-05 6.7091e-06 1.04186e-15)
(-2.55503e-05 0.00113782 -1.4472e-10)
(-0.00017426 0.0012233 -2.23447e-10)
(-8.81503e-05 0.00122383 -1.03745e-10)
(-0.000350354 0.00129831 -7.99851e-11)
(-0.000185604 0.00118754 -4.50871e-11)
(-0.00058637 0.00135038 -4.47553e-11)
(-0.000330293 0.00113533 -2.58103e-11)
(-0.000858811 0.00139959 -2.76223e-11)
(-0.000549073 0.00106627 -1.57052e-11)
(-0.00115454 0.00146785 -1.67273e-11)
(-0.000897969 0.000994129 -9.69273e-12)
(-0.00145366 0.00149595 -9.16101e-12)
(-0.00136717 0.00094247 -5.71345e-12)
(-0.00182761 0.00137284 -4.39585e-12)
(-0.00186145 0.000749722 -2.80407e-12)
(-0.0020627 0.00102 -1.59613e-12)
(-0.00231728 0.000489375 -9.10442e-13)
(-0.00230418 0.000130009 -1.13481e-13)
(-0.0018091 -0.000748183 1.20524e-13)
(-0.000683433 -0.000871431 3.62694e-13)
(-9.97238e-05 -0.000677756 2.51105e-13)
(0.000431418 -0.000350524 2.16834e-13)
(0.000360021 -9.0085e-05 1.16052e-13)
(0.000404022 -1.13902e-05 7.75184e-14)
(0.000253975 4.31716e-05 3.82492e-14)
(0.000211938 3.2475e-05 2.22308e-14)
(0.000123653 3.28608e-05 1.03029e-14)
(8.71076e-05 1.96052e-05 5.27807e-15)
(4.68099e-05 1.41049e-05 2.23266e-15)
(2.87034e-05 7.63523e-06 1.02965e-15)
(-9.45097e-06 0.00126633 -1.36046e-10)
(-0.000190683 0.00131717 -2.44836e-10)
(-5.33588e-05 0.00131121 -1.10281e-10)
(-0.000382969 0.00137205 -8.97303e-11)
(-0.000164228 0.0013109 -4.8755e-11)
(-0.000613277 0.00143233 -4.9845e-11)
(-0.00031762 0.00127569 -2.79162e-11)
(-0.000872057 0.00151566 -3.04717e-11)
(-0.000538878 0.00120806 -1.70284e-11)
(-0.00116536 0.00164275 -1.82264e-11)
(-0.000898831 0.00112456 -1.05366e-11)
(-0.00145837 0.00169468 -9.77713e-12)
(-0.00139694 0.00107433 -6.21404e-12)
(-0.00186062 0.00155824 -4.62935e-12)
(-0.00192006 0.000851939 -3.02559e-12)
(-0.00209835 0.00115799 -1.66568e-12)
(-0.00243515 0.000597797 -9.76509e-13)
(-0.00245436 0.00014974 -1.05668e-13)
(-0.00191712 -0.00087216 1.38454e-13)
(-0.000675752 -0.00102076 3.8928e-13)
(-5.29915e-05 -0.000771716 2.64246e-13)
(0.000477809 -0.000390378 2.22166e-13)
(0.000383885 -9.42841e-05 1.17442e-13)
(0.000412352 -8.85489e-06 7.74501e-14)
(0.000256391 5.00546e-05 3.80472e-14)
(0.000211376 3.70141e-05 2.20108e-14)
(0.000123039 3.69707e-05 1.01891e-14)
(8.6319e-05 2.20083e-05 5.20952e-15)
(4.63561e-05 1.5791e-05 2.20208e-15)
(2.83883e-05 8.55419e-06 1.01554e-15)
(-1.13085e-05 0.00157449 -1.51451e-10)
(-0.000197517 0.00162335 -2.77544e-10)
(-9.10774e-05 0.00156841 -1.2662e-10)
(-0.000403815 0.00171135 -1.0257e-10)
(-0.000175709 0.00151585 -5.39423e-11)
(-0.000601326 0.00175074 -5.54254e-11)
(-0.000265078 0.00143729 -2.99691e-11)
(-0.000872706 0.00177963 -3.3771e-11)
(-0.000491816 0.00136679 -1.85021e-11)
(-0.00117556 0.00185617 -1.99553e-11)
(-0.000892062 0.00126464 -1.15355e-11)
(-0.00146144 0.00189864 -1.04622e-11)
(-0.00143039 0.00121423 -6.8008e-12)
(-0.00189866 0.00175115 -4.88992e-12)
(-0.0019861 0.00095917 -3.27811e-12)
(-0.00213173 0.00130137 -1.74409e-12)
(-0.00256784 0.000727357 -1.05173e-12)
(-0.0026323 0.000173142 -9.68047e-14)
(-0.00204293 -0.00100957 1.60181e-13)
(-0.000664955 -0.00118653 4.19936e-13)
(3.3336e-06 -0.000870117 2.79235e-13)
(0.000531024 -0.000429052 2.28019e-13)
(0.000410561 -9.61217e-05 1.18911e-13)
(0.000421298 -5.05077e-06 7.73327e-14)
(0.000258887 5.74142e-05 3.78091e-14)
(0.000210667 4.17091e-05 2.17624e-14)
(0.000122328 4.10987e-05 1.00616e-14)
(8.54342e-05 2.44094e-05 5.1332e-15)
(4.58492e-05 1.74642e-05 2.16809e-15)
(2.80305e-05 9.46503e-06 9.99523e-16)
(1.88717e-05 0.00155727 -1.2418e-10)
(-0.000262883 0.00158908 -3.15275e-10)
(-1.79259e-05 0.00154838 -1.27092e-10)
(-0.000478734 0.00156863 -1.177e-10)
(-0.000124651 0.0015374 -5.65613e-11)
(-0.000627349 0.00156161 -6.19057e-11)
(-0.000280898 0.00157932 -3.31062e-11)
(-0.000882005 0.00171413 -3.76717e-11)
(-0.000517116 0.00153947 -2.0565e-11)
(-0.00118771 0.00194212 -2.19393e-11)
(-0.000903522 0.00141623 -1.27525e-11)
(-0.00146353 0.00209412 -1.12121e-11)
(-0.00146788 0.00136446 -7.484e-12)
(-0.00194218 0.00195042 -5.17772e-12)
(-0.00205989 0.00107079 -3.5638e-12)
(-0.00216085 0.0014491 -1.83218e-12)
(-0.00271568 0.000885747 -1.13684e-12)
(-0.00284193 0.000201038 -8.69107e-14)
(-0.00218874 -0.00116322 1.86319e-13)
(-0.000650137 -0.00137153 4.55027e-13)
(7.07949e-05 -0.00097346 2.96178e-13)
(0.000591595 -0.000466116 2.34358e-13)
(0.000440041 -9.51871e-05 1.20432e-13)
(0.000430733 2.33965e-07 7.71525e-14)
(0.0002614 6.5289e-05 3.75311e-14)
(0.000209789 4.65681e-05 2.14847e-14)
(0.00012151 4.52434e-05 9.92017e-15)
(8.44517e-05 2.68069e-05 5.04913e-15)
(4.52889e-05 1.91234e-05 2.13073e-15)
(2.76308e-05 1.03667e-05 9.81646e-16)
(2.53393e-05 0.00211627 -1.16027e-10)
(-0.000215084 0.00216608 -2.50224e-10)
(-9.49058e-05 0.00201733 -1.59002e-10)
(-0.000327429 0.00219187 -2.56843e-10)
(-0.000120289 0.00189292 -7.95947e-11)
(-0.000472184 0.00214783 -6.944e-11)
(-0.000173947 0.00185977 -3.52436e-11)
(-0.000849458 0.00215674 -4.21793e-11)
(-0.000400813 0.00176336 -2.2374e-11)
(-0.00119445 0.00224252 -2.42015e-11)
(-0.000858409 0.00159383 -1.41217e-11)
(-0.00146482 0.00231621 -1.20252e-11)
(-0.00150439 0.00153033 -8.27176e-12)
(-0.00199262 0.00216051 -5.49397e-12)
(-0.00214149 0.00118949 -3.88355e-12)
(-0.00218081 0.00160301 -1.9302e-12)
(-0.00287842 0.00107145 -1.23247e-12)
(-0.00308936 0.000235814 -7.6301e-14)
(-0.00235714 -0.00133642 2.17579e-13)
(-0.000630187 -0.00157897 4.94974e-13)
(0.00015122 -0.00108225 3.15193e-13)
(0.000660124 -0.000501004 2.41141e-13)
(0.000472306 -9.10316e-05 1.21973e-13)
(0.000440507 7.14712e-06 7.68944e-14)
(0.000263852 7.37118e-05 3.72092e-14)
(0.000208718 5.15961e-05 2.11771e-14)
(0.00012058 4.94024e-05 9.76479e-15)
(8.33701e-05 2.91994e-05 4.95733e-15)
(4.46752e-05 2.07669e-05 2.09002e-15)
(2.71902e-05 1.12584e-05 9.61981e-16)
(4.33662e-05 0.00168301 1.56944e-09)
(-0.000371257 0.0017978 6.77616e-09)
(8.99942e-05 0.00166815 9.14868e-10)
(-0.000457875 0.00151092 -1.33811e-09)
(-0.000106103 0.00169409 -2.50913e-10)
(-0.00057057 0.00147066 -8.8623e-11)
(-0.00030912 0.00193492 -4.05055e-11)
(-0.00087472 0.00175525 -4.72224e-11)
(-0.000514069 0.00189327 -2.58659e-11)
(-0.0012164 0.00215264 -2.6742e-11)
(-0.000918512 0.00172447 -1.59577e-11)
(-0.00146901 0.00246589 -1.2882e-11)
(-0.00155048 0.00171015 -9.18435e-12)
(-0.00205108 0.00237344 -5.83811e-12)
(-0.00223182 0.0013094 -4.23922e-12)
(-0.00219087 0.00176006 -2.04065e-12)
(-0.00305625 0.00130511 -1.33994e-12)
(-0.00337899 0.00027816 -6.4913e-14)
(-0.00255145 -0.00153307 2.54783e-13)
(-0.000603698 -0.00181265 5.4026e-13)
(0.000246763 -0.00119698 3.36401e-13)
(0.000737289 -0.000533039 2.48319e-13)
(0.0005073 -8.31311e-05 1.23495e-13)
(0.000450447 1.58096e-05 7.65421e-14)
(0.000266163 8.2709e-05 3.68388e-14)
(0.000207426 5.67954e-05 2.08387e-14)
(0.000119529 5.35725e-05 9.59534e-15)
(8.21882e-05 3.15849e-05 4.85786e-15)
(4.40077e-05 2.23934e-05 2.046e-15)
(2.67104e-05 1.21393e-05 9.40623e-16)
(6.53311e-05 0.00290738 -2.95334e-08)
(-0.000203513 0.00277644 1.0173e-07)
(-0.000344224 0.00242727 2.90559e-08)
(-0.000158738 0.00275151 9.63805e-08)
(-0.000206418 0.00238678 7.18507e-09)
(-0.000202377 0.0025784 1.51305e-10)
(-4.11927e-05 0.00246677 -8.5506e-12)
(-0.000762076 0.00253786 -5.42106e-11)
(-0.000254436 0.0022977 -2.78736e-11)
(-0.00120414 0.00265403 -2.96887e-11)
(-0.000784919 0.00199953 -1.77308e-11)
(-0.00144409 0.00274943 -1.37703e-11)
(-0.00156767 0.00192151 -1.02003e-11)
(-0.0021205 0.00260987 -6.2127e-12)
(-0.00232954 0.00143103 -4.62916e-12)
(-0.00217869 0.00192557 -2.16232e-12)
(-0.00324817 0.00156762 -1.45996e-12)
(-0.00372238 0.000333258 -5.38189e-14)
(-0.00277518 -0.00175785 2.98915e-13)
(-0.000568929 -0.00207687 5.91441e-13)
(0.000359971 -0.00131807 3.59929e-13)
(0.000823837 -0.000561343 2.55826e-13)
(0.000544939 -7.0905e-05 1.24957e-13)
(0.000460344 2.64169e-05 7.60777e-14)
(0.000268242 9.22993e-05 3.64153e-14)
(0.000205887 6.2164e-05 2.04687e-14)
(0.000118351 5.77496e-05 9.4118e-15)
(8.09046e-05 3.39613e-05 4.75076e-15)
(4.32863e-05 2.40014e-05 1.99871e-15)
(2.61933e-05 1.30088e-05 9.17688e-16)
(-0.000218518 0.00154975 -8.88578e-06)
(-0.000814326 0.00217279 -1.73033e-05)
(-2.48801e-06 0.00176457 -2.28331e-06)
(-0.0003345 0.00108518 -6.12675e-06)
(-0.000281431 0.00172931 -4.46085e-07)
(-0.00034903 0.00103074 -5.87598e-08)
(-0.000390024 0.00231301 -1.82108e-09)
(-0.00081736 0.00161803 -1.82116e-10)
(-0.00055754 0.00227534 -3.50985e-11)
(-0.00126856 0.00226801 -3.27501e-11)
(-0.000961865 0.00202055 -2.06158e-11)
(-0.00146969 0.00280923 -1.46897e-11)
(-0.0016339 0.00213753 -1.141e-11)
(-0.00220782 0.00283453 -6.62056e-12)
(-0.0024397 0.00156322 -5.05901e-12)
(-0.00214909 0.00209691 -2.3021e-12)
(-0.00345418 0.00192082 -1.59524e-12)
(-0.00412092 0.000401109 -4.21361e-14)
(-0.0030336 -0.00201668 3.51023e-13)
(-0.000523698 -0.00237653 6.49162e-13)
(0.000493835 -0.00144625 3.85908e-13)
(0.000920585 -0.000584892 2.63581e-13)
(0.00058508 -5.36814e-05 1.26309e-13)
(0.000469958 3.91385e-05 7.54817e-14)
(0.000269987 0.000102492 3.59337e-14)
(0.000204072 6.76958e-05 2.00666e-14)
(0.000117039 6.1928e-05 9.21421e-15)
(7.95185e-05 3.63261e-05 4.63612e-15)
(4.25109e-05 2.55892e-05 1.94819e-15)
(2.56403e-05 1.38653e-05 8.93262e-16)
(6.94258e-05 0.00566074 0.000197708)
(0.000264066 0.00386932 0.000595667)
(-0.00153499 0.00256817 7.3872e-05)
(0.000206552 0.00335234 5.84925e-05)
(-0.000234084 0.00305337 2.01454e-06)
(0.000490636 0.00287783 8.88595e-07)
(0.000266398 0.00338789 4.15505e-08)
(-0.000599022 0.00293041 9.34518e-09)
(-6.22482e-05 0.00301353 1.89979e-10)
(-0.00121044 0.00311356 -2.809e-11)
(-0.000664501 0.00246036 -2.26153e-11)
(-0.00135892 0.0031927 -1.5519e-11)
(-0.00159548 0.00239326 -1.26416e-11)
(-0.00230446 0.00309017 -7.06179e-12)
(-0.00255183 0.00160757 -5.51594e-12)
(-0.00207464 0.0022659 -2.45318e-12)
(-0.00367314 0.00228179 -1.74666e-12)
(-0.00460091 0.00049007 -3.35273e-14)
(-0.00333126 -0.0023153 4.12496e-13)
(-0.000465313 -0.00271691 7.14171e-13)
(0.000651875 -0.00158179 4.14482e-13)
(0.00102847 -0.000602322 2.71484e-13)
(0.000627521 -3.07175e-05 1.27493e-13)
(0.000479003 5.41433e-05 7.47335e-14)
(0.000271287 0.000113284 3.5389e-14)
(0.00020195 7.338e-05 1.96314e-14)
(0.000115586 6.61014e-05 9.00257e-15)
(7.80291e-05 3.86766e-05 4.51403e-15)
(4.16814e-05 2.7155e-05 1.89449e-15)
(2.50523e-05 1.47072e-05 8.67395e-16)
(-0.00053113 0.000427741 -0.00286954)
(-0.00213945 0.00324666 -0.00594275)
(-0.00191158 0.00278501 -0.000367677)
(-0.000146348 -0.000646599 -0.000591569)
(-0.000901637 0.00126034 1.2837e-05)
(0.000371548 -1.90968e-05 -1.29732e-05)
(-0.000555886 0.00287671 3.12861e-07)
(-0.000754417 0.00139483 -1.8764e-07)
(-0.000710223 0.00269078 -1.3262e-09)
(-0.0013974 0.00226292 -4.69338e-10)
(-0.00107919 0.00227846 -2.84596e-11)
(-0.00146055 0.00313564 -1.66361e-11)
(-0.00171047 0.00275936 -1.42558e-11)
(-0.00246229 0.00342463 -7.56213e-12)
(-0.00268358 0.00185883 -6.02415e-12)
(-0.00195609 0.00248944 -2.63184e-12)
(-0.00390063 0.00283589 -1.91911e-12)
(-0.00514753 0.000606346 -2.35046e-14)
(-0.00367624 -0.00266558 4.84448e-13)
(-0.000390641 -0.0031071 7.87224e-13)
(0.000838151 -0.00172549 4.45776e-13)
(0.00114845 -0.000612175 2.79402e-13)
(0.000671949 -9.69247e-07 1.28439e-13)
(0.000487152 7.15886e-05 7.38109e-14)
(0.000272022 0.000124659 3.47763e-14)
(0.000199492 7.92005e-05 1.91625e-14)
(0.000113984 7.0262e-05 8.77684e-15)
(7.64359e-05 4.10099e-05 4.38461e-15)
(4.07979e-05 2.86968e-05 1.83767e-15)
(2.44288e-05 1.5533e-05 8.40084e-16)
(-0.000866929 0.0122051 0.00379288)
(0.00422308 0.00877677 0.00673108)
(-0.0012239 0.00344747 -0.000819469)
(0.00260353 0.00243405 0.00104127)
(0.00146815 0.00378456 -8.82605e-05)
(0.00204476 0.002636 9.19221e-05)
(0.00110088 0.00499047 -2.63838e-06)
(-0.000415069 0.00335393 2.27421e-06)
(7.95789e-05 0.00400403 -2.75723e-08)
(-0.00121412 0.00363807 8.63912e-09)
(-0.000465325 0.00292644 -4.8924e-12)
(-0.0011127 0.00361961 -7.69401e-12)
(-0.00152963 0.00287368 -1.5641e-11)
(-0.002596 0.00351166 -8.07493e-12)
(-0.00282428 0.00158981 -6.53484e-12)
(-0.00179545 0.00257435 -2.82636e-12)
(-0.00414886 0.00331518 -2.11783e-12)
(-0.00582953 0.000733417 -2.39792e-14)
(-0.0040762 -0.00306773 5.6916e-13)
(-0.000295037 -0.00354952 8.69346e-13)
(0.00105787 -0.00187358 4.79947e-13)
(0.00128173 -0.00061176 2.87191e-13)
(0.000717982 3.65147e-05 1.2907e-13)
(0.000493996 9.16164e-05 7.26907e-14)
(0.000272063 0.000136586 3.40909e-14)
(0.000196668 8.51359e-05 1.86592e-14)
(0.000112227 7.44009e-05 8.53696e-15)
(7.47389e-05 4.33226e-05 4.24798e-15)
(3.98606e-05 3.02127e-05 1.77779e-15)
(2.37689e-05 1.63414e-05 8.11289e-16)
(0.00326045 -0.00449221 0.00104925)
(0.00730609 -0.0027742 0.00738934)
(-0.006321 0.00434449 0.0141872)
(0.00508978 -0.0054138 -0.00926059)
(-0.000786026 0.00118694 0.00137621)
(0.00176678 -0.00143427 -0.000469112)
(-0.00121808 0.00418335 7.51951e-05)
(-0.00105148 0.00138204 -1.16081e-05)
(-0.00116234 0.0031203 8.51399e-07)
(-0.00164436 0.00204603 -9.41831e-08)
(-0.00132486 0.00242987 2.46621e-09)
(-0.0014628 0.00343357 -2.15907e-10)
(-0.00178724 0.00370608 -1.28538e-11)
(-0.00287996 0.004263 -8.77836e-12)
(-0.00294694 0.0021312 -7.14288e-12)
(-0.00146635 0.00297093 -3.04283e-12)
(-0.00437033 0.00421125 -2.34102e-12)
(-0.0065763 0.000960178 -1.94684e-14)
(-0.00453709 -0.00355712 6.66972e-13)
(-0.000174958 -0.00406791 9.61087e-13)
(0.00131579 -0.00204051 5.16979e-13)
(0.00142884 -0.000602634 2.94634e-13)
(0.000764971 8.22241e-05 1.2929e-13)
(0.000499089 0.000114312 7.1348e-14)
(0.000271273 0.00014901 3.33283e-14)
(0.000193449 9.11576e-05 1.81212e-14)
(0.000110307 7.85074e-05 8.28293e-15)
(7.29381e-05 4.56109e-05 4.1043e-15)
(3.88698e-05 3.17003e-05 1.71493e-15)
(2.30717e-05 1.71312e-05 7.80982e-16)
(0.00511239 -0.00941868 -0.00161943)
(0.022642 0.0103618 -0.00926876)
(0.0116673 0.0117781 -0.00496419)
(0.0218237 -0.00657046 -0.010758)
(0.00710008 0.00825255 -0.00787574)
(0.0108011 0.00224423 -0.00118548)
(0.00231504 0.00848726 -0.000265147)
(-0.000656121 0.00368975 -6.09659e-05)
(-0.000247802 0.00529864 -5.0346e-06)
(-0.00131549 0.00416083 1.48528e-07)
(-0.000188283 0.003341 -3.43193e-08)
(-0.000533953 0.00400225 -9.31229e-11)
(-0.00122919 0.00338923 -5.32676e-11)
(-0.00310783 0.00390838 -5.76777e-12)
(-0.00318395 0.00125003 -8.25758e-12)
(-0.00120408 0.00278555 -3.27202e-12)
(-0.0046648 0.00480959 -2.63818e-12)
(-0.00756778 0.00111999 -4.34474e-14)
(-0.00508809 -0.00409985 7.82881e-13)
(-2.15697e-05 -0.00463921 1.06449e-12)
(0.0016209 -0.00218601 5.57239e-13)
(0.00159325 -0.000566641 3.0166e-13)
(0.000812758 0.000138361 1.29022e-13)
(0.000501953 0.000139684 6.97573e-14)
(0.000269513 0.000161856 3.24847e-14)
(0.000189813 9.72325e-05 1.75484e-14)
(0.000108221 8.25719e-05 8.01484e-15)
(7.1034e-05 4.78719e-05 3.95371e-15)
(3.78256e-05 3.31589e-05 1.64914e-15)
(2.23377e-05 1.79035e-05 7.49197e-16)
(-0.0243857 -0.0635098 -0.00682528)
(0.0276253 -0.0467573 -0.00139416)
(0.0175204 -0.00556809 -0.00444015)
(0.0148 -0.0159722 0.000575235)
(-0.000113225 0.00781848 -0.00982183)
(-0.0010461 -0.00360029 -5.74922e-05)
(0.00523376 0.0113922 -5.32801e-06)
(-0.000844081 0.00202512 0.000926058)
(-0.00166292 0.0034922 -2.13861e-05)
(-0.00227735 0.00132068 6.6106e-06)
(-0.00172219 0.00223745 -1.05505e-07)
(-0.00143013 0.00359009 4.49578e-08)
(-0.00182677 0.00514336 -2.51861e-09)
(-0.00358114 0.00549548 6.23765e-11)
(-0.00324111 0.00219591 -1.59076e-11)
(-0.00045655 0.00352812 -2.8019e-12)
(-0.00481253 0.0062634 -3.10679e-12)
(-0.00858123 0.00159291 -4.03689e-14)
(-0.00570132 -0.00480743 9.12515e-13)
(0.000168172 -0.00534882 1.17821e-12)
(0.00197644 -0.00239651 5.99883e-13)
(0.00176971 -0.000537986 3.07499e-13)
(0.000858269 0.000204217 1.28058e-13)
(0.000501866 0.00016736 6.78885e-14)
(0.000266642 0.000174965 3.15567e-14)
(0.000185738 0.000103283 1.6941e-14)
(0.000105966 8.6559e-05 7.73286e-15)
(6.90273e-05 5.00835e-05 3.79638e-15)
(3.67286e-05 3.45728e-05 1.5805e-15)
(2.15702e-05 1.86419e-05 7.16112e-16)
(-0.0186749 0.032714 -0.0296818)
(0.0181659 -0.0851596 -0.00979475)
(-0.00493181 0.0158066 -0.000279007)
(0.0191927 -0.00538132 0.00165512)
(0.000944544 0.0251935 0.00271242)
(0.00114778 -0.00246837 -0.00152049)
(0.00189507 0.0094023 0.00272367)
(-0.00967029 0.00839133 -0.00398864)
(-0.00198861 0.00757882 0.000666888)
(-0.00130557 0.00475401 -7.34426e-05)
(0.000421478 0.00369972 8.8551e-07)
(0.000680669 0.00433453 -7.671e-07)
(-0.000444693 0.00401341 6.32086e-08)
(-0.00406985 0.0043363 -1.82008e-09)
(-0.00371003 0.000391065 -9.22074e-11)
(-5.10253e-05 0.00283714 3.421e-12)
(-0.00517924 0.00695804 -5.99709e-12)
(-0.0100543 0.00176441 2.55473e-14)
(-0.0064918 -0.00555871 1.05948e-12)
(0.000410177 -0.00609152 1.30836e-12)
(0.00240096 -0.00252 6.47025e-13)
(0.0019746 -0.000437863 3.13105e-13)
(0.000905859 0.000286442 1.26507e-13)
(0.000498413 0.00019834 6.57217e-14)
(0.000262553 0.000188726 3.05427e-14)
(0.000181214 0.000109618 1.62997e-14)
(0.000103542 9.07005e-05 7.43726e-15)
(6.69197e-05 5.24022e-05 3.63249e-15)
(3.55792e-05 3.60481e-05 1.50906e-15)
(2.07685e-05 1.94251e-05 6.81647e-16)
(-0.017731 -0.0335818 -0.155827)
(0.00611064 -0.0764064 -0.030466)
(-0.00111127 -0.00326663 -0.017241)
(-0.00970056 -0.0322565 0.0158329)
(0.0149281 0.0213947 -0.00871879)
(0.0063757 -0.00593607 -0.00104682)
(0.00141694 0.0179086 -0.00341662)
(0.00188437 0.00407541 0.00574446)
(-0.00649553 -0.000532676 -0.00198578)
(-0.00283849 -0.000783691 0.000452223)
(-0.00205175 0.00107017 -4.49947e-05)
(-0.00133922 0.00340095 8.30399e-06)
(-0.0018991 0.00739582 -9.61664e-07)
(-0.00478825 0.00743677 4.93495e-08)
(-0.00360814 0.00167041 -2.38877e-09)
(0.00140786 0.00408546 1.54447e-10)
(-0.0051481 0.00933483 -3.67101e-11)
(-0.0114274 0.00270328 8.5074e-13)
(-0.00730589 -0.00651045 1.07943e-12)
(0.000707646 -0.00703328 1.44584e-12)
(0.00289113 -0.00278229 6.94044e-13)
(0.00218073 -0.00038701 3.15519e-13)
(0.000942114 0.00037012 1.23706e-13)
(0.000490133 0.000229682 6.32074e-14)
(0.000257029 0.000200719 2.94388e-14)
(0.000176206 0.000114727 1.5624e-14)
(0.000100934 9.3882e-05 7.12778e-15)
(6.47019e-05 5.41428e-05 3.46196e-15)
(3.43723e-05 3.71271e-05 1.43485e-15)
(1.99371e-05 1.99707e-05 6.46283e-16)
(-0.0143753 0.0919177 0.215103)
(-0.0409999 -0.125598 -0.0386916)
(-0.0266084 0.0394677 -0.0242126)
(-0.0178202 -0.0252933 0.0300139)
(0.00733818 0.0124417 0.0220653)
(0.00592316 0.00275186 0.00221991)
(-0.00388629 0.0157112 -0.00775817)
(0.00433431 0.0135559 -0.00752979)
(0.000653635 0.0133579 0.00666905)
(-0.0026471 0.00278217 -0.00115798)
(0.00256219 0.00419094 7.43608e-05)
(0.00322337 0.00480599 -3.76552e-05)
(0.00141296 0.00490275 6.51095e-06)
(-0.00591331 0.00482186 -3.47891e-07)
(-0.00457244 -0.00127491 1.75063e-09)
(0.00212482 0.0026361 -1.79367e-10)
(-0.00558736 0.0100628 -2.94736e-10)
(-0.013634 0.00284185 -6.53394e-12)
(-0.00847638 -0.00777679 -8.98556e-13)
(0.00107006 -0.00813149 1.59116e-12)
(0.00347497 -0.0028891 7.4849e-13)
(0.00243616 -0.000185867 3.18829e-13)
(0.000987026 0.000498643 1.20462e-13)
(0.000478094 0.00026998 6.03918e-14)
(0.000250115 0.000217177 2.82553e-14)
(0.000170828 0.000122536 1.49216e-14)
(9.82143e-05 9.9256e-05 6.808e-15)
(6.24277e-05 5.71927e-05 3.28665e-15)
(3.31376e-05 3.90874e-05 1.35861e-15)
(1.90862e-05 2.10142e-05 6.0975e-16)
(0.167191 0.113948 -0.0014497)
(-0.0868801 -0.0323613 0.0344393)
(-0.00115374 0.0257719 -0.0162943)
(-0.0161729 -0.0583592 0.0009022)
(0.0097324 -0.000531607 0.0104086)
(-0.026014 -0.000949569 -0.0145968)
(-0.00670114 0.0179934 0.0111217)
(-0.0207166 -0.0019174 -0.00987099)
(-0.000527512 0.00280025 -0.00687566)
(-0.00625488 -0.00202157 0.00437273)
(-0.000767085 -0.00226759 -0.00109553)
(-0.00147917 0.00276737 0.000205398)
(-0.00199592 0.0111307 -3.56654e-05)
(-0.00685949 0.0107609 3.58599e-06)
(-0.00410665 -7.89281e-05 -2.55952e-07)
(0.00461823 0.0044646 1.36121e-08)
(-0.00526484 0.0139802 -3.14508e-09)
(-0.0155483 0.00459495 -2.67147e-10)