/*--------------------------------*- C++ -*----------------------------------*\
| =========                 |                                                 |
| \\      /  F ield         | OpenFOAM: The Open Source CFD Toolbox           |
|  \\    /   O peration     | Version:  2.4.0                                 |
|   \\  /    A nd           | Web:      www.OpenFOAM.org                      |
|    \\/     M anipulation  |                                                 |
\*---------------------------------------------------------------------------*/
FoamFile
{
    version     2.0;
    format      ascii;
    class       volVectorField;
    location    "0.085";
    object      U;
}
// * * * * * * * * * * * * * * * * * * * * * * * * * * * * * * * * * * * * * //

dimensions      [0 1 -1 0 0 0 0];

internalField   nonuniform List<vector> 
10000
(
(-3.3224e-06 3.401e-06 0)
(-1.172e-05 3.75066e-06 0)
(-1.91143e-05 3.32558e-06 0)
(-2.44501e-05 2.74903e-06 0)
(-2.70553e-05 2.18681e-06 0)
(-2.71764e-05 1.69096e-06 0)
(-2.51713e-05 1.30866e-06 0)
(-2.13228e-05 9.9274e-07 0)
(-1.57706e-05 6.88457e-07 0)
(-8.44525e-06 3.49344e-07 0)
(8.80077e-07 -5.81532e-08 0)
(1.2533e-05 -5.54124e-07 0)
(2.68918e-05 -1.14749e-06 0)
(4.43472e-05 -1.83768e-06 0)
(6.52725e-05 -2.61614e-06 0)
(9.00005e-05 -3.46857e-06 0)
(0.000118803 -4.37706e-06 0)
(0.000151872 -5.32188e-06 0)
(0.000189314 -6.28233e-06 0)
(0.000231133 -7.23668e-06 0)
(0.000277226 -8.16143e-06 0)
(0.00032737 -9.03097e-06 0)
(0.000381208 -9.81759e-06 0)
(0.000438232 -1.04917e-05 0)
(0.000497768 -1.10222e-05 0)
(0.000558966 -1.13762e-05 0)
(0.000620798 -1.15203e-05 0)
(0.000682061 -1.14217e-05 0)
(0.000741401 -1.1051e-05 0)
(0.000797339 -1.03852e-05 0)
(0.000848319 -9.41145e-06 0)
(0.000892764 -8.12863e-06 0)
(0.000929137 -6.5477e-06 0)
(0.000956009 -4.69051e-06 0)
(0.000972127 -2.60152e-06 0)
(0.000976414 -3.41866e-07 0)
(0.000968051 2.05944e-06 0)
(0.000946513 4.54741e-06 0)
(0.000911531 7.05934e-06 0)
(0.000863117 9.53985e-06 0)
(0.000801553 1.19377e-05 0)
(0.000727381 1.42046e-05 0)
(0.000641388 1.62958e-05 0)
(0.000544586 1.81716e-05 0)
(0.000438189 1.9798e-05 0)
(0.000323589 2.11462e-05 0)
(0.000202321 2.21922e-05 0)
(7.60293e-05 2.29197e-05 0)
(-5.3564e-05 2.33198e-05 0)
(-0.000184682 2.33843e-05 0)
(-4.07836e-06 1.22022e-05 0)
(-1.43995e-05 1.3527e-05 0)
(-2.1188e-05 1.0099e-05 0)
(-2.25835e-05 5.2616e-06 0)
(-1.7439e-05 1.86535e-07 0)
(-6.00576e-06 -4.44711e-06 0)
(1.1086e-05 -8.4399e-06 0)
(3.32761e-05 -1.20138e-05 0)
(6.0336e-05 -1.55214e-05 0)
(9.24385e-05 -1.92987e-05 0)
(0.000130092 -2.35963e-05 0)
(0.000174035 -2.85675e-05 0)
(0.000225141 -3.42797e-05 0)
(0.000284329 -4.07309e-05 0)
(0.000352495 -4.78644e-05 0)
(0.000430455 -5.55825e-05 0)
(0.000518888 -6.37555e-05 0)
(0.000618292 -7.22268e-05 0)
(0.000728943 -8.08145e-05 0)
(0.000850854 -8.93097e-05 0)
(0.000983735 -9.7475e-05 0)
(0.00112696 -0.000105044 0)
(0.0012795 -0.000111721 0)
(0.00143993 -0.000117187 0)
(0.00160636 -0.000121106 0)
(0.00177644 -0.000123131 0)
(0.00194735 -0.000122924 0)
(0.00211586 -0.000120172 0)
(0.00227835 -0.000114613 0)
(0.00243089 -0.000106057 0)
(0.0025694 -9.44149e-05 0)
(0.00268974 -7.97113e-05 0)
(0.0027879 -6.20924e-05 0)
(0.00286013 -4.18217e-05 0)
(0.00290309 -1.9271e-05 0)
(0.00291397 5.09276e-06 0)
(0.00289059 3.07918e-05 0)
(0.00283143 5.72862e-05 0)
(0.0027357 8.40277e-05 0)
(0.00260332 0.000110476 0)
(0.00243492 0.000136108 0)
(0.00223184 0.000160426 0)
(0.00199609 0.000182965 0)
(0.00173028 0.000203302 0)
(0.00143761 0.000221064 0)
(0.00112177 0.000235935 0)
(0.000786881 0.000247656 0)
(0.000437386 0.000256031 0)
(7.79723e-05 0.000260936 0)
(-0.000286492 0.000262301 0)
(-3.78468e-06 2.04575e-05 0)
(-1.1234e-05 2.02635e-05 0)
(-1.23127e-05 1.10575e-05 0)
(-5.34799e-06 -1.21422e-06 0)
(1.08064e-05 -1.40986e-05 0)
(3.58857e-05 -2.60919e-05 0)
(6.91928e-05 -3.68069e-05 0)
(0.000110142 -4.66934e-05 0)
(0.000158582 -5.65374e-05 0)
(0.000214873 -6.71108e-05 0)
(0.00027981 -7.90059e-05 0)
(0.0003545 -9.25962e-05 0)
(0.000440234 -0.000108053 0)
(0.000538363 -0.000125381 0)
(0.000650206 -0.000144449 0)
(0.000776958 -0.000165019 0)
(0.000919617 -0.000186763 0)
(0.00107891 -0.00020927 0)
(0.00125522 -0.000232051 0)
(0.00144855 -0.000254538 0)
(0.00165842 -0.000276083 0)
(0.00188386 -0.00029596 0)
(0.00212329 -0.00031337 0)
(0.0023745 -0.000327454 0)
(0.00263461 -0.000337308 0)
(0.00290006 -0.00034201 0)
(0.00316658 -0.000340664 0)
(0.00342928 -0.000332446 0)
(0.00368267 -0.000316666 0)
(0.00392082 -0.000292831 0)
(0.00413753 -0.0002607 0)
(0.00432649 -0.000220334 0)
(0.00448157 -0.00017211 0)
(0.00459698 -0.000116709 0)
(0.00466757 -5.50783e-05 0)
(0.00468891 1.16199e-05 0)
(0.00465753 8.20653e-05 0)
(0.0045709 0.000154849 0)
(0.00442759 0.000228525 0)
(0.00422726 0.00030164 0)
(0.00397065 0.000372765 0)
(0.00365958 0.000440523 0)
(0.00329693 0.000503615 0)
(0.00288661 0.00056084 0)
(0.00243341 0.000611124 0)
(0.00194297 0.000653543 0)
(0.00142165 0.000687329 0)
(0.000876374 0.00071189 0)
(0.000314491 0.000726821 0)
(-0.000256335 0.00073191 0)
(-3.12612e-06 2.64641e-05 0)
(-6.06917e-06 2.16156e-05 0)
(3.37144e-07 3.96498e-06 0)
(1.70965e-05 -1.81764e-05 0)
(4.49627e-05 -4.11862e-05 0)
(8.35589e-05 -6.28131e-05 0)
(0.000132191 -8.25309e-05 0)
(0.000190375 -0.000101106 0)
(0.000258146 -0.000119845 0)
(0.000336119 -0.000140034 0)
(0.000425405 -0.000162674 0)
(0.000527465 -0.000188402 0)
(0.000643963 -0.000217518 0)
(0.00077663 -0.000250034 0)
(0.000927143 -0.000285721 0)
(0.00109702 -0.000324154 0)
(0.00128752 -0.000364734 0)
(0.00149957 -0.000406703 0)
(0.00173367 -0.000449151 0)
(0.00198979 -0.000491017 0)
(0.00226736 -0.000531091 0)
(0.00256509 -0.000568015 0)
(0.00288099 -0.000600299 0)
(0.00321226 -0.000626335 0)
(0.00355522 -0.000644435 0)
(0.00390534 -0.000652886 0)
(0.00425715 -0.000650013 0)
(0.0046044 -0.00063428 0)
(0.00494001 -0.000604393 0)
(0.00525632 -0.000559416 0)
(0.00554526 -0.00049888 0)
(0.00579859 -0.000422868 0)
(0.00600825 -0.000332049 0)
(0.00616659 -0.000227653 0)
(0.00626674 -0.000111401 0)
(0.00630278 1.45934e-05 0)
(0.00626994 0.00014791 0)
(0.00616469 0.000285959 0)
(0.00598487 0.000426059 0)
(0.00572973 0.000565487 0)
(0.00539991 0.000701541 0)
(0.00499752 0.000831588 0)
(0.00452609 0.000953116 0)
(0.0039905 0.00106378 0)
(0.00339694 0.00116145 0)
(0.00275275 0.00124427 0)
(0.0020663 0.0013107 0)
(0.00134681 0.00135952 0)
(0.000604099 0.00138988 0)
(-0.000151543 0.00140132 0)
(-2.44399e-06 2.95674e-05 0)
(-7.90413e-07 1.65568e-05 0)
(1.296e-05 -1.197e-05 0)
(3.898e-05 -4.58341e-05 0)
(7.74548e-05 -8.05383e-05 0)
(0.000127839 -0.000113298 0)
(0.000189463 -0.000143596 0)
(0.000262003 -0.000172619 0)
(0.000345743 -0.000202257 0)
(0.000441601 -0.00023436 0)
(0.00055102 -0.000270368 0)
(0.000675812 -0.000311205 0)
(0.000817994 -0.000357305 0)
(0.000979643 -0.000408679 0)
(0.00116276 -0.000464979 0)
(0.00136916 -0.00052555 0)
(0.00160036 -0.000589467 0)
(0.00185747 -0.000655555 0)
(0.0021411 -0.000722396 0)
(0.0024513 -0.000788335 0)
(0.0027874 -0.00085148 0)
(0.00314798 -0.000909705 0)
(0.00353074 -0.000960673 0)
(0.00393245 -0.00100186 0)
(0.00434884 -0.00103062 0)
(0.0047746 -0.00104425 0)
(0.00520333 -0.00104011 0)
(0.00562758 -0.00101574 0)
(0.00603894 -0.00096907 0)
(0.00642818 -0.000898564 0)
(0.0067855 -0.00080342 0)
(0.00710083 -0.000683702 0)
(0.00736427 -0.000540401 0)
(0.00756641 -0.000375397 0)
(0.00769871 -0.000191342 0)
(0.00775378 8.49568e-06 0)
(0.00772561 0.000220377 0)
(0.00760962 0.000440276 0)
(0.00740285 0.000663992 0)
(0.007104 0.000887239 0)
(0.00671351 0.00110572 0)
(0.00623355 0.0013152 0)
(0.0056681 0.00151158 0)
(0.00502285 0.00169102 0)
(0.00430519 0.00184997 0)
(0.00352399 0.00198532 0)
(0.00268951 0.00209445 0)
(0.00181311 0.00217527 0)
(0.000907027 0.00222633 0)
(-1.59334e-05 0.00224676 0)
(-1.89838e-06 3.00491e-05 0)
(3.51139e-06 5.78261e-06 0)
(2.3188e-05 -3.56212e-05 0)
(5.65433e-05 -8.2554e-05 0)
(0.000103196 -0.000129958 0)
(0.000162428 -0.000174778 0)
(0.000233606 -0.000216688 0)
(0.000316598 -0.00025741 0)
(0.000411964 -0.00029949 0)
(0.000520945 -0.000345372 0)
(0.000645329 -0.000396953 0)
(0.000787277 -0.000455448 0)
(0.000949151 -0.000521421 0)
(0.00113336 -0.000594867 0)
(0.00134223 -0.000675292 0)
(0.00157785 -0.000761782 0)
(0.00184201 -0.000853043 0)
(0.00213601 -0.000947431 0)
(0.00246066 -0.00104296 0)
(0.00281607 -0.0011373 0)
(0.00320165 -0.00122779 0)
(0.00361591 -0.00131143 0)
(0.00405642 -0.00138491 0)
(0.00451968 -0.00144466 0)
(0.00500102 -0.0014869 0)
(0.00549458 -0.00150776 0)
(0.0059932 -0.00150343 0)
(0.00648845 -0.00147034 0)
(0.00697071 -0.00140542 0)
(0.0074293 -0.00130633 0)
(0.00785275 -0.00117181 0)
(0.00822921 -0.00100181 0)
(0.00854692 -0.000797684 0)
(0.00879472 -0.000562037 0)
(0.00896243 -0.000298609 0)
(0.00904121 -1.20107e-05 0)
(0.00902379 0.000292508 0)
(0.00890454 0.00060926 0)
(0.00867962 0.000932301 0)
(0.00834708 0.00125552 0)
(0.00790695 0.00157274 0)
(0.00736134 0.00187779 0)
(0.00671448 0.00216465 0)
(0.0059727 0.00242755 0)
(0.00514441 0.00266118 0)
(0.00423995 0.00286081 0)
(0.00327135 0.00302241 0)
(0.00225208 0.0031428 0)
(0.00119672 0.00321969 0)
(0.000120602 0.00325173 0)
(-1.55559e-06 2.85681e-05 0)
(6.35257e-06 -9.14404e-06 0)
(2.99376e-05 -6.48199e-05 0)
(6.80025e-05 -0.000125665 0)
(0.000119725 -0.000186308 0)
(0.000184255 -0.00024366 0)
(0.000261017 -0.000297773 0)
(0.000350079 -0.000351023 0)
(0.000452289 -0.000406673 0)
(0.000569215 -0.000467798 0)
(0.000702992 -0.00053676 0)
(0.000856127 -0.000615066 0)
(0.00103133 -0.000703399 0)
(0.00123134 -0.000801723 0)
(0.00145879 -0.000909383 0)
(0.00171609 -0.00102518 0)
(0.00200528 -0.00114743 0)
(0.00232794 -0.00127398 0)
(0.00268507 -0.00140223 0)
(0.00307701 -0.00152914 0)
(0.00350327 -0.00165119 0)
(0.00396248 -0.00176443 0)
(0.00445221 -0.00186448 0)
(0.00496888 -0.0019466 0)
(0.00550763 -0.00200573 0)
(0.00606221 -0.00203667 0)
(0.00662492 -0.00203423 0)
(0.00718653 -0.00199348 0)
(0.00773633 -0.00191009 0)
(0.00826225 -0.00178069 0)
(0.00875116 -0.00160333 0)
(0.00918932 -0.00137779 0)
(0.00956307 -0.00110574 0)
(0.00985943 -0.000790657 0)
(0.0100666 -0.000437533 0)
(0.0101742 -5.25072e-05 0)
(0.0101739 0.000357469 0)
(0.0100588 0.000784886 0)
(0.00982424 0.00122188 0)
(0.00946738 0.0016603 0)
(0.00898771 0.00209181 0)
(0.00838704 0.002508 0)
(0.00766966 0.00290051 0)
(0.0068424 0.00326131 0)
(0.00591457 0.00358288 0)
(0.00489785 0.00385847 0)
(0.00380604 0.00408232 0)
(0.00265472 0.00424983 0)
(0.00146086 0.00435769 0)
(0.000242324 0.0044039 0)
(-1.36509e-06 2.59254e-05 0)
(7.74484e-06 -2.63964e-05 0)
(3.3056e-05 -9.70509e-05 0)
(7.30289e-05 -0.000172129 0)
(0.000126554 -0.000246105 0)
(0.000192708 -0.000316055 0)
(0.000270999 -0.000382566 0)
(0.000361706 -0.000448781 0)
(0.000465962 -0.000518744 0)
(0.000585662 -0.00059619 0)
(0.00072328 -0.000683957 0)
(0.000881671 -0.000783838 0)
(0.00106388 -0.000896629 0)
(0.001273 -0.00102226 0)
(0.00151198 -0.00115989 0)
(0.00178353 -0.00130804 0)
(0.00209002 -0.00146462 0)
(0.00243331 -0.00162695 0)
(0.00281472 -0.00179179 0)
(0.00323484 -0.00195534 0)
(0.00369348 -0.0021132 0)
(0.00418947 -0.00226041 0)
(0.00472057 -0.00239144 0)
(0.0052833 -0.00250027 0)
(0.00587281 -0.00258046 0)
(0.0064827 -0.00262529 0)
(0.0071049 -0.00262795 0)
(0.00772958 -0.00258188 0)
(0.00834504 -0.00248119 0)
(0.00893786 -0.00232113 0)
(0.00949314 -0.00209878 0)
(0.00999512 -0.00181357 0)
(0.0104281 -0.00146759 0)
(0.010777 -0.0010653 0)
(0.0110286 -0.000613176 0)
(0.011171 -0.000119079 0)
(0.0111945 0.000408165 0)
(0.0110914 0.000959122 0)
(0.0108557 0.00152388 0)
(0.0104836 0.00209211 0)
(0.00997394 0.00265306 0)
(0.00932785 0.00319575 0)
(0.00854947 0.00370912 0)
(0.00764592 0.00418239 0)
(0.00662733 0.00460538 0)
(0.00550669 0.0049689 0)
(0.00429958 0.00526504 0)
(0.00302374 0.00548745 0)
(0.00169862 0.00563155 0)
(0.000344757 0.00569456 0)
(-1.32524e-06 2.29028e-05 0)
(7.802e-06 -4.42214e-05 0)
(3.28041e-05 -0.000129855 0)
(7.20112e-05 -0.000218946 0)
(0.000124193 -0.000305908 0)
(0.000188426 -0.000388129 0)
(0.000264338 -0.000466867 0)
(0.00035243 -0.000546122 0)
(0.00045412 -0.000630779 0)
(0.000571624 -0.000725257 0)
(0.000707751 -0.000832879 0)
(0.000865697 -0.000955724 0)
(0.00104885 -0.0010947 0)
(0.00126064 -0.00124969 0)
(0.00150434 -0.0014197 0)
(0.00178302 -0.00160294 0)
(0.00209937 -0.00179692 0)
(0.00245563 -0.00199843 0)
(0.00285347 -0.00220361 0)
(0.00329388 -0.00240785 0)
(0.00377705 -0.00260587 0)
(0.00430218 -0.00279167 0)
(0.00486738 -0.00295852 0)
(0.00546949 -0.00309907 0)
(0.00610387 -0.00320535 0)
(0.00676421 -0.00326895 0)
(0.00744234 -0.00328122 0)
(0.00812798 -0.00323366 0)
(0.00880862 -0.00311835 0)
(0.00946946 -0.00292874 0)
(0.0100937 -0.00266053 0)
(0.0106632 -0.00231262 0)
(0.0111598 -0.00188755 0)
(0.0115666 -0.00139111 0)
(0.0118685 -0.000831466 0)
(0.0120523 -0.000218495 0)
(0.0121074 0.000437 0)
(0.0120246 0.00112362 0)
(0.0117968 0.0018294 0)
(0.0114191 0.00254172 0)
(0.0108889 0.00324725 0)
(0.0102065 0.00393206 0)
(0.00937567 0.00458197 0)
(0.00840354 0.00518292 0)
(0.00730097 0.00572154 0)
(0.00608224 0.00618564 0)
(0.00476477 0.00656471 0)
(0.00336864 0.00685029 0)
(0.00191596 0.0070362 0)
(0.000430151 0.00711878 0)
(-1.4113e-06 2.01323e-05 0)
(6.70338e-06 -6.10774e-05 0)
(2.95568e-05 -0.000160987 0)
(6.55375e-05 -0.000263318 0)
(0.00011344 -0.000362473 0)
(0.000172413 -0.000456251 0)
(0.000242247 -0.000546685 0)
(0.000323677 -0.00063871 0)
(0.000418413 -0.000738093 0)
(0.000528986 -0.000849961 0)
(0.000658535 -0.000978129 0)
(0.000810591 -0.00112496 0)
(0.000988878 -0.00129149 0)
(0.00119715 -0.00147756 0)
(0.00143904 -0.00168201 0)
(0.00171796 -0.00190279 0)
(0.00203701 -0.00213698 0)
(0.00239883 -0.00238089 0)
(0.00280554 -0.00263 0)
(0.00325861 -0.00287898 0)
(0.00375873 -0.00312164 0)
(0.00430565 -0.00335094 0)
(0.004898 -0.00355897 0)
(0.00553316 -0.00373696 0)
(0.00620695 -0.00387533 0)
(0.00691344 -0.00396384 0)
(0.0076446 -0.00399174 0)
(0.00838999 -0.00394814 0)
(0.00913644 -0.00382264 0)
(0.0098678 -0.00360622 0)
(0.010565 -0.00329258 0)
(0.0112072 -0.00287981 0)
(0.0117733 -0.0023712 0)
(0.0122442 -0.00177423 0)
(0.0126033 -0.00109922 0)
(0.0128364 -0.000358338 0)
(0.0129315 0.000435572 0)
(0.0128787 0.00126928 0)
(0.0126692 0.00212891 0)
(0.0122962 0.00299958 0)
(0.0117556 0.00386519 0)
(0.0110462 0.00470851 0)
(0.010171 0.00551165 0)
(0.00913696 0.00625669 0)
(0.0079555 0.00692637 0)
(0.00664226 0.00750487 0)
(0.00521667 0.00797851 0)
(0.00370136 0.00833626 0)
(0.0021214 0.00857011 0)
(0.000503431 0.00867526 0)
(-1.61181e-06 1.81878e-05 0)
(4.58433e-06 -7.56004e-05 0)
(2.36379e-05 -0.000188414 0)
(5.41364e-05 -0.000302664 0)
(9.50245e-05 -0.000412766 0)
(0.000145594 -0.000517 0)
(0.000205836 -0.000618245 0)
(0.000276748 -0.000722425 0)
(0.000360332 -0.000836223 0)
(0.000459434 -0.000965488 0)
(0.000577513 -0.00111454 0)
(0.00071842 -0.00128603 0)
(0.000886203 -0.00148112 0)
(0.00108495 -0.00169963 0)
(0.00131864 -0.00194027 0)
(0.00159108 -0.00220069 0)
(0.00190577 -0.00247764 0)
(0.00226584 -0.00276693 0)
(0.00267391 -0.00306346 0)
(0.00313203 -0.00336118 0)
(0.00364152 -0.00365309 0)
(0.00420281 -0.00393112 0)
(0.0048153 -0.00418619 0)
(0.0054771 -0.00440811 0)
(0.00618482 -0.00458567 0)
(0.00693319 -0.00470659 0)
(0.0077147 -0.00475777 0)
(0.00851905 -0.0047255 0)
(0.00933267 -0.00459625 0)
(0.0101381 -0.00435757 0)
(0.0109138 -0.00400029 0)
(0.0116349 -0.0035213 0)
(0.0122773 -0.00292511 0)
(0.0128195 -0.00222171 0)
(0.0132435 -0.00142412 0)
(0.0135344 -0.000547206 0)
(0.0136798 0.000394241 0)
(0.0136682 0.00138559 0)
(0.0134891 0.00241149 0)
(0.0131332 0.00345496 0)
(0.0125937 0.00449694 0)
(0.0118676 0.00551644 0)
(0.0109563 0.00649119 0)
(0.00986641 0.00739852 0)
(0.00860988 0.00821649 0)
(0.00720379 0.00892489 0)
(0.00566983 0.00950616 0)
(0.00403354 0.00994622 0)
(0.00232338 0.0102349 0)
(0.000569619 0.010366 0)
(-1.9194e-06 1.75708e-05 0)
(1.54275e-06 -8.65678e-05 0)
(1.52852e-05 -0.000210273 0)
(3.8205e-05 -0.000334582 0)
(6.95039e-05 -0.000453934 0)
(0.000108679 -0.000567128 0)
(0.000155969 -0.000677937 0)
(0.000212652 -0.00079331 0)
(0.000281032 -0.000920867 0)
(0.00036426 -0.00106719 0)
(0.000466102 -0.00123709 0)
(0.000590712 -0.00143355 0)
(0.00074245 -0.00165785 0)
(0.000925726 -0.0019098 0)
(0.00114489 -0.00218798 0)
(0.00140412 -0.00248982 0)
(0.00170737 -0.00281173 0)
(0.00205826 -0.00314911 0)
(0.00246 -0.00349633 0)
(0.00291529 -0.00384674 0)
(0.00342621 -0.00419256 0)
(0.00399404 -0.00452482 0)
(0.00461914 -0.0048333 0)
(0.00530066 -0.00510646 0)
(0.00603628 -0.00533138 0)
(0.00682181 -0.00549371 0)
(0.00765063 -0.00557765 0)
(0.00851296 -0.00556623 0)
(0.00939526 -0.005442 0)
(0.010279 -0.00518784 0)
(0.0111395 -0.00479018 0)
(0.011947 -0.00424404 0)
(0.0126727 -0.00355646 0)
(0.0132936 -0.00274119 0)
(0.0137908 -0.00181464 0)
(0.0141494 -0.000794962 0)
(0.0143568 0.000301512 0)
(0.0144005 0.00145975 0)
(0.0142669 0.00266381 0)
(0.0139432 0.00389493 0)
(0.0134189 0.00513086 0)
(0.0126879 0.00634617 0)
(0.0117495 0.00751325 0)
(0.0106098 0.00860367 0)
(0.0092811 0.00958971 0)
(0.00778212 0.0104458 0)
(0.00613725 0.0111497 0)
(0.00437543 0.0116837 0)
(0.00252907 0.012035 0)
(0.000632659 0.0121962 0)
(-2.32867e-06 1.874e-05 0)
(-2.35316e-06 -9.28442e-05 0)
(4.66452e-06 -0.000224826 0)
(1.80269e-05 -0.000356807 0)
(3.72857e-05 -0.000483259 0)
(6.22031e-05 -0.000603521 0)
(9.33037e-05 -0.000722281 0)
(0.000132167 -0.000847533 0)
(0.000181399 -0.000987839 0)
(0.000244447 -0.00115051 0)
(0.000325364 -0.00134089 0)
(0.000428592 -0.00156224 0)
(0.00055878 -0.00181599 0)
(0.000720653 -0.00210196 0)
(0.000918901 -0.00241862 0)
(0.0011581 -0.00276321 0)
(0.00144264 -0.00313189 0)
(0.00177666 -0.0035197 0)
(0.00216399 -0.00392063 0)
(0.00260806 -0.00432749 0)
(0.00311181 -0.00473187 0)
(0.00367757 -0.00512402 0)
(0.00430687 -0.00549272 0)
(0.0050002 -0.00582517 0)
(0.00575669 -0.00610678 0)
(0.00657361 -0.006321 0)
(0.00744571 -0.00644914 0)
(0.00836415 -0.0064704 0)
(0.00931596 -0.00636274 0)
(0.0102822 -0.00610261 0)
(0.0112346 -0.00566946 0)
(0.0121359 -0.00505534 0)
(0.0129518 -0.00427247 0)
(0.0136585 -0.00334061 0)
(0.0142375 -0.00227998 0)
(0.0146746 -0.00111312 0)
(0.0149586 0.000143179 0)
(0.0150755 0.00147552 0)
(0.0150071 0.00286887 0)
(0.0147349 0.00430319 0)
(0.0142432 0.00575261 0)
(0.0135216 0.00718623 0)
(0.0125666 0.00856976 0)
(0.0113833 0.0098676 0)
(0.0099845 0.0110449 0)
(0.00839104 0.0120695 0)
(0.00663046 0.0129136 0)
(0.00473584 0.0135552 0)
(0.00274426 0.0139783 0)
(0.000695168 0.0141741 0)
(-2.82339e-06 2.21319e-05 0)
(-7.04329e-06 -9.33666e-05 0)
(-8.10439e-06 -0.000230423 0)
(-6.17898e-06 -0.000367179 0)
(-1.30211e-06 -0.000498136 0)
(6.6098e-06 -0.000623176 0)
(1.84016e-05 -0.000747906 0)
(3.59669e-05 -0.000881367 0)
(6.22105e-05 -0.00103306 0)
(0.00010086 -0.00121102 0)
(0.000156236 -0.0014211 0)
(0.000233043 -0.00166685 0)
(0.000336199 -0.00194985 0)
(0.000470713 -0.00226994 0)
(0.000641594 -0.00262552 0)
(0.000853778 -0.0030137 0)
(0.00111208 -0.00343044 0)
(0.00142116 -0.00387058 0)
(0.00178547 -0.00432779 0)
(0.00220923 -0.00479455 0)
(0.00269637 -0.00526198 0)
(0.00325039 -0.00571972 0)
(0.00387424 -0.00615576 0)
(0.00457006 -0.00655618 0)
(0.00533884 -0.00690483 0)
(0.00617982 -0.00718295 0)
(0.00708955 -0.00736865 0)
(0.00806038 -0.00743673 0)
(0.00908063 -0.00736038 0)
(0.0101324 -0.00710735 0)
(0.0111837 -0.00664564 0)
(0.0121859 -0.00596194 0)
(0.0130969 -0.0050796 0)
(0.0138957 -0.00402793 0)
(0.0145655 -0.00283017 0)
(0.0150939 -0.00151553 0)
(0.0154731 -9.90141e-05 0)
(0.0156868 0.00141151 0)
(0.0157095 0.00300442 0)
(0.0155142 0.00465885 0)
(0.0150772 0.00634437 0)
(0.0143823 0.00802294 0)
(0.0134228 0.00965172 0)
(0.0122024 0.011186 0)
(0.0107348 0.0125822 0)
(0.00904358 0.0138001 0)
(0.00716013 0.0148051 0)
(0.00512257 0.0155701 0)
(0.00297362 0.0160758 0)
(0.00075858 0.0163115 0)
(-3.403e-06 2.81492e-05 0)
(-1.24826e-05 -8.71204e-05 0)
(-2.29027e-05 -0.000225486 0)
(-3.4203e-05 -0.000363629 0)
(-4.59352e-05 -0.000496071 0)
(-5.76475e-05 -0.00062321 0)
(-6.81496e-05 -0.000751565 0)
(-7.52289e-05 -0.000891205 0)
(-7.56903e-05 -0.00105255 0)
(-6.55448e-05 -0.00124436 0)
(-4.02259e-05 -0.00147293 0)
(5.20282e-06 -0.00174215 0)
(7.58902e-05 -0.0020537 0)
(0.000177093 -0.00240748 0)
(0.000314088 -0.00280186 0)
(0.000492129 -0.00323388 0)
(0.000716414 -0.0036994 0)
(0.000992081 -0.00419314 0)
(0.00132421 -0.00470865 0)
(0.00171784 -0.00523824 0)
(0.00217791 -0.0057728 0)
(0.00270928 -0.00630166 0)
(0.00331652 -0.00681223 0)
(0.00400376 -0.00728973 0)
(0.0047743 -0.00771667 0)
(0.00562986 -0.00807207 0)
(0.00656935 -0.00833052 0)
(0.00758616 -0.00846142 0)
(0.00867029 -0.00843445 0)
(0.00980768 -0.0082064 0)
(0.0109641 -0.00772583 0)
(0.0120719 -0.00696851 0)
(0.0130789 -0.00598242 0)
(0.0139752 -0.00481132 0)
(0.0147463 -0.0034764 0)
(0.0153817 -0.00201967 0)
(0.0158812 -0.000449433 0)
(0.0162241 0.00123904 0)
(0.016373 0.00304114 0)
(0.0162871 0.00493519 0)
(0.0159322 0.00688421 0)
(0.0152849 0.0088403 0)
(0.0143345 0.0107494 0)
(0.0130836 0.0125553 0)
(0.0115475 0.0142035 0)
(0.00975305 0.015644 0)
(0.0077368 0.0168344 0)
(0.00554298 0.0177415 0)
(0.00322108 0.0183421 0)
(0.000823357 0.0186239 0)
(-4.04804e-06 3.71678e-05 0)
(-1.86054e-05 -7.3142e-05 0)
(-3.95995e-05 -0.000208527 0)
(-6.5805e-05 -0.000344205 0)
(-9.62313e-05 -0.000474699 0)
(-0.000130023 -0.000600889 0)
(-0.000165631 -0.00073017 0)
(-0.000200523 -0.00087361 0)
(-0.000231228 -0.00104252 0)
(-0.000253514 -0.00124631 0)
(-0.000262605 -0.00149175 0)
(-0.000253373 -0.00178299 0)
(-0.000220477 -0.00212186 0)
(-0.000158474 -0.00250832 0)
(-6.18699e-05 -0.00294075 0)
(7.48398e-05 -0.00341618 0)
(0.000257172 -0.00393046 0)
(0.000490683 -0.00447832 0)
(0.000781027 -0.00505338 0)
(0.00113401 -0.00564799 0)
(0.00155565 -0.00625313 0)
(0.00205219 -0.00685809 0)
(0.00263004 -0.00745012 0)
(0.00329562 -0.00801396 0)
(0.00405499 -0.00853108 0)
(0.00491306 -0.00897839 0)
(0.00587181 -0.00932642 0)
(0.00692514 -0.00953711 0)
(0.00806359 -0.00958005 0)
(0.00928065 -0.00940132 0)
(0.0105455 -0.00891583 0)
(0.0117592 -0.008075 0)
(0.0128549 -0.00698223 0)
(0.0138536 -0.00570059 0)
(0.0147407 -0.00423215 0)
(0.0155044 -0.00264861 0)
(0.0161602 -0.000941594 0)
(0.0166781 0.000919087 0)
(0.0169994 0.00294064 0)
(0.0170641 0.00509879 0)
(0.0168242 0.00734592 0)
(0.016248 0.00962018 0)
(0.0153211 0.0118527 0)
(0.0140457 0.0139728 0)
(0.0124394 0.0159126 0)
(0.0105337 0.0176108 0)
(0.00837134 0.0190153 0)
(0.00600427 0.0200858 0)
(0.00349003 0.0207954 0)
(0.000889139 0.02113 0)
(-4.76797e-06 4.9525e-05 0)
(-2.5368e-05 -5.05296e-05 0)
(-5.80268e-05 -0.000178154 0)
(-0.000100667 -0.000307092 0)
(-0.000151693 -0.000431829 0)
(-0.000209814 -0.000553673 0)
(-0.000273111 -0.000680843 0)
(-0.000338743 -0.000825352 0)
(-0.000402977 -0.00099934 0)
(-0.00046137 -0.00121285 0)
(-0.000508972 -0.00147307 0)
(-0.000540507 -0.00178438 0)
(-0.000550506 -0.00214879 0)
(-0.000533391 -0.0025663 0)
(-0.000483528 -0.00303535 0)
(-0.000395234 -0.003553 0)
(-0.000262749 -0.0041152 0)
(-8.01844e-05 -0.00471682 0)
(0.000158594 -0.00535172 0)
(0.000460086 -0.00601257 0)
(0.000831299 -0.00669072 0)
(0.00127987 -0.00737586 0)
(0.0018141 -0.00805556 0)
(0.00244292 -0.00871463 0)
(0.00317565 -0.00933406 0)
(0.00402132 -0.009889 0)
(0.0049862 -0.0103452 0)
(0.00606449 -0.0106527 0)
(0.00724329 -0.0107851 0)
(0.00852494 -0.0106881 0)
(0.0098958 -0.0102198 0)
(0.0112048 -0.00927141 0)
(0.012366 -0.00807501 0)
(0.0134724 -0.0067134 0)
(0.0145002 -0.00511466 0)
(0.0154251 -0.00343292 0)
(0.0162911 -0.00162286 0)
(0.017048 0.000398499 0)
(0.0176017 0.00265385 0)
(0.0178657 0.0051095 0)
(0.017777 0.00769982 0)
(0.0172964 0.0103433 0)
(0.0164067 0.0129519 0)
(0.0151107 0.0154375 0)
(0.0134296 0.0177162 0)
(0.0114008 0.0197129 0)
(0.00907513 0.0213647 0)
(0.00651356 0.0226236 0)
(0.0037834 0.0234579 0)
(0.0009548 0.0238523 0)
(-5.55248e-06 6.5498e-05 0)
(-3.26919e-05 -1.84552e-05 0)
(-7.79737e-05 -0.000133096 0)
(-0.000138388 -0.000250649 0)
(-0.000211689 -0.000365494 0)
(-0.000296116 -0.000479284 0)
(-0.000389385 -0.00060099 0)
(-0.000488355 -0.000743499 0)
(-0.000589059 -0.000919715 0)
(-0.000686878 -0.00114025 0)
(-0.000776735 -0.00141267 0)
(-0.000853259 -0.0017416 0)
(-0.000910904 -0.00212917 0)
(-0.000944021 -0.00257549 0)
(-0.000946891 -0.00307903 0)
(-0.000913718 -0.00363696 0)
(-0.000838589 -0.00424539 0)
(-0.000715381 -0.00489945 0)
(-0.000537608 -0.00559339 0)
(-0.000298215 -0.00632045 0)
(1.06585e-05 -0.00707273 0)
(0.000397891 -0.00784076 0)
(0.000873563 -0.00861302 0)
(0.00144915 -0.00937521 0)
(0.00213771 -0.0101089 0)
(0.00295364 -0.0107882 0)
(0.00390993 -0.0113736 0)
(0.00500282 -0.0117949 0)
(0.00620958 -0.0120265 0)
(0.00753232 -0.0120473 0)
(0.00899604 -0.0116379 0)
(0.0103663 -0.0105269 0)
(0.0115338 -0.00924431 0)
(0.0127532 -0.00789308 0)
(0.0139669 -0.00614265 0)
(0.0151065 -0.00441771 0)
(0.0162689 -0.00256736 0)
(0.0173556 -0.000395767 0)
(0.0182132 0.00212118 0)
(0.0187276 0.00492291 0)
(0.0188248 0.00791537 0)
(0.0184614 0.0109912 0)
(0.0176192 0.0140395 0)
(0.0163029 0.0169512 0)
(0.0145385 0.019624 0)
(0.0123706 0.0219668 0)
(0.00985973 0.0239041 0)
(0.00707776 0.0253792 0)
(0.00410351 0.0263556 0)
(0.00101831 0.0268173 0)
(-6.38275e-06 8.53275e-05 0)
(-4.04721e-05 2.37979e-05 0)
(-9.91717e-05 -7.22584e-05 0)
(-0.000178469 -0.00017348 0)
(-0.000275424 -0.000274019 0)
(-0.00038779 -0.000375775 0)
(-0.000512924 -0.000488375 0)
(-0.000647408 -0.000625491 0)
(-0.000787077 -0.000800717 0)
(-0.000927181 -0.00102518 0)
(-0.00106257 -0.00130678 0)
(-0.00118781 -0.00165036 0)
(-0.00129735 -0.00205818 0)
(-0.0013855 -0.00253043 0)
(-0.0014465 -0.00306568 0)
(-0.00147448 -0.00366123 0)
(-0.00146343 -0.0043134 0)
(-0.00140705 -0.00501765 0)
(-0.00129861 -0.00576876 0)
(-0.00113066 -0.00656076 0)
(-0.000894739 -0.00738674 0)
(-0.000581046 -0.00823859 0)
(-0.000177989 -0.00910645 0)
(0.000328294 -0.00997802 0)
(0.00095482 -0.0108371 0)
(0.00172313 -0.0116594 0)
(0.00265846 -0.0124014 0)
(0.00376885 -0.0129628 0)
(0.00501531 -0.0132791 0)
(0.00634997 -0.0134102 0)
(0.00787483 -0.0131652 0)
(0.00923262 -0.0117537 0)
(0.0102759 -0.0104299 0)
(0.0115711 -0.00930664 0)
(0.0130217 -0.00734016 0)
(0.0145033 -0.00571685 0)
(0.0161339 -0.00390292 0)
(0.0176707 -0.00155733 0)
(0.0188995 0.00128022 0)
(0.0197034 0.00449821 0)
(0.0200108 0.00796693 0)
(0.0197784 0.0115503 0)
(0.0189883 0.015112 0)
(0.0176473 0.0185198 0)
(0.0157864 0.0216501 0)
(0.0134588 0.0243934 0)
(0.010736 0.0266595 0)
(0.00770288 0.028382 0)
(0.00445167 0.0295195 0)
(0.00107649 0.0300556 0)
(-7.23586e-06 0.00010921 0)
(-4.85825e-05 7.6808e-05 0)
(-0.000121298 5.2204e-06 0)
(-0.000220299 -7.44869e-05 0)
(-0.000341921 -0.000156093 0)
(-0.000483431 -0.000241609 0)
(-0.000641842 -0.000341204 0)
(-0.000813496 -0.000469238 0)
(-0.000994078 -0.000639916 0)
(-0.00117876 -0.000864815 0)
(-0.00136235 -0.00115214 0)
(-0.00153945 -0.00150693 0)
(-0.00170447 -0.00193157 0)
(-0.00185173 -0.00242636 0)
(-0.0019754 -0.00299 0)
(-0.00206955 -0.00361995 0)
(-0.00212802 -0.00431274 0)
(-0.00214434 -0.00506425 0)
(-0.00211155 -0.00586983 0)
(-0.00202191 -0.00672441 0)
(-0.00186659 -0.00762235 0)
(-0.00163519 -0.00855727 0)
(-0.00131508 -0.0095217 0)
(-0.000890499 -0.0105067 0)
(-0.000340609 -0.0115007 0)
(0.000364187 -0.012486 0)
(0.0012679 -0.0134226 0)
(0.00241285 -0.0141851 0)
(0.00380717 -0.0146008 0)
(0.00521402 -0.014632 0)
(0.00665129 -0.0146627 0)
(0.00777358 -0.0127595 0)
(0.00863326 -0.0116074 0)
(0.00973933 -0.0106771 0)
(0.0113536 -0.00894239 0)
(0.0136662 -0.0077345 0)
(0.0160855 -0.00583399 0)
(0.018146 -0.0031773 0)
(0.0197564 8.79183e-05 0)
(0.0208541 0.00381229 0)
(0.0213765 0.00784148 0)
(0.0212782 0.0120151 0)
(0.0205387 0.0161719 0)
(0.0191644 0.0201543 0)
(0.0171902 0.0238137 0)
(0.0146779 0.0270187 0)
(0.0117121 0.0296619 0)
(0.00839281 0.031666 0)
(0.00482753 0.0329846 0)
(0.00112484 0.0336021 0)
(-8.09773e-06 0.000137284 0)
(-5.68879e-05 0.000140974 0)
(-0.000143971 9.99233e-05 0)
(-0.000263146 4.70579e-05 0)
(-0.000410009 -1.08395e-05 0)
(-0.000581351 -7.57381e-05 0)
(-0.000773879 -0.00015822 0)
(-0.000983744 -0.000273225 0)
(-0.00120654 -0.000435485 0)
(-0.00143741 -0.000656969 0)
(-0.0016712 -0.000946158 0)
(-0.00190252 -0.00130828 0)
(-0.00212583 -0.00174589 0)
(-0.00233537 -0.00225944 0)
(-0.00252524 -0.00284778 0)
(-0.00268927 -0.00350858 0)
(-0.00282102 -0.00423865 0)
(-0.00291368 -0.00503428 0)
(-0.0029599 -0.00589142 0)
(-0.00295161 -0.00680591 0)
(-0.00287964 -0.00777349 0)
(-0.00273322 -0.0087898 0)
(-0.00249904 -0.00985038 0)
(-0.0021597 -0.0109511 0)
(-0.00169073 -0.0120888 0)
(-0.00105513 -0.0132604 0)
(-0.000189084 -0.0144492 0)
(0.00100215 -0.015572 0)
(0.00283765 -0.0164878 0)
(0.00529636 -0.0163674 0)
(0.00734279 -0.0160505 0)
(0.00804167 -0.013135 0)
(0.00792247 -0.0121009 0)
(0.00854599 -0.0119944 0)
(0.0110217 -0.0116442 0)
(0.0141531 -0.010384 0)
(0.0167314 -0.00819668 0)
(0.0189961 -0.00515573 0)
(0.0208665 -0.001408 0)
(0.0222139 0.00288544 0)
(0.0229367 0.00754602 0)
(0.0229694 0.0123894 0)
(0.0222783 0.0172263 0)
(0.0208625 0.0218689 0)
(0.0187573 0.0261375 0)
(0.0160336 0.0298727 0)
(0.012791 0.0329466 0)
(0.0091475 0.0352694 0)
(0.00522829 0.0367904 0)
(0.00115765 0.0374959 0)
(-8.95454e-06 0.000169611 0)
(-6.52331e-05 0.00021648 0)
(-0.000166743 0.000212098 0)
(-0.000306149 0.000191452 0)
(-0.000478311 0.000162106 0)
(-0.000679576 0.000122307 0)
(-0.000906399 6.12026e-05 0)
(-0.0011548 -3.6611e-05 0)
(-0.00142036 -0.000186304 0)
(-0.00169826 -0.000400191 0)
(-0.00198343 -0.000687015 0)
(-0.00227054 -0.00105223 0)
(-0.00255405 -0.00149862 0)
(-0.0028281 -0.00202685 0)
(-0.00308651 -0.00263607 0)
(-0.00332269 -0.00332423 0)
(-0.0035296 -0.00408853 0)
(-0.00369966 -0.00492568 0)
(-0.00382473 -0.00583225 0)
(-0.00389597 -0.00680492 0)
(-0.00390366 -0.00784078 0)
(-0.00383657 -0.00893757 0)
(-0.00368082 -0.0100942 0)
(-0.00341769 -0.0113116 0)
(-0.00301918 -0.0125956 0)