/*--------------------------------*- C++ -*----------------------------------*\
| =========                 |                                                 |
| \\      /  F ield         | OpenFOAM: The Open Source CFD Toolbox           |
|  \\    /   O peration     | Version:  2.4.0                                 |
|   \\  /    A nd           | Web:      www.OpenFOAM.org                      |
|    \\/     M anipulation  |                                                 |
\*---------------------------------------------------------------------------*/
FoamFile
{
    version     2.0;
    format      ascii;
    class       volScalarField;
    location    "0.304";
    object      p_rgh;
}
// * * * * * * * * * * * * * * * * * * * * * * * * * * * * * * * * * * * * * //

dimensions      [1 -1 -2 0 0 0 0];

internalField   nonuniform List<scalar> 
60000
(
128.626
128.581
128.488
128.347
128.158
127.922
127.638
127.307
126.929
126.506
126.036
125.522
124.963
124.361
123.716
123.028
122.3
121.531
120.723
119.877
118.995
118.077
117.125
116.139
115.123
114.077
113.002
111.901
110.775
109.626
108.455
107.265
106.058
104.835
103.599
102.352
101.096
99.835
98.5701
97.3047
96.0418
94.7844
93.536
92.2999
91.0799
89.8797
88.7027
87.5536
86.4364
85.3552
84.3146
83.3152
82.363
81.4605
80.6105
79.8147
79.0746
78.3908
77.7632
77.191
76.6728
76.2063
75.7891
75.4183
75.0906
74.8029
74.552
74.3351
74.1495
73.993
73.8637
73.7603
73.6818
73.6276
73.5976
73.5921
73.6115
73.6565
73.7283
73.828
73.9569
74.1164
74.3081
74.5333
74.7936
75.0906
75.4257
75.8002
76.2154
76.6725
77.1725
77.7165
78.3056
78.9408
79.6232
80.3537
81.1334
81.9629
82.8427
83.7727
128.63
128.586
128.493
128.352
128.164
127.927
127.643
127.312
126.934
126.51
126.041
125.526
124.968
124.365
123.719
123.032
122.303
121.534
120.726
119.88
118.997
118.079
117.127
116.141
115.125
114.078
113.003
111.902
110.776
109.626
108.455
107.265
106.058
104.834
103.598
102.351
101.095
99.8332
98.5679
97.302
96.0385
94.7805
93.5313
92.2945
91.0735
89.8722
88.6948
87.5451
86.4269
85.3444
84.3009
83.3017
82.349
81.446
80.5953
79.7991
79.0587
78.3747
77.747
77.1749
76.6569
76.1908
75.774
75.4037
75.0765
74.7894
74.5391
74.3227
74.1375
73.9814
73.8525
73.7493
73.6709
73.6169
73.587
73.5816
73.601
73.6462
73.7181
73.8178
73.9467
74.1065
74.2984
74.5241
74.785
75.0826
75.4182
75.7933
76.2092
76.6668
77.1674
77.712
78.3016
78.9372
79.6199
80.3508
81.1307
81.9604
82.8406
83.7709
128.646
128.602
128.509
128.368
128.179
127.942
127.658
127.327
126.949
126.525
126.055
125.54
124.981
124.378
123.732
123.044
122.315
121.546
120.737
119.891
119.008
118.089
117.136
116.15
115.133
114.086
113.01
111.908
110.782
109.632
108.46
107.269
106.061
104.837
103.6
102.352
101.095
99.8323
98.5659
97.2989
96.0342
94.7749
93.5243
92.2859
91.0633
89.8604
88.6812
87.5296
86.4095
85.3251
84.2801
83.2789
82.3245
81.42
80.5681
79.771
79.0298
78.3455
77.7178
77.146
76.6285
76.1632
75.7474
75.3781
75.0521
74.7661
74.5169
74.3015
74.1172
73.9618
73.8334
73.7307
73.6526
73.5986
73.5687
73.5631
73.5822
73.627
73.6984
73.7976
73.9259
74.0848
74.2759
74.5009
74.7612
75.0585
75.3939
75.7688
76.1846
76.6423
77.1429
77.6875
78.2771
78.9126
79.595
80.3256
81.1051
81.9343
82.814
83.7437
128.675
128.63
128.537
128.396
128.207
127.97
127.685
127.353
126.975
126.551
126.08
125.565
125.005
124.401
123.755
123.066
122.336
121.566
120.757
119.91
119.026
118.106
117.152
116.166
115.148
114.1
113.023
111.92
110.792
109.641
108.469
107.277
106.067
104.842
103.604
102.354
101.096
99.8316
98.5635
97.2945
96.0277
94.7662
93.5132
92.2722
91.047
89.8413
88.6591
87.5045
86.3814
85.294
84.2462
83.2422
82.2853
81.3786
80.5248
79.7262
78.9841
78.2992
77.6715
77.1002
76.5836
76.1195
75.7052
75.3377
75.0135
74.7293
74.4818
74.268
74.0852
73.931
73.8035
73.7015
73.6238
73.57
73.5401
73.5342
73.553
73.5972
73.6678
73.7662
73.8936
74.0516
74.2417
74.4657
74.725
75.0212
75.3558
75.73
76.1451
76.6022
77.1023
77.6463
78.2352
78.8699
79.5515
80.281
81.0593
81.8873
82.7657
83.6943
128.715
128.67
128.577
128.435
128.246
128.008
127.723
127.391
127.012
126.587
126.116
125.6
125.039
124.435
123.788
123.098
122.367
121.596
120.786
119.937
119.052
118.131
117.176
116.188
115.169
114.12
113.042
111.938
110.808
109.656
108.482
107.288
106.077
104.85
103.61
102.358
101.098
99.8309
98.5603
97.2887
96.0191
94.7544
93.4982
92.2537
91.0248
89.8152
88.629
87.4702
86.3431
85.2516
84.1999
83.192
82.2316
81.3218
80.4654
79.6648
78.9213
78.2357
77.608
77.0373
76.5219
76.0596
75.6475
75.2823
74.9606
74.679
74.434
74.2225
74.0417
73.8892
73.7631
73.6621
73.5851
73.5318
73.502
73.496
73.5144
73.558
73.628
73.7255
73.852
74.009
74.1981
74.421
74.6793
74.9743
75.3078
75.6811
76.0953
76.5515
77.0506
77.5936
78.1812
78.8146
79.4946
80.2223
80.9988
81.8249
82.7016
83.6288
128.768
128.722
128.629
128.487
128.297
128.059
127.773
127.441
127.061
126.635
126.163
125.646
125.084
124.479
123.83
123.139
122.407
121.635
120.823
119.973
119.086
118.164
117.207
116.218
115.197
114.146
113.066
111.96
110.829
109.674
108.498
107.302
106.089
104.86
103.617
102.363
101.1
99.8302
98.5565
97.2815
96.0081
94.7396
93.4791
92.2302
90.9965
89.782
88.5907
87.4268
86.2943
85.1976
84.1409
83.1282
82.1633
81.2495
80.3898
79.5866
78.8413
78.1548
77.5271
76.9572
76.4434
75.9832
75.5738
75.2117
74.8933
74.615
74.3732
74.1646
73.9864
73.8362
73.712
73.6124
73.5365
73.4838
73.4542
73.4482
73.4663
73.5094
73.5787
73.6753
73.8009
73.9568
74.1448
74.3665
74.6235
74.9175
75.2499
75.6221
76.0352
76.4903
76.9882
77.5297
78.1158
78.7473
79.4252
80.1507
80.9247
81.7485
82.623
83.5485
128.832
128.786
128.692
128.55
128.36
128.121
127.835
127.501
127.121
126.694
126.221
125.703
125.14
124.533
123.883
123.191
122.457
121.683
120.869
120.018
119.129
118.205
117.246
116.254
115.231
114.178
113.096
111.988
110.854
109.697
108.519
107.32
106.104
104.872
103.626
102.369
101.103
99.8294
98.5518
97.2726
95.9949
94.7216
93.456
92.2017
90.9624
89.7419
88.5444
87.3741
86.2352
85.1322
84.0693
83.0507
82.0803
81.1617
80.2979
79.4914
78.7439
78.0563
77.4285
76.8596
76.3477
75.8903
75.4842
75.1259
74.8116
74.5373
74.2994
74.0945
73.9196
73.7722
73.6503
73.5525
73.4778
73.4259
73.3968
73.3908
73.4087
73.4513
73.5198
73.6156
73.7401
73.8949
74.0816
74.3021
74.5578
74.8506
75.1818
75.5528
75.9646
76.4184
76.9148
77.4547
78.0388
78.668
79.3433
80.0659
80.837
81.6578
82.5297
83.453
128.908
128.862
128.768
128.625
128.434
128.195
127.908
127.574
127.193
126.764
126.29
125.771
125.206
124.598
123.946
123.252
122.516
121.74
120.925
120.071
119.18
118.253
117.292
116.298
115.272
114.216
113.132
112.021
110.884
109.724
108.543
107.341
106.122
104.887
103.637
102.376
101.106
99.8285
98.5464
97.2624
95.9794
94.7005
93.429
92.1683
90.9223
89.6948
88.49
87.3122
86.1658
85.0552
83.985
82.9593
81.9824
81.058
80.1894
79.379
78.6289
77.9399
77.312
76.7442
76.2347
75.7805
75.3785
75.0248
74.7153
74.4459
74.2127
74.0122
73.8412
73.6971
73.578
73.4823
73.4092
73.3583
73.3298
73.3239
73.3415
73.3836
73.4514
73.5462
73.6696
73.8231
74.0085
74.2276
74.482
74.7733
75.1032
75.4728
75.8833
76.3355
76.8302
77.3681
77.9498
78.5763
79.2485
79.9676
80.7352
81.5525
82.4212
83.3418
128.997
128.95
128.856
128.713
128.521
128.281
127.994
127.658
127.276
126.846
126.371
125.849
125.283
124.673
124.019
123.323
122.585
121.807
120.989
120.132
119.239
118.309
117.346
116.348
115.32
114.261
113.173
112.059
110.919
109.756
108.571
107.366
106.143
104.903
103.65
102.385
101.11
99.8275
98.5402
97.2507
95.9618
94.6765
93.3981
92.1302
90.8764
89.6409
88.4276
87.2412
86.086
84.9667
83.8879
82.8541
81.8696
80.9384
80.064
79.2491
78.4959
77.8052
77.1773
76.6109
76.104
75.6538
75.2565
74.9082
74.6043
74.3407
74.1131
73.9177
73.7513
73.6111
73.4952
73.402
73.3307
73.281
73.2531
73.2474
73.2648
73.3063
73.3733
73.4671
73.5892
73.7414
73.9254
74.1429
74.3958
74.6856
75.014
75.3821
75.791
76.2416
76.7343
77.2699
77.8489
78.4721
79.1406
79.8557
80.619
81.4321
82.297
83.2144
129.097
129.051
128.956
128.812
128.62
128.379
128.091
127.754
127.37
126.939
126.462
125.939
125.371
124.759
124.103
123.404
122.664
121.883
121.062
120.203
119.306
118.374
117.406
116.406
115.374
114.312
113.221
112.102
110.959
109.792
108.603
107.394
106.166
104.923
103.665
102.395
101.115
99.8267
98.5335
97.2377
95.9421
94.6496
93.3635
92.0873
90.8249
89.5801
88.3574
87.1611
85.9959
84.8667
83.7781
82.7349
81.7417
80.8026
79.9215
79.1014
78.3445
77.652
77.0239
76.4591
75.9554
75.5097
75.118
74.7759
74.4787
74.2217
74.0005
73.8111
73.65
73.5143
73.402
73.3116
73.2424
73.1941
73.1668
73.1613
73.1785
73.2194
73.2854
73.3781
73.4989
73.6496
73.832
74.0479
74.2991
74.5873
74.914
75.2805
75.6878
76.1365
76.6271
77.1601
77.7359
78.3554
79.0196
79.73
80.4883
81.2965
82.1568
83.0704
129.21
129.163
129.068
128.924
128.731
128.489
128.199
127.862
127.476
127.044
126.565
126.04
125.47
124.855
124.196
123.495
122.752
121.968
121.144
120.281
119.382
118.446
117.475
116.471
115.435
114.368
113.273
112.151
111.003
109.832
108.639
107.425
106.193
104.944
103.681
102.406
101.12
99.826
98.5263
97.2236
95.9205
94.62
93.3253
92.04
90.7678
89.5127
88.2793
87.072
85.8956
84.755
83.6553
82.6015
81.5983
80.6503
79.7616
78.9354
78.1743
77.4796
76.8514
76.2885
75.7885
75.348
74.9627
74.6278
74.3382
74.0889
73.8751
73.6924
73.5373
73.4067
73.2985
73.2113
73.1444
73.0975
73.071
73.0656
73.0825
73.1227
73.1878
73.2792
73.3986
73.5477
73.7283
73.9424
74.1918
74.4782
74.8032
75.168
75.5734
76.0201
76.5084
77.0386
77.611
78.2263
78.8856
79.5905
80.343
81.1454
82.0004
82.9096
129.335
129.288
129.193
129.048
128.854
128.611
128.32
127.981
127.594
127.16
126.679
126.152
125.579
124.962
124.3
123.596
122.85
122.062
121.235
120.369
119.465
118.525
117.551
116.542
115.502
114.432
113.332
112.205
111.053
109.877
108.678
107.459
106.222
104.968
103.7
102.418
101.126
99.8255
98.5188
97.2084
95.8971
94.5878
93.2837
91.9882
90.7052
89.4388
88.1935
86.9739
85.7849
84.6318
83.5196
82.4538
81.4393
80.4812
79.5837
78.7507
77.9848
77.2876
76.6592
76.0985
75.6027
75.1682
74.7902
74.4636
74.1827
73.9422
73.7367
73.5617
73.4134
73.2885
73.1849
73.1012
73.0367
72.9913
72.9656
72.9604
72.9768
73.0163
73.0802
73.1703
73.288
73.4354
73.6142
73.8263
74.0737
74.3581
74.6812
75.0442
75.4478
75.8924
76.3783
76.9054
77.474
78.0846
78.7384
79.437
80.1829
80.9787
81.8275
82.7314
129.473
129.425
129.329
129.184
128.989
128.745
128.453
128.112
127.723
127.287
126.804
126.274
125.699
125.079
124.415
123.707
122.957
122.166
121.335
120.465
119.557
118.613
117.634
116.621
115.576
114.501
113.396
112.265
111.107
109.926
108.722
107.497
106.255
104.995
103.72
102.432
101.133
99.8254
98.511
97.1924
95.8722
94.5533
93.2388
91.9323
90.6375
89.3586
88.1001
86.8669
85.6641
84.4969
83.3709
82.2916
81.2645
80.2949
79.3876
78.5467
77.7754
77.0753
76.4468
75.8885
75.3976
74.9699
74.6004
74.2831
74.0122
73.7815
73.5855
73.4192
73.2784
73.1599
73.0613
72.9814
72.9195
72.8757
72.8507
72.8456
72.8615
72.9
72.9627
73.0512
73.1672
73.3126
73.4892
73.6992
73.9444
74.2268
74.5479
74.909
75.3107
75.7533
76.2367
76.7606
77.3251
77.9305
78.578
79.2696
80.0079
80.796
81.6377
82.5354
129.622
129.574
129.478
129.332
129.136
128.891
128.598
128.255
127.864
127.426
126.94
126.408
125.83
125.207
124.539
123.828
123.075
122.28
121.444
120.57
119.658
118.709
117.725
116.707
115.657
114.576
113.467
112.329
111.166
109.979
108.769
107.539
106.29
105.024
103.742
102.447
101.141
99.8258
98.5031
97.1756
95.8458
94.5166
93.1909
91.8724
90.5647
89.2722
87.9994
86.7512
85.5331
84.3504
83.209
82.1148
81.0735
80.091
79.1726
78.3229
77.5454
76.8421
76.2134
75.6579
75.1725
74.7526
74.3926
74.0861
73.8264
73.6069
73.4215
73.2649
73.1325
73.021
72.9279
72.8521
72.7929
72.7508
72.7265
72.7212
72.7364
72.7738
72.835
72.9218
73.0358
73.179
73.3534
73.561
73.8038
74.084
74.403
74.7622
75.162
75.6026
76.0835
76.6041
77.1641
77.7639
78.4046
79.0882
79.8178
80.5971
81.4305
82.3212
129.785
129.736
129.64
129.493
129.296
129.05
128.754
128.41
128.017
127.577
127.088
126.553
125.972
125.346
124.674
123.96
123.202
122.403
121.563
120.684
119.766
118.812
117.823
116.8
115.744
114.658
113.542
112.399
111.23
110.037
108.821
107.584
106.328
105.055
103.767
102.465
101.151
99.8268
98.4953
97.1583
95.8183
94.4779
93.1402
91.8087
90.4871
89.1798
87.8914
86.6269
85.392
84.1923
83.0339
81.9231
80.8661
79.8692
78.9383
78.0786
77.294
76.5871
75.9582
75.4059
74.9268
74.5158
74.1667
73.8722
73.6252
73.4183
73.2448
73.0989
72.9759
72.872
72.785
72.7135
72.6572
72.6166
72.5928
72.5872
72.6015
72.6376
72.6971
72.7819
72.8937
73.0346
73.2064
73.4113
73.6516
73.9293
74.2461
74.6034
75.0015
75.4401
75.9186
76.4359
76.9913
77.585
78.218
78.8926
79.6125
80.3818
81.2056
82.0881
129.959
129.911
129.813
129.666
129.468
129.22
128.923
128.577
128.182
127.739
127.248
126.71
126.125
125.495
124.82
124.101
123.339
122.535
121.69
120.806
119.883
118.924
117.929
116.9
115.839
114.746
113.624
112.474
111.299
110.099
108.876
107.632
106.37
105.089
103.793
102.483
101.161
99.8286
98.4878
97.1407
95.7897
94.4375
93.087
91.7416
90.405
89.0817
87.7764
86.4942
85.241
84.0227
82.8456
81.7164
80.6419
79.6289
78.684
77.813
77.0205
76.3094
75.6803
75.1317
74.6597
74.2588
73.9219
73.6412
73.4084
73.2156
73.0555
72.9216
72.8088
72.7134
72.6328
72.5658
72.5124
72.4733
72.4498
72.4437
72.4568
72.4912
72.5488
72.6313
72.7407
72.8789
73.0479
73.2499
73.4873
73.7623
74.0769
74.4324
74.8288
75.2658
75.742
76.256
76.8067
77.3938
78.0184
78.6831
79.3918
80.1496
80.9625
81.8355
130.147
130.098
130
129.851
129.652
129.403
129.104
128.756
128.359
127.913
127.419
126.878
126.289
125.655
124.976
124.253
123.486
122.677
121.827
120.937
120.009
119.044
118.043
117.007
115.939
114.84
113.712
112.555
111.372
110.165
108.935
107.684
106.414
105.126
103.822
102.504
101.173
99.8313
98.4806
97.1229
95.7604
94.3957
93.0315
91.6712
90.3187
88.9782
87.6545
86.3532
85.0801
83.8414
82.6439
81.4945
80.4006
79.3697
78.409
77.5253
76.7238
76.008
75.3787
74.8342
74.3704
73.9809
73.6579
73.3926
73.1758
72.9989
72.8536
72.733
72.6316
72.5453
72.4716
72.4094
72.3588
72.321
72.2976
72.2905
72.3022
72.3346
72.3898
72.4699
72.5765
72.7117
72.8775
73.0763
73.3105
73.5827
73.8949
74.2486
74.6437
75.0793
75.5536
76.0646
76.6104
77.1905
77.806
78.4594
79.1556
79.9003
80.7006
81.5627
130.347
130.297
130.199
130.049
129.849
129.598
129.297
128.947
128.547
128.098
127.601
127.057
126.465
125.826
125.143
124.414
123.643
122.828
121.973
121.077
120.143
119.171
118.164
117.122
116.047
114.941
113.805
112.641
111.451
110.236
108.999
107.74
106.462
105.166
103.853
102.526
101.186
99.835
98.4741
97.1052
95.7307
94.3527
92.9741
91.5981
90.2284
88.8695
87.5262
86.2042
84.9096
83.6488
82.4289
81.2573
80.1419
79.091
78.1126
77.2146
76.4029
75.6817
75.0521
74.5124
74.0578
73.6812
73.3739
73.126
72.9273
72.7681
72.6394
72.5336
72.4446
72.3681
72.3017
72.2444
72.1967
72.1599
72.1362
72.1278
72.1375
72.1675
72.2201
72.2973
72.4008
72.5327
72.695
72.8901
73.1207
73.3898
73.6996
74.0515
74.4457
74.8804
75.3534
75.8616
76.4026
76.9754
77.5808
78.2218
78.9038
79.6336
80.4195
81.2689
130.559
130.51
130.41
130.26
130.058
129.806
129.503
129.15
128.748
128.296
127.796
127.247
126.651
126.008
125.32
124.587
123.809
122.989
122.128
121.226
120.285
119.307
118.292
117.243
116.161
115.047
113.904
112.732
111.534
110.312
109.066
107.799
106.513
105.208
103.887
102.551
101.201
99.84
98.4683
97.0879
95.7007
94.3089
92.9151
91.5224
90.1346
88.756
87.3917
86.0475
84.7296
83.4448
82.2005
81.0045
79.8654
78.7922
77.794
76.8797
76.0565
75.3292
74.6993
74.1649
73.7208
73.3589
73.0693
72.841
72.6627
72.5233
72.413
72.3235
72.2481
72.1824
72.1237
72.0715
72.0263
71.9902
71.9657
71.9556
71.9627
71.9899
72.0394
72.1133
72.2134
72.3415
72.4998
72.6907
72.9174
73.1829
73.4901
73.8407
74.2343
74.6689
75.1412
75.6472
76.1836
76.7487
77.3433
77.9705
78.6364
79.3491
80.1184
80.9533
130.785
130.735
130.635
130.483
130.28
130.026
129.721
129.366
128.96
128.505
128.001
127.449
126.849
126.201
125.508
124.769
123.986
123.16
122.292
121.383
120.436
119.45
118.429
117.372
116.282
115.161
114.009
112.829
111.623
110.392
109.137
107.862
106.566
105.253
103.923
102.577
101.218
99.8463
98.4636
97.0712
95.6709
94.2647
92.855
91.4447
90.0376
88.6381
87.2514
85.8833
84.5403
83.2296
81.9587
80.7361
79.5708
78.4727
77.4523
76.5197
75.6833
74.949
74.3186
73.7903
73.3581
73.0129
72.7434
72.5372
72.3816
72.2644
72.1747
72.1032
72.0428
71.9886
71.9381
71.8908
71.8481
71.8122
71.7863
71.7737
71.7778
71.8015
71.8473
71.9175
72.0138
72.1378
72.2915
72.4778
72.6997
72.9613
73.2658
73.6152
74.0089
74.4444
74.9169
75.4215
75.9536
76.5109
77.0937
77.7055
78.3533
79.0466
79.7968
80.615
131.024
130.973
130.872
130.719
130.515
130.259
129.951
129.593
129.185
128.727
128.219
127.662
127.058
126.405
125.706
124.962
124.173
123.34
122.466
121.55
120.595
119.602
118.573
117.508
116.41
115.28
114.12
112.931
111.716
110.476
109.213
107.928
106.623
105.301
103.961
102.606
101.237
99.8542
98.4601
97.0554
95.6416
94.2205
92.7941
91.3654
89.9379
88.5163
87.1056
85.7119
84.3421
83.0033
81.7037
80.4519
79.2577
78.132
77.0865
76.1331
75.2818
74.5393
73.9084
73.387
72.9684
72.642
72.3952
72.2139
72.0839
71.9916
71.9247
71.8732
71.8291
71.7874
71.7454
71.7031
71.6623
71.626
71.598
71.5822
71.5824
71.602
71.6437
71.7097
71.8016
71.9209
72.0696
72.2504
72.467
72.724
73.0256
73.3741
73.7689
74.2064
74.6805
75.1847
75.7131
76.2624
76.8325
77.4274
78.0547
78.7257
79.454
80.2529
131.275
131.224
131.123
130.969
130.762
130.504
130.194
129.834
129.422
128.96
128.449
127.888
127.278
126.62
125.916
125.165
124.37
123.53
122.648
121.726
120.763
119.762
118.724
117.651
116.544
115.406
114.236
113.039
111.814
110.565
109.292
107.998
106.684
105.351
104.002
102.637
101.257
99.8639
98.4581
97.0409
95.6132
94.1766
92.7329
91.2849
89.8361
88.3909
86.9548
85.5339
84.1352
82.7663
81.4355
80.1519
78.9258
77.7692
76.6956
75.7186
74.8501
74.0983
73.4667
72.9531
72.5499
72.2449
72.0237
71.8706
71.7694
71.7049
71.6635
71.634
71.6078
71.5794
71.5462
71.5087
71.4694
71.432
71.401
71.3811
71.3766
71.3913
71.4281
71.4893
71.5764
71.6905
71.8334
72.0079
72.2182
72.4699
72.7682
73.1162
73.5132
73.9543
74.4319
74.9371
75.4625
76.0038
76.5604
77.1364
77.7406
78.3862
79.0893
79.866
131.54
131.488
131.386
131.231
131.023
130.762
130.45
130.086
129.671
129.206
128.69
128.124
127.51
126.847
126.136
125.379
124.577
123.73
122.841
121.91
120.939
119.93
118.884
117.802
116.686
115.538
114.359
113.151
111.917
110.658
109.375
108.071
106.747
105.405
104.045
102.67
101.28
99.8753
98.4578
97.0278
95.586
94.1336
92.672
91.2039
89.7326
88.2627
86.7995
85.3496
83.9201
82.5189
81.1544
79.8361
78.5749
77.3839
76.2785
75.2746
74.3862
73.6236
72.991
72.4865
72.1009
71.8202
71.628
71.5066
71.4378
71.4044
71.3913
71.3862
71.3797
71.3656
71.3415
71.3085
71.27
71.2305
71.1954
71.1703
71.1601
71.1689
71.2001
71.2559
71.3375
71.4458
71.5821
71.7492
71.9519
72.1971
72.4918
72.8399
73.2406
73.6875
74.1707
74.6788
75.2025
75.736
76.2781
76.8332
77.4111
78.0276
78.7018
79.453
131.818
131.765
131.663
131.506
131.296
131.033
130.718
130.352
129.933
129.464
128.943
128.373
127.753
127.084
126.367
125.603
124.794
123.94
123.042
122.104
121.124
120.106
119.051
117.96
116.834
115.676
114.487
113.269
112.025
110.755
109.462
108.148
106.813
105.461
104.091
102.705
101.304
99.8889
98.4595
97.0166
95.5606
94.0919
92.612
91.123
89.6282
88.1321
86.6403
85.1596
83.6972
82.2613
80.8605
79.5046
78.2047
76.9753
75.834
74.7993
73.8881
73.1127
72.4789
71.9846
71.6191
71.3661
71.2067
71.1212
71.0889
71.0904
71.1089
71.1308
71.1458
71.147
71.1322
71.1033
71.0646
71.0218
70.9815
70.9499
70.9327
70.9346
70.9593
71.0089
71.0844
71.1862
71.315
71.4732
71.6667
71.9039
72.1942
72.543
72.9493
73.405
73.8967
74.4102
74.9337
75.4598
75.9866
76.5184
77.0667
77.6499
78.2906
79.0125
132.109
132.056
131.952
131.794
131.582
131.317
131
130.629
130.207
129.734
129.209
128.633
128.008
127.333
126.609
125.838
125.021
124.159
123.254
122.306
121.318
120.291
119.226
118.125
116.989
115.821
114.621
113.393
112.137
110.857
109.553
108.228
106.883
105.52
104.139
102.743
101.331
99.9046
98.4634
97.0077
95.5373
94.0523
92.5535
91.0428
89.5234
87.9998
86.4778
84.9643
83.4671
81.9941
80.5543
79.1575
77.8151
76.5428
75.3609
74.2909
73.3531
72.5626
71.927
71.4446
71.1024
70.8808
70.7585
70.7135
70.7223
70.763
70.8167
70.8686
70.9071
70.9248
70.9194
70.8938
70.8539
70.8066
70.7594
70.7198
70.6943
70.6882
70.7053
70.748
70.8169
70.9115
71.0316
71.1794
71.3614
71.5887
71.8734
72.2236
72.6381
73.1061
73.6102
74.1321
74.6573
75.1768
75.6874
76.1934
76.7078
77.2526
77.855
78.5433
132.414
132.36
132.256
132.096
131.882
131.614
131.294
130.92
130.494
130.016
129.486
128.906
128.274
127.593
126.862
126.084
125.259
124.388
123.474
122.518
121.52
120.483
119.408
118.297
117.151
115.972
114.761
113.522
112.255
110.963
109.648
108.311
106.955
105.581
104.19
102.783
101.36
99.9226
98.4697
97.0013
95.5167
94.0152
92.4972
90.9641
89.4191
87.8666
86.3127
84.7646
83.2302
81.7178
80.2363
78.7953
77.4061
76.0859
74.8578
73.7473
72.7785
71.9698
71.3319
70.8634
70.5481
70.3621
70.2818
70.2826
70.3379
70.4225
70.5154
70.6005
70.6652
70.7005
70.7042
70.6811
70.6387
70.5851
70.5293
70.4801
70.4446
70.429
70.4374
70.4724
70.5343
70.6214
70.7321
70.8678
71.0359
71.2505
71.5284
71.8807
72.3064
72.7913
73.3123
73.8463
74.3757
74.8894
75.383
75.8601
76.3355
76.836
77.3941
78.0439
132.733
132.678
132.573
132.411
132.195
131.925
131.601
131.223
130.793
130.311
129.776
129.19
128.552
127.864
127.127
126.34
125.507
124.628
123.704
122.738
121.731
120.684
119.599
118.477
117.32
116.129
114.907
113.656
112.377
111.073
109.746
108.398
107.03
105.645
104.243
102.825
101.392
99.943
98.4787
96.998
95.4994
93.9815
92.444
90.8879
89.3161
87.7333
86.1458
84.561
82.9873
81.4331
79.907
78.4185
76.9778
75.604
74.3237
73.1662
72.1609
71.3303
70.6889
70.2367
69.9529
69.8075
69.7745
69.8274
69.9352
70.0691
70.2057
70.3277
70.4211
70.4753
70.4879
70.466
70.4193
70.3574
70.2911
70.2302
70.1829
70.156
70.1544
70.1808
70.2351
70.3144
70.4152
70.5373
70.6889
70.888
71.1576
71.5133
71.9544
72.4619
73.0055
73.5558
74.0919
74.601
75.0766
75.5211
75.9514
76.4002
76.9069
77.5127
133.065
133.01
132.903
132.74
132.521
132.248
131.92
131.539
131.105
130.618
130.078
129.486
128.842
128.147
127.402
126.607
125.765
124.877
123.944
122.968
121.951
120.894
119.798
118.664
117.496
116.293
115.059
113.795
112.504
111.187
109.848
108.488
107.108
105.712
104.299
102.87
101.425
99.9659
98.4906
96.9981
95.4859
93.9519
92.3947
90.8149
89.2153
87.6007
85.9778
84.3542
82.7391
81.1405
79.5671
78.0277
76.5308
75.0969
73.7571
72.5451
71.4967
70.639
69.9926
69.5604
69.3138
69.2144
69.2346
69.3465
69.514
69.7032
69.8884
70.0514
70.1771
70.2518
70.2726
70.2503
70.1974
70.1251
70.0458
69.971
69.9098
69.8697
69.8563
69.8727
69.9186
69.9894
70.0787
70.1842
70.3153
70.4952
70.7549
71.1165
71.5794
72.118
72.6916
73.2634
73.8095
74.3159
74.7729
75.1803
75.5578
75.9458
76.3925
76.948
133.411
133.356
133.247
133.082
132.861
132.584
132.253
131.868
131.43
130.938
130.393
129.795
129.144
128.442
127.689
126.885
126.034
125.136
124.193
123.207
122.18
121.111
120.004
118.859
117.679
116.464
115.217
113.94
112.635
111.306
109.953
108.58
107.189
105.78
104.356
102.916
101.461
99.9912
98.5056
97.002
95.477
93.9272
92.3503
90.7463
89.1179
87.4699
85.8096
84.1451
82.4863
80.841
79.2177
77.624
76.0655
74.5642
73.157
71.8815
70.7821
69.8911
69.2375
68.8306
68.6287
68.5806
68.6599
68.8391
69.0745
69.3261
69.5657
69.7746
69.9375
70.0352
70.0635
70.039
69.9781
69.8928
69.7977
69.7064
69.6289
69.5733
69.5464
69.5523
69.5898
69.6517
69.727
69.8098
69.911
70.0621
70.3067
70.6761
71.1706
71.753
72.3669
72.9661
73.5262
74.0333
74.4725
74.8382
75.1542
75.4709
75.8479
76.3466
133.771
133.715
133.605
133.438
133.214
132.934
132.6
132.21
131.767
131.27
130.719
130.115
129.458
128.748
127.987
127.174
126.313
125.405
124.452
123.456
122.417
121.337
120.218
119.062
117.869
116.641
115.381
114.09
112.772
111.428
110.062
108.676
107.272
105.851
104.415
102.964
101.499
100.019
98.5237
97.0102
95.4734
93.9085
92.312
90.6833
89.0248
87.3417
85.6421
83.9344
82.2298
80.5354
78.8596
77.2087
75.5832
74.006
72.5234
71.1736
70.0146
69.0805
68.4148
68.0402
67.8918
67.8999
68.0447
68.3016
68.6156
68.939
69.2403
69.5018
69.7091
69.8337
69.8678
69.8382
69.7664
69.6642
69.5492
69.4376
69.3401
69.2661
69.2243
69.2202
69.2523
69.3095
69.3725
69.4274
69.4853
69.5895
69.8048
70.1764
70.7087
71.3531
72.0245
72.6615
73.2421
73.756
74.1792
74.4975
74.7415
74.9743
75.2697
75.7048
134.145
134.089
133.977
133.807
133.581
133.297
132.959
132.565
132.117
131.615
131.059
130.448
129.784
129.066
128.296
127.474
126.603
125.685
124.721
123.713
122.663
121.572
120.441
119.272
118.066
116.824
115.55
114.245
112.912
111.554
110.174
108.774
107.356
105.923
104.476
103.014
101.538
100.049
98.5451
97.023
95.4759
93.8968
92.281
90.6271
88.9374
87.2175
85.4762
83.723
81.9702
80.2246
78.4939
76.7835
75.0853
73.4226
71.8564
70.4178
69.188
68.1946
67.5073
67.1771
67.0958
67.1658
67.3839
67.7333
68.1405
68.5473
68.9188
69.2397
69.5
69.6553
69.6897
69.6491
69.562
69.4372
69.2967
69.1598
69.0381
68.942
68.8832
68.8702
68.901
68.9606
69.0193
69.0493
69.0563
69.0936
69.2595
69.6282
70.1935
70.9004
71.6376
72.3194
72.93
73.4645
73.8798
74.1469
74.3096
74.4467
74.6492
75.017
134.534
134.477
134.363
134.191
133.961
133.674
133.331
132.933
132.48
131.972
131.41
130.793
130.122
129.396
128.617
127.785
126.903
125.974
124.999
123.98
122.918
121.815
120.672
119.489
118.27
117.015
115.726
114.406
113.058
111.684
110.289
108.874
107.443
105.997
104.537
103.064
101.579
100.081
98.5698
97.041
95.4853
93.8934
92.2589
90.5793
88.8571
87.0983
85.313
83.5116
81.7084
79.9091
78.1212
76.35
74.5731
72.8122
71.1546
69.6058
68.2946
67.2218
66.5041
66.2467
66.2548
66.3924
66.6904
67.1488
67.6643
68.1649
68.6121
68.9937
69.3144
69.5033
69.5283
69.4692
69.3642
69.213
69.044
68.8803
68.732
68.6101
68.5299
68.5048
68.5328
68.5952
68.6523
68.6608
68.6189
68.5787
68.6693
69.0239
69.7179
70.4884
71.2927
72.0018
72.6347
73.1962
73.6035
73.8037
73.8678
73.8902
73.9823
74.2817
134.937
134.879
134.764
134.589
134.355
134.064
133.717
133.313
132.855
132.342
131.774
131.151
130.472
129.738
128.949
128.107
127.214
126.273
125.287
124.256
123.182
122.067
120.911
119.715
118.481
117.211
115.907
114.572
113.208
111.818
110.407
108.977
107.531
106.072
104.6
103.116
101.62
100.114
98.5976
97.0645
95.5027
93.8998
92.2473
90.5417
88.7855
86.9856
85.1535
83.3009
81.4447
79.5887
77.7413
75.9092
74.0475
72.1738
70.4241
68.7342
67.3404
66.1493
65.3778
65.2301
65.3397
65.5348
65.9161
66.508
67.1518
67.7575
68.2827
68.7193
69.1068
69.3327
69.3338
69.2507
69.1306
68.9532
68.7594
68.5742
68.4004
68.2451
68.1273
68.0705
68.0754
68.1209
68.1547
68.1206
68.0322
67.9488
67.9863
68.2392
68.9292
69.9128
70.8586
71.6049
72.2809
72.9119
73.3315
73.4537
73.4082
73.2995
73.2618
73.5027
135.355
135.296
135.178
135
134.763
134.468
134.115
133.707
133.243
132.724
132.15
131.521
130.835
130.092
129.293
128.44
127.536
126.583
125.584
124.541
123.455
122.327
121.158
119.948
118.7
117.415
116.095
114.743
113.362
111.955
110.527
109.081
107.62
106.147
104.662
103.167
101.661
100.148
98.6282
97.0941
95.5293
93.9176
92.2481
90.5161
88.7244
86.8808
84.9987
83.0916
81.1795
79.2626
77.3546
75.4647
73.5169
71.5149
69.688
67.797
66.3174
64.8726
63.9502
63.9766
63.8971
63.4365
63.294
63.8529
64.7491
65.7602
66.697
67.4553
68.1466
68.5375
68.5138
68.3773
68.1697
67.8257
67.4156
66.9662
66.4704
65.9333
65.3998
64.9573
64.6706
64.5596
64.5703
64.6096
64.7881
65.2487
66.191
67.4069
68.3269
69.501
70.6263
71.3386
72.0088
72.7173
73.1252
73.117
72.9404
72.6687
72.4561
72.6627
135.788
135.728
135.608
135.426
135.185
134.884
134.527
134.113
133.644
133.119
132.539
131.903
131.209
130.458
129.649
128.784
127.867
126.902
125.891
124.836
123.737
122.596
121.413
120.19
118.926
117.626
116.289
114.92
113.521
112.096
110.65
109.186
107.709
106.222
104.724
103.217
101.7
100.181
98.6611
97.1301
95.5663
93.9488
92.2636
90.5049
88.6759
86.7856
84.8497
82.8841
80.9128
78.9325
76.9666
75.0312
72.9958
70.8354
68.9431
66.6959
65.0278
58.1866
47.7638
38.7333
30.8926
26.1069
23.431
22.9424
23.615
25.1589
27.0795
29.0094
30.9125
32.1968
32.3974
32.1041
31.2707
29.9878
28.4885
26.9076
25.3266
23.8204
22.492
21.4647
20.8181
20.5599
20.715
21.2357
22.4032
24.589
28.5547
35.4204
45.2915
55.7458
65.0416
70.5075
71.4058
72.4816
72.9496
72.7475
72.4478
72.008
71.5668
71.8364
136.236
136.175
136.052
135.867
135.62
135.315
134.951
134.531
134.056
133.526
132.94
132.297
131.596
130.836
130.017
129.139
128.21
127.232
126.208
125.14
124.029
122.874
121.677
120.439
119.16
117.843
116.49
115.102
113.684
112.24
110.775
109.293
107.799
106.296
104.785
103.265
101.737
100.212
98.6955
97.1731
95.6155
93.9957
92.2965
90.5108
88.6423
86.7019
84.7076
82.6791
80.6453
78.6046
76.5961
74.6345
72.4599
70.0911
68.1225
54.5954
32.7386
14.0258
4.85529
0.51893
0.343108
0.330437
0.323936
0.322075
0.320673
0.318735
0.316603
0.314081
0.309843
0.305911
0.302854
0.300049
0.296791
0.294761
0.293306
0.291633
0.289485
0.28671
0.282882
0.277573
0.270269
0.260437
0.247981
0.232645
0.21469
0.194467
0.172293
0.295312
1.43586
4.84323
11.0342
20.5949
34.4509
47.9698
57.396
63.0809
66.8948
69.9085
70.2688
70.7801
136.699
136.636
136.511
136.321
136.07
135.758
135.388
134.962
134.481
133.945
133.353
132.703
131.995
131.226
130.396
129.506
128.562
127.571
126.534
125.454
124.329
123.161
121.95
120.697
119.402
118.068
116.696
115.29
113.852
112.388
110.902
109.4
107.887
106.368
104.842
103.309
101.768
100.238
98.7301
97.2235
95.6787
94.0611
92.3501
90.5371
88.6265
86.6316
84.5727
82.4748
80.3776
78.2873
76.269
74.3208
71.8354
62.7713
35.9419
8.32176
0.337265
0.321514
0.318693
0.334986
0.335823
0.32971
0.325753
0.324235
0.323033
0.321645
0.320321
0.318417
0.315012
0.31146
0.308187
0.305235
0.301539
0.298819
0.296497
0.293948
0.290999
0.287431
0.282749
0.276564
0.26845
0.257851
0.24452
0.227912
0.208446
0.186726
0.164456