/*--------------------------------*- C++ -*----------------------------------*\
| =========                 |                                                 |
| \\      /  F ield         | OpenFOAM: The Open Source CFD Toolbox           |
|  \\    /   O peration     | Version:  2.4.0                                 |
|   \\  /    A nd           | Web:      www.OpenFOAM.org                      |
|    \\/     M anipulation  |                                                 |
\*---------------------------------------------------------------------------*/
FoamFile
{
    version     2.0;
    format      ascii;
    class       volScalarField;
    location    "0.111";
    object      p_rgh;
}
// * * * * * * * * * * * * * * * * * * * * * * * * * * * * * * * * * * * * * //

dimensions      [1 -1 -2 0 0 0 0];

internalField   nonuniform List<scalar> 
57600
(
107.283
108.107
108.752
107.357
103.569
98.4887
93.0477
87.4025
81.8007
76.8439
73.0547
70.6505
69.8233
70.6327
72.685
75.3122
77.9805
80.4132
82.5084
84.2547
85.6779
86.8157
87.7071
88.3902
88.8997
89.2671
89.5194
89.68
89.7684
89.8014
107.279
108.363
108.653
106.635
102.4
97.1797
91.6863
86.0111
80.4969
75.7834
72.3088
70.2534
69.8178
70.9898
73.2686
75.9698
78.6145
80.979
82.9923
84.6579
86.0073
87.0801
87.9158
88.5518
89.0225
89.3582
89.5854
89.7262
89.7996
89.8214
107.266
108.37
108.677
106.66
102.408
97.1776
91.6862
86.0069
80.4749
75.7412
72.2445
70.1466
69.6651
70.8376
73.1672
75.93
78.6237
81.0216
83.0558
84.7333
86.0886
87.1633
87.9987
88.6334
89.1026
89.4369
89.6632
89.8035
89.8769
89.8988
107.242
108.379
108.717
106.703
102.424
97.1774
91.6889
86.0026
80.4419
75.6755
72.1445
69.9799
69.4234
70.5926
72.9994
75.8572
78.627
81.0782
83.1475
84.8466
86.2144
87.2959
88.1343
88.7699
89.2388
89.5725
89.7983
89.9385
90.0121
90.0344
107.208
108.391
108.773
106.765
102.449
97.1792
91.6942
85.998
80.3974
75.586
72.01
69.7541
69.0895
70.2503
72.7639
75.7523
78.6241
81.1458
83.2615
84.9902
86.3767
87.4701
88.3159
88.9559
89.4273
89.7622
89.9886
90.1293
90.2033
90.2261
107.162
108.406
108.844
106.845
102.481
97.1825
91.7025
85.9935
80.3409
75.4725
71.8426
69.4705
68.6578
69.801
72.4565
75.6154
78.6163
81.2259
83.3986
85.1641
86.5753
87.6853
88.5431
89.1915
89.6687
90.0074
90.2361
90.3784
90.4534
90.4771
107.105
108.423
108.932
106.945
102.522
97.1869
91.7137
85.9896
80.2723
75.3346
71.6448
69.1309
68.1207
69.2314
72.0712
75.4474
78.606
81.3207
83.5609
85.3701
86.8111
87.943
88.8171
89.4777
89.9639
90.309
90.5422
90.6873
90.7643
90.7893
107.037
108.443
109.037
107.064
102.571
97.192
91.7281
85.9868
80.191
75.1719
71.4196
68.7392
67.4685
68.5231
71.601
75.2499
78.5965
81.4335
83.7507
85.6097
87.0859
88.2444
89.1392
89.8159
90.3142
90.6683
90.9078
91.0572
91.1371
91.164
106.955
108.466
109.158
107.204
102.626
97.197
91.746
85.986
80.0965
74.9833
71.1712
68.3013
66.6895
67.6505
71.0372
75.0262
78.5919
81.5679
83.9705
85.8845
87.4006
88.5908
89.511
90.2076
90.7212
91.0866
91.3342
91.4893
91.573
91.6022
106.859
108.49
109.297
107.365
102.688
97.2014
91.7675
85.9882
79.9876
74.7674
70.9042
67.8273
65.7694
66.5775
70.3676
74.7814
78.5982
81.7289
84.2231
86.1958
87.7563
88.9833
89.9338
90.6546
91.1866
91.5656
91.8231
91.9851
92.0733
92.1054
106.749
108.517
109.453
107.547
102.757
97.2041
91.793
85.9944
79.8631
74.522
70.6238
67.3322
64.6915
65.2523
69.5774
74.5231
78.6229
81.9222
84.5111
86.5443
88.1534
89.423
90.4095
91.1588
91.7125
92.1075
92.3764
92.5463
92.6397
92.6751
106.623
108.546
109.628
107.751
102.831
97.2044
91.8227
86.0063
79.721
74.2441
70.3343
66.8396
63.4376
63.5972
68.6472
74.2615
78.6768
82.1548
84.8365
86.9294
88.5916
89.9109
90.9398
91.7227
92.3015
92.7146
92.9963
93.175
93.2743
93.3133
106.48
108.577
109.822
107.978
102.909
97.2012
91.857
86.0259
79.5591
73.9304
70.0374
66.3843
61.9926
61.4891
67.5515
74.0064
78.7745
82.4348
85.2
87.3486
89.0693
90.4475
91.5271
92.3491
92.9565
93.3899
93.6855
93.8736
93.9789
94.0215
106.319
108.61
110.036
108.229
102.991
97.1934
91.8963
86.0564
79.374
73.5777
69.7293
66.0089
60.3309
58.7218
66.2572
73.754
78.9371
82.7706
85.5994
87.7956
89.5832
91.0338
92.1744
93.0417
93.681
94.1365
94.4471
94.6449
94.7558
94.8003
106.136
108.645
110.27
108.505
103.076
97.18
91.9412
86.102
79.1599
73.1843
69.3927
65.7625
58.3108
54.9295
64.7289
73.4367
79.1944
83.1692
86.0265
88.2573
90.1275
91.6711
92.8859
93.8052
94.4796
94.9584
95.2845
95.4923
95.6088
95.6528
105.931
108.682
110.526
108.807
103.162
97.1602
91.9923
86.1686
78.902
72.7496
68.9606
65.6246
56.0103
49.6486
62.9664
72.7274
79.5741
83.6309
86.4622
88.7067
90.6926
92.3627
93.6682
94.6459
95.3574
95.86
96.2015
96.4198
96.5451
96.5995
105.699
108.721
110.805
109.136
103.247
97.134
92.0504
86.2643
78.5591
72.2813
68.2705
65.8275
53.937
43.3379
61.2289
72.4653
80.0411
84.1468
86.8723
89.0863
91.2647
93.1159
94.531
95.5716
96.3203
96.8457
97.2014
97.4284
97.5596
97.6248
105.437
108.763
111.107
109.493
103.329
97.1025
92.1168
86.3988
78.0423
71.8095
67.4983
66.4082
52.1183
39.6375
60.6807
74.0732
80.4155
84.713
87.1744
89.2643
91.8271
93.9471
95.4887
96.5918
97.3748
97.9204
98.2879
98.5203
98.6486
98.718
105.139
108.807
111.435
109.879
103.406
97.069
92.193
86.583
77.3792
71.3713
66.7458
67.7018
-0.671692
0.775895
60.1701
76.303
80.6177
85.3567
87.2209
88.9685
92.3754
94.8893
96.5606
97.7167
98.5269
99.0883
99.4651
99.7012
99.8268
99.8615
104.799
108.855
111.79
110.295
103.476
97.0404
92.2804
86.8297
76.8281
71.0896
65.0291
63.1053
0.245087
0.54064
71.5171
77.6207
80.924
86.1307
86.9332
87.9478
92.9875
95.9962
97.7688
98.956
99.7816
100.353
100.736
100.975
101.1
101.132
104.407
108.906
112.173
110.741
103.535
97.028
92.3812
87.1553
76.1535
71.1396
63.4253
-0.232032
0.193662
0.231208
2.37759
80.4769
81.4139
87.2761
86.575
86.8906
93.9354
97.3388
99.131
100.315
101.141
101.714
102.101
102.344
102.475
102.517
103.953
108.961
112.586
111.219
103.583
97.0454
92.4956
87.5796
75.46
71.816
-0.283431
-0.0928383
0.0234981
0.050493
-0.0869966
75.5547
81.244
89.0891
86.4193
86.6514
95.4074
98.9239
100.642
101.791
102.603
103.171
103.556
103.8
103.935
103.984
103.424
109.023
113.032
111.727
103.617
97.1066
92.6184
88.1309
75.5105
69.6089
-0.00817986
-0.041605
0.065413
0.167421
0.536025
69.3493
79.006
91.9153
85.1239
88.5338
97.2632
100.667
102.271
103.37
104.16
104.717
105.097
105.337
105.47
105.519
102.805
109.092
113.513
112.265
103.633
97.2471
92.7343
88.8351
75.9199
-0.14838
-0.0315768
-0.0181454
0.0961806
0.249129
0.492482
1.22452
78.733
93.8274
81.2187
91.8894
99.1925
102.436
103.967
105.027
105.798
106.343
106.714
106.947
107.074
107.116
102.076
109.172
114.031
112.832
103.627
97.5028
92.8452
89.7157
73.7368
-0.0236662
-0.0414986
-0.00537968
0.106495
0.241025
0.333502
-0.368382
80.0447
87.814
80.2171
94.0524
100.777
104.137
105.684
106.741
107.503
108.038
108.397
108.621
108.738
108.772
101.213
109.27
114.59
113.426
103.592
97.9051
93.0133
90.8247
-2.8224
-0.0141079
-0.0428975
0.00280604
0.106235
0.211234
0.1715
-0.173519
2.20329
86.5899
80.8958
94.4195
102.322
105.775
107.404
108.493
109.259
109.787
110.137
110.351
110.46
110.493
100.188
109.392
115.192
114.045
103.527
98.5087
93.2576
92.3815
0.0975458
-0.0146002
-0.039498
0.00876346
0.108197
0.168333
0.0448857
-0.25626
-1.64094
89.2068
86.8692
96.3538
104.042
107.408
109.133
110.271
111.052
111.579
111.921
112.127
112.229
112.252
98.9619
109.546
115.841
114.69
103.393
99.3997
93.6729
4.62563
0.0659131
0.0112474
-0.0332085
0.0135453
0.0862582
0.129326
-0.037221
-0.220588
-0.286964
79.4857
91.2363
99.8116
105.787
109.085
110.883
112.062
112.864
113.395
113.734
113.935
114.03
114.046
97.4842
109.737
116.54
115.369
103.525
100.767
94.0377
-0.129773
0.0504825
-0.00571342
-0.026268
0.00451361
0.0725071
0.07688
-0.0709749
-0.158159
-0.238521
-2.84783
97.9867
102.749
107.48
110.852
112.685
113.857
114.672
115.22
115.568
115.77
115.867
115.892
95.6905
109.954
117.29
116.101
103.746
102.889
-0.0764031
-0.0780784
0.0309592
-0.00747124
-0.0201268
0.00559292
0.0555028
0.0443772
-0.053229
-0.0642253
-0.137546
0.723489
99.8188
105.644
109.19
112.777
114.606
115.672
116.467
117.046
117.42
117.637
117.747
117.793
89.7926
89.7457
89.6494
89.4886
89.2452
88.8969
88.4177
87.7773
86.9408
85.8709
84.5283
82.8753
80.8822
78.5417
75.907
73.1579
70.6948
69.1589
69.1724
70.9552
74.3406
79.0506
84.6566
90.5884
96.3793
101.638
105.849
108.117
107.967
106.476
89.8034
89.7455
89.6347
89.4552
89.188
88.81
88.2939
87.6081
86.7169
85.5818
84.1633
82.4238
80.336
77.9015
75.1958
72.4458
70.1281
68.9339
69.4156
71.6526
75.4182
80.4166
86.1636
92.1008
97.792
102.851
106.659
108.307
107.654
106.117
89.8811
89.8235
89.7132
89.5345
89.2684
88.8919
88.3774
87.693
86.8021
85.6653
84.2408
82.4888
80.379
77.9094
75.1523
72.3377
69.9653
68.7656
69.2928
71.58
75.3773
80.4003
86.1618
92.1036
97.7983
102.864
106.682
108.331
107.661
106.107
90.017
89.9598
89.8499
89.6718
89.4066
89.0312
88.5175
87.8329
86.9395
85.796
84.3585
82.5837
80.437
77.9112
75.0737
72.1589
69.7032
68.4989
69.1006
71.4671
75.3138
80.3759
86.1609
92.1102
97.8111
102.888
106.723
108.37
107.671
106.088
90.2094
90.1527
90.0434
89.8659
89.6011
89.2255
88.7104
88.0222
87.1218
85.9663
84.509
82.7025
80.5063
77.9057
74.9602
71.9083
69.3372
68.1304
68.8396
71.3152
75.2277
80.3436
86.1606
92.1205
97.8303
102.924
106.781
108.427
107.685
106.061
90.461
90.4051
90.2963
90.1189
89.8534
89.4756
88.9563
88.261
87.3493
86.1764
84.6926
82.8459
80.5882
77.8942
74.8121
71.5815
68.8575
67.6532
68.5101
71.1259
75.119
80.3034
86.1611
92.1342
97.8559
102.97
106.857
108.499
107.701
106.024
90.7742
90.7189
90.6103
90.4322
90.1646
89.7828
89.2567
88.5509
87.6238
86.4282
84.9117
83.0164
80.6854
77.8794
74.6301
71.1731
68.2505
67.0584
68.1131
70.902
74.9881
80.2558
86.1627
92.1512
97.8877
103.027
106.951
108.589
107.721
105.979
91.15
91.0953
90.9864
90.8069
90.5361
90.1485
89.6133
88.8939
87.9471
86.7239
85.1683
83.2168
80.8009
77.8644
74.4159
70.6762
67.4976
66.3349
67.6506
70.6466
74.835
80.2014
86.1659
92.1712
97.9256
103.095
107.062
108.697
107.743
105.923
91.5896
91.5354
91.4261
91.2445
90.9694
90.5746
90.0281
89.292
88.3215
87.0655
85.4649
83.4498
80.9387
77.8535
74.1725
70.0829
66.5731
65.468
67.1265
70.3637
74.6596
80.1409
86.1712
92.1938
97.9695
103.173
107.192
108.822
107.767
105.858
92.0944
92.0408
91.9308
91.7467
91.4666
91.0633
90.5033
89.7474
88.7491
87.455
85.8037
83.7187
81.1032
77.8522
73.9043
69.3838
65.4408
64.4403
66.5467
70.0579
74.4614
80.0751
86.1791
92.2184
98.0191
103.26
107.34
108.966
107.793
105.783
92.6661
92.6132
92.5026
92.3159
92.03
91.6168
91.0415
90.2628
89.2322
87.8946
86.1866
84.0266
81.2998
77.867
73.6184
68.5685
64.0491
63.2306
65.9218
69.7353
74.2392
80.0049
86.1907
92.2445
98.0744
103.358
107.507
109.13
107.821
105.698
93.3064
93.2547
93.1437
92.9542
92.6621
92.238
91.6454
90.8409
89.7734
88.3861
86.6151
84.3761
81.5346
77.9063
73.3249
67.6257
62.3223
61.8144
65.2684
69.4026
73.9913
79.9307
86.2072
92.2708
98.1352
103.465
107.692
109.314
107.848
105.602
94.0168
93.9668
93.8565
93.6645
93.3658
92.9298
92.3182
91.4848
90.3755
88.9312
87.0895
84.7686
81.8152
77.981
73.037
66.5427
60.1473
60.165
64.612
69.0683
73.7153
79.8523
86.2306
92.2962
98.2016
103.58
107.896
109.519
107.876
105.495
94.7958
94.7492
94.6433
94.4497
94.1439
93.6953
93.0634
92.1987
91.042
89.5312
87.6076
85.2023
82.1504
78.1069
72.7651
65.3028
57.3471
58.2561
63.9894
68.7428
73.4079
79.7665
86.264
92.3184
98.2735
103.703
108.119
109.747
107.901
105.378
95.6385
95.5953
95.5087
95.3125
94.9988
94.5378
93.8854
92.9873
91.7777
90.188
88.1636
85.6681
82.5494
78.3095
72.4927
63.884
53.596
56.1046
63.4661
68.4338
73.0639
79.6646
86.3119
92.335
98.3512
103.833
108.361
109.999
107.923
105.25
96.7509
96.664
96.4628
96.253
95.9328
95.461
94.7891
93.8571
92.5899
90.9048
88.7447
86.1402
83.0162
78.6336
72.1256
62.2576
48.1419
53.7668
63.1056
68.1195
72.6732
79.5245
86.3808
92.3416
98.4352
103.969
108.621
110.278
107.94
105.112
97.6647
97.7321
97.4606
97.269
96.9491
96.4692
95.7801
94.8163
93.4891
91.689
89.3254
86.542
83.5324
79.1384
71.5489
60.453
40.1722
51.4442
62.9361
67.7126
72.2175
79.2942
86.48
92.3325
98.5262
104.111
108.899
110.584
107.949
104.966
98.6927
98.6531
98.5648
98.3753
98.053
97.5665
96.8644
95.8744
94.4913
92.5582
89.8539
86.6243
84.0115
79.7339
71.9554
59.053
30.4772
49.3435
63.0063
67.0372
71.7517
78.8536
86.6217
92.2986
98.6259
104.258
109.194
110.922
107.948
104.813
99.8686
99.832
99.7584
99.5701
99.2457
98.7553
98.0465
97.0412
95.6165
93.549
90.2402
85.6381
84.2424
79.8159
73.988
59.3468
-2.40563
1.06926
63.7436
66.4174
71.33
78.089
86.8212
92.2248
98.7365
104.408
109.505
111.294
107.933
104.656
101.12
101.095
101.031
100.849
100.525
100.035
99.3285
98.3235
96.8856
94.7137
90.5195
83.0607
84.066
79.1714
76.3404
61.7786
-0.198608
0.86637
6.64428
66.0336
70.9096
77.2773
87.0997
92.0863
98.8621
104.564
109.829
111.704
107.901
104.501
102.503
102.463
102.39
102.208
101.886
101.403
100.708
99.7215
98.3035
96.0935
91.086
80.6172
84.084
78.7736
79.9845
-26.8612
0.0215342
0.615909
0.354241
62.9156
70.4364
76.4929
87.4927
91.8404
99.0071
104.725
110.163
112.156
107.848
104.353
103.973
103.92
103.829
103.642
103.325
102.854
102.18
101.226
99.8568
97.657
92.3524
80.9163
85.2554
79.4601
78.6794
1.17507
0.107841
0.439575
0.210246
0.200959
70.3729
75.743
88.0438
91.419
99.1782
104.895
110.503
112.655
107.766
104.222
105.505
105.442
105.333
105.143
104.836
104.383
103.733
102.819
101.511
99.3637
94.6809
84.8375
86.6745
80.3404
76.2946
0.383266
0.220019
0.328982
0.161373
0.136024
23.4183
74.6043
88.8227
90.8003
99.4036
105.075
110.843
113.207
107.649
104.12
107.087
107.01
106.892
106.708
106.42
105.986
105.361
104.481
103.231
101.169
97.3323
90.1778
84.0075
84.095
-15.9273
0.364879
0.284636
0.275781
0.145942
0.0998873
0.107543
72.7364
89.9279
90.2218
99.6905
105.257
111.173
113.818
107.486
104.06
108.72
108.584
108.382
108.35
108.081
107.663
107.055
106.199
104.984
103.005
99.2983
95.1143
74.5199
84.6032
-0.0411573
0.365219
0.272588
0.243888
0.13826
0.0825547
0.126377
56.1612
91.483
89.4364
100.059
105.442
111.485
114.492
107.265
104.064
110.478
112.51
110.706
110.088
109.823
109.411
108.81
107.961
106.756
104.838
101.064
96.8605
80.2278
85.4286
0.2384
0.29626
0.235865
0.219788
0.137671
0.0773853
0.11396
-0.0938055
93.6492
88.2999
100.551
105.633
111.767
115.231
106.97
104.16
112.223
112.163
112.05
111.904
111.637
111.221
110.619
109.768
108.558
106.676
103.019
97.6586
88.9886
3.57189
0.0298907
0.199463
0.196767
0.197401
0.138928
0.0791315
0.104026
0.0506038
89.8581
86.912
101.25
105.843
112.003
116.036
106.574
104.386
114.02
113.976
113.905
113.765
113.496
113.074
112.468
111.62
110.411
108.534
105.13
100.479
91.5021
-1.69205
0.0148632
0.119636
0.157733
0.175613
0.141263
0.0813834
0.09535
0.0765592
-0.0215412
84.9244
102.289
106.209
112.176
116.898
106.043
104.792
115.888
115.867
115.807
115.655
115.366
114.927
114.329
113.526
112.355
110.433
107.177
102.292
89.3646
-0.175437
0.0127905
0.0772198
0.126979
0.153883
0.122644
0.0771725
0.101934
0.076804
0.0137039
8.58115
103.755
106.718
112.261
117.803
105.335
105.428
117.808
117.795
117.725
117.547
117.215
116.75
116.194
115.518
114.44
112.447
109.307
102.428
68.4514
-0.114386
0.00942406
0.0670838
0.121161
0.130591
0.109436
0.10909
0.0766268
0.0777412
0.0144204
-0.0721673
105.41
108.071
112.223
118.719
104.39
106.35
94.338
110.121
117.938
116.767
103.773
104.958
0.0596925
-0.0492524
0.0210921
-0.00836353
-0.0116404
0.00859407
0.0455607
0.0140468
-0.0235643
-0.0125453
-0.0637064
0.428661
98.7868
107.232
111.165
114.549
116.318
117.219
117.939
118.54
118.949
119.188
119.315
119.374
94.1379
110.207
118.368
117.239
103.905
93.7781
0.077973
-0.0346035
0.0132965
-0.00882367
-0.0141006
0.00993487
0.0374048
0.0941432
-0.00235218
0.0038457
-0.0114478
0.362661
101.591
107.873
112.586
115.794
117.492
118.274
118.906
119.504
119.941
120.198
120.334
120.398
98.2331
110.327
118.844
117.815
104.102
-0.366638
0.0837393
-0.0251018
0.00708002
-0.00930317
-0.0132282
0.0112714
0.02734
0.0184475
0.00991753
0.0235129
0.0297778
0.40447
35.9287
108.338
114.432
117.38
118.841
119.502
120.002
120.566
121.033
121.312
121.456
121.521
17.7724
110.729
119.368
118.539
104.034
0.230073
0.0830101
-0.0126331
0.00595403
-0.00984869
-0.0124149
0.0171562
0.0191773
-0.0036431
0.0475697
0.0329228
0.0675295
0.406883
-1.60683
110.859
116.798
119.083
120.38
120.933
121.274
121.751
122.241
122.545
122.694
122.756
2.15417
111.645
119.94
119.409
99.2588
0.179252
0.0781097
-0.00441483
0.00713066
-0.0105564
-0.00893049
-0.00274558
0.00765436
0.0031429
0.0670138
0.0483835
0.0834085
0.388601
0.938435
114.165
119.544
121.125
122.102
122.566
122.769
123.113
123.597
123.92
124.068
124.122
0.0920138
107.42
120.559
120.489
-0.0160529
0.131202
0.0712087
0.00930576
0.00332542
-0.0114624
-0.0081902
-0.00564359
0.000322969
0.104188
0.0375013
0.0144528
0.0785529
0.379386
0.84148
118.294
122.336
123.359
123.975
124.347
124.493
124.722
125.147
125.465
125.597
125.637
0.0947251
4.88061
121.045
122.125
-0.000507578
0.0962014
0.0638797
0.0170935
0.00417541
-0.0126503
-0.00867259
-0.00918636
-0.00625948
-0.00353391
0.0217419
-0.00176134
0.0528494
0.383692
0.717936
119.877
125.251
125.664
125.987
126.207
126.403
126.625
126.95
127.208
127.3
127.317
0.0376757
-0.0287146
120.079
120.767
-0.0199172
0.0694564
0.056857
0.0237699
-0.00829469
-0.0141511
-0.0148692
-0.0133381
-0.0127303
-0.00550524
-0.000599377
-0.0308233
0.0266743
0.313921
0.488305
97.3935
128.44
127.702
127.955
128.15
128.467
128.807
129.022
129.153
129.181
129.168
0.0162969
-0.0429838
20.8114
3.03919
-0.0269093
0.049555
0.0502741
0.0113127
-0.0133094
-0.0159893
-0.0191412
-0.0140803
-0.0196092
-0.0149686
-0.0200756
-0.0297683
-0.00343937
0.376534
0.658912
15.4094
130.992
129.7
130.013
130.344
130.738
131.168
131.278
131.273
131.234
131.188
0.011039
-0.0330356
0.131358
-0.0376508
-0.0279634
0.0349615
0.0440538
0.0190152
-0.0145081
-0.0181616
-0.0258899
-0.0164663
-0.0271562
-0.0271694
-0.043122
-0.0228378
-0.0599391
0.265983
0.55912
0.604334
128.268
132.248
130.885
132.858
133.212
133.593
133.662
133.566
133.466
133.383
0.00794637
-0.00224101
0.0713498
-0.0267146
-0.028014
0.0242814
0.0380646
0.0223533
-0.00598162
-0.0206735
-0.0355857
-0.0267086
-0.0355067
-0.0399964
-0.0631002
-0.0843304
-0.139412
0.557231
0.120144
1.05621
-1.11652
135.82
130.784
135.188
135.985
136.419
136.282
136.044
135.876
135.762
-0.00268412
-0.0360317
0.0496801
-0.0145659
-0.0256229
0.0165193
0.0324411
0.0323066
-0.00624233
-0.0235189
-0.0406151
-0.0374081
-0.0447815
-0.0524779
-0.0781451
-0.109344
-0.164758
-0.110403
-0.0918629
-0.612701
-0.780312
49.2503
132.908
136.776
139.522
139.603
139.048
138.606
138.389
138.281
-0.00938844
-0.0300862
0.0335137
-0.00449793
-0.0214453
0.0110891
0.0272868
0.0208565
-0.0158847
-0.0249907
-0.0435913
-0.0410444
-0.0551017
-0.0643369
-0.0899302
-0.108845
-0.172606
-0.177957
-0.264139
-0.491534
-0.614561
-0.602434
-0.224563
140.317
145.371
143.575
141.677
140.842
140.765
140.796
-0.0121755
-0.0254356
0.0229942
0.00352678
-0.0165124
0.00760293
0.02271
0.00969056
-0.00685123
-0.0281905
-0.0425174
-0.0436899
-0.067664
-0.0754384
-0.100363
-0.138062
-0.164474
-0.214281
-0.288
-0.400844
-0.496314
-0.444157
-0.351739
-0.294861
-0.343213
3.95045
26.5621
48.8422
60.4395
60.7326
-0.0124157
-0.0279704
0.0153077
0.00904202
-0.0117157
0.00560998
0.0187458
-0.000579102
-0.0100698
-0.0299179
-0.0412338
-0.0440694
-0.0729526
-0.0856938
-0.109375
-0.140742
-0.155332
-0.20308
-0.271304
-0.254887
-0.168321
-0.336861
-0.297283
-0.268577
-0.254652
-0.242614
-0.251028
-0.26381
-0.274033
-0.279963
-0.0118152
-0.0228188
0.0096984
0.0113367
-0.00753489
0.00460926
0.015329
0.00291797
-0.00595719
-0.0303356
-0.0458201
-0.0674923
-0.077291
-0.0953189
-0.117396
-0.143489
-0.175855
-0.219536
-0.267924
-0.282945
-0.0183301
-0.136784
-0.224095
-0.219958
-0.221757
-0.227392
-0.236964
-0.249774
-0.263334
-0.275852
-0.0107382
-0.018398
0.00577538
0.0111664
-0.00414016
0.00416981
0.0124556
0.00496479
-0.00390387
-0.0306139
-0.0438358
-0.0663084
-0.0838205
-0.104799
-0.125106
-0.146272
-0.183228
-0.254576
-0.239251
-0.335424
-0.167046
-0.162031
-0.148097
-0.163993
-0.182621
-0.199089
-0.213794
-0.227472
-0.240723
-0.254068
-0.00940882
-0.0148813
0.00329575
0.00968449
-0.00151425
0.00401467
0.0101189
0.0048794
-0.00430062
-0.0295008
-0.0528715
-0.0677782
-0.0913566
-0.114938
-0.133799
-0.146873
-0.178096
-0.279048
-0.380692
-0.377241
0.0402036
-0.0371329
-0.070801
-0.112932
-0.145598
-0.169685
-0.187899
-0.202874
-0.216039
-0.228402
-0.00798986
-0.0120591
0.00187078
0.00789051
0.000415962
0.00400455
0.00827763
0.00411861
-0.0051456
-0.0235792
-0.0533026
-0.0708517
-0.0920228
-0.127061
-0.146753
-0.146686
-0.139755
-0.216489
-0.344706
-0.155326
0.0626593
0.0260345
-0.0397296
-0.0928709
-0.13033
-0.156333
-0.174854
-0.188653
-0.199671
-0.209232
-0.00659328
-0.00971979
0.00112316
0.00641686
0.00174088
0.00405151
0.00688048
0.00333508
-0.00519298
-0.0214276
-0.0534903
-0.0782014
-0.101074
-0.143215
-0.170668
-0.162693
-0.0848472
-0.0488234
-0.241724
-0.193513
-0.0894569
-0.0768659
-0.106249
-0.138339
-0.1634
-0.181008
-0.192712
-0.200178
-0.204806
-0.207675
-0.0052999
-0.00772725
0.000755138
0.00526309
0.00257809
0.0040897
0.0058752
0.00280459
-0.00520371
-0.0249343
-0.0528548
-0.0824168
-0.0868853
-0.163056
-0.212994
-0.0701728
-0.13772
-0.117375
-0.140121
-0.325106
-0.316025
-0.301163
-0.282674
-0.265722
-0.259437
-0.257706
-0.25536
-0.250723
-0.243822
-0.235011
-0.00414789
-0.00601766
0.000560043
0.00433572
0.00302672
0.00408545
0.00520971
0.00266699
-0.00380894
-0.020996
-0.0519716
-0.0851655
-0.125857
-0.183026
-0.271405
-0.401738
-0.363949
-0.456166
-0.247361
-0.527065
-0.646846
-0.717555
-0.590747
-0.41976
-0.363581
-0.372039
-0.368879
-0.349932
-0.335812
-0.312669
-0.00315062
-0.00456802
0.00043954
0.00355985
0.00317821
0.00402275
0.00482299
0.00301893
-0.00199979
-0.0191289
-0.0500483
-0.0860778
-0.130494
-0.197423
-0.325969
-0.617005
-0.832888
-0.781566
-0.730662
-0.856634
-1.09595
-1.14519
-0.996696
-0.530914
-0.210447
0.418976
-0.469863
-0.0937785
1.30666
-0.281841
-0.00231427
-0.00336996
0.000355793
0.00289999
0.00310831
0.00388835
0.00462188
0.00384927
0.00192453
-0.0129237
-0.0470232
-0.0847436
-0.128896
-0.193876
-0.322091
-0.612654
-0.798681
-0.725396
-0.706166
-0.865269
-1.08461
-1.08265
-0.890803
-0.6056
-0.243571
-0.296634
-0.229852
-0.140123
0.0604719
-0.021908
-0.0016348
-0.00240932
0.000286161
0.00231996
0.00286857
0.00366423
0.00446952
0.00456779
0.00965745
-0.00761455
-0.0437809
-0.0819444
-0.119866
-0.166131
-0.237855
-0.366194
-0.316849
-0.187713
-0.211878
-0.484462
-0.569001
-0.479108
-0.366608
-0.113549
-0.18572
-0.133209
-0.0917019
-0.0535641
-0.0215024
-0.00359125
-0.00110015
-0.00166697
0.000207628
0.00178353
0.00248944
0.00332625
0.00425428
0.00467912
0.0806244
-0.00471943
-0.0433494
-0.0819435
-0.107536
-0.12483
-0.134419
-0.125504
-0.0771405
0.0483205
0.183771
0.127259
0.0479354
-0.0143836
-0.0240151
-0.0313998
-0.0194351
-0.009692
-0.000258125
0.0089433
0.0175451
0.0253508
-0.000693582
-0.00112026
9.706e-05
0.00125575
0.0019839
0.00284443
0.00391249
0.0051559
0.0165333
-0.000818321
-0.0479433
-0.0942899
-0.100887
-0.0868254
-0.0588751
-0.0137767
0.0468459
0.104163
0.128524
0.120316
0.0963084
0.0710443
0.0525466
0.0433642
0.0401021
0.0399678
0.0414687
0.0437969
0.0464892
0.0492787
-0.000396826
-0.000744325
-6.40048e-05
0.000703824
0.0013517
0.00218285
0.00331647
0.00509359
0.00905604
0.0427532
-0.0572428
-0.118827
-0.107731
-0.0624086
-0.0175401
0.0234219
0.0592012
0.0833279
0.0921102
0.0887266
0.0791781
0.0686113
0.0599376
0.0539873
0.050428
0.0486037
0.0479033
0.047855
0.0481229
0.0485037
-0.000191997
-0.000512145
-0.000289009
9.87228e-05
0.000582564
0.00130047
0.00232432
0.00392953
0.00737879
0.0146629
-0.0131965
-0.0982973
-0.105355
-0.0499866
0.000469652
0.0277229
0.0451107
0.0544869
0.0570384
0.0550166
0.0508294
0.0462451
0.0422059
0.0390173
0.0366238
0.0348239
0.0333896
0.0321227
0.0308669
0.0295073
-6.08037e-05
-0.000391745
-0.000585208
-0.000585712
-0.000339259
0.000165538
0.000869679
0.0017674
0.00310854
0.00930798
-0.00291735
-0.0323954
-0.0440851
0.024439
0.00425706
0.0145108
0.0206065
0.0230896
0.023268
0.0221877
0.0206002
0.0189618
0.0174846
0.0162139
0.015103
0.0140668
0.0130171
0.0118859
0.0106314
0.00923767
119.394
119.376
119.287
119.077
118.681
118.225
117.767
117.251
116.274
114.329
111.008
106.038
6.25011
-0.0900677
0.00807535
0.0741729
0.11242
0.179093
0.0904332
0.0844474
0.084702
0.0652735
0.0210269
0.118449
95.67
109.343
112.046
119.434
103.402
107.353
120.416
120.39
120.286
120.051
119.586
119.185
118.84
118.426
117.512
115.706
111.779
105.551
1.26588
-0.083365
0.00806575
0.0840468
0.100111
0.233014
0.0376704
0.0901013
0.083346
0.0615025
0.0235621
0.105888
-0.185835
110.323
111.853
119.868
102.676
108.145
121.535
121.499
121.376
121.121
120.522
120.283
120.086
119.747
118.909
117.341
113.769
105.985
-0.378026
-0.0823729
0.00645108
0.101173
0.0916684
0.103153
0.0459166
0.0815408
0.0841654
0.0598795
0.0266887
0.0910456
-0.0224587
111.278
111.545
120.313
101.843
109.196
122.762
122.715
122.572
122.178
121.816
121.588
121.521
121.21
120.475
119.198
115.985
106.521
-0.21734
-0.092038
0.00274512
0.111559
0.0903679
0.0809246
0.0501552
0.0752901
0.0854953
0.077778
0.0298038
0.0768012
-0.00767006
97.523
111.061
120.749
100.887
110.089
124.119
124.064
123.915
123.599
123.276
123.134
123.106
122.783
122.195
121.196
118.507
111.023
-0.301206
-0.101273
-0.00447054
0.108255
0.102332
0.0763829
0.0525604
0.0739266
0.0762584
0.0707903
0.0325582
0.0655521
0.00428405
0.236335
110.279
121.157
100.395
116.358
125.626
125.568
125.433
125.194
124.975
124.85
124.772
124.473
124.016
123.237
120.603
53.1573
-0.179238
-0.100091
-0.0632817
0.136889
0.0616212
0.0433339
0.0479106
0.0811929
0.0744995
0.0664642
0.0345362
0.0571596
0.0141313
0.369982
108.993
121.567
42.7098
0.700614
127.296
127.241
127.134
126.968
126.842
126.677
126.544
126.337
125.746
125.268
125.057
3.31785
-0.131099
-0.119554
-0.135149
0.14619
0.0443297
0.0384365
0.0459131
0.0561388
0.072648
0.0657065
0.0312658
0.0510716
0.0221227
0.35921
106.973
121.709
1.82976
0.0612753
129.133
129.08
129.004
128.897
128.844
128.683
128.507
128.383
127.331
126.904
127.714
0.47967
-0.0282324
-0.0936207
-0.139527
0.173681
0.0237999
0.0231832
0.0415361
0.0662192
0.0549137
0.0640388
0.0321772
0.0465229
0.0284439
0.314467
99.9402
120.918
-0.0821114
0.0570088
131.134
131.074
131.013
130.924
130.882
130.876
130.777
130.596
129.782
128.006
111.687
0.524726
0.00561696
-0.130955
-0.182169
0.156375
-0.0110387
0.0104881
0.0391534
0.0421409
0.0504487
0.0517792
0.0327449
0.0429587
0.0333043
0.264243
0.012345
123.689
-0.131479
0.0260674
133.305
133.221
133.13
132.99
132.81
136.766
133.236
131.924
132.726
135.901
-0.447399
0.16089
0.032254
-0.130205
-0.256015
6.39207
-0.0664167
-0.00361636
0.0264782
0.0357391
0.0460409
0.0560398
0.0331069
0.0400288
0.0369708
0.218398
0.0462014
8.03374
-0.13849
0.00898879
135.662
135.54
135.356
135.09
134.849
134.757
135.139
133.016
136.138
35.305
-0.940926
-0.220866
-0.098999
-0.129899
-0.300067
6.22704
-0.201995
-0.0170051
0.0190075
0.0269822
0.0416671
0.0434228
0.0331346
0.0376007
0.0396647
0.177862
0.0401631
0.0660083
-0.0785304
0.0505987
138.217
138.093
137.758
137.18
136.721
136.924
136.73
135.833
96.7987
-0.486321
-0.49981
-0.118101
-0.156865
-0.201609
-0.290883
6.58385
-0.241107
-0.0286332
0.0125554
0.0201346
0.0370161
0.0393091
0.0328349
0.0356943
0.0415339
0.143768
0.0375573
0.0520426
0.00304013
0.0139626
141.044
141.154
140.793
139.37
137.749
138.462
130.007
-0.187708
-0.569263
-0.285227
-0.0604626
-0.268328
-0.246931
-0.229143
-0.242268
0.751626
-0.187812
-0.0371588
0.00399782
0.0110676
0.0314236
0.035675
0.0322395
0.0342932
0.0427424
0.116931
0.0372265
0.0390082
-0.0759489
-0.00937922
56.6429
42.8657
21.4401
0.247694
-0.277664
-0.451788
-0.623608
-0.654271
-0.645281
-0.364281
-0.0389814
-0.0311506
-0.318746
-0.283091
-0.25493
-0.292432
-0.199476
-0.0418015
0.00080106
4.9986e-05
0.0246982
0.0323282
0.0313557
0.0333502
0.0434018
0.0955934
0.0379704
0.0250343
-0.062403
0.00829676
-0.310376
-0.335714
-0.401795
-0.482786
-0.498944
-0.539305
-0.68213
-0.870279
-0.959739
-0.697257
-0.33707
-0.177736
-0.436673
-0.400447
-0.258291
-0.371934
-0.164978
-0.0453604
-0.00275198
0.00377541
0.0239575
0.0292792
0.0301905
0.0326333
0.0434708
0.0794924
0.0385803
0.0173939
-0.0484216
0.034699
-0.291786
-0.312945
-0.346357
-0.398876
-0.469575
-0.574729
-0.769019
-1.10263
-1.09
-1.12666
-0.532153
-0.535078
-0.571092
-0.592493
-0.459112
-0.465025
-0.213893
-0.0530771
-0.00315238
-0.000801252
0.029938
0.0264759
0.0287466
0.0318974
0.0428137
0.0673109
0.0383612
0.0131892
-0.035972
0.0249541
-0.268827
-0.287934
-0.315755
-0.357608
-0.421367
-0.523272
-0.701436
-0.943274
-1.10791
-0.933465
-0.704372
-0.653763
-0.719422
-0.707097
-0.708751
-0.52323
-0.250217
-0.067266
-0.00372136
0.00343337
0.021514
0.023541
0.0270223
0.0309665
0.0413949
0.0579113
0.0372049
0.0114919
-0.025653
0.0185092
-0.241541
-0.257499
-0.279105
-0.308913
-0.348995
-0.39537
-0.425687
-0.305113
-0.820455
-0.85504
-0.912432
-0.715218
-0.824689
-0.897975
-0.992335
-0.787048
-0.350216
-0.0821399
0.00974145
0.00174809
0.0167923
0.0202402
0.0250139
0.0297338
0.0393206
0.0504403
0.0352537
0.0112533
-0.0174857
0.0137125
-0.21848
-0.228944
-0.242391
-0.260278
-0.283418
-0.303009
-0.275551
-0.132838
-0.286866
-0.497117
-0.773632
-0.691781
-0.845583
-0.980876
-1.2639
-1.05054
-0.335531
-0.0645862
-0.0235813
-3.26017e-05
0.00295183
0.0166876
0.0227242
0.0281588
0.0367455
0.0442681
0.0327423
0.0115548
-0.0112254
0.0100385
-0.209631
-0.211416
-0.213943
-0.218931
-0.230036
-0.249299
-0.156538
-0.162003
-0.1937
-0.325593
-0.502938
-0.593212
-0.768865
-1.0447
-1.41044
-1.37396
-0.483237
0.0231975
-0.0407403
0.00504705
0.00413589
0.0130762
0.020169
0.0262512
0.0338297
0.0389878
0.0299321
0.0118257
-0.00649981
0.00724406
-0.224378
-0.210982
-0.194272
-0.175684
-0.158615
-0.147983
-0.0810731