/*--------------------------------*- C++ -*----------------------------------*\
| =========                 |                                                 |
| \\      /  F ield         | OpenFOAM: The Open Source CFD Toolbox           |
|  \\    /   O peration     | Version:  2.4.0                                 |
|   \\  /    A nd           | Web:      www.OpenFOAM.org                      |
|    \\/     M anipulation  |                                                 |
\*---------------------------------------------------------------------------*/
FoamFile
{
    version     2.0;
    format      ascii;
    class       volScalarField;
    location    "0.109";
    object      p;
}
// * * * * * * * * * * * * * * * * * * * * * * * * * * * * * * * * * * * * * //

dimensions      [1 -1 -2 0 0 0 0];

internalField   nonuniform List<scalar> 
3600
(
105.794
106.039
104.903
102.576
99.4705
95.8618
91.952
88.2075
84.7705
81.7288
80.0335
78.761
79.7032
80.6833
83.1949
85.9623
88.1167
90.0942
91.9596
93.2645
92.578
91.5904
92.4147
92.8918
93.2569
93.2376
92.9718
93.7143
95.1692
94.7516
102.539
102.785
101.65
99.3206
96.2133
92.6022
88.6876
84.9406
81.4952
78.4415
76.7354
75.4516
76.3676
77.3518
79.8649
82.6715
84.8319
86.8845
88.7502
90.0635
88.8167
87.89
88.2982
88.7618
89.1676
89.2527
89.149
89.9289
91.1322
91.4922
99.282
99.5361
98.404
96.0726
92.9612
89.3463
85.4221
81.6705
78.2068
75.1317
73.3993
72.1004
72.958
73.934
76.4622
79.3304
81.4486
83.5634
85.4747
86.7278
85.3286
83.7843
83.8624
84.5064
85.1544
85.5277
85.8642
87.8546
89.3094
89.6158
96.0244
96.2919
95.1659
92.8324
89.715
86.0946
82.1556
78.3969
74.9051
71.7982
70.0254
68.701
69.5082
70.4607
72.9485
75.9203
77.9696
80.1259
81.9494
83.3104
81.5858
79.4701
78.9639
79.6768
80.8111
81.8705
82.899
84.3156
86.68
86.8728
92.7663
93.0528
91.936
89.6
86.4746
82.8469
78.8881
75.1201
71.5898
68.4408
66.6123
65.248
66.0451
66.9569
69.3848
72.4107
74.4541
76.6718
78.291
79.4985
77.8092
75.2431
73.6855
74.6515
76.4299
78.1602
79.8388
81.2875
82.1556
82.5422
89.5076
89.8188
88.7142
86.3755
83.2401
79.6034
75.6195
71.8404
68.2611
65.0593
63.1589
61.7289
62.5209
63.4307
65.8687
68.8317
70.9667
73.2431
74.6846
75.4276
74.0875
71.4161
69.6628
70.7081
72.7842
74.6219
76.4377
78.0087
78.9634
79.3206
86.2481
86.5899
85.5006
83.1591
80.0178
76.3571
72.3498
68.5586
64.9191
61.654
59.6657
58.1377
58.9135
59.851
62.4453
65.2478
67.5214
69.8663
71.1662
72.0557
70.9826
68.5286
66.9344
67.574
69.576
71.5305
73.1633
74.4463
75.4867
75.9558
82.9877
83.3661
82.2954
79.9506
76.804
73.1121
69.0792
65.2751
61.5639
58.2256
56.1333
54.4916
55.2164
56.1862
59.0109
61.7067
64.0963
66.4986
67.6807
68.7225
68.2885
66.4662
64.6895
65.2917
67.1703
69.1274
70.6452
71.8001
72.7455
73.2007
79.7263
80.1474
79.0984
76.7502
73.5979
69.8695
65.8075
61.991
58.1957
54.7744
52.5619
50.8134
51.4388
52.4331
55.438
58.1407
60.6317
63.1637
64.373
65.5066
65.1855
64.3325
62.989
63.408
65.2734
67.3239
68.8982
69.8769
70.536
70.9511
76.4636
76.9336
75.91
73.5578
70.3996
66.629
62.5349
58.7073
54.8147
51.2998
48.9526
47.0882
47.5746
48.6013
51.7036
54.5965
57.2122
59.9193
61.2581
62.3633
62.5957
62.1583
61.8758
62.3318
63.8793
65.3951
66.681
67.6798
68.1161
68.269
73.1993
73.7249
72.7301
70.3735
67.2092
63.3906
59.2613
55.4254
51.4207
47.802
45.3064
43.2874
43.6077
44.6732
47.8846
51.1654
53.9114
56.7205
58.1653
59.2873
59.9365
60.0109
60.3735
61.047
62.2977
63.4506
64.2196
65.1307
65.6173
65.6937
69.9333
70.521
69.559
67.1972
64.027
60.1539
55.9868
52.147
48.0137
44.2815
41.6238
39.406
39.5468
40.637
43.9884
47.749
50.6772
53.5113
55.1562
56.3359
57.1127
57.7896
58.7234
59.6338
60.2842
60.9423
61.5865
62.4765
63.6375
63.8243
66.6653
67.322
66.3966
64.029
60.8536
56.9184
52.7113
48.8736
44.5933
40.739
37.9049
35.4577
35.3729
36.4789
40.0374
44.2652
47.4765
50.3713
52.2686
53.7634
54.6778
55.5323
56.4518
57.2511
57.6815
58.358
59.7309
60.6036
60.9319
60.8936
63.3948
64.1277
63.2433
60.8688
57.6894
53.6837
49.4351
45.6071
41.1594
37.1743
34.1529
31.4403
31.0839
32.1725
35.9943
40.726
44.2969
47.3491
49.2445
50.7145
51.729
52.8957
54.3828
55.4482
55.1052
54.6331
55.1216
55.957
56.7622
57.6048
60.1215
60.9382
60.0992
57.7167
54.535
50.4491
46.1586
42.3494
37.711
33.5881
30.3732
27.3392
26.5639
27.6868
31.8158
37.2167
41.1668
44.2918
46.7106
48.387
49.3928
50.3322
51.3882
51.7637
51.9326
52.6546
52.6904
52.6546
54.0203
55.6945
56.845
57.7533
56.9644
54.5727
51.3911
47.2139
42.882
39.1028
34.2468
29.9818
26.5767
23.1246
21.9288
22.9566
27.5989
33.7159
38.096
41.2553
43.7461
45.9008
47.0819
47.9973
48.7728
48.6285
48.2828
48.9503
50.1843
51.5326
53.313
54.7039
53.5649
54.5729
53.8393
51.4365
48.2585
43.9773
39.6059
35.8697
30.7646
26.3599
22.7678
18.7975
17.2378
17.9512
23.2789
30.3576
35.1609
38.1911
41.0344
43.2813
44.6458
45.3503
46.2584
45.7686
44.7072
45.2709
47.1949
48.9487
49.9793
50.542
50.2806
51.3968
50.7242
48.3083
45.138
40.7384
36.3307
32.6527
27.2621
22.7258
18.9532
14.4124
12.3166
12.7089
18.8051
27.0015
32.4083
35.0989
38.3548
41.2485
42.3788
42.8642
43.6054
42.6239
42.1767
43.2095
44.5264
45.9054
46.7009
47.114
46.9915
48.2251
47.6191
45.188
42.0308
37.4961
33.0569
29.4549
23.7364
19.0823
15.1513
9.95196
7.05355
6.92776
14.0347
23.6737
29.7733
31.933
35.1527
38.411
39.3766
38.887
39.068
39.3583
40.2456
41.857
42.6161
43.0904
43.6714
44.085
43.6971
45.0574
44.5246
42.0754
38.9379
34.2492
29.7849
26.2796
20.1836
15.4349
11.3866
5.33599
1.36337
0.737746
8.74686
20.4573
27.0074
28.4972
33.6208
37.8248
37.3288
35.0171
35.2693
36.2206
38.0039
40.1955
40.7306
40.3514
40.6134
40.9903
40.3967
41.8936
41.4407
38.9704
35.8608
30.9962
26.5148
23.1305
16.6005
11.7966
7.69131
0.55319
-5.21421
-4.19393
5.86891
17.7963
24.3149
26.1457
29.4208
33.5118
35.0512
31.7183
32.3383
33.1883
35.8691
37.7079
38.0498
37.6447
37.878
38.2947
37.0895
38.7336
38.3678
35.873
32.8011
27.7354
23.2469
20.0112
12.9947
8.1883
4.09176
-1.42228
-3.66352
-4.03765
3.51324
16.6822
22.7837
24.3815
25.7457
33.6046
32.9909
26.8012
29.3672
30.3011
32.9603
34.8721
35.3398
35.5246
35.65
35.9529
33.7746
35.577
35.3063
32.783
29.7604
24.4649
19.9815
16.929
9.38867
4.61641
1.03858
0.315288
-0.707107
-2.02142
1.3009
13.5383
21.2493
19.2586
24.4001
31.886
27.7363
22.6173
25.5012
27.6832
29.8315
31.8357
32.955
33.361
33.3842
33.5747
30.4516
32.424
32.2565
29.7001
26.7409
21.1825
16.7187
13.8917
5.74774
1.20602
-0.213631
-0.277803
-0.454833
0.45296
0.294374
12.1754
16.1814
16.4426
23.6877
29.6697
20.5795
18.2534
20.3922
24.8124
26.9762
28.7948
30.1661
30.8056
31.0004
31.1804
27.1184
29.2717
29.2188
26.6241
23.7449
17.8855
13.4591
10.8467
1.31078
-0.478427
-0.0134051
0.0960169
-0.129908
-0.113188
-2.60957
5.0872
12.8317
15.0878
19.3295
24.0002
15.4074
11.0685
13.5198
21.1352
23.9509
25.7212
27.1392
28.2136
28.7262
28.9823
23.7761
26.1439
26.1934
23.5547
20.7754
14.5709
10.1934
7.79
-2.0218
-0.0890631
-0.0398845
0.0921339
0.0994963
-0.135883
-0.7758
0.0825988
8.67292
12.501
16.6377
20.6098
11.7676
4.41384
4.2124
16.885
20.6204
22.9225
24.6192
25.9433
26.7154
27.0231
20.4216
22.922
23.1818
20.4917
17.835
11.2361
6.80272
2.95613
-1.25171
-0.0228682
-0.0443773
0.0784414
0.0907631
-0.118033
-0.0157523
-2.9234
3.0382
9.74459
13.0507
15.4857
6.72425
-1.00562
-0.349955
14.7532
18.551
21.4657
23.2509
24.4153
25.0287
25.3475
17.0458
19.9392
20.1817
17.4345
14.9263
7.89031
3.07712
-0.91801
-0.176791
-0.0367801
-0.0657505
0.05252
0.0631388
-0.126901
-0.0653402
0.0877549
0.169375
6.29059
8.61859
9.21284
2.69626
-6.54375
-2.27565
14.4901
18.3063
21.2574
22.5841
23.2207
23.6579
23.8684
13.7069
16.602
17.202
14.3825
12.0537
4.49919
-1.03118
-0.44627
-0.142202
-0.0521209
-0.0754806
0.0271242
0.0329954
-0.116129
-0.0388112
0.190866
-1.15029
0.505029
4.21708
3.13997
-0.341561
-8.87523
-1.70096
13.1722
18.8926
21.3824
22.0937
22.1968
22.3726
22.5315
10.2201
13.602
14.2292
11.3292
9.20408
0.858222
-2.62281
-0.179414
-0.126642
-0.0566361
-0.0810678
0.00726674
0.00204195
-0.133412
-0.047419
0.0571051
-0.720864
-1.09875
1.26785
-2.46897
-2.68525
-6.11568
3.16454
13.8787
19.7787
21.0571
21.4133
21.0951
21.1142
21.0968
95.1272
94.3921
93.2184
92.6332
93.0055
93.0425
92.6766
92.2167
91.3742
92.314
92.9926
91.6718
89.7766
87.7461
85.5424
82.7285
80.1775
79.1811
78.1966
79.5222
81.3117
84.4611
87.993
91.8071
95.7704
99.407
102.529
104.863
105.999
105.756
91.5375
90.8269
89.6469
88.9131
89.0539
88.9912
88.5672
88.1
87.69
88.5759
89.7954
88.4644
86.5672
84.4594
82.2501
79.397
76.8457
75.8451
74.8853
76.2236
78.0239
81.1867
84.7266
88.543
92.5111
96.1498
99.2741
101.61
102.746
102.5
89.6276
89.294
87.7162
85.7245
85.3713
84.9994
84.3378
83.6844
83.5886
85.0882
86.4628
85.1846
83.2447
81.0715
78.9052
75.9918
73.4274
72.4366
71.5302
72.8867
74.7128
77.9001
81.4574
85.2782
89.2559
92.8981
96.0262
98.3638
99.4964
99.2435
86.8639
86.6565
84.2511
82.8093
81.7563
80.6799
79.5374
78.8117
79.2694
81.3394
83.0386
81.6621
79.7997
77.5853
75.4885
72.4765
69.9535
68.9871
68.1243
69.5112
71.3775
74.6012
78.1853
82.0128
86.0051
89.6522
92.7862
95.1259
96.2523
95.9859
82.5337
82.1276
81.238
79.7761
78.072
76.3133
74.5296
73.5471
75.0392
77.5704
79.2315
77.9992
76.3358
74.0611
71.9703
68.9108
66.4484
65.5208
64.6627
66.096
68.0174
71.2898
74.9104
78.7467
82.7587
86.4124
89.5542
91.8961
93.0132
92.7278
79.315
78.9422
77.9787
76.4049
74.5479
72.6882
70.606
69.5441
71.2225
73.8698
75.1792
74.3914
72.8967
70.5625
68.3805
65.3937
62.9197
61.9928
61.1332
62.6399
64.6325
67.9662
71.6332
75.4798
79.517
83.1784
86.3302
88.6745
89.7793
89.4691
75.9641
75.4906
74.4535
73.1755
71.5102
69.5182
67.5084
66.8278
68.3703
70.7297
71.8035
70.8727
69.507
67.1029
64.7823
61.9707
59.3374
58.3795
57.5311
59.1434
61.223
64.6306
68.3542
72.2122
76.2726
79.9568
83.1142
85.4612
86.5505
86.2096
73.2096
72.761
71.8246
70.6741
69.14
67.1548
65.2736
64.6217
66.3279
68.1026
68.4778
67.3863
66.1251
63.6599
61.2213
58.5483
55.6707
54.6766
53.8748
55.607
57.7893
61.2835
65.0739
68.9439
73.0296
76.7442
79.9064
82.2562
83.3268
82.9492
70.9654
70.5716
69.9263
68.9493
67.3435
65.2798
63.3844
62.9267
64.2092
65.0125
65.2869
64.0775
62.777
60.1804
57.6293
54.9645
51.9204
50.8923
50.1865
52.0309
54.3315
57.9253
61.7933
65.675
69.789
73.5396
76.7066
79.0597
80.1081
79.6878
68.2744
68.1303
67.7051
66.6881
65.3811
63.8897
62.3533
61.8656
62.0857
62.4391
62.1634
60.9784
59.5241
56.7302
54.0637
51.2166
48.0982
47.0177
46.4506
48.4161
50.8489
54.5564
58.5134
62.4053
66.5509
70.3429
73.5149
75.8716
76.8945
76.4251
65.6587
65.5441
65.0377
64.1826
63.4658
62.2962
61.0542
60.3423
59.9391
59.7991
59.1014
57.9068
56.3173
53.3912
50.5989
47.388
44.1868
43.0332
42.642
44.7633
47.341
51.1774
55.2355
59.135
63.315
67.1544
70.3314
72.6921
73.6858
73.1609
63.8158
63.3518
62.0707
61.3848
60.8909
60.2635
59.6122
58.7244
57.7568
57.0656
56.205
54.9212
53.0985
50.1013
47.1318
43.4781
40.1787
38.9503
38.7585
41.073
43.8078
47.7885
51.961
55.864
60.0811
63.9743
67.156
69.5214
70.4821
69.8949
60.8792
60.9392
60.5495
59.7008
58.455
57.812
57.3736
56.508
55.4991
54.5317
53.6154
52.0375
49.9379
46.8466
43.5523
39.5145
36.0617
34.7467
34.8133
37.3451
40.2492
44.3904
48.6913
52.5924
56.8487
60.8032
63.9887
66.3596
67.2832
66.6269
57.5395
56.6552
55.884
55.1175
54.7113
55.1772
55.5814
54.4564
52.9308
51.7726
50.666
49.104
46.8877
43.5637
39.9334
35.4341
31.8279
30.4726
30.8062
33.5829
36.6643
40.9836
45.428
49.3203
53.6174
57.6413
60.8296
63.2067
64.0891
63.3564
55.6037
53.9367
52.8402
52.9966
52.7753
52.1354
52.1549
51.6133
50.419
49.2997
48.2084
46.5041
43.8124
40.3455
36.3077
31.2338
27.4374
25.8964
26.7267
29.7915
33.0521
37.5686
42.1727
46.0481
50.3864
54.4895
57.6785
60.0632
60.8997
60.0832
54.5865
53.1647
51.464
50.1727
48.912
48.5556
49.3106
49.1686
47.9519
46.9076
45.6612
43.6842
40.7283
37.0963
32.7261
26.9451
22.8593
21.1822
22.5566
25.9804
29.4122
34.1455
38.9271
42.7761
47.1552
51.3483
54.5355
56.929
57.715
56.8067
50.513
49.9104
48.8566
47.033
45.197
44.9604
46.5856
46.9561
45.3683
44.6102
43.2102
40.9748
37.7675
34.0122
29.267
22.5969
18.0872
16.4032
18.301
22.1537
25.7461
30.7142
35.6928
39.5049
43.9228
48.2186
51.4004
53.8045
54.5348
53.5266
47.107
46.6654
45.858
44.3518
43.1278
42.6537
43.8417
44.0585
42.4918
41.8581
40.9215
38.8096
34.7841
30.9377
25.5964
17.9312
13.1813
11.3707
13.9994
18.32
22.0541
27.2748
32.4719
36.2349
40.6884
45.1012
48.2733
50.6899
51.3589
50.2423
44.0931
43.6921
43.1147
42.5879
41.7376
40.2867
40.1595
39.9546
39.1378
40.0749
38.7941
35.5131
31.7161
28.0553
22.0397
13.1397
7.80644
5.98178
9.64452
14.5029
18.3334
23.8274
29.2667
32.9666
37.4508
41.9972
45.154
47.5856
48.1874
46.9533
41.0241
40.7163
40.4855
40.9099
40.2474
38.0737
37.0057
36.8863
35.5733
36.5321
35.7721
32.9832
28.5869
25.1057
18.3665
7.53277
2.23123
0.178117
5.19599
10.7293
14.5818
20.3713
26.0796
29.7003
34.2089
38.9078
42.0425
44.4917
45.0199
43.6589
38.3389
38.0289
37.8578
38.2918
37.9258
36.034
33.7502
33.4343
31.602
35.0121
34.3912
29.5163
25.7506
21.5519
15.4545
2.76018
-3.09769
-6.51456
0.668013
7.02233
10.8071
16.908
22.9137
26.4363
30.9612
35.8343
38.9385
41.4086
41.8564
40.3585
36.0156
35.8081
35.7373
35.6957
35.2276
33.5181
31.1191
31.0412
29.2484
36.593
32.4502
28.26
23.2845
19.3655
12.1265
2.65906
-2.68043
-5.16614
-2.10703
3.43191
7.02807
13.451
19.7723
23.1747
27.706
32.7784
35.842
38.3365
38.6966
37.0513
33.6638
33.5711
33.6647
33.4607
32.5475
30.6454
28.7069
27.1894
30.8417
27.5978
28.2426
24.6561
20.0204
16.36
9.72684
0.911504
-0.858235
-1.24376
-0.908211
0.780784
3.21273
10.0388
16.6613
19.9156
24.4415
29.7417
32.7528
35.2759
35.5403
33.7365
31.2766
31.1811
31.2856
30.9785
29.86
28.1614
26.2189
20.8803
23.8864
23.6668
26.5679
21.2061
16.9593
13.586
5.42611
-1.60975
-0.730557
0.106594
0.0667577
0.0158398
-0.344833
6.65104
13.5833
16.6589
21.1655
26.7265
29.6705
32.227
32.3875
30.4135
29.0653
28.9416
28.8058
28.2012
27.1059
25.3473
22.4733
11.5903
13.3485
20.5961
24.1591
23.1404
14.9956
10.5475
1.45962
-2.72394
-0.351591
0.105384
0.0326685
-0.026177
-0.956616
2.31304
10.4753
13.4051
17.8753
23.7351
26.595
29.1903
29.2356
27.0803
27.115
26.8866
26.4887
25.4695
24.0335
21.7556
17.9594
3.99873
3.87104
19.0992
22.3157
17.7144
12.6937
6.94717
-1.14036
-0.943238
-0.0439358
0.0898198
0.00374032
-0.0435692
-0.101825
-1.51368
7.3511
10.1453
14.568
20.7704
23.5259
26.166
26.1081
23.738
25.4133
25.1052
24.5418
23.465
21.7768
18.9356
14.4243
-0.906464
-3.30743
12.6465
19.0269
15.3873
10.2336
0.347291
-3.58277
-0.196805
-0.075929
0.0556664
-0.0251871
-0.0566651
0.0208265
-1.03369
2.60213
6.76493
11.2413
17.835
20.4628
23.1555
22.8868
20.3836
23.9017
23.5788
23.1629
22.2873
20.8634
18.0377
14.6242
-2.66784
-7.49372
8.11533
14.6178
11.7921
7.26329
-3.45821
-0.194841
-0.228169
-0.110537
0.00844127
-0.050581
-0.0720327
0.00163976
-0.0824258
-0.997812
3.04646
7.90407
14.9316
17.4052
20.1567
19.904
17.0079
22.4983
22.3054
21.9382
21.5029
20.6848
18.8393
13.863
-2.2577
-8.92634
3.37666
9.4754
8.65012
1.55959
-3.93903
0.106471
-0.178617
-0.146312
-0.0330118
-0.0689104
-0.0810153
-0.00521515
-0.0650703
-0.451103
-1.02188
4.52199
12.0646
14.3522
17.1783
16.5672
13.6688
21.0588
20.9158
20.7832
20.7692
20.4704
19.6277
14.8231
2.12844
-8.24343
-0.837827
3.95404
4.45912
-1.71755
-0.55566
-0.00866758
-0.212664
-0.167187
-0.0584585
-0.0790239
-0.0841284
-0.0190314
-0.0711866
-0.183865
-2.56758
0.888428
9.22055
11.2975
14.2071
13.5683
10.1818
7.77175
11.2353
11.9897
9.0085
6.86814
-1.67061
-0.318968
-0.170366
-0.118438
-0.0567795
-0.0875888
-0.00516816
-0.0161839
-0.135335
-0.0618776
0.0801832
-0.424393
-0.199417
-1.5172
-7.21883
-2.73462
-1.59074
8.17447
15.3148
20.1369
20.5497
20.786
20.1892
20.0738
20.0352
6.06182
9.60465
10.4437
7.37183
4.77377
-2.16565
-0.0285496
-0.163806
-0.116368
-0.0578454
-0.0926639
-0.0137229
-0.0267704
-0.133361
-0.0683037
0.0654933
-0.274665
-0.0910479
-1.0593
-6.99057
-3.85198
1.65264
10.8902
15.4374
19.8449
20.2765
19.9015
19.5724
19.3094
19.1476
4.21852
7.81436
8.80952
5.54872
2.39087
-0.580546
-0.0252673
-0.160333
-0.114522
-0.0600529
-0.0991264
-0.0232865
-0.0347204
-0.12927
-0.0728905
-0.00555334
-0.292966
-0.134225
-0.230059
-3.47424
-12.0238
4.94613
12.9687
15.3041
18.8362
19.8919
18.9629
18.7124
18.4692
18.3957
2.47456
5.94607
6.97793
3.65913
-0.346041
-0.0439163
-0.0286775
-0.1564
-0.11371
-0.0634884
-0.107379
-0.0336552
-0.0401031
-0.12337
-0.0756969
-0.0202965
-0.245428
-0.167052
-0.213514
-0.26074
-11.1772
7.77569
13.824
15.4279
17.3179
18.8864
17.8117
17.7841
17.5421
17.4469
1.21948
3.8693
4.84084
0.837501
0.0847135
-0.0531056
-0.0329935
-0.152322
-0.113225
-0.068179
-0.115961
-0.0440754
-0.0428794
-0.116015
-0.0791583
-0.0379745
-0.244117
-0.16849
-0.204735
-0.0318011
-3.11944
-1.2798
15.6525
16.0982
15.5246
17.7079
16.824
16.6823
16.5207
16.3569
0.279104
1.60901
2.34677
0.286303
-0.186401
-0.0525133
-0.0373336
-0.148099
-0.1132
-0.0733895
-0.123452
-0.0534326
-0.04206
-0.108492
-0.0833065
-0.0541961
-0.206555
-0.171671
-0.196319
-0.0977274
-0.376636
-4.80338
16.2939
16.7138
13.5476
15.5791
15.0977
14.9071
14.8994
14.7534
-0.0676078
0.164138
0.365331
-0.0950121
-0.211309
-0.058988
-0.0455834
-0.14432
-0.113635
-0.0787392
-0.128132
-0.0593998
-0.0367902
-0.105029
-0.089635
-0.067423
-0.187231
-0.178613
-0.184676
-0.109551
-0.14756
-0.273021
7.5364
16.5909
11.9068
13.4681
13.8834
13.5461
13.6471
13.5707
-0.116279
-0.131448
-0.126035
-0.092604
-0.209376
-0.067555
-0.0556527
-0.140522
-0.114486
-0.0840039
-0.128799
-0.0615028
-0.0312177
-0.110859
-0.0977224
-0.0808058
-0.17275
-0.174727
-0.171589
-0.125401
-0.126545
-0.230485
-0.22216
8.20477
4.69049
10.6099
12.1958
11.7473
11.9492
11.906
-0.118853
-0.133134
-0.131227
-0.102488
-0.204406
-0.0732614
-0.0661812
-0.137111
-0.115748
-0.0891204
-0.126832
-0.0630286
-0.031812
-0.122093
-0.107491
-0.0955272
-0.148708
-0.168613
-0.166697
-0.130835
-0.121161
-0.189627
-0.198814
-0.156684
-0.203522
2.70745
4.62287
6.39214
7.83772
8.62555
-0.122263
-0.136238
-0.13509
-0.109966
-0.200279
-0.0787477
-0.0764391
-0.134343
-0.117408
-0.0940966
-0.123467
-0.0665422
-0.0393109
-0.13003
-0.115916
-0.083102
-0.154342
-0.165182
-0.16087
-0.136161
-0.146883
-0.188341
-0.18189
-0.134759
-0.12359
-0.101292
-0.0739165
-0.103183
-0.186038
0.00719766
-0.125584
-0.139494
-0.139055
-0.117786
-0.196078
-0.0846877
-0.0863167
-0.132426
-0.119443
-0.0989628
-0.119447
-0.0709668
-0.0494513
-0.134094
-0.125887
-0.117663
-0.127435
-0.165394
-0.162151
-0.152849
-0.159901
-0.182414
-0.169891
-0.13686
-0.119838
-0.106527
-0.103596
-0.116305
-0.133731
-0.135207
-0.129195
-0.143101
-0.143219
-0.125464
-0.19229
-0.0911653
-0.0957637
-0.13151
-0.121842
-0.103796
-0.115952
-0.0755712
-0.0607
-0.136809
-0.112346
-0.049904
-0.171001
-0.165388
-0.164643
-0.156758
-0.156815
-0.160628
-0.151106
-0.132579
-0.127939
-0.123275
-0.1181
-0.129041
-0.132341
-0.134166
-0.133166
-0.147079
-0.147585
-0.133058
-0.188946
-0.0982185
-0.104786
-0.131667
-0.124638
-0.108715
-0.114257
-0.081271
-0.0731166
-0.141117
-0.110701
-0.103364
-0.172266
-0.168289
-0.165326
-0.15675
-0.151259
-0.149086
-0.143755
-0.131869
-0.116354
-0.128836
-0.126185
-0.123972
-0.124842
-0.127491
-0.137482
-0.150945
-0.15204
-0.140363
-0.186175
-0.105832
-0.113437
-0.132886
-0.127909
-0.113857
-0.114968
-0.0883156
-0.084573
-0.135551
-0.107055
-0.155812
-0.168499
-0.165922
-0.164817
-0.157849
-0.150403
-0.147511
-0.141238
-0.121122
-0.118837
-0.124562
-0.121219
-0.121076
-0.122298
-0.124806
-0.142234
-0.155385
-0.156565
-0.14729
-0.184098
-0.113973
-0.121784
-0.13516
-0.131724
-0.119362
-0.117912
-0.0966952
-0.0952077
-0.132643
-0.113145
-0.15479
-0.163411
-0.164004
-0.163861
-0.149068
-0.144136
-0.147489
-0.140722
-0.106887
-0.101007
-0.1141
-0.114877
-0.114379
-0.117077
-0.119082
-0.147487
-0.159961
-0.161057
-0.153773
-0.18283
-0.122588
-0.129905
-0.138486
-0.13614
-0.125359
-0.122642
-0.106201
-0.10516
-0.134204
-0.110283
-0.148078
-0.1591
-0.162876
-0.163501
-0.148039
-0.145884
-0.148798
-0.135673
-0.120046
-0.10012
-0.113641
-0.107163
-0.105278
-0.111859
-0.0934355
-0.153223
-0.164504
-0.165501
-0.15992
-0.182457
-0.13162
-0.137895
-0.142861
-0.141209
-0.131954
-0.128775
-0.116539
-0.115176
-0.137362
-0.114098
-0.146739
-0.157746
-0.162579
-0.163823
-0.162081
-0.15693
-0.148271
-0.140692
-0.137016
-0.105466
-0.122422
-0.0872488
-0.0955494
-0.100725
-0.104714
-0.159442
-0.169218
-0.170062
-0.165999
-0.18299
-0.141014
-0.145863
-0.148271
-0.146981
-0.139228
-0.136052
-0.127228
-0.125765
-0.141989
-0.123708
-0.149747
-0.159831
-0.164629
-0.165911
-0.164786
-0.161527
-0.155391
-0.150221
-0.147712
-0.105701
-0.114149
-0.0919167
-0.0955808
-0.118023
-0.119965
-0.16615
-0.174321
-0.175077
-0.172393
-0.184422
-0.150722
-0.153941
-0.154694
-0.153511
-0.147229
-0.144331
-0.138261
-0.136973
-0.148775
-0.136579
-0.155936
-0.165098
-0.16965
-0.171333
-0.171202
-0.169004
-0.164472
-0.159625
-0.15483
-0.151144
-0.121637
-0.13585
-0.0994778
-0.124073
-0.129539
-0.173369
-0.180025
-0.180762
-0.179257
-0.186929
-0.160715
-0.162276
-0.162087
-0.160855
-0.155972
-0.153525
-0.14964
-0.148829
-0.157504
-0.1512
-0.16473
-0.173056
-0.177711
-0.180171
-0.181191
-0.180024
-0.176705
-0.17243
-0.167065
-0.161776
-0.152022
-0.145955
-0.15694
-0.135489
-0.151786
-0.181138
-0.186459
-0.187221
-0.186504
-0.190835
-0.170985
-0.171035
-0.170389
-0.169081
-0.165454
-0.163576
-0.161396
-0.161297
-0.167816
-0.166336
-0.175905
-0.183736
-0.189194
-0.193165
-0.196064
-0.196889
-0.19556
-0.192541
-0.18764
-0.182278
-0.178117
-0.176812
-0.175532
-0.184609
-0.171878
-0.189512
-0.193704
-0.194507
-0.194268
-0.196145
-0.181528
-0.180387
-0.179553
-0.178243
-0.175675
-0.174429
-0.173514
-0.174354
-0.179505
-0.181438
-0.189197
-0.197337
-0.204864
-0.211751
-0.217715
-0.222529
-0.224774
-0.223884
-0.220381
-0.215932
-0.213025
-0.212237
-0.214092
-0.207524
-0.213838
-0.198546
-0.201837
-0.202645
-0.202678
-0.20282
-0.192351
-0.190483
-0.189573
-0.188365
-0.186651
-0.186044
-0.186153
-0.18773
-0.192306
-0.196394
-0.203958
-0.213151
-0.223894
-0.235563
-0.246953
-0.255029
-0.262584
-0.264223
-0.262538
-0.259966
-0.256245
-0.253987
-0.253677
-0.255562
-0.221357
-0.208302
-0.210826
-0.21166
-0.211826
-0.210844
-0.203559
-0.201384
-0.200462
-0.199438
-0.198392
-0.198355
-0.199177
-0.201408
-0.205843
-0.211159
-0.21909
-0.229552
-0.243212
-0.260111
-0.276598
-0.295508
-0.30723
-0.310849
-0.30845
-0.303006
-0.294643
-0.286439
-0.279047
-0.273098
-0.265434
-0.218848
-0.220756
-0.221584
-0.221799
-0.220201
-0.215315
-0.213117
-0.212246
-0.211444
-0.210902
-0.21131
-0.212601
-0.215258
-0.219627
-0.225391
-0.233435
-0.244402
-0.259307
-0.277794
-0.301409
-0.322778
-0.337947
-0.343082
-0.339867
-0.336673
-0.326565
-0.318349
-0.312461
-0.31029
-0.309838
-0.230258
-0.231674
-0.232462
-0.232691
-0.230887
-0.227754
-0.225736
-0.22496
-0.224379
-0.224191
-0.224873
-0.226404
-0.229143
-0.233217
-0.238609
-0.2458
-0.255249
-0.268111
-0.284759
-0.303925
-0.322237
-0.3358
-0.342881
-0.343693
-0.340115
-0.335082
-0.330086
-0.325715
-0.320976
-0.31768
-0.242609
-0.243631
-0.244348
-0.244594
-0.242878
-0.241036
-0.23931
-0.238652
-0.238258
-0.238278
-0.239041
-0.240544
-0.242996
-0.246418
-0.250816
-0.256346
-0.263216
-0.271721
-0.281855
-0.292917
-0.303149
-0.310996
-0.315467
-0.316351
-0.314905
-0.311495
-0.307227
-0.302409
-0.293403
-0.284484
-0.255985
-0.256689
-0.257309
-0.257605
-0.25625
-0.25522
-0.253912
-0.253383
-0.253123
-0.253218
-0.253885
-0.25512
-0.256992
-0.259468
-0.262495
-0.266046
-0.270083
-0.27452
-0.279128
-0.283484
-0.2871
-0.289667
-0.290743
-0.290561
-0.289156
-0.285646
-0.283164
-0.280278
-0.277075
-0.274156
-0.270476
-0.270911
-0.271422
-0.271807
-0.270974
-0.270491
-0.269641
-0.269245
-0.269057
-0.269111
-0.26953
-0.270301
-0.271421
-0.272832
-0.274431
-0.276154
-0.2779
-0.279501
-0.280897
-0.281964
-0.282424
-0.282176
-0.281395
-0.280103
-0.278435
-0.276504
-0.274374
-0.272272
-0.270333
-0.268539
-0.286177
-0.286367
-0.286762
-0.287285
-0.28708
-0.286996
-0.286623
-0.286362
-0.286198
-0.286129
-0.286194
-0.286368
-0.286614
-0.286877
-0.287106
-0.287413
-0.287713
-0.287885
-0.287881
-0.287722
-0.287422
-0.287013
-0.286535
-0.286034
-0.285536
-0.285052
-0.284594
-0.284183
-0.283802
-0.283491
19.9214
19.8343
19.8372
19.8219
19.9478
19.6596
17.0255
7.98507
-3.14874
-2.91522
0.209004
-0.0662618
-1.11094
-0.262262
-0.0325725
-0.19477
-0.167549
-0.0631985
-0.0835809
-0.0848061
-0.0264987
-0.0731334
-0.172991
-0.307451
-1.63264
6.88921
8.97523
11.969
11.2016
7.73414
19.0723
19.0345
19.2238
19.0767
19.5287
19.218
15.7378
11.4579
0.951351
-3.9581
-3.42178
-1.4623
-0.233984
-0.192564
-0.0516241
-0.185924
-0.161794
-0.0620883
-0.0864357
-0.0849094
-0.0319657
-0.0764896
-0.164842
-0.0243
-2.13672
4.80725
7.33717
10.4241
9.57104
6.02411
18.3582
18.1951
18.3897
18.236
18.9844
17.9669
14.5068
14.5345
4.71573
-8.85243
-3.91606
-0.290887
-0.240787
-0.1826
-0.0707637
-0.176542
-0.150964
-0.0593538
-0.089911
-0.0848901
-0.0377392
-0.0794626
-0.160456
-0.0198975
-0.587293
2.44521
5.51332
8.79055
7.78076
4.18042
17.4935
17.2983
17.4948
17.1804
17.8134
16.2186
13.8558
15.7227
7.96404
-14.5084
-1.16667
-0.260479
-0.235086
-0.173445
-0.0863466
-0.166134
-0.136775
-0.0567688
-0.0947735
-0.0849485
-0.0437753
-0.0827324
-0.156029
-0.0221276
-0.0412989
-0.307325
3.61799
6.95875
5.91471
2.44065
16.2909
16.3117
16.4619
16.2522
16.6709
14.7657
14.0201
15.6816
9.91623
-6.95036
-0.141171
-0.266702
-0.228434
-0.168602
-0.100267
-0.155115
-0.120713
-0.0545586
-0.101194
-0.0854829
-0.0500526
-0.0858757
-0.151565
-0.0258224
-0.0482782
0.107067
0.752805
4.8222
3.8387
1.18179
14.8133
14.7591
14.6414
14.5386
14.7518
12.7341
15.0631
14.7117
-2.38506
-0.611848
-0.18401
-0.254131
-0.22624
-0.169716
-0.113252
-0.144514
-0.105315
-0.0530611
-0.107675
-0.0867537
-0.0564283
-0.0889664
-0.147122
-0.029894
-0.0479992
-0.18632
0.293274
2.32972
1.58355
0.265684
13.5759
13.599
13.3645
13.4822
12.8787
10.8191
15.7758
9.29576
-0.140737
-0.300618
-0.214813
-0.216163
-0.222203
-0.17449
-0.12474
-0.135637
-0.094251
-0.0525677
-0.111591
-0.0887391
-0.0628757
-0.0921217
-0.14325
-0.0379396
-0.0547512
-0.20809
-0.0950971
0.356652
0.155124
-0.0701638
11.9409
12.0205
11.9082
12.4008
10.237
4.41827
8.74361
0.0245665
-0.283199
-0.220302
-0.223502
-0.244293
-0.22083
-0.180383
-0.133968
-0.129659
-0.0907393
-0.0543137
-0.111042
-0.0912306
-0.069389
-0.0954235
-0.139535
-0.0476499
-0.0635215
-0.206362
-0.0924644
-0.125861
-0.131833
-0.11577
8.65935
8.20836
7.12423
5.21418
2.89579
-0.328795
-0.2157
-0.285087
-0.230552
-0.187935
-0.215421
-0.234784
-0.217591
-0.185666
-0.141663
-0.126757
-0.0949078
-0.0559151
-0.108539
-0.0941264
-0.07597
-0.0989604
-0.136182
-0.0579703
-0.0696055
-0.201569
-0.102107
-0.130382
-0.133566
-0.118376
0.0224462
-0.137316
-0.120588
-0.12682
-0.160339
-0.194736
-0.232609
-0.260356
-0.20327
-0.187598
-0.208235
-0.222542
-0.212804
-0.189818
-0.150781
-0.13271
-0.100728
-0.0630907
-0.106359
-0.0974446
-0.0826281
-0.102789
-0.133365
-0.0683061
-0.0754789
-0.197639
-0.109369
-0.134251
-0.136671
-0.121811
-0.137045
-0.14185
-0.138493
-0.140164
-0.150305
-0.178485
-0.226512
-0.247587
-0.225004
-0.205402
-0.207628
-0.213978
-0.209605
-0.193555
-0.161607
-0.132665
-0.107859
-0.0701484
-0.105592
-0.101238
-0.0893834
-0.106932
-0.13128
-0.0785574
-0.0817858
-0.193665
-0.11701
-0.138255
-0.13995
-0.125137
-0.136621
-0.141413
-0.144757
-0.147231
-0.153339
-0.172052
-0.205381
-0.218964
-0.213115
-0.205831
-0.206192
-0.209404
-0.209341
-0.197018
-0.167242
-0.133638
-0.108649
-0.0789965
-0.106728
-0.105562
-0.0962664
-0.111397
-0.130126
-0.0886104
-0.0886066
-0.190123
-0.124553
-0.142492
-0.143597
-0.128742
-0.131234
-0.135727
-0.140545
-0.145021
-0.150642
-0.16327
-0.1821
-0.195399
-0.198308
-0.197552
-0.201199
-0.206515
-0.210011
-0.199901
-0.172058
-0.135693
-0.110499
-0.0894358
-0.109834
-0.11047
-0.103316
-0.116189
-0.130083
-0.0983751
-0.0959732
-0.187031
-0.13206
-0.146967
-0.147611
-0.132698
-0.127954
-0.132906
-0.138725
-0.144957
-0.150021
-0.15911
-0.170557
-0.18083
-0.187166
-0.190077
-0.195218
-0.20298
-0.21067
-0.202759
-0.174275
-0.140461
-0.115699
-0.100692
-0.114652
-0.116023
-0.110576
-0.121321
-0.131271
-0.107812
-0.103863
-0.184511
-0.139323
-0.151535
-0.151477
-0.137027
-0.123284
-0.129596
-0.13284
-0.134729
-0.142059
-0.155298
-0.164918
-0.174188
-0.182014
-0.186846
-0.191908
-0.200057
-0.209698
-0.203641
-0.176162
-0.146359
-0.1238
-0.112271
-0.120815
-0.122269
-0.118095
-0.12683
-0.133722
-0.116943
-0.112242
-0.182671
-0.146241
-0.156173
-0.155919
-0.141779
-0.0941838
-0.123977
-0.134632
-0.140061
-0.150031
-0.154315
-0.163362
-0.173909
-0.180917
-0.18406
-0.190453
-0.196463
-0.203271
-0.199914
-0.177763
-0.153111
-0.133454
-0.123929
-0.128028
-0.129226
-0.125926
-0.132785
-0.137392
-0.125839
-0.121055
-0.181604
-0.152772
-0.160874
-0.160547
-0.147046
-0.112126
-0.127939
-0.136096
-0.142208
-0.149903
-0.158872
-0.163887
-0.172786
-0.181255
-0.186818
-0.193159
-0.19473
-0.197268
-0.196058
-0.180672
-0.160958
-0.143913
-0.135615
-0.136142
-0.136889
-0.134122
-0.139257
-0.142204
-0.134604
-0.130251
-0.181344
-0.15906
-0.165362
-0.165035
-0.152806
-0.125867
-0.133723
-0.14168
-0.148125
-0.155459
-0.164101
-0.173585
-0.182222
-0.190073
-0.196174
-0.198326
-0.198361
-0.198251
-0.196249
-0.185242
-0.16959
-0.15483
-0.147125
-0.145079
-0.145243
-0.142729
-0.146305
-0.148091
-0.143346
-0.139789
-0.181893
-0.16538
-0.169947
-0.169656
-0.159059
-0.13613
-0.142947
-0.151296
-0.157791
-0.16471
-0.173137
-0.182595
-0.191751
-0.199078
-0.203977
-0.206012
-0.205584
-0.203972
-0.200527
-0.191604
-0.178867
-0.166029
-0.158545
-0.154797
-0.154262
-0.151784
-0.153982
-0.154987
-0.152179
-0.149634
-0.183314
-0.172045
-0.174983
-0.174658
-0.165802
-0.147253
-0.145675
-0.171595
-0.173189
-0.177955
-0.185855
-0.195377
-0.204496
-0.211656
-0.216263
-0.217731
-0.216306
-0.213257
-0.208293
-0.199896
-0.188829
-0.177465
-0.170002
-0.165161
-0.163892
-0.161308
-0.162336
-0.162822
-0.161224
-0.159769
-0.186047
-0.178961
-0.18069
-0.180269
-0.173061
-0.179871
-0.156955
-0.177408
-0.186967