/*--------------------------------*- C++ -*----------------------------------*\
| =========                 |                                                 |
| \\      /  F ield         | OpenFOAM: The Open Source CFD Toolbox           |
|  \\    /   O peration     | Version:  2.4.0                                 |
|   \\  /    A nd           | Web:      www.OpenFOAM.org                      |
|    \\/     M anipulation  |                                                 |
\*---------------------------------------------------------------------------*/
FoamFile
{
    version     2.0;
    format      ascii;
    class       volScalarField;
    location    "0.109";
    object      p_rgh;
}
// * * * * * * * * * * * * * * * * * * * * * * * * * * * * * * * * * * * * * //

dimensions      [1 -1 -2 0 0 0 0];

internalField   nonuniform List<scalar> 
3600
(
107.424
107.669
106.533
104.206
101.1
97.4917
93.582
89.8374
86.4004
83.3587
81.6634
80.3909
81.3331
82.3133
84.8249
87.5923
89.7466
91.7241
93.5834
94.8814
94.1985
93.2179
94.0411
94.5181
94.8832
94.864
94.6012
95.344
96.799
96.3521
107.429
107.675
106.54
104.21
101.103
97.492
93.5774
89.8304
86.385
83.3313
81.6252
80.3414
81.2574
82.2416
84.7547
87.5613
89.7217
91.7743
93.6354
94.9142
93.7028
92.7784
93.1875
93.65
94.0565
94.1423
94.0386
94.8134
95.9262
96.2805
107.432
107.686
106.554
104.222
101.111
97.496
93.5717
89.8201
86.3565
83.2813
81.549
80.25
81.1077
82.0837
84.6119
87.4801
89.5983
91.7131
93.6243
94.8145
93.4779
91.9336
92.0118
92.6557
93.3038
93.677
94.0127
95.8952
97.2899
97.5962
107.434
107.701
106.575
104.242
101.124
97.5041
93.5651
89.8064
86.3146
83.2078
81.4349
80.1105
80.9177
81.8702
84.3581
87.3298
89.3791
91.5354
93.3589
94.6323
92.9949
90.8787
90.3708
91.0851
92.2202
93.2796
94.3082
95.6638
97.8581
98.0457
107.436
107.722
106.605
104.269
101.144
97.5163
93.5575
89.7894
86.2592
83.1102
81.2817
79.9174
80.7145
81.6263
84.0542
87.0801
89.1235
91.3411
92.9603
94.0558
92.4772
89.9109
88.3422
89.308
91.0926
92.8278
94.5078
95.9566
96.8142
97.1879
107.437
107.748
106.643
104.305
101.169
97.5327
93.5487
89.7697
86.1903
82.9886
81.0882
79.6581
80.4502
81.36
83.7979
86.7609
88.8959
91.1723
92.6138
93.3029
92.0043
89.3434
87.5861
88.6176
90.6938
92.5405
94.3665
95.9376
96.8923
97.2496
107.437
107.779
106.69
104.348
101.207
97.5462
93.5389
89.7477
86.1082
82.8431
80.8548
79.3268
80.1026
81.0401
83.6344
86.4369
88.7105
91.0555
92.3553
93.2448
92.0799
89.6646
88.0781
88.7349
90.7576
92.7116
94.3476
95.6309
96.6721
97.1438
107.437
107.815
106.744
104.4
101.253
97.5611
93.5281
89.7241
86.0129
82.6746
80.5823
78.9406
79.6654
80.6351
83.4598
86.1556
88.5452
90.9476
92.1297
93.1714
92.6086
90.7842
89.0069
89.655
91.6171
93.5764
95.0942
96.2452
97.1879
97.6431
107.435
107.856
106.807
104.459
101.307
97.5783
93.5163
89.6998
85.9046
82.4832
80.2707
78.5222
79.1476
80.142
83.1468
85.8495
88.3405
90.8726
92.0819
93.2154
92.8337
91.8924
90.5488
90.9889
92.9726
95.0327
96.607
97.5857
98.2391
98.6524
107.432
107.902
106.879
104.527
101.368
97.5977
93.5036
89.676
85.7834
82.2685
79.9213
78.0569
78.5433
79.57
82.6723
85.5652
88.1809
90.888
92.2268
93.332
93.5644
92.9951
92.678
93.2291
94.8478
96.3638
97.6497
98.6485
99.0835
99.2351
107.428
107.953
106.959
104.602
101.438
97.6192
93.4899
89.654
85.6493
82.0305
79.535
77.5159
77.8363
78.9017
82.1132
85.3939
88.1399
90.9491
92.3939
93.5159
94.1651
94.2214
94.5702
95.2681
96.5262
97.6792
98.4481
99.3587
99.8452
99.9215
107.422
108.009
107.047
104.686
101.515
97.6423
93.4752
89.6354
85.5021
81.7699
79.1123
76.8944
77.0352
78.1254
81.4768
85.2374
88.1656
90.9997
92.6447
93.8243
94.6011
95.278
96.2118
97.1222
97.7727
98.4308
99.0749
99.9649
101.115
101.309
107.414
108.07
107.145
104.777
101.602
97.6667
93.4596
89.6218
85.3416
81.4872
78.6532
76.206
76.1212
77.2272
80.7857
85.0135
88.2248
91.1196
93.0169
94.5117
95.4261
96.2806
97.2
97.9994
98.4298
99.1062
100.479
101.337
101.659
101.634
107.403
108.136
107.251
104.877
101.698
97.6918
93.4433
89.6152
85.1676
81.1825
78.1611
75.4484
75.0921
76.1806
80.0025
84.7341
88.3051
91.3573
93.2527
94.7227
95.7371
96.9038
98.3909
99.4563
99.1133
98.6412
99.1233
99.9419
100.747
101.591
107.39
108.206
107.367
104.985
101.803
97.7171
93.4266
89.6174
84.979
80.8561
77.6412
74.6072
73.8319
74.9548
79.0838
84.4847
88.4348
91.5598
93.9786
95.655
96.6608
97.6002
98.6562
99.0317
99.2006
99.9226
99.957
99.9187
101.283
102.939
107.373
108.281
107.492
105.101
101.919
97.7418
93.4099
89.6307
84.7747
80.5097
77.1045
73.6525
72.4567
73.4845
78.1267
84.2438
88.6238
91.7831
94.2739
96.4287
97.6098
98.5252
99.3007
99.1564
98.8107
99.4782
100.712
102.06
103.84
105.207
107.353
108.361
107.627
105.224
102.046
97.7651
93.3936
89.6574
84.5523
80.1476
76.5556
72.5853
71.0256
71.739
77.0666
84.1453
88.9487
91.9788
94.8221
97.0691
98.4336
99.138
100.046
99.5563
98.4949
99.0587
100.983
102.736
103.75
104.306
107.328
108.444
107.772
105.356
102.186
97.786
93.3783
89.7003
84.3097
79.7734
76.0008
71.46
69.3642
69.7565
75.8527
84.0491
89.4559
92.1465
95.4024
98.2961
99.4264
99.9118
100.653
99.6715
99.2243
100.256
101.569
102.942
103.738
104.159
107.299
108.533
107.927
105.495
102.338
97.8036
93.3644
89.7623
84.0439
79.3898
75.4588
70.2594
67.361
67.2352
74.3421
83.9811
90.0808
92.2404
95.4601
98.7185
99.6841
99.1944
99.3754
99.6657
100.553
102.16
102.915
103.39
103.979
104.392
107.264
108.625
108.092
105.643
102.505
97.8165
93.3522
89.8469
83.7509
79.0022
74.9539
68.9032
64.9305
64.3051
72.3142
84.0246
90.5748
92.0646
97.1881
101.392
100.896
98.5844
98.8366
99.7879
101.571
103.761
104.29
103.918
104.181
104.557
107.224
108.721
108.268
105.798
102.688
97.8233
93.342
89.9577
83.4277
78.6238
74.5184
67.2596
53.2599
47.3579
66.6672
83.9749
91.1421
92.5772
96.1092
100.339
101.865
98.5452
99.1655
100.016
102.696
104.535
104.876
104.472
104.705
105.121
107.177
108.821
108.455
105.96
102.888
97.8224
93.334
90.0983
83.0818
78.2753
74.1746
39.5309
20.3441
37.9756
63.4148
84.3746
91.4612
93.5915
95.762
103.692
102.449
96.8882
99.4543
100.388
103.047
104.959
105.427
105.612
105.737
106.04
107.122
108.924
108.653
106.13
103.107
97.8118
93.3285
90.2759
82.7356
77.9627
51.5857
9.33547
5.67982
25.8382
59.385
85.1146
92.7064
92.4255
97.669
104.43
100.292
95.3904
98.8468
101.03
103.178
105.183
106.302
106.708
106.731
106.922
107.058
109.031
108.863
106.307
103.348
97.7892
93.3255
90.4985
82.3543
63.3452
7.29516
5.7166
2.752
10.7701
45.9374
87.5734
92.4892
92.8223
99.3706
105.354
96.9157
93.893
96.8725
101.419
103.583
105.402
106.771
107.408
107.607
107.783
106.985
109.138
109.085
106.491
103.612
97.7522
93.3257
90.7133
80.129
12.9002
0.102168
0.20717
1.37272
1.76483
24.8731
77.6858
92.5507
94.7906
98.716
103.445
94.9907
90.3057
92.3394
100.978
103.818
105.588
107.001
108.054
108.576
108.835
106.903
109.27
109.32
106.681
103.902
97.6974
93.3199
90.5613
35.8078
0.0249994
0.0599776
0.206279
0.263734
0.0891722
3.20474
56.0099
91.6459
95.4743
99.6108
103.578
93.9677
86.4171
86.1694
99.9551
103.746
106.049
107.744
109.042
109.812
110.139
106.808
109.308
109.568
106.878
104.221
97.6225
93.189
85.4668
2.69582
0.0669181
0.0432743
0.177718
0.183019
-0.00617714
0.145237
16.9429
79.894
95.9716
99.2778
101.713
92.3965
84.165
84.8205
100.071
104.856
107.852
109.636
110.771
111.384
111.728
106.692
109.585
109.828
107.081
104.573
97.5365
92.0683
27.2713
-0.0843137
0.0537468
0.0242314
0.142573
0.153973
-0.0301183
0.0555414
0.413148
45.156
94.9419
98.0993
98.6936
92.123
81.8407
86.1089
102.875
107.785
110.904
112.228
112.834
113.271
113.503
106.613
109.508
110.108
107.289
104.96
97.4047
76.6776
1.08793
-0.0484654
0.0410564
0.0177174
0.120339
0.126321
-0.0219937
0.0573488
0.344842
9.35072
67.4246
96.5767
95.8728
92.3819
83.1908
89.8975
105.792
111.725
114.288
114.994
115.069
115.268
115.421
106.386
109.768
110.395
107.495
105.37
89.5534
6.50601
-0.0814491
-0.0301138
0.0398297
0.0153979
0.103735
0.0985266
-0.0367513
0.0509779
0.180379
-0.556166
11.5366
76.3864
93.5095
93.2913
89.6877
97.9895
109.915
115.944
117.223
117.56
117.228
117.277
117.249
96.7263
96.0216
94.8482
94.2627
94.632
94.6686
94.3028
93.8428
93.0017
93.9348
94.6098
93.2958
91.4065
89.376
87.1723
84.3585
81.8074
80.8111
79.8266
81.1521
82.9417
86.0911
89.6229
93.4371
97.4003
101.037
104.159
106.493
107.629
107.386
96.3258
95.6225
94.5315
93.8027
93.9435
93.8805
93.4557
92.9891
92.578
93.4617
94.647
93.3494
91.457
89.3492
87.1399
84.2868
81.7354
80.7349
79.7751
81.1134
82.9137
86.0765
89.6164
93.4328
97.4009
101.04
104.164
106.5
107.636
107.39
97.608
97.2745
95.7592
93.8732
93.5207
93.1488
92.4872
91.8338
91.738
93.2376
94.5511
93.3342
91.3944
89.2212
87.0548
84.1415
81.577
80.5862
79.6798
81.0363
82.8625
86.0498
89.6071
93.4279
97.4055
101.048
104.176
106.513
107.646
107.393
98.0372
97.8362
95.6
94.2185
93.1654
92.089
90.9459
90.2191
90.6781
92.7485
94.3628
93.0716
91.2092
88.9949
86.898
83.886
81.363
80.3966
79.5338
80.9208
82.787
86.0107
89.5948
93.4223
97.4146
101.062
104.196
106.535
107.662
107.395
97.1806
96.7857
95.907
94.4451
92.7396
90.9756
89.1859
88.204
89.7074
92.2384
93.7918
92.6686
91.0052
88.7304
86.6397
83.5802
81.1178
80.1901
79.332
80.7654
82.6868
85.9592
89.5798
93.416
97.4281
101.082
104.224
106.566
107.683
107.397
97.244
96.8711
95.9075
94.3337
92.4675
90.597
88.5147
87.4682
89.1502
91.7894
93.0497
92.3206
90.8259
88.4918
86.3097
83.3229
80.849
79.922
79.0625
80.5691
82.5618
85.8954
89.5625
93.4091
97.4462
101.108
104.259
106.604
107.709
107.398
97.1523
96.6761
95.6374
94.3594
92.6917
90.7005
88.6673
87.9694
89.5065
91.8296
92.9926
92.0618
90.6961
88.292
85.9714
83.1598
80.5265
79.5687
78.7202
80.3325
82.4121
85.8197
89.5433
93.4014
97.4617
101.146
104.303
106.65
107.74
107.399
97.6519
97.2034
96.2699
95.1231
93.589
91.6016
89.6351
88.9379
90.6448
92.4215
92.9268
91.8353
90.5741
88.1089
85.6703
82.9972
80.1196
79.1256
78.3238
80.0559
82.2383
85.7325
89.5229
93.3929
97.4786
101.193
104.355
106.705
107.776
107.398
98.6667
98.2747
97.6352
96.6582
95.0523
92.9794
90.9658
90.4851
91.7676
92.6546
92.9957
91.7863
90.4858
87.8892
85.3381
82.6734
79.6293
78.6011
77.8953
79.7398
82.0404
85.6341
89.5022
93.3838
97.4978
101.248
104.415
106.769
107.817
107.397
99.2407
99.0977
98.6738
97.6568
96.3498
94.8583
93.2547
92.6663
92.9199
93.4078
93.1321
91.9471
90.4928
87.6989
85.0324
82.1853
79.0669
77.9864
77.4193
79.3848
81.8176
85.5251
89.4821
93.374
97.5196
101.312
104.484
106.84
107.863
107.394
99.8865
99.772
99.2656
98.4112
97.6943
96.5247
95.2761
94.542
94.149
94.0277
93.3299
92.1353
90.5459
87.6198
84.8275
81.6166
78.4154
77.2618
76.8706
78.9919
81.5695
85.4059
89.4641
93.3636
97.5436
101.383
104.56
106.921
107.914
107.389
101.299
100.833
99.5592
98.8732
98.3793
97.7519
97.1007
96.2128
95.2452
94.5541
93.6934
92.4096
90.5869
87.5898
84.6203
80.9665
77.6671
76.4387
76.2469
78.5614
81.2962
85.2769
89.4494
93.3524
97.5695
101.463
104.644
107.01
107.971
107.383
101.619
101.667
101.286
100.449
99.2033
98.5603
98.1218
97.2562
96.2474
95.28
94.3637
92.7857
90.6862
87.5949
84.3006
80.2628
76.81
75.495
75.5616
78.0934
80.9975
85.1387
89.4396
93.3407
97.597
101.551
104.737
107.108
108.031
107.375
101.526
100.641
99.87
99.1207
98.7195
99.1853
99.5895
98.4646
96.9389
95.7807
94.6742
93.1122
90.8959
87.5718
83.9415
79.4423
75.836
74.4808
74.8144
77.5911
80.6725
84.9918
89.4362
93.3285
97.6255
101.649
104.838
107.215
108.097
107.365
102.848
101.203
100.104
100.264
100.043
99.4034
99.4229
98.8813
97.687
96.5678
95.4764
93.7721
91.0804
87.6135
83.5757
78.5019
74.7054
73.1644
73.9947
77.0595
80.3201
84.8366
89.4407
93.3161
97.6544
101.758
104.946
107.331
108.168
107.351
105.091
103.693
101.992
100.701
99.4399
99.0834
99.8385
99.6964
98.4797
97.4354
96.1891
94.2121
91.2562
87.6242
83.254
77.473
73.3872
71.7101
73.0845
76.5083
79.9401
84.6734
89.4549
93.304
97.683
101.876
105.063
107.457
108.243
107.335
104.278
103.687
102.644
100.821
98.9848
98.7481
100.373
100.744
99.156
98.3979
96.998
94.7625
91.5553
87.8
83.0547
76.3847
71.8749
70.1909
72.0888
75.9414
79.5338
84.5019
89.4805
93.2926
97.7105
102.006
105.188
107.592
108.322
107.314
104.152
103.702
102.895
101.396
100.175
99.7013
100.889
101.106
99.5394
98.9057
97.9691
95.8572
91.8317
87.9853
82.644
74.9788
70.2289
68.4183
71.047
75.3676
79.1017
84.3224
89.5195
93.2825
97.736
102.149
105.321
107.738
108.407
107.29
104.4
103.999
103.415
102.888
102.042
100.594
100.467
100.262
99.4452
100.382
99.1015
95.8206
92.0235
88.3628
82.3472
73.4472
68.1138
66.2892
69.952
74.8104
78.6409
84.1348
89.5741
93.2741
97.7583
102.305
105.461
107.893
108.495
107.261
104.591
104.284
104.052
104.471
103.814
101.641
100.573
100.454
99.1407
100.099
99.3394
96.5505
92.1543
88.673
81.9339
71.1001
65.7985
63.7451
68.7633
74.2967
78.1491
83.9387
89.647
93.2677
97.7763
102.475
105.61
108.059
108.587
107.226
105.166
104.856
104.685
105.118
104.753
102.861
100.577
100.262
98.4292
101.417
101.218
96.3435
92.5778
88.3791
81.5144
65.9032
52.3947
48.702
67.4914
73.8494
77.6343
83.7352
89.7409
93.2635
97.7884
102.661
105.766
108.236
108.684
107.186
106.102
105.895
105.824
105.783
105.315
103.605
101.206
101.128
98.8973
104.908
101.537
98.3452
93.3484
88.7578
81.3694
57.9301
42.5465
15.5225
45.4046
73.5142
77.1151
83.538
89.8594
93.2617
97.7931
102.865
105.929
108.424
108.784
107.138
107.01
106.918
107.012
106.808
105.894
103.992
102.054
100.27
103.176
100.408
100.155
97.9996
93.1386
89.1492
82.0777
56.429
32.9568
3.002
5.82198
49.2708
76.5589
83.3857
90.0082
93.2625
97.7884
103.089
106.1
108.623
108.887
107.083
107.882
107.788
107.889
107.583
106.467
104.768
102.798
97.3611
100.273
100.067
101.673
97.5545
93.4073
90.0573
78.5759
46.2481
14.6702
0.837653
0.153287
4.91754
59.21
83.2576
90.19
93.2656
97.7722
103.333
106.277
108.834
108.994
107.02
108.931
108.808
108.645
108.058
106.973
105.214
102.301
91.2025
92.2205
100.15
102.462
101.441
94.6581
90.2795
69.2415
21.5834
0.994342
0.195588
0.115465
0.0640263
8.64444
81.1849
90.3419
93.2717
97.742
103.602
106.462
109.057
109.102
106.947
110.24
110.005
109.584
108.587
107.16
104.88
101.083
85.6844
85.4817
100.769
105.159
100.52
95.6813
89.9324
52.1657
4.39498
0.0568968
0.176146
0.0875816
0.041614
0.360318
37.2223
90.1332
93.2718
97.6945
103.897
106.652
109.293
109.235
106.865
111.798
111.462
110.895
109.843
108.163
105.311
100.257
83.9047
81.5036
98.4725
105.269
101.632
96.4781
78.3175
18.5866
0.183272
0.0155297
0.142719
0.0615066
0.0301085
0.109853
2.99669
85.1236
93.1512
97.6277
104.221
106.849
109.542
109.273
106.77
113.547
113.208
112.775
111.925
110.509
107.661
102.831
85.3451
80.5178
97.3517
104.117
101.291
96.7622
48.3627
0.271022
-0.110194
-0.00912909
0.0986755
0.0393484
0.0178873
0.0916684
0.0105148
27.1822
92.0561
97.5503
104.578
107.051
109.803
109.55
106.654
115.397
115.21
114.809
114.398
113.59
111.721
106.516
89.0523
82.287
95.9446
102.224
101.403
80.8153
10.4236
0.230009
-0.0843628
-0.0515263
0.0602294
0.0242863
0.0121815
0.0879994
0.029103
1.11922
76.495
97.4275
104.971
107.258
110.084
109.473
106.575
117.22
117.08
116.914
116.912
116.636
115.793
110.853
96.6605
87.1916
95.1496
99.9511
96.3777
32.7143
-0.427748
0.0886101
-0.114839
-0.0706104
0.0380064
0.0174423
0.012338
0.0774316
0.0253278
-0.0861936
6.42867
89.5675
105.386
107.463
110.373
109.734
106.348
106.39
109.854
110.608
107.627
104.986
65.7613
0.714487
-0.0702871
-0.0197102
0.0421462
0.0113368
0.0937575
0.0827455
-0.0363938
0.0370497
0.179125
-0.317554
0.00860621
23.291
74.802
95.7614
96.8921
105.706
113.51
118.754
119.167
119.392
118.793
118.69
118.652
106.393
109.936
110.775
107.703
102.076
9.78354
0.0801344
-0.0629074
-0.0157433
0.0427982
0.00797981
0.0869209
0.0738735
-0.0327158
0.0323408
0.166139
-0.172699
0.0319696
1.17266
37.9662
96.4089
101.931
111.002
115.468
120.175
120.607
120.232
119.903
119.639
119.465
106.404
110
110.995
107.734
95.8885
1.39042
0.0779686
-0.0579583
-0.0120181
0.0424509
0.00337743
0.0792173
0.067783
-0.0267652
0.0296139
0.119872
-0.171181
-0.00384014
-0.0437542
6.96668
68.4677
107.123
115.15
117.485
121.021
122.077
121.142
120.873
120.52
120.267
87.5635
105.071
111.08
100.847
28.3757
0.199321
0.0759417
-0.0518907
-0.00919235
0.0410297
-0.00285942
0.0708627
0.0644145
-0.0188517
0.0288213
0.109577
-0.121707
-0.0479206
-0.0856526
0.188728
26.4182
111.964
118.012
119.617
121.498
122.97
121.717
121.554
121.304
121.209
57.1493
104.212
108.259
73.9834
0.312488
0.0537908
0.0737042
-0.0456246
-0.0065275
0.0385208
-0.0092553
0.0626229
0.0638189
-0.00931695
0.0275402
0.0946209
-0.125802
-0.0478564
-0.0920197
0.105468
4.71556
93.3955
122.014
122.459
121.705
123.639
122.754
122.61
122.447
122.284
35.4553
82.2046
91.4291
23.3796
1.20534
0.0565263
0.071706
-0.0390414
-0.0041417
0.035671
-0.0143854
0.0556261
0.0669987
0.00056675
0.0257523
0.0812572
-0.0905687
-0.060652
-0.0850672
0.0170895
-0.21873
27.5463
125.005
125.425
122.139
123.94
123.445
123.318
123.311
123.141
4.19162
21.506
32.7778
0.0166013
-0.0996953
0.0526254
0.06603
-0.0327065
-0.00202175
0.0328744
-0.0165186
0.0522222
0.074827
0.00658907
0.0219793
0.0710411
-0.0622203
-0.0655112
-0.0695518
0.00375784
-0.0349421
2.21539
81.5031
127.846
123.083
124.53
124.931
124.598
124.703
124.627
-0.00188315
-0.0170662
0.281728
0.0217761
-0.0949962
0.0468251
0.0587274
-0.0261415
-0.000105485
0.0303762
-0.014418
0.0528979
0.0831839
0.0035279
0.0166588
0.0610057
-0.0485046
-0.059092
-0.0558292
-0.00942218
-0.010481
-0.114431
-0.0881914
79.7398
99.9307
120.591
125.816
125.547
125.754
125.714
-0.00144785
-0.0157564
-0.0138502
0.0148898
-0.0870311
0.044114
0.0511942
-0.0197353
0.0016274
0.028255
-0.00945597
0.054364
0.0855854
-0.00471439
0.00988634
0.0333629
-0.0299258
-0.0499842
-0.0480789
-0.00865134
-0.00289594
-0.0715954
-0.0810803
-0.0457684
15.6386
45.8172
66.1765
82.1088
89.9596
93.3636
-0.00144525
-0.0155951
-0.0144699
0.0106538
-0.0796606
0.0418705
0.0441791
-0.0137245
0.00320995
0.0265216
-0.00284774
0.0540772
0.0813137
-0.00941018
0.00470408
0.0375179
-0.0215676
-0.0407211
-0.0390629
-0.010551
-0.0254175
-0.0669585
-0.0605211
-0.013459
-0.00220686
0.0203137
0.0476512
0.423336
1.93435
3.61179
-0.0011951
-0.0153049
-0.0149263
0.00634296
-0.0719487
0.0394413
0.0378123
-0.00829704
0.00468604
0.0251662
0.00468377
0.0531756
0.0746924
-0.00996394
0.0233287
0.0216809
0.0293722
-0.0378205
-0.0368034
-0.0274949
-0.0349078
-0.0574799
-0.0449756
-0.011941
0.00516309
0.0185573
0.0212981
0.00808633
-0.00945342
-0.0109609
-0.000997875
-0.0150279
-0.0152887
0.00246644
-0.06436
0.0367647
0.0321662
-0.00357983
0.00608753
0.0241339
0.0119784
0.0523775
0.0672702
-0.00887849
0.17913
0.209343
-0.0348045
-0.0300412
-0.0325382
-0.0279569
-0.0280276
-0.0318539
-0.0220357
-0.00107533
0.00348831
0.013791
0.0190329
0.00592728
-0.00199716
-0.00545281
-0.000859342
-0.013776
-0.0149584
-0.000971532
-0.0569006
0.0338265
0.0272588
0.000378455
0.00740691
0.0233297
0.0177881
0.0507764
0.0589447
-0.00907227
0.197001
0.138502
-0.0372051
-0.0286994
-0.026938
-0.0237885
-0.0183142
-0.0161289
-0.00997181
0.0108408
0.0390707
0.00826764
0.00596108
0.00817361
0.00730391
0.00465657
-0.000877571
-0.0127596
-0.0138552
-0.00377953
-0.0496754
0.0306683
0.0230628
0.00361378
0.00859137
0.0226427
0.0215316
0.0481845
0.0519271
0.000949272
0.210224
0.0286672
-0.0316182
-0.0287258
-0.0217642
-0.0195799
-0.0036742
0.000190856
0.00118872
0.0422127
0.0429972
0.0185714
0.0153852
0.0155278
0.014306
0.0118473
-0.000911019
-0.0123171
-0.013497
-0.0058844
-0.0427751
0.0273506
0.0195391
0.0061632
0.00959943
0.0219613
0.0234114
0.0446281
0.0461156
0.00867989
0.12532
-0.00391534
-0.0219171
-0.0225239
-0.014995
0.0113136
0.0169401
0.00568226
0.0120609
0.0764509
0.0823309
0.0540213
0.0267271
0.0270523
0.0253467
0.0240552
-0.000941488
-0.0130042
-0.0127312
-0.00719586
-0.036285
0.0239574
0.0166399
0.00805903
0.0104048
0.0211864
0.0239036
0.0403442
0.041385
0.0123408
0.0362907
-0.00110695
-0.0122585
-0.0161723
-0.0140278
0.0187939
0.0211301
0.0100821
0.0109652
0.0653892
0.0899952
0.0567985
0.0397106
0.0413908
0.0395499
0.0929385
-0.00102506
-0.012306
-0.0131001
-0.00771582
-0.0302587
0.0205781
0.0143039
0.00933791
0.0109892
0.0202442
0.0234232
0.0356593
0.0370227
0.0148369
0.0381003
0.00558065
-0.00542665
-0.0102162
-0.011599
-0.007832
0.00174681
0.00680012
0.0115141
0.0373049
0.0919554
0.0600341
0.065367
0.0575627
0.083516
0.0905485
-0.00112302
-0.0108991
-0.0117427
-0.00767964
-0.0246709
0.0173045
0.0124558
0.0100475
0.0113376
0.0190905
0.0222665
0.0310907
0.0325538
0.0163308
0.0346114
0.00857229
-0.00151202
-0.00628967
-0.00758182
-0.00645388
-0.00318055
0.00293624
0.00809896
0.0106149
0.0990449
0.0856245
0.0669829
0.0639954
0.0709442
0.0831493
-0.00120496
-0.00937528
-0.0101316
-0.00744786
-0.0194767
0.0142228
0.0110045
0.0102509
0.0114347
0.0177158
0.0206139
0.0266841
0.0279725
0.0161699
0.0283661
0.00900986
-0.000150862
-0.0047026
-0.00638205
-0.00622908
-0.0040196
0.000493386
0.00532022
0.010116
0.0334295
0.0871296
0.0614267
0.0674811
0.0580189
0.0820818
-0.00124947
-0.00790561
-0.00864245
-0.0071383
-0.0148101
0.0114044
0.00984289
0.010032
0.0112636
0.0161468
0.0185939
0.0224793
0.0232899
0.0146149
0.0209187
0.00738978
-0.000936135
-0.005591
-0.00805057
-0.00906978
-0.00790066
-0.00458321
-0.000310272
0.00505383
0.010344
0.0554284
0.0628333
0.0389769
0.0482836
0.0432618
-0.00125263
-0.00657364
-0.00733513
-0.00661831
-0.0109496
0.00890075
0.00885068
0.00949666
0.0108051
0.0144318
0.01631
0.0184894
0.0185886
0.0120698
0.0135497
0.00398089
-0.00385063
-0.00930852
-0.0132795
-0.0161779
-0.0170031
-0.0156741
-0.0126555
-0.00775399
-0.00239191
0.00207191
0.0362711
0.0372881
0.0216685
0.0259353
-0.00121823
-0.00541021
-0.00621294
-0.00597428
-0.00785103
0.0067658
0.00790727
0.00874086
0.0100516
0.0126192
0.0138651
0.0147799
0.0139405
0.00878913
0.00685596
-0.000902478
-0.009043
-0.01657
-0.0234563
-0.0291309
-0.0342343
-0.0358857
-0.0341522
-0.0320868
-0.0276162
-0.0246888
-0.0231942
0.0049171
0.017316
0.00672828
-0.00114832
-0.00443907
-0.00524766
-0.00528063
-0.00542226
0.00504672
0.00691462
0.00782425
0.00903272
0.0107463
0.0113531
0.0112441
0.00966782
0.00509196
0.00100365
-0.00655994
-0.015753
-0.0264968
-0.0381657
-0.0453276
-0.0424737
-0.0492854
-0.0509299
-0.0524758
-0.0608678
-0.0586699
-0.0562529
-0.0552578
-0.0253515
0.0352545
-0.00104898
-0.00357333
-0.0044064
-0.0045726
-0.0035906
0.00369365
0.00586942
0.0067915
0.00781535
0.00886147
0.00889799
0.00807663
0.00584467
0.00141006
-0.00390607
-0.011837
-0.0222993
-0.0359593
-0.0509099
-0.0534266
-0.0715591
-0.0832818
-0.0869003
-0.0845077
-0.085763
-0.0869898
-0.078723
-0.0712938
-0.0555355
0.00600076
-0.000924937
-0.00283325
-0.00366058
-0.00387626
-0.00227747
0.0026079
0.00480657
0.0056773
0.00647953
0.00702162
0.00661333
0.0053221
0.00266534
-0.00170384
-0.00746757
-0.0155115
-0.0264788
-0.0412891
-0.0564794
-0.0810931
-0.104529
-0.115052
-0.11346
-0.10738
-0.112976
-0.108155
-0.0999038
-0.0940173
-0.0783025
-0.0235524
-0.000782615
-0.00219886
-0.00298655
-0.00321605
-0.00141183
0.00172092
0.00373921
0.00451462
0.00509584
0.00528412
0.00460186
0.00307122
0.000332415
-0.00374219
-0.0091337
-0.0163247
-0.0257707
-0.0386248
-0.055281
-0.0744471
-0.0924399
-0.106189
-0.112984
-0.113247
-0.109276
-0.0987653
-0.0873971
-0.0635428
-0.0216773
-0.016048
-0.000627353
-0.00165011
-0.00236642
-0.00261268
-0.000896649
0.000944975
0.00267175
0.00332976
0.00372331
0.00370374
0.0029405
0.00143765
-0.00101415
-0.00443618
-0.00883457
-0.0143647
-0.0212348
-0.0297397
-0.0398707
-0.0506954
-0.0608255
-0.0688798
-0.0733974
-0.0742618
-0.0696093
-0.0507372
-0.0301756
-0.0115389
0.0133404
0.0281284
-0.000463713
-0.00116778
-0.00178819
-0.0020834
-0.000729174
0.000300989
0.00160937
0.00213819
0.00239781
0.0023035
0.00163627
0.00040162
-0.00147117
-0.0039472
-0.00697356
-0.0105253
-0.0145618
-0.0189985
-0.0236066
-0.0278898
-0.0312656
-0.0340347
-0.0351417
-0.034759
-0.0302323
-0.0225557
-0.0200774
-0.0185799
-0.0163636
-0.0131744
-0.000295887
-0.000731282
-0.00124162
-0.00162747
-0.000794479
-0.000310534
0.000539183
0.000935424
0.00112266
0.00106889
0.000649622
-0.000121065
-0.00124135
-0.0026525
-0.00425144
-0.00597416
-0.00772009
-0.00932085
-0.0107175
-0.0117838
-0.0121602
-0.0117992
-0.0111309
-0.00986545
-0.00805994
-0.00631275
-0.00417912
-0.00190883
-9.76315e-05
0.00168521
-0.000126966
-0.000317204
-0.000711532
-0.00123472
-0.00102987
-0.000945626
-0.000572852
-0.000311582
-0.000147767
-7.89756e-05
-0.000144236
-0.000317436
-0.000563496
-0.000827101
-0.00105598
-0.00136321
-0.00166326
-0.00183446
-0.00183113
-0.00167235
-0.00137074
-0.000941336
-0.000466786
2.40683e-05
0.000522183
0.00100741
0.00146798
0.0018885
0.00230606
0.0026013
118.538
118.451
118.435
118.425
118.565
118.277
114.707
104.978
95.1056
95.498
98.6443
58.5858
1.69729
-0.156002
0.0663838
-0.0958298
-0.0685863
0.035725
0.0153454
0.0141203
0.0724273
0.0256547
-0.0729382
0.791446
65.9774
105.013
107.594
110.587
109.82
106.352
119.377
119.364
119.554
119.407
119.859
119.548
115.485
110.55
101.143
96.2141
76.702
13.9162
-0.076794
-0.0908151
0.0493894
-0.0852736
-0.0611447
0.0385556
0.0142088
0.015735
0.0686776
0.0241406
-0.06397
0.0834444
9.93552
102.091
107.668
110.755
109.902
106.355
120.182
120.213
120.503
120.408
121.169
120.151
116.687
116.688
106.86
90.5124
29.9609
-0.0250098
-0.131617
-0.0804792
0.03175
-0.0740318
-0.0484571
0.0431508
0.0125936
0.0176167
0.0647641
0.0230408
-0.0581333
0.0834377
1.43571
96.0683
107.698
110.976
109.966
106.366
121.256
121.06
121.257
121.051
121.784
120.363
118.035
119.898
112.139
44.5061
0.677581
-0.125704
-0.1295
-0.0686773
0.0181771
-0.0616106
-0.0322515
0.0477532
0.00975421
0.0195747
0.0607419
0.0217847
-0.0515211
0.0824864
0.190561
28.7944
100.875
111.049
104.961
87.2001
122.217
122.238
122.389
122.181
122.601
120.88
120.369
122.029
116.262
11.5763
-0.0196774
-0.156597
-0.120779
-0.061887
0.00643686
-0.048411
-0.0140089
0.0521483
0.00552555
0.0212224
0.0566448
0.0208217
-0.0448676
0.0808708
0.0586201
0.317069
73.8655
108.266
104.237
57.2694
123.203
123.158
123.134
122.908
123.22
121.36
123.762
123.411
51.198
-0.307722
-0.0714375
-0.140138
-0.116263
-0.0606514
-0.00418717
-0.0354494
0.00374962
0.0560034
0.00144367
0.0223132
0.0526296
0.0200915
-0.0380646
0.0791455
0.0610429
1.20547
23.5809
91.3542
81.6516
34.6678
124.632
124.655
124.418
124.528
123.953
122.002
127.02
94.8651
3.34238
-0.190493
-0.10307
-0.104334
-0.110507
-0.062857
-0.0130983
-0.0236582
0.017369
0.0590524
0.000129153
0.0228812
0.0487376
0.0194916
-0.0316367
0.0736737
0.0568621
-0.0964764
0.0165163
32.3442
20.8884
3.91052
125.749
125.827
125.707
126.139
121.292
99.961
87.3721
2.75958
-0.168554
-0.105737
-0.108992
-0.129703
-0.106398
-0.0659761
-0.018892
-0.012744
0.0236477
0.0601821
0.00343261
0.0231499
0.0449911
0.0189566
-0.025155
0.0667302
0.0508585
-0.0919823
0.0219156
0.220931
-0.0174528
-0.00137276
93.4716
91.5953
84.4187
70.1125
48.3098
18.544
0.847102
-0.167547
-0.11279
-0.0703812
-0.0979261
-0.117298
-0.100118
-0.0677725
-0.0214511
-0.00654468
0.0245374
0.0626932
0.00883767
0.023249
0.0414054
0.0184149
-0.0188064
0.0594051
0.0477698
-0.0841936
0.0152697
-0.0130062
-0.0161905
-0.000966983
3.74634
2.32708
0.927561
-0.00612583
-0.0396476
-0.0740436
-0.111891
-0.139586
-0.0821348
-0.0656914
-0.087489
-0.101802
-0.092068
-0.0679887
-0.0272886
-0.0114887
0.022313
0.0578375
0.0142588
0.0231736
0.0379901
0.0178293
-0.0127467
0.0523121
0.0451393
-0.0770205
0.0112507
-0.0136322
-0.0160311
-0.000977324
-0.0128126
-0.0176322
-0.0142866
-0.0159595
-0.026101
-0.0542808
-0.102296
-0.122179
-0.099522
-0.0802162
-0.0833754
-0.0897268
-0.0853188
-0.0683831
-0.0363732
-0.00853009
0.0168085
0.0539808
0.0185369
0.0228909
0.0347456
0.017197
-0.00715125
0.0455716
0.0423432
-0.0695365
0.00711922
-0.0141256
-0.0157753
-0.000723457
-0.00838734
-0.0131505
-0.016458
-0.0191078
-0.0253312
-0.0440438
-0.0772687
-0.0903723
-0.0845026
-0.0777753
-0.0781364
-0.0813475
-0.0809789
-0.0659214
-0.0362988
-0.00570817
0.0192819
0.0489334
0.0212023
0.0223682
0.0316635
0.0165325
-0.00219618
0.0393196
0.0393234
-0.0621928
0.00337741
-0.0145621
-0.0155739
-0.000509121
0.00130774
-0.0033373
-0.00838905
-0.0128654
-0.0184825
-0.031111
-0.049944
-0.0632432
-0.066151
-0.0653854
-0.0690249
-0.074017
-0.0747251
-0.0645876
-0.0385382
-0.00364791
0.021546
0.0426092
0.0222109
0.021575
0.0287292
0.0158557
0.00196151
0.0336699
0.0360718
-0.054986
1.78177e-05
-0.0142237
-0.0142867
-0.000337474
0.00995047
0.00465401
-0.00185131
-0.00834267
-0.013406
-0.0224951
-0.0339429
-0.0442155
-0.0505508
-0.0534599
-0.0585745
-0.0642347
-0.0708036
-0.0631436
-0.0377749
-0.00396042
0.0208013
0.0358082
0.0218483
0.0204772
0.0259245
0.0151793
0.00522951
0.028688
0.0326366
-0.0480107
-0.00275098
-0.0132657
-0.0132068
-0.000380807
0.0205268
0.0204606
0.0203625
0.0185233
0.0110597
-0.00671431
-0.0234765
-0.0327456
-0.0405699
-0.0451271
-0.0503665
-0.0567743
-0.0651936
-0.0616689
-0.0348388
-0.00503562
0.0175234
0.0290523
0.0205086
0.019054
0.0232285
0.0144932
0.00760144
0.0243807
0.0290816
-0.0413478
-0.00483921
-0.0130167
-0.0127632
-0.000455759
0.0934212
0.0495546
0.0128169
0.00734456
0.00311386
0.00174978
-0.00730221
-0.0210757
-0.0280656
-0.030399
-0.0411913
-0.0499068
-0.0564812
-0.0532663
-0.031166
-0.00656623
0.0130918
0.0226158
0.0185171
0.017319
0.0206192
0.0137604
0.00915285
0.020706
0.0254906
-0.0350593
-0.00619179
-0.0125794
-0.0131589
-0.000500936
0.0830671
0.0640928
0.0169743
0.0102709
0.00259403
-0.0031105
-0.0018795
-0.0111322
-0.0199142
-0.0265198
-0.0406528
-0.042526
-0.0450065
-0.0438015
-0.028474
-0.00875759
0.00828592
0.0165831
0.016056
0.0153091
0.0180767
0.0129418
0.00999398
0.017594
0.021947
-0.0291454
-0.00686156
-0.0131611
-0.0128365
-0.00060718
0.0772443
0.0692826
0.0260066
0.0104836
0.00315092
-0.00548163
-0.0125501
-0.0176831
-0.026281
-0.0368206
-0.0400067
-0.040037
-0.0399185
-0.0379297
-0.0269231
-0.0112711
0.00348895
0.0111935
0.01324
0.013076
0.0155895
0.0120139
0.0102281
0.0149728
0.0185298
-0.0235739
-0.00706072
-0.0116283
-0.0113374
-0.000739894
0.0754872
0.0686128
0.030842
0.00745654