/*--------------------------------*- C++ -*----------------------------------*\
| =========                 |                                                 |
| \\      /  F ield         | OpenFOAM: The Open Source CFD Toolbox           |
|  \\    /   O peration     | Version:  2.4.0                                 |
|   \\  /    A nd           | Web:      www.OpenFOAM.org                      |
|    \\/     M anipulation  |                                                 |
\*---------------------------------------------------------------------------*/
FoamFile
{
    version     2.0;
    format      ascii;
    class       volVectorField;
    location    "0.109";
    object      U;
}
// * * * * * * * * * * * * * * * * * * * * * * * * * * * * * * * * * * * * * //

dimensions      [0 1 -1 0 0 0 0];

internalField   nonuniform List<vector> 
3600
(
(-0.00498305 0.00019274 0)
(-0.0100228 -2.65743e-05 0)
(-0.00756869 -0.000176563 0)
(-0.00211821 -0.000259607 0)
(0.00501934 -0.000333546 0)
(0.0139697 -0.000400585 0)
(0.023274 -0.000386591 0)
(0.0319809 -0.000369557 0)
(0.0405841 -0.000324293 0)
(0.0456779 -0.000108466 0)
(0.0538719 -9.69831e-06 0)
(0.0466392 0.00057824 0)
(0.0551623 0.000617182 0)
(0.0391202 0.00192688 0)
(0.0276519 0.00144718 0)
(0.0265816 0.00273174 0)
(-0.00284333 0.0021684 0)
(-0.00880608 0.003159 0)
(-0.028918 -0.000458522 0)
(-0.0296009 -0.000794227 0)
(-0.051491 0.0077179 0)
(-0.0800532 0.0035438 0)
(-0.0551125 -0.00891749 0)
(-0.0335003 -0.01027 0)
(-0.010384 -0.0066454 0)
(0.0091775 -0.00698895 0)
(0.0212786 -0.000604171 0)
(0.0143972 0.00170374 0)
(0.0126144 -0.00971676 0)
(0.0148447 0.00830885 0)
(-0.00762758 0.000888982 0)
(-0.0165997 0.000164556 0)
(-0.0155975 -0.000490624 0)
(-0.010214 -0.000885314 0)
(-0.00216832 -0.00128937 0)
(0.00886226 -0.00167794 0)
(0.0211089 -0.00182175 0)
(0.0333863 -0.00196207 0)
(0.0461551 -0.00194035 0)
(0.0548841 -0.00162075 0)
(0.0696148 -0.000925509 0)
(0.0609323 0.000307149 0)
(0.0815135 -0.000209567 0)
(0.0628394 0.00643052 0)
(0.0529092 0.0015653 0)
(0.0633885 0.00652459 0)
(0.0278975 0.0104073 0)
(0.017062 0.00794577 0)
(-0.0019098 0.00988705 0)
(-0.0421526 0.010741 0)
(-0.0765871 0.0166168 0)
(-0.0828238 0.00363675 0)
(-0.0757074 -0.0245692 0)
(-0.0710924 -0.0239427 0)
(-0.0388866 -0.0279477 0)
(-0.0227623 -0.0242426 0)
(-0.00541856 -0.00386165 0)
(0.000669955 0.0122012 0)
(-0.00988045 -0.000546334 0)
(-0.00527745 0.0232799 0)
(-0.00819971 0.00179351 0)
(-0.0180751 0.000461276 0)
(-0.0175767 -0.000729671 0)
(-0.012528 -0.00145043 0)
(-0.00465187 -0.00222691 0)
(0.00644161 -0.00296956 0)
(0.0189221 -0.00331703 0)
(0.0315866 -0.00366446 0)
(0.0448704 -0.00369623 0)
(0.0541989 -0.00338127 0)
(0.0698705 -0.0018998 0)
(0.0603588 -0.000517028 0)
(0.0865863 -0.00133862 0)
(0.0600019 0.0103924 0)
(0.0668121 0.000625737 0)
(0.0692533 0.00986612 0)
(0.0442123 0.017942 0)
(0.0271176 0.0137519 0)
(0.0170146 0.0229926 0)
(-0.0207555 0.0291083 0)
(-0.0628069 0.0267001 0)
(-0.0793781 0.00826509 0)
(-0.0854761 -0.017995 0)
(-0.0966002 -0.0370515 0)
(-0.0667582 -0.0424933 0)
(-0.0621023 -0.0367498 0)
(-0.035347 -0.0160916 0)
(-0.0194207 0.00507109 0)
(-0.0211844 -0.000612984 0)
(-0.0100955 -0.00214683 0)
(-0.00835567 0.00270996 0)
(-0.018445 0.000770488 0)
(-0.0180258 -0.000967597 0)
(-0.0130469 -0.00201983 0)
(-0.00522334 -0.00317706 0)
(0.00588911 -0.0042815 0)
(0.018418 -0.0048365 0)
(0.0311599 -0.00540031 0)
(0.0445709 -0.00549399 0)
(0.0541013 -0.00520444 0)
(0.0701434 -0.00277229 0)
(0.0588601 -0.00187595 0)
(0.0922042 -0.00134799 0)
(0.0472711 0.0129345 0)
(0.0848655 -0.00145217 0)
(0.0671807 0.0125109 0)
(0.0530938 0.0255496 0)
(0.0332092 0.0174918 0)
(0.0345739 0.0297432 0)
(0.00766469 0.0471387 0)
(-0.035902 0.0418141 0)
(-0.0656459 0.0231626 0)
(-0.0829565 -0.0117908 0)
(-0.097155 -0.0420559 0)
(-0.0871476 -0.0573764 0)
(-0.0797779 -0.0533126 0)
(-0.0579634 -0.0333246 0)
(-0.0312807 -0.00900527 0)
(-0.0228021 -0.00628 0)
(-0.00330436 -0.0216957 0)
(-0.0084499 0.00363517 0)
(-0.0186423 0.00108342 0)
(-0.0182113 -0.00120371 0)
(-0.01323 -0.00258648 0)
(-0.00542439 -0.00412757 0)
(0.00571964 -0.00559708 0)
(0.0182859 -0.00635752 0)
(0.0310753 -0.00714604 0)
(0.0445806 -0.00730998 0)
(0.0543474 -0.0070745 0)
(0.0705865 -0.00349305 0)
(0.0582564 -0.0038819 0)
(0.0967116 0.000588305 0)
(0.0322176 0.0132133 0)
(0.102271 -0.0042598 0)
(0.0524306 0.0167136 0)
(0.0597838 0.0317226 0)
(0.0391387 0.0207149 0)
(0.0390742 0.0331016 0)
(0.0341251 0.0579743 0)
(-0.0017506 0.0586717 0)
(-0.0304289 0.0386345 0)
(-0.0553548 -0.000624436 0)
(-0.0701085 -0.0400343 0)
(-0.0793384 -0.0599024 0)
(-0.0844782 -0.0654725 0)
(-0.0689553 -0.0562852 0)
(-0.0410064 -0.0351163 0)
(-0.0239059 -0.0286759 0)
(-0.00231583 -0.031894 0)
(-0.00855033 0.00456931 0)
(-0.0188451 0.00139789 0)
(-0.0183824 -0.00144226 0)
(-0.0133842 -0.00315335 0)
(-0.00559786 -0.00508086 0)
(0.00557988 -0.00691705 0)
(0.0181792 -0.00788046 0)
(0.0310097 -0.00890438 0)
(0.0446086 -0.00915438 0)
(0.0547176 -0.00897829 0)
(0.0708354 -0.00419978 0)
(0.0593704 -0.00624945 0)
(0.0984811 0.00388804 0)
(0.0255246 0.011841 0)
(0.111296 -0.00483002 0)
(0.0263948 0.0227164 0)
(0.0706653 0.0332756 0)
(0.038895 0.0244331 0)
(0.0422877 0.0355259 0)
(0.0432463 0.0675269 0)
(0.0327666 0.0736946 0)
(0.00843857 0.0507386 0)
(-0.00394579 0.0216252 0)
(-0.0167976 -0.0188961 0)
(-0.0391039 -0.046135 0)
(-0.0522395 -0.0656582 0)
(-0.0593677 -0.0722974 0)
(-0.0445105 -0.0636731 0)
(-0.026359 -0.0543256 0)
(-0.00726625 -0.0559211 0)
(-0.00866947 0.00551483 0)
(-0.0190847 0.00171418 0)
(-0.018581 -0.00168348 0)
(-0.0135611 -0.00371956 0)
(-0.00579954 -0.00603357 0)
(0.00541657 -0.00824349 0)
(0.0180507 -0.00940331 0)
(0.0309258 -0.0106754 0)
(0.0446314 -0.0110357 0)
(0.0552058 -0.0108909 0)
(0.0707895 -0.0050575 0)
(0.0626356 -0.00871176 0)
(0.0971954 0.00749349 0)
(0.0322693 0.00963594 0)
(0.113029 -0.00188651 0)
(0.00984569 0.0268028 0)
(0.0747429 0.0312072 0)
(0.0381104 0.0295594 0)
(0.0436473 0.0316545 0)
(0.0570301 0.0619793 0)
(0.0600458 0.0793126 0)
(0.0397727 0.0688014 0)
(0.0227228 0.0215045 0)
(0.0188742 -0.0156539 0)
(0.00940752 -0.0332843 0)
(0.00680722 -0.0471627 0)
(-0.0143924 -0.0647419 0)
(-0.0192147 -0.078888 0)
(-0.0152223 -0.0789225 0)
(-0.00176596 -0.0764504 0)
(-0.00880979 0.00647393 0)
(-0.0193665 0.00203268 0)
(-0.0188136 -0.00192794 0)
(-0.0137681 -0.00428479 0)
(-0.00603736 -0.00698484 0)
(0.00522357 -0.0095786 0)
(0.0178961 -0.0109258 0)
(0.0308195 -0.0124614 0)
(0.0446511 -0.0129645 0)
(0.055782 -0.0127784 0)
(0.0704888 -0.00631598 0)
(0.0678476 -0.0104724 0)
(0.0896948 0.00995663 0)
(0.056067 0.00765274 0)
(0.102189 0.00226873 0)
(0.0229063 0.0323085 0)
(0.0542951 0.0271111 0)
(0.0406724 0.0326884 0)
(0.0257506 0.0294885 0)
(0.0608989 0.0556338 0)
(0.0766574 0.0814755 0)
(0.0729814 0.0684793 0)
(0.050305 0.0325841 0)
(0.0459982 -0.0105276 0)
(0.0285377 -0.041049 0)
(0.0376937 -0.0459946 0)
(0.031715 -0.0441395 0)
(0.0230038 -0.0579558 0)
(0.0096035 -0.0766369 0)
(0.00403941 -0.0740775 0)
(-0.00897203 0.00744884 0)
(-0.0196921 0.00235373 0)
(-0.0190809 -0.00217622 0)
(-0.0140059 -0.00484894 0)
(-0.0063126 -0.00793627 0)
(0.00500045 -0.0109217 0)
(0.0177147 -0.0124467 0)
(0.0306881 -0.0142646 0)
(0.0446754 -0.0149455 0)
(0.0563521 -0.0146436 0)
(0.0705262 -0.00807831 0)
(0.0718922 -0.0108213 0)
(0.0802979 0.00907588 0)
(0.0801771 0.00813715 0)
(0.0781503 0.00683148 0)
(0.046263 0.0379592 0)
(0.0366281 0.0257098 0)
(0.0505819 0.0388089 0)
(0.0330459 0.0276049 0)
(0.0533879 0.0370865 0)
(0.0830165 0.0738869 0)
(0.0851757 0.0834757 0)
(0.0719579 0.0501998 0)
(0.0813388 -0.00169269 0)
(0.0670733 -0.0294706 0)
(0.0596008 -0.044009 0)
(0.0382381 -0.0422424 0)
(0.0351096 -0.0460385 0)
(0.0295857 -0.0512158 0)
(0.00982021 -0.0543504 0)
(-0.00915674 0.00844184 0)
(-0.0200623 0.00267763 0)
(-0.0193833 -0.00242901 0)
(-0.0142745 -0.00541156 0)
(-0.00662578 -0.00888798 0)
(0.00474733 -0.0122726 0)
(0.0175059 -0.0139646 0)
(0.0305288 -0.0160882 0)
(0.0447068 -0.0169781 0)
(0.0568757 -0.0165626 0)
(0.0713008 -0.00995658 0)
(0.0725085 -0.0109507 0)
(0.0819011 0.00624129 0)
(0.0853931 0.0109283 0)
(0.0671098 0.00961232 0)
(0.0564364 0.0464683 0)
(0.0489097 0.0275155 0)
(0.0610015 0.0321984 0)
(0.0600205 0.0319066 0)
(0.0398262 0.0288127 0)
(0.0797609 0.0599202 0)
(0.103192 0.0754783 0)
(0.0950709 0.0443932 0)
(0.0897109 -9.85209e-05 0)
(0.0776798 -0.0287015 0)
(0.0808424 -0.0272878 0)
(0.0491665 -0.025631 0)
(0.0217528 -0.0495314 0)
(0.00927176 -0.0530569 0)
(0.00606392 -0.0363582 0)
(-0.00936446 0.00945531 0)
(-0.020478 0.00300469 0)
(-0.0197208 -0.00268704 0)
(-0.0145738 -0.0059722 0)
(-0.00697732 -0.0098402 0)
(0.00446465 -0.0136324 0)
(0.0172689 -0.0154778 0)
(0.0303382 -0.0179359 0)
(0.0447372 -0.0190643 0)
(0.057445 -0.0185744 0)
(0.0721279 -0.0117032 0)
(0.0729517 -0.0119107 0)
(0.0898377 0.00406196 0)
(0.0788249 0.0144498 0)
(0.0739402 0.0135157 0)
(0.0575301 0.045073 0)
(0.0755893 0.0280789 0)
(0.0539867 0.0303611 0)
(0.0687448 0.0369394 0)
(0.0553142 0.0264308 0)
(0.0733628 0.0386329 0)
(0.0888671 0.0737292 0)
(0.099645 0.0589689 0)
(0.100856 0.00977258 0)
(0.0796666 -0.0289193 0)
(0.03828 -0.0108334 0)
(0.0260591 0.0116093 0)
(0.0298037 -0.0104431 0)
(0.00593792 -0.0368024 0)
(0.00221683 -0.0404875 0)
(-0.00959581 0.0104916 0)
(-0.0209402 0.00333516 0)
(-0.0200934 -0.00295105 0)
(-0.0149035 -0.00653053 0)
(-0.0073678 -0.0107934 0)
(0.00415261 -0.0150019 0)
(0.0170029 -0.0169846 0)
(0.0301134 -0.0198119 0)
(0.0447636 -0.0212109 0)
(0.0580932 -0.020641 0)
(0.0725505 -0.0135337 0)
(0.0760119 -0.013549 0)
(0.0932106 0.00372037 0)
(0.072932 0.0170151 0)
(0.0871611 0.0146413 0)
(0.0581698 0.0432397 0)
(0.0830624 0.0310937 0)
(0.0479795 0.0301722 0)
(0.0711798 0.0358228 0)
(0.0613812 0.0252703 0)
(0.0502368 0.0345787 0)
(0.0727182 0.0579765 0)
(0.0888677 0.041382 0)
(0.0764916 0.0195426 0)
(0.0632122 0.0137939 0)
(0.0421113 0.015066 0)
(0.0546915 -0.0151559 0)
(0.0533872 -0.0295505 0)
(0.0178381 -0.013519 0)
(0.00149431 -0.0193423 0)
(-0.00985146 0.0115533 0)
(-0.02145 0.00366929 0)
(-0.0205011 -0.00322193 0)
(-0.0152634 -0.00708611 0)
(-0.00779776 -0.0117471 0)
(0.00381179 -0.0163805 0)
(0.0167064 -0.0184832 0)
(0.0298502 -0.0217204 0)
(0.044791 -0.0234226 0)
(0.0587335 -0.0227337 0)
(0.0729941 -0.015752 0)
(0.0804371 -0.0147563 0)
(0.089332 0.00326297 0)
(0.0823406 0.0178115 0)
(0.0890245 0.0186219 0)
(0.0575727 0.0415551 0)
(0.0881413 0.0356247 0)
(0.0408386 0.0321065 0)
(0.0612416 0.0336937 0)
(0.05896 0.0418027 0)
(0.0490059 0.0390941 0)
(0.0675678 0.0527432 0)
(0.079248 0.0513134 0)
(0.0813106 0.0201833 0)
(0.0726688 -0.00234449 0)
(0.073378 -0.00577479 0)
(0.0503496 0.0129192 0)
(-0.00238402 0.0337195 0)
(-0.0126489 0.0104206 0)
(-0.00377056 -0.0152314 0)
(-0.0101322 0.0126429 0)
(-0.0220088 0.00400731 0)
(-0.020944 -0.00350065 0)
(-0.0156532 -0.0076384 0)
(-0.00826773 -0.012702 0)
(0.00344275 -0.0177691 0)
(0.0163781 -0.0199709 0)
(0.0295448 -0.0236676 0)
(0.044821 -0.0256961 0)
(0.0592807 -0.0248999 0)
(0.0741438 -0.0182329 0)
(0.0825435 -0.0156301 0)
(0.0887507 0.00226812 0)
(0.0918094 0.0183403 0)
(0.0893169 0.0221942 0)
(0.0656519 0.0407992 0)
(0.0676436 0.038796 0)
(0.0490478 0.0385788 0)
(0.050265 0.0251423 0)
(0.0627049 0.0201501 0)
(0.0592696 0.0211878 0)
(0.0580003 0.0420943 0)
(0.0584007 0.0442708 0)
(0.0347554 0.0303592 0)
(-0.00646983 0.0264015 0)
(-0.022844 0.0323047 0)
(-0.0293856 0.0397525 0)
(-0.0286316 0.0263748 0)
(-0.00694509 -0.0171899 0)
(-0.00427876 -0.0414584 0)
(-0.0104388 0.0137629 0)
(-0.0226179 0.00434938 0)
(-0.0214222 -0.00378841 0)
(-0.0160726 -0.00818644 0)
(-0.00877834 -0.013658 0)
(0.00304634 -0.0191679 0)
(0.0160163 -0.0214463 0)
(0.0291938 -0.025659 0)
(0.0448448 -0.0280256 0)
(0.059775 -0.0271968 0)
(0.0758096 -0.0207382 0)
(0.0825563 -0.016493 0)
(0.0937989 -0.000844258 0)
(0.102119 0.01946 0)
(0.0801871 0.026568 0)
(0.0619622 0.0477582 0)
(0.051194 0.0442787 0)
(0.0465991 0.0344281 0)
(0.0364293 0.0359581 0)
(0.0194872 0.0482203 0)
(8.35538e-07 0.0498545 0)
(0.00534455 0.0544838 0)
(0.0228994 0.0540583 0)
(0.0374334 0.0491657 0)
(0.0462506 0.0400996 0)
(0.0414319 0.0297277 0)
(0.0173941 0.0325854 0)
(0.0267818 0.0180501 0)
(0.0370527 -0.0140363 0)
(0.0130784 -0.0233749 0)
(-0.0107722 0.0149161 0)
(-0.0232788 0.00469567 0)
(-0.0219355 -0.00408655 0)
(-0.0165211 -0.00872926 0)
(-0.00933026 -0.0146158 0)
(0.00262337 -0.0205767 0)
(0.0156187 -0.0229096 0)
(0.0287944 -0.0277001 0)
(0.044845 -0.0304125 0)
(0.0603334 -0.029651 0)
(0.0772563 -0.0228994 0)
(0.0816435 -0.0192287 0)
(0.108704 -0.00351055 0)
(0.0895998 0.0228476 0)
(0.0782058 0.0372828 0)
(0.0459093 0.0463068 0)
(0.0440758 0.0451645 0)
(0.0415272 0.0439662 0)
(0.0613307 0.0277125 0)
(0.0606022 0.0294271 0)
(0.069745 0.0230257 0)
(0.0696344 0.0336802 0)
(0.0919963 0.0296241 0)
(0.109985 0.0237683 0)
(0.119759 0.0262802 0)
(0.121418 0.0368728 0)
(0.094166 0.0464996 0)
(0.0891955 0.0225043 0)
(0.0620404 0.00700647 0)
(0.0178574 0.0197129 0)
(-0.0111334 0.0161052 0)
(-0.0239933 0.00504627 0)
(-0.022484 -0.00439663 0)
(-0.0169985 -0.00926596 0)
(-0.00992416 -0.0155771 0)
(0.00217475 -0.0219957 0)
(0.015183 -0.02436 0)
(0.0283437 -0.029795 0)
(0.0448033 -0.0328744 0)
(0.0611188 -0.0321038 0)
(0.0768179 -0.0252619 0)
(0.0881259 -0.0230709 0)
(0.108794 -0.0023549 0)
(0.0761781 0.0280173 0)
(0.0856771 0.0405694 0)
(0.0441026 0.0590864 0)
(0.0439507 0.045788 0)
(0.0727766 0.0254521 0)
(0.0657082 0.0381305 0)
(0.0574759 0.0415609 0)
(0.0538969 0.0496576 0)
(0.0267156 0.0433307 0)
(0.0140171 0.0217091 0)
(0.0189287 0.0259712 0)
(0.0437349 0.0391581 0)
(0.0621688 0.0540753 0)
(0.0619112 0.0522849 0)
(0.0478332 0.0470824 0)
(0.0193642 0.0559695 0)
(0.00397139 0.0643401 0)
(-0.0115235 0.0173332 0)
(-0.0247631 0.00540126 0)
(-0.0230676 -0.00472054 0)
(-0.0175044 -0.00979473 0)
(-0.0105608 -0.0165406 0)
(0.00170139 -0.0234244 0)
(0.0147066 -0.0257965 0)
(0.0278367 -0.0319483 0)
(0.0447422 -0.0354212 0)
(0.0618361 -0.0343946 0)
(0.0757892 -0.0285869 0)
(0.0956808 -0.0247406 0)
(0.0948231 -0.00198407 0)
(0.0952042 0.0313103 0)
(0.0989587 0.0496064 0)
(0.0664509 0.0512338 0)
(0.0971311 0.0356408 0)
(0.0320122 0.0366439 0)
(0.0446593 0.0292751 0)
(0.0316958 0.0435855 0)
(0.0423542 0.0412877 0)
(0.0742296 0.0617223 0)
(0.0168948 0.0334665 0)
(-0.0540216 0.00211817 0)
(-0.0490167 0.00474173 0)
(-0.0251262 0.0366194 0)
(-0.00510761 0.0632354 0)
(-0.0151543 0.0646552 0)
(-0.0157268 0.0647914 0)
(-0.00583003 0.0607325 0)
(-0.0119437 0.018603 0)
(-0.0255904 0.00576063 0)
(-0.0236862 -0.00506029 0)
(-0.0180382 -0.0103139 0)
(-0.011241 -0.0175078 0)
(0.00120425 -0.0248616 0)
(0.0141867 -0.0272186 0)
(0.0272677 -0.0341686 0)
(0.0447025 -0.0380257 0)
(0.0620407 -0.0365973 0)
(0.075378 -0.0321467 0)
(0.0944839 -0.0257716 0)
(0.0968316 -0.00464007 0)
(0.119607 0.0247492 0)
(0.108327 0.0517345 0)
(0.0338659 0.0612981 0)
(0.0200617 0.0536273 0)
(-0.00672013 0.0494147 0)
(-0.0186016 0.0359285 0)
(0.0634663 0.0250178 0)
(0.0582997 0.0197093 0)
(0.0968304 0.0501781 0)
(0.104373 0.0814121 0)
(0.0244622 0.0624805 0)
(-0.015945 0.0229767 0)
(-0.0430602 0.0117204 0)
(-0.0327956 0.0526941 0)
(-0.0351523 0.0617579 0)
(-0.022888 0.0457725 0)
(-0.00903348 0.0339051 0)
(-0.0123952 0.0199178 0)
(-0.0264774 0.0061244 0)
(-0.0243394 -0.0054175 0)
(-0.0185995 -0.0108224 0)
(-0.0119656 -0.0184809 0)
(0.000684518 -0.0263052 0)
(0.0136198 -0.0286249 0)
(0.0266324 -0.0364673 0)
(0.0447076 -0.0406394 0)
(0.0609265 -0.0387467 0)
(0.0728074 -0.0351773 0)
(0.0883665 -0.0297662 0)
(0.114853 -0.0101094 0)
(0.122397 0.0335974 0)
(0.0913642 0.0704769 0)
(0.0408118 0.078022 0)
(0.0244297 0.0453276 0)
(0.0845822 0.043472 0)
(0.073277 0.0129719 0)
(-0.0235018 0.0241246 0)
(0.0428265 0.0309193 0)
(0.0175831 0.0500859 0)
(0.0994282 0.0898115 0)
(0.080966 0.0968356 0)
(0.065265 0.0593706 0)
(0.017419 0.0367176 0)
(-0.016175 0.0533066 0)
(-0.0203021 0.0589311 0)
(-0.0109058 0.0337001 0)
(-0.00527595 0.018255 0)
(-0.0128795 0.0212801 0)
(-0.0274265 0.00649218 0)
(-0.025027 -0.00579359 0)
(-0.0191878 -0.0113194 0)
(-0.0127352 -0.019461 0)
(0.000143369 -0.0277549 0)
(0.0130015 -0.0300136 0)
(0.0259315 -0.038856 0)
(0.0445017 -0.0431657 0)
(0.055937 -0.0405051 0)
(0.0635462 -0.0381822 0)
(0.0895741 -0.0375482 0)
(0.100687 -0.0209834 0)
(0.0578497 0.023678 0)
(0.0574738 0.0779546 0)
(0.0712506 0.0722381 0)
(0.0379349 0.0368881 0)
(0.107144 0.0529138 0)
(-0.0139822 0.0625712 0)
(-0.0810161 0.0123893 0)
(0.068906 -0.00562232 0)
(0.0256165 0.0250779 0)
(0.0113352 0.0455318 0)
(0.0715501 0.0900833 0)
(0.0587152 0.0737183 0)
(0.0166181 0.073268 0)
(-0.00155123 0.0774233 0)
(0.000653591 0.0595767 0)
(0.00573982 0.0313073 0)
(0.00163107 0.0172637 0)
(-0.0133968 0.0226965 0)
(-0.0284403 0.0068654 0)
(-0.0257486 -0.00618975 0)
(-0.0198026 -0.0118041 0)
(-0.0135506 -0.0204498 0)
(-0.000417738 -0.0292086 0)
(0.0123251 -0.0313825 0)
(0.0251639 -0.0413192 0)
(0.0422743 -0.0451527 0)
(0.042133 -0.0410003 0)
(0.0503817 -0.0417194 0)
(0.0907247 -0.0373358 0)
(-0.158612 0.00840973 0)
(-0.313664 0.0668044 0)
(-0.0734056 0.0684109 0)
(0.0307954 0.0816286 0)
(-0.109535 0.030467 0)
(-0.0355561 0.0580819 0)
(0.0177421 0.102314 0)
(0.0183126 -0.00844212 0)
(-0.00484771 -0.020015 0)
(0.083245 0.0749764 0)
(-0.0267951 0.0501804 0)
(-0.0121664 0.0766213 0)
(0.00235735 0.0927071 0)
(-0.00894157 0.0846163 0)
(0.00464111 0.0751458 0)
(0.0127805 0.0546219 0)
(0.0175803 0.0342432 0)
(0.00728275 0.0266772 0)
(-0.0139635 0.0241584 0)
(-0.0295216 0.00723475 0)
(-0.0265038 -0.00660704 0)
(-0.0204438 -0.0122753 0)
(-0.0144122 -0.0214473 0)
(-0.000997854 -0.0306639 0)
(0.0115716 -0.032727 0)
(0.0241257 -0.0435996 0)
(0.031635 -0.0451501 0)
(0.0182912 -0.0399196 0)
(0.0572999 -0.046675 0)
(0.0507541 0.015088 0)
(-0.323576 0.0652683 0)
(-0.316492 -0.00965625 0)
(-0.193646 -0.0116812 0)
(-0.078407 0.0933879 0)
(-0.0757302 0.0460962 0)
(-0.103735 0.0107041 0)
(0.0268119 0.0613935 0)
(-0.0517868 0.0155553 0)
(-0.0264242 -0.0613171 0)
(0.0980691 0.072453 0)
(0.0164922 0.0916862 0)
(-0.0429772 0.0773485 0)
(-0.0432053 0.0793304 0)
(-0.0280212 0.0676926 0)
(-0.0143852 0.0562744 0)
(0.00347329 0.0418746 0)
(0.0125303 0.0393499 0)
(0.0054646 0.0423282 0)
(-0.0144454 0.0257102 0)
(-0.0306739 0.00764876 0)
(-0.0272918 -0.00704945 0)
(-0.0211108 -0.0127329 0)
(-0.0153206 -0.0224582 0)
(-0.00160159 -0.0321162 0)
(0.0106649 -0.0340296 0)
(0.0211363 -0.044468 0)
(-0.00132482 -0.0423043 0)
(0.00781939 -0.0432913 0)
(0.167288 -0.0518223 0)
(-0.0816902 0.020427 0)
(0.611992 0.0764613 0)
(-0.218029 0.034383 0)
(-0.223065 0.010497 0)
(-0.0892009 0.0503206 0)
(-0.0546508 0.0377759 0)
(-0.129481 0.0197612 0)
(-0.0561642 0.0664615 0)
(-0.0391894 0.00861153 0)
(-0.0536128 -0.0989079 0)
(0.0761309 0.0663567 0)
(0.0606656 0.139275 0)
(-0.00456184 0.106818 0)
(-0.0280435 0.0827868 0)
(-0.0402705 0.0616869 0)
(-0.0312109 0.0396579 0)
(-0.0130209 0.0243047 0)
(-4.80584e-05 0.0367723 0)
(0.00137801 0.0490054 0)
(-0.0158662 0.0272302 0)
(-0.0318933 0.00782318 0)
(-0.028114 -0.00750625 0)
(-0.0218036 -0.0131704 0)
(-0.0162773 -0.0234866 0)
(-0.00227418 -0.0335528 0)
(0.00920684 -0.0350712 0)
(0.00922888 -0.0419782 0)
(-0.039877 -0.044956 0)
(0.143438 -0.0847112 0)
(0.548961 -0.0349292 0)
(0.185052 -0.084815 0)
(0.287284 0.170595 0)
(-0.510886 0.114576 0)
(-0.279151 -0.0820218 0)
(-0.15773 0.0275681 0)
(-0.0931223 0.0492819 0)
(-0.126683 0.0256078 0)
(-0.129551 0.0380841 0)
(-0.00711923 -0.00443095 0)
(-0.0551267 -0.116493 0)
(0.0627853 0.00711009 0)
(0.0710267 0.124219 0)
(0.0260927 0.125209 0)
(-0.0177838 0.102627 0)
(-0.0424706 0.0660693 0)
(-0.0295031 0.0277159 0)
(-0.0203756 0.0083257 0)
(-0.00885834 0.0247841 0)
(-0.000207418 0.0438279 0)
(-0.0120097 0.0290717 0)
(-0.0332453 0.00912247 0)
(-0.0289572 -0.00804946 0)
(-0.0225223 -0.0135935 0)
(-0.0172918 -0.0245326 0)
(-0.00328117 -0.0349234 0)
(0.00502354 -0.0345965 0)
(-0.0331767 -0.0368872 0)
(-0.0304504 -0.0639217 0)
(0.348074 -0.176913 0)
(1.01177 -0.000598934 0)
(0.15479 0.0557283 0)
(-0.222252 0.247769 0)
(-0.515618 0.317696 0)
(-0.412609 -0.0437731 0)
(-0.188815 -0.00694297 0)
(-0.134531 0.0401368 0)
(-0.130887 0.0270705 0)
(-0.12999 0.0188929 0)
(-0.0530926 -0.0285371 0)
(-0.0526515 -0.116919 0)
(-0.0141004 -0.000236184 0)
(0.0285833 0.166059 0)
(-0.00306137 0.164432 0)
(-0.0203737 0.130343 0)
(-0.0276902 0.07286 0)
(-0.016179 0.0239318 0)
(-0.0177766 0.0020012 0)
(-0.0113085 0.0136168 0)
(-0.0022692 0.0325315 0)
(-0.0330297 0.0303823 0)
(-0.034258 0.00702038 0)
(-0.0298892 -0.00842818 0)
(-0.0232681 -0.013983 0)
(-0.018434 -0.0255352 0)
(-0.00589157 -0.0360429 0)
(-0.00777906 -0.0309151 0)
(-0.0756777 -0.0429229 0)
(0.323458 -0.113877 0)
(0.986373 -0.178596 0)
(0.711795 0.0597871 0)
(0.121712 0.131579 0)
(-0.289097 0.281359 0)
(-0.652356 0.166501 0)
(-0.502288 -0.195904 0)
(-0.298786 -0.0924687 0)
(-0.165069 0.0160181 0)
(-0.152817 0.0252168 0)
(-0.131708 0.0112195 0)
(-0.110545 -0.0555072 0)
(-0.0934497 -0.150838 0)
(-0.0737036 -0.0382458 0)
(0.00701062 0.161247 0)
(-0.022399 0.160117 0)
(-0.0145495 0.130291 0)
(-0.00909163 0.0723102 0)
(-0.00816053 0.0235165 0)
(-0.0139914 0.00264058 0)
(-0.0112595 0.00802649 0)
(-0.00312404 0.0210162 0)
(0.0334627 0.0328944 0)
(-0.0371776 0.0117212 0)
(-0.0306568 -0.00930969 0)
(-0.0240775 -0.0143399 0)
(-0.0201559 -0.0264513 0)
(-0.0152777 -0.0359322 0)
(-0.0447702 -0.0273605 0)
(0.00471238 -0.0765897 0)
(0.0876311 -0.211715 0)
(0.309054 -0.207017 0)
(0.378685 0.0838047 0)
(0.155517 0.219241 0)
(-0.289667 0.346445 0)
(-0.52715 0.233374 0)
(0.24013 -0.0663662 0)
(-0.464774 -0.088625 0)
(-0.218485 -0.00919121 0)
(-0.14928 0.0162017 0)
(-0.144391 0.00532611 0)
(-0.13054 -0.0664996 0)
(-0.14197 -0.146952 0)
(-0.15496 -0.0672057 0)
(0.00159962 0.129084 0)
(-0.0369253 0.150201 0)
(-0.0121318 0.12577 0)
(-0.00517077 0.0656052 0)
(-0.0155999 0.0275086 0)
(-0.0137622 0.00351218 0)
(-0.0115377 0.00254272 0)
(-0.00183729 0.00832886 0)
(-0.127421 0.0332862 0)
(-0.0279246 0.00752026 0)
(-0.0322697 -0.00934894 0)
(-0.0251047 -0.0146685 0)
(-0.0251158 -0.0264678 0)
(-0.0449184 -0.0322726 0)
(-0.101039 -0.032105 0)
(0.345046 -0.0686313 0)
(0.438781 -0.212839 0)
(0.0784657 -0.225442 0)
(0.0108907 0.1144 0)
(0.259356 0.276821 0)
(-0.251718 0.399535 0)
(-0.297797 0.191677 0)
(-0.418548 -0.118527 0)
(-1.30079 0.0459635 0)
(-0.246616 -0.106619 0)
(-0.180616 -0.00882364 0)
(-0.126228 0.00555796 0)
(-0.12468 -0.0578031 0)
(-0.17397 -0.143924 0)
(-0.203897 -0.107237 0)
(-0.0400019 0.116136 0)
(-0.0878446 0.153444 0)
(-0.022798 0.115884 0)
(-0.0284078 0.0703546 0)
(-0.0203115 0.0318088 0)
(-0.0141651 -0.000442229 0)
(-0.0100079 -0.00577194 0)
(-0.00264196 -0.00420409 0)
(0.0952119 0.0382423 0)
(-0.0368029 0.00866574 0)
(-0.0309518 -0.00985962 0)
(-0.0275648 -0.0143769 0)
(-0.0459899 -0.0233611 0)
(-0.129174 -0.0291477 0)
(0.0463431 -0.0793645 0)
(0.242822 -0.173277 0)
(0.471418 -0.15515 0)
(0.262486 -0.137877 0)
(-0.243609 0.0880368 0)
(0.432124 0.285351 0)
(-0.165274 0.44651 0)
(0.0101988 0.2193 0)
(-0.0221583 -0.0302099 0)
(-0.172766 0.0881195 0)
(-0.220461 -0.480181 0)
(-0.227745 -0.0439091 0)
(-0.155576 -0.0161043 0)
(-0.113682 -0.0302891 0)
(-0.159166 -0.12627 0)
(-0.226407 -0.115415 0)
(-0.118164 0.100647 0)
(-0.124504 0.130012 0)
(-0.0578284 0.0883064 0)
(-0.049549 0.0629986 0)
(-0.0197107 0.0152657 0)
(-0.00734818 -0.00389744 0)
(-0.00903862 -0.0109689 0)
(-0.00349745 -0.0154675 0)
(-0.011172 0.00975264 0)
(-0.0110017 -0.00787931 0)
(-0.0129216 0.00214008 0)
(-0.0215678 -7.13467e-05 0)
(-0.00853068 -0.00712964 0)
(0.0103738 -0.00629931 0)
(0.0333262 -0.00996052 0)
(0.0543064 -0.00895142 0)
(0.079374 0.00334999 0)
(0.051834 0.00763282 0)
(0.0300799 -0.000609342 0)
(0.0288567 -0.00033074 0)
(0.00863202 0.00317609 0)
(0.00238115 0.00221261 0)
(-0.0270034 0.00272809 0)
(-0.028211 0.00143999 0)
(-0.0391738 0.00187431 0)
(-0.054788 0.000583313 0)
(-0.0462309 0.000581994 0)
(-0.0534619 9.98367e-06 0)
(-0.0456445 -9.93784e-05 0)
(-0.0405558 -0.000317113 0)
(-0.0320468 -0.000370293 0)
(-0.0233152 -0.000387706 0)
(-0.0139948 -0.000401995 0)
(-0.00502759 -0.000333977 0)
(0.00211375 -0.000259596 0)
(0.00755054 -0.000176135 0)
(0.00999487 -2.64887e-05 0)
(0.00497303 0.000192212 0)
(0.00402346 0.0238092 0)
(0.00862779 0.000849975 0)
(-0.000594464 0.0134902 0)
(0.00475045 -0.00291254 0)
(0.022792 -0.0245747 0)
(0.038578 -0.0276586 0)
(0.0711035 -0.0232136 0)
(0.0757668 -0.0243683 0)
(0.0825864 0.0032805 0)
(0.0769786 0.0162529 0)
(0.0419582 0.0107943 0)
(0.00229592 0.010049 0)
(-0.0174467 0.00807927 0)
(-0.0284352 0.0104673 0)
(-0.063886 0.0065521 0)
(-0.0535668 0.00146622 0)
(-0.0627233 0.00625671 0)
(-0.0810808 -0.000309738 0)
(-0.0604847 0.000314893 0)
(-0.0691066 -0.000859338 0)
(-0.054859 -0.00158462 0)
(-0.0461073 -0.00191846 0)
(-0.0334515 -0.00196241 0)
(-0.0211487 -0.00182468 0)
(-0.00889086 -0.00168159 0)
(0.00215138 -0.00129007 0)
(0.0101985 -0.00088499 0)
(0.0155644 -0.000488868 0)
(0.0165586 0.000164225 0)
(0.00761503 0.000886754 0)
(0.00737097 -0.00183076 0)
(0.0198339 -0.000179217 0)
(0.0191252 0.00544894 0)
(0.035087 -0.0157241 0)
(0.0624355 -0.0372286 0)
(0.066585 -0.0424361 0)
(0.0965539 -0.0366285 0)
(0.0861159 -0.0180548 0)
(0.0801232 0.00783915 0)
(0.0628566 0.0264983 0)
(0.0206645 0.0291306 0)
(-0.0165195 0.0231518 0)
(-0.0272966 0.0140961 0)
(-0.0449489 0.01806 0)
(-0.069567 0.00987161 0)
(-0.0675623 0.000471538 0)
(-0.0596406 0.0100738 0)
(-0.0861484 -0.00148088 0)
(-0.0598767 -0.000505341 0)
(-0.0693599 -0.00178473 0)
(-0.0541763 -0.00331703 0)
(-0.0448245 -0.00366085 0)
(-0.0316524 -0.00366408 0)
(-0.0189617 -0.0033215 0)
(-0.00647058 -0.00297533 0)
(0.00463308 -0.00222775 0)
(0.0125102 -0.00144956 0)
(0.0175414 -0.000726542 0)
(0.0180319 0.000460362 0)
(0.00818687 0.00178935 0)
(0.00191147 -0.022745 0)
(0.0223081 -0.00835184 0)
(0.0307587 -0.00932593 0)
(0.0582715 -0.0331891 0)
(0.0796358 -0.0536015 0)
(0.0871239 -0.0571118 0)
(0.0971795 -0.0416013 0)
(0.0833964 -0.0121537 0)
(0.0660984 0.0229815 0)
(0.0372456 0.0419569 0)
(-0.00698234 0.0470174 0)
(-0.0343647 0.030027 0)
(-0.0337734 0.0179785 0)
(-0.0535102 0.0256863 0)
(-0.0675929 0.0125207 0)
(-0.0855719 -0.0017425 0)
(-0.0467801 0.0124638 0)
(-0.0916952 -0.00150264 0)
(-0.0583709 -0.0018537 0)
(-0.0696221 -0.00260797 0)
(-0.0540854 -0.00511025 0)
(-0.0445296 -0.00544585 0)
(-0.0312281 -0.0053992 0)
(-0.0184577 -0.00484265 0)
(-0.00591771 -0.00428894 0)
(0.00520479 -0.00317821 0)
(0.013029 -0.00201841 0)
(0.0179902 -0.000963402 0)
(0.0184012 0.000768985 0)
(0.00834265 0.00270382 0)
(0.00317648 -0.0322441 0)
(0.0237876 -0.0299827 0)
(0.0399921 -0.0351207 0)
(0.0688215 -0.0564937 0)
(0.0838626 -0.0659139 0)
(0.0794452 -0.0599911 0)
(0.0708998 -0.0399166 0)
(0.0560709 -0.00123026 0)
(0.0310332 0.0378446 0)
(0.00284001 0.0586887 0)
(-0.0332594 0.0582881 0)
(-0.0388412 0.0337387 0)
(-0.0391285 0.0213133 0)
(-0.0605373 0.0318309 0)
(-0.0522882 0.0168231 0)
(-0.103097 -0.00463096 0)
(-0.0318004 0.0125647 0)
(-0.0960908 0.00040517 0)
(-0.0577651 -0.00383524 0)
(-0.0700554 -0.00328162 0)
(-0.0543412 -0.00694747 0)
(-0.0445479 -0.00725025 0)
(-0.0311474 -0.00714448 0)
(-0.0183262 -0.00636552 0)
(-0.00574784 -0.00560563 0)
(0.00540635 -0.00412935 0)
(0.0132123 -0.00258485 0)
(0.0181756 -0.00119839 0)
(0.018598 0.00108133 0)
(0.00843669 0.00362703 0)
(0.00708569 -0.0556929 0)
(0.026151 -0.0542133 0)
(0.0442664 -0.0638551 0)
(0.0594423 -0.0727103 0)
(0.0516878 -0.0664688 0)
(0.0391814 -0.0467852 0)
(0.0171039 -0.0191 0)
(0.00382176 0.0214141 0)
(-0.00802579 0.0505569 0)
(-0.0323291 0.0733828 0)
(-0.0425138 0.0678165 0)
(-0.042381 0.0362024 0)
(-0.0389948 0.0253128 0)
(-0.0714364 0.0333788 0)
(-0.0263296 0.0227718 0)
(-0.112131 -0.00516048 0)
(-0.0255943 0.0110025 0)
(-0.0977142 0.00363545 0)
(-0.0588666 -0.0061601 0)
(-0.0702966 -0.0039427 0)
(-0.0547229 -0.00881501 0)
(-0.044588 -0.00908485 0)
(-0.0310868 -0.00890246 0)
(-0.0182204 -0.00789072 0)
(-0.00560776 -0.00692702 0)
(0.00558037 -0.00508327 0)
(0.0133669 -0.00315122 0)
(0.0183465 -0.00143558 0)
(0.0188003 0.00139524 0)
(0.00853689 0.00455915 0)
(0.00200967 -0.0766551 0)
(0.015432 -0.0794712 0)
(0.0195125 -0.0793768 0)
(0.0143526 -0.0648307 0)
(-0.00756067 -0.0472103 0)
(-0.0100297 -0.0333327 0)
(-0.018817 -0.0154431 0)
(-0.02233 0.0206553 0)
(-0.0394645 0.0678553 0)
(-0.0595872 0.0793739 0)
(-0.0566286 0.0624205 0)
(-0.0435356 0.0324605 0)
(-0.0385253 0.030426 0)
(-0.0755576 0.0312653 0)
(-0.0104324 0.0269976 0)
(-0.114094 -0.00227773 0)
(-0.0329781 0.00863972 0)
(-0.0961879 0.00709325 0)
(-0.0620944 -0.00854784 0)
(-0.0702471 -0.00475473 0)
(-0.0552238 -0.0106876 0)
(-0.0446256 -0.0109585 0)
(-0.0310082 -0.0106735 0)
(-0.0180929 -0.00941628 0)
(-0.00544399 -0.00825517 0)
(0.00578271 -0.00603677 0)
(0.0135443 -0.00371697 0)
(0.018545 -0.00167542 0)
(0.0190392 0.00171097 0)
(0.00865575 0.00550262 0)
(-0.00215459 -0.0740033 0)
(-0.00822769 -0.0767547 0)
(-0.0220058 -0.0578846 0)
(-0.0317264 -0.0438413 0)
(-0.0381584 -0.0461848 0)
(-0.0288071 -0.0420296 0)
(-0.0457688 -0.0112709 0)
(-0.0492786 0.0324487 0)
(-0.0724608 0.0680772 0)
(-0.0761041 0.0811952 0)
(-0.0604443 0.0560513 0)
(-0.0250439 0.0304748 0)
(-0.0404916 0.0339742 0)
(-0.0558538 0.0272151 0)
(-0.0241801 0.0325158 0)
(-0.103158 0.00190977 0)
(-0.0573728 0.00636388 0)
(-0.088245 0.00931957 0)
(-0.0672148 -0.0101829 0)
(-0.0699521 -0.00596445 0)
(-0.0558145 -0.0125316 0)
(-0.0446638 -0.0128821 0)
(-0.0309079 -0.0124599 0)
(-0.0179393 -0.0109419 0)
(-0.00525046 -0.00959179 0)
(0.00602129 -0.00698872 0)
(0.0137518 -0.00428178 0)
(0.0187772 -0.00191849 0)
(0.0193203 0.00202892 0)
(0.00879574 0.00645963 0)
(-0.00686178 -0.0540503 0)
(-0.0276837 -0.0504644 0)
(-0.0332873 -0.0448867 0)
(-0.0373151 -0.041043 0)
(-0.058768 -0.0440332 0)
(-0.0665603 -0.029917 0)
(-0.0813852 -0.00290639 0)
(-0.0714138 0.0483835 0)
(-0.0844121 0.0824348 0)
(-0.0820234 0.0741391 0)
(-0.0522849 0.0375955 0)
(-0.032481 0.0283552 0)
(-0.0497366 0.0405058 0)
(-0.0385312 0.0263332 0)
(-0.0481469 0.0381082 0)
(-0.0785186 0.00623436 0)
(-0.0815207 0.0066654 0)