/*--------------------------------*- C++ -*----------------------------------*\
| =========                 |                                                 |
| \\      /  F ield         | OpenFOAM: The Open Source CFD Toolbox           |
|  \\    /   O peration     | Version:  2.4.0                                 |
|   \\  /    A nd           | Web:      www.OpenFOAM.org                      |
|    \\/     M anipulation  |                                                 |
\*---------------------------------------------------------------------------*/
FoamFile
{
    version     2.0;
    format      ascii;
    class       surfaceScalarField;
    location    "0.146";
    object      phi;
}
// * * * * * * * * * * * * * * * * * * * * * * * * * * * * * * * * * * * * * //

dimensions      [0 3 -1 0 0 0 0];

internalField   nonuniform List<scalar> 
19800
(
5.33543e-13
-5.33545e-13
1.84443e-12
-1.31358e-12
3.47964e-12
-1.63557e-12
5.10553e-12
-1.62742e-12
6.53255e-12
-1.42917e-12
7.6664e-12
-1.13561e-12
8.48266e-12
-8.17319e-13
9.00901e-12
-5.27099e-13
9.29315e-12
-2.85159e-13
9.41034e-12
-1.1881e-13
9.43786e-12
-2.96289e-14
9.45273e-12
-1.69497e-14
9.52596e-12
-7.46655e-14
9.71855e-12
-1.93062e-13
1.00853e-11
-3.66399e-13
1.06604e-11
-5.7431e-13
1.14766e-11
-8.15366e-13
1.25541e-11
-1.07696e-12
1.39065e-11
-1.35179e-12
1.55414e-11
-1.63432e-12
1.74627e-11
-1.92049e-12
1.96703e-11
-2.20685e-12
2.21597e-11
-2.4888e-12
2.49187e-11
-2.75861e-12
2.79225e-11
-3.00351e-12
3.11278e-11
-3.20478e-12
3.44669e-11
-3.33826e-12
3.78448e-11
-3.37699e-12
4.11417e-11
-3.29595e-12
4.42208e-11
-3.07821e-12
4.69421e-11
-2.72053e-12
4.91767e-11
-2.23406e-12
5.08176e-11
-1.6403e-12
5.17815e-11
-9.634e-13
5.20056e-11
-2.23681e-13
5.14439e-11
5.622e-13
5.00506e-11
1.39396e-12
4.77927e-11
2.25888e-12
4.46372e-11
3.15675e-12
4.05581e-11
4.08049e-12
3.55398e-11
5.01962e-12
2.95817e-11
5.95927e-12
2.27022e-11
6.88026e-12
1.49428e-11
7.75988e-12
6.36986e-12
8.5732e-12
-2.92461e-12
9.29458e-12
-1.28239e-11
9.89939e-12
-2.31891e-11
1.03654e-11
-3.38624e-11
1.06739e-11
1.08105e-11
-4.4672e-11
1.25133e-12
-1.78752e-12
3.81492e-12
-3.88424e-12
6.8429e-12
-4.66748e-12
9.77955e-12
-4.56639e-12
1.22635e-11
-3.91494e-12
1.41085e-11
-2.98234e-12
1.52706e-11
-1.98126e-12
1.58109e-11
-1.06972e-12
1.58607e-11
-3.3789e-13
1.55919e-11
1.46423e-13
1.51932e-11
3.65814e-13
1.48535e-11
3.20596e-13
1.47481e-11
3.00566e-14
1.50303e-11
-4.74504e-13
1.58245e-11
-1.15938e-12
1.72352e-11
-1.98387e-12
1.9334e-11
-2.91326e-12
2.21724e-11
-3.91459e-12
2.57828e-11
-4.96129e-12
3.01833e-11
-6.03365e-12
3.53814e-11
-7.11731e-12
4.13754e-11
-8.19975e-12
4.81522e-11
-9.26484e-12
5.56804e-11
-1.02861e-11
6.38983e-11
-1.12204e-11
7.26998e-11
-1.2005e-11
8.19215e-11
-1.25584e-11
9.13352e-11
-1.27891e-11
1.00652e-10
-1.26112e-11
1.0954e-10
-1.19648e-11
1.17655e-10
-1.08352e-11
1.24677e-10
-9.25487e-12
1.30329e-10
-7.29101e-12
1.34386e-10
-5.01994e-12
1.3667e-10
-2.50675e-12
1.37029e-10
2.04272e-13
1.35335e-10
3.08922e-12
1.31467e-10
6.12947e-12
1.25317e-10
9.30879e-12
1.16798e-10
1.26009e-11
1.05854e-10
1.59653e-11
9.24691e-11
1.93455e-11
7.66806e-11
2.26695e-11
5.85882e-11
2.58527e-11
3.83588e-11
2.88029e-11
1.6228e-11
3.14257e-11
-7.50238e-12
3.36303e-11
-3.24711e-11
3.53352e-11
-5.82684e-11
3.64727e-11
3.69924e-11
-8.44484e-11
1.58748e-12
-3.37536e-12
4.64423e-12
-6.94368e-12
8.07345e-12
-8.09913e-12
1.12129e-11
-7.70759e-12
1.36438e-11
-6.3471e-12
1.5155e-11
-4.49493e-12
1.57115e-11
-2.5395e-12
1.54097e-11
-7.70179e-13
1.44489e-11
6.20085e-13
1.30767e-11
1.51585e-12
1.15716e-11
1.86873e-12
1.02121e-11
1.67898e-12
9.25994e-12
9.8209e-13
8.94872e-12
-1.6281e-13
9.47306e-12
-1.68325e-12
1.09911e-11
-3.50176e-12
1.362e-11
-5.54228e-12
1.74421e-11
-7.73651e-12
2.25095e-11
-1.00282e-11
2.88517e-11
-1.23749e-11
3.6481e-11
-1.47456e-11
4.53957e-11
-1.71135e-11
5.55776e-11
-1.94461e-11
6.69827e-11
-2.16906e-11
7.95241e-11
-2.37613e-11
9.30512e-11
-2.55314e-11
1.07329e-10
-2.68354e-11
1.22025e-10
-2.74839e-11
1.3671e-10
-2.72961e-11
1.50889e-10
-2.61427e-11
1.64043e-10
-2.39885e-11
1.75687e-10
-2.08987e-11
1.85407e-10
-1.70103e-11
1.92864e-10
-1.24774e-11
1.97786e-10
-7.42815e-12
1.99936e-10
-1.94579e-12
1.99102e-10
3.92405e-12
1.95083e-10
1.01495e-11
1.87695e-10
1.66972e-11
1.76786e-10
2.35104e-11
1.6225e-10
3.05024e-11
1.44044e-10
3.75513e-11
1.22212e-10
4.45027e-11
9.68887e-11
5.11759e-11
6.83178e-11
5.7374e-11
3.68478e-11
6.28959e-11
2.9304e-12
6.75483e-11
-3.28913e-11
7.11579e-11
-6.99985e-11
7.3581e-11
7.4712e-11
-1.07717e-10
1.6193e-12
-4.99558e-12
4.58195e-12
-9.90626e-12
7.68626e-12
-1.1204e-11
1.02287e-11
-1.02509e-11
1.17892e-11
-7.90878e-12
1.21752e-11
-4.88242e-12
1.13866e-11
-1.7528e-12
9.57107e-12
1.04329e-12
6.98433e-12
3.20471e-12
3.94737e-12
4.55102e-12
8.13073e-13
5.00188e-12
-2.06296e-12
4.55455e-12
-4.34466e-12
3.26376e-12
-5.73118e-12
1.22369e-12
-5.96725e-12
-1.44748e-12
-4.84866e-12
-4.62094e-12
-2.22223e-12
-8.16926e-12
2.01781e-12
-1.19767e-11
7.93694e-12
-1.59468e-11
1.55698e-11
-2.00067e-11
2.49297e-11
-2.41043e-11
3.60157e-11
-2.81986e-11
4.88116e-11
-3.22414e-11
6.32749e-11
-3.61538e-11
7.9316e-11
-3.98023e-11
9.67678e-11
-4.29831e-11
1.15354e-10
-4.54214e-11
1.34665e-10
-4.67941e-11
1.54152e-10
-4.67821e-11
1.73158e-10
-4.51491e-11
1.90998e-10
-4.18286e-11
2.07034e-10
-3.69351e-11
2.20736e-10
-3.07126e-11
2.31684e-10
-2.34263e-11
2.39541e-10
-1.52847e-11
2.44005e-10
-6.4105e-12
2.44791e-10
3.13805e-12
2.41616e-10
1.33241e-11
2.34215e-10
2.40982e-11
2.22357e-10
3.53689e-11
2.05871e-10
4.69888e-11
1.84672e-10
5.87498e-11
1.58789e-10
7.03868e-11
1.28375e-10
8.15901e-11
9.37275e-11
9.20217e-11
5.5287e-11
1.01337e-10
1.36318e-11
1.09204e-10
-3.05367e-11
1.15327e-10
-7.64156e-11
1.1946e-10
1.21425e-10
-1.23128e-10
1.44444e-12
-6.44066e-12
3.8739e-12
-1.23345e-11
6.09927e-12
-1.3429e-11
7.43433e-12
-1.15865e-11
7.49649e-12
-7.97217e-12
6.13888e-12
-3.52637e-12
3.41915e-12
9.65348e-13
-4.5801e-13
4.91903e-12
-5.1733e-12
7.91887e-12
-1.03379e-11
9.71482e-12
-1.55294e-11
1.01931e-11
-2.03234e-11
9.34837e-12
-2.43176e-11
7.25789e-12
-2.71514e-11
4.05728e-12
-2.8519e-11
-8.04425e-14
-2.81771e-11
-4.96353e-12
-2.59468e-11
-1.04e-11
-2.17097e-11
-1.62135e-11
-1.53988e-11
-2.22568e-11
-6.98393e-12
-2.84202e-11
3.5434e-12
-3.46302e-11
1.61821e-11
-4.08363e-11
3.09247e-11
-4.69836e-11
4.77479e-11
-5.29771e-11
6.65867e-11
-5.86414e-11
8.72932e-11
-6.36896e-11
1.09586e-10
-6.7714e-11
1.33005e-10
-7.02127e-11
1.56888e-10
-7.06653e-11
1.80406e-10
-6.8667e-11
2.02681e-10
-6.41036e-11
2.22916e-10
-5.7171e-11
2.40487e-10
-4.8284e-11
2.5493e-10
-3.78702e-11
2.65881e-10
-2.62363e-11
2.73001e-10
-1.35312e-11
2.75939e-10
1.99859e-13
2.74326e-10
1.49365e-11
2.67801e-10
3.06236e-11
2.56036e-10
4.7134e-11
2.38777e-10
6.42484e-11
2.15876e-10
8.16516e-11
1.87324e-10
9.89394e-11
1.53276e-10
1.15638e-10
1.14068e-10
1.31231e-10
7.0216e-11
1.45189e-10
2.24145e-11
1.57006e-10
-2.84874e-11
1.66229e-10
-8.15124e-11
1.72485e-10
1.75503e-10
-1.35591e-10
1.13988e-12
-7.58026e-12
2.73038e-12
-1.39237e-11
3.67294e-12
-1.43711e-11
3.34644e-12
-1.12606e-11
1.43439e-12
-6.06131e-12
-2.13563e-12
4.2422e-14
-7.24613e-12
6.07494e-12
-1.36186e-11
1.1291e-11
-2.08669e-11
1.51669e-11
-2.85338e-11
1.73817e-11
-3.61294e-11
1.77887e-11
-4.31626e-11
1.63818e-11
-4.91691e-11
1.32645e-11
-5.37327e-11
8.62089e-12
-5.65022e-11
2.68887e-12
-5.7202e-11
-4.26397e-12
-5.56371e-11
-1.19648e-11
-5.16884e-11
-2.01614e-11
-4.53012e-11
-2.86425e-11
-3.64655e-11
-3.72541e-11
-2.5191e-11
-4.59031e-11
-1.14848e-11
-5.45416e-11
4.66204e-12
-6.31302e-11
2.32657e-11
-7.1581e-11
4.43182e-11
-7.96941e-11
6.77334e-11
-8.71047e-11
9.32724e-11
-9.32527e-11
1.20461e-10
-9.74008e-11
1.48525e-10
-9.87296e-11
1.76414e-10
-9.65568e-11
2.03007e-10
-9.06968e-11
2.2732e-10
-8.14834e-11
2.48656e-10
-6.96206e-11
2.66565e-10
-5.57795e-11
2.80711e-10
-4.03826e-11
2.90747e-10
-2.35667e-11
2.96258e-10
-5.31143e-12
2.96779e-10
1.44163e-11
2.91828e-10
3.55754e-11
2.80958e-10
5.80047e-11
2.63804e-10
8.14027e-11
2.40132e-10
1.05325e-10
2.09874e-10
1.29198e-10
1.73168e-10
1.52344e-10
1.30375e-10
1.74024e-10
8.20832e-11
1.93481e-10
2.9097e-11
2.09992e-10
-2.75841e-11
2.2291e-10
-8.68044e-11
2.31705e-10
2.35994e-10
-1.47296e-10
7.5994e-13
-8.33927e-12
1.31072e-12
-1.44736e-11
6.90873e-13
-1.37513e-11
-1.62148e-12
-8.94901e-12
-5.85299e-12
-1.8307e-12
-1.19934e-11
6.18224e-12
-1.98421e-11
1.39236e-11
-2.90471e-11
2.04962e-11
-3.91487e-11
2.52686e-11
-4.96187e-11
2.78519e-11
-5.98974e-11
2.80677e-11
-6.94265e-11
2.59114e-11
-7.76784e-11
2.15171e-11
-8.41815e-11
1.51245e-11
-8.85405e-11
7.04807e-12
-9.04514e-11
-2.35286e-12
-8.97107e-11
-1.2705e-11
-8.62118e-11
-2.36591e-11
-7.99309e-11
-3.49216e-11
-7.08986e-11
-4.62844e-11
-5.91624e-11
-5.76378e-11
-4.47474e-11
-6.89559e-11
-2.76297e-11
-8.02478e-11
-7.73528e-12
-9.14755e-11
1.50254e-11
-1.02455e-10
4.06853e-11
-1.12764e-10
6.91143e-11
-1.21681e-10
9.98806e-11
-1.28167e-10
1.32104e-10
-1.30952e-10
1.6442e-10
-1.28873e-10
1.95362e-10
-1.21638e-10
2.23698e-10
-1.09818e-10
2.48705e-10
-9.46271e-11
2.70034e-10
-7.71086e-11
2.87462e-10
-5.78097e-11
3.00664e-10
-3.67681e-11
3.09156e-10
-1.38021e-11
3.12343e-10
1.12304e-11
3.09593e-10
3.83263e-11
3.00307e-10
6.72924e-11
2.83977e-10
9.77329e-11
2.60252e-10
1.2905e-10
2.28986e-10
1.60464e-10
1.9028e-10
1.9105e-10
1.4451e-10
2.19794e-10
9.23318e-11
2.45659e-10
3.46693e-11
2.67654e-10
-2.73169e-11
2.84896e-10
-9.22766e-11
2.96665e-10
3.02443e-10
-1.58726e-10
3.34396e-13
-8.6728e-12
-2.77094e-13
-1.38621e-11
-2.64214e-12
-1.13869e-11
-7.16378e-12
-4.42808e-12
-1.39622e-11
4.96741e-12
-2.29322e-11
1.51524e-11
-3.37841e-11
2.47759e-11
-4.60847e-11
3.27972e-11
-5.92967e-11
3.84807e-11
-7.28167e-11
4.13721e-11
-8.60112e-11
4.12628e-11
-9.82504e-11
3.81514e-11
-1.08939e-10
3.22063e-11
-1.17543e-10
2.373e-11
-1.23621e-10
1.31263e-11
-1.2684e-10
8.65709e-13
-1.26991e-10
-1.25529e-11
-1.23995e-10
-2.66541e-11
-1.17879e-10
-4.10354e-11
-1.08744e-10
-5.54176e-11
-9.67053e-11
-6.96754e-11
-8.18296e-11
-8.38311e-11
-6.40848e-11
-9.79924e-11
-4.33248e-11
-1.12235e-10
-1.93238e-11
-1.26455e-10
8.14135e-12
-1.40229e-10
3.91491e-11
-1.52688e-10
7.34157e-11
-1.62433e-10
1.09977e-10
-1.67513e-10
1.46992e-10
-1.65887e-10
1.82465e-10
-1.5711e-10
2.14808e-10
-1.42161e-10
2.43364e-10
-1.23181e-10
2.68041e-10
-1.01785e-10
2.88852e-10
-7.86193e-11
3.05523e-10
-5.34384e-11
3.17459e-10
-2.57369e-11
3.23888e-10
4.80348e-12
3.23978e-10
3.82371e-11
3.16938e-10
7.43331e-11
3.02085e-10
1.12585e-10
2.7892e-10
1.52216e-10
2.47186e-10
1.92198e-10
2.0693e-10
2.31305e-10
1.58534e-10
2.68189e-10
1.02727e-10
3.01466e-10
4.05633e-11
3.29817e-10
-2.66129e-11
3.52072e-10
-9.72291e-11
3.67281e-10
3.74767e-10
-1.69554e-10
-1.14471e-13
-8.55799e-12
-1.96e-12
-1.20172e-11
-6.18741e-12
-7.16023e-12
-1.30675e-11
2.45157e-12
-2.26064e-11
1.45065e-11
-3.45958e-11
2.71423e-11
-4.86531e-11
3.88336e-11
-6.42595e-11
4.84036e-11
-8.07963e-11
5.50173e-11
-9.75806e-11
5.81566e-11
-1.139e-10
5.75829e-11
-1.29046e-10
5.3298e-11
-1.42344e-10
4.55059e-11
-1.53192e-10
3.45782e-11
-1.61088e-10
2.10213e-11
-1.65661e-10
5.43906e-12
-1.66701e-10
-1.15125e-11
-1.64163e-10
-2.91908e-11
-1.58152e-10
-4.70447e-11
-1.48875e-10
-6.4693e-11
-1.3656e-10
-8.19898e-11
-1.21355e-10
-9.90364e-11
-1.03239e-10
-1.16108e-10
-8.19894e-11
-1.33485e-10
-5.72072e-11
-1.51237e-10
-2.84049e-11
-1.6903e-10
4.84104e-12
-1.85933e-10
4.25841e-11
-2.00175e-10
8.38914e-11
-2.08819e-10
1.26119e-10
-2.08113e-10
1.66462e-10
-1.97451e-10
2.02774e-10
-1.78471e-10
2.34661e-10
-1.55067e-10
2.62565e-10
-1.29688e-10
2.86912e-10
-1.02966e-10
3.07474e-10
-7.39992e-11
3.23443e-10
-4.17051e-11
3.33784e-10
-5.53719e-12
3.37415e-10
3.46064e-11
3.33313e-10
7.84357e-11
3.20583e-10
1.25314e-10
2.9854e-10
1.74258e-10
2.66787e-10
2.23949e-10
2.25294e-10
2.72798e-10
1.7444e-10
3.19042e-10
1.15031e-10
3.60875e-10
4.8277e-11
3.96572e-10
-2.42632e-11
4.24612e-10
-1.00754e-10
4.43771e-10
4.53187e-10
-1.79175e-10
-5.65662e-13
-7.99255e-12
-3.69302e-12
-8.8909e-12
-9.85588e-12
-9.98103e-13
-1.91929e-11
1.17884e-11
-3.15928e-11
2.69067e-11
-4.6742e-11
4.22918e-11
-6.41635e-11
5.6255e-11
-8.32511e-11
6.74907e-11
-1.03303e-10
7.50686e-11
-1.23553e-10
7.84068e-11
-1.43203e-10
7.72344e-11
-1.61458e-10
7.15529e-11
-1.77552e-10
6.15999e-11
-1.90793e-10
4.78188e-11
-2.00602e-10
3.08294e-11
-2.06556e-10
1.1393e-11
-2.0843e-10
-9.63819e-12
-2.06219e-10
-3.14003e-11
-2.0013e-10
-5.31321e-11
-1.90524e-10
-7.42981e-11
-1.77802e-10
-9.4711e-11
-1.62254e-10
-1.14585e-10
-1.4391e-10
-1.34451e-10
-1.22474e-10
-1.54919e-10
-9.73633e-11
-1.76347e-10
-6.77665e-11
-1.98626e-10
-3.27591e-11
-2.2094e-10
8.41965e-12
-2.41352e-10
5.51347e-11
-2.55533e-10
1.03362e-10
-2.56338e-10
1.49072e-10
-2.4316e-10
1.8917e-10
-2.18567e-10
2.23986e-10
-1.89882e-10
2.54949e-10
-1.60649e-10
2.83129e-10
-1.31145e-10
3.08223e-10
-9.90937e-11
3.29005e-10
-6.24865e-11
3.44064e-10
-2.05964e-11
3.52018e-10
2.66525e-11
3.51588e-10
7.88647e-11
3.41642e-10
1.3526e-10
3.21268e-10
1.94631e-10
2.8989e-10
2.55328e-10
2.47367e-10
3.15321e-10
1.94069e-10
3.72341e-10
1.30889e-10
4.24054e-10
5.92212e-11
4.6824e-10
-1.91155e-11
5.02949e-10
-1.01969e-10
5.26625e-10
5.3819e-10
-1.86972e-10
-1.02607e-12
-6.96705e-12
-5.45437e-12
-4.46389e-12
-1.35941e-11
7.14091e-12
-2.54511e-11
2.36452e-11
-4.07954e-11
4.22511e-11
-5.92099e-11
6.0706e-11
-8.01244e-11
7.71689e-11
-1.02847e-10
9.02128e-11
-1.26593e-10
9.88144e-11
-1.50512e-10
1.02326e-10
-1.73717e-10
1.00439e-10
-1.9531e-10
9.3146e-11
-2.14421e-10
8.07101e-11
-2.30246e-10
6.3642e-11
-2.42097e-10
4.26804e-11
-2.49469e-10
1.87657e-11
-2.52097e-10
-7.00875e-12
-2.50009e-10
-3.34868e-11
-2.43534e-10
-5.96068e-11
-2.3324e-10
-8.45914e-11
-2.19787e-10
-1.08163e-10
-2.0369e-10
-1.30681e-10
-1.85084e-10
-1.53057e-10
-1.63622e-10
-1.76381e-10
-1.38556e-10
-2.01411e-10
-1.08776e-10
-2.28405e-10
-7.27487e-11
-2.56966e-10
-2.84418e-11
-2.85658e-10
2.4687e-11
-3.0866e-10
7.99023e-11
-3.11552e-10
1.31616e-10
-2.94873e-10
1.74985e-10
-2.61935e-10
2.12058e-10
-2.26955e-10
2.45977e-10
-1.94568e-10
2.78648e-10
-1.63815e-10
3.09309e-10
-1.29755e-10
3.35936e-10
-8.91132e-11
3.56647e-10
-4.13076e-11
3.69761e-10
1.35388e-11
3.73766e-10
7.48593e-11
3.67273e-10
1.41753e-10
3.49103e-10
2.12801e-10
3.18443e-10
2.85987e-10
2.75005e-10
3.58758e-10
2.1913e-10
4.28216e-10
1.51814e-10
4.91369e-10
7.46752e-11
5.45379e-10
-1.01494e-11
5.87773e-10
-1.00123e-10
6.16599e-10
6.30526e-10
-1.92459e-10
-1.48815e-12
-5.47965e-12
-7.22854e-12
1.27506e-12
-1.73688e-11
1.72803e-11
-3.17828e-11
3.80587e-11
-5.01272e-11
6.0595e-11
-7.18852e-11
8.24633e-11
-9.63991e-11
1.01682e-10
-1.22897e-10
1.1671e-10
-1.50514e-10
1.26432e-10
-1.78317e-10
1.3013e-10
-2.05326e-10
1.27448e-10
-2.30535e-10
1.18355e-10
-2.52949e-10
1.03122e-10
-2.71621e-10
8.23135e-11
-2.8572e-10
5.67797e-11
-2.94606e-10
2.76538e-11
-2.97928e-10
-3.68457e-12
-2.95714e-10
-3.56994e-11
-2.88419e-10
-6.69007e-11
-2.76884e-10
-9.61263e-11
-2.62137e-10
-1.2291e-10
-2.45036e-10
-1.47782e-10
-2.25877e-10
-1.72215e-10
-2.04254e-10
-1.98003e-10
-1.79322e-10
-2.26342e-10
-1.49886e-10
-2.57841e-10
-1.13975e-10
-2.92876e-10
-6.74406e-11
-3.32191e-10
-6.62726e-12
-3.69472e-10
5.64011e-11
-3.74579e-10
1.14766e-10
-3.53236e-10
1.60236e-10
-3.07403e-10
1.98688e-10
-2.65407e-10
2.35988e-10
-2.31867e-10
2.74671e-10
-2.02499e-10
3.12529e-10
-1.67614e-10
3.46274e-10
-1.22857e-10
3.7362e-10
-6.86536e-11
3.927e-10
-5.54044e-12
4.01862e-10
6.56976e-11
3.99466e-10
1.44149e-10
3.84005e-10
2.28262e-10
3.54351e-10
3.1564e-10
3.10006e-10
4.03103e-10
2.51256e-10
4.86965e-10
1.79221e-10
5.63403e-10
9.57914e-11
6.28808e-10
3.49996e-12
6.80065e-10
-9.46463e-11
7.14746e-10
7.31231e-10
-1.9535e-10
-1.95069e-12
-3.52984e-12
-9.00525e-12
8.32796e-12
-2.11525e-11
2.94264e-11
-3.81388e-11
5.50441e-11
-5.95133e-11
8.19686e-11
-8.46676e-11
1.07617e-10
-1.12865e-10
1.29879e-10
-1.43262e-10
1.47107e-10
-1.74924e-10
1.58093e-10
-2.06839e-10
1.62046e-10
-2.37937e-10
1.58545e-10
-2.67098e-10
1.47515e-10
-2.93185e-10
1.29209e-10
-3.15082e-10
1.04211e-10
-3.31762e-10
7.34606e-11
-3.42383e-10
3.82766e-11
-3.46425e-10
3.59556e-13
-3.43845e-10
-3.82778e-11
-3.35202e-10
-7.55425e-11
-3.21667e-10
-1.0966e-10
-3.04793e-10
-1.39784e-10
-2.85941e-10
-1.66632e-10
-2.65607e-10
-1.92548e-10
-2.43199e-10
-2.2041e-10
-2.17779e-10
-2.51762e-10
-1.88498e-10
-2.8712e-10
-1.54051e-10
-3.27322e-10
-1.07365e-10
-3.78876e-10
-3.84289e-11
-4.38407e-10
3.2638e-11
-4.45644e-10
9.73455e-11
-4.17941e-10
1.42627e-10
-3.52684e-10
1.82188e-10
-3.04967e-10
2.25184e-10
-2.74863e-10
2.73328e-10
-2.50642e-10
3.2062e-10
-2.14905e-10
3.62761e-10
-1.64996e-10
3.97533e-10
-1.03425e-10
4.2319e-10
-3.1197e-11
4.38096e-10
5.0792e-11
4.40353e-10
1.41892e-10
4.28042e-10
2.40572e-10
3.996e-10
3.44081e-10
3.54216e-10
4.48485e-10
2.92088e-10
5.49092e-10
2.14478e-10
6.41012e-10
1.23621e-10
7.19665e-10
2.25412e-11
7.81145e-10
-8.51744e-11
8.22462e-10
8.41663e-10
-1.95607e-10
-2.41212e-12
-1.11879e-12
-1.07722e-11
1.66863e-11
-2.49148e-11
4.35676e-11
-4.44642e-11
7.45925e-11
-6.88698e-11
1.06373e-10
-9.74422e-11
1.36189e-10
-1.29378e-10
1.61815e-10
-1.63775e-10
1.81504e-10
-1.99641e-10
1.9396e-10
-2.359e-10
1.98305e-10
-2.71397e-10
1.94042e-10
-3.04907e-10
1.81024e-10
-3.35141e-10
1.59444e-10
-3.60788e-10
1.29859e-10
-3.80569e-10
9.32432e-11
-3.93352e-10
5.10615e-11
-3.98328e-10
5.33683e-12
-3.9525e-10
-4.13539e-11
-3.84699e-10
-8.60926e-11
-3.68222e-10
-1.26137e-10
-3.48116e-10
-1.5989e-10
-3.2651e-10
-1.88237e-10
-3.04087e-10
-2.1497e-10
-2.79663e-10
-2.44833e-10
-2.51919e-10
-2.79504e-10
-2.20244e-10
-3.18794e-10
-1.8709e-10
-3.60475e-10
-1.42894e-10
-4.2307e-10
-6.85385e-11
-5.1276e-10
4.92401e-12
-5.19104e-10
7.38427e-11
-4.86858e-10
1.14451e-10
-3.93291e-10
1.59035e-10
-3.49551e-10
2.16019e-10
-3.31846e-10
2.7935e-10
-3.13972e-10
3.37999e-10
-2.73553e-10
3.89165e-10
-2.16162e-10
4.31683e-10
-1.45941e-10
4.64153e-10
-6.36677e-11
4.85088e-10
2.98571e-11
4.92382e-10
1.34597e-10
4.83552e-10
2.494e-10
4.56398e-10
3.71234e-10
4.09652e-10
4.95229e-10
3.43364e-10
6.15379e-10
2.58972e-10
7.25403e-10
1.5915e-10
8.19486e-10
4.75361e-11
8.92759e-10
-7.1564e-11
9.41562e-10
9.63575e-10
-1.93475e-10
-2.8689e-12
1.74894e-12
-1.25117e-11
2.63277e-11
-2.86147e-11
5.96697e-11
-5.06866e-11
9.66637e-11
-7.80869e-11
1.33773e-10
-1.10058e-10
1.6816e-10
-1.45744e-10
1.97502e-10
-1.84201e-10
2.19961e-10
-2.24397e-10
2.34156e-10
-2.6521e-10
2.39119e-10
-3.05425e-10
2.34257e-10
-3.43721e-10
2.19321e-10
-3.78673e-10
1.94396e-10
-4.08758e-10
1.59945e-10
-4.32402e-10
1.16888e-10
-4.48083e-10
6.67439e-11
-4.54537e-10
1.1791e-11
-4.51098e-10
-4.47923e-11
-4.38175e-10
-9.90153e-11
-4.17683e-10
-1.46629e-10
-3.93021e-10
-1.84552e-10
-3.67575e-10
-2.13683e-10
-3.42159e-10
-2.40385e-10
-3.13911e-10
-2.73079e-10
-2.80911e-10
-3.12503e-10
-2.41788e-10
-3.57915e-10
-2.01552e-10
-4.00709e-10
-1.67108e-10
-4.57511e-10
-7.06474e-11
-6.09218e-10
-5.70439e-11
-5.32705e-10
1.96503e-11
-5.63551e-10
6.69061e-11
-4.40546e-10
1.32651e-10
-4.15295e-10
2.20329e-10
-4.19524e-10
3.01671e-10
-3.95312e-10
3.70616e-10
-3.42498e-10
4.30398e-10
-2.75943e-10
4.80462e-10
-1.96006e-10
5.19387e-10
-1.02593e-10
5.46117e-10
3.12568e-12
5.58515e-10
1.22198e-10
5.53319e-10
2.54595e-10
5.27351e-10
3.972e-10
4.78643e-10
5.43935e-10
4.07027e-10
6.86993e-10
3.14176e-10
8.18253e-10
2.03331e-10
9.30331e-10
7.89079e-11
1.01718e-09
-5.39039e-11
1.07437e-09
1.09918e-09
-1.89513e-10
-3.31529e-12
5.06323e-12
-1.41986e-11
3.72104e-11
-3.21967e-11
7.76677e-11
-5.67103e-11
1.21177e-10
-8.70201e-11
1.64083e-10
-1.22314e-10
2.03453e-10
-1.617e-10
2.36888e-10
-2.04212e-10
2.62473e-10
-2.48799e-10
2.78744e-10
-2.94323e-10
2.84642e-10
-3.39533e-10
2.79468e-10
-3.83052e-10
2.62839e-10
-4.23344e-10
2.34688e-10
-4.58698e-10
1.95299e-10
-4.87229e-10
1.4542e-10
-5.06943e-10
8.64571e-11
-5.15923e-10
2.07712e-11
-5.12764e-10
-4.79522e-11
-4.97326e-10
-1.14455e-10
-4.71734e-10
-1.72221e-10
-4.41063e-10
-2.15223e-10
-4.10944e-10
-2.438e-10
-3.82438e-10
-2.6889e-10
-3.48392e-10
-3.07122e-10
-3.05898e-10
-3.54995e-10
-2.55916e-10
-4.07896e-10
-1.91086e-10
-4.65537e-10
-1.64091e-10
-4.84505e-10
-1.40145e-10
-6.33162e-10
-8.82961e-11
-5.84553e-10
-5.48417e-11
-5.97005e-10
1.31316e-11
-5.08519e-10
1.42704e-10
-5.44867e-10
2.52684e-10
-5.29504e-10
3.50129e-10
-4.92758e-10
4.25033e-10
-4.17402e-10
4.93116e-10
-3.44026e-10
5.50148e-10
-2.53038e-10
5.93712e-10
-1.46157e-10
6.25211e-10
-2.83742e-11
6.42404e-10
1.05004e-10
6.40781e-10
2.56217e-10
6.1564e-10
4.2234e-10
5.63984e-10
5.95589e-10
4.85334e-10
7.65642e-10
3.81711e-10
9.21875e-10
2.57116e-10
1.05493e-09
1.16948e-10
1.15735e-09
-3.25254e-11
1.22385e-09
1.25127e-09
-1.84611e-10
-3.74321e-12
8.806e-12
-1.58002e-11
4.9268e-11
-3.55899e-11
9.74581e-11
-6.24141e-11
1.48002e-10
-9.54866e-11
1.97156e-10
-1.33955e-10
2.41922e-10
-1.76908e-10
2.79842e-10
-2.23376e-10
3.08941e-10
-2.72316e-10
3.27684e-10
-3.22597e-10
3.34924e-10
-3.72978e-10
3.29849e-10
-4.22068e-10
3.11928e-10
-4.68282e-10
2.809e-10
-5.09783e-10
2.36798e-10
-5.44425e-10
1.80061e-10
-5.69729e-10
1.11759e-10
-5.82967e-10
3.40081e-11
-5.8157e-10
-4.93506e-11
-5.64187e-10
-1.3184e-10
-5.32603e-10
-2.03806e-10
-4.94427e-10
-2.53399e-10
-4.59593e-10
-2.78632e-10
-4.29698e-10
-2.98784e-10
-3.88555e-10
-3.48264e-10
-3.28458e-10
-4.15091e-10
-2.53519e-10
-4.82833e-10
-1.79083e-10
-5.39972e-10
7.23276e-12
-6.70819e-10
-2.12886e-11
-6.0464e-10
-4.99671e-11
-5.55875e-10
-6.71616e-11
-5.79811e-10
9.78289e-11
-6.73511e-10
2.22573e-10
-6.69613e-10
3.28721e-10
-6.35654e-10
4.21598e-10
-5.85635e-10
5.10797e-10
-5.06602e-10
5.87295e-10
-4.20524e-10
6.47092e-10
-3.12835e-10
6.9268e-10
-1.91745e-10
7.27005e-10
-6.26996e-11
7.48381e-10
8.36284e-11
7.50201e-10
2.54397e-10
7.25264e-10
4.47277e-10
6.69101e-10
6.51751e-10
5.80957e-10
8.53785e-10
4.63401e-10
1.03943e-09
3.21471e-10
1.19686e-09
1.61808e-10
1.31701e-09
-8.01631e-12
1.39367e-09
1.42327e-09
-1.80017e-10
-4.14252e-12
1.29488e-11
-1.72772e-11
6.24042e-11
-3.87099e-11
1.18892e-10
-6.76549e-11
1.76948e-10
-1.03271e-10
2.32772e-10
-1.44678e-10
2.83329e-10
-1.90963e-10
3.26127e-10
-2.41168e-10
3.59146e-10
-2.94279e-10
3.80794e-10
-3.49202e-10
3.89847e-10
-4.0474e-10
3.85385e-10
-4.59543e-10
3.6673e-10
-5.12055e-10
3.3341e-10
-5.60424e-10
2.85165e-10
-6.02388e-10
2.22024e-10
-6.35123e-10
1.44493e-10
-6.55121e-10
5.40042e-11
-6.5829e-10
-4.61841e-11
-6.40958e-10
-1.49174e-10
-6.03241e-10
-2.41524e-10
-5.55951e-10
-3.00688e-10
-5.18167e-10
-3.16415e-10
-4.91099e-10
-3.25851e-10
-4.44118e-10
-3.95245e-10
-3.65681e-10
-4.93527e-10
-2.60449e-10
-5.88065e-10
-1.13721e-10
-6.86699e-10
-1.06393e-12
-7.83476e-10
4.89836e-11
-6.54688e-10
1.60883e-10
-6.67775e-10
2.11047e-10
-6.29977e-10
2.43931e-10
-7.06396e-10
3.37066e-10
-7.6275e-10
4.46325e-10
-7.44914e-10
5.49981e-10
-6.89292e-10
6.47748e-10
-6.04369e-10
7.235e-10
-4.96277e-10
7.80557e-10
-3.6989e-10
8.2299e-10
-2.34178e-10
8.56905e-10
-9.66134e-11
8.81767e-10
5.87667e-11
8.87003e-10
2.49161e-10
8.61318e-10
4.72962e-10
7.98282e-10
7.14786e-10
6.97071e-10
9.54996e-10
5.61268e-10
1.17523e-09
3.97342e-10
1.36078e-09
2.1347e-10
1.50088e-09
1.87438e-11
1.5884e-09
1.61939e-09
-1.77374e-10
-4.50167e-12
1.74515e-11
-1.85857e-11
7.64902e-11
-4.14635e-11
1.41771e-10
-7.22745e-11
2.07759e-10
-1.10134e-10
2.70632e-10
-1.5415e-10
3.27344e-10
-2.03414e-10
3.75392e-10
-2.56997e-10
4.12729e-10
-3.13925e-10
4.37722e-10
-3.7316e-10
4.49081e-10
-4.33569e-10
4.45792e-10
-4.93885e-10
4.27044e-10
-5.52647e-10
3.92171e-10
-6.08122e-10
3.4064e-10
-6.58163e-10
2.72064e-10
-6.99974e-10
1.86303e-10
-7.29746e-10
8.37743e-11
-7.42235e-10
-3.36977e-11
-7.29917e-10
-1.61494e-10
-6.8853e-10
-2.82911e-10
-6.3187e-10
-3.57348e-10
-5.94249e-10
-3.54037e-10
-5.81254e-10
-3.38845e-10
-5.31567e-10
-4.44933e-10
-4.4582e-10
-5.79274e-10
-3.43307e-10
-6.90579e-10
-2.47253e-10
-7.82753e-10
-1.93125e-10
-8.37605e-10
-5.17392e-11
-7.96074e-10
5.65778e-11
-7.76093e-10
2.11349e-10
-7.8475e-10
3.38686e-10
-8.33735e-10
4.53339e-10
-8.77404e-10
5.80213e-10
-8.71788e-10
7.0757e-10
-8.16648e-10
8.18634e-10
-7.15432e-10
9.04094e-10
-5.81736e-10
9.5845e-10
-4.24245e-10
9.91305e-10
-2.67032e-10
1.02093e-09
-1.26242e-10
1.04934e-09
3.036e-11
1.05844e-09
2.40064e-10
1.03044e-09
5.00961e-10
9.56783e-10
7.88443e-10
8.37317e-10
1.07446e-09
6.77413e-10
1.33514e-09
4.85519e-10
1.55267e-09
2.7163e-10
1.71477e-09
4.65048e-11
1.81352e-09
1.84467e-09
-1.78778e-10
-4.8083e-12
2.2261e-11
-1.968e-11
9.13636e-11
-4.37537e-11
1.65846e-10
-7.61096e-11
2.40116e-10
-1.15833e-10
3.10355e-10
-1.62026e-10
3.73537e-10
-2.13801e-10
4.27166e-10
-2.70257e-10
4.69185e-10
-3.30468e-10
4.97931e-10
-3.93447e-10
5.12059e-10
-4.58125e-10
5.10469e-10
-5.23309e-10
4.92228e-10
-5.87648e-10
4.56511e-10
-6.49584e-10
4.02577e-10
-7.07292e-10
3.29772e-10
-7.58527e-10
2.37536e-10
-8.00189e-10
1.25434e-10
-8.28409e-10
-5.47953e-12
-8.34503e-10
-1.554e-10
-7.95205e-10
-3.2221e-10
-7.38916e-10
-4.13637e-10
-6.9712e-10
-3.95833e-10
-7.29287e-10
-3.06679e-10
-6.33343e-10
-5.40878e-10
-5.30914e-10
-6.81703e-10
-4.33761e-10
-7.87733e-10
-3.45714e-10
-8.708e-10
-2.58296e-10
-9.25023e-10
-1.24118e-10
-9.30252e-10
3.75805e-11
-9.37793e-10
2.15246e-10
-9.62417e-10
3.91867e-10
-1.01036e-09
5.59906e-10
-1.04544e-09
7.28626e-10
-1.04051e-09
8.95238e-10
-9.83259e-10
1.03995e-09
-8.60143e-10
1.14227e-09
-6.84053e-10
1.19307e-09
-4.75043e-10
1.20853e-09
-2.82499e-10
1.22791e-09
-1.45619e-10
1.26067e-09
-2.39503e-12
1.27463e-09
2.26102e-10
1.24103e-09
5.34559e-10
1.15057e-09
8.78903e-10
1.00529e-09
1.21974e-09
8.13524e-10
1.5269e-09
5.86278e-10
1.77992e-09
3.35478e-10
1.96557e-09
7.35357e-11
2.07546e-09
2.10503e-09
-1.86823e-10
-5.04991e-12
2.73119e-11
-2.05147e-11
1.0683e-10
-4.5486e-11
1.90817e-10
-7.90021e-11
2.73632e-10
-1.20131e-10
3.51485e-10
-1.67981e-10
4.21388e-10
-2.21687e-10
4.80871e-10
-2.80385e-10
5.27883e-10
-3.43185e-10
5.60731e-10
-4.0914e-10
5.78013e-10
-4.77205e-10
5.78536e-10
-5.46202e-10
5.61227e-10
-6.1478e-10
5.25091e-10
-6.81411e-10
4.69208e-10
-7.44447e-10
3.92808e-10
-8.02328e-10
2.95416e-10
-8.5385e-10
1.76955e-10
-8.96995e-10
3.76644e-11
-9.34988e-10
-1.17407e-10
-9.56642e-10
-3.00556e-10
-9.19773e-10
-4.50507e-10
-9.14116e-10
-4.01491e-10
-8.17086e-10
-4.0371e-10
-6.85673e-10
-6.7229e-10
-5.77077e-10
-7.90299e-10
-4.85935e-10
-8.78874e-10
-3.97632e-10
-9.59102e-10
-2.96003e-10
-1.02665e-09
-1.48443e-10
-1.07781e-09
3.21145e-11
-1.11835e-09
2.37412e-10
-1.16772e-09
4.53351e-10
-1.22629e-09
6.71269e-10
-1.26336e-09
8.90222e-10
-1.25946e-09
1.1073e-09
-1.20034e-09
1.31071e-09
-1.06356e-09
1.44944e-09
-8.22778e-10
1.50531e-09
-5.30915e-10
1.49115e-09
-2.68338e-10
1.49265e-09
-1.47123e-10
1.53029e-09
-4.00289e-11
1.54843e-09
2.07958e-10
1.50188e-09
5.81105e-10
1.38486e-09
9.95926e-10
1.20312e-09
1.40148e-09
9.69791e-10
1.76023e-09
6.98702e-10
2.05101e-09
4.0337e-10
2.2609e-09
9.75194e-11
2.38131e-09
2.40713e-09
-2.04578e-10
-5.21424e-12
3.25269e-11
-2.10478e-11
1.22664e-10
-4.65733e-11
2.16344e-10
-8.08078e-11
3.07867e-10
-1.22817e-10
3.93494e-10
-1.71725e-10
4.70297e-10
-2.26699e-10
5.35845e-10
-2.86912e-10
5.88096e-10
-3.51509e-10
6.25328e-10
-4.19562e-10
6.46067e-10
-4.90011e-10
6.48986e-10
-5.6159e-10
6.32808e-10
-6.3274e-10
5.96241e-10
-7.01509e-10
5.37978e-10
-7.65473e-10
4.56771e-10
-8.21703e-10
3.51645e-10
-8.67208e-10
2.2246e-10
-8.98594e-10
6.90508e-11
-9.03451e-10
-1.12551e-10
-9.0907e-10
-2.94938e-10
-8.85283e-10
-4.74295e-10
-9.1709e-10
-3.69684e-10
-7.09532e-10
-6.11269e-10
-6.34736e-10
-7.47086e-10
-5.67424e-10
-8.57609e-10
-5.03468e-10
-9.42828e-10
-4.26886e-10
-1.03568e-09
-3.14477e-10
-1.13906e-09
-1.60298e-10
-1.23199e-09
3.98131e-11
-1.31846e-09
2.71106e-10
-1.39901e-09
5.26771e-10
-1.48196e-09
7.9164e-10
-1.52823e-09
1.06377e-09
-1.53159e-09
1.3446e-09
-1.48116e-09
1.62183e-09
-1.34079e-09
1.84921e-09
-1.05016e-09
1.92939e-09
-6.11092e-10
1.86374e-09
-2.02688e-10
1.83806e-09
-1.21441e-10
1.87601e-09
-7.79881e-11
1.8866e-09
1.97369e-10
1.81898e-09
6.48724e-10
1.66074e-09
1.15417e-09
1.42859e-09
1.63363e-09
1.14312e-09
2.0457e-09
8.19795e-10
2.37434e-09
4.72501e-10
2.6082e-09
1.15579e-10
2.73824e-09
2.75809e-09
-2.35383e-10
-5.28974e-12
3.78172e-11
-2.12416e-11
1.38617e-10
-4.69395e-11
2.42042e-10
-8.14016e-11
3.4233e-10
-1.23708e-10
4.35801e-10
-1.73016e-10
5.19604e-10
-2.28532e-10
5.91362e-10
-2.8948e-10
6.49044e-10
-3.55052e-10
6.90901e-10
-4.24353e-10
7.15369e-10
-4.96316e-10
7.20951e-10
-5.6959e-10
7.06084e-10
-6.42373e-10
6.69025e-10
-7.1218e-10
6.07785e-10
-7.75526e-10
5.20117e-10
-8.27425e-10
4.03544e-10
-8.60098e-10
2.55133e-10
-8.64908e-10
7.38608e-11
-8.38125e-10
-1.39335e-10
-6.78051e-10
-4.55013e-10
-6.46107e-10
-5.0624e-10
-5.55254e-10
-4.60536e-10
-5.79692e-10
-5.8683e-10
-5.68334e-10
-7.58442e-10
-5.5572e-10
-8.70222e-10
-5.28515e-10
-9.7003e-10
-4.70276e-10
-1.09392e-09
-3.56742e-10
-1.25259e-09
-1.78304e-10
-1.41043e-09
5.02683e-11
-1.54703e-09
3.08931e-10
-1.65767e-09
6.04088e-10
-1.77712e-09
9.11182e-10
-1.83532e-09
1.22996e-09
-1.85037e-09
1.57033e-09
-1.82154e-09
1.94249e-09
-1.71295e-09
2.29726e-09
-1.40493e-09
2.54419e-09
-8.5803e-10
2.4343e-09
-9.27963e-11
2.28096e-09
3.1897e-11
2.28573e-09
-8.27579e-11
2.29811e-09
1.84995e-10
2.19932e-09
7.47507e-10
1.96761e-09
1.38588e-09
1.67025e-09
1.93099e-09
1.32485e-09
2.3911e-09
9.4372e-10
2.75547e-09
5.38928e-10
3.01299e-09
1.24619e-10
3.15254e-09
3.16504e-09
-2.8234e-10
-5.26585e-12
4.30838e-11
-2.1064e-11
1.54416e-10
-4.65202e-11
2.67499e-10
-8.06788e-11
3.76489e-10
-1.22654e-10
4.77776e-10
-1.71651e-10
5.68601e-10
-2.26937e-10
6.46648e-10
-2.87808e-10
7.09916e-10
-3.53537e-10
7.5663e-10
-4.23313e-10
7.85146e-10
-4.96157e-10
7.93795e-10
-5.70789e-10
7.80716e-10
-6.45437e-10
7.43673e-10
-7.17544e-10
6.79891e-10
-7.83352e-10
5.85925e-10
-8.37452e-10
4.57643e-10
-8.72871e-10
2.90552e-10
-8.77386e-10
7.83762e-11
-8.41541e-10
-1.75181e-10
-8.18982e-10
-4.77572e-10
-8.47764e-10
-4.77458e-10
-7.29016e-10
-5.79284e-10
-6.48295e-10
-6.6755e-10
-6.22339e-10
-7.84396e-10
-6.14821e-10