/*--------------------------------*- C++ -*----------------------------------*\
| =========                 |                                                 |
| \\      /  F ield         | OpenFOAM: The Open Source CFD Toolbox           |
|  \\    /   O peration     | Version:  2.4.0                                 |
|   \\  /    A nd           | Web:      www.OpenFOAM.org                      |
|    \\/     M anipulation  |                                                 |
\*---------------------------------------------------------------------------*/
FoamFile
{
    version     2.0;
    format      ascii;
    class       volScalarField;
    location    "0.106";
    object      p;
}
// * * * * * * * * * * * * * * * * * * * * * * * * * * * * * * * * * * * * * //

dimensions      [1 -1 -2 0 0 0 0];

internalField   nonuniform List<scalar> 
3600
(
105.61
106.064
105.202
103.127
100.189
96.6849
92.7559
88.9586
85.4309
82.2007
80.1267
78.3791
78.7831
79.1922
81.4701
84.0605
86.1672
88.4566
90.3681
91.9731
91.3067
90.0702
91.129
91.6773
91.8948
91.7126
91.2563
91.7355
92.5376
93.8668
102.354
102.811
101.948
99.8732
96.9313
93.4271
89.4917
85.6923
82.1582
78.9171
76.8327
75.0732
75.442
75.8541
78.1225
80.7572
82.8858
85.181
87.172
88.8821
87.5035
86.2979
86.8661
87.3919
87.736
87.7368
87.428
88.1295
89.4248
90.1895
99.0953
99.5607
98.7025
96.6275
93.6821
90.1718
86.2266
82.4231
78.8752
75.6145
73.5048
71.7275
72.0372
72.428
74.6839
77.3866
79.4872
81.8079
83.809
85.5128
84.0228
82.1354
82.3533
83.0878
83.7289
84.0172
84.1633
85.5572
87.5491
88.0504
95.8351
96.3155
95.4646
93.3903
90.4396
86.9222
82.961
79.151
75.5818
72.2921
70.1431
68.3382
68.5915
68.9467
71.126
73.9287
75.9852
78.3409
80.2341
81.9049
80.3073
77.8707
77.4365
78.2624
79.4126
80.4129
81.3026
82.5306
84.9115
85.4607
92.5736
93.075
92.2347
90.1618
87.2037
83.6782
79.6946
75.8762
72.2779
68.9496
66.7465
64.8991
65.1181
65.4282
67.528
70.3569
72.4437
74.852
76.5588
77.9418
76.4697
73.6637
72.0813
73.2781
75.1199
76.8304
78.3864
79.8284
80.7162
81.1751
89.3104
89.8392
89.0129
86.9419
83.9746
80.4399
76.4274
72.599
68.9637
65.5869
63.3145
61.4006
61.5831
61.872
63.9802
66.7166
68.9131
71.3844
72.9629
73.8739
72.6541
69.8436
68.0466
69.4114
71.5764
73.4831
75.2238
76.8415
77.7757
78.1116
86.0457
86.6081
85.7991
83.7308
80.7523
77.2073
73.1594
69.3197
65.6394
62.2044
59.8476
57.8396
57.9645
58.2397
60.5242
63.0675
65.3966
67.9515
69.4077
70.4662
69.6644
67.0687
65.317
66.2873
68.5327
70.5006
72.047
73.434
74.5361
74.9925
82.7791
83.3817
82.5936
80.5287
77.5368
73.9805
69.8904
66.0389
62.3055
58.8026
56.3466
54.233
54.264
54.5045
57.0195
59.4306
61.8732
64.5225
65.884
67.1239
66.6615
64.9316
63.2575
63.9125
66.2114
68.0724
69.522
70.7586
71.7664
72.2139
79.5105
80.1598
79.3962
77.3356
74.3283
70.7594
66.6202
62.7571
58.9622
55.3816
52.8126
50.599
50.4894
50.6858
53.3018
55.7293
58.2977
61.1419
62.5497
63.8765
63.7706
62.8138
61.6845
62.0002
64.3661
66.38
67.8454
68.8283
69.6659
70.1313
76.2397
76.9426
76.2071
74.1516
71.1269
67.5441
63.3487
59.4752
55.6099
51.9411
49.2471
46.9236
46.6303
46.7879
49.4007
52.0643
54.7779
57.833
59.4036
60.6869
61.1022
60.7106
60.4754
61.2572
62.912
64.4092
65.7956
66.7985
67.3321
67.5444
72.9664
73.7299
73.0264
70.9769
67.9326
64.3344
60.0758
56.1941
52.249
48.4813
45.6513
43.1858
42.6684
42.7839
45.401
48.5083
51.3764
54.54
56.2654
57.5787
58.4763
58.7337
59.2059
60.0285
61.3034
62.3647
63.2841
64.3488
64.8323
64.9255
69.6905
70.5218
69.854
67.8118
64.7455
61.1304
56.801
52.9151
48.8797
45.0024
42.0265
39.3849
38.6352
38.6558
41.2993
44.8925
48.0146
51.2317
53.222
54.6516
55.7123
56.6128
57.6011
58.4514
59.1498
59.8838
60.3798
61.8508
63.0574
63.1823
66.4114
67.3181
66.6902
64.6564
61.5659
57.9319
53.5241
49.6395
45.5022
41.5047
38.374
35.534
34.4882
34.3847
37.1001
41.1417
44.6596
48.004
50.2749
52.0772
53.2184
54.3014
55.2914
56.0998
56.5531
57.5114
58.8495
59.3332
59.8685
59.9786
63.129
64.1189
63.535
61.5109
58.394
54.7388
50.2447
46.3688
42.1168
37.9879
34.6985
31.6337
30.2263
29.9458
32.746
37.3114
41.3037
44.8957
47.1965
48.9695
50.3433
51.7031
53.2539
54.1384
53.8643
53.7785
54.3392
55.1188
55.9918
56.8909
59.8428
60.924
60.3885
58.3756
55.23
51.5507
46.9627
43.1048
38.7231
34.4518
31.0055
27.6749
25.7991
25.3096
28.2147
33.4878
37.9826
41.7772
44.7295
46.7511
48.0687
49.1686
50.2254
50.5129
50.8511
51.6091
51.8256
52.1989
53.6859
55.4179
56.5524
57.7334
57.2509
55.2509
52.0742
48.3675
43.6778
39.8489
35.3204
30.8972
27.3048
23.6355
21.2823
20.4208
23.6017
29.6345
34.735
38.707
41.702
44.2472
45.7326
46.8353
47.66
47.2821
47.13
47.9501
49.3739
50.9743
52.6545
53.5882
53.2574
54.547
54.1221
52.1369
48.9271
45.1888
40.3903
36.6026
31.9074
27.3264
23.6025
19.5272
16.7073
15.2439
18.7598
25.9088
31.6651
35.57
39.0416
41.7195
43.4131
44.5055
45.5316
44.1292
43.5502
44.4672
46.4662
48.2309
49.2864
49.7451
49.9571
51.3648
51.0025
49.0342
45.7892
42.0142
37.1006
33.3671
28.4824
23.7412
19.9086
15.4025
11.95
9.81207
13.5761
21.9014
28.7319
32.4389
36.2176
39.6816
41.0973
41.8944
42.6968
41.6131
41.2569
42.5563
43.9007
45.1386
45.9217
46.3536
46.651
48.1865
47.8921
45.9429
42.661
38.8433
33.8094
30.1434
25.0427
20.1422
16.2381
11.2536
6.94387
3.62216
7.84385
17.9419
25.8554
29.3079
33.4288
37.2358
38.1545
37.8688
38.0463
38.1748
39.4703
41.5821
42.0085
42.1693
42.6583
43.0728
43.3386
45.0122
44.791
42.8636
39.5431
35.6758
30.5173
26.933
21.5847
16.5315
12.6077
7.0302
1.62861
-2.69904
1.41382
14.3241
23.0394
25.7834
31.9609
36.5989
36.2565
34.4668
34.3919
35.2358
37.4102
39.4328
39.7741
39.4002
39.5726
39.9443
40.0191
41.8417
41.6994
39.7966
36.4363
32.511
27.225
23.7376
18.1035
12.9168
9.04419
2.75944
-3.51698
-6.39583
2.05406
12.2419
20.6101
25.198
27.1242
32.9113
34.4894
31.7736
31.8488
32.5772
35.079
36.6344
36.912
36.8429
37.041
37.4297
36.6917
38.6748
38.6173
36.7425
33.3414
29.3488
23.9326
20.5602
14.6004
9.31579
5.59316
0.0249533
-2.88747
-5.00658
-3.10847
9.44126
20.4651
21.444
23.9249
33.0779
33.0366
27.2296
28.9718
29.8754
31.8469
33.643
34.3292
34.6267
34.7877
35.0914
33.3557
35.5114
35.545
33.7018
30.2595
26.1891
20.6396
17.4051
11.0941
5.72492
2.15482
1.33923
-0.159325
-2.29467
-3.76519
7.63632
17.5912
17.2196
23.3009
31.7697
28.7359
23.0252
24.7493
27.1166
28.7974
30.4602
31.6837
32.2043
32.3589
32.5838
30.0104
32.3515
32.4825
30.675
27.1916
23.0329
17.3437
14.279
7.57889
1.94195
-0.396893
0.467392
-0.289648
-0.14794
-1.44924
5.0567
15.8438
14.823
22.5564
29.5923
21.2444
19.5319
19.5498
23.3875
25.8073
27.4337
28.7348
29.5601
29.9653
30.2151
26.654
29.1935
29.43
27.6627
24.1385
19.8823
14.0409
11.1712
3.88037
-0.424834
0.013133
0.0566038
0.0395852
0.0951878
-0.367482
-1.022
10.1793
13.2915
17.5577
23.0569
16.8435
12.136
11.5491
18.2582
22.3905
24.3306
25.8596
27.1751
27.872
28.1217
23.2872
26.0491
26.3873
24.6655
21.1014
16.7137
10.7544
7.98619
-0.741095
-0.45174
0.0271126
0.0853059
0.0626644
-0.0572777
-0.438118
-2.59068
4.3716
10.7422
14.7348
19.3518
13.6429
7.13571
2.9971
14.7481
19.4775
22.086
24.0256
25.4092
26.1698
26.4067
19.9073
22.8489
23.3556
21.6841
18.0811
13.5301
7.4404
4.37017
-1.62927
-0.274062
-0.009937
0.0893349
0.048763
-0.129518
-0.240588
-0.89443
-1.1219
7.71654
11.2072
14.707
9.55806
1.06419
-2.22431
12.9397
18.2267
21.6821
23.5194
24.4351
24.8813
25.0586
16.5068
19.8246
20.3322
18.719
15.0775
10.337
4.00586
0.0478186
-0.118618
-0.209481
-0.0313201
0.0604962
0.0184224
-0.187567
-0.176445
0.0254409
-0.67601
2.11141
6.97247
8.64189
3.7933
-6.63791
-6.46573
9.96401
17.7506
21.9974
23.3642
23.6719
23.8586
23.9315
13.1366
16.4985
17.3249
15.771
12.0888
7.10698
-0.534963
-0.964967
-0.102118
-0.167102
-0.0598048
0.030043
-0.018565
-0.178643
-0.0235827
-0.0687062
-0.284093
-0.464254
3.04441
2.85546
0.304775
-9.01951
-5.09211
8.65879
17.7362
21.8631
22.977
22.871
22.8375
22.9025
9.61373
13.5094
14.3211
12.8393
9.09935
4.00826
-2.80814
-0.205768
-0.1151
-0.150312
-0.0792904
0.00247915
-0.0493599
-0.158513
-0.165973
-0.0209665
0.00333582
-0.102991
-1.28416
-2.8401
-1.47575
-4.54527
1.64986
11.1655
18.677
21.2722
22.4913
21.989
21.8995
21.8456
93.8427
93.2259
92.2307
91.6244
92.0001
92.1502
91.887
91.3748
90.3245
91.5609
92.266
90.7192
88.8584
86.6444
84.5778
82.0158
79.7334
79.2609
78.6973
80.3123
82.3077
85.4728
88.9806
92.7687
96.6925
100.188
103.109
105.172
106.027
105.575
90.2397
89.657
88.3284
87.627
87.9719
87.9752
87.6074
87.1038
86.563
87.7813
89.1693
87.5203
85.5881
83.3571
81.2751
78.6707
76.3988
75.9237
75.39
77.0174
79.0228
82.1995
85.714
89.5044
93.4347
96.931
99.8555
101.918
102.773
102.318
88.0864
87.7606
85.7491
84.36
84.2303
83.9538
83.3135
82.608
82.3974
84.2932
85.792
84.1563
82.2145
79.9539
77.9054
75.2378
72.98
72.5268
72.042
73.6877
75.7175
78.9153
82.4442
86.2393
90.18
93.6815
96.6097
98.6725
99.5232
99.0597
85.4989
85.0337
82.7005
81.4937
80.6124
79.623
78.4993
77.694
78.1123
80.546
82.2042
80.5722
78.7425
76.4477
74.4486
71.6885
69.5097
69.0922
68.6488
70.323
72.391
75.6202
79.1713
82.9735
86.931
90.4387
93.3723
95.4345
96.278
95.7996
81.2012
80.8069
79.9541
78.5506
77.0072
75.313
73.5101
72.3393
73.8863
76.721
78.2563
76.8947
75.247
72.9025
70.8795
68.1068
66.005
65.6323
65.2043
66.9221
69.043
72.314
75.8953
79.7069
83.6876
87.2026
90.1436
92.2045
93.0374
92.538
78.1273
77.8297
76.9484
75.3746
73.6362
71.7556
69.638
68.3045
70.065
72.8803
74.1654
73.296
71.7707
69.3677
67.2429
64.5821
62.4652
62.1144
61.6992
63.4844
65.6734
68.9969
72.6167
76.4396
80.4499
83.9734
86.9235
88.9825
89.8014
89.2749
75.0152
74.5986
73.5414
72.2036
70.6605
68.7068
66.5163
65.5613
67.3062
69.912
70.7579
69.7346
68.325
65.8453
63.5963
61.1538
58.8533
58.5166
58.1309
60.0101
62.2824
65.6692
69.3357
73.1713
77.218
80.751
83.7121
85.7686
86.5701
86.0101
72.2376
71.8312
70.8688
69.6758
68.2509
66.4036
64.1593
63.5154
65.1772
66.9165
67.4096
66.2036
64.8818
62.3156
59.9592
57.6674
55.1413
54.8425
54.517
56.4998
58.8706
62.3314
66.053
69.9021
73.9919
77.5355
80.5096
82.5628
83.3434
82.7436
70.1555
69.7349
68.9434
67.9972
66.5429
64.5602
62.2247
61.9192
63.0446
64.0203
64.1701
62.8607
61.4877
58.7372
56.257
53.9739
51.3588
51.0992
50.8751
52.9539
55.4379
58.9837
62.7691
66.6317
70.7717
74.327
77.316
79.3652
80.1213
79.475
67.5624
67.3823
66.8793
65.8787
64.5142
63.0869
61.5104
60.7362
60.9663
61.3493
60.9772
59.721
58.17
55.1981
52.6004
50.1046
47.508
47.2732
47.1905
49.3735
51.9841
55.6267
59.4849
63.36
67.5573
71.1256
74.1316
76.1758
76.9038
76.2042
64.9002
64.8097
64.2969
63.2499
62.4693
61.4572
60.2244
59.4206
58.9729
58.7189
57.8669
56.5884
54.8658
51.7713
49.0442
46.1455
43.5618
43.3401
43.4442
45.7588
48.5091
52.2606
56.2014
60.0868
64.3488
67.9314
70.9564
72.9947
73.6908
72.931
63.2273
62.9269
61.5785
60.3707
60.0512
59.3195
58.6221
57.8151
56.8553
55.9965
54.9662
53.5484
51.5432
48.365
45.415
42.0878
39.5064
39.3367
39.6369
42.11
45.0132
48.886
52.9198
56.8119
61.146
64.7445
67.7906
69.822
70.4823
69.6551
59.968
59.8816
59.292
58.8588
57.6469
56.7994
56.3923
55.5271
54.4975
53.4181
52.3467
50.5955
48.2865
44.9655
41.612
37.9445
35.3269
35.2296
35.7809
38.4273
41.4967
45.503
49.6414
53.5349
57.9489
61.565
64.6345
66.6579
67.2783
66.3761
56.8412
55.8915
55.0857
54.446
53.9831
54.0797
54.3526
53.4383
51.941
50.6802
49.3448
47.5971
45.1393
41.5136
37.7418
33.6462
31.0132
30.9972
31.8771
34.7134
37.9595
42.112
46.368
50.2556
54.7572
58.3933
61.4883
63.5023
64.0786
63.0938
55.3425
53.658
52.3868
52.1225
51.7756
51.0546
50.9713
50.5815
49.4316
48.2231
46.9367
45.0227
41.9772
38.1045
33.8429
29.2058
26.5329
26.5942
27.921
30.9716
34.4017
38.7128
43.1011
46.9736
51.5708
55.2296
58.3521
60.3554
60.8833
59.8077
53.5117
52.46
50.8133
49.3349
47.8804
47.3168
48.0665
48.1402
46.9316
45.7996
44.3548
42.1437
38.8626
34.6777
29.9794
24.6585
21.8543
22.0953
23.8993
27.2082
30.8243
35.305
39.8425
43.6891
48.3895
52.0742
55.2263
57.2173
57.6922
56.5174
49.7318
49.2334
48.1438
46.3619
44.4319
43.9058
45.3218
46.0737
44.5396
43.4338
41.9248
39.5212
35.8294
31.4266
26.1022
19.9252
16.9657
17.5462
19.8232
23.4251
27.2297
31.8874
36.5934
40.4021
45.2128
48.9275
52.1112
54.0882
54.5053
53.2225
46.3507
45.9094
45.1081
43.829
42.5986
41.7758
42.6186
43.0727
41.6307
40.7589
39.6791
37.0615
32.7292
28.0327
21.8636
14.7608
11.852
12.8049
15.7267
19.6297
23.6204
28.4586
33.3553
37.1131
42.0405
45.7899
49.0071
50.9681
51.3224
49.9224
43.0944
42.7206
42.2473
42.042
41.5004
39.6081
38.8884
38.7536
37.9907
38.8601
37.6865
33.6559
29.4894
24.9328
17.7844
9.31715
6.07061
7.79076
11.6087
15.8364
19.9973
25.0164
30.1291
33.8228
38.872
42.6622
45.9144
47.8572
48.1436
46.6165
39.9803
39.6829
39.5542
40.0044
39.7003
37.5954
35.838
35.6748
34.8386
35.1135
34.8984
31.4618
26.4069
21.8111
13.5524
2.80733
0.556675
2.45858
7.4655
12.0564
16.3618
21.5576
26.9162
30.5321
35.707
39.5449
42.8334
44.7557
44.9686
43.3043
37.4769
37.1696
37.029
37.2216
37.1199
35.4347
32.8025
32.0804
30.8705
34.739
34.0098
27.6489
23.6697
18.163
10.3738
0.581657
-6.1087
-2.91547
3.31101
8.30204
12.7221
18.0784
23.7184
27.2416
32.545
36.4388
39.7645
41.6636
41.7974
39.985
35.1505
34.938
34.8437
34.6513
34.3991
32.6449
30.2882
30.0629
28.8547
38.2684
33.0236
26.1061
21.1374
16.5596
7.72426
0.769463
-4.18033
-2.29113
0.0721911
4.60975
9.1063
14.5805
20.5384
23.9515
29.3858
33.3447
36.7083
38.5812
38.6297
36.658
32.654
32.5276
32.5343
32.2891
31.3806
29.7816
28.1298
25.7304
31.6215
29.3639
28.9506
22.687
18.3048
13.7718
4.29398
0.80319
-1.82495
-0.246007
-0.0832874
1.30656
5.51872
11.0841
17.3805
20.6613
26.2292
30.2638
33.6651
35.5086
35.4655
33.3223
30.2543
30.1153
29.9832
29.5395
28.5386
27.1871
24.8832
18.7012
23.0003
26.1339
27.0622
20.3176
15.5134
11.8173
-0.148948
-0.992771
-0.226172
0.241936
0.078721
-0.0570185
1.71405
7.5841
14.2511
17.3688
23.0763
27.1969
30.6355
32.4458
32.3048
29.9773
28.1691
27.9584
27.5668
26.5769
25.2268
23.5022
19.6822
8.68341
12.0578
23.3763
23.4428
18.5727
13.9605
7.42913
-3.25074
-1.32855
0.0558406
0.232402
0.0567204
-0.073949
-0.632637
3.87389
11.1419
14.0696
19.9297
24.1452
27.62
29.3931
29.1459
26.6214
26.4448
26.129
25.525
24.174
22.2145
19.5186
15.13
1.74795
4.23212
20.3451
20.7576
15.645
11.5325
3.32098
-1.75925
-0.268084
-0.0396893
0.176609
0.0255385
-0.0693549
-0.440507
-0.779947
7.95855
10.7877
16.7651
21.1097
24.6192
26.3504
26.0005
23.2551
25.0616
24.7269
24.1579
23.0617
21.0279
17.4076
14.06
-2.72274
-2.14287
15.3815
18.221
13.35
9.558
-5.97807
-1.00149
-0.169692
-0.086841
0.114381
-0.0081623
-0.0922188
-0.12181
-1.6575
4.33274
7.47938
13.5856
18.0913
21.6337
23.3189
22.7993
19.8758
23.9047
23.5977
23.2108
22.6436
21.263
17.7741
11.1418
-6.17397
-7.29533
9.82498
13.5377
9.59868
4.64258
-3.09968
-0.231276
-0.159611
-0.10716
0.0655463
-0.0275109
-0.0902611
-0.0805041
-0.0789297
0.0230939
4.04916
10.3966
15.0901
18.6637
20.2957
19.7736
16.476
22.8184
22.6038
22.4012
22.2181
21.4142
18.1905
10.294
-5.05167
-9.78387
4.96205
8.52031
5.8119
-3.05181
-0.445661
-0.0504634
-0.162307
-0.109355
0.0336708
-0.0472301
-0.093944
-0.065744
-0.0778317
-1.00079
-0.495867
7.17007
12.1041
15.7102
17.2889
16.4464
13.1065
21.7733
21.6351
21.6025
21.7449
21.0237
18.8838
12.5189
0.852171
-7.02633
0.410242
2.40108
1.04272
-0.313675
-0.350424
-0.0146988
-0.166448
-0.105976
0.0135491
-0.065557
-0.0909817
-0.0684696
-0.0883467
-0.22288
-2.79542
4.07213
9.11802
12.7721
14.2858
13.4564
9.58428
7.15836
11.1345
12.0544
10.6332
6.71729
0.936391
-0.446084
-0.161
-0.110909
-0.143828
-0.092891
-0.0162382
-0.0627605
-0.146668
-0.137804
-0.00130905
0.060449
-0.282867
-1.50082
-7.52229
-2.02943
-0.0487234
6.48821
12.4792
19.4161
21.0297
21.8473
21.2026
21.0404
20.9768
5.42443
9.49594
10.4897
9.07684
4.82983
-1.6043
-0.0848373
-0.151798
-0.11073
-0.140311
-0.101782
-0.0279505
-0.0678849
-0.139887
-0.124245
-0.00920119
0.00351489
-0.22408
-0.0727984
-7.0385
-6.46192
2.19814
8.9682
13.3287
19.5089
20.9757
21.1064
20.6761
20.3874
20.2817
3.5464
7.70488
8.83044
7.37939
2.10228
-0.814299
-0.17085
-0.1493
-0.112321
-0.137061
-0.110227
-0.038523
-0.0699423
-0.13361
-0.114156
-0.0125867
-0.0152828
-0.17613
-0.0394438
-2.0583
-15.7194
4.93122
10.5801
14.4644
19.0529
20.7152
20.2949
19.9463
19.6221
19.532
1.97524
5.95028
6.94851
5.38273
0.801168
-0.198361
-0.153405
-0.151545
-0.114452
-0.134221
-0.117624
-0.0471833
-0.0696148
-0.12817
-0.106164
-0.0229897
-0.0461062
-0.164461
-0.134975
-0.340511
-12.5326
8.34462
11.3365
15.4645
17.9821
19.9477
19.3159
19.184
18.799
18.7213
0.916029
3.9204
4.75136
3.31618
-0.541483
-0.171472
-0.153338
-0.151103
-0.117888
-0.131823
-0.123434
-0.0529422
-0.0667954
-0.125076
-0.101121
-0.0353773
-0.0631739
-0.175195
-0.195064
-0.267479
-1.6276
-6.03148
12.47
16.4694
15.9841
18.9901
18.2517
18.2178
18.0481
17.778
0.200986
1.71334
2.41281
1.13961
-0.0726812
-0.167858
-0.156779
-0.148394
-0.122407
-0.1298
-0.127232
-0.056815
-0.063279
-0.126361
-0.100603
-0.054099
-0.0746601
-0.156804
-0.176325
-0.274917
-0.281111
-7.85414
13.3012
16.9694
15.5006
17.3326
17.1012
16.8347
16.8013
16.5709
-0.0671604
0.231608
0.45547
-0.0540771
-0.0602261
-0.157056
-0.1584
-0.146196
-0.127372
-0.128237
-0.129522
-0.0617695
-0.0629793
-0.13107
-0.110277
-0.0692929
-0.0855882
-0.158789
-0.222784
-0.258271
-0.234407
-0.318071
4.48165
16.0693
14.9269
15.495
15.6014
16.1369
16.2307
16.121
-0.114419
-0.12585
-0.114638
-0.0975002
-0.0866339
-0.152443
-0.160708
-0.144335
-0.132211
-0.127232
-0.13044
-0.0683608
-0.0678083
-0.135998
-0.120609
-0.0788067
-0.0963976
-0.158131
-0.193627
-0.197673
-0.231573
-0.176244
0.0692892
12.8853
14.1001
13.6472
14.2607
14.3032
14.565
14.6193
-0.117053
-0.127374
-0.122608
-0.105206
-0.0921225
-0.149881
-0.162365
-0.143107
-0.136687
-0.126852
-0.130043
-0.0746614
-0.0766031
-0.140259
-0.103985
-0.102092
-0.114118
-0.156503
-0.187198
-0.198951
-0.192498
-0.13703
-0.134149
-0.0860838
2.38452
5.85451
10.961
11.6116
12.6481
12.8853
-0.120469
-0.130454
-0.126598
-0.112633
-0.0978736
-0.14833
-0.163872
-0.142602
-0.140733
-0.12715
-0.12895
-0.0801504
-0.086762
-0.144094
-0.113949
-0.113968
-0.131806
-0.157615
-0.178817
-0.177992
-0.163623
-0.154953
-0.167713
-0.108135
-0.0703433
0.129208
0.215552
1.03465
2.2433
2.61057
-0.123821
-0.133679
-0.130793
-0.120203
-0.103909
-0.147551
-0.165148
-0.142872
-0.144375
-0.128172
-0.128114
-0.0858187
-0.094952
-0.139536
-0.119972
-0.137091
-0.138628
-0.161703
-0.17371
-0.170955
-0.163051
-0.160674
-0.152413
-0.101007
-0.0506714
-0.0606912
-0.0807171
-0.0945501
-0.0951905
-0.0921892
-0.127483
-0.137309
-0.135223
-0.127718
-0.110253
-0.147529
-0.166318
-0.143938
-0.14769
-0.129962
-0.128252
-0.092203
-0.101872
-0.128745
-0.118806
-0.159074
-0.158683
-0.158201
-0.167393
-0.161548
-0.151581
-0.139657
-0.127769
-0.101394
-0.0864765
-0.0788403
-0.103038
-0.0882041
-0.098536
-0.0991335
-0.131555
-0.141375
-0.13989
-0.135069
-0.116832
-0.148346
-0.167448
-0.145813
-0.150782
-0.132553
-0.129668
-0.0994809
-0.107693
-0.124333
-0.119127
-0.16274
-0.160352
-0.161272
-0.162855
-0.153052
-0.143411
-0.132895
-0.12017
-0.096121
-0.071612
-0.0894077
-0.0952168
-0.100699
-0.093645
-0.0922981
-0.135945
-0.145461
-0.144715
-0.142141
-0.123583
-0.150015
-0.168627
-0.148499
-0.153773
-0.135966
-0.13235
-0.107626
-0.113162
-0.129616
-0.101787
-0.149717
-0.157653
-0.161281
-0.159975
-0.150147
-0.135567
-0.131744
-0.119591
-0.0843589
-0.0875187
-0.0915213
-0.0908267
-0.0923296
-0.0924714
-0.0926357
-0.140786
-0.150256
-0.149696
-0.148881
-0.130475
-0.15255
-0.169957
-0.151987
-0.156799
-0.140201
-0.136161
-0.116358
-0.119202
-0.135219
-0.103597
-0.142578
-0.154826
-0.158888
-0.152833
-0.136938
-0.135332
-0.134411
-0.121474
-0.0761393
-0.0726421
-0.0848016
-0.085178
-0.0872206
-0.0895295
-0.0910298
-0.146149
-0.155081
-0.15472
-0.155261
-0.137504
-0.155951
-0.171556
-0.156244
-0.160011
-0.145236
-0.140948
-0.125428
-0.125971
-0.139112
-0.111171
-0.141943
-0.153261
-0.157001
-0.157958
-0.152066
-0.144691
-0.133886
-0.130829
-0.0829844
-0.0760086
-0.0786602
-0.0787364
-0.0813535
-0.0852037
-0.0879077
-0.152036
-0.159933
-0.15984
-0.161305
-0.144697
-0.160203
-0.173559
-0.161218
-0.163579
-0.151027
-0.146614
-0.134718
-0.133638
-0.143524
-0.121548
-0.145101
-0.154366
-0.156337
-0.157739
-0.155476
-0.148512
-0.136941
-0.126787
-0.1086
-0.0812243
-0.084366
-0.0829843
-0.0833584
-0.0889481
-0.0889999
-0.158373
-0.164976
-0.165093
-0.167179
-0.152081
-0.1653
-0.176125
-0.166834
-0.167686
-0.157506
-0.153116
-0.1442
-0.142313
-0.149492
-0.134167
-0.150841
-0.158534
-0.159849
-0.161311
-0.159924
-0.154523
-0.145292
-0.135628
-0.125699
-0.091023
-0.0833616
-0.102516
-0.0885916
-0.0957378
-0.101146
-0.165187
-0.170414
-0.170783
-0.173016
-0.159891
-0.171222
-0.179443
-0.172995
-0.172518
-0.164598
-0.160441
-0.153915
-0.151953
-0.157096
-0.147926
-0.158922
-0.165636
-0.167305
-0.169056
-0.168892
-0.165314
-0.158859
-0.151528
-0.144331
-0.139544
-0.10239
-0.105341
-0.106716
-0.0980019
-0.126393
-0.172496
-0.176463
-0.177112
-0.179204
-0.168115
-0.17787
-0.183734
-0.179609
-0.17823
-0.17225
-0.168564
-0.163929
-0.162429
-0.166121
-0.161983
-0.169289
-0.175355
-0.178238
-0.180971
-0.182568
-0.181606
-0.178438
-0.173919
-0.168903
-0.166308
-0.167404
-0.124238
-0.1412
-0.143684
-0.133928
-0.180346
-0.183257
-0.184174
-0.185978
-0.176775
-0.185165
-0.18916
-0.18667
-0.184906
-0.180471
-0.177454
-0.174346
-0.173581
-0.176446
-0.175986
-0.181736
-0.188001
-0.193053
-0.198019
-0.202454
-0.205589
-0.206083
-0.203665
-0.198972
-0.194722
-0.192472
-0.191921
-0.168967
-0.161798
-0.186671
-0.188801
-0.190866
-0.19201
-0.193484
-0.185943
-0.193111
-0.1957
-0.194295
-0.192546
-0.18931
-0.187064
-0.185199
-0.185266
-0.187903
-0.189946
-0.195755
-0.20328
-0.211895
-0.221559
-0.231283
-0.239508
-0.24241
-0.242139
-0.238979
-0.233669
-0.230013
-0.227918
-0.228633
-0.195545
-0.194102
-0.197922
-0.199327
-0.200638
-0.201801
-0.195709
-0.201751
-0.203312
-0.202617
-0.201109
-0.198825
-0.19735
-0.196498
-0.197336
-0.200199
-0.203911
-0.210502
-0.219759
-0.232357
-0.248064
-0.263092
-0.278473
-0.287414
-0.288094
-0.284364
-0.277403
-0.268251
-0.260201
-0.253162
-0.247073
-0.239927
-0.207773
-0.208906
-0.210079
-0.210979
-0.206133
-0.211154
-0.211994
-0.211737
-0.210572
-0.209048
-0.208262
-0.208207
-0.209673
-0.212895
-0.217609
-0.224946
-0.235541
-0.250719
-0.270595
-0.291926
-0.315439
-0.3289
-0.331745
-0.328954
-0.320051
-0.308725
-0.298881
-0.291883
-0.286085
-0.279118
-0.218412
-0.219167
-0.220357
-0.221063
-0.217294
-0.221384
-0.221755
-0.221738
-0.220932
-0.219996
-0.219755
-0.220277
-0.222162
-0.225552
-0.230521
-0.237834
-0.248205
-0.263188
-0.282734
-0.308186
-0.331984
-0.346905
-0.353454
-0.351899
-0.343953
-0.336851
-0.329742
-0.32246
-0.318492
-0.315363
-0.229911
-0.230401
-0.231526
-0.232103
-0.229275
-0.232506
-0.232608
-0.232691
-0.232196
-0.231692
-0.231814
-0.232652
-0.234591
-0.23772
-0.242158
-0.248263
-0.256553
-0.267975
-0.282854
-0.29969
-0.315013
-0.325862
-0.331467
-0.331875
-0.329117
-0.324442
-0.317451
-0.304901
-0.304289
-0.302604
-0.242346
-0.242659
-0.243656
-0.244158
-0.242161
-0.244596
-0.244572
-0.244663
-0.244393
-0.244167
-0.244461
-0.245358
-0.247065
-0.249605
-0.253002
-0.257339
-0.262741
-0.269341
-0.276935
-0.284645
-0.291064
-0.295682
-0.297815
-0.297512
-0.295449
-0.290139
-0.286616
-0.282467
-0.277382
-0.272141
-0.2558
-0.256
-0.256824
-0.257301
-0.256037
-0.25774
-0.257672
-0.257716
-0.257573
-0.257488
-0.257789
-0.258529
-0.259776
-0.261507
-0.263661
-0.266173
-0.268935
-0.271762
-0.274375
-0.276581
-0.277999
-0.278165
-0.277178
-0.275165
-0.272522
-0.269318
-0.265746
-0.26204
-0.258771
-0.255823
-0.270365
-0.270491
-0.271116
-0.27161
-0.270996
-0.272027
-0.271953
-0.271921
-0.271811
-0.271748
-0.271921
-0.272347
-0.273031
-0.273918
-0.274913
-0.275941
-0.276913
-0.277718
-0.27827
-0.278371
-0.278018
-0.277155
-0.275886
-0.274348
-0.27263
-0.270863
-0.269156
-0.267294
-0.266054
-0.264831
-0.286136
-0.28621
-0.286616
-0.287175
-0.287155
-0.287559
-0.287483
-0.287349
-0.287207
-0.287085
-0.287044
-0.287071
-0.287136
-0.287194
-0.28721
-0.2873
-0.287414
-0.287379
-0.287236
-0.286977
-0.286632
-0.286239
-0.285826
-0.28542
-0.28504
-0.28469
-0.284369
-0.28408
-0.283789
-0.283606
20.8797
20.7854
20.8429
21.13
20.7169
19.526
13.362
6.56586
-1.82069
-1.34823
-2.25882
-3.68117
-0.0797602
-0.197465
-0.0414268
-0.147549
-0.0932156
0.00285762
-0.0758577
-0.0909393
-0.07168
-0.0823937
-0.13759
-0.396961
1.00672
6.73928
10.5604
12.0201
11.0799
7.13017
20.1909
20.1193
20.3523
20.4028
20.5832
19.5899
13.2163
9.18649
1.47375
-2.98609
-5.58088
-0.771196
-0.396877
-0.113494
-0.0647307
-0.135624
-0.0814695
-0.00392835
-0.0812775
-0.0909443
-0.0743134
-0.081441
-0.129091
-0.0495632
-1.55155
4.8373
8.99959
10.4561
9.44036
5.39675
19.5265
19.3664
19.6266
19.6181
20.2589
19.0682
14.0762
11.5353
3.98804
-10.1008
-5.79636
-0.0634088
-0.333737
-0.155581
-0.0782284
-0.124247
-0.068993
-0.010819
-0.0847438
-0.0910473
-0.0769295
-0.0824046
-0.127225
-0.152841
-0.811947
2.11742
7.29707
8.79746
7.64861
3.51922
18.7146
18.5827
18.8077
18.5903
19.2703
18.0515
14.7329
11.6397
5.91642
-12.1518
-0.459724
-0.166723
-0.317497
-0.158709
-0.0898642
-0.113026
-0.0578929
-0.0175833
-0.0859947
-0.0913043
-0.0796799
-0.0842909
-0.130068
-0.134313
-0.169829
0.837714
5.29884
6.91536
5.89476
1.95309
17.7338
17.7396
17.8561
17.7925
18.3126
16.0669
15.6111
12.854
0.194198
-5.00207
-0.207892
-0.18759
-0.280634
-0.163927
-0.10169
-0.103576
-0.0494846
-0.0244415
-0.0855286
-0.0917584
-0.082688
-0.0876502
-0.130152
-0.133572
-0.13805
-0.51368
3.22509
4.72041
3.88612
0.889069
16.5132
16.4938
16.3553
16.3769
16.6533
14.6861
16.8132
14.1976
-7.09357
-0.585895
-0.218467
-0.206564
-0.256798
-0.169696
-0.113821
-0.0982457
-0.0453836
-0.0314683
-0.0846752
-0.0924956
-0.0858953
-0.0921615
-0.128153
-0.136238
-0.134759
-0.0597904
1.04281
2.38432
1.68146
0.188755
16.0352
15.9619
15.6662
15.2981
14.9319
14.1083
16.8906
7.89435
-0.338852
-0.241615
-0.239915
-0.223459
-0.241669
-0.175714
-0.125155
-0.0977947
-0.0468008
-0.0348401
-0.0844334
-0.0936229
-0.0893227
-0.0971163
-0.126665
-0.137307
-0.126585
-0.0512469
-0.0723766
0.439095
0.218082
-0.0701971
14.5648
14.3863
13.9733
13.6326
12.7257
13.5375
14.4532
0.508496
-0.270177
-0.202839
-0.231308
-0.229554
-0.23135
-0.180909
-0.133849
-0.10009
-0.0527242
-0.0468309
-0.0848845
-0.0952419
-0.0929931
-0.102171
-0.125649
-0.13934
-0.124417
-0.0761938
-0.111535
-0.120185
-0.128455
-0.114593
12.855
12.5677
11.5526
10.2208
5.26865
2.08973
0.026464
-0.233309
-0.234075
-0.207362
-0.223476
-0.227083
-0.222777
-0.185345
-0.139899
-0.10648
-0.0688614
-0.0553902
-0.0862208
-0.0974474
-0.0969418
-0.107173
-0.125306
-0.141003
-0.124217
-0.0820512
-0.117352
-0.12706
-0.130038
-0.117253
2.64356
2.30625
1.17693
0.197718
-0.0843647
-0.193481
-0.259333
-0.247352
-0.187629
-0.176021
-0.209625
-0.21926
-0.21577
-0.190983
-0.148572
-0.11392
-0.0803148
-0.0643423
-0.088633
-0.100322
-0.101206
-0.112098
-0.125688
-0.142759
-0.124929
-0.0881971
-0.122992
-0.130934
-0.133105
-0.120702
-0.0928294
-0.10102
-0.106468
-0.114938
-0.120312
-0.148069
-0.22148
-0.235077
-0.213701
-0.193098
-0.201943
-0.209995
-0.211029
-0.19887
-0.161612
-0.119461
-0.0890569
-0.0740932
-0.0922847
-0.103922
-0.105823
-0.116967
-0.126832
-0.14452
-0.126281
-0.0946471
-0.128888
-0.134986
-0.136334
-0.124054
-0.0941027
-0.0996431
-0.109705
-0.120293
-0.136165
-0.167635
-0.200666
-0.207479
-0.202471
-0.194972
-0.195674
-0.201499
-0.207822
-0.204485
-0.169403
-0.124776
-0.0960843
-0.0845904
-0.0972473
-0.108273
-0.11083
-0.121829
-0.128751
-0.146395
-0.128246
-0.101417
-0.134859
-0.139259
-0.139968
-0.12771
-0.0952167
-0.101842
-0.110781
-0.120483
-0.130365
-0.14715
-0.172026
-0.184693
-0.189841
-0.189911
-0.188841
-0.193357
-0.20389
-0.204416
-0.175336
-0.130787
-0.103994
-0.0954711
-0.103445
-0.113376
-0.116261
-0.126742
-0.131458
-0.148439
-0.130898
-0.108424
-0.140812
-0.143765
-0.14403
-0.131743
-0.0965169
-0.101501
-0.11018
-0.121409
-0.13425
-0.149358
-0.162542
-0.172745
-0.180664
-0.184672
-0.184586
-0.187556
-0.197152
-0.201074
-0.181477
-0.13815
-0.113623
-0.106433
-0.110691
-0.119212
-0.122147
-0.131773
-0.134954
-0.150723
-0.134253
-0.115594
-0.146643
-0.148409
-0.148043
-0.136125
-0.0953661
-0.102298
-0.111654
-0.122689
-0.127431
-0.134046
-0.147195
-0.165553
-0.176026
-0.181948
-0.181134
-0.184885
-0.193265
-0.196006
-0.181758
-0.146037
-0.124252
-0.117371
-0.118798
-0.125747
-0.128513
-0.137003
-0.139233
-0.153324
-0.138331
-0.122887
-0.15229
-0.153175
-0.152664
-0.14095
-0.0779034
-0.0849546
-0.0968967
-0.123197
-0.135673
-0.145985
-0.157765
-0.165522
-0.172646
-0.179481
-0.180161
-0.182821
-0.185822
-0.189347
-0.179452
-0.153766
-0.135142
-0.128292
-0.127559
-0.132945
-0.135373
-0.142521
-0.144274
-0.156325
-0.143147
-0.130291
-0.157718
-0.157939
-0.157419
-0.146311
-0.0932295
-0.101475
-0.112382
-0.129444
-0.139509
-0.14862
-0.159268
-0.170539
-0.178498
-0.183986
-0.188007
-0.186454
-0.184019
-0.186934
-0.17971
-0.161855
-0.14604
-0.139252
-0.136906
-0.140775
-0.142725
-0.148433
-0.150046
-0.159822
-0.148718
-0.137804
-0.162984
-0.162709
-0.162103
-0.152177
-0.107515
-0.116046
-0.126251
-0.137178
-0.146171
-0.155353
-0.166015
-0.176737
-0.186438
-0.192686
-0.194938
-0.193448
-0.190228
-0.189953
-0.1836
-0.170463
-0.156993
-0.150238
-0.146759
-0.149205
-0.15056
-0.15485
-0.156499
-0.163921
-0.15507
-0.145774
-0.16793
-0.167563
-0.166919
-0.158533
-0.12928
-0.134699
-0.141447
-0.15008
-0.157465
-0.166638
-0.177718
-0.188353
-0.19716
-0.202515
-0.204275
-0.202841
-0.199555
-0.196466
-0.190202
-0.17965
-0.168056
-0.161294
-0.157047
-0.158198
-0.158874
-0.16187
-0.163561
-0.16874
-0.162014
-0.154227
-0.173059
-0.172846
-0.172106
-0.16536
-0.153724
-0.151853
-0.141255
-0.171609
-0.175495
-0.183755
-0.195242
-0.205071
-0.215064
-0.219582
-0.219884
-0.216774
-0.211948
-0.206389
-0.199202
-0.189617
-0.179317
-0.172473
-0.167714
-0.167711
-0.167682
-0.169574
-0.171142
-0.174421
-0.169638
-0.16306
-0.178726
-0.178778
-0.177906
-0.172678
-0.173482
-0.179478
-0.158823
-0.183884
-0.196224
-0.207869
-0.221492