/*--------------------------------*- C++ -*----------------------------------*\
| =========                 |                                                 |
| \\      /  F ield         | OpenFOAM: The Open Source CFD Toolbox           |
|  \\    /   O peration     | Version:  2.4.0                                 |
|   \\  /    A nd           | Web:      www.OpenFOAM.org                      |
|    \\/     M anipulation  |                                                 |
\*---------------------------------------------------------------------------*/
FoamFile
{
    version     2.0;
    format      ascii;
    class       surfaceScalarField;
    location    "0.007";
    object      phi;
}
// * * * * * * * * * * * * * * * * * * * * * * * * * * * * * * * * * * * * * //

dimensions      [0 3 -1 0 0 0 0];

internalField   nonuniform List<scalar> 
7080
(
3.21695e-12
-3.21654e-12
1.39792e-11
-1.07651e-11
3.42789e-11
-2.03108e-11
6.6527e-11
-3.22665e-11
1.12808e-10
-4.63132e-11
1.7459e-10
-6.18323e-11
2.52296e-10
-7.7758e-11
3.44547e-10
-9.23026e-11
4.47547e-10
-1.03069e-10
5.54816e-10
-1.07327e-10
6.57435e-10
-1.02675e-10
7.45053e-10
-8.76536e-11
8.07539e-10
-6.25386e-11
8.37219e-10
-2.96971e-11
8.30444e-10
6.77248e-12
7.88774e-10
4.16854e-11
7.17698e-10
7.11071e-11
6.26956e-10
9.08141e-11
5.26396e-10
1.00633e-10
4.25619e-10
1.00918e-10
3.31093e-10
9.45967e-11
2.48168e-10
8.31401e-11
1.78521e-10
6.96631e-11
1.23491e-10
5.52453e-11
8.14882e-11
4.19305e-11
5.14088e-11
3.02086e-11
3.08513e-11
2.05143e-11
1.73562e-11
1.34944e-11
9.58258e-12
7.83955e-12
5.43181e-12
4.04876e-12
3.32834e-12
-6.54873e-12
1.48861e-11
-2.23366e-11
3.70773e-11
-4.253e-11
7.22795e-11
-6.75112e-11
1.22809e-10
-9.69071e-11
1.90342e-10
-1.29454e-10
2.75232e-10
-1.6274e-10
3.75807e-10
-1.92967e-10
4.87728e-10
-2.15093e-10
6.0381e-10
-2.23492e-10
7.14291e-10
-2.13225e-10
8.08002e-10
-1.81403e-10
8.74152e-10
-1.28731e-10
9.04614e-10
-6.01512e-11
8.9583e-10
1.55948e-11
8.49551e-10
8.80411e-11
7.72108e-10
1.48659e-10
6.73707e-10
1.89417e-10
5.65199e-10
2.0928e-10
4.56509e-10
2.09951e-10
3.54857e-10
1.96332e-10
2.65712e-10
1.727e-10
1.91011e-10
1.44306e-10
1.32002e-10
1.14591e-10
8.70966e-11
8.6721e-11
5.49412e-11
6.24906e-11
3.29934e-11
4.24845e-11
1.85919e-11
2.77939e-11
1.03554e-11
1.62679e-11
1.09516e-11
4.55095e-12
3.49856e-12
-1.00504e-11
1.561e-11
-3.44584e-11
3.88316e-11
-6.57731e-11
7.56555e-11
-1.04367e-10
1.28333e-10
-1.49634e-10
1.98405e-10
-1.99594e-10
2.86025e-10
-2.50425e-10
3.8919e-10
-2.96189e-10
5.03178e-10
-3.29149e-10
6.20413e-10
-3.40777e-10
7.30838e-10
-3.23689e-10
8.2319e-10
-2.73769e-10
8.86878e-10
-1.92444e-10
9.1418e-10
-8.7432e-11
9.02152e-10
2.76705e-11
8.52878e-10
1.37396e-10
7.7331e-10
2.28334e-10
6.73487e-10
2.89438e-10
5.64319e-10
3.18577e-10
4.55313e-10
3.19287e-10
3.53764e-10
2.97951e-10
2.64721e-10
2.62143e-10
1.90284e-10
2.1868e-10
1.31449e-10
1.73755e-10
8.67292e-11
1.31329e-10
5.47163e-11
9.46254e-11
3.28657e-11
6.43598e-11
1.8508e-11
4.20485e-11
1.03075e-11
2.46604e-11
1.60424e-11
4.92322e-12
3.80606e-12
-1.38591e-11
1.68379e-11
-4.74982e-11
4.16598e-11
-9.06115e-11
8.08711e-11
-1.43602e-10
1.36739e-10
-2.05537e-10
2.1064e-10
-2.73543e-10
3.02382e-10
-3.42206e-10
4.09438e-10
-4.03273e-10
5.26447e-10
-4.46197e-10
6.452e-10
-4.5955e-10
7.55227e-10
-4.33728e-10
8.45209e-10
-3.63741e-10
9.04882e-10
-2.52123e-10
9.27236e-10
-1.09748e-10
9.1015e-10
4.48161e-11
8.56517e-10
1.91118e-10
7.73672e-10
3.11289e-10
6.72033e-10
3.91271e-10
5.61883e-10
4.28851e-10
4.52798e-10
4.28688e-10
3.514e-10
3.99408e-10
2.62864e-10
3.51064e-10
1.88843e-10
2.92637e-10
1.30457e-10
2.32459e-10
8.60616e-11
1.75615e-10
5.42825e-11
1.26521e-10
3.26019e-11
8.60672e-11
1.8367e-11
5.61797e-11
1.02227e-11
3.29962e-11
2.14203e-11
4.54717e-12
4.13222e-12
-1.79932e-11
1.83369e-11
-6.17075e-11
4.53577e-11
-1.17641e-10
8.79155e-11
-1.8617e-10
1.48248e-10
-2.65888e-10
2.27481e-10
-3.52803e-10
3.24913e-10
-4.3965e-10
4.37256e-10
-5.15613e-10
5.58246e-10
-5.67196e-10
6.78869e-10
-5.80164e-10
7.88138e-10
-5.42985e-10
8.74701e-10
-4.50272e-10
9.28808e-10
-3.06218e-10
9.44369e-10
-1.25257e-10
9.20498e-10
6.87599e-11
8.60927e-10
2.50785e-10
7.73949e-10
3.98383e-10
6.69829e-10
4.95582e-10
5.58566e-10
5.40232e-10
4.49289e-10
5.3827e-10
3.48252e-10
5.00495e-10
2.60307e-10
4.39381e-10
1.86917e-10
3.65961e-10
1.29091e-10
2.90592e-10
8.51494e-11
2.19452e-10
5.37016e-11
1.58081e-10
3.22525e-11
1.07545e-10
1.81697e-11
7.01586e-11
1.01121e-11
4.12439e-11
2.67453e-11
4.4891e-12
4.59791e-12
-2.25918e-11
2.04052e-11
-7.75147e-11
5.04082e-11
-1.47645e-10
9.74643e-11
-2.33224e-10
1.63746e-10
-3.3217e-10
2.49998e-10
-4.39062e-10
3.548e-10
-5.4444e-10
4.73831e-10
-6.34615e-10
5.99669e-10
-6.93021e-10
7.22308e-10
-7.02773e-10
8.30184e-10
-6.5083e-10
9.11996e-10
-5.32038e-10
9.58731e-10
-3.5293e-10
9.65513e-10
-1.31976e-10
9.33012e-10
1.01345e-10
8.66087e-10
3.17812e-10
7.74013e-10
4.90581e-10
6.66874e-10
6.02911e-10
5.54286e-10
6.52935e-10
4.44822e-10
6.4803e-10
3.44268e-10
6.01088e-10
2.57081e-10
5.26926e-10
1.84493e-10
4.38482e-10
1.27374e-10
3.48009e-10
8.40024e-11
2.62723e-10
5.29722e-11
1.89218e-10
3.18138e-11
1.28734e-10
1.79218e-11
8.3947e-11
9.9737e-12
4.938e-11
3.19926e-11
4.43075e-12
5.21901e-12
-2.781e-11
2.31517e-11
-9.54422e-11
5.70902e-11
-1.81575e-10
1.10037e-10
-2.86155e-10
1.84027e-10
-4.06145e-10
2.79247e-10
-5.34273e-10
3.93266e-10
-6.5843e-10
5.20413e-10
-7.61716e-10
6.51845e-10
-8.24422e-10
7.76405e-10
-8.2729e-10
8.81946e-10
-7.56326e-10
9.57373e-10
-6.07408e-10
9.94681e-10
-3.90205e-10
9.90533e-10
-1.27759e-10
9.47477e-10
1.44493e-10
8.71867e-10
3.93527e-10
7.73783e-10
5.88794e-10
6.63131e-10
7.13749e-10
5.49042e-10
7.67136e-10
4.39415e-10
7.57942e-10
3.39474e-10
7.01062e-10
2.53212e-10
6.13533e-10
1.81591e-10
5.10036e-10
1.25321e-10
4.04567e-10
8.26316e-11
3.05316e-10
5.2101e-11
2.1985e-10
3.12899e-11
1.49577e-10
1.76257e-11
9.75082e-11
9.80826e-12
5.73829e-11
3.71476e-11
4.36226e-12
6.03733e-12
-3.3845e-11
2.67562e-11
-1.16151e-10
6.5827e-11
-2.2063e-10
1.26392e-10
-3.46695e-10
2.10218e-10
-4.89947e-10
3.16662e-10
-6.407e-10
4.41913e-10
-7.83642e-10
5.7858e-10
-8.98327e-10
7.16135e-10
-9.6194e-10
8.42167e-10
-9.53272e-10
9.44016e-10
-8.58121e-10
1.01103e-09
-6.74356e-10
1.03654e-09
-4.15677e-10
1.01912e-09
-1.10265e-10
9.63504e-10
2.00205e-10
8.77999e-10
4.79137e-10
7.73074e-10
6.93853e-10
6.58486e-10
8.28518e-10
5.42774e-10
8.82957e-10
4.33046e-10
8.67947e-10
3.33863e-10
8.0027e-10
2.48702e-10
6.99025e-10
1.78216e-10
5.80454e-10
1.22935e-10
4.60125e-10
8.10402e-11
3.47119e-10
5.10903e-11
2.49897e-10
3.0682e-11
1.70018e-10
1.72825e-11
1.10806e-10
9.6161e-12
6.52314e-11
4.21965e-11
4.28216e-12
7.11566e-12
-4.09568e-11
3.14783e-11
-1.40501e-10
7.72196e-11
-2.66352e-10
1.47588e-10
-4.17036e-10
2.43856e-10
-5.8619e-10
3.64147e-10
-7.60976e-10
5.02793e-10
-9.22249e-10
6.50272e-10
-1.04575e-09
7.94134e-10
-1.10576e-09
9.20691e-10
-1.07978e-09
1.01695e-09
-9.54322e-10
1.07303e-09
-7.30361e-10
1.08399e-09
-4.26586e-10
1.05078e-09
-7.69803e-11
9.80733e-10
2.70355e-10
8.8409e-10
5.7588e-10
7.71596e-10
8.06486e-10
6.52747e-10
9.4754e-10
5.35362e-10
1.00045e-09
4.25645e-10
9.77932e-10
3.27398e-10
8.98534e-10
2.4353e-10
7.83212e-10
1.74357e-10
6.49559e-10
1.20212e-10
5.14538e-10
7.92248e-11
3.88018e-10
4.9938e-11
2.79275e-10
2.99891e-11
1.90001e-10
1.68914e-11
1.23803e-10
9.39688e-12
7.29043e-11
4.71262e-11
4.18935e-12
8.53687e-12
-4.94891e-11
3.76966e-11
-1.69647e-10
9.21497e-11
-3.20787e-10
1.75153e-10
-5.00014e-10
2.87105e-10
-6.98122e-10
4.24313e-10
-8.9818e-10
5.78645e-10
-1.07655e-09
7.38008e-10
-1.20506e-09
8.87874e-10
-1.25559e-09
1.01338e-09
-1.20523e-09
1.10151e-09
-1.04239e-09
1.14357e-09
-7.72336e-10
1.13688e-09
-4.1984e-10
1.08493e-09
-2.49522e-11
9.98848e-10
3.56556e-10
8.89853e-10
6.84971e-10
7.69158e-10
9.27322e-10
6.45822e-10
1.07104e-09
5.2678e-10
1.11959e-09
4.17222e-10
1.08775e-09
3.20104e-10
9.95663e-10
2.37723e-10
8.65899e-10
1.70037e-10
7.17177e-10
1.17168e-10
5.67663e-10
7.71972e-11
4.27906e-10
4.86517e-11
3.07908e-10
2.92156e-11
2.09473e-10
1.6455e-11
1.36464e-10
9.15205e-12
8.03815e-11
5.19243e-11
4.08433e-12
1.04267e-11
-5.99111e-11
4.59622e-11
-2.0517e-10
1.11896e-10
-3.86708e-10
2.11256e-10
-5.99356e-10
3.42947e-10
-8.29807e-10
5.00625e-10
-1.05587e-09
6.72937e-10
-1.24884e-09
8.44815e-10
-1.37689e-09
9.99648e-10
-1.4104e-09
1.12168e-09
-1.32721e-09
1.19835e-09
-1.11898e-09
1.2226e-09
-7.96489e-10
1.1942e-09
-3.91384e-10
1.12169e-09
4.76518e-11
1.01735e-09
4.61029e-10
8.94861e-10
8.07545e-10
7.6547e-10
1.05686e-09
6.37544e-10
1.19912e-09
5.16947e-10
1.24028e-09
4.07744e-10
1.1972e-09
3.11974e-10
1.09144e-09
2.31286e-10
9.4688e-10
1.65262e-10
7.83133e-10
1.1381e-10
6.19362e-10
7.49622e-11
4.66675e-10
4.72346e-11
3.35717e-10
2.83637e-11
2.28379e-10
1.59746e-11
1.48756e-10
8.88232e-12
8.76431e-11
5.65781e-11
3.968e-12
1.29761e-11
-7.28831e-11
5.7099e-11
-2.49284e-10
1.38334e-10
-4.67939e-10
2.59015e-10
-7.20031e-10
4.15522e-10
-9.86326e-10
5.97657e-10
-1.23804e-09
7.89995e-10
-1.44118e-09
9.74229e-10
-1.56109e-09
1.13194e-09
-1.56809e-09
1.24702e-09
-1.44225e-09
1.30794e-09
-1.17984e-09
1.30989e-09
-7.98352e-10
1.25595e-09
-3.37378e-10
1.15945e-09
1.44251e-10
1.03541e-09
5.85208e-10
8.9853e-10
9.44511e-10
7.6014e-10
1.1954e-09
6.27673e-10
1.33173e-09
5.0573e-10
1.36232e-09
3.97142e-10
1.30603e-09
3.02976e-10
1.1856e-09
2.24203e-10
1.02593e-09
1.60027e-10
8.47242e-10
1.10135e-10
6.69489e-10
7.25186e-11
5.04217e-10
4.56861e-11
3.62627e-10
2.74329e-11
2.46669e-10
1.545e-11
1.60644e-10
8.58772e-12
9.46694e-11
6.10748e-11
3.83998e-12
1.64706e-11
-8.93506e-11
7.2358e-11
-3.05168e-10
1.74337e-10
-5.69925e-10
3.23106e-10
-8.68809e-10
5.10785e-10
-1.17404e-09
7.21663e-10
-1.44899e-09
9.35391e-10
-1.65492e-09
1.13056e-09
-1.75623e-09
1.28762e-09
-1.72516e-09
1.39097e-09
-1.54557e-09
1.43077e-09
-1.21958e-09
1.40508e-09
-7.72577e-10
1.32109e-09
-2.53328e-10
1.1979e-09
2.6754e-10
1.0524e-09
7.30854e-10
9.00388e-10
1.0966e-09
7.52886e-10
1.34306e-09
6.16073e-10
1.46868e-09
4.93087e-10
1.48539e-09
3.85424e-10
1.41392e-09
2.93136e-10
1.27789e-09
2.16503e-10
1.10283e-09
1.54356e-10
9.09323e-10
1.06162e-10
7.17906e-10
6.98795e-11
5.4043e-10
4.40147e-11
3.88564e-10
2.64283e-11
2.64292e-10
1.4884e-11
1.72096e-10
8.26991e-12
1.01442e-10
6.54032e-11
3.70081e-12
2.13065e-11
-1.10655e-10
9.36582e-11
-3.77521e-10
2.24423e-10
-7.0071e-10
4.10638e-10
-1.05505e-09
6.37258e-10
-1.40072e-09
8.80934e-10
-1.69276e-09
1.11592e-09
-1.88996e-09
1.31861e-09
-1.9589e-09
1.46962e-09
-1.87619e-09
1.5549e-09
-1.63083e-09
1.56696e-09
-1.23159e-09
1.50729e-09
-7.12832e-10
1.38899e-09
-1.34975e-10
1.23596e-09
4.20652e-10
1.06743e-09
8.99537e-10
8.99817e-10
1.26428e-09
7.43329e-10
1.49971e-09
6.02543e-10
1.60958e-09
4.78929e-10
1.60908e-09
3.72559e-10
1.52051e-09
2.82452e-10
1.36798e-09
2.08197e-10
1.17734e-09
1.48259e-10
9.69197e-10
1.019e-10
7.64477e-10
6.70513e-11
5.75214e-10
4.22247e-11
4.13457e-10
2.53525e-11
2.81201e-10
1.42782e-11
1.8308e-10
7.92982e-12
1.07942e-10
6.95525e-11
3.5506e-12
2.80916e-11
-1.38747e-10
1.23981e-10
-4.73416e-10
2.95908e-10
-8.72668e-10
5.32603e-10
-1.29178e-09
8.07143e-10
-1.67534e-09
1.08629e-09
-1.97203e-09
1.33958e-09
-2.14332e-09
1.5434e-09
-2.1627e-09
1.68056e-09
-2.01338e-09
1.73971e-09
-1.68995e-09
1.71605e-09
-1.20789e-09
1.61501e-09
-6.11725e-10
1.45829e-09
2.17867e-11
1.27225e-09
6.06742e-10
1.07939e-09
1.09256e-09
8.96051e-10
1.44766e-09
7.3101e-10
1.66492e-09
5.86833e-10
1.75387e-09
4.63132e-10
1.73285e-09
3.58491e-10
1.62535e-09
2.70904e-10
1.45555e-09
1.99277e-10
1.2492e-09
1.41736e-10
1.02668e-09
9.73491e-11
8.09063e-10
6.40349e-11
6.08467e-10
4.03169e-11
4.37237e-10
2.42061e-11
2.97348e-10
1.36327e-11
1.93567e-10
7.56776e-12
1.14152e-10
7.35116e-11
3.39003e-12
3.75227e-11
-1.7627e-10
1.67827e-10
-6.03728e-10
4.01229e-10
-1.10611e-09
7.06642e-10
-1.59724e-09
1.03824e-09
-2.00703e-09
1.35186e-09
-2.28582e-09
1.61565e-09
-2.40718e-09
1.81012e-09
-2.35717e-09
1.92292e-09
-2.12623e-09
1.94604e-09
-1.71304e-09
1.87727e-09
-1.13908e-09
1.72738e-09
-4.61769e-10
1.52754e-09
2.2166e-10
1.30541e-09
8.28896e-10
1.08723e-09
1.31089e-09
8.88441e-10
1.64648e-09
7.1559e-10
1.83794e-09
5.688e-10
1.90077e-09
4.45661e-10
1.85605e-09
3.43236e-10
1.72798e-09
2.58522e-10
1.54025e-09
1.89776e-10
1.31817e-09
1.34813e-10
1.08158e-09
9.25303e-11
8.51534e-10
6.08444e-11
6.40097e-10
3.83006e-11
4.59838e-10
2.29946e-11
3.1269e-10
1.29507e-11
2.03528e-10
7.18549e-12
1.20056e-10
7.72694e-11
3.2209e-12
4.9899e-11
-2.26169e-10
2.3152e-10
-7.85352e-10
5.6292e-10
-1.43755e-09
9.61844e-10
-1.99622e-09
1.35619e-09
-2.40149e-09
1.69511e-09
-2.62493e-09
1.95367e-09
-2.66584e-09
2.1231e-09
-2.52661e-09
2.1982e-09
-2.20139e-09
2.17365e-09
-1.68847e-09
2.04896e-09
-1.01436e-09
1.8434e-09
-2.56144e-10
1.59386e-09
4.71243e-10
1.33339e-09
1.08936e-09
1.08965e-09
1.55479e-09
8.76216e-10
1.85991e-09
6.9666e-10
2.01766e-09
5.48259e-10
2.04926e-09
4.26448e-10
1.97792e-09
3.26784e-10
1.82782e-09
2.45316e-10
1.6217e-09
1.7971e-10
1.38398e-09
1.27507e-10
1.13373e-09
8.74548e-11
8.9176e-10
5.74876e-11
6.70013e-10
3.61808e-11
4.81197e-10
2.1721e-11
3.27185e-10
1.2234e-11
2.12936e-10
6.78404e-12
1.25636e-10
8.0815e-11
3.04385e-12
6.45594e-11
-2.90726e-10
3.23764e-10
-1.04455e-09
8.23962e-10
-1.93777e-09
1.34735e-09
-2.51965e-09
1.79723e-09
-2.85151e-09
2.13586e-09
-2.9638e-09
2.36173e-09
-2.8918e-09
2.48458e-09
-2.64946e-09
2.50625e-09
-2.22315e-09
2.42104e-09
-1.60326e-09
2.22936e-09
-8.22667e-10
1.96004e-09
1.32343e-11
1.65493e-09
7.76405e-10
1.35401e-09
1.39025e-09
1.08514e-09
1.82382e-09
8.58503e-10
2.08651e-09
6.73764e-10
2.20255e-09
5.24993e-10
2.19812e-09
4.05401e-10
2.09757e-09
3.09103e-10
1.92429e-09
2.3128e-10
1.6995e-09
1.69082e-10
1.44637e-09
1.19821e-10
1.18293e-09
8.21275e-11
9.29616e-10
5.39681e-11
6.98126e-10
3.39599e-11
5.01252e-10
2.0387e-11
3.40793e-10
1.14834e-11
2.21765e-10
6.36388e-12
1.30878e-10
8.41382e-11
2.85885e-12
8.32394e-11
-3.7396e-10
4.5575e-10
-1.417e-09
1.25066e-09
-2.7327e-09
1.94005e-09
-3.20913e-09
2.40981e-09
-3.32142e-09
2.69386e-09
-3.24812e-09
2.84393e-09
-3.04197e-09
2.89363e-09
-2.69917e-09
2.84539e-09
-2.175e-09
2.68556e-09
-1.44342e-09
2.41647e-09
-5.53587e-10
2.07423e-09
3.55518e-10
1.70757e-09
1.14312e-09
1.36488e-09
1.73289e-09
1.07227e-09
2.1166e-09
8.34583e-10
2.32414e-09
6.46605e-10
2.39067e-09
4.98912e-10
2.34588e-09
3.82524e-10
2.214e-09
2.9023e-10
2.01675e-09
2.16457e-10
1.77325e-09
1.57931e-10
1.50508e-09
1.11787e-10
1.22903e-09
7.65702e-11
9.64981e-10
5.03005e-11
7.24353e-10
3.16472e-11
5.19947e-10
1.89981e-11
3.53475e-10
1.07019e-11
2.29991e-10
5.92683e-12
1.35768e-10
8.72302e-11
2.66607e-12
1.29042e-10
-5.03004e-10
6.12481e-10
-1.90037e-09
1.79093e-09
-3.91108e-09
2.7776e-09
-4.19584e-09
3.24061e-09
-3.78475e-09
3.38225e-09
-3.39017e-09
3.39585e-09
-3.05564e-09
3.34438e-09
-2.64765e-09
3.21156e-09
-2.04226e-09
2.96659e-09
-1.19844e-09
2.60769e-09
-1.94684e-10
2.17989e-09
7.83328e-10
1.7472e-09
1.57588e-09
1.36312e-09
2.11691e-09
1.04945e-09
2.43045e-09
8.03693e-10
2.56983e-09
6.14855e-10
2.57963e-09
4.69905e-10
2.4909e-09
3.57799e-10
2.32614e-09
2.70181e-10
2.10451e-09
2.00876e-10
1.84253e-09
1.4628e-10
1.55984e-09
1.03424e-10
1.27184e-09
7.07968e-11
9.97744e-10
4.64941e-11
7.48618e-10
2.92485e-11
5.3723e-10
1.75578e-11
3.65198e-10
9.89182e-12
2.37591e-10
5.4739e-12
1.40291e-10
9.00835e-11
2.46541e-12
3.16127e-10
-8.19175e-10
7.14113e-10
-2.29835e-09
1.86821e-09
-5.06521e-09
3.48584e-09
-5.81338e-09
4.22502e-09
-4.52409e-09
4.1814e-09
-3.34701e-09
3.99862e-09
-2.87302e-09
3.82598e-09
-2.47496e-09
3.59849e-09
-1.81485e-09
3.25818e-09
-8.5809e-10
2.80038e-09
2.6314e-10
2.27321e-09
1.31049e-09
1.76903e-09
2.08014e-09
1.34548e-09
2.54038e-09
1.01499e-09
2.76112e-09
7.65064e-10
2.81968e-09
5.78204e-10
2.7666e-09
4.37866e-10
2.6313e-09
3.31202e-10
2.43283e-09
2.48963e-10
2.18689e-09
1.84552e-10
1.90692e-09
1.34147e-10
1.61039e-09
9.47442e-11
1.3112e-09
6.48164e-11
1.02779e-09
4.25551e-11
7.70846e-10
2.67676e-11
5.5305e-10
1.60686e-11
3.75927e-10
9.05431e-12
2.44545e-10
5.00586e-12
1.44436e-10
9.26909e-11
2.25721e-12
1.00688e-09
-1.82581e-09
2.66233e-09
-3.95336e-09
-2.93014e-11
-2.37394e-09
3.10737e-09
-8.95079e-09
5.09824e-09
-6.51524e-09
4.97082e-09
-3.22001e-09
4.59912e-09
-2.50139e-09
4.31876e-09
-2.19452e-09
4.004e-09
-1.50017e-09
3.56495e-09
-4.19002e-10
2.98402e-09
8.44103e-10
2.34421e-09
1.9503e-09
1.7668e-09
2.65762e-09
1.30862e-09
2.99848e-09
9.67432e-10
3.10248e-09
7.18195e-10
3.06884e-09
5.36542e-10
2.94835e-09
4.02823e-10
2.76507e-09
3.02805e-10
2.53287e-09
2.26648e-10
2.26317e-09
1.67546e-10
1.966e-09
1.21575e-10
1.65649e-09
8.57806e-11
1.34695e-09
5.86516e-11
1.05503e-09
3.84985e-11
7.90971e-10
2.42139e-11
5.67362e-10
1.45361e-11
3.85633e-10
8.19262e-12
2.50833e-10
4.52449e-12
1.48191e-10
9.50458e-11
2.04249e-12
2.40704e-10
-2.0662e-09
-2.63088e-10
-3.44916e-09
-4.42323e-09
1.78687e-09
7.52278e-10
-1.41249e-08
5.95913e-09
-1.17233e-08
5.52627e-09
-2.78777e-09
5.12027e-09
-2.09546e-09
4.80283e-09
-1.87698e-09
4.42152e-09
-1.11895e-09
3.88229e-09
1.20247e-10
3.15641e-09
1.57002e-09
2.38442e-09
2.72229e-09
1.73355e-09
3.30856e-09
1.24899e-09
3.48295e-09
9.05431e-10
3.44621e-09
6.62677e-10
3.31154e-09
4.89807e-10
3.12129e-09
3.64821e-10
2.89011e-09
2.72672e-10
2.62504e-09
2.03294e-10
2.33265e-09
1.49901e-10
2.01938e-09
1.086e-10
1.69791e-09
7.65568e-11
1.37896e-09
5.23188e-11
1.07936e-09
3.4335e-11
8.08931e-10
2.15942e-11
5.80126e-10
1.29643e-11
3.94288e-10
7.30904e-12
2.56439e-10
4.03106e-12
1.51546e-10
9.71423e-11
1.82221e-12
-1.27869e-10
-1.93802e-09
1.91927e-09
-5.4946e-09
8.69492e-09
-4.98554e-09
1.29954e-08
-1.84161e-08
5.0512e-09
-3.77776e-09
5.42324e-09
-3.16052e-09
5.49373e-09
-2.16601e-09
5.25546e-09
-1.63855e-09
4.85834e-09
-7.21924e-10
4.20847e-09
7.70132e-10
3.30398e-09
2.47453e-09
2.37967e-09
3.6466e-09
1.66069e-09
4.02761e-09
1.163e-09
3.98054e-09
8.27882e-10
3.78148e-09
5.98289e-10
3.54109e-09
4.38026e-10
3.28162e-09
3.23939e-10
3.00424e-09
2.40878e-10
2.70811e-09
1.7896e-10
2.39466e-09
1.31659e-10
2.06666e-09
9.52501e-11
1.73442e-09
6.70923e-11
1.40709e-09
4.58309e-11
1.10071e-09
3.00731e-11
8.24669e-10
1.89138e-11
5.91304e-10
1.13563e-11
4.01869e-10
6.40526e-12
2.61346e-10
3.52669e-12
1.54491e-10
9.89741e-11
1.59726e-12
-1.77237e-10
-1.76075e-09
4.80217e-11
-5.71973e-09
5.32453e-09
-1.02629e-08
4.62659e-09
-1.77182e-08
-1.57085e-09
2.42141e-09
4.66013e-09
-9.39141e-09
5.62128e-09
-3.12727e-09
5.65526e-09
-1.6724e-09
5.30772e-09
-3.74476e-10
4.54954e-09
1.52836e-09
3.41547e-09
3.60862e-09
2.31297e-09
4.7491e-09
1.53901e-09
4.80164e-09
1.0477e-09
4.47176e-09
7.3437e-10
4.09494e-09
5.25236e-10
3.75018e-09
3.81468e-10
3.42544e-09
2.80394e-10
3.10536e-09
2.07579e-10
2.78093e-09
1.53754e-10
2.44857e-09
1.12894e-10
2.10751e-09
8.1576e-11
1.76582e-09
5.74219e-11
1.43122e-09
3.92112e-11
1.11899e-09
2.57277e-11
8.38136e-10
1.61822e-11
6.00863e-10
9.7177e-12
4.08355e-10
5.48448e-12
2.65542e-10
3.01315e-12
1.57019e-10
1.00536e-10
1.36867e-12
2.21925e-10
-1.98198e-09
4.75432e-10
-5.9715e-09
1.83821e-09
-1.16261e-08
7.91046e-10
-1.66708e-08
3.03002e-09
1.81662e-10
3.7652e-09
-1.01311e-08
5.4312e-09
-4.79334e-09
6.03859e-09
-2.27971e-09
5.74753e-09
-8.35303e-11
4.90973e-09
2.36624e-09
3.46742e-09
5.051e-09
2.16056e-09
6.05597e-09
1.35806e-09
5.60422e-09
9.00842e-10
4.9289e-09
6.25134e-10
4.37074e-09
4.44018e-10
3.93127e-09
3.20506e-10
3.54899e-09
2.34433e-10
3.19147e-09
1.72932e-10
2.84243e-09
1.27778e-10
2.49378e-09
9.36707e-11
2.1416e-09
6.76196e-11
1.79194e-09
4.75729e-11
1.45125e-09
3.24774e-11
1.13413e-09
2.13103e-11
8.49292e-10
1.34063e-11
6.08777e-10
8.05286e-12
4.13726e-10
4.54906e-12
2.69015e-10
2.49349e-12
1.59121e-10
1.01827e-10
1.13521e-12
-2.29991e-10
-1.75178e-09
-5.966e-10
-5.60344e-09
-1.52366e-09
-1.07009e-08
-4.70456e-09
-1.34942e-08
1.20392e-09
-5.72596e-09
2.45691e-09
-1.13893e-08
5.44761e-09
-7.78405e-09
6.39318e-09
-3.22507e-09
6.45251e-09
-1.42946e-10
5.41471e-09
3.40409e-09
3.468e-09
6.99778e-09
1.90161e-09
7.62235e-09
1.10821e-09
6.39768e-09
7.22284e-10
5.31476e-09
5.01648e-10
4.59144e-09
3.55626e-10
4.07728e-09
2.55713e-10
3.64893e-09
1.86389e-10
3.26082e-09
1.37135e-10
2.89169e-09
1.01146e-10
2.52982e-09
7.40615e-11
2.16868e-09
5.34261e-11
1.81263e-09
3.75745e-11
1.46709e-09
2.56485e-11
1.1461e-09
1.68326e-11
8.581e-10
1.05937e-11
6.15022e-10
6.36611e-12
4.17968e-10
3.60138e-12
2.71755e-10
1.95899e-12
1.60799e-10
1.02839e-10
8.9569e-13
7.84999e-11
-1.8309e-09
7.01872e-11
-5.59545e-09
-8.02336e-10
-9.83063e-09
-3.27347e-09
-1.10326e-08
-2.56553e-09
-6.44908e-09
4.29458e-09
-1.82509e-08
7.4973e-09
-1.0987e-08
7.65015e-09
-3.37773e-09
6.87395e-09
6.3321e-10
5.64511e-09
4.63305e-09
3.21049e-09
9.43244e-09
1.45546e-09
9.37733e-09
7.67125e-10
7.08606e-09
5.10648e-10
5.57119e-09
3.64755e-10
4.73738e-09
2.60453e-10
4.18157e-09
1.87258e-10
3.72214e-09
1.36343e-10
3.31176e-09
1.00223e-10
2.92781e-09
7.38781e-11
2.5562e-09
5.40713e-11
2.18848e-09
3.90005e-11
1.82774e-09
2.74277e-11
1.47865e-09
1.87254e-11
1.15483e-09
1.22966e-11
8.64525e-10
7.74495e-12
6.19576e-10
4.6598e-12
4.21065e-10
2.64508e-12
2.73752e-10
1.44159e-12
1.62026e-10
1.03575e-10
6.70334e-13
-4.233e-10
-1.40852e-09
-2.00558e-09
-4.01626e-09
-4.91795e-09
-6.92369e-09
-5.72766e-09
-1.02365e-08
4.59892e-10
-1.26537e-08
6.48807e-11
-1.78555e-08
1.05051e-08
-2.14269e-08
1.04407e-08
-3.31316e-09
9.81246e-09
1.26106e-09
7.50821e-09
6.93752e-09
3.40585e-09
1.35349e-08
1.02225e-09
1.17609e-08
3.93881e-10
7.71444e-09
3.03251e-10
5.66181e-09
2.36108e-10
4.80454e-09
1.71455e-10
4.24621e-09
1.23494e-10
3.77011e-09
8.99567e-11
3.34532e-09
6.61585e-11
2.95161e-09
4.87846e-11
2.57359e-09
3.57146e-11
2.20155e-09
2.57633e-11
1.83771e-09
1.81268e-11
1.48629e-09
1.23829e-11
1.16058e-09
8.13889e-12
8.68769e-10
5.13835e-12
6.22574e-10
3.09336e-12
4.23118e-10
1.7738e-12
2.7506e-10
9.42463e-13
1.62871e-10
1.04062e-10
4.35147e-13
-1.11219e-09
-2.9746e-10
-4.99303e-09
-1.40924e-10
-1.27908e-08
8.68888e-10
-2.14436e-08
-1.58067e-09
-2.69651e-08
-7.13506e-09
-1.7375e-08
-2.74525e-08
5.1366e-09
-4.39375e-08
4.07741e-09
-2.25341e-09
4.56754e-09
7.70775e-10
5.19165e-09
6.31365e-09
1.75828e-09
1.69683e-08
-2.44986e-10
1.37641e-08
-3.35916e-10
7.80536e-09
-6.2268e-11
5.38814e-09
2.79197e-11
4.71436e-09
3.33989e-11
4.24074e-09
2.68272e-11
3.77669e-09
2.13798e-11
3.35078e-09
1.70128e-11
2.95597e-09
1.35139e-11
2.5771e-09
1.06294e-11
2.20444e-09
8.23486e-12
1.84012e-09
6.19649e-12
1.48832e-09
4.50539e-12
1.16228e-09
3.14071e-12
8.70129e-10
2.1156e-12
6.23598e-10
1.42613e-12
4.23807e-10
1.01477e-12
2.75466e-10
7.40186e-13
1.6315e-10
6.16028e-13
1.04175e-10
3.70241e-12
5.52335e-13
2.55084e-12
7.65478e-13
2.71893e-12
1.87684e-13
1.78419e-12
6.39897e-13
1.84756e-12
1.83518e-13
1.3322e-12
2.96982e-13
1.35986e-12
1.7122e-13
9.03351e-13
2.65887e-13
8.81996e-13
2.02761e-13
4.66372e-13
2.40203e-13
6.04005e-13
2.85259e-14
2.29715e-13
2.18061e-13
2.49721e-13
1.21802e-13
-4.61723e-15
1.30068e-13
-2.75026e-14
1.24953e-13
-1.60681e-13
5.46092e-14
-8.61623e-14
-1.98195e-14
-6.2515e-14
-5.83894e-14
1.15683e-14
-5.47552e-14
1.20342e-14
-1.10406e-14
3.98949e-14
-2.09422e-14
2.23263e-14
9.65811e-15
1.42632e-14
1.87484e-14
-5.34289e-14
5.36675e-14
-1.07977e-13
7.03436e-14
-1.3877e-13
1.51609e-14
-1.64442e-13
3.89329e-14
-9.26894e-14
-8.1106e-14
9.38319e-14
-1.81464e-13
9.25189e-14
4.05219e-12
1.59272e-12
2.88791e-12
1.27396e-12
2.7222e-12
9.22537e-13
1.56798e-12
1.31182e-12
1.623e-12
5.47085e-13
9.37788e-13
5.97691e-13
1.03555e-12
4.31407e-13
5.55055e-13
4.01431e-13
6.89898e-13
3.95732e-13
3.40295e-13
2.76663e-13
4.89338e-13
1.70657e-13
1.70238e-13
2.71573e-13
2.97904e-13
2.25305e-13
1.21619e-13
1.14014e-13
2.07183e-13
1.8788e-13
1.05743e-13
4.90208e-14
1.30173e-13
2.52668e-14
6.54968e-14
-3.58538e-14
8.30228e-14
-4.82318e-14
6.02674e-14
-5.1192e-15
6.28773e-14
-7.31608e-15
3.23919e-14
1.95206e-14
5.55596e-14
2.07602e-14
3.00503e-14
5.08198e-14
5.41133e-14
7.41308e-14
2.57305e-14
1.95964e-14
4.40368e-14
3.81302e-14
1.74712e-14
-6.46085e-14
-8.54237e-16
-1.58971e-13
9.06235e-14
4.52758e-12
2.52573e-12
2.38523e-12
2.77634e-12
2.31561e-12
1.53907e-12
1.49385e-12
1.67082e-12
1.60652e-12
8.37181e-13
9.10436e-13
9.2283e-13
1.01021e-12
6.77601e-13
5.48998e-13
5.29233e-13
7.10889e-13
5.50537e-13
2.98871e-13
3.86657e-13
4.1353e-13
3.36171e-13
1.61528e-13
2.68968e-13
3.14605e-13
2.9276e-13
1.30791e-13
1.15484e-13
2.24534e-13
2.33876e-13
1.19661e-13
5.40152e-14
1.55e-13
5.42287e-14
9.12585e-14
-1.08699e-14
5.43699e-14
1.09264e-14
4.0633e-14
-7.50315e-15
6.7064e-14
-1.76458e-14
3.68183e-14
2.92228e-14
7.12626e-14
1.11754e-14
5.34061e-14
4.10481e-14
5.97052e-14
9.45976e-14
3.39377e-14
2.26939e-14
4.90094e-14
3.93195e-14
-1.27309e-14
-1.19687e-14
-2.68812e-14
-1.41185e-13
6.29449e-14
4.09511e-12
3.50446e-12
2.60339e-12
3.64795e-12
2.5566e-12
2.10954e-12
1.58444e-12
2.20066e-12
1.60324e-12
1.2041e-12
9.20882e-13
1.24923e-12
1.01306e-12
9.17808e-13
5.30026e-13
6.91966e-13
6.7845e-13
7.06149e-13
3.02339e-13
4.73252e-13
4.47576e-13
4.58894e-13
1.74846e-13
2.99008e-13
3.12284e-13
3.64588e-13
1.30783e-13
1.24928e-13
2.14393e-13
2.81221e-13
1.1109e-13
6.4429e-14
1.40149e-13
8.44768e-14
7.53764e-14
1.83268e-14
8.43911e-14
2.24963e-14
5.40397e-14
7.46368e-15
6.64841e-14
-1.42652e-14
3.67451e-14
3.87025e-14
5.82446e-14
1.39929e-14
3.00754e-14
4.24981e-14
5.9568e-14
9.06784e-14
3.35232e-14
2.73679e-14
4.66872e-14
4.12244e-14
1.91774e-14
7.31972e-15
9.7375e-16
-1.19842e-13
6.33363e-14
4.04632e-12
4.46066e-12
2.58571e-12
4.50844e-12
2.53391e-12
2.6635e-12
1.58093e-12
2.73023e-12
1.58173e-12
1.57302e-12
9.13452e-13
1.57577e-12
1.00392e-12
1.14668e-12
5.23556e-13
8.64647e-13
6.68013e-13
8.53517e-13
3.02933e-13
5.6085e-13
4.46024e-13
5.72038e-13
1.77597e-13
3.36108e-13
3.13638e-13
4.2714e-13
1.28865e-13
1.47295e-13
2.11283e-13
3.2159e-13
1.09612e-13
7.96394e-14
1.35681e-13
1.13163e-13
7.42057e-14
4.70955e-14
8.33937e-14
3.23764e-14
5.51104e-14
2.10353e-14
6.61164e-14
-9.73599e-15
3.7325e-14
4.75547e-14
5.80806e-14
1.69832e-14
2.76726e-14
4.70853e-14
5.77658e-14
8.50188e-14
3.18794e-14
3.30925e-14
4.42331e-14
4.2855e-14
2.24503e-14
2.16664e-14
1.86825e-15
-9.65787e-14
6.48148e-14
3.99435e-12
5.39625e-12
2.56181e-12
5.36012e-12
2.49323e-12
3.21454e-12
1.56406e-12
3.25327e-12
1.55278e-12
1.93926e-12
9.02682e-13
1.89734e-12
9.90535e-13
1.36597e-12
5.12949e-13
1.04637e-12
6.53331e-13
9.9348e-13
2.98789e-13
6.49219e-13
4.4084e-13
6.75201e-13
1.82497e-13
3.7378e-13
3.10981e-13
4.87267e-13
1.26122e-13
1.78731e-13
2.06478e-13
3.56455e-13
1.06226e-13
9.93462e-14
1.28725e-13
1.41256e-13
7.67162e-14
6.89967e-14
8.5191e-14
4.16073e-14
5.50851e-14
3.70292e-14
6.56902e-14
-5.07608e-15
3.76625e-14
5.5956e-14
5.85297e-14
1.93065e-14
2.79673e-14
5.26819e-14
5.58044e-14
8.05456e-14
3.16969e-14
3.81574e-14
4.89445e-14
3.86002e-14
2.96724e-14
3.42152e-14
-5.32371e-15
-5.93276e-14
5.92764e-14
3.93157e-12
6.31149e-12
2.53066e-12
6.19892e-12
2.44154e-12
3.76767e-12
1.53563e-12
3.76916e-12
1.51961e-12
2.2964e-12
8.91934e-13
2.20895e-12
9.75901e-13
1.57755e-12
4.99462e-13
1.23822e-12
6.37165e-13
1.12515e-12
2.9335e-13
7.37675e-13
4.34752e-13
7.68481e-13
1.85341e-13
4.12686e-13
3.06606e-13
5.45117e-13
1.25167e-13
2.15252e-13
2.0089e-13
3.88825e-13
1.03663e-13
1.21561e-13
1.24186e-13
1.67461e-13
7.97759e-14
8.5687e-14
8.70115e-14
5.08388e-14
5.5393e-14
5.50753e-14
6.42704e-14
1.05757e-15
3.72068e-14
6.37035e-14
5.897e-14
2.01852e-14
3.0481e-14
5.70335e-14
5.71329e-14
7.62351e-14
3.41817e-14
4.31218e-14
5.27985e-14
3.20517e-14
3.74556e-14
4.34949e-14
-1.19672e-14
-8.04991e-15
4.72553e-14
3.85634e-12
7.20689e-12
2.49062e-12
7.02119e-12
2.38348e-12
4.32105e-12
1.5012e-12
4.27689e-12
1.48355e-12
2.6418e-12
8.76555e-13
2.51199e-12
9.5422e-13
1.78411e-12
5.03662e-13
1.41522e-12
6.27813e-13
1.25962e-12
2.87436e-13
8.33276e-13
4.30027e-13
8.50274e-13
1.8432e-13
4.57796e-13
2.96075e-13
6.03261e-13
1.24564e-13
2.50053e-13
1.95451e-13
4.192e-13
1.02512e-13
1.44748e-13
1.22923e-13
1.90137e-13
8.05707e-14
1.02543e-13
8.63332e-14
6.04031e-14
5.58916e-14
7.24399e-14
6.39378e-14
7.77309e-15
3.71548e-14
7.14926e-14
5.903e-14
2.03908e-14
3.25387e-14
6.02131e-14
5.94295e-14
7.06844e-14
3.82524e-14
4.73287e-14
4.49218e-14
3.65728e-14
3.493e-14
4.8044e-14
3.5111e-15
2.4847e-14
5.08603e-14
3.76716e-12
8.08327e-12
2.44071e-12
7.82317e-12
2.3237e-12
4.86669e-12
1.46723e-12
4.77403e-12
1.44641e-12
2.97717e-12
8.59981e-13
2.80651e-12
9.31923e-13
1.98508e-12
4.99083e-13
1.58553e-12
6.15756e-13
1.39082e-12
2.88724e-13
9.26104e-13
4.17188e-13
9.35938e-13
1.78284e-13
5.05931e-13
2.84761e-13
6.57594e-13
1.23219e-13
2.82921e-13
1.89062e-13
4.47984e-13
1.01195e-13
1.67924e-13
1.21169e-13
2.09784e-13
8.00589e-14
1.20249e-13
8.49324e-14
6.9796e-14
5.64511e-14
8.83087e-14
6.4191e-14
1.45375e-14
3.77982e-14
7.92413e-14
5.88446e-14
2.08339e-14
3.40317e-14
6.25576e-14
6.166e-14
6.33968e-14
3.9992e-14
5.30216e-14
4.10196e-14
4.58907e-14
4.74254e-14
3.67844e-14
2.07645e-14
5.26313e-14
7.18534e-14
3.666e-12
8.93987e-12
2.38189e-12
8.60232e-12
2.26034e-12
5.39917e-12
1.4307e-12
5.25958e-12
1.40859e-12
3.30054e-12
8.41596e-13
3.09377e-12
9.07429e-13
2.18071e-12
4.90433e-13
1.75119e-12
5.99611e-13
1.51864e-12
2.86525e-13
1.01567e-12
4.038e-13
1.02247e-12
1.74044e-13
5.54762e-13
2.74067e-13
7.0934e-13
1.21637e-13
3.14607e-13
1.81855e-13
4.75908e-13
9.89549e-14
1.91026e-13
1.18282e-13
2.26769e-13
7.91179e-14
1.3798e-13
8.36568e-14
7.85328e-14
5.69311e-14
1.02866e-13
6.47682e-14
2.09293e-14
3.89128e-14
8.68415e-14
5.82868e-14
2.2316e-14
3.53813e-14
6.38672e-14
5.77509e-14
6.03597e-14
3.81338e-14
5.7646e-14
3.98099e-14
5.37412e-14
3.07172e-14
4.15835e-14
1.34152e-14
7.07252e-14
8.5619e-14
3.55479e-12
9.77485e-12
2.31472e-12
9.3576e-12
2.19107e-12
5.91577e-12
1.38969e-12
5.7323e-12
1.36984e-12
3.60818e-12
8.23317e-13
3.37294e-12
8.79378e-13
2.37443e-12
4.79314e-13
1.91131e-12
5.8201e-13
1.64186e-12
2.82806e-13
1.10218e-12
3.91214e-13
1.10743e-12
1.72258e-13
6.02687e-13
2.60698e-13
7.63649e-13
1.18273e-13