/*--------------------------------*- C++ -*----------------------------------*\
| =========                 |                                                 |
| \\      /  F ield         | OpenFOAM: The Open Source CFD Toolbox           |
|  \\    /   O peration     | Version:  2.4.0                                 |
|   \\  /    A nd           | Web:      www.OpenFOAM.org                      |
|    \\/     M anipulation  |                                                 |
\*---------------------------------------------------------------------------*/
FoamFile
{
    version     2.0;
    format      ascii;
    class       surfaceScalarField;
    location    "0.043";
    object      phiAlpha;
}
// * * * * * * * * * * * * * * * * * * * * * * * * * * * * * * * * * * * * * //

dimensions      [0 3 -1 0 0 0 0];

internalField   nonuniform List<scalar> 
28560
(
-6.30209e-10
1.6329e-09
-1.00269e-09
1.39915e-09
-2.0897e-09
6.90544e-10
2.89096e-09
-3.73914e-09
8.48186e-10
4.73739e-09
-5.78276e-09
1.04536e-09
6.9553e-09
-8.07413e-09
1.11883e-09
9.1369e-09
-9.86422e-09
7.27327e-10
1.01444e-08
-9.76965e-09
-3.74774e-10
8.56305e-09
-6.55115e-09
-2.01189e-09
3.4956e-09
3.05824e-10
-3.80143e-09
-4.96482e-09
1.00083e-08
-5.04344e-09
-1.58061e-08
2.15557e-08
-5.74957e-09
-2.77175e-08
3.35666e-08
-5.84904e-09
-3.95768e-08
4.50722e-08
-5.49544e-09
-5.0552e-08
5.53913e-08
-4.83932e-09
-6.00463e-08
6.39852e-08
-3.9389e-09
-6.75706e-08
7.042e-08
-2.84946e-09
-7.27858e-08
7.44286e-08
-1.64276e-09
-7.5501e-08
7.58991e-08
-3.98052e-10
-7.56931e-08
7.48941e-08
7.98971e-10
-7.34722e-08
7.16202e-08
1.85193e-09
-6.91847e-08
6.64669e-08
2.71788e-09
-6.3247e-08
5.99123e-08
3.33475e-09
-5.61709e-08
5.24569e-08
3.71397e-09
-4.84395e-08
4.45705e-08
3.86906e-09
-4.04823e-08
3.66238e-08
3.85845e-09
-3.26205e-08
2.88967e-08
3.72384e-09
-2.5079e-08
2.15647e-08
3.51424e-09
-1.7996e-08
1.47346e-08
3.26133e-09
-1.14446e-08
8.45402e-09
2.99059e-09
-5.44898e-09
2.73247e-09
2.71651e-09
-2.75194e-09
3.90423e-09
-1.15229e-09
2.46498e-09
-3.72858e-09
-1.81184e-09
3.07544e-09
5.20906e-09
-6.80589e-09
-2.24595e-09
3.84278e-09
8.72229e-09
-1.07779e-08
-2.81223e-09
4.86785e-09
1.31673e-08
-1.55863e-08
-3.13174e-09
5.55076e-09
1.8151e-08
-2.03889e-08
-2.42651e-09
4.66438e-09
2.22846e-08
-2.33906e-08
-7.30231e-11
1.17901e-09
2.36061e-08
-2.27407e-08
3.61564e-09
-4.48096e-09
2.06324e-08
-1.75067e-08
7.7028e-09
-1.08285e-08
1.31156e-08
-8.11708e-09
1.09138e-08
-1.59124e-08
2.15603e-09
3.95549e-09
1.25649e-08
-1.86764e-08
-1.05837e-08
1.69903e-08
1.29987e-08
-1.94054e-08
-2.3783e-08
3.01249e-08
1.24273e-08
-1.87693e-08
-3.66515e-08
4.26076e-08
1.1156e-08
-1.71121e-08
-4.85632e-08
5.38347e-08
9.30928e-09
-1.45808e-08
-5.8928e-08
6.32607e-08
7.04739e-09
-1.13801e-08
-6.72207e-08
7.03906e-08
4.42984e-09
-7.59976e-09
-7.3037e-08
7.48656e-08
1.69331e-09
-3.52195e-09
-7.60732e-08
7.65063e-08
-1.01552e-09
5.82415e-10
-7.62434e-08
7.53311e-08
-3.44195e-09
4.35425e-09
-7.37251e-08
7.16341e-08
-5.47954e-09
7.57045e-09
-6.89153e-08
6.58958e-08
-6.99271e-09
1.00123e-08
-6.23557e-08
5.86945e-08
-7.97599e-09
1.16372e-08
-5.46102e-08
5.05733e-08
-8.45223e-09
1.24891e-08
-4.62161e-08
4.20282e-08
-8.53663e-09
1.27245e-08
-3.76107e-08
3.345e-08
-8.32167e-09
1.24824e-08
-2.91339e-08
2.51223e-08
-7.91189e-09
1.19234e-08
-2.10151e-08
1.7238e-08
-7.38092e-09
1.1158e-08
-1.34071e-08
9.91281e-09
-6.79091e-09
1.02852e-08
-6.39157e-09
3.20487e-09
-6.17751e-09
9.36421e-09
-5.06365e-09
6.22233e-09
-1.15868e-09
2.55783e-09
-3.87366e-09
-4.38176e-09
5.69759e-09
5.42295e-09
-7.10213e-09
-5.50443e-09
7.18361e-09
9.12815e-09
-1.13156e-08
-7.0251e-09
9.21255e-09
1.38796e-08
-1.65065e-08
-8.12654e-09
1.07535e-08
1.93415e-08
-2.18887e-08
-7.12943e-09
9.67661e-09
2.41667e-08
-2.56888e-08
-2.58754e-09
4.10963e-09
2.63944e-08
-2.60385e-08
4.97453e-09
-5.33045e-09
2.45066e-08
-2.19561e-08
1.35296e-08
-1.60801e-08
1.82077e-08
-1.38351e-08
2.04434e-08
-2.4816e-08
8.5702e-09
-3.16762e-09
2.42482e-08
-2.96508e-08
-2.79508e-09
8.58629e-09
2.53566e-08
-3.11478e-08
-1.4738e-08
2.05706e-08
2.47252e-08
-3.05577e-08
-2.66385e-08
3.22652e-08
2.28056e-08
-2.84324e-08
-3.79931e-08
4.31695e-08
1.97523e-08
-2.49286e-08
-4.82764e-08
5.27308e-08
1.57426e-08
-2.0197e-08
-5.68955e-08
6.03552e-08
1.09379e-08
-1.43977e-08
-6.33658e-08
6.55927e-08
5.61714e-09
-7.84404e-09
-6.72224e-08
6.81172e-08
1.81228e-10
-1.07602e-09
-6.8323e-08
6.78873e-08
-4.93679e-09
5.3725e-09
-6.67732e-08
6.51423e-08
-9.30247e-09
1.09334e-08
-6.28937e-08
6.03135e-08
-1.26804e-08
1.52606e-08
-5.72246e-08
5.39783e-08
-1.49601e-08
1.82064e-08
-5.03179e-08
4.66669e-08
-1.62084e-08
1.98594e-08
-4.27042e-08
3.88747e-08
-1.66231e-08
2.04526e-08
-3.48226e-08
3.09932e-08
-1.63733e-08
2.02027e-08
-2.70111e-08
2.33031e-08
-1.5686e-08
1.9394e-08
-1.95012e-08
1.60014e-08
-1.47071e-08
1.8207e-08
-1.24491e-08
9.20614e-09
-1.35726e-08
1.68156e-08
-5.93733e-09
2.97705e-09
-1.23649e-08
1.53252e-08
-7.37814e-09
8.52989e-09
-1.15176e-09
2.55883e-09
-3.87173e-09
-7.0133e-09
8.3262e-09
5.4205e-09
-7.10063e-09
-8.86626e-09
1.05464e-08
9.13029e-09
-1.13254e-08
-1.14076e-08
1.36027e-08
1.39046e-08
-1.6558e-08
-1.33973e-08
1.60508e-08
1.94371e-08
-2.20414e-08
-1.22578e-08
1.48621e-08
2.43933e-08
-2.59952e-08
-5.67975e-09
7.28164e-09
2.67905e-08
-2.65188e-08
5.63355e-09
-5.90525e-09
2.50691e-08
-2.25812e-08
1.85848e-08
-2.10727e-08
1.88873e-08
-1.45481e-08
2.91536e-08
-3.34928e-08
9.31696e-09
-3.94021e-09
3.50203e-08
-4.03971e-08
-2.01671e-09
7.75368e-09
3.69115e-08
-4.26485e-08
-1.38867e-08
1.97148e-08
3.63661e-08
-4.21942e-08
-2.57904e-08
3.14704e-08
3.40706e-08
-3.97506e-08
-3.72689e-08
4.25379e-08
3.01481e-08
-3.54171e-08
-4.77668e-08
5.23348e-08
2.46938e-08
-2.92618e-08
-5.67018e-08
6.02998e-08
1.7909e-08
-2.1507e-08
-6.35149e-08
6.59286e-08
1.01636e-08
-1.25773e-08
-6.77704e-08
6.88239e-08
2.05857e-09
-3.11208e-09
-6.92119e-08
6.89029e-08
-5.7462e-09
6.05519e-09
-6.79071e-08
6.63663e-08
-1.25166e-08
1.40573e-08
-6.41822e-08
6.16427e-08
-1.78098e-08
2.03493e-08
-5.85444e-08
5.52834e-08
-2.14501e-08
2.47111e-08
-5.15766e-08
4.7871e-08
-2.35203e-08
2.72259e-08
-4.38288e-08
3.99249e-08
-2.43073e-08
2.82113e-08
-3.57834e-08
3.1858e-08
-2.40623e-08
2.79877e-08
-2.77781e-08
2.39731e-08
-2.31339e-08
2.69389e-08
-2.00692e-08
1.64709e-08
-2.17392e-08
2.53375e-08
-1.28159e-08
9.47797e-09
-2.00904e-08
2.34284e-08
-6.11241e-09
3.06387e-09
-1.8315e-08
2.13636e-08
-9.67719e-09
1.08191e-08
-1.14191e-09
2.55243e-09
-3.85652e-09
-9.63521e-09
1.09393e-08
5.39822e-09
-7.07201e-09
-1.22227e-08
1.38965e-08
9.0961e-09
-1.12889e-08
-1.5796e-08
1.79888e-08
1.38715e-08
-1.65405e-08
-1.87122e-08
2.13812e-08
1.94534e-08
-2.21054e-08
-1.74889e-08
2.01408e-08
2.452e-08
-2.6189e-08
-8.91503e-09
1.0584e-08
2.70567e-08
-2.68467e-08
6.14743e-09
-6.35741e-09
2.54474e-08
-2.29827e-08
2.3549e-08
-2.60136e-08
1.92878e-08
-1.49221e-08
3.78432e-08
-4.22089e-08
9.65321e-09
-4.23704e-09
4.57911e-08
-5.12073e-08
-1.72392e-09
7.52844e-09
4.84211e-08
-5.42256e-08
-1.36876e-08
1.95521e-08
4.80396e-08
-5.39041e-08
-2.56914e-08
3.14272e-08
4.54522e-08
-5.11879e-08
-3.73005e-08
4.26893e-08
4.07402e-08
-4.61291e-08
-4.80586e-08
5.27829e-08
3.39036e-08
-3.8628e-08
-5.73312e-08
6.11446e-08
2.51984e-08
-2.90118e-08
-6.45789e-08
6.7221e-08
1.50968e-08
-1.77389e-08
-6.93083e-08
7.05836e-08
4.24772e-09
-5.52294e-09
-7.11872e-08
7.10463e-08
-6.28397e-09
6.42481e-09
-7.0216e-08
6.87854e-08
-1.55482e-08
1.69787e-08
-6.66703e-08
6.4145e-08
-2.28704e-08
2.53957e-08
-6.10445e-08
5.77229e-08
-2.80078e-08
3.13294e-08
-5.39236e-08
5.01039e-08
-3.09858e-08
3.48055e-08
-4.5925e-08
4.18618e-08
-3.21885e-08
3.62517e-08
-3.7555e-08
3.34632e-08
-3.19841e-08
3.60759e-08
-2.9194e-08
2.52106e-08
-3.08269e-08
3.48102e-08
-2.11152e-08
1.73358e-08
-2.90184e-08
3.27979e-08
-1.34942e-08
9.98146e-09
-2.68457e-08
3.03584e-08
-6.43725e-09
3.22602e-09
-2.44862e-08
2.76975e-08
-1.19551e-08
1.30844e-08
-1.12939e-09
2.54362e-09
-3.83606e-09
-1.22378e-08
1.35303e-08
5.36828e-09
-7.03331e-09
-1.55668e-08
1.72319e-08
9.04948e-09
-1.12381e-08
-2.01805e-08
2.23692e-08
1.38235e-08
-1.65104e-08
-2.40585e-08
2.67454e-08
1.94646e-08
-2.21755e-08
-2.28207e-08
2.55316e-08
2.46685e-08
-2.64212e-08
-1.22928e-08
1.40455e-08
2.738e-08
-2.72473e-08
6.53103e-09
-6.66367e-09
2.5911e-08
-2.3475e-08
2.84649e-08
-3.09008e-08
1.97749e-08
-1.53727e-08
4.6592e-08
-5.09942e-08
1.00506e-08
-4.58182e-09
5.66483e-08
-6.21171e-08
-1.43185e-09
7.25755e-09
6.00564e-08
-6.58821e-08
-1.34637e-08
1.93656e-08
5.97879e-08
-6.56898e-08
-2.55631e-08
3.1376e-08
5.69607e-08
-6.27736e-08
-3.73733e-08
4.28605e-08
5.15566e-08
-5.70438e-08
-4.8407e-08
5.33223e-08
4.34435e-08
-4.83588e-08
-5.81028e-08
6.21727e-08
3.2948e-08
-3.7018e-08
-6.58989e-08
6.88344e-08
2.05209e-08
-2.34565e-08
-7.12316e-08
7.28274e-08
6.94234e-09
-8.53819e-09
-7.37222e-08
7.38352e-08
-6.42224e-09
6.30927e-09
-7.31946e-08
7.19142e-08
-1.83396e-08
1.962e-08
-6.99189e-08
6.74537e-08
-2.78927e-08
3.03579e-08
-6.43259e-08
6.09325e-08
-3.46744e-08
3.80678e-08
-5.70152e-08
5.30434e-08
-3.86935e-08
4.26653e-08
-4.86825e-08
4.4429e-08
-4.03956e-08
4.4649e-08
-3.98985e-08
3.55877e-08
-4.02718e-08
4.45827e-08
-3.10807e-08
2.6859e-08
-3.89048e-08
4.31266e-08
-2.25147e-08
1.84947e-08
-3.66902e-08
4.07102e-08
-1.44021e-08
1.06557e-08
-3.39796e-08
3.7726e-08
-6.87277e-09
3.44336e-09
-3.10106e-08
3.444e-08
-1.42067e-08
1.53209e-08
-1.11419e-09
2.53311e-09
-3.81148e-09
-1.48162e-08
1.60946e-08
5.33206e-09
-6.98652e-09
-1.88914e-08
2.05458e-08
8.99288e-09
-1.11764e-08
-2.45551e-08
2.67386e-08
1.37642e-08
-1.64723e-08
-2.94429e-08
3.2151e-08
1.94763e-08
-2.22591e-08
-2.8277e-08
3.10597e-08
2.48478e-08
-2.67032e-08
-1.58471e-08
1.77026e-08
2.77739e-08
-2.77366e-08
6.75092e-09
-6.78818e-09
2.64793e-08
-2.40797e-08
3.33198e-08
-3.57194e-08
2.03717e-08
-1.59233e-08
5.54183e-08
-5.98667e-08
1.05331e-08
-4.9996e-09
6.76174e-08
-7.31509e-08
-1.06156e-09
6.93498e-09
7.17061e-08
-7.75795e-08
-1.31758e-08
1.91239e-08
7.16123e-08
-7.75604e-08
-2.53855e-08
3.12785e-08
6.86287e-08
-7.45218e-08
-3.74086e-08
4.30677e-08
6.2621e-08
-6.82801e-08
-4.87776e-08
5.39458e-08
5.34041e-08
-5.85723e-08
-5.89927e-08
6.33685e-08
4.12349e-08
-4.56107e-08
-6.74381e-08
7.0771e-08
2.65534e-08
-2.98864e-08
-7.35938e-08
7.55533e-08
1.02819e-08
-1.22414e-08
-7.68065e-08
7.72573e-08
-6.06272e-09
5.61199e-09
-7.69148e-08
7.58505e-08
-2.07965e-08
2.18608e-08
-7.40034e-08
7.16035e-08
-3.28086e-08
3.52086e-08
-6.84601e-08
6.49976e-08
-4.14974e-08
4.49599e-08
-6.09222e-08
5.67622e-08
-4.67252e-08
5.08852e-08
-5.21595e-08
4.7667e-08
-4.90182e-08
5.35107e-08
-4.28623e-08
3.8289e-08
-4.90234e-08
5.35966e-08
-3.34857e-08
2.89755e-08
-4.7485e-08
5.19952e-08
-2.43142e-08
1.99917e-08
-4.48721e-08
4.91946e-08
-1.55772e-08
1.15295e-08
-4.16128e-08
4.56605e-08
-7.4374e-09
3.72552e-09
-3.80021e-08
4.1714e-08
-1.64266e-08
1.75231e-08
-1.09645e-09
2.52043e-09
-3.78198e-09
-1.73648e-08
1.86263e-08
5.2886e-09
-6.9303e-09
-2.21944e-08
2.38361e-08
8.92474e-09
-1.1101e-08
-2.89189e-08
3.10952e-08
1.36906e-08
-1.64219e-08
-3.48702e-08
3.76015e-08
1.94839e-08
-2.23511e-08
-3.38831e-08
3.67503e-08
2.50527e-08
-2.70298e-08
-1.96164e-08
2.15935e-08
2.82342e-08
-2.83114e-08
6.77075e-09
-6.69349e-09
2.71505e-08
-2.47965e-08
3.80974e-08
-4.04514e-08
2.1079e-08
-1.65738e-08
6.43416e-08
-6.88468e-08
1.10999e-08
-5.48895e-09
7.87208e-08
-8.43318e-08
-6.73872e-10
6.55091e-09
8.34957e-08
-8.93728e-08
-1.28306e-08
1.88202e-08
8.35297e-08
-8.95192e-08
-2.51476e-08
3.11432e-08
8.04692e-08
-8.64648e-08
-3.74017e-08
4.32328e-08
7.40227e-08
-7.98538e-08
-4.91893e-08
5.45993e-08
6.38504e-08
-6.92604e-08
-5.9967e-08
6.46983e-08
5.01576e-08
-5.4889e-08
-6.9215e-08
7.29958e-08
3.3443e-08
-3.72239e-08
-7.63097e-08
7.87503e-08
1.44292e-08
-1.68698e-08
-8.05031e-08
8.1339e-08
-4.99279e-09
4.15686e-09
-8.13721e-08
8.05954e-08
-2.27867e-08
2.35633e-08
-7.8978e-08
7.6696e-08
-3.7547e-08
3.98291e-08
-7.35821e-08
7.00157e-08
-4.8481e-08
5.20474e-08
-6.57433e-08
6.13295e-08
-5.51653e-08
5.95792e-08
-5.64338e-08
5.16421e-08
-5.81482e-08
6.294e-08
-4.65251e-08
4.16372e-08
-5.83259e-08
6.32138e-08
-3.64959e-08
3.16379e-08
-5.66676e-08
6.15256e-08
-2.65945e-08
2.18899e-08
-5.36996e-08
5.84042e-08
-1.70698e-08
1.26388e-08
-4.98871e-08
5.43182e-08
-8.1534e-09
4.08249e-09
-4.55944e-08
4.96653e-08
-1.86096e-08
1.96855e-08
-1.07592e-09
2.50565e-09
-3.74775e-09
-1.98785e-08
2.11206e-08
5.23803e-09
-6.86464e-09
-2.54705e-08
2.70971e-08
8.84468e-09
-1.10122e-08
-3.32667e-08
3.54342e-08
1.36018e-08
-1.6358e-08
-4.03452e-08
4.31015e-08
1.9486e-08
-2.24502e-08
-3.96644e-08
4.26286e-08
2.52822e-08
-2.74003e-08
-2.36386e-08
2.57568e-08
2.87612e-08
-2.8973e-08
6.55153e-09
-6.33972e-09
2.7928e-08
-2.56298e-08
4.27788e-08
-4.50769e-08
2.19012e-08
-1.73271e-08
7.33847e-08
-7.79588e-08
1.17513e-08
-6.04987e-09
8.9986e-08
-9.56875e-08
-1.45748e-10
6.12168e-09
9.53077e-08
-1.01284e-07
-1.24193e-08
1.84505e-08
9.55316e-08
-1.01563e-07
-2.48407e-08
3.09326e-08
9.25083e-08
-9.86001e-08
-3.73394e-08
4.33559e-08
8.57812e-08
-9.17977e-08
-4.95664e-08
5.52646e-08
7.48109e-08
-8.05091e-08
-6.09941e-08
6.61329e-08
5.98173e-08
-6.49562e-08
-7.11445e-08
7.54543e-08
4.12659e-08
-4.55757e-08
-7.94185e-08
8.24464e-08
1.95907e-08
-2.26186e-08
-8.47709e-08
8.6108e-08
-3.07013e-09
1.73303e-09
-8.66186e-08
8.623e-08
-2.41488e-08
2.45374e-08
-8.49455e-08
8.28622e-08
-4.20049e-08
4.40881e-08
-7.98234e-08
7.61479e-08
-5.56659e-08
5.93415e-08
-7.15994e-08
6.68438e-08
-6.41456e-08
6.89012e-08
-6.15545e-08
5.64085e-08
-6.78946e-08
7.30406e-08
-5.09416e-08
4.57289e-08
-6.8263e-08
7.34757e-08
-4.02239e-08
3.49845e-08
-6.65676e-08
7.18069e-08
-2.9485e-08
2.43027e-08
-6.33325e-08
6.85149e-08
-1.89454e-08
1.40169e-08
-5.89781e-08
6.39066e-08
-9.03484e-09
4.52004e-09
-5.39518e-08
5.84666e-08
-2.07502e-08
2.18027e-08
-1.05256e-09
2.4893e-09
-3.70943e-09
-2.23523e-08
2.35724e-08
5.18106e-09
-6.79078e-09
-2.87156e-08
3.03253e-08
8.75435e-09
-1.09111e-08
-3.75969e-08
3.97537e-08
1.34994e-08
-1.6282e-08
-4.5871e-08
4.86536e-08
1.94842e-08
-2.25588e-08
-4.56465e-08
4.87211e-08
2.55396e-08
-2.78189e-08
-2.7953e-08
3.02323e-08
2.93605e-08
-2.9728e-08
6.05267e-09
-5.68517e-09
2.88207e-08
-2.65902e-08
4.7343e-08
-4.95735e-08
2.28479e-08
-1.81896e-08
8.2573e-08
-8.72313e-08
1.24895e-08
-6.67854e-09
1.01441e-07
-1.07252e-07
3.99663e-10
5.60274e-09
1.07267e-07
-1.13269e-07
-1.1972e-08
1.80154e-08
1.07612e-07
-1.13655e-07
-2.44619e-08
3.06499e-08
1.04738e-07
-1.10926e-07
-3.72143e-08
4.34356e-08
9.79108e-08
-1.04132e-07
-4.99023e-08
5.59264e-08
8.63625e-08
-9.23866e-08
-6.20485e-08
6.76485e-08
7.03196e-08
-7.59196e-08
-7.3198e-08
7.82046e-08
5.02228e-08
-5.52294e-08
-8.28578e-08
8.66256e-08
2.59609e-08
-2.97287e-08
-8.96545e-08
9.16152e-08
-7.14589e-11
-1.88931e-09
-9.27034e-08
9.28297e-08
-2.46823e-08
2.4556e-08
-9.20447e-08
9.03033e-08
-4.59976e-08
4.7739e-08
-8.74598e-08
8.36596e-08
-6.3079e-08
6.68792e-08
-7.86918e-08
7.34187e-08
-7.38855e-08
7.91587e-08
-6.7574e-08
6.19878e-08
-7.83998e-08
8.3986e-08
-5.61871e-08
5.06922e-08
-7.88295e-08
8.43244e-08
-4.48646e-08
3.9281e-08
-7.72504e-08
8.28341e-08
-3.32706e-08
2.73956e-08
-7.39492e-08
7.98242e-08
-2.12143e-08
1.55711e-08
-6.91242e-08
7.47674e-08
-9.98133e-09
4.9805e-09
-6.32877e-08
6.82885e-08
-2.28427e-08
2.38691e-08
-1.02644e-09
2.47106e-09
-3.66655e-09
-2.47803e-08
2.59758e-08
5.11705e-09
-6.70737e-09
-3.19258e-08
3.35162e-08
8.65194e-09
-1.07959e-08
-4.19041e-08
4.40481e-08
1.338e-08
-1.61895e-08
-5.14493e-08
5.42588e-08
1.94729e-08
-2.26709e-08
-5.18556e-08
5.50536e-08
2.58188e-08
-2.82795e-08
-3.25997e-08
3.50604e-08
3.00274e-08
-3.05729e-08
5.23156e-09
-4.68606e-09
2.98285e-08
-2.76796e-08
5.17649e-08
-5.39139e-08
2.3922e-08
-1.9162e-08
9.19378e-08
-9.66978e-08
1.33117e-08
-7.37065e-09
1.13125e-07
-1.19066e-07
9.98803e-10
5.04538e-09
1.19321e-07
-1.25365e-07
-1.14111e-08
1.74966e-08
1.19735e-07
-1.2582e-07
-2.40003e-08
3.02867e-08
1.1716e-07
-1.23446e-07
-3.69989e-08
4.34331e-08
1.10459e-07
-1.16893e-07
-5.01996e-08
5.65514e-08
9.85478e-08
-1.049e-07
-6.30736e-08
6.91876e-08
8.17695e-08
-8.78835e-08
-7.52919e-08
8.11252e-08
6.06258e-08
-6.64592e-08
-8.6679e-08
9.12922e-08
3.3862e-08
-3.84752e-08
-9.51413e-08
9.78554e-08
4.19633e-09
-6.91037e-09
-9.96362e-08
1.00431e-07
-2.41151e-08
2.33201e-08
-1.00383e-07
9.92336e-08
-4.92192e-08
5.03689e-08
-9.68822e-08
9.29937e-08
-7.07423e-08
7.46309e-08
-8.7279e-08
8.12092e-08
-8.47896e-08
9.08593e-08
-7.44571e-08
6.84022e-08
-8.98106e-08
9.58655e-08
-6.2414e-08
5.67236e-08
-8.98302e-08
9.55206e-08
-5.0686e-08
4.47166e-08
-8.86765e-08
9.4646e-08
-3.80255e-08
3.13191e-08
-8.59023e-08
9.26087e-08
-2.39967e-08
1.70753e-08
-8.0643e-08
8.75643e-08
-1.03637e-08
4.88657e-09
-7.39264e-08
7.94035e-08
-2.48813e-08
2.58787e-08
-9.97338e-10
2.45107e-09
-3.61916e-09
-2.71582e-08
2.83263e-08
5.04573e-09
-6.61464e-09
-3.50959e-08
3.66648e-08
8.53734e-09
-1.0666e-08
-4.61848e-08
4.83134e-08
1.32424e-08
-1.60784e-08
-5.70819e-08
5.99179e-08
1.94498e-08
-2.27844e-08
-5.83183e-08
6.16529e-08
2.61182e-08
-2.87807e-08
-3.76194e-08
4.02819e-08
3.07621e-08
-3.15088e-08
4.04291e-09
-3.29622e-09
3.09563e-08
-2.89059e-08
5.60159e-08
-5.80663e-08
2.51314e-08
-2.02494e-08
1.01516e-07
-1.06398e-07
1.42173e-08
-8.12159e-09
1.25081e-07
-1.31177e-07
1.64689e-09
4.43953e-09
1.31434e-07
-1.3752e-07
-1.08042e-08
1.69e-08
1.31919e-07
-1.38015e-07
-2.34327e-08
2.97968e-08
1.29769e-07
-1.36133e-07
-3.66747e-08
4.33286e-08
1.23438e-07
-1.30091e-07
-5.03863e-08
5.71029e-08
1.11428e-07
-1.18144e-07
-6.40317e-08
7.06935e-08
9.42722e-08
-1.00934e-07
-7.72919e-08
8.41885e-08
7.2788e-08
-7.96846e-08
-9.07739e-08
9.64649e-08
4.35863e-08
-4.92773e-08
-1.01269e-07
1.04849e-07
1.00366e-08
-1.36166e-08
-1.07381e-07
1.09029e-07
-2.21162e-08
2.04685e-08
-1.10125e-07
1.09881e-07
-5.1121e-08
5.13645e-08
-1.08784e-07
1.05112e-07
-7.84965e-08
8.21693e-08
-9.79261e-08
9.07346e-08
-9.74688e-08
1.0466e-07
-8.24816e-08
7.65102e-08
-1.02081e-07
1.08053e-07
-7.0525e-08
6.48357e-08
-1.00737e-07
1.06426e-07
-5.7581e-08
4.70472e-08
-9.96278e-08
1.10162e-07
-3.68597e-08
3.18661e-08
-1.00882e-07
1.05875e-07
-2.62874e-08
1.80514e-08
-9.40838e-08
1.0232e-07
-8.92014e-09
3.14086e-09
-8.626e-08
9.20393e-08
-2.68603e-08
2.78254e-08
-9.65045e-10
2.42988e-09
-3.56807e-09
-2.94796e-08
3.06178e-08
4.96824e-09
-6.51343e-09
-3.82225e-08
3.97677e-08
8.41215e-09
-1.05231e-08
-5.04337e-08
5.25446e-08
1.30878e-08
-1.59495e-08
-6.2767e-08
6.56287e-08
1.94161e-08
-2.29011e-08
-6.50612e-08
6.85462e-08
2.64405e-08
-2.93259e-08
-4.30534e-08
4.59388e-08
3.15706e-08
-3.25428e-08
2.43974e-09
-1.46759e-09
3.22162e-08
-3.02842e-08
6.00603e-08
-6.19924e-08
2.64908e-08
-2.1461e-08
1.11351e-07
-1.16381e-07
1.52079e-08
-8.92642e-09
1.37362e-07
-1.43643e-07
2.33601e-09
3.79333e-09
1.43621e-07
-1.4975e-07
-1.01357e-08
1.62224e-08
1.44079e-07
-1.50166e-07
-2.27648e-08
2.91997e-08
1.42524e-07
-1.48959e-07
-3.62268e-08
4.31039e-08
1.36857e-07
-1.43734e-07
-5.04774e-08
5.75646e-08
1.25038e-07
-1.32125e-07
-6.48593e-08
7.21793e-08
1.07921e-07
-1.15241e-07
-7.90063e-08
8.74579e-08
8.72948e-08
-9.57464e-08
-9.51537e-08
1.02235e-07
5.55903e-08
-6.26718e-08
-1.08206e-07
1.12805e-07
1.7688e-08
-2.22875e-08
-1.16104e-07
1.18834e-07
-1.83125e-08
1.55817e-08
-1.2141e-07
1.2236e-07
-5.10223e-08
5.00719e-08
-1.2387e-07
1.21713e-07
-8.53394e-08
8.74962e-08
-1.11501e-07
1.02866e-07
-1.12383e-07
1.21018e-07
-9.26015e-08
8.83779e-08
-1.13558e-07
1.17782e-07
-8.27451e-08
7.9444e-08
-1.10652e-07
1.13954e-07
-7.43533e-08
6.95834e-08
-1.1116e-07
1.1593e-07
-6.26775e-08
5.24082e-08
-1.19096e-07
1.29365e-07
-4.13164e-08
3.14368e-08
-1.11837e-07
1.21716e-07
-2.0847e-08
1.05573e-08
-1.00513e-07
1.10803e-07
-2.87732e-08
2.9703e-08
-9.29762e-10
2.40727e-09
-3.51282e-09
-3.17403e-08
3.28458e-08
4.88352e-09
-6.40303e-09
-4.12999e-08
4.28195e-08
8.27443e-09
-1.0365e-08
-5.46453e-08
5.67359e-08
1.29124e-08
-1.57974e-08
-6.85024e-08
7.13874e-08
1.93656e-08
-2.30137e-08
-7.21108e-08
7.5759e-08
2.67789e-08
-2.9908e-08
-4.89432e-08
5.20722e-08
3.2448e-08
-3.36693e-08
3.74352e-10
8.46928e-10
3.36094e-08
-3.18207e-08
6.3856e-08
-6.56447e-08
2.80077e-08
-2.28002e-08
1.21495e-07
-1.26702e-07
1.62791e-08
-9.77549e-09
1.5003e-07
-1.56534e-07
3.0562e-09
3.11097e-09
1.55876e-07
-1.62043e-07
-9.40232e-09
1.545e-08
1.56215e-07
-1.62263e-07
-2.19778e-08
2.84624e-08
1.55419e-07
-1.61903e-07
-3.56261e-08
4.27336e-08
1.50718e-07
-1.57826e-07
-5.04074e-08
5.78962e-08
1.39409e-07
-1.46898e-07
-6.54965e-08
7.35494e-08
1.22917e-07
-1.3097e-07
-8.0189e-08
9.08786e-08
1.05209e-07
-1.15899e-07
-9.98579e-08
1.0901e-07
7.06577e-08
-7.98103e-08
-1.16683e-07
1.2268e-07
2.74973e-08
-3.34949e-08
-1.26773e-07
1.31282e-07
-1.21011e-08
7.59215e-09
-1.34923e-07
1.37008e-07
-4.86435e-08
4.65589e-08
-1.41757e-07
1.44261e-07
-8.84415e-08
8.59372e-08
-1.31668e-07
1.23244e-07
-1.28401e-07
1.36826e-07
-1.21766e-07
1.12336e-07
-1.23518e-07
1.32949e-07
-9.66981e-08
7.80065e-08
-1.22324e-07
1.41015e-07
-5.58033e-08
3.81153e-08
-1.26102e-07
1.4379e-07
-2.88706e-08
2.7234e-08
-1.38575e-07
1.40211e-07
-2.49891e-08
2.05956e-08
-1.28676e-07
1.33069e-07
-1.36693e-08
7.06369e-09
-1.1723e-07
1.23835e-07
-3.06138e-08
3.15048e-08
-8.90997e-10
2.3834e-09
-3.45352e-09
-3.39338e-08
3.5004e-08
4.79159e-09
-6.28304e-09
-4.43255e-08
4.58169e-08
8.12438e-09
-1.01916e-08
-5.88152e-08
6.08824e-08
1.27149e-08
-1.56193e-08
-7.42827e-08
7.71871e-08
1.92955e-08
-2.31195e-08
-7.94936e-08
8.33176e-08
2.71313e-08
-3.05237e-08
-5.53309e-08
5.87234e-08
3.33937e-08
-3.48887e-08
-2.20229e-09
3.69724e-09
3.51441e-08
-3.35285e-08
6.73509e-08
-6.89665e-08
2.9697e-08
-2.42757e-08
1.32012e-07
-1.37433e-07
1.74284e-08
-1.06571e-08
1.63165e-07
-1.69936e-07
3.79397e-09
2.38246e-09
1.68185e-07
-1.74362e-07
-8.60189e-09
1.45717e-08
1.68258e-07
-1.74228e-07
-2.10581e-08
2.75657e-08
1.68403e-07
-1.7491e-07
-3.48472e-08
4.2195e-08
1.6501e-07
-1.72358e-07
-5.01561e-08
5.80721e-08
1.54594e-07
-1.6251e-07
-6.59557e-08
7.47466e-08
1.39406e-07
-1.48197e-07
-8.05736e-08
9.4505e-08
1.28087e-07
-1.42018e-07
-1.05576e-07
1.18519e-07
9.05252e-08
-1.03469e-07
-1.29158e-07
1.36993e-07
4.04606e-08
-4.82956e-08
-1.41865e-07
1.48733e-07
-1.58703e-09
-5.28171e-09
-1.51353e-07
1.60056e-07
-4.07118e-08
3.20097e-08
-1.50583e-07
1.59896e-07
-8.8071e-08
7.87584e-08
-1.89006e-07
1.94986e-07
-1.30571e-07
1.24592e-07
-1.82517e-07
1.44334e-07
-1.53393e-07
1.13425e-07
-1.18797e-07
8.09692e-08
-1.65588e-07
1.01157e-07
-6.98713e-08
5.15891e-08
-1.58552e-07
7.03201e-08
-4.45491e-08
4.08529e-08
-1.43507e-07
4.66196e-08
-3.27342e-08
2.488e-08
-1.40234e-07
4.28499e-08
-1.58103e-08
7.67334e-09
-1.32289e-07
3.96977e-08
-3.23752e-08
3.3224e-08
-8.48789e-10
2.35906e-09
-3.39122e-09
-3.60556e-08
3.70878e-08
4.69344e-09
-6.15488e-09
-4.72935e-08
4.8755e-08
7.96319e-09
-1.00046e-08
-6.29371e-08
6.49785e-08
1.24959e-08
-1.54151e-08
-8.00998e-08
8.30189e-08
1.92057e-08
-2.32199e-08
-8.72351e-08
9.12493e-08
2.75003e-08
-3.11754e-08
-6.22549e-08
6.593e-08
3.44144e-08
-3.6205e-08
-5.33754e-09
7.12819e-09
3.68354e-08
-3.54302e-08
7.0482e-08
-7.18872e-08
3.15817e-08
-2.59023e-08
1.42978e-07
-1.48657e-07
1.86552e-08
-1.15586e-08
1.76863e-07
-1.83959e-07
4.53286e-09
1.6354e-09
1.80505e-07
-1.86673e-07
-7.73885e-09
1.35875e-08
1.80126e-07
-1.85974e-07
-1.99983e-08
2.64938e-08
1.81429e-07
-1.87925e-07
-3.38701e-08
4.14457e-08
1.7977e-07
-1.87345e-07
-4.97082e-08
5.80574e-08
1.70635e-07
-1.78984e-07
-6.63496e-08
7.57518e-08
1.57321e-07
-1.66723e-07
-8.03328e-08
9.88079e-08
1.57987e-07
-1.76463e-07
-1.16583e-07
1.36052e-07
1.19477e-07
-1.38946e-07
-1.4775e-07
1.5261e-07
5.57733e-08
-6.06335e-08
-1.52707e-07
1.5344e-07
1.10192e-08
-1.17521e-08
-1.61426e-07
1.90591e-07
-2.80099e-08
-1.15573e-09
-1.57756e-07
6.17472e-08
-3.37455e-09
-1.01611e-08
-1.23261e-08
6.63859e-09
-1.80589e-08
-4.75164e-10
-5.06698e-09
7.71863e-09
-3.89202e-09
3.81176e-10
-4.82085e-09
5.09946e-09
-8.10751e-10
1.802e-11
-3.37505e-09
3.03443e-09
4.9426e-11
-8.62878e-12
-2.38566e-09
1.66334e-09
4.47854e-10
-1.39901e-11
-1.45572e-09
1.1264e-09
-5.81939e-11
3.78202e-11
-7.17423e-10
3.43208e-10
9.84432e-11
6.13778e-12
-3.40504e-08
3.48533e-08
-8.02955e-10
2.33398e-09
-3.32529e-09
-3.80997e-08
3.90911e-08
4.58803e-09
-6.0174e-09
-5.02006e-08
5.163e-08
7.78953e-09
-9.8023e-09
-6.70059e-08
6.90187e-08
1.22516e-08
-1.51784e-08
-8.59427e-08
8.88694e-08
1.90889e-08
-2.33076e-08
-9.53636e-08
9.95823e-08
2.78796e-08
-3.18534e-08
-6.97524e-08
7.37262e-08
3.55047e-08
-3.76083e-08
-9.07351e-09
1.11771e-08
3.86878e-08
-3.75386e-08
7.31705e-08
-7.43198e-08
3.36794e-08
-2.76891e-08
1.54484e-07
-1.60475e-07
1.99522e-08
-1.24581e-08
1.91244e-07
-1.98738e-07
5.24937e-09
8.70259e-10
1.92796e-07
-1.98916e-07
-6.81686e-09
1.24983e-08
1.91747e-07
-1.97429e-07
-1.88128e-08
2.52585e-08
1.94402e-07
-2.00848e-07
-3.26759e-08
4.04311e-08
1.94997e-07
-2.02753e-07
-4.90381e-08
5.77765e-08
1.87472e-07
-1.9621e-07
-6.68723e-08
7.66061e-08
1.76366e-07
-1.861e-07
-8.23857e-08
1.14071e-07
1.99066e-07
-2.30751e-07
-1.46701e-07
1.56049e-07
1.58943e-07
-1.68291e-07
-1.50322e-07
1.36867e-07
5.91532e-08
-4.56981e-08
-1.06974e-07
1.08554e-07
6.61803e-09
-1.9435e-08
-7.19763e-08
5.721e-09
5.74755e-08
-4.61742e-09
-2.46101e-09
8.34527e-11
2.46843e-09
-1.26647e-10
-6.69286e-11
5.03596e-11
1.45297e-11
-3.084e-12
-4.99859e-11
8.04441e-11
-5.30367e-11
1.04814e-11
-6.51258e-11
5.61492e-11
-3.63382e-12
4.14123e-12
-3.87363e-11
3.25699e-11
-2.22807e-12
2.07215e-12
-2.70657e-11
2.14752e-11
-1.83328e-12
1.9376e-12
-1.9833e-11
1.72678e-11
-9.87869e-12
3.46022e-12
-1.23135e-11
6.08145e-12
-4.88713e-12
2.6864e-12
-3.56319e-08
3.63851e-08
-7.53232e-10
2.30858e-09
-3.25628e-09
-4.00609e-08
4.10086e-08
4.47547e-09
-5.8707e-09
-5.30426e-08
5.44378e-08
7.60327e-09
-9.58503e-09
-7.10163e-08
7.2998e-08
1.19802e-08
-1.49056e-08
-9.17968e-08
9.47222e-08
1.89406e-08
-2.33791e-08
-1.03909e-07
1.08348e-07
2.82672e-08
-3.25529e-08
-7.78546e-08
8.21403e-08
3.66648e-08
-3.90898e-08
-1.34411e-08
1.58661e-08
4.07126e-08
-3.98764e-08
7.53202e-08
-7.61564e-08
3.60168e-08
-2.96525e-08
1.66644e-07
-1.73008e-07
2.13129e-08
-1.33295e-08
2.06464e-07
-2.14448e-07
5.9122e-09
1.1933e-10
2.0499e-07
-2.11021e-07
-5.84317e-09
1.13349e-08
2.02965e-07
-2.08456e-07
-1.73618e-08
2.36992e-08
2.07241e-07
-2.13579e-07
-3.11699e-08
3.91807e-08
2.10646e-07
-2.18657e-07
-4.81364e-08
5.72141e-08
2.05055e-07
-2.14132e-07
-6.76601e-08
7.35915e-08
1.95195e-07
-2.01126e-07
-1.08177e-07
1.75468e-07
2.79585e-07
-3.46876e-07
-1.77626e-07
1.13323e-07
1.48806e-07
-8.45021e-08
-5.63075e-08
3.89387e-08
-1.12889e-08
2.86577e-08
-4.53761e-08
8.10078e-09
4.75634e-08
-1.9188e-08
-1.36118e-09
3.49192e-11
1.49333e-09
-2.34942e-10
-1.37309e-11
5.48323e-12
4.97232e-12
-1.96824e-13
-1.9824e-12
1.07804e-12
3.33838e-13
4.02333e-13
-8.81178e-13
2.29939e-12
-3.73112e-12
1.46704e-12
-6.40978e-12
2.8576e-12
-3.48937e-12
2.19701e-11
-8.47386e-13
7.59362e-13
-1.07781e-12
6.90306e-13
-6.6067e-13
6.00448e-13
-8.42707e-13
7.50101e-13
-5.92964e-13
5.80267e-13
-1.58774e-12
1.36186e-12
-4.21007e-13
2.00659e-13
-1.89451e-12
1.79573e-12
-3.7112e-08
3.78114e-08
-6.99438e-10
2.28353e-09
-3.18481e-09
-4.19336e-08
4.28349e-08
4.35637e-09
-5.71597e-09
-5.58154e-08
5.7175e-08
7.40584e-09
-9.35477e-09
-7.49636e-08
7.69125e-08
1.16821e-08
-1.45953e-08
-9.76432e-08
1.00556e-07
1.8759e-08
-2.34346e-08
-1.12903e-07
1.17578e-07
2.86674e-08
-3.32728e-08
-8.65855e-08
9.11909e-08
3.79022e-08
-4.06417e-08
-1.84507e-08
2.11902e-08
4.2931e-08
-4.2477e-08
7.68112e-08
-7.72652e-08
3.86342e-08
-3.18187e-08
1.79588e-07
-1.86403e-07
2.27337e-08
-1.41414e-08
2.22719e-07
-2.31311e-07
6.48191e-09
-5.69707e-10
2.17e-07
-2.22913e-07
-4.82848e-09
9.96327e-09
2.13755e-07
-2.1889e-07
-1.57703e-08
2.19592e-08
2.19844e-07
-2.26033e-07
-2.93725e-08
3.76784e-08
2.26805e-07
-2.35111e-07
-4.70022e-08
5.70454e-08
2.23497e-07
-2.3354e-07
-6.67875e-08
7.19995e-08
2.00977e-07
-2.06189e-07
-1.53353e-07
1.73229e-07
4.13106e-07
-4.32982e-07
-1.11692e-07
3.12561e-08
-1.65877e-08
8.75262e-08
-6.59405e-08
2.92715e-08
5.85454e-08
-4.79969e-08
-3.77281e-09
3.71434e-10
4.12778e-09
-7.64244e-10
-3.81257e-11
9.40761e-13
4.01986e-11
-4.72394e-12
-2.08455e-13
1.34146e-13
-7.34976e-14
1.27611e-13
-6.75806e-14
1.16482e-13
-9.81173e-14
4.70379e-14
-3.6796e-12
1.45041e-11
-1.63161e-11
3.69883e-11
-1.02409e-11
1.01159e-11
-3.37766e-11
3.50645e-11
8.50276e-14
8.94264e-15
-2.89439e-13
1.48408e-13
-6.3996e-15
7.12901e-15
-3.50326e-14
3.31661e-14
-6.85218e-15
6.30011e-15
-5.95059e-14
5.701e-14
-4.49323e-15
1.30234e-15
-7.72488e-14
8.27016e-14
-3.84824e-08
3.91238e-08
-6.41359e-10
2.2589e-09
-3.11085e-09
-4.37117e-08
4.45636e-08
4.22998e-09
-5.55218e-09
-5.85164e-08
5.98386e-08
7.19599e-09
-9.11025e-09
-7.88443e-08
8.07585e-08
1.1353e-08
-1.42404e-08
-1.03458e-07
1.06346e-07
1.85349e-08
-2.34657e-08
-1.22379e-07
1.27309e-07
2.90751e-08
-3.39985e-08
-9.59559e-08
1.00879e-07
3.92106e-08
-4.22328e-08
-2.40757e-08
2.7098e-08
4.53519e-08
-4.53656e-08
7.74969e-08
-7.74832e-08
4.1567e-08
-3.42093e-08
1.93477e-07
-2.00834e-07
2.42009e-08
-1.48495e-08
2.40261e-07
-2.49613e-07
6.90846e-09
-1.18164e-09
2.28741e-07
-2.34468e-07
-3.81184e-09
8.55845e-09
2.23858e-07
-2.28604e-07
-1.39844e-08
1.98923e-08
2.32094e-07
-2.38002e-07
-2.71709e-08
3.58977e-08
2.43603e-07
-2.5233e-07
-4.59377e-08
5.77986e-08
2.44536e-07
-2.56397e-07
-5.32767e-08
1.31541e-07
2.47159e-07
-3.25423e-07
-1.61141e-07
1.43387e-08
3.3626e-07
-1.84613e-07
-2.93768e-08
5.79231e-08
7.90428e-08
-1.0973e-07
-8.4347e-09
1.41935e-09
1.00779e-08
-2.76812e-09
-1.45123e-10
9.69355e-12
1.49328e-10
-1.05915e-11
-7.4832e-13
3.80696e-13
2.21037e-13
1.32263e-13
-4.94264e-15
4.65016e-15
-1.39553e-14
1.19683e-14
-2.02298e-14
7.85056e-12
-2.31391e-14
2.92995e-11
-1.00056e-11
7.50241e-12
-3.92037e-11
4.22799e-11
-3.41065e-12
-1.16622e-13
-7.45122e-12
2.4757e-13
5.38444e-15
-1.46818e-16
-2.76012e-14
1.62625e-14
4.35231e-16
-5.81605e-16
-1.07951e-14
1.07306e-14
7.20204e-16
-8.20663e-16
-1.78865e-14
1.68757e-14
8.27151e-16
-8.84008e-16
-3.32723e-14
3.27725e-14