/*--------------------------------*- C++ -*----------------------------------*\
| =========                 |                                                 |
| \\      /  F ield         | OpenFOAM: The Open Source CFD Toolbox           |
|  \\    /   O peration     | Version:  2.4.0                                 |
|   \\  /    A nd           | Web:      www.OpenFOAM.org                      |
|    \\/     M anipulation  |                                                 |
\*---------------------------------------------------------------------------*/
FoamFile
{
    version     2.0;
    format      ascii;
    class       volScalarField;
    location    "0.116";
    object      alpha.water;
}
// * * * * * * * * * * * * * * * * * * * * * * * * * * * * * * * * * * * * * //

dimensions      [0 0 0 0 0 0 0];

internalField   nonuniform List<scalar> 
57600
(
1
1
1
1
1
1
1
1
1
1
1
1
1
1
1
1
1
1
1
1
1
1
1
1
1
1
1
1
1
1
1
1
1
1
1
1
1
1
1
1
1
1
1
1
1
1
1
1
1
1
1
1
1
1
1
1
1
1
1
1
1
1
1
1
1
1
1
1
1
1
1
1
1
1
1
1
1
1
1
1
1
1
1
1
1
1
1
1
1
1
1
1
1
1
1
1
1
1
1
1
1
1
1
1
1
1
1
1
1
1
1
1
1
1
1
1
1
1
1
1
1
1
1
1
1
1
1
1
1
1
1
1
1
1
1
1
1
1
1
1
1
1
1
1
1
1
1
1
1
1
1
1
1
1
1
1
1
1
1
1
1
1
1
1
1
1
1
1
1
1
1
1
1
1
1
1
1
1
1
1
1
1
1
1
1
1
1
1
1
1
1
1
1
1
1
1
1
1
1
1
1
1
1
1
1
1
1
1
1
1
1
1
1
1
1
1
1
1
1
1
1
1
1
1
1
1
1
1
1
1
1
1
1
1
1
1
1
1
1
1
1
1
1
1
1
1
1
1
1
1
1
1
1
1
1
1
1
1
1
1
1
1
1
1
1
1
1
1
1
1
1
1
1
1
1
1
1
1
1
1
1
1
1
1
1
1
1
1
1
1
1
1
1
1
1
1
1
1
1
1
1
1
1
1
1
1
1
1
1
1
1
1
1
1
1
1
1
1
1
1
1
1
1
1
1
1
1
1
1
1
1
1
1
1
1
1
1
1
1
1
1
1
1
1
1
1
1
1
1
1
1
1
1
1
1
1
1
1
1
1
1
1
1
1
1
1
1
1
1
1
1
1
1
1
1
1
1
1
1
1
1
1
1
1
1
1
1
1
1
1
1
1
1
1
1
1
1
1
1
1
1
1
1
1
1
1
1
1
1
1
1
1
1
1
1
1
1
1
1
1
1
1
1
1
1
1
1
1
1
1
1
1
1
1
1
1
1
1
1
1
1
1
1
1
1
1
1
1
1
1
1
1
1
1
1
1
1
1
1
1
1
1
1
1
1
1
1
1
1
1
1
1
1
1
1
1
1
1
1
1
1
1
1
1
1
1
1
1
1
1
0.999997
1
1
1
1
1
1
1
1
1
1
1
1
1
1
1
1
1
1
1
1
1
1
1
1
1
1
1
1
1
1
0.999999
1
1
1
1
1
1
1
1
1
1
1
1
1
1
1
1
1
0.99987
1
1
1
1
1
1
1
1
0.999984
1
1
0.999966
0.00288889
0.99462
1
1
1
1
1
1
1
1
1
1
1
1
1
1
1
0.999957
1
1
1
1
1
1
1
1
0.99999
1
0.999999
0.999987
0.000212313
0.418156
1
1
1
1
1
1
1
1
1
1
1
1
1
1
1
1
1
1
1
1
1
1
1
1
1
1
1
0.000132067
0.000226984
0.000409384
0.99997
0.999999
1
1
1
1
1
1
1
1
1
1
1
1
1
1
1
1
1
1
1
1
1
1
0.999985
1
0.276659
4.09561e-08
2.11304e-07
0.000149214
0.967045
0.999934
1
1
1
1
1
1
1
1
1
1
1
1
1
1
1
1
1
1
1
1
1
1
1
0.999991
1.16332e-06
1.79394e-09
1.11971e-09
0.000147621
0.698687
0.999996
1
1
1
1
1
1
1
1
1
1
1
1
1
1
1
1
1
1
1
1
1
1
0.999996
0.000129814
4.64663e-05
2.17709e-09
1.3766e-09
0.000276623
6.01046e-05
0.999793
1
1
1
1
1
1
1
1
1
1
1
1
1
1
1
1
1
1
1
1
1
0.999999
0.900838
3.40921e-08
9.062e-05
2.02393e-09
4.97949e-07
5.2411e-07
3.93158e-05
0.953326
0.999938
1
1
1
1
1
1
1
1
1
1
1
1
1
1
1
1
1
1
1
0.999989
0.999999
3.13388e-05
3.74751e-07
1.50103e-09
2.44091e-09
1.90758e-09
1.11821e-06
1.33297e-05
6.10089e-05
0.998968
1
1
1
1
1
1
1
1
1
1
1
1
1
1
1
1
1
0.999064
1
1
0.704723
3.34048e-07
4.53368e-05
2.08808e-09
1.06817e-07
2.00546e-09
1.41769e-07
1.87512e-05
1.73156e-05
0.986096
1
1
1
1
1
1
1
1
1
1
1
1
1
1
1
1
1
1
1
0.99172
2.671e-07
5.08495e-05
1.26834e-09
1.86855e-09
2.23184e-09
1.04315e-07
1.49514e-05
4.14093e-06
1.49557e-05
0.0610296
1
1
1
1
1
1
1
1
1
1
1
1
1
1
1
1
0.99999
0.998024
1
0.00252813
3.59095e-08
5.74194e-08
2.99159e-09
1.81421e-07
9.84247e-06
5.0657e-07
0.000106792
8.67244e-05
0.000557367
-3.24687e-06
0.996734
1
1
1
1
1
1
1
1
1
1
1
1
1
1
1
0.999996
0.99855
0.999977
-2.89462e-08
4.95663e-08
1.86283e-08
2.1687e-09
2.84095e-05
2.4862e-08
3.35881e-05
2.50515e-06
2.04322e-05
0.000207614
1.58639e-07
0.61864
0.999918
1
1
1
1
1
1
1
1
1
1
1
1
1
1
1
1
1
1
1
1
1
1
1
1
1
1
1
1
1
1
1
1
1
1
1
1
1
1
1
1
1
1
1
1
1
1
1
1
1
1
1
1
1
1
1
1
1
1
1
1
1
1
1
1
1
1
1
1
1
1
1
1
1
1
1
1
1
1
1
1
1
1
1
1
1
1
1
1
1
1
1
1
1
1
1
1
1
1
1
1
1
1
1
1
1
1
1
1
1
1
1
1
1
1
1
1
1
1
1
1
1
1
1
1
1
1
1
1
1
1
1
1
1
1
1
1
1
1
1
1
1
1
1
1
1
1
1
1
1
1
1
1
1
1
1
1
1
1
1
1
1
1
1
1
1
1
1
1
1
1
1
1
1
1
1
1
1
1
1
1
1
1
1
1
1
1
1
1
1
1
1
1
1
1
1
1
1
1
1
1
1
1
1
1
1
1
1
1
1
1
1
1
1
1
1
1
1
1
1
1
1
1
1
1
1
1
1
1
1
1
1
1
1
1
1
1
1
1
1
1
1
1
1
1
1
1
1
1
1
1
1
1
1
1
1
1
1
1
1
1
1
1
1
1
1
1
1
1
1
1
1
1
1
1
1
1
1
1
1
1
1
1
1
1
1
1
1
1
1
1
1
1
1
1
1
1
1
1
1
1
1
1
1
1
1
1
1
1
1
1
1
1
1
1
1
1
1
1
1
1
1
1
1
1
1
1
1
1
1
1
1
1
1
1
1
1
1
1
1
1
1
1
1
1
1
1
1
1
1
1
1
1
1
1
1
1
1
1
1
1
1
1
1
1
1
1
1
1
1
1
1
1
1
1
1
1
1
1
1
1
1
1
1
1
1
1
1
1
1
1
1
1
1
1
1
1
1
1
1
1
1
1
1
1
1
1
1
1
1
1
1
1
1
1
1
1
1
1
1
1
1
1
1
1
1
1
1
1
1
1
1
1
1
1
1
1
1
1
1
1
1
1
1
1
1
1
1
1
1
1
1
1
1
1
1
1
1
1
1
1
1
0.99949
0.999304
1
1
1
1
1
1
1
1
1
1
1
1
1
1
1
1
1
1
1
1
1
1
1
1
1
1
1
1
1
0.999305
1
1
1
1
1
1
1
1
1
1
1
1
1
1
1
1
1
1
1
1
1
1
1
1
1
1
1
1
0.999981
1
1
1
1
1
1
1
1
1
1
1
1
1
1
1
1
1
1
0.999995
1
0.999999
1
1
1
1
1
1
1
1
1
1
1
1
1
1
1
1
1
1
1
1
1
1
1
1
1
0.0205434
0.999956
0.999998
1
1
1
1
1
1
1
1
1
1
1
1
1
1
1
1
1
1
1
1
1
1
1
1
1
1
0.970963
0.00102778
0.320476
0.999984
1
1
1
1
1
1
1
1
1
1
1
1
1
1
1
1
1
1
1
1
1
0.999998
1
1
0.999797
0.999997
0.0458097
4.81254e-07
5.94045e-06
0.999999
0.999997
0.999998
1
1
1
1
1
1
1
1
1
1
0.999996
1
1
1
1
1
1
1
1
0.999999
1
1
1
0.977902
0.000366708
0.00148998
1.80609e-06
0.000154804
0.999999
0.999999
1
1
1
1
1
1
1
1
1
1
1
1
1
1
1
1
1
1
1
0.999999
1
1
1
0.681007
9.29996e-07
0.00147613
4.14514e-05
3.3817e-08
0.207449
1
0.999999
0.999985
1
1
1
1
1
1
1
1
1
1
1
1
1
1
1
1
1
0.999997
1
1
0.999998
0.000733692
1.27302e-07
6.72044e-07
5.89442e-06
9.51234e-09
-3.52304e-07
0.999885
1
0.999933
1
1
1
1
1
1
1
0.994257
0.975756
1
1
1
1
1
1
1
1
1
1
1
0.942807
2.64659e-05
1.2798e-07
1.15063e-07
3.23938e-09
5.01362e-06
2.15326e-09
0.0128478
1
0.999999
1
1
1
1
1
1
1
1
1
1
1
1
1
1
1
1
1
1
1
1
0.0982804
2.64024e-06
1.23175e-06
1.11656e-05
8.68231e-09
2.50212e-09
2.61277e-09
2.8566e-07
0.999996
1
1
1
1
1
1
1
1
1
1
1
1
1
1
1
1
1
1
1
1
1
1.07509e-06
3.08762e-07
1.26008e-05
5.5961e-09
2.78538e-09
8.84323e-09
6.26698e-08
4.49973e-09
7.18144e-05
1
1
0.999907
1
1
1
1
1
1
1
1
1
1
1
1
1
1
1
1
1
0.972259
8.86943e-06
2.43585e-05
1.85953e-07
5.23796e-08
5.85917e-06
4.67635e-07
0.000106343
2.28112e-05
1.2161e-07
0.603864
1
0.999287
1
1
1
1
1
1
1
1
1
1
1
1
1
1
1
1
0.999996
0.0663713
1.48967e-05
1.79241e-06
1.31199e-06
9.56849e-07
1.17387e-06
4.89836e-05
7.72471e-06
2.12716e-05
1.03143e-07
5.79509e-06
1
0.999998
0.99996
1
1
1
1
1
1
1
1
1
1
1
1
1
1
0.999972
0.999996
0.00161234
0.00677062
1.39322e-07
2.88658e-07
3.47683e-07
1.50687e-05
3.28501e-05
1.74285e-05
4.45522e-05
8.85516e-07
1.73437e-08
0.939207
0.999991
1
1
1
1
1
1
1
1
0.999971
0.882233
-1.12223e-08
1.75237e-05
4.92897e-08
1.12903e-09
9.54072e-10
3.27443e-06
4.81241e-09
0.000574394
1.26768e-05
0.000614926
1.67192e-07
0.024358
0.99999
0.999991
0.999391
1
1
1
1
1
1
1
1
1
1
1
1
0.999999
0.999998
7.81435e-05
6.30593e-10
7.20751e-09
1.74799e-08
6.38698e-10
1.90778e-08
9.07462e-06
1.41816e-06
2.96617e-06
0.000634099
9.1292e-05
1.80427e-05
1.17785e-07
0.999996
0.999993
1
0.999416
1
1
1
1
1
1
1
1
1
1
1
0.999999
0.999996
-1.154e-06
3.97992e-10
9.19971e-09
6.47381e-09
6.78907e-10
1.15397e-07
3.4106e-05
4.43842e-06
2.9434e-06
0.000120493
0.000111643
6.81436e-05
5.45747e-08
0.999996
0.999933
1
1
1
1
0.999999
1
1
1
1
1
0.980602
1
1
0.999881
0.545987
-5.80151e-10
2.8351e-10
3.11094e-05
2.91272e-05
8.02196e-10
2.55957e-05
1.72009e-05
2.16916e-06
2.61965e-05
0.00064695
1.20681e-05
1.36999e-05
5.73892e-08
0.996386
0.999997
1
1
1
1
1
1
1
1
1
1
0.281285
0.99704
1
0.999959
9.39469e-05
4.24002e-10
5.06561e-10
0.000120024
2.90602e-05
8.75043e-10
3.75706e-05
2.16631e-06
7.72907e-09
3.04983e-05
1.21578e-05
5.4603e-06
3.08006e-05
8.86593e-08
0.436459
1
1
1
1
1
1
0.999991
1
1
1
1
0.0111953
0.962527
1
0.999999
-1.21573e-07
4.55058e-10
6.99808e-10
6.45372e-05
2.12295e-07
9.16895e-10
3.75053e-05
2.20212e-07
4.42428e-09
9.93284e-06
2.36952e-06
3.08656e-05
9.6708e-07
3.33159e-05
0.0173183
0.999881
1
1
1
1
1
0.999991
1
1
1
1
6.87113e-06
0.763447
1
0.96696
-6.78984e-09
1.12274e-10
7.17565e-10
8.30172e-05
6.71897e-06
7.78216e-09
3.88944e-09
3.21499e-09
2.83836e-09
1.4648e-06
5.97305e-05
6.22498e-06
6.35344e-07
3.01542e-07
1.08991e-07
1
0.99984
0.999699
1
1
1
1
0.999999
1
1
1
4.91783e-05
1.28555e-05
1
0.0493409
1.22704e-10
3.20078e-11
5.95899e-10
7.09899e-07
6.62257e-05
4.16533e-10
4.94195e-09
3.25724e-05
1.57679e-09
3.65361e-08
2.15329e-06
0.000137753
1.22293e-06
2.08326e-07
6.96185e-06
0.920228
1
1
0.999998
0.999999
1
1
1
1
1
1
9.12291e-06
4.76561e-06
0.968809
6.99699e-07
2.90744e-11
1.6927e-11
4.24519e-10
6.33832e-05
6.63513e-05
4.73777e-09
1.20631e-07
6.85712e-05
7.81221e-10
1.14665e-09
9.05223e-05
2.76469e-06
1.44603e-07
2.46324e-07
0.00158917
0.000218603
1
1
1
1
1
1
1
1
1
1
0.000201319
3.53034e-05
3.24592e-07
3.34855e-10
5.37268e-12
8.17485e-12
1.85495e-10
7.04463e-05
6.63483e-05
9.17597e-10
4.24212e-07
2.75508e-09
7.50355e-10
1.19895e-09
1.89027e-09
5.54836e-07
8.95482e-07
4.80484e-05
0.00182705
3.56946e-05
0.6787
1
1
1
1
0.994559
1
1
1
1
8.80943e-05
2.70663e-05
9.77251e-06
3.1126e-10
2.64302e-12
3.47428e-12
3.40042e-10
1.42688e-05
1.3393e-09
6.27632e-09
7.095e-10
5.91727e-07
9.53781e-10
8.29116e-10
3.43828e-07
7.98618e-06
3.77746e-05
1.48653e-06
4.14447e-07
0.000306324
2.91311e-10
0.999995
1
1
1
1
1
1
1
1
7.57515e-06
4.94093e-07
7.34882e-10
1.13141e-10
1.08201e-12
1.30051e-12
5.67173e-11
7.1618e-05
2.22259e-06
7.20214e-07
7.1695e-07
9.4865e-09
1.19755e-09
6.50473e-10
1.25627e-09
2.3821e-07
5.36902e-07
4.69207e-05
6.48859e-06
3.34609e-05
8.26564e-10
2.02394e-08
0.753737
0.999999
1
1
1
1
1
1
1.47002e-06
1.69248e-08
2.40611e-09
4.59054e-11
3.5462e-13
4.15456e-13
4.2046e-11
9.3189e-05
4.31972e-05
5.58815e-10
1.94162e-07
3.23374e-09
6.44154e-10
5.16779e-10
1.3604e-09
1.82126e-05
0.000166932
2.43761e-06
4.99791e-05
0.000629122
2.18336e-10
4.29217e-07
2.64428e-09
-7.36582e-07
0.230376
0.840868
0.98287
0.999667
0.999915
0.999772
2.23298e-11
1.5894e-05
1.5493e-10
9.1639e-12
8.82293e-14
1.09305e-13
1.61523e-11
1.49435e-05
6.14759e-06
4.01148e-07
2.9391e-06
2.58672e-09
4.10406e-10
4.81051e-10
9.27719e-10
1.53153e-08
3.88684e-06
4.47449e-05
5.95857e-08
0.000646652
7.15947e-09
5.21081e-09
7.19677e-09
8.77151e-09
8.43736e-09
8.37413e-08
5.11402e-09
7.55005e-09
7.24393e-09
3.94696e-09
1.46606e-11
9.1927e-07
1.62569e-11
5.60439e-13
1.57051e-14
2.23975e-14
3.23318e-12
7.12784e-07
1.84258e-06
7.21109e-06
1.9598e-05
1.8577e-07
4.50143e-10
6.59177e-10
5.85936e-10
1.45028e-09
9.5515e-06
1.31107e-07
1.74574e-05
0.000657417
4.74671e-08
0.00060421
3.68908e-09
5.76958e-09
5.84086e-09
3.04933e-09
5.61923e-07
7.13549e-09
2.68234e-08
2.48505e-09
1.34316e-11
2.88798e-09
2.1759e-12
1.80719e-14
1.88388e-15
3.60915e-15
1.03675e-13
3.01149e-11
2.1609e-08
2.49571e-09
1.69191e-06
9.62524e-10
6.98672e-08
7.90113e-10
4.2937e-10
1.11477e-09
8.7839e-05
2.39895e-08
9.49585e-05
3.5052e-07
3.69419e-10
0.000604447
2.68e-09
3.26478e-09
1.75034e-08
2.64868e-09
2.41181e-07
1.69244e-07
2.06494e-09
1.54325e-09
7.86924e-13
1.80287e-11
1.825e-13
1.01414e-15
1.45357e-16
4.8204e-16
1.32597e-13
3.39634e-11
1.2461e-09
8.56468e-10
8.3663e-10
9.4229e-10
7.10301e-10
3.7661e-10
2.75097e-10
5.97813e-10
1.08173e-09
6.86721e-07
3.78965e-05
1.38641e-06
0.00106892
3.24587e-06
3.95777e-05
1.97191e-09
3.8188e-07
1.04342e-09
6.84452e-08
8.75185e-10
8.02249e-10
6.1082e-10
1.29516e-14
7.67154e-13
6.57951e-15
2.52409e-17
7.18669e-18
1.39567e-16
3.45624e-13
7.8511e-11
8.67139e-10
2.58434e-05
4.42821e-09
3.82088e-05
1.36101e-08
2.2053e-10
1.51238e-10
3.15685e-10
9.05882e-10
1.87111e-05
4.82215e-07
6.112e-06
0.00102782
3.87451e-06
0.0014937
1.0084e-07
5.10943e-10
6.97095e-10
3.51851e-10
3.19875e-10
3.60406e-10
5.42633e-10
3.4067e-17
2.92431e-15
7.16502e-17
2.57333e-19
2.41369e-19
2.26738e-16
7.84145e-13
1.291e-10
7.22514e-06
1.27705e-05
1.80572e-09
2.03877e-09
1.20556e-05
1.47163e-09
2.11809e-10
3.06434e-10
5.32537e-10
8.59083e-10
4.17116e-06
3.54449e-08
0.0014848
0.00053274
0.00149812
3.44252e-08
5.86018e-10
2.50135e-10
3.77162e-10
8.02755e-10
1.33165e-09
1.16551e-09
1.9352e-20
2.70851e-18
1.91985e-19
1.82334e-21
8.82869e-21
4.79639e-16
1.97043e-12
2.94258e-10
1.74702e-09
1.27906e-09
6.67951e-08
1.56975e-07
0.000120137
6.98314e-10
4.20942e-10
4.92839e-10
5.29941e-10
7.5822e-10
5.94377e-06
3.31276e-08
2.32546e-05
1.63104e-06
1.22389e-07
4.88663e-10
2.29381e-10
6.4892e-10
1.41263e-09
2.01649e-09
2.12013e-09
7.61673e-07
1.67425e-24
1.52927e-21
1.18627e-22
1.0836e-23
4.82152e-21
9.43081e-16
4.62382e-12
1.4299e-09
3.6666e-07
1.42254e-09
4.24851e-07
3.98392e-10
1.23518e-09
2.29345e-09
2.61312e-10
4.17548e-10
0.000373852
6.43155e-05
3.55598e-08
1.71044e-06
2.66483e-06
2.36252e-05
4.85938e-10
3.52893e-10
9.08083e-10
1.62781e-09
2.248e-09
2.93332e-09
3.40332e-07
0.000375387
1.25279e-29
1.9591e-25
3.30588e-26
3.88776e-26
5.16478e-21
1.17602e-15
4.81429e-12
3.40399e-10
5.54685e-06
1.66652e-08
4.73179e-10
2.63816e-10
1.97374e-10
1.00017e-10
2.55633e-10
4.28299e-10
0.000169272
5.06379e-06
5.87169e-05
1.28536e-06
3.51055e-05
8.30885e-10
2.54817e-09
4.2765e-09
1.68605e-09
2.15161e-05
3.16422e-05
2.12431e-05
3.79472e-05
0.00025254
7.13813e-35
8.22773e-30
7.32275e-30
7.34625e-29
4.70743e-21
1.2066e-15
3.92072e-12
3.36748e-10
1.0297e-05
2.32322e-08
4.95809e-10
7.56531e-11
3.68057e-11
1.08546e-10
3.9594e-10
6.97273e-10
0.000190891
0.00029459
5.04062e-05
1.57228e-05
8.77537e-08
2.13244e-08
0.00136959
0.00136975
5.62678e-11
6.38122e-11
6.49809e-11
7.91678e-11
5.2704e-08
3.85513e-05
4.09387e-40
1.86403e-34
1.18858e-33
2.47627e-31
3.46759e-21
1.32317e-15
8.60999e-12
5.6699e-10
1.27332e-05
7.83313e-10
7.20382e-10
2.43444e-11
1.46755e-11
1.90575e-10
4.12945e-10
0.000368138
0.000151139
9.87745e-07
0.000121008
1.93023e-05
6.73822e-05
1.54662e-07
2.05431e-06
0.000795497
7.2478e-06
4.6931e-10
9.05473e-11
4.48372e-10
2.06703e-10
-1.86919e-12
1.79752e-45
2.04347e-39
1.19974e-37
2.00072e-31
1.45367e-21
7.98084e-16
5.82993e-12
1.29671e-07
2.15347e-05
6.7958e-07
5.11273e-10
4.37164e-11
1.07872e-11
1.14649e-10
5.62127e-10
0.000368072
3.49312e-05
6.21574e-08
0.000224035
2.69789e-08
1.8733e-07
3.10211e-08
7.30656e-05
3.24614e-05
1.43136e-10
3.09246e-10
4.13475e-11
4.34299e-13
8.18967e-15
1.25996e-13
4.84345e-51
1.34785e-44
5.10284e-42
6.51274e-32
2.4397e-22
2.14543e-16
2.70184e-12
9.55147e-10
0.000215787
5.13686e-07
4.13014e-08
1.38458e-10
1.92116e-11
7.39371e-11
2.31691e-09
3.87317e-06
4.01207e-08
3.96209e-08
0.000109893
1.59491e-08
1.59986e-08
1.93482e-07
9.63165e-08
6.8041e-09
1.55489e-10
1.95728e-11
4.38156e-13
8.67231e-15
3.95392e-13
7.86522e-12
6.16488e-57
4.06396e-50
8.78619e-47
2.7143e-33
7.96132e-24
1.41939e-17
4.80789e-13
1.23677e-10
0.00020151
4.0885e-07
8.31066e-06
1.72313e-06
1.94898e-10
2.40014e-11
2.12025e-10
4.14406e-05
0.000387194
0.000610859
0.000208478
4.29943e-05
5.80703e-08
0.000675011
9.47121e-09
3.35069e-10
6.45078e-11
4.05927e-13
8.2421e-16
2.8834e-13
1.65184e-11
2.25367e-10
4.70196e-63
7.24486e-56
8.09724e-52
6.63285e-36
2.55912e-26
1.21288e-19
9.60317e-15
1.79065e-11
4.78388e-08
9.58237e-06
8.46891e-06
1.79825e-08
5.9028e-09
3.77888e-11
2.57781e-11
2.10776e-10
3.15347e-05
1.81099e-05
2.31401e-05
2.08755e-07
0.000524639
8.00907e-09
3.28061e-10
5.27699e-11
1.14626e-12
5.33412e-16
9.46603e-14
1.4057e-11
2.6897e-10
1.08815e-09
4.00911e-69
1.6075e-61
9.19716e-57
3.42654e-40
9.91731e-30
4.62131e-22
4.04452e-16
6.61396e-12
5.25038e-07
2.01939e-05
3.75446e-05
3.265e-06
7.03482e-06
5.25572e-10
2.12579e-13
3.99543e-12
6.4112e-11
2.16282e-10
2.08786e-10
1.91169e-10
8.67706e-11
4.73649e-11
7.9096e-12
3.64239e-13
2.3093e-15
2.14608e-15
5.65135e-13
2.39667e-11
2.73366e-10
1.0179e-09
8.32391e-75
8.01918e-67
1.58011e-61
1.02257e-49
4.31852e-36
2.49696e-26
1.79158e-18
1.00261e-12
9.44409e-13
4.94651e-07
1.71689e-06
1.19532e-05
1.42464e-06
8.39794e-05
2.14145e-11
2.79716e-16
1.31437e-13
2.99965e-12
3.42322e-12
3.73744e-12
1.01585e-12
2.29892e-13
2.12821e-14
4.64831e-16
4.18473e-18
8.81998e-16
1.05041e-13
3.57992e-12
4.25876e-11
2.21039e-10
1
1
1
1
1
1
1
1
1
0.999999
0.999595
0.99941
0.999995
1.34682e-05
0.0125752
0.000409605
1.06859e-06
3.92366e-05
1.56456e-07
4.31198e-07
5.99945e-05
8.64449e-06
1.13771e-08
1.54773e-09
1.43973e-05
0.999998
0.999994
1
1
1
1
1
1
1
0.999978
1
1
0.999996
1
1
0.999932
0.999999
0.951896
9.58139e-06
0.0293557
1.20701e-05
8.4819e-07
8.30353e-07
0.000161487
1.47782e-06
2.18177e-07
2.7481e-05
3.13469e-08
1.10157e-09
-1.52876e-07
0.994
0.999962
1
1
1
1
1
1
1
0.998498
1
1
1
1
0.999999
0.999979
0.999679
0.572046
3.30378e-06
0.000183295
2.19196e-06
3.86161e-06
6.73152e-07
7.13253e-07
5.2632e-05
3.01737e-05
3.50302e-05
2.43303e-09
1.27054e-08
1.42006e-09
0.551968
1
1
1
1
1
1
1
1
1
1
1
1
1
1
0.998931
0.99904
0.0369736
2.28458e-06
6.62989e-05
4.75959e-06
3.77162e-05
1.18142e-05
1.0198e-08
7.74409e-08
3.41587e-07
2.02417e-06
8.84197e-07
8.16834e-09
4.39517e-10
0.00141111
1
1
1
1
1
1
1
1
0.999981
1
1
1
1
1
1
1
6.09738e-07
1.41289e-06
0.000147381
2.72941e-05
8.30656e-07
3.932e-06
1.0262e-08
6.60998e-08
5.31018e-05
8.69601e-06
2.97273e-10
1.17682e-10
2.88271e-10
3.3316e-06
1
1
0.999983
1
1
1
0.999997
1
1
0.999996
0.999994
0.999999
0.999999
1
1
0.980042
0.000160769
1.05824e-05
1.72191e-05
0.000171194
8.84616e-07
0.000392185
6.48422e-05
2.05722e-08
6.64305e-09
5.04454e-05
1.5608e-09
8.67655e-11
1.01569e-10
-4.01565e-07
0.999937
1
0.999999
0.183635
1
1
1
1
1
1
1
1
1
1
1
0.258907
2.56843e-06
9.65085e-08
2.32726e-06
1.27875e-05
3.97491e-06
8.21856e-06
0.000112916
4.31989e-09
1.50538e-06
4.67974e-05
1.06416e-10
6.82313e-11
1.96525e-11
2.49573e-10
0.568849
0.999998
0.406463
0.000612402
1
1
1
1
1
1
1
0.999967
1
1
1
0.000601337
6.18468e-08
8.86639e-08
8.47058e-05
3.24438e-06
2.94378e-06
0.000108675
3.81351e-09
1.06368e-08
2.07135e-09
8.37519e-08
1.02251e-10
4.41856e-11
7.89895e-12
6.53844e-11
3.03291e-05
1
0.0771342
0.000427809
1
1
1
0.999998
1
0.991048
0.999992
1
1
1
0.449355
0.000241606
1.75207e-07
1.19123e-06
4.85174e-06
2.63381e-06
2.05816e-06
8.26373e-08
1.49693e-06
6.01393e-09
2.67513e-09
8.73265e-06
6.30062e-11
2.27189e-11
4.25639e-12
7.49985e-12
1.88946e-09
0.999794
5.00367e-05
3.16945e-05
1
1
1
1
1
0.991698
1
1
1
0.999998
1.54474e-05
1.92214e-06
3.05539e-08
3.92062e-08
4.93798e-06
4.50041e-06
3.38332e-05
1.42174e-07
1.24828e-06
1.70916e-08
2.71524e-09
4.32331e-10
1.81922e-11
9.52234e-12
2.12657e-12
1.29513e-12
1.25333e-10
1.27941e-05
4.66696e-05
5.49931e-06
1
1
1
1
1
1
1
1
0.999995
-1.45261e-07
2.07608e-06
0.00011812
0.000100186
1.55666e-06
0.000422124
7.83663e-05
9.70863e-09
3.10508e-05
1.71587e-06
5.20174e-05
4.85042e-10
2.463e-10
3.94332e-12
3.38874e-12
9.41285e-13
3.48512e-13
1.15829e-10
8.29879e-07
2.31971e-06
5.34936e-06
1
1
1
1
1
1
0.999992
0.570736
2.7617e-07
3.15746e-09
0.000306038
0.000112266
4.70552e-06
4.83794e-06
0.000660896
1.32085e-08
5.29285e-07
5.61692e-08
4.00473e-09
0.00023943
8.45289e-10
1.22774e-10
9.55816e-13
1.04684e-12
3.5871e-13
9.07319e-14
6.66501e-11
2.29557e-07
1.76839e-06
0.00023209
0.992682
0.957691
0.85516
0.623199
0.228673
4.58883e-08
8.41747e-10
2.05267e-08
1.37918e-09
9.36255e-10
0.000434363
1.20804e-07
2.17928e-05
6.74931e-06
0.000227121
2.07763e-09
3.22845e-09
2.9731e-06
1.80809e-05
0.000389337
8.61445e-10
4.10756e-11
3.22705e-13
2.74794e-13
1.14004e-13
2.0309e-14
2.38268e-11
4.09282e-07
3.09392e-09
3.57824e-06
1.15707e-05
3.70186e-08
8.31785e-06
3.49588e-09
5.56899e-06
2.3842e-09
2.20802e-09
2.07174e-09
2.40359e-09
9.55439e-07
3.24414e-07
6.80135e-05
6.67773e-05
4.27976e-06
4.16525e-08
1.08663e-07
1.72849e-09
2.3645e-09
4.962e-06
0.000342341
1.28885e-06
3.54959e-11
2.72158e-13
5.8461e-14
2.90988e-14
3.56869e-15
2.2541e-12
4.65243e-10
1.05845e-10
5.82181e-05
2.01956e-09
3.78719e-09
2.14934e-07
3.62303e-09
2.81807e-09
2.36258e-09
1.77907e-09
1.91757e-09
1.06694e-07
9.58525e-07
3.19588e-06
3.55307e-06
3.07528e-06
5.37168e-05
3.35386e-10
1.56616e-09
1.42198e-09
1.75043e-09
7.13727e-06
6.46132e-06
1.30961e-06
1.11984e-10
4.61442e-13
9.68759e-15
5.71842e-15
4.84888e-16
9.95988e-14
1.40268e-11
3.63733e-11
0.000143387
1.17171e-09
4.14072e-07
1.32972e-07
1.08003e-09
1.13957e-09
1.18676e-09
1.28658e-09
1.28022e-09
1.1297e-08
2.12034e-09
3.95767e-09
0.000184602
3.14544e-06
1.11549e-08
4.03764e-08
1.00097e-08
2.99698e-07
1.9485e-07
3.16697e-09
1.83938e-07
9.91347e-10
2.01764e-10
9.2633e-13
1.30946e-15
8.26451e-16
5.12717e-17
6.42229e-15
1.899e-12
1.10682e-11
8.12116e-06
9.54564e-10
4.66452e-10
6.05804e-10
9.9133e-10
1.13094e-09
1.54589e-09
1.46958e-08
1.47621e-09
0.00121576
2.54677e-09
2.24057e-05
1.21621e-05
1.76181e-05
3.77739e-08
3.16308e-08
0.000234047
0.000190927
0.000224142
7.63676e-06
1.38121e-05
2.44689e-06
3.94982e-10
2.00368e-12
3.95334e-16
8.35726e-17
4.12326e-18
3.96177e-16
1.72855e-13
1.55629e-12
1.52006e-10
6.89961e-10
7.23913e-10
1.69836e-09
7.26435e-08
0.000111786
0.000134826
8.81478e-09
0.00105562
5.38764e-05
2.46056e-08
1.71514e-06
0.000172151
2.99975e-07
3.58369e-08
0.000160847
5.49352e-05
1.47773e-07
1.54433e-06
2.23973e-05
1.16556e-05
6.84169e-10
6.78639e-10
4.45797e-12
6.99087e-16
5.60355e-18
2.40138e-19
1.06417e-17
6.3094e-15
6.72739e-14
3.28105e-11
3.64372e-08
3.98911e-05
0.000118421
1.97751e-05
4.14988e-07
2.94381e-05
1.78737e-05
4.98022e-07
2.62757e-07
3.36154e-07
0.000165552
1.0285e-06
3.4183e-07
0.000183482
2.74967e-05
1.68836e-07
1.19074e-05
1.8396e-05
0.000211811
4.0653e-05
5.31113e-08
6.70636e-10
9.4183e-12
1.71091e-15
2.36535e-19
9.34711e-21
8.23376e-20
6.74181e-17
7.63903e-16
4.71696e-13
0.000130945
2.79805e-07
1.96432e-07
1.25488e-06
8.16415e-07
1.3337e-06
2.86667e-07
0.000245625
0.00127352
1.96939e-05
1.05636e-05
0.000187752
7.39679e-05
0.000129365
6.28183e-05
3.56642e-08
9.02855e-08
1.01011e-05
0.000106689
3.36192e-08
2.32803e-05
2.60831e-08
1.78824e-11
4.5451e-15
1.47387e-20
2.17346e-22
1.27716e-22
1.42914e-19
2.17045e-18
2.62632e-16
0.000483061
2.03846e-07
2.04665e-07
2.75622e-07
2.98709e-07
8.7634e-07
2.03391e-05
3.78893e-07
3.74697e-08
5.50289e-08
0.000368758
4.53747e-06
0.000202184
5.07945e-05
3.96436e-08
8.98504e-08
2.32818e-05
7.92745e-05
2.09781e-05
4.21926e-05
1.96502e-05
8.10787e-10
2.60494e-11
1.1464e-14
3.80989e-20
2.6127e-24
6.85472e-26
4.27573e-23
1.19161e-21
4.92753e-21
0.000248825
0.000198051
0.000418876
4.7581e-05
0.000451102
0.000113085
4.42691e-07
1.12264e-09
1.97045e-09
3.47491e-09
4.36301e-05
0.000361597
6.48719e-05
5.16363e-05
6.94019e-05
6.97949e-08
0.00045216
8.04464e-07
5.34189e-06
0.000211862
0.000975052
9.52234e-10
3.06219e-11
2.4644e-14
1.79326e-19
1.39713e-26
1.81169e-28
2.00847e-27
1.02827e-25
2.28885e-27
0.00208903
0.00235486
0.000785324
1.16985e-05
1.2618e-07
1.25559e-07
0.0030017
9.88932e-09
1.09915e-06
3.82659e-08
7.29559e-09
6.07125e-09
7.04844e-09
3.24785e-09
5.34205e-06
4.87633e-06
7.45951e-10
2.35248e-07
2.65047e-05
0.000165202
0.00207373
9.16439e-10
5.25045e-11
5.39243e-14
6.70189e-19
3.71896e-27
2.84109e-31
4.15522e-32
1.34869e-30
2.55407e-33
-1.22272e-13
2.59489e-12
3.69488e-12
5.20986e-11
1.61813e-10
4.34572e-10
0.000187537
0.00031514
5.90153e-07
0.000517334
8.37289e-06
4.24478e-06
2.2454e-08
3.70888e-08
3.67172e-06
1.85861e-10
2.33233e-09
1.0655e-05
0.000321572
2.02708e-05
2.13285e-05
1.24261e-09
1.23962e-10
1.11421e-13
1.86258e-18
2.78494e-26
1.53771e-34
3.50525e-36
4.84083e-36
3.42917e-39
1.24245e-12
7.71398e-12
3.63141e-11
1.21435e-10
1.93321e-10
1.05384e-10
2.86095e-10
4.33368e-10
3.43823e-08
4.16192e-05
7.7209e-05
8.05634e-05
1.12853e-08
7.77288e-05
6.27986e-10
2.1657e-10
1.16799e-10
1.11477e-08
0.00026367
0.000914722
6.44678e-05
9.12754e-10
6.66879e-10
1.89545e-13
3.29279e-18
9.75783e-26
3.55512e-38
2.13947e-40
1.96586e-41
4.6464e-45
6.44436e-11
2.75549e-10
5.09087e-10
2.49008e-09
2.70453e-05
4.11925e-05
6.18413e-06
2.1348e-05
1.27488e-05
1.07377e-05
2.30315e-05
1.01735e-08
8.65384e-06
1.2719e-06
2.16118e-09
1.70222e-05
1.03022e-06
5.31389e-10
4.70102e-10
7.59979e-10
9.85537e-07
0.000137341
2.81926e-10
2.71673e-13
3.57755e-18
1.32773e-25
9.39844e-42
7.05886e-45
6.16732e-47
5.14398e-51
6.92748e-10
1.28956e-06
0.000138218
8.50802e-09
3.51889e-08
1.31575e-08
8.26615e-09
9.6056e-08
6.42262e-07
1.79907e-05
4.86093e-05
1.5689e-07
8.60778e-07
2.88511e-05
1.60668e-05
4.66914e-06
5.9079e-10
1.79066e-06
3.56138e-10
8.24491e-10
2.86314e-07
0.000145145
6.61979e-11
2.90327e-13
2.18482e-18
6.10672e-26
3.22441e-45
4.78679e-49
1.42757e-52
3.69193e-57
5.32709e-08
8.41908e-08
9.97372e-08
7.84707e-09
0.000461996
9.50602e-05
1.06704e-06
3.23578e-08
1.13548e-06
6.42884e-06
2.50849e-06
6.58103e-07
4.30383e-07
6.50691e-07
9.92347e-09
9.97405e-09
3.05318e-06
2.33003e-10
7.40956e-09
3.8041e-08
2.69039e-08
0.000148294
4.42145e-11
4.41241e-14
7.9744e-20
8.83091e-28
5.80098e-49
3.59605e-53
1.64691e-57
1.21268e-62
5.48527e-06
0.00017978
7.79395e-08
1.44708e-06
6.03611e-05
0.000340464
3.35793e-06
5.88621e-10
1.01207e-09
1.42181e-06
8.16777e-11
9.58936e-11
1.27839e-06
3.51048e-08
7.66307e-09
2.29834e-06
3.14171e-10
3.16923e-10
4.82942e-06
1.08026e-05
1.67781e-07
1.10804e-10
2.16678e-12
8.50273e-17
2.71518e-23
3.81613e-32
4.61033e-53
1.36946e-57
1.99307e-62
4.28371e-68
6.25163e-10
8.1607e-10
2.57789e-05
3.09229e-05
1.08979e-05
1.23983e-06
8.25922e-09
4.48927e-07
1.96288e-08
1.46748e-06
1.58917e-06
5.09139e-12
3.56555e-13
5.52192e-15
1.05465e-11
1.83377e-05
7.75802e-13
2.21667e-11
3.52872e-10
6.26001e-10
1.46718e-10
1.58675e-11
1.99906e-15
8.34754e-22
3.26253e-30
5.34855e-41
1.93947e-57
2.9883e-62
1.63965e-67
9.62172e-74
1
1
1
1
1
1
1
1
1
1
1
1
1
1
1
1
1
1
1
1
1
1
1
1
1
1
1
1
1
1
1
1
1
1
1
1
1
1
1
1
1
1
1
1
1
1
1
1
1
1
1
1
1
1
1
1
1
1
1
1
1
1
1
1
1
1
1
1
1
1
1
1
1
1
1
1
1
1
1
1
1
1
1
1
1
1
1
1
1
1
1
1
1
1
1
1
1
1
1
1
1
1
1
1
1
1
1
1
1
1
1
1
1
1
1
1
1
1
1
1
1
1
1
1
1
1
1
1
1
1
1
1
1
1
1
1
1
1
1
1
1
1
1
1
1
1
1
1
1
1
1
1
1
1
1
1
1
1
1
1
1
1
1
1
1
1
1
1
1
1
1
1
1
1
1
1
1
1
1
1
1
1
1
1
1
1
1
1
1
1
1
1
1
1
1
1
1
1
1
1
1
1
1
1
1
1
1
1
1
1
1
1
1
1
1
1
1
1
1
1
1
1
1
1
1
1
1
1
1
1
1
1
1
1
1
1
1
1
1
1
1
1
1
1
1
1
1
1
1
1
1
1
1
1
1
1
1
1
1
1
1
1
1
1
1
1
1
1
1
1
1
1
1
1
1
1
1
1
1
1
1
1
1
1
1
1
1
1
1
1
1
1
1
1
1
1
1
1
1
1
1
1
1
1
1
1
1
1
1
1
1
1
1
1
1
1
1
1
1
1
1
1
1
1
1
1
1
1
1
1
1
1
1
1
1
1
1
1
1
1
1
1
1
1
1
1
1
1
1
1
1
1
1
1
1
1
1
1
1
1
1
1
1
1
1
1
1
1
1
1
1
1
1
1
1
1
1
1
1
1
1
1
1
1
1
1
1
1
1
1
1
1
1
1
1
1
1
1
1
1
1
1
1
1
1
1
1
1
1
1
1
1
1
1
1
1
1
1
1
1
1
1
1
1
1
1
1
1
1
1
1
1
1
1
1
1
1
1
1
1
1
1
1
1
1
1
1
1
1
1
1
1
1
1
1
1
1
1
1
1
1
1
1
1
1
1
1
1
1
1
1
1
1
1
1
1
1
1
1
1
1
1
1
1
1
1
1
1
1
1
0.999989
1
1
1
1
1
1
1
1
1
1
1
1
1
1
1
1
1
1
1
1
1
1
1
1
1
1
1
1
1
1
1
1
1
1
1
1
1
1
1
1
1
1
1
1
1
1
1
1
0.999986
1
1
1
1
1
1
1
1
0.999984
1
0.999998
0.999999
0.024841
1
1
1
1
1
1
1
1
1
1
1
1
1
1
1
1
0.99978
1
1
1
1
1
1
1
1
1
1
0.999999
0.704967
0.000377009
0.996167
1
1
1
1
1
1
1
1
1
1
1
1
1
1
1
1
1
1
1
1
1
1
1
1
1
1
0.999996
1.1979e-05
0.000563745
0.705809
0.999995
1
1
1
1
1
1
1
1
1
1
1
1
1
1
1
1
1
1
1
1
1
1
1
0.999998
0.999985
0.100024
2.67399e-08
0.00182705
0.03568
1
1
1
1
1
1
1
1
1
1
1
1
1
1
1
1
1
1
1
1
1
1
1
0.999999
1
0.867992
-1.51122e-07
1.62245e-09
1.96059e-08
0.000106782
0.996808
0.999993
1
1
1
1
1
1
1
1
1
1
1
1
1
1
1
1
1
1
1
1
1
1
1
1.47506e-05
3.77931e-08
2.15044e-09
0.00103449
8.03352e-06
0.414529
1
1
1
1
1
1
1
1
1
1
1
1
1
1
1
1
1
1
1
1
1
0.999986
1
0.291801
4.52352e-08
9.03701e-05
1.8844e-09
6.19542e-08
5.89379e-07
0.000179006
0.97623
0.999957
1
1
1
1
1
1
1
1
1
1
1
1
1
1
1
1
1
1
1
0.999989
1
1.83136e-05
1.71106e-09
1.48174e-09
2.20859e-09
3.51755e-07
2.61125e-07
1.83385e-05
0.464389
0.998066
1
1
1
1
1
1
1
1
1
1
1
1
1
1
1
1
1
0.999157
1
1
0.301954
4.31246e-07
1.15043e-05
2.2008e-09
1.86575e-09
1.7315e-08
1.41767e-07
9.26762e-05
9.13887e-05
0.985687
1
1
1
1
1
1
1
1
1
1
1
1
1
1
1
1
1
1
1
0.953664
-9.46575e-08
5.21168e-06
1.15011e-09
1.92367e-09
2.35859e-09
3.67656e-09
9.57057e-06
8.45689e-05
1.47312e-05
0.93054
1
1
1
1
1
1
1
1
1
1
1
1
1
1
1
1
0.999937
0.998032
1
3.09356e-05
3.86019e-08
5.06062e-05
1.40833e-08
1.16293e-06
1.00965e-05
2.61605e-06
4.09341e-06
9.13555e-05
0.000346312
7.83857e-05
1
1
1
1
1
1
1
1
1
1
1
1
1
1
1
1
0.99999
0.999895
0.983173
-4.06141e-08
1.6217e-08
1.98781e-09
4.517e-09
1.99401e-05
2.49107e-08
3.35997e-05
5.09672e-05
2.05149e-05
0.000154043
1.4772e-05
0.999994
0.999997
1
1
1
1
1
1
1
1
1
1
1
1
1
1
1
1
1
1
1
1
1
1
1
1
1
1
1
1
1
1
1
1
1
1
1
1
1
1
1
1
1
1
1
1
1
1
1
1
1
1
1
1
1
1
1
1
1
1
1
1
1
1
1
1
1
1
1
1
1
1
1
1
1
1
1
1
1
1
1
1
1
1
1
1
1
1
1
1
1
1
1
1
1
1
1
1
1
1
1
1
1
1
1
1
1
1
1
1
1
1
1
1
1
1
1
1
1
1
1
1
1
1
1
1
1
1
1
1
1
1
1
1
1
1
1
1
1
1
1
1
1
1
1
1
1
1
1
1
1
1
1
1
1
1
1
1
1
1
1
1
1
1
1
1
1
1
1
1
1
1
1
1
1
1
1
1
1
1
1
1
1
1
1
1
1
1
1
1
1
1
1
1
1
1
1
1
1
1
1
1
1
1
1
1
1
1
1
1
1
1
1
1
1
1
1
1
1
1
1
1
1
1
1
1
1
1
1
1
1
1
1
1
1
1
1
1
1
1
1
1
1
1
1
1
1
1
1
1
1
1
1
1
1
1
1
1
1
1
1
1
1
1
1
1
1
1
1
1
1
1
1
1
1
1
1
1
1
1
1
1
1
1
1
1
1
1
1
1
1
1
1
1
1
1
1
1
1
1
1
1
1
1
1
1
1
1
1
1
1
1
1
1
1
1
1
1
1
1
1
1
1
1
1
1
1
1
1
1
1
1
1
1
1
1
1
1
1
1
1
1
1
1
1
1
1
1
1
1
1
1
1
1
1
1
1
1
1
1
1
1
1
1
1
1
1
1
1
1
1
1
1
1
1
1
1
1
1
1
1
1
1
1
1
1
1
1
1
1
1
1
1
1
1
1
1
1
1
1
1
1
1
1
1
1
1
1
1
1
1
1
1
1
1
1
1
1
1
1
1
1
1
1
1
1
1
1
1
1
1
1
1
1
1
1
1
1
1
1
1
1
1
1
1
1
1
1
1
1
1
1
1
1
1
1
1
1
1
1
1
1
1
0.999527
0.99998
1
1
1
1
1
1
1
1
1
1
1
1
1
1
1
1
1
1
1
1
1
1
1
1
1
1
1
1
0.999788
0.999305
1
1
1
1
1
1
1
1
1
1
1
1
1
1
1
1
1
1
1
1
1
1
1
1
1
1
1
1
0.999964
1
1
1
1
1
1
1
1
1
1
1
1
1
1
1
1
1
1
0.999999
1
1
1
1
1
1
1
1
1
1
1
1
1
1
1
1
1
1
1
1
1
1
1
1
1
1
1
0.614387
0.999999
1
1
0.999999
1
1
1
1
1
1
1
1
1
1
1
1
1
1
1
1
1
1
0.999999
0.999999
1
1
1
1
0.530641
2.63187e-05
0.999902
0.999984
1
1
1
1
1
1
1
1
1
1
1
1
1
1
1
1
1
1
1
1
1
1
1
1
1
0.999956
0.0156284
4.78951e-07
0.000368982
0.999999
1
0.999999
1
1
1
1
1
1
1
1
1
1
0.999997
1
1
1
1
1
1
1
1
0.999997
1
1
0.999999
0.988293
8.45312e-05
4.48605e-07
7.30036e-07
0.743641
0.999996
0.999998
1
1
1
1
1
1
1
1
1
1
1
1
1
1
1
1
1
1
1
0.999997
1
1
0.999853
0.202574
1.94187e-06
6.4561e-07
4.14514e-05
5.81914e-06
0.995053
1
1
0.999999
1
1
1
1
1
1
1
0.999999
1
1
1
1
1
1
1
1
1
1
1
1
1
4.34008e-05
6.87856e-07
2.81744e-06
3.36104e-07
8.35509e-09
0.000134683
0.999999
0.999996
0.999977
1
1
1
1
1
1
1
0.993799
0.99993
1
1
1
1
1
1
1
1
1
1
1
0.991667
1.36216e-07
1.26961e-07
1.01435e-08
3.52206e-09
5.04946e-06
-4.02793e-08
0.932487
0.999993
1
1
1
1
1
1
1
0.999999
0.989567
0.999786
1
1
1
1
1
1
1
1
1
1
1
0.0181271
1.38322e-07