/*--------------------------------*- C++ -*----------------------------------*\
| =========                 |                                                 |
| \\      /  F ield         | OpenFOAM: The Open Source CFD Toolbox           |
|  \\    /   O peration     | Version:  2.4.0                                 |
|   \\  /    A nd           | Web:      www.OpenFOAM.org                      |
|    \\/     M anipulation  |                                                 |
\*---------------------------------------------------------------------------*/
FoamFile
{
    version     2.0;
    format      ascii;
    class       volVectorField;
    location    "0.116";
    object      U;
}
// * * * * * * * * * * * * * * * * * * * * * * * * * * * * * * * * * * * * * //

dimensions      [0 1 -1 0 0 0 0];

internalField   nonuniform List<vector> 
57600
(
(-0.00548332 0.000310556 0)
(-0.00855964 2.09318e-05 0)
(-0.00826876 -7.20038e-05 0)
(-0.00191116 -0.000167177 0)
(0.00829206 -0.000203051 0)
(0.0185553 -0.000194246 0)
(0.028156 -0.000211883 0)
(0.0372457 -0.000203506 0)
(0.0439348 -0.000108629 0)
(0.045928 5.68308e-05 0)
(0.0432917 0.000216484 0)
(0.0368081 0.000420714 0)
(0.0262357 0.000652871 0)
(0.0126924 0.000759724 0)
(-0.000752263 0.000683329 0)
(-0.0115702 0.000512173 0)
(-0.019039 0.000329639 0)
(-0.0234807 0.000163699 0)
(-0.0255376 2.13901e-05 0)
(-0.025824 -0.000101647 0)
(-0.0248386 -0.000209151 0)
(-0.0229755 -0.000301985 0)
(-0.0205552 -0.000379873 0)
(-0.0178254 -0.000443701 0)
(-0.0149651 -0.000495541 0)
(-0.0120956 -0.000538159 0)
(-0.00929806 -0.000571933 0)
(-0.006634 -0.000596079 0)
(-0.00415293 -0.000608683 0)
(-0.00188507 -0.000611971 0)
(-0.00803716 0.00147945 0)
(-0.0200939 0.000316489 0)
(-0.0210873 -0.000484439 0)
(-0.0119539 -0.00131456 0)
(0.00399094 -0.00171018 0)
(0.0212054 -0.0018123 0)
(0.0385073 -0.00198466 0)
(0.0550819 -0.00186978 0)
(0.0680482 -0.00114137 0)
(0.0744748 -1.7491e-05 0)
(0.0747523 0.00105343 0)
(0.0698788 0.00238276 0)
(0.0595618 0.00391896 0)
(0.0448682 0.00491085 0)
(0.0288647 0.00491499 0)
(0.0145592 0.00420209 0)
(0.0033273 0.00318402 0)
(-0.00466455 0.0020978 0)
(-0.00976042 0.00106061 0)
(-0.0125012 0.000119933 0)
(-0.0134705 -0.000699141 0)
(-0.0132068 -0.00138307 0)
(-0.0121579 -0.0019318 0)
(-0.0106652 -0.00236173 0)
(-0.00897004 -0.00269435 0)
(-0.00723188 -0.00294948 0)
(-0.00554587 -0.00313576 0)
(-0.00396616 -0.00325288 0)
(-0.00251927 -0.00330446 0)
(-0.00121315 -0.0033076 0)
(-0.00850477 0.00284487 0)
(-0.0221623 0.000818081 0)
(-0.02424 -0.00076129 0)
(-0.0157555 -0.00247484 0)
(6.03815e-05 -0.00337846 0)
(0.0174216 -0.00368241 0)
(0.0352241 -0.00410026 0)
(0.0526523 -0.00398488 0)
(0.0667686 -0.00272445 0)
(0.074537 -0.000677661 0)
(0.0764158 0.00125807 0)
(0.073429 0.0036335 0)
(0.0652217 0.00644542 0)
(0.052929 0.0084138 0)
(0.0395429 0.00869793 0)
(0.0277803 0.0076708 0)
(0.0186915 0.00607504 0)
(0.0121123 0.00433892 0)
(0.00757999 0.00265344 0)
(0.00464859 0.00111549 0)
(0.00290727 -0.000213696 0)
(0.00198732 -0.00129882 0)
(0.00157913 -0.00213679 0)
(0.00143126 -0.00274696 0)
(0.00135039 -0.00316162 0)
(0.00120395 -0.00342175 0)
(0.000927501 -0.00356718 0)
(0.000525499 -0.00363047 0)
(5.06236e-05 -0.00364031 0)
(-0.000431677 -0.00362359 0)
(-0.00867658 0.00425063 0)
(-0.0225588 0.00135524 0)
(-0.0248393 -0.00100211 0)
(-0.0164387 -0.00362348 0)
(-0.00055614 -0.00504446 0)
(0.0167858 -0.0055556 0)
(0.0346291 -0.00624705 0)
(0.0522449 -0.00615918 0)
(0.0666426 -0.00438149 0)
(0.0745208 -0.00141736 0)
(0.0765492 0.00133063 0)
(0.0739163 0.00470587 0)
(0.0659084 0.00878509 0)
(0.0535307 0.0116831 0)
(0.0400631 0.0121525 0)
(0.028498 0.0107256 0)
(0.0198386 0.00854524 0)
(0.0137042 0.00626063 0)
(0.00946483 0.00409236 0)
(0.00663272 0.00213531 0)
(0.0048344 0.000460153 0)
(0.00376249 -0.000889311 0)
(0.00315782 -0.00189769 0)
(0.00280463 -0.00257698 0)
(0.00252659 -0.0029554 0)
(0.00218723 -0.00308363 0)
(0.0017048 -0.00303837 0)
(0.00107233 -0.00291453 0)
(0.000351919 -0.00279951 0)
(-0.000368218 -0.00273957 0)
(-0.00885068 0.00567861 0)
(-0.0227668 0.00189563 0)
(-0.02513 -0.00123349 0)
(-0.0167213 -0.00477907 0)
(-0.000690897 -0.00671892 0)
(0.0166466 -0.00742439 0)
(0.0345152 -0.00840788 0)
(0.0523245 -0.00836866 0)
(0.0670607 -0.00607338 0)
(0.0750112 -0.00215431 0)
(0.0770946 0.00136952 0)
(0.0747939 0.00572289 0)
(0.0668443 0.0111602 0)
(0.0539723 0.0150798 0)
(0.039779 0.0157207 0)
(0.0277222 0.0138164 0)
(0.018846 0.0110005 0)
(0.0125916 0.00816575 0)
(0.00822831 0.00554317 0)
(0.00524417 0.00320114 0)
(0.00327239 0.00120615 0)
(0.00202301 -0.000395218 0)
(0.0012655 -0.00158489 0)
(0.000824894 -0.002368 0)
(0.000560706 -0.002767 0)
(0.000363691 -0.00283188 0)
(0.000156417 -0.00266054 0)
(-9.34857e-05 -0.00239934 0)
(-0.000371661 -0.00219186 0)
(-0.000642606 -0.00210648 0)
(-0.00906955 0.00713221 0)
(-0.0229951 0.00243422 0)
(-0.0254472 -0.00145715 0)
(-0.0170205 -0.00594591 0)
(-0.000796226 -0.00840627 0)
(0.016529 -0.00928616 0)
(0.0344194 -0.0105845 0)
(0.0524636 -0.0106219 0)
(0.0676456 -0.00781255 0)
(0.0756786 -0.00288078 0)
(0.0778066 0.00137176 0)
(0.0759715 0.00667055 0)
(0.0681222 0.0135924 0)
(0.0546275 0.0186753 0)
(0.0394885 0.0194908 0)
(0.02682 0.0170157 0)
(0.0177323 0.0135025 0)
(0.0114012 0.01011 0)
(0.00697057 0.00704191 0)
(0.00391744 0.00432835 0)
(0.00187077 0.00202739 0)
(0.000528667 0.000184376 0)
(-0.000328341 -0.00119135 0)
(-0.000855941 -0.00211237 0)
(-0.00115234 -0.00260826 0)
(-0.00128115 -0.0027308 0)
(-0.00128915 -0.0025844 0)
(-0.00121321 -0.00233179 0)
(-0.00108422 -0.00213423 0)
(-0.000928058 -0.00206782 0)
(-0.00934157 0.00861769 0)
(-0.0232672 0.00296942 0)
(-0.0258318 -0.00167115 0)
(-0.0173859 -0.00712687 0)
(-0.000918246 -0.0101102 0)
(0.0163843 -0.0111379 0)
(0.0342961 -0.0127805 0)
(0.0526195 -0.0129295 0)
(0.068371 -0.00961428 0)
(0.0764849 -0.00358715 0)
(0.078626 0.00132814 0)
(0.0774339 0.00752464 0)
(0.0697366 0.0160943 0)
(0.0554725 0.0225273 0)
(0.0391158 0.0235167 0)
(0.0257043 0.0203312 0)
(0.0164413 0.0160288 0)
(0.0101042 0.0120647 0)
(0.00567465 0.00855072 0)
(0.0026432 0.00545973 0)
(0.000648701 0.00285138 0)
(-0.000626988 0.00077253 0)
(-0.00143161 -0.000778831 0)
(-0.00192219 -0.00184081 0)
(-0.00218123 -0.00246521 0)
(-0.00224481 -0.00271654 0)
(-0.00213341 -0.00269955 0)
(-0.0018777 -0.00256442 0)
(-0.00152781 -0.00245595 0)
(-0.00114006 -0.00244298 0)
(-0.00967165 0.010142 0)
(-0.0235832 0.00349963 0)
(-0.0262896 -0.00187286 0)
(-0.0178241 -0.0083249 0)
(-0.00105756 -0.0118345 0)
(0.0162077 -0.0129756 0)
(0.0341397 -0.0149995 0)
(0.052783 -0.0153022 0)
(0.0692471 -0.011497 0)
(0.0774281 -0.00425713 0)
(0.079519 0.00122473 0)
(0.0792061 0.00825586 0)
(0.0717229 0.0186828 0)
(0.0565331 0.0267069 0)
(0.0386186 0.0278666 0)
(0.0243049 0.0237707 0)
(0.0149222 0.0185562 0)
(0.00863624 0.014012 0)
(0.00423106 0.0100509 0)
(0.00125513 0.00656055 0)
(-0.0006218 0.00361985 0)
(-0.0017384 0.00129428 0)
(-0.00237677 -0.000432579 0)
(-0.00271609 -0.00163182 0)
(-0.00284627 -0.0023857 0)
(-0.00279977 -0.00278202 0)
(-0.00258824 -0.00292652 0)
(-0.00223562 -0.0029462 0)
(-0.00178995 -0.00295578 0)
(-0.00130948 -0.00301081 0)
(-0.0100655 0.0117127 0)
(-0.0239403 0.00402287 0)
(-0.0268224 -0.00205934 0)
(-0.0183377 -0.00954308 0)
(-0.00121056 -0.0135844 0)
(0.015997 -0.0147944 0)
(0.0339462 -0.0172453 0)
(0.0529435 -0.0177503 0)
(0.0702877 -0.0134844 0)
(0.0785073 -0.00486417 0)
(0.0804408 0.00103824 0)
(0.0813178 0.00882685 0)
(0.0741172 0.0213821 0)
(0.0578484 0.0312998 0)
(0.0379512 0.0326241 0)
(0.0225481 0.0273355 0)
(0.013157 0.0210522 0)
(0.00699344 0.0159416 0)
(0.00261398 0.0115396 0)
(-0.000304131 0.00761709 0)
(-0.0020299 0.00430325 0)
(-0.00293238 0.00170377 0)
(-0.00334012 -0.00020947 0)
(-0.00346451 -0.00154281 0)
(-0.00341161 -0.00241626 0)
(-0.00322172 -0.00294393 0)
(-0.00290846 -0.00323625 0)
(-0.00248971 -0.00340068 0)
(-0.00200103 -0.00352486 0)
(-0.00148562 -0.00365089 0)
(-0.01053 0.013338 0)
(-0.0243347 0.0045367 0)
(-0.0274324 -0.00222724 0)
(-0.0189299 -0.0107846 0)
(-0.00137252 -0.015366 0)
(0.0157493 -0.0165878 0)
(0.0337112 -0.019522 0)
(0.0530874 -0.0202831 0)
(0.0715091 -0.0156094 0)
(0.0797212 -0.00536545 0)
(0.0813321 0.000729534 0)
(0.0837771 0.00918864 0)
(0.0769514 0.0242227 0)
(0.0594726 0.0364074 0)
(0.0370513 0.0378926 0)
(0.0203301 0.031013 0)
(0.0111385 0.023466 0)
(0.00519032 0.0178464 0)
(0.000813953 0.0130246 0)
(-0.00206252 0.0086245 0)
(-0.00361043 0.00488058 0)
(-0.00425157 0.00197139 0)
(-0.00438238 -0.000140512 0)
(-0.00425506 -0.00160371 0)
(-0.00399354 -0.00258084 0)
(-0.00364699 -0.00321315 0)
(-0.00323152 -0.00362038 0)
(-0.00275741 -0.00390063 0)
(-0.0022422 -0.0041244 0)
(-0.00170767 -0.00432458 0)
(-0.0110736 0.0150268 0)
(-0.0247609 0.00503802 0)
(-0.0281221 -0.00237276 0)
(-0.0196041 -0.0120528 0)
(-0.00153792 -0.0171866 0)
(0.0154605 -0.0183473 0)
(0.0334303 -0.0218341 0)
(0.0531963 -0.0229081 0)
(0.072928 -0.0179215 0)
(0.0810649 -0.00569356 0)
(0.082115 0.000231438 0)
(0.0863829 0.00925925 0)
(0.0803258 0.0272221 0)
(0.0614977 0.0421453 0)
(0.0358379 0.0437993 0)
(0.017499 0.0347643 0)
(0.00887765 0.0257193 0)
(0.00325739 0.0197267 0)
(-0.00117827 0.0145261 0)
(-0.00405303 0.00958227 0)
(-0.00539517 0.00532796 0)
(-0.00571446 0.0020672 0)
(-0.00551761 -0.00025072 0)
(-0.00510682 -0.00183233 0)
(-0.00462129 -0.00288915 0)
(-0.00411384 -0.00359183 0)
(-0.00359975 -0.00407334 0)
(-0.00308054 -0.00443377 0)
(-0.00255248 -0.00473972 0)
(-0.00200984 -0.00502235 0)
(-0.0117066 0.0167893 0)
(-0.0252122 0.00552315 0)
(-0.0288948 -0.00249159 0)
(-0.0203644 -0.013351 0)
(-0.00170021 -0.0190552 0)
(0.015125 -0.0200619 0)
(0.0330986 -0.0241868 0)
(0.0532467 -0.02563 0)
(0.0745596 -0.0205019 0)
(0.082524 -0.00574856 0)
(0.0826989 -0.000568972 0)
(0.088357 0.0087842 0)
(0.0847324 0.0303799 0)
(0.0641249 0.0486735 0)
(0.0342056 0.0504971 0)
(0.0138285 0.0385018 0)
(0.00642434 0.0276972 0)
(0.00124833 0.0215983 0)
(-0.00337622 0.0160845 0)
(-0.00632515 0.0104934 0)
(-0.00741778 0.00561393 0)
(-0.00733185 0.00195389 0)
(-0.00674215 -0.00056851 0)
(-0.00601121 -0.00224466 0)
(-0.00528419 -0.00334825 0)
(-0.00461061 -0.00407978 0)
(-0.00400204 -0.00458698 0)
(-0.00345412 -0.00498164 0)
(-0.00294372 -0.00534644 0)
(-0.00242712 -0.00572611 0)
(-0.0124413 0.018637 0)
(-0.0256798 0.00598775 0)
(-0.0297545 -0.00257878 0)
(-0.0212158 -0.0146825 0)
(-0.00185177 -0.0209834 0)
(0.0147351 -0.0217174 0)
(0.0327114 -0.0265872 0)
(0.0532081 -0.0284495 0)
(0.0764126 -0.0234923 0)
(0.0840679 -0.00539462 0)
(0.0830474 -0.00183179 0)
(0.089865 0.00716232 0)
(0.0908827 0.0338 0)
(0.0677872 0.0563467 0)
(0.0319984 0.0581699 0)
(0.00898547 0.0420447 0)
(0.00390202 0.0292399 0)
(-0.000751448 0.0235092 0)
(-0.00580326 0.0177702 0)
(-0.00895325 0.0113639 0)
(-0.00972825 0.0056901 0)
(-0.00911305 0.00157813 0)
(-0.00804254 -0.00112727 0)
(-0.00694523 -0.00286091 0)
(-0.00595503 -0.00396775 0)
(-0.00510343 -0.00468043 0)
(-0.00439518 -0.00515453 0)
(-0.00383566 -0.0055096 0)
(-0.00342511 -0.00586153 0)
(-0.00310294 -0.00632241 0)
(-0.0132929 0.0205826 0)
(-0.0261521 0.00642676 0)
(-0.0307059 -0.00262872 0)
(-0.0221635 -0.0160505 0)
(-0.00198394 -0.0229864 0)
(0.0142801 -0.0232953 0)
(0.0322645 -0.0290453 0)
(0.053041 -0.0313621 0)
(0.0784789 -0.0271444 0)
(0.0856577 -0.00445322 0)
(0.0832206 -0.00377312 0)
(0.0928106 0.00393268 0)
(0.0958796 0.0382582 0)
(0.0732744 0.0659589 0)
(0.0290143 0.0670451 0)
(0.00236379 0.0451054 0)
(0.00154383 0.0301275 0)
(-0.0026214 0.0255635 0)
(-0.00849796 0.0196996 0)
(-0.012059 0.0122031 0)
(-0.0123913 0.00547682 0)
(-0.0110534 0.000866148 0)
(-0.00938849 -0.00197394 0)
(-0.00787508 -0.00370209 0)
(-0.00659838 -0.00476146 0)
(-0.00554948 -0.00540696 0)
(-0.00471319 -0.00578944 0)
(-0.00409878 -0.00599561 0)
(-0.0037868 -0.00610264 0)
(-0.00382386 -0.0064534 0)
(-0.0142794 0.022641 0)
(-0.0266144 0.00683436 0)
(-0.0317551 -0.00263498 0)
(-0.023214 -0.0174582 0)
(-0.00208699 -0.0250844 0)
(0.0137453 -0.0247717 0)
(0.0317541 -0.0315767 0)
(0.0526952 -0.0343578 0)
(0.0807111 -0.0318906 0)
(0.0873177 -0.0026487 0)
(0.0833588 -0.0069637 0)
(0.089662 -0.00167107 0)
(0.0978105 0.045694 0)
(0.0823995 0.0797219 0)
(0.0252279 0.0772326 0)
(-0.00698044 0.0473279 0)
(-1.91199e-05 0.0301149 0)
(-0.00421557 0.0279485 0)
(-0.0115199 0.0220622 0)
(-0.0158427 0.0130187 0)
(-0.0154898 0.00483772 0)
(-0.0131259 -0.000287594 0)
(-0.01073 -0.00315455 0)
(-0.00875806 -0.00478901 0)
(-0.00717707 -0.00574264 0)
(-0.00591305 -0.00628005 0)
(-0.00491101 -0.00654685 0)
(-0.00410093 -0.00661484 0)
(-0.00331887 -0.00651822 0)
(-0.00233491 -0.00662683 0)
(-0.0154229 0.0248291 0)
(-0.0270476 0.00720369 0)
(-0.0329096 -0.00259027 0)
(-0.024374 -0.0189084 0)
(-0.00215038 -0.0273029 0)
(0.0131099 -0.0261155 0)
(0.0311778 -0.034206 0)
(0.0521056 -0.0374217 0)
(0.0828453 -0.0383883 0)
(0.0888872 0.000438238 0)
(0.0840357 -0.0128738 0)
(0.0836891 -0.0107104 0)
(0.120684 0.0533372 0)
(0.0915247 0.0997533 0)
(0.0214699 0.0886524 0)
(-0.0217652 0.0479999 0)
(0.000963145 0.0295233 0)
(-0.00540465 0.0309637 0)
(-0.014928 0.0251696 0)
(-0.0206586 0.0138123 0)
(-0.0191201 0.00352775 0)
(-0.0152501 -0.00202261 0)
(-0.011983 -0.00470932 0)
(-0.00954073 -0.00612945 0)
(-0.00765791 -0.00691934 0)
(-0.00616983 -0.00731334 0)
(-0.00500887 -0.00744947 0)
(-0.00410291 -0.00751171 0)
(-0.00317168 -0.00800482 0)
(-0.00148632 -0.00960436 0)
(-0.0167497 0.027166 0)
(-0.0274279 0.00752644 0)
(-0.0341783 -0.00248621 0)
(-0.0256508 -0.0204036 0)
(-0.00216306 -0.0296779 0)
(0.0123448 -0.027287 0)
(0.0305345 -0.0369721 0)
(0.0511874 -0.0405498 0)
(0.081227 -0.0471456 0)
(0.0889239 0.0044613 0)
(0.0798602 -0.0202346 0)
(0.0813465 -0.011575 0)
(0.13778 0.0456111 0)
(0.0823081 0.119665 0)
(0.0161322 0.100547 0)
(-0.0137151 0.041651 0)
(0.00659071 0.0302452 0)
(-0.00614773 0.0349209 0)
(-0.0187847 0.0295871 0)
(-0.0272004 0.0145492 0)
(-0.0233589 0.00109124 0)
(-0.0172427 -0.00450707 0)
(-0.013022 -0.00664651 0)
(-0.0101675 -0.00770518 0)
(-0.00801324 -0.00829027 0)
(-0.00628793 -0.00851637 0)
(-0.00495185 -0.00844085 0)
(-0.00409828 -0.0082171 0)
(-0.00392711 -0.00838359 0)
(-0.00473586 -0.00970569 0)
(-0.018291 0.0296731 0)
(-0.0277252 0.00779185 0)
(-0.0355725 -0.00231337 0)
(-0.0270526 -0.0219456 0)
(-0.00211383 -0.0322581 0)
(0.0114091 -0.0282349 0)
(0.0298236 -0.0399361 0)
(0.0499413 -0.0437267 0)
(0.0651569 -0.0557068 0)
(0.0876701 0.008175 0)
(0.0768081 -0.0166797 0)
(0.0849161 -0.0150943 0)
(0.117553 0.0265307 0)
(0.0554137 0.13361 0)
(0.0159747 0.110318 0)
(0.0248007 0.0215004 0)
(0.0144005 0.0374825 0)
(-0.00655063 0.0397053 0)
(-0.0233449 0.036405 0)
(-0.036419 0.0150128 0)
(-0.0280405 -0.0033026 0)
(-0.0187197 -0.00788601 0)
(-0.0136788 -0.00889114 0)
(-0.0105979 -0.00945479 0)
(-0.0082453 -0.00984627 0)
(-0.00624992 -0.00993688 0)
(-0.00458717 -0.00961928 0)
(-0.00341562 -0.00887695 0)
(-0.0029316 -0.00833815 0)
(-0.00257941 -0.00861475 0)
(-0.0200836 0.032375 0)
(-0.027903 0.0079848 0)
(-0.0371058 -0.00206096 0)
(-0.0285871 -0.0235358 0)
(-0.00199238 -0.0351099 0)
(0.0102451 -0.028894 0)
(0.0290438 -0.0431942 0)
(0.0482833 -0.0467341 0)
(0.0666652 -0.0591012 0)
(0.081681 0.0106104 0)
(0.0894856 -0.00439955 0)
(0.0946605 -0.0405065 0)
(-2.78706 0.0250819 0)
(0.0107326 0.187571 0)
(0.00686307 0.111062 0)
(0.0359417 0.000670753 0)
(0.0108451 0.0507822 0)
(-0.00698185 0.0442739 0)
(-0.027633 0.0468685 0)
(-0.0475178 0.0148505 0)
(-0.0319719 -0.0108369 0)
(-0.0189739 -0.0120767 0)
(-0.013776 -0.011212 0)
(-0.010842 -0.0112552 0)
(-0.00841442 -0.0115649 0)
(-0.00612358 -0.0116583 0)
(-0.00394698 -0.0112636 0)
(-0.00195416 -0.0101903 0)
(-0.000291725 -0.00883452 0)
(0.00118378 -0.0105515 0)
(-0.0221702 0.0352992 0)
(-0.0279173 0.00808337 0)
(-0.0387949 -0.00171691 0)
(-0.0302621 -0.0251746 0)
(-0.00178994 -0.0383263 0)
(0.00877261 -0.0291827 0)
(0.0281882 -0.0468952 0)
(0.0463439 -0.0495522 0)
(0.0955568 -0.0640088 0)
(0.0688747 0.00819374 0)
(0.078723 0.0107173 0)
(-0.199388 0.0101129 0)
(0.544011 0.431858 0)
(0.0637409 0.1536 0)
(-0.0543403 0.0950292 0)
(-0.0069788 -0.00606555 0)
(-0.0097817 0.0599077 0)
(-0.00701689 0.0468763 0)
(-0.0256596 0.0609053 0)
(-0.0505989 0.0134542 0)
(-0.0302491 -0.021473 0)
(-0.0170376 -0.016311 0)
(-0.0132761 -0.0131484 0)
(-0.0110158 -0.0129292 0)
(-0.00865879 -0.0134059 0)
(-0.00608417 -0.0137359 0)
(-0.00334042 -0.0135802 0)
(-0.000417788 -0.0127927 0)
(0.00275397 -0.0117229 0)
(0.00561554 -0.0126551 0)
(-0.0245997 0.0384754 0)
(-0.0277148 0.00805415 0)
(-0.0406603 -0.00126776 0)
(-0.0320846 -0.026862 0)
(-0.00149973 -0.0420364 0)
(0.00688253 -0.0290022 0)
(0.0272357 -0.0512698 0)
(0.0440014 -0.0518731 0)
(0.105174 -0.0752004 0)
(0.0531642 0.00266676 0)
(-0.0378998 0.0377992 0)
(1.42289 -0.313176 0)
(0.553572 0.402764 0)
(2.0655 0.0629614 0)
(-0.0320489 0.121832 0)
(-0.0167818 -0.00296231 0)
(-0.0358721 0.057992 0)
(-0.00397461 0.0453077 0)
(-0.00772939 0.0759152 0)
(-0.0334298 0.0100878 0)
(-0.0137303 -0.0284548 0)
(-0.0124291 -0.0184635 0)
(-0.0125177 -0.0140803 0)
(-0.0113843 -0.0143095 0)
(-0.00918334 -0.0153281 0)
(-0.00635479 -0.0161583 0)
(-0.00312866 -0.016511 0)
(0.000420027 -0.0163509 0)
(0.00427099 -0.0159207 0)
(0.00805199 -0.0162782 0)
(-0.0274291 0.0419329 0)
(-0.027231 0.00784658 0)
(-0.0427267 -0.000698906 0)
(-0.0340598 -0.0285972 0)
(-0.00111374 -0.0464294 0)
(0.00443018 -0.0282405 0)
(0.02613 -0.0566612 0)
(0.0407738 -0.0537952 0)
(0.0854616 -0.0666494 0)
(0.0152401 -0.00289891 0)
(0.244803 -0.0416903 0)
(0.991895 -0.228823 0)
(0.361514 0.53341 0)
(-0.671996 -0.103132 0)
(-0.0333261 0.0526612 0)
(-0.045212 0.0331769 0)
(-0.0591376 0.0491379 0)
(0.0079598 0.0370786 0)
(0.0299309 0.0882419 0)
(-0.00423408 0.0152785 0)
(0.00288515 -0.0325803 0)
(-0.00718509 -0.0156255 0)
(-0.0124045 -0.0136147 0)
(-0.01234 -0.0153578 0)
(-0.0102164 -0.0173331 0)
(-0.0071212 -0.0188899 0)
(-0.00349594 -0.0198993 0)
(0.000462245 -0.0204252 0)
(0.00463868 -0.020655 0)
(0.00879843 -0.0210663 0)
(-0.0307245 0.0457019 0)
(-0.0263863 0.0073887 0)
(-0.0450246 4.89721e-06 0)
(-0.0361906 -0.0303795 0)
(-0.000612832 -0.0517827 0)
(0.00121977 -0.0267654 0)
(0.0242334 -0.0632486 0)
(0.0371502 -0.055229 0)
(0.0205069 -0.0409805 0)
(-0.213727 0.0164129 0)
(1.39246 -0.373103 0)
(0.841955 -0.0975541 0)
(0.668842 0.612187 0)
(-0.149977 0.37156 0)
(-0.125699 0.0581515 0)
(-0.109773 0.0296091 0)
(-0.0918709 0.0388687 0)
(0.0376003 0.00913048 0)
(0.0778041 0.0997251 0)
(0.0403624 0.030606 0)
(0.0153154 -0.0318807 0)
(-0.00609802 -0.00794122 0)
(-0.0140456 -0.0121269 0)
(-0.0142681 -0.0162653 0)
(-0.0119509 -0.0195012 0)
(-0.00850019 -0.021929 0)
(-0.00449263 -0.0236495 0)
(-0.000207457 -0.0248303 0)
(0.00421242 -0.0256641 0)
(0.0086529 -0.0263969 0)
(-0.0345629 0.0498155 0)
(-0.0250818 0.00658349 0)
(-0.0475915 0.000858736 0)
(-0.0384761 -0.0322092 0)
(4.56919e-05 -0.0584885 0)
(-0.00303844 -0.0243816 0)
(0.0155785 -0.0691469 0)
(0.0309046 -0.0564537 0)
(-0.107433 -0.00167489 0)
(1.89716 -0.337401 0)
(0.939253 -0.263999 0)
(0.5421 -0.000191456 0)
(0.473966 0.384458 0)
(0.154635 0.648203 0)
(-0.945857 -0.610282 0)
(-0.188608 0.0684734 0)
(-0.116483 0.0402194 0)
(0.0125162 -0.0948485 0)
(0.102887 0.120911 0)
(0.068435 0.0473921 0)
(0.020867 -0.0122813 0)
(-0.0119317 0.000928998 0)
(-0.0179094 -0.0107408 0)
(-0.0173702 -0.0173907 0)
(-0.0144978 -0.0219875 0)
(-0.0105364 -0.0253298 0)
(-0.00609915 -0.0277417 0)
(-0.00150604 -0.0295064 0)
(0.00309336 -0.0309142 0)
(0.00774376 -0.0322821 0)
(-0.0390354 0.0543101 0)
(-0.0231933 0.00530401 0)
(-0.0504743 0.00187594 0)
(-0.0409109 -0.0340893 0)
(0.000517272 -0.0669137 0)
(-0.0087496 -0.0209983 0)
(-0.00550565 -0.0702658 0)
(0.0213767 -0.0596858 0)
(-0.193199 -0.0103832 0)
(0.962119 -0.327507 0)
(0.476403 -0.203478 0)
(0.281879 0.0444954 0)
(0.153944 0.284578 0)
(0.8686 0.72434 0)
(-0.338132 0.0555073 0)
(-0.00613321 0.123787 0)
(-0.149629 0.0129362 0)
(-0.0849202 -0.122412 0)
(0.03601 0.105868 0)
(0.0537265 0.0558798 0)
(-0.00212748 0.0207384 0)
(-0.022897 0.00614247 0)
(-0.0235955 -0.0105032 0)
(-0.0215866 -0.0190939 0)
(-0.0178401 -0.0249706 0)
(-0.0132012 -0.0291852 0)
(-0.00823824 -0.0322119 0)
(-0.00328961 -0.0344233 0)
(0.00142477 -0.0361673 0)
(0.00558934 -0.0378524 0)
(-0.044249 0.0592218 0)
(-0.0205624 0.00338506 0)
(-0.0537312 0.00306563 0)
(-0.0434846 -0.0360276 0)
(-0.00386713 -0.0758953 0)
(-0.0164731 -0.0165042 0)
(-0.0218586 -0.0679185 0)
(-0.0513527 -0.05051 0)
(0.591045 -0.393019 0)
(0.536202 -0.198989 0)
(0.265762 -0.160192 0)
(0.108201 0.0623065 0)
(0.0738488 0.250215 0)
(0.956241 0.716421 0)
(0.117781 0.344071 0)
(-0.116417 -0.809335 0)
(-0.118217 0.0213053 0)
(-0.141045 -0.147514 0)
(-0.0928854 0.041504 0)
(-0.0177532 0.0520257 0)
(-0.0428438 0.0378183 0)
(-0.0345029 0.00508546 0)
(-0.0304945 -0.0117518 0)
(-0.0268254 -0.0216068 0)
(-0.0219843 -0.0286157 0)
(-0.0164364 -0.0336251 0)
(-0.0107995 -0.0371548 0)
(-0.00535224 -0.039708 0)
(-0.000148767 -0.0416226 0)
(0.00467486 -0.0427896 0)
(-0.0503328 0.0645859 0)
(-0.0169854 0.000610333 0)
(-0.057435 0.00442927 0)
(-0.046186 -0.0380392 0)
(-0.0214604 -0.0819064 0)
(-0.0265599 -0.0113129 0)
(-0.0632008 -0.0583091 0)
(-0.123038 -0.0422514 0)
(0.718321 -0.315936 0)
(0.249741 -0.136919 0)
(0.123122 -0.129502 0)
(0.0125355 0.0640689 0)
(0.093697 0.228899 0)
(0.768845 0.538606 0)
(0.547032 0.603944 0)
(-0.702863 -0.320346 0)
(0.135356 0.148621 0)
(-0.185884 -0.159377 0)
(-0.159892 -0.0172904 0)
(-0.117036 0.0573189 0)
(-0.0666465 0.0278998 0)
(-0.044946 3.74285e-05 0)
(-0.0381834 -0.0143392 0)
(-0.0331063 -0.0249874 0)
(-0.0268595 -0.0331785 0)
(-0.0200753 -0.0388358 0)
(-0.0136245 -0.042672 0)
(-0.00764863 -0.0455107 0)
(-0.00207231 -0.047696 0)
(0.00268357 -0.0484458 0)
(-0.0574435 0.0704446 0)
(-0.0121945 -0.00330806 0)
(-0.0616763 0.00595433 0)
(-0.049004 -0.0401461 0)
(-0.0384104 -0.0860765 0)
(-0.0382368 -0.00671131 0)
(-0.15495 -0.044935 0)
(1.05307 -0.27238 0)
(0.467382 -0.20377 0)
(0.135516 -0.11095 0)
(0.0424365 -0.108423 0)
(-0.0230559 0.0543609 0)
(0.118761 0.206745 0)
(0.710176 0.39386 0)
(0.747877 0.821346 0)
(0.129917 0.0703869 0)
(-0.498552 -0.396078 0)
(-0.221621 -0.132502 0)
(-0.21269 -0.0475209 0)
(-0.106969 0.0420224 0)
(-0.0766284 0.0101387 0)
(-0.0547908 -0.00678408 0)
(-0.0457242 -0.017882 0)
(-0.039687 -0.029289 0)
(-0.0318614 -0.0389273 0)
(-0.0237183 -0.0449613 0)
(-0.016446 -0.0487702 0)
(-0.0101517 -0.0516119 0)
(-0.0048221 -0.0535334 0)
(-0.000952053 -0.05292 0)
(-0.0657475 0.076842 0)
(-0.00583257 -0.00876945 0)
(-0.0665662 0.0076045 0)
(-0.0518818 -0.042397 0)
(-0.0630225 -0.0875204 0)
(-0.045471 -0.00528715 0)
(0.891016 -0.276363 0)
(0.716319 -0.154414 0)
(0.247854 -0.115082 0)
(0.0709439 -0.0997313 0)
(0.0104962 -0.0963931 0)
(-0.0187792 0.0416631 0)
(0.121623 0.162839 0)
(0.58416 0.257304 0)
(0.797767 0.955952 0)
(0.33155 0.220384 0)
(-0.717162 -0.0803613 0)
(-0.224668 -0.0289022 0)
(-0.118398 -0.010327 0)
(-0.134388 0.011 0)
(-0.0919194 -0.00853454 0)
(-0.0613383 -0.0157976 0)
(-0.0505801 -0.0218468 0)
(-0.0442727 -0.0342986 0)
(-0.035751 -0.0456924 0)
(-0.0267969 -0.0519167 0)
(-0.0189234 -0.0552938 0)
(-0.0126317 -0.0575413 0)
(-0.00789851 -0.0584893 0)
(-0.00462004 -0.0564884 0)
(-0.0753647 0.0839558 0)
(0.00184634 -0.016354 0)
(-0.072241 0.00930987 0)
(-0.0548888 -0.0448102 0)
(-0.0939844 -0.078718 0)
(-0.0857243 -0.00825492 0)
(0.889799 -0.207184 0)
(0.344736 -0.0953362 0)
(0.0972156 -0.0725256 0)
(0.0399923 -0.0960611 0)
(0.00864202 -0.0844109 0)
(-0.00402658 0.0254543 0)
(0.123526 0.124818 0)
(0.275941 0.184707 0)
(0.782383 0.978833 0)
(0.784965 0.260696 0)
(0.591665 0.182591 0)
(-0.162053 -0.10434 0)
(-0.10802 -0.00121545 0)
(-0.11181 0.0138721 0)
(-0.0895624 -0.026259 0)
(-0.0605818 -0.0267875 0)
(-0.0489221 -0.0260399 0)
(-0.0433062 -0.0388887 0)
(-0.0369856 -0.0522287 0)
(-0.0288054 -0.0592664 0)
(-0.020634 -0.0620651 0)
(-0.0143702 -0.063095 0)
(-0.00999569 -0.0628528 0)
(-0.00668239 -0.0602412 0)
(0.000184255 -0.000608976 0)
(0.00226364 -0.000602552 0)
(0.00453632 -0.000592497 0)
(0.00699946 -0.000577665 0)
(0.00963927 -0.00055578 0)
(0.0124216 -0.00052548 0)
(0.0152888 -0.000485734 0)
(0.0181512 -0.000434154 0)
(0.0208691 -0.000368157 0)
(0.0232343 -0.000285171 0)
(0.0249648 -0.000185277 0)
(0.0257006 -6.8644e-05 0)
(0.0250094 6.2263e-05 0)
(0.0223715 0.000212033 0)
(0.0171747 0.000382417 0)
(0.00883452 0.000563282 0)
(-0.00274892 0.000711819 0)
(-0.0163054 0.00073113 0)
(-0.0289813 0.00057749 0)
(-0.0383396 0.000358982 0)
(-0.0438918 0.0001779 0)
(-0.0454782 1.33484e-05 0)
(-0.0423512 -0.00013025 0)
(-0.0352439 -0.000203354 0)
(-0.0258162 -0.000216089 0)
(-0.0157614 -0.000201259 0)
(-0.00511036 -0.000207089 0)
(0.00492686 -0.000158901 0)
(0.0100512 -3.71276e-05 0)
(0.00792907 7.5829e-05 0)
(1.36412e-06 -0.00328235 0)
(0.00125207 -0.00323858 0)
(0.00262464 -0.00317562 0)
(0.00412889 -0.00308429 0)
(0.00576388 -0.00294823 0)
(0.00750041 -0.0027519 0)
(0.00926687 -0.00247776 0)
(0.0109239 -0.00210268 0)
(0.0122496 -0.00160119 0)
(0.0129203 -0.000954203 0)
(0.0124984 -0.000156137 0)
(0.0104433 0.000778135 0)
(0.00614244 0.00181821 0)
(-0.0010193 0.00292066 0)
(-0.0115073 0.00398884 0)
(-0.0252741 0.00479935 0)
(-0.0410984 0.0049529 0)
(-0.0561615 0.00413383 0)
(-0.067374 0.00269412 0)
(-0.0735178 0.0013557 0)
(-0.0746537 0.000255443 0)
(-0.0699669 -0.000845154 0)
(-0.0589164 -0.00165427 0)
(-0.0432924 -0.00199597 0)
(-0.0254749 -0.00193769 0)
(-0.00767014 -0.00177045 0)
(0.00930557 -0.00150963 0)
(0.0213061 -0.000772715 0)
(0.0228569 0.000157364 0)
(0.0123339 0.000968838 0)
(-0.000891036 -0.00359765 0)
(-0.00134051 -0.00357396 0)
(-0.00176507 -0.00355745 0)
(-0.00210413 -0.00353434 0)
(-0.0023017 -0.00346494 0)
(-0.00234023 -0.00329884 0)
(-0.00226603 -0.00298247 0)
(-0.00219499 -0.00246671 0)
(-0.0023061 -0.00171162 0)
(-0.00284007 -0.000691416 0)
(-0.00410774 0.000600126 0)
(-0.00650168 0.00213787 0)
(-0.0104942 0.00386519 0)
(-0.0166108 0.00568718 0)
(-0.0253223 0.00740561 0)
(-0.0367348 0.00859495 0)
(-0.0499231 0.00855839 0)
(-0.0624578 0.00685595 0)
(-0.0714598 0.00420184 0)
(-0.0756936 0.00180554 0)
(-0.0751743 -0.00017924 0)
(-0.0690614 -0.00218168 0)
(-0.0568116 -0.00360427 0)
(-0.0402889 -0.00415731 0)
(-0.0218306 -0.00395927 0)
(-0.00373214 -0.00353488 0)
(0.0132293 -0.00288577 0)
(0.0247491 -0.0013294 0)
(0.0252841 0.000509538 0)
(0.0134356 0.00211515 0)
(-0.00104582 -0.00273723 0)
(-0.00170257 -0.00279392 0)
(-0.00232349 -0.00292046 0)
(-0.00283781 -0.00309077 0)
(-0.00318949 -0.00322188 0)
(-0.00337527 -0.00320642 0)
(-0.00346011 -0.00295095 0)
(-0.00356514 -0.00239162 0)
(-0.00385376 -0.00148903 0)
(-0.00453505 -0.000220226 0)
(-0.005877 0.00141955 0)
(-0.00822835 0.00340483 0)
(-0.0120294 0.00567233 0)
(-0.0178162 0.00810411 0)
(-0.0261597 0.010433 0)
(-0.0373409 0.01204 0)
(-0.0505435 0.0118983 0)
(-0.0631546 0.00937102 0)
(-0.0719725 0.00552641 0)
(-0.0758883 0.00210969 0)
(-0.0751939 -0.0007081 0)
(-0.0689557 -0.00359588 0)
(-0.0564726 -0.0056104 0)
(-0.0397848 -0.00635542 0)
(-0.0212092 -0.00599634 0)
(-0.00311845 -0.00529973 0)
(0.0138957 -0.00425638 0)
(0.0254121 -0.00185825 0)
(0.0257551 0.000900951 0)
(0.013694 0.00330713 0)
(-0.00088578 -0.00213484 0)
(-0.00110352 -0.00226839 0)
(-0.00128481 -0.00251512 0)
(-0.00140555 -0.00283203 0)
(-0.00145792 -0.00309763 0)
(-0.00146805 -0.00316027 0)
(-0.00150232 -0.00290324 0)
(-0.00165882 -0.00225954 0)
(-0.00206792 -0.00119328 0)
(-0.00290035 0.000318813 0)
(-0.00439531 0.00228729 0)
(-0.00688238 0.00469423 0)
(-0.0108037 0.00747974 0)
(-0.0167262 0.010521 0)
(-0.0253092 0.0134992 0)
(-0.0369667 0.0155896 0)
(-0.0508767 0.0153682 0)
(-0.0640386 0.0119319 0)
(-0.0728318 0.00680515 0)
(-0.0764795 0.00236606 0)
(-0.075702 -0.00124491 0)
(-0.069387 -0.00503945 0)
(-0.0566317 -0.00764318 0)
(-0.0397662 -0.00857355 0)
(-0.0210622 -0.00803853 0)
(-0.00298871 -0.00706683 0)
(0.0141331 -0.00563737 0)
(0.0257433 -0.00238516 0)
(0.0260071 0.00130081 0)
(0.0138812 0.00450994 0)
(-0.000756943 -0.00212342 0)
(-0.000564547 -0.00228906 0)
(-0.000351475 -0.00256509 0)
(-0.000141954 -0.00289777 0)
(3.02438e-05 -0.00315509 0)
(0.000126259 -0.00317505 0)
(0.000100888 -0.00283561 0)
(-0.000105404 -0.00206739 0)
(-0.00058189 -0.000828124 0)
(-0.00147262 0.000919665 0)
(-0.00300564 0.00320314 0)
(-0.00552084 0.00602202 0)
(-0.0094835 0.00932582 0)
(-0.0155002 0.0129965 0)
(-0.0243366 0.0166816 0)
(-0.0365799 0.0193348 0)
(-0.0514009 0.0190472 0)
(-0.0652672 0.0145646 0)
(-0.0739779 0.00802703 0)
(-0.0772596 0.00256228 0)
(-0.0763933 -0.00178643 0)
(-0.0699889 -0.00652309 0)
(-0.0568721 -0.00970892 0)
(-0.0397907 -0.0108168 0)
(-0.0209263 -0.0100858 0)
(-0.00288703 -0.00883631 0)
(0.0143728 -0.00703355 0)
(0.0261091 -0.00291354 0)
(0.0262863 0.00170625 0)
(0.0141069 0.00572052 0)
(-0.000744063 -0.00252203 0)
(-0.000327834 -0.00268365 0)
(0.000103701 -0.00292073 0)
(0.00050498 -0.00317683 0)
(0.000825196 -0.00333139 0)
(0.00102412 -0.00323754 0)
(0.00107296 -0.00277817 0)
(0.00093573 -0.00187636 0)
(0.000541794 -0.000470912 0)
(-0.000247239 0.00150262 0)
(-0.00167204 0.00409935 0)
(-0.00410118 0.00733986 0)
(-0.00802539 0.0111797 0)
(-0.014081 0.0155152 0)
(-0.0231619 0.0199907 0)
(-0.0361011 0.0233219 0)
(-0.05208 0.0229964 0)
(-0.0668475 0.0172823 0)
(-0.075385 0.00917088 0)
(-0.0781807 0.00267727 0)
(-0.0772296 -0.00233054 0)
(-0.0707346 -0.00806138 0)
(-0.0571519 -0.0118147 0)
(-0.0398189 -0.0130918 0)
(-0.0207541 -0.0121386 0)
(-0.00276869 -0.0106085 0)
(0.0146638 -0.00844896 0)
(0.0265549 -0.00344385 0)
(0.0266208 0.00211837 0)
(0.0143862 0.00693986 0)
(-0.00082231 -0.00311443 0)
(-0.000308078 -0.00326269 0)
(0.000233865 -0.00344163 0)
(0.000758064 -0.00359514 0)
(0.0012133 -0.00362042 0)
(0.00155908 -0.00339379 0)
(0.00176801 -0.00280659 0)
(0.00180689 -0.0017712 0)
(0.001606 -0.000201147 0)
(0.0010193 0.00200179 0)
(-0.000214228 0.00492934 0)
(-0.00249976 0.00861948 0)
(-0.00634809 0.0130236 0)
(-0.0124036 0.0180648 0)
(-0.0217207 0.0234401 0)
(-0.0354851 0.0276079 0)
(-0.0529288 0.027296 0)