/*--------------------------------*- C++ -*----------------------------------*\
| =========                 |                                                 |
| \\      /  F ield         | OpenFOAM: The Open Source CFD Toolbox           |
|  \\    /   O peration     | Version:  2.4.0                                 |
|   \\  /    A nd           | Web:      www.OpenFOAM.org                      |
|    \\/     M anipulation  |                                                 |
\*---------------------------------------------------------------------------*/
FoamFile
{
    version     2.0;
    format      ascii;
    class       volVectorField;
    location    "0.321";
    object      U;
}
// * * * * * * * * * * * * * * * * * * * * * * * * * * * * * * * * * * * * * //

dimensions      [0 1 -1 0 0 0 0];

internalField   nonuniform List<vector> 
60000
(
(0.000791094 -0.000324331 0)
(0.00270934 -0.000329502 0)
(0.00465172 -0.000315696 0)
(0.00653947 -0.000312216 0)
(0.00841256 -0.000311598 0)
(0.0102844 -0.00031062 0)
(0.012154 -0.000309153 0)
(0.0140198 -0.000307403 0)
(0.0158806 -0.000305353 0)
(0.017735 -0.000302965 0)
(0.0195817 -0.000300196 0)
(0.0214186 -0.000296988 0)
(0.0232439 -0.000293316 0)
(0.0250551 -0.000289154 0)
(0.0268497 -0.000284477 0)
(0.028625 -0.000279291 0)
(0.0303784 -0.000273593 0)
(0.0321071 -0.000267415 0)
(0.0338084 -0.000260784 0)
(0.0354796 -0.000253749 0)
(0.0371183 -0.000246314 0)
(0.0387219 -0.000238512 0)
(0.040288 -0.000230376 0)
(0.0418143 -0.000221915 0)
(0.0432985 -0.000213125 0)
(0.0447381 -0.000203994 0)
(0.0461308 -0.000194511 0)
(0.0474738 -0.000184647 0)
(0.0487647 -0.00017436 0)
(0.0500004 -0.000163627 0)
(0.0511779 -0.000152404 0)
(0.0522941 -0.000140647 0)
(0.0533455 -0.000128306 0)
(0.0543286 -0.000115359 0)
(0.0552396 -0.000101821 0)
(0.0560751 -8.77351e-05 0)
(0.0568318 -7.31483e-05 0)
(0.0575064 -5.81152e-05 0)
(0.0580964 -4.27157e-05 0)
(0.0585997 -2.70466e-05 0)
(0.0590145 -1.12134e-05 0)
(0.0593401 4.70154e-06 0)
(0.059576 2.06833e-05 0)
(0.0597224 3.6931e-05 0)
(0.0597812 5.52728e-05 0)
(0.0597427 7.24938e-05 0)
(0.0596131 8.76593e-05 0)
(0.0594001 0.000101369 0)
(0.0591097 0.000113734 0)
(0.0587453 0.000126031 0)
(0.05831 0.000138285 0)
(0.0578071 0.000150316 0)
(0.0572403 0.000161988 0)
(0.0566136 0.000173236 0)
(0.0559308 0.000184099 0)
(0.0551959 0.00019459 0)
(0.0544127 0.000204757 0)
(0.0535852 0.000214641 0)
(0.052717 0.000224274 0)
(0.0518118 0.0002337 0)
(0.0508732 0.000242913 0)
(0.049905 0.000251854 0)
(0.0489111 0.000260432 0)
(0.0478957 0.000268465 0)
(0.0468637 0.00027573 0)
(0.0458202 0.000282025 0)
(0.0447709 0.000287183 0)
(0.0437213 0.000291052 0)
(0.0426767 0.000293702 0)
(0.041641 0.000295236 0)
(0.0406169 0.000295979 0)
(0.0396048 0.000296275 0)
(0.0386026 0.000296578 0)
(0.0376056 0.00029739 0)
(0.0366065 0.000299118 0)
(0.0355956 0.00030227 0)
(0.0345612 0.000306972 0)
(0.0334905 0.000313249 0)
(0.0323701 0.000320885 0)
(0.0311865 0.000329562 0)
(0.0299276 0.000338774 0)
(0.0285831 0.000347921 0)
(0.0271455 0.00035633 0)
(0.0256103 0.000363388 0)
(0.0239762 0.000368598 0)
(0.022245 0.000371575 0)
(0.0204219 0.000372061 0)
(0.0185145 0.000369937 0)
(0.0165323 0.000365237 0)
(0.0144864 0.00035815 0)
(0.0123884 0.000349007 0)
(0.0102495 0.000338221 0)
(0.0080806 0.000326223 0)
(0.00589123 0.000313422 0)
(0.00368984 0.000300125 0)
(0.00148312 0.000286568 0)
(-0.000723101 0.00027262 0)
(-0.00292657 0.000259434 0)
(-0.00511707 0.000246396 0)
(-0.00731033 0.000234967 0)
(0.00116323 -0.00145641 0)
(0.0040116 -0.00171588 0)
(0.00678269 -0.00164752 0)
(0.00946236 -0.00161952 0)
(0.0121217 -0.00161573 0)
(0.0147838 -0.00161447 0)
(0.01745 -0.00161199 0)
(0.0201194 -0.0016086 0)
(0.0227916 -0.00160433 0)
(0.0254657 -0.00159898 0)
(0.0281406 -0.00159232 0)
(0.0308148 -0.0015841 0)
(0.0334861 -0.0015741 0)
(0.0361519 -0.00156215 0)
(0.0388093 -0.0015481 0)
(0.0414553 -0.00153184 0)
(0.0440862 -0.00151329 0)
(0.0466987 -0.00149247 0)
(0.049289 -0.00146942 0)
(0.0518534 -0.00144421 0)
(0.0543884 -0.00141682 0)
(0.0568903 -0.00138734 0)
(0.0593555 -0.00135583 0)
(0.0617804 -0.00132229 0)
(0.0641615 -0.00128669 0)
(0.066495 -0.00124898 0)
(0.0687772 -0.0012091 0)
(0.0710041 -0.00116694 0)
(0.0731716 -0.00112236 0)
(0.0752755 -0.00107526 0)
(0.0773113 -0.00102549 0)
(0.0792741 -0.000972907 0)
(0.0811592 -0.000917345 0)
(0.0829612 -0.000858678 0)
(0.084675 -0.000796902 0)
(0.0862951 -0.000732132 0)
(0.0878163 -0.000664564 0)
(0.0892338 -0.000594475 0)
(0.0905433 -0.000522232 0)
(0.091741 -0.000448283 0)
(0.092824 -0.000373154 0)
(0.0937904 -0.000297388 0)
(0.0946392 -0.000221462 0)
(0.0953707 -0.000145732 0)
(0.0959848 -6.92549e-05 0)
(0.0964921 5.45991e-06 0)
(0.096895 7.63785e-05 0)
(0.0971922 0.000143659 0)
(0.0973788 0.000209838 0)
(0.0974602 0.000273347 0)
(0.0974429 0.000333194 0)
(0.0973339 0.000389273 0)
(0.0971401 0.000441601 0)
(0.0968685 0.000490115 0)
(0.0965266 0.000534868 0)
(0.0961215 0.000575829 0)
(0.0956609 0.000613006 0)
(0.0951524 0.00064645 0)
(0.0946037 0.000676161 0)
(0.0940228 0.000702145 0)
(0.0934175 0.000724406 0)
(0.092796 0.000742845 0)
(0.0921663 0.000757344 0)
(0.0915368 0.000767693 0)
(0.0909158 0.000773611 0)
(0.0903116 0.000774894 0)
(0.0897322 0.000771632 0)
(0.0891847 0.000764126 0)
(0.0886748 0.000753308 0)
(0.0882061 0.000740284 0)
(0.0877798 0.00072686 0)
(0.0873933 0.000715024 0)
(0.0870407 0.000706981 0)
(0.086712 0.000705202 0)
(0.0863935 0.000711679 0)
(0.0860676 0.000728569 0)
(0.0857135 0.000757066 0)
(0.0853081 0.000797991 0)
(0.0848264 0.000851598 0)
(0.0842427 0.000917456 0)
(0.0835314 0.000994394 0)
(0.0826685 0.00108068 0)
(0.0816319 0.00117405 0)
(0.0804029 0.00127183 0)
(0.0789662 0.00137117 0)
(0.0773106 0.00146917 0)
(0.0754292 0.00156312 0)
(0.0733197 0.00165071 0)
(0.0709836 0.00173015 0)
(0.0684262 0.00180027 0)
(0.0656558 0.00186053 0)
(0.0626831 0.00191097 0)
(0.0595203 0.0019521 0)
(0.0561804 0.00198477 0)
(0.0526766 0.00200997 0)
(0.0490214 0.00202884 0)
(0.0452275 0.00204244 0)
(0.0413023 0.00205324 0)
(0.0372627 0.00206176 0)
(0.0330883 0.00207483 0)
(0.00119701 -0.00277021 0)
(0.00398663 -0.003159 0)
(0.00662855 -0.00299554 0)
(0.00918402 -0.00294044 0)
(0.0117266 -0.00293658 0)
(0.0142781 -0.0029392 0)
(0.0168413 -0.00294094 0)
(0.019417 -0.00294194 0)
(0.0220055 -0.00294207 0)
(0.0246073 -0.00294093 0)
(0.0272218 -0.002938 0)
(0.0298482 -0.00293274 0)
(0.0324846 -0.00292474 0)
(0.0351289 -0.00291353 0)
(0.0377785 -0.00289883 0)
(0.0404305 -0.0028803 0)
(0.0430815 -0.00285781 0)
(0.0457279 -0.00283126 0)
(0.0483662 -0.0028007 0)
(0.0509927 -0.00276614 0)
(0.0536037 -0.00272756 0)
(0.0561956 -0.00268509 0)
(0.0587649 -0.00263879 0)
(0.061308 -0.00258865 0)
(0.0638213 -0.00253459 0)
(0.0663012 -0.00247653 0)
(0.0687438 -0.00241434 0)
(0.0711454 -0.00234782 0)
(0.0735019 -0.00227676 0)
(0.0758089 -0.00220093 0)
(0.0780621 -0.00212009 0)
(0.0802566 -0.00203401 0)
(0.0823877 -0.00194237 0)
(0.08445 -0.00184498 0)
(0.0864384 -0.00174175 0)
(0.0883473 -0.00163281 0)
(0.0901715 -0.00151844 0)
(0.0919058 -0.00139913 0)
(0.0935457 -0.00127553 0)
(0.095087 -0.00114847 0)
(0.0965267 -0.00101888 0)
(0.0978622 -0.000887814 0)
(0.0990923 -0.000756319 0)
(0.100216 -0.000625336 0)
(0.101235 -0.000496512 0)
(0.10215 -0.000370768 0)
(0.102964 -0.000249021 0)
(0.103679 -0.000131031 0)
(0.104303 -1.51517e-05 0)
(0.104838 9.60091e-05 0)
(0.105287 0.000201137 0)
(0.105651 0.000299544 0)
(0.105936 0.000390867 0)
(0.106146 0.000474804 0)
(0.10629 0.000551297 0)
(0.106372 0.000620249 0)
(0.1064 0.000681551 0)
(0.106382 0.000735188 0)
(0.106323 0.000781166 0)
(0.106233 0.000819461 0)
(0.106117 0.000849992 0)
(0.105985 0.000872643 0)
(0.105845 0.000887094 0)
(0.105706 0.000892943 0)
(0.105578 0.000889867 0)
(0.105469 0.000877756 0)
(0.105391 0.000856811 0)
(0.105352 0.000827991 0)
(0.105361 0.000792723 0)
(0.105424 0.00075347 0)
(0.105545 0.000713413 0)
(0.105726 0.000676423 0)
(0.105961 0.000646782 0)
(0.106246 0.000628706 0)
(0.106569 0.000626494 0)
(0.106914 0.000643406 0)
(0.107264 0.000682799 0)
(0.107598 0.000746749 0)
(0.107892 0.000836591 0)
(0.108122 0.000952131 0)
(0.108263 0.00109232 0)
(0.108289 0.00125518 0)
(0.108177 0.00143768 0)
(0.107903 0.00163603 0)
(0.107448 0.00184601 0)
(0.106792 0.00206315 0)
(0.105919 0.00228297 0)
(0.104817 0.00250121 0)
(0.103474 0.00271408 0)
(0.101882 0.00291846 0)
(0.100037 0.00311196 0)
(0.0979351 0.00329305 0)
(0.0955764 0.0034609 0)
(0.0929629 0.00361536 0)
(0.0900987 0.00375678 0)
(0.0869891 0.00388601 0)
(0.0836413 0.0040043 0)
(0.0800605 0.00411402 0)
(0.076263 0.00421603 0)
(0.0722279 0.00431648 0)
(0.00117621 -0.00401745 0)
(0.0037772 -0.00448138 0)
(0.00619135 -0.00422561 0)
(0.00853304 -0.00414997 0)
(0.0108703 -0.00414955 0)
(0.0132218 -0.00415931 0)
(0.015591 -0.00416916 0)
(0.0179797 -0.00417895 0)
(0.0203891 -0.00418832 0)
(0.0228199 -0.00419651 0)
(0.0252723 -0.00420264 0)
(0.0277454 -0.00420583 0)
(0.0302379 -0.00420546 0)
(0.0327475 -0.00420065 0)
(0.0352718 -0.00419092 0)
(0.0378077 -0.00417577 0)
(0.0403517 -0.00415497 0)
(0.0429004 -0.00412828 0)
(0.04545 -0.00409573 0)
(0.0479968 -0.00405735 0)
(0.0505373 -0.00401316 0)
(0.053068 -0.00396329 0)
(0.0555852 -0.00390784 0)
(0.0580857 -0.00384679 0)
(0.0605659 -0.00378005 0)
(0.0630224 -0.00370749 0)
(0.0654517 -0.00362894 0)
(0.06785 -0.00354411 0)
(0.0702135 -0.0034527 0)
(0.072538 -0.00335439 0)
(0.0748192 -0.00324881 0)
(0.0770525 -0.00313558 0)
(0.0792331 -0.00301429 0)
(0.0813558 -0.00288465 0)
(0.0834155 -0.00274653 0)
(0.085407 -0.0026 0)
(0.0873248 -0.00244544 0)
(0.0891641 -0.0022835 0)
(0.0909201 -0.00211513 0)
(0.0925891 -0.00194144 0)
(0.0941676 -0.00176379 0)
(0.0956533 -0.00158365 0)
(0.0970445 -0.00140253 0)
(0.0983408 -0.00122191 0)
(0.0995422 -0.00104335 0)
(0.10065 -0.000868027 0)
(0.101664 -0.000697286 0)
(0.102588 -0.000531891 0)
(0.103424 -0.000373327 0)
(0.104174 -0.000221419 0)
(0.104843 -7.66323e-05 0)
(0.105436 5.99959e-05 0)
(0.105956 0.00018754 0)
(0.106407 0.00030559 0)
(0.106794 0.000413469 0)
(0.107121 0.000510839 0)
(0.107394 0.000597526 0)
(0.107619 0.000673329 0)
(0.107801 0.000738116 0)
(0.107948 0.000791714 0)
(0.108066 0.000833839 0)
(0.108163 0.000864069 0)
(0.108246 0.00088182 0)
(0.108326 0.000886362 0)
(0.108411 0.000877029 0)
(0.108512 0.000853507 0)
(0.108641 0.000815846 0)
(0.108808 0.000765183 0)
(0.109024 0.000703521 0)
(0.109298 0.000634512 0)
(0.109637 0.000562642 0)
(0.110042 0.00049354 0)
(0.110515 0.000433421 0)
(0.11105 0.000388373 0)
(0.111638 0.000364853 0)
(0.112267 0.000367854 0)
(0.112922 0.000402239 0)
(0.113583 0.000471729 0)
(0.114231 0.000578046 0)
(0.114843 0.000721582 0)
(0.115398 0.000901331 0)
(0.115875 0.00111494 0)
(0.116253 0.00135884 0)
(0.116512 0.00162859 0)
(0.116636 0.00191916 0)
(0.116609 0.00222532 0)
(0.116417 0.00254186 0)
(0.116046 0.00286388 0)
(0.115484 0.00318698 0)
(0.114721 0.00350732 0)
(0.113747 0.00382172 0)
(0.112551 0.0041277 0)
(0.111124 0.00442347 0)
(0.109461 0.00470781 0)
(0.107555 0.00498002 0)
(0.1054 0.00523991 0)
(0.102997 0.0054878 0)
(0.100341 0.00572468 0)
(0.0974436 0.00595093 0)
(0.0942793 0.00616797 0)
(0.00116132 -0.00521166 0)
(0.00364502 -0.0057146 0)
(0.00592026 -0.00536675 0)
(0.0081322 -0.0052742 0)
(0.0103456 -0.00527962 0)
(0.0125769 -0.00529871 0)
(0.0148299 -0.00531913 0)
(0.0171065 -0.00534041 0)
(0.0194084 -0.00536201 0)
(0.0217366 -0.00538262 0)
(0.0240913 -0.00540101 0)
(0.026472 -0.00541597 0)
(0.0288771 -0.00542648 0)
(0.0313044 -0.00543135 0)
(0.0337512 -0.00542981 0)
(0.0362144 -0.00542122 0)
(0.0386904 -0.00540521 0)
(0.0411756 -0.00538145 0)
(0.043666 -0.00534996 0)
(0.046158 -0.00531082 0)
(0.048648 -0.0052641 0)
(0.0511325 -0.00520999 0)
(0.053608 -0.00514857 0)
(0.0560712 -0.00507986 0)
(0.0585189 -0.00500379 0)
(0.0609476 -0.00492019 0)
(0.063354 -0.00482881 0)
(0.0657344 -0.00472929 0)
(0.0680851 -0.00462125 0)
(0.0704019 -0.00450421 0)
(0.0726806 -0.00437764 0)
(0.0749165 -0.00424104 0)
(0.0771048 -0.00409391 0)
(0.0792401 -0.00393588 0)
(0.0813174 -0.00376674 0)
(0.0833311 -0.00358654 0)
(0.0852762 -0.00339575 0)
(0.0871475 -0.0031952 0)
(0.0889403 -0.00298607 0)
(0.0906509 -0.00276983 0)
(0.0922758 -0.00254821 0)
(0.0938127 -0.00232312 0)
(0.0952601 -0.00209652 0)
(0.0966173 -0.00187027 0)
(0.0978845 -0.00164623 0)
(0.0990623 -0.00142607 0)
(0.100152 -0.00121129 0)
(0.101155 -0.001003 0)
(0.102072 -0.000802342 0)
(0.102908 -0.000609665 0)
(0.103664 -0.000426092 0)
(0.104344 -0.000252622 0)
(0.104952 -9.01217e-05 0)
(0.105492 6.08607e-05 0)
(0.105968 0.000199468 0)
(0.106384 0.00032512 0)
(0.106746 0.000437514 0)
(0.107058 0.000536245 0)
(0.107326 0.000620978 0)
(0.107556 0.000691333 0)
(0.107754 0.000746791 0)
(0.107928 0.000786532 0)
(0.108085 0.000809647 0)
(0.108234 0.000814999 0)
(0.108386 0.000801354 0)
(0.10855 0.000767861 0)
(0.10874 0.000714374 0)
(0.108966 0.000642002 0)
(0.109242 0.000553582 0)
(0.109576 0.000453559 0)
(0.109976 0.000347936 0)
(0.110448 0.000243999 0)
(0.110991 0.000149803 0)
(0.111602 7.37792e-05 0)
(0.112272 2.40661e-05 0)
(0.112991 8.19436e-06 0)
(0.113742 3.20358e-05 0)
(0.114507 0.000100365 0)
(0.115266 0.000215626 0)
(0.115999 0.00037878 0)
(0.116683 0.000588651 0)
(0.117299 0.000842238 0)
(0.117827 0.0011352 0)
(0.118251 0.00146217 0)
(0.118556 0.00181713 0)
(0.118729 0.00219392 0)
(0.11876 0.0025866 0)
(0.11864 0.00298977 0)
(0.118361 0.00339873 0)
(0.117916 0.00380956 0)
(0.117297 0.00421911 0)
(0.116497 0.00462494 0)
(0.115509 0.00502519 0)
(0.114324 0.00541844 0)
(0.112937 0.0058036 0)
(0.111338 0.00617988 0)
(0.109524 0.00654671 0)
(0.107486 0.00690364 0)
(0.105231 0.00724994 0)
(0.10273 0.00758253 0)
(0.00115532 -0.00638194 0)
(0.0035852 -0.00690499 0)
(0.00579529 -0.00646496 0)
(0.00794581 -0.00635756 0)
(0.0101011 -0.00637043 0)
(0.0122767 -0.00640022 0)
(0.0144762 -0.00643259 0)
(0.0167016 -0.00646686 0)
(0.0189548 -0.00650225 0)
(0.0212369 -0.00653695 0)
(0.0235483 -0.00656931 0)
(0.0258883 -0.00659777 0)
(0.0282555 -0.00662081 0)
(0.0306475 -0.006637 0)
(0.0330616 -0.00664524 0)
(0.0354943 -0.0066447 0)
(0.0379421 -0.00663489 0)
(0.0404011 -0.00661543 0)
(0.0428673 -0.00658637 0)
(0.045337 -0.0065478 0)
(0.0478066 -0.00649988 0)
(0.0502727 -0.00644286 0)
(0.0527317 -0.00637688 0)
(0.0551806 -0.00630195 0)
(0.0576161 -0.00621804 0)
(0.0600348 -0.00612495 0)
(0.0624336 -0.00602233 0)
(0.0648088 -0.00590976 0)
(0.0671567 -0.00578671 0)
(0.0694731 -0.00565253 0)
(0.0717538 -0.00550655 0)
(0.073994 -0.00534812 0)
(0.0761886 -0.00517663 0)
(0.0783324 -0.00499161 0)
(0.0804198 -0.00479276 0)
(0.0824454 -0.00458015 0)
(0.0844038 -0.00435432 0)
(0.0862897 -0.00411631 0)
(0.0880983 -0.00386753 0)
(0.0898257 -0.00360981 0)
(0.0914686 -0.00334531 0)
(0.0930244 -0.00307637 0)
(0.0944919 -0.00280538 0)
(0.0958704 -0.00253463 0)
(0.09716 -0.00226628 0)
(0.0983615 -0.00200227 0)
(0.099476 -0.00174425 0)
(0.100505 -0.00149355 0)
(0.10145 -0.00125138 0)
(0.102314 -0.00101863 0)
(0.103099 -0.00079643 0)
(0.103809 -0.000585873 0)
(0.104446 -0.000387976 0)
(0.105014 -0.000203836 0)
(0.105517 -3.41892e-05 0)
(0.105961 0.000120245 0)
(0.106348 0.000258856 0)
(0.106685 0.000381154 0)
(0.106977 0.000486669 0)
(0.10723 0.000574813 0)
(0.107449 0.000644793 0)
(0.107642 0.000695606 0)
(0.107816 0.000725784 0)
(0.107981 0.000733535 0)
(0.108145 0.000717008 0)
(0.10832 0.000674699 0)
(0.108519 0.000606289 0)
(0.108755 0.000512884 0)
(0.10904 0.000397646 0)
(0.109386 0.00026591 0)
(0.1098 0.000125272 0)
(0.110289 -1.52026e-05 0)
(0.110854 -0.000145302 0)
(0.111491 -0.000254343 0)
(0.112191 -0.000332158 0)
(0.112943 -0.00036926 0)
(0.113732 -0.000357957 0)
(0.114537 -0.000292643 0)
(0.115338 -0.0001697 0)
(0.116113 1.18875e-05 0)
(0.116839 0.000250685 0)
(0.117497 0.000543128 0)
(0.118066 0.000883893 0)
(0.118529 0.00126636 0)
(0.118873 0.00168331 0)
(0.119084 0.00212739 0)
(0.119154 0.00259164 0)
(0.119075 0.00306985 0)
(0.118841 0.00355675 0)
(0.118448 0.00404814 0)
(0.117891 0.00454083 0)
(0.117165 0.00503249 0)
(0.116267 0.00552146 0)
(0.115192 0.00600652 0)
(0.113935 0.00648669 0)
(0.112491 0.00696108 0)
(0.110856 0.00742873 0)
(0.109024 0.00788837 0)
(0.106999 0.00833828 0)
(0.104755 0.00877315 0)
(0.00115372 -0.00754396 0)
(0.00356065 -0.00807695 0)
(0.00574198 -0.00754433 0)
(0.00786487 -0.00742312 0)
(0.00999444 -0.00744442 0)
(0.0121459 -0.00748575 0)
(0.0143226 -0.00753087 0)
(0.0165267 -0.00757901 0)
(0.0187602 -0.00762905 0)
(0.0210243 -0.0076788 0)
(0.0233194 -0.00772614 0)
(0.0256449 -0.00776905 0)
(0.0279992 -0.00780558 0)
(0.03038 -0.00783396 0)
(0.0327843 -0.0078528 0)
(0.0352086 -0.00786106 0)
(0.0376491 -0.00785809 0)
(0.0401017 -0.00784362 0)
(0.0425625 -0.00781757 0)
(0.0450276 -0.00778015 0)
(0.0474935 -0.00773158 0)
(0.0499566 -0.00767224 0)
(0.0524135 -0.00760232 0)
(0.0548613 -0.00752183 0)
(0.0572966 -0.00743081 0)
(0.0597163 -0.00732897 0)
(0.0621172 -0.00721588 0)
(0.0644958 -0.00709103 0)
(0.0668483 -0.00695374 0)
(0.0691707 -0.0068032 0)
(0.0714585 -0.00663856 0)
(0.0737069 -0.006459 0)
(0.0759108 -0.00626376 0)
(0.0780647 -0.00605223 0)
(0.0801628 -0.00582407 0)
(0.0821996 -0.00557935 0)
(0.0841692 -0.00531869 0)
(0.0860662 -0.00504329 0)
(0.0878857 -0.00475486 0)
(0.0896233 -0.00445562 0)
(0.0912758 -0.00414817 0)
(0.0928407 -0.00383534 0)
(0.0943165 -0.00351995 0)
(0.0957028 -0.00320471 0)
(0.0969998 -0.00289213 0)
(0.0982084 -0.00258437 0)
(0.0993298 -0.00228326 0)
(0.100366 -0.00199033 0)
(0.101318 -0.00170692 0)
(0.102188 -0.00143418 0)
(0.102979 -0.00117335 0)
(0.103695 -0.000925691 0)
(0.104337 -0.000692446 0)
(0.10491 -0.000474833 0)
(0.105418 -0.000273834 0)
(0.105864 -9.03247e-05 0)
(0.106255 7.49226e-05 0)
(0.106594 0.000221239 0)
(0.106887 0.000348066 0)
(0.10714 0.000454575 0)
(0.107358 0.000539755 0)
(0.107549 0.000602284 0)
(0.10772 0.000640214 0)
(0.107879 0.000651141 0)
(0.108037 0.000632504 0)
(0.108204 0.000582055 0)
(0.108395 0.000498923 0)
(0.108623 0.000384087 0)
(0.108902 0.000240934 0)
(0.109244 7.61501e-05 0)
(0.10966 -0.000101361 0)
(0.110155 -0.000280496 0)
(0.110731 -0.000448759 0)
(0.111384 -0.00059314 0)
(0.112106 -0.000701094 0)
(0.112884 -0.00076115 0)
(0.113702 -0.000763824 0)
(0.114538 -0.000702132 0)
(0.115372 -0.00057175 0)
(0.11618 -0.000371413 0)
(0.116937 -0.000102773 0)
(0.117623 0.000229884 0)
(0.118216 0.000620167 0)
(0.1187 0.00106019 0)
(0.119058 0.00154135 0)
(0.11928 0.00205493 0)
(0.119356 0.00259284 0)
(0.119278 0.0031479 0)
(0.119041 0.00371417 0)
(0.118641 0.00428699 0)
(0.118074 0.00486289 0)
(0.117336 0.00543946 0)
(0.116425 0.00601507 0)
(0.115337 0.00658855 0)
(0.114069 0.00715897 0)
(0.112616 0.00772541 0)
(0.110978 0.00828667 0)
(0.109149 0.00884099 0)
(0.107134 0.009386 0)
(0.104909 0.00991567 0)
(0.00115367 -0.00870312 0)
(0.00354892 -0.00924024 0)
(0.00571549 -0.00861485 0)
(0.00782425 -0.00848045 0)
(0.00994106 -0.00851086 0)
(0.0120809 -0.00856437 0)
(0.0142472 -0.0086228 0)
(0.0164422 -0.0086855 0)
(0.0186678 -0.00875089 0)
(0.0209256 -0.0088164 0)
(0.0232159 -0.0088795 0)
(0.025538 -0.00893756 0)
(0.0278905 -0.00898829 0)
(0.0302706 -0.00902949 0)
(0.0326754 -0.00905946 0)
(0.035101 -0.00907696 0)
(0.0375434 -0.0090812 0)
(0.0399986 -0.009072 0)
(0.0424622 -0.0090492 0)
(0.0449306 -0.00901313 0)
(0.0473999 -0.00896415 0)
(0.0498666 -0.0089027 0)
(0.0523275 -0.00882908 0)
(0.0547796 -0.00874334 0)
(0.0572198 -0.00864554 0)
(0.0596449 -0.00853532 0)
(0.0620519 -0.00841218 0)
(0.0644372 -0.00827547 0)
(0.0667973 -0.00812437 0)
(0.0691281 -0.00795791 0)
(0.071425 -0.00777503 0)
(0.0736833 -0.00757472 0)
(0.0758976 -0.00735602 0)
(0.0780624 -0.00711818 0)
(0.0801718 -0.00686079 0)
(0.0822197 -0.00658391 0)
(0.0842 -0.00628822 0)
(0.0861071 -0.0059751 0)
(0.0879357 -0.00564657 0)
(0.0896813 -0.00530527 0)
(0.0913403 -0.0049543 0)
(0.0929104 -0.00459699 0)
(0.09439 -0.00423666 0)
(0.0957789 -0.00387645 0)
(0.0970774 -0.00351921 0)
(0.0982866 -0.00316735 0)
(0.0994078 -0.00282288 0)
(0.100443 -0.00248749 0)
(0.101393 -0.00216263 0)
(0.102262 -0.00184963 0)
(0.10305 -0.00154987 0)
(0.103762 -0.00126481 0)
(0.104401 -0.000995866 0)
(0.104969 -0.000744453 0)
(0.105471 -0.000511785 0)
(0.105912 -0.000298908 0)
(0.106296 -0.000106707 0)
(0.106628 6.4037e-05 0)
(0.106913 0.000212366 0)
(0.107158 0.000337551 0)
(0.107368 0.000438422 0)
(0.107548 0.000513251 0)
(0.107708 0.000559659 0)
(0.107853 0.000574567 0)
(0.107996 0.000554518 0)
(0.108148 0.000496315 0)
(0.108322 0.000398299 0)
(0.108535 0.000261318 0)
(0.108801 8.88787e-05 0)
(0.109135 -0.000111081 0)
(0.109547 -0.000328104 0)
(0.110045 -0.000548863 0)
(0.11063 -0.000758384 0)
(0.1113 -0.00094109 0)
(0.112045 -0.0010819 0)
(0.112852 -0.00116714 0)
(0.113703 -0.0011854 0)
(0.114576 -0.00112829 0)
(0.115447 -0.000990665 0)
(0.116291 -0.000771015 0)
(0.117084 -0.000471292 0)
(0.117802 -9.65975e-05 0)
(0.118423 0.000345434 0)
(0.11893 0.000845507 0)
(0.119307 0.00139345 0)
(0.119541 0.00197907 0)
(0.119625 0.00259307 0)
(0.119551 0.00322732 0)
(0.119313 0.00387519 0)
(0.118908 0.00453159 0)
(0.118333 0.00519284 0)
(0.117584 0.00585645 0)
(0.116657 0.00652074 0)
(0.115549 0.00718456 0)
(0.114257 0.00784695 0)
(0.112777 0.00850681 0)
(0.111106 0.0091627 0)
(0.109241 0.0098124 0)
(0.107186 0.0104529 0)
(0.104915 0.0110779 0)
(0.00115401 -0.00986078 0)
(0.00354042 -0.0103979 0)
(0.00569631 -0.00967988 0)
(0.00779545 -0.00953293 0)
(0.00990386 -0.00957295 0)
(0.0120363 -0.00963923 0)
(0.0141965 -0.00971158 0)
(0.0163866 -0.00978947 0)
(0.018609 -0.00987093 0)
(0.0208649 -0.00995295 0)
(0.0231549 -0.0100325 0)
(0.0254783 -0.0101064 0)
(0.0278334 -0.010172 0)
(0.0302175 -0.0102266 0)
(0.0326271 -0.0102681 0)
(0.0350583 -0.0102952 0)
(0.0375068 -0.0103069 0)
(0.0399683 -0.010303 0)
(0.0424384 -0.0102835 0)
(0.0449131 -0.0102488 0)
(0.0473887 -0.0101995 0)
(0.0498616 -0.010136 0)
(0.0523289 -0.0100587 0)
(0.0547873 -0.00996785 0)
(0.0572341 -0.0098634 0)
(0.0596662 -0.00974501 0)
(0.0620806 -0.00961209 0)
(0.0644739 -0.00946384 0)
(0.0668426 -0.00929926 0)
(0.0691826 -0.00911721 0)
(0.0714894 -0.00891641 0)
(0.0737583 -0.00869563 0)
(0.0759837 -0.00845369 0)
(0.07816 -0.00818967 0)
(0.080281 -0.00790305 0)
(0.0823403 -0.00759385 0)
(0.0843316 -0.00726279 0)
(0.0862487 -0.00691145 0)
(0.088086 -0.00654217 0)
(0.0898387 -0.00615807 0)
(0.0915032 -0.00576278 0)
(0.0930769 -0.00536018 0)
(0.0945585 -0.00495414 0)
(0.0959477 -0.00454828 0)
(0.0972452 -0.00414578 0)
(0.0984521 -0.00374933 0)
(0.0995702 -0.00336109 0)
(0.100601 -0.00298288 0)
(0.101547 -0.00261623 0)
(0.10241 -0.00226262 0)
(0.103193 -0.00192357 0)
(0.103897 -0.00160071 0)
(0.104528 -0.00129569 0)
(0.105088 -0.00101015 0)
(0.105581 -0.000745518 0)
(0.106011 -0.00050302 0)
(0.106385 -0.00028369 0)
(0.106706 -8.83784e-05 0)
(0.10698 8.18462e-05 0)
(0.107213 0.000225997 0)
(0.10741 0.000342946 0)
(0.107577 0.0004307 0)
(0.107721 0.000486399 0)
(0.107849 0.000506186 0)
(0.107972 0.000485428 0)
(0.108103 0.000419932 0)
(0.108257 0.0003069 0)
(0.108449 0.000146369 0)
(0.108698 -5.66328e-05 0)
(0.10902 -0.000294412 0)
(0.109426 -0.000554197 0)
(0.109926 -0.000820243 0)
(0.110522 -0.00107484 0)
(0.11121 -0.00129957 0)
(0.111981 -0.0014766 0)
(0.112821 -0.00158979 0)
(0.11371 -0.00162571 0)
(0.114625 -0.0015744 0)
(0.11554 -0.00142989 0)
(0.116428 -0.0011904 0)
(0.117263 -0.000858305 0)
(0.118019 -0.00043965 0)
(0.118674 5.65337e-05 0)
(0.119208 0.000619215 0)
(0.119607 0.0012366 0)
(0.119859 0.00189675 0)
(0.119955 0.00258907 0)
(0.119888 0.00330447 0)
(0.119655 0.00403566 0)
(0.119252 0.00477717 0)
(0.118676 0.00552521 0)
(0.117924 0.0062773 0)
(0.116992 0.00703187 0)
(0.115877 0.00778786 0)
(0.114575 0.0085443 0)
(0.113081 0.00930001 0)
(0.111393 0.0100533 0)
(0.109505 0.0108015 0)
(0.107421 0.0115411 0)
(0.105114 0.0122651 0)
(0.00115433 -0.011017 0)
(0.00353166 -0.0115504 0)
(0.00567712 -0.0107402 0)
(0.00776762 -0.0105815 0)
(0.00986864 -0.0106316 0)
(0.0119948 -0.0107112 0)
(0.0141499 -0.0107982 0)
(0.0163364 -0.010892 0)
(0.0185568 -0.0109903 0)
(0.0208125 -0.0110896 0)
(0.023104 -0.0111865 0)
(0.0254306 -0.011277 0)
(0.0277903 -0.0113581 0)
(0.0301804 -0.0114266 0)
(0.032597 -0.0114802 0)
(0.035036 -0.011517 0)
(0.0374926 -0.0115363 0)
(0.0399622 -0.0115378 0)
(0.0424404 -0.0115216 0)
(0.044923 -0.0114881 0)
(0.0474062 -0.0114383 0)
(0.0498866 -0.0113727 0)
(0.0523611 -0.0112918 0)
(0.0548269 -0.0111958 0)
(0.0572811 -0.0110849 0)
(0.0597209 -0.0109585 0)
(0.0621434 -0.010816 0)
(0.0645454 -0.0106565 0)
(0.0669234 -0.0104788 0)
(0.0692733 -0.0102814 0)
(0.0715908 -0.010063 0)
(0.073871 -0.00982208 0)
(0.0761085 -0.00955714 0)
(0.0782972 -0.00926708 0)
(0.0804307 -0.00895122 0)
(0.0825024 -0.00860949 0)
(0.0845054 -0.00824267 0)
(0.0864331 -0.0078525 0)
(0.0882796 -0.00744171 0)
(0.0900397 -0.00701391 0)
(0.0917095 -0.00657333 0)
(0.0932864 -0.00612449 0)
(0.0947693 -0.00567185 0)
(0.0961579 -0.00521954 0)
(0.0974533 -0.00477111 0)
(0.0986568 -0.0043295 0)
(0.0997703 -0.00389703 0)
(0.100796 -0.00347559 0)
(0.101736 -0.00306678 0)
(0.102592 -0.00267216 0)
(0.103367 -0.0022934 0)
(0.104063 -0.00193231 0)
(0.104684 -0.0015908 0)
(0.105233 -0.00127075 0)
(0.105715 -0.00097383 0)
(0.106134 -0.000701441 0)
(0.106495 -0.000454743 0)
(0.106804 -0.000234763 0)
(0.107064 -4.23768e-05 0)
(0.107283 0.000121101 0)
(0.107465 0.000254592 0)
(0.107616 0.000355986 0)
(0.107742 0.000421929 0)
(0.10785 0.000447649 0)
(0.107951 0.00042736 0)
(0.108057 0.000355232 0)
(0.108184 0.000227132 0)
(0.108353 4.24057e-05 0)
(0.108581 -0.000193757 0)
(0.108887 -0.000472441 0)
(0.109285 -0.000778856 0)
(0.109786 -0.00109456 0)
(0.110393 -0.00139877 0)
(0.111102 -0.00166992 0)
(0.111903 -0.00188715 0)
(0.112781 -0.00203163 0)
(0.113714 -0.00208766 0)
(0.114677 -0.00204365 0)
(0.115643 -0.00189267 0)
(0.116581 -0.00163276 0)
(0.117464 -0.00126679 0)
(0.118264 -0.000801945 0)
(0.118957 -0.000248893 0)
(0.119524 0.000379375 0)
(0.119949 0.00106889 0)
(0.120221 0.00180635 0)
(0.120331 0.00257937 0)
(0.120275 0.00337779 0)
(0.120048 0.00419374 0)
(0.11965 0.00502147 0)
(0.119076 0.0058571 0)
(0.118325 0.00669836 0)
(0.117394 0.00754389 0)
(0.116278 0.00839282 0)
(0.114974 0.00924433 0)
(0.113477 0.0100973 0)
(0.111784 0.0109497 0)
(0.109886 0.0117989 0)
(0.10779 0.0126407 0)
(0.105463 0.0134671 0)
(0.00115453 -0.0121714 0)
(0.00352144 -0.0126972 0)
(0.00565533 -0.0117958 0)
(0.00773678 -0.0116261 0)
(0.00983012 -0.0116869 0)
(0.0119497 -0.0117804 0)
(0.0140996 -0.0118827 0)
(0.0162826 -0.0119932 0)
(0.0185011 -0.0121092 0)
(0.020757 -0.0122269 0)
(0.0230508 -0.0123419 0)
(0.0253815 -0.01245 0)
(0.027747 -0.0125472 0)
(0.0301443 -0.0126302 0)
(0.0325694 -0.0126962 0)
(0.0350174 -0.0127431 0)
(0.0374835 -0.0127702 0)
(0.0399626 -0.012777 0)
(0.04245 -0.0127639 0)
(0.0449415 -0.0127316 0)
(0.0474332 -0.0126811 0)
(0.0499218 -0.0126133 0)
(0.0524044 -0.0125287 0)
(0.0548781 -0.0124277 0)
(0.0573403 -0.0123103 0)
(0.0597885 -0.0121761 0)
(0.0622198 -0.0120243 0)
(0.0646311 -0.0118538 0)
(0.0670192 -0.0116633 0)
(0.06938 -0.011451 0)
(0.0717092 -0.0112154 0)
(0.0740019 -0.0109546 0)
(0.0762525 -0.010667 0)
(0.0784549 -0.010351 0)
(0.0806024 -0.0100059 0)
(0.0826878 -0.00963146 0)
(0.0847039 -0.00922842 0)
(0.0866435 -0.00879875 0)
(0.0885002 -0.00834557 0)
(0.0902684 -0.00787303 0)
(0.0919439 -0.00738605 0)
(0.0935242 -0.00688986 0)
(0.0950081 -0.0063896 0)
(0.0963957 -0.00588993 0)
(0.0976883 -0.00539482 0)
(0.0988877 -0.00490746 0)
(0.099996 -0.00443028 0)
(0.101016 -0.00396519 0)
(0.101948 -0.00351381 0)
(0.102797 -0.00307776 0)
(0.103563 -0.00265882 0)
(0.104249 -0.00225902 0)
(0.10486 -0.00188054 0)
(0.105397 -0.00152556 0)
(0.105866 -0.00119599 0)
(0.106272 -0.000893412 0)
(0.10662 -0.000619099 0)
(0.106914 -0.000374131 0)
(0.10716 -0.000159488 0)
(0.107363 2.38456e-05 0)
(0.107529 0.000174196 0)
(0.107663 0.000290003 0)
(0.107769 0.000367354 0)
(0.107854 0.000400481 0)
(0.107929 0.000382148 0)
(0.108006 0.000304259 0)
(0.108103 0.000161225 0)
(0.108242 -4.83806e-05 0)
(0.108444 -0.000320493 0)
(0.108731 -0.000643741 0)
(0.10912 -0.00100134 0)
(0.109621 -0.00137182 0)
(0.110239 -0.00173097 0)
(0.110971 -0.0020537 0)
(0.111807 -0.0023158 0)
(0.112728 -0.00249544 0)
(0.113711 -0.00257446 0)
(0.11473 -0.00253945 0)
(0.115753 -0.00238251 0)
(0.116749 -0.00210148 0)
(0.117687 -0.00169987 0)
(0.118537 -0.00118621 0)
(0.119274 -0.000573103 0)
(0.119877 0.000124212 0)
(0.120331 0.000889369 0)
(0.120624 0.001707 0)
(0.12075 0.00256316 0)
(0.120705 0.0034466 0)
(0.120487 0.00434878 0)
(0.120093 0.00526368 0)
(0.119524 0.00618755 0)
(0.118776 0.00711836 0)
(0.117847 0.00805513 0)
(0.116733 0.00899732 0)
(0.11543 0.00994433 0)
(0.113934 0.0108951 0)
(0.112239 0.0118479 0)
(0.110339 0.0127994 0)
(0.108236 0.0137454 0)
(0.105899 0.0146771 0)
(0.00115455 -0.0133236 0)
(0.00350929 -0.0138375 0)
(0.00562997 -0.012846 0)
(0.00770141 -0.0126664 0)
(0.00978625 -0.0127384 0)
(0.0118984 -0.0128464 0)
(0.0140425 -0.0129648 0)
(0.0162215 -0.013093 0)
(0.0184381 -0.0132278 0)
(0.0206942 -0.0133647 0)
(0.0229905 -0.0134989 0)
(0.0253259 -0.0136256 0)
(0.0276981 -0.0137399 0)
(0.0301038 -0.0138381 0)
(0.0325385 -0.013917 0)
(0.0349969 -0.0139743 0)
(0.0374736 -0.0140091 0)
(0.0399634 -0.0140211 0)
(0.0424611 -0.014011 0)
(0.0449624 -0.0139796 0)
(0.0474635 -0.0139283 0)
(0.049961 -0.0138581 0)
(0.0524522 -0.0137697 0)
(0.0549345 -0.0136637 0)
(0.0574054 -0.01354 0)
(0.0598626 -0.0133981 0)
(0.0623034 -0.0132373 0)
(0.0647249 -0.0130562 0)
(0.067124 -0.0128532 0)
(0.0694966 -0.0126265 0)
(0.0718387 -0.0123741 0)
(0.0741451 -0.0120939 0)
(0.0764104 -0.0117839 0)
(0.0786281 -0.0114423 0)
(0.0807912 -0.0110679 0)
(0.082892 -0.0106605 0)
(0.0849229 -0.0102208 0)
(0.086876 -0.00975087 0)
(0.0887441 -0.00925426 0)
(0.0905214 -0.00873579 0)
(0.0922033 -0.00820113 0)
(0.0937871 -0.00765632 0)
(0.0952719 -0.00710727 0)
(0.0966581 -0.00655925 0)
(0.0979475 -0.00601666 0)
(0.0991421 -0.00548291 0)
(0.100245 -0.00496052 0)
(0.101257 -0.00445136 0)
(0.102183 -0.00395701 0)
(0.103023 -0.00347907 0)
(0.10378 -0.00301944 0)
(0.104456 -0.00258037 0)
(0.105054 -0.00216437 0)