/*--------------------------------*- C++ -*----------------------------------*\
| =========                 |                                                 |
| \\      /  F ield         | OpenFOAM: The Open Source CFD Toolbox           |
|  \\    /   O peration     | Version:  2.4.0                                 |
|   \\  /    A nd           | Web:      www.OpenFOAM.org                      |
|    \\/     M anipulation  |                                                 |
\*---------------------------------------------------------------------------*/
FoamFile
{
    version     2.0;
    format      ascii;
    class       volScalarField;
    location    "0.167";
    object      p;
}
// * * * * * * * * * * * * * * * * * * * * * * * * * * * * * * * * * * * * * //

dimensions      [1 -1 -2 0 0 0 0];

internalField   nonuniform List<scalar> 
60000
(
96.8379
96.8378
96.8378
96.8377
96.8376
96.8374
96.8373
96.8371
96.8369
96.8367
96.8365
96.8362
96.836
96.8357
96.8354
96.8351
96.8348
96.8345
96.8342
96.834
96.8337
96.8334
96.8331
96.8328
96.8326
96.8323
96.8321
96.8319
96.8317
96.8315
96.8313
96.8312
96.8311
96.831
96.8309
96.8309
96.8309
96.8309
96.831
96.8311
96.8313
96.8315
96.8318
96.8321
96.8324
96.8329
96.8334
96.834
96.8346
96.8353
96.8362
96.8371
96.8381
96.8392
96.8404
96.8417
96.8432
96.8447
96.8464
96.8482
96.8502
96.8523
96.8546
96.8571
96.8597
96.8625
96.8654
96.8686
96.872
96.8756
96.8794
96.8835
96.8878
96.8924
96.8972
96.9023
96.9078
96.9135
96.9195
96.9259
96.9326
96.9397
96.9471
96.955
96.9632
96.9718
96.9808
96.9903
97.0001
97.0104
97.0212
97.0324
97.0441
97.0562
97.0687
97.0817
97.0952
97.1091
97.1234
97.1381
94.8759
94.8758
94.8758
94.8757
94.8756
94.8755
94.8753
94.8751
94.8749
94.8747
94.8745
94.8742
94.874
94.8737
94.8734
94.8731
94.8728
94.8725
94.8722
94.872
94.8717
94.8714
94.8711
94.8708
94.8706
94.8703
94.8701
94.8699
94.8697
94.8695
94.8693
94.8692
94.8691
94.869
94.8689
94.8689
94.8689
94.8689
94.869
94.8691
94.8693
94.8695
94.8698
94.8701
94.8704
94.8709
94.8714
94.872
94.8726
94.8733
94.8742
94.8751
94.8761
94.8772
94.8784
94.8797
94.8811
94.8827
94.8844
94.8862
94.8882
94.8903
94.8926
94.895
94.8976
94.9004
94.9034
94.9066
94.91
94.9136
94.9174
94.9214
94.9258
94.9303
94.9352
94.9403
94.9457
94.9514
94.9575
94.9638
94.9706
94.9776
94.9851
94.9929
95.0011
95.0097
95.0187
95.0282
95.038
95.0483
95.0591
95.0703
95.082
95.0941
95.1066
95.1196
95.1331
95.147
95.1613
95.176
92.9139
92.9138
92.9138
92.9137
92.9136
92.9135
92.9133
92.9131
92.9129
92.9127
92.9125
92.9122
92.912
92.9117
92.9114
92.9111
92.9108
92.9105
92.9103
92.91
92.9097
92.9094
92.9091
92.9088
92.9086
92.9083
92.9081
92.9079
92.9077
92.9075
92.9073
92.9072
92.9071
92.907
92.9069
92.9069
92.9069
92.9069
92.907
92.9071
92.9073
92.9075
92.9077
92.9081
92.9084
92.9089
92.9094
92.9099
92.9106
92.9113
92.9121
92.913
92.914
92.9151
92.9163
92.9177
92.9191
92.9207
92.9224
92.9242
92.9261
92.9283
92.9305
92.933
92.9356
92.9383
92.9413
92.9445
92.9479
92.9515
92.9553
92.9593
92.9637
92.9682
92.973
92.9782
92.9836
92.9893
92.9953
93.0017
93.0084
93.0155
93.0229
93.0307
93.0389
93.0475
93.0565
93.066
93.0758
93.0861
93.0969
93.1081
93.1197
93.1319
93.1444
93.1574
93.1709
93.1848
93.1991
93.2138
90.9519
90.9519
90.9518
90.9517
90.9516
90.9515
90.9513
90.9512
90.951
90.9507
90.9505
90.9502
90.95
90.9497
90.9494
90.9491
90.9488
90.9485
90.9483
90.948
90.9477
90.9474
90.9471
90.9468
90.9466
90.9463
90.9461
90.9459
90.9457
90.9455
90.9453
90.9452
90.9451
90.945
90.9449
90.9449
90.9449
90.9449
90.945
90.9451
90.9453
90.9455
90.9457
90.946
90.9464
90.9468
90.9473
90.9479
90.9485
90.9493
90.9501
90.951
90.952
90.9531
90.9543
90.9556
90.957
90.9586
90.9603
90.9621
90.964
90.9662
90.9684
90.9708
90.9734
90.9762
90.9792
90.9824
90.9857
90.9893
90.9931
90.9972
91.0015
91.006
91.0109
91.016
91.0214
91.0271
91.0331
91.0395
91.0462
91.0532
91.0606
91.0684
91.0766
91.0852
91.0942
91.1037
91.1135
91.1238
91.1346
91.1458
91.1574
91.1695
91.1821
91.1951
91.2086
91.2225
91.2368
91.2515
88.9899
88.9899
88.9898
88.9898
88.9896
88.9895
88.9894
88.9892
88.989
88.9888
88.9885
88.9883
88.988
88.9877
88.9874
88.9871
88.9868
88.9866
88.9863
88.986
88.9857
88.9854
88.9851
88.9848
88.9846
88.9843
88.9841
88.9839
88.9837
88.9835
88.9833
88.9832
88.9831
88.983
88.9829
88.9829
88.9829
88.9829
88.983
88.9831
88.9832
88.9834
88.9837
88.984
88.9843
88.9848
88.9853
88.9858
88.9865
88.9872
88.988
88.9889
88.9899
88.991
88.9922
88.9935
88.9949
88.9965
88.9981
89
89.0019
89.004
89.0063
89.0087
89.0113
89.0141
89.017
89.0202
89.0235
89.0271
89.0309
89.035
89.0392
89.0438
89.0486
89.0537
89.0591
89.0648
89.0708
89.0771
89.0838
89.0909
89.0983
89.1061
89.1142
89.1228
89.1318
89.1413
89.1511
89.1614
89.1721
89.1833
89.195
89.2071
89.2197
89.2327
89.2462
89.2601
89.2744
89.2892
87.028
87.0279
87.0279
87.0278
87.0277
87.0275
87.0274
87.0272
87.027
87.0268
87.0265
87.0263
87.026
87.0257
87.0254
87.0252
87.0249
87.0246
87.0243
87.024
87.0237
87.0234
87.0231
87.0228
87.0226
87.0223
87.0221
87.0219
87.0217
87.0215
87.0213
87.0212
87.021
87.0209
87.0209
87.0208
87.0208
87.0208
87.0209
87.021
87.0212
87.0214
87.0216
87.0219
87.0223
87.0227
87.0232
87.0237
87.0244
87.0251
87.0259
87.0268
87.0278
87.0289
87.0301
87.0314
87.0328
87.0343
87.036
87.0378
87.0397
87.0418
87.0441
87.0465
87.0491
87.0518
87.0548
87.0579
87.0613
87.0648
87.0686
87.0727
87.0769
87.0815
87.0863
87.0913
87.0967
87.1024
87.1084
87.1147
87.1214
87.1284
87.1358
87.1436
87.1518
87.1603
87.1693
87.1787
87.1886
87.1989
87.2096
87.2208
87.2324
87.2445
87.2571
87.2701
87.2836
87.2976
87.3119
87.3267
85.066
85.066
85.0659
85.0658
85.0657
85.0656
85.0654
85.0652
85.065
85.0648
85.0646
85.0643
85.064
85.0637
85.0635
85.0632
85.0629
85.0626
85.0623
85.062
85.0617
85.0614
85.0611
85.0608
85.0605
85.0603
85.0601
85.0598
85.0596
85.0594
85.0593
85.0591
85.059
85.0589
85.0588
85.0588
85.0588
85.0588
85.0589
85.059
85.0591
85.0593
85.0595
85.0598
85.0602
85.0606
85.0611
85.0616
85.0623
85.063
85.0638
85.0647
85.0656
85.0667
85.0679
85.0692
85.0706
85.0721
85.0738
85.0756
85.0775
85.0796
85.0819
85.0843
85.0868
85.0896
85.0925
85.0956
85.099
85.1025
85.1063
85.1103
85.1146
85.1191
85.1239
85.1289
85.1343
85.1399
85.1459
85.1522
85.1589
85.1659
85.1733
85.181
85.1892
85.1977
85.2067
85.2161
85.2259
85.2362
85.2469
85.2581
85.2698
85.2819
85.2945
85.3075
85.321
85.3349
85.3493
85.3641
83.1041
83.104
83.104
83.1039
83.1038
83.1036
83.1035
83.1033
83.1031
83.1028
83.1026
83.1023
83.1021
83.1018
83.1015
83.1012
83.1009
83.1006
83.1003
83.1
83.0997
83.0994
83.0991
83.0988
83.0985
83.0983
83.098
83.0978
83.0976
83.0974
83.0972
83.0971
83.097
83.0969
83.0968
83.0967
83.0967
83.0967
83.0968
83.0969
83.097
83.0972
83.0974
83.0977
83.0981
83.0985
83.099
83.0995
83.1001
83.1008
83.1016
83.1025
83.1035
83.1045
83.1057
83.107
83.1084
83.1099
83.1116
83.1134
83.1153
83.1174
83.1196
83.122
83.1245
83.1273
83.1302
83.1333
83.1366
83.1402
83.1439
83.1479
83.1521
83.1566
83.1614
83.1664
83.1718
83.1774
83.1834
83.1897
83.1963
83.2033
83.2106
83.2184
83.2265
83.235
83.244
83.2534
83.2632
83.2734
83.2842
83.2953
83.307
83.3191
83.3317
83.3447
83.3582
83.3722
83.3866
83.4014
81.1421
81.1421
81.142
81.1419
81.1418
81.1417
81.1415
81.1413
81.1411
81.1409
81.1406
81.1404
81.1401
81.1398
81.1395
81.1392
81.1389
81.1386
81.1383
81.1379
81.1376
81.1373
81.1371
81.1368
81.1365
81.1363
81.136
81.1358
81.1356
81.1354
81.1352
81.1351
81.1349
81.1348
81.1347
81.1347
81.1347
81.1347
81.1347
81.1348
81.1349
81.1351
81.1353
81.1356
81.136
81.1364
81.1368
81.1374
81.138
81.1387
81.1395
81.1403
81.1413
81.1423
81.1435
81.1448
81.1462
81.1477
81.1493
81.1511
81.153
81.1551
81.1573
81.1597
81.1622
81.1649
81.1678
81.1709
81.1742
81.1777
81.1815
81.1854
81.1896
81.1941
81.1989
81.2039
81.2092
81.2148
81.2207
81.227
81.2336
81.2406
81.2479
81.2556
81.2637
81.2722
81.2812
81.2905
81.3003
81.3106
81.3213
81.3324
81.3441
81.3562
81.3688
81.3818
81.3954
81.4093
81.4238
81.4387
79.1802
79.1801
79.1801
79.18
79.1799
79.1797
79.1796
79.1794
79.1791
79.1789
79.1787
79.1784
79.1781
79.1778
79.1775
79.1772
79.1769
79.1766
79.1763
79.1759
79.1756
79.1753
79.175
79.1748
79.1745
79.1742
79.174
79.1738
79.1735
79.1734
79.1732
79.173
79.1729
79.1728
79.1727
79.1726
79.1726
79.1726
79.1726
79.1727
79.1728
79.173
79.1732
79.1735
79.1738
79.1742
79.1747
79.1752
79.1758
79.1765
79.1773
79.1781
79.1791
79.1801
79.1813
79.1825
79.1839
79.1854
79.187
79.1888
79.1907
79.1927
79.1949
79.1973
79.1998
79.2025
79.2054
79.2085
79.2117
79.2152
79.2189
79.2229
79.2271
79.2315
79.2362
79.2412
79.2465
79.2521
79.258
79.2642
79.2708
79.2777
79.285
79.2927
79.3008
79.3093
79.3182
79.3276
79.3373
79.3476
79.3583
79.3694
79.3811
79.3932
79.4058
79.4188
79.4324
79.4464
79.4609
79.4758
77.2182
77.2182
77.2181
77.2181
77.2179
77.2178
77.2176
77.2174
77.2172
77.217
77.2167
77.2164
77.2161
77.2158
77.2155
77.2152
77.2149
77.2146
77.2142
77.2139
77.2136
77.2133
77.213
77.2127
77.2125
77.2122
77.212
77.2117
77.2115
77.2113
77.2111
77.211
77.2108
77.2107
77.2106
77.2106
77.2105
77.2105
77.2106
77.2106
77.2107
77.2109
77.2111
77.2114
77.2117
77.2121
77.2125
77.213
77.2136
77.2143
77.2151
77.2159
77.2168
77.2179
77.219
77.2203
77.2216
77.2231
77.2247
77.2265
77.2283
77.2304
77.2325
77.2349
77.2374
77.2401
77.2429
77.246
77.2492
77.2527
77.2564
77.2603
77.2645
77.2689
77.2736
77.2785
77.2838
77.2893
77.2952
77.3014
77.3079
77.3148
77.3221
77.3298
77.3378
77.3463
77.3552
77.3645
77.3742
77.3845
77.3951
77.4063
77.4179
77.43
77.4426
77.4557
77.4693
77.4833
77.4978
77.5128
75.2563
75.2563
75.2562
75.2561
75.256
75.2559
75.2557
75.2555
75.2553
75.255
75.2547
75.2545
75.2542
75.2539
75.2535
75.2532
75.2529
75.2526
75.2522
75.2519
75.2516
75.2513
75.251
75.2507
75.2504
75.2502
75.2499
75.2497
75.2495
75.2493
75.2491
75.2489
75.2488
75.2486
75.2485
75.2485
75.2484
75.2484
75.2484
75.2485
75.2486
75.2488
75.249
75.2492
75.2495
75.2499
75.2503
75.2508
75.2514
75.2521
75.2528
75.2537
75.2546
75.2556
75.2567
75.258
75.2593
75.2608
75.2624
75.2641
75.2659
75.268
75.2701
75.2724
75.2749
75.2776
75.2804
75.2834
75.2867
75.2901
75.2938
75.2976
75.3018
75.3062
75.3108
75.3157
75.321
75.3265
75.3323
75.3385
75.345
75.3519
75.3591
75.3667
75.3747
75.3832
75.392
75.4013
75.411
75.4212
75.4319
75.443
75.4547
75.4668
75.4794
75.4925
75.5061
75.5201
75.5347
75.5497
73.2944
73.2944
73.2943
73.2942
73.2941
73.2939
73.2937
73.2935
73.2933
73.2931
73.2928
73.2925
73.2922
73.2919
73.2916
73.2912
73.2909
73.2906
73.2902
73.2899
73.2896
73.2893
73.289
73.2887
73.2884
73.2881
73.2879
73.2876
73.2874
73.2872
73.287
73.2869
73.2867
73.2866
73.2865
73.2864
73.2863
73.2863
73.2863
73.2864
73.2865
73.2866
73.2868
73.287
73.2873
73.2877
73.2881
73.2886
73.2892
73.2898
73.2906
73.2914
73.2923
73.2933
73.2944
73.2956
73.297
73.2984
73.3
73.3017
73.3035
73.3055
73.3076
73.3099
73.3124
73.315
73.3178
73.3208
73.324
73.3274
73.3311
73.3349
73.339
73.3434
73.348
73.3529
73.3581
73.3635
73.3693
73.3755
73.3819
73.3888
73.396
73.4036
73.4115
73.4199
73.4288
73.438
73.4477
73.4579
73.4685
73.4797
73.4913
73.5034
73.516
73.5291
73.5427
73.5568
73.5714
73.5865
71.3325
71.3325
71.3324
71.3323
71.3322
71.332
71.3318
71.3316
71.3314
71.3311
71.3308
71.3305
71.3302
71.3299
71.3296
71.3292
71.3289
71.3286
71.3282
71.3279
71.3276
71.3273
71.327
71.3267
71.3264
71.3261
71.3258
71.3256
71.3254
71.3252
71.325
71.3248
71.3246
71.3245
71.3244
71.3243
71.3242
71.3242
71.3242
71.3243
71.3243
71.3245
71.3246
71.3249
71.3252
71.3255
71.3259
71.3264
71.3269
71.3276
71.3283
71.3291
71.33
71.331
71.3321
71.3333
71.3346
71.336
71.3376
71.3392
71.3411
71.343
71.3451
71.3474
71.3498
71.3524
71.3552
71.3582
71.3614
71.3647
71.3683
71.3722
71.3762
71.3805
71.3851
71.39
71.3951
71.4005
71.4063
71.4124
71.4188
71.4256
71.4328
71.4403
71.4482
71.4566
71.4654
71.4746
71.4843
71.4944
71.5051
71.5162
71.5278
71.5399
71.5525
71.5656
71.5793
71.5934
71.608
71.6231
69.3706
69.3706
69.3705
69.3704
69.3703
69.3701
69.3699
69.3697
69.3694
69.3692
69.3689
69.3686
69.3683
69.3679
69.3676
69.3673
69.3669
69.3666
69.3662
69.3659
69.3656
69.3652
69.3649
69.3646
69.3643
69.3641
69.3638
69.3636
69.3633
69.3631
69.3629
69.3627
69.3626
69.3624
69.3623
69.3622
69.3621
69.3621
69.3621
69.3621
69.3622
69.3623
69.3625
69.3627
69.3629
69.3633
69.3637
69.3641
69.3647
69.3653
69.366
69.3668
69.3676
69.3686
69.3697
69.3709
69.3722
69.3736
69.3751
69.3768
69.3786
69.3805
69.3826
69.3848
69.3872
69.3898
69.3926
69.3955
69.3986
69.402
69.4055
69.4093
69.4133
69.4176
69.4221
69.427
69.432
69.4374
69.4432
69.4492
69.4556
69.4623
69.4694
69.4769
69.4848
69.4932
69.5019
69.5111
69.5207
69.5309
69.5415
69.5526
69.5641
69.5762
69.5889
69.602
69.6157
69.6298
69.6445
69.6597
67.4087
67.4087
67.4086
67.4085
67.4084
67.4082
67.408
67.4078
67.4075
67.4072
67.407
67.4066
67.4063
67.406
67.4056
67.4053
67.4049
67.4046
67.4042
67.4039
67.4035
67.4032
67.4029
67.4026
67.4023
67.402
67.4018
67.4015
67.4013
67.401
67.4008
67.4006
67.4005
67.4003
67.4002
67.4001
67.4
67.4
67.3999
67.4
67.4
67.4001
67.4003
67.4005
67.4007
67.401
67.4014
67.4019
67.4024
67.403
67.4037
67.4044
67.4053
67.4062
67.4073
67.4085
67.4097
67.4111
67.4126
67.4143
67.416
67.4179
67.42
67.4222
67.4246
67.4271
67.4298
67.4327
67.4358
67.4392
67.4427
67.4464
67.4504
67.4546
67.4591
67.4639
67.4689
67.4743
67.4799
67.4859
67.4923
67.499
67.506
67.5135
67.5213
67.5296
67.5383
67.5475
67.5571
67.5672
67.5777
67.5888
67.6004
67.6125
67.6251
67.6383
67.6519
67.6662
67.6809
67.6961
65.4468
65.4468
65.4467
65.4466
65.4465
65.4463
65.4461
65.4459
65.4456
65.4453
65.445
65.4447
65.4444
65.444
65.4437
65.4433
65.4429
65.4426
65.4422
65.4419
65.4415
65.4412
65.4409
65.4406
65.4403
65.44
65.4397
65.4395
65.4392
65.439
65.4388
65.4386
65.4384
65.4382
65.4381
65.438
65.4379
65.4378
65.4378
65.4378
65.4378
65.4379
65.4381
65.4382
65.4385
65.4388
65.4392
65.4396
65.4401
65.4407
65.4413
65.4421
65.4429
65.4438
65.4449
65.446
65.4473
65.4486
65.4501
65.4517
65.4535
65.4553
65.4574
65.4596
65.4619
65.4644
65.4671
65.47
65.473
65.4763
65.4798
65.4835
65.4874
65.4916
65.496
65.5007
65.5057
65.511
65.5166
65.5226
65.5289
65.5355
65.5425
65.5499
65.5577
65.5659
65.5746
65.5837
65.5933
65.6033
65.6139
65.6249
65.6365
65.6486
65.6612
65.6744
65.6881
65.7023
65.7171
65.7325
63.485
63.4849
63.4848
63.4847
63.4846
63.4844
63.4842
63.484
63.4837
63.4834
63.4831
63.4828
63.4824
63.482
63.4817
63.4813
63.4809
63.4806
63.4802
63.4798
63.4795
63.4792
63.4788
63.4785
63.4782
63.4779
63.4777
63.4774
63.4771
63.4769
63.4767
63.4765
63.4763
63.4761
63.476
63.4759
63.4758
63.4757
63.4756
63.4756
63.4757
63.4757
63.4758
63.476
63.4762
63.4765
63.4769
63.4773
63.4778
63.4783
63.479
63.4797
63.4805
63.4814
63.4824
63.4835
63.4848
63.4861
63.4876
63.4891
63.4909
63.4927
63.4947
63.4969
63.4992
63.5016
63.5043
63.5071
63.5101
63.5134
63.5168
63.5204
63.5243
63.5285
63.5329
63.5375
63.5425
63.5477
63.5533
63.5591
63.5654
63.5719
63.5789
63.5862
63.594
63.6022
63.6108
63.6198
63.6294
63.6394
63.6499
63.6609
63.6725
63.6846
63.6972
63.7104
63.7241
63.7384
63.7532
63.7686
61.5231
61.5231
61.523
61.5229
61.5227
61.5225
61.5223
61.5221
61.5218
61.5215
61.5212
61.5208
61.5205
61.5201
61.5197
61.5193
61.5189
61.5186
61.5182
61.5178
61.5175
61.5171
61.5168
61.5165
61.5162
61.5159
61.5156
61.5153
61.5151
61.5148
61.5146
61.5144
61.5142
61.514
61.5139
61.5137
61.5136
61.5135
61.5135
61.5134
61.5135
61.5135
61.5136
61.5138
61.514
61.5142
61.5146
61.515
61.5154
61.516
61.5166
61.5173
61.5181
61.519
61.5199
61.521
61.5222
61.5235
61.525
61.5265
61.5282
61.53
61.532
61.5341
61.5364
61.5388
61.5414
61.5442
61.5472
61.5504
61.5538
61.5574
61.5612
61.5653
61.5696
61.5742
61.5791
61.5843
61.5898
61.5956
61.6018
61.6083
61.6152
61.6225
61.6302
61.6383
61.6468
61.6559
61.6653
61.6753
61.6858
61.6968
61.7083
61.7204
61.733
61.7462
61.76
61.7743
61.7892
61.8047
59.5612
59.5612
59.5611
59.561
59.5608
59.5607
59.5604
59.5602
59.5599
59.5596
59.5592
59.5589
59.5585
59.5581
59.5577
59.5573
59.5569
59.5566
59.5562
59.5558
59.5554
59.5551
59.5547
59.5544
59.5541
59.5538
59.5535
59.5533
59.553
59.5528
59.5525
59.5523
59.5521
59.5519
59.5518
59.5516
59.5515
59.5514
59.5513
59.5513
59.5512
59.5513
59.5514
59.5515
59.5517
59.5519
59.5522
59.5526
59.5531
59.5536
59.5542
59.5549
59.5556
59.5565
59.5574
59.5585
59.5597
59.561
59.5624
59.5639
59.5655
59.5673
59.5693
59.5713
59.5736
59.576
59.5785
59.5813
59.5842
59.5874
59.5907
59.5942
59.598
59.6021
59.6063
59.6109
59.6157
59.6208
59.6263
59.632
59.6381
59.6446
59.6514
59.6586
59.6662
59.6743
59.6828
59.6918
59.7012
59.7111
59.7216
59.7325
59.744
59.7561
59.7687
59.7819
59.7957
59.8101
59.825
59.8406
57.5994
57.5993
57.5993
57.5991
57.599
57.5988
57.5986
57.5983
57.598
57.5977
57.5973
57.5969
57.5966
57.5962
57.5958
57.5954
57.5949
57.5945
57.5942
57.5938
57.5934
57.593
57.5927
57.5924
57.5921
57.5918
57.5915
57.5912
57.5909
57.5907
57.5905
57.5902
57.59
57.5898
57.5896
57.5895
57.5893
57.5892
57.5891
57.5891
57.589
57.5891
57.5891
57.5892
57.5894
57.5896
57.5899
57.5903
57.5907
57.5912
57.5917
57.5924
57.5931
57.594
57.5949
57.5959
57.5971
57.5983
57.5997
57.6012
57.6028
57.6046
57.6065
57.6085
57.6107
57.6131
57.6156
57.6183
57.6212
57.6243
57.6276
57.6311
57.6348
57.6387
57.643
57.6474
57.6522
57.6573
57.6626
57.6683
57.6743
57.6807
57.6875
57.6946
57.7022
57.7102
57.7186
57.7275
57.7369
57.7468
57.7572
57.7681
57.7796
57.7917
57.8043
57.8175
57.8313
57.8457
57.8607
57.8763
55.6376
55.6375
55.6374
55.6373
55.6371
55.6369
55.6367
55.6364
55.6361
55.6358
55.6354
55.635
55.6346
55.6342
55.6338
55.6334
55.6329
55.6325
55.6321
55.6317
55.6314
55.631
55.6306
55.6303
55.63
55.6297
55.6294
55.6291
55.6289
55.6286
55.6284
55.6281
55.6279
55.6277
55.6275
55.6273
55.6272
55.627
55.6269
55.6268
55.6268
55.6268
55.6268
55.6269
55.6271
55.6273
55.6276
55.6279
55.6283
55.6287
55.6293
55.6299
55.6306
55.6315
55.6324
55.6334
55.6345
55.6357
55.637
55.6385
55.6401
55.6418
55.6437
55.6457
55.6478
55.6502
55.6526
55.6553
55.6581
55.6611
55.6644
55.6678
55.6715
55.6754
55.6795
55.684
55.6886
55.6936
55.6989
55.7045
55.7105
55.7168
55.7235
55.7306
55.7381
55.746
55.7544
55.7632
55.7725
55.7823
55.7927
55.8036
55.815
55.8271
55.8397
55.8529
55.8667
55.8812
55.8962
55.9119
53.6757
53.6757
53.6756
53.6755
53.6753
53.6751
53.6748
53.6745
53.6742
53.6739
53.6735
53.6731
53.6727
53.6723
53.6718
53.6714
53.6709
53.6705
53.6701
53.6697
53.6693
53.669
53.6686
53.6683
53.6679
53.6676
53.6673
53.6671
53.6668
53.6665
53.6663
53.666
53.6658
53.6656
53.6654
53.6652
53.665
53.6648
53.6647
53.6646
53.6646
53.6645
53.6646
53.6646
53.6648
53.6649
53.6652
53.6655
53.6659
53.6663
53.6668
53.6674
53.6681
53.6689
53.6698
53.6708
53.6718
53.673
53.6743
53.6758
53.6773
53.679
53.6808
53.6828
53.6849
53.6872
53.6896
53.6922
53.695
53.698
53.7011
53.7045
53.7081
53.7119
53.716
53.7204
53.725
53.7299
53.7351
53.7407
53.7466
53.7528
53.7594
53.7664
53.7738
53.7817
53.79
53.7987
53.808
53.8178
53.8281
53.8389
53.8503
53.8623
53.8749
53.8882
53.902
53.9165
53.9316
53.9474
51.7139
51.7139
51.7138
51.7136
51.7135
51.7132
51.713
51.7127
51.7124
51.712
51.7116
51.7112
51.7107
51.7103
51.7098
51.7094
51.7089
51.7085
51.7081
51.7077
51.7073
51.7069
51.7065
51.7062
51.7059
51.7056
51.7053
51.705
51.7047
51.7044
51.7042
51.7039
51.7037
51.7035
51.7032
51.703
51.7028
51.7027
51.7025
51.7024
51.7023
51.7023
51.7023
51.7023
51.7024
51.7026
51.7028
51.7031
51.7034
51.7038
51.7043
51.7049
51.7056
51.7063
51.7072
51.7081
51.7092
51.7103
51.7116
51.713
51.7145
51.7162
51.718
51.7199
51.7219
51.7242
51.7265
51.7291
51.7318
51.7347
51.7378
51.7411
51.7447
51.7485
51.7525
51.7567
51.7613
51.7661
51.7713
51.7767
51.7825
51.7887
51.7952
51.8021
51.8095
51.8172
51.8255
51.8342
51.8433
51.853
51.8633
51.8741
51.8855
51.8974
51.91
51.9233
51.9371
51.9516
51.9668
51.9827
49.7521
49.7521
49.752
49.7518
49.7516
49.7514
49.7511
49.7508
49.7505
49.7501
49.7497
49.7493
49.7488
49.7483
49.7479
49.7474
49.7469
49.7465
49.7461
49.7456
49.7452
49.7448
49.7445
49.7441
49.7438
49.7435
49.7432
49.7429
49.7426
49.7424
49.7421
49.7418
49.7416
49.7413
49.7411
49.7409
49.7407
49.7405
49.7403
49.7402
49.7401
49.74
49.74
49.74
49.7401
49.7402
49.7404
49.7407
49.741
49.7414
49.7418
49.7424
49.743
49.7437
49.7445
49.7455
49.7465
49.7476
49.7488
49.7502
49.7517
49.7533
49.755
49.7569
49.7589
49.7611
49.7634
49.7659
49.7686
49.7714
49.7745
49.7777
49.7812
49.7849
49.7888
49.793
49.7975
49.8023
49.8073
49.8127
49.8184
49.8245
49.8309
49.8378
49.845
49.8527
49.8608
49.8694
49.8786
49.8882
49.8984
49.9091
49.9205
49.9324
49.945
49.9582
49.9721
49.9866
50.0019
50.0178
47.7903
47.7903
47.7902
47.79
47.7898
47.7896
47.7893
47.789
47.7886
47.7882
47.7878
47.7874
47.7869
47.7864
47.7859
47.7854
47.7849
47.7845
47.784
47.7836
47.7832
47.7828
47.7824
47.7821
47.7817
47.7814
47.7811
47.7808
47.7805
47.7803
47.78
47.7797
47.7795
47.7792
47.7789
47.7787
47.7785
47.7783
47.7781
47.7779
47.7778
47.7777
47.7777
47.7777
47.7777
47.7778
47.778
47.7782
47.7785
47.7789
47.7793
47.7798
47.7804
47.7811
47.7819
47.7828
47.7838
47.7848
47.7861
47.7874
47.7888
47.7904
47.7921
47.7939
47.7959
47.798
47.8003
47.8027
47.8053
47.8081
47.8111
47.8143
47.8177
47.8213
47.8252
47.8293
47.8337
47.8383
47.8433
47.8486
47.8542
47.8602
47.8665
47.8733
47.8804
47.888
47.8961
47.9046
47.9136
47.9232
47.9333
47.944
47.9553
47.9672
47.9798
47.993
48.0068
48.0214
48.0367
48.0528
45.8285
45.8285
45.8284
45.8282
45.828
45.8278
45.8275
45.8272
45.8268
45.8264
45.8259
45.8254
45.825
45.8244
45.8239
45.8234
45.8229
45.8224
45.822
45.8215
45.8211
45.8207
45.8203
45.82
45.8197
45.8194
45.819
45.8188
45.8185
45.8182
45.8179
45.8176
45.8173
45.8171
45.8168
45.8165
45.8163
45.8161
45.8158
45.8157
45.8155
45.8154
45.8153
45.8153
45.8153
45.8154
45.8155
45.8157
45.816
45.8163
45.8168
45.8172
45.8178
45.8185
45.8192
45.8201
45.821
45.8221
45.8232
45.8245
45.8259
45.8274
45.8291
45.8309
45.8328
45.8349
45.8371
45.8395
45.842
45.8447
45.8476
45.8507
45.8541
45.8576
45.8614
45.8654
45.8697
45.8743
45.8792
45.8844
45.8899
45.8958
45.902
45.9087
45.9157
45.9232
45.9312
45.9396
45.9486
45.9581
45.9681
45.9788
45.99
46.0019
46.0144
46.0276
46.0415
46.0561
46.0714
46.0875
43.8668
43.8667
43.8666
43.8665
43.8662
43.866
43.8657
43.8653
43.8649
43.8645
43.864
43.8635
43.863
43.8625
43.862
43.8614
43.8609
43.8604
43.8599
43.8595
43.8591
43.8587
43.8583
43.8579
43.8576
43.8573
43.857
43.8567
43.8564
43.8561
43.8558
43.8555
43.8552
43.8549
43.8547
43.8544
43.8541
43.8538
43.8536
43.8534
43.8532
43.8531
43.853
43.8529
43.8529
43.853
43.8531
43.8533
43.8535
43.8538
43.8542
43.8546
43.8552
43.8558
43.8565
43.8573
43.8582
43.8592
43.8604
43.8616
43.863
43.8645
43.8661
43.8678
43.8697
43.8717
43.8739
43.8762
43.8786
43.8813
43.8841
43.8872
43.8904
43.8939
43.8976
43.9015
43.9057
43.9102
43.915
43.9201
43.9255
43.9313
43.9374
43.944
43.951
43.9583
43.9662
43.9746
43.9834
43.9928
44.0028
44.0133
44.0245
44.0363
44.0488
44.062
44.0759
44.0905
44.1059
44.1221
41.905
41.905
41.9048
41.9047
41.9045
41.9042
41.9039
41.9035
41.9031
41.9027
41.9022
41.9016
41.9011
41.9005
41.9
41.8994
41.8989
41.8984
41.8979
41.8974
41.897
41.8966
41.8962
41.8958
41.8955
41.8952
41.8949
41.8946
41.8943
41.894
41.8937
41.8934
41.8931
41.8928
41.8925
41.8922
41.8919
41.8916
41.8914
41.8911
41.8909
41.8908
41.8906
41.8906
41.8905
41.8906
41.8906
41.8908
41.891
41.8913
41.8916
41.892
41.8925
41.8931
41.8938
41.8945
41.8954
41.8964
41.8975
41.8987
41.9
41.9015
41.903
41.9047
41.9065
41.9085
41.9106
41.9128
41.9152
41.9178
41.9206
41.9236
41.9267
41.9301
41.9337
41.9376
41.9417
41.9461
41.9507
41.9557
41.961
41.9667
41.9728
41.9792
41.986
41.9933
42.0011
42.0093
42.0181
42.0274
42.0373
42.0478
42.0589
42.0706
42.0831
42.0962
42.1101
42.1248
42.1402
42.1565
39.9433
39.9432
39.9431
39.9429
39.9427
39.9424
39.9421
39.9417
39.9413
39.9408
39.9403
39.9398
39.9392
39.9386
39.938
39.9374
39.9369
39.9363
39.9358
39.9353
39.9349
39.9345
39.9341
39.9338
39.9334
39.9331
39.9328
39.9325
39.9322
39.9319
39.9316
39.9313
39.931
39.9307
39.9304
39.93
39.9297
39.9294
39.9291
39.9289
39.9286
39.9284
39.9283
39.9282
39.9281
39.9281
39.9282
39.9283
39.9284
39.9287
39.929
39.9294
39.9298
39.9304
39.931
39.9318
39.9326
39.9335
39.9346
39.9357
39.937
39.9384
39.9399
39.9416
39.9433
39.9452
39.9473
39.9495
39.9518
39.9543
39.957
39.9599
39.963
39.9662
39.9698
39.9735
39.9775
39.9818
39.9864
39.9913
39.9965
40.002
40.008
40.0143
40.021
40.0282
40.0359
40.044
40.0527
40.0619
40.0717
40.0821
40.0931
40.1048
40.1172
40.1303
40.1442
40.1588
40.1743
40.1906
37.9815
37.9815
37.9814
37.9812
37.981
37.9807
37.9803
37.9799
37.9795
37.979
37.9784
37.9779
37.9773
37.9767
37.976
37.9754
37.9748
37.9743
37.9738
37.9733
37.9728
37.9724
37.972
37.9717
37.9713
37.971
37.9707
37.9704
37.9701
37.9698
37.9695
37.9692
37.9689
37.9685
37.9682
37.9679
37.9675
37.9672
37.9669
37.9666
37.9663
37.9661
37.9659
37.9658
37.9657
37.9656
37.9657
37.9657
37.9659
37.9661
37.9664
37.9667
37.9671
37.9676
37.9682
37.9689
37.9697
37.9706
37.9717
37.9728
37.974
37.9754
37.9768
37.9784
37.9801
37.982
37.9839
37.986
37.9883
37.9907
37.9934
37.9961
37.9991
38.0023
38.0058
38.0094
38.0133
38.0175
38.022
38.0267
38.0318
38.0373
38.0431
38.0493
38.0559
38.063
38.0705
38.0785
38.0871
38.0962
38.1059
38.1162
38.1271
38.1387
38.1511
38.1642
38.178
38.1927
38.2082
38.2246
36.0198
36.0198
36.0196
36.0195
36.0192
36.0189
36.0186
36.0182
36.0177
36.0172
36.0166
36.016
36.0154
36.0147
36.0141
36.0134
36.0128
36.0122
36.0117
36.0112
36.0107
36.0103
36.0099
36.0096
36.0092
36.0089
36.0086
36.0083
36.0081
36.0077
36.0074
36.0071
36.0068
36.0064
36.0061
36.0057
36.0053
36.005
36.0046
36.0043
36.004
36.0037
36.0035
36.0034
36.0032
36.0032
36.0032
36.0032
36.0033
36.0035
36.0037
36.004
36.0044
36.0049
36.0054
36.0061
36.0069
36.0077
36.0087
36.0098
36.011
36.0123
36.0137
36.0152
36.0169
36.0186
36.0205
36.0226
36.0248
36.0271
36.0297
36.0324
36.0353
36.0384
36.0417
36.0453
36.0491
36.0531
36.0575
36.0621
36.0671
36.0724
36.0781
36.0842
36.0907
36.0976
36.105
36.1129
36.1214
36.1303
36.1399
36.1501
36.161
36.1725
36.1848
36.1978
36.2117
36.2263
36.2419
36.2583
34.0581
34.0581
34.0579
34.0578
34.0575
34.0572
34.0568
34.0564
34.0559
34.0554
34.0548
34.0541
34.0534
34.0528
34.0521
34.0514
34.0508
34.0502
34.0496
34.0491
34.0486
34.0482
34.0478
34.0475
34.0471
34.0468
34.0466
34.0463
34.046
34.0457
34.0453
34.045
34.0447
34.0443
34.0439
34.0435
34.0431
34.0427
34.0423
34.042
34.0417
34.0414
34.0411
34.0409
34.0408
34.0407
34.0406
34.0406
34.0407
34.0409
34.041
34.0413
34.0417
34.0421
34.0426
34.0432
34.0439
34.0448
34.0457
34.0467
34.0479
34.0491
34.0505
34.052
34.0536
34.0553
34.0571
34.0591
34.0612
34.0635
34.0659
34.0685
34.0714
34.0744
34.0776
34.081
34.0847
34.0887
34.0929
34.0974
34.1023
34.1075
34.113
34.119
34.1253
34.1321
34.1394
34.1472
34.1555
34.1644
34.1738
34.1839
34.1947
34.2061
34.2183
34.2313
34.2451
34.2598
34.2753
34.2918
32.0964
32.0964
32.0962
32.0961
32.0958
32.0955
32.0951
32.0947
32.0941
32.0936
32.0929
32.0922
32.0915
32.0908
32.0901
32.0894
32.0887
32.0881
32.0875
32.087
32.0865
32.0861
32.0857
32.0854
32.085
32.0848
32.0845
32.0842
32.0839
32.0836
32.0833
32.0829
32.0826
32.0822
32.0818
32.0813
32.0809
32.0805
32.0801
32.0797
32.0793
32.079
32.0787
32.0785
32.0783
32.0782
32.0781
32.0781
32.0781
32.0782
32.0784
32.0786
32.0789
32.0793
32.0798
32.0803
32.081
32.0818
32.0827
32.0837
32.0848
32.086
32.0873
32.0887
32.0903
32.0919
32.0937
32.0956
32.0976
32.0998
32.1022
32.1047
32.1074
32.1103
32.1134
32.1167
32.1203
32.1242
32.1283
32.1327
32.1374
32.1424
32.1479
32.1537
32.1599
32.1665
32.1737
32.1813
32.1895
32.1982
32.2076
32.2175
32.2282
32.2396
32.2517
32.2646
32.2784
32.293
32.3085
32.3251
30.1348
30.1347
30.1346
30.1344
30.1341
30.1338
30.1334
30.1329
30.1324
30.1318
30.1311
30.1304
30.1296
30.1289
30.1281
30.1274
30.1267
30.126
30.1254
30.1249
30.1244
30.1239
30.1236
30.1232
30.1229
30.1227
30.1224
30.1221
30.1218
30.1215
30.1212
30.1208
30.1205
30.12
30.1196
30.1192
30.1187
30.1182
30.1178
30.1174
30.117
30.1166
30.1163
30.116
30.1158
30.1157
30.1155
30.1155
30.1155
30.1155
30.1157
30.1159
30.1161
30.1165
30.1169
30.1174
30.1181
30.1188
30.1196
30.1206
30.1216
30.1228
30.1241
30.1254
30.1269
30.1285
30.1302
30.132
30.134
30.1361
30.1383
30.1408
30.1434
30.1462
30.1492
30.1524
30.1559
30.1596
30.1635
30.1678
30.1724
30.1773
30.1826
30.1882
30.1943
30.2008
30.2078
30.2153
30.2233
30.2319
30.2411
30.251
30.2615
30.2728
30.2848
30.2977
30.3114
30.326
30.3415
30.3581
28.1731
28.173
28.1729
28.1727
28.1725
28.1721
28.1717
28.1712
28.1707
28.17
28.1693
28.1685
28.1677
28.1669
28.1661
28.1653
28.1646
28.1639
28.1633
28.1627
28.1622
28.1618
28.1614
28.1611
28.1608
28.1606
28.1603
28.16
28.1598
28.1595
28.1591
28.1588
28.1584
28.1579
28.1575
28.157
28.1565
28.156
28.1555
28.155
28.1546
28.1542
28.1539
28.1536
28.1533
28.1531
28.153
28.1529
28.1529
28.1529
28.153
28.1531
28.1533
28.1536
28.154
28.1545
28.1551
28.1558
28.1566
28.1575
28.1585
28.1596
28.1608
28.1621
28.1635
28.1651
28.1667
28.1684
28.1703
28.1723
28.1745
28.1768
28.1793
28.182
28.1849
28.188
28.1913
28.1949
28.1988
28.2029
28.2073
28.2121
28.2172
28.2227
28.2286
28.235
28.2418
28.2492
28.257
28.2655
28.2746
28.2843
28.2947
28.3058
28.3178
28.3305
28.3442
28.3587
28.3743
28.3908
26.2114
26.2114
26.2113
26.2111
26.2108
26.2105
26.21
26.2095
26.2089
26.2083
26.2075
26.2067
26.2058
26.205
26.2041
26.2033
26.2025
26.2018
26.2011
26.2006
26.2001
26.1997
26.1993
26.199
26.1987
26.1985
26.1982
26.198
26.1977
26.1974
26.1971
26.1967
26.1963
26.1958
26.1953
26.1948
26.1943
26.1938
26.1932
26.1927
26.1922
26.1918
26.1914
26.1911
26.1908
26.1906
26.1904
26.1903
26.1902
26.1902
26.1902
26.1903
26.1905
26.1907
26.1911
26.1915
26.1921
26.1927
26.1935
26.1943
26.1953
26.1964
26.1975
26.1988
26.2002
26.2016
26.2032
26.2048
26.2066
26.2085
26.2106
26.2128
26.2152
26.2178
26.2205
26.2235
26.2267
26.2302
26.2339
26.2379
26.2422
26.2468
26.2517
26.2571
26.2629
26.2691
26.2757
26.2829
26.2906
26.2989
26.3078
26.3174