/*--------------------------------*- C++ -*----------------------------------*\
| =========                 |                                                 |
| \\      /  F ield         | OpenFOAM: The Open Source CFD Toolbox           |
|  \\    /   O peration     | Version:  2.4.0                                 |
|   \\  /    A nd           | Web:      www.OpenFOAM.org                      |
|    \\/     M anipulation  |                                                 |
\*---------------------------------------------------------------------------*/
FoamFile
{
    version     2.0;
    format      ascii;
    class       volScalarField;
    location    "0.177";
    object      p;
}
// * * * * * * * * * * * * * * * * * * * * * * * * * * * * * * * * * * * * * //

dimensions      [1 -1 -2 0 0 0 0];

internalField   nonuniform List<scalar> 
60000
(
98.2558
98.26
98.2687
98.2818
98.2996
98.322
98.3492
98.3812
98.4182
98.4603
98.5077
98.5605
98.6191
98.6835
98.754
98.831
98.9146
99.0053
99.1033
99.2091
99.323
99.4455
99.577
99.718
99.8691
100.031
100.204
100.389
100.586
100.797
101.021
101.261
101.516
101.788
102.078
102.387
102.715
103.065
103.437
103.832
104.253
104.7
105.176
105.681
106.218
106.788
107.394
108.038
108.721
109.445
110.215
111.031
111.897
112.815
113.788
114.819
115.911
117.069
118.294
119.59
120.962
122.412
123.945
125.565
127.274
129.078
130.981
132.985
135.096
137.318
139.653
142.105
144.679
147.376
150.2
153.154
156.238
159.455
162.804
166.287
169.902
173.647
177.52
181.516
185.631
189.859
194.194
198.626
203.147
207.748
212.417
217.144
221.917
226.726
231.559
236.407
241.258
246.106
250.948
255.779
96.293
96.2972
96.3058
96.319
96.3367
96.3591
96.3863
96.4183
96.4552
96.4973
96.5447
96.5975
96.656
96.7203
96.7908
96.8677
96.9513
97.0419
97.1399
97.2456
97.3594
97.4818
97.6133
97.7542
97.9052
98.0667
98.2395
98.4242
98.6214
98.8319
99.0565
99.2959
99.5511
99.8231
100.113
100.421
100.749
101.099
101.47
101.866
102.286
102.733
103.208
103.713
104.25
104.82
105.425
106.068
106.751
107.475
108.244
109.06
109.925
110.843
111.815
112.846
113.938
115.095
116.319
117.615
118.986
120.436
121.968
123.587
125.296
127.099
129.001
131.005
133.116
135.337
137.671
140.123
142.697
145.394
148.218
151.172
154.256
157.474
160.824
164.307
167.923
171.669
175.543
179.541
183.658
187.889
192.225
196.66
201.183
205.786
210.457
215.186
219.962
224.772
229.606
234.453
239.304
244.151
248.991
253.82
94.3291
94.3333
94.3419
94.355
94.3727
94.3951
94.4222
94.4541
94.491
94.5331
94.5803
94.6331
94.6914
94.7557
94.8261
94.9029
94.9863
95.0768
95.1746
95.2802
95.3938
95.516
95.6472
95.7879
95.9386
96.1
96.2725
96.4569
96.6538
96.8639
97.0881
97.3272
97.582
97.8535
98.1427
98.4506
98.7784
99.1272
99.4983
99.8931
100.313
100.759
101.234
101.738
102.274
102.843
103.447
104.089
104.771
105.494
106.262
107.077
107.941
108.857
109.828
110.857
111.948
113.103
114.326
115.62
116.99
118.438
119.968
121.585
123.292
125.094
126.994
128.996
131.105
133.324
135.656
138.107
140.678
143.374
146.197
149.149
152.233
155.449
158.799
162.283
165.899
169.646
173.521
177.52
181.639
185.872
190.212
194.65
199.178
203.785
208.462
213.196
217.976
222.792
227.631
232.484
237.34
242.19
247.033
251.865
92.3641
92.3682
92.3768
92.3899
92.4076
92.4299
92.4569
92.4888
92.5256
92.5675
92.6146
92.6672
92.7255
92.7896
92.8598
92.9363
93.0196
93.1098
93.2074
93.3127
93.426
93.5479
93.6788
93.8191
93.9695
94.1304
94.3025
94.4864
94.6828
94.8924
95.116
95.3545
95.6087
95.8795
96.1679
96.4751
96.802
97.15
97.5202
97.914
98.3327
98.778
99.2513
99.7543
100.289
100.857
101.46
102.1
102.78
103.502
104.268
105.08
105.942
106.857
107.826
108.853
109.941
111.094
112.314
113.606
114.972
116.417
117.945
119.559
121.263
123.061
124.958
126.957
129.062
131.278
133.607
136.055
138.623
141.316
144.136
147.086
150.168
153.382
156.731
160.214
163.829
167.577
171.453
175.454
179.576
183.812
188.156
192.6
197.133
201.748
206.431
211.174
215.963
220.787
225.636
230.497
235.361
240.219
245.068
249.906
90.3979
90.402
90.4106
90.4236
90.4413
90.4635
90.4904
90.5222
90.5588
90.6006
90.6476
90.7
90.758
90.8219
90.8918
90.9681
91.0511
91.141
91.2382
91.3431
91.4561
91.5775
91.7079
91.8478
91.9976
92.158
92.3294
92.5127
92.7084
92.9173
93.1402
93.3778
93.6311
93.901
94.1884
94.4945
94.8204
95.1671
95.5361
95.9285
96.3459
96.7896
97.2613
97.7626
98.2953
98.8613
99.4624
100.101
100.778
101.498
102.261
103.071
103.931
104.842
105.808
106.832
107.917
109.066
110.283
111.571
112.934
114.375
115.898
117.508
119.208
121.001
122.894
124.888
126.989
129.2
131.525
133.968
136.532
139.22
142.037
144.983
148.061
151.273
154.62
158.101
161.716
165.463
169.341
173.344
177.469
181.71
186.059
190.509
195.051
199.674
204.368
209.121
213.922
218.759
223.62
228.493
233.369
238.238
243.097
247.943
88.4306
88.4347
88.4433
88.4562
88.4738
88.4959
88.5227
88.5543
88.5908
88.6324
88.6791
88.7313
88.7891
88.8527
88.9223
88.9982
89.0808
89.1703
89.2671
89.3715
89.484
89.6049
89.7347
89.8739
90.0231
90.1827
90.3535
90.5359
90.7307
90.9387
91.1606
91.3972
91.6493
91.918
92.2042
92.509
92.8334
93.1786
93.546
93.9367
94.3522
94.7941
95.2638
95.763
96.2934
96.8569
97.4555
98.0912
98.7661
99.4826
100.243
101.05
101.905
102.813
103.775
104.795
105.876
107.021
108.233
109.516
110.874
112.31
113.828
115.432
117.126
118.915
120.801
122.79
124.884
127.089
129.408
131.845
134.404
137.087
139.898
142.84
145.914
149.122
152.466
155.945
159.558
163.306
167.184
171.19
175.318
179.564
183.92
188.378
192.93
197.564
202.271
207.038
211.854
216.706
221.583
226.472
231.364
236.247
241.119
245.977
86.4622
86.4663
86.4748
86.4877
86.5051
86.5271
86.5538
86.5852
86.6215
86.6629
86.7094
86.7612
86.8187
86.8819
86.9512
87.0267
87.1088
87.1978
87.2941
87.3979
87.5098
87.63
87.7591
87.8976
88.0459
88.2047
88.3745
88.556
88.7498
88.9566
89.1773
89.4126
89.6634
89.9307
90.2153
90.5184
90.8411
91.1845
91.5499
91.9386
92.3519
92.7915
93.2587
93.7553
94.283
94.8436
95.4391
96.0715
96.743
97.4559
98.2124
99.0152
99.8668
100.77
101.728
102.743
103.818
104.958
106.164
107.442
108.793
110.223
111.735
113.332
115.02
116.801
118.68
120.661
122.749
124.946
127.258
129.688
132.239
134.916
137.721
140.656
143.725
146.928
150.268
153.744
157.356
161.103
164.982
168.99
173.123
177.375
181.738
186.206
190.769
195.417
200.139
204.923
209.757
214.628
219.524
224.434
229.344
234.245
239.134
244.006
84.4927
84.4968
84.5052
84.518
84.5354
84.5572
84.5837
84.6149
84.651
84.692
84.7382
84.7898
84.8469
84.9097
84.9785
85.0535
85.1351
85.2235
85.3192
85.4223
85.5334
85.6529
85.7812
85.9188
86.0662
86.2239
86.3926
86.5729
86.7655
86.971
87.1903
87.4241
87.6733
87.9389
88.2217
88.5229
88.8436
89.1848
89.5479
89.9342
90.345
90.7818
91.2461
91.7396
92.2641
92.8213
93.4132
94.0418
94.7093
95.4179
96.17
96.968
97.8146
98.7126
99.6647
100.674
101.744
102.877
104.077
105.347
106.692
108.114
109.619
111.208
112.887
114.66
116.531
118.503
120.582
122.771
125.074
127.495
130.038
132.707
135.504
138.432
141.494
144.692
148.027
151.499
155.109
158.855
162.735
166.745
170.883
175.141
179.514
183.993
188.569
193.233
197.972
202.776
207.631
212.524
217.444
222.376
227.31
232.233
237.142
242.032
82.5221
82.5262
82.5345
82.5473
82.5644
82.5861
82.6124
82.6434
82.6792
82.7199
82.7658
82.8169
82.8736
82.9359
83.0042
83.0787
83.1597
83.2474
83.3423
83.4447
83.555
83.6736
83.8009
83.9375
84.0838
84.2404
84.4078
84.5868
84.7779
84.9819
85.1996
85.4317
85.6791
85.9427
86.2235
86.5225
86.8408
87.1796
87.5401
87.9235
88.3314
88.765
89.2261
89.7161
90.2368
90.7901
91.3779
92.0021
92.665
93.3687
94.1156
94.9082
95.7491
96.6411
97.5869
98.5896
99.6523
100.778
101.971
103.233
104.57
105.984
107.479
109.059
110.729
112.493
114.353
116.316
118.385
120.563
122.856
125.267
127.801
130.46
133.247
136.167
139.222
142.413
145.742
149.21
152.816
156.561
160.441
164.454
168.597
172.862
177.245
181.736
186.328
191.01
195.769
200.596
205.475
210.395
215.341
220.3
225.26
230.209
235.141
240.052
80.5504
80.5545
80.5627
80.5753
80.5924
80.6139
80.6399
80.6706
80.7061
80.7465
80.792
80.8427
80.8989
80.9607
81.0284
81.1022
81.1825
81.2695
81.3636
81.4652
81.5745
81.6921
81.8183
81.9537
82.0988
82.2541
82.4201
82.5976
82.7871
82.9894
83.2053
83.4354
83.6808
83.9422
84.2207
84.5172
84.8329
85.1689
85.5264
85.9067
86.3112
86.7413
87.1986
87.6847
88.2013
88.7501
89.3332
89.9525
90.6101
91.3083
92.0494
92.8359
93.6703
94.5555
95.4942
96.4895
97.5443
98.6621
99.8461
101.1
102.427
103.831
105.316
106.887
108.546
110.298
112.148
114.099
116.156
118.323
120.605
123.004
125.526
128.174
130.952
133.862
136.907
140.09
143.412
146.875
150.478
154.22
158.101
162.117
166.264
170.538
174.931
179.437
184.045
188.747
193.529
198.381
203.288
208.237
213.214
218.205
223.195
228.174
233.133
238.068
78.5777
78.5816
78.5898
78.6023
78.6192
78.6405
78.6663
78.6967
78.7319
78.7719
78.8169
78.8671
78.9227
78.9839
79.051
79.1241
79.2036
79.2898
79.383
79.4836
79.5919
79.7084
79.8334
79.9676
80.1113
80.2651
80.4295
80.6053
80.7931
80.9935
81.2073
81.4353
81.6784
81.9373
82.2132
82.507
82.8198
83.1527
83.5069
83.8837
84.2845
84.7107
85.1638
85.6455
86.1574
86.7013
87.2792
87.8929
88.5447
89.2368
89.9714
90.7511
91.5784
92.456
93.3867
94.3736
95.4198
96.5284
97.7028
98.9466
100.263
101.657
103.131
104.689
106.337
108.077
109.914
111.852
113.897
116.051
118.319
120.706
123.215
125.851
128.616
131.515
134.55
137.724
141.038
144.494
148.093
151.833
155.713
159.732
163.884
168.166
172.572
177.092
181.72
186.443
191.251
196.131
201.07
206.052
211.063
216.089
221.114
226.125
231.116
236.078
76.6038
76.6078
76.6159
76.6282
76.6449
76.666
76.6915
76.7216
76.7564
76.7959
76.8405
76.8902
76.9452
77.0057
77.0721
77.1444
77.2231
77.3084
77.4006
77.5001
77.6073
77.7225
77.8463
77.979
78.1212
78.2734
78.4361
78.6101
78.7959
78.9942
79.2058
79.4314
79.6719
79.9282
80.2013
80.492
80.8016
81.131
81.4816
81.8546
82.2513
82.6732
83.1217
83.5986
84.1053
84.6438
85.2159
85.8236
86.469
87.1543
87.8818
88.6539
89.4733
90.3425
91.2646
92.2423
93.2787
94.3772
95.5411
96.7739
98.0791
99.4606
100.922
102.468
104.102
105.829
107.652
109.576
111.606
113.746
115.999
118.372
120.867
123.488
126.241
129.127
132.15
135.313
138.619
142.067
145.66
149.397
153.277
157.298
161.456
165.747
170.165
174.702
179.35
184.098
188.934
193.845
198.818
203.836
208.886
213.951
219.015
224.064
229.089
234.082
74.6289
74.6328
74.6408
74.653
74.6695
74.6903
74.7156
74.7453
74.7797
74.8188
74.8628
74.9119
74.9663
75.0261
75.0917
75.1632
75.2409
75.3252
75.4164
75.5147
75.6206
75.7345
75.8568
75.988
76.1285
76.279
76.4399
76.6118
76.7955
76.9915
77.2007
77.4237
77.6615
77.9149
78.1848
78.4723
78.7783
79.104
79.4507
79.8195
80.2117
80.6289
81.0724
81.5439
82.0451
82.5777
83.1435
83.7446
84.3829
85.0608
85.7805
86.5444
87.3552
88.2153
89.1278
90.0954
91.1214
92.2088
93.3611
94.5818
95.8745
97.243
98.6911
100.223
101.842
103.554
105.362
107.271
109.285
111.408
113.646
116.002
118.481
121.088
123.825
126.697
129.707
132.859
136.153
139.593
143.18
146.913
150.792
154.814
158.978
163.279
167.71
172.265
176.934
181.708
186.575
191.521
196.531
201.59
206.682
211.79
216.898
221.988
227.052
232.079
72.653
72.6568
72.6647
72.6768
72.6931
72.7136
72.7385
72.7678
72.8018
72.8404
72.8838
72.9323
72.9859
73.045
73.1097
73.1803
73.2571
73.3403
73.4303
73.5274
73.632
73.7444
73.8652
73.9947
74.1334
74.282
74.4408
74.6106
74.792
74.9856
75.1921
75.4123
75.6472
75.8974
76.1639
76.4478
76.75
77.0717
77.4141
77.7783
78.1658
78.5778
79.016
79.4818
79.9768
80.503
81.062
81.6559
82.2867
82.9566
83.6678
84.4228
85.2242
86.0744
86.9765
87.9332
88.9477
90.0232
91.163
92.3706
93.6496
95.0038
96.4371
97.9536
99.5574
101.253
103.044
104.936
106.932
109.038
111.258
113.597
116.059
118.648
121.369
124.225
127.221
130.359
133.642
137.072
140.651
144.379
148.256
152.28
156.45
160.76
165.205
169.779
174.472
179.274
184.173
189.156
194.208
199.311
204.45
209.606
214.761
219.897
225.004
230.069
70.676
70.6798
70.6876
70.6995
70.7155
70.7358
70.7603
70.7892
70.8227
70.8607
70.9036
70.9514
71.0043
71.0625
71.1263
71.196
71.2716
71.3537
71.4424
71.5382
71.6413
71.7522
71.8713
71.999
72.1359
72.2824
72.4391
72.6065
72.7854
72.9763
73.18
73.3973
73.6289
73.8757
74.1386
74.4187
74.7168
75.0342
75.3719
75.7313
76.1136
76.5201
76.9524
77.4121
77.9006
78.4198
78.9716
79.5577
80.1804
80.8416
81.5438
82.2892
83.0804
83.92
84.8109
85.7559
86.758
87.8205
88.9468
90.1402
91.4045
92.7433
94.1607
95.6606
97.2472
98.9249
100.698
102.571
104.549
106.636
108.837
111.156
113.599
116.169
118.872
121.711
124.69
127.813
131.083
134.502
138.072
141.795
145.669
149.695
153.869
158.189
162.649
167.242
171.96
176.792
181.727
186.75
191.846
196.998
202.187
207.395
212.603
217.79
222.943
228.051
68.698
68.7017
68.7094
68.7211
68.7369
68.7569
68.781
68.8095
68.8424
68.8799
68.9221
68.9692
69.0213
69.0786
69.1415
69.21
69.2846
69.3654
69.4528
69.5471
69.6487
69.7579
69.8752
70.0011
70.1359
70.2802
70.4346
70.5995
70.7757
70.9638
71.1645
71.3786
71.6068
71.85
72.109
72.3849
72.6787
72.9915
73.3243
73.6784
74.0551
74.4558
74.8819
75.3349
75.8165
76.3283
76.8723
77.4501
78.064
78.7161
79.4085
80.1436
80.924
81.7522
82.6311
83.5634
84.5524
85.601
86.7127
87.8909
89.1393
90.4616
91.8618
93.3439
94.9121
96.5708
98.3244
100.178
102.135
104.201
106.381
108.68
111.102
113.652
116.334
119.154
122.116
125.222
128.477
131.883
135.443
139.159
143.029
147.055
151.235
155.564
160.039
164.653
169.397
174.261
179.234
184.3
189.444
194.648
199.893
205.158
210.422
215.665
220.87
226.023
66.719
66.7227
66.7302
66.7417
66.7573
66.7769
66.8007
66.8287
66.8611
66.8979
66.9394
66.9857
67.0369
67.0934
67.1552
67.2226
67.296
67.3755
67.4614
67.5542
67.6542
67.7616
67.8771
68.0009
68.1335
68.2755
68.4274
68.5897
68.7631
68.9482
69.1457
69.3563
69.5809
69.8202
70.0751
70.3467
70.6358
70.9436
71.2712
71.6198
71.9906
72.385
72.8045
73.2505
73.7246
74.2286
74.7642
75.3333
75.9378
76.58
77.262
77.9862
78.7551
79.5711
80.4372
81.3561
82.3309
83.3647
84.4609
85.6229
86.8543
88.1589
89.5407
91.0037
92.5521
94.1904
95.923
97.7547
99.69
101.734
103.891
106.167
108.567
111.095
113.756
116.555
119.496
122.584
125.823
129.215
132.763
136.47
140.336
144.362
148.545
152.884
157.374
162.009
166.78
171.679
176.691
181.804
186.999
192.259
197.564
202.891
208.217
213.52
218.782
223.985
64.739
64.7426
64.75
64.7614
64.7766
64.7959
64.8192
64.8467
64.8785
64.9147
64.9555
65.001
65.0513
65.1068
65.1675
65.2337
65.3058
65.3839
65.4684
65.5595
65.6577
65.7633
65.8768
65.9984
66.1288
66.2683
66.4175
66.5771
66.7475
66.9294
67.1235
67.3305
67.5512
67.7864
68.037
68.304
68.5882
68.8908
69.2128
69.5555
69.9201
70.3079
70.7203
71.1589
71.6251
72.1207
72.6475
73.2072
73.8019
74.4337
75.1047
75.8172
76.5738
77.377
78.2294
79.1341
80.0938
81.1119
82.1915
83.3362
84.5496
85.8353
87.1975
88.6401
90.1675
91.7839
93.4941
95.3026
97.2144
99.2344
101.368
103.619
105.994
108.498
111.135
113.912
116.831
119.899
123.119
126.495
130.031
133.728
137.588
141.612
145.799
150.147
154.652
159.308
164.109
169.042
174.097
179.258
184.509
189.83
195.198
200.592
205.986
211.355
216.678
221.935
62.7581
62.7616
62.7689
62.78
62.7949
62.8138
62.8367
62.8637
62.8949
62.9304
62.9704
63.015
63.0644
63.1188
63.1784
63.2434
63.3141
63.3907
63.4736
63.5631
63.6594
63.7631
63.8744
63.9938
64.1217
64.2586
64.4051
64.5617
64.729
64.9075
65.098
65.3012
65.5179
65.7488
65.9948
66.2568
66.5359
66.8329
67.1491
67.4856
67.8436
68.2244
68.6294
69.0601
69.518
70.0049
70.5223
71.0721
71.6564
72.2772
72.9365
73.6368
74.3804
75.1699
76.008
76.8975
77.8413
78.8427
79.9048
81.0312
82.2253
83.4911
84.8324
86.2534
87.7582
89.3515
91.0377
92.8216
94.7082
96.7025
98.8097
101.035
103.384
105.862
108.474
111.225
114.121
117.166
120.366
123.724
127.245
130.93
134.783
138.804
142.994
147.35
151.87
156.549
161.378
166.349
171.448
176.661
181.971
187.356
192.794
198.26
203.727
209.167
214.556
219.872
60.7762
60.7797
60.7868
60.7976
60.8123
60.8308
60.8532
60.8797
60.9102
60.945
60.9842
61.0279
61.0763
61.1295
61.1879
61.2516
61.3209
61.396
61.4772
61.5649
61.6593
61.7609
61.87
61.987
62.1124
62.2466
62.3902
62.5437
62.7076
62.8826
63.0694
63.2686
63.481
63.7073
63.9485
64.2054
64.479
64.7703
65.0803
65.4102
65.7613
66.1347
66.5319
66.9544
67.4036
67.8811
68.3887
68.9282
69.5015
70.1106
70.7577
71.445
72.175
72.9501
73.773
74.6465
75.5736
76.5573
77.6009
78.7079
79.8818
81.1264
82.4457
83.8437
85.3247
86.8933
88.554
90.3117
92.1715
94.1384
96.2178
98.415
100.736
103.185
105.77
108.494
111.364
114.386
117.563
120.901
124.404
128.076
131.92
135.937
140.128
144.492
149.027
153.727
158.587
163.596
168.742
174.009
179.381
184.835
190.347
195.891
201.436
206.954
212.415
217.795
58.7934
58.7968
58.8037
58.8143
58.8287
58.8468
58.8687
58.8946
58.9245
58.9585
58.9968
59.0395
59.0869
59.139
59.1961
59.2584
59.3262
59.3997
59.4792
59.565
59.6574
59.7568
59.8636
59.9781
60.1008
60.2322
60.3727
60.523
60.6834
60.8548
61.0376
61.2326
61.4405
61.6621
61.8982
62.1497
62.4176
62.7028
63.0064
63.3294
63.6732
64.039
64.428
64.8418
65.2818
65.7496
66.2469
66.7755
67.3372
67.9342
68.5684
69.2421
69.9577
70.7177
71.5246
72.3814
73.2908
74.2559
75.2801
76.3667
77.5192
78.7415
80.0374
81.4112
82.867
84.4094
86.0432
87.7731
89.6043
91.5421
93.5918
95.759
98.0496
100.469
103.024
105.719
108.561
111.556
114.708
118.024
121.508
125.165
128.997
133.008
137.199
141.57
146.119
150.841
155.731
160.779
165.974
171.299
176.736
182.263
187.855
193.482
199.112
204.713
210.254
215.703
56.8096
56.8129
56.8197
56.8301
56.8441
56.8618
56.8832
56.9085
56.9377
56.9709
57.0083
57.0501
57.0963
57.1472
57.203
57.2639
57.3301
57.4019
57.4796
57.5634
57.6537
57.7509
57.8552
57.9671
58.0871
58.2155
58.3528
58.4997
58.6565
58.824
59.0027
59.1933
59.3966
59.6132
59.844
60.0899
60.3518
60.6306
60.9275
61.2434
61.5796
61.9373
62.3178
62.7225
63.1528
63.6105
64.097
64.6142
65.1639
65.748
66.3688
67.0283
67.7288
68.4729
69.2632
70.1023
70.9932
71.9389
72.9426
74.0077
75.1378
76.3365
77.6079
78.9561
80.3854
81.9002
83.5054
85.206
87.0069
88.9137
90.9318
93.0671
95.3254
97.7127
100.235
102.899
105.711
108.676
111.802
115.093
118.555
122.194
126.013
130.017
134.206
138.582
143.144
147.888
152.808
157.897
163.141
168.526
174.033
179.638
185.313
191.03
196.752
202.443
208.068
213.592
54.825
54.8282
54.8349
54.845
54.8586
54.8759
54.8967
54.9214
54.9498
54.9822
55.0187
55.0594
55.1045
55.1542
55.2086
55.268
55.3326
55.4027
55.4784
55.5602
55.6483
55.7431
55.8449
55.9541
56.0712
56.1965
56.3305
56.4738
56.6269
56.7904
56.9648
57.1508
57.3492
57.5607
57.786
58.026
58.2817
58.5539
58.8437
59.1522
59.4804
59.8297
60.2013
60.5965
61.0169
61.4639
61.9392
62.4445
62.9816
63.5524
64.1591
64.8037
65.4885
66.2161
66.9888
67.8095
68.681
69.6063
70.5886
71.6312
72.7377
73.9118
75.1575
76.4788
77.8801
79.3659
80.941
82.6104
84.3794
86.2534
88.238
90.3393
92.5631
94.916
97.4042
100.034
102.813
105.747
108.842
112.106
115.545
119.163
122.967
126.96
131.145
135.525
140.098
144.863
149.814
154.944
160.24
165.687
171.267
176.953
182.719
188.531
194.351
200.14
205.857
211.462
52.8395
52.8427
52.8491
52.859
52.8722
52.889
52.9093
52.9333
52.961
52.9926
53.0281
53.0677
53.1116
53.16
53.213
53.2708
53.3337
53.402
53.4758
53.5554
53.6413
53.7336
53.8328
53.9392
54.0532
54.1753
54.3059
54.4455
54.5947
54.754
54.9239
55.1052
55.2986
55.5047
55.7243
55.9582
56.2074
56.4727
56.7552
57.0559
57.3759
57.7164
58.0787
58.4641
58.8741
59.31
59.7736
60.2665
60.7905
61.3475
61.9394
62.5686
63.237
63.9473
64.7018
65.5033
66.3545
67.2585
68.2184
69.2375
70.3194
71.4677
72.6863
73.9794
75.3513
76.8066
78.3501
79.9868
81.722
83.5613
85.5104
87.5755
89.7628
92.0788
94.5303
97.124
99.8671
102.767
105.83
109.063
112.475
116.07
119.855
123.835
128.015
132.396
136.979
141.764
146.745
151.916
157.265
162.777
168.433
174.206
180.067
185.98
191.906
197.8
203.617
209.31
50.8532
50.8562
50.8625
50.8721
50.885
50.9013
50.921
50.9443
50.9712
51.0019
51.0364
51.0749
51.1176
51.1646
51.2161
51.2724
51.3335
51.3999
51.4716
51.5491
51.6326
51.7224
51.8188
51.9223
52.0332
52.152
52.279
52.4148
52.5599
52.7149
52.8802
53.0566
53.2447
53.4452
53.6588
53.8865
54.1289
54.3871
54.662
54.9547
55.2661
55.5976
55.9502
56.3254
56.7245
57.149
57.6005
58.0805
58.5908
59.1334
59.7101
60.3231
60.9746
61.6668
62.4024
63.1838
64.014
64.8958
65.8323
66.8269
67.883
69.0043
70.1947
71.4583
72.7994
74.2227
75.7329
77.3352
79.0348
80.8375
82.7492
84.776
86.9244
89.2012
91.6134
94.168
96.8727
99.735
102.763
105.963
109.344
112.913
116.677
120.642
124.812
129.192
133.784
138.587
143.597
148.81
154.213
159.792
165.526
171.39
177.352
183.374
189.413
195.42
201.345
207.133
48.8661
48.869
48.8751
48.8844
48.8969
48.9127
48.9318
48.9544
48.9805
49.0103
49.0437
49.0811
49.1225
49.1681
49.2181
49.2727
49.332
49.3964
49.4661
49.5412
49.6223
49.7094
49.8031
49.9036
50.0112
50.1266
50.2499
50.3818
50.5227
50.6731
50.8337
51.005
51.1877
51.3824
51.5899
51.811
52.0465
52.2973
52.5643
52.8486
53.1512
53.4733
53.816
54.1806
54.5685
54.9811
55.4199
55.8866
56.3828
56.9104
57.4713
58.0676
58.7013
59.3749
60.0908
60.8514
61.6596
62.5183
63.4306
64.3996
65.4289
66.522
67.683
68.9157
70.2247
71.6145
73.0898
74.6559
76.3182
78.0824
79.9545
81.9408
84.048
86.2831
88.6533
91.1661
93.8295
96.6515
99.6403
102.804
106.152
109.691
113.43
117.376
121.534
125.911
130.508
135.327
140.366
145.62
151.077
156.724
162.541
168.5
174.568
180.706
186.866
192.996
199.037
204.929
46.8781
46.881
46.8869
46.8958
46.9079
46.9232
46.9418
46.9636
46.9889
47.0177
47.0501
47.0863
47.1264
47.1705
47.2189
47.2718
47.3293
47.3916
47.4591
47.5319
47.6104
47.6949
47.7856
47.883
47.9874
48.0991
48.2187
48.3465
48.483
48.6289
48.7845
48.9505
49.1276
49.3163
49.5175
49.7318
49.9601
50.2033
50.4622
50.7379
51.0314
51.3437
51.6761
52.0297
52.406
52.8063
53.2321
53.685
54.1666
54.6787
55.2233
55.8022
56.4176
57.0719
57.7673
58.5063
59.2918
60.1265
61.0135
61.956
62.9573
64.0212
65.1514
66.3521
67.6275
68.9822
70.4211
71.9493
73.5724
75.296
77.1264
79.07
81.1336
83.3244
85.6499
88.118
90.7371
93.5155
96.4622
99.5863
102.897
106.403
110.113
114.036
118.179
122.549
127.149
131.982
137.047
142.341
147.853
153.57
159.471
165.53
171.71
177.97
184.26
190.521
196.689
202.693
44.8894
44.8922
44.8979
44.9065
44.9182
44.933
44.9509
44.972
44.9964
45.0242
45.0555
45.0904
45.1292
45.1718
45.2186
45.2697
45.3253
45.3855
45.4508
45.5212
45.5971
45.6788
45.7665
45.8607
45.9616
46.0697
46.1853
46.3089
46.441
46.5821
46.7326
46.8932
47.0645
47.2471
47.4417
47.6491
47.87
48.1053
48.3558
48.6226
48.9066
49.2089
49.5307
49.8731
50.2374
50.625
51.0373
51.4759
51.9424
52.4386
52.9662
53.5272
54.1237
54.7579
55.4322
56.1489
56.9108
57.7207
58.5815
59.4964
60.4688
61.5022
62.6005
63.7677
65.0081
66.3263
67.7271
69.2157
70.7976
72.4788
74.2653
76.1639
78.1814
80.3252
82.6032
85.0236
87.595
90.3265
93.2275
96.3078
99.5773
103.046
106.724
110.62
114.744
119.102
123.702
128.546
133.636
138.968
144.534
150.322
156.31
162.472
168.771
175.16
181.588
187.991
194.295
200.422
42.9
42.9026
42.9081
42.9165
42.9277
42.9419
42.9592
42.9795
43.003
43.0298
43.06
43.0937
43.131
43.1721
43.2172
43.2665
43.3201
43.3782
43.4411
43.5091
43.5823
43.6611
43.7458
43.8366
43.934
44.0383
44.1499
44.2693
44.3967
44.5329
44.6782
44.8332
44.9986
45.1748
45.3627
45.5629
45.7762
46.0034
46.2453
46.5029
46.7772
47.0692
47.38
47.7107
48.0627
48.4372
48.8357
49.2596
49.7105
50.1902
50.7003
51.2429
51.8198
52.4333
53.0857
53.7794
54.5169
55.3011
56.1348
57.0211
57.9635
58.9654
60.0305
61.1629
62.3669
63.647
65.0081
66.4554
67.9943
69.6309
71.3714
73.2225
75.1914
77.2856
79.5131
81.8826
84.4031
87.0841
89.9356
92.9681
96.1923
99.6191
103.26
107.125
111.224
115.568
120.163
125.015
130.126
135.494
141.114
146.973
153.051
159.319
165.741
172.268
178.844
185.398
191.851
198.111
40.9098
40.9124
40.9176
40.9257
40.9365
40.9501
40.9667
40.9862
41.0088
41.0346
41.0636
41.096
41.1319
41.1714
41.2148
41.2622
41.3137
41.3697
41.4302
41.4956
41.5661
41.642
41.7235
41.8109
41.9047
42.0051
42.1126
42.2275
42.3503
42.4814
42.6213
42.7706
42.9298
43.0996
43.2806
43.4734
43.6788
43.8977
44.1308
44.379
44.6432
44.9246
45.2241
45.5429
45.8822
46.2432
46.6274
47.0362
47.4711
47.9338
48.4259
48.9494
49.5062
50.0985
50.7283
51.3981
52.1105
52.8681
53.6738
54.5306
55.4419
56.4111
57.4418
58.5382
59.7044
60.9449
62.2646
63.6687
65.1628
66.7528
68.445
70.2463
72.1639
74.2056
76.3797
78.695
81.161
83.7877
86.5857
89.5661
92.7405
96.1209
99.7194
103.548
107.619
111.942
116.528
121.383
126.512
131.915
137.586
143.516
149.684
156.063
162.614
169.286
176.018
182.736
189.348
195.753
38.919
38.9214
38.9265
38.9342
38.9445
38.9576
38.9735
38.9922
39.0139
39.0385
39.0663
39.0974
39.1318
39.1698
39.2114
39.2568
39.3063
39.36
39.4181
39.4809
39.5486
39.6214
39.6997
39.7837
39.8737
39.9702
40.0734
40.1838
40.3017
40.4276
40.5621
40.7055
40.8585
41.0215
41.1954
41.3807
41.578
41.7883
42.0123
42.2509
42.5049
42.7753
43.0633
43.3698
43.696
44.0433
44.4128
44.806
45.2245
45.6697
46.1433
46.6472
47.1833
47.7535
48.3602
49.0055
49.6919
50.4221
51.1989
52.0252
52.9044
53.8397
54.8349
55.8939
57.0209
58.2203
59.497
60.8562
62.3035
63.8447
65.4864
67.2354
69.0991
71.0855
73.203
75.4607
77.8686
80.4371
83.1773
86.1011
89.2208
92.5496
96.1007
99.8877
103.924
108.222
112.793
117.646
122.789
128.221
133.942
139.942
146.201
152.694
159.378
166.203
173.102
179.995
186.781
193.344
36.9275
36.9298
36.9346
36.942
36.9519
36.9644
36.9796
36.9974
37.0181
37.0417
37.0683
37.098
37.1309
37.1672
37.207
37.2505
37.2978
37.3492
37.4048
37.4649
37.5297
37.5994
37.6744
37.7549
37.8411
37.9335
38.0324
38.1381
38.2511
38.3717
38.5005
38.6379
38.7845
38.9407
39.1073
39.2848
39.474
39.6755
39.8902
40.1188
40.3623
40.6216
40.8976
41.1915
41.5044
41.8375
42.192
42.5692
42.9708
43.398
43.8527
44.3365
44.8512
45.3989
45.9817
46.6017
47.2615
47.9635
48.7104
49.5054
50.3514
51.2518
52.2102
53.2305
54.3169
55.4737
56.7058
58.0183
59.4168
60.9072
62.4961
64.1904
65.9974
67.9254
69.9831
72.1798
74.5258
77.0319
79.7099
82.5722
85.6321
88.9038
92.4017
96.1409
100.136
104.403
108.953
113.799
118.949
124.408
130.175
136.242
142.593
149.201
156.025
163.009
170.085
177.166
184.139
190.873
34.9354
34.9376
34.9422
34.9492
34.9586
34.9705
34.9849
35.002
35.0217
35.0441
35.0695
35.0977
35.1291
35.1637
35.2017
35.2431
35.2883
35.3373
35.3904
35.4478
35.5096
35.5762
35.6478
35.7246
35.807
35.8952
35.9896
36.0906
36.1985
36.3138
36.4368
36.568
36.708
36.8573
37.0164
37.186
37.3667
37.5593
37.7644
37.9829
38.2156
38.4634
38.7274
39.0084
39.3076
39.6261
39.9652
40.3261
40.7103
41.1192
41.5544
42.0175
42.5104
43.0349
43.5932
44.1873
44.8196
45.4926
46.2089
46.9714
47.7833
48.6477
49.5682
50.5485
51.5929
52.7056
53.8914
55.1554
56.5032
57.9408
59.4745
61.1114
62.8591
64.7258
66.7203
68.8524
71.1325
73.572
76.183
78.9787
81.9734
85.1819
88.6204
92.3052
96.2531
100.481
105.004
109.835
114.987
120.467
126.275
132.407
138.849
145.574
152.541
159.692
166.955
174.237
181.413
188.334
32.9426
32.9448
32.9491
32.9557
32.9647
32.976
32.9897
33.0058
33.0245
33.0458
33.0699
33.0967
33.1265
33.1594
33.1955
33.2349
33.2778
33.3244
33.3749
33.4295
33.4883
33.5517
33.6198
33.6929
33.7713
33.8553
33.9452
34.0414
34.1441
34.2538
34.371
34.4959
34.6292
34.7713
34.9229
35.0843
35.2564
35.4398
35.6352
35.8433
36.065
36.3012
36.5527
36.8205
37.1057
37.4094
37.7327
38.0769
38.4433
38.8334
39.2486
39.6906
40.1611
40.6619
41.195
41.7625
42.3666
43.0098
43.6947
44.4239
45.2006
46.0279
46.9093
47.8484
48.8494
49.9165
51.0544
52.2682
53.5633
54.9458
56.4221
57.9991
59.6846
61.4869
63.4149
65.4786
67.6888
70.0571
72.5962
75.3201
78.2436
81.3828
84.7549
88.3781
92.271
96.4522
100.94
105.75
110.896
116.389
122.234
128.427
134.957
141.799
148.913
156.238
163.698
171.195
178.59
185.715
30.9494
30.9514
30.9555
30.9617
30.9702
30.9809
30.9938
31.0091
31.0267
31.0469
31.0696
31.095
31.1232
31.1543
31.1884
31.2257
31.2664
31.3106
31.3584
31.4101
31.4659
31.526
31.5905
31.6599
31.7343
31.814
31.8993
31.9905
32.0879
32.192
32.3031
32.4217
32.5481
32.683
32.8267
32.98
33.1433
33.3173
33.5027
33.7003
33.9107
34.1349
34.3737
34.6281
34.899
35.1875
35.4947
35.8218
36.1701
36.5409
36.9358
37.3562
37.8037
38.2802
38.7876
39.3278
39.903
40.5157
41.1682
41.8632
42.6038
43.393
44.2341
45.1308
46.087
47.107
48.1953
49.3571
50.5977
51.9229
53.3394
54.854
56.4745
58.2092
60.0672
62.0588
64.1948
66.4873
68.9495
71.5958
74.4419
77.505
80.8035
84.3573
88.1869
92.3132
96.7565
101.536
106.669
112.167
118.041
124.29
130.905
137.864
145.127
152.632
160.3
168.025
175.656
183.002
28.9555
28.9574
28.9613
28.9672
28.9751
28.9852
28.9973
29.0117
29.0283
29.0472
29.0686
29.0926
29.1191
29.1484
29.1806
29.2158
29.2541
29.2958
29.3409
29.3897
29.4424
29.4991
29.5601
29.6256
29.6959
29.7712
29.8518
29.938
30.0301
30.1284
30.2334
30.3454
30.4649
30.5924
30.7282
30.873
31.0273
31.1918
31.3671
31.5539
31.7529
31.9649
32.1908
32.4314
32.6877
32.9607
33.2514
33.5611
33.8909
34.2421
34.6161
35.0144
35.4385
35.8902
36.3712
36.8835
37.4292
38.0105
38.6299
39.2899
39.9934
40.7434
41.5431
42.3961
43.3063
44.2777
45.3149
46.4228
47.6068
48.8728
50.2271
51.6767
53.2292
54.8932
56.6777
58.5932
60.6507
62.8626
65.2426
67.8054
70.5677
73.5475
76.7646
80.2405
83.9977
88.0596
92.4491
97.1882
102.297
107.792
113.686
119.984
126.679
133.753
141.167
148.858
156.743
164.711
172.595
180.182
26.9612
26.963
26.9666
26.9721
26.9796
26.9889
27.0003
27.0137
27.0293
27.047
27.067
27.0895
27.1143
27.1418
27.172
27.205
27.241
27.2801
27.3225
27.3683
27.4178
27.4712
27.5285
27.5901
27.6562
27.7271
27.8029
27.8839
27.9706
28.0631
28.1619
28.2673
28.3797
28.4996
28.6274
28.7636
28.9088
29.0636
29.2285
29.4043
29.5917
29.7913
30.004
30.2306
30.472
30.7292
31.0032
31.2951
31.606
31.9372
32.29
32.6657
33.0659
33.4922
33.9463
34.4301
34.9456
35.4949
36.0803
36.7044
37.3699
38.0797
38.8369
39.645
40.5078
41.4292
42.4136
43.466
44.5916
45.7961
47.0858
48.4677
49.9495
51.5395
53.247
55.0824
57.057
59.1834
61.4755
63.9488
66.6204
69.5092
72.6365
76.0254
79.7004
83.6875
88.0124
92.7
97.7738
103.255
109.159
115.496