/*--------------------------------*- C++ -*----------------------------------*\
| =========                 |                                                 |
| \\      /  F ield         | OpenFOAM: The Open Source CFD Toolbox           |
|  \\    /   O peration     | Version:  2.4.0                                 |
|   \\  /    A nd           | Web:      www.OpenFOAM.org                      |
|    \\/     M anipulation  |                                                 |
\*---------------------------------------------------------------------------*/
FoamFile
{
    version     2.0;
    format      ascii;
    class       volScalarField;
    location    "0.094";
    object      p;
}
// * * * * * * * * * * * * * * * * * * * * * * * * * * * * * * * * * * * * * //

dimensions      [1 -1 -2 0 0 0 0];

internalField   nonuniform List<scalar> 
60000
(
97.1057
97.1057
97.1057
97.1057
97.1057
97.1057
97.1057
97.1057
97.1057
97.1058
97.1058
97.1058
97.1058
97.1058
97.1059
97.1059
97.1059
97.106
97.106
97.106
97.1061
97.1061
97.1061
97.1062
97.1062
97.1062
97.1063
97.1063
97.1063
97.1064
97.1064
97.1064
97.1065
97.1065
97.1065
97.1065
97.1066
97.1066
97.1066
97.1065
97.1065
97.1065
97.1064
97.1064
97.1063
97.1062
97.1061
97.106
97.1059
97.1058
97.1056
97.1055
97.1053
97.1051
97.105
97.1048
97.1046
97.1044
97.1042
97.104
97.1038
97.1036
97.1034
97.1031
97.1029
97.1027
97.1025
97.1023
97.1021
97.102
97.1018
97.1016
97.1014
97.1013
97.1011
97.1009
97.1008
97.1006
97.1005
97.1003
97.1002
97.1001
97.1
97.0998
97.0997
97.0996
97.0996
97.0995
97.0994
97.0994
97.0993
97.0993
97.0993
97.0993
97.0993
97.0993
97.0993
97.0994
97.0994
97.0995
95.1437
95.1437
95.1437
95.1437
95.1437
95.1437
95.1437
95.1437
95.1437
95.1438
95.1438
95.1438
95.1438
95.1438
95.1439
95.1439
95.1439
95.144
95.144
95.144
95.1441
95.1441
95.1441
95.1442
95.1442
95.1442
95.1443
95.1443
95.1443
95.1444
95.1444
95.1444
95.1445
95.1445
95.1445
95.1445
95.1446
95.1446
95.1446
95.1445
95.1445
95.1445
95.1444
95.1444
95.1443
95.1442
95.1441
95.144
95.1439
95.1438
95.1436
95.1435
95.1433
95.1431
95.143
95.1428
95.1426
95.1424
95.1422
95.142
95.1418
95.1416
95.1414
95.1411
95.1409
95.1407
95.1405
95.1403
95.1401
95.14
95.1398
95.1396
95.1394
95.1392
95.1391
95.1389
95.1388
95.1386
95.1385
95.1383
95.1382
95.1381
95.138
95.1378
95.1377
95.1376
95.1376
95.1375
95.1374
95.1374
95.1373
95.1373
95.1373
95.1373
95.1373
95.1373
95.1373
95.1374
95.1374
95.1375
93.1817
93.1817
93.1817
93.1817
93.1817
93.1817
93.1817
93.1817
93.1817
93.1818
93.1818
93.1818
93.1818
93.1818
93.1819
93.1819
93.1819
93.182
93.182
93.182
93.1821
93.1821
93.1821
93.1822
93.1822
93.1822
93.1823
93.1823
93.1823
93.1824
93.1824
93.1825
93.1825
93.1825
93.1825
93.1826
93.1826
93.1826
93.1826
93.1825
93.1825
93.1825
93.1824
93.1824
93.1823
93.1822
93.1821
93.182
93.1819
93.1818
93.1816
93.1815
93.1813
93.1811
93.181
93.1808
93.1806
93.1804
93.1802
93.18
93.1798
93.1796
93.1793
93.1791
93.1789
93.1787
93.1785
93.1783
93.1781
93.178
93.1778
93.1776
93.1774
93.1772
93.1771
93.1769
93.1768
93.1766
93.1765
93.1763
93.1762
93.1761
93.1759
93.1758
93.1757
93.1756
93.1755
93.1755
93.1754
93.1754
93.1753
93.1753
93.1753
93.1753
93.1753
93.1753
93.1753
93.1754
93.1754
93.1755
91.2197
91.2197
91.2197
91.2197
91.2197
91.2197
91.2197
91.2197
91.2197
91.2198
91.2198
91.2198
91.2198
91.2198
91.2199
91.2199
91.2199
91.22
91.22
91.22
91.22
91.2201
91.2201
91.2202
91.2202
91.2202
91.2203
91.2203
91.2203
91.2204
91.2204
91.2205
91.2205
91.2205
91.2205
91.2206
91.2206
91.2206
91.2206
91.2206
91.2205
91.2205
91.2204
91.2204
91.2203
91.2202
91.2201
91.22
91.2199
91.2198
91.2196
91.2195
91.2193
91.2191
91.219
91.2188
91.2186
91.2184
91.2182
91.218
91.2178
91.2176
91.2173
91.2171
91.2169
91.2167
91.2165
91.2163
91.2161
91.2159
91.2158
91.2156
91.2154
91.2152
91.2151
91.2149
91.2148
91.2146
91.2145
91.2143
91.2142
91.2141
91.2139
91.2138
91.2137
91.2136
91.2135
91.2135
91.2134
91.2133
91.2133
91.2133
91.2133
91.2133
91.2133
91.2133
91.2133
91.2134
91.2134
91.2135
89.2577
89.2577
89.2577
89.2577
89.2577
89.2577
89.2577
89.2577
89.2577
89.2577
89.2578
89.2578
89.2578
89.2578
89.2579
89.2579
89.2579
89.258
89.258
89.258
89.258
89.2581
89.2581
89.2582
89.2582
89.2582
89.2583
89.2583
89.2583
89.2584
89.2584
89.2585
89.2585
89.2585
89.2585
89.2586
89.2586
89.2586
89.2586
89.2586
89.2585
89.2585
89.2585
89.2584
89.2583
89.2582
89.2581
89.258
89.2579
89.2578
89.2576
89.2575
89.2573
89.2571
89.257
89.2568
89.2566
89.2564
89.2562
89.256
89.2558
89.2556
89.2553
89.2551
89.2549
89.2547
89.2545
89.2543
89.2541
89.2539
89.2538
89.2536
89.2534
89.2532
89.2531
89.2529
89.2528
89.2526
89.2525
89.2523
89.2522
89.2521
89.2519
89.2518
89.2517
89.2516
89.2515
89.2515
89.2514
89.2513
89.2513
89.2513
89.2512
89.2512
89.2513
89.2513
89.2513
89.2514
89.2514
89.2515
87.2957
87.2957
87.2957
87.2957
87.2957
87.2957
87.2957
87.2957
87.2957
87.2957
87.2958
87.2958
87.2958
87.2958
87.2959
87.2959
87.2959
87.2959
87.296
87.296
87.296
87.2961
87.2961
87.2961
87.2962
87.2962
87.2963
87.2963
87.2963
87.2964
87.2964
87.2965
87.2965
87.2965
87.2965
87.2966
87.2966
87.2966
87.2966
87.2966
87.2965
87.2965
87.2965
87.2964
87.2963
87.2963
87.2962
87.2961
87.2959
87.2958
87.2956
87.2955
87.2953
87.2952
87.295
87.2948
87.2946
87.2944
87.2942
87.294
87.2938
87.2935
87.2933
87.2931
87.2929
87.2927
87.2925
87.2923
87.2921
87.2919
87.2918
87.2916
87.2914
87.2912
87.2911
87.2909
87.2907
87.2906
87.2905
87.2903
87.2902
87.29
87.2899
87.2898
87.2897
87.2896
87.2895
87.2894
87.2894
87.2893
87.2893
87.2892
87.2892
87.2892
87.2892
87.2893
87.2893
87.2893
87.2894
87.2895
85.3336
85.3336
85.3337
85.3337
85.3337
85.3337
85.3337
85.3337
85.3337
85.3337
85.3338
85.3338
85.3338
85.3338
85.3339
85.3339
85.3339
85.3339
85.334
85.334
85.334
85.3341
85.3341
85.3341
85.3342
85.3342
85.3343
85.3343
85.3343
85.3344
85.3344
85.3345
85.3345
85.3345
85.3346
85.3346
85.3346
85.3346
85.3346
85.3346
85.3346
85.3345
85.3345
85.3344
85.3344
85.3343
85.3342
85.3341
85.3339
85.3338
85.3337
85.3335
85.3333
85.3332
85.333
85.3328
85.3326
85.3324
85.3322
85.332
85.3318
85.3315
85.3313
85.3311
85.3309
85.3307
85.3305
85.3303
85.3301
85.3299
85.3297
85.3296
85.3294
85.3292
85.3291
85.3289
85.3287
85.3286
85.3284
85.3283
85.3282
85.328
85.3279
85.3278
85.3277
85.3276
85.3275
85.3274
85.3274
85.3273
85.3273
85.3272
85.3272
85.3272
85.3272
85.3272
85.3273
85.3273
85.3274
85.3275
83.3716
83.3716
83.3716
83.3717
83.3717
83.3717
83.3717
83.3717
83.3717
83.3717
83.3718
83.3718
83.3718
83.3718
83.3719
83.3719
83.3719
83.3719
83.372
83.372
83.372
83.3721
83.3721
83.3721
83.3722
83.3722
83.3723
83.3723
83.3723
83.3724
83.3724
83.3725
83.3725
83.3725
83.3726
83.3726
83.3726
83.3726
83.3726
83.3726
83.3726
83.3725
83.3725
83.3724
83.3724
83.3723
83.3722
83.3721
83.372
83.3718
83.3717
83.3715
83.3713
83.3712
83.371
83.3708
83.3706
83.3704
83.3702
83.37
83.3698
83.3695
83.3693
83.3691
83.3689
83.3687
83.3685
83.3683
83.3681
83.3679
83.3677
83.3676
83.3674
83.3672
83.367
83.3669
83.3667
83.3666
83.3664
83.3663
83.3662
83.366
83.3659
83.3658
83.3657
83.3656
83.3655
83.3654
83.3653
83.3653
83.3652
83.3652
83.3652
83.3652
83.3652
83.3652
83.3653
83.3653
83.3654
83.3655
81.4096
81.4096
81.4096
81.4096
81.4097
81.4097
81.4097
81.4097
81.4097
81.4097
81.4098
81.4098
81.4098
81.4098
81.4099
81.4099
81.4099
81.4099
81.41
81.41
81.41
81.4101
81.4101
81.4101
81.4102
81.4102
81.4103
81.4103
81.4103
81.4104
81.4104
81.4105
81.4105
81.4105
81.4106
81.4106
81.4106
81.4106
81.4106
81.4106
81.4106
81.4106
81.4105
81.4105
81.4104
81.4103
81.4102
81.4101
81.41
81.4098
81.4097
81.4095
81.4094
81.4092
81.409
81.4088
81.4086
81.4084
81.4082
81.408
81.4078
81.4075
81.4073
81.4071
81.4069
81.4067
81.4065
81.4063
81.4061
81.4059
81.4057
81.4055
81.4054
81.4052
81.405
81.4049
81.4047
81.4046
81.4044
81.4043
81.4041
81.404
81.4039
81.4038
81.4037
81.4036
81.4035
81.4034
81.4033
81.4033
81.4032
81.4032
81.4032
81.4032
81.4032
81.4032
81.4032
81.4033
81.4034
81.4034
79.4476
79.4476
79.4476
79.4476
79.4476
79.4477
79.4477
79.4477
79.4477
79.4477
79.4477
79.4478
79.4478
79.4478
79.4478
79.4479
79.4479
79.4479
79.448
79.448
79.448
79.4481
79.4481
79.4481
79.4482
79.4482
79.4483
79.4483
79.4483
79.4484
79.4484
79.4485
79.4485
79.4485
79.4486
79.4486
79.4486
79.4486
79.4486
79.4486
79.4486
79.4486
79.4485
79.4485
79.4484
79.4483
79.4482
79.4481
79.448
79.4479
79.4477
79.4475
79.4474
79.4472
79.447
79.4468
79.4466
79.4464
79.4462
79.446
79.4458
79.4455
79.4453
79.4451
79.4449
79.4447
79.4445
79.4443
79.4441
79.4439
79.4437
79.4435
79.4434
79.4432
79.443
79.4429
79.4427
79.4426
79.4424
79.4423
79.4421
79.442
79.4419
79.4417
79.4416
79.4415
79.4414
79.4414
79.4413
79.4412
79.4412
79.4412
79.4411
79.4411
79.4412
79.4412
79.4412
79.4413
79.4413
79.4414
77.4856
77.4856
77.4856
77.4856
77.4856
77.4857
77.4857
77.4857
77.4857
77.4857
77.4857
77.4858
77.4858
77.4858
77.4858
77.4859
77.4859
77.4859
77.486
77.486
77.486
77.4861
77.4861
77.4861
77.4862
77.4862
77.4862
77.4863
77.4863
77.4864
77.4864
77.4865
77.4865
77.4866
77.4866
77.4866
77.4866
77.4867
77.4867
77.4867
77.4866
77.4866
77.4866
77.4865
77.4865
77.4864
77.4863
77.4862
77.486
77.4859
77.4857
77.4856
77.4854
77.4852
77.485
77.4848
77.4846
77.4844
77.4842
77.484
77.4837
77.4835
77.4833
77.4831
77.4829
77.4827
77.4825
77.4823
77.4821
77.4819
77.4817
77.4815
77.4813
77.4812
77.481
77.4808
77.4807
77.4805
77.4804
77.4802
77.4801
77.48
77.4798
77.4797
77.4796
77.4795
77.4794
77.4793
77.4793
77.4792
77.4792
77.4791
77.4791
77.4791
77.4791
77.4791
77.4792
77.4792
77.4793
77.4794
75.5236
75.5236
75.5236
75.5236
75.5236
75.5236
75.5237
75.5237
75.5237
75.5237
75.5237
75.5238
75.5238
75.5238
75.5238
75.5239
75.5239
75.5239
75.524
75.524
75.524
75.5241
75.5241
75.5241
75.5242
75.5242
75.5242
75.5243
75.5243
75.5244
75.5244
75.5245
75.5245
75.5246
75.5246
75.5246
75.5247
75.5247
75.5247
75.5247
75.5247
75.5246
75.5246
75.5246
75.5245
75.5244
75.5243
75.5242
75.5241
75.5239
75.5238
75.5236
75.5234
75.5232
75.523
75.5228
75.5226
75.5224
75.5222
75.522
75.5217
75.5215
75.5213
75.5211
75.5209
75.5207
75.5205
75.5202
75.5201
75.5199
75.5197
75.5195
75.5193
75.5192
75.519
75.5188
75.5187
75.5185
75.5184
75.5182
75.5181
75.518
75.5178
75.5177
75.5176
75.5175
75.5174
75.5173
75.5172
75.5172
75.5171
75.5171
75.5171
75.5171
75.5171
75.5171
75.5172
75.5172
75.5173
75.5174
73.5616
73.5616
73.5616
73.5616
73.5616
73.5616
73.5616
73.5617
73.5617
73.5617
73.5617
73.5617
73.5618
73.5618
73.5618
73.5619
73.5619
73.5619
73.5619
73.562
73.562
73.562
73.5621
73.5621
73.5622
73.5622
73.5622
73.5623
73.5623
73.5624
73.5624
73.5625
73.5625
73.5626
73.5626
73.5626
73.5627
73.5627
73.5627
73.5627
73.5627
73.5627
73.5626
73.5626
73.5625
73.5624
73.5623
73.5622
73.5621
73.5619
73.5618
73.5616
73.5614
73.5612
73.561
73.5608
73.5606
73.5604
73.5602
73.56
73.5597
73.5595
73.5593
73.5591
73.5589
73.5586
73.5584
73.5582
73.558
73.5578
73.5577
73.5575
73.5573
73.5571
73.557
73.5568
73.5567
73.5565
73.5564
73.5562
73.5561
73.5559
73.5558
73.5557
73.5556
73.5555
73.5554
73.5553
73.5552
73.5551
73.5551
73.5551
73.555
73.555
73.555
73.5551
73.5551
73.5552
73.5553
73.5553
71.5996
71.5996
71.5996
71.5996
71.5996
71.5996
71.5996
71.5996
71.5997
71.5997
71.5997
71.5997
71.5998
71.5998
71.5998
71.5998
71.5999
71.5999
71.5999
71.6
71.6
71.6
71.6001
71.6001
71.6001
71.6002
71.6002
71.6003
71.6003
71.6004
71.6004
71.6005
71.6005
71.6006
71.6006
71.6007
71.6007
71.6007
71.6007
71.6007
71.6007
71.6007
71.6007
71.6006
71.6006
71.6005
71.6004
71.6003
71.6001
71.6
71.5998
71.5996
71.5995
71.5993
71.5991
71.5989
71.5986
71.5984
71.5982
71.598
71.5977
71.5975
71.5973
71.5971
71.5968
71.5966
71.5964
71.5962
71.596
71.5958
71.5956
71.5955
71.5953
71.5951
71.595
71.5948
71.5946
71.5945
71.5943
71.5942
71.594
71.5939
71.5938
71.5937
71.5935
71.5934
71.5933
71.5932
71.5932
71.5931
71.593
71.593
71.593
71.593
71.593
71.593
71.5931
71.5931
71.5932
71.5933
69.6376
69.6376
69.6376
69.6376
69.6376
69.6376
69.6376
69.6376
69.6377
69.6377
69.6377
69.6377
69.6378
69.6378
69.6378
69.6378
69.6379
69.6379
69.6379
69.638
69.638
69.638
69.6381
69.6381
69.6381
69.6382
69.6382
69.6383
69.6383
69.6384
69.6384
69.6385
69.6385
69.6386
69.6386
69.6387
69.6387
69.6388
69.6388
69.6388
69.6388
69.6388
69.6387
69.6387
69.6386
69.6385
69.6384
69.6383
69.6382
69.638
69.6378
69.6377
69.6375
69.6373
69.6371
69.6369
69.6367
69.6364
69.6362
69.636
69.6357
69.6355
69.6353
69.6351
69.6348
69.6346
69.6344
69.6342
69.634
69.6338
69.6336
69.6334
69.6333
69.6331
69.6329
69.6328
69.6326
69.6325
69.6323
69.6322
69.632
69.6319
69.6318
69.6316
69.6315
69.6314
69.6313
69.6312
69.6311
69.6311
69.631
69.631
69.6309
69.6309
69.631
69.631
69.631
69.6311
69.6312
69.6313
67.6756
67.6756
67.6756
67.6756
67.6756
67.6756
67.6756
67.6756
67.6756
67.6757
67.6757
67.6757
67.6757
67.6758
67.6758
67.6758
67.6759
67.6759
67.6759
67.676
67.676
67.676
67.6761
67.6761
67.6761
67.6762
67.6762
67.6763
67.6763
67.6764
67.6764
67.6765
67.6765
67.6766
67.6767
67.6767
67.6767
67.6768
67.6768
67.6768
67.6768
67.6768
67.6768
67.6767
67.6766
67.6766
67.6765
67.6763
67.6762
67.6761
67.6759
67.6757
67.6755
67.6753
67.6751
67.6749
67.6747
67.6744
67.6742
67.674
67.6737
67.6735
67.6733
67.673
67.6728
67.6726
67.6724
67.6722
67.672
67.6718
67.6716
67.6714
67.6712
67.6711
67.6709
67.6708
67.6706
67.6704
67.6703
67.6701
67.67
67.6699
67.6697
67.6696
67.6695
67.6694
67.6692
67.6692
67.6691
67.669
67.669
67.6689
67.6689
67.6689
67.6689
67.6689
67.669
67.6691
67.6691
67.6692
65.7136
65.7136
65.7136
65.7136
65.7136
65.7136
65.7136
65.7136
65.7136
65.7137
65.7137
65.7137
65.7137
65.7138
65.7138
65.7138
65.7139
65.7139
65.7139
65.7139
65.714
65.714
65.714
65.7141
65.7141
65.7142
65.7142
65.7143
65.7143
65.7144
65.7144
65.7145
65.7146
65.7146
65.7147
65.7147
65.7148
65.7148
65.7148
65.7149
65.7149
65.7148
65.7148
65.7148
65.7147
65.7146
65.7145
65.7144
65.7142
65.7141
65.7139
65.7137
65.7135
65.7133
65.7131
65.7129
65.7127
65.7124
65.7122
65.712
65.7117
65.7115
65.7113
65.711
65.7108
65.7106
65.7104
65.7102
65.71
65.7098
65.7096
65.7094
65.7092
65.7091
65.7089
65.7087
65.7086
65.7084
65.7083
65.7081
65.708
65.7078
65.7077
65.7076
65.7074
65.7073
65.7072
65.7071
65.707
65.707
65.7069
65.7069
65.7068
65.7068
65.7069
65.7069
65.7069
65.707
65.7071
65.7072
63.7515
63.7515
63.7515
63.7515
63.7516
63.7516
63.7516
63.7516
63.7516
63.7516
63.7517
63.7517
63.7517
63.7518
63.7518
63.7518
63.7518
63.7519
63.7519
63.7519
63.752
63.752
63.752
63.7521
63.7521
63.7521
63.7522
63.7522
63.7523
63.7524
63.7524
63.7525
63.7526
63.7526
63.7527
63.7528
63.7528
63.7529
63.7529
63.7529
63.7529
63.7529
63.7529
63.7528
63.7528
63.7527
63.7526
63.7524
63.7523
63.7521
63.752
63.7518
63.7516
63.7514
63.7512
63.7509
63.7507
63.7505
63.7502
63.75
63.7497
63.7495
63.7492
63.749
63.7488
63.7486
63.7483
63.7481
63.7479
63.7477
63.7475
63.7474
63.7472
63.747
63.7469
63.7467
63.7466
63.7464
63.7463
63.7461
63.746
63.7458
63.7457
63.7455
63.7454
63.7453
63.7452
63.7451
63.745
63.7449
63.7448
63.7448
63.7448
63.7448
63.7448
63.7448
63.7449
63.745
63.7451
63.7452
61.7895
61.7895
61.7895
61.7895
61.7895
61.7896
61.7896
61.7896
61.7896
61.7896
61.7897
61.7897
61.7897
61.7897
61.7898
61.7898
61.7898
61.7899
61.7899
61.7899
61.79
61.79
61.79
61.7901
61.7901
61.7901
61.7902
61.7902
61.7903
61.7904
61.7904
61.7905
61.7906
61.7906
61.7907
61.7908
61.7908
61.7909
61.7909
61.791
61.791
61.791
61.7909
61.7909
61.7908
61.7907
61.7906
61.7905
61.7903
61.7902
61.79
61.7898
61.7896
61.7894
61.7892
61.789
61.7887
61.7885
61.7882
61.788
61.7877
61.7875
61.7872
61.787
61.7868
61.7865
61.7863
61.7861
61.7859
61.7857
61.7855
61.7853
61.7852
61.785
61.7849
61.7847
61.7845
61.7844
61.7842
61.7841
61.7839
61.7838
61.7836
61.7835
61.7834
61.7832
61.7831
61.783
61.7829
61.7828
61.7828
61.7827
61.7827
61.7827
61.7827
61.7828
61.7828
61.7829
61.783
61.7831
59.8275
59.8275
59.8275
59.8275
59.8275
59.8275
59.8275
59.8276
59.8276
59.8276
59.8276
59.8277
59.8277
59.8277
59.8278
59.8278
59.8278
59.8279
59.8279
59.8279
59.8279
59.828
59.828
59.828
59.8281
59.8281
59.8282
59.8282
59.8283
59.8283
59.8284
59.8285
59.8286
59.8287
59.8287
59.8288
59.8289
59.8289
59.829
59.829
59.829
59.829
59.829
59.8289
59.8289
59.8288
59.8287
59.8286
59.8284
59.8282
59.8281
59.8279
59.8277
59.8274
59.8272
59.827
59.8267
59.8265
59.8262
59.826
59.8257
59.8255
59.8252
59.825
59.8247
59.8245
59.8243
59.8241
59.8239
59.8237
59.8235
59.8233
59.8231
59.823
59.8228
59.8227
59.8225
59.8224
59.8222
59.8221
59.8219
59.8217
59.8216
59.8215
59.8213
59.8212
59.8211
59.8209
59.8208
59.8208
59.8207
59.8207
59.8206
59.8206
59.8207
59.8207
59.8208
59.8208
59.8209
59.8211
57.8655
57.8655
57.8655
57.8655
57.8655
57.8655
57.8655
57.8655
57.8656
57.8656
57.8656
57.8657
57.8657
57.8657
57.8658
57.8658
57.8658
57.8659
57.8659
57.8659
57.8659
57.866
57.866
57.866
57.8661
57.8661
57.8661
57.8662
57.8663
57.8663
57.8664
57.8665
57.8666
57.8667
57.8668
57.8668
57.8669
57.867
57.867
57.8671
57.8671
57.8671
57.8671
57.867
57.8669
57.8669
57.8667
57.8666
57.8665
57.8663
57.8661
57.8659
57.8657
57.8655
57.8652
57.865
57.8647
57.8645
57.8642
57.864
57.8637
57.8635
57.8632
57.8629
57.8627
57.8625
57.8622
57.862
57.8618
57.8616
57.8615
57.8613
57.8611
57.861
57.8608
57.8607
57.8605
57.8603
57.8602
57.86
57.8599
57.8597
57.8596
57.8594
57.8593
57.8591
57.859
57.8589
57.8588
57.8587
57.8586
57.8586
57.8586
57.8586
57.8586
57.8586
57.8587
57.8588
57.8589
57.859
55.9035
55.9035
55.9035
55.9035
55.9035
55.9035
55.9035
55.9035
55.9036
55.9036
55.9036
55.9036
55.9037
55.9037
55.9037
55.9038
55.9038
55.9038
55.9039
55.9039
55.9039
55.904
55.904
55.904
55.904
55.9041
55.9041
55.9042
55.9043
55.9043
55.9044
55.9045
55.9046
55.9047
55.9048
55.9049
55.9049
55.905
55.9051
55.9051
55.9051
55.9051
55.9051
55.9051
55.905
55.9049
55.9048
55.9047
55.9045
55.9044
55.9042
55.904
55.9037
55.9035
55.9033
55.903
55.9028
55.9025
55.9022
55.902
55.9017
55.9014
55.9012
55.9009
55.9007
55.9004
55.9002
55.9
55.8998
55.8996
55.8994
55.8993
55.8991
55.8989
55.8988
55.8986
55.8985
55.8983
55.8982
55.898
55.8978
55.8977
55.8975
55.8974
55.8972
55.8971
55.8969
55.8968
55.8967
55.8966
55.8966
55.8965
55.8965
55.8965
55.8965
55.8966
55.8966
55.8967
55.8968
55.8969
53.9415
53.9415
53.9415
53.9415
53.9415
53.9415
53.9415
53.9415
53.9415
53.9416
53.9416
53.9416
53.9417
53.9417
53.9417
53.9418
53.9418
53.9418
53.9419
53.9419
53.9419
53.9419
53.942
53.942
53.942
53.9421
53.9421
53.9422
53.9422
53.9423
53.9424
53.9425
53.9426
53.9427
53.9428
53.9429
53.943
53.9431
53.9431
53.9432
53.9432
53.9432
53.9432
53.9432
53.9431
53.943
53.9429
53.9428
53.9426
53.9424
53.9422
53.942
53.9418
53.9416
53.9413
53.9411
53.9408
53.9405
53.9403
53.94
53.9397
53.9394
53.9392
53.9389
53.9386
53.9384
53.9382
53.938
53.9378
53.9376
53.9374
53.9372
53.9371
53.9369
53.9368
53.9366
53.9365
53.9363
53.9361
53.936
53.9358
53.9357
53.9355
53.9353
53.9352
53.935
53.9349
53.9348
53.9346
53.9345
53.9345
53.9344
53.9344
53.9344
53.9344
53.9345
53.9345
53.9346
53.9348
53.9349
51.9794
51.9794
51.9794
51.9794
51.9794
51.9795
51.9795
51.9795
51.9795
51.9795
51.9796
51.9796
51.9796
51.9797
51.9797
51.9798
51.9798
51.9798
51.9799
51.9799
51.9799
51.9799
51.9799
51.98
51.98
51.98
51.9801
51.9801
51.9802
51.9803
51.9804
51.9805
51.9806
51.9807
51.9808
51.9809
51.981
51.9811
51.9812
51.9812
51.9813
51.9813
51.9813
51.9812
51.9812
51.9811
51.981
51.9808
51.9807
51.9805
51.9803
51.9801
51.9798
51.9796
51.9793
51.9791
51.9788
51.9785
51.9783
51.978
51.9777
51.9774
51.9771
51.9769
51.9766
51.9764
51.9761
51.9759
51.9757
51.9755
51.9753
51.9752
51.975
51.9749
51.9747
51.9746
51.9744
51.9743
51.9741
51.974
51.9738
51.9736
51.9735
51.9733
51.9731
51.973
51.9728
51.9727
51.9726
51.9725
51.9724
51.9723
51.9723
51.9723
51.9723
51.9724
51.9725
51.9726
51.9727
51.9728
50.0174
50.0174
50.0174
50.0174
50.0174
50.0174
50.0174
50.0175
50.0175
50.0175
50.0175
50.0176
50.0176
50.0177
50.0177
50.0178
50.0178
50.0178
50.0178
50.0179
50.0179
50.0179
50.0179
50.0179
50.018
50.018
50.0181
50.0181
50.0182
50.0183
50.0184
50.0185
50.0186
50.0187
50.0188
50.019
50.0191
50.0192
50.0193
50.0193
50.0194
50.0194
50.0194
50.0193
50.0193
50.0192
50.0191
50.0189
50.0188
50.0186
50.0184
50.0181
50.0179
50.0176
50.0174
50.0171
50.0168
50.0166
50.0163
50.016
50.0157
50.0154
50.0151
50.0148
50.0146
50.0143
50.0141
50.0139
50.0137
50.0135
50.0133
50.0131
50.013
50.0128
50.0127
50.0126
50.0124
50.0123
50.0121
50.0119
50.0118
50.0116
50.0114
50.0112
50.0111
50.0109
50.0107
50.0106
50.0105
50.0104
50.0103
50.0102
50.0102
50.0102
50.0102
50.0103
50.0104
50.0105
50.0106
50.0108
48.0554
48.0554
48.0554
48.0554
48.0554
48.0554
48.0554
48.0554
48.0555
48.0555
48.0555
48.0556
48.0556
48.0557
48.0557
48.0557
48.0558
48.0558
48.0558
48.0559
48.0559
48.0559
48.0559
48.0559
48.056
48.056
48.056
48.0561
48.0562
48.0563
48.0564
48.0565
48.0566
48.0567
48.0569
48.057
48.0571
48.0572
48.0573
48.0574
48.0574
48.0575
48.0575
48.0574
48.0574
48.0573
48.0572
48.057
48.0568
48.0566
48.0564
48.0562
48.0559
48.0557
48.0554
48.0551
48.0549
48.0546
48.0543
48.054
48.0537
48.0534
48.0531
48.0528
48.0525
48.0523
48.052
48.0518
48.0516
48.0514
48.0513
48.0511
48.051
48.0508
48.0507
48.0505
48.0504
48.0502
48.0501
48.0499
48.0497
48.0496
48.0494
48.0492
48.049
48.0488
48.0487
48.0485
48.0484
48.0483
48.0482
48.0481
48.0481
48.0481
48.0481
48.0482
48.0483
48.0484
48.0485
48.0487
46.0934
46.0934
46.0934
46.0934
46.0934
46.0934
46.0934
46.0934
46.0934
46.0935
46.0935
46.0935
46.0936
46.0936
46.0937
46.0937
46.0938
46.0938
46.0938
46.0939
46.0939
46.0939
46.0939
46.0939
46.0939
46.094
46.094
46.0941
46.0941
46.0942
46.0943
46.0945
46.0946
46.0947
46.0949
46.095
46.0952
46.0953
46.0954
46.0955
46.0955
46.0956
46.0956
46.0955
46.0955
46.0954
46.0953
46.0951
46.0949
46.0947
46.0945
46.0943
46.094
46.0937
46.0935
46.0932
46.0929
46.0926
46.0923
46.092
46.0917
46.0914
46.0911
46.0908
46.0905
46.0902
46.09
46.0898
46.0896
46.0894
46.0892
46.0891
46.0889
46.0888
46.0887
46.0885
46.0884
46.0882
46.0881
46.0879
46.0877
46.0875
46.0873
46.0871
46.087
46.0868
46.0866
46.0864
46.0863
46.0862
46.0861
46.086
46.086
46.086
46.086
46.0861
46.0862
46.0863
46.0864
46.0866
44.1314
44.1314
44.1314
44.1314
44.1314
44.1314
44.1314
44.1314
44.1314
44.1314
44.1315
44.1315
44.1316
44.1316
44.1317
44.1317
44.1318
44.1318
44.1318
44.1319
44.1319
44.1319
44.1319
44.1319
44.1319
44.1319
44.132
44.132
44.1321
44.1322
44.1323
44.1325
44.1326
44.1328
44.1329
44.1331
44.1332
44.1334
44.1335
44.1336
44.1336
44.1337
44.1337
44.1337
44.1336
44.1335
44.1334
44.1332
44.133
44.1328
44.1326
44.1323
44.1321
44.1318
44.1315
44.1312
44.1309
44.1306
44.1303
44.13
44.1297
44.1293
44.129
44.1287
44.1284
44.1282
44.1279
44.1277
44.1275
44.1273
44.1272
44.127
44.1269
44.1268
44.1266
44.1265
44.1264
44.1262
44.1261
44.1259
44.1257
44.1255
44.1253
44.1251
44.1249
44.1247
44.1245
44.1243
44.1242
44.1241
44.124
44.1239
44.1239
44.1239
44.1239
44.124
44.1241
44.1242
44.1243
44.1245
42.1693
42.1693
42.1693
42.1693
42.1693
42.1693
42.1693
42.1694
42.1694
42.1694
42.1695
42.1695
42.1696
42.1696
42.1697
42.1697
42.1698
42.1698
42.1698
42.1698
42.1699
42.1699
42.1698
42.1698
42.1699
42.1699
42.1699
42.17
42.1701
42.1702
42.1703
42.1704
42.1706
42.1708
42.1709
42.1711
42.1713
42.1714
42.1716
42.1717
42.1717
42.1718
42.1718
42.1718
42.1717
42.1716
42.1715
42.1713
42.1711
42.1709
42.1707
42.1704
42.1701
42.1698
42.1696
42.1693
42.1689
42.1686
42.1683
42.168
42.1676
42.1673
42.167
42.1667
42.1664
42.1661
42.1659
42.1656
42.1654
42.1653
42.1651
42.165
42.1648
42.1647
42.1646
42.1645
42.1643
42.1642
42.164
42.1639
42.1637
42.1635
42.1633
42.1631
42.1628
42.1626
42.1624
42.1622
42.1621
42.162
42.1618
42.1618
42.1617
42.1617
42.1618
42.1619
42.162
42.1621
42.1622
42.1624
40.2073
40.2073
40.2073
40.2073
40.2073
40.2073
40.2073
40.2073
40.2073
40.2074
40.2074
40.2075
40.2075
40.2076
40.2077
40.2077
40.2078
40.2078
40.2078
40.2078
40.2078
40.2078
40.2078
40.2078
40.2078
40.2078
40.2079
40.2079
40.208
40.2081
40.2083
40.2084
40.2086
40.2088
40.209
40.2092
40.2093
40.2095
40.2097
40.2098
40.2099
40.2099
40.2099
40.2099
40.2099
40.2098
40.2096
40.2094
40.2092
40.209
40.2088
40.2085
40.2082
40.2079
40.2076
40.2073
40.207
40.2066
40.2063
40.206
40.2056
40.2053
40.205
40.2046
40.2043
40.2041
40.2038
40.2036
40.2034
40.2032
40.203
40.2029
40.2028
40.2027
40.2026
40.2025
40.2023
40.2022
40.202
40.2019
40.2017
40.2015
40.2012
40.201
40.2008
40.2005
40.2003
40.2001
40.2
40.1998
40.1997
40.1996
40.1996
40.1996
40.1996
40.1997
40.1998
40.2
40.2001
40.2003
38.2453
38.2453
38.2453
38.2453
38.2453
38.2453
38.2453
38.2453
38.2453
38.2453
38.2454
38.2455
38.2455
38.2456
38.2457
38.2457
38.2458
38.2458
38.2458
38.2458
38.2458
38.2458
38.2458
38.2458
38.2458
38.2458
38.2458
38.2459
38.246
38.2461
38.2462
38.2464
38.2466
38.2468
38.247
38.2472
38.2474
38.2476
38.2477
38.2479
38.248
38.248
38.2481
38.2481
38.248
38.2479
38.2478
38.2476
38.2474
38.2471
38.2468
38.2466
38.2463
38.246
38.2457
38.2453
38.245
38.2447
38.2443
38.244
38.2436
38.2433
38.2429
38.2426
38.2423
38.242
38.2417
38.2415
38.2413
38.2411
38.241
38.2409
38.2407
38.2407
38.2406
38.2405
38.2403
38.2402
38.24
38.2399
38.2397
38.2394
38.2392
38.239
38.2387
38.2385
38.2382
38.238
38.2379
38.2377
38.2376
38.2375
38.2375
38.2375
38.2375
38.2376
38.2377
38.2378
38.238
38.2382
36.2833
36.2833
36.2833
36.2833
36.2832
36.2832
36.2832
36.2833
36.2833
36.2833
36.2834
36.2834
36.2835
36.2836
36.2837
36.2837
36.2838
36.2838
36.2838
36.2839
36.2838
36.2838
36.2838
36.2837
36.2837
36.2837
36.2838
36.2838
36.2839
36.284
36.2842
36.2844
36.2846
36.2848
36.285
36.2853
36.2855
36.2857
36.2858
36.286
36.2861
36.2862
36.2862
36.2862
36.2862
36.286
36.2859
36.2857
36.2855
36.2852
36.2849
36.2846
36.2843
36.284
36.2837
36.2834
36.283
36.2827
36.2823
36.282
36.2816
36.2812
36.2809
36.2805
36.2802
36.2799
36.2796
36.2794
36.2792
36.279
36.2789
36.2788
36.2787
36.2786
36.2785
36.2784
36.2783
36.2782
36.278
36.2779
36.2777
36.2774
36.2772
36.2769
36.2766
36.2764
36.2761
36.2759
36.2757
36.2756
36.2754
36.2753
36.2753
36.2753
36.2753
36.2754
36.2756
36.2757
36.2759
36.2761
34.3213
34.3213
34.3212
34.3212
34.3212
34.3212
34.3212
34.3212
34.3212
34.3213
34.3213
34.3214
34.3215
34.3216
34.3216
34.3217
34.3218
34.3218
34.3219
34.3219
34.3218
34.3218
34.3217
34.3217
34.3217
34.3217
34.3217
34.3217
34.3218
34.322
34.3221
34.3223
34.3226
34.3228
34.3231
34.3233
34.3235
34.3238
34.324
34.3241
34.3243
34.3243
34.3244
34.3244
34.3243
34.3242
34.324
34.3238
34.3236
34.3233
34.323
34.3227
34.3224
34.3221
34.3218
34.3214
34.3211
34.3207
34.3204
34.32
34.3196
34.3192
34.3188
34.3185
34.3181
34.3178
34.3175
34.3173
34.3171
34.3169
34.3168
34.3167
34.3167
34.3166
34.3165
34.3164
34.3163
34.3162
34.3161
34.3159
34.3156
34.3154
34.3151
34.3149
34.3146
34.3143
34.314
34.3138
34.3136
34.3134
34.3133
34.3132
34.3131
34.3131
34.3132
34.3133
34.3134
34.3136
34.3138
34.314
32.3592
32.3592
32.3592
32.3592
32.3592
32.3592
32.3592
32.3592
32.3592
32.3592
32.3593
32.3594
32.3594
32.3595
32.3596
32.3597
32.3598
32.3599
32.3599
32.3599
32.3598
32.3598
32.3597
32.3597
32.3596
32.3596
32.3596
32.3597
32.3598
32.3599
32.3601
32.3603
32.3605
32.3608
32.3611
32.3614
32.3616
32.3619
32.3621
32.3623
32.3624
32.3625
32.3626
32.3626
32.3625
32.3624
32.3622
32.362
32.3617
32.3614
32.3611
32.3608
32.3605
32.3602
32.3598
32.3595
32.3591
32.3588
32.3584
32.358
32.3576
32.3572
32.3568
32.3564
32.356
32.3557
32.3554
32.3552
32.355
32.3548
32.3547
32.3547
32.3546
32.3546
32.3545
32.3544
32.3543
32.3542
32.3541
32.3539
32.3537
32.3534
32.3531
32.3528
32.3525
32.3522
32.3519
32.3517
32.3514
32.3512
32.3511
32.351
32.351
32.351
32.351
32.3511
32.3513
32.3514
32.3517
32.3519
30.3972
30.3972
30.3972
30.3972
30.3972
30.3971
30.3971
30.3971
30.3971
30.3972
30.3972
30.3973
30.3974
30.3975
30.3976
30.3978
30.3978
30.3979
30.3979
30.3979
30.3978
30.3978
30.3977
30.3976
30.3976
30.3975
30.3975
30.3976
30.3977
30.3978
30.398
30.3982
30.3985
30.3988
30.3991
30.3994
30.3997
30.4
30.4002
30.4004
30.4006
30.4007
30.4007
30.4007
30.4007
30.4006
30.4004
30.4002
30.3999
30.3996
30.3992
30.3989
30.3986
30.3982
30.3979
30.3975
30.3972
30.3968
30.3964
30.396
30.3956
30.3952
30.3947
30.3943
30.394
30.3936
30.3933
30.3931
30.3929
30.3927
30.3926
30.3926
30.3925
30.3925
30.3925
30.3924
30.3924
30.3923
30.3921
30.3919
30.3917
30.3914
30.3911
30.3908
30.3904
30.3901
30.3898
30.3895
30.3893
30.3891
30.3889
30.3888
30.3888
30.3888
30.3888
30.3889
30.3891
30.3893
30.3895
30.3898
28.4352
28.4352
28.4352
28.4352
28.4351
28.4351
28.4351
28.4351
28.4351
28.4351
28.4352
28.4353
28.4354
28.4355
28.4357
28.4358
28.4359
28.4359
28.4359
28.4359
28.4359
28.4358
28.4357
28.4356
28.4355
28.4354
28.4354
28.4355
28.4356
28.4357
28.4359
28.4362
28.4365
28.4368
28.4371
28.4375
28.4378
28.4381
28.4383
28.4386
28.4387
28.4389
28.4389
28.439
28.4389
28.4388
28.4386
28.4383
28.438
28.4377
28.4374
28.437
28.4366
28.4363
28.4359
28.4356
28.4352
28.4348
28.4344
28.434
28.4336
28.4331
28.4327
28.4323
28.4319
28.4315
28.4312
28.4309
28.4308
28.4306
28.4305
28.4305
28.4305
28.4305
28.4305
28.4305
28.4304
28.4303
28.4301
28.4299
28.4297
28.4294
28.4291
28.4287
28.4284
28.428
28.4277
28.4274
28.4271
28.4269
28.4267
28.4266
28.4266
28.4266
28.4266
28.4267
28.4269
28.4271
28.4274
28.4277
26.4732
26.4732
26.4732
26.4731
26.4731
26.4731
26.473
26.473
26.473
26.473
26.4731
26.4732
26.4734
26.4735
26.4737
26.4738
26.4739
26.474
26.474
26.4739
26.4739
26.4738
26.4736
26.4735
26.4734
26.4733
26.4733
26.4733
26.4734
26.4736
26.4738
26.4741
26.4744
26.4748
26.4752
26.4755
26.4759
26.4762
26.4765
26.4767
26.4769
26.4771
26.4772
26.4772
26.4771
26.477
26.4768
26.4765
26.4762
26.4758
26.4755
26.4751
26.4747
26.4744
26.474
26.4736
26.4733
26.4729
26.4725
26.472
26.4716
26.4711
26.4706
26.4702
26.4697
26.4694
26.469
26.4688
26.4686
26.4685
26.4684
26.4684
26.4684
26.4685
26.4685
26.4685
26.4684
26.4683
26.4682
26.468
26.4677
26.4674
26.4671
26.4667
26.4663
26.4659
26.4656
26.4652
26.4649
26.4647