/*--------------------------------*- C++ -*----------------------------------*\
| =========                 |                                                 |
| \\      /  F ield         | OpenFOAM: The Open Source CFD Toolbox           |
|  \\    /   O peration     | Version:  2.4.0                                 |
|   \\  /    A nd           | Web:      www.OpenFOAM.org                      |
|    \\/     M anipulation  |                                                 |
\*---------------------------------------------------------------------------*/
FoamFile
{
    version     2.0;
    format      ascii;
    class       surfaceScalarField;
    location    "0.094";
    object      phi;
}
// * * * * * * * * * * * * * * * * * * * * * * * * * * * * * * * * * * * * * //

dimensions      [0 3 -1 0 0 0 0];

internalField   nonuniform List<scalar> 
119500
(
-1.88722e-13
1.88722e-13
-4.28878e-13
2.40642e-13
-7.08792e-13
2.80328e-13
-9.95239e-13
2.86853e-13
-1.2814e-12
2.86564e-13
-1.56627e-12
2.85256e-13
-1.84857e-12
2.82687e-13
-2.12844e-12
2.80247e-13
-2.40532e-12
2.77248e-13
-2.67901e-12
2.7405e-13
-2.94935e-12
2.70707e-13
-3.21621e-12
2.67218e-13
-3.47928e-12
2.63424e-13
-3.73795e-12
2.59018e-13
-3.9917e-12
2.54093e-13
-4.23991e-12
2.48568e-13
-4.48249e-12
2.42933e-13
-4.71966e-12
2.37546e-13
-4.95233e-12
2.33046e-13
-5.18096e-12
2.2903e-13
-5.40581e-12
2.25268e-13
-5.62782e-12
2.22449e-13
-5.84664e-12
2.19289e-13
-6.06225e-12
2.16089e-13
-6.27373e-12
2.11987e-13
-6.47977e-12
2.06571e-13
-6.67832e-12
1.99103e-13
-6.86713e-12
1.89383e-13
-7.04323e-12
1.76684e-13
-7.20344e-12
1.60815e-13
-7.34409e-12
1.41265e-13
-7.46088e-12
1.1741e-13
-7.54891e-12
8.86646e-14
-7.60347e-12
5.51884e-14
-7.61931e-12
1.64793e-14
-7.59109e-12
-2.75872e-14
-7.51265e-12
-7.78262e-14
-7.37992e-12
-1.32111e-13
-7.18977e-12
-1.89554e-13
-6.93957e-12
-2.49625e-13
-6.62744e-12
-3.11564e-13
-6.25163e-12
-3.75274e-13
-5.81204e-12
-4.39065e-13
-5.30898e-12
-5.02555e-13
-4.74451e-12
-5.6397e-13
-4.12356e-12
-6.20475e-13
-3.4488e-12
-6.74294e-13
-2.72463e-12
-7.23728e-13
-1.95766e-12
-7.66538e-13
-1.15381e-12
-8.0345e-13
-3.18908e-13
-8.34523e-13
5.40929e-13
-8.59487e-13
1.42013e-12
-8.7888e-13
2.31197e-12
-8.91537e-13
3.20953e-12
-8.97284e-13
4.10642e-12
-8.9662e-13
4.99587e-12
-8.89192e-13
5.87202e-12
-8.759e-13
6.72738e-12
-8.55096e-13
7.5568e-12
-8.29155e-13
8.35531e-12
-7.98229e-13
9.11749e-12
-7.61902e-13
9.83976e-12
-7.21973e-13
1.05195e-11
-6.79454e-13
1.11525e-11
-6.32638e-13
1.17389e-11
-5.86135e-13
1.22779e-11
-5.3871e-13
1.27694e-11
-4.91178e-13
1.32134e-11
-4.43659e-13
1.36118e-11
-3.98095e-13
1.39658e-11
-3.53589e-13
1.42754e-11
-3.09223e-13
1.45421e-11
-2.66385e-13
1.47674e-11
-2.24996e-13
1.49513e-11
-1.8356e-13
1.50934e-11
-1.41739e-13
1.51939e-11
-1.00264e-13
1.52525e-11
-5.82966e-14
1.52685e-11
-1.57248e-14
1.52399e-11
2.88287e-14
1.51629e-11
7.71897e-14
1.5035e-11
1.28064e-13
1.48521e-11
1.83065e-13
1.46094e-11
2.42832e-13
1.43029e-11
3.06635e-13
1.39274e-11
3.75609e-13
1.34779e-11
4.49638e-13
1.29499e-11
5.28062e-13
1.23397e-11
6.10292e-13
1.16451e-11
6.94592e-13
1.08652e-11
7.79943e-13
1.00004e-11
8.64824e-13
9.05404e-12
9.46357e-13
8.02498e-12
1.02906e-12
6.94588e-12
1.0791e-12
5.72965e-12
1.21624e-12
4.57938e-12
1.15029e-12
3.21398e-12
1.36544e-12
2.02103e-12
1.193e-12
1.14948e-12
8.71621e-13
-2.90458e-13
4.79658e-13
-7.5257e-13
7.03587e-13
-1.27016e-12
7.98663e-13
-1.80813e-12
8.25553e-13
-2.34144e-12
8.20579e-13
-2.87182e-12
8.16346e-13
-3.39932e-12
8.10871e-13
-3.92388e-12
8.05491e-13
-4.44497e-12
7.99018e-13
-4.96219e-12
7.91933e-13
-5.47534e-12
7.84516e-13
-5.98455e-12
7.77077e-13
-6.48958e-12
7.69099e-13
-6.99003e-12
7.60117e-13
-7.48561e-12
7.50337e-13
-7.97586e-12
7.39477e-13
-8.46016e-12
7.27927e-13
-8.93888e-12
7.16977e-13
-9.41266e-12
7.07565e-13
-9.88167e-12
6.98811e-13
-1.03469e-11
6.91259e-13
-1.08089e-11
6.85316e-13
-1.12673e-11
6.78608e-13
-1.17219e-11
6.71608e-13
-1.21721e-11
6.6316e-13
-1.26153e-11
6.5082e-13
-1.30506e-11
6.35415e-13
-1.34747e-11
6.14576e-13
-1.38843e-11
5.87278e-13
-1.42762e-11
5.53881e-13
-1.46454e-11
5.11523e-13
-1.49874e-11
4.60584e-13
-1.52953e-11
3.97685e-13
-1.55623e-11
3.23381e-13
-1.57805e-11
2.35728e-13
-1.59412e-11
1.34293e-13
-1.60367e-11
1.87579e-14
-1.606e-11
-1.07716e-13
-1.60054e-11
-2.43123e-13
-1.5868e-11
-3.86049e-13
-1.56427e-11
-5.35935e-13
-1.53251e-11
-6.91858e-13
-1.49121e-11
-8.51171e-13
-1.44011e-11
-1.01265e-12
-1.37928e-11
-1.17142e-12
-1.30904e-11
-1.322e-12
-1.22953e-11
-1.46859e-12
-1.14105e-11
-1.60781e-12
-1.04427e-11
-1.73359e-12
-9.3968e-12
-1.84866e-12
-8.27785e-12
-1.95284e-12
-7.09257e-12
-2.04418e-12
-5.84749e-12
-2.12341e-12
-4.55081e-12
-2.18769e-12
-3.21126e-12
-2.23635e-12
-1.83742e-12
-2.26998e-12
-4.39103e-13
-2.28702e-12
9.72641e-13
-2.28716e-12
2.3912e-12
-2.27316e-12
3.80561e-12
-2.24305e-12
5.20635e-12
-2.19845e-12
6.58374e-12
-2.13876e-12
7.92967e-12
-2.06736e-12
9.23726e-12
-1.9865e-12
1.04983e-11
-1.89309e-12
1.17107e-11
-1.79798e-12
1.28691e-11
-1.69658e-12
1.39714e-11
-1.59282e-12
1.50132e-11
-1.4849e-12
1.59938e-11
-1.37809e-12
1.69107e-11
-1.26985e-12
1.77608e-11
-1.15864e-12
1.85419e-11
-1.04691e-12
1.92512e-11
-9.33677e-13
1.98868e-11
-8.18684e-13
2.04465e-11
-7.00883e-13
2.09269e-11
-5.80193e-13
2.13257e-11
-4.56637e-13
2.16398e-11
-3.29405e-13
2.18636e-11
-1.9464e-13
2.19918e-11
-5.05985e-14
2.20171e-11
1.03066e-13
2.19316e-11
2.68836e-13
2.17251e-11
4.49507e-13
2.13876e-11
6.4434e-13
2.09099e-11
8.53493e-13
2.02811e-11
1.07856e-12
1.94922e-11
1.31704e-12
1.85363e-11
1.56632e-12
1.74063e-11
1.82458e-12
1.60991e-11
2.08718e-12
1.4614e-11
2.35002e-12
1.29532e-11
2.6071e-12
1.11225e-11
2.85982e-12
9.1486e-12
3.05305e-12
6.9854e-12
3.37949e-12
4.79075e-12
3.34503e-12
2.45152e-12
3.70479e-12
4.07972e-13
3.23669e-12
2.54936e-12
-9.9173e-13
-3.14048e-13
7.94122e-13
-8.5439e-13
1.24467e-12
-1.4661e-12
1.41103e-12
-2.09601e-12
1.45611e-12
-2.72508e-12
1.45029e-12
-3.34983e-12
1.44173e-12
-3.97193e-12
1.43359e-12
-4.59149e-12
1.42567e-12
-5.20817e-12
1.4163e-12
-5.82139e-12
1.40576e-12
-6.4309e-12
1.39463e-12
-7.03676e-12
1.38353e-12
-7.63866e-12
1.3716e-12
-8.23653e-12
1.35858e-12
-8.83027e-12
1.34467e-12
-9.41963e-12
1.32945e-12
-1.00044e-11
1.31336e-12
-1.0585e-11
1.29815e-12
-1.11611e-11
1.28433e-12
-1.17335e-11
1.27192e-12
-1.23034e-11
1.26184e-12
-1.28704e-11
1.2531e-12
-1.34353e-11
1.2443e-12
-1.39977e-11
1.23473e-12
-1.45564e-11
1.22273e-12
-1.51103e-11
1.20556e-12
-1.56579e-11
1.1839e-12
-1.61961e-11
1.15367e-12
-1.67223e-11
1.11441e-12
-1.72326e-11
1.06503e-12
-1.77218e-11
1.00173e-12
-1.81854e-11
9.25125e-13
-1.86161e-11
8.29286e-13
-1.90071e-11
7.15293e-13
-1.93492e-11
5.78784e-13
-1.96345e-11
4.20534e-13
-1.98546e-11
2.39711e-13
-2.00021e-11
4.06948e-14
-2.00696e-11
-1.74679e-13
-2.00518e-11
-4.03094e-13
-1.99422e-11
-6.44694e-13
-1.97365e-11
-8.96761e-13
-1.94297e-11
-1.15714e-12
-1.90199e-11
-1.42173e-12
-1.85062e-11
-1.6843e-12
-1.78893e-11
-1.93818e-12
-1.71716e-11
-2.18559e-12
-1.63554e-11
-2.42338e-12
-1.54441e-11
-2.64419e-12
-1.44423e-11
-2.84985e-12
-1.33548e-11
-3.03978e-12
-1.21876e-11
-3.21085e-12
-1.09474e-11
-3.36309e-12
-9.64193e-12
-3.49273e-12
-8.27932e-12
-3.5985e-12
-6.86846e-12
-3.6804e-12
-5.41844e-12
-3.73661e-12
-3.93895e-12
-3.76621e-12
-2.44069e-12
-3.77097e-12
-9.33345e-13
-3.74995e-12
5.72113e-13
-3.70345e-12
2.06943e-12
-3.63561e-12
3.54849e-12
-3.54595e-12
4.99674e-12
-3.43428e-12
6.41687e-12
-3.31274e-12
7.79281e-12
-3.17344e-12
9.12378e-12
-3.02706e-12
1.04005e-11
-2.86903e-12
1.16273e-11
-2.71123e-12
1.27931e-11
-2.54336e-12
1.38962e-11
-2.37242e-12
1.49317e-11
-2.19368e-12
1.58964e-11
-2.01113e-12
1.67847e-11
-1.82141e-12
1.7593e-11
-1.62657e-12
1.83177e-11
-1.42515e-12
1.89539e-11
-1.21597e-12
1.94946e-11
-9.97036e-13
1.99356e-11
-7.70057e-13
2.02687e-11
-5.27405e-13
2.04853e-11
-2.66916e-13
2.05751e-11
1.35362e-14
2.05288e-11
3.15383e-13
2.03312e-11
6.47253e-13
1.99707e-11
1.00503e-12
1.94332e-11
1.39123e-12
1.87066e-11
1.80529e-12
1.77793e-11
2.24443e-12
1.66419e-11
2.70384e-12
1.52861e-11
3.18049e-12
1.37067e-11
3.66662e-12
1.1902e-11
4.15479e-12
9.87542e-12
4.63373e-12
7.63474e-12
5.10057e-12
5.20107e-12
5.48681e-12
2.5814e-12
5.99926e-12
-2.23209e-13
6.14976e-12
-2.98532e-12
6.46703e-12
-5.50183e-12
5.75333e-12
4.02887e-12
-6.98117e-12
-3.50853e-13
1.14537e-12
-8.98103e-13
1.79264e-12
-1.53354e-12
2.04712e-12
-2.19262e-12
2.11583e-12
-2.85334e-12
2.11164e-12
-3.51108e-12
2.1001e-12
-4.1664e-12
2.08954e-12
-4.81928e-12
2.07917e-12
-5.46974e-12
2.06739e-12
-6.1175e-12
2.05414e-12
-6.76231e-12
2.04006e-12
-7.40377e-12
2.0256e-12
-8.04155e-12
2.00998e-12
-8.67539e-12
1.99303e-12
-9.30492e-12
1.97482e-12
-9.92977e-12
1.95491e-12
-1.05504e-11
1.93463e-12
-1.11671e-11
1.9155e-12
-1.178e-11
1.89786e-12
-1.23902e-11
1.88276e-12
-1.29983e-11
1.87059e-12
-1.36042e-11
1.85977e-12
-1.4209e-11
1.84977e-12
-1.48124e-11
1.8389e-12
-1.54133e-11
1.82438e-12
-1.6012e-11
1.80504e-12
-1.66058e-11
1.77849e-12
-1.71928e-11
1.74148e-12
-1.77704e-11
1.69275e-12
-1.83333e-11
1.62881e-12
-1.88779e-11
1.5471e-12
-1.93969e-11
1.44502e-12
-1.98848e-11
1.31799e-12
-2.03334e-11
1.16472e-12
-2.07349e-11
9.81093e-13
-2.10807e-11
7.6716e-13
-2.13631e-11
5.22946e-13
-2.1574e-11
2.52394e-13
-2.17053e-11
-4.26369e-14
-2.17506e-11
-3.56934e-13
-2.17033e-11
-6.91297e-13
-2.15584e-11
-1.04086e-12
-2.1312e-11
-1.40288e-12
-2.09604e-11
-1.77262e-12
-2.05039e-11
-2.14007e-12
-1.99409e-11
-2.50055e-12
-1.92731e-11
-2.85265e-12
-1.85047e-11
-3.1912e-12
-1.7637e-11
-3.51119e-12
-1.6674e-11
-3.81232e-12
-1.56217e-11
-4.09155e-12
-1.44858e-11
-4.34616e-12
-1.32739e-11
-4.57452e-12
-1.19936e-11
-4.77251e-12
-1.0653e-11
-4.93865e-12
-9.26103e-12
-5.07195e-12
-7.82681e-12
-5.17039e-12
-6.35961e-12
-5.23298e-12
-4.86968e-12
-5.26047e-12
-3.3664e-12
-5.2528e-12
-1.8586e-12
-5.21083e-12
-3.56652e-13
-5.13713e-12
1.131e-12
-5.03317e-12
2.5979e-12
-4.90075e-12
4.03374e-12
-4.74815e-12
5.43576e-12
-4.57502e-12
6.79401e-12
-4.38489e-12
8.10318e-12
-4.17776e-12
9.35878e-12
-3.9664e-12
1.05575e-11
-3.74161e-12
1.16944e-11
-3.50891e-12
1.27639e-11
-3.2628e-12
1.37641e-11
-3.01082e-12
1.46884e-11
-2.7454e-12
1.55331e-11
-2.47082e-12
1.62927e-11
-2.18441e-12
1.69609e-11
-1.8838e-12
1.75331e-11
-1.5689e-12
1.79985e-11
-1.23517e-12
1.8347e-11
-8.75598e-13
1.85725e-11
-4.92158e-13
1.86599e-11
-7.36761e-14
1.85972e-11
3.7838e-13
1.8372e-11
8.7263e-13
1.79692e-11
1.40803e-12
1.73755e-11
1.98505e-12
1.65764e-11
2.60463e-12
1.55589e-11
3.26205e-12
1.43108e-11
3.95213e-12
1.28238e-11
4.66753e-12
1.10918e-11
5.39884e-12
9.11264e-12
6.13404e-12
6.88982e-12
6.85669e-12
4.43244e-12
7.5581e-12
1.75353e-12
8.16587e-12
-1.09418e-12
8.84712e-12
-4.14244e-12
9.19818e-12
-7.21281e-12
9.53757e-12
-1.00552e-11
8.59591e-12
5.80995e-12
-1.18361e-11
-3.68868e-13
1.51463e-12
-9.24958e-13
2.34945e-12
-1.56171e-12
2.68453e-12
-2.22717e-12
2.78193e-12
-2.89605e-12
2.78117e-12
-3.56343e-12
2.76815e-12
-4.22899e-12
2.75575e-12
-4.89253e-12
2.74337e-12
-5.55407e-12
2.72958e-12
-6.21333e-12
2.71406e-12
-6.86991e-12
2.69728e-12
-7.52332e-12
2.67965e-12
-8.17307e-12
2.66038e-12
-8.81867e-12
2.63926e-12
-9.45974e-12
2.61653e-12
-1.00962e-11
2.59203e-12
-1.07284e-11
2.56745e-12
-1.13567e-11
2.54446e-12
-1.19817e-11
2.52352e-12
-1.2604e-11
2.50568e-12
-1.32242e-11
2.49151e-12
-1.3843e-11
2.47928e-12
-1.44607e-11
2.46816e-12
-1.50778e-11
2.4567e-12
-1.56941e-11
2.4414e-12
-1.63089e-11
2.42056e-12
-1.69211e-11
2.39142e-12
-1.75284e-11
2.34946e-12
-1.81274e-11
2.29257e-12
-1.87144e-11
2.21653e-12
-1.92834e-11
2.11679e-12
-1.98287e-11
1.99112e-12
-2.03429e-11
1.83286e-12
-2.08186e-11
1.64121e-12
-2.12475e-11
1.41073e-12
-2.1622e-11
1.14238e-12
-2.1933e-11
8.34693e-13
-2.21735e-11
4.93622e-13
-2.23338e-11
1.18364e-13
-2.24073e-11
-2.82667e-13
-2.23874e-11
-7.10486e-13
-2.22678e-11
-1.15983e-12
-2.20458e-11
-1.62414e-12
-2.17177e-11
-2.09998e-12
-2.12817e-11
-2.57543e-12
-2.07372e-11
-3.0444e-12
-2.00861e-11
-3.50314e-12
-1.93307e-11
-3.94591e-12
-1.84732e-11
-4.36808e-12
-1.7518e-11
-4.76691e-12
-1.64712e-11
-5.13781e-12
-1.53392e-11
-5.47767e-12
-1.413e-11
-5.78322e-12
-1.28515e-11
-6.0505e-12
-1.15119e-11
-6.27777e-12
-1.01206e-11
-6.4628e-12
-8.68689e-12
-6.60363e-12
-7.21988e-12
-6.69955e-12
-5.72936e-12
-6.75057e-12
-4.22481e-12
-6.75693e-12
-2.71499e-12
-6.72023e-12
-1.2091e-12
-6.64262e-12
2.83988e-13
-6.52586e-12
1.75782e-12
-6.37419e-12
3.20191e-12
-6.19185e-12
4.60993e-12
-5.98265e-12
5.97286e-12
-5.74743e-12
7.29392e-12
-5.49844e-12
8.55855e-12
-5.23065e-12
9.76399e-12
-4.94668e-12
1.09049e-11
-4.64949e-12
1.1983e-11
-4.34053e-12
1.29882e-11
-4.01562e-12
1.39214e-11
-3.67831e-12
1.4774e-11
-3.32305e-12
1.55416e-11
-2.95169e-12
1.62185e-11
-2.56038e-12
1.6795e-11
-2.14509e-12
1.72646e-11
-1.7045e-12
1.76185e-11
-1.22926e-12
1.78416e-11
-7.14986e-13
1.79258e-11
-1.57673e-13
1.78548e-11
4.49714e-13
1.76151e-11
1.11248e-12
1.71934e-11
1.83e-12
1.65736e-11
2.605e-12
1.57416e-11
3.43684e-12
1.46836e-11
4.32025e-12
1.33875e-11
5.24846e-12
1.18433e-11
6.21198e-12
1.00437e-11
7.19862e-12
7.98629e-12
8.19163e-12
5.67232e-12
9.17087e-12
3.11446e-12
1.01162e-11
3.12319e-13
1.09682e-11
-2.66654e-12
1.18262e-11
-5.81746e-12
1.23493e-11
-9.0013e-12
1.27216e-11
-1.19437e-11
1.15385e-11
7.54636e-12
-1.368e-11
-3.75974e-13
1.891e-12
-9.39212e-13
2.91344e-12
-1.57729e-12
3.32328e-12
-2.24207e-12
3.4474e-12
-2.91173e-12
3.4515e-12
-3.58128e-12
3.43839e-12
-4.24966e-12
3.42481e-12
-4.9164e-12
3.4108e-12
-5.58143e-12
3.3953e-12
-6.24449e-12
3.37781e-12
-6.905e-12
3.35848e-12
-7.56235e-12
3.33769e-12
-8.21599e-12
3.3147e-12
-8.8652e-12
3.28915e-12
-9.50951e-12
3.26152e-12
-1.01492e-11
3.23235e-12
-1.07845e-11
3.20348e-12
-1.14158e-11
3.17639e-12
-1.20438e-11
3.15224e-12
-1.26693e-11
3.13181e-12
-1.32924e-11
3.1153e-12
-1.39145e-11
3.10205e-12
-1.45361e-11
3.0904e-12
-1.51573e-11
3.07862e-12
-1.57792e-11
3.06393e-12
-1.64007e-11
3.04273e-12
-1.70207e-11
3.01216e-12
-1.76378e-11
2.96715e-12
-1.82478e-11
2.90323e-12
-1.88472e-11
2.81667e-12
-1.94301e-11
2.70027e-12
-1.999e-11
2.55169e-12
-2.05197e-11
2.36326e-12
-2.10113e-11
2.13343e-12
-2.14565e-11
1.85661e-12
-2.18473e-11
1.53382e-12
-2.21751e-11
1.1632e-12
-2.2431e-11
7.50202e-13
-2.26073e-11
2.95295e-13
-2.26949e-11
-1.94418e-13
-2.26875e-11
-7.17229e-13
-2.25796e-11
-1.26706e-12
-2.23665e-11
-1.83657e-12
-2.20459e-11
-2.41997e-12
-2.16161e-11
-3.00459e-12
-2.10747e-11
-3.5851e-12
-2.04235e-11
-4.15375e-12
-1.96653e-11
-4.70345e-12
-1.88028e-11
-5.23003e-12
-1.78408e-11
-5.72831e-12
-1.67857e-11
-6.19239e-12
-1.56442e-11
-6.61863e-12
-1.44243e-11
-7.00252e-12
-1.31347e-11
-7.33964e-12
-1.17837e-11
-7.62828e-12
-1.03806e-11
-7.86549e-12
-8.93498e-12
-8.04876e-12
-7.45631e-12
-8.17779e-12
-5.95411e-12
-8.25235e-12
-4.43787e-12
-8.27277e-12
-2.91646e-12
-8.24125e-12
-1.39864e-12
-8.16005e-12
1.0741e-13
-8.03154e-12
1.59197e-12
-7.85839e-12
3.04744e-12
-7.64696e-12
4.46722e-12
-7.40208e-12
5.84372e-12
-7.12358e-12
7.17001e-12
-6.82439e-12
8.44172e-12
-6.50202e-12
9.65598e-12
-6.16062e-12
1.08052e-11
-5.79841e-12
1.1889e-11
-5.42402e-12
1.29021e-11
-5.02839e-12
1.38393e-11
-4.61522e-12
1.46989e-11
-4.1824e-12
1.5474e-11
-3.72645e-12
1.61581e-11
-3.24421e-12
1.67456e-11
-2.73232e-12
1.72248e-11
-2.18347e-12
1.75867e-11
-1.59086e-12
1.78191e-11
-9.47165e-13
1.791e-11
-2.4827e-13
1.78444e-11
5.15521e-13
1.76109e-11
1.3463e-12
1.71914e-11
2.24974e-12
1.65713e-11
3.22535e-12
1.57366e-11
4.27177e-12
1.46717e-11
5.38539e-12
1.33643e-11
6.55615e-12
1.18035e-11
7.77307e-12
9.98121e-12
9.02113e-12
7.89358e-12
1.02795e-11
5.54151e-12
1.15232e-11
2.93464e-12
1.27233e-11
7.40924e-14
1.3829e-11
-2.97132e-12
1.48718e-11
-6.18808e-12
1.55663e-11
-9.43665e-12
1.59703e-11
-1.24127e-11
1.45148e-11
9.28758e-12
-1.41538e-11
-3.7921e-13
2.27061e-12
-9.47679e-13
3.48266e-12
-1.58715e-12
3.96345e-12
-2.25031e-12
4.11126e-12
-2.91913e-12
4.12103e-12
-3.58886e-12
4.10883e-12
-4.25799e-12
4.09465e-12
-4.92588e-12
4.07942e-12
-5.59223e-12
4.06238e-12
-6.25681e-12
4.04312e-12
-6.91896e-12
4.02136e-12
-7.57781e-12
3.99725e-12
-8.23273e-12
3.97033e-12
-8.88307e-12
3.9402e-12
-9.52818e-12
3.90732e-12
-1.01684e-11
3.87322e-12
-1.08043e-11
3.84015e-12
-1.1436e-11
3.80873e-12
-1.2064e-11
3.78091e-12
-1.26895e-11
3.75805e-12
-1.33128e-11
3.73925e-12
-1.3935e-11
3.7249e-12
-1.45575e-11
3.71356e-12
-1.51804e-11
3.70216e-12
-1.58047e-11
3.68882e-12
-1.64301e-11
3.66881e-12
-1.70552e-11
3.63786e-12
-1.76786e-11
3.59115e-12
-1.82967e-11
3.522e-12
-1.89052e-11
3.42572e-12
-1.9499e-11
3.29469e-12
-2.00705e-11
3.12382e-12
-2.06131e-11
2.90644e-12
-2.11178e-11
2.63874e-12
-2.15771e-11
2.3165e-12
-2.19811e-11
1.93841e-12
-2.23228e-11
1.50546e-12
-2.25912e-11
1.01921e-12
-2.27788e-11
4.83528e-13
-2.28773e-11
-9.52594e-14
-2.2879e-11
-7.14995e-13
-2.27782e-11
-1.36723e-12
-2.25715e-11
-2.04264e-12
-2.22543e-11
-2.73653e-12
-2.18244e-11
-3.43391e-12
-2.12812e-11
-4.12764e-12
-2.06255e-11
-4.80888e-12
-1.98598e-11
-5.46858e-12
-1.89885e-11
-6.10073e-12
-1.80164e-11
-6.69985e-12
-1.69497e-11
-7.25861e-12
-1.57954e-11
-7.77233e-12
-1.45617e-11
-8.2357e-12
-1.32574e-11
-8.64348e-12
-1.18913e-11
-8.99391e-12
-1.04725e-11
-9.28387e-12
-9.01076e-12
-9.51002e-12
-7.51586e-12
-9.67227e-12
-5.99727e-12
-9.77054e-12
-4.46461e-12
-9.80506e-12
-2.92733e-12
-9.77817e-12
-1.39452e-12
-9.69252e-12
1.25715e-13
-9.55143e-12
1.6229e-12
-9.35524e-12
3.08911e-12
-9.11284e-12
4.51758e-12
-8.83023e-12
5.90631e-12
-8.51201e-12
7.24393e-12
-8.16171e-12
8.52622e-12
-7.78403e-12
9.74649e-12
-7.38061e-12
1.09052e-11
-6.95683e-12
1.19947e-11
-6.51333e-12
1.30132e-11
-6.04655e-12
1.39602e-11
-5.56197e-12
1.48286e-11
-5.05061e-12
1.56132e-11
-4.51071e-12
1.63078e-11
-3.93863e-12
1.69069e-11
-3.33116e-12
1.73988e-11
-2.67505e-12
1.7775e-11
-1.96675e-12
1.80229e-11
-1.19485e-12
1.81294e-11
-3.54428e-13
1.80814e-11
5.63777e-13
1.78627e-11
1.56526e-12
1.74585e-11
2.65425e-12
1.68526e-11
3.8315e-12
1.60293e-11
5.09542e-12
1.49729e-11
6.44203e-12
1.367e-11
7.85941e-12
1.21089e-11
9.33444e-12
1.02812e-11
1.08492e-11
8.18143e-12
1.23796e-11
5.80977e-12
1.38952e-11
3.17217e-12
1.53612e-11
2.77521e-13
1.67239e-11
-2.82543e-12
1.7975e-11
-6.10276e-12
1.88438e-11
-9.42053e-12
1.92883e-11
-1.24494e-11
1.75438e-11
1.107e-11
-1.42316e-11
-3.81185e-13
2.65221e-12
-9.53312e-13
4.05557e-12
-1.59388e-12
4.60473e-12
-2.25586e-12
4.77396e-12
-2.92393e-12
4.78982e-12
-3.59352e-12
4.77916e-12
-4.26294e-12
4.76481e-12
-4.93156e-12
4.74879e-12
-5.59881e-12
4.73037e-12
-6.26428e-12
4.70934e-12
-6.92745e-12
4.68527e-12
-7.58726e-12
4.6578e-12
-8.24274e-12
4.62655e-12
-8.89347e-12
4.59166e-12
-9.53895e-12
4.55351e-12
-1.01792e-11
4.51414e-12
-1.08148e-11
4.47654e-12
-1.14462e-11
4.44075e-12
-1.20733e-11
4.40872e-12
-1.26976e-11
4.38307e-12
-1.33202e-11
4.36243e-12
-1.39417e-11
4.34709e-12
-1.45639e-11
4.33644e-12
-1.5188e-11
4.3268e-12
-1.5814e-11
4.31551e-12
-1.64426e-11
4.29793e-12
-1.70725e-11
4.26841e-12
-1.77017e-11
4.22085e-12
-1.83278e-11
4.1487e-12
-1.89454e-11
4.04384e-12
-1.95499e-11
3.89977e-12
-2.01336e-11
3.70803e-12
-2.06893e-11
3.46268e-12
-2.12078e-11
3.15783e-12
-2.16815e-11
2.79068e-12
-2.21e-11
2.35752e-12
-2.24549e-11
1.86093e-12
-2.27367e-11
1.3015e-12
-2.2936e-11
6.83379e-13
-2.30442e-11
1.35436e-14
-2.30548e-11
-7.03851e-13
-2.29604e-11
-1.46105e-12
-2.27568e-11
-2.24569e-12
-2.2441e-11
-3.05176e-12
-2.20106e-11
-3.86374e-12
-2.14652e-11
-4.67245e-12
-2.08053e-11
-5.46825e-12
-2.00334e-11
-6.2399e-12
-1.91531e-11
-6.98054e-12
-1.81697e-11
-7.68272e-12
-1.70902e-11
-8.33759e-12
-1.5922e-11
-8.93997e-12
-1.46734e-11
-9.48381e-12
-1.33531e-11
-9.9633e-12
-1.19703e-11
-1.03763e-11
-1.05344e-11
-1.07193e-11
-9.05511e-12
-1.09889e-11
-7.54243e-12
-1.11846e-11
-6.00632e-12
-1.13063e-11
-4.45648e-12
-1.13546e-11
-2.90252e-12
-1.13318e-11
-1.35404e-12
-1.12407e-11
1.79422e-13
-1.10846e-11
1.68994e-12
-1.08655e-11
3.17255e-12
-1.05952e-11
4.61556e-12
-1.0273e-11
6.01175e-12
-9.90793e-12
7.35691e-12
-9.50661e-12
8.64394e-12
-9.0708e-12
9.87663e-12
-8.61305e-12
1.10406e-11
-8.12058e-12
1.21396e-11
-7.61206e-12
1.31672e-11
-7.07399e-12
1.41207e-11
-6.51522e-12
1.49972e-11
-5.92681e-12
1.57916e-11
-5.30485e-12
1.64987e-11
-4.64551e-12
1.71098e-11
-3.94193e-12
1.76164e-11
-3.18145e-12
1.80086e-11
-2.35858e-12
1.82756e-11
-1.46161e-12
1.84025e-11
-4.81019e-13
1.83758e-11
5.90745e-13
1.81792e-11
1.76222e-12
1.77968e-11
3.03691e-12
1.72124e-11
4.4162e-12
1.64091e-11
5.89908e-12
1.53702e-11
7.48129e-12
1.40809e-11
9.14902e-12
1.25281e-11
1.08876e-11
1.0702e-11
1.26756e-11
8.59573e-12
1.44861e-11
6.20784e-12
1.62834e-11
3.54427e-12
1.8025e-11
6.1441e-13
1.9654e-11
-2.54566e-12
2.11353e-11
-5.89163e-12
2.219e-11
-9.29676e-12
2.26936e-11
-1.24045e-11
2.06517e-11
1.29024e-11
-1.42368e-11
-3.82405e-13
3.03504e-12
-9.56867e-13
4.63082e-12
-1.59847e-12
5.24706e-12
-2.25996e-12
5.43618e-12
-2.92772e-12
5.45833e-12
-3.59739e-12
5.44959e-12
-4.26713e-12
5.4353e-12
-4.93643e-12
5.41886e-12
-5.60458e-12
5.39929e-12
-6.2709e-12
5.37642e-12
-6.93487e-12
5.35e-12
-7.59559e-12
5.31927e-12
-8.25172e-12
5.28341e-12
-8.90272e-12
5.24339e-12
-9.54852e-12
5.20004e-12
-1.01889e-11
5.15525e-12
-1.0824e-11
5.11236e-12
-1.14544e-11
5.07181e-12
-1.20805e-11
5.03553e-12
-1.27032e-11
5.00641e-12
-1.33242e-11
4.98407e-12
-1.39449e-11
4.96846e-12
-1.45666e-11
4.95869e-12
-1.51912e-11
4.95202e-12
-1.58192e-11
4.94415e-12
-1.64507e-11
4.93001e-12
-1.70858e-11
4.90401e-12
-1.77216e-11
4.85724e-12
-1.83561e-11
4.78367e-12
-1.89842e-11
4.67251e-12
-1.96003e-11
4.51641e-12
-2.01975e-11
4.30575e-12
-2.07677e-11
4.03332e-12
-2.13021e-11
3.69279e-12
-2.17913e-11
3.28039e-12
-2.22264e-11
2.79312e-12
-2.25969e-11
2.23186e-12
-2.28927e-11
1.59784e-12
-2.31051e-11
8.96353e-13
-2.32247e-11
1.33577e-13
-2.32437e-11
-6.84281e-13
-2.31569e-11
-1.54731e-12
-2.29589e-11
-2.44318e-12
-2.26456e-11
-3.36453e-12
-2.22151e-11
-4.29373e-12
-2.16666e-11
-5.22046e-12
-2.10014e-11
-6.13301e-12
-2.02218e-11
-7.01904e-12
-1.93314e-11
-7.87046e-12
-1.83362e-11
-8.67741e-12
-1.72431e-11
-9.43025e-12
-1.60596e-11
-1.0123e-11
-1.47945e-11
-1.07484e-11
-1.34569e-11
-1.13005e-11
-1.2056e-11
-1.17768e-11
-1.06014e-11
-1.21735e-11
-9.1032e-12
-1.24867e-11
-7.57161e-12
-1.27158e-11
-6.01672e-12
-1.28608e-11
-4.44845e-12
-1.29225e-11
-2.87678e-12
-1.29032e-11
-1.31133e-12
-1.28058e-11
2.38209e-13
-1.26338e-11
1.76691e-12
-1.23939e-11
3.26027e-12
-1.20882e-11
4.71463e-12
-1.17271e-11
6.12219e-12
-1.13152e-11
7.47816e-12
-1.08623e-11
8.77696e-12
-1.03694e-11
1.00109e-11
-9.84674e-12
1.11859e-11
-9.29544e-12
1.22885e-11
-8.71438e-12
1.33255e-11
-8.11079e-12
1.42876e-11
-7.47708e-12
1.51713e-11
-6.81029e-12
1.59781e-11
-6.11144e-12
1.66974e-11
-5.36453e-12
1.73231e-11
-4.5674e-12
1.78465e-11
-3.7045e-12
1.82581e-11
-2.76988e-12
1.85459e-11
-1.74916e-12
1.8696e-11
-6.30762e-13
1.8693e-11
5.94076e-13
1.85235e-11
1.93204e-12
1.81681e-11
3.39264e-12
1.76096e-11
4.97497e-12
1.68302e-11
6.67887e-12
1.58142e-11
8.49764e-12
1.45434e-11
1.04201e-11
1.30035e-11
1.24277e-11
1.1183e-11
1.44965e-11
9.07335e-12
1.6596e-11
6.67185e-12
1.86851e-11
3.98125e-12
2.07158e-11
1.01079e-12
2.26247e-11
-2.21244e-12
2.43587e-11
-5.64029e-12
2.5618e-11
-9.15321e-12
2.62067e-11
-1.2365e-11
2.38635e-11
1.47873e-11
-1.42497e-11
-3.82928e-13
3.4184e-12
-9.5861e-13
5.20729e-12
-1.60134e-12
5.89053e-12
-2.26303e-12
6.0986e-12
-2.93094e-12
6.12698e-12
-3.60101e-12
6.12041e-12
-4.27127e-12
6.10633e-12
-4.94123e-12
6.08958e-12
-5.61029e-12
6.06912e-12
-6.27768e-12
6.04456e-12
-6.94256e-12
6.01563e-12
-7.60419e-12
5.98164e-12
-8.26124e-12
5.94119e-12
-8.91283e-12
5.89571e-12
-9.55891e-12
5.84683e-12
-1.01995e-11
5.79658e-12
-1.08342e-11
5.74773e-12
-1.14632e-11
5.70146e-12
-1.20879e-11
5.66088e-12
-1.27089e-11
5.62808e-12
-1.33278e-11
5.60358e-12
-1.39471e-11
5.58844e-12
-1.45682e-11
5.58033e-12
-1.51928e-11
5.57727e-12
-1.58226e-11
5.57454e-12
-1.64576e-11
5.56558e-12
-1.70977e-11
5.54462e-12
-1.77415e-11
5.50155e-12
-1.83851e-11
5.42781e-12
-1.90251e-11
5.31299e-12
-1.96546e-11
5.14643e-12
-2.02671e-11
4.91874e-12
-2.08537e-11
4.6204e-12
-2.14062e-11
4.24579e-12
-2.1914e-11
3.78866e-12
-2.23673e-11
3.24695e-12
-2.2756e-11
2.62102e-12
-2.30689e-11
1.91122e-12
-2.32963e-11
1.12419e-12
-2.34296e-11
2.67379e-13
-2.34607e-11
-6.52765e-13
-2.33831e-11
-1.62438e-12
-2.31906e-11
-2.63523e-12
-2.288e-11
-3.67472e-12
-2.24488e-11
-4.72442e-12
-2.18967e-11
-5.77216e-12
-2.1225e-11
-6.80423e-12
-2.04363e-11
-7.8074e-12
-1.95345e-11
-8.77178e-12
-1.85259e-11
-9.68565e-12
-1.74173e-11
-1.05384e-11
-1.6217e-11
-1.13228e-11
-1.4934e-11
-1.20311e-11
-1.35771e-11
-1.2657e-11
-1.2156e-11
-1.31975e-11
-1.06809e-11
-1.36482e-11
-9.16204e-12
-1.40052e-11
-7.60953e-12
-1.4268e-11
-6.03388e-12
-1.44362e-11
-4.44551e-12
-1.45106e-11
-2.85452e-12
-1.44939e-11
-1.27029e-12
-1.43898e-11
2.98874e-13
-1.42028e-11
1.8409e-12
-1.39357e-11
3.34663e-12
-1.35937e-11
4.80991e-12
-1.31901e-11
6.22939e-12
-1.27345e-11
7.59582e-12
-1.22285e-11
8.90652e-12
-1.16799e-11
1.01534e-11
-1.10934e-11
1.1333e-11
-1.04748e-11
1.24463e-11
-9.8275e-12
1.34881e-11
-9.15236e-12
1.44572e-11
-8.44596e-12
1.53549e-11
-7.70772e-12
1.61717e-11
-6.92799e-12
1.69048e-11
-6.09729e-12
1.75469e-11
-5.20931e-12
1.80901e-11
-4.24736e-12
1.85237e-11
-3.2032e-12
1.88354e-11
-2.06054e-12
1.90122e-11
-8.07238e-13
1.90394e-11
5.67136e-13
1.88991e-11
2.07269e-12
1.85745e-11
3.71757e-12
1.80464e-11
5.50344e-12
1.72962e-11
7.42937e-12
1.63055e-11
9.48862e-12
1.50562e-11
1.16697e-11
1.35318e-11
1.39523e-11
1.17183e-11
1.63103e-11
9.60602e-12
1.87086e-11
7.18902e-12
2.11023e-11
4.46725e-12
2.34378e-11
1.45002e-12
2.56421e-11
-1.84525e-12
2.76541e-11
-5.37081e-12
2.91436e-11
-9.01391e-12
2.98499e-11
-1.23608e-11
2.72105e-11
1.67463e-11
-1.43197e-11
-3.8284e-13
3.80167e-12
-9.58852e-13
5.78409e-12
-1.60278e-12
6.53518e-12
-2.26534e-12
6.7619e-12
-2.93377e-12
6.79615e-12
-3.6044e-12
6.79179e-12
-4.2754e-12
6.77807e-12
-4.94614e-12
6.76106e-12
-5.61616e-12
6.73988e-12
-6.28486e-12
6.71401e-12
-6.95105e-12
6.68255e-12
-7.6137e-12
6.64501e-12
-8.27178e-12
6.59998e-12
-8.92446e-12
6.5491e-12
-9.57107e-12
6.49413e-12
-1.02117e-11
6.43786e-12
-1.08459e-11
6.38269e-12
-1.14735e-11
6.32973e-12
-1.20961e-11
6.28409e-12
-1.27151e-11
6.24773e-12
-1.33318e-11
6.22086e-12
-1.39489e-11
6.20615e-12
-1.45689e-11
6.20098e-12
-1.51936e-11
6.20247e-12
-1.58245e-11
6.20608e-12
-1.64634e-11
6.205e-12
-1.71089e-11
6.19067e-12
-1.77609e-11
6.15411e-12
-1.84153e-11
6.08272e-12
-1.90681e-11
5.96632e-12
-1.97131e-11
5.79186e-12
-2.03428e-11
5.54897e-12
-2.09487e-11
5.2268e-12
-2.15214e-11
4.81897e-12
-2.20506e-11
4.3183e-12
-2.25251e-11
3.72186e-12
-2.29343e-11
3.03064e-12
-2.32668e-11
2.24418e-12
-2.35124e-11
1.37023e-12
-2.36607e-11
4.16079e-13
-2.37043e-11
-6.08737e-13
-2.36366e-11
-1.69165e-12
-2.34507e-11
-2.82071e-12
-2.31432e-11
-3.98185e-12
-2.27116e-11
-5.15564e-12
-2.21557e-11
-6.32768e-12
-2.1477e-11
-7.48252e-12
-2.06782e-11
-8.60592e-12
-1.97637e-11
-9.68593e-12
-1.874e-11
-1.0709e-11
-1.76145e-11
-1.16635e-11
-1.63959e-11
-1.25411e-11
-1.50928e-11
-1.33338e-11
-1.37146e-11
-1.40349e-11
-1.22714e-11
-1.46404e-11
-1.07737e-11
-1.51456e-11
-9.23163e-12
-1.5547e-11
-7.6561e-12
-1.58432e-11
-6.05777e-12
-1.60343e-11
-4.44709e-12
-1.6121e-11
-2.83445e-12
-1.61063e-11
-1.22998e-12
-1.5994e-11
3.57998e-13
-1.57905e-11
1.91071e-12
-1.54882e-11
3.43789e-12
-1.51207e-11
4.91961e-12
-1.46716e-11
6.35111e-12
-1.41658e-11
7.72796e-12
-1.36052e-11
9.04412e-12
-1.29958e-11
1.02966e-11
-1.23457e-11
1.14867e-11
-1.16647e-11
1.26079e-11
-1.09484e-11
1.36595e-11
-1.02038e-11
1.46395e-11
-9.42571e-12
1.55456e-11
-8.61364e-12
1.63748e-11
-7.7569e-12
1.71236e-11
-6.84583e-12
1.77842e-11
-5.86964e-12
1.83492e-11
-4.81205e-12
1.88081e-11
-3.66181e-12
1.91487e-11
-2.40091e-12
1.93576e-11
-1.01578e-12
1.94169e-11
5.08104e-13
1.9312e-11
2.17791e-12
1.90239e-11
4.00592e-12
1.85311e-11
5.99651e-12
1.78141e-11
8.14673e-12
1.68539e-11
1.0449e-11
1.56297e-11
1.28941e-11
1.41237e-11
1.54586e-11
1.23195e-11
1.81147e-11
1.02051e-11
2.08232e-11
7.77193e-12
2.35357e-11
5.01754e-12
2.61923e-11
1.94606e-12
2.87137e-11
-1.42728e-12
3.10275e-11
-5.06589e-12
3.27823e-11
-8.85806e-12
3.36421e-11
-1.23688e-11
3.07213e-11
1.88049e-11
-1.44272e-11
-3.82303e-13
4.1844e-12
-9.58068e-13
6.36063e-12
-1.60312e-12
7.18095e-12
-2.26703e-12
7.42653e-12
-2.93627e-12
7.46612e-12
-3.60754e-12
7.46379e-12
-4.27941e-12
7.45068e-12
-4.95127e-12
7.43364e-12
-5.62249e-12
7.41182e-12
-6.29262e-12
7.38486e-12
-6.96043e-12
7.35105e-12
-7.6245e-12
7.30977e-12
-8.28377e-12
7.25994e-12
-8.93781e-12
7.20382e-12
-9.58543e-12
7.14242e-12
-1.02259e-11
7.079e-12
-1.08594e-11
7.01679e-12
-1.14857e-11
6.95669e-12
-1.21059e-11
6.90492e-12
-1.2722e-11
6.8645e-12
-1.33362e-11
6.83563e-12
-1.39507e-11
6.82122e-12
-1.45688e-11
6.8197e-12
-1.51932e-11
6.82744e-12
-1.58252e-11
6.83863e-12
-1.64674e-11
6.84774e-12
-1.71192e-11
6.84303e-12
-1.77796e-11
6.81501e-12
-1.84459e-11
6.74958e-12
-1.9113e-11
6.63389e-12
-1.97752e-11
6.45455e-12
-2.04243e-11
6.19855e-12
-2.10518e-11
5.85479e-12
-2.16476e-11
5.41528e-12
-2.22006e-11
4.87167e-12
-2.26993e-11
4.22101e-12
-2.31319e-11
3.46364e-12
-2.34864e-11
2.59907e-12
-2.3752e-11
1.63628e-12
-2.39181e-11
5.825e-13
-2.39763e-11
-5.50124e-13
-2.39193e-11
-1.74825e-12
-2.37405e-11
-2.99922e-12
-2.34366e-11
-4.28541e-12
-2.30048e-11
-5.58713e-12
-2.24447e-11
-6.88746e-12
-2.17581e-11
-8.16881e-12
-2.09479e-11
-9.41584e-12
-2.00194e-11
-1.06141e-11
-1.89793e-11
-1.17488e-11
-1.78351e-11
-1.28074e-11
-1.65955e-11
-1.37804e-11
-1.52701e-11
-1.46589e-11
-1.38683e-11
-1.54364e-11
-1.24004e-11
-1.61081e-11
-1.08771e-11
-1.66686e-11
-9.30933e-12
-1.71145e-11
-7.70788e-12
-1.74444e-11
-6.08362e-12
-1.76583e-11
-4.4473e-12
-1.77571e-11
-2.80991e-12
-1.77435e-11
-1.18248e-12
-1.76213e-11
4.20812e-13
-1.73936e-11
2.00772e-12
-1.70748e-11
3.55034e-12
-1.66631e-11
5.04618e-12
-1.61672e-11
6.49114e-12
-1.56105e-11
7.87886e-12
-1.49927e-11
9.20681e-12
-1.43235e-11
1.04705e-11
-1.36091e-11
1.16666e-11
-1.28606e-11