/*--------------------------------*- C++ -*----------------------------------*\
| =========                 |                                                 |
| \\      /  F ield         | OpenFOAM: The Open Source CFD Toolbox           |
|  \\    /   O peration     | Version:  2.4.0                                 |
|   \\  /    A nd           | Web:      www.OpenFOAM.org                      |
|    \\/     M anipulation  |                                                 |
\*---------------------------------------------------------------------------*/
FoamFile
{
    version     2.0;
    format      ascii;
    class       volScalarField;
    location    "0.031";
    object      alpha.water;
}
// * * * * * * * * * * * * * * * * * * * * * * * * * * * * * * * * * * * * * //

dimensions      [0 0 0 0 0 0 0];

internalField   nonuniform List<scalar> 
14400
(
1
1
1
1
1
1
1
1
1
1
1
1
1
1
1
1
1
1
1
1
1
1
1
1
1
1
1
1
1
1
1
1
1
1
1
1
1
1
1
1
1
1
1
1
1
1
1
1
1
1
1
1
1
1
1
1
1
1
1
1
1
1
1
1
1
1
1
1
1
1
1
1
1
1
1
1
1
1
1
1
1
1
1
1
1
1
1
1
1
1
1
1
1
1
1
1
1
1
1
1
1
1
1
1
1
1
1
1
1
1
1
1
1
1
1
1
1
1
1
1
1
1
1
1
1
1
1
1
1
1
1
1
1
1
1
1
1
1
1
1
1
1
1
1
1
1
1
1
1
1
1
1
1
1
1
1
1
1
1
1
1
1
1
1
1
1
1
1
1
1
1
1
1
1
1
1
1
1
1
1
1
1
1
1
1
1
1
1
1
1
1
1
1
1
1
1
1
1
1
1
1
1
1
1
1
1
1
1
1
1
1
1
1
1
1
1
1
1
1
1
1
1
1
1
1
1
1
1
1
1
1
1
1
1
1
1
1
1
1
1
1
1
1
1
1
1
1
1
1
1
1
1
1
1
1
1
1
1
1
1
1
1
1
1
1
1
1
1
1
1
1
1
1
1
1
1
1
1
1
1
1
1
1
1
1
1
1
1
1
1
1
1
1
1
1
1
1
1
1
1
1
1
1
1
1
1
1
1
1
1
1
1
1
1
1
1
1
1
1
1
1
1
1
1
1
1
1
1
1
1
1
1
1
1
1
1
1
1
1
1
1
1
1
1
1
1
1
1
1
1
1
1
1
1
1
1
1
1
1
0.999998
1
1
1
1
1
1
1
1
1
1
1
1
1
1
1
1
1
1
1
1
1
1
1
1
0.999999
0.999995
0.784562
0.3835
0.155591
0.0845242
1
1
1
1
1
1
1
1
1
1
1
1
1
1
1
1
1
1
1
1
1
1
0.999999
0.999973
0.573795
0.0451923
0.000111379
2.4792e-05
4.31146e-07
8.31806e-06
1
1
1
1
1
1
1
1
1
1
1
1
1
1
1
1
1
1
1
1
1
1
0.920052
0.0970002
0.000102108
0.000116665
2.54356e-06
2.93787e-06
1.03733e-08
5.10706e-05
1
1
1
1
1
1
1
1
1
1
1
1
1
1
1
1
1
1
1
1
1
0.730973
5.60025e-05
1.09717e-05
1.22111e-05
6.77898e-06
1.99103e-07
1.19892e-08
7.42999e-09
3.65487e-05
1
1
1
1
1
1
1
1
1
1
1
1
1
1
1
1
1
1
1
0.999998
0.663057
1.91511e-05
6.11516e-06
1.07441e-05
9.69577e-06
3.62976e-05
7.57885e-07
2.96522e-08
1.68672e-07
3.23037e-08
1
1
1
1
1
1
1
1
1
1
1
1
1
1
1
1
1
1
1
0.866995
0.000764731
9.63338e-06
3.3889e-06
0.000146121
2.59032e-05
3.62976e-05
2.97254e-07
1.96013e-07
1.85632e-07
3.3377e-08
1
1
1
1
1
1
1
1
1
1
1
1
1
1
1
1
1
1
0.999986
0.0546312
1.00858e-05
-9.41901e-08
1.21119e-05
0.000121432
1.36755e-06
1.89206e-07
8.40472e-09
1.35837e-08
8.47743e-09
5.26244e-06
1
1
1
1
1
1
1
1
1
1
1
1
1
1
1
1
1
1
0.724678
-2.06142e-06
-9.07476e-08
8.85459e-08
6.77659e-09
3.73661e-09
2.13896e-09
3.43e-09
3.03858e-09
3.98311e-08
6.78453e-06
6.69262e-06
1
1
1
1
1
1
1
1
1
1
1
1
1
1
1
1
1
0.999997
0.0207665
-1.18676e-07
4.7268e-10
6.44585e-10
3.82726e-09
9.63597e-10
1.43059e-09
2.26229e-09
6.41822e-07
6.39139e-07
1.83695e-06
5.20633e-09
1
1
1
1
1
1
1
1
1
1
1
1
1
1
1
1
1
0.753873
2.72011e-05
1.18398e-05
4.67679e-10
1.31213e-09
1.57348e-09
1.39115e-09
1.97044e-09
3.53979e-07
2.53607e-07
2.14222e-09
1.26687e-09
2.29111e-09
1
1
1
1
1
1
1
1
1
1
1
1
1
1
1
1
0.999998
0.265431
5.86565e-07
6.4269e-07
1.87767e-08
2.42887e-10
2.07104e-10
2.92221e-10
6.06233e-10
8.08498e-10
9.52368e-10
3.20794e-10
1.81505e-10
2.92737e-10
1
1
1
1
1
1
1
1
1
1
1
1
1
1
1
1
0.999998
0.0327304
0.000132456
1.99079e-07
3.02847e-08
8.01325e-11
9.90293e-11
1.42354e-10
1.65143e-10
1.47745e-10
1.00936e-10
5.15939e-11
3.62319e-11
4.70441e-11
1
1
1
1
1
1
1
1
1
1
1
1
1
1
1
1
0.950234
0.00015149
0.00022991
4.51319e-08
3.98386e-11
3.14983e-11
3.73267e-11
5.59483e-11
7.01159e-11
6.57721e-11
4.33964e-11
1.84633e-11
8.09021e-12
8.40136e-12
1
1
1
1
1
1
1
1
1
1
1
1
1
1
1
1
0.543536
2.15787e-05
0.000622943
1.71043e-09
3.39693e-11
1.25523e-11
1.11345e-11
1.61548e-11
2.08362e-11
1.99501e-11
1.29701e-11
5.09274e-12
1.6316e-12
1.26181e-12
1
1
1
1
1
1
1
1
1
1
1
1
1
1
1
0.999996
0.176856
8.5009e-06
0.000637351
5.23495e-11
1.8453e-11
5.04493e-12
2.70937e-12
3.40213e-12
4.40213e-12
4.25853e-12
2.75531e-12
1.06472e-12
3.1198e-13
1.86537e-13
1
1
1
1
1
1
1
1
1
1
1
1
1
1
1
0.999936
0.0381154
1.97957e-07
-5.17478e-09
4.47851e-11
1.14866e-11
2.30097e-12
6.14211e-13
5.1918e-13
6.53676e-13
6.4381e-13
4.22294e-13
1.67395e-13
5.21913e-14
2.87549e-14
1
1
1
1
1
1
1
1
1
1
1
1
1
1
1
0.966621
0.000268244
2.08939e-06
1.77824e-10
4.08299e-11
9.71524e-12
1.48014e-12
1.86859e-13
6.21465e-14
6.65602e-14
6.73267e-14
4.57324e-14
1.91335e-14
6.89433e-15
4.00714e-15
1
1
1
1
1
1
1
1
1
1
1
1
1
1
0.999999
0.822401
9.312e-07
-1.3943e-07
3.49526e-10
4.62467e-11
1.03312e-11
1.44172e-12
1.16352e-13
9.96259e-15
4.55984e-15
4.55503e-15
3.27911e-15
1.49036e-15
6.73761e-16
4.44965e-16
1
1
1
1
1
1
1
1
1
1
1
1
1
1
1
1
1
1
1
1
1
1
1
1
1
1
1
1
1
1
1
1
1
1
1
1
1
1
1
1
1
1
1
1
1
1
1
1
1
1
1
1
1
1
1
1
1
1
1
1
1
1
1
1
1
1
1
1
1
1
1
1
1
1
1
1
1
1
1
1
1
1
1
1
1
1
1
1
1
1
1
1
1
1
1
1
1
1
1
1
1
1
1
1
1
1
1
1
1
1
1
1
1
1
1
1
1
1
1
1
1
1
1
1
1
1
1
1
1
1
1
1
1
1
1
1
1
1
1
1
1
1
1
1
1
1
1
1
1
1
1
1
1
1
1
1
1
1
1
1
1
1
1
1
1
1
1
1
1
1
1
1
1
1
1
1
1
1
1
1
1
1
1
1
1
1
1
1
1
1
1
1
1
1
1
1
1
1
1
1
1
1
1
1
1
1
1
1
1
1
1
1
1
1
1
1
1
1
1
1
1
1
1
1
1
1
1
1
1
1
1
1
1
1
1
1
1
1
1
1
1
1
1
1
1
1
1
1
1
1
1
1
1
1
1
1
1
1
1
1
1
1
1
1
1
1
1
1
1
1
1
1
1
1
1
1
1
1
1
1
1
1
1
1
1
1
1
1
1
1
1
1
1
1
1
1
1
1
1
1
1
1
1
1
1
1
1
1
1
1
1
1
1
1
1
1
1
1
1
1
1
1
1
1
1
1
1
1
1
1
0.999996
0.999999
1
1
1
1
1
1
1
1
1
1
1
1
1
1
1
1
1
1
1
1
1
1
1
1
1
1
1
1
0.074839
0.115211
0.249594
0.603087
0.959644
0.999995
1
1
1
1
1
1
1
1
1
1
1
1
1
1
1
1
1
1
1
1
1
1
1
1
2.61565e-05
3.46602e-07
9.18803e-06
7.34385e-05
0.000226791
0.220971
0.860358
0.999998
1
1
1
1
1
1
1
1
1
1
1
1
1
1
1
1
1
1
1
1
1
1
5.16268e-05
2.33779e-06
1.70914e-07
5.91495e-05
2.21865e-06
0.000133182
0.000572736
0.458568
1
1
1
1
1
1
1
1
1
1
1
1
1
1
1
1
1
1
1
1
1
1
5.16307e-05
2.41534e-07
7.73937e-09
3.09651e-08
2.3863e-07
1.96672e-05
1.14864e-05
1.68577e-05
0.0983039
0.999986
1
1
1
1
1
1
1
1
1
1
1
1
1
1
1
1
1
1
1
1
7.13553e-08
3.34849e-08
2.10673e-07
2.36526e-08
2.38588e-05
2.63828e-05
1.13503e-05
8.29498e-06
7.89731e-06
0.0328028
0.998291
1
1
1
1
1
1
1
1
1
1
1
1
1
1
1
1
1
1
1
5.46683e-08
3.34603e-08
2.10775e-07
1.8945e-07
2.08302e-05
3.64996e-05
0.000146977
0.000126666
6.70645e-07
9.31259e-05
0.248526
0.999995
1
1
1
1
1
1
1
1
1
1
1
1
1
1
1
1
1
1
1.68938e-07
9.59251e-06
1.17523e-08
7.19671e-09
1.53069e-08
6.53876e-08
2.52402e-05
0.000122635
6.5865e-09
-1.77404e-06
1.62563e-05
0.784903
0.999997
1
1
1
1
1
1
1
1
1
1
1
1
1
1
1
1
1
2.77732e-07
1.25163e-05
6.20143e-08
3.54972e-09
3.78714e-09
3.47935e-09
2.97534e-09
8.06925e-09
8.54528e-09
5.59707e-08
-3.06576e-08
0.0105068
0.999989
1
1
1
1
1
1
1
1
1
1
1
1
1
1
1
1
1
4.52616e-07
6.10553e-06
2.29834e-08
6.54847e-07
2.93648e-07
2.17746e-09
1.65455e-09
3.34875e-09
4.99272e-09
9.11881e-10
6.73112e-10
6.84895e-07
0.721994
1
1
1
1
1
1
1
1
1
1
1
1
1
1
1
1
1
1.23588e-09
2.08254e-09
1.10019e-08
5.7302e-08
4.59026e-07
4.87195e-08
1.85657e-09
1.90479e-09
1.81915e-09
1.00833e-09
7.18672e-10
0.00011591
0.0752643
0.999997
1
1
1
1
1
1
1
1
1
1
1
1
1
1
1
1
2.40236e-10
3.43344e-10
4.95537e-10
5.30687e-10
6.47735e-10
8.8276e-10
3.97492e-10
2.68719e-10
3.60148e-10
4.88801e-10
2.13159e-08
-9.76827e-09
2.96035e-05
0.970728
1
1
1
1
1
1
1
1
1
1
1
1
1
1
1
1
5.84849e-11
4.62285e-11
5.74431e-11
9.70285e-11
1.47928e-10
1.75543e-10
1.64883e-10
1.22246e-10
9.19585e-11
6.80814e-11
1.89816e-07
1.25136e-08
9.21543e-05
0.611128
1
1
1
1
1
1
1
1
1
1
1
1
1
1
1
1
1.09025e-11
8.82902e-12
1.41923e-11
3.51038e-11
6.08303e-11
7.31006e-11
6.4856e-11
4.52857e-11
3.13478e-11
5.23554e-10
6.98777e-08
3.47698e-11
0.00023897
0.117756
0.999994
1
1
1
1
1
1
1
1
1
1
1
1
1
1
1
1.45793e-12
1.48335e-12
3.21804e-12
9.76117e-12
1.79382e-11
2.15212e-11
1.8562e-11
1.28009e-11
1.03782e-11
1.96108e-11
3.73924e-11
3.45445e-11
0.000290793
0.00389282
0.998505
1
1
1
1
1
1
1
1
1
1
1
1
1
1
1
1.71026e-13
2.45993e-13
6.36333e-13
2.03685e-12
3.80457e-12
4.53049e-12
3.84327e-12
2.75924e-12
3.24435e-12
9.78202e-12
2.82677e-11
3.45446e-11
0.000100881
1.1578e-05
0.975074
1
1
1
1
1
1
1
1
1
1
1
1
1
1
1
2.21914e-14
3.96528e-14
1.02154e-13
3.15273e-13
5.79978e-13
6.75026e-13
5.65147e-13
4.80314e-13
1.13087e-12
5.5822e-12
2.50279e-11
3.53353e-11
8.56593e-08
9.36488e-06
0.735018
0.999999
1
1
1
1
1
1
1
1
1
1
1
1
1
1
2.88336e-15
5.46046e-15
1.23275e-14
3.48527e-14
6.16935e-14
6.90599e-14
5.90824e-14
8.96732e-14
5.53102e-13
4.19544e-12
2.18121e-11
7.71668e-11
2.65347e-08
2.01902e-08
0.31415
0.999991
1
1
1
1
1
1
1
1
1
1
1
1
1
1
3.09913e-16
5.81279e-16
1.03822e-15
2.56171e-15
4.27199e-15
4.57375e-15
5.32094e-15
3.32754e-14
4.50912e-13
4.32043e-12
2.28748e-11
1.58707e-10
1.1216e-10
2.96074e-11
0.0308449
0.999963
1
1
1
1
1
1
1
1
1
1
1
1
1
1
2.63855e-10
0.298288
0.502325
0.773051
0.997784
1
1
1
1
1
1
1
1
1
0.999997
0.554529
5.24143e-06
-4.72126e-08
1.78813e-09
5.53787e-11
1.16225e-11
1.6539e-12
1.22691e-13
5.56126e-15
3.2868e-16
1.63231e-16
1.272e-16
6.74335e-17
4.4299e-17
3.51407e-17
7.4635e-12
5.65611e-09
9.64048e-08
2.13681e-06
0.00172283
0.332709
0.977912
1
1
1
1
1
1
1
0.999994
0.413005
2.2538e-07
-9.85569e-09
2.17337e-10
5.68602e-11
1.20335e-11
1.74627e-12
1.32662e-13
5.72269e-15
2.11843e-16
4.85983e-17
3.6847e-17
2.05311e-17
1.50093e-17
1.24731e-17
1.7009e-14
4.01075e-10
2.05028e-10
1.11777e-09
1.51123e-07
0.00300824
0.0591169
0.939595
1
1
1
1
1
1
0.999984
0.233167
1.21197e-09
-1.14772e-09
1.61767e-10
5.5331e-11
1.22759e-11
1.80088e-12
1.4127e-13
6.10614e-15
1.80547e-16
1.45035e-17
9.36364e-18
5.53227e-18
4.55545e-18
3.97128e-18
3.6103e-17
1.16501e-12
1.9703e-11
1.58415e-10
1.79283e-05
0.00217626
0.00091423
0.450579
0.967547
1
1
1
1
1
0.999979
0.160177
-4.39834e-10
1.96544e-10
1.43393e-10
5.23472e-11
1.26306e-11
1.82475e-12
1.46165e-13
6.50084e-15
1.79826e-16
5.68836e-18
2.07282e-18
1.30116e-18
1.2222e-18
1.11895e-18
4.78205e-20
2.89382e-15
4.08312e-13
7.19689e-11
5.08889e-05
0.00122853
4.50748e-05
0.0843051
0.869082
0.998677
0.999998
1
1
1
0.999913
0.0643555
-2.22011e-07
1.18866e-09
1.2428e-10
5.21645e-11
1.38004e-11
1.87889e-12
1.46927e-13
6.74398e-15
1.87237e-16
3.80985e-18
4.13844e-19
2.62296e-19
2.84658e-19
2.74007e-19
7.36662e-23
6.23953e-18
2.17426e-14
6.34531e-11
4.26835e-07
3.71335e-06
6.13899e-06
0.000274235
0.550144
0.981118
1
1
1
1
0.98164
0.00806686
-3.08619e-08
4.57875e-09
1.18319e-10
5.95859e-11
1.69077e-11
2.11231e-12
1.47106e-13
6.76577e-15
1.92692e-16
3.55651e-18
9.82047e-20
4.46942e-20
5.65051e-20
5.72585e-20
4.91887e-24
1.24513e-19
1.56927e-15
1.91718e-11
2.31628e-08
5.41385e-07
2.51347e-05
5.37206e-05
0.0609485
0.957053
1
1
1
1
0.931869
5.77187e-06
-1.58202e-09
6.22339e-10
1.26775e-10
7.9452e-11
2.34208e-11
2.79525e-12
1.56738e-13
6.67239e-15
1.92307e-16
3.56464e-18
4.95421e-20
6.46707e-21
9.28718e-21
9.92697e-21
2.10334e-24
6.93013e-20
5.31507e-16
1.1181e-12
5.62002e-11
4.52122e-07
4.80348e-06
5.42827e-06
0.000361222
0.603504
1
1
1
1
0.868548
3.18945e-07
-4.89484e-11
3.50432e-10
1.51395e-10
1.20792e-10
3.49521e-11
4.32966e-12
1.9486e-13
6.8467e-15
1.88183e-16
3.53064e-18
4.3774e-20
1.00265e-21
1.22373e-21
1.38319e-21
2.04345e-24
2.84478e-20
2.24034e-16
6.23691e-13
4.58598e-11
4.80992e-07
3.41264e-08
3.07674e-07
4.21597e-05
0.0567936
0.999984
1
1
1
0.742974
1.12705e-07
1.39789e-08
2.85007e-10
2.38471e-10
2.03513e-10
5.22859e-11
7.17144e-12
2.90654e-13
8.04404e-15
1.90198e-16
3.46167e-18
4.29649e-20
3.89134e-22
1.24114e-22
1.47788e-22
1.28562e-24
2.06378e-20
9.43799e-17
1.81276e-13
6.99631e-11
1.17823e-09
1.24459e-08
5.79802e-06
4.9953e-06
0.000554829
0.64734
1
1
0.999995
0.491954
3.57494e-07
7.42124e-05
2.0144e-05
5.71412e-10
3.33718e-10
7.3746e-11
1.15655e-11
4.78983e-13
1.1419e-14
2.17603e-16
3.53502e-18
4.30331e-20
3.43834e-22
1.02496e-23
1.13164e-23
5.72509e-25
1.25509e-20
5.63029e-17
7.14925e-14
2.09175e-11
2.08725e-10
4.85292e-06
1.77587e-05
2.64473e-07
5.91726e-05
0.129898
1
1
0.999982
0.207119
1.67562e-05
0.000283975
5.10548e-10
5.17687e-10
4.2229e-10
9.62685e-11
1.71366e-11
7.82838e-13
1.82988e-14
2.98071e-16
4.07372e-18
4.57633e-20
3.60803e-22
2.05369e-24
5.62398e-25
1.32242e-25
5.42354e-21
3.15548e-17
4.61766e-14
1.00452e-11
2.15522e-10
5.10457e-09
2.30543e-05
2.36695e-08
3.0714e-06
0.00478564
0.999999
0.999999
0.999955
0.117385
9.01436e-05
0.000178811
6.73383e-07
9.45973e-08
3.71364e-10
1.21447e-10
2.27307e-11
1.1805e-12
2.93925e-14
4.59307e-16
5.48493e-18
5.44758e-20
4.09508e-22
1.92365e-24
1.90622e-26
1.78942e-26
1.11665e-21
8.37664e-18
1.66989e-14
5.18608e-12
1.00041e-10
4.30312e-07
1.58484e-05
1.26355e-09
3.21732e-07
0.000279188
0.829853
0.999994
0.999877
0.0636175
0.000132346
1.22169e-05
9.29788e-08
4.24428e-09
2.99712e-10
1.6101e-10
2.72392e-11
1.58023e-12
4.33567e-14
7.06155e-16
8.06558e-18
7.24451e-20
5.03957e-22
2.313e-24
5.60211e-27
1.86905e-27
1.45533e-22
1.31071e-18
3.39084e-15
1.59739e-12
6.04565e-11
2.25275e-06
1.1008e-06
5.76446e-10
1.73433e-08
5.39047e-05
0.45358
0.999982
0.999601
0.0183138
9.58546e-05
4.42497e-07
1.62347e-06
1.19108e-07
2.87656e-10
2.19766e-10
3.19704e-11
1.86864e-12
5.59313e-14
9.87059e-16
1.16186e-17
1.00548e-19
6.53723e-22
2.87148e-24
6.74942e-27
1.67152e-28
1.42928e-23
1.45388e-19
4.69781e-16
3.29892e-13
3.30995e-11
1.7716e-10
6.26881e-09
3.99251e-10
3.95319e-10
3.29207e-06
0.0952623
0.999887
0.972793
8.24293e-05
0.000112218
1.64844e-05
1.65682e-05
8.41362e-05
-9.71012e-10
3.02835e-10
4.411e-11
2.11139e-12
6.29266e-14
1.19374e-15
1.5118e-17
1.34499e-19
8.54409e-22
3.61009e-24
8.36809e-27
1.33371e-29
1.12676e-24
1.16644e-20
4.32455e-17
4.17164e-14
8.26281e-12
1.0453e-10
3.2277e-10
2.25109e-10
2.36392e-10
-7.40702e-10
6.87215e-05
0.831831
0.753185
8.36064e-05
0.000343993
3.84682e-06
2.82765e-06
0.000137657
-3.14848e-09
3.68634e-10
8.02205e-11
2.94361e-12
7.12397e-14
1.2927e-15
1.73636e-17
1.66123e-19
1.0968e-21
4.65897e-24
1.11213e-26
8.83237e-31
7.65961e-26
7.37838e-22
2.7783e-18
3.22388e-15
9.9316e-13
7.063e-11
7.23945e-11
1.13869e-10
1.7998e-10
6.00723e-11
1.90803e-09
-1.38202e-07
0.070311
9.2002e-05
0.000126304
0.000155103
3.51718e-05
0.000137657
7.82881e-06
7.44329e-10
1.67905e-10
6.16206e-12
1.21451e-13
1.70688e-15
2.0303e-17
1.99483e-19
1.42798e-21
6.57447e-24
1.74481e-26
4.25323e-32
4.35429e-27
3.9611e-23
1.40462e-19
1.70709e-16
6.83158e-14
8.27007e-12
1.48093e-11
4.1888e-11
7.81036e-11
5.73731e-11
6.18492e-11
3.77434e-11
4.59342e-12
8.61407e-13
0.000158451
0.000238063
0.00016114
0.000140625
1.20355e-07
5.2044e-10
3.0745e-10
1.4269e-11
3.09371e-13
4.00869e-15
3.69122e-17
2.90555e-19
1.96455e-21
9.41692e-24
2.53468e-26
1.35671e-33
1.8409e-28
1.71804e-24
5.95629e-21
7.11973e-18
3.18912e-15
5.54876e-13
2.38347e-12
9.81464e-12
2.00636e-11
5.04422e-12
6.08104e-11
1.2758e-10
2.48454e-11
6.49222e-14
2.76477e-05
3.23572e-05
6.98279e-05
7.74208e-05
8.80528e-08
6.98873e-10
2.96624e-10
1.43974e-11
3.79052e-13
5.74113e-15
5.33606e-17
3.40522e-19
1.68358e-21
6.46465e-24
1.53091e-26
2.73097e-35
5.24381e-30
5.373e-26
1.98242e-22
2.45266e-19
1.16956e-16
2.48449e-14
2.62133e-13
1.40931e-12
2.91732e-12
6.50911e-13
1.16785e-11
4.56497e-11
4.42355e-11
5.9046e-12
0.000689319
0.000308231
0.000174339
7.22049e-07
4.76991e-09
2.50342e-10
4.76946e-11
2.90024e-12
9.62386e-14
1.72549e-15
1.82536e-17
1.21305e-19
5.26039e-22
1.49192e-24
2.50798e-27
3.38816e-37
9.53995e-32
1.11476e-27
4.64294e-24
6.42286e-21
3.45491e-18
8.3332e-16
1.79925e-14
1.19964e-13
2.33899e-13
4.77173e-14
1.38163e-13
2.26891e-12
2.33776e-12
2.8636e-11
0.000488182
0.000672343
7.1225e-05
1.48108e-08
2.61711e-10
1.18454e-10
4.79936e-12
1.58538e-13
3.43622e-15
5.04355e-17
5.0527e-19
3.40372e-21
1.48644e-23
3.89162e-26
5.20193e-29
2.54417e-39
1.08108e-33
1.47303e-29
7.13337e-26
1.15293e-22
7.47364e-20
2.08412e-17
7.33798e-16
5.84868e-15
1.02465e-14
1.92505e-15
6.96847e-16
2.45844e-14
3.07156e-14
8.54327e-12
5.83469e-07
2.13956e-07
1.05817e-09
8.39226e-11
2.22251e-11
7.28505e-13
1.91064e-14
3.54467e-16
4.58915e-18
4.11019e-20
2.52963e-22
1.05222e-24
2.8848e-27
5.13938e-30
6.01689e-33
1.14366e-41
7.54161e-36
1.2192e-31
6.9708e-28
1.3382e-24
1.07531e-21
3.54474e-19
1.73119e-17
1.58876e-16
2.43426e-16
4.14585e-17
4.56461e-18
6.95969e-17
7.80281e-17
4.51396e-15
5.86121e-11
8.51007e-11
6.85207e-11
9.95776e-13
1.08132e-14
9.68281e-17
6.61163e-19
3.3862e-21
1.29971e-23
3.8016e-26
1.05387e-28
5.5532e-31
4.42148e-33
2.4452e-35
6.40902e-38
3.04252e-44
3.22091e-38
6.29163e-34
4.29365e-30
9.82912e-27
9.7915e-24
3.79653e-21
2.33013e-19
2.35667e-18
3.08824e-18
4.57532e-19
3.24452e-20
4.25405e-20
2.47937e-20
4.07913e-21
4.70862e-22
5.7932e-23
6.89484e-24
6.94634e-25
5.62036e-26
3.57224e-27
1.76531e-28
6.73617e-30
1.96675e-31
4.32367e-33
6.97507e-35
7.89488e-37
5.83437e-39
2.4829e-41
4.7613e-44
4.71519e-47
8.38361e-41
2.02475e-36
1.66859e-32
4.55366e-29
5.54093e-26
2.46882e-23
1.77765e-21
1.87941e-20
2.03545e-20
2.44559e-21
1.20381e-22
6.03248e-24
8.07185e-25
7.29625e-26
4.83438e-27
3.07993e-28
1.91166e-29
1.07223e-30
5.13923e-32
2.034e-33
6.49599e-35
1.64296e-36
3.22765e-38
4.80725e-40
5.25792e-42
4.01893e-44
1.98945e-46
5.59265e-49
6.88459e-52
4.14873e-50
1.3227e-43
4.07674e-39
4.12281e-35
1.3414e-31
1.94784e-28
9.65696e-26
7.68857e-24
7.97128e-23
6.74461e-23
5.8901e-24
1.83988e-25
3.61338e-27
5.85964e-29
9.60546e-31
1.83977e-32
4.22571e-34
1.07521e-35
2.74335e-37
6.49406e-39
1.35009e-40
2.36797e-42
3.39286e-44
3.85524e-46
3.36401e-48
2.16971e-50
9.78895e-53
2.84664e-55
4.6418e-58
3.21389e-61
1.97854e-53
1.25078e-46
5.15202e-42
6.55338e-38
2.55419e-34
4.29761e-31
2.2854e-28
1.89845e-26
1.78828e-25
1.07902e-25
5.8921e-27
1.03971e-28
1.15078e-30
1.05908e-32
9.58472e-35
9.42174e-37
1.02308e-38
1.17349e-40
1.335e-42
1.42369e-44
1.3617e-46
1.1276e-48
7.83793e-51
4.43408e-53
1.97078e-55
6.59487e-58
1.56356e-60
2.40314e-63
2.06188e-66
7.31625e-70
4.65756e-57
6.93041e-50
4.09407e-45
6.81275e-41
3.22609e-37
6.07961e-34
3.3366e-31
2.72651e-29
2.13762e-28
8.11754e-29
2.27422e-30
1.96928e-32
1.08859e-34
5.10421e-37
2.35093e-39
1.14041e-41
5.88443e-44
3.13644e-46
1.65068e-48
8.19136e-51
3.67968e-53
1.44397e-55
4.79012e-58
1.29939e-60
2.77578e-63
4.46429e-66
5.07355e-69
3.71542e-72
1.50051e-75
2.43267e-79
4.35873e-61
2.13952e-53
2.03456e-48
4.72544e-44
2.78651e-40
5.70377e-37
3.11156e-34
2.36202e-32
1.40837e-31
2.9014e-32
3.2395e-34
1.08608e-36
2.37224e-39
4.41257e-42
7.99353e-45
1.50303e-47
2.94959e-50
5.87178e-53
1.13974e-55
2.07385e-58
3.41588e-61
4.93467e-64
6.0638e-67
6.1343e-70
4.9156e-73
2.97698e-76
1.27502e-79
3.50711e-83
5.26733e-87
3.0915e-91
1.01728e-65
3.28486e-57
6.17861e-52
2.23744e-47
1.7243e-43
3.73311e-40
1.95989e-37
1.31588e-35
5.5643e-35
5.41437e-36
1.53906e-38
1.1133e-41
4.86917e-45
1.75764e-48
6.01274e-52
2.07096e-55
7.29041e-59
2.58686e-62
8.98387e-66
2.94693e-69
8.81227e-73
2.32244e-76
5.21976e-80
9.66678e-84
1.41793e-87
1.57067e-91
1.2285e-95
6.1512e-100
1.66888e-104
1.73058e-109
2.39115e-17
4.30789e-17
5.34924e-17
1.03653e-16
1.55979e-16
1.88663e-16
1.24951e-15
2.83033e-14
5.06378e-13
5.04023e-12
2.66792e-11
9.83449e-11
2.89961e-09
0.000254429
0.00139644
0.993059
1
1
1
1
1
1
1
1
1
1
0.90173
0.63436
0.375286
0.149444
8.44593e-18
1.50463e-17
1.69493e-17
3.04762e-17
4.48275e-17
7.35687e-17
1.12197e-15
3.02669e-14
5.46341e-13
5.34107e-12
2.80842e-11
1.06945e-10
4.91446e-10
-3.61682e-08
0.00117749
0.974723
1
1
1
1
1
1
1
1
0.782406
0.0707539
9.2873e-06
5.14982e-07
8.60084e-09
6.25425e-09
2.67543e-18
4.7118e-18
4.78496e-18
7.87154e-18
1.15173e-17
3.84068e-17
1.12972e-15
3.26579e-14
5.77461e-13
5.55028e-12
2.88648e-11
1.10532e-10
2.16081e-10
-2.08246e-09
1.449e-08
0.942698
1
1
1
1
1
1
1
0.306563
0.0236666
0.000724633
2.51968e-08
6.8815e-10
7.33435e-10
7.00042e-12
7.49691e-19
1.30512e-18
1.18828e-18
1.75915e-18
2.80885e-18
2.94991e-17
1.19127e-15
3.46239e-14
5.9402e-13
5.73195e-12
2.95024e-11
1.06732e-10
2.17672e-10
1.56951e-10
-8.32926e-10
0.923252
1
1
1
1
1
1
0.744541
0.0925367
0.000209462
0.000515443
1.06449e-08
8.93731e-11
4.16701e-12
3.09881e-14
1.82464e-19
3.14008e-19
2.5512e-19
3.3517e-19
8.55461e-19
2.83434e-17
1.25231e-15
3.55375e-14
6.00799e-13
6.1149e-12
3.14491e-11
9.99138e-11
1.8471e-10
1.45612e-10
-4.08957e-07
0.787715
0.999998
1
1
1
1
0.962756
0.521261
0.000345793
1.60966e-05
4.9464e-06
4.58138e-08
1.55666e-10
1.97922e-13
1.14841e-16
3.78689e-20
6.44282e-20
4.65657e-20
5.58271e-20
4.91879e-19
2.88349e-17
1.27664e-15
3.536e-14
6.2139e-13
7.16028e-12
3.73041e-11
9.98675e-11
1.55128e-10
2.04113e-09
-5.8841e-07
0.388854
0.999993
1
1
0.999993
1
0.893904
0.06139
3.55259e-05
1.31987e-06
8.94227e-05
3.76262e-06
6.0991e-11
4.72382e-13
4.93815e-17
6.51499e-21
1.09566e-20
7.0422e-21
1.05691e-20
4.36869e-19
2.88596e-17
1.25276e-15
3.51258e-14
7.07448e-13
9.59096e-12
5.02588e-11
1.13004e-10
1.68038e-10
3.65527e-10
-1.40791e-07
0.24096
0.999976
1
1
1
1
0.586456
0.00029676
2.88048e-06
2.5421e-07
0.000834282
4.69266e-05
7.45537e-11
4.25709e-13
2.7223e-17
9.00015e-22
1.49522e-21
8.70114e-22
4.62371e-21
4.20568e-19
2.78248e-17
1.20656e-15
3.74402e-14
9.46e-13
1.43323e-11
7.34264e-11
1.4171e-10
1.66331e-10
1.994e-09
1.98338e-10
0.107487
0.999962
1
1
1
0.982827
0.0458048
2.78409e-05
5.38754e-06
1.57142e-07
0.000839067
8.4184e-07
5.37624e-11
8.60508e-14
5.71032e-18
9.52698e-23
1.56119e-22
9.88497e-23
3.83448e-21
3.96215e-19
2.61711e-17
1.21334e-15
4.68539e-14
1.45914e-12
2.23761e-11
1.11367e-10
1.97737e-10
1.7424e-10
3.47766e-08
1.38681e-08
0.0256054
0.999897
1
1
1
0.605025
0.000162955
3.79312e-06
8.57919e-06
1.29356e-06
0.000726848
2.98123e-09
3.49734e-11
1.34438e-14
6.50495e-19
7.22513e-24
1.16686e-23
2.38257e-23
3.48595e-21
3.65556e-19
2.53218e-17
1.40282e-15
6.97735e-14
2.38171e-12
3.44598e-11
1.71557e-10
3.13278e-10
1.79693e-10
4.54563e-07
4.71118e-08
8.23869e-08
0.993966
1
1
1
0.0311346
6.21042e-06
7.81674e-07
1.3333e-05
8.324e-07
3.20763e-07
2.45076e-10
7.13663e-12
8.56558e-16
3.44952e-20
3.5433e-25
5.90459e-25
1.67463e-23
3.15603e-21
3.45927e-19
2.75317e-17
1.94651e-15
1.1297e-13
3.79327e-12
5.03556e-11
2.58025e-10
4.76203e-10
2.0364e-10
0.000281809
0.000127197
9.49774e-06
0.943216
1
1
0.797138
0.000119721
2.44428e-07
3.37443e-08
8.77385e-06
1.64689e-09
1.29964e-08
6.22771e-11
3.56745e-13
3.58068e-17
1.5751e-21
9.33929e-27
4.25426e-26
1.4503e-23
2.93453e-21
3.60772e-19
3.53683e-17
3.00121e-15
1.79196e-13
5.59624e-12
6.8046e-11
3.49122e-10
4.77224e-10
8.38286e-07
2.15182e-07
0.000287566
4.08609e-05
0.868134
0.999999
1
0.295526
2.76541e-05
5.09586e-08
6.28217e-09
1.36721e-05
1.78628e-10
1.26387e-10
2.95684e-11
1.23658e-14
1.78225e-18
1.76449e-22
9.78623e-29
2.3005e-26
1.29784e-23
2.94075e-21
4.29641e-19
5.04041e-17
4.56483e-15
2.59353e-13
7.3931e-12
8.37604e-11
3.9528e-10
2.51187e-09
5.41365e-08
3.45563e-07
0.000283676
4.47955e-05
0.732756
0.999992
0.999994
0.0788304
-1.88671e-07
3.45697e-09
1.78715e-08
1.88529e-06
5.20902e-11
4.15955e-11
7.88348e-13
7.25597e-16
2.59566e-19
3.68984e-23
9.84842e-30
1.837e-26
1.21424e-23
3.21265e-21
5.52035e-19
7.06695e-17
6.25369e-15
3.26063e-13
8.52451e-12
9.40168e-11
3.865e-10
3.80392e-10
3.13591e-07
5.01983e-07
0.000237589
0.000157082
0.625276
0.999972
0.999972
0.00393015
5.11948e-07
7.6738e-10
6.38362e-10
5.88215e-10
4.00132e-11
8.90322e-12
6.97779e-14
1.13008e-16
4.55505e-20
5.78338e-24
1.06584e-29
1.48623e-26
1.17628e-23
3.62632e-21
6.86477e-19
8.79433e-17
7.21729e-15
3.41497e-13
8.46241e-12
9.95139e-11
3.72088e-10
2.86326e-10
0.000140962
2.32894e-05
9.86063e-05
0.000258153
0.32525
0.999592
0.811865
3.31333e-05
3.53186e-07
3.90323e-10
3.55956e-10
2.98554e-10
2.1679e-11
1.71468e-12
1.0798e-14
1.61698e-17
5.60169e-21
6.19869e-25
1.51838e-29
1.16948e-26
1.12276e-23
3.87148e-21
7.4631e-19
8.95562e-17
6.61867e-15
2.90581e-13
7.5327e-12
1.07264e-10
3.82327e-10
5.02243e-10
0.000155692
9.55343e-06
0.000258522
4.5398e-05
0.0421121
0.996948
0.0642181
9.97735e-07
3.10036e-10
3.29712e-10
1.51163e-10
1.77711e-10
5.73304e-12
2.86075e-13
1.31892e-15
1.5751e-18
4.74556e-22
4.83374e-26
2.33243e-29
8.30662e-27
9.8311e-24
3.60849e-21
6.57996e-19
7.01827e-17
4.72546e-15
2.20044e-13
7.29556e-12
1.25266e-10
4.86408e-10
2.19889e-06
0.000158843
5.08625e-05
0.00025683
0.000111677
0.00014611
0.0375726
-1.89991e-06
7.59224e-05
4.713e-11
2.04838e-10
5.92281e-11
4.5267e-11
9.11027e-13
3.12667e-14
1.06863e-16
1.06165e-19
2.96485e-23
2.96737e-27
2.6053e-29
4.8506e-27
7.41082e-24
2.80195e-21
4.73843e-19
4.72285e-17
3.62191e-15
2.31423e-13
9.08559e-12
1.43362e-10
3.97882e-10
2.71948e-08
9.37974e-05
0.000175761
5.07149e-05
6.04728e-05
1.59243e-06
1.34948e-10
9.316e-07
4.61414e-11
4.60743e-11
9.38302e-11
1.81607e-11
6.69319e-12
9.67209e-14
2.17002e-15
5.98063e-18
5.33922e-21
1.45895e-24
1.45859e-28
1.28989e-29
2.16574e-27
3.9828e-24
1.31928e-21
2.1366e-19
2.67318e-17
2.84043e-15
1.99636e-13
7.19229e-12
1.17897e-10
3.76646e-10
1.18453e-08
3.30118e-05
0.000120844
0.000165708
2.75248e-05
6.21278e-11
2.06773e-10
4.02933e-10
4.73457e-11
1.15366e-11
2.56327e-11
3.81981e-12
6.39935e-13
7.45736e-15
1.03936e-16
2.51434e-19
2.11194e-22
5.61327e-26
5.37681e-30
1.51883e-30
3.02658e-28
4.66209e-25
1.8325e-22
4.06794e-20
6.25034e-18
6.56984e-16
4.33333e-14
1.68451e-12
4.45422e-11
2.50653e-10
7.9509e-09
4.778e-06
0.000232859
0.000173749
0.000294384
2.09251e-11
5.48039e-11
7.71977e-11
9.3281e-12
1.67849e-12
3.75321e-12
5.00593e-13
4.30831e-14
4.34474e-16
3.79331e-18
8.25575e-21
6.3898e-24
1.56856e-27
1.36351e-31
2.12629e-32
3.41294e-30
6.36669e-27
3.43354e-24
9.17135e-22
1.44414e-19
1.46845e-17
1.02781e-15
5.45256e-14
2.42644e-12
1.06109e-10
3.11781e-10
2.97064e-08
6.91635e-05
0.000565827
0.000204591
-3.5792e-11
2.7136e-12
3.67953e-12
7.14997e-14
1.34112e-13
2.96379e-13
3.87723e-14
2.068e-15
1.84904e-17
1.07282e-19
2.02014e-22
1.37044e-25
2.9576e-29
2.24286e-33
2.92714e-36
1.21273e-33
1.18486e-30
4.95723e-28
2.13533e-25
7.7671e-23
1.93209e-20
3.21802e-18
3.63053e-16
2.75511e-14
1.35559e-12
5.04045e-11
1.25124e-10
8.60659e-09
1.98735e-05
6.50805e-06
2.02326e-11
2.6553e-14
3.04599e-14
9.76885e-16
5.75167e-15
1.29067e-14
1.72734e-15
6.69448e-17
5.33895e-19
2.19256e-21
3.4142e-24
1.95797e-27
3.6012e-31
2.31935e-35
3.89474e-41
3.34162e-38
3.20288e-35
9.10459e-33
2.02553e-30
9.23798e-28
4.92974e-25
1.92168e-22
5.2253e-20
9.91162e-18
1.30154e-15
1.18996e-13
7.8051e-12
6.51786e-11
4.73321e-10
6.8421e-10
7.3939e-14
5.28905e-17
6.49109e-17
1.48631e-17
1.29397e-16
3.09283e-16
4.35887e-17
1.37399e-18
9.83085e-21
3.00491e-23
3.78439e-26
1.80291e-29
2.77198e-33
1.48287e-37
1.92e-47
3.28351e-44
3.88751e-41
1.34732e-38
2.28109e-36
2.30974e-34
1.56043e-32
8.77142e-31
1.95588e-28
1.46833e-25
9.96963e-23
5.08969e-20
2.19401e-17
1.23561e-14
8.46604e-12
6.91072e-22
3.92248e-21
1.48366e-20
3.1878e-20
1.32228e-19
1.48853e-18
4.00532e-18
6.17115e-19
1.7194e-20
1.11577e-22
2.65118e-25
2.68968e-28
1.05644e-31
1.33708e-35
5.80292e-40
1.59896e-55
6.33917e-52
1.03748e-48
5.19005e-46
1.27688e-43
1.8769e-41
1.82693e-39
1.25019e-37
6.24839e-36
2.33495e-34
6.64065e-33
1.45867e-31
2.52193e-30
3.54201e-29
4.28665e-28
4.99086e-27
6.10464e-26
8.96281e-25
2.11406e-23
5.54549e-22
8.44869e-21
2.73256e-20
4.8671e-21
1.28495e-22
7.6975e-25
1.48228e-27
1.21922e-30
3.9291e-34
4.02564e-38
1.37657e-42
3.86128e-65
3.63859e-61
9.08037e-58
7.31202e-55
2.96472e-52
7.32651e-50
1.22662e-47
1.48651e-45
1.36753e-43
9.90053e-42
5.83441e-40
2.8958e-38
1.26251e-36
5.1279e-35
2.1171e-33
9.9901e-32
5.78048e-30
3.77684e-28
2.27711e-26
9.97646e-25
2.25499e-23
9.58456e-23
2.13093e-23
5.69e-25
3.227e-27
5.25149e-30
3.54502e-33
9.31275e-37
7.55452e-41
1.95615e-45
5.3212e-74
1.82689e-69
7.95699e-66
1.17483e-62
8.93865e-60
4.22643e-57
1.3809e-54
3.33405e-52
6.24014e-50
9.37688e-48
1.16744e-45
1.24135e-43
1.16893e-41
1.02303e-39
8.86913e-38
8.19635e-36
8.43106e-34
9.25379e-32
9.40016e-30
7.07079e-28
2.67801e-26
1.71257e-25
5.18637e-26
1.49587e-27
8.29669e-30
1.18979e-32
6.69635e-36
1.41745e-39
8.81331e-44
1.63192e-48
1.38506e-83
1.21197e-78
1.02927e-74
3.06439e-71
4.74682e-68
4.58717e-65
3.07093e-62
1.52374e-59
5.88774e-57
1.83919e-54
4.80645e-52
1.08576e-49
2.19883e-47
4.16795e-45
7.76613e-43
1.49418e-40
3.04934e-38
6.42719e-36
1.25614e-33
1.84475e-31
1.35552e-29
1.55688e-28
7.10673e-29
2.3688e-30
1.3346e-32
1.75746e-35
8.39003e-39
1.40125e-42
6.35268e-47
7.70304e-52
1.44521e-95
3.20252e-90
6.82237e-86
5.23362e-82
2.11029e-78
5.34548e-75
9.442e-72
1.24445e-68
1.28586e-65
1.0806e-62
7.63305e-60
4.6723e-57
2.56241e-54
1.30884e-51
6.50153e-49
3.27802e-46
1.71601e-43
9.09107e-41
4.40951e-38
1.60813e-35
2.90873e-33
7.46191e-32
5.66811e-32
2.33025e-33
1.38788e-35
1.74344e-38
7.17883e-42
9.11522e-46
2.77854e-50
1.90298e-55
4.74134e-114
5.17729e-108
5.78021e-103
2.37172e-98
5.15473e-94
7.06711e-90
6.77476e-86
4.85708e-82
2.73693e-78
1.25868e-74
4.88974e-71
1.65697e-67
5.06653e-64
1.44952e-60
4.02029e-57
1.11345e-53
3.10919e-50
8.50579e-47
2.06576e-43
3.57756e-40
2.71515e-37
2.08231e-35
2.81902e-35
1.5032e-36
9.81271e-39
1.21443e-41
4.36624e-45
3.95073e-49
7.04101e-54
2.05428e-59
1
1
1
1
1
1
1
1
1
1
1
1
1
1
1
1
1
1
1
1
1
1
1
1
1
1
1
1
1
1
1
1
1
1
1
1
1
1
1
1
1
1
1
1
1
1
1
1
1
1
1
1
1
1
1
1
1
1
1
1
1
1
1
1
1
1
1
1
1
1
1
1
1
1
1
1
1
1
1
1
1
1
1
1
1
1
1
1
1
1
1
1
1
1
1
1
1
1
1
1
1
1
1
1
1
1
1
1
1
1
1
1
1
1
1
1
1
1
1
1
1
1
1
1
1
1
1
1
1
1
1
1
1
1
1
1
1
1
1
1
1
1
1
1
1
1
1
1
1
1
1
1
1
1
1
1
1
1
1
1
1
1
1
1
1
1
1
1
1
1
1
1
1
1
1
1
1
1
1
1
1
1
1
1
1
1
1
1
1
1
1
1
1
1
1
1
1
1
1
1
1
1
1
1
1
1
1
1
1
1
1
1
1
1
1
1
1
1
1
1
1
1
1
1
1
1
1
1
1
1
1
1
1
1
1
1
1
1
1
1
1
1
1
1
1
1
1
1
1
1
1
1
1
1
1
1
1
1
1
1
1
1
1
1
1
1
1
1
1
1
1
1
1
1
1
1
1
1
1
1
1
1
1
1
1
1
1
1
1
1
1
1
1
1
1
1
1
1
1
1
1
1
1
1
1
1
1
1
1
1
1
1
1
1
1
1
1
1
1
1
1
1
1
1
1
1
1
1
1
1
1
1
1
1
1
1
1
1
1
1
1
1
1
1
1
1
1
1
1
1
1
1
1
1
1
1
1
1
0.999999
0.999996
1
1
1
1
1
1
1
1
1
1
1
1
1
1
1
1
1
1
1
1
1
1
1
1
0.999995
0.957401
0.599314
0.248627
0.113864
0.0744461
1
1
1
1
1
1
1
1
1
1
1
1
1
1
1
1
1
1
1
1
1
1
0.999998
0.859424
0.218142
0.000209071
6.99773e-05
7.45613e-06
3.02963e-07
2.63218e-05
1
1
1
1
1
1
1
1
1
1
1
1
1
1
1
1
1
1
1
1
1
1
0.459027
0.000553352
0.000111282
2.52174e-06
5.05681e-05
5.63673e-08
1.33301e-06
5.16306e-05
1
1
1
1
1
1
1
1
1
1
1
1
1
1
1
1
1
1
1
1
0.999987
0.0982523
1.63005e-05
9.86315e-06