/*--------------------------------*- C++ -*----------------------------------*\
| =========                 |                                                 |
| \\      /  F ield         | OpenFOAM: The Open Source CFD Toolbox           |
|  \\    /   O peration     | Version:  2.4.0                                 |
|   \\  /    A nd           | Web:      www.OpenFOAM.org                      |
|    \\/     M anipulation  |                                                 |
\*---------------------------------------------------------------------------*/
FoamFile
{
    version     2.0;
    format      ascii;
    class       surfaceScalarField;
    location    "0.129";
    object      phi;
}
// * * * * * * * * * * * * * * * * * * * * * * * * * * * * * * * * * * * * * //

dimensions      [0 3 -1 0 0 0 0];

internalField   nonuniform List<scalar> 
119500
(
-1.72185e-13
1.72185e-13
-4.44318e-13
2.72446e-13
-7.67582e-13
3.23534e-13
-1.09807e-12
3.30761e-13
-1.43075e-12
3.32951e-13
-1.76309e-12
3.32622e-13
-2.09406e-12
3.31246e-13
-2.42144e-12
3.27659e-13
-2.74148e-12
3.20313e-13
-3.04991e-12
3.08701e-13
-3.34205e-12
2.92396e-13
-3.61292e-12
2.71106e-13
-3.85707e-12
2.44364e-13
-4.06883e-12
2.11931e-13
-4.24231e-12
1.73629e-13
-4.37187e-12
1.29663e-13
-4.45243e-12
8.06528e-14
-4.47994e-12
2.7579e-14
-4.45129e-12
-2.85779e-14
-4.36258e-12
-8.8658e-14
-4.21297e-12
-1.49574e-13
-4.00216e-12
-2.10804e-13
-3.73022e-12
-2.71964e-13
-3.39804e-12
-3.32234e-13
-3.00744e-12
-3.90701e-13
-2.56099e-12
-4.46573e-13
-2.06227e-12
-4.98865e-13
-1.51558e-12
-5.46845e-13
-9.25817e-13
-5.89908e-13
-2.98518e-13
-6.27412e-13
3.60229e-13
-6.58822e-13
1.04397e-12
-6.83786e-13
1.7461e-12
-7.02146e-13
2.45953e-12
-7.13459e-13
3.17761e-12
-7.18131e-13
3.89443e-12
-7.16918e-13
4.60176e-12
-7.07463e-13
5.29484e-12
-6.93264e-13
5.96753e-12
-6.72887e-13
6.61304e-12
-6.45723e-13
7.22705e-12
-6.14215e-13
7.80573e-12
-5.78853e-13
8.34472e-12
-5.3915e-13
8.84152e-12
-4.96935e-13
9.29487e-12
-4.53503e-13
9.70206e-12
-4.07372e-13
1.00644e-11
-3.62628e-13
1.03829e-11
-3.1879e-13
1.06578e-11
-2.75227e-13
1.08908e-11
-2.33336e-13
1.10838e-11
-1.93414e-13
1.1239e-11
-1.55704e-13
1.13598e-11
-1.21263e-13
1.14483e-11
-8.89142e-14
1.15058e-11
-5.79367e-14
1.15343e-11
-2.90259e-14
1.15349e-11
-1.10992e-15
1.15069e-11
2.75031e-14
1.1449e-11
5.73325e-14
1.13608e-11
8.76903e-14
1.12401e-11
1.20057e-13
1.10845e-11
1.54966e-13
1.08909e-11
1.92924e-13
1.06576e-11
2.3265e-13
1.03817e-11
2.75146e-13
1.00605e-11
3.20435e-13
9.69143e-12
3.68323e-13
9.27253e-12
4.18183e-13
8.80253e-12
4.69318e-13
8.28065e-12
5.21233e-13
7.70609e-12
5.73967e-13
7.07825e-12
6.27289e-13
6.3983e-12
6.79458e-13
5.66862e-12
7.29246e-13
4.89057e-12
7.7768e-13
4.06572e-12
8.24547e-13
3.19866e-12
8.66781e-13
2.29389e-12
9.045e-13
1.35577e-12
9.37829e-13
3.89054e-13
9.66395e-13
-6.01177e-13
9.89856e-13
-1.60987e-12
1.00827e-12
-2.63179e-12
1.02146e-12
-3.66157e-12
1.0293e-12
-4.69276e-12
1.0307e-12
-5.72134e-12
1.02809e-12
-6.74383e-12
1.02199e-12
-7.75728e-12
1.01296e-12
-8.75681e-12
9.99045e-13
-9.73968e-12
9.82404e-13
-1.07026e-11
9.62506e-13
-1.16435e-11
9.40512e-13
-1.25555e-11
9.11742e-13
-1.34424e-11
8.86661e-13
-1.42794e-11
8.36766e-13
-1.50981e-11
8.18419e-13
-1.58478e-11
7.49535e-13
-1.65833e-11
7.35217e-13
-1.71425e-11
5.58867e-13
4.2415e-13
-1.75669e-11
-3.40075e-13
5.12572e-13
-9.23389e-13
8.56304e-13
-1.57887e-12
9.79513e-13
-2.26164e-12
1.01403e-12
-2.94639e-12
1.0182e-12
-3.63034e-12
1.01709e-12
-4.31103e-12
1.01245e-12
-4.9857e-12
1.00283e-12
-5.65017e-12
9.85267e-13
-6.29917e-12
9.58167e-13
-6.92665e-12
9.20309e-13
-7.52561e-12
8.70451e-13
-8.08824e-12
8.07331e-13
-8.60648e-12
7.30448e-13
-9.07235e-12
6.39721e-13
-9.47757e-12
5.3507e-13
-9.81465e-12
4.17892e-13
-1.00767e-11
2.8974e-13
-1.02571e-11
1.51921e-13
-1.03506e-11
4.99461e-15
-1.03529e-11
-1.47287e-13
-1.02605e-11
-3.0323e-13
-1.00708e-11
-4.61725e-13
-9.78233e-12
-6.20894e-13
-9.39451e-12
-7.78726e-13
-8.90835e-12
-9.32976e-13
-8.32572e-12
-1.08174e-12
-7.64988e-12
-1.22291e-12
-6.8853e-12
-1.35467e-12
-6.03779e-12
-1.47504e-12
-5.11405e-12
-1.58263e-12
-4.12158e-12
-1.6763e-12
-3.06846e-12
-1.75533e-12
-1.96298e-12
-1.81906e-12
-8.14184e-13
-1.8671e-12
3.67878e-13
-1.89923e-12
1.57813e-12
-1.91802e-12
2.80321e-12
-1.91868e-12
4.03532e-12
-1.90535e-12
5.26183e-12
-1.87257e-12
6.47579e-12
-1.82847e-12
7.66881e-12
-1.77215e-12
8.8325e-12
-1.70311e-12
9.95991e-12
-1.62465e-12
1.10477e-11
-1.54163e-12
1.20894e-11
-1.4496e-12
1.30821e-11
-1.35587e-12
1.4024e-11
-1.26133e-12
1.49109e-11
-1.16287e-12
1.57437e-11
-1.06686e-12
1.65214e-11
-9.71884e-13
1.72454e-11
-8.80577e-13
1.79183e-11
-7.94939e-13
1.85403e-11
-7.11798e-13
1.91115e-11
-6.30037e-13
1.96336e-11
-5.52082e-13
2.01053e-11
-4.73785e-13
2.05259e-11
-3.94106e-13
2.08939e-11
-3.11689e-13
2.12068e-11
-2.26338e-13
2.14609e-11
-1.35222e-13
2.16527e-11
-3.80688e-14
2.17769e-11
6.74451e-14
2.18304e-11
1.77883e-13
2.18092e-11
2.95028e-13
2.17086e-11
4.19725e-13
2.15238e-11
5.51863e-13
2.12508e-11
6.89997e-13
2.08863e-11
8.32694e-13
2.04268e-11
9.79637e-13
1.98694e-11
1.13048e-12
1.92107e-11
1.28514e-12
1.84486e-11
1.44072e-12
1.75821e-11
1.59513e-12
1.66106e-11
1.74864e-12
1.55344e-11
1.90019e-12
1.43549e-11
2.04571e-12
1.30756e-11
2.18324e-12
1.17009e-11
2.31188e-12
1.0235e-11
2.43155e-12
8.68261e-12
2.54148e-12
7.0487e-12
2.64135e-12
5.33737e-12
2.73195e-12
3.55234e-12
2.81348e-12
1.69886e-12
2.88332e-12
-2.16975e-13
2.94307e-12
-2.19256e-12
2.99673e-12
-4.22193e-12
3.04152e-12
-6.30071e-12
3.07707e-12
-8.4216e-12
3.10262e-12
-1.0579e-11
3.11935e-12
-1.27644e-11
3.12535e-12
-1.49697e-11
3.1166e-12
-1.71842e-11
3.10081e-12
-1.93891e-11
3.04115e-12
-2.15814e-11
3.01021e-12
-2.37097e-11
2.87735e-12
-2.57374e-11
2.7625e-12
-2.74e-11
2.22106e-12
1.26126e-12
-2.82374e-11
-4.28467e-13
9.4131e-13
-1.15949e-12
1.58781e-12
-1.97865e-12
1.79911e-12
-2.83003e-12
1.86586e-12
-3.68784e-12
1.87647e-12
-4.54439e-12
1.87411e-12
-5.39718e-12
1.86571e-12
-6.24333e-12
1.84945e-12
-7.07877e-12
1.82117e-12
-7.89805e-12
1.7779e-12
-8.69479e-12
1.71747e-12
-9.46186e-12
1.63791e-12
-1.01913e-11
1.53714e-12
-1.08747e-11
1.41414e-12
-1.15036e-11
1.26888e-12
-1.20694e-11
1.10111e-12
-1.25638e-11
9.12547e-13
-1.29793e-11
7.05421e-13
-1.33087e-11
4.81449e-13
-1.35465e-11
2.42893e-13
-1.36871e-11
-6.51332e-15
-1.3726e-11
-2.64366e-13
-1.36596e-11
-5.28076e-13
-1.34858e-11
-7.94836e-13
-1.32031e-11
-1.06154e-12
-1.28116e-11
-1.32463e-12
-1.23123e-11
-1.58114e-12
-1.17078e-11
-1.82754e-12
-1.1002e-11
-2.06061e-12
-1.01996e-11
-2.27751e-12
-9.3067e-12
-2.47555e-12
-8.33002e-12
-2.65301e-12
-7.27716e-12
-2.80824e-12
-6.15585e-12
-2.94044e-12
-4.97442e-12
-3.04865e-12
-3.74108e-12
-3.13273e-12
-2.46687e-12
-3.19244e-12
-1.16043e-12
-3.22536e-12
1.64188e-13
-3.23021e-12
1.50663e-12
-3.21526e-12
2.85292e-12
-3.175e-12
4.19013e-12
-3.10959e-12
5.51597e-12
-3.02918e-12
6.81823e-12
-2.9272e-12
8.09384e-12
-2.81759e-12
9.33554e-12
-2.69172e-12
1.05388e-11
-2.55966e-12
1.16999e-11
-2.42295e-12
1.28171e-11
-2.28066e-12
1.38864e-11
-2.13689e-12
1.49111e-11
-1.99723e-12
1.58885e-11
-1.85877e-12
1.68194e-11
-1.7266e-12
1.77043e-11
-1.59751e-12
1.85424e-11
-1.46894e-12
1.93335e-11
-1.34407e-12
2.00759e-11
-1.21703e-12
2.07678e-11
-1.08692e-12
2.14064e-11
-9.51222e-13
2.19886e-11
-8.09564e-13
2.25097e-11
-6.57307e-13
2.2965e-11
-4.94378e-13
2.33497e-11
-3.18358e-13
2.36572e-11
-1.30626e-13
2.38831e-11
6.80127e-14
2.40218e-11
2.80039e-13
2.40667e-11
5.06058e-13
2.40127e-11
7.43077e-13
2.38549e-11
9.89599e-13
2.35884e-11
1.2453e-12
2.32083e-11
1.50981e-12
2.27102e-11
1.7825e-12
2.20897e-11
2.06057e-12
2.13424e-11
2.34183e-12
2.04669e-11
2.62363e-12
1.94627e-11
2.90381e-12
1.83292e-11
3.17867e-12
1.70667e-11
3.44507e-12
1.56775e-11
3.70053e-12
1.41633e-11
3.94506e-12
1.25265e-11
4.1777e-12
1.07694e-11
4.39783e-12
8.89504e-12
4.60562e-12
6.90513e-12
4.80276e-12
4.80093e-12
4.98692e-12
2.58514e-12
5.15828e-12
2.61618e-13
5.3197e-12
-2.16527e-12
5.46789e-12
-4.69125e-12
5.60257e-12
-7.31092e-12
5.72185e-12
-1.00173e-11
5.82532e-12
-1.28025e-11
5.91016e-12
-1.56525e-11
5.96616e-12
-1.85581e-11
6.00596e-12
-2.15021e-11
5.98467e-12
-2.44624e-11
5.97007e-12
-2.73884e-11
5.80293e-12
-3.01829e-11
5.55656e-12
-3.24788e-11
4.5167e-12
2.45747e-12
-3.36753e-11
-4.83331e-13
1.42489e-12
-1.26104e-12
2.36598e-12
-2.15065e-12
2.68915e-12
-3.072e-12
2.78764e-12
-4.00252e-12
2.80745e-12
-4.93357e-12
2.80564e-12
-5.86225e-12
2.79487e-12
-6.78527e-12
2.77296e-12
-7.69831e-12
2.73471e-12
-8.59579e-12
2.67587e-12
-9.4711e-12
2.59325e-12
-1.0317e-11
2.48427e-12
-1.11256e-11
2.34611e-12
-1.18881e-11
2.17708e-12
-1.25959e-11
1.97699e-12
-1.32403e-11
1.74582e-12
-1.38128e-11
1.48541e-12
-1.43057e-11
1.19857e-12
-1.47118e-11
8.87727e-13
-1.50249e-11
5.56239e-13
-1.52396e-11
2.08305e-13
-1.53508e-11
-1.53051e-13
-1.53551e-11
-5.23683e-13
-1.52502e-11
-8.99751e-13
-1.50344e-11
-1.27736e-12
-1.47078e-11
-1.65124e-12
-1.42716e-11
-2.01739e-12
-1.3728e-11
-2.3712e-12
-1.30808e-11
-2.70786e-12
-1.23343e-11
-3.0241e-12
-1.1494e-11
-3.31584e-12
-1.05663e-11
-3.58064e-12
-9.5584e-12
-3.8162e-12
-8.4781e-12
-4.02078e-12
-7.33328e-12
-4.19354e-12
-6.13289e-12
-4.33323e-12
-4.88663e-12
-4.43884e-12
-3.60403e-12
-4.50812e-12
-2.29294e-12
-4.54149e-12
-9.67112e-13
-4.54128e-12
3.64544e-13
-4.50686e-12
1.70404e-12
-4.44932e-12
3.03141e-12
-4.35681e-12
4.34624e-12
-4.24233e-12
5.63746e-12
-4.10917e-12
6.90142e-12
-3.9561e-12
8.13286e-12
-3.79159e-12
9.32826e-12
-3.61889e-12
1.04858e-11
-3.43883e-12
1.16065e-11
-3.25823e-12
1.26854e-11
-3.07682e-12
1.37259e-11
-2.90001e-12
1.4725e-11
-2.72651e-12
1.56836e-11
-2.55694e-12
1.66007e-11
-2.38689e-12
1.74761e-11
-2.22033e-12
1.83074e-11
-2.04917e-12
1.90927e-11
-1.87318e-12
1.98298e-11
-1.68917e-12
2.0514e-11
-1.49473e-12
2.11411e-11
-1.28528e-12
2.17061e-11
-1.06026e-12
2.22035e-11
-8.16684e-13
2.2627e-11
-5.54957e-13
2.29697e-11
-2.75536e-13
2.32252e-11
2.36906e-14
2.33873e-11
3.43219e-13
2.34489e-11
6.80665e-13
2.34044e-11
1.03345e-12
2.32473e-11
1.40165e-12
2.29721e-11
1.78438e-12
2.25734e-11
2.18057e-12
2.20466e-11
2.5867e-12
2.13873e-11
3.00052e-12
2.05919e-11
3.41837e-12
1.96585e-11
3.83661e-12
1.85853e-11
4.25118e-12
1.73716e-11
4.65818e-12
1.60165e-11
5.05497e-12
1.45205e-11
5.4405e-12
1.28844e-11
5.81327e-12
1.11084e-11
6.17329e-12
9.19405e-12
6.51955e-12
7.14319e-12
6.8532e-12
4.95597e-12
7.17375e-12
2.63245e-12
7.48145e-12
1.74431e-13
7.7774e-12
-2.41462e-12
8.05665e-12
-5.13257e-12
8.32023e-12
-7.97381e-12
8.56279e-12
-1.09316e-11
8.78281e-12
-1.39955e-11
8.9736e-12
-1.71588e-11
9.12903e-12
-2.04039e-11
9.25058e-12
-2.37127e-11
9.29301e-12
-2.70578e-11
9.31482e-12
-3.03872e-11
9.13193e-12
-3.35703e-11
8.7394e-12
-3.6251e-11
7.19711e-12
3.97542e-12
-3.77692e-11
-5.01332e-13
1.92647e-12
-1.30653e-12
3.17163e-12
-2.21797e-12
3.60103e-12
-3.16448e-12
3.7346e-12
-4.12257e-12
3.76601e-12
-5.08335e-12
3.76692e-12
-6.04352e-12
3.75556e-12
-6.99953e-12
3.7295e-12
-7.94684e-12
3.68256e-12
-8.87978e-12
3.60934e-12
-9.79153e-12
3.50554e-12
-1.06745e-11
3.36771e-12
-1.15204e-11
3.19253e-12
-1.23205e-11
2.97769e-12
-1.30658e-11
2.72264e-12
-1.37473e-11
2.42781e-12
-1.43569e-11
2.09531e-12
-1.48862e-11
1.72827e-12
-1.53282e-11
1.32999e-12
-1.56763e-11
9.04619e-13
-1.59249e-11
4.57123e-13
-1.60692e-11
-8.53319e-15
-1.61055e-11
-4.87237e-13
-1.60316e-11
-9.73528e-13
-1.58464e-11
-1.46258e-12
-1.55494e-11
-1.94811e-12
-1.51426e-11
-2.42423e-12
-1.46279e-11
-2.88584e-12
-1.40089e-11
-3.32688e-12
-1.32902e-11
-3.74269e-12
-1.24766e-11
-4.12943e-12
-1.15752e-11
-4.48208e-12
-1.0592e-11
-4.79939e-12
-9.53561e-12
-5.07724e-12
-8.41367e-12
-5.31551e-12
-7.23603e-12
-5.51093e-12
-6.01137e-12
-5.66359e-12
-4.75038e-12
-5.76923e-12
-3.46056e-12
-5.83145e-12
-2.15368e-12
-5.84834e-12
-8.36626e-13
-5.82414e-12
4.78338e-13
-5.76454e-12
1.79204e-12
-5.67079e-12
3.08972e-12
-5.54035e-12
4.36727e-12
-5.3871e-12
5.61762e-12
-5.20689e-12
6.8418e-12
-5.01627e-12
8.03011e-12
-4.80774e-12
9.18467e-12
-4.59398e-12
1.0303e-11
-4.37723e-12
1.13857e-11
-4.16021e-12
1.24303e-11
-3.94535e-12
1.34377e-11
-3.73479e-12
1.44059e-11
-3.52598e-12
1.53377e-11
-3.31964e-12
1.62295e-11
-3.11305e-12
1.70799e-11
-2.9005e-12
1.7888e-11
-2.68219e-12
1.86497e-11
-2.45167e-12
1.93613e-11
-2.20724e-12
2.00203e-11
-1.94502e-12
2.06202e-11
-1.66093e-12
2.11557e-11
-1.35295e-12
2.16202e-11
-1.02016e-12
2.20062e-11
-6.62252e-13
2.23065e-11
-2.77241e-13
2.2514e-11
1.35109e-13
2.26225e-11
5.71543e-13
2.26241e-11
1.0313e-12
2.25117e-11
1.51336e-12
2.22793e-11
2.01619e-12
2.1922e-11
2.53723e-12
2.1434e-11
3.07395e-12
2.08117e-11
3.62214e-12
2.00509e-11
4.17855e-12
1.91486e-11
4.73814e-12
1.81026e-11
5.29651e-12
1.69107e-11
5.84951e-12
1.55717e-11
6.39347e-12
1.4085e-11
6.92662e-12
1.24498e-11
7.44807e-12
1.06661e-11
7.95662e-12
8.7341e-12
8.45127e-12
6.6549e-12
8.93214e-12
4.42883e-12
9.39961e-12
2.05574e-12
9.85437e-12
-4.63073e-13
1.02961e-11
-3.12619e-12
1.07196e-11
-5.93046e-12
1.11243e-11
-8.8745e-12
1.15066e-11
-1.19496e-11
1.18576e-11
-1.51511e-11
1.21747e-11
-1.84679e-11
1.24454e-11
-2.18804e-11
1.26626e-11
-2.53722e-11
1.27845e-11
-2.89082e-11
1.28505e-11
-3.24335e-11
1.2657e-11
-3.57937e-11
1.20994e-11
-3.86242e-11
1.00273e-11
5.45888e-12
-4.0108e-11
-5.0888e-13
2.4356e-12
-1.3252e-12
3.98842e-12
-2.244e-12
4.52027e-12
-3.19763e-12
4.6887e-12
-4.16501e-12
4.73388e-12
-5.13744e-12
4.73987e-12
-6.11127e-12
4.72994e-12
-7.08276e-12
4.70154e-12
-8.04711e-12
4.64747e-12
-8.99848e-12
4.56128e-12
-9.92982e-12
4.43746e-12
-1.08332e-11
4.27165e-12
-1.17e-11
4.05991e-12
-1.25212e-11
3.79936e-12
-1.32872e-11
3.48915e-12
-1.39892e-11
3.13026e-12
-1.46186e-11
2.72517e-12
-1.51671e-11
2.27716e-12
-1.56273e-11
1.79059e-12
-1.59927e-11
1.27034e-12
-1.62571e-11
7.2181e-13
-1.64162e-11
1.5075e-13
-1.6466e-11
-4.37158e-13
-1.64043e-11
-1.03508e-12
-1.62304e-11
-1.63632e-12
-1.5944e-11
-2.23437e-12
-1.55466e-11
-2.82148e-12
-1.5041e-11
-3.39128e-12
-1.44301e-11
-3.93772e-12
-1.37191e-11
-4.4537e-12
-1.29125e-11
-4.936e-12
-1.2017e-11
-5.37761e-12
-1.10393e-11
-5.77705e-12
-9.9875e-12
-6.12911e-12
-8.87003e-12
-6.43302e-12
-7.69649e-12
-6.68452e-12
-6.47668e-12
-6.88348e-12
-5.21978e-12
-7.02624e-12
-3.93582e-12
-7.11556e-12
-2.63399e-12
-7.15036e-12
-1.32263e-12
-7.13574e-12
-1.21929e-14
-7.07526e-12
1.28986e-12
-6.97318e-12
2.58335e-12
-6.8342e-12
3.85291e-12
-6.65708e-12
5.09876e-12
-6.45318e-12
6.31414e-12
-6.23214e-12
7.49784e-12
-5.99198e-12
8.64714e-12
-5.74387e-12
9.76285e-12
-5.49358e-12
1.08417e-11
-5.2398e-12
1.18841e-11
-4.98858e-12
1.28899e-11
-4.74145e-12
1.38597e-11
-4.49662e-12
1.47912e-11
-4.25208e-12
1.56855e-11
-4.00835e-12
1.65402e-11
-3.75603e-12
1.73533e-11
-3.49621e-12
1.81229e-11
-3.22209e-12
1.88446e-11
-2.92964e-12
1.95143e-11
-2.61547e-12
2.01277e-11
-2.27496e-12
2.06787e-11
-1.90456e-12
2.11606e-11
-1.5026e-12
2.15655e-11
-1.06773e-12
2.18858e-11
-5.98046e-13
2.21139e-11
-9.35068e-14
2.22423e-11
4.42617e-13
2.22634e-11
1.00964e-12
2.21702e-11
1.60598e-12
2.19558e-11
2.22992e-12
2.16152e-11
2.87722e-12
2.11428e-11
3.54564e-12
2.05341e-11
4.2301e-12
1.97857e-11
4.92624e-12
1.88943e-11
5.62884e-12
1.78571e-11
6.33316e-12
1.66718e-11
7.03419e-12
1.53366e-11
7.72828e-12
1.38503e-11
8.41246e-12
1.22121e-11
9.08603e-12
1.0421e-11
9.74737e-12
8.47751e-12
1.03946e-11
6.38239e-12
1.10271e-11
4.13513e-12
1.16467e-11
1.73574e-12
1.22537e-11
-8.15237e-13
1.28469e-11
-3.51463e-12
1.34189e-11
-6.36395e-12
1.39735e-11
-9.35772e-12
1.45001e-11
-1.24931e-11
1.49926e-11
-1.57623e-11
1.54436e-11
-1.91537e-11
1.58363e-11
-2.2653e-11
1.61616e-11
-2.62391e-11
1.63703e-11
-2.98756e-11
1.64868e-11
-3.35033e-11
1.62844e-11
-3.69531e-11
1.55491e-11
-3.98405e-11
1.29144e-11
6.93983e-12
-4.13218e-11
-5.11564e-13
2.94742e-12
-1.33225e-12
4.80957e-12
-2.2532e-12
5.44167e-12
-3.20817e-12
5.64414e-12
-4.17892e-12
5.70514e-12
-5.15721e-12
5.71869e-12
-6.13902e-12
5.71229e-12
-7.12036e-12
5.68345e-12
-8.0963e-12
5.62398e-12
-9.06081e-12
5.52637e-12
-1.00066e-11
5.3838e-12
-1.09252e-11
5.19086e-12
-1.18077e-11
4.943e-12
-1.26446e-11
4.63682e-12
-1.34261e-11
4.27116e-12
-1.41431e-11
3.84776e-12
-1.47871e-11
3.36962e-12
-1.53492e-11
2.83968e-12
-1.58217e-11
2.26342e-12
-1.61981e-11
1.64707e-12
-1.64719e-11
9.95959e-13
-1.66385e-11
3.17695e-13
-1.66947e-11
-3.80713e-13
-1.66377e-11
-1.09176e-12
-1.6467e-11
-1.80677e-12
-1.61828e-11
-2.5184e-12
-1.5786e-11
-3.21805e-12
-1.52798e-11
-3.89735e-12
-1.46673e-11
-4.55005e-12
-1.3953e-11
-5.16795e-12
-1.31428e-11
-5.74619e-12
-1.22421e-11
-6.27835e-12
-1.12588e-11
-6.76043e-12
-1.02002e-11
-7.18783e-12
-9.07608e-12
-7.55721e-12
-7.8948e-12
-7.86589e-12
-6.6682e-12
-8.11018e-12
-5.40417e-12
-8.29039e-12
-4.1136e-12
-8.40631e-12
-2.80623e-12
-8.45796e-12
-1.48996e-12
-8.4523e-12
-1.74299e-13
-8.39124e-12
1.13234e-12
-8.28019e-12
2.42363e-12
-8.12589e-12
3.69478e-12
-7.92867e-12
4.94009e-12
-7.69894e-12
6.15706e-12
-7.4496e-12
7.34051e-12
-7.17595e-12
8.49021e-12
-6.89415e-12
9.60401e-12
-6.60804e-12
1.06814e-11
-6.31792e-12
1.17235e-11
-6.03154e-12
1.27291e-11
-5.74789e-12
1.36979e-11
-5.46634e-12
1.46313e-11
-5.18636e-12
1.55269e-11
-4.90478e-12
1.63857e-11
-4.61565e-12
1.72038e-11
-4.31515e-12
1.79796e-11
-3.99863e-12
1.87095e-11
-3.6602e-12
1.93887e-11
-3.29526e-12
2.0013e-11
-2.89982e-12
2.05758e-11
-2.46786e-12
2.10703e-11
-1.99753e-12
2.14885e-11
-1.48636e-12
2.18222e-11
-9.32246e-13
2.2064e-11
-3.35792e-13
2.22056e-11
3.00479e-13
2.22395e-11
9.75135e-13
2.21583e-11
1.68659e-12
2.19556e-11
2.43209e-12
2.16249e-11
3.20724e-12
2.1161e-11
4.00888e-12
2.05596e-11
4.83082e-12
1.98169e-11
5.66821e-12
1.893e-11
6.51512e-12
1.78958e-11
7.36684e-12
1.67121e-11
8.21744e-12
1.53768e-11
9.06315e-12
1.38891e-11
9.89994e-12
1.22474e-11
1.07274e-11
1.04516e-11
1.15429e-11
8.50203e-12
1.2344e-11
6.39818e-12
1.31308e-11
4.1395e-12
1.39053e-11
1.72603e-12
1.4667e-11
-8.43486e-13
1.54163e-11
-3.56321e-12
1.61384e-11
-6.43612e-12
1.68462e-11
-9.45699e-12
1.75207e-11
-1.26232e-11
1.81585e-11
-1.59277e-11
1.87478e-11
-1.93634e-11
1.92717e-11
-2.29132e-11
1.97113e-11
-2.65576e-11
2.00145e-11
-3.02599e-11
2.0189e-11
-3.39585e-11
1.99829e-11
-3.7479e-11
1.90694e-11
-4.04204e-11
1.58555e-11
8.45784e-12
-4.19389e-11
-5.11667e-13
3.45934e-12
-1.33332e-12
5.6317e-12
-2.25439e-12
6.3632e-12
-3.20938e-12
6.59962e-12
-4.182e-12
6.67826e-12
-5.16458e-12
6.70179e-12
-6.15299e-12
6.70122e-12
-7.14319e-12
6.67418e-12
-8.12992e-12
6.61125e-12
-9.10687e-12
6.50387e-12
-1.00666e-11
6.34404e-12
-1.10001e-11
6.12495e-12
-1.18979e-11
5.84133e-12
-1.27502e-11
5.4897e-12
-1.35472e-11
5.06861e-12
-1.42791e-11
4.58012e-12
-1.49371e-11
4.02807e-12
-1.55122e-11
3.41522e-12
-1.5996e-11
2.74755e-12
-1.63817e-11
2.0332e-12
-1.66635e-11
1.27803e-12
-1.6836e-11
4.90529e-13
-1.6896e-11
-3.20339e-13
-1.68415e-11
-1.14591e-12
-1.66712e-11
-1.97677e-12
-1.63855e-11
-2.80376e-12
-1.59859e-11
-3.61738e-12
-1.54746e-11
-4.40851e-12
-1.4856e-11
-5.1685e-12
-1.41336e-11
-5.89035e-12
-1.3314e-11
-6.56585e-12
-1.24026e-11
-7.18985e-12
-1.14074e-11
-7.75578e-12
-1.03359e-11
-8.25944e-12
-9.19845e-12
-8.69485e-12
-8.00375e-12
-9.06074e-12
-6.76278e-12
-9.35129e-12
-5.48535e-12
-9.568e-12
-4.18162e-12
-9.71026e-12
-2.86108e-12
-9.77877e-12
-1.5337e-12
-9.78e-12
-2.07694e-13
-9.71762e-12
1.10744e-12
-9.59573e-12
2.40647e-12
-9.42534e-12
3.68279e-12
-9.20544e-12
4.93333e-12
-8.94994e-12
6.15056e-12
-8.66731e-12
7.33718e-12
-8.36308e-12
8.48771e-12
-8.04525e-12
9.60089e-12
-7.72186e-12
1.06805e-11
-7.3982e-12
1.17224e-11
-7.0742e-12
1.27279e-11
-6.7543e-12
1.36975e-11
-6.43674e-12
1.46324e-11
-6.12205e-12
1.55304e-11
-5.80355e-12
1.63933e-11
-5.47933e-12
1.72163e-11
-5.13885e-12
1.79996e-11
-4.78258e-12
1.87374e-11
-4.39857e-12
1.94272e-11
-3.98561e-12
2.00623e-11
-3.53534e-12
2.06367e-11
-3.04269e-12
2.11435e-11
-2.50483e-12
2.1575e-11
-1.91831e-12
2.19221e-11
-1.2798e-12
2.21766e-11
-5.90851e-13
2.23311e-11
1.45455e-13
2.23774e-11
9.28274e-13
2.23083e-11
1.7551e-12
2.21157e-11
2.62413e-12
2.17941e-11
3.52821e-12
2.13378e-11
4.46457e-12
2.07423e-11
5.42573e-12
2.00041e-11
6.40578e-12
1.91201e-11
7.39861e-12
1.80876e-11
8.39889e-12
1.69044e-11
9.40023e-12
1.55687e-11
1.03985e-11
1.40791e-11
1.13893e-11
1.24348e-11
1.23714e-11
1.06359e-11
1.33415e-11
8.68251e-12
1.42971e-11
6.57357e-12
1.52394e-11
4.30884e-12
1.61697e-11
1.88896e-12
1.70865e-11
-6.81451e-13
1.79864e-11
-3.41981e-12
1.88765e-11
-6.30611e-12
1.97322e-11
-9.34456e-12
2.05589e-11
-1.25317e-11
2.13454e-11
-1.58625e-11
2.20785e-11
-1.93274e-11
2.27365e-11
-2.29143e-11
2.32981e-11
-2.66048e-11
2.37049e-11
-3.03627e-11
2.39469e-11
-3.41278e-11
2.37477e-11
-3.77257e-11
2.26671e-11
-4.07356e-11
1.8865e-11
1.00216e-11
-4.22998e-11
-5.10172e-13
3.96977e-12
-1.33039e-12
6.4524e-12
-2.25048e-12
7.28375e-12
-3.20554e-12
7.55515e-12
-4.18001e-12
7.65321e-12
-5.16693e-12
7.68919e-12
-6.16214e-12
7.6969e-12
-7.16166e-12
7.67417e-12
-8.16002e-12
7.61009e-12
-9.15043e-12
7.49476e-12
-1.01252e-11
7.31926e-12
-1.10751e-11
7.07537e-12
-1.19899e-11
6.75658e-12
-1.28593e-11
6.35961e-12
-1.36735e-11
5.88323e-12
-1.44222e-11
5.32924e-12
-1.50956e-11
4.70184e-12
-1.56846e-11
4.00466e-12
-1.61808e-11
3.24406e-12
-1.65765e-11
2.42929e-12
-1.68662e-11
1.56803e-12
-1.70448e-11
6.69545e-13
-1.71084e-11
-2.56432e-13
-1.70556e-11
-1.19836e-12
-1.68849e-11
-2.14708e-12
-1.65964e-11
-3.09192e-12
-1.61923e-11
-4.0212e-12
-1.56743e-11
-4.92631e-12
-1.50468e-11
-5.79588e-12
-1.4314e-11
-6.62317e-12
-1.34816e-11
-7.39843e-12
-1.25562e-11
-8.11546e-12
-1.15452e-11
-8.76698e-12
-1.04576e-11
-9.34729e-12
-9.30226e-12
-9.85038e-12
-8.09025e-12
-1.02729e-11
-6.83134e-12
-1.06104e-11
-5.53582e-12
-1.08638e-11
-4.21468e-12
-1.10317e-11
-2.87735e-12
-1.11164e-11
-1.53405e-12
-1.11237e-11
-1.94227e-13
-1.10579e-11
1.1335e-12
-1.09239e-11
2.44121e-12
-1.07335e-11
3.72579e-12
-1.04905e-11
4.98267e-12
-1.02073e-11
6.20478e-12
-9.8899e-12
7.39341e-12
-9.55222e-12
8.54547e-12
-9.19786e-12
9.66032e-12
-8.83732e-12
1.07387e-11
-8.47726e-12
1.17806e-11
-8.11682e-12
1.27864e-11
-7.76072e-12
1.37559e-11
-7.40697e-12
1.46926e-11
-7.05949e-12
1.55939e-11
-6.7055e-12
1.64599e-11
-6.34596e-12
1.7289e-11
-5.96852e-12
1.80785e-11
-5.57265e-12
1.88253e-11
-5.14588e-12
1.95249e-11
-4.68568e-12
2.01714e-11
-4.18225e-12
2.07585e-11
-3.63029e-12
2.1279e-11
-3.02581e-12
2.17237e-11
-2.36354e-12
2.20847e-11
-1.64131e-12
2.23541e-11
-8.60824e-13
2.25236e-11
-2.45978e-14
2.25839e-11
8.67407e-13
2.25264e-11
1.81206e-12
2.23449e-11
2.80509e-12
2.2032e-11
3.84057e-12
2.15836e-11
4.91246e-12
2.09944e-11
6.01441e-12
2.02606e-11
7.13911e-12
1.93795e-11
8.27929e-12
1.83483e-11
9.42966e-12
1.71653e-11
1.05828e-11
1.58288e-11
1.17346e-11
1.43373e-11
1.28803e-11
1.26908e-11
1.40175e-11
1.08894e-11
1.51426e-11
8.93254e-12
1.62536e-11
6.81992e-12
1.73516e-11
4.55128e-12
1.84379e-11
2.12619e-12
1.95112e-11
-4.56758e-13
2.05689e-11
-3.19372e-12
2.16131e-11
-6.08816e-12
2.26263e-11
-9.1388e-12
2.36093e-11
-1.23415e-11
2.4548e-11
-1.56935e-11
2.54303e-11
-1.9186e-11
2.62289e-11
-2.28096e-11
2.69216e-11
-2.65478e-11
2.7443e-11
-3.03659e-11
2.77647e-11
-3.42051e-11
2.75866e-11
-3.78921e-11
2.63537e-11
-4.09847e-11
2.19573e-11
1.16102e-11
-4.25738e-11
-5.07293e-13
4.47732e-12
-1.32415e-12
7.26974e-12
-2.24235e-12
8.20241e-12
-3.19779e-12
8.51103e-12
-4.17448e-12
8.63034e-12
-5.16626e-12
8.68139e-12
-6.16902e-12
8.70006e-12
-7.17876e-12
8.6843e-12
-8.19004e-12
8.62176e-12
-9.19573e-12
8.50083e-12
-1.01875e-11
8.31139e-12
-1.11558e-11
8.04414e-12
-1.20901e-11
7.69122e-12
-1.29792e-11
7.24914e-12
-1.38129e-11
6.71729e-12
-1.45807e-11
6.09742e-12
-1.52718e-11
5.39325e-12
-1.58764e-11
4.6096e-12
-1.63864e-11
3.7544e-12
-1.67938e-11
2.83697e-12
-1.70921e-11
1.86674e-12
-1.72773e-11
8.55056e-13
-1.73452e-11
-1.88155e-13
-1.72937e-11
-1.24952e-12
-1.71221e-11
-2.31823e-12
-1.68306e-11
-3.38318e-12
-1.64206e-11
-4.43088e-12
-1.58952e-11
-5.45155e-12
-1.52572e-11
-6.43387e-12
-1.4512e-11
-7.36836e-12
-1.36648e-11
-8.24589e-12
-1.27228e-11
-9.0577e-12
-1.16934e-11
-9.79663e-12
-1.05866e-11
-1.04544e-11
-9.4112e-12
-1.10261e-11
-8.17831e-12
-1.15061e-11
-6.89854e-12
-1.18905e-11
-5.58213e-12
-1.21805e-11
-4.2402e-12
-1.23739e-11
-2.88345e-12
-1.24735e-11
-1.52223e-12
-1.24853e-11
-1.66562e-13
-1.2414e-11
1.17568e-12
-1.22666e-11
2.49417e-12
-1.20525e-11
3.78868e-12
-1.17854e-11
5.05352e-12
-1.14726e-11
6.28196e-12
-1.11188e-11
7.47352e-12
-1.07443e-11
8.62742e-12
-1.03523e-11
9.74322e-12
-9.95368e-12
1.082e-11
-9.55458e-12
1.18621e-11
-9.15951e-12
1.28675e-11
-8.76671e-12
1.38382e-11
-8.37818e-12
1.47748e-11
-7.99667e-12
1.56782e-11
-7.60936e-12
1.65475e-11
-7.21576e-12
1.73823e-11
-6.80376e-12
1.81789e-11
-6.36977e-12
1.8935e-11
-5.90248e-12
1.96451e-11
-5.39625e-12
2.03034e-11
-4.84112e-12
2.09045e-11
-4.23197e-12
2.1439e-11
-3.56078e-12
2.18979e-11
-2.82303e-12
2.22737e-11
-2.01767e-12
2.25591e-11
-1.14676e-12
2.27441e-11
-2.10113e-13
2.28194e-11
7.91607e-13
2.27762e-11
1.85479e-12
2.26069e-11
2.97391e-12
2.2305e-11
4.14195e-12
2.18651e-11
5.35199e-12
2.12826e-11
6.59647e-12
2.05541e-11
7.86711e-12
1.96759e-11
9.15701e-12
1.86463e-11
1.04588e-11
1.74635e-11
1.1765e-11
1.61262e-11
1.30715e-11
1.46332e-11
1.43728e-11
1.2985e-11
1.56653e-11
1.11812e-11
1.69458e-11
9.22144e-12
1.82128e-11
7.10551e-12
1.9467e-11
4.83339e-12
2.07094e-11
2.40403e-12
2.19399e-11
-1.82925e-13
2.31553e-11
-2.92569e-12
2.43554e-11
-5.82814e-12
2.55284e-11
-8.88807e-12
2.6669e-11
-1.21071e-11
2.77669e-11
-1.54792e-11
2.88024e-11
-1.90037e-11
2.97532e-11
-2.26672e-11
3.05849e-11
-2.64583e-11
3.12337e-11
-3.03455e-11
3.16515e-11
-3.42723e-11
3.15129e-11
-3.80675e-11
3.01485e-11
-4.12625e-11
2.51519e-11
1.32435e-11
-4.28963e-11
-5.02952e-13
4.98053e-12
-1.31488e-12
8.08215e-12
-2.23024e-12
9.1182e-12
-3.18629e-12
9.4675e-12
-4.16548e-12
9.60992e-12
-5.16257e-12
9.67883e-12
-6.17378e-12
9.71159e-12
-7.19498e-12
9.70579e-12
-8.22071e-12
9.64778e-12
-9.24375e-12
9.52415e-12
-1.0255e-11
9.3229e-12
-1.12442e-11
9.03367e-12
-1.22005e-11
8.6478e-12
-1.31124e-11
8.16131e-12
-1.39684e-11
7.57361e-12
-1.47576e-11
6.88695e-12
-1.54688e-11
6.1048e-12
-1.60913e-11
5.23242e-12
-1.66167e-11
4.28008e-12
-1.70372e-11
3.25777e-12
-1.73458e-11
2.17565e-12
-1.7538e-11
1.04764e-12
-1.76106e-11
-1.15248e-13
-1.75608e-11
-1.29897e-12
-1.73879e-11
-2.49077e-12
-1.70929e-11
-3.67785e-12
-1.66764e-11
-4.8472e-12
-1.61421e-11
-5.98572e-12
-1.54926e-11
-7.08333e-12
-1.47332e-11
-8.12789e-12
-1.38694e-11
-9.10984e-12
-1.29087e-11
-1.00188e-11
-1.1859e-11
-1.08466e-11
-1.07303e-11
-1.15834e-11
-9.53233e-12
-1.22244e-11
-8.27569e-12
-1.2763e-11
-6.97194e-12
-1.31945e-11
-5.63173e-12
-1.3521e-11
-4.26676e-12
-1.37393e-11
-2.88753e-12
-1.38532e-11
-1.50572e-12
-1.38675e-11
-1.31529e-13
-1.37886e-11
1.22704e-12
-1.36256e-11
2.56122e-12
-1.33871e-11
3.86653e-12
-1.30912e-11
5.13848e-12
-1.2745e-11
6.37299e-12
-1.23538e-11
7.56843e-12
-1.19402e-11
8.72424e-12
-1.15086e-11
9.84036e-12
-1.10703e-11
1.09172e-11
-1.06319e-11
1.19555e-11
-1.01982e-11
1.29606e-11
-9.77221e-12
1.39308e-11
-9.34879e-12
1.48672e-11
-8.93346e-12
1.5773e-11
-8.51544e-12
1.66452e-11
-8.08839e-12
1.74863e-11
-7.64533e-12
1.82904e-11
-7.17436e-12
1.90563e-11
-6.66888e-12
1.97773e-11
-6.11776e-12
2.04498e-11
-5.51419e-12
2.10646e-11
-4.84738e-12
2.16133e-11
-4.11011e-12
2.20891e-11
-3.29938e-12
2.24827e-11
-2.41176e-12
2.27856e-11
-1.45018e-12
2.29876e-11
-4.12592e-13
2.30785e-11
7.00213e-13
2.30498e-11
1.88309e-12
2.28944e-11
3.1289e-12
2.26046e-11
4.43128e-12
2.21748e-11
5.78138e-12
2.16002e-11
7.17061e-12
2.08771e-11
8.58972e-12
2.00026e-11
1.00309e-11
1.89751e-11
1.14858e-11
1.77928e-11
1.29467e-11
1.64548e-11
1.44088e-11
1.49609e-11
1.58661e-11
1.33114e-11
1.73142e-11
1.15057e-11
1.87508e-11
9.54339e-12
2.01746e-11
7.42491e-12
2.15848e-11
5.14995e-12
2.29837e-11
2.71737e-12
2.43719e-11
1.26739e-13
2.57454e-11
-2.62157e-12
2.71032e-11
-5.53215e-12
2.84386e-11
-8.605e-12
2.97416e-11
-1.18397e-11
3.10013e-11
-1.52371e-11
3.21995e-11
-1.87913e-11
3.33071e-11
-2.24985e-11
3.42917e-11
-2.6348e-11
3.50827e-11
-3.03129e-11
3.56159e-11
-3.434e-11
3.55395e-11
-3.82599e-11
3.4068e-11
-4.15794e-11
2.8471e-11
1.4939e-11
-4.32752e-11
-4.97048e-13
5.47784e-12
-1.30283e-12
8.88842e-12
-2.21422e-12
1.003e-11
-3.17073e-12
1.04244e-11
-4.15254e-12
1.05921e-11
-5.15528e-12
1.06819e-11
-6.17583e-12
1.07324e-11
-7.21002e-12
1.07402e-11
-8.25208e-12
1.069e-11
-9.29457e-12
1.05668e-11
-1.03279e-11
1.03564e-11
-1.13408e-11
1.00468e-11
-1.23219e-11
9.62913e-12
-1.32594e-11
9.09912e-12
-1.4141e-11
8.45544e-12
-1.49543e-11
7.70052e-12
-1.56879e-11
6.83871e-12
-1.63308e-11
5.87567e-12
-1.68736e-11
4.82316e-12
-1.73085e-11
3.69295e-12
-1.76288e-11
2.49625e-12
-1.78292e-11
1.24835e-12
-1.79066e-11
-3.74518e-14
-1.78589e-11
-1.34635e-12
-1.76846e-11
-2.66477e-12
-1.73853e-11
-3.97695e-12
-1.69618e-11
-5.27048e-12
-1.6417e-11
-6.53044e-12
-1.57548e-11
-7.74556e-12
-1.49793e-11
-8.90344e-12
-1.40973e-11
-9.99208e-12
-1.31157e-11
-1.10007e-11
-1.20434e-11
-1.19191e-11
-1.08906e-11
-1.27365e-11
-9.66704e-12
-1.34482e-11
-8.38429e-12
-1.40461e-11
-7.0538e-12
-1.45253e-11
-5.68725e-12
-1.48879e-11
-4.29663e-12
-1.51302e-11
-2.89288e-12
-1.52573e-11
-1.48786e-12
-1.5273e-11
-9.20041e-14
-1.51849e-11
1.28196e-12
-1.50001e-11
2.63525e-12
-1.47409e-11
3.95367e-12
-1.44101e-11
5.23488e-12
-1.40267e-11
6.47624e-12
-1.35956e-11
7.67594e-12
-1.31404e-11
8.83336e-12
-1.26664e-11
9.94914e-12
-1.21864e-11
1.10249e-11
-1.17079e-11
1.20622e-11
-1.12358e-11
1.30638e-11
-1.07741e-11
1.40327e-11
-1.0318e-11
1.49694e-11
-9.87032e-12
1.5877e-11
-9.42337e-12
1.67542e-11
-8.96592e-12
1.76005e-11
-8.49199e-12
1.84136e-11
-7.98796e-12
1.91904e-11
-7.44619e-12
1.99256e-11
-6.85359e-12
2.06128e-11
-6.202e-12
2.12443e-11
-5.47946e-12
2.18143e-11
-4.68071e-12
2.23115e-11
-3.79709e-12
2.27262e-11
-2.82695e-12
2.30486e-11
-1.77296e-12
2.32684e-11
-6.32806e-13
2.33763e-11
5.91953e-13
2.3363e-11
1.89591e-12
2.3221e-11
3.2705e-12
2.29431e-11
4.70877e-12
2.25233e-11
6.20074e-12
2.19565e-11
7.73687e-12
2.1239e-11
9.30657e-12