/*--------------------------------*- C++ -*----------------------------------*\
| =========                 |                                                 |
| \\      /  F ield         | OpenFOAM: The Open Source CFD Toolbox           |
|  \\    /   O peration     | Version:  2.4.0                                 |
|   \\  /    A nd           | Web:      www.OpenFOAM.org                      |
|    \\/     M anipulation  |                                                 |
\*---------------------------------------------------------------------------*/
FoamFile
{
    version     2.0;
    format      ascii;
    class       volScalarField;
    location    "0.036";
    object      alpha.water;
}
// * * * * * * * * * * * * * * * * * * * * * * * * * * * * * * * * * * * * * //

dimensions      [0 0 0 0 0 0 0];

internalField   nonuniform List<scalar> 
3600
(
1
1
1
1
1
1
1
1
1
1
1
1
1
1
1
1
1
1
1
1
1
1
1
1
1
1
1
1
1
1
1
1
1
1
1
1
1
1
1
1
1
1
1
1
1
1
1
1
1
1
1
1
1
1
1
1
1
1
1
1
1
1
1
1
1
1
1
1
1
1
1
1
1
1
1
1
1
1
1
1
1
1
1
1
1
1
1
1
1
1
1
1
1
1
1
1
1
1
1
1
1
1
1
1
1
1
1
1
1
1
1
1
1
1
1
1
1
1
1
1
1
1
1
1
1
1
1
1
1
1
1
1
1
1
1
1
1
1
1
1
1
1
1
1
1
1
1
1
1
1
1
1
1
1
1
1
1
1
1
1
1
1
1
1
1
1
1
1
1
1
1
1
1
1
1
1
1
1
1
1
1
1
1
1
1
1
1
1
1
1
1
1
1
1
1
1
1
1
1
1
1
1
1
1
1
1
1
1
1
1
1
1
1
1
1
1
1
1
1
1
1
1
1
1
1
1
1
1
1
1
1
1
1
1
1
1
1
1
1
1
1
1
1
1
1
1
1
1
1
1
1
1
1
1
1
1
1
1
1
1
1
1
1
1
1
1
1
1
1
1
1
1
1
1
1
1
1
1
1
1
1
1
1
1
1
1
1
1
1
1
1
1
1
1
1
1
1
1
1
1
1
1
1
1
1
1
1
1
1
1
1
1
1
1
1
1
1
1
1
1
1
1
1
1
1
1
1
1
1
1
1
1
1
1
1
1
1
1
1
1
1
1
1
1
1
1
1
1
1
1
1
1
1
1
1
1
1
1
1
1
1
1
1
1
1
1
1
1
1
1
1
1
1
1
1
1
1
1
1
1
1
1
1
1
1
1
1
1
1
1
1
1
1
1
1
1
1
1
1
1
1
1
1
1
1
1
1
1
1
1
1
1
1
1
1
1
1
1
1
1
1
1
1
1
1
1
1
1
1
1
1
1
1
1
1
1
1
1
1
1
1
1
1
1
1
1
1
1
1
1
1
1
1
1
1
1
1
1
1
1
1
1
1
1
1
1
1
1
1
1
1
1
1
1
1
1
1
1
1
1
1
1
1
1
1
1
1
1
1
1
1
1
1
1
1
1
1
1
1
1
1
1
1
1
1
1
1
1
1
1
1
1
1
1
1
1
1
1
1
1
1
1
1
1
1
1
1
1
1
1
1
1
1
1
1
1
1
1
1
1
1
1
1
1
1
1
1
1
1
1
1
1
1
1
1
1
1
1
1
1
1
1
1
1
1
1
1
1
1
1
1
1
1
1
1
1
1
1
1
1
1
1
1
1
1
1
1
1
1
1
1
1
1
1
1
1
1
1
1
0.999999
1
1
1
1
1
1
1
1
1
1
1
1
1
1
1
1
1
1
1
1
1
1
1
1
1
1
1
1
1
0.999995
1
1
1
1
1
1
1
1
1
1
1
1
1
1
1
1
1
1
1
1
1
1
0.99999
0.997591
1
1
0.982404
0.986695
0.999498
1
1
1
1
1
1
1
1
1
1
1
1
1
1
1
1
1
1
1
1
1
1
1
0.988581
0.997589
0.861368
0.50818
0.462552
0.437888
0.792389
0.708049
1
1
1
1
1
1
1
1
1
1
1
1
1
1
1
1
1
1
1
1
0.867319
0.911498
0.979369
0.892999
0.310669
0.147329
0.280003
0.23038
0.221941
0.122194
1
1
1
1
1
1
1
1
1
1
1
1
1
1
1
1
0.999994
0.99997
1
1
0.624271
0.817479
0.637004
0.124081
0.142256
0.147344
0.201726
0.161828
0.161748
0.176049
1
1
1
1
1
1
1
1
1
1
1
1
1
1
1
1
1
0.999999
1
0.912981
0.445743
0.406254
0.258778
0.017387
0.045729
0.156938
0.166175
0.195868
0.258169
0.188371
1
1
1
1
1
1
1
1
1
1
1
1
1
1
1
1
0.999928
0.999994
1
0.553581
0.0150108
0.016246
0.0199427
0.0173293
0.0207898
0.163533
0.191619
0.192739
0.111048
0.11665
1
1
1
1
1
1
1
1
1
1
0.999994
0.991313
0.999815
1
0.999589
0.993393
0.997237
0.999993
0.979218
0.262134
0.0149627
0.022278
0.0170091
0.0231415
0.0332675
0.0414474
0.122599
0.111918
0.0821869
0.170982
0.999998
1
1
1
1
1
1
1
0.983223
1
0.926145
0.565267
0.99534
1
0.622339
0.811587
0.999936
0.999992
0.907942
0.359542
0.373357
0.158641
0.011421
0.0113642
0.0113441
0.0113645
0.0113707
0.0156654
0.240861
0.890136
1
0.895061
0.97672
0.999977
1
0.999866
0.99695
0.997307
0.835173
0.619036
0.523299
0.20437
0.551047
0.603836
0.143574
0.599385
0.97588
0.999992
0.963833
0.64189
0.842239
0.0344565
0.0113666
0.0113443
0.0113295
0.0115418
0.0397054
0.222669
0.873678
0.976579
1
1
1
1
1
1
1
1
1
1
1
1
1
1
1
1
1
1
1
1
1
1
1
1
1
1
1
1
1
1
1
1
1
1
1
1
1
1
1
1
1
1
1
1
1
1
1
1
1
1
1
1
1
1
1
1
1
1
1
1
1
1
1
1
1
1
1
1
1
1
1
1
1
1
1
1
1
1
1
1
1
1
1
1
1
1
1
1
1
1
1
1
1
1
1
1
1
1
1
1
1
1
1
1
1
1
1
1
1
1
1
1
1
1
1
1
1
1
1
1
1
1
1
1
1
1
1
1
1
1
1
1
1
1
1
1
1
1
1
1
1
1
1
1
1
1
1
1
1
1
1
1
1
1
1
1
1
1
1
1
1
1
1
1
1
1
1
1
1
1
1
1
1
1
1
1
1
1
1
1
1
1
1
1
1
1
1
1
1
1
1
1
1
1
1
1
1
1
1
1
1
1
1
1
1
1
1
1
1
1
1
1
1
1
1
1
1
1
1
1
1
1
1
1
1
1
1
1
1
1
1
1
1
1
1
1
1
1
1
1
1
1
1
1
1
1
1
1
1
1
1
1
1
1
1
1
1
1
1
1
1
1
1
1
1
1
1
1
1
1
1
1
1
1
1
1
1
1
1
1
1
1
1
1
1
1
1
1
1
1
1
1
1
1
1
1
1
1
1
1
1
1
1
1
1
1
1
1
1
1
1
1
1
1
1
1
1
1
1
1
1
1
1
1
1
1
1
1
1
1
1
1
1
1
1
1
1
1
1
1
1
1
1
1
1
1
1
1
1
1
1
1
1
1
1
1
1
1
1
1
1
1
1
1
1
1
1
1
1
1
1
1
1
1
1
1
1
1
1
1
1
1
1
1
1
1
1
1
1
1
1
1
1
1
1
1
1
1
1
1
1
1
1
1
1
1
1
1
1
1
1
1
1
1
1
1
1
1
1
1
1
1
1
1
1
1
1
1
1
1
1
1
1
1
1
1
1
1
1
1
1
1
1
1
1
1
1
1
1
1
1
1
1
1
1
1
1
1
1
1
1
1
1
1
1
1
1
1
1
1
1
1
1
1
1
1
1
1
1
1
1
1
1
1
1
1
1
1
1
1
1
1
1
1
1
1
1
1
1
1
1
1
1
1
1
1
1
1
1
1
1
1
1
1
1
1
1
1
1
1
1
1
1
1
1
1
1
1
1
1
1
1
1
1
1
1
1
1
1
1
1
0.999999
1
1
1
1
1
1
1
1
1
1
1
1
1
1
1
1
1
1
1
1
1
1
1
1
1
1
1
1
0.99999
0.999995
1
1
1
1
1
1
1
1
1
1
1
1
1
1
1
1
1
1
1
1
1
1
1
1
1
1
1
1
0.999991
1
1
1
1
1
1
1
1
1
1
1
1
1
1
1
1
1
1
1
1
1
1
1
1
1
1
1
1
1
1
1
1
1
1
0.996778
0.997965
0.994548
0.998834
1
1
1
1
1
1
1
1
1
1
1
1
1
1
1
1
1
1
1
1
1
0.826431
0.804763
0.73698
0.715633
0.806369
0.918892
0.932732
0.938591
0.991812
1
1
1
1
1
1
1
1
1
1
1
1
1
1
1
1
1
1
1
1
1
0.134462
0.0557072
0.0821405
0.11957
0.390063
0.704105
0.95935
0.974815
0.966078
0.982412
1
1
1
0.999998
1
1
1
1
1
1
1
1
1
1
1
1
1
1
1
1
0.190449
0.0283942
0.028394
0.028419
0.29621
0.788301
0.83494
0.485433
0.288857
0.449
0.925327
0.998264
0.999379
0.999987
1
1
1
1
1
1
1
1
1
1
1
1
1
1
1
1
0.344276
0.371126
0.253094
0.0322385
0.0352325
0.132609
0.377293
0.104341
0.00108911
0.00108911
0.316986
0.926483
0.99713
1
1
1
1
1
1
1
1
1
1
1
1
1
1
1
1
1
0.252935
0.709469
0.875414
0.752927
0.385633
0.0107314
0.00193383
0.00111703
0.0010881
0.0128762
0.132471
0.853438
0.999998
0.999998
1
1
1
1
1
1
1
1
1
1
1
1
1
1
1
1
0.716585
0.947528
0.880499
0.629208
0.392198
0.0283223
0.00169748
0.00109628
0.00110165
0.0160296
0.304481
0.769944
0.999998
0.999999
1
1
1
0.999987
0.988414
1
1
1
1
1
1
1
1
1
1
1
0.938883
0.980297
0.98202
0.982357
0.982174
0.671945
0.149679
0.00112005
0.00109863
0.0129983
0.0996221
0.127786
0.774519
0.999976
0.908861
0.951781
1
0.965883
0.476407
0.913814
0.99806
0.985118
0.999666
1
1
1
1
1
1
0.999999
0.983729
0.983825
0.9835
0.983352
0.735755
0.00150067
0.00719562
0.00121968
0.00280936
0.0181166
0.0178227
0.0508806
0.445737
0.54341
0.161215
0.244399
0.810144
0.679829
0.107862
0.119131
0.340989
0.656627
0.954886
0.982145
0.999993
1
1
1
0.866535
0.999999
0.924806
0.302413
0.948372
0.999974
0.997077
0.873488
0.641756
0.598205
0.835056
0.0587096
0.000520987
0.080836
0.313815
0.382864
0.0105177
0.00184298
0.314622
0.662747
0.931235
0.904708
0.768166
0.0140747
0.0121102
0.0113362
0.0113417
0.0254767
0.538879
0.775689
0.981653
0.950547
0.501547
0.303069
0.999927
0.999928
0.997082
0.805529
0.230746
0.0830555
0.73666
0.0266579
0.000313446
0.0378402
0.219365
0.326681
0.00446614
0.00107562
0.0460553
0.546771
0.945649
0.959955
0.960006
0.448376
0.0127263
0.0113358
0.0113096
0.0433471
0.633199
0.975235
0.982012
0.950372
0.0582104
0.292008
0.877784
0.999927
0.998053
0.794462
0.0638922
0.0123994
0.5026
0.0139926
0.000232124
0.0144952
0.0437388
0.158876
0.00126909
0.00066981
0.0353206
0.410398
0.902643
0.960006
0.921996
0.309225
0.127265
0.0119819
0.0117624
0.0683146
0.668516
0.98207
0.982064
0.950372
0.0181071
0.116512
0.687318
0.999926
0.996319
0.771258
0.00354898
0.000431521
0.0902741
0.000232124
0.000232124
0.00547401
0.00645347
0.0016497
0.00176168
0.000501123
0.00118862
0.0561042
0.647826
0.959823
0.955507
0.634333
0.218189
0.0145317
0.0295274
0.154172
0.695016
0.982053
0.982064
0.950418
0.0028741
0.0752064
0.54247
0.999924
0.99023
0.660868
0.020026
0.00010859
9.09776e-05
0.000234131
0.000232109
0.000274606
0.00925519
0.000728319
0.00170613
0.000208592
0.000345057
0.0164018
0.700424
0.957288
0.955274
0.677976
0.283018
0.0147905
0.0915954
0.221726
0.699013
0.981995
0.982053
0.951113
0.000483258
0.0496867
0.461566
0.968633
0.979372
0.498061
0.00914742
4.43249e-05
6.85841e-06
0.000363104
0.000232241
0.000652019
0.00978288
0.000630154
0.00107794
0.000197411
0.000129528
0.0125611
0.535786
0.954922
0.955606
0.844441
0.377849
0.0242786
0.0313642
0.187121
0.736771
0.976692
0.974852
0.972613
0.0002123
0.0361359
0.397178
0.873986
0.949618
0.376299
0.00817902
6.2484e-06
2.14413e-06
0.000363104
0.000269078
0.000563874
0.00922463
0.00031408
0.000157744
0.00015207
0.000119772
0.113734
0.55381
0.954408
0.956288
0.783943
0.148453
0.0287002
0.0372085
0.493616
0.951639
0.974164
0.962739
0.993341
8.62187e-05
0.0232193
0.310366
0.804201
0.912424
0.318781
0.00330501
1.2373e-06
1.71438e-06
0.000173859
0.000446119
0.000469081
0.00744767
0.000338771
0.000624574
0.000193294
0.000111883
0.18075
0.45342
0.955058
0.956288
0.926208
0.0632207
0.0108613
0.0157007
0.361137
0.948042
0.964871
0.962818
0.993338
4.20733e-05
0.00886325
0.240951
0.768032
0.853592
0.220242
7.95439e-07
1.23877e-06
1.76773e-06
1.30504e-06
0.000491882
0.000472195
0.00945182
0.0262711
0.00524471
0.000111883
0.000105826
0.182643
0.304849
0.884277
0.956288
0.417908
0.00516287
0.00469884
0.113109
0.637941
0.965562
0.962031
0.986425
0.993349
2.72829e-05
0.00192592
0.218458
0.662044
0.741343
0.142116
7.8903e-07
1.19962e-06
1.19735e-06
1.20976e-06
0.000338727
0.000485972
0.00900034
0.0311839
0.00372993
9.88214e-05
0.000102632
0.229117
0.131774
0.363036
0.679623
0.180286
0.00464575
0.0046723
0.0178639
0.739934
0.965664
0.962372
0.993343
0.993349
2.64102e-06
0.00458669
0.175187
0.585345
0.641624
0.125135
7.83603e-07
9.6329e-07
9.22958e-06
5.18456e-06
0.00034308
0.000649217
0.0189339
0.0311839
0.00490342
8.86817e-05
9.66276e-05
0.311483
0.0951056
0.0379819
0.292885
0.029017
0.00464575
0.00464575
0.2951
0.993877
0.974759
0.962187
0.993327
0.991667
9.56036e-07
0.000700778
0.0906683
0.475847
0.52164
0.0741793
7.7751e-07
7.74138e-07
3.75023e-05
5.0292e-05
0.000117028
8.83701e-05
0.0218107
0.0311842
0.00916776
8.30666e-05
8.87239e-05
0.313346
0.0735809
0.0358856
0.0755589
0.041768
0.00464575
0.0213334
0.531782
0.997867
0.991481
0.962244
0.997606
0.992161
4.95562e-07
9.56035e-07
0.0715682
0.4247
0.493607
0.0803226
6.91432e-07
7.7523e-07
1.37975e-05
5.18475e-05
2.4445e-05
7.67293e-05
0.0177306
0.0311721
0.00816023
4.74982e-05
0.000108167
0.361245
0.0599392
0.0335898
0.077829
0.00458373
0.00647491
0.333277
0.86804
0.997869
0.997867
0.993404
0.99775
0.996729
1.7017e-07
3.36988e-07
0.0435738
0.317742
0.430073
0.0383996
5.94889e-07
5.77479e-07
4.87669e-06
5.18513e-05
2.42618e-05
2.43974e-05
0.00692861
0.0284505
0.00172531
2.17706e-05
0.00755651
0.35784
0.0575046
0.00805521
0.0528563
0.00458373
0.00458373
0.629439
0.653646
0.997868
0.99787
0.997866
0.997787
0.991033
1.86431e-08
9.57369e-08
0.0316977
0.258031
0.353298
0.00123253
3.64519e-05
2.45817e-07
1.16096e-05
1.87439e-05
1.8867e-05
0.000253338
0.0160166
0.025154
0.00184628
1.04364e-05
0.000943525
0.214218
0.0223547
0.00160651
0.00311305
0.0044435
0.168074
0.949183
0.831261
0.997362
0.99787
0.99787
0.997864
0.886719
1.68533e-08
4.23286e-06
4.37083e-06
0.0903076
0.200276
4.51256e-09
4.57243e-09
2.36477e-07
1.84335e-06
1.69865e-06
0.00115738
0.000264083
0.0143722
0.0229693
0.00158656
6.05134e-06
0.000652756
0.00274115
0.0011635
0.00128977
0.00125489
0.0144425
0.522702
0.996016
0.976673
0.996716
0.99787
0.997727
0.985182
0.487737
1.42945e-09
3.01699e-09
0.00408738
0.032576
0.040618
4.48835e-09
5.91689e-07
6.58678e-07
3.02431e-06
1.6967e-06
0.00202599
0.000268918
0.00708093
0.0107986
0.000433999
2.33756e-06
0.000182602
0.000385768
0.00104763
0.00113348
0.00115556
0.0253674
0.626636
0.996051
0.995538
0.993502
0.997754
0.99708
0.951123
0.270624
1.42324e-09
5.3911e-07
2.80274e-11
7.94664e-12
1.32724e-11
4.53475e-09
1.6997e-11
8.30116e-07
3.87806e-05
1.69992e-06
0.00362044
0.000277928
0.0115592
0.00620208
0.000161938
1.62493e-07
0.000122428
0.00141901
0.00113348
0.00167763
0.00144443
0.0608443
0.773158
0.996081
0.996105
0.994668
0.996539
0.996768
0.710458
0.000129935
6.80779e-11
2.95274e-09
1.53295e-11
1.42334e-11
1.32724e-11
1.02582e-09
1.04737e-11
3.15275e-08
6.92282e-06
1.77251e-06
0.00645018
0.00754662
0.0123996
0.0030419
1.62481e-07
1.30848e-08
7.9308e-07
0.00243137
0.00420069
0.00329067
0.00168711
0.0331748
0.686466
0.996117
0.99614
0.996217
0.996466
0.977876
0.38403
9.77761e-05
2.56486e-12
3.49121e-12
1.50155e-11
1.64855e-11
1.80421e-11
1.0197e-11
1.0161e-11
1.0141e-11
1.12145e-11
0.000227225
0.00391688
0.0139263
0.0106019
0.000205333
1.1906e-08
6.09242e-10
3.97042e-09
0.00100016
0.00944236
0.00793878
0.00182929
0.0873161
0.817398
0.996081
0.951542
0.938391
0.996132
0.848555
0.131202
9.68112e-05
1.1565e-13
3.01343e-12
4.06593e-11
5.73936e-11
2.28592e-11
1.36535e-11
7.48124e-12
9.66372e-12
3.71092e-11
0.000118975
0.00188266
0.0139533
0.000532402
2.2465e-09
2.6488e-11
4.67178e-10
6.05548e-10
3.8326e-06
0.00946182
0.00946622
0.00785768
0.00746141
0.677314
0.995679
0.920656
0.895957
0.968112
0.616869
0.0130313
9.66732e-05
5.0698e-15
3.54247e-13
8.47681e-12
9.48691e-12
5.71223e-11
1.2325e-11
5.69208e-12
7.84604e-12
1.10227e-11
1.27836e-09
0.00138025
0.0139407
1.40771e-05
2.4778e-11
1.13473e-11
2.61829e-11
2.87246e-10
0.00434955
0.00683894
0.00946421
0.00409628
1.17209e-05
0.20757
0.908662
0.933459
0.933461
0.788783
0.732768
0.440746
9.66316e-05
2.67115e-16
2.81982e-14
1.18244e-12
1.30051e-12
5.35795e-12
3.23953e-12
2.20464e-12
3.94322e-12
1.12442e-11
8.6512e-06
0.00056161
0.0118092
1.54699e-09
1.10479e-11
1.05286e-12
8.27304e-12
0.000231202
0.00725418
0.000954135
0.00495214
0.0010091
3.45681e-07
4.01991e-07
0.261895
0.664493
0.88399
0.883673
0.874476
0.734002
0.203059
1.60193e-17
1.72974e-15
1.30552e-13
1.19786e-13
2.36852e-13
1.67742e-13
7.45473e-13
2.61293e-12
4.79646e-12
2.95545e-11
5.81832e-06
0.000511353
5.27133e-11
3.09216e-12
1.7608e-13
-8.6906e-12
0.000422804
0.00722724
0.000238212
1.47815e-07
1.98459e-07
2.89712e-07
3.45678e-07
3.79564e-07
0.0513057
0.286507
0.863253
0.879437
0.879437
0.671985
9.91172e-19
8.90394e-17
1.14912e-14
7.8134e-15
7.38018e-15
6.5727e-15
1.50877e-13
6.40014e-13
1.25351e-11
5.74021e-10
1.11016e-07
2.97417e-10
1.6052e-10
3.16866e-12
1.64519e-13
2.05499e-12
0.000129226
0.00280274
1.52843e-05
1.75049e-09
1.43976e-07
7.17193e-06
1.46263e-05
1.0084e-05
0.000120607
0.00276039
0.429624
0.848891
0.878845
0.809742
5.89749e-20
3.99124e-18
8.00014e-16
3.71099e-16
2.55289e-16
1.46523e-16
2.31619e-14
1.54201e-13
2.64829e-12
2.10877e-11
2.10244e-10
6.047e-11
9.56137e-11
7.6282e-12
1.57762e-13
6.65229e-09
7.81938e-07
1.97932e-07
3.63459e-08
1.10827e-10
8.93326e-06
3.24016e-05
3.23241e-05
2.73516e-07
7.44971e-06
0.00034972
0.302276
0.861084
0.878241
0.878241
3.2604e-21
1.56137e-19
4.44566e-17
1.33539e-17
9.56432e-18
2.3322e-18
1.62798e-15
7.58138e-15
2.29933e-13
3.75198e-12
3.87201e-11
1.68748e-11
1.52169e-11
4.40693e-13
1.43446e-13
8.37511e-11
1.11069e-08
2.03099e-09
4.7744e-11
8.72508e-11
2.95112e-06
2.90124e-05
8.07737e-06
7.777e-08
1.68121e-05
0.00382028
1.32971e-05
0.203848
0.552448
0.543965
1.65471e-22
5.34428e-21
2.02543e-18
3.75841e-19
3.70593e-19
3.90812e-20
7.49307e-17
2.28801e-16
9.81066e-15
2.31356e-13
2.96266e-12
2.78889e-12
9.16587e-13
1.60486e-14
1.06292e-15
2.0415e-12
1.33939e-10
4.31027e-11
2.97376e-11
8.32928e-10
7.63162e-09
1.36619e-06
9.66682e-08
7.8134e-08
7.46785e-05
0.000161228
7.75355e-06
0.00111344
0.0199235
0.0308561
7.66833e-24
1.64178e-22
7.92622e-20
8.62402e-21
1.41064e-20
7.5459e-22
2.03382e-18
1.04258e-18
8.16359e-17
3.68507e-15
9.54142e-14
1.96578e-12
2.7909e-14
3.5564e-16
1.86679e-17
1.90968e-14
1.69097e-12
4.74376e-12
3.99899e-12
6.47063e-11
2.69927e-11
2.64125e-11
1.9928e-08
1.96794e-06
2.91568e-05
7.75356e-06
7.75355e-06
7.75356e-06
1.25725e-05
2.17209e-05
3.23133e-25
4.84597e-24
2.82963e-21
1.69713e-22
5.58446e-22
1.17904e-23
3.44841e-20
7.01018e-22
2.59203e-20
4.35999e-18
5.63709e-16
9.8982e-14
5.07369e-16
5.82268e-18
5.8612e-20
1.54005e-16
1.72006e-14
2.86496e-12
1.2529e-13
3.10402e-12
1.13018e-12
5.6706e-12
2.39047e-10
5.37304e-08
2.24831e-06
1.79304e-05
2.07019e-05
1.58094e-05
1.59877e-05
1.90514e-05
0.985491
0.989632
0.935124
0.759848
0.0700369
0.00134963
0.00128239
0.00127115
0.00128239
0.0153159
0.0158231
0.0977254
0.141556
0.131356
0.174463
0.285987
0.0438194
0.193644
0.125339
0.0075348
0.0075348
0.0258372
0.0373273
0.349504
0.991946
1
1
0.953857
0.263625
0.72639
0.980567
0.990242
0.777491
0.357595
0.0778906
0.00127659
0.00127094
0.00127129
0.00127094
0.0177798
0.0774474
0.104239
0.107478
0.126131
0.290344
0.290344
0.0378602
0.0340048
0.0641403
0.00684719
0.0101513
0.182715
0.0501534
0.509816
0.997251
0.999997
1
0.944762
0.258131
0.244806
0.950372
0.990678
0.84433
0.464731
0.0499419
0.0012825
0.00127722
0.00127099
0.00129416
0.0076532
0.0935402
0.193805
0.155676
0.179688
0.290344
0.270867
0.219701
0.0322327
0.00177352
0.000535089
0.0808544
0.398484
0.0870295
0.814728
0.998465
0.999995
0.999997
0.994968
0.25977
0.0115377
0.972461
0.991309
0.868058
0.236426
0.0229429
0.00128717
0.00129127
0.00677738
0.0369624
0.00522989
0.0229285
0.318153
0.395152
0.152844
0.125548
0.0303435
0.529934
0.163164
0.000531345
0.000130546
0.00031377
0.373066
0.590242
0.954581
0.998219
0.999995
0.999996
0.950106
0.1769
0.0108604
0.992238
0.991381
0.940797
0.329466
0.0048886
0.00135077
0.00762408
0.0912951
0.0930379
0.00517505
0.00517505
0.198871
0.676869
0.161442
0.0171272
0.0178077
0.531966
0.0274177
0.000167778
2.46885e-05
1.68371e-05
0.000410901
0.905165
0.941914
0.998575
0.999996
0.999996
0.880291
0.169775
0.00230282
0.992345
0.992243
0.910678
0.0850236
0.00145647
0.00154043
0.0233306
0.0505048
0.127776
0.00963075
0.00818755
0.133131
0.690458
0.415754
0.0170734
0.0164717
0.531203
0.0422232
2.46656e-05
1.25528e-05
1.67071e-05
0.0043769
0.698011
0.903195
0.998357
0.984786
0.98085
0.707343
0.0973342
0.00149144
0.993337
0.993334
0.880638
0.116605
0.000760414
0.00126615
0.00865258
0.0630575
0.128131
0.113083
0.0111259
0.100203
0.69522
0.790771
0.0244364
0.0163299
0.506723
0.0148321
1.25528e-05
1.19546e-05
9.36025e-06
0.000171278
0.134712
0.810897
0.997033
0.946479
0.843894
0.494417
0.0644847
0.000617572
0.993346
0.988278
0.657133
0.0874436
0.000592005
0.000910466
0.00109806
0.0352532
0.128136
0.128007
0.0111292
0.0593829
0.591517
0.87259
0.450645
0.00305933
0.164377
0.0282625
1.19546e-05
1.18274e-05
2.4721e-06
1.04416e-05
0.0261326
0.796622
0.995676
0.928759
0.72195
0.381456
0.0443915
0.000349326
0.993349
0.947736
0.553513
0.0602931
0.000501561
0.00149226
0.0104686
0.0215993
0.128131
0.128136
0.0111401
0.0511548
0.596328
0.872656
0.84378
0.00101827
7.98335e-07
7.13184e-07
1.4896e-05
1.65988e-05
8.55333e-07
1.63659e-06
0.00605772
0.528489
0.95834
0.856669
0.661691
0.369336
0.0327237
0.000189635
0.993343
0.886037
0.420273
0.0039638
0.000434553
0.00168467
0.0119294
0.0110456
0.121964
0.12807
0.00935192
0.0401425
0.485453
0.872756
0.711121
0.0148055
7.56666e-07
5.46357e-07
7.41389e-06
1.66001e-05
5.60548e-07
6.72128e-07
0.000173155
0.10826
0.718596
0.629406
0.537225
0.257193
0.018738
0.000116268
0.992795
0.818024
0.311467
0.000412458
0.000412824
0.000676546
0.00521739
0.0124436
0.120381
0.127987
0.00818608
0.0346642
0.485369
0.872763
0.241502
0.000270131
5.24046e-07
5.44695e-07
5.49112e-07
1.03291e-05
4.46043e-07
3.37023e-07
1.92452e-06
0.000103593
0.261593
0.367787
0.380447
0.23601
0.0223149
3.51094e-05
0.971755
0.715235
0.0856161
0.000379667
0.000399189
0.000410573
0.00042527
0.0130434
0.120167
0.0994082
0.00608717
0.0171554
0.257329
0.872758
0.089926
1.17225e-05
4.94145e-07
4.89242e-07
5.50861e-07
3.02456e-07
4.24336e-07
2.46607e-07
7.73129e-07
0.00301826
0.114765
0.299119
0.315699
0.152238
0.00827927
1.89143e-05
0.913107
0.427263
0.000370656
0.000353296
0.000380167
0.00039707
0.000450099
0.00319519
0.119501
0.0438407
0.00150645
0.0014737
0.133423
0.790936
0.146077
0.00170678
4.83096e-07
4.8642e-07
3.02149e-07
3.0208e-07
1.19743e-07
1.58379e-08
2.747e-07
0.00335118
0.092088
0.242978
0.247703
0.120341
0.00613563
2.42086e-06
0.649999
0.174215
0.000319148
0.000328935
0.000430513
0.00153531
0.00150954
0.00144423
0.0753686
0.0284625
0.00131176
0.00132578
0.0199033
0.334783
0.0412468
0.00310188
4.95109e-07
4.35768e-06
3.85246e-07
2.97707e-07
3.82938e-09
4.1755e-09
3.26213e-06
0.000242203
8.56651e-09
0.151944
0.159679
0.0497446
0.000727875
1.39259e-06
0.337114
0.00687175
0.000260946
0.000295976
0.000707856
0.00217959
0.00218186
0.00164529
0.0125742
0.0124185
0.00131178
0.00131178
0.0149645
0.0190906
0.04481
0.00133672
5.62088e-07
5.70476e-06
1.60449e-06
3.67121e-09
3.66833e-09
3.67226e-09
9.03546e-08
8.52669e-09
5.76258e-10
0.05994
0.078498
0.0311135
0.000856609
1.59721e-08
0.0567304
0.000226368
0.000239298
0.00028166
0.00069341
0.00218186
0.00201167
0.000141959
0.000154532
0.000337017
0.00178272
0.00722824
0.0104968
0.0336889
0.0380216
3.783e-06
5.66082e-07
5.22526e-06
4.59236e-06
9.6068e-08
7.52109e-08
1.47063e-08
1.7552e-09
5.7944e-10
9.02958e-11
0.00140774
0.00777736
0.00262945
3.87012e-05
5.16265e-10
0.000289608
0.000157033
0.000211954
0.000239793
0.000380067
0.00217959
0.000752566
0.000137088
0.000124675
0.000178914
0.00313241
0.0142325
0.0195226
0.0333741
0.0138295
0.00152292
3.67786e-08
-4.28742e-09
2.80875e-11
1.22927e-07
1.23027e-07
4.29313e-08
3.35599e-11
1.07513e-10
7.81444e-11
3.73578e-11
3.84749e-11
6.29706e-09
3.57607e-11
7.23823e-12
0.000131759
0.000118845
0.000211831
0.000247207
0.00123608
0.00208816
0.000135229
0.000132326
0.000116542
0.00017067
0.00138909
0.00024037
0.00782022
0.0103153
0.0349904
0.0106125
0.00128194
3.80425e-15
7.23472e-13
1.29035e-08
5.77487e-08
2.89677e-09
2.95216e-11
5.72437e-11
2.57619e-11
3.73495e-11
3.96437e-11
6.03634e-11
7.92899e-11
5.431e-12
0.000105178
0.000100912
0.000610102
0.00218958
0.00235458
0.00174231
0.000191642
0.000229054
0.00011232
0.000403281
0.000617249
0.00021809
0.0016183
0.0166586
0.0350391
0.012474
0.00319412
4.26927e-21
-1.46321e-14
1.19633e-15
3.12228e-14
9.63603e-14
5.91144e-12
7.56837e-12
1.61074e-11
4.41513e-11
4.58672e-11
9.18066e-12
7.92068e-12
3.83238e-13
9.76624e-05
9.72617e-05
0.00115785
0.00235458
0.00235458
0.00193439
0.000670415
0.000598118
0.000111221
0.000185385
0.000108668
0.000170114
0.000786398
0.000668342
0.0182661
0.00179643
0.000814361
2.32057e-18
-4.35083e-14
2.92905e-12
6.6555e-12
1.03446e-11
8.42413e-13
5.04194e-12
6.59476e-12
3.42506e-11
7.21719e-11
6.40468e-11
7.00181e-13
2.58527e-14
9.66512e-05
9.66118e-05
0.000620176
0.00229113
0.00142612
0.000320139
0.000496447
0.000959136
0.000111021
0.000108854
0.000108559
0.000216423
0.00025348
0.000258568
0.00291789
0.00119794
6.23308e-05
6.78207e-14
1.73384e-13
3.47397e-12
2.82717e-12
1.30495e-12
1.63287e-13
2.23985e-12
2.58712e-12
1.60039e-11
1.45963e-11
1.34938e-11
6.86377e-14
2.23104e-15
9.65874e-05
9.60872e-05
0.000236325
0.000285209
0.000108409
0.000118581
0.000651706
0.00107972
0.000561716
0.000111679
0.000138662
5.12292e-05
7.58089e-05
0.000813092
0.00197283
0.000403492
5.21364e-12
3.22037e-12
5.26289e-12
7.76518e-12
2.55978e-13
8.49495e-14
5.24745e-14
5.11288e-13
3.66971e-13
3.53821e-12
2.12985e-12
2.65282e-12
7.21041e-15
2.36552e-16
0.0144485
9.39558e-05
9.26218e-05
9.33133e-05
9.55548e-05
0.000108686
0.000678058
0.00107597
0.00107969
0.000788597
0.000215851
1.67459e-08
0.000234009
0.00110965
0.00332206
0.0019937
2.38865e-11
2.92363e-12
4.3208e-12
9.08878e-12
1.57574e-13
4.60462e-15
4.07611e-15
6.10098e-14
3.67341e-14
3.9583e-13
2.24288e-13
4.66151e-13
6.89539e-16
2.50457e-17
0.0426399
9.33279e-05
9.27857e-05
9.34095e-05
9.39373e-05
0.000366465
0.000616385
0.000570927
0.000911647
0.000907484
8.6035e-05
2.93678e-09
0.00017809
5.64177e-09
0.00274957
0.00314583
6.62549e-06
3.23235e-13
2.89596e-13
8.30376e-12
1.54891e-13
4.56784e-16
2.26446e-16
2.58731e-15
2.44419e-15
2.72327e-14
1.53082e-14
6.49226e-14
5.48083e-17
2.38547e-18
0.0988996
9.31514e-05
9.31514e-05
9.31513e-05
0.000230253
0.000400156
0.00024196
0.000110413
0.000623143
0.000861019
6.02631e-05
1.6531e-10
1.56517e-06
5.46513e-11
0.00129586
0.00314583
4.03272e-05
-1.79078e-13
7.65597e-14
4.16332e-12
1.01008e-13
3.83586e-16
1.78443e-17
5.9857e-17
1.15682e-16
1.34277e-15
7.02512e-16
6.89314e-15
3.56397e-18
1.9961e-19
0.320952
9.31498e-05
9.31512e-05
9.31476e-05
0.000337079
0.00037383
0.000107588
0.000107586
0.000257443
0.00064491
0.000242769
1.1773e-10
5.67741e-11
5.45165e-11
2.2048e-05
0.000430762
4.72122e-05
1.30822e-12
7.11511e-14
7.07555e-14
5.48893e-16
9.0565e-19
1.06102e-19
1.03279e-18
4.07481e-18
5.04627e-17
2.54525e-17
5.60693e-16
1.92426e-19
1.46673e-20
0.279476
9.31673e-05
9.31503e-05
0.00012285
0.00021082
0.000150305
0.000107587
0.000107588
0.000107586
0.00019513
0.000194616
1.6992e-10
6.43954e-07
1.62186e-09
2.69507e-14
1.13032e-14
8.93332e-15
8.06018e-15
2.48351e-13
6.32122e-15
1.34118e-17
2.63656e-20
1.44228e-21
1.71431e-20
1.22578e-19
1.71441e-18
7.94874e-19
3.56967e-17
8.81429e-21
9.48039e-22
0.0663262
9.31654e-05
9.34338e-05
0.000140934
0.000136522
0.000325542
0.00120533
0.00145079
0.000293669
4.36794e-07
2.42343e-07
1.86711e-07
2.99463e-06
3.29618e-08
2.43271e-12
1.26856e-12
5.66173e-14
6.02717e-15
5.19545e-17
1.65467e-18
4.84439e-21
3.92598e-23
3.31436e-23
4.43393e-22
3.08076e-21
5.22583e-20
2.12926e-20
1.83638e-18
3.51558e-22
5.39017e-23
7.80651e-05
0.000228921
0.000111964
7.65242e-05
4.23383e-05
4.03618e-05
0.00192022
0.00199056
0.00199056
0.00152509
8.47671e-05
4.40122e-09
5.97498e-09
1.98671e-10
5.14082e-12
2.50232e-13
2.14452e-14
1.02431e-15
1.50436e-17
2.79661e-19
4.73343e-22
2.20814e-24
1.11976e-24
1.4198e-23
6.63696e-23
1.56772e-21
4.80842e-22
7.96123e-20
1.25996e-23
2.69283e-24
2.27703e-05
0.000149994
5.7833e-05
4.0382e-05
4.03618e-05
4.03618e-05
0.000247017
0.000885613
0.00198606
0.00165893
4.54922e-05
1.71933e-12
2.21043e-12
2.34894e-11
2.71337e-13
1.45151e-15
5.24904e-18
3.89011e-21
1.60128e-26
9.23986e-28
5.62537e-27
3.57089e-26
2.99909e-26
5.03282e-25
1.02498e-24
4.90927e-23
7.34287e-24
3.05929e-21
5.45771e-25
1.18072e-25
)
;

boundaryField
{
    leftWall
    {
        type            zeroGradient;
    }
    rightWall
    {
        type            zeroGradient;
    }
    lowerWall
    {
        type            zeroGradient;
    }
    atmosphere
    {
        type            inletOutlet;
        inletValue      uniform 0;
        value           nonuniform List<scalar> 
120
(
0.924806
0.501547
0.0582104
0.0181071
0.0028741
0.000483258
0.0002123
8.62187e-05
4.20733e-05
2.72829e-05
2.64102e-06
9.56036e-07
4.95562e-07
1.7017e-07
1.86431e-08
1.68533e-08
1.42945e-09
1.42324e-09
6.80779e-11
2.56486e-12
1.1565e-13
5.0698e-15
2.67115e-16
1.60193e-17
9.91172e-19
5.89749e-20
3.2604e-21
1.65471e-22
7.66833e-24
3.23133e-25
3.23133e-25
4.84597e-24
0
0
0
0
0
0
0
0
0
9.8982e-14
5.07369e-16
5.82268e-18
5.8612e-20
1.54005e-16
1.72006e-14
2.86496e-12
1.2529e-13
3.10402e-12
1.13018e-12
5.6706e-12
2.39047e-10
5.37304e-08
2.24831e-06
1.79304e-05
2.07019e-05
1.58094e-05
1.59877e-05
1.90514e-05
2.27703e-05
0.000149994
5.7833e-05
4.0382e-05
4.03618e-05
4.03618e-05
0.000247017
0.000885613
0.00198606
0.00165893
4.54922e-05
0
0
0
0
0
0
0
0
0
0
0
0
0
0
0
0
3.05929e-21
0
1.18072e-25
0.72639
0.244806
0.0115377
0.0108604
0.00230282
0.00149144
0.000617572
0.000349326
0.000189635
0.000116268
3.51094e-05
1.89143e-05
2.42086e-06
1.39259e-06
1.59721e-08
5.16265e-10
7.23823e-12
5.431e-12
3.83238e-13
2.58527e-14
2.23104e-15
2.36552e-16
2.50457e-17
2.38547e-18
1.9961e-19
1.46673e-20
9.48039e-22
5.39017e-23
2.69283e-24
1.18072e-25
)
;
    }
    defaultFaces
    {
        type            empty;
    }
}


// ************************************************************************* //
