/*--------------------------------*- C++ -*----------------------------------*\
| =========                 |                                                 |
| \\      /  F ield         | OpenFOAM: The Open Source CFD Toolbox           |
|  \\    /   O peration     | Version:  2.4.0                                 |
|   \\  /    A nd           | Web:      www.OpenFOAM.org                      |
|    \\/     M anipulation  |                                                 |
\*---------------------------------------------------------------------------*/
FoamFile
{
    version     2.0;
    format      ascii;
    class       volScalarField;
    location    "0.065";
    object      alpha.water;
}
// * * * * * * * * * * * * * * * * * * * * * * * * * * * * * * * * * * * * * //

dimensions      [0 0 0 0 0 0 0];

internalField   nonuniform List<scalar> 
60000
(
1
1
1
1
1
1
1
1
1
1
1
1
1
1
1
1
1
1
1
1
1
1
1
1
1
1
1
1
1
1
1
1
1
1
1
1
1
1
1
1
1
1
1
1
1
1
1
1
1
1
1
1
1
1
1
1
1
1
1
1
1
1
1
1
1
1
1
1
1
1
1
1
1
1
1
1
1
1
1
1
1
1
1
1
1
1
1
1
1
1
1
1
1
1
1
1
1
1
1
1
1
1
1
1
1
1
1
1
1
1
1
1
1
1
1
1
1
1
1
1
1
1
1
1
1
1
1
1
1
1
1
1
1
1
1
1
1
1
1
1
1
1
1
1
1
1
1
1
1
1
1
1
1
1
1
1
1
1
1
1
1
1
1
1
1
1
1
1
1
1
1
1
1
1
1
1
1
1
1
1
1
1
1
1
1
1
1
1
1
1
1
1
1
1
1
1
1
1
1
1
1
1
1
1
1
1
1
1
1
1
1
1
1
1
1
1
1
1
1
1
1
1
1
1
1
1
1
1
1
1
1
1
1
1
1
1
1
1
1
1
1
1
1
1
1
1
1
1
1
1
1
1
1
1
1
1
1
1
1
1
1
1
1
1
1
1
1
1
1
1
1
1
1
1
1
1
1
1
1
1
1
1
1
1
1
1
1
1
1
1
1
1
1
1
1
1
1
1
1
1
1
1
1
1
1
1
1
1
1
1
1
1
1
1
1
1
1
1
1
1
1
1
1
1
1
1
1
1
1
1
1
1
1
1
1
1
1
1
1
1
1
1
1
1
1
1
1
1
1
1
1
1
1
1
1
1
1
1
1
1
1
1
1
1
1
1
1
1
1
1
1
1
1
1
1
1
1
1
1
1
1
1
1
1
1
1
1
1
1
1
1
1
1
1
1
1
1
1
1
1
1
1
1
1
1
1
1
1
1
1
1
1
1
1
1
1
1
1
1
1
1
1
1
1
1
1
1
1
1
1
1
1
1
1
1
1
1
1
1
1
1
1
1
1
1
1
1
1
1
1
1
1
1
1
1
1
1
1
1
1
1
1
1
1
1
1
1
1
1
1
1
1
1
1
1
1
1
1
1
1
1
1
1
1
1
1
1
1
1
1
1
1
1
1
1
1
1
1
1
1
1
1
1
1
1
1
1
1
1
1
1
1
1
1
1
1
1
1
1
1
1
1
1
1
1
1
1
1
1
1
1
1
1
1
1
1
1
1
1
1
1
1
1
1
1
1
1
1
1
1
1
1
1
1
1
1
1
1
1
1
1
1
1
1
1
1
1
1
1
1
1
1
1
1
1
1
1
1
1
1
1
1
1
1
1
1
1
1
1
1
1
1
1
1
1
1
1
1
1
1
1
1
1
1
1
1
1
1
1
1
1
1
1
1
1
1
1
1
1
1
1
1
1
1
1
1
1
1
1
1
1
1
1
1
1
1
1
1
1
1
1
1
1
1
1
1
1
1
1
1
1
1
1
1
1
1
1
1
1
1
1
1
1
1
1
1
1
1
1
1
1
1
1
1
1
1
1
1
1
1
1
1
1
1
1
1
1
1
1
1
1
1
1
1
1
1
1
1
1
1
1
1
1
1
1
1
1
1
1
1
1
1
1
1
1
1
1
1
1
1
1
1
1
1
1
1
1
1
1
1
1
1
1
1
1
1
1
1
1
1
1
1
1
1
1
1
1
1
1
1
1
1
1
1
1
1
1
1
1
1
1
1
1
1
1
1
1
1
1
1
1
1
1
1
1
1
1
1
1
1
1
1
1
1
1
1
1
1
1
1
1
1
1
1
1
1
1
1
1
1
1
1
1
1
1
1
1
1
1
1
1
1
1
1
1
1
1
1
1
1
1
1
1
1
1
1
1
1
1
1
1
1
1
1
1
1
1
1
1
1
1
1
1
1
1
1
1
1
1
1
1
1
1
1
1
1
1
1
1
1
1
1
1
1
1
1
1
1
1
1
1
1
1
1
1
1
1
1
1
1
1
1
1
1
1
1
1
1
1
1
1
1
1
1
1
1
1
1
1
1
1
1
1
1
1
1
1
1
1
1
1
1
1
1
1
1
1
1
1
1
1
1
1
1
1
1
1
1
1
1
1
1
1
1
1
1
1
1
1
1
1
1
1
1
1
1
1
1
1
1
1
1
1
1
1
1
1
1
1
1
1
1
1
1
1
1
1
1
1
1
1
1
1
1
1
1
1
1
1
1
1
1
1
1
1
1
1
1
1
1
1
1
1
1
1
1
1
1
1
1
1
1
1
1
1
1
1
1
1
1
1
1
1
1
1
1
1
1
1
1
1
1
1
1
1
1
1
1
1
1
1
1
1
1
1
1
1
1
1
1
1
1
1
1
1
1
1
1
1
1
1
1
1
1
1
1
1
1
1
1
1
1
1
1
1
1
1
1
1
1
1
1
1
1
1
1
1
1
1
1
1
1
1
1
1
1
1
1
1
1
1
1
1
1
1
1
1
1
1
1
1
1
1
1
1
1
1
1
1
1
1
1
1
1
1
1
1
1
1
1
1
1
1
1
1
1
1
1
1
1
1
1
1
1
1
1
1
1
1
1
1
1
1
1
1
1
1
1
1
1
1
1
1
1
1
1
1
1
1
1
1
1
1
1
1
1
1
1
1
1
1
1
1
1
1
1
1
1
1
1
1
1
1
1
1
1
1
1
1
1
1
1
1
1
1
1
1
1
1
1
1
1
1
1
1
1
1
1
1
1
1
1
1
1
1
1
1
1
1
1
1
1
1
1
1
1
1
1
1
1
1
1
1
1
1
1
1
1
1
1
1
1
1
1
1
1
1
1
1
1
1
1
1
1
1
1
1
1
1
1
1
1
1
1
1
1
1
1
1
1
1
1
1
1
1
1
1
1
1
1
1
1
1
1
1
1
1
1
1
1
1
1
1
1
1
1
1
1
1
1
1
1
1
1
1
1
1
1
1
1
1
1
1
1
1
1
1
1
1
1
1
1
1
1
1
1
1
1
1
1
1
1
1
1
1
1
1
1
1
1
1
1
1
1
1
1
1
1
1
1
1
1
1
1
1
1
1
1
1
1
1
1
1
1
1
1
1
1
1
1
1
1
1
1
1
1
1
1
1
1
1
1
1
1
1
1
1
1
1
1
1
1
1
1
1
1
1
1
1
1
1
1
1
1
1
1
1
1
1
1
1
1
1
1
1
1
1
1
1
1
1
1
1
1
1
1
1
1
1
1
1
1
1
1
1
1
1
1
1
1
1
1
1
1
1
1
1
1
1
1
1
1
1
1
1
1
1
1
1
1
1
1
1
1
1
1
1
1
1
1
1
1
1
1
1
1
1
1
1
1
1
1
1
1
1
1
1
1
1
1
1
1
1
1
1
1
1
1
1
1
1
1
1
1
1
1
1
1
1
1
1
1
1
1
1
1
1
1
1
1
1
1
1
1
1
1
1
1
1
1
1
1
1
1
1
1
1
1
1
1
1
1
1
1
1
1
1
1
1
1
1
1
1
1
1
1
1
1
1
1
1
1
1
1
1
1
1
1
1
1
1
1
1
1
1
1
1
1
1
1
1
1
1
1
1
1
1
1
1
1
1
1
1
1
1
1
1
1
1
1
1
1
1
1
1
1
1
1
1
1
1
1
1
1
1
1
1
1
1
1
1
1
1
1
1
1
1
1
1
1
1
1
1
1
1
1
1
1
1
1
1
1
1
1
1
1
1
1
1
1
1
1
1
1
1
1
1
1
1
1
1
1
1
1
1
1
1
1
1
1
1
1
1
1
1
1
1
1
1
1
1
1
1
1
1
1
1
1
1
1
1
1
1
1
1
1
1
1
1
1
1
1
1
1
1
1
1
1
1
1
1
1
1
1
1
1
1
1
1
1
1
1
1
1
1
1
1
1
1
1
1
1
1
1
1
1
1
1
1
1
1
1
1
1
1
1
1
1
1
1
1
1
1
1
1
1
1
1
1
1
1
1
1
1
1
1
1
1
1
1
1
1
1
1
1
1
1
1
1
1
1
1
1
1
1
1
1
1
1
1
1
1
1
1
1
1
1
1
1
1
1
1
1
1
1
1
1
1
1
1
1
1
1
1
1
1
1
1
1
1
1
1
1
1
1
1
1
1
1
1
1
1
1
1
1
1
1
1
1
1
1
1
1
1
1
1
1
1
1
1
1
1
1
1
1
1
1
1
1
1
1
1
1
1
1
1
1
1
1
1
1
1
1
1
1
1
1
1
1
1
1
1
1
1
1
1
1
1
1
1
1
1
1
1
1
1
1
1
1
1
1
1
1
1
1
1
1
1
1
1
1
1
1
1
1
1
1
1
1
1
1
1
1
1
1
1
1
1
1
1
1
1
1
1
1
1
1
1
1
1
1
1
1
1
1
1
1
1
1
1
1
1
1
1
1
1
1
1
1
1
1
1
1
1
1
1
1
1
1
1
1
1
1
1
1
1
1
1
1
1
1
1
1
1
1
1
1
1
1
1
1
1
1
1
1
1
1
1
1
1
1
1
1
1
1
1
1
1
1
1
1
1
1
1
1
1
1
1
1
1
1
1
1
1
1
1
1
1
1
1
1
1
1
1
1
1
1
1
1
1
1
1
1
1
1
1
1
1
1
1
1
1
1
1
1
1
1
1
1
1
1
1
1
1
1
1
1
1
1
1
1
1
1
1
1
1
1
1
1
1
1
1
1
1
1
1
1
1
1
1
1
1
1
1
1
1
1
1
1
1
1
1
1
1
1
1
1
1
1
1
1
1
1
1
1
1
1
1
1
1
1
1
1
1
1
1
1
1
1
1
1
1
1
1
1
1
1
1
1
1
1
1
1
1
1
1
1
1
1
1
1
1
1
1
1
1
1
1
1
1
1
1
1
1
1
1
1
1
1
1
1
1
1
1
1
1
1
1
1
1
1
1
1
1
1
1
1
1
1
1
1
1
1
1
1
1
1
1
1
1
1
1
1
1
1
1
1
1
1
1
1
1
1
1
1
1
1
1
1
1
1
1
1
1
1
1
1
1
1
1
1
1
1
1
1
1
1
1
1
1
1
1
1
1
1
1
1
1
1
1
1
1
1
1
1
1
1
1
1
1
1
1
1
1
1
1
1
1
1
1
1
1
1
1
1
1
1
1
1
1
1
1
1
1
1
1
1
1
1
1
1
1
1
1
1
1
1
1
1
1
1
1
1
1
1
1
1
1
1
1
1
1
1
1
1
1
1
1
1
1
1
1
1
1
1
1
1
1
1
1
1
1
1
1
1
1
1
1
1
1
1
1
1
1
1
1
1
1
1
1
1
1
1
1
1
1
1
1
1
1
1
1
1
1
1
1
1
1
1
1
1
1
1
1
1
1
1
1
1
1
1
1
1
1
1
1
1
1
1
1
1
1
1
1
1
1
1
1
1
1
1
1
1
1
1
1
1
1
1
1
1
1
1
1
1
1
1
1
1
1
1
1
1
1
1
1
1
1
1
1
1
1
1
1
1
1
1
1
1
1
1
1
1
1
1
1
1
1
1
1
1
1
1
1
1
1
1
1
1
1
1
1
1
1
1
1
1
1
1
1
1
1
1
1
1
1
1
1
1
1
1
1
1
1
1
1
1
1
1
1
1
1
1
1
1
1
1
1
1
1
1
1
1
1
1
1
1
1
1
1
1
1
1
1
1
1
1
1
1
1
1
1
1
1
1
1
1
1
1
1
1
1
1
1
1
1
1
1
1
1
1
1
1
1
1
1
1
1
1
1
1
1
1
1
1
1
1
1
1
1
1
1
1
1
1
1
1
1
1
1
1
1
1
1
1
1
1
1
1
1
1
1
1
1
1
1
1
1
1
1
1
1
1
1
1
1
1
1
1
1
1
1
1
1
1
1
1
1
1
1
1
1
1
1
1
1
1
1
1
1
1
1
1
1
1
1
1
1
1
1
1
1
1
1
1
1
1
1
1
1
1
1
1
1
1
1
1
1
1
1
1
1
1
1
1
1
1
1
1
1
1
1
1
1
1
1
1
1
1
1
1
1
1
1
1
1
1
1
1
1
1
1
1
1
1
1
1
1
1
1
1
1
1
1
1
1
1
1
1
1
1
1
1
1
1
1
1
1
1
1
1
1
1
1
1
1
1
1
1
1
1
1
1
1
1
1
1
1
1
1
1
1
1
1
1
1
1
1
1
1
1
1
1
1
1
1
1
1
1
1
1
1
1
1
1
1
1
1
1
1
1
1
1
1
1
1
1
1
1
1
1
1
1
1
1
1
1
1
1
1
1
1
1
1
1
1
1
1
1
1
1
1
1
1
1
1
1
1
1
1
1
1
1
1
1
1
1
1
1
1
1
1
1
1
1
1
1
1
1
1
1
1
1
1
1
1
1
1
1
1
1
1
1
1
1
1
1
1
1
1
1
1
1
1
1
1
1
1
1
1
1
1
1
1
1
1
1
1
1
1
1
1
1
1
1
1
1
1
1
1
1
1
1
1
1
1
1
1
1
1
1
1
1
1
1
1
1
1
1
1
1
1
1
1
1
1
1
1
1
1
1
1
1
1
1
1
1
1
1
1
1
1
1
1
1
1
1
1
1
1
1
1
1
1
1
1
1
1
1
1
1
1
1
1
1
1
1
1
1
1
1
1
1
1
1
1
1
1
1
1
1
1
1
1
1
1
1
1
1
1
1
1
1
1
1
1
1
1
1
1
1
1
1
1
1
1
1
1
1
1
1
1
1
1
1
1
1
1
1
1
1
1
1
1
1
1
1
1
1
1
1
1
1
1
1
1
1
1
1
1
1
1
1
1
1
1
1
1
1
1
1
1
1
1
1
1
1
1
1
1
1
1
1
1
1
1
1
1
1
1
1
1
1
1
1
1
1
1
1
1
1
1
1
1
1
1
1
1
1
1
1
1
1
1
1
1
1
1
1
1
1
1
1
1
1
1
1
1
1
1
1
1
1
1
1
1
1
1
1
1
1
1
1
1
1
1
1
1
1
1
1
1
1
1
1
1
1
1
1
1
1
1
1
1
1
1
1
1
1
1
1
1
1
1
1
1
1
1
1
1
1
1
1
1
1
1
1
1
1
1
1
1
1
1
1
1
1
1
1
1
1
1
1
1
1
1
1
1
1
1
1
1
1
1
1
1
1
1
1
1
1
1
1
1
1
1
1
1
1
1
1
1
1
1
1
1
1
1
1
1
1
1
1
1
1
1
1
1
1
1
1
1
1
1
1
1
1
1
1
1
1
1
1
1
1
1
1
1
1
1
1
1
1
1
1
1
1
1
1
1
1
1
1
1
1
1
1
1
1
1
1
1
1
1
1
1
1
1
1
1
1
1
1
1
1
1
1
1
1
1
1
1
1
1
1
1
1
1
1
1
1
1
1
1
1
1
1
1
1
1
1
1
1
1
1
1
1
1
1
1
1
1
1
1
1
1
1
1
1
1
1
1
1
1
1
1
1
1
1
1
1
1
1
1
1
1
1
1
1
1
1
1
1
1
1
1
1
1
1
1
1
1
1
1
1
1
1
1
1
1
1
1
1
1
1
1
1
1
1
1
1
1
1
1
1
1
1
1
1
1
1
1
1
1
1
1
1
1
1
1
1
1
1
1
1
1
1
1
1
1
1
1
1
1
1
1
1
1
1
1
1
1
1
1
1
1
1
1
1
1
1
1
1
1
1
1
1
1
1
1
1
1
1
1
1
1
1
1
1
1
1
1
1
1
1
1
1
1
1
1
1
1
1
1
1
1
1
1
1
1
1
1
1
1
1
1
1
1
1
1
1
1
1
1
1
1
1
1
1
1
1
1
1
1
1
1
1
1
1
1
1
1
1
1
1
1
1
1
1
1
1
1
1
1
1
1
1
1
1
1
1
1
1
1
1
1
1
1
1
1
1
1
1
1
1
1
1
1
1
1
1
1
1
1
1
1
1
1
1
1
1
1
1
1
1
1
1
1
1
1
1
1
1
1
1
1
1
1
1
1
1
1
1
1
1
1
1
1
1
1
1
1
1
1
1
1
1
1
1
1
1
1
1
1
1
1
1
1
1
1
1
1
1
1
1
1
1
1
1
1
1
1
1
1
1
1
1
1
1
1
1
1
1
1
1
1
1
1
1
1
1
1
1
1
1
1
1
1
1
1
1
1
1
1
1
1
1
1
1
1
1
1
1
1
1
1
1
1
1
1
1
1
1
1
1
1
1
1
1
1
1
1
1
1
1
1
1
1
1
1
1
1
1
1
1
1
1
1
1
1
1
1
1
1
1
1
1
1
1
1
1
1
1
1
1
1
1
1
1
1
1
1
1
1
1
1
1
1
1
1
1
1
1
1
1
1
1
1
1
1
1
1
1
1
1
1
1
1
1
1
1
1
1
1
1
1
1
1
1
1
1
1
1
1
1
1
1
1
1
1
1
1
1
1
1
1
1
1
1
1
1
1
1
1
1
1
1
1
1
1
1
1
1
1
1
1
1
1
1
1
1
1
1
1
1
1
1
1
1
1
1
1
1
1
1
1
1
1
1
1
1
1
1
1
1
1
1
1
1
1
1
1
1
1
1
1
1
1
1
1
1
1
1
1
1
1
1
1
1
1
1
1
1
1
1
1
1
1
1
1
1
1
1
1
1
1
1
1
1
1
1
1
1
1
1
1
1
1
1
1
1
1
1
1
1
1
1
1
1
1
1
1
1
1
1
1
1
1
1
1
1
1
1
1
1
1
1
1
1
1
1
1
1
1
1
1
1
1
1
1
1
1
1
1
1
1
1
1
1
1
1
1
1
1
1
1
1
1
1
1
1
1
1
1
1
1
1
1
1
1
1
1
1
1
1
1
1
1
1
1
1
1
1
1
1
1
1
1
1
1
1
1
1
1
1
1
1
1
1
1
1
1
1
1
1
1
1
1
1
1
1
1
1
1
1
1
1
1
1
1
1
1
1
1
1
1
1
1
1
1
1
1
1
1
1
1
1
1
1
1
1
1
1
1
1
1
1
1
1
1
1
1
1
1
1
1
1
1
1
1
1
1
1
1
1
1
1
1
1
1
1
1
1
1
1
1
1
1
1
1
1
1
1
1
1
1
1
1
1
1
1
1
1
1
1
1
1
1
1
1
1
1
1
1
1
1
1
1
1
1
1
1
1
1
1
1
1
1
1
1
1
1
1
1
1
1
1
1
1
1
1
1
1
1
1
1
1
1
1
1
1
1
1
1
1
1
1
1
1
1
1
1
1
1
1
1
1
1
1
1
1
1
1
1
1
1
1
1
1
1
1
1
1
1
1
1
1
1
1
1
1
1
1
1
1
1
1
1
1
1
1
1
1
1
1
1
1
1
1
1
1
1
1
1
1
1
1
1
1
1
1
1
1
1
1
1
1
1
1
1
1
1
1
1
1
1
1
1
1
1
1
1
1
1
1
1
1
1
1
1
1
1
1
1
1
1
1
1
1
1
1
1
1
1
1
1
1
1
1
1
1
1
1
1
1
1
1
1
1
1
1
1
1
1
1
1
1
1
1
1
1
1
1
1
1
1
1
1
1
1
1
1
1
1
1
1
1
1
1
1
1
1
1
1
1
1
1
1
1
1
1
1
1
1
1
1
1
1
1
1
1
1
1
1
1
1
1
1
1
1
1
1
1
1
1
1
1
1
1
1
1
1
1
1
1
1
1
1
1
1
1
1
1
1
1
1
1
1
1
1
1
1
1
1
1
1
1
1
1
1
1
1
1
1
1
1
1
1
1
1
1
1
1
1
1
1
1
1
1
1
1
1
1
1
1
1
1
1
1
1
1
1
1
1
1
1
1
1
1
1
1
1
1
1
1
1
1
1
1
1
1
1
1
1
1
1
1
1
1
1
1
1
1
1
1
1
1
1
1
1
1
1
1
1
1
1
1
1
1
1
1
1
1
1
1
1
1
1
1
1
1
1
1
1
1
1
1
1
1
1
1
1
1
1
1
1
1
1
1
1
1
1
1
1
1
1
1
1
1
1
1
1
1
1
1
1
1
1
1
1
1
1
1
1
1
1
1
1
1
1
1
1
1
1
1
1
1
1
1
1
1
1
1
1
1
1
1
1
1
1
1
1
1
1
1
1
1
1
1
1
1
1
1
1
1
1
1
1
1
1
1
1
1
1
1
1
1
1
1
1
1
1
1
1
1
1
1
1
1
1
1
1
1
1
1
1
1
1
1
1
1
1
1
1
1
1
1
1
1
1
1
1
1
1
1
1
1
1
1
1
1
1
1
1
1
1
1
1
1
1
1
1
1
1
1
1
1
1
1
1
1
1
1
1
1
1
1
1
1
1
1
1
1
1
1
1
1
1
1
1
1
1
1
1
1
1
1
1
1
1
1
1
1
1
1
1
1
1
1
1
1
1
1
1
1
1
1
1
1
1
1
1
1
1
1
1
1
1
1
1
1
1
1
1
1
1
1
1
1
1
1
1
1
1
1
1
1
1
1
1
1
1
1
1
1
1
1
1
1
1
1
1
1
1
1
1
1
1
1
1
1
1
1
1
1
1
1
1
1
1
1
1
1
1
1
1
1
1
1
1
1
1
1
1
1
1
1
1
1
1
1
1
1
1
1
1
1
1
1
1
1
1
1
1
1
1
1
1
1
1
1
1
1
1
1
1
1
1
1
1
1
1
1
1
1
1
1
1
1
1
1
1
1
1
1
1
1
1
1
1
1
1
1
1
1
1
1
1
1
1
1
1
1
1
1
1
1
1
1
1
1
1
1
1
1
1
1
1
1
1
1
1
1
1
1
1
1
1
1
1
1
1
1
1
1
1
1
1
1
1
1
1
1
1
1
1
1
1
1
1
1
1
1
1
1
1
1
1
1
1
1
1
1
1
1
1
1
1
1
1
1
1
1
1
1
1
1
1
1
1
1
1
1
1
1
1
1
1
1
1
1
1
1
1
1
1
1
1
1
1
1
1
1
1
1
1
1
1
1
1
1
1
1
1
1
1
1
1
1
1
1
1
1
1
1
1
1
1
1
1
1
1
1
1
1
1
1
1
1
1
1
1
1
1
1
1
1
1
1
1
1
1
1
1
1
1
1
1
1
1
1
1
1
1
1
1
1
1
1
1
1
1
1
1
1
1
1
1
0.999995
0.999989
0.999992
1
1
1
1
1
1
1
1
0.999985
0.999936
0.999875
0.999809
0.99975
0.999718
0.999717
0.999731
0.999762
0.999814
0.999885
0.999969
1
1
1
1
1
1
1
1
1
0.999999
0.999965
0.999885
0.999765
0.99962
0.999472
0.999317
0.999142
0.998948
0.998727
0.998487
0.998238
0.997992
0.997766
0.99757
0.997403
0.997263
0.997137
0.997011
0.996874
0.996723
0.996561
0.996396
0.996238
0.996097
0.995997
0.995935
0.995936
0.99599
0.996108
0.996257
0.996429
0.996635
0.99684
0.997102
0.997296
0.997577
0.997691
0.998014
0.998061
0.000432444
0.00043378
0.000435784
0.000439149
0.000443207
0.000448557
0.000454635
0.000461827
0.000469623
0.000478397
0.00048796
0.000498956
0.00051164
0.000526391
0.000542569
0.000559078
0.000574245
0.000587382
0.000599559
0.000614046
0.00063466
0.000664023
0.00070216
0.000745713
0.00078719
0.00081879
0.000835665
0.000837665
0.000831988
0.000826255
0.000828137
0.000860033
0.000940606
0.00105562
0.00118925
0.001321
0.0014298
0.00150006
0.00152233
0.00150722
0.00147952
0.00144852
0.00141719
0.00139092
0.00137766
0.00138872
0.00144467
0.00154522
0.00168785
0.00186244
0.00206086
0.00234089
0.00266217
0.00297825
0.00327809
0.00354847
0.0037795
0.00396811
0.00410691
0.00419078
0.00421867
0.00421506
0.00419864
0.00417978
0.00415679
0.0041262
0.00409273
0.00405579
0.004011
0.00395633
0.00389429
0.00382777
0.00376192
0.00370073
0.00364864
0.00360414
0.00356687
0.0035311
0.0034905
0.00344069
0.00337833
0.00330456
0.00322034
0.00312643
0.00303052
0.00293073
0.00283442
0.00273521
0.00263972
0.00253656
0.00243659
0.00232746
0.00218456
0.00202564
0.00177947
0.00155263
0.00117824
0.000904358
0.000369285
6.00589e-05
9.90732e-11
1.03266e-10
9.98725e-11
9.90706e-11
9.85926e-11
9.84336e-11
9.8243e-11
9.8212e-11
9.81388e-11
9.81201e-11
9.77512e-11
9.7152e-11
9.64406e-11
9.57737e-11
9.54363e-11
9.58499e-11
9.66902e-11
9.76949e-11
9.73921e-11
9.5101e-11
9.24326e-11
9.07016e-11
8.99773e-11
9.01641e-11
9.13499e-11
9.40682e-11
1.06728e-10
3.98536e-12
2.54305e-12
2.55284e-12
9.48458e-11
8.92863e-11
8.98598e-11
9.26084e-11
9.68073e-11
1.01023e-10
1.04085e-10
1.02608e-10
1.40779e-11
1.39484e-11
1.39484e-11
1.39483e-11
1.39483e-11
1.39483e-11
1.39728e-11
1.00569e-10
1.02733e-10
1.0812e-10
1.19151e-10
1.37106e-10
1.6702e-10
2.1266e-10
2.52434e-10
2.90217e-10
3.33045e-10
3.73245e-10
4.00172e-10
4.15577e-10
3.57955e-10
1.34434e-10
4.17472e-11
4.17472e-11
4.17482e-11
4.17506e-11
4.17541e-11
4.17586e-11
4.1763e-11
4.17675e-11
4.17727e-11
4.17792e-11
4.17872e-11
4.17898e-11
4.17799e-11
4.17713e-11
4.17643e-11
4.1759e-11
4.17549e-11
4.17507e-11
4.17453e-11
4.17376e-11
4.17279e-11
4.17159e-11
4.17029e-11
4.16896e-11
4.16771e-11
4.16667e-11
4.16599e-11
4.16585e-11
4.16585e-11
1.33256e-10
4.42756e-10
4.08289e-10
1.18784e-10
2.55861e-11
2.55817e-11
2.55773e-11
2.55718e-11
2.55664e-11
2.55655e-11
2.55654e-11
1.49507e-12
3.7415e-12
2.20125e-12
1.64072e-12
1.28241e-12
1.08259e-12
1.1099e-12
1.1548e-12
1.30282e-12
1.42812e-12
1.5018e-12
1.51964e-12
1.66188e-12
1.70683e-12
1.71776e-12
1.78041e-12
1.54367e-12
1.23823e-12
1.07552e-12
1.09486e-12
1.13928e-12
1.32047e-12
1.68241e-12
2.15147e-12
2.63552e-12
2.60469e-12
2.59928e-12
2.61832e-12
2.65366e-12
2.63093e-12
2.56186e-12
2.99604e-12
4.66355e-12
7.86867e-12
1.22186e-11
1.63434e-11
1.89312e-11
1.9571e-11
1.92695e-11
1.88378e-11
1.83609e-11
1.77903e-11
1.71248e-11
1.64665e-11
1.58531e-11
1.58197e-11
1.78291e-11
2.37318e-11
3.49898e-11
5.30456e-11
8.31683e-11
1.28854e-10
1.68598e-10
2.06364e-10
2.49132e-10
2.89203e-10
3.16009e-10
3.31214e-10
3.39456e-10
3.44033e-10
3.48694e-10
3.54746e-10
3.63227e-10
3.70893e-10
3.78634e-10
3.86196e-10
3.9463e-10
4.03516e-10
4.12274e-10
4.21681e-10
4.30583e-10
4.40505e-10
4.49056e-10
4.59717e-10
4.69266e-10
4.7922e-10
4.91819e-10
4.99673e-10
5.16495e-10
5.18177e-10
5.41825e-10
5.31786e-10
5.6463e-10
5.36016e-10
5.80508e-10
5.28794e-10
5.83193e-10
5.05875e-10
5.64989e-10
4.66677e-10
5.20532e-10
4.11025e-10
4.44944e-10
3.4467e-10
3.50533e-10
2.79563e-10
2.57124e-10
1.89281e-10
9.74768e-11
5.05627e-11
4.11013e-15
2.81041e-15
1.23082e-15
7.69633e-16
4.91482e-16
3.57757e-16
3.52331e-16
3.74604e-16
4.57311e-16
5.37281e-16
5.97309e-16
6.2648e-16
7.14602e-16
7.51575e-16
7.69982e-16
8.17018e-16
6.91945e-16
5.13439e-16
4.12848e-16
4.22467e-16
4.22507e-16
4.74834e-16
6.07882e-16
8.07164e-16
1.08502e-15
1.03482e-15
1.08251e-15
1.14988e-15
1.20322e-15
1.20095e-15
1.17944e-15
1.28726e-15
1.63326e-15
2.42807e-15
3.87601e-15
5.84628e-15
7.78101e-15
9.01109e-15
9.25165e-15
8.86502e-15
8.46308e-15
8.02771e-15
7.5644e-15
7.13108e-15
6.72638e-15
6.86665e-15
8.32877e-15
1.17601e-14
1.81412e-14
3.002e-14
5.37796e-14
9.75748e-14
1.52403e-13
2.16271e-13
3.00397e-13
3.96368e-13
4.76268e-13
5.34335e-13
5.75906e-13
5.99237e-13
6.08654e-13
6.16551e-13
6.28855e-13
6.42255e-13
6.59878e-13
6.72939e-13
6.89531e-13
7.04847e-13
7.22684e-13
7.38293e-13
7.55576e-13
7.70858e-13
7.86598e-13
8.01783e-13
8.20105e-13
8.31543e-13
8.59094e-13
8.64616e-13
9.03919e-13
8.9263e-13
9.46546e-13
9.0921e-13
9.7975e-13
9.05586e-13
9.94513e-13
8.80056e-13
9.80319e-13
8.22297e-13
9.25062e-13
7.40572e-13
8.41408e-13
6.59736e-13
7.70341e-13
6.6119e-13
9.37781e-13
1.22785e-12
2.4089e-12
2.70865e-12
2.24628e-12
8.85591e-13
1.70567e-17
2.26002e-18
5.08779e-19
2.60287e-19
1.34499e-19
8.35066e-20
7.71498e-20
8.31413e-20
1.095e-19
1.38872e-19
1.65352e-19
1.8261e-19
2.17724e-19
2.37154e-19
2.51148e-19
2.74131e-19
2.36752e-19
1.74356e-19
1.36856e-19
1.4194e-19
1.41556e-19
1.61364e-19
2.14304e-19
2.95718e-19
4.16835e-19
3.83826e-19
4.07448e-19
4.5016e-19
4.91248e-19
5.03103e-19
4.96617e-19
5.38654e-19
6.50326e-19
8.66229e-19
1.25393e-18
1.84566e-18
2.53597e-18
3.08831e-18
3.31675e-18
3.17748e-18
2.97001e-18
2.76114e-18
2.55645e-18
2.38018e-18
2.22447e-18
2.33049e-18
2.9478e-18
4.45362e-18
7.46261e-18
1.34774e-17
2.69031e-17
5.53536e-17
9.93307e-17
1.60181e-16
2.51388e-16
3.70558e-16
4.84176e-16
5.77143e-16
6.51256e-16
6.98061e-16
7.137e-16
7.20587e-16
7.34781e-16
7.49056e-16
7.73054e-16
7.88049e-16
8.10773e-16
8.27841e-16
8.53171e-16
8.70379e-16
8.94673e-16
9.10137e-16
9.3299e-16
9.46439e-16
9.72058e-16
9.78613e-16
1.01894e-15
1.01715e-15
1.07588e-15
1.05166e-15
1.13132e-15
1.07328e-15
1.17209e-15
1.06939e-15
1.18828e-15
1.04416e-15
1.17501e-15
9.89395e-16
1.12953e-15
9.36423e-16
1.1116e-15
9.70087e-16
1.31985e-15
1.57305e-15
3.84854e-15
8.97554e-15
2.80859e-14
4.46437e-14
4.94904e-14
1.40072e-14
7.1536e-20
2.27575e-21
1.9001e-22
7.5554e-23
3.10152e-23
1.61984e-23
1.38195e-23
1.49942e-23
2.13073e-23
2.94077e-23
3.78291e-23
4.43228e-23
5.53088e-23
6.25293e-23
6.85952e-23
7.69963e-23
6.86358e-23
5.15763e-23
4.06932e-23
4.29501e-23
4.32115e-23
5.01415e-23
6.86371e-23
9.75834e-23
1.41736e-22
1.29527e-22
1.39732e-22
1.59384e-22
1.80348e-22
1.90172e-22
1.90977e-22
2.08767e-22
2.501e-22
3.20002e-22
4.31501e-22
5.93855e-22
7.9073e-22
9.66958e-22
1.07167e-21
1.06127e-21
9.7666e-22
8.8865e-22
8.09468e-22
7.46551e-22
7.06241e-22
7.67132e-22
9.78398e-22
1.4984e-21
2.63555e-21
5.08026e-21
1.1032e-20
2.49882e-20
5.03472e-20
9.08615e-20
1.59008e-19
2.59265e-19
3.67871e-19
4.67005e-19
5.541e-19
6.14997e-19
6.39445e-19
6.44356e-19
6.57718e-19
6.68718e-19
6.93141e-19
7.06882e-19
7.31183e-19
7.46177e-19
7.74605e-19
7.9014e-19
8.18716e-19
8.32118e-19
8.6008e-19
8.70895e-19
9.02047e-19
9.05092e-19
9.5281e-19
9.48829e-19
1.01784e-18
9.94341e-19
1.08631e-18
1.03246e-18
1.14398e-18
1.05189e-18
1.18605e-18
1.06344e-18
1.21802e-18
1.06927e-18
1.26158e-18
1.14431e-18
1.48251e-18
1.57859e-18
2.79135e-18
5.60377e-18
2.44292e-17
8.6926e-17
3.70013e-16
7.9701e-16
1.02094e-15
1.84831e-16
2.75754e-22
2.63305e-24
6.98034e-26
2.03616e-26
6.52595e-27
2.83516e-27
2.20993e-27
2.40173e-27
3.68433e-27
5.57272e-27
7.79719e-27
9.74115e-27
1.27384e-26
1.49571e-26
1.69926e-26
1.95865e-26
1.80692e-26
1.39883e-26
1.12307e-26
1.20757e-26
1.23212e-26
1.45456e-26
2.03464e-26
2.95266e-26
4.37076e-26
4.01997e-26
4.41839e-26
5.18674e-26
6.06468e-26
6.59172e-26
6.77492e-26
7.51634e-26
9.03917e-26
1.14221e-25
1.49235e-25
1.96161e-25
2.511e-25
3.01829e-25
3.39918e-25
3.47728e-25
3.30218e-25
2.97309e-25
2.6461e-25
2.44543e-25
2.40967e-25
2.6718e-25
3.36692e-25
5.03629e-25
8.85686e-25
1.73856e-24
3.94997e-24
9.4925e-24
2.09436e-23
4.15927e-23
8.00271e-23
1.42715e-22
2.19274e-22
2.96732e-22
3.71268e-22
4.28159e-22
4.57724e-22
4.61149e-22
4.72103e-22
4.79011e-22
4.99123e-22
5.09652e-22
5.31209e-22
5.4284e-22
5.69543e-22
5.82367e-22
6.10714e-22
6.22822e-22
6.52639e-22
6.63242e-22
6.96963e-22
7.01451e-22
7.50764e-22
7.52297e-22
8.21994e-22
8.12034e-22
9.05308e-22
8.7506e-22
9.89487e-22
9.35163e-22
1.07963e-21
1.01235e-21
1.1982e-21
1.1334e-21
1.42248e-21
1.47694e-21
2.20534e-21
3.10647e-21
8.34481e-21
3.06099e-20
1.88836e-19
9.53997e-19
5.13469e-18
1.4071e-17
1.89873e-17
2.00775e-18
9.28397e-25
3.24453e-27
2.61675e-29
5.29383e-30
1.30625e-30
4.68504e-31
3.31411e-31
3.5944e-31
5.954e-31
9.92562e-31
1.51853e-30
2.02996e-30
2.78427e-30
3.39532e-30
3.99093e-30
4.71608e-30
4.5013e-30
3.6005e-30
2.95503e-30
3.23427e-30
3.35319e-30
4.023e-30
5.71638e-30
8.41417e-30
1.26075e-29
1.17446e-29
1.31602e-29
1.58563e-29
1.90954e-29
2.13716e-29
2.25235e-29
2.54325e-29
3.08444e-29
3.88821e-29
5.01619e-29
6.44721e-29
8.05833e-29
9.54409e-29
1.08553e-28
1.13912e-28
1.12245e-28
1.05302e-28
9.76586e-29
9.38872e-29
9.4699e-29
1.05404e-28
1.28811e-28
1.83634e-28
3.09924e-28
5.87709e-28
1.32558e-27
3.22274e-27
7.53083e-27
1.6096e-26
3.34708e-26
6.43741e-26
1.06476e-25
1.53309e-25
2.02396e-25
2.42907e-25
2.68315e-25
2.72612e-25
2.80034e-25
2.8409e-25
2.9797e-25
3.05529e-25
3.21951e-25
3.30489e-25
3.51768e-25
3.62023e-25
3.86322e-25
3.97573e-25
4.25228e-25
4.36636e-25
4.6892e-25
4.7753e-25
5.2278e-25
5.33004e-25
5.96857e-25
6.03862e-25
6.91047e-25
6.89925e-25
8.01957e-25
7.93137e-25
9.48225e-25
9.49832e-25
1.18395e-24
1.23921e-24
1.70966e-24
2.11386e-24
3.8736e-24
8.06804e-24
3.68698e-23
1.96757e-22
1.56303e-21
1.05583e-20
6.94212e-20
2.29619e-19
3.11074e-19
1.77923e-20
2.63722e-27
4.32241e-30
1.01868e-32
1.35396e-33
2.54635e-34
7.50965e-35
4.80349e-35
5.18664e-35
9.27674e-35
1.71206e-34
2.87537e-34
4.12236e-34
5.93213e-34
7.50893e-34
9.11887e-34
1.10286e-33
1.08755e-33
8.99104e-34
7.55283e-34
8.40122e-34
8.85318e-34
1.07814e-33
1.54995e-33
2.30449e-33
3.48008e-33
3.29376e-33
3.76103e-33
4.63859e-33
5.73409e-33
6.5947e-33
7.12551e-33
8.19448e-33
1.00423e-32
1.26867e-32
1.62948e-32
2.0746e-32
2.5672e-32
3.02439e-32
3.47767e-32
3.73325e-32
3.79789e-32
3.69391e-32
3.55503e-32
3.55574e-32
3.70638e-32
4.22393e-32
5.13297e-32
7.1223e-32
1.15485e-31
2.06854e-31
4.44153e-31
1.04012e-30
2.46997e-30
5.51717e-30
1.2134e-29
2.47392e-29
4.36567e-29
6.65761e-29
9.25942e-29
1.15655e-28
1.32396e-28
1.37012e-28
1.41436e-28
1.4375e-28
1.52194e-28
1.57059e-28
1.68081e-28
1.74199e-28
1.88878e-28
1.96995e-28
2.1499e-28
2.24814e-28
2.47007e-28
2.5848e-28
2.85595e-28
2.97556e-28
3.35181e-28
3.51447e-28
4.0593e-28
4.25614e-28
5.03526e-28
5.26452e-28
6.34929e-28
6.66559e-28
8.36414e-28
9.113e-28
1.2214e-27
1.44877e-27
2.27602e-27
3.50163e-27
8.60846e-27
2.99775e-26
1.87557e-25
1.3035e-24
1.2994e-23
1.13182e-22
8.8422e-22
3.37345e-21
4.42196e-21
1.27573e-22
6.17674e-30
6.97816e-33
4.51336e-36
3.44077e-37
4.90161e-38
1.18765e-38
6.86185e-39
7.36666e-39
1.42222e-38
2.9159e-38
5.3912e-38
8.29947e-38
1.25258e-37
1.64406e-37
2.05912e-37
2.54429e-37
2.58738e-37
2.20904e-37
1.89898e-37
2.14293e-37
2.29433e-37
2.83274e-37
4.1084e-37
6.15234e-37
9.33651e-37
8.9929e-37
1.04555e-36
1.31661e-36
1.66534e-36
1.96347e-36
2.17285e-36
2.5444e-36
3.15346e-36
4.00278e-36
5.14037e-36
6.52637e-36
8.06103e-36
9.51878e-36
1.10961e-35
1.21844e-35
1.27646e-35
1.28281e-35
1.27563e-35
1.32174e-35
1.42033e-35
1.66258e-35
2.03349e-35
2.80316e-35
4.45012e-35
7.59754e-35
1.53532e-34
3.35776e-34
7.78558e-34
1.7561e-33
3.97813e-33
8.42259e-33
1.56654e-32
2.51242e-32
3.6686e-32
4.7637e-32
5.66266e-32
6.02615e-32
6.27186e-32
6.4081e-32
6.86741e-32
7.16314e-32
7.81518e-32
8.22608e-32
9.1262e-32
9.71337e-32
1.08957e-31
1.16716e-31
1.3243e-31
1.42589e-31
1.6302e-31
1.75532e-31
2.04723e-31
2.22803e-31
2.66964e-31
2.93345e-31
3.61092e-31
3.99928e-31
5.05153e-31
5.7072e-31
7.622e-31
9.17593e-31
1.35279e-30
1.86466e-30
3.47422e-30
7.08782e-30
2.65763e-29
1.26671e-28
9.67024e-28
8.56158e-27
1.05588e-25
1.14826e-24
1.03871e-23
4.40504e-23
5.39434e-23
7.34884e-25
1.17641e-32
1.39183e-35
3.84952e-39
8.74581e-41
9.39547e-42
1.87367e-42
9.7874e-43
1.04429e-42
2.17524e-42
4.96797e-42
1.01311e-41
1.67516e-41
2.64913e-41
3.60011e-41
4.64064e-41
5.84757e-41
6.11956e-41
5.38858e-41
4.73655e-41
5.41353e-41
5.88482e-41
7.35873e-41
1.07436e-40
1.61694e-40
2.46064e-40
2.41433e-40
2.85547e-40
3.66291e-40
4.72712e-40
5.70043e-40
6.45268e-40
7.68957e-40
9.64183e-40
1.23175e-39
1.58586e-39
2.01568e-39
2.49648e-39
2.96886e-39
3.51554e-39
3.95036e-39
4.25621e-39
4.41034e-39
4.5179e-39
4.83112e-39
5.33292e-39
6.40011e-39
7.89851e-39
1.09117e-38
1.71885e-38
2.84359e-38
5.46642e-38
1.11252e-37
2.45737e-37
5.42473e-37
1.22987e-36
2.64182e-36
5.0994e-36
8.52064e-36
1.29946e-35
1.75058e-35
2.16334e-35
2.37768e-35
2.52092e-35
2.59748e-35
2.82642e-35
2.99324e-35
3.34292e-35
3.59592e-35
4.10135e-35
4.48104e-35
5.19495e-35
5.74279e-35
6.75686e-35
7.54696e-35
8.97199e-35
1.00636e-34
1.22209e-34
1.39179e-34
1.73974e-34
2.01944e-34
2.6073e-34
3.08779e-34
4.12959e-34
5.07531e-34
7.32543e-34
9.90569e-34
1.64707e-33
2.72057e-33
6.37751e-33
1.89439e-32
9.30414e-32
5.35463e-31
4.92421e-30
5.47205e-29
8.2224e-28
1.08343e-26
1.10831e-25
5.06674e-25
5.60439e-25
3.38061e-27
1.81097e-35
2.8806e-38
7.79885e-42
2.28522e-44
1.80239e-45
2.96982e-46
1.40599e-46
1.49145e-46
3.35024e-46
8.5427e-46
1.92376e-45
3.41482e-45
5.65044e-45
7.93598e-45
1.05043e-44
1.3473e-44
1.44776e-44
1.31276e-44
1.17871e-44
1.36248e-44
1.50277e-44
1.90151e-44
2.7899e-44
4.21286e-44
6.41863e-44
6.41951e-44
7.71694e-44
1.00639e-43
1.32183e-43
1.62691e-43
1.88132e-43
2.28005e-43
2.89292e-43
3.72411e-43
4.81642e-43
6.1444e-43
7.65212e-43
9.18978e-43
1.1065e-42
1.27234e-42
1.40834e-42
1.50224e-42
1.58181e-42
1.74026e-42
1.96725e-42
2.41406e-42
3.00456e-42
4.16896e-42
6.5527e-42
1.06215e-41
1.97108e-41
3.78268e-41
7.92634e-41
1.68113e-40
3.72125e-40
7.92635e-40
1.55976e-39
2.68447e-39
4.24621e-39
5.91735e-39
7.60351e-39
8.65863e-39
9.46025e-39
9.87224e-39
1.09431e-38
1.18206e-38
1.3545e-38
1.49763e-38
1.76394e-38
1.98811e-38
2.39374e-38
2.74483e-38
3.36261e-38
3.91696e-38
4.86671e-38
5.71979e-38
7.26174e-38
8.72296e-38
1.14256e-37
1.41128e-37
1.92487e-37
2.45722e-37
3.51792e-37
4.75935e-37
7.54873e-37
1.16934e-36
2.26552e-36
4.73369e-36
1.48591e-35
5.69952e-35
3.23829e-34
2.22121e-33
2.44292e-32
3.35613e-31
6.04033e-30
9.38325e-29
1.06268e-27
5.10189e-27
4.93476e-27
1.23508e-29
2.25499e-38
5.33098e-41
1.75739e-44
7.53197e-48
3.47104e-49
4.7506e-50
2.04556e-50
2.15928e-50
5.2286e-50
1.49153e-49
3.71141e-49
7.06435e-49
1.22083e-48
1.76836e-48
2.39768e-48
3.12451e-48
3.43959e-48
3.2064e-48
2.93775e-48
3.43032e-48
3.83675e-48
4.90917e-48
7.22884e-48
1.09372e-47
1.66623e-47
1.69946e-47
2.07489e-47
2.74636e-47
3.66328e-47
4.59335e-47
5.41958e-47
6.67547e-47
8.57123e-47
1.11292e-46
1.44803e-46
1.85751e-46
2.33029e-46
2.8306e-46
3.46634e-46
4.07666e-46
4.63025e-46
5.07605e-46
5.48385e-46
6.19097e-46
7.14852e-46
8.9464e-46
1.12166e-45
1.56294e-45
2.45477e-45
3.91957e-45
7.09411e-45
1.30362e-44
2.61365e-44
5.31002e-44
1.13152e-43
2.34862e-43
4.62903e-43
8.10592e-43
1.31864e-42
1.89373e-42
2.52746e-42
2.9891e-42
3.40394e-42
3.61411e-42
4.09107e-42
4.52822e-42
5.33446e-42
6.09003e-42
7.42157e-42
8.67375e-42
1.08515e-41
1.29942e-41
1.65975e-41
2.02848e-41
2.63601e-41
3.27078e-41
4.35531e-41
5.54698e-41
7.66264e-41
1.01365e-40
1.47188e-40
2.04311e-40
3.1692e-40
4.78144e-40
8.51579e-40
1.55165e-39
3.6883e-39
9.89136e-39
3.84664e-38
1.69406e-37
1.10427e-36
8.95383e-36
1.16856e-34
1.9531e-33
4.13513e-32
7.3895e-31
9.0906e-30
4.4795e-29
3.67263e-29
3.56339e-32
2.28624e-41
8.37457e-44
3.32925e-47
5.37413e-51
6.72964e-53
7.68989e-54
3.02441e-54
3.18129e-54
8.30211e-54
2.65471e-53
7.30076e-53
1.4876e-52
2.67919e-52
3.99326e-52
5.53263e-52
7.31177e-52
8.22731e-52
7.8715e-52
7.35201e-52
8.66436e-52
9.82349e-52
1.27039e-51
1.87551e-51
2.84002e-51
4.32198e-51
4.49729e-51
5.57331e-51
7.47657e-51
1.01096e-50
1.28931e-50
1.55038e-50
1.93961e-50
2.52029e-50
3.30309e-50
4.32854e-50
5.59088e-50
7.07384e-50
8.69849e-50
1.08314e-49
1.3017e-49
1.51494e-49
1.70403e-49
1.88548e-49
2.17913e-49
2.56451e-49
3.2656e-49
4.11988e-49
5.76033e-49
9.03972e-49
1.42502e-48
2.52991e-48
4.50069e-48
8.72833e-48
1.70979e-47
3.49938e-47
7.02064e-47
1.36707e-46
2.40879e-46
3.99412e-46
5.88567e-46
8.1392e-46
1.00073e-45
1.19073e-45
1.30362e-45
1.50676e-45
1.71421e-45
2.07958e-45
2.45702e-45
3.1004e-45
3.77752e-45
4.90851e-45
6.16481e-45
8.2194e-45
1.05702e-44
1.44235e-44
1.89392e-44
2.66192e-44
3.61204e-44
5.29262e-44
7.54272e-44
1.17762e-43
1.79431e-43
3.06061e-43
5.23609e-43
1.07283e-42
2.39642e-42
6.9347e-42
2.24944e-41
9.80577e-41
4.92464e-40
3.66257e-39
3.48179e-38
5.34517e-37
1.06885e-35
2.61424e-34
5.25825e-33
6.90744e-32
3.42191e-31
2.30809e-31
8.0658e-35
1.90889e-44
1.11182e-46
5.219e-50
6.94041e-54
1.32732e-56
1.26149e-57
4.55305e-58
4.78044e-58
1.34445e-57
4.82877e-57
1.46754e-56
3.1943e-56
5.98117e-56
9.15151e-56
1.29245e-55
1.7292e-55
1.98439e-55
1.94534e-55
1.85061e-55
2.19982e-55
2.52777e-55
3.303e-55
4.88515e-55
7.39693e-55
1.12362e-54
1.19327e-54
1.50029e-54
2.03747e-54
2.78851e-54
3.61195e-54
4.42196e-54
5.61548e-54
7.38368e-54
9.77261e-54
1.29095e-53
1.68052e-53
2.14611e-53
2.67262e-53
3.38222e-53
4.1489e-53
4.9401e-53
5.6912e-53
6.43849e-53
7.60115e-53
9.09959e-53
1.1765e-52
1.49217e-52
2.09165e-52
3.27814e-52
5.10713e-52
8.92081e-52
1.54639e-51
2.92463e-51
5.5712e-51
1.10069e-50
2.13574e-50
4.07927e-50
7.17678e-50
1.20352e-49
1.81198e-49
2.58735e-49
3.30608e-49
4.10776e-49
4.7003e-49
5.54813e-49
6.50256e-49
8.12511e-49
9.95367e-49
1.30113e-48
1.65368e-48
2.23843e-48
2.94651e-48
4.11557e-48
5.58099e-48
8.01434e-48
1.11883e-47
1.66426e-47
2.41977e-47
3.78932e-47
5.86116e-47
9.93714e-47
1.68034e-46
3.20216e-46
6.35309e-46
1.55153e-45
4.12691e-45
1.38478e-44
5.02748e-44
2.445e-43
1.39285e-42
1.17516e-41
1.29866e-40
2.32273e-39
5.46346e-38
1.51674e-36
3.36818e-35
4.65166e-34
2.27274e-33
1.22552e-33
1.42028e-37
1.33229e-47
1.26135e-49
6.91105e-53
9.2545e-57
2.82353e-60
2.09865e-61
6.98533e-62
7.33482e-62
2.22349e-61
8.9893e-61
3.01799e-60
7.00015e-60
1.35926e-59
2.12985e-59
3.05882e-59
4.13624e-59
4.83074e-59
4.84451e-59
4.69038e-59
5.62173e-59
6.54713e-59
8.64326e-59
1.27996e-58
1.93656e-58
2.93474e-58
3.18189e-58
4.05742e-58
5.57296e-58
7.7101e-58
1.01303e-57
1.26142e-57
1.62503e-57
2.1619e-57
2.8905e-57
3.85117e-57
5.05585e-57
6.51965e-57
8.22321e-57
1.05691e-56
1.3217e-56
1.60751e-56
1.8933e-56
2.18617e-56
2.63096e-56
3.19832e-56
4.19069e-56
5.3394e-56
7.49789e-56
1.17302e-55
1.80725e-55
3.11156e-55
5.27517e-55
9.77787e-55
1.82335e-54
3.50155e-54
6.60625e-54
1.23628e-53
2.16409e-53
3.65058e-53
5.59616e-53
8.22031e-53
1.08999e-52
1.41143e-52
1.69867e-52
2.06372e-52
2.48759e-52
3.20035e-52
4.07244e-52
5.50805e-52
7.32313e-52
1.03272e-51
1.42914e-51
2.08943e-51
3.00139e-51
4.54782e-51
6.7698e-51
1.07123e-50
1.67691e-50
2.82598e-50
4.78095e-50
8.90839e-50
1.69295e-49
3.70125e-49