/*--------------------------------*- C++ -*----------------------------------*\
| =========                 |                                                 |
| \\      /  F ield         | OpenFOAM: The Open Source CFD Toolbox           |
|  \\    /   O peration     | Version:  2.4.0                                 |
|   \\  /    A nd           | Web:      www.OpenFOAM.org                      |
|    \\/     M anipulation  |                                                 |
\*---------------------------------------------------------------------------*/
FoamFile
{
    version     2.0;
    format      ascii;
    class       surfaceScalarField;
    location    "0.343";
    object      phiAlpha;
}
// * * * * * * * * * * * * * * * * * * * * * * * * * * * * * * * * * * * * * //

dimensions      [0 3 -1 0 0 0 0];

internalField   nonuniform List<scalar> 
19800
(
-1.33293e-60
1.82685e-64
-5.40863e-58
-2.0231e-57
9.08526e-57
-1.99068e-53
2.73382e-53
-3.06979e-50
2.05859e-50
-1.35822e-47
4.60833e-48
-1.97974e-45
3.81804e-46
-1.16336e-43
1.42251e-44
-3.27822e-42
2.73039e-43
-4.98451e-41
2.98598e-42
-4.46664e-40
2.09041e-41
-2.6216e-39
1.05918e-40
-1.12453e-38
4.44402e-40
-4.02692e-38
1.81609e-39
-1.42037e-37
7.80647e-39
-5.31919e-37
3.56218e-38
-2.11241e-36
1.84655e-37
-9.37815e-36
1.03255e-36
-4.49112e-35
5.56367e-36
-2.0584e-34
2.85659e-35
-8.97235e-34
1.36542e-34
-3.65569e-33
6.01758e-34
-1.36665e-32
2.45427e-33
-4.68432e-32
9.26284e-33
-1.46319e-31
3.203e-32
-4.13068e-31
9.97062e-32
-1.02892e-30
2.74505e-31
-2.19717e-30
6.56301e-31
-3.9361e-30
1.28004e-30
-5.67166e-30
1.83826e-30
-6.25285e-30
1.9321e-30
-5.4549e-30
1.49903e-30
-4.07181e-30
8.86483e-31
-2.78455e-30
4.17981e-31
-1.75724e-30
1.66089e-31
-9.9708e-31
5.86553e-32
-5.00007e-31
1.89096e-32
-2.19149e-31
5.52858e-33
-8.29305e-32
1.43158e-33
-2.66733e-32
3.21392e-34
-7.18864e-33
6.16103e-35
-1.60527e-33
1.00039e-35
-2.95136e-34
1.35825e-36
-4.42843e-35
1.51666e-37
-5.36572e-36
1.37747e-38
-5.22057e-37
1.12022e-39
-4.56585e-38
4.9538e-40
-2.12105e-38
1.47558e-39
-5.73935e-38
4.51865e-39
-1.54598e-37
-3.69767e-37
1.28674e-38
2.95058e-61
6.98443e-62
1.77968e-56
-7.31307e-54
1.06152e-52
-3.64645e-50
1.82133e-49
-4.73406e-47
9.56801e-47
-1.76808e-44
1.66618e-44
-2.21466e-42
1.16154e-42
-1.15721e-40
3.84276e-41
-2.98855e-39
6.78436e-40
-4.2633e-38
6.98257e-39
-3.65006e-37
4.65854e-38
-2.06666e-36
2.24972e-37
-8.53836e-36
8.99071e-37
-2.93431e-35
3.51103e-36
-9.90188e-35
1.44546e-35
-3.5435e-34
6.27155e-35
-1.33764e-33
3.02642e-34
-5.52368e-33
1.56951e-33
-2.43733e-32
7.77496e-33
-1.02892e-31
3.6642e-32
-4.10453e-31
1.61926e-31
-1.53121e-30
6.60857e-31
-5.27077e-30
2.49876e-30
-1.66925e-29
8.73875e-30
-4.83649e-29
2.81702e-29
-1.27153e-28
8.21432e-29
-2.98107e-28
2.1156e-28
-6.07003e-28
4.7252e-28
-1.04395e-27
8.75606e-28
-1.47643e-27
1.26006e-27
-1.66968e-27
1.39543e-27
-1.55055e-27
1.19765e-27
-1.2617e-27
8.08108e-28
-9.4365e-28
4.41024e-28
-6.48972e-28
2.02837e-28
-4.01831e-28
8.1849e-29
-2.19854e-28
2.9583e-29
-1.04967e-28
9.58902e-30
-4.32821e-29
2.75426e-30
-1.52285e-29
6.90638e-31
-4.51509e-30
1.49145e-31
-1.11665e-30
2.74871e-32
-2.28708e-31
4.27497e-33
-3.84397e-32
5.54163e-34
-5.25253e-33
5.94881e-35
-5.82133e-34
5.92193e-36
-6.22288e-35
3.23661e-36
-4.44721e-35
1.06945e-35
-1.37216e-34
3.6779e-35
-4.08394e-34
-1.07678e-33
1.18918e-34
4.54918e-58
-5.79998e-56
1.58305e-53
-3.09377e-51
8.33872e-50
-1.4792e-47
1.25844e-46
-1.82781e-44
5.54257e-44
-5.95626e-42
8.18481e-42
-6.49396e-40
5.01323e-40
-3.03604e-38
1.50503e-38
-7.17307e-37
2.47249e-37
-9.5944e-36
2.41483e-36
-7.85681e-35
1.54571e-35
-4.29707e-34
7.15903e-35
-1.71362e-33
2.73684e-34
-5.64896e-33
1.02014e-33
-1.8136e-32
4.0069e-33
-6.16128e-32
1.65097e-32
-2.19944e-31
7.40754e-32
-8.46006e-31
3.54005e-31
-3.43808e-30
1.61615e-30
-1.3426e-29
6.97717e-30
-4.91868e-29
2.8264e-29
-1.67326e-28
1.06338e-28
-5.28276e-28
3.71822e-28
-1.54404e-27
1.2063e-27
-4.15482e-27
3.61694e-27
-1.01945e-26
9.89426e-27
-2.24495e-26
2.41459e-26
-4.34136e-26
5.12256e-26
-7.15277e-26
9.16374e-26
-9.83338e-26
1.32171e-25
-1.11026e-25
1.51734e-25
-1.05623e-25
1.39374e-25
-8.98729e-26
1.0304e-25
-7.16391e-26
6.24486e-26
-5.32037e-26
3.20842e-26
-3.58039e-26
1.44138e-26
-2.13305e-26
5.76227e-27
-1.10882e-26
2.05783e-27
-4.98067e-27
6.51754e-28
-1.91214e-27
1.80832e-28
-6.19774e-28
4.34339e-29
-1.6799e-28
8.94642e-30
-3.77583e-29
1.56287e-30
-6.96515e-30
2.2912e-31
-1.04514e-30
2.81171e-32
-1.27868e-31
3.43891e-33
-1.73597e-32
2.91457e-33
-2.10734e-32
1.11195e-32
-7.21008e-32
4.31185e-32
-2.26386e-31
-6.06446e-31
1.59142e-31
1.06179e-55
-1.05484e-53
3.84489e-51
-4.81705e-49
2.14925e-47
-2.78246e-45
3.15052e-44
-3.30626e-42
1.21079e-41
-9.25507e-40
1.54706e-39
-8.78084e-38
8.41699e-38
-3.65338e-36
2.29591e-36
-7.88314e-35
3.51549e-35
-9.88084e-34
3.26776e-34
-7.74433e-33
2.01225e-33
-4.09798e-32
8.96657e-33
-1.5823e-31
3.27964e-32
-5.00375e-31
1.16075e-31
-1.52236e-30
4.32186e-31
-4.8724e-30
1.68227e-30
-1.63526e-29
7.02657e-30
-5.86648e-29
3.0919e-29
-2.19925e-28
1.3058e-28
-7.95861e-28
5.17853e-28
-2.68826e-27
1.91368e-27
-8.36709e-27
6.6063e-27
-2.41645e-26
2.13256e-26
-6.5127e-26
6.4265e-26
-1.62933e-25
1.79824e-25
-3.7399e-25
4.61896e-25
-7.7504e-25
1.07003e-24
-1.42111e-24
2.17388e-24
-2.24179e-24
3.78107e-24
-2.98042e-24
5.45277e-24
-3.31547e-24
6.43314e-24
-3.16309e-24
6.20408e-24
-2.75286e-24
4.90407e-24
-2.29722e-24
3.21582e-24
-1.81805e-24
1.79624e-24
-1.31734e-24
8.77824e-25
-8.48387e-25
3.81562e-25
-4.77409e-25
1.48282e-25
-2.32262e-25
5.12208e-26
-9.65681e-26
1.55404e-26
-3.38885e-26
4.09515e-27
-9.94566e-27
9.2747e-28
-2.41404e-27
1.78372e-28
-4.79176e-28
2.88496e-29
-7.71291e-29
3.93538e-30
-1.01702e-29
6.17655e-31
-1.88614e-30
9.03365e-31
-3.60549e-30
3.91861e-30
-1.25409e-29
1.672e-29
-3.7062e-29
-8.24935e-29
6.78415e-29
9.453e-54
-7.96209e-52
4.12631e-49
-4.3133e-47
2.93113e-45
-3.35267e-43
4.20064e-42
-3.52571e-40
1.3926e-39
-8.32258e-38
1.54665e-37
-6.80504e-36
7.46423e-36
-2.50556e-34
1.85229e-34
-4.93842e-33
2.64783e-33
-5.80941e-32
2.34778e-32
-4.36559e-31
1.39477e-31
-2.24008e-30
6.0033e-31
-8.40629e-30
2.10233e-30
-2.5528e-29
7.04032e-30
-7.34431e-29
2.4666e-29
-2.19991e-28
9.01848e-29
-6.90014e-28
3.51094e-28
-2.30974e-27
1.42449e-27
-7.99916e-27
5.57319e-27
-2.68427e-26
2.03731e-26
-8.378e-26
6.88681e-26
-2.39512e-25
2.17429e-25
-6.34866e-25
6.47055e-25
-1.57767e-24
1.81248e-24
-3.67006e-24
4.74401e-24
-7.89247e-24
1.14714e-23
-1.54143e-23
2.52313e-23
-2.68037e-23
4.92469e-23
-4.04265e-23
8.3426e-23
-5.17592e-23
1.20026e-22
-5.6105e-23
1.4452e-22
-5.27618e-23
1.44891e-22
-4.6087e-23
1.20648e-22
-3.97417e-23
8.40256e-23
-3.32285e-23
5.00855e-23
-2.57785e-23
2.6182e-23
-1.78917e-23
1.2205e-23
-1.08712e-23
5.10204e-24
-5.70593e-24
1.90064e-24
-2.55424e-24
6.23196e-25
-9.63594e-25
1.77857e-25
-3.0321e-25
4.35959e-26
-7.85144e-26
9.06114e-27
-1.653e-26
1.58299e-27
-2.80524e-27
2.35187e-28
-3.92797e-28
5.1235e-29
-1.0229e-28
1.20981e-28
-2.47619e-28
5.5605e-28
-7.89899e-28
2.40966e-27
-1.91409e-27
-2.36314e-27
9.63679e-27
4.65707e-52
-3.63273e-50
2.76774e-47
-3.25098e-45
2.73369e-43
-2.90413e-41
3.51774e-40
-2.46845e-38
9.8946e-38
-4.79982e-36
9.4866e-36
-3.36025e-34
4.0491e-34
-1.09995e-32
9.1633e-33
-1.98736e-31
1.22694e-31
-2.19827e-30
1.04102e-30
-1.58622e-29
5.98632e-30
-7.90933e-29
2.50031e-29
-2.89608e-28
8.3973e-29
-8.46772e-28
2.65624e-28
-2.30205e-27
8.70172e-28
-6.42474e-27
2.97108e-27
-1.87208e-26
1.0785e-26
-5.83599e-26
4.03983e-26
-1.86718e-25
1.4647e-25
-5.8228e-25
4.94397e-25
-1.68222e-24
1.53382e-24
-4.43259e-24
4.44063e-24
-1.08161e-23
1.21735e-23
-2.48435e-23
3.16799e-23
-5.38108e-23
7.76423e-23
-1.08566e-22
1.76972e-22
-2.00105e-22
3.69853e-22
-3.29833e-22
6.93904e-22
-4.7474e-22
1.14525e-21
-5.83684e-22
1.63963e-21
-6.10255e-22
2.00646e-21
-5.55236e-22
2.07821e-21
-4.7692e-22
1.80616e-21
-4.20823e-22
1.31978e-21
-3.69563e-22
8.28435e-22
-3.06729e-22
4.57886e-22
-2.3002e-22
2.26709e-22
-1.51204e-22
1.01052e-22
-8.55732e-23
4.02473e-23
-4.11475e-23
1.4143e-23
-1.66298e-23
4.32848e-24
-5.58383e-24
1.13539e-24
-1.53501e-24
2.51817e-25
-3.40819e-25
4.68346e-26
-6.04957e-26
7.49932e-27
-8.91533e-27
2.3473e-27
-2.95787e-27
7.28728e-27
-7.40657e-27
3.28628e-26
-1.99292e-26
1.35169e-25
-3.1477e-26
1.76766e-27
5.00286e-25
1.56068e-50
-1.21336e-48
1.64656e-45
-2.56646e-43
1.91202e-41
-1.79102e-39
2.01315e-38
-1.17632e-36
4.69504e-36
-1.88601e-34
3.86586e-34
-1.13917e-32
1.46841e-32
-3.33414e-31
3.04574e-31
-5.53895e-30
3.832e-30
-5.76896e-29
3.1192e-29
-4.0008e-28
1.74143e-28
-1.94187e-27
7.0909e-28
-6.96231e-27
2.29118e-27
-1.96819e-26
6.84385e-27
-5.06216e-26
2.08758e-26
-1.31315e-25
6.61729e-26
-3.53669e-25
2.23545e-25
-1.02115e-24
7.72932e-25
-3.01909e-24
2.60172e-24
-8.76252e-24
8.11906e-24
-2.34753e-23
2.3183e-23
-5.71743e-23
6.16861e-23
-1.288e-22
1.56028e-22
-2.74321e-22
3.7741e-22
-5.54669e-22
8.66546e-22
-1.05297e-21
1.86304e-21
-1.834e-21
3.69658e-21
-2.86578e-21
6.65874e-21
-3.93065e-21
1.07098e-20
-4.62385e-21
1.52217e-20
-4.62188e-21
1.88629e-20
-3.98531e-21
2.01123e-20
-3.27579e-21
1.81469e-20
-2.93686e-21
1.37867e-20
-2.69631e-21
9.02915e-21
-2.39982e-21
5.23556e-21
-1.96175e-21
2.73537e-21
-1.4066e-21
1.29261e-21
-8.61714e-22
5.47749e-22
-4.45746e-22
2.05421e-22
-1.93038e-22
6.71297e-23
-6.91728e-23
1.87768e-23
-2.02001e-23
4.42844e-24
-4.73159e-24
8.728e-25
-8.77365e-25
1.50089e-25
-1.34383e-25
6.18189e-26
-4.7748e-26
2.10079e-25
-1.0774e-25
8.98173e-25
-2.16325e-25
3.43667e-24
5.20691e-28
1.98457e-25
1.17217e-23
4.09944e-49
-3.61562e-47
1.06657e-43
-1.61693e-41
9.83237e-40
-7.79173e-38
8.07966e-37
-3.9987e-35
1.56332e-34
-5.32724e-33
1.11449e-32
-2.79757e-31
3.79183e-31
-7.35483e-30
7.23716e-30
-1.12602e-28
8.57527e-29
-1.10504e-27
6.70797e-28
-7.36619e-27
3.64464e-27
-3.48363e-26
1.45277e-26
-1.22615e-25
4.5372e-26
-3.36926e-25
1.28176e-25
-8.22383e-25
3.63252e-25
-1.98262e-24
1.0637e-24
-4.91496e-24
3.32568e-24
-1.30516e-23
1.06152e-23
-3.56243e-23
3.321e-23
-9.62727e-23
9.5937e-23
-2.39687e-22
2.52657e-22
-5.40936e-22
6.19098e-22
-1.12859e-21
1.44802e-21
-2.23501e-21
3.26024e-21
-4.2362e-21
7.02444e-21
-7.58577e-21
1.42445e-20
-1.25252e-20
2.68022e-20
-1.8596e-20
4.62576e-20
-2.43046e-20
7.23585e-20
-2.7285e-20
1.01927e-19
-2.58968e-20
1.27718e-19
-2.06419e-20
1.39963e-19
-1.55703e-20
1.30698e-19
-1.42142e-20
1.02506e-19
-1.34882e-20
6.94755e-20
-1.29355e-20
4.20054e-20
-1.17648e-20
2.30791e-20
-9.34669e-21
1.15367e-20
-6.25037e-21
5.19716e-21
-3.49459e-21
2.08031e-21
-1.62657e-21
7.26757e-22
-6.2379e-22
2.17312e-22
-1.94195e-22
5.46696e-23
-4.82222e-23
1.1451e-23
-9.38462e-24
2.10252e-24
-1.47394e-24
9.70616e-25
-4.67173e-25
3.24759e-24
-8.30026e-25
1.30899e-23
-7.89043e-25
4.68576e-23
6.83093e-25
5.26415e-24
1.48019e-22
1.00609e-47
-1.61727e-45
5.68651e-42
-7.39234e-40
3.66181e-38
-2.5017e-36
2.36995e-35
-1.01014e-33
3.83098e-33
-1.12835e-31
2.38281e-31
-5.18313e-30
7.29786e-30
-1.22825e-28
1.28532e-28
-1.73529e-27
1.43612e-27
-1.60416e-26
1.08035e-26
-1.02686e-25
5.72126e-26
-4.73111e-25
2.23934e-25
-1.63676e-24
6.79911e-25
-4.3968e-24
1.82286e-24
-1.02346e-23
4.80029e-24
-2.29887e-23
1.29327e-23
-5.23044e-23
3.71589e-23
-1.26889e-22
1.09366e-22
-3.18543e-22
3.18036e-22
-8.0125e-22
8.51806e-22
-1.859e-21
2.07259e-21
-3.89754e-21
4.68691e-21
-7.5474e-21
1.01526e-20
-1.3951e-20
2.13359e-20
-2.48719e-20
4.31733e-20
-4.21602e-20
8.26726e-20
-6.62445e-20
1.47506e-19
-9.3855e-20
2.43372e-19
-1.17353e-19
3.69177e-19
-1.26039e-19
5.14805e-19
-1.13761e-19
6.52795e-19
-8.13805e-20
7.36918e-19
-5.17538e-20
7.113e-19
-5.04116e-20
5.70608e-19
-4.75365e-20
3.96998e-19
-4.90403e-20
2.49144e-19
-5.17665e-20
1.43679e-19
-4.6869e-20
7.60552e-20
-3.46163e-20
3.65367e-20
-2.10358e-20
1.56699e-20
-1.05696e-20
5.87975e-21
-4.36082e-21
1.89088e-21
-1.45545e-21
5.11565e-22
-3.8555e-22
1.14965e-22
-7.91445e-23
2.24301e-23
-1.26255e-23
9.85521e-24
-3.06978e-24
3.01475e-23
-3.40803e-24
1.15148e-22
8.12553e-25
3.89034e-22
1.30924e-23
6.85768e-23
1.15305e-21
3.83472e-46
-1.07055e-43
2.25606e-40
-2.54636e-38
1.02877e-36
-6.1323e-35
5.27143e-34
-1.96632e-32
7.17753e-32
-1.85538e-30
3.9178e-30
-7.48938e-29
1.08402e-28
-1.60339e-27
1.76467e-27
-2.09088e-26
1.85957e-26
-1.81806e-25
1.34465e-25
-1.11493e-24
6.94323e-25
-4.99631e-24
2.67308e-24
-1.69816e-23
7.93902e-24
-4.48212e-23
2.03065e-23
-1.00118e-22
4.98291e-23
-2.10566e-22
1.23178e-22
-4.39584e-22
3.2309e-22
-9.68578e-22
8.73426e-22
-2.22512e-21
2.35922e-21
-5.19954e-21
5.87132e-21
-1.12692e-20
1.32208e-20
-2.20137e-20
2.76204e-20
-3.96485e-20
5.55481e-20
-6.86247e-20
1.09151e-19
-1.15357e-19
2.07732e-19
-1.85668e-19
3.76068e-19
-2.78594e-19
6.36835e-19
-3.79187e-19
1.00433e-18
-4.5812e-19
1.47679e-18
-4.77081e-19
2.04596e-18
-4.17743e-19
2.64116e-18
-2.59143e-19
3.09156e-18
-1.07987e-19
3.09648e-18
-1.47211e-19
2.50529e-18
-1.16273e-19
1.76237e-18
-1.26157e-19
1.13905e-18
-1.74127e-19
6.88834e-19
-1.88124e-19
3.87597e-19
-1.54418e-19
1.99713e-19
-1.0197e-19
9.24027e-20
-5.53845e-20
3.75451e-20
-2.46961e-20
1.31e-20
-8.90169e-21
3.84963e-21
-2.53347e-21
9.38119e-22
-5.51549e-22
1.94774e-22
-8.90815e-23
7.21713e-23
-1.51386e-23
1.84969e-22
-5.07401e-24
6.74326e-22
1.69434e-23
2.17389e-21
1.23981e-22
5.40753e-22
6.1274e-21
2.22001e-44
-5.48554e-42
6.88262e-39
-6.83873e-37
2.24691e-35
-1.18517e-33
9.1873e-33
-3.04567e-31
1.0608e-30
-2.44171e-29
5.10333e-29
-8.68957e-28
1.27861e-27
-1.68265e-26
1.9247e-26
-2.02342e-25
1.91069e-25
-1.65021e-24
1.32546e-24
-9.65535e-24
6.6656e-24
-4.19297e-23
2.52424e-23
-1.39655e-22
7.37421e-23
-3.63297e-22
1.81158e-22
-7.84181e-22
4.16444e-22
-1.55466e-21
9.4459e-22
-2.98776e-21
2.24893e-21
-5.95704e-21
5.5561e-21
-1.24488e-20
1.39104e-20
-2.69208e-20
3.22276e-20
-5.45877e-20
6.72967e-20
-9.96642e-20
1.30006e-19
-1.67401e-19
2.43169e-19
-2.71737e-19
4.47053e-19
-4.31361e-19
8.00754e-19
-6.59507e-19
1.37081e-18
-9.46455e-19
2.20783e-18
-1.24251e-18
3.34068e-18
-1.46538e-18
4.79657e-18
-1.51401e-18
6.70253e-18
-1.34324e-18
8.92122e-18
-7.01714e-19
1.099e-17
8.01515e-21
1.1632e-17
-5.0083e-19
9.24943e-18
-1.40772e-19
6.40513e-18
-1.36725e-19
4.20232e-18
-4.63233e-19
2.65345e-18
-6.46479e-19
1.58817e-18
-5.87049e-19
8.81199e-19
-4.15941e-19
4.42604e-19
-2.42011e-19
1.96442e-19
-1.16165e-19
7.51831e-20
-4.52679e-20
2.42654e-20
-1.39263e-20
6.48708e-21
-3.24182e-21
1.44908e-21
-5.31809e-22
4.34051e-22
-6.05044e-23
8.16535e-22
7.5332e-24
2.83017e-21
1.31528e-22
8.81592e-21
7.40997e-22
2.89638e-21
2.39134e-20
1.01493e-42
-2.20661e-40
1.66382e-37
-1.47712e-35
3.92589e-34
-1.86161e-32
1.29143e-31
-3.86196e-30
1.27106e-29
-2.64244e-28
5.40572e-28
-8.31069e-27
1.2278e-26
-1.45623e-25
1.70774e-25
-1.61215e-24
1.59306e-24
-1.22833e-23
1.05631e-23
-6.81687e-23
5.15706e-23
-2.85109e-22
1.91727e-22
-9.25779e-22
5.52973e-22
-2.37304e-21
1.31464e-21
-4.98285e-21
2.85169e-21
-9.38234e-21
5.9572e-21
-1.67127e-20
1.28306e-20
-3.01703e-20
2.8802e-20
-5.69487e-20
6.65836e-20
-1.13514e-19
1.43778e-19
-2.1545e-19
2.79065e-19
-3.68522e-19
4.99269e-19
-5.78573e-19
8.687e-19
-8.80887e-19
1.49379e-18
-1.3189e-18
2.51299e-18
-1.91088e-18
4.0591e-18
-2.60898e-18
6.20766e-18
-3.28048e-18
9.03035e-18
-3.76891e-18
1.28226e-17
-3.94452e-18
1.85873e-17
-3.91439e-18
2.59314e-17
-1.77965e-18
3.52715e-17
5.6032e-19
4.25719e-17
-2.74671e-18
3.14258e-17
1.64189e-19
2.01342e-17
2.97446e-19
1.30604e-17
-1.05069e-18
8.5714e-18
-2.08656e-18
5.45217e-18
-2.02111e-18
3.25161e-18
-1.48406e-18
1.77114e-18
-9.04311e-19
8.59719e-19
-4.61252e-19
3.62657e-19
-1.9317e-19
1.29838e-19
-6.41236e-20
3.86469e-20
-1.59353e-20
9.49305e-21
-2.63364e-21
2.43415e-21
-1.73001e-22
2.81264e-21
7.73543e-23
9.03245e-21
6.36114e-22
2.74583e-20
3.12734e-21
1.14038e-20
7.25882e-20
3.69752e-41
-7.13257e-39
3.27515e-36
-2.63313e-34
5.63807e-33
-2.43451e-31
1.50176e-30
-4.10021e-29
1.26503e-28
-2.40355e-27
4.76653e-27
-6.69565e-26
9.81899e-26
-1.06238e-24
1.26004e-24
-1.08135e-23
1.10052e-23
-7.66721e-23
6.93711e-23
-4.0088e-22
3.2696e-22
-1.6013e-21
1.18797e-21
-5.02781e-21
3.38439e-21
-1.26364e-20
7.84471e-21
-2.5932e-20
1.61908e-20
-4.67074e-20
3.13847e-20
-7.78398e-20
6.12193e-20
-1.28061e-19
1.24051e-19
-2.17278e-19
2.63849e-19
-3.9757e-19
5.31277e-19
-7.06772e-19
9.60178e-19
-1.13199e-18
1.59298e-18
-1.66118e-18
2.57565e-18
-2.37175e-18
4.13131e-18
-3.33663e-18
6.49799e-18
-4.54782e-18
9.81759e-18
-5.85271e-18
1.40602e-17
-7.05412e-18
1.94287e-17
-8.18249e-18
2.75093e-17
-8.82327e-18
4.38348e-17
-9.49498e-18
6.78517e-17
-5.71078e-18
1.16836e-16
4.4742e-18
1.79873e-16
-1.31471e-17
1.16921e-16
2.70305e-18
6.15387e-17
3.16046e-18
3.67109e-17
-2.84156e-18
2.45904e-17
-7.76618e-18
1.6429e-17
-6.7844e-18
1.03867e-17
-4.70473e-18
6.0632e-18
-2.88262e-18
3.19426e-18
-1.53538e-18
1.48106e-18
-6.85979e-19
5.89044e-19
-2.45153e-19
1.9624e-19
-6.4877e-20
5.39525e-20
-1.04938e-20
1.33946e-20
8.13938e-24
8.48634e-21
4.04439e-22
2.29931e-20
2.2143e-21
6.86806e-20
1.00086e-20
3.48962e-20
1.78768e-19
1.094e-39
-1.88471e-37
5.36844e-35
-3.93146e-33
6.79616e-32
-2.68494e-30
1.47333e-29
-3.6901e-28
1.06591e-27
-1.86072e-26
3.56583e-26
-4.60512e-25
6.66687e-25
-6.62949e-24
7.88454e-24
-6.20741e-23
6.42445e-23
-4.08824e-22
3.82567e-22
-2.00307e-21
1.72725e-21
-7.57575e-21
6.08806e-21
-2.27653e-20
1.70634e-20
-5.5544e-20
3.87816e-20
-1.11413e-19
7.67844e-20
-1.93015e-19
1.39539e-19
-3.03904e-19
2.48323e-19
-4.6107e-19
4.5241e-19
-7.03437e-19
8.82576e-19
-1.17421e-18
1.65904e-18
-1.96905e-18
2.78975e-18
-2.94081e-18
4.2898e-18
-4.02572e-18
6.44187e-18
-5.37734e-18
9.59286e-18
-7.05661e-18
1.39814e-17
-8.90266e-18
1.95421e-17
-1.05876e-17
2.60878e-17
-1.19721e-17
3.47851e-17
-1.43229e-17
5.0119e-17
-1.15766e-17
8.00456e-17
-2.98139e-17
1.73881e-16
-1.40605e-17
2.76005e-16
1.87109e-17
4.21242e-16
-5.18357e-17
3.45807e-16
1.05838e-16
2.04653e-16
1.77066e-17
1.16963e-16
-1.21982e-17
7.30011e-17
-2.42319e-17
4.6477e-17
-1.68157e-17
2.93437e-17
-1.09176e-17
1.78091e-17
-6.89437e-18
1.00359e-17
-3.93467e-18
5.08316e-18
-1.9134e-18
2.24509e-18
-7.46096e-19
8.40902e-19
-2.10982e-19
2.61376e-19
-3.16132e-20
6.89299e-20
1.14828e-21
2.64847e-20
1.83291e-21
4.90931e-20
6.06317e-21
1.4282e-19
2.55374e-20
8.66217e-20
3.69365e-19
2.6642e-38
-4.07429e-36
7.41261e-34
-4.90716e-32
6.94466e-31
-2.4947e-29
1.23119e-28
-2.81474e-27
7.67931e-27
-1.2269e-25
2.28757e-25
-2.70895e-24
3.88969e-24
-3.55116e-23
4.24239e-23
-3.06799e-22
3.21989e-22
-1.87999e-21
1.80251e-21
-8.62085e-21
7.73344e-21
-3.07085e-20
2.61951e-20
-8.75208e-20
7.15938e-20
-2.04737e-19
1.59784e-19
-3.9865e-19
3.05611e-19
-6.65705e-19
5.26513e-19
-9.97508e-19
8.65891e-19
-1.4146e-18
1.42042e-18
-1.94866e-18
2.53038e-18
-2.89237e-18
4.47711e-18
-4.69655e-18
6.97684e-18
-6.54064e-18
9.92615e-18
-8.32718e-18
1.38281e-17
-1.03078e-17
1.89916e-17
-1.2574e-17
2.52089e-17
-1.44368e-17
3.19204e-17
-1.56603e-17
3.91199e-17
-1.71356e-17
5.06371e-17
-2.14111e-17
8.15579e-17
-3.35034e-17
2.18302e-16
-4.25712e-17
2.34256e-16
-1.11016e-16
2.44216e-15
-1.07393e-16
2.69543e-15
1.11255e-15
1.61536e-16
4.11044e-17
3.60044e-16
1.22045e-16
2.55874e-16
-4.10554e-17
1.57339e-16
-4.29577e-17
9.67942e-17
-2.8361e-17
6.19661e-17
-1.82674e-17
3.99945e-17
-1.20705e-17
2.46583e-17
-7.52109e-18
1.38901e-17
-4.06941e-18
6.90275e-18
-1.76288e-18
2.93738e-18
-5.35195e-19
1.0449e-18
-6.52253e-20
3.09003e-19
1.04408e-20
9.35346e-20
8.58052e-21
9.55019e-20
1.44715e-20
2.54135e-19
5.40089e-20
1.80397e-19
6.57773e-19
5.32601e-37
-7.0624e-35
8.57961e-33
-5.04214e-31
5.99298e-30
-1.93078e-28
8.73903e-28
-1.80245e-26
4.72178e-26
-6.83175e-25
1.25765e-24
-1.35231e-23
1.95195e-23
-1.62153e-22
1.96957e-22
-1.2984e-21
1.39508e-21
-7.43538e-21
7.33535e-21
-3.2017e-20
2.97668e-20
-1.07494e-19
9.61063e-20
-2.89654e-19
2.53297e-19
-6.43694e-19
5.52259e-19
-1.20285e-18
1.02468e-18
-1.9312e-18
1.68935e-18
-2.7615e-18
2.60643e-18
-3.69672e-18
3.86904e-18
-4.55409e-18
6.14668e-18
-5.66997e-18
1.05368e-17
-9.28313e-18
1.52159e-17
-1.22773e-17
1.99833e-17
-1.42835e-17
2.56565e-17
-1.57981e-17
3.25269e-17
-1.85585e-17
3.87536e-17
-1.90939e-17
4.35143e-17
-1.73399e-17
4.98365e-17
-1.86059e-17
6.41137e-17
-1.97795e-17
1.03168e-16
-1.66861e-17
1.37495e-16
-3.01473e-17
2.44786e-15
-7.49274e-18
3.25134e-15
-3.96548e-16
3.60401e-15
7.2956e-16
4.24556e-15
-6.3106e-16
2.51333e-16
-2.3821e-16
2.39156e-16
-5.19551e-17
2.22712e-16
-4.79196e-17
1.52315e-16
-3.37442e-17
9.91345e-17
-2.39199e-17
6.76263e-17
-1.73138e-17
4.61307e-17
-1.18386e-17
2.94156e-17
-7.10756e-18
1.67165e-17
-3.41435e-18
8.18389e-18
-1.09962e-18
3.36565e-18
-7.06147e-20
1.1454e-18
5.91116e-20
3.4256e-19
3.93567e-20
1.9091e-19
3.43604e-20
4.01053e-19
9.87946e-20
3.23473e-19
1.03106e-18
8.53973e-36
-9.51941e-34
8.17388e-32
-4.18471e-30
4.30683e-29
-1.22708e-27
5.20555e-27
-9.56998e-26
2.45064e-25
-3.17509e-24
5.8645e-24
-5.6629e-23
8.34542e-23
-6.2378e-22
7.82564e-22
-4.64908e-21
5.19652e-21
-2.49975e-20
2.57556e-20
-1.01609e-19
9.89704e-20
-3.23162e-19
3.03853e-19
-8.26522e-19
7.66127e-19
-1.74394e-18
1.61636e-18
-3.10618e-18
2.90987e-18
-4.77499e-18
4.61853e-18
-6.50825e-18
6.77179e-18
-8.25284e-18
9.03029e-18
-8.761e-18
1.2084e-17
-1.23046e-17
2.09416e-17
-1.76726e-17
2.8579e-17
-1.97168e-17
3.39915e-17
-1.86093e-17
3.89586e-17
-1.98589e-17
4.74788e-17
-2.37461e-17
5.15043e-17
-2.01997e-17
4.88243e-17
-1.25532e-17
5.42512e-17
-2.4518e-17
6.24927e-17
-2.13367e-17
7.60111e-17
-1.94181e-17
1.90945e-16
-3.24788e-17
3.38776e-16
-1.8971e-17
3.59743e-15
-1.76602e-16
3.64115e-15
6.56313e-16
1.0698e-15
-1.03316e-15
5.0638e-16
-1.53854e-16
3.89243e-16
-7.87808e-17
2.73849e-16
-4.89743e-17
1.82893e-16
-3.60692e-17
1.27795e-16
-2.82423e-17
9.5565e-17
-2.23659e-17
7.22898e-17
-1.64821e-17
5.18674e-17
-1.08542e-17
3.35538e-17
-5.73608e-18
1.88468e-17
-1.92347e-18
8.94653e-18
3.61637e-20
3.51957e-18
2.45335e-19
1.15583e-18
1.59884e-19
4.43858e-19
9.25562e-20
5.88455e-19
1.64646e-19
5.11131e-19
1.45099e-18
1.06195e-34
-9.73018e-33
6.27297e-31
-2.76301e-29
2.53464e-28
-6.32764e-27
2.56382e-26
-4.16895e-25
1.05857e-24
-1.21964e-23
2.28723e-23
-1.97024e-22
2.99678e-22
-2.00163e-21
2.62236e-21
-1.39331e-20
1.64001e-20
-7.05824e-20
7.70196e-20
-2.71934e-19
2.81707e-19
-8.23401e-19
8.25963e-19
-2.01131e-18
1.99297e-18
-4.05674e-18
4.04796e-18
-6.91705e-18
7.06279e-18
-1.02097e-17
1.08307e-17
-1.33126e-17
1.52108e-17
-1.59986e-17
1.76256e-17
-1.67979e-17
2.68434e-17
-2.05828e-17
4.08364e-17
-2.55898e-17
4.71181e-17
-2.19186e-17
4.50445e-17
-1.05553e-17
4.94713e-17
-2.75959e-17
6.10476e-17
-3.03964e-17
8.19584e-17
-3.2906e-17
1.061e-16
-2.7463e-17
7.73628e-17
-2.25447e-17
7.03151e-17
-2.31361e-17
7.5939e-17
-2.18314e-17
9.99094e-17
-1.81473e-17
2.00387e-16
-1.95158e-17
3.86817e-16
-3.04974e-17
1.99161e-15
1.80169e-16
9.11833e-16
-8.51358e-17
5.6124e-16
-9.98422e-17
3.55198e-16
-6.33688e-17
2.37824e-16
-4.44627e-17
1.74841e-16
-3.80857e-17
1.41318e-16
-3.31968e-17
1.19849e-16
-2.77007e-17
1.00809e-16
-2.13382e-17
8.05255e-17
-1.5287e-17
5.85412e-17
-8.79172e-18
3.7316e-17
-3.00309e-18
2.02615e-17
3.30979e-19
9.166e-18
8.04645e-19
3.41771e-18
5.52673e-19
1.18118e-18
2.79734e-19
8.79711e-19
2.74865e-19
7.29607e-19
1.87498e-18
9.96152e-34
-7.42862e-32
3.81025e-30
-1.43561e-28
1.20427e-27
-2.62407e-26
1.03087e-25
-1.47932e-24
3.76015e-24
-3.84915e-23
7.37285e-23
-5.66664e-22
8.92765e-22
-5.33343e-21
7.31273e-21
-3.47899e-20
4.32022e-20
-1.66498e-19
1.92943e-19
-6.09597e-19
6.74782e-19
-1.76249e-18
1.90062e-18
-4.12827e-18
4.41902e-18
-8.01482e-18
8.68703e-18
-1.32086e-17
1.47673e-17
-1.89348e-17
2.20856e-17
-2.41115e-17
2.99819e-17
-2.80381e-17
3.49509e-17
-2.97104e-17
4.72244e-17
-3.40419e-17
6.20077e-17
-3.62664e-17
8.93008e-17
-3.7548e-17
9.265e-17
-3.55696e-17
7.26194e-17
-2.27755e-17
8.03881e-17
-5.48491e-17
8.69082e-17
-4.53303e-17
8.85445e-17
-3.44888e-17
7.74838e-17
-6.07838e-17
8.05469e-17
-2.83424e-17
8.50029e-17
-2.73633e-17
9.57956e-17
-2.55106e-17
1.21214e-16
-2.43893e-17
2.24916e-16
-2.33008e-17
3.80351e-16
-1.51467e-17
3.95518e-16
-4.08701e-17
2.98452e-16
-6.05284e-17
2.34451e-16
-1.09853e-16
1.84414e-16
-5.10815e-17
1.62872e-16
-4.85424e-17
1.53119e-16
-4.38884e-17
1.45203e-16
-3.75247e-17
1.33454e-16
-2.99955e-17
1.16079e-16
-2.34371e-17
9.24074e-17
-1.41857e-17
6.53326e-17
-4.71351e-18
3.98728e-17
1.12246e-18
2.05266e-17
2.17093e-18
8.74964e-18
1.61551e-18
3.17587e-18
8.39361e-19
1.52281e-18
5.23545e-19
9.73726e-19
2.29908e-18
6.92615e-33
-4.20566e-31
1.80799e-29
-5.81824e-28
4.56902e-27
-8.69844e-26
3.35275e-25
-4.26057e-24
1.08965e-23
-9.96535e-23
1.9505e-22
-1.34749e-21
2.19175e-21
-1.18184e-20
1.68524e-20
-7.2566e-20
9.42361e-20
-3.29249e-19
4.00877e-19
-1.1489e-18
1.34284e-18
-3.17978e-18
3.64294e-18
-7.16034e-18
8.20672e-18
-1.34357e-17
1.57507e-17
-2.15693e-17
2.64082e-17
-3.05255e-17
3.94407e-17
-3.91715e-17
5.33652e-17
-4.67877e-17
6.496e-17
-5.39993e-17
8.51167e-17
-6.0107e-17
9.7213e-17
-5.47211e-17
9.52977e-17
-5.7579e-17
9.32678e-17
-6.23034e-17
1.94945e-16
-6.49684e-17
1.60775e-16
-6.47834e-17
1.3177e-16
-5.32665e-17
1.1452e-16
-4.13951e-17
1.00507e-16
-3.69988e-17
9.97188e-17
-3.45559e-17
1.01604e-16
-3.28128e-17
1.07974e-16
-3.53221e-17
1.19441e-16
-3.53744e-17
1.46707e-16
-3.35465e-17
2.04356e-16
-3.09762e-17
2.15826e-16
-4.68636e-17
2.12082e-16
-6.47433e-17
1.57343e-16
-8.18249e-17
1.82506e-16
-7.45718e-17
1.86033e-16
-7.38558e-17
1.91501e-16
-6.82473e-17
1.98719e-16
-6.17277e-17
1.97197e-16
-5.1481e-17
1.82059e-16
-4.70917e-17
1.4976e-16
-2.91349e-17
1.10209e-16
-9.22309e-18
7.18694e-17
2.90636e-18
4.07521e-17
5.03418e-18
1.95667e-17
4.03908e-18
7.88128e-18
2.2859e-18
3.15008e-18
1.17534e-18
1.30774e-18
2.87608e-18
3.53634e-32
-1.74508e-30
6.63067e-29
-1.83018e-27
1.37353e-26
-2.3028e-25
8.77459e-25
-9.97921e-24
2.56813e-23
-2.12539e-22
4.22875e-22
-2.66528e-21
4.43355e-21
-2.19478e-20
3.21215e-20
-1.27627e-19
1.70438e-19
-5.51824e-19
6.91615e-19
-1.84342e-18
2.22019e-18
-4.9034e-18
5.80063e-18
-1.06558e-17
1.26697e-17
-1.94093e-17
2.38273e-17
-3.05505e-17
3.98891e-17
-4.32058e-17
6.13168e-17
-5.66449e-17
8.84097e-17
-7.05331e-17
1.23017e-16
-9.12243e-17
1.66693e-16
-9.79411e-17
1.75855e-16
-8.56918e-17
1.72195e-16
-8.52285e-17
1.72623e-16
-1.15814e-16
1.95687e-16
-1.17877e-16
1.98549e-16
-1.0921e-16
1.73719e-16
-7.5994e-17
1.48749e-16
-5.75176e-17
1.33505e-16
-5.25875e-17
1.24217e-16
-4.61742e-17
1.18702e-16
-4.50822e-17
1.34486e-16
-4.45338e-17
1.48084e-16
-4.34817e-17
1.60345e-16
-4.15689e-17
1.82217e-16
-3.15006e-17
2.09133e-16
-7.85678e-17
2.2341e-16
-8.94497e-17
2.32561e-16
-9.84744e-17
2.45077e-16
-9.7942e-17
2.59335e-16
-9.86378e-17
2.85736e-16
-9.49612e-17
3.29479e-16
-8.46896e-17
3.68903e-16
-6.12822e-17
3.72676e-16
-9.67498e-17
3.05312e-16
-5.4933e-17
2.17583e-16
-1.63737e-17
1.37977e-16
7.77588e-18
7.94273e-17
1.11868e-17
4.06246e-17
9.18571e-18
1.79344e-17
5.61318e-18
7.09332e-18
2.8296e-18
1.97821e-18
4.10763e-18
1.30818e-31
-5.32508e-30
1.86739e-28
-4.48591e-27
3.26446e-26
-4.89888e-25
1.84936e-24
-1.91624e-23
4.93801e-23
-3.77016e-22
7.55128e-22
-4.43322e-21
7.43968e-21
-3.45833e-20
5.10646e-20
-1.91912e-19
2.58152e-19
-7.96139e-19
1.00216e-18
-2.56237e-18
3.08832e-18
-6.59079e-18
7.77529e-18
-1.39071e-17
1.64609e-17
-2.47437e-17
3.03279e-17
-3.84576e-17
5.08042e-17
-5.48733e-17
8.04806e-17
-7.20543e-17
1.24673e-16
-8.88484e-17
2.0326e-16
-1.30715e-16
2.87154e-16
-1.3863e-16
3.50161e-16
-9.26577e-17
3.45457e-16
-1.27072e-16
3.72217e-16
-1.97909e-16
3.60359e-16
-1.95516e-16
3.33722e-16
-1.94638e-16
2.68211e-16
-1.10077e-16
2.13524e-16
-7.67163e-17
1.77987e-16
-7.1537e-17
1.59605e-16
-6.65534e-17
1.5228e-16
-6.17181e-17
1.55396e-16
-5.94657e-17
1.64607e-16
-5.66156e-17
1.82737e-16
-6.30583e-17
3.11459e-16
-7.9073e-17
3.01789e-16
-9.18131e-17
2.94479e-16
-1.06678e-16
2.96768e-16
-1.14233e-16
3.06647e-16
-1.12102e-16
3.27564e-16
-1.10224e-16
3.67045e-16
-1.06602e-16
4.39403e-16
-8.96066e-17
4.87468e-16
-7.01001e-17
7.98016e-16
-3.89489e-16
5.73759e-16
-2.99498e-16
3.91785e-16
7.68084e-18
2.50332e-16
1.78246e-17
1.49934e-16
2.31361e-17
8.15861e-17
1.9655e-17
3.88613e-17
1.28862e-17
1.61728e-17
6.78703e-18
3.6431e-18
7.24132e-18
3.5133e-31
-1.21584e-29
4.05034e-28
-8.67426e-27
6.16699e-26
-8.47119e-25
3.16244e-24
-3.05179e-23
7.81724e-23
-5.63005e-22
1.12253e-21
-6.28126e-21
1.04835e-20
-4.68803e-20
6.86565e-20
-2.50439e-19
3.3267e-19
-1.00498e-18
1.24179e-18
-3.14156e-18
3.68932e-18
-7.87922e-18
8.98108e-18
-1.62847e-17
1.84703e-17
-2.85517e-17
3.33652e-17
-4.41705e-17
5.597e-17
-6.40809e-17
8.7987e-17
-7.88259e-17
1.3498e-16
-1.07588e-16
2.64556e-16
-2.00208e-16
3.85501e-16
-1.9253e-16
4.09998e-16
-1.53195e-16
9.29064e-16
-5.42577e-17
8.49019e-16
4.66923e-17
6.66802e-16
1.06896e-16
5.63625e-16
1.89486e-16
4.20649e-16
-1.25634e-16
3.01273e-16
-1.07249e-16
2.37432e-16
-1.0178e-16
2.0459e-16
-9.38772e-17
1.87737e-16
-8.36448e-17
1.84272e-16
-7.40687e-17
1.87337e-16
-3.96719e-17
2.30324e-16
-7.57473e-17
2.93289e-16
-1.13329e-16
3.26753e-16
-1.46918e-16
3.41096e-16
-1.54713e-16
3.40444e-16
-1.41914e-16
3.39928e-16
-1.33761e-16
3.42548e-16
-1.22954e-16
3.56781e-16
-1.23063e-16
3.84554e-16
-1.17239e-16
4.59554e-15
-9.7535e-16
1.03186e-14
-8.19624e-16
5.32994e-15
-8.61152e-17
-1.5602e-16
-2.86855e-16
3.8848e-16
4.56937e-17
2.7225e-16
4.30262e-17
1.56618e-16
3.95359e-17
8.15531e-17
2.82808e-17
3.68437e-17
1.60179e-17
7.93882e-18
1.53694e-17
6.96331e-31
-2.12599e-29
6.84675e-28
-1.34312e-26
9.36526e-26
-1.20575e-24
4.43896e-24
-4.07933e-23
1.03161e-22
-7.16354e-22
1.40789e-21
-7.67619e-21
1.25883e-20
-5.53906e-20
7.93321e-20
-2.87573e-19
3.71276e-19
-1.12652e-18
1.34241e-18
-3.45228e-18
3.87297e-18
-8.52587e-18
9.18195e-18
-1.74356e-17
1.84648e-17
-3.04016e-17
3.28751e-17
-4.69895e-17
5.51936e-17
-6.84144e-17
7.97371e-17
-7.27075e-17
1.31596e-16
-2.01346e-16
3.25989e-16
-2.12042e-16
4.43996e-16
-1.33697e-16
5.31864e-16
-7.46466e-17
8.14388e-16
-1.51968e-16
5.43492e-15
-1.00081e-15
3.59359e-15
5.76964e-16
1.41886e-15
-4.68265e-15
6.79089e-16
-1.24536e-16
4.33469e-16
-7.95169e-17
3.17946e-16
-9.18917e-17
2.575e-16
-9.28994e-17
2.2578e-16
-9.11584e-17
2.26981e-16