/*--------------------------------*- C++ -*----------------------------------*\
| =========                 |                                                 |
| \\      /  F ield         | OpenFOAM: The Open Source CFD Toolbox           |
|  \\    /   O peration     | Version:  2.4.0                                 |
|   \\  /    A nd           | Web:      www.OpenFOAM.org                      |
|    \\/     M anipulation  |                                                 |
\*---------------------------------------------------------------------------*/
FoamFile
{
    version     2.0;
    format      ascii;
    class       surfaceScalarField;
    location    "0.426";
    object      phiAlpha;
}
// * * * * * * * * * * * * * * * * * * * * * * * * * * * * * * * * * * * * * //

dimensions      [0 3 -1 0 0 0 0];

internalField   nonuniform List<scalar> 
19800
(
1.11643e-62
-7.42744e-58
-4.96804e-54
3.60121e-57
-6.92756e-51
1.06624e-53
-2.56348e-48
6.60757e-51
-3.66672e-46
1.49151e-48
-2.336e-44
1.4788e-46
-7.38257e-43
6.99755e-45
-1.26565e-41
1.71449e-43
-1.28168e-40
2.34519e-42
-8.42696e-40
1.93366e-41
-4.43534e-39
1.05071e-40
-2.05925e-38
4.62307e-40
-8.74779e-38
1.81145e-39
-3.71918e-37
6.5516e-39
-1.57103e-36
2.39418e-38
-6.78406e-36
8.79636e-38
-2.94376e-35
3.35697e-37
-1.20368e-34
1.31543e-36
-4.49435e-34
4.99378e-36
-1.51737e-33
1.78873e-35
-4.6536e-33
5.99688e-35
-1.30255e-32
1.88598e-34
-3.32042e-32
5.55581e-34
-7.65913e-32
1.51731e-33
-1.5795e-31
3.78475e-33
-2.90503e-31
8.45509e-33
-4.93819e-31
1.67704e-32
-7.56227e-31
3.04508e-32
-9.75919e-31
4.91242e-32
-9.82172e-31
6.56055e-32
-7.84434e-31
6.68819e-32
-4.96042e-31
5.28107e-32
-2.59229e-31
3.21727e-32
-1.17524e-31
1.57961e-32
-4.88359e-32
6.59417e-33
-1.95059e-32
2.49926e-33
-7.55391e-33
9.15222e-34
-2.80297e-33
3.30181e-34
-9.92595e-34
1.16106e-34
-3.36621e-34
3.93253e-35
-1.02931e-34
1.27258e-35
-2.76107e-35
3.6648e-36
-6.91159e-36
9.06361e-37
-1.82062e-36
2.03506e-37
-4.24319e-37
4.65077e-38
-9.3196e-38
9.02741e-39
-4.77742e-38
1.5653e-39
-9.49583e-38
5.8555e-40
-2.26538e-37
7.38817e-40
7.83233e-40
-5.42791e-37
-8.95392e-53
3.1047e-56
-2.33188e-49
3.90964e-52
-1.20349e-46
4.07122e-49
-2.2628e-44
1.23429e-46
-1.94288e-42
1.57184e-44
-8.51822e-41
9.85825e-43
-2.06127e-39
3.30772e-41
-2.94996e-38
6.31935e-40
-2.67331e-37
7.29804e-39
-1.71295e-36
5.4221e-38
-9.13353e-36
2.88207e-37
-3.97917e-35
1.28649e-36
-1.56656e-34
4.72818e-36
-6.03188e-34
1.58194e-35
-2.30499e-33
5.22077e-35
-8.99357e-33
1.72945e-34
-3.51809e-32
5.94441e-34
-1.30819e-31
2.09508e-33
-4.45119e-31
7.22995e-33
-1.36967e-30
2.36498e-32
-3.84249e-30
7.26148e-32
-9.92152e-30
2.10365e-31
-2.35833e-29
5.76327e-31
-5.12487e-29
1.47967e-30
-1.00727e-28
3.50284e-30
-1.76491e-28
7.50416e-30
-2.87628e-28
1.42493e-29
-4.31202e-28
2.48985e-29
-5.74318e-28
3.94373e-29
-6.30765e-28
5.44923e-29
-5.78294e-28
6.07707e-29
-4.40276e-28
5.52348e-29
-2.81295e-28
4.06508e-29
-1.55392e-28
2.45048e-29
-7.68097e-29
1.25289e-29
-3.50336e-29
5.68098e-30
-1.50135e-29
2.38886e-30
-6.10067e-30
9.5788e-31
-2.3635e-30
3.69812e-31
-8.5936e-31
1.37155e-31
-2.84438e-31
4.75811e-32
-8.40226e-32
1.48285e-32
-2.34843e-32
4.03955e-33
-6.41211e-33
1.01398e-33
-1.56924e-33
2.40834e-34
-3.6605e-34
4.93155e-35
-1.87286e-34
9.15112e-36
-3.83521e-34
3.46154e-36
-1.00428e-33
4.61857e-36
5.82562e-36
-2.66209e-33
-1.80995e-49
1.52164e-52
-2.76773e-46
8.59473e-49
-9.81803e-44
5.80058e-46
-1.36726e-41
1.27108e-43
-9.17021e-40
1.23732e-41
-3.30141e-38
6.18842e-40
-6.88127e-37
1.72877e-38
-8.86948e-36
2.87138e-37
-7.61604e-35
3.00464e-36
-4.91779e-34
2.12286e-35
-2.51952e-33
1.13907e-34
-1.02994e-32
4.88622e-34
-3.76752e-32
1.68302e-33
-1.32348e-31
5.21999e-33
-4.60826e-31
1.5667e-32
-1.63997e-30
4.71173e-32
-5.85065e-30
1.47206e-31
-2.00107e-29
4.72091e-31
-6.26984e-29
1.49849e-30
-1.7767e-28
4.52768e-30
-4.60173e-28
1.28829e-29
-1.10384e-27
3.47545e-29
-2.4598e-27
8.9313e-29
-5.06452e-27
2.16998e-28
-9.53779e-27
4.90762e-28
-1.62369e-26
1.01432e-27
-2.53385e-26
1.88154e-27
-3.74662e-26
3.16184e-27
-5.09295e-26
4.95694e-27
-5.96064e-26
7.01131e-27
-5.97211e-26
8.35392e-27
-5.14594e-26
8.31606e-27
-3.7995e-26
6.93869e-27
-2.43146e-26
4.83863e-27
-1.38093e-26
2.8666e-27
-7.1358e-27
1.49344e-27
-3.40966e-27
7.12081e-28
-1.52661e-27
3.19011e-28
-6.45746e-28
1.36049e-28
-2.54396e-28
5.52032e-29
-9.14773e-29
2.07738e-29
-2.97722e-29
7.03659e-30
-9.18616e-30
2.11238e-30
-2.67417e-30
5.85602e-31
-7.01083e-31
1.48465e-31
-1.76274e-31
3.26445e-32
-9.23435e-32
6.55758e-33
-1.96638e-31
2.55982e-33
-5.6069e-31
3.60943e-33
5.19949e-33
-1.61578e-30
-5.25823e-47
7.70802e-50
-6.36802e-44
3.10798e-46
-1.86021e-41
1.66702e-43
-2.19159e-39
3.03731e-41
-1.2729e-37
2.52748e-39
-4.06439e-36
1.10458e-37
-7.72365e-35
2.75617e-36
-9.38641e-34
4.1954e-35
-7.90132e-33
4.15381e-34
-5.04279e-32
2.88278e-33
-2.46869e-31
1.52983e-32
-9.56717e-31
6.26666e-32
-3.26821e-30
2.04257e-31
-1.05459e-29
5.89881e-31
-3.35917e-29
1.62003e-30
-1.09093e-28
4.43779e-30
-3.5535e-28
1.2602e-29
-1.11835e-27
3.68118e-29
-3.24562e-27
1.07591e-28
-8.53482e-27
3.02586e-28
-2.05258e-26
8.06211e-28
-4.59276e-26
2.04361e-27
-9.63358e-26
4.96163e-27
-1.88682e-25
1.14832e-26
-3.41712e-25
2.4956e-26
-5.66201e-25
5.00029e-26
-8.54474e-25
9.08439e-26
-1.24469e-24
1.48352e-25
-1.70366e-24
2.30043e-25
-2.08714e-24
3.28741e-25
-2.23415e-24
4.11115e-25
-2.10389e-24
4.38007e-25
-1.73021e-24
3.99551e-25
-1.24731e-24
3.09806e-25
-7.97834e-25
2.05949e-25
-4.59678e-25
1.20246e-25
-2.424e-25
6.37491e-26
-1.1916e-25
3.1543e-26
-5.48802e-26
1.48169e-26
-2.34336e-26
6.56788e-27
-9.15463e-27
2.68466e-27
-3.27488e-27
9.88758e-28
-1.10405e-27
3.26243e-28
-3.45742e-28
9.87942e-29
-9.78461e-29
2.69471e-29
-2.66061e-29
6.40257e-30
-1.40911e-29
1.39461e-30
-3.05067e-29
5.53458e-31
-9.25991e-29
8.03186e-31
1.27693e-30
-2.80744e-28
-4.81326e-45
1.04273e-47
-5.22753e-42
3.596e-44
-1.37985e-39
1.71234e-41
-1.47766e-37
2.81548e-39
-7.85459e-36
2.13483e-37
-2.32075e-34
8.56905e-36
-4.1526e-33
1.9854e-34
-4.86795e-32
2.85369e-33
-4.05088e-31
2.73065e-32
-2.53917e-30
1.87515e-31
-1.19589e-29
9.77182e-31
-4.43988e-29
3.84601e-30
-1.42358e-28
1.19795e-29
-4.24437e-28
3.23532e-29
-1.23246e-27
8.17119e-29
-3.62872e-27
2.02976e-28
-1.07659e-26
5.20049e-28
-3.12574e-26
1.38013e-27
-8.43618e-26
3.72835e-27
-2.06577e-25
9.82841e-27
-4.63417e-25
2.47172e-26
-9.71435e-25
5.94391e-26
-1.92404e-24
1.37551e-25
-3.59483e-24
3.05238e-25
-6.27753e-24
6.40605e-25
-1.01414e-23
1.24895e-24
-1.49983e-23
2.22685e-24
-2.13291e-23
3.58107e-24
-2.91182e-23
5.44256e-24
-3.68811e-23
7.7832e-24
-4.16309e-23
1.00884e-23
-4.20423e-23
1.13467e-23
-3.76744e-23
1.10874e-23
-2.98803e-23
9.3237e-24
-2.10949e-23
6.75902e-24
-1.34082e-23
4.30837e-24
-7.78497e-24
2.50287e-24
-4.18583e-24
1.36376e-24
-2.09622e-24
7.04006e-25
-9.70591e-25
3.41049e-25
-4.11404e-25
1.51633e-25
-1.60831e-25
6.06449e-26
-5.88663e-26
2.18534e-26
-1.98891e-26
7.1762e-27
-6.09899e-27
2.10973e-27
-1.78515e-27
5.43057e-28
-9.11813e-28
1.27493e-28
-1.88442e-27
4.89893e-29
-5.87048e-27
6.85346e-29
1.15189e-28
-1.8024e-26
-1.98404e-43
5.75951e-46
-2.06856e-40
1.86743e-42
-5.21443e-38
8.44972e-40
-5.3032e-36
1.32175e-37
-2.66775e-34
9.51451e-36
-7.48036e-33
3.61857e-34
-1.28503e-31
7.97021e-33
-1.4734e-30
1.10159e-31
-1.21346e-29
1.03217e-30
-7.40123e-29
7.01764e-30
-3.373e-28
3.55651e-29
-1.20609e-27
1.35222e-28
-3.64087e-27
4.04454e-28
-1.00208e-26
1.02392e-27
-2.64495e-26
2.37365e-27
-7.03981e-26
5.32483e-27
-1.89792e-25
1.2261e-26
-5.07358e-25
2.94938e-26
-1.27151e-24
7.36738e-26
-2.90599e-24
1.82758e-25
-6.09992e-24
4.38215e-25
-1.20156e-23
1.01114e-24
-2.25307e-23
2.25253e-24
-4.02543e-23
4.82771e-24
-6.79407e-23
9.83091e-24
-1.07212e-22
1.87032e-23
-1.56837e-22
3.27634e-23
-2.1733e-22
5.23021e-23
-2.93851e-22
7.76657e-23
-3.80759e-22
1.10265e-22
-4.49686e-22
1.46442e-22
-4.82037e-22
1.72311e-22
-4.65078e-22
1.78161e-22
-4.00708e-22
1.59927e-22
-3.08203e-22
1.24007e-22
-2.13209e-22
8.44507e-23
-1.34538e-22
5.27689e-23
-7.85872e-23
3.1263e-23
-4.2755e-23
1.76712e-23
-2.15699e-23
9.36993e-24
-1.00288e-23
4.5562e-24
-4.31262e-24
1.99917e-24
-1.72232e-24
7.90899e-25
-6.31965e-25
2.82624e-25
-2.11444e-25
9.00151e-26
-6.67891e-26
2.52423e-26
-3.13028e-26
6.3952e-27
-5.51553e-26
2.26052e-27
-1.67331e-25
2.71749e-27
4.56137e-27
-5.02854e-25
-4.49219e-42
1.63875e-44
-4.70766e-39
5.31075e-41
-1.17744e-36
2.39717e-38
-1.17076e-34
3.7077e-36
-5.68825e-33
2.60728e-34
-1.53488e-31
9.58355e-33
-2.5552e-30
2.03403e-31
-2.87787e-29
2.7284e-30
-2.3421e-28
2.51421e-29
-1.37731e-27
1.69024e-28
-6.06927e-27
8.25713e-28
-2.07893e-26
3.03134e-27
-5.89539e-26
8.6604e-27
-1.49913e-25
2.04993e-26
-3.59761e-25
4.36174e-26
-8.62511e-25
8.8266e-26
-2.09696e-24
1.81789e-25
-5.11553e-24
3.9366e-25
-1.18589e-23
9.0597e-25
-2.52521e-23
2.13047e-24
-4.95804e-23
4.93637e-24
-9.18413e-23
1.10898e-23
-1.63329e-22
2.40739e-23
-2.79796e-22
5.02568e-23
-4.58074e-22
9.97929e-23
-7.08721e-22
1.85708e-22
-1.02735e-21
3.19716e-22
-1.40087e-21
5.05397e-22
-1.87327e-21
7.37636e-22
-2.46441e-21
1.03502e-21
-3.02981e-21
1.39389e-21
-3.43764e-21
1.70208e-21
-3.55968e-21
1.85033e-21
-3.31752e-21
1.75657e-21
-2.76142e-21
1.43559e-21
-2.05853e-21
1.02286e-21
-1.3968e-21
6.75838e-22
-8.78576e-22
4.31826e-22
-5.16659e-22
2.66535e-22
-2.83252e-22
1.54398e-22
-1.44029e-22
8.18641e-23
-6.80414e-23
3.92035e-23
-2.97956e-23
1.69597e-23
-1.19789e-23
6.61119e-24
-4.3877e-24
2.29677e-24
-1.49674e-24
7.02822e-25
-6.36702e-25
1.92006e-25
-8.51406e-25
6.16655e-26
-2.39546e-24
5.66062e-26
9.00531e-26
-6.95264e-24
-6.32771e-41
2.77344e-43
-6.91719e-38
9.42332e-40
-1.76882e-35
4.4182e-37
-1.75495e-33
6.9749e-35
-8.34002e-32
4.89547e-33
-2.18587e-30
1.76291e-31
-3.55487e-29
3.64314e-30
-3.91919e-28
4.78743e-29
-3.07565e-27
4.3308e-28
-1.72503e-26
2.81472e-27
-7.23132e-26
1.31395e-26
-2.34595e-25
4.59246e-26
-6.23454e-25
1.24155e-25
-1.45883e-24
2.74535e-25
-3.16877e-24
5.34338e-25
-6.76217e-24
9.70758e-25
-1.45797e-23
1.76704e-24
-3.18671e-23
3.40155e-24
-6.71942e-23
7.18805e-24
-1.31531e-22
1.62187e-23
-2.39292e-22
3.71566e-23
-4.14764e-22
8.32009e-23
-6.99557e-22
1.79138e-22
-1.15483e-21
3.68244e-22
-1.85105e-21
7.16812e-22
-2.84125e-21
1.30692e-21
-4.12807e-21
2.20988e-21
-5.6388e-21
3.4506e-21
-7.53394e-21
4.97762e-21
-1.00424e-20
6.90431e-21
-1.28931e-20
9.32185e-21
-1.55946e-20
1.17393e-20
-1.74935e-20
1.33845e-20
-1.77787e-20
1.33846e-20
-1.60436e-20
1.13972e-20
-1.27816e-20
8.28772e-21
-9.21641e-21
5.68253e-21
-6.18807e-21
3.90108e-21
-3.92173e-21
2.63743e-21
-2.33825e-21
1.66926e-21
-1.30295e-21
9.62342e-22
-6.76638e-22
5.01072e-22
-3.25358e-22
2.35903e-22
-1.43583e-22
1.0003e-22
-5.78144e-23
3.78544e-23
-2.14721e-23
1.26626e-23
-8.63223e-24
3.75356e-24
-8.01226e-24
1.13854e-24
-1.93137e-23
7.28578e-25
1.01195e-24
-5.36701e-23
-5.9994e-40
3.0504e-42
-7.10848e-37
1.13944e-38
-1.91452e-34
5.78926e-36
-1.9292e-32
9.63898e-34
-9.05872e-31
6.89259e-32
-2.3062e-29
2.46403e-30
-3.62604e-28
4.97618e-29
-3.84186e-27
6.36798e-28
-2.78867e-26
5.58199e-27
-1.44845e-25
3.38635e-26
-5.65616e-25
1.47828e-25
-1.70365e-24
4.8615e-25
-4.14926e-24
1.23208e-24
-8.70189e-24
2.51766e-24
-1.65126e-23
4.41857e-24
-2.99241e-23
7.0418e-24
-5.35843e-23
1.09802e-23
-9.6428e-23
1.81905e-23
-1.67692e-22
3.50555e-23
-2.71648e-22
7.87545e-23
-4.15033e-22
1.88796e-22
-6.28695e-22
4.41519e-22
-9.90132e-22
9.70687e-22
-1.64242e-21
1.99493e-21
-2.79356e-21
3.82957e-21
-4.66503e-21
6.84233e-21
-7.38495e-21
1.13292e-20
-1.09032e-20
1.73946e-20
-1.53948e-20
2.49535e-20
-2.17086e-20
3.42617e-20
-3.04178e-20
4.60531e-20
-4.11442e-20
5.95542e-20
-5.26529e-20
7.14014e-20
-6.10291e-20
7.54369e-20
-6.11419e-20
6.64189e-20
-5.15843e-20
4.75431e-20
-3.87684e-20
3.30102e-20
-2.74968e-20
2.44645e-20
-1.88487e-20
1.83467e-20
-1.23416e-20
1.27026e-20
-7.60828e-21
7.92518e-21
-4.37444e-21
4.46172e-21
-2.32477e-21
2.27591e-21
-1.1327e-21
1.04814e-21
-5.03475e-22
4.32194e-22
-2.05031e-22
1.58087e-22
-8.24656e-23
5.10587e-23
-5.32211e-23
1.54457e-23
-9.62971e-23
6.88578e-24
7.29467e-24
-2.50587e-22
-4.04098e-39
2.29262e-41
-5.50033e-36
1.00548e-37
-1.62754e-33
5.90114e-35
-1.68723e-31
1.08686e-32
-7.70371e-30
8.07095e-31
-1.85847e-28
2.84063e-29
-2.70566e-27
5.52376e-28
-2.57018e-26
6.67964e-27
-1.65648e-25
5.38702e-26
-7.60564e-25
2.99947e-25
-2.58238e-24
1.20852e-24
-6.57991e-24
3.66089e-24
-1.26613e-23
8.50469e-24
-1.84786e-23
1.54722e-23
-1.77636e-23
2.31164e-23
1.43176e-24
2.92941e-23
3.96362e-23
3.30702e-23
1.4141e-22
3.78948e-23
3.91445e-22
6.45907e-23
9.47272e-22
1.87988e-22
1.98896e-21
6.00868e-22
3.62744e-21
1.66436e-21
5.88398e-21
3.95253e-21
8.68829e-21
8.31689e-21
1.18166e-20
1.58661e-20
1.48411e-20
2.77396e-20
1.72876e-20
4.46398e-20
1.88844e-20
6.66736e-20
1.89026e-20
9.4433e-20
1.53688e-20
1.29378e-19
5.79778e-21
1.74269e-19
-1.60893e-20
2.31455e-19
-5.69481e-20
2.95195e-19
-1.08195e-19
3.3448e-19
-1.39542e-19
3.05178e-19
-1.21685e-19
2.01975e-19
-8.94983e-20
1.36965e-19
-6.57563e-20
1.12265e-19
-5.08933e-20
9.60135e-20
-3.85739e-20
7.25665e-20
-2.73408e-20
4.85114e-20
-1.78355e-20
2.92524e-20
-1.06469e-20
1.60657e-20
-5.79509e-21
8.0112e-21
-2.86999e-21
3.59657e-21
-1.29558e-21
1.43936e-21
-5.50219e-22
5.08738e-22
-2.79154e-22
1.61131e-22
-3.25858e-22
5.63208e-23
3.89537e-23
-7.39518e-22
-2.17098e-38
1.27966e-40
-3.72155e-35
7.45391e-37
-1.20727e-32
5.59927e-34
-1.18951e-30
1.1521e-31
-4.87062e-29
8.33869e-30
-1.03476e-27
2.72445e-28
-1.29569e-26
4.89689e-27
-9.94611e-26
5.46361e-26
-4.83066e-25
3.96591e-25
-1.38663e-24
1.99566e-24
-1.0646e-24
7.25982e-24
3.68981e-24
1.93879e-23
2.59664e-23
3.80808e-23
1.00434e-22
5.3658e-23
2.88495e-22
4.74993e-23
6.88627e-22
-1.25581e-23
1.47404e-21
-4.92701e-22
2.98047e-21
-1.17793e-21
5.97222e-21
-1.83542e-21
1.17693e-20
-1.58993e-21
2.16052e-20
6.12459e-22
3.60072e-20
4.19928e-21
5.50723e-20
1.23345e-20
7.8867e-20
2.76725e-20
1.07222e-19
5.30705e-20
1.39507e-19
9.0627e-20
1.75761e-19
1.3995e-19
2.18486e-19
1.98604e-19
2.67755e-19
2.72103e-19
3.16315e-19
3.74503e-19
3.5849e-19
5.12726e-19
3.84097e-19
7.05007e-19
3.34445e-19
9.83786e-19
1.65816e-19
1.23891e-18
-2.83865e-20
1.19474e-18
-2.333e-21
6.63939e-19
7.42732e-20
4.09366e-19
6.81075e-20
4.01963e-19
3.69128e-21
4.11464e-19
-2.89112e-20
3.33927e-19
-3.79822e-20
2.33909e-19
-3.37381e-20
1.48488e-19
-2.47774e-20
8.6894e-20
-1.59039e-20
4.66475e-20
-9.09966e-21
2.27263e-20
-4.68348e-21
9.93108e-21
-2.20333e-21
3.8438e-21
-1.0449e-21
1.30995e-21
-7.76582e-22
4.20211e-22
1.85128e-22
-1.3184e-21
-1.15275e-37
7.59469e-40
-2.29027e-34
6.06317e-36
-6.77158e-32
5.51116e-33
-5.59148e-30
1.09162e-30
-1.83265e-28
7.18198e-29
-2.80496e-27
2.14278e-27
-1.72777e-26
3.53793e-26
7.79959e-27
3.54149e-25
3.40294e-25
2.28319e-24
3.92688e-24
9.97833e-24
2.71537e-23
3.03559e-23
1.30915e-22
6.22647e-23
4.731e-22
7.07696e-23
1.34692e-21
-1.2851e-22
3.18646e-21
-1.41674e-21
6.56579e-21
-3.88355e-21
1.23611e-20
-7.63349e-21
2.20566e-20
-1.23779e-20
3.91802e-20
-1.74579e-20
7.00501e-20
-2.06737e-20
1.19405e-19
-1.47169e-20
1.87424e-19
4.68336e-21
2.72031e-19
2.95687e-20
3.71571e-19
7.6111e-20
4.83867e-19
1.49378e-19
6.05927e-19
2.49619e-19
7.4189e-19
3.65105e-19
9.16359e-19
4.72584e-19
1.14908e-18
5.94591e-19
1.44136e-18
8.1632e-19
1.80759e-18
1.14564e-18
2.22837e-18
1.64596e-18
2.48366e-18
2.6909e-18
2.24275e-18
4.02934e-18
1.42714e-18
4.13168e-18
1.87114e-18
1.60642e-18
2.25172e-18
7.69872e-19
1.85086e-18
1.24364e-18
1.14133e-18
1.61187e-18
6.16504e-19
1.3466e-18
3.20231e-19
9.45294e-19
1.62594e-19
6.13071e-19
7.73489e-20
3.75663e-19
3.23061e-20
2.14729e-19
1.05814e-20
1.12634e-19
1.72165e-21
5.3435e-20
-4.21941e-22
2.25689e-20
-4.9453e-22
8.3528e-21
-3.81361e-22
2.72586e-21
9.09165e-22
-4.80074e-22
-4.71308e-37
4.57653e-39
-8.71689e-34
4.93527e-35
-1.79239e-31
4.90829e-32
-6.27561e-30
8.92786e-30
7.27655e-30
5.26082e-28
9.42984e-28
1.43055e-26
3.42234e-26
2.10544e-25
6.19552e-25
1.81203e-24
6.7953e-24
9.79342e-24
5.05692e-23
3.40358e-23
2.72202e-22
6.81359e-23
1.10589e-21
1.31972e-23
3.53334e-21
-1.48383e-21
9.16988e-21
-5.83925e-21
2.00843e-20
-1.44118e-20
3.85485e-20
-2.77408e-20
6.7483e-20
-4.54577e-20
1.10827e-19
-6.55724e-20
1.79595e-19
-8.59332e-20
2.96132e-19
-1.02059e-19
4.73131e-19
-9.4585e-20
7.03528e-19
-3.4321e-20
9.70898e-19
5.18665e-20
1.26168e-18
1.77944e-19
1.55927e-18
3.666e-19
1.84445e-18
6.06859e-19
2.13116e-18
8.42713e-19
2.53124e-18
9.52444e-19
3.16366e-18
9.76352e-19
4.12847e-18
1.27293e-18
5.6193e-18
1.86353e-18
8.01534e-18
2.54582e-18
8.97499e-18
4.69395e-18
7.84766e-18
2.813e-17
1.04456e-17
1.70987e-17
1.54088e-17
2.17292e-18
1.70637e-17
-7.09445e-19
1.2945e-17
4.2548e-18
7.80104e-18
6.88144e-18
4.60083e-18
5.28413e-18
2.91308e-18
3.3971e-18
1.90649e-18
2.14673e-18
1.22589e-18
1.34302e-18
7.54753e-19
8.03395e-19
4.40253e-19
4.47454e-19
2.42061e-19
2.27989e-19
1.25325e-19
1.04234e-19
6.13368e-20
4.1781e-20
2.87605e-20
1.4425e-20
4.43942e-21
1.37967e-20
-2.58336e-37
2.44747e-38
3.35424e-36
4.53216e-34
1.06579e-32
4.21459e-31
3.87396e-30
6.53276e-29
4.03877e-28
3.34914e-27
1.81995e-26
7.90233e-26
4.23391e-25
9.75779e-25
5.85061e-24
6.89548e-24
5.31822e-23
2.81724e-23
3.44275e-22
5.11024e-23
1.6466e-21
-4.02043e-22
6.07815e-21
-3.75424e-21
1.79736e-20
-1.399e-20
4.38811e-20
-3.61157e-20
9.1239e-20
-7.3348e-20
1.66716e-19
-1.24898e-19
2.7706e-19
-1.86981e-19
4.27327e-19
-2.5077e-19
6.42685e-19
-3.10159e-19
9.85699e-19
-3.57384e-19
1.48007e-18
-3.48294e-19
2.08896e-18
-2.21142e-19
2.74737e-18
4.85238e-20
3.40091e-18
3.57054e-19
3.9816e-18
7.97707e-19
4.41227e-18
1.34148e-18
4.71611e-18
1.82532e-18
5.21822e-18
1.80837e-18
6.24765e-18
1.30074e-18
8.59923e-18
1.03306e-18
1.26302e-17
1.8414e-18
1.37997e-17
1.16098e-18
4.93067e-17
3.29931e-18
5.29308e-17
2.84926e-17
3.15844e-17
4.13786e-17
6.45703e-17
-6.81869e-17
6.55993e-17
-2.81433e-17
4.03365e-17
1.07647e-17
2.47836e-17
2.3051e-17
1.78266e-17
1.50322e-17
1.33117e-17
9.21194e-18
9.61493e-18
5.88321e-18
6.58258e-18
3.84004e-18
4.29445e-18
2.40551e-18
2.68033e-18
1.41043e-18
1.59742e-18
7.6543e-19
9.06543e-19
3.76265e-19
4.89661e-19
1.62216e-19
2.52344e-19
5.94112e-20
1.85492e-20
1.26134e-19
3.80334e-39
2.00615e-37
1.70704e-34
4.49752e-33
2.35984e-31
3.22197e-30
5.37525e-29
4.00486e-28
4.19987e-27
1.73981e-26
1.49865e-25
3.40186e-25
2.90675e-24
3.39453e-24
3.47749e-23
1.75332e-23
2.83611e-22
2.88484e-23
1.65522e-21
-6.72995e-22
7.25423e-21
-5.50788e-21
2.48861e-20
-2.24948e-20
6.92458e-20
-6.45568e-20
1.60956e-19
-1.4453e-19
3.21271e-19
-2.67109e-19
5.65543e-19
-4.23595e-19
9.04134e-19
-5.97431e-19
1.33123e-18
-7.61716e-19
1.89166e-18
-9.03168e-19
2.72357e-18
-1.00639e-18
3.84705e-18
-9.85585e-19
5.15858e-18
-7.38571e-19
6.4923e-18
-1.23482e-19
7.69497e-18
6.0529e-19
8.57257e-18
1.53371e-18
8.90703e-18
2.71513e-18
8.73607e-18
3.80066e-18
8.82655e-18
3.46941e-18
9.39153e-18
2.01925e-18
1.21632e-17
1.54611e-19
1.97513e-17
-1.10813e-18
2.84816e-17
-8.09774e-19
4.31184e-17
-2.3006e-18
6.93113e-17
1.33773e-18
1.24443e-16
1.00183e-16
7.40696e-16
-3.45013e-16
4.99601e-16
2.89905e-16
1.23566e-16
3.80513e-16
6.37913e-17
5.07421e-17
4.80563e-17
2.39664e-17
3.79386e-17
1.53627e-17
2.86482e-17
1.09134e-17
2.04549e-17
7.89369e-18
1.4007e-17
5.30859e-18
9.26949e-18
3.31367e-18
5.91546e-18
1.9359e-18
3.62716e-18
1.03276e-18
2.13464e-18
4.79521e-19
1.20502e-18
1.8398e-19
5.86936e-20
6.51326e-19
9.26802e-38
2.48654e-36
2.59269e-33
3.90426e-32
2.42061e-30
2.01379e-29
4.29212e-28
2.01008e-27
2.75932e-26
7.15519e-26
8.32191e-25
1.11641e-24
1.4102e-23
8.11325e-24
1.5202e-22
1.5709e-23
1.12535e-21
-5.42502e-22
6.03285e-21
-5.18439e-21
2.46144e-20
-2.49672e-20
7.94979e-20
-8.30352e-20
2.10283e-19
-2.11418e-19
4.69147e-19
-4.3643e-19
9.06366e-19
-7.60464e-19
1.5521e-18
-1.15149e-18
2.41567e-18
-1.56027e-18
3.45522e-18
-1.92748e-18
4.73719e-18
-2.22418e-18
6.4841e-18
-2.40505e-18
8.64321e-18
-2.33824e-18
1.10415e-17
-1.91357e-18
1.3408e-17
-8.12848e-19
1.5377e-17
8.28777e-19
1.65571e-17
2.57294e-18
1.62431e-17
5.09286e-18
1.4753e-17
7.61306e-18
1.38303e-17
6.56906e-18
1.30887e-17
3.83426e-18
1.30034e-17
4.04005e-19
1.40388e-17
-2.06891e-18
3.02521e-17
-2.27273e-18
2.14217e-17
2.41782e-18
2.51103e-17
1.62438e-17
2.20286e-15
2.43599e-17
1.81844e-15
-1.69869e-16
2.03945e-15
-2.81093e-16
8.6683e-16
4.39104e-16
3.02249e-16
1.39762e-16
1.18349e-16
4.75399e-17
6.92964e-17
2.28339e-17
5.06723e-17
1.59474e-17
3.83271e-17
1.21265e-17
2.85689e-17
8.58445e-18
2.07096e-17
5.74982e-18
1.44614e-17
3.70611e-18
9.69317e-18
2.19855e-18
6.25251e-18
1.10882e-18
3.8909e-18
4.31917e-19
1.29946e-19
2.31623e-18
1.54263e-36
2.94082e-35
2.47697e-32
2.71659e-31
1.66989e-29
1.01633e-28
2.42061e-27
8.14023e-27
1.30134e-25
2.28555e-25
3.41001e-24
2.64902e-24
5.1626e-23
8.88404e-24
5.07147e-22
-2.39408e-22
3.44069e-21
-3.17068e-21
1.71541e-20
-1.90802e-20
6.58275e-20
-7.62554e-20
2.01962e-19
-2.27057e-19
5.12015e-19
-5.36071e-19
1.10462e-18
-1.04822e-18
2.08213e-18
-1.75732e-18
3.50265e-18
-2.58586e-18
5.37627e-18
-3.42715e-18
7.62349e-18
-4.18284e-18
1.03187e-17
-4.76046e-18
1.36524e-17
-5.00948e-18
1.73546e-17
-4.80777e-18
2.12915e-17
-4.16592e-18
2.52078e-17
-2.39789e-18
2.82998e-17
8.2706e-19
3.04146e-17
3.63333e-18
2.84641e-17
8.86112e-18
2.40937e-17
1.50403e-17
2.19204e-17
1.18299e-17
2.09087e-17
6.58032e-18
1.94499e-17
2.17873e-18
1.91244e-17
-1.30912e-18
1.97766e-17
-6.28177e-19
2.15187e-17
2.38443e-18
2.53304e-17
4.51027e-18
2.2343e-15
-6.40264e-17
1.45458e-15
2.28915e-16
9.36533e-16
-1.43623e-16
1.493e-16
-1.25387e-16
1.04173e-16
4.28837e-17
9.55913e-17
3.08661e-17
8.26824e-17
2.30915e-17
6.88332e-17
1.82324e-17
5.6277e-17
1.4754e-17
4.55199e-17
1.09456e-17
3.59733e-17
7.95794e-18
2.7348e-17
5.84027e-18
1.99244e-17
3.96154e-18
1.40136e-17
2.18587e-18
9.601e-18
8.07764e-19
1.63511e-19
6.3306e-18
1.74789e-35
2.79138e-34
1.65387e-31
1.51232e-30
8.39226e-29
4.16789e-28
9.99899e-27
2.60962e-26
4.59521e-25
5.57105e-25
1.06449e-23
3.84801e-24
1.46389e-22
-5.04063e-23
1.31205e-21
-1.23089e-21
8.2564e-21
-9.91731e-21
3.86193e-20
-4.95107e-20
1.40433e-19
-1.77248e-19
4.12064e-19
-4.8948e-19
1.00787e-18
-1.0947e-18
2.11678e-18
-2.05986e-18
3.92326e-18
-3.37012e-18
6.5454e-18
-4.8844e-18
1.00492e-17
-6.44451e-18
1.44373e-17
-7.92132e-18
1.97242e-17
-8.99058e-18
2.57218e-17
-9.21047e-18
3.17662e-17
-8.60032e-18
3.79005e-17
-7.60933e-18
4.37194e-17
-4.84594e-18
4.74096e-17
9.01549e-19
5.27748e-17
3.59176e-18
4.76757e-17
1.21196e-17
3.15506e-17
9.95207e-17
3.46729e-17
1.80623e-17
3.36578e-17
9.67132e-18
3.09743e-17
4.20341e-18
2.8777e-17
-2.7002e-19
3.20584e-17
-2.60515e-18
4.83083e-17
-4.97405e-18
8.19631e-17
-1.29385e-17
1.6322e-16
-2.72422e-17
6.22981e-16
1.53122e-16
4.07875e-16
2.02863e-16
1.30246e-16
1.46687e-17
1.39934e-16
6.94118e-18
1.21193e-16
1.93816e-17
1.03614e-16
1.4818e-17
8.85707e-17
1.42349e-17
7.52736e-17
1.42426e-17
6.43153e-17
1.12852e-17
5.4064e-17
9.31681e-18
4.39065e-17
8.16944e-18
3.42979e-17
6.52805e-18
2.60535e-17
3.98065e-18
1.95864e-17
1.24711e-18
-2.43214e-19
1.43447e-17
1.34656e-34
2.06853e-33
7.86712e-31
6.75624e-30
3.09949e-28
1.38636e-27
3.07171e-26
6.649e-26
1.23063e-24
9.98625e-25
2.56376e-23
6.97782e-26
3.218e-22
-2.81431e-22
2.66817e-21
-3.40666e-21
1.57223e-20
-2.23972e-20
6.95368e-20
-9.97411e-20
2.41176e-19
-3.30382e-19
6.80581e-19
-8.62346e-19
1.6144e-18
-1.85131e-18
3.31858e-18
-3.38894e-18
6.08674e-18
-5.46785e-18
1.01436e-17
-7.87581e-18
1.5785e-17
-1.051e-17
2.34212e-17
-1.32243e-17
3.28893e-17
-1.50845e-17
4.31209e-17
-1.5047e-17
5.27198e-17
-1.32391e-17
6.24027e-17
-1.18921e-17
6.78075e-17
-5.65443e-18
6.89876e-17
2.30518e-18
8.08249e-17
1.49885e-18
8.09564e-17
9.95259e-18
7.48773e-17
6.41983e-17
6.1591e-17
2.21309e-17
5.07691e-17
1.59527e-17
4.3718e-17
7.90904e-18
3.99445e-17
4.67289e-19
4.05521e-17
-5.67423e-18
4.64246e-17
-1.04555e-17
5.66248e-17
-1.40116e-17
5.97291e-17
-1.30579e-17
8.99295e-17
1.03307e-17
1.05372e-16
1.83835e-17
8.30622e-17
4.62144e-18
8.08803e-17
6.14977e-19
8.75985e-17
1.82235e-18
9.10666e-17
2.91478e-18
9.09699e-17
6.08502e-18
8.68771e-17
1.02647e-17
8.05259e-17
1.02461e-17
7.33206e-17
9.7777e-18
6.42375e-17
1.09022e-17
5.39274e-17
1.05922e-17
4.40569e-17
7.29561e-18
3.62004e-17
1.65199e-18
-2.90622e-18
2.94455e-17
6.76582e-34
1.18825e-32
2.60346e-30
2.43875e-29
8.20601e-28
3.74971e-27
6.96379e-26
1.36302e-25
2.49216e-24
1.19745e-24
4.74973e-23
-2.93915e-23
5.51713e-22
-7.24657e-22
4.28999e-21
-6.84346e-21
2.39272e-20
-3.97963e-20
1.0094e-19
-1.6349e-19
3.3628e-19
-5.10856e-19
9.17847e-19
-1.27725e-18
2.1215e-18
-2.6596e-18
4.28606e-18
-4.77742e-18
7.81233e-18
-7.65882e-18
1.30365e-17
-1.10134e-17
2.07363e-17
-1.50317e-17
3.21328e-17
-1.95242e-17
4.68454e-17
-2.2476e-17
6.24065e-17
-2.17448e-17
7.67754e-17
-1.81007e-17
8.97901e-17
-1.43758e-17
9.18233e-17
-4.0553e-18
7.85397e-17
2.77241e-17
8.83221e-17
1.33103e-17
8.75981e-17
2.55691e-17
1.14879e-16
3.07636e-17
8.43624e-17
4.31116e-17
6.49458e-17
3.05015e-17
5.60542e-17
1.3021e-17
5.13945e-17
9.87426e-19
4.89432e-17
-7.78536e-18
4.82046e-17
-1.37586e-17
4.88029e-17
-1.68996e-17
4.91923e-17
-1.47282e-17
7.04822e-17
-2.25833e-18
8.48116e-17
1.65527e-18
8.86838e-17
-2.27617e-18
9.17249e-17
-4.68605e-18
9.6644e-17
-4.85035e-18
1.03072e-16
-5.28061e-18
1.06342e-16
4.95943e-19
9.97592e-17
1.97693e-17
1.00465e-16
8.05946e-18
1.00232e-16
9.32625e-18
9.5309e-17
1.45185e-17
8.56353e-17
1.77105e-17
7.39277e-17
1.44773e-17
6.547e-17
2.08364e-18
-1.17251e-17
5.88462e-17
1.9191e-33
5.30392e-32
5.42298e-30
7.18385e-29
1.45723e-27
8.42041e-27
1.11595e-25
2.31357e-25
3.70747e-24
6.03541e-25
6.64581e-23
-8.02638e-23
7.32278e-22
-1.32286e-21
5.43974e-21
-1.087e-20
2.91394e-20
-5.81107e-20
1.18624e-19
-2.24973e-19
3.83147e-19
-6.72933e-19
1.01898e-18
-1.63017e-18
2.30808e-18
-3.3236e-18
4.60126e-18
-5.90291e-18
8.35284e-18
-9.44976e-18
1.39208e-17
-1.35905e-17
2.26578e-17
-1.90019e-17
3.64167e-17
-2.51322e-17
5.52949e-17
-2.96472e-17
7.48137e-17
-2.79727e-17
9.0597e-17
-2.09418e-17
1.09025e-16
-1.85652e-17
1.18167e-16
-9.22906e-18
1.83924e-16
5.48813e-17
1.27389e-16
5.75197e-17
1.09116e-16
2.49552e-17
1.39522e-16
4.00191e-17
9.38007e-17
8.17069e-17
7.17099e-17
4.14115e-17
6.58849e-17
1.17758e-17
6.29369e-17
-2.06615e-18
6.0813e-17
-1.13362e-17
5.92255e-17
-1.73269e-17
5.85324e-17
-2.01305e-17
6.08015e-17
-1.90676e-17
7.1167e-17
-1.3155e-17
8.46526e-17
-1.1051e-17
9.79316e-17
-1.3647e-17
1.0949e-16
-1.40118e-17
1.19468e-16
-1.28376e-17
1.28676e-16
-1.31616e-17
1.33331e-16
-5.82465e-18
1.18874e-16
9.93965e-18
1.21997e-16
3.23244e-18
1.25076e-16
6.52836e-18
1.23357e-16
1.56313e-17
1.14952e-16
2.34849e-17
1.03014e-16
2.57505e-17
1.03143e-16
3.2426e-18
-9.26646e-17
1.11034e-16
7.00283e-34
1.84645e-31
3.95727e-30
1.74911e-28
1.28115e-27
1.61846e-26
1.06455e-25
3.43622e-25
3.66134e-24
-1.26448e-24
6.6158e-23
-1.37647e-22
7.25302e-22
-1.89351e-21
5.32115e-21
-1.42409e-20
2.80474e-20
-7.17552e-20
1.12212e-19
-2.66148e-19
3.56386e-19
-7.71862e-19
9.33748e-19
-1.83108e-18
2.08975e-18
-3.68802e-18
4.13182e-18
-6.51957e-18
7.47426e-18
-1.04486e-17
1.23667e-17
-1.50251e-17
2.03574e-17
-2.11145e-17
3.29788e-17
-2.75116e-17
4.84949e-17
-3.06889e-17
6.71628e-17
-3.10378e-17
1.30937e-16
-6.8719e-17
1.82547e-16
-4.48686e-17
1.38686e-16
1.68146e-17
1.24994e-16
5.91435e-17
3.35816e-16
1.30741e-15
4.22603e-16
2.0575e-15
4.84483e-16
1.27619e-15
9.30712e-17
8.2325e-16
9.64115e-17
2.11187e-17
8.26431e-17
4.11581e-18
7.3504e-17
-5.46002e-18
7.05912e-17
-1.52712e-17
7.06542e-17
-2.19478e-17
7.24383e-17
-2.47925e-17
7.85502e-17
-2.51053e-17
9.24249e-17
-2.34565e-17
1.11136e-16
-2.34837e-17
1.29718e-16
-2.48285e-17
1.46966e-16
-2.4489e-17
1.61118e-16
-2.21065e-17
1.68415e-16
-1.80489e-17
1.7402e-16
-1.16446e-17
1.84438e-16
-3.29891e-18
1.83464e-16
1.37647e-18
1.84041e-16
7.08458e-18
2.02207e-16
1.62094e-17
2.37925e-16
3.67908e-17
2.57307e-16
5.67276e-17
3.09535e-16
1.81815e-16
-9.81825e-16
5.31675e-16
-6.10247e-30
5.13342e-31
-1.13988e-27
3.59606e-28
-3.94358e-26
2.74499e-26
-1.48067e-25
4.8115e-25
1.20217e-24
-3.05815e-24
3.52024e-23
-1.77184e-22
4.62201e-22
-2.22162e-21
3.68636e-21
-1.5801e-20
2.02463e-20
-7.6512e-20
8.26461e-20
-2.75809e-19
2.64934e-19
-7.84665e-19
6.96849e-19
-1.84111e-18
1.5615e-18
-3.69346e-18
3.08494e-18
-6.53506e-18
5.55606e-18
-1.04927e-17
9.03751e-18
-1.49754e-17
1.45587e-17
-2.02925e-17
2.11575e-17
-2.39887e-17
2.82816e-17
-2.43854e-17
8.52378e-17
-6.4579e-17
7.23391e-17
-5.08919e-17
2.79008e-17
-8.87759e-18
2.32777e-17
1.07954e-17
1.11425e-15
2.1115e-16
4.93868e-15
1.72411e-15
3.69393e-15
2.56046e-15
2.40175e-15
1.84723e-15
1.11205e-16
3.22278e-15
9.53721e-17
2.863e-17
9.00831e-17
1.13675e-18
7.84756e-17
-8.4379e-18
7.60085e-17
-2.04096e-17
7.81889e-17
-2.66956e-17
8.23714e-17
-2.99072e-17
9.00989e-17
-3.1323e-17
1.03839e-16
-3.17942e-17
1.22236e-16
-3.25528e-17
1.42777e-16
-3.33013e-17
1.64052e-16
-3.25519e-17
1.84326e-16
-2.95974e-17
2.00483e-16
-2.39767e-17
2.11556e-16
-1.8128e-17
2.19174e-16
-1.32946e-17
2.14614e-16
-1.76462e-18
2.07011e-16
4.77936e-18
2.07823e-16
7.39559e-18
2.27725e-16
9.60193e-18
2.47657e-16
2.93907e-17
5.43243e-15
5.35143e-16
-7.25146e-16
4.72614e-15
-2.28759e-29
1.18862e-30
-4.37794e-27
6.47126e-28
-1.96808e-25
4.22255e-26
-3.55473e-24
6.70467e-25
-3.1057e-23
-3.11138e-24
-1.24604e-22
-1.81929e-22
1.46353e-23
-2.19477e-21
1.08761e-21
-1.51262e-20
8.6538e-21
-7.15582e-20
4.14159e-20
-2.54007e-19
1.44406e-19
-7.16664e-19
3.99028e-19
-1.67846e-18
9.21488e-19
-3.37869e-18
1.85023e-18
-6.0147e-18
3.33988e-18
-9.69777e-18
5.33232e-18
-1.34876e-17
7.76442e-18
-1.68917e-17
1.05578e-17
-1.96969e-17
3.7076e-17
-4.25174e-17
3.8174e-17
-3.52705e-17
1.63591e-17
-2.94232e-17
1.59643e-17
-8.8566e-18
2.01101e-17
5.30109e-18
4.85709e-15
3.61718e-16
3.42078e-15
2.37903e-15
2.37878e-15
2.82985e-15
7.2622e-16
2.76752e-15
8.32194e-16
1.81989e-15
3.03447e-16
4.625e-17
1.208e-16
-1.41199e-17
7.5777e-17
-4.86938e-17
7.51695e-17
-2.99769e-17
8.1635e-17
-3.33245e-17
8.79699e-17
-3.51108e-17
9.57682e-17
-3.72004e-17
1.06533e-16
-3.83376e-17
1.20554e-16
-3.90337e-17
1.37116e-16
-3.87382e-17
1.56851e-16
-3.6961e-17