/*--------------------------------*- C++ -*----------------------------------*\
| =========                 |                                                 |
| \\      /  F ield         | OpenFOAM: The Open Source CFD Toolbox           |
|  \\    /   O peration     | Version:  2.4.0                                 |
|   \\  /    A nd           | Web:      www.OpenFOAM.org                      |
|    \\/     M anipulation  |                                                 |
\*---------------------------------------------------------------------------*/
FoamFile
{
    version     2.0;
    format      ascii;
    class       volVectorField;
    location    "0.426";
    object      U;
}
// * * * * * * * * * * * * * * * * * * * * * * * * * * * * * * * * * * * * * //

dimensions      [0 1 -1 0 0 0 0];

internalField   nonuniform List<vector> 
10000
(
(1.37521e-07 -1.37937e-07 0)
(-1.9326e-07 9.92894e-08 0)
(-1.57267e-06 3.56205e-07 0)
(-3.80563e-06 5.4262e-07 0)
(-6.65395e-06 6.60661e-07 0)
(-9.89232e-06 7.27791e-07 0)
(-1.33434e-05 7.58392e-07 0)
(-1.68731e-05 7.63306e-07 0)
(-2.03817e-05 7.50468e-07 0)
(-2.37967e-05 7.25595e-07 0)
(-2.70673e-05 6.92851e-07 0)
(-3.01597e-05 6.55397e-07 0)
(-3.30545e-05 6.15768e-07 0)
(-3.57446e-05 5.76134e-07 0)
(-3.8234e-05 5.38483e-07 0)
(-4.05372e-05 5.04757e-07 0)
(-4.26789e-05 4.76931e-07 0)
(-4.4694e-05 4.56995e-07 0)
(-4.66273e-05 4.46871e-07 0)
(-4.85321e-05 4.48284e-07 0)
(-5.04692e-05 4.62645e-07 0)
(-5.25043e-05 4.90966e-07 0)
(-5.47063e-05 5.33816e-07 0)
(-5.7145e-05 5.91323e-07 0)
(-5.98885e-05 6.63182e-07 0)
(-6.30015e-05 7.4857e-07 0)
(-6.65418e-05 8.45841e-07 0)
(-7.05554e-05 9.51983e-07 0)
(-7.50703e-05 1.06195e-06 0)
(-8.00871e-05 1.16806e-06 0)
(-8.55678e-05 1.25998e-06 0)
(-9.14278e-05 1.32589e-06 0)
(-9.75355e-05 1.35514e-06 0)
(-0.000103726 1.34208e-06 0)
(-0.000109832 1.29116e-06 0)
(-0.000115734 1.21909e-06 0)
(-0.000121394 1.15011e-06 0)
(-0.000126859 1.10087e-06 0)
(-0.000132213 1.0737e-06 0)
(-0.000137522 1.059e-06 0)
(-0.000142796 1.04272e-06 0)
(-0.000147986 1.01194e-06 0)
(-0.000152996 9.5802e-07 0)
(-0.000157703 8.7761e-07 0)
(-0.000161979 7.72019e-07 0)
(-0.000165708 6.45592e-07 0)
(-0.000168796 5.04142e-07 0)
(-0.000171182 3.54355e-07 0)
(-0.000172832 2.02929e-07 0)
(-0.000173739 5.54675e-08 0)
(-1.03513e-07 1.96264e-07 0)
(-1.89504e-06 1.88451e-06 0)
(-5.88815e-06 3.64974e-06 0)
(-1.16758e-05 5.03157e-06 0)
(-1.87782e-05 5.98162e-06 0)
(-2.67501e-05 6.56034e-06 0)
(-3.52144e-05 6.84415e-06 0)
(-4.38641e-05 6.90215e-06 0)
(-5.24578e-05 6.7917e-06 0)
(-6.08122e-05 6.55919e-06 0)
(-6.87937e-05 6.2422e-06 0)
(-7.63113e-05 5.87174e-06 0)
(-8.33112e-05 5.47425e-06 0)
(-8.97724e-05 5.07312e-06 0)
(-9.57045e-05 4.68997e-06 0)
(-0.000101145 4.34555e-06 0)
(-0.000106161 4.06013e-06 0)
(-0.000110842 3.85338e-06 0)
(-0.000115308 3.74353e-06 0)
(-0.000119696 3.7463e-06 0)
(-0.000124164 3.87384e-06 0)
(-0.00012888 4.13413e-06 0)
(-0.000134021 4.53071e-06 0)
(-0.00013976 5.06273e-06 0)
(-0.000146267 5.72473e-06 0)
(-0.000153702 6.50587e-06 0)
(-0.000162203 7.38801e-06 0)
(-0.000171882 8.34215e-06 0)
(-0.000182806 9.32394e-06 0)
(-0.00019498 1.02698e-05 0)
(-0.000208319 1.10977e-05 0)
(-0.000222631 1.17181e-05 0)
(-0.000237617 1.2054e-05 0)
(-0.000252897 1.20703e-05 0)
(-0.000268086 1.18066e-05 0)
(-0.000282895 1.13864e-05 0)
(-0.000297237 1.09776e-05 0)
(-0.000311219 1.06962e-05 0)
(-0.000325028 1.05568e-05 0)
(-0.000338798 1.04863e-05 0)
(-0.000352532 1.0374e-05 0)
(-0.000366088 1.0116e-05 0)
(-0.000379214 9.64138e-06 0)
(-0.000391594 8.92005e-06 0)
(-0.000402904 7.95887e-06 0)
(-0.000412845 6.79217e-06 0)
(-0.000421177 5.4706e-06 0)
(-0.000427727 4.05165e-06 0)
(-0.000432396 2.59203e-06 0)
(-0.000435152 1.14129e-06 0)
(-3.64968e-07 1.59109e-06 0)
(-3.66811e-06 5.88514e-06 0)
(-9.91366e-06 9.91324e-06 0)
(-1.84588e-05 1.30771e-05 0)
(-2.86557e-05 1.52984e-05 0)
(-3.99462e-05 1.66773e-05 0)
(-5.18484e-05 1.73582e-05 0)
(-6.39553e-05 1.74837e-05 0)
(-7.59366e-05 1.71812e-05 0)
(-8.75351e-05 1.65602e-05 0)
(-9.85597e-05 1.57141e-05 0)
(-0.000108879 1.47232e-05 0)
(-0.000118415 1.36579e-05 0)
(-0.000127139 1.25818e-05 0)
(-0.000135068 1.15536e-05 0)
(-0.000142259 1.06296e-05 0)
(-0.000148813 9.86447e-06 0)
(-0.00015487 9.31018e-06 0)
(-0.000160607 9.01449e-06 0)
(-0.000166232 9.01773e-06 0)
(-0.00017198 9.35008e-06 0)
(-0.000178098 1.00301e-05 0)
(-0.000184844 1.10644e-05 0)
(-0.00019247 1.24482e-05 0)
(-0.000201218 1.41647e-05 0)
(-0.000211315 1.61842e-05 0)
(-0.00022296 1.84595e-05 0)
(-0.000236317 2.09184e-05 0)
(-0.000251493 2.34528e-05 0)
(-0.000268517 2.5908e-05 0)
(-0.000287293 2.80834e-05 0)
(-0.000307572 2.97566e-05 0)
(-0.000328939 3.07334e-05 0)
(-0.000350839 3.09187e-05 0)
(-0.000372675 3.04027e-05 0)
(-0.00039399 2.94905e-05 0)
(-0.000414655 2.86078e-05 0)
(-0.000434871 2.8042e-05 0)
(-0.000454959 2.78187e-05 0)
(-0.000475131 2.77416e-05 0)
(-0.000495373 2.75261e-05 0)
(-0.000515449 2.69102e-05 0)
(-0.000534961 2.5718e-05 0)
(-0.000553427 2.38761e-05 0)
(-0.000570359 2.14032e-05 0)
(-0.000585313 1.83859e-05 0)
(-0.000597929 1.49518e-05 0)
(-0.000607947 1.12461e-05 0)
(-0.000615213 7.41266e-06 0)
(-0.000619671 3.57798e-06 0)
(-5.52809e-07 3.83948e-06 0)
(-5.01919e-06 1.16569e-05 0)
(-1.29644e-05 1.84401e-05 0)
(-2.34856e-05 2.36838e-05 0)
(-3.57772e-05 2.7361e-05 0)
(-4.92011e-05 2.96351e-05 0)
(-6.32167e-05 3.07268e-05 0)
(-7.73638e-05 3.08599e-05 0)
(-9.12636e-05 3.0241e-05 0)
(-0.000104618 2.90546e-05 0)
(-0.000117203 2.74632e-05 0)
(-0.000128868 2.56104e-05 0)
(-0.000139523 2.36245e-05 0)
(-0.000149141 2.16223e-05 0)
(-0.00015775 1.97128e-05 0)
(-0.000165428 1.80003e-05 0)
(-0.000172308 1.65854e-05 0)
(-0.000178571 1.55641e-05 0)
(-0.000184443 1.50234e-05 0)
(-0.000190192 1.50357e-05 0)
(-0.000196113 1.56534e-05 0)
(-0.000202518 1.69064e-05 0)
(-0.000209723 1.88019e-05 0)
(-0.000218035 2.13265e-05 0)
(-0.000227746 2.44473e-05 0)
(-0.000239124 2.81107e-05 0)
(-0.000252412 3.22368e-05 0)
(-0.000267818 3.67064e-05 0)
(-0.000285503 4.13401e-05 0)
(-0.000305548 4.58739e-05 0)
(-0.000327895 4.9951e-05 0)
(-0.000352284 5.31597e-05 0)
(-0.000378213 5.51187e-05 0)
(-0.000404936 5.56081e-05 0)
(-0.000431578 5.47586e-05 0)
(-0.000457424 5.31465e-05 0)
(-0.000482302 5.16335e-05 0)
(-0.000506617 5.07818e-05 0)
(-0.000530936 5.06101e-05 0)
(-0.000555608 5.07034e-05 0)
(-0.000580606 5.05041e-05 0)
(-0.000605578 4.95239e-05 0)
(-0.000629966 4.74498e-05 0)
(-0.000653127 4.4162e-05 0)
(-0.000674425 3.97051e-05 0)
(-0.000693297 3.42423e-05 0)
(-0.00070929 2.80071e-05 0)
(-0.000722082 2.12624e-05 0)
(-0.00073148 1.42674e-05 0)
(-0.000737413 7.25045e-06 0)
(-6.65001e-07 6.67603e-06 0)
(-5.86923e-06 1.86455e-05 0)
(-1.48875e-05 2.84658e-05 0)
(-2.65975e-05 3.58872e-05 0)
(-4.00553e-05 4.10221e-05 0)
(-5.45577e-05 4.41362e-05 0)
(-6.95269e-05 4.55418e-05 0)
(-8.44758e-05 4.55502e-05 0)
(-9.90045e-05 4.44532e-05 0)
(-0.000112799 4.25164e-05 0)
(-0.000125627 3.99792e-05 0)
(-0.000137334 3.70568e-05 0)
(-0.000147837 3.39439e-05 0)
(-0.000157118 3.08192e-05 0)
(-0.000165224 2.785e-05 0)
(-0.000172257 2.51966e-05 0)
(-0.00017838 2.30141e-05 0)
(-0.00018381 2.14504e-05 0)
(-0.00018882 2.06393e-05 0)
(-0.000193727 2.06902e-05 0)
(-0.000198879 2.16787e-05 0)
(-0.000204638 2.36428e-05 0)
(-0.000211361 2.65846e-05 0)
(-0.000219389 3.04751e-05 0)
(-0.000229035 3.52591e-05 0)
(-0.000240585 4.08579e-05 0)
(-0.0002543 4.7164e-05 0)
(-0.000270424 5.40239e-05 0)
(-0.000289181 6.12021e-05 0)
(-0.000310747 6.83273e-05 0)
(-0.000335165 7.48574e-05 0)
(-0.000362228 8.01242e-05 0)
(-0.000391389 8.34517e-05 0)
(-0.000421672 8.43612e-05 0)
(-0.000451768 8.29628e-05 0)
(-0.000480495 8.02285e-05 0)
(-0.000507624 7.77949e-05 0)
(-0.000533974 7.66748e-05 0)
(-0.000560581 7.68258e-05 0)
(-0.000588019 7.74356e-05 0)
(-0.000616226 7.75249e-05 0)
(-0.000644682 7.63011e-05 0)
(-0.00067263 7.32969e-05 0)
(-0.000699251 6.83617e-05 0)
(-0.000723777 6.15956e-05 0)
(-0.00074555 5.32687e-05 0)
(-0.000764056 4.37489e-05 0)
(-0.000778932 3.34421e-05 0)
(-0.000789973 2.27453e-05 0)
(-0.00079711 1.20084e-05 0)
(-7.16178e-07 9.83354e-06 0)
(-6.25617e-06 2.62989e-05 0)
(-1.57289e-05 3.92703e-05 0)
(-2.78636e-05 4.88378e-05 0)
(-4.1616e-05 5.53185e-05 0)
(-5.62328e-05 5.9118e-05 0)
(-7.11124e-05 6.06593e-05 0)
(-8.57568e-05 6.03517e-05 0)
(-9.97634e-05 5.85778e-05 0)
(-0.000112821 5.56901e-05 0)
(-0.000124708 5.20102e-05 0)
(-0.000135282 4.78309e-05 0)
(-0.000144482 4.34185e-05 0)
(-0.000152313 3.90183e-05 0)
(-0.000158848 3.48598e-05 0)
(-0.000164218 3.11638e-05 0)
(-0.000168617 2.81448e-05 0)
(-0.000172298 2.6009e-05 0)
(-0.000175574 2.49429e-05 0)
(-0.000178811 2.50963e-05 0)
(-0.000182407 2.65661e-05 0)
(-0.000186764 2.93905e-05 0)
(-0.000192266 3.3555e-05 0)
(-0.000199265 3.90028e-05 0)
(-0.000208065 4.56463e-05 0)
(-0.000218932 5.33799e-05 0)
(-0.000232108 6.20811e-05 0)
(-0.000247842 7.15935e-05 0)
(-0.000266428 8.16732e-05 0)
(-0.000288191 9.18764e-05 0)
(-0.00031336 0.000101461 0)
(-0.000341893 0.000109423 0)
(-0.000373293 0.000114633 0)
(-0.000406332 0.000116087 0)
(-0.000439002 0.000113692 0)
(-0.000469218 0.000108985 0)
(-0.00049663 0.000105068 0)
(-0.0005229 0.000103713 0)
(-0.000549915 0.000104669 0)
(-0.000578577 0.000106373 0)
(-0.000608689 0.000107194 0)
(-0.000639441 0.000105954 0)
(-0.000669808 0.000102043 0)
(-0.000698784 9.53305e-05 0)
(-0.000725486 8.60213e-05 0)
(-0.000749195 7.45332e-05 0)
(-0.000769369 6.13968e-05 0)
(-0.000785641 4.71826e-05 0)
(-0.000797812 3.24439e-05 0)
(-0.000805841 1.76674e-05 0)
(-7.19083e-07 1.30834e-05 0)
(-6.24297e-06 3.41115e-05 0)
(-1.56004e-05 5.01812e-05 0)
(-2.74485e-05 6.17499e-05 0)
(-4.06879e-05 6.93751e-05 0)
(-5.45355e-05 7.363e-05 0)
(-6.83775e-05 7.50664e-05 0)
(-8.17162e-05 7.42021e-05 0)
(-9.41585e-05 7.15186e-05 0)
(-0.000105411 6.74616e-05 0)
(-0.000115275 6.24411e-05 0)
(-0.000123642 5.6832e-05 0)
(-0.000130482 5.0976e-05 0)
(-0.000135841 4.51867e-05 0)
(-0.000139827 3.97566e-05 0)
(-0.000142607 3.49668e-05 0)
(-0.000144407 3.10935e-05 0)
(-0.000145515 2.84058e-05 0)
(-0.000146289 2.715e-05 0)
(-0.000147146 2.75197e-05 0)
(-0.000148533 2.96274e-05 0)
(-0.000150893 3.34978e-05 0)
(-0.000154627 3.90803e-05 0)
(-0.000160074 4.62677e-05 0)
(-0.000167494 5.49195e-05 0)
(-0.000177079 6.48934e-05 0)
(-0.000188984 7.60664e-05 0)
(-0.000203399 8.83315e-05 0)
(-0.000220662 0.000101534 0)
(-0.00024131 0.000115253 0)
(-0.000265891 0.000128564 0)
(-0.000294694 0.000140063 0)
(-0.000327515 0.000147958 0)
(-0.000362952 0.000150207 0)
(-0.000397888 0.000146049 0)
(-0.000428425 0.000137751 0)
(-0.000453933 0.000131345 0)
(-0.000477788 0.000129882 0)
(-0.000503391 0.000132515 0)
(-0.00053203 0.000136231 0)
(-0.00056308 0.000138408 0)
(-0.000595215 0.000137435 0)
(-0.000627043 0.000132651 0)
(-0.000657374 0.000124045 0)
(-0.000685256 0.000112009 0)
(-0.000709965 9.71518e-05 0)
(-0.000730977 8.01926e-05 0)
(-0.000747952 6.18806e-05 0)
(-0.000760725 4.29385e-05 0)
(-0.0007693 2.40037e-05 0)
(-6.83934e-07 1.62353e-05 0)
(-5.89377e-06 4.16372e-05 0)
(-1.46331e-05 6.05867e-05 0)
(-2.55553e-05 7.39003e-05 0)
(-3.75515e-05 8.23869e-05 0)
(-4.98294e-05 8.68017e-05 0)
(-6.17745e-05 8.78373e-05 0)
(-7.2898e-05 8.61305e-05 0)
(-8.2825e-05 8.22708e-05 0)
(-9.12898e-05 7.68053e-05 0)
(-9.8131e-05 7.02397e-05 0)
(-0.000103285 6.30372e-05 0)
(-0.000106775 5.5618e-05 0)
(-0.0001087 4.83638e-05 0)
(-0.000109218 4.16268e-05 0)
(-0.000108539 3.57449e-05 0)
(-0.000106928 3.10537e-05 0)
(-0.000104709 2.789e-05 0)
(-0.000102284 2.65693e-05 0)
(-0.000100131 2.73355e-05 0)
(-9.87649e-05 3.03096e-05 0)
(-9.86732e-05 3.54801e-05 0)
(-0.000100271 4.27295e-05 0)
(-0.000103869 5.18625e-05 0)
(-0.000109645 6.26428e-05 0)
(-0.000117639 7.48601e-05 0)
(-0.000127807 8.83917e-05 0)
(-0.00014014 0.00010325 0)
(-0.000154939 0.000119548 0)
(-0.000173017 0.000137083 0)
(-0.000195404 0.000154833 0)
(-0.000222963 0.000171004 0)
(-0.000256293 0.000182966 0)
(-0.00029421 0.000186704 0)
(-0.000331962 0.000179649 0)
(-0.000361899 0.00016473 0)
(-0.000382728 0.000154145 0)
(-0.000401389 0.000153031 0)
(-0.00042392 0.000158976 0)
(-0.000451838 0.000166113 0)
(-0.000483389 0.000170412 0)
(-0.000516337 0.000169933 0)
(-0.000548843 0.000164212 0)
(-0.000579601 0.000153546 0)
(-0.000607697 0.000138611 0)
(-0.000632487 0.000120251 0)
(-0.000653522 9.93788e-05 0)
(-0.000670516 7.69227e-05 0)
(-0.000683357 5.3782e-05 0)
(-0.000692113 3.0759e-05 0)
(-6.18882e-07 1.91329e-05 0)
(-5.26888e-06 4.84947e-05 0)
(-1.29624e-05 6.99506e-05 0)
(-2.24054e-05 8.46456e-05 0)
(-3.25179e-05 9.36316e-05 0)
(-4.25177e-05 9.78472e-05 0)
(-5.17986e-05 9.81319e-05 0)
(-5.98862e-05 9.52498e-05 0)
(-6.64286e-05 8.9908e-05 0)
(-7.1195e-05 8.27657e-05 0)
(-7.40717e-05 7.44351e-05 0)
(-7.50553e-05 6.54759e-05 0)
(-7.42393e-05 5.63916e-05 0)
(-7.17951e-05 4.7631e-05 0)
(-6.79506e-05 3.95995e-05 0)
(-6.29738e-05 3.26816e-05 0)
(-5.71694e-05 2.72661e-05 0)
(-5.08971e-05 2.37607e-05 0)
(-4.4609e-05 2.25676e-05 0)
(-3.8863e-05 2.39957e-05 0)
(-3.42652e-05 2.81665e-05 0)
(-3.13723e-05 3.50011e-05 0)
(-3.06263e-05 4.42713e-05 0)
(-3.23125e-05 5.56353e-05 0)
(-3.64911e-05 6.86794e-05 0)
(-4.29606e-05 8.30453e-05 0)
(-5.13005e-05 9.85645e-05 0)
(-6.10288e-05 0.000115434 0)
(-7.21966e-05 0.000134344 0)
(-8.59571e-05 0.000155682 0)
(-0.000104003 0.000178482 0)
(-0.000127993 0.000200778 0)
(-0.000160283 0.000219249 0)
(-0.000201107 0.000226296 0)
(-0.00024367 0.000214961 0)
(-0.000272431 0.000187687 0)
(-0.000284542 0.000170255 0)
(-0.000294505 0.000170845 0)
(-0.000312807 0.000183189 0)
(-0.000340385 0.0001958 0)
(-0.000372805 0.000202953 0)
(-0.000406387 0.000202903 0)
(-0.0004389 0.000195923 0)
(-0.000469167 0.000182902 0)
(-0.000496504 0.000164892 0)
(-0.000520469 0.000142971 0)
(-0.000540744 0.000118215 0)
(-0.000557114 9.1707e-05 0)
(-0.000569513 6.4524e-05 0)
(-0.000578086 3.76566e-05 0)
(-5.30661e-07 2.16504e-05 0)
(-4.42527e-06 5.43697e-05 0)
(-1.07257e-05 7.78222e-05 0)
(-1.82328e-05 9.34362e-05 0)
(-2.59244e-05 0.000102484 0)
(-3.30423e-05 0.000106077 0)
(-3.89933e-05 0.000105203 0)
(-4.33179e-05 0.000100757 0)
(-4.56879e-05 9.35766e-05 0)
(-4.59096e-05 8.44458e-05 0)
(-4.39245e-05 7.40982e-05 0)
(-3.98032e-05 6.32041e-05 0)
(-3.37293e-05 5.23588e-05 0)
(-2.59731e-05 4.20784e-05 0)
(-1.6858e-05 3.28116e-05 0)
(-6.72959e-06 2.49719e-05 0)
(4.0573e-06 1.89845e-05 0)
(1.51132e-05 1.53299e-05 0)
(2.59372e-05 1.45273e-05 0)
(3.58665e-05 1.69846e-05 0)
(4.41594e-05 2.28184e-05 0)
(5.01508e-05 3.18413e-05 0)
(5.3331e-05 4.36649e-05 0)
(5.33941e-05 5.77219e-05 0)
(5.03919e-05 7.32772e-05 0)
(4.48551e-05 8.96544e-05 0)
(3.78246e-05 0.00010647 0)
(3.07678e-05 0.000124093 0)
(2.4362e-05 0.000144343 0)
(1.70461e-05 0.000168869 0)
(6.27312e-06 0.00019686 0)
(-1.03006e-05 0.000226806 0)
(-3.82901e-05 0.000255968 0)
(-8.22354e-05 0.000270621 0)
(-0.00013409 0.000253987 0)
(-0.000161637 0.000203388 0)
(-0.000158532 0.000175162 0)
(-0.000155441 0.000180963 0)
(-0.000169743 0.000205448 0)
(-0.00019939 0.000226232 0)
(-0.000234136 0.000236448 0)
(-0.000268448 0.000236028 0)
(-0.000300216 0.000226999 0)
(-0.000328947 0.000211152 0)
(-0.000354504 0.00018991 0)
(-0.000376773 0.000164485 0)
(-0.000395595 0.000136017 0)
(-0.000410793 0.000105683 0)
(-0.00042231 7.47403e-05 0)
(-0.000430358 4.44183e-05 0)
(-4.25308e-07 2.36906e-05 0)
(-3.41906e-06 5.90161e-05 0)
(-8.06498e-06 8.38436e-05 0)
(-1.32866e-05 9.98284e-05 0)
(-1.81382e-05 0.000108428 0)
(-2.18907e-05 0.000110911 0)
(-2.39625e-05 0.000108404 0)
(-2.39035e-05 0.000101941 0)
(-2.14025e-05 9.2496e-05 0)
(-1.6299e-05 8.09987e-05 0)
(-8.59142e-06 6.83254e-05 0)
(1.56494e-06 5.52787e-05 0)
(1.38744e-05 4.25622e-05 0)
(2.79357e-05 3.07644e-05 0)
(4.32921e-05 2.03657e-05 0)
(5.94851e-05 1.17815e-05 0)
(7.60924e-05 5.43935e-06 0)
(9.2705e-05 1.88193e-06 0)
(0.000108787 1.79644e-06 0)
(0.000123547 5.75906e-06 0)
(0.000136055 1.38847e-05 0)
(0.000145482 2.58321e-05 0)
(0.000151166 4.10207e-05 0)
(0.000152639 5.85772e-05 0)
(0.000149961 7.72106e-05 0)
(0.000144001 9.56088e-05 0)
(0.000136678 0.000112729 0)
(0.000131368 0.000128779 0)
(0.000130524 0.000147724 0)
(0.000132119 0.000173906 0)
(0.000132464 0.000206043 0)
(0.000129514 0.000244151 0)
(0.000112707 0.000290747 0)
(6.75512e-05 0.000322333 0)
(-1.73774e-06 0.000301542 0)
(-2.89084e-05 0.000206876 0)
(6.30423e-08 0.000162069 0)
(2.08197e-05 0.000181522 0)
(6.93263e-06 0.000228658 0)
(-3.07621e-05 0.000260443 0)
(-7.04497e-05 0.000272125 0)
(-0.000105364 0.000268991 0)
(-0.000135096 0.000256435 0)
(-0.000160918 0.000237185 0)
(-0.000183601 0.000212705 0)
(-0.000203413 0.000184053 0)
(-0.000220287 0.000152232 0)
(-0.000233969 0.000118418 0)
(-0.000244294 8.40715e-05 0)
(-0.000251516 5.07806e-05 0)
(-3.08784e-07 2.51851e-05 0)
(-2.30824e-06 6.22601e-05 0)
(-5.13081e-06 8.77587e-05 0)
(-7.83696e-06 0.000103498 0)
(-9.56353e-06 0.000111078 0)
(-9.60751e-06 0.000111897 0)
(-7.389e-06 0.000107212 0)
(-2.45311e-06 9.81933e-05 0)
(5.50989e-06 8.59674e-05 0)
(1.66407e-05 7.16295e-05 0)
(3.08918e-05 5.6229e-05 0)
(4.80193e-05 4.07342e-05 0)
(6.75964e-05 2.59874e-05 0)
(8.90533e-05 1.26663e-05 0)
(0.000111746 1.27672e-06 0)
(0.000135044 -7.80071e-06 0)
(0.000158413 -1.42004e-05 0)
(0.000181433 -1.73605e-05 0)
(0.000203566 -1.63561e-05 0)
(0.000223894 -1.03182e-05 0)
(0.000241263 8.88847e-07 0)
(0.000254629 1.67389e-05 0)
(0.000263034 3.65008e-05 0)
(0.000265556 5.89629e-05 0)
(0.000261989 8.1928e-05 0)
(0.000253304 0.000102973 0)
(0.000242309 0.000119432 0)
(0.000235768 0.000130032 0)
(0.000240109 0.000142537 0)
(0.00025303 0.000167571 0)
(0.000269022 0.000200853 0)
(0.000289045 0.000243467 0)
(0.000296712 0.000317298 0)
(0.000258281 0.000385383 0)
(0.000160461 0.000370995 0)
(0.000131791 0.000186845 0)
(0.000201626 0.000119602 0)
(0.00024245 0.000172221 0)
(0.0002186 0.000261842 0)
(0.000161578 0.000304814 0)
(0.000114191 0.000311545 0)
(8.04195e-05 0.000300689 0)
(5.52669e-05 0.00028255 0)
(3.4162e-05 0.000259604 0)
(1.53752e-05 0.000232333 0)
(-1.5249e-06 0.000201126 0)
(-1.63502e-05 0.00016656 0)
(-2.85294e-05 0.000129689 0)
(-3.75687e-05 9.22673e-05 0)
(-4.37078e-05 5.64982e-05 0)
(-1.87407e-07 2.6096e-05 0)
(-1.1549e-06 6.40052e-05 0)
(-2.08635e-06 8.94228e-05 0)
(-2.17989e-06 0.000104254 0)
(-6.4951e-07 0.000110192 0)
(3.19416e-06 0.000108734 0)
(9.94794e-06 0.000101247 0)
(2.0095e-05 8.90378e-05 0)
(3.39703e-05 7.33964e-05 0)
(5.17222e-05 5.56095e-05 0)
(7.32762e-05 3.69385e-05 0)
(9.83113e-05 1.85662e-05 0)
(0.000126261 1.52376e-06 0)
(0.000156353 -1.33819e-05 0)
(0.000187688 -2.56087e-05 0)
(0.000219365 -3.48421e-05 0)
(0.000250639 -4.08785e-05 0)
(0.000281037 -4.32496e-05 0)
(0.00031006 -4.07313e-05 0)
(0.000336721 -3.19953e-05 0)
(0.000359718 -1.68403e-05 0)
(0.000377829 4.05924e-06 0)
(0.000389634 3.00506e-05 0)
(0.000393253 5.97021e-05 0)
(0.000387721 8.94465e-05 0)
(0.000373339 0.000115328 0)
(0.000352826 0.000131331 0)
(0.000338251 0.000131025 0)
(0.000344183 0.000127568 0)
(0.000370066 0.000145595 0)
(0.000405418 0.000176102 0)
(0.000459307 0.000206926 0)
(0.00051733 0.000314384 0)
(0.000508317 0.000461485 0)
(0.000368452 0.000492683 0)
(0.000341131 0.000118735 0)
(0.000470453 4.01857e-05 0)
(0.000519947 0.000160527 0)
(0.000461945 0.000328325 0)
(0.000367303 0.000367436 0)
(0.000314089 0.000352766 0)
(0.000288313 0.000326824 0)
(0.000272491 0.000302231 0)
(0.000257924 0.000276829 0)
(0.000243256 0.000248228 0)
(0.000228798 0.000215695 0)
(0.000215288 0.000179213 0)
(0.000203971 0.000139638 0)
(0.00019601 9.92174e-05 0)
(0.000191241 6.13079e-05 0)
(-6.80909e-08 2.64177e-05 0)
(-2.65048e-08 6.42396e-05 0)
(8.90792e-07 8.88151e-05 0)
(3.3599e-06 0.000102059 0)
(8.10587e-06 0.000105701 0)
(1.5825e-05 0.000101299 0)
(2.71575e-05 9.03093e-05 0)
(4.26473e-05 7.41668e-05 0)
(6.26943e-05 5.43333e-05 0)
(8.74979e-05 3.23136e-05 0)
(0.000117001 9.62666e-06 0)
(0.000150842 -1.22661e-05 0)
(0.000188335 -3.20683e-05 0)
(0.000228489 -4.87682e-05 0)
(0.000270085 -6.17321e-05 0)
(0.000311807 -7.07007e-05 0)
(0.000352503 -7.5745e-05 0)
(0.000391475 -7.67043e-05 0)
(0.000428222 -7.20929e-05 0)
(0.000461854 -6.00337e-05 0)
(0.000491237 -4.02221e-05 0)
(0.000515266 -1.32646e-05 0)
(0.000531959 2.08889e-05 0)
(0.000537756 6.10393e-05 0)
(0.000530369 0.000101645 0)
(0.000507889 0.000137582 0)
(0.000469672 0.000156984 0)
(0.00043468 0.000140465 0)
(0.000430692 0.00010642 0)
(0.000469108 9.9031e-05 0)
(0.000533247 0.00012507 0)
(0.000618007 0.000126015 0)
(0.000742261 0.000234578 0)
(0.000847492 0.00049107 0)
(0.00071292 0.000717215 0)
(0.000677505 -4.83724e-05 0)
(0.000821089 -6.23746e-05 0)
(0.000807775 0.000171686 0)
(0.000681449 0.000465097 0)
(0.000554367 0.000439756 0)
(0.000525669 0.00037974 0)
(0.000525996 0.00033685 0)
(0.000524814 0.000311494 0)
(0.000515954 0.000288456 0)
(0.000503142 0.000261329 0)
(0.000488787 0.000229125 0)
(0.000474344 0.000191508 0)
(0.000462101 0.000149086 0)
(0.000454529 0.000104972 0)
(0.00045166 6.47735e-05 0)
(4.15769e-08 2.61805e-05 0)
(1.00437e-06 6.30428e-05 0)
(3.60986e-06 8.60495e-05 0)
(8.43198e-06 9.7043e-05 0)
(1.61596e-05 9.77292e-05 0)
(2.75224e-05 8.96832e-05 0)
(4.32349e-05 7.44239e-05 0)
(6.39418e-05 5.34975e-05 0)
(9.01571e-05 2.85383e-05 0)
(0.000122193 1.2897e-06 0)
(0.00016008 -2.6426e-05 0)
(0.000203493 -5.27955e-05 0)
(0.00025169 -7.61553e-05 0)
(0.000303495 -9.51615e-05 0)
(0.000357327 -0.000108955 0)
(0.000411312 -0.000117226 0)
(0.000463592 -0.00012037 0)
(0.000512862 -0.000118819 0)
(0.000558355 -0.000111093 0)
(0.000599398 -9.49968e-05 0)
(0.000635567 -7.02398e-05 0)
(0.000666652 -3.6942e-05 0)
(0.000690431 6.97219e-06 0)
(0.000700876 6.17043e-05 0)
(0.000694301 0.000118714 0)
(0.000664353 0.000174593 0)
(0.000599957 0.000208481 0)
(0.000529384 0.000174169 0)
(0.000492894 9.85961e-05 0)
(0.000514911 2.99687e-05 0)
(0.000609736 1.36271e-05 0)
(0.00072454 8.40612e-07 0)
(0.000876297 1.90932e-05 0)
(0.001153 0.000240054 0)
(0.00130715 0.000923708 0)
(0.00132483 -0.000181214 0)
(0.00120188 0.000150144 0)
(0.00092464 0.00035552 0)
(0.000767538 0.00060048 0)
(0.000756666 0.000437131 0)
(0.000808475 0.000354115 0)
(0.000834837 0.00032364 0)
(0.00083246 0.000315023 0)
(0.000816168 0.000300578 0)
(0.000797654 0.000276333 0)
(0.000778892 0.000245041 0)
(0.000759878 0.000206343 0)
(0.000743745 0.000159823 0)
(0.000735423 0.000109668 0)
(0.000735715 6.58802e-05 0)
(1.33485e-07 2.54526e-05 0)
(1.86212e-06 6.05916e-05 0)
(5.87285e-06 8.13844e-05 0)
(1.26709e-05 8.95189e-05 0)
(2.29396e-05 8.66176e-05 0)
(3.74697e-05 7.42271e-05 0)
(5.70812e-05 5.38914e-05 0)
(8.25594e-05 2.72431e-05 0)
(0.000114587 -3.92477e-06 0)
(0.000153662 -3.76256e-05 0)
(0.000200001 -7.17014e-05 0)
(0.000253429 -0.000103917 0)
(0.000313278 -0.000132125 0)
(0.000378293 -0.000154466 0)
(0.000446591 -0.000169631 0)
(0.000515672 -0.000177 0)
(0.000582663 -0.000177136 0)
(0.000645026 -0.000171269 0)
(0.000701078 -0.00015849 0)
(0.000750065 -0.000137033 0)
(0.000792606 -0.000107233 0)
(0.000830725 -6.86125e-05 0)
(0.000863253 -1.48309e-05 0)
(0.000881329 5.83142e-05 0)
(0.000881765 0.000136544 0)
(0.000851117 0.000228084 0)
(0.000754011 0.000299271 0)
(0.00063997 0.000245436 0)
(0.000569101 0.000132077 0)
(0.000538422 2.6e-06 0)
(0.000551947 -6.75448e-05 0)
(0.000565665 -5.13744e-05 0)
(0.000487937 -2.40839e-05 0)
(0.000295665 9.74411e-05 0)
(0.000745131 0.00048652 0)
(0.00117582 -0.000185795 0)
(0.00125767 0.000106223 0)
(0.0015516 0.000431751 0)
(0.00157175 0.000710595 0)
(0.00143905 0.000498021 0)
(0.00131823 0.000389758 0)
(0.00124169 0.000358266 0)
(0.00118505 0.000350621 0)
(0.00114386 0.000329751 0)
(0.00111659 0.000299898 0)
(0.00109305 0.000267237 0)
(0.00106739 0.000227047 0)
(0.00104418 0.000174101 0)
(0.00103403 0.000112922 0)
(0.00104062 6.20815e-05 0)
(1.99468e-07 2.43412e-05 0)
(2.47226e-06 5.71614e-05 0)
(7.48555e-06 7.5225e-05 0)
(1.57165e-05 7.99909e-05 0)
(2.78758e-05 7.29418e-05 0)
(4.48386e-05 5.55487e-05 0)
(6.75548e-05 2.93392e-05 0)
(9.69809e-05 -4.00585e-06 0)
(0.000134015 -4.25678e-05 0)
(0.000179412 -8.41384e-05 0)
(0.000233677 -0.000126222 0)
(0.000296937 -0.000166122 0)
(0.000368789 -0.000201099 0)
(0.000448126 -0.000228579 0)
(0.000532984 -0.000246495 0)
(0.000620369 -0.000253465 0)
(0.000706235 -0.000249688 0)
(0.000786129 -0.000237029 0)
(0.000856377 -0.000215873 0)
(0.000914952 -0.000186024 0)
(0.000962807 -0.000149864 0)
(0.00100547 -0.000107983 0)
(0.00104487 -4.65485e-05 0)
(0.0010698 4.65318e-05 0)
(0.00108545 0.00014266 0)
(0.00107247 0.00029001 0)
(0.000937181 0.000451013 0)
(0.00077606 0.000344911 0)
(0.000702426 0.000192043 0)
(0.000650396 4.43666e-05 0)
(0.000609084 -4.76506e-05 0)
(0.000580282 -7.87563e-06 0)
(0.000552661 0.000101333 0)
(0.000560549 0.000169735 0)
(0.000963543 -0.000282449 0)
(0.00106724 5.34594e-05 0)
(0.000768529 -0.000208014 0)
(0.000982948 4.67259e-05 0)
(0.00132337 0.00066187 0)
(0.00145008 0.000565152 0)
(0.00147528 0.000458116 0)
(0.0014723 0.000414946 0)
(0.00145861 0.000395093 0)
(0.00144652 0.000357339 0)
(0.00143964 0.000320559 0)
(0.00142354 0.00029198 0)
(0.00139209 0.000255185 0)
(0.00135729 0.000194393 0)
(0.00134332 0.000113289 0)
(0.0013622 4.79127e-05 0)
(2.31997e-07 2.29906e-05 0)
(2.76781e-06 5.31202e-05 0)
(8.27396e-06 6.81161e-05 0)
(1.72446e-05 6.91479e-05 0)
(3.04478e-05 5.75113e-05 0)
(4.88584e-05 3.45592e-05 0)
(7.35644e-05 1.75917e-06 0)
(0.000105704 -3.92074e-05 0)
(0.000146412 -8.63491e-05 0)
(0.00019674 -0.00013729 0)
(0.000257567 -0.000189243 0)
(0.000329462 -0.000239072 0)
(0.000412516 -0.000283404 0)
(0.000506099 -0.0003188 0)
(0.000608591 -0.000342123 0)
(0.000716974 -0.000350624 0)
(0.000826393 -0.000343198 0)
(0.000930215 -0.000321376 0)
(0.0010214 -0.000287062 0)
(0.00109429 -0.000242699 0)
(0.00114798 -0.000194833 0)
(0.00119128 -0.000150457 0)
(0.0012285 -8.19588e-05 0)
(0.0012455 2.98348e-05 0)
(0.0012773 0.000113563 0)
(0.00131332 0.000329335 0)
(0.00114829 0.000703331 0)
(0.000947026 0.000435777 0)
(0.000895824 0.000239551 0)
(0.000851898 9.57655e-05 0)
(0.000809089 -1.40286e-05 0)
(0.000816743 -2.90403e-05 0)
(0.000950091 -1.41895e-05 0)
(0.00125834 -8.43047e-05 0)
(0.00149189 -0.000545595 0)
(0.00145564 0.000357194 0)
(0.00109466 0.000149583 0)
(0.000691545 -6.33444e-05 0)
(0.00084818 0.000286369 0)
(0.00125623 0.000365018 0)
(0.00149115 0.000344596 0)
(0.00164159 0.00035413 0)
(0.00172112 0.00037273 0)
(0.00176069 0.000343456 0)
(0.00178461 0.000320399 0)
(0.00177716 0.000316122 0)
(0.00173354 0.000295784 0)
(0.0016764 0.000226718 0)
(0.00165326 0.000108811 0)
(0.00169461 1.30552e-05 0)
(2.25095e-07 2.15767e-05 0)
(2.69705e-06 4.89145e-05 0)
(8.10428e-06 6.07213e-05 0)
(1.70037e-05 5.78396e-05 0)
(3.02461e-05 4.13472e-05 0)
(4.89073e-05 1.24472e-05 0)
(7.42017e-05 -2.74909e-05 0)
(0.00010743 -7.68341e-05 0)
(0.000149939 -0.000133583 0)
(0.000203067 -0.000195273 0)
(0.000268077 -0.000258929 0)
(0.000346051 -0.000321077 0)
(0.000437733 -0.000377785 0)
(0.000543288 -0.000424761 0)
(0.000661989 -0.000457637 0)
(0.000791672 -0.00047182 0)
(0.000927911 -0.000463808 0)
(0.00106284 -0.000432733 0)
(0.00118538 -0.000380418 0)
(0.00128314 -0.000311653 0)
(0.00135103 -0.000240913 0)
(0.00139781 -0.000190921 0)
(0.00142163 -0.000104886 0)
(0.00140658 1.76229e-05 0)
(0.00141918 3.51081e-05 0)
(0.00146797 0.000326257 0)
(0.00136615 0.00100708 0)
(0.0012289 0.000480239 0)
(0.0011614 0.000298786 0)
(0.00107552 0.000150871 0)
(0.00102694 5.65316e-06 0)
(0.00104926 -0.000104755 0)
(0.00115364 -0.000210316 0)
(0.00127744 -0.000339126 0)
(0.0012231 -0.000438432 0)
(0.00123325 0.000313832 0)
(0.00140875 0.000412975 0)
(0.00144306 0.000122048 0)
(0.00147438 2.83203e-05 0)
(0.00161723 0.000123119 0)
(0.00179259 0.000147649 0)
(0.00195143 0.000210681 0)
(0.00205511 0.000298564 0)
(0.0021108 0.000300234 0)
(0.0021477 0.000304906 0)
(0.00214368 0.000346501 0)
(0.00208349 0.000359266 0)
(0.00199284 0.000282338 0)
(0.00195246 9.57469e-05 0)
(0.00203247 -6.28098e-05 0)
(1.75302e-07 2.02967e-05 0)
(2.23157e-06 4.50436e-05 0)
(6.90341e-06 5.37855e-05 0)
(1.48547e-05 4.70302e-05 0)
(2.70363e-05 2.5629e-05 0)
(4.46139e-05 -9.37824e-06 0)
(6.88946e-05 -5.67424e-05 0)
(0.000101289 -0.000114917 0)
(0.000143286 -0.000181951 0)
(0.000196425 -0.000255382 0)
(0.00026226 -0.00033217 0)
(0.0003423 -0.000408664 0)
(0.0004379 -0.000480579 0)
(0.000550114 -0.000543004 0)
(0.00067945 -0.000590535 0)
(0.000825467 -0.000616824 0)
(0.000985942 -0.000615455 0)
(0.00115488 -0.000581163 0)
(0.00131994 -0.00051124 0)
(0.00145995 -0.000406894 0)
(0.00156584 -0.000300284 0)
(0.0016248 -0.000216731 0)
(0.0016332 -9.319e-05 0)
(0.00152336 0.000109362 0)
(0.00131587 8.25544e-05 0)
(0.0012004 0.00029841 0)
(0.00152454 0.000825696 0)
(0.00168866 0.000618764 0)
(0.0013857 0.000482723 0)
(0.00121085 0.000248385 0)
(0.00116055 3.15701e-05 0)
(0.00117112 -0.000143563 0)
(0.00121446 -0.000286919 0)
(0.00126503 -0.000376843 0)
(0.00126089 -0.000335148 0)
(0.00136208 7.91934e-05 0)
(0.00161341 0.000186517 0)
(0.00179258 5.11089e-05 0)
(0.00190214 -2.33974e-05 0)
(0.00202635 -1.93775e-05 0)
(0.00218199 -1.78492e-05 0)
(0.00232969 7.76927e-05 0)
(0.00239498 0.000254498 0)
(0.00243534 0.000244058 0)
(0.00250363 0.000270704 0)
(0.00252413 0.00037797 0)
(0.00246253 0.000449893 0)
(0.00233044 0.000381548 0)
(0.0022523 7.44893e-05 0)
(0.00238398 -0.000214728 0)
(8.24787e-08 1.93558e-05 0)
(1.37267e-06 4.20252e-05 0)
(4.67556e-06 4.80834e-05 0)
(1.08017e-05 3.773e-05 0)
(2.08139e-05 1.1609e-05 0)
(3.59453e-05 -2.93915e-05 0)
(5.75473e-05 -8.41418e-05 0)
(8.70632e-05 -0.000151193 0)
(0.000126015 -0.000228674 0)
(0.000175993 -0.000314182 0)
(0.000238643 -0.000404708 0)
(0.000315638 -0.000496578 0)
(0.00040864 -0.000585399 0)
(0.000519272 -0.000666036 0)
(0.000649052 -0.000732611 0)
(0.000799334 -0.000777925 0)
(0.000971177 -0.000793784 0)
(0.00116405 -0.000770866 0)
(0.00137178 -0.000696979 0)
(0.00157025 -0.000551568 0)
(0.00174788 -0.000404505 0)
(0.00186637 -0.00025438 0)
(0.00190679 -0.000113114 0)
(0.00176366 0.000337626 0)
(0.00143333 0.000353528 0)
(0.00122785 0.000268257 0)
(0.00133467 0.000423085 0)
(0.00129447 0.00089664 0)