/*--------------------------------*- C++ -*----------------------------------*\
| =========                 |                                                 |
| \\      /  F ield         | OpenFOAM: The Open Source CFD Toolbox           |
|  \\    /   O peration     | Version:  2.4.0                                 |
|   \\  /    A nd           | Web:      www.OpenFOAM.org                      |
|    \\/     M anipulation  |                                                 |
\*---------------------------------------------------------------------------*/
FoamFile
{
    version     2.0;
    format      ascii;
    class       volScalarField;
    location    "0.306";
    object      p_rgh;
}
// * * * * * * * * * * * * * * * * * * * * * * * * * * * * * * * * * * * * * //

dimensions      [1 -1 -2 0 0 0 0];

internalField   nonuniform List<scalar> 
10000
(
-0.00480591
-0.00480555
-0.00480431
-0.00480131
-0.00479673
-0.00479089
-0.00478397
-0.00477604
-0.00476715
-0.00475734
-0.00474664
-0.00473504
-0.00472255
-0.00470914
-0.00469482
-0.00467959
-0.00466346
-0.00464644
-0.00462858
-0.0046099
-0.00459045
-0.00457029
-0.00454948
-0.00452809
-0.00450621
-0.00448389
-0.00446117
-0.00443807
-0.00441456
-0.00439061
-0.00436613
-0.00434104
-0.00431528
-0.00428876
-0.00426143
-0.00423328
-0.00420433
-0.00417462
-0.00414422
-0.00411319
-0.00408161
-0.00404954
-0.00401703
-0.0039841
-0.00395074
-0.0039169
-0.00388256
-0.00384766
-0.00381217
-0.00377604
-0.00480552
-0.0048051
-0.0048038
-0.00480096
-0.00479661
-0.00479096
-0.00478414
-0.00477626
-0.00476737
-0.00475751
-0.00474671
-0.00473496
-0.00472229
-0.00470869
-0.00469417
-0.00467875
-0.00466245
-0.0046453
-0.00462733
-0.00460858
-0.00458909
-0.00456893
-0.00454815
-0.00452681
-0.00450499
-0.00448273
-0.00446007
-0.00443702
-0.00441357
-0.00438966
-0.00436523
-0.00434023
-0.00431457
-0.0042882
-0.00426106
-0.00423314
-0.00420443
-0.00417499
-0.00414484
-0.00411405
-0.00408268
-0.00405081
-0.00401845
-0.00398564
-0.00395235
-0.00391856
-0.00388423
-0.00384934
-0.00381385
-0.00377772
-0.00480495
-0.00480456
-0.00480313
-0.00480026
-0.004796
-0.00479044
-0.00478369
-0.00477581
-0.00476689
-0.00475695
-0.00474602
-0.00473413
-0.00472128
-0.0047075
-0.00469279
-0.00467718
-0.00466071
-0.00464341
-0.00462533
-0.0046065
-0.00458698
-0.00456682
-0.00454607
-0.0045248
-0.00450306
-0.00448091
-0.00445837
-0.00443546
-0.00441216
-0.00438842
-0.0043642
-0.00433941
-0.00431401
-0.00428792
-0.00426107
-0.00423345
-0.00420506
-0.00417592
-0.00414607
-0.00411559
-0.00408451
-0.00405289
-0.00402077
-0.00398816
-0.00395504
-0.00392141
-0.00388724
-0.00385249
-0.00381715
-0.00378116
-0.00480422
-0.00480377
-0.00480225
-0.00479929
-0.00479498
-0.00478941
-0.00478263
-0.00477471
-0.00476571
-0.00475566
-0.00474461
-0.00473257
-0.00471956
-0.0047056
-0.00469072
-0.00467495
-0.00465832
-0.00464089
-0.0046227
-0.0046038
-0.00458424
-0.00456408
-0.00454337
-0.00452218
-0.00450056
-0.00447857
-0.00445622
-0.00443355
-0.00441052
-0.0043871
-0.00436323
-0.00433884
-0.00431384
-0.00428817
-0.00426173
-0.00423449
-0.00420646
-0.00417767
-0.00414817
-0.00411803
-0.00408728
-0.00405599
-0.00402418
-0.00399187
-0.00395905
-0.00392572
-0.00389184
-0.0038574
-0.00382236
-0.00378669
-0.00480334
-0.00480269
-0.00480102
-0.00479793
-0.00479352
-0.00478786
-0.00478099
-0.00477298
-0.00476386
-0.00475369
-0.0047425
-0.00473031
-0.00471714
-0.00470302
-0.00468798
-0.00467205
-0.00465528
-0.00463772
-0.00461943
-0.00460046
-0.00458086
-0.0045607
-0.00454004
-0.00451894
-0.00449747
-0.00447568
-0.0044536
-0.00443126
-0.00440863
-0.00438567
-0.0043623
-0.00433845
-0.00431403
-0.00428894
-0.00426301
-0.00423624
-0.00420863
-0.00418024
-0.00415113
-0.00412137
-0.00409101
-0.00406011
-0.00402871
-0.0039968
-0.0039644
-0.00393149
-0.00389806
-0.00386407
-0.0038295
-0.00379428
-0.00480221
-0.00480126
-0.00479937
-0.00479613
-0.00479157
-0.00478577
-0.00477878
-0.00477063
-0.00476138
-0.00475107
-0.00473972
-0.00472737
-0.00471404
-0.00469976
-0.00468455
-0.00466848
-0.00465157
-0.0046339
-0.0046155
-0.00459646
-0.00457682
-0.00455666
-0.00453605
-0.00451505
-0.00449375
-0.0044722
-0.00445045
-0.00442853
-0.00440642
-0.00438405
-0.00436135
-0.0043382
-0.00431455
-0.00429023
-0.00426494
-0.00423871
-0.00421157
-0.00418361
-0.00415492
-0.00412558
-0.00409567
-0.00406524
-0.00403432
-0.00400293
-0.00397107
-0.00393873
-0.00390588
-0.00387248
-0.0038385
-0.00380389
-0.00480066
-0.00479941
-0.00479727
-0.00479383
-0.0047891
-0.00478314
-0.00477598
-0.00476768
-0.00475827
-0.00474779
-0.00473628
-0.00472377
-0.00471027
-0.00469583
-0.00468047
-0.00466425
-0.00464722
-0.00462943
-0.00461094
-0.00459181
-0.00457212
-0.00455194
-0.00453136
-0.00451047
-0.00448935
-0.00446807
-0.00444671
-0.0044253
-0.00440383
-0.00438221
-0.00436033
-0.00433806
-0.00431541
-0.00429214
-0.00426761
-0.00424197
-0.00421532
-0.0041878
-0.00415954
-0.00413066
-0.00410124
-0.00407134
-0.004041
-0.00401024
-0.00397904
-0.00394739
-0.00391526
-0.00388259
-0.00384936
-0.00381549
-0.00479857
-0.00479705
-0.00479466
-0.004791
-0.00478607
-0.00477992
-0.00477259
-0.00476411
-0.00475453
-0.00474388
-0.0047322
-0.00471951
-0.00470585
-0.00469125
-0.00467575
-0.0046594
-0.00464224
-0.00462433
-0.00460573
-0.00458651
-0.00456675
-0.00454653
-0.00452597
-0.00450516
-0.00448421
-0.00446322
-0.00444229
-0.00442149
-0.00440082
-0.00438014
-0.00435927
-0.00433803
-0.0043167
-0.00429491
-0.0042712
-0.00424613
-0.00421995
-0.00419284
-0.00416499
-0.00413656
-0.00410767
-0.00407837
-0.0040487
-0.00401867
-0.00398826
-0.00395744
-0.00392616
-0.00389438
-0.00386203
-0.00382905
-0.00479588
-0.00479412
-0.00479147
-0.00478759
-0.00478245
-0.00477611
-0.00476858
-0.00475992
-0.00475016
-0.00473933
-0.00472747
-0.00471461
-0.00470078
-0.00468604
-0.00467041
-0.00465393
-0.00463666
-0.00461863
-0.00459992
-0.00458058
-0.00456071
-0.00454042
-0.00451984
-0.00449908
-0.00447828
-0.00445758
-0.00443713
-0.00441709
-0.00439746
-0.00437803
-0.00435845
-0.00433833
-0.00431875
-0.00429922
-0.00427621
-0.00425149
-0.00422559
-0.00419876
-0.00417125
-0.00414325
-0.0041149
-0.00408626
-0.00405736
-0.00402818
-0.00399868
-0.00396883
-0.00393856
-0.0039078
-0.00387648
-0.00384455
-0.00479254
-0.00479054
-0.00478766
-0.00478355
-0.00477821
-0.00477166
-0.00476394
-0.00475509
-0.00474514
-0.00473413
-0.0047221
-0.00470908
-0.00469511
-0.00468023
-0.00466448
-0.00464789
-0.00463049
-0.00461235
-0.0045935
-0.00457402
-0.00455401
-0.0045336
-0.00451295
-0.00449221
-0.00447154
-0.00445117
-0.00443132
-0.00441222
-0.00439394
-0.00437607
-0.00435796
-0.00433869
-0.00432164
-0.00430618
-0.00428348
-0.00425861
-0.0042326
-0.00420573
-0.00417832
-0.00415064
-0.00412283
-0.00409492
-0.00406688
-0.00403867
-0.00401024
-0.00398151
-0.0039524
-0.00392282
-0.0038927
-0.00386197
-0.0047885
-0.00478628
-0.00478316
-0.00477884
-0.00477329
-0.00476654
-0.00475863
-0.0047496
-0.00473947
-0.00472829
-0.00471609
-0.00470293
-0.00468884
-0.00467386
-0.004658
-0.00464129
-0.00462378
-0.00460551
-0.00458654
-0.0045669
-0.00454669
-0.00452612
-0.0045054
-0.00448469
-0.00446419
-0.00444412
-0.00442477
-0.00440658
-0.00438982
-0.00437353
-0.00435638
-0.00433618
-0.00432283
-0.00431632
-0.00429338
-0.00426778
-0.00424139
-0.00421407
-0.00418635
-0.00415873
-0.00413137
-0.00410422
-0.00407717
-0.00405009
-0.00402288
-0.00399543
-0.00396764
-0.00393941
-0.00391064
-0.00388126
-0.00478371
-0.00478127
-0.00477793
-0.0047734
-0.00476765
-0.00476071
-0.00475261
-0.0047434
-0.00473311
-0.00472178
-0.00470946
-0.00469619
-0.00468201
-0.00466693
-0.00465098
-0.00463418
-0.00461655
-0.00459818
-0.00457911
-0.00455932
-0.00453892
-0.0045182
-0.00449746
-0.00447679
-0.00445627
-0.00443612
-0.00441679
-0.00439905
-0.00438349
-0.00436826
-0.00434981
-0.00432026
-0.00430875
-0.00432979
-0.00430615
-0.00427893
-0.00425197
-0.00422387
-0.00419547
-0.0041676
-0.0041405
-0.00411409
-0.00408813
-0.00406235
-0.00403653
-0.00401054
-0.00398424
-0.00395753
-0.00393029
-0.00390244
-0.0047781
-0.00477546
-0.0047719
-0.00476717
-0.00476123
-0.00475411
-0.00474584
-0.00473648
-0.00472605
-0.0047146
-0.00470219
-0.00468885
-0.00467461
-0.00465948
-0.00464347
-0.00462659
-0.00460887
-0.00459046
-0.00457143
-0.00455161
-0.00453103
-0.00451013
-0.00448934
-0.00446846
-0.0044474
-0.00442653
-0.00440678
-0.00438933
-0.00437356
-0.00435462
-0.00432549
-0.00423629
-0.00418756
-0.00434426
-0.00431939
-0.00428939
-0.0042624
-0.00423359
-0.00420472
-0.00417689
-0.0041502
-0.00412454
-0.00409971
-0.00407537
-0.00405114
-0.0040268
-0.00400218
-0.00397716
-0.00395163
-0.0039255
-0.00477162
-0.00476878
-0.00476503
-0.00476011
-0.00475399
-0.00474671
-0.00473829
-0.0047288
-0.00471826
-0.00470674
-0.00469427
-0.0046809
-0.00466666
-0.00465153
-0.00463552
-0.00461861
-0.00460086
-0.00458261
-0.00456397
-0.00454416
-0.00452321
-0.00450196
-0.00448102
-0.00445952
-0.00443721
-0.00441508
-0.00439477
-0.00437645
-0.00435578
-0.00432216
-0.00419896
-0.00383831
-0.00364113
-0.00418467
-0.00429894
-0.00428421
-0.0042639
-0.00423868
-0.00421133
-0.00418497
-0.00415979
-0.00413552
-0.00411202
-0.00408917
-0.00406668
-0.00404417
-0.00402143
-0.0039983
-0.00397467
-0.00395046
-0.0047642
-0.00476118
-0.00475726
-0.00475218
-0.0047459
-0.00473847
-0.00472993
-0.00472033
-0.00470972
-0.00469815
-0.00468568
-0.00467234
-0.00465818
-0.00464318
-0.00462731
-0.00461052
-0.00459283
-0.00457486
-0.00455687
-0.00453702
-0.00451511
-0.00449332
-0.00447268
-0.00445025
-0.00442562
-0.00440115
-0.00437989
-0.00435445
-0.00430478
-0.00415982
-0.00381142
-0.000134972
0.00132289
-0.00389558
-0.00418933
-0.00424659
-0.00425349
-0.00423829
-0.00421469
-0.00419096
-0.00416841
-0.0041466
-0.00412514
-0.00410397
-0.00408323
-0.00406269
-0.004042
-0.00402095
-0.00399943
-0.00397733
-0.00475579
-0.00475263
-0.00474855
-0.00474333
-0.00473692
-0.00472937
-0.00472072
-0.00471104
-0.00470037
-0.00468879
-0.00467637
-0.00466316
-0.00464924
-0.00463462
-0.00461918
-0.0046027
-0.00458508
-0.0045673
-0.00454985
-0.00452963
-0.00450641
-0.00448355
-0.00446339
-0.00444154
-0.00441593
-0.00438895
-0.00435862
-0.00430846
-0.00418282
-0.00385413
-0.000141015
0.00421441
0.0047017
1.72406e-05
-0.00390143
-0.00415485
-0.00423604
-0.00423373
-0.00421605
-0.0041958
-0.00417635
-0.00415761
-0.00413897
-0.00412
-0.00410107
-0.00408246
-0.00406393
-0.00404513
-0.00402591
-0.00400613
-0.00474636
-0.00474308
-0.00473888
-0.00473355
-0.00472703
-0.00471937
-0.00471063
-0.00470087
-0.00469017
-0.00467861
-0.0046663
-0.00465339
-0.00463999
-0.00462604
-0.00461124
-0.00459521
-0.00457733
-0.00456002
-0.00454289
-0.0045215
-0.00449693
-0.00447356
-0.00445188
-0.00442886
-0.00440723
-0.00437601
-0.0043563
-0.00432517
-0.00427057
-0.00412507
-0.0037167
0.000495404
0.00240582
-0.00376706
-0.00410584
-0.00420516
-0.00424618
-0.00424025
-0.00422253
-0.00420326
-0.00418525
-0.00416906
-0.00415354
-0.00413726
-0.00412047
-0.00410373
-0.00408727
-0.00407085
-0.00405415
-0.00403688
-0.00473586
-0.00473251
-0.00472823
-0.00472281
-0.00471619
-0.00470844
-0.00469961
-0.00468978
-0.00467905
-0.00466754
-0.00465547
-0.00464308
-0.00463037
-0.00461707
-0.00460289
-0.00458713
-0.00456958
-0.00455094
-0.00453637
-0.00450817
-0.00448213
-0.00446549
-0.00443812
-0.00442322
-0.00439179
-0.00426218
-0.00435259
-0.0043101
-0.00428429
-0.00425399
-0.00414516
-0.00373969
-0.00355439
-0.00401629
-0.00423621
-0.00424966
-0.00424901
-0.0042409
-0.00422955
-0.0042134
-0.00419553
-0.00418099
-0.00416886
-0.00415552
-0.00414131
-0.00412672
-0.00411225
-0.00409812
-0.00408417
-0.00406965
-0.00472429
-0.00472091
-0.00471659
-0.0047111
-0.0047044
-0.00469655
-0.00468762
-0.0046777
-0.00466693
-0.00465552
-0.00464383
-0.00463201
-0.00461978
-0.0046068
-0.00459301
-0.00457786
-0.00456285
-0.00454616
-0.0045306
-0.00449914
-0.00446241
-0.00443345
-0.00444866
-0.0044214
-0.00438428
-0.00433624
-0.00378823
-0.0042863
-0.00425771
-0.00423892
-0.0042212
-0.00412351
-0.00405073
-0.00422145
-0.00427178
-0.00420799
-0.00422768
-0.00423599
-0.00424224
-0.00422798
-0.00420674
-0.00419346
-0.0041853
-0.00417469
-0.00416328
-0.00415138
-0.0041392
-0.0041271
-0.00411594
-0.00410457
-0.00471165
-0.00470828
-0.00470394
-0.00469841
-0.00469163
-0.00468367
-0.00467462
-0.00466458
-0.00465374
-0.00464246
-0.0046311
-0.00461946
-0.00460708
-0.00459379
-0.00458004
-0.00456618
-0.00455445
-0.00454392
-0.00452363
-0.00449258
-0.00443514
-0.00440975
-0.00415331
-0.0044175
-0.00438435
-0.00433314
-0.00428201
-0.00426971
-0.00425501
-0.00422517
-0.00420021
-0.00417254
-0.00417803
-0.00420068
-0.00419109
-0.00406327
-0.0042439
-0.00425613
-0.00427132
-0.00424001
-0.00420975
-0.00420023
-0.00420174
-0.00419513
-0.00418642
-0.00417747
-0.00416825
-0.00415839
-0.00414943
-0.00414174
-0.00469794
-0.00469463
-0.00469031
-0.00468474
-0.00467787
-0.00466979
-0.00466057
-0.00465036
-0.00463941
-0.00462817
-0.00461674
-0.00460457
-0.00459112
-0.00457639
-0.00456112
-0.00454695
-0.00453569
-0.00451947
-0.00448601
-0.00449565
-0.0044782
-0.00442187
-0.00439663
-0.00440367
-0.00437244
-0.00433912
-0.00429593
-0.0042705
-0.00424602
-0.00422182
-0.00421578
-0.00417569
-0.00418537
-0.00419715
-0.00421263
-0.00424431
-0.00426631
-0.00428826
-0.00426807
-0.00419629
-0.0041669
-0.00418483
-0.00421857
-0.00421827
-0.00421144
-0.00420515
-0.00419927
-0.00419266
-0.00418523
-0.00418096
-0.00468322
-0.00468
-0.00467572
-0.00467012
-0.00466316
-0.00465492
-0.0046455
-0.00463505
-0.00462391
-0.00461244
-0.00460042
-0.00458705
-0.00457175
-0.00455454
-0.00453626
-0.00451806
-0.00448854
-0.00444247
-0.00439618
-0.00436276
-0.00446924
-0.00444796
-0.00438265
-0.00433589
-0.00433784
-0.00431751
-0.00429908
-0.00427519
-0.00425612
-0.00424364
-0.0042434
-0.00418145
-0.00423242
-0.00423135
-0.00423098
-0.00423737
-0.00425894
-0.00426822
-0.00429231
-0.00408483
-0.00399129
-0.00410702
-0.00421332
-0.00423995
-0.0042331
-0.00423214
-0.00423142
-0.00422943
-0.0042249
-0.00422201
-0.00466757
-0.00466446
-0.00466024
-0.0046546
-0.00464754
-0.00463913
-0.00462946
-0.00461871
-0.00460725
-0.0045953
-0.00458232
-0.00456741
-0.00454999
-0.00453005
-0.00450813
-0.00447919
-0.00444844
-0.00438769
-0.00430765
-0.00421606
-0.00354574
-0.0039769
-0.00419467
-0.00427208
-0.00426987
-0.00427384
-0.00427122
-0.0042596
-0.00423842
-0.00423739
-0.00425161
-0.00428162
-0.00420805
-0.00419593
-0.00420903
-0.00421822
-0.00422248
-0.00424544
-0.00434486
-0.000190187
0.000716212
-0.00298395
-0.0041823
-0.00417762
-0.00423023
-0.0042496
-0.0042612
-0.00426702
-0.00426891
-0.00426667
-0.00465109
-0.00464811
-0.00464395
-0.00463827
-0.00463109
-0.00462248
-0.00461254
-0.00460146
-0.00458957
-0.00457696
-0.00456291
-0.0045465
-0.00452726
-0.00450507
-0.00447777
-0.00443835
-0.00440562
-0.00416662
-0.00427367
-0.00395394
-0.00301036
-0.00299045
-0.00364267
-0.00428809
-0.0041563
-0.00419341
-0.00423126
-0.00423228
-0.00421173
-0.00421025
-0.00393173
-0.00410675
-0.00400481
-0.00415203
-0.00419208
-0.00419493
-0.00417774
-0.00409726
-0.00274012
0.00075369
0.000709192
0.000631174
-0.00388344
-0.00413515
-0.00423541
-0.00427138
-0.00429455
-0.00430786
-0.0043167
-0.0043187
-0.0046339
-0.00463105
-0.00462694
-0.00462122
-0.00461391
-0.00460509
-0.00459486
-0.00458341
-0.00457103
-0.00455773
-0.00454276
-0.00452528
-0.00450505
-0.00448178
-0.00445254
-0.0044228
-0.00429898
-0.00425383
-0.00426429
-0.00117125
0.00312077
0.00354391
0.00228927
-0.00339815
-0.00409017
-0.00414958
-0.00417747
-0.00418707
-0.00418569
-0.0041891
-0.00419672
-0.00425983
-0.00423159
-0.00418723
-0.0042132
-0.00420694
-0.00409416
-0.00421083
-0.00401483
0.000191891
0.000745307
-0.000762049
-0.00424937
-0.00424872
-0.00429586
-0.00432926
-0.00434589
-0.00435838
-0.0043707
-0.0043786
-0.00461613
-0.00461338
-0.00460931
-0.00460353
-0.00459609
-0.00458707
-0.00457655
-0.0045647
-0.00455182
-0.00453787
-0.0045222
-0.00450418
-0.00448364
-0.00446047
-0.00443536
-0.00441905
-0.00429272
-0.00421398
-0.00418005
0.00333247
0.00347266
0.00349227
0.00352635
6.70998e-06
-0.00412159
-0.00413955
-0.00410153
-0.00394402
-0.00417328
-0.00416474
-0.00420019
-0.00414147
-0.00358014
-0.00374104
-0.00410884
-0.0042345
-0.00419469
-0.00421925
-0.00436191
-0.00381917
-0.00303964
-0.00418349
-0.00354031
-0.0042603
-0.0043647
-0.00439347
-0.00440257
-0.00441343
-0.00442992
-0.00444276
-0.0045979
-0.00459522
-0.00459115
-0.00458531
-0.00457773
-0.0045685
-0.0045577
-0.00454547
-0.00453208
-0.00451752
-0.00450121
-0.00448256
-0.0044615
-0.00443732
-0.00441112
-0.00438335
-0.00428062
-0.00425331
-0.00396174
0.00330333
0.0034419
0.00346848
0.00351776
0.000242199
-0.0041096
-0.00414721
-0.00413004
-0.00413897
-0.00414605
-0.00416139
-0.00417767
-0.00414708
-0.00418062
-0.0042583
-0.00425593
-0.00425395
-0.00425163
-0.00429299
-0.00429151
-0.00424801
-0.00418054
-0.00433789
-0.00445249
-0.00448026
-0.00447289
-0.00445981
-0.00446351
-0.00447515
-0.00449699
-0.00451328
-0.00457933
-0.00457665
-0.00457256
-0.00456663
-0.00455891
-0.00454949
-0.00453843
-0.00452585
-0.00451199
-0.00449691
-0.00448011
-0.00446101
-0.00443929
-0.0044143
-0.0043875
-0.004344
-0.0042996
-0.00427912
-0.00424735
-0.00195685
0.00311024
0.00344663
0.0021663
-0.00358784
-0.00415176
-0.00415956
-0.00414909
-0.00413867
-0.00414867
-0.00415568
-0.00416204
-0.00416945
-0.00419665
-0.00424594
-0.00423234
-0.00420111
-0.00423892
-0.00427747
-0.0042986
-0.00428095
-0.00427975
-0.00434279
-0.00434256
-0.00436776
-0.004309
-0.00446835
-0.00453605
-0.00453004
-0.00457096
-0.00459279
-0.00456049
-0.00455777
-0.0045536
-0.00454756
-0.0045397
-0.0045301
-0.00451881
-0.00450594
-0.0044917
-0.00447623
-0.00445918
-0.00444003
-0.00441845
-0.00439435
-0.00436791
-0.00433719
-0.004308
-0.00429593
-0.00423733
-0.00408829
-0.00357528
-0.0037689
-0.00388252
-0.00414603
-0.00415112
-0.00418423
-0.00415884
-0.00415549
-0.00415339
-0.00415323
-0.00415358
-0.00415851
-0.0041776
-0.00423485
-0.004199
-0.00395249
-0.00426628
-0.00427186
-0.00429626
-0.004307
-0.00432706
-0.00435839
-0.00438343
-0.00441902
-0.00447751
-0.00439363
-0.00419125
-0.00456344
-0.00465963
-0.00467403
-0.00454145
-0.00453863
-0.00453435
-0.00452817
-0.00452016
-0.00451039
-0.00449891
-0.0044858
-0.00447128
-0.00445553
-0.00443841
-0.00441947
-0.0043985
-0.00437554
-0.00435033
-0.00432489
-0.00430059
-0.00428846
-0.00427431
-0.00417896
-0.0040728
-0.00409049
-0.00410654
-0.00418853
-0.00420545
-0.00416472
-0.00414406
-0.0041552
-0.00414423
-0.00414226
-0.00413417
-0.00388456
-0.00417767
-0.0043307
-0.00421642
-0.00413407
-0.00422454
-0.0042601
-0.00429498
-0.00432008
-0.00435302
-0.00438854
-0.00442374
-0.00444899
-0.00451753
-0.00456497
-0.00461156
-0.00446915
-0.00434473
-0.00467742
-0.00452228
-0.0045193
-0.00451484
-0.0045085
-0.00450033
-0.0044904
-0.00447875
-0.00446547
-0.00445073
-0.00443479
-0.00441768
-0.00439909
-0.00437881
-0.00435683
-0.00433331
-0.00430976
-0.00428665
-0.00427233
-0.00424825
-0.00418788
-0.00412556
-0.00410237
-0.00410446
-0.00413348
-0.00415255
-0.00413255
-0.0035199
-0.00408753
-0.00394732
-0.00413114
-0.00411399
-0.00406862
-0.00406781
-0.00456591
-0.00408767
-0.00404872
-0.00423181
-0.00429508
-0.00430644
-0.00434304
-0.00438758
-0.00442064
-0.00446582
-0.00451408
-0.00455273
-0.00456709
-0.00456706
-0.0044691
-0.00468183
-0.00473434
-0.00450301
-0.0044998
-0.00449511
-0.00448859
-0.00448024
-0.00447014
-0.00445834
-0.00444493
-0.00443004
-0.00441397
-0.00439691
-0.00437872
-0.00435917
-0.00433821
-0.00431604
-0.00429309
-0.00426876
-0.00424035
-0.00420344
-0.00416627
-0.00411643
-0.00409016
-0.0038821
-0.00409192
-0.00406214
-0.0040956
-0.00412689
-0.00413298
-0.00412719
-0.00412242
-0.00407118
-0.00319302
0.00154762
0.0063169
0.0021518
-0.00280613
-0.00436618
-0.00434766
-0.00433183
-0.00435559
-0.00401518
-0.0044168
-0.00448203
-0.0045595
-0.00463628
-0.00469507
-0.00461877
-0.00444017
-0.00452927
-0.00480587
-0.00448367
-0.00448017
-0.0044752
-0.00446845
-0.0044599
-0.00444963
-0.00443769
-0.00442416
-0.00440918
-0.00439301
-0.00437598
-0.00435814
-0.00433932
-0.00431947
-0.00429881
-0.0042772
-0.00425792
-0.00423608
-0.00419649
-0.00413799
-0.00410862
-0.0040917
-0.00409288
-0.00408526
-0.00407624
-0.00408185
-0.00410093
-0.00410286
-0.00409713
-0.00410037
-0.00428174
0.00425647
0.00583593
0.00649485
0.00592911
0.00441536
-0.00404048
-0.00436067
-0.00432445
-0.00439472
-0.00441822
-0.00412899
-0.00452494
-0.004605
-0.00472402
-0.00489454
-0.00457375
-0.00371909
-0.00348023
-0.00453157
-0.00446426
-0.00446041
-0.00445512
-0.0044481
-0.00443933
-0.00442887
-0.00441678
-0.00440315
-0.00438809
-0.00437185
-0.00435477
-0.00433712
-0.00431884
-0.00429996
-0.00428081
-0.00425974
-0.00424616
-0.00424034
-0.00343452
-0.00409008
-0.00409233
-0.00408014
-0.00405264
-0.00407823
-0.00345523
-0.00402818
-0.00405596
-0.00406807
-0.00406805
-0.00407802
-0.0036236
0.00654732
0.00621916
0.00637146
0.00626928
0.00646221
-0.00256809
-0.00427348
-0.00434083
-0.00438205
-0.0044101
-0.00445352
-0.00452949
-0.0046211
-0.00475996
-0.00505633
0.00380132
0.00709438
0.00717462
0.00470326
-0.00444478
-0.00444053
-0.00443486
-0.00442754
-0.00441852
-0.00440786
-0.00439562
-0.00438188
-0.00436676
-0.00435045
-0.00433325
-0.00431551
-0.00429731
-0.00427859
-0.00425836
-0.0042378
-0.00421655
-0.00414702
-0.00413502
-0.00410965
-0.00409128
-0.00409247
-0.00389953
-0.00406732
-0.00403639
-0.00401977
-0.00402838
-0.00403237
-0.00402766
-0.00401511
-0.0035987
0.00596202
0.00609962
0.00634283
0.00628772
0.0064099
-0.0031138
-0.00425367
-0.00415473
-0.00435654
-0.00439054
-0.00445489
-0.00451859
-0.00459573
-0.00465682
-0.000805073
0.00772536
0.00726797
0.00705162
0.00676876
-0.0044252
-0.0044205
-0.00441441
-0.00440675
-0.00439747
-0.0043866
-0.0043742
-0.00436035
-0.00434519
-0.00432885
-0.00431156
-0.00429361
-0.00427526
-0.00425636
-0.00423632
-0.00421526
-0.00418621
-0.00415825
-0.00411844
-0.00342636
-0.00407613
-0.00407987
-0.00407988
-0.00406114
-0.00402163
-0.00366607
-0.00401529
-0.00401142
-0.00399982
-0.00398595
-0.00406404
0.00279935
0.00546737
0.00660996
0.00610035
0.00442613
-0.00393568
-0.00431296
-0.00431032
-0.00433641
-0.0043784
-0.00442526
-0.00449562
-0.00457854
-0.00467813
-0.00289921
0.00782579
0.0072338
0.00699739
0.00714688
-0.00440548
-0.0044003
-0.00439375
-0.00438573
-0.00437617
-0.00436508
-0.00435252
-0.00433859
-0.0043234
-0.00430708
-0.00428978
-0.00427173
-0.00425319
-0.00423428
-0.0042148
-0.00419431
-0.00417194
-0.00414769
-0.00412211
-0.00412653
-0.00407565
-0.00407027
-0.00406216
-0.00403669
-0.00402245
-0.00401925
-0.00400224
-0.00398592
-0.00395971
-0.00393381
-0.00386124
-0.00329675
-0.00022356
0.00581192
0.00189937
-0.00313236
-0.00445019
-0.00413435
-0.00425327
-0.00410481
-0.00431679
-0.00437045
-0.0044498
-0.0045268
-0.00461663
-0.00393231
0.00613163
0.00673409
0.00657077
0.00619832
-0.00438559
-0.00437989
-0.00437286
-0.00436446
-0.0043546
-0.00434329
-0.0043306
-0.0043166
-0.00430141
-0.00428515
-0.00426794
-0.00424993
-0.00423135
-0.00421245
-0.00419335
-0.00417398
-0.00415348
-0.00413354
-0.00411809
-0.0040893
-0.00407926
-0.00406259
-0.00404559
-0.00402837
-0.00401071
-0.00400044
-0.00398648
-0.00396693
-0.00393394
-0.00391493
-0.0036996
-0.00371752
-0.0038518
-0.0045302
-0.00417282
-0.00399059
-0.00418555
-0.00425907
-0.00424743
-0.00426019
-0.00428693
-0.00421585
-0.00440415
-0.00444832
-0.00449402
-0.00462143
-0.00356679
0.000358321
-0.000320892
-0.00453536
-0.00436549
-0.00435924
-0.00435171
-0.00434292
-0.00433277
-0.00432125
-0.00430842
-0.00429438
-0.00427922
-0.00426305
-0.00424598
-0.00422814
-0.0042097
-0.00419087
-0.00417191
-0.00415296
-0.00413403
-0.00411502
-0.00409574
-0.00407642
-0.00406194
-0.00404528
-0.00403057
-0.00401654
-0.00399333
-0.00398046
-0.00397119
-0.00395607
-0.00393526
-0.00388829
-0.00384393
-0.00380516
-0.00394243
-0.00390525
-0.0041226
-0.00406647
-0.00413599
-0.00418474
-0.00420687
-0.00420824
-0.00411982
-0.004314
-0.00435391
-0.00438221
-0.00430939
-0.00387314
-0.00300659
-0.00168702
0.00110955
0.00208012
-0.00434513
-0.00433832
-0.00433027
-0.00432109
-0.00431064
-0.00429892
-0.00428599
-0.00427193
-0.00425683
-0.00424079
-0.00422391
-0.00420631
-0.00418813
-0.00416955
-0.00415078
-0.00413207
-0.00411363
-0.00409552
-0.00407827
-0.00406158
-0.00404493
-0.00402953
-0.00401561
-0.0039977
-0.00393578
-0.00396045
-0.00396062
-0.00394989
-0.00393682
-0.00391854
-0.00389421
-0.00388711
-0.00397828
-0.00413414
-0.00408716
-0.00406545
-0.00410704
-0.00413865
-0.0041593
-0.00418971
-0.0042344
-0.00427616
-0.00432427
-0.00440144
-0.00466073
-0.00382589
-0.00334356
-0.0028604
0.00237271
0.000391538
-0.00432446
-0.00431708
-0.00430851
-0.00429894
-0.00428821
-0.00427631
-0.00426329
-0.00424924
-0.00423423
-0.00421835
-0.0042017
-0.0041844
-0.00416657
-0.00414837
-0.00412997
-0.00411159
-0.00409354
-0.00407603
-0.00405949
-0.00404411
-0.00402958
-0.00401432
-0.00399671
-0.00397296
-0.00398256
-0.00397056
-0.00395356
-0.00394346
-0.00393666
-0.00393048
-0.00392721
-0.00394298
-0.00398279
-0.00404721
-0.00405276
-0.00405108
-0.00406935
-0.00408968
-0.00411429
-0.00415047
-0.00418275
-0.00422234
-0.00426171
-0.00432628
-0.00363748
-0.00279855
-0.00431323
-0.00640462
-0.0033798
0.00465135
-0.00430341
-0.00429546
-0.00428637
-0.00427642
-0.00426543
-0.00425338
-0.00424031
-0.0042263
-0.00421141
-0.00419573
-0.00417935
-0.00416239
-0.00414497
-0.00412723
-0.00410933
-0.00409147
-0.0040739
-0.00405691
-0.00404095
-0.00402618
-0.00401218
-0.00399823
-0.00398551
-0.00397629
-0.00396702
-0.00395688
-0.00394668
-0.00393888
-0.00393445
-0.00393277
-0.00393504
-0.00394669
-0.00397098
-0.00400439
-0.00401591
-0.00402334
-0.00403837
-0.00405818
-0.00407112
-0.003988
-0.00413806
-0.00417103
-0.0041885
-0.00422211
-0.00434504
-0.00407342
-0.00274688
-0.00319339
0.0278093
0.0286518
-0.00428191
-0.0042734
-0.00426381
-0.0042535
-0.00424228
-0.00423011
-0.00421702
-0.00420308
-0.00418836
-0.00417292
-0.00415686
-0.00414028
-0.00412331
-0.00410608
-0.00408877
-0.00407157
-0.00405469
-0.00403835
-0.00402285
-0.00400839
-0.00399514
-0.00398306
-0.00397243
-0.00396362
-0.00395541
-0.00394754
-0.0039402
-0.00393484
-0.00393207
-0.00393194
-0.00393504
-0.0039438
-0.00395941
-0.00397954
-0.00399066
-0.00399633
-0.00400582
-0.00401654
-0.00403499
-0.00406499
-0.00410838
-0.00412486
-0.00411422
-0.00410608
-0.00404263
-0.00375451
-0.00343739
0.0101027
0.0291682
0.0287192
-0.00425988
-0.00425082
-0.00424076
-0.00423013
-0.00421872
-0.00420646
-0.00419339
-0.00417957
-0.00416505
-0.0041499
-0.0041342
-0.00411806
-0.00410159
-0.00408495
-0.0040683
-0.00405187
-0.00403584
-0.00402043
-0.00400582
-0.00399215
-0.00397957
-0.00396822
-0.00395857
-0.00395103
-0.00394502
-0.00393926
-0.00393445
-0.00393117
-0.00392976
-0.00393041
-0.00393353
-0.00394019
-0.00395085
-0.00396381
-0.00397108
-0.00397619
-0.00396987
-0.00396576
-0.00397896
-0.00401218
-0.00406058
-0.00406494
-0.00396461
-0.00400863
-0.00403583
-0.00396544
-0.00399244
0.00943719
0.0291376
0.0286844
-0.00423723
-0.00422766
-0.00421716
-0.00420625
-0.00419469
-0.0041824
-0.00416939
-0.00415573
-0.00414146
-0.00412665
-0.00411137
-0.00409572
-0.00407982
-0.00406383
-0.00404793
-0.00403234
-0.00401727
-0.00400293
-0.00398954
-0.00397725
-0.00396614
-0.00395618
-0.00394746
-0.00394023
-0.00393465
-0.0039309
-0.00392884
-0.00392785
-0.00392785
-0.00392935
-0.00393258
-0.00393786
-0.00394523
-0.00395048
-0.00396203
-0.00396628
-0.00360757
-0.00390494
-0.00391914
-0.00393353
-0.00322721
-0.0030214
-0.00372604
-0.00386623
-0.0039899
-0.00405783
-0.00407387
-0.00142088
0.0249526
0.0282285
-0.00421389
-0.00420384
-0.00419295
-0.00418182
-0.00417016
-0.00415788
-0.00414499
-0.00413154
-0.00411758
-0.00410317
-0.00408837
-0.00407328
-0.00405802
-0.00404276
-0.00402769
-0.004013
-0.00399892
-0.00398567
-0.00397349
-0.0039626
-0.00395318
-0.00394531
-0.00393901
-0.00393404
-0.00392986
-0.0039263
-0.0039242
-0.00392455
-0.00392695
-0.00393006
-0.00393355
-0.0039375
-0.00393928
-0.00394154
-0.00392779
-0.00379388
-0.00389697
-0.00387757
-0.00386036
-0.00389187
-0.00296578
-0.00332669
-0.00327912
-0.00365759
-0.00416316
-0.00429723
-0.00439741
-0.00506297
-0.000632216
0.00846647
-0.00418977
-0.0041793
-0.00416809
-0.00415678
-0.00414507
-0.00413285
-0.00412013
-0.00410696
-0.00409339
-0.00407944
-0.0040652
-0.00405075
-0.00403623
-0.00402178
-0.00400759
-0.00399383
-0.00398073
-0.00396853
-0.00395751
-0.00394798
-0.0039402
-0.00393432
-0.00393033
-0.00392806
-0.00392723
-0.00392747
-0.00392782
-0.00392772
-0.00392856
-0.00393254
-0.0039375
-0.0039405
-0.00394027
-0.00393572
-0.00392399
-0.00392169
-0.00388418
-0.00381151
-0.00385185
-0.00330723
-0.00341565
-0.00358814
-0.00123003
-0.000217585
-0.00362038
-0.00435257
-0.0042432
-0.00435522
-0.00395856
-0.00379329
-0.00416481
-0.00415398
-0.0041425
-0.00413107
-0.00411936
-0.00410726
-0.00409478
-0.00408196
-0.00406884
-0.00405545
-0.00404186
-0.00402816
-0.00401447
-0.00400091
-0.00398763
-0.0039748
-0.00396263
-0.00395138
-0.0039414
-0.00393312
-0.00392698
-0.0039232
-0.00392171
-0.00392233
-0.00392474
-0.0039285
-0.00393299
-0.00393764
-0.00394103
-0.00394215
-0.00394527
-0.003951
-0.00395172
-0.00394614
-0.00392993
-0.00390168
-0.00383499
-0.00374611
-0.00362556
-0.00310137
-0.00261918
-0.00255828
0.00372421
0.00456862
-0.000750544
-0.00410372
-0.00388463
-0.00405077
-0.00392657
-0.00400267
-0.00413892
-0.0041278
-0.00411611
-0.00410461
-0.00409296
-0.00408104
-0.00406888
-0.00405649
-0.00404392
-0.00403118
-0.00401836
-0.00400553
-0.00399277
-0.00398018
-0.00396784
-0.0039559
-0.00394456
-0.00393408
-0.00392493
-0.00391775
-0.00391324
-0.00391171
-0.00391299
-0.00391686
-0.00392297
-0.00393075
-0.0039395
-0.00394847
-0.00395683
-0.00396346
-0.00396541
-0.00396777
-0.00397236
-0.00396678
-0.00395488
-0.00392833
-0.00390083
-0.00385846
-0.0032948
-0.00330543
-0.00290335
-0.000287857
0.00404802
0.00460971
-0.000506813
-0.00381996
-0.00404511
-0.00418552
-0.00425104
-0.00418957
-0.00411202
-0.00410067
-0.00408882
-0.00407731
-0.00406579
-0.00405414