/*--------------------------------*- C++ -*----------------------------------*\
| =========                 |                                                 |
| \\      /  F ield         | OpenFOAM: The Open Source CFD Toolbox           |
|  \\    /   O peration     | Version:  2.4.0                                 |
|   \\  /    A nd           | Web:      www.OpenFOAM.org                      |
|    \\/     M anipulation  |                                                 |
\*---------------------------------------------------------------------------*/
FoamFile
{
    version     2.0;
    format      ascii;
    class       surfaceScalarField;
    location    "0.38";
    object      phiAlpha;
}
// * * * * * * * * * * * * * * * * * * * * * * * * * * * * * * * * * * * * * //

dimensions      [0 3 -1 0 0 0 0];

internalField   nonuniform List<scalar> 
19800
(
-8.3508e-58
9.39197e-62
-8.73915e-54
4.7604e-57
-1.19987e-50
1.26405e-53
-5.14709e-48
8.77951e-51
-8.43728e-46
2.29593e-48
-5.75456e-44
2.48575e-46
-1.84521e-42
1.15303e-44
-3.08973e-41
2.4951e-43
-2.9732e-40
2.67809e-42
-1.80627e-39
1.43721e-41
-8.12131e-39
2.98123e-41
-2.88752e-38
-6.76093e-38
-9.2176e-38
-7.52701e-37
-2.90779e-37
-3.81025e-36
-9.21133e-37
-1.5969e-35
-3.0159e-36
-6.29915e-35
-9.93673e-36
-2.50419e-34
-2.99198e-35
-1.00349e-33
-7.66823e-35
-3.82999e-33
-1.46622e-34
-1.34702e-32
-9.56388e-35
-4.29532e-32
2.69441e-34
-1.23812e-31
1.81189e-33
-3.19952e-31
7.3921e-33
-7.23854e-31
2.3324e-32
-1.3703e-30
5.95541e-32
-1.95675e-30
1.24855e-31
-1.39276e-30
2.17822e-31
9.96609e-33
2.87121e-31
5.00818e-32
2.4426e-31
1.04173e-31
9.30836e-32
1.37075e-31
-3.43299e-32
1.27515e-31
-5.94668e-32
8.67314e-32
-4.51186e-32
4.59068e-32
-2.57282e-32
2.00887e-32
-1.27578e-32
7.73668e-33
-5.75949e-33
2.75945e-33
-2.38208e-33
9.1812e-34
-9.0819e-34
2.80026e-34
-3.22579e-34
7.71679e-35
-1.01008e-34
1.89334e-35
-2.7218e-35
3.74659e-36
-6.73417e-36
5.22442e-37
-1.70981e-36
2.97195e-38
-3.6085e-37
-1.95583e-35
-6.89996e-38
-9.93814e-36
-2.96539e-38
-2.88814e-36
-5.00453e-38
-1.36591e-36
-9.58425e-38
-2.54923e-36
-5.85117e-36
-1.61115e-37
-4.4261e-53
1.42213e-56
-1.4177e-49
1.66654e-52
-9.88645e-47
2.16315e-49
-2.53408e-44
8.67912e-47
-2.81971e-42
1.43919e-44
-1.4661e-40
1.08647e-42
-3.87624e-39
3.86747e-41
-5.69893e-38
6.81187e-40
-5.02425e-37
6.12633e-39
-2.95392e-36
2.58357e-38
-1.30075e-35
7.96674e-39
-4.32239e-35
-1.00481e-34
-1.25386e-34
-6.56077e-34
-3.50018e-34
-2.79088e-33
-9.58767e-34
-1.0337e-32
-2.60481e-33
-3.66735e-32
-6.58131e-33
-1.32122e-31
-1.25172e-32
-4.82561e-31
-3.86193e-33
-1.69514e-30
3.55213e-32
-5.47461e-30
2.34532e-31
-1.59937e-29
1.03597e-30
-4.23084e-29
3.72945e-30
-1.01073e-28
1.15066e-29
-2.138e-28
3.08095e-29
-3.83671e-28
7.11822e-29
-5.31872e-28
1.39445e-28
-4.04281e-28
2.39954e-28
6.97744e-30
3.38377e-28
4.01867e-29
3.62285e-28
8.87462e-29
2.79761e-28
1.28308e-28
1.40846e-28
1.37362e-28
1.93032e-29
1.12545e-28
-2.12931e-29
7.28679e-29
-2.31778e-29
3.89315e-29
-1.57428e-29
1.78993e-29
-8.66496e-30
7.32187e-30
-4.16446e-30
2.70964e-30
-1.80633e-30
9.09813e-31
-7.0677e-31
2.75779e-31
-2.43898e-31
7.29888e-32
-7.31896e-32
1.5738e-32
-2.03619e-32
2.44488e-33
-5.40425e-33
1.66398e-34
-1.2188e-33
-1.99977e-32
-2.48004e-34
-1.1367e-32
-9.62701e-35
-3.62119e-33
-1.60691e-34
-1.68655e-33
-3.49152e-34
-3.17179e-33
-8.20306e-33
-6.92772e-34
-4.43253e-50
2.67539e-53
-1.03533e-46
2.04414e-49
-5.64924e-44
2.03883e-46
-1.16136e-41
6.57895e-44
-1.05497e-39
8.90168e-42
-4.64059e-38
5.5271e-40
-1.07992e-36
1.65814e-38
-1.4446e-35
2.51443e-37
-1.19693e-34
1.92337e-36
-7.02051e-34
5.72976e-36
-2.87705e-33
-1.75873e-33
-8.78861e-33
-2.48137e-32
-2.27478e-32
-1.30346e-31
-5.44303e-32
-4.92668e-31
-1.2047e-31
-1.64769e-30
-2.29168e-31
-5.33237e-30
-1.98813e-31
-1.76194e-29
4.08384e-31
-5.89147e-29
3.44166e-30
-1.90952e-28
1.73564e-29
-5.71112e-28
6.93248e-29
-1.5436e-27
2.3749e-28
-3.78156e-27
7.2322e-28
-8.41903e-27
1.97895e-27
-1.67854e-26
4.85016e-27
-2.8831e-26
1.05331e-26
-3.92604e-26
1.99395e-26
-3.23783e-26
3.31888e-26
6.13286e-28
4.79897e-26
4.86436e-27
5.62286e-26
1.15062e-26
5.21988e-26
1.79601e-26
3.78606e-26
2.10906e-26
2.03358e-26
1.95598e-26
6.52312e-27
1.45874e-26
-3.7391e-28
8.98721e-27
-1.3849e-27
4.73497e-27
-1.15533e-27
2.19286e-27
-7.02037e-28
9.06176e-28
-3.59194e-28
3.36092e-28
-1.59499e-28
1.11616e-28
-6.15475e-29
3.20672e-29
-2.06974e-29
7.51667e-30
-6.40768e-30
1.28315e-30
-1.81948e-30
9.40198e-32
-4.43107e-31
-4.61747e-30
-9.74353e-32
-2.81527e-30
-3.67826e-32
-9.76844e-31
-6.10776e-32
-4.63308e-31
-1.47555e-31
-8.75909e-31
-2.47801e-30
-3.37817e-31
-9.19929e-48
8.62437e-51
-1.87221e-44
5.52204e-47
-8.95064e-42
4.8094e-44
-1.61e-39
1.36618e-41
-1.28322e-37
1.62296e-39
-5.00626e-36
8.82995e-38
-1.05345e-34
2.32258e-36
-1.30625e-33
3.07385e-35
-1.04827e-32
1.94108e-34
-5.77418e-32
2.02671e-34
-2.17649e-31
-2.88266e-31
-5.94885e-31
-2.43904e-30
-1.29712e-30
-1.11574e-29
-2.31634e-30
-3.84594e-29
-2.54488e-30
-1.17668e-28
1.82532e-30
-3.46676e-28
1.94609e-29
-1.04614e-27
1.05945e-28
-3.2091e-27
4.70768e-28
-9.64314e-27
1.79382e-27
-2.68652e-26
5.9671e-27
-6.76884e-26
1.7773e-26
-1.54738e-25
4.83895e-26
-3.23148e-25
1.21143e-25
-6.10758e-25
2.77097e-25
-1.01035e-24
5.71881e-25
-1.36115e-24
1.04919e-24
-1.21617e-24
1.6943e-24
9.07171e-27
2.47096e-24
2.08001e-25
3.04874e-24
5.36e-25
3.12915e-24
8.94333e-25
2.66288e-24
1.12872e-24
1.87596e-24
1.14348e-24
1.06132e-24
9.44893e-25
4.59571e-25
6.50749e-25
1.27649e-25
3.82687e-25
-3.17993e-27
1.9624e-25
-1.79017e-26
8.91299e-26
-1.42735e-26
3.62186e-26
-8.02776e-27
1.30778e-26
-3.64765e-27
4.06264e-27
-1.40556e-27
1.02859e-27
-4.84518e-28
1.89792e-28
-1.48213e-28
1.35414e-29
-3.87574e-29
-4.29125e-28
-9.10474e-30
-2.70676e-28
-3.39322e-30
-1.01175e-28
-5.43647e-30
-4.889e-29
-1.36651e-29
-9.01188e-29
-2.65928e-28
-3.32327e-29
-7.01266e-46
9.25397e-49
-1.36098e-42
5.54868e-45
-6.12021e-40
4.5656e-42
-1.01503e-37
1.2165e-39
-7.32928e-36
1.32975e-37
-2.58593e-34
6.51509e-36
-4.97191e-33
1.52123e-34
-5.73827e-32
1.73794e-33
-4.36412e-31
8.0197e-33
-2.16736e-30
-8.82765e-31
-7.15268e-30
-1.91141e-29
-1.56659e-29
-1.27627e-28
-2.0528e-29
-5.28386e-28
4.51494e-30
-1.67773e-27
8.40339e-29
-4.71554e-27
4.21764e-28
-1.27026e-26
1.75256e-27
-3.50047e-26
6.79568e-27
-9.85807e-26
2.47248e-26
-2.75189e-25
8.15502e-26
-7.17108e-25
2.41041e-25
-1.69391e-24
6.47731e-25
-3.63566e-24
1.6127e-24
-7.1622e-24
3.74643e-24
-1.28937e-23
8.07157e-24
-2.06281e-23
1.5917e-23
-2.75737e-23
2.83219e-23
-2.63622e-23
4.47051e-23
-5.18303e-24
6.46781e-23
4.27645e-24
8.2179e-23
1.24085e-23
8.97806e-23
2.20846e-23
8.40672e-23
2.96522e-23
6.79796e-23
3.21724e-23
4.69927e-23
2.87412e-23
2.77065e-23
2.15265e-23
1.39539e-23
1.38057e-23
5.98033e-24
7.73252e-24
2.13374e-24
3.83262e-24
5.86916e-25
1.6897e-24
8.51846e-26
6.56902e-25
-1.10641e-26
2.1868e-25
-1.0704e-26
5.9165e-26
-4.91489e-27
1.15622e-26
-1.61806e-27
6.92292e-28
-3.91601e-28
-2.07139e-26
-6.74305e-29
-1.32084e-26
-7.22441e-30
-5.25276e-27
1.60479e-29
-2.51981e-27
6.94341e-29
-4.24117e-27
-1.2331e-26
3.24341e-28
-2.6461e-44
4.57797e-47
-5.17e-41
2.77018e-43
-2.278e-38
2.27855e-40
-3.56575e-36
5.93201e-38
-2.35717e-34
6.10469e-36
-7.53389e-33
2.71764e-34
-1.31472e-31
5.60138e-33
-1.39214e-30
5.26707e-32
-9.32616e-30
9.43474e-32
-3.78711e-29
-6.34026e-29
-8.3822e-29
-7.16611e-28
-7.48596e-30
-4.09874e-27
2.85018e-28
-1.56339e-26
1.5774e-27
-4.63172e-26
6.03697e-27
-1.20654e-25
2.02681e-26
-2.98454e-25
6.66402e-26
-7.50941e-25
2.18481e-25
-1.94015e-24
7.00157e-25
-5.0329e-24
2.08121e-24
-1.23025e-23
5.61036e-24
-2.73628e-23
1.38513e-23
-5.54031e-23
3.19392e-23
-1.03429e-22
6.94346e-23
-1.78047e-22
1.41669e-22
-2.76265e-22
2.67721e-22
-3.66578e-22
4.61951e-22
-3.69286e-22
7.18039e-22
-1.60224e-22
1.01685e-21
4.80803e-23
1.30934e-21
1.68212e-22
1.48875e-21
3.20767e-22
1.4873e-21
4.5613e-22
1.31255e-21
5.23625e-22
1.01926e-21
4.97609e-22
6.96778e-22
3.98132e-22
4.23162e-22
2.73714e-22
2.31444e-22
1.64882e-22
1.15866e-22
8.80208e-23
5.40752e-23
4.17549e-23
2.3851e-23
1.73931e-23
1.00334e-23
6.17991e-24
4.06566e-24
1.77591e-24
1.61218e-24
3.5975e-25
6.2746e-25
1.25875e-26
2.32095e-25
-5.85174e-25
7.8922e-26
-3.72168e-25
2.52307e-26
-1.55241e-25
1.13908e-26
-7.19211e-26
1.9643e-26
-1.02959e-25
-2.82569e-25
6.17268e-26
-5.8687e-43
1.28052e-45
-1.19549e-39
8.22109e-42
-5.28287e-37
7.05114e-39
-7.82059e-35
1.84517e-36
-4.68623e-33
1.80036e-34
-1.32887e-31
7.24049e-33
-2.02442e-30
1.2831e-31
-1.79452e-29
8.60197e-31
-8.3227e-29
-7.11022e-29
-7.61612e-29
-2.0274e-27
3.78946e-28
-1.7211e-26
3.51065e-27
-8.79045e-26
1.72085e-26
-3.13759e-25
6.11772e-26
-8.76077e-25
1.8525e-25
-2.13295e-24
5.22989e-25
-4.87236e-24
1.48431e-24
-1.12056e-23
4.29365e-24
-2.65212e-23
1.24234e-23
-6.38544e-23
3.38735e-23
-1.46647e-22
8.44212e-23
-3.08115e-22
1.93531e-22
-5.90704e-22
4.16646e-22
-1.04869e-21
8.52566e-22
-1.73122e-21
1.65358e-21
-2.60979e-21
3.00057e-21
-3.43478e-21
5.01961e-21
-3.59561e-21
7.65102e-21
-2.16672e-21
1.06099e-20
2.92368e-22
1.36796e-20
1.46798e-21
1.59347e-20
3.03568e-21
1.66456e-20
4.56029e-21
1.56364e-20
5.50261e-21
1.31627e-20
5.49965e-21
9.91382e-21
4.63683e-21
6.72871e-21
3.37248e-21
4.16571e-21
2.162e-21
2.38808e-21
1.23278e-21
1.28783e-21
6.24256e-22
6.5857e-22
2.76604e-22
3.19662e-22
1.04082e-22
1.47391e-22
3.14312e-23
6.49634e-23
6.43445e-24
2.71827e-23
-7.34815e-25
1.05389e-23
-1.06406e-23
3.7225e-24
-6.73912e-24
1.22634e-24
-2.9253e-24
5.19728e-25
-1.29008e-24
7.41012e-25
-1.46219e-24
-3.63016e-24
2.14593e-24
-8.51158e-42
2.31534e-44
-1.85151e-38
1.64194e-40
-8.22486e-36
1.52358e-37
-1.12197e-33
4.07132e-35
-5.82872e-32
3.73551e-33
-1.35266e-30
1.33018e-31
-1.4833e-29
1.90534e-30
-4.19901e-29
4.10662e-30
1.17796e-28
-2.86869e-27
2.24502e-27
-4.03982e-26
1.95535e-26
-2.86959e-25
1.08029e-25
-1.33828e-24
4.22976e-25
-4.51278e-24
1.30022e-24
-1.19732e-23
3.4843e-24
-2.74665e-23
8.74599e-24
-5.8338e-23
2.20605e-23
-1.23007e-22
5.71951e-23
-2.66352e-22
1.50891e-22
-5.93752e-22
3.8073e-22
-1.28155e-21
8.84325e-22
-2.54943e-21
1.89517e-21
-4.64096e-21
3.82992e-21
-7.85545e-21
7.40629e-21
-1.24585e-20
1.36913e-20
-1.82571e-20
2.38928e-20
-2.37925e-20
3.87647e-20
-2.55941e-20
5.78198e-20
-1.84993e-20
7.86493e-20
5.15698e-22
1.00538e-19
8.71526e-21
1.1857e-19
2.00381e-20
1.27739e-19
3.18596e-20
1.2577e-19
4.02339e-20
1.12572e-19
4.18918e-20
9.11679e-20
3.67678e-20
6.70655e-20
2.79723e-20
4.52241e-20
1.89522e-20
2.8332e-20
1.14946e-20
1.67245e-20
6.1864e-21
9.3613e-21
2.90153e-21
4.96527e-21
1.14955e-21
2.49699e-21
3.61603e-22
1.19238e-21
7.25828e-23
5.3452e-22
-5.21028e-23
2.20437e-22
-1.3397e-22
8.27589e-23
-8.49576e-23
2.87705e-23
-3.82994e-23
1.16297e-23
-1.61885e-23
1.31115e-23
-1.37381e-23
-2.91494e-23
3.43227e-23
-8.48511e-41
2.95873e-43
-1.99818e-37
2.39876e-39
-8.59014e-35
2.51367e-36
-9.84888e-33
6.87683e-34
-3.65903e-31
5.81868e-32
-3.01581e-30
1.78207e-30
7.19908e-30
1.72097e-29
3.21065e-28
-1.72607e-27
5.67048e-27
-5.42639e-26
5.77241e-26
-5.63887e-25
3.85663e-25
-3.50733e-24
1.82975e-24
-1.5116e-23
6.48391e-24
-4.84176e-23
1.83536e-23
-1.22822e-22
4.52428e-23
-2.67426e-22
1.03594e-22
-5.32159e-22
2.35815e-22
-1.03418e-21
5.51827e-22
-2.04853e-21
1.33175e-21
-4.21505e-21
3.12294e-21
-8.54341e-21
6.79365e-21
-1.61139e-20
1.36721e-20
-2.79114e-20
2.60297e-20
-4.51207e-20
4.76886e-20
-6.87954e-20
8.41481e-20
-9.79344e-20
1.41352e-19
-1.26012e-19
2.22577e-19
-1.37994e-19
3.24825e-19
-1.11775e-19
4.36596e-19
-2.58526e-20
5.48469e-19
3.60389e-20
6.49554e-19
9.70056e-20
7.14719e-19
1.64575e-19
7.30048e-19
2.17196e-19
6.86551e-19
2.3342e-19
5.89465e-19
2.10373e-19
4.62215e-19
1.65467e-19
3.32898e-19
1.18132e-19
2.23105e-19
7.62549e-20
1.41211e-19
4.35693e-20
8.49493e-20
2.15594e-20
4.85347e-20
8.9537e-21
2.63554e-20
2.91008e-21
1.35382e-20
5.51247e-22
6.49123e-21
-7.55656e-22
2.85625e-21
-1.2363e-21
1.14474e-21
-7.91443e-22
4.22066e-22
-3.71289e-22
1.65142e-22
-1.53975e-22
1.4031e-22
-9.7004e-23
-1.61096e-22
3.1597e-22
-5.64918e-40
2.84245e-42
-1.39265e-36
2.70067e-38
-4.73611e-34
3.4191e-35
-1.77421e-32
9.68408e-33
5.95373e-32
7.41782e-31
7.89796e-30
1.7189e-29
3.45268e-28
2.26219e-29
7.59744e-27
-4.13135e-26
9.79612e-26
-6.87055e-25
8.24486e-25
-5.87313e-24
4.84851e-24
-3.27147e-23
2.10251e-23
-1.31084e-22
6.98398e-23
-3.99656e-22
1.86661e-22
-9.73161e-22
4.31819e-22
-2.0235e-21
9.16916e-22
-3.80168e-21
1.90562e-21
-6.85936e-21
4.04287e-21
-1.24541e-20
8.927e-21
-2.35836e-20
1.94839e-20
-4.4821e-20
3.98113e-20
-8.01941e-20
7.54633e-20
-1.32353e-19
1.35657e-19
-2.04529e-19
2.35727e-19
-2.99704e-19
3.97076e-19
-4.13554e-19
6.41737e-19
-5.22942e-19
9.80651e-19
-5.77536e-19
1.4016e-18
-5.0467e-19
1.86386e-18
-2.28741e-19
2.31852e-18
1.00485e-19
2.75523e-18
3.5825e-19
3.08384e-18
6.62012e-19
3.25116e-18
9.17387e-19
3.19171e-18
1.00925e-18
2.8802e-18
9.16814e-19
2.37956e-18
7.3455e-19
1.80361e-18
5.53672e-19
1.27348e-18
3.82497e-19
8.53302e-19
2.31919e-19
5.46657e-19
1.20532e-19
3.34554e-19
5.22036e-20
1.953e-19
1.73557e-20
1.07531e-19
2.93019e-21
5.50948e-20
-6.63333e-21
2.58954e-20
-8.71788e-21
1.10974e-20
-5.67513e-21
4.35464e-21
-2.7799e-21
1.69295e-21
-1.16329e-21
1.07813e-21
-5.76961e-22
-6.73959e-22
1.91923e-21
-1.94195e-39
2.14988e-41
-1.30422e-36
2.5436e-37
1.56126e-35
4.88362e-34
1.52984e-32
1.23576e-31
2.79782e-30
7.13257e-30
1.81484e-28
9.43022e-29
5.73218e-27
-1.55409e-26
1.00566e-25
-5.22365e-25
1.10236e-24
-6.45608e-24
8.21131e-24
-4.75595e-23
4.40231e-23
-2.40195e-22
1.77974e-22
-8.97159e-22
5.61412e-22
-2.60237e-21
1.43425e-21
-6.09257e-21
3.15277e-21
-1.21522e-20
6.28644e-21
-2.17088e-20
1.20601e-20
-3.66803e-20
2.33073e-20
-6.13217e-20
4.70442e-20
-1.06667e-19
9.55554e-20
-1.89794e-19
1.83645e-19
-3.22121e-19
3.28466e-19
-5.06854e-19
5.58145e-19
-7.48818e-19
9.19806e-19
-1.05333e-18
1.47682e-18
-1.40375e-18
2.2903e-18
-1.73247e-18
3.38819e-18
-1.90889e-18
4.74095e-18
-1.75411e-18
6.25615e-18
-1.05873e-18
7.83062e-18
1.42933e-19
9.43549e-18
1.02975e-18
1.08141e-17
2.17532e-18
1.18279e-17
3.22261e-18
1.21488e-17
3.6251e-18
1.14919e-17
3.23438e-18
9.91387e-18
2.58344e-18
7.78625e-18
2.0817e-18
5.69511e-18
1.55677e-18
3.98721e-18
9.96258e-19
2.69677e-18
5.37268e-19
1.75894e-18
2.39981e-19
1.09677e-18
8.01942e-20
6.43905e-19
1.08332e-20
3.51423e-19
-4.16223e-20
1.76193e-19
-4.81972e-20
8.07174e-20
-3.2037e-20
3.37985e-20
-1.64299e-20
1.34373e-20
-7.09853e-21
6.81089e-21
-3.07211e-21
-2.38222e-21
8.62811e-21
2.0442e-42
1.81259e-40
1.72285e-37
3.87559e-36
7.72837e-34
6.44132e-33
3.70258e-31
1.20088e-30
4.65694e-29
4.73345e-29
2.39787e-27
-9.41163e-28
6.264e-26
-2.35281e-25
9.44952e-25
-4.65715e-24
9.17298e-24
-4.72899e-23
6.18982e-23
-3.07913e-22
3.06545e-22
-1.42143e-21
1.16375e-21
-4.95592e-21
3.50122e-21
-1.36512e-20
8.60055e-21
-3.07127e-20
1.81111e-20
-5.89207e-20
3.42543e-20
-1.00663e-19
6.13307e-20
-1.60687e-19
1.08661e-19
-2.49021e-19
2.00385e-19
-3.97939e-19
3.78558e-19
-6.62294e-19
6.84614e-19
-1.06593e-18
1.15624e-18
-1.59883e-18
1.85731e-18
-2.25667e-18
2.89958e-18
-3.04222e-18
4.42354e-18
-3.89722e-18
6.54841e-18
-4.65237e-18
9.32387e-18
-5.05344e-18
1.27268e-17
-4.79712e-18
1.66526e-17
-3.39981e-18
2.13701e-17
-4.63974e-19
2.67387e-17
2.20933e-18
3.20459e-17
6.05104e-18
3.73829e-17
1.00235e-17
4.11696e-17
1.16485e-17
3.78851e-17
3.57513e-17
3.66649e-17
7.55362e-18
2.93859e-17
6.85431e-18
2.17348e-17
5.65483e-18
1.56038e-17
3.72592e-18
1.09893e-17
2.02446e-18
7.53926e-18
9.07726e-19
4.94804e-18
2.95177e-19
3.05963e-18
2.38775e-20
1.7628e-18
-1.97202e-19
9.37503e-19
-2.09767e-19
4.57801e-19
-1.42703e-19
2.0473e-19
-7.68479e-20
8.51324e-20
-3.48288e-20
3.80805e-20
-1.4467e-20
-7.92475e-21
3.24305e-20
7.9442e-41
2.06522e-39
5.59475e-36
5.88036e-35
1.50394e-32
6.62991e-32
5.19786e-30
8.6839e-30
5.20965e-28
1.60071e-28
2.27175e-26
-5.46011e-26
5.10176e-25
-2.10874e-24
6.80499e-24
-3.17401e-23
5.95916e-23
-2.77324e-22
3.68588e-22
-1.623e-21
1.69739e-21
-6.89541e-21
6.06931e-21
-2.24826e-20
1.74259e-20
-5.87068e-20
4.12456e-20
-1.26698e-19
8.36329e-20
-2.34032e-19
1.51242e-19
-3.84003e-19
2.55422e-19
-5.83689e-19
4.18255e-19
-8.45293e-19
7.05521e-19
-1.2449e-18
1.23937e-18
-1.93788e-18
2.10906e-18
-2.95474e-18
3.36269e-18
-4.22068e-18
5.10182e-18
-5.68323e-18
7.53298e-18
-7.33159e-18
1.0874e-17
-8.98238e-18
1.52507e-17
-1.02682e-17
2.07199e-17
-1.08656e-17
2.74376e-17
-1.05354e-17
3.53832e-17
-8.25114e-18
4.7089e-17
-3.50872e-18
6.38126e-17
3.05737e-18
8.47125e-17
1.37903e-17
8.78452e-17
8.20743e-17
1.9066e-16
3.59713e-17
1.25789e-16
3.13114e-17
1.38032e-16
2.03455e-17
1.10769e-16
2.33999e-17
7.94456e-17
2.09958e-17
5.62185e-17
1.31967e-17
3.98575e-17
6.73123e-18
2.77417e-17
2.86629e-18
1.85715e-17
8.57055e-19
1.18173e-17
-1.60815e-20
7.07928e-18
-6.94675e-19
3.95921e-18
-6.98204e-19
2.05257e-18
-4.90163e-19
9.80587e-19
-2.79495e-19
4.32785e-19
-1.34719e-19
1.87883e-19
-5.71788e-20
-2.57163e-20
1.14534e-19
1.70816e-39
2.58323e-38
1.08615e-34
7.07926e-34
1.97809e-31
5.2674e-31
5.27146e-29
4.26478e-29
4.43354e-27
-3.96689e-27
1.64692e-25
-5.52116e-25
3.24722e-24
-1.37304e-23
3.88836e-23
-1.71108e-22
3.10739e-22
-1.32116e-21
1.77646e-21
-7.03846e-21
7.64666e-21
-2.77101e-20
2.58154e-20
-8.47663e-20
7.07186e-20
-2.09811e-19
1.61299e-19
-4.33649e-19
3.159e-19
-7.7145e-19
5.4961e-19
-1.21933e-18
8.83949e-19
-1.77627e-18
1.35036e-18
-2.42515e-18
2.09205e-18
-3.31893e-18
3.41915e-18
-4.83652e-18
5.47047e-18
-6.96192e-18
8.22461e-18
-9.44974e-18
1.17662e-17
-1.21209e-17
1.64084e-17
-1.49585e-17
2.2317e-17
-1.74407e-17
2.94168e-17
-1.8949e-17
3.77913e-17
-1.93654e-17
4.82046e-17
-1.89027e-17
6.04399e-17
-1.56019e-17
8.54024e-17
-1.04578e-17
1.28101e-16
6.83379e-19
1.62771e-16
1.20673e-17
3.14739e-16
8.48698e-17
2.16589e-16
6.79451e-17
1.57013e-16
1.06625e-16
1.5949e-16
4.23963e-17
2.46827e-16
5.48434e-17
2.19724e-16
6.05691e-17
1.66872e-16
3.77631e-17
1.20518e-16
1.70472e-17
8.34128e-17
6.83941e-18
5.57618e-17
1.7784e-18
3.59657e-17
-5.30823e-19
2.22262e-17
-1.70085e-18
1.30375e-17
-1.68793e-18
7.18331e-18
-1.25339e-18
3.6808e-18
-7.71578e-19
1.74451e-18
-4.02025e-19
7.8224e-19
-1.80677e-19
-7.64189e-20
3.96985e-19
3.28331e-38
3.4331e-37
1.51763e-33
6.68974e-33
1.94782e-30
3.10803e-30
4.11303e-28
8.53219e-29
2.93435e-26
-7.24195e-26
9.41935e-25
-3.58039e-24
1.65101e-23
-6.90487e-23
1.79313e-22
-7.42278e-22
1.31913e-21
-5.15415e-21
7.02048e-21
-2.52516e-20
2.83991e-20
-9.27495e-20
9.08418e-20
-2.67424e-19
2.37678e-19
-6.28856e-19
5.22395e-19
-1.24491e-18
9.90364e-19
-2.13465e-18
1.6662e-18
-3.25928e-18
2.5737e-18
-4.57613e-18
3.70615e-18
-5.95497e-18
5.32266e-18
-7.69218e-18
8.10489e-18
-1.05219e-17
1.21497e-17
-1.41923e-17
1.71797e-17
-1.82572e-17
2.31332e-17
-2.23591e-17
3.04667e-17
-2.64984e-17
3.89078e-17
-2.92875e-17
4.80185e-17
-3.03926e-17
5.81301e-17
-3.01248e-17
7.05189e-17
-2.89185e-17
8.19151e-17
-2.34145e-17
1.21865e-16
-1.53638e-17
1.86485e-16
-6.59657e-18
2.43161e-16
1.3937e-17
2.71461e-16
5.06631e-17
1.71367e-15
1.06547e-15
3.17232e-15
8.69557e-16
1.71944e-15
1.95356e-16
3.93879e-16
7.68441e-16
3.33595e-16
1.46308e-16
2.92538e-16
4.7636e-17
2.2852e-16
2.48683e-17
1.66933e-16
1.00308e-17
1.16818e-16
2.25175e-18
7.89984e-17
-1.35308e-18
5.15865e-17
-2.89965e-18
3.22911e-17
-2.99283e-18
1.91663e-17
-2.42526e-18
1.0657e-17
-1.64963e-18
5.49385e-18
-9.41757e-19
2.63687e-18
-4.5495e-19
-1.94537e-19
1.27802e-18
5.5953e-37
4.34947e-36
1.60656e-32
4.85901e-32
1.48669e-29
1.21341e-29
2.55396e-27
-3.23565e-27
1.53643e-25
-5.10914e-25
4.31147e-24
-1.71906e-23
6.77944e-23
-2.75651e-22
6.73079e-22
-2.61844e-21
4.59012e-21
-1.65555e-20
2.2887e-20
-7.52034e-20
8.7494e-20
-2.59301e-19
2.66426e-19
-7.08279e-19
6.67861e-19
-1.58877e-18
1.41677e-18
-3.02025e-18
2.60738e-18
-5.00499e-18
4.26475e-18
-7.41335e-18
6.38002e-18
-1.00985e-17
8.77664e-18
-1.27273e-17
1.18883e-17
-1.58548e-17
1.6922e-17
-2.04766e-17
2.35811e-17
-2.57241e-17
3.1251e-17
-3.14834e-17
3.96758e-17
-3.74265e-17
4.95395e-17
-4.3225e-17
5.92928e-17
-4.56577e-17
6.93124e-17
-4.61849e-17
8.03452e-17
-4.49813e-17
9.21111e-17
-4.17158e-17
9.44596e-17
-3.55585e-17
9.8688e-17
-2.66392e-17
2.70163e-16
-2.33823e-17
2.0524e-16
1.16099e-17
4.86009e-15
1.49685e-16
7.84185e-15
1.43384e-15
7.50455e-15
1.09297e-15
6.92381e-15
6.85924e-16
2.90468e-15
1.07208e-15
2.82746e-16
2.09391e-16
2.75167e-16
3.91289e-17
2.64036e-16
2.25435e-17
2.18422e-16
9.26407e-18
1.71408e-16
1.72256e-18
1.27796e-16
-2.05286e-18
9.10053e-17
-3.7766e-18
6.19784e-17
-4.14915e-18
4.01465e-17
-3.76816e-18
2.44608e-17
-2.90154e-18
1.3833e-17
-1.82728e-18
7.22631e-18
-9.46303e-19
-4.18277e-19
3.61089e-18
7.75235e-36
4.63346e-35
1.31032e-31
2.60365e-31
8.91388e-29
1.55175e-29
1.25563e-26
-3.35877e-26
6.42988e-25
-2.4368e-24
1.59182e-23
-6.42333e-23
2.26253e-22
-8.87933e-22
2.06672e-21
-7.57532e-21
1.31409e-20
-4.40309e-20
6.17186e-20
-1.86688e-19
2.24124e-19
-6.07473e-19
6.52939e-19
-1.57933e-18
1.57544e-18
-3.39496e-18
3.23793e-18
-6.22439e-18
5.81167e-18
-1.00167e-17
9.30736e-18
-1.44858e-17
1.36247e-17
-1.93281e-17
1.8266e-17
-2.41115e-17
2.39257e-17
-2.95572e-17
3.20705e-17
-3.63585e-17
4.12525e-17
-4.299e-17
5.13303e-17
-5.09771e-17
6.23869e-17
-6.08305e-17
7.48439e-17
-7.00987e-17
8.47873e-17
-7.43137e-17
9.6625e-17
-6.90868e-17
1.10359e-16
-6.43366e-17
1.20862e-16
-5.92013e-17
1.23848e-16
-4.87946e-17
1.32619e-16
-3.42679e-17
1.55308e-16
-1.76739e-17
1.94792e-16
2.93074e-18
3.5058e-16
2.66435e-17
7.39473e-15
2.12847e-16
7.30507e-15
1.07258e-15
6.91378e-15
9.62105e-16
3.20266e-16
6.33908e-17
3.99963e-16
4.69637e-17
3.74254e-16
2.9805e-17
3.04007e-16
1.42574e-17
2.58167e-16
4.48774e-18
2.18204e-16
-6.16991e-19
1.76177e-16
-2.838e-18
1.35851e-16
-3.95245e-18
1.00447e-16
-4.54859e-18
7.10254e-17
-4.85847e-18
4.74827e-17
-4.43574e-18
2.94858e-17
-3.08693e-18
1.68304e-17
-1.67366e-18
-7.5523e-19
8.95234e-18
8.2536e-35
3.84192e-34
8.27008e-31
9.33635e-31
4.2327e-28
-6.37124e-28
4.90468e-26
-1.72509e-25
2.16326e-24
-8.73732e-24
4.76635e-23
-1.91639e-22
6.16734e-22
-2.33729e-21
5.21371e-21
-1.81352e-20
3.10632e-20
-9.76959e-20
1.38044e-19
-3.88944e-19
4.78199e-19
-1.20006e-18
1.33858e-18
-2.98202e-18
3.12358e-18
-6.16946e-18
6.25137e-18
-1.09619e-17
1.10129e-17
-1.72353e-17
1.74277e-17
-2.45175e-17
2.5312e-17
-3.24413e-17
3.3997e-17
-4.09538e-17
4.42208e-17
-5.0176e-17
5.65591e-17
-5.95412e-17
6.78256e-17
-6.83855e-17
8.03253e-17
-8.00669e-17
9.64473e-17
-9.71332e-17
1.1337e-16
-1.10641e-16
1.26734e-16
-1.25015e-16
1.36187e-16
-8.02689e-17
1.48813e-16
-7.48436e-17
1.62629e-16
-7.02609e-17
1.60525e-16
-5.78469e-17
1.51724e-16
-4.08907e-17
1.60381e-16
-2.3679e-17
2.13955e-16
-8.14848e-18
3.64273e-16
9.85617e-18
1.75762e-15
5.85767e-17
3.41513e-15
-6.05065e-17
2.29572e-15
1.86123e-17
9.21211e-16
5.44038e-17
5.43106e-16
1.19389e-17
4.03354e-16
4.33632e-18
3.42297e-16
-1.06806e-18
3.00156e-16
-4.41718e-18
2.59773e-16
-5.12428e-18
2.19598e-16
-3.67158e-18
1.81337e-16
-3.1561e-18
1.45428e-16
-3.68164e-18
1.12327e-16
-5.36481e-18
8.23461e-17
-6.44691e-18
5.59291e-17
-4.88387e-18
3.47229e-17
-2.58377e-18
-1.12102e-18
1.98347e-17
6.55698e-34
2.37219e-33
4.03475e-30
1.44386e-30
1.58641e-27
-4.68125e-27
1.52907e-25
-6.17609e-25
5.87741e-24
-2.45809e-23
1.16326e-22
-4.64633e-22
1.38043e-21
-5.08811e-21
1.08648e-20
-3.63025e-20
6.09539e-20
-1.82682e-19
2.57358e-19
-6.87074e-19
8.53489e-19
-2.02026e-18
2.30326e-18
-4.81941e-18
5.2175e-18
-9.63796e-18
1.02155e-17
-1.66751e-17
1.77799e-17
-2.57751e-17
2.80579e-17
-3.62653e-17
4.10994e-17
-4.81842e-17
5.6939e-17
-6.25505e-17
7.54382e-17
-7.74513e-17
9.42709e-17
-8.99172e-17
1.09139e-16
-1.02247e-16
1.24686e-16
-1.20229e-16
1.47979e-16
-1.40048e-16
1.7066e-16
-1.44876e-16
1.98055e-16
-1.80145e-16
2.6624e-16
-1.46878e-16
1.82146e-16
-1.5275e-16
1.85287e-16
-9.35024e-17
1.81936e-16
-6.88681e-17
1.71765e-16
-4.87068e-17
1.67773e-16
-3.26931e-17
1.82817e-16
-1.90836e-17
2.32048e-16
-5.86711e-18
3.48748e-16
2.09575e-17
2.68609e-16
2.99466e-17
2.99254e-16
3.04139e-17
3.67045e-16
1.11926e-17
3.68583e-16
-3.66724e-18
3.56169e-16
-1.14731e-17
3.36442e-16
-1.50907e-17
3.14489e-16
-1.56765e-17
2.91455e-16
-1.13953e-17
2.66148e-16
-4.47434e-18
2.38589e-16
-9.95705e-19
2.07591e-16
-7.2043e-19
1.73652e-16
-4.47916e-18
1.37991e-16
-9.652e-18
1.00844e-16
-7.74509e-18
6.6843e-17
-3.4079e-18
-1.20523e-18
4.05883e-17
3.81955e-33
1.05604e-32
1.51658e-29
-1.84773e-29
4.68548e-27
-1.82499e-26
3.81562e-25
-1.6783e-24
1.29535e-23
-5.56301e-23
2.32719e-22
-9.29264e-22
2.55399e-21
-9.27543e-21
1.88409e-20
-6.15007e-20
1.00079e-19
-2.91492e-19
4.03281e-19
-1.04289e-18
1.28516e-18
-2.94029e-18
3.35405e-18
-6.77184e-18
7.39765e-18
-1.31612e-17
1.42177e-17
-2.22924e-17
2.45683e-17
-3.40741e-17
3.88545e-17
-4.74753e-17
5.82016e-17
-6.40198e-17
8.49659e-17
-8.61578e-17
1.17326e-16
-1.0681e-16
1.48371e-16
-1.19967e-16
1.71772e-16
-1.30582e-16
1.90192e-16
-1.58412e-16
2.11015e-16
-1.50997e-16
2.09529e-16
-1.19526e-16
2.60634e-16
-2.23638e-16
2.47426e-16
-6.57366e-17
2.36672e-16
-1.48421e-16
2.32983e-16
-1.04335e-16
2.11894e-16
-7.91524e-17
1.94619e-16
-6.12401e-17
1.86009e-16
-4.49155e-17
1.87666e-16
-3.12949e-17
1.99296e-16
-1.76327e-17
2.3019e-16
-3.49118e-18
2.59249e-16
6.66982e-18
3.0962e-16
4.41001e-18
3.37293e-16
-5.35348e-18
3.45565e-16
-1.73109e-17
3.51274e-16
-2.6211e-17
3.56575e-16
-3.09891e-17
3.62357e-16
-3.12273e-17
3.61623e-16
-1.90805e-17
3.47923e-16
-2.55927e-18
3.39672e-16
-5.11103e-19
3.1741e-16
4.68926e-18
2.79708e-16
7.30906e-19
2.35154e-16
-1.10935e-17
1.82666e-16
-9.85838e-18
1.27458e-16
-2.0025e-18
7.04499e-20
8.1236e-17
1.60625e-32
3.26936e-32
4.35766e-29
-1.2857e-28
1.08747e-26
-4.99024e-26
7.64443e-25
-3.59945e-24
2.32794e-23
-1.03193e-22
3.84259e-22
-1.55502e-21
3.93785e-21
-1.43461e-20
2.74449e-20
-8.93477e-20
1.38948e-19
-4.02437e-19
5.37403e-19
-1.3807e-18
1.65365e-18
-3.76093e-18
4.19099e-18
-8.42468e-18
9.03121e-18
-1.60272e-17
1.70868e-17
-2.67521e-17
2.93944e-17
-4.065e-17
4.64733e-17
-5.59889e-17
7.16924e-17
-7.75041e-17
1.11066e-16
-1.07298e-16
1.59321e-16
-1.31098e-16
2.06723e-16
-1.37887e-16
2.45365e-16
-1.21565e-16
2.71293e-16
-2.749e-16
4.43105e-16
-2.29306e-16
3.16545e-16
-2.58913e-16
3.09799e-16
-2.97958e-16
1.61311e-16
-2.83394e-16
2.94284e-16
-1.60787e-16
2.63091e-16
-4.53173e-17
2.4932e-16
-7.75183e-17
2.33563e-16
-7.18799e-17
2.2134e-16
-6.06617e-17
2.16552e-16
-4.68375e-17
2.23273e-16
-3.50777e-17
2.45697e-16
-2.50365e-17
2.82647e-16
-1.95288e-17
3.16938e-16
-2.34006e-17
3.51718e-16
-3.05203e-17
3.8336e-16
-4.02944e-17
4.10435e-16
-4.87453e-17
4.33839e-16
-5.23407e-17
4.57535e-16
-5.19741e-17
4.70437e-16
-3.9679e-17
3.22704e-16
-1.25621e-17
4.03903e-16
-7.25432e-18
4.07484e-16
1.42047e-17
3.32651e-16
1.13855e-17
3.02971e-16
2.69168e-17
2.7283e-16
-3.13184e-17
2.18117e-16
3.50192e-18
2.45612e-18
1.56362e-16
4.77602e-32
6.63159e-32
9.49846e-29
-4.02596e-28
1.98385e-26
-1.03557e-25
1.23385e-24
-6.24625e-24
3.43191e-23
-1.59436e-22
5.27788e-22
-2.20715e-21
5.10775e-21
-1.90741e-20
3.3949e-20
-1.12805e-19
1.65151e-19
-4.87506e-19
6.17525e-19
-1.61844e-18
1.84693e-18
-4.29736e-18
4.57299e-18
-9.44657e-18
9.67835e-18
-1.77445e-17
1.80953e-17
-2.94075e-17
3.10349e-17
-4.46077e-17
4.86914e-17
-6.08282e-17
7.76298e-17
-8.70692e-17
1.25813e-16
-1.19978e-16
1.81678e-16
-1.46529e-16
2.32302e-16
-1.38303e-16
2.61001e-16
-2.15653e-16
5.77219e-16
-1.40315e-16
3.8556e-16
-1.55837e-16
3.49538e-16
-4.23857e-16
3.66935e-16
-5.25318e-16
3.8392e-16
-8.09479e-16
2.9444e-16
4.8339e-17
2.35684e-16
-1.0473e-16
2.40834e-16
-9.71914e-17
2.51399e-16
-9.20865e-17
2.48676e-16
-7.93817e-17
2.44662e-16
-6.72385e-17
2.50915e-16
-5.73438e-17
2.85863e-16
-5.03843e-17
3.49058e-16
-5.00295e-17
4.14579e-16
-5.44474e-17
4.64982e-16
-5.9239e-17
4.96159e-16
-6.47389e-17
5.15848e-16
-7.28371e-17
5.30235e-16
-7.65164e-17
5.38808e-16
-7.23666e-17
5.39196e-16
-5.77411e-17
5.40162e-16
-3.95057e-17
5.71399e-16
-2.4776e-17
8.39199e-16
2.12133e-18
3.22818e-15
1.13793e-15
2.7938e-15
5.10192e-17
1.40192e-15
-1.95232e-17
6.0904e-16
1.92448e-17
9.07405e-18
3.29603e-16
9.80971e-32
7.75725e-32
1.55538e-28
-8.50752e-28
2.84008e-26
-1.69528e-25
1.60897e-24
-8.93715e-24
4.17457e-23
-2.08099e-22
6.0789e-22
-2.69109e-21
5.62838e-21
-2.207e-20
3.6069e-20
-1.25318e-19
1.70234e-19
-5.24904e-19
6.20874e-19
-1.70268e-18
1.8202e-18
-4.44988e-18
4.43849e-18
-9.69245e-18
9.29334e-18
-1.81441e-17
1.7262e-17
-3.00838e-17
2.95344e-17
-4.56849e-17
4.5764e-17
-6.22349e-17
7.53927e-17
-8.95425e-17
1.19801e-16
-1.12138e-16
1.72656e-16
-1.29904e-16
3.45368e-16
-2.44893e-16
3.87935e-16
-2.02397e-16
3.51097e-16
-6.66276e-17
8.32645e-16
-3.91357e-16
6.9417e-15
-4.57789e-15
8.27108e-15
-9.56496e-15
4.53951e-15
-9.03116e-15
1.60289e-16
-4.00785e-15
2.53947e-16
-2.03987e-16
2.5742e-16
-1.01345e-16
2.63938e-16
-9.83074e-17
2.54756e-16
-6.0214e-17
2.59861e-16
-8.81863e-17
2.71626e-16
-8.0599e-17
3.054e-16
-7.30546e-17
3.7681e-16
-7.64019e-17
4.53476e-16
-8.17028e-17
5.13871e-16
-8.36764e-17
5.57624e-16
-8.72617e-17
5.8742e-16
-9.92904e-17
6.03693e-16
-1.08207e-16
6.00971e-16
-9.92419e-17
5.86221e-16
-7.97645e-17
5.63808e-16
-6.04798e-17
5.48541e-16
-4.55315e-17
5.62969e-15
-1.22946e-16
1.57138e-14
1.45177e-15
1.47592e-14
8.10109e-16
2.92838e-15
9.24797e-17
7.09286e-16
1.76806e-16
9.90199e-18
3.50247e-16
1.3182e-31
2.64535e-32
1.87571e-28
-1.3433e-27
3.16538e-26
-2.24396e-25
1.6944e-24
-1.07053e-23
4.20701e-23
-2.32299e-22
5.91259e-22
-2.85026e-21
5.31747e-21
-2.24644e-20
3.32748e-20
-1.23831e-19
1.54082e-19
-5.0789e-19
5.53873e-19
-1.62581e-18
1.60757e-18
-4.22315e-18
3.89774e-18
-9.20188e-18
8.14517e-18
-1.73215e-17
1.51298e-17
-2.89495e-17
2.58525e-17
-4.41712e-17
3.99748e-17
-6.07951e-17
6.50651e-17
-7.93187e-17
9.38582e-17
-8.30485e-17
3.7058e-16
-2.33708e-16
2.38555e-16
-2.18134e-16
1.38102e-16
-1.05819e-16
1.43666e-16
-7.77562e-17
7.06338e-15
-1.85019e-15
1.32635e-14
-7.36976e-15
1.29556e-14
-9.37428e-15
1.30533e-14
-9.25304e-15
5.51824e-15
-8.95154e-15
1.94683e-16
-1.47035e-15
2.14708e-16
-1.22722e-16
2.30428e-16
-1.13181e-16
2.38609e-16
-1.6985e-16
2.59027e-16
-1.13326e-16
2.79061e-16
-1.06537e-16