/*--------------------------------*- C++ -*----------------------------------*\
| =========                 |                                                 |
| \\      /  F ield         | OpenFOAM: The Open Source CFD Toolbox           |
|  \\    /   O peration     | Version:  2.4.0                                 |
|   \\  /    A nd           | Web:      www.OpenFOAM.org                      |
|    \\/     M anipulation  |                                                 |
\*---------------------------------------------------------------------------*/
FoamFile
{
    version     2.0;
    format      ascii;
    class       surfaceScalarField;
    location    "0.116";
    object      phi;
}
// * * * * * * * * * * * * * * * * * * * * * * * * * * * * * * * * * * * * * //

dimensions      [0 3 -1 0 0 0 0];

internalField   nonuniform List<scalar> 
119500
(
-1.502e-13
1.502e-13
-3.97909e-13
2.48258e-13
-6.83847e-13
2.86403e-13
-9.76246e-13
2.92869e-13
-1.26641e-12
2.90635e-13
-1.55369e-12
2.87754e-13
-1.83807e-12
2.8483e-13
-2.12016e-12
2.82541e-13
-2.39978e-12
2.80072e-13
-2.67685e-12
2.77523e-13
-2.9512e-12
2.74802e-13
-3.22246e-12
2.71688e-13
-3.48961e-12
2.67548e-13
-3.75086e-12
2.61603e-13
-4.00362e-12
2.53104e-13
-4.24463e-12
2.41337e-13
-4.47024e-12
2.2595e-13
-4.67647e-12
2.06593e-13
-4.85908e-12
1.82995e-13
-5.01322e-12
1.54574e-13
-5.13377e-12
1.21029e-13
-5.21586e-12
8.26252e-14
-5.25416e-12
3.88883e-14
-5.24514e-12
-8.38488e-15
-5.18228e-12
-6.22103e-14
-5.06197e-12
-1.19673e-13
-4.88165e-12
-1.79697e-13
-4.63896e-12
-2.42103e-13
-4.33254e-12
-3.05869e-13
-3.96212e-12
-3.69902e-13
-3.52856e-12
-4.33057e-13
-3.03367e-12
-4.94407e-13
-2.47991e-12
-5.5328e-13
-1.87102e-12
-6.0842e-13
-1.21099e-12
-6.5958e-13
-5.04399e-13
-7.06176e-13
2.43498e-13
-7.47531e-13
1.0266e-12
-7.82795e-13
1.83833e-12
-8.11494e-13
2.67181e-12
-8.33304e-13
3.51983e-12
-8.47886e-13
4.3759e-12
-8.55978e-13
5.23306e-12
-8.5706e-13
6.08451e-12
-8.51345e-13
6.92357e-12
-8.38925e-13
7.74189e-12
-8.18193e-13
8.53464e-12
-7.92663e-13
9.29722e-12
-7.62568e-13
1.00235e-11
-7.2635e-13
1.07088e-11
-6.85522e-13
1.13504e-11
-6.4193e-13
1.19468e-11
-5.9669e-13
1.24974e-11
-5.50948e-13
1.30018e-11
-5.04681e-13
1.34594e-11
-4.57859e-13
1.38721e-11
-4.12893e-13
1.42405e-11
-3.68661e-13
1.45663e-11
-3.25968e-13
1.48506e-11
-2.84442e-13
1.50957e-11
-2.45214e-13
1.53027e-11
-2.0711e-13
1.5473e-11
-1.70302e-13
1.56075e-11
-1.34547e-13
1.57073e-11
-9.99324e-14
1.57725e-11
-6.53064e-14
1.58027e-11
-3.04818e-14
1.57986e-11
3.87942e-15
1.57564e-11
4.18498e-14
1.56753e-11
8.07125e-14
1.55533e-11
1.21562e-13
1.53867e-11
1.66208e-13
1.51725e-11
2.13839e-13
1.49076e-11
2.64432e-13
1.45894e-11
3.17834e-13
1.42134e-11
3.75409e-13
1.3776e-11
4.36963e-13
1.32756e-11
4.9984e-13
1.27112e-11
5.63882e-13
1.20816e-11
6.29129e-13
1.13865e-11
6.94602e-13
1.06268e-11
7.59226e-13
9.80395e-12
8.22357e-13
8.91948e-12
8.83928e-13
7.97623e-12
9.42658e-13
6.97887e-12
9.96747e-13
5.93112e-12
1.04712e-12
4.83629e-12
1.09422e-12
3.69875e-12
1.13698e-12
2.52317e-12
1.17505e-12
1.31602e-12
1.20665e-12
8.36162e-14
1.23195e-12
-1.16647e-12
1.24965e-12
-2.43039e-12
1.26353e-12
-3.70384e-12
1.2731e-12
-4.94631e-12
1.2422e-12
-6.21071e-12
1.26417e-12
-7.40977e-12
1.19887e-12
-8.6303e-12
1.22034e-12
-9.6765e-12
1.046e-12
9.16213e-13
-1.05929e-11
-3.22236e-13
4.72956e-13
-8.54499e-13
7.81482e-13
-1.45348e-12
8.86261e-13
-2.07048e-12
9.10744e-13
-2.68368e-12
9.04707e-13
-3.29082e-12
8.95741e-13
-3.89175e-12
8.86606e-13
-4.48689e-12
8.7851e-13
-5.07628e-12
8.70306e-13
-5.65996e-12
8.62022e-13
-6.2379e-12
8.53534e-13
-6.80973e-12
8.44259e-13
-7.37428e-12
8.32783e-13
-7.92971e-12
8.17692e-13
-8.47353e-12
7.97581e-13
-9.00208e-12
7.70572e-13
-9.51102e-12
7.35607e-13
-9.99547e-12
6.91829e-13
-1.04498e-11
6.38153e-13
-1.08675e-11
5.73249e-13
-1.1242e-11
4.96558e-13
-1.15661e-11
4.07781e-13
-1.18321e-11
3.06016e-13
-1.20316e-11
1.92316e-13
-1.21585e-11
6.582e-14
-1.22043e-11
-7.27809e-14
-1.21641e-11
-2.18915e-13
-1.2032e-11
-3.73138e-13
-1.1804e-11
-5.32991e-13
-1.14776e-11
-6.95346e-13
-1.10513e-11
-8.58541e-13
-1.05248e-11
-1.02004e-12
-9.89868e-12
-1.17853e-12
-9.17471e-12
-1.3316e-12
-8.35559e-12
-1.47798e-12
-7.4448e-12
-1.61633e-12
-6.44728e-12
-1.74453e-12
-5.36963e-12
-1.86004e-12
-4.2196e-12
-1.96121e-12
-3.00556e-12
-2.04712e-12
-1.73675e-12
-2.11652e-12
-4.21775e-13
-2.17077e-12
9.29256e-13
-2.2079e-12
2.3082e-12
-2.23009e-12
3.70432e-12
-2.23487e-12
5.10785e-12
-2.22162e-12
6.50778e-12
-2.19265e-12
7.89723e-12
-2.15223e-12
9.26304e-12
-2.09254e-12
1.06015e-11
-2.02444e-12
1.19022e-11
-1.94323e-12
1.31615e-11
-1.85645e-12
1.43768e-11
-1.7667e-12
1.55432e-11
-1.67154e-12
1.66567e-11
-1.57172e-12
1.7717e-11
-1.47349e-12
1.87217e-11
-1.37374e-12
1.96698e-11
-1.27438e-12
2.05606e-11
-1.17543e-12
2.1394e-11
-1.0788e-12
2.21689e-11
-9.82149e-13
2.28853e-11
-8.86855e-13
2.35426e-11
-7.92016e-13
2.41404e-11
-6.98065e-13
2.46781e-11
-6.03512e-13
2.51552e-11
-5.08133e-13
2.55684e-11
-4.0996e-13
2.59164e-11
-3.06801e-13
2.61959e-11
-1.99453e-13
2.64029e-11
-8.60595e-14
2.65308e-11
3.76216e-14
2.65747e-11
1.69182e-13
2.6528e-11
3.10309e-13
2.63836e-11
4.61428e-13
2.61346e-11
6.23507e-13
2.5775e-11
7.95597e-13
2.52988e-11
9.75191e-13
2.47015e-11
1.16033e-12
2.39798e-11
1.34999e-12
2.31298e-11
1.54372e-12
2.21485e-11
1.73959e-12
2.10341e-11
1.93579e-12
1.97845e-11
2.13246e-12
1.83978e-11
2.32826e-12
1.68748e-11
2.51877e-12
1.52173e-11
2.70352e-12
1.34265e-11
2.88412e-12
1.15053e-11
3.05729e-12
9.45924e-12
3.22026e-12
7.29352e-12
3.37162e-12
5.01607e-12
3.5087e-12
2.63648e-12
3.62863e-12
1.72862e-13
3.72662e-12
-2.3664e-12
3.81193e-12
-4.95981e-12
3.83524e-12
-7.59047e-12
3.89448e-12
-1.02094e-11
3.81745e-12
-1.27815e-11
3.79203e-12
-1.50103e-11
3.27453e-12
2.34277e-12
-1.64371e-11
-3.95888e-13
8.6931e-13
-1.05045e-12
1.43695e-12
-1.78887e-12
1.62551e-12
-2.54909e-12
1.67179e-12
-3.30803e-12
1.66446e-12
-4.06002e-12
1.64853e-12
-4.80525e-12
1.63262e-12
-5.54401e-12
1.61807e-12
-6.27658e-12
1.60367e-12
-7.00297e-12
1.58921e-12
-7.72316e-12
1.57449e-12
-8.43686e-12
1.5587e-12
-9.14306e-12
1.5397e-12
-9.84006e-12
1.5154e-12
-1.05255e-11
1.48372e-12
-1.11958e-11
1.44167e-12
-1.18467e-11
1.3873e-12
-1.24733e-11
1.31915e-12
-1.30693e-11
1.23501e-12
-1.36283e-11
1.13317e-12
-1.41435e-11
1.01265e-12
-1.46067e-11
8.71991e-13
-1.50103e-11
7.10517e-13
-1.53455e-11
5.28483e-13
-1.56046e-11
3.25918e-13
-1.57808e-11
1.04257e-13
-1.58663e-11
-1.32569e-13
-1.58553e-11
-3.83274e-13
-1.57435e-11
-6.44015e-13
-1.55269e-11
-9.11105e-13
-1.52034e-11
-1.18137e-12
-1.47716e-11
-1.4511e-12
-1.42313e-11
-1.71807e-12
-1.35833e-11
-1.9789e-12
-1.28293e-11
-2.23148e-12
-1.1972e-11
-2.47311e-12
-1.10159e-11
-2.70027e-12
-9.96624e-12
-2.90935e-12
-8.83047e-12
-3.09677e-12
-7.61599e-12
-3.26144e-12
-6.33154e-12
-3.40084e-12
-4.98531e-12
-3.51689e-12
-3.58605e-12
-3.60705e-12
-2.14515e-12
-3.67088e-12
-6.70221e-13
-3.70971e-12
8.25232e-13
-3.71704e-12
2.33529e-12
-3.70276e-12
3.84784e-12
-3.66495e-12
5.35575e-12
-3.60071e-12
6.84447e-12
-3.51347e-12
8.31572e-12
-3.4148e-12
9.75716e-12
-3.2982e-12
1.11651e-11
-3.17492e-12
1.25362e-11
-3.04293e-12
1.38653e-11
-2.9011e-12
1.51499e-11
-2.75839e-12
1.6387e-11
-2.6112e-12
1.75749e-11
-2.46257e-12
1.8711e-11
-2.31184e-12
1.97952e-11
-2.1632e-12
2.08249e-11
-2.01209e-12
2.1799e-11
-1.86126e-12
2.27159e-11
-1.70922e-12
2.35733e-11
-1.55578e-12
2.43716e-11
-1.40218e-12
2.51064e-11
-1.24338e-12
2.57748e-11
-1.07881e-12
2.63726e-11
-9.05059e-13
2.68968e-11
-7.24156e-13
2.734e-11
-5.29688e-13
2.7697e-11
-3.19842e-13
2.79585e-11
-9.28933e-14
2.81169e-11
1.51413e-13
2.81619e-11
4.158e-13
2.8086e-11
6.98725e-13
2.78819e-11
9.99065e-13
2.75411e-11
1.31529e-12
2.70559e-11
1.64492e-12
2.64205e-11
1.98467e-12
2.56288e-11
2.33474e-12
2.46748e-11
2.69286e-12
2.35532e-11
3.0566e-12
2.22607e-11
3.42422e-12
2.0792e-11
3.79614e-12
1.91433e-11
4.16676e-12
1.73129e-11
4.53318e-12
1.53012e-11
4.89526e-12
1.31091e-11
5.2488e-12
1.07401e-11
5.58875e-12
8.19921e-12
5.91212e-12
5.49368e-12
6.21386e-12
2.63253e-12
6.48946e-12
-3.64106e-13
6.72296e-12
-3.48654e-12
6.93408e-12
-6.71441e-12
7.06281e-12
-1.00168e-11
7.19653e-12
-1.33462e-11
7.14648e-12
-1.66038e-11
7.04934e-12
-1.94148e-11
6.08519e-12
4.06952e-12
-2.11418e-11
-4.33357e-13
1.30314e-12
-1.13059e-12
2.13514e-12
-1.92073e-12
2.41653e-12
-2.73544e-12
2.48737e-12
-3.55067e-12
2.48054e-12
-4.35973e-12
2.45842e-12
-5.1624e-12
2.43613e-12
-5.95884e-12
2.41535e-12
-6.74942e-12
2.39511e-12
-7.53432e-12
2.37496e-12
-8.31353e-12
2.35455e-12
-9.08678e-12
2.33279e-12
-9.85321e-12
2.30697e-12
-1.06111e-11
2.27417e-12
-1.1358e-11
2.23147e-12
-1.20905e-11
2.17503e-12
-1.28044e-11
2.10214e-12
-1.34948e-11
2.01036e-12
-1.41553e-11
1.8965e-12
-1.47798e-11
1.75848e-12
-1.53607e-11
1.59451e-12
-1.589e-11
1.4022e-12
-1.63598e-11
1.18118e-12
-1.67617e-11
9.31232e-13
-1.70875e-11
6.52454e-13
-1.73302e-11
3.47793e-13
-1.74823e-11
2.03087e-14
-1.7538e-11
-3.26892e-13
-1.74925e-11
-6.88747e-13
-1.73415e-11
-1.06139e-12
-1.70825e-11
-1.43965e-12
-1.67137e-11
-1.81928e-12
-1.62346e-11
-2.19653e-12
-1.5646e-11
-2.56698e-12
-1.49493e-11
-2.92774e-12
-1.41476e-11
-3.27445e-12
-1.32449e-11
-3.60263e-12
-1.22469e-11
-3.9071e-12
-1.11591e-11
-4.1845e-12
-9.98983e-12
-4.43061e-12
-8.74554e-12
-4.64508e-12
-7.43566e-12
-4.82673e-12
-6.06868e-12
-4.97399e-12
-4.65311e-12
-5.08641e-12
-3.20089e-12
-5.1619e-12
-1.71971e-12
-5.19823e-12
-2.21802e-13
-5.20073e-12
1.2832e-12
-5.17005e-12
2.78863e-12
-5.10627e-12
4.28981e-12
-5.0148e-12
5.77095e-12
-4.89611e-12
7.23446e-12
-4.76188e-12
8.66828e-12
-4.60893e-12
1.00706e-11
-4.44545e-12
1.14355e-11
-4.26634e-12
1.27617e-11
-4.08496e-12
1.4045e-11
-3.89484e-12
1.52838e-11
-3.70173e-12
1.64779e-11
-3.50632e-12
1.76243e-11
-3.30997e-12
1.87214e-11
-3.10956e-12
1.97685e-11
-2.90867e-12
2.07638e-11
-2.70494e-12
2.17056e-11
-2.49786e-12
2.25906e-11
-2.28755e-12
2.34165e-11
-2.06963e-12
2.41785e-11
-1.8411e-12
2.48721e-11
-1.59895e-12
2.54913e-11
-1.34372e-12
2.603e-11
-1.06866e-12
2.64807e-11
-7.70883e-13
2.68344e-11
-4.46955e-13
2.70823e-11
-9.68002e-14
2.72146e-11
2.83021e-13
2.72219e-11
6.91002e-13
2.70945e-11
1.12593e-12
2.68233e-11
1.58601e-12
2.63996e-11
2.06803e-12
2.5814e-11
2.56969e-12
2.50585e-11
3.08967e-12
2.41265e-11
3.62428e-12
2.30102e-11
4.17239e-12
2.17038e-11
4.73008e-12
2.02033e-11
5.29619e-12
1.85036e-11
5.86606e-12
1.66004e-11
6.43602e-12
1.4492e-11
7.00331e-12
1.21781e-11
7.56241e-12
9.65995e-12
8.10677e-12
6.94279e-12
8.62915e-12
4.03355e-12
9.12299e-12
9.39597e-13
9.58329e-12
-2.31574e-12
9.97813e-12
-5.72549e-12
1.03436e-11
-9.26119e-12
1.05982e-11
-1.28949e-11
1.08299e-11
-1.65707e-11
1.08219e-11
-2.01671e-11
1.06454e-11
-2.33389e-11
9.2567e-12
6.10586e-12
-2.53755e-11
-4.52514e-13
1.75617e-12
-1.1684e-12
2.85206e-12
-1.97367e-12
3.22275e-12
-2.80586e-12
3.3205e-12
-3.64004e-12
3.31564e-12
-4.46902e-12
3.28832e-12
-5.29206e-12
3.26008e-12
-6.10924e-12
3.23347e-12
-6.92099e-12
3.2078e-12
-7.72765e-12
3.18258e-12
-8.52929e-12
3.15715e-12
-9.32562e-12
3.13009e-12
-1.01159e-11
3.09818e-12
-1.08984e-11
3.05768e-12
-1.16706e-11
3.00473e-12
-1.24294e-11
2.93484e-12
-1.31707e-11
2.84441e-12
-1.38893e-11
2.72994e-12
-1.45792e-11
2.58741e-12
-1.52337e-11
2.41382e-12
-1.58451e-11
2.20678e-12
-1.64054e-11
1.96335e-12
-1.69061e-11
1.68269e-12
-1.73391e-11
1.36496e-12
-1.76964e-11
1.01042e-12
-1.79702e-11
6.22301e-13
-1.81538e-11
2.04635e-13
-1.8241e-11
-2.38998e-13
-1.82266e-11
-7.02479e-13
-1.81068e-11
-1.18055e-12
-1.78777e-11
-1.66806e-12
-1.75384e-11
-2.15796e-12
-1.70875e-11
-2.64698e-12
-1.65261e-11
-3.12794e-12
-1.58557e-11
-3.5979e-12
-1.508e-11
-4.04988e-12
-1.42024e-11
-4.48002e-12
-1.32296e-11
-4.87981e-12
-1.21659e-11
-5.24815e-12
-1.10195e-11
-5.57699e-12
-9.79744e-12
-5.86709e-12
-8.50756e-12
-6.11661e-12
-7.16008e-12
-6.3215e-12
-5.76321e-12
-6.48331e-12
-4.32713e-12
-6.59802e-12
-2.8611e-12
-6.66431e-12
-1.37598e-12
-6.68589e-12
1.1831e-13
-6.66438e-12
1.61692e-12
-6.60493e-12
3.10781e-12
-6.50574e-12
4.58819e-12
-6.37654e-12
6.04585e-12
-6.21964e-12
7.47888e-12
-6.04213e-12
8.8778e-12
-5.84461e-12
1.02459e-11
-5.63473e-12
1.15739e-11
-5.41333e-12
1.28597e-11
-5.18113e-12
1.41043e-11
-4.94682e-12
1.53032e-11
-4.70564e-12
1.6456e-11
-4.46327e-12
1.75652e-11
-4.21918e-12
1.86266e-11
-3.97054e-12
1.96397e-11
-3.71843e-12
2.06026e-11
-3.46109e-12
2.1512e-11
-3.19717e-12
2.23642e-11
-2.92205e-12
2.31543e-11
-2.63145e-12
2.38796e-11
-2.32443e-12
2.45312e-11
-1.99556e-12
2.51024e-11
-1.64001e-12
2.5585e-11
-1.25372e-12
2.59718e-11
-8.33962e-13
2.62516e-11
-3.76884e-13
2.64163e-11
1.18037e-13
2.64547e-11
6.52241e-13
2.63568e-11
1.22343e-12
2.61126e-11
1.82985e-12
2.57115e-11
2.46874e-12
2.51441e-11
3.13664e-12
2.44016e-11
3.83173e-12
2.34746e-11
4.55095e-12
2.23562e-11
5.29059e-12
2.10388e-11
6.04724e-12
1.95174e-11
6.81733e-12
1.77875e-11
7.5959e-12
1.58442e-11
8.37919e-12
1.36852e-11
9.16225e-12
1.13096e-11
9.938e-12
8.71877e-12
1.06976e-11
5.91585e-12
1.14321e-11
2.90697e-12
1.21319e-11
-2.94395e-13
1.27846e-11
-3.69182e-12
1.33754e-11
-7.24468e-12
1.38962e-11
-1.09406e-11
1.42939e-11
-1.47403e-11
1.46293e-11
-1.85874e-11
1.46687e-11
-2.2336e-11
1.43937e-11
-2.56418e-11
1.25623e-11
8.092e-12
-2.76283e-11
-4.6275e-13
2.21949e-12
-1.18838e-12
3.57881e-12
-1.9993e-12
4.0347e-12
-2.83565e-12
4.15788e-12
-3.67486e-12
4.15586e-12
-4.50986e-12
4.12431e-12
-5.33927e-12
4.0905e-12
-6.16307e-12
4.05829e-12
-6.98176e-12
4.02752e-12
-7.79589e-12
3.99774e-12
-8.60565e-12
3.96795e-12
-9.41085e-12
3.93634e-12
-1.02108e-11
3.89919e-12
-1.10039e-11
3.85185e-12
-1.17876e-11
3.78953e-12
-1.2559e-11
3.70732e-12
-1.33141e-11
3.60056e-12
-1.40475e-11
3.46438e-12
-1.47534e-11
3.29419e-12
-1.54246e-11
3.08587e-12
-1.60529e-11
2.83593e-12
-1.66305e-11
2.54174e-12
-1.71488e-11
2.20161e-12
-1.75989e-11
1.8157e-12
-1.79733e-11
1.38548e-12
-1.82638e-11
9.13483e-13
-1.84635e-11
4.04976e-13
-1.85666e-11
-1.35345e-13
-1.85668e-11
-7.01563e-13
-1.84609e-11
-1.28591e-12
-1.82448e-11
-1.88365e-12
-1.79168e-11
-2.48546e-12
-1.74762e-11
-3.08725e-12
-1.69235e-11
-3.68034e-12
-1.62608e-11
-4.26045e-12
-1.54917e-11
-4.81892e-12
-1.46205e-11
-5.35112e-12
-1.36522e-11
-5.848e-12
-1.25936e-11
-6.30674e-12
-1.14507e-11
-6.7199e-12
-1.02313e-11
-7.08658e-12
-8.94417e-12
-7.40375e-12
-7.59777e-12
-7.66798e-12
-6.20177e-12
-7.87942e-12
-4.76673e-12
-8.03317e-12
-3.30034e-12
-8.1308e-12
-1.81318e-12
-8.17313e-12
-3.15246e-13
-8.16236e-12
1.18357e-12
-8.10375e-12
2.68142e-12
-8.00361e-12
4.16323e-12
-7.8584e-12
5.62421e-12
-7.68073e-12
7.05865e-12
-7.47677e-12
8.4633e-12
-7.24956e-12
9.82912e-12
-7.00094e-12
1.11583e-11
-6.74295e-12
1.2445e-11
-6.46829e-12
1.36886e-11
-6.19095e-12
1.48893e-11
-5.90683e-12
1.60448e-11
-5.61935e-12
1.7155e-11
-5.32989e-12
1.82205e-11
-5.03648e-12
1.92395e-11
-4.73782e-12
2.02102e-11
-4.4321e-12
2.11294e-11
-4.11654e-12
2.19933e-11
-3.78617e-12
2.27973e-11
-3.43561e-12
2.3536e-11
-3.06319e-12
2.42025e-11
-2.66227e-12
2.479e-11
-2.22769e-12
2.52893e-11
-1.75326e-12
2.56926e-11
-1.23741e-12
2.59896e-11
-6.74091e-13
2.61703e-11
-6.28337e-14
2.6225e-11
5.97264e-13
2.61428e-11
1.30539e-12
2.59127e-11
2.05962e-12
2.55246e-11
2.85658e-12
2.49674e-11
3.69362e-12
2.42319e-11
4.56704e-12
2.33088e-11
5.47396e-12
2.21897e-11
6.40966e-12
2.08675e-11
7.3695e-12
1.93371e-11
8.34773e-12
1.75924e-11
9.34065e-12
1.56292e-11
1.03425e-11
1.34451e-11
1.13465e-11
1.10388e-11
1.23444e-11
8.41126e-12
1.33253e-11
5.56479e-12
1.42787e-11
2.50448e-12
1.51922e-11
-7.62072e-13
1.60511e-11
-4.22027e-12
1.68335e-11
-7.85299e-12
1.75287e-11
-1.16343e-11
1.8075e-11
-1.55254e-11
1.85202e-11
-1.94671e-11
1.86102e-11
-2.32985e-11
1.8225e-11
-2.66557e-11
1.59193e-11
1.00801e-11
-2.86442e-11
-4.68735e-13
2.68884e-12
-1.20095e-12
4.31222e-12
-2.01518e-12
4.85002e-12
-2.85216e-12
4.99594e-12
-3.69222e-12
4.99698e-12
-4.52864e-12
4.9618e-12
-5.35972e-12
4.92265e-12
-6.18535e-12
4.885e-12
-7.00609e-12
4.84934e-12
-7.82272e-12
4.81544e-12
-8.63562e-12
4.78192e-12
-9.44468e-12
4.74646e-12
-1.02493e-11
4.70493e-12
-1.10482e-11
4.65181e-12
-1.18389e-11
4.58128e-12
-1.26185e-11
4.48805e-12
-1.33836e-11
4.36658e-12
-1.41282e-11
4.20992e-12
-1.4846e-11
4.01289e-12
-1.55302e-11
3.77086e-12
-1.61721e-11
3.47852e-12
-1.67632e-11
3.13357e-12
-1.72953e-11
2.73431e-12
-1.7759e-11
2.27997e-12
-1.81463e-11
1.77338e-12
-1.84493e-11
1.21707e-12
-1.86603e-11
6.16498e-13
-1.87733e-11
-2.17653e-14
-1.87825e-11
-6.91768e-13
-1.86834e-11
-1.38454e-12
-1.84733e-11
-2.09342e-12
-1.8149e-11
-2.8094e-12
-1.77108e-11
-3.52533e-12
-1.71585e-11
-4.23259e-12
-1.64951e-11
-4.92377e-12
-1.5723e-11
-5.59099e-12
-1.48486e-11
-6.22555e-12
-1.38754e-11
-6.82127e-12
-1.28106e-11
-7.37151e-12
-1.16613e-11
-7.8692e-12
-1.04343e-11
-8.3136e-12
-9.13882e-12
-8.69929e-12
-7.78471e-12
-9.02223e-12
-6.38009e-12
-9.28421e-12
-4.93492e-12
-9.47853e-12
-3.45867e-12
-9.60722e-12
-1.96084e-12
-9.67109e-12
-4.51285e-13
-9.67201e-12
1.06028e-12
-9.61538e-12
2.56501e-12
-9.50842e-12
4.05431e-12
-9.34782e-12
5.52436e-12
-9.15099e-12
6.96573e-12
-8.91845e-12
8.37327e-12
-8.65749e-12
9.74559e-12
-8.37371e-12
1.10761e-11
-8.07397e-12
1.23675e-11
-7.76016e-12
1.36141e-11
-7.43809e-12
1.4817e-11
-7.11022e-12
1.59759e-11
-6.7788e-12
1.70892e-11
-6.44369e-12
1.8159e-11
-6.1067e-12
1.91828e-11
-5.76199e-12
2.01593e-11
-5.40887e-12
2.10854e-11
-5.04289e-12
2.19575e-11
-4.65845e-12
2.27721e-11
-4.25029e-12
2.35223e-11
-3.81362e-12
2.42018e-11
-3.34201e-12
2.48026e-11
-2.82866e-12
2.53169e-11
-2.26787e-12
2.57349e-11
-1.65555e-12
2.60467e-11
-9.86089e-13
2.62429e-11
-2.59278e-13
2.63126e-11
5.27442e-13
2.62449e-11
1.37298e-12
2.60284e-11
2.27594e-12
2.56527e-11
3.23224e-12
2.51063e-11
4.23993e-12
2.438e-11
5.29341e-12
2.34638e-11
6.39017e-12
2.23495e-11
7.52413e-12
2.10301e-11
8.689e-12
1.94989e-11
9.87908e-12
1.77501e-11
1.10897e-11
1.57793e-11
1.23134e-11
1.35835e-11
1.35424e-11
1.11613e-11
1.47667e-11
8.51342e-12
1.59732e-11
5.64259e-12
1.71495e-11
2.55342e-12
1.82813e-11
-7.44849e-13
1.93492e-11
-4.24911e-12
2.03375e-11
-7.93181e-12
2.12113e-11
-1.17713e-11
2.19143e-11
-1.57288e-11
2.24775e-11
-1.97432e-11
2.26246e-11
-2.36488e-11
2.21305e-11
-2.70633e-11
1.93337e-11
1.21125e-11
-2.9096e-11
-4.7308e-13
3.16259e-12
-1.21033e-12
5.0507e-12
-2.0273e-12
5.66812e-12
-2.86467e-12
5.83442e-12
-3.70482e-12
5.83823e-12
-4.5414e-12
5.79948e-12
-5.37261e-12
5.75496e-12
-6.19852e-12
5.71199e-12
-7.01966e-12
5.67153e-12
-7.83698e-12
5.63379e-12
-8.6513e-12
5.59725e-12
-9.46264e-12
5.55881e-12
-1.02705e-11
5.51377e-12
-1.10739e-11
5.45623e-12
-1.18708e-11
5.37921e-12
-1.26583e-11
5.27654e-12
-1.34328e-11
5.14194e-12
-1.41885e-11
4.96648e-12
-1.49185e-11
4.74358e-12
-1.56155e-11
4.46861e-12
-1.62713e-11
4.13491e-12
-1.68765e-11
3.73939e-12
-1.74225e-11
3.28087e-12
-1.79002e-11
2.75826e-12
-1.83006e-11
2.17429e-12
-1.86157e-11
1.53262e-12
-1.88376e-11
8.38956e-13
-1.89594e-11
1.00484e-13
-1.89762e-11
-6.74543e-13
-1.88822e-11
-1.47819e-12
-1.86752e-11
-2.30021e-12
-1.83521e-11
-3.13241e-12
-1.79128e-11
-3.96463e-12
-1.73574e-11
-4.78806e-12
-1.66892e-11
-5.59209e-12
-1.59107e-11
-6.36953e-12
-1.50275e-11
-7.10888e-12
-1.40447e-11
-7.8041e-12
-1.29687e-11
-8.44744e-12
-1.18065e-11
-9.03142e-12
-1.05667e-11
-9.55343e-12
-9.25715e-12
-1.00089e-11
-7.88751e-12
-1.0392e-11
-6.46773e-12
-1.07042e-11
-5.00741e-12
-1.09391e-11
-3.51676e-12
-1.10981e-11
-2.00524e-12
-1.11828e-11
-4.82787e-13
-1.11947e-11
1.04145e-12
-1.11398e-11
2.55526e-12
-1.10224e-11
4.06057e-12
-1.08534e-11
5.53959e-12
-1.06304e-11
6.98881e-12
-1.03681e-11
8.40327e-12
-1.00724e-11
9.78099e-12
-9.75194e-12
1.11155e-11
-9.40895e-12
1.24107e-11
-9.05595e-12
1.36589e-11
-8.68672e-12
1.48658e-11
-8.31762e-12
1.6026e-11
-7.93958e-12
1.71442e-11
-7.56231e-12
1.8217e-11
-7.17988e-12
1.92446e-11
-6.79e-12
2.02263e-11
-6.39087e-12
2.11602e-11
-5.97696e-12
2.20412e-11
-5.53976e-12
2.28651e-11
-5.07437e-12
2.36267e-11
-4.57556e-12
2.43189e-11
-4.0345e-12
2.49354e-11
-3.44546e-12
2.54648e-11
-2.79761e-12
2.58994e-11
-2.09046e-12
2.62283e-11
-1.31525e-12
2.64411e-11
-4.72188e-13
2.65272e-11
4.41269e-13
2.64753e-11
1.42482e-12
2.62742e-11
2.47703e-12
2.59124e-11
3.59402e-12
2.53792e-11
4.77329e-12
2.46639e-11
6.00873e-12
2.37576e-11
7.29668e-12
2.26515e-11
8.63034e-12
2.13386e-11
1.00021e-11
1.98113e-11
1.14065e-11
1.80639e-11
1.28371e-11
1.60922e-11
1.42852e-11
1.38927e-11
1.57419e-11
1.14634e-11
1.71958e-11
8.8041e-12
1.86323e-11
5.9166e-12
2.00368e-11
2.8054e-12
2.13923e-11
-5.23655e-13
2.26781e-11
-4.05873e-12
2.38725e-11
-7.78269e-12
2.49351e-11
-1.16745e-11
2.58061e-11
-1.5694e-11
2.64971e-11
-1.97821e-11
2.67127e-11
-2.37745e-11
2.61229e-11
-2.72664e-11
2.28255e-11
1.41985e-11
-2.93526e-11
-4.76878e-13
3.64015e-12
-1.21818e-12
5.79323e-12
-2.03786e-12
6.48891e-12
-2.87626e-12
6.67393e-12
-3.71677e-12
6.67984e-12
-4.55337e-12
6.63718e-12
-5.38427e-12
6.58694e-12
-6.2098e-12
6.53856e-12
-7.03068e-12
6.49341e-12
-7.84795e-12
6.452e-12
-8.66287e-12
6.41308e-12
-9.47601e-12
6.37284e-12
-1.02869e-11
6.32552e-12
-1.10948e-11
6.26503e-12
-1.18984e-11
6.18369e-12
-1.26947e-11
6.07369e-12
-1.34795e-11
5.92744e-12
-1.42472e-11
5.73491e-12
-1.49909e-11
5.48786e-12
-1.57023e-11
5.18065e-12
-1.63733e-11
4.8065e-12
-1.69946e-11
4.36123e-12
-1.75563e-11
3.84306e-12
-1.80496e-11
3.25206e-12
-1.84649e-11
2.59003e-12
-1.87932e-11
1.86132e-12
-1.90272e-11
1.07336e-12
-1.91589e-11
2.32563e-13
-1.91832e-11
-6.50022e-13
-1.90947e-11
-1.56653e-12
-1.889e-11
-2.50486e-12
-1.8567e-11
-3.4554e-12
-1.81251e-11
-4.40667e-12
-1.75653e-11
-5.34799e-12
-1.68898e-11
-6.26782e-12
-1.61028e-11
-7.1566e-12
-1.52087e-11
-8.00309e-12
-1.42129e-11
-8.79994e-12
-1.31227e-11
-9.53756e-12
-1.19448e-11
-1.02093e-11
-1.06876e-11
-1.08106e-11
-9.36093e-12
-1.13357e-11
-7.97393e-12
-1.17793e-11
-6.53609e-12
-1.21424e-11
-5.05788e-12
-1.24177e-11
-3.54927e-12
-1.26071e-11
-2.02067e-12
-1.27118e-11
-4.81854e-13
-1.27338e-11
1.05794e-12
-1.268e-11
2.58851e-12
-1.25534e-11
4.10313e-12
-1.23685e-11
5.59324e-12
-1.2121e-11
7.05171e-12
-1.18271e-11
8.47217e-12
-1.14935e-11
9.85698e-12
-1.11373e-11
1.11976e-11
-1.07501e-11
1.24941e-11
-1.0353e-11
1.3746e-11
-9.93907e-12
1.49528e-11
-9.52489e-12
1.61154e-11
-9.10269e-12
1.72347e-11
-8.682e-12
1.83099e-11
-8.25549e-12
1.93415e-11
-7.82203e-12
2.03291e-11
-7.37878e-12
2.12688e-11
-6.917e-12
2.21581e-11
-6.42943e-12
2.29932e-11
-5.90977e-12
2.37684e-11
-5.35114e-12
2.4476e-11
-4.74257e-12
2.51068e-11
-4.07669e-12
2.56542e-11
-3.34536e-12
2.61057e-11
-2.54232e-12
2.64536e-11
-1.66347e-12
2.66854e-11
-7.0417e-13
2.67898e-11
3.36859e-13
2.67563e-11
1.45832e-12
2.65723e-11
2.66101e-12
2.62269e-11
3.93951e-12
2.57086e-11
5.2917e-12
2.50069e-11
6.71054e-12
2.41123e-11
8.19127e-12
2.30166e-11
9.7262e-12
2.17115e-11
1.13073e-11
2.01906e-11
1.29275e-11
1.84476e-11
1.45801e-11
1.64774e-11
1.62552e-11
1.42766e-11
1.79425e-11
1.18436e-11
1.96286e-11
9.17656e-12
2.1299e-11
6.27637e-12
2.29366e-11
3.14629e-12
2.4522e-11
-2.06859e-13
2.6031e-11
-3.77638e-12
2.74419e-11
-7.54375e-12
2.87025e-11
-1.14922e-11
2.97547e-11
-1.55811e-11
3.05861e-11
-1.97545e-11
3.08861e-11
-2.38498e-11
3.02183e-11
-2.74383e-11
2.64139e-11
1.63227e-11
-2.95627e-11
-4.80482e-13
4.12132e-12
-1.22522e-12
6.53915e-12
-2.0478e-12
7.31257e-12
-2.88813e-12
7.51532e-12
-3.72946e-12
7.52223e-12
-4.56623e-12
7.47499e-12
-5.39666e-12
7.41838e-12
-6.2213e-12
7.36415e-12
-7.04138e-12
7.31438e-12
-7.85826e-12
7.26971e-12
-8.67341e-12
7.22902e-12
-9.48803e-12
7.18822e-12
-1.03021e-11
7.14039e-12
-1.11151e-11
7.07879e-12
-1.1926e-11
6.99528e-12
-1.27322e-11
6.88055e-12
-1.35288e-11
6.72465e-12
-1.43099e-11
6.51656e-12
-1.50689e-11
6.24745e-12
-1.57971e-11
5.9094e-12
-1.64854e-11
5.4953e-12
-1.71248e-11
5.00116e-12
-1.77048e-11
4.42348e-12
-1.82156e-11
3.76326e-12
-1.86477e-11
3.0225e-12
-1.89914e-11
2.2054e-12
-1.92386e-11
1.32084e-12
-1.93821e-11
3.76247e-13
-1.94146e-11
-6.17348e-13
-1.93321e-11
-1.64903e-12
-1.91301e-11
-2.70698e-12
-1.8807e-11
-3.7786e-12
-1.83619e-11
-4.85195e-12
-1.77968e-11
-5.9133e-12
-1.71134e-11
-6.95143e-12
-1.63159e-11
-7.95417e-12
-1.54096e-11
-8.9095e-12
-1.43994e-11
-9.8101e-12
-1.32925e-11
-1.06445e-11
-1.2097e-11
-1.14048e-11
-1.08213e-11
-1.20864e-11
-9.47539e-12
-1.26819e-11
-8.06778e-12
-1.31872e-11
-6.60915e-12
-1.36014e-11
-5.10978e-12
-1.39175e-11
-3.58029e-12
-1.41371e-11
-2.0315e-12
-1.42611e-11
-4.73297e-13
-1.42925e-11
1.08456e-12
-1.42383e-11
2.63198e-12
-1.41014e-11
4.15695e-12
-1.3894e-11
5.6611e-12
-1.36258e-11
7.1303e-12
-1.3297e-11
8.56118e-12
-1.2925e-11
9.94951e-12
-1.25262e-11
1.1294e-11
-1.20951e-11
1.25925e-11
-1.1652e-11
1.38463e-11
-1.11933e-11
1.50534e-11
-1.07325e-11
1.62175e-11
-1.02673e-11
1.73375e-11
-9.80246e-12
1.84138e-11
-9.33229e-12
1.94497e-11
-8.85839e-12
2.04414e-11
-8.37083e-12
2.13868e-11
-7.86283e-12
2.22839e-11
-7.32696e-12
2.31304e-11
-6.75672e-12
2.39192e-11
-6.14044e-12
2.46433e-11
-5.46714e-12
2.52932e-11
-4.72709e-12
2.58595e-11
-3.91206e-12
2.63324e-11
-3.01565e-12
2.67007e-11
-2.03213e-12
2.69535e-11
-9.5716e-13
2.70801e-11
2.10226e-13
2.70668e-11
1.47153e-12
2.69027e-11
2.82513e-12
2.65759e-11
4.26624e-12
2.60751e-11
5.79252e-12
2.53892e-11
7.3963e-12
2.4509e-11
9.07143e-12
2.34256e-11
1.08095e-11
2.21309e-11
1.26019e-11
2.06177e-11
1.44405e-11
1.88802e-11
1.63174e-11
1.69128e-11
1.82224e-11
1.47119e-11
2.01429e-11
1.22753e-11
2.20647e-11
9.60062e-12
2.39732e-11
6.68751e-12
2.58493e-11
3.53738e-12
2.76719e-11
1.54538e-13
2.94137e-11
-3.44994e-12
3.10463e-11
-7.2653e-12
3.2518e-11
-1.12769e-11
3.37664e-11
-1.54466e-11
3.47559e-11
-1.97209e-11
3.51604e-11
-2.39407e-11
3.44381e-11
-2.76505e-11
3.01236e-11
1.85074e-11
-2.98353e-11
-4.8405e-13
4.60602e-12
-1.23203e-12
7.28823e-12
-2.0578e-12
8.13935e-12
-2.90095e-12
8.35946e-12
-3.74355e-12
8.36581e-12
-4.58049e-12
8.3129e-12
-5.41029e-12
8.24909e-12
-6.23366e-12
8.18837e-12
-7.05238e-12
8.13387e-12
-7.86853e-12
8.08656e-12
-8.68376e-12
8.04493e-12
-9.49961e-12
8.00474e-12
-1.0317e-11
7.95842e-12
-1.11358e-11
7.89827e-12
-1.19549e-11
7.81494e-12
-1.27717e-11
7.698e-12
-1.35817e-11
7.53517e-12
-1.43781e-11
7.31349e-12
-1.51542e-11
7.02407e-12
-1.59015e-11
6.65718e-12
-1.66098e-11
6.20406e-12
-1.72695e-11
5.66131e-12
-1.78702e-11
5.02465e-12
-1.84011e-11
4.29449e-12
-1.88518e-11
3.47353e-12
-1.92133e-11
2.56711e-12
-1.94754e-11
1.5832e-12
-1.96317e-11
5.32617e-13
-1.96742e-11
-5.74859e-13
-1.95981e-11
-1.7252e-12
-1.93994e-11
-2.90581e-12
-1.90762e-11
-4.10196e-12
-1.86281e-11
-5.30019e-12
-1.80568e-11
-6.48475e-12
-1.73648e-11
-7.64362e-12
-1.65557e-11
-8.76332e-12
-1.56353e-11
-9.82998e-12
-1.46089e-11
-1.08365e-11
-1.34841e-11
-1.17694e-11
-1.22681e-11
-1.26209e-11
-1.0971e-11
-1.33836e-11
-9.60264e-12
-1.40504e-11
-8.17181e-12
-1.46183e-11
-6.68948e-12
-1.50841e-11
-5.16626e-12
-1.54412e-11
-3.6133e-12
-1.56905e-11
-2.04172e-12
-1.58332e-11
-4.61711e-13
-1.5873e-11
1.11655e-12
-1.58172e-11
2.68195e-12
-1.56674e-11
4.22505e-12
-1.54378e-11
5.73681e-12
-1.51382e-11
7.21923e-12
-1.47801e-11
8.65866e-12
-1.43651e-11
1.00516e-11
-1.39198e-11
1.14013e-11
-1.34453e-11
1.27003e-11
-1.29515e-11
1.39568e-11
-1.24504e-11
1.51639e-11
-1.19401e-11
1.63282e-11
-1.14321e-11
1.7447e-11
-1.09217e-11
1.85269e-11
-1.04128e-11
1.95641e-11
-9.89614e-12
2.0558e-11
-9.36525e-12
2.1511e-11
-8.81628e-12
2.24183e-11
-8.23474e-12
2.32767e-11
-7.61558e-12
2.40803e-11
-6.94447e-12
2.48208e-11
-6.20813e-12
2.54895e-11
-5.39631e-12
2.60781e-11
-4.5011e-12
2.65744e-11
-3.51236e-12
2.69672e-11
-2.42532e-12
2.72447e-11
-1.23493e-12
2.73948e-11
5.99937e-14
2.74051e-11
1.46105e-12
2.72639e-11
2.96622e-12
2.69585e-11
4.57137e-12
2.64778e-11
6.273e-12
2.58107e-11
8.06313e-12
2.49477e-11
9.93407e-12
2.38794e-11
1.18776e-11
2.25967e-11
1.38842e-11
2.10936e-11
1.59434e-11
1.93634e-11
1.80472e-11
1.74002e-11
2.01852e-11
1.52004e-11
2.23424e-11
1.27606e-11
2.4504e-11
1.00779e-11
2.66555e-11
7.15071e-12
2.87762e-11
3.97924e-12
3.08432e-11
5.66917e-13
3.2826e-11
-3.07817e-12
3.46915e-11
-6.94754e-12
3.63874e-11
-1.10285e-11
3.78474e-11
-1.52897e-11
3.90171e-11
-1.96794e-11
3.95501e-11
-2.40423e-11
3.88009e-11
-2.78994e-11
3.39807e-11
2.07746e-11
-3.01667e-11
-4.87786e-13
5.09441e-12
-1.23928e-12
8.04074e-12
-2.06855e-12
8.96952e-12
-2.91523e-12
9.20706e-12
-3.75942e-12
9.21091e-12
-4.59641e-12
9.15076e-12
-5.42531e-12
9.07882e-12
-6.24717e-12
9.01097e-12
-7.06409e-12
8.95147e-12
-7.87888e-12
8.902e-12
-8.69386e-12
8.86055e-12
-9.51085e-12
8.82238e-12
-1.03314e-11
8.77965e-12
-1.11565e-11
8.72399e-12
-1.19848e-11
8.64384e-12
-1.28134e-11
8.52715e-12
-1.3638e-11
8.36026e-12
-1.44519e-11
8.12792e-12
-1.52474e-11
7.82004e-12
-1.60158e-11
7.42606e-12
-1.67469e-11
6.93565e-12
-1.74297e-11
6.34452e-12
-1.80535e-11
5.64886e-12
-1.86072e-11
4.8485e-12
-1.9079e-11
3.94559e-12
-1.94597e-11
2.94808e-12
-1.97393e-11
1.86287e-12
-1.99093e-11
7.02696e-13
-1.9963e-11
-5.2121e-13
-1.9894e-11
-1.79422e-12
-1.96991e-11
-3.10079e-12
-1.93759e-11
-4.42529e-12
-1.89244e-11
-5.75173e-12
-1.83466e-11
-7.06267e-12
-1.76446e-11
-8.34567e-12
-1.68231e-11
-9.58493e-12
-1.5887e-11
-1.0766e-11
-1.48427e-11
-1.18809e-11
-1.36977e-11
-1.29144e-11
-1.24598e-11
-1.3859e-11
-1.11388e-11
-1.47048e-11
-9.74484e-12
-1.54447e-11
-8.28753e-12
-1.60761e-11
-6.77873e-12
-1.65934e-11
-5.2289e-12
-1.69915e-11
-3.6495e-12
-1.72704e-11
-2.0522e-12
-1.7431e-11
-4.47777e-13
-1.74781e-11
1.15298e-12
-1.74186e-11
2.7381e-12
-1.72532e-11
4.29954e-12
-1.7e-11
5.82836e-12
-1.66678e-11
7.31906e-12
-1.62715e-11
8.76761e-12
-1.58143e-11
1.01674e-11
-1.53203e-11
1.15214e-11
-1.47999e-11
1.28251e-11
-1.42558e-11
1.40801e-11
-1.37058e-11
1.52881e-11
-1.31487e-11
1.64514e-11
-1.2596e-11
1.75722e-11
-1.20431e-11
1.86521e-11
-1.14933e-11
1.96908e-11
-1.09355e-11
2.06938e-11
-1.03688e-11
2.16554e-11
-9.77843e-12
2.25743e-11
-9.15404e-12
2.34466e-11
-8.48835e-12
2.4266e-11
-7.76433e-12
2.50255e-11
-6.96801e-12
2.57156e-11
-6.08689e-12
2.63266e-11
-5.11248e-12
2.68472e-11
-4.03344e-12
2.72661e-11
-2.84458e-12
2.75702e-11
-1.53935e-12
2.77469e-11
-1.16994e-13