/*--------------------------------*- C++ -*----------------------------------*\
| =========                 |                                                 |
| \\      /  F ield         | OpenFOAM: The Open Source CFD Toolbox           |
|  \\    /   O peration     | Version:  2.4.0                                 |
|   \\  /    A nd           | Web:      www.OpenFOAM.org                      |
|    \\/     M anipulation  |                                                 |
\*---------------------------------------------------------------------------*/
FoamFile
{
    version     2.0;
    format      ascii;
    class       surfaceScalarField;
    location    "0.021";
    object      phi;
}
// * * * * * * * * * * * * * * * * * * * * * * * * * * * * * * * * * * * * * //

dimensions      [0 3 -1 0 0 0 0];

internalField   nonuniform List<scalar> 
119500
(
2.2741e-13
-2.2741e-13
1.95539e-13
3.10463e-14
1.22293e-13
7.25569e-14
4.6574e-14
7.50428e-14
-1.77274e-14
6.36384e-14
-8.41389e-14
6.57677e-14
-1.52201e-13
6.74406e-14
-2.20393e-13
6.7588e-14
-2.85852e-13
6.48663e-14
-3.48141e-13
6.16977e-14
-4.08645e-13
5.99096e-14
-4.70793e-13
6.155e-14
-5.37125e-13
6.5733e-14
-6.08198e-13
7.04748e-14
-6.82917e-13
7.41219e-14
-7.59312e-13
7.57932e-14
-8.35319e-13
7.53924e-14
-9.10623e-13
7.46661e-14
-9.86324e-13
7.50295e-14
-1.06483e-12
7.78014e-14
-1.14831e-12
8.2726e-14
-1.23777e-12
8.86621e-14
-1.33327e-12
9.46693e-14
-1.433e-12
9.88565e-14
-1.53444e-12
1.00531e-13
-1.63456e-12
9.91778e-14
-1.73129e-12
9.57569e-14
-1.82362e-12
9.13315e-14
-1.91238e-12
8.77334e-14
-2.0004e-12
8.69673e-14
-2.09241e-12
9.09263e-14
-2.19353e-12
1.00024e-13
-2.30711e-12
1.12453e-13
-2.43352e-12
1.25252e-13
-2.56971e-12
1.34994e-13
-2.71017e-12
1.39235e-13
-2.85177e-12
1.40334e-13
-2.99741e-12
1.44314e-13
-3.1556e-12
1.56819e-13
-3.33457e-12
1.77531e-13
-3.53817e-12
2.02114e-13
-3.76559e-12
2.25894e-13
-4.01374e-12
2.46596e-13
-4.28168e-12
2.66359e-13
-4.57404e-12
2.9077e-13
-4.89957e-12
3.2393e-13
-5.26616e-12
3.64972e-13
-5.6797e-12
4.11899e-13
-6.14191e-12
4.60558e-13
-6.65022e-12
5.06639e-13
-7.19885e-12
5.46954e-13
-7.78211e-12
5.81595e-13
-8.39518e-12
6.11424e-13
-9.03465e-12
6.37864e-13
-9.69886e-12
6.62662e-13
-1.03872e-11
6.86889e-13
-1.11005e-11
7.11758e-13
-1.18403e-11
7.38408e-13
-1.26093e-11
7.67638e-13
-1.34111e-11
8.00546e-13
-1.42499e-11
8.37479e-13
-1.51289e-11
8.77757e-13
-1.60507e-11
9.20525e-13
-1.70157e-11
9.63771e-13
-1.80216e-11
1.00474e-12
-1.90642e-11
1.04142e-12
-2.0138e-11
1.07256e-12
-2.12368e-11
1.09771e-12
-2.23559e-11
1.11787e-12
-2.34921e-11
1.13516e-12
-2.46451e-11
1.1519e-12
-2.58166e-11
1.1705e-12
-2.70104e-11
1.19285e-12
-2.823e-11
1.21874e-12
-2.94767e-11
1.24596e-12
-3.07492e-11
1.27185e-12
-3.20437e-11
1.29391e-12
-3.33535e-11
1.30942e-12
-3.46709e-11
1.31701e-12
-3.59888e-11
1.31759e-12
-3.73025e-11
1.31356e-12
-3.8611e-11
1.30832e-12
-3.99166e-11
1.3054e-12
-4.12246e-11
1.3079e-12
-4.25423e-11
1.31762e-12
-4.38766e-11
1.33437e-12
-4.52341e-11
1.35758e-12
-4.66201e-11
1.38601e-12
-4.80383e-11
1.41833e-12
-4.94911e-11
1.45302e-12
-5.09788e-11
1.48776e-12
-5.24982e-11
1.51943e-12
-5.40427e-11
1.54453e-12
-5.56026e-11
1.55992e-12
-5.71636e-11
1.56097e-12
-5.87217e-11
1.55807e-12
-6.01127e-11
1.39106e-12
-6.22768e-11
2.16433e-12
-6.24319e-11
1.55383e-13
1.13295e-12
-6.35644e-11
2.85371e-13
-5.13554e-13
2.35577e-13
7.94247e-14
1.34325e-13
1.72552e-13
3.45696e-14
1.73566e-13
-6.14315e-14
1.58439e-13
-1.57384e-13
1.60554e-13
-2.53805e-13
1.62724e-13
-3.50018e-13
1.62682e-13
-4.45546e-13
1.5928e-13
-5.40574e-13
1.5561e-13
-6.35391e-13
1.53606e-13
-7.3176e-13
1.56799e-13
-8.30719e-13
1.63573e-13
-9.32604e-13
1.71239e-13
-1.03732e-12
1.77711e-13
-1.14415e-12
1.81463e-13
-1.25268e-12
1.8272e-13
-1.36285e-12
1.8358e-13
-1.47515e-12
1.85999e-13
-1.59112e-12
1.92377e-13
-1.71145e-12
2.01576e-13
-1.83678e-12
2.12452e-13
-1.96769e-12
2.23962e-13
-2.10374e-12
2.33218e-13
-2.24369e-12
2.38738e-13
-2.38734e-12
2.4103e-13
-2.53367e-12
2.40227e-13
-2.6827e-12
2.38456e-13
-2.83543e-12
2.38517e-13
-2.99329e-12
2.42828e-13
-3.15922e-12
2.54803e-13
-3.3354e-12
2.74116e-13
-3.52414e-12
2.99038e-13
-3.7255e-12
3.24409e-13
-3.93851e-12
3.45727e-13
-4.16141e-12
3.59792e-13
-4.39386e-12
3.70339e-13
-4.63876e-12
3.8669e-13
-4.90138e-12
4.1682e-13
-5.18476e-12
4.58205e-13
-5.49064e-12
5.05229e-13
-5.81915e-12
5.51581e-13
-6.17031e-12
5.94912e-13
-6.546e-12
6.39171e-13
-6.94871e-12
6.9059e-13
-7.38309e-12
7.5539e-13
-7.85321e-12
8.32148e-13
-8.36128e-12
9.17001e-13
-8.90926e-12
1.00555e-12
-9.4976e-12
1.092e-12
-1.01243e-11
1.17072e-12
-1.07878e-11
1.24221e-12
-1.14869e-11
1.30768e-12
-1.22208e-11
1.369e-12
-1.29895e-11
1.42873e-12
-1.37937e-11
1.48846e-12
-1.46344e-11
1.54995e-12
-1.55135e-11
1.61514e-12
-1.64336e-11
1.68536e-12
-1.73972e-11
1.76185e-12
-1.84073e-11
1.84529e-12
-1.94667e-11
1.93493e-12
-2.05774e-11
2.0291e-12
-2.17405e-11
2.12475e-12
-2.29562e-11
2.21829e-12
-2.42235e-11
2.30665e-12
-2.55409e-11
2.38784e-12
-2.69065e-11
2.46132e-12
-2.83191e-11
2.52838e-12
-2.97776e-11
2.59178e-12
-3.12826e-11
2.65503e-12
-3.28354e-11
2.72162e-12
-3.44378e-11
2.79371e-12
-3.6091e-11
2.87057e-12
-3.77953e-11
2.94915e-12
-3.955e-11
3.02551e-12
-4.13525e-11
3.09555e-12
-4.31991e-11
3.15533e-12
-4.50856e-11
3.20293e-12
-4.70081e-11
3.23963e-12
-4.8964e-11
3.26907e-12
-5.09524e-11
3.29638e-12
-5.29742e-11
3.32695e-12
-5.50319e-11
3.36544e-12
-5.71291e-11
3.4147e-12
-5.92697e-11
3.47504e-12
-6.14578e-11
3.54576e-12
-6.36967e-11
3.62504e-12
-6.59886e-11
3.71033e-12
-6.83339e-11
3.79843e-12
-7.07306e-11
3.88441e-12
-7.3173e-11
3.96184e-12
-7.56515e-11
4.02297e-12
-7.81509e-11
4.05934e-12
-8.06502e-11
4.06036e-12
-8.3115e-11
4.02306e-12
-8.55444e-11
3.82082e-12
-8.78555e-11
4.47609e-12
-8.99074e-11
2.2081e-12
2.51907e-12
-9.12924e-11
2.63963e-13
-7.78209e-13
2.02464e-13
1.39587e-13
1.0096e-13
2.72861e-13
4.88345e-15
2.68466e-13
-9.41802e-14
2.56351e-13
-1.90502e-13
2.55754e-13
-2.86375e-13
2.575e-13
-3.82158e-13
2.57385e-13
-4.79266e-13
2.55316e-13
-5.78072e-13
2.53345e-13
-6.77923e-13
2.52389e-13
-7.78807e-13
2.56618e-13
-8.80294e-13
2.64003e-13
-9.82503e-13
2.72392e-13
-1.08634e-12
2.80483e-13
-1.19241e-12
2.86455e-13
-1.30146e-12
2.90647e-13
-1.41372e-12
2.9468e-13
-1.52928e-12
3.00335e-13
-1.64818e-12
3.09986e-13
-1.77002e-12
3.22053e-13
-1.89527e-12
3.3629e-13
-2.02447e-12
3.51677e-13
-2.15819e-12
3.65395e-13
-2.29724e-12
3.76185e-13
-2.44278e-12
3.84905e-13
-2.59531e-12
3.91047e-13
-2.75545e-12
3.96845e-13
-2.92372e-12
4.04988e-13
-3.10059e-12
4.17861e-13
-3.28588e-12
4.38216e-13
-3.47953e-12
4.65849e-13
-3.6827e-12
5.00261e-13
-3.89568e-12
5.35411e-13
-4.11959e-12
5.67604e-13
-4.35594e-12
5.94056e-13
-4.60619e-12
6.18447e-13
-4.8713e-12
6.4961e-13
-5.15241e-12
6.95668e-13
-5.44866e-12
7.52156e-13
-5.76038e-12
8.14607e-13
-6.08845e-12
8.77286e-13
-6.43526e-12
9.39353e-13
-6.80309e-12
1.00461e-12
-7.19211e-12
1.07723e-12
-7.6028e-12
1.16369e-12
-8.03577e-12
1.26271e-12
-8.4914e-12
1.37021e-12
-8.97043e-12
1.48216e-12
-9.47445e-12
1.59362e-12
-1.00054e-11
1.6993e-12
-1.05651e-11
1.79957e-12
-1.11552e-11
1.89549e-12
-1.17771e-11
1.9888e-12
-1.24323e-11
2.08177e-12
-1.3122e-11
2.17613e-12
-1.38476e-11
2.27357e-12
-1.46104e-11
2.37606e-12
-1.54119e-11
2.48504e-12
-1.62536e-11
2.60164e-12
-1.71365e-11
2.72646e-12
-1.80622e-11
2.85882e-12
-1.90318e-11
2.99695e-12
-2.00467e-11
3.1379e-12
-2.11087e-11
3.27847e-12
-2.22195e-11
3.41571e-12
-2.33809e-11
3.54751e-12
-2.45945e-11
3.67319e-12
-2.58615e-11
3.79363e-12
-2.71827e-11
3.91127e-12
-2.85587e-11
4.0295e-12
-2.999e-11
4.15136e-12
-3.14759e-11
4.27818e-12
-3.30154e-11
4.40882e-12
-3.46078e-11
4.54034e-12
-3.62523e-11
4.66892e-12
-3.79478e-11
4.7901e-12
-3.96933e-11
4.89995e-12
-4.14878e-11
4.99671e-12
-4.33306e-11
5.08174e-12
-4.5221e-11
5.15879e-12
-4.71583e-11
5.23312e-12
-4.91424e-11
5.31062e-12
-5.11736e-11
5.39617e-12
-5.3252e-11
5.49284e-12
-5.53794e-11
5.60217e-12
-5.75579e-11
5.72408e-12
-5.97901e-11
5.857e-12
-6.20779e-11
5.99799e-12
-6.44219e-11
6.14237e-12
-6.68211e-11
6.28344e-12
-6.92713e-11
6.41196e-12
-7.17648e-11
6.51644e-12
-7.42894e-11
6.58389e-12
-7.68249e-11
6.59605e-12
-7.93401e-11
6.53858e-12
-8.1838e-11
6.31912e-12
-8.39907e-11
6.62944e-12
-8.6462e-11
4.68022e-12
3.77107e-12
-8.77129e-11
2.306e-13
-1.00951e-12
1.78557e-13
1.90224e-13
8.47426e-14
3.654e-13
-8.54749e-15
3.60495e-13
-1.04945e-13
3.5151e-13
-1.99463e-13
3.49061e-13
-2.94034e-13
3.50885e-13
-3.88769e-13
3.5095e-13
-4.85066e-13
3.50453e-13
-5.83032e-13
3.50158e-13
-6.8226e-13
3.5047e-13
-7.8251e-13
3.55732e-13
-8.83206e-13
3.63572e-13
-9.84436e-13
3.72502e-13
-1.0872e-12
3.82126e-13
-1.19213e-12
3.90236e-13
-1.30004e-12
3.9738e-13
-1.41123e-12
4.04648e-13
-1.52576e-12
4.13593e-13
-1.64338e-12
4.26265e-13
-1.76386e-12
4.41131e-13
-1.8876e-12
4.58566e-13
-2.01501e-12
4.7756e-13
-2.14666e-12
4.95451e-13
-2.28403e-12
5.11908e-13
-2.4282e-12
5.27364e-13
-2.58065e-12
5.41739e-13
-2.74189e-12
5.56282e-13
-2.9124e-12
5.73662e-13
-3.09255e-12
5.96133e-13
-3.28078e-12
6.24553e-13
-3.4767e-12
6.59842e-13
-3.68064e-12
7.02268e-13
-3.89422e-12
7.47036e-13
-4.1185e-12
7.89904e-13
-4.35595e-12
8.29498e-13
-4.60778e-12
8.68253e-13
-4.87437e-12
9.14141e-13
-5.15537e-12
9.74585e-13
-5.4505e-12
1.04519e-12
-5.759e-12
1.121e-12
-6.08224e-12
1.19842e-12
-6.42221e-12
1.27722e-12
-6.78096e-12
1.36126e-12
-7.15917e-12
1.45336e-12
-7.55572e-12
1.55815e-12
-7.97091e-12
1.67583e-12
-8.40391e-12
1.80115e-12
-8.85535e-12
1.93155e-12
-9.32729e-12
2.06354e-12
-9.8224e-12
2.19243e-12
-1.03433e-11
2.3185e-12
-1.08923e-11
2.44269e-12
-1.14716e-11
2.56622e-12
-1.20827e-11
2.69118e-12
-1.27274e-11
2.81912e-12
-1.34069e-11
2.95144e-12
-1.41225e-11
3.09003e-12
-1.48753e-11
3.23626e-12
-1.56662e-11
3.39106e-12
-1.64963e-11
3.555e-12
-1.73666e-11
3.72754e-12
-1.82783e-11
3.90712e-12
-1.9233e-11
4.09103e-12
-2.02327e-11
4.27659e-12
-2.12799e-11
4.46133e-12
-2.23771e-11
4.64307e-12
-2.35264e-11
4.82091e-12
-2.47298e-11
4.99542e-12
-2.59886e-11
5.1685e-12
-2.73036e-11
5.3429e-12
-2.86747e-11
5.52092e-12
-3.0101e-11
5.70309e-12
-3.15815e-11
5.88788e-12
-3.3115e-11
6.0725e-12
-3.47005e-11
6.25323e-12
-3.63374e-11
6.42575e-12
-3.80248e-11
6.58629e-12
-3.97627e-11
6.73349e-12
-4.15507e-11
6.86883e-12
-4.33887e-11
6.9958e-12
-4.52758e-11
7.11947e-12
-4.72119e-11
7.24591e-12
-4.91966e-11
7.38009e-12
-5.12297e-11
7.52533e-12
-5.33124e-11
7.68422e-12
-5.54466e-11
7.85777e-12
-5.76348e-11
8.04475e-12
-5.98793e-11
8.24202e-12
-6.21813e-11
8.44403e-12
-6.45406e-11
8.64259e-12
-6.69548e-11
8.82596e-12
-6.94172e-11
8.97885e-12
-7.19171e-11
9.08391e-12
-7.44361e-11
9.11534e-12
-7.69444e-11
9.04734e-12
-7.94341e-11
8.80941e-12
-8.16158e-11
8.81183e-12
-8.40541e-11
7.11941e-12
5.00761e-12
-8.52896e-11
2.17871e-13
-1.22814e-12
1.66876e-13
2.39685e-13
7.81714e-14
4.52701e-13
-1.34308e-14
4.50704e-13
-1.07643e-13
4.44351e-13
-2.01256e-13
4.4133e-13
-2.9517e-13
4.43478e-13
-3.89561e-13
4.44037e-13
-4.85471e-13
4.45069e-13
-5.82722e-13
4.46123e-13
-6.81613e-13
4.48086e-13
-7.81337e-13
4.54195e-13
-8.81532e-13
4.62519e-13
-9.82507e-13
4.72237e-13
-1.08515e-12
4.83523e-13
-1.18964e-12
4.93466e-13
-1.29715e-12
5.03596e-13
-1.40784e-12
5.14001e-13
-1.52162e-12
5.25979e-13
-1.63853e-12
5.41718e-13
-1.75834e-12
5.59427e-13
-1.88131e-12
5.79967e-13
-2.00815e-12
6.02757e-13
-2.13922e-12
6.24817e-13
-2.27583e-12
6.46761e-13
-2.41961e-12
6.69327e-13
-2.57159e-12
6.91862e-13
-2.73269e-12
7.15476e-13
-2.90342e-12
7.4246e-13
-3.0833e-12
7.74072e-13
-3.27128e-12
8.10574e-13
-3.46634e-12
8.5293e-13
-3.66878e-12
9.0275e-13
-3.88118e-12
9.5748e-13
-4.1051e-12
1.01187e-12
-4.34232e-12
1.06478e-12
-4.59397e-12
1.11796e-12
-4.85964e-12
1.17788e-12
-5.13883e-12
1.25184e-12
-5.4316e-12
1.33603e-12
-5.73773e-12
1.42523e-12
-6.05876e-12
1.51757e-12
-6.39623e-12
1.61283e-12
-6.75148e-12
1.71466e-12
-7.12592e-12
1.82597e-12
-7.51808e-12
1.94851e-12
-7.9272e-12
2.08315e-12
-8.35401e-12
2.22618e-12
-8.79939e-12
2.37518e-12
-9.2646e-12
2.52703e-12
-9.7526e-12
2.67875e-12
-1.02658e-11
2.83005e-12
-1.08064e-11
2.98173e-12
-1.13767e-11
3.13502e-12
-1.19784e-11
3.29136e-12
-1.26128e-11
3.45217e-12
-1.32817e-11
3.61892e-12
-1.39862e-11
3.79311e-12
-1.47273e-11
3.97601e-12
-1.55062e-11
4.1686e-12
-1.63239e-11
4.37132e-12
-1.71815e-11
4.5837e-12
-1.80801e-11
4.80439e-12
-1.90217e-11
5.03119e-12
-2.00085e-11
5.26185e-12
-2.10426e-11
5.494e-12
-2.21266e-11
5.72546e-12
-2.32624e-11
5.95521e-12
-2.44522e-11
6.18368e-12
-2.56976e-11
6.41236e-12
-2.69994e-11
6.64312e-12
-2.83574e-11
6.8774e-12
-2.97709e-11
7.11509e-12
-3.1239e-11
7.35447e-12
-3.27607e-11
7.5927e-12
-3.43348e-11
7.8259e-12
-3.59602e-11
8.0498e-12
-3.76364e-11
8.26108e-12
-3.93629e-11
8.45866e-12
-4.11392e-11
8.64398e-12
-4.29652e-11
8.82055e-12
-4.48403e-11
8.99349e-12
-4.6764e-11
9.16856e-12
-4.87357e-11
9.35074e-12
-5.07555e-11
9.54422e-12
-5.28248e-11
9.75257e-12
-5.49454e-11
9.97759e-12
-5.71201e-11
1.02187e-11
-5.93514e-11
1.04728e-11
-6.16419e-11
1.0734e-11
-6.39926e-11
1.09929e-11
-6.64022e-11
1.12355e-11
-6.88662e-11
1.14429e-11
-7.13741e-11
1.15921e-11
-7.39078e-11
1.16494e-11
-7.64409e-11
1.1581e-11
-7.89534e-11
1.13226e-11
-8.12289e-11
1.10881e-11
-8.36185e-11
9.50987e-12
6.27525e-12
-8.48852e-11
2.05609e-13
-1.4346e-12
1.5731e-13
2.8632e-13
7.35249e-14
5.34954e-13
-1.6342e-14
5.3905e-13
-1.08664e-13
5.3517e-13
-2.01579e-13
5.32767e-13
-2.95108e-13
5.35548e-13
-3.8943e-13
5.36913e-13
-4.85099e-13
5.39301e-13
-5.81751e-13
5.41348e-13
-6.8008e-13
5.44999e-13
-7.79266e-13
5.5198e-13
-8.79087e-13
5.60952e-13
-9.80002e-13
5.7177e-13
-1.08272e-12
5.84853e-13
-1.18704e-12
5.96375e-13
-1.29419e-12
6.09304e-13
-1.40438e-12
6.22703e-13
-1.51738e-12
6.37447e-13
-1.63348e-12
6.5623e-13
-1.7528e-12
6.77096e-13
-1.87543e-12
7.00896e-13
-2.00213e-12
7.277e-13
-2.13339e-12
7.54259e-13
-2.2699e-12
7.81399e-13
-2.41335e-12
8.10863e-13
-2.5648e-12
8.41357e-13
-2.72496e-12
8.73648e-13
-2.89479e-12
9.10293e-13
-3.07357e-12
9.50858e-13
-3.26038e-12
9.95394e-13
-3.45435e-12
1.04493e-12
-3.65562e-12
1.10208e-12
-3.86705e-12
1.16699e-12
-4.0905e-12
1.23343e-12
-4.32715e-12
1.29957e-12
-4.57797e-12
1.36695e-12
-4.84252e-12
1.44064e-12
-5.11952e-12
1.52708e-12
-5.40993e-12
1.62472e-12
-5.71408e-12
1.72769e-12
-6.03302e-12
1.83483e-12
-6.36888e-12
1.94704e-12
-6.72193e-12
2.0661e-12
-7.09306e-12
2.1955e-12
-7.48209e-12
2.33596e-12
-7.88875e-12
2.48824e-12
-8.31375e-12
2.64965e-12
-8.75764e-12
2.81757e-12
-9.22172e-12
2.98964e-12
-9.70847e-12
3.16407e-12
-1.02203e-11
3.34048e-12
-1.07593e-11
3.51936e-12
-1.13275e-11
3.70195e-12
-1.19267e-11
3.88923e-12
-1.25584e-11
4.08259e-12
-1.32242e-11
4.28344e-12
-1.39252e-11
4.49289e-12
-1.46628e-11
4.71227e-12
-1.5438e-11
4.9426e-12
-1.62521e-11
5.18412e-12
-1.71062e-11
5.43646e-12
-1.80018e-11
5.69859e-12
-1.89406e-11
5.96868e-12
-1.99249e-11
6.24468e-12
-2.09567e-11
6.52439e-12
-2.20384e-11
6.80563e-12
-2.31719e-11
7.0873e-12
-2.43595e-11
7.36977e-12
-2.56027e-11
7.65407e-12
-2.69024e-11
7.94124e-12
-2.82584e-11
8.23195e-12
-2.96705e-11
8.52561e-12
-3.11377e-11
8.8201e-12
-3.26589e-11
9.11239e-12
-3.4233e-11
9.39843e-12
-3.58587e-11
9.67396e-12
-3.75351e-11
9.93605e-12
-3.92616e-11
1.01837e-11
-4.10376e-11
1.04186e-11
-4.28625e-11
1.06441e-11
-4.47357e-11
1.08654e-11
-4.66565e-11
1.10881e-11
-4.86244e-11
1.13174e-11
-5.06399e-11
1.15585e-11
-5.27042e-11
1.18158e-11
-5.48196e-11
1.2092e-11
-5.69892e-11
1.23874e-11
-5.92166e-11
1.26993e-11
-6.15051e-11
1.30221e-11
-6.38574e-11
1.33449e-11
-6.62738e-11
1.36518e-11
-6.87511e-11
1.39203e-11
-7.12796e-11
1.41209e-11
-7.3844e-11
1.42143e-11
-7.64193e-11
1.41569e-11
-7.89773e-11
1.38812e-11
-8.13607e-11
1.34722e-11
-8.37517e-11
1.19017e-11
7.60766e-12
-8.50832e-11
1.94761e-13
-1.63028e-12
1.49637e-13
3.29676e-13
7.00665e-14
6.12894e-13
-1.84035e-14
6.25899e-13
-1.09191e-13
6.24354e-13
-2.01486e-13
6.23475e-13
-2.94641e-13
6.27128e-13
-3.88846e-13
6.2955e-13
-4.84258e-13
6.33148e-13
-5.80468e-13
6.35998e-13
-6.78236e-13
6.41218e-13
-7.7694e-13
6.49146e-13
-8.76483e-13
6.58966e-13
-9.7735e-13
6.71108e-13
-1.07983e-12
6.85797e-13
-1.18393e-12
6.98906e-13
-1.29063e-12
7.14407e-13
-1.40007e-12
7.30508e-13
-1.51223e-12
7.47926e-13
-1.62762e-12
7.69891e-13
-1.7463e-12
7.94005e-13
-1.86869e-12
8.21464e-13
-1.99532e-12
8.52468e-13
-2.12665e-12
8.83676e-13
-2.26324e-12
9.16042e-13
-2.40639e-12
9.52021e-13
-2.5571e-12
9.9007e-13
-2.71601e-12
1.03054e-12
-2.88417e-12
1.07645e-12
-3.06166e-12
1.12636e-12
-3.24718e-12
1.17896e-12
-3.44014e-12
1.23598e-12
-3.64044e-12
1.3005e-12
-3.8508e-12
1.37553e-12
-4.07346e-12
1.45432e-12
-4.30926e-12
1.53365e-12
-4.55875e-12
1.61478e-12
-4.82181e-12
1.70209e-12
-5.09694e-12
1.80065e-12
-5.38466e-12
1.91091e-12
-5.6867e-12
2.02824e-12
-6.00351e-12
2.15017e-12
-6.33701e-12
2.2791e-12
-6.68805e-12
2.4157e-12
-7.05673e-12
2.56275e-12
-7.44359e-12
2.72142e-12
-7.84832e-12
2.89158e-12
-8.27128e-12
3.07123e-12
-8.71359e-12
3.25854e-12
-9.17661e-12
3.45134e-12
-9.66258e-12
3.64874e-12
-1.01737e-11
3.85027e-12
-1.07117e-11
4.05616e-12
-1.12787e-11
4.26763e-12
-1.18763e-11
4.48558e-12
-1.25059e-11
4.71102e-12
-1.31693e-11
4.94549e-12
-1.38677e-11
5.19005e-12
-1.46025e-11
5.44584e-12
-1.5375e-11
5.71381e-12
-1.61864e-11
5.99422e-12
-1.70382e-11
6.28684e-12
-1.79318e-11
6.59086e-12
-1.88691e-11
6.90459e-12
-1.98519e-11
7.22613e-12
-2.08825e-11
7.55355e-12
-2.19631e-11
7.88484e-12
-2.3096e-11
8.21878e-12
-2.42831e-11
8.55543e-12
-2.55258e-11
8.89535e-12
-2.6825e-11
9.23908e-12
-2.81811e-11
9.58655e-12
-2.95935e-11
9.93661e-12
-3.10617e-11
1.02868e-11
-3.25844e-11
1.06336e-11
-3.41603e-11
1.09728e-11
-3.57881e-11
1.13003e-11
-3.74669e-11
1.16133e-11
-3.91956e-11
1.19111e-11
-4.09735e-11
1.21951e-11
-4.27995e-11
1.24687e-11
-4.46725e-11
1.27371e-11
-4.65917e-11
1.30061e-11
-4.85569e-11
1.32814e-11
-5.05688e-11
1.35691e-11
-5.26286e-11
1.38746e-11
-5.47392e-11
1.42015e-11
-5.69043e-11
1.45515e-11
-5.91286e-11
1.49229e-11
-6.14169e-11
1.53099e-11
-6.37731e-11
1.57009e-11
-6.61992e-11
1.60778e-11
-6.86933e-11
1.64145e-11
-7.12483e-11
1.66763e-11
-7.38514e-11
1.68179e-11
-7.64796e-11
1.67856e-11
-7.91017e-11
1.65039e-11
-8.16006e-11
1.59718e-11
-8.40416e-11
1.43433e-11
9.02802e-12
-8.54611e-11
1.87919e-13
-1.81918e-12
1.45063e-13
3.70708e-13
6.80931e-14
6.88183e-13
-1.93683e-14
7.11689e-13
-1.09134e-13
7.12458e-13
-2.00984e-13
7.1367e-13
-2.9388e-13
7.1837e-13
-3.87958e-13
7.21971e-13
-4.83042e-13
7.26569e-13
-5.78921e-13
7.30213e-13
-6.76167e-13
7.36803e-13
-7.7439e-13
7.45711e-13
-8.73678e-13
7.56598e-13
-9.74413e-13
7.7018e-13
-1.07641e-12
7.86116e-13
-1.1801e-12
8.00887e-13
-1.28633e-12
8.18899e-13
-1.39481e-12
8.37211e-13
-1.50613e-12
8.57439e-13
-1.62104e-12
8.82955e-13
-1.73904e-12
9.10136e-13
-1.86101e-12
9.41526e-13
-1.98735e-12
9.7688e-13
-2.11823e-12
1.01259e-12
-2.25482e-12
1.05064e-12
-2.39782e-12
1.09303e-12
-2.54771e-12
1.13798e-12
-2.7052e-12
1.18605e-12
-2.87111e-12
1.24042e-12
-3.04671e-12
1.30007e-12
-3.23112e-12
1.36151e-12
-3.42338e-12
1.42645e-12
-3.62297e-12
1.49837e-12
-3.83208e-12
1.58298e-12
-4.05361e-12
1.67425e-12
-4.28817e-12
1.76668e-12
-4.53621e-12
1.86135e-12
-4.79739e-12
1.96185e-12
-5.07052e-12
2.07241e-12
-5.35623e-12
2.19528e-12
-5.65603e-12
2.32673e-12
-5.97108e-12
2.46392e-12
-6.30281e-12
2.60952e-12
-6.65154e-12
2.76313e-12
-7.01773e-12
2.92763e-12
-7.40202e-12
3.1044e-12
-7.80413e-12
3.29238e-12
-8.22484e-12
3.49065e-12
-8.66535e-12
3.69776e-12
-9.12704e-12
3.91175e-12
-9.61184e-12
4.13225e-12
-1.01216e-11
4.35877e-12
-1.06582e-11
4.59143e-12
-1.12235e-11
4.83157e-12
-1.18191e-11
5.07986e-12
-1.24466e-11
5.33714e-12
-1.31074e-11
5.60497e-12
-1.38031e-11
5.8844e-12
-1.45351e-11
6.17644e-12
-1.53047e-11
6.48203e-12
-1.61134e-11
6.80146e-12
-1.69626e-11
7.13463e-12
-1.7854e-11
7.48082e-12
-1.87893e-11
7.83844e-12
-1.97703e-11
8.20574e-12
-2.07992e-11
8.5811e-12
-2.18784e-11
8.9627e-12
-2.30101e-11
9.34918e-12
-2.41962e-11
9.74023e-12
-2.54383e-11
1.01361e-11
-2.67372e-11
1.05368e-11
-2.80935e-11
1.09415e-11
-2.95067e-11
1.13486e-11
-3.09762e-11
1.1755e-11
-3.25009e-11
1.21569e-11
-3.40792e-11
1.25497e-11
-3.57098e-11
1.29296e-11
-3.73914e-11
1.32937e-11
-3.91229e-11
1.36413e-11
-4.09031e-11
1.3974e-11
-4.27305e-11
1.42949e-11
-4.46037e-11
1.46092e-11
-4.65216e-11
1.49229e-11
-4.84842e-11
1.52428e-11
-5.04919e-11
1.55757e-11
-5.25465e-11
1.59282e-11
-5.46513e-11
1.63053e-11
-5.68109e-11
1.67103e-11
-5.90312e-11
1.71425e-11
-6.13183e-11
1.75966e-11
-6.36779e-11
1.80602e-11
-6.61136e-11
1.85136e-11
-6.86263e-11
1.89274e-11
-7.12121e-11
1.92623e-11
-7.38608e-11
1.9467e-11
-7.65518e-11
1.94769e-11
-7.92539e-11
1.92064e-11
-8.18792e-11
1.85976e-11
-8.44192e-11
1.68838e-11
1.0561e-11
-8.59514e-11
1.86646e-13
-2.00685e-12
1.44626e-13
4.10906e-13
6.82594e-14
7.62873e-13
-1.87602e-14
7.97039e-13
-1.08136e-13
8.00165e-13
-1.99937e-13
8.03797e-13
-2.92782e-13
8.09528e-13
-3.86786e-13
8.1427e-13
-4.81429e-13
8.19492e-13
-5.77105e-13
8.24157e-13
-6.7391e-13
8.31871e-13
-7.71676e-13
8.41733e-13
-8.70624e-13
8.53793e-13
-9.71047e-13
8.68835e-13
-1.07253e-12
8.8581e-13
-1.17558e-12
9.02115e-13
-1.28128e-12
9.22748e-13
-1.38879e-12
9.42841e-13
-1.49929e-12
9.66031e-13
-1.61355e-12
9.95297e-13
-1.73077e-12
1.02542e-12
-1.85186e-12
1.06067e-12
-1.97796e-12
1.10103e-12
-2.10873e-12
1.14141e-12
-2.24477e-12
1.18473e-12
-2.38734e-12
1.23365e-12
-2.53631e-12
1.28503e-12
-2.69224e-12
1.3401e-12
-2.85586e-12
1.40221e-12
-3.02907e-12
1.47151e-12
-3.21186e-12
1.54261e-12
-3.4038e-12
1.61676e-12
-3.60305e-12
1.69606e-12
-3.81089e-12
1.78934e-12
-4.03108e-12
1.89302e-12
-4.26392e-12
1.99816e-12
-4.51015e-12
2.10628e-12
-4.76953e-12
2.21999e-12
-5.04047e-12
2.34213e-12
-5.32417e-12
2.47779e-12
-5.62218e-12
2.62354e-12
-5.93547e-12
2.77601e-12
-6.26486e-12
2.93768e-12
-6.61119e-12
3.1082e-12
-6.97507e-12
3.29023e-12
-7.35648e-12
3.48451e-12
-7.75618e-12
3.69077e-12
-8.17479e-12
3.90793e-12
-8.6132e-12
4.13484e-12
-9.07304e-12
4.37024e-12
-9.55589e-12
4.61373e-12
-1.00636e-11
4.86509e-12
-1.05982e-11
5.12453e-12
-1.11612e-11
5.39308e-12
-1.17543e-11
5.67145e-12
-1.23792e-11
5.96051e-12
-1.30373e-11
6.26151e-12
-1.373e-11
6.57558e-12
-1.44589e-11
6.90378e-12
-1.52255e-11
7.24698e-12
-1.60311e-11
7.60552e-12
-1.68773e-11
7.97934e-12
-1.77659e-11
8.36783e-12
-1.86986e-11
8.76966e-12
-1.96774e-11
9.18318e-12
-2.07043e-11
9.6066e-12
-2.17813e-11
1.00385e-11
-2.2911e-11
1.04777e-11
-2.40956e-11
1.09236e-11
-2.53366e-11
1.1376e-11
-2.66351e-11
1.18342e-11
-2.79916e-11
1.22969e-11
-2.94058e-11
1.27617e-11
-3.0877e-11
1.32251e-11
-3.24039e-11
1.36827e-11
-3.39851e-11
1.41298e-11
-3.56188e-11
1.45623e-11
-3.73038e-11
1.49775e-11
-3.90384e-11
1.5375e-11
-4.08213e-11
1.57558e-11
-4.26504e-11
1.61232e-11
-4.45242e-11
1.6482e-11
-4.64412e-11
1.68389e-11
-4.84007e-11
1.72014e-11
-5.04035e-11
1.75777e-11
-5.24517e-11
1.79756e-11
-5.45493e-11
1.84022e-11
-5.67019e-11
1.88623e-11
-5.89167e-11
1.93569e-11
-6.12016e-11
1.98812e-11
-6.35638e-11
2.04224e-11
-6.60097e-11
2.09594e-11
-6.85428e-11
2.14606e-11
-7.11627e-11
2.18823e-11
-7.38621e-11
2.21666e-11
-7.66235e-11
2.22385e-11
-7.94195e-11
2.20027e-11
-8.21855e-11
2.13638e-11
-8.48741e-11
1.95728e-11
1.22388e-11
-8.65514e-11
1.90678e-13
-2.19854e-12
1.47922e-13
4.51899e-13
7.01405e-14
8.39036e-13
-1.71098e-14
8.82673e-13
-1.06488e-13
8.87916e-13
-1.98492e-13
8.94153e-13
-2.91429e-13
9.00789e-13
-3.85404e-13
9.06538e-13
-4.79566e-13
9.11919e-13
-5.75111e-13
9.17948e-13
-6.71473e-13
9.26463e-13
-7.6885e-13
9.37325e-13
-8.67355e-13
9.50493e-13
-9.67223e-13
9.66874e-13
-1.06822e-12
9.84951e-13
-1.17056e-12
1.00256e-12
-1.27556e-12
1.02583e-12
-1.38229e-12
1.04763e-12
-1.49194e-12
1.07373e-12
-1.60528e-12
1.10669e-12
-1.72166e-12
1.13986e-12
-1.84183e-12
1.17891e-12
-1.96722e-12
1.2245e-12
-2.09766e-12
1.26995e-12
-2.23293e-12
1.31812e-12
-2.37468e-12
1.37356e-12
-2.52286e-12
1.43142e-12
-2.67721e-12
1.4927e-12
-2.83876e-12
1.5621e-12
-3.00977e-12
1.64093e-12
-3.19078e-12
1.72209e-12
-3.38148e-12
1.80601e-12
-3.58058e-12
1.89377e-12
-3.78761e-12
1.99505e-12
-4.00563e-12
2.10977e-12
-4.23664e-12
2.22796e-12
-4.4805e-12
2.34898e-12
-4.73735e-12
2.4757e-12
-5.00631e-12
2.60997e-12
-5.28755e-12
2.7579e-12
-5.58276e-12
2.91761e-12
-5.89386e-12
3.08592e-12
-6.22108e-12
3.26366e-12
-6.56522e-12
3.45106e-12
-6.92642e-12
3.6501e-12
-7.30511e-12
3.86183e-12
-7.70215e-12
4.08641e-12
-8.11821e-12
4.32258e-12
-8.55431e-12
4.56949e-12
-9.01199e-12
4.82643e-12
-9.49269e-12
5.09291e-12
-9.99814e-12
5.36895e-12
-1.05302e-11
5.65499e-12
-1.10906e-11
5.95178e-12
-1.1681e-11
6.26006e-12
-1.23029e-11
6.58065e-12
-1.29578e-11
6.91466e-12
-1.36473e-11
7.26323e-12
-1.43727e-11
7.62749e-12
-1.51358e-11
8.00832e-12
-1.59381e-11
8.40604e-12
-1.6781e-11
8.82055e-12
-1.76662e-11
9.25144e-12
-1.85958e-11
9.69772e-12
-1.95717e-11
1.01577e-11
-2.0596e-11
1.06295e-11
-2.16707e-11
1.1112e-11
-2.27984e-11
1.16043e-11
-2.39813e-11
1.21055e-11
-2.52212e-11
1.26149e-11
-2.65192e-11
1.31313e-11
-2.78759e-11
1.36527e-11
-2.9291e-11
1.4176e-11
-3.07639e-11
1.46972e-11
-3.22932e-11
1.52112e-11
-3.38775e-11
1.57133e-11
-3.5515e-11
1.61991e-11
-3.7204e-11
1.66658e-11
-3.89427e-11
1.7113e-11
-4.0729e-11
1.75414e-11
-4.25605e-11
1.7954e-11
-4.44351e-11
1.83559e-11
-4.63506e-11
1.87538e-11
-4.83064e-11
1.91565e-11
-5.03032e-11
1.95739e-11
-5.23436e-11
2.00155e-11
-5.44325e-11
2.04906e-11
-5.65764e-11
2.1006e-11
-5.87843e-11
2.15645e-11
-6.10655e-11
2.21623e-11
-6.34298e-11
2.27866e-11
-6.58858e-11
2.34154e-11
-6.84403e-11
2.40151e-11
-7.1096e-11
2.4538e-11
-7.38492e-11
2.49198e-11
-7.66873e-11
2.50767e-11
-7.959e-11
2.49056e-11
-8.2512e-11
2.4286e-11
-8.53926e-11
2.24537e-11
1.40973e-11
-8.72505e-11
1.98051e-13
-2.39756e-12
1.53799e-13
4.94498e-13
7.35838e-14
9.17735e-13
-1.43653e-14
9.691e-13
-1.04187e-13
9.76193e-13
-1.96604e-13
9.84989e-13
-2.89691e-13
9.92253e-13
-3.83583e-13
9.98766e-13
-4.77458e-13
1.0041e-12
-5.72775e-13
1.01154e-12
-6.68625e-13
1.02056e-12
-7.65696e-13
1.03262e-12
-8.63724e-13
1.04672e-12
-9.6295e-13
1.06426e-12
-1.06342e-12
1.08355e-12
-1.16519e-12
1.10243e-12
-1.26954e-12
1.12826e-12
-1.37559e-12
1.15175e-12
-1.48451e-12
1.18072e-12
-1.59673e-12
1.21699e-12
-1.71191e-12
1.25314e-12
-1.83105e-12
1.29618e-12
-1.9553e-12
1.34691e-12
-2.08474e-12
1.39759e-12
-2.21922e-12
1.45084e-12
-2.35994e-12
1.51257e-12
-2.50724e-12
1.57707e-12
-2.66029e-12
1.64416e-12
-2.81992e-12
1.72022e-12
-2.98878e-12
1.80835e-12
-3.16797e-12
1.8999e-12
-3.35705e-12
1.99377e-12
-3.55544e-12
2.09091e-12
-3.76206e-12
2.20045e-12
-3.97749e-12
2.32402e-12
-4.20606e-12
2.45539e-12
-4.4475e-12
2.58929e-12
-4.70138e-12
2.72847e-12
-4.96796e-12
2.87544e-12
-5.24666e-12
3.03546e-12
-5.53964e-12
3.2094e-12
-5.84851e-12
3.39355e-12
-6.17315e-12
3.58699e-12
-6.51427e-12
3.7908e-12
-6.87243e-12
4.00682e-12
-7.24824e-12
4.23616e-12
-7.64234e-12
4.47899e-12
-8.05552e-12
4.7342e-12
-8.48897e-12
5.00134e-12
-8.9441e-12
5.27991e-12
-9.42233e-12
5.56943e-12
-9.92532e-12
5.87016e-12
-1.04547e-11
6.18259e-12
-1.10122e-11
6.50734e-12
-1.15993e-11
6.84524e-12
-1.22178e-11
7.19717e-12
-1.28692e-11
7.56414e-12
-1.35552e-11
7.94722e-12
-1.4277e-11
8.34745e-12
-1.50363e-11
8.76572e-12
-1.58347e-11
9.20252e-12
-1.66737e-11
9.65787e-12
-1.75554e-11
1.01314e-11
-1.84814e-11
1.06222e-11
-1.94538e-11
1.11287e-11
-2.0475e-11
1.16494e-11
-2.15472e-11
1.2183e-11
-2.26727e-11
1.27287e-11
-2.38538e-11
1.32856e-11
-2.50923e-11
1.38526e-11
-2.63895e-11
1.44277e-11
-2.7746e-11
1.50086e-11
-2.91619e-11
1.55914e-11
-3.06365e-11
1.61712e-11
-3.21685e-11
1.67428e-11
-3.37565e-11
1.73007e-11
-3.53985e-11
1.78406e-11
-3.70928e-11
1.83596e-11
-3.88366e-11
1.88564e-11
-4.06272e-11
1.93315e-11
-4.24614e-11
1.97878e-11
-4.43365e-11
2.02306e-11
-4.62504e-11
2.06673e-11
-4.8202e-11
2.11077e-11
-5.0192e-11
2.15636e-11
-5.22236e-11
2.20469e-11
-5.43023e-11
2.25691e-11
-5.64358e-11
2.31395e-11
-5.86344e-11
2.3763e-11
-6.09098e-11
2.44377e-11
-6.32743e-11
2.5151e-11
-6.5739e-11
2.58801e-11
-6.83139e-11
2.65899e-11
-7.10053e-11
2.72293e-11
-7.38139e-11
2.77284e-11
-7.67337e-11
2.79964e-11
-7.97531e-11
2.7925e-11
-8.28415e-11
2.73746e-11
-8.59394e-11
2.55519e-11
1.61574e-11
-8.7999e-11
2.07107e-13
-2.60558e-12
1.61063e-13
5.3903e-13
7.80522e-14
9.99359e-13
-1.1163e-14
1.05691e-12
-1.01735e-13
1.06533e-12
-1.94659e-13
1.07643e-12
-2.88097e-13
1.08415e-12
-3.8186e-13
1.09095e-12
-4.75782e-13
1.09639e-12
-5.70784e-13
1.10488e-12
-6.65969e-13
1.11406e-12
-7.62592e-13
1.12753e-12
-8.59928e-13
1.14231e-12
-9.58451e-13
1.161e-12
-1.058e-12
1.18127e-12
-1.15896e-12
1.20154e-12
-1.26246e-12
1.22989e-12
-1.36727e-12
1.25468e-12
-1.47539e-12
1.28698e-12
-1.58699e-12
1.32677e-12
-1.70115e-12
1.3655e-12
-1.81936e-12
1.41263e-12
-1.94245e-12
1.46828e-12
-2.0704e-12
1.52386e-12
-2.2039e-12
1.5827e-12
-2.34361e-12
1.6507e-12
-2.48968e-12
1.72162e-12
-2.64153e-12
1.79454e-12
-2.79976e-12
1.87705e-12
-2.96624e-12
1.97349e-12
-3.14361e-12
2.07597e-12
-3.33081e-12
2.17972e-12
-3.52772e-12
2.2866e-12
-3.73303e-12
2.40457e-12
-3.94686e-12
2.53667e-12
-4.17295e-12
2.68032e-12
-4.41164e-12
2.82682e-12
-4.66291e-12
2.97857e-12
-4.92722e-12
3.13854e-12
-5.20368e-12
3.31068e-12
-5.49412e-12
3.49854e-12
-5.80013e-12
3.69818e-12
-6.12181e-12
3.90723e-12
-6.45995e-12
4.12743e-12
-6.81503e-12
4.36034e-12
-7.18752e-12
4.60704e-12
-7.57843e-12
4.86824e-12
-7.98856e-12
5.14265e-12
-8.41903e-12
5.43008e-12
-8.87124e-12
5.73033e-12
-9.34653e-12
6.04288e-12
-9.8465e-12
6.36824e-12
-1.03728e-11
6.70697e-12
-1.0927e-11
7.05945e-12
-1.15104e-11
7.42666e-12
-1.2125e-11
7.80973e-12
-1.27725e-11
8.20957e-12
-1.34544e-11
8.6271e-12
-1.41722e-11
9.06322e-12
-1.49272e-11
9.51882e-12
-1.57212e-11
9.99465e-12
-1.6556e-11
1.04909e-11
-1.74334e-11
1.10072e-11
-1.83553e-11
1.15425e-11
-1.93238e-11
1.20958e-11
-2.03413e-11
1.26656e-11
-2.14101e-11
1.32507e-11
-2.25326e-11
1.38503e-11
-2.37112e-11
1.44634e-11
-2.49479e-11
1.50885e-11
-2.62441e-11
1.57232e-11
-2.76006e-11
1.63644e-11
-2.90174e-11
1.70076e-11
-3.04938e-11
1.76473e-11
-3.20289e-11
1.82775e-11
-3.36211e-11
1.88926e-11
-3.52684e-11
1.94876e-11