/*--------------------------------*- C++ -*----------------------------------*\
| =========                 |                                                 |
| \\      /  F ield         | OpenFOAM: The Open Source CFD Toolbox           |
|  \\    /   O peration     | Version:  2.4.0                                 |
|   \\  /    A nd           | Web:      www.OpenFOAM.org                      |
|    \\/     M anipulation  |                                                 |
\*---------------------------------------------------------------------------*/
FoamFile
{
    version     2.0;
    format      ascii;
    class       volScalarField;
    location    "0.015";
    object      alpha.water;
}
// * * * * * * * * * * * * * * * * * * * * * * * * * * * * * * * * * * * * * //

dimensions      [0 0 0 0 0 0 0];

internalField   nonuniform List<scalar> 
3600
(
1
1
1
1
1
1
1
1
1
1
1
1
1
1
1
1
1
1
1
1
1
1
1
1
1
1
1
1
1
1
1
1
1
1
1
1
1
1
1
1
1
1
1
1
1
1
1
1
1
1
1
1
1
1
1
1
1
1
1
1
1
1
1
1
1
1
1
1
1
1
1
1
1
1
1
1
1
1
1
1
1
1
1
1
1
1
1
1
1
1
1
1
1
1
1
1
1
1
1
1
1
1
1
1
1
1
1
1
1
1
1
1
1
1
1
1
1
1
1
1
1
1
1
1
1
1
1
1
1
1
1
1
1
1
1
1
1
1
1
1
1
1
1
1
1
1
1
1
1
1
1
1
1
1
1
1
1
1
1
1
1
1
1
1
1
1
1
1
1
1
1
1
1
1
1
1
1
1
1
1
1
1
1
1
1
1
1
1
1
1
1
1
1
1
1
1
1
1
1
1
1
1
1
1
1
1
1
0.999999
1
1
1
1
1
1
1
1
1
1
1
1
1
1
1
1
1
1
1
1
1
1
1
1
0.999996
0.999987
0.999997
0.999998
0.999998
0.999992
0.999996
0.999995
1
1
1
1
1
1
1
1
1
1
1
1
1
1
1
1
1
1
1
1
1
1
0.999997
0.999963
0.999971
0.999975
0.999974
0.999943
0.999964
0.999948
1
1
1
1
1
1
1
1
1
1
1
1
1
1
1
1
1
1
1
1
1
1
1
0.999985
0.999916
0.999769
0.999733
0.999591
0.999659
0.999594
1
1
1
1
1
1
1
1
1
1
1
1
1
1
1
1
1
1
1
1
1
1
1
0.999999
0.999744
0.99837
0.99786
0.99705
0.997175
0.996836
1
1
1
1
1
1
1
1
1
1
1
1
1
1
1
1
1
1
1
1
1
1
1
0.999998
0.99837
0.920067
0.800464
0.696054
0.679969
0.647877
1
1
1
1
1
1
1
1
1
1
1
1
1
1
1
1
1
1
1
1
1
1
1
0.999925
0.697778
0.277774
0.109362
0.0505343
0.0527521
0.0494653
1
1
1
1
1
1
1
1
1
1
1
1
1
1
1
1
1
1
1
1
1
1
1
0.901058
0.0710884
-4.91238e-08
1.21813e-16
-7.26682e-10
-1.82693e-09
-3.33663e-09
1
1
1
1
1
1
1
1
1
1
1
1
1
1
1
1
1
1
1
1
1
1
1.00001
0.281684
9.61387e-06
8.02945e-08
4.82753e-08
-4.2011e-09
-8.90756e-09
-1.65134e-08
1
1
1
1
1
1
1
1
1
1
1
1
1
1
1
1
1
1
1
1
1
0.999999
0.882167
0.0128499
-1.23248e-05
-2.30877e-09
-2.84297e-08
-2.01167e-08
-2.69e-08
-3.58522e-08
1
1
1
1
1
1
1
1
1
1
1
1
1
1
1
1
1
1
1
1
0.999996
0.978029
0.236339
5.35428e-07
-3.84789e-10
-1.74588e-06
-4.79546e-07
-1.04291e-07
-6.45326e-08
-5.27856e-08
1
1
1
1
1
1
1
1
1
1
1
1
1
1
1
1
1
1
1
0.999999
0.999938
0.69866
0.000422022
3.07118e-06
-2.28122e-07
-1.2236e-06
-7.71164e-07
-3.99455e-07
-1.81158e-07
-8.56132e-08
1
1
1
1
1
1
1
1
1
1
1
1
1
1
1
1
1
1
1
0.999992
0.964961
0.331986
0.000911783
1.46551e-05
-3.49334e-06
-4.47721e-07
-4.33407e-07
-3.16973e-07
-2.09533e-07
-1.40198e-07
1
1
1
1
1
1
1
1
1
1
1
1
1
1
1
1
1
1
0.999999
0.999964
0.876583
0.0950725
7.32384e-05
-1.63158e-05
-2.06732e-10
-2.34094e-07
-2.98601e-07
-3.01711e-07
-3.04854e-07
-3.09894e-07
1
1
1
1
1
1
1
1
1
1
1
1
1
1
1
1
1
1
0.999996
0.998575
0.639342
0.0436354
-2.79891e-07
1.02097e-06
1.16406e-06
-2.77023e-07
-4.07315e-07
-4.80087e-07
-5.37363e-07
-5.71059e-07
1
1
1
1
1
1
1
1
1
1
1
1
1
1
1
1
1
1
0.999988
0.95379
0.21476
2.13519e-06
1.9904e-06
7.28982e-06
7.57863e-06
-3.04177e-07
-4.75395e-07
-6.04868e-07
-7.08012e-07
-7.73261e-07
1
1
1
1
1
1
1
1
1
1
1
1
1
1
1
1
1
0.999999
0.999946
0.885953
0.107987
1.92315e-06
1.80578e-06
6.59227e-06
7.5684e-06
-2.59914e-07
-4.49351e-07
-6.04269e-07
-7.47739e-07
-8.57506e-07
1
1
1
1
1
1
1
1
1
1
1
1
1
1
1
1
1
0.999995
0.999988
0.941048
0.0264934
1.80794e-06
1.80836e-06
1.66992e-06
7.51741e-06
-1.86231e-07
-3.65372e-07
-5.17838e-07
-6.86391e-07
-8.42719e-07
1
1
1
1
1
1
1
1
1
1
1
1
1
1
1
1
1
1
0.99988
0.67457
5.40613e-06
1.8035e-06
1.47789e-06
5.61343e-07
1.0756e-07
-8.84849e-08
-2.40139e-07
-3.79264e-07
-5.58798e-07
-7.58306e-07
1
1
1
1
1
1
1
1
1
1
1
1
1
1
1
1
1
0.999987
0.986856
0.498983
0.00292604
3.26185e-06
1.77244e-06
3.03911e-06
1.3643e-08
5.70884e-11
-1.17481e-07
-2.36211e-07
-4.11903e-07
-6.43861e-07
1
1
1
1
1
1
1
1
1
1
1
1
1
1
1
1
0.999999
0.999967
0.93926
0.280072
1.84512e-05
4.98381e-05
4.59221e-05
8.96809e-05
4.79433e-07
1.05659e-07
-3.23311e-08
-1.26144e-07
-2.83101e-07
-5.26741e-07
1
1
1
1
1
1
1
1
1
1
1
1
1
1
1
1
0.999997
0.999994
0.921871
0.127913
1.40846e-05
4.82934e-05
0.000116825
0.000116825
2.39094e-05
2.75421e-07
3.84028e-09
-5.23754e-08
-1.83683e-07
-4.19421e-07
1
1
1
1
1
1
1
1
1
1
1
1
1
1
1
1
1
0.99998
0.89184
0.0351745
1.25514e-05
1.07183e-05
0.00011353
0.000116825
3.87409e-05
3.20821e-08
8.41248e-11
-1.37038e-08
-1.1713e-07
-3.24909e-07
1
1
1
1
1
1
1
1
1
1
1
1
1
1
1
1
0.999998
0.999884
0.709704
7.42297e-05
1.5837e-05
2.72515e-06
4.72866e-06
1.65929e-05
5.36349e-06
7.00099e-10
-4.04708e-10
-4.97941e-09
-8.10318e-08
-2.51522e-07
1
1
1
1
1
1
1
1
1
1
1
1
1
1
1
1
1
1
1
1
1
1
1
1
1
1
1
1
1
1
1
1
1
1
1
1
1
1
1
1
1
1
1
1
1
1
1
1
1
1
1
1
1
1
1
1
1
1
1
1
1
1
1
1
1
1
1
1
1
1
1
1
1
1
1
1
1
1
1
1
1
1
1
1
1
1
1
1
1
1
1
1
1
1
1
1
1
1
1
1
1
1
1
1
1
1
1
1
1
1
1
1
1
1
1
1
1
1
1
1
1
1
1
1
1
1
1
1
1
1
1
1
1
1
1
1
1
1
1
1
1
1
1
1
1
1
1
1
1
1
1
1
1
1
1
1
1
1
1
1
1
1
1
1
1
1
1
1
1
1
1
1
1
1
1
1
1
1
1
1
1
1
0.999999
1
1
1
1
1
1
1
1
1
1
1
1
1
1
1
1
1
1
1
1
1
1
1
1
1
1
1
0.999995
0.999996
0.999992
0.999998
0.999999
0.999997
0.999992
0.999999
1
1
1
1
1
1
1
1
1
1
1
1
1
1
1
1
1
1
1
1
1
1
0.999948
0.999964
0.999942
0.999974
0.999975
0.999971
0.999975
1
1
1
1
1
1
1
1
1
1
1
1
1
1
1
1
1
1
1
1
1
1
1
0.999594
0.999656
0.999587
0.999731
0.999767
0.999917
0.999985
1
1
1
1
1
1
1
1
1
1
1
1
1
1
1
1
1
1
1
1
1
1
1
0.996831
0.997159
0.99703
0.997845
0.998358
0.999741
0.999999
1
1
1
1
1
1
1
1
1
1
1
1
1
1
1
1
1
1
1
1
1
1
1
0.64749
0.679446
0.694782
0.798649
0.918826
0.998356
0.999998
1
1
1
1
1
1
1
1
1
1
1
1
1
1
1
1
1
1
1
1
1
1
1
0.0493866
0.0526407
0.0500746
0.107908
0.275327
0.695103
0.999925
1
1
1
1
1
1
1
1
1
1
1
1
1
1
1
1
1
1
1
1
1
1
1
-2.67315e-09
-1.39313e-09
-4.43409e-10
-6.47371e-11
-4.35027e-08
0.0696717
0.899588
1
1
1
1
1
1
1
1
1
1
1
1
1
1
1
1
1
1
1
1
1
1
1
-1.37333e-08
-6.80387e-09
-2.75029e-09
8.13507e-08
1.19491e-07
1.00792e-05
0.280168
1.00001
1
1
1
1
1
1
1
1
1
1
1
1
1
1
1
1
1
1
1
1
1
1
-3.01918e-08
-1.99861e-08
-1.47682e-08
-3.11754e-08
-1.68494e-09
-1.28013e-05
0.0131029
0.882317
0.999999
1
1
1
1
1
1
1
1
1
1
1
1
1
1
1
1
1
1
1
1
1
-4.54945e-08
-4.67463e-08
-8.47393e-08
-5.09264e-07
-2.0739e-06
-3.61685e-10
5.44518e-07
0.236568
0.977963
0.999996
1
1
1
1
1
1
1
1
1
1
1
1
1
1
1
1
1
1
1
1
-7.722e-08
-1.38716e-07
-2.31855e-07
-3.28954e-07
-4.08631e-07
-2.27181e-07
3.12643e-06
0.000444217
0.698036
0.999936
0.999999
1
1
1
1
1
1
1
1
1
1
1
1
1
1
1
1
1
1
1
-1.41283e-07
-2.21232e-07
-3.31775e-07
-4.47651e-07
-4.53887e-07
-3.59016e-06
1.49836e-05
0.000944655
0.332196
0.964978
0.999992
1
1
1
1
1
1
1
1
1
1
1
1
1
1
1
1
1
1
1
-3.10557e-07
-3.15034e-07
-3.16454e-07
-3.13167e-07
-2.42238e-07
-3.21038e-10
-1.69669e-05
7.63253e-05
0.0958907
0.876953
0.999964
0.999999
1
1
1
1
1
1
1
1
1
1
1
1
1
1
1
1
1
1
-5.76963e-07
-5.49648e-07
-4.96544e-07
-4.22972e-07
-2.86669e-07
1.27202e-06
1.07184e-06
-3.56796e-07
0.0440755
0.64127
0.998629
0.999996
1
1
1
1
1
1
1
1
1
1
1
1
1
1
1
1
1
1
-7.82278e-07
-7.20478e-07
-6.19718e-07
-4.88413e-07
-3.11371e-07
7.47614e-06
7.14158e-06
1.93619e-06
2.08344e-06
0.216564
0.95426
0.999988
1
1
1
1
1
1
1
1
1
1
1
1
1
1
1
1
1
1
-8.68557e-07
-7.59213e-07
-6.1636e-07
-4.58542e-07
-2.64654e-07
7.47815e-06
6.51513e-06
1.65353e-06
1.85539e-06
0.107954
0.886129
0.999946
0.999999
1
1
1
1
1
1
1
1
1
1
1
1
1
1
1
1
1
-8.55343e-07
-6.96009e-07
-5.26569e-07
-3.70672e-07
-1.90335e-07
6.54448e-06
1.46093e-06
1.58739e-06
1.65449e-06
0.0270085
0.94155
0.999988
0.999995
1
1
1
1
1
1
1
1
1
1
1
1
1
1
1
1
1
-7.72463e-07
-5.67281e-07
-3.85652e-07
-2.42986e-07
-9.48367e-08
4.37349e-12
8.64737e-08
1.17313e-06
1.58825e-06
6.66336e-06
0.676272
0.99988
1
1
1
1
1
1
1
1
1
1
1
1
1
1
1
1
1
1
-6.59875e-07
-4.21197e-07
-2.42127e-07
-1.208e-07
3.09658e-11
7.37509e-09
4.74598e-06
1.54762e-06
3.63157e-06
0.0028994
0.499034
0.986948
0.999987
1
1
1
1
1
1
1
1
1
1
1
1
1
1
1
1
1
-5.45173e-07
-2.95061e-07
-1.33119e-07
-3.84123e-08
5.8639e-08
2.62772e-07
9.22567e-05
5.47515e-05
5.03165e-05
1.91664e-05
0.281256
0.939874
0.999967
0.999999
1
1
1
1
1
1
1
1
1
1
1
1
1
1
1
1
-4.40952e-07
-1.97756e-07
-6.02803e-08
2.7731e-09
1.95771e-07
2.03184e-05
0.000112023
0.000112023
5.50476e-05
1.47271e-05
0.129082
0.922495
0.999994
0.999997
1
1
1
1
1
1
1
1
1
1
1
1
1
1
1
1
-3.48757e-07
-1.31225e-07
-2.18855e-08
8.38231e-11
2.41441e-08
3.2524e-05
0.000112023
0.00010758
1.11326e-05
1.2837e-05
0.0350048
0.891335
0.99998
1
1
1
1
1
1
1
1
1
1
1
1
1
1
1
1
1
-2.73548e-07
-9.32485e-08
-1.08512e-08
-1.41004e-10
4.3957e-10
4.46949e-06
1.11615e-05
3.72889e-06
3.5385e-06
1.82587e-05
7.63929e-05
0.707312
0.999884
0.999998
1
1
1
1
1
1
1
1
1
1
1
1
1
1
1
1
0.0485787
0.0697706
0.126468
0.223511
0.379609
0.591332
0.814201
0.984756
1
1
1
1
1
1
1
1
0.999998
0.999731
0.632687
0.0126297
4.74502e-06
1.61305e-06
1.10082e-07
2.94835e-08
8.68042e-10
9.19184e-11
-2.41226e-11
-9.45418e-09
-6.70718e-08
-1.98614e-07
4.8474e-11
3.35481e-10
2.46199e-07
1.8649e-06
0.000787654
0.0252894
0.12988
0.394998
0.833283
1
1
1
1
1
1
1
0.999998
0.999325
0.597052
0.00243354
3.9142e-06
3.9631e-06
7.87925e-06
3.8725e-07
1.50074e-07
1.82416e-11
-4.11311e-10
-1.20731e-08
-6.63698e-08
-1.78686e-07
4.80861e-11
3.50821e-11
3.35867e-10
4.52266e-07
1.86489e-06
1.52426e-05
0.000195138
0.00697569
0.178466
0.674271
0.963024
0.999178
1
1
1
1
0.999993
0.99696
0.530881
0.00237119
3.23127e-06
4.98438e-05
1.25606e-05
3.31913e-07
2.2401e-07
2.42136e-11
-1.58415e-09
-1.57564e-08
-6.55878e-08
-1.56552e-07
9.80132e-12
2.42547e-11
4.46354e-11
6.20907e-09
1.74095e-06
0.000115633
0.00128918
0.134997
0.511313
0.746674
0.951529
0.999999
0.999998
1
1
1
0.999992
0.995592
0.501149
0.00270849
1.50124e-06
6.47672e-06
2.34368e-08
1.17494e-09
1.25905e-11
-1.80084e-10
-3.24041e-09
-1.96859e-08
-6.28303e-08
-1.31201e-07
1.82097e-13
1.03056e-11
2.8967e-11
5.44818e-09
0.000186511
0.00512164
0.00654519
0.000177001
0.0198844
0.575041
0.947978
1
1
1
1
1
0.999994
0.990306
0.407883
1.50122e-06
9.1319e-07
2.97917e-07
1.15525e-07
1.26113e-07
7.19814e-09
-2.62814e-10
-4.3376e-09
-2.14137e-08
-5.59411e-08
-1.03792e-07
2.62154e-14
7.06267e-12
1.73409e-11
1.58165e-09
0.000119712
0.00163629
0.00163381
6.84188e-07
0.000415579
0.0637846
0.30507
0.633407
0.929998
1
1
1
0.999967
0.996366
0.513788
1.98126e-06
1.50127e-06
7.59651e-07
1.07062e-06
7.58097e-07
1.42333e-08
-8.10521e-11
-4.0028e-09
-1.94758e-08
-4.53113e-08
-7.70711e-08
4.0397e-15
1.81876e-12
8.55442e-12
3.93138e-08
9.24487e-06
1.67063e-06
5.29838e-08
2.87689e-07
6.19002e-07
7.94293e-06
0.000176654
0.072395
0.524823
0.988405
1
1
0.999998
0.998403
0.496521
2.85208e-06
4.06903e-06
9.39446e-06
6.49831e-06
6.24214e-07
3.52799e-09
1.13942e-10
-2.24374e-09
-1.44717e-08
-3.2919e-08
-5.36139e-08
4.66091e-16
2.07863e-13
1.25961e-11
7.77056e-10
6.96745e-09
9.25429e-08
2.76761e-08
7.5606e-09
2.87698e-07
1.10806e-05
0.000222352
0.0288207
0.340159
0.880746
1
1
0.999998
0.999869
0.598021
1.0009e-05
5.62815e-05
5.09797e-05
5.94541e-06
8.48323e-09
5.06586e-10
1.02102e-10
-5.78778e-10
-8.63578e-09
-2.12431e-08
-3.48812e-08
4.85733e-17
2.27277e-14
4.57639e-12
1.75594e-11
5.8426e-10
2.39102e-08
1.85278e-08
3.12787e-09
5.42638e-08
7.01597e-05
0.000386883
0.000238146
0.00942184
0.536485
1
0.999999
0.99998
0.960877
0.451937
9.39565e-05
0.000301655
4.9641e-05
7.75319e-08
4.75868e-09
4.48696e-10
1.48537e-10
8.53628e-11
-4.25337e-09
-1.2441e-08
-2.14088e-08
4.81577e-18
2.2194e-15
6.30438e-13
1.09623e-11
6.46451e-11
2.46003e-09
2.27603e-09
6.88383e-10
2.6592e-10
1.09258e-06
2.24966e-07
8.58232e-06
0.00240566
0.288865
0.960214
0.999978
0.999958
0.985798
0.189279
0.000322611
2.10929e-05
1.78505e-07
-3.37796e-09
1.71436e-10
1.16337e-10
8.49461e-11
-7.8408e-12
-2.24417e-09
-7.05379e-09
-1.23372e-08
4.83397e-19
2.22565e-16
6.36638e-14
8.29566e-12
1.81827e-11
2.19105e-10
1.88962e-10
1.00247e-10
1.34034e-10
2.58058e-10
3.25795e-08
1.13596e-05
1.30194e-05
2.45111e-05
0.617833
0.999958
0.999742
0.566157
0.0288937
4.73424e-06
1.72651e-07
-1.46373e-09
3.04827e-10
9.13512e-11
4.97065e-11
6.23702e-12
-1.93612e-10
-1.49387e-09
-3.95583e-09
-6.28443e-09
4.78184e-20
2.21097e-17
6.27844e-15
1.00832e-12
1.11483e-11
5.88299e-11
7.80382e-11
8.57194e-11
1.08571e-10
9.8639e-11
7.94962e-11
5.53705e-11
4.64471e-06
0.000464682
0.148788
0.729545
0.796914
4.70259e-05
6.58325e-06
-4.51638e-07
5.73618e-08
3.87699e-08
7.61443e-09
6.14328e-10
1.84448e-10
2.25912e-11
-1.94275e-10
-8.4023e-10
-1.77354e-09
-2.45275e-09
4.28459e-21
2.02933e-18
5.91345e-16
9.81272e-14
8.86905e-12
1.63133e-11
4.00041e-11
4.88316e-11
4.75938e-11
6.03004e-11
5.52043e-11
3.24215e-11
2.24541e-05
0.000530942
3.28369e-07
0.0697636
0.187801
0.010925
-3.8548e-06
-1.19426e-06
-1.50156e-07
-2.90268e-09
4.66108e-11
6.43525e-11
4.17218e-11
9.4365e-11
-2.11286e-11
-2.21796e-10
-4.99147e-10
-6.61468e-10
3.35963e-22
1.6352e-19
4.93555e-17
8.57381e-15
8.36587e-13
1.97312e-11
2.00437e-11
2.77588e-11
2.38356e-11
4.90483e-11
3.96801e-11
3.15955e-11
5.84305e-07
4.1921e-06
6.69261e-09
-2.95768e-06
2.54802e-05
6.897e-05
-2.70443e-11
-6.51168e-10
4.63006e-11
8.25472e-12
4.2395e-12
2.8911e-12
5.6599e-13
7.35263e-14
-6.54408e-12
-2.9439e-11
-6.80665e-11
-9.82808e-11
2.24706e-23
1.1273e-20
3.53764e-18
6.47622e-16
6.82351e-14
3.24868e-12
5.50349e-12
8.30476e-12
7.42499e-12
1.56672e-11
1.43848e-11
2.06584e-11
4.30424e-11
3.1577e-09
-6.69925e-09
6.19509e-09
9.5861e-08
4.00699e-09
-3.24562e-09
1.45236e-11
5.48794e-11
5.1223e-11
4.42242e-11
1.00668e-11
1.07284e-12
5.95263e-14
3.5033e-15
6.39583e-16
8.96589e-17
6.06122e-18
1.25825e-24
6.5331e-22
2.1393e-19
4.14944e-17
4.74987e-15
3.72079e-13
9.41701e-13
1.58698e-12
1.56981e-12
3.79242e-12
2.87846e-12
3.15598e-12
1.34884e-11
5.63711e-11
3.79977e-11
-5.08832e-09
7.57622e-08
1.82069e-11
1.3974e-11
1.85505e-11
1.43187e-11
4.79559e-12
9.70347e-13
1.64367e-13
2.30082e-14
2.57471e-15
2.40203e-16
3.16013e-17
7.57663e-18
1.45605e-18
5.82241e-26
3.14383e-23
1.07834e-20
2.22506e-18
2.78181e-16
3.13907e-14
1.11442e-13
2.15533e-13
2.60473e-13
6.78034e-13
4.72719e-13
3.32157e-13
2.90128e-12
1.21594e-11
2.26703e-11
1.59149e-11
1.36779e-11
5.22039e-12
1.77482e-12
5.03708e-12
1.67068e-12
2.87887e-13
3.04091e-14
2.30066e-15
1.48876e-16
9.65831e-18
7.06972e-19
6.63111e-20
6.9142e-21
4.28151e-22
2.20819e-27
1.24611e-24
4.49365e-22
9.89092e-20
1.35429e-17
2.00806e-15
9.67112e-15
2.20181e-14
3.33928e-14
9.05038e-14
6.1987e-14
3.65206e-14
2.95017e-14
2.34218e-13
2.32321e-11
3.36118e-12
2.85321e-12
4.29869e-13
4.95673e-14
4.7787e-15
3.92365e-16
3.11262e-17
2.59567e-18
2.32903e-19
2.35737e-20
2.79448e-21
4.1306e-22
7.10493e-23
1.07461e-23
9.09004e-25
6.82843e-29
4.04883e-26
1.54053e-23
3.62245e-21
5.43009e-19
9.91621e-17
6.36209e-16
1.71944e-15
3.31015e-15
9.12696e-15
6.19168e-15
3.23256e-15
1.40746e-15
6.09429e-16
7.60523e-15
8.36893e-16
8.80314e-17
1.31212e-17
2.56998e-18
5.33656e-19
1.05282e-19
1.87186e-20
2.98312e-21
4.22971e-22
5.28815e-23
5.79585e-24
5.4683e-25
4.44056e-26
3.01625e-27
1.35058e-28
1.71711e-30
1.07657e-27
4.33906e-25
1.09111e-22
1.78779e-20
3.82324e-18
3.23252e-17
1.0348e-16
2.52844e-16
6.9789e-16
4.59382e-16
2.03418e-16
7.151e-17
2.40899e-17
6.78907e-18
1.7363e-18
4.21831e-19
9.79653e-20
2.10667e-20
4.13889e-21
7.38377e-22
1.20048e-22
1.77128e-23
2.37113e-24
2.8201e-25
2.90263e-26
2.44023e-27
1.50803e-28
5.86707e-30
1.07661e-31
3.50283e-32
2.34027e-29
1.00386e-26
2.70228e-24
4.83252e-22
1.15907e-19
1.2818e-18
4.83367e-18
1.47606e-17
4.02047e-17
2.47238e-17
8.73167e-18
2.48996e-18
6.14874e-19
1.34524e-19
2.74562e-20
5.34245e-21
9.90175e-22
1.71398e-22
2.73622e-23
4.00395e-24
5.33625e-25
6.43905e-26
6.9382e-27
6.60761e-28
5.45327e-29
3.83107e-30
2.20929e-31
9.37524e-33
2.13868e-34
5.78324e-34
4.15695e-31
1.90861e-28
5.50643e-26
1.07187e-23
2.78353e-21
3.98784e-20
1.7578e-19
6.51475e-19
1.71774e-18
9.31322e-19
2.70553e-19
6.1276e-20
1.13569e-20
1.88556e-21
2.97484e-22
4.54143e-23
6.67405e-24
9.2772e-25
1.20097e-25
1.43073e-26
1.5542e-27
1.52485e-28
1.33685e-29
1.0271e-30
6.72691e-32
3.58011e-33
1.43599e-34
3.837e-36
5.12861e-38
7.7053e-36
6.03045e-33
2.98494e-30
9.24586e-28
1.95461e-25
5.32188e-23
9.75468e-22
4.97556e-21
2.14812e-20
5.31378e-20
2.39011e-20
5.6799e-21
9.91586e-22
1.44262e-22
1.89308e-23
2.33991e-24
2.76401e-25
3.11542e-26
3.32002e-27
3.31038e-28
3.05946e-29
2.59597e-30
2.00029e-31
1.37988e-32
8.37175e-34
4.35574e-35
1.87441e-36
6.28002e-38
1.45588e-39
1.73145e-41
8.25e-38
7.13894e-35
3.84486e-32
1.28211e-29
2.93428e-27
8.15395e-25
1.87719e-23
1.09323e-22
5.22672e-22
1.15198e-21
4.18753e-22
7.58812e-23
9.93016e-24
1.0986e-24
1.11546e-25
1.07814e-26
1.00054e-27
8.86393e-29
7.41027e-30
5.7754e-31
4.14971e-32
2.71961e-33
1.60733e-34
8.4509e-36
3.88099e-37
1.51702e-38
4.85347e-40
1.19287e-41
2.00209e-43
1.70818e-45
7.05298e-40
6.88621e-37
4.08558e-34
1.47308e-31
3.63612e-29
1.00793e-26
2.84313e-25
1.85718e-24
9.26537e-24
1.67294e-23
4.76576e-24
6.27423e-25
6.18315e-26
5.21116e-27
4.00406e-28
2.89949e-29
2.00454e-30
1.32448e-31
8.31234e-33
4.90856e-34
2.69697e-35
1.36155e-36
6.22638e-38
2.53605e-39
9.00912e-41
2.7143e-42
6.66206e-44
1.24938e-45
1.58953e-47
1.01854e-49
4.76415e-42
5.39739e-39
3.58872e-36
1.40906e-33
3.73513e-31
1.01327e-28
3.39522e-27
2.4301e-26
1.18127e-25
1.60831e-25
3.3578e-26
3.12468e-27
2.23047e-28
1.40294e-29
8.14504e-31
4.43726e-32
2.27868e-33
1.10028e-34
4.96968e-36
2.08614e-37
8.07915e-39
2.86243e-40
9.18289e-42
2.63204e-43
6.61811e-45
1.42219e-46
2.51115e-48
3.41702e-50
3.17914e-52
1.498e-54
2.49605e-44
3.41891e-41
2.61191e-38
1.12991e-35
3.20182e-33
8.36768e-31
3.2137e-29
2.44657e-28
1.07105e-27
9.93435e-28
1.33486e-28
8.46838e-30
4.0517e-31
1.7189e-32
6.89119e-34
2.66534e-35
9.93913e-37
3.54129e-38
1.19139e-39
3.7386e-41
1.08115e-42
2.84601e-44
6.72859e-46
1.4063e-47
2.54683e-49
3.88936e-51
4.81347e-53
4.52916e-55
2.87663e-57
9.14181e-60
9.78401e-47
1.73059e-43
1.57845e-40
7.67014e-38
2.31462e-35
5.75368e-33
2.43671e-31
1.90545e-30
6.88094e-30
3.84553e-30
2.78641e-31
1.19879e-32
3.93543e-34
1.10896e-35
2.8449e-37
6.83822e-39
1.56078e-40
3.39839e-42
7.05334e-44
1.38874e-45
2.57247e-47
4.4313e-49
6.99301e-51
9.92296e-53
1.23677e-54
1.3132e-56
1.1381e-58
7.53313e-61
3.37374e-63
7.56647e-66
2.64509e-49
6.82464e-46
7.92173e-43
4.46603e-40
1.43336e-37
3.35886e-35
1.50829e-33
1.16799e-32
3.18655e-32
9.698e-33
3.24649e-34
7.8609e-36
1.57548e-37
2.76541e-39
4.3947e-41
6.43558e-43
8.75285e-45
1.10755e-46
1.30118e-48
1.41287e-50
1.40886e-52
1.27948e-54
1.04718e-56
7.61853e-59
4.83692e-61
2.61114e-63
1.15287e-65
3.90803e-68
9.03417e-71
1.05696e-73
3.93441e-52
1.97368e-48
3.28105e-45
2.26861e-42
7.7784e-40
1.71123e-37
7.85961e-36
5.84037e-35
1.13461e-34
1.81996e-35
2.06113e-37
1.69673e-39
1.17743e-41
7.20223e-44
3.98492e-46
2.02575e-48
9.53588e-51
4.16659e-53
1.688e-55
6.31889e-58
2.17414e-60
6.82657e-63
1.93746e-65
4.90635e-68
1.08875e-70
2.06236e-73
3.20452e-76
3.82685e-79
3.11216e-82
1.27658e-85
-2.14956e-07
-7.60897e-08
-1.23975e-08
-4.96017e-11
1.19331e-10
8.27083e-10
2.191e-08
5.62785e-07
2.41227e-06
5.63616e-06
0.0123068
0.632499
0.999732
0.999998
1
1
1
1
1
1
1
1
0.984903
0.814341
0.591252
0.379527
0.223435
0.126435
0.0697417
0.0485582
-1.91484e-07
-7.38344e-08
-1.47841e-08
-4.51758e-10
2.1476e-10
1.30134e-07
3.09727e-07
1.15988e-05
8.18126e-06
5.42297e-06
0.00260635
0.595706
0.999294
0.999998
1
1
1
1
1
1
1
0.832391
0.395162
0.129849
0.0252203
0.000781057
1.84981e-06
2.44061e-07
3.25096e-10
4.83883e-11
-1.65728e-07
-7.13866e-08
-1.80969e-08
-1.61293e-09
1.82806e-09
1.17571e-07
1.49673e-08
1.50351e-05
5.13126e-05
2.02091e-06
0.00244886
0.530188
0.996917
0.999993
1
1
1
1
0.999205
0.962348
0.67127
0.175813
0.00651828
0.000192643
1.47906e-05
1.84981e-06
4.50797e-07
3.25517e-10
3.30826e-11
4.80113e-11
-1.37199e-07
-6.69047e-08
-2.15351e-08
-3.26123e-09
-1.68883e-10
5.45168e-12
6.93069e-10
2.65251e-08
4.86418e-06
9.75393e-07
0.00257929
0.500688
0.995576
0.999992
1
1
0.999999
0.999998
0.999999
0.950771
0.746222
0.509861
0.131589
0.00125957
0.000106958
1.64312e-06
5.24979e-09
4.308e-11
2.39855e-11
9.78942e-12
-1.07408e-07
-5.85102e-08
-2.27175e-08
-4.38373e-09
-2.59715e-10
3.6168e-09
1.71847e-07
1.35033e-07
3.50083e-07
6.74294e-07
8.9635e-07
0.407401
0.990271
0.999993
1
1
1
1
1
0.949757
0.573978
0.0197231
0.000191821
0.00674674
0.00489835
0.000141923
4.30269e-09
2.67299e-11
9.88203e-12
1.68034e-13
-7.90898e-08
-4.68262e-08
-2.03401e-08
-4.101e-09
-1.03622e-10
8.42787e-09
7.63273e-07
1.34277e-06
6.74137e-07
9.75393e-07
8.79964e-07
0.514191
0.996377
0.999967
1
1
1
0.931557
0.641515
0.316255
0.0673817
0.000474892
6.92943e-07
0.00167773
0.00155335
9.94914e-05
1.29578e-09
1.60853e-11
6.10479e-12
2.09775e-14
-5.47092e-08
-3.3816e-08
-1.50494e-08
-2.38653e-09
1.81293e-10
3.23848e-09
5.79811e-07
7.36727e-06
1.0114e-05
3.21033e-06
1.37509e-06
0.495661
0.998396
0.999998
1
1
0.987628
0.523783
0.0724726
0.000165461
8.06514e-06
6.30418e-07
2.91943e-07
1.44832e-07
6.52834e-06
8.91874e-06
2.46026e-08
8.5404e-12
1.48175e-12
3.24842e-15
-3.5522e-08
-2.1808e-08
-9.03189e-09
-6.99502e-10
7.81378e-11
5.26368e-10
8.21077e-09
6.32392e-06
5.15704e-05
5.63368e-05
8.27612e-06
0.598244
0.999869
0.999997
1
1
0.879605
0.339226
0.0286241
0.000223638
1.12695e-05
2.91957e-07
8.30744e-09
2.72807e-08
1.32904e-07
5.79661e-09
6.37388e-10
1.20582e-11
1.7155e-13
3.78342e-16
-2.17978e-08
-1.28069e-08
-4.51497e-09
4.61211e-11
1.13252e-10
3.76963e-10
3.80473e-09
6.44593e-08
4.83431e-05
0.000299096
9.35204e-05
0.450531
0.959641
0.999979
0.999999
1
0.534504
0.00919126
0.000233137
0.000372679
7.0921e-05
5.75182e-08
3.70202e-09
1.44499e-08
2.55972e-08
4.88549e-10
1.88298e-11
4.2512e-12
1.9249e-14
4.05031e-17
-1.25306e-08
-7.25069e-09
-2.36094e-09
-2.32872e-11
9.90203e-11
1.22213e-10
2.11033e-10
-2.41634e-09
1.91021e-07
2.13548e-05
0.000319016
0.187643
0.984516
0.999956
0.999977
0.960287
0.287922
0.00233445
9.5726e-06
2.5115e-07
1.12232e-06
2.56173e-10
8.04626e-10
1.71849e-09
2.19318e-09
6.05258e-11
1.4443e-11
5.46993e-13
1.91081e-15
4.13198e-18
-6.32764e-09
-4.01693e-09
-1.52625e-09
-1.90021e-10
5.54136e-12
5.37239e-11
9.48597e-11
2.29182e-10
-1.37269e-09
1.8499e-07
4.58857e-06
0.0284428
0.566274
0.999739
0.999956
0.617493
2.6606e-05
1.41001e-05
1.33023e-05
1.00201e-07
2.51393e-10
1.39588e-10
1.06214e-10
1.76414e-10
2.20794e-10
1.71739e-11
7.17401e-12
5.43365e-14
1.91262e-16
4.15859e-19
-2.44037e-09
-1.77789e-09
-8.34663e-10
-1.88242e-10
1.97546e-11
1.67317e-10
5.25272e-10
6.742e-09
3.49499e-08
5.48753e-08
-4.52641e-07
6.47804e-06
4.72954e-05
0.796917
0.729484
0.148596
0.000459719
4.72466e-06
5.15126e-11
6.90284e-11
1.08053e-10
1.09511e-10
9.15291e-11
7.76249e-11
4.88775e-11
1.14646e-11
8.46088e-13
5.40657e-15
1.9094e-17
4.11498e-20
-6.53587e-10
-4.9872e-10
-2.20331e-10
-2.27197e-11
8.15665e-11
4.27054e-11
6.43394e-11
5.04766e-11
-3.78467e-09
-1.45587e-07
-1.16528e-06
-3.77544e-06
0.0109298
0.187472
0.0698809
3.1847e-07
0.000525517
2.22594e-05
2.91389e-11
5.48454e-11
6.51983e-11
5.36179e-11
5.21904e-11
4.22771e-11
1.62197e-11
7.13108e-12
8.34765e-14
5.11027e-16
1.75078e-18
3.67422e-21
-9.63635e-11
-6.70997e-11
-2.86044e-11
-6.26635e-12
8.48326e-14
5.59019e-13
2.97518e-12
4.30014e-12
8.14477e-12
4.84843e-11
-7.8003e-10
-3.25101e-11
6.578e-05
2.4611e-05
-2.99794e-06
6.30425e-09
4.10203e-06
5.8218e-07
2.83199e-11
4.0299e-11
5.41997e-11
2.65932e-11
2.90515e-11
2.02516e-11
1.93251e-11
6.91821e-13
7.37689e-15
4.27397e-17
1.40912e-19
2.87353e-22
7.65236e-18
1.00043e-16
6.7237e-16
3.5524e-15
5.77847e-14
1.02144e-12
9.51481e-12
4.24464e-11
6.42726e-11
5.76859e-11
6.66521e-12
-4.04923e-09
4.04289e-09
9.07877e-08
5.83239e-09
-6.39148e-09
3.02919e-09
4.06202e-11
1.88216e-11
1.56081e-11
1.76497e-11
8.17405e-12
8.84739e-12
5.45441e-12
3.10808e-12
5.77033e-14
5.61857e-16
3.06997e-18
9.71516e-21
1.92043e-23
1.6434e-18
8.31491e-18
3.36557e-17
2.43869e-16
2.56126e-15
2.27848e-14
1.62891e-13
9.62455e-13
4.71365e-12
1.40938e-11
1.76776e-11
1.98367e-11
1.86776e-11
7.85452e-08
-2.90367e-09
3.73625e-11
5.40726e-11
1.33091e-11
2.98787e-12
3.25054e-12
4.35803e-12
1.74187e-12
1.73289e-12
9.26276e-13
3.49572e-13
4.07254e-15
3.61659e-17
1.85996e-19
5.6372e-22
1.07685e-24
5.17665e-22
8.28161e-21
7.5624e-20
7.50307e-19
9.83478e-18
1.4765e-16
2.2003e-15
2.78309e-14
2.53633e-13
1.43413e-12
4.2869e-12
1.77768e-12
5.40025e-12
1.3993e-11
1.59143e-11
2.24386e-11
1.20546e-11
2.77374e-12
3.42311e-13
5.44863e-13
7.95047e-13
2.92695e-13
2.41628e-13
1.09339e-13
2.90035e-14
2.39852e-16
1.94264e-18
9.39241e-21
2.72053e-23
5.0043e-26
1.39509e-24
1.56248e-23
9.64516e-23
5.03134e-22
3.01675e-21
2.36946e-20
2.30558e-19
2.60777e-18
3.19323e-17
4.07442e-16
4.96101e-15
5.15728e-14
4.48024e-13
2.9607e-12
3.36058e-12
2.32419e-11
2.10886e-13
2.93453e-14
3.89569e-14
7.20374e-14
1.08143e-13
3.8015e-14
2.53005e-14
9.49291e-15
1.8277e-15
1.17045e-17
8.65108e-20
3.92841e-22
1.08472e-24
1.91325e-27
2.20199e-28
4.15051e-27
5.40913e-26
6.17148e-25
6.28363e-24
5.62241e-23
4.45296e-22
3.11979e-21
1.9445e-20
1.08615e-19
5.45857e-19
2.57754e-18
1.25471e-17
7.8096e-17
7.0439e-16
6.3098e-15
6.33201e-16
1.47545e-15
3.48885e-15
7.21994e-15
1.10952e-14
3.82797e-15
2.01058e-15
6.26125e-16
8.90331e-17
4.71141e-19
3.18138e-21
1.35584e-23
3.55825e-26
5.98751e-29
1.21462e-31
6.45848e-30
1.6352e-28
2.62185e-27
3.10437e-26
3.0109e-25
2.53017e-24
1.88959e-23
1.28047e-22
7.87068e-22
4.40633e-21
2.24011e-20
1.04016e-19
4.47039e-19
1.83585e-18
7.16463e-18
2.54508e-17
7.63692e-17
2.21687e-16
5.36673e-16
8.61709e-16
2.97575e-16
1.22857e-16
3.19606e-17
3.39581e-18
1.55809e-20
9.63748e-23
3.85313e-25
9.57703e-28
1.52792e-30
2.52995e-34
1.05566e-32
2.44118e-31
4.19286e-30
5.93387e-29
7.16193e-28
7.5005e-27
6.9486e-26
5.75118e-25
4.31166e-24
2.9453e-23
1.84461e-22
1.0656e-21
5.74913e-21
2.95416e-20
1.44753e-19
6.62668e-19
2.7031e-18
9.68929e-18
2.89457e-17
5.03407e-17
1.76987e-17
5.81739e-18
1.27561e-18
1.02358e-19
4.23283e-22
2.40561e-24
9.01585e-27
2.11281e-29
3.1712e-32
6.22249e-38
4.41815e-36
1.61755e-34
3.98419e-33
7.43164e-32
1.12948e-30
1.46564e-29
1.66825e-28
1.6979e-27
1.56144e-26
1.30977e-25
1.0113e-24
7.27331e-24
4.94868e-23
3.24211e-22
2.05686e-21
1.24248e-20
6.75613e-20
3.04409e-19
1.09484e-18
2.17809e-18
7.96348e-19
2.1422e-19
4.00063e-20
2.45307e-21
9.46456e-24
4.95265e-26
1.73757e-28
3.81715e-31
5.33791e-34
2.13855e-41
1.70846e-39
7.20832e-38
2.12403e-36
4.89391e-35
9.34848e-34
1.5337e-32
2.21518e-31
2.86666e-30
3.37129e-29
3.64277e-28
3.65123e-27
3.427e-26
3.04351e-25
2.58107e-24
2.0936e-23
1.60146e-22
1.10808e-21
6.44238e-21
2.81828e-20
6.81745e-20
2.67805e-20
6.1357e-21
9.87904e-22
4.7068e-23
1.74323e-25
8.42202e-28
2.75994e-30
5.64224e-33
7.26193e-36
2.15405e-45
2.38018e-43
1.38066e-41
5.52803e-40
1.70959e-38
4.3419e-37
9.40805e-36
1.78375e-34
3.0129e-33
4.59459e-32
6.39682e-31
8.21635e-30
9.84349e-29
1.11317e-27
1.20189e-26
1.24627e-25
1.23109e-24
1.11887e-23
8.66379e-23
4.95712e-22
1.49539e-21
6.64785e-22
1.3638e-22
1.92187e-23
7.27305e-25
2.65033e-27
1.18539e-29
3.61625e-32
6.81443e-35
7.94741e-38
1.31487e-49
1.92334e-47
1.46841e-45
7.69594e-44
3.09972e-42
1.02052e-40
2.85565e-39
6.9796e-38
1.52105e-36
3.00518e-35
5.45967e-34
9.23611e-33
1.4714e-31
2.22859e-30
3.22943e-29
4.47322e-28
5.84885e-27
6.99339e-26
7.20035e-25
5.65204e-24
2.20091e-23
1.20266e-23
2.34375e-24
2.94662e-25
9.10568e-27
3.3363e-29
1.38503e-31
3.91305e-34
6.71093e-37
6.94795e-40
2.00969e-54
3.95146e-52
4.09468e-50
2.94017e-48
1.63821e-46
7.53296e-45
2.97002e-43
1.02998e-41
3.19844e-40
9.01074e-39
2.3262e-37
5.54806e-36
1.23114e-34
2.55771e-33
4.99942e-32
9.21652e-31
1.59556e-29
2.55417e-28
3.61994e-27
3.99295e-26
2.11993e-25
1.56551e-25
3.10316e-26
3.56784e-27
9.30673e-29
3.49081e-31
1.34917e-33
3.50187e-36
5.37073e-39
4.79878e-42
1.21049e-59
3.53054e-57
5.37253e-55
5.59807e-53
4.4675e-51
2.90244e-49
1.59504e-47
7.61268e-46
3.21751e-44
1.22294e-42
4.23515e-41
1.35242e-39
4.02932e-38
1.13349e-36
3.04613e-35
7.89274e-34
1.97462e-32
4.68009e-31
9.89371e-30
1.60127e-28
1.31494e-27
1.44993e-27
3.16257e-28
3.42942e-29
7.84167e-31
3.05413e-33
1.1026e-35
2.59632e-38
3.47171e-41
2.56904e-44
1.02679e-65
4.24213e-63
9.14165e-61
1.3511e-58
1.5352e-56
1.42926e-54
1.13633e-52
7.94906e-51
5.00681e-49
2.89276e-47
1.55634e-45
7.88973e-44
3.80073e-42
1.74848e-40
7.6882e-39
3.21655e-37
1.26384e-35
4.53578e-34
1.4063e-32
3.38416e-31
5.10599e-30
9.5205e-30
2.49453e-30
2.64446e-31
5.519e-33
2.25614e-35
7.62801e-38
1.59702e-40
1.79115e-43
1.02789e-46
1.37767e-73
1.09456e-70
4.57678e-68
1.32318e-65
2.95834e-63
5.43422e-61
8.51409e-59
1.16672e-56
1.42363e-54
1.56757e-52
1.5737e-50
1.45211e-48
1.23938e-46
9.8284e-45
7.25692e-43
4.98177e-41
3.15714e-39
1.81846e-37
9.25479e-36
3.97917e-34
1.27987e-32
4.509e-32
1.5492e-32
1.66692e-33
3.30557e-35
1.42852e-37
4.5227e-40
8.14468e-43
7.18655e-46
2.83388e-49
1.63794e-85
3.74884e-82
4.48413e-79
3.6972e-76
2.35743e-73
1.23769e-70
5.56128e-68
2.19379e-65
7.73279e-63
2.46658e-60
7.18674e-58
1.92619e-55
4.77362e-53
1.09763e-50
2.34427e-48
4.64039e-46
8.4521e-44
1.39677e-41
2.04848e-39
2.56793e-37
2.38686e-35
1.63802e-34
7.84863e-35
8.8563e-36
1.73005e-37
7.92563e-40
2.33514e-42
3.4191e-45
2.11005e-48
4.30756e-52
)
;

boundaryField
{
    leftWall
    {
        type            zeroGradient;
    }
    rightWall
    {
        type            zeroGradient;
    }
    lowerWall
    {
        type            zeroGradient;
    }
    atmosphere
    {
        type            inletOutlet;
        inletValue      uniform 0;
        value           nonuniform List<scalar> 
120
(
0.0485787
4.8474e-11
4.80861e-11
9.80132e-12
1.82097e-13
2.62154e-14
4.0397e-15
4.66091e-16
4.85733e-17
4.81577e-18
4.83397e-19
4.78184e-20
4.28459e-21
3.35963e-22
2.24706e-23
1.25825e-24
5.82241e-26
2.20819e-27
6.82843e-29
1.71711e-30
3.50283e-32
5.78324e-34
7.7053e-36
8.25e-38
7.05298e-40
4.76415e-42
2.49605e-44
9.78401e-47
2.64509e-49
3.93441e-52
3.93441e-52
1.97368e-48
3.28105e-45
2.26861e-42
7.7784e-40