/*--------------------------------*- C++ -*----------------------------------*\
| =========                 |                                                 |
| \\      /  F ield         | OpenFOAM: The Open Source CFD Toolbox           |
|  \\    /   O peration     | Version:  2.4.0                                 |
|   \\  /    A nd           | Web:      www.OpenFOAM.org                      |
|    \\/     M anipulation  |                                                 |
\*---------------------------------------------------------------------------*/
FoamFile
{
    version     2.0;
    format      ascii;
    class       volVectorField;
    location    "1.3";
    object      U;
}
// * * * * * * * * * * * * * * * * * * * * * * * * * * * * * * * * * * * * * //

dimensions      [0 1 -1 0 0 0 0];

internalField   nonuniform List<vector> 
2400
(
(-0.00177672 0.000888481 0)
(-0.00536973 0.000908254 0)
(-0.00908044 0.000947127 0)
(-0.0129867 0.00100609 0)
(-0.017169 0.00108521 0)
(-0.0217085 0.00118469 0)
(-0.0266859 0.0013042 0)
(-0.0321791 0.00144261 0)
(-0.0382587 0.00159735 0)
(-0.0449809 0.00176364 0)
(-0.0523761 0.00193351 0)
(-0.0604345 0.00209451 0)
(-0.0690843 0.00222815 0)
(-0.0781644 0.00230821 0)
(-0.0873909 0.00229921 0)
(-0.0963201 0.00215608 0)
(-0.104313 0.00182609 0)
(-0.110516 0.00125376 0)
(-0.113848 0.000388239 0)
(-0.113095 -0.000785126 0)
(-0.00177083 0.00266269 0)
(-0.00535195 0.00272232 0)
(-0.00905106 0.00283928 0)
(-0.0129472 0.00301656 0)
(-0.0171214 0.0032546 0)
(-0.0216558 0.00355404 0)
(-0.026633 0.00391405 0)
(-0.032133 0.00433138 0)
(-0.0382295 0.00479849 0)
(-0.0449822 0.00530127 0)
(-0.0524262 0.00581594 0)
(-0.0605565 0.00630514 0)
(-0.0693059 0.00671319 0)
(-0.0785164 0.00696082 0)
(-0.0879033 0.00694032 0)
(-0.0970156 0.00651445 0)
(-0.105198 0.00552251 0)
(-0.111572 0.0037978 0)
(-0.115024 0.00120167 0)
(-0.114447 -0.00230693 0)
(-0.00174996 0.00442349 0)
(-0.00528883 0.00452241 0)
(-0.00894472 0.00471755 0)
(-0.0127964 0.00501315 0)
(-0.0169245 0.00541034 0)
(-0.0214116 0.00591042 0)
(-0.0263407 0.00651238 0)
(-0.0317939 0.00721128 0)
(-0.0378476 0.00799523 0)
(-0.0445666 0.00884153 0)
(-0.0519935 0.00971143 0)
(-0.0601341 0.0105436 0)
(-0.0689365 0.0112463 0)
(-0.0782627 0.0116876 0)
(-0.0878526 0.0116875 0)
(-0.0972807 0.011014 0)
(-0.105912 0.00939362 0)
(-0.112869 0.00654077 0)
(-0.117002 0.00222358 0)
(-0.117051 -0.00363884 0)
(-0.0017208 0.00615934 0)
(-0.00520094 0.00629713 0)
(-0.00879724 0.00657001 0)
(-0.0125883 0.00698326 0)
(-0.0166549 0.00753905 0)
(-0.0210803 0.00823959 0)
(-0.0259494 0.00908422 0)
(-0.0313472 0.010067 0)
(-0.0373558 0.0111727 0)
(-0.0440477 0.0123713 0)
(-0.0514771 0.0136109 0)
(-0.0596656 0.0148083 0)
(-0.0685824 0.015838 0)
(-0.0781164 0.0165185 0)
(-0.0880379 0.0165989 0)
(-0.0979506 0.015751 0)
(-0.107237 0.0135807 0)
(-0.115009 0.00966686 0)
(-0.120056 0.00365036 0)
(-0.121003 -0.00462058 0)
(-0.00168198 0.00786123 0)
(-0.00508404 0.00803747 0)
(-0.0086011 0.00838752 0)
(-0.0123114 0.00891772 0)
(-0.0162957 0.00963162 0)
(-0.0206382 0.0105328 0)
(-0.025426 0.0116216 0)
(-0.0307483 0.0128921 0)
(-0.0366938 0.0143271 0)
(-0.0433454 0.0158911 0)
(-0.0507723 0.017521 0)
(-0.0590171 0.0191151 0)
(-0.0680771 0.0205172 0)
(-0.077877 0.0214995 0)
(-0.0882302 0.0217421 0)
(-0.0987831 0.0208183 0)
(-0.108947 0.0182023 0)
(-0.117828 0.0133155 0)
(-0.124139 0.00563778 0)
(-0.126352 -0.00509016 0)
(-0.00163361 0.00951955 0)
(-0.00493839 0.00973373 0)
(-0.0083566 0.0101601 0)
(-0.0119658 0.0108063 0)
(-0.0158468 0.0116774 0)
(-0.0200846 0.0127791 0)
(-0.0247688 0.0141136 0)
(-0.0299934 0.0156763 0)
(-0.0358551 0.0174495 0)
(-0.0424492 0.0193946 0)
(-0.0498632 0.0214406 0)
(-0.0581652 0.0234703 0)
(-0.0673874 0.025302 0)
(-0.0775005 0.026666 0)
(-0.0883743 0.0271768 0)
(-0.0997155 0.0263083 0)
(-0.110983 0.0233901 0)
(-0.121285 0.0176576 0)
(-0.129249 0.00838036 0)
(-0.133161 -0.00487446 0)
(-0.00157584 0.0111248 0)
(-0.00476438 0.0113763 0)
(-0.0080643 0.0118779 0)
(-0.0115522 0.0126385 0)
(-0.0153086 0.0136656 0)
(-0.0194193 0.0149673 0)
(-0.0239764 0.0165487 0)
(-0.0290791 0.018408 0)
(-0.0348331 0.0205292 0)
(-0.0413481 0.0228733 0)
(-0.0487323 0.0253648 0)
(-0.0570837 0.0278758 0)
(-0.0664758 0.0302046 0)
(-0.0769353 0.0320466 0)
(-0.0884037 0.032957 0)
(-0.10067 0.0323103 0)
(-0.113265 0.0292801 0)
(-0.125325 0.0228809 0)
(-0.13539 0.012106 0)
(-0.1415 -0.00376109 0)
(-0.00150886 0.0126678 0)
(-0.00456253 0.0129557 0)
(-0.00772494 0.013531 0)
(-0.0110714 0.0144041 0)
(-0.0146817 0.0155852 0)
(-0.0186422 0.0170856 0)
(-0.0230474 0.0189144 0)
(-0.0280018 0.0210743 0)
(-0.0336208 0.0235535 0)
(-0.0400295 0.0263155 0)
(-0.0473595 0.0292847 0)
(-0.0557422 0.0323279 0)
(-0.065298 0.0352303 0)
(-0.0761193 0.0376618 0)
(-0.0882361 0.0391277 0)
(-0.101546 0.0389082 0)
(-0.115688 0.0360107 0)
(-0.129861 0.0291901 0)
(-0.142547 0.0170958 0)
(-0.151442 -0.00136354 0)
(-0.00143287 0.0141392 0)
(-0.00433347 0.0144626 0)
(-0.00733952 0.0151096 0)
(-0.0105245 0.0160927 0)
(-0.0139671 0.017425 0)
(-0.0177537 0.0191217 0)
(-0.0219809 0.0211975 0)
(-0.0267582 0.023661 0)
(-0.0322108 0.0265074 0)
(-0.0384803 0.0297065 0)
(-0.0457234 0.033187 0)
(-0.0541074 0.0368163 0)
(-0.0638043 0.0403754 0)
(-0.0749808 0.0435208 0)
(-0.087773 0.0457226 0)
(-0.102219 0.0461769 0)
(-0.118112 0.0437196 0)
(-0.134766 0.0368078 0)
(-0.150631 0.023658 0)
(-0.163067 0.0026942 0)
(-0.00134818 0.0155303 0)
(-0.00407804 0.0158879 0)
(-0.0069093 0.0166043 0)
(-0.00991311 0.017694 0)
(-0.0131664 0.0191736 0)
(-0.0167549 0.0210631 0)
(-0.0207765 0.0233837 0)
(-0.0253454 0.0261521 0)
(-0.0305962 0.0293735 0)
(-0.0366873 0.0330278 0)
(-0.0438016 0.0370529 0)
(-0.0521441 0.0413236 0)
(-0.0619407 0.0456263 0)
(-0.0734391 0.0496193 0)
(-0.0868992 0.052759 0)
(-0.102535 0.0541775 0)
(-0.120357 0.052541 0)
(-0.13987 0.045972 0)
(-0.159549 0.0321414 0)
(-0.176416 0.00877224 0)
(-0.00125513 0.0168326 0)
(-0.00379724 0.0172229 0)
(-0.00643588 0.0180056 0)
(-0.00923923 0.0191978 0)
(-0.0122818 0.0208197 0)
(-0.0156477 0.0228968 0)
(-0.0194351 0.0254579 0)
(-0.0237617 0.0285303 0)
(-0.028771 0.0321317 0)
(-0.034638 0.0362569 0)
(-0.0415721 0.0408585 0)
(-0.0498164 0.0458247 0)
(-0.0596508 0.0509573 0)
(-0.0714068 0.0559359 0)
(-0.0854834 0.0602328 0)
(-0.102313 0.06295 0)
(-0.122194 0.0625982 0)
(-0.144935 0.0569338 0)
(-0.169148 0.0429643 0)
(-0.191519 0.0174161 0)
(-0.00115412 0.0180377 0)
(-0.00349228 0.018459 0)
(-0.00592121 0.0193046 0)
(-0.00850543 0.0205942 0)
(-0.0113161 0.0223519 0)
(-0.0144348 0.0246096 0)
(-0.0179585 0.0274045 0)
(-0.0220069 0.0307763 0)
(-0.0267307 0.0347592 0)
(-0.0323211 0.0393677 0)
(-0.0390141 0.0445741 0)
(-0.0470898 0.0502859 0)
(-0.0568787 0.05633 0)
(-0.0687927 0.0624288 0)
(-0.0833799 0.0681118 0)
(-0.101335 0.0725037 0)
(-0.123339 0.0739948 0)
(-0.149643 0.0699548 0)
(-0.179186 0.0566049 0)
(-0.208387 0.0293651 0)
(-0.00104563 0.0191382 0)
(-0.0031646 0.0195882 0)
(-0.00536766 0.0204926 0)
(-0.00771491 0.0218735 0)
(-0.0102732 0.0237592 0)
(-0.0131203 0.0261879 0)
(-0.0163504 0.0292068 0)
(-0.0200826 0.0328696 0)
(-0.024473 0.0372308 0)
(-0.0297276 0.0423297 0)
(-0.036109 0.0481643 0)
(-0.0439331 0.0546658 0)
(-0.0535723 0.0616921 0)
(-0.0655062 0.0690325 0)
(-0.0804318 0.0763277 0)
(-0.0993499 0.0828049 0)
(-0.123435 0.0867987 0)
(-0.153569 0.0852928 0)
(-0.189262 0.0736039 0)
(-0.226787 0.0454714 0)
(-0.000930238 0.0201266 0)
(-0.0028159 0.0206031 0)
(-0.00477801 0.0215615 0)
(-0.00687151 0.0230264 0)
(-0.00915801 0.0250306 0)
(-0.0117099 0.0276187 0)
(-0.0146163 0.0308481 0)
(-0.0179931 0.0347884 0)
(-0.0219983 0.0395182 0)
(-0.0268512 0.0451084 0)
(-0.0328416 0.0515889 0)
(-0.0403201 0.058916 0)
(-0.0496875 0.0669784 0)
(-0.0614642 0.0756547 0)
(-0.0764775 0.084766 0)
(-0.0960732 0.0937602 0)
(-0.122052 0.101023 0)
(-0.156153 0.103183 0)
(-0.198825 0.0945539 0)
(-0.246511 0.0667481 0)
(-0.000808571 0.0209965 0)
(-0.00244807 0.0214968 0)
(-0.00415546 0.0225038 0)
(-0.00597975 0.0240445 0)
(-0.00797626 0.0261559 0)
(-0.0102105 0.028889 0)
(-0.0127641 0.0323115 0)
(-0.0157457 0.0365099 0)
(-0.0193105 0.0415907 0)
(-0.0236888 0.0476652 0)
(-0.0292005 0.0548031 0)
(-0.0362319 0.0629835 0)
(-0.0451943 0.0721126 0)
(-0.0566008 0.0821748 0)
(-0.0713609 0.0932559 0)
(-0.0911903 0.105197 0)
(-0.118669 0.116598 0)
(-0.156677 0.123819 0)
(-0.207079 0.120107 0)
(-0.266991 0.0944965 0)
(-0.00068135 0.0217418 0)
(-0.00206328 0.0222628 0)
(-0.00350363 0.0233123 0)
(-0.00504482 0.0249196 0)
(-0.0067349 0.0271253 0)
(-0.00863099 0.0299865 0)
(-0.0108044 0.0335803 0)
(-0.0133515 0.0380101 0)
(-0.0164181 0.0434143 0)
(-0.0202414 0.0499561 0)
(-0.0251774 0.0577565 0)
(-0.0316581 0.0668125 0)
(-0.0400825 0.0770099 0)
(-0.0508805 0.0884386 0)
(-0.0649468 0.101549 0)
(-0.0843653 0.116824 0)
(-0.112672 0.133317 0)
(-0.154221 0.147245 0)
(-0.212896 0.150787 0)
(-0.287472 0.13008 0)
(-0.000549376 0.0223615 0)
(-0.0016639 0.0229002 0)
(-0.00282656 0.0239859 0)
(-0.00407259 0.0256501 0)
(-0.00544191 0.0279366 0)
(-0.00698191 0.0309077 0)
(-0.00875086 0.0346482 0)
(-0.0108267 0.0392769 0)
(-0.0133349 0.0449668 0)
(-0.0165139 0.0519506 0)
(-0.0207666 0.0604211 0)
(-0.0265971 0.0703886 0)
(-0.034371 0.0816403 0)
(-0.0443193 0.0943444 0)
(-0.0571474 0.109414 0)
(-0.075263 0.128359 0)
(-0.10337 0.151068 0)
(-0.147696 0.173926 0)
(-0.214808 0.188228 0)
(-0.306514 0.176748 0)
(-0.000413289 0.0227314 0)
(-0.00125225 0.0232812 0)
(-0.00212824 0.0243904 0)
(-0.00306887 0.0260917 0)
(-0.00410529 0.0284313 0)
(-0.00527417 0.0314744 0)
(-0.00661844 0.0353101 0)
(-0.00819047 0.0400664 0)
(-0.0100788 0.0459479 0)
(-0.0125106 0.0532794 0)
(-0.0159526 0.062352 0)
(-0.0210398 0.0731794 0)
(-0.0280938 0.0852717 0)
(-0.0369827 0.0988167 0)
(-0.0479161 0.115351 0)
(-0.0634819 0.13782 0)
(-0.0897593 0.167055 0)
(-0.135238 0.19931 0)
(-0.209916 0.225351 0)
(-0.322112 0.22765 0)
(-0.000276452 0.0249931 0)
(-0.000835834 0.025597 0)
(-0.00142117 0.0268154 0)
(-0.00205211 0.0286841 0)
(-0.00275067 0.0312549 0)
(-0.00354283 0.0345997 0)
(-0.00445563 0.0388141 0)
(-0.00550929 0.0440331 0)
(-0.00673063 0.0504943 0)
(-0.00831465 0.0586827 0)
(-0.0108195 0.0690998 0)
(-0.0151454 0.0819017 0)
(-0.0215949 0.0961227 0)
(-0.0294214 0.111581 0)
(-0.0379294 0.129957 0)
(-0.0499223 0.15776 0)
(-0.0736557 0.199088 0)
(-0.120929 0.251203 0)
(-0.205533 0.302162 0)
(-0.341719 0.326953 0)
(-8.53978e-05 0.0143161 0)
(-0.000254561 0.0146757 0)
(-0.000431679 0.0154057 0)
(-0.00062472 0.0165298 0)
(-0.000842285 0.0180857 0)
(-0.00109624 0.0201266 0)
(-0.00139575 0.0227236 0)
(-0.0017236 0.0259753 0)
(-0.00200985 0.0300592 0)
(-0.00238346 0.0353938 0)
(-0.0034063 0.0425464 0)
(-0.00590049 0.0516576 0)
(-0.00940121 0.0617616 0)
(-0.0122651 0.0728071 0)
(-0.0118173 0.0867219 0)
(-0.00860268 0.108965 0)
(-0.0109801 0.144472 0)
(-0.0311969 0.195684 0)
(-0.0836994 0.260378 0)
(-0.203384 0.325563 0)
(-0.109585 -0.00186191 0)
(-0.105069 -0.0026209 0)
(-0.0990382 -0.00340861 0)
(-0.0914153 -0.00420365 0)
(-0.0822165 -0.00498106 0)
(-0.0715058 -0.00571307 0)
(-0.0594043 -0.00637049 0)
(-0.0460915 -0.00692459 0)
(-0.031802 -0.00734921 0)
(-0.0168234 -0.0076231 0)
(-0.00146319 -0.00773198 0)
(0.0139477 -0.00767005 0)
(0.0290617 -0.0074404 0)
(0.0435716 -0.00705436 0)
(0.0571746 -0.00653099 0)
(0.0696189 -0.00589487 0)
(0.0807053 -0.00517404 0)
(0.0902927 -0.00439786 0)
(0.0982924 -0.00359516 0)
(0.104723 -0.002793 0)
(-0.111108 -0.00554437 0)
(-0.10666 -0.00783704 0)
(-0.100661 -0.0102204 0)
(-0.0930237 -0.0126291 0)
(-0.0837575 -0.0149873 0)
(-0.0729219 -0.0172101 0)
(-0.0606373 -0.0192085 0)
(-0.0470865 -0.0208943 0)
(-0.0325116 -0.0221872 0)
(-0.0172121 -0.0230215 0)
(-0.00151088 -0.0233534 0)
(0.014244 -0.0231648 0)
(0.0296872 -0.0224655 0)
(0.044496 -0.0212904 0)
(0.0583544 -0.0196983 0)
(0.0710013 -0.0177645 0)
(0.0822327 -0.0155752 0)
(0.0919065 -0.01322 0)
(0.0999362 -0.010787 0)
(0.106349 -0.00835828 0)
(-0.114078 -0.00908943 0)
(-0.109786 -0.0129673 0)
(-0.103867 -0.0170111 0)
(-0.0962153 -0.0211099 0)
(-0.0868264 -0.0251336 0)
(-0.0757514 -0.0289364 0)
(-0.0631083 -0.0323635 0)
(-0.0490854 -0.0352611 0)
(-0.0339399 -0.0374875 0)
(-0.017996 -0.0389261 0)
(-0.00160816 -0.0394997 0)
(0.0148399 -0.0391749 0)
(0.0309447 -0.03797 0)
(0.0463521 -0.0359474 0)
(0.0607186 -0.0332112 0)
(0.0737648 -0.0298942 0)
(0.0852771 -0.0261466 0)
(0.0951123 -0.0221244 0)
(0.103189 -0.0179796 0)
(0.109551 -0.0138536 0)
(-0.11861 -0.0123855 0)
(-0.114573 -0.017936 0)
(-0.108795 -0.0237492 0)
(-0.101137 -0.0296665 0)
(-0.0915744 -0.0354995 0)
(-0.080143 -0.0410344 0)
(-0.0669546 -0.0460417 0)
(-0.0522048 -0.0502901 0)
(-0.0361733 -0.0535642 0)
(-0.0192237 -0.0556852 0)
(-0.00176103 -0.0565324 0)
(0.0157723 -0.0560543 0)
(0.0329102 -0.0542803 0)
(0.0492481 -0.0513079 0)
(0.0643991 -0.047297 0)
(0.0780559 -0.0424493 0)
(0.0899916 -0.03699 0)
(0.100062 -0.0311511 0)
(0.108196 -0.0251564 0)
(0.114463 -0.0192131 0)
(-0.124795 -0.0153034 0)
(-0.121139 -0.0226488 0)
(-0.115586 -0.0303869 0)
(-0.107953 -0.0383091 0)
(-0.0981819 -0.0461624 0)
(-0.0862821 -0.0536553 0)
(-0.0723542 -0.0604698 0)
(-0.0566005 -0.0662803 0)
(-0.0393302 -0.070778 0)
(-0.0209626 -0.0737017 0)
(-0.00197846 -0.0748725 0)
(0.0170911 -0.0742137 0)
(0.0356858 -0.0717716 0)
(0.0533269 -0.0676922 0)
(0.0695661 -0.0622085 0)
(0.0840586 -0.0556088 0)
(0.0965608 -0.0482097 0)
(0.106931 -0.0403335 0)
(0.115113 -0.0322873 0)
(0.121215 -0.0243522 0)
(-0.132753 -0.0176836 0)
(-0.129642 -0.0269787 0)
(-0.124439 -0.0368464 0)
(-0.116896 -0.0470237 0)
(-0.106904 -0.0571851 0)
(-0.0944352 -0.0669486 0)
(-0.0795663 -0.0758902 0)
(-0.0625022 -0.0835655 0)
(-0.0435869 -0.0895428 0)
(-0.0233144 -0.093447 0)
(-0.00227372 -0.0950152 0)
(0.0188724 -0.0941329 0)
(0.0394245 -0.0908755 0)
(0.0587997 -0.0854603 0)
(0.0764674 -0.0782211 0)
(0.0920369 -0.0695587 0)
(0.105248 -0.0599035 0)
(0.115965 -0.0496868 0)
(0.124159 -0.0393149 0)
(0.129993 -0.0291544 0)
(-0.142618 -0.0193147 0)
(-0.140283 -0.0307492 0)
(-0.13561 -0.0430052 0)
(-0.12827 -0.0557599 0)
(-0.118085 -0.0686063 0)
(-0.104967 -0.0810579 0)
(-0.0889524 -0.0925621 0)
(-0.0702371 -0.102524 0)
(-0.0491991 -0.110347 0)
(-0.0264277 -0.115492 0)
(-0.00266454 -0.117565 0)
(0.0212299 -0.116392 0)
(0.0443483 -0.112102 0)
(0.0659655 -0.105024 0)
(0.0854473 -0.0956379 0)
(0.102352 -0.0844909 0)
(0.116407 -0.0721564 0)
(0.127495 -0.0591985 0)
(0.135621 -0.0461429 0)
(0.141031 -0.0334575 0)
(-0.154551 -0.0199054 0)
(-0.153308 -0.0337155 0)
(-0.149423 -0.0486795 0)
(-0.142468 -0.0644145 0)
(-0.132173 -0.0804263 0)
(-0.118362 -0.0961095 0)
(-0.101006 -0.110759 0)
(-0.0802638 -0.12359 0)
(-0.0565349 -0.133782 0)
(-0.0305203 -0.140551 0)
(-0.00317357 -0.143292 0)
(0.0243352 -0.141714 0)
(0.0507781 -0.136063 0)
(0.075242 -0.12686 0)
(0.0969735 -0.114791 0)
(0.115487 -0.100599 0)
(0.130506 -0.0850315 0)
(0.141946 -0.068815 0)
(0.149868 -0.0526197 0)
(0.154624 -0.0370347 0)
(-0.168791 -0.0190926 0)
(-0.169024 -0.0355536 0)
(-0.166273 -0.0536045 0)
(-0.159978 -0.07281 0)
(-0.14974 -0.0925851 0)
(-0.135259 -0.112194 0)
(-0.116395 -0.130756 0)
(-0.0932254 -0.147255 0)
(-0.0661307 -0.160569 0)
(-0.035919 -0.16955 0)
(-0.00382693 -0.173216 0)
(0.0284583 -0.171025 0)
(0.0591836 -0.163504 0)
(0.0872092 -0.15151 0)
(0.111672 -0.136036 0)
(0.132069 -0.118067 0)
(0.148145 -0.0985569 0)
(0.159861 -0.0784231 0)
(0.167357 -0.058516 0)
(0.171134 -0.0395759 0)
(-0.185547 -0.016447 0)
(-0.187774 -0.0358404 0)
(-0.186629 -0.0574081 0)
(-0.181394 -0.0806646 0)
(-0.1715 -0.104931 0)
(-0.156476 -0.129334 0)
(-0.136012 -0.152802 0)
(-0.110026 -0.174058 0)
(-0.078786 -0.191595 0)
(-0.043139 -0.203713 0)
(-0.00464927 -0.20876 0)
(0.0340495 -0.205537 0)
(0.0702699 -0.195326 0)
(0.102673 -0.179582 0)
(0.130367 -0.15974 0)
(0.152907 -0.137059 0)
(0.170086 -0.112707 0)
(0.181922 -0.0878232 0)
(0.188652 -0.0634855 0)
(0.190963 -0.040634 0)
(-0.205025 -0.0114578 0)
(-0.209918 -0.0340041 0)
(-0.211027 -0.0595693 0)
(-0.207424 -0.0875532 0)
(-0.198328 -0.117178 0)
(-0.183049 -0.147435 0)
(-0.16104 -0.177075 0)
(-0.131943 -0.204552 0)
(-0.0957184 -0.227912 0)
(-0.0530361 -0.244688 0)
(-0.00565146 -0.252053 0)
(0.0419016 -0.246838 0)
(0.0851137 -0.232555 0)
(0.122749 -0.211694 0)
(0.154131 -0.186252 0)
(0.179021 -0.157705 0)
(0.197291 -0.127391 0)
(0.20899 -0.0967042 0)
(0.214457 -0.0670214 0)
(0.214584 -0.0395428 0)
(-0.227406 -0.00319759 0)
(-0.235792 -0.0292554 0)
(-0.24008 -0.0593755 0)
(-0.238894 -0.0928644 0)
(-0.231268 -0.12886 0)
(-0.216258 -0.166226 0)
(-0.193017 -0.203558 0)
(-0.160756 -0.239132 0)
(-0.118823 -0.270667 0)
(-0.0671856 -0.29486 0)
(-0.00680727 -0.306768 0)
(0.0535732 -0.297159 0)
(0.105417 -0.276247 0)
(0.148936 -0.248284 0)
(0.184278 -0.215772 0)
(0.211656 -0.180061 0)
(0.230956 -0.142448 0)
(0.242156 -0.104624 0)
(0.24568 -0.0684338 0)
(0.242711 -0.0354589 0)
(-0.252911 0.00926483 0)
(-0.265955 -0.0207492 0)
(-0.274486 -0.0558929 0)
(-0.276751 -0.0957702 0)
(-0.271526 -0.139266 0)
(-0.257586 -0.185082 0)
(-0.233798 -0.231794 0)
(-0.198912 -0.27784 0)
(-0.151279 -0.32109 0)
(-0.0887777 -0.357319 0)
(-0.00806171 -0.378786 0)
(0.0722966 -0.359268 0)
(0.134084 -0.327503 0)
(0.183273 -0.289758 0)
(0.222312 -0.248515 0)
(0.252201 -0.20416 0)
(0.272528 -0.157636 0)
(0.282796 -0.110977 0)
(0.283412 -0.0667544 0)
(0.276027 -0.0273018 0)
(-0.281752 0.0271607 0)
(-0.300778 -0.00699468 0)
(-0.314878 -0.0479047 0)
(-0.322042 -0.095146 0)
(-0.320348 -0.147259 0)
(-0.308577 -0.203078 0)
(-0.285595 -0.261291 0)
(-0.249824 -0.320668 0)
(-0.197969 -0.379598 0)
(-0.123731 -0.434768 0)
(-0.00917716 -0.479524 0)
(0.103915 -0.435621 0)
(0.175217 -0.385763 0)
(0.228173 -0.335691 0)
(0.269991 -0.284921 0)
(0.302413 -0.230638 0)
(0.323833 -0.172844 0)
(0.332692 -0.114876 0)
(0.329008 -0.0606206 0)
(0.31532 -0.0134485 0)
(-0.313741 0.0521197 0)
(-0.34079 0.0134729 0)
(-0.362307 -0.0340553 0)
(-0.375755 -0.0892143 0)
(-0.379133 -0.151896 0)
(-0.37139 -0.219921 0)
(-0.351242 -0.290913 0)
(-0.317545 -0.363977 0)
(-0.26755 -0.441598 0)
(-0.187413 -0.535007 0)
(-0.00787067 -0.637443 0)
(0.164241 -0.533294 0)
(0.23627 -0.445242 0)
(0.284138 -0.379998 0)
(0.326627 -0.321727 0)
(0.363751 -0.259019 0)
(0.387796 -0.18845 0)
(0.394401 -0.115162 0)
(0.384251 -0.0478476 0)
(0.361638 0.00894674 0)
(-0.349044 0.0862149 0)
(-0.386612 0.0436075 0)
(-0.417188 -0.0109175 0)
(-0.439209 -0.0777839 0)
(-0.450544 -0.153342 0)
(-0.447167 -0.231729 0)
(-0.430483 -0.312427 0)
(-0.407827 -0.395057 0)
(-0.385646 -0.498539 0)
(-0.30898 -0.666702 0)
(0.00487568 -0.87577 0)
(0.28827 -0.653791 0)
(0.341083 -0.495191 0)
(0.350522 -0.417524 0)
(0.382379 -0.361294 0)
(0.4292 -0.29035 0)
(0.465141 -0.204118 0)
(0.472031 -0.11134 0)
(0.452141 -0.0255896 0)
(0.415977 0.0435415 0)
(-0.386073 0.132407 0)
(-0.437019 0.0822736 0)
(-0.482204 0.0138149 0)
(-0.516775 -0.0645973 0)
(-0.530439 -0.141307 0)
(-0.52577 -0.232862 0)
(-0.51783 -0.326801 0)
(-0.530781 -0.41223 0)
(-0.563046 -0.543371 0)
(-0.448877 -0.837342 0)
(0.0369852 -1.29526 0)
(0.465579 -0.781616 0)
(0.502011 -0.505109 0)
(0.430786 -0.438528 0)
(0.44174 -0.425932 0)
(0.501393 -0.356137 0)
(0.553545 -0.22976 0)
(0.568273 -0.101301 0)
(0.537442 0.00835636 0)
(0.479443 0.0949687 0)
(-0.429017 0.191665 0)
(-0.504573 0.147545 0)
(-0.566206 0.0881885 0)
(-0.594773 0.004768 0)
(-0.605789 -0.125002 0)
(-0.617493 -0.254364 0)
(-0.623605 -0.343793 0)
(-0.656016 -0.397518 0)
(-0.679062 -0.573919 0)
(-0.402441 -1.18772 0)
(0.0749108 -2.04574 0)
(0.584984 -1.03311 0)
(0.634032 -0.42818 0)
(0.527982 -0.36486 0)
(0.59479 -0.43938 0)
(0.700159 -0.418239 0)
(0.725451 -0.273529 0)
(0.69921 -0.0727091 0)
(0.645205 0.0804718 0)
(0.55654 0.17369 0)
(-0.470279 0.285146 0)
(-0.548861 0.200979 0)
(-0.613774 0.0651569 0)
(-0.697816 -0.0935954 0)
(-0.793077 -0.193749 0)
(-0.820471 -0.224159 0)
(-0.754034 -0.261648 0)
(-0.678573 -0.320742 0)
(-0.521614 -0.651242 0)
(-0.0455624 -1.59057 0)
(0.086546 -2.47075 0)
(0.459566 -1.376 0)
(0.61097 -0.309886 0)
(0.68859 -0.275381 0)
(1.00986 -0.458555 0)
(1.24389 -0.343419 0)
(1.17724 -0.176855 0)
(0.971704 -0.0145119 0)
(0.779872 0.156922 0)
(0.634342 0.295591 0)
(-0.360466 0.349961 0)
(-0.535122 0.345783 0)
(-0.769066 0.332857 0)
(-1.01459 0.292493 0)
(-1.16674 0.156657 0)
(-1.15298 -0.132747 0)
(-0.924159 -0.432215 0)
(-0.64062 -0.656199 0)
(-0.338516 -1.01347 0)
(0.115105 -1.94398 0)
(0.0753523 -2.60123 0)
(0.320566 -1.53228 0)
(0.54982 -0.56573 0)
(0.940873 -0.913931 0)
(1.47364 -1.20914 0)
(1.96404 -0.726546 0)
(1.93109 -0.0247551 0)
(1.42723 0.301651 0)
(0.899385 0.395587 0)
(0.5443 0.420761 0)
(0.110843 -0.0016192 0)
(0.114582 -0.000257558 0)
(0.113418 0.000806801 0)
(0.108642 0.00155397 0)
(0.101453 0.00202312 0)
(0.0928429 0.00226956 0)
(0.0835883 0.00234995 0)
(0.0742485 0.00231512 0)
(0.0651982 0.00220696 0)
(0.0566658 0.00205753 0)
(0.048769 0.00189003 0)
(0.0415473 0.00172057 0)
(0.0349868 0.00155971 0)
(0.02904 0.0014139 0)
(0.023639 0.00128686 0)
(0.0187047 0.0011805 0)
(0.014153 0.00109557 0)
(0.00989793 0.00103212 0)
(0.00585375 0.000990026 0)
(0.00193698 0.000968609 0)
(0.112352 -0.00481047 0)
(0.115845 -0.000731486 0)
(0.114573 0.0024528 0)
(0.109649 0.00470278 0)
(0.102273 0.00611621 0)
(0.09347 0.00685487 0)
(0.0840369 0.00709083 0)
(0.074546 0.00697908 0)
(0.0653766 0.00664697 0)
(0.0567556 0.00619167 0)
(0.048797 0.00568331 0)
(0.041535 0.00517024 0)
(0.0349509 0.00468404 0)
(0.0289927 0.00424406 0)
(0.0235889 0.0038612 0)
(0.0186579 0.00354088 0)
(0.0141134 0.00328514 0)
(0.00986821 0.00309423 0)
(0.00583551 0.00296779 0)
(0.00193082 0.00290301 0)
(0.115289 -0.00784631 0)
(0.118263 -0.00100652 0)
(0.116284 0.0043083 0)
(0.110697 0.00804598 0)
(0.102783 0.0103734 0)
(0.0935838 0.0115682 0)
(0.083883 0.0119248 0)
(0.0742285 0.011706 0)
(0.0649731 0.0111259 0)
(0.0563209 0.0103465 0)
(0.0483674 0.00948414 0)
(0.0411331 0.00861846 0)
(0.0345898 0.00780103 0)
(0.0286792 0.00706321 0)
(0.0233256 0.00642245 0)
(0.0184449 0.00588709 0)
(0.0139498 0.00546008 0)
(0.00975279 0.00514156 0)
(0.00576719 0.00493064 0)
(0.00190831 0.00482305 0)
(0.119766 -0.0106005 0)
(0.12192 -0.000904985 0)
(0.118996 0.00657923 0)
(0.112502 0.0117551 0)
(0.103821 0.0149181 0)
(0.0940308 0.0164894 0)
(0.0839082 0.0168971 0)
(0.0739758 0.0165165 0)
(0.0645554 0.0156479 0)
(0.0558212 0.0145159 0)
(0.0478439 0.0132806 0)
(0.0406247 0.0120504 0)
(0.0341209 0.0108948 0)
(0.0282641 0.00985551 0)
(0.0229718 0.00895527 0)
(0.0181556 0.00820458 0)
(0.0137259 0.00760669 0)
(0.00959377 0.00716114 0)
(0.00567238 0.00686601 0)
(0.00187687 0.00671618 0)
(0.125864 -0.0129227 0)
(0.126849 -0.000214442 0)
(0.122609 0.00942338 0)
(0.114859 0.0159649 0)
(0.105143 0.0198602 0)
(0.0945664 0.0217012 0)
(0.0838905 0.0220662 0)
(0.0735989 0.0214491 0)
(0.0639689 0.0202359 0)
(0.0551341 0.0187115 0)
(0.0471321 0.017076 0)
(0.0399382 0.0154637 0)
(0.0334908 0.0139595 0)
(0.0277082 0.0126131 0)
(0.0224991 0.0114508 0)
(0.0177698 0.0104839 0)
(0.0134275 0.00971521 0)
(0.00938207 0.00914306 0)
(0.00554608 0.00876426 0)
(0.00183491 0.00857266 0)
(0.133721 -0.0146315 0)
(0.133087 0.00126795 0)
(0.127079 0.0130357 0)
(0.117714 0.0208334 0)
(0.106684 0.0253154 0)
(0.0951288 0.0272817 0)
(0.0837781 0.0274812 0)
(0.0730574 0.0265312 0)
(0.063184 0.0249023 0)
(0.0542392 0.0229352 0)
(0.0462183 0.020866 0)
(0.039065 0.0188504 0)
(0.0326944 0.016985 0)
(0.0270087 0.0153249 0)
(0.0219063 0.0138976 0)
(0.0172871 0.0127138 0)
(0.0130549 0.0117746 0)
(0.00911793 0.0110766 0)
(0.00538856 0.0106149 0)
(0.00178258 0.010382 0)
(0.143473 -0.015499 0)
(0.140672 0.00375234 0)
(0.132382 0.0176319 0)
(0.120991 0.0265282 0)
(0.10836 0.0313986 0)
(0.095643 0.0333039 0)
(0.0835102 0.0331843 0)
(0.0723054 0.031784 0)
(0.0621677 0.0296541 0)
(0.0531135 0.0271852 0)
(0.0450877 0.0246432 0)
(0.0379961 0.0222 0)
(0.0317267 0.0199595 0)
(0.0261633 0.0179785 0)
(0.0211926 0.0162835 0)
(0.0167076 0.0148825 0)
(0.0126084 0.0137737 0)
(0.0088018 0.012951 0)
(0.00520017 0.0124075 0)
(0.00172001 0.012134 0)
(0.155291 -0.0152172 0)
(0.149634 0.00756564 0)
(0.138455 0.0234629 0)
(0.124586 0.0332258 0)
(0.110062 0.0382221 0)
(0.0960142 0.039833 0)
(0.0830124 0.0392093 0)
(0.0712877 0.0372208 0)
(0.060881 0.0344918 0)
(0.0517309 0.0314543 0)
(0.0437235 0.0283962 0)
(0.0367214 0.0254992 0)
(0.0305823 0.0228693 0)
(0.0251696 0.0205608 0)
(0.0203574 0.018596 0)
(0.0160315 0.0169781 0)
(0.0120886 0.0157013 0)
(0.00843435 0.0147557 0)
(0.00498138 0.0141317 0)
(0.00164737 0.0138184 0)
(0.16937 -0.0134421 0)
(0.15998 0.0130744 0)
(0.145194 0.0308142 0)
(0.128356 0.0411103 0)
(0.111652 0.0458919 0)
(0.0961275 0.0469233 0)
(0.0821972 0.045578 0)
(0.0699414 0.0428449 0)
(0.0592804 0.0394082 0)
(0.0500626 0.0357296 0)
(0.0421078 0.0321096 0)
(0.0352307 0.0287322 0)
(0.029256 0.0256989 0)
(0.0240254 0.0230573 0)
(0.0194004 0.0208217 0)
(0.0152595 0.0189886 0)
(0.0114965 0.0175461 0)
(0.00801648 0.01648 0)
(0.00473282 0.0157774 0)
(0.00156488 0.0154252 0)
(0.185915 -0.00972712 0)
(0.171707 0.0207327 0)
(0.152447 0.040008 0)
(0.132106 0.0503687 0)
(0.112954 0.0545023 0)
(0.0958464 0.0546124 0)
(0.0809651 0.0522977 0)
(0.0681968 0.0486477 0)
(0.0573188 0.044387 0)
(0.0480782 0.0399916 0)
(0.0402222 0.0357633 0)
(0.0335141 0.0318795 0)
(0.0277432 0.028431 0)
(0.0227297 0.0254524 0)
(0.018322 0.0229469 0)
(0.0143929 0.0209013 0)
(0.0108336 0.0192967 0)
(0.00754942 0.0181133 0)
(0.00445529 0.0173345 0)
(0.00147283 0.0169447 0)
(0.205139 -0.00316624 0)
(0.18476 0.0311478 0)
(0.159974 0.0513981 0)
(0.135578 0.0611838 0)
(0.113756 0.064127 0)
(0.0950123 0.0629157 0)
(0.0792055 0.0593569 0)
(0.0659793 0.0546069 0)
(0.0549472 0.049402 0)
(0.0457469 0.0442132 0)
(0.038049 0.0393316 0)
(0.0315624 0.0349186 0)
(0.0260407 0.0310457 0)
(0.0212821 0.0277294 0)
(0.0171238 0.0249571 0)
(0.0134336 0.0227039 0)
(0.0101018 0.020942 0)
(0.00703475 0.0196455 0)
(0.00414984 0.0187935 0)
(0.00137157 0.0183676 0)
(0.227248 0.00715658 0)
(0.198852 0.0450019 0)
(0.167409 0.0653647 0)
(0.138437 0.07372 0)
(0.113798 0.0748067 0)
(0.093446 0.0718178 0)
(0.0768 0.0667213 0)
(0.0632116 0.0606844 0)
(0.0521162 0.0544157 0)
(0.0430388 0.0483598 0)
(0.0355718 0.0427839 0)
(0.0293688 0.0378232 0)
(0.0241469 0.0335215 0)
(0.019684 0.0298704 0)
(0.0158083 0.0268375 0)
(0.0123845 0.0243837 0)
(0.00930367 0.022471 0)
(0.00647449 0.0210666 0)
(0.00381772 0.0201449 0)
(0.00126155 0.0196849 0)
(0.252361 0.022212 0)
(0.213639 0.0630703 0)
(0.174253 0.0823021 0)
(0.140256 0.0881031 0)
(0.112777 0.0865329 0)
(0.0909516 0.0812636 0)
(0.0736265 0.0743295 0)
(0.0598177 0.0668248 0)
(0.0487785 0.0593793 0)
(0.0399264 0.0523883 0)
(0.0327774 0.0460834 0)
(0.0269288 0.0405636 0)
(0.0220625 0.035835 0)
(0.0179387 0.0318568 0)
(0.0143794 0.0285731 0)
(0.0112494 0.0259281 0)
(0.00844247 0.0238728 0)
(0.00587111 0.0223669 0)
(0.00346046 0.0213799 0)
(0.00114327 0.020888 0)
(0.280547 0.0436611 0)
(0.228541 0.0862985 0)
(0.179805 0.102591 0)
(0.140499 0.104391 0)
(0.110346 0.0992258 0)
(0.0873237 0.0911468 0)
(0.0695665 0.0820901 0)
(0.0557266 0.0729553 0)
(0.0448909 0.0642322 0)
(0.0363859 0.0562472 0)
(0.0296559 0.0491877 0)
(0.024242 0.0431065 0)
(0.0197916 0.0379608 0)
(0.0160516 0.0336697 0)
(0.0128427 0.030149 0)
(0.0100334 0.0273251 0)
(0.00752225 0.0251372 0)
(0.00522753 0.0235373 0)
(0.00307981 0.0224901 0)
(0.0010173 0.0219689 0)
(0.311612 0.0737507 0)
(0.242535 0.115788 0)
(0.183118 0.126568 0)
(0.138506 0.122533 0)
(0.106117 0.112708 0)
(0.0823605 0.1013 0)
(0.064515 0.0898795 0)
(0.0508777 0.0789874 0)
(0.0404166 0.0689037 0)
(0.0323987 0.0598766 0)
(0.0262033 0.0520484 0)
(0.0213127 0.0454158 0)
(0.0173421 0.0398731 0)
(0.0140312 0.0352897 0)
(0.0112058 0.0315506 0)
(0.00874249 0.0285629 0)
(0.00654782 0.0262544 0)
(0.00454718 0.0245694 0)
(0.00267781 0.0234679 0)
(0.000884313 0.0229203 0)
(0.344623 0.114988 0)
(0.254022 0.152509 0)
(0.182908 0.15436 0)
(0.133487 0.142273 0)
(0.0996867 0.126654 0)
(0.075884 0.111473 0)
(0.0583927 0.0975373 0)
(0.0452262 0.084817 0)
(0.0353268 0.0733117 0)
(0.0279524 0.0632068 0)
(0.0224216 0.0546097 0)
(0.0181516 0.0474519 0)
(0.0147265 0.0415446 0)
(0.0118888 0.0366981 0)
(0.00947805 0.0327637 0)
(0.00738424 0.0296306 0)
(0.0055248 0.0272152 0)
(0.00383396 0.0254553 0)
(0.00225677 0.0243061 0)
(0.000745093 0.0237353 0)
(0.377927 0.172881 0)
(0.26075 0.199088 0)
(0.17761 0.186592 0)
(0.124557 0.163425 0)
(0.0906715 0.140754 0)
(0.0677757 0.12147 0)
(0.0511675 0.10497 0)
(0.0387505 0.0903977 0)
(0.0296017 0.0774111 0)
(0.0230414 0.06619 0)
(0.0183217 0.0568326 0)
(0.0147774 0.0491909 0)
(0.0119631 0.0429629 0)
(0.00963915 0.037888 0)
(0.00767079 0.0337844 0)
(0.0059673 0.0305254 0)
(0.00445958 0.028018 0)
(0.00309226 0.0261937 0)
(0.00181928 0.0250037 0)
(0.000600524 0.0244132 0)
(0.408816 0.24129 0)
(0.257997 0.246963 0)
(0.164452 0.217745 0)
(0.110446 0.182522 0)
(0.0786555 0.152576 0)
(0.057964 0.129538 0)
(0.0428354 0.110967 0)
(0.0314309 0.0948887 0)
(0.0232123 0.0805561 0)
(0.0176569 0.0683024 0)
(0.0139183 0.0582946 0)
(0.0112143 0.050298 0)
(0.00907315 0.0438563 0)
(0.00729808 0.038631 0)
(0.00579565 0.034415 0)
(0.00450028 0.0310723 0)
(0.00335846 0.0285041 0)
(0.00232642 0.0266375 0)
(0.00136794 0.025421 0)
(0.000451354 0.024818 0)
(0.443814 0.370869 0)
(0.253897 0.342811 0)
(0.147758 0.277949 0)
(0.0931047 0.218328 0)
(0.0647411 0.176337 0)
(0.0472463 0.148221 0)
(0.0339397 0.126225 0)
(0.0235637 0.107068 0)
(0.016309 0.0899131 0)
(0.0119123 0.0755595 0)
(0.00932206 0.0641636 0)
(0.00756036 0.0552991 0)
(0.00613079 0.048214 0)
(0.00491907 0.0424656 0)
(0.00389169 0.0378251 0)
(0.00301196 0.0341473 0)
(0.0022422 0.0313235 0)
(0.00155052 0.0292723 0)
(0.000911104 0.0279357 0)
(0.000301247 0.0272733 0)
(0.287384 0.399958 0)
(0.115272 0.311966 0)
(0.050671 0.225939 0)
(0.0289727 0.164569 0)
(0.024576 0.126106 0)
(0.021336 0.101999 0)
(0.0160885 0.0845071 0)
(0.0106315 0.0699759 0)
(0.00632752 0.0571726 0)
(0.00391128 0.0467487 0)
(0.00294127 0.0389416 0)
(0.00248589 0.0331446 0)
(0.00203194 0.0286149 0)
(0.0016027 0.0249921 0)
(0.00124308 0.0221043 0)
(0.000948379 0.0198408 0)