/*--------------------------------*- C++ -*----------------------------------*\
| =========                 |                                                 |
| \\      /  F ield         | OpenFOAM: The Open Source CFD Toolbox           |
|  \\    /   O peration     | Version:  2.4.0                                 |
|   \\  /    A nd           | Web:      www.OpenFOAM.org                      |
|    \\/     M anipulation  |                                                 |
\*---------------------------------------------------------------------------*/
FoamFile
{
    version     2.0;
    format      ascii;
    class       surfaceScalarField;
    location    "0.187";
    object      phi;
}
// * * * * * * * * * * * * * * * * * * * * * * * * * * * * * * * * * * * * * //

dimensions      [0 3 -1 0 0 0 0];

internalField   nonuniform List<scalar> 
12835
(
-2.11757e-07
2.11757e-07
-3.96574e-07
1.84817e-07
-4.22195e-07
2.56209e-08
-2.55481e-07
-1.66715e-07
-2.28413e-07
-2.70673e-08
6.05735e-08
-2.88987e-07
4.10355e-07
-3.49782e-07
3.82138e-07
2.82175e-08
2.66904e-07
1.15233e-07
1.23185e-06
-9.6495e-07
2.14291e-06
-9.11056e-07
2.49448e-06
-3.51567e-07
1.26472e-06
1.22976e-06
1.02474e-06
2.39971e-07
1.24454e-06
-2.19796e-07
6.46137e-07
5.98404e-07
4.95366e-07
1.50771e-07
-1.34783e-06
1.84319e-06
-1.34898e-06
1.1536e-09
4.26462e-08
-1.39163e-06
1.2265e-06
-1.18385e-06
9.66047e-07
2.60453e-07
5.48499e-07
4.17548e-07
1.91452e-07
3.57047e-07
5.09568e-07
-3.18117e-07
9.24626e-07
-4.15057e-07
8.96819e-07
2.78063e-08
2.95214e-07
6.01605e-07
3.78899e-07
-8.36845e-08
8.73676e-07
-4.94777e-07
6.83675e-07
1.90001e-07
6.89224e-07
-5.54933e-09
6.39932e-07
4.92926e-08
9.05818e-07
-2.65887e-07
9.57778e-07
-5.19592e-08
6.93765e-07
2.64013e-07
4.45998e-07
2.47767e-07
1.97306e-07
2.48693e-07
7.80416e-08
1.19264e-07
5.21822e-08
2.58594e-08
-2.99036e-08
8.20859e-08
-2.09851e-08
-8.91834e-09
4.75558e-08
-6.85411e-08
1.02252e-07
-5.46962e-08
1.26443e-07
-2.4191e-08
1.22085e-07
4.35836e-09
9.30205e-08
2.90642e-08
4.21027e-08
5.09179e-08
-2.16059e-08
6.37087e-08
5.28752e-08
-7.44811e-08
-2.65227e-07
4.76984e-07
-4.09522e-07
3.29113e-07
-3.96604e-07
1.27027e-08
-2.58341e-07
-3.04977e-07
-2.56661e-07
-2.87481e-08
-3.23114e-08
-5.13336e-07
7.30743e-08
-4.55167e-07
-8.12593e-07
9.13885e-07
-1.45368e-06
7.56323e-07
-1.02623e-06
-1.3924e-06
2.18953e-07
-2.15624e-06
1.32747e-06
-1.46009e-06
1.27711e-06
1.28013e-06
8.00739e-07
7.16338e-07
1.04491e-06
-4.6397e-07
1.31511e-06
3.28209e-07
1.24364e-06
2.22242e-07
-7.31673e-08
3.16e-06
-7.91307e-08
7.11708e-09
6.74232e-07
-2.14499e-06
5.71016e-07
-1.08064e-06
6.87861e-07
1.43608e-07
4.65468e-07
6.3994e-07
2.57115e-07
5.654e-07
1.09179e-06
-1.15279e-06
1.4778e-06
-8.01069e-07
1.29955e-06
2.06053e-07
6.98646e-07
1.20251e-06
6.589e-07
-4.3938e-08
1.47596e-06
-1.31183e-06
1.5939e-06
7.20537e-08
9.49089e-07
6.39264e-07
8.21839e-07
1.76543e-07
1.21364e-06
-6.57687e-07
1.48168e-06
-3.19999e-07
1.27285e-06
4.72842e-07
1.02903e-06
4.91585e-07
8.60113e-07
4.17612e-07
5.35086e-07
4.44292e-07
2.69519e-07
2.91427e-07
8.69291e-08
2.64675e-07
9.27928e-08
-1.47819e-08
1.90713e-07
-1.66462e-07
2.37577e-07
-1.0156e-07
2.27279e-07
-1.38919e-08
1.75876e-07
5.57609e-08
9.07898e-08
1.14151e-07
-1.35655e-08
1.55273e-07
-1.20047e-07
1.7019e-07
1.3691e-07
-2.04082e-07
-2.6085e-07
7.37834e-07
-3.81522e-07
4.49785e-07
-3.65939e-07
-2.88109e-09
-2.52294e-07
-4.18621e-07
-2.55901e-07
-2.5142e-08
-9.2772e-08
-6.76465e-07
1.57974e-07
-7.05913e-07
1.88083e-07
8.83775e-07
6.38668e-07
3.05737e-07
5.53904e-07
-1.30764e-06
7.59117e-07
-2.36145e-06
1.28053e-06
-1.9815e-06
1.13228e-06
1.42837e-06
7.81032e-07
1.06759e-06
8.59803e-07
-5.42742e-07
1.22242e-06
-3.44072e-08
1.15042e-06
2.94236e-07
3.49658e-07
3.96076e-06
5.73505e-07
-2.1673e-07
1.10731e-06
-2.67879e-06
8.49568e-07
-8.22895e-07
6.32939e-07
3.60237e-07
1.82214e-07
1.09066e-06
-2.59002e-07
1.00662e-06
6.17421e-07
-2.02921e-06
1.22738e-06
-1.41103e-06
1.07284e-06
3.60592e-07
4.77687e-07
1.79767e-06
-3.08012e-07
7.41761e-07
-3.85623e-07
-1.23422e-06
7.08903e-07
-1.02247e-06
9.229e-07
4.25267e-07
9.24248e-07
1.75195e-07
1.13267e-06
-8.66106e-07
1.44676e-06
-6.34087e-07
1.47034e-06
4.49256e-07
1.27872e-06
6.83209e-07
9.5601e-07
7.4032e-07
6.58859e-07
7.41442e-07
3.73816e-07
5.76471e-07
1.81971e-07
4.5652e-07
2.26943e-07
-5.97539e-08
3.28837e-07
-2.68356e-07
3.3839e-07
-1.11113e-07
2.90423e-07
3.40755e-08
2.06854e-07
1.3933e-07
1.11444e-07
2.0956e-07
2.73621e-08
2.39356e-07
-3.32806e-08
2.30833e-07
2.18745e-07
-1.15116e-07
-2.47452e-07
9.85286e-07
-3.5411e-07
5.56443e-07
-3.36357e-07
-2.06346e-08
-2.27703e-07
-5.27275e-07
-2.23689e-07
-2.91561e-08
-1.29065e-07
-7.71089e-07
1.89088e-08
-8.53886e-07
2.45559e-07
6.57125e-07
4.89446e-07
6.18506e-08
2.87488e-07
-1.10568e-06
9.50343e-07
-3.02431e-06
1.49183e-06
-2.52299e-06
6.16836e-07
2.30337e-06
3.66004e-07
1.31842e-06
8.69674e-07
-1.04641e-06
1.35728e-06
-5.22013e-07
1.40087e-06
2.50646e-07
6.49452e-07
4.71218e-06
4.98621e-07
-6.58997e-08
1.00815e-06
-3.18832e-06
1.00014e-06
-8.14883e-07
7.24245e-07
6.36128e-07
3.11872e-07
1.50304e-06
-2.5368e-07
1.57217e-06
4.37437e-08
-2.32664e-06
7.7574e-07
-2.14302e-06
5.49707e-07
5.86625e-07
2.15429e-07
2.13194e-06
-3.49524e-07
1.30671e-06
-2.12365e-07
-1.37138e-06
3.54174e-07
-1.58901e-06
7.82963e-07
-3.52141e-09
9.10502e-07
4.76566e-08
9.46902e-07
-9.02506e-07
9.72298e-07
-6.59483e-07
1.26162e-06
1.5993e-07
1.27443e-06
6.70401e-07
1.08249e-06
9.32263e-07
9.14673e-07
9.09259e-07
5.39125e-07
9.52019e-07
5.15575e-07
4.8007e-07
6.21335e-07
-1.65513e-07
5.61605e-07
-2.08626e-07
4.6831e-07
-1.78186e-08
3.50977e-07
1.51409e-07
2.4129e-07
2.49017e-07
1.57331e-07
2.9352e-07
1.16479e-07
2.80208e-07
1.35019e-07
2.12293e-07
3.25783e-07
2.79809e-08
-2.32145e-07
1.21743e-06
-3.29722e-07
6.54021e-07
-3.11745e-07
-3.86125e-08
-2.04129e-07
-6.3489e-07
-1.95373e-07
-3.79126e-08
-1.49125e-07
-8.17337e-07
-1.58664e-07
-8.44347e-07
2.58701e-08
4.72591e-07
3.20929e-07
-2.33208e-07
1.8972e-07
-9.74472e-07
9.61836e-07
-3.79642e-06
1.46004e-06
-3.02119e-06
5.00867e-07
3.26255e-06
3.81604e-07
1.43768e-06
7.67544e-07
-1.43235e-06
1.29954e-06
-1.05401e-06
1.86886e-06
-3.1867e-07
1.1566e-06
5.42444e-06
7.63339e-07
3.27363e-07
7.16386e-07
-3.14137e-06
1.0237e-06
-1.1222e-06
7.33628e-07
9.26199e-07
4.91378e-07
1.74529e-06
5.14935e-07
1.54861e-06
5.79111e-07
-2.39081e-06
6.28156e-07
-2.19207e-06
2.99597e-07
9.15183e-07
1.21598e-08
2.41938e-06
5.53437e-08
1.26353e-06
2.35835e-07
-1.55187e-06
2.87183e-07
-1.64036e-06
6.27648e-07
-3.43986e-07
7.49564e-07
-7.42596e-08
6.49307e-07
-8.0225e-07
4.95769e-07
-5.05945e-07
9.18044e-07
-2.62345e-07
1.12273e-06
4.6571e-07
1.24877e-06
8.06227e-07
1.02224e-06
1.13579e-06
6.49126e-07
1.32513e-06
5.79684e-07
5.49512e-07
5.99026e-07
-1.84855e-07
6.0144e-07
-2.1104e-07
5.15525e-07
6.8096e-08
3.79839e-07
2.87095e-07
2.56005e-07
3.72851e-07
1.61805e-07
3.8772e-07
9.96449e-08
3.42367e-07
1.95213e-08
2.92417e-07
3.62884e-07
-1.75804e-08
-2.10585e-07
1.42802e-06
-2.89874e-07
7.3331e-07
-2.83143e-07
-4.53442e-08
-1.92807e-07
-7.25226e-07
-1.76035e-07
-5.46843e-08
-1.00584e-07
-8.92788e-07
-1.16227e-07
-8.28704e-07
-9.60665e-08
4.52431e-07
-5.31817e-07
2.02542e-07
-2.45342e-07
-1.26095e-06
6.7372e-07
-4.71548e-06
1.06742e-06
-3.41489e-06
8.26063e-07
3.5039e-06
5.74541e-07
1.6892e-06
9.80187e-07
-1.838e-06
1.35923e-06
-1.43305e-06
1.12474e-06
-8.41759e-08
1.25692e-06
5.29225e-06
8.92616e-07
6.91669e-07
6.49993e-07
-2.89874e-06
8.17131e-07
-1.28933e-06
1.01991e-06
7.2342e-07
8.06279e-07
1.95892e-06
7.9375e-07
1.56114e-06
8.29088e-07
-2.42615e-06
7.49805e-07
-2.11279e-06
6.74679e-07
9.90309e-07
3.75202e-07
2.71886e-06
5.62237e-07
1.0765e-06
8.73712e-07
-1.86335e-06
5.18318e-07
-1.28497e-06
6.0627e-07
-4.31938e-07
6.70269e-07
-1.38258e-07
4.57181e-07
-5.89161e-07
4.34715e-07
-4.83479e-07
5.98398e-07
-4.26028e-07
8.0588e-07
2.58228e-07
1.05127e-06
5.60835e-07
8.1477e-07
1.37229e-06
5.14996e-07
1.6249e-06
4.87054e-07
5.77454e-07
4.63995e-07
-1.61796e-07
4.67964e-07
-2.1501e-07
4.67855e-07
6.82053e-08
3.68459e-07
3.86491e-07
2.56549e-07
4.84761e-07
1.85058e-07
4.59211e-07
1.33402e-07
3.94024e-07
1.64085e-07
2.61734e-07
2.37634e-07
2.89335e-07
-1.92561e-07
1.62058e-06
-2.67835e-07
8.08583e-07
-2.62931e-07
-5.02476e-08
-1.7976e-07
-8.08397e-07
-1.54335e-07
-8.01087e-08
-5.2855e-08
-9.94269e-07
6.21124e-08
-9.43672e-07
5.83865e-08
4.56157e-07
-1.51004e-07
4.11933e-07
6.69206e-08
-1.47887e-06
5.25869e-07
-5.17443e-06
1.09894e-06
-3.98796e-06
1.45098e-06
3.15186e-06
1.23255e-06
1.90764e-06
1.18887e-06
-1.79432e-06
1.32227e-06
-1.56645e-06
1.27957e-06
-4.14776e-08
1.29759e-06
5.27424e-06
9.7748e-07
1.01177e-06
5.94276e-07
-2.51554e-06
5.87631e-07
-1.28269e-06
1.18845e-06
1.22605e-07
1.02666e-06
2.1207e-06
1.01417e-06
1.57364e-06
9.33955e-07
-2.34594e-06
8.69328e-07
-2.04816e-06
1.14091e-06
7.18725e-07
7.84302e-07
3.07547e-06
6.76818e-07
1.18398e-06
9.05826e-07
-2.09235e-06
6.36006e-07
-1.01515e-06
6.29616e-07
-4.25548e-07
6.09024e-07
-1.17667e-07
4.58113e-07
-4.3825e-07
8.62322e-07
-8.87689e-07
6.79585e-07
-2.43291e-07
6.47252e-07
2.90561e-07
6.64844e-07
5.43243e-07
5.19876e-07
1.51726e-06
4.88044e-07
1.65674e-06
5.85703e-07
4.79794e-07
5.97579e-07
-1.73671e-07
5.36142e-07
-1.53572e-07
4.81561e-07
1.22786e-07
3.58541e-07
5.09511e-07
2.41982e-07
6.0132e-07
1.59287e-07
5.41907e-07
7.86142e-08
4.74696e-07
-2.64374e-08
3.66785e-07
3.00531e-07
-8.93351e-08
-1.72549e-07
1.79313e-06
-2.46417e-07
8.82452e-07
-2.53886e-07
-4.27788e-08
-1.75969e-07
-8.86315e-07
-1.3064e-07
-1.25438e-07
-1.9669e-08
-1.10524e-06
1.54138e-07
-1.11748e-06
8.37193e-08
5.26575e-07
-2.96223e-08
5.25275e-07
2.03542e-09
-1.51053e-06
3.58036e-07
-5.53043e-06
9.84076e-07
-4.614e-06
1.84297e-06
2.29297e-06
1.41785e-06
2.33275e-06
1.0528e-06
-1.42927e-06
1.11404e-06
-1.62769e-06
1.19668e-06
-1.2411e-07
1.42012e-06
5.05079e-06
9.9332e-07
1.43857e-06
5.3013e-07
-2.05235e-06
2.1696e-07
-9.69519e-07
6.90335e-07
-3.5077e-07
1.06149e-06
1.74954e-06
9.8797e-07
1.64716e-06
9.00417e-07
-2.25838e-06
8.3399e-07
-1.98173e-06
1.14729e-06
4.05426e-07
9.51234e-07
3.27152e-06
6.78306e-07
1.45691e-06
2.34398e-07
-1.64845e-06
4.20657e-07
-1.2014e-06
5.9187e-07
-5.96761e-07
4.81614e-07
-7.41012e-09
2.02066e-07
-1.58702e-07
2.85038e-07
-9.70661e-07
5.48661e-07
-5.06913e-07
4.66693e-07
3.72529e-07
4.35021e-07
5.74915e-07
6.53587e-07
1.2987e-06
8.31409e-07
1.47891e-06
8.11975e-07
4.99229e-07
7.1853e-07
-8.02268e-08
6.11132e-07
-4.61738e-08
4.94957e-07
2.38961e-07
3.47057e-07
6.57411e-07
2.18483e-07
7.29894e-07
1.2659e-07
6.338e-07
4.99042e-08
5.51381e-07
-4.3171e-08
4.5986e-07
2.80678e-07
-2.3318e-08
-1.54991e-07
1.94812e-06
-2.25045e-07
9.52506e-07
-2.47891e-07
-1.99324e-08
-1.78173e-07
-9.56033e-07
-1.19451e-07
-1.84161e-07
4.33951e-08
-1.26808e-06
1.53625e-07
-1.22771e-06
4.82533e-08
6.31948e-07
-3.18865e-07
8.92393e-07
-1.56409e-07
-1.67299e-06
2.28845e-07
-5.91569e-06
8.6558e-07
-5.25074e-06
1.5134e-06
1.64515e-06
1.32598e-06
2.52017e-06
9.47012e-07
-1.0503e-06
8.58329e-07
-1.53901e-06
1.08009e-06
-3.45869e-07
1.33281e-06
4.79807e-06
5.52853e-07
2.21853e-06
4.89906e-07
-1.9894e-06
4.54761e-07
-9.34374e-07
7.2467e-07
-6.20679e-07
8.33843e-07
1.64037e-06
7.43938e-07
1.73706e-06
7.54081e-07
-2.26853e-06
6.65799e-07
-1.89345e-06
7.1613e-07
3.55095e-07
8.22832e-07
3.16482e-06
7.66344e-07
1.5134e-06
5.9309e-07
-1.47519e-06
4.52201e-07
-1.06052e-06
6.14215e-07
-7.58776e-07
3.43959e-07
2.62846e-07
1.37703e-07
4.75534e-08
2.96839e-07
-1.1298e-06
5.24426e-07
-7.345e-07
3.86264e-07
5.1069e-07
3.27033e-07
6.34147e-07
5.81855e-07
1.04388e-06
8.25888e-07
1.23488e-06
8.92639e-07
4.32479e-07
8.37871e-07
-2.54588e-08
7.37808e-07
5.38888e-08
5.18102e-07
4.58667e-07
3.33237e-07
8.42276e-07
2.00071e-07
8.6306e-07
1.10404e-07
7.23467e-07
4.83272e-08
6.13458e-07
-5.0997e-09
5.13287e-07
3.37614e-07
-6.20356e-08
-1.43607e-07
2.09172e-06
-2.1059e-07
1.01949e-06
-2.48592e-07
1.80696e-08
-1.84708e-07
-1.01992e-06
-1.01918e-07
-2.66951e-07
1.48857e-07
-1.51886e-06
2.7393e-07
-1.35278e-06
8.1792e-08
8.24086e-07
-1.7708e-07
1.15127e-06
-1.5157e-07
-1.6985e-06
5.98695e-08
-6.12713e-06
8.16567e-07
-6.00743e-06
1.21474e-06
1.24698e-06
1.10527e-06
2.62963e-06
4.67829e-07
-4.12856e-07
2.97705e-07
-1.36889e-06
8.89699e-07
-9.37863e-07
1.06127e-06
4.62651e-06
2.16064e-07
3.06373e-06
4.83047e-07
-2.25639e-06
5.91391e-07
-1.04272e-06
7.07749e-07
-7.37037e-07
6.82133e-07
1.66599e-06
6.99007e-07
1.72019e-06
6.51415e-07
-2.22094e-06
6.07243e-07
-1.84928e-06
6.37395e-07
3.24943e-07
5.88414e-07
3.2138e-06
1.12478e-06
9.77027e-07
8.15882e-07
-1.16629e-06
6.21946e-07
-8.6658e-07
5.36997e-07
-6.73826e-07
1.94655e-07
6.05188e-07
8.83357e-08
1.53873e-07
2.72736e-07
-1.3142e-06
4.5065e-07
-9.12414e-07
3.46865e-07
6.14475e-07
2.1236e-07
7.68652e-07
1.68244e-07
1.08799e-06
3.9631e-07
1.00682e-06
7.11348e-07
1.17441e-07
7.16276e-07
-3.0387e-08
5.77596e-07
1.92569e-07
4.41328e-07
5.94935e-07
2.8314e-07
1.00046e-06
1.76675e-07
9.69524e-07
9.53559e-08
8.04786e-07
4.88897e-08
6.59924e-07
2.44327e-08
5.37744e-07
3.74074e-07
-1.20276e-08
-1.31497e-07
2.22322e-06
-1.94095e-07
1.08209e-06
-2.48189e-07
7.21638e-08
-1.89465e-07
-1.07864e-06
-5.11888e-08
-4.05228e-07
3.66062e-07
-1.93611e-06
5.13497e-07
-1.50022e-06
1.40855e-07
1.19673e-06
-1.86665e-07
1.47878e-06
-1.40799e-07
-1.74436e-06
2.49946e-07
-6.51787e-06
7.54631e-07
-6.51212e-06
1.10236e-06
8.99248e-07
1.10535e-06
2.62665e-06
7.59324e-07
-6.68304e-08
3.72374e-07
-9.81939e-07
8.07276e-07
-1.37276e-06
8.17586e-07
4.6162e-06
3.09928e-07
3.57139e-06
3.08898e-07
-2.25536e-06
4.17717e-07
-1.15154e-06
5.94481e-07
-9.13801e-07
3.65795e-07
1.89467e-06
5.09336e-07
1.57665e-06
5.9133e-07
-2.30293e-06
4.13044e-07
-1.67099e-06
1.37897e-07
6.0009e-07
2.16317e-07
3.13538e-06
7.52846e-07
4.40498e-07
7.465e-07
-1.15994e-06
5.29499e-07
-6.4958e-07
5.80227e-07
-7.24554e-07
1.03663e-07
1.08175e-06
2.97379e-07
-3.98429e-08
4.75398e-07
-1.49222e-06
4.49868e-07
-8.86884e-07
3.22624e-07
7.41719e-07
1.41282e-07
9.49994e-07
4.64942e-09
1.22462e-06
1.87143e-07
8.24322e-07
5.18399e-07
-2.13815e-07
5.38031e-07
-5.00192e-08
3.28232e-07
4.02367e-07
2.8794e-07
6.35228e-07
2.09987e-07
1.07842e-06
1.39107e-07
1.0404e-06
8.23492e-08
8.61544e-07
5.12744e-08
6.90999e-07
6.88721e-08
5.20146e-07
3.17259e-07
1.25687e-07
-1.20474e-07
2.3437e-06
-1.88734e-07
1.15035e-06
-2.4787e-07
1.313e-07
-1.7554e-07
-1.15097e-06
-5.2549e-08
-5.28218e-07
8.77251e-07
-2.86591e-06
7.43623e-07
-1.36659e-06
1.51054e-07
1.7893e-06
-2.78306e-07
1.90815e-06
-4.73128e-07
-1.54954e-06
3.76453e-07
-7.36745e-06
4.87108e-07
-6.62277e-06
1.01347e-06
3.72884e-07
1.19969e-06
2.44042e-06
1.03994e-06
9.29283e-08
5.93864e-07
-5.35866e-07
7.65913e-07
-1.54481e-06
5.69808e-07
4.8123e-06
1.15753e-07
4.02544e-06
5.61138e-07
-2.70074e-06
3.88397e-07
-9.78798e-07
3.61305e-07
-8.86709e-07
6.57836e-07
1.59814e-06
5.12119e-07
1.72237e-06
5.65559e-07
-2.35637e-06
4.35042e-07
-1.54047e-06
4.48504e-07
5.86628e-07
1.85483e-07
3.3984e-06
6.08856e-07
1.71254e-08
5.06299e-07
-1.05739e-06
4.77069e-08
-1.90988e-07
8.00679e-08
-7.56915e-07
2.1507e-07
9.46749e-07
6.65206e-07
-4.89978e-07
6.96918e-07
-1.52393e-06
6.12732e-07
-8.02698e-07
3.61665e-07
9.92786e-07
1.72504e-07
1.13916e-06
2.19683e-08
1.37516e-06
2.42791e-07
6.03499e-07
4.742e-07
-4.45225e-07
4.15739e-07
8.44254e-09
2.17735e-07
6.00371e-07
1.74764e-07
6.78198e-07
1.53944e-07
1.09924e-06
1.09947e-07
1.0844e-06
7.02648e-08
9.01225e-07
5.71431e-08
7.04121e-07
8.5379e-08
4.9191e-07
2.59045e-07
1.43593e-07
-1.0833e-07
2.45203e-06
-1.82637e-07
1.22465e-06
-2.37769e-07
1.86432e-07
-1.47306e-07
-1.24143e-06
-2.13033e-07
-4.62491e-07
3.2123e-07
-3.40017e-06
3.32234e-07
-1.37759e-06
2.23181e-08
2.09921e-06
2.79073e-08
1.90256e-06
5.45663e-07
-2.0673e-06
7.8459e-07
-7.60638e-06
5.18829e-07
-6.35701e-06
9.06101e-07
-1.43877e-08
1.19689e-06
2.14963e-06
7.76729e-07
5.13094e-07
4.10549e-07
-1.69686e-07
6.56654e-07
-1.79092e-06
6.75651e-07
4.7933e-06
7.46444e-07
3.95465e-06
4.39495e-07
-2.39379e-06
2.44964e-07
-7.84266e-07
1.84727e-07
-8.26473e-07
6.38558e-07
1.14431e-06
5.39017e-07
1.82191e-06
4.62226e-07
-2.27958e-06
5.38886e-07
-1.61713e-06
6.51459e-07
4.74054e-07
2.96016e-07
3.75385e-06
5.66776e-07
-2.53635e-07
2.10074e-07
-7.00685e-07
-3.41852e-07
3.60938e-07
-3.92912e-07
-7.05855e-07
4.41816e-07
1.12021e-07
5.90753e-07
-6.38915e-07
6.37075e-07
-1.57025e-06
5.85038e-07
-7.5066e-07
3.98316e-07
1.17951e-06
2.63608e-07
1.27386e-06
2.90766e-07
1.348e-06
4.66138e-07
4.28128e-07
4.29169e-07
-4.08256e-07
3.1445e-07
1.23162e-07
2.10658e-07
7.04164e-07
1.38247e-07
7.50609e-07
1.25023e-07
1.11246e-06
9.05663e-08
1.11886e-06
6.24562e-08
9.29336e-07
5.89926e-08
7.07584e-07
6.56733e-08
4.85229e-07
2.57875e-07
6.68431e-08
-9.90864e-08
2.55111e-06
-1.72112e-07
1.29768e-06
-2.24684e-07
2.39004e-07
-1.40208e-07
-1.32591e-06
-3.03666e-07
-2.99034e-07
-9.97147e-07
-2.70669e-06
-8.57259e-07
-1.51748e-06
-4.54686e-07
1.69664e-06
4.00798e-07
1.04707e-06
1.04357e-06
-2.71007e-06
6.27207e-07
-7.19002e-06
2.57108e-07
-5.98691e-06
9.88356e-07
-7.45636e-07
1.1775e-06
1.96048e-06
5.85875e-07
1.10472e-06
2.08049e-07
2.08141e-07
5.44843e-07
-2.12771e-06
7.57482e-07
4.58066e-06
5.40187e-07
4.17194e-06
2.14747e-07
-2.06835e-06
-8.74206e-08
-4.82098e-07
-6.58729e-08
-8.4802e-07
2.68408e-07
8.10031e-07
4.3222e-07
1.6581e-06
4.51318e-07
-2.29868e-06
4.08314e-07
-1.57413e-06
5.64226e-07
3.18142e-07
2.9183e-07
4.02624e-06
3.74214e-07
-3.36019e-07
1.79776e-09
-3.28269e-07
-1.79942e-07
5.42678e-07
2.25e-08
-9.08297e-07
3.96664e-07
-2.62144e-07
3.72086e-07
-6.14337e-07
3.14377e-07
-1.51254e-06
2.48389e-07
-6.84672e-07
3.4846e-07
1.07944e-06
3.43544e-07
1.27878e-06
5.19408e-07
1.17214e-06
6.02807e-07
3.44729e-07
3.55842e-07
-1.61291e-07
2.20563e-07
2.58442e-07
2.39707e-07
6.8502e-07
1.46264e-07
8.44052e-07
1.12938e-07
1.14579e-06
7.77548e-08
1.15404e-06
6.0544e-08
9.46546e-07
5.47465e-08
7.13382e-07
4.32249e-08
4.96751e-07
2.79398e-07
2.1702e-08
-9.20289e-08
2.64314e-06
-1.62955e-07
1.36861e-06
-2.24196e-07
3.00245e-07
-1.79382e-07
-1.37072e-06
-2.23425e-07
-2.54991e-07
-6.54052e-07
-2.27606e-06
-6.80195e-07
-1.49134e-06
-5.08392e-07
1.52484e-06
1.124e-07
4.2628e-07
1.27565e-08
-2.61042e-06
3.94111e-07
-7.57137e-06
5.29569e-07
-6.12237e-06
7.99502e-07
-1.01557e-06
9.3799e-07
1.82199e-06
4.31073e-07
1.61164e-06
2.88914e-07
3.503e-07
4.86892e-07
-2.32569e-06
4.91828e-07
4.57573e-06
1.68491e-07
4.49528e-06
-1.02702e-07
-1.79716e-06
-2.42483e-07
-3.42318e-07
-2.17599e-07
-8.72904e-07
7.68295e-08
5.15602e-07
3.3529e-07
1.39963e-06
4.21343e-07
-2.38473e-06
2.67413e-07
-1.4202e-06
2.55125e-07
3.3043e-07
1.71108e-07
4.11026e-06
2.08465e-07
-3.73376e-07
-7.31661e-08
-4.66379e-08
-2.40196e-08
4.93531e-07
2.86467e-07
-1.21878e-06
4.05456e-07
-3.81132e-07
3.58639e-07
-5.6752e-07
4.26086e-08
-1.19651e-06
-3.7606e-08
-6.04457e-07
2.39286e-07
8.02545e-07
3.75233e-07
1.14283e-06
4.5945e-07
1.08792e-06
4.88671e-07
3.15507e-07
3.06728e-07
2.06522e-08
2.19799e-07
3.4537e-07
2.18242e-07
6.86578e-07
1.5133e-07
9.10963e-07
1.05503e-07
1.19162e-06
6.85763e-08
1.19097e-06
4.95376e-08
9.65585e-07
5.12234e-08
7.11696e-07
3.9976e-08
5.07998e-07
3.03687e-07
1.56871e-08
-8.49952e-08
2.72814e-06
-1.52576e-07
1.43619e-06
-2.06718e-07
3.54387e-07
-1.85258e-07
-1.39218e-06
-6.63143e-08
-3.73935e-07
2.33451e-07
-2.57583e-06
-5.90401e-08
-1.19885e-06
-3.53401e-07
1.8192e-06
-7.847e-08
1.51349e-07
-1.03534e-07
-2.58536e-06
4.20428e-07
-8.09533e-06
5.53434e-07
-6.25538e-06
6.17837e-07
-1.07997e-06
5.45489e-07
1.89434e-06
2.49335e-07
1.90779e-06
3.04331e-07
2.95304e-07
4.2141e-07
-2.44277e-06
3.05737e-07
4.6914e-06
-7.15677e-08
4.87259e-06
-4.30007e-07
-1.43872e-06
-1.55333e-07
-6.16991e-07
-2.22043e-07
-8.06194e-07
-1.10102e-07
4.03661e-07
3.05497e-07
9.84036e-07
3.98004e-07
-2.47724e-06
1.91907e-07
-1.2141e-06
-6.44367e-08
5.86774e-07
1.02779e-08
4.03555e-06
1.81981e-07
-5.45079e-07
-1.24071e-08
1.4775e-07
1.34269e-07
3.46855e-07
3.36353e-07
-1.42087e-06
3.54801e-07
-3.9958e-07
2.86588e-07
-4.99307e-07
7.26906e-08
-9.82615e-07
-9.51238e-08
-4.36643e-07
1.1155e-07
5.95871e-07
3.49164e-07
9.05218e-07
4.93528e-07
9.43557e-07
4.62985e-07
3.4605e-07
3.16289e-07
1.67348e-07
2.92024e-07
3.69636e-07
2.29914e-07
7.48687e-07
1.52945e-07
9.87933e-07
9.92917e-08
1.24527e-06
6.24202e-08
1.22784e-06
4.06774e-08
9.87328e-07
4.67751e-08
7.05598e-07
3.19872e-08
5.22786e-07
3.29979e-07
5.69521e-09
-7.82387e-08
2.80637e-06
-1.38497e-07
1.49644e-06
-1.73651e-07
3.8954e-07
-1.26619e-07
-1.43921e-06
1.68578e-07
-6.69132e-07
8.68976e-07
-3.27623e-06
4.64468e-07
-7.94343e-07
-3.55451e-08
2.31921e-06
-7.54095e-08
1.91213e-07
3.63946e-08
-2.69716e-06
4.26121e-07
-8.48506e-06
6.08546e-07
-6.4378e-06
4.12374e-07
-8.838e-07
2.9823e-07
2.00849e-06
2.16626e-07
1.9894e-06
2.42664e-07
2.69266e-07
3.43146e-07
-2.54325e-06
1.19595e-07
4.91495e-06
-1.83981e-07
5.17616e-06
-3.18215e-07
-1.30448e-06
-8.60154e-08
-8.49191e-07
-1.23881e-07
-7.68328e-07
1.70332e-07
1.09448e-07
3.2117e-07
8.33198e-07
3.55981e-07
-2.51205e-06
1.97811e-07
-1.05593e-06
7.90592e-08
7.05525e-07
2.22e-07
3.8926e-06
1.71876e-07
-4.94955e-07
-7.09877e-08
3.90614e-07
2.48855e-08
2.50982e-07
3.08664e-07
-1.70465e-06
2.14313e-07
-3.05228e-07
2.56711e-07
-5.41705e-07
1.9201e-07
-9.17914e-07
1.39269e-09
-2.46025e-07
1.4465e-07
4.52614e-07
3.27213e-07
7.22656e-07
5.29465e-07
7.41304e-07
4.83776e-07
3.91739e-07
3.17182e-07
3.33943e-07
3.8918e-07
2.97638e-07
3.02329e-07
8.35537e-07
1.62685e-07
1.12758e-06
9.5718e-08
1.31224e-06
6.15773e-08
1.26198e-06
4.42888e-08
1.00462e-06
4.23876e-08
7.075e-07
2.12572e-08
5.43917e-07
3.58664e-07
-7.42779e-09
-7.15881e-08
2.87796e-06
-1.23753e-07
1.54861e-06
-1.4164e-07
4.07427e-07
-6.96602e-08
-1.51119e-06
1.09421e-07
-8.48213e-07
5.82508e-07
-3.74931e-06
6.07198e-07
-8.19032e-07
1.81148e-07
2.74526e-06
-6.00183e-08
4.32379e-07
9.64292e-08
-2.85361e-06
2.92583e-07
-8.68121e-06
3.5495e-07
-6.50017e-06
2.17705e-07
-7.46555e-07
-1.74153e-07
2.40034e-06
-3.91198e-08
1.85437e-06
2.8858e-07
-5.84342e-08
2.06189e-07
-2.46086e-06
-1.09693e-08
5.13211e-06
-2.22839e-07
5.38803e-06
-3.1519e-07
-1.21213e-06
1.75205e-08
-1.1819e-06
6.51901e-09
-7.57327e-07
1.0021e-07
1.57565e-08
2.99506e-07
6.33902e-07
3.28529e-07
-2.54107e-06
2.07504e-07
-9.34906e-07
8.67777e-08
8.26252e-07
2.01031e-07
3.77835e-06
1.74459e-07
-4.68383e-07
7.64386e-08
4.88635e-07
6.99983e-08
2.57423e-07
2.5844e-07
-1.89309e-06
2.28787e-07
-2.75576e-07
5.18611e-07
-8.31529e-07
1.62863e-07
-5.62166e-07
-5.3837e-09
-7.77787e-08
1.91979e-07
2.55252e-07
2.79814e-07
6.3482e-07
3.42083e-07
6.79036e-07
3.86269e-07
3.47554e-07
3.34213e-07
3.85998e-07
3.56039e-07
2.75812e-07
3.04317e-07
8.8726e-07
1.64312e-07
1.26758e-06
9.25162e-08
1.38403e-06
6.5887e-08
1.28861e-06
5.13712e-08
1.01913e-06
3.60013e-08
7.2287e-07
1.26617e-08
5.67256e-07
3.88605e-07
-1.72789e-08
-6.50159e-08
2.94298e-06
-1.08499e-07
1.59209e-06
-1.16761e-07
4.1569e-07
-4.86646e-08
-1.57929e-06
7.55523e-08
-9.7243e-07
3.61975e-07
-4.03574e-06
5.55634e-07
-1.01269e-06
2.4331e-07
3.05759e-06
-8.06087e-08
7.56298e-07
-3.5314e-07
-2.58108e-06
1.32293e-08
-9.04758e-06
3.36035e-07
-6.82297e-06
6.40499e-08
-4.7457e-07
-1.51094e-07
2.61549e-06
-1.22757e-07
1.82603e-06
2.55154e-07
-4.36345e-07
1.35367e-07
-2.34107e-06
-4.90287e-08
5.31651e-06
-1.63785e-07
5.50279e-06
-1.56765e-07
-1.21915e-06
2.3402e-07
-1.57269e-06
8.62978e-08
-6.09605e-07
1.20168e-07
-1.81137e-08
3.13991e-07
4.40079e-07
3.15664e-07
-2.54275e-06
2.14932e-07
-8.34174e-07
1.07497e-07
9.33686e-07
3.51657e-07
3.53419e-06
2.57422e-07
-3.74148e-07
2.49106e-07
4.96951e-07
1.21354e-07
3.85175e-07
1.69243e-07
-1.94098e-06
3.72579e-07
-4.78911e-07
5.04554e-07
-9.63504e-07
2.47615e-07
-3.05227e-07
1.62139e-07
7.69749e-09
1.57427e-07
2.59963e-07
2.05368e-07
5.8688e-07
1.67273e-07
7.1713e-07
3.5915e-07
1.55677e-07
4.50408e-07
2.9474e-07
3.78312e-07
3.47908e-07
2.33117e-07
1.03246e-06
1.46236e-07
1.35446e-06
8.64269e-08
1.44384e-06
7.07785e-08
1.30426e-06
5.30929e-08
1.03682e-06
2.88005e-08
7.47162e-07
6.41831e-09
5.89638e-07
4.14197e-07
-1.91743e-08
-5.87259e-08
3.0017e-06
-9.40269e-08
1.62739e-06
-9.89425e-08
4.20606e-07
-4.37122e-08
-1.63452e-06
4.98943e-08
-1.06604e-06
2.44772e-07
-4.23062e-06
8.91956e-08
-8.57115e-07
-3.66559e-08
3.18344e-06
-7.42491e-08
7.93891e-07
3.67542e-08
-2.69208e-06
5.41229e-08
-9.06495e-06
1.48042e-07
-6.91689e-06
-2.68388e-08
-2.99689e-07
-3.23992e-07
2.91264e-06
-7.97313e-08
1.58177e-06
2.05809e-07
-7.21885e-07
1.4234e-07
-2.27761e-06
-1.15793e-08
5.47043e-06
-4.1549e-08
5.53276e-06
-1.09084e-07
-1.15162e-06
1.51496e-07
-1.83327e-06
9.14275e-08
-5.49536e-07
8.94432e-08
-1.61295e-08
1.98071e-07
3.31452e-07
2.92399e-07
-2.63707e-06
2.03979e-07
-7.45754e-07
9.03748e-08
1.04729e-06
3.80941e-07
3.24362e-06
2.73242e-07
-2.66449e-07
2.11965e-07
5.58228e-07
4.0786e-08
5.56354e-07
1.53374e-07
-2.05357e-06
2.69594e-07
-5.95132e-07
3.47399e-07
-1.04131e-06
2.13385e-07
-1.71213e-07
2.00575e-07
2.05079e-08
1.45811e-07
3.14727e-07
1.55872e-07
5.76819e-07
1.36546e-07
7.36456e-07
3.35295e-07
-4.30711e-08
4.44249e-07
1.85785e-07
3.60094e-07
4.32063e-07
2.14807e-07
1.17774e-06
1.20891e-07
1.44838e-06
7.84415e-08
1.48629e-06
6.19374e-08
1.32076e-06
4.76532e-08
1.0511e-06
2.36771e-08
7.71138e-07
2.85541e-09
6.1046e-07
-1.63479e-08
4.33401e-07
-8.71537e-08
1.26725e-08
-7.37259e-08
-1.34276e-08
2.2513e-08
-9.62389e-08
3.92344e-08
-1.67212e-08
-5.02813e-08
8.95158e-08
-7.19879e-08
2.17066e-08
-8.60427e-08
1.40548e-08
-1.42716e-07
5.66734e-08
-2.30295e-07
8.75785e-08
-2.80183e-07
4.98879e-08
-2.35049e-07
-4.51338e-08
2.31262e-08
-2.58175e-07
6.899e-08
-4.58638e-08
9.04289e-09
5.99471e-08
1.85809e-08
-9.53798e-09
1.36607e-07
-1.18026e-07
2.01061e-07
-6.44542e-08
1.17129e-07
8.39319e-08
-1.78889e-07
2.96018e-07
-2.14239e-07
3.53501e-08
2.90801e-07
-5.05039e-07
6.99179e-07
-4.08378e-07
6.5312e-07
4.60594e-08
6.73221e-07
-2.01007e-08
6.15726e-07
5.74943e-08
1.97394e-07
4.18333e-07
-5.07858e-07
7.05251e-07
-5.9388e-07
8.6022e-08
-8.3511e-07
2.4123e-07
5.52928e-07
-1.38804e-06
6.69638e-07
-1.16709e-07
1.21456e-08
6.57492e-07
-4.22921e-07
4.35066e-07
-4.84921e-07
6.19998e-08
-6.53936e-07
1.69015e-07
-7.73161e-07
1.19225e-07
-1.65619e-07
-6.07542e-07
-4.83987e-07
3.18368e-07
-8.21327e-07
3.3734e-07
-6.69374e-07
-1.51953e-07
-4.11718e-07
-2.57656e-07
1.55633e-06
-1.96805e-06
2.34369e-06
-7.87356e-07
-1.17393e-08
2.35543e-06
2.48748e-08
-3.66142e-08
-2.01825e-08
4.50573e-08
1.25353e-07
-1.45535e-07
2.51967e-07
-1.26614e-07
2.00312e-07
5.1655e-08
2.00312e-07
-1.81394e-07
-1.0015e-08
-2.37321e-07
4.24994e-08
-1.84058e-07
-1.49502e-07
-9.15882e-08
-1.0919e-07
-1.73216e-07
1.71143e-07
-1.57698e-07
6.18884e-09
-1.27929e-07
-1.5714e-08
-1.32518e-07
6.12627e-08
-1.25747e-07
8.08071e-08
3.22096e-08
-1.08069e-07
1.86688e-07
-1.99612e-07
-7.28733e-09
-6.42e-08
6.23931e-08
-1.15544e-07
-8.34634e-09
1.30687e-07
-1.25318e-07
1.07433e-07
-1.18564e-07
-1.2478e-07
-8.65528e-08
-9.64654e-08
1.18346e-07
-1.20967e-07
1.17133e-07
2.97231e-07
-2.52883e-08
1.77772e-07
4.48321e-08
-5.7516e-07
5.10373e-07
-8.73919e-07
6.26406e-07
-6.99736e-08
6.78388e-07
-7.20824e-08
6.86162e-07
4.97203e-08
2.36527e-07
8.67968e-07
-2.47954e-07
1.18973e-06
-2.86566e-07
1.24633e-07
-6.80849e-07
6.35514e-07
-1.89259e-08
-2.04996e-06
3.02828e-07
-4.38463e-07
4.46373e-07
5.13947e-07
6.94758e-07
1.86681e-07
1.14207e-07
6.42551e-07
-5.5519e-07
8.38411e-07
-5.98252e-07
1.62288e-07
3.5748e-07
-1.56327e-06
-2.59014e-07
9.34862e-07
-1.13293e-06
1.21125e-06
-1.01784e-06
-2.67036e-07
-4.58256e-07
-8.17245e-07
8.06177e-07
-3.23248e-06
1.39592e-06
-1.3771e-06
7.85835e-07
2.96551e-06
3.12149e-07
4.37071e-07
8.76191e-08
2.69587e-07
1.29517e-07
-1.87433e-07
2.54336e-07
-2.51433e-07
2.29602e-07
7.63894e-08
4.29914e-07
-1.6328e-07
3.81488e-08
-2.63838e-07
1.43058e-07
-4.10064e-07
-3.27638e-09
-2.26615e-07
-2.9264e-07
-2.59015e-07
2.03544e-07
-1.69791e-07
-8.30356e-08
-8.98429e-08
-9.56616e-08
-7.09902e-08
4.24099e-08
-1.03013e-07
1.1283e-07
-1.58367e-07
-5.27148e-08
-1.24052e-07
-2.33927e-07
7.77228e-08
-2.65975e-07
2.31964e-08
-6.10178e-08
-4.54893e-08
1.99372e-07
-8.03466e-08
1.42291e-07
-8.28001e-08
-1.22326e-07
-7.32254e-08
-1.0604e-07
1.08714e-07
-3.02907e-07
-5.7771e-08
4.63716e-07
-2.75099e-07
3.95099e-07
-5.84192e-08
-7.91839e-07
3.93573e-07
-1.32591e-06
6.14796e-07
-2.91196e-07
6.79219e-07
-1.36506e-07
4.76358e-07
2.52581e-07
9.1169e-08
1.25316e-06
-3.54346e-07
1.63525e-06
-3.96179e-07
1.66466e-07
-6.33204e-07
8.72539e-07
-4.49592e-08
-2.63821e-06
3.65656e-07
-8.49078e-07
1.75707e-07
7.03896e-07
4.06068e-07
-4.36797e-08
5.45358e-07
5.03262e-07
-4.95153e-07
1.87892e-06
-5.48203e-07
2.15338e-07
3.33748e-07
-2.44523e-06
-2.83589e-07
1.5522e-06
-1.01234e-06
1.94001e-06
-8.49995e-07
-4.29384e-07
-1.54582e-07
-1.51266e-06
1.22517e-06
-4.61224e-06
1.81133e-06
-1.96325e-06
1.10635e-06
3.67049e-06
2.35706e-07
1.30771e-06
9.42579e-08
4.11035e-07
1.33982e-07
-2.27158e-07
2.45796e-07
-3.63247e-07
2.24751e-07
9.7434e-08
6.54665e-07
-1.74541e-07
2.40671e-07
-1.49731e-07
1.18248e-07
-1.53956e-07
9.48072e-10
-2.26904e-07
-2.19691e-07
-1.57897e-07
1.34536e-07
-3.81155e-08
-2.02817e-07
-5.42816e-09
-1.28349e-07
1.84842e-08
1.84975e-08
1.19947e-08
1.19319e-07
-3.48954e-08
-5.82479e-09
-7.7614e-08
-1.91208e-07
2.93102e-08
-3.72899e-07
1.55484e-08
-4.7256e-08
-3.24985e-08
2.47419e-07
1.36071e-08
9.61851e-08
3.14498e-08
-1.40169e-07
-2.73123e-08
-4.72779e-08
5.85744e-09
-3.36076e-07
5.83295e-08
4.11244e-07
-2.60704e-07
7.14132e-07
-1.20408e-07
-9.32135e-07
3.27028e-07
-1.77335e-06
4.03191e-07
-3.6736e-07
4.2979e-07
-1.63105e-07
4.24973e-07
2.57398e-07
1.05407e-07
1.57272e-06
-2.37273e-07
1.97793e-06
-3.35125e-07
2.64318e-07
-3.32169e-07
8.69583e-07
-4.47014e-08
-2.92567e-06
2.56061e-07
-1.14984e-06
-5.00614e-07
1.46057e-06
-1.82126e-07
-3.62168e-07
2.40526e-07
8.06098e-08
-2.05637e-07
2.32509e-06
-2.82481e-07
2.92182e-07
1.96319e-07
-2.92402e-06
-4.1765e-07
2.16617e-06
-1.04417e-06
2.56653e-06
-8.32989e-07
-6.40563e-07
-1.50224e-07
-2.19542e-06
9.02245e-07