/*--------------------------------*- C++ -*----------------------------------*\
| =========                 |                                                 |
| \\      /  F ield         | OpenFOAM: The Open Source CFD Toolbox           |
|  \\    /   O peration     | Version:  2.4.0                                 |
|   \\  /    A nd           | Web:      www.OpenFOAM.org                      |
|    \\/     M anipulation  |                                                 |
\*---------------------------------------------------------------------------*/
FoamFile
{
    version     2.0;
    format      ascii;
    class       surfaceScalarField;
    location    "0.15";
    object      phi;
}
// * * * * * * * * * * * * * * * * * * * * * * * * * * * * * * * * * * * * * //

dimensions      [0 3 -1 0 0 0 0];

internalField   nonuniform List<scalar> 
4700
(
-1.30852e-11
1.30852e-11
-2.61182e-11
1.30293e-11
-3.90312e-11
1.291e-11
-5.17627e-11
1.27291e-11
-6.42494e-11
1.2485e-11
-7.64258e-11
1.21754e-11
-8.82241e-11
1.17975e-11
-9.95742e-11
1.13493e-11
-1.10404e-10
1.08292e-11
-1.2064e-10
1.02366e-11
-1.30211e-10
9.57208e-12
-1.39045e-10
8.83749e-12
-1.47077e-10
8.03625e-12
-1.54245e-10
7.17363e-12
-1.60494e-10
6.25698e-12
-1.65781e-10
5.29574e-12
-1.70071e-10
4.30129e-12
-1.73344e-10
3.28644e-12
-1.75593e-10
2.26474e-12
1.24782e-12
-1.76822e-10
-1.31236e-11
2.62052e-11
-2.61969e-11
2.60971e-11
-3.91497e-11
2.58586e-11
-5.19212e-11
2.54976e-11
-6.44482e-11
2.50099e-11
-7.66654e-11
2.43908e-11
-8.85046e-11
2.36355e-11
-9.98954e-11
2.27396e-11
-1.10765e-10
2.17002e-11
-1.21041e-10
2.05157e-11
-1.3065e-10
1.9187e-11
-1.39521e-10
1.77174e-11
-1.47587e-10
1.61137e-11
-1.54786e-10
1.43866e-11
-1.61063e-10
1.25511e-11
-1.66372e-10
1.06262e-11
-1.70681e-10
8.63493e-12
-1.73968e-10
6.60292e-12
-1.76226e-10
4.55793e-12
2.52859e-12
-1.77458e-10
-1.31536e-11
3.93557e-11
-2.62566e-11
3.91952e-11
-3.924e-11
3.88383e-11
-5.20432e-11
3.82979e-11
-6.46031e-11
3.75676e-11
-7.68543e-11
3.66403e-11
-8.87287e-11
3.55086e-11
-1.00155e-10
3.41661e-11
-1.11062e-10
3.26078e-11
-1.21374e-10
3.08313e-11
-1.31018e-10
2.8837e-11
-1.39923e-10
2.66301e-11
-1.48019e-10
2.42206e-11
-1.55245e-10
2.16247e-11
-1.61544e-10
1.88649e-11
-1.66871e-10
1.59699e-11
-1.71189e-10
1.29744e-11
-1.74479e-10
9.91718e-12
-1.76733e-10
6.8405e-12
3.78832e-12
-1.77954e-10
-1.31982e-11
5.2551e-11
-2.63458e-11
5.23383e-11
-3.93752e-11
5.1864e-11
-5.22258e-11
5.11456e-11
-6.4835e-11
5.01745e-11
-7.71373e-11
4.89409e-11
-8.90643e-11
4.74349e-11
-1.00545e-10
4.56474e-11
-1.11506e-10
4.35712e-11
-1.21872e-10
4.12022e-11
-1.3157e-10
3.8541e-11
-1.40525e-10
3.55938e-11
-1.48668e-10
3.23739e-11
-1.55935e-10
2.89029e-11
-1.62268e-10
2.5211e-11
-1.67619e-10
2.13367e-11
-1.71954e-10
1.73264e-11
-1.75249e-10
1.32327e-11
-1.77496e-10
9.11239e-12
5.02487e-12
-1.787e-10
-1.32574e-11
6.58055e-11
-2.64644e-11
6.55412e-11
-3.95548e-11
6.4951e-11
-5.24686e-11
6.40566e-11
-6.51434e-11
6.28473e-11
-7.75138e-11
6.13103e-11
-8.95112e-11
5.94327e-11
-1.01064e-10
5.72022e-11
-1.12098e-10
5.46092e-11
-1.22538e-10
5.16476e-11
-1.32306e-10
4.83175e-11
-1.4133e-10
4.4626e-11
-1.49536e-10
4.05898e-11
-1.56858e-10
3.62356e-11
-1.63236e-10
3.16012e-11
-1.68622e-10
2.67354e-11
-1.72977e-10
2.16964e-11
-1.76279e-10
1.6551e-11
-1.78518e-10
1.13714e-11
6.23253e-12
-1.797e-10
-1.3331e-11
7.91338e-11
-2.6612e-11
7.88189e-11
-3.97784e-11
7.81146e-11
-5.27709e-11
7.70472e-11
-6.55276e-11
7.5603e-11
-7.79832e-11
7.37663e-11
-9.00689e-11
7.15204e-11
-1.01712e-10
6.88496e-11
-1.12839e-10
6.57411e-11
-1.2337e-10
6.21866e-11
-1.33229e-10
5.8185e-11
-1.42339e-10
5.37446e-11
-1.50624e-10
4.88845e-11
-1.58016e-10
4.3637e-11
-1.64453e-10
3.80474e-11
-1.69882e-10
3.21746e-11
-1.74263e-10
2.60895e-11
-1.77573e-10
1.98735e-11
-1.79803e-10
1.36149e-11
7.40493e-12
-1.80956e-10
-1.34188e-11
9.25504e-11
-2.67881e-11
9.21862e-11
-4.00453e-11
9.13706e-11
-5.3132e-11
9.01336e-11
-6.59869e-11
8.84588e-11
-7.85447e-11
8.63266e-11
-9.07366e-11
8.37165e-11
-1.0249e-10
8.06086e-11
-1.13727e-10
7.69862e-11
-1.24371e-10
7.28384e-11
-1.3434e-10
6.81627e-11
-1.43554e-10
6.29677e-11
-1.51936e-10
5.72752e-11
-1.59414e-10
5.11223e-11
-1.65921e-10
4.4562e-11
-1.71403e-10
3.76636e-11
-1.75817e-10
3.05112e-11
-1.79138e-10
2.32018e-11
-1.81355e-10
1.58407e-11
8.53612e-12
-1.82475e-10
-1.35205e-11
1.06069e-10
-2.6992e-11
1.05658e-10
-4.03546e-11
1.04734e-10
-5.35507e-11
1.03332e-10
-6.65199e-11
1.01431e-10
-7.91973e-11
9.90091e-11
-9.15136e-11
9.60395e-11
-1.03395e-10
9.24982e-11
-1.14764e-10
8.83641e-11
-1.2554e-10
8.36229e-11
-1.35638e-10
7.82701e-11
-1.44977e-10
7.23143e-11
-1.53475e-10
6.57795e-11
-1.61054e-10
5.87073e-11
-1.67646e-10
5.11585e-11
-1.73191e-10
4.32129e-11
-1.77645e-10
3.49684e-11
-1.80978e-10
2.65386e-11
-1.83181e-10
1.80471e-11
9.6205e-12
-1.84261e-10
-1.36356e-11
1.19705e-10
-2.7223e-11
1.19248e-10
-4.07052e-11
1.1822e-10
-5.40259e-11
1.16658e-10
-6.71256e-11
1.14537e-10
-7.99398e-11
1.11831e-10
-9.2399e-11
1.08508e-10
-1.04429e-10
1.04538e-10
-1.1595e-10
9.98945e-11
-1.26878e-10
9.45603e-11
-1.37127e-10
8.85277e-11
-1.46611e-10
8.18047e-11
-1.55243e-10
7.44166e-11
-1.62941e-10
6.64097e-11
-1.69632e-10
5.78519e-11
-1.75252e-10
4.88342e-11
-1.79752e-10
3.9469e-11
-1.83101e-10
2.98872e-11
-1.85288e-10
2.02328e-11
1.06526e-11
-1.86321e-10
-1.37636e-11
1.3347e-10
-2.74801e-11
1.32971e-10
-4.10958e-11
1.31842e-10
-5.4556e-11
1.30126e-10
-6.78022e-11
1.27793e-10
-8.07707e-11
1.2481e-10
-9.33917e-11
1.21139e-10
-1.0559e-10
1.16746e-10
-1.17283e-10
1.11598e-10
-1.28386e-10
1.05672e-10
-1.38808e-10
9.89573e-11
-1.48458e-10
9.14604e-11
-1.57244e-10
8.32075e-11
-1.6508e-10
7.42486e-11
-1.71886e-10
6.46591e-11
-1.77593e-10
5.4541e-11
-1.82147e-10
4.40219e-11
-1.85514e-10
3.32515e-11
-1.87682e-10
2.23966e-11
1.16267e-11
-1.88663e-10
-1.39039e-11
1.47377e-10
-2.77623e-11
1.46838e-10
-4.1525e-11
1.45614e-10
-5.51393e-11
1.4375e-10
-6.85481e-11
1.41213e-10
-8.16883e-11
1.37961e-10
-9.44901e-11
1.33953e-10
-1.06877e-10
1.29144e-10
-1.18765e-10
1.23496e-10
-1.30065e-10
1.1698e-10
-1.40682e-10
1.09582e-10
-1.50521e-10
1.01305e-10
-1.59484e-10
9.21749e-11
-1.67478e-10
8.22453e-11
-1.74416e-10
7.15985e-11
-1.80223e-10
6.0348e-11
-1.8484e-10
4.8637e-11
-1.88228e-10
3.66357e-11
-1.90375e-10
2.45368e-11
1.25369e-11
-1.91296e-10
-1.40557e-11
1.61438e-10
-2.80683e-11
1.60862e-10
-4.19911e-11
1.59548e-10
-5.57738e-11
1.57545e-10
-6.9361e-11
1.54812e-10
-8.26906e-11
1.51303e-10
-9.56924e-11
1.46966e-10
-1.08289e-10
1.41751e-10
-1.20394e-10
1.3561e-10
-1.31914e-10
1.2851e-10
-1.42752e-10
1.20427e-10
-1.52804e-10
1.11363e-10
-1.61966e-10
1.01343e-10
-1.70139e-10
9.04224e-11
-1.77228e-10
7.86899e-11
-1.8315e-10
6.62709e-11
-1.8784e-10
5.3325e-11
-1.91252e-10
4.00437e-11
-1.93374e-10
2.66506e-11
1.33764e-11
-1.94228e-10
-1.42185e-11
1.75663e-10
-2.83968e-11
1.75052e-10
-4.24921e-11
1.73655e-10
-5.64571e-11
1.71522e-10
-7.02385e-11
1.68606e-10
-8.37749e-11
1.64851e-10
-9.69964e-11
1.60199e-10
-1.09824e-10
1.54589e-10
-1.22169e-10
1.47966e-10
-1.33935e-10
1.40285e-10
-1.45018e-10
1.31519e-10
-1.55309e-10
1.21662e-10
-1.64697e-10
1.10738e-10
-1.73073e-10
9.88041e-11
-1.80333e-10
8.59543e-11
-1.86387e-10
7.23267e-11
-1.9116e-10
5.80972e-11
-1.946e-10
4.34794e-11
-1.96693e-10
2.87338e-11
1.41373e-11
-1.97469e-10
-1.43916e-11
1.90062e-10
-2.87461e-11
1.89418e-10
-4.30255e-11
1.87945e-10
-5.71863e-11
1.85693e-10
-7.11772e-11
1.82607e-10
-8.49381e-11
1.78623e-10
-9.83991e-11
1.73671e-10
-1.1148e-10
1.67681e-10
-1.24089e-10
1.60586e-10
-1.36127e-10
1.52333e-10
-1.47482e-10
1.42885e-10
-1.5804e-10
1.3223e-10
-1.6768e-10
1.20388e-10
-1.76285e-10
1.07416e-10
-1.8374e-10
9.34143e-11
-1.89944e-10
7.85335e-11
-1.94814e-10
6.29667e-11
-1.98286e-10
4.69469e-11
-2.00341e-10
3.07795e-11
1.48086e-11
-2.01028e-10
-1.45745e-11
2.04643e-10
-2.91144e-11
2.03967e-10
-4.35886e-11
2.02428e-10
-5.79579e-11
2.00071e-10
-7.21734e-11
1.96832e-10
-8.61763e-11
1.92636e-10
-9.98968e-11
1.87403e-10
-1.13254e-10
1.81049e-10
-1.26153e-10
1.73498e-10
-1.38489e-10
1.64682e-10
-1.50146e-10
1.54554e-10
-1.61e-10
1.43096e-10
-1.70923e-10
1.30321e-10
-1.79785e-10
1.16286e-10
-1.8746e-10
1.01094e-10
-1.93835e-10
8.49116e-11
-1.98819e-10
6.79493e-11
-2.02328e-10
5.04516e-11
-2.04333e-10
3.27763e-11
1.53749e-11
-2.04915e-10
-1.47669e-11
2.19415e-10
-2.94993e-11
2.18706e-10
-4.4178e-11
2.17112e-10
-5.87679e-11
2.14668e-10
-7.32226e-11
2.11295e-10
-8.74848e-11
2.06908e-10
-1.01485e-10
2.01415e-10
-1.15142e-10
1.94718e-10
-1.28357e-10
1.86727e-10
-1.41021e-10
1.7736e-10
-1.53011e-10
1.66557e-10
-1.64194e-10
1.5429e-10
-1.74432e-10
1.40568e-10
-1.83583e-10
1.25444e-10
-1.91505e-10
1.0902e-10
-1.98076e-10
9.14841e-11
-2.03193e-10
7.30659e-11
-2.06746e-10
5.40015e-11
-2.08683e-10
3.47054e-11
1.58138e-11
-2.09137e-10
-1.49697e-11
2.34388e-10
-2.98978e-11
2.33637e-10
-4.47893e-11
2.32007e-10
-5.96114e-11
2.29494e-10
-7.43195e-11
2.26009e-10
-8.88584e-11
2.21456e-10
-1.0316e-10
2.15727e-10
-1.1714e-10
2.08711e-10
-1.30699e-10
2.00299e-10
-1.43722e-10
1.90395e-10
-1.56078e-10
1.78924e-10
-1.67625e-10
1.65845e-10
-1.78213e-10
1.51162e-10
-1.87689e-10
1.34925e-10
-1.95889e-10
1.17223e-10
-2.0268e-10
9.82768e-11
-2.07959e-10
7.83444e-11
-2.1157e-10
5.76105e-11
-2.13406e-10
3.65348e-11
1.60991e-11
-2.13704e-10
-1.51789e-11
2.49568e-10
-3.03029e-11
2.48761e-10
-4.54139e-11
2.47119e-10
-6.04778e-11
2.44561e-10
-7.54519e-11
2.40989e-10
-9.02834e-11
2.36296e-10
-1.04905e-10
2.30359e-10
-1.19233e-10
2.23051e-10
-1.33165e-10
2.14241e-10
-1.46579e-10
2.03817e-10
-1.59336e-10
1.91688e-10
-1.71283e-10
1.77798e-10
-1.8226e-10
1.62142e-10
-1.92101e-10
1.44767e-10
-2.00611e-10
1.25735e-10
-2.07647e-10
1.05314e-10
-2.1312e-10
8.38185e-11
-2.16803e-10
6.1293e-11
-2.18432e-10
3.81596e-11
1.58722e-11
-2.18216e-10
-1.54716e-11
2.65039e-10
-3.076e-11
2.64048e-10
-4.61142e-11
2.62473e-10
-6.14467e-11
2.59896e-10
-7.67126e-11
2.5626e-10
-9.18619e-11
2.51452e-10
-1.06829e-10
2.45334e-10
-1.21528e-10
2.37757e-10
-1.35853e-10
2.28572e-10
-1.49677e-10
2.17645e-10
-1.62851e-10
2.04864e-10
-1.75213e-10
1.9016e-10
-1.86588e-10
1.73516e-10
-1.96806e-10
1.54984e-10
-2.05629e-10
1.34558e-10
-2.12903e-10
1.12589e-10
-2.18605e-10
8.95207e-11
-2.22438e-10
6.51255e-11
-2.23881e-10
3.96002e-11
1.48194e-11
-2.22836e-10
-1.95454e-11
2.84583e-10
-3.92224e-11
2.83722e-10
-5.89578e-11
2.82207e-10
-7.87163e-11
2.79655e-10
-9.8485e-11
2.76032e-10
-1.18226e-10
2.71199e-10
-1.37874e-10
2.64989e-10
-1.57333e-10
2.57222e-10
-1.76473e-10
2.47717e-10
-1.95132e-10
2.36305e-10
-2.13116e-10
2.22846e-10
-2.302e-10
2.0724e-10
-2.46139e-10
1.89449e-10
-2.60743e-10
1.69585e-10
-2.73553e-10
1.47366e-10
-2.84356e-10
1.23392e-10
-2.93257e-10
9.84222e-11
-2.99707e-10
7.15771e-11
-3.03712e-10
4.36053e-11
-3.05499e-10
1.66023e-11
-1.77042e-10
2.49023e-13
-1.77017e-10
4.62048e-15
-1.76751e-10
-2.35228e-13
-1.7625e-10
-4.70075e-13
-1.7552e-10
-6.99345e-13
-1.74567e-10
-9.22246e-13
-1.73399e-10
-1.13831e-12
-1.72022e-10
-1.34648e-12
-1.70444e-10
-1.54777e-12
-1.68676e-10
-1.73885e-12
-1.66726e-10
-1.92081e-12
-1.64601e-10
-2.09675e-12
-1.62312e-10
-2.25976e-12
-1.59867e-10
-2.41437e-12
-1.57275e-10
-2.55971e-12
-1.54545e-10
-2.69274e-12
-1.51688e-10
-2.81717e-12
-1.48714e-10
-2.93153e-12
-1.45636e-10
-3.03704e-12
-3.1329e-12
-1.42466e-10
-1.77677e-10
5.20918e-13
-1.7765e-10
3.16034e-14
-1.77382e-10
-4.4952e-13
-1.76877e-10
-9.20774e-13
-1.76143e-10
-1.38077e-12
-1.75184e-10
-1.82819e-12
-1.74008e-10
-2.26154e-12
-1.72623e-10
-2.67978e-12
-1.71038e-10
-3.081e-12
-1.6926e-10
-3.46598e-12
-1.67299e-10
-3.83216e-12
-1.65164e-10
-4.17923e-12
-1.62864e-10
-4.50631e-12
-1.60406e-10
-4.81335e-12
-1.57802e-10
-5.09969e-12
-1.55058e-10
-5.3681e-12
-1.52187e-10
-5.61766e-12
-1.49201e-10
-5.85037e-12
-1.4611e-10
-6.06681e-12
-6.26695e-12
-1.42929e-10
-1.78166e-10
7.75503e-13
-1.78131e-10
3.92609e-14
-1.77853e-10
-6.84908e-13
-1.77338e-10
-1.39431e-12
-1.7659e-10
-2.08671e-12
-1.75617e-10
-2.76002e-12
-1.74427e-10
-3.41206e-12
-1.73026e-10
-4.04107e-12
-1.71422e-10
-4.64514e-12
-1.69626e-10
-5.22308e-12
-1.67646e-10
-5.77309e-12
-1.65492e-10
-6.29373e-12
-1.63171e-10
-6.78441e-12
-1.60694e-10
-7.2449e-12
-1.58069e-10
-7.67543e-12
-1.55307e-10
-8.07895e-12
-1.5242e-10
-8.45517e-12
-1.49418e-10
-8.80569e-12
-1.4631e-10
-9.13057e-12
-9.42935e-12
-1.43112e-10
-1.78903e-10
1.01393e-12
-1.78855e-10
2.78189e-14
-1.78563e-10
-9.42096e-13
-1.7803e-10
-1.89213e-12
-1.77263e-10
-2.81918e-12
-1.76269e-10
-3.72036e-12
-1.75056e-10
-4.59278e-12
-1.7363e-10
-5.43402e-12
-1.72e-10
-6.24163e-12
-1.70176e-10
-7.01363e-12
-1.68167e-10
-7.748e-12
-1.65982e-10
-8.44304e-12
-1.63632e-10
-9.09826e-12
-1.61124e-10
-9.71366e-12
-1.58472e-10
-1.02893e-11
-1.55684e-10
-1.08293e-11
-1.52771e-10
-1.13319e-11
-1.49743e-10
-1.17986e-11
-1.46609e-10
-1.22293e-11
-1.26242e-11
-1.43384e-10
-1.79889e-10
1.2319e-12
-1.79825e-10
-7.8315e-15
-1.79513e-10
-1.22683e-12
-1.78957e-10
-2.42046e-12
-1.78165e-10
-3.58474e-12
-1.77142e-10
-4.71599e-12
-1.75897e-10
-5.81063e-12
-1.74437e-10
-6.8656e-12
-1.72772e-10
-7.87786e-12
-1.70911e-10
-8.84502e-12
-1.68862e-10
-9.76478e-12
-1.66638e-10
-1.06355e-11
-1.64247e-10
-1.14567e-11
-1.61701e-10
-1.22284e-11
-1.59011e-10
-1.29512e-11
-1.56186e-10
-1.36271e-11
-1.53237e-10
-1.42552e-11
-1.50173e-10
-1.48363e-11
-1.47004e-10
-1.5371e-11
-1.58606e-11
-1.43744e-10
-1.81129e-10
1.42493e-12
-1.81044e-10
-7.28214e-14
-1.80706e-10
-1.5448e-12
-1.80121e-10
-2.98547e-12
-1.79296e-10
-4.39002e-12
-1.78237e-10
-5.75397e-12
-1.76952e-10
-7.07311e-12
-1.7545e-10
-8.34375e-12
-1.73739e-10
-9.56239e-12
-1.7183e-10
-1.07263e-11
-1.69733e-10
-1.18331e-11
-1.67459e-10
-1.28812e-11
-1.65019e-10
-1.38701e-11
-1.62424e-10
-1.47995e-11
-1.59686e-10
-1.56695e-11
-1.56814e-10
-1.64808e-11
-1.53818e-10
-1.72332e-11
-1.50708e-10
-1.79273e-11
-1.47494e-10
-1.8565e-11
-1.91482e-11
-1.4419e-10
-1.82627e-10
1.58881e-12
-1.82516e-10
-1.72106e-13
-1.82147e-10
-1.90174e-12
-1.81526e-10
-3.59371e-12
-1.8066e-10
-5.24241e-12
-1.79556e-10
-6.84262e-12
-1.78222e-10
-8.38941e-12
-1.76668e-10
-9.87856e-12
-1.74903e-10
-1.13062e-11
-1.72937e-10
-1.26691e-11
-1.70781e-10
-1.39651e-11
-1.68448e-10
-1.51925e-11
-1.65948e-10
-1.63502e-11
-1.63294e-10
-1.74377e-11
-1.60497e-10
-1.84542e-11
-1.57567e-10
-1.93996e-11
-1.54513e-10
-2.0275e-11
-1.51346e-10
-2.10812e-11
-1.48077e-10
-2.18208e-11
-2.24952e-11
-1.4472e-10
-1.84388e-10
1.71941e-12
-1.84245e-10
-3.10848e-13
-1.83839e-10
-2.30391e-12
-1.83175e-10
-4.25263e-12
-1.8226e-10
-6.15061e-12
-1.81103e-10
-7.9918e-12
-1.79712e-10
-9.77057e-12
-1.78096e-10
-1.14821e-11
-1.76266e-10
-1.31225e-11
-1.74233e-10
-1.4687e-11
-1.72009e-10
-1.61745e-11
-1.69605e-10
-1.75825e-11
-1.67036e-10
-1.89096e-11
-1.64311e-10
-2.01544e-11
-1.61442e-10
-2.1316e-11
-1.58442e-10
-2.23932e-11
-1.55319e-10
-2.3391e-11
-1.52085e-10
-2.43075e-11
-1.48752e-10
-2.51466e-11
-2.5909e-11
-1.4533e-10
-1.86418e-10
1.81243e-12
-1.86238e-10
-4.9447e-13
-1.85788e-10
-2.75796e-12
-1.85073e-10
-4.97016e-12
-1.84101e-10
-7.12379e-12
-1.82881e-10
-9.21191e-12
-1.81423e-10
-1.1228e-11
-1.79736e-10
-1.31666e-11
-1.77831e-10
-1.50241e-11
-1.75721e-10
-1.67932e-11
-1.73417e-10
-1.84745e-11
-1.70933e-10
-2.00641e-11
-1.6828e-10
-2.15601e-11
-1.65473e-10
-2.29608e-11
-1.62521e-10
-2.42656e-11
-1.59438e-10
-2.54738e-11
-1.56235e-10
-2.65912e-11
-1.52924e-10
-2.76157e-11
-1.49515e-10
-2.85509e-11
-2.93984e-11
-1.46019e-10
-1.88725e-10
1.86362e-12
-1.88502e-10
-7.28263e-13
-1.88e-10
-3.27028e-12
-1.87226e-10
-5.75379e-12
-1.86189e-10
-8.17053e-12
-1.84898e-10
-1.05125e-11
-1.83362e-10
-1.27723e-11
-1.81592e-10
-1.49436e-11
-1.79602e-10
-1.70217e-11
-1.77402e-10
-1.89998e-11
-1.75006e-10
-2.08768e-11
-1.72429e-10
-2.26486e-11
-1.69681e-10
-2.43131e-11
-1.66778e-10
-2.58686e-11
-1.63731e-10
-2.73149e-11
-1.60554e-10
-2.86532e-11
-1.5726e-10
-2.98867e-11
-1.5386e-10
-3.1016e-11
-1.50364e-10
-3.20443e-11
-3.29747e-11
-1.46785e-10
-1.91316e-10
1.86889e-12
-1.91043e-10
-1.01705e-12
-1.90483e-10
-3.84665e-12
-1.89643e-10
-6.61033e-12
-1.88531e-10
-9.29859e-12
-1.87157e-10
-1.19023e-11
-1.85533e-10
-1.44126e-11
-1.8367e-10
-1.68227e-11
-1.81581e-10
-1.91264e-11
-1.79279e-10
-2.13172e-11
-1.76778e-10
-2.33922e-11
-1.74093e-10
-2.53474e-11
-1.71237e-10
-2.71804e-11
-1.68224e-10
-2.88902e-11
-1.65069e-10
-3.0477e-11
-1.61787e-10
-3.19429e-11
-1.58389e-10
-3.32901e-11
-1.54888e-10
-3.45208e-11
-1.51295e-10
-3.56393e-11
-3.66499e-11
-1.47624e-10
-1.94201e-10
1.82434e-12
-1.93873e-10
-1.36534e-12
-1.93247e-10
-4.49274e-12
-1.92331e-10
-7.54661e-12
-1.91135e-10
-1.05158e-11
-1.89668e-10
-1.33901e-11
-1.87943e-10
-1.61586e-11
-1.85973e-10
-1.8814e-11
-1.83772e-10
-2.13488e-11
-1.81354e-10
-2.37563e-11
-1.78734e-10
-2.60322e-11
-1.75926e-10
-2.81726e-11
-1.72947e-10
-3.01751e-11
-1.69811e-10
-3.20389e-11
-1.66535e-10
-3.37651e-11
-1.63134e-10
-3.53557e-11
-1.5962e-10
-3.68136e-11
-1.56006e-10
-3.81426e-11
-1.52307e-10
-3.93483e-11
-4.04344e-11
-1.48532e-10
-1.9739e-10
1.72589e-12
-1.97e-10
-1.77751e-12
-1.96301e-10
-5.21479e-12
-1.953e-10
-8.57051e-12
-1.94009e-10
-1.18312e-11
-1.92436e-10
-1.49867e-11
-1.90598e-10
-1.8021e-11
-1.88508e-10
-2.09288e-11
-1.86179e-10
-2.3701e-11
-1.8363e-10
-2.63294e-11
-1.80874e-10
-2.88096e-11
-1.77929e-10
-3.11377e-11
-1.7481e-10
-3.3311e-11
-1.71537e-10
-3.53285e-11
-1.68126e-10
-3.71921e-11
-1.64591e-10
-3.89043e-11
-1.60949e-10
-4.04696e-11
-1.57212e-10
-4.18933e-11
-1.53394e-10
-4.31813e-11
-4.4337e-11
-1.49504e-10
-2.00892e-10
1.56921e-12
-2.00437e-10
-2.25655e-12
-1.99656e-10
-6.01992e-12
-1.98561e-10
-9.69143e-12
-1.97164e-10
-1.32541e-11
-1.95471e-10
-1.6706e-11
-1.93506e-10
-2.00119e-11
-1.9128e-10
-2.31805e-11
-1.88808e-10
-2.61972e-11
-1.8611e-10
-2.9051e-11
-1.83202e-10
-3.1739e-11
-1.80102e-10
-3.42577e-11
-1.76828e-10
-3.66029e-11
-1.73401e-10
-3.87731e-11
-1.69838e-10
-4.07712e-11
-1.66157e-10
-4.26013e-11
-1.62373e-10
-4.427e-11
-1.585e-10
-4.57835e-11
-1.54551e-10
-4.71476e-11
-4.83666e-11
-1.50534e-10
-2.04716e-10
1.34921e-12
-2.04195e-10
-2.80228e-12
-2.03326e-10
-6.91426e-12
-2.02129e-10
-1.09163e-11
-2.00608e-10
-1.48017e-11
-1.98787e-10
-1.85549e-11
-1.96674e-10
-2.21506e-11
-1.94296e-10
-2.55838e-11
-1.91662e-10
-2.8855e-11
-1.88798e-10
-3.19366e-11
-1.85721e-10
-3.48355e-11
-1.82447e-10
-3.75491e-11
-1.78998e-10
-4.0068e-11
-1.75399e-10
-4.23885e-11
-1.71668e-10
-4.45171e-11
-1.67825e-10
-4.64599e-11
-1.63886e-10
-4.82267e-11
-1.59864e-10
-4.98234e-11
-1.55772e-10
-5.12568e-11
-5.25332e-11
-1.51617e-10
-2.08865e-10
1.05687e-12
-2.08306e-10
-3.38459e-12
-2.07328e-10
-7.91803e-12
-2.06014e-10
-1.22578e-11
-2.04362e-10
-1.64814e-11
-2.02382e-10
-2.05612e-11
-2.00107e-10
-2.44517e-11
-1.97569e-10
-2.8146e-11
-1.94744e-10
-3.17007e-11
-1.91697e-10
-3.50026e-11
-1.88435e-10
-3.81136e-11
-1.84965e-10
-4.10343e-11
-1.81321e-10
-4.37258e-11
-1.77526e-10
-4.61968e-11
-1.73611e-10
-4.84455e-11
-1.69592e-10
-5.04941e-11
-1.65483e-10
-5.23528e-11
-1.61298e-10
-5.40249e-11
-1.5705e-10
-5.55198e-11
-5.68463e-11
-1.52747e-10
-2.1358e-10
9.14219e-13
-2.12683e-10
-4.30273e-12
-2.11659e-10
-8.96604e-12
-2.10222e-10
-1.37195e-11
-2.08416e-10
-1.83128e-11
-2.06281e-10
-2.27215e-11
-2.03822e-10
-2.69336e-11
-2.01048e-10
-3.09417e-11
-1.98026e-10
-3.47414e-11
-1.94801e-10
-3.82438e-11
-1.9136e-10
-4.15686e-11
-1.87645e-10
-4.47616e-11
-1.83791e-10
-4.75914e-11
-1.79773e-10
-5.0226e-11
-1.75659e-10
-5.2572e-11
-1.71451e-10
-5.47159e-11
-1.67155e-10
-5.66617e-11
-1.62793e-10
-5.83997e-11
-1.58378e-10
-5.99464e-11
-6.13155e-11
-1.53917e-10
-2.17905e-10
5.88631e-13
-2.17568e-10
-4.65801e-12
-2.16529e-10
-1.00244e-11
-2.1499e-10
-1.52786e-11
-2.1303e-10
-2.02941e-11
-2.10649e-10
-2.51227e-11
-2.0799e-10
-2.96109e-11
-2.05023e-10
-3.39263e-11
-2.01797e-10
-3.79837e-11
-1.98297e-10
-4.17574e-11
-1.94561e-10
-4.53173e-11
-1.90689e-10
-4.86451e-11
-1.8648e-10
-5.18105e-11
-1.82185e-10
-5.45307e-11
-1.7783e-10
-5.69362e-11
-1.73402e-10
-5.91533e-11
-1.68902e-10
-6.11685e-11
-1.64352e-10
-6.29564e-11
-1.59764e-10
-6.4539e-11
-6.59448e-11
-1.55137e-10
-2.22728e-10
4.7173e-13
-2.22454e-10
-4.94248e-12
-2.21327e-10
-1.11629e-11
-2.1957e-10
-1.70483e-11
-2.17351e-10
-2.25256e-11
-2.14794e-10
-2.76922e-11
-2.11827e-10
-3.25889e-11
-2.08582e-10
-3.71817e-11
-2.05107e-10
-4.14679e-11
-2.01425e-10
-4.54487e-11
-1.97561e-10
-4.91889e-11
-1.93319e-10
-5.28938e-11
-1.88759e-10
-5.63772e-11
-1.84141e-10
-5.91538e-11
-1.79662e-10
-6.14211e-11
-1.7509e-10
-6.37288e-11
-1.70345e-10
-6.5917e-11
-1.65579e-10
-6.77252e-11
-1.60806e-10
-6.93133e-11
-7.07487e-11
-1.56001e-10
-3.0545e-10
4.18636e-13
-3.04714e-10
-5.68454e-12
-3.0339e-10
-1.2495e-11
-3.01523e-10
-1.89256e-11
-2.9917e-10
-2.48887e-11
-2.96358e-10
-3.05161e-11
-2.93051e-10
-3.59095e-11
-2.89313e-10
-4.09331e-11
-2.85233e-10
-4.55619e-11
-2.8091e-10
-4.97866e-11
-2.76557e-10
-5.35553e-11
-2.7168e-10
-5.7782e-11
-2.65735e-10
-6.23311e-11
-2.59758e-10
-6.51362e-11
-2.54489e-10
-6.66915e-11
-2.49014e-10
-6.92021e-11
-2.42998e-10
-7.19289e-11
-2.37058e-10
-7.36596e-11
-2.31151e-10
-7.52136e-11
-2.25056e-10
-7.6837e-11
-1.35906e-10
-6.53496e-12
-1.29054e-10
-6.82656e-12
-1.21978e-10
-7.05312e-12
-1.14735e-10
-7.22103e-12
-1.07377e-10
-7.33729e-12
-9.99488e-11
-7.40838e-12
-9.24883e-11
-7.44067e-12
-8.50286e-11
-7.44053e-12
-7.75964e-11
-7.41458e-12
-7.02118e-11
-7.36907e-12
-6.28892e-11
-7.30903e-12
-5.56371e-11
-7.2387e-12
-4.84603e-11
-7.16222e-12
-4.13603e-11
-7.08442e-12
-3.43347e-11
-7.01058e-12
-2.7377e-11
-6.94492e-12
-2.04767e-11
-6.88946e-12
-1.36214e-11
-6.84506e-12
-6.79828e-12
-6.81278e-12
-6.78892e-12
-1.36341e-10
-1.30823e-11
-1.29461e-10
-1.36655e-11
-1.22357e-10
-1.4118e-11
-1.15087e-10
-1.44536e-11
-1.07703e-10
-1.46859e-11
-1.00248e-10
-1.48281e-11
-9.27619e-11
-1.48932e-11
-8.52776e-11
-1.48941e-11
-7.78215e-11
-1.4843e-11
-7.04138e-11
-1.47512e-11
-6.30684e-11
-1.46292e-11
-5.57941e-11
-1.44864e-11
-4.85958e-11
-1.4333e-11
-4.14752e-11
-1.41788e-11
-3.44297e-11
-1.4033e-11
-2.74524e-11
-1.39019e-11
-2.05327e-11
-1.37899e-11
-1.3658e-11
-1.37008e-11
-6.81463e-12
-1.36389e-11
-1.35966e-11
-1.36487e-10
-1.96745e-11
-1.29575e-10
-2.05446e-11
-1.22441e-10
-2.12194e-11
-1.15146e-10
-2.17191e-11
-1.07738e-10
-2.2064e-11
-1.00264e-10
-2.22737e-11
-9.27623e-11
-2.2368e-11
-8.5265e-11
-2.23659e-11
-7.77988e-11
-2.22858e-11
-7.03835e-11
-2.21442e-11
-6.30329e-11
-2.1957e-11
-5.57558e-11
-2.17394e-11
-4.85573e-11
-2.1507e-11
-4.14388e-11
-2.12746e-11
-3.4397e-11
-2.10544e-11
-2.74245e-11
-2.08558e-11
-2.05104e-11
-2.0686e-11
-1.36426e-11
-2.0552e-11
-6.80685e-12
-2.04602e-11
-2.0397e-11
-1.36705e-10
-2.63266e-11
-1.29743e-10
-2.7478e-11
-1.22566e-10
-2.83697e-11
-1.15232e-10
-2.90281e-11
-1.07791e-10
-2.94799e-11
-1.00288e-10
-2.97517e-11
-9.27618e-11
-2.98698e-11
-8.5245e-11
-2.98596e-11
-7.77634e-11
-2.97452e-11
-7.03367e-11
-2.9549e-11
-6.29785e-11
-2.92924e-11
-5.56977e-11
-2.89966e-11
-4.84992e-11
-2.86823e-11
-4.13838e-11
-2.83687e-11
-3.43474e-11
-2.80713e-11
-2.7382e-11
-2.78028e-11
-2.04769e-11
-2.75736e-11
-1.36196e-11
-2.73937e-11
-6.79521e-12
-2.72705e-11
-2.71844e-11
-1.36993e-10
-3.30566e-11
-1.29966e-10
-3.44819e-11
-1.22731e-10
-3.5583e-11
-1.15345e-10
-3.63925e-11
-1.07859e-10
-3.69438e-11
-1.00317e-10
-3.72705e-11
-9.27592e-11
-3.74054e-11
-8.52164e-11
-3.73803e-11
-7.77144e-11
-3.72253e-11
-7.02725e-11
-3.69687e-11
-6.29046e-11
-3.66378e-11
-5.56192e-11
-3.62593e-11
-4.84208e-11
-3.58591e-11
-4.13094e-11
-3.54603e-11
-3.42803e-11
-3.50819e-11
-2.73247e-11
-3.47401e-11
-2.0432e-11
-3.4449e-11
-1.35888e-11
-3.42209e-11
-6.77928e-12
-3.40639e-11
-3.39537e-11
-1.37349e-10
-3.98819e-11
-1.30241e-10
-4.15716e-11
-1.22933e-10
-4.28726e-11
-1.15483e-10
-4.3824e-11
-1.0794e-10
-4.4466e-11
-1.00351e-10
-4.48389e-11
-9.2753e-11
-4.49822e-11
-8.51776e-11
-4.49342e-11
-7.76502e-11
-4.47311e-11
-7.01898e-11
-4.44073e-11
-6.281e-11
-4.3996e-11
-5.55191e-11
-4.35295e-11
-4.83211e-11
-4.30381e-11
-4.12149e-11
-4.25488e-11
-3.41948e-11
-4.20845e-11
-2.7252e-11
-4.16652e-11
-2.0375e-11
-4.13085e-11
-1.35495e-11
-4.10288e-11
-6.75875e-12
-4.08353e-11
-4.07006e-11
-1.37771e-10
-4.68179e-11
-1.30567e-10
-4.87616e-11
-1.23171e-10
-5.02521e-11
-1.15643e-10
-5.13352e-11
-1.08034e-10
-5.20578e-11
-1.00387e-10
-5.24668e-11
-9.2741e-11
-5.26086e-11
-8.51269e-11
-5.25281e-11
-7.75693e-11
-5.22681e-11
-7.0087e-11
-5.18692e-11
-6.26934e-11
-5.13704e-11
-5.53963e-11
-5.08089e-11
-4.81988e-11
-5.02196e-11
-4.10988e-11
-4.96333e-11
-3.409e-11
-4.90771e-11
-2.71628e-11
-4.85751e-11
-2.0305e-11
-4.81484e-11
-1.35011e-11
-4.78131e-11
-6.73354e-12
-4.7581e-11
-4.74221e-11
-1.38257e-10
-5.38802e-11
-1.30939e-10
-5.60673e-11
-1.23442e-10
-5.77363e-11
-1.15824e-10
-5.89396e-11
-1.08136e-10
-5.97309e-11
-1.00422e-10
-6.01643e-11
-9.27208e-11
-6.02931e-11
-8.50618e-11
-6.0169e-11
-7.74696e-11
-5.98418e-11
-6.99623e-11
-5.93584e-11
-6.2553e-11
-5.87634e-11
-5.5249e-11
-5.80986e-11
-4.80523e-11
-5.74032e-11
-4.09598e-11
-5.67122e-11
-3.39645e-11
-5.60573e-11
-2.70561e-11
-5.54669e-11
-2.02212e-11
-5.49651e-11
-1.34431e-11
-5.45706e-11
-6.70372e-12
-5.42984e-11
-5.41155e-11
-1.38804e-10
-6.10872e-11
-1.31357e-10
-6.35062e-11
-1.23743e-10
-6.53408e-11
-1.16021e-10
-6.66508e-11
-1.08244e-10
-6.7497e-11
-1.00455e-10
-6.79411e-11
-9.26898e-11
-6.80435e-11
-8.498e-11
-6.78633e-11
-7.73488e-11
-6.74571e-11
-6.98136e-11
-6.68785e-11
-6.23869e-11
-6.6177e-11
-5.50752e-11
-6.53988e-11
-4.78796e-11
-6.45875e-11
-4.07961e-11
-6.37832e-11
-3.38169e-11
-6.30224e-11
-2.69307e-11
-6.23374e-11
-2.01226e-11
-6.17556e-11
-1.33751e-11
-6.12987e-11
-6.66937e-12
-6.09854e-11
-6.07782e-11
-1.39409e-10
-6.84596e-11
-1.31815e-10
-7.1096e-11
-1.2407e-10
-7.30808e-11
-1.16233e-10
-7.44814e-11
-1.08355e-10
-7.53669e-11
-1.0048e-10
-7.58063e-11
-9.26448e-11
-7.58674e-11
-8.48785e-11
-7.56168e-11
-7.72041e-11
-7.51184e-11
-6.96383e-11
-7.44322e-11
-6.21924e-11
-7.36124e-11
-5.48724e-11
-7.27093e-11
-4.76785e-11
-7.17713e-11
-4.06059e-11
-7.08442e-11
-3.36457e-11
-6.99695e-11
-2.67853e-11
-6.91836e-11
-2.00084e-11
-6.85168e-11
-1.32968e-11
-6.79947e-11
-6.6304e-12
-6.76388e-11
-6.74057e-11
-1.40068e-10
-7.60171e-11
-1.32311e-10
-7.88533e-11
-1.2442e-10
-8.09702e-11
-1.16454e-10
-8.24437e-11
-1.08465e-10
-8.3351e-11
-1.00495e-10
-8.37686e-11
-9.25821e-11
-8.37721e-11
-8.47539e-11
-8.34352e-11
-7.70326e-11
-8.28297e-11
-6.94333e-11
-8.20222e-11
-6.19666e-11
-8.10708e-11
-5.46379e-11
-8.00297e-11
-4.74468e-11
-7.8953e-11
-4.03873e-11
-7.78928e-11
-3.34493e-11
-7.68957e-11
-2.66186e-11
-7.60017e-11
-1.98779e-11
-7.52448e-11
-1.32078e-11
-7.46543e-11
-6.58639e-12
-7.42533e-11
-7.39917e-11
-1.40777e-10
-8.37773e-11
-1.3284e-10
-8.67933e-11
-1.24789e-10
-8.90226e-11
-1.16681e-10
-9.05497e-11
-1.08569e-10
-9.14598e-11
-1.00496e-10
-9.18373e-11
-9.24979e-11
-9.17648e-11
-8.46025e-11
-9.1324e-11
-7.68307e-11
-9.05946e-11
-6.91955e-11
-8.96507e-11
-6.17064e-11
-8.85534e-11
-5.43688e-11
-8.73598e-11
-4.71818e-11
-8.61308e-11
-4.01381e-11
-8.4926e-11
-3.32258e-11
-8.37969e-11
-2.64294e-11
-8.27871e-11
-1.97303e-11
-8.19343e-11
-1.31076e-11
-8.12711e-11
-6.53666e-12
-8.08211e-11
-8.05277e-11
-1.41531e-10
-9.17568e-11
-1.33398e-10
-9.49314e-11
-1.2517e-10
-9.72522e-11
-1.16909e-10
-9.88118e-11
-1.08664e-10
-9.97041e-11
-1.00478e-10
-1.00021e-10
-9.23877e-11
-9.98523e-11
-8.44202e-11
-9.92877e-11
-7.65948e-11
-9.84155e-11
-6.89213e-11
-9.73192e-11
-6.14081e-11
-9.60606e-11
-5.40616e-11
-9.46987e-11
-4.68806e-11
-9.33028e-11
-3.98558e-11
-9.19409e-11
-3.29734e-11
-9.06692e-11
-2.62162e-11
-8.95349e-11
-1.95645e-11
-8.85793e-11
-1.29951e-11
-8.78372e-11
-6.48042e-12
-8.73327e-11
-8.70053e-11
-1.42325e-10
-9.99735e-11
-1.33978e-10
-1.03284e-10
-1.2556e-10
-1.05673e-10
-1.17132e-10
-1.07242e-10
-1.08743e-10
-1.08093e-10
-1.00436e-10
-1.08327e-10
-9.22466e-11
-1.0804e-10
-8.42022e-11
-1.07329e-10
-7.63208e-11
-1.06293e-10
-6.86066e-11
-1.05029e-10
-6.10676e-11
-1.03593e-10
-5.37127e-11
-1.02046e-10
-4.65402e-11
-1.00467e-10
-3.9538e-11
-9.89348e-11
-3.26899e-11
-9.75092e-11
-2.59774e-11
-9.62408e-11
-1.9379e-11
-9.51739e-11
-1.2869e-11
-9.43446e-11
-6.41709e-12
-9.37796e-11
-9.3418e-11
-1.43153e-10
-1.08445e-10
-1.34575e-10
-1.11867e-10
-1.25952e-10
-1.14299e-10
-1.17344e-10
-1.15851e-10
-1.08801e-10
-1.16637e-10
-1.00364e-10
-1.16764e-10
-9.20689e-11
-1.16334e-10
-8.39431e-11
-1.15452e-10
-7.60047e-11
-1.14227e-10
-6.82479e-11
-1.1278e-10
-6.06809e-11
-1.11154e-10
-5.33179e-11
-1.09403e-10
-4.61573e-11
-1.07622e-10
-3.91816e-11
-1.05906e-10
-3.23728e-11
-1.04315e-10
-2.57107e-11
-1.02902e-10
-1.91717e-11
-1.01713e-10
-1.27278e-11
-1.00787e-10
-6.34663e-12
-1.00155e-10
-9.97619e-11
-1.44008e-10
-1.1719e-10
-1.35183e-10
-1.20696e-10
-1.2634e-10
-1.23142e-10
-1.17541e-10
-1.24651e-10
-1.08833e-10
-1.25345e-10
-1.00257e-10
-1.25339e-10
-9.18485e-11
-1.2474e-10
-8.36369e-11
-1.2366e-10
-7.56429e-11
-1.22217e-10
-6.78416e-11
-1.20576e-10
-6.02431e-11
-1.18748e-10
-5.28728e-11
-1.16769e-10
-4.57283e-11
-1.14765e-10
-3.87839e-11
-1.12851e-10
-3.20196e-11
-1.11082e-10
-2.54136e-11
-1.09512e-10
-1.89402e-11
-1.0819e-10
-1.25699e-11
-1.07157e-10
-6.26967e-12
-1.06453e-10
-1.06034e-10
-1.44885e-10
-1.26226e-10
-1.35794e-10
-1.29789e-10
-1.26717e-10
-1.32219e-10
-1.17714e-10
-1.33654e-10
-1.08831e-10
-1.34227e-10
-1.00107e-10
-1.34062e-10
-9.15786e-11
-1.33266e-10
-8.32761e-11
-1.31959e-10
-7.52328e-11
-1.30256e-10
-6.73845e-11
-1.28421e-10
-5.97485e-11
-1.26381e-10
-5.23718e-11
-1.24145e-10
-4.52498e-11
-1.21889e-10
-3.83417e-11
-1.19763e-10
-3.16273e-11
-1.17803e-10
-2.50831e-11
-1.16064e-10
-1.8682e-11
-1.14597e-10
-1.2394e-11
-1.13447e-10
-6.18818e-12
-1.12662e-10
-1.12228e-10
-1.45797e-10
-1.35567e-10
-1.36425e-10
-1.39162e-10
-1.27101e-10
-1.41543e-10
-1.17883e-10
-1.42872e-10
-1.08815e-10
-1.43294e-10
-9.99328e-11
-1.42945e-10
-9.12765e-11
-1.41921e-10
-8.28736e-11
-1.40361e-10
-7.47954e-11
-1.38333e-10
-6.68943e-11
-1.36321e-10
-5.92079e-11
-1.34068e-10
-5.18241e-11
-1.31531e-10
-4.47329e-11
-1.28984e-10
-3.7864e-11
-1.26638e-10
-3.1203e-11
-1.24471e-10
-2.47246e-11