/*--------------------------------*- C++ -*----------------------------------*\
| =========                 |                                                 |
| \\      /  F ield         | OpenFOAM: The Open Source CFD Toolbox           |
|  \\    /   O peration     | Version:  2.4.0                                 |
|   \\  /    A nd           | Web:      www.OpenFOAM.org                      |
|    \\/     M anipulation  |                                                 |
\*---------------------------------------------------------------------------*/
FoamFile
{
    version     2.0;
    format      ascii;
    class       surfaceScalarField;
    location    "0.021";
    object      phiAlpha;
}
// * * * * * * * * * * * * * * * * * * * * * * * * * * * * * * * * * * * * * //

dimensions      [0 3 -1 0 0 0 0];

internalField   nonuniform List<scalar> 
19800
(
8.34665e-164
-6.52452e-159
3.28373e-155
-1.1755e-150
4.64775e-150
-8.73757e-146
3.3183e-146
-4.05311e-142
7.06683e-143
-6.27482e-139
1.00457e-139
-6.96096e-136
1.37515e-136
-7.77405e-133
2.0752e-133
-9.87818e-130
3.54324e-130
-1.45459e-126
6.82857e-127
-2.46415e-123
1.44145e-123
-4.63994e-120
3.21715e-120
-9.32683e-117
7.23732e-117
-1.89671e-113
1.55291e-113
-3.67552e-110
3.01336e-110
-6.42939e-107
5.09817e-107
-9.79588e-104
7.2458e-104
-1.25229e-100
8.47067e-101
-1.31586e-97
8.04502e-98
-1.12384e-94
6.12488e-95
-7.69798e-92
3.68033e-92
-4.16937e-89
1.72935e-89
-1.76949e-86
6.30107e-87
-5.836e-84
1.76299e-84
-1.48109e-81
3.74595e-82
-2.86023e-79
5.96373e-80
-4.14617e-77
7.00726e-78
-4.44132e-75
5.98149e-76
-3.45743e-73
3.6572e-74
-1.92512e-71
1.58814e-72
-7.5884e-70
4.7926e-71
-2.07948e-68
9.04499e-70
-3.59849e-67
9.15949e-69
-3.3686e-66
4.29186e-68
-1.46403e-65
7.67096e-68
-2.42779e-65
3.8306e-68
-1.11768e-65
3.04444e-69
-7.96234e-67
4.95906e-71
-1.00252e-68
2.80145e-73
3.88486e-76
1.71109e-75
1.82032e-77
9.21557e-78
1.91604e-79
4.16084e-80
1.33139e-81
1.57591e-82
7.01108e-84
5.04475e-85
2.95579e-86
1.3697e-87
1.02412e-88
3.14599e-90
2.94825e-91
6.05721e-93
7.05798e-94
9.62057e-96
1.39509e-96
9.07135e-98
1.65441e-98
5.34196e-97
2.27432e-96
5.74028e-158
-1.24328e-153
4.3925e-150
-5.13259e-146
4.18075e-145
-2.94019e-141
2.62373e-141
-1.27241e-137
5.36883e-138
-1.95047e-134
7.55196e-135
-2.1773e-131
1.02087e-131
-2.42626e-128
1.50124e-128
-3.02554e-125
2.46081e-125
-4.2987e-122
4.50055e-122
-6.93456e-119
8.94865e-119
-1.23308e-115
1.87152e-115
-2.3275e-112
3.92331e-112
-4.4192e-109
7.79413e-109
-7.94272e-106
1.39347e-105
-1.28204e-102
2.16708e-102
-1.79768e-99
2.82768e-99
-2.11196e-96
3.03591e-96
-2.03955e-93
2.65433e-93
-1.6043e-90
1.8658e-90
-1.01468e-87
1.04e-87
-5.09662e-85
4.55684e-85
-2.01548e-82
1.5571e-82
-6.22704e-80
4.1106e-80
-1.48891e-77
8.29513e-78
-2.72602e-75
1.26304e-75
-3.7718e-73
1.42952e-73
-3.88349e-71
1.18385e-71
-2.92622e-69
7.06888e-70
-1.58734e-67
3.01723e-68
-6.13231e-66
9.06192e-67
-1.66469e-64
1.74544e-65
-2.92298e-63
1.85633e-64
-2.85696e-62
9.43053e-64
-1.33706e-61
1.90661e-63
-2.48412e-61
1.14594e-63
-1.35264e-61
1.21396e-64
-1.21373e-62
3.19532e-66
-2.01882e-64
3.55706e-68
7.25588e-71
3.90247e-70
6.11468e-72
3.8674e-72
1.1851e-73
3.34591e-74
1.58066e-75
2.50611e-76
1.65008e-77
1.62185e-78
1.41075e-79
9.03755e-81
1.00733e-81
4.30329e-83
6.04508e-84
1.7279e-85
3.04037e-86
5.73289e-88
1.26813e-88
1.60039e-90
4.51795e-91
3.05161e-90
8.20583e-90
1.69222e-153
-2.74091e-149
7.15744e-146
-6.18418e-142
5.54347e-141
-2.94647e-137
3.2467e-137
-1.20756e-133
6.52964e-134
-1.83654e-130
9.18206e-131
-2.06147e-127
1.23348e-127
-2.29074e-124
1.77713e-124
-2.80459e-121
2.81113e-121
-3.85053e-118
4.90246e-118
-5.92658e-115
9.22348e-115
-9.97154e-112
1.81522e-111
-1.76998e-108
3.55983e-108
-3.13955e-105
6.57115e-105
-5.23209e-102
1.08605e-101
-7.78578e-99
1.55752e-98
-1.00346e-95
1.87184e-95
-1.08201e-92
1.85131e-92
-9.59027e-90
1.49412e-89
-6.9371e-87
9.71819e-87
-4.04361e-84
5.03339e-84
-1.87959e-81
2.05873e-81
-6.90916e-79
6.60139e-79
-1.99457e-76
1.64452e-76
-4.48117e-74
3.15074e-74
-7.75646e-72
4.58463e-72
-1.02139e-69
4.99257e-70
-1.00786e-67
4.00536e-68
-7.32959e-66
2.33172e-66
-3.86308e-64
9.76081e-65
-1.4588e-62
2.90582e-63
-3.90766e-61
5.68229e-62
-6.92886e-60
6.31319e-61
-7.0433e-59
3.45537e-60
-3.53777e-58
7.8307e-60
-7.34069e-58
5.56965e-60
-4.71085e-58
7.43576e-61
-5.27448e-59
2.60207e-62
-1.13502e-60
3.80347e-64
6.99672e-67
5.31504e-66
1.16099e-67
6.69498e-68
2.93517e-69
7.4078e-70
5.05827e-71
7.13915e-72
6.83746e-73
5.96865e-74
7.59107e-75
4.30452e-76
7.05085e-77
2.6516e-78
5.50558e-79
1.37344e-80
3.5976e-81
5.84263e-83
1.94239e-83
3.67036e-85
1.57883e-85
7.97578e-84
1.37723e-83
1.76163e-149
-2.62188e-145
4.77996e-142
-3.7783e-138
3.16082e-137
-1.54521e-133
1.7576e-133
-6.04789e-130
3.49581e-130
-9.14344e-127
4.92339e-127
-1.03145e-123
6.57296e-124
-1.14142e-120
9.27299e-121
-1.37029e-117
1.41443e-117
-1.81592e-114
2.34941e-114
-2.66319e-111
4.17652e-111
-4.23264e-108
7.7217e-108
-7.04867e-105
1.41396e-104
-1.16457e-101
2.42039e-101
-1.79338e-98
3.69099e-98
-2.45153e-95
4.87253e-95
-2.89351e-92
5.38531e-92
-2.85376e-89
4.89996e-89
-2.31386e-86
3.64595e-86
-1.53436e-83
2.1914e-83
-8.21655e-81
1.05322e-80
-3.5236e-78
4.01512e-78
-1.20015e-75
1.20615e-75
-3.22702e-73
2.83037e-73
-6.79082e-71
5.13852e-71
-1.10771e-68
7.13106e-69
-1.38389e-66
7.45633e-67
-1.30475e-64
5.78296e-65
-9.13159e-63
3.2755e-63
-4.66376e-61
1.34174e-61
-1.71709e-59
3.94447e-60
-4.52164e-58
7.79174e-59
-8.05489e-57
9.001e-58
-8.4764e-56
5.2819e-57
-4.55061e-55
1.33374e-56
-1.05003e-54
1.1127e-56
-7.90439e-55
1.83366e-57
-1.09847e-55
8.00374e-59
-3.01544e-57
1.38579e-60
1.16918e-63
2.23123e-62
6.34147e-64
3.20312e-64
1.8844e-65
4.03096e-66
3.73848e-67
4.41741e-68
5.79158e-69
4.19495e-70
7.35334e-71
3.42628e-72
7.79011e-73
2.37734e-74
6.90893e-75
1.37484e-76
5.09498e-77
6.4435e-79
3.07588e-79
2.47625e-80
1.56369e-80
1.13009e-78
1.28141e-78
1.01572e-145
-1.51676e-141
1.87551e-138
-1.48988e-134
1.08071e-133
-5.31717e-130
5.75488e-130
-1.99947e-126
1.13624e-126
-3.01204e-123
1.60401e-123
-3.41424e-120
2.12639e-120
-3.75704e-117
2.93288e-117
-4.41471e-114
4.30538e-114
-5.63611e-111
6.79533e-111
-7.85769e-108
1.13842e-107
-1.17629e-104
1.97146e-104
-1.83106e-101
3.36024e-101
-2.80561e-98
5.31701e-98
-3.97363e-95
7.4582e-95
-4.96616e-92
9.03591e-92
-5.34196e-89
9.16025e-89
-4.79763e-86
7.64933e-86
-3.54376e-83
5.23627e-83
-2.14611e-80
2.90206e-80
-1.0519e-77
1.29161e-77
-4.14751e-75
4.57931e-75
-1.30444e-72
1.28585e-72
-3.25576e-70
2.83583e-70
-6.39594e-68
4.86714e-68
-9.79939e-66
6.42674e-66
-1.15777e-63
6.43743e-64
-1.03977e-61
4.81591e-62
-6.98318e-60
2.64849e-60
-3.44707e-58
1.05945e-58
-1.23446e-56
3.06541e-57
-3.18493e-55
6.08754e-56
-5.67123e-54
7.28018e-55
-6.14947e-53
4.56208e-54
-3.51452e-52
1.27813e-53
-8.98363e-52
1.24472e-53
-7.90488e-52
2.51808e-54
-1.36333e-52
1.35266e-55
-4.79619e-54
2.67631e-57
-3.00059e-57
4.76845e-59
1.6804e-60
7.49971e-61
5.64559e-62
1.02812e-62
1.23544e-63
1.22223e-64
2.09406e-65
1.2532e-66
2.89352e-67
1.09805e-68
3.31731e-69
8.09708e-71
3.16064e-71
4.90851e-73
2.47869e-73
2.36812e-75
1.57263e-75
5.13738e-76
4.66202e-76
3.01185e-74
2.24236e-74
3.95291e-142
-6.21933e-138
5.13587e-135
-4.30985e-131
2.60405e-130
-1.35459e-126
1.33402e-126
-4.91496e-123
2.62046e-123
-7.39463e-120
3.70712e-120
-8.4197e-117
4.87075e-117
-9.19606e-114
6.55147e-114
-1.05536e-110
9.22979e-111
-1.29504e-107
1.37998e-107
-1.71179e-104
2.17167e-104
-2.4057e-101
3.51005e-101
-3.48507e-98
5.54767e-98
-4.9264e-95
8.08362e-95
-6.38148e-92
1.03924e-91
-7.25163e-89
1.15144e-88
-7.06934e-86
1.06735e-85
-5.75228e-83
8.15712e-83
-3.85283e-80
5.12433e-80
-2.12211e-77
2.61231e-77
-9.48294e-75
1.07419e-74
-3.42557e-72
3.53344e-72
-9.91362e-70
9.25151e-70
-2.28889e-67
1.91283e-67
-4.18362e-65
3.0958e-65
-6.00046e-63
3.87977e-63
-6.68252e-61
3.71394e-61
-5.69905e-59
2.67397e-59
-3.66239e-57
1.42487e-57
-1.74278e-55
5.55572e-56
-6.05689e-54
1.57756e-54
-1.52654e-52
3.13502e-53
-2.70355e-51
3.86504e-52
-3.00611e-50
2.5773e-51
-1.82171e-49
7.98501e-51
-5.14009e-49
9.0525e-51
-5.27202e-49
2.25133e-51
-1.13138e-49
1.50423e-52
-5.19379e-51
3.38133e-54
-1.10759e-53
6.55139e-56
2.74512e-57
1.11311e-57
1.0301e-58
1.63844e-59
2.45196e-60
2.07965e-61
4.47771e-62
2.26207e-63
6.62026e-64
2.08479e-65
8.06218e-66
1.59795e-67
8.08451e-68
9.89533e-70
6.58918e-70
4.79527e-72
4.30911e-72
3.60201e-72
4.61816e-72
2.59491e-70
1.25449e-70
1.15996e-138
-1.99037e-134
1.08195e-131
-9.88481e-128
4.84788e-127
-2.74983e-123
2.39384e-123
-9.65704e-120
4.682e-120
-1.45402e-116
6.62581e-117
-1.66165e-113
8.59893e-114
-1.7972e-110
1.12364e-110
-2.00952e-107
1.51361e-107
-2.36509e-104
2.13606e-104
-2.95658e-101
3.14648e-101
-3.88784e-98
4.72807e-98
-5.2161e-95
6.90093e-95
-6.7622e-92
9.22269e-92
-7.96142e-89
1.0827e-88
-8.17581e-86
1.093e-85
-7.1785e-83
9.23521e-83
-5.26286e-80
6.44119e-80
-3.18044e-77
3.70428e-77
-1.58619e-74
1.73279e-74
-6.43587e-72
6.56888e-72
-2.12238e-69
2.00007e-69
-5.63206e-67
4.8713e-67
-1.19877e-64
9.41967e-65
-2.03186e-62
1.43398e-62
-2.71895e-60
1.70138e-60
-2.84477e-58
1.55269e-58
-2.29653e-56
1.07344e-56
-1.40794e-54
5.53117e-55
-6.44128e-53
2.09848e-53
-2.16743e-51
5.83333e-52
-5.32175e-50
1.15482e-50
-9.32783e-49
1.4613e-49
-1.05799e-47
1.03329e-48
-6.76913e-47
3.5294e-48
-2.10028e-46
4.64792e-48
-2.50364e-46
1.42631e-48
-6.70489e-47
1.21144e-49
-4.11252e-48
3.16451e-51
-1.72884e-50
6.64831e-53
3.17122e-54
1.21741e-54
1.3338e-55
1.92102e-56
3.45218e-57
2.5994e-58
6.78506e-59
2.99385e-60
1.07173e-60
2.89536e-62
1.38355e-62
2.29916e-64
1.45636e-64
1.44725e-66
1.22927e-66
7.04626e-69
8.31625e-69
1.10826e-68
1.96702e-68
1.00422e-66
3.10302e-67
2.75251e-135
-5.31614e-131
1.85815e-128
-1.89176e-124
7.36439e-124
-4.66941e-120
3.50465e-120
-1.59091e-116
6.81767e-117
-2.40105e-113
9.61269e-114
-2.75018e-110
1.22537e-110
-2.93794e-107
1.54705e-107
-3.19331e-104
1.98344e-104
-3.59936e-101
2.63184e-101
-4.24811e-98
3.61634e-98
-5.21102e-95
5.03309e-95
-6.4408e-92
6.75794e-92
-7.60761e-89
8.25415e-89
-8.08437e-86
8.82108e-86
-7.45228e-83
8.08829e-83
-5.85272e-80
6.21329e-80
-3.84286e-77
3.94579e-77
-2.08401e-74
2.0732e-74
-9.36603e-72
8.88147e-72
-3.4357e-69
3.09859e-69
-1.03047e-66
8.71634e-67
-2.49863e-64
1.97075e-64
-4.886e-62
3.55653e-62
-7.65432e-60
5.08086e-60
-9.52375e-58
5.69348e-58
-9.3293e-56
4.94183e-56
-7.10513e-54
3.27322e-54
-4.14227e-52
1.6276e-52
-1.81661e-50
5.99802e-51
-5.90317e-49
1.6287e-49
-1.40828e-47
3.19776e-48
-2.43077e-46
4.13333e-47
-2.79578e-45
3.08714e-46
-1.87909e-44
1.15853e-45
-6.38234e-44
1.76759e-45
-8.80798e-44
6.71395e-46
-2.94753e-44
7.42684e-47
-2.46865e-45
2.33355e-48
-1.85991e-47
5.35997e-50
2.76991e-51
1.06663e-51
1.33256e-52
1.81918e-53
3.79024e-54
2.64598e-55
8.08939e-56
3.25438e-57
1.37671e-57
3.33209e-59
1.90023e-59
2.76714e-61
2.11852e-61
1.78789e-63
1.86941e-63
8.79663e-66
1.31689e-65
1.83328e-65
4.37633e-65
2.12708e-63
4.13802e-64
5.53032e-132
-1.24231e-127
2.69025e-125
-3.13174e-121
9.41295e-121
-6.86368e-117
4.30585e-117
-2.27312e-113
8.2972e-114
-3.44262e-110
1.15659e-110
-3.94531e-107
1.43484e-107
-4.15252e-104
1.7355e-104
-4.3796e-101
2.10472e-101
-4.72703e-98
2.61515e-98
-5.26449e-95
3.34275e-95
-6.00755e-92
4.2979e-92
-6.80038e-89
5.29756e-89
-7.26505e-86
5.90488e-86
-6.91569e-83
5.73941e-83
-5.68004e-80
4.77408e-80
-3.95962e-77
3.3314e-77
-2.31322e-74
1.92476e-74
-1.11916e-71
9.23153e-72
-4.5076e-69
3.61833e-69
-1.48792e-66
1.16075e-66
-4.04211e-64
3.01332e-64
-8.92279e-62
6.31587e-62
-1.59735e-59
1.06205e-59
-2.30514e-57
1.42109e-57
-2.65752e-55
1.50072e-55
-2.4285e-53
1.2361e-53
-1.73853e-51
7.82628e-52
-9.60431e-50
3.74764e-50
-4.02431e-48
1.33903e-48
-1.25915e-46
3.54461e-47
-2.9104e-45
6.87142e-46
-4.92188e-44
9.02314e-45
-5.70196e-43
7.08524e-44
-4.00145e-42
2.90871e-43
-1.47941e-41
5.12128e-43
-2.35091e-41
2.40965e-43
-9.81537e-42
3.54224e-44
-1.13885e-42
1.41448e-45
-1.52837e-44
3.59083e-47
1.89472e-48
7.85983e-49
1.07778e-49
1.468e-50
3.42643e-51
2.32742e-52
8.06085e-53
3.10312e-54
1.50027e-54
3.41915e-56
2.24865e-56
3.02379e-58
2.69988e-58
2.04685e-60
2.53691e-60
1.02322e-62
1.86635e-62
1.93693e-62
5.97224e-62
2.83687e-60
3.45736e-61
9.64526e-129
-2.61369e-124
3.33506e-122
-4.61002e-118
1.0244e-117
-8.96487e-114
4.47239e-114
-2.89064e-110
8.44691e-111
-4.3951e-107
1.14576e-107
-5.03134e-104
1.35863e-104
-5.20872e-101
1.54837e-101
-5.32471e-98
1.75602e-98
-5.51199e-95
2.03148e-95
-5.79697e-92
2.41354e-92
-6.13632e-89
2.8729e-89
-6.31701e-86
3.26597e-86
-6.05541e-83
3.34213e-83
-5.12221e-80
2.97212e-80
-3.71764e-77
2.25273e-77
-2.28074e-74
1.43354e-74
-1.17736e-71
7.5566e-72
-5.04914e-69
3.31388e-69
-1.81079e-66
1.18978e-66
-5.35058e-64
3.51172e-64
-1.31008e-61
8.41503e-62
-2.62206e-59
1.63447e-59
-4.28079e-57
2.55915e-57
-5.6708e-55
3.20303e-55
-6.03566e-53
3.18197e-53
-5.12556e-51
2.48188e-51
-3.43551e-49
1.49875e-49
-1.79137e-47
6.89607e-48
-7.14454e-46
2.3841e-46
-2.14494e-44
6.13983e-45
-4.78838e-43
1.16999e-43
-7.8933e-42
1.55109e-42
-9.14083e-41
1.27314e-41
-6.64877e-40
5.68593e-41
-2.65702e-39
1.14873e-40
-4.82645e-39
6.67849e-41
-2.50149e-39
1.32044e-41
-4.03888e-40
7.15929e-43
-9.74537e-42
2.03079e-44
1.0143e-45
4.96266e-46
7.18137e-47
1.03258e-47
2.61115e-48
1.81784e-49
6.90839e-50
2.67995e-51
1.43421e-51
3.24678e-53
2.38249e-53
3.13185e-55
3.14881e-55
2.28329e-57
3.22797e-57
1.18206e-59
2.51407e-59
1.4443e-59
5.4592e-59
2.64136e-57
2.06766e-58
1.45696e-125
-5.04303e-121
3.53079e-119
-6.18174e-115
9.3958e-115
-1.06379e-110
3.8421e-111
-3.34288e-107
6.90606e-108
-5.1012e-104
8.73491e-105
-5.82792e-101
9.38837e-102
-5.93462e-98
9.52812e-99
-5.87706e-95
9.67082e-96
-5.85581e-92
1.02183e-92
-5.82647e-89
1.13917e-89
-5.69952e-86
1.29427e-86
-5.2877e-83
1.41324e-83
-4.50893e-80
1.38176e-80
-3.36141e-77
1.16201e-77
-2.13582e-74
8.22469e-75
-1.14197e-71
4.86287e-72
-5.17429e-69
2.36938e-69
-1.95315e-66
9.57998e-67
-6.19079e-64
3.16953e-64
-1.62788e-61
8.63912e-62
-3.57061e-59
1.9158e-59
-6.44802e-57
3.45304e-57
-9.55812e-55
5.03722e-55
-1.15777e-52
5.89523e-53
-1.13328e-50
5.50273e-51
-8.90714e-49
4.0571e-49
-5.56589e-47
2.33166e-47
-2.72736e-45
1.02847e-45
-1.03091e-43
3.43246e-44
-2.95765e-42
8.58092e-43
-6.35386e-41
1.60029e-41
-1.01567e-39
2.12685e-40
-1.16598e-38
1.81206e-39
-8.71397e-38
8.74294e-39
-3.73196e-37
2.01141e-38
-7.67754e-37
1.43622e-38
-4.89754e-37
3.82836e-39
-1.09436e-37
2.98821e-40
-4.71581e-39
9.61775e-42
4.07772e-43
2.68369e-43
3.93345e-44
6.37142e-45
1.68988e-45
1.2754e-46
5.16096e-47
2.12886e-48
1.22411e-48
2.90627e-50
2.30749e-50
3.14038e-52
3.44016e-52
2.54284e-54
3.95183e-54
1.41693e-56
3.36182e-56
8.20709e-57
3.58168e-56
1.82412e-54
9.99681e-56
1.82936e-122
-9.29212e-118
3.08013e-116
-7.74561e-112
6.84789e-112
-1.17179e-107
2.45928e-108
-3.58605e-104
3.7246e-105
-5.48764e-101
3.46097e-102
-6.26295e-98
1.9927e-99
-6.29932e-95
1.67588e-97
-6.05663e-92
-1.15199e-90
-5.74569e-89
-1.61106e-87
-5.37363e-86
-1.16239e-84
-4.85414e-83
-1.31006e-82
-4.08323e-80
1.37734e-81
-3.07268e-77
2.45518e-78
-1.99782e-74
2.59674e-75
-1.09803e-71
1.99234e-72
-5.05729e-69
1.1934e-69
-1.99929e-66
5.65506e-67
-6.58995e-64
2.1725e-64
-1.83141e-61
6.75315e-62
-4.25814e-59
1.71936e-59
-8.3052e-57
3.55554e-57
-1.34512e-54
5.97488e-55
-1.80078e-52
8.14421e-53
-1.98518e-50
8.92434e-51
-1.77956e-48
7.82614e-49
-1.28885e-46
5.44776e-47
-7.47375e-45
2.97386e-45
-3.4251e-43
1.25448e-43
-1.22103e-41
4.0314e-42
-3.33192e-40
9.75919e-41
-6.85909e-39
1.77364e-39
-1.0577e-37
2.34502e-38
-1.19308e-36
2.05666e-37
-9.06913e-36
1.06302e-36
-4.12055e-35
2.75851e-36
-9.49373e-35
2.39669e-36
-7.36737e-35
8.5567e-37
-2.24724e-35
9.93725e-38
-1.67621e-36
3.74153e-39
1.10632e-40
1.23695e-40
1.75683e-41
3.4594e-42
9.32611e-43
8.087e-44
3.38882e-44
1.56534e-45
9.41367e-46
2.46504e-47
2.06011e-47
3.05893e-49
3.54512e-49
2.83098e-51
4.6784e-51
1.77479e-53
4.50955e-53
3.74439e-54
1.77722e-53
9.69227e-52
4.37215e-53
1.65984e-119
-1.84369e-114
1.88707e-113
-9.35985e-109
2.94693e-109
-1.22769e-104
5.17567e-106
-3.64347e-101
-9.09194e-100
-5.51045e-98
-4.09121e-96
-6.03815e-95
-7.62426e-93
-5.74436e-92
-1.03432e-89
-5.19329e-89
-1.14831e-86
-4.60929e-86
-1.08239e-83
-4.0025e-83
-8.62368e-81
-3.317e-80
-5.65268e-78
-2.52926e-77
-2.92286e-75
-1.71134e-74
-1.11793e-72
-9.97088e-72
-2.67125e-70
-4.90584e-69
-1.43994e-69
-2.01763e-66
1.23086e-67
-6.90869e-64
8.25152e-65
-1.96761e-61
3.48043e-62
-4.75681e-59
1.09106e-59
-9.71078e-57
2.692e-57
-1.67054e-54
5.30312e-55
-2.40866e-52
8.41369e-53
-2.8937e-50
1.07969e-50
-2.88566e-48
1.11261e-48
-2.35716e-46
9.18374e-47
-1.56567e-44
6.03549e-45
-8.38327e-43
3.12525e-43
-3.57454e-41
1.25795e-41
-1.19535e-39
3.88203e-40
-3.08597e-38
9.07543e-39
-6.05795e-37
1.60079e-37
-8.96414e-36
2.08868e-36
-9.84606e-35
1.86766e-35
-7.52613e-34
1.02396e-34
-3.5856e-33
2.96372e-34
-9.13374e-33
3.09585e-34
-8.50166e-33
1.46056e-34
-3.47123e-33
2.52937e-35
-4.26389e-34
1.17427e-36
1.3115e-38
4.80595e-38
6.28796e-39
1.62896e-39
4.32859e-40
4.53859e-41
1.91986e-41
1.03689e-42
6.36778e-43
1.91734e-44
1.64693e-44
2.78686e-46
3.33226e-46
3.01817e-48
5.15697e-48
2.20831e-50
5.80548e-50
1.43663e-51
7.04256e-51
4.08694e-49
1.82713e-50
-2.32187e-112
-4.63808e-111
-1.22332e-107
-1.12739e-105
-5.47136e-103
-1.21011e-101
-2.86097e-99
-3.32897e-98
-7.22017e-96
-4.75932e-95
-1.23705e-92
-4.8902e-92
-1.65496e-89
-4.32203e-89
-1.84418e-86
-3.62185e-86
-1.76826e-83
-2.98321e-83
-1.47486e-80
-2.39399e-80
-1.06059e-77
-1.81554e-77
-6.44899e-75
-1.25475e-74
-3.23977e-72
-7.64414e-72
-1.31585e-69
-4.00054e-69
-4.22171e-67
-1.76767e-66
-1.03087e-64
-6.5326e-64
-1.7441e-62
-2.01183e-61
-1.31276e-60
-5.15797e-59
1.84133e-60
-1.10053e-56
1.05791e-57
-1.9538e-54
3.001e-55
-2.94129e-52
6.05683e-53
-3.74223e-50
9.40831e-51
-4.00579e-48
1.15859e-48
-3.58476e-46
1.13515e-46
-2.65166e-44
8.87088e-45
-1.60643e-42
5.5169e-43
-7.89948e-41
2.70973e-41
-3.1165e-39
1.03899e-39
-9.71892e-38
3.07104e-38
-2.35976e-36
6.91355e-37
-4.39289e-35
1.17905e-35
-6.20356e-34
1.50616e-34
-6.5765e-33
1.35856e-33
-4.99258e-32
7.81273e-33
-2.4615e-31
2.49049e-32
-6.83386e-31
3.08441e-32
-7.50895e-31
1.88834e-32
-4.01001e-31
4.77224e-33
-7.65018e-32
3.43067e-34
-9.61642e-34
1.709e-35
1.93189e-36
6.84569e-37
1.73819e-37
2.23898e-38
9.33834e-39
6.00994e-40
3.69122e-40
1.31e-41
1.13351e-41
2.25396e-43
2.72393e-43
2.90445e-45
5.0173e-45
2.5462e-47
6.74258e-47
5.2062e-49
2.53544e-48
1.39953e-46
7.05283e-48
-9.63623e-108
-8.35792e-108
-2.81819e-103
-1.17946e-102
-1.98057e-99
-1.0347e-98
-6.26106e-96
-2.61313e-95
-1.23167e-92
-3.47611e-92
-1.79086e-89
-3.28041e-89
-2.09916e-86
-2.63401e-86
-2.07268e-83
-2.01068e-83
-1.76358e-80
-1.52542e-80
-1.30445e-77
-1.1338e-77
-8.34437e-75
-7.91857e-75
-4.55105e-72
-4.9857e-72
-2.08136e-69
-2.74782e-69
-7.86305e-67
-1.29672e-66
-2.42395e-64
-5.16439e-64
-6.02536e-62
-1.72108e-61
-1.1864e-59
-4.78311e-59
-1.78459e-57
-1.10758e-56
-1.8631e-55
-2.13654e-54
-8.52173e-54
-3.43216e-52
1.24577e-53
-4.58734e-50
4.39243e-51
-5.09359e-48
7.7355e-49
-4.82356e-46
9.69625e-47
-3.83545e-44
9.29538e-45
-2.54864e-42
6.98004e-43
-1.39892e-40
4.1378e-41
-6.27832e-39
1.93313e-39
-2.27818e-37
7.05934e-38
-6.58427e-36
1.9946e-36
-1.49387e-34
4.31211e-35
-2.62083e-33
7.08581e-34
-3.51169e-32
8.79669e-33
-3.563e-31
7.91352e-32
-2.65167e-30
4.71461e-31
-1.33337e-29
1.63259e-30
-3.97209e-29
2.36099e-30
-5.0647e-29
1.83723e-30
-3.45055e-29
6.54e-31
-9.62914e-30
8.29698e-32
-5.3523e-31
4.81854e-33
4.28328e-34
2.28229e-34
5.3558e-35
8.93371e-36
3.59304e-36
2.89441e-37
1.74557e-37
7.66055e-39
6.56606e-39
1.60816e-40
1.93234e-40
2.54194e-42
4.36422e-42
2.7572e-44
7.2137e-44
2.57104e-46
1.21242e-45
3.9826e-44
2.38453e-45
-2.10013e-104
-1.0711e-104
-5.05273e-100
-1.01431e-99
-2.95127e-96
-7.54878e-96
-8.14599e-93
-1.74502e-92
-1.43495e-89
-2.12601e-89
-1.88184e-86
-1.79649e-86
-1.98271e-83
-1.26934e-83
-1.74735e-80
-8.58006e-81
-1.3197e-77
-5.93842e-78
-8.63167e-75
-4.13567e-75
-4.8772e-72
-2.71112e-72
-2.36151e-69
-1.57897e-69
-9.67432e-67
-7.94688e-67
-3.31356e-64
-3.40323e-64
-9.3966e-62
-1.22726e-61
-2.18994e-59
-3.70267e-59
-4.16177e-57
-9.31812e-57
-6.37266e-55
-1.95465e-54
-7.69282e-53
-3.41764e-52
-6.98385e-51
-4.97969e-50
-4.15458e-49
-6.04138e-48
-5.37537e-48
-6.0932e-46
3.21727e-47
-5.09784e-44
5.61353e-45
-3.56215e-42
5.80049e-43
-2.10568e-40
4.35933e-41
-1.0387e-38
2.51043e-39
-4.22204e-37
1.12545e-37
-1.3997e-35
3.92609e-36
-3.72455e-34
1.06002e-34
-7.84258e-33
2.19617e-33
-1.28783e-31
3.46715e-32
-1.62701e-30
4.15662e-31
-1.5675e-29
3.68673e-30
-1.12881e-28
2.2451e-29
-5.69823e-28
8.32266e-29
-1.79112e-27
1.38322e-28
-2.60335e-27
1.33856e-28
-2.20582e-27
6.44326e-29
-8.50653e-28
1.39906e-29
-1.0997e-28
1.01299e-30
5.93827e-32
6.17097e-32
1.2871e-32
3.09945e-33
1.17577e-33
1.27435e-34
7.42264e-35
4.23743e-36
3.54758e-36
1.11051e-37
1.30971e-37
2.18766e-39
3.68639e-39
2.97255e-41
7.58447e-41
2.47965e-43
1.11585e-42
9.40351e-42
6.72074e-43
-2.88716e-101
-1.00828e-101
-6.00045e-97
-7.19051e-97
-3.17509e-93
-4.65412e-93
-8.10598e-90
-9.80456e-90
-1.32659e-86
-1.07446e-86
-1.60338e-83
-7.77604e-84
-1.52111e-80
-4.40146e-81
-1.18017e-77
-2.43062e-78
-7.81812e-75
-1.57374e-75
-4.49789e-72
-1.09462e-72
-2.23596e-69
-7.03597e-70
-9.55638e-67
-3.92195e-67
-3.48182e-64
-1.83927e-64
-1.07061e-61
-7.22406e-62
-2.75366e-59
-2.37385e-59
-5.88479e-57
-6.51344e-57
-1.03914e-54
-1.48985e-54
-1.50626e-52
-2.83985e-52
-1.77483e-50
-4.51195e-50
-1.67211e-48
-5.97499e-48
-1.22035e-46
-6.59011e-46
-6.40391e-45
-6.0448e-44
-1.83812e-43
-4.60071e-42
9.06602e-44
-2.8972e-40
2.29611e-41
-1.50476e-38
2.01763e-39
-6.61101e-37
1.19252e-37
-2.41024e-35
5.25332e-36
-7.24015e-34
1.76873e-34
-1.76133e-32
4.5784e-33
-3.41731e-31
9.0872e-32
-5.21389e-30
1.37563e-30
-6.16809e-29
1.58488e-29
-5.60044e-28
1.37099e-28
-3.85413e-27
8.41395e-28
-1.92064e-26
3.28821e-27
-6.25703e-26
6.17994e-27
-1.01791e-25
7.27531e-27
-1.04566e-25
4.54394e-27
-5.28902e-26
1.57099e-27
-1.24723e-26
1.659e-28
3.70842e-30
1.4193e-29
2.49908e-30
9.37687e-31
3.27653e-31
4.88439e-32
2.70494e-32
2.02229e-33
1.63375e-33
6.56183e-35
7.51875e-35
1.60362e-36
2.62849e-36
2.72963e-38
6.73779e-38
2.76979e-40
1.18178e-39
2.08529e-39
1.75008e-40
-2.97072e-98
-7.24216e-99
-5.52743e-94
-4.18101e-94
-2.74034e-90
-2.3871e-90
-6.70011e-87
-4.51248e-87
-1.05621e-83
-4.17023e-84
-1.19831e-80
-2.0502e-81
-1.01709e-77
-3.26009e-79
-6.82069e-75
2.15591e-79
-3.85639e-72
-4.57449e-74
-1.90419e-69
-1.45754e-70
-8.27473e-67
-1.245e-67
-3.10964e-64
-7.31193e-65
-1.0024e-61
-3.34031e-62
-2.75053e-59
-1.23052e-59
-6.37145e-57
-3.72634e-57
-1.23694e-54
-9.35778e-55
-2.00134e-52
-1.95407e-52
-2.68484e-50
-3.39607e-50
-2.96761e-48
-4.91585e-48
-2.67817e-46
-5.92844e-46
-1.94539e-44
-5.95332e-44
-1.10931e-42
-4.97112e-42
-4.71406e-41
-3.44421e-40
-1.28263e-39
-1.97448e-38
-4.87236e-39
-9.33606e-37
5.24308e-38
-3.62829e-35
4.06169e-36
-1.17331e-33
1.89028e-34
-3.15882e-32
6.32203e-33
-6.9673e-31
1.58736e-31
-1.23612e-29
3.02933e-30
-1.73879e-28
4.39739e-29
-1.91168e-27
4.85455e-28
-1.6236e-26
4.05797e-27
-1.05558e-25
2.47404e-26
-5.10454e-25
1.00321e-25
-1.69101e-24
2.09802e-25
-3.02218e-24
2.94006e-25
-3.66978e-24
2.29025e-25
-2.3211e-24
1.16434e-25
-8.62398e-25
2.5322e-26
-4.58944e-26
2.72256e-27
3.74115e-28
2.18906e-28
6.85235e-29
1.38943e-29
7.19995e-30
7.06613e-31
5.44826e-31
2.84446e-32
3.14073e-32
8.7294e-34
1.38316e-33
1.898e-35
4.51306e-35
2.51968e-37
1.01855e-36
5.00019e-37
4.81134e-38
-2.41904e-95
-3.97316e-96
-4.13501e-91
-1.95972e-91
-1.96716e-87
-9.87619e-88
-4.72351e-84
-1.58767e-84
-7.3876e-81
-9.2186e-82
-8.06311e-78
7.93712e-82
-6.19101e-75
2.17486e-78
-3.58662e-72
1.69199e-75
-1.67712e-69
7.2184e-73
-6.81607e-67
1.58176e-70
-2.52527e-64
-5.20912e-66
-8.2824e-62
-8.77379e-63
-2.35278e-59
-4.52225e-60
-5.73488e-57
-1.6465e-57
-1.19036e-54
-4.70307e-55
-2.08765e-52
-1.09306e-52
-3.07321e-50
-2.09653e-50
-3.7772e-48
-3.33584e-48
-3.85565e-46
-4.41236e-46
-3.2472e-44
-4.8564e-44
-2.23617e-42
-4.44674e-42
-1.24261e-40
-3.38324e-40
-5.45301e-39
-2.1346e-38
-1.81366e-37
-1.11386e-36
-4.11878e-36
-4.79213e-35
-3.80414e-35
-1.69407e-33
6.50423e-35
-4.90223e-32
4.69774e-33
-1.16612e-30
1.71287e-31
-2.30661e-29
4.3152e-30
-3.71023e-28
8.02253e-29
-4.77246e-27
1.12155e-27
-4.83665e-26
1.18625e-26
-3.81228e-25
9.51931e-26
-2.31737e-24
5.68722e-25
-1.06937e-23
2.35425e-24
-3.53089e-23
5.39179e-24
-6.80147e-23
8.80347e-24
-9.51657e-23
8.24058e-24
-7.20063e-23
5.74253e-24
-3.82291e-23
2.583e-24
-8.95229e-24
3.40064e-25
3.1457e-26
3.48415e-26
9.42142e-27
2.85575e-27
1.36049e-27
1.88054e-28
1.36926e-28
9.80975e-30
1.03669e-29
3.9194e-31
5.97894e-31
1.12643e-32
2.5766e-32
2.05097e-34
7.88057e-34
1.11979e-34
1.20365e-35
-1.582e-92
-1.6249e-93
-2.54233e-88
-7.14038e-89
-1.18273e-84
-3.07305e-85
-2.83265e-81
-3.37415e-82
-4.3022e-78
4.44289e-82
-4.24832e-75
2.00902e-78
-2.95678e-72
2.27052e-75
-1.54165e-69
1.43921e-72
-6.34338e-67
5.954e-70
-2.16975e-64
1.67287e-67
-6.53584e-62
2.9071e-65
-1.83301e-59
2.10926e-64
-4.56102e-57
-3.83345e-58
-9.83586e-55
-1.64286e-55
-1.82104e-52
-4.67569e-53
-2.8715e-50
-1.02802e-50
-3.82717e-48
-1.82945e-48
-4.28406e-46
-2.67994e-46
-4.00567e-44
-3.25117e-44
-3.11023e-42
-3.274e-42
-1.99143e-40
-2.73799e-40
-1.04197e-38
-1.89991e-38
-4.39923e-37
-1.09197e-36
-1.46992e-35
-5.18531e-35
-3.75321e-34
-2.02837e-33
-6.74934e-33
-6.51519e-32
-6.23322e-32
-1.71232e-30
4.20053e-32
-3.66764e-29
3.07858e-30
-6.39949e-28
8.73476e-29
-9.23357e-27
1.64459e-27
-1.0764e-25
2.24678e-26
-9.968e-25
2.28783e-25
-7.23011e-24
1.75797e-24
-4.06986e-23
1.01743e-23
-1.76474e-22
4.23056e-23
-5.68958e-22
1.04455e-22
-1.1582e-21
1.94517e-22
-1.81889e-21
2.11188e-22
-1.57847e-21
1.91029e-22
-1.12177e-21
1.46103e-22
-5.27966e-22
3.00494e-23
1.22882e-24
4.5339e-24
1.00401e-24
5.11446e-25
2.19294e-25
4.49181e-26
3.05485e-26
3.12096e-27
3.13846e-27
1.70437e-28
2.49738e-28
7.06843e-30
1.55697e-29
2.01155e-31
7.39322e-31
3.95291e-32
4.62087e-33
-8.26919e-90
-4.66341e-91
-1.26673e-85
-1.8999e-86
-5.78307e-82
-6.1726e-83
-1.36702e-78
3.8047e-83
-1.89009e-75
8.31786e-79
-1.70849e-72
1.46497e-75
-1.09152e-69
1.31018e-72
-5.21411e-67
7.38886e-70
-1.94721e-64
2.87845e-67
-5.91583e-62
8.09263e-65
-1.52347e-59
1.64756e-62
-3.48378e-57
2.20935e-60
-7.41688e-55
5.55737e-59
-1.40515e-52
-1.00069e-53
-2.30685e-50
-3.44425e-51
-3.25232e-48
-7.59504e-49
-3.90514e-46
-1.2826e-46
-3.96224e-44
-1.74728e-44
-3.37488e-42
-1.955e-42
-2.3985e-40
-1.80751e-40
-1.41318e-38
-1.38352e-38
-6.85207e-37
-8.76631e-37
-2.70924e-35
-4.59171e-35
-8.62988e-34
-1.98382e-33
-2.17524e-32
-7.05034e-32
-4.20566e-31
-2.05488e-30
-5.82332e-30
-4.89613e-29
-4.57484e-29
-9.50312e-28
1.27933e-29
-1.49631e-26
1.12463e-27
-1.90429e-25
2.46476e-26
-1.99068e-24
3.43674e-25
-1.66845e-23
3.42335e-24
-1.10344e-22
2.52841e-23
-5.69839e-22
1.40736e-22
-2.29073e-21
5.79102e-22
-7.06915e-21
1.51808e-21
-1.48986e-20
3.15506e-21
-2.55375e-20
3.83909e-21
-2.4402e-20
4.34023e-21
-2.22318e-20
4.72992e-21
-1.56532e-20
2.00129e-21
-1.17826e-21
4.06707e-22
6.73285e-23
6.08003e-23
2.28171e-23
7.39052e-24
4.63812e-24
7.81987e-25
7.44496e-25
7.4924e-26
1.05382e-25
6.20021e-27
1.31939e-26
3.68109e-28
1.30579e-27
8.63112e-29
1.06707e-29
-3.40617e-87
-7.9582e-89
-5.02684e-83
-3.17615e-84
-2.25473e-79
-2.94962e-81
-4.90765e-76
1.57464e-79
-6.24052e-73
4.92478e-76
-5.21428e-70
6.56672e-73
-3.08757e-67
5.11137e-70
-1.36661e-64
2.63569e-67
-4.70812e-62
9.65989e-65
-1.30513e-59
2.62338e-62
-3.00173e-57
5.384e-60
-5.91739e-55
8.26763e-58
-1.03817e-52
8.62861e-56
-1.68654e-50
2.31e-54
-2.44053e-48
-1.51164e-49
-3.05779e-46
-4.1272e-47
-3.28835e-44
-7.03465e-45
-3.00907e-42
-9.12116e-43
-2.32356e-40
-9.50739e-41
-1.50328e-38
-8.11372e-39
-8.0946e-37
-5.70223e-37
-3.60279e-35
-3.30492e-35
-1.3154e-33
-1.57879e-33
-3.90405e-32
-6.2058e-32
-9.31011e-31
-2.00232e-30
-1.75426e-29
-5.28845e-29
-2.53829e-28
-1.1401e-27
-2.65419e-27
-2.00005e-26
-1.65728e-26
-2.84498e-25
1.30655e-27
-3.26689e-24
2.25498e-25
-3.01167e-23
3.77371e-24
-2.25953e-22
3.85569e-23
-1.34877e-21
2.78242e-22
-6.33004e-21
1.49022e-21
-2.33245e-20
5.99954e-21
-6.76912e-20
1.6458e-20
-1.44599e-19
3.73219e-20
-2.62343e-19
4.9217e-20
-2.6547e-19
6.78822e-20
-3.0075e-19
9.18547e-20
-2.72099e-19
7.23697e-20
-9.69853e-20
2.14142e-20
2.17393e-21
5.34194e-21
1.68568e-21
1.24781e-21
7.12419e-22
2.75515e-22
2.47237e-22
5.21263e-23
7.04501e-23
7.36198e-24
1.52172e-23
6.54396e-25
2.26642e-24
2.0311e-25
2.57714e-26
-1.07301e-84
-2.17804e-87
-1.52809e-80
-1.56273e-82
-6.45387e-77
1.24195e-80
-1.2977e-73
8.13449e-77
-1.53321e-70
1.77105e-73
-1.19534e-67
2.01177e-70
-6.62051e-65
1.4151e-67
-2.74203e-62
6.7786e-65
-8.82038e-60
2.34836e-62
-2.26967e-57
6.11931e-60
-4.78914e-55
1.22805e-57
-8.48181e-53
1.91321e-55
-1.29324e-50
2.27411e-53
-1.74998e-48
1.87584e-51
-2.17442e-46
4.89903e-50
-2.40565e-44
-1.28102e-45
-2.30126e-42
-2.79741e-43
-1.8867e-40
-3.6946e-41
-1.31347e-38
-3.67942e-39
-7.6957e-37
-2.93003e-37
-3.76562e-35
-1.90114e-35
-1.5279e-33
-1.01089e-33
-5.10421e-32
-4.41063e-32
-1.39309e-30
-1.57788e-30
-3.07887e-29
-4.61978e-29
-5.44926e-28
-1.10435e-27
-7.60183e-27
-2.14989e-26
-8.13727e-26
-3.39949e-25
-6.32054e-25
-4.35305e-24
-3.01354e-24
-4.49679e-23
-6.9798e-25
-3.72881e-22
2.43911e-23
-2.46657e-21
3.06326e-22
-1.31294e-20
2.27099e-21
-5.54471e-20
1.18816e-20
-1.85499e-19
4.66422e-20
-4.99395e-19
1.32252e-19
-1.05846e-18
3.19483e-19
-1.9639e-18
4.42329e-19
-2.03485e-18
7.3224e-19
-2.79169e-18
1.13312e-18
-3.06189e-18
1.25032e-18
-1.80103e-18
6.57816e-19
1.80676e-20
2.79377e-19
6.95725e-20
1.05792e-19
5.39968e-20
3.45351e-20
2.91025e-20
8.87376e-21
1.15597e-20
1.62576e-21
3.29006e-21
1.84405e-22
6.3256e-22
7.31328e-23
9.2075e-24
-2.52821e-82
1.55217e-86
-3.41844e-78
4.23985e-82
-1.34066e-74
5.95645e-78
-2.5156e-71
2.38774e-74
-2.78647e-68
4.29743e-71
-2.04384e-65
4.36011e-68
-1.0672e-62
2.83022e-65
-4.16921e-60
1.2734e-62
-1.26343e-57
4.19218e-60
-3.05213e-55
1.04806e-57
-6.00573e-53
2.03923e-55
-9.80306e-51
3.12988e-53
-1.35066e-48
3.7926e-51
-1.60171e-46
3.55166e-49
-1.67535e-44
2.35173e-47