/*--------------------------------*- C++ -*----------------------------------*\
| =========                 |                                                 |
| \\      /  F ield         | OpenFOAM: The Open Source CFD Toolbox           |
|  \\    /   O peration     | Version:  2.4.0                                 |
|   \\  /    A nd           | Web:      www.OpenFOAM.org                      |
|    \\/     M anipulation  |                                                 |
\*---------------------------------------------------------------------------*/
FoamFile
{
    version     2.0;
    format      ascii;
    class       volVectorField;
    location    "0.021";
    object      U;
}
// * * * * * * * * * * * * * * * * * * * * * * * * * * * * * * * * * * * * * //

dimensions      [0 1 -1 0 0 0 0];

internalField   nonuniform List<vector> 
10000
(
(-1.58033e-06 1.5797e-06 0)
(-1.11754e-06 5.08061e-07 0)
(3.87661e-06 -4.6831e-07 0)
(1.13525e-05 -9.04506e-07 0)
(1.97372e-05 -1.02393e-06 0)
(2.82686e-05 -1.02707e-06 0)
(3.67547e-05 -1.02653e-06 0)
(4.53057e-05 -1.07307e-06 0)
(5.41531e-05 -1.18311e-06 0)
(6.35601e-05 -1.35632e-06 0)
(7.37801e-05 -1.58638e-06 0)
(8.50416e-05 -1.86671e-06 0)
(9.75489e-05 -2.19256e-06 0)
(0.000111486 -2.56046e-06 0)
(0.000127023 -2.96681e-06 0)
(0.00014431 -3.40712e-06 0)
(0.000163477 -3.87629e-06 0)
(0.000184629 -4.36917e-06 0)
(0.000207841 -4.8804e-06 0)
(0.000233162 -5.40347e-06 0)
(0.000260612 -5.9298e-06 0)
(0.000290171 -6.44867e-06 0)
(0.000321773 -6.94803e-06 0)
(0.000355294 -7.41529e-06 0)
(0.000390547 -7.83729e-06 0)
(0.000427283 -8.1996e-06 0)
(0.000465194 -8.48607e-06 0)
(0.000503901 -8.67914e-06 0)
(0.000542956 -8.76095e-06 0)
(0.000581831 -8.71445e-06 0)
(0.000619918 -8.52378e-06 0)
(0.00065654 -8.17438e-06 0)
(0.000690963 -7.65336e-06 0)
(0.000722407 -6.95044e-06 0)
(0.000750057 -6.0594e-06 0)
(0.00077308 -4.9797e-06 0)
(0.000790649 -3.71747e-06 0)
(0.000801972 -2.28954e-06 0)
(0.000806294 -7.27478e-07 0)
(0.000802985 9.83656e-07 0)
(0.000791568 2.78862e-06 0)
(0.000771681 4.6495e-06 0)
(0.000743155 6.5259e-06 0)
(0.000706033 8.36734e-06 0)
(0.000660568 1.01236e-05 0)
(0.000607232 1.17523e-05 0)
(0.000546732 1.3206e-05 0)
(0.00047999 1.44373e-05 0)
(0.000408088 1.54153e-05 0)
(0.00033226 1.61125e-05 0)
(-4.35852e-07 9.32762e-07 0)
(7.52639e-06 -7.43236e-06 0)
(2.41897e-05 -1.38891e-05 0)
(4.5466e-05 -1.69267e-05 0)
(6.84179e-05 -1.78515e-05 0)
(9.16461e-05 -1.79353e-05 0)
(0.000114799 -1.79596e-05 0)
(0.000138109 -1.83115e-05 0)
(0.00016208 -1.91372e-05 0)
(0.000187301 -2.0459e-05 0)
(0.000214355 -2.22466e-05 0)
(0.000243785 -2.44552e-05 0)
(0.000276079 -2.70422e-05 0)
(0.000311683 -2.99697e-05 0)
(0.000351 -3.32024e-05 0)
(0.000394388 -3.67033e-05 0)
(0.000442159 -4.04313e-05 0)
(0.000494568 -4.43401e-05 0)
(0.000551807 -4.83763e-05 0)
(0.000614008 -5.24782e-05 0)
(0.000681223 -5.65733e-05 0)
(0.000753417 -6.05779e-05 0)
(0.000830439 -6.43962e-05 0)
(0.00091201 -6.79211e-05 0)
(0.000997712 -7.10343e-05 0)
(0.00108697 -7.36076e-05 0)
(0.00117906 -7.55038e-05 0)
(0.00127308 -7.65797e-05 0)
(0.00136793 -7.66885e-05 0)
(0.00146233 -7.56837e-05 0)
(0.00155482 -7.34237e-05 0)
(0.00164375 -6.97777e-05 0)
(0.00172732 -6.46344e-05 0)
(0.0018036 -5.79101e-05 0)
(0.00187059 -4.95564e-05 0)
(0.00192622 -3.95666e-05 0)
(0.00196843 -2.7984e-05 0)
(0.00199526 -1.49096e-05 0)
(0.00200489 -5.08659e-07 0)
(0.00199575 1.50365e-05 0)
(0.00196655 3.14217e-05 0)
(0.00191641 4.8308e-05 0)
(0.0018449 6.53182e-05 0)
(0.00175206 8.20321e-05 0)
(0.00163852 9.80073e-05 0)
(0.00150541 0.000112817 0)
(0.00135442 0.000126047 0)
(0.00118778 0.000137305 0)
(0.00100813 0.000146271 0)
(0.000818482 0.000152705 0)
(5.6022e-07 -4.30209e-06 0)
(1.37491e-05 -2.38754e-05 0)
(3.70947e-05 -3.743e-05 0)
(6.56302e-05 -4.37658e-05 0)
(9.58813e-05 -4.57024e-05 0)
(0.00012629 -4.5863e-05 0)
(0.000156519 -4.59231e-05 0)
(0.00018692 -4.67554e-05 0)
(0.000218181 -4.87149e-05 0)
(0.00025111 -5.18747e-05 0)
(0.000286517 -5.61805e-05 0)
(0.000325157 -6.15362e-05 0)
(0.000367723 -6.78426e-05 0)
(0.000414846 -7.50076e-05 0)
(0.000467103 -8.29426e-05 0)
(0.00052501 -9.1556e-05 0)
(0.00058902 -0.000100747 0)
(0.000659509 -0.000110403 0)
(0.000736775 -0.000120394 0)
(0.000821027 -0.000130572 0)
(0.000912371 -0.000140763 0)
(0.00101079 -0.000150763 0)
(0.00111612 -0.000160334 0)
(0.00122803 -0.000169207 0)
(0.00134596 -0.000177085 0)
(0.00146917 -0.000183645 0)
(0.00159667 -0.000188539 0)
(0.00172723 -0.000191404 0)
(0.00185936 -0.000191862 0)
(0.00199128 -0.000189532 0)
(0.00212093 -0.000184046 0)
(0.00224602 -0.000175067 0)
(0.00236398 -0.000162307 0)
(0.00247207 -0.000145548 0)
(0.00256741 -0.000124657 0)
(0.00264705 -9.96028e-05 0)
(0.002708 -7.0478e-05 0)
(0.0027474 -3.75183e-05 0)
(0.00276261 -1.10854e-06 0)
(0.00275127 3.81921e-05 0)
(0.00271147 7.96855e-05 0)
(0.00264185 0.000122521 0)
(0.00254169 0.000165736 0)
(0.00241096 0.000208283 0)
(0.00225045 0.000249046 0)
(0.00206172 0.000286909 0)
(0.00184713 0.000320818 0)
(0.00160977 0.000349797 0)
(0.00135341 0.000373016 0)
(0.00108236 0.000389851 0)
(9.39734e-07 -1.18085e-05 0)
(1.6211e-05 -4.44957e-05 0)
(4.19895e-05 -6.56076e-05 0)
(7.28045e-05 -7.51904e-05 0)
(0.000104998 -7.79446e-05 0)
(0.000137048 -7.7997e-05 0)
(0.000168725 -7.80042e-05 0)
(0.000200519 -7.93787e-05 0)
(0.000233277 -8.27138e-05 0)
(0.000267974 -8.81466e-05 0)
(0.000305585 -9.56013e-05 0)
(0.000347027 -0.000104926 0)
(0.000393148 -0.000115955 0)
(0.000444728 -0.000128527 0)
(0.000502488 -0.000142486 0)
(0.000567081 -0.00015767 0)
(0.000639083 -0.000173904 0)
(0.000718983 -0.000190999 0)
(0.000807177 -0.000208737 0)
(0.000903961 -0.000226861 0)
(0.00100952 -0.000245067 0)
(0.00112389 -0.000262997 0)
(0.00124693 -0.000280234 0)
(0.0013783 -0.000296308 0)
(0.0015174 -0.000310695 0)
(0.00166338 -0.000322822 0)
(0.00181512 -0.000332067 0)
(0.00197117 -0.000337767 0)
(0.00212977 -0.000339234 0)
(0.0022888 -0.000335775 0)
(0.00244579 -0.00032672 0)
(0.0025979 -0.000311451 0)
(0.00274204 -0.000289431 0)
(0.00287479 -0.000260235 0)
(0.0029926 -0.00022359 0)
(0.00309173 -0.000179409 0)
(0.00316847 -0.000127835 0)
(0.00321915 -6.92673e-05 0)
(0.00324037 -4.38811e-06 0)
(0.00322909 6.58293e-05 0)
(0.00318279 0.000140148 0)
(0.00309965 0.000217055 0)
(0.00297862 0.000294815 0)
(0.00281954 0.000371527 0)
(0.00262323 0.000445181 0)
(0.00239155 0.000513744 0)
(0.00212736 0.000575285 0)
(0.00183448 0.000628043 0)
(0.00151759 0.000670505 0)
(0.00118206 0.000701502 0)
(9.55282e-07 -1.9917e-05 0)
(1.62171e-05 -6.59505e-05 0)
(4.16305e-05 -9.43324e-05 0)
(7.15863e-05 -0.000106723 0)
(0.000102446 -0.000109903 0)
(0.000132803 -0.000109574 0)
(0.000162564 -0.000109389 0)
(0.000192363 -0.000111304 0)
(0.000223188 -0.000116157 0)
(0.000256149 -0.000124152 0)
(0.000292352 -0.000135194 0)
(0.000332841 -0.000149073 0)
(0.000378593 -0.00016555 0)
(0.000430519 -0.000184387 0)
(0.000489467 -0.00020535 0)
(0.000556212 -0.000228203 0)
(0.000631442 -0.000252698 0)
(0.000715755 -0.00027856 0)
(0.000809652 -0.000305474 0)
(0.000913531 -0.00033306 0)
(0.00102767 -0.000360866 0)
(0.00115218 -0.000388359 0)
(0.00128699 -0.000414923 0)
(0.00143176 -0.00043986 0)
(0.00158591 -0.000462384 0)
(0.00174856 -0.000481623 0)
(0.00191848 -0.000496621 0)
(0.00209413 -0.000506358 0)
(0.00227353 -0.000509772 0)
(0.00245429 -0.000505794 0)
(0.0026336 -0.00049338 0)
(0.00280823 -0.000471551 0)
(0.00297454 -0.000439441 0)
(0.00312861 -0.000396346 0)
(0.00326619 -0.000341797 0)
(0.00338287 -0.000275618 0)
(0.00347418 -0.000197983 0)
(0.00353569 -0.000109464 0)
(0.00356324 -1.10584e-05 0)
(0.0035531 9.57901e-05 0)
(0.00350212 0.000209201 0)
(0.00340793 0.00032687 0)
(0.00326911 0.000446117 0)
(0.0030853 0.000563998 0)
(0.00285734 0.000677406 0)
(0.00258731 0.000783189 0)
(0.00227856 0.000878322 0)
(0.00193557 0.00096005 0)
(0.00156391 0.001026 0)
(0.00117001 0.0010743 0)
(7.99906e-07 -2.75874e-05 0)
(1.49308e-05 -8.62932e-05 0)
(3.83886e-05 -0.000121311 0)
(6.57044e-05 -0.000135945 0)
(9.34049e-05 -0.000139119 0)
(0.000120236 -0.000138119 0)
(0.000146252 -0.00013759 0)
(0.000172223 -0.000140024 0)
(0.000199258 -0.000146498 0)
(0.00022858 -0.000157284 0)
(0.000261404 -0.000172266 0)
(0.000298883 -0.000191172 0)
(0.000342107 -0.000213683 0)
(0.000392104 -0.000239483 0)
(0.000449834 -0.00026826 0)
(0.000516181 -0.000299709 0)
(0.000591944 -0.000333506 0)
(0.000677832 -0.000369293 0)
(0.000774465 -0.000406644 0)
(0.00088236 -0.000445049 0)
(0.0010019 -0.0004839 0)
(0.00113331 -0.000522482 0)
(0.00127658 -0.000559965 0)
(0.00143146 -0.000595399 0)
(0.00159739 -0.0006277 0)
(0.00177352 -0.000655651 0)
(0.00195861 -0.000677919 0)
(0.00215101 -0.000693074 0)
(0.0023486 -0.000699625 0)
(0.00254879 -0.000696052 0)
(0.00274847 -0.000680856 0)
(0.00294402 -0.000652609 0)
(0.00313138 -0.000610029 0)
(0.00330602 -0.000552062 0)
(0.00346308 -0.000477979 0)
(0.00359741 -0.000387458 0)
(0.00370374 -0.000280666 0)
(0.00377686 -0.000158323 0)
(0.00381176 -2.17561e-05 0)
(0.00380395 0.000127064 0)
(0.00374953 0.000285513 0)
(0.00364552 0.000450364 0)
(0.00349005 0.000617839 0)
(0.0032825 0.000783753 0)
(0.00302367 0.00094368 0)
(0.00271588 0.00109312 0)
(0.00236294 0.00122771 0)
(0.00197007 0.00134347 0)
(0.00154379 0.00143695 0)
(0.0010917 0.00150546 0)
(5.7473e-07 -3.43677e-05 0)
(1.30537e-05 -0.000104581 0)
(3.37449e-05 -0.000145391 0)
(5.74907e-05 -0.000161643 0)
(8.10748e-05 -0.000164363 0)
(0.000103422 -0.000162401 0)
(0.000124731 -0.000161371 0)
(0.000145896 -0.000164289 0)
(0.000168133 -0.000172463 0)
(0.000192765 -0.000186229 0)
(0.0002211 -0.000205443 0)
(0.000254392 -0.000229766 0)
(0.000293831 -0.0002588 0)
(0.000340547 -0.000292152 0)
(0.000395601 -0.000329447 0)
(0.000459982 -0.00037031 0)
(0.000534601 -0.000414347 0)
(0.000620295 -0.00046111 0)
(0.000717817 -0.000510066 0)
(0.00082782 -0.000560575 0)
(0.000950821 -0.000611875 0)
(0.00108716 -0.000663065 0)
(0.00123696 -0.000713089 0)
(0.00140007 -0.000760716 0)
(0.00157605 -0.000804534 0)
(0.0017641 -0.00084295 0)
(0.00196301 -0.000874211 0)
(0.0021711 -0.000896428 0)
(0.00238615 -0.000907609 0)
(0.0026054 -0.000905704 0)
(0.00282548 -0.000888662 0)
(0.00304243 -0.000854514 0)
(0.00325173 -0.00080147 0)
(0.00344826 -0.000728037 0)
(0.00362646 -0.000633135 0)
(0.00378041 -0.000516211 0)
(0.00390398 -0.00037736 0)
(0.00399104 -0.000217418 0)
(0.00403562 -3.80548e-05 0)
(0.00403232 0.00015818 0)
(0.00397636 0.000367831 0)
(0.00386402 0.000586608 0)
(0.00369284 0.000809467 0)
(0.00346187 0.00103076 0)
(0.00317183 0.00124448 0)
(0.00282524 0.00144449 0)
(0.0024264 0.0016248 0)
(0.00198141 0.00177994 0)
(0.00149787 0.0019052 0)
(0.00098474 0.00199685 0)
(3.24727e-07 -4.00791e-05 0)
(1.09266e-05 -0.000120387 0)
(2.84583e-05 -0.000166011 0)
(4.81602e-05 -0.000183197 0)
(6.71219e-05 -0.000184993 0)
(8.44584e-05 -0.000181759 0)
(0.000100509 -0.00018005 0)
(0.000116279 -0.00018339 0)
(0.000133083 -0.000193307 0)
(0.000152335 -0.000210191 0)
(0.000175432 -0.000233861 0)
(0.000203718 -0.00026391 0)
(0.000238473 -0.000299868 0)
(0.000280917 -0.000341278 0)
(0.000332206 -0.000387703 0)
(0.000393439 -0.00043871 0)
(0.000465652 -0.000493837 0)
(0.000549821 -0.000552551 0)
(0.00064685 -0.000614224 0)
(0.000757547 -0.000678097 0)
(0.00088259 -0.00074326 0)
(0.00102248 -0.000808623 0)
(0.00117752 -0.000872888 0)
(0.00134773 -0.00093453 0)
(0.00153282 -0.000991787 0)
(0.00173211 -0.00104266 0)
(0.00194448 -0.00108495 0)
(0.00216826 -0.00111623 0)
(0.00240121 -0.00113393 0)
(0.00264045 -0.00113539 0)
(0.00288239 -0.00111789 0)
(0.00312273 -0.00107883 0)
(0.00335645 -0.00101579 0)
(0.00357785 -0.00092672 0)
(0.00378061 -0.000810057 0)
(0.00395793 -0.000664911 0)
(0.0041027 -0.000491217 0)
(0.0042077 -0.000289891 0)
(0.00426587 -6.29376e-05 0)
(0.00427064 0.000186481 0)
(0.00421622 0.000453996 0)
(0.00409793 0.000734106 0)
(0.00391259 0.00102028 0)
(0.00365875 0.00130517 0)
(0.00333695 0.00158082 0)
(0.00294991 0.00183915 0)
(0.00250252 0.00207224 0)
(0.00200183 0.00227278 0)
(0.00145676 0.00243449 0)
(0.000877864 0.00255243 0)
(6.31606e-08 -4.46505e-05 0)
(8.67244e-06 -0.000133506 0)
(2.28275e-05 -0.000182873 0)
(3.82055e-05 -0.000200254 0)
(5.22224e-05 -0.000200616 0)
(6.41847e-05 -0.000195765 0)
(7.45645e-05 -0.000193162 0)
(8.44726e-05 -0.000196818 0)
(9.5318e-05 -0.000208466 0)
(0.0001086 -0.000228536 0)
(0.000125801 -0.000256809 0)
(0.000148345 -0.000292814 0)
(0.000177591 -0.000336018 0)
(0.000214844 -0.000385906 0)
(0.00026136 -0.000441991 0)
(0.000318356 -0.000503788 0)
(0.000387005 -0.000570777 0)
(0.000468438 -0.000642364 0)
(0.000563725 -0.000717842 0)
(0.00067386 -0.000796349 0)
(0.00079972 -0.000876834 0)
(0.000942032 -0.000958018 0)
(0.00110132 -0.00103836 0)
(0.00127783 -0.00111603 0)
(0.0014715 -0.00118892 0)
(0.00168184 -0.0012546 0)
(0.00190787 -0.00131034 0)
(0.00214805 -0.00135314 0)
(0.00240017 -0.00137977 0)
(0.00266128 -0.00138684 0)
(0.0029276 -0.00137088 0)
(0.0031945 -0.0013285 0)
(0.00345649 -0.00125652 0)
(0.00370721 -0.00115214 0)
(0.00393952 -0.00101318 0)
(0.00414562 -0.000838282 0)
(0.00431724 -0.000627105 0)
(0.00444589 -0.000380563 0)
(0.00452316 -0.000100961 0)
(0.00454113 0.000207902 0)
(0.00449269 0.00054066 0)
(0.00437197 0.000890425 0)
(0.00417482 0.00124894 0)
(0.0038991 0.00160679 0)
(0.00354507 0.0019538 0)
(0.00311562 0.00227948 0)
(0.00261629 0.00257354 0)
(0.00205523 0.00282645 0)
(0.00144295 0.00303 0)
(0.000791904 0.00317773 0)
(-2.10523e-07 -4.80337e-05 0)
(6.30613e-06 -0.000143802 0)
(1.69076e-05 -0.000195767 0)
(2.77254e-05 -0.000212547 0)
(3.65094e-05 -0.000210916 0)
(4.27534e-05 -0.000204057 0)
(4.70568e-05 -0.000200293 0)
(5.06335e-05 -0.000204097 0)
(5.49833e-05 -0.000217392 0)
(6.16875e-05 -0.000240638 0)
(7.23022e-05 -0.000273581 0)
(8.83226e-05 -0.00031569 0)
(0.000111185 -0.000366377 0)
(0.000142282 -0.000425078 0)
(0.000182976 -0.000491265 0)
(0.000234608 -0.000564416 0)
(0.000298499 -0.00064398 0)
(0.000375947 -0.000729326 0)
(0.00046822 -0.000819692 0)
(0.000576531 -0.000914131 0)
(0.000702012 -0.00101146 0)
(0.00084566 -0.00111023 0)
(0.00100829 -0.00120867 0)
(0.00119044 -0.00130467 0)
(0.00139234 -0.00139573 0)
(0.00161379 -0.00147896 0)
(0.00185407 -0.00155109 0)
(0.00211182 -0.00160845 0)
(0.00238494 -0.00164707 0)
(0.00267048 -0.00166271 0)
(0.00296453 -0.00165102 0)
(0.00326219 -0.00160766 0)
(0.00355744 -0.00152848 0)
(0.00384326 -0.00140976 0)
(0.00411156 -0.0012485 0)
(0.0043534 -0.00104269 0)
(0.00455917 -0.000791573 0)
(0.00471887 -0.000495921 0)
(0.00482247 -0.000158273 0)
(0.00486036 0.000216923 0)
(0.00482378 0.000623201 0)
(0.00470535 0.00105211 0)
(0.00449961 0.00149337 0)
(0.00420353 0.00193518 0)
(0.0038169 0.00236466 0)
(0.00334271 0.00276838 0)
(0.0027872 0.00313316 0)
(0.00215984 0.00344672 0)
(0.00147306 0.00369844 0)
(0.000741649 0.00388006 0)
(-5.0112e-07 -5.01666e-05 0)
(3.80128e-06 -0.000151121 0)
(1.06502e-05 -0.000204473 0)
(1.66459e-05 -0.000219804 0)
(1.98761e-05 -0.000215571 0)
(2.00189e-05 -0.000206257 0)
(1.77981e-05 -0.000201001 0)
(1.45273e-05 -0.000204711 0)
(1.17918e-05 -0.000219487 0)
(1.12444e-05 -0.000245816 0)
(1.45061e-05 -0.000283411 0)
(2.31395e-05 -0.000331686 0)
(3.86576e-05 -0.000390002 0)
(6.25457e-05 -0.000457754 0)
(9.62758e-05 -0.000534391 0)
(0.000141318 -0.000619383 0)
(0.000199149 -0.000712177 0)
(0.000271257 -0.000812138 0)
(0.000359137 -0.000918473 0)
(0.000464271 -0.00103018 0)
(0.000588088 -0.00114597 0)
(0.000731914 -0.00126425 0)
(0.000896911 -0.00138305 0)
(0.00108401 -0.00149997 0)
(0.00129382 -0.00161214 0)
(0.00152653 -0.00171619 0)
(0.00178177 -0.00180822 0)
(0.00205849 -0.00188386 0)
(0.0023548 -0.00193829 0)
(0.00266783 -0.00196633 0)
(0.00299363 -0.00196255 0)
(0.00332703 -0.00192143 0)
(0.00366157 -0.00183766 0)
(0.00398944 -0.00170636 0)
(0.00430154 -0.00152349 0)
(0.00458763 -0.00128611 0)
(0.00483652 -0.000992827 0)
(0.00503643 -0.000644121 0)
(0.00517533 -0.000242655 0)
(0.00524156 0.000206481 0)
(0.00522429 0.000695642 0)
(0.00511417 0.00121462 0)
(0.00490409 0.00175084 0)
(0.00458974 0.00228964 0)
(0.00417022 0.00281484 0)
(0.00364846 0.00330948 0)
(0.00303151 0.00375674 0)
(0.00233041 0.00414094 0)
(0.0015599 0.00444849 0)
(0.000737726 0.00466884 0)
(-8.14598e-07 -5.09648e-05 0)
(1.1227e-06 -0.000155277 0)
(3.98056e-06 -0.000208738 0)
(4.84503e-06 -0.000221717 0)
(2.15159e-06 -0.00021422 0)
(-4.23781e-06 -0.00020194 0)
(-1.34778e-05 -0.000194788 0)
(-2.41638e-05 -0.000198081 0)
(-3.46352e-05 -0.000214086 0)
(-4.31785e-05 -0.00024332 0)
(-4.81164e-05 -0.000285459 0)
(-4.78192e-05 -0.000339861 0)
(-4.06954e-05 -0.000405842 0)
(-2.51686e-05 -0.000482775 0)
(3.39816e-07 -0.000570112 0)
(3.74325e-05 -0.000667351 0)
(8.77541e-05 -0.000773971 0)
(0.000153009 -0.000889361 0)
(0.000234956 -0.00101273 0)
(0.000335382 -0.00114307 0)
(0.00045606 -0.00127903 0)
(0.000598703 -0.00141892 0)
(0.000764904 -0.0015606 0)
(0.000956068 -0.0017014 0)
(0.00117331 -0.00183806 0)
(0.00141731 -0.00196671 0)
(0.00168819 -0.00208284 0)
(0.00198529 -0.00218128 0)
(0.00230709 -0.00225628 0)
(0.00265094 -0.00230151 0)
(0.00301294 -0.00231029 0)
(0.00338774 -0.00227573 0)
(0.0037684 -0.00219106 0)
(0.00414635 -0.00204997 0)
(0.00451137 -0.00184702 0)
(0.00485174 -0.00157806 0)
(0.00515445 -0.00124077 0)
(0.00540558 -0.000835094 0)
(0.00559072 -0.000363686 0)
(0.00569562 0.000167803 0)
(0.00570692 0.000750492 0)
(0.00561276 0.00137224 0)
(0.00540382 0.0020178 0)
(0.00507405 0.00266912 0)
(0.00462146 0.00330603 0)
(0.00404881 0.0039072 0)
(0.00336396 0.00445129 0)
(0.00257985 0.00491836 0)
(0.0017141 0.00529108 0)
(0.000788131 0.005556 0)
(-1.15834e-06 -5.03285e-05 0)
(-1.76146e-06 -0.000156049 0)
(-3.16673e-06 -0.000208268 0)
(-7.78293e-06 -0.000217934 0)
(-1.68089e-05 -0.000206451 0)
(-3.01961e-05 -0.000190627 0)
(-4.69859e-05 -0.000181096 0)
(-6.56934e-05 -0.000183567 0)
(-8.4602e-05 -0.000200464 0)
(-0.000101947 -0.000232331 0)
(-0.000115995 -0.000278798 0)
(-0.000125054 -0.000339173 0)
(-0.000127462 -0.000412735 0)
(-0.00012156 -0.000498863 0)
(-0.000105667 -0.000597045 0)
(-7.80427e-05 -0.000706839 0)
(-3.6856e-05 -0.000827792 0)
(1.98356e-05 -0.000959358 0)
(9.40812e-05 -0.00110081 0)
(0.000188003 -0.00125117 0)
(0.000303768 -0.00140911 0)
(0.000443544 -0.00157288 0)
(0.000609448 -0.00174019 0)
(0.000803464 -0.00190815 0)
(0.00102731 -0.00207314 0)
(0.0012823 -0.0022308 0)
(0.00156916 -0.00237596 0)
(0.00188785 -0.0025026 0)
(0.00223732 -0.0026039 0)
(0.00261533 -0.00267225 0)
(0.00301816 -0.0026995 0)
(0.00344038 -0.00267713 0)
(0.00387468 -0.00259659 0)
(0.00431169 -0.00244974 0)
(0.00474002 -0.00222935 0)
(0.00514628 -0.00192969 0)
(0.00551536 -0.00154713 0)
(0.00583078 -0.00108077 0)
(0.0060753 -0.000532992 0)
(0.00623153 9.01248e-05 0)
(0.00628291 0.000778418 0)
(0.00621439 0.00151766 0)
(0.00601372 0.00228953 0)
(0.00567244 0.00307199 0)
(0.00518699 0.00384002 0)
(0.00455965 0.00456685 0)
(0.00379915 0.00522549 0)
(0.00292067 0.00579049 0)
(0.0019454 0.00623981 0)
(0.000899458 0.00655636 0)
(-1.53366e-06 -4.81756e-05 0)
(-4.86785e-06 -0.000153175 0)
(-1.08309e-05 -0.000202723 0)
(-2.12985e-05 -0.000208064 0)
(-3.70819e-05 -0.000191812 0)
(-5.79473e-05 -0.000171795 0)
(-8.28368e-05 -0.000159325 0)
(-0.000110202 -0.000160486 0)
(-0.000138283 -0.000177849 0)
(-0.00016527 -0.000211968 0)
(-0.000189383 -0.000262427 0)
(-0.00020888 -0.000328486 0)
(-0.000222042 -0.000409413 0)
(-0.000227141 -0.000504618 0)
(-0.000222399 -0.000613659 0)
(-0.000205931 -0.000736186 0)
(-0.000175709 -0.00087186 0)
(-0.00012954 -0.00102025 0)
(-6.50678e-05 -0.00118077 0)
(2.02e-05 -0.00135253 0)
(0.000128877 -0.0015343 0)
(0.000263662 -0.00172433 0)
(0.000427286 -0.00192025 0)
(0.000622405 -0.00211897 0)
(0.000851467 -0.00231659 0)
(0.00111656 -0.00250828 0)
(0.00141919 -0.00268818 0)
(0.00176012 -0.00284936 0)
(0.00213901 -0.00298381 0)
(0.00255421 -0.00308252 0)
(0.00300238 -0.00313562 0)
(0.00347821 -0.00313263 0)
(0.0039741 -0.00306285 0)
(0.00447998 -0.00291585 0)
(0.00498322 -0.00268215 0)
(0.0054686 -0.00235391 0)
(0.00591858 -0.00192572 0)
(0.00631376 -0.00139539 0)
(0.00663346 -0.000764693 0)
(0.00685646 -3.99073e-05 0)
(0.00696224 0.00076761 0)
(0.00693171 0.00164138 0)
(0.00674874 0.00255964 0)
(0.00640154 0.00349566 0)
(0.00588421 0.00441852 0)
(0.0051981 0.00529464 0)
(0.00435273 0.00608977 0)
(0.00336604 0.00677143 0)
(0.00226373 0.00731148 0)
(0.00107788 0.0076882 0)
(-1.89174e-06 -4.43558e-05 0)
(-8.1522e-06 -0.000146414 0)
(-1.9028e-05 -0.000191771 0)
(-3.57152e-05 -0.000191701 0)
(-5.86685e-05 -0.000169833 0)
(-8.74866e-05 -0.000144908 0)
(-0.000121026 -0.000128868 0)
(-0.00015769 -0.000128145 0)
(-0.000195683 -0.00014544 0)
(-0.000233167 -0.000181307 0)
(-0.000268329 -0.000235283 0)
(-0.000299398 -0.000306595 0)
(-0.000324619 -0.00039452 0)
(-0.00034221 -0.000498524 0)
(-0.000350297 -0.000618265 0)
(-0.000346854 -0.000753528 0)
(-0.000329657 -0.00090414 0)
(-0.000296261 -0.00106987 0)
(-0.000243995 -0.00125032 0)
(-0.000169963 -0.00144482 0)
(-7.10465e-05 -0.00165225 0)
(5.6054e-05 -0.00187095 0)
(0.000214758 -0.0020986 0)
(0.000408498 -0.00233198 0)
(0.000640579 -0.00256697 0)
(0.000914032 -0.00279828 0)
(0.00123137 -0.0030194 0)
(0.00159435 -0.00322243 0)
(0.00200361 -0.00339814 0)
(0.00245835 -0.00353591 0)
(0.00295589 -0.00362391 0)
(0.0034913 -0.00364936 0)
(0.00405693 -0.00359894 0)
(0.00464213 -0.00345944 0)
(0.00523299 -0.00321849 0)
(0.00581237 -0.00286551 0)
(0.00636002 -0.00239267 0)
(0.00685311 -0.00179591 0)
(0.0072669 -0.0010759 0)
(0.00757563 -0.000238805 0)
(0.00775379 0.000703083 0)
(0.00777718 0.00173098 0)
(0.00762456 0.00281938 0)
(0.00727952 0.00393605 0)
(0.00673266 0.00504286 0)
(0.00598366 0.00609758 0)
(0.00504271 0.00705668 0)
(0.00393104 0.0078785 0)
(0.00268013 0.00852688 0)
(0.00132976 0.00897409 0)
(-2.2884e-06 -3.8728e-05 0)
(-1.1653e-05 -0.000135522 0)
(-2.77101e-05 -0.000175087 0)
(-5.09668e-05 -0.000168454 0)
(-8.14848e-05 -0.000140063 0)
(-0.000118708 -0.000109453 0)
(-0.000161425 -8.91358e-05 0)
(-0.000208004 -8.58584e-05 0)
(-0.000256631 -0.000102435 0)
(-0.000305456 -0.000139409 0)
(-0.000352663 -0.000196278 0)
(-0.000396478 -0.000272247 0)
(-0.000435133 -0.000366619 0)
(-0.000466805 -0.00047894 0)
(-0.000489539 -0.000609002 0)
(-0.000501182 -0.000756778 0)
(-0.000499332 -0.000922332 0)
(-0.000481298 -0.0011057 0)
(-0.000444079 -0.00130678 0)
(-0.000384344 -0.00152515 0)
(-0.000298439 -0.00175995 0)
(-0.000182428 -0.00200974 0)
(-3.21104e-05 -0.00227229 0)
(0.000156834 -0.00254442 0)
(0.000388705 -0.00282184 0)
(0.000667663 -0.00309891 0)
(0.000997438 -0.00336846 0)
(0.00138103 -0.00362169 0)
(0.00182038 -0.00384806 0)
(0.00231588 -0.0040352 0)
(0.00286591 -0.00416908 0)
(0.00346626 -0.00423422 0)
(0.00410958 -0.00421423 0)
(0.00478486 -0.00409244 0)
(0.00547706 -0.00385286 0)
(0.006167 -0.00348132 0)
(0.00683148 -0.00296676 0)
(0.00744371 -0.00230248 0)
(0.00797421 -0.00148742 0)
(0.00839183 -0.000527055 0)
(0.00866498 0.000565733 0)
(0.00876305 0.00177009 0)
(0.00865798 0.00305659 0)
(0.00832687 0.0043867 0)
(0.00775511 0.00571341 0)
(0.00693954 0.00698352 0)
(0.00589067 0.00814129 0)
(0.00463369 0.00913298 0)
(0.00320751 0.00991174 0)
(0.00166207 0.010442 0)
(-2.71547e-06 -3.12272e-05 0)
(-1.53415e-05 -0.000120245 0)
(-3.68163e-05 -0.000152354 0)
(-6.69418e-05 -0.000137964 0)
(-0.000105374 -0.000102099 0)
(-0.000151408 -6.49672e-05 0)
(-0.000203777 -3.95858e-05 0)
(-0.000260835 -3.29802e-05 0)
(-0.000320769 -4.80581e-05 0)
(-0.000381749 -8.53522e-05 0)
(-0.000441988 -0.00014432 0)
(-0.000499741 -0.000224154 0)
(-0.000553249 -0.000324197 0)
(-0.000600671 -0.0004441 0)
(-0.000640001 -0.000583832 0)
(-0.000668992 -0.000743619 0)
(-0.000685085 -0.000923831 0)
(-0.000685355 -0.00112486 0)
(-0.000666466 -0.00134695 0)
(-0.000624645 -0.00159007 0)
(-0.000555684 -0.00185375 0)
(-0.000454955 -0.00213686 0)
(-0.000317445 -0.00243743 0)
(-0.000137848 -0.00275245 0)
(8.93075e-05 -0.00307756 0)
(0.000369491 -0.00340691 0)
(0.000707863 -0.00373279 0)
(0.00110898 -0.00404556 0)
(0.00157643 -0.00433332 0)
(0.00211228 -0.00458188 0)
(0.00271643 -0.00477478 0)
(0.00338591 -0.00489352 0)
(0.00411415 -0.00491801 0)
(0.0048902 -0.00482738 0)
(0.00569816 -0.00460108 0)
(0.00651681 -0.00422031 0)
(0.00731973 -0.00366972 0)
(0.00807573 -0.00293901 0)
(0.00874984 -0.00202447 0)
(0.00930459 -0.000930177 0)
(0.00970123 0.000331101 0)
(0.00990108 0.00173696 0)
(0.00986707 0.00325434 0)
(0.00956708 0.00483763 0)
(0.00897867 0.00642898 0)
(0.0080939 0.00796101 0)
(0.00692301 0.0093617 0)
(0.00549594 0.0105611 0)
(0.0038613 0.0114982 0)
(0.00208256 0.0121268 0)
(-3.16056e-06 -2.17758e-05 0)
(-1.91684e-05 -0.000100401 0)
(-4.62511e-05 -0.000123321 0)
(-8.34819e-05 -9.99416e-05 0)
(-0.000130107 -5.56091e-05 0)
(-0.000185279 -1.10614e-05 0)
(-0.000247694 2.02566e-05 0)
(-0.00031571 3.10758e-05 0)
(-0.000387553 1.84104e-05 0)
(-0.000461446 -1.82544e-05 0)
(-0.000535668 -7.83351e-05 0)
(-0.000608532 -0.000161012 0)
(-0.000678323 -0.000265681 0)
(-0.000743223 -0.00039213 0)
(-0.000801219 -0.000540561 0)
(-0.000850008 -0.000711507 0)
(-0.000886905 -0.000905719 0)
(-0.00090877 -0.00112401 0)
(-0.000911954 -0.00136711 0)
(-0.000892261 -0.0016355 0)
(-0.000844924 -0.00192919 0)
(-0.0007646 -0.00224755 0)
(-0.000645388 -0.00258903 0)
(-0.000480913 -0.00295091 0)
(-0.000264476 -0.003329 0)
(1.0917e-05 -0.00371738 0)
(0.000352133 -0.00410802 0)
(0.000765583 -0.00449049 0)
(0.00125695 -0.00485168 0)
(0.00183047 -0.00517554 0)
(0.00248819 -0.00544306 0)
(0.00322909 -0.00563232 0)
(0.00404806 -0.00571893 0)
(0.00493486 -0.00567692 0)
(0.00587318 -0.00548002 0)
(0.00683995 -0.00510352 0)
(0.00780533 -0.00452638 0)
(0.00873324 -0.00373344 0)
(0.00958254 -0.00271728 0)
(0.0103086 -0.00147961 0)
(0.0108643 -3.20611e-05 0)
(0.0112014 0.00160265 0)
(0.0112707 0.00338892 0)
(0.011027 0.00527367 0)
(0.0104357 0.00718559 0)
(0.00948113 0.00903884 0)
(0.0081721 0.0107395 0)
(0.00654449 0.0121954 0)
(0.00465974 0.0133264 0)
(0.00259942 0.0140723 0)
(-3.61247e-06 -1.03213e-05 0)
(-2.30742e-05 -7.586e-05 0)
(-5.58898e-05 -8.78173e-05 0)
(-0.000100379 -5.41834e-05 0)
(-0.000155379 -3.52664e-07 0)
(-0.000219908 5.25672e-05 0)
(-0.000292647 9.07791e-05 0)
(-0.000371993 0.000106808 0)
(-0.000456245 9.76085e-05 0)
(-0.000543722 6.26978e-05 0)
(-0.000632799 2.71133e-06 0)
(-0.000721888 -8.15205e-05 0)
(-0.00080937 -0.000189465 0)
(-0.000893508 -0.000321086 0)
(-0.00097233 -0.000476861 0)
(-0.00104352 -0.00065769 0)
(-0.00110432 -0.000864771 0)
(-0.0011514 -0.00109944 0)
(-0.00118087 -0.00136303 0)
(-0.00118813 -0.00165664 0)
(-0.00116787 -0.00198097 0)
(-0.00111402 -0.00233601 0)
(-0.00101977 -0.00272081 0)
(-0.000877615 -0.00313317 0)
(-0.000679486 -0.00356931 0)
(-0.000416818 -0.00402345 0)
(-8.08035e-05 -0.00448751 0)
(0.000337276 -0.00495053 0)
(0.000845607 -0.00539837 0)
(0.00145117 -0.00581326 0)
(0.00215893 -0.00617357 0)
(0.0029707 -0.00645367 0)
(0.00388384 -0.00662425 0)
(0.00488974 -0.00665318 0)
(0.00597238 -0.00650711 0)
(0.00710724 -0.0061537 0)
(0.00826101 -0.00556448 0)
(0.00939228 -0.00471785 0)
(0.010453 -0.00360147 0)
(0.0113908 -0.00221366 0)
(0.0121498 -0.000563503 0)
(0.0126703 0.0013286 0)
(0.0128874 0.00342699 0)
(0.0127362 0.0056717 0)
(0.0121641 0.0079746 0)
(0.0111427 0.0102255 0)
(0.00967737 0.0123004 0)
(0.00781142 0.0140765 0)
(0.00562372 0.015447 0)
(0.00322038 0.0163336 0)
(-4.06219e-06 3.15569e-06 0)
(-2.69934e-05 -4.65606e-05 0)
(-6.55821e-05 -4.5757e-05 0)
(-0.000117377 -5.84767e-07 0)
(-0.000180806 6.38094e-05 0)
(-0.000254774 0.00012611 0)
(-0.000337973 0.000172252 0)
(-0.000428883 0.000194595 0)
(-0.000525911 0.000190061 0)
(-0.000627507 0.000158221 0)
(-0.000732187 9.9778e-05 0)
(-0.000838519 1.5569e-05 0)
(-0.000945041 -9.39672e-05 0)
(-0.00105016 -0.000228999 0)
(-0.001152 -0.000390315 0)
(-0.0012483 -0.000579238 0)
(-0.00133628 -0.00079749 0)
(-0.00141252 -0.00104704 0)
(-0.00147291 -0.00132994 0)
(-0.00151252 -0.00164806 0)
(-0.00152553 -0.00200292 0)
(-0.00150516 -0.00239533 0)
(-0.00144371 -0.00282516 0)
(-0.00133253 -0.003291 0)
(-0.00116212 -0.00378971 0)
(-0.000922172 -0.00431603 0)
(-0.000601766 -0.00486208 0)
(-0.000189661 -0.00541683 0)
(0.000325352 -0.00596545 0)
(0.000953679 -0.00648876 0)
(0.00170404 -0.00696262 0)
(0.00258224 -0.00735754 0)
(0.00358935 -0.00763868 0)
(0.00471968 -0.00776665 0)
(0.00595864 -0.00769925 0)
(0.00728096 -0.00739438 0)
(0.00864998 -0.00681393 0)
(0.0100185 -0.00592795 0)
(0.0113309 -0.00471794 0)
(0.0125268 -0.00317804 0)
(0.0135423 -0.00131323 0)
(0.014306 0.000863147 0)
(0.0147322 0.00332131 0)
(0.0147264 0.00599675 0)
(0.0142076 0.00878 0)
(0.013128 0.011528 0)
(0.0114858 0.0140751 0)
(0.00933406 0.0162548 0)
(0.00677588 0.0179242 0)
(0.00395099 0.0189801 0)
(-4.50081e-06 1.86374e-05 0)
(-3.08519e-05 -1.25185e-05 0)
(-7.51499e-05 2.84338e-06 0)
(-0.000134162 6.08439e-05 0)
(-0.000205926 0.000136886 0)
(-0.000289251 0.000209618 0)
(-0.000382884 0.000264795 0)
(-0.000485417 0.00029466 0)
(-0.000595407 0.000296142 0)
(-0.000711475 0.000268894 0)
(-0.000832339 0.000213697 0)
(-0.000956786 0.000131393 0)
(-0.00108358 2.23169e-05 0)
(-0.00121134 -0.000113925 0)
(-0.00133837 -0.000278466 0)
(-0.00146251 -0.000473104 0)
(-0.00158106 -0.000700175 0)
(-0.00169061 -0.000962386 0)
(-0.00178692 -0.00126261 0)
(-0.00186477 -0.00160366 0)
(-0.0019179 -0.00198802 0)
(-0.00193891 -0.00241755 0)
(-0.00191921 -0.00289319 0)
(-0.00184906 -0.00341455 0)
(-0.00171747 -0.0039795 0)
(-0.00151233 -0.00458363 0)
(-0.00122048 -0.00521978 0)
(-0.000827937 -0.0058773 0)
(-0.000320167 -0.00654127 0)
(0.000317337 -0.00719163 0)
(0.00109806 -0.00780212 0)
(0.00203301 -0.00833946 0)
(0.00312862 -0.00876286 0)
(0.0043839 -0.00902446 0)
(0.00578733 -0.00907116 0)
(0.00731403 -0.00884837 0)
(0.00892427 -0.00830548 0)
(0.0105645 -0.00740188 0)
(0.0121709 -0.00611186 0)
(0.0136756 -0.00442568 0)
(0.0150098 -0.00234333 0)
(0.0160932 0.000137151 0)
(0.0168129 0.00300489 0)
(0.0170283 0.00619681 0)
(0.0166146 0.00957467 0)
(0.0154936 0.0129511 0)
(0.0136514 0.0161005 0)
(0.011154 0.0187945 0)