/*--------------------------------*- C++ -*----------------------------------*\
| =========                 |                                                 |
| \\      /  F ield         | OpenFOAM: The Open Source CFD Toolbox           |
|  \\    /   O peration     | Version:  2.4.0                                 |
|   \\  /    A nd           | Web:      www.OpenFOAM.org                      |
|    \\/     M anipulation  |                                                 |
\*---------------------------------------------------------------------------*/
FoamFile
{
    version     2.0;
    format      ascii;
    class       volScalarField;
    location    "0.017";
    object      alpha.water;
}
// * * * * * * * * * * * * * * * * * * * * * * * * * * * * * * * * * * * * * //

dimensions      [0 0 0 0 0 0 0];

internalField   nonuniform List<scalar> 
57600
(
1
1
1
1
1
1
1
1
1
1
1
1
1
1
1
1
1
1
1
1
1
1
1
1
1
1
1
1
1
1
1
1
1
1
1
1
1
1
1
1
1
1
1
1
1
1
1
1
1
1
1
1
1
1
1
1
1
1
1
1
1
1
1
1
1
1
1
1
1
1
1
1
1
1
1
1
1
1
1
1
1
1
1
1
1
1
1
1
1
1
1
1
1
1
1
1
1
1
1
1
1
1
1
1
1
1
1
1
1
1
1
1
1
1
1
1
1
1
1
1
1
1
1
1
1
1
1
1
1
1
1
1
1
1
1
1
1
1
1
1
1
1
1
1
1
1
1
1
1
1
1
1
1
1
1
1
1
1
1
1
1
1
1
1
1
1
1
1
1
1
1
1
1
1
1
1
1
1
1
1
1
1
1
1
1
1
1
1
1
1
1
1
1
1
1
1
1
1
1
1
1
1
1
1
1
1
1
1
1
1
1
1
1
1
1
1
1
1
1
1
1
1
1
1
1
1
1
1
1
1
1
1
1
1
1
1
1
1
1
1
1
1
1
1
1
1
1
1
1
1
1
1
1
1
1
1
1
1
1
1
1
1
1
1
1
1
1
1
1
1
1
1
1
1
1
1
1
1
1
1
1
1
1
1
1
1
1
1
1
1
1
1
1
1
1
1
1
1
1
1
1
1
1
1
1
1
1
1
1
1
1
1
1
1
1
1
1
1
1
1
1
1
1
1
1
1
1
1
1
1
1
1
1
1
1
1
1
1
1
1
1
1
1
1
1
1
1
1
1
1
1
1
1
1
1
1
1
1
1
1
1
1
1
1
1
1
1
1
1
1
1
1
1
1
1
1
1
1
1
1
1
1
1
1
1
1
1
1
1
1
1
1
1
1
1
1
1
1
1
1
1
1
1
1
1
1
1
1
1
1
1
1
1
1
1
1
1
1
0.997113
0.996195
1
1
1
1
1
1
1
1
1
1
1
1
1
1
1
1
1
1
1
1
1
1
1
1
1
1
0.999999
1
0.98667
0.999795
1
1
1
1
1
1
1
1
1
1
1
1
1
1
1
1
1
1
1
1
1
1
1
1
0.999994
0.999949
0.999744
0.99853
0.980996
0.957465
1
1
1
1
1
1
1
1
1
1
1
1
1
1
1
1
1
1
1
1
1
0.999999
0.999463
0.511856
9.01427e-11
1.86484e-10
2.62069e-07
5.58648e-07
-3.25471e-07
2.62171e-10
1
1
1
1
1
1
1
1
1
1
1
1
1
1
1
1
1
1
1
1
1
0.578607
1.12836e-07
4.62498e-06
4.82785e-08
1.19528e-07
5.17028e-07
2.4373e-08
4.95047e-07
4.12552e-07
1
1
1
1
1
1
1
1
1
1
1
1
1
1
1
1
1
1
1
1
0.999657
1.38188e-05
8.817e-09
1.84975e-05
1.5514e-05
4.00402e-06
1.01421e-09
1.09515e-09
1.39113e-07
1.87901e-09
1
1
1
1
1
1
1
1
1
1
1
1
1
1
1
1
1
1
1
1
0.00539141
1.84618e-05
2.49678e-07
4.38667e-09
3.45917e-08
4.47761e-08
1.41763e-09
1.32121e-09
3.43481e-10
1.36268e-09
1
1
1
1
1
1
1
1
1
1
1
1
1
1
1
1
1
1
1
0.980746
1.11061e-06
1.46056e-06
5.92417e-06
1.18322e-08
2.90464e-11
4.90993e-11
4.23919e-10
1.23511e-09
3.5878e-10
7.17432e-11
1
1
1
1
1
1
1
1
1
1
1
1
1
1
1
1
1
1
0.999999
0.000811531
6.6176e-09
4.36205e-06
5.40189e-11
4.64954e-11
1.98158e-11
5.47261e-11
2.51666e-10
7.085e-10
1.62175e-10
-2.1496e-11
1
1
1
1
1
1
1
1
1
1
1
1
1
1
1
1
1
1
0.975676
2.13271e-07
5.58939e-09
8.30638e-11
1.86477e-11
5.50832e-12
8.18986e-12
3.09318e-11
1.19849e-10
2.29425e-10
5.65557e-11
-1.92335e-11
1
1
1
1
1
1
1
1
1
1
1
1
1
1
1
1
1
1
0.0351914
5.11763e-10
1.88047e-10
2.95845e-11
4.14299e-12
9.85158e-13
2.6067e-12
1.0858e-11
3.46242e-11
4.49104e-11
1.39001e-11
-7.51355e-12
1
1
1
1
1
1
1
1
1
1
1
1
1
1
1
1
1
0.999994
3.53977e-05
8.4053e-09
1.46757e-10
1.61225e-11
1.45102e-12
1.72366e-13
5.56657e-13
2.33391e-12
6.27455e-12
6.46338e-12
2.26147e-12
-1.873e-12
1
1
1
1
1
1
1
1
1
1
1
1
1
1
1
1
1
0.997802
5.89227e-05
3.45597e-08
7.58468e-11
8.29348e-12
5.54261e-13
2.96071e-14
7.34952e-14
3.17305e-13
7.83386e-13
7.39205e-13
2.36422e-13
-3.2237e-13
1
1
1
1
1
1
1
1
1
1
1
1
1
1
1
1
1
0.748565
4.74165e-06
1.17861e-10
4.51965e-11
3.79542e-12
1.81513e-13
5.64532e-15
6.02508e-15
2.8351e-14
7.11655e-14
6.51333e-14
1.47047e-14
-3.91868e-14
1
1
1
1
1
1
1
1
1
1
1
1
1
1
1
1
1
0.176835
6.54812e-08
2.09106e-10
3.44345e-11
2.02231e-12
5.74305e-14
1.18721e-15
3.15688e-16
1.66594e-15
4.5851e-15
4.21939e-15
4.06994e-16
-3.35877e-15
1
1
1
1
1
1
1
1
1
1
1
1
1
1
1
1
1
1.11919e-07
6.71698e-10
2.26527e-10
2.79099e-11
1.32896e-12
2.35357e-14
2.76899e-16
1.18106e-17
6.11312e-17
1.91964e-16
1.8598e-16
-1.01767e-17
-1.99254e-16
1
1
1
1
1
1
1
1
1
1
1
1
1
1
1
1
0.999999
7.10179e-07
6.65276e-06
2.78794e-10
2.49599e-11
1.00888e-12
1.38054e-14
9.88301e-17
6.8589e-19
1.26564e-18
4.65076e-18
4.959e-18
-1.34625e-18
-7.90876e-18
1
1
1
1
1
1
1
1
1
1
1
1
1
1
1
1
1
1
1
1
1
1
1
1
1
1
1
1
1
1
1
1
1
1
1
1
1
1
1
1
1
1
1
1
1
1
1
1
1
1
1
1
1
1
1
1
1
1
1
1
1
1
1
1
1
1
1
1
1
1
1
1
1
1
1
1
1
1
1
1
1
1
1
1
1
1
1
1
1
1
1
1
1
1
1
1
1
1
1
1
1
1
1
1
1
1
1
1
1
1
1
1
1
1
1
1
1
1
1
1
1
1
1
1
1
1
1
1
1
1
1
1
1
1
1
1
1
1
1
1
1
1
1
1
1
1
1
1
1
1
1
1
1
1
1
1
1
1
1
1
1
1
1
1
1
1
1
1
1
1
1
1
1
1
1
1
1
1
1
1
1
1
1
1
1
1
1
1
1
1
1
1
1
1
1
1
1
1
1
1
1
1
1
1
1
1
1
1
1
1
1
1
1
1
1
1
1
1
1
1
1
1
1
1
1
1
1
1
1
1
1
1
1
1
1
1
1
1
1
1
1
1
1
1
1
1
1
1
1
1
1
1
1
1
1
1
1
1
1
1
1
1
1
1
1
1
1
1
1
1
1
1
1
1
1
1
1
1
1
1
1
1
1
1
1
1
1
1
1
1
1
1
1
1
1
1
1
1
1
1
1
1
1
1
1
1
1
1
1
1
1
1
1
1
1
1
1
1
1
1
1
1
1
1
1
1
1
1
1
1
1
1
1
1
1
1
1
1
1
1
1
1
1
1
1
1
1
1
1
1
1
1
1
1
1
1
1
1
1
1
1
1
1
1
1
1
1
1
1
1
1
1
1
1
1
1
1
1
1
1
1
1
1
1
1
1
1
1
1
1
0.996597
0.999999
1
1
1
1
1
1
1
1
1
1
1
1
1
1
1
1
1
1
1
1
1
1
1
1
1
1
1
1
0.998683
0.979562
1
1
1
1
1
1
1
1
1
1
1
1
1
1
1
1
1
1
1
1
1
1
1
1
1
1
1
1
0.950583
0.969387
0.994246
0.999651
0.999914
0.999986
0.999999
1
1
1
1
1
1
1
1
1
1
1
1
1
1
1
1
1
1
1
1
1
1
1
1.94867e-05
2.86012e-08
5.04938e-08
7.45304e-09
1.76997e-07
2.14831e-07
0.230669
0.998832
0.999994
1
1
1
1
1
1
1
1
1
1
1
1
1
1
1
1
1
1
1
1
1
-6.08598e-09
1.82224e-08
1.98932e-08
1.46693e-05
5.55928e-08
1.91591e-08
1.789e-08
2.44428e-07
0.0343067
0.999997
1
1
1
1
1
1
1
1
1
1
1
1
1
1
1
1
1
1
1
1
-1.97051e-09
1.51505e-07
3.34859e-09
1.55188e-09
1.40761e-05
7.27829e-06
1.90707e-05
9.37927e-08
1.34344e-05
0.635664
1
1
1
1
1
1
1
1
1
1
1
1
1
1
1
1
1
1
1
1
-2.82097e-10
1.04313e-10
5.5988e-09
1.14583e-09
4.05546e-08
5.45447e-09
4.19046e-09
5.2832e-06
3.7433e-05
9.81343e-06
0.999994
1
1
1
1
1
1
1
1
1
1
1
1
1
1
1
1
1
1
1
-5.66531e-11
1.07788e-10
1.39494e-09
5.44171e-10
8.23497e-11
3.03537e-11
3.13131e-10
9.30896e-07
3.6813e-08
4.80024e-07
0.393468
1
1
1
1
1
1
1
1
1
1
1
1
1
1
1
1
1
1
1
-4.1622e-11
6.12934e-11
6.65734e-10
3.49457e-10
8.27258e-11
2.56884e-11
2.71372e-11
6.7509e-11
4.34087e-06
9.16514e-09
1.88108e-05
0.999975
1
1
1
1
1
1
1
1
1
1
1
1
1
1
1
1
1
1
-2.38628e-11
2.13058e-11
1.65936e-10
1.43691e-10
4.40578e-11
1.1897e-11
5.95153e-12
1.54264e-11
5.42288e-11
1.51197e-08
3.88948e-05
0.0690364
1
1
1
1
1
1
1
1
1
1
1
1
1
1
1
1
1
1
-8.41345e-12
4.68136e-12
3.01894e-11
3.40444e-11
1.39096e-11
3.79994e-12
1.20957e-12
3.87753e-12
3.17747e-11
9.84684e-10
7.4876e-06
1.1258e-05
0.999995
1
1
1
1
1
1
1
1
1
1
1
1
1
1
1
1
1
-2.00678e-12
6.51688e-13
4.38083e-12
5.30147e-12
2.66918e-12
7.53906e-13
2.14049e-13
1.61299e-12
1.9638e-11
2.52412e-09
6.47812e-08
2.52106e-05
0.996571
1
1
1
1
1
1
1
1
1
1
1
1
1
1
1
1
1
-3.39646e-13
5.16883e-14
5.18565e-13
6.38329e-13
3.36159e-13
9.11009e-14
3.22177e-14
6.15224e-13
9.58546e-12
8.86575e-11
1.38641e-07
0.000226065
0.66031
1
1
1
1
1
1
1
1
1
1
1
1
1
1
1
1
1
-4.1272e-14
9.30671e-16
4.63592e-14
6.03676e-14
2.92029e-14
6.92302e-15
5.42812e-15
1.80525e-13
3.33645e-12
5.37407e-11
2.48901e-10
1.37736e-08
0.00275736
1
1
1
1
1
1
1
1
1
1
1
1
1
1
1
1
1
-3.57364e-15
-2.49046e-16
3.06766e-15
4.12615e-15
1.71294e-15
3.39995e-16
1.06575e-15
4.71164e-14
1.4537e-12
2.60635e-11
1.60468e-10
5.35401e-07
1.96964e-07
0.999999
1
1
1
1
1
1
1
1
1
1
1
1
1
1
1
1
-2.15489e-16
-2.79605e-17
1.4305e-16
1.83094e-16
6.3082e-17
1.18039e-17
2.24306e-16
1.6098e-14
8.67542e-13
1.92372e-11
1.41976e-10
2.65783e-10
1.8184e-06
0.999994
1
1
1
1
1
1
1
1
1
1
1
1
1
1
1
1
-8.70464e-18
-1.453e-18
4.20393e-18
4.72709e-18
1.31513e-18
5.94243e-19
6.96653e-17
8.82147e-15
6.13929e-13
1.60542e-11
1.34495e-10
2.48214e-10
1.85685e-06
0.99994
1
1
1
1
1
1
1
1
1
1
1
1
1
1
1
1
9.05728e-10
1.47552e-07
0.00832044
0.113389
0.55199
1
1
1
1
1
1
1
1
1
1
1
0.999998
8.68474e-05
7.00168e-05
2.96595e-10
2.55344e-11
9.00698e-13
1.03552e-14
6.17249e-17
2.14752e-19
2.77081e-20
1.17854e-19
1.40201e-19
-8.60918e-20
-3.59488e-19
5.14555e-15
3.15986e-11
1.1562e-10
7.32426e-10
8.533e-10
5.88604e-09
1.35489e-05
0.850161
1
1
1
1
1
1
1
1
0.999992
4.73457e-05
1.60329e-07
3.18664e-10
2.61328e-11
8.75086e-13
9.15569e-15
5.1819e-17
1.56985e-19
4.51836e-21
1.94595e-20
2.4032e-20
-1.93493e-20
-7.52919e-20
5.60297e-22
1.51248e-16
4.38317e-15
4.16256e-13
1.80572e-11
1.59227e-10
1.58474e-09
7.92221e-09
0.005953
1
1
1
1
1
1
1
0.999978
7.7688e-06
2.56516e-05
4.81823e-10
2.60112e-11
8.41694e-13
8.15324e-15
4.4137e-17
1.23324e-19
6.95284e-22
2.55602e-21
3.28013e-21
-3.54403e-21
-1.30041e-20
2.40658e-30
5.60597e-23
3.71244e-20
2.77746e-17
1.03945e-14
8.22761e-13
3.79727e-11
3.58402e-10
1.26499e-09
2.83297e-05
1
1
1
1
1
1
0.999941
5.68701e-06
6.82458e-06
1.12213e-09
2.49111e-11
7.81092e-13
7.2515e-15
3.78032e-17
1.0069e-19
1.70788e-22
2.58484e-22
3.44419e-22
-5.14916e-22
-1.80333e-21
6.25468e-39
6.66315e-30
8.91967e-26
5.66491e-22
1.68674e-18
1.0886e-15
2.73439e-13
1.38917e-11
2.94654e-10
1.33203e-09
0.000494972
1
1
1
1
1
0.999886
1.53407e-05
0.00021519
2.35266e-08
2.34533e-11
6.91335e-13
6.36951e-15
3.23407e-17
8.32666e-20
9.59476e-23
1.91603e-23
2.63717e-23
-5.69274e-23
-1.92733e-22
9.72426e-47
4.74584e-37
1.05967e-31
6.27223e-27
1.37268e-22
6.38486e-19
8.5594e-16
2.39451e-13
1.91147e-11
3.12749e-10
0.000384629
0.0345879
1
1
1
1
0.999064
1.43213e-05
0.000257372
-5.00918e-08
2.32768e-11
6.04903e-13
5.48869e-15
2.7466e-17
6.85466e-20
7.27374e-23
1.00901e-24
1.38411e-24
-4.57634e-24
-1.51895e-23
2.24371e-54
3.51467e-44
9.81095e-38
5.43933e-32
8.1476e-27
2.50859e-22
1.78253e-18
2.67893e-15
1.15892e-12
2.562e-10
1.15116e-07
4.01241e-06
0.90616
1
1
1
0.967485
7.69129e-07
0.000702692
2.96532e-12
2.67752e-11
5.92226e-13
4.69855e-15
2.29915e-17
5.54905e-20
5.65451e-23
5.43228e-26
4.56096e-26
-2.52047e-25
-8.3316e-25
1.28966e-61
4.73389e-51
1.14472e-43
5.33701e-37
5.00841e-31
9.29032e-26
3.70824e-21
7.34436e-17
8.93767e-13
3.78351e-10
6.44766e-05
1.05458e-06
4.62548e-05
1
1
1
0.843657
8.54657e-07
1.15192e-06
-5.08131e-09
3.65636e-11
7.36603e-13
4.21911e-15
1.88989e-17
4.38454e-20
4.29642e-23
1.67275e-26
8.20657e-28
-8.75485e-27
-2.93451e-26
2.79922e-68
1.81998e-57
2.99411e-49
9.07694e-42
4.98273e-35
9.54721e-29
1.69325e-22
6.6194e-17
1.99707e-12
3.87781e-10
2.35266e-05
1.52656e-05
2.21089e-07
0.958403
1
1
0.68408
8.74436e-07
8.33144e-06
1.86605e-10
5.12183e-11
1.05552e-12
4.32166e-15
1.54478e-17
3.38485e-20
3.18382e-23
1.1524e-26
7.39072e-30
-1.70969e-28
-5.93463e-28
5.06478e-73
1.05164e-62
1.90641e-53
8.32913e-45
7.15874e-37
1.21525e-29
4.23187e-23
2.47769e-17
1.49872e-12
1.2903e-08
2.30116e-05
0.000327056
1.46419e-06
0.0727203
1
1
0.37877
8.35246e-05
4.91326e-08
1.00983e-06
5.89829e-11
1.37502e-12
5.00288e-15
1.30236e-17
2.58376e-20
2.33834e-23
8.20839e-27
9.4766e-31
-1.58898e-30
-5.85701e-30
8.60671e-74
1.58809e-63
4.63123e-54
2.55224e-45
2.29023e-37
3.23572e-30
7.95897e-24
3.98096e-18
3.10049e-13
1.90497e-10
5.52995e-07
0.000527315
2.14219e-09
0.000126121
0.999999
0.999999
0.0733374
1.34737e-05
7.18575e-10
1.12215e-08
4.86195e-11
1.36165e-12
5.53254e-15
1.15054e-17
1.96546e-20
1.715e-23
5.93575e-27
6.8371e-31
-5.30704e-33
-2.14883e-32
7.89298e-75
2.09548e-64
7.18923e-55
4.69376e-46
4.97059e-38
7.82077e-31
1.72996e-24
5.56613e-19
3.03201e-14
1.44686e-10
0.000106418
0.000269909
1.46609e-09
2.55853e-05
0.998652
0.999998
2.42863e-05
8.94995e-05
1.66564e-07
1.01437e-10
2.72116e-11
9.22095e-13
4.81694e-15
9.80095e-18
1.44217e-20
1.20102e-23
4.16111e-27
4.91449e-31
1.04593e-35
-1.7241e-35
3.49779e-76
1.32646e-65
5.36002e-56
4.18495e-47
5.43032e-39
1.07003e-31
2.92105e-25
9.67924e-20
3.52932e-15
1.33168e-11
7.57746e-10
6.92777e-05
1.7883e-07
4.46046e-10
0.00597836
0.999989
3.15624e-06
7.11718e-10
1.38628e-09
5.7816e-11
1.08006e-11
4.1349e-13
2.92958e-15
6.92216e-18
9.36597e-21
7.26705e-24
2.5043e-27
3.05595e-31
9.55084e-36
-5.31096e-40
7.41212e-78
4.09333e-67
1.96034e-57
1.82496e-48
2.87983e-40
7.12386e-33
2.54117e-26
1.12892e-20
4.90971e-16
1.58262e-12
2.78421e-10
6.40078e-10
5.97141e-10
8.98317e-10
0.00345513
0.999823
2.6618e-06
-2.6753e-09
3.38256e-10
3.93327e-11
3.32185e-12
1.31831e-13
1.21909e-15
3.59948e-18
4.84165e-21
3.4189e-24
1.13121e-27
1.40241e-31
4.67723e-36
2.16936e-41
7.08025e-80
5.93968e-69
3.46402e-59
3.92371e-50
7.5972e-42
2.34808e-34
1.08001e-27
6.50065e-22
4.06714e-17
1.85646e-13
4.27188e-11
1.8717e-10
5.81438e-10
2.25511e-09
0.177622
0.637121
0.000440296
0.000269053
2.37313e-10
4.79581e-11
1.05219e-12
3.30639e-14
3.62007e-16
1.28745e-18
1.79508e-21
1.1512e-24
3.4666e-28
4.17045e-32
1.43888e-36
7.47855e-42
2.8514e-82
3.7817e-71
2.77033e-61
3.9427e-52
9.6537e-44
3.81473e-36
2.28378e-29
1.84709e-23
1.64498e-18
1.16957e-14
4.28734e-12
4.49645e-11
6.16108e-07
2.44358e-05
0.992174
-2.25223e-05
8.28272e-07
4.76637e-07
7.00054e-11
4.14195e-11
5.07813e-13
6.94003e-15
7.37381e-17
2.89614e-19
4.22598e-22
2.54514e-25
6.74448e-29
7.31573e-33
2.44448e-37
1.34342e-42
4.62695e-85
9.98956e-74
9.42885e-64
1.73426e-54
5.5405e-46
2.89622e-38
2.33601e-31
2.61526e-25
3.3762e-20
3.76906e-16
2.47156e-13
3.33855e-10
1.39301e-06
0.980809
0.993258
3.49748e-06
2.62602e-05
1.24391e-10
4.73117e-11
1.46333e-11
2.07562e-13
1.28584e-15
9.3705e-18
3.56872e-20
5.39217e-23
3.22831e-26
7.80651e-30
7.28062e-34
2.12154e-38
1.09716e-43
2.91585e-88
1.05225e-76
1.30654e-66
3.17473e-57
1.35589e-48
9.64989e-41
1.08699e-33
1.76408e-27
3.50731e-22
6.8415e-18
3.78226e-14
1.31422e-10
4.37464e-05
0.993516
0.588252
5.74937e-05
1.73483e-10
2.56371e-10
1.89971e-11
1.59e-12
3.17868e-14
1.54939e-16
6.46722e-19
2.00346e-21
2.94556e-24
1.80105e-27
4.32427e-31
3.73427e-35
9.40379e-40
4.08431e-45
6.91662e-92
4.27979e-80
7.12372e-70
2.32869e-60
1.3544e-51
1.34057e-43
2.16906e-36
5.33127e-30
1.8018e-24
1.32758e-19
2.2315e-14
9.51819e-11
4.40188e-05
0.993517
1.49407e-05
2.50038e-07
1.19008e-08
3.10347e-10
1.06974e-11
1.69869e-13
2.03995e-15
8.83864e-18
1.95933e-20
3.49117e-23
4.01658e-26
2.26341e-29
5.33e-33
4.49148e-37
1.03984e-41
3.69954e-47
5.97002e-96
6.52494e-84
1.48348e-73
6.63198e-64
5.33247e-55
7.46077e-47
1.77768e-39
7.08598e-33
6.14674e-27
5.21887e-21
3.38141e-15
5.84569e-11
1.21777e-05
0.993233
-1.11601e-09
7.21835e-12
1.14943e-05
3.08644e-10
6.56817e-12
2.27577e-14
8.79989e-17
2.39878e-19
3.05446e-22
2.24604e-25
1.20199e-28
4.37067e-32
8.22521e-36
6.02487e-40
1.19089e-44
3.20778e-50
1.81497e-100
3.61791e-88
1.14605e-77
7.1183e-68
8.01395e-59
1.60607e-50
5.79468e-43
4.22046e-36
1.28539e-29
3.62515e-23
4.27907e-17
7.21163e-12
4.80578e-08
3.48528e-05
-3.79113e-08
0.000138512
2.59184e-06
2.3795e-10
4.34895e-12
4.71194e-15
2.27583e-18
1.8248e-21
1.43185e-24
6.29138e-28
1.47891e-31
1.97439e-35
1.51074e-39
5.51637e-44
5.89604e-49
7.121e-55
1.87535e-105
7.08125e-93
3.19517e-82
2.80089e-72
4.45799e-63
1.28583e-54
7.03926e-47
9.09063e-40
5.87141e-33
2.73612e-26
4.94819e-20
1.3333e-14
1.36312e-10
2.91869e-10
6.01994e-06
7.09932e-06
3.77409e-09
7.46615e-11
2.80653e-13
2.04496e-16
4.02982e-20
4.09605e-24
5.91452e-28
1.18227e-31
1.6713e-35
1.29105e-39
4.74043e-44
6.8334e-49
2.54709e-54
5.83425e-61
6.34733e-111
4.75364e-98
3.1372e-87
3.94835e-77
8.94652e-68
3.68913e-59
2.9499e-51
5.71186e-44
5.10574e-37
2.99511e-30
7.31232e-24
6.63677e-18
3.99361e-13
3.69469e-11
2.69003e-11
1.9523e-10
4.25036e-11
4.04999e-13
5.62183e-16
1.897e-19
2.09544e-23
9.99544e-28
3.09381e-32
1.07363e-36
4.60266e-41
1.66725e-45
3.46968e-50
2.95443e-55
6.30229e-61
8.88402e-68
6.76239e-117
1.06576e-103
1.06484e-92
1.96728e-82
6.40237e-73
3.74238e-64
4.19617e-56
1.07692e-48
1.05515e-41
6.39772e-35
2.37503e-28
9.14794e-22
3.60644e-16
1.99619e-13
9.51122e-13
3.45395e-13
1.50189e-15
2.05473e-18
9.50695e-22
1.68138e-25
1.33435e-29
5.73603e-34
1.6065e-38
3.22232e-43
4.54925e-48
4.3309e-53
2.62029e-58
8.31642e-64
8.31075e-70
7.15163e-77
2.14962e-123
7.73739e-110
1.2278e-98
3.43888e-88
1.63413e-78
1.35243e-69
2.07857e-61
6.74875e-54
6.58959e-47
3.4606e-40
2.65559e-33
2.91558e-26
4.38284e-20
5.09585e-17
4.54832e-17
1.63012e-19
9.20307e-23
3.15802e-26
6.10225e-30
6.67053e-34
4.25256e-38
1.62476e-42
3.77039e-47
5.28452e-52
4.34159e-57
1.9705e-62
4.40775e-68
3.9669e-74
9.5451e-81
2.05118e-88
1.88671e-130
1.74594e-116
4.71341e-105
2.10071e-94
1.50126e-84
1.77761e-75
3.71757e-67
1.51426e-59
1.4892e-52
7.21436e-46
9.26326e-39
1.89743e-31
5.42683e-25
4.42894e-22
2.14381e-23
2.29386e-27
2.55255e-31
2.30678e-35
1.47596e-39
6.23867e-44
1.69244e-48
2.91499e-53
3.15814e-58
2.10828e-63
8.30488e-69
1.79259e-74
1.85961e-80
7.43141e-87
7.4726e-94
6.40703e-102
4.01244e-138
1.14413e-123
5.81537e-112
4.43804e-101
5.01166e-91
8.7199e-82
2.49589e-73
1.27464e-65
1.31933e-58
6.68387e-52
9.24948e-45
2.20252e-37
5.56295e-31
8.30838e-29
2.11765e-32
3.6695e-37
7.20545e-42
1.3023e-46
1.90379e-51
2.07356e-56
1.60165e-61
8.49821e-67
3.0104e-72
6.85633e-78
9.47067e-84
7.27197e-90
2.69289e-96
3.82467e-103
1.35859e-110
4.19865e-119
1.63816e-146
1.93676e-131
2.1623e-119
3.16016e-108
6.10736e-98
1.64352e-88
6.59536e-80
4.2394e-72
4.75056e-65
2.67484e-58
2.54774e-51
4.05317e-44
3.5858e-38
5.22955e-38
7.54036e-44
1.69271e-49
4.51769e-55
1.18961e-60
2.73181e-66
5.02297e-72
6.98488e-78
7.06486e-84
5.03068e-90
2.42274e-96
7.41307e-103
1.31042e-109
1.14867e-116
3.93048e-124
3.40465e-132
2.63125e-141
8.04085e-156
6.8141e-140
2.13956e-127
7.13084e-116
2.67913e-105
1.21941e-95
7.24309e-87
5.98566e-79
7.66176e-72
4.4249e-65
2.04485e-58
1.13597e-51
9.69693e-47
8.95906e-51
1.07017e-57
2.07369e-64
5.10797e-71
1.34049e-77
3.30015e-84
6.92397e-91
1.15061e-97
1.42757e-104
1.25381e-111
7.36806e-119
2.70194e-126
5.63983e-134
5.80858e-142
2.35025e-150
2.44629e-159
2.34227e-169
1.61338e-166
3.2658e-149
4.43791e-136
4.47652e-124
4.01359e-113
3.59112e-103
3.50228e-94
3.94798e-86
5.90621e-79
3.12793e-72
5.79909e-66
5.84314e-60
7.12422e-57
6.37848e-65
1.04109e-73
2.76143e-82
9.53693e-91
3.61183e-99
1.33267e-107
4.41896e-116
1.24313e-124
2.82304e-133
4.89572e-142
6.03188e-151
4.79445e-160
2.17275e-169
4.72275e-179
3.83449e-189
7.55358e-200
1.30951e-211
-3.99698e-19
-7.4999e-20
1.32261e-19
1.27648e-19
2.90926e-20
1.58808e-19
4.0678e-17
6.34303e-15
4.79694e-13
1.46814e-11
1.33485e-10
-6.05698e-09
1.02782e-05
0.999714
1
1
1
1
1
1
1
1
1
1
1
0.726849
0.178809
0.0192801
2.43626e-07
8.11546e-10
-8.39123e-20
-1.61673e-20
2.35737e-20
2.15232e-20
4.7079e-21
1.09093e-19
3.32432e-17
5.36681e-15
4.24768e-13
1.4302e-11
1.33859e-10
-1.78494e-10
2.72289e-06
0.984986
1
1
1
1
1
1
1
1
1
0.00205481
4.06972e-08
1.93177e-09
1.71027e-09
1.70726e-10
2.97053e-11
1.35019e-11
-1.45253e-20
-2.85816e-21
3.36318e-21
2.89021e-21
6.80944e-22
8.08595e-20
2.72944e-17
4.5052e-15
3.78493e-13
1.42078e-11
1.33907e-10
-1.46295e-08
1.39635e-05
0.94126
1
1
1
1
1
1
1
0.296439
7.11558e-08
9.51067e-10
2.71593e-10
3.27656e-11
1.13579e-12
1.18183e-14
4.28836e-16
4.5547e-18
-2.01838e-21
-4.03029e-22
3.71591e-22
2.99012e-22
1.3286e-22
6.19197e-20
2.21703e-17
3.75904e-15
3.42449e-13
1.47693e-11
1.31679e-10
-7.14205e-07
1.22496e-05
0.832465
1
1
1
1
1
1
0.0179269
3.80514e-09
5.81349e-10
7.33684e-11
2.17323e-12
3.41713e-14
1.38548e-16
1.55952e-19
4.02279e-22
5.46268e-26
-2.16072e-22
-4.34647e-23
3.02222e-23
2.26623e-23
5.86415e-23
4.72605e-20
1.76832e-17
3.14042e-15
3.21938e-13
1.67001e-11
1.23975e-10
0.000623715
6.77042e-06
0.694464
1
1
1
1
1
0.081742
2.64544e-09
4.61123e-10
3.12084e-11
7.83881e-13
4.44727e-15
9.00912e-18
4.73752e-21
6.83114e-25
1.06025e-28
7.15084e-35
-1.70476e-23
-3.42535e-24
1.70927e-24
1.20194e-24
3.83631e-23
3.52069e-20
1.38722e-17
2.66504e-15
3.27424e-13
2.08283e-11
1.12802e-10
0.00380931
1.09717e-05
0.553982
1
1
1
1
0.610734
7.86795e-05
5.76337e-10
4.07906e-11
7.4604e-13
3.60383e-15
3.98875e-18
1.16604e-21
8.35539e-26
1.52873e-30
1.48221e-35
7.14995e-43
-9.35383e-25
-1.85882e-25
6.22479e-26
5.01591e-26
2.5864e-23
2.54277e-20
1.07935e-17
2.3408e-15
3.70857e-13
2.73516e-11
1.22569e-10
0.00380739
4.02945e-06
0.328692
1
1
1
0.999999
2.82315e-05
4.80393e-06
1.33837e-08
3.58903e-12
1.09642e-14
1.06071e-17
2.29453e-21
1.06963e-25
1.11405e-30
2.5479e-36
1.8261e-42
1.92518e-50
-3.29187e-26
-6.39627e-27
1.30537e-27
7.01641e-27
1.68487e-23
1.79239e-20
8.42173e-18
2.1598e-15
4.51261e-13
3.4418e-11
2.09075e-10
0.0037872
2.58262e-07
0.0963157
1
1
1
0.0489881
6.46689e-07
9.70786e-06
4.3106e-10
1.73733e-12
2.42531e-16
2.84577e-20
1.17301e-24
9.63335e-30
1.60513e-35
4.90258e-42
3.57327e-49
1.07136e-57
-6.63686e-28
-1.24504e-28
1.36865e-29
3.63956e-27
1.06724e-23
1.253e-20
6.63143e-18
2.07528e-15
5.29538e-13
3.70708e-11
2.91184e-10
0.000942531
2.27301e-06
0.0207037
1
1
1
-9.15637e-06
5.43795e-06
3.81618e-05
2.52036e-10
1.1801e-12
5.30706e-17
2.78619e-22
8.80393e-28
1.24146e-33
3.73657e-40
1.91602e-47
1.86293e-55
1.83547e-64
-6.52154e-30
-1.16194e-30
2.60278e-31
2.07098e-27
6.72462e-24
8.7648e-21
5.21116e-18
1.9599e-15
5.26055e-13
3.06e-11
4.64229e-09
3.87841e-09
6.77336e-06
1.87726e-07
1
1
0.883459
2.30491e-07
3.45425e-08
0.000348517
1.64247e-10
4.28523e-13
1.55877e-17
5.92861e-23
3.92035e-29
4.89849e-36
1.12223e-43
5.52569e-52
7.09011e-61
2.06187e-70
-2.37863e-32
-3.9461e-33
1.0728e-31
1.17261e-27
4.20482e-24
5.97669e-21
3.90649e-18
1.63448e-15
3.93424e-13
1.77041e-11
9.73492e-11
3.15387e-08
4.98395e-05
1.36303e-07
0.999999
1
0.000890047
7.36094e-07
7.72012e-05
7.12385e-06
1.34392e-10
9.75675e-14
3.66132e-18
1.93988e-23
1.58409e-29
1.85958e-36
3.23049e-44
8.8842e-53
4.39502e-62
5.12803e-72
-1.89324e-35
-2.02185e-36
5.14125e-32
6.29287e-28
2.44464e-24
3.69086e-21
2.56841e-18
1.06543e-15
2.01851e-13
7.05205e-12
5.29694e-11
1.73487e-10
5.40387e-09
3.13681e-07
0.999982
0.996507
0.000494408
7.9704e-07
8.01827e-10
5.99234e-10
3.33126e-11
1.98814e-14
1.12714e-18
6.99333e-24
5.05724e-30
4.882e-37
6.95436e-45
1.58969e-53
6.63141e-63
6.47589e-73
-6.1374e-40
2.83917e-37
2.10301e-32
2.85541e-28
1.17855e-24
1.86085e-21
1.33359e-18
4.93434e-16
6.86893e-14
2.20278e-12
2.6321e-11
3.33373e-10
1.59016e-08
0.000470458
0.999849
0.924862
2.81187e-09
1.10728e-07
6.43375e-09
4.99315e-10
6.80884e-12
5.82699e-15
3.22216e-19
1.53662e-24
8.47561e-31
6.44487e-38
7.46296e-46
1.4198e-54
4.99587e-64
4.07331e-74
3.22749e-43
7.06194e-38
6.39825e-33
9.52182e-29
4.14537e-25
6.84291e-22
4.94899e-19
1.57508e-16
1.7286e-14
6.31264e-13
8.98952e-12
1.36506e-10
-7.88915e-11
0.000112006
0.813814
0.460527
1.1004e-07
2.62028e-09
2.39025e-09
1.92669e-10
2.12201e-12
1.26242e-15
4.69974e-20
1.63096e-25
6.94462e-32
4.22974e-39
4.0057e-47
6.29969e-56
1.83801e-65
1.22539e-75
3.24377e-44
1.13477e-38
1.23985e-33
2.01135e-29
9.31112e-26
1.62944e-22
1.20151e-19
3.54657e-17
3.78509e-15
1.62301e-13
3.00994e-12
3.6422e-11
6.18357e-11
-2.13038e-09
4.40185e-05
0.930065
1.52139e-06
1.05167e-09
7.41617e-10
5.82452e-11
3.6596e-13
1.31333e-16
3.39983e-21
8.84322e-27
2.92086e-33
1.40295e-40
1.0574e-48
1.33171e-57
3.12006e-67
1.65461e-77
2.08283e-45
9.80115e-40
1.26924e-34
2.27065e-30
1.15043e-26
2.20067e-23
1.7254e-20
5.36035e-18
6.64749e-16
3.70567e-14
1.19701e-12
3.69269e-11
2.20671e-10
2.13664e-09
-6.93435e-07
0.992261
0.000658383
6.07285e-06
2.47631e-10
9.1968e-12
3.25736e-14
7.33656e-18
1.3136e-22
2.47997e-28
6.09338e-35
2.21434e-42
1.28025e-50
1.25092e-59
2.28944e-69
9.44785e-80
8.30279e-47
3.65797e-41
5.5493e-36
1.14885e-31
6.77486e-28
1.49368e-24
1.3368e-21
5.00727e-19
8.45534e-17
7.42904e-15
6.07393e-13
3.36733e-11
2.74798e-10
2.0959e-11
5.69166e-07
0.758533
0.992941
2.27733e-05
2.72202e-10
1.30106e-12
1.76814e-15
2.26707e-19
2.59673e-24
3.34441e-30
5.83375e-37
1.54849e-44
6.68188e-53
4.95053e-62
6.93376e-72
2.18888e-82
1.82384e-48
6.67615e-43
1.00309e-37
2.55e-33
1.85987e-29
5.03157e-26
5.72728e-23
2.98063e-20
7.78315e-18
1.45033e-15
2.78398e-13
1.78086e-11
2.26037e-10
1.16401e-08
0.000181335
5.85866e-05
0.992943
0.0083973
4.22557e-10
9.7674e-13
6.77914e-17
3.60885e-21
2.41574e-26
2.01341e-32
2.40921e-39
4.55827e-47
1.43979e-55
7.94885e-65
8.37546e-75
1.99127e-85
1.2323e-50
6.9785e-45
7.81371e-40
2.35209e-35
2.20016e-31
7.96145e-28
1.27989e-24
1.02318e-21
5.1611e-19
2.28688e-16
5.87708e-14
4.79516e-12
1.44573e-10
3.61755e-10
9.40978e-06
1.99924e-06
0.992932
0.0396067
3.05121e-10
6.70826e-13
7.51814e-18
3.7182e-23
1.03175e-28
5.16693e-35
4.11047e-42
5.43572e-50
1.23706e-58
5.01176e-68
3.90819e-78
6.88361e-89
2.03132e-53
1.94498e-47
2.71496e-42
8.86562e-38
9.7106e-34
4.53422e-30
1.12083e-26
1.87073e-23
2.4228e-20
2.00309e-17
7.69215e-15
1.34881e-12
1.15237e-10
5.50869e-10
1.08655e-09
-2.78576e-08
0.99213
0.000200237
1.20661e-10
1.45422e-13
6.57262e-19
5.93772e-25
2.78033e-31
5.89372e-38
2.85071e-45
2.55314e-53
4.11055e-62
1.2025e-71
6.81947e-82
8.7319e-93
2.55177e-57
4.22176e-51
8.20768e-46
3.90496e-41
7.2922e-37
7.40372e-33
4.84742e-29
2.04368e-25
5.10733e-22
7.03333e-19
6.90773e-16
6.23461e-13
1.30056e-10
2.28343e-08
0.000639019
-7.73676e-07
9.80972e-06
8.72806e-07
4.7631e-11
3.37612e-15
7.13818e-21
2.92049e-27
4.47638e-34
3.23229e-41
8.08247e-49
4.62415e-57
5.13129e-66
1.06347e-75
4.29981e-86
3.91353e-97
8.18602e-63
3.25016e-56
1.41199e-50
1.66987e-45
8.05017e-41
1.91944e-36
2.50795e-32
1.8955e-28
9.09464e-25
4.27064e-21
2.42779e-17
6.98706e-14
5.01325e-11
6.99257e-09
0.00055481
3.3197e-06
2.38895e-10
1.70363e-10
4.28747e-13
6.28812e-18
6.87353e-24
1.76931e-30
1.62162e-37
6.09351e-45
8.43286e-53
3.06183e-61
2.31387e-70
3.34669e-80
9.45379e-91
5.95848e-102
1.31529e-69
1.5226e-62
1.47249e-56
3.39907e-51
2.93739e-46
1.21468e-41
2.81371e-37
4.30114e-33
6.87057e-29
1.48906e-24
2.04559e-20
1.0178e-16
1.25775e-13
2.45454e-11
2.87314e-10
5.16563e-07
5.90986e-11
6.15514e-12
5.73132e-16
1.23931e-21
8.49795e-28
1.65815e-34
1.14164e-41
3.01532e-49
2.79966e-57
6.90881e-66
3.61289e-75
3.62302e-85
7.00794e-96
2.96452e-107
2.26845e-78
6.14168e-71
1.13459e-64
4.84549e-59
7.85246e-54
6.30134e-49
2.95646e-44
9.4129e-40
2.65941e-35
7.86183e-31
1.70929e-26
1.83951e-22
7.7151e-19
1.0537e-15
4.26576e-13
1.12507e-11
3.27367e-13
9.15314e-15
1.35541e-19
6.06534e-26
1.897e-32
3.19559e-39
1.88129e-46
4.0885e-54
2.90793e-62
5.20772e-71
1.91923e-80
1.32316e-90
1.70723e-101
4.65001e-113
5.01744e-90
3.82858e-82
1.79471e-75
1.94313e-69
7.96338e-64
1.57875e-58
1.73519e-53
1.13752e-48
4.66661e-44
1.24124e-39
2.23801e-35
2.85037e-31
2.50477e-27
1.39369e-23
4.79494e-20
5.4376e-17
6.48926e-17
1.18719e-18
5.85741e-24
9.02689e-31
1.08689e-37
1.57392e-44
8.78448e-52
1.7267e-59
1.00277e-67
1.34106e-76
3.48245e-86
1.61468e-96
1.33475e-107
2.20594e-119
1.96009e-104
5.35847e-96
7.7898e-89
2.41755e-82
2.65259e-76
1.3281e-70
3.52798e-65
5.4427e-60
5.19e-55
3.1714e-50
1.26707e-45
3.339e-41
5.86563e-37
7.20647e-33
7.03627e-29
6.99738e-25
3.30184e-22
1.27248e-23
4.2772e-29
3.72105e-36
2.32372e-43
2.35654e-50
1.36909e-57
2.55645e-65
1.22839e-73
1.22062e-82
2.18288e-92
6.52779e-103
3.24935e-114
2.98795e-126
3.12634e-122
3.25595e-113
1.62586e-105
1.6507e-98
5.72996e-92
8.89296e-86
7.27127e-80
3.47179e-74
1.04254e-68
2.06942e-63
2.82866e-58
2.77189e-53
2.04331e-48
1.22043e-43
6.64349e-39
3.98582e-34
1.78622e-29
8.97075e-30
4.6235e-35
3.81786e-42
1.76851e-49
1.25905e-56
8.11166e-64
1.44543e-71
5.63278e-80
4.03452e-89
4.74251e-99
8.54742e-110
2.33313e-121
1.04858e-133
6.5256e-145
3.17249e-135
6.95422e-127
3.04854e-119
4.56068e-112
3.07575e-105
1.11067e-98
2.39587e-92
3.34698e-86
3.21137e-80
2.23823e-74
1.21016e-68
5.52518e-63
2.36628e-57
1.05355e-51
5.49101e-46
4.28594e-40
2.59938e-37
6.39001e-42
8.9942e-49
4.65382e-56
3.01209e-63
2.01365e-70
3.32521e-78
1.00792e-86
4.9265e-96
3.52647e-106
3.44953e-117
4.47773e-129
8.03202e-142
3.39849e-173
1.334e-162
2.29314e-153
7.84786e-145
9.15963e-137
4.82255e-129
1.36312e-121
2.31784e-114
2.59185e-107
2.04796e-100
1.23048e-93
6.10923e-87
2.74661e-80
1.22561e-73
5.89227e-67
3.40422e-60
2.95089e-53
1.09955e-46
1.02456e-49
4.86708e-56
4.38953e-63
3.43745e-70
2.26567e-77
3.29387e-85
7.27193e-94
2.21908e-103
8.57149e-114
3.86678e-125
1.90487e-137
9.65636e-151
2.9909e-216
7.71284e-204
8.3131e-193
1.70628e-182
1.1447e-172
3.34708e-163
5.13187e-154
4.67323e-145
2.78758e-136
1.17609e-127
3.7679e-119
9.84334e-111
2.26247e-102
5.01727e-94
1.20116e-85
3.59467e-77
1.65464e-68
1.78611e-59
2.20143e-58
7.20797e-64
1.7052e-70
1.97243e-77
1.26263e-84
1.49345e-92
2.15807e-101
3.55805e-111
6.11595e-122
9.80319e-134
1.25075e-146
9.00197e-161
1
1
1
1
1
1
1
1
1
1
1
1
1
1
1
1
1
1
1
1
1
1
1
1
1
1
1
1
1
1
1
1
1
1
1
1
1
1
1
1
1
1
1
1
1
1
1
1
1
1
1
1
1
1
1
1
1
1
1
1
1
1
1
1
1
1
1
1
1
1
1
1
1
1
1
1
1
1
1
1
1
1
1
1
1
1
1
1
1
1
1
1
1
1
1
1
1
1
1
1
1
1
1
1
1
1
1
1
1
1
1
1
1
1
1
1
1
1
1
1
1
1
1
1
1
1
1
1
1
1
1
1
1
1
1
1
1
1
1
1
1
1
1
1
1
1
1
1
1
1
1
1
1
1
1
1
1
1
1
1
1
1
1
1
1
1
1
1
1
1
1
1
1
1
1
1
1
1
1
1
1
1
1
1
1
1
1
1
1
1
1
1
1
1
1
1
1
1
1
1
1
1
1
1
1
1
1
1
1
1
1
1
1
1
1
1
1
1
1
1
1
1
1
1
1
1
1
1
1
1
1
1
1
1
1
1
1
1
1
1
1
1
1
1
1
1
1
1
1
1
1
1
1
1
1
1
1
1
1
1
1
1
1
1
1
1
1
1
1
1
1
1
1
1
1
1
1
1
1
1
1
1
1
1
1
1
1
1
1
1
1
1
1
1
1
1
1
1
1
1
1
1
1
1
1
1
1
1
1
1
1
1
1
1
1
1
1
1
1
1
1
1
1
1
1
1
1
1
1
1
1
1
1
1
1
1
1
1
1
1
1
1
1
1
1
1
1
1
1
1
1
1
1
1
1
1
1
1
1
1
1
1
1
1
1
1
1
1
1
1
1
1
1
1
1
1
1
1
1
1
1
1
1
1
1
1
1
1
1
1
1
1
1
1
1
1
1
1
1
1
1
1
1
1
1
1
1
1
1
1
1
1
1
1
1
1
1
1
0.999976
0.996251
1
1
1
1
1
1
1
1
1
1
1
1
1
1
1
1
1
1
1
1
1
1
1
1
1
1
1
1
0.98667
0.99979
1
1
1
1
1
1
1
1
1
1
1
1
1
1
1
1
1
1
1
1
1
1
1
1
0.999999
0.999995
0.999984
0.999973
0.999669
0.999434
1
1
1
1
1
1
1
1
1
1
1
1
1
1
1
1
1
1
1
1
1
0.999999
0.999906
0.926366
0.184022
1.90586e-10
1.60165e-08
-4.99531e-09
-2.34649e-07
-6.81212e-06
1
1
1
1
1
1
1
1
1
1
1
1
1
1
1
1
1
1
1
1
1
0.630972
9.25069e-08
1.5373e-09
1.57041e-09
2.86208e-09
5.73041e-08
1.08882e-08
5.06168e-07
1.70601e-10
1
1
1
1
1
1
1
1
1
1
1
1
1
1
1
1
1
1
1
1
0.964615
1.40943e-05
2.76824e-08
1.97882e-05
1.72178e-05
1.65961e-05
1.03829e-09
4.0487e-08
6.52809e-08
9.60361e-10
1
1
1
1
1
1
1
1
1
1
1
1
1
1
1
1
1
1
1
0.999998
0.000242883
1.772e-05
4.96813e-08
4.65925e-09
3.91947e-09
4.54511e-09
1.03302e-09
1.41081e-09
8.13313e-08
6.65037e-10
1
1
1
1
1
1
1
1
1
1
1
1
1
1
1
1
1
1
1
0.907787
1.73707e-07
2.73498e-05
5.932e-06
3.02208e-08
3.04879e-11
4.98584e-11
5.78948e-10
1.27545e-09
2.23896e-10
8.83556e-12
1
1
1
1