/*--------------------------------*- C++ -*----------------------------------*\
| =========                 |                                                 |
| \\      /  F ield         | OpenFOAM: The Open Source CFD Toolbox           |
|  \\    /   O peration     | Version:  2.4.0                                 |
|   \\  /    A nd           | Web:      www.OpenFOAM.org                      |
|    \\/     M anipulation  |                                                 |
\*---------------------------------------------------------------------------*/
FoamFile
{
    version     2.0;
    format      ascii;
    class       volScalarField;
    location    "1.55";
    object      alpha.water;
}
// * * * * * * * * * * * * * * * * * * * * * * * * * * * * * * * * * * * * * //

dimensions      [0 0 0 0 0 0 0];

internalField   nonuniform List<scalar> 
2400
(
1
1
1
0.999999
0.999999
1
1
1
1
1
1
1
1
1
1
1
1
1
1
1
1
0.999999
0.999998
0.999999
1
1
1
1
1
1
1
1
1
1
1
1
1
1
1
0.999998
0.999999
0.999998
0.999998
0.999998
1
1
1
1
1
1
1
1
1
1
1
1
1
0.999995
0.999999
0.999957
0.999998
0.999998
0.999998
0.999998
0.999999
1
1
1
1
1
1
1
1
1
1
1
1
0.995542
0.97488
0.934693
0.999998
0.999998
0.999998
0.999998
0.999999
1
1
1
1
1
1
1
1
1
0.999999
0.999978
0.956944
0.880508
0.834532
0.830991
0.999999
0.999998
0.999998
0.999998
1
1
1
1
1
1
1
1
0.999999
0.999988
0.997386
0.918112
0.838136
0.838983
0.84909
0.917753
0.999999
0.999998
0.999998
0.999998
1
1
1
1
1
1
1
0.999999
0.99999
0.999839
0.95531
0.833071
0.814801
0.892396
0.89827
0.906462
0.999999
0.999998
0.999998
1
1
1
1
1
1
1
1
0.999998
0.999966
0.99201
0.894328
0.800979
0.766968
0.627394
0.46522
0.387101
0.999998
0.999998
0.999998
1
1
1
1
1
1
1
1
0.999996
0.999939
0.98437
0.82564
0.611266
0.260894
0.0363366
0.00665147
0.00379022
0.999998
0.999998
0.999998
0.999999
1
1
1
1
1
1
1
0.999996
0.999927
0.992168
0.640402
0.149635
0.00721018
0.00663554
0.0116695
0.011777
0.999998
0.999998
0.999998
0.999999
1
1
1
1
1
1
1
0.999996
0.999864
0.956663
0.353925
0.00711824
0.00991471
0.00621446
0.00546544
0.00753374
0.999998
0.999998
0.999999
0.999999
0.999999
1
1
1
1
1
0.999999
0.999991
0.999752
0.836827
0.120549
0.0011627
0.00628144
3.45346e-07
3.23026e-07
3.05779e-07
1
0.999999
1
1
0.999999
1
1
1
1
1
0.999999
0.999987
0.999711
0.683766
0.0471654
0.000195327
7.52673e-05
3.29397e-07
3.05779e-07
2.7777e-07
1
1
1
0.999999
0.999999
0.999999
1
1
1
1
0.999999
0.999987
0.995674
0.574207
0.0448555
2.73471e-05
1.48475e-07
3.56359e-07
3.3164e-07
2.76289e-07
1
1
1
0.999999
0.999999
0.999999
0.999999
1
1
1
0.999999
0.999988
0.98742
0.592253
0.0735427
6.75114e-05
4.53812e-07
3.84759e-07
1.99483e-06
3.28864e-07
1
1
1
0.999999
0.999999
0.999999
0.999999
1
1
1
0.999999
0.999989
0.980965
0.62623
0.0953759
3.7825e-05
1.13158e-06
8.55129e-07
2.28708e-06
4.3348e-07
1
1
1
1
0.999999
0.999999
1
1
1
1
1
0.999988
0.970118
0.254835
0.013214
0.000809401
5.32488e-06
1.14679e-05
4.71368e-07
4.1577e-07
1
1
1
1
0.999999
0.999999
0.999999
1
1
1
1
0.999979
0.916208
0.0294113
4.35392e-05
0.000860164
9.5491e-06
1.08198e-05
4.42998e-07
4.1296e-07
1
1
1
1
1
0.999999
0.999999
0.999999
1
1
0.999999
0.999961
0.751464
0.0184277
2.38473e-05
1.45531e-05
1.43028e-05
5.27687e-07
4.65342e-07
4.88985e-07
1
1
1
1
1
1
1
1
1
1
0.999997
0.999649
0.593061
0.0023678
2.38297e-05
2.30717e-05
4.17395e-05
1.22421e-06
5.26714e-07
6.11413e-07
0.999999
0.999995
0.999967
0.99931
0.993461
0.972764
0.940701
0.918621
0.901821
0.895933
0.891997
0.84649
0.847705
0.851068
0.964881
0.984469
0.985733
0.988515
0.990227
0.995523
0.999994
0.999967
0.999809
0.994927
0.91388
0.765399
0.738885
0.738855
0.738898
0.739335
0.742375
0.796168
0.866678
0.979787
0.983476
0.983584
0.945502
0.862167
0.729521
0.738249
0.998854
0.989166
0.944687
0.812451
0.743941
0.741366
0.73883
0.7389
0.749377
0.836131
0.944173
0.980642
0.981522
0.982239
0.983082
0.98346
0.665291
0.541531
0.540953
0.541124
0.898211
0.812669
0.765622
0.760107
0.755722
0.809482
0.871253
0.891632
0.963789
0.979719
0.979842
0.980117
0.980634
0.981528
0.982111
0.942774
0.895171
0.613513
0.541796
0.540814
0.830991
0.834956
0.859313
0.89912
0.961836
0.978042
0.978462
0.978904
0.979299
0.979593
0.979746
0.979841
0.980105
0.980643
0.981528
0.98007
0.979209
0.952064
0.688409
0.541796
0.961176
0.971915
0.973705
0.974993
0.976437
0.97764
0.978042
0.978463
0.978904
0.9793
0.979615
0.979797
0.979681
0.97982
0.980456
0.979341
0.978648
0.977317
0.97574
0.786463
0.932756
0.959268
0.971918
0.973708
0.975029
0.976453
0.976482
0.975823
0.967686
0.965874
0.967825
0.95414
0.946947
0.955572
0.964328
0.976713
0.977318
0.97574
0.972218
0.962139
0.435672
0.48512
0.598046
0.746564
0.833848
0.818914
0.719022
0.566368
0.451778
0.430512
0.435745
0.367105
0.349564
0.405391
0.47439
0.685314
0.885016
0.916113
0.882665
0.881751
0.00205991
0.00143181
0.000832449
0.0465208
0.129499
0.129458
0.0819392
0.00817769
3.36626e-05
1.56188e-05
9.69901e-06
7.01131e-06
7.41974e-06
5.33875e-05
0.0124309
0.103816
0.232737
0.269521
0.195736
0.188978
0.00608914
0.00148655
0.000662905
0.000148454
0.000110746
9.28019e-05
6.49942e-05
3.33509e-05
1.52468e-05
9.71554e-06
7.02598e-06
5.20129e-06
3.82687e-06
5.75108e-06
2.14222e-05
3.37705e-05
3.23586e-05
3.44758e-05
7.96236e-05
0.000367702
0.00360956
0.00288976
0.00288701
0.00205051
0.000284751
0.000203312
0.000306047
0.000302157
0.000153611
3.64992e-05
5.85986e-06
2.25691e-06
1.82695e-06
2.84863e-06
4.66866e-05
3.27103e-05
3.23584e-05
3.23583e-05
0.00115747
0.00880553
2.8949e-07
9.36579e-07
0.000195413
0.00259532
0.00068735
0.000651684
0.000606853
0.00060304
0.00060236
8.12706e-05
2.05071e-06
1.73144e-06
1.6425e-06
1.82393e-06
1.28962e-05
3.81712e-05
3.17857e-05
3.27066e-05
0.00234142
0.00684318
1.91536e-07
1.41797e-07
1.27625e-05
0.000697065
0.000348145
0.000463122
0.000550241
0.00053429
0.000322521
4.84474e-05
1.44362e-06
1.64342e-06
1.66232e-06
1.656e-06
4.70634e-05
5.25527e-05
3.63867e-05
4.3282e-05
0.000211021
5.89567e-06
1.65022e-07
1.4265e-07
1.38423e-07
1.23484e-07
1.22511e-07
1.37283e-07
1.97136e-07
3.9154e-07
8.25344e-07
1.22777e-06
1.28195e-06
1.46163e-06
1.64365e-06
1.65215e-06
2.23852e-05
5.2068e-05
5.05922e-05
4.93953e-05
1.81392e-05
2.53491e-06
1.77338e-07
1.41904e-07
1.23488e-07
1.2151e-07
1.23488e-07
1.21757e-07
1.3634e-07
1.97441e-07
3.9149e-07
8.2494e-07
1.369e-06
1.66878e-06
1.65291e-06
1.89299e-06
2.25752e-06
2.48938e-06
3.05692e-06
2.5037e-06
2.53434e-06
2.5336e-06
2.40602e-07
5.33472e-07
3.29076e-07
1.26205e-07
1.22364e-07
1.82046e-07
3.3084e-07
3.81889e-07
8.2394e-07
1.53865e-06
5.63091e-06
1.28674e-05
9.85347e-06
3.15506e-06
2.48555e-06
2.42613e-06
2.65387e-06
2.68754e-06
2.56494e-06
2.53236e-06
5.22718e-07
1.10363e-06
8.99172e-07
2.57834e-07
1.33913e-07
5.41508e-07
1.88599e-06
2.09189e-06
6.98478e-06
3.00223e-05
5.52548e-05
6.54222e-05
6.35178e-05
4.25577e-05
1.10266e-05
2.87603e-06
2.92323e-06
2.6774e-06
2.72978e-06
2.89393e-06
1.26746e-06
1.18846e-06
6.25452e-07
2.86833e-07
1.9991e-07
3.38826e-07
1.21696e-06
2.09433e-05
5.49477e-05
6.59936e-05
6.5588e-05
6.59148e-05
6.5419e-05
6.52149e-05
4.50536e-05
6.34414e-06
3.78764e-06
8.92198e-06
2.68482e-05
8.1466e-05
1.30611e-06
9.03446e-07
3.349e-07
3.08969e-07
3.09428e-07
3.44299e-07
7.95022e-07
3.45031e-05
6.58342e-05
6.59584e-05
6.58976e-05
6.5418e-05
6.47348e-05
6.55891e-05
3.99455e-05
9.24438e-06
2.92365e-05
8.63584e-05
8.63485e-05
8.43889e-05
9.72957e-07
3.8028e-07
3.51768e-07
3.35465e-07
3.37183e-07
3.9504e-07
8.42304e-07
3.76885e-05
6.60166e-05
6.58009e-05
6.55153e-05
6.41727e-05
6.62393e-05
6.46722e-05
8.46379e-06
1.07828e-05
7.14556e-05
8.57595e-05
8.38656e-05
8.38415e-05
0.999947
0.999995
1
1
1
1
1
1
1
1
1
1
1
1
0.999999
1
1
0.999999
0.999999
0.999999
0.890414
0.996137
0.999995
1
1
1
1
1
1
1
1
1
1
1
1
0.999999
1
0.999999
0.999999
0.999999
0.596511
0.932114
0.999565
0.999962
0.999997
1
1
1
1
1
1
1
1
1
1
0.999999
0.999999
0.999997
0.999996
0.999999
0.541607
0.862234
0.999457
0.999954
0.999996
1
1
1
1
1
1
1
1
0.999999
0.999999
0.999999
0.999997
0.999996
0.999996
0.999997
0.541924
0.789023
0.998382
0.999946
0.999996
1
1
1
1
1
1
1
0.999999
0.999999
0.999999
1
0.999996
0.999996
0.999996
0.999998
0.545195
0.655788
0.933128
0.999769
0.999982
0.999999
1
1
1
1
1
1
1
0.999999
0.999999
1
0.999997
0.999996
0.999996
0.999999
0.855875
0.700351
0.693655
0.794462
0.989242
0.999982
0.999999
1
1
1
1
1
1
1
1
1
0.999997
0.999996
0.999999
0.999999
0.860987
0.845817
0.846509
0.676688
0.798217
0.972663
0.999938
0.999997
1
1
1
1
1
1
1
0.999999
0.999996
0.999996
0.999998
0.999999
0.318681
0.469909
0.588482
0.647306
0.705571
0.893306
0.999657
0.99998
0.999999
1
1
1
1
1
1
0.999998
0.999996
0.999996
0.999996
0.999998
0.00152115
0.00348514
0.0284593
0.149286
0.405928
0.828845
0.999333
0.999959
0.999999
1
1
1
1
1
1
0.999998
0.999997
0.999996
0.999996
0.999998
0.0142728
0.0167115
0.0163383
0.0158346
0.0303662
0.41375
0.970633
0.99985
0.999995
1
1
1
1
0.999999
0.999999
0.999999
0.999999
0.999997
0.999996
0.999999
0.00322722
0.0126348
0.0161696
0.0157263
0.0132896
0.0370451
0.727304
0.99933
0.999967
0.999999
1
1
1
0.999999
0.999999
0.999999
1
1
0.999999
1
5.41115e-06
0.000396946
0.00607783
0.00905639
0.0129955
0.000501441
0.349869
0.962364
0.999892
0.999998
1
1
1
1
0.999999
1
1
1
1
1
3.78269e-06
5.41115e-06
5.9763e-06
6.21921e-06
0.00557894
0.000341871
0.0775683
0.841339
0.999765
0.999995
1
1
1
1
1
1
1
1
1
1
4.1849e-06
8.34528e-06
6.21921e-06
6.65378e-06
0.000715061
0.00033495
0.000118654
0.679056
0.999635
0.999988
0.999999
1
1
1
1
1
1
1
1
1
2.69972e-06
0.000106162
0.00011459
1.92889e-05
2.66821e-05
0.000210765
0.000121341
0.483419
0.990749
0.99998
0.999999
1
1
1
1
0.999999
1
1
1
0.999999
5.18053e-06
0.000141491
0.000144161
0.000129258
6.37089e-05
0.000205515
0.00012058
0.301713
0.959362
0.999963
0.999998
1
1
1
0.999999
0.999999
0.999999
1
1
0.999999
4.92158e-05
6.05695e-05
0.0001262
6.57705e-05
5.47113e-05
0.00023473
0.000147517
0.179237
0.908038
0.999934
0.999999
1
1
0.999999
0.999999
0.999999
1
1
0.999999
0.999999
8.48324e-05
3.56664e-05
1.62876e-05
1.18604e-05
3.69051e-05
0.000228737
8.11759e-05
0.0927175
0.842111
0.999914
0.999998
1
1
1
0.999999
0.999999
1
1
0.999999
0.999999
8.43745e-05
1.94578e-05
1.19486e-05
1.03705e-05
1.90301e-05
8.76751e-05
5.86215e-05
0.036652
0.756895
0.999897
0.999997
1
1
1
1
1
1
0.999999
0.999999
0.999999
1
1
1
1
1
1
1
0.999999
1
0.999999
0.999993
0.99359
0.473815
2.42399e-05
2.44409e-05
2.61731e-05
3.69185e-05
1.61113e-06
2.16658e-05
7.03854e-06
1
1
1
1
1
1
0.999854
0.99012
0.993177
0.999993
0.999965
0.950338
0.299706
0.0273139
2.47452e-05
2.51128e-05
2.78542e-05
9.67827e-05
9.49713e-05
5.18187e-05
1
1
1
1
0.963127
0.880946
0.945636
0.998124
0.998238
0.999965
0.98145
0.375117
0.0197966
4.60589e-05
2.88727e-05
2.86025e-05
9.86296e-05
9.86296e-05
9.43617e-05
5.55168e-05
0.597584
0.628716
0.619668
0.511581
0.510817
0.878869
0.99045
0.997927
0.998271
0.99923
0.590981
4.03734e-05
2.91353e-05
3.96506e-05
3.95387e-05
9.2662e-05
9.8053e-05
8.2122e-05
8.69209e-10
5.60777e-10
0.101765
0.1206
0.130802
0.438685
0.857087
0.994368
0.997033
0.997813
0.903057
0.296128
0.0515939
2.9267e-05
2.05575e-05
4.70195e-05
9.56388e-05
9.56388e-05
9.39073e-05
7.40729e-06
5.60773e-10
1.87164e-10
0.101765
0.118191
0.656516
0.912193
0.977927
0.992788
0.721227
0.35366
0.127679
6.44929e-05
7.21403e-05
0.000265083
1.60593e-05
2.71438e-05
9.46679e-05
8.94277e-05
1.7477e-05
7.55172e-07
4.54112e-09
3.36562e-10
0.101765
0.400283
0.765868
0.785155
0.411252
0.201427
0.0503389
1.79176e-05
6.95444e-06
1.77787e-05
7.38448e-05
7.03001e-05
1.09381e-05
7.46471e-06
2.69547e-05
1.73023e-11
1.7293e-11
1.70832e-11
3.04645e-08
1.2508e-09
0.11176
0.511568
0.632071
0.12347
0.00175817
0.000131254
1.32363e-05
1.60632e-06
2.38724e-06
4.15933e-06
1.85342e-05
8.56241e-06
2.26634e-05
6.11391e-06
1.92546e-11
1.75201e-11
1.70309e-11
1.71059e-11
1.77538e-11
1.48955e-11
0.12274
0.487868
0.146021
0.000337738
5.34077e-05
1.24837e-05
3.12635e-07
3.92857e-07
3.39237e-07
2.13616e-07
1.17565e-07
7.99542e-08
2.53089e-06
1.47503e-10
2.61499e-11
1.92766e-11
2.51156e-11
2.60153e-11
1.76956e-11
1.62088e-11
0.205312
0.228281
0.000330635
4.93379e-05
6.53265e-06
3.2869e-07
3.86975e-07
3.52928e-07
2.70128e-07
1.50767e-07
8.90586e-08
4.65e-08
1.26899e-08
5.88918e-10
9.92491e-11
1.31855e-11
3.33301e-11
3.22301e-11
2.51299e-11
2.64835e-11
0.100308
0.016745
4.42491e-05
7.18401e-06
1.69729e-06
3.69564e-07
3.97334e-07
3.79691e-07
3.53917e-07
2.69163e-07
2.01376e-07
3.21278e-08
8.64287e-09
-2.58078e-10
6.21067e-10
1.83988e-10
6.76416e-11
3.30036e-11
2.83871e-11
4.74428e-11
0.0601759
7.2903e-05
1.17998e-05
2.63215e-06
1.26156e-06
8.87267e-07
5.00515e-07
3.97917e-07
4.01299e-07
4.88102e-06
9.96307e-07
-2.08256e-08
5.41677e-07
-5.13101e-08
-3.07059e-08
3.49062e-09
3.15389e-10
5.64347e-11
3.30413e-11
7.34545e-11
0.0830967
0.000182694
1.20154e-05
7.65927e-06
3.03198e-06
1.27739e-06
0.000417192
0.00138939
0.00153015
0.000830061
0.000338555
0.000289269
1.54987e-05
3.88062e-06
3.55864e-07
3.76102e-08
3.41468e-09
3.33224e-10
6.59564e-11
9.95158e-11
0.0889046
0.00974799
1.08781e-05
1.09146e-05
7.66366e-06
8.07806e-06
0.000156655
0.000304194
0.0015557
0.00284747
0.00284718
0.0027936
0.0010887
0.000114582
2.06034e-06
7.03595e-07
1.54611e-07
1.74323e-08
1.79635e-09
2.40088e-10
0.0880406
0.0382556
0.00180589
1.08129e-05
1.12673e-05
2.23392e-05
3.28742e-05
4.60427e-05
7.47955e-05
0.00067004
0.00284722
0.00275228
0.00265619
0.000665407
9.96093e-06
2.78219e-06
5.7236e-07
6.27391e-08
5.76187e-09
7.21674e-10
0.0112664
0.0274261
0.0143353
0.0048692
0.00106562
3.11016e-05
4.33979e-05
7.39986e-05
0.000120942
0.00110719
0.00270415
0.00265619
0.00260806
0.000532216
2.13661e-05
3.21986e-06
3.92614e-07
3.73054e-08
3.83866e-09
1.39623e-09
8.11568e-05
0.000887757
0.0048406
0.00468324
0.00204669
8.61007e-05
0.00029811
0.00151079
0.00235857
0.00247521
0.00251605
0.00261034
0.00128028
3.32636e-05
6.74913e-06
1.27447e-06
1.96173e-07
2.75995e-08
5.25297e-09
3.09844e-09
4.94076e-06
2.41194e-05
2.85138e-05
0.000244034
0.000245247
3.92022e-05
0.000116003
0.00234289
0.00246353
0.00247104
0.00246145
0.000746723
1.37239e-05
2.11633e-06
2.43125e-07
3.81831e-08
5.1682e-09
3.81023e-09
4.17727e-09
3.91756e-09
8.38174e-07
2.10848e-06
3.88875e-06
3.82093e-06
3.46146e-06
3.25373e-06
5.58568e-06
0.000667724
0.00150773
0.00123446
0.000417396
9.06639e-06
9.64308e-07
6.63947e-08
-6.99122e-09
-1.33388e-09
5.96135e-10
3.31326e-09
4.58773e-09
3.52338e-09
8.38431e-07
8.38431e-07
2.12071e-06
3.4754e-06
3.25724e-06
3.25724e-06
3.25724e-06
5.58584e-06
7.26188e-05
3.8365e-05
6.96162e-06
1.01893e-06
8.53609e-08
4.79437e-09
-1.6569e-10
-1.36758e-11
7.58101e-10
3.5647e-09
3.5565e-09
2.61158e-10
7.4312e-07
4.74123e-07
3.76555e-07
3.5517e-07
3.81895e-07
4.69205e-07
7.11487e-07
3.62858e-05
6.64312e-05
6.56343e-05
4.99022e-05
3.04831e-05
3.50263e-05
2.94719e-05
4.46032e-06
1.69916e-05
8.21343e-05
8.27732e-05
8.32128e-05
8.35356e-05
1.17041e-05
3.82582e-06
1.22434e-06
6.48828e-07
1.63881e-06
6.46434e-07
3.9087e-07
1.62957e-05
6.56323e-05
4.98497e-05
1.3538e-06
5.20367e-08
4.97143e-08
6.96707e-08
3.72361e-06
4.93728e-05
8.02493e-05
8.22713e-05
8.23406e-05
7.58634e-05
4.57117e-05
2.95874e-05
1.54492e-05
6.9873e-07
2.19664e-06
2.00283e-06
2.88697e-07
9.41671e-08
5.63878e-06
1.10223e-05
5.20768e-08
3.71309e-08
2.05482e-08
6.59851e-08
6.47345e-06
6.62665e-05
8.00279e-05
7.27244e-05
2.73449e-05
9.58198e-06
7.06466e-06
3.71165e-05
3.04409e-05
7.54561e-07
2.20796e-06
2.19074e-06
7.81733e-07
9.4172e-08
9.4172e-08
9.48684e-08
2.03766e-07
2.79785e-08
5.74732e-10
-6.82702e-10
-6.05749e-09
1.62566e-05
6.99435e-05
7.36173e-06
2.17168e-07
2.2577e-07
1.36089e-11
1.6761e-05
4.07671e-06
1.33741e-06
3.32413e-07
1.41502e-06
1.33928e-06
9.41712e-08
9.48676e-08
1.00619e-07
1.5082e-07
1.53564e-08
3.12475e-10
2.4736e-11
-1.60062e-10
2.74739e-10
1.65811e-09
2.52559e-06
2.10665e-07
2.15852e-07
1.46323e-11
1.46304e-11
1.47247e-11
1.65141e-11
8.23667e-11
1.97455e-08
1.33269e-06
1.95305e-07
1.23018e-07
1.06658e-06
1.03352e-06
3.13999e-10
1.10858e-10
8.11271e-11
2.67962e-11
-5.24657e-12
2.24458e-12
-2.87162e-10
2.10995e-07
2.37395e-07
1.46247e-11
1.46776e-11
1.49539e-11
1.81912e-11
7.96664e-11
4.8359e-08
2.17051e-07
2.56542e-08
2.37007e-07
2.15699e-06
2.41333e-06
2.22729e-09
4.20045e-10
3.95901e-10
1.64428e-11
3.75134e-12
3.61317e-12
3.42754e-12
3.62722e-12
1.0241e-11
1.47382e-11
1.54217e-11
2.52236e-11
1.04502e-10
2.36271e-10
2.60295e-10
4.37481e-10
1.96555e-09
2.94973e-07
2.45563e-06
2.54044e-06
9.67247e-07
1.87514e-09
2.71499e-09
2.56357e-10
1.29036e-10
3.62467e-12
3.62867e-12
3.63939e-12
3.70526e-12
1.94883e-11
2.78882e-11
5.24963e-11
1.30893e-10
2.43009e-10
3.65853e-10
1.22891e-09
6.83523e-09
5.85509e-07
2.54044e-06
2.54138e-06
2.30438e-06
1.08252e-09
5.70098e-10
7.39303e-10
4.80589e-10
3.08253e-11
4.02445e-12
5.13824e-12
5.23958e-12
4.64121e-11
7.18354e-11
9.96115e-11
1.2503e-10
2.51035e-10
9.3482e-10
9.20928e-09
2.96733e-07
1.0787e-06
2.42082e-06
2.56204e-06
2.58176e-06
1.11131e-06
3.25679e-10
3.73737e-10
7.22895e-10
2.56866e-10
4.60219e-12
8.88702e-12
9.08275e-12
9.50731e-11
1.39349e-10
1.73984e-10
2.19721e-10
4.90374e-10
2.60911e-09
2.79927e-07
1.28835e-06
1.51459e-06
1.16026e-06
1.96363e-06
2.58176e-06
2.47886e-06
2.12319e-08
3.71051e-10
8.20563e-10
5.13719e-10
1.67789e-11
1.6343e-11
1.59986e-11
1.42801e-10
1.89211e-10
2.19147e-10
2.86653e-10
6.65923e-10
3.85624e-09
7.43584e-07
1.5591e-06
1.5591e-06
2.18039e-07
1.43712e-07
2.58001e-06
2.55131e-06
8.97988e-07
3.74254e-10
7.21065e-10
5.58367e-10
6.92954e-11
5.12408e-11
4.45002e-11
1.96425e-10
2.43573e-10
2.65108e-10
5.48099e-10
8.25056e-10
2.92032e-09
7.14513e-07
1.55924e-06
1.32336e-06
4.53502e-09
2.1872e-09
1.03297e-06
2.52085e-06
1.35786e-06
4.24924e-10
4.08524e-10
4.22045e-10
1.56453e-10
1.61916e-10
1.45181e-10
3.6099e-10
4.07934e-10
3.54923e-10
3.91364e-09
5.21701e-09
5.42412e-09
4.0988e-07
1.54764e-06
3.97146e-07
-1.04559e-10
2.59142e-14
1.4749e-07
2.21216e-06
1.29601e-06
5.77401e-10
2.66405e-10
2.57821e-10
2.08402e-10
3.30044e-10
3.69026e-10
9.20968e-10
8.40335e-10
1.83924e-10
8.33961e-09
2.16014e-08
7.20909e-09
2.42921e-07
5.27786e-07
1.47988e-08
-1.72438e-09
-2.8499e-09
2.11507e-14
1.56849e-07
1.06953e-06
5.01804e-08
3.85379e-09
2.07485e-10
2.12506e-10
4.28318e-10
6.13916e-10
1.83545e-09
1.31128e-09
1.46555e-10
9.13521e-09
2.36422e-08
8.67538e-09
1.60655e-07
1.08303e-11
1.9354e-15
-3.0077e-09
-8.78368e-09
-1.81743e-09
3.89381e-16
8.87112e-11
1.60452e-07
3.39499e-08
1.89317e-10
1.80941e-10
4.18104e-10
7.15331e-10
2.7773e-09
1.52672e-09
6.34024e-11
3.81703e-09
2.38741e-08
2.21492e-08
8.42938e-11
3.22487e-10
-4.18088e-11
-2.79694e-09
-5.70666e-09
-3.28928e-09
8.80809e-15
7.64222e-10
1.17592e-07
4.41585e-08
3.81379e-09
1.63563e-10
1.53946e-10
6.84552e-10
3.02982e-09
1.05833e-09
1.89953e-11
7.1888e-15
1.13915e-08
3.26178e-09
1.51567e-14
-7.6248e-12
-3.09887e-10
-1.62091e-09
-1.80078e-09
-1.1466e-09
-1.88369e-10
3.39251e-14
1.10913e-15
4.9163e-09
1.03297e-08
3.27782e-10
4.43605e-12
2.62135e-10
9.65869e-10
7.87651e-11
5.78237e-14
-9.00229e-12
-3.97559e-11
-6.80475e-11
-7.22171e-11
-6.69824e-11
-1.60003e-10
-6.24495e-10
-2.26714e-10
-1.92866e-11
-1.60942e-12
-1.30462e-12
-7.97646e-13
-2.36573e-13
1.16128e-14
1.81751e-14
2.34055e-13
9.78994e-12
2.60667e-14
3.33739e-14
-1.16423e-12
-7.24708e-12
-1.80274e-11
-2.19338e-11
-1.58027e-11
-1.1164e-11
-3.47381e-11
-1.28672e-10
-2.23312e-11
-7.46763e-13
-2.31745e-13
-3.22879e-13
-2.5371e-13
-9.98619e-14
6.05996e-16
2.29602e-15
6.9489e-15
2.29506e-14
7.1719e-05
5.84709e-05
2.77931e-05
8.27698e-06
1.03705e-05
2.57779e-05
5.4655e-05
0.000418939
0.562999
0.998623
0.999996
1
1
1
1
1
1
0.999999
0.999999
1
7.68457e-05
7.74417e-05
7.70605e-05
6.94548e-06
1.75361e-05
0.000281089
6.58429e-05
0.00023073
0.375353
0.973378
0.999866
0.999741
1
0.999981
1
1
1
1
1
1
2.93814e-05
5.90979e-05
3.95319e-05
9.44185e-07
1.18336e-05
9.28887e-05
0.000100334
0.111522
0.263078
0.894377
0.999614
0.999718
0.995383
0.98171
0.991091
0.998754
1
1
1
1
2.22199e-07
4.4401e-07
7.89197e-06
5.01352e-08
1.44279e-05
0.000100215
0.00653696
0.000303442
6.4128e-05
0.302773
0.967788
0.999588
0.998161
0.997994
0.938412
0.78091
0.860964
0.939425
0.957237
0.952897
2.0982e-07
5.53159e-07
8.35246e-07
1.49724e-08
3.68218e-06
1.81302e-05
0.000885039
0.000490094
3.91229e-05
4.40245e-06
0.219866
0.94406
0.998004
0.997772
0.997509
0.798195
0.266568
0.246437
0.278065
0.264764
1.84021e-07
1.07669e-10
1.02068e-10
9.6068e-10
4.78733e-09
3.79473e-07
3.73743e-06
0.000120657
5.01451e-05
1.36758e-06
4.2556e-06
0.133411
0.437605
0.962883
0.996644
0.993002
0.798912
0.171854
0.0856698
0.0809992
3.84488e-12
3.97151e-12
4.13646e-12
1.02008e-08
3.54339e-07
3.33358e-07
1.18569e-07
1.84286e-07
5.19412e-06
6.85279e-07
1.2684e-07
2.37748e-06
0.000244349
0.149375
0.416781
0.870597
0.858993
0.643014
0.100822
0.0809992
3.78212e-12
3.94925e-12
3.99492e-12
4.9869e-12
7.21041e-12
-1.52076e-11
4.24066e-11
2.45652e-10
1.53081e-09
4.95676e-08
8.73194e-07
1.27264e-06
1.65474e-06
1.0103e-06
0.000165238
0.111618
0.529602
0.638441
0.217121
0.0809992
5.55624e-12
5.94723e-12
6.93251e-12
1.68141e-11
5.1734e-11
7.94934e-11
8.00571e-11
1.15319e-10
2.45673e-10
3.37324e-08
5.96455e-08
1.24556e-07
-7.65374e-08
3.54368e-07
-5.22037e-06
0.000178602
0.0370807
0.424823
0.317101
0.0828154
7.699e-12
6.34629e-12
7.7823e-12
1.79939e-11
5.96727e-11
8.24662e-11
7.09505e-11
1.99033e-10
1.53034e-09
1.95243e-08
6.15114e-08
9.15813e-08
1.06689e-07
2.64523e-07
-2.17416e-07
8.38607e-06
0.000166065
0.0219785
0.288243
0.0850446
1.06615e-11
7.59544e-12
1.15273e-11
3.30036e-11
4.87708e-11
8.52895e-11
1.16899e-10
-7.90527e-10
-7.9739e-09
3.97875e-08
4.24023e-08
2.23474e-07
3.4373e-07
4.28874e-07
3.70578e-09
-1.22031e-06
2.03215e-05
0.000251601
0.1246
0.0987823
2.13103e-11
1.25092e-11
2.52496e-11
5.5636e-11
7.80253e-11
2.51145e-10
3.19222e-09
5.21697e-08
-9.38489e-08
-1.75878e-06
9.33116e-07
6.34024e-07
4.6257e-07
9.65371e-06
3.07686e-06
6.76745e-06
1.30398e-05
5.91799e-05
0.0209264
0.0982258
6.25863e-11
2.73734e-11
7.87358e-11
4.26661e-10
4.66213e-09
6.0739e-08
6.77117e-07
5.87346e-06
3.6652e-05
2.02006e-05
5.82606e-05
0.00070121
0.000743828
0.000191169
7.08246e-06
1.31678e-05
2.03779e-05
3.47123e-05
0.0167377
0.0968487
2.04577e-10
7.73257e-11
1.91963e-10
1.45017e-09
1.89985e-08
2.29152e-07
2.20293e-06
1.58201e-05
9.69807e-05
0.000890866
0.00258394
0.00362601
0.00215995
3.78005e-05
2.35719e-05
2.04135e-05
3.08171e-05
0.000368969
0.0231918
0.079363
4.90847e-10
2.18018e-10
2.65471e-10
7.39335e-10
7.63855e-09
8.79321e-08
8.88882e-07
7.32121e-06
0.000138185
0.0024406
0.00363337
0.00366584
0.00352482
0.000252479
3.70701e-05
0.000872475
0.00338916
0.00683623
0.0126331
0.00704317
7.35606e-10
4.80804e-10
4.74616e-10
1.36004e-09
1.42585e-08
1.43415e-07
1.15166e-06
7.27677e-06
3.39931e-05
0.000538532
0.00319244
0.00360155
0.00361167
0.00350466
0.00289606
0.00300179
0.00302314
0.00128582
0.000213664
5.21615e-05
7.84206e-10
7.53003e-10
5.02376e-10
3.39732e-10
1.13278e-09
1.01234e-08
7.79803e-08
4.96784e-07
2.64963e-06
1.36857e-05
0.000396327
0.00266112
0.00351035
0.0034709
0.00342773
0.00165139
0.000185503
1.19961e-05
5.77946e-06
1.89022e-06
6.83752e-10
7.77941e-10
6.43713e-10
2.17058e-10
1.19987e-12
-2.38079e-11
-1.18027e-10
6.87509e-10
7.4709e-08
6.9181e-07
5.39206e-06
0.000308059
0.0013871
0.00199925
0.00111261
8.78341e-05
4.08763e-06
9.26222e-07
3.58589e-07
9.64979e-08
1.52222e-10
5.83948e-10
6.64995e-10
3.16281e-10
-5.60499e-13
-8.12167e-12
-6.82897e-11
-3.30432e-10
-6.88086e-10
2.66779e-08
3.84593e-07
2.72734e-06
8.26912e-06
2.33792e-05
1.09349e-05
2.40099e-06
4.91147e-07
9.83483e-08
3.54774e-08
1.73292e-08
1.70222e-14
3.10072e-11
4.18597e-10
2.43516e-10
2.64945e-15
5.39769e-14
-8.91975e-14
-2.69402e-12
-2.26083e-11
1.36625e-09
2.94542e-08
3.33931e-07
2.12523e-06
8.27388e-06
2.31053e-06
4.96326e-07
1.03231e-07
3.54774e-08
1.73292e-08
1.73292e-08
)
;

boundaryField
{
    leftWall
    {
        type            zeroGradient;
    }
    rightWall
    {
        type            zeroGradient;
    }
    lowerWall
    {
        type            zeroGradient;
    }
    atmosphere
    {
        type            inletOutlet;
        inletValue      uniform 0;
        value           nonuniform List<scalar> 
60
(
8.38431e-07
8.38431e-07
2.12071e-06
3.4754e-06
3.25724e-06
3.25724e-06
3.25724e-06
5.58584e-06
7.26188e-05
3.8365e-05
6.96162e-06
1.01893e-06
8.53609e-08
4.79437e-09
0
0
0
0
0
0
0
0
0
0
0
0
0
0
0
0
0
0
0
0
0
0
0
0
0
0
0
0
0
0
0
0
0
0
0
1.36625e-09
2.94542e-08
3.33931e-07
2.12523e-06
8.27388e-06
2.31053e-06
4.96326e-07
1.03231e-07
3.54774e-08
1.73292e-08
1.73292e-08
)
;
    }
    defaultFaces
    {
        type            empty;
    }
}


// ************************************************************************* //
