/*--------------------------------*- C++ -*----------------------------------*\
| =========                 |                                                 |
| \\      /  F ield         | OpenFOAM: The Open Source CFD Toolbox           |
|  \\    /   O peration     | Version:  2.4.0                                 |
|   \\  /    A nd           | Web:      www.OpenFOAM.org                      |
|    \\/     M anipulation  |                                                 |
\*---------------------------------------------------------------------------*/
FoamFile
{
    version     2.0;
    format      ascii;
    class       surfaceScalarField;
    location    "0.185";
    object      phiAlpha;
}
// * * * * * * * * * * * * * * * * * * * * * * * * * * * * * * * * * * * * * //

dimensions      [0 3 -1 0 0 0 0];

internalField   nonuniform List<scalar> 
119500
(
-2.06575e-10
2.06575e-10
-4.30317e-10
2.23741e-10
-6.57906e-10
2.27588e-10
-8.88271e-10
2.30365e-10
-1.12204e-09
2.33763e-10
-1.36e-09
2.37961e-10
-1.60302e-09
2.43023e-10
-1.852e-09
2.48978e-10
-2.10784e-09
2.55843e-10
-2.37149e-09
2.63648e-10
-2.64391e-09
2.72414e-10
-2.92608e-09
2.82168e-10
-3.21902e-09
2.92943e-10
-3.52379e-09
3.04775e-10
-3.8415e-09
3.177e-10
-4.17325e-09
3.31758e-10
-4.52025e-09
3.46994e-10
-4.88371e-09
3.63457e-10
-5.26491e-09
3.81201e-10
-5.66519e-09
4.0028e-10
-6.08594e-09
4.20758e-10
-6.52864e-09
4.42698e-10
-6.99481e-09
4.6617e-10
-7.48606e-09
4.91248e-10
-8.00407e-09
5.18008e-10
-8.5506e-09
5.46534e-10
-9.12752e-09
5.76912e-10
-9.73675e-09
6.09232e-10
-1.03803e-08
6.43591e-10
-1.10604e-08
6.80085e-10
-1.17792e-08
7.18819e-10
-1.25391e-08
7.59899e-10
-1.33426e-08
8.03437e-10
-1.41921e-08
8.49548e-10
-1.50905e-08
8.9835e-10
-1.60404e-08
9.49965e-10
-1.7045e-08
1.00452e-09
-1.81071e-08
1.06214e-09
-1.923e-08
1.12295e-09
-2.04171e-08
1.18708e-09
-2.16718e-08
1.25466e-09
-2.29976e-08
1.32583e-09
-2.43983e-08
1.4007e-09
-2.58777e-08
1.4794e-09
-2.74398e-08
1.56206e-09
-2.90885e-08
1.64877e-09
-3.08282e-08
1.73966e-09
-3.2663e-08
1.8348e-09
-3.45973e-08
1.93429e-09
-3.66355e-08
2.03819e-09
-3.8782e-08
2.14654e-09
-4.10414e-08
2.25936e-09
-4.3418e-08
2.37667e-09
-4.59165e-08
2.49842e-09
-4.8541e-08
2.62454e-09
-5.12959e-08
2.75493e-09
-5.41854e-08
2.88945e-09
-5.72133e-08
3.02789e-09
-6.03833e-08
3.16999e-09
-6.36987e-08
3.31544e-09
-6.71626e-08
3.46385e-09
-7.07773e-08
3.61479e-09
-7.4545e-08
3.76771e-09
-7.84671e-08
3.92202e-09
-8.25441e-08
4.07704e-09
-8.67761e-08
4.23201e-09
-9.11622e-08
4.38607e-09
-9.57005e-08
4.5383e-09
-1.00388e-07
4.68771e-09
-1.05221e-07
4.83324e-09
-1.10195e-07
4.97375e-09
-1.15303e-07
5.10811e-09
-1.20538e-07
5.23514e-09
-1.25892e-07
5.35366e-09
-1.31355e-07
5.46254e-09
-1.36915e-07
5.56071e-09
-1.42563e-07
5.64721e-09
-1.48284e-07
5.72122e-09
-1.54066e-07
5.7821e-09
-1.59895e-07
5.82943e-09
-1.65758e-07
5.86306e-09
-1.71642e-07
5.88314e-09
-1.77532e-07
5.89013e-09
-1.83416e-07
5.88481e-09
-1.89285e-07
5.86827e-09
-1.95127e-07
5.84188e-09
-2.00934e-07
5.80723e-09
-2.067e-07
5.76602e-09
-2.1242e-07
5.7198e-09
-2.1809e-07
5.66989e-09
-2.23707e-07
5.61729e-09
-2.29269e-07
5.56248e-09
-2.34774e-07
5.50458e-09
-2.40215e-07
5.44143e-09
-2.45587e-07
5.37215e-09
-2.50884e-07
5.29685e-09
-2.56088e-07
5.20419e-09
-2.61144e-07
5.05528e-09
-2.65947e-07
4.80343e-09
4.46626e-09
-2.70413e-07
-2.73806e-10
4.8038e-10
-5.75815e-10
5.25748e-10
-8.8022e-10
5.31992e-10
-1.18796e-09
5.38103e-10
-1.5002e-09
5.46002e-10
-1.81811e-09
5.55875e-10
-2.14289e-09
5.67803e-10
-2.47576e-09
5.81838e-10
-2.81794e-09
5.98028e-10
-3.17073e-09
6.16431e-10
-3.53542e-09
6.37106e-10
-3.91337e-09
6.60119e-10
-4.30597e-09
6.85548e-10
-4.71468e-09
7.13478e-10
-5.14098e-09
7.44e-10
-5.58643e-09
7.77214e-10
-6.05267e-09
8.13232e-10
-6.54139e-09
8.52172e-10
-7.05435e-09
8.94163e-10
-7.59341e-09
9.39344e-10
-8.16052e-09
9.87863e-10
-8.7577e-09
1.03988e-09
-9.3871e-09
1.09557e-09
-1.0051e-08
1.15511e-09
-1.07517e-08
1.2187e-09
-1.14917e-08
1.28654e-09
-1.22736e-08
1.35885e-09
-1.31002e-08
1.43585e-09
-1.39744e-08
1.5178e-09
-1.48993e-08
1.60493e-09
-1.5878e-08
1.69751e-09
-1.69139e-08
1.79582e-09
-1.80106e-08
1.90016e-09
-1.91719e-08
2.01081e-09
-2.04016e-08
2.12809e-09
-2.1704e-08
2.25233e-09
-2.30833e-08
2.38386e-09
-2.45442e-08
2.52303e-09
-2.60914e-08
2.67019e-09
-2.77301e-08
2.8257e-09
-2.94653e-08
2.98994e-09
-3.13028e-08
3.16328e-09
-3.32482e-08
3.34611e-09
-3.53076e-08
3.5388e-09
-3.74873e-08
3.74174e-09
-3.97938e-08
3.95531e-09
-4.2234e-08
4.17987e-09
-4.4815e-08
4.41578e-09
-4.75441e-08
4.66339e-09
-5.04289e-08
4.92301e-09
-5.34773e-08
5.19493e-09
-5.66974e-08
5.47941e-09
-6.00974e-08
5.77666e-09
-6.36858e-08
6.08683e-09
-6.74713e-08
6.41002e-09
-7.14626e-08
6.74626e-09
-7.56686e-08
7.09548e-09
-8.00982e-08
7.45752e-09
-8.47604e-08
7.83211e-09
-8.96638e-08
8.21886e-09
-9.48171e-08
8.61721e-09
-1.00229e-07
9.02648e-09
-1.05907e-07
9.44581e-09
-1.11859e-07
9.87414e-09
-1.18092e-07
1.03102e-08
-1.24613e-07
1.07526e-08
-1.31426e-07
1.11996e-08
-1.38537e-07
1.16492e-08
-1.45949e-07
1.20994e-08
-1.53663e-07
1.25477e-08
-1.61681e-07
1.29914e-08
-1.70001e-07
1.34277e-08
-1.78619e-07
1.38535e-08
-1.87531e-07
1.42655e-08
-1.96729e-07
1.46603e-08
-2.06202e-07
1.50342e-08
-2.15939e-07
1.53836e-08
-2.25922e-07
1.57048e-08
-2.36134e-07
1.59942e-08
-2.46553e-07
1.62481e-08
-2.57153e-07
1.64631e-08
-2.67906e-07
1.66359e-08
-2.78779e-07
1.67634e-08
-2.89737e-07
1.68427e-08
-3.0074e-07
1.68712e-08
-3.11744e-07
1.68464e-08
-3.22703e-07
1.67656e-08
-3.33563e-07
1.66264e-08
-3.44269e-07
1.64257e-08
-3.54759e-07
1.61601e-08
-3.64967e-07
1.58254e-08
-3.7482e-07
1.54154e-08
-3.84237e-07
1.49211e-08
-3.93127e-07
1.4332e-08
-4.01395e-07
1.36398e-08
-4.08937e-07
1.28387e-08
-4.15643e-07
1.19107e-08
-4.21402e-07
1.08135e-08
-4.26108e-07
9.50987e-09
8.04315e-09
-4.29685e-07
-2.81627e-10
7.62006e-10
-5.92069e-10
8.36189e-10
-9.0512e-10
8.45042e-10
-1.22156e-09
8.54542e-10
-1.54261e-09
8.67049e-10
-1.86948e-09
8.82748e-10
-2.20341e-09
9.01731e-10
-2.54565e-09
9.24074e-10
-2.89747e-09
9.49851e-10
-3.26019e-09
9.79153e-10
-3.63517e-09
1.01208e-09
-4.02378e-09
1.04873e-09
-4.42746e-09
1.08923e-09
-4.84771e-09
1.13373e-09
-5.28607e-09
1.18236e-09
-5.74414e-09
1.23529e-09
-6.2236e-09
1.29269e-09
-6.7262e-09
1.35477e-09
-7.25376e-09
1.42172e-09
-7.8082e-09
1.49378e-09
-8.39152e-09
1.57118e-09
-9.00582e-09
1.65418e-09
-9.65331e-09
1.74306e-09
-1.03363e-08
1.83811e-09
-1.10573e-08
1.93965e-09
-1.18187e-08
2.04801e-09
-1.26234e-08
2.16355e-09
-1.34742e-08
2.28662e-09
-1.4374e-08
2.41764e-09
-1.53261e-08
2.557e-09
-1.63337e-08
2.70514e-09
-1.74004e-08
2.86252e-09
-1.85299e-08
3.02961e-09
-1.9726e-08
3.2069e-09
-2.09928e-08
3.39492e-09
-2.23347e-08
3.59419e-09
-2.37561e-08
3.80528e-09
-2.52618e-08
4.02875e-09
-2.68569e-08
4.26522e-09
-2.85465e-08
4.51529e-09
-3.03361e-08
4.77959e-09
-3.22316e-08
5.05876e-09
-3.42389e-08
5.35346e-09
-3.63645e-08
5.66434e-09
-3.86148e-08
5.99208e-09
-4.09969e-08
6.33735e-09
-4.35178e-08
6.7008e-09
-4.61851e-08
7.08309e-09
-4.90066e-08
7.48486e-09
-5.19903e-08
7.90671e-09
-5.51446e-08
8.34922e-09
-5.84781e-08
8.81291e-09
-6.19997e-08
9.29826e-09
-6.57185e-08
9.80566e-09
-6.96439e-08
1.03355e-08
-7.37855e-08
1.08878e-08
-7.81529e-08
1.14629e-08
-8.27561e-08
1.20606e-08
-8.76048e-08
1.26808e-08
-9.27089e-08
1.3323e-08
-9.80784e-08
1.39867e-08
-1.03723e-07
1.4671e-08
-1.09652e-07
1.53748e-08
-1.15875e-07
1.60968e-08
-1.224e-07
1.68352e-08
-1.29235e-07
1.75879e-08
-1.36388e-07
1.83527e-08
-1.43865e-07
1.91266e-08
-1.51672e-07
1.99064e-08
-1.59813e-07
2.06884e-08
-1.6829e-07
2.14686e-08
-1.77105e-07
2.22423e-08
-1.86256e-07
2.30044e-08
-1.9574e-07
2.37494e-08
-2.05551e-07
2.44715e-08
-2.15681e-07
2.5164e-08
-2.26117e-07
2.58204e-08
-2.36846e-07
2.64333e-08
-2.47847e-07
2.69953e-08
-2.59098e-07
2.74988e-08
-2.7057e-07
2.79356e-08
-2.82232e-07
2.82977e-08
-2.94045e-07
2.85768e-08
-3.05967e-07
2.87644e-08
-3.17948e-07
2.88519e-08
-3.29932e-07
2.88307e-08
-3.41858e-07
2.86918e-08
-3.53658e-07
2.8426e-08
-3.65256e-07
2.80238e-08
-3.76571e-07
2.74754e-08
-3.87516e-07
2.67698e-08
-3.97994e-07
2.58933e-08
-4.07902e-07
2.48295e-08
-4.17133e-07
2.35629e-08
-4.25578e-07
2.20845e-08
-4.33129e-07
2.03899e-08
-4.39681e-07
1.84635e-08
-4.45138e-07
1.62697e-08
-4.49414e-07
1.37864e-08
1.10645e-08
-4.52436e-07
-2.82041e-10
1.04405e-09
-5.92238e-10
1.14638e-09
-9.0541e-10
1.15821e-09
-1.22199e-09
1.17112e-09
-1.54317e-09
1.18823e-09
-1.87017e-09
1.20975e-09
-2.20422e-09
1.23578e-09
-2.54658e-09
1.26643e-09
-2.89851e-09
1.30178e-09
-3.26134e-09
1.34198e-09
-3.63641e-09
1.38715e-09
-4.02511e-09
1.43743e-09
-4.42889e-09
1.49301e-09
-4.84922e-09
1.55406e-09
-5.28765e-09
1.62079e-09
-5.74579e-09
1.69343e-09
-6.22532e-09
1.77222e-09
-6.72797e-09
1.85742e-09
-7.25558e-09
1.94933e-09
-7.81005e-09
2.04825e-09
-8.39338e-09
2.15452e-09
-9.0077e-09
2.26849e-09
-9.65518e-09
2.39055e-09
-1.03382e-08
2.5211e-09
-1.10591e-08
2.66058e-09
-1.18205e-08
2.80944e-09
-1.26252e-08
2.96819e-09
-1.34759e-08
3.13732e-09
-1.43756e-08
3.31739e-09
-1.53276e-08
3.50896e-09
-1.63351e-08
3.71264e-09
-1.74016e-08
3.92906e-09
-1.85309e-08
4.15888e-09
-1.97268e-08
4.40279e-09
-2.09934e-08
4.6615e-09
-2.23349e-08
4.93576e-09
-2.3756e-08
5.22637e-09
-2.52614e-08
5.53411e-09
-2.6856e-08
5.85984e-09
-2.85451e-08
6.2044e-09
-3.03342e-08
6.56869e-09
-3.22291e-08
6.95362e-09
-3.42357e-08
7.3601e-09
-3.63604e-08
7.78908e-09
-3.86099e-08
8.24151e-09
-4.09909e-08
8.71836e-09
-4.35106e-08
9.22056e-09
-4.61766e-08
9.74907e-09
-4.89966e-08
1.03048e-08
-5.19785e-08
1.08887e-08
-5.51309e-08
1.15016e-08
-5.84622e-08
1.21442e-08
-6.19813e-08
1.28174e-08
-6.56973e-08
1.35217e-08
-6.96195e-08
1.42577e-08
-7.37575e-08
1.50258e-08
-7.81209e-08
1.58263e-08
-8.27195e-08
1.66592e-08
-8.75631e-08
1.75244e-08
-9.26615e-08
1.84215e-08
-9.80247e-08
1.93498e-08
-1.03662e-07
2.03084e-08
-1.09583e-07
2.12959e-08
-1.15797e-07
2.23106e-08
-1.22312e-07
2.33504e-08
-1.29137e-07
2.44126e-08
-1.36278e-07
2.54941e-08
-1.43743e-07
2.65912e-08
-1.51536e-07
2.76996e-08
-1.59662e-07
2.88144e-08
-1.68124e-07
2.993e-08
-1.76922e-07
3.10401e-08
-1.86055e-07
3.21377e-08
-1.95521e-07
3.32152e-08
-2.05313e-07
3.4264e-08
-2.15424e-07
3.52751e-08
-2.25842e-07
3.62385e-08
-2.36553e-07
3.71437e-08
-2.47537e-07
3.79796e-08
-2.58773e-07
3.87343e-08
-2.70232e-07
3.93953e-08
-2.81884e-07
3.99499e-08
-2.93692e-07
4.03845e-08
-3.05613e-07
4.06853e-08
-3.17599e-07
4.08378e-08
-3.29596e-07
4.08275e-08
-3.41543e-07
4.0639e-08
-3.53374e-07
4.0257e-08
-3.65016e-07
3.96657e-08
-3.7639e-07
3.88493e-08
-3.8741e-07
3.77906e-08
-3.97987e-07
3.64693e-08
-4.0802e-07
3.48625e-08
-4.17407e-07
3.29502e-08
-4.26045e-07
3.07224e-08
-4.33831e-07
2.81756e-08
-4.40663e-07
2.52955e-08
-4.46444e-07
2.20512e-08
-4.51086e-07
1.84281e-08
1.44656e-08
-4.54487e-07
-2.81338e-10
1.32538e-09
-5.90415e-10
1.45546e-09
-9.02591e-10
1.47039e-09
-1.2182e-09
1.48672e-09
-1.5384e-09
1.50843e-09
-1.8644e-09
1.53575e-09
-2.19743e-09
1.56881e-09
-2.53873e-09
1.60773e-09
-2.88959e-09
1.65264e-09
-3.2513e-09
1.70369e-09
-3.62522e-09
1.76106e-09
-4.01273e-09
1.82494e-09
-4.41526e-09
1.89554e-09
-4.8343e-09
1.9731e-09
-5.27138e-09
2.05787e-09
-5.72811e-09
2.15016e-09
-6.20615e-09
2.25026e-09
-6.70725e-09
2.35852e-09
-7.23322e-09
2.4753e-09
-7.78597e-09
2.601e-09
-8.3675e-09
2.73605e-09
-8.9799e-09
2.88089e-09
-9.62537e-09
3.03602e-09
-1.03062e-08
3.20196e-09
-1.10249e-08
3.37926e-09
-1.1784e-08
3.5685e-09
-1.25861e-08
3.77032e-09
-1.34342e-08
3.98537e-09
-1.43311e-08
4.21434e-09
-1.52801e-08
4.45797e-09
-1.62845e-08
4.71703e-09
-1.73478e-08
4.99231e-09
-1.84736e-08
5.28468e-09
-1.96658e-08
5.595e-09
-2.09285e-08
5.9242e-09
-2.2266e-08
6.27325e-09
-2.36827e-08
6.64314e-09
-2.51835e-08
7.03492e-09
-2.67734e-08
7.44966e-09
-2.84574e-08
7.88846e-09
-3.02412e-08
8.35247e-09
-3.21304e-08
8.84286e-09
-3.41312e-08
9.36083e-09
-3.62497e-08
9.9076e-09
-3.84926e-08
1.04844e-08
-4.08667e-08
1.10925e-08
-4.33792e-08
1.17331e-08
-4.60376e-08
1.24075e-08
-4.88496e-08
1.31168e-08
-5.18233e-08
1.38623e-08
-5.49669e-08
1.46451e-08
-5.8289e-08
1.54663e-08
-6.17985e-08
1.63268e-08
-6.55044e-08
1.72276e-08
-6.94161e-08
1.81694e-08
-7.35431e-08
1.91528e-08
-7.7895e-08
2.01782e-08
-8.24815e-08
2.12457e-08
-8.73125e-08
2.23554e-08
-9.23977e-08
2.35067e-08
-9.7747e-08
2.46991e-08
-1.0337e-07
2.59313e-08
-1.09276e-07
2.72018e-08
-1.15474e-07
2.85085e-08
-1.21972e-07
2.98488e-08
-1.28779e-07
3.12196e-08
-1.35902e-07
3.26169e-08
-1.43347e-07
3.40361e-08
-1.51119e-07
3.54719e-08
-1.59223e-07
3.69181e-08
-1.6766e-07
3.83676e-08
-1.76433e-07
3.98126e-08
-1.85539e-07
4.1244e-08
-1.94976e-07
4.2652e-08
-2.04737e-07
4.40257e-08
-2.14815e-07
4.53532e-08
-2.25199e-07
4.66218e-08
-2.35873e-07
4.78175e-08
-2.46819e-07
4.89256e-08
-2.58015e-07
4.99303e-08
-2.69434e-07
5.0815e-08
-2.81047e-07
5.15624e-08
-2.92816e-07
5.21542e-08
-3.04703e-07
5.25714e-08
-3.16659e-07
5.27944e-08
-3.28634e-07
5.28028e-08
-3.40571e-07
5.25758e-08
-3.52406e-07
5.2092e-08
-3.6407e-07
5.13298e-08
-3.75488e-07
5.02675e-08
-3.8658e-07
4.88818e-08
-3.97255e-07
4.71452e-08
-4.07421e-07
4.50276e-08
-4.16973e-07
4.2503e-08
-4.25809e-07
3.95584e-08
-4.33822e-07
3.61886e-08
-4.40905e-07
3.23782e-08
-4.46951e-07
2.80971e-08
-4.51852e-07
2.33292e-08
1.81054e-08
-4.55492e-07
-2.80215e-10
1.6056e-09
-5.87873e-10
1.76312e-09
-8.98677e-10
1.78119e-09
-1.21292e-09
1.80096e-09
-1.53174e-09
1.82725e-09
-1.85634e-09
1.86035e-09
-2.18794e-09
1.90041e-09
-2.52778e-09
1.94757e-09
-2.87714e-09
2.00199e-09
-3.23731e-09
2.06386e-09
-3.60963e-09
2.13339e-09
-3.9955e-09
2.2108e-09
-4.39633e-09
2.29637e-09
-4.81359e-09
2.39036e-09
-5.24883e-09
2.49311e-09
-5.70364e-09
2.60496e-09
-6.17967e-09
2.72629e-09
-6.67867e-09
2.85751e-09
-7.20244e-09
2.99907e-09
-7.75289e-09
3.15145e-09
-8.33199e-09
3.31515e-09
-8.94185e-09
3.49075e-09
-9.58464e-09
3.67882e-09
-1.02627e-08
3.88e-09
-1.09784e-08
4.09497e-09
-1.17343e-08
4.32444e-09
-1.25332e-08
4.56917e-09
-1.33778e-08
4.82996e-09
-1.42711e-08
5.10765e-09
-1.52163e-08
5.40314e-09
-1.62166e-08
5.71736e-09
-1.72756e-08
6.0513e-09
-1.83969e-08
6.40598e-09
-1.95844e-08
6.78249e-09
-2.08421e-08
7.18194e-09
-2.21744e-08
7.60552e-09
-2.35857e-08
8.05444e-09
-2.50807e-08
8.52997e-09
-2.66645e-08
9.03343e-09
-2.83422e-08
9.56618e-09
-3.01194e-08
1.01296e-08
-3.20017e-08
1.07252e-08
-3.39951e-08
1.13543e-08
-3.61061e-08
1.20185e-08
-3.83411e-08
1.27194e-08
-4.0707e-08
1.34584e-08
-4.32109e-08
1.42371e-08
-4.58604e-08
1.5057e-08
-4.86632e-08
1.59196e-08
-5.16274e-08
1.68264e-08
-5.47611e-08
1.77789e-08
-5.80731e-08
1.87783e-08
-6.15722e-08
1.9826e-08
-6.52676e-08
2.0923e-08
-6.91685e-08
2.20703e-08
-7.32845e-08
2.32688e-08
-7.76252e-08
2.45189e-08
-8.22006e-08
2.58211e-08
-8.70204e-08
2.71752e-08
-9.20945e-08
2.85809e-08
-9.74328e-08
3.00374e-08
-1.03045e-07
3.15434e-08
-1.0894e-07
3.30972e-08
-1.15128e-07
3.46963e-08
-1.21617e-07
3.63378e-08
-1.28415e-07
3.80177e-08
-1.3553e-07
3.97315e-08
-1.42967e-07
4.14737e-08
-1.50733e-07
4.3238e-08
-1.58832e-07
4.50168e-08
-1.67266e-07
4.68016e-08
-1.76036e-07
4.85828e-08
-1.85142e-07
5.03495e-08
-1.9458e-07
5.20898e-08
-2.04344e-07
5.37902e-08
-2.14427e-07
5.54363e-08
-2.24818e-07
5.70121e-08
-2.35501e-07
5.85005e-08
-2.46458e-07
5.98832e-08
-2.57669e-07
6.11407e-08
-2.69106e-07
6.22522e-08
-2.80739e-07
6.31958e-08
-2.92534e-07
6.39487e-08
-3.0445e-07
6.44871e-08
-3.16441e-07
6.4786e-08
-3.28458e-07
6.48198e-08
-3.40444e-07
6.45619e-08
-3.52337e-07
6.39852e-08
-3.6407e-07
6.30624e-08
-3.75568e-07
6.17657e-08
-3.86752e-07
6.00653e-08
-3.97533e-07
5.79264e-08
-4.07816e-07
5.53108e-08
-4.17499e-07
5.21859e-08
-4.26475e-07
4.85343e-08
-4.34635e-07
4.43491e-08
-4.4187e-07
3.96131e-08
-4.48068e-07
3.42949e-08
-4.53115e-07
2.83758e-08
2.1881e-08
-4.5689e-07
-2.78769e-10
1.88437e-09
-5.84736e-10
2.06908e-09
-8.93858e-10
2.09031e-09
-1.20641e-09
2.11351e-09
-1.52353e-09
2.14437e-09
-1.8464e-09
2.18322e-09
-2.17624e-09
2.23024e-09
-2.51428e-09
2.28561e-09
-2.86178e-09
2.3495e-09
-3.22006e-09
2.42214e-09
-3.59043e-09
2.50376e-09
-3.97427e-09
2.59465e-09
-4.373e-09
2.6951e-09
-4.78809e-09
2.80545e-09
-5.22107e-09
2.92609e-09
-5.67352e-09
3.05741e-09
-6.1471e-09
3.19987e-09
-6.64352e-09
3.35394e-09
-7.1646e-09
3.52015e-09
-7.71223e-09
3.69907e-09
-8.28837e-09
3.8913e-09
-8.89512e-09
4.09749e-09
-9.53465e-09
4.31835e-09
-1.02093e-08
4.55461e-09
-1.09214e-08
4.80707e-09
-1.16735e-08
5.07658e-09
-1.24683e-08
5.36402e-09
-1.33087e-08
5.67033e-09
-1.41976e-08
5.99653e-09
-1.51381e-08
6.34364e-09
-1.61335e-08
6.71279e-09
-1.71873e-08
7.10512e-09
-1.83032e-08
7.52185e-09
-1.9485e-08
7.96425e-09
-2.07367e-08
8.43366e-09
-2.20626e-08
8.93146e-09
-2.34673e-08
9.45909e-09
-2.49553e-08
1.0018e-08
-2.65318e-08
1.06099e-08
-2.82019e-08
1.12362e-08
-2.9971e-08
1.18987e-08
-3.18449e-08
1.25991e-08
-3.38296e-08
1.3339e-08
-3.59314e-08
1.41203e-08
-3.81569e-08
1.49449e-08
-4.05129e-08
1.58144e-08
-4.30065e-08
1.67308e-08
-4.56454e-08
1.76958e-08
-4.84371e-08
1.87113e-08
-5.13898e-08
1.97791e-08
-5.45118e-08
2.09009e-08
-5.78118e-08
2.20783e-08
-6.12986e-08
2.33128e-08
-6.49813e-08
2.46057e-08
-6.88695e-08
2.59584e-08
-7.29725e-08
2.73719e-08
-7.73003e-08
2.88467e-08
-8.18626e-08
3.03834e-08
-8.66695e-08
3.19821e-08
-9.17309e-08
3.36423e-08
-9.70568e-08
3.53632e-08
-1.02657e-07
3.71436e-08
-1.08541e-07
3.89813e-08
-1.14718e-07
4.08736e-08
-1.21198e-07
4.28171e-08
-1.27987e-07
4.48073e-08
-1.35095e-07
4.68391e-08
-1.42527e-07
4.8906e-08
-1.5029e-07
5.10005e-08
-1.58387e-07
5.3114e-08
-1.66822e-07
5.52365e-08
-1.75596e-07
5.73567e-08
-1.84708e-07
5.94619e-08
-1.94156e-07
6.15377e-08
-2.03934e-07
6.35685e-08
-2.14035e-07
6.5537e-08
-2.24447e-07
6.74243e-08
-2.35157e-07
6.921e-08
-2.46146e-07
7.08723e-08
-2.57393e-07
7.23876e-08
-2.68872e-07
7.37312e-08
-2.80553e-07
7.48767e-08
-2.92401e-07
7.57967e-08
-3.04376e-07
7.64623e-08
-3.16434e-07
7.68436e-08
-3.28523e-07
7.69094e-08
-3.40589e-07
7.66276e-08
-3.52569e-07
7.59653e-08
-3.64396e-07
7.48892e-08
-3.75996e-07
7.33656e-08
-3.87288e-07
7.1358e-08
-3.98186e-07
6.88241e-08
-4.08593e-07
6.57175e-08
-4.18406e-07
6.19987e-08
-4.27518e-07
5.76464e-08
-4.3582e-07
5.26514e-08
-4.43202e-07
4.69948e-08
-4.49549e-07
4.06419e-08
-4.54742e-07
3.35696e-08
2.57998e-08
-4.58661e-07
-2.77031e-10
2.1614e-09
-5.81028e-10
2.37308e-09
-8.88173e-10
2.39745e-09
-1.19874e-09
2.42407e-09
-1.51384e-09
2.45948e-09
-1.83467e-09
2.50405e-09
-2.16243e-09
2.558e-09
-2.49834e-09
2.62152e-09
-2.84367e-09
2.69483e-09
-3.1997e-09
2.77817e-09
-3.56776e-09
2.87182e-09
-3.94921e-09
2.9761e-09
-4.34547e-09
3.09136e-09
-4.758e-09
3.21798e-09
-5.18832e-09
3.3564e-09
-5.63799e-09
3.50708e-09
-6.10866e-09
3.67054e-09
-6.60206e-09
3.84733e-09
-7.11997e-09
4.03806e-09
-7.66427e-09
4.24337e-09
-8.23693e-09
4.46396e-09
-8.84002e-09
4.70058e-09
-9.4757e-09
4.95404e-09
-1.01463e-08
5.22518e-09
-1.08541e-08
5.51492e-09
-1.16018e-08
5.82424e-09
-1.23919e-08
6.15415e-09
-1.32273e-08
6.50575e-09
-1.4111e-08
6.88017e-09
-1.5046e-08
7.27864e-09
-1.60356e-08
7.70242e-09
-1.70833e-08
8.15284e-09
-1.81928e-08
8.6313e-09
-1.93678e-08
9.13927e-09
-2.06124e-08
9.67829e-09
-2.19309e-08
1.02499e-08
-2.33277e-08
1.08559e-08
-2.48076e-08
1.14979e-08
-2.63755e-08
1.21778e-08
-2.80365e-08
1.28973e-08
-2.97962e-08
1.36584e-08
-3.16602e-08
1.44631e-08
-3.36346e-08
1.53134e-08
-3.57256e-08
1.62114e-08
-3.79398e-08
1.71591e-08
-4.02841e-08
1.81587e-08
-4.27656e-08
1.92123e-08
-4.53918e-08
2.0322e-08
-4.81705e-08
2.149e-08
-5.11098e-08
2.27184e-08
-5.42179e-08
2.4009e-08
-5.75036e-08
2.5364e-08
-6.09757e-08
2.67849e-08
-6.46436e-08
2.82736e-08
-6.85166e-08
2.98314e-08
-7.26043e-08
3.14596e-08
-7.69166e-08
3.3159e-08
-8.14635e-08
3.49303e-08
-8.6255e-08
3.67736e-08
-9.13013e-08
3.86885e-08
-9.66123e-08
4.06743e-08
-1.02198e-07
4.27294e-08
-1.08069e-07
4.48517e-08
-1.14233e-07
4.70381e-08
-1.20701e-07
4.92847e-08
-1.2748e-07
5.15867e-08
-1.34579e-07
5.39379e-08
-1.42004e-07
5.63314e-08
-1.49762e-07
5.87584e-08
-1.57857e-07
6.12092e-08
-1.66293e-07
6.36723e-08
-1.75071e-07
6.61347e-08
-1.84191e-07
6.85819e-08
-1.93651e-07
7.09973e-08
-2.03445e-07
7.33629e-08
-2.13567e-07
7.56586e-08
-2.24005e-07
7.78626e-08
-2.34746e-07
7.99512e-08
-2.45773e-07
8.18989e-08
-2.57063e-07
8.36784e-08
-2.68593e-07
8.52607e-08
-2.80332e-07
8.66152e-08
-2.92244e-07
8.77095e-08
-3.04292e-07
8.851e-08
-3.1643e-07
8.89813e-08
-3.28607e-07
8.90871e-08
-3.40769e-07
8.87895e-08
-3.52854e-07
8.80497e-08
-3.64793e-07
8.68287e-08
-3.76514e-07
8.50865e-08
-3.87936e-07
8.278e-08
-3.98971e-07
7.98593e-08
-4.09524e-07
7.62698e-08
-4.1949e-07
7.19652e-08
-4.28764e-07
6.692e-08
-4.37235e-07
6.11226e-08
-4.44792e-07
5.45514e-08
-4.51317e-07
4.71671e-08
-4.56688e-07
3.89411e-08
2.98939e-08
-4.60782e-07
-2.75013e-10
2.43641e-09
-5.76761e-10
2.67482e-09
-8.81638e-10
2.70233e-09
-1.18992e-09
2.73235e-09
-1.50271e-09
2.77227e-09
-1.82119e-09
2.82253e-09
-2.14656e-09
2.88336e-09
-2.48003e-09
2.95499e-09
-2.82285e-09
3.03765e-09
-3.1763e-09
3.13162e-09
-3.5417e-09
3.23722e-09
-3.92042e-09
3.35481e-09
-4.31384e-09
3.48478e-09
-4.72342e-09
3.62756e-09
-5.15066e-09
3.78365e-09
-5.59714e-09
3.95356e-09
-6.06449e-09
4.13789e-09
-6.5544e-09
4.33725e-09
-7.06867e-09
4.55232e-09
-7.60915e-09
4.78385e-09
-8.1778e-09
5.03261e-09
-8.77668e-09
5.29946e-09
-9.40794e-09
5.5853e-09
-1.00739e-08
5.89109e-09
-1.07768e-08
6.21788e-09
-1.15193e-08
6.56675e-09
-1.2304e-08
6.93886e-09
-1.31338e-08
7.33545e-09
-1.40114e-08
7.75782e-09
-1.49401e-08
8.20732e-09
-1.5923e-08
8.68539e-09
-1.69638e-08
9.19355e-09
-1.80658e-08
9.73338e-09
-1.92331e-08
1.03065e-08
-2.04696e-08
1.09148e-08
-2.17795e-08
1.15599e-08
-2.31673e-08
1.22437e-08
-2.46377e-08
1.29683e-08
-2.61957e-08
1.37357e-08
-2.78463e-08
1.45479e-08
-2.95951e-08
1.54072e-08
-3.14477e-08
1.63157e-08
-3.34102e-08
1.72759e-08
-3.54888e-08
1.82899e-08
-3.769e-08
1.93603e-08
-4.00208e-08
2.04895e-08
-4.24883e-08
2.16798e-08
-4.51e-08
2.29337e-08
-4.78636e-08
2.42537e-08
-5.07873e-08
2.5642e-08
-5.38794e-08
2.71011e-08
-5.71486e-08
2.86331e-08
-6.06038e-08
3.02402e-08
-6.42544e-08
3.19242e-08
-6.81098e-08
3.36868e-08
-7.21797e-08
3.55295e-08
-7.64741e-08
3.74534e-08
-8.1003e-08
3.94592e-08
-8.57766e-08
4.15472e-08
-9.08051e-08
4.37171e-08
-9.60989e-08
4.59681e-08
-1.01668e-07
4.82985e-08
-1.07522e-07
5.07061e-08
-1.13672e-07
5.31876e-08
-1.20126e-07
5.57386e-08
-1.26893e-07
5.83537e-08
-1.33981e-07
6.10263e-08
-1.41398e-07
6.37483e-08
-1.4915e-07
6.65104e-08
-1.57242e-07
6.93012e-08
-1.65678e-07
7.21082e-08
-1.7446e-07
7.49165e-08
-1.83588e-07
7.77098e-08
-1.9306e-07
8.04694e-08
-2.02872e-07
8.31747e-08
-2.13016e-07
8.58031e-08
-2.23483e-07
8.83298e-08
-2.3426e-07
9.07276e-08
-2.45328e-07
9.29676e-08
-2.56669e-07
9.50187e-08
-2.68255e-07
9.68474e-08
-2.80059e-07
9.84189e-08
-2.92046e-07
9.9696e-08
-3.04176e-07
1.0064e-07
-3.16405e-07
1.01211e-07
-3.28684e-07
1.01366e-07
-3.40956e-07
1.01062e-07
-3.53161e-07
1.00255e-07
-3.65231e-07
9.88987e-08
-3.77093e-07
9.69482e-08
-3.88666e-07
9.43532e-08
-3.99863e-07
9.1056e-08
-4.10587e-07
8.6994e-08
-4.20735e-07
8.21135e-08
-4.302e-07
7.63848e-08
-4.38871e-07
6.97939e-08
-4.46635e-07
6.23152e-08
-4.53371e-07
5.39033e-08
-4.58953e-07
4.45233e-08
3.41953e-08
-4.63255e-07
-2.72724e-10
2.70913e-09
-5.7194e-10
2.97404e-09
-8.74262e-10
3.00465e-09
-1.17997e-09
3.03805e-09
-1.49016e-09
3.08246e-09
-1.80599e-09
3.13836e-09
-2.12865e-09
3.20603e-09
-2.45936e-09
3.28569e-09
-2.79935e-09
3.37764e-09
-3.1499e-09
3.48217e-09
-3.51231e-09
3.59963e-09
-3.88792e-09
3.73043e-09
-4.27814e-09
3.87499e-09
-4.68439e-09
4.03382e-09
-5.10818e-09
4.20744e-09
-5.55106e-09
4.39644e-09
-6.01464e-09
4.60147e-09
-6.50063e-09
4.82323e-09
-7.01078e-09
5.06248e-09
-7.54695e-09
5.32002e-09
-8.11108e-09
5.59674e-09
-8.70521e-09
5.89359e-09
-9.33149e-09
6.21157e-09
-9.99215e-09
6.55176e-09
-1.06896e-08
6.91531e-09
-1.14263e-08
7.30345e-09
-1.22049e-08
7.71746e-09
-1.30282e-08
8.15872e-09
-1.3899e-08
8.62868e-09
-1.48205e-08
9.12885e-09
-1.5796e-08
9.66084e-09
-1.68288e-08
1.02263e-08
-1.79225e-08
1.08271e-08
-1.9081e-08
1.1465e-08
-2.03083e-08
1.2142e-08
-2.16085e-08
1.28601e-08
-2.29862e-08
1.36214e-08
-2.44459e-08
1.44281e-08
-2.59926e-08
1.52824e-08
-2.76315e-08
1.61868e-08
-2.9368e-08
1.71437e-08
-3.12077e-08
1.81555e-08
-3.31567e-08
1.92249e-08
-3.52212e-08
2.03545e-08
-3.74078e-08
2.15469e-08
-3.97233e-08
2.2805e-08
-4.21749e-08
2.41314e-08
-4.47701e-08
2.55289e-08
-4.75166e-08
2.70002e-08
-5.04226e-08
2.8548e-08
-5.34965e-08
3.0175e-08
-5.67469e-08
3.18836e-08
-6.01829e-08
3.36762e-08
-6.38139e-08
3.55551e-08
-6.76493e-08
3.75222e-08
-7.16989e-08
3.95791e-08
-7.59728e-08
4.17273e-08
-8.04812e-08
4.39675e-08
-8.52343e-08
4.63003e-08
-9.02426e-08
4.87254e-08
-9.55164e-08
5.12419e-08
-1.01066e-07
5.38483e-08
-1.06902e-07
5.65421e-08
-1.13034e-07
5.93196e-08
-1.19472e-07
6.21763e-08
-1.26225e-07
6.51063e-08
-1.33301e-07
6.81022e-08
-1.40708e-07
7.11553e-08
-1.48452e-07
7.42551e-08
-1.5654e-07
7.73893e-08
-1.64976e-07
8.05437e-08
-1.73762e-07
8.37021e-08
-1.82898e-07
8.68461e-08
-1.92383e-07
8.99549e-08
-2.02214e-07
9.30057e-08
-2.12384e-07
9.5973e-08
-2.22884e-07
9.8829e-08
-2.33699e-07
1.01543e-07
-2.44815e-07
1.04084e-07
-2.56211e-07
1.06414e-07
-2.67862e-07
1.08498e-07
-2.79739e-07
1.10296e-07
-2.91808e-07
1.11766e-07
-3.04032e-07
1.12863e-07
-3.16364e-07
1.13544e-07
-3.28758e-07
1.13759e-07
-3.41156e-07
1.1346e-07
-3.53498e-07
1.12597e-07
-3.65717e-07
1.11118e-07
-3.77739e-07
1.08971e-07
-3.89486e-07
1.06099e-07
-4.00868e-07
1.02438e-07
-4.11789e-07
9.79154e-08
-4.22146e-07
9.24707e-08
-4.31831e-07
8.60697e-08
-4.40732e-07
7.86952e-08
-4.48734e-07
7.0317e-08
-4.55713e-07
6.08821e-08
-4.61539e-07
5.03487e-08
3.87363e-08
-4.6608e-07
-2.70172e-10
2.9793e-09
-5.66574e-10
3.27044e-09
-8.66055e-10
3.30413e-09
-1.1689e-09
3.34089e-09
-1.47618e-09
3.38975e-09
-1.78907e-09
3.45125e-09
-2.10873e-09
3.52569e-09
-2.43637e-09
3.61333e-09
-2.77321e-09
3.71448e-09
-3.12052e-09
3.82948e-09
-3.4796e-09
3.95871e-09
-3.85177e-09
4.1026e-09
-4.23842e-09
4.26164e-09
-4.64098e-09
4.43637e-09
-5.06092e-09
4.62738e-09
-5.49979e-09
4.83531e-09
-5.95919e-09
5.06088e-09
-6.4408e-09
5.30485e-09
-6.94638e-09
5.56805e-09
-7.47775e-09
5.85139e-09
-8.03685e-09
6.15584e-09
-8.6257e-09
6.48244e-09
-9.24641e-09
6.83229e-09
-9.90124e-09
7.20659e-09
-1.05925e-08
7.6066e-09
-1.13228e-08
8.03368e-09
-1.20945e-08
8.48925e-09
-1.29106e-08
8.97481e-09
-1.37739e-08
9.49198e-09
-1.46875e-08
1.00424e-08
-1.56546e-08
1.06279e-08
-1.66786e-08
1.12503e-08
-1.7763e-08
1.19116e-08
-1.89118e-08
1.26138e-08
-2.01287e-08
1.3359e-08
-2.14182e-08
1.41495e-08
-2.27845e-08
1.49877e-08
-2.42323e-08
1.58759e-08
-2.57665e-08
1.68166e-08
-2.73923e-08
1.78126e-08
-2.9115e-08
1.88664e-08
-3.09403e-08
1.99808e-08
-3.28743e-08
2.11588e-08
-3.49231e-08
2.24032e-08
-3.70933e-08
2.37171e-08
-3.93917e-08
2.51034e-08
-4.18255e-08
2.65652e-08
-4.44023e-08
2.81056e-08
-4.71297e-08
2.97276e-08
-5.00159e-08
3.14342e-08
-5.30693e-08
3.32284e-08
-5.62988e-08
3.5113e-08
-5.97133e-08
3.70907e-08
-6.33222e-08
3.9164e-08
-6.71351e-08
4.13351e-08
-7.1162e-08
4.3606e-08
-7.54128e-08
4.59782e-08
-7.98981e-08
4.84528e-08
-8.46281e-08
5.10303e-08
-8.96136e-08
5.37108e-08
-9.4865e-08
5.64934e-08
-1.00393e-07
5.93763e-08
-1.06208e-07
6.23571e-08
-1.1232e-07
6.54319e-08
-1.1874e-07
6.85958e-08
-1.25476e-07
7.18425e-08
-1.32538e-07
7.51639e-08
-1.39933e-07
7.85506e-08
-1.47669e-07
8.19912e-08
-1.55752e-07
8.54723e-08
-1.64187e-07
8.89782e-08
-1.72976e-07
9.24912e-08
-1.82121e-07
9.59911e-08
-1.91621e-07
9.9455e-08
-2.01473e-07
1.02858e-07
-2.1167e-07
1.06171e-07
-2.22205e-07
1.09364e-07
-2.33064e-07
1.12403e-07
-2.44232e-07
1.15252e-07
-2.55689e-07
1.17871e-07
-2.67411e-07
1.20221e-07
-2.7937e-07
1.22255e-07
-2.91532e-07
1.23928e-07
-3.0386e-07
1.25191e-07
-3.16309e-07
1.25992e-07
-3.2883e-07
1.2628e-07
-3.41369e-07
1.25999e-07
-3.53865e-07
1.25093e-07
-3.66251e-07
1.23504e-07
-3.78454e-07
1.21174e-07
-3.90395e-07
1.1804e-07
-4.01986e-07
1.14029e-07
-4.1313e-07
1.09059e-07
-4.23723e-07
1.03064e-07
-4.33656e-07
9.60031e-08
-4.42817e-07
8.78568e-08
-4.51089e-07
7.85885e-08
-4.58343e-07
6.81364e-08
-4.64445e-07
5.64506e-08
4.35502e-08
-4.69259e-07
-2.67359e-10
3.24666e-09
-5.60667e-10
3.56375e-09
-8.57025e-10
3.60049e-09
-1.15672e-09
3.64059e-09
-1.46081e-09
3.69385e-09
-1.77046e-09
3.76089e-09
-2.08681e-09
3.84204e-09
-2.41107e-09
3.93759e-09
-2.74445e-09
4.04786e-09
-3.0882e-09
4.17323e-09
-3.44361e-09
4.31411e-09
-3.812e-09
4.47098e-09
-4.19472e-09
4.64437e-09
-4.59321e-09
4.83486e-09
-5.00892e-09
5.04309e-09
-5.44338e-09
5.26977e-09
-5.89818e-09
5.51568e-09
-6.37498e-09
5.78165e-09
-6.87552e-09
6.06859e-09
-7.40161e-09
6.37749e-09
-7.95517e-09
6.7094e-09
-8.5382e-09
7.06546e-09
-9.15281e-09
7.44689e-09
-9.8012e-09
7.85498e-09
-1.04857e-08
8.29112e-09
-1.12088e-08
8.75679e-09
-1.19731e-08
9.25353e-09
-1.27813e-08
9.78301e-09
-1.36363e-08
1.0347e-08
-1.45411e-08
1.09472e-08
-1.54989e-08
1.15858e-08
-1.65132e-08
1.22646e-08
-1.75874e-08
1.29858e-08
-1.87254e-08
1.37517e-08
-1.99311e-08
1.45647e-08
-2.12086e-08
1.54271e-08
-2.25624e-08
1.63415e-08
-2.3997e-08
1.73105e-08
-2.55175e-08
1.8337e-08
-2.71288e-08
1.94239e-08
-2.88363e-08
2.05739e-08
-3.06458e-08
2.17903e-08
-3.25631e-08
2.30762e-08
-3.45946e-08
2.44347e-08
-3.67466e-08
2.58692e-08
-3.90262e-08
2.7383e-08
-4.14404e-08
2.89794e-08
-4.39967e-08
3.06619e-08
-4.6703e-08
3.24338e-08
-4.95673e-08
3.42985e-08
-5.25981e-08
3.62593e-08
-5.58043e-08
3.83192e-08
-5.91949e-08
4.04814e-08
-6.27794e-08
4.27485e-08
-6.65674e-08
4.51231e-08
-7.05689e-08
4.76075e-08
-7.47942e-08
5.02035e-08
-7.92537e-08
5.29123e-08
-8.39581e-08
5.57347e-08
-8.8918e-08
5.86707e-08
-9.41443e-08
6.17197e-08
-9.96479e-08
6.48799e-08
-1.05439e-07
6.81486e-08
-1.11529e-07
7.1522e-08
-1.17928e-07
7.49946e-08
-1.24646e-07
7.85599e-08
-1.31691e-07
8.22093e-08
-1.39073e-07
8.59325e-08
-1.46799e-07
8.97173e-08
-1.54876e-07
9.3549e-08
-1.63309e-07
9.7411e-08
-1.72101e-07
1.01284e-07
-1.81255e-07
1.05145e-07
-1.9077e-07
1.0897e-07
-2.00644e-07
1.12732e-07
-2.10872e-07