/*--------------------------------*- C++ -*----------------------------------*\
| =========                 |                                                 |
| \\      /  F ield         | OpenFOAM: The Open Source CFD Toolbox           |
|  \\    /   O peration     | Version:  2.4.0                                 |
|   \\  /    A nd           | Web:      www.OpenFOAM.org                      |
|    \\/     M anipulation  |                                                 |
\*---------------------------------------------------------------------------*/
FoamFile
{
    version     2.0;
    format      ascii;
    class       surfaceScalarField;
    location    "0.113";
    object      phiAlpha;
}
// * * * * * * * * * * * * * * * * * * * * * * * * * * * * * * * * * * * * * //

dimensions      [0 3 -1 0 0 0 0];

internalField   nonuniform List<scalar> 
119500
(
-1.66362e-13
1.66362e-13
-4.26206e-13
2.6041e-13
-7.22054e-13
2.96344e-13
-1.02307e-12
3.01534e-13
-1.31991e-12
2.97387e-13
-1.61188e-12
2.92544e-13
-1.89872e-12
2.87438e-13
-2.18116e-12
2.83046e-13
-2.45934e-12
2.78804e-13
-2.73371e-12
2.74996e-13
-3.00478e-12
2.717e-13
-3.27298e-12
2.6884e-13
-3.53825e-12
2.6591e-13
-3.79981e-12
2.62209e-13
-4.05626e-12
2.57114e-13
-4.30553e-12
2.49931e-13
-4.54516e-12
2.403e-13
-4.77227e-12
2.27782e-13
-4.98359e-12
2.12015e-13
-5.17505e-12
1.92169e-13
-5.34204e-12
1.67712e-13
-5.48002e-12
1.38729e-13
-5.58363e-12
1.04375e-13
-5.64784e-12
6.4967e-14
-5.66748e-12
2.03809e-14
-5.63796e-12
-2.8821e-14
-5.55353e-12
-8.37827e-14
-5.41093e-12
-1.42009e-13
-5.20758e-12
-2.02838e-13
-4.94146e-12
-2.65681e-13
-4.61163e-12
-3.29452e-13
-4.21803e-12
-3.93289e-13
-3.76135e-12
-4.56411e-13
-3.24371e-12
-5.17401e-13
-2.66758e-12
-5.75924e-13
-2.03621e-12
-6.31197e-13
-1.35365e-12
-6.82416e-13
-6.24999e-13
-7.28529e-13
1.43935e-13
-7.68824e-13
9.46776e-13
-8.02733e-13
1.7767e-12
-8.29807e-13
2.62738e-12
-8.50535e-13
3.49163e-12
-8.64079e-13
4.36314e-12
-8.71306e-13
5.2347e-12
-8.71331e-13
6.09645e-12
-8.61516e-13
6.94413e-12
-8.4749e-13
7.77179e-12
-8.27525e-13
8.57211e-12
-8.00286e-13
9.33982e-12
-7.67766e-13
1.00704e-11
-7.30706e-13
1.07604e-11
-6.90189e-13
1.14077e-11
-6.47593e-13
1.20106e-11
-6.03064e-13
1.25669e-11
-5.56471e-13
1.30772e-11
-5.10528e-13
1.35413e-11
-4.64178e-13
1.39596e-11
-4.18441e-13
1.43327e-11
-3.73164e-13
1.46625e-11
-3.29902e-13
1.49502e-11
-2.87685e-13
1.51973e-11
-2.47045e-13
1.54053e-11
-2.08017e-13
1.55763e-11
-1.70967e-13
1.5711e-11
-1.34773e-13
1.58105e-11
-9.95925e-14
1.58749e-11
-6.45441e-14
1.59038e-11
-2.91021e-14
1.58979e-11
5.70305e-15
1.58538e-11
4.39713e-14
1.57697e-11
8.39037e-14
1.56422e-11
1.27364e-13
1.5468e-11
1.74129e-13
1.52451e-11
2.22706e-13
1.49688e-11
2.7615e-13
1.46344e-11
3.34319e-13
1.42393e-11
3.94971e-13
1.37812e-11
4.5806e-13
1.32575e-11
5.23761e-13
1.26664e-11
5.91202e-13
1.20075e-11
6.59217e-13
1.12805e-11
7.27272e-13
1.04854e-11
7.95411e-13
9.6234e-12
8.62335e-13
8.6977e-12
9.25981e-13
7.711e-12
9.8697e-13
6.66564e-12
1.04562e-12
5.56525e-12
1.10063e-12
4.41403e-12
1.15142e-12
3.21789e-12
1.19624e-12
1.98298e-12
1.2349e-12
7.16172e-13
1.26665e-12
-5.73608e-13
1.28951e-12
-1.88456e-12
1.3106e-12
-3.17766e-12
1.29273e-12
-4.50778e-12
1.32982e-12
-5.77514e-12
1.26715e-12
-7.07908e-12
1.30382e-12
-8.21375e-12
1.13461e-12
1.00854e-12
-9.22231e-12
-3.35465e-13
5.02404e-13
-8.73613e-13
7.99566e-13
-1.47614e-12
8.99829e-13
-2.09479e-12
9.21175e-13
-2.70749e-12
9.11136e-13
-3.31206e-12
8.98192e-13
-3.90834e-12
8.84816e-13
-4.49678e-12
8.72607e-13
-5.07767e-12
8.6083e-13
-5.65147e-12
8.4994e-13
-6.21884e-12
8.40214e-13
-6.78032e-12
8.31488e-13
-7.33591e-12
8.22671e-13
-7.88508e-12
8.12571e-13
-8.42676e-12
7.99994e-13
-8.95882e-12
7.83201e-13
-9.47839e-12
7.61098e-13
-9.98216e-12
7.32802e-13
-1.0466e-11
6.97096e-13
-1.09247e-11
6.52169e-13
-1.13527e-11
5.97072e-13
-1.17437e-11
5.31026e-13
-1.20902e-11
4.52253e-13
-1.23848e-11
3.60805e-13
-1.26198e-11
2.56618e-13
-1.27869e-11
1.39391e-13
-1.28796e-11
9.905e-15
-1.28906e-11
-1.30086e-13
-1.28143e-11
-2.78342e-13
-1.26465e-11
-4.32866e-13
-1.23831e-11
-5.92279e-13
-1.20218e-11
-7.54042e-13
-1.15609e-11
-9.16917e-13
-1.09997e-11
-1.0782e-12
-1.03387e-11
-1.23658e-12
-9.57929e-12
-1.39036e-12
-8.72427e-12
-1.5372e-12
-7.77853e-12
-1.67406e-12
-6.74815e-12
-1.799e-12
-5.64012e-12
-1.91054e-12
-4.46239e-12
-2.00729e-12
-3.22249e-12
-2.09013e-12
-1.92924e-12
-2.157e-12
-5.91821e-13
-2.20836e-12
7.7952e-13
-2.24233e-12
2.17591e-12
-2.25762e-12
3.58646e-12
-2.25787e-12
5.00296e-12
-2.244e-12
6.41078e-12
-2.20822e-12
7.80807e-12
-2.16528e-12
9.18074e-12
-2.10368e-12
1.05232e-11
-2.03302e-12
1.18319e-11
-1.95654e-12
1.30998e-11
-1.87123e-12
1.43209e-11
-1.77786e-12
1.54935e-11
-1.68328e-12
1.66135e-11
-1.5844e-12
1.76785e-11
-1.48351e-12
1.86863e-11
-1.38108e-12
1.96363e-11
-1.27989e-12
2.05265e-11
-1.17793e-12
2.13568e-11
-1.0774e-12
2.21267e-11
-9.78003e-13
2.28364e-11
-8.80862e-13
2.34859e-11
-7.84543e-13
2.40757e-11
-6.89665e-13
2.46044e-11
-5.93647e-13
2.50711e-11
-4.96085e-13
2.54729e-11
-3.96455e-13
2.58081e-11
-2.91499e-13
2.6072e-11
-1.80131e-13
2.62584e-11
-5.93197e-14
2.63602e-11
7.20693e-14
2.63724e-11
2.10285e-13
2.62874e-11
3.61024e-13
2.60983e-11
5.23298e-13
2.5798e-11
6.95228e-13
2.5381e-11
8.75223e-13
2.48424e-11
1.06266e-12
2.41765e-11
1.25753e-12
2.33781e-11
1.45805e-12
2.24435e-11
1.66239e-12
2.13684e-11
1.87092e-12
2.0149e-11
2.08222e-12
1.87836e-11
2.29174e-12
1.72724e-11
2.49853e-12
1.56145e-11
2.70381e-12
1.38114e-11
2.90397e-12
1.18672e-11
3.09573e-12
9.78608e-12
3.27726e-12
7.57561e-12
3.44506e-12
5.2457e-12
3.59609e-12
2.80808e-12
3.72659e-12
2.70766e-13
3.84741e-12
-2.32338e-12
3.88648e-12
-4.97647e-12
3.98265e-12
-7.63855e-12
3.9291e-12
-1.02712e-11
3.93643e-12
-1.25697e-11
3.43309e-12
2.52048e-12
-1.40816e-11
-4.03338e-13
9.0624e-13
-1.05747e-12
1.45457e-12
-1.7929e-12
1.63609e-12
-2.54788e-12
1.67701e-12
-3.29933e-12
1.66347e-12
-4.04167e-12
1.64145e-12
-4.77524e-12
1.61931e-12
-5.50042e-12
1.59872e-12
-6.21767e-12
1.57903e-12
-6.92746e-12
1.56069e-12
-7.63041e-12
1.54413e-12
-8.32716e-12
1.52922e-12
-9.01782e-12
1.51432e-12
-9.70206e-12
1.4978e-12
-1.0379e-11
1.47791e-12
-1.10467e-11
1.45189e-12
-1.17024e-11
1.41782e-12
-1.23427e-11
1.3742e-12
-1.29632e-11
1.31859e-12
-1.35587e-11
1.24874e-12
-1.41237e-11
1.16307e-12
-1.46509e-11
1.05924e-12
-1.51331e-11
9.35528e-13
-1.55624e-11
7.91034e-13
-1.59303e-11
6.25414e-13
-1.62287e-11
4.38646e-13
-1.64503e-11
2.32315e-13
-1.65876e-11
7.97014e-15
-1.66343e-11
-2.31004e-13
-1.65847e-11
-4.81927e-13
-1.64343e-11
-7.42134e-13
-1.61799e-11
-1.00798e-12
-1.58188e-11
-1.27751e-12
-1.53497e-11
-1.54699e-12
-1.47716e-11
-1.81432e-12
-1.40855e-11
-2.07627e-12
-1.32934e-11
-2.32906e-12
-1.23989e-11
-2.56837e-12
-1.14075e-11
-2.79022e-12
-1.03252e-11
-2.9927e-12
-9.15926e-12
-3.17313e-12
-7.91667e-12
-3.33255e-12
-6.60534e-12
-3.46813e-12
-5.23526e-12
-3.57822e-12
-3.8138e-12
-3.66358e-12
-2.35317e-12
-3.71807e-12
-8.63802e-13
-3.74712e-12
6.43528e-13
-3.75128e-12
2.16448e-12
-3.7292e-12
3.68319e-12
-3.68405e-12
5.20005e-12
-3.62064e-12
6.69879e-12
-3.53186e-12
8.17506e-12
-3.4329e-12
9.6243e-12
-3.32056e-12
1.10394e-11
-3.19299e-12
1.24161e-11
-3.06013e-12
1.375e-11
-2.91842e-12
1.50379e-11
-2.7715e-12
1.62758e-11
-2.61916e-12
1.7463e-11
-2.46718e-12
1.85961e-11
-2.31124e-12
1.9674e-11
-2.15548e-12
2.0695e-11
-1.99928e-12
2.16572e-11
-1.84333e-12
2.25622e-11
-1.68985e-12
2.3406e-11
-1.53385e-12
2.41875e-11
-1.37549e-12
2.49028e-11
-1.21174e-12
2.55506e-11
-1.0445e-12
2.61248e-11
-8.65861e-13
2.66198e-11
-6.75267e-13
2.70284e-11
-4.67981e-13
2.73432e-11
-2.42852e-13
2.75532e-11
1.43925e-16
2.76514e-11
2.62731e-13
2.76294e-11
5.45363e-13
2.74779e-11
8.46756e-13
2.71877e-11
1.16546e-12
2.67519e-11
1.49861e-12
2.61623e-11
1.84722e-12
2.54111e-11
2.20943e-12
2.44906e-11
2.58297e-12
2.33955e-11
2.96614e-12
2.21182e-11
3.3596e-12
2.06527e-11
3.75733e-12
1.89952e-11
4.15606e-12
1.71441e-11
4.55498e-12
1.50988e-11
4.94938e-12
1.2861e-11
5.33344e-12
1.04346e-11
5.70356e-12
7.82612e-12
6.05333e-12
5.04496e-12
6.37706e-12
2.10524e-12
6.66615e-12
-9.74178e-13
6.92673e-12
-4.18387e-12
7.09614e-12
-7.48159e-12
7.28039e-12
-1.0826e-11
7.27348e-12
-1.4117e-11
7.22752e-12
-1.69795e-11
6.29558e-12
4.3082e-12
-1.87672e-11
-4.38931e-13
1.34563e-12
-1.13227e-12
2.14874e-12
-1.91541e-12
2.42e-12
-2.72119e-12
2.48358e-12
-3.52527e-12
2.46836e-12
-4.32094e-12
2.43793e-12
-5.10802e-12
2.40723e-12
-5.88679e-12
2.37833e-12
-6.65787e-12
2.35097e-12
-7.42191e-12
2.32559e-12
-8.17959e-12
2.30268e-12
-8.93151e-12
2.28202e-12
-9.67794e-12
2.26164e-12
-1.04185e-11
2.2393e-12
-1.11523e-11
2.21257e-12
-1.18774e-11
2.17791e-12
-1.25916e-11
2.13282e-12
-1.32913e-11
2.07477e-12
-1.3972e-11
2.00021e-12
-1.46289e-11
1.90649e-12
-1.52559e-11
1.79093e-12
-1.58458e-11
1.64996e-12
-1.63914e-11
1.48193e-12
-1.68848e-11
1.28513e-12
-1.7317e-11
1.05843e-12
-1.76808e-11
8.03143e-13
-1.7968e-11
5.20181e-13
-1.81713e-11
2.1193e-13
-1.82843e-11
-1.17403e-13
-1.83006e-11
-4.65032e-13
-1.82158e-11
-8.26404e-13
-1.80257e-11
-1.19759e-12
-1.77277e-11
-1.57507e-12
-1.73201e-11
-1.95418e-12
-1.68022e-11
-2.33191e-12
-1.61748e-11
-2.70339e-12
-1.544e-11
-3.06364e-12
-1.46016e-11
-3.40674e-12
-1.3663e-11
-3.72866e-12
-1.26313e-11
-4.02433e-12
-1.15115e-11
-4.29291e-12
-1.03118e-11
-4.53226e-12
-9.03967e-12
-4.74017e-12
-7.70272e-12
-4.91508e-12
-6.31237e-12
-5.05381e-12
-4.8766e-12
-5.15372e-12
-3.40593e-12
-5.21767e-12
-1.91086e-12
-5.24624e-12
-4.00247e-13
-5.2397e-12
1.11766e-12
-5.20186e-12
2.63401e-12
-5.13688e-12
4.14559e-12
-5.04332e-12
5.63789e-12
-4.92511e-12
7.1084e-12
-4.791e-12
8.549e-12
-4.63358e-12
9.95713e-12
-4.46831e-12
1.13266e-11
-4.28803e-12
1.26546e-11
-4.09964e-12
1.39401e-11
-3.90491e-12
1.5179e-11
-3.7063e-12
1.63689e-11
-3.50145e-12
1.75091e-11
-3.29605e-12
1.85982e-11
-3.08883e-12
1.96348e-11
-2.88036e-12
2.06165e-11
-2.67199e-12
2.15422e-11
-2.45996e-12
2.24082e-11
-2.24181e-12
2.3211e-11
-2.01477e-12
2.39459e-11
-1.77952e-12
2.4608e-11
-1.52807e-12
2.51903e-11
-1.25768e-12
2.5685e-11
-9.62732e-13
2.60846e-11
-6.42426e-13
2.63781e-11
-2.93399e-13
2.6556e-11
8.48848e-14
2.66084e-11
4.92979e-13
2.65249e-11
9.30173e-13
2.6296e-11
1.39431e-12
2.59103e-11
1.88415e-12
2.53581e-11
2.39931e-12
2.46309e-11
2.93642e-12
2.37185e-11
3.4951e-12
2.2613e-11
4.0714e-12
2.1308e-11
4.66432e-12
1.97965e-11
5.26869e-12
1.80721e-11
5.88032e-12
1.61311e-11
6.49584e-12
1.39715e-11
7.10882e-12
1.1593e-11
7.71192e-12
8.99941e-12
8.29707e-12
6.1968e-12
8.85598e-12
3.19462e-12
9.37938e-12
7.63259e-15
9.85334e-12
-3.35006e-12
1.02847e-11
-6.85256e-12
1.05989e-11
-1.04701e-11
1.08981e-11
-1.41466e-11
1.095e-11
-1.77644e-11
1.08454e-11
-2.09828e-11
9.51395e-12
6.40185e-12
-2.30764e-11
-4.58476e-13
1.80455e-12
-1.16906e-12
2.86013e-12
-1.96572e-12
3.2174e-12
-2.78748e-12
3.3061e-12
-3.60892e-12
3.29057e-12
-4.42285e-12
3.25263e-12
-5.22846e-12
3.21361e-12
-6.02593e-12
3.17659e-12
-6.81594e-12
3.14178e-12
-7.5993e-12
3.10974e-12
-8.37675e-12
3.08094e-12
-9.14893e-12
3.05501e-12
-9.91618e-12
3.02971e-12
-1.06782e-11
3.00219e-12
-1.14341e-11
2.96927e-12
-1.21823e-11
2.92691e-12
-1.29205e-11
2.87177e-12
-1.36453e-11
2.80033e-12
-1.43525e-11
2.70811e-12
-1.50366e-11
2.59135e-12
-1.56916e-11
2.44661e-12
-1.63104e-11
2.26943e-12
-1.68852e-11
2.05734e-12
-1.74081e-11
1.8087e-12
-1.7871e-11
1.52188e-12
-1.82653e-11
1.19814e-12
-1.85838e-11
8.39293e-13
-1.88188e-11
4.47487e-13
-1.89631e-11
2.76079e-14
-1.90112e-11
-4.16324e-13
-1.89571e-11
-8.79966e-13
-1.87974e-11
-1.35674e-12
-1.85284e-11
-1.84361e-12
-1.81489e-11
-2.33323e-12
-1.76581e-11
-2.82242e-12
-1.70576e-11
-3.30362e-12
-1.63488e-11
-3.77232e-12
-1.55362e-11
-4.21917e-12
-1.46227e-11
-4.6422e-12
-1.36146e-11
-5.03239e-12
-1.25178e-11
-5.38973e-12
-1.13388e-11
-5.71131e-12
-1.00869e-11
-5.99212e-12
-8.76937e-12
-6.23256e-12
-7.39589e-12
-6.42725e-12
-5.97562e-12
-6.57389e-12
-4.51876e-12
-6.67441e-12
-3.03503e-12
-6.72981e-12
-1.53277e-12
-6.74175e-12
-2.06058e-14
-6.71378e-12
1.49254e-12
-6.64976e-12
2.99649e-12
-6.54701e-12
4.48755e-12
-6.41595e-12
5.95312e-12
-6.25641e-12
7.39636e-12
-6.07675e-12
8.80484e-12
-5.87683e-12
1.0175e-11
-5.65833e-12
1.1507e-11
-5.43184e-12
1.27942e-11
-5.19245e-12
1.40359e-11
-4.94837e-12
1.52346e-11
-4.70054e-12
1.63853e-11
-4.44723e-12
1.74878e-11
-4.19188e-12
1.85411e-11
-3.93404e-12
1.95424e-11
-3.67372e-12
2.04894e-11
-3.40729e-12
2.13783e-11
-3.13101e-12
2.22081e-11
-2.84469e-12
2.29706e-11
-2.54219e-12
2.36606e-11
-2.21808e-12
2.42706e-11
-1.86777e-12
2.47949e-11
-1.48699e-12
2.52227e-11
-1.07024e-12
2.55458e-11
-6.16484e-13
2.57526e-11
-1.21913e-13
2.58327e-11
4.12811e-13
2.57751e-11
9.87637e-13
2.55678e-11
1.60128e-12
2.52001e-11
2.25149e-12
2.46612e-11
2.93773e-12
2.39395e-11
3.65765e-12
2.30261e-11
4.40803e-12
2.19111e-11
5.18592e-12
2.05873e-11
5.98776e-12
1.90477e-11
6.80791e-12
1.72857e-11
7.64203e-12
1.52969e-11
8.48441e-12
1.30786e-11
9.32694e-12
1.06306e-11
1.01598e-11
7.95484e-12
1.09729e-11
5.05607e-12
1.1755e-11
1.94295e-12
1.24929e-11
-1.37389e-12
1.31706e-11
-4.86646e-12
1.37776e-11
-8.52289e-12
1.42556e-11
-1.23003e-11
1.46757e-11
-1.61424e-11
1.47922e-11
-1.99068e-11
1.46098e-11
-2.32556e-11
1.28628e-11
8.44446e-12
-2.52982e-11
-4.69206e-13
2.27418e-12
-1.18965e-12
3.58137e-12
-1.99183e-12
4.02032e-12
-2.81745e-12
4.13246e-12
-3.64347e-12
4.11733e-12
-4.46282e-12
4.07271e-12
-5.27401e-12
4.02554e-12
-6.07707e-12
3.98038e-12
-6.87274e-12
3.93818e-12
-7.66201e-12
3.89975e-12
-8.44574e-12
3.86542e-12
-9.22469e-12
3.83471e-12
-9.99933e-12
3.80511e-12
-1.07694e-11
3.77305e-12
-1.15341e-11
3.7347e-12
-1.22922e-11
3.68572e-12
-1.30416e-11
3.62182e-12
-1.37787e-11
3.53809e-12
-1.44993e-11
3.42944e-12
-1.51981e-11
3.2908e-12
-1.58683e-11
3.11738e-12
-1.65031e-11
2.90479e-12
-1.70945e-11
2.6493e-12
-1.76341e-11
2.34885e-12
-1.81141e-11
2.00252e-12
-1.85258e-11
1.61044e-12
-1.88613e-11
1.17541e-12
-1.91133e-11
7.00133e-13
-1.9274e-11
1.88911e-13
-1.93377e-11
-3.5194e-13
-1.92984e-11
-9.18685e-13
-1.91519e-11
-1.50262e-12
-1.88951e-11
-2.09993e-12
-1.85262e-11
-2.70177e-12
-1.80448e-11
-3.3035e-12
-1.74523e-11
-3.89581e-12
-1.67512e-11
-4.4733e-12
-1.59444e-11
-5.02588e-12
-1.50369e-11
-5.5497e-12
-1.4033e-11
-6.03625e-12
-1.29393e-11
-6.48353e-12
-1.17633e-11
-6.88734e-12
-1.05124e-11
-7.24305e-12
-9.19552e-12
-7.54944e-12
-7.82263e-12
-7.80012e-12
-6.40112e-12
-7.99533e-12
-4.9413e-12
-8.1341e-12
-3.45357e-12
-8.21733e-12
-1.94639e-12
-8.24867e-12
-4.28916e-13
-8.23094e-12
1.08933e-12
-8.16767e-12
2.59888e-12
-8.05624e-12
4.09319e-12
-7.90999e-12
5.56759e-12
-7.73064e-12
7.0096e-12
-7.51869e-12
8.4211e-12
-7.28836e-12
9.79348e-12
-7.03085e-12
1.11251e-11
-6.76363e-12
1.24148e-11
-6.48254e-12
1.36596e-11
-6.1935e-12
1.48585e-11
-5.89985e-12
1.60123e-11
-5.6015e-12
1.71194e-11
-5.2994e-12
1.81786e-11
-4.99361e-12
1.91876e-11
-4.68303e-12
2.01441e-11
-4.36399e-12
2.10446e-11
-4.03167e-12
2.18849e-11
-3.68516e-12
2.26599e-11
-3.3173e-12
2.33641e-11
-2.92234e-12
2.39892e-11
-2.49293e-12
2.45284e-11
-2.02628e-12
2.49723e-11
-1.51414e-12
2.53105e-11
-9.54776e-13
2.55334e-11
-3.44964e-13
2.56295e-11
3.16584e-13
2.55867e-11
1.03007e-12
2.53937e-11
1.79381e-12
2.50377e-11
2.60697e-12
2.45076e-11
3.46723e-12
2.3792e-11
4.37268e-12
2.28803e-11
5.31919e-12
2.1763e-11
6.30278e-12
2.04328e-11
7.31746e-12
1.88813e-11
8.35904e-12
1.71022e-11
9.42083e-12
1.50911e-11
1.04952e-11
1.28448e-11
1.15731e-11
1.03629e-11
1.26418e-11
7.64637e-12
1.36897e-11
4.69926e-12
1.47025e-11
1.52944e-12
1.56632e-11
-1.84997e-12
1.65505e-11
-5.42092e-12
1.7349e-11
-9.15947e-12
1.79944e-11
-1.30256e-11
1.85419e-11
-1.69603e-11
1.8727e-11
-2.08058e-11
1.84553e-11
-2.42047e-11
1.62617e-11
1.04908e-11
-2.6251e-11
-4.75855e-13
2.75047e-12
-1.20359e-12
4.30992e-12
-2.0096e-12
4.82706e-12
-2.83611e-12
4.95969e-12
-3.66307e-12
4.94501e-12
-4.48371e-12
4.89405e-12
-5.29619e-12
4.83873e-12
-6.10041e-12
4.7853e-12
-6.89715e-12
4.73561e-12
-7.68761e-12
4.69092e-12
-8.47287e-12
4.65138e-12
-9.25372e-12
4.61627e-12
-1.00308e-11
4.58294e-12
-1.08043e-11
4.54722e-12
-1.15734e-11
4.50445e-12
-1.23371e-11
4.45011e-12
-1.30937e-11
4.3791e-12
-1.38394e-11
4.28446e-12
-1.45697e-11
4.16043e-12
-1.52796e-11
4.0013e-12
-1.59617e-11
3.80015e-12
-1.6609e-11
3.55265e-12
-1.72138e-11
3.25466e-12
-1.7767e-11
2.9027e-12
-1.82607e-11
2.49679e-12
-1.86862e-11
2.03654e-12
-1.90346e-11
1.52456e-12
-1.92988e-11
9.64983e-13
-1.9471e-11
3.61734e-13
-1.95443e-11
-2.77915e-13
-1.95139e-11
-9.48529e-13
-1.93741e-11
-1.64183e-12
-1.91226e-11
-2.35097e-12
-1.87568e-11
-3.06715e-12
-1.82775e-11
-3.78256e-12
-1.76846e-11
-4.48847e-12
-1.69824e-11
-5.17529e-12
-1.61725e-11
-5.83563e-12
-1.52604e-11
-6.46166e-12
-1.42516e-11
-7.04503e-12
-1.31514e-11
-7.5837e-12
-1.19678e-11
-8.07092e-12
-1.07097e-11
-8.50121e-12
-9.38428e-12
-8.87485e-12
-8.00093e-12
-9.18346e-12
-6.56886e-12
-9.42735e-12
-5.09743e-12
-9.60543e-12
-3.59678e-12
-9.71782e-12
-2.07733e-12
-9.76788e-12
-5.4846e-13
-9.75952e-12
9.79385e-13
-9.69522e-12
2.50105e-12
-9.57763e-12
4.00511e-12
-9.41383e-12
5.48452e-12
-9.20991e-12
6.93628e-12
-8.97039e-12
8.35112e-12
-8.70323e-12
9.73082e-12
-8.41064e-12
1.10673e-11
-8.10027e-12
1.23605e-11
-7.77597e-12
1.36095e-11
-7.44272e-12
1.48115e-11
-7.1022e-12
1.59693e-11
-6.75956e-12
1.70803e-11
-6.41061e-12
1.81439e-11
-6.05738e-12
1.91581e-11
-5.69733e-12
2.01206e-11
-5.32659e-12
2.10296e-11
-4.94078e-12
2.18797e-11
-4.53537e-12
2.2666e-11
-4.10374e-12
2.33818e-11
-3.63827e-12
2.40208e-11
-3.13217e-12
2.45739e-11
-2.57954e-12
2.5032e-11
-1.9725e-12
2.53862e-11
-1.30914e-12
2.56249e-11
-5.83907e-13
2.57367e-11
2.04468e-13
2.57093e-11
1.05702e-12
2.55309e-11
1.97171e-12
2.51884e-11
2.94901e-12
2.46703e-11
3.98472e-12
2.39649e-11
5.07763e-12
2.30612e-11
6.22243e-12
2.19502e-11
7.41346e-12
2.06225e-11
8.64484e-12
1.90701e-11
9.91112e-12
1.72866e-11
1.12041e-11
1.52669e-11
1.25148e-11
1.30077e-11
1.38322e-11
1.05081e-11
1.51416e-11
7.76934e-12
1.64286e-11
4.79512e-12
1.76771e-11
1.59198e-12
1.88667e-11
-1.82919e-12
1.9972e-11
-5.44914e-12
2.09691e-11
-9.24475e-12
2.17901e-11
-1.31765e-11
2.24737e-11
-1.71841e-11
2.27346e-11
-2.11044e-11
2.23757e-11
-2.4561e-11
1.97183e-11
1.25818e-11
-2.66519e-11
-4.811e-13
3.232e-12
-1.21487e-12
5.04451e-12
-2.02441e-12
5.63734e-12
-2.85183e-12
5.78784e-12
-3.67923e-12
5.77312e-12
-4.50011e-12
5.71562e-12
-5.31252e-12
5.65182e-12
-6.11648e-12
5.58994e-12
-6.9127e-12
5.5325e-12
-7.70254e-12
5.48143e-12
-8.48751e-12
5.43702e-12
-9.26859e-12
5.39802e-12
-1.00465e-11
5.36152e-12
-1.08218e-11
5.32324e-12
-1.15943e-11
5.2776e-12
-1.23628e-11
5.21938e-12
-1.31259e-11
5.1429e-12
-1.38799e-11
5.03918e-12
-1.46198e-11
4.90103e-12
-1.53404e-11
4.72258e-12
-1.60348e-11
4.49526e-12
-1.66951e-11
4.21363e-12
-1.73134e-11
3.87366e-12
-1.78811e-11
3.47109e-12
-1.83889e-11
3.00526e-12
-1.88282e-11
2.47647e-12
-1.919e-11
1.88712e-12
-1.94658e-11
1.24148e-12
-1.96488e-11
5.45388e-13
-1.97308e-11
-1.95219e-13
-1.97073e-11
-9.71503e-13
-1.95725e-11
-1.77614e-12
-1.93237e-11
-2.59931e-12
-1.89585e-11
-3.43199e-12
-1.84777e-11
-4.26302e-12
-1.78817e-11
-5.08427e-12
-1.71736e-11
-5.88315e-12
-1.63567e-11
-6.65222e-12
-1.54358e-11
-7.3824e-12
-1.4416e-11
-8.06466e-12
-1.33046e-11
-8.69492e-12
-1.21082e-11
-9.26723e-12
-1.08354e-11
-9.77397e-12
-9.49535e-12
-1.02149e-11
-8.09694e-12
-1.05819e-11
-6.65007e-12
-1.08742e-11
-5.16407e-12
-1.10914e-11
-3.64917e-12
-1.12326e-11
-2.11491e-12
-1.1302e-11
-5.71284e-13
-1.1303e-11
9.72309e-13
-1.12386e-11
2.50522e-12
-1.11104e-11
4.02008e-12
-1.09286e-11
5.50958e-12
-1.06993e-11
6.96978e-12
-1.04305e-11
8.3913e-12
-1.01247e-11
9.77751e-12
-9.79685e-12
1.11171e-11
-9.43993e-12
1.24162e-11
-9.07507e-12
1.36671e-11
-8.69362e-12
1.48746e-11
-8.30978e-12
1.60348e-11
-7.91978e-12
1.71485e-11
-7.52428e-12
1.82157e-11
-7.12453e-12
1.92359e-11
-6.71741e-12
2.02053e-11
-6.29604e-12
2.11213e-11
-5.85674e-12
2.19805e-11
-5.39471e-12
2.27772e-11
-4.90067e-12
2.35072e-11
-4.36854e-12
2.41598e-11
-3.7852e-12
2.4729e-11
-3.14901e-12
2.52042e-11
-2.44805e-12
2.55752e-11
-1.68048e-12
2.58313e-11
-8.40378e-13
2.59606e-11
7.47709e-14
2.59509e-11
1.06632e-12
2.57892e-11
2.13301e-12
2.54629e-11
3.27498e-12
2.49595e-11
4.48778e-12
2.42676e-11
5.76926e-12
2.33761e-11
7.11374e-12
2.22752e-11
8.51414e-12
2.09552e-11
9.96471e-12
1.9408e-11
1.14582e-11
1.7627e-11
1.2985e-11
1.56067e-11
1.4535e-11
1.33433e-11
1.60957e-11
1.08348e-11
1.76502e-11
8.08165e-12
1.91819e-11
5.08728e-12
2.06716e-11
1.85766e-12
2.20964e-11
-1.59735e-12
2.3427e-11
-5.25866e-12
2.46304e-11
-9.10717e-12
2.56385e-11
-1.31019e-11
2.64685e-11
-1.71844e-11
2.68171e-11
-2.11934e-11
2.63848e-11
-2.4729e-11
2.3254e-11
1.47267e-11
-2.68739e-11
-4.86024e-13
3.71847e-12
-1.22503e-12
5.78435e-12
-2.03826e-12
6.45133e-12
-2.86741e-12
6.61772e-12
-3.69565e-12
6.60207e-12
-4.51677e-12
6.53743e-12
-5.32872e-12
6.46445e-12
-6.13178e-12
6.39366e-12
-6.92679e-12
6.32817e-12
-7.71517e-12
6.27047e-12
-8.49887e-12
6.22139e-12
-9.27942e-12
6.17925e-12
-1.00576e-11
6.14041e-12
-1.08344e-11
6.10074e-12
-1.16102e-11
6.05417e-12
-1.23842e-11
5.9941e-12
-1.31541e-11
5.91364e-12
-1.39169e-11
5.80275e-12
-1.46675e-11
5.65252e-12
-1.54e-11
5.45589e-12
-1.61078e-11
5.20391e-12
-1.6783e-11
4.88967e-12
-1.74167e-11
4.50811e-12
-1.80004e-11
4.05559e-12
-1.85244e-11
3.53001e-12
-1.8979e-11
2.9318e-12
-1.93557e-11
2.26457e-12
-1.96449e-11
1.53136e-12
-1.98392e-11
7.40377e-13
-1.99311e-11
-1.02803e-13
-1.99143e-11
-9.87755e-13
-1.97842e-11
-1.90577e-12
-1.95374e-11
-2.84578e-12
-1.91722e-11
-3.79682e-12
-1.86882e-11
-4.74668e-12
-1.80875e-11
-5.68468e-12
-1.7372e-11
-6.59829e-12
-1.65453e-11
-7.47859e-12
-1.5613e-11
-8.31442e-12
-1.45799e-11
-9.09743e-12
-1.34531e-11
-9.82142e-12
-1.22413e-11
-1.04789e-11
-1.09524e-11
-1.10627e-11
-9.59502e-12
-1.15722e-11
-8.17898e-12
-1.19979e-11
-6.71386e-12
-1.23394e-11
-5.20993e-12
-1.25953e-11
-3.67728e-12
-1.27653e-11
-2.12567e-12
-1.28536e-11
-5.65809e-13
-1.28628e-11
9.92843e-13
-1.27972e-11
2.54063e-12
-1.26581e-11
4.06836e-12
-1.24562e-11
5.56712e-12
-1.2198e-11
7.03834e-12
-1.19017e-11
8.46967e-12
-1.1556e-11
9.85962e-12
-1.11867e-11
1.12057e-11
-1.07858e-11
1.25059e-11
-1.03751e-11
1.37601e-11
-9.94769e-12
1.49687e-11
-9.51817e-12
1.61307e-11
-9.08152e-12
1.72472e-11
-8.64048e-12
1.83186e-11
-8.19573e-12
1.93423e-11
-7.7409e-12
2.03176e-11
-7.27114e-12
2.12421e-11
-6.78126e-12
2.21122e-11
-6.26496e-12
2.2922e-11
-5.71074e-12
2.36638e-11
-5.11071e-12
2.4333e-11
-4.45489e-12
2.49179e-11
-3.73435e-12
2.5412e-11
-2.94258e-12
2.58026e-11
-2.07146e-12
2.60781e-11
-1.11625e-12
2.62279e-11
-7.53509e-14
2.6238e-11
1.05595e-12
2.60958e-11
2.27495e-12
2.57881e-11
3.58254e-12
2.53023e-11
4.97354e-12
2.46265e-11
6.44504e-12
2.37496e-11
7.99068e-12
2.26609e-11
9.60282e-12
2.13517e-11
1.1274e-11
1.98129e-11
1.29971e-11
1.80372e-11
1.47607e-11
1.60189e-11
1.65534e-11
1.37546e-11
1.836e-11
1.12408e-11
2.0164e-11
8.477e-12
2.19457e-11
5.46529e-12
2.36832e-11
2.21083e-12
2.53507e-11
-1.2767e-12
2.69143e-11
-4.98173e-12
2.83353e-11
-8.88805e-12
2.95448e-11
-1.29534e-11
3.05339e-11
-1.71231e-11
3.09869e-11
-2.12379e-11
3.04998e-11
-2.48732e-11
2.68894e-11
1.69136e-11
-2.706e-11
-4.90974e-13
4.20991e-12
-1.23475e-12
6.52899e-12
-2.05207e-12
7.26942e-12
-2.88398e-12
7.45038e-12
-3.71367e-12
7.43248e-12
-4.53524e-12
7.35971e-12
-5.34663e-12
7.27653e-12
-6.14826e-12
7.19596e-12
-6.94144e-12
7.12201e-12
-7.72788e-12
7.05758e-12
-8.50971e-12
7.0039e-12
-9.28913e-12
6.95938e-12
-1.00675e-11
6.91951e-12
-1.08458e-11
6.87989e-12
-1.16251e-11
6.83428e-12
-1.2405e-11
6.7748e-12
-1.31828e-11
6.69236e-12
-1.39551e-11
6.57599e-12
-1.47177e-11
6.41612e-12
-1.54641e-11
6.20323e-12
-1.6187e-11
5.92777e-12
-1.6879e-11
5.58263e-12
-1.75305e-11
5.1605e-12
-1.81322e-11
4.65816e-12
-1.86745e-11
4.0731e-12
-1.91469e-11
3.40503e-12
-1.95401e-11
2.65845e-12
-1.9845e-11
1.83691e-12
-2.00522e-11
9.48138e-13
-2.0155e-11
4.77007e-16
-2.01461e-11
-9.96208e-13
-2.00212e-11
-2.03029e-12
-1.97764e-11
-3.09023e-12
-1.9411e-11
-4.16196e-12
-1.89239e-11
-5.2334e-12
-1.83171e-11
-6.2911e-12
-1.75934e-11
-7.32151e-12
-1.67561e-11
-8.31551e-12
-1.58101e-11
-9.25989e-12
-1.47624e-11
-1.01448e-11
-1.36196e-11
-1.09638e-11
-1.23905e-11
-1.17078e-11
-1.10824e-11
-1.23706e-11
-9.70515e-12
-1.29494e-11
-8.26831e-12
-1.34347e-11
-6.78204e-12
-1.38257e-11
-5.25704e-12
-1.41204e-11
-3.70351e-12
-1.43188e-11
-2.13193e-12
-1.44252e-11
-5.53432e-13
-1.44413e-11
1.01902e-12
-1.43697e-11
2.58568e-12
-1.42247e-11
4.1286e-12
-1.39991e-11
5.64262e-12
-1.3712e-11
7.12084e-12
-1.33797e-11
8.55987e-12
-1.29948e-11
9.95487e-12
-1.25814e-11
1.13056e-11
-1.21362e-11
1.26079e-11
-1.16771e-11
1.38649e-11
-1.12043e-11
1.50744e-11
-1.07273e-11
1.62367e-11
-1.02434e-11
1.73562e-11
-9.75958e-12
1.84294e-11
-9.26864e-12
1.94561e-11
-8.76727e-12
2.04359e-11
-8.25077e-12
2.13687e-11
-7.71407e-12
2.22493e-11
-7.1457e-12
2.30728e-11
-6.53454e-12
2.38316e-11
-5.86982e-12
2.45177e-11
-5.1414e-12
2.5123e-11
-4.34011e-12
2.5637e-11
-3.45695e-12
2.6049e-11
-2.48379e-12
2.63483e-11
-1.41587e-12
2.65205e-11
-2.47735e-13
2.65534e-11
1.02295e-12
2.64336e-11
2.39473e-12
2.61476e-11
3.86855e-12
2.56823e-11
5.43896e-12
2.50256e-11
7.10192e-12
2.4166e-11
8.85042e-12
2.30928e-11
1.06761e-11
2.17961e-11
1.25709e-11
2.02674e-11
1.45259e-11
1.84987e-11
1.65296e-11
1.64841e-11
1.8568e-11
1.42194e-11
2.06248e-11
1.17005e-11
2.26828e-11
8.92584e-12
2.47202e-11
5.89581e-12
2.6713e-11
2.61479e-12
2.86315e-11
-9.10096e-13
3.0439e-11
-4.66352e-12
3.20886e-11
-8.63416e-12
3.35154e-11
-1.27821e-11
3.4682e-11
-1.7055e-11
3.52601e-11
-2.12977e-11
3.47427e-11
-2.50587e-11
3.06506e-11
1.91653e-11
-2.73101e-11
-4.9612e-13
4.7065e-12
-1.24463e-12
7.27838e-12
-2.06652e-12
8.09209e-12
-2.90226e-12
8.28687e-12
-3.73395e-12
8.2649e-12
-4.55608e-12
8.18256e-12
-5.3668e-12
8.08795e-12
-6.16662e-12
7.99646e-12
-6.95732e-12
7.9134e-12
-7.7413e-12
7.84226e-12
-8.52087e-12
7.7842e-12
-9.29857e-12
7.73785e-12
-1.00767e-11
7.69843e-12
-1.08569e-11
7.66095e-12
-1.164e-11
7.61829e-12
-1.2426e-11
7.56173e-12
-1.32126e-11
7.48001e-12
-1.39959e-11
7.3603e-12
-1.47717e-11
7.19295e-12
-1.55338e-11
6.9664e-12
-1.62741e-11
6.66916e-12
-1.69848e-11
6.29428e-12
-1.76565e-11
5.83318e-12
-1.82789e-11
5.28137e-12
-1.88415e-11
4.63649e-12
-1.93344e-11
3.89869e-12
-1.97463e-11
3.07097e-12
-2.00685e-11
2.15971e-12
-2.02908e-11
1.17094e-12
-2.04057e-11
1.15742e-13
-2.04061e-11
-9.95446e-13
-2.02871e-11
-2.14897e-12
-2.00453e-11
-3.33174e-12
-1.96793e-11
-4.52756e-12
-1.9189e-11
-5.72331e-12
-1.85756e-11
-6.90408e-12
-1.78424e-11
-8.05419e-12
-1.6993e-11
-9.16443e-12
-1.60329e-11
-1.02195e-11
-1.49679e-11
-1.12093e-11
-1.38064e-11
-1.21249e-11
-1.2557e-11
-1.29568e-11
-1.12274e-11
-1.37e-11
-9.82763e-12
-1.43491e-11
-8.36743e-12
-1.48949e-11
-6.85748e-12
-1.53356e-11
-5.30875e-12
-1.56691e-11
-3.73175e-12
-1.58959e-11
-2.13755e-12
-1.60194e-11
-5.3751e-13
-1.60413e-11
1.05764e-12
-1.59648e-11
2.63481e-12
-1.58019e-11
4.19637e-12
-1.55606e-11
5.72372e-12
-1.52392e-11
7.21099e-12
-1.48668e-11
8.65979e-12
-1.44433e-11
1.00588e-11
-1.398e-11
1.14157e-11
-1.34928e-11
1.27201e-11
-1.2981e-11
1.39785e-11
-1.24622e-11
1.51866e-11
-1.19349e-11
1.63523e-11
-1.14087e-11
1.74712e-11
-1.08781e-11
1.8544e-11
-1.03411e-11
1.95754e-11
-9.79846e-12
2.05622e-11
-9.23736e-12
2.15031e-11
-8.655e-12
2.23947e-11
-8.03738e-12
2.32311e-11
-7.37108e-12
2.40058e-11
-6.64468e-12
2.47123e-11
-5.84817e-12
2.53397e-11
-4.96779e-12
2.58778e-11
-3.99534e-12
2.63151e-11
-2.92134e-12
2.66394e-11
-1.7403e-12
2.68376e-11
-4.45984e-13
2.68968e-11
9.63822e-13
2.68025e-11
2.48906e-12
2.65415e-11
4.12972e-12
2.61002e-11
5.88044e-12
2.54664e-11
7.7359e-12
2.46276e-11
9.68933e-12
2.35721e-11
1.17317e-11
2.22909e-11
1.38522e-11
2.07748e-11
1.60421e-11
1.9015e-11
1.82895e-11
1.70056e-11
2.05776e-11
1.47413e-11
2.28891e-11
1.22173e-11
2.52067e-11
9.43087e-12
2.75065e-11
6.38118e-12
2.97625e-11
3.07127e-12
3.19412e-11
-4.9397e-13
3.40042e-11
-4.3016e-12
3.58963e-11
-8.34276e-12
3.75568e-11
-1.25844e-11
3.89238e-11
-1.69755e-11
3.96514e-11
-2.13649e-11
3.91323e-11
-2.52785e-11
3.45644e-11
2.15047e-11
-2.76176e-11
-5.01669e-13
5.20865e-12
-1.25535e-12
8.03294e-12
-2.08233e-12
8.91986e-12
-2.92279e-12
9.12809e-12
-3.75697e-12
9.09982e-12
-4.57965e-12
9.00596e-12
-5.38949e-12
8.8985e-12
-6.18723e-12
8.79491e-12
-6.97493e-12
8.70182e-12
-7.75567e-12
8.62375e-12
-8.53239e-12
8.56172e-12
-9.30795e-12
8.51424e-12
-1.00853e-11
8.47669e-12
-1.08673e-11
8.44385e-12
-1.16547e-11
8.40669e-12
-1.24472e-11
8.35524e-12
-1.32433e-11
8.27709e-12
-1.40391e-11
8.15717e-12
-1.48296e-11
7.98459e-12
-1.5609e-11
7.74682e-12
-1.63692e-11
7.43042e-12
-1.71011e-11
7.02711e-12
-1.77953e-11
6.52821e-12
-1.8441e-11
5.92797e-12
-1.90266e-11
5.22276e-12
-1.9542e-11
4.4147e-12
-1.99754e-11
3.50497e-12
-2.03166e-11
2.50132e-12
-2.0556e-11
1.41075e-12
-2.06844e-11
2.44501e-13
-2.06954e-11
-9.84199e-13
-2.05831e-11
-2.26092e-12
-2.03445e-11
-3.56995e-12
-1.99784e-11
-4.89329e-12
-1.94842e-11
-6.21713e-12
-1.88638e-11
-7.52398e-12
-1.81201e-11
-8.79736e-12
-1.72573e-11
-1.00268e-11
-1.62811e-11
-1.11951e-11
-1.51976e-11
-1.22923e-11
-1.40154e-11
-1.33067e-11
-1.2743e-11
-1.42288e-11
-1.13889e-11
-1.50538e-11
-9.96399e-12
-1.57738e-11
-8.47782e-12
-1.63809e-11
-6.94131e-12
-1.6872e-11
-5.36589e-12
-1.72445e-11
-3.76256e-12
-1.74991e-11
-2.14334e-12
-1.76386e-11
-5.19623e-13
-1.7665e-11
1.09857e-12
-1.7583e-11
2.69838e-12
-1.74016e-11
4.27262e-12
-1.71347e-11
5.81459e-12
-1.6781e-11
7.31411e-12
-1.63661e-11
8.77224e-12
-1.59011e-11
1.01809e-11
-1.53883e-11
1.15391e-11
-1.48507e-11
1.28472e-11
-1.42887e-11
1.41057e-11
-1.37204e-11
1.53165e-11
-1.31453e-11
1.6481e-11
-1.25728e-11
1.75992e-11
-1.1996e-11
1.86788e-11
-1.14205e-11
1.97151e-11
-1.08345e-11
2.07088e-11
-1.0231e-11
2.16592e-11
-9.60525e-12
2.25624e-11
-8.94054e-12
2.34141e-11
-8.22276e-12
2.42072e-11
-7.43776e-12
2.49336e-11
-6.57462e-12
2.55838e-11
-5.6181e-12
2.61476e-11
-4.55921e-12
2.66122e-11
-3.38601e-12
2.69649e-11