/*--------------------------------*- C++ -*----------------------------------*\
| =========                 |                                                 |
| \\      /  F ield         | OpenFOAM: The Open Source CFD Toolbox           |
|  \\    /   O peration     | Version:  2.4.0                                 |
|   \\  /    A nd           | Web:      www.OpenFOAM.org                      |
|    \\/     M anipulation  |                                                 |
\*---------------------------------------------------------------------------*/
FoamFile
{
    version     2.0;
    format      ascii;
    class       surfaceScalarField;
    location    "0.176";
    object      phiAlpha;
}
// * * * * * * * * * * * * * * * * * * * * * * * * * * * * * * * * * * * * * //

dimensions      [0 3 -1 0 0 0 0];

internalField   nonuniform List<scalar> 
12835
(
-1.58786e-07
1.59449e-07
-3.03449e-07
1.48894e-07
-3.07282e-07
1.21614e-08
-2.08548e-07
-9.67923e-08
-1.69229e-07
-3.60292e-08
-1.47288e-07
-2.22196e-09
1.91511e-07
-2.40571e-07
1.34028e-07
-7.90436e-09
1.72103e-07
-1.41915e-07
-3.12496e-08
2.40462e-07
-4.20844e-09
-3.69872e-08
1.25834e-08
-1.93563e-08
9.07283e-09
2.78083e-09
5.63118e-09
3.71579e-09
8.29941e-09
6.0666e-09
1.05291e-08
-2.14706e-09
1.02706e-08
-1.09882e-10
1.63651e-09
9.95597e-09
-2.31943e-09
4.30111e-09
-9.44422e-10
-1.4503e-13
-1.07992e-09
4.72278e-09
-3.43354e-13
4.75845e-11
-3.46014e-13
2.6536e-15
-1.29108e-12
9.45387e-13
-7.88122e-12
6.61178e-12
-5.85177e-10
2.45736e-11
5.59977e-11
-4.63402e-09
5.35014e-09
-6.94311e-09
1.14373e-08
-8.88936e-09
9.03551e-09
-7.79418e-10
4.10798e-10
4.63968e-09
9.9485e-12
4.00849e-10
1.18772e-11
1.16505e-10
5.9539e-11
-1.65977e-11
1.37016e-11
-1.54233e-11
5.8993e-13
1.1572e-11
-1.9284e-12
8.69661e-12
-1.54798e-12
4.04633e-12
-4.44402e-12
6.58355e-13
-7.41763e-12
4.48599e-12
-5.3076e-12
5.8323e-12
-6.44432e-12
2.87897e-12
-4.31999e-12
2.2889e-12
5.60563e-14
3.02139e-13
-9.542e-12
-6.25241e-14
-1.45924e-11
-9.02199e-13
-1.17958e-11
-2.13646e-12
-9.50802e-12
-1.65331e-12
-1.20597e-16
-9.96534e-13
-4.61087e-17
-7.44925e-17
-2.05004e-07
3.65062e-07
-3.35715e-07
2.82369e-07
-3.13629e-07
-1.32868e-08
-2.1462e-07
-1.99205e-07
-2.05798e-07
-4.3878e-08
-2.28972e-07
5.06225e-08
2.22378e-09
-5.88968e-07
-1.74385e-07
1.45872e-07
-1.00384e-07
-2.39922e-07
-3.57261e-08
1.06871e-07
3.9079e-08
-2.21801e-07
3.87168e-08
-1.13719e-07
9.33106e-09
7.83419e-09
1.17478e-08
9.69107e-09
1.61422e-08
1.81954e-08
2.6889e-08
-7.81935e-09
2.54306e-08
-7.14882e-09
3.39663e-09
2.53517e-08
1.83732e-09
7.35685e-09
-3.5683e-09
8.86866e-09
-4.7197e-11
9.47169e-09
-6.168e-13
4.84477e-13
-1.06301e-12
4.20582e-13
-1.19777e-11
1.14174e-11
6.84507e-11
-1.75215e-10
-1.46487e-09
-1.68439e-09
4.41966e-09
-2.83679e-08
1.13571e-08
-1.38687e-08
1.20704e-08
-9.59294e-09
1.16651e-08
-3.64959e-10
7.41613e-09
8.89724e-09
2.23768e-10
1.15912e-09
4.33598e-11
4.06154e-10
3.2288e-10
-3.19737e-11
9.0996e-11
5.70547e-11
-3.7321e-12
4.90009e-11
-3.26242e-13
7.11459e-12
7.64929e-13
8.50516e-12
-1.49832e-12
1.17935e-12
-1.05374e-12
1.23225e-12
-1.36039e-11
2.34511e-12
-5.61351e-13
5.14317e-11
-9.78168e-13
1.26152e-12
-2.34694e-12
4.04511e-13
-7.32208e-12
1.79687e-14
-1.63244e-11
-2.19354e-12
-1.5115e-11
-2.74865e-12
-1.09373e-11
-5.17846e-12
-8.0097e-15
-1.21131e-12
-2.27962e-15
-5.77944e-15
-2.00093e-07
5.65838e-07
-3.22533e-07
4.05753e-07
-2.94266e-07
-4.26838e-08
-2.06354e-07
-2.87074e-07
-2.1259e-07
-3.67407e-08
-2.00214e-07
4.00028e-08
4.19583e-07
-1.39018e-06
3.24731e-08
2.67508e-07
-1.99202e-08
-5.03933e-08
-1.41131e-08
3.96738e-08
2.6548e-08
-5.35974e-08
7.0572e-08
-7.91945e-08
1.79339e-08
7.74963e-09
1.73602e-08
1.80708e-08
2.82328e-08
3.75102e-08
2.64203e-08
-5.19447e-09
2.73606e-08
-7.36055e-09
8.52395e-09
1.98892e-08
1.11536e-09
1.40038e-08
-9.11929e-10
2.07973e-08
-3.78645e-13
1.28107e-08
-9.33317e-13
2.42516e-13
-3.97288e-12
3.00726e-12
-4.08555e-11
4.68394e-11
-8.48452e-10
-4.99647e-10
-1.38822e-09
-1.50649e-09
-3.60526e-09
-5.39978e-09
-6.47536e-10
-9.85481e-09
1.39583e-09
-1.16261e-08
3.09366e-09
-2.05438e-09
1.79667e-09
1.58878e-09
-9.26714e-11
3.13048e-11
9.68211e-10
7.03689e-10
5.81811e-10
6.23775e-10
2.55571e-10
2.15346e-10
4.6679e-12
7.43e-11
-1.33782e-13
1.3784e-11
3.25071e-12
9.24565e-13
5.6422e-13
7.06802e-12
-1.43673e-14
1.40904e-12
6.96719e-14
1.36835e-13
-6.27878e-13
2.91851e-11
-4.66643e-11
2.13198e-10
-9.14744e-13
7.05068e-11
-1.62589e-12
1.73336e-13
-1.7747e-12
-2.56595e-13
-2.7361e-12
-1.12098e-12
-6.96312e-13
-5.41588e-13
-2.69172e-14
-2.99903e-14
-1.51478e-14
-1.43212e-14
-1.88759e-07
7.54782e-07
-3.02269e-07
5.19181e-07
-2.69808e-07
-7.51005e-08
-1.84703e-07
-3.72139e-07
-2.08478e-07
-1.2915e-08
-3.38311e-07
1.69836e-07
2.02757e-08
-1.79735e-06
5.10123e-08
-2.26911e-08
1.97184e-08
-8.81985e-08
7.69722e-09
1.12287e-07
1.36249e-08
-6.364e-08
3.71751e-08
-3.33646e-08
2.52266e-08
1.28258e-08
1.29824e-08
3.06752e-08
2.69534e-08
4.94555e-08
3.27718e-08
-1.71563e-10
2.72778e-08
-1.41185e-09
1.93386e-08
2.81955e-08
1.60123e-09
2.77228e-08
-9.59784e-10
2.46977e-08
-7.05984e-12
2.69319e-08
-8.109e-12
6.63112e-13
-1.75093e-11
1.17213e-11
3.22874e-11
-9.51135e-11
1.06997e-09
-1.55713e-09
-5.15366e-10
1.24662e-10
-5.06024e-10
-3.38198e-09
-3.08445e-09
-5.31109e-10
-7.55337e-10
-5.95467e-10
1.07009e-09
-4.41908e-10
4.32886e-10
6.85728e-12
1.80002e-10
1.54722e-11
1.25654e-09
4.6164e-10
7.57057e-10
1.138e-09
9.77594e-10
8.90381e-12
1.66581e-11
2.18959e-10
-6.69829e-13
2.57174e-11
1.73269e-12
3.2194e-12
6.57545e-13
9.93568e-12
6.15111e-13
1.11824e-12
9.29598e-13
-9.54077e-14
7.00017e-12
2.98126e-12
2.28556e-11
3.67563e-10
-8.62476e-11
6.04844e-10
-7.90292e-12
1.00024e-10
-1.01539e-12
-8.64674e-12
-7.80524e-14
-2.17787e-12
-1.25329e-14
-6.33872e-13
-4.1012e-15
-6.35971e-14
-2.11043e-14
-2.68059e-14
-1.75355e-07
9.30153e-07
-2.77984e-07
6.21826e-07
-2.40653e-07
-1.09179e-07
-1.70024e-07
-4.30581e-07
-2.08315e-07
2.23172e-08
-3.01108e-07
2.62339e-07
-3.86483e-08
-1.98867e-06
8.17719e-08
-2.13888e-07
6.54783e-08
-6.33649e-08
7.32893e-09
1.66391e-07
1.33233e-08
-7.24144e-08
1.61065e-08
-3.8973e-08
4.42012e-08
1.38844e-09
4.28279e-08
4.55997e-08
5.12216e-08
4.19743e-08
4.97514e-08
-1.03885e-08
2.56915e-08
3.05577e-09
1.92933e-08
3.43925e-09
7.26403e-09
3.79494e-08
9.10412e-11
3.28354e-08
-2.65321e-12
3.9141e-08
-3.11318e-12
7.33191e-13
5.54767e-12
3.64267e-13
5.39066e-11
-1.33311e-11
4.82604e-10
-4.98804e-10
2.62387e-10
5.27439e-10
-5.39972e-11
-1.42324e-09
-1.29628e-11
-3.5073e-10
1.88752e-11
-3.95743e-10
9.80959e-11
-4.07576e-10
1.28654e-10
-7.53571e-13
6.59085e-11
6.94189e-11
1.63793e-10
3.82615e-10
7.14487e-10
6.3996e-10
9.53084e-10
-2.16743e-10
3.67001e-11
3.23926e-10
-2.09657e-12
2.73305e-11
2.96446e-12
2.80175e-12
2.49467e-12
1.20827e-11
1.88021e-13
7.26961e-13
3.36045e-13
-1.43616e-13
3.39462e-12
1.43263e-13
2.40803e-10
1.74089e-10
-7.04427e-11
1.5712e-09
-4.07553e-11
3.07079e-10
-5.28309e-12
-2.43766e-11
-9.9023e-14
-8.62918e-12
3.37691e-14
-8.41314e-13
2.79864e-14
-1.24443e-13
-9.81953e-14
1.80713e-13
-1.61887e-07
1.09205e-06
-2.5263e-07
7.12788e-07
-2.09125e-07
-1.46153e-07
-1.6083e-07
-4.79757e-07
-1.86731e-07
4.40087e-08
-1.8688e-07
2.62573e-07
3.98317e-08
-2.22723e-06
3.98905e-08
-3.03036e-07
2.4317e-08
-7.51446e-08
-6.43677e-09
8.35511e-07
8.44068e-09
-1.13733e-07
1.31034e-08
-4.60385e-08
6.12508e-08
-1.33748e-09
6.10683e-08
4.61731e-08
5.91397e-08
4.38209e-08
5.78637e-08
-9.03113e-09
2.03012e-08
8.28133e-09
1.57739e-08
-6.99999e-10
1.22944e-08
4.2367e-08
6.4804e-09
3.95361e-08
-6.95448e-13
4.68471e-08
-1.13723e-12
9.92615e-13
-8.92625e-13
1.82591e-12
-7.60437e-12
-5.07319e-12
-3.97494e-10
-1.07623e-10
-7.27889e-11
1.93995e-10
-1.51704e-10
3.44847e-10
4.6218e-13
-3.297e-10
3.55502e-11
-2.39466e-10
2.05693e-10
-5.29169e-10
9.60786e-11
1.00271e-10
5.22712e-11
1.05138e-10
6.63419e-11
3.60931e-10
8.03252e-10
3.87348e-10
7.39641e-10
-1.41235e-10
7.36617e-11
3.01288e-10
-2.38139e-12
2.41716e-11
2.98361e-13
6.63793e-13
2.03792e-12
-2.12701e-13
5.64461e-14
-5.02273e-14
6.81548e-14
-4.64734e-14
3.16052e-13
8.79439e-14
7.06848e-11
3.37955e-11
1.07349e-10
2.01795e-09
-6.8306e-12
8.82779e-10
9.32221e-11
4.74698e-11
1.00291e-11
5.15374e-11
-7.82267e-13
8.89043e-12
9.52807e-14
-1.80441e-12
-7.50256e-14
5.53575e-13
-1.48065e-07
1.24013e-06
-2.22711e-07
7.87798e-07
-1.86218e-07
-1.75357e-07
-1.4639e-07
-5.2629e-07
-1.5759e-07
5.10868e-08
-2.24423e-07
3.29713e-07
-1.05536e-07
-2.42672e-06
8.27624e-08
-6.38241e-07
1.52814e-08
-8.53932e-08
-6.04114e-08
9.90221e-07
1.39775e-09
-9.05358e-07
6.65849e-09
-6.90249e-08
3.7613e-08
-2.05938e-08
6.43385e-08
1.93137e-08
6.29246e-08
4.54496e-08
6.32006e-08
-8.86463e-09
2.31641e-08
4.06489e-09
5.66737e-09
6.72663e-09
1.40927e-08
3.49713e-08
1.28503e-08
2.43781e-08
2.46726e-09
1.98303e-08
-4.44065e-12
1.31132e-08
-3.36109e-12
2.25649e-12
-1.58145e-12
-5.71267e-12
-8.75227e-11
-7.62833e-11
5.51829e-11
-1.57122e-10
-2.53813e-10
-3.21694e-09
2.32478e-11
-2.2551e-09
1.42739e-10
-1.08369e-09
4.19772e-10
-1.42838e-09
2.28443e-10
8.62833e-11
2.31626e-10
9.45184e-11
2.11995e-09
1.31176e-09
9.95935e-10
1.53177e-09
5.24682e-10
3.41565e-10
2.77964e-11
1.74072e-10
3.22278e-13
8.49113e-12
1.82651e-13
9.76063e-13
2.42968e-13
5.69169e-14
1.25253e-13
-1.01391e-14
7.72993e-14
2.47675e-13
-1.00493e-12
1.39294e-12
-9.02343e-11
4.73323e-11
5.94065e-11
1.82465e-09
3.06296e-10
9.30806e-10
4.76986e-10
6.30437e-10
3.12215e-10
5.77606e-11
9.21503e-12
5.6416e-12
-3.69319e-13
-1.01897e-12
-4.34251e-14
1.9463e-13
-1.33848e-07
1.37399e-06
-1.91183e-07
8.46392e-07
-1.72327e-07
-1.95264e-07
-1.45414e-07
-5.61496e-07
-1.55483e-07
6.14938e-08
-2.50687e-07
4.25208e-07
-1.74189e-07
-2.50386e-06
1.79328e-07
-1.1411e-06
-1.74368e-10
-3.12821e-09
-3.6904e-08
1.09766e-06
7.44402e-09
-3.0213e-07
7.96145e-10
-2.7398e-07
1.98897e-08
-3.4062e-08
5.78126e-08
3.88218e-09
6.28218e-08
4.03244e-08
5.1918e-08
-1.88868e-08
2.28438e-08
1.74973e-09
2.50676e-09
2.06981e-08
8.07183e-09
1.99508e-08
9.11302e-09
7.50642e-09
4.41177e-09
3.18405e-09
-2.04961e-11
6.00126e-09
-2.10116e-11
4.67756e-12
-3.75211e-12
-2.24968e-11
-5.65579e-11
-1.19904e-10
1.39307e-10
-2.6312e-10
-3.33453e-10
-1.04485e-08
-2.03404e-10
-1.39447e-08
6.28652e-11
-1.68932e-09
1.72526e-10
-1.89809e-09
1.58669e-10
-8.36515e-11
1.68242e-10
7.56614e-11
1.37214e-09
5.27377e-10
8.57855e-10
2.06665e-09
2.99705e-10
9.19375e-10
5.90413e-12
1.49639e-10
-1.26635e-13
7.8348e-12
2.43017e-14
7.40481e-13
2.36731e-13
1.62062e-13
2.9883e-13
2.54481e-13
-1.60646e-13
9.30423e-13
-2.27044e-12
3.72582e-12
-7.50646e-11
6.75228e-11
-1.95939e-10
1.99609e-09
1.08372e-09
3.25232e-11
2.0631e-09
-5.82667e-09
-1.45964e-10
-1.73303e-08
-6.3732e-12
-1.04614e-10
-1.6739e-13
-7.03272e-12
8.15664e-15
9.14446e-14
-1.21529e-07
1.49554e-06
-1.74509e-07
9.00182e-07
-1.52399e-07
-2.21326e-07
-1.3987e-07
-5.73836e-07
-1.56538e-07
7.7392e-08
-2.30376e-07
4.93368e-07
-1.71749e-07
-2.5621e-06
5.19131e-08
-1.65619e-06
3.40182e-08
-4.199e-07
3.7899e-08
4.48687e-07
3.75303e-09
-3.41632e-08
1.71792e-08
-1.24016e-08
1.4116e-08
-2.48756e-08
2.94078e-08
-2.61376e-10
4.16888e-08
5.31707e-09
2.09678e-08
-1.12638e-08
5.64837e-09
-1.99216e-09
9.09882e-10
1.95039e-08
4.04199e-09
1.13441e-08
1.51896e-08
-4.90164e-09
1.45856e-09
1.34482e-08
7.02419e-11
1.79714e-09
-8.02611e-11
1.55644e-10
-1.13612e-11
-9.19853e-11
9.28435e-11
-3.36504e-10
1.23733e-09
-1.51611e-09
-1.99376e-10
-8.9652e-09
4.99915e-10
-1.45568e-08
8.04806e-11
-1.27646e-09
1.25629e-10
-1.19082e-09
1.47938e-10
-9.23366e-12
8.59644e-11
5.33191e-11
3.24652e-10
8.6234e-11
6.02172e-10
1.59127e-09
1.78111e-10
9.48074e-10
-6.64638e-12
6.06249e-11
-2.36659e-13
1.70177e-12
6.68193e-14
6.35268e-13
2.58697e-13
1.7535e-13
2.72537e-13
3.48849e-13
3.19658e-15
1.51015e-12
1.25445e-12
2.64312e-12
-1.77863e-12
1.39551e-10
-1.39151e-10
1.65949e-09
8.89337e-10
-3.20056e-09
2.73651e-09
-1.87557e-08
-3.61652e-10
-1.39523e-08
3.17523e-12
-4.08453e-09
-1.66067e-12
-3.84636e-14
2.31501e-14
9.27024e-15
-1.11323e-07
1.60687e-06
-1.58325e-07
9.46134e-07
-1.3827e-07
-2.42725e-07
-1.3705e-07
-5.74084e-07
-1.59224e-07
9.9625e-08
-1.87355e-07
5.078e-07
-1.41456e-07
-2.61235e-06
-1.78642e-07
-1.91579e-06
1.78562e-07
-2.8855e-06
1.68611e-08
2.74721e-07
2.97536e-09
-2.24432e-08
2.13397e-09
-1.35868e-08
7.65326e-09
-1.01781e-08
1.08238e-08
-1.99095e-10
1.16477e-08
-1.47976e-09
5.27617e-09
-6.25151e-09
1.86412e-09
3.63116e-09
2.01815e-09
8.76266e-08
1.47497e-09
7.82641e-08
3.01569e-08
-2.86142e-08
6.70933e-10
4.24124e-08
4.7399e-11
2.43945e-09
-2.13496e-10
4.51267e-10
-1.99446e-11
-5.71179e-09
-2.43477e-11
-5.6272e-10
1.22474e-09
-1.79572e-09
2.74381e-10
-7.92451e-09
3.32175e-10
-1.45284e-08
1.25093e-10
-1.17329e-09
9.09125e-11
-1.16835e-09
9.88256e-11
-2.58177e-11
4.81899e-11
4.14755e-11
4.6708e-11
9.25258e-11
3.30746e-10
8.70439e-10
7.51893e-11
-3.43737e-11
-9.7407e-13
8.84011e-11
-2.44746e-13
1.19495e-12
4.10765e-14
4.94436e-13
3.46285e-13
-4.81886e-14
4.70922e-13
2.98888e-13
7.68978e-13
7.72221e-13
1.828e-12
5.89116e-13
1.34771e-10
6.67582e-12
4.75057e-09
1.61628e-09
3.70755e-09
-2.92081e-09
1.71122e-09
-1.6578e-08
-7.73885e-10
-1.13008e-08
-1.13218e-13
-6.11402e-09
-1.16875e-14
-8.69256e-14
5.64357e-16
-1.36772e-16
-9.97812e-08
1.70689e-06
-1.32626e-07
9.83211e-07
-1.34447e-07
-2.39396e-07
-1.43629e-07
-5.61283e-07
-1.62745e-07
1.17346e-07
-1.53697e-07
5.08951e-07
-1.31176e-07
-2.63486e-06
-3.21877e-07
-1.72508e-06
1.50805e-07
-3.35811e-06
1.33584e-09
4.08601e-07
3.17158e-09
-2.67793e-08
2.03265e-09
-1.43783e-08
3.72454e-09
-5.04393e-09
5.63877e-09
-2.90833e-09
3.59153e-09
-4.62204e-10
6.67705e-09
-4.64937e-09
5.09884e-09
9.78473e-09
2.18993e-08
9.66167e-08
-6.40912e-10
1.2347e-07
9.71604e-10
-7.25717e-09
5.11259e-09
1.53997e-07
3.81824e-11
8.96167e-09
2.62312e-11
4.81181e-10
1.62293e-10
-8.15304e-09
-1.6544e-10
-1.1519e-09
-7.3948e-10
2.92658e-10
1.47306e-09
-9.95598e-09
9.75446e-10
-1.39524e-08
2.49835e-10
-7.77768e-09
1.06409e-10
-2.43384e-09
1.49129e-10
-1.68352e-10
7.23205e-12
9.49242e-11
5.06467e-12
9.86769e-11
3.62318e-11
9.51587e-11
1.6157e-11
-1.01174e-11
2.36595e-12
2.26186e-10
-2.01205e-13
2.6927e-12
2.44295e-14
3.49056e-13
3.38546e-13
-3.10733e-13
4.24528e-13
1.98632e-13
4.23938e-13
7.71307e-13
5.25717e-13
2.85794e-13
7.61661e-12
3.05811e-13
1.54189e-09
8.23181e-11
7.99191e-09
-8.62506e-10
4.96508e-09
-1.35059e-08
2.26871e-09
-8.60351e-09
-9.06417e-13
-4.3307e-09
-1.4023e-14
-9.77833e-13
-1.19788e-14
-3.45484e-15
-9.02592e-08
1.79744e-06
-1.18137e-07
1.01428e-06
-1.33384e-07
-2.24323e-07
-1.50717e-07
-5.40115e-07
-1.71301e-07
1.3664e-07
-1.28903e-07
4.67583e-07
-1.01135e-07
-2.66261e-06
-2.28305e-07
-1.5979e-06
-6.50903e-08
-3.52111e-06
1.40302e-09
3.36497e-06
2.8583e-09
-2.3783e-07
1.03917e-09
-1.50474e-08
2.39279e-09
-1.89402e-09
2.93335e-09
-4.22913e-09
1.95973e-09
-1.41616e-10
3.61001e-09
-4.83228e-09
5.16311e-09
1.75021e-08
2.15301e-08
5.14603e-08
1.18145e-08
1.40346e-07
2.45742e-09
-6.44179e-08
7.85053e-09
2.5303e-08
2.92848e-10
1.09564e-08
1.52023e-10
5.81143e-10
1.1025e-09
-1.0968e-08
8.25498e-11
-2.00747e-08
6.89307e-10
-7.46549e-09
2.84603e-09
-1.19323e-08
1.84533e-09
-1.01601e-08
9.0914e-10
-3.37226e-09
3.32632e-11
-7.35709e-09
4.74841e-12
-4.94125e-10
1.98373e-13
1.03365e-10
1.53396e-12
1.01146e-10
8.63066e-12
8.96926e-11
3.08674e-11
3.27253e-10
-5.35426e-13
6.22444e-10
-2.53592e-13
1.71779e-12
5.45216e-14
2.96044e-13
3.03901e-13
-5.73077e-13
3.50801e-13
7.82156e-14
3.29271e-13
1.1464e-12
1.75052e-13
7.85903e-13
1.05028e-13
8.352e-13
7.86274e-11
4.6469e-12
7.13198e-09
-6.85081e-09
5.92198e-09
-1.22969e-08
6.62386e-09
-9.3129e-09
-8.79475e-12
1.3943e-11
-5.22019e-14
-2.02696e-12
-5.89441e-14
-4.1248e-15
-8.23115e-08
1.8798e-06
-1.07716e-07
1.04171e-06
-1.26737e-07
-2.05844e-07
-1.65915e-07
-5.00185e-07
-1.76591e-07
1.46101e-07
-1.14525e-07
4.05558e-07
-4.73173e-08
-2.72981e-06
-1.73144e-08
-1.62748e-06
3.8495e-08
-2.53945e-06
4.28979e-08
1.46274e-06
2.14891e-09
-1.63856e-07
1.04769e-09
-1.32495e-08
1.39589e-09
-1.31968e-12
2.25019e-09
-2.25918e-09
1.18767e-09
1.43296e-09
1.45138e-09
-2.77542e-09
1.20567e-09
2.40989e-08
3.94001e-09
3.03522e-08
1.43506e-08
1.34408e-07
2.88789e-08
-7.47388e-08
6.98257e-10
-2.07498e-10
4.7512e-10
6.17851e-09
1.99957e-10
7.90083e-10
2.17611e-09
-1.4064e-08
1.2446e-09
-2.03257e-08
1.47539e-09
-7.10593e-09
2.86749e-09
-1.30783e-08
6.15056e-10
-2.06737e-09
1.61751e-10
-1.33425e-09
2.02481e-10
-1.64917e-09
-3.67852e-11
-3.26736e-10
-5.21345e-12
3.47271e-10
2.75928e-12
9.47507e-11
2.22368e-11
7.06839e-11
4.53192e-11
4.13833e-10
-3.59861e-13
6.66972e-10
-9.58574e-14
1.60403e-12
2.14742e-13
4.20515e-15
4.43676e-13
-7.79841e-13
6.12041e-13
8.97356e-15
3.89003e-13
1.68857e-12
4.5741e-13
1.18263e-12
8.21355e-13
6.9881e-13
4.02381e-09
1.32111e-10
4.29565e-09
2.54621e-10
4.13203e-09
-1.21708e-08
4.95957e-09
-1.01389e-08
-2.20633e-11
2.2047e-09
-2.31748e-13
-2.41399e-11
-2.90676e-13
1.24016e-15
-7.44522e-08
1.95427e-06
-9.52945e-08
1.06257e-06
-1.18749e-07
-1.86139e-07
-1.73702e-07
-4.44493e-07
-1.75174e-07
1.4861e-07
-1.03737e-07
3.26534e-07
1.35885e-08
-2.8471e-06
1.78089e-07
-1.79197e-06
6.603e-08
-1.41428e-06
9.79521e-08
1.52574e-07
3.48598e-09
-6.87437e-08
1.10405e-09
-1.03873e-08
5.73556e-10
6.94127e-10
1.53103e-09
-2.77509e-09
4.84129e-10
6.35722e-09
-1.03385e-09
-4.92807e-09
-3.87963e-10
1.47201e-08
2.93359e-10
2.30201e-08
1.59427e-08
1.06046e-08
2.04166e-08
-7.50299e-08
1.9063e-09
3.0367e-08
4.25874e-10
7.91016e-09
1.25136e-10
1.05065e-09
2.06763e-09
-8.40583e-09
1.32141e-09
-1.3099e-08
1.6381e-09
-8.47773e-09
8.91008e-10
-2.66348e-09
1.23853e-10
-1.04718e-09
1.35786e-10
-1.12968e-09
7.40033e-11
-1.93612e-10
-7.19196e-11
3.1781e-11
-2.87486e-11
4.76815e-10
8.2442e-12
1.51457e-10
2.7133e-11
5.29519e-11
5.48386e-11
3.96489e-10
-1.55553e-13
7.31323e-10
6.02171e-14
1.5733e-12
4.40233e-13
-2.58682e-13
9.23425e-13
-1.13051e-12
7.69934e-13
1.00606e-13
6.14491e-13
1.85454e-12
7.76742e-13
1.26131e-12
1.02479e-12
5.35141e-13
5.08841e-09
8.05237e-10
5.69975e-09
1.58471e-09
3.48571e-09
-9.86045e-09
-1.41607e-09
-5.22373e-09
-6.9019e-11
6.08332e-10
-2.16412e-12
-1.45719e-10
-3.253e-12
7.08403e-14
-6.56427e-08
2.01993e-06
-8.48858e-08
1.07373e-06
-1.13156e-07
-1.58762e-07
-1.73664e-07
-3.83599e-07
-1.72922e-07
1.5242e-07
-9.90423e-08
2.44678e-07
8.29386e-08
-3.02883e-06
3.08239e-07
-2.01691e-06
5.22597e-08
-1.48712e-06
2.30415e-08
3.46259e-07
3.3284e-09
-4.87157e-08
1.20115e-09
-8.25345e-09
5.59996e-10
1.22851e-09
1.78113e-09
4.31883e-10
5.63651e-11
1.3893e-08
-3.3069e-09
-1.15005e-11
5.1614e-10
3.53779e-08
5.53087e-10
2.02157e-08
4.35056e-09
5.30616e-08
1.69862e-08
-8.74276e-08
3.4903e-09
9.28266e-08
3.4882e-10
1.14169e-08
4.1568e-10
1.42209e-08
1.51433e-09
-6.89248e-09
6.97015e-10
-1.00983e-08
1.07904e-09
-7.53703e-09
1.70926e-10
-1.64371e-09
1.54897e-10
-8.88862e-10
1.02783e-10
-1.03216e-09
2.07939e-11
-1.06056e-10
1.9781e-11
2.55555e-10
-3.23519e-12
2.17071e-10
1.64792e-11
6.88969e-11
3.10198e-11
4.00389e-11
6.95429e-11
3.67114e-10
1.53849e-11
7.94784e-10
4.71203e-12
1.23251e-10
4.17338e-12
1.06878e-12
6.19765e-12
-4.46554e-12
1.33302e-12
8.2433e-13
5.97897e-13
2.01155e-12
6.44803e-13
1.30207e-12
5.91708e-13
5.10731e-13
7.30165e-10
7.5387e-11
1.08033e-08
3.79971e-10
4.63273e-09
-3.42828e-09
1.84981e-09
-2.65807e-09
-9.90792e-12
1.27763e-10
-2.16065e-12
-1.74602e-10
-7.3407e-12
5.56368e-13
-5.56585e-08
2.06314e-06
-7.34888e-08
1.08466e-06
-1.05318e-07
-1.25698e-07
-1.72922e-07
-3.12836e-07
-1.88051e-07
1.68683e-07
-9.80187e-08
1.51707e-07
8.92898e-08
-3.15649e-06
1.94624e-07
-2.11084e-06
1.51916e-07
-3.05312e-06
4.56794e-09
1.34419e-06
2.10461e-09
-1.62072e-08
1.06182e-09
-8.12029e-09
5.49629e-10
1.58368e-09
1.77785e-09
2.76686e-09
-1.67695e-10
2.03836e-08
-4.82096e-10
4.20228e-10
4.94572e-09
1.83884e-08
1.17639e-08
2.63546e-07
4.39731e-09
1.27206e-07
1.11727e-08
-9.29554e-08
2.24015e-08
1.64279e-07
5.93556e-10
3.46111e-08
3.86348e-09
6.03979e-08
9.01696e-10
-2.00723e-09
6.49297e-10
-7.9563e-09
6.86418e-10
-4.61836e-09
1.94719e-10
-1.0315e-09
2.82441e-10
-2.15047e-09
6.49089e-11
-8.06251e-10
2.09273e-11
-6.26278e-11
6.35462e-11
3.60774e-10
1.5693e-11
-1.79927e-11
1.86946e-11
5.50968e-11
2.65971e-11
3.32769e-11
9.80149e-11
3.06739e-10
7.31809e-11
8.1519e-10
6.75186e-11
1.61172e-10
1.03008e-10
-9.36579e-11
8.22149e-11
-2.96775e-10
5.16843e-12
6.34254e-12
9.26246e-13
5.19137e-12
6.38041e-13
1.74097e-12
5.74081e-13
6.58462e-13
6.3507e-11
1.24448e-11
7.48312e-09
-1.27667e-09
4.59427e-09
1.35695e-10
1.64079e-09
-3.30017e-09
5.09209e-11
-4.19438e-10
9.78563e-12
-1.61379e-10
-3.96988e-12
2.65711e-12
-4.68318e-08
2.11634e-06
-6.51135e-08
1.10266e-06
-9.3813e-08
-9.48093e-08
-1.65302e-07
-2.4041e-07
-1.92106e-07
1.97551e-07
-1.04434e-07
7.03677e-08
5.04861e-08
-3.23538e-06
1.24032e-07
-2.17515e-06
7.54548e-08
-2.98736e-06
1.39275e-08
2.85554e-06
2.01681e-09
-9.64411e-09
8.24909e-10
-9.59669e-09
1.96121e-09
1.66642e-08
4.25598e-09
-1.10061e-08
1.77768e-10
2.86263e-08
-2.50533e-10
-2.99675e-09
2.24709e-09
1.22862e-08
2.4222e-08
2.52797e-07
1.6018e-08
1.35246e-07
1.99689e-08
-9.32535e-08
1.961e-08
1.66995e-07
7.83108e-09
5.11846e-07
9.14844e-10
1.6479e-08
8.2694e-10
-1.01899e-09
2.27749e-10
-5.31812e-09
3.11545e-10
-9.87756e-10
2.19271e-10
-7.52887e-10
2.66696e-10
-2.39981e-09
3.24052e-11
-3.85565e-10
2.15432e-11
-5.16412e-11
1.52805e-10
4.27302e-10
2.06375e-11
1.03813e-10
1.58335e-11
6.09306e-11
1.8524e-11
3.10921e-11
7.23937e-11
8.69481e-11
1.72022e-10
4.77236e-10
2.4766e-10
2.38468e-11
1.22291e-09
-6.57085e-10
9.20012e-10
-1.10154e-09
3.12894e-11
2.29091e-10
3.03375e-12
3.05504e-11
7.28086e-13
4.20534e-12
2.55867e-13
1.25922e-12
9.58787e-12
3.21898e-12
2.49647e-09
-1.10014e-09
4.56318e-09
1.28869e-10
1.59464e-09
-5.08444e-09
9.65873e-11
-8.7804e-10
1.85659e-11
-1.12448e-10
3.87467e-12
5.14465e-12
-4.11125e-08
2.16584e-06
-5.72508e-08
1.11855e-06
-8.24802e-08
-6.74593e-08
-1.54409e-07
-1.68474e-07
-1.79927e-07
2.2734e-07
-1.00474e-07
-4.17932e-09
3.42069e-08
-3.34491e-06
8.98109e-08
-1.68854e-06
-1.26961e-08
-2.9928e-06
4.58221e-08
3.77552e-06
3.39847e-09
2.57174e-08
6.66322e-10
-8.77977e-09
7.50011e-09
3.24403e-08
9.30767e-09
-5.89946e-08
7.43912e-10
3.60853e-08
4.01979e-09
-5.46312e-09
1.62675e-09
1.16606e-08
1.68948e-08
2.42983e-07
1.94797e-08
1.36202e-07
1.69574e-08
-8.80173e-08
1.75361e-08
1.68349e-07
1.87248e-08
1.38568e-07
1.46011e-09
1.52321e-08
1.39226e-09
-1.77284e-09
6.7423e-10
-4.48069e-09
4.47054e-10
-8.70929e-10
2.82554e-10
-4.15142e-10
2.0244e-10
-2.4972e-09
1.99245e-11
-1.57695e-10
1.9914e-11
-5.03627e-11
6.4175e-11
5.36566e-10
1.76111e-11
2.06837e-10
1.37609e-11
6.50234e-11
1.29104e-11
3.16326e-11
1.7991e-11
8.19101e-11
1.35716e-10
1.78975e-10
1.11033e-09
-2.98728e-10
1.58352e-09
-1.05279e-09
1.25204e-09
-6.89547e-10
7.98674e-11
7.0623e-10
4.6787e-12
6.30589e-11
8.27813e-13
8.16153e-12
2.94678e-13
1.86852e-12
1.87512e-12
1.58567e-12
1.50121e-09
-1.21995e-09
2.53742e-09
3.30354e-11
1.44071e-09
-4.28608e-09
1.05575e-10
-7.70586e-10
1.84655e-11
-4.59998e-11
1.13657e-11
4.42219e-12
-3.69434e-08
2.20312e-06
-5.23315e-08
1.13371e-06
-6.71103e-08
-4.99569e-08
-1.38238e-07
-9.74737e-08
-1.84717e-07
2.71703e-07
-1.1803e-07
-6.94551e-08
7.33029e-09
-3.46736e-06
3.71349e-08
-6.29592e-07
-5.07935e-08
-3.04889e-06
-4.61763e-08
3.63507e-06
2.56176e-09
-1.95296e-07
5.30302e-10
-7.79982e-09
1.0279e-08
2.20412e-08
8.20594e-09
-5.41077e-08
1.62249e-09
4.16767e-08
3.54066e-09
3.53847e-09
5.61836e-10
1.16681e-08
1.14407e-08
2.36768e-07
1.27673e-08
2.90713e-08
1.10738e-08
-8.45146e-08
1.33234e-08
1.67928e-07
8.52108e-09
6.26971e-08
2.49976e-09
2.07046e-08
1.54648e-09
4.11639e-10
1.33748e-09
-7.66999e-09
6.73612e-10
4.6485e-10
6.6863e-10
-1.73825e-09
5.42477e-11
-1.11274e-09
1.30238e-11
-1.1854e-10
8.71209e-12
-4.90702e-11
8.68243e-11
6.11481e-10
6.47879e-11
2.36331e-10
1.6028e-11
1.47753e-10
1.17268e-11
3.61154e-11
1.63371e-11
7.91932e-11
1.01094e-10
9.7161e-11
1.61752e-09
-1.00949e-09
1.49484e-09
-8.49337e-10
1.05563e-09
-1.77809e-10
7.20642e-11
9.45654e-10
4.49784e-12
7.84508e-11
9.85863e-13
1.13792e-11
3.85188e-13
2.42363e-12
6.35606e-13
1.2462e-12
1.21685e-09
-6.3812e-10
1.48608e-09
-1.29262e-10
4.97094e-10
-2.35203e-09
5.79947e-11
-4.96536e-10
8.36051e-12
-8.33853e-12
1.30543e-11
3.35313e-12
-3.45685e-08
2.2379e-06
-4.78989e-08
1.14683e-06
-6.34711e-08
-3.33213e-08
-1.12745e-07
-4.84284e-08
-1.61563e-07
3.1202e-07
-9.39738e-08
-1.28984e-07
-2.48111e-09
-3.5463e-06
8.42324e-09
-3.64848e-07
-4.44228e-08
-3.13645e-06
-8.54326e-09
3.5373e-06
5.08002e-09
-4.86751e-07
4.46936e-11
-2.7992e-09
7.75057e-09
2.74017e-09
7.3501e-09
-4.91824e-08
2.97092e-09
7.36838e-08
5.17179e-09
1.13121e-08
-1.20424e-09
1.54032e-08
7.97637e-09
2.32078e-07
7.81574e-09
4.26868e-09
3.72074e-09
-3.5434e-08
1.74215e-08
1.55943e-07
4.95212e-09
7.71234e-08
2.55029e-09
2.11149e-08
4.52357e-09
-3.46393e-10
6.21443e-09
-3.3111e-08
1.41294e-09
-1.12567e-09
9.8519e-10
-3.46034e-09
2.98175e-11
-3.55149e-10
9.74569e-12
-1.00344e-10
7.98888e-12
-4.89165e-11
4.41614e-11
-2.3312e-11
7.99847e-11
1.9761e-10
3.20196e-11
3.25938e-10
1.51341e-11
5.54438e-11
1.57818e-11
8.28614e-11
1.73017e-10
3.03478e-10
4.13348e-10
-1.25622e-10
1.13502e-09
-8.48985e-10
9.23753e-10
1.03322e-10
8.21485e-11
1.22304e-09
4.96819e-12
1.05246e-10
1.10447e-12
1.48472e-11
4.67156e-13
2.95585e-12
4.77255e-13
1.25523e-12
1.05776e-10
-2.18327e-10
3.81517e-10
-6.72501e-11
1.44311e-10
-1.57783e-09
1.67756e-10
-7.86508e-10
6.89711e-12
4.36866e-12
1.53745e-12
1.62067e-11
3.91902e-18
-8.14711e-17
-2.13061e-14
4.20022e-15
-2.05053e-14
-4.82272e-13
1.45705e-13
-3.55486e-13
5.03254e-13
-2.12515e-13
6.30665e-13
-3.71346e-14
5.72665e-13
3.82683e-15
2.78233e-13
2.36179e-13
3.46189e-15
2.35895e-13
9.1351e-15
-5.67378e-15
3.6811e-10
-3.68101e-10
-4.02627e-08
6.42429e-08
-8.78418e-08
4.40789e-08
-1.92698e-08
-7.11856e-08
8.09656e-08
-1.07443e-07
1.19948e-07
-3.90232e-08
9.87367e-09
9.66714e-08
-3.80845e-10
-9.25181e-10
6.07191e-12
-3.86869e-10
8.9479e-12
-2.87692e-12
6.05162e-12
2.6927e-12
3.87055e-12
2.3646e-11
-1.45421e-10
3.0911e-10
-1.70808e-11
5.6795e-11
-2.44269e-13
-1.47208e-12
-1.03996e-11
1.01553e-11
-5.4554e-10
3.80065e-10
-1.11826e-09
1.35666e-10
-4.62222e-10
-9.70901e-12
-1.68246e-10
2.86372e-12
-3.97251e-09
2.79471e-09
6.54965e-10
-1.20539e-08
8.50033e-09
-8.00052e-09
2.307e-09
4.46315e-09
9.66184e-09
-1.6274e-08
8.04769e-11
1.5255e-08
-1.60242e-09
1.68289e-09
-1.77755e-08
-2.93552e-11
-1.11178e-07
8.87795e-09
-1.52347e-07
-2.72049e-09
1.31243e-07
-2.04146e-07
1.95354e-07
-1.87121e-08
5.74519e-08
1.06201e-07
-1.76776e-07
9.30564e-07
-1.09931e-07
-9.47606e-08
7.7762e-08
-2.0064e-07
2.16387e-07
-1.35782e-07
2.68499e-07
-5.12823e-08
1.6857e-07
9.99636e-08
1.68572e-07
8.59924e-15
-1.45958e-14
-4.18907e-13
-5.35141e-13
2.9972e-13
-1.13296e-12
1.01456e-12
-9.98341e-13
1.64107e-12
-7.61688e-13
2.08535e-12
-2.44358e-13
2.24241e-12
-5.07282e-15
2.06762e-12
5.65958e-13
1.40237e-12
5.57681e-13
1.39701e-12
-7.07081e-16
-2.52539e-12
-5.3113e-10
5.48615e-08
8.36778e-08
-3.67334e-08
1.47998e-07
-1.46525e-07
3.79579e-08
-1.42753e-07
-1.1694e-07
-2.30297e-08
-1.76678e-07
4.19176e-08
-2.38984e-08
-1.45034e-09
-1.24725e-09
-1.6005e-11
-2.40576e-09
7.90287e-11
-1.08277e-10
9.61038e-12
7.08789e-11
1.15251e-11
9.91277e-12
-2.56036e-11
3.2819e-09
-1.33299e-10
1.21613e-10
-1.83298e-10
6.37205e-11
-1.46688e-09
8.41997e-10
-2.52533e-09
1.52702e-09
-1.66829e-09
-3.72412e-10
7.65093e-12
-6.83281e-10
-5.90684e-10
5.53484e-11
-8.78755e-09
6.53795e-09
3.23134e-09
-1.42595e-08
1.52443e-08
-9.58161e-09
1.06706e-08
1.26257e-08
3.02976e-08
-2.91478e-08
1.74766e-08
2.7071e-08
-2.29729e-09
1.98514e-08
-6.91319e-09
1.55051e-09
-4.21545e-08
1.0139e-10
-8.10985e-08
-3.57528e-10
5.12566e-08
-2.68094e-07
1.97237e-07
-1.01989e-07
2.80353e-07
1.22948e-07
-5.99673e-08
1.80729e-06
-3.82325e-08
-1.16961e-07
1.12554e-07
-3.51923e-07
2.15929e-07
-2.39683e-07
2.78278e-07
-1.13649e-07
1.98932e-07
1.79512e-07
3.67506e-07
-1.34605e-13
-5.66913e-13
-2.34878e-14
-1.38363e-12
3.69426e-13
-9.43711e-13
3.53433e-13
-5.64405e-14
2.40413e-13
-2.02106e-14
8.37837e-14
-8.06524e-14
8.19844e-14
-2.52669e-14
4.3437e-13
-4.12696e-14
4.8813e-13
-2.21499e-14
5.0193e-13
4.03739e-15
1.2257e-08
-2.98792e-09
-4.59752e-09
1.5148e-07
-3.11767e-08
1.76847e-07
-1.20298e-07
1.26471e-07
-1.65883e-07
-7.13545e-08
-1.02115e-07
-2.40444e-07
3.69688e-08
-1.89346e-07
-4.90073e-09
-1.641e-08
-3.49653e-10
-7.92631e-09
2.27889e-09
-1.61584e-08
8.14586e-11
9.93744e-10
2.71742e-12
7.92693e-11
-2.46628e-11
1.50405e-08
-7.19105e-10
5.16929e-10
-1.63082e-09
7.23093e-10
-2.34371e-09
1.67888e-09
-2.11849e-09
1.49754e-09
-4.78917e-10
-7.59664e-10
4.24354e-11
-1.19998e-09
-3.06286e-10
-4.62016e-10
-5.94477e-09
1.25864e-08
5.91e-09
-4.59529e-09
6.45105e-09
-3.42544e-09
1.60209e-08
4.22687e-09
2.26956e-08
-3.02075e-08
2.07664e-08
3.56083e-08
-2.92931e-10
3.94873e-08
-4.95846e-09
2.18665e-09
9.95777e-08
-1.88507e-07
-4.07979e-08
2.35616e-07
3.72101e-08
-1.42289e-07
6.82164e-08
-1.43645e-07
1.6187e-07
2.63451e-07
7.29887e-08
2.43014e-06
-4.06705e-09
-4.02683e-08
1.21416e-07
-4.78033e-07
2.13962e-07
-3.3271e-07
2.6681e-07
-1.66563e-07
1.9427e-07
2.52125e-07
5.61778e-07
-1.34877e-15
-6.97096e-13
5.76775e-14
-1.22458e-12
2.22889e-14
-5.59459e-14
1.13524e-14
-4.77162e-14
1.69527e-14
-2.81674e-14
9.07187e-14
-6.93877e-14
1.14761e-13
-7.12397e-14
1.43683e-14
1.35179e-13
2.16753e-14
2.62845e-15
5.2347e-14
6.83355e-15
1.31712e-08
-1.84059e-09
4.83022e-08
1.4595e-07
3.30744e-08
1.92186e-07
-1.86321e-08
1.78358e-07
-7.56964e-08
-1.42905e-08
-1.4098e-07
-1.7516e-07
-5.71224e-08
-2.55362e-07
-5.42642e-09
-9.34223e-08
-1.51583e-09
-1.45122e-08
-1.66313e-11
-1.49634e-08
2.14719e-10
1.51653e-08
-4.46318e-09
4.3611e-08
-1.07148e-09
2.99333e-08
-1.41087e-09
6.41773e-10
-2.16446e-09
7.3013e-10
-2.36127e-09
1.98961e-09
-8.65753e-10
2.6175e-10
-3.3445e-10
-1.27853e-09
9.06853e-11
-1.61504e-09
4.82797e-10
3.18964e-11
-1.11668e-09
2.58151e-08
1.15681e-09
-6.88306e-09
1.46252e-09
-3.75302e-09
3.72127e-09
7.68967e-10
1.20708e-08
4.79192e-09
1.35447e-08