/*--------------------------------*- C++ -*----------------------------------*\
| =========                 |                                                 |
| \\      /  F ield         | OpenFOAM: The Open Source CFD Toolbox           |
|  \\    /   O peration     | Version:  2.4.0                                 |
|   \\  /    A nd           | Web:      www.OpenFOAM.org                      |
|    \\/     M anipulation  |                                                 |
\*---------------------------------------------------------------------------*/
FoamFile
{
    version     2.0;
    format      ascii;
    class       volScalarField;
    location    "0.02";
    object      alpha.water;
}
// * * * * * * * * * * * * * * * * * * * * * * * * * * * * * * * * * * * * * //

dimensions      [0 0 0 0 0 0 0];

internalField   nonuniform List<scalar> 
3600
(
1
1.00001
1.00002
1.00002
1.00002
1.00001
1.00001
1.00001
1.00001
1.00001
1
1
1
1
1
1
1
1
1
1
1
1
1
1
1
1
1
1
1
1
1.00004
1.00004
1.00004
1.00003
1.00003
1.00002
1.00002
1.00001
1.00001
1.00001
1.00001
1.00001
1
1
1
1
1
1
1
1
1
1
1
1
1
1
1
1
1
1
1.00003
1.00003
1.00003
1.00003
1.00002
1.00002
1.00001
1.00001
1.00001
1.00001
1.00001
1
1
1
1
1
1
1
1
1
1
1
1
1
1
1
1
1
1
1
1.00003
1.00003
1.00002
1.00002
1.00002
1.00001
1.00001
1.00001
1.00001
1.00001
1
1
1
1
1
1
1
1
1
1
1
1
1
1
1
1
1
1
1
1
1.00003
1.00002
1.00002
1.00001
1.00001
1.00001
1.00001
1.00001
1.00001
1
1
1
1
1
1
1
1
1
1
1
1
1
1
1
1
1
1
1
1
1
1.00002
1.00001
1.00001
1.00001
1.00001
1.00001
1
1
1
1
1
1
1
1
1
1
1
1
1
1
1
1
1
1
1
1
1
1
1
1
1.00001
1.00001
1
1
1
1
1
1
1
1
1
1
1
1
1
1
1
1
1
1
1
1
1
1
1
1
1
1
1
1
1
0.999998
0.999997
0.999997
0.999997
0.999998
0.999999
1
1
1
1
1
1
1
1
1
1
1
1
1
1
1
1
1
1
1
1
1
1
1
0.999994
0.999993
0.999992
0.999993
0.999994
0.999996
0.999998
0.999999
0.999999
1
1
1
1
1
1
1
1
1
1
1
1
1
1
1
1
1
1
1
1
1
0.999989
0.999988
0.999989
0.99999
0.999992
0.999994
0.999996
0.999998
0.999998
0.999999
1
1
1
1
1
1
1
1
1
1
1
1
1
1
1
1
1
1
1
1
0.999985
0.999985
0.999986
0.999988
0.999991
0.999994
0.999996
0.999997
0.999998
0.999998
0.999999
1
1
1
1
1
1
1
1
1
1
1
1
1
1
1
1
1
1
1
0.999984
0.999985
0.999986
0.999988
0.999992
0.999993
0.999995
0.999996
0.999997
0.999998
0.999999
0.999999
1
1
1
1
1
1
1
1
1
1
1
1
1
1
1
1
1
1
0.999983
0.999984
0.999987
0.999991
0.999991
0.999992
0.999994
0.999995
0.999996
0.999997
0.999998
0.999999
1
1
1
1
1
1
1
1
1
1
1
1
1
1
1
1
1
1
0.999987
0.999986
0.99999
0.99999
0.999989
0.99999
0.999992
0.999993
0.999995
0.999997
0.999998
0.999999
0.999999
1
1
1
1
1
1
1
1
1
1
1
1
1
1
1
1
1
0.999988
0.999988
0.999987
0.999986
0.999986
0.999988
0.999989
0.999991
0.999994
0.999996
0.999997
0.999998
0.999999
1
1
1
1
1
1
1
1
1
1
1
1
1
1
1
1
1
0.999987
0.999985
0.999977
0.999983
0.999982
0.999984
0.999986
0.999988
0.999991
0.999994
0.999996
0.999998
0.999999
1
1
1
1
1
1
1
1
1
1
1
1
1
1
1
1
1
0.999984
0.999976
0.999964
0.999966
0.999983
0.999984
0.999979
0.999983
0.999988
0.999992
0.999995
0.999998
0.999999
1
1
1
1
1
1
1
1
1
1
1
1
1
1
1
1
1
0.999985
0.999985
0.999978
0.999953
0.999943
0.999941
0.999961
0.999975
0.999983
0.999989
0.999993
0.999997
0.999999
1
1
1
1
1
1
1
1
1
1
1
1
1
1
1
1
1
0.999984
0.999985
0.999985
0.999968
0.999922
0.999922
0.999922
0.999957
0.999978
0.999987
0.999992
0.999996
0.999998
0.999999
1
1
1
1
1
1
1
1
1
1
1
1
1
1
1
1
0.999949
0.998015
0.99637
0.999953
0.999935
0.999922
0.999922
0.999948
0.999972
0.999983
0.99999
0.999995
0.999998
0.999999
1
1
1
1
1
1
1
1
1
1
1
1
1
1
1
1
0.999613
0.999179
0.999864
0.999987
0.999985
0.999962
0.999978
0.999979
0.999984
0.999981
0.999986
0.999994
0.999997
0.999999
1
1
1
1
1
1
1
1
1
1
1
1
1
1
1
1
0.99913
0.983193
0.992197
1
1
1
0.999999
0.999999
1
0.999991
0.999987
0.999992
0.999997
0.999999
1
1
1
1
1
1
1
1
1
1
1
1
1
1
1
1
0.990204
0.982668
0.982669
0.99005
0.999991
1
1
1
1
0.999999
0.999993
0.999992
0.999996
0.999999
0.999999
1
1
1
1
1
1
1
1
1
1
1
1
1
1
1
0.985967
0.982668
0.987317
0.993431
0.999994
1
1
1
1
1
0.999998
0.999994
0.999996
0.999999
0.999999
1
1
1
1
1
1
1
1
1
1
1
1
1
1
1
0.984366
0.986404
1
0.999817
1
1
1
1
1
1
0.999999
0.999997
0.999996
0.999999
0.999999
1
1
1
1
1
1
1
1
1
1
1
1
1
1
1
0.984359
0.994316
1
1
1
1
1
1
1
1
0.999999
0.999998
0.999997
0.999999
1
1
1
1
1
1
1
1
1
1
1
1
1
1
1
1
0.984388
0.994464
1
0.997996
0.975351
0.762787
0.579494
0.776119
0.983759
1
0.999999
0.999999
0.999999
0.999999
1
1
1
1
1
1
1
1
1
1
1
1
1
1
1
1
0.987111
0.98949
0.959546
0.945181
0.577301
0.146147
0.0136917
0.0848527
0.452944
0.981673
0.999999
1
1
1
1
1
1
1
1
1
1
1
1
1
1
1
1
1
1
1
0.990621
0.990589
0.974069
0.964587
0.220396
6.88552e-05
1.92581e-06
-1.23316e-07
-9.5975e-06
0.317734
0.934397
0.993674
1
1
1
1
1
1
1
1
1
1
1
1
1
1
1
1
1
1
0.990644
0.9896
0.989531
0.780306
0.0145366
-1.13337e-06
-7.85706e-10
7.86812e-09
8.62371e-09
8.60102e-09
0.245804
0.542253
0.952347
0.999497
1
1
1
1
1
1
1
1
1
1
1
1
1
1
1
1
1
0.999999
1
1
1
1
1
1
1
1
1
1
1
1
1
1
1
1
1
1
1
1
1
1
1
1
1
1
1
1
1
0.999999
1
1
1
1
1
1
1
1
1
1
1
1
1
1
1
1
1
1
1
1
1
1
1
1
1
1
1
1
1
0.999999
1
1
1
1
1
1
1
1
1
1
1
1
1
1
1
1
1
1
1
1
1
1
1
1
1
1
1
1
1
0.999999
1
1
1
1
1
1
1
1
1
1
1
1
1
1
1
1
1
1
1
1
1
1
1
1
1
1
1
1
1
0.999999
1
1
1
1
1
1
1
1
1
1
1
1
1
1
1
1
1
1
1
1
1
1
1
1
1
1
1
1
1
0.999999
1
1
1
1
1
1
1
1
1
1
1
1
1
1
1
1
1
1
1
1
1
1
1
1
1
1
1
1
1
0.999999
1
1
1
1
1
1
1
1
1
1
1
1
1
1
1
1
1
1
1
1
1
1
1
1
1
1
1
1
1
0.999999
1
1
1
1
1
1
1
1
1
1
1
1
1
1
1
1
1
1
1
1
1
1
1
1
1
1
1
1
1
0.999999
1
1
1
1
1
1
1
1
1
1
1
1
1
1
1
1
1
1
1
1
1
1
1
1
1
1
1
1
1
0.999999
1
1
1
1
1
1
1
1
1
1
1
1
1
1
1
1
1
1
1
1
1
1
1
1
1
1
1
1
1
0.999999
1
1
1
1
1
1
1
1
1
1
1
1
1
1
1
1
1
1
1
1
1
1
1
1
1
1
1
1
1
1
1
1
1
1
1
1
1
1
1
1
1
1
1
1
1
1
1
1
1
1
1
1
1
1
1
1
1
1
1
1
1
1
1
1
1
1
1
1
1
1
1
1
1
1
1
1
1
1
1
1
1
1
1
1
1
1
1
1
1
1
1
1
1
1
1
1
1
1
1
1
1
1
1
1
1
1
1
1
1
1
1
1
1
1
1
1
1
1
1
1
1
1
1
1
1
1
1
1
1
1
1
1
1
1
1
1
1
1
1
1
1
1
1
1
1
1
1
1
1
1
1
1
1
1
1
1
1
1
1
1
1
1
1
1
1
1
1
1
1
1
1
1
1
1
1
1
1
1
1
1
1
1
1
1
1
1
1
1
1
1
1
1
1
1
1
1
1
1
1
1
1
1
1
1
1
1
1
1
1
1
1
1
1
1
1
1
1
1
1
1
1
1
1
1
1
1
1
1
1
1
1
1
1
1
1
1
1
1
1
1
1
1
1
1
1
1
1
1
1
1
1
1
1
1
1
1
1
1
1
1
1
1
1
1
1
1
1
1
1
1
1
1
1
1
1
1
1
1
1
1
1
1
1
1
1
1
1
1
1
1
1
1
1
1
1
1
1
1
1
1
1
1
1
1
1
1
1
1
1
1
1
1
1
1
1
1
1
1
1
1
1
1
1
1
1
1
1
1
1
1
1
1
1
1
1
1
1
1
1
1
1
1
1
1
1
1
1
1
1
1
1
1
1
1
1
1
1
1
1
1
1
1
1
1
1
1
1
1
1
1
1
1
1
1
1
1
1
1
1
1
1
1
1
1
1
1
1
1
1
1
1
1
1
1
1
1
1
1
1
1
1
1
1
1
1
1
1
1
1
1
1
1
1
1
1
1
1
1
1
1
1
1
1
1
1
1
1
1
1
1
1
1
1
1
1
1
1
1
1
1
1
1
1
1
1
1
1
1
1
1
1
1
1
1
1
1
1
1
1
1
1
1
1
1
1
1
1
1
1
1
1
1
1
1
1
1
1
1
1
1
1
1
1
1
1
1
1
1
1
1
1
1
1
1
1
1
1
1
1
1
1
1
1
1
1
1
1
1
1
1
1
1
1
1
1
1
1
1
1
1
1
1
1
1
1
1
1
1
1
1
1
1
1
1
1
1
1
1
1
1
1
1
1
1
1
1
1
1
1
1
1
1
1
1
1
1
1
1
1
1
1
1
1
1
1
1
1
1
1
1
1
1
1
1
1
1
1
1
1
1
1
1
1
1
1
1
1
1
1
1
1
1
1
1
0.999998
1
0.999994
1
0.991031
0.757471
0.263262
0.0582212
-4.72808e-10
1.96669e-07
7.87244e-09
8.2922e-09
1.95683e-08
3.30595e-06
1.04994e-06
0.000197948
0.325752
0.568438
0.358463
0.115342
0.0461622
0.028249
0.0211709
0.0150838
0.0105719
0.00715061
0.00474329
0.00303662
0.00187182
0.00111148
0.000622632
0.000339694
0.000165133
9.11946e-05
0.530272
0.31705
-1.77051e-06
-4.36839e-05
6.34604e-10
1.91279e-09
7.69162e-09
2.0837e-08
2.05787e-07
6.35237e-08
9.76432e-07
3.83332e-05
6.64654e-08
0.00931518
1.45955e-07
1.65421e-08
1.17793e-09
8.47348e-10
3.12139e-10
7.0165e-10
2.39645e-10
3.13946e-10
2.9936e-10
8.05917e-11
1.96861e-11
4.85268e-12
1.65881e-12
6.23926e-13
4.09852e-13
3.44723e-13
-6.75395e-06
0.0101432
-4.88e-08
-2.83754e-07
7.92059e-10
7.44525e-09
7.57634e-09
2.73834e-07
2.09547e-08
4.58622e-10
6.39818e-09
8.42684e-10
5.76942e-08
4.05261e-10
2.32507e-10
1.77611e-09
5.37083e-10
1.35288e-09
3.08862e-10
1.15544e-09
2.37311e-10
3.82426e-10
4.66662e-10
1.27052e-10
3.01633e-11
6.0481e-12
1.1167e-12
1.59249e-13
2.24329e-14
3.26174e-15
6.37481e-05
-6.05631e-05
2.385e-09
-1.1294e-08
7.76299e-10
9.62969e-08
2.21648e-06
2.59753e-06
3.45895e-09
4.10949e-10
1.09501e-09
8.42635e-10
5.16413e-10
2.78435e-10
1.87257e-10
2.5516e-09
5.27152e-10
1.1104e-10
2.23513e-11
6.05491e-12
2.36398e-12
1.19495e-12
1.5502e-12
1.50106e-13
4.34412e-14
2.78907e-15
6.04221e-16
2.50627e-17
4.07392e-18
1.77354e-19
3.85185e-05
1.33982e-06
2.5154e-06
1.90207e-05
7.67615e-10
8.01436e-07
2.78663e-06
2.78661e-06
6.35566e-07
2.08199e-10
9.06078e-10
7.98814e-10
7.88303e-10
5.1722e-10
1.70739e-10
2.5701e-10
2.434e-11
3.36612e-12
3.41501e-13
5.35363e-14
1.2192e-14
3.76971e-15
2.46858e-15
1.10122e-16
3.2832e-17
8.34054e-19
1.9114e-19
2.67394e-21
4.77795e-22
7.44232e-24
9.99967e-06
7.36899e-06
1.03904e-05
5.43164e-05
1.11717e-07
3.19304e-07
1.38577e-06
9.3443e-07
1.71899e-10
1.71674e-10
2.78132e-10
3.87123e-10
3.50089e-10
6.33042e-11
1.72794e-11
6.15565e-12
8.3527e-13
2.22411e-14
4.16882e-15
1.54161e-16
6.16764e-17
5.96822e-18
3.9278e-18
6.74077e-20
2.05683e-20
2.06287e-22
4.72461e-23
2.46838e-25
4.57711e-26
2.86935e-28
4.77797e-08
7.13128e-06
2.03801e-05
5.43198e-05
1.48943e-08
1.33281e-08
2.48049e-09
6.87997e-10
6.03814e-10
7.75255e-11
4.45417e-12
1.25463e-11
3.02136e-11
2.42006e-12
6.97102e-13
8.88678e-14
1.15633e-14
1.80476e-16
2.59052e-17
5.58217e-19
1.79736e-19
8.82387e-21
4.0172e-21
3.56872e-23
1.00409e-23
4.51909e-26
9.90708e-27
2.10036e-29
3.9087e-30
1.05047e-32
5.67328e-08
5.60584e-06
5.34981e-05
5.43281e-05
1.64688e-08
4.88853e-08
2.48314e-09
2.90534e-09
9.60747e-10
1.36339e-10
8.69706e-12
1.69231e-13
1.81578e-13
3.07804e-14
1.90224e-14
5.39711e-16
1.65392e-16
6.63734e-19
1.81681e-19
1.4294e-21
5.89372e-22
1.04991e-23
4.59756e-24
1.6715e-26
4.59204e-27
8.99962e-30
1.87313e-30
1.6853e-33
3.10154e-34
3.68208e-37
4.19067e-08
6.14502e-06
6.39982e-05
4.76412e-05
1.66104e-08
2.25609e-07
2.14213e-09
4.48856e-09
1.15414e-09
1.24578e-10
4.86218e-12
8.85142e-14
6.96875e-16
1.32108e-16
2.281e-16
3.40881e-18
1.09891e-18
2.65209e-21
6.67304e-22
3.1581e-24
1.16251e-24
1.03601e-26
3.62956e-27
6.9982e-30
1.77699e-30
1.64917e-33
3.23e-34
1.2883e-37
2.33433e-38
1.24159e-41
3.87135e-08
4.56346e-06
6.40982e-05
2.19325e-05
1.66962e-08
1.21971e-07
8.18612e-09
4.28172e-09
9.32793e-10
1.08274e-10
6.85456e-12
1.68977e-13
9.6848e-16
2.10125e-19
1.2545e-18
1.27299e-20
6.70408e-21
7.84369e-24
2.775e-24
5.65647e-27
2.55791e-27
8.63061e-30
3.13674e-30
2.635e-33
6.50765e-34
2.80308e-37
5.19235e-38
9.43936e-42
1.68564e-42
4.04354e-46
3.18318e-08
2.79174e-06
6.40393e-05
5.87103e-06
1.65074e-08
1.62037e-08
1.60461e-08
5.2084e-09
7.95731e-10
6.5715e-11
3.10817e-12
8.23316e-14
6.59342e-16
1.57739e-18
3.40924e-21
2.72841e-23
2.07396e-23
1.70585e-26
6.15705e-27
8.17242e-30
3.48724e-30
6.12611e-33
1.95239e-33
8.95587e-37
2.0779e-37
4.44432e-41
7.7857e-42
6.65605e-46
1.17483e-46
1.27653e-50
2.52371e-08
1.1123e-06
5.1954e-05
2.51429e-06
1.68547e-08
4.67373e-08
2.63018e-08
6.18702e-09
7.02081e-10
4.46508e-11
1.84368e-12
4.38859e-14
5.24157e-16
1.8488e-18
9.78424e-22
3.30126e-26
4.92164e-26
2.66309e-29
1.45927e-29
9.47047e-33
5.05712e-33
3.72256e-36
1.26345e-36
2.75145e-40
6.21627e-41
6.59399e-45
1.09821e-45
4.5271e-50
7.92541e-51
3.91637e-55
2.27292e-08
9.02562e-08
2.57593e-06
4.05092e-07
2.36473e-08
1.41293e-07
2.34347e-08
3.08375e-09
2.25697e-10
1.30802e-11
5.57028e-13
1.3919e-14
1.72626e-16
9.79314e-19
1.74311e-21
1.53095e-25
6.21428e-29
2.93363e-32
1.86679e-32
8.74527e-36
4.64763e-36
1.9397e-39
6.0914e-40
7.65005e-44
1.6434e-44
9.18099e-49
1.45661e-49
2.9765e-54
5.18437e-55
1.17071e-59
2.37952e-08
2.59503e-08
2.91204e-08
1.19646e-07
2.95826e-07
1.85629e-07
1.25376e-09
5.03585e-10
6.83694e-11
5.29454e-12
2.30898e-13
5.42381e-15
6.83019e-17
3.94957e-19
1.03385e-21
5.12305e-25
5.18561e-30
2.19612e-35
2.32908e-35
6.37581e-39
4.25976e-39
8.64194e-43
2.8752e-43
1.92552e-47
4.0126e-48
1.20225e-52
1.82393e-53
1.89491e-58
3.29155e-59
3.41677e-64
2.46661e-08
3.91758e-07
7.43569e-07
1.60081e-07
5.37507e-07
1.08161e-07
4.15474e-10
2.55616e-10
2.81934e-11
1.79654e-12
6.82788e-14
1.50953e-15
1.87631e-17
1.22767e-19
3.92459e-22
4.80933e-25
1.58832e-28
4.81439e-36
1.55012e-38
3.63087e-42
2.50933e-42
3.28657e-46
1.0387e-46
4.38733e-51
8.71414e-52
1.48279e-56
2.15613e-57
1.16955e-62
2.02848e-63
9.74842e-69
4.03658e-08
7.68335e-07
1.34046e-06
1.34588e-06
5.38208e-07
1.26924e-09
9.6899e-10
1.78817e-10
2.01674e-11
1.29577e-12
4.79584e-14
1.0074e-15
1.19843e-17
7.50174e-20
2.4502e-22
3.27011e-25
1.67244e-28
6.96542e-34
9.0193e-42
1.59188e-45
1.35595e-45
1.06527e-49
3.44449e-50
9.05332e-55
1.72216e-55
1.72526e-60
2.41144e-61
7.00588e-67
1.21376e-67
2.72246e-73
5.50044e-08
5.04828e-07
9.30039e-07
1.43543e-06
3.27605e-07
7.7804e-10
5.43535e-10
8.96291e-11
7.81806e-12
3.85575e-13
1.13269e-14
2.00441e-16
2.12421e-18
1.29558e-20
4.36378e-23
7.18899e-26
5.26879e-29
9.70298e-33
3.59112e-41
5.27616e-49
4.69474e-49
2.94054e-53
8.91952e-54
1.69376e-58
3.03898e-59
1.89682e-64
2.55419e-65
4.07778e-71
7.05299e-72
7.45068e-78
7.61637e-08
1.19915e-07
4.01875e-07
1.43539e-06
2.03149e-07
6.63968e-10
4.52605e-10
6.4037e-11
4.94408e-12
2.29867e-13
6.5559e-15
1.13074e-16
1.16074e-18
6.808e-21
2.21615e-23
3.60981e-26
2.75208e-29
6.634e-33
4.86427e-39
9.834e-50
1.32602e-52
6.88865e-57
1.98826e-57
2.87498e-62
4.83398e-63
1.97273e-68
2.56462e-69
2.30788e-75
3.97916e-76
1.99964e-82
9.61781e-08
9.35385e-08
6.62821e-07
1.40595e-06
5.61967e-08
2.57155e-09
3.96838e-10
4.07507e-11
2.61762e-12
9.98844e-14
2.28472e-15
3.18019e-17
2.67225e-19
1.35383e-21
3.95367e-24
6.42024e-27
5.25915e-30
1.8113e-33
1.4956e-37
4.87041e-47
2.32619e-56
1.36465e-60
3.50796e-61
4.43424e-66
6.8986e-67
1.94368e-72
2.44406e-73
1.27149e-79
2.18021e-80
5.26953e-87
1.13775e-07
8.13374e-08
9.78223e-07
6.03987e-07
5.22524e-09
1.57091e-09
2.97513e-10
3.05703e-11
1.75605e-12
6.01234e-14
1.28066e-15
1.73502e-17
1.47235e-19
7.80405e-22
2.42491e-24
4.31012e-27
3.85659e-30
1.54596e-33
1.71746e-37
1.41112e-44
2.85332e-60
2.27664e-64
5.11572e-65
6.22402e-70
8.87883e-71
1.81699e-76
2.21403e-77
6.82565e-84
1.1604e-84
1.36539e-91
1.27289e-07
6.39459e-08
9.78079e-07
1.96424e-07
1.08883e-09
7.47718e-10
1.00621e-10
6.90308e-12
2.81771e-13
7.21417e-15
1.20119e-16
1.32295e-18
9.50255e-21
4.61973e-23
1.3683e-25
2.52659e-28
2.43075e-31
1.18366e-34
1.9384e-38
4.77592e-43
2.07093e-64
3.18532e-68
6.06377e-69
7.96604e-74
1.03324e-74
1.61346e-80
1.90927e-81
3.57133e-88
5.99926e-89
3.48186e-96
1.32939e-07
5.75622e-08
4.50626e-07
3.19791e-08
4.91729e-09
7.13261e-10
6.7566e-11
4.08148e-12
1.60066e-13
4.33527e-15
7.90229e-17
1.01638e-18
8.45375e-21
4.71867e-23
1.5331e-25
3.07654e-28
3.08248e-31
1.60619e-34
2.85236e-38
1.23228e-42
8.6812e-69
3.72637e-72
5.89399e-73
9.31717e-78
1.09295e-78
1.36349e-84
1.57048e-85
1.82232e-92
3.01454e-93
8.75089e-101
1.27096e-07
5.68763e-08
2.69414e-08
2.64939e-08
5.52692e-09
6.19693e-10
4.06764e-11
1.76059e-12
5.09443e-14
1.08624e-15
1.57548e-17
1.69709e-19
1.14926e-21
5.51503e-24
1.52722e-26
2.7509e-29
2.48242e-32
1.24707e-35
2.24952e-39
1.28855e-43
1.97176e-73
3.63793e-76
4.74997e-77
9.98994e-82
1.058e-82
1.09883e-88
1.23529e-89
9.07159e-97
1.47311e-97
2.17071e-105
1.10521e-07
5.39388e-08
2.18653e-07
5.49943e-08
5.42757e-09
4.08083e-10
2.48015e-11
1.30365e-12
4.98513e-14
1.44392e-15
2.64999e-17
3.4939e-19
2.70073e-21
1.45349e-23
4.26845e-26
8.2696e-29
7.66362e-32
4.08659e-35
7.74366e-39
5.39688e-43
2.7198e-78
2.9627e-80
3.22778e-81
9.86332e-86
9.4483e-87
8.46112e-93
9.31269e-94
4.40429e-101
7.00333e-102
5.317e-110
8.56633e-08
5.37602e-08
1.83361e-06
2.25868e-08
1.71263e-09
1.59225e-10
9.98752e-12
5.79961e-13
2.06231e-14
5.70709e-16
9.24147e-18
1.09345e-19
7.13469e-22
3.34865e-24
8.0477e-27
1.29168e-29
9.58963e-33
4.23233e-36
6.64144e-40
4.24375e-44
4.40963e-83
2.0178e-84
1.90702e-85
9.02188e-90
7.8624e-91
6.24075e-97
6.75044e-98
2.08496e-105
3.24229e-106
1.28653e-114
6.58099e-08
8.01616e-08
1.84778e-06
2.17354e-09
1.44901e-09
2.23182e-10
1.99542e-11
1.36086e-12
5.24567e-14
1.38369e-15
1.99389e-17
2.04289e-19
1.10595e-21
4.37044e-24
8.72308e-27
1.25459e-29
8.32272e-33
3.47885e-36
5.18149e-40
3.41873e-44
8.51958e-88
1.15754e-88
1.02269e-89
7.69873e-94
6.17236e-95
4.42166e-101
4.72188e-102
9.61647e-110
1.46279e-110
3.07315e-119
2.40868e-07
6.90637e-08
1.52314e-06
7.16951e-10
1.49197e-09
2.42844e-10
2.3472e-11
1.60322e-12
6.24912e-14
1.60035e-15
2.2765e-17
2.15457e-19
1.10733e-21
3.9369e-24
6.84891e-27
7.94216e-30
4.05404e-33
1.28954e-36
1.43808e-40
7.44541e-45
1.06912e-92
5.66475e-93
5.1848e-94
6.17666e-98
4.63223e-99
3.0171e-105
3.19659e-106
4.31391e-114
6.43274e-115
7.22742e-124
1.80088e-06
8.90359e-06
1.30018e-06
7.13181e-10
2.81694e-09
6.49446e-10
7.73874e-11
3.97918e-12
1.13897e-13
1.66312e-15
1.2454e-17
6.36754e-20
1.48653e-22
2.8129e-25
2.3415e-28
1.73866e-31
5.34193e-35
1.18236e-38
9.0673e-43
3.43139e-47
9.41577e-98
2.41535e-97
2.58193e-98
4.70138e-102
3.36959e-103
1.98875e-109
2.10184e-110
1.87821e-118
2.75863e-119
1.66573e-128
3.35065e-06
1.22257e-05
6.43402e-06
1.15644e-07
8.58383e-10
5.81437e-10
1.05956e-10
7.17017e-12
2.3084e-13
3.12694e-15
2.48839e-17
9.97284e-20
2.57151e-22
4.08724e-25
3.6197e-28
1.97573e-31
4.74009e-35
6.94212e-39
3.52753e-43
8.89121e-48
5.77879e-103
9.24593e-102
1.2987e-102
3.42807e-106
2.4064e-107
1.27054e-113
1.34696e-114
7.92073e-123
1.15393e-123
3.74263e-133
4.85809e-06
1.22238e-05
5.83632e-06
2.95865e-09
2.4814e-09
1.63745e-10
9.58456e-12
3.89103e-13
6.14815e-15
8.50874e-17
1.77792e-19
1.43398e-21
1.48397e-25
2.82087e-27
2.23675e-39
4.97928e-34
1.54124e-38
4.16287e-42
5.64391e-47
4.55234e-52
2.63802e-108
3.30086e-106
6.77094e-107
2.41658e-110
1.70404e-111
7.89469e-118
8.43085e-119
3.25824e-127
4.7064e-128
8.3523e-138
4.67924e-05
4.15956e-05
2.69929e-05
2.49996e-05
1.60643e-05
1.49847e-05
1.00408e-05
8.84257e-06
6.6249e-06
5.4443e-06
4.54281e-06
3.51031e-06
3.06565e-06
2.32693e-06
2.0156e-06
1.5774e-06
1.36035e-06
1.08837e-06
8.88065e-07
7.63758e-07
5.69308e-07
5.63085e-07
4.99866e-07
4.39401e-07
3.77209e-07
3.93161e-07
9.52331e-08
6.55018e-07
1.70742e-13
4.31802e-06
7.44906e-10
6.31543e-10
5.66843e-10
3.19502e-10
2.18852e-10
1.10404e-10
7.16128e-11
4.99019e-11
2.15561e-11
1.96979e-11
7.95303e-12
9.16261e-12
3.67882e-12
4.57977e-12
2.30324e-12
2.02195e-12
1.71592e-12
6.30078e-13
1.00377e-12
3.80453e-13
3.75199e-13
3.54396e-13
7.46851e-14
3.9489e-13
1.49471e-13
7.89615e-14
1.44353e-13
2.16131e-13
1.70736e-13
1.07249e-19
1.28357e-14
3.25071e-15
4.21401e-15
7.80864e-16
9.51187e-16
2.19238e-16
2.0019e-16
9.40257e-17
3.6991e-17
2.87008e-17
1.15702e-17
8.86787e-18
3.87703e-18
3.16503e-18
1.36348e-18
7.7642e-19
7.58851e-19
1.64124e-19
2.92688e-19
1.22684e-19
9.64247e-20
7.16523e-20
2.33932e-20
2.00141e-19
2.06904e-20
2.77413e-20
4.09568e-20
5.77439e-20
4.014e-20
1.01192e-19
3.41326e-19
5.08234e-20
4.97564e-20
9.39314e-21
7.6733e-21
1.67525e-21
1.26866e-21
4.93004e-22
1.8102e-22
1.08971e-22
4.08187e-23
2.34583e-23
9.67108e-24
5.78051e-24
2.15808e-24
1.02839e-24
6.99107e-25
1.81752e-25
1.73792e-25
9.5114e-26
8.21181e-26
1.8838e-26
5.02744e-27
6.37401e-26
2.55597e-27
5.96213e-27
7.33317e-27
9.7884e-27
9.43966e-27
1.72188e-26
7.20204e-24
8.65031e-25
5.83369e-25
1.21801e-25
6.52927e-26
1.40122e-26
8.98172e-27
2.95121e-27
9.96541e-28
4.82706e-28
1.63293e-28
7.58319e-29
2.84729e-29
1.33885e-29
4.41163e-30
1.83154e-30
9.56789e-31
2.68098e-31
1.72738e-31
9.21229e-32
7.43149e-32
9.67057e-33
2.17942e-33
1.24713e-32
6.11161e-34
1.14284e-33
1.29821e-33
1.49487e-33
1.82383e-33
1.94999e-33
1.37373e-28
1.49551e-29
6.9691e-30
1.61314e-30
5.87373e-31
1.22847e-31
6.76072e-32
1.90427e-32
5.86833e-33
2.34308e-33
7.07804e-34
2.73972e-34
9.22242e-35
3.51407e-35
1.02596e-35
3.72695e-36
1.55887e-36
4.41205e-37
2.0956e-37
9.98281e-38
7.17983e-38
5.82818e-39
1.1535e-39
2.66005e-39
1.54882e-40
1.84107e-40
1.56483e-40
2.02197e-40
2.93692e-40
1.56538e-40
2.53109e-33
2.57395e-34
8.56168e-35
2.14299e-35
5.60631e-36
1.10543e-36
5.32298e-37
1.29049e-37
3.57637e-38
1.19922e-38
3.19627e-39
1.05232e-39
3.13747e-40
9.92476e-41
2.56619e-41
8.18334e-42
2.82935e-42
7.65735e-43
2.85669e-43
1.15019e-43
7.01692e-44
4.22844e-45
6.46016e-46
3.86946e-46
4.07363e-47
3.71733e-47
3.69195e-47
3.71738e-47
4.01958e-47
9.46641e-48
4.62867e-38
4.418e-39
1.08414e-39
2.82905e-40
5.58447e-41
1.01689e-41
4.30207e-42
9.01796e-43
2.23064e-43
6.36009e-44
1.48976e-44
4.21798e-45
1.1075e-45
2.95141e-46
6.75396e-47
1.88649e-47
5.4845e-48
1.37435e-48
4.14404e-49
1.38158e-49
6.8903e-50
3.33993e-51
4.0789e-52
1.10595e-52
1.21514e-53
9.10484e-54
1.24805e-53
7.54377e-54
6.41474e-54
4.55608e-55
8.50197e-43
7.55058e-44
1.40891e-44
3.71305e-45
5.74137e-46
9.4972e-47
3.54652e-47
6.43905e-48
1.41175e-48
3.45345e-49
7.08904e-50
1.73785e-50
4.00635e-51
9.09843e-52
1.84045e-52
4.49844e-53
1.11445e-53
2.52704e-54
6.28832e-55
1.72264e-55
7.02628e-56
2.83421e-57
2.64052e-58
3.08096e-59
4.85176e-60
2.66507e-60
4.54362e-60
1.34344e-60
9.07194e-61
1.82812e-62
1.57508e-47
1.28346e-48
1.86981e-49
4.84837e-50
6.02802e-51
8.97309e-52
2.95902e-52
4.66055e-53
9.02147e-54
1.9046e-54
3.42628e-55
7.30196e-56
1.47594e-56
2.87944e-57
5.14526e-58
1.09736e-58
2.33486e-59
4.71286e-60
9.78108e-61
2.19749e-61
7.22158e-62
2.50428e-63
1.91306e-64
1.47222e-65
2.4992e-66
7.14429e-67
1.46382e-66
1.66556e-67
8.16257e-68
6.35541e-70
2.94652e-52
2.16379e-53
2.52709e-54
6.29829e-55
6.42771e-56
8.54342e-57
2.48899e-57
3.40536e-58
5.80351e-59
1.06221e-59
1.67502e-60
3.11346e-61
5.51261e-62
9.30029e-63
1.46739e-63
2.72609e-64
5.01072e-65
8.91604e-66
1.55995e-66
2.88161e-67
7.69328e-68
2.363e-69
1.47387e-70
7.2326e-72
1.10606e-72
1.40134e-73
3.5599e-73
1.6327e-74
4.9966e-75
1.97427e-77
5.55615e-57
3.61371e-58
3.46328e-59
8.13374e-60
6.92257e-61
8.16727e-62
2.10188e-62
2.50152e-63
3.74701e-64
5.96581e-65
8.25384e-66
1.3403e-66
2.07892e-67
3.04631e-68
4.24268e-69
6.85133e-70
1.09122e-70
1.69943e-71
2.52176e-72
3.83853e-73
8.28451e-74
2.29693e-75
1.2129e-76
4.34597e-78
6.24293e-79
2.15955e-80
6.36506e-80
2.08223e-81
4.2498e-82
5.61372e-85
1.05334e-61
5.98491e-63
4.79085e-64
1.04494e-64
7.49781e-66
7.8197e-67
1.7777e-67
1.84292e-68
2.42355e-69
3.36583e-70
4.08989e-71
5.80952e-72
7.89517e-73
1.00858e-73
1.23989e-74
1.73831e-75
2.40561e-76
3.26642e-77
4.13564e-78
5.21436e-79
9.17661e-80
2.34542e-81
1.04881e-82
2.66473e-84
3.22221e-85
4.10594e-87
9.82818e-87
2.67513e-88
3.51467e-89
1.48984e-92
2.0014e-66
9.84095e-68
6.66093e-69
1.33649e-69
8.13744e-71
7.4821e-72
1.50246e-72
1.35879e-73
1.56759e-74
1.90329e-75
2.03339e-76
2.52918e-77
3.0132e-78
3.36348e-79
3.65062e-80
4.43915e-81
5.34098e-82
6.30892e-83
6.84729e-84
7.19181e-85
1.03136e-85
2.46806e-87
9.26266e-89
1.73299e-90
1.85631e-91
8.77085e-94
1.46307e-93
3.74181e-95
2.75572e-96
3.74979e-100
3.80168e-71
1.60606e-72
9.27454e-74
1.70034e-74
8.82435e-76
7.13927e-77
1.26614e-77
1.00054e-78
1.01212e-79
1.07638e-80
1.01218e-81
1.10357e-82
1.1534e-83
1.12691e-84
1.08014e-85
1.13978e-86
1.19241e-87
1.22434e-88
1.14232e-89
1.00651e-90
1.17852e-91
2.66969e-93
8.34917e-95
1.19368e-96
1.09028e-97
1.9975e-100
2.22299e-100
5.18544e-102
2.09194e-103
9.07695e-108
7.21119e-76
2.60004e-77
1.29019e-78
2.14958e-79
9.54526e-81
6.78418e-82
1.06235e-82
7.34752e-84
6.51488e-85
6.07868e-86
5.0367e-87
4.81761e-88
4.42143e-89
3.78603e-90
3.20301e-91
2.93706e-92
2.66838e-93
2.38271e-94
1.91552e-95
1.42479e-96
1.36502e-97
2.94524e-99
7.6122e-101
8.85936e-103
6.44126e-104
6.53374e-107
3.99803e-107
7.10087e-109
1.55695e-110
2.14768e-115
1.36436e-80
4.1735e-82
1.78948e-83
2.69738e-84
1.02846e-85
6.4131e-87
8.86363e-88
5.37438e-89
4.17619e-90
3.42345e-91
2.50205e-92
2.10121e-93
1.69508e-94
1.27385e-95
9.50129e-97
7.58435e-98
5.98098e-99
4.64791e-100
3.22518e-101
2.03368e-102
1.60122e-103
3.2909e-105
7.00708e-107
6.91814e-109
3.8615e-110
3.00657e-113
9.84303e-114
9.64366e-116
1.13669e-117
5.08364e-123
2.57007e-85
6.63564e-87
2.46894e-88
3.35504e-89
1.1019e-90
6.02145e-92
7.34214e-93
3.90903e-94
2.66186e-95
1.91958e-96
1.23885e-97
9.14206e-99
6.48749e-100
4.28439e-101
2.81387e-102
1.95982e-103
1.33944e-104
9.07191e-106
5.43486e-107
2.92031e-108
1.89511e-109
3.70568e-111
6.46178e-113
5.65088e-115
2.36864e-116
1.56737e-119
2.91274e-120
1.30677e-122
8.19673e-125
1.25622e-130
4.81278e-90
1.04407e-91
3.38427e-93
4.13236e-94
1.17248e-95
5.60983e-97
6.03204e-98
2.8242e-99
1.68535e-100
1.07044e-101
6.10734e-103
3.96392e-104
2.4757e-105
1.43819e-106
8.30938e-108
5.06216e-109
2.99361e-110
1.76892e-111
9.14998e-113
4.20712e-114
2.25728e-115
4.19091e-117
5.9699e-119
4.73113e-121
1.50358e-122
9.2161e-126
9.43891e-127
1.77257e-129
6.02375e-132
3.48624e-138
8.94546e-95
1.62417e-96
4.6029e-98
5.03496e-99
1.23752e-100
5.18015e-102
4.91087e-103
2.02464e-104
1.05896e-105
5.93037e-107
2.99479e-108
1.71128e-109
9.41095e-111
4.81395e-112
2.44482e-113
1.30367e-114
6.66721e-116
3.44227e-117
1.5366e-118
6.06426e-120
2.69791e-121
4.73802e-123
5.52198e-125
4.0187e-127
9.76232e-129
5.61165e-132
3.31067e-133
2.42872e-136
4.52455e-139
1.17025e-145
1.64648e-99
2.49636e-101
6.19992e-103
6.06041e-104
1.2935e-105
4.7341e-107
3.95641e-108
1.43798e-109
6.59367e-111
3.25945e-112
1.45872e-113
7.34692e-115
3.55973e-116
1.60374e-117
7.15721e-119
3.33988e-120
1.47801e-121
6.66846e-123
2.56768e-124
8.72408e-126
3.2262e-127
5.34075e-129
5.10631e-131
3.44948e-133
6.51093e-135
3.45226e-138
1.19513e-139
3.65626e-143
3.38076e-146
4.80314e-153
2.99666e-104
3.78871e-106
8.25916e-108
7.2001e-109
1.3373e-110
4.27758e-112
3.15116e-113
1.01071e-114
4.06461e-116
1.77551e-117
7.05113e-119
3.13387e-120
1.33852e-121
5.31381e-123
2.08479e-124
8.48986e-126
3.25869e-127
1.28319e-128
4.26277e-130
1.24879e-131
3.85324e-133
5.98618e-135
4.71177e-137
2.96742e-139
4.36764e-141
2.15776e-144
4.40715e-146
7.05871e-150
2.51905e-153
2.43064e-160
5.38681e-109
5.6743e-111
1.08672e-112
8.43489e-114
1.36589e-115
3.818e-117
2.47877e-118
7.0221e-120
2.47816e-121
9.57648e-123
3.37939e-124
1.32705e-125
4.99896e-127
1.75022e-128
6.03533e-130
2.14003e-131
7.13649e-133
2.44637e-134
7.02191e-136
1.7723e-137
4.5963e-139
6.65757e-141
4.33265e-143
2.55068e-145
2.93102e-147
1.38392e-150
1.62637e-152
1.81458e-156
2.00486e-160
1.47706e-167
9.55083e-114
8.3759e-116
1.41008e-117
9.7302e-119
1.37607e-120
3.36161e-122
1.92282e-123
4.81478e-125
1.49221e-126
5.10717e-128
1.6038e-129
5.57204e-131
1.8523e-132
5.72573e-134
1.73315e-135
5.34339e-137
1.54933e-138
4.60764e-140
1.14568e-141
2.48669e-143
5.46155e-145
7.32298e-147
3.969e-149
2.18509e-151
1.96126e-153
8.98962e-157
5.93694e-159
5.14255e-163
1.78692e-167
9.65323e-175
1.66893e-118
1.21776e-120
1.80223e-122
1.10427e-123
1.36599e-125
2.91669e-127
1.46927e-128
3.25414e-130
8.86487e-132
2.69047e-133
7.53087e-135
2.31826e-136
6.80602e-138
1.8594e-139
4.93225e-141
1.32106e-142
3.32802e-144
8.55559e-146
1.84865e-147
3.44407e-149
6.45651e-151
7.94703e-153
3.62213e-155
1.86156e-157
1.30531e-159
5.85049e-163
2.13978e-165
1.53158e-169
1.74333e-174
5.78212e-182
2.87258e-123
1.74242e-125
2.26607e-127
1.23178e-128
1.33467e-130
2.49113e-132
1.10459e-133
2.16526e-135
5.19024e-137
1.39873e-138
3.49607e-140
9.55146e-142
2.47888e-143
5.9897e-145
1.39031e-146
3.22882e-148
7.06055e-150
1.56283e-151
2.94167e-153
4.69905e-155
7.5748e-157
8.49689e-159
3.29118e-161
1.56846e-163
8.66442e-166
3.72131e-169
7.98599e-172
4.75092e-176
1.76531e-181
2.14252e-189
4.86081e-128
2.45101e-130
2.79919e-132
1.34864e-133
1.28163e-135
2.0911e-137
8.15644e-139
1.41595e-140
2.99015e-142
7.16636e-144
1.60301e-145
3.89463e-147
8.94826e-149
1.91262e-150
3.87809e-152
7.78655e-154
1.47626e-155
2.80346e-157
4.6038e-159
6.29899e-161
8.79901e-163
8.94586e-165
2.97331e-167
1.3042e-169
5.71325e-172
2.28562e-175
3.01476e-178
1.41808e-182
1.66813e-188
3.45487e-197
8.06714e-133
3.38706e-135
3.39421e-137
1.4479e-138
1.20806e-140
1.72278e-142
5.90629e-144
9.0854e-146
1.69264e-147
3.61424e-149
7.25453e-151
1.57159e-152
3.20191e-154
6.05483e-156
1.07077e-157
1.85144e-159
3.03513e-161
4.92744e-163
7.06788e-165
8.28542e-167
1.00972e-168
9.28103e-171
2.67395e-173
1.07024e-175
3.75915e-178
1.36333e-181
1.1738e-184
4.07146e-189
1.46831e-195
1.64422e-204
1.31098e-137
4.59429e-140
4.03782e-142
1.52306e-143
1.11666e-145
1.39147e-147
4.1889e-149
5.71278e-151
9.40365e-153
1.7926e-154
3.23824e-156
6.27248e-158
1.13491e-159
1.89781e-161
2.92019e-163
4.33172e-165
6.12096e-167
8.46597e-169
1.06144e-170
1.06735e-172
1.14226e-174
9.47413e-177
2.38362e-179
8.66152e-182
2.43887e-184
7.85501e-188
4.60207e-191
1.12928e-195
1.2023e-202
6.95553e-212
2.10056e-142
6.11115e-145
4.70819e-147
1.56766e-148
1.01036e-150
1.09945e-152
2.90276e-154
3.51212e-156
5.11931e-158
8.74115e-160
1.42772e-161
2.48382e-163
4.00211e-165
5.91781e-167
7.89186e-169
9.97656e-171
1.20775e-172
1.4156e-174
1.55326e-176
1.34416e-178
1.27366e-180
9.56996e-183
2.12114e-185
6.97793e-188
1.57495e-190
4.41936e-194
1.75413e-197
2.80392e-202
9.41633e-210
2.19994e-219
)
;

boundaryField
{
    symmetryAxis
    {
        type            symmetryPlane;
    }
    rightWall
    {
        type            zeroGradient;
    }
    lowerWall
    {
        type            zeroGradient;
    }
    atmosphere
    {
        type            inletOutlet;
        inletValue      uniform 0;
        value           nonuniform List<scalar> 
90
(
4.85809e-06
1.22238e-05
5.83632e-06
2.95865e-09
2.4814e-09
1.63745e-10
9.58456e-12
3.89103e-13
6.14815e-15
8.50874e-17
1.77792e-19
1.43398e-21
1.48397e-25
2.82087e-27
0
4.97928e-34
0
4.16287e-42
0
0
0
0
0
0
0
0
0
0
0
0
0
0
0
0
0
0
0
0
0
0
0
0
0
0
0
0
0
0
0
0
0
0
0
0
0
0
0
0
0
0
4.31802e-06
1.07249e-19
0
0
0
0
0
0
0
0
0
0
0
0
0
0
0
0
0
0
0
0
0
0
0
0
0
0
0
0
)
;
    }
    frontAndBack
    {
        type            empty;
    }
    frontAndBack_pos
    {
        type            wedge;
    }
    frontAndBack_neg
    {
        type            wedge;
    }
}


// ************************************************************************* //
