/*--------------------------------*- C++ -*----------------------------------*\
| =========                 |                                                 |
| \\      /  F ield         | OpenFOAM: The Open Source CFD Toolbox           |
|  \\    /   O peration     | Version:  2.4.0                                 |
|   \\  /    A nd           | Web:      www.OpenFOAM.org                      |
|    \\/     M anipulation  |                                                 |
\*---------------------------------------------------------------------------*/
FoamFile
{
    version     2.0;
    format      ascii;
    class       volScalarField;
    location    "0.02";
    object      p_rgh;
}
// * * * * * * * * * * * * * * * * * * * * * * * * * * * * * * * * * * * * * //

dimensions      [1 -1 -2 0 0 0 0];

internalField   nonuniform List<scalar> 
3600
(
96.0194
96.0169
96.0262
96.0456
96.0764
96.1209
96.1823
96.2633
96.3698
96.4935
96.6551
96.8121
97.0173
97.1651
97.3868
97.4581
97.6014
97.6397
97.6848
97.7051
97.7158
97.717
97.7181
97.7105
97.7122
97.7019
97.7058
97.6977
97.701
97.6971
96.0011
96.0041
96.0142
96.0331
96.0638
96.1085
96.1705
96.2521
96.3605
96.4854
96.6498
96.8087
97.0165
97.1639
97.3909
97.4595
97.6029
97.6409
97.6856
97.7056
97.716
97.7171
97.7182
97.7104
97.7123
97.7019
97.7058
97.6976
97.701
97.6971
95.9672
95.9706
95.9818
96.0018
96.0337
96.08
96.1441
96.2279
96.3405
96.4683
96.6389
96.8014
97.0154
97.165
97.3965
97.4628
97.6064
97.643
97.6871
97.7064
97.7165
97.7172
97.7184
97.7104
97.7123
97.7019
97.7058
97.6976
97.701
97.6971
95.9206
95.9229
95.9344
95.9555
95.9888
96.0371
96.1045
96.1911
96.3104
96.4423
96.6226
96.7904
97.0145
97.1672
97.4047
97.4683
97.612
97.6462
97.6895
97.7076
97.7172
97.7175
97.7186
97.7104
97.7123
97.7019
97.7058
97.6976
97.7009
97.6971
95.8555
95.8581
95.8703
95.8926
95.9279
95.9786
96.0507
96.1409
96.2694
96.4069
96.6009
96.7758
97.014
97.1708
97.4157
97.4761
97.6195
97.6504
97.6927
97.7092
97.7181
97.7179
97.7188
97.7105
97.7123
97.7019
97.7057
97.6976
97.7009
97.6971
95.7721
95.775
95.7882
95.812
95.8497
95.9032
95.9817
96.0761
96.2169
96.3614
96.5733
96.7574
97.0142
97.176
97.4299
97.4864
97.6291
97.6556
97.6967
97.7111
97.7191
97.7184
97.719
97.7106
97.7123
97.7019
97.7056
97.6977
97.7009
97.6971
95.6692
95.6726
95.6868
95.7124
95.7532
95.8096
95.8964
95.9954
96.152
96.305
96.5397
96.7351
97.0155
97.1832
97.4477
97.4993
97.6408
97.662
97.7014
97.7135
97.7204
97.719
97.7192
97.7107
97.7123
97.7019
97.7056
97.6977
97.7008
97.6971
95.5454
95.5494
95.5649
95.5921
95.6371
95.6962
95.7934
95.8972
96.0736
96.2365
96.4997
96.7089
97.0185
97.1931
97.4695
97.5151
97.6544
97.6694
97.7067
97.7161
97.7218
97.7197
97.7195
97.7108
97.7122
97.702
97.7054
97.6978
97.7007
97.6972
95.3983
95.4035
95.4206
95.4493
95.4997
95.5608
95.671
95.7795
95.9803
96.1547
96.453
96.6788
97.0241
97.2062
97.4961
97.5342
97.6701
97.678
97.7127
97.7191
97.7233
97.7205
97.7197
97.711
97.7121
97.702
97.7053
97.6978
97.7006
97.6972
95.2271
95.2329
95.2518
95.2817
95.3387
95.4012
95.5268
95.6398
95.8703
96.058
96.3991
96.6446
97.0335
97.2234
97.5281
97.5569
97.6879
97.6877
97.7191
97.7223
97.725
97.7213
97.72
97.7112
97.712
97.7021
97.7051
97.6979
97.7006
97.6972
95.0292
95.0352
95.0565
95.0869
95.1515
95.2145
95.3579
95.4751
95.7411
95.9443
96.3372
96.6062
97.0482
97.2457
97.5663
97.5836
97.7076
97.6984
97.726
97.7257
97.7267
97.7222
97.7203
97.7114
97.7119
97.7022
97.705
97.6979
97.7005
97.6972
94.7992
94.8047
94.8303
94.8609
94.9352
94.9969
95.1609
95.281
95.59
95.811
96.2667
96.5635
97.0702
97.2743
97.6119
97.6147
97.7293
97.7102
97.7331
97.7294
97.7286
97.7231
97.7206
97.7116
97.7117
97.7023
97.7048
97.698
97.7004
97.6973
94.5401
94.5456
94.5715
94.6085
94.6864
94.7474
94.9311
95.0535
95.4129
95.6551
96.1864
96.5162
97.1026
97.3106
97.6659
97.6507
97.7529
97.7228
97.7406
97.7331
97.7305
97.7241
97.7209
97.7118
97.7115
97.7024
97.7046
97.6981
97.7002
97.6973
94.2311
94.2341
94.2746
94.303
94.4049
94.4503
94.6638
94.7839
95.2052
95.4726
96.095
96.4641
97.1499
97.3554
97.7297
97.692
97.7781
97.7362
97.7481
97.7369
97.7324
97.7251
97.7211
97.7121
97.7113
97.7025
97.7043
97.6982
97.7001
97.6973
93.886
93.8946
93.9254
94.0033
94.0695
94.1373
94.3458
94.4708
94.9588
95.2596
95.991
96.4057
97.1973
97.4265
97.8052
97.7389
97.8047
97.7501
97.7556
97.7408
97.7343
97.7261
97.7214
97.7123
97.7111
97.7026
97.7041
97.6983
97.7
97.6974
93.5634
93.5385
93.5921
93.5935
93.7336
93.7087
93.9879
94.0873
94.6697
95.0091
95.8729
96.3406
97.26
97.5188
97.894
97.7919
97.8324
97.7642
97.7629
97.7446
97.7362
97.7271
97.7216
97.7126
97.7109
97.7027
97.7038
97.6983
97.6998
97.6974
92.6483
92.6312
92.9079
93.2544
93.2398
93.3528
93.5244
93.6532
94.3159
94.7193
95.7388
96.268
97.3433
97.6377
97.9986
97.8508
97.8604
97.7783
97.7698
97.7484
97.738
97.7282
97.7218
97.7128
97.7106
97.7028
97.7036
97.6984
97.6997
97.6975
93.0965
93.2771
92.8546
92.7652
92.9419
92.6682
93.0326
93.0812
93.8983
94.3703
95.588
96.1855
97.4526
97.7888
98.1213
97.9154
97.8883
97.7917
97.7762
97.752
97.7397
97.7292
97.7219
97.7131
97.7103
97.7029
97.7033
97.6985
97.6995
97.6975
89.4195
89.5637
91.3527
92.6067
92.1995
92.4706
92.3367
92.4912
93.3652
93.989
95.4178
96.0911
97.5971
97.9841
98.2651
97.9853
97.9151
97.8041
97.7819
97.7554
97.7413
97.7303
97.722
97.7133
97.71
97.703
97.703
97.6986
97.6994
97.6975
89.2913
95.9046
91.8418
91.3733
92.0277
91.0067
91.5352
91.5189
92.7422
93.4812
95.2312
95.9763
97.7825
98.228
98.4318
98.0587
97.9389
97.8149
97.7867
97.7585
97.7428
97.7312
97.7221
97.7136
97.7097
97.7031
97.7027
97.6987
97.6992
97.6976
70.8536
79.4725
90.1648
92.6147
91.4572
91.6461
90.3435
90.7772
91.9444
93.0741
95.0279
95.8435
98.0275
98.5462
98.6294
98.1349
97.9584
97.8232
97.7904
97.7613
97.7442
97.7322
97.7222
97.7138
97.7093
97.7032
97.7024
97.6988
97.6991
97.6976
89.584
83.569
90.6973
89.9227
90.1719
88.5253
88.7977
89.0098
90.83
92.3031
94.8007
95.6553
98.335
98.9414
98.8468
98.2068
97.9702
97.8282
97.7928
97.7637
97.7455
97.733
97.7222
97.714
97.7089
97.7033
97.702
97.6988
97.6989
97.6977
77.6705
73.7083
100.213
88.8829
91.5777
89.0557
86.0178
87.8973
89.4219
91.7727
94.5985
95.4279
98.7401
99.463
99.1229
98.2806
97.9727
97.8294
97.7938
97.7658
97.7466
97.7338
97.7221
97.7141
97.7086
97.7034
97.7017
97.6989
97.6987
97.6977
59.0503
63.3982
92.6002
86.801
86.8841
84.6456
84.1035
85.1585
87.9003
90.822
94.3689
95.0603
99.2533
100.114
99.3793
98.328
97.9582
97.8258
97.7934
97.7676
97.7476
97.7346
97.7221
97.7143
97.7081
97.7035
97.7014
97.699
97.6986
97.6977
68.7323
76.3207
93.3025
82.464
83.0286
79.4605
74.3712
81.4137
84.7962
90.2479
94.3193
94.6696
99.8502
100.967
99.8271
98.3796
97.928
97.8165
97.7918
97.7692
97.7486
97.7352
97.722
97.7144
97.7077
97.7035
97.701
97.6991
97.6984
97.6978
53.1875
110.794
88.37
101.07
79.5735
81.0369
73.1831
80.5569
82.122
89.1254
94.2269
94.1134
100.522
102.03
100.085
98.3288
97.8616
97.7994
97.7888
97.7705
97.7494
97.7357
97.7218
97.7144
97.7073
97.7035
97.7007
97.6991
97.6982
97.6978
98.8203
104.312
105.465
97.9798
73.5836
43.1923
20.5501
48.1505
76.0757
88.5773
94.8299
93.4065
101.296
103.398
100.665
98.3256
97.7846
97.7752
97.7865
97.7719
97.7507
97.7363
97.7218
97.7145
97.7069
97.7036
97.7003
97.6992
97.698
97.6979
74.8215
116.716
116.56
107.41
38.3779
8.78762
0.226819
4.70334
33.4299
85.6205
95.8408
92.3884
102.112
105.151
101.06
98.0075
97.6009
97.7417
97.7831
97.7732
97.7507
97.7364
97.7212
97.7143
97.7062
97.7035
97.6999
97.6992
97.6978
97.6979
71.5614
166.287
138.139
128.992
16.4566
-0.099905
0.00513635
-0.0132489
-0.055265
29.7743
90.8915
90.7331
102.898
107.308
101.732
97.9107
97.4886
97.7035
97.7838
97.7753
97.7526
97.7369
97.7214
97.7145
97.706
97.7036
97.6996
97.6993
97.6977
97.6979
180.512
181.403
162.336
141.385
1.32169
-0.487309
0.00132704
0.098005
-0.140975
0.21239
22.9099
45.7714
99.2103
110.148
102.431
96.9827
97.0155
97.6522
97.7923
97.7811
97.7534
97.7369
97.7208
97.7142
97.7052
97.7035
97.6991
97.6993
97.6975
97.6979
97.6988
97.6976
97.6982
97.6977
97.698
97.6977
97.698
97.6977
97.698
97.6977
97.6979
97.6978
97.6978
97.6979
97.6977
97.6979
97.6977
97.6978
97.6978
97.6978
97.6978
97.6977
97.6978
97.6978
97.6978
97.6978
97.6978
97.6978
97.6978
97.6978
97.6988
97.6976
97.6982
97.6977
97.698
97.6977
97.698
97.6977
97.698
97.6977
97.6979
97.6978
97.6978
97.6979
97.6977
97.6979
97.6977
97.6978
97.6978
97.6978
97.6978
97.6977
97.6978
97.6978
97.6978
97.6978
97.6978
97.6978
97.6978
97.6978
97.6988
97.6976
97.6982
97.6977
97.698
97.6977
97.698
97.6977
97.698
97.6977
97.6979
97.6978
97.6978
97.6979
97.6977
97.6979
97.6977
97.6978
97.6978
97.6978
97.6978
97.6977
97.6978
97.6978
97.6978
97.6978
97.6978
97.6978
97.6978
97.6978
97.6988
97.6976
97.6981
97.6977
97.698
97.6977
97.698
97.6977
97.698
97.6977
97.6979
97.6978
97.6978
97.6979
97.6977
97.6979
97.6977
97.6978
97.6978
97.6978
97.6978
97.6977
97.6978
97.6978
97.6978
97.6978
97.6978
97.6978
97.6978
97.6978
97.6988
97.6976
97.6981
97.6977
97.698
97.6977
97.698
97.6977
97.698
97.6977
97.6979
97.6978
97.6978
97.6979
97.6977
97.6979
97.6977
97.6978
97.6978
97.6978
97.6978
97.6977
97.6978
97.6978
97.6978
97.6978
97.6978
97.6978
97.6978
97.6978
97.6988
97.6976
97.6981
97.6977
97.698
97.6977
97.698
97.6977
97.698
97.6977
97.6979
97.6978
97.6978
97.6979
97.6977
97.6979
97.6977
97.6978
97.6978
97.6978
97.6978
97.6977
97.6978
97.6978
97.6978
97.6978
97.6978
97.6978
97.6978
97.6978
97.6987
97.6976
97.6981
97.6977
97.6979
97.6977
97.698
97.6977
97.698
97.6977
97.6979
97.6978
97.6978
97.6979
97.6977
97.6979
97.6977
97.6978
97.6978
97.6978
97.6978
97.6977
97.6978
97.6978
97.6978
97.6978
97.6978
97.6978
97.6978
97.6978
97.6987
97.6976
97.6981
97.6977
97.6979
97.6977
97.698
97.6977
97.698
97.6977
97.6979
97.6978
97.6978
97.6979
97.6977
97.6979
97.6977
97.6978
97.6978
97.6978
97.6978
97.6977
97.6978
97.6978
97.6978
97.6978
97.6978
97.6978
97.6978
97.6978
97.6987
97.6976
97.6981
97.6977
97.6979
97.6977
97.698
97.6977
97.698
97.6977
97.6979
97.6978
97.6978
97.6979
97.6977
97.6979
97.6977
97.6978
97.6978
97.6978
97.6978
97.6977
97.6978
97.6978
97.6978
97.6978
97.6978
97.6978
97.6978
97.6978
97.6986
97.6976
97.6981
97.6977
97.6979
97.6977
97.698
97.6977
97.698
97.6978
97.6979
97.6978
97.6978
97.6979
97.6977
97.6979
97.6977
97.6978
97.6978
97.6978
97.6978
97.6977
97.6978
97.6978
97.6978
97.6978
97.6978
97.6978
97.6978
97.6978
97.6986
97.6976
97.698
97.6977
97.6979
97.6977
97.698
97.6977
97.6979
97.6978
97.6979
97.6978
97.6978
97.6979
97.6977
97.6979
97.6977
97.6978
97.6978
97.6978
97.6978
97.6978
97.6978
97.6978
97.6978
97.6978
97.6978
97.6978
97.6978
97.6978
97.6986
97.6976
97.698
97.6977
97.6979
97.6977
97.698
97.6977
97.6979
97.6978
97.6979
97.6978
97.6978
97.6979
97.6977
97.6979
97.6978
97.6978
97.6978
97.6978
97.6978
97.6978
97.6978
97.6978
97.6978
97.6978
97.6978
97.6978
97.6978
97.6978
97.6985
97.6977
97.698
97.6977
97.6979
97.6977
97.6979
97.6977
97.6979
97.6978
97.6978
97.6978
97.6978
97.6979
97.6977
97.6979
97.6978
97.6978
97.6978
97.6978
97.6978
97.6978
97.6978
97.6978
97.6978
97.6978
97.6978
97.6978
97.6978
97.6978
97.6985
97.6977
97.698
97.6977
97.6979
97.6977
97.6979
97.6977
97.6979
97.6978
97.6978
97.6978
97.6978
97.6979
97.6977
97.6979
97.6978
97.6978
97.6978
97.6978
97.6978
97.6978
97.6978
97.6978
97.6978
97.6978
97.6978
97.6978
97.6978
97.6978
97.6984
97.6977
97.698
97.6977
97.6979
97.6977
97.6979
97.6977
97.6979
97.6978
97.6978
97.6978
97.6978
97.6979
97.6977
97.6978
97.6978
97.6978
97.6978
97.6978
97.6978
97.6978
97.6978
97.6978
97.6978
97.6978
97.6978
97.6978
97.6978
97.6978
97.6984
97.6977
97.6979
97.6977
97.6979
97.6977
97.6979
97.6977
97.6979
97.6978
97.6978
97.6978
97.6978
97.6979
97.6977
97.6978
97.6978
97.6978
97.6978
97.6978
97.6978
97.6978
97.6978
97.6978
97.6978
97.6978
97.6978
97.6978
97.6978
97.6978
97.6983
97.6977
97.6979
97.6977
97.6979
97.6977
97.6979
97.6977
97.6979
97.6978
97.6978
97.6978
97.6978
97.6979
97.6977
97.6978
97.6978
97.6978
97.6978
97.6978
97.6978
97.6978
97.6978
97.6978
97.6978
97.6978
97.6978
97.6978
97.6978
97.6978
97.6983
97.6977
97.6979
97.6977
97.6979
97.6977
97.6979
97.6977
97.6979
97.6978
97.6978
97.6978
97.6978
97.6979
97.6977
97.6978
97.6978
97.6978
97.6978
97.6978
97.6978
97.6978
97.6978
97.6978
97.6978
97.6978
97.6978
97.6978
97.6978
97.6978
97.6982
97.6977
97.6979
97.6977
97.6978
97.6977
97.6979
97.6977
97.6979
97.6978
97.6978
97.6978
97.6978
97.6979
97.6978
97.6978
97.6978
97.6978
97.6978
97.6978
97.6978
97.6978
97.6978
97.6978
97.6978
97.6978
97.6978
97.6978
97.6978
97.6978
97.6982
97.6977
97.6979
97.6977
97.6978
97.6977
97.6979
97.6977
97.6979
97.6978
97.6978
97.6978
97.6978
97.6978
97.6978
97.6978
97.6978
97.6978
97.6978
97.6978
97.6978
97.6978
97.6978
97.6978
97.6978
97.6978
97.6978
97.6978
97.6978
97.6978
97.6981
97.6977
97.6978
97.6977
97.6978
97.6977
97.6979
97.6977
97.6978
97.6978
97.6978
97.6978
97.6978
97.6978
97.6978
97.6978
97.6978
97.6978
97.6978
97.6978
97.6978
97.6978
97.6978
97.6978
97.6978
97.6978
97.6978
97.6978
97.6978
97.6978
97.6981
97.6977
97.6978
97.6977
97.6978
97.6977
97.6978
97.6977
97.6978
97.6978
97.6978
97.6978
97.6978
97.6978
97.6978
97.6978
97.6978
97.6978
97.6978
97.6978
97.6978
97.6978
97.6978
97.6978
97.6978
97.6978
97.6978
97.6978
97.6978
97.6978
97.698
97.6977
97.6978
97.6977
97.6978
97.6977
97.6978
97.6977
97.6978
97.6978
97.6978
97.6978
97.6978
97.6978
97.6978
97.6978
97.6978
97.6978
97.6978
97.6978
97.6978
97.6978
97.6978
97.6978
97.6978
97.6978
97.6978
97.6978
97.6978
97.6978
97.698
97.6977
97.6978
97.6977
97.6978
97.6977
97.6978
97.6977
97.6978
97.6978
97.6978
97.6978
97.6978
97.6978
97.6978
97.6978
97.6978
97.6978
97.6978
97.6978
97.6978
97.6978
97.6978
97.6978
97.6978
97.6978
97.6978
97.6978
97.6977
97.6978
97.6979
97.6977
97.6978
97.6977
97.6978
97.6977
97.6978
97.6977
97.6978
97.6978
97.6978
97.6978
97.6978
97.6978
97.6978
97.6978
97.6978
97.6978
97.6978
97.6978
97.6978
97.6978
97.6978
97.6978
97.6978
97.6978
97.6978
97.6978
97.6977
97.6978
97.6978
97.6977
97.6977
97.6977
97.6977
97.6977
97.6978
97.6977
97.6978
97.6978
97.6978
97.6978
97.6978
97.6978
97.6978
97.6978
97.6978
97.6978
97.6978
97.6978
97.6978
97.6978
97.6978
97.6978
97.6978
97.6978
97.6978
97.6978
97.6977
97.6978
97.6978
97.6977
97.6977
97.6977
97.6977
97.6977
97.6978
97.6977
97.6978
97.6978
97.6978
97.6978
97.6978
97.6978
97.6978
97.6978
97.6978
97.6978
97.6978
97.6978
97.6978
97.6978
97.6978
97.6978
97.6978
97.6978
97.6978
97.6978
97.6977
97.6978
97.6977
97.6977
97.6977
97.6977
97.6977
97.6977
97.6977
97.6977
97.6978
97.6978
97.6978
97.6978
97.6978
97.6978
97.6978
97.6978
97.6978
97.6978
97.6978
97.6978
97.6978
97.6978
97.6978
97.6978
97.6978
97.6978
97.6978
97.6978
97.6977
97.6978
97.6977
97.6977
97.6977
97.6977
97.6977
97.6977
97.6977
97.6977
97.6978
97.6978
97.6978
97.6978
97.6978
97.6978
97.6978
97.6978
97.6978
97.6978
97.6978
97.6978
97.6978
97.6978
97.6978
97.6978
97.6978
97.6978
97.6978
97.6978
97.6977
97.6978
97.6976
97.6977
97.6976
97.6977
97.6977
97.6977
97.6977
97.6977
97.6977
97.6978
97.6978
97.6978
97.6978
97.6978
97.6978
97.6978
97.6978
97.6978
97.6978
97.6978
97.6978
97.6978
97.6978
97.6978
97.6978
97.6978
97.6976
97.6978
97.6972
97.6979
215.03
89.9749
35.8196
7.95172
0.365948
-0.415975
0.146056
0.268783
0.233194
0.374862
0.443978
0.494521
35.5966
65.6527
38.712
11.7166
4.7428
2.92449
2.19844
1.56579
1.09559
0.741815
0.489337
0.314671
0.191367
0.114864
0.0624797
0.0348673
0.015895
0.00910364
155.619
79.4322
-0.293734
0.0396097
-0.00276372
-0.126763
0.0261629
0.0919134
-0.175836
-0.027199
0.19391
0.137286
-0.150629
0.964761
0.00753014
-0.0210558
0.00233764
-0.0115557
-0.00646176
-0.00542275
-0.00651342
-0.00289864
-0.00525287
-0.00170265
-0.00381994
-0.00097038
-0.00243753
-0.000535552
-0.00132105
-0.000401208
-0.747194
1.79318
0.421804
0.262222
0.123574
-0.0812968
0.0887227
0.20445
-0.101865
-0.0142657
-0.0281464
-0.0244735
-0.270231
-0.0743509
-0.0296655
-0.0219134
-0.00496656
-0.0115887
-0.00700851
-0.00599389
-0.00614056
-0.00336789
-0.00499969
-0.00179395
-0.00371171
-0.00096899
-0.00240813
-0.000531905
-0.00131237
-0.000399093
-1.84868
-0.373215
0.134913
-0.0270786
0.0651615
0.047252
0.0280791
-0.0244294
0.00977165
0.100113
-0.00171505
0.0252742
-0.0273401
-0.0303325
0.00246224
-0.0232895
-0.00208825
-0.0116266
-0.00728537
-0.00546988
-0.00658266
-0.00292122
-0.00521437
-0.00170984
-0.00377137
-0.000964354
-0.00240927
-0.000530448
-0.00130703
-0.000397414
-0.073773
-0.0875399
0.130248
0.0994235
0.186956
0.141178
0.0938536
0.0667904
-0.0667859
-0.00534263
0.0432283
-0.0134082
-0.0543526
-0.037387
-0.0196956
-0.0214134
-0.00862631
-0.0114212
-0.00768967
-0.00598828
-0.00625275
-0.00331051
-0.00499882
-0.00178464
-0.00368815
-0.000958081
-0.00238201
-0.000524987
-0.0012945
-0.000393429
-0.20243
-0.112666
0.204288
0.276407
0.190489
0.209176
0.102963
0.174591
0.0284769
0.0311817
-0.0122162
-0.0191048
-0.026782
-0.0358499
-0.0081254
-0.022571
-0.00688427
-0.0110266
-0.00825774
-0.00539084
-0.0066106
-0.00289023
-0.0051234
-0.00169157
-0.0036866
-0.000948295
-0.00235733
-0.000519476
-0.00127912
-0.000388725
-0.119175
-0.0917057
0.14313
0.176833
0.0527543
0.0718752
0.0100092
0.0368458
-0.0297092
-0.0136464
-0.0137248
-0.0269276
-0.0331915
-0.0328093
-0.0199535
-0.0209944
-0.0104204
-0.0109269
-0.0082649
-0.00585709
-0.00630756
-0.00322546
-0.004935
-0.00174216
-0.00360987
-0.000936177
-0.00232158
-0.00051153
-0.00125986
-0.000382651
-0.271592
-0.260202
-0.120876
0.0290338
-0.115265
-0.086605
-0.121437
-0.0534211
-0.0826172
-0.0533262
-0.0535355
-0.0442599
-0.0338299
-0.0355076
-0.0169384
-0.0209771
-0.0116146
-0.0102827
-0.00874787
-0.00528781
-0.00654727
-0.00286917
-0.00497462
-0.00166369
-0.00356397
-0.000921091
-0.0022801
-0.000502461
-0.0012369
-0.000375472
-0.681114
-0.664572
-0.578126
-0.298519
-0.416986
-0.321598
-0.305486
-0.200894
-0.156077
-0.100081
-0.074748
-0.055223
-0.0419489
-0.03498
-0.0219451
-0.0203302
-0.0125142
-0.0104355
-0.00850701
-0.0056776
-0.00626228
-0.00310731
-0.00480418
-0.00167664
-0.00348183
-0.000903594
-0.00223152
-0.000491868
-0.0012103
-0.000367194
-1.0507
-1.05237
-1.09462
-0.674059
-0.718813
-0.543924
-0.453591
-0.289086
-0.212149
-0.118338
-0.094296
-0.0639756
-0.0444123
-0.0350837
-0.0229733
-0.0190521
-0.0133286
-0.0097024
-0.00878808
-0.00508991
-0.00635086
-0.00280667
-0.004762
-0.00161846
-0.00340266
-0.000883293
-0.00217633
-0.000479841
-0.00118015
-0.000357849
-1.25858
-1.25859
-1.35338
-0.843164
-0.888345
-0.663878
-0.538349
-0.329096
-0.227906
-0.141794
-0.0974897
-0.0668033
-0.0454543
-0.0343056
-0.0230386
-0.0185223
-0.0130968
-0.00987409
-0.00840609
-0.00539255
-0.00607529
-0.00294675
-0.00459836
-0.00159352
-0.00330609
-0.00086049
-0.00211463
-0.000466422
-0.00114653
-0.000347475
-0.84879
-0.860443
-0.886348
-0.836563
-0.78073
-0.622643
-0.464441
-0.297268
-0.196443
-0.127294
-0.0878936
-0.0602419
-0.0427019
-0.0311586
-0.0224399
-0.0167403
-0.0129337
-0.00889562
-0.00838738
-0.00481304
-0.00601575
-0.00270886
-0.00448747
-0.0015464
-0.00320239
-0.000835073
-0.00204665
-0.000451645
-0.00110956
-0.000336104
-0.192913
-0.225087
-0.165555
-0.334416
-0.345493
-0.316051
-0.25448
-0.18508
-0.133766
-0.095925
-0.0696886
-0.0504536
-0.0369403
-0.0275815
-0.0204011
-0.0156611
-0.0120322
-0.00884919
-0.00789653
-0.00495879
-0.00573227
-0.0027357
-0.00431498
-0.00149933
-0.00308723
-0.00080711
-0.00197257
-0.000435547
-0.00106932
-0.000323771
0.139463
0.0958995
0.258505
0.107161
0.0563128
-0.0274678
-0.0646974
-0.0715809
-0.0670047
-0.0568113
-0.047267
-0.037017
-0.0296679
-0.0224744
-0.0181052
-0.0134072
-0.0112829
-0.00777205
-0.00761781
-0.00444028
-0.00555212
-0.00256483
-0.00415369
-0.00144567
-0.00296313
-0.000776637
-0.00189265
-0.000418171
-0.00102596
-0.000310516
0.252978
0.241169
0.314034
0.249194
0.221888
0.125484
0.0538513
0.00906802
-0.0147921
-0.0240555
-0.0267902
-0.0245632
-0.0218451
-0.0178393
-0.0151202
-0.0117633
-0.0100932
-0.00742525
-0.00704992
-0.00438545
-0.00524708
-0.00248548
-0.00396072
-0.00138727
-0.00282957
-0.000743703
-0.00180713
-0.000399562
-0.000979603
-0.000296376
0.269925
0.266693
0.288058
0.274275
0.246911
0.166325
0.0961145
0.0465173
0.0159337
-0.00132842
-0.0106249
-0.0135465
-0.0146806
-0.0129105
-0.0122734
-0.0095244
-0.00902833
-0.00641292
-0.0065978
-0.00396512
-0.00498257
-0.00235502
-0.00376354
-0.00132358
-0.00268746
-0.000708367
-0.00171629
-0.000379767
-0.00093038
-0.000281392
0.195962
0.196032
0.199811
0.207847
0.188165
0.141431
0.0935418
0.0561343
0.0293578
0.011777
0.000550971
-0.00521963
-0.00853561
-0.00882049
-0.00938317
-0.00779849
-0.00778618
-0.00578456
-0.00598493
-0.00372736
-0.00465231
-0.00222248
-0.00354745
-0.0012549
-0.00253712
-0.000670708
-0.00162041
-0.000358839
-0.000878448
-0.000265609
0.115331
0.116493
0.10934
0.122379
0.11456
0.0978929
0.0735396
0.0507157
0.0318914
0.0178301
0.0074642
0.00094265
-0.00362383
-0.00518222
-0.00685986
-0.0059666
-0.00667188
-0.00492162
-0.00545264
-0.00339331
-0.00433638
-0.00208036
-0.00332334
-0.00118146
-0.00237921
-0.000630815
-0.0015198
-0.000336836
-0.00082396
-0.000249071
0.0622182
0.0653042
0.0503699
0.0572384
0.0583021
0.0594816
0.0531499
0.0426925
0.0313448
0.020847
0.0118787
0.00526945
0.000235127
-0.00225292
-0.00456426
-0.00444247
-0.00550627
-0.00418955
-0.00486636
-0.00307466
-0.00398711
-0.00193039
-0.00308713
-0.00110351
-0.00221421
-0.000588788
-0.00141475
-0.000313815
-0.000767076
-0.000231824
0.00108685
0.00344159
-0.00764826
0.000144863
0.0220662
0.0368162
0.0410813
0.0377425
0.0307749
0.0226149
0.014785
0.00837119
0.00315017
8.68459e-05
-0.00268736
-0.003099
-0.00449902
-0.00349513
-0.00433029
-0.0027545
-0.00364333
-0.00177392
-0.00284285
-0.00102138
-0.00204278
-0.000544751
-0.00130562
-0.000289846
-0.000707974
-0.00021392
0.0434888
0.039944
0.0364693
0.035459
0.0462737
0.0509587
0.0483647
0.0415646
0.0333521
0.0248479
0.0171423
0.0106367
0.00535344
0.00187275
-0.00110476
-0.001975
-0.00354018
-0.00286996
-0.00378913
-0.00242914
-0.00328527
-0.00161221
-0.00259077
-0.000935407
-0.00186549
-0.000498834
-0.00119273
-0.000264994
-0.000646824
-0.000195409
0.130929
0.128271
0.129352
0.10623
0.0873101
0.0703306
0.0569406
0.0452511
0.0353187
0.0261972
0.0185318
0.011996
0.00675012
0.00313526
8.06055e-05
-0.00107736
-0.00274142
-0.0023174
-0.00328443
-0.00211838
-0.00292981
-0.00144667
-0.00233228
-0.000845974
-0.00168293
-0.000451176
-0.0010764
-0.000239331
-0.000583805
-0.000176344
0.142606
0.14204
0.14299
0.123172
0.100004
0.0783191
0.0614565
0.0473645
0.03641
0.0266432
0.0192215
0.0126276
0.00767509
0.00393338
0.000974965
-0.000390234
-0.00203936
-0.00183675
-0.00279326
-0.00182162
-0.00257314
-0.00127846
-0.00206847
-0.000753476
-0.00149572
-0.000401941
-0.000957024
-0.000212937
-0.000519111
-0.000156782
0.139849
0.142413
0.14054
0.125709
0.102958
0.0799774
0.0617736
0.0467097
0.035562
0.0257668
0.0187535
0.0124042
0.00783625
0.00426506
0.00150248
8.91231e-05
-0.0014772
-0.00142851
-0.00233878
-0.00153984
-0.0022187
-0.00110861
-0.00180033
-0.000658302
-0.00130445
-0.000351291
-0.000834932
-0.00018589
-0.000452929
-0.000136777
0.152784
0.151864
0.148223
0.124382
0.098342
0.0741045
0.0566149
0.04226
0.0324338
0.0232748
0.01739
0.011427
0.00767644
0.00423104
0.00182748
0.000391841
-0.00102434
-0.00108553
-0.00191338
-0.001273
-0.00186754
-0.000937888
-0.00152871
-0.000560835
-0.00110967
-0.000299399
-0.000710479
-0.00015827
-0.000385447
-0.000116387
0.101021
0.0980336
0.0994755
0.0886316
0.0721472
0.0567236
0.0447862
0.0343118
0.0268527
0.0195712
0.0148372
0.00989124
0.00670941
0.00384092
0.00174132
0.000527612
-0.00068396
-0.000802996
-0.00151866
-0.00102049
-0.00152037
-0.000766929
-0.00125444
-0.000461473
-0.000911992
-0.000246454
-0.000584047
-0.000130168
-0.000316873
-9.56718e-05
0.0729558
0.0837694
0.0654441
0.0593905
0.0461128
0.0367553
0.0313308
0.0245374
0.0201359
0.0146906
0.0117992
0.00778479
0.00567206
0.00319724
0.00173674
0.000544787
-0.000427643
-0.000571133
-0.00115109
-0.000780509
-0.00117744
-0.000596104
-0.000978143
-0.000360585
-0.000711957
-0.000192641
-0.000455994
-0.000101668
-0.000247403
-7.46906e-05
0.00709272
0.00348888
-0.00823148
-0.011382
0.0016653
0.00883181
0.0118303
0.0125011
0.0118061
0.00973705
0.00803014
0.00565615
0.0040083
0.00240096
0.00113574
0.000452883
-0.00025845
-0.000379681
-0.00080644
-0.000550497
-0.000838657
-0.000425598
-0.000700375
-0.000258527
-0.000510098
-0.000138151
-0.000326681
-7.28594e-05
-0.000177234
-5.35024e-05
-0.0819098
-0.0986903
-0.0763438
-0.0529087
-0.0261609
-0.00713673
0.00068929
0.00514223
0.00638178
0.00540944
0.00487971
0.00327317
0.00260571
0.00147144
0.000984897
0.00030365
-0.000123311
-0.000216266
-0.000478516
-0.000327665
-0.000503522
-0.000255476
-0.000421648
-0.000155664
-0.000306984
-8.31911e-05
-0.0001965
-4.38391e-05
-0.000106582
-3.21729e-05
-0.0325817
-0.0406582
-0.0303075
-0.0114605
-0.00206123
0.00191581
0.00298737
0.00269895
0.0024271
0.00203873
0.00161224
0.00124941
0.000786394
0.000564438
0.000101146
0.000109563
-5.65258e-05
-6.9023e-05
-0.000161607
-0.000108607
-0.000170533
-8.54668e-05
-0.000142256
-5.22847e-05
-0.000103055
-2.79336e-05
-6.57646e-05
-1.46861e-05
-3.56208e-05
-1.07528e-05
0.00439735
0.00396351
0.00248031
0.00232459
0.001447
0.00137475
0.000903627
0.000809174
0.000607778
0.000505375
0.000428137
0.000332267
0.000293814
0.000221958
0.000192396
0.00014837
0.000126489
9.86196e-05
7.81237e-05
6.56448e-05
4.61241e-05
4.63278e-05
4.08254e-05
3.56613e-05
3.04033e-05
3.31465e-05
3.06154e-06
6.18606e-05
-1.64688e-05
0.000429448
-0.000478211
-0.000372606
-0.000332913
-0.000280425
-0.000226851
-0.000185989
-0.000142212
-0.000111517
-8.18559e-05
-6.12813e-05
-4.44894e-05
-3.28627e-05
-2.4929e-05
-1.98534e-05
-1.69027e-05
-1.52992e-05
-1.44947e-05
-1.40419e-05
-1.36334e-05
-1.31268e-05
-1.24005e-05
-1.14989e-05
-1.04134e-05
-9.2464e-06
-8.02691e-06
-6.86677e-06
-5.6994e-06
-4.93723e-06
-3.85112e-06
-1.0309e-06
-0.000473843
-0.000370763
-0.000331494
-0.000278984
-0.00022541
-0.000184924
-0.000141252
-0.000110813
-8.13268e-05
-6.08881e-05
-4.42341e-05
-3.26708e-05
-2.48161e-05
-1.97645e-05
-1.68484e-05
-1.52438e-05
-1.44516e-05
-1.39853e-05
-1.35741e-05
-1.30682e-05
-1.23307e-05
-1.14408e-05
-1.03574e-05
-9.20485e-06
-8.00612e-06
-6.95846e-06
-6.05894e-06
-5.88769e-06
-7.40555e-06
-1.02327e-05
-0.000470801
-0.00036883
-0.00032968
-0.000277397
-0.000224126
-0.000183783
-0.000140474
-0.000110214
-8.09375e-05
-6.06766e-05
-4.41085e-05
-3.26509e-05
-2.48161e-05
-1.98035e-05
-1.68721e-05
-1.52676e-05
-1.44478e-05
-1.39723e-05
-1.35433e-05
-1.30201e-05
-1.22853e-05
-1.13803e-05
-1.02975e-05
-9.13704e-06
-7.92373e-06
-6.79923e-06
-5.57217e-06
-4.93883e-06
-3.33761e-06
-2.66214e-06
-0.000465919
-0.000364932
-0.000326547
-0.000274667
-0.000221891
-0.00018194
-0.000139114
-0.000109159
-8.02143e-05
-6.01821e-05
-4.37852e-05
-3.24501e-05
-2.46864e-05
-1.97164e-05
-1.67976e-05
-1.5193e-05
-1.43633e-05
-1.38763e-05
-1.34374e-05
-1.29073e-05
-1.21712e-05
-1.1269e-05
-1.01922e-05
-9.03901e-06
-7.84033e-06
-6.76589e-06
-5.64712e-06
-5.30383e-06
-3.97356e-06
-5.13518e-06
-0.000459981
-0.000360253
-0.000322494
-0.000271242
-0.000219104
-0.000179652
-0.000137409
-0.00010785
-7.92992e-05
-5.95515e-05
-4.33609e-05
-3.21816e-05
-2.45027e-05
-1.95893e-05
-1.66865e-05
-1.50864e-05
-1.42461e-05
-1.37486e-05
-1.33009e-05
-1.27627e-05
-1.20291e-05
-1.11271e-05
-1.00571e-05
-8.90897e-06
-7.70346e-06
-6.58654e-06
-5.32374e-06
-4.64428e-06
-2.64305e-06
-2.55663e-06
-0.000452768
-0.00035448
-0.000317435
-0.000266998
-0.000215661
-0.000176844
-0.000135296
-0.000106227
-7.81474e-05
-5.87389e-05
-4.28043e-05
-3.18084e-05
-2.42402e-05
-1.93946e-05
-1.65192e-05
-1.49273e-05
-1.40812e-05
-1.35751e-05
-1.31203e-05
-1.25773e-05
-1.18471e-05
-1.09503e-05
-9.89068e-06
-8.752e-06
-7.55744e-06
-6.45524e-06
-5.21682e-06
-4.59796e-06
-2.6359e-06
-2.97013e-06
-0.000444286
-0.000347726
-0.000311436
-0.000261978
-0.000211597
-0.000173533
-0.000132793
-0.000104299
-7.67682e-05
-5.77522e-05
-4.21195e-05
-3.13369e-05
-2.3902e-05
-1.91378e-05
-1.62991e-05
-1.47206e-05
-1.38725e-05
-1.33597e-05
-1.29002e-05
-1.23546e-05
-1.16298e-05
-1.07408e-05
-9.69382e-06
-8.56655e-06
-7.37775e-06
-6.25935e-06
-4.98382e-06
-4.19336e-06
-2.21659e-06
-2.00623e-06
-0.000434533
-0.000339997
-0.000304524
-0.000256196
-0.000206922
-0.000169725
-0.000129906
-0.000102071
-7.51646e-05
-5.65931e-05
-4.13076e-05
-3.07675e-05
-2.34882e-05
-1.88188e-05
-1.60264e-05
-1.44663e-05
-1.36199e-05
-1.31029e-05
-1.26406e-05
-1.2095e-05
-1.13777e-05
-1.04995e-05
-9.46846e-06
-8.35678e-06
-7.18371e-06
-6.0729e-06
-4.81281e-06
-3.99609e-06
-2.11308e-06
-1.88857e-06
-0.000423526
-0.000331311
-0.00029673
-0.000249672
-0.000201651
-0.00016543
-0.000126643
-9.95473e-05
-7.33404e-05
-5.52638e-05
-4.037e-05
-3.01012e-05
-2.29993e-05
-1.84382e-05
-1.57015e-05
-1.41652e-05
-1.33242e-05
-1.28054e-05
-1.23424e-05
-1.17992e-05
-1.10916e-05
-1.02274e-05
-9.21516e-06
-8.12234e-06
-6.96676e-06
-5.85731e-06
-4.60585e-06
-3.7158e-06
-1.94868e-06
-1.49014e-06
-0.000411296
-0.000321689
-0.000288084
-0.000242427
-0.0001958
-0.000160661
-0.000123014
-9.6734e-05
-7.13004e-05
-5.37681e-05
-3.93088e-05
-2.93397e-05
-2.24363e-05
-1.7997e-05
-1.5325e-05
-1.38179e-05
-1.2986e-05
-1.24681e-05
-1.20066e-05
-1.14682e-05
-1.07727e-05
-9.9257e-06
-8.93575e-06
-7.86606e-06
-6.73428e-06
-5.63809e-06
-4.417e-06
-3.50472e-06
-1.85601e-06
-1.30757e-06
-0.000397878
-0.000311154
-0.000278613
-0.000234485
-0.000189388
-0.000155429
-0.000119029
-9.36386e-05
-6.905e-05
-5.21096e-05
-3.81265e-05
-2.84848e-05
-2.18004e-05
-1.74961e-05
-1.48979e-05
-1.34255e-05
-1.26063e-05
-1.20919e-05
-1.16341e-05
-1.11032e-05
-1.04223e-05
-9.59544e-06
-8.631e-06
-7.58839e-06
-6.48432e-06
-5.40479e-06
-4.21705e-06
-3.28117e-06
-1.75491e-06
-1.10028e-06
-0.000383311
-0.000299733
-0.000268347
-0.000225869
-0.000182433
-0.00014975
-0.0001147
-9.02688e-05
-6.65948e-05
-5.02925e-05
-3.68258e-05
-2.75386e-05
-2.1093e-05
-1.69369e-05
-1.4421e-05
-1.29889e-05
-1.21861e-05
-1.16778e-05
-1.12261e-05