/*--------------------------------*- C++ -*----------------------------------*\
| =========                 |                                                 |
| \\      /  F ield         | OpenFOAM: The Open Source CFD Toolbox           |
|  \\    /   O peration     | Version:  2.4.0                                 |
|   \\  /    A nd           | Web:      www.OpenFOAM.org                      |
|    \\/     M anipulation  |                                                 |
\*---------------------------------------------------------------------------*/
FoamFile
{
    version     2.0;
    format      ascii;
    class       volScalarField;
    location    "2";
    object      p;
}
// * * * * * * * * * * * * * * * * * * * * * * * * * * * * * * * * * * * * * //

dimensions      [1 -1 -2 0 0 0 0];

internalField   nonuniform List<scalar> 
2400
(
2310.25
2315.8
2314.27
2305.78
2291.18
2274.16
2258.75
2248.11
2244.5
2249.29
2263.09
2285.94
2317.66
2357.32
2404.06
2457.05
2515.4
2576.9
2634.74
2665.59
2211.32
2216.64
2214.86
2206.03
2191.1
2173.83
2158.25
2147.53
2143.93
2148.82
2162.76
2185.61
2217.13
2256.42
2302.66
2354.67
2410.76
2469.85
2529.42
2562.17
2111.96
2116.81
2114.42
2104.85
2089.26
2071.48
2055.55
2044.63
2041
2046.01
2060.21
2083.65
2115.39
2155.18
2201.92
2254.14
2309.78
2365.13
2418.57
2454.92
2012.06
2016.16
2012.67
2001.81
1985.16
1966.61
1950.13
1938.91
1935.24
1940.42
1954.92
1978.58
2010.91
2051.13
2098.2
2150.64
2206.33
2261.26
2312.1
2352.09
1911.76
1914.82
1909.71
1896.93
1878.73
1859.12
1841.96
1830.41
1826.75
1832.22
1847.19
1871.42
1904.33
1945.05
1992.47
2045.1
2100.93
2156.86
2208.89
2253.22
1811.28
1813.02
1805.61
1790.07
1769.72
1748.74
1730.76
1718.89
1715.37
1721.3
1736.94
1761.96
1795.66
1837.1
1885.09
1938.14
1994.39
2051.46
2105.81
2154.3
1710.98
1711.14
1700.54
1681.09
1657.77
1635.03
1616.13
1604.05
1600.85
1607.49
1624.04
1650.08
1684.82
1727.22
1776.01
1829.73
1886.68
1944.82
2001.44
2053.65
1611.34
1609.67
1594.85
1569.92
1542.49
1517.45
1497.55
1485.47
1482.94
1490.6
1508.36
1535.68
1571.7
1615.3
1665.08
1719.63
1777.46
1836.71
1895.32
1950.61
1512.95
1509.33
1489.1
1456.64
1423.44
1395.35
1374.42
1362.75
1361.4
1370.52
1389.84
1418.73
1456.3
1501.3
1552.2
1607.63
1666.38
1726.79
1787.05
1844.54
1416.33
1411.15
1384.17
1341.31
1299.75
1267.71
1245.94
1235.43
1236.01
1247.14
1268.42
1299.22
1338.59
1385.2
1437.33
1493.58
1553.12
1614.58
1676.1
1734.93
1321.74
1316.62
1281.55
1223.91
1169.53
1132.09
1110.32
1102.56
1106.27
1120.12
1143.86
1176.92
1218.35
1266.77
1320.16
1377.12
1437.32
1499.67
1562.06
1621.57
1228.98
1227.4
1183.07
1103.55
1029.83
984.703
963.99
962.16
971.194
988.788
1015.67
1051.42
1095.18
1145.53
1200.07
1257.51
1318.28
1381.53
1444.61
1504.42
1137.24
1145.33
1090.19
977.741
877.192
823.548
804.238
811.764
829.535
852.547
883.525
922.514
968.822
1021.11
1076.51
1133.98
1195.25
1259.59
1323.42
1383.49
1045.14
1074.21
1009.02
852.158
707.271
639.73
629.173
651.637
680.7
711.016
747.536
790.367
839.295
893.337
949.143
1006.01
1067.68
1133.39
1198.17
1258.8
949.949
1021.06
953.272
739.587
513.874
398.253
412.731
480.029
526.737
564.513
608.001
655.229
706.433
761.697
817.003
872.482
935.294
1003.25
1069.07
1130.56
845.873
986.543
895.862
570.618
284.757
155.8
161.949
282.708
367.68
415.373
466.28
517.845
570.636
625.422
678.19
730.037
794.863
867.585
935.926
999.233
729.27
957.688
745.739
295.689
104.139
65.5225
58.0014
97.865
200.211
262.366
324.822
379.975
434.197
483.677
529.775
576.568
645.337
724.842
797.141
864.591
605.545
886.662
461.385
120.713
44.2733
25.8057
23.8731
28.8988
51.7494
107.243
181.146
239.155
290.868
336.879
363.891
406.483
487.636
577.313
651.65
724.455
490.099
681.833
210.235
52.8787
17.98
10.0175
9.28141
9.5303
10.5783
27.0606
71.4713
108.869
141.17
150.982
150.866
180.703
287.993
418.594
501.729
579.773
390.28
400.651
102.12
26.6104
7.55012
2.92164
1.88056
2.62249
6.90722
11.8565
32.1848
42.4621
54.862
44.0606
27.3045
32.2483
77.1981
225.545
331.907
426.606
2660.43
2657.45
2660.12
2660.33
2659.13
2661.27
2643.75
2609.87
2580.17
2563.35
2564.84
2577
2585
2579.49
2565.39
2543.02
2519.34
2503.64
2495.88
2489.8
2559.27
2558.43
2566.34
2578.11
2577.08
2570.06
2548.81
2510.17
2480.83
2463.81
2470.18
2488.83
2494.9
2488.06
2474.07
2451.59
2422.63
2400.45
2391.98
2385.52
2465.13
2472.9
2485.16
2503.08
2503.73
2490.48
2466.51
2433.87
2399.35
2374.53
2382.1
2399.55
2400.74
2392.45
2376.12
2354.22
2330.45
2308.69
2292.78
2280.77
2374.29
2391.89
2413.07
2435.88
2445.23
2427.83
2403.5
2365.21
2315.9
2289.71
2296.03
2303.16
2296.48
2285.28
2267.57
2245.84
2225.14
2207.39
2192.88
2180.44
2280.88
2302.69
2330.26
2359.05
2375.78
2365.78
2339.38
2294.99
2240.25
2213.51
2207.39
2198.6
2185.32
2171.29
2154.06
2136.04
2119.69
2105.24
2092.17
2079.58
2185.48
2208.08
2236.42
2268.82
2294.48
2291.15
2265.58
2219
2164.62
2129.15
2108.13
2089.12
2072.44
2057.26
2042.39
2028.6
2015.64
2003.11
1990.95
1978.54
2088.76
2112.04
2138.15
2168.15
2197.82
2200.77
2177.41
2130.56
2074.89
2029.43
1999.25
1975.59
1957.41
1943.17
1931.36
1921
1911.01
1900.87
1890.31
1878.73
1989.36
2013.78
2037.66
2062.47
2089.01
2094.16
2072.13
2026.41
1969.14
1918.66
1881.78
1855.95
1838.36
1827.11
1819.25
1812.86
1806.43
1799.05
1790.39
1780.03
1885.64
1911.05
1933.63
1953.87
1974.82
1976.71
1952.62
1911.53
1855.34
1805.68
1764.44
1734.45
1717.92
1711.17
1707.26
1705.06
1702.72
1698.4
1691.83
1682.84
1776.92
1802.72
1824.49
1841.46
1856.75
1858.02
1824.22
1791.01
1741.54
1691.48
1648.93
1619.79
1607.05
1601.37
1598.42
1599.08
1600.49
1599.54
1595.3
1587.82
1663.4
1688.88
1709.92
1724.77
1735.38
1734.55
1702.32
1665.27
1621.24
1567.68
1520.73
1494.03
1486.42
1486.53
1489.18
1494.78
1500.38
1503.19
1501.55
1495.58
1545.57
1570.31
1590.53
1604.25
1611.65
1611.16
1580.7
1534.28
1487.11
1426.2
1368.65
1336.85
1332.27
1349.95
1372.56
1390.12
1402.46
1410.17
1411.45
1406.86
1423.96
1447.89
1467.26
1480.51
1485.93
1484.87
1459.05
1405.57
1347.89
1279.2
1210.1
1170.99
1168.09
1198.27
1246.08
1284.6
1308.63
1322.17
1326.23
1322.45
1299.08
1322.57
1341.4
1354.55
1359.46
1357.26
1336.95
1287.52
1219.69
1149
1079.08
1032.68
1031.81
1070.3
1130.58
1189.14
1224.64
1241.83
1247.2
1243.01
1171.44
1195.24
1214.35
1228.02
1233.93
1231.92
1217.35
1179.47
1118.49
1054.76
993.054
947.343
941.219
982.829
1046.23
1108.94
1152.15
1170.56
1174.77
1168.62
1041.63
1066.65
1087.32
1102.65
1110.97
1111.44
1102.98
1078.93
1037.96
991.584
946.966
913.572
905.696
938.37
1000.01
1050.89
1089.4
1107.13
1107.89
1098.41
910.528
937.874
961.358
979.654
991.605
996.501
994.455
983.107
961.597
935.806
912.013
896.737
895.116
920.217
964.886
1005.76
1035.42
1048.63
1044.39
1030.81
777.55
809.581
837.444
859.858
876.283
886.627
891.252
890.079
883.315
874.487
869.143
870.275
878.221
901.912
934.535
962.352
981.087
990.635
981.588
964.285
643.047
681.996
715.843
743.452
765.141
781.57
793.178
800.54
804.56
807.923
815.387
829.304
844.185
868.391
895.065
914.767
925.297
930.504
917.901
897.6
507.318
556.701
598.178
630.877
657.388
679.414
697.587
712.039
723.85
735.918
752.43
776.47
797.139
821.329
845.235
862.121
866.359
865.863
852.834
830.189
2471.91
2433.22
2389.7
2348.2
2310.07
2275.39
2244.7
2218.8
2199.19
2186.31
2180.91
2183.45
2193.89
2211.29
2233.26
2255.27
2270.96
2275.55
2270.8
2259.63
2365.92
2326.41
2284.64
2246.87
2210.43
2176.08
2145.34
2119.19
2099.43
2086.3
2080.7
2083.13
2093.55
2111.05
2133.22
2155.48
2171.33
2175.84
2170.85
2159.58
2260.73
2225.19
2187.74
2148.86
2111.32
2076.33
2045.04
2018.96
1998.14
1984.48
1978.51
1980.72
1991.12
2008.82
2031.41
2054.18
2070.36
2074.77
2069.33
2057.94
2159.51
2123.98
2086.5
2048.5
2010.81
1975.14
1943.07
1915.89
1894.68
1880.42
1873.93
1875.79
1886.12
1904.12
1927.34
1950.89
1967.63
1971.97
1965.99
1954.45
2058.7
2024.69
1987.24
1948.3
1909.74
1873.06
1839.92
1811.71
1789.5
1774.36
1767.12
1768.47
1778.67
1797.01
1821.03
1845.62
1863.13
1867.43
1860.75
1849.02
1958.04
1924.94
1887.68
1848.01
1808.17
1770.06
1735.49
1705.93
1682.49
1666.2
1657.97
1658.61
1668.55
1687.23
1712.21
1738.11
1756.66
1761.03
1753.55
1741.63
1858.88
1826.11
1788.41
1747.62
1706.1
1666.15
1629.78
1598.54
1573.58
1555.88
1546.38
1546.05
1555.55
1574.52
1600.55
1627.99
1647.93
1652.63
1644.39
1632.24
1761.24
1728.54
1689.82
1647.24
1603.5
1561.23
1522.69
1489.47
1462.71
1443.31
1432.24
1430.64
1439.45
1458.58
1485.7
1514.94
1536.66
1542.14
1533.26
1520.96
1665.26
1632.28
1591.97
1546.92
1500.32
1455.22
1414.1
1378.6
1349.82
1328.47
1315.5
1312.26
1320.1
1339.26
1367.53
1398.85
1422.78
1429.48
1420.14
1407.9
1571.36
1537.57
1494.96
1446.67
1396.49
1347.97
1303.85
1265.83
1234.79
1211.24
1196.03
1190.75
1197.29
1216.32
1245.87
1279.76
1306.38
1314.47
1304.96
1292.97
1480.03
1444.71
1398.89
1346.43
1291.8
1239.15
1191.56
1150.75
1117.31
1091.41
1073.59
1065.71
1070.44
1089.06
1119.88
1156.73
1186.81
1196.74
1187.72
1175.65
1391.7
1353.9
1303.79
1246.03
1185.87
1128.22
1076.66
1032.83
997.088
968.755
947.879
936.567
938.637
956.016
986.863
1026.2
1061.48
1074.76
1068.45
1054.89
1306.75
1265.24
1209.56
1145.17
1078.27
1014.79
958.922
912.058
874.208
843.414
818.934
802.982
800.852
814.835
842.899
884.513
927.795
945.923
947.819
929.235
1225.35
1178.72
1116.04
1043.65
968.903
898.854
838.388
788.418
748.675
715.533
686.91
664.579
655.87
664.107
686.483
726.011
779.561
809.346
828.472
798.564
1147.31
1094.18
1023.19
941.639
857.964
780.15
714.137
661.691
619.619
584.957
551.918
521.195
503.899
503.932
504.316
504.985
572.188
656.527
714.499
667.208
1072.1
1011.49
931.086
838.746
743.521
654.556
580.812
526.052
485.708
451.362
414.59
374.217
344.929
322.104
260.707
189.396
264.87
452.907
606.839
544.489
999.044
930.613
839.265
732.718
622.003
518.744
436.188
380.823
342.887
311.411
274.614
223.093
173.395
122.78
44.9385
34.2092
77.2605
210.626
493.502
442.68
927.6
850.955
745.329
618.703
486.702
361.294
263.783
207.734
180.903
164.962
139.247
88.3617
41.6483
12.8926
6.24967
10.6595
26.2178
85.334
355.763
378.655
856.914
770.892
646.488
491.732
329.697
180.744
102.178
79.5498
68.693
64.3558
54.9634
28.6338
10.2234
3.53383
2.28743
3.00872
8.27687
38.0505
180.991
349.845
786.515
689.822
539.952
345.228
161.925
62.1545
43.0325
38.9111
31.212
27.5497
25.6693
15.7864
6.26279
2.22554
0.393174
-0.113382
2.0041
17.5215
81.5754
300.306
193.993
61.3248
18.0547
2.0189
-4.0804
-6.81996
-7.52165
-5.03328
0.77428
6.98093
13.4743
22.7892
17.7289
7.29768
4.33103
5.29397
11.3276
25.8687
62.2783
128.316
103.841
8.52886
0.452767
-2.27405
-4.453
-6.84242
-7.47218
-5.59758
-0.964351
4.51544
8.03201
9.35651
6.75966
3.28822
2.85829
4.89635
6.89605
8.69464
10.2884
12.7023
74.1726
4.43334
1.06538
0.146867
-1.23529
-2.92118
-3.31525
-1.47448
2.04572
6.00148
8.90619
9.36452
-0.00202289
1.00922
2.59122
5.17678
7.97793
10.28
11.2111
12.5914
40.6177
12.6215
7.08829
3.91504
1.32279
-3.4715
-7.97409
-2.42271
4.25156
3.93251
0.459657
8.88231
-15.6805
-19.9753
-5.11644
-2.81815
-39.8956
-49.8586
-24.9646
-7.68465
117.21
87.3997
36.4576
15.9199
7.04147
9.02023
21.8007
5.79487
-9.44641
-27.6742
3.8355
32.5475
-2.54237
-8.5222
-24.9646
-50.3178
-50.8184
-38.6336
-44.1827
-55.686
295.9
253.583
151.7
45.3845
4.65559
-0.287736
-1.79401
2.74457
19.5165
16.369
1.85183
-0.710874
-3.52582
-3.83343
6.86661
67.2321
68.3373
4.43698
-1.12841
-1.90417
274.011
185.1
32.7059
4.23077
-0.797342
-1.86997
-2.55309
-2.831
-2.95233
-3.19222
-3.12764
-3.42291
-3.71391
-3.96908
-4.26911
-3.73606
-3.17987
-3.03819
-3.43934
1.51819
122.274
48.2931
1.56414
-1.70429
-2.84184
-3.40305
-3.79274
-3.94894
-3.97866
-3.87271
-3.69696
-3.72264
-4.1077
-4.55038
-4.78482
-4.66191
-4.38869
-4.19262
-4.01527
-6.28028
64.1391
0.460422
-3.35971
-3.95876
-4.64601
-5.26516
-5.51856
-5.44397
-5.28315
-5.16024
-5.09077
-5.10243
-5.19654
-5.31896
-5.40795
-5.45307
-5.53871
-5.72888
-5.99643
-6.48866
62.9206
1.15846
-5.47593
-4.7099
-5.87294
-6.55443
-6.87082
-6.76841
-6.58012
-6.44462
-6.36348
-6.33396
-6.35317
-6.41081
-6.49559
-6.59816
-6.72316
-6.86354
-7.01529
-7.20046
92.4554
58.7107
1.03025
-5.13515
-6.74332
-7.64194
-8.12746
-7.9933
-7.77132
-7.57897
-7.43111
-7.33076
-7.29477
-7.32055
-7.40659
-7.55163
-7.74837
-7.93345
-8.12451
-8.37743
76.2423
53.4964
11.8065
-5.92429
-8.37869
-9.23713
-9.52738
-9.33042
-8.94084
-8.5667
-8.25389
-8.01198
-7.86033
-7.79291
-7.80899
-7.90148
-8.04123
-8.19942
-8.38775
-8.52421
2.009
-13.6765
-16.4897
-13.1952
-12.6839
-11.6754
-11.6287
-11.0987
-10.0857
-9.34683
-8.80987
-8.40469
-8.11175
-7.916
-7.80212
-7.75687
-7.75974
-7.77867
-7.78206
-7.755
-23.5501
-26.0913
-24.3236
-20.0753
-17.2584
-13.4725
-12.8121
-12.0216
-10.6981
-9.62146
-8.96917
-8.54384
-8.21831
-7.99389
-7.84188
-7.74212
-7.6789
-7.63466
-7.58771
-7.53292
-18.8709
-20.8362
-20.3401
-19.4642
-17.6451
-12.4974
-11.6286
-10.7734
-9.79514
-9.06549
-8.65191
-8.39657
-8.21189
-8.07382
-7.9781
-7.91007
-7.86103
-7.82382
-7.79217
-7.76318
-10.8148
-13.1161
-13.0777
-12.2268
-9.28795
-6.92464
-7.83866
-8.25757
-8.30766
-8.2732
-8.25284
-8.24004
-8.22268
-8.20034
-8.177
-8.15599
-8.13759
-8.1216
-8.10779
-8.09659
-7.96087
-10.4481
-9.50854
-8.49241
-7.13392
-6.83944
-7.14927
-7.62302
-7.94768
-8.13679
-8.25687
-8.34179
-8.39973
-8.43435
-8.4521
-8.46035
-8.46376
-8.46379
-8.46222
-8.46046
-9.86965
-9.78563
-9.31857
-8.85431
-8.29315
-8.12561
-8.15331
-8.27581
-8.40741
-8.51939
-8.60514
-8.67219
-8.7272
-8.7692
-8.79668
-8.81429
-8.82589
-8.83281
-8.8371
-8.83982
-9.57403
-9.52091
-9.38907
-9.21864
-9.04776
-8.95096
-8.92018
-8.93634
-8.97575
-9.02282
-9.06516
-9.10383
-9.13571
-9.16533
-9.18567
-9.19965
-9.21069
-9.21717
-9.22168
-9.22485
-9.55842
-9.65207
-9.65948
-9.61609
-9.56289
-9.53723
-9.52905
-9.53094
-9.53816
-9.55371
-9.56396
-9.57673
-9.58224
-9.59348
-9.60029
-9.60545
-9.60929
-9.61178
-9.61351
-9.61478
204.647
258.721
312.914
363.231
407.5
446.169
480.116
510.283
538.485
565.435
591.317
617.032
640.974
660.598
677.611
689.977
698.123
697.512
685.583
659.777
19.7954
32.6393
54.8767
85.099
119.432
156.082
195.451
233.128
265.419
295.095
324.446
349.86
369.93
386.671
401.681
414.007
422.577
422.608
409.561
383.085
13.8552
14.5072
15.5303
17.2812
19.4239
22.3839
27.9883
38.5496
57.5073
93.2272
133.318
163.722
186.285
203.99
216.542
222.699
221.432
210.843
189.351
158.645
-15.6249
-26.5338
-27.8189
-23.7349
-19.6876
-17.8198
-14.8965
-11.3409
-6.13669
9.69053
32.6436
52.3163
67.9954
79.6821
86.5875
87.9957
83.7574
73.9516
58.2442
37.9609
-57.0223
-71.9692
-87.9382
-92.2498
-87.2934
-87.9418
-93.5496
-92.5852
-78.4652
-56.1328
-33.8564
-14.7883
0.436374
11.1673
17.483
20.4589
22.8427
25.8486
36.813
38.3006
-21.1166
-32.1766
-30.9891
-21.8255
-6.47919
19.1208
34.9944
36.4002
28.3748
24.6154
29.7845
43.6502
58.8345
66.1352
58.2644
39.7536
19.8531
2.86631
-2.10266
-2.70111
107.783
126.225
67.5377
32.7498
11.6986
6.86544
5.47794
15.7217
50.4856
51.6341
24.8773
4.87173
-2.08302
-3.52325
-3.67522
-3.61721
-3.56173
-3.48954
-3.35672
-3.4269
-5.44083
-3.15507
-2.1702
-3.69212
-3.81465
-3.64699
-4.36569
-5.22719
-4.80449
-4.31964
-4.25069
-4.26251
-4.20415
-4.12864
-4.10138
-4.07142
-4.03792
-3.97307
-3.8969
-3.84682
-6.69398
-6.34756
-5.45064
-5.3661
-5.3808
-5.36888
-5.37833
-5.40066
-5.42854
-5.33373
-5.20921
-5.09956
-4.98481
-4.8695
-4.75765
-4.65632
-4.58437
-4.54331
-4.5324
-4.55346
-7.36382
-7.36811
-7.30206
-7.15694
-6.95614
-6.73316
-6.50862
-6.33548
-6.17178
-6.02241
-5.90097
-5.7978
-5.68963
-5.58104
-5.47897
-5.39648
-5.34256
-5.36791
-5.4891
-5.65734
-8.54217
-8.61067
-8.56029
-8.37413
-8.09368
-7.79623
-7.52991
-7.31466
-7.14184
-7.01127
-6.92192
-6.87056
-6.85581
-6.87083
-6.87538
-6.8299
-6.75056
-6.70703
-6.7233
-6.79777
-8.45547
-8.37731
-8.29121
-8.16571
-8.0152
-7.87702
-7.76843
-7.69176
-7.64717
-7.63871
-7.66935
-7.74538
-7.8762
-8.05755
-8.25766
-8.38813
-8.3472
-8.16953
-7.977
-7.78524
-7.69959
-7.65319
-7.60407
-7.558
-7.52372
-7.50587
-7.50424
-7.5193
-7.55311
-7.60872
-7.68989
-7.8019
-7.94988
-8.1311
-8.31906
-8.46663
-8.58191
-8.63611
-8.57606
-8.44316
-7.49899
-7.48056
-7.46546
-7.45578
-7.45236
-7.45565
-7.46604
-7.4843
-7.51115
-7.54703
-7.59213
-7.64739
-7.71449
-7.79475
-7.88587
-7.97714
-8.05674
-8.11025
-8.13389
-8.13641
-7.74641
-7.73786
-7.73101
-7.72612
-7.72321
-7.7225
-7.72437
-7.7292
-7.73732
-7.74889
-7.764
-7.7827
-7.80492
-7.83047
-7.85881
-7.88849
-7.91673
-7.94021
-7.95709
-7.96638
-8.09131
-8.0887
-8.08687
-8.08598
-8.0861
-8.08736
-8.08988
-8.09381
-8.09927
-8.10634
-8.11512
-8.12547
-8.13713
-8.14972
-8.16272
-8.17564
-8.18795
-8.199
-8.20818
-8.21491
-8.45996
-8.45997
-8.46039
-8.46128
-8.46269
-8.46465
-8.4672
-8.47035
-8.47407
-8.47833
-8.48306
-8.48814
-8.49342
-8.49871
-8.5038
-8.50842
-8.51235
-8.51535
-8.51729
-8.51791
-8.84142
-8.84249
-8.84355
-8.84467
-8.8459
-8.84728
-8.84883
-8.85055
-8.85242
-8.85441
-8.85648
-8.85857
-8.86063
-8.86258
-8.86438
-8.86595
-8.86721
-8.8681
-8.86846
-8.86831
-9.2267
-9.22789
-9.229
-9.23004
-9.23102
-9.23198
-9.23294
-9.23388
-9.23483
-9.23576
-9.23669
-9.23759
-9.23844
-9.23921
-9.23988
-9.24042
-9.24083
-9.24103
-9.24103
-9.2408
-9.61552
-9.6159
-9.61628
-9.61665
-9.617
-9.61733
-9.61763
-9.6179
-9.61815
-9.61837
-9.61855
-9.61871
-9.61883
-9.61893
-9.61902
-9.61911
-9.61922
-9.61936
-9.61954
-9.61976
608.076
475.57
263.312
88.9613
25.0133
8.47195
8.36398
11.4587
12.5972
10.2807
9.49422
5.43532
1.34894
-0.535703
-2.3156
-3.54508
-3.4767
0.0844904
14.5704
143.764
326.625
161.887
13.6595
0.251063
-0.21552
-0.271507
-0.472886
-0.596657
-0.779888
-0.920727
-0.855657
-0.80076
-0.970754
-1.57588
-2.54844
-3.2892
-3.4148
-3.01938
-1.07891
29.1651
101.152
13.8764
1.77246
-0.315693
-0.688577
-0.806661
-0.928244
-1.02838
-1.13431
-1.25247
-1.3624
-1.39448
-1.40089
-1.56212
-1.91871
-2.20951
-2.19105
-1.89271
-1.81539
1.96972
6.5708
-0.0401943
-1.33078
-1.01154
-1.192
-1.40506
-1.48787
-1.50572
-1.53732
-1.58741
-1.6203
-1.62452
-1.60778
-1.58002
-1.54124
-1.41884
-1.1881
-0.779656
-0.765828
0.557951
-1.59621
-2.86135
-2.48066
-2.09713
-1.98262
-2.00639
-2.05071
-2.07801
-2.10209
-2.12016
-2.11658
-2.079
-2.00224
-1.86134
-1.65132
-1.34806
-0.967438
-0.418998
0.00538865
0.423991
-2.85374
-3.2236
-3.00972
-2.7576
-2.63377
-2.61642
-2.6323
-2.65594
-2.69145
-2.73155
-2.752
-2.72116
-2.61612
-2.42699
-2.12182
-1.70782
-1.22631
-0.620669
0.487944
0.0409062
-3.36796
-3.35646
-3.28735
-3.22701
-3.20106
-3.18807
-3.20733
-3.30312
-3.46029
-3.63458
-3.779
-3.83912
-3.77698
-3.58598
-3.2785
-2.89371
-2.52289
-2.22083
-1.0035
-1.81358
-3.82649
-3.85075
-3.90081
-3.89032
-3.75058
-3.76528
-3.88409
-4.1156
-4.42454
-4.73547
-5.01993
-5.20251
-5.23807
-5.14013
-4.96671
-4.80461
-4.91081
-5.53517
-6.21438
-4.22804
-4.6305
-4.81429
-4.74282
-4.65354
-4.58696
-4.58437
-4.72539
-4.98473
-5.28012
-5.59003
-5.94587
-6.18036
-6.29737
-6.31376
-6.29993
-6.33543
-6.69519
-7.51278
-8.84866
-9.56419
-5.89999
-5.9731
-5.91363
-5.7664
-5.67339
-5.6292
-5.65195
-5.7423
-5.88729
-6.08698
-6.31266
-6.49651
-6.60221
-6.62647
-6.60801
-6.53754
-6.61358
-6.70631
-6.93279
-5.81349
-6.84575
-6.73811
-6.67356
-6.63947
-6.58066
-6.48869
-6.38388
-6.29712
-6.25479
-6.25756
-6.2849
-6.3046
-6.28477
-6.23057
-6.12366
-5.95711
-5.85157
-5.72328
-5.68959
-5.25831
-7.56451
-7.43864
-7.35273
-7.29064
-7.20769
-7.07345
-6.89636
-6.71017
-6.55239
-6.4254
-6.31728
-6.23187
-6.13694
-6.00671
-5.85166
-5.68066
-5.59949
-5.52909
-5.51848
-5.0065
-8.20657
-8.07025
-7.93801
-7.77338
-7.59837
-7.40873
-7.20714
-7.00636
-6.8407
-6.69879
-6.56205
-6.4463
-6.36236
-6.27889
-6.15041
-5.99043
-5.96243
-5.9363
-5.93497
-5.5438
-8.12189
-8.07056
-7.96984
-7.82618
-7.67785
-7.53761
-7.40159
-7.27035
-7.1519
-7.04677
-6.95075
-6.86813
-6.80361
-6.74482
-6.68694
-6.60591
-6.56325
-6.55124
-6.56142
-6.34645
-7.96937
-7.96644
-7.93489
-7.88162
-7.81563
-7.7439
-7.66995
-7.5956
-7.5221
-7.45039
-7.38123
-7.31267
-7.25694
-7.20769
-7.17248
-7.10687
-7.02902
-7.03844
-7.12984
-6.90094
-8.22153
-8.20871
-8.18599
-8.15362
-8.11402
-8.07009
-8.02363
-7.9749
-7.9239
-7.87161
-7.8179
-7.76448
-7.71481
-7.66602
-7.62189
-7.5658
-7.47638
-7.40111
-7.60009
-7.20454
-8.51675
-8.50949
-8.49671
-8.47887
-8.4566
-8.4307
-8.40187
-8.37027
-8.33625
-8.30013
-8.26206
-8.22438
-8.18853
-8.15349
-8.11694
-8.06982
-8.00674
-7.88221
-8.10126
-7.96331
-8.86717
-8.86291
-8.85577
-8.8459
-8.83346
-8.81872
-8.80186
-8.78306
-8.76268
-8.74044
-8.71644
-8.6919
-8.6686
-8.6448
-8.61658
-8.58747
-8.54056
-8.37856
-8.25149
-7.99504
-9.2401
-9.23801
-9.23477
-9.23047
-9.22518
-9.21899
-9.21198
-9.20435
-9.19631
-9.18761
-9.17869
-9.17033
-9.16526
-9.16173
-9.16101
-9.17553
-9.20835
-9.17122
-9.09146
-8.8963
-9.62019
-9.62101
-9.62217
-9.62367
-9.62549
-9.62761
-9.63001
-9.63283
-9.63599
-9.63969
-9.645
-9.653
-9.6673
-9.68723
-9.72718
-9.80294
-9.93507
-10.015
-10.0351
-9.84856
)
;

boundaryField
{
    leftWall
    {
        type            calculated;
        value           nonuniform List<scalar> 
40
(
2310.25
2211.32
2111.96
2012.06
1911.76
1811.28
1710.98
1611.34
1512.95
1416.33
1321.74
1228.98
1137.24
1045.14
949.949
845.873
729.27
605.545
490.099
390.28
193.993
103.841
74.1726
40.6177
117.21
295.9
274.011
122.274
64.1391
62.9206
92.4554
76.2423
2.009
-23.5501
-18.8709
-10.8148
-7.96087
-9.86965
-9.57403
-9.55842
)
;
    }
    rightWall
    {
        type            calculated;
        value           nonuniform List<scalar> 
40
(
2259.63
2159.58
2057.94
1954.45
1849.02
1741.63
1632.24
1520.96
1407.9
1292.97
1175.65
1054.89
929.235
798.564
667.208
544.489
442.68
378.655
349.845
300.306
143.764
29.1651
1.96972
0.557951
0.423991
0.0409062
-1.81358
-4.22804
-9.56419
-5.81349
-5.25831
-5.0065
-5.5438
-6.34645
-6.90094
-7.20454
-7.96331
-7.99504
-8.8963
-9.84856
)
;
    }
    lowerWall
    {
        type            calculated;
        value           nonuniform List<scalar> 
60
(
2359.3
2364.85
2363.32
2354.83
2340.23
2323.21
2307.8
2297.16
2293.55
2298.34
2312.14
2334.99
2366.71
2406.37
2453.11
2506.1
2564.45
2625.95
2683.79
2714.64
2706.42
2695.27
2697.92
2698.14
2696.98
2708.07
2692.02
2658.14
2627.89
2609.81
2609.5
2622.84
2631.12
2627.02
2614.05
2591.86
2568.17
2552.65
2544.93
2538.85
2520.96
2482.27
2438.75
2397.25
2359.12
2324.44
2293.75
2267.85
2248.24
2235.36
2229.96
2232.5
2242.94
2260.34
2282.31
2304.32
2320.01
2324.6
2319.85
2308.68
)
;
    }
    atmosphere
    {
        type            calculated;
        value           nonuniform List<scalar> 
60
(
-9.95622
-9.95826
-9.81013
-9.81296
-9.81087
-9.81
-9.81
-9.81
-9.81
-9.81
-9.81199
-9.83453
-9.81061
-9.81086
-9.81109
-9.81098
-9.81079
-9.81051
-9.81024
-9.81006
-9.81001
-9.81
-9.81
-9.81
-9.81
-9.81
-9.81
-9.81
-9.81
-9.81
-9.81
-9.81
-9.81
-9.81001
-9.81008
-9.81022
-9.81047
-9.81085
-9.81138
-9.81209
-9.81348
-9.81616
-9.81982
-9.82444
-9.82995
-9.83638
-9.84353
-9.85152
-9.85955
-9.8687
-9.8789
-9.89109
-9.90815
-9.92129
-9.96533
-10.0293
-10.0653
-9.81511
-10.669
-10.6573
)
;
    }
    defaultFaces
    {
        type            empty;
    }
}


// ************************************************************************* //
