/*--------------------------------*- C++ -*----------------------------------*\
| =========                 |                                                 |
| \\      /  F ield         | OpenFOAM: The Open Source CFD Toolbox           |
|  \\    /   O peration     | Version:  2.4.0                                 |
|   \\  /    A nd           | Web:      www.OpenFOAM.org                      |
|    \\/     M anipulation  |                                                 |
\*---------------------------------------------------------------------------*/
FoamFile
{
    version     2.0;
    format      ascii;
    class       surfaceScalarField;
    location    "0.178";
    object      phi;
}
// * * * * * * * * * * * * * * * * * * * * * * * * * * * * * * * * * * * * * //

dimensions      [0 3 -1 0 0 0 0];

internalField   nonuniform List<scalar> 
7080
(
3.05189e-08
-3.05189e-08
6.49176e-08
-3.43987e-08
8.94625e-08
-2.45449e-08
9.84034e-08
-8.94092e-09
9.5046e-08
3.35743e-09
7.34285e-08
2.16175e-08
4.72015e-08
2.6227e-08
2.27287e-08
2.44727e-08
2.74463e-09
1.99841e-08
-8.92906e-09
1.16737e-08
-1.34922e-08
4.5632e-09
-2.6086e-08
1.25938e-08
-3.30546e-08
6.96852e-09
-4.20803e-08
9.02577e-09
-4.60967e-08
4.01637e-09
-2.82468e-08
-1.78498e-08
3.82603e-09
-3.20729e-08
1.8359e-08
-1.4533e-08
1.06096e-08
7.74944e-09
-3.61928e-08
4.68023e-08
-1.43479e-07
1.07286e-07
-2.05252e-07
6.17728e-08
-1.8976e-07
-1.54919e-08
-1.75019e-07
-1.47406e-08
-1.65092e-07
-9.9276e-09
-1.37505e-07
-2.75872e-08
-9.71552e-08
-4.03494e-08
-6.08575e-08
-3.62977e-08
-3.25454e-08
-2.83122e-08
-2.70261e-08
-5.51927e-09
2.69058e-08
-5.74246e-08
7.28138e-08
-8.03068e-08
1.14611e-07
-6.63425e-08
1.3782e-07
-3.21495e-08
1.47294e-07
-6.11675e-09
1.35682e-07
3.32292e-08
1.13144e-07
4.87657e-08
9.05661e-08
4.70504e-08
6.5552e-08
4.49982e-08
4.90109e-08
2.82148e-08
3.98738e-08
1.37003e-08
1.72747e-08
3.51929e-08
8.38533e-09
1.58579e-08
-2.35636e-08
4.09747e-08
-3.60935e-08
1.65462e-08
-3.6545e-08
-1.73982e-08
-3.50391e-08
-3.35789e-08
-2.45773e-08
-2.49947e-08
-6.50872e-08
4.82593e-08
-1.75284e-07
1.56999e-07
-2.92213e-07
2.24215e-07
-3.18658e-07
8.82175e-08
-2.85625e-07
-4.85243e-08
-2.54169e-07
-4.61974e-08
-2.10723e-07
-5.33728e-08
-1.59273e-07
-7.90377e-08
-1.10139e-07
-8.94834e-08
-7.26909e-08
-7.37458e-08
-3.49045e-08
-6.60986e-08
-5.96117e-08
-2.31891e-09
2.13842e-08
-7.88088e-08
6.74078e-08
-1.2633e-07
1.11992e-07
-1.10927e-07
1.38175e-07
-5.83327e-08
1.51364e-07
-1.93055e-08
1.4453e-07
4.00627e-08
1.25988e-07
6.73079e-08
1.09739e-07
6.32993e-08
8.61807e-08
6.85567e-08
7.49516e-08
3.94439e-08
6.83614e-08
2.02904e-08
4.76307e-08
5.59236e-08
5.01119e-08
1.33767e-08
1.65441e-08
7.45425e-08
3.94839e-09
2.91419e-08
-6.33087e-09
-7.11893e-09
-4.29253e-08
3.01552e-09
-6.91465e-08
1.2265e-09
-1.34513e-07
1.13626e-07
-2.46077e-07
2.68563e-07
-3.18949e-07
2.97087e-07
-3.09138e-07
7.84071e-08
-2.75258e-07
-8.2405e-08
-2.39084e-07
-8.23715e-08
-1.88028e-07
-1.04428e-07
-1.31452e-07
-1.35614e-07
-8.65116e-08
-1.34424e-07
-6.38755e-08
-9.63819e-08
-3.45537e-08
-9.54204e-08
-8.92705e-08
-4.89497e-09
1.94148e-08
-9.82237e-08
6.53345e-08
-1.7225e-07
1.10327e-07
-1.55919e-07
1.36941e-07
-8.49464e-08
1.50742e-07
-3.31067e-08
1.44587e-07
4.62177e-08
1.26745e-07
8.51495e-08
1.12874e-07
7.71703e-08
8.88359e-08
9.25949e-08
8.22529e-08
4.60269e-08
7.30165e-08
2.95268e-08
6.01397e-08
6.88005e-08
7.77497e-08
-4.23326e-09
4.77194e-08
1.04573e-07
3.42418e-08
4.26195e-08
1.82605e-08
8.86248e-09
-4.7512e-08
6.8788e-08
-1.07147e-07
6.0861e-08
-1.77601e-07
1.84081e-07
-2.44712e-07
3.35673e-07
-2.6984e-07
3.22215e-07
-2.52726e-07
6.12927e-08
-2.40571e-07
-9.45595e-08
-2.08959e-07
-1.13984e-07
-1.6999e-07
-1.43397e-07
-1.26894e-07
-1.78711e-07
-8.89391e-08
-1.72378e-07
-4.98781e-08
-1.35443e-07
-2.97305e-08
-1.15568e-07
-1.08356e-07
-1.06454e-08
1.87888e-08
-1.17012e-07
6.48995e-08
-2.18361e-07
1.10214e-07
-2.01233e-07
1.37102e-07
-1.11835e-07
1.51111e-07
-4.7115e-08
1.44699e-07
5.26292e-08
1.26641e-07
1.03208e-07
1.13286e-07
9.05246e-08
8.77354e-08
1.18146e-07
8.42054e-08
4.95569e-08
6.62243e-08
4.75079e-08
6.51367e-08
6.98881e-08
9.46959e-08
-3.37925e-08
6.78683e-08
1.314e-07
6.1073e-08
4.94147e-08
4.50353e-08
2.49001e-08
-3.68059e-08
1.50629e-07
-1.19227e-07
1.43283e-07
-1.79134e-07
2.43987e-07
-1.90081e-07
3.46621e-07
-1.77768e-07
3.09902e-07
-1.55308e-07
3.88328e-08
-1.3396e-07
-1.15908e-07
-9.88984e-08
-1.49045e-07
-7.1487e-08
-1.70809e-07
-5.38707e-08
-1.96327e-07
-4.37473e-08
-1.82502e-07
-2.24755e-08
-1.56715e-07
-1.67516e-08
-1.21292e-07
-1.09916e-07
-1.51916e-08
1.84337e-08
-1.35446e-07
6.47915e-08
-2.64719e-07
1.10505e-07
-2.46946e-07
1.37754e-07
-1.39085e-07
1.52005e-07
-6.13659e-08
1.45183e-07
5.94511e-08
1.2685e-07
1.21542e-07
1.13427e-07
1.03947e-07
8.67553e-08
1.44818e-07
8.46577e-08
5.16544e-08
5.78055e-08
7.43601e-08
6.6603e-08
6.10907e-08
9.39899e-08
-6.11794e-08
7.67293e-08
1.48661e-07
8.65616e-08
3.95824e-08
7.49296e-08
3.65321e-08
5.21778e-10
2.25037e-07
-8.3864e-08
2.27668e-07
-1.26751e-07
2.86875e-07
-1.19399e-07
3.39268e-07
-9.41848e-08
2.84688e-07
-6.90481e-08
1.36961e-08
-2.33393e-08
-1.61617e-07
2.20414e-08
-1.94426e-07
4.87664e-08
-1.97533e-07
3.97971e-08
-1.87358e-07
1.41538e-08
-1.56858e-07
-2.90745e-09
-1.39653e-07
-9.08798e-09
-1.15112e-07
-1.01072e-07
-1.79316e-08
1.807e-08
-1.53516e-07
6.47045e-08
-3.11353e-07
1.10898e-07
-2.9314e-07
1.38596e-07
-1.66782e-07
1.5315e-07
-7.59205e-08
1.45824e-07
6.67777e-08
1.27272e-07
1.40094e-07
1.1348e-07
1.17739e-07
8.6598e-08
1.717e-07
8.49224e-08
5.333e-08
5.50059e-08
1.04277e-07
6.50748e-08
5.10218e-08
6.57664e-08
-6.1871e-08
6.69164e-08
1.47511e-07
1.02553e-07
3.94594e-09
9.07023e-08
4.83827e-08
3.73462e-08
2.78393e-07
-3.80227e-08
3.03037e-07
-7.80663e-08
3.26918e-07
-5.38535e-08
3.15055e-07
-9.88199e-09
2.40717e-07
3.04633e-08
-2.66491e-08
6.34786e-08
-1.94632e-07
1.01509e-07
-2.32456e-07
1.16207e-07
-2.12231e-07
1.00639e-07
-1.7179e-07
7.28142e-08
-1.29033e-07
3.24483e-08
-9.92875e-08
3.97582e-09
-8.66391e-08
-8.0927e-08
-1.61693e-08
1.76389e-08
-1.71155e-07
6.45902e-08
-3.58304e-07
1.1135e-07
-3.399e-07
1.39586e-07
-1.95018e-07
1.54504e-07
-9.08388e-08
1.4657e-07
7.47124e-08
1.27831e-07
1.58832e-07
1.13372e-07
1.32198e-07
8.73605e-08
1.97711e-07
8.54775e-08
5.5213e-08
5.95105e-08
1.30244e-07
6.44191e-08
4.61132e-08
2.96405e-08
-2.70925e-08
4.07189e-08
1.36433e-07
8.88057e-08
-4.41409e-08
7.41844e-08
6.3004e-08
5.10272e-08
3.0155e-07
1.5785e-08
3.38279e-07
-1.09922e-09
3.43802e-07
2.28619e-08
2.91094e-07
8.86206e-08
1.74958e-07
1.25856e-07
-6.38844e-08
1.37035e-07
-2.05811e-07
1.4635e-07
-2.41771e-07
1.3724e-07
-2.03121e-07
1.18017e-07
-1.52568e-07
9.35487e-08
-1.04565e-07
5.93024e-08
-6.50412e-08
2.27944e-08
-5.01311e-08
-5.27012e-08
-5.4314e-09
1.71269e-08
-1.88282e-07
6.44402e-08
-4.05618e-07
1.1185e-07
-3.8731e-07
1.40726e-07
-2.23894e-07
1.56066e-07
-1.06178e-07
1.47428e-07
8.33504e-08
1.28465e-07
1.77795e-07
1.13068e-07
1.47594e-07
8.89615e-08
2.21818e-07
8.48446e-08
5.93299e-08
6.91803e-08
1.45908e-07
7.14641e-08
4.38293e-08
1.8159e-08
2.62126e-08
1.7822e-08
1.3677e-07
4.75698e-08
-7.38887e-08
5.06348e-08
5.9939e-08
5.75542e-08
2.94631e-07
6.41989e-08
3.31635e-07
9.96374e-08
3.08364e-07
1.33169e-07
2.57562e-07
1.82009e-07
1.26118e-07
1.96117e-07
-7.79928e-08
1.81716e-07
-1.9141e-07
1.6328e-07
-2.23335e-07
1.41256e-07
-1.81097e-07
1.15932e-07
-1.27244e-07
9.07158e-08
-7.93488e-08
5.97183e-08
-3.40438e-08
2.87897e-08
-1.92025e-08
-2.60306e-08
2.11902e-09
1.65283e-08
-2.0481e-07
6.42498e-08
-4.53339e-07
1.12388e-07
-4.35448e-07
1.42021e-07
-2.53527e-07
1.57839e-07
-1.21996e-07
1.48416e-07
9.2774e-08
1.29073e-07
1.97137e-07
1.12813e-07
1.63855e-07
9.0351e-08
2.4428e-07
8.14878e-08
6.8193e-08
7.87353e-08
1.48661e-07
8.0141e-08
4.24236e-08
2.44035e-08
8.19501e-08
1.46178e-08
1.46555e-07
2.77096e-08
-8.69805e-08
5.12326e-08
3.6416e-08
7.68241e-08
2.69039e-07
8.85464e-08
3.19912e-07
1.47245e-07
2.49665e-07
1.93768e-07
2.11039e-07
2.2438e-07
9.55067e-08
2.14178e-07
-6.77911e-08
1.84859e-07
-1.62091e-07
1.53541e-07
-1.92017e-07
1.26298e-07
-1.53854e-07
9.7765e-08
-9.87106e-08
7.05034e-08
-5.20872e-08
4.50961e-08
-8.63644e-09
2.15516e-08
4.34197e-09
-7.28917e-09
2.81019e-09
1.58386e-08
-2.20649e-07
6.40147e-08
-5.01515e-07
1.12941e-07
-4.84375e-07
1.43479e-07
-2.84065e-07
1.59836e-07
-1.38353e-07
1.49529e-07
1.03081e-07
1.29637e-07
2.17029e-07
1.12866e-07
1.80626e-07
9.05796e-08
2.66566e-07
7.68229e-08
8.19497e-08
8.49661e-08
1.40517e-07
7.97348e-08
4.7655e-08
3.42032e-08
1.27482e-07
2.91868e-08
1.51572e-07
3.46947e-08
-9.24884e-08
5.63923e-08
1.47184e-08
8.55538e-08
2.39878e-07
9.73542e-08
3.08112e-07
1.36892e-07
2.10127e-07
1.76439e-07
1.71492e-07
1.92298e-07
7.96484e-08
1.75092e-07
-5.0585e-08
1.64904e-07
-1.51904e-07
1.39555e-07
-1.66667e-07
1.14531e-07
-1.28831e-07
8.43624e-08
-6.85417e-08
5.28261e-08
-2.0551e-08
3.09021e-08
1.32876e-08
1.63912e-08
1.88528e-08
3.61113e-09
5.49092e-09
1.50528e-08
-2.35702e-07
6.37296e-08
-5.50192e-07
1.1348e-07
-5.34125e-07
1.45104e-07
-3.15689e-07
1.62066e-07
-1.55315e-07
1.50753e-07
1.14395e-07
1.30219e-07
2.37562e-07
1.13263e-07
1.97582e-07
8.95371e-08
2.90292e-07
7.41698e-08
9.7317e-08
8.77604e-08
1.26927e-07
7.14524e-08
6.3963e-08
4.24047e-08
1.56529e-07
4.83271e-08
1.4565e-07
5.52773e-08
-9.94386e-08
6.23244e-08
7.67127e-09
7.74112e-08
2.24791e-07
1.01697e-07
2.83826e-07
1.20764e-07
1.9106e-07
1.49332e-07
1.42924e-07
1.63569e-07
6.54114e-08
1.68128e-07
-5.51441e-08
1.71143e-07
-1.54919e-07
1.44394e-07
-1.39918e-07
1.12878e-07
-9.73154e-08
7.37955e-08
-2.94589e-08
3.86825e-08
1.45619e-08
2.54576e-08
2.65125e-08
1.51114e-08
2.91989e-08
9.45232e-09
9.27023e-09
1.41651e-08
-2.49867e-07
6.33875e-08
-5.99415e-07
1.14039e-07
-5.84777e-07
1.46904e-07
-3.48555e-07
1.64538e-07
-1.72949e-07
1.52082e-07
1.26851e-07
1.30902e-07
2.58742e-07
1.13733e-07
2.14752e-07
8.82252e-08
3.158e-07
7.27232e-08
1.12819e-07
8.98318e-08
1.09818e-07
6.60017e-08
8.77931e-08
5.07035e-08
1.71828e-07
6.46158e-08
1.31737e-07
7.06934e-08
-1.05516e-07
6.93173e-08
9.04732e-09
6.07349e-08
2.33373e-07
9.45908e-08
2.4997e-07
1.21524e-07
1.64127e-07
1.41454e-07
1.22994e-07
1.6081e-07
4.60557e-08
1.67747e-07
-6.20819e-08
1.51375e-07
-1.38547e-07
1.23473e-07
-1.12015e-07
9.42386e-08
-6.80815e-08
7.15901e-08
-6.81043e-09
5.02387e-08
3.59133e-08
2.84407e-08
4.83105e-08
1.40218e-08
4.36178e-08
6.53034e-09
1.69437e-08
1.31686e-08
-2.63035e-07
6.29811e-08
-6.49227e-07
1.14671e-07
-6.36466e-07
1.48885e-07
-3.82768e-07
1.67264e-07
-1.91328e-07
1.53524e-07
1.40591e-07
1.31662e-07
2.80604e-07
1.14318e-07
2.32096e-07
8.67715e-08
3.43346e-07
7.09698e-08
1.28621e-07
9.16953e-08
8.90926e-08
6.52265e-08
1.14262e-07
4.94913e-08
1.87563e-07
6.90945e-08
1.12134e-07
6.55956e-08
-1.02017e-07
7.77679e-08
-3.125e-09
7.44089e-08
2.36732e-07
9.2144e-08
2.32235e-07
1.16777e-07
1.39494e-07
1.36319e-07
1.03452e-07
1.52928e-07
2.9446e-08
1.43165e-07
-5.23182e-08
1.16683e-07
-1.12065e-07
9.94226e-08
-9.4755e-08
8.50414e-08
-5.37003e-08
6.91079e-08
9.12313e-09
4.118e-08
6.38411e-08
4.48606e-09
8.50045e-08
6.10308e-09
4.20007e-08
-8.8553e-09
2.14887e-08
1.20552e-08
-2.7509e-07
6.25022e-08
-6.99674e-07
1.154e-07
-6.89364e-07
1.51054e-07
-4.18423e-07
1.7026e-07
-2.10534e-07
1.55061e-07
1.5579e-07
1.32508e-07
3.03157e-07
1.15149e-07
2.49455e-07
8.53056e-08
3.73189e-07
6.69647e-08
1.46962e-07
9.40394e-08
6.20179e-08
7.41829e-08
1.34118e-07
6.1924e-08
1.99822e-07
7.57841e-08
9.82739e-08
6.55885e-08
-9.18217e-08
9.35444e-08
-3.10809e-08
8.74292e-08
2.42847e-07
8.47702e-08
2.34894e-07
1.09742e-07
1.14523e-07
1.22188e-07
9.10062e-08
1.20025e-07
3.16087e-08
1.09862e-07
-4.21549e-08
8.25118e-08
-8.4715e-08
3.81906e-08
-5.04338e-08
-3.23956e-09
-1.22702e-08
-2.04956e-08
2.63792e-08
-3.45649e-08
7.79103e-08
-3.12384e-08
8.16779e-08
-5.65836e-09
1.64207e-08
-1.87229e-08
4.20927e-09
1.08147e-08
-2.85905e-07
6.19423e-08
-7.50802e-07
1.16222e-07
-7.43644e-07
1.53424e-07
-4.55625e-07
1.73538e-07
-2.30648e-07
1.56667e-07
1.72661e-07
1.33432e-07
3.26392e-07
1.16724e-07
2.66163e-07
8.2802e-08
4.07111e-07
6.23401e-08
1.67424e-07
9.86732e-08
2.56848e-08
7.71545e-08
1.55637e-07
1.87558e-08
2.5822e-07
3.50513e-08
8.19784e-08
6.85563e-08
-1.25327e-07
1.15578e-07
-7.81028e-08
1.20822e-07
2.37603e-07
1.12986e-07
2.4273e-07
1.18989e-07
1.08521e-07
1.01629e-07
1.08366e-07
1.13891e-07
1.93465e-08
1.25958e-07
-5.42216e-08
9.85401e-08
-5.72971e-08
5.75999e-08
-9.49364e-09
9.94049e-09
3.53892e-08
-2.39701e-08
6.02898e-08
-3.41812e-08
8.81214e-08
-2.83326e-08
7.58294e-08
-2.80958e-08
1.61839e-08
-1.08908e-08
-3.5928e-08
9.4349e-09
-2.9534e-07
6.12914e-08
-8.02658e-07
1.17123e-07
-7.99476e-07
1.5601e-07
-4.94511e-07
1.7709e-07
-2.51728e-07
1.58287e-07
1.91464e-07
1.34631e-07
3.50048e-07
1.18844e-07
2.81951e-07
7.88383e-08
4.47117e-07
6.08954e-08
1.85366e-07
1.05922e-07
-1.93415e-08
8.75696e-08
1.73989e-07
5.24552e-08
2.93335e-07
6.15805e-08
7.28531e-08
8.41256e-08
-1.47872e-07
1.36667e-07
-1.30645e-07
1.58057e-07
2.16214e-07
1.36084e-07
2.64703e-07
8.96025e-08
1.55002e-07
7.86181e-08
1.1935e-07
1.11497e-07
-1.35327e-08
9.81751e-08
-4.08993e-08
5.7701e-08
-1.68231e-08
4.70178e-08
1.18961e-09
4.22947e-08
4.01123e-08
1.93773e-08
8.32072e-08
1.07217e-08
9.6777e-08
1.14682e-08
7.50828e-08
-6.02426e-09
3.36763e-08
1.67192e-08
-3.36342e-08
7.90076e-09
-3.03241e-07
6.05352e-08
-8.55293e-07
1.18087e-07
-8.57028e-07
1.58828e-07
-5.35251e-07
1.8084e-07
-2.7374e-07
1.59964e-07
2.1234e-07
1.36051e-07
3.73961e-07
1.22588e-07
2.95414e-07
7.15561e-08
4.98149e-07
5.58496e-08
2.01073e-07
1.13899e-07
-7.7391e-08
7.74546e-08
2.10434e-07
1.01574e-08
3.60632e-07
1.9454e-08
6.35565e-08
6.535e-08
-1.93768e-07
1.24119e-07
-1.89414e-07
1.1349e-07
2.26843e-07
9.82037e-08
2.79989e-07
8.46175e-08
1.68588e-07
7.67919e-08
1.27176e-07
6.53999e-08
-2.14069e-09
-2.10883e-10
2.47115e-08
-3.28977e-08
1.58637e-08
-1.0989e-08
-2.07191e-08
2.57603e-08
3.36294e-09
4.12324e-08
6.77351e-08
5.26175e-08
8.53919e-08
5.87676e-08
6.89326e-08
4.19607e-08
5.04833e-08
4.82262e-08
1.04536e-08
6.19409e-09
-3.09435e-07
5.96409e-08
-9.0874e-07
1.19085e-07
-9.16472e-07
1.61838e-07
-5.78005e-07
1.84617e-07
-2.96519e-07
1.61582e-07
2.35375e-07
1.38702e-07
3.9684e-07
1.20284e-07
3.13832e-07
7.637e-08
5.42063e-07
5.87876e-08
2.18655e-07
1.14685e-07
-1.33288e-07
7.10859e-08
2.54033e-07
-2.19647e-08
4.53683e-07
5.64271e-09
3.59491e-08
6.8688e-08
-2.56813e-07
1.22049e-07
-2.42775e-07
9.21424e-08
2.56749e-07
7.69687e-08
2.95163e-07
9.31817e-08
1.52375e-07
6.19689e-08
1.58388e-07
-1.37733e-08
7.36016e-08
-8.47614e-08
9.56995e-08
-9.4029e-08
2.51314e-08
-7.09103e-08
-4.38378e-08
-3.43045e-08
-3.32429e-08
2.03573e-09
3.13949e-08
2.70573e-08
6.03703e-08
4.59495e-08
5.00405e-08
4.14587e-08
5.4974e-08
6.69155e-08
2.27694e-08
4.30175e-09
-3.13736e-07
5.85094e-08
-9.62947e-07
1.20012e-07
-9.77975e-07
1.64768e-07
-6.2276e-07
1.87884e-07
-3.19634e-07
1.63448e-07
2.59811e-07
1.39225e-07
4.21063e-07
1.32494e-07
3.20563e-07
5.04841e-08
6.24073e-07
1.93391e-08
2.498e-07
1.19081e-07
-2.33031e-07
6.01948e-08
3.12919e-07
-1.31083e-08
5.26986e-07
2.53999e-08
-2.55912e-09
5.02382e-08
-2.81651e-07
1.03898e-07
-2.96435e-07
7.21448e-08
2.88503e-07
5.5642e-08
3.11666e-07
4.23169e-08
1.65701e-07
4.11826e-08
1.59523e-07
9.23774e-09
1.05546e-07
-9.07135e-08
1.95651e-07
-1.20528e-07
5.4946e-08
-1.16709e-07
-4.76565e-08
-9.19425e-08
-5.80098e-08
-5.87237e-08
-1.82394e-09
-3.09313e-08
3.25778e-08
-4.18356e-09
2.32928e-08
9.25139e-09
4.1539e-08
6.70107e-08
9.15618e-09
2.23622e-09
-3.15973e-07
5.68098e-08
-1.01752e-06
1.20437e-07
-1.0416e-06
1.66619e-07
-6.68943e-07
1.89122e-07
-3.42137e-07
1.61891e-07
2.87042e-07
1.41233e-07
4.41721e-07
1.08718e-07
3.53078e-07
7.07524e-08
6.62038e-07
3.84114e-08
2.82141e-07
1.19579e-07
-3.14198e-07
8.2108e-08
3.5039e-07
-1.94411e-09
6.11038e-07
5.22757e-08
-5.6779e-08
5.80579e-08
-2.87434e-07
9.27487e-08
-3.31125e-07
1.15251e-07
2.66e-07
8.59049e-08
3.41012e-07
4.97093e-09
2.46634e-07
-1.52304e-08
1.79724e-07
3.71949e-08
5.31211e-08
-1.95494e-09
2.34801e-07
-3.96979e-08
9.2689e-08
-6.06764e-08
-2.6678e-08
-7.65534e-08
-4.21328e-08
-6.80339e-08
-1.03434e-08
-4.96816e-08
1.42255e-08
-3.60174e-08
9.62864e-09
-2.06053e-08
2.61269e-08
4.85567e-08
-2.15134e-09
3.36107e-10
-3.16309e-07
5.35642e-08
-1.07075e-06
1.1881e-07
-1.10685e-06
1.64551e-07
-7.14683e-07
1.82424e-07
-3.60011e-07
1.50364e-07
3.19102e-07
1.17861e-07
4.74224e-07
1.42498e-07
3.28441e-07
9.02197e-08
7.14317e-07
5.28367e-08
3.19524e-07
1.6933e-07
-4.30692e-07
1.28923e-07
3.90798e-07
8.74916e-09
7.31211e-07
8.37114e-08
-1.31741e-07
1.24481e-07
-3.28203e-07
9.6218e-08
-3.02862e-07
1.21421e-07
2.40797e-07
8.72955e-08
3.75138e-07
5.78548e-08
2.76075e-07
5.25327e-09
2.32325e-07
4.48054e-08
1.3569e-08
7.46924e-08
2.04914e-07
3.10468e-08
1.36335e-07
7.4817e-09
-3.1129e-09
-1.55274e-08
-1.91237e-08
-2.37467e-08
-2.12404e-09
-2.16376e-08
1.21163e-08
-2.45566e-08
1.25477e-08
-2.142e-08
2.29902e-08
3.38093e-08
-6.67261e-09
-1.12811e-09
-3.15181e-07
4.63669e-08
-1.11824e-06
1.10797e-07
-1.17128e-06
1.52013e-07
-7.55899e-07
1.55528e-07
-3.63526e-07
1.04664e-07
3.69966e-07
6.06421e-08
5.18246e-07
3.54227e-08
3.5366e-07
-2.16087e-08
7.71348e-07
-4.60128e-08
3.43928e-07
-7.25985e-08
-4.04106e-07
-8.24633e-08
4.00662e-07
-8.5236e-08
7.33984e-07
4.4873e-08
-2.6185e-07
1.67391e-07
-4.50721e-07
1.03878e-07
-2.3935e-07
6.39188e-08
2.80756e-07
3.78601e-08
4.01197e-07
7.55368e-08
2.38398e-07
4.29637e-08
2.64898e-07
3.61911e-08
2.03416e-08
8.98119e-08
1.51293e-07
6.63258e-08
1.59821e-07
3.22363e-08
3.09766e-08
8.1076e-09
5.00496e-09
8.09358e-09
-2.11003e-09
7.73727e-09
1.24727e-08
4.55354e-10
1.98296e-08
-9.61174e-09
3.30573e-08
3.87434e-08
-1.45459e-08
3.43921e-09
-3.1862e-07
3.07283e-08
-1.14553e-06
8.76847e-08
-1.22823e-06
1.21188e-07
-7.89403e-07
1.02844e-07
-3.45182e-07
5.3344e-08
4.19466e-07
2.7627e-08
5.43963e-07
3.29893e-08
3.48298e-07
2.09455e-08
7.83392e-07
-8.44214e-08
4.49295e-07
-1.42816e-07
-3.45712e-07
-7.39575e-08
3.31804e-07
-1.78753e-07
8.3878e-07
-7.63523e-08
-3.64251e-07
1.1072e-07
-6.37793e-07
2.83612e-08
-1.56991e-07
-8.91916e-08
3.98309e-07
-9.55919e-08
4.07597e-07
2.66155e-08
1.16191e-07
6.97225e-08
2.21792e-07
4.09625e-08
4.91015e-08
7.99721e-08
1.12283e-07
7.04298e-08
1.69363e-07
2.12663e-08
8.01401e-08
1.83528e-09
2.4436e-08
5.93637e-09
-6.21114e-09
2.77148e-09
1.56375e-08
-1.81994e-09
2.44211e-08
-1.23693e-08
4.36067e-08
5.06089e-08
-2.42348e-08
-8.43568e-09
-3.10184e-07
1.58701e-09
-1.15556e-06
4.11618e-08
-1.26781e-06
8.27554e-08
-8.30996e-07
6.66511e-08
-3.29077e-07
-5.00797e-08
5.36197e-07
-2.3338e-07
7.27263e-07
-6.79117e-08
1.8283e-07
1.56066e-08
6.99874e-07
-1.53233e-07
6.18135e-07
-1.97744e-07
-3.012e-07
-1.5752e-07
2.9158e-07
-2.53614e-07
9.34873e-07
-1.72569e-07
-4.45295e-07
-3.31435e-08
-7.77219e-07
-6.76265e-08
-1.22508e-07
-1.68025e-07
4.98708e-07
-1.14828e-07
3.544e-07
4.85341e-08
-4.71708e-08
9.7349e-08
1.72977e-07
3.41742e-08
1.12276e-07
2.62948e-08
1.20163e-07
2.68711e-08
1.68787e-07
-1.22153e-08
1.19227e-07
-2.007e-08
3.22907e-08
-2.02367e-08
-6.04448e-09
-2.17846e-08
1.71854e-08
-1.58698e-08
1.85063e-08
-1.46861e-08
4.2423e-08
5.23879e-08
-1.64651e-08
2.31504e-08
-3.33335e-07
-3.73998e-08
-1.09501e-06
-1.60818e-08
-1.28913e-06
8.51445e-08
-9.32223e-07
6.52902e-08
-3.09223e-07
-1.87511e-07
7.88998e-07
-4.83139e-07
1.02289e-06
-2.65732e-07
-3.45766e-08
-6.89135e-08
5.03055e-07
-1.56602e-07
7.05823e-07
-3.0769e-07
-1.50112e-07
-2.99939e-07
2.83829e-07
-2.2231e-07
8.57244e-07
-1.73928e-07
-4.93677e-07
-1.51731e-07
-7.99416e-07
-1.29979e-07
-1.4426e-07
-1.0114e-07
4.69868e-07
-4.04582e-08
2.93718e-07
-1.57589e-09
-8.60531e-08
-3.37978e-08
2.05199e-07
-7.98173e-08
1.58296e-07
-1.28636e-08
5.32091e-08
2.12791e-08
1.34644e-07
-2.38773e-08
1.64383e-07
-3.74402e-08
4.58536e-08
-3.58239e-08
-7.66073e-09
-2.79793e-08
9.34076e-09
-2.15939e-08
1.21208e-08
-1.27773e-08
3.36064e-08
4.24904e-08
-2.87994e-09
-4.17435e-08
-2.91591e-07
-6.50691e-08
-1.07168e-06
-2.42162e-08
-1.32998e-06
-1.30656e-07
-8.25783e-07
-6.49202e-07
2.09324e-07
-6.29934e-07
7.6973e-07
-4.35544e-07
8.28501e-07
-4.20264e-07
-4.98568e-08
-1.95644e-07
2.78436e-07
-1.26014e-07
6.36193e-07
-3.9171e-07
1.15584e-07
-2.95732e-07
1.87851e-07
-8.73952e-08
6.48908e-07
-1.66809e-07
-4.14263e-07
-2.90659e-07
-6.75566e-07
-2.64169e-07
-1.7075e-07
-1.16442e-07
3.22141e-07
-9.70369e-08
2.74313e-07
-1.44353e-07
-3.87371e-08
-1.18666e-07
1.79511e-07
-8.35473e-08
1.23177e-07
-1.21739e-08
-1.81643e-08
4.16947e-08
8.07752e-08
1.64169e-08
1.89661e-07
-5.64177e-09
6.79123e-08
-1.90782e-08
5.77567e-09
-2.22272e-08
1.24897e-08
-2.38528e-08
1.37464e-08
-1.44389e-08
2.41926e-08
2.95288e-08
-1.47727e-09
-2.3808e-08
-2.67783e-07
-1.85697e-09
-1.09363e-06
-1.7919e-07
-1.15265e-06
-1.2631e-06
2.58132e-07
-1.69921e-06
6.45427e-07
-7.55041e-07
-1.74436e-07
-6.03067e-07
6.76527e-07
-6.15519e-07
-3.74048e-08
-3.6077e-07
2.36871e-08
-1.90459e-07
4.65882e-07
-4.22277e-07
3.47402e-07
-2.22539e-07
-1.18875e-08
2.89042e-08
3.97465e-07
-1.67176e-07
-2.18183e-07
-3.66924e-07
-4.75818e-07
-3.53852e-07
-1.83822e-07
-1.54471e-07
1.2276e-07
-1.33461e-07
2.53303e-07
-1.62474e-07
-9.72376e-09
-9.44362e-08
1.11473e-07
-3.65163e-08
6.52575e-08
-5.32585e-08
-1.42219e-09
-1.76344e-08
4.51511e-08
5.39035e-08
1.18123e-07
6.36804e-08
5.81354e-08
2.65812e-08
4.28748e-08
-6.41412e-09
4.5485e-08
-2.19649e-08
2.92971e-08
-2.06951e-08
2.29227e-08
1.62332e-08
-7.39948e-09
-1.40997e-07
-1.26786e-07
3.24974e-07
-1.5596e-06
1.17052e-06
-1.99819e-06
2.25137e-08
1.40614e-06
-7.90457e-07
1.4584e-06
-7.31703e-07
-2.33186e-07
-7.66986e-07
7.11809e-07
-7.35483e-07
-6.8908e-08
-5.45901e-07
-1.65895e-07
-3.05707e-07
2.25688e-07
-3.84784e-07
4.26478e-07
-2.78737e-07
-1.17935e-07
-3.50142e-08
1.53742e-07
-1.34847e-07
-1.1835e-07
-3.35679e-07
-2.74986e-07
-3.96587e-07
-1.22914e-07
-2.0604e-07
-6.77871e-08
-1.01722e-07
1.48985e-07
-1.1384e-07
2.39435e-09
-2.61342e-08
2.37673e-08
5.8829e-08
-1.97057e-08
2.05682e-08
3.68386e-08
-1.19228e-10
6.58385e-08
6.50713e-08
5.29321e-08
7.04592e-08
5.27476e-08
4.86593e-08
6.46748e-08
3.80098e-08
5.61346e-08
1.68935e-08
5.04135e-08
-3.15105e-10
4.01314e-08
2.50673e-08
-9.14914e-09
4.79872e-08
-1.74772e-07
-1.77903e-07
-1.33371e-06
1.05729e-06
-3.23339e-06
7.21437e-07
1.74199e-06
-4.18041e-07
2.59787e-06
-7.37107e-07
8.58831e-08
-8.26415e-07
8.01119e-07
-7.82711e-07
-1.12612e-07
-6.55826e-07
-2.9278e-07
-4.28515e-07
-1.62324e-09
-3.9322e-07
3.91183e-07
-4.25273e-07
-8.58809e-08
-2.01851e-07
-6.96802e-08
-1.46865e-07
-1.73336e-07
-3.325e-07
-8.93499e-08
-4.21057e-07
-3.43578e-08
-2.87217e-07
-2.01627e-07
-1.07998e-07
-3.02325e-08
1.16255e-08
-1.17229e-07
1.15042e-07
-7.96494e-08
1.17484e-07
-2.21475e-08
8.0299e-08
7.40229e-08
1.94779e-07
-4.86436e-08
2.27394e-07
2.0315e-08
1.41418e-07
1.38722e-07
1.14638e-07
9.14529e-08
1.2294e-07
4.78303e-08
1.25918e-07
4.74337e-08
1.17809e-07
4.82378e-08
4.85422e-08
9.43322e-08
2.21177e-08
-2.7637e-08
5.01747e-08
-2.8057e-08
9.28919e-08
-4.27172e-08
1.22267e-07
-2.93751e-08
1.4537e-07
-2.31033e-08
1.64581e-07
-1.92105e-08
1.99091e-07
-3.451e-08
2.38015e-07
-3.89246e-08
1.7554e-07
6.24754e-08
5.7793e-08
1.17747e-07
1.61818e-09
5.61748e-08
-1.13039e-08
1.29221e-08
1.98267e-09
-1.32866e-08
3.57292e-08
-3.37465e-08
5.47503e-08
-1.90211e-08
5.02658e-08
4.48448e-09
3.86476e-08
1.16182e-08
3.03913e-08
8.25633e-09
1.35314e-08
1.68599e-08
1.85354e-09
1.16779e-08
-1.66539e-08
1.85074e-08
-3.45253e-08
1.78714e-08
-5.3779e-08
1.92536e-08
-7.36189e-08
1.984e-08
-9.33997e-08
1.97808e-08
-9.61812e-08
2.78144e-09
-8.87228e-08
-7.45833e-09
-6.45078e-08
-2.4215e-08
-3.04985e-08
-3.40093e-08
-3.04985e-08
3.0536e-08
-6.04919e-08
6.55297e-08
-6.30507e-08
1.03512e-07
-8.06993e-08
1.4931e-07
-7.51738e-08
1.98793e-07
-7.25863e-08
2.46387e-07
-6.68041e-08
2.8729e-07
-7.54132e-08
3.28026e-07
-7.96609e-08
3.05643e-07
8.48583e-08
1.95359e-07
2.28031e-07
8.24256e-08
1.69108e-07
3.685e-08
5.84977e-08
4.66779e-08
-2.31145e-08
5.18036e-08
-3.88722e-08
5.06356e-08
-1.78532e-08
3.47859e-08
2.03341e-08
-1.37106e-09
4.77751e-08
-1.38695e-08
2.07548e-08
-4.31154e-08
4.61058e-08
-5.91715e-08
2.7734e-08
-8.31107e-08
4.24466e-08
-1.04081e-07
3.88413e-08
-1.19824e-07
3.49968e-08
-1.35359e-07
3.5375e-08
-1.45486e-07
2.99078e-08
-1.35445e-07
-7.25961e-09
-1.13884e-07
-2.90186e-08
-7.24192e-08
-6.56801e-08
-2.68964e-08
-7.95321e-08
-5.73949e-08
2.24562e-08
-8.7843e-08
4.59381e-08
-8.65327e-08
6.54297e-08
-1.00191e-07
1.19745e-07
-1.29489e-07
1.78776e-07
-1.31617e-07
2.23803e-07
-1.11831e-07
2.57088e-07
-1.08698e-07
2.97119e-07
-1.19692e-07
3.07608e-07
7.43697e-08
2.57799e-07
2.7784e-07
1.60288e-07
2.6662e-07
9.17963e-08
1.26989e-07
6.24276e-08
6.25423e-09
2.57923e-08
-2.23691e-09
1.20587e-08
-4.11964e-09
-4.56346e-09
3.69563e-08
-4.34903e-08
8.6702e-08
-4.5664e-08
2.29284e-08
-7.36156e-08
7.40574e-08
-8.59984e-08
4.01168e-08
-1.03929e-07
6.03771e-08
-1.22863e-07
5.77749e-08
-1.32302e-07
4.44363e-08
-1.44003e-07
4.70755e-08
-1.49522e-07
3.54274e-08
-1.35825e-07
-2.09572e-08
-1.11298e-07
-5.35455e-08
-6.70395e-08
-1.09938e-07
-2.13805e-08
-1.25191e-07
-7.87754e-08
6.30642e-09
-1.04795e-07
2.99683e-08
-1.10195e-07
6.55453e-08
-1.35768e-07
1.06403e-07
-1.70347e-07
1.45136e-07
-1.7035e-07
1.80963e-07
-1.47658e-07
2.08595e-07
-1.36331e-07
2.26246e-07
-1.37344e-07
2.52264e-07
4.83525e-08
2.49328e-07
2.80776e-07
1.95264e-07
3.20683e-07
1.29115e-07
1.93138e-07
6.99278e-08
6.54412e-08
2.94111e-09
6.47498e-08
-1.8651e-08
1.74725e-08
-3.62982e-08
5.46034e-08
-7.23452e-08
1.22749e-07
-5.9691e-08
1.02742e-08
-7.98861e-08
9.42525e-08
-9.37041e-08
5.39347e-08
-1.06806e-07
7.34787e-08
-1.25951e-07
7.69198e-08
-1.32927e-07
5.14132e-08
-1.43889e-07
5.80372e-08
-1.48805e-07
4.03429e-08
-1.34578e-07
-3.51837e-08
-1.09643e-07
-7.84808e-08
-6.49814e-08
-1.546e-07
-1.94133e-08
-1.70759e-07
-9.81887e-08
-1.42653e-08
-1.05721e-07
-4.03186e-09
-1.20428e-07
1.19365e-08
-1.51736e-07
1.84857e-08
-1.76896e-07
3.09671e-08
-1.82832e-07
5.62326e-08
-1.72923e-07
9.41836e-08
-1.74282e-07
1.22418e-07
-1.65578e-07
1.58884e-07
1.1887e-08
1.85526e-07
2.54134e-07
1.84152e-07
3.22057e-07
1.36166e-07
2.41125e-07
5.96523e-08
1.41955e-07
-2.22232e-08
1.46625e-07
-4.51007e-08
4.035e-08
-5.72303e-08
6.6733e-08
-9.13245e-08
1.56843e-07
-6.56956e-08
-1.53548e-08
-7.41782e-08
1.02735e-07
-9.60633e-08
7.58197e-08
-1.06264e-07
8.36792e-08
-1.26629e-07
9.72854e-08
-1.32781e-07
5.75653e-08
-1.43802e-07
6.9058e-08
-1.49033e-07
4.55738e-08
-1.34714e-07
-4.95024e-08
-1.0954e-07
-1.03655e-07
-6.4561e-08
-1.99579e-07
-1.87898e-08
-2.1653e-07
-1.16979e-07
-2.469e-08
-9.89627e-08
-3.35268e-08
-1.11591e-07
-5.58993e-08
-1.29364e-07
-8.24497e-08
-1.50346e-07
-8.5809e-08
-1.79472e-07
-5.68006e-08
-2.01932e-07
-7.85641e-09
-2.23226e-07
3.74015e-08
-2.10836e-07
8.27853e-08
-3.34969e-08
1.20221e-07
2.16698e-07
1.32944e-07
3.09333e-07
9.72185e-08
2.76851e-07
2.15714e-08
2.17602e-07
-5.35471e-08
2.21744e-07
-7.0886e-08
5.76888e-08
-6.84398e-08
6.42869e-08
-9.49356e-08
1.83339e-07
-6.73682e-08
-4.29222e-08
-6.57252e-08
1.01092e-07
-9.69671e-08
1.07062e-07
-1.06063e-07
9.27753e-08
-1.27143e-07
1.18366e-07
-1.32951e-07
6.33725e-08
-1.44033e-07
8.01407e-08
-1.49749e-07
5.12899e-08
-1.35336e-07
-6.3916e-08
-1.09848e-07
-1.29142e-07
-6.44706e-08
-2.44957e-07
-1.84383e-08
-2.62563e-07
-1.35417e-07
-3.77656e-08
-7.73664e-08
-6.85161e-08
-8.08409e-08
-1.03068e-07
-9.48116e-08
-1.25239e-07
-1.28174e-07
-1.35676e-07
-1.69036e-07
-1.21882e-07
-2.15725e-07
-8.56973e-08
-2.59411e-07
-5.87314e-08
-2.37802e-07
-7.90917e-09
-8.43191e-08
4.91827e-08
1.59606e-07
7.88675e-08
2.79649e-07
4.75373e-08
3.08181e-07
-2.06726e-08
2.85812e-07
-7.38601e-08
2.74931e-07
-8.99986e-08
7.38273e-08
-6.325e-08
3.75383e-08
-7.24255e-08
1.92515e-07
-6.60236e-08
-4.93242e-08
-6.11677e-08
9.62363e-08
-9.76582e-08
1.43552e-07
-1.06863e-07
1.0198e-07
-1.27603e-07
1.39105e-07
-1.33318e-07
6.90877e-08
-1.4436e-07
9.11832e-08
-1.50678e-07
5.76074e-08
-1.36144e-07
-7.84496e-08
-1.10265e-07
-1.55022e-07
-6.44046e-08
-2.90817e-07
-1.80789e-08
-3.08888e-07
-1.53496e-07
-3.41284e-08
-4.86695e-08
-6.92707e-08
-4.56986e-08
-1.00919e-07
-6.31634e-08
-1.24769e-07
-1.04324e-07
-1.43236e-07
-1.50569e-07
-1.54081e-07
-2.04881e-07
-1.48705e-07
-2.64786e-07
-1.4701e-07
-2.39498e-07
-1.0944e-07
-1.21889e-07
-3.96065e-08
8.97728e-08
-5.91919e-09
2.45961e-07
-9.73181e-09
3.11994e-07
-3.81199e-08
3.142e-07
-6.3427e-08
3.00238e-07
-8.36012e-08
9.40015e-08
-3.93084e-08
-6.75441e-09
-3.56919e-08
1.88898e-07
-6.4168e-08
-2.08481e-08
-6.27052e-08
9.47736e-08
-9.87685e-08
1.79615e-07
-1.08772e-07
1.11984e-07
-1.27924e-07
1.58256e-07
-1.33796e-07
7.49592e-08
-1.44729e-07
1.02117e-07
-1.51774e-07
6.46526e-08
-1.371e-07
-9.31234e-08
-1.10748e-07
-1.81374e-07
-6.43153e-08
-3.3725e-07
-1.76529e-08
-3.55551e-07
-1.71149e-07
-2.33166e-08
-2.32338e-08
-5.42e-08
-1.48152e-08
-8.51844e-08
-3.21789e-08
-1.09217e-07
-8.02918e-08
-1.31471e-07
-1.28315e-07
-1.52541e-07
-1.83812e-07
-1.7679e-07
-2.40537e-07
-1.93221e-07
-2.23066e-07
-1.88386e-07
-1.26724e-07
-1.4536e-07
4.67466e-08
-1.05205e-07
2.05806e-07
-5.82706e-08
2.65059e-07
-4.45029e-08
3.00432e-07
-3.92321e-08
2.94968e-07
-4.33487e-08
9.81181e-08
-1.24898e-08
-3.76134e-08
-1.68506e-08
1.93259e-07
-6.84376e-08
3.07388e-08
-7.00295e-08
9.63655e-08
-9.91109e-08
2.08697e-07
-1.11872e-07
1.24745e-07
-1.281e-07
1.74485e-07
-1.34274e-07
8.11327e-08
-1.45146e-07
1.12988e-07
-1.53034e-07
7.25412e-08
-1.38208e-07
-1.0795e-07
-1.11292e-07
-2.0829e-07
-6.41941e-08
-3.84348e-07
-1.71465e-08
-4.02599e-07
-1.88295e-07
-1.45651e-08
-5.8586e-09
-3.54991e-08
6.11879e-09
-5.85696e-08
-9.10843e-09
-8.24528e-08
-5.64086e-08
-1.05809e-07
-1.04959e-07
-1.31413e-07
-1.58207e-07
-1.62517e-07
-2.09433e-07
-1.83401e-07
-2.02182e-07
-2.04156e-07
-1.05969e-07
-1.86326e-07
2.89166e-08
-1.41211e-07
1.60691e-07
-8.19154e-08
2.05764e-07
-6.39255e-08
2.82442e-07
-3.34705e-08
2.64513e-07
-1.46374e-08
7.9285e-08
-9.61406e-10
-5.12894e-08
-1.59663e-08
2.08264e-07
-7.52033e-08