/*--------------------------------*- C++ -*----------------------------------*\
| =========                 |                                                 |
| \\      /  F ield         | OpenFOAM: The Open Source CFD Toolbox           |
|  \\    /   O peration     | Version:  2.4.0                                 |
|   \\  /    A nd           | Web:      www.OpenFOAM.org                      |
|    \\/     M anipulation  |                                                 |
\*---------------------------------------------------------------------------*/
FoamFile
{
    version     2.0;
    format      ascii;
    class       volScalarField;
    location    "0.052";
    object      p;
}
// * * * * * * * * * * * * * * * * * * * * * * * * * * * * * * * * * * * * * //

dimensions      [1 -1 -2 0 0 0 0];

internalField   nonuniform List<scalar> 
3600
(
98.4135
99.2237
100.592
102.287
104.15
106.043
107.767
109.078
109.727
109.548
108.437
106.443
103.793
100.72
97.6352
94.3741
92.6944
90.4536
92.9107
79.1214
68.4344
81.8917
93.014
96.3665
93.9882
94.4991
98.2037
101.479
103.199
103.867
95.1511
95.9613
97.3305
99.0257
100.889
102.784
104.51
105.825
106.478
106.3
105.19
103.189
100.53
97.4448
94.3396
91.004
89.1188
86.1401
87.2493
71.2225
60.9415
72.6808
85.7952
89.32
87.8502
88.2657
92.1467
95.5673
97.8828
99.6547
91.8848
92.6954
94.0654
95.7614
97.6261
99.5241
101.257
102.581
103.244
103.072
101.961
99.9519
97.277
94.1693
91.0382
87.5973
85.635
81.8844
82.3039
65.8283
53.806
64.1017
75.6389
84.0462
83.4222
85.1169
88.0981
90.1848
92.2679
93.9168
88.6149
89.4259
90.797
92.4943
94.3607
96.2646
98.0084
99.3477
100.026
99.8666
98.7549
96.7359
94.0405
90.9007
87.7391
84.1751
82.2737
77.7152
78.1921
61.0931
47.1335
57.8379
69.5624
80.4708
81.559
83.0653
84.2279
84.4184
85.8028
87.7339
85.3412
86.1528
87.5255
89.2244
91.093
93.0052
94.7637
96.1239
96.8257
96.6833
95.5721
93.5421
90.8209
87.641
84.4402
80.7544
78.9107
73.6782
74.8602
59.0737
46.317
53.7999
65.2969
75.7523
82.8574
84.0837
81.8887
80.6563
80.306
82.1614
82.0638
82.8761
84.2507
85.9515
87.823
89.7456
91.5229
92.9101
93.6419
93.5227
92.4131
90.3709
87.6184
84.3912
81.1372
77.3471
75.4007
69.954
71.1975
59.4186
47.5242
51.8692
62.3711
70.5737
75.8201
78.409
79.6605
79.1872
78.8674
79.6485
78.7828
79.5959
80.9727
82.6759
84.5506
86.4857
88.2858
89.7062
90.4751
90.385
89.2779
87.2228
84.4329
81.1511
77.8244
73.9474
71.7729
66.3575
66.9924
57.9082
47.4719
49.8128
59.4837
70.5582
75.4491
75.3312
76.4576
75.7006
75.8945
76.4364
75.498
76.312
77.6915
79.3973
81.2757
83.2254
85.0522
86.5119
87.3254
87.2704
86.1669
84.098
81.2645
77.9213
74.5001
70.55
67.9892
62.8967
60.8265
54.6308
45.9629
44.6485
54.2388
68.9669
78.2533
76.2761
73.4224
72.0399
71.9964
72.2173
72.2095
73.0245
74.407
76.1159
77.9981
79.9644
81.8219
83.327
84.1928
84.1793
83.0801
80.9971
78.1131
74.7019
71.1647
67.1667
64.0993
59.3683
53.468
49.692
44.0761
41.5297
48.3281
60.2058
67.6146
69.6944
68.2401
67.7328
67.7416
68.4967
68.9173
69.7334
71.1193
72.8315
74.7178
76.7026
78.5945
80.1515
81.0773
81.1119
80.0176
77.9209
74.9786
71.492
67.8284
63.7984
60.2428
55.7365
48.6992
45.9765
41.1023
37.1632
39.9596
50.9643
58.8223
60.5869
61.614
62.53
63.6657
64.4769
65.6214
66.4387
67.8283
69.5441
71.4345
73.4398
75.3698
76.9849
77.9789
78.0687
76.9794
74.8702
71.8607
68.291
64.5004
60.4115
56.3809
52.1648
45.3323
42.6945
35.4078
27.556
25.6382
37.5535
48.4831
52.6359
55.3179
58.0172
59.5869
60.6635
62.3217
63.1403
64.5341
66.2538
68.1481
70.1755
72.1473
73.8269
74.8978
75.0503
73.965
71.8464
68.7591
65.0984
61.1859
56.9604
52.6479
48.3828
41.5958
37.4494
25.6669
15.6761
9.64403
17.9909
32.8506
43.2305
49.261
52.2419
53.75
54.378
59.0183
59.8382
61.2366
62.9606
64.8584
66.9095
68.9266
70.6772
71.8339
72.0574
70.9895
68.8333
65.6724
61.9163
57.88
53.5156
48.9797
44.5294
37.9237
31.1598
16.4899
-0.104793
-8.19696
-5.58119
16.6129
32.0308
39.7998
43.1839
45.299
46.0689
55.7112
56.5324
57.9359
59.6643
61.565
63.6415
65.7071
67.5353
68.7871
69.0906
68.0435
65.8423
62.5994
58.7463
54.5819
50.0941
45.3927
40.3344
34.8602
24.6748
9.73824
-20.8451
-26.0665
-19.9938
4.01428
19.5791
27.8555
33.8809
37.5605
39.4921
52.4004
53.2228
54.6319
56.365
58.2679
60.371
62.4883
64.4006
65.7575
66.1505
65.1268
62.8739
59.5384
55.5881
51.2904
46.7289
41.7901
36.0612
31.5027
19.6976
6.49532
-15.0175
0.190253
-2.9723
-2.65737
5.88915
18.9699
29.534
33.5738
33.7621
49.0858
49.9096
51.3247
53.0627
54.9667
57.0977
59.2696
61.2727
62.745
63.2376
62.2398
59.9282
56.4878
52.4416
48.0023
43.4382
38.1947
32.2843
26.5965
16.3532
-1.15956
-4.07799
0.16629
0.113497
0.726959
0.778532
7.02899
22.4662
30.4443
26.0652
45.7675
46.5925
48.0142
49.7574
51.661
53.8211
56.0501
58.1507
59.7493
60.3526
59.3834
57.0045
53.4442
49.3086
44.7252
40.2306
34.4282
29.4212
20.3058
13.135
-7.19191
-1.02129
-0.253665
-0.0444902
0.19477
0.23928
0.388624
2.61999
5.37512
5.61494
42.4454
43.2716
44.7004
46.4491
48.3507
50.5408
52.8292
55.0339
56.7704
57.4962
56.5581
54.1024
50.4013
46.1785
41.4399
37.0954
30.3663
26.6497
14.392
4.49453
-3.42316
-0.236174
0.0171462
-0.0116183
0.0461644
0.0520521
0.0536064
0.0448107
0.091136
0.319927
39.1196
39.9469
41.3834
43.1379
45.0353
47.2562
49.6058
51.9214
53.808
54.6689
53.765
51.2218
47.3589
43.0614
38.1741
34.0815
26.614
22.8418
11.6182
-2.66706
-0.375285
-0.0589664
0.00778658
0.0174325
0.0151234
0.0336245
0.0547859
0.0690112
0.122531
0.200325
35.79
36.6183
38.0632
39.8238
41.7145
43.967
46.379
48.8123
50.8619
51.8714
51.0049
48.3596
44.3012
39.9445
34.8978
31.166
24.0578
17.693
7.51527
-4.39541
-0.263586
-0.0958576
-0.00156881
0.00885779
0.00684563
0.0239722
0.030261
0.0462174
0.081195
0.111923
32.4567
33.2858
34.7398
36.5069
38.3879
40.6725
43.1475
45.7085
47.9317
49.1044
48.2801
45.522
41.2332
36.8482
31.5695
28.2048
22.9559
12.5117
-11.5373
-0.0949094
-0.0783273
-0.0927052
-0.0183023
-0.00831595
-0.00704827
0.000218552
0.00372517
0.0184715
0.039723
0.054709
29.1196
29.9493
31.4131
33.1872
35.0551
37.3724
39.9101
42.6024
45.0167
46.3683
45.5897
42.6959
38.1204
33.691
28.0407
25.1822
21.9177
10.5418
-8.61098
0.248949
0.00798358
-0.0636862
-0.0143084
-0.0167002
-0.0193125
-0.0191335
-0.0167276
-0.00459231
0.00999517
0.0189754
25.7788
26.6087
28.0834
29.8648
31.7158
34.0661
36.6656
39.4954
42.1161
43.6631
42.938
39.9063
35.0011
30.4944
24.3719
22.4089
19.4894
7.33807
-1.25176
0.225101
0.00549811
-0.0202196
-0.0135229
-0.0195456
-0.0256446
-0.0295412
-0.0293734
-0.0202194
-0.00929826
-0.00288867
22.4343
23.264
24.7506
26.5397
28.3694
30.753
33.4126
36.3847
39.2288
40.9902
40.328
37.1548
31.8532
27.2981
20.4697
20.0121
16.8132
-0.509436
-0.170346
0.13694
0.00904025
-0.015248
-0.0152144
-0.0231385
-0.0187704
-0.0333687
-0.0320562
-0.0261732
-0.0182069
-0.013718
19.086
19.9151
21.4147
23.2121
25.0156
27.4328
30.1499
33.2701
36.3543
38.3481
37.7556
34.4107
28.6175
23.8817
16.2104
17.5039
14.7617
-1.37968
-0.168817
0.0618966
0.00736236
-0.00547325
-0.0137352
-0.0265093
-0.000305728
-0.0188795
-0.028672
-0.0239411
-0.0190046
-0.0163239
15.734
16.5618
18.076
19.8819
21.6538
24.1046
26.8753
30.1468
33.4873
35.7345
35.2375
31.7542
25.4816
20.3884
11.9779
14.0715
10.1491
-0.0395203
-0.128755
0.146282
-0.0129834
-0.00746681
-0.0151682
-0.0249186
-0.0196271
-0.0107462
-0.0281304
-0.0213087
-0.0169927
-0.0150714
12.3783
13.2041
14.7346
16.5492
18.284
20.7685
23.5883
27.0154
30.6329
33.1679
32.8188
29.1936
22.3653
16.7745
7.51907
9.08948
-0.254382
-0.180425
-0.0837898
-0.0267574
0.0161201
-0.012117
-0.019119
-0.0261891
-0.0351005
-0.0147701
-0.0215165
-0.0233938
-0.0156474
-0.0137557
9.01905
9.84181
11.3905
13.2142
14.9053
17.4232
20.2857
23.8706
27.7837
30.6163
30.3633
26.4376
18.8848
12.4178
2.52243
2.00195
-0.394739
-0.104647
-0.00711987
-0.0700824
0.0194617
-0.0200762
-0.0297782
-0.0300836
-0.0347921
-0.0250862
-0.0269624
-0.0286974
-0.0267473
-0.0231922
5.655
6.47392
8.04406
9.87569
11.5171
14.0683
16.9657
20.7075
24.9293
28.0723
27.979
23.8673
15.795
7.81517
-4.76028
-2.02739
-0.591179
-0.184306
-0.152183
-0.0847532
0.010355
0.00227068
-0.04103
-0.0385358
-0.0398263
-0.037512
-0.0335856
-0.0305361
-0.0274489
-0.0258656
2.29329
3.10909
4.69621
6.53631
8.12042
10.7051
13.6287
17.529
22.0972
25.6243
25.8699
21.6185
12.9836
2.89803
-7.21404
-0.656196
-0.464763
-0.197578
-0.126009
-0.0878577
-0.0512743
-0.0408498
-0.0552755
-0.0497385
-0.0486056
-0.0469974
-0.0425899
-0.036449
-0.0329345
-0.0307829
103.872
103.214
101.518
98.281
94.6201
94.1337
96.5567
93.2492
82.2557
68.8229
79.5636
93.3313
90.888
93.1523
94.827
98.0838
101.156
104.212
106.838
108.794
109.854
109.971
109.26
107.895
106.131
104.21
102.328
100.619
99.2417
98.4268
99.6269
97.8825
95.5999
92.2321
88.4065
87.9984
89.4959
86.0581
73.0619
61.3743
71.6225
87.6806
86.5812
89.579
91.4576
94.7883
97.8805
100.949
103.584
105.547
106.606
106.723
106.008
104.638
102.871
100.949
99.0665
97.3572
95.9792
95.1643
93.96
92.341
90.2433
88.181
85.2502
83.5878
84.2111
75.92
64.5271
54.216
66.2714
82.7464
82.3287
86.0984
88.0521
91.4872
94.6053
97.6967
100.348
102.319
103.379
103.488
102.763
101.385
99.6116
97.6856
95.8021
94.092
92.7132
91.898
87.6698
85.7135
84.3606
84.2347
83.2295
81.7807
80.6699
69.8897
58.2799
47.5618
61.5462
78.6523
78.1642
82.741
84.6318
88.1886
91.3371
94.461
97.1327
99.1141
100.173
100.27
99.5288
98.1355
96.3516
94.4199
92.5348
90.8236
89.4437
88.628
82.115
80.3629
80.6675
81.8549
84.3324
83.1384
75.896
65.6405
54.2266
46.7316
59.5282
75.3353
74.1352
79.3819
81.2136
84.8901
88.0778
91.2425
93.9405
95.9328
96.9906
97.0692
96.3041
94.8897
93.0913
91.1518
89.2646
87.552
86.1705
85.3543
79.6003
78.9248
79.3048
79.6793
78.4767
75.9657
70.7803
62.6821
52.2728
47.8936
59.8649
71.67
70.4234
75.8753
77.8095
81.5873
84.8286
88.0413
90.7714
92.7756
93.8306
93.8848
93.089
91.6476
89.8307
87.8812
85.9915
84.277
82.8936
82.0768
76.3971
75.8277
75.7628
76.6877
75.7003
75.7646
70.8555
59.8533
50.2118
47.8446
58.3616
67.4492
66.8429
72.2509
74.4133
78.2744
81.5891
84.8575
87.6257
89.6428
90.6935
90.7172
89.8835
88.4089
86.5697
84.6081
82.7154
80.9988
79.6132
78.7956
72.1322
71.9126
72.1307
73.6666
76.4833
78.4636
69.0707
54.5748
45.0025
46.3377
55.0888
61.25
63.3998
68.4721
71.0199
74.9495
78.3599
81.6912
84.504
86.5345
87.5797
87.5665
86.6874
85.1734
83.308
81.3325
79.4364
77.7174
76.3291
75.5107
68.3405
67.5683
67.6466
68.2641
69.6345
67.5398
60.1619
48.5507
41.8612
44.426
50.1368
53.8859
59.8913
64.5889
67.6406
71.6128
75.1409
78.5422
81.4068
83.4509
84.4893
84.4326
83.5004
81.9409
80.0455
78.0541
76.1545
74.4327
73.0414
72.2221
64.3879
63.5261
62.3839
61.5549
60.47
58.8234
50.9663
40.2195
37.4833
41.4263
46.4613
49.1575
56.281
60.7398
64.2759
68.2743
71.9315
75.4106
78.3349
80.3923
81.4228
81.3157
80.3224
78.7111
76.782
74.7728
72.8696
71.1447
69.75
68.9297
60.7782
59.7143
58.0497
55.2788
52.6539
48.6631
37.7072
25.6307
27.9195
35.691
43.2391
45.8368
52.7303
56.8865
60.8911
64.9428
68.7306
72.2962
75.2893
77.3585
78.3805
78.2157
77.153
75.4836
73.5171
71.4884
69.5817
67.8535
66.455
65.6336
54.3635
53.7144
52.191
49.4704
43.5229
33.1704
18.2667
9.94156
16.1306
25.975
38.0034
42.152
48.9784
53.1622
57.4407
61.6229
65.5379
69.1988
72.2712
74.3495
75.363
75.1327
73.9919
72.2579
70.2507
68.2009
66.2908
64.559
63.1562
62.3338
46.1594
45.1475
43.1962
40.1546
31.9936
16.7261
-5.46429
-7.83962
0.279735
16.8542
31.7496
38.5389
45.1567
49.5022
53.9951
58.309
62.3554
66.1173
69.2671
71.3782
72.371
72.0665
70.8387
69.0338
66.9824
64.9099
62.9968
61.2612
59.8538
59.0302
40.1685
37.8388
35.0471
28.3689
19.3064
3.92996
-20.1283
-25.6391
-20.5751
10.0359
25.3379
35.5122
41.0048
45.9177
50.5713
54.9997
59.1846
63.0507
66.2863
68.437
69.4049
69.0171
67.6928
65.8105
63.7118
61.6153
59.6998
57.9601
56.5476
55.7229
34.1612
34.023
31.1584
19.7542
6.02172
-2.88284
-3.02598
0.175286
-15.2673
6.76904
20.4416
32.1992
36.7853
42.3094
47.2004
51.6932
56.0251
59.9977
63.3298
65.5259
66.4653
65.9844
64.5538
62.5876
60.4386
58.3168
56.3997
54.6558
53.2376
52.4118
25.3918
30.101
22.7198
7.30477
1.04879
0.798089
0.161321
0.0716429
-4.39053
-1.1529
17.2092
27.3676
33.0674
38.6971
43.8991
48.386
52.8767
56.9572
60.3979
62.6452
63.5528
62.9683
61.421
59.3643
57.1624
55.0141
53.0966
51.3482
49.9239
49.0969
4.84665
5.35003
2.40436
0.378146
0.258904
0.204865
-0.0367971
-0.268233
-1.16422
-7.76744
14.3976
21.2437
30.2411
34.8901
40.6752
45.0844
49.7409
53.9264
57.4905
59.7957
60.6678
59.9686
58.2938
56.14
53.8827
51.7071
49.7904
48.0374
46.6063
45.7783
0.306742
0.0716512
-0.0200647
0.0315479
0.0548258
0.0501507
-0.0108714
0.0614032
-0.193345
-4.01951
6.77767
15.6532
27.429
30.7517
37.521
41.7696
46.6068
50.9
54.6075
56.9779
57.811
56.985
55.1712
52.9137
50.5991
48.3952
46.4813
44.7233
43.2849
42.456
0.199695
0.118176
0.0614767
0.0480442
0.029727
0.0212387
0.0225517
0.0201559
-0.00937645
-0.244023
-2.42392
12.6772
23.5255
26.9039
34.4812
38.4708
43.4847
47.8788
51.7495
54.1926
54.9828
54.0173
52.0524
49.6845
47.3111
45.0783
43.1692
41.4059
39.9596
39.1299
0.113119
0.0835125
0.0485212
0.0312653
0.0212893
0.0108542
0.0158699
0.00488685
-0.0653179
-0.189156
-4.20176
9.00846
18.296
24.2987
31.5287
35.1616
40.3625
44.8485
48.9139
51.4405
52.1838
51.0652
48.9364
46.4514
44.0182
41.7559
39.8541
38.0854
36.6304
35.8
0.0553843
0.0416155
0.0199182
0.00410245
-0.00166989
-0.00485301
-0.00064126
-0.00340712
-0.0469983
-0.0708832
0.053671
-8.95672
13.0185
23.1996
28.5008
31.809
37.2607
41.8163
46.1067
48.7235
49.4143
48.1281
45.8238
43.2132
40.72
38.4278
36.5362
34.7617
33.2972
32.4664
0.0192232
0.0108181
-0.00413632
-0.0174889
-0.0215335
-0.0188466
-0.00862265
0.00263126
-0.00976745
0.0135725
0.256981
-7.37035
10.7831
22.0988
25.3819
28.273
34.0915
38.75
43.3159
46.0405
46.6747
45.2055
42.7095
39.9685
37.4159
35.0934
33.2155
31.4348
29.9599
29.129
-0.00289624
-0.00910451
-0.0203869
-0.0310735
-0.0316995
-0.0254608
-0.0124229
0.0038994
0.0116074
0.0330192
0.207219
-1.06821
8.57686
19.5602
22.4757
24.6066
30.8764
35.6818
40.5667
43.3951
43.9646
42.2962
39.5934
36.7162
34.1055
31.7525
29.892
28.1048
26.6186
25.7878
-0.0137987
-0.0180353
-0.025977
-0.0329607
-0.0334477
-0.0267834
-0.0147251
-0.00138742
0.00755404
0.0816043
0.169831
0.00287248
-1.85715
16.7943
19.9066
20.7222
27.6328
32.6144
37.862
40.7893
41.2854
39.3993
36.473
33.4549
30.7883
28.4046
26.5659
24.7718
23.273
22.4429
-0.0157028
-0.0176985
-0.0222927
-0.0276226
-0.0279468
-0.0107114
-0.0186668
-0.00346879
0.011603
0.044569
0.155577
-0.213814
-2.07667
14.9524
17.2272
16.5262
24.1426
29.4987
35.1709
38.2176
38.6349
36.5142
33.3479
30.1832
27.4638
25.0494
23.2371
21.4358
19.9232
19.0943
-0.0139843
-0.0144697
-0.0170298
-0.0211154
-0.00849474
-0.00345998
-0.0238651
-0.0102671
0.00348853
0.0117902
0.0813028
-0.0921267
0.056338
9.65663
13.615
12.3869
20.5489
26.5217
32.5715
35.6955
36.0109
33.6352
30.2132
26.8991
24.1312
21.6863
19.9058
18.097
16.5689
15.742
-0.0130912
-0.0129027
-0.0181477
-0.0207483
-0.0120237
-0.0312788
-0.0249486
-0.0178501
-0.00792472
-0.0224368
0.0264058
-0.0296548
-0.603225
-0.397463
8.47886
8.04518
16.7844
23.6258
30.0695
33.2661
33.4313
30.7681
27.0697
23.6019
20.7907
18.3151
16.572
14.7557
13.2101
12.386
-0.021743
-0.023351
-0.0242476
-0.0218293
-0.0227055
-0.0314593
-0.0279302
-0.0291445
-0.023039
0.0137452
-0.102542
-0.0323653
-0.269471
-0.358441
0.84375
3.24197
12.2414
20.4466
27.3716
30.7914
30.8643
27.9049
23.9118
20.2884
17.441
14.9352
13.2359
11.4118
9.84663
9.02639
-0.0249826
-0.0255412
-0.0276705
-0.0294801
-0.034852
-0.0363988
-0.0360643
-0.0417625
0.0335601
0.0275414
-0.110419
-0.170524
-0.243411
-0.646863
-2.33489
-3.70038
7.35985
17.7652
24.8529
28.3771
28.3025
25.0357
20.7348
16.9567
14.0816
11.5459
9.8962
8.06555
6.47747
5.662
-0.0307116
-0.0321638
-0.0345877
-0.0399392
-0.0442216
-0.045312
-0.0469837
-0.0526657
-0.0422826
-0.0412197
-0.106446
-0.138996
-0.254457
-0.514977
-0.709743
-6.59059
1.98962
15.5206
22.6282
26.2198
25.8337
22.1874
17.5414
13.6073
10.7141
8.14823
6.55568
4.7181
3.11133
2.29996
0.290359
0.870069
2.22817
4.02282
5.55595
8.16364
11.0997
15.1236
19.9737
23.8042
24.2708
19.8279
10.3387
-6.50152
0.740231
-0.485417
-0.450844
-0.25578
-0.172266
-0.114444
-0.0735575
-0.0689388
-0.0645085
-0.0586312
-0.0564257
-0.0541414
-0.053185
-0.0478185
-0.0401856
-0.0370117
0.0114793
0.451938
1.25477
2.5999
3.85294
6.38728
9.32922
13.4328
18.4797
22.5084
23.0889
18.5372
9.8703
-13.0143
0.544791
-0.458856
-0.461697
-0.296663
-0.197975
-0.130422
-0.085687
-0.0795938
-0.0709503
-0.0648234
-0.0619929
-0.0592333
-0.0580273
-0.0561392
-0.0534946
-0.0510573
-0.117198
0.1731
0.726798
1.79359
2.56182
4.85273
7.59012
11.6064
16.834
21.0383
21.686
17.0487
8.05665
-1.08695
-0.384795
-0.483341
-0.475349
-0.343939
-0.227081
-0.146051
-0.0968053
-0.0905835
-0.0785956
-0.0715701
-0.0679263
-0.06468
-0.0627686
-0.0608277
-0.0589181
-0.0575109
-0.0910052
-0.00288044
0.282238
0.812824
1.06336
2.98535
5.58249
9.68838
15.9722
19.4257
20.1903
15.404
13.2527
-0.50166
-0.231321
-0.500282
-0.500707
-0.404715
-0.262227
-0.164281
-0.109242
-0.10201
-0.0868945
-0.0788678
-0.0742205
-0.0704599
-0.0679753
-0.0658255
-0.0640692
-0.0629273
-0.0928948
0.0019204
-0.0237228
-0.0958762
-0.0108079
1.15065
3.34408
7.4604
13.3398
17.7973
19.0088
13.7049
13.3863
0.252874
-0.240147
-0.467139
-0.501287
-0.442018
-0.297076
-0.186714
-0.11957
-0.113396
-0.0956393
-0.0864893
-0.0808223
-0.0765597
-0.0736536
-0.0713702
-0.0697241
-0.0687906
-0.0957733
-0.00899253
-0.0288897
-0.127816
-0.152288
0.159545
1.45427
4.81597
11.416
16.1719
18.1765
11.9713
-2.74499
-0.317244
-0.269827
-0.46762
-0.503754
-0.459754
-0.326993
-0.20675
-0.12699
-0.123442
-0.104353
-0.0941366
-0.0876177
-0.0829164
-0.0797126
-0.0773627
-0.0758082
-0.0750103
-0.0991089
-0.0148997
-0.0320774
-0.121668
-0.168489
-0.0953494
0.291002
2.27312
8.7413
14.1601
17.2896
9.17302
-0.403081
-0.285835
-0.264545
-0.473349
-0.517857
-0.477955
-0.350227
-0.224887
-0.137546
-0.132801
-0.112809
-0.101545
-0.0944546
-0.0894399
-0.086062
-0.0837009
-0.0822373
-0.0815449
-0.102888
-0.0312488
-0.0363287
-0.135066
-0.173697
-0.120857
-0.0627354
0.36129
5.21742
11.5378
15.2368
2.56317
0.954111
-0.031164
-0.280673
-0.437383
-0.514191
-0.489402
-0.364334
-0.237971
-0.151025
-0.139241
-0.120139
-0.108518
-0.101195
-0.0960417
-0.0926127
-0.0902975
-0.0889291
-0.088326
-0.0981701
-0.0372428
-0.0410248
-0.14033
-0.178425
-0.126178
-0.103897
-0.0863224
2.19541
7.54599
10.753
-0.27471
0.123999
0.0328691
-0.234588
-0.403243
-0.484418
-0.47564
-0.36627
-0.246163
-0.161867
-0.145939
-0.127184
-0.115019
-0.107788
-0.102642
-0.0992706
-0.0970529
-0.0957869
-0.0952627
-0.103909
-0.0440615
-0.0471302
-0.149708
-0.183357
-0.13045
-0.108254
-0.10257
0.0945668
1.00803
1.9732
-0.522261
0.0608875
-0.0504775
-0.202007
-0.358115
-0.443416
-0.44344
-0.354006
-0.247213
-0.170418
-0.15136
-0.133047
-0.120407
-0.114177
-0.109166
-0.105938
-0.103857
-0.102698
-0.102246
-0.110785
-0.0506516
-0.0536335
-0.155783
-0.187731
-0.13502
-0.1126
-0.11086
-0.118995
-0.14326
-0.20261
-0.196174
0.0205575
-0.0339256
-0.194825
-0.315779
-0.399854
-0.402842
-0.330514
-0.226555
-0.175295
-0.154922
-0.138726
-0.126799
-0.120303
-0.115542
-0.112511
-0.110586
-0.109536
-0.109147
-0.116293
-0.0571901
-0.0599352
-0.160705
-0.190718
-0.139641
-0.117694
-0.117665
-0.127035
-0.150637
-0.183989
-0.225001
-0.0281663
-0.0651095
-0.179403
-0.280539
-0.348793
-0.345985
-0.283401
-0.211212
-0.177521
-0.157331
-0.142153
-0.132084
-0.126017
-0.121693
-0.118898
-0.117137
-0.116189
-0.115856
-0.12149
-0.0641201
-0.0669263
-0.163967
-0.191939
-0.144188
-0.123471
-0.125092
-0.134187
-0.149227
-0.187735
-0.192127
-0.0659144
-0.0880757
-0.166997
-0.247094
-0.296337
-0.286993
-0.251196
-0.200733
-0.159963
-0.155566
-0.144697
-0.136773
-0.131439
-0.127582
-0.125034
-0.123432
-0.122577
-0.122289
-0.126627
-0.0716554
-0.0747708
-0.165644
-0.191624
-0.148551
-0.129627
-0.132095
-0.139991
-0.149356
-0.185937
-0.170361
-0.0895355
-0.0986856
-0.158378
-0.217948
-0.23599
-0.237522
-0.214874
-0.18368
-0.163366
-0.153969
-0.147152
-0.141096
-0.136659
-0.133271
-0.130963
-0.129506
-0.128732
-0.128482
-0.132064
-0.0799106
-0.0833463
-0.166342
-0.190199
-0.153102
-0.136021
-0.13863
-0.145272
-0.150985
-0.183094
-0.159014
-0.108052
-0.115271
-0.153707
-0.196652
-0.202923
-0.195925
-0.1747
-0.165926
-0.147046
-0.141269
-0.149741
-0.145419
-0.141734
-0.13883
-0.136798
-0.135507
-0.134826
-0.134616
-0.137965
-0.0888853
-0.0925751
-0.16687
-0.188695
-0.157798
-0.142654
-0.144951
-0.150255
-0.154338
-0.179283
-0.154976
-0.121884
-0.126449
-0.152125
-0.179368
-0.190447
-0.169882
-0.172241
-0.168135
-0.141804
-0.134833
-0.150286
-0.149656
-0.146535
-0.14413
-0.142437
-0.141368
-0.140812
-0.140656
-0.144384
-0.0985198
-0.102415
-0.16792
-0.187707
-0.162728
-0.149539
-0.151506
-0.155365
-0.158452
-0.175761
-0.154959
-0.133389
-0.135912
-0.152122
-0.169966
-0.177841
-0.17689
-0.168109
-0.168869
-0.162628
-0.152007
-0.156985
-0.15435
-0.151081
-0.148995
-0.147624
-0.14679
-0.146372
-0.146275
-0.151357
-0.108792
-0.112863
-0.16986
-0.187574
-0.167971
-0.156716
-0.158282
-0.160959
-0.163464
-0.174278
-0.157913
-0.143373
-0.144383
-0.154013
-0.165078
-0.170403
-0.169811
-0.167566
-0.168443
-0.167118
-0.16349
-0.160188
-0.15692
-0.154599
-0.153089
-0.152132
-0.151571
-0.151309
-0.151276
-0.158889
-0.119708
-0.123937
-0.172805
-0.188487
-0.173596
-0.164226
-0.165308
-0.167107
-0.169046
-0.174612
-0.162529
-0.152298
-0.151811
-0.157518
-0.163469
-0.167021
-0.167665
-0.16761
-0.167746
-0.166326
-0.163941
-0.16149
-0.159347
-0.157923
-0.156995
-0.156421
-0.156104
-0.155979
-0.156002
-0.166998
-0.13125
-0.135669
-0.176745
-0.190569
-0.17967
-0.172112
-0.172676
-0.173778
-0.175034
-0.177154
-0.168156
-0.161446
-0.160321
-0.162278
-0.165587
-0.168001
-0.168782
-0.169024
-0.168656
-0.167354
-0.1658
-0.164298
-0.163033
-0.162199
-0.161662
-0.161347
-0.161194
-0.161163
-0.161222
-0.175696
-0.143406
-0.148147
-0.1816
-0.193912
-0.186272
-0.18042
-0.180487
-0.181062
-0.18165
-0.181777
-0.175104
-0.170151
-0.168788
-0.169869
-0.171579
-0.172301
-0.172646
-0.172638
-0.172093
-0.171112
-0.170091
-0.169177
-0.168463
-0.167987
-0.16769
-0.167531
-0.167474
-0.167494
-0.167568
-0.185001
-0.156166
-0.160918
-0.187898
-0.198588
-0.1935
-0.189194
-0.188841
-0.189005
-0.188953
-0.187948
-0.183374
-0.179649
-0.177981
-0.177628
-0.17797
-0.178533
-0.178673
-0.178501
-0.178034
-0.177355
-0.176697
-0.176139
-0.175723
-0.175449
-0.175288
-0.175215
-0.175208
-0.17525
-0.175326
-0.194934
-0.169522
-0.174111
-0.195538
-0.204636
-0.201466
-0.198477
-0.197858
-0.197697
-0.197226
-0.195715
-0.192367
-0.189412
-0.187779
-0.187153
-0.187094
-0.186985
-0.186768
-0.186488
-0.186094
-0.185637
-0.185223
-0.184885
-0.184642
-0.184486
-0.184403
-0.184377
-0.184395
-0.184444
-0.184514
-0.205527
-0.18347
-0.187814
-0.204486
-0.212071
-0.210288
-0.208346
-0.207623
-0.207236
-0.206488
-0.204906
-0.202457
-0.200168
-0.19866
-0.197776
-0.197252
-0.196926
-0.196631
-0.196299
-0.195969
-0.195652
-0.195386
-0.195182
-0.195042
-0.194959
-0.194922
-0.194922
-0.19495
-0.194998
-0.195058
-0.21682
-0.198056
-0.202086
-0.214726
-0.220897
-0.22008
-0.218914
-0.218217
-0.217704
-0.216851
-0.215379
-0.21347
-0.211645
-0.210285
-0.209357
-0.208757
-0.20832
-0.207968
-0.207655
-0.207399
-0.207179
-0.207008
-0.206885
-0.206808
-0.206768
-0.206758
-0.206771
-0.206802
-0.206845
-0.206895
-0.228863
-0.213372
-0.216973
-0.226255
-0.231123
-0.230934
-0.23031
-0.229727
-0.229188
-0.22835
-0.227098
-0.225614
-0.22419
-0.223044
-0.222191
-0.221563
-0.221103
-0.220754
-0.220485
-0.220261
-0.220095
-0.219978
-0.219902
-0.219859
-0.219842
-0.219845
-0.219863
-0.219891
-0.219926
-0.219966
-0.241721
-0.229525
-0.232515
-0.239076
-0.242755
-0.24293
-0.242672
-0.242251
-0.241774
-0.241049
-0.240042
-0.238894
-0.237784
-0.236843
-0.236103
-0.235547
-0.235133
-0.234826
-0.234598
-0.23443
-0.234311
-0.234232
-0.234185
-0.234163
-0.234158
-0.234166
-0.234184
-0.234208
-0.234236
-0.234266
-0.255477
-0.246624
-0.248867
-0.253197
-0.255802
-0.256143
-0.256127
-0.255889
-0.255543
-0.254996
-0.254249
-0.253402
-0.252572
-0.251844
-0.251251
-0.250791
-0.250448
-0.250197
-0.250019
-0.249896
-0.249816
-0.249765
-0.249734
-0.249722
-0.249723
-0.249732
-0.249746
-0.249764
-0.249785
-0.249805
-0.270234
-0.264821
-0.266186
-0.268652
-0.270273
-0.270643
-0.270784
-0.270738
-0.270574
-0.270249
-0.269771
-0.269207
-0.268634
-0.268112
-0.267674
-0.267331
-0.267073
-0.266886
-0.266755
-0.266668
-0.266614
-0.266585
-0.266574
-0.266569
-0.266573
-0.266581
-0.266592
-0.266604
-0.266617
-0.266629
-0.286109
-0.284311
-0.284739
-0.285509
-0.286177
-0.286487
-0.28674
-0.286891
-0.286951
-0.286884
-0.286693
-0.286414
-0.286094
-0.28578
-0.285504
-0.28528
-0.285111
-0.284988
-0.284904
-0.284848
-0.284813
-0.284793
-0.284783
-0.284783
-0.284785
-0.284793
-0.284801
-0.284808
-0.284814
-0.284818
-0.0371005
-0.0387636
-0.0454456
-0.0512489
-0.0517326
-0.0535326
-0.0548504
-0.0583309
-0.044955
-0.0467877
-0.131038
-0.211457
-0.316216
-0.4876
-0.506629
0.671966
-7.5556
13.5948
20.8353
24.57
23.9962
20.0509
15.1239
11.0683
8.1693
5.58312
4.04141
2.24986
0.871099
0.296824
-0.0504878
-0.0523657
-0.0548162
-0.0564969
-0.0571699
-0.059447
-0.0608895
-0.065506
-0.068835
-0.0703199
-0.092441
-0.242175
-0.36091
-0.490534
-0.456763
0.34549
-14.001
13.4902
19.5359
23.3495
22.6888
18.5482
13.4245
9.29058
6.39084
3.88057
2.62455
1.27654
0.452336
0.0178772
-0.0572611
-0.0581455
-0.0597619
-0.0614868
-0.0630385
-0.0659669
-0.0686922
-0.0760019
-0.0931612
-0.079393
-0.149107
-0.284385
-0.410463
-0.488483
-0.463889
-0.411769
-1.55885
11.7045
18.0016
21.8979
21.2063
16.8934
11.589
7.54176
4.85119
2.57861
1.82142
0.751715
0.169242
-0.11079
-0.0627355
-0.063514
-0.0650398
-0.0670211
-0.0693168
-0.0730734
-0.0775671
-0.0879916
-0.108384
-0.0953298
-0.144415
-0.333639
-0.466528
-0.498948
-0.474234
-0.289445
-0.652782
15.4404
16.2116
20.3369
19.5763
16.047
9.66221
5.52528
2.98062
1.07715
0.835762
0.299164
0.000304875
-0.0841371
-0.0686649
-0.0693578
-0.0708411
-0.0730452
-0.0759535
-0.0805608
-0.0865765
-0.0990648
-0.120141
-0.111714
-0.231051
-0.372448
-0.500097
-0.491227
-0.434138
-0.289543
0.319016
14.8367
14.3868
19.073
17.9266
13.3838
7.42451
3.28009
1.13976
-0.0128363
-0.0984259
-0.0238496
0.00326692
-0.0860953
-0.0749352
-0.0755956
-0.0770797
-0.0794709
-0.0828473
-0.088173
-0.0952902
-0.109663
-0.13306
-0.120834
-0.249745
-0.39973
-0.506925
-0.477829
-0.42827
-0.304729
-0.26326
-2.67185
12.5203
18.1431
16.2848
11.4591
4.77521
1.40188
0.156122
-0.15597
-0.130924
-0.0295592
-0.00781503
-0.0889995
-0.0815187
-0.0821756
-0.0836693
-0.0861844
-0.0898666
-0.0957143
-0.103561
-0.118976
-0.1408
-0.142816
-0.260822
-0.415201
-0.510361
-0.470036
-0.43659
-0.30296
-0.339503
-0.552181
9.54884
17.1436
14.2618
8.76865
2.24199
0.263731
-0.0949288
-0.17177
-0.124199
-0.0326687
-0.0139972
-0.0923575
-0.0883467
-0.08901
-0.0905039
-0.093073
-0.0969117
-0.103031
-0.111293
-0.126677
-0.148745
-0.179137
-0.271886
-0.417951
-0.509996
-0.457176
-0.408147
-0.329624
-0.106857
0.964179
2.44842
15.0069
11.6342
5.22223
0.346798
-0.0636459
-0.118945
-0.177085
-0.138244
-0.0369436
-0.0311027
-0.0960879
-0.0953248
-0.095994
-0.0974708
-0.100027
-0.103893
-0.110056
-0.118478
-0.133572
-0.154917
-0.193129
-0.273152
-0.407238
-0.486875
-0.436916
-0.381358
-0.270188
-0.019296
0.0875079
-0.516194
10.49
7.63838
2.2039
-0.0895573
-0.101884
-0.124267
-0.181882
-0.14363
-0.0416396
-0.0371676
-0.0969843
-0.102342
-0.10301
-0.104449
-0.10693
-0.110706
-0.116689
-0.124105
-0.138089
-0.159924
-0.19568
-0.267791
-0.382789
-0.448537
-0.408103
-0.341291
-0.223072
-0.0837444
0.0296469
-0.45765
2.02943
1.03754
0.100621
-0.100399
-0.106106
-0.12858
-0.186873
-0.153462
-0.0477373
-0.0439881
-0.102986
-0.10927
-0.109927
-0.111307
-0.113666
-0.117261
-0.122886
-0.130251
-0.142372
-0.160786
-0.192789
-0.252772
-0.346067
-0.401919
-0.367658
-0.302194
-0.214592
-0.0557964
0.00295924
-0.158654
-0.202136
-0.142858
-0.117002
-0.108911
-0.110545
-0.133229
-0.191286
-0.159631
-0.0542774
-0.050582
-0.109287
-0.115996
-0.116632
-0.117939
-0.120147
-0.123498
-0.128596
-0.135556
-0.146722
-0.162905
-0.184799
-0.231999
-0.303824
-0.345985
-0.329558
-0.267581
-0.19312
-0.0810338
-0.038452
-0.20196
-0.178934
-0.150571
-0.125258
-0.115876
-0.115747
-0.137971
-0.19427
-0.164572
-0.060579
-0.0571968
-0.114642
-0.122439
-0.123047
-0.124274
-0.12632
-0.129402
-0.13394
-0.139985
-0.148962
-0.160359
-0.177296
-0.212479
-0.259501
-0.285401
-0.281916
-0.236117
-0.1785
-0.103094
-0.0727419
-0.179514
-0.181315
-0.148983
-0.132719
-0.123479
-0.12166
-0.142684
-0.195425
-0.167761
-0.0675631
-0.0642456
-0.119822
-0.128635
-0.129212
-0.130357
-0.132249
-0.135072
-0.139112
-0.14425
-0.151482
-0.158599
-0.170535
-0.197598
-0.223265
-0.243663
-0.230213
-0.217229
-0.168553
-0.111221
-0.0933795
-0.163352
-0.179272
-0.148554
-0.138781
-0.130627
-0.127958
-0.147229
-0.194952
-0.169245
-0.0753876
-0.0719092
-0.124987
-0.134769
-0.135301
-0.136346
-0.138057
-0.140582
-0.144084
-0.148378
-0.153468
-0.143726
-0.150147
-0.157904
-0.184057
-0.196721
-0.20541
-0.196853
-0.160471
-0.124612
-0.11003
-0.156346
-0.177029
-0.149712
-0.144228
-0.137297
-0.134502
-0.151991
-0.193244
-0.169639
-0.0839465
-0.080211
-0.130562
-0.140806
-0.141281
-0.142199
-0.143687
-0.14588
-0.148912
-0.152834
-0.155464
-0.137032
-0.146159
-0.178931
-0.18503
-0.188297
-0.191414
-0.18253
-0.158375
-0.134257
-0.123437
-0.15408
-0.174458
-0.152666
-0.149296
-0.143753
-0.141276
-0.156902
-0.191396
-0.169791
-0.093171
-0.0892303
-0.13659
-0.146423
-0.146838
-0.147615
-0.148866
-0.150734
-0.153426
-0.157446
-0.161413
-0.157734
-0.170569
-0.17787
-0.178798
-0.181329
-0.181464
-0.174485
-0.158372
-0.142611
-0.134984
-0.15508
-0.172244
-0.156606
-0.154439
-0.150449
-0.148299
-0.162037
-0.190039
-0.170437
-0.103026
-0.0988951
-0.143135
-0.151422
-0.151765
-0.152378
-0.153341
-0.154759
-0.156796
-0.159717
-0.163684
-0.168072
-0.173042
-0.175967
-0.176257
-0.176231
-0.175711
-0.170574
-0.159817