/*--------------------------------*- C++ -*----------------------------------*\
| =========                 |                                                 |
| \\      /  F ield         | OpenFOAM: The Open Source CFD Toolbox           |
|  \\    /   O peration     | Version:  2.4.0                                 |
|   \\  /    A nd           | Web:      www.OpenFOAM.org                      |
|    \\/     M anipulation  |                                                 |
\*---------------------------------------------------------------------------*/
FoamFile
{
    version     2.0;
    format      ascii;
    class       volScalarField;
    location    "0.152";
    object      p;
}
// * * * * * * * * * * * * * * * * * * * * * * * * * * * * * * * * * * * * * //

dimensions      [1 -1 -2 0 0 0 0];

internalField   nonuniform List<scalar> 
14400
(
102.632
102.794
98.1178
92.6591
87.2181
82.8718
80.6149
80.6032
82.8698
86.8244
90.8565
93.861
95.6188
96.4444
96.665
96.5337
96.2187
95.8257
95.4191
95.036
94.6961
94.4076
94.1711
93.9835
93.8393
93.7324
93.6566
93.606
93.5755
93.5605
99.3842
99.538
94.8602
89.3988
83.9522
79.5975
77.3336
77.3165
79.5885
83.5622
87.6246
90.6381
92.3859
93.2043
93.419
93.2817
92.9616
92.5642
92.1537
91.7672
91.4243
91.1333
90.8949
90.7058
90.5605
90.4528
90.3764
90.3254
90.2946
90.2795
96.1472
96.2979
91.6111
86.1418
80.6798
76.3027
74.0205
73.9838
76.2531
80.2677
84.3953
87.4335
89.1887
89.9967
90.199
90.0496
89.7182
89.3103
88.8901
88.4951
88.1449
87.8479
87.6048
87.412
87.264
87.1543
87.0765
87.0246
86.9933
86.978
92.9213
93.072
88.3697
82.8877
77.4003
72.9869
70.6758
70.6077
72.8691
76.9471
81.1716
84.2584
86.0256
86.822
87.0078
86.8407
86.4914
86.0665
85.6306
85.2216
84.8595
84.5526
84.3018
84.1031
83.9508
83.8381
83.7583
83.7051
83.6731
83.6574
89.7069
89.8608
85.136
79.6366
74.1136
69.6499
67.2998
67.1887
69.4371
73.6037
77.9565
81.1108
82.894
83.6776
83.8425
83.6521
83.2792
82.8316
82.3745
81.9467
81.5684
81.2481
80.9866
80.7799
80.6216
80.5048
80.4222
80.3673
80.3343
80.318
86.5038
86.6643
81.9098
76.3887
70.8197
66.2917
63.8923
63.7253
65.9541
70.2353
74.7509
77.9905
79.7929
80.5617
80.7008
80.4817
80.0798
79.604
79.1208
78.6695
78.2709
77.9338
77.6588
77.4417
77.2758
77.1536
77.0674
77.0101
76.9757
76.9588
83.3117
83.4821
78.691
73.1444
67.5187
62.9121
60.4536
60.2163
62.4164
66.8388
71.5554
74.8986
76.7229
77.4751
77.5822
77.3288
76.8925
76.3836
75.8694
75.39
74.967
74.6094
74.3179
74.088
73.9125
73.7835
73.6926
73.6323
73.596
73.5783
80.1305
80.3137
75.4793
69.9046
64.2109
59.5112
56.9837
56.6602
58.819
63.4103
68.3707
71.8366
73.6852
74.4165
74.4866
74.1934
73.7175
73.1703
72.6201
72.108
71.6561
71.2742
70.9629
70.7176
70.5306
70.3932
70.2965
70.2325
70.194
70.1752
76.9598
77.1585
72.2743
66.67
60.8962
56.0887
53.4832
53.055
55.1558
59.9447
65.1973
68.8059
70.6809
71.3869
71.4142
71.0755
70.5546
69.9641
69.3728
68.823
68.3377
67.9274
67.5929
67.3294
67.1287
66.9813
66.8777
66.8092
66.7681
66.748
73.7991
74.0156
69.0759
63.4419
57.5747
52.6446
49.9525
49.3986
51.4195
56.4356
62.0362
65.8085
67.7114
68.3868
68.3652
67.9752
67.4041
66.765
66.1276
65.5348
65.0112
64.568
64.2066
63.9219
63.7051
63.5461
63.4345
63.3608
63.3167
63.2953
70.6477
70.8842
65.8836
60.222
54.2463
49.1788
46.3924
45.6885
47.6012
52.8745
58.888
62.8467
64.7777
65.4173
65.3397
64.8926
64.266
63.5732
62.8843
62.2432
61.6761
61.1953
60.8028
60.4935
60.2582
60.0858
59.965
59.8855
59.8381
59.8152
67.5052
67.7627
62.697
57.0123
50.9108
45.6911
42.804
41.9222
43.6899
49.2494
55.7536
59.9226
61.8811
62.4788
62.3378
61.8276
61.1403
60.3887
59.643
58.9479
58.3315
57.8078
57.3797
57.0423
56.7857
56.598
56.4668
56.3807
56.3298
56.3056
64.3705
64.6497
59.5157
53.8156
47.5679
42.1813
39.1883
38.0974
39.6729
45.544
52.6334
57.0388
59.0257
59.5723
59.3598
58.7801
58.027
57.2116
56.4038
55.6488
54.977
54.4046
53.9358
53.566
53.285
53.08
52.9372
52.844
52.7893
52.7638
61.2427
61.543
56.3393
50.6349
44.2172
38.6492
35.5471
34.2123
35.5341
41.7362
49.5273
54.1982
56.2123
56.6985
56.4054
55.7499
54.9262
54.0422
53.1672
52.3459
51.6122
50.9845
50.469
50.0621
49.7533
49.5287
49.373
49.2722
49.2136
49.1871
58.1204
58.44
53.1671
47.4741
40.8581
35.0944
31.8821
30.2649
31.254
37.7953
46.4352
51.4039
53.4409
53.858
53.4746
52.7367
51.8379
50.8803
49.9335
49.0394
48.2365
47.5461
46.9772
46.5276
46.1871
45.9403
45.7704
45.6614
45.5992
45.5721
55.0021
55.3375
49.9984
44.3374
37.4896
31.5168
28.1958
26.2509
26.8098
33.6849
43.3556
48.6575
50.7138
51.0515
50.5675
49.7404
48.7618
47.7261
46.7035
45.7297
44.85
44.0885
43.4579
42.9591
42.582
42.3103
42.1249
42.0075
41.9421
41.9152
51.8858
52.2312
46.8323
41.2301
34.1104
27.9161
24.492
22.1677
22.18
29.3806
40.2874
45.9614
48.0317
48.2812
47.6842
46.7606
45.6978
44.5791
43.4785
42.4177
41.4533
40.6108
39.9087
39.3524
38.9332
38.6334
38.4311
38.3054
38.2376
38.2122
48.769
49.1158
43.6675
38.1582
30.7185
24.2918
20.7751
18.0265
17.3525
24.9147
37.2348
43.3219
45.3993
45.5447
44.8235
43.7962
42.6446
41.4388
40.2598
39.1046
38.0478
37.1124
36.3262
35.7024
35.2343
34.9027
34.6826
34.5492
34.4804
34.4583
45.6487
45.9845
40.5022
35.1289
27.3115
20.6435
17.0486
13.8526
12.3254
20.4199
34.2141
40.7333
42.8141
42.8498
41.9871
40.8474
39.6017
38.3046
37.0487
35.7919
34.6368
33.5936
32.7073
32.0031
31.4776
31.11
30.8713
30.7317
30.6646
30.6488
42.5211
42.829
37.334
32.1511
23.8861
16.9707
13.3156
9.68207
7.07188
16.0492
31.2477
38.2248
40.2641
40.1849
39.1728
37.9119
36.5695
35.1763
33.8435
32.4818
31.2265
30.0551
29.0475
28.2466
27.6531
27.2445
26.9871
26.8442
26.7833
26.7785
39.3817
39.6379
34.158
29.2366
20.4391
13.2726
9.58014
5.59633
1.5417
11.8867
28.3124
35.7393
37.7694
37.5678
36.3833
34.9927
33.5492
32.0448
30.6308
29.1852
27.8276
26.4986
25.3416
24.4223
23.7475
23.2926
23.0173
22.8762
22.8283
22.8414
36.2248
36.3969
30.9645
26.4027
16.968
9.54509
5.85276
1.71621
-4.28554
7.88882
25.423
33.3378
35.3008
34.9759
33.6164
32.0879
30.5471
28.8945
27.4067
25.9145
24.4521
22.9261
21.5839
20.518
19.744
19.2364
18.9466
18.816
18.7918
18.8331
33.0434
33.087
27.7272
23.6793
13.4746
5.76899
2.13623
-1.94339
-10.5423
4.34039
22.7352
30.9731
32.8307
32.3966
30.8741
29.1994
27.5752
25.7512
24.2111
22.6511
21.0977
19.3327
17.7656
16.5158
15.6194
15.0511
14.7534
14.6486
14.6663
14.7528
29.8292
29.6834
24.3711
21.0966
9.97103
1.90745
-0.443035
-0.377304
-8.302
1.87092
20.0408
28.6751
30.4191
29.8449
28.1628
26.3316
24.6397
22.6591
21.1052
19.345
17.7494
15.714
13.882
12.3934
11.3428
10.7029
10.4091
10.3541
10.4428
10.6017
26.572
26.1589
20.8379
18.5844
6.526
-2.76871
0.130177
-0.144282
-4.34042
-0.672641
17.7712
26.4555
27.9758
27.286
25.4692
23.4772
21.7322
19.5579
18.0193
16.0299
14.3496
12.0759
9.94567
8.13674
6.86945
6.14424
5.87408
5.90348
6.10791
6.38493
23.2595
22.4856
17.5857
16.1348
3.22778
-2.52112
0.143586
-0.225279
-0.543417
-1.52628
15.1295
24.3014
25.5083
24.7063
22.7671
20.6443
18.9263
16.3784
15.1021
12.8519
11.022
8.5322
5.94734
3.75494
2.10259
1.31055
1.10145
1.2584
1.64715
2.12201
19.8776
18.7505
14.3603
13.5912
0.303812
-0.114604
0.110196
-0.266644
-0.0168002
-8.30718
13.6074
22.3033
22.9897
22.0612
20.0533
17.8502
15.9589
13.188
12.0389
9.72959
7.95197
5.37231
1.86307
-0.74244
-3.18366
-3.895
-3.98233
-3.71215
-2.99729
-2.19222
16.41
23.6368
11.4266
11.5036
-4.6956
-0.0373319
0.0527716
-0.267612
-0.0244616
-10.3362
12.9483
19.6823
20.4064
19.389
17.1841
15.0711
12.4857
9.8909
9.13354
6.40299
5.38827
2.44319
-2.76369
-5.75696
-5.52586
-0.954754
-0.168125
-0.0383258
-0.00788435
-0.00175488
12.8627
13.6484
8.3456
8.47935
0.0158972
-0.0632362
0.00250287
-0.251493
0.0101815
-4.99054
12.0582
18.0525
17.9728
16.5104
13.644
12.2335
8.45039
7.02308
6.2064
2.3738
3.00192
-2.46882
-0.477264
-0.0486303
0.0237388
0.011274
0.0085701
0.00773025
0.00662939
0.00571126
9.22712
9.81778
7.97743
5.39131
-0.175629
-0.0735351
-0.0336967
-0.222352
0.0218206
-0.829005
7.53943
16.7124
15.2738
13.2354
11.0892
9.56213
5.17323
3.55428
3.49312
-4.54367
-0.264808
-0.0514441
-0.0176271
-0.0133399
0.00296638
0.0034436
0.00189033
0.000753498
0.000228331
9.84274e-05
93.5574
93.5649
93.5859
93.6246
93.6859
93.7756
93.8999
94.0658
94.2799
94.5484
94.8751
95.2588
95.6895
96.1431
96.5725
96.8964
96.9816
96.6203
95.5204
93.3536
89.9727
86.0143
82.974
82.0737
83.4904
86.6876
90.7694
94.8896
98.8527
101.826
90.2764
90.2839
90.3051
90.344
90.4058
90.4961
90.6213
90.7882
91.0039
91.2744
91.6037
91.9905
92.4249
92.8828
93.3172
93.6468
93.7382
93.3834
92.2916
90.1267
86.7307
82.7483
79.6879
78.79
80.2154
83.4193
87.506
91.6267
95.5937
98.5697
86.9747
86.9824
87.0038
87.0434
87.1061
87.1978
87.3251
87.4948
87.7143
87.9897
88.3252
88.7197
89.1633
89.6316
90.0775
90.4194
90.5236
90.181
89.0951
86.9161
83.4725
79.4316
76.3468
75.4677
76.9192
80.1432
84.2426
88.3646
92.3401
95.3244
83.654
83.6618
83.6836
83.724
83.7881
83.8819
84.0123
84.1866
84.4121
84.6956
85.0413
85.4483
85.9068
86.392
86.8563
87.2173
87.3399
87.0128
85.93
83.7226
80.2021
76.0728
72.9557
72.1087
73.602
76.8586
80.9786
85.1028
89.0912
92.0917
80.3145
80.3224
80.3449
80.3864
80.4523
80.5491
80.6839
80.8642
81.0981
81.3925
81.752
82.1759
82.6544
83.1625
83.6515
84.0378
84.1845
83.876
82.7944
80.5474
76.9239
72.6745
69.5149
68.7131
70.2639
73.5653
77.7141
81.8413
85.8472
88.8704
76.9551
76.9633
76.9865
77.0296
77.0981
77.1988
77.3391
77.5273
77.7717
78.0798
78.4565
78.9016
79.405
79.9414
80.4611
80.8788
81.0551
80.7689
79.688
77.3917
73.6382
69.2339
66.022
65.2806
66.9047
70.2635
74.4491
78.5798
82.6076
85.6607
73.5744
73.5829
73.6073
73.6525
73.7244
73.83
73.9774
74.1753
74.4325
74.7571
75.1546
75.625
76.1583
76.7284
77.2845
77.7396
77.9513
77.6917
76.612
74.2567
70.344
65.7474
62.4744
61.8109
63.5248
66.9533
71.1839
75.3184
79.3727
82.4626
70.1711
70.1802
70.2061
70.2539
70.33
70.4418
70.5978
70.8072
71.0797
71.4239
71.8458
72.3459
72.914
73.5236
74.1219
74.6204
74.8735
74.6451
73.5677
71.1437
67.0405
62.2103
58.869
58.3038
60.1243
63.6351
67.9188
72.0569
76.1424
79.2763
66.7437
66.7536
66.7813
66.8325
66.9137
67.0329
67.1991
67.4221
67.7124
68.0792
68.5294
69.0636
69.6718
70.3265
70.9732
71.5214
71.822
71.6302
70.5567
68.0541
63.7255
58.6163
55.2019
54.7591
56.7033
60.3088
64.6539
68.7953
72.9166
76.1016
63.2909
63.3017
63.3317
63.3869
63.4742
63.602
63.78
64.0188
64.3294
64.7221
65.2045
65.7777
66.4316
67.1374
67.8387
68.443
68.7976
68.6481
67.5809
64.9897
60.3968
54.9578
51.4688
51.1767
53.262
56.9751
61.3896
65.5334
69.695
72.9388
59.8108
59.8229
59.8557
59.9155
60.0099
60.1477
60.3392
60.5959
60.9296
61.3517
61.8705
62.4877
63.193
63.9564
64.7186
65.3854
65.8007
65.7001
64.6429
61.9519
57.0529
51.225
47.6646
47.5566
49.8006
53.6343
58.1263
62.2713
66.4778
69.7879
56.3013
56.315
56.3511
56.4164
56.5189
56.6681
56.8751
57.1519
57.5116
57.9666
58.5262
59.1928
59.9556
60.7833
61.6129
62.349
62.8319
62.7876
61.7409
58.9423
53.6896
47.4058
43.7834
43.8988
46.3195
50.2868
54.8642
59.0089
63.2644
66.6488
52.7601
52.7757
52.8158
52.8876
52.9995
53.1616
53.3858
53.6851
54.0738
54.5655
55.1707
55.8923
56.7193
57.6184
58.5221
59.334
59.8916
59.912
58.8772
55.9626
50.3011
43.4844
39.8192
40.2036
42.8188
46.9334
51.6038
55.7461
60.0548
63.5215
49.1843
49.2026
49.2476
49.3268
49.4494
49.6261
49.8695
50.1937
50.6146
51.147
51.8028
52.5857
53.4836
54.4617
55.4462
56.3408
56.9803
57.0744
56.0567
53.014
46.881
39.4398
35.7656
36.4717
39.299
43.5747
48.3455
52.4832
56.8487
60.4059
45.5708
45.5926
45.6436
45.7317
45.8665
46.0594
46.324
46.6758
47.132
47.7094
48.4212
49.2718
50.2482
51.3134
52.3857
53.3699
54.0981
54.276
53.2806
50.098
43.4176
35.2419
31.6175
32.7046
35.7604
40.2117
45.0895
49.2204
53.6452
57.3021
41.9164
41.9429
42.0011
42.0995
42.2481
42.4591
42.747
43.1288
43.6239
44.251
45.0246
45.9501
47.0126
48.1739
49.3411
50.4216
51.2449
51.5182
50.5498
47.2152
39.8949
30.849
27.371
28.9053
32.2036
36.8456
41.8364
45.9579
50.4434
54.2097
38.2174
38.2501
38.3173
38.4278
38.5921
38.823
39.1361
39.5504
40.088
40.7699
41.6118
42.6199
43.7766
45.0434
46.3133
47.4969
48.4221
48.8011
47.8648
44.3651
36.2945
26.2127
23.0162
25.0759
28.6285
33.4778
38.5869
42.6963
47.2413
51.1285
34.4694
34.5105
34.589
34.7139
34.8958
35.1482
35.4882
35.9373
36.5212
37.2639
38.1813
39.2806
40.5396
41.9223
43.3029
44.596
45.6272
46.1262
45.2354
41.5475
32.5989
21.3086
18.5376
21.2152
25.0352
30.1101
35.3414
39.4361
44.0476
48.0574
30.6687
30.7212
30.8138
30.9555
31.157
31.4323
31.8003
32.2859
32.9204
33.731
34.733
35.9319
37.3011
38.8109
40.3112
41.7203
42.8649
43.5004
42.6583
38.7617
28.817
16.1735
13.932
17.3235
21.4234
26.7445
32.1005
36.1782
40.865
44.9954
26.8116
26.8792
26.9895
27.1507
27.3735
27.6724
28.0683
28.5911
29.2805
30.1687
31.2667
32.572
34.0587
35.7106
37.3391
38.8686
40.1259
40.9086
40.109
36.0289
25.0068
10.8607
9.21935
13.412
17.7923
23.384
28.865
32.9235
37.6913
41.9411
22.8939
22.9821
23.1148
23.299
23.5443
23.8657
24.2872
24.8461
25.5951
26.5732
27.7814
29.203
30.7981
32.6258
34.3883
36.0406
37.4175
38.3553
37.6209
33.3412
21.2687
5.3557
4.44776
9.515
14.1404
20.0317
25.6357
29.6731
34.5256
38.8927
18.9137
19.0301
19.1912
19.4016
19.6695
20.0099
20.4513
21.0417
21.8547
22.9397
24.2762
25.8359
27.4945
29.569
31.4707
33.2237
34.7314
35.8386
35.1834
30.6317
17.675
-0.375191
-0.31192
5.69155
10.4666
16.6925
22.4133
26.4283
31.368
35.848
14.8749
15.029
15.2243
15.4621
15.7498
16.1021
16.5526
17.1613
18.0443
19.2627
20.7475
22.4923
24.1552
26.5462
28.587
30.4275
32.0722
33.3058
32.7654
28.1448
14.453
-6.08778
-5.08586
1.95184
6.77316
13.3746
19.1984
23.1907
28.2187
32.8041
10.7863
10.991
11.2253
11.4893
11.7923
12.1439
12.5838
13.1866
14.1438
15.5299
17.1916
19.1425
20.7204
23.5996
25.7354
27.6312
29.4401
30.789
30.3702
25.47
11.6136
-1.8249
-4.01553
-1.19379
3.08049
10.0988
15.9905
19.9619
25.0783
29.7574
6.667
6.93963
7.20989
7.49678
7.81583
8.149
8.54807
9.1192
10.1442
11.7428
13.6521
15.7155
16.6261
20.778
22.9148
24.8395
26.8072
28.2439
28.0463
23.1858
8.57881
-0.806317
0.493565
0.268401
-0.914418
6.92655
12.7882
16.7437
21.9479
26.7028
2.57249
2.92518
3.19279
3.48391
3.85634
4.12468
4.46465
4.92307
6.07401
7.93788
10.1098
12.2021
12.485
17.5215
20.0413
22.0361
24.1702
25.5965
25.7137
20.7221
7.64844
-11.0872
-0.0253545
-0.213899
-0.298065
3.89207
9.5851
13.538
18.8294
23.6331
-1.32971
-0.956766
-0.875719
-0.616482
0.0615779
-0.0464939
0.451501
0.459108
1.83283
4.056
6.22646
8.50763
9.60897
13.9667
16.9945
19.2123
21.5733
22.8751
23.4082
18.3623
5.76721
-3.40277
-0.0962233
-0.155718
-0.168931
-1.91883
6.35985
10.3435
15.7253
20.5398
0.00106508
-0.00573259
-0.0490664
-0.151556
-0.277668
-1.17381
-2.89532
-4.5566
-3.16492
0.33626
2.48573
4.39668
7.67568
10.5924
13.9341
16.2815
18.983
19.9704
21.1706
15.8227
4.55438
-0.18668
-0.147472
-0.12434
-0.155841
-0.147239
2.29036
7.15495
12.6406
17.4069
0.00486714
0.00466767
0.00465608
0.0037406
0.0011914
0.00311407
0.0244562
-0.00671839
0.0407999
-4.96357
-0.479381
0.0977841
5.43851
7.80703
11.1898
13.4446
16.0992
16.8037
19.1498
13.5771
-1.48457
0.0942987
-0.178335
-0.130099
-0.154136
-0.123127
-1.83012
3.96717
9.60024
14.1731
0.000135303
0.000293149
0.00045977
0.000534754
0.000457612
0.00326263
0.00871458
0.00410963
0.00730857
-0.00196308
-0.0244219
-2.2887
2.55057
6.10079
9.15663
11.1611
13.1563
13.3143
16.9579
13.1135
-12.6068
0.0775623
-0.176569
-0.134682
-0.154172
-0.133676
-0.0705391
-0.0951053
6.70234
10.6788
7.11399
6.63276
4.39694
-0.0319879
-0.12981
-0.084744
-0.0550983
-0.190879
0.0375051
-0.36883
1.73721
15.0704
12.9663
9.94606
10.7536
7.1697
3.12778
0.876385
-0.189534
0.00527571
-0.0323074
-0.0407681
-0.0235422
-0.0152087
-0.00739314
-0.00225957
-0.00467682
-0.00625413
-0.00602519
-0.0051822
5.66762
4.74129
-0.645564
0.0481569
-0.133781
-0.0899644
-0.066551
-0.172871
0.0365457
-0.0969944
-7.70544
14.4925
11.3043
8.29924
9.13489
5.57182
2.68191
-0.980297
0.146376
0.00554088
-0.0310075
-0.0393031
-0.023795
-0.0174035
-0.0117882
-0.00874617
-0.00731707
-0.0114029
-0.00996852
-0.00828178
4.44404
2.7598
-0.0822659
0.0278808
-0.134858
-0.0949018
-0.0791312
-0.155798
0.0311624
-0.00381127
-7.96015
14.1043
9.94046
6.83852
7.79872
4.20503
-0.805809
-0.138153
-0.00736937
-0.0192067
-0.029954
-0.040092
-0.0261596
-0.0213145
-0.017065
-0.0150036
-0.0144197
-0.00522637
-0.0138313
-0.0113295
3.56414
-1.3791
0.0389919
0.0115827
-0.135395
-0.0995023
-0.0916247
-0.141716
0.0172778
-0.000828219
-11.5596
13.0837
9.22173
5.74451
6.11634
2.56728
-0.836402
-0.117116
-0.0507177
-0.0338283
-0.0358391
-0.039326
-0.0302281
-0.0247808
-0.0222599
-0.0205068
-0.019731
-0.017888
-0.0122584
-0.013648
1.96315
0.0493516
0.0450814
0.00119261
-0.126839
-0.103702
-0.1018
-0.13182
-0.00775075
0.00243002
-4.2178
12.4646
8.88609
5.29584
3.86659
-2.59902
-0.0795055
-0.115398
-0.0717493
-0.0438895
-0.0412106
-0.0446051
-0.0322536
-0.0289381
-0.0270814
-0.0259597
-0.0168478
-0.0239804
-0.0205588
-0.0196147
-0.0197102
0.0323281
0.040387
-0.0155424
-0.146295
-0.107616
-0.108559
-0.126072
-0.0422141
0.358067
-1.90639
14.4437
8.39193
4.84798
0.0191357
-0.238787
-0.0622362
-0.110013
-0.079196
-0.0503092
-0.0466707
-0.0453433
-0.0345774
-0.0324483
-0.0319281
-0.0311347
-0.0320521
-0.00894203
-0.0216946
-0.0209341
-0.021539
0.0255871
0.0401014
-0.0373446
-0.145301
-0.111325
-0.113019
-0.124099
-0.0772766
-0.370515
-0.30255
2.46392
9.05681
3.56241
-0.0248673
-0.203597
-0.0926899
-0.107509
-0.0872932
-0.060607
-0.0421335
-0.0480733
-0.0345715
-0.0252143
-0.0239928
-0.02723
-0.0352519
-0.034207
-0.00508289
-0.0115212
-0.0264624
0.0561026
0.0357952
-0.0352003
-0.14417
-0.114934
-0.116429
-0.12468
-0.102303
-0.358701
-0.41001
-0.0655987
1.6482
0.136592
-0.0844848
-0.201447
-0.113028
-0.107969
-0.0889678
-0.067206
-0.0580075
-0.0528893
-0.0493018
-0.0435126
-0.0406915
-0.0387459
-0.0388319
-0.036857
-0.0337361
-0.0250373
-0.0332653
-0.0848091
0.0370442
-0.0575835
-0.143082
-0.118548
-0.119613
-0.127166
-0.117798
-0.336684
-0.392509
-0.0846922
-0.0742475
-0.0254908
-0.124756
-0.169897
-0.124351
-0.110883
-0.0920251
-0.0735993
-0.0642276
-0.0588567
-0.0552688
-0.0516971
-0.0467888
-0.0360148
-0.0395385
-0.0414114
-0.0368349
-0.0323225
-0.0435664
-0.106671
-0.0428407
-0.0689694
-0.142142
-0.122255
-0.122991
-0.130976
-0.137401
-0.32604
-0.334606
-0.0965447
-0.0727844
-0.123086
-0.138844
-0.154485
-0.13221
-0.11598
-0.0966347
-0.0800788
-0.0706393
-0.0649596
-0.0610672
-0.0577703
-0.055253
-0.0533028
-0.050995
-0.0451963
-0.0419099
-0.0396783
-0.0557903
-0.110814
-0.0964297
-0.0791913
-0.141523
-0.126127
-0.126789
-0.135515
-0.154239
-0.298138
-0.295256
-0.104776
-0.0758187
-0.135604
-0.154547
-0.146684
-0.142718
-0.123019
-0.102402
-0.0867799
-0.0773778
-0.0715648
-0.0675434
-0.0643721
-0.0617661
-0.0594201
-0.0568044
-0.054069
-0.052683
-0.049927
-0.0693895
-0.112799
-0.0932179
-0.0880055
-0.141369
-0.130215
-0.131067
-0.140482
-0.168869
-0.273808
-0.254321
-0.115145
-0.0575223
-0.148346
-0.169762
-0.167638
-0.121054
-0.131697
-0.108894
-0.0937947
-0.0845358
-0.0786862
-0.0746144
-0.0714479
-0.0687843
-0.0664037
-0.0641338
-0.0620612
-0.0604305
-0.0590736
-0.0833581
-0.114808
-0.095107
-0.0964371
-0.141808
-0.134552
-0.135813
-0.145792
-0.181646
-0.261316
-0.217729
-0.125253
-0.0731122
-0.162875
-0.179228
-0.191497
-0.139681
-0.145189
-0.116267
-0.10133
-0.0922362
-0.0863947
-0.0822761
-0.0790698
-0.0763959
-0.074095
-0.0720466
-0.0702199
-0.068623
-0.0671862
-0.0973212
-0.116865
-0.0964191
-0.104469
-0.142944
-0.139154
-0.141004
-0.15078
-0.187084
-0.24663
-0.198353
-0.140062
-0.0741224
-0.150948
-0.180637
-0.176181
-0.164793
-0.148068
-0.124806
-0.109829
-0.100715
-0.0948404
-0.0906503
-0.0873519
-0.084606
-0.082279
-0.0802652
-0.0784754
-0.0768071
-0.0751174
-0.110957
-0.119965
-0.100232
-0.111912
-0.144857
-0.144029
-0.146598
-0.155756
-0.177614
-0.209559
-0.166385
-0.148201
-0.109872
-0.180816
-0.181748
-0.184723
-0.115607
-0.15978
-0.135797
-0.119634
-0.110332
-0.104304
-0.0999335
-0.0964312
-0.0934859
-0.0909657
-0.0887679
-0.0867996
-0.0849612
-0.0831772
-0.124091
-0.124502
-0.104639
-0.119249
-0.147599
-0.149184
-0.152546
-0.160631
-0.174527
-0.18386
-0.142431
-0.14255
-0.148671
-0.191342
-0.183261
-0.191946
-0.139424
-0.174203
-0.145412
-0.130523
-0.121363
-0.115139
-0.110444
-0.106597
-0.103317
-0.100453
-0.0979096
-0.0956125
-0.0934744
-0.0913789
-0.136617
-0.130115
-0.110264
-0.12677
-0.151201
-0.15463
-0.158514
-0.166025
-0.170967
-0.180313
-0.123738
-0.131912
-0.19839
-0.206044
-0.175926
-0.196207
-0.155536
-0.172592
-0.155509
-0.142935
-0.134271
-0.127833
-0.122673
-0.118312
-0.114522
-0.111156
-0.108132
-0.105358
-0.102889
-0.100568
-0.148496
-0.136929
-0.118533
-0.134465
-0.15568
-0.160382
-0.164826
-0.172265
-0.178859
-0.174708
-0.122521
-0.134305
-0.248227
-0.2248
-0.171312
-0.185192
-0.189991
-0.175677
-0.167003
-0.157671
-0.149837
-0.143139
-0.137314
-0.132185
-0.127633
-0.123546
-0.119852
-0.116479
-0.113348
-0.11038
-0.159787
-0.144816
-0.123557
-0.142408
-0.161038
-0.166488
-0.171206
-0.178241
-0.18487
-0.174505
-0.135837
-0.150385
-0.274382
-0.223737
-0.176528
-0.174259
-0.182516
-0.183083
-0.180598
-0.175322
-0.168772
-0.161814
-0.155098
-0.148879
-0.143243
-0.138165
-0.133547
-0.129296
-0.125315
-0.121513
-0.170671
-0.154097
-0.126706
-0.150806
-0.167276
-0.172968
-0.176356
-0.184703
-0.194016
-0.181541
-0.154756
-0.169255
-0.206599
-0.145667
-0.126153
-0.170809
-0.185602
-0.19366
-0.197698
-0.196545
-0.191248
-0.183938
-0.175703
-0.168552
-0.161673
-0.155395
-0.149646
-0.144296
-0.139342
-0.135185
-0.181377
-0.163835
-0.136445
-0.159744
-0.174419
-0.179821
-0.183734
-0.191056
-0.205913
-0.1951
-0.174999
-0.184242
-0.232759
-0.11904
-0.128994
-0.169022
-0.192067
-0.207873
-0.217719
-0.219538
-0.214827
-0.207078
-0.197186
-0.189705
-0.182308
-0.175037
-0.168359
-0.162355
-0.156071
-0.151266
-0.19216
-0.17338
-0.141798
-0.169537
-0.182497
-0.187191
-0.189832
-0.194839
-0.220208
-0.206714
-0.192662
-0.193854
-0.214993
-0.185504
-0.142214
-0.178944
-0.204348
-0.225987
-0.237362
-0.239272
-0.234099
-0.22725
-0.218433
-0.211517
-0.201991
-0.193672
-0.187497
-0.17888
-0.172624
-0.166772
-0.203315
-0.184524
-0.142092
-0.180259
-0.191556
-0.195413
-0.19627
-0.203233
-0.230832
-0.221782
-0.205322
-0.201136
-0.204323
-0.188136
-0.124952
-0.140634
-0.225524
-0.245216
-0.252183
-0.251567
-0.247174
-0.240965
-0.234943
-0.229494
-0.221181
-0.210368
-0.199236
-0.189759
-0.181961
-0.176312
-0.215063
-0.198461
-0.13505
-0.192336
-0.201761
-0.204568
-0.205809
-0.208116
-0.224244
-0.229297
-0.214378
-0.207961
-0.2072
-0.206351
-0.0822385
-0.123149
-0.24606
-0.257987
-0.25922
-0.257071
-0.251122
-0.245614
-0.238323
-0.231621
-0.21334
-0.210566
-0.203649
-0.196231
-0.189597
-0.185152
-0.227445
-0.214973
-0.131068
-0.207015
-0.213237
-0.214717
-0.215631
-0.217807
-0.235937
-0.234937
-0.220668
-0.215324
-0.214015
-0.214236
-0.218616
-0.237879
-0.263119
-0.267635
-0.264934
-0.260937
-0.256379
-0.250998
-0.241141
-0.232321
-0.226997
-0.220942
-0.214089
-0.208628
-0.204309
-0.200921
-0.240174
-0.237791
-0.113956
-0.227587
-0.225898
-0.225908
-0.22654
-0.228524
-0.23563
-0.234992
-0.227891
-0.223909
-0.22157
-0.218797
-0.218746
-0.233998
-0.256296
-0.261743
-0.26109
-0.259925
-0.259566
-0.259642
-0.256859
-0.254042
-0.248844
-0.243996
-0.239084
-0.235198
-0.231614
-0.22847
-0.252508
-0.26441
-0.0629806
-0.254037
-0.239164
-0.238154
-0.238592
-0.23972
-0.242461
-0.241425
-0.237627
-0.234344
-0.231278
-0.227529
-0.223269
-0.219789
-0.231727
-0.242692
-0.242103
-0.251254
-0.260539
-0.26859
-0.27467
-0.277818
-0.279092
-0.278307
-0.276245
-0.272569
-0.266596
-0.263596
-0.264562
-0.268456
-0.220259
-0.260346
-0.25249
-0.251487
-0.2518
-0.252488
-0.253421
-0.252427
-0.249911
-0.247066
-0.243853
-0.24
-0.235879
-0.233709
-0.223706
-0.214265
-0.239552
-0.247432
-0.261988
-0.276575
-0.288373
-0.296097
-0.301295
-0.305856
-0.308418
-0.268743
-0.250418
-0.225738
-0.277243
-0.273617
-0.254307
-0.269486
-0.2666
-0.265985
-0.266195
-0.266576
-0.266805
-0.266041
-0.264399
-0.262271
-0.259742
-0.256992
-0.254702
-0.254353
-0.258768
-0.265872
-0.26388
-0.259494
-0.26627
-0.276445
-0.283151
-0.28784
-0.290975
-0.292813
-0.291499
-0.291149
-0.286586
-0.266655
-0.291088
-0.284502
-0.274257
-0.282794
-0.281995
-0.281726
-0.281841
-0.281998
-0.282005
-0.281619
-0.280869
-0.279828
-0.278571
-0.277358
-0.276709
-0.277226
-0.279116
-0.281728
-0.283385
-0.28461
-0.285965
-0.287028
-0.287633
-0.28811
-0.288132
-0.287959
-0.287835
-0.288116
-0.288962
-0.288695
-0.00437411
-0.00370215
-0.00324249
-0.00285688
-0.00224459
4.23406e-05
0.00315576
0.00262332
0.00346806
0.00388212
-0.00557367
0.00667322
-2.14673
5.60019
7.37289
9.00967
11.1356
9.80441
15.6455
14.0454
2.15989
0.081479
-0.158789
-0.12411
-0.153062
-0.140134
-0.0770816
-0.0718843
3.83605
7.34518
-0.00694993
-0.00596408
-0.0053396
-0.00491093
-0.00416322
-0.00206091
0.000935308
0.00146586
0.0251491
0.00151747
-0.0107278
0.0110579
-0.402399
1.63806
6.12459
7.82975
9.94886
7.72769
15.2427
13.9179
-6.43608
0.088164
-0.148147
-0.116036
-0.15184
-0.142407
-0.0764555
-0.139402
-0.470329
5.20779
-0.00951396
-0.00827868
-0.00758361
-0.0071779
-0.00647166
-0.00454254
-0.00126073
0.000287424
0.000988726
-0.00305179
-0.0217901
-0.0121106
-0.181015
-1.56138
4.63801
6.67813
8.62807
5.70594
14.8313
13.1335
-4.40984
0.0922054
-0.139113
-0.109766
-0.150454
-0.143995
-0.0782279
-0.14123
-0.310857
3.03622
-0.0118006
-0.0104602
-0.00986868
-0.00953806
-0.00914802
-0.00741964
-0.00355438
-0.0011052
-0.00349905
-0.0164238
-0.0340996
-0.0292509
-0.147826
-0.0680387
-2.31481
5.65041
7.29908
4.17472
13.7768
12.2261
-0.407949
0.0254043
-0.133453
-0.10537
-0.149212
-0.144952
-0.0813782
-0.139747
-0.149188
0.62179
-0.00775359
-0.0120733
-0.0121253
-0.0120903
-0.0122495
-0.0107261
-0.00596279
-0.0029201
-0.00826802
-0.0233321
-0.0444249
-0.0385226
-0.124762
-0.0553518
-0.0574712
2.21725
5.90541
3.61871
12.3863
31.8789
0.0263815
-0.0066729
-0.131279
-0.103392
-0.148205
-0.145413
-0.085579
-0.137148
-0.13083
-0.002044
-0.0176621
-0.0169402
-0.0110748
-0.0155377
-0.0156549
-0.014188
-0.00838862
-0.00501663
-0.0139816
-0.0302425
-0.0502331
-0.0373035
-0.105817
-0.0638085
-0.123971
-0.122562
3.92538
2.25346
11.4771
0.157415
-0.309268
-0.128603
-0.133386
-0.103462
-0.147462
-0.145632
-0.0904785
-0.134999
-0.131156
-0.057421
-0.0147962
-0.0166254
-0.0150533
-0.0168551
-0.016276
-0.0176606
-0.000365235
-0.00649143
-0.020803
-0.0381274
-0.0533721
-0.0168301
-0.0967199
-0.0761734
-0.11463
-0.127141
-0.0577653
0.504945
11.5691
0.017998
-0.333825
0.0150817
-0.140356
-0.105001
-0.146976
-0.14582
-0.0957965
-0.133072
-0.135963
-0.108156
-0.0176506
-0.0185714
-0.0184001
-0.0226738
-0.0227928
-0.0191006
0.0159555
0.0101976
-0.0287101
-0.0483175
-0.0559568
-0.0230243
-0.0925149
-0.0863269
-0.115515
-0.121342
-0.0654017
-0.107466
-0.145709
-0.0539672
-0.318422
-0.102511
-0.145018
-0.107881
-0.146793
-0.146099
-0.101557
-0.131355
-0.135106
-0.115687
-0.0294956
-0.0221909
-0.0130632
-0.0155179
-0.0267591
-0.0212479
0.014081
0.000307114
-0.0377623
-0.0627409
-0.0680309
-0.0272837
-0.0888067
-0.0932556
-0.115216
-0.126397
-0.0838396
-0.116227
-0.142136
-0.0885489
-0.282483
-0.124399
-0.146564
-0.111942
-0.146977
-0.14661
-0.107555
-0.130301
-0.134481
-0.130105
-0.0363062
-0.0344099
-0.0311432
-0.0378556
-0.030466
-0.0220453
-0.012738
-0.00894727
-0.0539409
-0.0887745
-0.0887857
-0.0585657
-0.0888294
-0.0919945
-0.116092
-0.123981
-0.100405
-0.122772
-0.141741
-0.108029
-0.237911
-0.131968
-0.14535
-0.116986
-0.14759
-0.147447
-0.113655
-0.130083
-0.134272
-0.131758
-0.0493869
-0.047422
-0.0435823
-0.0410772
-0.0331074
-0.0221515
-0.0132522
-0.00245192
-0.0777203
-0.117946
-0.10942
-0.0919317
-0.094208
-0.0939268
-0.115272
-0.121268
-0.116344
-0.131618
-0.143987
-0.112546
-0.201647
-0.124946
-0.141014
-0.122646
-0.148682
-0.148673
-0.119795
-0.130766
-0.134557
-0.133769
-0.0576973
-0.054799
-0.0525943
-0.0478046
-0.0404084
-0.0287414
-0.0243563
0.39461
0.617954
0.577983
-0.124415
-0.0991924
-0.09816
-0.103952
-0.117988
-0.123062
-0.132184
-0.136222
-0.142029
-0.137007
-0.177531
-0.120468
-0.137167
-0.128624
-0.150291
-0.150324
-0.125936
-0.132351
-0.135553
-0.136212
-0.0640983
-0.0627004
-0.0616936
-0.059367
-0.0583052
-0.0642898
-0.0446945
0.884093
0.661653
0.417153
-0.12037
-0.10315
-0.0963907
-0.108157
-0.12032
-0.130125
-0.135575
-0.163992
-0.140806
-0.137237
-0.166991
-0.126583
-0.143875
-0.135009
-0.152429
-0.152424
-0.132055
-0.134805
-0.137345
-0.139126
-0.0738095
-0.0721432
-0.0711624
-0.0713364
-0.0742179
-0.0838641
-0.108456
0.0962818
0.739326
-0.0457749
-0.120207
-0.106138
-0.105647
-0.110926
-0.123613
-0.133987
-0.158254
-0.194345
-0.165901
-0.140223
-0.166368
-0.137476
-0.150306
-0.141476
-0.155097
-0.154987
-0.138151
-0.138087
-0.139961
-0.142517
-0.0814858
-0.0796344
-0.079466
-0.0783007
-0.0782423
-0.085568
-0.00341044
-0.0456983
-0.0886237
-0.109851
-0.112358
-0.108019
-0.108882
-0.113755
-0.128217
-0.133462
-0.199619
-0.217298
-0.186711
-0.149671
-0.172842
-0.148369
-0.149211
-0.147905
-0.158277
-0.158024
-0.144237
-0.142143
-0.14338
-0.146365
-0.0872703
-0.088351
-0.0858349
-0.0828639
-0.0791538
-0.0767728
-0.0815361
-0.0809244
-0.097356
-0.0941029
-0.107724
-0.0955298
-0.113974
-0.118924
-0.133382
-0.165467
-0.220311
-0.234838
-0.202398
-0.168139
-0.176717
-0.15774
-0.156327
-0.154183
-0.161952
-0.161549
-0.15035
-0.146915
-0.14757
-0.150668
-0.0983513
-0.0958589
-0.0927789
-0.0888736
-0.0867112
-0.0858152
-0.0880675
-0.0919034
-0.102003
-0.0980496
-0.101087
-0.113711
-0.118135
-0.125283
-0.140216
-0.170251
-0.233539
-0.246788
-0.215511
-0.177728
-0.174285
-0.163454
-0.161584
-0.160568
-0.166124
-0.165578
-0.156538
-0.152357
-0.152498
-0.15545
-0.107519
-0.104525
-0.101351
-0.0939937
-0.0940236
-0.0940673
-0.0913977
-0.0954101
-0.111422
-0.119747
-0.124109
-0.123013
-0.125649
-0.132388
-0.146562
-0.154514
-0.24729
-0.250408
-0.221833
-0.181537
-0.179893
-0.169915
-0.167422
-0.167027
-0.170819
-0.170139
-0.16287
-0.158429
-0.158128
-0.160749
-0.117843
-0.113048
-0.109975
-0.106487
-0.102549