/*--------------------------------*- C++ -*----------------------------------*\
| =========                 |                                                 |
| \\      /  F ield         | OpenFOAM: The Open Source CFD Toolbox           |
|  \\    /   O peration     | Version:  2.4.0                                 |
|   \\  /    A nd           | Web:      www.OpenFOAM.org                      |
|    \\/     M anipulation  |                                                 |
\*---------------------------------------------------------------------------*/
FoamFile
{
    version     2.0;
    format      ascii;
    class       surfaceScalarField;
    location    "0.353";
    object      phiAlpha;
}
// * * * * * * * * * * * * * * * * * * * * * * * * * * * * * * * * * * * * * //

dimensions      [0 3 -1 0 0 0 0];

internalField   nonuniform List<scalar> 
19800
(
-5.72429e-60
6.62556e-64
1.01483e-59
-2.78735e-56
1.63827e-55
-2.09352e-52
4.42832e-52
-3.44397e-49
2.99147e-49
-1.45459e-46
5.96434e-47
-1.93615e-44
4.48739e-45
-1.04486e-42
1.54891e-43
-2.74422e-41
2.79729e-42
-3.95205e-40
2.90927e-41
-3.39781e-39
1.94378e-40
-1.92209e-38
9.33674e-40
-7.9015e-38
3.69081e-39
-2.68856e-37
1.41833e-38
-8.93825e-37
5.73713e-38
-3.14813e-36
2.45268e-37
-1.17344e-35
1.17278e-36
-4.82806e-35
6.05295e-36
-2.1398e-34
3.01473e-35
-9.15956e-34
1.43499e-34
-3.7411e-33
6.40647e-34
-1.43897e-32
2.64823e-33
-5.13634e-32
1.0154e-32
-1.69772e-31
3.60603e-32
-5.16499e-31
1.1764e-31
-1.43449e-30
3.46237e-31
-3.55886e-30
9.02086e-31
-7.66236e-30
2.04571e-30
-1.39522e-29
3.81714e-30
-2.05041e-29
5.35109e-30
-2.28104e-29
5.5673e-30
-1.89921e-29
4.31564e-30
-1.19252e-29
2.56412e-30
-5.8751e-30
1.22035e-30
-2.5017e-30
4.91699e-31
-1.05384e-30
1.76972e-31
-4.71407e-31
5.86816e-32
-2.12782e-31
1.79041e-32
-8.89001e-32
4.9299e-33
-3.24726e-32
1.20078e-33
-1.00737e-32
2.53414e-34
-2.59914e-33
4.55681e-35
-5.5089e-34
6.85991e-36
-9.4847e-35
8.49452e-37
-1.31093e-35
8.54149e-38
-1.44155e-36
7.36739e-39
-1.31605e-37
2.08512e-39
-2.97671e-38
4.88103e-39
-5.10016e-38
1.29223e-38
-8.9594e-38
-7.53404e-38
3.179e-38
3.53327e-60
-6.5629e-58
1.45334e-55
-5.12835e-53
1.03401e-51
-3.18278e-49
2.06564e-48
-4.70818e-46
1.09062e-45
-1.69417e-43
1.79324e-43
-1.95349e-41
1.17107e-41
-9.41881e-40
3.64665e-40
-2.26964e-38
6.11688e-39
-3.07135e-37
6.03589e-38
-2.529e-36
3.87161e-37
-1.38407e-35
1.78655e-36
-5.50503e-35
6.7649e-36
-1.80195e-34
2.48385e-35
-5.72029e-34
9.59586e-35
-1.91829e-33
3.89905e-34
-6.78471e-33
1.73911e-33
-2.60807e-32
8.316e-33
-1.06905e-31
3.82633e-32
-4.2407e-31
1.67591e-31
-1.59489e-30
6.90881e-31
-5.63267e-30
2.6476e-30
-1.85566e-29
9.43769e-30
-5.68801e-29
3.12091e-29
-1.6125e-28
9.53324e-29
-4.19009e-28
2.64437e-28
-9.81279e-28
6.50611e-28
-2.01803e-27
1.39224e-27
-3.53202e-27
2.48957e-27
-5.0835e-27
3.51169e-27
-5.75109e-27
3.87703e-27
-5.06836e-27
3.3561e-27
-3.50765e-27
2.30131e-27
-1.96552e-27
1.2842e-27
-9.61931e-28
6.06094e-28
-4.56818e-28
2.51665e-28
-2.22658e-28
9.42805e-29
-1.07582e-28
3.20529e-29
-4.81571e-29
9.81649e-30
-1.89974e-29
2.67606e-30
-6.42082e-30
6.37741e-31
-1.82163e-30
1.31027e-31
-4.28632e-31
2.29072e-32
-8.27197e-32
3.36653e-33
-1.29563e-32
4.13148e-34
-1.63641e-33
4.44817e-35
-1.76278e-34
1.27299e-35
-5.14012e-35
3.06414e-35
-9.85703e-35
9.23011e-35
-1.76565e-34
-4.60587e-35
2.62758e-34
2.66204e-57
-3.99562e-55
9.94037e-53
-1.87271e-50
6.91402e-49
-1.24839e-46
1.25374e-45
-1.70804e-43
5.5704e-43
-5.24529e-41
7.82533e-41
-5.247e-39
4.51343e-39
-2.25679e-37
1.27803e-37
-4.97945e-36
2.00079e-36
-6.32647e-35
1.88116e-35
-4.99134e-34
1.16279e-34
-2.64571e-33
5.17583e-34
-1.02052e-32
1.881e-33
-3.2137e-32
6.58311e-33
-9.70577e-32
2.4184e-32
-3.08011e-31
9.31611e-32
-1.02862e-30
3.88029e-31
-3.69856e-30
1.71579e-30
-1.40328e-29
7.31711e-30
-5.17408e-29
2.95229e-29
-1.79849e-28
1.11817e-28
-5.82932e-28
3.95769e-28
-1.7678e-27
1.30914e-27
-5.02062e-27
4.03558e-27
-1.32802e-26
1.15324e-26
-3.23796e-26
3.01684e-26
-7.16249e-26
7.07428e-26
-1.40648e-25
1.44917e-25
-2.37479e-25
2.52047e-25
-3.34898e-25
3.57595e-25
-3.8121e-25
4.10867e-25
-3.47193e-25
3.82477e-25
-2.54216e-25
2.89136e-25
-1.53723e-25
1.80473e-25
-8.21126e-26
9.58228e-26
-4.25946e-26
4.46018e-26
-2.25636e-26
1.85827e-26
-1.17989e-26
6.98587e-27
-5.71267e-27
2.36235e-27
-2.44318e-27
7.12297e-28
-8.96877e-28
1.8866e-28
-2.77411e-28
4.33893e-29
-7.14293e-29
8.56554e-30
-1.51387e-29
1.4376e-30
-2.61588e-30
2.04587e-31
-3.66623e-31
2.63507e-32
-4.57187e-32
9.94492e-33
-1.99766e-32
2.80117e-32
-4.42055e-32
9.70611e-32
-7.50208e-32
2.61396e-34
3.28936e-31
4.75487e-55
-5.49113e-53
2.05669e-50
-2.82107e-48
1.66426e-46
-2.377e-44
2.83267e-43
-2.88904e-41
1.07297e-40
-7.46822e-39
1.30124e-38
-6.45829e-37
6.66013e-37
-2.47095e-35
1.71897e-35
-4.99145e-34
2.51734e-34
-5.95657e-33
2.2612e-33
-4.50688e-32
1.35064e-32
-2.31738e-31
5.81987e-32
-8.69451e-31
2.03195e-31
-2.63656e-30
6.75818e-31
-7.55864e-30
2.34752e-30
-2.25646e-29
8.53354e-30
-7.07647e-29
3.32335e-29
-2.38048e-28
1.35992e-28
-8.37068e-28
5.39022e-28
-2.87249e-27
2.01012e-27
-9.25611e-27
6.98777e-27
-2.7629e-26
2.27689e-26
-7.70931e-26
6.97842e-26
-2.02722e-25
2.00691e-25
-5.00569e-25
5.37926e-25
-1.14727e-24
1.32823e-24
-2.40147e-24
2.97059e-24
-4.49986e-24
5.86083e-24
-7.33409e-24
9.96544e-24
-1.01141e-23
1.41841e-23
-1.15014e-23
1.67799e-23
-1.06547e-23
1.64489e-23
-8.06719e-24
1.33435e-23
-5.1085e-24
9.049e-24
-2.88657e-24
5.24795e-24
-1.60251e-24
2.66966e-24
-9.17536e-25
1.21374e-24
-5.20068e-25
4.97538e-25
-2.72545e-25
1.83688e-25
-1.25966e-25
6.05232e-26
-4.98986e-26
1.75744e-26
-1.66635e-26
4.44746e-27
-4.63037e-27
9.70061e-28
-1.05895e-27
1.80941e-28
-1.97503e-28
2.88597e-29
-2.99347e-29
4.36815e-30
-4.32496e-30
2.53493e-30
-2.93234e-30
8.69711e-30
-6.89593e-30
3.40703e-29
-8.81772e-30
3.42809e-31
1.32373e-28
3.66076e-53
-3.61947e-51
2.07115e-48
-2.75332e-46
2.21654e-44
-2.81998e-42
3.39857e-41
-2.83065e-39
1.08701e-38
-6.08198e-37
1.13873e-36
-4.52991e-35
5.17409e-35
-1.54243e-33
1.21995e-33
-2.85713e-32
1.67474e-32
-3.2065e-31
1.44026e-31
-2.32934e-30
8.33374e-31
-1.16382e-29
3.48899e-30
-4.26087e-29
1.17197e-29
-1.24677e-28
3.69744e-29
-3.39032e-28
1.20748e-28
-9.47703e-28
4.12006e-28
-2.77562e-27
1.50061e-27
-8.72294e-27
5.68937e-27
-2.84459e-26
2.09824e-26
-9.09334e-26
7.25197e-26
-2.72116e-25
2.32101e-25
-7.50533e-25
6.95608e-25
-1.9325e-24
1.9731e-24
-4.70718e-24
5.29416e-24
-1.08502e-23
1.33303e-23
-2.33963e-23
3.11235e-23
-4.63851e-23
6.63764e-23
-8.29334e-23
1.26361e-22
-1.30346e-22
2.1018e-22
-1.75398e-22
2.99388e-22
-1.97928e-22
3.61703e-22
-1.84509e-22
3.69157e-22
-1.42086e-22
3.16254e-22
-9.22096e-23
2.28493e-22
-5.39043e-23
1.41881e-22
-3.16218e-23
7.7458e-23
-1.95702e-23
3.78536e-23
-1.20685e-23
1.67109e-23
-6.84986e-24
6.65883e-24
-3.40971e-24
2.37093e-24
-1.44932e-24
7.45731e-25
-5.18178e-25
2.04621e-25
-1.53794e-25
4.84598e-26
-3.74821e-26
9.83791e-27
-7.43123e-27
1.71707e-27
-1.19695e-27
3.06703e-28
-2.00734e-28
2.85411e-28
-1.87716e-28
1.12179e-27
-4.1084e-28
4.62728e-27
-1.89524e-28
9.85325e-29
1.82638e-26
1.63452e-51
-1.52616e-49
1.48407e-46
-2.38563e-44
1.98606e-42
-2.25926e-40
2.5438e-39
-1.78433e-37
6.79089e-37
-3.16754e-35
6.1331e-35
-2.0351e-33
2.47915e-33
-6.19367e-32
5.35551e-32
-1.05479e-30
6.90741e-31
-1.11453e-29
5.69815e-30
-7.77933e-29
3.20121e-29
-3.78215e-28
1.30689e-28
-1.35525e-27
4.23348e-28
-3.83917e-27
1.26624e-27
-9.90971e-27
3.87038e-27
-2.58684e-26
1.23283e-26
-7.03918e-26
4.1933e-26
-2.05896e-25
1.47379e-25
-6.22463e-25
5.06091e-25
-1.85608e-24
1.62349e-24
-5.1658e-24
4.79794e-24
-1.3202e-23
1.32585e-23
-3.14482e-23
3.48039e-23
-7.11043e-23
8.70831e-23
-1.5316e-22
2.06066e-22
-3.10993e-22
4.55231e-22
-5.84326e-22
9.25749e-22
-9.95964e-22
1.69979e-21
-1.50651e-21
2.76422e-21
-1.97442e-21
3.92716e-21
-2.19859e-21
4.82272e-21
-2.04281e-21
5.08878e-21
-1.57684e-21
4.55834e-21
-1.02943e-21
3.46436e-21
-6.10474e-22
2.27165e-21
-3.75988e-22
1.31425e-21
-2.53671e-22
6.83101e-22
-1.71626e-22
3.21792e-22
-1.05739e-22
1.37186e-22
-5.65727e-23
5.23599e-23
-2.57102e-23
1.76761e-23
-9.79214e-24
5.20609e-24
-3.08806e-24
1.32329e-24
-7.97433e-25
2.88392e-25
-1.66851e-25
5.42571e-26
-2.82917e-26
1.15067e-26
-5.33012e-27
1.54088e-26
-5.64796e-27
6.28728e-26
-1.0206e-26
2.53729e-25
3.8407e-28
8.83895e-27
9.41863e-25
5.15272e-50
-4.93071e-48
1.0051e-44
-1.81705e-42
1.26714e-40
-1.25217e-38
1.2883e-37
-7.69147e-36
2.85296e-35
-1.13358e-33
2.22624e-33
-6.32403e-32
8.04688e-32
-1.72762e-30
1.59796e-30
-2.71047e-29
1.93979e-29
-2.69808e-28
1.53689e-28
-1.8097e-27
8.39817e-28
-8.56895e-27
3.35434e-27
-3.01233e-26
1.05157e-26
-8.29703e-26
2.98453e-26
-2.03783e-25
8.51613e-26
-4.96441e-25
2.51939e-25
-1.24989e-24
7.97213e-25
-3.3825e-24
2.59611e-24
-9.47105e-24
8.30981e-24
-2.63566e-23
2.47706e-23
-6.83307e-23
6.77569e-23
-1.62174e-22
1.72993e-22
-3.58228e-22
4.20893e-22
-7.53601e-22
9.82506e-22
-1.51998e-21
2.18556e-21
-2.91139e-21
4.56858e-21
-5.18737e-21
8.84761e-21
-8.42361e-21
1.56383e-20
-1.22363e-20
2.48401e-20
-1.55697e-20
3.5092e-20
-1.703e-20
4.36326e-20
-1.56442e-20
4.7383e-20
-1.19221e-20
4.41132e-20
-7.67487e-21
3.49503e-20
-4.51647e-21
2.39675e-20
-2.91816e-21
1.45686e-20
-2.19009e-21
7.99644e-21
-1.64864e-21
3.99551e-21
-1.10695e-21
1.81284e-21
-6.36163e-22
7.38516e-22
-3.08551e-22
2.66383e-22
-1.25007e-22
8.38644e-23
-4.18547e-23
2.27798e-23
-1.14456e-23
5.30091e-24
-2.5245e-24
1.06781e-24
-4.48377e-25
2.61512e-25
-8.85358e-26
4.19191e-25
-8.84427e-26
1.67243e-24
-1.13786e-25
6.39657e-24
3.17384e-26
3.25052e-25
2.21189e-23
1.3248e-48
-1.62285e-46
6.26037e-43
-1.03495e-40
5.81672e-39
-4.9548e-37
4.63032e-36
-2.38872e-34
8.54271e-34
-2.94468e-32
5.79828e-32
-1.43483e-30
1.88274e-30
-3.53004e-29
3.4454e-29
-5.10874e-28
3.94034e-28
-4.79001e-27
2.99979e-27
-3.08509e-26
1.59626e-26
-1.42273e-25
6.25398e-26
-4.91332e-25
1.90597e-25
-1.32215e-24
5.14626e-25
-3.1024e-24
1.37004e-24
-7.06452e-24
3.74871e-24
-1.64087e-23
1.09694e-23
-4.08189e-23
3.30615e-23
-1.05583e-22
9.86714e-23
-2.74086e-22
2.73646e-22
-6.63085e-22
6.94064e-22
-1.46449e-21
1.64019e-21
-3.00644e-21
3.70505e-21
-5.89721e-21
8.0795e-21
-1.1168e-20
1.6912e-20
-2.02095e-20
3.34443e-20
-3.42047e-20
6.15947e-20
-5.29662e-20
1.04523e-19
-7.38017e-20
1.61694e-19
-9.09152e-20
2.26549e-19
-9.73571e-20
2.84569e-19
-8.78082e-20
3.17242e-19
-6.49096e-20
3.05792e-19
-4.01918e-20
2.5083e-19
-2.26794e-20
1.78452e-19
-1.54885e-20
1.132e-19
-1.34706e-20
6.5327e-20
-1.14994e-20
3.45318e-20
-8.44472e-21
1.66493e-20
-5.21312e-21
7.23416e-21
-2.69738e-21
2.78855e-21
-1.16343e-21
9.3929e-22
-4.14415e-22
2.72982e-22
-1.20384e-22
6.78896e-23
-2.80887e-23
1.46119e-23
-5.2213e-24
3.87728e-24
-1.005e-24
6.29425e-24
-8.0003e-25
2.39821e-23
-4.94258e-25
8.68913e-23
8.38056e-25
6.00187e-24
2.79962e-22
3.62353e-47
-8.42406e-45
3.01634e-41
-4.33354e-39
1.96446e-37
-1.46251e-35
1.23353e-34
-5.57666e-33
1.909e-32
-5.79183e-31
1.13355e-30
-2.47611e-29
3.31789e-29
-5.49888e-28
5.6038e-28
-7.34353e-27
6.03851e-27
-6.47797e-26
4.41523e-26
-3.9988e-25
2.28854e-25
-1.79393e-24
8.80894e-25
-6.08601e-24
2.62291e-24
-1.60722e-23
6.7657e-24
-3.62221e-23
1.68335e-23
-7.73977e-23
4.24788e-23
-1.65694e-22
1.14199e-22
-3.7673e-22
3.17704e-22
-8.96127e-22
8.83464e-22
-2.16659e-21
2.28278e-21
-4.90067e-21
5.37721e-21
-1.00941e-20
1.17812e-20
-1.92896e-20
2.47447e-20
-3.53698e-20
5.05059e-20
-6.3019e-20
9.95387e-20
-1.07944e-19
1.86336e-19
-1.73876e-19
3.26261e-19
-2.57352e-19
5.3031e-19
-3.44613e-19
7.96289e-19
-4.11516e-19
1.10417e-18
-4.32677e-19
1.40053e-18
-3.82071e-19
1.60375e-18
-2.6725e-19
1.59778e-18
-1.53977e-19
1.34627e-18
-7.78248e-20
9.85528e-19
-5.75656e-20
6.48914e-19
-6.27084e-20
3.92658e-19
-6.19311e-20
2.19577e-19
-4.97311e-20
1.12735e-19
-3.29146e-20
5.23818e-20
-1.81683e-20
2.16544e-20
-8.36436e-21
7.83743e-21
-3.18364e-21
2.44953e-21
-9.87818e-22
6.54728e-22
-2.45195e-22
1.50899e-22
-4.78117e-23
4.06126e-23
-8.59097e-24
5.77953e-23
-4.58521e-24
2.0793e-22
2.33732e-25
7.15427e-22
1.12031e-23
6.46139e-23
2.17526e-21
1.61331e-45
-5.19734e-43
1.09651e-39
-1.38513e-37
5.06639e-36
-3.3353e-34
2.52572e-33
-1.01437e-31
3.30078e-31
-8.92817e-30
1.72218e-29
-3.36028e-28
4.55458e-28
-6.74501e-27
7.10341e-27
-8.30708e-26
7.2054e-26
-6.87854e-25
5.05163e-25
-4.05607e-24
2.54813e-24
-1.76513e-23
9.63841e-24
-5.8727e-23
2.8172e-23
-1.52691e-22
6.98069e-23
-3.32529e-22
1.62979e-22
-6.70585e-22
3.78985e-22
-1.3258e-21
9.30737e-22
-2.74407e-21
2.37909e-21
-5.97017e-21
6.15342e-21
-1.3403e-20
1.48382e-20
-2.83849e-20
3.25171e-20
-5.46601e-20
6.61198e-20
-9.7406e-20
1.29365e-19
-1.67268e-19
2.47428e-19
-2.80698e-19
4.59519e-19
-4.55568e-19
8.14746e-19
-6.99191e-19
1.35704e-18
-9.92293e-19
2.11249e-18
-1.28442e-18
3.07769e-18
-1.50164e-18
4.23495e-18
-1.57686e-18
5.44745e-18
-1.37155e-18
6.43676e-18
-8.73009e-19
6.64653e-18
-4.47146e-19
5.69463e-18
-1.65741e-19
4.23175e-18
-1.47105e-19
2.86638e-18
-2.37937e-19
1.81322e-18
-2.74419e-19
1.07454e-18
-2.38043e-19
5.89832e-19
-1.67364e-19
2.94541e-19
-9.82225e-20
1.31393e-19
-4.83343e-20
5.14539e-20
-1.97555e-20
1.74237e-20
-6.59219e-21
5.04362e-21
-1.75368e-21
1.25148e-21
-3.60888e-22
3.29652e-22
-6.04586e-23
3.5879e-22
-1.81298e-23
1.19492e-21
7.09751e-24
3.93433e-21
9.08408e-23
4.52605e-22
1.14383e-20
8.74368e-44
-2.4935e-41
3.1052e-38
-3.49226e-36
1.02845e-34
-6.06365e-33
4.10113e-32
-1.48213e-30
4.55059e-30
-1.11071e-28
2.09292e-28
-3.68948e-27
5.00788e-27
-6.69806e-26
7.20875e-26
-7.5975e-25
6.86877e-25
-5.88556e-24
4.60324e-24
-3.29917e-23
2.25389e-23
-1.38602e-22
8.36596e-23
-4.50505e-22
2.40881e-22
-1.15418e-21
5.77015e-22
-2.44356e-21
1.27173e-21
-4.68286e-21
2.73094e-21
-8.59503e-21
6.10286e-21
-1.61801e-20
1.4256e-20
-3.20137e-20
3.41901e-20
-6.64522e-20
7.70313e-20
-1.31844e-19
1.57376e-19
-2.37933e-19
2.97361e-19
-3.96249e-19
5.42595e-19
-6.37736e-19
9.7274e-19
-1.00803e-18
1.70217e-18
-1.54816e-18
2.85696e-18
-2.26057e-18
4.53033e-18
-3.07495e-18
6.77228e-18
-3.86248e-18
9.63708e-18
-4.48973e-18
1.33479e-17
-4.87567e-18
1.76312e-17
-4.2584e-18
2.17666e-17
-2.32098e-18
2.36562e-17
-1.01038e-18
2.03038e-17
-1.07915e-21
1.49684e-17
-1.94293e-19
1.02608e-17
-8.05323e-19
6.73607e-18
-1.06517e-18
4.22394e-18
-9.72803e-19
2.48121e-18
-7.13344e-19
1.33608e-18
-4.4013e-19
6.46668e-19
-2.30247e-19
2.76033e-19
-1.0101e-19
1.02141e-19
-3.63951e-20
3.23137e-20
-1.04544e-20
8.71107e-21
-2.29233e-21
2.26371e-21
-3.68559e-22
1.68002e-21
-5.27717e-23
4.89588e-21
5.8929e-23
1.55612e-20
4.98042e-22
2.23615e-21
4.37687e-20
3.75365e-42
-9.46505e-40
7.04869e-37
-7.13973e-35
1.6892e-33
-9.02257e-32
5.42553e-31
-1.78325e-29
5.13349e-29
-1.14225e-27
2.08618e-27
-3.35602e-26
4.5192e-26
-5.51359e-25
5.99687e-25
-5.75214e-24
5.35068e-24
-4.15369e-23
3.41197e-23
-2.20033e-22
1.61429e-22
-8.86276e-22
5.85936e-22
-2.79658e-21
1.66392e-21
-7.0413e-21
3.87792e-21
-1.45614e-20
8.12686e-21
-2.67067e-20
1.62053e-20
-4.5868e-20
3.29314e-20
-7.88365e-20
6.99081e-20
-1.41159e-19
1.54811e-19
-2.69723e-19
3.26052e-19
-5.01461e-19
6.22319e-19
-8.49324e-19
1.09455e-18
-1.32399e-18
1.8631e-18
-1.997e-18
3.12871e-18
-2.96703e-18
5.14642e-18
-4.29457e-18
8.1504e-18
-5.92527e-18
1.2262e-17
-7.66237e-18
1.75917e-17
-9.30354e-18
2.46884e-17
-1.08586e-17
3.53721e-17
-1.29336e-17
4.90369e-17
-1.22747e-17
6.5661e-17
-5.16254e-18
8.03081e-17
-1.65125e-18
6.74592e-17
7.93122e-19
4.69489e-17
1.75719e-19
3.14436e-17
-2.82561e-18
2.11425e-17
-3.94753e-18
1.39605e-17
-3.59054e-18
8.73398e-18
-2.6446e-18
5.0528e-18
-1.67421e-18
2.64932e-18
-9.18263e-19
1.23445e-18
-4.29678e-19
5.01697e-19
-1.67006e-19
1.74983e-19
-5.19169e-20
5.18999e-20
-1.21887e-20
1.38582e-20
-1.93282e-21
6.7669e-21
-1.0035e-22
1.5293e-20
2.98088e-22
4.68844e-20
1.99075e-21
8.29954e-21
1.2908e-19
1.29346e-40
-2.90086e-38
1.31409e-35
-1.20715e-33
2.29792e-32
-1.11854e-30
5.97798e-30
-1.79666e-28
4.84062e-28
-9.87321e-27
1.7418e-26
-2.5723e-25
3.41798e-25
-3.8295e-24
4.17599e-24
-3.67379e-23
3.47708e-23
-2.46661e-22
2.09785e-22
-1.22798e-21
9.52867e-22
-4.70527e-21
3.36223e-21
-1.42918e-20
9.39647e-21
-3.51256e-20
2.14189e-20
-7.10814e-20
4.30045e-20
-1.25523e-19
8.02959e-20
-2.036e-19
1.49004e-19
-3.22378e-19
2.86129e-19
-5.21718e-19
5.82632e-19
-9.13266e-19
1.14745e-18
-1.59428e-18
2.04877e-18
-2.5333e-18
3.3588e-18
-3.69591e-18
5.33173e-18
-5.22213e-18
8.36736e-18
-7.26566e-18
1.28784e-17
-9.82731e-18
1.90871e-17
-1.26704e-17
2.69282e-17
-1.55107e-17
3.67048e-17
-1.85683e-17
5.08853e-17
-2.1697e-17
7.85268e-17
-2.91745e-17
1.22202e-16
-3.57389e-17
1.99094e-16
-5.67676e-18
3.06442e-16
-4.52061e-20
2.49247e-16
6.92191e-18
1.51864e-16
2.44833e-18
9.17774e-17
-1.22224e-17
6.07755e-17
-1.60131e-17
4.11478e-17
-1.2791e-17
2.6817e-17
-8.65976e-18
1.63863e-17
-5.36682e-18
9.20442e-18
-3.02435e-18
4.65558e-18
-1.49959e-18
2.07628e-18
-6.29059e-19
8.00653e-19
-2.12454e-19
2.63373e-19
-5.36204e-20
7.54638e-20
-8.42944e-21
2.69955e-20
4.3544e-23
3.91104e-20
1.10959e-21
1.12817e-19
6.147e-21
2.42725e-20
3.06494e-19
3.6392e-39
-7.2617e-37
2.04642e-34
-1.70082e-32
2.62891e-31
-1.16303e-29
5.56543e-29
-1.52592e-27
3.87023e-27
-7.22341e-26
1.23612e-25
-1.67439e-24
2.20036e-24
-2.26486e-23
2.47494e-23
-2.00146e-22
1.91858e-22
-1.24946e-21
1.08951e-21
-5.82841e-21
4.71569e-21
-2.11094e-20
1.60473e-20
-6.11752e-20
4.38652e-20
-1.45301e-19
9.80377e-20
-2.86883e-19
1.89855e-19
-4.89592e-19
3.35218e-19
-7.56398e-19
5.73446e-19
-1.11698e-18
9.95329e-19
-1.63966e-18
1.85559e-18
-2.60782e-18
3.42536e-18
-4.31272e-18
5.7197e-18
-6.42759e-18
8.73948e-18
-8.76297e-18
1.29363e-17
-1.15708e-17
1.89101e-17
-1.50054e-17
2.70138e-17
-1.8702e-17
3.70585e-17
-2.21004e-17
4.87113e-17
-2.52179e-17
6.37137e-17
-3.00017e-17
8.63948e-17
-2.97853e-17
1.44257e-16
-7.85714e-17
2.80148e-16
-7.11531e-17
4.58058e-16
-4.09743e-18
6.51758e-16
3.23515e-17
5.77748e-16
1.8758e-16
4.55087e-16
8.70104e-18
2.91445e-16
-3.72019e-17
1.83976e-16
-4.49729e-17
1.16496e-16
-3.19616e-17
7.36219e-17
-2.02018e-17
4.56004e-17
-1.25303e-17
2.6898e-17
-7.44035e-18
1.46512e-17
-4.00198e-18
7.16282e-18
-1.84834e-18
3.06476e-18
-6.88667e-19
1.12644e-18
-1.88465e-19
3.56472e-19
-2.88801e-20
1.12575e-19
9.51732e-22
9.10925e-20
3.52692e-21
2.26099e-19
1.53946e-20
5.81338e-20
6.07125e-19
8.4343e-38
-1.47893e-35
2.67601e-33
-1.98635e-31
2.54061e-30
-1.0105e-28
4.39769e-28
-1.08944e-26
2.63672e-26
-4.46392e-25
7.49959e-25
-9.24385e-24
1.21423e-23
-1.14028e-22
1.25968e-22
-9.31425e-22
9.09343e-22
-5.42155e-21
4.84746e-21
-2.37183e-20
1.98744e-20
-8.10136e-20
6.46883e-20
-2.227e-19
1.71353e-19
-5.06107e-19
3.74728e-19
-9.67351e-19
7.03223e-19
-1.59569e-18
1.18528e-18
-2.3614e-18
1.89358e-18
-3.29139e-18
2.983e-18
-4.40039e-18
5.05341e-18
-6.2437e-18
8.82687e-18
-9.95528e-18
1.37845e-17
-1.39918e-17
1.96089e-17
-1.77626e-17
2.7032e-17
-2.17434e-17
3.67002e-17
-2.63311e-17
4.8077e-17
-2.99068e-17
6.00197e-17
-3.17907e-17
7.2645e-17
-3.43812e-17
9.16054e-17
-4.09638e-17
9.99399e-17
-5.9739e-17
3.05292e-16
-8.91004e-17
4.26816e-16
-1.00794e-16
9.06908e-16
-3.90535e-16
5.51662e-15
4.67313e-16
1.50789e-15
5.18594e-16
7.25966e-16
-1.40688e-16
5.51919e-16
-1.05709e-16
3.70933e-16
-7.08063e-17
2.3503e-16
-5.00446e-17
1.48727e-16
-3.27229e-17
9.53353e-17
-2.12041e-17
6.02449e-17
-1.35516e-17
3.60098e-17
-8.05575e-18
1.96142e-17
-4.17513e-18
9.44039e-18
-1.74243e-18
3.92606e-18
-5.1991e-19
1.40167e-18
-7.35109e-20
4.52094e-19
7.53578e-21
2.23429e-19
1.12955e-20
3.96154e-19
3.29771e-20
1.17769e-19
1.03382e-18
1.60002e-36
-2.40341e-34
2.91639e-32
-1.89754e-30
2.06211e-29
-7.26608e-28
2.93542e-27
-6.48563e-26
1.52453e-25
-2.31286e-24
3.87709e-24
-4.29757e-23
5.7307e-23
-4.85368e-22
5.50287e-22
-3.6793e-21
3.7102e-21
-2.00513e-20
1.85881e-20
-8.25849e-20
7.20587e-20
-2.66659e-19
2.23167e-19
-6.95183e-19
5.67676e-19
-1.5039e-18
1.20664e-18
-2.7589e-18
2.19769e-18
-4.38604e-18
3.56097e-18
-6.22968e-18
5.38272e-18
-8.26202e-18
7.73188e-18
-1.00142e-17
1.16945e-17
-1.27215e-17
1.96892e-17
-1.96054e-17
2.89169e-17
-2.59275e-17
3.81796e-17
-2.99578e-17
4.87065e-17
-3.35208e-17
6.17581e-17
-3.88608e-17
7.3758e-17
-3.97858e-17
8.25549e-17
-3.58159e-17
9.37202e-17
-3.82941e-17
1.16026e-16
-3.94567e-17
1.76694e-16
-3.55317e-17
2.5365e-16
-6.9911e-17
2.96154e-15
-3.67408e-17
6.04636e-15
-7.57812e-16
7.47295e-15
-2.59018e-16
9.56365e-15
-8.70015e-16
2.77811e-15
-7.81859e-16
3.36359e-16
-7.85162e-17
4.59239e-16
-8.19319e-17
3.26265e-16
-5.9784e-17
2.22256e-16
-4.09672e-17
1.50589e-16
-2.87373e-17
1.02896e-16
-2.01781e-17
6.82965e-17
-1.33263e-17
4.2014e-17
-7.78023e-18
2.30343e-17
-3.64045e-18
1.09554e-17
-1.17325e-18
4.46942e-18
-1.33187e-19
1.58495e-18
4.16051e-20
6.13302e-19
3.91759e-20
6.54745e-19
6.54087e-20
2.07815e-19
1.55564e-18
2.43142e-35
-3.03832e-33
2.60876e-31
-1.4618e-29
1.38959e-28
-4.27927e-27
1.63869e-26
-3.19102e-25
7.41172e-25
-9.96493e-24
1.69264e-23
-1.66901e-22
2.293e-22
-1.73226e-21
2.04614e-21
-1.22285e-20
1.29396e-20
-6.26274e-20
6.11721e-20
-2.4387e-19
2.24834e-19
-7.47716e-19
6.62808e-19
-1.8565e-18
1.6122e-18
-3.83028e-18
3.30669e-18
-6.72639e-18
5.83863e-18
-1.02879e-17
9.13214e-18
-1.40398e-17
1.31927e-17
-1.77897e-17
1.72227e-17
-1.9623e-17
2.33516e-17
-2.59184e-17
3.80027e-17
-3.64748e-17
5.23877e-17
-4.12124e-17
6.27109e-17
-4.05756e-17
7.30845e-17
-4.43316e-17
8.89599e-17
-5.11726e-17
9.7342e-17
-4.27783e-17
9.40116e-17
-2.71443e-17
1.07077e-16
-5.59613e-17
1.18732e-16
-4.46733e-17
1.30568e-16
-3.98603e-17
3.02466e-16
-7.10363e-17
4.07449e-16
-4.76117e-17
6.59315e-15
-1.86567e-16
7.94704e-15
-6.60576e-16
3.91814e-15
-1.24902e-15
-1.79111e-16
-6.61253e-16
6.6241e-16
-1.23171e-16
5.66903e-16
-8.47372e-17
3.93609e-16
-6.01763e-17
2.71605e-16
-4.43243e-17
1.96388e-16
-3.43685e-17
1.47003e-16
-2.65001e-17
1.08536e-16
-1.92963e-17
7.52197e-17
-1.27052e-17
4.68478e-17
-6.6406e-18
2.54273e-17
-2.26757e-18
1.18533e-17
-1.37916e-19
4.73579e-18
1.75836e-19
1.75948e-18
1.38354e-19
1.13564e-18
1.33977e-19
3.30686e-19
2.13879e-18
2.87972e-34
-2.92761e-32
1.88492e-30
-8.97988e-29
7.68053e-28
-2.04692e-26
7.57025e-26
-1.28869e-24
2.99981e-24
-3.54886e-23
6.17919e-23
-5.3847e-22
7.69966e-22
-5.15513e-21
6.40638e-21
-3.39909e-20
3.81377e-20
-1.64043e-19
1.70853e-19
-6.05752e-19
5.98115e-19
-1.76987e-18
1.6861e-18
-4.20419e-18
3.93193e-18
-8.31943e-18
7.77102e-18
-1.40556e-17
1.33058e-17
-2.07783e-17
2.01709e-17
-2.74529e-17
2.80499e-17
-3.34919e-17
3.34911e-17
-3.68497e-17
4.7346e-17
-4.44823e-17
7.02429e-17
-5.51442e-17
8.27156e-17
-4.778e-17
8.39832e-17
-8.12143e-17
9.53312e-17
-7.21077e-17
1.15325e-16
-7.41209e-17
1.54511e-16
-7.41276e-17
2.13071e-16
-6.29456e-17
1.66499e-16
-4.8758e-17
1.44652e-16
-4.76406e-17
1.46464e-16
-4.34548e-17
1.70661e-16
-3.86378e-17
3.12506e-16
-4.14281e-17
5.70484e-16
-6.75677e-17
2.67895e-15
-5.44055e-17
1.77256e-15
-9.24768e-17
2.47149e-16
-3.81683e-16
6.5976e-16
-1.08999e-16
5.00646e-16
-7.04653e-17
3.54988e-16
-5.69032e-17
2.71128e-16
-4.7605e-17
2.2215e-16
-4.05019e-17
1.86419e-16
-3.31097e-17
1.53124e-16
-2.6079e-17
1.18606e-16
-1.94462e-17
8.30913e-17
-1.11993e-17
5.09903e-17
-3.90339e-18
2.69692e-17
5.18536e-20
1.2178e-17
5.99298e-19
4.80587e-18
4.54992e-19
2.25693e-18
3.09969e-19
5.01098e-19
2.83489e-18
2.60015e-33
-2.12305e-31
1.08606e-29
-4.36201e-28
3.44763e-27
-7.90455e-26
2.8699e-25
-4.25412e-24
1.0032e-23
-1.04192e-22
1.87288e-22
-1.44099e-21
2.15411e-21
-1.27826e-20
1.67572e-20
-7.89899e-20
9.41371e-20
-3.60173e-19
4.00719e-19
-1.26407e-18
1.34058e-18
-3.5272e-18
3.62981e-18
-8.03684e-18
8.16298e-18
-1.53225e-17
1.56364e-17
-2.50763e-17
2.61287e-17
-3.61828e-17
3.88168e-17
-4.7134e-17
5.26311e-17
-5.68393e-17
6.3342e-17
-6.43084e-17
8.24612e-17
-7.55369e-17
1.07208e-16
-8.4274e-17
9.56187e-17
-8.93533e-17
1.69251e-16
-9.00019e-17
1.55932e-16
-1.48805e-16
1.66826e-16
-1.39651e-16
1.75758e-16
-1.1313e-16
1.76377e-16
-8.31547e-17
1.60642e-16
-1.164e-16
1.62103e-16
-5.66156e-17
1.63944e-16
-5.21819e-17
1.76991e-16
-4.92429e-17
2.10332e-16
-4.9195e-17
3.37092e-16
-5.18111e-17
5.83119e-16
-4.79341e-17
6.45765e-16
-5.87358e-17
5.18183e-16
-7.77576e-17
4.62579e-16
-1.4749e-16
3.56118e-16
-7.02578e-17
2.95619e-16
-6.64747e-17
2.65694e-16
-6.08488e-17
2.47915e-16
-5.37202e-17
2.30076e-16
-4.54362e-17
2.06123e-16
-3.83472e-17
1.74632e-16
-3.30905e-17
1.34169e-16
-2.01805e-17
9.09049e-17
-6.5892e-18
5.367e-17
5.4809e-19
2.72188e-17
1.69834e-18
1.18475e-17
1.32335e-18
5.00961e-18
7.89913e-19
7.87105e-19
3.94128e-18
1.7648e-32
-1.15024e-30
4.94206e-29
-1.66452e-27
1.24772e-26
-2.45616e-25
8.88042e-25
-1.14707e-23
2.76118e-23
-2.52502e-22
4.69955e-22
-3.20803e-21
5.00998e-21
-2.65248e-20
3.65457e-20
-1.54329e-19
1.9414e-19
-6.67336e-19
7.86493e-19
-2.23279e-18
2.51796e-18
-5.96508e-18
6.55996e-18
-1.30667e-17
1.428e-17
-2.40707e-17
2.66824e-17
-3.83505e-17
4.3969e-17
-5.45903e-17
6.53337e-17
-7.14428e-17
8.91826e-17
-8.8477e-17
1.12515e-16
-1.08889e-16
1.45123e-16
-1.30248e-16
1.70431e-16
-1.37157e-16
1.79836e-16
-1.46516e-16
1.8581e-16
-1.62997e-16
3.24604e-16
-1.80577e-16
3.23973e-16
-1.74232e-16
2.79812e-16
-1.425e-16
2.4042e-16
-1.0393e-16
1.94941e-16
-8.35159e-17
1.93195e-16
-7.0404e-17
1.92599e-16
-6.28213e-17
1.99447e-16
-6.249e-17
2.1345e-16
-6.39963e-17
2.42813e-16
-6.29654e-17
3.05046e-16
-5.95484e-17
3.42608e-16
-6.67132e-17
3.5815e-16
-8.608e-17
2.94185e-16
-1.24562e-16
3.07971e-16
-9.63855e-17
3.10633e-16
-9.57135e-17
3.14575e-16
-8.87026e-17
3.22048e-16
-8.16084e-17
3.23074e-16
-7.11504e-17
3.10358e-16
-6.60933e-17
2.80338e-16
-7.42729e-17
2.23691e-16
-4.63681e-17
1.57018e-16
-1.26806e-17
9.87143e-17
1.97539e-18
5.4657e-17
4.17138e-18
2.6203e-17
3.3832e-18
1.12856e-17
2.01234e-18
1.39768e-18
6.26869e-18
8.92955e-32
-4.61031e-30
1.76289e-28
-4.9761e-27
3.62553e-26
-6.14846e-25
2.23931e-24
-2.53609e-23
6.25734e-23
-5.08096e-22
9.78228e-22
-5.98676e-21
9.7192e-21
-4.64874e-20
6.67516e-20
-2.56266e-19
3.36317e-19
-1.05657e-18
1.29937e-18
-3.38654e-18
3.98597e-18
-8.70076e-18
9.99836e-18
-1.84001e-17
2.10863e-17
-3.28902e-17
3.85364e-17
-5.12772e-17
6.31493e-17
-7.25821e-17
9.55524e-17
-9.54066e-17
1.36993e-16
-1.21295e-16
1.93458e-16
-1.64976e-16
2.61811e-16
-2.00909e-16
2.99589e-16
-2.14218e-16
3.14896e-16
-2.39999e-16
3.38395e-16
-2.86248e-16
3.88398e-16
-3.45274e-16
4.05856e-16
-3.03253e-16
3.71502e-16
-2.24484e-16
3.17227e-16
-1.48489e-16
2.74753e-16
-1.14672e-16
2.45685e-16
-9.21857e-17
2.28132e-16
-8.28946e-17
2.36386e-16
-7.78518e-17
2.52419e-16
-7.53981e-17
2.68554e-16
-7.33436e-17
2.91985e-16
-7.29109e-17
3.17715e-16
-4.97482e-17
3.60344e-16
-1.23651e-16
3.7274e-16
-1.30857e-16
3.92941e-16
-1.2555e-16
4.0976e-16
-1.21818e-16
4.36864e-16
-1.15883e-16
4.8241e-16
-1.05692e-16
5.34837e-16
-8.56177e-17
5.69669e-16
-8.89434e-17
5.79961e-16
-2.43217e-16
4.57716e-16
-1.25138e-16
3.10904e-16
-2.18424e-17
1.93465e-16
6.15522e-18
1.095e-16
9.86147e-18
5.53159e-17
8.09824e-18
2.49095e-17
4.94726e-18
2.85881e-18
1.16324e-17
3.33366e-31
-1.37206e-29
4.91396e-28
-1.17099e-26
8.46518e-26
-1.24844e-24
4.6176e-24
-4.63682e-23
1.17399e-22
-8.57332e-22
1.70133e-21
-9.46989e-21
1.58658e-20
-6.96747e-20
1.03174e-19
-3.6673e-19
4.95291e-19
-1.45194e-18
1.8318e-18
-4.48881e-18
5.40032e-18
-1.11671e-17
1.30712e-17
-2.29591e-17
2.67483e-17
-4.0104e-17
4.78765e-17
-6.16143e-17
7.82276e-17
-8.73765e-17
1.19688e-16
-1.12418e-16
1.7897e-16
-1.45873e-16
2.87635e-16
-2.18898e-16
4.1291e-16
-2.67194e-16
5.14045e-16
-2.42182e-16
5.83809e-16
-3.56367e-16
6.22896e-16
-1.32155e-17
7.21043e-16
-5.38726e-16
6.94385e-16
-4.12956e-16
5.94374e-16
-2.96408e-16
4.66585e-16
-1.92006e-16
3.72916e-16
-1.48824e-16
3.17532e-16
-1.25665e-16
2.86576e-16
-1.09592e-16
2.75357e-16
-9.90864e-17
2.76706e-16
-9.05069e-17
2.89815e-16
-9.50907e-17
7.0278e-16
-1.18529e-16
5.95113e-16
-1.38497e-16
4.85829e-16
-1.48895e-16
4.8121e-16
-1.56095e-16
4.87043e-16
-1.48036e-16
5.01307e-16
-1.38604e-16
5.31962e-16
-1.2883e-16
5.93484e-16
-1.13122e-16
6.75834e-16
-9.01169e-17
9.20261e-16
2.4976e-18
1.7261e-15
-1.37938e-15
1.06989e-15
-4.76755e-16
6.11342e-16
4.61061e-19
3.66128e-16
1.59512e-17
2.11266e-16
2.19345e-17
1.11993e-16
1.83367e-17
5.33388e-17
1.16271e-17
6.37291e-18
2.39042e-17
9.21704e-31
-3.08172e-29
1.07556e-27
-2.19436e-26
1.59926e-25
-2.07853e-24
7.85383e-24
-7.08792e-23
1.84186e-22
-1.22708e-21
2.50033e-21
-1.28535e-20
2.20711e-20
-9.04888e-20
1.36873e-19
-4.58785e-19
6.30031e-19
-1.75899e-18
2.24367e-18
-5.29027e-18
6.39217e-18
-1.28588e-17
1.50083e-17
-2.59483e-17
2.99397e-17
-4.47195e-17
5.26774e-17
-6.82532e-17
8.60425e-17
-9.73589e-17
1.28642e-16
-1.17734e-16
1.96816e-16
-1.81303e-16
3.57145e-16
-2.83241e-16
5.28986e-16
-3.22475e-16
5.92592e-16
-3.16724e-16
2.00282e-15
-2.6936e-16
1.38556e-15
4.19126e-17
1.10316e-15
1.88817e-16
8.99197e-16
-3.81214e-17
7.78857e-16
2.58929e-16
6.43761e-16
-1.82952e-16
4.96322e-16
-1.86383e-16
4.03657e-16
-1.64471e-16
3.49108e-16
-1.39648e-16
3.20013e-16
-1.16525e-16
3.02484e-16
-8.33451e-17
3.42583e-16
-1.22019e-16
4.54145e-16
-2.04465e-16
5.29084e-16
-2.40692e-16
5.56723e-16
-2.18601e-16
5.60006e-16
-1.97458e-16
5.58239e-16
-1.8653e-16
5.50366e-16
-1.65158e-16
5.48138e-16
-1.47616e-16
5.55197e-16
-1.28607e-16
5.78058e-16
-1.13413e-16
1.2207e-14
-8.28237e-16
1.35191e-14
-2.56754e-15
4.89321e-15
-2.00845e-15
-1.29881e-16
-2.21579e-17
4.70384e-16
2.61506e-17
3.44909e-16
4.16278e-17
2.07687e-16
3.76252e-17
1.08922e-16
2.56761e-17
1.45001e-17
5.10224e-17
1.91952e-30
-5.33959e-29
1.87125e-27
-3.31995e-26
2.47285e-25
-2.87092e-24
1.11471e-23
-9.1604e-23
2.4461e-22
-1.50666e-21
3.14577e-21
-1.51461e-20
2.65348e-20
-1.03093e-19
1.58241e-19
-5.08344e-19
7.03919e-19
-1.90523e-18
2.43265e-18
-5.62865e-18
6.75177e-18
-1.35052e-17
1.5507e-17
-2.70379e-17
3.0404e-17
-4.64462e-17
5.29206e-17
-7.08538e-17
8.64841e-17
-1.00992e-16
1.2085e-16
-1.16809e-16
2.17446e-16
-2.44504e-16
4.07729e-16
-3.0301e-16
5.6749e-16
-2.57668e-16
6.76442e-16
-1.63728e-16
1.09823e-15
-3.98872e-16
6.33393e-15
-2.79482e-15
1.12938e-14
-8.80117e-15
6.92226e-15
-6.96954e-15
4.64499e-16
-2.99702e-15
7.05522e-16
-1.97473e-16
6.0627e-16
-1.41993e-16
4.79109e-16
-1.45402e-16
4.02576e-16