/*--------------------------------*- C++ -*----------------------------------*\
| =========                 |                                                 |
| \\      /  F ield         | OpenFOAM: The Open Source CFD Toolbox           |
|  \\    /   O peration     | Version:  2.4.0                                 |
|   \\  /    A nd           | Web:      www.OpenFOAM.org                      |
|    \\/     M anipulation  |                                                 |
\*---------------------------------------------------------------------------*/
FoamFile
{
    version     2.0;
    format      ascii;
    class       volScalarField;
    location    "0.256";
    object      alpha.water;
}
// * * * * * * * * * * * * * * * * * * * * * * * * * * * * * * * * * * * * * //

dimensions      [0 0 0 0 0 0 0];

internalField   nonuniform List<scalar> 
60000
(
1
1
1
1
1
1
1
1
1
1
1
1
1
1
1
1
1
1
1
1
1
1
1
1
1
1
1
1
1
1
1
1
1
1
1
1
1
1
1
1
1
1
1
1
1
1
1
1
1
1
1
1
1
1
1
1
1
1
1
1
1
1
1
1
1
1
1
1
1
1
1
1
1
1
1
1
1
1
1
1
1
1
1
1
1
1
1
1
1
1
1
1
1
1
1
1
1
1
1
1
1
1
1
1
1
1
1
1
1
1
1
1
1
1
1
1
1
1
1
1
1
1
1
1
1
1
1
1
1
1
1
1
1
1
1
1
1
1
1
1
1
1
1
1
1
1
1
1
1
1
1
1
1
1
1
1
1
1
1
1
1
1
1
1
1
1
1
1
1
1
1
1
1
1
1
1
1
1
1
1
1
1
1
1
1
1
1
1
1
1
1
1
1
1
1
1
1
1
1
1
1
1
1
1
1
1
1
1
1
1
1
1
1
1
1
1
1
1
1
1
1
1
1
1
1
1
1
1
1
1
1
1
1
1
1
1
1
1
1
1
1
1
1
1
1
1
1
1
1
1
1
1
1
1
1
1
1
1
1
1
1
1
1
1
1
1
1
1
1
1
1
1
1
1
1
1
1
1
1
1
1
1
1
1
1
1
1
1
1
1
1
1
1
1
1
1
1
1
1
1
1
1
1
1
1
1
1
1
1
1
1
1
1
1
1
1
1
1
1
1
1
1
1
1
1
1
1
1
1
1
1
1
1
1
1
1
1
1
1
1
1
1
1
1
1
1
1
1
1
1
1
1
1
1
1
1
1
1
1
1
1
1
1
1
1
1
1
1
1
1
1
1
1
1
1
1
1
1
1
1
1
1
1
1
1
1
1
1
1
1
1
1
1
1
1
1
1
1
1
1
1
1
1
1
1
1
1
1
1
1
1
1
1
1
1
1
1
1
1
1
1
1
1
1
1
1
1
1
1
1
1
1
1
1
1
1
1
1
1
1
1
1
1
1
1
1
1
1
1
1
1
1
1
1
1
1
1
1
1
1
1
1
1
1
1
1
1
1
1
1
1
1
1
1
1
1
1
1
1
1
1
1
1
1
1
1
1
1
1
1
1
1
1
1
1
1
1
1
1
1
1
1
1
1
1
1
1
1
1
1
1
1
1
1
1
1
1
1
1
1
1
1
1
1
1
1
1
1
1
1
1
1
1
1
1
1
1
1
1
1
1
1
1
1
1
1
1
1
1
1
1
1
1
1
1
1
1
1
1
1
1
1
1
1
1
1
1
1
1
1
1
1
1
1
1
1
1
1
1
1
1
1
1
1
1
1
1
1
1
1
1
1
1
1
1
1
1
1
1
1
1
1
1
1
1
1
1
1
1
1
1
1
1
1
1
1
1
1
1
1
1
1
1
1
1
1
1
1
1
1
1
1
1
1
1
1
1
1
1
1
1
1
1
1
1
1
1
1
1
1
1
1
1
1
1
1
1
1
1
1
1
1
1
1
1
1
1
1
1
1
1
1
1
1
1
1
1
1
1
1
1
1
1
1
1
1
1
1
1
1
1
1
1
1
1
1
1
1
1
1
1
1
1
1
1
1
1
1
1
1
1
1
1
1
1
1
1
1
1
1
1
1
1
1
1
1
1
1
1
1
1
1
1
1
1
1
1
1
1
1
1
1
1
1
1
1
1
1
1
1
1
1
1
1
1
1
1
1
1
1
1
1
1
1
1
1
1
1
1
1
1
1
1
1
1
1
1
1
1
1
1
1
1
1
1
1
1
1
1
1
1
1
1
1
1
1
1
1
1
1
1
1
1
1
1
1
1
1
1
1
1
1
1
1
1
1
1
1
1
1
1
1
1
1
1
1
1
1
1
1
1
1
1
1
1
1
1
1
1
1
1
1
1
1
1
1
1
1
1
1
1
1
1
1
1
1
1
1
1
1
1
1
1
1
1
1
1
1
1
1
1
1
1
1
1
1
1
1
1
1
1
1
1
1
1
1
1
1
1
1
1
1
1
1
1
1
1
1
1
1
1
1
1
1
1
1
1
1
1
1
1
1
1
1
1
1
1
1
1
1
1
1
1
1
1
1
1
1
1
1
1
1
1
1
1
1
1
1
1
1
1
1
1
1
1
1
1
1
1
1
1
1
1
1
1
1
1
1
1
1
1
1
1
1
1
1
1
1
1
1
1
1
1
1
1
1
1
1
1
1
1
1
1
1
1
1
1
1
1
1
1
1
1
1
1
1
1
1
1
1
1
1
1
1
1
1
1
1
1
1
1
1
1
1
1
1
1
1
1
1
1
1
1
1
1
1
1
1
1
1
1
1
1
1
1
1
1
1
1
1
1
1
1
1
1
1
1
1
1
1
1
1
1
1
1
1
1
1
1
1
1
1
1
1
1
1
1
1
1
1
1
1
1
1
1
1
1
1
1
1
1
1
1
1
1
1
1
1
1
1
1
1
1
1
1
1
1
1
1
1
1
1
1
1
1
1
1
1
1
1
1
1
1
1
1
1
1
1
1
1
1
1
1
1
1
1
1
1
1
1
1
1
1
1
1
1
1
1
1
1
1
1
1
1
1
1
1
1
1
1
1
1
1
1
1
1
1
1
1
1
1
1
1
1
1
1
1
1
1
1
1
1
1
1
1
1
1
1
1
1
1
1
1
1
1
1
1
1
1
1
1
1
1
1
1
1
1
1
1
1
1
1
1
1
1
1
1
1
1
1
1
1
1
1
1
1
1
1
1
1
1
1
1
1
1
1
1
1
1
1
1
1
1
1
1
1
1
1
1
1
1
1
1
1
1
1
1
1
1
1
1
1
1
1
1
1
1
1
1
1
1
1
1
1
1
1
1
1
1
1
1
1
1
1
1
1
1
1
1
1
1
1
1
1
1
1
1
1
1
1
1
1
1
1
1
1
1
1
1
1
1
1
1
1
1
1
1
1
1
1
1
1
1
1
1
1
1
1
1
1
1
1
1
1
1
1
1
1
1
1
1
1
1
1
1
1
1
1
1
1
1
1
1
1
1
1
1
1
1
1
1
1
1
1
1
1
1
1
1
1
1
1
1
1
1
1
1
1
1
1
1
1
1
1
1
1
1
1
1
1
1
1
1
1
1
1
1
1
1
1
1
1
1
1
1
1
1
1
1
1
1
1
1
1
1
1
1
1
1
1
1
1
1
1
1
1
1
1
1
1
1
1
1
1
1
1
1
1
1
1
1
1
1
1
1
1
1
1
1
1
1
1
1
1
1
1
1
1
1
1
1
1
1
1
1
1
1
1
1
1
1
1
1
1
1
1
1
1
1
1
1
1
1
1
1
1
1
1
1
1
1
1
1
1
1
1
1
1
1
1
1
1
1
1
1
1
1
1
1
1
1
1
1
1
1
1
1
1
1
1
1
1
1
1
1
1
1
1
1
1
1
1
1
1
1
1
1
1
1
1
1
1
1
1
1
1
1
1
1
1
1
1
1
1
1
1
1
1
1
1
1
1
1
1
1
1
1
1
1
1
1
1
1
1
1
1
1
1
1
1
1
1
1
1
1
1
1
1
1
1
1
1
1
1
1
1
1
1
1
1
1
1
1
1
1
1
1
1
1
1
1
1
1
1
1
1
1
1
1
1
1
1
1
1
1
1
1
1
1
1
1
1
1
1
1
1
1
1
1
1
1
1
1
1
1
1
1
1
1
1
1
1
1
1
1
1
1
1
1
1
1
1
1
1
1
1
1
1
1
1
1
1
1
1
1
1
1
1
1
1
1
1
1
1
1
1
1
1
1
1
1
1
1
1
1
1
1
1
1
1
1
1
1
1
1
1
1
1
1
1
1
1
1
1
1
1
1
1
1
1
1
1
1
1
1
1
1
1
1
1
1
1
1
1
1
1
1
1
1
1
1
1
1
1
1
1
1
1
1
1
1
1
1
1
1
1
1
1
1
1
1
1
1
1
1
1
1
1
1
1
1
1
1
1
1
1
1
1
1
1
1
1
1
1
1
1
1
1
1
1
1
1
1
1
1
1
1
1
1
1
1
1
1
1
1
1
1
1
1
1
1
1
1
1
1
1
1
1
1
1
1
1
1
1
1
1
1
1
1
1
1
1
1
1
1
1
1
1
1
1
1
1
1
1
1
1
1
1
1
1
1
1
1
1
1
1
1
1
1
1
1
1
1
1
1
1
1
1
1
1
1
1
1
1
1
1
1
1
1
1
1
1
1
1
1
1
1
1
1
1
1
1
1
1
1
1
1
1
1
1
1
1
1
1
1
1
1
1
1
1
1
1
1
1
1
1
1
1
1
1
1
1
1
1
1
1
1
1
1
1
1
1
1
1
1
1
1
1
1
1
1
1
1
1
1
1
1
1
1
1
1
1
1
1
1
1
1
1
1
1
1
1
1
1
1
1
1
1
1
1
1
1
1
1
1
1
1
1
1
1
1
1
1
1
1
1
1
1
1
1
1
1
1
1
1
1
1
1
1
1
1
1
1
1
1
1
1
1
1
1
1
1
1
1
1
1
1
1
1
1
1
1
1
1
1
1
1
1
1
1
1
1
1
1
1
1
1
1
1
1
1
1
1
1
1
1
1
1
1
1
1
1
1
1
1
1
1
1
1
1
1
1
1
1
1
1
1
1
1
1
1
1
1
1
1
1
1
1
1
1
1
1
1
1
1
1
1
1
1
1
1
1
1
1
1
1
1
1
1
1
1
1
1
1
1
1
1
1
1
1
1
1
1
1
1
1
1
1
1
1
1
1
1
1
1
1
1
1
1
1
1
1
1
1
1
1
1
1
1
1
1
1
1
1
1
1
1
1
1
1
1
1
1
1
1
1
1
1
1
1
1
1
1
1
1
1
1
1
1
1
1
1
1
1
1
1
1
1
1
1
1
1
1
1
1
1
1
1
1
1
1
1
1
1
1
1
1
1
1
1
1
1
1
1
1
1
1
1
1
1
1
1
1
1
1
1
1
1
1
1
1
1
1
1
1
1
1
1
1
1
1
1
1
1
1
1
1
1
1
1
1
1
1
1
1
1
1
1
1
1
1
1
1
1
1
1
1
1
1
1
1
1
1
1
1
1
1
1
1
1
1
1
1
1
1
1
1
1
1
1
1
1
1
1
1
1
1
1
1
1
1
1
1
1
1
1
1
1
1
1
1
1
1
1
1
1
1
1
1
1
1
1
1
1
1
1
1
1
1
1
1
1
1
1
1
1
1
1
1
1
1
1
1
1
1
1
1
1
1
1
1
1
1
1
1
1
1
1
1
1
1
1
1
1
1
1
1
1
1
1
1
1
1
1
1
1
1
1
1
1
1
1
1
1
1
1
1
1
1
1
1
1
1
1
1
1
1
1
1
1
1
1
1
1
1
1
1
1
1
1
1
1
1
1
1
1
1
1
1
1
1
1
1
1
1
1
1
1
1
1
1
1
1
1
1
1
1
1
1
1
1
1
1
1
1
1
1
1
1
1
1
1
1
1
1
1
1
1
1
1
1
1
1
1
1
1
1
1
1
1
1
1
1
1
1
1
1
1
1
1
1
1
1
1
1
1
1
1
1
1
1
1
1
1
1
1
1
1
1
1
1
1
1
1
1
1
1
1
1
0.999999
0.999999
1
1
1
1
1
1
1
1
1
1
1
1
1
1
1
1
1
1
1
1
1
1
1
1
1
1
1
1
1
1
1
1
1
1
1
1
1
1
1
1
1
1
1
1
1
1
1
1
1
1
1
1
1
1
1
1
1
1
1
1
1
1
1
1
1
1
1
1
1
1
1
1
1
1
1
1
1
1
1
1
1
1
1
1
1
1
1
1
1
1
1
1
1
1
1
1
1
1
1
0.999998
0.999995
0.999997
1
1
1
1
1
1
1
1
1
1
1
1
1
1
1
1
1
1
1
1
1
1
1
1
1
1
1
1
1
1
1
1
1
1
1
1
1
1
1
1
1
1
1
1
1
1
1
1
1
1
1
1
1
1
1
1
1
1
1
1
1
1
1
1
1
1
1
1
1
1
1
1
1
1
1
1
1
1
1
1
1
1
1
1
1
1
1
1
1
1
1
1
1
1
1
1
1
1
0.999995
0.999946
0.999927
0.999939
0.999977
0.999989
0.999987
0.999977
0.999981
1
1
1
1
1
1
1
1
1
1
1
1
1
1
1
1
1
1
1
1
1
1
1
1
1
1
1
1
1
1
1
1
1
1
1
1
1
1
1
1
1
1
1
1
1
1
1
1
1
1
1
1
1
1
1
1
1
1
1
1
1
1
1
1
1
1
1
1
1
1
1
1
1
1
1
1
1
1
1
1
1
1
1
1
1
1
1
1
1
1
1
1
0.99995
0.999855
0.999852
0.999852
0.999857
0.999833
0.999826
0.999826
1
1
1
1
1
1
1
1
1
1
1
1
1
1
1
1
1
1
1
1
1
1
1
1
1
1
1
1
1
1
1
1
1
1
1
1
1
1
1
1
1
1
1
1
1
1
1
1
1
1
1
1
1
1
1
1
1
1
1
1
1
1
1
1
1
1
1
1
1
1
1
1
1
1
1
1
1
1
1
1
1
1
1
1
1
1
1
1
1
1
1
1
1
0.999999
0.99994
0.999841
0.999826
0.999826
0.999826
0.999826
1
1
1
1
1
1
1
1
1
1
1
1
1
1
1
1
1
1
1
1
1
1
1
1
1
1
1
1
1
1
1
1
1
1
1
1
1
1
1
1
1
1
1
1
1
1
1
1
1
1
1
1
1
1
1
1
1
1
1
1
1
1
1
1
1
1
1
1
1
1
1
1
1
1
1
1
1
1
1
1
1
1
1
1
1
1
1
1
1
1
1
1
1
1
1
1
0.999997
0.999917
0.999879
0.99994
1
1
1
1
1
1
1
1
1
1
1
1
1
1
1
1
1
1
1
1
1
1
1
1
1
1
1
1
1
1
1
1
1
1
1
1
1
1
1
1
1
1
1
1
1
1
1
1
1
1
1
1
1
1
1
1
1
1
1
1
1
1
1
1
1
1
1
1
1
1
1
1
1
1
1
1
1
1
1
1
1
1
1
1
1
1
1
1
1
1
1
1
1
1
1
1
1
1
1
1
1
1
1
1
1
1
1
1
1
1
1
1
1
1
1
1
1
1
1
1
1
1
1
1
1
1
1
1
1
1
1
1
1
1
1
1
1
1
1
1
1
1
1
1
1
1
1
1
1
1
1
1
1
1
1
1
1
1
1
1
1
1
1
1
1
1
1
1
1
1
1
1
1
1
1
1
1
1
1
1
1
1
1
1
1
1
1
1
1
1
1
1
1
1
1
1
1
1
1
1
1
1
1
1
1
1
1
1
1
1
1
1
1
1
1
1
1
1
1
1
1
1
1
1
1
1
1
1
1
1
1
1
1
1
1
1
1
1
1
1
1
1
1
1
1
1
1
1
1
1
1
1
1
1
1
1
1
1
1
1
1
1
1
1
1
1
1
1
1
1
1
1
1
1
1
1
1
1
1
1
1
1
1
1
1
1
1
1
1
1
1
1
1
1
1
1
1
1
0.999998
0.999991
1
1
1
1
1
1
1
1
1
1
1
1
1
1
1
1
1
1
1
1
1
1
1
1
1
1
1
1
1
1
1
1
1
1
1
1
1
1
1
1
1
1
1
1
1
1
1
1
1
1
1
1
1
1
1
1
1
1
1
1
1
1
1
1
1
1
1
1
1
1
1
1
1
1
1
1
1
1
1
1
1
1
1
1
1
1
1
1
1
1
1
1
1
1
0.999999
0.999998
0.999992
0.988392
0.934253
0.660696
1
1
1
1
1
1
1
1
1
1
1
1
1
1
1
1
1
1
1
1
1
1
1
1
1
1
1
1
1
1
1
1
1
1
1
1
1
1
1
1
1
1
1
1
1
1
1
1
1
1
1
1
1
1
1
1
1
1
1
1
1
1
1
1
1
1
1
1
1
1
1
1
1
1
1
1
1
1
1
1
1
1
1
1
1
1
1
1
1
1
1
0.999999
0.999997
0.997881
0.964052
0.877349
0.650794
0.395174
0.134624
2.72632e-07
1
1
1
1
1
1
1
1
1
1
1
1
1
1
1
1
1
1
1
1
1
1
1
1
1
1
1
1
1
1
1
1
1
1
1
1
1
1
1
1
1
1
1
1
1
1
1
1
1
1
1
1
1
1
1
1
1
1
1
1
1
1
1
1
1
1
1
1
1
1
1
1
1
1
1
1
1
1
1
1
1
1
1
1
1
1
1
1
0.999999
0.999995
0.999987
0.981058
0.896192
0.611059
0.30057
0.0845902
2.67979e-07
1.79863e-07
1.73194e-07
1.93716e-07
1
1
1
1
1
1
1
1
1
1
1
1
1
1
1
1
1
1
1
1
1
1
1
1
1
1
1
1
1
1
1
1
1
1
1
1
1
1
1
1
1
1
1
1
1
1
1
1
1
1
1
1
1
1
1
1
1
1
1
1
1
1
1
1
1
1
1
1
1
1
1
1
1
1
1
1
1
1
1
1
1
1
1
1
1
0.999999
0.999996
0.999991
0.999956
0.981948
0.85908
0.532497
0.165241
0.000544338
7.65604e-07
1.76983e-07
1.76331e-07
1.77504e-07
1.80103e-07
1.80968e-07
1
1
1
1
1
1
1
1
1
1
1
1
1
1
1
1
1
1
1
1
1
1
1
1
1
1
1
1
1
1
1
1
1
1
1
1
1
1
1
1
1
1
1
1
1
1
1
1
1
1
1
1
1
1
1
1
1
1
1
1
1
1
1
1
1
1
1
1
1
1
1
1
1
1
1
1
1
1
1
1
1
1
0.999999
0.999998
0.999994
0.999982
0.999901
0.998231
0.868292
0.531682
0.175016
0.00124338
2.06045e-06
5.47145e-07
1.78787e-07
1.76245e-07
1.76309e-07
1.76369e-07
1.77511e-07
1.29376e-06
1
1
1
1
1
1
1
1
1
1
1
1
1
1
1
1
1
1
1
1
1
1
1
1
1
1
1
1
1
1
1
1
1
1
1
1
1
1
1
1
1
1
1
1
1
1
1
1
1
1
1
1
1
1
1
1
1
1
1
1
1
1
1
1
1
1
1
1
1
1
1
1
1
1
1
1
1
1
1
1
0.999998
0.999996
0.999986
0.999964
0.999897
0.999611
0.88963
0.530645
0.137397
5.59515e-06
2.05258e-06
1.35642e-06
4.65709e-07
1.78184e-07
1.7621e-07
1.76229e-07
1.76265e-07
3.0968e-07
4.33059e-06
1.22485e-05
1
1
1
1
1
1
1
1
1
1
1
1
1
1
1
1
1
1
1
1
1
1
1
1
1
1
1
1
1
1
1
1
1
1
1
1
1
1
1
1
1
1
1
1
1
1
1
1
1
1
1
1
1
1
1
1
1
1
1
1
1
1
1
1
1
1
1
1
1
1
1
1
1
1
1
1
1
1
1
0.999995
0.999967
0.999913
0.999758
0.999387
0.957391
0.679727
0.188502
8.85554e-06
2.08593e-06
2.05293e-06
1.81158e-06
7.26675e-07
6.94943e-07
6.88222e-07
1.76159e-07
1.76205e-07
1.26996e-06
9.31347e-06
1.2783e-05
1.2783e-05
1
1
1
1
1
1
1
1
1
1
1
1
1
1
1
1
1
1
1
1
1
1
1
1
1
1
1
1
1
1
1
1
1
1
1
1
1
1
1
1
1
1
1
1
1
1
1
1
1
1
1
1
1
1
1
1
1
1
1
1
1
1
1
1
1
1
1
1
1
1
1
1
1
1
1
1
1
1
0.999999
0.999888
0.999433
0.990411
0.909968
0.692259
0.303684
0.00151346
2.18291e-06
2.34474e-06
2.25765e-06
2.2403e-06
2.28287e-06
2.41607e-06
1.81932e-06
1.83082e-07
1.76242e-07
2.97972e-06
1.25093e-05
1.25289e-05
1.13993e-05
3.25362e-06
1
1
1
1
1
1
1
1
1
1
1
1
1
1
1
1
1
1
1
1
1
1
1
1
1
1
1
1
1
1
1
1
1
1
1
1
1
1
1
1
1
1
1
1
1
1
1
1
1
1
1
1
1
1
1
1
1
1
1
1
1
1
1
1
1
1
1
1
1
1
1
1
1
1
1
1
1
1
0.999969
0.96034
0.755988
0.457985
0.201281
0.00829837
1.50566e-06
1.54473e-06
2.37241e-06
2.46897e-06
2.41381e-06
2.98188e-06
4.43977e-06
2.49945e-06
4.08331e-07
3.34918e-07
4.54957e-06
1.25085e-05
1.25339e-05
8.41026e-06
8.9687e-08
8.87988e-08
1
1
1
1
1
1
1
1
1
1
1
1
1
1
1
1
1
1
1
1
1
1
1
1
1
1
1
1
1
1
1
1
1
1
1
1
1
1
1
1
1
1
1
1
1
1
1
1
1
1
1
1
1
1
1
1
1
1
1
1
1
1
1
1
1
1
1
1
1
1
1
1
1
1
1
1
1
0.999998
0.86506
0.32772
0.0491747
2.96169e-06
1.49209e-06
1.47809e-06
1.50283e-06
1.4847e-06
4.8397e-06
1.17649e-05
1.70033e-05
1.56108e-05
7.99316e-07
6.85528e-07
6.65044e-07
6.75722e-06
1.25205e-05
1.25363e-05
6.83105e-06
9.77818e-08
9.02064e-08
8.97066e-08
1
1
1
1
1
1
1
1
1
1
1
1
1
1
1
1
1
1
1
1
1
1
1
1
1
1
1
1
1
1
1
1
1
1
1
1
1
1
1
1
1
1
1
1
1
1
1
1
1
1
1
1
1
1
1
1
1
1
1
1
1
1
1
1
1
1
1
1
1
1
1
1
1
1
1
1
1
0.943085
0.212851
5.26425e-05
2.96224e-06
1.4921e-06
1.47809e-06
1.47809e-06
1.47817e-06
7.56957e-06
1.63917e-05
1.72814e-05
1.72457e-05
8.31751e-06
7.325e-07
7.15713e-07
5.20974e-06
1.24723e-05
1.25363e-05
5.84248e-06
1.2841e-07
1.05262e-07
1.17603e-07
1.05602e-07
1
1
1
1
1
1
1
1
1
1
1
1
1
1
1
1
1
1
1
1
1
1
1
1
1
1
1
1
1
1
1
1
1
1
1
1
1
1
1
1
1
1
1
1
1
1
1
1
1
1
1
1
1
1
1
1
1
1
1
1
1
1
1
1
1
1
1
1
1
1
1
1
1
1
1
1
0.999997
0.460517
0.00276808
3.81581e-05
2.7725e-06
1.58181e-06
1.49213e-06
2.47198e-06
1.33576e-05
1.73266e-05
1.73278e-05
1.73225e-05
9.93727e-06
7.99939e-07
7.44048e-07
3.82606e-06
1.18827e-05
1.24368e-05
5.51537e-06
2.84947e-07
6.34459e-07
8.5789e-06
1.16139e-05
3.8512e-06
1
1
1
1
1
1
1
1
1
1
1
1
1
1
1
1
1
1
1
1
1
1
1
1
1
1
1
1
1
1
1
1
1
1
1
1
1
1
1
1
1
1
1
1
1
1
1
1
1
1
1
1
1
1
1
1
1
1
1
1
1
1
1
1
1
1
1
1
1
1
1
1
1
1
1
1
0.805824
0.111318
0.000353638
1.50653e-05
4.44225e-06
3.71227e-06
4.9491e-06
1.22992e-05
1.7321e-05
1.73278e-05
1.73225e-05
7.1339e-06
9.63077e-07
8.96951e-07
2.9619e-06
1.07918e-05
1.18318e-05
4.73492e-06
3.53801e-07
9.88699e-07
1.54829e-05
2.11582e-05
2.10807e-05
7.21807e-06
1
1
1
1
1
1
1
1
1
1
1
1
1
1
1
1
1
1
1
1
1
1
1
1
1
1
1
1
1
1
1
1
1
1
1
1
1
1
1
1
1
1
1
1
1
1
1
1
1
1
1
1
1
1
1
1
1
1
1
1
1
1
1
1
1
1
1
1
1
1
1
1
1
1
1
0.999995
0.423667
0.000577836
1.83424e-05
5.88631e-06
7.1523e-06
7.56809e-06
7.53276e-06
4.59184e-06
5.27543e-06
8.42072e-06
4.40643e-06
1.11265e-06
1.05601e-06
2.82288e-06
1.00131e-05
1.07797e-05
5.28145e-06
3.82585e-07
1.07211e-06
1.61963e-05
2.12358e-05
2.12358e-05
1.15961e-05
1.66136e-06
1
1
1
1
1
1
1
1
1
1
1
1
1
1
1
1
1
1
1
1
1
1
1
1
1
1
1
1
1
1
1
1
1
1
1
1
1
1
1
1
1
1
1
1
1
1
1
1
1
1
1
1
1
1
1
1
1
1
1
1
1
1
1
1
1
1
1
1
1
1
1
1
1
1
1
0.840375
0.108087
0.000121186
5.73514e-06
5.51584e-06
7.25447e-06
7.31213e-06
3.93161e-06
8.37131e-07
8.37166e-07
8.38713e-07
8.72538e-07
1.09508e-06
6.22997e-06
9.62348e-06
9.63774e-06
3.78886e-06
3.68198e-07
8.77196e-07
1.49248e-05
2.12212e-05
2.11648e-05
6.98598e-06
2.74412e-07
9.55928e-07
1
1
1
1
1
1
1
1
1
1
1
1
1
1
1
1
1
1
1
1
1
1
1
1
1
1
1
1
1
1
1
1
1
1
1
1
1
1
1
1
1
1
1
1
1
1
1
1
1
1
1
1
1
1
1
1
1
1
1
1
1
1
1
1
1
1
1
1
1
1
1
1
1
1
0.999985
0.462245
0.0042231
9.769e-06
2.80355e-06
5.52257e-06
6.61771e-06
3.00798e-06
8.37246e-07
8.37108e-07
8.37325e-07
8.44463e-07
4.80379e-06
9.23705e-06
9.21708e-06
8.94892e-06
2.56975e-06
3.44337e-07
6.94928e-07
1.33337e-05
2.11706e-05
2.0782e-05
3.92836e-06
2.5093e-07
2.57668e-07
1.04888e-05
1
1
1
1
1
1
1
1
1
1
1
1
1
1
1
1
1
1
1
1
1
1
1
1
1
1
1
1
1
1
1
1
1
1
1
1
1
1
1
1
1
1
1
1
1
1
1
1
1
1
1
1
1
1
1
1
1
1
1
1
1
1
1
1
1
1
1
1
1
1
1
1
1
0.999997
0.871631
0.133414
0.000133158
6.19719e-07
2.95055e-06
5.51984e-06
3.85043e-06
8.37802e-07
8.37164e-07
8.37333e-07
1.41678e-06
8.43024e-06
9.24154e-06
9.24154e-06
8.08483e-06
7.04638e-07
3.53542e-07
6.52947e-07
1.24355e-05
2.09434e-05
2.03901e-05
3.12319e-06
2.45314e-07
2.43302e-07
5.6305e-06
1.37738e-05
0.999977
0.999993
1
1
1
1
1
1
1
1
1
1
1
1
1
1
1
1
1
1
1
1
1
1
1
1
1
1
1
1
1
1
1
1
1
1
1
1
1
1
1
1
1
1
1
1
1
1
1
1
1
1
1
1
1
1
1
1
1
1
1
1
1
1
1
1
1
1
1
1
1
1
0.999997
0.999945
0.434283
0.00136463
6.16086e-07
6.14091e-07
2.88921e-06
3.63409e-06
8.38426e-07
8.38325e-07
8.37823e-07
9.67842e-07
4.2378e-06
4.61548e-06
4.31463e-06
2.1827e-06
4.97103e-07
3.32306e-07
7.29373e-07
1.22586e-05
2.02165e-05
1.94827e-05
3.041e-06
2.4463e-07
2.43003e-07
3.42995e-06
1.35699e-05
1.3757e-05
0.947185
0.981988
0.999968
1
1
1
1
1
1
1
1
1
1
1
1
1
1
1
1
1
1
1
1
1
1
1
1
1
1
1
1
1
1
1
1
1
1
1
1
1
1
1
1
1
1
1
1
1
1
1
1
1
1
1
1
1
1
1
1
1
1
1
1
1
1
1
1
1
1
1
1
1
0.999969
0.825739
0.106654
9.41417e-05
5.62544e-07
6.17528e-07
7.62112e-07
8.13153e-07
9.19404e-07
1.35827e-06
1.35971e-06
1.21569e-06
3.66228e-07
1.08685e-07
5.94575e-08
8.55341e-08
9.7121e-08
8.24535e-07
1.16976e-05
1.84635e-05
1.72514e-05
2.53551e-06
3.23497e-07
2.87229e-07
2.85494e-06
1.18862e-05
1.33378e-05
6.19475e-06
0.484423
0.617424
0.840345
0.999202
0.999999
1
1
1
1
0.967505
0.930723
0.893321
0.940609
1
1
1
1
1
1
1
1
1
1
1
1
1
1
1
1
1
1
1
1
1
1
1
1
1
1
1
1
1
1
1
1
1
1
1
1
1
1
1
1
1
1
1
1
1
1
1
1
1
1
1
1
1
1
1
1
1
1
0.999989
0.999549
0.29849
0.000171977
7.55281e-06
2.62011e-06
6.17639e-07
6.16151e-07
1.40348e-06
6.34604e-07
1.3273e-07
2.81599e-07
1.47808e-07
5.64995e-08
5.71256e-08
5.77993e-08
5.90012e-08
4.65277e-07
9.33867e-06
1.50614e-05
1.33323e-05
1.45538e-06
1.30821e-06
2.36131e-06
7.00882e-06
8.80189e-06
7.52994e-06
2.90666e-06
4.72485e-09
0.423909
0.451344
0.473308
0.852201
0.999704
0.999985
0.966994
0.823203
0.60523
0.380834
0.287104
0.216204
0.309437
0.759679
1
1
1
1
1
1
1
1
1
1
1
1
1
1
1
1
1
1
1
1
1
1
1
1
1
1
1
1
1
1
1
1
1
1
1
1
1
1
1
1
1
1
1
1
1
1
1
1
1
1
1
1
1
1
1
1
0.999995
0.999893
0.554507
0.00893703
3.50625e-05
4.66891e-05
6.84674e-07
6.17001e-07
3.80313e-06
3.76401e-06
4.50988e-07
5.62313e-08
5.62775e-08
5.63113e-08
5.64126e-08
5.64951e-08
5.713e-08
1.96106e-07
5.78227e-06
9.28932e-06
7.19617e-06
6.43284e-07
9.17395e-07
4.62075e-06
9.10946e-06
9.16818e-06
7.47369e-06
4.07628e-07
4.66227e-09
4.67486e-09
0.604584
0.789224
0.573263
0.60526
0.957088
0.999684
0.963949
0.666483
0.203152
0.0322647
0.0188555
0.0162863
0.011408
0.0475084
0.737325
1
1
1
1
1
1
1
1
1
1
1
1
1
1
1
1
1
1
1
1
1
1
1
1
1
1
1
1
1
1
1
1
1
1
1
1
1
1
1
1
1
1
1
1
1
1
1
1
1
1
1
1
1
1
0.999999
0.999925
0.840485
0.0662273
4.90474e-05
2.88201e-06
2.073e-06
8.55737e-07
3.77257e-06
3.94737e-06
3.05098e-06
5.62204e-08
5.62157e-08
5.62295e-08
5.62546e-08
5.6307e-08
5.67708e-08
2.06674e-07
2.1747e-06
4.0096e-06
2.13026e-06
4.34576e-07
5.71093e-07
5.95786e-06
9.15857e-06
9.16716e-06
5.58162e-06
4.66743e-09
4.66356e-09
4.65847e-09
4.66917e-09
0.788878
0.788961
0.636964
0.523439
0.724845
0.876875
0.745863
0.371162
0.0853484
0.00611278
0.0103057
0.0191654
0.00835936
0.00185899
0.0615558
0.78711
1
1
1
1
1
1
1
1
1
1
1
1
1
1
1
1
1
1
1
1
1
1
1
1
1
1
1
1
1
1
1
1
1
1
1
1
1
1
1
1
1
1
1
1
1
1
1
1
1
1
1
1
0.999998
0.999961
0.985505
0.200918
2.25006e-05
4.6621e-06
1.86127e-05
2.10388e-06
2.17036e-06
3.97896e-06
3.94726e-06
1.36233e-07
5.62006e-08
5.62037e-08
5.62275e-08
5.62983e-08
1.36358e-07
1.67114e-06
2.86965e-06
1.9558e-06
3.398e-07
3.39203e-07
5.30082e-07
6.05342e-06
9.15293e-06
9.15297e-06
3.47965e-06
4.66612e-09
4.66573e-09
4.66079e-09
4.66181e-09
4.44985e-09
0.788992
0.789087
0.220134
0.0209108
0.105774
0.187338
0.123693
0.0328228
0.000558508
0.0001519
2.41351e-05
0.000617412
0.00208151
0.000618008
0.00180848
0.134543
0.813458
1
1
1
1
1
1
1
1
1
1
1
1
1
1
1
1
1
1
1
1
1
1
1
1
1
1
1
1
1
1
1
1
1
1
1
1
1
1
1
1
1
1
1
1
1
1
1
1
1
1
0.999997
0.999967
0.99963
0.41511
2.24978e-05
1.72163e-06
1.91755e-06
2.8099e-06
2.29088e-06
3.9031e-06
3.97899e-06
7.61668e-07
5.65956e-08
5.63871e-08
5.62186e-08
5.62698e-08
8.95693e-07
6.72332e-06
9.11792e-06
5.59279e-06
3.45078e-07
3.39196e-07
4.11673e-07
5.06735e-06
9.02186e-06
8.88861e-06
1.96289e-06
4.73192e-09
4.67581e-09
4.67651e-09
4.7103e-09
4.8574e-09
5.13406e-09
0.788878
0.788544
0.12107
0.00627741
0.000879763
0.000469988
0.0011862
0.000736593
4.22713e-05
1.3618e-06
4.81223e-07
6.58996e-06
0.000360865
0.000205834
0.000632825
0.00219022
0.120876
0.742993
1
1
1
1
1
1
1
1
1
1
1
1
1
1
1
1
1
1
1
1
1
1
1
1
1
1
1
1
1
1
1
1
1
1
1
1
1
1
1
1
1
1
1
1
1
1
1
1
0.999997
0.999972
0.999694
0.768591
0.0306367
9.89763e-07
1.7225e-06
1.72138e-06
1.98739e-06
3.3295e-06
3.81878e-06
2.37355e-06
5.94087e-08
5.80163e-08
5.6596e-08
5.82087e-08
5.38024e-06
1.09324e-05
1.08958e-05
8.86282e-06
4.08189e-07
3.4595e-07
4.55758e-07
4.09832e-06
7.91361e-06
7.67056e-06
1.07898e-06
6.21016e-09
4.88793e-09
4.78788e-09
4.76366e-09
4.9233e-09
2.26203e-08
2.72595e-07
0.788809
0.436649
0.0997453
0.000303593
-1.50015e-05
6.45488e-07
2.00532e-05
2.50841e-08
1.39335e-07
1.34911e-07
1.71416e-07
1.77988e-07
3.58813e-07
6.7378e-05
0.000233449
0.00084825
0.000963166
0.0813378
0.558306
0.938726
1
1
1
1
1
1
1
1
1
1
1
1
1
1
1
1
1
1
1
1
1
1
1
1
1
1
1
1
1
1
1
1
1
1
1
1
1
1
1
1
1
1
1
1
0.999999
0.999997
0.999972
0.999707
0.964583
0.157283
7.67557e-05
1.43605e-06
1.70338e-06
3.13249e-06
3.94802e-06
3.89584e-06
3.49558e-06
8.36842e-08
7.15846e-08
5.94208e-08
2.8908e-06
1.08354e-05
1.10521e-05
1.10521e-05
4.86528e-06
4.76923e-07
4.55401e-07
1.52815e-06
6.54176e-06
7.56659e-06
5.05087e-06
9.2479e-08
1.59445e-08
7.48787e-09
6.2618e-09
5.87881e-09
5.47702e-09
6.32975e-09
1.85779e-07
8.19555e-07
0.787912
0.292295
0.30422
7.4369e-07
8.62191e-07
2.7152e-07
1.87187e-07
1.71389e-07
1.7172e-07
1.70339e-07
1.71685e-07
1.70425e-07
4.30023e-07
2.04816e-05
0.000111048
0.00037567
0.000219443
0.000251868
0.0144375
0.245215
0.687238
1
1
1
1
1
1
1
1
1
1
1
1
1
1
1
1
1
1
1
1
1
1
1
1
1
1
1
1
1
1
1
1
1
1
1
1
1
1
1
1
1
1
0.999999
0.999995
0.99997
0.999737
0.99486
0.355623
0.000101148
1.18888e-06
1.23723e-06
2.33256e-06
3.96414e-06
3.95755e-06
3.94815e-06
5.23767e-07
1.17976e-07
1.14929e-07
7.94456e-06
1.13538e-05
1.13538e-05
1.06781e-05
1.62844e-06
5.97442e-07
5.92939e-07
4.01808e-06
8.51005e-06
8.44846e-06
6.70589e-06
2.81195e-07
6.45996e-08
4.29707e-08
5.54878e-07
8.50798e-07
3.56249e-07
1.61644e-08
1.80787e-08
6.69975e-07
8.19581e-07
0.766528
0.348822
0.427521
8.71355e-06
8.08487e-07
3.12588e-07
1.89413e-07
1.74178e-07
1.746e-07
1.71546e-07
1.71703e-07
1.77916e-07
6.32055e-07
1.48919e-05
5.28632e-05
0.000138094
6.14786e-05
4.05526e-05
4.96609e-05
4.39785e-05
0.0373332
0.293773
0.837834
1
1
1
1
1
1
1
1
1
1
1
1
1
1
1
1
1
1
1
1
1
1
1
1
1
1
1
1
1
1
1
1
1
1
1
1
1
1
1
0.999998
0.999993
0.999957
0.999737
0.997482
0.552692
0.00015939
2.22148e-06
1.2198e-06
1.19106e-06
2.36148e-06
3.96418e-06
3.96446e-06
1.68174e-06
5.75279e-07
7.57811e-07
1.04134e-05
1.1232e-05
1.12792e-05
9.04745e-06
8.62309e-07
8.62284e-07
1.24225e-06
6.99782e-06
8.68716e-06
8.68698e-06
5.31662e-06
2.55643e-07
2.90277e-07
7.69768e-07
5.48723e-06
8.61864e-06
9.4236e-06
7.50318e-06
4.50949e-06
2.61818e-06
1.73081e-06
1.33144e-07
0.376903
0.49729
0.458248
0.0165443
1.76385e-06
7.76783e-07
3.78407e-07
1.8643e-07
1.77279e-07
4.78705e-07
7.04107e-07
5.52448e-07
1.52107e-06
1.31901e-05
2.3048e-05
5.00633e-05
2.04145e-05
1.02305e-05
3.11191e-05
4.39785e-05
4.99935e-05
0.000339665
0.0528438
0.565886
0.99998
1
1
1
1
1
0.999999
0.999999
1
1
1
1
1
1
1
1
1
1
1
1
1
1
1
1
1
1
1
1
1
1
1
1
1
1
1
1
0.999999
0.999996
0.999983
0.999938
0.999634
0.997766
0.64095
0.0121952
-6.16639e-06
1.19593e-06
1.15561e-06
1.18097e-06
1.3541e-06
3.04836e-06
2.48713e-06
1.25869e-06
1.326e-06
1.11622e-05
1.12618e-05
1.12516e-05
7.69448e-06
9.36433e-07
9.10646e-07
2.28736e-06
8.33179e-06
8.68731e-06
8.68733e-06
3.60595e-06
1.95458e-07
2.13014e-07
2.14546e-06
8.97475e-06
9.9195e-06
9.91988e-06
9.91653e-06
9.88538e-06
9.72853e-06
7.58017e-06
2.50886e-07
4.63518e-09
0.357495
0.497332
0.467476
0.01855
2.3314e-06
1.48092e-05
5.78364e-06
2.54655e-07
1.71236e-07
3.06986e-07
1.31909e-06
2.09605e-06
3.12555e-06
4.9242e-06
8.93536e-06
1.68276e-05
7.76526e-06
3.44341e-06
1.09411e-05
2.80332e-05
8.3046e-05
0.00118401
0.0512805
0.501354
0.789211
0.929447
1
1
1
1
1
0.999729
0.985649
0.963498
0.981858
1
0.999638
1
1
0.999925
1
1
1
1
1
1
1
1
1
1
1
1
1
1
1
1
1
1
1
0.999998
0.99999
0.999961
0.999848
0.999465
0.995644
0.709812
0.0363306
1.29105e-06
1.19812e-06
1.19075e-06
1.18263e-06
1.18248e-06
1.18272e-06
1.19656e-06
1.25876e-06
1.85225e-06
1.1238e-05
1.12721e-05
1.12721e-05
6.1173e-06
7.24713e-07
8.47895e-07
3.26677e-06
8.64829e-06
8.64829e-06
8.36165e-06
1.95908e-06
1.68557e-07
1.76831e-07
3.66231e-06
9.92992e-06
9.92257e-06
9.92213e-06
9.91817e-06
9.4537e-06
5.31176e-06
2.6335e-06
4.82237e-07
1.01164e-08
4.71489e-09
0.357496
0.497284
0.489956
0.00994154
4.61104e-06
0.000119126
1.11499e-05
1.70802e-07
1.63722e-07
1.6356e-07
3.93192e-07
8.24945e-07
1.24215e-06
1.16584e-06
3.12054e-06
5.3492e-06
2.74877e-06
1.67895e-06
2.30198e-06
9.18656e-06
0.000103392
0.000807141
0.020855
0.365863
0.854404
0.912838
0.978748
1
1
1
0.999996
0.989686
0.943304
0.935166
0.935588
0.989066
0.999635
0.999413
0.997629
0.999387
1
0.999973
0.99996
1
1
1
1
0.999998
0.999999
1
1
1
1
1
1
1
1
0.999999
0.999995
0.999978
0.999907
0.99965
0.998688
0.977654
0.618085
0.0609249
7.42264e-06
2.90281e-06
4.39174e-06
2.92204e-06
1.18262e-06
1.18262e-06
1.18249e-06
1.18523e-06
1.56073e-06
1.02403e-05
1.12574e-05
1.12721e-05
4.7508e-06
4.68953e-07
6.04942e-07
3.69805e-06
8.60127e-06
8.64426e-06
7.4825e-06
8.68815e-07
1.50764e-07
1.62199e-07
4.03204e-06
9.90256e-06
9.92423e-06
9.91302e-06
9.91264e-06
7.03983e-06
4.22085e-07
7.96905e-09
7.93384e-09
7.97309e-09
7.75591e-09
5.2871e-09
0.357877
0.497107
0.496161
0.0532632
1.47017e-05
0.000121682
9.25771e-06
1.66589e-07
1.63585e-07
1.63567e-07
1.636e-07
1.72774e-07
2.1628e-07
3.97442e-07
1.03438e-06
1.66178e-06
8.38724e-07
8.05482e-07
1.10691e-06
2.45627e-06
0.000499017
0.00261334
0.00345123
0.0981681
0.767651
0.988303
0.956237
0.97461
1
0.999999
0.99804
0.961598
0.93475
0.93475
0.957656
0.997589
0.999397
0.997318
0.996896
0.996896
0.998548
1
1
1
1
0.999997
0.999975
0.999991
1
1
1
1
1
1
1
0.999999
0.999998
0.999989
0.999953
0.999785
0.999144
0.994458
0.857198
0.436175
0.0274775
9.43737e-06
7.85058e-06
7.86914e-06
4.41426e-06
4.50918e-06
3.81721e-06
1.51732e-06
1.18533e-06
1.23137e-06
7.98797e-06
1.11493e-05
1.12426e-05
4.44529e-06
1.59489e-07
3.19439e-07
3.86932e-06
8.47382e-06
8.54634e-06
6.56445e-06
3.30241e-07
1.31437e-07
1.42654e-07
3.54175e-06
9.8879e-06
9.90185e-06
9.90256e-06
9.82338e-06
4.27638e-06
1.12018e-08
8.47315e-09
7.96776e-09
8.01387e-09
1.20692e-08
5.95633e-08
8.02874e-08
0.38297
0.496417
0.463389
0.070169
0.00010809
6.33689e-05
9.12125e-07
1.74842e-07
1.64715e-07
1.63584e-07
1.64594e-07
1.65599e-07
1.75753e-07
1.9772e-07
3.75014e-07
5.24393e-07
3.66241e-07
4.66692e-07
6.72141e-07
3.84466e-06
0.000454156
0.000443
0.00116559
0.101209
0.795314
0.999564
0.971699
0.951094
0.97302
0.999962
0.985147
0.956244
0.954787
0.984979
0.998719
0.999547
0.99854
0.998534
0.998865
0.998914
0.998783
0.999297
0.999442
0.999666
0.99963
0.999567
0.999801
1
1
1
1
1
1
0.999999
0.999998
0.999993
0.999974
0.999883
0.999535
0.997974
0.908296
0.567806
0.165531
1.97949e-06
8.89644e-06
1.77564e-05
2.57559e-05
4.69638e-05
1.97384e-05
1.24014e-06
1.24626e-06
1.77353e-06
2.97298e-06
7.57024e-06
1.08359e-05
1.10559e-05
5.17949e-06
9.28863e-08
1.24153e-07
3.3574e-07
6.48478e-06
8.42072e-06
5.72919e-06
1.08266e-07
1.14961e-07
1.21623e-07
2.22438e-06
9.63788e-06
9.83928e-06
9.88791e-06
8.75404e-06
2.36511e-06
2.38742e-07
2.38503e-08
1.12453e-08
8.47745e-09
8.80623e-09
1.87526e-07
6.65703e-07
6.3705e-07
0.487471
0.489264
0.166856
0.01056
1.78814e-05
3.6544e-06
2.10926e-06
2.47147e-07
1.74442e-07
2.26767e-07
1.66023e-07
1.65812e-07
1.69519e-07
1.54154e-07
1.84017e-07
2.20441e-07
2.07244e-07
3.71606e-07
4.67014e-07
9.9231e-06
7.84733e-05
0.000124309
0.000311089
0.033173
0.650255
0.999826
0.99265
0.95132
0.951095
0.990439
0.993161
0.995821
0.999362
0.999984
0.99999
0.999966
0.999888
0.999982
0.999989
0.999858
0.999346
0.999095
0.999095
0.999095
0.999096
0.999192
0.999897
1
1
0.999999
0.999999
0.999997
0.999994
0.999988
0.999968
0.999909
0.999703
0.99877
0.956872
0.678153
0.232836
0.00938892
2.68121e-07
3.74503e-07
1.96839e-05
0.000242667
9.50795e-05
3.30799e-05
9.13636e-06
1.20906e-06
1.21815e-06
1.2455e-06
6.36286e-06
1.04997e-05
1.065e-05
7.01278e-06
8.6952e-08
8.60362e-08
9.2942e-08
8.81852e-07
1.57144e-06
1.31478e-06
2.29214e-07
1.08233e-07
1.08276e-07
2.12817e-07
5.35341e-06
9.30432e-06
8.91551e-06
4.13238e-06
2.40043e-06
3.76678e-06
8.24762e-06
7.34064e-06
5.85306e-07
1.59154e-08
1.40394e-08
2.97904e-07
7.30724e-07
7.36971e-07
0.483719
0.14779
0.000585624
4.56927e-05
2.46139e-06
4.73427e-06
1.34178e-05
1.26672e-05
2.38835e-07
2.91665e-07
2.94227e-07
2.88841e-07
2.82783e-07
1.46216e-07
1.31915e-07
1.46681e-07
1.49289e-07
9.60611e-06
0.000296905
0.000222776
8.10513e-05
0.000128859
0.00018183
0.0452233
0.702711
0.999897
0.998435
0.98123
0.981172
0.988604
0.998601
0.999988
0.99999
0.999991
0.999991
0.999991
0.99999
0.99999
0.99999
0.99999
0.999965
0.999678
0.999274
0.999208
0.999749
0.999959
0.99997
0.999999
0.999997
0.999991
0.999977
0.999955
0.999919
0.999833
0.999572
0.998879
0.966321
0.754867
0.337506
0.0455049
5.49513e-08
6.58039e-08
1.0066e-07
1.63816e-05
0.000263806
0.000277768
0.000103059
1.22143e-06
1.21079e-06
1.21077e-06
1.21078e-06
1.91158e-06
1.02522e-05
1.03321e-05
8.78633e-06
8.70137e-08
8.16102e-08
8.30065e-08
1.47473e-07
2.75303e-07
1.48193e-07
1.6041e-07
1.70365e-07
3.962e-07
2.27772e-06
3.86732e-06
2.55544e-06
1.15636e-06
2.32782e-07
2.71508e-07
3.15747e-06
1.72239e-05
2.0521e-05
2.05119e-05
1.49999e-05
2.42326e-06
2.1849e-08
7.76509e-08
6.22757e-07
7.37019e-07
0.474887
0.000584999
7.02772e-05
6.92122e-06
4.06852e-06
4.78572e-06
2.73313e-05
7.91247e-05
8.13307e-06
1.59008e-07
1.54151e-07
2.34721e-07
2.59165e-07
1.33559e-07
1.37527e-07
1.34206e-07
1.33674e-07
0.000152468
0.000719398
0.000760326
0.00021568
0.000179752
0.000211616
0.0352049
0.680373
0.999904
0.999851
0.999833
0.999771
0.996915
0.999988
0.99999
0.999991
0.999991
0.999991
0.999991
0.999991
0.999985
0.99999
0.999988
0.999962
0.999873
0.999792
0.999736
0.999772
0.999959
0.999958
0.999976
0.999946
0.999861
0.999671
0.999359
0.998645
0.97665
0.894551
0.699826
0.355247
0.0759246
5.7032e-09
9.0097e-09
2.57034e-08
8.89071e-08
1.03005e-06
0.000118826
0.00028913
0.00028913
4.74064e-05
1.20916e-06
1.2214e-06
1.21078e-06
1.2264e-06
6.01902e-06
1.00905e-05
9.66988e-06
4.24838e-07
8.16448e-08
8.13904e-08
8.16573e-08
1.11121e-07
1.35802e-07
1.39606e-07
1.55961e-07
2.11243e-06
4.71973e-06
4.72312e-06
4.25569e-06
3.03998e-07
1.68318e-07
1.92341e-07
5.1192e-06
1.9649e-05
2.0521e-05
2.05277e-05
2.0521e-05
2.04528e-05
1.2522e-05
2.58406e-08
3.38364e-08
9.76081e-08
7.36962e-07
0.155489
0.00845461
4.19551e-06
4.00187e-06
3.97268e-06
4.1899e-06
1.95337e-05
9.86444e-05
0.000101558
4.92185e-07
1.53911e-07
1.45852e-07
1.36083e-07
1.34367e-07
1.3372e-07
1.32002e-07
1.2948e-07
4.14975e-05
0.000760014
0.000771244
0.000288937
0.00021966
0.000205402
0.0429316
0.705568
0.999904
0.999904
0.999897
0.999867
0.999988
0.99999
0.999989
0.99999
0.999991
0.999991
0.999991
0.993171
0.988108
0.994442
0.999233
0.999911
0.999829
0.999749
0.999692
0.999697
0.999839
0.999719
0.999513
0.995591
0.963443
0.885706
0.76235
0.599002
0.385595
0.186838
0.0386191
4.95736e-10
5.62526e-10
1.22152e-09
9.339e-09
7.66228e-07
2.57574e-06
3.22217e-06
0.000145045
0.00028913
0.000198518
1.20786e-06
1.20591e-06
1.20918e-06
1.2264e-06
5.65314e-06
9.53996e-06
9.54707e-06
1.06452e-06
8.1587e-08
8.14227e-08
8.14402e-08
8.14721e-08
8.40455e-08
8.29915e-08
2.17147e-07
3.06108e-06
4.71418e-06
4.72313e-06
3.64834e-06
1.81371e-07
1.38529e-07
1.40981e-07
2.17392e-07
1.22333e-05
2.04957e-05
2.05277e-05
2.0521e-05
2.04528e-05
1.26577e-05
2.61004e-06
1.05621e-07
6.41261e-07
6.2665e-07
4.89113e-07