/*--------------------------------*- C++ -*----------------------------------*\
| =========                 |                                                 |
| \\      /  F ield         | OpenFOAM: The Open Source CFD Toolbox           |
|  \\    /   O peration     | Version:  2.4.0                                 |
|   \\  /    A nd           | Web:      www.OpenFOAM.org                      |
|    \\/     M anipulation  |                                                 |
\*---------------------------------------------------------------------------*/
FoamFile
{
    version     2.0;
    format      ascii;
    class       volScalarField;
    location    "0.094";
    object      p_rgh;
}
// * * * * * * * * * * * * * * * * * * * * * * * * * * * * * * * * * * * * * //

dimensions      [1 -1 -2 0 0 0 0];

internalField   nonuniform List<scalar> 
57600
(
104.522
105.475
107.032
107.932
107.008
103.7
98.6396
92.6877
86.6575
81.3297
77.2641
74.5659
73.0838
72.649
73.1006
74.237
75.8282
77.6499
79.5088
81.264
82.8287
84.1635
85.2619
86.1378
86.816
87.3244
87.6906
87.9402
88.0961
88.1787
104.517
105.85
107.353
107.932
106.426
102.606
97.2506
91.1966
85.2561
80.1894
76.4542
74.0645
72.8478
72.6425
73.2827
74.5571
76.2346
78.0948
79.9535
81.6809
83.2019
84.4858
85.533
86.3613
86.9977
87.4703
87.807
88.0325
88.1693
88.2371
104.503
105.849
107.362
107.96
106.463
102.636
97.2689
91.2006
85.2335
80.1379
76.3836
73.9827
72.7559
72.5423
73.1804
74.4606
76.1553
78.0433
79.9355
81.696
83.2453
84.551
85.6137
86.4527
87.0962
87.5735
87.9134
88.1411
88.2791
88.3474
104.48
105.846
107.374
108.004
106.525
102.687
97.3026
91.2084
85.1982
80.056
76.2713
73.8532
72.6113
72.3857
73.022
74.311
76.0292
77.9564
79.8972
81.7066
83.2981
84.6367
85.7227
86.5772
87.2301
87.7129
88.0557
88.2851
88.424
88.4927
104.448
105.84
107.391
108.065
106.611
102.76
97.3511
91.2203
85.1503
79.9435
76.1168
73.6754
72.4135
72.1715
72.806
74.106
75.8538
77.832
79.8372
81.712
83.3604
84.7429
85.8602
86.7352
87.4002
87.8893
88.2348
88.465
88.6042
88.673
104.406
105.832
107.411
108.143
106.722
102.853
97.4144
91.2369
85.09
79.8001
75.9194
73.4487
72.1618
71.8978
72.5302
73.842
75.6243
77.6654
79.7523
81.7108
83.4317
84.8702
86.0273
86.9287
87.61
88.1081
88.4578
88.6896
88.8294
88.8986
104.355
105.823
107.434
108.238
106.859
102.967
97.4926
91.2593
85.0176
79.6253
75.6781
73.1723
71.8554
71.5624
72.1919
73.5143
75.3342
77.4508
79.6391
81.7022
83.5129
85.02
86.2255
87.1593
87.8614
88.3719
88.7286
88.964
89.1055
89.1755
104.294
105.811
107.459
108.351
107.021
103.102
97.5859
91.2884
84.9334
79.4186
75.392
72.8448
71.4932
71.1625
71.7882
73.1165
74.9755
77.181
79.494
81.6865
83.6068
85.1956
86.458
87.4299
88.1568
88.683
89.0493
89.2903
89.4347
89.5059
104.223
105.798
107.487
108.481
107.211
103.258
97.6946
91.3246
84.8378
79.1797
75.0595
72.4643
71.0735
70.6948
71.3158
72.6397
74.5372
76.8468
79.3126
81.6648
83.7174
85.4021
86.7295
87.7443
88.4993
89.0439
89.4219
89.6699
89.818
89.8907
104.142
105.783
107.517
108.63
107.427
103.435
97.8192
91.3691
84.7314
78.908
74.6784
72.0291
70.5936
70.1555
70.7721
72.0704
74.0047
76.4357
79.0902
81.6397
83.8507
85.6458
87.0454
88.107
88.8924
89.457
89.8481
90.1041
90.2565
90.3306
104.049
105.767
107.547
108.796
107.673
103.633
97.9603
91.4229
84.6147
78.6032
74.2457
71.5386
70.051
69.541
70.1556
71.3863
73.3579
75.9319
78.8213
81.6158
84.0153
85.9347
87.4123
88.5227
89.3395
89.9248
90.3295
90.5941
90.751
90.8264
103.945
105.751
107.578
108.98
107.947
103.852
98.1184
91.4877
84.4881
78.265
73.7563
70.9942
69.4448
68.851
69.4672
70.5479
72.57
75.3141
78.5007
81.6021
84.2231
86.2786
87.8368
88.996
89.8437
90.4492
90.8673
91.1404
91.3019
91.3785
103.828
105.734
107.607
109.184
108.252
104.09
98.2941
91.5658
84.352
77.8932
73.2009
70.3978
68.7706
68.0952
68.7014
69.4843
71.6038
74.5529
78.1237
81.6137
84.4905
86.6892
88.3264
89.5315
90.4077
91.032
91.4623
91.7425
91.9067
91.9819
103.699
105.717
107.634
109.407
108.588
104.349
98.4882
91.6599
84.2066
77.4876
72.5627
69.749
68.0143
67.3022
67.8167
68.0649
70.4078
73.6047
77.6881
81.6757
84.8392
87.1792
88.8879
90.133
91.034
91.6747
92.1159
92.4015
92.5635
92.6252
103.556
105.701
107.658
109.649
108.959
104.625
98.7015
91.7749
84.051
77.047
71.8109
69.0396
67.148
66.5329
66.5369
66.0319
68.9158
72.393
77.1966
81.8288
85.2955
87.7605
89.5268
90.8035
91.7244
92.3788
92.8304
93.1243
93.2939
93.3712
103.398
105.687
107.675
109.912
109.364
104.92
98.935
91.9089
83.8824
76.5677
70.8929
68.2373
66.0313
65.8771
63.7456
63.01
67.0622
70.7309
76.6616
82.1342
85.8866
88.4416
90.2455
91.5444
92.4803
93.1456
93.6059
93.9086
94.0869
94.1621
103.225
105.675
107.686
110.197
109.806
105.229
99.1902
92.0559
83.6946
76.0405
69.7098
67.2993
63.9769
65.7988
59.9547
58.6813
64.6904
68.1472
76.1225
82.6682
86.6299
89.2213
91.0418
92.3558
93.3036
93.977
94.4426
94.7481
94.9247
95.0132
103.034
105.668
107.686
110.503
110.287
105.552
99.4686
92.2282
83.4733
75.4395
68.0989
66.5496
61.06
66.9088
57.5922
53.0637
61.5565
64.3123
75.7601
83.4694
87.5112
90.084
91.9085
93.2369
94.1974
94.8787
95.3479
95.6535
95.8279
95.8951
102.826
105.665
107.675
110.833
110.811
105.884
99.7725
92.4288
83.1873
74.7173
66.2045
64.7139
59.3578
68.3681
56.0763
46.8371
58.1307
61.1267
75.8492
84.4189
88.4582
90.9965
92.8341
94.1871
95.1663
95.8589
96.3345
96.6451
96.8296
96.9193
102.597
105.67
107.648
111.187
111.378
106.22
100.105
92.6597
82.7696
73.8222
64.7723
63.3741
57.5582
70.0317
30.5533
40.1276
55.6653
61.2513
75.6197
85.1079
89.3444
91.9167
93.8086
95.2083
96.2169
96.9265
97.4125
97.7326
97.9309
98.0419
102.346
105.683
107.603
111.567
111.993
106.553
100.469
92.922
82.2349
72.6842
63.3793
19.2775
0.133361
0.0621869
-0.00269044
-0.50474
55.8362
63.9354
73.0097
84.9883
90.0448
92.8178
94.8321
96.3071
97.357
98.0889
98.5881
98.9179
99.1256
99.247
102.072
105.707
107.536
111.976
112.66
106.873
100.866
93.2155
82.269
71.0525
61.4298
0.204609
0.120223
0.0667718
-0.0361895
-0.277692
20.1513
66.6863
69.4368
84.1501
90.5556
93.7148
95.9206
97.496
98.5958
99.3524
99.8645
100.201
100.412
100.533
101.771
105.742
107.443
112.416
113.382
107.166
101.298
93.5355
82.9329
68.1595
-0.0798806
0.0574171
0.0785435
0.0558344
-0.125198
-0.309138
-1.51626
68.3767
68.6746
83.6108
91.0742
94.6652
97.1014
98.7915
99.9431
100.722
101.244
101.584
101.791
101.9
101.441
105.792
107.319
112.892
114.163
107.407
101.759
93.8739
83.9028
56.8234
-0.108717
0.0173247
0.0331255
0.0158064
-0.168109
-0.341285
-0.253083
66.5165
70.9177
84.2182
91.7974
95.7244
98.4053
100.213
101.407
102.202
102.73
103.067
103.264
103.357
101.077
105.856
107.16
113.408
115.008
107.563
102.24
94.2418
85.6721
-1.13421
-0.0961889
0.004365
-0.0122183
-0.0410638
-0.205565
-0.331458
-0.283235
-5.65366
75.9985
86.1521
92.63
96.9394
99.8734
101.775
102.992
103.792
104.323
104.659
104.847
104.917
100.677
105.935
106.961
113.971
115.921
107.578
102.722
94.6916
87.7174
0.0357631
-0.0706668
-0.0073835
-0.024701
-0.092911
-0.228267
-0.309974
-0.283101
0.389854
81.5051
88.9683
93.6157
98.4542
101.565
103.48
104.687
105.487
106.025
106.367
106.555
106.62
100.234
106.029
106.718
114.592
116.903
107.367
103.181
95.2933
60.6443
0.0625955
-0.0484151
-0.0163293
-0.0625661
-0.125079
-0.245163
-0.292942
-0.279469
-0.22979
85.1829
91.2084
95.1112
100.499
103.514
105.301
106.47
107.282
107.841
108.199
108.395
108.46
99.7427
106.139
106.427
115.284
117.952
106.793
103.593
96.1522
0.358998
0.0621514
-0.0319042
-0.0247589
-0.0787681
-0.158955
-0.260845
-0.272254
-0.277208
-0.243478
87.1316
90.6761
97.1603
103.099
105.641
107.207
108.32
109.179
109.779
110.164
110.377
110.451
99.1936
106.262
106.087
116.068
119.059
105.648
103.945
97.6599
0.371235
0.0645623
-0.0199431
-0.0266477
-0.0947906
-0.19942
-0.280965
-0.245769
-0.279783
-0.313517
75.5014
91.6494
99.2182
105.74
107.891
109.244
110.286
111.199
111.855
112.279
112.515
112.601
98.5867
106.401
105.699
116.972
120.203
103.866
104.291
98.7168
0.637037
0.0715983
-0.0121815
-0.025545
-0.115216
-0.248372
-0.314537
-0.218508
-0.287154
-0.420332
19.1223
96.4095
102.915
108.39
110.353
111.512
112.443
113.365
114.089
114.559
114.819
114.917
88.2054
88.1852
88.1075
87.9549
87.7063
87.338
86.8226
86.1312
85.2337
84.1046
82.7297
81.1189
79.3199
77.4312
75.6075
74.0525
73.0023
72.679
73.2329
74.7721
77.4799
81.5591
86.8808
92.8225
98.5626
103.285
106.162
106.759
105.828
104.43
88.2523
88.2187
88.1233
87.9476
87.6698
87.2653
86.706
85.962
85.0033
83.8055
82.3589
80.6813
78.8339
76.9314
75.1441
73.6882
72.8033
72.6966
73.4958
75.3148
78.3653
82.8066
88.3727
94.35
99.9099
104.242
106.535
106.623
105.489
104.15
88.3625
88.3284
88.2318
88.0542
87.7739
87.3658
86.8013
86.0493
85.0779
83.8611
82.3884
80.6784
78.7966
76.8636
75.0548
73.5883
72.7047
72.6083
73.4187
75.2438
78.3047
82.7708
88.3669
94.3646
99.9355
104.275
106.566
106.636
105.491
104.142
88.5078
88.4735
88.3763
88.1976
87.9154
87.5041
86.9332
86.1697
85.1794
83.9341
82.4219
80.6635
78.7307
76.754
74.9147
73.4328
72.5508
72.4701
73.297
75.1309
78.2082
82.7147
88.3592
94.3901
99.9788
104.332
106.617
106.656
105.493
104.127
88.6884
88.6544
88.5575
88.379
88.096
87.6814
87.1026
86.3242
85.3088
84.0251
82.4597
80.6358
78.6346
76.6002
74.7217
73.2195
72.34
72.2813
73.1307
74.9756
78.0754
82.638
88.3498
94.4266
100.04
104.411
106.687
106.683
105.496
104.105
88.9144
88.8807
88.7843
88.6056
88.321
87.9014
87.312
86.5141
85.4666
84.1343
82.5011
80.5929
78.5039
76.3979
74.4725
72.9455
72.0702
72.0414
72.9198
74.7773
77.9054
82.5407
88.3392
94.4747
100.119
104.513
106.778
106.716
105.498
104.076
89.1916
89.158
89.061
88.881
88.5928
88.166
87.5629
86.7412
85.6551
84.2638
82.5468
80.5327
78.3337
76.1416
74.1628
72.6072
71.739
71.7495
72.6645
74.5353
77.6973
82.4225
88.3282
94.5347
100.217
104.639
106.889
106.755
105.5
104.04
89.5222
89.4881
89.3897
89.2068
88.9136
88.4775
87.8582
87.0089
85.878
84.417
82.5987
80.4533
78.1174
75.8244
73.7877
72.1997
71.3433
71.4046
72.3651
74.2485
77.4499
82.2834
88.3174
94.6072
100.332
104.788
107.021
106.799
105.502
103.996
89.907
89.8718
89.7713
89.5849
89.2858
88.8393
88.2018
87.3219
86.1405
84.5993
82.6602
80.3529
77.8464
75.4372
73.3406
71.7173
70.8797
71.0049
72.0224
73.9156
77.1619
82.123
88.3081
94.6931
100.465
104.962
107.174
106.849
105.504
103.945
90.3466
90.3099
90.2069
90.017
89.712
89.2548
88.5981
87.6853
86.4488
84.8174
82.7368
80.2301
77.5087
74.9677
72.8133
71.1527
70.3449
70.5479
71.6367
73.5344
76.8319
81.941
88.3015
94.793
100.616
105.16
107.35
106.903
105.506
103.886
90.8416
90.8028
90.6977
90.5055
90.1956
89.7279
89.0517
88.1047
86.8101
85.0804
82.8369
80.0849
77.0879
74.3996
72.1938
70.4964
69.7364
70.0294
71.2077
73.1018
76.4579
81.7368
88.2993
94.908
100.784
105.383
107.549
106.96
105.509
103.819
91.3919
91.3507
91.2457
91.0541
90.7407
90.2626
89.5666
88.5854
87.232
85.3991
82.9732
79.9207
76.5601
73.7093
71.4623
69.7347
69.0542
69.4434
70.7323
72.6124
76.0379
81.5096
88.3034
95.0392
100.97
105.631
107.771
107.02
105.512
103.743
91.9902
91.9512
91.8572
91.6696
91.3515
90.8621
90.1465
89.1323
87.7221
85.7865
83.1646
79.7478
75.8902
72.8593
70.5806
68.8415
68.3046
68.7784
70.2033
72.0581
75.5695
81.258
88.3163
95.188
101.172
105.906
108.019
107.081
105.516
103.658
92.6126
92.6141
92.5513
92.3578
92.0296
91.5277
90.7933
89.7487
88.287
86.2563
83.4369
79.5895
75.0224
71.7778
69.4589
67.7792
67.5108
68.0131
69.6089
71.4256
75.0516
80.9799
88.3406
95.3561
101.39
106.207
108.293
107.141
105.521
103.564
93.4376
93.4554
93.3205
93.1071
92.771
92.2591
91.5075
90.4357
88.9304
86.8205
83.8223
79.4934
73.8581
70.3098
67.8657
66.3898
66.7317
67.1064
68.9285
70.6938
74.4868
80.6713
88.3794
95.5458
101.624
106.536
108.595
107.2
105.528
103.459
94.1885
94.315
94.0825
93.9017
93.5742
93.0562
92.2884
91.1917
89.6512
87.484
84.3526
79.5476
72.1635
68.0954
65.2832
63.9423
66.0636
65.9388
68.1412
69.8227
73.8851
80.325
88.4359
95.7598
101.87
106.893
108.927
107.254
105.537
103.344
95.0316
95.0012
94.9471
94.7771
94.4492
93.9205
93.134
92.012
90.4414
88.2385
85.04
79.8826
69.3385
64.3942
60.7769
59.8363
65.9881
64.1298
67.3604
68.7324
73.2679
79.9263
88.5136
96.0007
102.129
107.278
109.292
107.3
105.549
103.217
95.9181
95.9486
95.9191
95.7424
95.3994
94.8517
94.0411
92.8893
91.2861
89.0551
85.8368
80.5438
65.724
59.1651
53.6133
55.5063
67.5981
61.4166
66.5554
67.2205
72.6773
79.441
88.6167
96.2706
102.395
107.693
109.691
107.335
105.565
103.078
96.9582
96.996
96.9698
96.7806
96.4179
95.8462
95.0062
93.8163
92.1666
89.8852
86.5908
81.1457
64.4205
55.7803
45.0732
51.78
69.5734
59.4144
65.8171
65.0961
72.2095
78.7901
88.7508
96.5715
102.666
108.139
110.128
107.356
105.586
102.925
98.0994
98.1315
98.0895
97.8819
97.4981
96.9016
96.0286
94.7898
93.0675
90.6778
87.0916
80.6902
65.1889
56.1834
35.7887
38.0545
71.8705
56.4721
65.3388
63.1884
71.9826
77.7979
88.9206
96.9059
102.935
108.616
110.607
107.356
105.613
102.758
99.3106
99.3349
99.2697
99.0424
98.6388
98.0199
97.1135
95.816
93.9896
91.4152
87.2582
78.6028
65.1558
59.6438
-10.8367
0.127988
0.327072
0.375706
6.87924
60.8653
72.0875
76.3221
89.1265
97.2773
103.195
109.126
111.132
107.33
105.65
102.575
100.593
100.604
100.507
100.263
99.8446
99.2088
98.2735
96.9141
94.96
92.1415
87.3052
76.326
64.7195
60.8934
-0.483893
0.0195992
0.331113
0.364045
0.429542
5.25518
72.8751
75.1447
89.3823
97.6889
103.433
109.669
111.71
107.268
105.699
102.376
101.936
101.897
101.843
101.556
101.125
100.481
99.5261
98.1135
96.0318
92.9697
87.6506
75.8406
65.7893
0.226188
-0.28713
-0.0555281
0.316539
0.334776
0.377354
0.120216
74.5785
74.979
89.6754
98.1421
103.633
110.247
112.346
107.163
105.763
102.157
103.37
109.267
103.156
102.911
102.492
101.849
100.889
99.4438
97.2617
94.0244
88.6437
77.5187
67.1827
0.131303
-0.179182
-0.074997
0.272717
0.300478
0.330235
0.0985934
-1.17502
75.7857
89.98
98.6318
103.773
110.863
113.05
107
105.846
101.918
104.899
104.795
104.575
104.38
103.969
103.323
102.368
100.922
98.6914
95.3591
90.3776
80.9251
71.4381
0.201175
-0.0869009
-0.0349375
0.217566
0.274685
0.296675
0.101193
0.207478
79.0132
90.3102
99.1774
103.819
111.518
113.833
106.766
105.953
101.653
106.594
106.498
106.317
106.03
105.572
104.898
103.947
102.534
100.343
96.9895
92.701
85.6343
10.5379
0.20679
-0.0143615
-0.00103135
0.176097
0.242616
0.264954
0.107218
0.161263
47.8853
90.8341
99.827
103.72
112.215
114.706
106.441
106.091
101.358
108.434
108.339
108.144
107.807
107.287
106.544
105.577
104.247
102.204
98.9297
95.1096
91.5524
4.32201
0.19218
0.0350463
0.0185578
0.135231
0.340926
0.238507
0.10961
0.109806
-0.960261
92.0718
100.69
103.406
112.955
115.685
106.001
106.266
101.017
110.428
110.322
110.098
109.708
109.109
108.281
107.282
106.067
104.195
101.016
95.9049
96.9271
0.303969
0.182138
0.0699412
0.028855
0.105277
0.173616
0.232771
0.108394
0.0664213
-0.270831
95.2044
101.846
102.764
113.736
116.784
105.416
106.484
100.611
112.579
112.457
112.198
111.745
111.04
110.175
109.22
108.083
106.266
103.847
95.9017
99.5533
0.238829
0.166651
0.0928427
0.0411211
0.0846185
0.20386
0.184654
0.106371
0.0393587
-0.0917008
101.882
103.045
101.617
114.555
118.02
104.65
106.749
100.104
114.892
114.755
114.465
113.95
113.073
112.174
111.395
110.294
108.624
105.449
98.1992
101.014
0.0430269
0.155559
0.103377
0.0294004
0.0677889
0.133218
0.172713
0.103068
0.0276492
-0.0240682
101.932
104.518
99.8293
115.399
119.411
103.658
107.061
99.4525
98.2965
106.523
105.349
117.829
121.136
102.721
104.797
106.904
0.483855
0.0732554
-0.0084064
-0.0256743
-0.128867
-0.261999
-0.26702
-0.199539
-0.28549
-0.547268
4.804
101.494
107.089
110.849
112.452
113.5
114.34
115.234
116.035
116.549
116.824
116.928
27.8899
106.608
105.115
118.449
121.702
102.112
105.356
1.57492
0.418412
0.0716244
-0.00688942
-0.0256793
-0.129773
-0.301715
-0.127522
-0.190151
-0.286869
-0.589343
-1.5955
101.992
109.621
112.466
113.742
114.78
115.604
116.486
117.345
117.884
118.164
118.268
0.0384098
106.693
104.865
119.195
122.305
101.567
106.27
-0.455718
0.329606
0.0676206
-0.00610144
-0.0255215
-0.140882
-0.346088
-0.209648
-0.181775
-0.281764
-0.597969
-1.02993
100.245
112.241
114.235
115.088
116.125
117.023
117.92
118.831
119.387
119.665
119.767
-0.0521176
99.4982
104.654
120.111
122.972
100.928
108.856
-0.400992
0.238967
0.0614671
-0.00218869
-0.0257341
-0.157434
-0.275252
-0.209921
-0.174153
-0.268523
-0.56467
-2.09692
81.6867
114.952
116.102
116.613
117.506
118.619
119.587
120.524
121.074
121.341
121.438
-0.0192799
8.41946
102.476
121.266
123.723
101.902
-1.35594
-0.353684
0.152339
0.0534541
-0.00321425
-0.0392425
-0.223785
-0.225512
-0.217187
-0.166929
-0.256279
-0.493445
-1.74084
-3.00395
117.876
117.674
117.991
118.977
120.418
121.535
122.452
122.962
123.207
123.296
0.0458843
0.182319
17.0015
122.88
124.64
101.075
-0.553759
-0.306099
0.0439634
0.0441438
-0.00816332
0.0978793
-0.194084
-0.322891
-0.200301
-0.157949
-0.229823
-0.409296
-2.3474
2.30764
121.221
118.919
119.309
120.644
122.434
123.736
124.61
125.055
125.271
125.357
0.0232098
0.123243
0.0543248
125.059
125.805
2.73039
-0.356411
-0.259747
0.00180345
0.0338799
-0.00828306
-0.0447738
-0.176844
-0.190068
-0.180929
-0.13644
-0.202458
-0.284675
-2.51471
0.00613342
14.9388
117.998
120.627
122.63
124.66
126.109
126.961
127.355
127.551
127.64
-0.0976565
0.127878
0.0207006
126.547
127.238
0.240152
-0.254564
-0.208817
-0.0284381
0.0226871
-0.00491555
-0.00697811
-0.156655
-0.150669
-0.160237
-0.129853
-0.175673
-0.168265
-0.85616
0.612114
-0.190685
115.446
121.175
125.098
127.062
131.76
129.53
129.887
130.085
130.186
-0.0838945
0.153407
0.00054784
40.0095
125.4
0.205087
-0.190072
-0.191646
-0.0578265
0.011371
-0.00747134
-0.0365537
-0.137715
-0.165747
-0.139844
-0.118587
-0.151537
-0.147331
0.431678
0.833891
0.405248
-4.95324
121.118
128.35
130.297
131.548
132.339
132.7
132.93
133.057
-0.0679539
0.121513
-0.00311465
2.1496
0.210426
0.135671
-0.146018
-0.167989
-0.0807684
0.000728085
-0.0117168
-0.0387175
-0.12483
-0.140526
-0.121193
-0.104883
-0.129521
-0.170602
-0.240819
0.215919
0.166585
-0.175468
118.603
133.555
134.33
134.927
135.375
135.82
136.145
136.313
-0.0545871
0.0588861
0.00639501
-0.153658
-0.0765797
0.0774971
-0.116276
-0.106618
-0.0848265
-0.00833452
-0.00763677
-0.0287841
-0.100829
-0.089631
-0.103348
-0.0908032
-0.106336
-0.187553
-0.352557
-0.281723
-0.156167
-0.244914
-0.281033
137.575
138.499
138.33
138.536
139.273
139.793
139.991
-0.0361622
0.0703264
-0.0126705
-0.127572
-0.0833877
0.0348361
-0.097265
-0.084655
-0.0884917
-0.015504
-0.0145993
-0.0305482
-0.081419
-0.101499
-0.0883493
-0.0760302
-0.0788252
-0.13406
-0.19302
-0.522706
-0.637346
-0.266498
-0.130791
-0.0935451
144.275
139.654
141.523
143.366
144.186
144.124
-0.0280091
0.0405643
-0.0033344
-0.108091
-0.0865807
0.00426278
-0.0847104
-0.11333
-0.0938263
-0.0196041
-0.0181449
-0.0246625
-0.0661764
-0.0807117
-0.0743818
-0.0605572
-0.0468409
-0.00450179
0.149872
-0.559899
-0.651932
-0.404962
-0.0376001
0.0700918
0.109971
6.96046
141.24
149.809
151.121
148.161
-0.0194258
0.0273887
0.00533145
-0.0924992
-0.086417
-0.0169375
-0.075233
-0.0989888
-0.0699649
-0.0207482
-0.017423
0.0076492
-0.0543333
-0.0651399
-0.0612347
-0.0452046
-0.0170484
0.0654475
0.486323
-0.378699
-0.498835
-0.235408
0.184048
0.0795659
0.0762693
0.0827837
0.103583
0.0968893
0.0999515
0.102497
-0.0123018
0.0278472
0.00331676
-0.0797686
-0.082861
-0.0311957
-0.0673046
-0.082642
-0.0457609
-0.0189867
-0.0152917
-0.0195248
-0.0449539
-0.0521321
-0.049294
-0.0314663
0.00319154
0.0930421
0.207242
-0.150484
-0.228391
0.0414129
0.106153
0.0424944
0.106089
0.114266
0.115942
0.112433
0.106858
0.10089
-0.00676733
0.027217
0.00118795
-0.069132
-0.0769407
-0.0398682
-0.0604676
-0.0681984
-0.0349696
-0.015218
-0.0156303
-0.0156876
-0.0369884
-0.0393813
-0.0388497
-0.0206242
0.0109975
0.0644262
0.0626747
-0.167401
-0.079201
0.101293
0.532804
0.280608
0.158406
0.146098
0.135374
0.12594
0.1171
0.108716
-0.00262816
0.0250354
0.000105068
-0.0600594
-0.0699286
-0.044102
-0.0544121
-0.0564427
-0.0289978
-0.00968228
-0.0147108
-0.0210112
-0.0290937
0.0565199
-0.0294303
-0.0129174
0.0106705
0.0310493
-0.0108634
-0.181024
0.382678
0.125062
0.240389
0.199302
0.184017
0.162409
0.146728
0.134822
0.125029
0.116573
0.000204071
0.0217111
-0.00140149
-0.0521964
-0.0627588
-0.045206
-0.048884
-0.046412
-0.0213927
-0.00246856
-0.00697359
-0.0206909
-0.0153837
-0.00334438
-0.0213218
-0.00757362
0.00892202
0.0160112
-0.0104753
-0.0615791
0.0336594
0.192572
0.148751
0.160556
0.16447
0.155368
0.144636
0.135087
0.126975
0.120067
0.00187311
0.0179368
-0.00298879
-0.0452849
-0.0558129
-0.0442451
-0.0437037
-0.0376591
-0.0142732
0.00647467
0.000445057
-0.014617
-0.0173297
-0.0202364
-0.0152368
-0.00359143
0.00934556
0.0167901
0.0161141
0.0278859
0.0858988
0.139088
0.14864
0.150251
0.148436
0.143319
0.136662
0.13066
0.125031
0.120393
0.0026327
0.0142175
-0.00440941
-0.0391605
-0.0492541
-0.0419575
-0.0387889
-0.0300051
-0.00703009
0.0167404
0.0116795
-0.00203939
-0.0149862
-0.00404648
-0.0111804
-0.000585173
0.0118434
0.0231014
0.0356471
0.0576052
0.0898104
0.116235
0.128998
0.133265
0.133115
0.130725
0.127412
0.12393
0.120691
0.117839
0.00276272
0.0108173
-0.00551921
-0.0337445
-0.0431737
-0.0387396
-0.0341558
-0.0234412
-6.29478e-05
0.0279849
0.0212623
-0.00359161
-0.00866537
-0.0177302
-0.0032761
0.000272306
0.0147161
0.0283018
0.0442232
0.0638007
0.0844367
0.100986
0.111279
0.116453
0.118319
0.1183
0.117325
0.11595
0.11449
0.113103
0.00250452
0.00785694
-0.00626108
-0.0289863
-0.0376228
-0.035108
-0.0298911
-0.0181077
0.00553565
0.0389049
0.0288552
6.61939e-05
-0.0199965
-0.021347
-0.0120447
0.0193264
0.0167987
0.0300997
0.0457249
0.0618372
0.0766641
0.0884638
0.0966709
0.10178
0.104645
0.106042
0.106551
0.106555
0.106294
0.105911
0.00206323
0.00537633
-0.00664098
-0.0248159
-0.0325699
-0.031319
-0.0261292
-0.0142592
0.00919942
0.0435754
0.0245507
-0.0176032
-0.0338002
-0.0310054
-0.0171582
-0.000368783
0.0128682
0.0287959
0.0435293
0.0568255
0.0682384
0.0773113
0.0840296
0.0887357
0.0918993
0.0939579
0.0952592
0.0960541
0.0965146
0.0967575
0.00156052
0.00337755
-0.00669099
-0.0211214
-0.0279384
-0.0275505
-0.0230167
-0.0122801
0.0110279
0.0572643
0.00301512
-0.0541855
-0.0667003
-0.0494823
-0.0266751
-0.00632545
0.0110288
0.0265686
0.0394462
0.0503731
0.0594588
0.0667251
0.0723323
0.0765451
0.0796559
0.0819274
0.0835761
0.0847664
0.0856202
0.0862254
0.00109092
0.00183998
-0.00644666
-0.0177851
-0.0236544
-0.0239351
-0.0206451
-0.0126447
0.0247009
0.0390794
-0.0318526
-0.126359
-0.123809
-0.0788136
-0.0401661
-0.0129718
0.00690638
0.0217925
0.0332956
0.0425582
0.0500718
0.0561014
0.0608763
0.0646227
0.0675454
0.0698173
0.0715822
0.0729515
0.07401
0.0748233
0.000708168
0.000731765
-0.00593619
-0.014707
-0.0196463
-0.0204863
-0.0189331
-0.0154159
0.017593
0.0246429
-0.0831386
-0.206597
-0.205778
-0.117688
-0.0564834
-0.0220381
-0.00041372
0.0143705
0.0251574
0.033434
0.0399629
0.0451748
0.0493541
0.052717
0.0554346
0.0576375
0.0594294
0.0608897
0.0620797
0.0630467
0.000428891
1.26327e-05
-0.00518345
-0.0117994
-0.0158335
-0.0171121
-0.0174827
-0.0195801
-0.026325
-0.0326655
-0.138021
-0.237866
-0.268589
-0.148884
-0.0686448
-0.0298828
-0.00791592
0.00628814
0.0162947
0.0237607
0.0295439
0.0341339
0.0378422
0.0408822
0.0434056
0.0455212
0.0473116
0.048838
0.0501461
0.0512711
0.000241409
-0.000368894
-0.00421443
-0.00898383
-0.0121172
-0.0136176
-0.0155196
-0.022715
-0.0517728
-0.120023
-0.147536
-0.240577
-0.239548
-0.136008
-0.0651226
-0.0314231
-0.0126208
-0.000472742
0.00808536
0.0144564
0.0193873
0.0233186
0.02653
0.0292097
0.0314895
0.0334611
0.0351904
0.0367247
0.0380982
0.0393365
0.000117813
-0.000480809
-0.00305744
-0.00618337
-0.00838117
-0.00975774
-0.0120804
-0.0203395
-0.0527496
-0.112605
0.276732
-0.111031
-0.117574
-0.0770573
-0.0431303
-0.0249684
-0.0133021
-0.0050004
0.00118917
0.00594682
0.00970319
0.0127469
0.0152752
0.0174259
0.0192957
0.0209511
0.0224396
0.0237927
0.0250324
0.0261746
1.7614e-05
-0.00041265
-0.0017467
-0.00332042
-0.00450973
-0.00536593
-0.0066858
-0.0103294
-0.0224897
-0.0658912
0.20161
-0.022263
-0.0154349
-0.0173944
-0.0177968
-0.0156627
-0.011948
-0.00818403
-0.00490543
-0.00218793
4.25157e-05
0.00188864
0.00344241
0.00477605
0.00594351
0.0069842
0.00792593
0.00878623
0.00957722
0.0103077
116.902
116.757
116.448
115.894
115.418
113.996
113.218
112.058
110.769
108.143
102.334
12.9692
-0.218977
0.158795
0.108713
0.0272487
0.0674633
0.107016
0.141235
0.133411
0.0244685
0.00163368
5.40051
106.342
98.8463
116.082
120.676
102.641
107.349
98.7901
118.242
118.097
117.783
117.158
116.774
115.301
114.334
113.171
112.271
110.128
104.281
9.0395
0.0042819
0.165735
0.0932874
0.0268069
0.0644745
0.0922345
0.142393
0.0945396
0.0236134
0.00163933
-0.152804
108.201
97.3965
116.485
121.543
101.881
107.544
98.3287
119.742
119.598
119.292
118.747
117.894
116.752
115.472
114.384
113.991
112.494
104.665
0.69666
0.797544
0.151368
0.0880537
0.0268613
0.0680778
0.0892207
0.129197
0.07158
0.0229839
0.00185521
-0.0959746
110.183
96.2767
117.85
122.542
100.982
107.764
17.6276
121.412
121.273
120.978
120.442
119.552
118.297
116.654
115.587
115.782
115.136
100.731
0.823598
0.856145
0.131703
0.0820844
0.0293261
0.0688003
0.0915451
0.162942
0.0706208
0.0357642
0.000190353
-0.0607694
0.482278
94.7326
118.086
123.696
100.074
107.951
0.108202
123.272
123.139
122.857
122.317
121.355
119.995
117.981
116.678
117.405
117.89
121.91
-1.25538
0.685264
0.123712
0.0879619
0.0269256
0.075875
0.0427585
0.10317
0.0690846
0.0265665
-0.000886935
-0.0411307
-0.341048
93.4804
118.657
125.035
99.2365
60.3129
0.0884741
125.335
125.209
124.945
124.399
123.307
121.939
119.595
117.725
118.634
117.819
-1.41051
-3.77023
0.268107
0.0666737
0.0592779
0.0206444
0.216324
0.0431739
0.146469
0.0678742
0.0201661
-0.00974597
-0.0195208
-0.26212
3.31346
119.398
126.597
43.1841
-0.013812
0.0686478
127.625
127.509
127.262
126.705
125.235
124.04
121.551
118.92
118.721
128.035
-0.378279
-4.07831
0.0862507
0.00582141
0.0485201
0.0599006
-0.015218
0.0364915
0.102741
0.074618
0.0384123
-0.0022666
-0.0139526
-0.195348
0.217107
120.396
128.119
-0.509167
-0.0238092
0.0615232
130.185
130.083
129.85
129.32
128.414
126.243
123.815
119.514
116.168
-0.962145
-0.0128461
-2.00183
0.220855
-0.0702635
0.0254512
0.0569905
0.102722
0.0382703
0.10851
0.0614356
0.0276544
-0.0124196
-0.0207893
-0.145229
0.210699
121.651
129.438
-0.199607
-0.0161256
0.0482232
133.077
132.994
132.774
132.273
131.251
129.303
126.588
119.912
28.2853
-0.294293
-0.365988
-0.579242
0.194629
-0.0772453
0.00502598
0.0636909
0.273013
0.0423023
0.111877
0.0588067
0.0347954
0.00131259
0.0116829
-0.112813
0.163527
65.8375
131.994
-0.164549
-0.0557979
0.0246061
136.359
136.304
136.097
135.619
134.797
133.457
131.109
124.852
0.0546442
-0.32146
-0.42667
-0.653677
0.0439227
0.271203
-0.0137509
0.0442203
0.00429699
0.0472225
0.110581
0.0943835
0.0310643
-0.0153735
-0.0343387
-0.0830474
0.121217
0.0669898
34.2667
-0.148261
-0.0185354
0.0184502
140.038
140.04
139.926
139.506
138.798
137.913
136.06
-0.158112
-0.16498
-0.416674
-1.11607
-1.66159
0.0545397
-0.0883426
-0.00961499
0.0424669
0.0245757
0.0512263
0.115547
0.086277
0.0277931
-0.00767219
-0.00998402
-0.0594043
0.0978402
0.0864319
0.183577
-0.113557
-0.0550688
-0.0139995
143.999
144.189
144.582
144.395
141.487
140.344
10.6974
0.046842
-0.133952
-0.427673
-1.94853
-2.84552
0.110731
-0.00612673
0.00763124
0.0442194
0.0373934
0.0536212
0.0714707
0.0804908
0.0225468
0.00501907
-0.0205922
-0.040342
0.0818667
0.0923627
0.171819
-0.0854969
-0.0780992
-0.0150205
147.128
148.085
150.815
153.717
73.0526
-0.199387
-0.03652
-0.0148074
-0.0936924
-0.30247
-1.51409
-2.17868
0.126948
0.049945
0.0356607
0.0502113
0.045452
0.054605
0.0726146
0.0573208
0.0228251
0.00475389
-0.0158228
-0.0253414
0.0700595
0.090814
0.155757
-0.0649768
-0.0399484
-0.0241988
0.096461
0.0812251
0.0547201
-0.0170648
-0.0874458
-0.177378
-0.064866
-0.0058253
-0.0249284
-0.0584573
-0.186066
0.239876
0.18253
0.0951955
0.064501
0.0594669
0.0509476
0.0541616
0.0606567
0.0370851
0.0234826
0.00843032
-0.0110769
-0.013685
0.0607077
0.0858432
0.135632
-0.0494145
-0.0751733
-0.0293454
0.0933246
0.082441
0.0658474
0.0400952
0.0012844
-0.0301344
-0.00951198
0.0165751
0.049261
0.0963282
0.239703
0.373165
0.245984
0.135192
0.0891657
0.0703963
0.0542185
0.0514795
0.0622637
0.0307955
0.0221738
0.0105059
-0.00635903
-0.00466703
0.0530138
0.0794623
0.113705
-0.038692
-0.0741229
-0.0245969
0.100407
0.0911409
0.0797086
0.0649913
0.0470598
0.0322034
0.0400766
0.0488563
0.0800236
0.137329
0.821869
0.321152
0.242205
0.155319
0.107558
0.0818313
0.0537459
0.045399
0.055087
0.0263476
0.0218383
0.0115571
-0.00178107
0.00229304
0.0466402
0.0725603
0.0930658
-0.0301028
-0.054279
-0.0217283
0.108806
0.100773
0.0917937
0.0817318
0.0712489
0.0636036
0.0643499
0.0768867
0.105039
0.150662
0.656524
0.246048
0.212811
0.158368
0.118994
0.0938131
0.0383114
0.0320728
0.0441119
0.0232338
0.0169272
0.0123935
0.00247614
0.00761788
0.0413687
0.065455
0.0753494
-0.0235194
-0.0542356
-0.0200333
0.113912
0.10781
0.101377
0.0948297
0.0888713
0.0852822
0.0869828
0.097231
0.118243
0.150076
0.183657
0.195686
0.18196
0.150783
0.123621
0.109892
-0.00427717
0.0119459
0.0237636
0.00690575
0.0194592
0.0131224
0.00625706
0.011625
0.0370287
0.0583014
0.06093
-0.0182134
-0.0457135
-0.0186283
0.116068
0.112247
0.107928
0.104088
0.101131
0.0995935
0.10187
0.10807
0.120683
0.138328
0.155191
0.162234
0.155305
0.137514
0.120881
0.122252
0.907154
0.00586754
0.0126502
0.000423789
0.021589
0.0137148
0.00948187
0.0145763
0.0336103
0.051329
0.0494389
-0.0135511
-0.0380811
-0.0171429
0.115313
0.112902
0.110576
0.108491
0.106926
0.106376
0.107525
0.11114
0.117606
0.126173
0.134037
0.136977
0.13219
0.120887
0.109733
0.10902
5.31543
0.00983162
0.00316038
0.00728143
0.0577269
0.0143177
0.0121585
0.0166758
0.0309829
0.0447594
0.0401854
-0.0093883
-0.0312069
-0.0154469
0.111812
0.110535
0.109269
0.10812
0.107246
0.106869
0.107267
0.10871
0.111255
0.114398
0.116734
0.116175
0.111112
0.101899
0.0909926
0.0740735
-0.00185899