/*--------------------------------*- C++ -*----------------------------------*\
| =========                 |                                                 |
| \\      /  F ield         | OpenFOAM: The Open Source CFD Toolbox           |
|  \\    /   O peration     | Version:  2.4.0                                 |
|   \\  /    A nd           | Web:      www.OpenFOAM.org                      |
|    \\/     M anipulation  |                                                 |
\*---------------------------------------------------------------------------*/
FoamFile
{
    version     2.0;
    format      ascii;
    class       volScalarField;
    location    "0.261";
    object      p;
}
// * * * * * * * * * * * * * * * * * * * * * * * * * * * * * * * * * * * * * //

dimensions      [1 -1 -2 0 0 0 0];

internalField   nonuniform List<scalar> 
60000
(
129.513
129.509
129.508
129.507
129.508
129.511
129.516
129.524
129.535
129.549
129.569
129.594
129.625
129.664
129.711
129.767
129.832
129.907
129.993
130.09
130.196
130.313
130.439
130.574
130.716
130.865
131.019
131.176
131.335
131.495
131.653
131.807
131.956
132.098
132.231
132.352
132.46
132.553
132.628
132.684
132.718
132.728
132.711
132.665
132.588
132.476
132.328
132.14
131.91
131.636
131.312
130.939
130.511
130.028
129.485
128.882
128.214
127.481
126.68
125.809
124.868
123.856
122.773
121.619
120.394
119.101
117.741
116.317
114.834
113.295
111.705
110.07
108.398
106.695
104.969
103.228
101.481
99.736
98.0015
96.2852
94.594
92.9337
91.3088
89.7222
88.1754
86.668
85.1985
83.7639
82.3604
80.9837
79.6296
78.2939
76.9729
75.6635
74.3629
73.0686
71.7783
70.4891
69.1979
67.9006
127.555
127.551
127.549
127.549
127.55
127.553
127.558
127.566
127.576
127.591
127.61
127.635
127.666
127.705
127.752
127.807
127.872
127.947
128.033
128.129
128.235
128.352
128.478
128.612
128.755
128.903
129.057
129.214
129.374
129.533
129.691
129.845
129.994
130.136
130.269
130.39
130.498
130.591
130.666
130.721
130.755
130.765
130.748
130.702
130.624
130.513
130.364
130.177
129.947
129.672
129.349
128.975
128.548
128.064
127.522
126.918
126.251
125.517
124.716
123.846
122.905
121.893
120.809
119.654
118.429
117.136
115.775
114.351
112.867
111.327
109.736
108.101
106.427
104.723
102.995
101.253
99.5042
97.7579
96.0222
94.3047
92.6126
90.9517
89.3264
87.7399
86.1934
84.6867
83.218
81.7844
80.382
79.0065
77.6535
76.3189
74.9991
73.6907
72.3911
71.0978
69.8082
68.5195
67.2288
65.932
125.593
125.589
125.588
125.588
125.589
125.592
125.597
125.604
125.615
125.629
125.648
125.673
125.704
125.742
125.788
125.843
125.908
125.983
126.068
126.164
126.271
126.387
126.513
126.648
126.79
126.939
127.093
127.251
127.411
127.57
127.729
127.883
128.033
128.175
128.308
128.429
128.538
128.631
128.706
128.762
128.796
128.806
128.789
128.743
128.666
128.554
128.406
128.218
127.989
127.714
127.391
127.017
126.59
126.107
125.565
124.961
124.294
123.56
122.759
121.889
120.948
119.935
118.852
117.696
116.471
115.176
113.815
112.39
110.904
109.362
107.77
106.132
104.456
102.749
101.018
99.2731
97.5215
95.7721
94.0335
92.3136
90.6194
88.957
87.331
85.7443
84.1983
82.6928
81.2258
79.7942
78.3941
77.021
75.6704
74.3381
73.0203
71.7139
70.4161
69.1244
67.8363
66.549
65.2595
63.9643
123.63
123.626
123.625
123.625
123.626
123.629
123.633
123.641
123.651
123.665
123.683
123.707
123.738
123.775
123.821
123.875
123.94
124.014
124.099
124.195
124.302
124.418
124.545
124.68
124.823
124.973
125.128
125.286
125.447
125.608
125.767
125.922
126.073
126.215
126.349
126.471
126.58
126.674
126.75
126.806
126.841
126.851
126.834
126.789
126.712
126.601
126.453
126.265
126.036
125.761
125.439
125.065
124.639
124.156
123.614
123.01
122.343
121.61
120.809
119.938
118.997
117.984
116.9
115.744
114.518
113.223
111.86
110.433
108.945
107.401
105.805
104.164
102.484
100.773
99.0377
97.2876
95.531
93.7769
92.0338
90.3098
88.6123
86.9474
85.3198
83.7327
82.1875
80.6836
79.2192
77.7909
76.3944
75.0251
73.6782
72.3493
71.0348
69.7314
68.4363
67.147
65.8611
64.5761
63.2889
61.9963
121.665
121.662
121.66
121.66
121.661
121.663
121.668
121.674
121.684
121.697
121.715
121.738
121.767
121.804
121.849
121.903
121.967
122.041
122.126
122.222
122.329
122.446
122.573
122.709
122.853
123.004
123.16
123.32
123.482
123.644
123.805
123.962
124.113
124.258
124.392
124.516
124.626
124.72
124.797
124.854
124.889
124.9
124.884
124.839
124.763
124.652
124.505
124.318
124.089
123.815
123.493
123.12
122.693
122.211
121.669
121.066
120.399
119.666
118.865
117.994
117.053
116.04
114.955
113.798
112.571
111.274
109.909
108.48
106.989
105.441
103.842
102.196
100.511
98.7939
97.0528
95.2962
93.533
91.7723
90.023
88.2934
86.5912
84.9228
83.2932
81.7055
80.1612
78.6597
77.1989
75.7751
74.3837
73.0198
71.6781
70.3543
69.0443
67.7449
66.4534
65.1674
63.8845
62.6025
61.3186
60.0297
119.698
119.695
119.693
119.693
119.693
119.695
119.699
119.705
119.714
119.727
119.743
119.765
119.793
119.829
119.873
119.926
119.989
120.063
120.148
120.244
120.351
120.469
120.598
120.735
120.881
121.033
121.191
121.353
121.517
121.681
121.843
122.002
122.156
122.302
122.438
122.563
122.675
122.77
122.848
122.907
122.943
122.955
122.94
122.895
122.82
122.71
122.563
122.377
122.148
121.875
121.553
121.181
120.755
120.272
119.731
119.128
118.461
117.728
116.927
116.056
115.115
114.101
113.016
111.858
110.629
109.33
107.963
106.531
105.036
103.484
101.88
100.228
98.5368
96.8125
95.0635
93.2987
91.5271
89.758
88.0007
86.264
84.5559
82.883
81.2507
79.6623
78.1192
76.6208
75.1647
73.7469
72.3622
71.0052
69.6705
68.353
67.0488
65.7546
64.4677
63.1857
61.9067
60.6285
59.3485
58.0642
117.729
117.726
117.724
117.723
117.724
117.725
117.728
117.734
117.741
117.753
117.768
117.788
117.815
117.849
117.892
117.944
118.007
118.08
118.165
118.261
118.369
118.489
118.618
118.758
118.905
119.06
119.22
119.385
119.551
119.718
119.883
120.044
120.2
120.348
120.487
120.613
120.727
120.824
120.904
120.964
121.001
121.014
121
120.957
120.882
120.773
120.627
120.442
120.214
119.941
119.62
119.248
118.822
118.341
117.799
117.197
116.53
115.797
114.996
114.125
113.183
112.169
111.082
109.923
108.693
107.391
106.021
104.585
103.087
101.53
99.9191
98.2608
96.5613
94.8282
93.0698
91.2949
89.5129
87.7337
85.9667
84.2212
82.5057
80.8274
79.1918
77.6026
76.0611
74.5666
73.1164
71.706
70.3297
68.9814
67.6552
66.3456
65.0486
63.7606
62.4792
61.2023
59.9278
58.6541
57.3788
56.1001
115.759
115.755
115.753
115.752
115.752
115.753
115.755
115.759
115.766
115.775
115.789
115.808
115.833
115.866
115.907
115.958
116.019
116.092
116.177
116.274
116.383
116.504
116.635
116.777
116.927
117.084
117.248
117.415
117.585
117.754
117.922
118.087
118.245
118.396
118.538
118.667
118.783
118.882
118.964
119.026
119.065
119.079
119.067
119.025
118.951
118.843
118.698
118.513
118.286
118.014
117.693
117.322
116.897
116.416
115.875
115.273
114.606
113.874
113.072
112.201
111.258
110.243
109.155
107.995
106.762
105.458
104.084
102.644
101.141
99.5774
97.9597
96.2932
94.5845
92.8411
91.0715
89.2847
87.4906
85.6992
83.9206
82.1646
80.4404
78.7555
77.116
75.5258
73.9863
72.4966
71.0536
69.6522
68.2861
66.9484
65.6324
64.3323
63.0437
61.7632
60.4883
59.217
57.9478
56.6792
55.4094
54.137
113.786
113.783
113.781
113.779
113.778
113.779
113.78
113.782
113.787
113.795
113.807
113.824
113.847
113.877
113.917
113.967
114.027
114.1
114.185
114.282
114.392
114.515
114.648
114.792
114.946
115.107
115.273
115.444
115.617
115.791
115.963
116.131
116.293
116.447
116.591
116.724
116.842
116.944
117.028
117.092
117.133
117.149
117.138
117.098
117.026
116.919
116.775
116.591
116.365
116.093
115.774
115.403
114.978
114.497
113.957
113.355
112.688
111.956
111.155
110.283
109.339
108.323
107.234
106.072
104.836
103.529
102.152
100.707
99.1975
97.6275
96.0017
94.3259
92.6066
90.8514
89.0689
87.2684
85.46
83.6544
81.8622
80.094
78.3593
76.6667
75.0226
73.4312
71.8941
70.4101
68.9757
67.5852
66.2312
64.906
63.6021
62.3131
61.0344
59.7624
58.4949
57.2301
55.9668
54.7039
53.44
52.1747
111.812
111.809
111.806
111.804
111.803
111.802
111.802
111.803
111.806
111.812
111.821
111.836
111.856
111.885
111.922
111.97
112.03
112.102
112.187
112.285
112.397
112.521
112.657
112.805
112.961
113.126
113.297
113.472
113.65
113.828
114.004
114.176
114.342
114.5
114.648
114.784
114.905
115.01
115.097
115.163
115.206
115.225
115.216
115.177
115.106
115.001
114.858
114.675
114.45
114.179
113.86
113.49
113.066
112.586
112.046
111.444
110.778
110.045
109.243
108.371
107.427
106.41
105.319
104.154
102.916
101.605
100.224
98.7736
97.2578
95.6802
94.0454
92.3591
90.6278
88.8593
87.0621
85.2459
83.4213
81.5993
79.7913
78.0087
76.262
74.5603
72.9108
71.318
69.7837
68.3065
66.8823
65.5045
64.1648
62.8543
61.5644
60.2883
59.0208
57.7585
56.4992
55.2417
53.9848
52.7281
51.4706
50.2129
109.837
109.833
109.83
109.828
109.825
109.823
109.822
109.821
109.822
109.825
109.832
109.843
109.861
109.887
109.923
109.969
110.027
110.099
110.184
110.283
110.396
110.523
110.662
110.813
110.974
111.143
111.319
111.499
111.681
111.864
112.045
112.222
112.393
112.555
112.707
112.847
112.972
113.08
113.17
113.239
113.285
113.305
113.298
113.262
113.193
113.089
112.947
112.766
112.541
112.272
111.953
111.584
111.161
110.681
110.141
109.539
108.873
108.14
107.338
106.466
105.521
104.502
103.41
102.243
101.001
99.687
98.3006
96.8446
95.3217
93.7357
92.0909
90.393
88.6485
86.865
85.0513
83.2175
81.3743
79.5336
77.7076
75.9084
74.1477
72.4354
70.7795
69.1851
67.6541
66.1848
64.7725
63.4096
62.0866
60.7931
59.5195
58.258
57.0032
55.7517
54.5017
53.252
52.002
50.7518
49.501
48.2511
107.859
107.856
107.852
107.849
107.846
107.843
107.839
107.837
107.835
107.835
107.839
107.848
107.862
107.885
107.918
107.962
108.019
108.09
108.175
108.275
108.39
108.52
108.662
108.817
108.983
109.157
109.338
109.524
109.712
109.9
110.087
110.269
110.445
110.612
110.769
110.913
111.042
111.154
111.247
111.319
111.368
111.391
111.387
111.352
111.285
111.182
111.042
110.862
110.639
110.37
110.053
109.684
109.261
108.782
108.243
107.641
106.975
106.242
105.44
104.566
103.62
102.601
101.506
100.337
99.0922
97.7736
96.3822
94.9199
93.3894
91.7941
90.1386
88.428
86.6688
84.8688
83.0369
81.1832
79.3191
77.4573
75.6107
73.7926
72.0157
70.2911
68.6278
67.0315
65.5042
64.0441
62.6456
61.3
59.9962
58.7224
57.4674
56.2226
54.982
53.7425
52.5025
51.2612
50.0185
48.7751
47.5311
46.2889
105.881
105.877
105.873
105.869
105.865
105.86
105.855
105.85
105.846
105.843
105.843
105.848
105.859
105.878
105.908
105.949
106.005
106.075
106.16
106.261
106.379
106.511
106.658
106.817
106.988
107.168
107.355
107.547
107.742
107.936
108.129
108.317
108.499
108.672
108.833
108.982
109.116
109.232
109.329
109.404
109.456
109.482
109.48
109.448
109.382
109.282
109.143
108.964
108.742
108.475
108.158
107.79
107.368
106.889
106.35
105.749
105.083
104.35
103.547
102.673
101.726
100.705
99.6082
98.436
97.1882
95.8653
94.4685
92.9995
91.4609
89.8558
88.1886
86.4643
84.6893
82.8711
81.019
79.1433
77.2559
75.3702
73.5002
71.6605
69.865
68.1263
66.4544
64.8557
63.3327
61.8831
60.5006
59.175
57.8934
56.6422
55.4084
54.1822
52.9575
51.7312
50.502
49.2697
48.0346
46.7979
45.5608
44.3256
103.9
103.896
103.892
103.888
103.882
103.876
103.869
103.861
103.853
103.847
103.843
103.843
103.85
103.866
103.892
103.931
103.984
104.053
104.139
104.242
104.361
104.497
104.648
104.813
104.99
105.176
105.37
105.569
105.771
105.972
106.172
106.366
106.554
106.733
106.901
107.054
107.193
107.314
107.415
107.494
107.549
107.578
107.579
107.549
107.486
107.387
107.25
107.073
106.852
106.585
106.27
105.902
105.481
105.002
104.464
103.863
103.197
102.463
101.66
100.785
99.8372
98.8144
97.7158
96.5409
95.2896
93.9622
92.5597
91.0836
89.5364
87.921
86.2413
84.5023
82.7101
80.8723
78.998
77.098
75.1848
73.2723
71.3759
69.5115
67.6947
65.9396
64.2576
62.6563
61.1381
59.7006
58.3364
57.0338
55.7779
54.5525
53.3427
52.1373
50.9301
49.7182
48.5007
47.2778
46.0503
44.8203
43.5899
42.3611
101.919
101.914
101.91
101.905
101.898
101.89
101.881
101.87
101.859
101.848
101.84
101.835
101.838
101.849
101.871
101.906
101.958
102.025
102.111
102.215
102.338
102.478
102.634
102.804
102.988
103.181
103.382
103.589
103.798
104.008
104.215
104.417
104.611
104.797
104.97
105.13
105.274
105.399
105.505
105.588
105.647
105.679
105.683
105.655
105.594
105.498
105.363
105.187
104.967
104.702
104.387
104.021
103.6
103.121
102.583
101.982
101.316
100.583
99.7789
98.9033
97.9541
96.9296
95.8289
94.6512
93.3962
92.0641
90.6557
89.1724
87.6162
85.9899
84.297
82.5423
80.7318
78.8728
76.9745
75.0478
73.1059
71.1635
69.2374
67.3449
65.5037
63.7297
62.036
60.4313
58.9186
57.495
56.1519
54.8756
53.649
52.4531
51.2704
50.0883
48.9003
47.704
46.4989
45.2857
44.0661
42.8424
41.6184
40.3954
99.936
99.9314
99.9265
99.9207
99.913
99.9032
99.8911
99.877
99.8616
99.8462
99.8326
99.8229
99.8197
99.8256
99.8433
99.8753
99.9239
99.9905
100.077
100.182
100.308
100.452
100.613
100.791
100.981
101.183
101.392
101.607
101.825
102.043
102.258
102.468
102.67
102.862
103.043
103.208
103.358
103.489
103.599
103.687
103.749
103.785
103.792
103.767
103.708
103.614
103.481
103.306
103.088
102.824
102.51
102.144
101.724
101.246
100.708
100.107
99.4413
98.7073
97.9031
97.0267
96.0763
95.0502
93.9473
92.7667
91.5079
90.1711
88.7567
87.2658
85.7004
84.0627
82.3561
80.5849
78.7549
76.8732
74.9488
72.9931
71.0195
69.0439
67.0843
65.16
63.2907
61.4948
59.7874
58.1787
56.6721
55.2644
53.9455
52.6996
51.5065
50.3441
49.1919
48.0356
46.8685
45.6891
44.4973
43.2942
42.0821
40.8644
39.6464
38.4286
97.9521
97.9473
97.9421
97.9356
97.9265
97.9147
97.8998
97.8821
97.8622
97.8416
97.8221
97.8062
97.7969
97.7969
97.8095
97.8373
97.8829
97.9482
98.0343
98.1418
98.2705
98.4195
98.5872
98.7716
98.9702
99.1803
99.399
99.6234
99.8504
100.077
100.301
100.52
100.73
100.93
101.118
101.29
101.446
101.582
101.697
101.79
101.856
101.896
101.906
101.884
101.828
101.735
101.604
101.431
101.215
100.951
100.638
100.273
99.8535
99.3761
98.8384
98.2377
97.5715
96.8372
96.0325
95.1552
94.2036
93.1759
92.0707
90.8872
89.6247
88.283
86.8625
85.3641
83.7891
82.1397
80.4189
78.6305
76.7799
74.874
72.9217
70.9344
68.9261
66.9136
64.9164
62.956
61.0545
59.2332
57.5098
55.8961
54.3965
53.0069
51.7157
50.5045
49.3498
48.2255
47.1074
45.9795
44.8353
43.674
42.4963
41.3034
40.0986
38.8862
37.6735
36.461
95.9671
95.9622
95.9567
95.9495
95.9391
95.9252
95.9073
95.8855
95.8606
95.834
95.808
95.7852
95.7688
95.7622
95.7689
95.792
95.8342
95.8978
95.984
96.0934
96.2258
96.3802
96.5546
96.747
96.9545
97.1742
97.4029
97.6374
97.8746
98.1114
98.3451
98.5728
98.7919
99.0002
99.1952
99.3747
99.5367
99.6791
99.7998
99.8969
99.9681
100.011
100.025
100.006
99.9525
99.8623
99.7328
99.5617
99.3462
99.0838
98.7718
98.4075
97.9882
97.5112
96.9737
96.373
95.7066
94.9719
94.1667
93.2886
92.3357
91.3063
90.199
89.0126
87.7463
86.3998
84.9732
83.4671
81.8825
80.2213
78.4858
76.6797
74.8076
72.8761
70.8939
68.8725
66.8261
64.7727
62.7333
60.7319
58.7935
56.9428
55.2005
53.5808
52.0889
50.7202
49.4607
48.2892
47.1783
46.0971
45.0172
43.9205
42.801
41.6594
40.4967
39.3143
38.1161
36.9081
35.6993
34.4923
93.9813
93.9763
93.9705
93.9626
93.9509
93.9349
93.9137
93.8875
93.857
93.8238
93.7903
93.7596
93.7352
93.7211
93.7211
93.7388
93.7772
93.8388
93.9251
94.0367
94.1732
94.3334
94.5153
94.7165
94.9338
95.164
95.4035
95.6491
95.8973
96.145
96.389
96.6266
96.8551
97.0722
97.2753
97.4624
97.6313
97.7799
97.9064
98.0085
98.0843
98.1317
98.1486
98.1328
98.0821
97.9942
97.8667
97.6971
97.4829
97.2216
96.9104
96.5468
96.1279
95.6511
95.1137
94.5129
93.8463
93.1112
92.3054
91.4264
90.4723
89.4413
88.3318
87.1426
85.8726
84.5214
83.0888
81.575
79.9809
78.3076
76.5573
74.7329
72.8385
70.8802
68.8663
66.8081
64.7203
62.6216
60.535
58.4869
56.5061
54.621
52.8565
51.2295
49.7464
48.4016
47.1786
46.0524
44.991
43.9584
42.9208
41.8581
40.7656
39.6456
38.4991
37.3273
36.135
34.93
33.7234
32.5218
91.9946
91.9895
91.9836
91.9752
91.9623
91.944
91.9193
91.8882
91.8515
91.8108
91.769
91.7293
91.696
91.6734
91.6658
91.6773
91.7114
91.7707
91.857
91.9708
92.1118
92.2786
92.4688
92.6797
92.9077
93.1494
93.4009
93.6585
93.9186
94.1779
94.4331
94.6813
94.9198
95.1462
95.358
95.553
95.7292
95.8845
96.0169
96.1244
96.205
96.2566
96.2772
96.2647
96.2167
96.1311
96.0055
95.8375
95.6246
95.3642
95.0538
94.6907
94.2721
93.7954
93.258
92.6572
91.9903
91.2547
90.4483
89.5684
88.6131
87.5805
86.4689
85.2769
84.0034
82.6475
81.209
79.6878
78.0842
76.399
74.6338
72.7908
70.8736
68.8873
66.8399
64.7423
62.6094
60.4609
58.3214
56.2203
54.1905
52.2653
50.4744
48.8386
47.3655
46.0483
44.8671
43.7922
42.7866
41.8079
40.8169
39.791
38.728
37.6324
36.5042
35.3435
34.156
32.9522
31.7453
30.5481
90.0071
90.0021
89.9962
89.9875
89.9734
89.9528
89.9244
89.888
89.8443
89.7953
89.744
89.6944
89.6509
89.6185
89.6023
89.6068
89.6359
89.6926
89.7789
89.8953
90.0413
90.2152
90.4146
90.6361
90.876
91.1302
91.3947
91.6653
91.9384
92.2101
92.4773
92.7369
92.986
93.2223
93.4432
93.6467
93.8305
93.9927
94.1314
94.2445
94.33
94.3861
94.4105
94.4012
94.3561
94.2728
94.1491
93.9826
93.7709
93.5114
93.2016
92.8389
92.4206
91.944
91.4064
90.8053
90.138
89.4019
88.5949
87.714
86.7576
85.7234
84.6098
83.4152
82.1383
80.778
79.3338
77.8053
76.1925
74.4957
72.7157
70.8541
68.9135
66.8985
64.8159
62.6764
60.4947
58.2913
56.0926
53.9312
51.8447
49.8725
48.0503
46.4036
44.942
43.657
42.5239
41.5072
40.5641
39.6454
38.7051
37.7188
36.688
35.6198
34.5127
33.3638
32.1798
30.9748
29.7646
28.5692
88.0189
88.0141
88.0085
87.9997
87.9845
87.9616
87.9292
87.887
87.8357
87.7774
87.7155
87.6545
87.5995
87.5561
87.5301
87.5266
87.55
87.6038
87.69
87.8091
87.9607
88.1427
88.3521
88.5854
88.8383
89.1062
89.3848
89.6696
89.9565
90.2416
90.5216
90.7933
91.0537
91.3004
91.531
91.7433
91.9351
92.1046
92.2498
92.3687
92.4594
92.5199
92.5483
92.5423
92.5
92.419
92.2972
92.1322
91.9216
91.6629
91.3536
90.9912
90.5729
90.0962
89.5584
88.957
88.2892
87.5525
86.7447
85.863
84.9053
83.8697
82.7542
81.5571
80.2769
78.9126
77.463
75.9276
74.306
72.5979
70.8035
68.9234
66.9594
64.9148
62.7957
60.6117
58.3775
56.1139
53.849
51.619
49.4668
47.4391
45.5793
43.9193
42.4711
41.2238
40.1467
39.197
38.3249
37.4741
36.5912
35.6485
34.6516
33.6122
32.5271
31.3897
30.2071
28.9974
27.7802
26.5825
86.0301
86.0257
86.0206
86.012
85.996
85.9709
85.9343
85.8857
85.8259
85.7572
85.6834
85.6095
85.5415
85.4857
85.4486
85.436
85.453
85.5034
85.5894
85.7116
85.8693
86.0602
86.2808
86.5271
86.7941
87.0771
87.371
87.6711
87.9729
88.2724
88.566
88.8505
89.1229
89.3806
89.6213
89.8428
90.0431
90.2201
90.372
90.497
90.593
90.6581
90.6904
90.6879
90.6483
90.5697
90.4497
90.286
90.0764
89.8184
89.5094
89.1471
88.7287
88.2518
87.7136
87.1116
86.4433
85.7059
84.8972
84.0146
83.0558
82.0188
80.9015
79.7021
78.419
77.0508
75.5963
74.0545
72.4246
70.7058
68.8975
66.9994
65.0121
62.9377
60.7808
58.5502
56.2596
53.9301
51.5914
49.2832
47.0546
44.961
43.0559
41.3792
39.9464
38.7437
37.7331
36.8626
36.0737
35.3029
34.4892
33.5988
32.6377
31.6235
30.5555
29.4252
28.2398
27.0203
25.7909
24.5852
84.0406
84.0367
84.0327
84.0246
84.0081
83.9809
83.94
83.8845
83.8153
83.7349
83.6477
83.5593
83.4766
83.4067
83.3569
83.3341
83.3438
83.3903
83.4761
83.6018
83.7663
83.9671
84.2001
84.4606
84.7433
85.0426
85.3531
85.6697
85.9876
86.3025
86.6106
86.9086
87.1935
87.4628
87.7141
87.9453
88.1543
88.3392
88.4981
88.6292
88.7306
88.8005
88.8368
88.8376
88.8009
88.7245
88.6062
88.4438
88.235
87.9774
87.6687
87.3063
86.8876
86.4102
85.8714
85.2688
84.5997
83.8616
83.052
82.1683
81.2084
80.17
79.0511
77.8496
76.5639
75.1923
73.7333
72.1857
70.5482
68.8195
66.9981
65.0828
63.0727
60.9684
58.773
56.4936
54.143
51.7419
49.3211
46.9238
44.6061
42.4338
40.4732
38.7752
37.36
36.2105
35.2798
34.5046
33.8155
33.1408
32.4125
31.589
30.6704
29.6763
28.6135
27.4785
26.2814
25.0441
23.7953
22.5751
82.0502
82.0473
82.0447
82.0379
82.0214
81.9923
81.9467
81.8838
81.8041
81.7107
81.6084
81.5037
81.4042
81.3184
81.2543
81.2199
81.2213
81.2634
81.3489
81.4785
81.6507
81.8625
82.1092
82.3855
82.6853
83.0025
83.3311
83.6655
84.0005
84.3318
84.6553
84.9676
85.2658
85.5472
85.8095
86.0507
86.2688
86.4618
86.6279
86.7654
86.8723
86.9469
86.9873
86.9915
86.9575
86.8832
86.7665
86.6053
86.3971
86.1398
85.831
85.4683
85.0491
84.571
84.0315
83.4279
82.7579
82.0188
81.2082
80.3236
79.3625
78.3229
77.2025
75.9992
74.7111
73.3365
71.8736
70.3209
68.6767
66.939
65.1056
63.1741
61.1422
59.0086
56.7743
54.4445
52.0303
49.5516
47.0397
44.5409
42.119
39.8523
37.8232
36.0977
34.7022
33.616
32.7815
32.1216
31.5526
30.9914
30.3635
29.621
28.7556
27.782
26.7142
25.5588
24.3371
23.0705
21.7925
20.5514
80.0589
80.0574
80.0569
80.052
80.0361
80.0055
79.9552
79.8841
79.7929
79.6849
79.5656
79.4424
79.3241
79.2201
79.1399
79.0922
79.0843
79.1215
79.2068
79.3407
79.5215
79.7455
80.0075
80.3012
80.6198
80.9565
81.3047
81.6582
82.0117
82.3604
82.7002
83.0275
83.3396
83.6337
83.9075
84.1591
84.3865
84.5878
84.7614
84.9053
85.0179
85.0973
85.1417
85.1492
85.1179
85.0456
84.9304
84.77
84.5623
84.3051
83.996
83.6327
83.2127
82.7337
82.1931
81.5884
80.9173
80.1771
79.3653
78.4796
77.5174
76.4766
75.3548
74.1499
72.8599
71.4828
70.0166
68.4597
66.8097
65.0643
63.2204
61.2742
59.2218
57.0597
54.7867
52.4054
49.9246
47.3624
44.7497
42.1356
39.5915
37.2107
35.0965
33.335
31.9616
30.9506
30.2316
29.7106
29.285
28.8553
28.3379
27.6814
26.8731
25.9269
24.8505
23.664
22.408
21.0986
19.7794
18.5105
78.0663
78.0669
78.0692
78.0673
78.0528
78.0211
77.966
77.8861
77.7821
77.6577
77.5193
77.3753
77.2356
77.1111
77.0126
76.95
76.9315
76.9631
77.0481
77.187
77.3775
77.6152
77.8942
78.2071
78.5464
78.9044
79.2738
79.648
80.0212
80.3884
80.7453
81.0886
81.4151
81.7223
82.0081
82.2704
82.5074
82.7173
82.8984
83.049
83.1673
83.2515
83.2999
83.3107
83.2818
83.2114
83.0975
82.9378
82.7303
82.4728
82.1631
81.7989
81.3779
80.8976
80.3557
79.7496
79.0771
78.3355
77.5225
76.6356
75.6722
74.6302
73.5073
72.3011
71.0095
69.6304
68.1618
66.6014
64.9469
63.1952
61.3424
59.3834
57.3125
55.1236
52.8127
50.3794
47.8294
45.178
42.4545
39.7094
37.0219
34.5029
32.2821
30.4736
29.1252
28.2036
27.6228
27.268
27.0122
26.733
26.3328
25.7577
24.9986
24.0693
23.0059
21.7978
20.4802
19.1154
17.7442
16.4399
76.0722
76.0754
76.0816
76.0839
76.072
76.0398
75.9798
75.8904
75.7722
75.6295
75.4695
75.3019
75.1381
74.9904
74.8711
74.7916
74.7612
74.7867
74.8715
75.0159
75.2174
75.4706
75.7684
76.1027
76.4647
76.8459
77.2383
77.6347
78.029
78.4158
78.7909
79.1507
79.4923
79.8132
80.1113
80.3847
80.6316
80.8502
81.039
81.1962
81.3203
81.4093
81.4617
81.4756
81.4491
81.3804
81.2674
81.1082
80.9006
80.6426
80.332
79.9666
79.5441
79.0622
78.5186
77.9108
77.2366
76.4934
75.6789
74.7907
73.8261
72.7829
71.659
70.4518
69.159
67.7786
66.3082
64.7454
63.0877
61.3313
59.4716
57.5023
55.4153
53.202
50.8548
48.3698
45.7488
43.003
40.1584
37.2652
34.4095
31.7219
29.3667
27.4967
26.1769
25.3618
24.945
24.7863
24.7282
24.6185
24.3412
23.8396
23.1136
22.19
21.0921
19.8586
18.5508
17.1403
15.7104
14.371
74.0759
74.0826
74.0937
74.1021
74.0942
74.0624
73.9976
73.8979
73.7638
73.6006
73.4164
73.2222
73.031
72.857
72.7143
72.6156
72.5718
72.5903
72.675
72.826
73.0399
73.3104
73.6294
73.9873
74.3743
74.7809
75.1982
75.6185
76.0352
76.4428
76.8369
77.2141
77.5714
77.9065
78.2173
78.502
78.7589
78.9865
79.183
79.347
79.4768
79.5706
79.6268
79.6437
79.6194
79.5521
79.4399
79.2808
79.0729
78.8139
78.502
78.135
77.7107
77.2268
76.6811
76.0712
75.395
74.6499
73.8336
72.9439
71.9779
70.9337
69.8088
68.6008
67.3074
65.9262
64.4548
62.8908
61.2312
59.472
57.6079
55.6311
53.5312
51.2965
48.9156
46.3802
43.6874
40.8429
37.8674
34.8076
31.7545
28.8602
26.3332
24.3823
23.0959
22.4071
22.1813
22.247
22.4101
22.484
22.3331
21.8989
21.1938
20.2626
19.1426
17.8745
16.4883
15.0349
13.5918
12.2473
72.0766
72.088
72.1059
72.1215
72.1202
72.0897
72.0202
71.9093
71.7577
71.5714
71.3599
71.1357
70.9136
70.7098
70.5404
70.4202
70.3612
70.3721
70.4569
70.6154
70.8434
71.1336
71.4762
71.8604
72.2749
72.7092
73.1535
73.5994
74.04
74.4695
74.8837
75.2789
75.6525
76.0021
76.3259
76.6222
76.8894
77.126
77.3304
77.5012
77.6366
77.7351
77.7951
77.8148
77.7925
77.7264
77.6146
77.4553
77.2466
76.9864
76.6727
76.3037
75.877
75.3907
74.8424
74.23
73.5513
72.804
71.9856
71.0941
70.1267
69.0814
67.9557
66.7472
65.4535
64.0721
62.6006
61.0365
59.3766
57.6167
55.7508
53.7698
51.661
49.4089
46.9978
44.4144
41.6503
38.7045
35.5892
32.3437
29.0593
25.9094
23.1594
21.1015
19.857
19.3164
19.3065
19.6176
20.0155
20.2792
20.2559
19.8878
19.2005
18.2591
17.1179
15.8368
14.4384
12.9468
11.4756
10.1327
70.0729
70.0908
70.1177
70.1432
70.1495
70.1226
70.0489
69.9256
69.7545
69.5424
69.3001
69.042
68.7849
68.5474
68.3478
68.2032
68.1273
68.1296
68.2148
68.3821
68.6264
68.9387
69.3079
69.7212
70.1662
70.6307
71.1042
71.5776
72.0435
72.4963
72.9313
73.3453
73.7356
74.1003
74.4374
74.7455
75.0231
75.2688
75.4811
75.6586
75.7997
75.9028
75.9663
75.9887
75.9681
75.9028
75.7912
75.6312
75.4212
75.1593
74.8435
74.4718
74.0424
73.553
73.0017
72.3863
71.7046
70.9546
70.1339
69.2402
68.2712
67.2246
66.0982
64.8895
63.5958
62.215
60.7443
59.1812
57.5226
55.7641
53.8994
51.9183
49.8052
47.5407
45.1038
42.4762
39.6431
36.5956
33.3342
29.884
26.3287
22.8604
19.8177
17.6201
16.4324
16.0616
16.2844
16.8532
17.496
17.9584
18.0726
17.7808
17.1193
16.1726
15.0179
13.7501
12.3629
10.8338
9.35159
8.02435
68.0632
68.0899
68.1289
68.1675
68.1837
68.1606
68.0851
67.9481
67.7551
67.514
67.2371
66.9407
66.6441
66.3683
66.1346
65.9623
65.8673
65.8604
65.9463
66.124
66.3869
66.7245
67.1235
67.5694
68.0478
68.5454
69.0505
69.5533
70.0462
70.5232
70.98
71.4135
71.8211
72.201
72.5517
72.8718
73.16
73.4148
73.635
73.8192
73.9658
74.0733
74.1403
74.165
74.1458
74.0811
73.9691
73.8081
73.5964
73.3322
73.0136
72.6388
72.2059
71.713
71.158
70.539
69.8539
69.1006
68.277
67.3809
66.41
65.3621
64.235
63.0261
61.733
60.3533
58.8842
57.3234
55.6678
53.9131
52.0529
50.0759
47.9639
45.6928
43.236
40.5694
37.6723
34.5259
31.1155
27.4427
23.5713
19.7058
16.2782
13.9013
12.7937
12.6047
13.0663
13.9086
14.8281
15.5263
15.8129
15.6249
15.0058
14.06
12.8934
11.6674
10.2937
8.68024
7.17917
5.83316
66.0449
66.0837
66.1387
66.1945
66.2239
66.2063
66.1285
65.9778
65.7605
65.4867
65.1708
64.8313
64.49
64.1709
63.8984
63.6949
63.5785
63.5614
63.6487
63.8386
64.1231
64.4894
64.922
65.4042
65.9196
66.4533
66.9925
67.5268
68.0482
68.5507
69.0302
69.4837
69.9089
70.3045
70.669
71.0012
71.2999
71.564
71.792
71.9828
72.1348
72.2466
72.3166
72.3434
72.3253
72.2607
72.1479
71.9854
71.7714
71.5043
71.1824
70.8038
70.3669
69.8698
69.3105
68.6872
67.9979
67.2409
66.4139
65.5148
64.5415
63.4921
62.3643
61.1555
59.8633
58.4852
57.0187
55.4614
53.8105
52.0618
50.2096
48.2416
46.1369
43.8662
41.3965
38.6983
35.7447
32.5067
28.9493
25.0389
20.8026
16.4474
12.5141
9.90294
8.90565
8.89547
9.60678
10.7717
12.05
13.0673
13.592
13.5485
12.9826
12.0377
10.8442
9.68252
8.28827
6.4107
4.8458
3.38388
64.0149
64.0702
64.1462
64.2244
64.2709
64.2607
64.1791
64.0172
63.7716
63.4609
63.1014
62.7133
62.3213
61.9531
61.6367
61.3979
61.2575
61.2294
61.3189
61.5233
61.8327
62.2319
62.7025
63.2252
63.7814
64.3546
64.9306
65.4985
66.05
66.5792
67.0822
67.5561
67.9994
68.4108
68.7892
69.1336
69.4429
69.7162
69.952
70.1493
70.3065
70.4223
70.4952
70.5237
70.5062
70.4412
70.3272
70.1626
69.9457
69.6751
69.3492
68.9662
68.5245
68.0223
67.458
66.8297
66.1356
65.3739
64.5429
63.6404
62.6643
61.613
60.4844
59.2757
57.9847
56.609
55.1458
53.5932
51.9485
50.2082
48.3673
46.4136
44.3232
42.0611
39.5875
36.8672
33.868
30.5506
26.8544
22.6972
18.0503
13.104
8.49589
5.5624
4.73529
4.90432
5.91387
7.50443
9.27025
10.7163
11.5591
11.702
11.1802
10.2135
8.9811
7.8665
6.39371
4.19788
2.49554
-0.301666
61.9688
62.0464
62.1502
62.2573
62.3259
62.3257
62.2406
62.0649
61.7895
61.4372
61.0288
60.5859
60.1367
59.7129
59.3467
59.0679
58.9006
58.8605
58.9534
59.1752
59.5136
59.9504
60.464
61.032
61.6333
62.2495
62.8653
63.4691
64.0523
64.6092
65.1363
65.6312
66.0928
66.5202
66.9125
67.2691
67.589
67.8714
68.1149
68.3185
68.4807
68.6002
68.6756
68.7054
68.6881
68.6223
68.5064
68.339
68.1187
67.8439
67.5131
67.1249
66.6776
66.1697
65.5995
64.9653
64.2655
63.4985
62.6625
61.7557
60.7765
59.7229
58.5931
57.3846
56.0952
54.7223
53.2633
51.7165
50.0795
48.3497
46.5235
44.5895
42.5215
40.2779
37.8111
35.0806
32.05
28.6702
24.851
20.4487
15.3583
9.71686
4.19569
0.839156
0.337866
0.659275
2.02658
4.17251
6.5633
8.52449
9.76793
10.1436
9.65966
8.64068
7.3344
6.44743
4.67299
-0.376656
-1.95244
-0.128889
59.9008
60.0087
60.149
60.2934
60.3897
60.4025
60.3142
60.12
59.8178
59.4157
58.9528
58.4485
57.9346
57.4477
57.0249
56.7009
56.5035
56.4506
56.5482
56.7908
57.1632
57.6432
58.2055
58.8242
59.4754
60.1386
60.7973
61.4391
62.0555
62.6412
63.193
63.7093
64.1893
64.6327
65.039
65.4077
65.7382
66.0295
66.2805
66.4902
66.6572
66.7801
66.8576
66.8882
66.8706
66.8034
66.685
66.5142
66.2896
66.0098
65.6735
65.2792
64.8255
64.3108
63.7338
63.0927
62.3862
61.6128
60.771
59.8592
58.8761
57.8194
56.6883
55.4799
54.1923
52.8227
51.3688
49.8288
48.2008
46.4831
44.6745
42.7662
40.7301
38.5174
36.0707
33.3439
30.2978
26.876
22.9577
18.3289
12.7866
6.36734
-0.364256
-4.31218
-4.32586
-4.05839
-2.27753
0.641231
3.89984
6.44969
8.15776
8.80708
8.29527
7.2349
5.24526
2.08236
-0.177785
0.111893
0.469041
0.479388
57.8037
57.9519
58.1404
58.3326
58.4636
58.4927
58.4016
58.1873
57.8544
57.3959
56.8735
56.3001
55.7132
55.1547
54.6676
54.2924
54.0613
53.9947
54.0991
54.3667
54.7788
55.3085
55.9261
56.6017
57.308
58.0225
58.7272
59.4094
60.0605
60.6758
61.2528
61.7906
62.2891
62.7485
63.1687
63.5495
63.8904
64.1904
64.4488
64.6643
64.8357
64.9616
65.0407
65.0717
65.0532
64.9839
64.8625
64.6875
64.4578
64.1722
63.8293
63.428
62.9669
62.4445
61.8596
61.2106
60.4963
59.7155
58.8667
57.9488
56.9607
55.9004
54.7674
53.5588
52.2733
50.9075
49.4595
47.9272
46.309
44.6046
42.8165
40.9403
38.9478
36.7809
34.37
31.662
28.6162
25.1734
21.185
16.3696
10.406
3.18314
-5.25839
-10.6831
-9.89732
-9.4672
-6.59429
-2.52469