/*--------------------------------*- C++ -*----------------------------------*\
| =========                 |                                                 |
| \\      /  F ield         | OpenFOAM: The Open Source CFD Toolbox           |
|  \\    /   O peration     | Version:  2.4.0                                 |
|   \\  /    A nd           | Web:      www.OpenFOAM.org                      |
|    \\/     M anipulation  |                                                 |
\*---------------------------------------------------------------------------*/
FoamFile
{
    version     2.0;
    format      ascii;
    class       surfaceScalarField;
    location    "0.082";
    object      phi;
}
// * * * * * * * * * * * * * * * * * * * * * * * * * * * * * * * * * * * * * //

dimensions      [0 3 -1 0 0 0 0];

internalField   nonuniform List<scalar> 
114720
(
-1.58142e-09
1.36561e-09
3.02405e-09
-2.80824e-09
4.10884e-09
-4.94242e-09
-3.49482e-10
1.18306e-09
7.54651e-09
-8.30609e-09
-2.93443e-10
1.05303e-09
1.04548e-08
-1.1011e-08
-1.6426e-10
7.20441e-10
1.20863e-08
-1.21393e-08
1.03202e-10
-5.0268e-11
1.12946e-08
-1.07463e-08
3.58098e-10
-9.06352e-10
8.42836e-09
-7.5641e-09
4.2209e-10
-1.28635e-09
4.5285e-09
-3.46859e-09
4.10592e-10
-1.47051e-09
-2.39727e-10
1.55125e-09
4.3653e-10
-1.74806e-09
-6.14572e-09
7.7505e-09
5.1617e-10
-2.12095e-09
-1.3233e-08
1.50587e-08
6.02493e-10
-2.42822e-09
-2.08328e-08
2.25911e-08
5.74712e-10
-2.33303e-09
-2.76276e-08
2.89977e-08
4.08274e-10
-1.77834e-09
-3.24015e-08
3.31525e-08
1.37419e-10
-8.88372e-10
-3.44219e-08
3.44794e-08
-1.5994e-10
1.02495e-10
-3.36671e-08
3.3128e-08
-3.8898e-10
9.28086e-10
-3.07052e-08
2.97527e-08
-5.10046e-10
1.46254e-09
-2.63498e-08
2.51898e-08
-5.32059e-10
1.69208e-09
-2.14412e-08
2.02616e-08
-4.80193e-10
1.65981e-09
-1.66814e-08
1.56134e-08
-3.87746e-10
1.4558e-09
-1.25068e-08
1.16144e-08
-2.84437e-10
1.17681e-09
-9.09555e-09
8.39124e-09
-1.891e-10
8.93414e-10
-6.44803e-09
5.9164e-09
-1.10568e-10
6.42199e-10
-4.47698e-09
4.09135e-09
-4.90616e-11
4.347e-10
-3.06551e-09
2.79573e-09
-3.77832e-12
2.7356e-10
-2.09046e-09
1.90767e-09
2.77419e-11
1.55046e-10
-1.43346e-09
1.31034e-09
4.64548e-11
7.66659e-11
-9.8472e-10
8.97057e-10
5.41393e-11
3.35241e-11
-6.52182e-10
5.81638e-10
5.35466e-11
1.69971e-11
-3.7103e-10
3.06915e-10
4.82514e-11
1.58633e-11
1.75947e-09
1.01267e-08
-8.26266e-09
-3.62349e-09
8.44761e-09
-5.40916e-09
-1.00234e-08
6.98495e-09
1.46823e-08
-4.84011e-09
-1.61901e-08
6.34798e-09
2.05489e-08
-3.57679e-09
-2.18088e-08
4.83668e-09
2.45918e-08
-3.68867e-10
-2.50269e-08
8.03971e-10
2.46827e-08
3.16233e-09
-2.40494e-08
-3.79567e-09
2.07517e-08
5.44056e-09
-1.92645e-08
-6.92778e-09
1.35442e-08
7.39033e-09
-1.12939e-08
-9.64065e-09
3.32333e-09
9.44119e-09
-3.80877e-10
-1.23836e-08
-9.48307e-09
1.13046e-08
1.29562e-08
-1.47777e-08
-2.40578e-08
1.22366e-08
2.77686e-08
-1.59473e-08
-3.89421e-08
1.14114e-08
4.24548e-08
-1.49241e-08
-5.23965e-08
8.94564e-09
5.53235e-08
-1.18726e-08
-6.30236e-08
5.382e-09
6.50989e-08
-7.45738e-09
-6.99996e-08
1.55055e-09
7.11342e-08
-2.68509e-09
-7.32358e-08
-1.79139e-09
7.35012e-08
1.52601e-09
-7.31384e-08
-4.30974e-09
7.26645e-08
4.78365e-09
-7.02707e-08
-5.88366e-09
6.92129e-08
6.94143e-09
-6.53079e-08
-6.52314e-09
6.38482e-08
7.98285e-09
-5.89956e-08
-6.42972e-09
5.73135e-08
8.11178e-09
-5.20218e-08
-5.8859e-09
5.0265e-08
7.64274e-09
-4.49157e-08
-5.14354e-09
4.31866e-08
6.8727e-09
-3.80238e-08
-4.36915e-09
3.6381e-08
6.01197e-09
-3.1533e-08
-3.65081e-09
3.00046e-08
5.17912e-09
-2.55229e-08
-3.03071e-09
2.41177e-08
4.43589e-09
-2.0014e-08
-2.52441e-09
1.87308e-08
3.80753e-09
-1.49887e-08
-2.13764e-09
1.38203e-08
3.3061e-09
-1.0418e-08
-1.85631e-09
9.3565e-09
2.91777e-09
-6.27009e-09
-1.65665e-09
5.30743e-09
2.61931e-09
-2.51249e-09
-1.50119e-09
1.64352e-09
2.37016e-09
1.79767e-09
1.77186e-08
-1.58105e-08
-3.7057e-09
8.79357e-09
-1.18715e-08
-1.04435e-08
1.35214e-08
1.53628e-08
-1.10829e-08
-1.69718e-08
1.2692e-08
2.16937e-08
-8.88753e-09
-2.30887e-08
1.02826e-08
2.62978e-08
-2.36599e-09
-2.68634e-08
2.93158e-09
2.68458e-08
5.54767e-09
-2.62907e-08
-6.1027e-09
2.3137e-08
1.13824e-08
-2.16641e-08
-1.28553e-08
1.58931e-08
1.65069e-08
-1.35996e-08
-1.88004e-08
5.44686e-09
2.13779e-08
-2.43574e-09
-2.4389e-08
-7.64194e-09
2.53652e-08
1.11869e-08
-2.89101e-08
-2.25146e-08
2.72485e-08
2.63011e-08
-3.10351e-08
-3.77074e-08
2.56387e-08
4.12974e-08
-2.92287e-08
-5.14861e-08
2.08611e-08
5.44988e-08
-2.38738e-08
-6.24788e-08
1.39395e-08
6.46511e-08
-1.61119e-08
-6.98666e-08
6.4101e-09
7.11127e-08
-7.65623e-09
-7.36021e-08
-3.0764e-10
7.40141e-08
-1.04421e-10
-7.41702e-08
-5.67246e-09
7.38895e-08
5.9531e-09
-7.21515e-08
-9.51047e-09
7.13264e-08
1.03355e-08
-6.81678e-08
-1.17642e-08
6.69579e-08
1.29741e-08
-6.28536e-08
-1.26581e-08
6.14034e-08
1.41082e-08
-5.67481e-08
-1.25828e-08
5.51694e-08
1.41615e-08
-5.02507e-08
-1.19328e-08
4.86217e-08
1.35618e-08
-4.36333e-08
-1.10162e-08
4.20037e-08
1.26458e-08
-3.70642e-08
-1.00235e-08
3.54639e-08
1.16238e-08
-3.06424e-08
-9.06333e-09
2.90893e-08
1.06164e-08
-2.44369e-08
-8.1794e-09
2.29465e-08
9.6698e-09
-1.85066e-08
-7.39624e-09
1.70938e-08
8.80908e-09
-1.29199e-08
-6.69739e-09
1.16029e-08
8.0144e-09
-7.74738e-09
-6.07147e-09
6.53999e-09
7.27887e-09
-3.03205e-09
-5.48553e-09
1.94241e-09
6.57518e-09
1.80379e-09
2.53796e-08
-2.34607e-08
-3.72272e-09
8.82287e-09
-1.84881e-08
-1.04806e-08
2.01458e-08
1.54294e-08
-1.75499e-08
-1.70542e-08
1.91746e-08
2.1849e-08
-1.45271e-08
-2.32778e-08
1.59559e-08
2.66017e-08
-4.68756e-09
-2.71999e-08
5.28582e-09
2.7249e-08
7.73754e-09
-2.67077e-08
-8.2788e-09
2.35877e-08
1.72562e-08
-2.21242e-08
-1.87197e-08
1.63712e-08
2.56815e-08
-1.40788e-08
-2.79739e-08
5.9169e-09
3.34352e-08
-2.90046e-09
-3.64516e-08
-7.2008e-09
3.95698e-08
1.07601e-08
-4.3129e-08
-2.21682e-08
4.24476e-08
2.59915e-08
-4.62709e-08
-3.75273e-08
4.00603e-08
4.11634e-08
-4.36964e-08
-5.15007e-08
3.29737e-08
5.45632e-08
-3.60363e-08
-6.26831e-08
2.26659e-08
6.48917e-08
-2.48744e-08
-7.01665e-08
1.13783e-08
7.14145e-08
-1.26262e-08
-7.38622e-08
1.27706e-09
7.42468e-08
-1.66166e-09
-7.4272e-08
-6.90799e-09
7.39306e-08
7.2494e-09
-7.19444e-08
-1.29719e-08
7.10189e-08
1.38974e-08
-6.75106e-08
-1.67792e-08
6.61774e-08
1.81123e-08
-6.16968e-08
-1.86044e-08
6.01287e-08
2.01725e-08
-5.51492e-08
-1.89872e-08
5.34797e-08
2.06567e-08
-4.83383e-08
-1.84776e-08
4.66554e-08
2.01605e-08
-4.15606e-08
-1.75104e-08
3.99152e-08
1.91558e-08
-3.49832e-08
-1.63589e-08
3.34028e-08
1.79392e-08
-2.86904e-08
-1.51812e-08
2.71876e-08
1.6684e-08
-2.27262e-08
-1.40304e-08
2.13089e-08
1.54477e-08
-1.71173e-08
-1.29304e-08
1.57921e-08
1.42555e-08
-1.18978e-08
-1.1849e-08
1.06744e-08
1.30724e-08
-7.10327e-09
-1.07905e-08
5.98737e-09
1.19064e-08
-2.74919e-09
-9.7421e-09
1.7441e-09
1.07472e-08
1.80812e-09
3.30816e-08
-3.11519e-08
-3.7378e-09
8.81795e-09
-2.51193e-08
-1.04755e-08
2.67769e-08
1.54251e-08
-2.40572e-08
-1.70551e-08
2.56872e-08
2.18895e-08
-2.02772e-08
-2.3342e-08
2.17296e-08
2.67493e-08
-7.11082e-09
-2.7368e-08
7.72951e-09
2.74409e-08
9.90057e-09
-2.69005e-08
-1.04409e-08
2.37926e-08
2.30983e-08
-2.2338e-08
-2.45529e-08
1.66201e-08
3.48368e-08
-1.43388e-08
-3.71181e-08
6.203e-09
4.54923e-08
-3.1933e-09
-4.8502e-08
-6.89658e-09
5.3817e-08
1.04624e-08
-5.73829e-08
-2.19517e-08
5.78031e-08
2.58191e-08
-6.16706e-08
-3.75236e-08
5.46951e-08
4.12237e-08
-5.83952e-08
-5.17798e-08
4.5335e-08
5.49213e-08
-4.84765e-08
-6.32836e-08
3.16017e-08
6.55655e-08
-3.38836e-08
-7.10095e-08
1.64219e-08
7.22954e-08
-1.77078e-08
-7.48254e-08
2.8396e-09
7.52306e-08
-3.24476e-09
-7.52986e-08
-8.28195e-09
7.4959e-08
8.62151e-09
-7.29195e-08
-1.67459e-08
7.19555e-08
1.77099e-08
-6.82667e-08
-2.22448e-08
6.68566e-08
2.36548e-08
-6.20971e-08
-2.50479e-08
6.0428e-08
2.67171e-08
-5.51235e-08
-2.58451e-08
5.33453e-08
2.76234e-08
-4.78785e-08
-2.53728e-08
4.60938e-08
2.71574e-08
-4.07147e-08
-2.42174e-08
3.8987e-08
2.59451e-08
-3.38466e-08
-2.27529e-08
3.22135e-08
2.43859e-08
-2.73948e-08
-2.12027e-08
2.58759e-08
2.27216e-08
-2.14241e-08
-1.96474e-08
2.00288e-08
2.10428e-08
-1.59566e-08
-1.81275e-08
1.46857e-08
1.93985e-08
-1.09917e-08
-1.66092e-08
9.84219e-09
1.77587e-08
-6.50954e-09
-1.51131e-08
5.47334e-09
1.61493e-08
-2.47424e-09
-1.36298e-08
1.54471e-09
1.45593e-08
1.81376e-09
4.08341e-08
-3.88904e-08
-3.75743e-09
8.80935e-09
-3.17484e-08
-1.04659e-08
3.34049e-08
1.54133e-08
-3.05849e-08
-1.70485e-08
3.22201e-08
2.1928e-08
-2.61279e-08
-2.3409e-08
2.76088e-08
2.69192e-08
-9.62114e-09
-2.75628e-08
1.02647e-08
2.76619e-08
1.20616e-08
-2.71219e-08
-1.26017e-08
2.40305e-08
2.88987e-08
-2.25888e-08
-3.03404e-08
1.69219e-08
4.39394e-08
-1.46566e-08
-4.62047e-08
6.5577e-09
5.75177e-08
-3.55734e-09
-6.05181e-08
-6.51156e-09
6.80907e-08
1.00839e-08
-7.16631e-08
-2.16758e-08
7.33551e-08
2.56004e-08
-7.72797e-08
-3.75209e-08
6.96124e-08
4.13021e-08
-7.33936e-08
-5.21377e-08
5.80478e-08
5.53816e-08
-6.12918e-08
-6.40641e-08
4.08713e-08
6.64467e-08
-4.3254e-08
-7.2116e-08
2.1637e-08
7.34511e-08
-2.29721e-08
-7.60948e-08
4.50929e-09
7.65346e-08
-4.94916e-09
-7.67041e-08
-9.60948e-09
7.63882e-08
9.92538e-09
-7.43618e-08
-2.06306e-08
7.338e-08
2.16124e-08
-6.95773e-08
-2.79649e-08
6.81143e-08
2.94278e-08
-6.31667e-08
-3.18282e-08
6.14301e-08
3.35648e-08
-5.5914e-08
-3.30681e-08
5.40665e-08
3.49156e-08
-4.83922e-08
-3.26179e-08
4.6542e-08
3.44681e-08
-4.09727e-08
-3.12237e-08
3.91867e-08
3.30097e-08
-3.38824e-08
-2.93624e-08
3.22014e-08
3.10434e-08
-2.72567e-08
-2.73295e-08
2.5704e-08
2.88822e-08
-2.11742e-08
-2.52485e-08
1.97618e-08
2.66608e-08
-1.56629e-08
-2.32015e-08
1.43909e-08
2.44735e-08
-1.07133e-08
-2.11764e-08
9.57453e-09
2.23152e-08
-6.28579e-09
-1.92171e-08
5.26661e-09
2.02363e-08
-2.32366e-09
-1.73056e-08
1.41308e-09
1.82162e-08
1.82051e-09
4.865e-08
-4.66893e-08
-3.7812e-09
8.7992e-09
-3.83722e-08
-1.04541e-08
4.00271e-08
1.53988e-08
-3.71346e-08
-1.70401e-08
3.8776e-08
2.19739e-08
-3.21023e-08
-2.34901e-08
3.36185e-08
2.713e-08
-1.22405e-08
-2.78051e-08
1.29155e-08
2.7936e-08
1.4222e-08
-2.73957e-08
-1.47624e-08
2.4325e-08
3.4642e-08
-2.28996e-08
-3.60674e-08
1.72963e-08
5.29723e-08
-1.50505e-08
-5.52181e-08
6.99408e-09
6.95035e-08
-4.00433e-09
-7.24933e-08
-6.03404e-09
8.23885e-08
9.61163e-09
-8.59661e-08
-2.133e-08
8.91557e-08
2.53259e-08
-9.31516e-08
-3.75104e-08
8.48793e-08
4.13898e-08
-8.87587e-08
-5.25649e-08
7.12048e-08
5.59346e-08
-7.45745e-08
-6.50201e-08
5.05932e-08
6.75391e-08
-5.31123e-08
-7.34889e-08
2.70589e-08
7.4879e-08
-2.84489e-08
-7.76479e-08
6.33158e-09
7.81314e-08
-6.81504e-09
-7.84544e-08
-1.08176e-08
7.81798e-08
1.10922e-08
-7.61991e-08
-2.45809e-08
7.52021e-08
2.55779e-08
-7.12747e-08
-3.39023e-08
6.97521e-08
3.54249e-08
-6.45937e-08
-3.88793e-08
6.27844e-08
4.06886e-08
-5.70514e-08
-4.05562e-08
5.51368e-08
4.24709e-08
-4.92746e-08
-4.01011e-08
4.73685e-08
4.20071e-08
-4.16455e-08
-3.84363e-08
3.98142e-08
4.02676e-08
-3.43847e-08
-3.61433e-08
3.26664e-08
3.78616e-08
-2.76165e-08
-3.35884e-08
2.60317e-08
3.51732e-08
-2.14098e-08
-3.09386e-08
1.99689e-08
3.23795e-08
-1.57875e-08
-2.83231e-08
1.44901e-08
2.96205e-08
-1.07401e-08
-2.5758e-08
9.57948e-09
2.69186e-08
-6.2314e-09
-2.33127e-08
5.1953e-09
2.43488e-08
-2.20901e-09
-2.09593e-08
1.28706e-09
2.18812e-08
1.82936e-09
5.65447e-08
-5.45628e-08
-3.81125e-09
8.78433e-09
-4.4988e-08
-1.04365e-08
4.66402e-08
1.53761e-08
-4.37092e-08
-1.70238e-08
4.53569e-08
2.20187e-08
-3.82277e-08
-2.35767e-08
3.97858e-08
2.73742e-08
-1.49958e-08
-2.80876e-08
1.57092e-08
2.8255e-08
1.63849e-08
-2.77133e-08
-1.69266e-08
2.46674e-08
4.03143e-08
-2.32622e-08
-4.17194e-08
1.7738e-08
6.19205e-08
-1.55163e-08
-6.41423e-08
7.50986e-09
8.14437e-08
-4.53261e-09
-8.4421e-08
-5.45633e-09
9.67015e-08
9.03459e-09
-1.0028e-07
-2.08994e-08
1.05262e-07
2.49807e-08
-1.09343e-07
-3.74737e-08
1.00562e-07
4.14663e-08
-1.04555e-07
-5.30358e-08
8.48959e-08
5.6551e-08
-8.8411e-08
-6.61264e-08
6.09328e-08
6.88353e-08
-6.36417e-08
-7.51223e-08
3.27e-08
7.65647e-08
-3.41424e-08
-7.94493e-08
8.3392e-09
7.9983e-08
-8.87287e-09
-8.05318e-08
-1.18253e-08
8.03241e-08
1.2033e-08
-7.8433e-08
-2.85895e-08
7.74224e-08
2.96001e-08
-7.33453e-08
-4.00986e-08
7.17485e-08
4.16954e-08
-6.63285e-08
-4.62439e-08
6.44301e-08
4.81423e-08
-5.84359e-08
-4.83286e-08
5.6442e-08
5.03225e-08
-5.03622e-08
-4.78163e-08
4.83931e-08
4.97853e-08
-4.25009e-08
-4.58316e-08
4.06212e-08
4.77114e-08
-3.50603e-08
-4.30728e-08
3.33033e-08
4.48298e-08
-2.81433e-08
-3.99774e-08
2.6524e-08
4.15967e-08
-2.17976e-08
-3.67519e-08
2.03221e-08
3.82274e-08
-1.60322e-08
-3.35644e-08
1.46984e-08
3.48982e-08
-1.08368e-08
-3.04508e-08
9.64013e-09
3.16475e-08
-6.18725e-09
-2.75009e-08
5.11951e-09
2.85686e-08
-2.04823e-09
-2.46795e-08
1.10286e-09
2.56248e-08
1.84048e-09
6.45351e-08
-6.25276e-08
-3.84802e-09
8.7678e-09
-5.15919e-08
-1.04165e-08
5.32406e-08
1.53503e-08
-5.03105e-08
-1.70049e-08
5.19652e-08
2.20687e-08
-4.45317e-08
-2.3676e-08
4.6139e-08
2.7663e-08
-1.79159e-08
-2.84224e-08
1.86752e-08
2.86293e-08
1.85562e-08
-2.8084e-08
-1.91016e-08
2.50652e-08
4.59005e-08
-2.36839e-08
-4.72818e-08
1.82538e-08
7.07672e-08
-1.60601e-08
-7.29608e-08
8.10725e-09
9.33343e-08
-5.1425e-09
-9.62991e-08
-4.77467e-09
1.11008e-07
8.34638e-09
-1.1458e-07
-2.03834e-08
1.21737e-07
2.45681e-08
-1.25921e-07
-3.74189e-08
1.16721e-07
4.15401e-08
-1.20843e-07
-5.35626e-08
9.91919e-08
5.72349e-08
-1.02864e-07
-6.73981e-08
7.21536e-08
7.03879e-08
-7.51433e-08
-7.7077e-08
3.85307e-08
7.85536e-08
-4.00074e-08
-8.1507e-08
1.05524e-08
8.20923e-08
-1.11377e-08
-8.29784e-08
-1.2512e-08
8.28769e-08
1.26135e-08
-8.11377e-08
-3.26514e-08
8.01142e-08
3.36748e-08
-7.58469e-08
-4.66218e-08
7.4154e-08
4.83147e-08
-6.84008e-08
-5.39971e-08
6.63906e-08
5.60072e-08
-6.00744e-08
-5.64431e-08
5.79842e-08
5.85332e-08
-5.16422e-08
-5.58019e-08
4.95977e-08
5.78463e-08
-4.35044e-08
-5.3434e-08
4.15672e-08
5.53712e-08
-3.58514e-08
-5.01671e-08
3.4049e-08
5.19695e-08
-2.87603e-08
-4.65134e-08
2.71007e-08
4.81729e-08
-2.22514e-08
-4.27141e-08
2.07347e-08
4.42308e-08
-1.63134e-08
-3.8965e-08
1.49344e-08
4.03439e-08
-1.09291e-08
-3.53057e-08
9.68434e-09
3.65504e-08
-6.08598e-09
-3.1835e-08
4.97246e-09
3.29485e-08
-1.77486e-09
-2.85079e-08
7.94352e-10
2.94884e-08
1.85438e-09
7.2641e-08
-7.06027e-08
-3.89268e-09
8.74943e-09
-5.81801e-08
-1.03936e-08
5.98242e-08
1.53209e-08
-5.69401e-08
-1.69829e-08
5.86021e-08
2.21224e-08
-5.10437e-08
-2.37865e-08
5.27079e-08
2.79985e-08
-2.10319e-08
-2.88121e-08
2.18456e-08
2.90597e-08
2.07469e-08
-2.85072e-08
-2.12993e-08
2.5517e-08
5.13851e-08
-2.41636e-08
-5.27385e-08
1.88443e-08
7.94941e-08
-1.66835e-08
-8.16549e-08
8.78614e-09
1.05176e-07
-5.832e-09
-1.0813e-07
-3.98168e-09
1.25271e-07
7.53384e-09
-1.28823e-07
-1.97716e-08
1.38657e-07
2.40827e-08
-1.42968e-07
-3.73408e-08
1.33416e-07
4.16045e-08
-1.37679e-07
-5.41406e-08
1.14107e-07
5.7956e-08
-1.17922e-07
-6.88196e-08
8.4703e-08
7.2243e-08
-8.81264e-08
-7.94147e-08
4.44358e-08
8.08748e-08
-4.58959e-08
-8.37783e-08
1.29596e-08
8.44024e-08
-1.35837e-08
-8.5815e-08
-1.26907e-08
8.58808e-08
1.26249e-08
-8.4381e-08
-3.6765e-08
8.33437e-08
3.78023e-08
-7.8823e-08
-5.35722e-08
7.70031e-08
5.5392e-08
-7.08196e-08
-6.22377e-08
6.86693e-08
6.43881e-08
-6.19582e-08
-6.49714e-08
5.97519e-08
6.71776e-08
-5.30978e-08
-6.41085e-08
5.09646e-08
6.62418e-08
-4.46362e-08
-6.12796e-08
4.26326e-08
6.32832e-08
-3.67393e-08
-5.74522e-08
3.48855e-08
5.9306e-08
-2.94531e-08
-5.32174e-08
2.77491e-08
5.49214e-08
-2.27649e-08
-4.88482e-08
2.12028e-08
5.04103e-08
-1.66334e-08
-4.45579e-08
1.52019e-08
4.59894e-08
-1.10212e-08
-4.03739e-08
9.71368e-09
4.16814e-08
-5.91153e-09
-3.63829e-08
4.72978e-09
3.75647e-08
-1.33849e-09
-3.25066e-08
3.03954e-10
3.35411e-08
1.87165e-09
8.08841e-08
-7.88092e-08
-3.94662e-09
8.7259e-09
-6.47474e-08
-1.03636e-08
6.63851e-08
1.52821e-08
-6.35985e-08
-1.69511e-08
6.52675e-08
2.21692e-08
-5.77942e-08
-2.38976e-08
5.95226e-08
2.83726e-08
-2.43784e-08
-2.92496e-08
2.52554e-08
2.95363e-08
2.29729e-08
-2.89717e-08
-2.35375e-08
2.60117e-08
5.6751e-08
-2.4691e-08
-5.80717e-08
1.95035e-08
8.80804e-08
-1.7382e-08
-9.0202e-08
9.54228e-09
1.1698e-07
-6.59505e-09
-1.19927e-07
-3.06797e-09
1.39424e-07
6.5766e-09
-1.42932e-07
-1.90446e-08
1.56124e-07
2.35134e-08
-1.60593e-07
-3.72221e-08
1.50697e-07
4.1639e-08
-1.55114e-07
-5.47508e-08
1.29512e-07
5.86403e-08
-1.33401e-07
-7.03501e-08
9.93089e-08
7.44388e-08
-1.03398e-07
-8.22169e-08
5.01296e-08
8.35457e-08
-5.14584e-08
-8.61422e-08
1.54658e-08
8.67564e-08
-1.608e-08
-8.90466e-08
-1.20704e-08
8.93745e-08
1.17425e-08
-8.82291e-08
-4.09401e-08
8.71725e-08
4.19967e-08
-8.22991e-08
-6.10923e-08
8.03072e-08
6.30841e-08
-7.35628e-08
-7.10897e-08
7.12369e-08
7.34156e-08
-6.40471e-08
-7.39941e-08
6.17044e-08
7.63368e-08
-5.46898e-08
-7.27892e-08
5.24551e-08
7.50239e-08
-4.58607e-08
-6.9403e-08
4.3783e-08
7.14807e-08
-3.76968e-08
-6.49478e-08
3.57889e-08
6.68557e-08
-3.02101e-08
-6.00997e-08
2.84624e-08
6.18474e-08
-2.33483e-08
-5.51635e-08
2.17428e-08
5.6769e-08
-1.70293e-08
-5.03644e-08
1.55451e-08
5.18486e-08
-1.11777e-08
-4.57131e-08
9.79781e-09
4.70931e-08
-5.71329e-09
-4.1279e-08
4.40737e-09
4.25849e-08
-4.81309e-10
-3.68735e-08
-7.78177e-10
3.81329e-08
1.89293e-09
8.9291e-08
-8.71724e-08
-4.01153e-09
8.70013e-09
-7.12871e-08
-1.03298e-08
7.29168e-08
1.5239e-08
-7.02849e-08
-1.69148e-08
7.19607e-08
2.22147e-08
-6.48141e-08
-2.40155e-08
6.6615e-08
2.87983e-08
-2.79937e-08
-2.9749e-08
2.89444e-08
3.00703e-08
2.52576e-08
-2.94864e-08
-2.58415e-08
2.65562e-08
6.19792e-08
-2.52731e-08
-6.32623e-08
2.02393e-08
9.65005e-08
-1.81638e-08
-9.8576e-08
1.03779e-08
1.2877e-07
-7.42722e-09
-1.31721e-07
-2.02776e-09
1.5335e-07
5.45378e-09
-1.56776e-07
-1.81932e-08
1.74297e-07
2.28749e-08
-1.78979e-07
-3.70757e-08
1.68607e-07
4.16558e-08
-1.73187e-07
-5.54138e-08
1.45024e-07
5.9238e-08
-1.48848e-07
-7.20274e-08
1.17008e-07
7.70693e-08
-1.2205e-07
-8.57105e-08
5.49951e-08
8.66742e-08
-5.59587e-08
-8.84396e-08
1.77693e-08
8.89088e-08
-1.82385e-08
-9.27898e-08
-1.02107e-08
9.35152e-08
9.48536e-09
-9.28516e-08
-4.52132e-08
9.17595e-08
4.63053e-08
-8.63692e-08
-6.9395e-08
8.41366e-08
7.16277e-08
-7.66485e-08
-8.07085e-08
7.41026e-08
8.32544e-08
-6.63398e-08
-8.35963e-08
6.38387e-08
8.60974e-08
-5.64107e-08
-8.1897e-08
5.40608e-08
8.42469e-08
-4.71682e-08
-7.78339e-08
4.50091e-08
7.9993e-08
-3.87173e-08
-7.26624e-08
3.67546e-08
7.46251e-08
-3.1037e-08
-6.71509e-08
2.9251e-08
6.89368e-08
-2.40308e-08
-6.16411e-08
2.23914e-08
6.32805e-08
-1.7566e-08
-5.63686e-08
1.60402e-08
5.78943e-08
-1.15288e-08
-5.13175e-08
1.00983e-08
5.2748e-08
-5.87968e-09
-4.65954e-08
4.55039e-09
4.79247e-08
-7.50034e-10
-4.21141e-08
-3.48376e-10
4.32126e-08
1.91902e-09
9.78928e-08
-9.57223e-08
-4.08946e-09
8.67081e-09
-7.77917e-08
-1.02902e-08
7.94111e-08
1.51893e-08
-7.69979e-08
-1.68713e-08
7.86798e-08
2.22526e-08
-7.21365e-08
-2.41341e-08
7.4018e-08
2.92754e-08
-3.19214e-08
-3.03118e-08
3.29577e-08
3.06591e-08
2.76334e-08
-3.00461e-08
-2.82464e-08
2.71448e-08
6.7049e-08
-2.5905e-08
-6.82888e-08
2.10504e-08
1.04723e-07
-1.90303e-08
-1.06743e-07
1.12909e-08
1.406e-07
-8.31803e-09
-1.43572e-07
-8.53654e-10
1.66859e-07
4.13232e-09
-1.70137e-07
-1.71913e-08
1.93454e-07
2.21875e-08
-1.9845e-07
-3.69033e-08
1.8718e-07
4.16513e-08
-1.91928e-07
-5.6094e-08
1.60063e-07
5.97498e-08
-1.63718e-07
-7.39299e-08
1.38789e-07
8.00009e-08
-1.4486e-07
-9.00313e-08
5.79217e-08
9.03665e-08
-5.82569e-08
-9.02024e-08
1.91026e-08
9.02364e-08
-1.91366e-08
-9.7277e-08
-6.52447e-09
9.8553e-08
5.2485e-09
-9.84365e-08
-4.96694e-08
9.72778e-08
5.08281e-08
-9.1103e-08
-7.88042e-08
8.85245e-08
8.13827e-08
-8.0039e-08
-9.12835e-08
7.7221e-08
9.41015e-08
-6.87911e-08
-9.38632e-08
6.6112e-08
9.65423e-08
-5.82222e-08
-9.14861e-08
5.57434e-08
9.39648e-08
-4.85191e-08
-8.66018e-08
4.62709e-08
8.885e-08
-3.97635e-08
-8.05949e-08
3.77472e-08
8.26112e-08
-3.19106e-08
-7.43397e-08
3.00976e-08
7.61527e-08
-2.48211e-08
-6.82277e-08
2.31681e-08
6.98806e-08
-1.82985e-08
-6.25122e-08
1.67519e-08
6.40588e-08
-1.21304e-08
-5.71132e-08
1.06424e-08
5.86012e-08
-6.19371e-09
-5.18771e-08
4.80706e-09
5.32638e-08
-1.2306e-09
-4.57413e-08
2.83187e-10
4.66887e-08
1.95111e-09
1.06726e-07
-1.04493e-07
-4.18343e-09
8.6376e-09
-8.42511e-08
-1.0244e-08
8.58575e-08
1.51328e-08
-8.37341e-08
-1.682e-08
8.54213e-08
2.22789e-08
-7.97941e-08
-2.42496e-08
8.17648e-08
2.98081e-08
-3.62112e-08
-3.09437e-08
3.73469e-08
3.13036e-08
3.0144e-08
-3.06484e-08
-3.07992e-08
2.77745e-08
7.1936e-08
-2.65845e-08
-7.3126e-08
2.19378e-08
1.12707e-07
-1.99855e-08
-1.14659e-07
1.2281e-08
1.52561e-07
-9.25275e-09
-1.55589e-07
4.84427e-10
1.79647e-07
2.5664e-09
-1.82698e-07
-1.60083e-08
2.14115e-07
2.15039e-08
-2.1961e-07
-3.67207e-08
2.06422e-07
4.16329e-08
-2.11334e-07
-5.66766e-08
1.74693e-07
6.04555e-08
-1.78472e-07
-7.61473e-08
1.64087e-07
8.27365e-08
-1.70676e-07
-9.47468e-08
5.91427e-08
9.54519e-08
-5.98478e-08
-9.00808e-08
1.84884e-08
8.98595e-08
-1.82671e-08
-1.0323e-07
-5.59043e-10
1.05018e-07
-1.22925e-09
-1.05232e-07
-5.445e-08
1.03978e-07
5.57047e-08
-9.6587e-08
-8.98212e-08
9.34961e-08
9.29121e-08
-8.36583e-08
-1.0303e-07
8.05136e-08
1.06174e-07
-7.13495e-08
-1.04863e-07
6.84805e-08
1.07732e-07
-6.00884e-08
-1.01612e-07
5.7466e-08
1.04234e-07
-4.98691e-08
-9.57393e-08
4.75221e-08
9.80863e-08
-4.07852e-08
-8.87387e-08
3.87168e-08
9.08071e-08
-3.27859e-08
-8.16135e-08
3.09617e-08
8.34377e-08
-2.5701e-08
-7.48222e-08
2.40677e-08
7.64555e-08
-1.9288e-08
-6.86739e-08
1.77755e-08
7.01865e-08
-1.32266e-08
-6.31405e-08
1.17313e-08
6.46358e-08
-6.97389e-09
-5.80354e-08
5.30813e-09
5.97011e-08
-1.53939e-10
-5.05876e-08
-1.22914e-09
5.19706e-08
1.9899e-09
1.15833e-07
-1.13528e-07
-4.29551e-09
8.60009e-09
-9.06536e-08
-1.01902e-08
9.22437e-08
1.50693e-08
-9.04894e-08
-1.67605e-08
9.21806e-08
2.22889e-08
-8.78209e-08
-2.43572e-08
8.98891e-08
3.04013e-08
-4.09213e-08
-3.16522e-08
4.21722e-08
3.20048e-08
3.2848e-08
-3.12901e-08
-3.35627e-08
2.84415e-08
7.66123e-08
-2.73093e-08
-7.77445e-08
2.29018e-08
1.20395e-07
-2.10346e-08
-1.22262e-07
1.33497e-08
1.64819e-07
-1.02103e-08
-1.67958e-07
1.9907e-09
1.91358e-07
6.94885e-10
-1.94044e-07
-1.46286e-08
2.3717e-07
2.09069e-08
-2.43448e-07
-3.65534e-08
2.26301e-07
4.16143e-08
-2.31362e-07
-5.71154e-08
1.90756e-07
6.15722e-08
-1.95213e-07
-7.97093e-08
1.89143e-07
8.45807e-08
-1.94015e-07
-1.02193e-07
6.42146e-08
1.03831e-07
-6.58527e-08
-8.90858e-08
1.93598e-08
8.97234e-08
-1.99974e-08
-1.09877e-07
7.02985e-09
1.12251e-07
-9.40442e-09
-1.13435e-07
-5.94553e-08
1.12266e-07
6.0625e-08
-1.02947e-07
-1.0327e-07
9.9046e-08
1.07171e-07
-8.73431e-08
-1.1615e-07
8.38343e-08
1.19659e-07
-7.39611e-08
-1.16621e-07
7.09079e-08
1.19674e-07
-6.19789e-08
-1.1234e-07
5.91924e-08
1.15126e-07
-5.11622e-08
-1.05293e-07
4.87009e-08
1.07754e-07
-4.17086e-08
-9.70912e-08
3.95871e-08
9.92128e-08
-3.35812e-08
-8.891e-08
3.17598e-08
9.07314e-08
-2.65886e-08
-8.1281e-08
2.50115e-08
8.2858e-08
-2.04961e-08
-7.4565e-08
1.91051e-08
7.5956e-08
-1.5075e-08
-6.88271e-08
1.38156e-08
7.00865e-08
-1.01086e-08
-6.41317e-08
8.91948e-09
6.53208e-08
-5.1636e-09
-5.64504e-08
3.83364e-09
5.77803e-08
2.03675e-09
1.25269e-07
-1.22876e-07
-4.4294e-09
8.55878e-09
-9.6985e-08
-1.01287e-08
9.85549e-08
1.50006e-08
-9.72583e-08
-1.66943e-08
9.8952e-08
2.22793e-08
-9.62501e-08
-2.44535e-08
9.84243e-08
3.10646e-08
-4.61198e-08
-3.24498e-08
4.7505e-08
3.27678e-08
3.5822e-08
-3.19709e-08
-3.6619e-08
2.91454e-08
8.10431e-08
-2.80809e-08
-8.21076e-08
2.39442e-08
1.27708e-07
-2.2187e-08
-1.29465e-07
1.45058e-08
1.77646e-07
-1.11629e-08
-1.80989e-07
3.67848e-09
2.01233e-07
-1.63505e-09
-2.03277e-07
-1.30971e-08
2.63877e-07
2.05248e-08
-2.71305e-07
-3.64383e-08
2.46741e-07
4.16277e-08
-2.5193e-07
-5.84524e-08
2.08186e-07
6.17894e-08
-2.11523e-07
-7.92619e-08
2.06001e-07
8.56669e-08
-2.12406e-07
-1.12331e-07
6.69094e-08
1.11214e-07
-6.57926e-08
-8.9666e-08
1.58245e-08
8.59581e-08
-1.21166e-08
-1.13018e-07
2.22545e-08
1.20216e-07
-2.94528e-08
-1.25816e-07
-6.39673e-08
1.24486e-07
6.52969e-08
-1.1036e-07
-1.20789e-07
1.04989e-07
1.2616e-07
-9.07471e-08
-1.307e-07
8.69285e-08
1.34519e-07
-7.66094e-08
-1.29077e-07
7.34035e-08
1.32283e-07
-6.38877e-08
-1.23771e-07
6.09006e-08
1.26758e-07
-5.23337e-08
-1.15337e-07
4.9733e-08
1.17938e-07
-4.24387e-08
-1.05664e-07
4.02576e-08
1.07845e-07
-3.41788e-08
-9.61821e-08
3.23667e-08
9.79941e-08
-2.73203e-08
-8.74803e-08
2.58163e-08
8.89842e-08
-2.16363e-08
-7.98958e-08
2.03983e-08
8.11338e-08
-1.70114e-08
-7.34166e-08
1.60352e-08
7.43928e-08
-1.34963e-08
-6.80494e-08
1.28104e-08
6.87352e-08
-1.09009e-08
-6.08673e-08
1.01915e-08
6.15768e-08
2.09401e-09
1.35095e-07
-1.32598e-07
-4.59126e-09
8.5109e-09
-1.03228e-07
-1.00558e-08
1.04773e-07
1.49235e-08
-1.04034e-07
-1.66175e-08
1.05728e-07
2.22378e-08
-1.05114e-07
-2.45253e-08
1.07401e-07
3.1798e-08
-5.18876e-08
-3.33401e-08
5.34297e-08
3.3586e-08
3.91661e-08
-3.26777e-08
-4.00743e-08
2.98744e-08
8.51835e-08
-2.88914e-08
-8.61666e-08
2.50558e-08
1.34529e-07
-2.34451e-08
-1.3614e-07
1.5763e-08
1.91485e-07
-1.20689e-08
-1.95179e-07
5.57099e-09
2.08047e-07
-4.52841e-09
-2.0909e-07
-1.15208e-08
2.95867e-07
2.0592e-08
-3.04938e-07
-3.64474e-08
2.67662e-07
4.17053e-08
-2.7292e-07
-6.18558e-08
2.15547e-07
6.14086e-08
-2.151e-07
-7.34851e-08
2.56618e-07
9.82793e-08
-2.81413e-07
-1.26534e-07
6.28162e-08
1.26213e-07
-6.24951e-08
-9.15824e-08
9.6408e-09
9.74056e-08
-1.5464e-08
-1.35009e-07
5.85383e-08
1.46627e-07
-7.01559e-08
-1.45502e-07
-7.20701e-08
1.41472e-07
7.60994e-08
-1.16967e-07
-1.45564e-07
1.09344e-07
1.53188e-07
-9.3067e-08
-1.46016e-07
8.93676e-08
1.49716e-07
-7.93927e-08
-1.42069e-07
7.60793e-08
1.45382e-07
-6.58136e-08
-1.36099e-07
6.2551e-08
1.39361e-07
-5.32722e-08
-1.2599e-07
5.04949e-08
1.28768e-07
-4.28338e-08
-1.14488e-07
4.05838e-08
1.16738e-07
-3.44227e-08
-1.03416e-07
3.26193e-08
1.05219e-07
-2.76884e-08
-9.33941e-08
2.62485e-08
9.4834e-08
-2.23406e-08
-8.46573e-08
2.12172e-08
8.57807e-08
-1.82591e-08
-7.70307e-08
1.74478e-08
7.7842e-08
-1.54714e-08
-7.04026e-08
1.49871e-08
7.0887e-08
-1.38525e-08
-6.30444e-08
1.34901e-08
6.34068e-08
2.16251e-09
1.45388e-07
-1.42766e-07
-4.78444e-09
8.45554e-09
-1.09363e-07
-9.96964e-09
1.10877e-07
1.48385e-08
-1.10808e-07
-1.65304e-08
1.12499e-07
2.21559e-08
-1.14441e-07
-2.4563e-08
1.16848e-07
3.26101e-08
-5.83223e-08
-3.43361e-08
6.00483e-08
3.44603e-08
4.30087e-08
-3.34035e-08
-4.40655e-08
3.06236e-08
8.89716e-08
-2.97414e-08
-8.98538e-08
2.62271e-08
1.40692e-07
-2.48163e-08
-1.42103e-07
1.7158e-08
2.0705e-07
-1.28764e-08
-2.11332e-07
7.68276e-09
2.10065e-07
-8.22666e-09
-2.09521e-07
-1.01701e-08
3.35405e-07
2.15732e-08
-3.46808e-07
-3.71627e-08
2.87694e-07
4.09619e-08
-2.91493e-07
-6.91792e-08
2.12207e-07
6.75158e-08
-2.10544e-07
-9.47477e-08
3.83818e-07
1.38591e-07
-4.27662e-07
-1.53756e-07
5.61828e-08
1.47291e-07
-4.97183e-08
-1.13464e-07
5.1965e-08
1.30327e-07
-6.88287e-08
-1.78868e-07
1.03323e-07
1.84224e-07
-1.08679e-07
-1.6671e-07
-9.81048e-08
1.55545e-07
1.0927e-07
-1.196e-07
-1.78302e-07
1.11024e-07
1.86878e-07
-9.60537e-08
-1.60065e-07
9.27733e-08
1.63346e-07
-8.30318e-08
-1.55599e-07
7.94212e-08
1.59209e-07
-6.77879e-08
-1.49726e-07
6.40959e-08
1.53418e-07
-5.38288e-08
-1.37423e-07
5.0828e-08
1.40424e-07
-4.27297e-08
-1.236e-07
4.04035e-08
1.25927e-07
-3.41617e-08
-1.10615e-07
3.23688e-08
1.12408e-07
-2.75341e-08
-9.90805e-08
2.61395e-08
1.00475e-07
-2.2391e-08
-8.90506e-08
2.13228e-08
9.01189e-08
-1.85275e-08
-8.01741e-08
1.77638e-08
8.09378e-08
-1.58904e-08
-7.22863e-08
1.54216e-08
7.27551e-08
-1.43455e-08
-6.43583e-08
1.4058e-08
6.46458e-08
2.2451e-09
1.56244e-07
-1.53471e-07
-5.01743e-09
8.39344e-09
-1.15367e-07
-9.87074e-09
1.16844e-07
1.47503e-08
-1.1757e-07
-1.64377e-08
1.19257e-07
2.20287e-08
-1.24256e-07
-2.45606e-08
1.26788e-07
3.35194e-08
-6.55412e-08
-3.54627e-08
6.74845e-08
3.54001e-08
4.75135e-08
-3.41473e-08
-4.87662e-08
3.13952e-08
9.23174e-08
-3.06425e-08
-9.30701e-08
2.74461e-08
1.45949e-07
-2.6312e-08
-1.47083e-07
1.87676e-08
2.25481e-07
-1.35172e-08
-2.30732e-07
1.00272e-08
2.0447e-07
-1.30975e-08
-2.01399e-07
-9.82621e-09
3.85449e-07
2.43152e-08
-3.99938e-07
-3.97557e-08
2.91828e-07
3.39898e-08
-2.86062e-07
-8.83523e-08
1.90283e-07
7.19036e-08
-1.73834e-07
-1.00095e-07
5.86325e-07
1.47101e-07
-6.33331e-07
-1.85869e-07
1.32638e-08
1.69248e-07
3.35679e-09
-1.79479e-07
1.37092e-07
2.06183e-07
-1.63796e-07
-2.29965e-07
1.02585e-07
2.22532e-07
-9.51517e-08
-1.80337e-07
-1.53211e-07
1.62848e-07
1.707e-07
-1.23019e-07
-2.12807e-07
1.14158e-07
2.21668e-07
-1.02971e-07
-1.72364e-07
1.00488e-07
1.74848e-07
-8.91005e-08
-1.71523e-07
8.43435e-08
1.7628e-07
-6.9733e-08
-1.65418e-07
6.53679e-08
1.69783e-07
-5.37459e-08
-1.49831e-07
5.04679e-08
1.53109e-07
-4.18913e-08
-1.33e-07
3.95059e-08
1.35385e-07
-3.32603e-08
-1.17753e-07
3.14997e-08
1.19514e-07
-2.67904e-08
-1.04602e-07
2.5434e-08
1.05958e-07
-2.17622e-08
-9.33004e-08
2.07016e-08
9.4361e-08
-1.78645e-08
-8.326e-08
1.70642e-08
8.40603e-08
-1.50256e-08
-7.42225e-08
1.45006e-08
7.47474e-08
-1.34379e-08
-6.53976e-08
1.33019e-08
6.55337e-08
2.34413e-09
1.67777e-07
-1.64823e-07
-5.29865e-09
8.32182e-09
-1.21213e-07
-9.75546e-09
1.22647e-07
1.46589e-08
-1.2431e-07
-1.63391e-08
1.2599e-07
2.18411e-08
-1.34575e-07
-2.45002e-08
1.37234e-07
3.45351e-08
-7.36875e-08
-3.67363e-08
7.58887e-08
3.64025e-08
5.28876e-08
-3.48939e-08
-5.43963e-08
3.21811e-08
9.50855e-08
-3.16011e-08
-9.56655e-08
2.86765e-08
1.49948e-07
-2.79273e-08
-1.50697e-07
2.07249e-08
2.48633e-07
-1.38701e-08
-2.55488e-07
1.26272e-08
1.86707e-07
-1.97465e-08
-1.79587e-07
-1.0285e-08
4.48353e-07
2.79558e-08
-4.66023e-07
-3.46561e-08
2.62591e-07
3.55436e-08
-2.63478e-07
-9.01583e-08
9.94271e-08
6.97696e-08
-7.90383e-08
-1.11527e-07
6.89068e-07
1.03334e-07
-6.80875e-07
-1.78867e-07
-4.58208e-08
1.73812e-07
5.08761e-08
-2.4104e-07
2.37728e-07
2.60891e-07
-2.57579e-07
-2.34912e-07
6.12166e-08
2.20298e-07
-4.66027e-08
-1.80178e-07
-2.253e-07
1.64293e-07
2.41186e-07
-1.31064e-07
-2.47463e-07