/*--------------------------------*- C++ -*----------------------------------*\
| =========                 |                                                 |
| \\      /  F ield         | OpenFOAM: The Open Source CFD Toolbox           |
|  \\    /   O peration     | Version:  2.4.0                                 |
|   \\  /    A nd           | Web:      www.OpenFOAM.org                      |
|    \\/     M anipulation  |                                                 |
\*---------------------------------------------------------------------------*/
FoamFile
{
    version     2.0;
    format      ascii;
    class       volScalarField;
    location    "0.167";
    object      alpha.water;
}
// * * * * * * * * * * * * * * * * * * * * * * * * * * * * * * * * * * * * * //

dimensions      [0 0 0 0 0 0 0];

internalField   nonuniform List<scalar> 
3600
(
1
1
1
1
1
1
1
1
1
1
1
1
1
1
1
1
0.997969
0.994276
0.994276
0.996821
0.999873
0.999873
0.993481
0.985449
0.985418
0.985417
0.985399
0.985371
0.985351
0.985332
1
1
1
1
1
1
1
1
1
1
1
1
1
1
1
1
0.998323
0.994996
0.998072
0.999841
0.999873
0.999571
0.999015
0.999313
0.999183
0.997319
0.996994
0.997861
0.997569
0.99803
1
1
1
1
1
1
1
1
1
1
1
1
1
1
1
1
0.999063
0.997257
0.998637
0.999873
0.999873
0.999361
0.998245
0.998637
0.999581
0.999983
0.999993
0.999993
0.999993
0.999994
1
1
1
1
1
1
1
1
1
1
1
1
1
1
1
1
0.999803
0.99913
0.999588
0.999645
0.997338
0.995087
0.995087
0.995087
0.995093
0.998031
0.999129
0.999993
0.999967
0.999805
1
1
1
1
1
1
1
1
1
1
1
1
1
1
1
1
1
0.999897
0.999845
0.999169
0.99509
0.995089
0.995149
0.995096
0.995125
0.995174
0.995228
0.999431
0.999913
0.999688
1
1
1
1
1
1
1
1
1
1
1
1
1
1
1
1
1
0.999976
0.999833
0.999727
0.998193
0.997866
0.999457
0.998961
0.998055
0.997199
0.995254
0.996083
0.999847
0.999688
1
1
1
1
1
1
1
1
1
1
1
1
1
1
1
1
1
1
0.999908
0.999941
0.99998
0.999917
0.999824
0.999693
0.999964
0.999966
0.997341
0.996756
0.999677
0.999705
1
1
1
1
1
1
1
1
1
1
1
1
1
1
1
1
1
1
1
0.999999
0.999998
0.999656
0.998017
0.998016
0.998926
0.999968
0.999982
0.999982
0.999848
0.999705
1
1
1
1
1
1
1
1
1
1
1
1
1
1
1
1
1
1
1
0.998744
0.99829
0.998024
0.99802
0.998016
0.99884
0.999943
0.999982
0.999982
0.999917
0.999705
1
1
1
1
1
1
1
1
1
1
1
1
1
1
1
1
1
1
1
0.999202
0.998024
0.998024
0.9985
0.999974
0.999972
0.999923
0.999958
0.999982
0.999862
0.999705
1
1
1
1
1
1
1
1
1
1
1
1
1
1
1
1
1
1
1
0.999991
0.999414
0.999772
1
1
0.99997
0.999923
0.999947
0.999983
0.999902
0.999765
1
1
1
1
1
1
1
1
1
1
1
1
1
1
1
1
1
1
1
1
1
1
1
1
0.99996
0.999924
0.999975
1
0.999912
1
1
1
1
1
1
1
1
1
1
1
1
1
1
1
1
1
1
1
1
1
1
1
1
1
1
1
1
1
0.999891
0.999987
1
1
1
1
1
1
1
1
1
1
1
1
1
1
1
1
1
1
1
1
1
1
1
1
0.999992
0.999998
1
1
0.999953
1
1
1
1
1
1
1
1
1
1
1
1
1
1
1
1
1
1
1
1
1
1
1
1
1
0.999938
0.999831
0.99989
0.999994
1
1
1
1
1
1
1
1
1
1
1
1
1
1
1
1
1
1
1
1
1
1
1
1
1
1
1
0.999829
0.999817
0.999818
0.999934
1
1
1
1
1
1
1
1
1
1
1
1
1
1
1
1
1
1
1
1
1
1
0.999999
1
1
1
0.99999
0.999838
0.999811
0.999882
0.999999
1
1
1
1
1
1
1
1
1
1
1
1
1
1
1
1
1
1
1
1
1
0.999993
0.999961
0.999963
0.99999
0.999996
0.999986
0.999935
0.999981
1
1
1
1
1
1
1
1
1
1
1
1
1
1
1
1
1
1
1
1
1
1
0.999986
0.99992
0.99992
0.99992
0.999979
0.999993
0.999976
0.999947
1
1
1
1
1
1
1
1
1
1
1
1
1
1
1
1
0.996126
0.999868
1
1
1
0.999453
0.999993
0.999994
0.999944
0.999877
0.999877
0.999877
0.999877
0.999877
0.99988
1
1
1
1
1
1
1
1
1
1
1
1
1
1
0.99919
0.992378
0.997476
0.999999
0.99963
0.995495
0.988972
0.99972
1
1
1
0.999983
0.99998
0.99999
0.999923
0.99989
1
1
1
1
1
1
1
1
1
1
0.999957
0.976204
0.996897
1
0.997527
0.992377
0.998484
0.999997
0.999957
0.988858
0.988858
0.994378
0.999961
1
1
1
0.99999
0.999999
0.999999
0.999995
1
1
1
1
1
1
1
1
1
1
0.980515
0.96453
0.997237
0.999999
0.995844
0.992378
0.998002
0.999996
0.999996
0.989752
0.988858
0.995096
0.999995
0.999999
0.999999
0.999902
0.999881
0.999926
0.999993
1
1
1
1
1
1
0.999999
1
0.984669
0.991594
0.997208
0.967713
0.968076
0.999717
0.99985
0.992389
0.992383
0.999303
0.999996
0.999996
0.998275
0.988859
0.999623
0.999999
0.999999
0.999867
0.999685
0.999685
0.999743
0.999986
0.999994
1
1
1
1
0.999989
0.8673
0.81511
0.863295
0.998486
0.993777
0.98064
0.995884
0.999746
0.998938
0.996461
0.992389
0.995679
0.999996
0.998387
0.992831
0.992586
0.999998
0.999998
0.999985
0.999693
0.999692
0.9998
0.999967
0.999991
0.99998
1
1
1
0.999989
0.847331
0.252584
0.479669
0.875494
0.998481
0.998485
0.998287
0.994345
0.993493
0.999585
0.999588
0.99258
0.99263
0.999996
0.994376
0.994949
0.999892
0.999998
0.999967
0.999815
0.999708
0.999991
0.999991
0.999991
0.999991
0.99999
1
1
0.999999
0.920248
0.179957
0.0280683
0.353174
0.867488
0.98489
0.998469
0.998467
0.996154
0.991449
0.999578
0.999602
0.997844
0.992689
0.995533
0.997766
0.999679
0.999991
0.999998
0.99999
0.999844
0.999863
0.999991
0.999992
0.999992
0.999992
0.999992
1
1
0.944637
0.218592
8.17998e-05
0.0150763
0.233641
0.686349
0.90662
0.99223
0.998416
0.994902
0.994918
0.999613
0.999614
0.998364
0.995034
0.998229
0.999979
0.999983
0.999989
0.999993
0.999989
0.999984
0.99998
0.999973
0.999692
0.998589
0.998732
0.999992
1
0.999998
0.334261
6.47794e-05
4.05284e-05
0.000788361
0.0488579
0.364452
0.772782
0.968021
0.998392
0.993259
0.999613
0.999614
0.999613
0.999704
0.999951
0.999971
0.999974
0.999979
0.960597
0.82434
0.760268
0.739117
0.670588
0.606985
0.584692
0.554768
0.531944
0.510944
1
0.792549
0.0142791
5.51149e-06
4.75995e-06
4.62145e-06
4.25275e-05
0.0379136
0.343133
0.823317
0.996929
0.913482
0.999579
0.999589
0.990206
0.92526
0.877387
0.918589
0.5333
0.355575
0.153029
0.161141
0.112432
0.0512404
0.0350181
0.0324758
0.0131589
0.00120369
1.19342e-08
1.18844e-08
0.985306
0.985268
0.98521
0.98521
0.98521
0.985246
0.987547
0.998423
0.999877
0.999877
0.997206
0.994377
0.994377
0.997501
1
1
1
1
1
1
1
1
1
1
1
1
1
1
1
1
0.99822
0.998465
0.998314
0.99713
0.999096
0.999444
0.999444
0.999239
0.999444
0.999865
0.999812
0.998531
0.995066
0.99796
1
1
1
1
1
1
1
1
1
1
1
1
1
1
1
1
0.999994
0.999994
0.999994
0.999994
0.99997
0.999103
0.998041
0.997506
0.998169
0.99986
0.999853
0.999071
0.997403
0.998815
0.999996
1
1
1
1
1
1
1
1
1
1
1
1
1
1
1
0.999993
0.999994
0.999994
0.998815
0.996919
0.995017
0.995017
0.995017
0.995018
0.995796
0.999229
0.99971
0.999184
0.999722
1
1
1
1
1
1
1
1
1
1
1
1
1
1
1
1
0.999953
0.999871
0.998561
0.99515
0.995092
0.995042
0.995256
0.995837
0.995035
0.995134
0.999302
0.999865
0.999875
1
1
1
1
1
1
1
1
1
1
1
1
1
1
1
1
1
0.999759
0.999416
0.995237
0.995179
0.998079
0.99896
0.999682
0.999691
0.999007
0.999182
0.999836
0.99984
0.999958
1
1
1
1
1
1
1
1
1
1
1
1
1
1
1
1
1
0.999634
0.999347
0.997864
0.998949
0.999997
0.999943
0.999476
0.99948
0.999927
0.999946
0.999948
0.999858
0.999997
1
1
1
1
1
1
1
1
1
1
1
1
1
1
1
1
1
0.999633
1
1
1
0.999999
0.998971
0.997988
0.997973
0.998988
0.999873
0.99999
0.999991
1
1
1
1
1
1
1
1
1
1
1
1
1
1
1
1
1
1
0.99974
1
1
0.999999
0.999998
0.999398
0.998473
0.99796
0.997957
0.997958
0.998559
1
1
1
1
1
1
1
1
1
1
1
1
1
1
1
1
1
1
1
0.999864
1
0.999999
0.999968
0.99995
0.999999
1
0.999713
0.998136
0.997971
0.999134
1
1
1
1
1
1
1
1
1
1
1
1
1
1
1
1
1
1
1
0.999978
1
0.999999
0.999965
0.999949
0.999965
1
1
1
0.999706
0.999992
1
1
1
1
1
1
1
1
1
1
1
1
1
1
1
1
1
1
1
1
0.999924
1
0.999997
0.999971
0.999972
0.999999
1
1
1
1
1
1
1
1
1
1
1
1
1
1
1
1
1
1
1
1
1
1
1
1
0.99989
1
1
1
1
1
1
1
1
1
1
1
1
1
1
1
1
1
1
1
1
1
1
1
1
1
1
1
1
1
0.999937
1
0.999837
0.999985
1
1
1
1
1
1
1
1
1
1
1
1
1
1
1
1
1
1
1
1
1
1
1
1
1
0.999986
0.999968
0.999853
0.999756
0.999867
1
1
1
1
1
1
1
1
1
1
1
1
1
1
1
1
1
1
1
1
1
1
1
1
1
0.999904
0.999794
0.999794
0.999847
0.999995
0.999995
0.999997
1
1
1
1
1
1
1
1
1
1
1
1
1
1
1
1
1
1
1
1
1
1
1
0.99999
0.9999
0.999878
0.999999
0.999986
0.999947
0.999956
0.999999
1
1
1
1
1
1
1
1
1
1
1
1
1
1
1
1
1
1
1
1
1
1
1
1
0.999999
0.999999
0.999993
0.999935
0.999936
0.999979
1
0.999914
1
1
1
1
1
1
1
1
1
1
1
1
1
1
1
1
1
1
1
1
1
1
0.999988
0.999993
0.999912
0.999935
0.999989
0.999984
0.99719
0.989708
1
1
1
1
1
1
1
1
1
1
1
1
1
1
1
1
1
1
1
1
0.999931
0.99989
0.999868
0.999868
0.999868
0.99997
0.999994
0.999273
0.987355
0.981723
1
1
1
1
1
1
1
1
1
1
1
1
1
1
1
1
1
1
1
1
0.999891
0.999936
0.999986
0.999984
1
1
1
0.999327
0.985208
0.981618
1
1
1
1
1
1
1
1
1
1
1
1
1
1
1
1
1
1
1
1
0.999992
1
1
0.999989
1
1
0.999999
0.995646
0.9816
0.98159
0.988262
0.991985
0.999616
1
1
1
1
1
1
1
1
1
1
1
1
1
1
1
1
1
0.999999
0.999999
1
1
0.999998
0.999999
0.999999
0.999028
0.995438
0.981597
0.98159
0.99159
0.999838
1
0.999908
0.999994
1
0.999975
0.998445
1
1
1
1
1
1
1
1
1
1
1
0.999999
0.999973
0.999947
0.99993
0.999841
0.999999
0.999999
0.999999
0.999999
0.993814
0.995271
0.999014
0.999822
0.999835
0.99276
0.999494
1
0.999852
0.990624
0.999812
0.99612
0.996907
1
1
1
1
1
1
1
1
0.99999
0.99999
0.999878
0.999778
0.999778
0.999883
0.999999
0.99999
0.999999
0.99479
0.994605
0.999083
0.999814
0.998518
0.989326
0.99826
0.999998
0.990692
0.99061
0.997909
0.99805
0.975023
0.988503
0.925335
0.879236
0.999988
1
1
1
1
0.999992
0.999992
0.999988
0.99997
0.999964
0.999856
0.999919
0.999978
0.999999
0.998353
0.994462
0.994472
0.999811
0.989702
0.989959
0.996683
0.999991
0.994031
0.995886
0.997267
0.99871
0.99871
0.92964
0.597457
0.304205
0.839752
0.999988
1
1
1
0.999992
0.999992
0.999992
0.999992
0.99999
0.999867
0.999866
0.999977
0.999999
0.99998
0.998798
0.994462
0.997393
0.989598
0.998584
0.997779
0.99786
0.998462
0.998965
0.999082
0.996079
0.998702
0.956234
0.505787
0.120395
0.190843
0.909893
0.999999
1
1
0.999992
0.998976
0.997684
0.998151
0.998797
0.999941
0.999944
0.999963
0.999985
0.999959
0.999951
0.997063
0.993694
0.99336
0.998625
0.999235
0.997968
0.998191
0.999076
0.999184
0.996019
0.986225
0.90236
0.451654
0.0565407
9.45609e-05
0.206328
0.9442
1
1
0.508293
0.505452
0.524204
0.5456
0.575751
0.655068
0.722159
0.752412
0.836431
0.956469
0.981916
0.998644
0.998711
0.998961
0.999222
0.999235
0.999246
0.999262
0.999265
0.999262
0.921323
0.792395
0.558636
0.174881
0.00453005
3.98105e-05
7.76549e-05
0.333383
0.999998
1
1.20067e-08
3.53545e-05
0.00046008
0.00411346
0.0212943
0.00760806
0.0469332
0.117171
0.134072
0.214242
0.286443
0.593512
0.873043
0.904381
0.93974
0.990105
0.99921
0.893809
0.958702
0.929213
0.449846
0.170408
0.0335842
0.000127443
2.23259e-05
5.38724e-06
5.45473e-06
0.0130007
0.787663
1
0.969582
0.0086556
5.48699e-06
2.84294e-06
1.19309e-06
5.00432e-07
3.30367e-06
5.12922e-05
0.0373125
0.4277
0.926929
0.481522
0.962611
0.979822
0.665176
0.285761
0.0477177
0.0952049
7.14553e-06
5.87096e-06
5.95332e-06
3.20525e-06
6.11285e-07
4.6921e-07
7.85624e-07
3.10201e-05
4.93737e-06
1.04467e-07
1.20801e-08
1.17381e-08
0.788138
0.0117037
2.52863e-06
4.61661e-07
9.93365e-08
6.926e-08
2.74339e-07
2.26548e-06
0.00209822
0.0926761
0.495724
0.0557222
0.389372
0.58658
0.101142
0.0411139
6.49475e-05
6.67537e-05
0.000114579
8.24609e-05
1.20506e-05
5.46018e-07
4.69259e-07
4.68712e-07
3.07478e-07
1.7415e-06
3.88613e-07
1.36691e-08
1.19061e-08
1.16713e-08
0.0446243
0.00266838
2.82425e-07
1.09358e-07
7.50484e-08
7.39256e-09
1.78359e-08
1.74009e-07
7.74471e-07
4.8474e-06
0.00765243
7.55712e-06
7.33944e-06
0.066517
1.9845e-05
1.97846e-05
6.39699e-05
0.000154565
0.000160491
0.000160475
6.30995e-07
4.52854e-07
5.99908e-07
1.05877e-06
1.51067e-07
2.73918e-07
2.52368e-07
1.51884e-07
1.164e-08
1.16748e-08
5.04584e-07
4.49408e-07
4.49908e-07
2.30738e-06
7.88953e-08
7.21917e-10
1.40911e-09
7.27666e-09
1.01967e-06
1.99798e-05
3.96858e-06
7.41607e-06
7.22586e-06
7.33956e-06
3.5902e-05
0.000112174
0.000152838
0.000160512
0.000160467
0.000160427
3.51569e-05
4.56441e-07
6.06972e-06
9.08844e-07
5.11542e-08
1.69472e-07
4.44205e-07
1.55315e-07
1.16553e-08
1.16762e-08
1.64479e-06
5.84774e-06
4.50664e-07
3.51789e-09
1.56701e-08
2.68646e-10
2.83323e-10
6.52297e-10
1.48849e-08
4.47736e-08
2.271e-07
1.1668e-05
6.97794e-06
8.10174e-06
8.44508e-05
0.000157285
0.000160562
0.000160562
0.000160562
0.000160393
9.85187e-05
4.51945e-07
8.22433e-06
6.12482e-07
4.478e-08
3.34173e-07
3.31821e-07
1.81078e-08
1.16374e-08
1.17967e-08
8.45066e-06
8.45066e-06
7.69814e-07
2.77007e-12
1.49705e-11
1.20477e-10
1.84721e-10
2.08452e-10
1.24942e-09
7.49898e-07
5.49819e-06
1.1681e-05
6.42692e-06
2.09335e-06
1.66401e-07
1.26025e-06
0.000125208
0.000160562
0.000160355
0.000129699
1.98765e-06
5.18141e-07
1.87145e-06
3.84632e-08
4.09533e-08
1.39181e-07
1.33034e-08
1.30034e-08
1.27569e-08
1.32749e-08
8.45066e-06
8.4423e-06
2.82226e-12
2.74957e-12
2.03356e-11
1.13389e-10
2.02054e-10
1.58853e-10
1.31349e-08
4.50714e-06
1.45354e-05
3.10059e-06
1.23574e-07
1.23258e-07
1.2422e-07
1.89297e-06
3.78246e-05
7.87721e-05
3.98046e-05
1.92341e-05
1.21996e-07
7.72684e-07
3.84616e-08
3.84052e-08
3.84317e-08
8.87709e-08
4.04225e-07
8.94237e-08
1.29444e-08
4.74111e-08
8.39367e-06
8.4273e-06
1.6295e-09
1.87723e-12
2.15344e-11
6.8861e-11
1.53552e-10
1.54177e-10
3.13846e-09
7.49399e-06
1.47515e-05
1.85553e-06
1.23225e-07
1.24214e-07
2.95622e-07
2.50662e-06
2.87384e-06
1.38384e-07
1.3779e-07
1.21975e-07
1.00489e-07
8.75163e-08
7.23016e-08
3.84774e-08
7.1395e-07
1.51775e-06
1.16456e-06
1.49279e-08
1.41039e-08
1.50205e-08
1.21931e-06
8.41875e-06
3.92312e-08
1.82918e-12
1.51383e-11
6.16777e-11
1.52705e-10
1.54031e-10
1.57635e-10
4.40696e-06
1.47515e-05
1.44635e-05
2.10199e-06
1.61064e-07
8.84377e-07
4.17131e-06
4.17131e-06
1.44397e-06
1.3845e-07
2.4151e-07
4.07561e-07
7.43674e-07
2.51463e-06
3.5643e-06
3.52538e-06
1.97531e-06
4.78487e-08
3.54655e-08
1.85235e-07
1.14817e-06
8.64925e-21
8.35229e-06
1.6383e-07
1.82321e-12
1.43409e-11
6.82401e-11
1.75985e-10
1.74423e-10
1.68823e-10
2.95682e-07
1.4302e-05
2.04286e-05
1.92577e-05
4.60196e-06
7.97815e-07
1.38223e-06
1.81793e-06
9.72937e-07
2.80713e-06
1.2251e-05
1.15017e-05
2.62761e-06
3.03729e-06
3.8224e-06
3.49659e-06
1.09475e-07
8.22878e-08
8.4715e-07
1.22247e-06
1.22292e-06
4.71442e-16
1.41898e-06
2.2827e-07
1.82302e-12
1.31235e-11
7.12134e-11
2.76254e-10
2.01368e-10
2.02295e-10
2.11594e-10
1.94687e-06
2.02857e-05
2.05741e-05
1.91489e-05
3.58171e-06
9.50884e-07
9.50883e-07
9.50901e-07
7.50575e-06
1.92589e-05
1.92589e-05
2.13327e-06
1.06084e-06
2.75588e-06
1.99678e-07
2.01303e-07
5.44188e-07
4.99147e-07
4.27673e-08
5.53283e-08
3.12966e-14
3.8602e-14
5.09431e-08
1.8249e-12
1.12182e-11
6.84201e-11
3.27537e-10
2.39196e-10
2.03156e-10
2.12845e-10
7.19665e-10
4.76359e-06
2.05688e-05
2.05749e-05
1.65714e-05
3.84971e-06
9.50908e-07
1.19998e-06
7.04415e-06
1.92389e-05
1.91953e-05
4.13702e-06
6.92938e-09
5.78008e-07
1.59731e-08
5.73242e-08
1.4568e-07
2.59348e-08
2.07809e-09
2.42114e-09
1.0648e-13
2.62828e-12
2.62849e-12
2.96117e-12
8.59246e-12
6.17293e-11
3.51199e-10
3.12728e-10
2.22087e-10
2.32699e-10
2.73858e-10
4.8272e-09
2.05705e-05
8.29786e-06
2.22114e-06
4.66722e-05
9.69601e-05
0.000143179
7.2063e-06
1.51193e-05
1.85206e-05
2.44519e-06
1.6821e-09
1.88281e-07
1.06421e-08
1.28189e-09
1.57345e-09
1.83012e-09
2.04317e-09
2.09485e-09
2.26496e-13
7.69954e-12
7.95787e-12
6.42977e-12
5.28764e-12
4.44462e-11
3.20838e-10
8.28213e-10
3.01033e-10
2.8992e-10
2.98787e-10
3.52915e-10
7.90138e-06
1.52308e-06
1.93381e-08
2.44648e-05
0.000320607
0.00043085
8.38332e-05
1.12263e-05
1.43561e-05
5.42127e-07
1.40057e-09
7.69888e-09
1.13914e-08
1.22589e-09
1.63056e-09
1.77512e-09
1.94592e-09
1.83711e-09
3.78896e-13
1.38432e-11
1.48229e-11
8.26456e-12
2.76845e-12
2.40564e-11
2.18164e-10
9.08216e-10
3.79469e-10
3.22304e-10
3.35322e-10
3.50117e-10
3.80513e-10
7.36437e-10
1.9126e-08
1.93254e-08
8.27918e-05
0.000455091
0.000458679
1.00346e-05
1.00039e-05
2.67411e-06
1.37327e-09
1.28126e-09
1.21271e-09
1.21085e-09
1.21221e-09
1.21399e-09
1.22321e-09
1.34793e-09
5.17048e-13
1.97321e-11
2.06885e-11
7.49468e-12
1.36731e-12
1.05594e-11
1.16577e-10
6.577e-10
4.67323e-10
3.87543e-10
6.55025e-10
6.4725e-10
4.66811e-10
2.15093e-10
1.48033e-07
1.00206e-07
3.75045e-09
0.000371573
0.000471781
6.16234e-05
1.07246e-05
1.00402e-05
1.41347e-09
1.2961e-06
8.53313e-07
1.21304e-09
6.84402e-09
7.44834e-07
8.14188e-07
1.93609e-07
5.35465e-13
2.31479e-11
2.12266e-11
5.63869e-12
6.77516e-13
3.98136e-12
6.04502e-11
5.15305e-10
1.53788e-09
7.41064e-10
8.53282e-10
7.56197e-10
2.80111e-10
1.82206e-10
1.71559e-07
1.7117e-07
2.11417e-09
0.00028675
0.000472072
0.000389401
9.42861e-06
1.3102e-05
5.70716e-06
1.27466e-06
1.25887e-06
1.07104e-05
1.94829e-05
1.96253e-05
1.97826e-05
7.006e-06
3.64484e-13
2.04927e-11
1.62158e-11
4.08427e-12
3.34549e-13
1.30453e-12
2.81226e-11
3.99946e-10
2.13933e-09
1.78718e-09
2.70871e-10
3.26438e-10
2.76694e-10
1.7559e-10
7.81575e-08
1.55774e-07
4.08431e-10
0.000161573
0.000472277
0.000471835
0.000143628
6.08224e-06
6.06894e-06
1.3765e-06
1.3918e-06
1.408e-06
1.53939e-06
1.59045e-05
1.97851e-05
1.9787e-05
1.22369e-13
1.10278e-11
9.18133e-12
2.30491e-12
1.56919e-13
3.56493e-13
9.32732e-12
1.98017e-10
1.81119e-09
1.54124e-09
2.29467e-10
1.41947e-10
2.3518e-10
1.74712e-10
1.96688e-10
7.71996e-09
2.76896e-10
3.96876e-10
0.00031699
0.000472362
0.000375988
2.54433e-05
1.18908e-06
1.37148e-06
1.38271e-06
0.000116282
0.000110044
2.01195e-05
1.09102e-05
1.09169e-05
3.62274e-14
4.0164e-12
3.98016e-12
1.01206e-12
6.63235e-14
7.14542e-14
2.19387e-12
5.24889e-11
5.42835e-10
5.00118e-10
1.40833e-10
1.3779e-10
1.86933e-10
1.64853e-10
1.79092e-10
2.16644e-10
2.54157e-10
2.59091e-10
2.32116e-05
0.000471332
0.000430185
6.19397e-05
1.70919e-07
4.68906e-05
0.000174461
0.000200757
0.00020143
0.000181492
0.000201366
0.000201311
6.39316e-15
1.51881e-12
1.33219e-12
3.48719e-13
2.41568e-14
9.00272e-15
2.87392e-13
9.77259e-12
1.62236e-10
1.90473e-10
5.06602e-11
5.64257e-11
3.27513e-10
1.97831e-10
1.83714e-10
8.1114e-08
5.9269e-07
4.14477e-10
1.61023e-05
0.000221583
0.000169255
1.96366e-05
2.48263e-08
2.53593e-05
0.000145538
0.000201432
0.000201502
0.000201582
0.000201587
0.000201587
7.72707e-16
2.49629e-13
3.79945e-13
1.07887e-13
7.29323e-15
1.003e-15
1.98834e-14
7.9882e-13
2.85513e-11
4.57919e-11
5.14082e-12
8.20587e-08
2.14553e-10
1.9795e-10
1.34859e-06
3.8773e-06
1.21019e-06
1.05837e-06
2.32908e-05
2.13723e-05
4.02372e-06
5.02676e-07
1.61397e-08
1.4317e-06
8.82724e-06
4.0438e-05
9.17708e-05
7.24167e-05
5.29853e-05
1.82988e-05
6.17361e-17
2.20109e-14
8.40821e-14
2.45466e-14
1.61641e-15
1.54872e-16
1.65858e-15
4.38501e-14
2.54694e-12
6.07233e-12
5.05825e-12
1.10045e-06
3.50945e-06
3.20194e-06
6.42052e-06
5.7414e-06
8.02709e-07
1.86942e-06
1.02643e-06
1.41138e-09
6.90241e-10
4.57321e-10
1.58381e-08
2.12101e-09
3.25307e-09
6.70591e-09
1.47632e-08
1.49716e-08
1.31762e-08
9.05146e-09
3.19289e-18
1.02404e-15
1.30186e-14
3.66027e-15
2.30233e-16
3.91886e-17
7.98768e-16
1.45361e-14
2.7578e-13
6.27903e-12
5.07617e-12
2.37036e-06
9.80455e-06
9.78723e-06
6.47115e-06
1.20688e-06
8.71139e-08
1.79374e-07
5.02797e-10
4.11171e-10
4.53388e-10
3.79643e-10
1.81277e-09
1.87555e-09
2.12011e-09
3.47927e-09
9.66664e-09
9.62064e-09
8.72416e-09
7.7547e-09
1.05241e-19
2.3224e-17
1.18051e-15
3.07853e-16
1.83049e-17
8.55473e-18
4.08881e-16
1.62164e-14
4.84521e-13
2.18143e-11
1.75598e-11
2.48658e-06
9.80455e-06
9.38876e-06
4.87889e-07
2.27752e-10
2.90572e-10
3.79664e-10
4.21655e-10
3.85763e-10
4.41918e-10
3.54958e-10
2.67611e-10
5.09828e-08
6.84026e-07
2.52135e-07
9.27259e-09
8.8795e-09
8.61205e-09
7.68703e-09
2.18751e-21
1.81696e-19
5.41846e-17
1.2678e-17
7.00133e-19
6.37578e-19
5.45707e-17
4.47806e-15
3.32024e-13
3.68271e-11
3.76226e-11
4.85876e-07
4.67165e-06
1.43923e-06
1.34966e-10
8.21789e-11
2.69365e-10
4.00634e-10
5.84307e-10
3.6682e-10
3.19914e-10
2.80157e-10
2.66795e-10
5.30871e-07
1.00339e-06
8.67545e-07
1.83021e-07
7.74866e-09
7.6899e-09
7.69659e-09
2.83684e-23
3.56962e-22
1.08592e-18
2.17196e-19
1.06763e-20
2.32088e-20
3.28747e-18
4.43782e-16
4.17922e-14
3.15326e-12
9.32389e-11
4.84369e-10
3.69184e-10
1.07424e-10
1.00188e-10
7.45696e-11
1.4216e-10
2.08625e-10
7.39703e-11
3.79266e-09
9.82572e-10
5.23223e-10
2.6681e-10
3.99996e-07
1.00811e-06
1.00891e-06
1.00893e-06
5.75603e-07
2.40366e-08
2.02716e-07
2.29612e-25
1.89785e-25
7.67149e-21
1.20857e-21
4.9485e-23
4.23038e-22
8.97054e-20
1.70357e-17
2.01751e-15
1.44372e-13
5.63857e-12
8.15553e-11
7.38705e-11
2.95286e-11
3.89848e-11
2.28071e-11
6.55448e-11
7.63407e-11
4.56474e-11
5.3851e-11
2.94815e-08
3.57907e-08
2.70244e-10
5.48313e-07
1.00889e-06
1.0089e-06
1.00892e-06
1.00892e-06
3.18221e-07
1.3981e-07
1.1877e-27
5.20858e-28
1.48939e-23
1.55733e-24
4.78635e-26
2.72476e-24
1.05345e-21
3.45281e-19
6.56907e-17
6.11944e-15
3.29955e-13
6.4392e-12
8.11257e-11
2.34501e-11
5.99657e-12
1.03015e-11
6.85961e-11
3.58207e-11
4.74903e-09
5.28402e-08
5.13969e-08
9.33038e-09
5.01836e-10
6.07178e-08
2.99573e-07
4.96195e-07
3.32727e-07
6.09477e-07
4.5727e-07
1.33386e-07
4.34091e-30
1.70597e-30
8.32231e-27
3.2196e-28
4.1566e-30
1.60482e-27
2.11593e-24
2.14104e-21
1.11414e-18
1.57647e-16
1.41876e-14
3.70817e-13
7.0455e-12
2.14335e-12
8.67772e-13
3.62916e-12
2.31849e-11
2.35768e-11
4.55969e-10
1.98404e-09
5.27598e-10
1.25179e-09
8.8003e-10
2.18477e-11
2.79342e-11
9.60637e-10
2.96548e-09
5.42547e-09
3.25683e-08
5.29804e-08
1.22435e-08
3.22427e-08
5.43245e-07
7.19629e-06
7.38212e-05
1.08123e-07
1.9869e-07
3.65004e-07
3.87315e-07
4.66705e-07
5.6356e-07
6.3919e-07
6.94751e-07
0.0690502
0.294404
0.623925
0.637615
0.290488
0.508517
0.407671
0.0238554
5.72219e-06
1.67692e-05
7.72067e-06
2.90463e-06
1.24145e-06
3.03937e-06
5.433e-06
0.00494409
0.970212
1.1925e-08
1.28279e-08
5.74485e-08
5.3574e-06
5.44861e-06
1.19889e-06
1.28101e-06
5.28848e-07
4.80577e-06
3.99727e-06
3.14681e-06
1.89368e-06
1.92261e-06
1.95973e-06
0.001637
0.0335076
0.0272735
2.3095e-07
0.0240412
0.0109329
1.20245e-07
5.16064e-08
7.72385e-07
6.92777e-07
4.33644e-07
1.1234e-07
4.61369e-07
2.79749e-06
0.0124741
0.784367
1.19712e-08
1.21818e-08
1.3085e-08
4.2183e-08
3.26715e-07
2.8515e-06
2.79515e-06
4.5978e-06
4.88014e-06
4.85985e-06
4.73223e-06
4.58467e-06
3.33778e-06
2.31963e-06
3.13654e-07
2.32145e-07
2.30225e-07
2.23661e-07
-4.29301e-09
1.35075e-08
1.4468e-09
1.29267e-09
3.84099e-08
5.28807e-08
9.95748e-08
7.76199e-08
1.6086e-07
4.57345e-07
0.00242827
0.0389487
1.19243e-08
1.31649e-08
1.80975e-06
8.31076e-06
7.95231e-06
5.98996e-06
7.57546e-06
7.44365e-06
2.40158e-06
6.01482e-07
8.86418e-08
9.43479e-08
5.16126e-07
2.36389e-06
1.27861e-06
2.41303e-07
2.32501e-07
5.18431e-07
2.22031e-08
2.42759e-09
1.83273e-09
5.88215e-10
1.23309e-09
4.28211e-09
1.34375e-08
7.47645e-08
1.57806e-06
8.57872e-07
8.20389e-07
8.20389e-07
1.28944e-08
7.6336e-07
1.02378e-05
1.21905e-05
1.21936e-05
1.21155e-05
1.09296e-05
3.19759e-06
5.93295e-08
5.54026e-08
8.70889e-08
9.73557e-08
4.23216e-08
2.70159e-07
2.14896e-07
2.68851e-07
1.51974e-06
2.1971e-06
1.06715e-06
1.949e-09
2.52525e-09
5.04507e-10
3.9352e-10
4.54214e-10
1.22872e-09
1.44697e-08
8.24299e-11
1.03493e-06
6.35996e-06
1.18718e-06
1.3987e-08
1.23371e-07
5.81877e-06
1.15526e-05
1.09452e-05
3.03433e-06
1.90075e-07
1.75192e-07
2.06203e-07
5.38606e-08
1.20369e-08
1.62692e-08
4.16549e-08
1.97925e-08
9.24816e-09
5.65312e-07
2.19538e-06
2.19939e-06
1.86848e-07
5.80729e-10
1.58482e-09
4.74781e-10
2.3248e-10
1.55554e-10
1.5366e-10
1.35123e-11
1.99808e-12
2.73778e-06
9.06839e-06
9.04546e-06
5.47308e-07
7.17464e-07
6.97151e-07
6.95517e-07
6.36376e-07
4.99987e-07
3.94484e-07
1.68529e-07
1.97458e-08
9.20104e-09
9.1952e-09
9.19468e-09
9.1747e-09
9.1288e-09
9.18497e-09
4.27658e-07
2.18816e-06
5.7245e-07
4.19088e-10
5.513e-10
6.01769e-10
3.48013e-10
2.36483e-10
1.1983e-10
6.44574e-11
1.86102e-11
1.98905e-12
2.00438e-12
9.07551e-06
9.07545e-06
1.19338e-07
4.20971e-07
7.09199e-07
9.02591e-07
1.0072e-06
8.69413e-07
4.10841e-07
9.20601e-09
9.20405e-09
9.19955e-09
9.20682e-09
9.18298e-09
9.12663e-09
9.11967e-09
1.23268e-08
7.64182e-08
3.27193e-07
1.88869e-08
4.18067e-10
4.21359e-10
4.00226e-10
2.75804e-10
1.56763e-10
1.01342e-10
7.66368e-11
1.74396e-11
7.8912e-13
1.70279e-09
9.06844e-06
9.07554e-06
1.22294e-06
1.2222e-06
1.22067e-06
1.21973e-06
1.20323e-06
3.09945e-07
9.42125e-09
9.235e-09
9.20633e-09
9.23239e-09
9.29937e-09
9.35582e-09
9.15512e-09
9.11459e-09
1.57733e-08
4.22831e-10
3.35198e-10
3.1779e-10
4.08712e-10
3.22452e-10
3.13792e-10
2.34989e-10
1.29187e-10
7.26866e-11
2.46018e-11
5.53545e-12
6.8333e-13
7.89196e-09
9.05784e-06
2.46923e-06
1.22294e-06
1.22293e-06
1.22226e-06
9.3036e-07
4.19741e-08
3.65758e-08
3.02671e-08
9.44969e-09
9.23712e-09
9.86005e-09
3.06006e-08
1.14093e-08
1.00866e-08
9.00589e-09
8.92988e-09
4.40079e-10
3.96007e-10
6.92826e-09
2.82348e-10
2.88375e-10
2.62835e-10
2.04572e-10
1.15509e-10
4.75142e-11
1.12809e-11
3.55473e-12
6.80963e-13
2.78486e-07
8.27721e-06
5.33186e-21
6.74565e-08
8.67182e-08
8.89475e-08
8.97186e-08
2.41706e-07
5.75123e-07
6.33253e-07
1.95329e-07
9.42222e-09
9.94642e-09
6.87697e-08
7.39707e-07
9.10036e-07
2.71949e-07
2.27616e-09
4.5741e-10
4.02248e-06
4.01361e-06
2.70797e-10
2.70796e-10
2.28541e-10
1.77634e-10
1.01183e-10
2.42669e-11
7.40629e-12
2.84216e-12
6.83701e-13
6.6051e-07
2.90115e-07
1.0686e-15
2.77992e-09
3.11724e-09
5.75338e-09
3.45756e-07
8.00967e-07
8.00346e-07
8.00966e-07
7.80273e-07
6.63281e-08
1.12303e-08
1.37449e-08
2.17354e-06
8.12748e-06
7.40356e-06
3.94277e-06
5.11802e-06
5.32336e-06
2.8936e-07
2.72458e-10
3.38305e-10
2.07887e-10
1.5903e-10
9.3206e-11
1.96245e-11
5.21735e-12
2.32824e-12
8.39396e-13
1.99314e-07
8.43282e-14
2.57692e-14
2.34526e-09
4.43408e-09
3.81416e-07
8.00739e-07
8.00322e-07
8.00925e-07
8.01511e-07
8.00997e-07
6.03689e-07
1.37377e-08
2.64404e-08
2.47553e-06
9.84142e-06
9.84166e-06
9.84075e-06
9.75979e-06
4.62362e-06
6.60526e-10
1.22267e-09
4.43116e-10
2.00083e-10
1.5217e-10
9.03003e-11
1.89785e-11
3.91203e-12
1.94762e-12
1.58563e-11
8.58498e-12
3.53623e-11
8.55024e-14
2.13389e-09
2.36553e-09
7.7827e-08
6.50364e-07
8.01327e-07
8.01588e-07
8.02553e-07
8.01511e-07
8.01223e-07
3.75078e-07
5.45171e-08
7.89293e-08
5.01869e-06
9.84073e-06
9.84167e-06
8.41333e-06
6.98259e-10
6.61929e-10
2.40991e-09
4.7773e-10
2.10387e-10
1.6167e-10
7.48373e-11
1.65499e-11
2.78588e-12
1.60688e-12
5.58001e-11
9.97651e-12
1.08956e-11
1.89886e-13
2.29853e-09
2.40897e-09
2.29539e-09
8.78616e-10
1.27265e-07
6.34056e-07
8.02642e-07
8.01933e-07
7.9934e-07
7.97208e-07
7.53603e-08
1.24038e-08
1.00646e-06
7.23876e-06
8.62637e-06
1.24126e-06
1.09481e-09
1.19497e-09
2.55436e-09
4.30831e-10
2.84859e-10
3.58057e-10
5.80593e-11
1.04793e-11
1.46334e-12
1.26211e-12
1.20209e-11
1.55765e-11
1.84016e-11
3.3653e-13
2.33957e-09
1.74861e-09
8.68844e-10
8.20837e-10
6.40135e-10
5.53152e-10
8.99704e-08
6.01789e-07
7.97763e-07
7.91837e-07
4.60003e-07
1.08314e-08
1.07824e-08
3.98109e-07
7.11524e-07
5.00503e-09
4.87889e-09
8.23081e-09
2.03489e-09
3.26094e-10
3.22251e-10
3.76839e-10
4.26483e-11
4.60312e-12
5.39846e-13
9.40012e-13
6.67986e-12
2.22194e-11
2.49467e-11
4.88335e-13
4.17764e-08
1.61931e-06
8.4726e-07
6.45315e-10
6.04316e-10
5.27678e-10
5.15927e-10
4.89158e-10
2.10841e-07
6.48887e-07
6.31914e-07
1.53284e-08
8.98324e-09
8.71793e-09
8.92971e-09
1.03086e-08
1.17968e-08
1.12208e-08
3.00743e-09
1.90992e-09
5.85531e-11
5.54933e-11
1.57169e-11
1.17503e-12
1.40566e-13
6.39352e-13
5.39091e-12
2.37361e-11
2.78641e-11
5.36692e-13
1.9785e-05
1.97686e-05
8.77313e-06
1.1536e-09
5.56118e-10
5.09771e-10
5.07209e-10
4.66651e-10
4.17793e-10
4.23815e-10
1.46456e-07
1.77832e-07
3.30816e-08
8.71295e-09
8.69699e-09
1.05841e-08
1.18231e-08
2.27804e-09
2.52043e-09
7.06867e-09
4.18422e-09
1.27523e-11
2.66904e-12
1.63178e-13
3.60056e-14
3.89087e-13
3.67284e-12
1.84947e-11
2.14974e-11
3.88078e-13
1.10533e-05
1.45316e-05
1.78792e-05
1.67975e-05
9.85263e-07
5.10145e-10
5.21928e-10
4.99966e-10
4.15823e-10
4.04783e-10
3.5879e-10
2.16392e-08
5.68009e-08
5.68645e-08
1.89197e-08
3.46102e-09
5.51812e-09
4.20853e-11
1.31454e-09
7.63357e-09
7.63525e-09
1.13325e-10
1.54203e-12
1.82613e-14
1.30147e-14
2.07525e-13
1.98287e-12
9.97546e-12
1.03873e-11
1.28277e-13
0.000135087
1.12824e-05
2.73747e-06
1.14036e-05
6.29212e-06
5.59786e-10
6.10408e-10
7.35646e-10
6.63559e-10
4.75401e-10
3.48339e-10
2.87234e-10
8.39288e-09
2.55083e-08
2.3965e-08
3.28625e-09
2.53655e-11
2.40954e-11
1.14281e-10
2.46674e-09
5.51228e-09
1.28003e-10
7.90588e-13
3.28845e-15
5.02044e-15
9.22063e-14
8.49974e-13
3.78297e-12
3.23723e-12
3.6738e-14
0.000201587
0.000196531
2.80271e-05
5.68297e-07
1.31822e-06
5.23387e-07
6.3628e-10
1.77835e-09
1.5683e-09
1.00054e-09
5.30203e-10
2.15012e-10
1.12924e-10
2.11671e-10
2.07242e-09
1.95005e-09
3.04101e-10
1.6048e-11
1.79133e-11
8.67206e-11
4.00182e-10
1.0451e-11
6.79775e-14
6.16364e-16
1.65693e-15
3.36277e-14
3.0555e-13
1.28209e-12
1.21183e-12
6.34095e-15
1.5701e-05
2.70378e-05
8.59672e-06
5.26906e-07
5.22164e-07
5.22561e-07
8.01543e-10
7.43571e-09
1.23562e-08
1.09033e-08
5.91718e-11
5.7692e-11
6.04486e-11
7.89432e-11
1.8082e-10
1.99444e-10
3.35197e-11
3.16922e-12
2.03346e-12
2.17213e-11
6.28839e-11
1.50295e-12
7.41174e-15
7.98274e-17
4.31472e-16
1.01131e-14
9.56143e-14
3.63615e-13
2.15684e-13
7.48618e-16
8.19503e-09
9.5707e-08
1.27086e-06
5.48481e-07
2.34201e-06
3.22865e-07
7.9047e-10
3.10056e-09
1.09357e-08
1.09377e-08
3.53876e-10
7.62226e-11
7.53866e-11
2.88983e-11
2.38846e-11
1.41017e-11
4.87664e-12
9.97688e-13
2.22405e-13
1.77505e-12
6.89071e-12
1.0578e-13
3.03155e-16
7.22541e-18
8.13545e-17
2.23903e-15
2.21308e-14
8.01596e-14
2.16468e-14
5.84951e-17
7.72159e-09
7.69955e-09
7.80747e-09
4.35961e-05
1.83535e-05
8.27774e-10
7.84042e-10
2.7774e-09
2.57048e-08
5.78222e-09
7.29757e-10
1.48125e-09
1.88085e-09
2.24178e-11
2.20216e-11
1.43557e-11
5.29533e-12
7.68998e-13
8.15049e-14
6.81167e-14
4.36992e-13
2.78803e-15
7.2363e-18
7.24765e-19
9.98405e-18
3.18453e-16
3.38982e-15
1.24201e-14
1.12479e-15
2.95993e-18
7.67852e-09
7.67261e-09
7.67848e-09
6.47126e-05
3.90717e-05
2.86268e-08
7.73936e-10
7.74283e-10
8.79315e-09
9.87224e-09
2.92428e-08
2.62457e-08
2.81922e-11
2.80196e-11
2.61741e-11
1.82257e-11
6.00632e-12
6.52522e-13
4.72169e-14
3.8805e-15
1.16509e-14
1.43472e-17
6.29997e-19
6.46086e-20
6.94813e-19
2.52672e-17
2.95958e-16
1.1418e-15
2.82387e-17
9.56907e-20
1.59443e-05
4.82028e-05
7.94881e-05
6.69379e-05
2.49696e-05
4.0653e-08
1.117e-06
1.22143e-06
5.49764e-09
5.49761e-09
5.5035e-09
3.7231e-08
4.226e-11
2.84139e-11
2.66284e-11
2.19216e-11
5.86051e-12
5.37845e-13
2.635e-14