/*--------------------------------*- C++ -*----------------------------------*\
| =========                 |                                                 |
| \\      /  F ield         | OpenFOAM: The Open Source CFD Toolbox           |
|  \\    /   O peration     | Version:  2.4.0                                 |
|   \\  /    A nd           | Web:      www.OpenFOAM.org                      |
|    \\/     M anipulation  |                                                 |
\*---------------------------------------------------------------------------*/
FoamFile
{
    version     2.0;
    format      ascii;
    class       surfaceScalarField;
    location    "0.167";
    object      phiAlpha;
}
// * * * * * * * * * * * * * * * * * * * * * * * * * * * * * * * * * * * * * //

dimensions      [0 3 -1 0 0 0 0];

internalField   nonuniform List<scalar> 
7080
(
2.07176e-08
-2.07176e-08
5.42636e-08
-3.35461e-08
8.45967e-08
-3.03331e-08
1.03657e-07
-1.90603e-08
1.14427e-07
-1.07704e-08
1.0618e-07
8.24703e-09
8.19351e-08
2.42452e-08
5.01964e-08
3.17387e-08
2.13189e-08
2.88774e-08
1.19944e-11
2.13069e-08
-1.34749e-08
1.34869e-08
-3.03923e-08
1.69174e-08
-4.07508e-08
1.03585e-08
-5.4905e-08
1.41541e-08
-6.14483e-08
6.54337e-09
-4.87454e-08
-1.27029e-08
-2.07846e-08
-2.7769e-08
-3.43483e-09
-1.73627e-08
-6.70094e-09
3.25443e-09
-4.02714e-08
3.34928e-08
-1.40629e-07
1.00377e-07
-2.24875e-07
8.42642e-08
-2.25005e-07
2.78505e-09
-1.7578e-07
-4.94929e-08
-1.39238e-07
-3.6796e-08
-1.1873e-07
-2.07385e-08
-9.23402e-08
-2.65974e-08
-5.51143e-08
-3.74105e-08
-2.98741e-08
-2.54058e-08
-2.1193e-08
-8.82805e-09
1.23453e-08
-3.30629e-08
5.37526e-08
-7.49534e-08
9.97129e-08
-7.62934e-08
1.32923e-07
-5.22706e-08
1.57987e-07
-3.58341e-08
1.63038e-07
3.19573e-09
1.46537e-07
4.07464e-08
1.20944e-07
5.73318e-08
8.95529e-08
6.02684e-08
6.57136e-08
4.51462e-08
4.9392e-08
2.98084e-08
2.31255e-08
4.3184e-08
1.28675e-08
2.06164e-08
-2.51714e-08
5.2193e-08
-4.1411e-08
2.2783e-08
-4.98115e-08
-4.3024e-09
-6.46449e-08
-1.27347e-08
-5.93366e-08
-2.25919e-08
-8.3266e-08
2.70088e-08
-1.65129e-07
1.15374e-07
-2.73383e-07
2.0865e-07
-3.28766e-07
1.39742e-07
-3.075e-07
-1.85119e-08
-2.67359e-07
-8.94899e-08
-2.20851e-07
-8.30875e-08
-1.7273e-07
-6.88396e-08
-1.28943e-07
-7.07286e-08
-8.18621e-08
-8.49397e-08
-3.79014e-08
-6.96928e-08
-5.83574e-08
-9.62362e-10
6.32083e-09
-3.93837e-08
4.70655e-08
-1.15698e-07
9.49771e-08
-1.24205e-07
1.30526e-07
-8.78196e-08
1.58663e-07
-6.3971e-08
1.67854e-07
-5.99523e-09
1.55181e-07
5.34192e-08
1.3574e-07
7.67729e-08
1.06572e-07
8.94362e-08
8.94312e-08
6.22872e-08
7.55236e-08
4.3716e-08
5.26646e-08
6.60429e-08
5.54736e-08
1.78074e-08
1.70851e-08
9.05815e-08
3.03955e-09
3.68286e-08
-1.15142e-08
1.02515e-08
-5.93143e-08
3.51786e-08
-9.46765e-08
1.26812e-08
-1.49732e-07
8.1839e-08
-2.41253e-07
2.06902e-07
-3.14369e-07
2.81779e-07
-3.25615e-07
1.51052e-07
-3.02719e-07
-4.12263e-08
-2.59986e-07
-1.32023e-07
-2.14918e-07
-1.28131e-07
-1.51798e-07
-1.31957e-07
-9.65749e-08
-1.25951e-07
-7.30029e-08
-1.08512e-07
-3.75947e-08
-1.05101e-07
-9.53889e-08
-5.63023e-10
4.29776e-09
-4.36815e-08
4.48573e-08
-1.56258e-07
9.30463e-08
-1.72394e-07
1.28954e-07
-1.23727e-07
1.57713e-07
-9.27298e-08
1.6758e-07
-1.58623e-08
1.55345e-07
6.56538e-08
1.37413e-07
9.47051e-08
1.07768e-07
1.19081e-07
9.51855e-08
7.48692e-08
7.7506e-08
6.13955e-08
6.40014e-08
7.95475e-08
8.11541e-08
6.5469e-10
4.67089e-08
1.25027e-07
3.4374e-08
4.91635e-08
1.85637e-08
2.60618e-08
-5.38707e-08
1.07661e-07
-1.25836e-07
8.46756e-08
-1.98593e-07
1.54566e-07
-2.53807e-07
2.62154e-07
-2.73142e-07
3.0105e-07
-2.56428e-07
1.34329e-07
-2.27869e-07
-6.9792e-08
-2.19919e-07
-1.3998e-07
-1.96378e-07
-1.51631e-07
-1.51167e-07
-1.77079e-07
-9.66183e-08
-1.80342e-07
-6.65315e-08
-1.38598e-07
-3.77825e-08
-1.33851e-07
-1.25285e-07
-7.88176e-09
3.54684e-09
-4.72283e-08
4.4272e-08
-1.96983e-07
9.27326e-08
-2.20854e-07
1.28933e-07
-1.59928e-07
1.58147e-07
-1.21943e-07
1.68226e-07
-2.59414e-08
1.55783e-07
7.80966e-08
1.37723e-07
1.12765e-07
1.06666e-07
1.50138e-07
9.67882e-08
8.47474e-08
6.97469e-08
8.84369e-08
6.91481e-08
8.01462e-08
9.4492e-08
-2.46892e-08
6.45785e-08
1.5494e-07
6.2215e-08
5.15269e-08
4.96647e-08
3.86122e-08
-2.83948e-08
1.85721e-07
-1.18732e-07
1.75011e-07
-1.93523e-07
2.2928e-07
-2.20149e-07
2.89707e-07
-1.9972e-07
2.80612e-07
-1.60739e-07
9.53399e-08
-1.43112e-07
-8.75181e-08
-1.37633e-07
-1.45498e-07
-1.27458e-07
-1.61819e-07
-1.01555e-07
-2.03e-07
-6.99166e-08
-2.11999e-07
-3.84729e-08
-1.6978e-07
-2.35932e-08
-1.48719e-07
-1.37322e-07
-1.15591e-08
3.00758e-09
-5.02359e-08
4.39563e-08
-2.37932e-07
9.27449e-08
-2.69643e-07
1.2931e-07
-1.96493e-07
1.59071e-07
-1.51705e-07
1.69395e-07
-3.62652e-08
1.56752e-07
9.07399e-08
1.38031e-07
1.31485e-07
1.06053e-07
1.82117e-07
9.72732e-08
9.35268e-08
6.17601e-08
1.2395e-07
7.07953e-08
7.11109e-08
8.78374e-08
-4.17313e-08
7.08091e-08
1.71969e-07
8.85593e-08
3.37767e-08
7.76082e-08
4.95633e-08
1.25913e-08
2.50737e-07
-7.10408e-08
2.58641e-07
-1.31313e-07
2.89551e-07
-1.39326e-07
2.98085e-07
-1.13966e-07
2.56544e-07
-7.52513e-08
5.69153e-08
-3.94789e-08
-1.23564e-07
-2.93353e-08
-1.5616e-07
-1.62864e-08
-1.75317e-07
-6.69715e-09
-2.13347e-07
-1.03222e-08
-2.08394e-07
-3.92707e-09
-1.75905e-07
-6.66552e-09
-1.45952e-07
-1.32642e-07
-1.13482e-08
2.41345e-09
-5.26493e-08
4.3618e-08
-2.79136e-07
9.27941e-08
-3.18819e-07
1.29803e-07
-2.33501e-07
1.60225e-07
-1.82127e-07
1.70848e-07
-4.68881e-08
1.58063e-07
1.03525e-07
1.3828e-07
1.51269e-07
1.06304e-07
2.14093e-07
9.75181e-08
1.02313e-07
5.92353e-08
1.62233e-07
6.95129e-08
6.08333e-08
5.57077e-08
-2.79261e-08
5.91135e-08
1.68563e-07
1.00517e-07
-7.62725e-09
8.14171e-08
6.86636e-08
3.90874e-08
2.93067e-07
-1.72481e-08
3.14977e-07
-5.79793e-08
3.30298e-07
-5.06899e-08
2.90771e-07
-1.1212e-08
2.16991e-07
3.36206e-08
1.20646e-08
6.80442e-08
-1.57912e-07
9.34455e-08
-1.81352e-07
9.64862e-08
-1.78365e-07
7.50399e-08
-1.91902e-07
4.08194e-08
-1.7511e-07
1.86076e-08
-1.54358e-07
1.06879e-09
-1.28398e-07
-1.16449e-07
-1.51243e-08
1.69518e-09
-5.43445e-08
4.32099e-08
-3.20651e-07
9.28379e-08
-3.68447e-07
1.30374e-07
-2.71038e-07
1.61579e-07
-2.13332e-07
1.72561e-07
-5.78706e-08
1.59663e-07
1.16423e-07
1.38378e-07
1.72554e-07
1.07499e-07
2.44971e-07
9.76827e-08
1.1213e-07
6.32199e-08
1.96696e-07
7.04813e-08
5.35719e-08
2.34366e-08
1.91186e-08
3.26966e-08
1.59303e-07
7.80597e-08
-5.29903e-08
5.79865e-08
8.87368e-08
4.16966e-08
3.09357e-07
4.08201e-08
3.15854e-07
5.46168e-08
3.16502e-07
6.51131e-08
2.80276e-07
1.06956e-07
1.75149e-07
1.38619e-07
-1.97247e-08
1.61117e-07
-1.80375e-07
1.80527e-07
-2.00776e-07
1.65616e-07
-1.6309e-07
1.30429e-07
-1.56712e-07
8.91337e-08
-1.33816e-07
4.33298e-08
-1.08555e-07
1.0968e-08
-9.60565e-08
-9.4008e-08
-1.14704e-08
8.41469e-10
-5.5186e-08
4.27235e-08
-3.62533e-07
9.28658e-08
-4.18589e-07
1.31022e-07
-3.09194e-07
1.63132e-07
-2.45442e-07
1.74557e-07
-6.92962e-08
1.61488e-07
1.29492e-07
1.38351e-07
1.95691e-07
1.09486e-07
2.73836e-07
9.60007e-08
1.25615e-07
7.24799e-08
2.20216e-07
7.94254e-08
4.66263e-08
1.78422e-08
8.07018e-08
1.21104e-08
1.65035e-07
3.53374e-08
-7.62173e-08
4.24037e-08
8.16705e-08
5.94211e-08
2.9234e-07
7.92063e-08
2.96069e-07
1.37287e-07
2.58421e-07
1.66563e-07
2.50412e-07
1.98472e-07
1.42956e-07
2.10075e-07
-3.13837e-08
2.07503e-07
-1.77835e-07
2.0724e-07
-2.00528e-07
1.88747e-07
-1.44551e-07
1.52852e-07
-1.20792e-07
1.10899e-07
-9.18633e-08
6.27544e-08
-6.04112e-08
2.3388e-08
-5.66942e-08
-6.74164e-08
-3.20873e-09
-6.59818e-11
-5.512e-08
4.21546e-08
-4.04753e-07
9.28664e-08
-4.69301e-07
1.31748e-07
-3.48076e-07
1.64889e-07
-2.78582e-07
1.76862e-07
-8.12693e-08
1.63455e-07
1.42899e-07
1.38504e-07
2.20641e-07
1.11086e-07
3.01253e-07
9.17157e-08
1.44986e-07
8.13675e-08
2.30565e-07
8.65227e-08
4.14712e-08
2.61519e-08
1.41073e-07
1.21055e-08
1.79081e-07
2.16404e-08
-8.57523e-08
4.40184e-08
5.92924e-08
7.70536e-08
2.59305e-07
8.50259e-08
2.88096e-07
1.34977e-07
2.0847e-07
1.79583e-07
2.05805e-07
2.18966e-07
1.03513e-07
2.24429e-07
-3.69028e-08
2.07673e-07
-1.61061e-07
1.87499e-07
-1.80396e-07
1.63733e-07
-1.20809e-07
1.3226e-07
-8.93186e-08
9.68376e-08
-5.64424e-08
5.76344e-08
-2.12088e-08
2.38851e-08
-2.29486e-08
-4.31961e-08
-3.40327e-10
-9.6502e-10
-5.4155e-08
4.14989e-08
-4.47217e-07
9.28244e-08
-5.20627e-07
1.32556e-07
-3.87807e-07
1.66856e-07
-3.12883e-07
1.79478e-07
-9.3891e-08
1.65576e-07
1.56801e-07
1.39009e-07
2.47209e-07
1.11527e-07
3.28735e-07
8.71339e-08
1.69379e-07
8.63952e-08
2.31303e-07
8.21682e-08
4.56982e-08
3.54501e-08
1.87791e-07
2.87939e-08
1.85737e-07
2.87205e-08
-8.56789e-08
3.94261e-08
4.85868e-08
7.02197e-08
2.28511e-07
8.32014e-08
2.75114e-07
1.04895e-07
1.86777e-07
1.42064e-07
1.68659e-07
1.72324e-07
7.33248e-08
1.82781e-07
-4.73072e-08
1.781e-07
-1.5638e-07
1.56798e-07
-1.59095e-07
1.36287e-07
-1.00308e-07
1.02197e-07
-5.52279e-08
6.80562e-08
-2.23007e-08
4.26854e-08
4.16111e-09
2.11867e-08
-1.45353e-09
-2.4504e-08
2.489e-09
-2.06545e-09
-5.20895e-08
4.0751e-08
-4.90034e-07
9.27314e-08
-5.72607e-07
1.33445e-07
-4.2852e-07
1.69042e-07
-3.4848e-07
1.82417e-07
-1.07266e-07
1.67914e-07
1.71304e-07
1.39746e-07
2.75378e-07
1.10993e-07
3.57487e-07
8.50453e-08
1.95328e-07
8.73686e-08
2.2898e-07
7.25167e-08
6.05501e-08
4.32937e-08
2.17014e-07
4.72266e-08
1.81804e-07
4.73575e-08
-8.58099e-08
4.36735e-08
5.22708e-08
5.4896e-08
2.17288e-07
8.62351e-08
2.43775e-07
1.0103e-07
1.71982e-07
1.28277e-07
1.41411e-07
1.50483e-07
5.11193e-08
1.75521e-07
-7.23449e-08
1.75703e-07
-1.56563e-07
1.40933e-07
-1.24325e-07
1.17053e-07
-7.64415e-08
7.88693e-08
-1.70458e-08
4.63758e-08
1.01948e-08
3.49579e-08
1.55791e-08
1.64444e-08
1.70595e-08
-1.6748e-08
8.6885e-09
-3.32333e-09
-4.87662e-08
3.99049e-08
-5.33262e-07
9.26168e-08
-6.25319e-07
1.34415e-07
-4.70319e-07
1.7145e-07
-3.85514e-07
1.85698e-07
-1.21514e-07
1.70495e-07
1.86507e-07
1.4043e-07
3.05443e-07
1.10586e-07
3.87332e-07
8.34602e-08
2.22453e-07
8.7802e-08
2.24638e-07
6.98276e-08
7.85244e-08
5.13276e-08
2.35514e-07
6.0217e-08
1.72915e-07
6.08258e-08
-8.64186e-08
5.85693e-08
5.45273e-08
4.87517e-08
2.27106e-07
8.44889e-08
2.08038e-07
1.13658e-07
1.42813e-07
1.35612e-07
1.19457e-07
1.56337e-07
3.03945e-08
1.71176e-07
-8.71846e-08
1.54878e-07
-1.40264e-07
1.18511e-07
-8.7958e-08
9.46247e-08
-5.2555e-08
8.09133e-08
-3.33435e-09
5.88117e-08
3.22964e-08
2.66225e-08
4.77682e-08
1.10831e-08
3.25939e-08
-2.08369e-08
1.51729e-08
-4.73174e-09
-4.40345e-08
3.8954e-08
-5.76948e-07
9.24978e-08
-6.78863e-07
1.35466e-07
-5.13287e-07
1.7409e-07
-4.24138e-07
1.89353e-07
-1.36777e-07
1.73255e-07
2.02605e-07
1.41196e-07
3.37502e-07
1.10278e-07
4.18249e-07
8.09262e-08
2.51805e-07
8.83421e-08
2.17222e-07
7.29817e-08
9.38848e-08
4.95884e-08
2.58907e-07
6.03944e-08
1.62109e-07
5.18479e-08
-7.78723e-08
7.55331e-08
3.08421e-08
7.74322e-08
2.25207e-07
8.51806e-08
2.0029e-07
1.09933e-07
1.18061e-07
1.33496e-07
9.58949e-08
1.45755e-07
1.81352e-08
1.33574e-07
-7.50039e-08
1.15164e-07
-1.21854e-07
1.05117e-07
-7.79115e-08
9.09271e-08
-3.83643e-08
7.01117e-08
1.748e-08
2.89133e-08
7.34948e-08
-1.37265e-08
9.04083e-08
-2.41167e-09
2.1282e-08
-3.73354e-08
1.40868e-08
-6.29034e-09
-3.77441e-08
3.78905e-08
-6.21129e-07
9.2386e-08
-7.33358e-07
1.36594e-07
-5.57495e-07
1.76975e-07
-4.64518e-07
1.93382e-07
-1.53185e-07
1.76196e-07
2.1979e-07
1.42184e-07
3.71515e-07
1.10111e-07
4.50322e-07
7.5765e-08
2.86151e-07
9.04015e-08
2.02586e-07
8.58241e-08
9.84622e-08
6.15247e-08
2.83207e-07
6.32762e-08
1.60357e-07
5.1499e-08
-6.60951e-08
9.05139e-08
-8.17272e-09
9.33785e-08
2.22342e-07
8.52696e-08
2.08399e-07
1.0351e-07
9.98197e-08
1.07222e-07
9.21832e-08
9.60328e-08
2.93246e-08
8.25391e-08
-6.15102e-08
5.87498e-08
-9.80644e-08
1.9556e-08
-3.87178e-08
-2.268e-08
3.87162e-09
-4.24252e-08
3.72263e-08
-5.07524e-08
8.18069e-08
-3.75559e-08
7.72028e-08
-1.27629e-08
-3.51102e-09
-4.07811e-08
-9.31717e-09
-8.00239e-09
-2.97417e-08
3.67061e-08
-6.65837e-07
9.22862e-08
-7.88939e-07
1.37797e-07
-6.03006e-07
1.80111e-07
-5.06832e-07
1.97796e-07
-1.7087e-07
1.79344e-07
2.38242e-07
1.43734e-07
4.07125e-07
1.08937e-07
4.85119e-07
7.04295e-08
3.24658e-07
9.45932e-08
1.78422e-07
8.82089e-08
1.04847e-07
9.92534e-09
3.6149e-07
1.29543e-08
1.57328e-07
5.32285e-08
-1.06369e-07
1.14898e-07
-6.9842e-08
1.38229e-07
1.99011e-07
1.18477e-07
2.2815e-07
9.94695e-08
1.18828e-07
8.27245e-08
1.08928e-07
9.9441e-08
1.26081e-08
1.06024e-07
-6.80935e-08
7.57067e-08
-6.77468e-08
4.2358e-08
-5.36901e-09
6.30101e-09
3.99286e-08
-2.08197e-08
6.43511e-08
-2.62931e-08
8.72743e-08
-1.54595e-08
6.63625e-08
-2.44674e-08
5.49361e-09
-2.08533e-08
-4.43951e-08
-9.87312e-09
-1.98686e-08
3.53915e-08
-7.11102e-07
9.21965e-08
-8.45743e-07
1.3907e-07
-6.4988e-07
1.83485e-07
-5.51247e-07
2.02623e-07
-1.90007e-07
1.8286e-07
2.58005e-07
1.45559e-07
4.44426e-07
1.06734e-07
5.23943e-07
6.84525e-08
3.6294e-07
1.00416e-07
1.46458e-07
9.61197e-08
1.09143e-07
5.55776e-08
4.02032e-07
5.76533e-08
1.55253e-07
7.37444e-08
-1.2246e-07
1.31004e-07
-1.27101e-07
1.41557e-07
1.88458e-07
1.02257e-07
2.6745e-07
5.99878e-08
1.61097e-07
7.0068e-08
9.8848e-08
1.05472e-07
-2.27958e-08
7.93496e-08
-4.19713e-08
3.86828e-08
-2.708e-08
3.67538e-08
-3.43999e-09
4.82714e-08
2.84109e-08
4.15457e-08
7.10793e-08
4.14157e-08
8.74108e-08
4.2971e-08
6.48054e-08
1.93923e-08
2.90779e-08
1.96245e-08
-2.10852e-08
-1.19082e-08
-7.96043e-09
3.39369e-08
-7.56947e-07
9.2111e-08
-9.03918e-07
1.40413e-07
-6.98182e-07
1.87038e-07
-5.97872e-07
2.0799e-07
-2.10959e-07
1.86736e-07
2.79259e-07
1.47521e-07
4.8364e-07
1.02529e-07
5.68935e-07
6.40206e-08
4.01448e-07
1.06811e-07
1.03668e-07
7.63923e-08
1.39562e-07
-9.97322e-09
4.88398e-07
-9.776e-09
1.55055e-07
4.12922e-08
-1.73529e-07
1.05213e-07
-1.91022e-07
7.44947e-08
2.19176e-07
6.92808e-08
2.72664e-07
8.16852e-08
1.48693e-07
7.20546e-08
1.08479e-07
4.2063e-08
7.19581e-09
-3.27439e-08
3.28361e-08
-5.96032e-08
-2.19305e-10
-3.0616e-08
-3.24265e-08
1.82019e-08
-2.04076e-08
4.86078e-08
4.06739e-08
6.62115e-08
6.98102e-08
7.54445e-08
5.55832e-08
5.63234e-08
4.82039e-08
5.6414e-08
1.95339e-08
-1.41175e-08
6.1571e-09
3.23285e-08
-8.03393e-07
9.20195e-08
-9.63609e-07
1.41802e-07
-7.47965e-07
1.90648e-07
-6.46717e-07
2.13947e-07
-2.34259e-07
1.91043e-07
3.02163e-07
1.46472e-07
5.28212e-07
1.10293e-07
6.05114e-07
6.25188e-08
4.49222e-07
1.05237e-07
6.09495e-08
7.27643e-08
1.72035e-07
-3.53283e-08
5.9649e-07
-1.71941e-08
1.36921e-07
4.45701e-08
-2.35293e-07
1.10997e-07
-2.57446e-07
8.9602e-08
2.40571e-07
7.32745e-08
2.88991e-07
7.39287e-08
1.48038e-07
4.59026e-08
1.36505e-07
-3.05862e-08
8.36846e-08
-1.22084e-07
1.24339e-07
-1.30969e-07
8.66593e-09
-1.00678e-07
-6.27167e-08
-5.8425e-08
-6.26607e-08
-2.05417e-08
2.78762e-09
7.48936e-09
4.17798e-08
2.82324e-08
3.48379e-08
2.94571e-08
4.69777e-08
7.02916e-08
1.55796e-08
-1.65038e-08
2.26609e-08
3.05418e-08
-8.50438e-07
9.19004e-08
-1.02497e-06
1.43114e-07
-7.99179e-07
1.94019e-07
-6.97621e-07
2.19965e-07
-2.60205e-07
1.92851e-07
3.29276e-07
1.5259e-07
5.68474e-07
8.22732e-08
6.75431e-07
3.07008e-08
5.00794e-07
1.19497e-07
-2.7847e-08
8.27827e-08
2.08749e-07
9.46084e-10
6.78327e-07
1.07483e-09
1.36792e-07
3.0678e-08
-2.64896e-07
1.12046e-07
-3.36649e-07
1.0691e-07
2.45815e-07
7.11933e-08
3.24708e-07
3.30193e-09
2.1593e-07
1.28234e-08
1.26983e-07
2.36185e-08
7.23798e-08
-8.49119e-08
2.3287e-07
-1.37997e-07
6.17512e-08
-1.42748e-07
-5.79553e-08
-1.22161e-07
-8.32519e-08
-8.98524e-08
-2.95247e-08
-6.33919e-08
1.53155e-08
-3.29341e-08
4.37671e-09
-1.08174e-08
2.48578e-08
5.74201e-08
2.04839e-09
-1.91064e-08
4.17673e-08
2.85039e-08
-8.98049e-07
9.16661e-08
-1.08813e-06
1.43893e-07
-8.51406e-07
1.96021e-07
-7.4975e-07
2.20903e-07
-2.85087e-07
1.88053e-07
3.62127e-07
1.34488e-07
6.22038e-07
1.29538e-07
6.80381e-07
4.31967e-08
5.87136e-07
1.0147e-07
-8.61205e-08
1.35297e-07
1.74923e-07
3.00909e-08
7.83533e-07
-1.17526e-08
1.78636e-07
-2.97855e-09
-2.73564e-07
1.14367e-07
-4.54014e-07
1.61494e-07
1.99272e-07
8.23605e-08
4.03842e-07
-1.03233e-08
3.08526e-07
-3.85551e-08
1.53912e-07
4.28913e-08
-9.23138e-09
3.27768e-08
2.42766e-07
-2.50135e-08
1.19541e-07
-5.80161e-08
-2.49526e-08
-8.42432e-08
-5.70248e-08
-8.37561e-08
-3.00117e-08
-6.54801e-08
-2.96078e-09
-5.25305e-08
-8.57137e-09
-3.31303e-08
5.46073e-09
2.81971e-08
-3.90443e-09
-2.15089e-08
6.32762e-08
2.59541e-08
-9.45512e-07
9.09151e-08
-1.15309e-06
1.42681e-07
-9.03171e-07
1.91322e-07
-7.98391e-07
2.04334e-07
-2.98098e-07
1.50283e-07
4.16177e-07
1.43196e-07
6.29126e-07
9.17956e-08
7.31781e-07
3.50327e-08
6.43899e-07
1.25257e-07
-1.76094e-07
1.10049e-07
1.83339e-07
1.98794e-08
8.73461e-07
4.97532e-09
1.9354e-07
1.06301e-08
-2.79313e-07
6.50239e-08
-5.08425e-07
8.43715e-08
1.80797e-07
1.91282e-08
4.69086e-07
6.36915e-08
2.63837e-07
1.59596e-08
2.01641e-07
2.76385e-08
-2.09129e-08
7.95245e-08
1.90741e-07
3.40808e-08
1.65006e-07
7.95079e-09
1.17738e-09
-1.57109e-08
-3.33631e-08
-2.58373e-08
-1.98854e-08
-2.11942e-08
-7.60426e-09
-2.21959e-08
-7.56918e-09
-2.12127e-08
4.47804e-09
1.43532e-08
-7.36768e-09
-2.58887e-08
8.91649e-08
2.20697e-08
-9.9347e-07
8.8114e-08
-1.21913e-06
1.34997e-07
-9.50054e-07
1.66961e-07
-8.30355e-07
1.50236e-07
-2.81373e-07
7.97363e-08
4.86676e-07
2.3142e-08
6.8572e-07
-5.89484e-09
7.60818e-07
4.17819e-09
6.33826e-07
-9.36743e-08
-7.27669e-08
-1.15777e-07
1.99446e-07
-5.4896e-08
8.13427e-07
-1.59343e-09
1.40232e-07
4.69078e-08
-3.26172e-07
2.09238e-08
-4.82461e-07
-4.3765e-08
2.452e-07
-7.506e-08
5.00381e-07
4.15516e-08
1.47226e-07
3.18051e-08
2.11775e-07
1.67425e-08
-5.85283e-09
7.65055e-08
1.31821e-07
6.25178e-08
1.79007e-07
2.41391e-08
3.95562e-08
-8.42741e-10
-8.38128e-09
4.61329e-09
-2.53341e-08
9.78379e-09
-1.27715e-08
5.87811e-09
-3.6626e-09
-5.10206e-09
1.54582e-08
2.49865e-08
-1.57353e-08
-2.05504e-08
1.09715e-07
1.44553e-08
-1.02848e-06
7.85123e-08
-1.28319e-06
1.10731e-07
-9.82273e-07
1.14844e-07
-8.34467e-07
8.18582e-08
-2.48389e-07
6.51762e-09
5.62017e-07
5.88058e-08
5.69113e-07
8.28708e-08
7.31805e-07
-1.25198e-07
8.40836e-07
-1.89269e-07
-8.90284e-09
-8.62094e-08
9.69363e-08
-1.71232e-07
8.99179e-07
-8.47051e-08
5.41237e-08
6.77192e-08
-4.78552e-07
-8.85948e-09
-4.05807e-07
-1.18869e-07
3.54729e-07
-1.5339e-07
5.34903e-07
-1.08987e-08
4.73499e-09
5.57149e-08
1.4562e-07
2.86183e-10
4.95737e-08
3.87674e-08
9.36635e-08
4.04697e-08
1.77305e-07
-1.07835e-08
9.08096e-08
-1.86602e-08
-4.9914e-10
-1.884e-09
-4.21107e-08
-1.24172e-09
-1.34142e-08
-1.93737e-09
-2.96737e-09
-9.74066e-09
2.32612e-08
3.67977e-08
-2.15522e-08
-4.31133e-08
1.52829e-07
-1.73497e-09
-1.06985e-06
5.14629e-08
-1.33639e-06
6.40575e-08
-9.94867e-07
7.16382e-08
-8.41997e-07
-8.23823e-09
-1.10434e-07
-2.47921e-07
3.96015e-07
-1.58191e-07
3.83134e-07
-2.488e-08
5.98783e-07
-1.83757e-07
1.00587e-06
-2.6847e-07
7.43054e-08
-2.26876e-07
5.43073e-08
-3.11705e-07
9.84387e-07
-2.11393e-07
-4.62227e-08
-3.36865e-08
-6.58089e-07
-5.54731e-08
-3.83976e-07
-5.25916e-08
3.49548e-07
-3.09734e-08
5.13285e-07
3.1274e-08
-5.73783e-08
4.40483e-08
1.32874e-07
-5.23113e-08
1.46251e-07
-4.4715e-08
8.6067e-08
-1.58661e-08
1.48455e-07
-4.63776e-08
1.21321e-07
-4.3512e-08
-3.36836e-09
-3.13626e-08
-5.42659e-08
-3.00844e-08
-1.47037e-08
-1.87527e-08
-1.43025e-08
-1.28205e-08
1.73293e-08
3.35379e-08
-9.56153e-09
5.94276e-09
1.46886e-07
-3.30736e-08
-1.03084e-06
-4.30107e-09
-1.36516e-06
2.84846e-08
-1.0276e-06
1.2905e-07
-5.72232e-07
1.34856e-08
-5.84776e-09
-3.22318e-07
2.07023e-07
-5.10728e-07
4.32929e-07
-2.1745e-07
3.05796e-07
-6.9582e-08
8.58275e-07
-3.34883e-07
3.407e-07
-3.02519e-07
2.23622e-08
-2.26848e-07
9.01078e-07
-2.13674e-07
-5.93864e-08
-1.15977e-07
-7.55772e-07
-1.30942e-07
-3.69122e-07
-3.7697e-08
2.56113e-07
2.6653e-08
4.48935e-07
-4.97884e-08
1.88841e-08
-1.1831e-07
2.01213e-07
-1.67445e-07
1.95449e-07
-8.07595e-08
-6.19002e-10
-5.44085e-09
7.31335e-08
-4.67303e-08
1.62605e-07
-6.11654e-08
1.10548e-08
-5.02525e-08
-6.5179e-08
-3.35106e-08
-3.14458e-08
-2.30789e-08
-2.47345e-08
-1.10973e-08
5.34765e-09
2.07833e-08
1.65751e-09
-6.82776e-08
2.15163e-07
-7.94312e-08
-1.01968e-06
-7.5503e-08
-1.36908e-06
1.65058e-07
-8.2704e-07
7.68759e-09
-2.24559e-08
-6.79123e-08
-3.00432e-09
-4.83543e-07
1.43424e-07
-5.99757e-07
3.20447e-07
-4.04807e-07
7.39449e-08
-1.36888e-07
5.9066e-07
-3.96199e-07
6.00523e-07
-2.74807e-07
-9.75847e-08
-4.46993e-08
6.68756e-07
-1.49439e-07
4.53817e-08
-2.47777e-07
-6.57421e-07
-2.82019e-07
-3.3453e-07
-1.62006e-07
1.35839e-07
-1.19359e-07
4.05061e-07
-2.00925e-07
1.00049e-07
-1.94151e-07
1.94453e-07
-1.56128e-07
1.57424e-07
-8.09179e-08
-7.58293e-08
4.30829e-09
-1.20941e-08
-5.08319e-09
1.71987e-07
-2.77328e-08
3.37008e-08
-2.45661e-08
-6.83459e-08
-1.42826e-08
-4.17304e-08
-1.37177e-08
-2.53003e-08
-6.96991e-09
-1.40018e-09
1.22991e-08
1.51428e-09
-3.65482e-09
2.18818e-07
-1.19682e-07
-9.03657e-07
-2.34864e-08
-1.1073e-06
6.12701e-09
-1.25143e-07
-1.62417e-08
-1.97788e-11
-9.25672e-08
4.57484e-09
-3.73265e-07
2.72338e-08
-5.54336e-07
1.20773e-07
-5.86754e-07
5.73841e-10
-3.03532e-07
2.85187e-07
-4.18489e-07
7.1552e-07
-3.24319e-07
-1.92214e-07
-2.86753e-08
3.76802e-07
-1.3408e-07
1.50797e-07
-3.47366e-07
-4.44126e-07
-4.1756e-07
-2.64095e-07
-2.83981e-07
2.32254e-09
-2.19786e-07
3.4037e-07
-2.24201e-07
1.04462e-07
-1.63226e-07
1.33475e-07
-8.45861e-08
7.87821e-08
-1.01775e-07
-5.86414e-08
-7.96693e-08
-3.42024e-08
1.94469e-08
7.28671e-08
4.31999e-08
9.94462e-09
1.123e-08
-3.63423e-08
-6.17332e-10
-2.95731e-08
-5.83468e-09
-1.95634e-08
-6.03193e-09
-1.16408e-09
7.747e-09
-2.08608e-09
-1.2069e-07
3.39509e-07
-1.82529e-08
-1.00609e-06
1.19193e-07
-4.20643e-07
-1.07426e-10
-5.8346e-09
2.33526e-13
-5.84855e-12
-3.18997e-09
-1.27727e-10
-1.32338e-07
-6.07918e-09
-4.99741e-07
1.69884e-08
-6.81535e-07
-7.4437e-08
-4.83967e-07
3.53897e-08
-4.84062e-07
7.1592e-07
-4.47672e-07
-2.38335e-07
-1.6486e-07
9.40015e-08
-1.35242e-07
1.21188e-07
-3.37588e-07
-2.41772e-07
-4.43738e-07
-1.57869e-07
-3.4602e-07
-9.54075e-08
-2.05259e-07
1.99605e-07
-1.54476e-07
5.36758e-08
-6.66814e-08
4.56784e-08
2.36397e-08
-8.90338e-09
-1.946e-08
-4.76483e-09
-5.16316e-08
2.88829e-09
2.55544e-08
-1.08438e-08
4.90751e-08
-1.02225e-08
2.48305e-08
1.16044e-11
5.41451e-09
4.79502e-10
-1.00519e-08
8.32583e-10
-9.93809e-09
-3.16325e-11
-5.80252e-16
-3.02214e-09
6.11044e-08
2.78404e-07
3.1967e-07
-3.07515e-07
5.83154e-09
-6.52765e-09
3.96642e-12
-3.62376e-11
2.30851e-11
-9.95824e-12
-1.10783e-10
-3.01511e-13
-6.21902e-09
-7.97763e-11
-1.24349e-07
-4.06791e-09
-5.25014e-07
-3.59013e-08
-6.0726e-07
-1.17261e-07
-5.14811e-07
6.29851e-07
-5.38511e-07
-2.27903e-07
-2.85982e-07
-1.5849e-07
-1.55686e-07
-8.97875e-09
-3.05505e-07
-7.73158e-08
-3.99609e-07
-1.56067e-08
-3.94354e-07
-3.86674e-08
-1.67444e-07
9.46248e-09
-2.95889e-08
-4.13158e-11
1.95111e-08
-1.80141e-11
2.28715e-08
-1.02677e-12
1.56252e-08
1.38532e-10
2.33158e-08
-1.35815e-10
1.78619e-08
-3.04954e-12
1.03244e-08
8.15587e-11
5.51677e-09
-5.40411e-11
7.31594e-10
-2.68591e-11
3.1676e-11
1.39381e-12
-4.8345e-17
4.05337e-14
-2.82885e-15
-2.05848e-17
1.38061e-08
-2.27817e-08
4.56425e-08
-3.19951e-08
8.43239e-08
-3.8846e-08
9.89218e-08
-1.47805e-08
1.26983e-07
-2.82641e-08
1.77595e-07
-5.08267e-08
2.35894e-07
-5.72418e-08
2.40352e-07
-3.39993e-09
1.58969e-07
8.13885e-08
5.46971e-08
1.04278e-07
1.47654e-08
3.98158e-08
9.81198e-09
4.94223e-09
2.71523e-08
-1.73527e-08
5.76136e-08
-3.02067e-08
7.08334e-08
-1.32198e-08
6.20058e-08
8.82761e-09
4.42839e-08
1.77219e-08
3.2457e-08
1.18268e-08
9.95943e-09
2.24976e-08
-7.97396e-09
1.79334e-08
-3.25941e-08
2.46201e-08
-5.71131e-08
2.4519e-08
-8.32578e-08
2.61447e-08
-1.04359e-07
2.11008e-08
-1.13514e-07
9.1554e-09
-1.02757e-07
-1.07566e-08
-8.45441e-08
-1.82134e-08
-5.40527e-08
-3.04914e-08
-2.07745e-08
-3.32782e-08
-2.07745e-08
3.66336e-08
-6.06302e-08
7.70919e-08
-7.28366e-08
1.23373e-07
-8.5645e-08
1.59174e-07
-5.07723e-08
2.11246e-07
-8.02032e-08
2.64166e-07
-1.03628e-07
3.03395e-07
-9.63384e-08
3.28507e-07
-2.85738e-08
2.8474e-07
1.25064e-07
1.81938e-07
2.07089e-07
9.78842e-08
1.23889e-07
7.05127e-08
3.21509e-08
7.70262e-08
-2.38476e-08
6.51259e-08
-1.8049e-08
5.49617e-08
-3.05553e-09
3.36973e-08
3.0092e-08
-8.70347e-09
6.01227e-08
-2.21734e-08
2.52968e-08
-5.61641e-08
5.64882e-08
-7.70671e-08
3.88363e-08
-1.02988e-07
5.05408e-08
-1.28391e-07
4.99219e-08
-1.47692e-07
4.54461e-08
-1.61193e-07
3.46016e-08
-1.57225e-07
5.18707e-09
-1.32122e-07
-3.5859e-08
-9.97627e-08
-5.05728e-08
-5.36032e-08
-7.66508e-08
-1.23961e-08
-7.44854e-08
-3.31706e-08
3.4556e-08
-9.5749e-08
6.15104e-08
-9.97908e-08
8.19519e-08
-1.06086e-07
1.49902e-07
-1.18722e-07
2.02237e-07
-1.32531e-07
2.51679e-07
-1.53008e-07
2.90574e-07
-1.35071e-07
3.20628e-07
-5.82799e-08
3.19284e-07
1.2658e-07
2.59726e-07
2.66656e-07
1.71468e-07
2.12139e-07
1.13479e-07
8.99533e-08
7.70141e-08
1.24708e-08
2.90639e-08
3.00258e-08
1.12284e-08
1.47854e-08
-8.34471e-09
4.96651e-08
-5.21118e-08
1.0389e-07
-5.26693e-08
2.58544e-08
-8.37825e-08
8.76014e-08
-1.01286e-07
5.634e-08
-1.19924e-07
6.91789e-08
-1.42883e-07
7.28804e-08
-1.56124e-07
5.86875e-08
-1.65936e-07
4.44135e-08
-1.57931e-07
-2.81848e-09
-1.29749e-07
-6.40403e-08
-9.50557e-08
-8.52666e-08
-4.69417e-08
-1.24765e-07
-6.36313e-09
-1.15064e-07
-3.95337e-08
2.14725e-08
-1.25105e-07
4.834e-08
-1.26658e-07
7.93312e-08
-1.37077e-07
1.38666e-07
-1.7778e-07
1.8224e-07
-1.75835e-07
1.95351e-07
-1.66166e-07
2.08074e-07
-1.47845e-07
2.40189e-07
-9.04521e-08
2.66575e-07
1.0013e-07
2.6069e-07
2.72028e-07
2.14699e-07
2.58535e-07
1.44544e-07
1.60042e-07
7.38441e-08
8.31676e-08
3.7528e-10
1.03559e-07
-2.07413e-08
3.59021e-08
-3.82334e-08
6.71572e-08
-7.90178e-08
1.44674e-07
-6.49536e-08
1.17901e-08
-8.69576e-08
1.09605e-07
-1.0738e-07
7.67624e-08
-1.21272e-07
8.3071e-08
-1.44533e-07
9.61416e-08
-1.56071e-07
7.02253e-08
-1.65527e-07
5.38691e-08
-1.56967e-07
-1.13779e-08
-1.28185e-07
-9.28225e-08
-9.31416e-08
-1.2031e-07
-4.47434e-08
-1.73163e-07
-4.33224e-09
-1.55475e-07
-4.38659e-08
1.05344e-09
-1.37716e-07
1.6637e-08
-1.4219e-07
4.64159e-08
-1.66328e-07
7.81788e-08
-2.09589e-07
1.03272e-07
-2.00967e-07
1.09128e-07
-1.72085e-07
1.17149e-07
-1.56124e-07
1.44058e-07
-1.17819e-07
1.92775e-07
5.13522e-08
2.21545e-07
2.44694e-07
2.02783e-07
2.77986e-07
1.34768e-07
2.27984e-07
4.86479e-08
1.69286e-07
-3.06085e-08
1.82816e-07
-4.80674e-08
5.33609e-08
-5.64245e-08
7.55143e-08
-9.43086e-08
1.82558e-07
-7.0631e-08
-1.18875e-08
-8.00392e-08
1.19014e-07
-1.09454e-07
1.06177e-07
-1.20635e-07
9.4252e-08
-1.44988e-07
1.20494e-07
-1.56223e-07
8.14603e-08
-1.65991e-07
6.36373e-08
-1.57379e-07
-1.999e-08
-1.2817e-07
-1.22031e-07
-9.28465e-08
-1.55634e-07
-4.41634e-08
-2.21846e-07
-3.57732e-09
-1.96061e-07
-4.74432e-08
-1.91621e-08
-1.2988e-07
-2.35545e-08
-1.37692e-07
-1.71779e-08
-1.72752e-07
-2.12919e-08
-2.05547e-07
-1.50657e-08
-2.07912e-07
-4.69144e-09
-1.83092e-07
9.25335e-09
-1.70385e-07
5.21655e-08
-1.60659e-07
1.04137e-07
-5.19344e-10
1.35645e-07
2.13715e-07
1.35398e-07
2.78441e-07
8.31782e-08
2.8022e-07
4.72637e-09
2.4774e-07
-5.9868e-08
2.4741e-07
-7.44345e-08
6.79274e-08
-6.38902e-08
6.497e-08
-9.07884e-08
2.09456e-07
-7.22633e-08
-3.04126e-08
-7.22201e-08
1.1897e-07
-1.10525e-07
1.44482e-07
-1.20673e-07
1.044e-07
-1.45475e-07
1.45297e-07
-1.56817e-07
9.28018e-08
-1.6693e-07
7.37504e-08
-1.58279e-07
-2.86411e-08
-1.28555e-07
-1.51755e-07
-9.28826e-08
-1.91306e-07
-4.38529e-08
-2.70876e-07
-3.03482e-09
-2.36879e-07
-5.0478e-08
-3.14085e-08
-1.13594e-07
-4.70827e-08
-1.22013e-07
-7.2386e-08
-1.48044e-07
-1.06861e-07
-1.72115e-07
-1.2362e-07
-1.91151e-07
-1.21442e-07
-1.85182e-07
-9.32315e-08
-1.98363e-07
-5.56823e-08
-1.98013e-07
-3.60691e-09
-5.26008e-08
4.27178e-08
1.67371e-07
5.89719e-08
2.62162e-07
2.75479e-08
3.11634e-07
-2.4907e-08
3.00197e-07
-6.74287e-08
2.89932e-07
-8.93654e-08
8.98641e-08
-5.48676e-08
3.04722e-08
-6.16972e-08
2.16286e-07
-7.0627e-08
-2.14828e-08
-6.88147e-08
1.17158e-07
-1.11447e-07
1.87115e-07
-1.21735e-07
1.14687e-07
-1.45905e-07
1.69467e-07
-1.57657e-07
1.04554e-07
-1.68098e-07
8.41914e-08
-1.59407e-07
-3.73314e-08
-1.29059e-07
-1.82103e-07
-9.29622e-08
-2.27403e-07
-4.35204e-08
-3.20317e-07
-2.43617e-09
-2.77964e-07
-5.29141e-08
-3.50683e-08
-8.99955e-08
-6.69497e-08
-9.01565e-08
-1.11085e-07
-1.03909e-07
-1.49275e-07
-1.33925e-07
-1.81027e-07
-1.59399e-07
-1.94684e-07
-1.71169e-07
-1.74711e-07
-2.18352e-07
-1.51991e-07
-2.20753e-07
-1.20014e-07
-8.45366e-08
-7.46099e-08
1.21785e-07
-5.35172e-08
2.41075e-07
-3.24134e-08
2.90542e-07
-2.94261e-08
2.9721e-07
-4.69796e-08
3.07485e-07
-7.26072e-08
1.15492e-07
-2.99301e-08
-1.22049e-08
-2.77074e-08
2.14063e-07
-7.02966e-08
2.11064e-08
-7.1152e-08
1.18013e-07
-1.12486e-07
2.28449e-07
-1.23928e-07
1.26128e-07
-1.46187e-07
1.91726e-07
-1.58672e-07
1.17039e-07
-1.69465e-07
9.49842e-08
-1.60736e-07
-4.60602e-08
-1.29648e-07
-2.13191e-07
-9.30447e-08
-2.64007e-07
-4.31193e-08
-3.70243e-07
-1.71642e-09
-3.19367e-07
-5.46305e-08
-2.96215e-08
-6.36034e-08
-6.91181e-08
-5.066e-08
-1.15738e-07
-5.72884e-08
-1.55504e-07
-9.41584e-08
-1.8684e-07
-1.2806e-07
-2.02698e-07
-1.55351e-07
-2.04724e-07
-2.16468e-07
-2.07171e-07
-2.18341e-07
-1.98941e-07
-9.27895e-08
-1.64377e-07
8.71892e-08
-1.3276e-07
2.08825e-07
-7.11647e-08
2.28947e-07
-4.53319e-08
2.71377e-07
-2.86141e-08
2.90767e-07
-2.86499e-08
1.15527e-07
-6.67099e-09
-3.41837e-08
-1.71154e-08
2.24508e-07
-7.6778e-08
8.07689e-08
-7.93888e-08
1.20624e-07
-1.11948e-07
2.61008e-07
-1.27195e-07
1.41376e-07
-1.46384e-07
2.10916e-07
-1.59776e-07
1.3043e-07
-1.7105e-07
1.06259e-07
-1.62268e-07
-5.48424e-08
-1.3032e-07
-2.45139e-07
-9.31213e-08
-3.01206e-07
-4.26409e-08
-4.20723e-07
-8.5048e-10
-3.61157e-07
-5.54809e-08
-2.3884e-08
-4.00758e-08
-5.594e-08
-1.86041e-08
-9.22597e-08
-2.09682e-08
-1.23697e-07
-6.27175e-08
-1.50252e-07
-1.0151e-07
-1.71383e-07
-1.3422e-07
-1.91064e-07
-1.96787e-07
-2.06393e-07
-2.03137e-07
-2.02545e-07
-9.66426e-08
-1.65345e-07
4.99598e-08
-1.25173e-07
1.68634e-07
-7.52179e-08
1.78992e-07
-6.34208e-08
2.5958e-07
-2.60715e-08