/*--------------------------------*- C++ -*----------------------------------*\
| =========                 |                                                 |
| \\      /  F ield         | OpenFOAM: The Open Source CFD Toolbox           |
|  \\    /   O peration     | Version:  2.4.0                                 |
|   \\  /    A nd           | Web:      www.OpenFOAM.org                      |
|    \\/     M anipulation  |                                                 |
\*---------------------------------------------------------------------------*/
FoamFile
{
    version     2.0;
    format      ascii;
    class       surfaceScalarField;
    location    "0.009";
    object      phiAlpha;
}
// * * * * * * * * * * * * * * * * * * * * * * * * * * * * * * * * * * * * * //

dimensions      [0 3 -1 0 0 0 0];

internalField   nonuniform List<scalar> 
28560
(
-2.14774e-10
5.01155e-10
-2.86381e-10
4.62656e-10
-7.46404e-10
2.83748e-10
1.12266e-09
-1.58199e-09
4.5933e-10
2.20206e-09
-2.95331e-09
7.51242e-10
3.94817e-09
-5.12387e-09
1.17571e-09
6.64043e-09
-8.38438e-09
1.74395e-09
1.0575e-08
-1.30279e-08
2.45291e-09
1.603e-08
-1.93051e-08
3.27515e-09
2.32116e-08
-2.73627e-08
4.15112e-09
3.21837e-08
-3.71673e-08
4.98356e-09
4.27946e-08
-4.84419e-08
5.64727e-09
5.46267e-08
-6.0636e-08
6.00933e-09
6.69991e-08
-7.29622e-08
5.9631e-09
7.90377e-08
-8.44941e-08
5.45635e-09
8.97964e-08
-9.43056e-08
4.50919e-09
9.84101e-08
-1.0162e-07
3.21031e-09
1.04222e-07
-1.05911e-07
1.6886e-09
1.0685e-07
-1.06939e-07
8.86759e-11
1.06208e-07
-1.0476e-07
-1.44865e-09
1.02493e-07
-9.96906e-08
-2.80233e-09
9.6133e-08
-9.22475e-08
-3.88542e-09
8.77097e-08
-8.30507e-08
-4.65898e-09
7.78616e-08
-7.2732e-08
-5.12956e-09
6.7192e-08
-6.18615e-08
-5.33048e-09
5.6228e-08
-5.09053e-08
-5.32269e-09
4.53751e-08
-4.02228e-08
-5.15233e-09
3.49316e-08
-3.00522e-08
-4.87936e-09
2.50903e-08
-2.05498e-08
-4.54051e-09
1.59638e-08
-1.17918e-08
-4.17202e-09
7.59746e-09
-3.80409e-09
-3.79336e-09
-7.94772e-10
1.08833e-09
-2.93562e-10
6.32698e-10
-1.02118e-09
-6.62712e-10
1.05119e-09
1.53697e-09
-2.16744e-09
-1.07419e-09
1.70466e-09
3.01976e-09
-4.0538e-09
-1.75927e-09
2.7933e-09
5.42543e-09
-7.04919e-09
-2.75787e-09
4.38163e-09
9.14794e-09
-1.15665e-08
-4.09901e-09
6.51756e-09
1.46119e-08
-1.80311e-08
-5.7794e-09
9.19853e-09
2.22284e-08
-2.68227e-08
-7.73977e-09
1.2334e-08
3.23231e-08
-3.81924e-08
-9.84629e-09
1.57155e-08
4.50405e-08
-5.2155e-08
-1.18743e-08
1.89888e-08
6.02321e-08
-6.83839e-08
-1.35261e-08
2.1678e-08
7.73635e-08
-8.61377e-08
-1.4472e-08
2.32462e-08
9.54772e-08
-1.04269e-07
-1.44289e-08
2.32203e-08
1.13255e-07
-1.21338e-07
-1.32371e-08
2.13199e-08
1.29186e-07
-1.35834e-07
-1.09214e-08
1.75693e-08
1.41835e-07
-1.46459e-07
-7.70014e-09
1.23242e-08
1.5011e-07
-1.5236e-07
-3.91938e-09
6.16918e-09
1.53434e-07
-1.53239e-07
2.42978e-11
-2.19602e-10
1.51797e-07
-1.49324e-07
3.75406e-09
-6.22754e-09
1.45656e-07
-1.41265e-07
6.97572e-09
-1.1367e-08
1.35812e-07
-1.29959e-07
9.49736e-09
-1.53499e-08
1.2322e-07
-1.16383e-07
1.12521e-08
-1.80885e-08
1.08845e-07
-1.0146e-07
1.22809e-08
-1.96663e-08
9.35429e-08
-8.59759e-08
1.26795e-08
-2.02466e-08
7.80219e-08
-7.05441e-08
1.26009e-08
-2.00788e-08
6.28047e-08
-5.56199e-08
1.21558e-08
-1.93407e-08
4.82612e-08
-4.14927e-08
1.14837e-08
-1.82523e-08
3.46204e-08
-2.83428e-08
1.06705e-08
-1.69481e-08
2.20087e-08
-1.62527e-08
9.79477e-09
-1.55508e-08
1.0468e-08
-5.24104e-09
8.90085e-09
-1.41278e-08
-1.38136e-09
1.67332e-09
-2.91963e-10
6.31327e-10
-1.01896e-09
-1.43974e-09
1.82737e-09
1.53362e-09
-2.16273e-09
-2.33529e-09
2.96441e-09
3.01328e-09
-4.0452e-09
-3.82756e-09
4.85949e-09
5.41413e-09
-7.03484e-09
-6.00595e-09
7.62665e-09
9.12984e-09
-1.15444e-08
-8.93735e-09
1.13519e-08
1.45852e-08
-1.79999e-08
-1.26201e-08
1.60348e-08
2.21929e-08
-2.67838e-08
-1.6933e-08
2.1524e-08
3.22824e-08
-3.81527e-08
-2.15939e-08
2.74643e-08
4.50063e-08
-5.21319e-08
-2.61195e-08
3.32451e-08
6.02287e-08
-6.84088e-08
-2.98562e-08
3.80363e-08
7.74302e-08
-8.62574e-08
-3.20594e-08
4.08866e-08
9.56676e-08
-1.04541e-07
-3.2063e-08
4.09365e-08
1.13629e-07
-1.2182e-07
-2.94625e-08
3.7654e-08
1.29794e-07
-1.36567e-07
-2.42783e-08
3.10516e-08
1.42704e-07
-1.47456e-07
-1.70025e-08
2.17546e-08
1.51237e-07
-1.53604e-07
-8.46053e-09
1.08271e-08
1.54791e-07
-1.54688e-07
3.88351e-10
-4.91139e-10
1.53332e-07
-1.50921e-07
8.68989e-09
-1.11003e-08
1.47301e-07
-1.42937e-07
1.5762e-08
-2.01266e-08
1.37492e-07
-1.31629e-07
2.12199e-08
-2.70829e-08
1.2486e-07
-1.1798e-07
2.49544e-08
-3.18348e-08
1.10381e-07
-1.02925e-07
2.70899e-08
-3.45459e-08
9.4923e-08
-8.72665e-08
2.7858e-08
-3.55145e-08
7.92123e-08
-7.16339e-08
2.76039e-08
-3.51823e-08
6.37866e-08
-5.64972e-08
2.65733e-08
-3.38626e-08
4.90287e-08
-4.21563e-08
2.50678e-08
-3.19402e-08
3.51772e-08
-2.88002e-08
2.327e-08
-2.96469e-08
2.23651e-08
-1.65163e-08
2.13482e-08
-2.7197e-08
1.06386e-08
-5.32632e-09
1.93933e-08
-2.47056e-08
-1.96427e-09
2.25381e-09
-2.89533e-10
6.27019e-10
-1.01198e-09
-2.21378e-09
2.59874e-09
1.5231e-09
-2.14789e-09
-3.5916e-09
4.21639e-09
2.99261e-09
-4.01754e-09
-5.88824e-09
6.91317e-09
5.37727e-09
-6.98719e-09
-9.24248e-09
1.08524e-08
9.06844e-09
-1.14674e-08
-1.37594e-08
1.61583e-08
1.4489e-08
-1.78828e-08
-1.944e-08
2.28338e-08
2.20512e-08
-2.66168e-08
-2.61035e-08
3.06691e-08
3.20878e-08
-3.79321e-08
-3.33229e-08
3.91672e-08
4.47605e-08
-5.18668e-08
-4.03621e-08
4.74684e-08
5.99513e-08
-6.81307e-08
-4.62163e-08
5.43957e-08
7.71666e-08
-8.60263e-08
-4.97286e-08
5.85883e-08
9.54939e-08
-1.04447e-07
-4.98462e-08
5.87993e-08
1.13647e-07
-1.21972e-07
-4.5906e-08
5.42313e-08
1.30114e-07
-1.3707e-07
-3.79072e-08
4.4863e-08
1.43418e-07
-1.48383e-07
-2.66028e-08
3.15685e-08
1.52397e-07
-1.54983e-07
-1.32927e-08
1.58793e-08
1.56395e-07
-1.5649e-07
5.04327e-10
-4.09354e-10
1.55322e-07
-1.53065e-07
1.34413e-08
-1.56978e-08
1.49576e-07
-1.45303e-07
2.44501e-08
-2.87234e-08
1.39919e-07
-1.34079e-07
3.29353e-08
-3.87746e-08
1.27301e-07
-1.20381e-07
3.87332e-08
-4.56533e-08
1.12711e-07
-1.05164e-07
4.20429e-08
-4.959e-08
9.70452e-08
-8.92612e-08
4.32285e-08
-5.10124e-08
8.1059e-08
-7.3331e-08
4.28282e-08
-5.05562e-08
6.53191e-08
-5.78699e-08
4.12241e-08
-4.86733e-08
5.02314e-08
-4.31982e-08
3.88853e-08
-4.59185e-08
3.60519e-08
-2.95197e-08
3.60938e-08
-4.2626e-08
2.2926e-08
-1.69314e-08
3.31112e-08
-3.91058e-08
1.0906e-08
-5.4602e-09
3.00783e-08
-3.55241e-08
-2.54201e-09
2.82838e-09
-2.86373e-10
6.21045e-10
-1.00232e-09
-2.98199e-09
3.36326e-09
1.5085e-09
-2.12728e-09
-4.83838e-09
5.45717e-09
2.96394e-09
-3.97914e-09
-7.93349e-09
8.94869e-09
5.32609e-09
-6.92103e-09
-1.24552e-08
1.40502e-08
8.98314e-09
-1.13604e-08
-1.8547e-08
2.09243e-08
1.43553e-08
-1.77199e-08
-2.62137e-08
2.95784e-08
2.1854e-08
-2.63842e-08
-3.5218e-08
3.97482e-08
3.18161e-08
-3.76236e-08
-4.49941e-08
5.08015e-08
4.44161e-08
-5.14945e-08
-5.45615e-08
6.16399e-08
5.95602e-08
-6.77368e-08
-6.25735e-08
7.07501e-08
7.67909e-08
-8.56935e-08
-6.74675e-08
7.63701e-08
9.52387e-08
-1.04301e-07
-6.78026e-08
7.68647e-08
1.13655e-07
-1.22166e-07
-6.26425e-08
7.11533e-08
1.30542e-07
-1.37753e-07
-5.19366e-08
5.91475e-08
1.44396e-07
-1.49662e-07
-3.66729e-08
4.19383e-08
1.54001e-07
-1.56897e-07
-1.8609e-08
2.1505e-08
1.58624e-07
-1.58998e-07
1.86321e-10
1.87009e-10
1.58097e-07
-1.56058e-07
1.78536e-08
-1.98924e-08
1.52754e-07
-1.48611e-07
3.29364e-08
-3.70793e-08
1.43314e-07
-1.3751e-07
4.45977e-08
-5.0402e-08
1.30721e-07
-1.23747e-07
5.25982e-08
-5.9572e-08
1.1598e-07
-1.08306e-07
5.71956e-08
-6.48692e-08
1.00024e-07
-9.20616e-08
5.88787e-08
-6.68408e-08
8.36525e-08
-7.57141e-08
5.83812e-08
-6.63195e-08
6.74716e-08
-5.9798e-08
5.62259e-08
-6.38995e-08
5.1921e-08
-4.46619e-08
5.30558e-08
-6.03149e-08
3.72812e-08
-3.05307e-08
4.92588e-08
-5.60093e-08
2.37138e-08
-1.75149e-08
4.51947e-08
-5.13936e-08
1.12826e-08
-5.64883e-09
4.10566e-08
-4.66904e-08
-3.11295e-09
3.39538e-09
-2.82429e-10
6.13404e-10
-9.89944e-10
-3.7423e-09
4.11884e-09
1.48982e-09
-2.10092e-09
-6.07236e-09
6.68347e-09
2.92724e-09
-3.93e-09
-9.95804e-09
1.09608e-08
5.26057e-09
-6.83631e-09
-1.56361e-08
1.72118e-08
8.8739e-09
-1.12233e-08
-2.32884e-08
2.56378e-08
1.41839e-08
-1.75111e-08
-3.29253e-08
3.62525e-08
2.16009e-08
-2.60854e-08
-4.42571e-08
4.87416e-08
3.14668e-08
-3.72262e-08
-5.65866e-08
6.23461e-08
4.39716e-08
-5.10127e-08
-6.87011e-08
7.57422e-08
5.90524e-08
-6.72231e-08
-7.89244e-08
8.7095e-08
7.62974e-08
-8.52517e-08
-8.52978e-08
9.42521e-08
9.48927e-08
-1.04091e-07
-8.59922e-08
9.51907e-08
1.13641e-07
-1.22387e-07
-7.9776e-08
8.85225e-08
1.31062e-07
-1.386e-07
-6.65131e-08
7.4051e-08
1.45625e-07
-1.51278e-07
-4.73862e-08
5.30389e-08
1.56039e-07
-1.59337e-07
-2.45903e-08
2.78885e-08
1.61476e-07
-1.62217e-07
-7.33292e-10
1.47492e-09
1.61666e-07
-1.59916e-07
2.17964e-08
-2.35463e-08
1.5686e-07
-1.52893e-07
4.11403e-08
-4.51067e-08
1.47718e-07
-1.41966e-07
5.61827e-08
-6.19345e-08
1.35168e-07
-1.28129e-07
6.65776e-08
-7.36165e-08
1.20239e-07
-1.12404e-07
7.26194e-08
-8.04543e-08
1.03912e-07
-9.57191e-08
7.49117e-08
-8.31047e-08
8.70416e-08
-7.88303e-08
7.43863e-08
-8.25976e-08
7.02872e-08
-6.23209e-08
7.17108e-08
-7.9677e-08
5.41325e-08
-4.65782e-08
6.77127e-08
-7.5267e-08
3.88906e-08
-3.18549e-08
6.28939e-08
-6.99296e-08
2.4746e-08
-1.8279e-08
5.77186e-08
-6.41857e-08
1.17754e-08
-5.89549e-09
5.24398e-08
-5.83197e-08
-3.67568e-09
3.9534e-09
-2.7772e-10
6.04225e-10
-9.75083e-10
-4.49269e-09
4.86354e-09
1.46737e-09
-2.06924e-09
-7.2902e-09
7.89207e-09
2.88314e-09
-3.87093e-09
-1.19564e-08
1.29442e-08
5.18182e-09
-6.73448e-09
-1.87766e-08
2.03293e-08
8.74257e-09
-1.10585e-08
-2.79713e-08
3.02872e-08
1.39777e-08
-1.72597e-08
-3.95582e-08
4.28402e-08
2.12962e-08
-2.57254e-08
-5.31998e-08
5.7629e-08
3.10455e-08
-3.67466e-08
-6.8078e-08
7.37791e-08
4.34343e-08
-5.04294e-08
-8.27619e-08
8.9757e-08
5.84362e-08
-6.65979e-08
-9.5262e-08
1.03424e-07
7.56945e-08
-8.47091e-08
-1.03236e-07
1.12251e-07
9.44636e-08
-1.03825e-07
-1.04468e-07
1.1383e-07
1.1361e-07
-1.22643e-07
-9.74064e-08
1.06439e-07
1.31682e-07
-1.39621e-07
-8.17804e-08
8.97189e-08
1.47115e-07
-1.53245e-07
-5.89192e-08
6.50497e-08
1.58529e-07
-1.62328e-07
-3.14245e-08
3.52232e-08
1.64981e-07
-1.66185e-07
-2.43488e-09
3.63819e-09
1.66078e-07
-1.64695e-07
2.51235e-08
-2.65063e-08
1.61958e-07
-1.58223e-07
4.89652e-08
-5.27005e-08
1.5321e-07
-1.47534e-07
6.7652e-08
-7.33277e-08
1.40736e-07
-1.33624e-07
8.06916e-08
-8.78036e-08
1.25588e-07
-1.17556e-07
8.83839e-08
-9.6416e-08
1.08804e-07
-1.00325e-07
9.1434e-08
-9.99135e-08
9.13122e-08
-8.2759e-08
9.09712e-08
-9.95243e-08
7.38391e-08
-6.5505e-08
8.78177e-08
-9.61519e-08
5.69248e-08
-4.89988e-08
8.29975e-08
-9.09235e-08
4.09242e-08
-3.35282e-08
7.71359e-08
-8.45319e-08
2.60507e-08
-1.9245e-08
7.08132e-08
-7.76188e-08
1.23989e-08
-6.20786e-09
6.43469e-08
-7.05378e-08
-4.22858e-09
4.50088e-09
-2.723e-10
5.93426e-10
-9.57593e-10
-5.23115e-09
5.59532e-09
1.44096e-09
-2.03195e-09
-8.48868e-09
9.07967e-09
2.83123e-09
-3.80139e-09
-1.39235e-08
1.48937e-08
5.08909e-09
-6.61455e-09
-2.18687e-08
2.33942e-08
8.58786e-09
-1.08643e-08
-3.2584e-08
3.48604e-08
1.37346e-08
-1.69632e-08
-4.60963e-08
4.93249e-08
2.09365e-08
-2.53e-08
-6.20265e-08
6.639e-08
3.0547e-08
-3.6178e-08
-7.94462e-08
8.50772e-08
4.27956e-08
-4.97339e-08
-9.67246e-08
1.03663e-07
5.76984e-08
-6.58451e-08
-1.11578e-07
1.19725e-07
7.49623e-08
-8.40416e-08
-1.21297e-07
1.30376e-07
9.39227e-08
-1.0347e-07
-1.23281e-07
1.32829e-07
1.13526e-07
-1.22892e-07
-1.15632e-07
1.24997e-07
1.32358e-07
-1.40769e-07
-9.78842e-08
1.06295e-07
1.48819e-07
-1.5552e-07
-7.14534e-08
7.81545e-08
1.61432e-07
-1.65835e-07
-3.93102e-08
4.37131e-08
1.69114e-07
-1.70883e-07
-5.11041e-09
6.87931e-09
1.71324e-07
-1.704e-07
2.76715e-08
-2.85954e-08
1.68068e-07
-1.64631e-07
5.62957e-08
-5.97328e-08
1.59835e-07
-1.5427e-07
7.89529e-08
-8.45181e-08
1.47489e-07
-1.40302e-07
9.49523e-08
-1.02139e-07
1.32102e-07
-1.23839e-07
1.04559e-07
-1.12821e-07
1.14779e-07
-1.05956e-07
1.08557e-07
-1.17381e-07
9.65383e-08
-8.75706e-08
1.08275e-07
-1.17243e-07
7.81922e-08
-6.94099e-08
1.04699e-07
-1.13481e-07
6.0351e-08
-5.19701e-08
9.90656e-08
-1.07447e-07
4.34216e-08
-3.5584e-08
9.21374e-08
-9.9975e-08
2.76539e-08
-2.04324e-08
8.46218e-08
-9.18433e-08
1.3165e-08
-6.59166e-09
7.691e-08
-8.34833e-08
-4.77028e-09
5.03641e-09
-2.66133e-10
5.81035e-10
-9.37526e-10
-5.9558e-09
6.31229e-09
1.41064e-09
-1.98915e-09
-9.66465e-09
1.02432e-08
2.77164e-09
-3.72157e-09
-1.58541e-08
1.6804e-08
4.98262e-09
-6.47683e-09
-2.49046e-08
2.63988e-08
8.41017e-09
-1.06411e-08
-3.71149e-08
3.93458e-08
1.34552e-08
-1.66222e-08
-5.25238e-08
5.56908e-08
2.05224e-08
-2.48098e-08
-7.07168e-08
7.50042e-08
2.99715e-08
-3.55203e-08
-9.06688e-08
9.62175e-08
4.2055e-08
-4.89247e-08
-1.10569e-07
1.17438e-07
5.68359e-08
-6.496e-08
-1.27862e-07
1.35986e-07
7.40936e-08
-8.32392e-08
-1.39489e-07
1.48634e-07
9.32564e-08
-1.03008e-07
-1.42477e-07
1.52229e-07
1.13368e-07
-1.2311e-07
-1.34545e-07
1.44288e-07
1.33065e-07
-1.4202e-07
-1.1497e-07
1.23925e-07
1.50715e-07
-1.58082e-07
-8.51765e-08
9.25432e-08
1.64731e-07
-1.69848e-07
-4.84591e-08
5.35764e-08
1.73872e-07
-1.76322e-07
-8.97266e-09
1.1422e-08
1.77426e-07
-1.77067e-07
2.92514e-08
-2.96101e-08
1.75241e-07
-1.72185e-07
6.29905e-08
-6.60467e-08
1.67676e-07
-1.62269e-07
9.0011e-08
-9.54178e-08
1.55534e-07
-1.4828e-07
1.0936e-07
-1.16614e-07
1.399e-07
-1.31375e-07
1.21212e-07
-1.29737e-07
1.21957e-07
-1.12728e-07
1.26399e-07
-1.35627e-07
1.02831e-07
-9.33693e-08
1.26447e-07
-1.35909e-07
8.34431e-08
-7.41236e-08
1.22521e-07
-1.3184e-07
6.44902e-08
-5.55621e-08
1.16089e-07
-1.25017e-07
4.64425e-08
-3.80716e-08
1.08067e-07
-1.16438e-07
2.95945e-08
-2.18701e-08
9.93049e-08
-1.07029e-07
1.40928e-08
-7.0565e-09
9.02774e-08
-9.73138e-08
-5.29926e-09
5.5585e-09
-2.59243e-10
5.67194e-10
-9.15103e-10
-6.66467e-09
7.01257e-09
1.37676e-09
-1.94131e-09
-1.08149e-08
1.13795e-08
2.70503e-09
-3.63233e-09
-1.7743e-08
1.86703e-08
4.86359e-09
-6.32284e-09
-2.7876e-08
2.93353e-08
8.21143e-09
-1.03915e-08
-4.15521e-08
4.37321e-08
1.31425e-08
-1.62404e-08
-5.88244e-08
6.19222e-08
2.00583e-08
-2.42597e-08
-7.92501e-08
8.34515e-08
2.9325e-08
-3.478e-08
-1.01721e-07
1.07176e-07
4.12193e-08
-4.80089e-08
-1.2427e-07
1.31059e-07
5.58559e-08
-6.39489e-08
-1.44096e-07
1.52189e-07
7.30936e-08
-8.23054e-08
-1.57814e-07
1.67026e-07
9.24659e-08
-1.02439e-07
-1.6209e-07
1.72063e-07
1.13132e-07
-1.23294e-07
-1.54235e-07
1.64396e-07
1.33797e-07
-1.43368e-07
-1.33179e-07
1.42751e-07
1.528e-07
-1.60931e-07
-1.0028e-07
1.08412e-07
1.68433e-07
-1.74384e-07
-5.90951e-08
6.50452e-08
1.79284e-07
-1.82539e-07
-1.42575e-08
1.75132e-08
1.84441e-07
-1.8477e-07
2.96426e-08
-2.93142e-08
1.83568e-07
-1.80994e-07
6.88763e-08
-7.14504e-08
1.76861e-07
-1.71676e-07
1.00723e-07
-1.05907e-07
1.65031e-07
-1.57726e-07
1.23897e-07
-1.31202e-07
1.49159e-07
-1.4034e-07
1.38405e-07
-1.47224e-07
1.30509e-07
-1.20808e-07
1.45084e-07
-1.54785e-07
1.10346e-07
-1.00302e-07
1.45651e-07
-1.55695e-07
8.9727e-08
-7.97699e-08
1.41466e-07
-1.51423e-07
6.94531e-08
-5.98729e-08
1.34258e-07
-1.43838e-07
5.00708e-08
-4.10619e-08
1.25114e-07
-1.34123e-07
3.19286e-08
-2.35999e-08
1.15043e-07
-1.23372e-07
1.52095e-08
-7.61602e-09
1.04616e-07
-1.1221e-07
-5.81415e-09
6.06583e-09
-2.51685e-10
5.51838e-10
-8.90218e-10
-7.35586e-09
7.69424e-09
1.33915e-09
-1.88821e-09
-1.19364e-08
1.24855e-08
2.63108e-09
-3.53324e-09
-1.95853e-08
2.04875e-08
4.73139e-09
-6.15178e-09
-3.07755e-08
3.21959e-08
7.99062e-09
-1.0114e-08
-4.58845e-08
4.80079e-08
1.27948e-08
-1.58154e-08
-6.49822e-08
6.80028e-08
1.95414e-08
-2.36463e-08
-8.76057e-08
9.17106e-08
2.86026e-08
-3.3951e-08
-1.12579e-07
1.17927e-07
4.02804e-08
-4.69758e-08
-1.37803e-07
1.44499e-07
5.47446e-08
-6.27946e-08
-1.60261e-07
1.68312e-07
7.19403e-08
-8.12126e-08
-1.76268e-07
1.8554e-07
9.15169e-08
-1.01721e-07
-1.8215e-07
1.92354e-07
1.12771e-07
-1.23388e-07
-1.7478e-07
1.85398e-07
1.34496e-07
-1.44753e-07
-1.52656e-07
1.62913e-07
1.55011e-07
-1.64008e-07
-1.16963e-07
1.25961e-07
1.72483e-07
-1.79392e-07
-7.14579e-08
7.83663e-08
1.85309e-07
-1.89513e-07
-2.12246e-08
2.54288e-08
1.9236e-07
-1.93515e-07
2.85921e-08
-2.7437e-08
1.93082e-07
-1.91116e-07
7.37381e-08
-7.57032e-08
1.87474e-07
-1.82601e-07
1.10949e-07
-1.15822e-07
1.7611e-07
-1.68788e-07
1.3852e-07
-1.45843e-07
1.60036e-07
-1.50897e-07
1.56199e-07
-1.65338e-07
1.40598e-07
-1.30351e-07
1.64749e-07
-1.74996e-07
1.19233e-07
-1.08508e-07
1.66067e-07
-1.76792e-07
9.71745e-08
-8.64707e-08
1.61738e-07
-1.72442e-07
7.53512e-08
-6.50025e-08
1.53786e-07
-1.64135e-07
5.4394e-08
-4.46285e-08
1.43494e-07
-1.5326e-07
3.47153e-08
-2.56667e-08
1.32044e-07
-1.41093e-07
1.65446e-08
-8.28563e-09
1.20121e-07
-1.2838e-07
-6.3135e-09
6.55693e-09
-2.43435e-10
5.35011e-10
-8.62942e-10
-8.02758e-09
8.35551e-09
1.29792e-09
-1.82997e-09
-1.30263e-08
1.35583e-08
2.54997e-09
-3.42455e-09
-2.13762e-08
2.22508e-08
4.58638e-09
-5.9641e-09
-3.35954e-08
3.49732e-08
7.74829e-09
-9.8094e-09
-5.01008e-08
5.21619e-08
1.24128e-08
-1.53483e-08
-7.0982e-08
7.39175e-08
1.89725e-08
-2.29703e-08
-9.57634e-08
9.97612e-08
2.7805e-08
-3.30333e-08
-1.23218e-07
1.28446e-07
3.92376e-08
-4.58239e-08
-1.51142e-07
1.57728e-07
5.34985e-08
-6.14912e-08
-1.76335e-07
1.84328e-07
7.06244e-08
-7.99472e-08
-1.9484e-07
2.04162e-07
9.03903e-08
-1.00829e-07
-2.02675e-07
2.13113e-07
1.12252e-07
-1.23358e-07
-1.96256e-07
2.07361e-07
1.35122e-07
-1.46133e-07
-1.73539e-07
1.84551e-07
1.57307e-07
-1.67272e-07
-1.35429e-07
1.45394e-07
1.76845e-07
-1.84844e-07
-8.58034e-08
9.38027e-08
1.91932e-07
-1.9724e-07
-3.01669e-08
3.54749e-08
2.01197e-07
-2.03346e-07
2.58065e-08
-2.36576e-08
2.03851e-07
-2.02648e-07
7.73091e-08
-7.85119e-08
1.99644e-07
-1.95201e-07
1.20498e-07
-1.24942e-07
1.88961e-07
-1.81677e-07
1.53155e-07
-1.6044e-07
1.72758e-07
-1.63275e-07
1.74647e-07
-1.84129e-07
1.52448e-07
-1.41571e-07
1.85547e-07
-1.96424e-07
1.2969e-07
-1.18173e-07
1.87899e-07
-1.99416e-07
1.05959e-07
-9.43888e-08
1.83564e-07
-1.95135e-07
8.2336e-08
-7.109e-08
1.74916e-07
-1.86162e-07
5.9535e-08
-4.8877e-08
1.63453e-07
-1.74111e-07
3.80396e-08
-2.81349e-08
1.50551e-07
-1.60456e-07
1.81399e-08
-9.08576e-09
1.37019e-07
-1.46073e-07
-6.79606e-09
7.03056e-09
-2.34506e-10
5.16857e-10
-8.33504e-10
-8.67797e-09
8.99461e-09
1.25341e-09
-1.7671e-09
-1.40814e-08
1.45951e-08
2.46239e-09
-3.30718e-09
-2.31108e-08
2.39556e-08
4.42974e-09
-5.76135e-09
-3.63283e-08
3.76599e-08
7.48643e-09
-9.48011e-09
-5.41901e-08
5.61838e-08
1.19997e-08
-1.48428e-08
-7.68078e-08
7.96508e-08
1.83562e-08
-2.2237e-08
-1.03702e-07
1.07583e-07
2.69381e-08
-3.20336e-08
-1.3361e-07
1.38705e-07
3.80978e-08
-4.45597e-08
-1.64254e-07
1.70716e-07
5.21237e-08
-6.00438e-08
-1.92287e-07
2.00207e-07
6.91489e-08
-7.8509e-08
-2.13506e-07
2.22866e-07
8.90811e-08
-9.97529e-08
-2.2367e-07
2.34341e-07
1.11562e-07
-1.23182e-07
-2.18721e-07
2.30342e-07
1.35652e-07
-1.47484e-07
-1.95965e-07
2.07797e-07
1.59666e-07
-1.70706e-07
-1.55884e-07
1.66923e-07
1.81507e-07
-1.90738e-07
-1.02401e-07
1.11632e-07
1.99161e-07
-2.0574e-07
-4.1396e-08
4.79753e-08
2.11009e-07
-2.14335e-07
2.09473e-08
-1.7622e-08
2.15979e-07
-2.15728e-07
7.92642e-08
-7.95154e-08
2.1355e-07
-2.09696e-07
1.29114e-07
-1.32968e-07
2.03844e-07
-1.96686e-07
1.67675e-07
-1.74832e-07
1.8764e-07
-1.77796e-07
1.93791e-07
-2.03636e-07
1.66366e-07
-1.5475e-07
2.07655e-07
-2.19271e-07
1.41972e-07
-1.29532e-07
2.11378e-07
-2.23818e-07
1.16303e-07
-1.03738e-07
2.07187e-07
-2.19752e-07
9.06132e-08
-7.8329e-08
1.97909e-07
-2.10194e-07
6.56694e-08
-5.39604e-08
1.85274e-07
-1.96983e-07
4.20263e-08
-3.11005e-08
1.70849e-07
-1.81775e-07
2.00592e-08
-1.00495e-08
1.55583e-07
-1.65592e-07
-7.2604e-09
7.48536e-09
-2.24966e-10
4.97331e-10
-8.01828e-10
-9.30534e-09
9.60984e-09
1.2055e-09
-1.69942e-09
-1.5099e-08
1.5593e-08
2.3681e-09
-3.18079e-09
-2.47845e-08
2.55972e-08
4.26105e-09
-5.54295e-09
-3.89671e-08
4.0249e-08
7.20429e-09
-9.12518e-09
-5.81415e-08
6.00624e-08
1.15542e-08
-1.42971e-08
-8.24446e-08
8.51876e-08
1.76902e-08
-2.14433e-08
-1.11401e-07
1.15154e-07
2.5998e-08
-3.09463e-08
-1.43728e-07
1.48677e-07
3.68536e-08
-4.31734e-08
-1.77109e-07
1.83429e-07
5.06071e-08
-5.84351e-08
-2.08083e-07
2.15911e-07
6.74913e-08
-7.68686e-08
-2.32237e-07
2.41615e-07
8.75508e-08
-9.84446e-08
-2.45125e-07
2.56019e-07
1.1064e-07
-1.22794e-07
-2.42226e-07
2.5438e-07
1.3601e-07
-1.48725e-07
-2.20062e-07
2.32777e-07
1.62004e-07
-1.74223e-07
-1.78539e-07
1.90758e-07
1.86385e-07
-1.96995e-07
-1.21533e-07
1.32143e-07
2.06927e-07
-2.14965e-07
-5.5259e-08
6.32966e-08
2.21758e-07
-2.26473e-07
1.36296e-08
-8.91404e-09
2.2949e-07
-2.3042e-07
7.92084e-08
-7.82779e-08
2.29308e-07
-2.26258e-07
1.36451e-07
-1.39502e-07
2.20991e-07
-2.14105e-07
1.81876e-07
-1.88762e-07
2.05014e-07
-1.94804e-07
2.13663e-07
-2.23874e-07
1.82677e-07
-1.7017e-07
2.31308e-07
-2.43815e-07
1.56311e-07
-1.42787e-07
2.36777e-07
-2.50302e-07
1.28404e-07
-1.14731e-07
2.32858e-07
-2.46531e-07
1.00411e-07
-8.69507e-08
2.23048e-07
-2.36509e-07
7.3019e-08
-6.00773e-08
2.09283e-07
-2.22225e-07
4.68403e-08
-3.46946e-08
1.93282e-07
-2.05428e-07
2.23889e-08
-1.12221e-08
1.76151e-07
-1.87318e-07
-7.70536e-09
7.92015e-09
-2.1479e-10
4.76492e-10
-7.68009e-10
-9.90803e-09
1.01995e-08
1.15432e-09
-1.62712e-09
-1.60765e-08
1.65493e-08
2.26737e-09
-3.04574e-09
-2.63931e-08
2.71714e-08
4.08076e-09
-5.30949e-09
-4.15047e-08
4.27335e-08
6.9026e-09
-8.7455e-09
-6.1945e-08
6.37879e-08
1.10772e-08
-1.37125e-08
-8.78777e-08
9.05129e-08
1.69759e-08
-2.05908e-08
-1.18839e-07
1.22454e-07
2.49859e-08
-2.97726e-08
-1.53546e-07
1.58333e-07
3.55051e-08
-4.16639e-08
-1.89671e-07
1.9583e-07
4.89455e-08
-5.66596e-08
-2.23685e-07
2.31399e-07
6.56419e-08
-7.50106e-08
-2.50991e-07
2.6036e-07
8.57758e-08
-9.6871e-08
-2.67017e-07
2.78112e-07
1.09443e-07
-1.22139e-07
-2.66805e-07
2.79501e-07
1.36136e-07
-1.4979e-07
-2.45955e-07
2.5961e-07
1.64253e-07
-1.77758e-07
-2.03607e-07
2.17112e-07
1.91415e-07
-2.03553e-07
-1.43498e-07
1.55635e-07
2.15179e-07
-2.24876e-07
-7.21381e-08
8.18348e-08
2.33433e-07
-2.39763e-07
3.41986e-09
2.91041e-09
2.44441e-07
-2.46817e-07
7.66606e-08
-7.42849e-08
2.4707e-07
-2.45108e-07
1.42049e-07
-1.4401e-07
2.4071e-07
-2.34327e-07
1.95433e-07
-2.01815e-07
2.25355e-07
-2.14806e-07
2.34261e-07
-2.4481e-07
2.01849e-07
-1.88196e-07
2.56853e-07
-2.70506e-07
1.72949e-07
-1.58111e-07
2.64448e-07
-2.79285e-07
1.42448e-07
-1.27627e-07
2.60782e-07
-2.75603e-07
1.1206e-07
-9.73113e-08
2.50603e-07
-2.65352e-07
8.19414e-08
-6.75406e-08
2.35863e-07
-2.50264e-07
5.27332e-08
-3.9137e-08
2.1827e-07
-2.31866e-07
2.52711e-08
-1.26899e-08
1.99157e-07
-2.11738e-07
-8.12964e-09
8.33365e-09
-2.04011e-10
4.54488e-10
-7.32276e-10
-1.04844e-08
1.07622e-08
1.10023e-09
-1.55068e-09
-1.70111e-08
1.74616e-08
2.16085e-09
-2.90292e-09
-2.79319e-08
2.8674e-08
3.89007e-09
-5.06251e-09
-4.39345e-08
4.5107e-08
6.58335e-09
-8.34356e-09
-6.55901e-08
6.73503e-08
1.05721e-08
-1.30928e-08
-9.30919e-08
9.56126e-08
1.62178e-08
-1.96847e-08
-1.25996e-07
1.29463e-07
2.39077e-08
-2.85188e-08
-1.63034e-07
1.67645e-07
3.4059e-08
-4.00375e-08
-2.01901e-07
2.0788e-07
4.71447e-08
-5.4722e-08
-2.39048e-07
2.46625e-07
6.36033e-08
-7.29335e-08
-2.69714e-07
2.79044e-07
8.37472e-08
-9.50142e-08
-2.89298e-07
3.00565e-07
1.07943e-07
-1.21182e-07
-2.9247e-07
3.05709e-07
1.35985e-07
-1.50633e-07
-2.73756e-07
2.88404e-07
1.66366e-07
-1.81264e-07
-2.31301e-07
2.462e-07
1.96555e-07
-2.10376e-07
-1.68596e-07
1.82416e-07
2.23889e-07
-2.35458e-07
-9.24407e-08
1.0401e-07
2.46025e-07
-2.54272e-07
-1.01643e-08
1.8411e-08
2.60891e-07
-2.65042e-07
7.10622e-08
-6.69109e-08
2.67016e-07
-2.6651e-07
1.45298e-07
-1.45804e-07
2.63384e-07
-2.5788e-07
2.07818e-07
-2.13322e-07
2.4935e-07
-2.38588e-07
2.55493e-07
-2.66255e-07
2.24607e-07
-2.09315e-07
2.84895e-07
-3.00187e-07
1.92051e-07
-1.75483e-07
2.94915e-07
-3.11483e-07
1.5847e-07
-1.42723e-07
2.90948e-07
-3.06695e-07
1.26098e-07
-1.10006e-07
2.8077e-07
-2.96862e-07
9.30536e-08
-7.68072e-08
2.65518e-07
-2.81764e-07
5.99836e-08
-4.47787e-08
2.46265e-07
-2.6147e-07
2.8903e-08
-1.46466e-08
2.25134e-07
-2.39391e-07
-8.53211e-09
8.72479e-09
-1.92678e-10
4.31299e-10
-6.94591e-10
-1.10329e-08
1.12962e-08
1.04315e-09
-1.47002e-09
-1.79004e-08
1.83272e-08
2.04842e-09
-2.75214e-09
-2.93971e-08
3.01008e-08
3.68872e-09
-4.80167e-09
-4.625e-08
4.73629e-08
6.24609e-09
-7.91879e-09
-6.90673e-08
7.074e-08
1.00379e-08
-1.24369e-08
-9.80732e-08
1.00472e-07
1.54145e-08
-1.87229e-08
-1.32852e-07
1.3616e-07
2.27609e-08
-2.7181e-08
-1.72162e-07
1.76582e-07
3.25095e-08
-3.82861e-08
-2.13759e-07
2.19536e-07
4.51933e-08
-5.2607e-08
-2.54124e-07
2.61538e-07
6.13553e-08
-7.06091e-08
-2.88341e-07
2.97595e-07
8.14245e-08
-9.28192e-08
-3.11902e-07
3.23296e-07
1.06068e-07
-1.19834e-07
-3.19213e-07
3.3298e-07
1.35458e-07
-1.51144e-07
-3.03565e-07
3.1925e-07
1.68225e-07
-1.84621e-07
-2.61833e-07
2.78229e-07
2.01681e-07
-2.17337e-07
-1.97135e-07
2.12791e-07
2.32928e-07
-2.46592e-07
-1.16597e-07
1.30262e-07
2.59449e-07
-2.69911e-07
-2.77241e-08
3.81858e-08
2.78796e-07
-2.85081e-07
6.17484e-08
-5.54634e-08
2.892e-07
-2.90612e-07
1.45416e-07
-1.44004e-07
2.89304e-07
-2.85274e-07
2.18181e-07
-2.22211e-07
2.77843e-07
-2.67291e-07
2.76996e-07
-2.87549e-07
2.52078e-07
-2.34113e-07
3.16631e-07
-3.34596e-07
2.1332e-07
-1.94037e-07
3.29218e-07
-3.48501e-07
1.75766e-07
-1.60218e-07
3.22586e-07
-3.38135e-07
1.43441e-07
-1.2591e-07
3.13639e-07
-3.3117e-07
1.07213e-07
-8.7984e-08
2.99258e-07
-3.18487e-07
6.79855e-08
-5.17089e-08
2.77376e-07
-2.93652e-07
3.31651e-08
-1.74684e-08
2.54473e-07
-2.70169e-07
-8.91158e-09
9.09237e-09
-1.80788e-10
4.06994e-10
-6.5506e-10
-1.15521e-08
1.18001e-08
9.83254e-10
-1.38535e-09
-1.87419e-08
1.9144e-08
1.93039e-09
-2.59383e-09
-3.07847e-08
3.14481e-08
3.47725e-09
-4.52768e-09
-4.8445e-08
4.94954e-08
5.89172e-09
-7.47227e-09
-7.23672e-08
7.39477e-08
9.47593e-09
-1.17463e-08
-1.02808e-07
1.05078e-07
1.45677e-08
-1.77075e-08
-1.39385e-07
1.42525e-07
2.15473e-08
-2.57613e-08
-1.80901e-07
1.85115e-07
3.0858e-08
-3.64095e-08
-2.25203e-07
2.30755e-07
4.30891e-08
-5.03109e-08
-2.68859e-07
2.76081e-07
5.88912e-08
-6.80246e-08
-3.06794e-07
3.15928e-07
7.87836e-08
-9.02473e-08
-3.34734e-07
3.46198e-07
1.03762e-07
-1.18025e-07
-3.47e-07
3.61262e-07
1.34468e-07
-1.51227e-07
-3.35469e-07
3.52228e-07
1.69733e-07
-1.87728e-07
-2.95412e-07
3.13407e-07
2.06689e-07
-2.24326e-07
-2.2942e-07
2.47057e-07
2.42182e-07
-2.58169e-07
-1.45059e-07
1.61046e-07
2.73613e-07
-2.86598e-07
-4.98727e-08
6.28586e-08
2.98126e-07
-3.06909e-07
4.79738e-08
-3.91914e-08
3.13653e-07
-3.17499e-07
1.4144e-07
-1.37595e-07
3.18691e-07
-3.17008e-07
2.2519e-07
-2.26873e-07
3.11923e-07
-3.02742e-07
2.97629e-07
-3.0681e-07
2.86269e-07
-2.63356e-07
3.54629e-07
-3.77541e-07
2.35173e-07
-2.106e-07
3.6995e-07
-3.94524e-07
1.91479e-07
-1.79721e-07
3.52474e-07
-3.64233e-07
1.65349e-07
-1.45191e-07
3.49696e-07
-3.69854e-07
1.23968e-07
-9.84209e-08
3.40297e-07
-3.65844e-07
7.21518e-08
-5.77674e-08
3.09572e-07
-3.23956e-07
3.62793e-08
-2.10435e-08
2.85988e-07
-3.01224e-07
-9.26705e-09
9.43541e-09
-1.68358e-10
3.81721e-10
-6.13912e-10
-1.20404e-08
1.22726e-08
9.20863e-10
-1.29715e-09
-1.95333e-08
1.99096e-08
1.80741e-09
-2.42885e-09
-3.20908e-08
3.27122e-08
3.25684e-09
-4.24203e-09
-5.05136e-08
5.14988e-08
5.52218e-09
-7.00646e-09
-7.54807e-08
7.6965e-08
8.88937e-09
-1.10249e-08
-1.07282e-07
1.09418e-07
1.3682e-08
-1.66438e-08
-1.45577e-07
1.48539e-07
2.02733e-08
-2.42664e-08
-1.89221e-07
1.93214e-07
2.91116e-08
-3.44147e-08
-2.36185e-07
2.41488e-07
4.08383e-08
-4.78394e-08
-2.83197e-07
2.90198e-07
5.62163e-08
-6.51812e-08
-3.24984e-07
3.33949e-07
7.58152e-08
-8.72745e-08
-3.5767e-07
3.6913e-07
1.00984e-07
-1.15696e-07
-3.75758e-07
3.90469e-07
1.32942e-07
-1.50802e-07
-3.69535e-07
3.87395e-07
1.70808e-07
-1.90507e-07
-3.32241e-07
3.5194e-07
2.11501e-07
-2.31259e-07
-2.6574e-07
2.85497e-07
2.51554e-07
-2.70091e-07
-1.7828e-07
1.96817e-07
2.88441e-07
-3.04288e-07
-7.72315e-08
9.30784e-08
3.1886e-07
-3.30508e-07
2.90021e-08
-1.73542e-08
3.40321e-07
-3.47141e-07
1.32325e-07
-1.25505e-07
3.51485e-07
-3.5301e-07
2.27022e-07
-2.25497e-07
3.51934e-07
-3.46232e-07
3.14527e-07
-3.20229e-07
3.28761e-07
-2.96515e-07
4.0447e-07
-4.36716e-07
2.53461e-07
-2.18864e-07
4.23514e-07
-4.5811e-07
1.98575e-07
-1.96796e-07
3.71628e-07
-3.73406e-07
1.88945e-07
-1.6144e-07
3.92889e-07
-4.20385e-07
1.35288e-07
-1.02362e-07
3.95851e-07
-4.28761e-07
6.87246e-08
-5.96913e-08
3.35601e-07
-3.44622e-07
3.65503e-08
-2.22854e-08
3.15446e-07
-3.29695e-07
-9.59738e-09
9.75283e-09
-1.55459e-10
3.55487e-10
-5.71143e-10
-1.24967e-08
1.27124e-08
8.55973e-10
-1.2054e-09
-2.02726e-08
2.0622e-08
1.67946e-09
-2.25717e-09
-3.33119e-08
3.38896e-08
3.02743e-09
-3.94466e-09
-5.24503e-08
5.33675e-08
5.13736e-09
-6.5212e-09
-7.83995e-08
7.97834e-08
8.27793e-09
-1.02723e-08
-1.11483e-07
1.13477e-07
1.27567e-08
-1.5531e-08
-1.51408e-07
1.54183e-07
1.89376e-08
-2.26945e-08
-1.97091e-07
2.00848e-07
2.72669e-08
-3.22956e-08
-2.46657e-07
2.51686e-07
3.84317e-08
-4.51808e-08
-2.97076e-07
3.03825e-07
5.33175e-08
-6.20593e-08
-3.42809e-07
3.5155e-07
7.24837e-08
-8.3844e-08
-3.80552e-07
3.91912e-07
9.76497e-08
-1.12736e-07
-4.05378e-07
4.20464e-07
1.30749e-07
-1.49723e-07
-4.0581e-07
4.24784e-07
1.71294e-07
-1.92799e-07
-3.72526e-07
3.94031e-07
2.15955e-07
-2.37953e-07
-3.0636e-07
3.28358e-07
2.60822e-07
-2.82116e-07
-2.16707e-07
2.38001e-07
3.03723e-07
-3.22821e-07
-1.10497e-07
1.29594e-07
3.40827e-07
-3.5562e-07
4.16793e-09
1.06252e-08
3.68882e-07
-3.78972e-07
1.17036e-07
-1.06947e-07
3.86242e-07
-3.89679e-07
2.22493e-07
-2.19055e-07
3.90651e-07
-3.87806e-07
3.23844e-07
-3.26688e-07
3.69286e-07
-3.26171e-07
4.75039e-07
-5.18131e-07
2.70229e-07
-2.30904e-07
4.97779e-07
-5.37034e-07
2.02289e-07
-1.9637e-07
3.71763e-07
-3.77542e-07
1.89846e-07
-1.57065e-07
4.52534e-07
-4.84752e-07
1.27522e-07
-1.08823e-07
4.58751e-07
-4.76639e-07
8.8521e-08
-6.8018e-08
3.54745e-07
-3.74535e-07
4.4717e-08
-1.87394e-08
3.47597e-07
-3.72694e-07
-9.90168e-09
1.00438e-08