/*--------------------------------*- C++ -*----------------------------------*\
| =========                 |                                                 |
| \\      /  F ield         | OpenFOAM: The Open Source CFD Toolbox           |
|  \\    /   O peration     | Version:  2.4.0                                 |
|   \\  /    A nd           | Web:      www.OpenFOAM.org                      |
|    \\/     M anipulation  |                                                 |
\*---------------------------------------------------------------------------*/
FoamFile
{
    version     2.0;
    format      ascii;
    class       volScalarField;
    location    "0.125";
    object      alpha.water;
}
// * * * * * * * * * * * * * * * * * * * * * * * * * * * * * * * * * * * * * //

dimensions      [0 0 0 0 0 0 0];

internalField   nonuniform List<scalar> 
14400
(
1
1
1
1
1
1
1
1
1
1
1
1
1
1
1
1
1
1
1
1
1
1
1
1
1
1
1
1
1
1
1
1
1
1
1
1
1
1
1
1
1
1
1
1
1
1
1
1
1
1
1
1
1
1
1
1
1
1
1
1
1
1
1
1
1
1
1
1
1
1
1
1
1
1
1
1
1
1
1
1
1
1
1
1
1
1
1
1
1
1
1
1
1
1
1
1
1
1
1
1
1
1
1
1
1
1
1
1
1
1
1
1
1
1
1
1
1
1
1
1
1
1
1
1
1
1
1
1
1
1
1
1
1
1
1
1
1
1
1
1
1
1
1
1
1
1
1
1
1
1
1
1
1
1
1
1
1
1
1
1
1
1
1
1
1
1
1
1
1
1
1
1
1
1
1
1
1
1
1
1
1
1
1
1
1
1
1
1
1
1
1
1
1
1
1
1
1
1
1
1
1
1
1
1
1
1
1
1
1
1
1
1
1
1
1
1
1
1
1
1
1
1
1
1
1
1
1
1
1
1
1
1
1
1
1
1
1
1
1
1
1
1
1
1
1
1
1
1
1
1
1
1
1
1
1
1
1
1
1
1
1
1
1
1
1
1
1
1
1
1
1
1
1
1
1
1
1
1
1
1
1
1
1
1
1
1
1
1
1
1
1
1
1
1
1
1
1
1
1
1
1
1
1
1
1
1
1
1
1
1
1
1
1
1
1
1
1
1
1
1
1
1
1
1
1
1
1
1
1
1
1
1
1
1
1
1
1
1
1
1
1
1
1
1
1
1
1
1
1
1
1
1
1
1
1
1
1
1
1
1
1
1
1
1
1
1
1
1
1
1
1
1
1
1
1
1
1
1
1
1
1
1
1
1
1
1
1
1
1
1
1
1
1
1
1
1
1
1
1
1
1
1
1
1
1
1
1
1
1
1
1
1
1
1
1
1
1
1
1
1
1
1
1
1
1
1
1
1
1
1
1
1
1
1
1
1
1
1
1
1
1
1
1
1
1
1
1
1
1
1
1
1
1
1
1
1
1
1
1
1
1
1
1
1
1
1
1
1
1
1
1
1
1
1
1
1
1
1
1
1
1
1
1
1
1
1
1
1
1
1
1
1
1
1
1
1
1
1
1
1
1
1
1
1
1
1
1
1
1
1
1
1
1
1
1
1
1
1
0.999999
1
1
1
1
1
1
1
1
1
1
1
1
1
1
1
1
1
1
1
1
1
1
1
1
1
1
1
1
1
0.999992
0.999998
1
1
1
1
1
1
1
1
1
1
1
1
1
1
1
1
1
1
1
1
1
1
1
1
1
1
1
1
1
0.999994
1
1
1
1
1
1
1
1
1
1
1
1
1
1
1
1
1
1
1
1
1
1
1
1
1
1
1
1
1
0.999993
1
1
1
1
1
1
1
1
1
1
1
1
1
1
1
1
1
1
1
1
1
1
1
1
1
1
1
1
1
0.999999
0.999999
0.564865
0.974121
1
1
1
1
1
1
1
1
1
1
1
1
1
1
1
1
1
1
1
1
1
1
1
1
1
1
0.99999
0.312247
0.00551565
0.945995
1
1
1
1
1
0.999999
0.999956
1
1
1
1
1
1
1
1
1
1
1
1
1
1
1
1
1
1
0.999282
0.108697
6.87279e-07
0.0032005
0.622838
0.998338
1
1
1
1
0.999947
0.999947
0.999999
1
1
1
1
1
1
1
1
1
1
1
1
1
1
1
1
0.999973
0.0432745
1.52e-06
1.40284e-08
0.000333905
0.227696
0.99885
0.999016
1
1
0.999998
0.999939
0.999997
0.999974
1
1
1
1
1
1
1
1
1
1
1
0.999049
1
1
1
0.999999
0.209097
1.06096e-05
1.28812e-08
9.3068e-10
6.25378e-05
0.112215
0.999989
0.999888
0.999483
0.99994
0.999986
0.999994
0.99983
0.999976
1
1
1
1
1
1
1
1
1
1
1
0.982267
1
1
1
0.941442
7.84062e-05
-1.34719e-07
1.28887e-09
6.33402e-10
-6.21454e-08
0.063304
0.99999
0.999638
0.999358
0.999949
0.999999
0.999667
0.998804
0.999994
1
1
1
1
1
1
1
1
1
1
1
0.970901
1
1
0.999984
0.0170924
-1.4831e-06
2.09651e-09
5.20067e-10
5.92686e-10
3.3802e-10
0.00030214
0.99999
0.99999
0.999991
0.999933
0.999974
0.999709
0.998981
0.999993
0.999937
1
1
1
1
1
1
1
1
1
0.999966
0.953112
1
0.999997
0.468308
3.10077e-06
4.86459e-09
3.35235e-10
3.53358e-10
4.81831e-10
5.72842e-08
0.00029342
0.997876
0.999639
0.999991
0.999981
0.999704
0.999764
0.999942
0.999961
0.999973
1
1
1
1
1
1
1
1
1
0.998147
0.983457
0.998542
0.652338
-8.75306e-06
-2.17608e-07
6.67627e-10
4.57166e-10
3.57626e-10
3.76593e-10
-1.20307e-09
4.67581e-05
0.625968
0.999916
0.999725
0.997471
0.999939
0.999794
0.999794
0.999999
1
1
1
0.999992
1
1
1
1
1
1
1
1
1
1
1
1
1
1
1
1
1
1
1
1
1
1
1
1
1
1
1
1
1
1
1
1
1
1
1
1
1
1
1
1
1
1
1
1
1
1
1
1
1
1
1
1
1
1
1
1
1
1
1
1
1
1
1
1
1
1
1
1
1
1
1
1
1
1
1
1
1
1
1
1
1
1
1
1
1
1
1
1
1
1
1
1
1
1
1
1
1
1
1
1
1
1
1
1
1
1
1
1
1
1
1
1
1
1
1
1
1
1
1
1
1
1
1
1
1
1
1
1
1
1
1
1
1
1
1
1
1
1
1
1
1
1
1
1
1
1
1
1
1
1
1
1
1
1
1
1
1
1
1
1
1
1
1
1
1
1
1
1
1
1
1
1
1
1
1
1
1
1
1
1
1
1
1
1
1
1
1
1
1
1
1
1
1
1
1
1
1
1
1
1
1
1
1
1
1
1
1
1
1
1
1
1
1
1
1
1
1
1
1
1
1
1
1
1
1
1
1
1
1
1
1
1
1
1
1
1
1
1
1
1
1
1
1
1
1
1
1
1
1
1
1
1
1
1
1
1
1
1
1
1
1
1
1
1
1
1
1
1
1
1
1
1
1
1
1
1
1
1
1
1
1
1
1
1
1
1
1
1
1
1
1
1
1
1
1
1
1
1
1
1
1
1
1
1
1
1
1
1
1
1
1
1
1
1
1
1
1
1
1
1
1
1
1
1
1
1
1
1
1
1
1
1
1
1
1
1
1
1
1
1
1
1
1
1
1
1
1
1
1
1
1
1
1
1
1
1
1
1
1
1
1
1
1
1
1
1
1
1
1
1
1
1
1
1
1
1
1
1
1
1
1
1
1
1
1
1
1
1
1
1
1
1
1
1
1
1
1
1
1
1
1
1
1
1
1
1
1
1
1
1
1
1
1
1
1
1
1
1
1
1
1
1
1
1
1
1
1
1
1
1
1
1
1
1
1
1
1
1
1
1
1
1
1
1
1
1
1
1
1
1
1
1
1
1
1
1
1
1
1
1
1
1
1
1
1
1
1
1
1
1
1
1
1
1
1
1
1
1
1
1
1
1
1
1
1
1
1
1
1
1
1
1
1
1
1
1
1
1
1
1
1
1
1
1
1
1
1
1
1
1
1
1
1
1
1
1
1
1
1
1
1
1
1
1
1
1
1
1
1
1
1
1
1
1
1
1
1
1
1
1
1
1
1
1
1
1
1
1
1
1
1
1
1
1
1
1
1
1
1
1
1
1
1
1
1
1
0.999994
1
1
1
1
1
1
1
1
1
1
1
1
1
1
1
1
1
1
1
1
1
1
1
1
1
1
1
1
1
0.999994
0.999998
1
1
1
1
1
1
1
1
1
1
1
1
1
1
1
1
1
1
1
1
1
1
1
1
1
1
1
1
0.999998
1
1
1
1
1
1
1
1
1
1
1
1
1
1
1
1
1
1
1
1
1
1
1
1
1
1
0.834008
0.82425
1
1
1
1
1
1
1
1
1
1
1
1
1
1
1
1
1
1
1
1
1
0.999999
1
1
1
1
1
0.997448
0.0134316
0.00123217
0.766849
0.999902
1
1
1
1
1
1
1
1
1
1
1
1
1
1
1
1
1
1
0.999993
0.999979
0.999999
1
0.999998
1
1
0.998905
0.00479774
7.31158e-05
5.06396e-06
0.390286
0.999995
1
1
1
1
1
1
1
1
1
1
1
1
1
1
1
1
0.999997
0.999999
0.999996
0.999995
1
1
1
0.999763
0.996496
0.000493746
2.71069e-05
5.22306e-07
1.24857e-05
0.452521
0.999999
1
1
1
1
1
1
1
1
1
1
1
1
1
1
1
0.999998
0.999799
0.998917
0.999997
0.999942
0.999408
0.999262
0.999314
0.857186
9.61521e-06
3.1176e-07
4.26172e-07
6.82286e-07
8.30401e-05
0.896641
1
1
1
1
1
1
1
1
1
1
1
1
1
1
1
1
0.998931
0.998893
0.999815
0.999919
1
0.999547
0.999999
0.682824
-5.31665e-06
3.90923e-07
3.7547e-07
2.02458e-08
2.91049e-06
0.0096477
0.999374
1
1
1
1
1
1
1
1
1
1
1
1
1
0.999991
0.999989
0.999911
0.998985
0.999995
0.999997
1
1
1
0.515665
-2.96944e-07
4.46931e-07
6.21725e-05
5.67028e-09
2.11576e-08
1.1098e-05
0.644795
1
1
1
1
1
1
1
1
1
1
1
1
1
0.999998
0.999971
0.999992
0.999967
0.999836
1
1
1
1
0.234208
1.11458e-06
2.51532e-05
7.55319e-05
5.40016e-09
1.24787e-09
-7.8931e-08
0.00908936
0.997071
1
1
1
1
1
1
1
1
1
0.999998
0.999996
1
1
1
0.999925
0.999973
0.999717
0.999119
0.999614
1
1
0.00818775
0.000374839
6.76004e-06
0.000265741
6.52295e-10
7.09007e-10
5.99442e-09
7.60809e-06
0.598448
0.999999
1
1
1
0.999999
0.999945
0.97875
0.992355
4.99602e-05
8.04647e-07
2.37395e-08
4.41878e-10
2.12294e-10
5.42734e-10
3.38856e-10
3.20876e-10
9.43245e-06
0.0997284
0.999975
0.998804
0.994271
0.999757
0.999974
0.999984
0.999939
0.997604
1
0.999996
0.999999
1
1
1
1
1
0.999999
0.998594
0.983159
0.980826
2.75281e-05
1.09074e-05
5.73856e-06
5.48461e-10
2.29316e-10
8.50864e-10
4.26036e-10
-9.12516e-11
1.3863e-05
0.00266566
0.540518
0.999974
0.99556
0.994263
0.996327
0.999982
0.999491
0.997599
0.99845
0.99999
1
1
1
1
1
1
0.999999
0.995641
0.991342
0.755155
5.27156e-05
0.000142644
9.36783e-05
8.16919e-10
2.70452e-10
2.16791e-08
2.53253e-10
-1.10622e-09
0.000163596
7.85432e-05
0.000917284
0.999965
0.999959
0.999895
0.994849
0.998191
0.998456
0.999981
0.998959
1
1
1
1
1
1
1
1
0.9957
0.999718
0.148072
9.45652e-05
0.000164092
0.000132587
7.41361e-10
3.2101e-10
4.6092e-08
3.08044e-07
-9.83469e-10
1.27724e-05
9.15481e-06
1.43664e-05
0.0271179
0.69738
0.960368
0.999363
0.999277
0.999433
0.999981
0.999989
1
1
1
1
0.999999
0.999999
0.999999
0.782689
0.999996
0.943991
0.017222
9.05573e-07
1.4095e-05
7.47232e-10
8.58146e-09
4.0057e-10
2.64263e-08
1.78356e-08
-4.58611e-10
7.82597e-05
9.22868e-06
1.97106e-06
3.18709e-06
1.46939e-05
0.0885892
0.453069
0.904569
0.998822
0.999752
0.999862
0.999948
0.999963
0.999967
0.999954
0.999941
0.999932
0.999927
0.235261
0.99586
0.854782
0.0092448
-1.06134e-07
4.13239e-09
1.20042e-09
3.83244e-10
5.44388e-10
1.08003e-09
5.32991e-08
-1.05108e-11
6.10189e-05
1.5109e-05
1.88353e-06
1.64402e-06
4.81033e-06
4.36275e-06
4.54948e-06
4.90199e-06
0.0471473
0.414116
0.720697
0.870183
0.927554
0.933201
0.917084
0.90427
0.900214
0.899748
0.0117144
0.988107
0.719164
1.05589e-05
5.73644e-08
6.91258e-09
5.96056e-10
3.2868e-10
7.74361e-10
5.22801e-10
2.48835e-06
1.31814e-07
8.33844e-06
8.59509e-05
0.00035866
1.64425e-06
1.36348e-06
1.29239e-06
1.43687e-06
1.64676e-05
2.34181e-05
1.96284e-07
1.95519e-07
1.84198e-07
1.1851e-07
5.52078e-08
4.37948e-09
-2.17738e-08
-1.06914e-09
-3.5955e-09
2.89384e-05
0.795101
0.0142736
4.04256e-06
7.90018e-07
6.62902e-11
8.63479e-11
5.83644e-10
1.02964e-09
8.80653e-10
3.53032e-06
7.21425e-07
0.00231701
3.67615e-05
0.000595951
0.000124837
0.000187656
1.05363e-05
1.26959e-06
1.30289e-06
6.12145e-05
6.58122e-06
1.96491e-07
1.95952e-07
8.23571e-07
5.46188e-06
1.4278e-06
3.23544e-08
5.12799e-09
3.59565e-10
9.99801e-06
0.102856
0.00186643
4.54247e-07
3.22571e-07
6.69902e-11
1.1763e-10
1.3277e-09
1.09225e-09
1.08082e-09
2.03531e-06
8.51286e-07
0.00243461
0.000322622
0.000531568
3.09396e-05
0.000227468
0.000270176
0.000176096
4.80484e-06
1.41726e-06
2.37838e-05
6.32593e-06
2.61363e-07
2.25367e-06
3.50466e-05
3.50646e-05
3.50635e-05
1.74292e-05
1.23333e-09
8.92846e-08
0.00159075
0.00248204
5.33986e-10
4.07566e-11
5.05132e-11
1.42757e-10
3.01534e-09
3.18412e-07
7.21264e-07
3.20316e-07
4.97026e-05
0.00244952
0.00053135
2.06753e-05
1.96752e-06
1.97115e-06
0.000267626
0.000271166
7.03365e-05
1.27993e-06
1.17494e-06
2.92514e-05
4.93151e-06
3.96244e-07
4.44181e-07
2.48302e-05
2.51558e-05
1.898e-05
7.40232e-07
8.50205e-12
0.00115669
1.4046e-05
6.75615e-07
3.45909e-11
2.30245e-11
1.21544e-10
1.93366e-09
7.09856e-07
4.96082e-05
1.02723e-06
2.12e-08
0.00242568
1.77399e-05
2.02047e-06
1.96787e-06
2.10536e-06
2.8593e-05
0.000406763
8.31724e-05
1.27004e-06
1.17501e-06
1.17498e-06
6.58549e-05
2.05615e-05
4.6743e-07
4.76077e-07
1.58051e-05
0.000148506
2.26677e-05
5.18244e-06
1.92843e-06
0.000414737
1.77894e-11
1.369e-11
7.63028e-12
8.29285e-11
9.16205e-10
1.81017e-09
5.68631e-05
5.25061e-09
5.18934e-09
1.25138e-05
2.45219e-05
8.81397e-06
2.00249e-06
0.000125741
0.000467068
0.000468347
0.000468836
1.21473e-05
1.26074e-06
1.13865e-06
1.18711e-05
7.20639e-05
7.21043e-05
1.07008e-06
8.34434e-07
0.000455773
0.00045842
4.28019e-07
2.92741e-07
0.000394976
6.75751e-12
3.1231e-12
6.50512e-12
8.88933e-11
1.67978e-10
2.14711e-05
3.88778e-05
7.85378e-08
5.10117e-09
9.67189e-06
5.29834e-06
5.27675e-06
0.000147702
5.99314e-06
8.01123e-07
0.000474523
0.000469106
0.000109043
1.22344e-06
1.07073e-06
1.07402e-06
1.69895e-05
2.74219e-05
1.44595e-06
1.42884e-06
0.000459637
0.000461986
9.96951e-25
7.17186e-06
5.92922e-05
-5.62031e-11
6.61885e-13
8.90034e-12
1.46497e-10
1.77976e-07
3.02011e-05
7.20268e-06
2.44491e-08
6.03571e-07
4.93623e-05
0.00015715
1.45035e-05
0.000164787
4.06493e-07
7.19468e-07
0.00026382
0.000264603
3.02001e-06
1.37394e-06
1.06478e-06
1.07698e-06
2.57665e-06
1.69897e-06
1.53408e-06
1.50123e-06
0.000458852
0.000461986
2.7925e-18
2.70888e-06
0.00022766
-2.17152e-11
3.77762e-13
1.39477e-11
9.41226e-11
1.06184e-06
5.39086e-05
2.23329e-08
5.31275e-07
2.61229e-07
0.000327562
0.00046948
0.000469143
1.36895e-06
1.93221e-07
2.34169e-06
9.57093e-07
0.000306616
1.75549e-05
2.76804e-06
1.28015e-05
1.82986e-06
1.53512e-06
0.000105081
2.52256e-05
1.77436e-06
0.000451048
0.000457752
1.98007e-17
1.0265e-06
0.000126276
-1.45157e-12
4.48347e-13
2.00295e-11
1.01934e-10
8.67869e-07
8.11043e-05
2.07735e-08
4.7078e-08
1.49345e-07
2.68404e-05
0.00037183
2.89733e-05
3.94936e-09
2.67327e-07
5.65242e-06
2.5536e-06
9.9746e-07
0.000161404
1.27991e-05
2.68731e-05
1.75334e-06
1.5997e-06
0.000202398
0.000203275
1.16775e-05
9.01959e-05
0.000225661
3.51458e-14
7.96878e-10
0.000129018
8.85094e-13
5.27303e-13
2.63967e-11
1.47934e-10
1.30572e-05
0.000126302
2.33289e-08
1.67569e-07
1.18263e-08
2.33136e-09
3.49938e-09
3.37499e-08
3.8443e-09
7.98859e-06
9.21694e-06
9.22384e-06
8.79151e-07
4.11583e-08
5.43671e-06
5.26318e-06
1.40734e-05
0.000202768
0.000203617
0.000203538
9.00886e-06
5.66341e-07
6.16027e-07
5.95928e-14
8.2841e-12
7.98729e-05
1.09246e-12
5.45628e-13
3.14751e-11
1.8405e-10
2.5275e-05
0.000129467
2.38763e-08
4.57285e-08
5.26828e-08
9.84119e-10
2.01658e-09
9.67064e-09
5.03914e-09
9.38203e-10
9.36865e-10
9.67302e-10
4.8643e-07
1.11915e-08
1.60916e-07
1.64748e-07
1.8809e-06
2.11892e-06
3.68227e-05
2.05939e-06
7.29145e-07
5.5731e-07
1.17984e-07
5.38383e-15
2.82957e-12
3.48866e-08
1.18173e-12
5.51921e-13
3.42009e-11
7.61185e-11
2.06761e-05
8.40981e-05
2.47113e-08
6.01275e-06
2.24046e-09
2.1829e-09
1.1225e-09
7.09807e-10
4.71695e-10
9.70522e-10
1.06982e-09
9.66604e-10
2.22549e-09
5.60302e-09
8.21042e-06
2.02905e-05
2.03222e-05
6.4938e-06
2.0959e-08
2.10581e-07
7.42915e-07
7.82944e-07
2.92082e-07
2.8728e-16
2.86468e-14
0.00702237
6.24896e-14
3.91425e-13
3.044e-11
1.1127e-10
1.29965e-05
1.39644e-06
9.20172e-05
0.000165928
1.88906e-08
5.51462e-11
1.52921e-09
1.54006e-10
3.12524e-10
6.48147e-10
1.05459e-09
9.68094e-10
2.96367e-07
1.16784e-07
7.27164e-09
2.03019e-05
2.02949e-05
1.66858e-06
5.86084e-09
4.63178e-07
3.67767e-07
3.1183e-08
1.82592e-08
7.96943e-18
1.86285e-13
0.0105642
6.26376e-13
2.55377e-13
3.3118e-11
1.36724e-10
2.57424e-05
1.51485e-06
0.000221227
2.74902e-08
1.01813e-06
4.20994e-11
6.66371e-10
6.31103e-11
1.64127e-10
4.13981e-10
6.65917e-10
1.18601e-09
1.14929e-09
2.94697e-07
1.75417e-07
1.34453e-06
1.26329e-07
1.15721e-07
3.57322e-09
4.23427e-09
6.00282e-09
4.07203e-07
9.20418e-06
9.96772e-20
3.14665e-12
0.00418055
1.21918e-12
1.07656e-13
2.0391e-11
5.92569e-11
4.57174e-05
1.87603e-06
0.000222229
3.3565e-08
2.1084e-06
4.10128e-11
8.35143e-11
2.37672e-11
1.09934e-10
3.62637e-10
1.2486e-09
5.37869e-07
1.4972e-08
1.63465e-09
4.4972e-08
2.18817e-09
7.76315e-08
9.28006e-08
3.56227e-09
4.96683e-09
1.43883e-06
1.88005e-05
6.98831e-06
5.1107e-22
3.53508e-11
1.23123e-08
2.72015e-10
2.45235e-14
4.5108e-12
4.95214e-11
9.53175e-06
4.45055e-05
0.000153067
3.32809e-05
2.1098e-06
4.10236e-11
3.27457e-11
1.53833e-11
1.19014e-10
5.92411e-10
1.05464e-05
1.67068e-05
1.39159e-09
2.10242e-09
1.72715e-09
1.80576e-09
2.13314e-09
3.11671e-09
3.11057e-09
1.53453e-08
4.52762e-07
2.04533e-05
0.000248209
1.01273e-24
2.54861e-13
5.41607e-11
1.81197e-12
2.65018e-15
7.96331e-13
4.32831e-11
9.42946e-11
6.97875e-05
0.000159283
8.08081e-07
1.69738e-06
5.38245e-11
2.18058e-11
1.20267e-11
1.86032e-10
6.78717e-10
1.67012e-05
6.63591e-08
1.6436e-09
1.4024e-09
4.54512e-06
1.20697e-06
1.73529e-08
4.03159e-06
0.00144125
0.0014407
0.000660805
3.01895e-06
0.000129076
7.62748e-28
4.41863e-16
2.10259e-11
3.85715e-15
8.99375e-17
5.04805e-14
5.86115e-12
4.60639e-10
3.58298e-09
5.01386e-08
7.67083e-07
1.04076e-10
5.27426e-11
8.23647e-12
7.42091e-12
1.00805e-10
1.75982e-10
8.28846e-07
3.01823e-07
0.000375261
7.06265e-05
6.27401e-07
6.78539e-07
1.53872e-06
2.09622e-05
0.000694864
0.000840237
0.000191691
2.25577e-06
2.80009e-06
2.17215e-31
6.85115e-19
1.45811e-13
9.07195e-18
8.69659e-19
1.04263e-15
3.26186e-13
3.73006e-11
5.23615e-10
5.93658e-08
1.56325e-08
1.01386e-10
1.71224e-11
1.68136e-12
2.66913e-12
1.16378e-10
7.27394e-10
4.76325e-07
0.00208666
0.00213381
0.00211942
8.98271e-06
5.90333e-05
8.1692e-07
3.58306e-07
4.00619e-07
4.83692e-07
6.81169e-05
7.15883e-05
3.08179e-05
2.68475e-35
1.38995e-22
2.31125e-16
4.62778e-21
1.28539e-21
3.52872e-18
2.84822e-15
9.73983e-13
4.31312e-11
5.55717e-11
8.6875e-11
1.28721e-11
1.32663e-12
4.66893e-14
1.73756e-13
7.84324e-12
1.82128e-10
3.45372e-10
4.196e-06
0.000156319
1.99045e-06
2.00013e-05
1.83404e-05
5.09817e-05
1.47266e-06
1.16669e-06
3.41123e-07
4.58363e-07
9.82107e-06
2.42323e-05
2.61113e-39
4.33687e-34
6.90854e-20
3.53516e-25
2.03099e-25
1.5016e-21
3.76926e-18
4.99198e-15
7.59235e-13
3.96541e-12
3.78632e-13
6.80182e-14
1.3399e-15
1.24267e-17
2.64999e-15
2.086e-13
6.26866e-12
8.32165e-11
1.18965e-10
1.34718e-10
2.96196e-10
7.06542e-10
1.67061e-09
4.93686e-09
6.01018e-07
1.04617e-06
1.14845e-06
6.38382e-07
2.20823e-07
1.38294e-08
2.8557e-43
6.34847e-38
2.37178e-24
2.24629e-30
1.42608e-30
3.9065e-26
4.25938e-22
3.59777e-18
1.71062e-15
2.64419e-15
1.19756e-16
4.77142e-18
4.83429e-21
1.54793e-20
1.02286e-17
1.99545e-15
1.41558e-13
3.22387e-12
2.61302e-11
7.6226e-11
1.73599e-10
3.74843e-10
5.09541e-10
2.70916e-10
3.6305e-10
4.07637e-10
5.18006e-10
6.49578e-10
9.34812e-10
1.42352e-08
5.69214e-47
1.27149e-41
3.17824e-30
2.03966e-37
1.51615e-37
1.72802e-32
1.86547e-27
2.25411e-22
3.94843e-19
6.20216e-20
4.77444e-22
3.43656e-25
1.36998e-28
2.71515e-24
8.59493e-21
7.24519e-18
1.24208e-15
5.47888e-14
8.09893e-13
4.85093e-12
1.67671e-11
4.39711e-11
7.2315e-11
9.36529e-11
1.16652e-10
1.25797e-10
1.66337e-10
2.66636e-10
3.88393e-10
6.48586e-10
1
1
1
1
1
0.999999
0.999995
0.999921
0.999993
0.999889
0.999995
0.998714
0.999776
0.999874
0.999999
0.993115
0.746625
0.00183281
0.000290677
0.000201292
6.3904e-05
6.52191e-10
6.29698e-10
6.75594e-10
-7.52317e-07
0.00100161
0.919837
1
1
1
1
1
1
1
1
1
1
0.99837
0.99855
0.998396
0.999991
0.998745
0.999683
0.999999
0.998718
0.926856
0.299813
0.00334496
0.000344285
6.288e-06
0.000171877
2.79496e-05
7.21575e-10
5.50237e-10
5.00998e-08
5.11436e-05
0.916823
0.999998
1
1
1
1
1
1
1
1
1
0.999473
0.999113
0.998395
0.998472
0.999468
0.999501
0.999999
0.999999
0.0934637
0.00104767
0.00022677
4.91592e-06
6.00748e-06
0.000446703
3.42564e-05
1.67485e-07
4.12248e-10
1.31988e-10
2.31308e-06
0.0447785
0.999999
1
1
0.999999
0.999999
0.999999
0.999999
0.999999
0.999999
0.999999
0.999994
0.99999
0.999963
0.998849
0.999454
0.994275
0.998489
0.18612
5.69415e-05
9.19713e-05
0.000960882
1.15268e-05
0.000416467
2.22722e-05
4.75901e-10
1.05273e-08
2.51229e-10
5.06696e-08
5.04202e-07
3.68945e-05
0.956651
1
1
0.999923
0.999921
0.999922
0.999927
0.999933
0.999933
0.99991
0.99991
0.999762
0.999436
0.974732
0.589722
0.134403
0.0220727
1.20219e-05
3.62302e-05
3.77257e-05
0.000307077
1.95881e-06
4.27893e-05
2.17927e-05
1.01549e-08
3.08036e-09
1.65592e-10
1.6613e-06
8.06441e-06
7.1165e-07
0.172633
0.99998
0.993826
0.899285
0.898562
0.897699
0.895897
0.88918
0.86447
0.786592
0.644968
0.438773
0.164782
2.8539e-10
1.31201e-09
8.55502e-09
1.25715e-07
3.14274e-06
7.96037e-05
5.97256e-05
4.59367e-06
2.08774e-06
2.0865e-05
0.000189674
1.97377e-05
3.45924e-10
2.16745e-10
3.0694e-11
3.53377e-11
-2.42111e-07
0.00704607
0.823724
0.999908
-2.60192e-09
-2.27397e-09
-5.86303e-09
-3.12756e-09
1.79708e-11
6.96499e-11
2.03398e-10
1.2214e-09
1.30401e-09
1.30511e-09
1.33663e-09
1.41836e-09
5.9498e-09
2.13892e-05
4.13104e-05
2.14708e-05
7.21839e-05
2.30473e-06
2.33499e-06
0.000119136
5.21142e-05
8.72685e-06
7.69848e-10
2.82546e-10
3.12882e-11
2.4156e-10
4.07534e-10
1.8218e-08
2.3667e-05
0.414214
1.88627e-09
1.51743e-09
1.12548e-09
1.15782e-09
1.09997e-09
1.22742e-09
3.20904e-09
8.66475e-08
3.62663e-09
2.1883e-09
1.75676e-09
3.04977e-09
3.32965e-05
4.28037e-05
2.00971e-05
5.72145e-05
3.35588e-06
2.18492e-06
2.58792e-06
0.000145436
2.00588e-05
1.67055e-06
3.92895e-09
4.2491e-10
3.17153e-11
3.10826e-10
4.14181e-10
3.70522e-09
6.9618e-09
7.64768e-07
1.23498e-08
4.57756e-07
3.82288e-08
2.11775e-09
2.09036e-09
1.95334e-09
1.75272e-06
1.87486e-06
4.74503e-08
1.16776e-07
1.88016e-08
2.33478e-05
3.13497e-05
2.0206e-05
2.01757e-05
5.38348e-05
0.000100641
2.13573e-06
2.18796e-06
4.63698e-06
1.57922e-05
3.94971e-06
1.35315e-09
1.1162e-09
3.58025e-11
2.01618e-10
2.11468e-10
2.16673e-10
1.53325e-05
9.44578e-05
1.60698e-08
6.01334e-07
7.77081e-07
9.70207e-08
2.85426e-09
2.2389e-09
6.50289e-07
4.48519e-07
3.24211e-08
6.01324e-05
6.46651e-06
3.1681e-05
2.03675e-05
2.39652e-05
3.00535e-05
0.000146697
5.50853e-05
2.29523e-06
2.14586e-06
7.73229e-05
2.05147e-05
0.000107245
5.52826e-09
2.98926e-09
3.25615e-11
9.55619e-11
1.74788e-10
2.42246e-10
3.87742e-08
2.30745e-07
2.69605e-07
1.30625e-07
3.77043e-07
4.80627e-07
3.56926e-09
2.71266e-09
7.22818e-09
1.63948e-08
3.30107e-05
6.01324e-05
2.0414e-05
2.18431e-05
5.07657e-05
7.41375e-05
0.000167203
6.2475e-06
1.09026e-05
1.19497e-05
4.09803e-06
6.00591e-05
2.85085e-06
0.00010751
1.15923e-05
1.19039e-10
1.64604e-11
4.47508e-11
1.1088e-10
2.87562e-10
4.4189e-05
1.54549e-05
5.99685e-05
3.59718e-07
1.53268e-07
2.94018e-07
2.57809e-08
7.19661e-07
5.99836e-07
2.12076e-08
5.94233e-05
1.90438e-05
7.11572e-05
2.14146e-05
0.000142818
0.000263314
7.39513e-05
2.01608e-05
1.05313e-05
1.06426e-05
1.44482e-05
2.44141e-05
2.85091e-06
8.61711e-05
4.09639e-10
2.52592e-10
1.20866e-11
2.1443e-11
5.97884e-11
4.26934e-10
1.10027e-09
3.7424e-05
0.000382118
1.68385e-06
2.94191e-07
6.54134e-07
3.35875e-08
1.0714e-05
1.49566e-07
2.33549e-08
5.69787e-05
3.47445e-06
7.16424e-05
2.80181e-05
0.000453313
0.000262146
4.98272e-06
5.38988e-06
0.000329557
0.000802963
1.68774e-05
3.64955e-05
9.25494e-05
7.42713e-05
9.06595e-07
8.31603e-11
1.09528e-11
1.11243e-11
2.83288e-11
4.51864e-10
1.0065e-05
3.84283e-14
0.00034161
2.60096e-06
0.000125472
0.00145553
0.00130227
0.000300669
3.25422e-07
3.12625e-08
1.1274e-07
3.25361e-06
7.14908e-05
1.66298e-05
0.000680605
6.82784e-06
6.01985e-06
5.67036e-06
0.000502545
0.000740179
0.00073775
2.93783e-06
1.55884e-05
5.23756e-05
8.17748e-06
1.01851e-10
1.31145e-11
5.4545e-12
1.20968e-11
2.27067e-10
1.85674e-12
1.73828e-12
0.000171596
5.64285e-07
0.00139613
0.0018107
0.00181354
0.00181469
4.64985e-06
4.56269e-07
6.52157e-07
1.7466e-06
2.34621e-05
1.83932e-05
0.000682659
0.000249131
4.34672e-05
2.11271e-06
0.000789341
0.000679262
0.000517955
7.20255e-07
7.17332e-07
1.28693e-05
1.28386e-06
9.96745e-11
1.37677e-11
2.38749e-12
4.80226e-12
2.8509e-11
6.40827e-11
4.38654e-11
1.085e-06
4.59559e-08
4.46166e-05
0.00185163
0.00184387
0.00155919
2.82224e-05
0.00288416
0.000232177
1.9962e-06
2.24849e-06
0.000656915
0.000228017
0.000682078
7.90108e-05
2.38763e-08
0.00051041
0.000874225
1.64017e-06
1.64565e-06
1.66128e-06
1.44034e-07
9.38547e-07
1.61865e-10
1.40204e-11
9.11498e-13
1.7828e-12
9.86801e-12
3.84209e-11
1.82114e-11
2.70019e-06
2.98796e-08
1.01948e-08
8.13678e-09
0.00109722
4.10066e-06
0.0010391
0.00485696
0.00470409
0.00110282
0.00223326
0.00223042
0.000194367
0.000916354
0.000102536
-2.23695e-10
6.15388e-05
0.000732991
2.85453e-06
5.26546e-07
2.7183e-07
1.50984e-08
2.38913e-06
8.63985e-11
7.59413e-12
2.97662e-13
5.78675e-13
3.12672e-12
1.78791e-11
7.52512e-12
1.6278e-07
3.99293e-08
1.00383e-08
8.22604e-09
8.12299e-09
9.48007e-07
1.37711e-06
8.21815e-05
3.43097e-05
0.000682629
0.00223584
0.00224414
0.000405992
0.00101968
5.6837e-10
2.77025e-10
2.79857e-08
1.67493e-07
7.74395e-07
7.27142e-10
2.82909e-09
1.6763e-05
3.46385e-06
5.83244e-11
5.19263e-12
9.15933e-14
1.52207e-13
7.51058e-13
5.46344e-12
1.21432e-12
1.33786e-08
9.61306e-08
1.909e-07
1.3912e-08
4.39496e-06
1.31695e-06
1.8094e-06
7.9971e-06
8.76375e-08
1.00887e-05
0.000137038
9.15701e-07
1.56797e-09
8.38279e-10
2.96741e-10
1.85516e-10
2.84254e-10
6.4602e-10
5.99015e-10
5.37088e-10
7.19352e-10
5.59487e-05
3.41478e-08
1.93928e-10
3.30616e-12
3.42883e-14
3.05418e-14
1.19928e-13
8.78617e-13
8.45112e-14
1.26114e-08
1.26849e-08
6.74897e-06
1.02287e-06
1.41076e-06
8.55732e-05
6.51465e-05
2.13327e-09
7.47884e-09
2.91197e-07
2.21263e-09
8.63302e-10
6.12076e-10
4.03747e-10
2.41258e-10
8.99597e-11
4.67732e-09
6.04801e-10
1.209e-06
2.17807e-07
3.54846e-05
4.89565e-05
3.96566e-08
1.88668e-10
2.94819e-12
1.65021e-14
4.37487e-15
1.22902e-14
6.52721e-14
3.1712e-15
9.09776e-06
4.51055e-06
1.85328e-06
6.7808e-05
0.000101074
4.65345e-05
3.71652e-09
1.56108e-09
1.80802e-08
6.78436e-09
6.94454e-10
5.86762e-10
5.17382e-10
2.66914e-10
9.91302e-11
5.04851e-11
2.67914e-08
5.91542e-08
9.81912e-07
2.624e-07
1.459e-08
3.39288e-06
1.21455e-07
5.88179e-11
1.00142e-12
6.35903e-15
4.15191e-16
8.52654e-16
1.97163e-15
6.97903e-17
1.40088e-05
0.000232862
0.000167722
2.14743e-05
1.24046e-07
1.02703e-08
1.5194e-09
1.50934e-09
1.60463e-09
5.75763e-10
4.68828e-10
4.60675e-10
2.59835e-10
1.06836e-10
3.19156e-11
1.47949e-10
4.69235e-10
1.31662e-05
1.55659e-06
1.36413e-05
2.34959e-07
1.00368e-05
9.37081e-11
1.9122e-11
3.96771e-13
2.11481e-15
2.50998e-17
4.05694e-17
2.41646e-17
8.38324e-19
0.000238049
0.000241139
1.97218e-07
1.05033e-08
9.60879e-09
1.91252e-08
7.16609e-09
2.0584e-05
2.46014e-05
1.58826e-05
4.61351e-10
4.6021e-10
2.09276e-10
5.30863e-11
5.03353e-11
1.70282e-10
3.65043e-05
0.00016099
2.23541e-06
7.06229e-06
1.35067e-06
3.10097e-08
1.73727e-10
9.1974e-12
1.18251e-13
4.46693e-16
1.07002e-18
1.15869e-18
1.98623e-19
5.81192e-21
0.000237231
0.000241354
7.88643e-09
6.8251e-09
6.82397e-09
7.40388e-09
1.14961e-06
1.53381e-05
2.45413e-05
2.42688e-09
6.18302e-10
7.14702e-10
1.48933e-10
2.61127e-11
6.22696e-11
1.83189e-09
0.00016099
0.000133642
2.23521e-06
6.9461e-05
0.000109614
1.37657e-10
4.17934e-11
1.58658e-12
1.82156e-14
5.73159e-17
4.7614e-20
1.73428e-20
1.66067e-21
3.09196e-23
9.11886e-05
0.000219159
6.75803e-09
6.75193e-09
6.74117e-09
6.71748e-09
7.0061e-09
2.58265e-06
1.51271e-05
1.45161e-05
3.33812e-10
7.91461e-10
9.68226e-11
8.53916e-12
1.35067e-10
7.22496e-10
0.000103164
0.000161386
9.72094e-05
0.000103768
8.00874e-11
8.32266e-11
7.36013e-12
1.81014e-13
1.44788e-15
3.26649e-18
1.56421e-21
1.27729e-22
8.27822e-24
8.21505e-26
2.81314e-06
9.15694e-08
6.88694e-09
1.96103e-08
2.50608e-08
6.69871e-09
2.81326e-06
3.31373e-06
1.6585e-06
5.16599e-06
3.12219e-10
1.88847e-10
2.61942e-11
1.537e-12
2.51163e-11
7.81756e-11
9.91389e-06
0.000161388
0.000143591
1.20998e-09
1.09789e-10
2.76405e-11
9.00715e-13
9.71595e-15
4.0559e-17
5.44717e-20
1.58693e-23
4.50344e-25
2.05422e-26
1.07046e-28
2.74491e-05
2.40054e-05
4.34689e-06
1.05558e-08
3.819e-06
3.05467e-06
2.52498e-08
1.09988e-05
6.04228e-06
3.27514e-10
1.95901e-10
7.49036e-11
7.42961e-12
1.41364e-13
4.78937e-13
1.71699e-11
7.29064e-11
4.06245e-06
1.06827e-09
1.59509e-10
4.46502e-11
1.55831e-12
1.91522e-14
7.73117e-17
1.68711e-19
1.33466e-22
2.35309e-26
7.61078e-28
2.52852e-29
6.98129e-32
1.31859e-08
1.79887e-07
8.60405e-08
5.89453e-09
4.34904e-06
9.54325e-06
1.7422e-07
8.19475e-07
6.27727e-09
3.74481e-10
9.02836e-11
1.06006e-11
4.84399e-13
5.51163e-15
1.92322e-15
4.22653e-13
1.74346e-11
5.6811e-11
1.02601e-10
1.24826e-10
1.66755e-12
1.69507e-14
6.40276e-17
6.02178e-20
5.13902e-23
2.00152e-26
2.32606e-30
6.41367e-31
1.58764e-32
2.42855e-35
1.3606e-08
8.6576e-10
1.09583e-09
4.33305e-10
1.3826e-07
7.22429e-08
2.23295e-10
2.33733e-10
1.05678e-10
2.70414e-11
3.63931e-12
2.39562e-13
6.61499e-15
5.29484e-17
7.82733e-20
8.67614e-17
3.13262e-14
4.09075e-12
1.32722e-11
1.33574e-12
8.1247e-15
2.94096e-17
2.92686e-20
2.76455e-24
3.83191e-28
5.23603e-32
2.73408e-34
2.94279e-34
5.61424e-36
5.02078e-39
4.877e-10
2.41854e-10
1.72639e-10
1.65995e-10
2.90148e-10
1.15825e-10
4.42335e-11
1.64395e-11
4.62294e-12
6.9139e-13
5.12933e-14
1.83379e-15
2.61062e-17
1.08593e-19
7.09924e-23
7.022e-22
3.4296e-18
5.29763e-15
9.02388e-14
3.02791e-15
8.78672e-18
1.14085e-20
2.54075e-24
1.59785e-29
2.33934e-35
4.47854e-38
9.1e-38
8.60255e-38
1.36237e-39
7.4858e-43
1
1
1
1
1
1
1
1
1
1
1
1
1
1
1
1
1
1
1
1
1
1
1
1
1
1
1
1
1
1
1
1
1
1
1
1
1
1
1
1
1
1
1
1
1
1
1
1
1
1
1
1
1
1
1
1
1
1
1
1
1
1
1
1
1
1
1
1
1
1
1
1
1
1
1
1
1
1
1
1
1
1
1
1
1
1
1
1
1
1
1
1
1
1
1
1
1
1
1
1
1
1
1
1
1
1
1
1
1
1
1
1
1
1
1
1
1
1
1
1
1
1
1
1
1
1
1
1
1
1
1
1
1
1
1
1
1
1
1
1
1
1
1
1
1
1
1
1
1
1
1
1
1
1
1
1
1
1
1
1
1
1
1
1
1
1
1
1
1
1
1
1
1
1
1
1
1
1
1
1
1
1
1
1
1
1
1
1
1
1
1
1
1
1
1
1
1
1
1
1
1
1
1
1
1
1
1
1
1
1
1
1
1
1
1
1
1
1
1
1
1
1
1
1
1
1
1
1
1
1
1
1
1
1
1
1
1
1
1
1
1
1
1
1
1
1
1
1
1
1
1
1
1
1
1
1
1
1
1
1
1
1
1
1
1
1
1
1
1
1
1
1
1
1
1
1
1
1
1
1
1
1
1
1
1
1
1
1
1
1
1
1
1
1
1
1
1
1
1
1
1
1
1
1
1
1
1
1
1
1
1
1
1
1
1
1
1
1
1
1
1
1
1
1
1
1
1
1
1
1
1
1
1
1
1
1
1
1
1
1
1
1
1
1
1
1
1
1
1
1
1
1
1
1
1
1
1
1
1
1
1
1
1
1
1
1
1
1
1
1
1
1
1
1
1
1
1
1
1
1
1
1
1
1
1
1
1
1
1
1
1
1
1
1
1
1
1
1
1
1
1
1
1
1
1
1
1
1
1
1
1
1
1
1
1
1
1
1
1
1
1
1
1
1
1
1
1
1
1
1
1
1
1
1
1
1
1
1
1
1
1
1
1
1
1
1
1
1
1
1
1
1
1
1
1
1
1
1
1
1
1
1
1
1
1
1
1
1
1
1
1
1
1
1
1
1
1
1
1
1
1
1
1
1
1
1
1
1
1
1
1
1
1
1
1
1
1
1
1
1
1
1
1
1
1
1
1
1
1
1
1
1
1
1
1
1
1
1
1
1
1
1
1
1
1
1
1
1
1
1
1
1
1
1
1
1
1
1
1
1
1
1
1
1
1
1
1
0.999999
0.999992
1
1
1
1
1
1
1
1
1
1
1
1
1
1
1
1
1
1
1
1
1
1
1
1
1
1
1
1
0.999999
0.999992
0.999999
1
1
1
1
1
1
1
1
1
1
1
1
1
1
1
1
1
1
1
1
1
1
1
1
1
1
1
1
0.999999
0.999998
1
1
1
1
1
1
1
1
1
1
1
1
1
1
1
1
1
1
1
1
1
1
1
1
1
1
1
1
1
0.999999
0.901926
0.90174
1
1
1
1
1
1
1
1
1
1
1
1
1
1
1
1
1
1
1
1
1
1
1
1
1
1
1
0.953835
0.00100137
0.0294132
0.9956
1
1
1
1
1
0.999976
0.999989
1
1
1
1
1
1
1
1
1
1
1
1
1
1
1
1
1
0.999999
0.495739
1.18958e-05
0.00022271
0.00772102
0.999341
1
1
1
1
0.999998
0.999927
0.999972
1
1
1
1
1
1
1
1
1
1
1
1
1
1
1
1
1
0.68778
3.34876e-05
1.14916e-07
7.2686e-08
0.000676807
0.999357
0.998881
0.999892
1
1
0.999949
0.999997
0.999989
0.999983
1
1
1
1
1
1
1
1
1
1
0.999979
0.977851
1
1
1
0.98735
0.000174159
7.89699e-07
3.7701e-09
9.94973e-10
6.84173e-05
0.951781
0.999914
0.999359
0.99971
0.999999
0.999979
0.999984
0.999993
0.999992
1
1
1
1
1
1
1
1
1
1
0.99967
0.95393
1
1
0.999996
0.0427932
5.90148e-06
1.76264e-08
5.49491e-10
-3.67916e-09
7.84303e-06
0.823138
0.99999
0.999358
0.99987
0.999999
0.999999
0.998804
0.999268
0.999994
1
1
1
1
1
1
1
1
1
1
0.999497
0.966887
1
1
0.817585
1.85544e-05
2.83938e-08
6.75829e-10
4.72244e-10
2.99958e-10
0.000396609
0.537834
0.999991
0.999991
0.99999
0.99984
0.999943
0.998883
0.999857
0.999964
0.99998
1
1
1
1
1
1
1
1
1
0.99849
0.953436
1
0.99652
6.22955e-05
1.79246e-07
3.92133e-10
2.88539e-10
3.82732e-10
3.39088e-10
4.22417e-07
0.11526
0.999991
0.999991
0.999988
0.999916
0.999704
0.999892
0.999942
0.999969
1
1
1
1
1
1
1
1
1
1
0.984359
0.998094
0.999921
0.025052
2.5127e-06
9.31266e-09
3.37688e-10
2.83086e-10
3.4233e-10
3.352e-10
3.28962e-05
0.0200322
0.999984
0.999984
0.997827
0.999938
0.999892
0.999794
0.999896
0.999999
1
1
0.999995
0.999998
1
1
1
1
1
1
1
1
1
1
1
1
1
1
1
1
1
1
1
1
1
1
1
1
1
1
1
1
1
1
1
1
1
1
1
1
1
1
1
1
1
1
1
1
1
1
1
1
1
1
1
1
1
1
1
1
1
1
1
1
1
1
1
1
1
1
1
1
1
1
1
1
1
1
1
1
1
1
1
1
1
1
1
1
1
1
1
1
1
1
1
1
1
1
1
1
1
1
1
1
1
1
1
1
1
1
1
1
1
1
1
1
1
1
1
1
1
1
1
1
1
1
1
1
1
1
1
1
1
1
1
1
1
1
1
1
1
1
1
1
1
1
1
1
1
1
1
1
1
1
1
1
1
1
1
1
1
1
1
1
1
1
1
1
1
1
1
1
1
1
1
1
1
1
1
1
1
1
1
1
1
1
1
1
1
1
1
1
1
1
1
1
1
1
1
1
1
1
1
1
1
1
1
1
1
1
1
1
1
1
1
1
1
1
1
1
1
1
1
1
1
1
1
1
1
1
1
1
1
1
1
1
1
1
1
1
1
1
1
1
1
1
1
1
1
1
1
1
1
1
1
1
1
1
1
1
1
1
1