/*--------------------------------*- C++ -*----------------------------------*\
| =========                 |                                                 |
| \\      /  F ield         | OpenFOAM: The Open Source CFD Toolbox           |
|  \\    /   O peration     | Version:  2.4.0                                 |
|   \\  /    A nd           | Web:      www.OpenFOAM.org                      |
|    \\/     M anipulation  |                                                 |
\*---------------------------------------------------------------------------*/
FoamFile
{
    version     2.0;
    format      ascii;
    class       volVectorField;
    location    "0.308";
    object      U;
}
// * * * * * * * * * * * * * * * * * * * * * * * * * * * * * * * * * * * * * //

dimensions      [0 1 -1 0 0 0 0];

internalField   nonuniform List<vector> 
10000
(
(-1.09002e-06 1.08969e-06 0)
(-2.54213e-06 8.6401e-07 0)
(-2.21439e-06 4.09021e-07 0)
(-3.78317e-07 5.81981e-08 0)
(2.66213e-06 -1.99997e-07 0)
(6.64848e-06 -3.9959e-07 0)
(1.1381e-05 -5.46736e-07 0)
(1.66345e-05 -6.37219e-07 0)
(2.21487e-05 -6.68571e-07 0)
(2.76526e-05 -6.43624e-07 0)
(3.28939e-05 -5.69639e-07 0)
(3.76579e-05 -4.56404e-07 0)
(4.17798e-05 -3.14775e-07 0)
(4.51487e-05 -1.55892e-07 0)
(4.77089e-05 9.19006e-09 0)
(4.94571e-05 1.6984e-07 0)
(5.04374e-05 3.16449e-07 0)
(5.07354e-05 4.4118e-07 0)
(5.04671e-05 5.37739e-07 0)
(4.97618e-05 6.03144e-07 0)
(4.87515e-05 6.44927e-07 0)
(4.75529e-05 6.69017e-07 0)
(4.62437e-05 6.85403e-07 0)
(4.48506e-05 7.04663e-07 0)
(4.33361e-05 7.38778e-07 0)
(4.16058e-05 8.05359e-07 0)
(3.95193e-05 9.13594e-07 0)
(3.69013e-05 1.06648e-06 0)
(3.3571e-05 1.26163e-06 0)
(2.93724e-05 1.48994e-06 0)
(2.42008e-05 1.73648e-06 0)
(1.80251e-05 1.98129e-06 0)
(1.09053e-05 2.2006e-06 0)
(3.00768e-06 2.36691e-06 0)
(-5.39641e-06 2.45663e-06 0)
(-1.39802e-05 2.46566e-06 0)
(-2.24371e-05 2.40626e-06 0)
(-3.05384e-05 2.30127e-06 0)
(-3.81639e-05 2.177e-06 0)
(-4.53037e-05 2.05748e-06 0)
(-5.20408e-05 1.96085e-06 0)
(-5.85216e-05 1.8982e-06 0)
(-6.49256e-05 1.87396e-06 0)
(-7.14382e-05 1.88728e-06 0)
(-7.82324e-05 1.93367e-06 0)
(-8.54562e-05 2.00626e-06 0)
(-9.32261e-05 2.09702e-06 0)
(-0.000101624 2.1979e-06 0)
(-0.000110698 2.30173e-06 0)
(-0.000120463 2.403e-06 0)
(-8.76032e-07 2.56705e-06 0)
(-3.01159e-07 2.74942e-07 0)
(4.27451e-06 -2.95154e-06 0)
(1.21109e-05 -5.54256e-06 0)
(2.26025e-05 -7.58461e-06 0)
(3.52831e-05 -9.22439e-06 0)
(4.97111e-05 -1.04515e-05 0)
(6.53507e-05 -1.12007e-05 0)
(8.15768e-05 -1.14332e-05 0)
(9.77367e-05 -1.11599e-05 0)
(0.000113214 -1.04338e-05 0)
(0.000127477 -9.33559e-06 0)
(0.000140107 -7.96212e-06 0)
(0.00015082 -6.41804e-06 0)
(0.000159465 -4.80938e-06 0)
(0.000166026 -3.23761e-06 0)
(0.00017061 -1.79309e-06 0)
(0.000173431 -5.47814e-07 0)
(0.000174781 4.50878e-07 0)
(0.000175001 1.18725e-06 0)
(0.000174433 1.68526e-06 0)
(0.000173373 1.99957e-06 0)
(0.000172034 2.21443e-06 0)
(0.000170509 2.4332e-06 0)
(0.000168752 2.76732e-06 0)
(0.000166573 3.32602e-06 0)
(0.00016366 4.1881e-06 0)
(0.000159624 5.38937e-06 0)
(0.00015406 6.91308e-06 0)
(0.000146617 8.68698e-06 0)
(0.000137059 1.05906e-05 0)
(0.000125319 1.24649e-05 0)
(0.000111539 1.41227e-05 0)
(9.60996e-05 1.53605e-05 0)
(7.96293e-05 1.60164e-05 0)
(6.28821e-05 1.60626e-05 0)
(4.65528e-05 1.55963e-05 0)
(3.11456e-05 1.47974e-05 0)
(1.69061e-05 1.38766e-05 0)
(3.81738e-06 1.30296e-05 0)
(-8.35665e-06 1.24085e-05 0)
(-2.00046e-05 1.21092e-05 0)
(-3.15948e-05 1.21722e-05 0)
(-4.36132e-05 1.25926e-05 0)
(-5.65156e-05 1.33319e-05 0)
(-7.06962e-05 1.43315e-05 0)
(-8.64696e-05 1.55235e-05 0)
(-0.000104063 1.68395e-05 0)
(-0.000123618 1.82171e-05 0)
(-0.000145196 1.96032e-05 0)
(-4.41584e-07 2.31289e-06 0)
(2.87538e-06 -4.27719e-06 0)
(1.17137e-05 -1.17582e-05 0)
(2.49441e-05 -1.7843e-05 0)
(4.17673e-05 -2.27727e-05 0)
(6.16044e-05 -2.67877e-05 0)
(8.38514e-05 -2.98024e-05 0)
(0.00010775 -3.16314e-05 0)
(0.000132412 -3.21639e-05 0)
(0.000156911 -3.14135e-05 0)
(0.000180364 -2.9502e-05 0)
(0.000202003 -2.66275e-05 0)
(0.00022122 -2.30351e-05 0)
(0.000237593 -1.89952e-05 0)
(0.000250898 -1.47847e-05 0)
(0.000261111 -1.067e-05 0)
(0.000268394 -6.88831e-06 0)
(0.000273072 -3.62914e-06 0)
(0.000275593 -1.01605e-06 0)
(0.000276478 9.08026e-07 0)
(0.000276259 2.18648e-06 0)
(0.000275411 2.95289e-06 0)
(0.000274288 3.41624e-06 0)
(0.000273072 3.83965e-06 0)
(0.000271744 4.50868e-06 0)
(0.000270072 5.6897e-06 0)
(0.000267637 7.58803e-06 0)
(0.000263897 1.03034e-05 0)
(0.000258274 1.38014e-05 0)
(0.000250258 1.79072e-05 0)
(0.0002395 2.2327e-05 0)
(0.000225889 2.66739e-05 0)
(0.000209591 3.04934e-05 0)
(0.000191126 3.32819e-05 0)
(0.000171415 3.46321e-05 0)
(0.000151587 3.4488e-05 0)
(0.000132649 3.31077e-05 0)
(0.000115297 3.09536e-05 0)
(9.98279e-05 2.85593e-05 0)
(8.61437e-05 2.64182e-05 0)
(7.38277e-05 2.49118e-05 0)
(6.22476e-05 2.42794e-05 0)
(5.06638e-05 2.46212e-05 0)
(3.83211e-05 2.59217e-05 0)
(2.45155e-05 2.80819e-05 0)
(8.63962e-06 3.09519e-05 0)
(-9.7927e-06 3.4359e-05 0)
(-3.11372e-05 3.81284e-05 0)
(-5.56209e-05 4.20972e-05 0)
(-8.33529e-05 4.61225e-05 0)
(-1.08714e-07 5.66139e-07 0)
(5.50721e-06 -1.21323e-05 0)
(1.80548e-05 -2.5039e-05 0)
(3.59836e-05 -3.55393e-05 0)
(5.82504e-05 -4.4142e-05 0)
(8.41344e-05 -5.11731e-05 0)
(0.000112877 -5.64332e-05 0)
(0.000143532 -5.95807e-05 0)
(0.000175005 -6.0411e-05 0)
(0.000206153 -5.89376e-05 0)
(0.000235887 -5.53683e-05 0)
(0.000263252 -5.00514e-05 0)
(0.00028749 -4.34267e-05 0)
(0.000308068 -3.59849e-05 0)
(0.000324706 -2.82331e-05 0)
(0.000337378 -2.06615e-05 0)
(0.000346299 -1.37099e-05 0)
(0.000351901 -7.73328e-06 0)
(0.000354783 -2.96907e-06 0)
(0.000355647 4.89768e-07 0)
(0.00035522 2.71105e-06 0)
(0.000354168 3.92451e-06 0)
(0.000353007 4.50211e-06 0)
(0.000352038 4.91973e-06 0)
(0.000351297 5.70154e-06 0)
(0.000350537 7.34689e-06 0)
(0.00034925 1.0249e-05 0)
(0.000346739 1.46091e-05 0)
(0.000342238 2.03816e-05 0)
(0.000335056 2.72608e-05 0)
(0.000324709 3.47294e-05 0)
(0.000310996 4.21087e-05 0)
(0.000294041 4.85982e-05 0)
(0.00027443 5.32478e-05 0)
(0.000253419 5.52391e-05 0)
(0.000232603 5.44956e-05 0)
(0.000213342 5.15423e-05 0)
(0.000196505 4.7271e-05 0)
(0.000182384 4.26823e-05 0)
(0.000170736 3.86825e-05 0)
(0.000160907 3.59581e-05 0)
(0.000151983 3.49287e-05 0)
(0.000142938 3.57587e-05 0)
(0.00013275 3.84037e-05 0)
(0.000120487 4.26723e-05 0)
(0.000105352 4.82846e-05 0)
(8.6716e-05 5.49219e-05 0)
(6.41194e-05 6.22616e-05 0)
(3.72689e-05 7.00014e-05 0)
(6.02331e-06 7.78712e-05 0)
(1.48093e-07 -2.44333e-06 0)
(7.78937e-06 -2.2905e-05 0)
(2.37999e-05 -4.23438e-05 0)
(4.62017e-05 -5.80677e-05 0)
(7.36474e-05 -7.09652e-05 0)
(0.000105216 -8.14693e-05 0)
(0.00013997 -8.9257e-05 0)
(0.00017678 -9.38176e-05 0)
(0.000214363 -9.48457e-05 0)
(0.000251389 -9.23582e-05 0)
(0.000286594 -8.66625e-05 0)
(0.000318865 -7.82826e-05 0)
(0.000347309 -6.78881e-05 0)
(0.000371301 -5.62333e-05 0)
(0.000390511 -4.41046e-05 0)
(0.000404913 -3.22682e-05 0)
(0.00041478 -2.1418e-05 0)
(0.000420652 -1.2122e-05 0)
(0.000423285 -4.77162e-06 0)
(0.000423576 4.63589e-07 0)
(0.000422471 3.66617e-06 0)
(0.000420851 5.17524e-06 0)
(0.00041943 5.55932e-06 0)
(0.00041866 5.56033e-06 0)
(0.000418663 6.01209e-06 0)
(0.000419193 7.72858e-06 0)
(0.000419638 1.13728e-05 0)
(0.000419104 1.73044e-05 0)
(0.000416571 2.54861e-05 0)
(0.000411104 3.54534e-05 0)
(0.000402033 4.64194e-05 0)
(0.000389022 5.73682e-05 0)
(0.000372042 6.71059e-05 0)
(0.000351622 7.40175e-05 0)
(0.000329496 7.65462e-05 0)
(0.000307994 7.46387e-05 0)
(0.00028894 6.9267e-05 0)
(0.000273381 6.19607e-05 0)
(0.000261543 5.43652e-05 0)
(0.000252946 4.79219e-05 0)
(0.000246612 4.36851e-05 0)
(0.00024128 4.22678e-05 0)
(0.000235599 4.38784e-05 0)
(0.000228272 4.84059e-05 0)
(0.000218147 5.55211e-05 0)
(0.000204265 6.47687e-05 0)
(0.000185882 7.56407e-05 0)
(0.000162466 8.76277e-05 0)
(0.000133685 0.000100251 0)
(9.93918e-05 0.000113083 0)
(3.76649e-07 -6.57783e-06 0)
(9.96654e-06 -3.64634e-05 0)
(2.94216e-05 -6.36123e-05 0)
(5.63278e-05 -8.53954e-05 0)
(8.8994e-05 -0.000103176 0)
(0.000126256 -0.000117535 0)
(0.000166968 -0.000128041 0)
(0.000209808 -0.00013402 0)
(0.000253309 -0.00013507 0)
(0.000295964 -0.000131221 0)
(0.000336342 -0.000122892 0)
(0.000373178 -0.000110805 0)
(0.000405455 -9.58908e-05 0)
(0.000432453 -7.92049e-05 0)
(0.000453793 -6.18586e-05 0)
(0.000469451 -4.4945e-05 0)
(0.000479755 -2.94654e-05 0)
(0.000485359 -1.62542e-05 0)
(0.000487187 -5.90409e-06 0)
(0.000486356 1.30224e-06 0)
(0.000484063 5.44539e-06 0)
(0.000481449 6.98214e-06 0)
(0.000479469 6.71046e-06 0)
(0.000478774 5.69576e-06 0)
(0.000479611 5.16695e-06 0)
(0.000481752 6.361e-06 0)
(0.000484457 1.0316e-05 0)
(0.000486561 1.76547e-05 0)
(0.000486676 2.83739e-05 0)
(0.000483523 4.18077e-05 0)
(0.00047619 5.68373e-05 0)
(0.000464194 7.20823e-05 0)
(0.000447167 8.60024e-05 0)
(0.000425295 9.59623e-05 0)
(0.000401082 9.89563e-05 0)
(0.000378135 9.51205e-05 0)
(0.000358897 8.62105e-05 0)
(0.000344573 7.47126e-05 0)
(0.000335207 6.31516e-05 0)
(0.000329948 5.36407e-05 0)
(0.000327365 4.76504e-05 0)
(0.000325761 4.59699e-05 0)
(0.000323412 4.87985e-05 0)
(0.000318734 5.58928e-05 0)
(0.000310369 6.67219e-05 0)
(0.000297225 8.05983e-05 0)
(0.000278476 9.67768e-05 0)
(0.000253552 0.000114521 0)
(0.000222119 0.000133142 0)
(0.000184058 0.000152022 0)
(5.92584e-07 -1.18011e-05 0)
(1.21038e-05 -5.2801e-05 0)
(3.50163e-05 -8.88999e-05 0)
(6.6479e-05 -0.000117622 0)
(0.00010444 -0.00014088 0)
(0.000147468 -0.000159453 0)
(0.000194192 -0.000172826 0)
(0.000243087 -0.000180179 0)
(0.000292495 -0.000181025 0)
(0.00034073 -0.000175416 0)
(0.00038619 -0.0001639 0)
(0.000427455 -0.000147414 0)
(0.00046337 -0.000127176 0)
(0.000493118 -0.000104582 0)
(0.000516258 -8.11131e-05 0)
(0.000532759 -5.82431e-05 0)
(0.000543002 -3.7339e-05 0)
(0.000547755 -1.95622e-05 0)
(0.000548123 -5.76701e-06 0)
(0.000545472 3.60134e-06 0)
(0.000541297 8.5951e-06 0)
(0.000537053 9.79265e-06 0)
(0.000533993 8.25283e-06 0)
(0.00053303 5.42348e-06 0)
(0.000534598 3.02495e-06 0)
(0.000538517 2.86088e-06 0)
(0.000543914 6.52318e-06 0)
(0.000549252 1.50393e-05 0)
(0.000552597 2.84997e-05 0)
(0.000552177 4.59352e-05 0)
(0.00054681 6.57782e-05 0)
(0.000535979 8.62786e-05 0)
(0.000518688 0.000105902 0)
(0.000494048 0.000120426 0)
(0.000465908 0.000123788 0)
(0.000440221 0.000116869 0)
(0.000420156 0.000102855 0)
(0.000406925 8.56622e-05 0)
(0.00040018 6.899e-05 0)
(0.000398485 5.57595e-05 0)
(0.000399789 4.78698e-05 0)
(0.000401851 4.62228e-05 0)
(0.000402531 5.09115e-05 0)
(0.000399958 6.14595e-05 0)
(0.000392598 7.70467e-05 0)
(0.000379262 9.66858e-05 0)
(0.000359088 0.000119343 0)
(0.00033151 0.000144017 0)
(0.000296229 0.000169777 0)
(0.000253191 0.000195787 0)
(7.9764e-07 -1.80888e-05 0)
(1.41847e-05 -7.18964e-05 0)
(4.0518e-05 -0.000118215 0)
(7.65236e-05 -0.000154786 0)
(0.000119791 -0.000184137 0)
(0.000168614 -0.000207286 0)
(0.000221392 -0.000223669 0)
(0.00027639 -0.000232336 0)
(0.000331752 -0.000232732 0)
(0.000385601 -0.000224936 0)
(0.000436152 -0.000209635 0)
(0.000481813 -0.000188003 0)
(0.000521278 -0.000161568 0)
(0.000553604 -0.000132104 0)
(0.000578276 -0.000101511 0)
(0.000595238 -7.1699e-05 0)
(0.000604908 -4.44654e-05 0)
(0.000608162 -2.13691e-05 0)
(0.000606293 -3.60115e-06 0)
(0.000600946 8.16019e-06 0)
(0.000593968 1.38995e-05 0)
(0.000587194 1.43164e-05 0)
(0.000582235 1.07565e-05 0)
(0.000580343 5.09919e-06 0)
(0.000582239 -3.37617e-07 0)
(0.000587887 -3.00153e-06 0)
(0.000596286 -4.84961e-07 0)
(0.000605418 8.88947e-06 0)
(0.000612533 2.54133e-05 0)
(0.000615122 4.75954e-05 0)
(0.000611742 7.31539e-05 0)
(0.000602334 9.99313e-05 0)
(0.000584884 0.000127605 0)
(0.000555624 0.000149532 0)
(0.000520917 0.000152851 0)
(0.000491188 0.0001409 0)
(0.000470077 0.000119514 0)
(0.000458374 9.46755e-05 0)
(0.000454956 7.15644e-05 0)
(0.0004575 5.40037e-05 0)
(0.000463137 4.42607e-05 0)
(0.000468982 4.3211e-05 0)
(0.000472459 5.06825e-05 0)
(0.000471443 6.58262e-05 0)
(0.000464283 8.74265e-05 0)
(0.000449758 0.000114123 0)
(0.000427025 0.000144547 0)
(0.000395568 0.000177396 0)
(0.000355161 0.000211472 0)
(0.00030585 0.000245694 0)
(9.91828e-07 -2.54046e-05 0)
(1.61911e-05 -9.36886e-05 0)
(4.58661e-05 -0.000151503 0)
(8.63454e-05 -0.000196855 0)
(0.000134876 -0.000232937 0)
(0.000189485 -0.000261051 0)
(0.000248346 -0.000280609 0)
(0.000309511 -0.00029055 0)
(0.000370923 -0.000290254 0)
(0.000430502 -0.000279839 0)
(0.000486261 -0.000260135 0)
(0.000536411 -0.000232561 0)
(0.000579466 -0.000198984 0)
(0.000614329 -0.000161592 0)
(0.000640375 -0.000122752 0)
(0.0006575 -8.48737e-05 0)
(0.000666136 -5.02535e-05 0)
(0.000667243 -2.09258e-05 0)
(0.000662292 1.48645e-06 0)
(0.000653232 1.59708e-05 0)
(0.00064233 2.23872e-05 0)
(0.000631859 2.15562e-05 0)
(0.000623841 1.51284e-05 0)
(0.000619953 5.43138e-06 0)
(0.00062135 -4.53333e-06 0)
(0.000628306 -1.12391e-05 0)
(0.000639799 -1.11073e-05 0)
(0.000653236 -1.35637e-06 0)
(0.000664636 1.87436e-05 0)
(0.000670301 4.6726e-05 0)
(0.000668485 7.89671e-05 0)
(0.000660995 0.000112518 0)
(0.000644477 0.000151676 0)
(0.000608142 0.000186425 0)
(0.000563287 0.000188102 0)
(0.000528971 0.00016764 0)
(0.000507894 0.000135639 0)
(0.000499434 0.00010074 0)
(0.000501123 6.98006e-05 0)
(0.000509396 4.75182e-05 0)
(0.000520363 3.63411e-05 0)
(0.000530445 3.68681e-05 0)
(0.000536682 4.84295e-05 0)
(0.000536794 6.96264e-05 0)
(0.000529113 9.87341e-05 0)
(0.000512481 0.000133953 0)
(0.00048614 0.000173545 0)
(0.000449673 0.000215886 0)
(0.000402964 0.00025949 0)
(0.000346185 0.000303008 0)
(1.1769e-06 -3.37094e-05 0)
(1.81247e-05 -0.000118098 0)
(5.10501e-05 -0.000188674 0)
(9.59137e-05 -0.000243754 0)
(0.000149645 -0.00028724 0)
(0.000210025 -0.000320751 0)
(0.000275013 -0.0003437 0)
(0.000342458 -0.000354924 0)
(0.000410096 -0.00035374 0)
(0.000475636 -0.000340298 0)
(0.00053687 -0.00031557 0)
(0.000591779 -0.000281228 0)
(0.000638655 -0.000239498 0)
(0.000676208 -0.000193016 0)
(0.000703663 -0.000144675 0)
(0.000720829 -9.74438e-05 0)
(0.000728116 -5.41878e-05 0)
(0.000726526 -1.74957e-05 0)
(0.000717659 1.0459e-05 0)
(0.000703789 2.81753e-05 0)
(0.000687679 3.53107e-05 0)
(0.000672095 3.28264e-05 0)
(0.000659469 2.26902e-05 0)
(0.000651961 7.61425e-06 0)
(0.000651376 -8.69325e-06 0)
(0.000658587 -2.15061e-05 0)
(0.000672804 -2.55809e-05 0)
(0.000690883 -1.62594e-05 0)
(0.000707037 8.30395e-06 0)
(0.000715491 4.37755e-05 0)
(0.000713692 8.37324e-05 0)
(0.000708601 0.000122363 0)
(0.000695933 0.000177625 0)
(0.00064912 0.000236232 0)
(0.000589396 0.000231058 0)
(0.000552156 0.000195926 0)
(0.000534713 0.000148991 0)
(0.000533247 0.000101379 0)
(0.000543306 6.14953e-05 0)
(0.000559769 3.46658e-05 0)
(0.000577629 2.31374e-05 0)
(0.000592691 2.68409e-05 0)
(0.00060178 4.43041e-05 0)
(0.000602652 7.33824e-05 0)
(0.000593794 0.000111742 0)
(0.000574223 0.000157107 0)
(0.000543348 0.000207363 0)
(0.000500892 0.00026057 0)
(0.000446871 0.000314945 0)
(0.000381596 0.000368848 0)
(1.35574e-06 -4.29709e-05 0)
(1.99995e-05 -0.00014505 0)
(5.60911e-05 -0.000229639 0)
(0.000105252 -0.000295406 0)
(0.000164126 -0.000347008 0)
(0.000230277 -0.000386412 0)
(0.000301472 -0.000413044 0)
(0.000375374 -0.000425642 0)
(0.000449521 -0.00042345 0)
(0.000521403 -0.000406635 0)
(0.000588566 -0.000376298 0)
(0.000648729 -0.000334357 0)
(0.000699912 -0.000283412 0)
(0.000740573 -0.000226585 0)
(0.000769739 -0.000167349 0)
(0.000787085 -0.000109299 0)
(0.000792963 -5.59311e-05 0)
(0.000788337 -1.04487e-05 0)
(0.000774832 2.42806e-05 0)
(0.00075504 4.6017e-05 0)
(0.000732341 5.41136e-05 0)
(0.000710029 4.97657e-05 0)
(0.000690816 3.52915e-05 0)
(0.000677336 1.35624e-05 0)
(0.000672314 -1.11276e-05 0)
(0.000677619 -3.26745e-05 0)
(0.000693151 -4.36283e-05 0)
(0.000715622 -3.6262e-05 0)
(0.000737041 -5.84438e-06 0)
(0.000747868 4.03029e-05 0)
(0.000742317 9.00491e-05 0)
(0.000738809 0.000125608 0)
(0.000735036 0.000201777 0)
(0.000673012 0.000308341 0)
(0.000593373 0.000281315 0)
(0.000559791 0.000221492 0)
(0.0005536 0.000154734 0)
(0.000565508 9.2122e-05 0)
(0.000588825 4.30938e-05 0)
(0.000616776 1.30341e-05 0)
(0.000643372 3.31385e-06 0)
(0.000664135 1.26532e-05 0)
(0.000676043 3.84372e-05 0)
(0.000677193 7.7607e-05 0)
(0.000666446 0.000127176 0)
(0.000643136 0.000184419 0)
(0.000606902 0.000246889 0)
(0.000557632 0.000312361 0)
(0.000495463 0.000378771 0)
(0.00042084 0.000444162 0)
(1.53099e-06 -5.31644e-05 0)
(2.18285e-05 -0.000174479 0)
(6.10089e-05 -0.000274313 0)
(0.000114383 -0.000351741 0)
(0.000178344 -0.000412218 0)
(0.000250278 -0.000458087 0)
(0.000327796 -0.000488797 0)
(0.0004084 -0.000502979 0)
(0.000489448 -0.000499782 0)
(0.000568212 -0.000479358 0)
(0.000641978 -0.000442905 0)
(0.000708156 -0.00039257 0)
(0.000764438 -0.000331323 0)
(0.000808959 -0.000262812 0)
(0.000840477 -0.000191151 0)
(0.000858493 -0.000120636 0)
(0.000863263 -5.54391e-05 0)
(0.000855614 6.24752e-07 0)
(0.000836977 4.38371e-05 0)
(0.000810226 7.07676e-05 0)
(0.000779582 8.03435e-05 0)
(0.000748884 7.42973e-05 0)
(0.000720725 5.54306e-05 0)
(0.000698014 2.62166e-05 0)
(0.000684754 -8.84399e-06 0)
(0.000684293 -4.2155e-05 0)
(0.000697691 -6.36538e-05 0)
(0.00072254 -6.12967e-05 0)
(0.000750279 -2.44729e-05 0)
(0.000765533 3.86387e-05 0)
(0.000750134 0.000106265 0)
(0.000741776 0.000117457 0)
(0.000748736 0.000215695 0)
(0.000665522 0.000417317 0)
(0.00056632 0.000332883 0)
(0.000552253 0.000234606 0)
(0.000570725 0.000144353 0)
(0.000605343 6.61507e-05 0)
(0.000648013 9.82428e-06 0)
(0.000690848 -2.01811e-05 0)
(0.000727564 -2.43809e-05 0)
(0.000754133 -5.90054e-06 0)
(0.000768272 3.12317e-05 0)
(0.00076883 8.29949e-05 0)
(0.000755286 0.000145832 0)
(0.000727396 0.000216686 0)
(0.000685059 0.000292889 0)
(0.000628299 0.000372011 0)
(0.000557332 0.000451726 0)
(0.000472682 0.000529736 0)
(1.7039e-06 -6.42685e-05 0)
(2.36125e-05 -0.000206321 0)
(6.57945e-05 -0.000322611 0)
(0.000123279 -0.000412684 0)
(0.000192255 -0.000482848 0)
(0.000269974 -0.000535848 0)
(0.00035394 -0.000571164 0)
(0.000441537 -0.000587298 0)
(0.000529972 -0.000583271 0)
(0.000616317 -0.000559171 0)
(0.000697586 -0.000516238 0)
(0.000770845 -0.0004568 0)
(0.000833382 -0.000384184 0)
(0.000882917 -0.000302585 0)
(0.000917848 -0.00021684 0)
(0.000937444 -0.000132048 0)
(0.000941883 -5.30999e-05 0)
(0.000931748 1.57481e-05 0)
(0.000907877 6.98276e-05 0)
(0.000873345 0.0001036 0)
(0.000833649 0.000115445 0)
(0.000793173 0.000108459 0)
(0.000753523 8.63219e-05 0)
(0.000717417 4.97354e-05 0)
(0.000690771 2.68055e-06 0)
(0.000678935 -4.55e-05 0)
(0.000683941 -8.17785e-05 0)
(0.000704807 -8.96293e-05 0)
(0.00073836 -5.22804e-05 0)
(0.000768138 3.3425e-05 0)
(0.000746371 0.000146626 0)
(0.000713898 0.000108467 0)
(0.000698216 0.00022388 0)
(0.000585559 0.000573648 0)
(0.000494582 0.000365384 0)
(0.000532316 0.000213254 0)
(0.000598202 0.00010232 0)
(0.000668026 1.35748e-05 0)
(0.000735765 -4.3637e-05 0)
(0.000795022 -6.71125e-05 0)
(0.000841221 -6.01944e-05 0)
(0.000872113 -2.81154e-05 0)
(0.000886825 2.37631e-05 0)
(0.000885282 9.06432e-05 0)
(0.00086773 0.00016867 0)
(0.000834364 0.000254695 0)
(0.00078528 0.000346012 0)
(0.000720547 0.000440093 0)
(0.00064035 0.000534384 0)
(0.000545188 0.000626207 0)
(1.87347e-06 -7.62563e-05 0)
(2.5334e-05 -0.000240494 0)
(7.03945e-05 -0.000374418 0)
(0.00013184 -0.000478129 0)
(0.000205703 -0.000558848 0)
(0.000289161 -0.000619755 0)
(0.000379668 -0.000660358 0)
(0.00047455 -0.000679015 0)
(0.000570916 -0.000674567 0)
(0.000665672 -0.000646969 0)
(0.00075557 -0.00059742 0)
(0.000837307 -0.000528344 0)
(0.000907691 -0.000443365 0)
(0.000963894 -0.000347237 0)
(0.00100381 -0.000245624 0)
(0.00102638 -0.000144593 0)
(0.00103182 -4.98782e-05 0)
(0.00102044 3.43089e-05 0)
(0.00099185 0.000102593 0)
(0.00094908 0.000145436 0)
(0.000899764 0.000160397 0)
(0.000848978 0.000153906 0)
(0.000795718 0.000131751 0)
(0.000741536 8.96064e-05 0)
(0.000695154 2.97265e-05 0)
(0.000664319 -3.58201e-05 0)
(0.000651221 -9.03322e-05 0)
(0.000658277 -0.000116097 0)
(0.000693575 -9.40631e-05 0)
(0.000749614 1.17206e-05 0)
(0.000766254 0.000191139 0)
(0.000692307 0.000172853 0)
(0.000506837 0.000328911 0)
(0.000366769 0.000698582 0)
(0.000410409 0.000329069 0)
(0.000543584 0.000122019 0)
(0.000677624 1.07478e-05 0)
(0.000786636 -7.19763e-05 0)
(0.000875825 -0.000117835 0)
(0.000945682 -0.00012564 0)
(0.000995788 -0.000101282 0)
(0.00102662 -5.13297e-05 0)
(0.00103872 1.82317e-05 0)
(0.00103284 0.000102208 0)
(0.00100984 0.000196837 0)
(0.000970151 0.000299192 0)
(0.000913889 0.000406731 0)
(0.000840985 0.000516948 0)
(0.000751418 0.000627095 0)
(0.000645507 0.000734042 0)
(2.03595e-06 -8.90869e-05 0)
(2.69541e-05 -0.000276882 0)
(7.4705e-05 -0.000429568 0)
(0.000139876 -0.000547905 0)
(0.000218401 -0.000640098 0)
(0.000307452 -0.0007098 0)
(0.000404505 -0.000756555 0)
(0.000506902 -0.00077855 0)
(0.000611733 -0.000774393 0)
(0.000715804 -0.000743818 0)
(0.000815656 -0.000687862 0)
(0.00090762 -0.000608911 0)
(0.000987958 -0.000510759 0)
(0.00105314 -0.000398674 0)
(0.0011003 -0.000279253 0)
(0.00112782 -0.000159819 0)
(0.00113608 -4.73708e-05 0)
(0.0011254 5.48012e-05 0)
(0.00109353 0.000141653 0)
(0.00104273 0.000196876 0)
(0.000983982 0.000215292 0)
(0.000924051 0.000210689 0)
(0.000857023 0.000194756 0)
(0.000781141 0.000152051 0)
(0.000708846 7.99495e-05 0)
(0.000650006 -3.78402e-06 0)
(0.000602795 -7.63233e-05 0)
(0.000576125 -0.000136595 0)
(0.000601525 -0.000177333 0)
(0.000677608 -0.000101466 0)
(0.000712275 0.000247936 0)
(0.000635949 0.00032537 0)
(0.000307077 0.000686511 0)
(0.000147749 0.000729397 0)
(0.000408806 0.000104768 0)
(0.000674323 -8.07184e-05 0)
(0.000860816 -0.000140596 0)
(0.000993129 -0.000185977 0)
(0.00108796 -0.000203669 0)
(0.00115461 -0.000186788 0)
(0.00119851 -0.000140623 0)
(0.00122285 -7.06521e-05 0)
(0.00122833 1.78895e-05 0)
(0.00121571 0.000119709 0)
(0.00118599 0.000231464 0)
(0.00113948 0.000350702 0)
(0.00107602 0.000475199 0)
(0.000995177 0.00060257 0)
(0.000896513 0.000729887 0)
(0.000779956 0.000853476 0)
(2.18469e-06 -0.000102696 0)
(2.84139e-05 -0.000315307 0)
(7.85763e-05 -0.000487805 0)
(0.000147117 -0.000621729 0)
(0.000229941 -0.000726354 0)
(0.000324282 -0.00080585 0)
(0.000427722 -0.000859816 0)
(0.000537716 -0.000886248 0)
(0.000651433 -0.000883468 0)
(0.000765696 -0.000850889 0)
(0.000876937 -0.000789241 0)
(0.000981197 -0.00070067 0)
(0.00107419 -0.000588921 0)
(0.00115153 -0.000459594 0)
(0.00120925 -0.00032023 0)
(0.00124456 -0.000179725 0)
(0.00125789 -4.74682e-05 0)
(0.00124952 7.5589e-05 0)
(0.00121576 0.000185423 0)
(0.00115874 0.000256899 0)
(0.00109249 0.000279416 0)
(0.00102545 0.000276941 0)
(0.000947685 0.00027439 0)
(0.000851377 0.000242724 0)
(0.000749352 0.000165889 0)
(0.000651756 7.60795e-05 0)
(0.000551052 9.22683e-06 0)
(0.000428516 -3.28081e-05 0)
(0.00023348 -4.52627e-05 0)
(-7.34411e-05 1.31304e-05 0)
(-0.000103524 0.000181218 0)
(-1.43724e-05 0.000384374 0)
(-5.49936e-05 0.000776228 0)
(0.00056654 0.000137203 0)
(0.00119402 -9.58642e-05 0)
(0.00121529 -0.000194948 0)
(0.00124309 -0.000248999 0)
(0.00131426 -0.000276057 0)
(0.00137795 -0.000271912 0)
(0.00142072 -0.000233149 0)
(0.00144711 -0.000168351 0)
(0.00145989 -8.07246e-05 0)
(0.00145638 2.57861e-05 0)
(0.00143573 0.000144703 0)
(0.00139895 0.000273139 0)
(0.00134588 0.000409211 0)
(0.00127583 0.000551051 0)
(0.00118785 0.000696445 0)
(0.00108089 0.000842346 0)
(0.000954265 0.000984405 0)
(2.31073e-06 -0.000116987 0)
(2.96398e-05 -0.000355512 0)
(8.1825e-05 -0.000548755 0)
(0.000153236 -0.000699171 0)
(0.000239813 -0.000817196 0)
(0.000338929 -0.000907577 0)
(0.000448358 -0.000969998 0)
(0.000565766 -0.00100226 0)
(0.000688539 -0.00100237 0)
(0.00081367 -0.000969329 0)
(0.000937664 -0.000903392 0)
(0.00105645 -0.000806234 0)
(0.00116536 -0.000681216 0)
(0.00125912 -0.000533868 0)
(0.00133227 -0.000372386 0)
(0.00137992 -0.000207273 0)
(0.00140233 -5.3064e-05 0)
(0.00139944 9.49044e-05 0)
(0.00136376 0.000233987 0)
(0.00130065 0.000322611 0)
(0.00123205 0.000348939 0)
(0.00115974 0.000352402 0)
(0.00107069 0.00036362 0)
(0.000965496 0.000350977 0)
(0.000858819 0.000274608 0)
(0.00075659 0.000185336 0)
(0.00066673 0.000112065 0)
(0.000624549 6.83211e-05 0)
(0.000634927 0.000100166 0)
(0.000665963 0.000169706 0)
(0.000667675 0.000134535 0)
(0.000587108 0.000421558 0)
(0.000541141 0.000606872 0)
(0.000712733 -0.000517326 0)
(0.00102625 -0.000300972 0)
(0.00129266 -0.000301607 0)
(0.00148648 -0.000367872 0)
(0.00162748 -0.000362677 0)
(0.00169694 -0.000322435 0)
(0.0017193 -0.000258967 0)
(0.00172791 -0.000181386 0)
(0.00173162 -8.08034e-05 0)
(0.00172112 4.23103e-05 0)
(0.00169326 0.000177071 0)
(0.00165048 0.000321251 0)
(0.0015922 0.000473827 0)
(0.00151693 0.000633261 0)
(0.00142318 0.000797456 0)
(0.00130932 0.000963475 0)
(0.0011738 0.00112624 0)
(2.40391e-06 -0.000131826 0)
(3.05528e-05 -0.000397146 0)
(8.4257e-05 -0.000611908 0)
(0.000157879 -0.000779622 0)
(0.000247464 -0.000911984 0)
(0.000350584 -0.00101439 0)
(0.00046528 -0.00108666 0)
(0.000589538 -0.00112643 0)
(0.000721096 -0.00113137 0)
(0.000857314 -0.00110004 0)
(0.000995031 -0.00103208 0)
(0.00113039 -0.00092847 0)
(0.00125865 -0.000791762 0)
(0.00137393 -0.000626751 0)
(0.0014692 -0.000441496 0)
(0.00153636 -0.000247182 0)
(0.00157254 -6.69556e-05 0)
(0.00157721 0.000110715 0)
(0.00154271 0.000286019 0)
(0.00147466 0.000392858 0)
(0.00141129 0.000412094 0)
(0.00134045 0.000442086 0)
(0.00121724 0.000478474 0)
(0.00109027 0.000454446 0)
(0.00101414 0.000356583 0)
(0.000957481 0.000271731 0)
(0.000889482 0.000181603 0)
(0.000869341 4.06858e-05 0)
(0.000922573 1.92075e-05 0)
(0.000989939 8.6164e-05 0)
(0.00103898 0.000173247 0)
(0.00106584 0.000464773 0)
(0.00123402 0.000460374 0)
(0.00142691 -0.000620424 0)
(0.00158997 -0.000609093 0)
(0.00180142 -0.000503671 0)
(0.00194576 -0.000529764 0)
(0.00204748 -0.000459372 0)
(0.00207538 -0.000346862 0)
(0.00204996 -0.000257311 0)
(0.00203544 -0.000181422 0)
(0.00203668 -7.5033e-05 0)
(0.00202361 6.54658e-05 0)
(0.00198968 0.000215249 0)
(0.00194265 0.000374059 0)
(0.0018813 0.00054275 0)
(0.00180289 0.000720172 0)
(0.00170521 0.000903971 0)
(0.00158629 0.00109165 0)
(0.00144369 0.00127774 0)
(2.4547e-06 -0.000147037 0)
(3.10815e-05 -0.000439762 0)
(8.56976e-05 -0.000676615 0)
(0.000160727 -0.000862287 0)
(0.000252371 -0.00100984 0)
(0.00035845 -0.00112538 0)
(0.000477323 -0.00120894 0)
(0.000607365 -0.00125806 0)
(0.000746788 -0.00127014 0)
(0.000893517 -0.0012433 0)
(0.00104503 -0.00117656 0)
(0.00119813 -0.00107002 0)
(0.00134862 -0.000925049 0)
(0.00149069 -0.000744854 0)
(0.00161629 -0.000535953 0)
(0.00171506 -0.00030886 0)
(0.00177612 -9.27011e-05 0)
(0.00179173 0.000124475 0)
(0.00175732 0.00034098 0)
(0.00168342 0.000468199 0)
(0.00162423 0.000455429 0)
(0.00157192 0.000528257 0)
(0.0014353 0.000640079 0)
(0.00127136 0.000568648 0)
(0.00118533 0.000411249 0)
(0.00117016 0.000302313 0)
(0.00119299 0.000204466 0)
(0.00122812 6.87342e-06 0)
(0.00127907 -4.93946e-05 0)
(0.00135695 5.74447e-06 0)
(0.00144118 9.9614e-05 0)
(0.00159068 0.000324099 0)
(0.00189655 0.000141429 0)
(0.0020426 -0.000628441 0)
(0.0020705 -0.000805398 0)
(0.00227396 -0.000699922 0)
(0.00244649 -0.000632932 0)
(0.00250622 -0.000505532 0)
(0.0024708 -0.000302896 0)
(0.00238615 -0.000217465 0)
(0.00235878 -0.000178153 0)
(0.00237656 -7.4125e-05 0)
(0.00236826 9.25902e-05 0)
(0.00232766 0.00025766 0)
(0.00227805 0.000429403 0)
(0.00221634 0.000613561 0)
(0.00213745 0.000809577 0)
(0.00203799 0.00101411 0)
(0.00191601 0.00122477 0)
(0.00176867 0.00143692 0)
(2.45619e-06 -0.000162412 0)
(3.11767e-05 -0.000482835 0)
(8.60275e-05 -0.000742108 0)
(0.000161552 -0.000946205 0)
(0.00025415 -0.00110963 0)
(0.000361901 -0.00123932 0)
(0.00048349 -0.00133554 0)
(0.000617697 -0.00139584 0)
(0.000763244 -0.00141748 0)
(0.000918717 -0.00139827 0)
(0.00108246 -0.00133677 0)
(0.00125243 -0.00123228 0)
(0.00142579 -0.00108486 0)
(0.00159827 -0.000895536 0)
(0.0017625 -0.000667421 0)
(0.0019066 -0.000408 0)
(0.00201216 -0.00014521 0)
(0.00206578 0.000122763 0)
(0.00205157 0.00039969 0)
(0.00197524 0.000556485 0)
(0.00188336 0.000509701 0)
(0.0017898 0.000608327 0)
(0.00165016 0.000816103 0)
(0.00152173 0.000672329 0)
(0.00148417 0.000440322 0)
(0.00152114 0.00026599 0)
(0.00162085 0.000128659 0)
(0.00171437 -4.01446e-05 0)
(0.00177033 -0.000107099 0)
(0.00183208 -8.08483e-05 0)
(0.001915 -1.19103e-05 0)
(0.00211402 5.32689e-05 0)
(0.00242028 -0.000163328 0)
(0.0025945 -0.000635838 0)
(0.00261756 -0.00088099 0)
(0.00269554 -0.000883423 0)
(0.00283648 -0.0007378 0)
(0.00291976 -0.000525125 0)
(0.00286805 -0.000199084 0)
(0.00274487 -0.000149793 0)
(0.0027147 -0.000195075 0)
(0.00276708 -9.57025e-05 0)
(0.00276437 0.000125472 0)
(0.00270973 0.000304335 0)
(0.00265915 0.000484791 0)
(0.00260042 0.000683275 0)
(0.00252403 0.00089876 0)
(0.00242517 0.00112585 0)
(0.00230213 0.00136065 0)
(0.00215272 0.0016009 0)
(2.40609e-06 -0.000177719 0)
(3.08265e-05 -0.000525798 0)
(8.52195e-05 -0.000807553 0)
(0.000160297 -0.00103031 0)
(0.000252671 -0.0012101 0)
(0.000360667 -0.00135467 0)
(0.00048325 -0.00146468 0)
(0.000619535 -0.00153773 0)
(0.000768665 -0.00157106 0)
(0.000929779 -0.00156239 0)
(0.00110202 -0.00151013 0)
(0.00128448 -0.00141322 0)
(0.00147611 -0.00127089 0)
(0.00167543 -0.00108242 0)
(0.00187924 -0.000846781 0)
(0.00207881 -0.000564291 0)
(0.00224901 -0.00025044 0)
(0.00236905 6.81407e-05 0)
(0.00241672 0.000437316 0)
(0.00238054 0.000652344 0)
(0.00224286 0.000645321 0)
(0.00203761 0.000731693 0)
(0.00190164 0.000933387 0)
(0.00184273 0.000735288 0)
(0.00184696 0.00041713 0)
(0.00194318 0.000171929 0)
(0.00208855 -7.87445e-06 0)
(0.00222032 -0.000122001 0)
(0.00232452 -0.00018473 0)
(0.00242203 -0.0001599 0)
(0.00251457 -0.00012241 0)
(0.00266485 -0.000200234 0)
(0.00289953 -0.000416044 0)
(0.00309449 -0.000752451 0)
(0.00318944 -0.000929108 0)
(0.00326202 -0.000984582 0)
(0.00334048 -0.000829222 0)
(0.00339076 -0.000536145 0)
(0.00336893 -9.78923e-05 0)