/*--------------------------------*- C++ -*----------------------------------*\
| =========                 |                                                 |
| \\      /  F ield         | OpenFOAM: The Open Source CFD Toolbox           |
|  \\    /   O peration     | Version:  2.4.0                                 |
|   \\  /    A nd           | Web:      www.OpenFOAM.org                      |
|    \\/     M anipulation  |                                                 |
\*---------------------------------------------------------------------------*/
FoamFile
{
    version     2.0;
    format      ascii;
    class       surfaceScalarField;
    location    "0.03";
    object      phi;
}
// * * * * * * * * * * * * * * * * * * * * * * * * * * * * * * * * * * * * * //

dimensions      [0 3 -1 0 0 0 0];

internalField   nonuniform List<scalar> 
7080
(
-2.81919e-09
2.81919e-09
-6.34313e-09
3.52394e-09
-1.10589e-08
4.71577e-09
-1.67802e-08
5.72126e-09
-2.27547e-08
5.97459e-09
-2.89665e-08
6.21176e-09
-3.50041e-08
6.03761e-09
-4.05653e-08
5.56116e-09
-4.51829e-08
4.61757e-09
-4.79108e-08
2.72789e-09
-4.79845e-08
7.37251e-11
-4.53407e-08
-2.6438e-09
-4.0924e-08
-4.4167e-09
-3.64954e-08
-4.4286e-09
-3.48828e-08
-1.61267e-09
-4.21647e-08
7.28192e-09
-7.4404e-08
3.22392e-08
-1.65013e-07
9.06088e-08
-3.52957e-07
1.87945e-07
-5.95931e-07
2.42974e-07
-7.15239e-07
1.19308e-07
-4.41203e-07
-2.74036e-07
-7.68418e-08
-3.64362e-07
-2.02212e-07
1.2537e-07
-2.17425e-07
1.52133e-08
2.6865e-09
-2.20111e-07
1.97403e-07
-1.94717e-07
2.77464e-07
-8.00603e-08
1.76684e-07
1.00779e-07
1.78452e-07
-1.76813e-09
-3.52751e-09
6.34672e-09
-7.97875e-09
7.97517e-09
-1.40772e-08
1.08142e-08
-2.18445e-08
1.34885e-08
-3.06477e-08
1.47778e-08
-4.0719e-08
1.62831e-08
-5.18644e-08
1.7183e-08
-6.40314e-08
1.77281e-08
-7.69562e-08
1.75424e-08
-8.97368e-08
1.55084e-08
-1.01556e-07
1.18926e-08
-1.12385e-07
8.18577e-09
-1.2351e-07
6.70781e-09
-1.37556e-07
9.61754e-09
-1.58794e-07
1.96255e-08
-1.95328e-07
4.38161e-08
-2.62075e-07
9.89856e-08
-3.7605e-07
2.04584e-07
-5.39107e-07
3.51001e-07
-7.08197e-07
4.12064e-07
-7.49365e-07
1.60475e-07
-3.5578e-07
-6.6762e-07
-7.02356e-09
-7.13118e-07
-9.095e-08
2.09296e-07
-1.25289e-07
4.95525e-08
2.00308e-09
-3.47404e-07
7.62327e-08
-2.68947e-07
8.31989e-08
-8.70265e-08
4.25314e-08
1.41447e-07
2.20496e-07
4.87672e-10
-3.58081e-09
9.92755e-09
-8.11014e-09
1.25045e-08
-1.43422e-08
1.70463e-08
-2.23305e-08
2.14768e-08
-3.14619e-08
2.39091e-08
-4.20308e-08
2.6852e-08
-5.39009e-08
2.9053e-08
-6.71074e-08
3.09347e-08
-8.14892e-08
3.19241e-08
-9.62031e-08
3.02223e-08
-1.10473e-07
2.61625e-08
-1.24346e-07
2.20584e-08
-1.39323e-07
2.16849e-08
-1.58504e-07
2.87992e-08
-1.86882e-07
4.80028e-08
-2.32548e-07
8.94825e-08
-3.07327e-07
1.73765e-07
-4.18315e-07
3.15572e-07
-5.49301e-07
4.81987e-07
-6.67612e-07
5.30375e-07
-6.7766e-07
1.70524e-07
-2.11203e-07
-1.13408e-06
2.63272e-08
-9.50649e-07
-2.85928e-08
2.64216e-07
-1.87895e-07
2.08855e-07
-2.87715e-07
-2.47583e-07
-2.34336e-07
-3.22326e-07
-1.78034e-07
-1.43329e-07
-1.68397e-07
1.3181e-07
5.04887e-08
1.61072e-09
-3.56671e-09
1.34943e-08
-8.0854e-09
1.70232e-08
-1.43176e-08
2.32785e-08
-2.23224e-08
2.94816e-08
-3.14676e-08
3.30544e-08
-4.20741e-08
3.74585e-08
-5.40087e-08
4.09877e-08
-6.73376e-08
4.42636e-08
-8.195e-08
4.65365e-08
-9.70001e-08
4.52724e-08
-1.11674e-07
4.08367e-08
-1.2596e-07
3.63438e-08
-1.41327e-07
3.70518e-08
-1.60836e-07
4.83083e-08
-1.89263e-07
7.64304e-08
-2.33529e-07
1.33748e-07
-3.02738e-07
2.42973e-07
-4.01728e-07
4.14561e-07
-5.04959e-07
5.85218e-07
-5.74026e-07
5.99442e-07
-5.28079e-07
1.24577e-07
-8.58109e-08
-1.57635e-06
-1.1546e-07
-9.21e-07
-1.00318e-07
2.49074e-07
-2.12221e-07
3.20757e-07
-2.8014e-07
-1.79664e-07
-2.87661e-07
-3.14805e-07
-2.40702e-07
-1.90288e-07
-1.26306e-07
1.74142e-08
-7.79915e-08
2.17408e-09
-3.54153e-09
1.70358e-08
-8.03711e-09
2.15188e-08
-1.42551e-08
2.94964e-08
-2.22577e-08
3.74843e-08
-3.13818e-08
4.21784e-08
-4.19746e-08
4.80513e-08
-5.3894e-08
5.2907e-08
-6.72282e-08
5.75978e-08
-8.19124e-08
6.12206e-08
-9.70693e-08
6.04292e-08
-1.11795e-07
5.5562e-08
-1.25922e-07
5.04713e-08
-1.40736e-07
5.18655e-08
-1.58968e-07
6.65407e-08
-1.84692e-07
1.02154e-07
-2.23074e-07
1.72131e-07
-2.79375e-07
2.99274e-07
-3.54445e-07
4.89631e-07
-4.27225e-07
6.57999e-07
-4.42464e-07
6.14681e-07
-2.84937e-07
-3.295e-08
3.68045e-08
-1.89809e-06
-2.44683e-07
-6.39512e-07
-8.76204e-08
9.20114e-08
9.18454e-08
1.41291e-07
2.42461e-08
-1.12065e-07
-1.18174e-07
-1.72385e-07
-1.75957e-07
-1.32505e-07
-3.71387e-08
-1.21405e-07
-1.13434e-07
-1.6962e-09
-3.50927e-09
2.05451e-08
-7.97491e-09
2.59844e-08
-1.41736e-08
3.56952e-08
-2.21711e-08
4.54817e-08
-3.12638e-08
5.12711e-08
-4.18321e-08
5.86195e-08
-5.37192e-08
6.47941e-08
-6.70382e-08
7.09168e-08
-8.17808e-08
7.59633e-08
-9.70251e-08
7.56735e-08
-1.11742e-07
7.02791e-08
-1.25549e-07
6.42784e-08
-1.39448e-07
6.57645e-08
-1.55609e-07
8.27011e-08
-1.76727e-07
1.23273e-07
-2.0482e-07
2.00223e-07
-2.40014e-07
3.34468e-07
-2.79946e-07
5.29563e-07
-3.06161e-07
6.84213e-07
-2.92946e-07
6.01467e-07
-3.19518e-08
-2.93945e-07
1.61024e-07
-2.09106e-06
-1.89916e-07
-2.88572e-07
-1.24179e-07
2.62743e-08
1.17733e-07
-1.0062e-07
1.36171e-07
-1.30504e-07
6.01956e-08
-9.64096e-08
1.35208e-08
-8.58297e-08
8.00378e-10
-1.08684e-07
-1.11302e-07
-1.33117e-09
-3.47016e-09
2.40153e-08
-7.89933e-09
3.04136e-08
-1.40746e-08
4.18705e-08
-2.20647e-08
5.34719e-08
-3.11178e-08
6.03241e-08
-4.16539e-08
6.91557e-08
-5.34971e-08
7.66373e-08
-6.67894e-08
8.4209e-08
-8.15952e-08
9.07691e-08
-9.69395e-08
9.10177e-08
-1.11644e-07
8.49833e-08
-1.25063e-07
7.76975e-08
-1.37893e-07
7.8595e-08
-1.5182e-07
9.66283e-08
-1.68659e-07
1.40111e-07
-1.88676e-07
2.20241e-07
-2.07553e-07
3.53345e-07
-2.11897e-07
5.33907e-07
-1.55171e-07
6.27486e-07
-7.89273e-08
5.25223e-07
9.84509e-08
-4.71323e-07
2.04589e-07
-2.1972e-06
-7.89776e-08
-5.00562e-09
-1.21329e-07
6.8626e-08
-1.23729e-07
-9.82204e-08
-3.11364e-07
5.71323e-08
-2.06124e-07
-2.0165e-07
-1.27329e-07
-1.64624e-07
-3.36569e-08
-2.02356e-07
-1.47393e-07
2.4337e-09
-3.42419e-09
2.74395e-08
-7.81039e-09
3.47998e-08
-1.39582e-08
4.80183e-08
-2.1939e-08
6.14527e-08
-3.09438e-08
6.93288e-08
-4.14407e-08
7.96526e-08
-5.32282e-08
8.84248e-08
-6.64819e-08
9.74627e-08
-8.13585e-08
1.05646e-07
-9.6824e-08
1.06483e-07
-1.11528e-07
9.9687e-08
-1.24515e-07
9.06849e-08
-1.36114e-07
9.01936e-08
-1.47284e-07
1.07799e-07
-1.57969e-07
1.50796e-07
-1.64238e-07
2.2651e-07
-1.56027e-07
3.45134e-07
-1.16915e-07
4.94795e-07
-3.07323e-09
5.13644e-07
1.90354e-07
3.31797e-07
2.85728e-07
-5.66697e-07
1.82136e-07
-2.09361e-06
3.63857e-08
1.40744e-07
1.63997e-07
-5.89849e-08
-1.93137e-07
2.58914e-07
-2.27876e-06
2.14276e-06
-1.79427e-06
-6.86145e-07
-5.86098e-07
-1.3728e-06
-1.82622e-07
-6.05833e-07
-3.2567e-07
-4.34566e-09
-3.37137e-09
3.08108e-08
-7.70808e-09
3.91365e-08
-1.38248e-08
5.41351e-08
-2.17942e-08
6.94221e-08
-3.0742e-08
7.82766e-08
-4.11926e-08
9.01032e-08
-5.29122e-08
1.00144e-07
-6.6114e-08
1.10664e-07
-8.10703e-08
1.20602e-07
-9.66842e-08
1.22097e-07
-1.11416e-07
1.14419e-07
-1.2397e-07
1.03239e-07
-1.34357e-07
1.00581e-07
-1.43172e-07
1.16613e-07
-1.49747e-07
1.57371e-07
-1.48391e-07
2.25154e-07
-1.25011e-07
3.21753e-07
-5.50367e-08
4.24821e-07
7.89952e-08
3.79612e-07
3.34418e-07
7.63737e-08
5.2566e-07
-7.57939e-07
1.82485e-07
-1.75043e-06
1.12625e-07
2.10605e-07
1.33378e-06
-1.28014e-06
1.45408e-06
1.38614e-07
1.23758e-06
2.35925e-06
1.86261e-06
-1.31117e-06
1.23046e-06
-7.40647e-07
6.05095e-07
1.95269e-08
3.10434e-07
-3.10085e-08
-3.31169e-09
3.41225e-08
-7.59237e-09
4.34171e-08
-1.36746e-08
6.02173e-08
-2.16305e-08
7.73779e-08
-3.05124e-08
8.71585e-08
-4.09098e-08
1.00501e-07
-5.25486e-08
1.11783e-07
-6.56831e-08
1.23799e-07
-8.07291e-08
1.35648e-07
-9.65251e-08
1.37893e-07
-1.11327e-07
1.29221e-07
-1.23453e-07
1.15365e-07
-1.3256e-07
1.09688e-07
-1.38744e-07
1.22798e-07
-1.40386e-07
1.59012e-07
-1.30009e-07
2.14777e-07
-9.3341e-08
2.85085e-07
-4.48816e-09
3.35968e-07
1.29429e-07
2.45695e-07
3.48688e-07
-1.42886e-07
5.38353e-07
-9.47604e-07
1.69364e-07
-1.38144e-06
1.6487e-06
-1.26873e-06
1.55731e-06
-1.18875e-06
1.31752e-06
3.78405e-07
8.82917e-07
2.79386e-06
-9.67248e-08
-3.3153e-07
-1.52283e-07
-6.8509e-07
-1.1035e-07
-2.24073e-08
1.98961e-07
1.12334e-09
-3.24514e-09
3.73677e-08
-7.46326e-09
4.76353e-08
-1.3508e-08
6.6262e-08
-2.14481e-08
8.53181e-08
-3.02549e-08
9.59653e-08
-4.05927e-08
1.10839e-07
-5.21369e-08
1.23327e-07
-6.51861e-08
1.36848e-07
-8.0333e-08
1.50795e-07
-9.63513e-08
1.53911e-07
-1.11283e-07
1.44152e-07
-1.23028e-07
1.2711e-07
-1.30962e-07
1.17622e-07
-1.35008e-07
1.26844e-07
-1.33459e-07
1.57463e-07
-1.17972e-07
1.99291e-07
-7.43056e-08
2.41418e-07
1.7748e-08
2.43915e-07
1.45113e-07
1.1833e-07
3.20894e-07
-3.18667e-07
4.49052e-07
-1.07576e-06
3.84568e-07
-1.31696e-06
5.90772e-07
-1.47494e-06
-1.12251e-07
-4.85726e-07
2.53761e-07
1.23951e-08
1.02452e-06
2.0231e-06
4.31455e-07
2.61535e-07
-3.12462e-08
-2.22391e-07
-6.02104e-08
6.55502e-09
1.32439e-07
6.31106e-09
-3.17172e-09
4.05394e-08
-7.32071e-09
5.17842e-08
-1.33252e-08
7.22665e-08
-2.12475e-08
9.32404e-08
-2.99696e-08
1.04687e-07
-4.02417e-08
1.21111e-07
-5.16769e-08
1.34762e-07
-6.46196e-08
1.49791e-07
-7.98791e-08
1.66054e-07
-9.61667e-08
1.70199e-07
-1.11303e-07
1.59289e-07
-1.22727e-07
1.38534e-07
-1.29549e-07
1.24444e-07
-1.31644e-07
1.28939e-07
-1.27772e-07
1.53591e-07
-1.09952e-07
1.8147e-07
-6.54208e-08
1.96888e-07
1.75488e-08
1.60945e-07
1.25549e-07
1.03298e-08
2.48786e-07
-4.41904e-07
4.07364e-07
-1.23434e-06
3.5031e-07
-1.25991e-06
9.40009e-07
-2.06464e-06
2.97641e-07
1.56642e-07
-2.76604e-07
5.8664e-07
3.16243e-07
1.43025e-06
3.10458e-07
2.67318e-07
7.40681e-08
1.39985e-08
-3.14461e-09
8.37662e-08
1.2409e-07
5.20333e-09
-3.0914e-09
4.36308e-08
-7.1647e-09
5.58575e-08
-1.31267e-08
7.82285e-08
-2.10287e-08
1.01142e-07
-2.96564e-08
1.13315e-07
-3.98573e-08
1.31311e-07
-5.11681e-08
1.46073e-07
-6.39789e-08
1.62602e-07
-7.93636e-08
1.81439e-07
-9.59744e-08
1.8681e-07
-1.11411e-07
1.74725e-07
-1.22594e-07
1.49717e-07
-1.28395e-07
1.30245e-07
-1.2874e-07
1.29284e-07
-1.23164e-07
1.48014e-07
-1.04256e-07
1.62563e-07
-6.0876e-08
1.53507e-07
1.01216e-08
8.99474e-08
8.99579e-08
-6.95065e-08
1.58408e-07
-5.10354e-07
1.33311e-07
-1.20924e-06
-6.40339e-07
-4.86255e-07
-9.30462e-07
-1.77452e-06
-1.19973e-06
4.25909e-07
-8.90563e-07
2.77472e-07
-1.1141e-07
6.51096e-07
-1.77697e-08
1.73675e-07
-6.00071e-08
5.62355e-08
-4.29514e-08
6.67091e-08
7.61803e-08
4.95784e-09
-3.00419e-09
4.6635e-08
-6.9952e-09
5.98485e-08
-1.29129e-08
8.41462e-08
-2.07921e-08
1.09022e-07
-2.93155e-08
1.21839e-07
-3.944e-08
1.41436e-07
-5.06102e-08
1.57243e-07
-6.3259e-08
1.75251e-07
-7.87814e-08
1.96961e-07
-9.5776e-08
2.03804e-07
-1.11625e-07
1.90575e-07
-1.22673e-07
1.60765e-07
-1.27597e-07
1.35169e-07
-1.26587e-07
1.28274e-07
-1.20656e-07
1.42083e-07
-1.03645e-07
1.45552e-07
-6.54893e-08
1.15351e-07
-1.12973e-08
3.57555e-08
4.53899e-08
-1.26194e-07
5.50649e-08
-5.20029e-07
-3.64051e-08
-1.11777e-06
-5.06962e-07
-1.56981e-08
-1.44444e-06
-8.37035e-07
-1.20666e-06
1.88132e-07
-7.94651e-07
-1.34543e-07
-3.16481e-07
1.72924e-07
-1.69242e-07
2.64344e-08
-1.11565e-07
-1.44226e-09
-5.48451e-08
9.98717e-09
1.82539e-08
3.08106e-09
-2.91007e-09
4.95451e-08
-6.81219e-09
6.37507e-08
-1.26841e-08
9.00181e-08
-2.05379e-08
1.16875e-07
-2.89467e-08
1.30247e-07
-3.89908e-08
1.5148e-07
-5.0003e-08
1.68255e-07
-6.24536e-08
1.87701e-07
-7.81259e-08
2.12634e-07
-9.5571e-08
2.21249e-07
-1.11966e-07
2.0697e-07
-1.22984e-07
1.71782e-07
-1.27081e-07
1.39267e-07
-1.24679e-07
1.25872e-07
-1.18377e-07
1.35781e-07
-1.03275e-07
1.3045e-07
-6.85731e-08
8.06493e-08
-2.653e-08
-6.28766e-09
1.35656e-08
-1.66289e-07
-6.67963e-09
-4.99784e-07
-2.28709e-07
-8.95744e-07
-8.26451e-07
5.82044e-07
-1.18971e-06
-4.73776e-07
-8.14037e-07
-1.87541e-07
-6.32113e-07
-3.16469e-07
-3.70892e-07
-8.82987e-08
-2.34697e-07
-1.0976e-07
-1.47149e-07
-8.89903e-08
-6.9915e-08
-6.72479e-08
-5.37096e-08
2.04865e-09
-2.80904e-09
5.23542e-08
-6.61565e-09
6.75573e-08
-1.24409e-08
9.58433e-08
-2.02661e-08
1.24701e-07
-2.85502e-08
1.38531e-07
-3.85106e-08
1.6144e-07
-4.93464e-08
1.79091e-07
-6.15552e-08
1.9991e-07
-7.7389e-08
2.28468e-07
-9.53569e-08
2.39217e-07
-1.12458e-07
2.24071e-07
-1.23591e-07
1.82915e-07
-1.27011e-07
1.42687e-07
-1.23546e-07
1.22407e-07
-1.18291e-07
1.30526e-07
-1.08415e-07
1.20573e-07
-8.38243e-08
5.60589e-08
-4.7376e-08
-4.2736e-08
4.90639e-09
-2.18572e-07
1.61179e-08
-5.10995e-07
-5.66101e-07
-3.13525e-07
-1.14548e-06
1.16143e-06
-8.85537e-07
-7.33725e-07
-5.38293e-07
-5.34785e-07
-4.67936e-07
-3.86826e-07
-3.21109e-07
-2.35126e-07
-2.2392e-07
-2.06949e-07
-1.42498e-07
-1.70414e-07
-6.78283e-08
-1.41919e-07
-1.2238e-07
8.39689e-10
-2.7011e-09
5.50553e-08
-6.40557e-09
7.12617e-08
-1.21837e-08
1.01621e-07
-1.9977e-08
1.32494e-07
-2.8126e-08
1.4668e-07
-3.80005e-08
1.71315e-07
-4.86405e-08
1.89731e-07
-6.05549e-08
2.11824e-07
-7.65605e-08
2.44473e-07
-9.51262e-08
2.57783e-07
-1.13108e-07
2.42052e-07
-1.24455e-07
1.94262e-07
-1.27066e-07
1.45297e-07
-1.22019e-07
1.17361e-07
-1.16858e-07
1.25366e-07
-1.09193e-07
1.12908e-07
-7.94415e-08
2.63072e-08
-5.65891e-08
-6.55883e-08
5.23391e-09
-2.80395e-07
1.44953e-07
-6.50715e-07
-7.85915e-08
-8.99807e-08
-3.3673e-07
1.41957e-06
-2.71228e-07
-7.99227e-07
-2.98327e-07
-5.07685e-07
-2.8477e-07
-4.00383e-07
-2.27671e-07
-2.92225e-07
-1.71063e-07
-2.63556e-07
-1.11915e-07
-2.29563e-07
-5.38312e-08
-2.00003e-07
-1.76854e-07
6.41748e-10
-2.58628e-09
5.76416e-08
-6.18197e-09
7.48574e-08
-1.19129e-08
1.07352e-07
-1.96705e-08
1.40252e-07
-2.76746e-08
1.54684e-07
-3.7462e-08
1.81102e-07
-4.78856e-08
2.00155e-07
-5.94422e-08
2.23381e-07
-7.56286e-08
2.6066e-07
-9.48707e-08
2.77025e-07
-1.13973e-07
2.61155e-07
-1.25833e-07
2.06122e-07
-1.28137e-07
1.47601e-07
-1.22722e-07
1.11946e-07
-1.20546e-07
1.2319e-07
-1.23942e-07
1.16304e-07
-1.11691e-07
1.40564e-08
-9.61941e-08
-8.10855e-08
-5.99856e-08
-3.16603e-07
-1.4326e-09
-7.09267e-07
-5.06297e-07
4.14884e-07
-3.01889e-08
9.4346e-07
-2.58573e-09
-8.26832e-07
-1.65341e-07
-3.44929e-07
-1.87208e-07
-3.78513e-07
-1.59879e-07
-3.19553e-07
-1.21511e-07
-3.01921e-07
-7.90155e-08
-2.72059e-07
-3.72662e-08
-2.41753e-07
-2.15844e-07
1.72262e-09
-2.46469e-09
6.01063e-08
-5.94487e-09
7.83376e-08
-1.16291e-08
1.13037e-07
-1.93466e-08
1.47969e-07
-2.71962e-08
1.62534e-07
-3.6897e-08
1.90803e-07
-4.7082e-08
2.1034e-07
-5.82047e-08
2.34503e-07
-7.45787e-08
2.77034e-07
-9.45604e-08
2.97006e-07
-1.14963e-07
2.81557e-07
-1.27095e-07
2.18254e-07
-1.27464e-07
1.47969e-07
-1.18004e-07
1.02487e-07
-1.16299e-07
1.21484e-07
-1.25135e-07
1.25141e-07
-9.49851e-08
-1.6094e-08
-8.99508e-08
-8.61197e-08
-9.03792e-08
-3.16175e-07
-2.13103e-07
-5.86543e-07
-9.1036e-07
1.11214e-06
-3.26902e-07
3.60003e-07
-2.93536e-07
-8.60199e-07
-2.1486e-07
-4.23605e-07
-1.75642e-07
-4.17729e-07
-1.25875e-07
-3.69321e-07
-8.51747e-08
-3.42619e-07
-5.15263e-08
-3.05708e-07
-2.26557e-08
-2.70625e-07
-2.41523e-07
3.02334e-09
-2.33628e-09
6.24426e-08
-5.69434e-09
8.16956e-08
-1.13328e-08
1.18675e-07
-1.90052e-08
1.55641e-07
-2.66932e-08
1.70222e-07
-3.63073e-08
2.00417e-07
-4.62305e-08
2.20263e-07
-5.683e-08
2.45103e-07
-7.3396e-08
2.936e-07
-9.41931e-08
3.17804e-07
-1.16439e-07
3.03803e-07
-1.30374e-07
2.3219e-07
-1.33568e-07
1.51163e-07
-1.29398e-07
9.83168e-08
-1.30181e-07
1.22268e-07
-1.35581e-07
1.3054e-07
-1.22753e-07
-2.89224e-08
-9.07031e-08
-1.18169e-07
9.02679e-08
-4.97146e-07
-1.17476e-07
-3.78799e-07
-8.30506e-07
1.82517e-06
-3.8897e-07
-8.15331e-08
-2.54971e-07
-9.94199e-07
-1.7165e-07
-5.06925e-07
-1.2159e-07
-4.67788e-07
-7.17571e-08
-4.19152e-07
-4.21484e-08
-3.72227e-07
-2.31497e-08
-3.24707e-07
-8.83789e-09
-2.84939e-07
-2.53688e-07
3.3261e-09
-2.20054e-09
6.46431e-08
-5.43047e-09
8.49256e-08
-1.10246e-08
1.24269e-07
-1.86463e-08
1.63263e-07
-2.6171e-08
1.77747e-07
-3.56952e-08
2.09942e-07
-4.53319e-08
2.299e-07
-5.53196e-08
2.55091e-07
-7.20609e-08
3.10341e-07
-9.36139e-08
3.39357e-07
-1.17429e-07
3.27618e-07
-1.29609e-07
2.44369e-07
-1.21483e-07
1.43038e-07
-9.30622e-08
6.98955e-08
-8.04258e-08
1.09631e-07
-1.45457e-07
1.95572e-07
-1.40898e-07
-3.34817e-08
-1.23777e-07
-1.3529e-07
1.28733e-07
-7.49656e-07
3.67395e-07
-6.17461e-07
1.85398e-07
2.00717e-06
2.53074e-07
-1.49208e-07
-8.06064e-08
-6.6052e-07
-8.33502e-08
-5.04177e-07
-5.73005e-08
-4.93837e-07
-2.61327e-08
-4.50316e-07
-1.23334e-08
-3.86027e-07
-5.65336e-09
-3.31388e-07
-1.3559e-09
-2.89238e-07
-2.57208e-07
2.16377e-09
-2.05698e-09
6.67001e-08
-5.15339e-09
8.8022e-08
-1.0705e-08
1.29821e-07
-1.82699e-08
1.70828e-07
-2.56316e-08
1.85108e-07
-3.50628e-08
2.19373e-07
-4.43863e-08
2.39223e-07
-5.36721e-08
2.64376e-07
-7.05642e-08
3.27233e-07
-9.30673e-08
3.6186e-07
-1.20784e-07
3.55335e-07
-1.42182e-07
2.65767e-07
-1.60642e-07
1.61498e-07
-1.91574e-07
1.00828e-07
-2.36085e-07
1.54142e-07
-2.07993e-07
1.67479e-07
-8.57434e-08
-1.55731e-07
-1.00503e-07
-1.2053e-07
-3.55584e-08
-8.14601e-07
-2.42861e-07
-4.10159e-07
-1.21772e-08
1.77648e-06
5.46481e-08
-2.16031e-07
-1.34288e-07
-4.71586e-07
-8.72883e-08
-5.51175e-07
-5.20272e-08
-5.29098e-07
-2.69534e-08
-4.75388e-07
-1.52556e-08
-3.97726e-07
-8.85636e-09
-3.37788e-07
-4.16526e-09
-2.93931e-07
-2.61207e-07
-1.66232e-10
-1.90518e-09
6.86053e-08
-4.86319e-09
9.098e-08
-1.03749e-08
1.35333e-07
-1.78759e-08
1.78329e-07
-2.50763e-08
1.92309e-07
-3.44132e-08
2.2871e-07
-4.33963e-08
2.48206e-07
-5.18905e-08
2.7287e-07
-6.88694e-08
3.44212e-07
-9.19213e-08
3.84912e-07
-1.19106e-07
3.82519e-07
-1.25558e-07
2.72219e-07
-9.43541e-08
1.30294e-07
-2.07231e-08
2.71967e-08
8.73579e-08
4.60614e-08
5.66235e-08
1.98214e-07
-1.2793e-07
2.88218e-08
2.16701e-08
-2.7013e-07
3.02558e-08
-8.23187e-07
1.72765e-07
-5.52668e-07
1.78108e-08
1.93144e-06
-1.1269e-07
-8.55285e-08
-1.34924e-07
-4.49352e-07
-7.87124e-08
-6.07387e-07
-5.57018e-08
-5.52108e-07
-4.27828e-08
-4.88307e-07
-3.15591e-08
-4.08952e-07
-2.13457e-08
-3.48001e-07
-1.14654e-08
-3.03814e-07
-2.70368e-07
-2.30452e-09
-1.74481e-09
7.03501e-08
-4.56004e-09
9.37952e-08
-1.00352e-08
1.40808e-07
-1.74644e-08
1.85758e-07
-2.45062e-08
1.99351e-07
-3.37478e-08
2.37951e-07
-4.23544e-08
2.56813e-07
-4.99447e-08
2.80461e-07
-6.70174e-08
3.61285e-07
-9.22265e-08
4.10121e-07
-1.31939e-07
4.22232e-07
-1.88045e-07
3.28325e-07
-2.8301e-07
2.25259e-07
-3.70814e-07
1.15e-07
-3.28774e-07
4.02185e-09
-2.41936e-07
1.11375e-07
-8.55153e-08
-1.27599e-07
3.56844e-07
-7.1249e-07
3.92462e-07
-8.58805e-07
6.36914e-07
-7.9712e-07
2.02252e-07
2.36609e-06
-7.71403e-09
1.24438e-07
-5.89262e-08
-3.98139e-07
-6.76543e-08
-5.98656e-07
-5.86297e-08
-5.61131e-07
-5.51545e-08
-4.91781e-07
-4.50413e-08
-4.19066e-07
-3.15255e-08
-3.61515e-07
-1.70701e-08
-3.1827e-07
-2.84175e-07
-3.26314e-09
-1.5758e-09
7.19259e-08
-4.2442e-09
9.64636e-08
-9.68606e-09
1.4625e-07
-1.70356e-08
1.93108e-07
-2.39245e-08
2.0624e-07
-3.30765e-08
2.47103e-07
-4.12834e-08
2.6502e-07
-4.78796e-08
2.87057e-07
-6.47706e-08
3.78176e-07
-8.86719e-08
4.34022e-07
-1.14123e-07
4.47683e-07
-1.02478e-07
3.1668e-07
-5.83601e-08
1.81141e-07
-1.34504e-08
7.00903e-08
-4.28376e-08
3.3409e-08
-6.04092e-08
1.28947e-07
-1.40238e-07
-4.777e-08
6.77166e-08
-9.20445e-07
-1.17374e-06
3.82649e-07
-5.69005e-07
-1.40185e-06
-1.03578e-07
1.90066e-06
-2.0012e-07
2.20983e-07
-6.53313e-08
-5.32927e-07
-6.72586e-08
-5.96724e-07
-6.08229e-08
-5.67565e-07
-5.56076e-08
-4.96994e-07
-4.52623e-08
-4.29411e-07
-3.1494e-08
-3.75282e-07
-1.687e-08
-3.32895e-07
-2.98139e-07
-2.90726e-09
-1.39832e-09
7.33242e-08
-3.91567e-09
9.89809e-08
-9.32679e-09
1.51661e-07
-1.65871e-08
2.00368e-07
-2.33252e-08
2.12978e-07
-3.23808e-08
2.56159e-07
-4.01212e-08
2.7276e-07
-4.55706e-08
2.92506e-07
-6.26773e-08
3.95282e-07
-9.37764e-08
4.65121e-07
-1.62357e-07
5.16264e-07
-2.67504e-07
4.21827e-07
-3.20671e-07
2.34308e-07
-2.21671e-07
-2.8909e-08
-6.57612e-08
-1.22501e-07
1.10347e-07
-4.71613e-08
-4.63113e-08
1.08888e-07
-2.27053e-08
-9.44051e-07
4.14507e-07
-5.45642e-08
-3.05302e-07
-6.82042e-07
-2.15518e-07
1.81087e-06
-1.4548e-07
1.50947e-07
-7.10024e-08
-6.07404e-07
-4.9716e-08
-6.18009e-07
-4.45876e-08
-5.72692e-07
-3.87809e-08
-5.02799e-07
-3.07402e-08
-4.37452e-07
-2.10455e-08
-3.84976e-07
-1.12169e-08
-3.42724e-07
-3.07366e-07
-1.99029e-09
-1.21423e-09
7.45384e-08
-3.5761e-09
1.01343e-07
-8.9609e-09
1.57045e-07
-1.6129e-08
2.07536e-07
-2.2736e-08
2.19585e-07
-3.1732e-08
2.65155e-07
-3.90161e-08
2.80044e-07
-4.32176e-08
2.96708e-07
-5.92786e-08
4.11343e-07
-8.22318e-08
4.88074e-07
-1.0564e-07
5.39672e-07
-1.19068e-07
4.35255e-07
-1.96231e-07
3.11471e-07
-3.01351e-07
7.62107e-08
-2.87242e-07
-1.3661e-07
-1.34441e-07
-1.99962e-07
1.27911e-07
-1.53464e-07
2.28179e-07
-1.04432e-06
3.25012e-07
-1.51398e-07
-2.85649e-07
-7.13798e-08
-1.89561e-07
1.71479e-06
-6.69648e-09
-3.1919e-08
-4.73862e-08
-5.66709e-07
-3.62277e-08
-6.29168e-07
-2.87135e-08
-5.80204e-07
-2.0836e-08
-5.10676e-07
-1.40424e-08
-4.44245e-07
-8.60241e-09
-3.90416e-07
-4.56012e-09
-3.46767e-07
-3.10561e-07
-1.36594e-09
-1.0375e-09
7.55759e-08
-3.21719e-09
1.03522e-07
-8.56901e-09
1.62397e-07
-1.56189e-08
2.14586e-07
-2.20691e-08
2.26035e-07
-3.0965e-08
2.74051e-07
-3.76733e-08
2.86752e-07
-4.03625e-08
2.99397e-07
-5.62913e-08
4.27272e-07
-9.17534e-08
5.23536e-07
-1.60743e-07
6.08662e-07
-1.90792e-07
4.65304e-07
-1.48467e-07
2.69146e-07
-1.35426e-07
6.31697e-08
-1.92725e-07
-7.93106e-08
-1.97773e-07
-1.94914e-07
1.23513e-07
-4.7475e-07
1.13802e-07
-1.03461e-06
-3.94308e-07
3.56713e-07
-7.15379e-07
2.49692e-07
-5.71934e-08
1.0566e-06
-5.78295e-08
-3.12825e-08
-6.27412e-08
-5.61793e-07
-4.8948e-08
-6.42963e-07
-3.25228e-08
-5.96626e-07
-1.80481e-08
-5.2515e-07
-8.28137e-09
-4.54012e-07
-3.29723e-09
-3.954e-07
-1.64489e-09
-3.48418e-07
-3.10719e-07
-1.48705e-09
-1.21955e-09
7.67955e-08
-2.88905e-09
1.05192e-07
-8.22124e-09
1.67729e-07
-1.51924e-08
2.21557e-07
-2.16015e-08
2.32444e-07
-3.05112e-08
2.8296e-07
-3.65652e-08
2.92806e-07
-3.83861e-08
3.01218e-07
-5.68403e-08
4.45726e-07
-9.12956e-08
5.57991e-07
-1.62184e-07
6.79551e-07
-2.53732e-07
5.56851e-07
-2.6963e-07
2.85044e-07
-1.66987e-07
-3.94731e-08
-5.68521e-08
-1.89446e-07
1.48873e-08
-2.66654e-07
2.63106e-07
-7.22968e-07
7.4598e-07
-1.51748e-06
-1.03841e-07
1.20653e-06
-6.92598e-07
8.3845e-07
-3.78535e-08
4.01857e-07
-5.41827e-08
-1.49555e-08
-8.09622e-08
-5.35011e-07
-7.02842e-08
-6.53644e-07
-4.81413e-08
-6.18767e-07
-2.80765e-08
-5.45216e-07
-1.40575e-08
-4.68031e-07
-6.49446e-09
-4.02963e-07
-3.27199e-09
-3.51639e-07
-3.11897e-07
-2.09589e-09
-6.80531e-09
8.36008e-08
-2.46826e-09
1.00855e-07
-7.04157e-09
1.72303e-07
-1.29028e-08
2.27419e-07
-1.8819e-08
2.3836e-07
-2.9481e-08
2.93622e-07
-3.74525e-08
3.00778e-07
-3.22753e-08
2.96041e-07
-3.06918e-08
4.44143e-07
-5.77659e-08
5.85066e-07
-1.29542e-07
7.51327e-07
-2.39857e-07
6.67166e-07
-3.39573e-07
3.8476e-07
-2.96027e-07
-8.30188e-08
-1.24289e-07
-3.61184e-07
2.24359e-09
-3.93186e-07
1.50896e-07
-8.7162e-07
-5.50256e-07
-8.16331e-07
-5.85056e-07
1.24133e-06
-9.31246e-07
1.18464e-06
-2.60629e-07
-2.68757e-07
-9.62369e-08
-1.79351e-07
-7.40156e-08
-5.57229e-07
-6.70979e-08
-6.60566e-07
-4.64228e-08
-6.39441e-07
-2.91652e-08
-5.62474e-07
-1.67486e-08
-4.80447e-07
-9.22807e-09
-4.10484e-07
-5.09516e-09
-3.55771e-07
-2.63345e-09
-3.14361e-07
-1.7962e-07
1.77852e-07
-2.79058e-07
9.94383e-08
-1.98616e-07
-8.04416e-08
-4.14875e-09
-1.94468e-07
2.17106e-07
-2.21255e-07
2.03124e-07
1.39817e-08
7.87335e-08
1.24391e-07
4.42737e-07
-3.64003e-07
7.15732e-07
-2.72995e-07
5.95491e-07
1.20241e-07
3.52358e-07
2.43133e-07
1.64639e-07
1.87719e-07
7.41963e-08
9.04425e-08
4.20442e-08
3.2152e-08
3.48167e-08
7.22748e-09
3.64657e-08
-1.64899e-09
4.09163e-08
-4.45052e-09
4.53433e-08
-4.42707e-09
4.7987e-08
-2.64375e-09
4.79059e-08
8.1154e-11
4.51718e-08
2.73413e-09
4.0555e-08
4.61677e-09
3.49963e-08
5.55868e-09
2.89611e-08
6.03522e-09
2.27522e-08
6.2089e-09
1.67664e-08
5.98576e-09
1.10648e-08
5.7016e-09
6.34314e-09
4.72169e-09
2.8193e-09
3.52384e-09
2.81929e-09
-4.23226e-08
2.20662e-07
-8.39262e-08
1.41042e-07
-7.71883e-08
-8.71796e-08
-2.37216e-09
-2.69284e-07
1.24588e-07
-3.48215e-07
9.04091e-08
4.81609e-08
7.02903e-09
2.07771e-07
3.55276e-07
-7.1225e-07
7.4925e-07
-6.66969e-07
7.07671e-07
1.6182e-07
5.38474e-07
4.1233e-07
3.75555e-07
3.50638e-07
2.61768e-07
2.0423e-07
1.95165e-07
9.87548e-08
1.58718e-07
4.3674e-08
1.37532e-07
1.95374e-08
1.23513e-07
9.5681e-09
1.12399e-07
6.68691e-09
1.01567e-07
8.18822e-09
8.97363e-08
1.19122e-08
7.69453e-08
1.55251e-08
6.40194e-08
1.75427e-08
5.18542e-08
1.77239e-08
4.07116e-08
1.71778e-08
3.06438e-08
1.62767e-08
2.18273e-08
1.48023e-08
1.4082e-08
1.34469e-08
7.97761e-09
1.0826e-08
3.52704e-09
7.97443e-09
6.34632e-09
1.70918e-07
5.13545e-08
1.78773e-07
1.33187e-07
2.33912e-07
-1.42319e-07
2.87915e-07
-3.23287e-07
1.87657e-07
-2.47958e-07
2.81421e-08
2.07676e-07
-2.74777e-08
2.6339e-07
2.09026e-07
-9.48754e-07
6.7704e-07
-1.13498e-06
6.66726e-07
1.72134e-07
5.48523e-07
5.30533e-07
4.17726e-07
4.81435e-07
3.06965e-07
3.14991e-07
2.32359e-07
1.7336e-07
1.86799e-07
8.92347e-08
1.58481e-07
4.78555e-08
1.39329e-07
2.872e-08
1.24362e-07
2.16532e-08
1.10487e-07
2.20637e-08
9.62039e-08
2.61952e-08
8.14784e-08
3.02506e-08
6.70954e-08
3.19258e-08
5.38905e-08
3.09288e-08
4.20233e-08
2.9045e-08
3.14581e-08
2.68419e-08
2.23127e-08
2.39477e-08
1.43471e-08
2.14126e-08
8.10891e-09
1.70642e-08
3.58027e-09
1.25031e-08
9.92658e-09
1.29467e-07
-7.59388e-08
2.4075e-07
2.19043e-08
2.87389e-07
-1.88957e-07
2.79483e-07
-3.15382e-07
2.1192e-07
-1.80395e-07
9.95859e-08
3.20011e-07
1.1347e-07
2.49507e-07
8.28718e-08
-9.18156e-07
5.26703e-07
-1.57881e-06
5.72806e-07
1.26031e-07
5.04005e-07
5.99334e-07
4.01061e-07
5.84379e-07
3.02358e-07
4.13694e-07
2.33341e-07
2.42377e-07
1.89185e-07
1.33391e-07
1.60816e-07
7.62241e-08
1.41335e-07
4.82013e-08
1.25978e-07
3.70095e-08
1.1169e-07
3.63526e-08
9.7001e-08
4.08838e-08
8.1939e-08
4.53125e-08
6.73256e-08
4.65392e-08
5.39984e-08
4.4256e-08
4.20666e-08
4.09768e-08
3.14641e-08
3.74444e-08
2.23041e-08
3.31077e-08
1.43229e-08
2.93938e-08
8.0842e-09
2.33029e-08
3.56615e-09
1.70211e-08
1.34927e-08
3.5198e-08
-1.12833e-07
1.77318e-07
-1.20216e-07
1.20436e-07
-1.32075e-07
-2.24555e-08
-1.7249e-07
-9.10142e-08
-1.11836e-07
8.78292e-08
1.41167e-07
2.43698e-07
9.36375e-08
-3.89217e-08
-6.35536e-07
2.82947e-07
-1.90068e-06
4.41476e-07
-3.24969e-08
4.26293e-07
6.14517e-07
3.53821e-07
6.5685e-07
2.79029e-07
4.88486e-07
2.22906e-07
2.985e-07
1.84626e-07
1.71672e-07
1.58956e-07
1.01894e-07
1.40749e-07
6.64081e-08
1.25943e-07
5.1815e-08
1.11811e-07
5.04847e-08
9.707e-08
5.5625e-08
8.19006e-08
6.0482e-08
6.72158e-08
6.1224e-08
5.38836e-08
5.75882e-08
4.19672e-08
5.28931e-08
3.13787e-08
4.8033e-08
2.22387e-08
4.22476e-08
1.42608e-08
3.73717e-08
8.03594e-09
2.95278e-08
3.54094e-09
2.15161e-08
1.70337e-08
-2.33117e-09
-1.11833e-07
-1.2551e-08
-1.09996e-07
-5.89473e-08
-8.56787e-08
-1.34738e-07
-9.66995e-08
-1.16793e-07
-1.29781e-07
1.25292e-07
-1.00917e-07
1.90569e-07
2.83607e-08
-1.61219e-07
-2.83749e-07
3.11019e-08
-2.093e-06
2.92544e-07
-2.93939e-07
3.05521e-07
6.0154e-07
2.79542e-07
6.82829e-07
2.39773e-07
5.28256e-07
2.04699e-07
3.33574e-07
1.76682e-07
1.99688e-07
1.55607e-07
1.2297e-07
1.39467e-07
8.25474e-08
1.25574e-07
6.57084e-08
1.11761e-07
6.42979e-08
9.70255e-08
7.03601e-08
8.17679e-08
7.57395e-08
6.70254e-08
7.59665e-08
5.37087e-08
7.09049e-08
4.18248e-08
6.47771e-08
3.12612e-08
5.85966e-08
2.21512e-08
5.13576e-08
1.418e-08
4.53429e-08
7.97378e-09
3.57339e-08
3.50864e-09
2.59813e-08
2.05423e-08
3.5957e-08
-1.45356e-07
1.27869e-07
-2.01908e-07
2.05778e-07
-1.63588e-07
3.12752e-07
-2.03673e-07
1.26078e-07
5.68923e-08
1.22517e-07
-9.73563e-08
8.12109e-08
6.96674e-08
-2.03168e-07
6.29964e-10
-9.86323e-08
-2.19754e-06
7.86275e-08
-4.71199e-07
1.54918e-07
5.25249e-07
2.11796e-07
6.25952e-07
2.07464e-07
5.32587e-07
1.88621e-07
3.52418e-07
1.68641e-07
2.19667e-07
1.51831e-07
1.3978e-07
1.37918e-07
9.64597e-08
1.25091e-07
7.8536e-08
1.11664e-07
7.77248e-08
9.69395e-08
8.50845e-08
8.1581e-08
9.1098e-08
6.67761e-08
9.07714e-08
5.34865e-08
8.41944e-08
4.16468e-08
7.66168e-08
3.11158e-08
6.91275e-08
2.20437e-08
6.04296e-08
1.40816e-08
5.3305e-08
7.89826e-09
4.19173e-08
3.46948e-09
3.04101e-08
2.40118e-08
1.78844e-07
-3.28546e-07
5.79381e-07
-6.02445e-07
1.77816e-06
-1.36237e-06
2.2605e-06
-6.86009e-07
1.82262e-07
2.13513e-06
-1.78409e-07
2.63315e-07
-3.37765e-08
-7.49647e-08
-1.8222e-07
1.49073e-07
-2.86707e-07
-2.09305e-06
-1.90518e-07
-5.67388e-07
3.20665e-09
3.31525e-07
1.17008e-07
5.1215e-07
1.56037e-07
4.93558e-07
1.64231e-07
3.44224e-07
1.57976e-07
2.25922e-07
1.47308e-07
1.50448e-07
1.36146e-07
1.07621e-07
1.24547e-07
9.01346e-08
1.1155e-07
9.07218e-08
9.68235e-08
9.98114e-08
8.13427e-08
1.06579e-07
6.64683e-08
1.05646e-07
5.32176e-08
9.74451e-08
4.14336e-08
8.84008e-08
3.09426e-08
7.96185e-08
2.19167e-08
6.94556e-08
1.3966e-08
6.12557e-08
7.80941e-09
4.80738e-08
3.42346e-09
3.4796e-08
2.74352e-08
-6.69779e-07
3.10225e-07
-1.29012e-06
1.78927e-08
-1.92029e-06
-7.32199e-07
-1.30185e-06
-1.30445e-06
-1.54031e-06
2.37359e-06
-1.3804e-06
1.03404e-07
-1.25725e-07
-1.32964e-06
-1.85186e-07
2.08534e-07
-5.27123e-07
-1.75111e-06
-3.34216e-07
-7.60295e-07
-7.83686e-08
7.56773e-08
5.5381e-08
3.78401e-07
1.25174e-07
4.23765e-07
1.48459e-07
3.20939e-07
1.49787e-07
2.24594e-07
1.43211e-07
1.57025e-07
1.34397e-07
1.16435e-07
1.24007e-07
1.00525e-07
1.11441e-07
1.03288e-07
9.66828e-08
1.14569e-07
8.10525e-08
1.22209e-07
6.60999e-08
1.20599e-07
5.29014e-08
1.10643e-07
4.11856e-08
1.00117e-07
3.07418e-08
9.00623e-08
2.17703e-08
7.84271e-08
1.38333e-08
6.91927e-08
7.70723e-09
5.41998e-08
3.37056e-09
3.91327e-08
3.08058e-08
1.15739e-07
1.95609e-07
1.70315e-07
-3.66837e-08
1.37762e-07
-6.99646e-07
-8.38388e-07
-3.28299e-07
-1.30015e-06
2.83535e-06
-1.53865e-06
3.41909e-07
-1.62595e-06
-1.24234e-06
-1.62484e-07
-1.25493e-06
-5.37679e-07
-1.37592e-06
-3.48354e-07