/*--------------------------------*- C++ -*----------------------------------*\
| =========                 |                                                 |
| \\      /  F ield         | OpenFOAM: The Open Source CFD Toolbox           |
|  \\    /   O peration     | Version:  2.4.0                                 |
|   \\  /    A nd           | Web:      www.OpenFOAM.org                      |
|    \\/     M anipulation  |                                                 |
\*---------------------------------------------------------------------------*/
FoamFile
{
    version     2.0;
    format      ascii;
    class       volVectorField;
    location    "0.155";
    object      U;
}
// * * * * * * * * * * * * * * * * * * * * * * * * * * * * * * * * * * * * * //

dimensions      [0 1 -1 0 0 0 0];

internalField   nonuniform List<vector> 
57600
(
(0.00082813 -0.000164219 0)
(0.00672213 -0.000139839 0)
(0.0165598 -0.000132034 0)
(0.0255169 -0.000121196 0)
(0.0315125 -5.09804e-05 0)
(0.0336248 1.55515e-05 0)
(0.0335678 6.86686e-05 0)
(0.0303976 0.000214558 0)
(0.020312 0.000471861 0)
(0.00364853 0.000569184 0)
(-0.0124129 0.000392243 0)
(-0.0223547 0.000152415 0)
(-0.0266389 -5.57101e-07 0)
(-0.0278176 -5.94243e-05 0)
(-0.0277968 -6.94162e-05 0)
(-0.0273024 -7.29062e-05 0)
(-0.0263769 -9.10653e-05 0)
(-0.0249135 -0.000124037 0)
(-0.0229459 -0.000161 0)
(-0.0206256 -0.000194834 0)
(-0.0181257 -0.000221732 0)
(-0.0155928 -0.000240974 0)
(-0.0131349 -0.000252903 0)
(-0.0108224 -0.000258216 0)
(-0.00869741 -0.000258281 0)
(-0.00677543 -0.000255068 0)
(-0.00505282 -0.000250481 0)
(-0.00351485 -0.000245941 0)
(-0.00214168 -0.000242302 0)
(-0.000912572 -0.000239947 0)
(-0.00235678 -0.000128518 0)
(0.00476522 -0.00108195 0)
(0.0211325 -0.00137809 0)
(0.0384969 -0.00121879 0)
(0.0521342 -0.000764651 0)
(0.060685 -0.000419661 0)
(0.066397 -5.29517e-05 0)
(0.0670974 0.00116943 0)
(0.0572218 0.00320702 0)
(0.0359195 0.0045495 0)
(0.00976327 0.00422054 0)
(-0.0134225 0.00297198 0)
(-0.0301064 0.00177986 0)
(-0.0405882 0.000965358 0)
(-0.0462496 0.000395821 0)
(-0.0483016 -0.000127482 0)
(-0.0475681 -0.000699859 0)
(-0.0448171 -0.00125862 0)
(-0.0408289 -0.00173398 0)
(-0.0362314 -0.00210401 0)
(-0.0314514 -0.00237377 0)
(-0.0267607 -0.00255685 0)
(-0.0223273 -0.0026665 0)
(-0.0182496 -0.00271561 0)
(-0.0145741 -0.00272006 0)
(-0.0113077 -0.00269795 0)
(-0.00842232 -0.0026658 0)
(-0.00587153 -0.00263588 0)
(-0.00360394 -0.00261436 0)
(-0.00157243 -0.00260397 0)
(-0.00367411 0.000252682 0)
(0.00107362 -0.00201369 0)
(0.0174572 -0.00283749 0)
(0.0355818 -0.00267958 0)
(0.0504305 -0.00190408 0)
(0.0603699 -0.00128551 0)
(0.0677486 -0.000695572 0)
(0.0707587 0.00144927 0)
(0.0642001 0.00522032 0)
(0.0474746 0.00816802 0)
(0.025913 0.00856453 0)
(0.00461607 0.00709235 0)
(-0.0130112 0.00509459 0)
(-0.025533 0.00325783 0)
(-0.0329859 0.00166174 0)
(-0.0363202 0.000207727 0)
(-0.0366842 -0.0011759 0)
(-0.0350735 -0.0023808 0)
(-0.0322773 -0.00333363 0)
(-0.0288467 -0.00404429 0)
(-0.0251432 -0.00455045 0)
(-0.0214108 -0.00488516 0)
(-0.0178212 -0.005072 0)
(-0.0144948 -0.00513149 0)
(-0.0115098 -0.00509161 0)
(-0.00890217 -0.00499181 0)
(-0.00665735 -0.00487631 0)
(-0.00472376 -0.00478138 0)
(-0.00303356 -0.00472528 0)
(-0.0015255 -0.00470812 0)
(-0.00412353 0.000743195 0)
(0.000190004 -0.0029284 0)
(0.0166292 -0.0043098 0)
(0.0348614 -0.00416841 0)
(0.0497929 -0.00307635 0)
(0.0597159 -0.00220585 0)
(0.0673056 -0.00143999 0)
(0.0707692 0.00156573 0)
(0.0646519 0.0069769 0)
(0.0483846 0.0113184 0)
(0.0283231 0.0122857 0)
(0.00945276 0.0107686 0)
(-0.0060578 0.00826335 0)
(-0.0175148 0.00563212 0)
(-0.0250302 0.00315344 0)
(-0.0292119 0.000888094 0)
(-0.0308406 -0.00118599 0)
(-0.030605 -0.00295969 0)
(-0.0290594 -0.00437185 0)
(-0.0266585 -0.00544604 0)
(-0.0237634 -0.00623209 0)
(-0.020649 -0.00676905 0)
(-0.017514 -0.00708323 0)
(-0.0145015 -0.0071972 0)
(-0.0117079 -0.00714461 0)
(-0.00918977 -0.00698318 0)
(-0.00695686 -0.00678968 0)
(-0.00498253 -0.00663311 0)
(-0.00322059 -0.00654949 0)
(-0.00162656 -0.00653851 0)
(-0.004433 0.00127592 0)
(-9.54004e-05 -0.00385251 0)
(0.0164651 -0.0057951 0)
(0.0348344 -0.00566664 0)
(0.0498601 -0.00424348 0)
(0.0596909 -0.00312775 0)
(0.0674244 -0.00222491 0)
(0.0713327 0.00162811 0)
(0.0654632 0.00874102 0)
(0.0487 0.0144938 0)
(0.0281733 0.0158614 0)
(0.00962261 0.0141311 0)
(-0.00500756 0.0111308 0)
(-0.0158194 0.00789016 0)
(-0.0233596 0.004759 0)
(-0.0280566 0.00183576 0)
(-0.0303219 -0.000862173 0)
(-0.0306284 -0.00320834 0)
(-0.0294792 -0.00511871 0)
(-0.0273594 -0.00660057 0)
(-0.0246774 -0.00770485 0)
(-0.0217318 -0.00847973 0)
(-0.0187279 -0.00896151 0)
(-0.015795 -0.00918351 0)
(-0.0130072 -0.00918936 0)
(-0.0104018 -0.00905128 0)
(-0.00798686 -0.00886555 0)
(-0.00575749 -0.00871891 0)
(-0.0037027 -0.00865617 0)
(-0.00181156 -0.00867608 0)
(-0.00478938 0.00184607 0)
(-0.000342907 -0.00479099 0)
(0.0163613 -0.007296 0)
(0.034897 -0.00717689 0)
(0.0500519 -0.00540483 0)
(0.0597599 -0.00404829 0)
(0.0676638 -0.00305896 0)
(0.0721477 0.0016196 0)
(0.0666695 0.0105282 0)
(0.0493095 0.0177949 0)
(0.0279826 0.0195237 0)
(0.0089998 0.0174567 0)
(-0.00559501 0.0138974 0)
(-0.0162852 0.010109 0)
(-0.0238937 0.00643027 0)
(-0.0287958 0.00290113 0)
(-0.0312372 -0.000430683 0)
(-0.031613 -0.00338387 0)
(-0.0304523 -0.00581939 0)
(-0.028296 -0.00772182 0)
(-0.0255809 -0.00914678 0)
(-0.0226159 -0.0101571 0)
(-0.0196038 -0.0108102 0)
(-0.0166624 -0.0111592 0)
(-0.0138472 -0.0112662 0)
(-0.0111771 -0.0112171 0)
(-0.00865316 -0.0111145 0)
(-0.00627778 -0.0110445 0)
(-0.00405643 -0.0110478 0)
(-0.00199415 -0.0111211 0)
(-0.0052338 0.00246182 0)
(-0.000637507 -0.00574622 0)
(0.0162399 -0.0088147 0)
(0.0349759 -0.0087023 0)
(0.0502981 -0.00655864 0)
(0.0598418 -0.00496597 0)
(0.0679411 -0.00395342 0)
(0.073123 0.00151601 0)
(0.0681889 0.0123354 0)
(0.0501037 0.0212448 0)
(0.0278548 0.0233186 0)
(0.00827593 0.0208409 0)
(-0.00651594 0.0166635 0)
(-0.0172536 0.0123327 0)
(-0.0249404 0.00813499 0)
(-0.0299496 0.0040068 0)
(-0.0324464 1.60476e-05 0)
(-0.0327769 -0.0035782 0)
(-0.0315018 -0.00655775 0)
(-0.0292116 -0.00888569 0)
(-0.026366 -0.0106289 0)
(-0.0232828 -0.0118714 0)
(-0.0201662 -0.0126923 0)
(-0.0171359 -0.013168 0)
(-0.014248 -0.0133832 0)
(-0.0115211 -0.013438 0)
(-0.00895486 -0.0134372 0)
(-0.00654758 -0.0134626 0)
(-0.00429594 -0.0135509 0)
(-0.00219541 -0.0136951 0)
(-0.00578019 0.00313393 0)
(-0.000988629 -0.00671993 0)
(0.0160929 -0.0103532 0)
(0.0350644 -0.0102464 0)
(0.050599 -0.00770227 0)
(0.0599275 -0.00587867 0)
(0.068242 -0.00491869 0)
(0.074237 0.00128857 0)
(0.0700416 0.0141599 0)
(0.0510533 0.0248737 0)
(0.0277222 0.0272661 0)
(0.00746033 0.0243046 0)
(-0.00756355 0.0194517 0)
(-0.0183696 0.0145723 0)
(-0.0261541 0.00986916 0)
(-0.0312889 0.00514193 0)
(-0.033853 0.000463052 0)
(-0.0341253 -0.00381106 0)
(-0.0326981 -0.00735924 0)
(-0.0302275 -0.0101226 0)
(-0.0272001 -0.0121894 0)
(-0.023939 -0.0136672 0)
(-0.0206555 -0.0146554 0)
(-0.0174787 -0.0152512 0)
(-0.0144786 -0.0155595 0)
(-0.0116874 -0.0156939 0)
(-0.00911027 -0.0157672 0)
(-0.0067356 -0.0158679 0)
(-0.00453498 -0.0160402 0)
(-0.00247258 -0.0162784 0)
(-0.00643954 0.00387421 0)
(-0.00139602 -0.0077142 0)
(0.0159188 -0.0119133 0)
(0.0351608 -0.0118132 0)
(0.0509615 -0.00883233 0)
(0.0600131 -0.00678356 0)
(0.0685538 -0.00596368 0)
(0.0754629 0.000899857 0)
(0.0722685 0.015994 0)
(0.0521564 0.0287185 0)
(0.0275571 0.0313905 0)
(0.00651235 0.027856 0)
(-0.00874049 0.0222604 0)
(-0.0195974 0.0168299 0)
(-0.0275044 0.0116423 0)
(-0.0328165 0.00631842 0)
(-0.0354915 0.000916238 0)
(-0.0357052 -0.00409141 0)
(-0.0340915 -0.0082401 0)
(-0.0314018 -0.0114515 0)
(-0.0281552 -0.0138512 0)
(-0.024677 -0.0155723 0)
(-0.0211853 -0.0167305 0)
(-0.0178221 -0.0174383 0)
(-0.0146774 -0.0178138 0)
(-0.0118055 -0.0179822 0)
(-0.00922655 -0.0180709 0)
(-0.00692689 -0.0181941 0)
(-0.00484831 -0.0184309 0)
(-0.00289661 -0.018798 0)
(-0.00722453 0.00469541 0)
(-0.00185746 -0.00873115 0)
(0.0157161 -0.0134959 0)
(0.0352632 -0.0134071 0)
(0.0513949 -0.00994451 0)
(0.0600944 -0.00767692 0)
(0.0688595 -0.00709473 0)
(0.0767559 0.0002993 0)
(0.074924 0.0178206 0)
(0.0534115 0.0328217 0)
(0.0273439 0.0357211 0)
(0.00540324 0.0315028 0)
(-0.0100627 0.0250821 0)
(-0.0209353 0.0191049 0)
(-0.0289916 0.0134679 0)
(-0.0345442 0.00755466 0)
(-0.0373906 0.00138608 0)
(-0.0375454 -0.00442986 0)
(-0.0356993 -0.0092174 0)
(-0.0327509 -0.0128881 0)
(-0.0292523 -0.0156318 0)
(-0.0255254 -0.0176066 0)
(-0.0217906 -0.018941 0)
(-0.0182033 -0.0197546 0)
(-0.0148744 -0.0201701 0)
(-0.0118859 -0.0203164 0)
(-0.009288 -0.0203342 0)
(-0.00708782 -0.0203789 0)
(-0.00521371 -0.0206122 0)
(-0.00348839 -0.0211507 0)
(-0.00815048 0.00561129 0)
(-0.0023697 -0.00976306 0)
(0.0154827 -0.0151016 0)
(0.0353692 -0.0150328 0)
(0.0519111 -0.0110332 0)
(0.0601671 -0.00855382 0)
(0.0691341 -0.00831453 0)
(0.0780377 -0.000582435 0)
(0.0780826 0.0196063 0)
(0.0548123 0.0372306 0)
(0.0270663 0.0402905 0)
(0.0041056 0.0352522 0)
(-0.0115416 0.0279041 0)
(-0.0223756 0.021394 0)
(-0.0306097 0.0153619 0)
(-0.0364773 0.00887385 0)
(-0.0395793 0.00188788 0)
(-0.0396739 -0.00484252 0)
(-0.0375294 -0.0103116 0)
(-0.0342801 -0.0144486 0)
(-0.0305 -0.0175455 0)
(-0.0264959 -0.0197887 0)
(-0.022482 -0.0213103 0)
(-0.0186264 -0.0222306 0)
(-0.015057 -0.0226669 0)
(-0.0118808 -0.0227401 0)
(-0.00917451 -0.0225939 0)
(-0.00696081 -0.0224299 0)
(-0.00517785 -0.0225234 0)
(-0.00366869 -0.0232146 0)
(-0.00923596 0.00663693 0)
(-0.00292844 -0.0108016 0)
(0.015216 -0.0167301 0)
(0.0354762 -0.0166951 0)
(0.0525254 -0.0120913 0)
(0.060227 -0.00940774 0)
(0.0693364 -0.00962267 0)
(0.0791422 -0.00183759 0)
(0.0818503 0.0212894 0)
(0.0563428 0.0419961 0)
(0.0267061 0.0451362 0)
(0.00258686 0.0391099 0)
(-0.0131874 0.0307081 0)
(-0.0239031 0.0236916 0)
(-0.0323476 0.0173434 0)
(-0.0386159 0.0103051 0)
(-0.0420956 0.0024457 0)
(-0.0421288 -0.00535523 0)
(-0.0395831 -0.0115499 0)
(-0.0359925 -0.016145 0)
(-0.0319103 -0.0196066 0)
(-0.0275963 -0.0221365 0)
(-0.0232676 -0.0238633 0)
(-0.0190935 -0.024904 0)
(-0.0152115 -0.0253624 0)
(-0.0117388 -0.0253471 0)
(-0.00874856 -0.025017 0)
(-0.00622883 -0.0246384 0)
(-0.00410366 -0.0245233 0)
(-0.00229578 -0.0250589 0)
(-0.0105033 0.00778886 0)
(-0.00352717 -0.0118399 0)
(0.0149126 -0.0183802 0)
(0.0355806 -0.0183986 0)
(0.0532571 -0.0131096 0)
(0.0602703 -0.0102302 0)
(0.0693767 -0.0110265 0)
(0.0795481 -0.00355287 0)
(0.0863342 0.022749 0)
(0.0579687 0.0471714 0)
(0.0262414 0.050304 0)
(0.000806596 0.0430822 0)
(-0.0150116 0.0334684 0)
(-0.0254932 0.0259877 0)
(-0.034191 0.0194369 0)
(-0.0409516 0.0118842 0)
(-0.0449924 0.00309977 0)
(-0.0449636 -0.00601344 0)
(-0.0418514 -0.0129645 0)
(-0.037889 -0.0179854 0)
(-0.0334898 -0.0218269 0)
(-0.0288425 -0.0246676 0)
(-0.0241618 -0.0266279 0)
(-0.0196182 -0.0278173 0)
(-0.0153457 -0.028328 0)
(-0.0114616 -0.0282537 0)
(-0.00805824 -0.0277708 0)
(-0.00518774 -0.027207 0)
(-0.00281218 -0.0269999 0)
(-0.000540825 -0.0282362 0)
(-0.0119792 0.00908524 0)
(-0.00415579 -0.0128715 0)
(0.0145684 -0.0200489 0)
(0.0356783 -0.0201472 0)
(0.0541313 -0.0140765 0)
(0.0602932 -0.0110102 0)
(0.0691288 -0.0125741 0)
(0.0785931 -0.00564573 0)
(0.0912514 0.0237201 0)
(0.059621 0.0528009 0)
(0.0256458 0.0558513 0)
(-0.00128485 0.0471686 0)
(-0.0170269 0.0361489 0)
(-0.0271098 0.0282654 0)
(-0.0361229 0.0216762 0)
(-0.0434576 0.0136527 0)
(-0.0483446 0.00392111 0)
(-0.0482651 -0.00690087 0)
(-0.0442944 -0.0145916 0)
(-0.0399697 -0.0199694 0)
(-0.0352546 -0.0242153 0)
(-0.0302501 -0.027399 0)
(-0.0251865 -0.029628 0)
(-0.0202285 -0.0310118 0)
(-0.0154953 -0.0316357 0)
(-0.0110776 -0.0315785 0)
(-0.00704482 -0.0309962 0)
(-0.00345262 -0.030222 0)
(-0.000285617 -0.0297888 0)
(0.00248989 -0.0306072 0)
(-0.0136956 0.0105462 0)
(-0.0047996 -0.0138883 0)
(0.0141782 -0.0217318 0)
(0.0357646 -0.0219433 0)
(0.05518 -0.0149778 0)
(0.0602913 -0.0117341 0)
(0.0687671 -0.0142746 0)
(0.0822979 -0.00790762 0)
(0.0968016 0.0239357 0)
(0.0611219 0.0588861 0)
(0.0248812 0.0618568 0)
(-0.00374927 0.0513648 0)
(-0.0192497 0.0387014 0)
(-0.0286989 0.0304978 0)
(-0.0381281 0.024113 0)
(-0.046073 0.0156523 0)
(-0.0522556 0.00504086 0)
(-0.0521883 -0.00817744 0)
(-0.0467983 -0.0164547 0)
(-0.0422447 -0.0220845 0)
(-0.0372269 -0.0267823 0)
(-0.0318374 -0.0303453 0)
(-0.0263676 -0.0328833 0)
(-0.0209672 -0.0345184 0)
(-0.0157345 -0.0353429 0)
(-0.010718 -0.0354514 0)
(-0.00590338 -0.0350104 0)
(-0.00126583 -0.0343639 0)
(0.00316583 -0.0340951 0)
(0.00689976 -0.0342134 0)
(-0.0156909 0.0121943 0)
(-0.00543795 -0.01488 0)
(0.0137346 -0.0234212 0)
(0.0358334 -0.0237867 0)
(0.0564465 -0.0157957 0)
(0.0602564 -0.0123857 0)
(0.068397 -0.0158522 0)
(0.0977598 -0.0105222 0)
(0.107643 0.0243335 0)
(0.061536 0.0654081 0)
(0.0238831 0.0684303 0)
(-0.00666376 0.0556652 0)
(-0.0217018 0.0410637 0)
(-0.0301802 0.0326394 0)
(-0.0401977 0.0268356 0)
(-0.0486661 0.0178965 0)
(-0.0568585 0.00670668 0)
(-0.0570192 -0.0101732 0)
(-0.0489978 -0.0184691 0)
(-0.0447615 -0.0243319 0)
(-0.0394354 -0.0295527 0)
(-0.0336218 -0.033519 0)
(-0.0277348 -0.036405 0)
(-0.0218819 -0.0383506 0)
(-0.0161543 -0.0394557 0)
(-0.0106136 -0.0398502 0)
(-0.00525507 -0.0397516 0)
(-5.41459e-05 -0.03948 0)
(0.00492524 -0.0394048 0)
(0.00949108 -0.0397748 0)
(-0.0180108 0.0140544 0)
(-0.00604256 -0.0158319 0)
(0.0132267 -0.0251063 0)
(0.0358767 -0.0256718 0)
(0.0579917 -0.0165082 0)
(0.060173 -0.0129498 0)
(0.0672973 -0.0172563 0)
(0.103762 -0.0135002 0)
(0.12196 0.0270002 0)
(0.0593119 0.0730277 0)
(0.0225231 0.07569 0)
(-0.0101192 0.0600512 0)
(-0.024421 0.0431575 0)
(-0.0314357 0.0346135 0)
(-0.042325 0.0300164 0)
(-0.0508663 0.0202811 0)
(-0.0622858 0.00938372 0)
(-0.0629164 -0.0137491 0)
(-0.0500935 -0.0199194 0)
(-0.0477161 -0.0268321 0)
(-0.041917 -0.0325867 0)
(-0.0356182 -0.0369301 0)
(-0.0293158 -0.0401945 0)
(-0.0230144 -0.0425091 0)
(-0.016799 -0.0439464 0)
(-0.0108032 -0.044633 0)
(-0.00512685 -0.0448175 0)
(0.000170727 -0.0448028 0)
(0.00501985 -0.04485 0)
(0.00932922 -0.0451018 0)
(-0.0207103 0.0161545 0)
(-0.00657489 -0.0167248 0)
(0.0126393 -0.0267717 0)
(0.0358831 -0.027585 0)
(0.0599117 -0.0170884 0)
(0.0600257 -0.0134081 0)
(0.066746 -0.0190282 0)
(0.0995599 -0.0169746 0)
(0.133031 0.0328111 0)
(0.0584316 0.0833628 0)
(0.0205058 0.0836698 0)
(-0.0142014 0.0644906 0)
(-0.0274735 0.0448873 0)
(-0.0322966 0.0362895 0)
(-0.0443868 0.0339908 0)
(-0.0516678 0.02252 0)
(-0.0685417 0.0138516 0)
(-0.0694095 -0.0208793 0)
(-0.0517941 -0.0193035 0)
(-0.0512392 -0.0298659 0)
(-0.044604 -0.0359189 0)
(-0.0378334 -0.0405743 0)
(-0.0311328 -0.0442405 0)
(-0.0244001 -0.0469962 0)
(-0.0176656 -0.0488203 0)
(-0.0111839 -0.0497534 0)
(-0.00521816 -0.0500558 0)
(8.30243e-05 -0.0500431 0)
(0.00463919 -0.0499435 0)
(0.00840366 -0.0498797 0)
(-0.0238558 0.0185266 0)
(-0.00698252 -0.0175334 0)
(0.0119518 -0.0284006 0)
(0.0358341 -0.0295004 0)
(0.0623667 -0.0175022 0)
(0.0597759 -0.0137281 0)
(0.0696626 -0.0215358 0)
(0.0891101 -0.0225456 0)
(0.13818 0.039859 0)
(0.0616027 0.0949455 0)
(0.0174562 0.0923934 0)
(-0.0189994 0.0689239 0)
(-0.0309706 0.0461382 0)
(-0.0325322 0.0374352 0)
(-0.0448698 0.0389667 0)
(-0.0505121 0.0252114 0)
(-0.0748903 0.0208993 0)
(-0.0760352 -0.0320009 0)
(-0.060263 -0.0182258 0)
(-0.0547577 -0.0332272 0)
(-0.0474123 -0.0394907 0)
(-0.0402121 -0.0444342 0)
(-0.0331645 -0.04851 0)
(-0.0260549 -0.0518189 0)
(-0.018743 -0.0541335 0)
(-0.0117382 -0.055211 0)
(-0.00568581 -0.0553191 0)
(-0.000851472 -0.054892 0)
(0.00280345 -0.0542245 0)
(0.00545141 -0.053486 0)
(-0.0275271 0.0212066 0)
(-0.00720128 -0.0182254 0)
(0.0111365 -0.0299786 0)
(0.0356984 -0.0313733 0)
(0.0654452 -0.0176905 0)
(0.059304 -0.0139254 0)
(0.0714328 -0.0243031 0)
(0.0689655 -0.0319554 0)
(0.127756 0.0396057 0)
(0.0663003 0.104939 0)
(0.0132195 0.101865 0)
(-0.0245919 0.0733065 0)
(-0.0350782 0.0467826 0)
(-0.0318276 0.0376087 0)
(-0.037104 0.0423469 0)
(-0.0473464 0.0329604 0)
(-0.0793276 0.0302359 0)
(-0.0754741 -0.0452884 0)
(-0.0702501 -0.0202146 0)
(-0.0583292 -0.0364057 0)
(-0.0502576 -0.0434248 0)
(-0.042418 -0.0485263 0)
(-0.0350848 -0.0529218 0)
(-0.0278089 -0.0569389 0)
(-0.019952 -0.0599396 0)
(-0.0124352 -0.0608822 0)
(-0.00664571 -0.060124 0)
(-0.00281758 -0.0586485 0)
(-0.000435842 -0.0570517 0)
(0.00109274 -0.0556293 0)
(-0.0318202 0.0242357 0)
(-0.00714871 -0.0187583 0)
(0.0101576 -0.0314949 0)
(0.0354231 -0.0331256 0)
(0.0681071 -0.0174763 0)
(0.0583954 -0.0141178 0)
(0.0629127 -0.0246889 0)
(0.0540575 -0.0400914 0)
(0.0809195 0.0231133 0)
(0.0712068 0.115357 0)
(0.00703922 0.111714 0)
(-0.0312453 0.0776091 0)
(-0.0400217 0.0467029 0)
(-0.0297155 0.035981 0)
(-0.0182243 0.0386762 0)
(-0.0413414 0.0491156 0)
(-0.0797693 0.039774 0)
(-0.0714151 -0.0536165 0)
(-0.074389 -0.0250787 0)
(-0.0625497 -0.0395122 0)
(-0.0519685 -0.0479074 0)
(-0.0427601 -0.0529004 0)
(-0.0350946 -0.057348 0)
(-0.0279417 -0.0621747 0)
(-0.0197762 -0.0662642 0)
(-0.0117242 -0.0667586 0)
(-0.00615188 -0.0642877 0)
(-0.00317074 -0.0612686 0)
(-0.00165981 -0.0587473 0)
(-0.000719383 -0.0569918 0)
(-0.0368521 0.0276615 0)
(-0.00671284 -0.0190755 0)
(0.00896916 -0.0329385 0)
(0.0348945 -0.0346347 0)
(0.0668294 -0.0164475 0)
(0.0566909 -0.0146037 0)
(0.0322047 -0.019956 0)
(-0.00287157 -0.0385006 0)
(0.159537 -0.00492683 0)
(0.040589 0.12435 0)
(-0.00148428 0.120813 0)
(-0.0390836 0.0816838 0)
(-0.0460172 0.0458093 0)
(-0.0254189 0.0312498 0)
(-0.00459718 0.0340582 0)
(-0.042303 0.0677706 0)
(-0.0756261 0.0464223 0)
(-0.066705 -0.0536585 0)
(-0.0746295 -0.0300764 0)
(-0.064144 -0.0448613 0)
(-0.0481976 -0.0541749 0)
(-0.0367516 -0.0577264 0)
(-0.0279248 -0.061943 0)
(-0.0206175 -0.0672969 0)
(-0.0133578 -0.0725404 0)
(-0.00668779 -0.0723599 0)
(-0.0025982 -0.06761 0)
(-0.000947833 -0.0628505 0)
(-0.00051627 -0.0595229 0)
(-0.000463431 -0.0576425 0)
(-0.0427649 0.0315385 0)
(-0.00574309 -0.0191014 0)
(0.00751498 -0.0342954 0)
(0.0339235 -0.0357761 0)
(0.0543434 -0.0139031 0)
(0.0525293 -0.0156152 0)
(-0.0369791 -0.0103782 0)
(-0.125532 -0.0178418 0)
(-0.57796 -0.0406363 0)
(0.00829502 0.121257 0)
(-0.0104836 0.128593 0)
(-0.0473417 0.0850824 0)
(-0.0531014 0.044079 0)
(-0.0177268 0.0215529 0)
(0.00250442 0.0436488 0)
(-0.0477969 0.0809501 0)
(-0.0687278 0.0480661 0)
(-0.0628903 -0.0465822 0)
(-0.0744279 -0.0317017 0)
(-0.0601375 -0.0552487 0)
(-0.0374315 -0.0631634 0)
(-0.0221518 -0.0641246 0)
(-0.0114111 -0.0670248 0)
(-0.00458251 -0.0717423 0)
(-0.000404046 -0.0766243 0)
(0.00186109 -0.0753875 0)
(0.00253938 -0.0689343 0)
(0.00231812 -0.0629823 0)
(0.00155509 -0.0590245 0)
(0.000490527 -0.056912 0)
(-0.0497323 0.0359295 0)
(-0.00403347 -0.0187347 0)
(0.00572581 -0.0355483 0)
(0.0323791 -0.0367487 0)
(0.0284388 -0.00993353 0)
(0.0238525 -0.0133563 0)
(-0.0829269 0.000645248 0)
(1.81153 -0.1877 0)
(0.75078 0.605804 0)
(-0.137557 0.116081 0)
(-0.0189985 0.135955 0)
(-0.0563352 0.08737 0)
(-0.0617984 0.0417928 0)
(-0.00266849 0.00210072 0)
(0.0312758 0.0640918 0)
(-0.0567861 0.0882621 0)
(-0.0612301 0.0443959 0)
(-0.0594167 -0.0349624 0)
(-0.0759647 -0.0287925 0)
(-0.0702675 -0.0679415 0)
(-0.0367341 -0.0728055 0)
(-0.0121891 -0.0727948 0)
(0.000244542 -0.0718368 0)
(0.00554759 -0.0746223 0)
(0.00730274 -0.0776972 0)
(0.00698014 -0.0752814 0)
(0.00625601 -0.068437 0)
(0.00559198 -0.0621299 0)
(0.00457404 -0.0576298 0)
(0.00305211 -0.0549302 0)
(-0.0579683 0.0409064 0)
(-0.00128836 -0.0178439 0)
(0.00351934 -0.0366764 0)
(0.0308479 -0.0375443 0)
(-0.0116042 -0.00542252 0)
(-0.0636267 8.78314e-05 0)
(0.0834583 0.0212507 0)
(0.786911 -0.142489 0)
(0.909492 0.599262 0)
(-0.108025 0.0744487 0)
(-0.00723514 0.142936 0)
(-0.067147 0.0886827 0)
(-0.0730564 0.0395491 0)
(0.012526 -0.0276364 0)
(-0.000164942 0.0869794 0)
(-0.0721222 0.0901234 0)
(-0.0534358 0.0355172 0)
(-0.0542372 -0.0214238 0)
(-0.0817057 -0.0217498 0)
(-0.0996729 -0.0756613 0)
(-0.0623901 -0.0941093 0)
(-0.0220202 -0.0864761 0)
(-0.00461247 -0.0760395 0)
(0.00170614 -0.0773667 0)
(0.0062278 -0.0786017 0)
(0.00824078 -0.0753169 0)
(0.00940739 -0.0684691 0)
(0.00994459 -0.0617322 0)
(0.0095706 -0.0563746 0)
(0.00811182 -0.0525547 0)
(-0.0677355 0.0465496 0)
(0.00291183 -0.0162874 0)
(0.000803408 -0.0376537 0)
(0.0274835 -0.0370698 0)
(-0.0628542 -0.00308025 0)
(0.355343 -0.0798464 0)
(1.07007 -0.0118598 0)
(0.739395 -0.092921 0)
(0.389898 0.657676 0)
(-0.0905357 0.160305 0)
(-0.00145737 0.159421 0)
(-0.0772529 0.0893209 0)
(-0.0877469 0.0381661 0)
(-0.0446094 -0.0367156 0)
(-0.0810823 0.102781 0)
(-0.0887317 0.0818902 0)
(-0.0477287 0.0203085 0)
(-0.0469584 -0.0105585 0)
(-0.0826849 -0.00749575 0)
(-0.0901511 -0.0834126 0)
(-0.0630175 -0.118502 0)
(-0.0269516 -0.104355 0)
(-0.00644553 -0.0790367 0)
(-0.00906142 -0.0826365 0)
(0.00672409 -0.0830943 0)
(0.0132047 -0.0779443 0)
(0.0160837 -0.0700127 0)
(0.0175167 -0.0622431 0)
(0.0173182 -0.0555225 0)
(0.0152408 -0.0491572 0)
(-0.0793543 0.0529455 0)
(0.00847078 -0.0141101 0)
(-0.00256843 -0.0384032 0)
(0.0159154 -0.0332615 0)
(-0.154221 0.00190979 0)
(1.0408 -0.198984 0)
(0.807816 -0.0186253 0)
(0.490694 -0.0427197 0)
(0.143312 0.73938 0)
(-0.092914 0.193101 0)
(-0.0614978 0.130003 0)
(-0.0906471 0.0914477 0)
(-0.105051 0.0398041 0)
(-0.133844 -0.025401 0)
(-0.165573 0.109471 0)
(-0.0958728 0.0585104 0)
(-0.0473185 0.0022484 0)
(-0.0356238 -0.0083869 0)
(-0.0547939 0.00503369 0)
(-0.0410983 -0.0991031 0)
(-0.00265441 -0.124111 0)
(-0.0155821 -0.117364 0)
(0.00973685 -0.0874176 0)
(-0.00196338 -0.101197 0)
(0.0126031 -0.0918179 0)
(0.0154882 -0.0811919 0)
(0.00702148 -0.0693402 0)
(0.0432822 -0.0650853 0)
(0.129927 -0.0392126 0)
(0.0116715 -0.0478961 0)
(-0.0932033 0.0601735 0)
(0.00977087 -0.0118192 0)
(-0.00769439 -0.0387579 0)
(-0.0116807 -0.0239102 0)
(0.383927 -0.109274 0)
(0.691478 -0.130085 0)
(0.457294 -0.0285864 0)
(0.244621 -0.013744 0)
(0.167006 0.791238 0)
(-0.324819 0.0153567 0)
(-0.190292 0.0725187 0)
(-0.0953286 0.0958745 0)
(-0.122818 0.0482166 0)
(-0.210906 -0.0113473 0)
(-0.220884 0.104209 0)
(-0.110139 0.0326121 0)
(-0.0536591 -0.0106375 0)
(-0.0297236 -0.0106874 0)
(0.00974284 -0.00120158 0)
(0.0950328 -0.117709 0)
(0.0647737 -0.118659 0)
(0.00477375 -0.0909738 0)
(-0.0488414 -0.0963377 0)
(0.150405 -0.103384 0)
(0.106082 -0.178552 0)
(0.0666084 -0.130406 0)
(0.00486262 -0.0728099 0)
(-0.0339067 -0.0106651 0)
(-0.0952346 -0.00917419 0)
(-0.106508 0.0144863 0)
(-0.10968 0.0682187 0)
(-0.00685913 -0.0108469 0)
(-0.0225002 -0.0384696 0)
(-0.0765523 -0.0101489 0)
(0.93527 -0.270309 0)
(0.364753 -0.0748329 0)
(0.212107 -0.0304858 0)
(0.0888308 -0.000519213 0)
(0.250562 0.782936 0)
(-0.354983 0.0389321 0)
(-0.257436 0.0456562 0)
(-0.0929572 0.0958924 0)
(-0.136843 0.0641719 0)
(-0.26235 -0.00176712 0)
(-0.22304 0.0822216 0)
(-0.137424 0.016223 0)
(-0.0490124 -0.02682 0)
(0.00756529 -0.0277703 0)
(0.132731 -0.0543062 0)
(0.237292 -0.116015 0)
(0.177243 -0.0928176 0)
(0.108006 -0.0754263 0)
(0.127294 -0.145309 0)
(0.0507927 -0.124167 0)
(-0.0323567 -0.0664458 0)
(-0.116078 -0.0237691 0)
(-0.151131 -0.00568813 0)
(-0.162264 0.0158579 0)
(-0.168742 -0.0139469 0)
(-0.150084 0.00372668 0)
(-0.129372 0.0770201 0)
(-0.0339554 -0.0156619 0)
(-0.0784806 -0.0367231 0)
(-0.193384 -0.0397222 0)
(0.547086 -0.186612 0)
(0.15516 -0.0429229 0)
(0.0544511 -0.023648 0)
(0.0110998 0.00551021 0)
(0.195714 0.715793 0)
(0.130635 -0.0504474 0)
(-0.349825 0.123492 0)
(-0.122484 0.0775164 0)
(-0.129128 0.0852112 0)
(-0.263308 0.00226038 0)
(-0.182724 0.0531361 0)
(-0.148584 -0.000254577 0)
(0.0334009 -0.0651958 0)
(0.0435967 -0.046626 0)
(0.213296 -0.0434668 0)
(0.388425 -0.155048 0)
(0.369128 -0.0277235 0)
(0.201566 -0.0259182 0)
(0.104103 -0.113241 0)
(-0.029147 -0.036815 0)
(-0.150688 0.0104 0)
(-0.220527 0.0188275 0)
(-0.257096 0.00699304 0)
(-0.254518 0.000223793 0)
(-0.225073 -0.0402782 0)
(-0.211915 0.00519112 0)
(0.000204711 -0.000239144 0)
(0.00133622 -0.000239279 0)
(0.00259597 -0.000241385 0)
(0.00400474 -0.000245209 0)
(0.00558584 -0.000249642 0)
(0.00735726 -0.000252874 0)
(0.00932607 -0.000252814 0)
(0.0114814 -0.000248279 0)
(0.0137978 -0.000238708 0)
(0.0162323 -0.000225232 0)
(0.0187301 -0.000208217 0)
(0.0212163 -0.000188241 0)
(0.0235856 -0.000164638 0)
(0.0256971 -0.000138216 0)
(0.0273947 -0.000111905 0)
(0.0285631 -9.13689e-05 0)
(0.0291295 -7.47067e-05 0)
(0.028831 -4.22146e-05 0)
(0.0267324 4.57078e-05 0)
(0.0208418 0.000226423 0)
(0.00892451 0.00046523 0)
(-0.00816034 0.000581655 0)
(-0.0241168 0.000430886 0)
(-0.0327776 0.000160802 0)
(-0.0342058 1.63517e-05 0)
(-0.0322503 -2.00726e-05 0)
(-0.0290506 -4.62699e-05 0)
(-0.0236217 -9.16131e-05 0)
(-0.015245 -0.000136099 0)
(-0.00535047 -0.000127538 0)
(0.000329026 -0.00260367 0)
(0.00231833 -0.00261402 0)
(0.00454979 -0.0026376 0)
(0.00706859 -0.00267308 0)
(0.00992474 -0.00271131 0)
(0.0131599 -0.00273639 0)
(0.0167984 -0.00273034 0)
(0.0208306 -0.00267941 0)
(0.0252184 -0.00257648 0)
(0.0298884 -0.00241945 0)
(0.0347277 -0.00220365 0)
(0.0395556 -0.00191798 0)
(0.0440654 -0.00154161 0)
(0.047736 -0.00105891 0)
(0.0497539 -0.000477498 0)
(0.0490484 0.000161527 0)
(0.0444231 0.000858388 0)
(0.0347268 0.00168742 0)
(0.0190798 0.00277219 0)
(-0.00291451 0.00401524 0)
(-0.029111 0.00464717 0)
(-0.0531042 0.00378448 0)
(-0.0674336 0.00179508 0)
(-0.069075 8.15046e-05 0)
(-0.0624377 -0.000639563 0)
(-0.0524786 -0.000791671 0)
(-0.0401543 -0.00101058 0)
(-0.0252218 -0.0012166 0)
(-0.00869011 -0.00126665 0)
(0.0013153 -0.00050811 0)
(-0.000104416 -0.00472359 0)
(0.00140448 -0.00476996 0)
(0.00313423 -0.00485218 0)
(0.00513775 -0.00496601 0)
(0.00746747 -0.00509006 0)
(0.0101572 -0.00518645 0)
(0.0132092 -0.00521409 0)
(0.0165841 -0.0051441 0)
(0.0202144 -0.00496464 0)
(0.0240086 -0.00467413 0)
(0.0278498 -0.00426634 0)
(0.031575 -0.00371485 0)
(0.0349216 -0.00296328 0)
(0.0374238 -0.00193284 0)
(0.0382652 -0.000568333 0)
(0.0362083 0.00109966 0)
(0.0297874 0.00297883 0)
(0.018029 0.00490575 0)
(0.00112923 0.00681087 0)
(-0.0197092 0.00841128 0)
(-0.0419624 0.00861794 0)
(-0.0614137 0.00642586 0)
(-0.0720909 0.00256976 0)
(-0.0710137 -0.000519705 0)
(-0.0624572 -0.00174387 0)
(-0.050992 -0.00197925 0)
(-0.0373937 -0.00233236 0)
(-0.0214951 -0.00257755 0)
(-0.00466175 -0.00243552 0)
(0.00403984 -0.000570835 0)
(-0.000113159 -0.00658526 0)
(0.00149617 -0.00668516 0)
(0.00333097 -0.00684179 0)
(0.00542551 -0.00704063 0)
(0.00780402 -0.00724149 0)
(0.0104672 -0.00738151 0)
(0.0133871 -0.00739862 0)
(0.0165031 -0.00725565 0)
(0.0197349 -0.00694442 0)
(0.0229797 -0.00646985 0)
(0.0261045 -0.00582646 0)
(0.028919 -0.00497768 0)
(0.0311299 -0.00384156 0)
(0.0322734 -0.00228973 0)
(0.0316462 -0.000216115 0)
(0.0283507 0.00235807 0)
(0.0214996 0.00523505 0)
(0.010589 0.00801379 0)
(-0.0043295 0.0104581 0)
(-0.0226876 0.0122102 0)
(-0.0431356 0.0120799 0)
(-0.0619463 0.00876931 0)
(-0.0723179 0.00315198 0)
(-0.0707731 -0.00123885 0)
(-0.0618812 -0.00292277 0)
(-0.0502969 -0.00320436 0)
(-0.0366675 -0.00368859 0)
(-0.0207054 -0.00395285 0)
(-0.00376785 -0.00359739 0)
(0.00484082 -0.000531555 0)
(-9.43782e-06 -0.00875905 0)
(0.00189257 -0.00889847 0)
(0.00402181 -0.0090914 0)
(0.00638307 -0.00931148 0)
(0.00896608 -0.00950502 0)
(0.0117445 -0.00959874 0)
(0.0146823 -0.00952493 0)
(0.017731 -0.00924761 0)
(0.0208328 -0.00876174 0)
(0.0239059 -0.00807185 0)
(0.0268289 -0.00716384 0)
(0.0294052 -0.00598478 0)
(0.0313136 -0.00442139 0)
(0.0320229 -0.00230621 0)
(0.0307727 0.000473903 0)
(0.0268064 0.00382437 0)
(0.0196999 0.00743686 0)
(0.00927762 0.0108406 0)
(-0.00474426 0.0137703 0)
(-0.022548 0.0158071 0)
(-0.0432463 0.0155318 0)
(-0.0626358 0.0111379 0)
(-0.0731094 0.00369378 0)
(-0.0710882 -0.00200287 0)
(-0.0618907 -0.00412429 0)
(-0.0502436 -0.00442465 0)
(-0.0366202 -0.00505291 0)
(-0.020622 -0.00533322 0)
(-0.00352157 -0.00477437 0)
(0.00524125 -0.000470707 0)
(-2.1313e-05 -0.0112439 0)
(0.00206027 -0.011408 0)
(0.0043792 -0.0116013 0)
(0.00692366 -0.0117843 0)
(0.00966122 -0.0118973 0)
(0.0125454 -0.0118713 0)
(0.0155335 -0.01165 0)
(0.0185867 -0.0112053 0)
(0.0216681 -0.0105323 0)
(0.0247187 -0.00962828 0)
(0.0276352 -0.00846361 0)
(0.0302388 -0.00696141 0)
(0.0322148 -0.00496639 0)
(0.0329926 -0.00225567 0)
(0.0316982 0.0012779 0)
(0.0275293 0.00539511 0)
(0.020229 0.00964223 0)
(0.00980177 0.0135811 0)
(-0.00415695 0.0170166 0)
(-0.0222052 0.0194516 0)
(-0.0435793 0.0191037 0)
(-0.0637144 0.0135679 0)
(-0.0742523 0.00417911 0)
(-0.0715615 -0.00282196 0)
(-0.0619895 -0.00535125 0)
(-0.0502679 -0.00563731 0)
(-0.0366538 -0.00642665 0)
(-0.0206221 -0.00671867 0)
(-0.0033241 -0.00597244 0)
(0.00565621 -0.000401373 0)
(-0.000169241 -0.0138736 0)
(0.00199011 -0.0140747 0)
(0.00441841 -0.0142701 0)
(0.00709728 -0.0144017 0)
(0.0099752 -0.0144023 0)
(0.0129826 -0.0142164 0)
(0.0160628 -0.0138118 0)
(0.0191784 -0.0131777 0)
(0.0223049 -0.0123106 0)
(0.0254006 -0.0111963 0)
(0.0283795 -0.00978719 0)
(0.0310886 -0.00798031 0)
(0.033236 -0.0055707 0)
(0.034229 -0.00225078 0)
(0.0330571 0.00209015 0)
(0.0288151 0.00701577 0)
(0.0213208 0.0118898 0)
(0.0107099 0.0163382 0)
(-0.00342866 0.0202988 0)
(-0.0218866 0.0231981 0)
(-0.0440442 0.022822 0)
(-0.0650825 0.0160667 0)
(-0.0756753 0.00458491 0)
(-0.0721108 -0.00370711 0)
(-0.0621058 -0.00660922 0)
(-0.0502977 -0.00683901 0)
(-0.0366986 -0.00781287 0)
(-0.0206298 -0.00810946 0)
(-0.0030909 -0.00719624 0)
(0.00616908 -0.000323982 0)
(-0.000448159 -0.0165523 0)
(0.00176206 -0.0168368 0)
(0.00430508 -0.017074 0)
(0.00714908 -0.0171673 0)
(0.0102048 -0.0170377 0)
(0.0133645 -0.0166574 0)
(0.0165588 -0.0160371 0)
(0.0197578 -0.0151923 0)
(0.0229526 -0.014122 0)
(0.0261181 -0.0127992 0)
(0.0291883 -0.0111556 0)
(0.0320324 -0.00906455 0)
(0.0344026 -0.00626622 0)
(0.0356864 -0.00232487 0)
(0.0346717 0.00289283 0)
(0.0303238 0.00868487 0)
(0.0225793 0.0141964 0)
(0.0117349 0.0191384 0)
(-0.00261816 0.0236362 0)
(-0.0215299 0.0270612 0)
(-0.0445934 0.0267147 0)
(-0.0667505 0.0186463 0)
(-0.0773928 0.00488713 0)
(-0.07271 -0.00466667 0)
(-0.0622328 -0.00790383 0)