/*--------------------------------*- C++ -*----------------------------------*\
| =========                 |                                                 |
| \\      /  F ield         | OpenFOAM: The Open Source CFD Toolbox           |
|  \\    /   O peration     | Version:  2.4.0                                 |
|   \\  /    A nd           | Web:      www.OpenFOAM.org                      |
|    \\/     M anipulation  |                                                 |
\*---------------------------------------------------------------------------*/
FoamFile
{
    version     2.0;
    format      ascii;
    class       volScalarField;
    location    "0.009";
    object      p;
}
// * * * * * * * * * * * * * * * * * * * * * * * * * * * * * * * * * * * * * //

dimensions      [1 -1 -2 0 0 0 0];

internalField   nonuniform List<scalar> 
60000
(
97.0271
97.0271
97.0271
97.0271
97.0271
97.0271
97.0271
97.0271
97.0271
97.0271
97.0271
97.0271
97.0271
97.0271
97.0271
97.0271
97.0271
97.0271
97.0271
97.0271
97.0271
97.0271
97.0271
97.0271
97.0271
97.0271
97.0271
97.0271
97.0271
97.0271
97.0271
97.0271
97.0271
97.0272
97.0272
97.0272
97.0272
97.0272
97.0272
97.0272
97.0272
97.0272
97.0273
97.0273
97.0273
97.0273
97.0273
97.0273
97.0273
97.0274
97.0274
97.0274
97.0274
97.0274
97.0275
97.0275
97.0275
97.0275
97.0276
97.0276
97.0276
97.0277
97.0277
97.0277
97.0277
97.0278
97.0278
97.0278
97.0279
97.0279
97.028
97.028
97.028
97.0281
97.0281
97.0281
97.0282
97.0282
97.0282
97.0282
97.0283
97.0283
97.0283
97.0283
97.0283
97.0283
97.0283
97.0283
97.0283
97.0283
97.0282
97.0282
97.0281
97.0281
97.028
97.028
97.0279
97.0278
97.0278
97.0276
95.0651
95.0651
95.0651
95.0651
95.0651
95.0651
95.0651
95.0651
95.0651
95.0651
95.0651
95.0651
95.0651
95.0651
95.0651
95.0651
95.0651
95.0651
95.0651
95.0651
95.0651
95.0651
95.0651
95.0651
95.0651
95.0651
95.0651
95.0651
95.0651
95.0651
95.0651
95.0651
95.0651
95.0652
95.0652
95.0652
95.0652
95.0652
95.0652
95.0652
95.0652
95.0652
95.0653
95.0653
95.0653
95.0653
95.0653
95.0653
95.0654
95.0654
95.0654
95.0654
95.0654
95.0654
95.0655
95.0655
95.0655
95.0655
95.0656
95.0656
95.0656
95.0657
95.0657
95.0657
95.0657
95.0658
95.0658
95.0658
95.0659
95.0659
95.066
95.066
95.066
95.0661
95.0661
95.0661
95.0662
95.0662
95.0662
95.0662
95.0663
95.0663
95.0663
95.0663
95.0663
95.0663
95.0663
95.0663
95.0663
95.0663
95.0662
95.0662
95.0661
95.0661
95.066
95.066
95.0659
95.0658
95.0658
95.0656
93.1031
93.1031
93.1031
93.1031
93.1031
93.1031
93.1031
93.1031
93.1031
93.1031
93.1031
93.1031
93.1031
93.1031
93.1031
93.1031
93.1031
93.1031
93.1031
93.1031
93.1031
93.1031
93.1031
93.1031
93.1031
93.1031
93.1031
93.1031
93.1031
93.1031
93.1031
93.1031
93.1031
93.1032
93.1032
93.1032
93.1032
93.1032
93.1032
93.1032
93.1032
93.1032
93.1033
93.1033
93.1033
93.1033
93.1033
93.1033
93.1034
93.1034
93.1034
93.1034
93.1034
93.1035
93.1035
93.1035
93.1035
93.1035
93.1036
93.1036
93.1036
93.1037
93.1037
93.1037
93.1038
93.1038
93.1038
93.1039
93.1039
93.1039
93.104
93.104
93.104
93.1041
93.1041
93.1041
93.1042
93.1042
93.1042
93.1043
93.1043
93.1043
93.1043
93.1043
93.1043
93.1043
93.1043
93.1043
93.1043
93.1043
93.1042
93.1042
93.1042
93.1041
93.104
93.104
93.1039
93.1038
93.1038
93.1037
91.1411
91.1411
91.1411
91.1411
91.1411
91.1411
91.1411
91.1411
91.1411
91.1411
91.1411
91.1411
91.1411
91.1411
91.1411
91.1411
91.1411
91.1411
91.1411
91.1411
91.1411
91.1411
91.1411
91.1411
91.1411
91.1411
91.1411
91.1411
91.1411
91.1411
91.1411
91.1411
91.1411
91.1412
91.1412
91.1412
91.1412
91.1412
91.1412
91.1412
91.1412
91.1412
91.1413
91.1413
91.1413
91.1413
91.1413
91.1413
91.1414
91.1414
91.1414
91.1414
91.1414
91.1415
91.1415
91.1415
91.1415
91.1416
91.1416
91.1416
91.1416
91.1417
91.1417
91.1417
91.1418
91.1418
91.1418
91.1419
91.1419
91.1419
91.142
91.142
91.142
91.1421
91.1421
91.1421
91.1422
91.1422
91.1422
91.1423
91.1423
91.1423
91.1423
91.1423
91.1424
91.1424
91.1423
91.1423
91.1423
91.1423
91.1423
91.1422
91.1422
91.1421
91.1421
91.142
91.1419
91.1418
91.1419
91.1417
89.1791
89.1791
89.1791
89.1791
89.1791
89.1791
89.1791
89.1791
89.1791
89.1791
89.1791
89.1791
89.1791
89.1791
89.1791
89.1791
89.1791
89.1791
89.1791
89.1791
89.1791
89.1791
89.1791
89.1791
89.1791
89.1791
89.1791
89.1791
89.1791
89.1791
89.1791
89.1791
89.1791
89.1792
89.1792
89.1792
89.1792
89.1792
89.1792
89.1792
89.1792
89.1792
89.1793
89.1793
89.1793
89.1793
89.1793
89.1793
89.1794
89.1794
89.1794
89.1794
89.1794
89.1795
89.1795
89.1795
89.1795
89.1796
89.1796
89.1796
89.1796
89.1797
89.1797
89.1797
89.1798
89.1798
89.1798
89.1799
89.1799
89.1799
89.18
89.18
89.18
89.1801
89.1801
89.1802
89.1802
89.1802
89.1803
89.1803
89.1803
89.1803
89.1803
89.1804
89.1804
89.1804
89.1804
89.1804
89.1803
89.1803
89.1803
89.1802
89.1802
89.1801
89.1801
89.18
89.1799
89.1798
89.1799
89.1797
87.2171
87.2171
87.2171
87.2171
87.2171
87.2171
87.2171
87.2171
87.2171
87.2171
87.2171
87.2171
87.2171
87.2171
87.2171
87.2171
87.2171
87.2171
87.2171
87.2171
87.2171
87.2171
87.2171
87.2171
87.2171
87.2171
87.2171
87.2171
87.2171
87.2171
87.2171
87.2171
87.2171
87.2172
87.2172
87.2172
87.2172
87.2172
87.2172
87.2172
87.2172
87.2172
87.2173
87.2173
87.2173
87.2173
87.2173
87.2173
87.2174
87.2174
87.2174
87.2174
87.2174
87.2175
87.2175
87.2175
87.2175
87.2176
87.2176
87.2176
87.2176
87.2177
87.2177
87.2177
87.2178
87.2178
87.2178
87.2179
87.2179
87.2179
87.218
87.218
87.2181
87.2181
87.2181
87.2182
87.2182
87.2182
87.2183
87.2183
87.2183
87.2183
87.2184
87.2184
87.2184
87.2184
87.2184
87.2184
87.2184
87.2183
87.2183
87.2183
87.2182
87.2181
87.2181
87.218
87.2179
87.2178
87.2179
87.2177
85.2551
85.2551
85.2551
85.2551
85.2551
85.2551
85.2551
85.2551
85.2551
85.2551
85.2551
85.2551
85.2551
85.2551
85.2551
85.2551
85.2551
85.2551
85.2551
85.2551
85.2551
85.2551
85.2551
85.2551
85.2551
85.2551
85.2551
85.2551
85.2551
85.2551
85.2551
85.2551
85.2551
85.2552
85.2552
85.2552
85.2552
85.2552
85.2552
85.2552
85.2552
85.2553
85.2553
85.2553
85.2553
85.2553
85.2553
85.2553
85.2554
85.2554
85.2554
85.2554
85.2554
85.2555
85.2555
85.2555
85.2555
85.2556
85.2556
85.2556
85.2556
85.2557
85.2557
85.2557
85.2558
85.2558
85.2558
85.2559
85.2559
85.256
85.256
85.256
85.2561
85.2561
85.2561
85.2562
85.2562
85.2562
85.2563
85.2563
85.2563
85.2564
85.2564
85.2564
85.2564
85.2564
85.2564
85.2564
85.2564
85.2563
85.2563
85.2563
85.2562
85.2562
85.2561
85.256
85.2559
85.2558
85.2559
85.2557
83.2931
83.2931
83.2931
83.2931
83.2931
83.2931
83.2931
83.2931
83.2931
83.2931
83.2931
83.2931
83.2931
83.2931
83.2931
83.2931
83.2931
83.2931
83.2931
83.2931
83.2931
83.2931
83.2931
83.2931
83.2931
83.2931
83.2931
83.2931
83.2931
83.2931
83.2931
83.2931
83.2931
83.2932
83.2932
83.2932
83.2932
83.2932
83.2932
83.2932
83.2932
83.2933
83.2933
83.2933
83.2933
83.2933
83.2933
83.2933
83.2934
83.2934
83.2934
83.2934
83.2934
83.2935
83.2935
83.2935
83.2935
83.2936
83.2936
83.2936
83.2937
83.2937
83.2937
83.2937
83.2938
83.2938
83.2938
83.2939
83.2939
83.294
83.294
83.294
83.2941
83.2941
83.2941
83.2942
83.2942
83.2942
83.2943
83.2943
83.2943
83.2944
83.2944
83.2944
83.2944
83.2944
83.2944
83.2944
83.2944
83.2944
83.2943
83.2943
83.2942
83.2942
83.2941
83.294
83.294
83.2938
83.2939
83.2937
81.3311
81.3311
81.3311
81.3311
81.3311
81.3311
81.3311
81.3311
81.3311
81.3311
81.3311
81.3311
81.3311
81.3311
81.3311
81.3311
81.3311
81.3311
81.3311
81.3311
81.3311
81.3311
81.3311
81.3311
81.3311
81.3311
81.3311
81.3311
81.3311
81.3311
81.3311
81.3311
81.3311
81.3312
81.3312
81.3312
81.3312
81.3312
81.3312
81.3312
81.3312
81.3313
81.3313
81.3313
81.3313
81.3313
81.3313
81.3313
81.3314
81.3314
81.3314
81.3314
81.3314
81.3315
81.3315
81.3315
81.3315
81.3316
81.3316
81.3316
81.3317
81.3317
81.3317
81.3318
81.3318
81.3318
81.3319
81.3319
81.3319
81.332
81.332
81.332
81.3321
81.3321
81.3322
81.3322
81.3322
81.3323
81.3323
81.3323
81.3324
81.3324
81.3324
81.3324
81.3324
81.3324
81.3324
81.3324
81.3324
81.3324
81.3324
81.3323
81.3323
81.3322
81.3321
81.3321
81.332
81.3319
81.3319
81.3317
79.3691
79.3691
79.3691
79.3691
79.3691
79.3691
79.3691
79.3691
79.3691
79.3691
79.3691
79.3691
79.3691
79.3691
79.3691
79.3691
79.3691
79.3691
79.3691
79.3691
79.3691
79.3691
79.3691
79.3691
79.3691
79.3691
79.3691
79.3691
79.3691
79.3691
79.3691
79.3691
79.3692
79.3692
79.3692
79.3692
79.3692
79.3692
79.3692
79.3692
79.3692
79.3693
79.3693
79.3693
79.3693
79.3693
79.3693
79.3693
79.3694
79.3694
79.3694
79.3694
79.3695
79.3695
79.3695
79.3695
79.3695
79.3696
79.3696
79.3696
79.3697
79.3697
79.3697
79.3698
79.3698
79.3698
79.3699
79.3699
79.3699
79.37
79.37
79.37
79.3701
79.3701
79.3702
79.3702
79.3702
79.3703
79.3703
79.3703
79.3704
79.3704
79.3704
79.3704
79.3705
79.3705
79.3705
79.3705
79.3704
79.3704
79.3704
79.3703
79.3703
79.3702
79.3702
79.3701
79.37
79.3699
79.3699
79.3697
77.4071
77.4071
77.4071
77.4071
77.4071
77.4071
77.4071
77.4071
77.4071
77.4071
77.4071
77.4071
77.4071
77.4071
77.4071
77.4071
77.4071
77.4071
77.4071
77.4071
77.4071
77.4071
77.4071
77.4071
77.4071
77.4071
77.4071
77.4071
77.4071
77.4071
77.4071
77.4071
77.4072
77.4072
77.4072
77.4072
77.4072
77.4072
77.4072
77.4072
77.4072
77.4073
77.4073
77.4073
77.4073
77.4073
77.4073
77.4074
77.4074
77.4074
77.4074
77.4074
77.4075
77.4075
77.4075
77.4075
77.4076
77.4076
77.4076
77.4076
77.4077
77.4077
77.4077
77.4078
77.4078
77.4078
77.4079
77.4079
77.4079
77.408
77.408
77.4081
77.4081
77.4081
77.4082
77.4082
77.4082
77.4083
77.4083
77.4084
77.4084
77.4084
77.4084
77.4085
77.4085
77.4085
77.4085
77.4085
77.4085
77.4084
77.4084
77.4084
77.4083
77.4083
77.4082
77.4081
77.408
77.4079
77.4079
77.4077
75.4451
75.4451
75.4451
75.4451
75.4451
75.4451
75.4451
75.4451
75.4451
75.4451
75.4451
75.4451
75.4451
75.4451
75.4451
75.4451
75.4451
75.4451
75.4451
75.4451
75.4451
75.4451
75.4451
75.4451
75.4451
75.4451
75.4451
75.4451
75.4451
75.4451
75.4451
75.4451
75.4452
75.4452
75.4452
75.4452
75.4452
75.4452
75.4452
75.4452
75.4452
75.4453
75.4453
75.4453
75.4453
75.4453
75.4453
75.4454
75.4454
75.4454
75.4454
75.4454
75.4455
75.4455
75.4455
75.4455
75.4456
75.4456
75.4456
75.4456
75.4457
75.4457
75.4457
75.4458
75.4458
75.4458
75.4459
75.4459
75.4459
75.446
75.446
75.4461
75.4461
75.4461
75.4462
75.4462
75.4463
75.4463
75.4463
75.4464
75.4464
75.4464
75.4465
75.4465
75.4465
75.4465
75.4465
75.4465
75.4465
75.4465
75.4464
75.4464
75.4463
75.4463
75.4462
75.4461
75.446
75.4459
75.4459
75.4457
73.4831
73.4831
73.4831
73.4831
73.4831
73.4831
73.4831
73.4831
73.4831
73.4831
73.4831
73.4831
73.4831
73.4831
73.4831
73.4831
73.4831
73.4831
73.4831
73.4831
73.4831
73.4831
73.4831
73.4831
73.4831
73.4831
73.4831
73.4831
73.4831
73.4831
73.4831
73.4831
73.4832
73.4832
73.4832
73.4832
73.4832
73.4832
73.4832
73.4832
73.4832
73.4833
73.4833
73.4833
73.4833
73.4833
73.4833
73.4834
73.4834
73.4834
73.4834
73.4834
73.4835
73.4835
73.4835
73.4835
73.4836
73.4836
73.4836
73.4836
73.4837
73.4837
73.4837
73.4838
73.4838
73.4838
73.4839
73.4839
73.4839
73.484
73.484
73.4841
73.4841
73.4841
73.4842
73.4842
73.4843
73.4843
73.4843
73.4844
73.4844
73.4844
73.4845
73.4845
73.4845
73.4845
73.4845
73.4845
73.4845
73.4845
73.4845
73.4844
73.4844
73.4843
73.4842
73.4841
73.484
73.4839
73.4839
73.4837
71.5211
71.5211
71.5211
71.5211
71.5211
71.5211
71.5211
71.5211
71.5211
71.5211
71.5211
71.5211
71.5211
71.5211
71.5211
71.5211
71.5211
71.5211
71.5211
71.5211
71.5211
71.5211
71.5211
71.5211
71.5211
71.5211
71.5211
71.5211
71.5211
71.5211
71.5211
71.5211
71.5212
71.5212
71.5212
71.5212
71.5212
71.5212
71.5212
71.5212
71.5212
71.5213
71.5213
71.5213
71.5213
71.5213
71.5213
71.5214
71.5214
71.5214
71.5214
71.5214
71.5215
71.5215
71.5215
71.5215
71.5216
71.5216
71.5216
71.5216
71.5217
71.5217
71.5217
71.5218
71.5218
71.5218
71.5219
71.5219
71.522
71.522
71.522
71.5221
71.5221
71.5222
71.5222
71.5222
71.5223
71.5223
71.5224
71.5224
71.5224
71.5225
71.5225
71.5225
71.5225
71.5226
71.5226
71.5226
71.5226
71.5225
71.5225
71.5225
71.5224
71.5223
71.5223
71.5222
71.5221
71.5219
71.5219
71.5217
69.5591
69.5591
69.5591
69.5591
69.5591
69.5591
69.5591
69.5591
69.5591
69.5591
69.5591
69.5591
69.5591
69.5591
69.5591
69.5591
69.5591
69.5591
69.5591
69.5591
69.5591
69.5591
69.5591
69.5591
69.5591
69.5591
69.5591
69.5591
69.5591
69.5591
69.5591
69.5591
69.5592
69.5592
69.5592
69.5592
69.5592
69.5592
69.5592
69.5592
69.5592
69.5593
69.5593
69.5593
69.5593
69.5593
69.5593
69.5594
69.5594
69.5594
69.5594
69.5594
69.5595
69.5595
69.5595
69.5595
69.5596
69.5596
69.5596
69.5596
69.5597
69.5597
69.5597
69.5598
69.5598
69.5598
69.5599
69.5599
69.56
69.56
69.56
69.5601
69.5601
69.5602
69.5602
69.5602
69.5603
69.5603
69.5604
69.5604
69.5604
69.5605
69.5605
69.5605
69.5606
69.5606
69.5606
69.5606
69.5606
69.5606
69.5606
69.5605
69.5605
69.5604
69.5603
69.5602
69.5601
69.5599
69.5599
69.5597
67.5971
67.5971
67.5971
67.5971
67.5971
67.5971
67.5971
67.5971
67.5971
67.5971
67.5971
67.5971
67.5971
67.5971
67.5971
67.5971
67.5971
67.5971
67.5971
67.5971
67.5971
67.5971
67.5971
67.5971
67.5971
67.5971
67.5971
67.5971
67.5971
67.5971
67.5971
67.5971
67.5972
67.5972
67.5972
67.5972
67.5972
67.5972
67.5972
67.5972
67.5972
67.5973
67.5973
67.5973
67.5973
67.5973
67.5973
67.5974
67.5974
67.5974
67.5974
67.5974
67.5975
67.5975
67.5975
67.5975
67.5976
67.5976
67.5976
67.5977
67.5977
67.5977
67.5977
67.5978
67.5978
67.5979
67.5979
67.5979
67.598
67.598
67.598
67.5981
67.5981
67.5982
67.5982
67.5983
67.5983
67.5983
67.5984
67.5984
67.5985
67.5985
67.5985
67.5986
67.5986
67.5986
67.5986
67.5986
67.5986
67.5986
67.5986
67.5986
67.5985
67.5984
67.5983
67.5982
67.5981
67.598
67.5979
67.5977
65.6351
65.6351
65.6351
65.6351
65.6351
65.6351
65.6351
65.6351
65.6351
65.6351
65.6351
65.6351
65.6351
65.6351
65.6351
65.6351
65.6351
65.6351
65.6351
65.6351
65.6351
65.6351
65.6351
65.6351
65.6351
65.6351
65.6351
65.6351
65.6351
65.6351
65.6351
65.6351
65.6352
65.6352
65.6352
65.6352
65.6352
65.6352
65.6352
65.6352
65.6352
65.6353
65.6353
65.6353
65.6353
65.6353
65.6353
65.6354
65.6354
65.6354
65.6354
65.6354
65.6355
65.6355
65.6355
65.6355
65.6356
65.6356
65.6356
65.6357
65.6357
65.6357
65.6357
65.6358
65.6358
65.6359
65.6359
65.6359
65.636
65.636
65.6361
65.6361
65.6361
65.6362
65.6362
65.6363
65.6363
65.6364
65.6364
65.6364
65.6365
65.6365
65.6366
65.6366
65.6366
65.6367
65.6367
65.6367
65.6367
65.6367
65.6366
65.6366
65.6365
65.6365
65.6364
65.6363
65.6361
65.636
65.6359
65.6357
63.6731
63.6731
63.6731
63.6731
63.6731
63.6731
63.6731
63.6731
63.6731
63.6731
63.6731
63.6731
63.6731
63.6731
63.6731
63.6731
63.6731
63.6731
63.6731
63.6731
63.6731
63.6731
63.6731
63.6731
63.6731
63.6731
63.6731
63.6731
63.6731
63.6731
63.6731
63.6731
63.6732
63.6732
63.6732
63.6732
63.6732
63.6732
63.6732
63.6732
63.6732
63.6733
63.6733
63.6733
63.6733
63.6733
63.6733
63.6734
63.6734
63.6734
63.6734
63.6734
63.6735
63.6735
63.6735
63.6735
63.6736
63.6736
63.6736
63.6737
63.6737
63.6737
63.6738
63.6738
63.6738
63.6739
63.6739
63.6739
63.674
63.674
63.6741
63.6741
63.6741
63.6742
63.6742
63.6743
63.6743
63.6744
63.6744
63.6745
63.6745
63.6746
63.6746
63.6746
63.6747
63.6747
63.6747
63.6747
63.6747
63.6747
63.6747
63.6747
63.6746
63.6745
63.6744
63.6743
63.6742
63.674
63.674
63.6737
61.7111
61.7111
61.7111
61.7111
61.7111
61.7111
61.7111
61.7111
61.7111
61.7111
61.7111
61.7111
61.7111
61.7111
61.7111
61.7111
61.7111
61.7111
61.7111
61.7111
61.7111
61.7111
61.7111
61.7111
61.7111
61.7111
61.7111
61.7111
61.7111
61.7111
61.7111
61.7111
61.7112
61.7112
61.7112
61.7112
61.7112
61.7112
61.7112
61.7112
61.7112
61.7113
61.7113
61.7113
61.7113
61.7113
61.7113
61.7114
61.7114
61.7114
61.7114
61.7114
61.7115
61.7115
61.7115
61.7115
61.7116
61.7116
61.7116
61.7117
61.7117
61.7117
61.7118
61.7118
61.7118
61.7119
61.7119
61.7119
61.712
61.712
61.7121
61.7121
61.7122
61.7122
61.7122
61.7123
61.7123
61.7124
61.7124
61.7125
61.7125
61.7126
61.7126
61.7127
61.7127
61.7127
61.7128
61.7128
61.7128
61.7128
61.7128
61.7127
61.7127
61.7126
61.7125
61.7123
61.7122
61.712
61.712
61.7117
59.7491
59.7491
59.7491
59.7491
59.7491
59.7491
59.7491
59.7491
59.7491
59.7491
59.7491
59.7491
59.7491
59.7491
59.7491
59.7491
59.7491
59.7491
59.7491
59.7491
59.7491
59.7491
59.7491
59.7491
59.7491
59.7491
59.7491
59.7491
59.7491
59.7491
59.7491
59.7492
59.7492
59.7492
59.7492
59.7492
59.7492
59.7492
59.7492
59.7492
59.7492
59.7493
59.7493
59.7493
59.7493
59.7493
59.7493
59.7494
59.7494
59.7494
59.7494
59.7494
59.7495
59.7495
59.7495
59.7495
59.7496
59.7496
59.7496
59.7497
59.7497
59.7497
59.7498
59.7498
59.7498
59.7499
59.7499
59.7499
59.75
59.75
59.7501
59.7501
59.7502
59.7502
59.7503
59.7503
59.7504
59.7504
59.7504
59.7505
59.7505
59.7506
59.7506
59.7507
59.7507
59.7508
59.7508
59.7508
59.7508
59.7508
59.7508
59.7508
59.7507
59.7506
59.7505
59.7504
59.7502
59.7501
59.75
59.7497
57.7871
57.7871
57.7871
57.7871
57.7871
57.7871
57.7871
57.7871
57.7871
57.7871
57.7871
57.7871
57.7871
57.7871
57.7871
57.7871
57.7871
57.7871
57.7871
57.7871
57.7871
57.7871
57.7871
57.7871
57.7871
57.7871
57.7871
57.7871
57.7871
57.7871
57.7871
57.7872
57.7872
57.7872
57.7872
57.7872
57.7872
57.7872
57.7872
57.7872
57.7872
57.7873
57.7873
57.7873
57.7873
57.7873
57.7873
57.7874
57.7874
57.7874
57.7874
57.7874
57.7875
57.7875
57.7875
57.7875
57.7876
57.7876
57.7876
57.7877
57.7877
57.7877
57.7878
57.7878
57.7878
57.7879
57.7879
57.7879
57.788
57.788
57.7881
57.7881
57.7882
57.7882
57.7883
57.7883
57.7884
57.7884
57.7885
57.7885
57.7886
57.7886
57.7887
57.7887
57.7888
57.7888
57.7888
57.7889
57.7889
57.7889
57.7889
57.7888
57.7888
57.7887
57.7886
57.7884
57.7883
57.7881
57.788
57.7877
55.8251
55.8251
55.8251
55.8251
55.8251
55.8251
55.8251
55.8251
55.8251
55.8251
55.8251
55.8251
55.8251
55.8251
55.8251
55.8251
55.8251
55.8251
55.8251
55.8251
55.8251
55.8251
55.8251
55.8251
55.8251
55.8251
55.8251
55.8251
55.8251
55.8251
55.8251
55.8252
55.8252
55.8252
55.8252
55.8252
55.8252
55.8252
55.8252
55.8252
55.8252
55.8253
55.8253
55.8253
55.8253
55.8253
55.8253
55.8254
55.8254
55.8254
55.8254
55.8254
55.8255
55.8255
55.8255
55.8255
55.8256
55.8256
55.8256
55.8257
55.8257
55.8257
55.8258
55.8258
55.8258
55.8259
55.8259
55.826
55.826
55.826
55.8261
55.8261
55.8262
55.8262
55.8263
55.8263
55.8264
55.8264
55.8265
55.8265
55.8266
55.8266
55.8267
55.8268
55.8268
55.8269
55.8269
55.8269
55.827
55.827
55.8269
55.8269
55.8269
55.8268
55.8267
55.8265
55.8263
55.8261
55.826
55.8257
53.8631
53.8631
53.8631
53.8631
53.8631
53.8631
53.8631
53.8631
53.8631
53.8631
53.8631
53.8631
53.8631
53.8631
53.8631
53.8631
53.8631
53.8631
53.8631
53.8631
53.8631
53.8631
53.8631
53.8631
53.8631
53.8631
53.8631
53.8631
53.8631
53.8631
53.8631
53.8632
53.8632
53.8632
53.8632
53.8632
53.8632
53.8632
53.8632
53.8632
53.8632
53.8633
53.8633
53.8633
53.8633
53.8633
53.8633
53.8634
53.8634
53.8634
53.8634
53.8634
53.8635
53.8635
53.8635
53.8635
53.8636
53.8636
53.8636
53.8637
53.8637
53.8637
53.8638
53.8638
53.8638
53.8639
53.8639
53.864
53.864
53.864
53.8641
53.8641
53.8642
53.8642
53.8643
53.8643
53.8644
53.8644
53.8645
53.8646
53.8646
53.8647
53.8647
53.8648
53.8648
53.8649
53.8649
53.865
53.865
53.865
53.865
53.865
53.8649
53.8648
53.8647
53.8646
53.8644
53.8642
53.8641
53.8637
51.9011
51.9011
51.9011
51.9011
51.9011
51.9011
51.9011
51.9011
51.9011
51.9011
51.9011
51.9011
51.9011
51.9011
51.9011
51.9011
51.9011
51.9011
51.9011
51.9011
51.9011
51.9011
51.9011
51.9011
51.9011
51.9011
51.9011
51.9011
51.9011
51.9011
51.9011
51.9012
51.9012
51.9012
51.9012
51.9012
51.9012
51.9012
51.9012
51.9012
51.9012
51.9013
51.9013
51.9013
51.9013
51.9013
51.9013
51.9014
51.9014
51.9014
51.9014
51.9014
51.9015
51.9015
51.9015
51.9015
51.9016
51.9016
51.9016
51.9017
51.9017
51.9017
51.9018
51.9018
51.9018
51.9019
51.9019
51.902
51.902
51.902
51.9021
51.9021
51.9022
51.9022
51.9023
51.9023
51.9024
51.9025
51.9025
51.9026
51.9026
51.9027
51.9028
51.9028
51.9029
51.9029
51.903
51.903
51.9031
51.9031
51.9031
51.9031
51.903
51.9029
51.9028
51.9026
51.9024
51.9022
51.9021
51.9017
49.9391
49.9391
49.9391
49.9391
49.9391
49.9391
49.9391
49.9391
49.9391
49.9391
49.9391
49.9391
49.9391
49.9391
49.9391
49.9391
49.9391
49.9391
49.9391
49.9391
49.9391
49.9391
49.9391
49.9391
49.9391
49.9391
49.9391
49.9391
49.9391
49.9391
49.9391
49.9392
49.9392
49.9392
49.9392
49.9392
49.9392
49.9392
49.9392
49.9392
49.9392
49.9393
49.9393
49.9393
49.9393
49.9393
49.9393
49.9394
49.9394
49.9394
49.9394
49.9394
49.9395
49.9395
49.9395
49.9395
49.9396
49.9396
49.9396
49.9397
49.9397
49.9397
49.9398
49.9398
49.9398
49.9399
49.9399
49.94
49.94
49.94
49.9401
49.9401
49.9402
49.9402
49.9403
49.9404
49.9404
49.9405
49.9405
49.9406
49.9407
49.9407
49.9408
49.9409
49.9409
49.941
49.9411
49.9411
49.9412
49.9412
49.9412
49.9412
49.9411
49.941
49.9409
49.9407
49.9405
49.9403
49.9401
49.9397
47.9771
47.9771
47.9771
47.9771
47.9771
47.9771
47.9771
47.9771
47.9771
47.9771
47.9771
47.9771
47.9771
47.9771
47.9771
47.9771
47.9771
47.9771
47.9771
47.9771
47.9771
47.9771
47.9771
47.9771
47.9771
47.9771
47.9771
47.9771
47.9771
47.9771
47.9771
47.9772
47.9772
47.9772
47.9772
47.9772
47.9772
47.9772
47.9772
47.9772
47.9772
47.9773
47.9773
47.9773
47.9773
47.9773
47.9773
47.9774
47.9774
47.9774
47.9774
47.9774
47.9775
47.9775
47.9775
47.9775
47.9776
47.9776
47.9776
47.9777
47.9777
47.9777
47.9778
47.9778
47.9778
47.9779
47.9779
47.978
47.978
47.9781
47.9781
47.9781
47.9782
47.9783
47.9783
47.9784
47.9784
47.9785
47.9785
47.9786
47.9787
47.9787
47.9788
47.9789
47.979
47.979
47.9791
47.9792
47.9792
47.9793
47.9793
47.9793
47.9792
47.9791
47.979
47.9788
47.9786
47.9783
47.9781
47.9777
46.0151
46.0151
46.0151
46.0151
46.0151
46.0151
46.0151
46.0151
46.0151
46.0151
46.0151
46.0151
46.0151
46.0151
46.0151
46.0151
46.0151
46.0151
46.0151
46.0151
46.0151
46.0151
46.0151
46.0151
46.0151
46.0151
46.0151
46.0151
46.0151
46.0151
46.0151
46.0152
46.0152
46.0152
46.0152
46.0152
46.0152
46.0152
46.0152
46.0152
46.0152
46.0153
46.0153
46.0153
46.0153
46.0153
46.0153
46.0154
46.0154
46.0154
46.0154
46.0154
46.0155
46.0155
46.0155
46.0155
46.0156
46.0156
46.0156
46.0157
46.0157
46.0157
46.0158
46.0158
46.0158
46.0159
46.0159
46.016
46.016
46.0161
46.0161
46.0162
46.0162
46.0163
46.0163
46.0164
46.0164
46.0165
46.0166
46.0166
46.0167
46.0168
46.0168
46.0169
46.017
46.0171
46.0172
46.0172
46.0173
46.0174
46.0174
46.0174
46.0173
46.0172
46.0171
46.0169
46.0167
46.0164
46.0162
46.0157
44.0531
44.0531
44.0531
44.0531
44.0531
44.0531
44.0531
44.0531
44.0531
44.0531
44.0531
44.0531
44.0531
44.0531
44.0531
44.0531
44.0531
44.0531
44.0531
44.0531
44.0531
44.0531
44.0531
44.0531
44.0531
44.0531
44.0531
44.0531
44.0531
44.0531
44.0531
44.0532
44.0532
44.0532
44.0532
44.0532
44.0532
44.0532
44.0532
44.0532
44.0532
44.0533
44.0533
44.0533
44.0533
44.0533
44.0533
44.0534
44.0534
44.0534
44.0534
44.0534
44.0535
44.0535
44.0535
44.0535
44.0536
44.0536
44.0536
44.0537
44.0537
44.0537
44.0538
44.0538
44.0538
44.0539
44.0539
44.054
44.054
44.0541
44.0541
44.0542
44.0542
44.0543
44.0543
44.0544
44.0544
44.0545
44.0546
44.0546
44.0547
44.0548
44.0549
44.0549
44.055
44.0551
44.0552
44.0553
44.0554
44.0555
44.0555
44.0555
44.0555
44.0554
44.0552
44.055
44.0548
44.0544
44.0542
44.0537
42.0911
42.0911
42.0911
42.0911
42.0911
42.0911
42.0911
42.0911
42.0911
42.0911
42.0911
42.0911
42.0911
42.0911
42.0911
42.0911
42.0911
42.0911
42.0911
42.0911
42.0911
42.0911
42.0911
42.0911
42.0911
42.0911
42.0911
42.0911
42.0911
42.0911
42.0911
42.0912
42.0912
42.0912
42.0912
42.0912
42.0912
42.0912
42.0912
42.0912
42.0912
42.0913
42.0913
42.0913
42.0913
42.0913
42.0913
42.0914
42.0914
42.0914
42.0914
42.0914
42.0915
42.0915
42.0915
42.0915
42.0916
42.0916
42.0916
42.0917
42.0917
42.0917
42.0918
42.0918
42.0918
42.0919
42.0919
42.092
42.092
42.0921
42.0921
42.0922
42.0922
42.0923
42.0923
42.0924
42.0924
42.0925
42.0926
42.0926
42.0927
42.0928
42.0929
42.093
42.0931
42.0932
42.0933
42.0934
42.0935
42.0936
42.0936
42.0936
42.0936
42.0935
42.0934
42.0931
42.0929
42.0925
42.0923
42.0917
40.1291
40.1291
40.1291
40.1291
40.1291
40.1291
40.1291
40.1291
40.1291
40.1291
40.1291
40.1291
40.1291
40.1291
40.1291
40.1291
40.1291
40.1291
40.1291
40.1291
40.1291
40.1291
40.1291
40.1291
40.1291
40.1291
40.1291
40.1291
40.1291
40.1291
40.1291
40.1292
40.1292
40.1292
40.1292
40.1292
40.1292
40.1292
40.1292
40.1292
40.1292
40.1293
40.1293
40.1293
40.1293
40.1293
40.1293
40.1294
40.1294
40.1294
40.1294
40.1294
40.1295
40.1295
40.1295
40.1295
40.1296
40.1296
40.1296
40.1297
40.1297
40.1297
40.1298
40.1298
40.1298
40.1299
40.1299
40.13
40.13
40.1301
40.1301
40.1302
40.1302
40.1303
40.1303
40.1304
40.1305
40.1305
40.1306
40.1307
40.1307
40.1308
40.1309
40.131
40.1311
40.1312
40.1313
40.1314
40.1316
40.1317
40.1317
40.1318
40.1317
40.1317
40.1315
40.1313
40.131
40.1306
40.1303
40.1297
38.1671
38.1671
38.1671
38.1671
38.1671
38.1671
38.1671
38.1671
38.1671
38.1671
38.1671
38.1671
38.1671
38.1671
38.1671
38.1671
38.1671
38.1671
38.1671
38.1671
38.1671
38.1671
38.1671
38.1671
38.1671
38.1671
38.1671
38.1671
38.1671
38.1671
38.1671
38.1672
38.1672
38.1672
38.1672
38.1672
38.1672
38.1672
38.1672
38.1672
38.1672
38.1673
38.1673
38.1673
38.1673
38.1673
38.1673
38.1674
38.1674
38.1674
38.1674
38.1674
38.1675
38.1675
38.1675
38.1675
38.1676
38.1676
38.1676
38.1677
38.1677
38.1677
38.1678
38.1678
38.1678
38.1679
38.1679
38.168
38.168
38.1681
38.1681
38.1682
38.1682
38.1683
38.1683
38.1684
38.1685
38.1685
38.1686
38.1687
38.1688
38.1688
38.1689
38.169
38.1691
38.1693
38.1694
38.1695
38.1697
38.1698
38.1699
38.1699
38.1699
38.1698
38.1697
38.1694
38.1691
38.1687
38.1684
38.1678
36.2051
36.2051
36.2051
36.2051
36.2051
36.2051
36.2051
36.2051
36.2051
36.2051
36.2051
36.2051
36.2051
36.2051
36.2051
36.2051
36.2051
36.2051
36.2051
36.2051
36.2051
36.2051
36.2051
36.2051
36.2051
36.2051
36.2051
36.2051
36.2051
36.2051
36.2051
36.2052
36.2052
36.2052
36.2052
36.2052
36.2052
36.2052
36.2052
36.2052
36.2052
36.2053
36.2053
36.2053
36.2053
36.2053
36.2053
36.2054
36.2054
36.2054
36.2054
36.2054
36.2055
36.2055
36.2055
36.2055
36.2056
36.2056
36.2056
36.2057
36.2057
36.2057
36.2058
36.2058
36.2058
36.2059
36.2059
36.206
36.206
36.2061
36.2061
36.2062
36.2062
36.2063
36.2063
36.2064
36.2065
36.2065
36.2066
36.2067
36.2068
36.2069
36.207
36.2071
36.2072
36.2073
36.2074
36.2076
36.2078
36.2079
36.208
36.2081
36.2081
36.208
36.2079
36.2076
36.2073
36.2068
36.2064
36.2058
34.2431
34.2431
34.2431
34.2431
34.2431
34.2431
34.2431
34.2431
34.2431
34.2431
34.2431
34.2431
34.2431
34.2431
34.2431
34.2431
34.2431
34.2431
34.2431
34.2431
34.2431
34.2431
34.2431
34.2431
34.2431
34.2431
34.2431
34.2431
34.2431
34.2431
34.2431
34.2432
34.2432
34.2432
34.2432
34.2432
34.2432
34.2432
34.2432
34.2432
34.2432
34.2433
34.2433
34.2433
34.2433
34.2433
34.2433
34.2434
34.2434
34.2434
34.2434
34.2434
34.2435
34.2435
34.2435
34.2435
34.2436
34.2436
34.2436
34.2437
34.2437
34.2437
34.2438
34.2438
34.2438
34.2439
34.2439
34.244
34.244
34.2441
34.2441
34.2442
34.2442
34.2443
34.2443
34.2444
34.2445
34.2445
34.2446
34.2447
34.2448
34.2449
34.245
34.2451
34.2452
34.2453
34.2455
34.2457
34.2459
34.246
34.2462
34.2463
34.2463
34.2463
34.2461
34.2458
34.2454
34.2449
34.2445
34.2438
32.2811
32.2811
32.2811
32.2811
32.2811
32.2811
32.2811
32.2811
32.2811
32.2811
32.2811
32.2811
32.2811
32.2811
32.2811
32.2811
32.2811
32.2811
32.2811
32.2811
32.2811
32.2811
32.2811
32.2811
32.2811
32.2811
32.2811
32.2811
32.2811
32.2811
32.2812
32.2812
32.2812
32.2812
32.2812
32.2812
32.2812
32.2812
32.2812
32.2812
32.2812
32.2813
32.2813
32.2813
32.2813
32.2813
32.2813
32.2814
32.2814
32.2814
32.2814
32.2814
32.2815
32.2815
32.2815
32.2815
32.2816
32.2816
32.2816
32.2817
32.2817
32.2817
32.2818
32.2818
32.2818
32.2819
32.2819
32.282
32.282
32.2821
32.2821
32.2822
32.2822
32.2823
32.2823
32.2824
32.2825
32.2826
32.2826
32.2827
32.2828
32.2829
32.283
32.2831
32.2832
32.2834
32.2836
32.2837
32.284
32.2842
32.2844
32.2845
32.2845
32.2845
32.2843
32.284
32.2836
32.2831
32.2826
32.2818
30.3191
30.3191
30.3191
30.3191
30.3191
30.3191
30.3191
30.3191
30.3191
30.3191
30.3191
30.3191
30.3191
30.3191
30.3191
30.3191
30.3191
30.3191
30.3191
30.3191
30.3191
30.3191
30.3191
30.3191
30.3191
30.3191
30.3191
30.3191
30.3191
30.3191
30.3192
30.3192
30.3192
30.3192
30.3192
30.3192
30.3192
30.3192
30.3192
30.3192
30.3193
30.3193
30.3193
30.3193
30.3193
30.3193
30.3193
30.3194
30.3194
30.3194
30.3194
30.3194
30.3195
30.3195
30.3195
30.3195
30.3196
30.3196
30.3196
30.3197
30.3197
30.3197
30.3198
30.3198
30.3198
30.3199
30.3199
30.32
30.32
30.3201
30.3201
30.3202
30.3202
30.3203
30.3204
30.3204
30.3205
30.3206
30.3206
30.3207
30.3208
30.3209
30.321
30.3211
30.3213
30.3214
30.3216
30.3218
30.3221
30.3223
30.3225
30.3227
30.3228
30.3228
30.3226
30.3223
30.3218
30.3212
30.3207
30.3199
28.3571
28.3571
28.3571
28.3571
28.3571
28.3571
28.3571
28.3571
28.3571
28.3571
28.3571
28.3571
28.3571
28.3571
28.3571
28.3571
28.3571
28.3571
28.3571
28.3571
28.3571
28.3571
28.3571
28.3571
28.3571
28.3571
28.3571
28.3571
28.3571
28.3571
28.3572
28.3572
28.3572
28.3572
28.3572
28.3572
28.3572
28.3572
28.3572
28.3572
28.3573
28.3573
28.3573
28.3573
28.3573
28.3573
28.3573
28.3574
28.3574
28.3574
28.3574
28.3574
28.3575
28.3575
28.3575
28.3575
28.3576
28.3576
28.3576
28.3577
28.3577
28.3577
28.3578
28.3578
28.3578
28.3579
28.3579
28.358
28.358
28.3581
28.3581
28.3582
28.3582
28.3583
28.3584
28.3584
28.3585
28.3586
28.3586
28.3587
28.3588
28.3589
28.359
28.3591
28.3593
28.3594
28.3596
28.3599
28.3601
28.3604
28.3607
28.361
28.3611
28.3611
28.3609
28.3605
28.36
28.3594
28.3588
28.3579
26.3951
26.3951
26.3951
26.3951
26.3951
26.3951
26.3951
26.3951
26.3951
26.3951
26.3951
26.3951
26.3951
26.3951
26.3951
26.3951
26.3951
26.3951
26.3951
26.3951
26.3951
26.3951
26.3951
26.3951
26.3951
26.3951
26.3951
26.3951
26.3951
26.3951
26.3952
26.3952
26.3952
26.3952
26.3952
26.3952
26.3952
26.3952
26.3952
26.3952
26.3953
26.3953
26.3953
26.3953
26.3953
26.3953
26.3953
26.3954
26.3954
26.3954
26.3954
26.3954
26.3955
26.3955
26.3955
26.3955
26.3956
26.3956
26.3956
26.3957
26.3957
26.3957
26.3958