/*--------------------------------*- C++ -*----------------------------------*\
| =========                 |                                                 |
| \\      /  F ield         | OpenFOAM: The Open Source CFD Toolbox           |
|  \\    /   O peration     | Version:  2.4.0                                 |
|   \\  /    A nd           | Web:      www.OpenFOAM.org                      |
|    \\/     M anipulation  |                                                 |
\*---------------------------------------------------------------------------*/
FoamFile
{
    version     2.0;
    format      ascii;
    class       volScalarField;
    location    "0.25";
    object      alpha.water;
}
// * * * * * * * * * * * * * * * * * * * * * * * * * * * * * * * * * * * * * //

dimensions      [0 0 0 0 0 0 0];

internalField   nonuniform List<scalar> 
2400
(
1
1
1
1
1
1
1
1
1
1
1
1
1
1
1
1
1
1
1
1
1
1
1
1
1
1
1
1
1
1
1
1
1
1
1
1
1
1
1
1
1
1
1
1
1
1
1
1
1
1
1
1
1
1
1
1
1
1
1
1
1
1
1
1
1
1
1
1
1
1
1
1
1
1
1
1
1
1
1
1
1
1
1
1
1
1
1
1
1
1
1
1
1
1
1
1
1
1
1
1
1
1
1
1
1
1
1
1
1
1
1
1
1
1
1
1
1
1
1
1
1
1
1
1
1
1
1
1
1
1
1
1
1
1
1
1
1
1
1
1
1
1
1
1
1
1
1
1
1
1
1
1
1
1
1
1
1
1
1
1
1
1
1
1
1
1
1
1
1
1
1
1
1
1
1
1
1
1
1
1
1
1
1
1
1
1
1
1
1
1
1
1
1
1
1
1
1
1
1
1
1
1
1
1
1
1
1
1
1
1
1
1
1
1
1
1
1
1
1
1
1
1
1
1
1
1
1
1
1
1
1
1
1
1
1
1
1
1
1
1
1
1
1
1
1
1
1
1
1
1
1
1
1
1
1
1
1
1
1
1
1
1
1
1
1
1
1
1
1
1
1
1
1
1
1
1
1
1
1
1
1
1
1
1
1
1
1
1
1
1
1
1
1
1
1
1
1
1
1
1
1
1
1
1
1
1
1
1
1
1
1
1
1
1
1
1
1
1
1
1
1
1
1
1
1
1
1
1
1
1
1
1
1
1
1
1
1
1
1
1
1
1
1
1
1
1
1
1
1
1
1
1
1
1
1
1
1
1
1
1
1
1
1
1
1
1
1
1
1
1
1
1
1
1
1
1
1
1
1
1
1
1
1
1
1
1
1
1
1
1
1
1
1
1
1
1
1
1
1
1
1
1
1
1
1
1
1
1
1
1
1
1
1
1
1
1
1
1
1
1
1
1
1
1
1
1
1
1
1
1
1
1
1
1
1
1
1
1
1
1
1
1
1
1
1
1
1
1
1
1
1
1
1
1
1
1
1
1
1
1
1
1
1
1
1
1
1
1
1
1
1
1
1
1
1
1
1
1
1
1
1
1
1
1
1
1
1
1
1
1
1
1
1
1
1
1
1
1
1
1
1
1
1
1
1
1
1
1
1
1
1
1
1
1
1
1
1
1
1
1
1
1
1
1
1
1
1
1
1
1
1
1
1
1
1
1
1
1
1
1
1
1
1
1
1
1
1
1
1
1
1
1
1
1
1
1
1
1
1
1
1
1
1
1
1
1
1
1
1
1
1
1
1
1
1
1
1
1
1
1
1
1
1
1
1
1
1
1
1
1
1
1
1
1
1
1
1
1
1
1
1
1
1
1
1
1
1
1
1
1
1
1
1
1
1
1
1
1
1
1
1
1
1
1
1
1
1
1
1
1
1
1
1
1
1
1
1
1
1
1
1
1
1
1
1
1
1
1
1
1
1
1
1
1
1
1
1
1
1
1
1
1
1
1
1
1
1
1
1
1
1
1
1
1
1
1
1
1
1
1
1
1
1
1
1
1
1
1
1
1
1
1
1
1
1
1
1
1
1
1
1
1
1
1
1
1
1
1
1
1
1
1
1
1
1
1
1
1
1
1
1
1
1
1
1
1
1
1
1
1
1
1
1
1
1
1
1
1
1
1
1
1
1
1
1
1
1
1
1
1
1
1
1
1
1
1
1
1
1
1
1
1
1
1
1
1
1
1
1
1
1
1
1
1
1
1
1
1
1
1
1
1
1
1
0.999999
0.999999
0.999999
0.999999
0.999999
0.999999
0.999999
0.999999
0.999999
0.999999
0.999999
0.999999
0.999998
0.999998
0.999998
0.999998
1
1
1
1
1
1
1
1
1
1
1
1
1
1
1
1
1
1
1
1
1
1
1
1
1
1
1
1
1
1
1
1
1
1
1
1
1
1
1
1
1
1
1
1
1
1
1
1
1
1
1
1
1
1
1
1
1
1
1
1
1
1
1
1
1
1
1
1
1
1
1
1
1
1
1
1
1
1
1
1
1
1
1
1
1
1
1
1
1
1
1
1
1
1
1
1
1
1
1
1
1
1
1
1
1
1
1
1
1
1
1
1
1
1
1
1
1
1
1
1
1
1
1
1
1
1
1
1
1
1
1
1
1
1
1
1
1
1
1
1
1
1
1
1
1
1
1
1
1
1
1
1
1
1
1
1
1
1
1
1
1
1
1
1
1
1
1
1
1
1
1
1
1
1
1
1
1
1
1
1
1
1
1
1
1
1
1
1
1
1
1
1
1
1
1
1
1
1
1
1
1
1
1
1
1
1
1
1
1
1
1
1
1
1
1
1
1
1
1
1
1
1
1
1
1
1
1
1
1
1
1
1
1
1
1
1
1
1
1
1
1
1
1
1
1
1
1
1
1
1
1
1
1
1
1
1
1
1
1
1
1
1
1
1
1
1
1
1
1
1
1
1
1
1
1
1
1
1
1
1
1
1
1
1
1
1
1
1
1
1
1
1
1
1
1
1
1
1
1
1
1
1
1
1
1
1
1
1
1
1
1
1
1
1
1
1
1
1
1
1
1
1
1
1
1
1
1
1
1
1
1
1
1
1
1
1
1
1
1
1
1
1
1
1
1
1
1
1
1
1
1
1
1
1
1
1
1
1
1
1
1
1
1
1
1
1
1
1
1
1
1
1
1
1
1
1
1
1
1
1
0.999998
0.999998
0.999998
0.999998
0.999998
0.999998
0.999998
0.999998
0.999998
0.999998
0.999998
0.999998
0.999998
0.999998
0.999998
0.999998
0.999998
0.999998
0.999998
0.999998
7.70772e-07
7.6877e-07
7.65366e-07
7.59489e-07
7.51017e-07
7.39556e-07
7.24632e-07
7.05724e-07
6.82302e-07
6.53862e-07
6.19967e-07
5.80292e-07
5.34668e-07
4.83291e-07
4.25326e-07
3.63317e-07
2.95781e-07
2.24603e-07
1.62116e-07
1.17382e-07
4.38551e-14
4.38667e-14
4.38643e-14
4.38597e-14
4.38521e-14
4.38412e-14
4.38279e-14
4.38146e-14
4.3808e-14
4.38193e-14
4.38687e-14
4.39911e-14
4.42478e-14
4.4754e-14
4.57628e-14
4.79189e-14
5.35969e-14
6.66915e-14
1.43311e-15
3.74401e-17
1.2785e-15
1.29161e-15
1.27908e-15
1.25797e-15
1.2261e-15
1.18088e-15
1.11999e-15
1.04109e-15
9.44006e-16
8.29427e-16
7.00596e-16
5.63278e-16
4.2555e-16
2.96758e-16
1.86638e-16
1.02651e-16
4.80582e-17
2.10052e-17
1.12943e-17
6.47523e-18
1.98122e-19
2.01781e-19
2.00204e-19
1.97489e-19
1.93001e-19
1.86103e-19
1.76258e-19
1.62826e-19
1.45937e-19
1.25759e-19
1.03152e-19
7.9551e-20
5.68057e-20
3.67543e-20
2.10812e-20
1.03937e-20
4.27124e-21
1.41207e-21
5.15483e-22
2.19389e-22
3.36301e-23
3.45736e-23
3.44522e-23
3.42194e-23
3.3702e-23
3.27346e-23
3.11791e-23
2.8844e-23
2.57732e-23
2.1981e-23
1.76721e-23
1.31936e-23
8.97946e-24
5.41986e-24
2.83409e-24
1.23345e-24
4.2351e-25
1.02562e-25
2.39975e-26
7.40066e-27
6.13317e-27
6.37537e-27
6.40256e-27
6.43734e-27
6.43403e-27
6.34776e-27
6.14035e-27
5.75022e-27
5.18451e-27
4.43331e-27
3.54198e-27
2.59662e-27
1.70851e-27
9.74693e-28
4.69737e-28
1.8146e-28
5.1958e-29
9.3157e-30
1.52747e-30
4.17006e-28
1.18093e-30
1.24396e-30
1.26471e-30
1.296e-30
1.32634e-30
1.34382e-30
1.33711e-30
1.28568e-30
1.18861e-30
1.03684e-30
8.38722e-31
6.15886e-31
4.00028e-31
2.20348e-31
1.00011e-31
3.50353e-32
9.74371e-33
2.16731e-30
3.70387e-27
5.29645e-24
2.35158e-34
2.51693e-34
2.60531e-34
2.74452e-34
2.90835e-34
3.06752e-34
3.19031e-34
3.20717e-34
3.10092e-34
2.82096e-34
2.36657e-34
1.78681e-34
1.17834e-34
6.46123e-35
3.76144e-35
1.64207e-32
2.52536e-29
3.36225e-26
3.96003e-23
4.24102e-20
4.7119e-38
5.14105e-38
5.45799e-38
5.97085e-38
6.63895e-38
7.40895e-38
8.20688e-38
8.81763e-38
9.13483e-38
8.90248e-38
7.97692e-38
6.39655e-38
1.03658e-37
1.42823e-34
2.66605e-31
3.8985e-28
4.51868e-25
4.21352e-22
3.22602e-19
2.08782e-16
9.1561e-42
1.02179e-41
1.12119e-41
1.28981e-41
1.52783e-41
1.83824e-41
2.21651e-41
2.60807e-41
2.97818e-41
3.20736e-41
9.1783e-41
3.37148e-37
1.25316e-33
3.15671e-30
5.48674e-27
6.67218e-24
5.73303e-21
3.49971e-18
1.52939e-15
2.04504e-13
1.63626e-45
1.87559e-45
2.14763e-45
2.63159e-45
3.3775e-45
4.47445e-45
6.01554e-45
7.95968e-45
1.03175e-44
1.26941e-44
1.14299e-38
6.53949e-34
7.12262e-30
3.3041e-26
7.92266e-23
1.07461e-19
8.66857e-17
3.92993e-14
7.81265e-12
2.60779e-09
2.48193e-49
2.93635e-49
3.54508e-49
4.70047e-49
6.66615e-49
9.93754e-49
1.5265e-48
2.33691e-48
3.54469e-48
5.15438e-48
1.69191e-42
1.54242e-37
2.31927e-33
1.46055e-29
2.70263e-21
2.51859e-17
3.78578e-14
9.19494e-14
3.6688e-09
2.16679e-06
2.80452e-53
3.44266e-53
4.43963e-53
6.48335e-53
1.04147e-52
1.79203e-52
3.22892e-52
5.86568e-52
1.07046e-51
1.89085e-51
5.31043e-46
6.64191e-41
1.31515e-36
1.10906e-32
1.90229e-24
3.28244e-20
6.0734e-17
2.32223e-14
4.16802e-13
9.04512e-08
1.77489e-57
2.27643e-57
3.23915e-57
5.41298e-57
1.02691e-56
2.12969e-56
4.65798e-56
1.03712e-55
2.3222e-55
5.03309e-55
1.23347e-49
2.04563e-44
5.01871e-40
5.1371e-36
1.00182e-27
2.02968e-23
5.90529e-20
7.28487e-18
1.54361e-08
6.22191e-10
1.02212e-62
1.53773e-62
3.7081e-62
1.01751e-61
2.95984e-61
8.84542e-61
2.69433e-60
8.10897e-60
2.4091e-59
6.72847e-59
1.49857e-53
3.27533e-48
9.59735e-44
1.09618e-39
2.02509e-31
4.57374e-27
1.63148e-25
4.86581e-14
7.91106e-10
0.0133575
0
0
0
0
0
0
0
0
4.87226e-64
3.63086e-63
1.04321e-57
3.7643e-52
1.59623e-47
2.49073e-43
5.60118e-35
1.98399e-30
9.99283e-28
4.36671e-22
-1.14634e-11
0.0213929
0
0
0
0
0
0
0
0
0
0
0
0
1.23131e-52
2.21601e-47
1.22882e-38
1.04722e-33
2.42475e-30
3.51963e-23
2.79958e-08
0.000115347
0
0
0
0
0
0
0
0
0
0
0
0
0
6.74895e-53
1.61322e-42
1.26941e-20
9.76334e-16
2.98949e-18
2.19171e-14
1.22169e-10
0
0
0
0
0
0
0
0
0
0
0
0
0
0
0
6.68715e-19
4.1195e-14
2.97427e-15
4.1436e-17
1.10712e-14
0
0
0
0
0
0
0
0
0
0
0
0
0
0
0
2.48819e-22
4.35359e-15
5.44711e-17
3.11241e-24
1.55058e-06
8.97228e-08
7.35004e-08
5.86211e-08
4.46319e-08
3.15504e-08
1.9448e-08
8.0206e-09
6.01613e-14
3.70724e-19
2.77946e-19
1.66687e-19
7.45725e-20
2.20234e-20
3.16424e-21
1.00264e-23
4.0611e-28
8.42594e-51
8.55066e-51
3.12061e-48
2.04999e-50
4.71372e-16
3.02327e-16
2.4537e-16
2.56426e-16
3.78994e-16
6.61542e-16
1.5245e-15
4.77816e-15
9.96311e-15
1.54554e-14
1.8206e-14
1.53259e-14
9.06343e-15
3.46205e-15
6.28753e-16
1.99072e-18
5.56848e-46
5.81216e-43
3.67368e-40
2.57704e-42
6.84696e-18
5.28122e-18
4.02627e-18
3.02353e-18
2.21838e-18
1.69028e-18
1.14625e-18
7.36312e-19
4.42124e-19
2.4317e-19
1.20032e-19
5.21269e-20
1.81209e-20
4.33926e-21
4.17698e-22
3.59735e-25
1.44894e-41
1.73541e-38
1.30108e-35
8.81571e-38
1.91851e-22
1.26041e-22
8.14236e-23
5.1465e-23
3.15298e-23
1.9505e-23
1.08757e-23
5.77083e-24
2.8698e-24
1.29313e-24
5.13873e-25
1.73318e-25
4.49966e-26
7.20941e-27
3.8211e-28
8.99783e-32
2.14084e-37
3.01093e-34
2.77839e-31
1.81818e-33
5.07577e-27
2.80777e-27
1.60015e-27
1.71707e-27
4.23523e-27
3.28424e-27
1.78105e-27
7.53753e-28
1.92221e-28
1.10423e-28
4.21185e-30
1.03495e-29
7.37224e-28
2.44292e-27
2.15962e-27
7.52565e-31
1.96003e-33
3.32087e-30
3.96031e-27
2.50882e-29
2.72775e-25
7.08997e-27
8.37251e-25
7.63514e-24
3.09214e-23
2.37865e-23
1.27828e-23
5.22287e-24
1.05944e-24
5.61669e-25
1.07324e-26
7.32702e-26
5.51325e-24
1.82426e-23
1.79777e-23
6.96313e-27
1.17912e-29
2.43523e-26
3.9559e-23
2.43732e-25
3.09656e-21
5.43454e-23
5.46021e-21
3.59539e-20
1.43603e-19
1.07211e-19
5.77053e-20
2.30841e-20
3.71893e-21
1.70038e-21
4.12063e-23
3.58665e-22
2.63869e-20
8.81786e-20
9.91759e-20
4.4245e-23
5.38349e-26
1.2898e-22
2.85469e-19
1.72611e-21
2.21448e-17
2.44459e-19
2.00497e-17
8.63008e-17
3.52433e-16
2.61043e-16
1.45492e-16
5.75737e-17
6.84363e-18
2.52487e-18
8.72219e-20
1.09398e-18
7.64343e-17
2.65733e-16
3.65635e-16
2.08366e-19
2.90716e-22
6.65505e-19
1.61096e-15
9.27329e-18
8.93217e-14
6.07742e-16
3.81969e-14
8.60017e-14
3.45363e-13
2.68335e-13
1.91797e-13
7.63616e-14
5.87635e-15
1.53425e-15
9.96298e-17
2.26989e-15
1.36537e-13
2.34094e-13
1.63926e-13
5.43612e-16
9.53431e-19
2.37747e-15
1.67321e-13
3.27612e-14
2.51582e-13
2.45995e-13
1.76516e-13
2.11402e-13
3.76421e-13
5.42857e-13
3.36903e-13
2.29163e-13
1.75244e-13
1.84854e-13
4.55935e-14
1.76148e-13
2.68117e-13
5.0588e-13
9.18259e-14
5.0398e-16
2.26855e-13
2.37788e-15
8.70993e-14
1.02549e-13
1.20182e-10
2.05505e-10
1.85949e-11
1.09314e-11
1.25933e-10
-1.3799e-10
5.64195e-11
2.17883e-11
9.66591e-13
2.62839e-13
1.38089e-13
-2.19734e-12
-8.38795e-10
2.53766e-10
4.23749e-10
8.87123e-15
1.51018e-09
8.91478e-07
1.67505e-08
2.2866e-11
2.84268e-07
8.14101e-07
2.86048e-08
1.61852e-08
1.71791e-07
1.01369e-07
6.49488e-08
2.60522e-08
7.40786e-10
1.72044e-12
9.78311e-12
1.92396e-09
9.86903e-08
7.31251e-07
8.08748e-06
4.24882e-10
8.78794e-09
3.75815e-07
1.2422e-05
2.59016e-07
0.0356967
1.46891e-06
0.0630596
0.0286334
0.0525606
0.0323747
0.0204407
0.00966701
0.000285899
7.43758e-10
5.05457e-09
0.000343862
0.0188205
0.0472588
0.151876
0.187746
0.539206
0.217133
0.0772382
0.0295883
0.946486
0.788903
0.991843
0.998334
1
1
1
1
0.999296
0.988491
0.978919
0.973443
0.993003
0.996942
1
0.996328
0.999682
0.999733
1
0.804983
0.999993
1
1
1
1
1
1
1
1
1
1
1
1
1
1
1
1
1
1
1
1
1
1
1
1
1
1
1
1
1
1
1
1
1
1
1
1
1
1
0.999999
0.986757
0.999209
1
1
0.999999
1
1
1
1
1
1
1
1
1
1
1
1
1
0.999467
0.985098
0.488119
0.55002
0.982089
0.712497
0.991857
0.97795
1
1
1
1
1
1
0.968773
0.980575
0.697755
0.884096
0.710233
0.678408
0.620926
0.252359
0.0318533
0.0339972
0.0457703
1.40371e-06
0.0432744
0.00879712
0.0466008
0.029736
0.0257136
0.0260658
0.0291631
0.0423325
0.00292096
0.00914138
3.80004e-11
0.0225451
0.0664975
1.16357e-08
4.90486e-11
2.55817e-09
1.70716e-06
0.000214214
1.40371e-06
8.68205e-07
3.48163e-07
4.0672e-15
3.48163e-07
8.02237e-05
0.000139704
0.000130505
7.02383e-05
6.2002e-07
-2.26857e-14
-1.14664e-12
2.21638e-15
8.57828e-14
1.36583e-05
2.5728e-05
2.99391e-16
6.42737e-14
8.32738e-53
7.17904e-56
3.22216e-59
1.2794e-62
3.24366e-66
5.30604e-70
5.7461e-74
4.34886e-78
2.34619e-82
9.27605e-87
2.6466e-91
5.41467e-96
7.80018e-101
7.76505e-106
4.56398e-111
1.13588e-116
1.87231e-122
2.77073e-128
1.37972e-131
1.37675e-131
4.5187e-45
2.02536e-47
1.87256e-50
9.0963e-54
4.03541e-57
1.12313e-60
1.99787e-64
2.30496e-68
1.83535e-72
1.02169e-76
4.02872e-81
1.13838e-85
2.35388e-90
3.62404e-95
4.3e-100
4.35151e-105
3.87563e-110
3.05118e-115
1.92395e-120
6.09497e-126
1.41731e-40
6.52751e-43
6.35443e-46
3.27715e-49
1.57274e-52
4.85279e-56
9.73638e-60
1.28599e-63
1.18704e-67
7.75512e-72
3.62499e-76
1.21848e-80
3.0572e-85
5.65784e-90
7.8561e-95
8.53022e-100
8.15741e-105
6.43088e-110
3.9887e-115
1.28894e-120
2.65249e-36
1.2562e-38
1.29929e-41
7.1845e-45
3.75413e-48
1.30162e-51
2.99975e-55
4.64236e-59
5.10786e-63
4.07774e-67
2.37402e-71
1.01316e-75
3.15466e-80
7.19183e-85
1.19979e-89
1.62155e-94
1.75674e-99
1.48887e-104
9.14036e-110
2.95061e-115
3.28826e-32
1.60501e-34
1.79284e-37
1.08317e-40
6.23566e-44
2.48781e-47
6.79895e-51
1.28266e-54
1.73676e-58
1.70705e-62
1.22731e-66
6.4959e-71
2.52459e-75
7.19523e-80
1.65301e-84
3.04355e-89
4.33285e-94
4.50408e-99
3.10884e-104
1.08807e-109
2.83971e-28
1.43006e-30
1.77193e-33
1.20864e-36
7.80767e-40
3.66766e-43
1.20016e-46
2.7457e-50
4.50904e-54
5.39737e-58
4.75635e-62
3.10822e-66
1.50012e-70
5.94347e-75
1.89138e-79
4.75456e-84
9.13658e-89
1.27302e-93
1.14163e-98
4.98451e-104
1.77269e-24
9.14312e-27
1.29814e-29
1.01999e-32
7.40277e-36
4.09264e-39
1.60579e-42
4.44126e-46
8.83823e-50
1.28402e-53
1.37993e-57
1.12789e-61
7.493e-66
4.00609e-70
1.71461e-74
5.76851e-79
1.4792e-83
2.73379e-88
3.2308e-93
1.84893e-98
7.83894e-21
3.99195e-23
6.66566e-26
6.18251e-29
5.18992e-32
3.43011e-35
1.62899e-38
5.47133e-42
1.3204e-45
2.3197e-49
3.17474e-53
3.44925e-57
3.00667e-61
2.10518e-65
1.17835e-69
5.16342e-74
1.71994e-78
4.11805e-83
6.30929e-88
4.66952e-93
1.75385e-17
1.30215e-19
2.6288e-22
2.85741e-25
2.8064e-28
2.23204e-31
1.28737e-34
5.26677e-38
1.56413e-41
3.55349e-45
6.30667e-49
8.83831e-53
9.83812e-57
8.7297e-61
6.17468e-65
3.42031e-69
1.44048e-73
4.35686e-78
8.44788e-83
7.89596e-88
1.64626e-14
1.58791e-16
5.04907e-19
8.05254e-22
1.01051e-24
1.03499e-27
7.74393e-31
4.07215e-34
1.52742e-37
4.26997e-41
9.21586e-45
1.58346e-48
2.20279e-52
2.48638e-56
2.24963e-60
1.59256e-64
8.52096e-69
3.25071e-73
7.89799e-78
9.22235e-83
6.08885e-14
9.57367e-14
1.18152e-15
2.13214e-18
4.1633e-21
6.0669e-24
6.17876e-27
4.47128e-30
2.35229e-33
9.19661e-37
2.71315e-40
6.11033e-44
1.05885e-47
1.41957e-51
1.47033e-55
1.17632e-59
7.10999e-64
3.08541e-68
8.60504e-73
1.16317e-77
3.80544e-07
3.42001e-10
2.32967e-13
1.85072e-15
6.3999e-18
1.5698e-20
2.11374e-23
1.56329e-26
6.89473e-30
2.28286e-33
6.27432e-37
1.47491e-40
2.97934e-44
5.1015e-48
7.23633e-52
8.16846e-56
7.01491e-60
4.25683e-64
1.6404e-68
3.00169e-73
0.000395555
3.28871e-10
3.22228e-13
8.34634e-14
3.28523e-14
1.42915e-16
3.48193e-19
5.26776e-22
5.28089e-25
3.67691e-28
1.83934e-31
6.77135e-35
1.86318e-38
3.86661e-42
6.07353e-46
7.20066e-50
6.31217e-54
3.92702e-58
1.56078e-62
2.98794e-67
5.10454e-09
2.7762e-09
6.11632e-14
1.40744e-14
5.11777e-17
1.1096e-19
1.54725e-22
1.5053e-25
1.08245e-28
5.92459e-32
2.7938e-35
1.11662e-38
3.51963e-42
8.69381e-46
1.66998e-49
2.45934e-53
2.69114e-57
2.06523e-61
9.9702e-66
2.28135e-70
0.00419998
8.34603e-10
5.5287e-13
8.46983e-14
1.44034e-15
1.72526e-18
1.59115e-21
1.14592e-24
6.53143e-28
3.09704e-31
1.21867e-34
3.94563e-38
1.04423e-41
2.23366e-45
3.83033e-49
5.15142e-53
5.26716e-57
3.88576e-61
1.84675e-65
4.24994e-70
0.00657482
3.30588e-09
3.37368e-12
1.027e-13
2.4441e-14
6.41805e-17
1.22798e-19
1.74509e-22
1.84951e-25
1.45857e-28
8.60479e-32
3.8439e-35
1.31488e-38
3.48029e-42
7.11042e-46
1.11132e-49
1.29584e-53
1.07053e-57
5.63246e-62
1.42567e-66
0.0036786
8.87479e-10
7.67793e-10
2.68741e-12
9.7597e-15
2.04415e-17
1.30909e-20
7.83676e-24
4.88705e-27
2.97856e-30
1.65619e-33
7.98884e-37
3.2166e-40
1.0466e-43
2.67356e-47
5.20603e-51
7.44304e-55
7.39613e-59
4.5835e-63
1.33979e-67
0.000188367
2.37174e-07
4.53639e-10
1.6969e-12
8.09678e-14
1.81997e-13
1.41196e-15
6.12593e-18
1.59586e-20
2.59911e-23
2.71905e-26
1.86901e-29
8.63214e-33
2.74229e-36
6.12121e-40
9.72799e-44
1.09448e-47
8.40566e-52
3.99937e-56
9.02802e-61
9.03523e-05
3.37173e-07
1.3987e-10
6.78523e-12
7.65304e-14
6.07363e-16
2.76409e-18
7.8077e-21
1.42513e-23
1.74281e-26
1.58025e-29
1.00638e-32
4.518e-36
1.44164e-39
3.28495e-43
5.34587e-47
6.13096e-51
4.77157e-55
2.29216e-59
5.16755e-64
3.6147e-08
1.4877e-09
2.12859e-13
3.56872e-14
1.72533e-16
8.85692e-19
2.85929e-21
6.09944e-24
9.25384e-27
9.98938e-30
8.01973e-33
4.57873e-36
1.86394e-39
5.45345e-43
1.15267e-46
1.76006e-50
1.91359e-54
1.42425e-58
6.60814e-63
1.44884e-67
)
;

boundaryField
{
    leftWall
    {
        type            zeroGradient;
    }
    rightWall
    {
        type            zeroGradient;
    }
    lowerWall
    {
        type            zeroGradient;
    }
    atmosphere
    {
        type            inletOutlet;
        inletValue      uniform 0;
        value           nonuniform List<scalar> 
60
(
0
0
0
0
0
0
0
0
0
0
0
0
0
0
0
0
0
0
0
0
1.70716e-06
0.000214214
1.40371e-06
0
3.48163e-07
0
3.48163e-07
8.02237e-05
0.000139704
0.000130505
7.02383e-05
6.2002e-07
0
0
0
0
1.36583e-05
0
0
0
0
0
0
0
0
8.85692e-19
2.85929e-21
6.09944e-24
9.25384e-27
9.98938e-30
8.01973e-33
4.57873e-36
1.86394e-39
5.45345e-43
1.15267e-46
1.76006e-50
1.91359e-54
1.42425e-58
6.60814e-63
1.44884e-67
)
;
    }
    defaultFaces
    {
        type            empty;
    }
}


// ************************************************************************* //
