/*--------------------------------*- C++ -*----------------------------------*\
| =========                 |                                                 |
| \\      /  F ield         | OpenFOAM: The Open Source CFD Toolbox           |
|  \\    /   O peration     | Version:  2.4.0                                 |
|   \\  /    A nd           | Web:      www.OpenFOAM.org                      |
|    \\/     M anipulation  |                                                 |
\*---------------------------------------------------------------------------*/
FoamFile
{
    version     2.0;
    format      ascii;
    class       surfaceScalarField;
    location    "0.25";
    object      phi;
}
// * * * * * * * * * * * * * * * * * * * * * * * * * * * * * * * * * * * * * //

dimensions      [0 3 -1 0 0 0 0];

internalField   nonuniform List<scalar> 
4700
(
-2.15199e-11
2.15199e-11
-4.29056e-11
2.13913e-11
-6.40101e-11
2.11095e-11
-8.46881e-11
2.06827e-11
-1.04794e-10
2.01104e-11
-1.24181e-10
1.93912e-11
-1.42701e-10
1.85242e-11
-1.60205e-10
1.75092e-11
-1.76547e-10
1.63476e-11
-1.91584e-10
1.50428e-11
-2.05179e-10
1.36007e-11
-2.17204e-10
1.20307e-11
-2.27546e-10
1.03457e-11
-2.36106e-10
8.56273e-12
-2.42807e-10
6.70247e-12
-2.47596e-10
4.7894e-12
-2.50447e-10
2.85102e-12
-2.51364e-10
9.17062e-13
-2.50382e-10
-9.81844e-13
-2.81362e-12
-2.47567e-10
-2.16121e-11
4.3138e-11
-4.30957e-11
4.28845e-11
-6.42957e-11
4.23179e-11
-8.50686e-11
4.14636e-11
-1.05269e-10
4.03185e-11
-1.24749e-10
3.88795e-11
-1.4336e-10
3.71443e-11
-1.60953e-10
3.51123e-11
-1.77381e-10
3.27857e-11
-1.92499e-10
3.01711e-11
-2.0617e-10
2.72806e-11
-2.18266e-10
2.41329e-11
-2.28669e-10
2.07541e-11
-2.37282e-10
1.71783e-11
-2.44025e-10
1.34473e-11
-2.48846e-10
9.61013e-12
-2.51716e-10
5.72215e-12
-2.5264e-10
1.84316e-12
-2.51652e-10
-1.96582e-12
-5.63728e-12
-2.4882e-10
-2.16829e-11
6.48259e-11
-4.32375e-11
6.4447e-11
-6.45095e-11
6.3597e-11
-8.53551e-11
6.2316e-11
-1.05629e-10
6.0599e-11
-1.25183e-10
5.84409e-11
-1.43868e-10
5.58376e-11
-1.61535e-10
5.27876e-11
-1.78035e-10
4.92942e-11
-1.93222e-10
4.53669e-11
-2.06958e-10
4.10235e-11
-2.19111e-10
3.6292e-11
-2.29564e-10
3.12116e-11
-2.38215e-10
2.58332e-11
-2.44985e-10
2.02196e-11
-2.49818e-10
1.44449e-11
-2.52686e-10
8.59231e-12
-2.53593e-10
2.75246e-12
-2.52571e-10
-2.98346e-12
-8.51172e-12
-2.49689e-10
-2.17888e-11
8.66192e-11
-4.345e-11
8.61151e-11
-6.48298e-11
8.4983e-11
-8.57844e-11
8.32768e-11
-1.06168e-10
8.09893e-11
-1.25834e-10
7.81131e-11
-1.4463e-10
7.46419e-11
-1.62408e-10
7.05732e-11
-1.79017e-10
6.59105e-11
-1.94308e-10
6.06659e-11
-2.08141e-10
5.4863e-11
-2.20381e-10
4.85385e-11
-2.30908e-10
4.17442e-11
-2.39619e-10
3.45481e-11
-2.46429e-10
2.70339e-11
-2.51281e-10
1.93009e-11
-2.54146e-10
1.1461e-11
-2.55026e-10
3.63637e-12
-2.53953e-10
-4.05104e-12
-1.14613e-11
-2.50997e-10
-2.19297e-11
1.08553e-10
-4.37331e-11
1.07925e-10
-6.52564e-11
1.06512e-10
-8.63563e-11
1.04382e-10
-1.06887e-10
1.01527e-10
-1.26701e-10
9.79336e-11
-1.45648e-10
9.35951e-11
-1.63574e-10
8.85065e-11
-1.80328e-10
8.26714e-11
-1.95759e-10
7.61041e-11
-2.09722e-10
6.88328e-11
-2.2208e-10
6.09028e-11
-2.32707e-10
5.23784e-11
-2.41497e-10
4.3344e-11
-2.48362e-10
3.39049e-11
-2.53241e-10
2.41857e-11
-2.56102e-10
1.43279e-11
-2.56946e-10
4.48548e-12
-2.55807e-10
-5.18346e-12
-1.45119e-11
-2.5275e-10
-2.21055e-11
1.30662e-10
-4.40863e-11
1.2991e-10
-6.57888e-11
1.28219e-10
-8.70704e-11
1.25669e-10
-1.07786e-10
1.22247e-10
-1.27786e-10
1.1794e-10
-1.4692e-10
1.12735e-10
-1.65033e-10
1.06626e-10
-1.8197e-10
9.96147e-11
-1.97577e-10
9.17177e-11
-2.11704e-10
8.29672e-11
-2.24211e-10
7.34164e-11
-2.34966e-10
6.31412e-11
-2.43857e-10
5.22428e-11
-2.50792e-10
4.08479e-11
-2.55705e-10
2.91073e-11
-2.58563e-10
1.71931e-11
-2.59362e-10
5.29235e-12
-2.58137e-10
-6.40108e-12
-1.76849e-11
-2.54958e-10
-2.23158e-11
1.52981e-10
-4.45091e-11
1.52108e-10
-6.64264e-11
1.5014e-10
-8.79259e-11
1.47173e-10
-1.08863e-10
1.43189e-10
-1.29087e-10
1.3817e-10
-1.48447e-10
1.321e-10
-1.66786e-10
1.24969e-10
-1.83944e-10
1.16779e-10
-1.99764e-10
1.07544e-10
-2.14092e-10
9.73018e-11
-2.26779e-10
8.61116e-11
-2.3769e-10
7.4061e-11
-2.46705e-10
6.12674e-11
-2.53726e-10
4.78792e-11
-2.58683e-10
3.40745e-11
-2.61537e-10
2.0057e-11
-2.62284e-10
6.04874e-12
-2.60958e-10
-7.71958e-12
-2.10086e-11
-2.57627e-10
-2.25605e-11
1.75543e-10
-4.5001e-11
1.7455e-10
-6.71683e-11
1.7231e-10
-8.8922e-11
1.68929e-10
-1.10117e-10
1.64387e-10
-1.30605e-10
1.58661e-10
-1.5023e-10
1.51729e-10
-1.68833e-10
1.43577e-10
-1.86253e-10
1.34203e-10
-2.02325e-10
1.23622e-10
-2.16889e-10
1.11874e-10
-2.29792e-10
9.90227e-11
-2.40888e-10
8.51676e-11
-2.50052e-10
7.0442e-11
-2.57177e-10
5.50162e-11
-2.62187e-10
3.90966e-11
-2.65039e-10
2.29203e-11
-2.65726e-10
6.74641e-12
-2.6428e-10
-9.15631e-12
-2.45098e-11
-2.6077e-10
-2.28391e-11
1.98384e-10
-4.55611e-11
1.97273e-10
-6.80136e-11
1.94763e-10
-9.00576e-11
1.90975e-10
-1.11549e-10
1.85881e-10
-1.32338e-10
1.79452e-10
-1.52268e-10
1.71661e-10
-1.71177e-10
1.62489e-10
-1.88898e-10
1.51928e-10
-2.05262e-10
1.39992e-10
-2.20102e-10
1.26721e-10
-2.33255e-10
1.12185e-10
-2.4457e-10
9.64926e-11
-2.53908e-10
7.97925e-11
-2.61157e-10
6.22778e-11
-2.66231e-10
4.41842e-11
-2.69082e-10
2.57844e-11
-2.69701e-10
7.37723e-12
-2.68117e-10
-1.07289e-11
-2.82152e-11
-2.64403e-10
-2.31512e-11
2.21535e-10
-4.61885e-11
2.20308e-10
-6.89608e-11
2.17534e-10
-9.13312e-11
2.13344e-10
-1.13156e-10
2.07706e-10
-1.34286e-10
2.00582e-10
-1.54561e-10
1.91938e-10
-1.73817e-10
1.81747e-10
-1.91882e-10
1.69996e-10
-2.0858e-10
1.56696e-10
-2.23736e-10
1.41885e-10
-2.37179e-10
1.25637e-10
-2.48744e-10
1.0807e-10
-2.58287e-10
8.93471e-11
-2.6568e-10
6.96847e-11
-2.70831e-10
4.9349e-11
-2.73683e-10
2.86511e-11
-2.74226e-10
7.93314e-12
-2.72488e-10
-1.24556e-11
-3.21535e-11
-2.6854e-10
-2.34963e-11
2.4503e-10
-4.68821e-11
2.4369e-10
-7.00084e-11
2.40657e-10
-9.27409e-11
2.36074e-10
-1.14938e-10
2.29901e-10
-1.36447e-10
2.22091e-10
-1.57109e-10
2.12601e-10
-1.76755e-10
2.01394e-10
-1.95207e-10
1.88452e-10
-2.12283e-10
1.73777e-10
-2.27798e-10
1.57408e-10
-2.4157e-10
1.39419e-10
-2.53425e-10
1.19936e-10
-2.63202e-10
9.91366e-11
-2.70763e-10
7.72598e-11
-2.76004e-10
5.46043e-11
-2.78862e-10
3.15226e-11
-2.79322e-10
8.40637e-12
-2.77412e-10
-1.43545e-11
-3.6355e-11
-2.732e-10
-2.38738e-11
2.68902e-10
-4.76404e-11
2.6745e-10
-7.11543e-11
2.64166e-10
-9.42845e-11
2.592e-10
-1.1689e-10
2.52503e-10
-1.3882e-10
2.44018e-10
-1.59911e-10
2.33691e-10
-1.79991e-10
2.21475e-10
-1.98876e-10
2.0734e-10
-2.16375e-10
1.91282e-10
-2.32295e-10
1.73335e-10
-2.46441e-10
1.53574e-10
-2.58624e-10
1.3213e-10
-2.68671e-10
1.09195e-10
-2.76427e-10
8.50288e-11
-2.81774e-10
5.99652e-11
-2.8464e-10
3.44019e-11
-2.85011e-10
8.78959e-12
-2.82911e-10
-1.64436e-11
-4.08513e-11
-2.78404e-10
-2.42831e-11
2.93181e-10
-4.84616e-11
2.91621e-10
-7.23959e-11
2.88093e-10
-9.59589e-11
2.82757e-10
-1.19012e-10
2.75551e-10
-1.41402e-10
2.66406e-10
-1.62966e-10
2.55253e-10
-1.83525e-10
2.42035e-10
-2.0289e-10
2.26708e-10
-2.20862e-10
2.09259e-10
-2.37235e-10
1.89715e-10
-2.51802e-10
1.68149e-10
-2.64358e-10
1.44696e-10
-2.74712e-10
1.19559e-10
-2.82692e-10
9.30206e-11
-2.88164e-10
6.54494e-11
-2.91043e-10
3.72917e-11
-2.91318e-10
9.07628e-12
-2.89012e-10
-1.87397e-11
-4.56759e-11
-2.84177e-10
-2.47236e-11
3.179e-10
-4.93438e-11
3.16233e-10
-7.37301e-11
3.12472e-10
-9.77607e-11
3.06781e-10
-1.21298e-10
2.99083e-10
-1.4419e-10
2.89294e-10
-1.66271e-10
2.77332e-10
-1.87357e-10
2.63121e-10
-2.07252e-10
2.46606e-10
-2.25749e-10
2.2776e-10
-2.42627e-10
2.06599e-10
-2.57665e-10
1.83194e-10
-2.70642e-10
1.57681e-10
-2.81346e-10
1.30273e-10
-2.89584e-10
1.01268e-10
-2.95203e-10
7.1078e-11
-2.98095e-10
4.0194e-11
-2.98271e-10
9.26103e-12
-2.95745e-10
-2.12561e-11
-5.08646e-11
-2.90546e-10
-2.51951e-11
3.4309e-10
-5.02842e-11
3.41313e-10
-7.51531e-11
3.37332e-10
-9.96855e-11
3.31306e-10
-1.23746e-10
3.23137e-10
-1.47181e-10
3.12725e-10
-1.69823e-10
2.99972e-10
-1.91486e-10
2.84783e-10
-2.11964e-10
2.67086e-10
-2.31039e-10
2.46838e-10
-2.48478e-10
2.24043e-10
-2.64043e-10
1.98765e-10
-2.77493e-10
1.71139e-10
-2.88596e-10
1.41383e-10
-2.97131e-10
1.0981e-10
-3.02922e-10
7.68774e-11
-3.05827e-10
4.31063e-11
-3.05893e-10
9.33397e-12
-3.03152e-10
-2.39882e-11
-5.6463e-11
-2.97544e-10
-2.56981e-11
3.68782e-10
-5.12795e-11
3.66885e-10
-7.66599e-11
3.62705e-10
-1.01728e-10
3.56367e-10
-1.26349e-10
3.47752e-10
-1.5037e-10
3.36743e-10
-1.73621e-10
3.2322e-10
-1.9591e-10
3.07072e-10
-2.17026e-10
2.88203e-10
-2.36738e-10
2.66552e-10
-2.54798e-10
2.42107e-10
-2.70949e-10
2.14921e-10
-2.84932e-10
1.85127e-10
-2.96489e-10
1.52946e-10
-3.05363e-10
1.1869e-10
-3.11364e-10
8.28839e-11
-3.14269e-10
4.60169e-11
-3.14215e-10
9.28649e-12
-3.11274e-10
-2.69215e-11
-6.25208e-11
-3.05206e-10
-2.62361e-11
3.95013e-10
-5.23249e-11
3.92967e-10
-7.82447e-11
3.88618e-10
-1.03882e-10
3.81999e-10
-1.29102e-10
3.72967e-10
-1.53751e-10
3.61388e-10
-1.77659e-10
3.47125e-10
-2.00628e-10
3.3004e-10
-2.2244e-10
3.10015e-10
-2.4285e-10
2.86963e-10
-2.61595e-10
2.60854e-10
-2.78398e-10
2.31728e-10
-2.92978e-10
1.99711e-10
-3.05053e-10
1.65025e-10
-3.14316e-10
1.27957e-10
-3.20583e-10
8.91554e-11
-3.23482e-10
4.89206e-11
-3.23506e-10
9.3159e-12
-3.20048e-10
-3.03724e-11
-6.90242e-11
-3.13535e-10
-2.67981e-11
4.21807e-10
-5.34061e-11
4.1957e-10
-7.98909e-11
4.15098e-10
-1.06129e-10
4.08232e-10
-1.31982e-10
3.98816e-10
-1.573e-10
3.86703e-10
-1.81911e-10
3.71733e-10
-2.05613e-10
3.53741e-10
-2.28179e-10
3.3258e-10
-2.49351e-10
3.08135e-10
-2.68848e-10
2.80352e-10
-2.8637e-10
2.49252e-10
-3.01612e-10
2.14955e-10
-3.14272e-10
1.77688e-10
-3.2395e-10
1.37638e-10
-3.30504e-10
9.57126e-11
-3.32999e-10
5.14186e-11
-3.33077e-10
9.39924e-12
-3.29925e-10
-3.35198e-11
-7.60655e-11
-3.22875e-10
-2.75716e-11
4.49375e-10
-5.45793e-11
4.46575e-10
-8.1664e-11
4.4218e-10
-1.08547e-10
4.35113e-10
-1.35077e-10
4.25344e-10
-1.61105e-10
4.12728e-10
-1.86457e-10
3.97082e-10
-2.10929e-10
3.78211e-10
-2.34284e-10
3.55932e-10
-2.56249e-10
3.301e-10
-2.76527e-10
3.00628e-10
-2.94795e-10
2.6752e-10
-3.10727e-10
2.30887e-10
-3.24021e-10
1.90982e-10
-3.34161e-10
1.47779e-10
-3.41349e-10
1.02902e-10
-3.43127e-10
5.31982e-11
-3.42709e-10
8.98321e-12
-3.39915e-10
-3.63125e-11
-8.38321e-11
-3.32145e-10
-3.84743e-11
4.87848e-10
-7.71616e-11
4.85261e-10
-1.15792e-10
4.80809e-10
-1.54192e-10
4.73512e-10
-1.92246e-10
4.63395e-10
-2.29791e-10
4.5027e-10
-2.66617e-10
4.33904e-10
-3.02458e-10
4.14048e-10
-3.36991e-10
3.90461e-10
-3.69835e-10
3.62939e-10
-4.00554e-10
3.31343e-10
-4.28668e-10
2.9563e-10
-4.53664e-10
2.55879e-10
-4.75197e-10
2.12512e-10
-4.91895e-10
1.64477e-10
-5.0491e-10
1.15916e-10
-5.12615e-10
6.09028e-11
-5.15196e-10
1.1563e-11
-5.11889e-10
-3.96223e-11
-5.03387e-10
-9.23381e-11
-2.45506e-10
-2.05736e-12
-2.43026e-10
-2.47302e-12
-2.40142e-10
-2.87703e-12
-2.36873e-10
-3.25997e-12
-2.33239e-10
-3.62374e-12
-2.29261e-10
-3.96673e-12
-2.2496e-10
-4.28793e-12
-2.20362e-10
-4.58589e-12
-2.15487e-10
-4.86124e-12
-2.10362e-10
-5.11033e-12
-2.05012e-10
-5.33396e-12
-1.9946e-10
-5.53514e-12
-1.93735e-10
-5.70741e-12
-1.87862e-10
-5.85588e-12
-1.81866e-10
-5.98062e-12
-1.75773e-10
-6.07939e-12
-1.69607e-10
-6.15606e-12
-1.6339e-10
-6.20882e-12
-1.57143e-10
-6.23849e-12
-6.24554e-12
-1.5089e-10
-2.46746e-10
-4.12052e-12
-2.44247e-10
-4.95845e-12
-2.41344e-10
-5.76354e-12
-2.38054e-10
-6.53235e-12
-2.34396e-10
-7.26198e-12
-2.30391e-10
-7.9499e-12
-2.26063e-10
-8.59359e-12
-2.21434e-10
-9.1911e-12
-2.1653e-10
-9.73993e-12
-2.11372e-10
-1.02405e-11
-2.05986e-10
-1.06906e-11
-2.00401e-10
-1.10903e-11
-1.9464e-10
-1.14397e-11
-1.88731e-10
-1.17394e-11
-1.82701e-10
-1.19889e-11
-1.76571e-10
-1.21909e-11
-1.70368e-10
-1.23435e-11
-1.64114e-10
-1.24483e-11
-1.57831e-10
-1.25068e-11
-1.25211e-11
-1.51543e-10
-2.47584e-10
-6.21643e-12
-2.45053e-10
-7.47914e-12
-2.42114e-10
-8.69102e-12
-2.38784e-10
-9.84865e-12
-2.35084e-10
-1.09471e-11
-2.31036e-10
-1.19824e-11
-2.26662e-10
-1.29508e-11
-2.21985e-10
-1.38491e-11
-2.1703e-10
-1.46749e-11
-2.11822e-10
-1.54267e-11
-2.06387e-10
-1.61032e-11
-2.00751e-10
-1.67038e-11
-1.94941e-10
-1.72288e-11
-1.88983e-10
-1.76784e-11
-1.82902e-10
-1.80524e-11
-1.76725e-10
-1.83531e-11
-1.70474e-10
-1.85796e-11
-1.64173e-10
-1.87342e-11
-1.57846e-10
-1.88196e-11
-1.88393e-11
-1.51516e-10
-2.48847e-10
-8.3587e-12
-2.46265e-10
-1.00522e-11
-2.43271e-10
-1.16758e-11
-2.39883e-10
-1.32271e-11
-2.3612e-10
-1.46986e-11
-2.32004e-10
-1.6085e-11
-2.2756e-10
-1.73812e-11
-2.22811e-10
-1.85833e-11
-2.17782e-10
-1.9688e-11
-2.12499e-10
-2.06931e-11
-2.06988e-10
-2.15971e-11
-2.01276e-10
-2.23992e-11
-1.95391e-10
-2.30992e-11
-1.89357e-10
-2.36974e-11
-1.83202e-10
-2.41933e-11
-1.76951e-10
-2.45904e-11
-1.70628e-10
-2.4888e-11
-1.64259e-10
-2.50898e-11
-1.57866e-10
-2.51997e-11
-2.5222e-11
-1.51474e-10
-2.5054e-10
-1.05622e-11
-2.4789e-10
-1.26955e-11
-2.44823e-10
-1.47363e-11
-2.41354e-10
-1.6688e-11
-2.37506e-10
-1.85384e-11
-2.33301e-10
-2.0281e-11
-2.28762e-10
-2.19097e-11
-2.23915e-10
-2.34195e-11
-2.18787e-10
-2.48062e-11
-2.13402e-10
-2.60672e-11
-2.0779e-10
-2.72003e-11
-2.01976e-10
-2.82043e-11
-1.95989e-10
-2.90787e-11
-1.89854e-10
-2.98236e-11
-1.83598e-10
-3.04396e-11
-1.77249e-10
-3.09298e-11
-1.7083e-10
-3.12955e-11
-1.64369e-10
-3.15414e-11
-1.57888e-10
-3.16719e-11
-3.1692e-11
-1.51413e-10
-2.52668e-10
-1.28455e-11
-2.49937e-10
-1.54219e-11
-2.46774e-10
-1.78934e-11
-2.43205e-10
-2.02526e-11
-2.39249e-10
-2.24891e-11
-2.34929e-10
-2.45946e-11
-2.30272e-10
-2.65616e-11
-2.25302e-10
-2.83842e-11
-2.20048e-10
-3.00572e-11
-2.14535e-10
-3.1577e-11
-2.08794e-10
-3.29409e-11
-2.02851e-10
-3.41472e-11
-1.96734e-10
-3.51952e-11
-1.9047e-10
-3.60852e-11
-1.84088e-10
-3.68187e-11
-1.77614e-10
-3.73989e-11
-1.71076e-10
-3.78294e-11
-1.64499e-10
-3.81148e-11
-1.57908e-10
-3.82604e-11
-3.82718e-11
-1.51327e-10
-2.55245e-10
-1.5221e-11
-2.52409e-10
-1.82535e-11
-2.49134e-10
-2.11648e-11
-2.45441e-10
-2.39419e-11
-2.41354e-10
-2.65736e-11
-2.36896e-10
-2.905e-11
-2.32094e-10
-3.13624e-11
-2.26975e-10
-3.35036e-11
-2.21567e-10
-3.54676e-11
-2.15899e-10
-3.72494e-11
-2.1e-10
-3.88459e-11
-2.03899e-10
-4.02548e-11
-1.97624e-10
-4.14756e-11
-1.91204e-10
-4.25089e-11
-1.84668e-10
-4.3357e-11
-1.78045e-10
-4.40238e-11
-1.71362e-10
-4.45144e-11
-1.64645e-10
-4.48334e-11
-1.5792e-10
-4.4987e-11
-4.49818e-11
-1.5121e-10
-2.5828e-10
-1.7704e-11
-2.5532e-10
-2.12086e-11
-2.51911e-10
-2.45713e-11
-2.48073e-10
-2.77779e-11
-2.4383e-10
-3.08152e-11
-2.39209e-10
-3.36719e-11
-2.34236e-10
-3.63377e-11
-2.28939e-10
-3.88039e-11
-2.23349e-10
-4.10639e-11
-2.17496e-10
-4.31106e-11
-2.11409e-10
-4.49413e-11
-2.0512e-10
-4.65531e-11
-1.98657e-10
-4.79456e-11
-1.92052e-10
-4.91201e-11
-1.85335e-10
-5.00797e-11
-1.78535e-10
-5.08277e-11
-1.71681e-10
-5.13731e-11
-1.64799e-10
-5.17182e-11
-1.57915e-10
-5.18718e-11
-5.18415e-11
-1.51054e-10
-2.61785e-10
-2.03139e-11
-2.58683e-10
-2.43054e-11
-2.55117e-10
-2.81339e-11
-2.5111e-10
-3.17832e-11
-2.46687e-10
-3.52382e-11
-2.41875e-10
-3.84856e-11
-2.36702e-10
-4.15134e-11
-2.31199e-10
-4.43116e-11
-2.25396e-10
-4.6873e-11
-2.19327e-10
-4.91875e-11
-2.13021e-10
-5.12541e-11
-2.06512e-10
-5.30688e-11
-1.99832e-10
-5.46317e-11
-1.93012e-10
-5.59446e-11
-1.86084e-10
-5.70113e-11
-1.79079e-10
-5.78357e-11
-1.72026e-10
-5.84279e-11
-1.64952e-10
-5.87912e-11
-1.57886e-10
-5.89361e-11
-5.88712e-11
-1.5085e-10
-2.65777e-10
-2.30684e-11
-2.62512e-10
-2.75643e-11
-2.58766e-10
-3.1875e-11
-2.54565e-10
-3.59821e-11
-2.49934e-10
-3.98682e-11
-2.44902e-10
-4.35181e-11
-2.395e-10
-4.69179e-11
-2.33759e-10
-5.00561e-11
-2.27712e-10
-5.29237e-11
-2.21393e-10
-5.55109e-11
-2.14836e-10
-5.78149e-11
-2.08075e-10
-5.98325e-11
-2.01145e-10
-6.15641e-11
-1.94079e-10
-6.30121e-11
-1.8691e-10
-6.41807e-11
-1.7967e-10
-6.50757e-11
-1.72389e-10
-6.57058e-11
-1.65097e-10
-6.60787e-11
-1.57822e-10
-6.62052e-11
-6.60957e-11
-1.5059e-10
-2.70272e-10
-2.59865e-11
-2.66822e-10
-3.10068e-11
-2.62873e-10
-3.58186e-11
-2.58451e-10
-4.04008e-11
-2.53584e-10
-4.47336e-11
-2.48302e-10
-4.87997e-11
-2.42638e-10
-5.2583e-11
-2.36626e-10
-5.60706e-11
-2.303e-10
-5.92513e-11
-2.23697e-10
-6.21158e-11
-2.16854e-10
-6.46596e-11
-2.09807e-10
-6.68803e-11
-2.02593e-10
-6.87785e-11
-1.95248e-10
-7.03572e-11
-1.87806e-10
-7.16218e-11
-1.80299e-10
-7.25793e-11
-1.72762e-10
-7.3239e-11
-1.65224e-10
-7.36113e-11
-1.57714e-10
-7.37083e-11
-7.35427e-11
-1.50261e-10
-2.75292e-10
-2.90887e-11
-2.71634e-10
-3.46563e-11
-2.67455e-10
-3.99908e-11
-2.62784e-10
-4.50681e-11
-2.5765e-10
-4.98657e-11
-2.52086e-10
-5.43641e-11
-2.46126e-10
-5.85444e-11
-2.39806e-10
-6.23924e-11
-2.33165e-10
-6.58949e-11
-2.26241e-10
-6.90418e-11
-2.19075e-10
-7.1828e-11
-2.11705e-10
-7.42513e-11
-2.04172e-10
-7.6313e-11
-1.96512e-10
-7.80171e-11
-1.88763e-10
-7.93702e-11
-1.80959e-10
-8.03809e-11
-1.73134e-10
-8.10601e-11
-1.65321e-10
-8.14198e-11
-1.57549e-10
-8.14742e-11
-8.12382e-11
-1.49851e-10
-2.80858e-10
-3.23967e-11
-2.76968e-10
-3.85375e-11
-2.72533e-10
-4.44199e-11
-2.67581e-10
-5.00151e-11
-2.62148e-10
-5.52975e-11
-2.56266e-10
-6.02473e-11
-2.49974e-10
-6.48396e-11
-2.43309e-10
-6.90608e-11
-2.36312e-10
-7.28949e-11
-2.29027e-10
-7.63298e-11
-2.21498e-10
-7.93602e-11
-2.13767e-10
-8.19846e-11
-2.05876e-10
-8.42051e-11
-1.97865e-10
-8.60273e-11
-1.89774e-10
-8.74599e-11
-1.81638e-10
-8.85131e-11
-1.73494e-10
-8.91992e-11
-1.65375e-10
-8.95323e-11
-1.57315e-10
-8.95285e-11
-8.92046e-11
-1.49343e-10
-2.86997e-10
-3.59349e-11
-2.8285e-10
-4.26757e-11
-2.78128e-10
-4.91358e-11
-2.72864e-10
-5.52742e-11
-2.67098e-10
-6.10619e-11
-2.60859e-10
-6.6487e-11
-2.54195e-10
-7.15057e-11
-2.47143e-10
-7.61155e-11
-2.39747e-10
-8.02927e-11
-2.32058e-10
-8.40211e-11
-2.24122e-10
-8.72966e-11
-2.15987e-10
-9.01192e-11
-2.07698e-10
-9.24921e-11
-1.99298e-10
-9.44235e-11
-1.90827e-10
-9.59252e-11
-1.82324e-10
-9.70085e-11
-1.73827e-10
-9.76873e-11
-1.65372e-10
-9.79775e-11
-1.56993e-10
-9.78979e-11
-9.74658e-11
-1.48719e-10
-2.93736e-10
-3.97318e-11
-2.89305e-10
-4.7097e-11
-2.84264e-10
-5.41681e-11
-2.78656e-10
-6.08758e-11
-2.72515e-10
-6.71979e-11
-2.65887e-10
-7.31123e-11
-2.58804e-10
-7.85861e-11
-2.5132e-10
-8.35987e-11
-2.43476e-10
-8.81353e-11
-2.35333e-10
-9.21616e-11
-2.26945e-10
-9.56822e-11
-2.1836e-10
-9.86997e-11
-2.0963e-10
-1.01217e-10
-2.008e-10
-1.03246e-10
-1.9191e-10
-1.04806e-10
-1.83003e-10
-1.05906e-10
-1.74117e-10
-1.06561e-10
-1.65292e-10
-1.06791e-10
-1.56562e-10
-1.06615e-10
-1.06053e-10
-1.47961e-10
-3.01096e-10
-4.38305e-11
-2.9638e-10
-5.18007e-11
-2.90973e-10
-5.95644e-11
-2.84979e-10
-6.68602e-11
-2.7843e-10
-7.37377e-11
-2.7136e-10
-8.01744e-11
-2.63816e-10
-8.61239e-11
-2.55858e-10
-9.15519e-11
-2.47502e-10
-9.64858e-11
-2.38854e-10
-1.00805e-10
-2.29963e-10
-1.04568e-10
-2.20876e-10
-1.07781e-10
-2.11661e-10
-1.10426e-10
-2.02358e-10
-1.12543e-10
-1.9301e-10
-1.14145e-10
-1.83659e-10
-1.15247e-10
-1.74347e-10
-1.15863e-10
-1.65116e-10
-1.16011e-10
-1.56002e-10
-1.15715e-10
-1.15001e-10
-1.47046e-10
-3.09158e-10
-4.81958e-11
-3.03985e-10
-5.69599e-11
-2.98237e-10
-6.53001e-11
-2.91828e-10
-7.32575e-11
-2.84834e-10
-8.07222e-11
-2.77312e-10
-8.7689e-11
-2.69261e-10
-9.41684e-11
-2.60716e-10
-1.00091e-10
-2.518e-10
-1.05397e-10
-2.42609e-10
-1.09992e-10
-2.3318e-10
-1.13994e-10
-2.2351e-10
-1.17447e-10
-2.13779e-10
-1.20152e-10
-2.03958e-10
-1.22358e-10
-1.94112e-10
-1.23985e-10
-1.84275e-10
-1.25077e-10
-1.74495e-10
-1.25633e-10
-1.6482e-10
-1.25676e-10
-1.5529e-10
-1.25234e-10
-1.24337e-10
-1.45949e-10
-3.18087e-10
-5.29737e-11
-3.12573e-10
-6.24642e-11
-3.06341e-10
-7.1522e-11
-2.99479e-10
-8.01117e-11
-2.92012e-10
-8.81825e-11
-2.83952e-10
-9.57429e-11
-2.75348e-10
-1.02769e-10
-2.66202e-10
-1.09232e-10
-2.56662e-10
-1.14934e-10
-2.46785e-10
-1.19866e-10
-2.3665e-10
-1.24124e-10
-2.26428e-10
-1.27664e-10
-2.16048e-10
-1.30526e-10
-2.0566e-10
-1.32741e-10
-1.95243e-10
-1.34397e-10
-1.84852e-10
-1.35463e-10
-1.74564e-10
-1.35916e-10
-1.6441e-10
-1.35825e-10
-1.54431e-10
-1.3521e-10
-1.34086e-10
-1.44679e-10
-3.26924e-10
-5.81926e-11
-3.20983e-10
-6.84031e-11
-3.14306e-10
-7.81973e-11
-3.06934e-10
-8.74819e-11
-2.98946e-10
-9.61683e-11
-2.90427e-10
-1.0426e-10
-2.81227e-10
-1.11967e-10
-2.71312e-10
-1.19144e-10
-2.61023e-10
-1.2522e-10
-2.5052e-10
-1.30365e-10
-2.39742e-10
-1.34896e-10
-2.28787e-10
-1.38613e-10
-2.17863e-10
-1.41444e-10
-2.06935e-10
-1.43662e-10
-1.95944e-10
-1.45382e-10
-1.84993e-10
-1.4641e-10
-1.74188e-10
-1.46717e-10
-1.63512e-10
-1.46498e-10
-1.53033e-10
-1.45691e-10
-1.44267e-10
-1.42852e-10
-4.97056e-10
-6.45305e-11
-4.89812e-10
-7.5657e-11
-4.81456e-10
-8.65618e-11
-4.71979e-10
-9.6965e-11
-4.61595e-10
-1.06555e-10
-4.5061e-10
-1.15244e-10
-4.38627e-10
-1.23946e-10
-4.25092e-10
-1.3267e-10
-4.11075e-10
-1.39223e-10
-3.96981e-10
-1.44442e-10
-3.82256e-10
-1.496e-10
-3.67144e-10
-1.53703e-10
-3.52202e-10
-1.56365e-10
-3.3741e-10
-1.58435e-10
-3.22287e-10
-1.60489e-10
-3.07028e-10
-1.61655e-10
-2.92118e-10
-1.61615e-10
-2.77281e-10
-1.61326e-10
-2.62571e-10
-1.6039e-10
-2.48393e-10
-1.58434e-10
-1.38435e-10
-1.24494e-11
-1.26185e-10
-1.22431e-11
-1.14275e-10
-1.19041e-11
-1.02815e-10
-1.1453e-11
-9.18983e-11
-1.09112e-11
-8.15927e-11
-1.03e-11
-7.19476e-11
-9.64019e-12
-6.29923e-11
-8.95149e-12
-5.47374e-11
-8.25197e-12
-4.71771e-11
-7.55788e-12
-4.02904e-11
-6.88396e-12
-3.40438e-11
-6.24353e-12
-2.83925e-11
-5.64854e-12
-2.32813e-11
-5.10963e-12
-1.86467e-11
-4.63524e-12
-1.44175e-11
-4.23123e-12
-1.05179e-11
-3.90176e-12
-6.86882e-12
-3.65053e-12
-3.38928e-12
-3.48099e-12
-3.39199e-12
-1.39019e-10
-2.49613e-11
-1.26705e-10
-2.45462e-11
-1.14734e-10
-2.38644e-11
-1.03219e-10
-2.2958e-11
-9.22502e-11
-2.18701e-11
-8.18981e-11
-2.06436e-11
-7.22112e-11
-1.932e-11
-6.32185e-11
-1.79384e-11
-5.49304e-11
-1.65347e-11
-4.73406e-11
-1.51423e-11
-4.0428e-11
-1.37911e-11
-3.41587e-11
-1.25082e-11
-2.84876e-11
-1.13175e-11
-2.33589e-11
-1.02388e-11
-1.87085e-11
-9.28807e-12
-1.44649e-11
-8.4775e-12
-1.0552e-11
-7.81671e-12
-6.89068e-12
-7.31416e-12
-3.39902e-12
-6.97671e-12
-6.79304e-12
-1.38916e-10
-3.75516e-11
-1.26535e-10
-3.69181e-11
-1.14508e-10
-3.58828e-11
-1.02947e-10
-3.45098e-11
-9.19443e-11
-3.28647e-11
-8.15678e-11
-3.10122e-11
-7.18664e-11
-2.90145e-11
-6.28682e-11
-2.69303e-11
-5.45829e-11
-2.4814e-11
-4.70034e-11
-2.27157e-11
-4.01078e-11
-2.06807e-11
-3.38615e-11
-1.87495e-11
-2.82183e-11
-1.69576e-11
-2.31216e-11
-1.53343e-11
-1.85061e-11
-1.39033e-11
-1.42999e-11
-1.26833e-11
-1.04265e-11
-1.16897e-11
-6.80641e-12
-1.09352e-11
-3.35707e-12
-1.0429e-11
-1.01516e-11
-1.38758e-10
-5.02599e-11
-1.26276e-10
-4.93921e-11
-1.14165e-10
-4.79866e-11
-1.02536e-10
-4.61302e-11
-9.14812e-11
-4.39114e-11
-8.10685e-11
-4.14168e-11
-7.13454e-11
-3.87299e-11
-6.23392e-11
-3.59293e-11
-5.40584e-11
-3.30878e-11
-4.64947e-11
-3.02723e-11
-3.96251e-11
-2.75436e-11
-3.34136e-11
-2.49554e-11
-2.78125e-11
-2.25545e-11
-2.27639e-11
-2.03801e-11
-1.82012e-11
-1.84635e-11
-1.40515e-11
-1.68304e-11
-1.02379e-11
-1.55016e-11
-6.67988e-12
-1.44937e-11
-3.29363e-12
-1.38174e-11
-1.34458e-11
-1.38541e-10
-6.31263e-11
-1.25925e-10
-6.20022e-11
-1.13701e-10
-6.0204e-11
-1.01982e-10
-5.78418e-11
-9.08576e-11
-5.5027e-11
-8.03968e-11
-5.18691e-11
-7.06454e-11
-4.84731e-11
-6.16289e-11
-4.49377e-11
-5.33546e-11
-4.13545e-11
-4.58126e-11
-3.78072e-11
-3.89781e-11
-3.43715e-11
-3.28135e-11
-3.11147e-11
-2.7269e-11
-2.80949e-11
-2.22848e-11
-2.53607e-11
-1.77929e-11
-2.29519e-11
-1.37194e-11
-2.09006e-11
-9.98599e-12
-1.92332e-11
-6.51085e-12
-1.79694e-11
-3.20864e-12
-1.71209e-11
-1.66541e-11
-1.3826e-10
-7.61908e-11
-1.25476e-10
-7.47826e-11
-1.1311e-10
-7.25634e-11
-1.01278e-10
-6.96671e-11
-9.00682e-11
-6.62289e-11
-7.95479e-11
-6.23811e-11
-6.97617e-11
-5.82511e-11
-6.07332e-11
-5.39582e-11
-5.24679e-11
-4.96126e-11
-4.49538e-11
-4.5315e-11
-3.81641e-11
-4.11561e-11
-3.20587e-11
-3.72162e-11
-2.65856e-11
-3.35649e-11
-2.16828e-11
-3.02606e-11
-1.72802e-11
-2.73512e-11
-1.33026e-11
-2.48757e-11
-9.6701e-12
-2.28651e-11
-6.29878e-12
-2.13414e-11
-3.10188e-12
-2.03179e-11
-1.9755e-11
-1.37908e-10
-8.94916e-11
-1.24921e-10
-8.77665e-11
-1.12386e-10
-8.50928e-11
-1.00418e-10
-8.16285e-11
-8.91064e-11
-7.75334e-11
-7.85156e-11
-7.29639e-11
-6.86886e-11
-6.80702e-11
-5.9647e-11
-6.29924e-11
-5.13937e-11
-5.78598e-11
-4.39143e-11
-5.27897e-11
-3.71793e-11
-4.78877e-11
-3.11461e-11
-4.32475e-11
-2.57597e-11
-3.89499e-11
-2.09556e-11
-3.50632e-11
-1.66615e-11
-3.16437e-11
-1.28001e-11
-2.87366e-11
-9.28927e-12
-2.63769e-11
-6.04298e-12
-2.45886e-11
-2.97312e-12
-2.33871e-11
-2.27268e-11
-1.37477e-10
-1.03066e-10
-1.24252e-10
-1.00987e-10
-1.1152e-10
-9.78193e-11
-9.93948e-11
-9.37473e-11
-8.79641e-11
-8.89565e-11
-7.72923e-11
-8.3628e-11
-6.74193e-11
-7.79356e-11
-5.83641e-11
-7.2041e-11
-5.01264e-11
-6.60924e-11
-4.2689e-11
-6.02238e-11
-3.60195e-11
-5.45555e-11
-3.00719e-11
-4.91944e-11
-2.47883e-11
-4.42333e-11
-2.01009e-11
-3.97503e-11
-1.59349e-11
-3.58099e-11
-1.22103e-11
-3.24629e-11
-8.84231e-12
-2.97474e-11
-5.74267e-12
-2.76894e-11
-2.8221e-12
-2.63067e-11
-2.55481e-11
-1.36957e-10
-1.16953e-10
-1.23461e-10
-1.14477e-10
-1.10502e-10
-1.1077e-10
-9.81972e-11
-1.06045e-10
-8.66322e-11
-1.00514e-10
-7.58694e-11
-9.43831e-11
-6.59459e-11
-8.78517e-11
-5.68772e-11
-8.11034e-11
-4.86595e-11
-7.43055e-11
-4.12723e-11
-6.76081e-11
-3.46795e-11
-6.11467e-11
-2.88319e-11
-5.50414e-11
-2.36678e-11
-4.93971e-11
-1.91161e-11
-4.43023e-11
-1.50984e-11
-3.98292e-11
-1.15316e-11
-3.60331e-11
-8.32794e-12
-3.29545e-11
-5.39709e-12
-3.06216e-11
-2.64855e-12
-2.9055e-11
-2.81969e-11
-1.36339e-10
-1.31197e-10
-1.22534e-10
-1.28274e-10
-1.09321e-10
-1.23976e-10
-9.68145e-11
-1.18545e-10
-8.50998e-11
-1.1222e-10
-7.42368e-11
-1.05239e-10
-6.42591e-11
-9.78222e-11
-5.5178e-11
-9.01783e-11
-4.69855e-11
-8.24934e-11
-3.96572e-11
-7.4933e-11
-3.31536e-11
-6.76478e-11
-2.74212e-11
-6.07718e-11
-2.23945e-11
-5.44222e-11
-1.79981e-11
-4.86984e-11
-1.41497e-11
-4.36794e-11
-1.07622e-11
-3.94243e-11
-7.74488e-12
-3.59752e-11
-5.00554e-12
-3.33624e-11
-2.45219e-12
-3.16093e-11
-3.06507e-11
-1.35608e-10
-1.45846e-10
-1.2146e-10
-1.42417e-10
-1.07963e-10
-1.37467e-10
-9.52336e-11
-1.31269e-10
-8.33546e-11
-1.24093e-10
-7.2383e-11
-1.16204e-10
-6.23485e-11
-1.0785e-10
-5.32572e-11
-9.92636e-11
-4.50958e-11
-9.06497e-11
-3.78363e-11
-8.21882e-11
-3.1435e-11
-7.40451e-11
-2.58342e-11
-6.63687e-11
-2.09639e-11
-5.92891e-11
-1.67437e-11
-5.2917e-11
-1.30862e-11
-4.7338e-11
-9.90017e-12
-4.2613e-11
-7.09189e-12
-3.87855e-11
-4.56738e-12
-3.58882e-11
-2.23275e-12
-3.39461e-11
-3.28862e-11
-1.34751e-10
-1.60943e-10
-1.20223e-10
-1.56942e-10
-1.06414e-10
-1.51271e-10
-9.344e-11
-1.44238e-10
-8.13826e-11
-1.36145e-10
-7.0295e-11
-1.27286e-10
-6.02023e-11
-1.17937e-10
-5.11041e-11
-1.08356e-10
-4.29809e-11
-9.87682e-11
-3.58011e-11
-8.93637e-11
-2.95164e-11
-8.03252e-11
-2.40648e-11
-7.18157e-11
-1.93714e-11
-6.39785e-11
-1.53494e-11
-5.69369e-11
-1.19053e-11
-5.07821e-11
-8.94362e-12
-4.55754e-11
-6.3678e-12
-4.13613e-11
-4.08204e-12
-3.81746e-11
-1.98997e-12
-3.60413e-11
-3.48792e-11
-1.33751e-10
-1.7653e-10
-1.18805e-10
-1.71881e-10
-1.04656e-10
-1.65415e-10
-9.14171e-11
-1.57472e-10
-7.91682e-11
-1.4839e-10
-6.79582e-11
-1.38492e-10
-5.78075e-11
-1.28084e-10
-4.87076e-11
-1.17452e-10
-4.06304e-11
-1.06842e-10
-3.35421e-11
-9.64489e-11
-2.73897e-11
-8.64745e-11
-2.21061e-11
-7.70964e-11
-1.76116e-11
-6.84708e-11
-1.38113e-11
-6.07365e-11
-1.06041e-11
-5.39894e-11
-7.8905e-12
-4.82883e-11
-5.57142e-12
-4.36792e-11
-3.54892e-12
-4.01977e-11
-1.7236e-12
-3.78702e-11
-3.66051e-11
-1.32589e-10
-1.92648e-10
-1.17189e-10
-1.87271e-10
-1.02671e-10
-1.79925e-10
-8.9147e-11
-1.70989e-10
-7.66942e-11
-1.60838e-10
-6.53568e-11
-1.49826e-10
-5.51503e-11
-1.38288e-10
-4.60556e-11
-1.26545e-10
-3.80328e-11
-1.14863e-10
-3.10492e-11
-1.03432e-10
-2.5046e-11
-9.24776e-11
-1.99505e-11
-8.21924e-11
-1.56788e-11
-7.27442e-11
-1.21252e-11
-6.42926e-11
-9.17945e-12
-5.69368e-11
-6.7387e-12
-5.07288e-11
-4.7014e-12
-4.57157e-11
-2.96733e-12
-4.19331e-11
-1.43343e-12
-3.94078e-11
-3.80398e-11
-1.31245e-10
-2.09353e-10
-1.15352e-10
-2.03154e-10
-1.00437e-10
-1.94833e-10
-8.66096e-11
-1.84812e-10
-7.39417e-11
-1.73502e-10
-6.2473e-11
-1.61292e-10
-5.22153e-11
-1.48544e-10
-4.31359e-11
-1.35623e-10
-3.51758e-11
-1.22823e-10
-2.83116e-11
-1.10297e-10
-2.24756e-11
-9.83155e-11
-1.75894e-11
-8.70818e-11
-1.35668e-11
-7.67713e-11
-1.02871e-11
-6.7577e-11
-7.62818e-12
-5.95987e-11
-5.48603e-12
-5.28717e-11
-3.75621e-12
-4.74462e-11
-2.33635e-12
-4.33555e-11
-1.11943e-12
-4.06276e-11
-3.91591e-11
-1.29696e-10
-2.26699e-10
-1.13273e-10
-2.19573e-10
-9.79324e-11
-2.10171e-10
-8.37828e-11
-1.9896e-10
-7.08899e-11
-1.86395e-10
-5.92868e-11
-1.72895e-10
-4.89861e-11
-1.58844e-10
-3.99366e-11
-1.44673e-10
-3.20453e-11
-1.30715e-10
-2.53175e-11
-1.17025e-10
-1.96683e-11
-1.03966e-10
-1.5013e-11
-9.17396e-11
-1.12695e-11
-8.05183e-11
-8.29363e-12
-7.05561e-11
-5.94735e-12
-6.19464e-11
-4.13043e-12
-5.46888e-11
-2.73414e-12
-4.88436e-11
-1.65488e-12
-4.4437e-11
-7.81995e-13
-4.15011e-11
-3.99392e-11
-1.27914e-10
-2.44733e-10
-1.10922e-10
-2.36566e-10
-9.51301e-11
-2.25965e-10
-8.06418e-11
-2.13451e-10
-6.75156e-11
-1.99523e-10
-5.57748e-11
-1.84638e-10
-4.5444e-11
-1.69177e-10
-3.64469e-11
-1.53671e-10
-2.86237e-11
-1.38539e-10
-2.20531e-11
-1.23596e-10
-1.6612e-11
-1.09408e-10
-1.22079e-11
-9.61449e-11
-8.77892e-12
-8.39488e-11
-6.14065e-12
-7.31952e-11
-4.13201e-12
-6.39548e-11
-2.66791e-12
-5.61529e-11
-1.63136e-12
-4.98816e-11
-9.20375e-13
-4.51492e-11
-4.24071e-13
-4.19957e-11
-4.03607e-11
-1.2592e-10
-2.6349e-10
-1.08326e-10
-2.54161e-10
-9.20615e-11
-2.42233e-10
-7.72246e-11
-2.28291e-10
-6.38629e-11
-2.12887e-10
-5.19821e-11
-1.96521e-10
-4.16436e-11
-1.79518e-10
-3.27373e-11
-1.62581e-10
-2.49699e-11
-1.4631e-10
-1.85879e-11
-1.29983e-10
-1.33792e-11
-1.14622e-10
-9.24365e-12
-1.00286e-10
-6.17636e-12