/*--------------------------------*- C++ -*----------------------------------*\
| =========                 |                                                 |
| \\      /  F ield         | OpenFOAM: The Open Source CFD Toolbox           |
|  \\    /   O peration     | Version:  2.4.0                                 |
|   \\  /    A nd           | Web:      www.OpenFOAM.org                      |
|    \\/     M anipulation  |                                                 |
\*---------------------------------------------------------------------------*/
FoamFile
{
    version     2.0;
    format      ascii;
    class       volScalarField;
    location    "0.065";
    object      p;
}
// * * * * * * * * * * * * * * * * * * * * * * * * * * * * * * * * * * * * * //

dimensions      [1 -1 -2 0 0 0 0];

internalField   nonuniform List<scalar> 
3600
(
99.709
100.74
102.324
103.889
105.204
106.039
106.222
105.725
104.584
102.866
100.692
98.3116
96.0252
93.6024
92.5147
90.099
91.1395
91.0582
92.6057
90.1777
84.9461
83.7007
87.0446
94.2865
96.6749
94.8883
94.887
96.1443
95.3568
97.7233
96.4463
97.4779
99.0647
100.631
101.948
102.786
102.971
102.472
101.328
99.6065
97.4223
95.0314
92.736
90.302
89.1816
86.7466
87.5675
87.4896
88.6767
85.9914
78.3172
75.6244
79.8271
87.0303
89.1294
88.2452
87.9987
88.874
90.1783
91.7715
93.1786
94.2125
95.8037
97.374
98.6964
99.539
99.728
99.2297
98.0813
96.352
94.1507
91.7391
89.4261
86.9725
85.8178
83.3112
83.9762
83.4762
84.4595
81.5613
72.3144
69.6675
73.6859
81.0624
84.7298
84.7353
84.912
85.6934
86.7128
87.3916
89.9059
90.9433
92.5413
94.1174
95.448
96.3
96.4954
95.9987
94.8459
93.1046
90.8786
88.436
86.0963
83.6172
82.4311
79.8385
80.4238
79.2647
80.1464
76.4255
66.9954
64.6166
68.5819
76.342
81.1052
82.1411
83.0434
83.4515
84.3148
84.6812
86.6284
87.6705
89.2775
90.8615
92.2033
93.0681
93.2729
92.7792
91.6218
89.8645
87.6059
85.1217
82.745
80.2374
79.0138
76.3271
77.0096
74.8746
76.0207
72.2666
63.8306
62.149
66.8074
74.5242
79.2612
80.4113
80.7747
81.0995
81.626
81.9351
83.3461
84.3939
86.0124
87.6062
88.9621
89.8435
90.0608
89.5716
88.4093
86.6321
84.3329
81.7959
79.3704
76.8327
75.5431
72.7487
73.3864
70.7719
71.456
68.7602
62.6856
62.8286
67.5689
74.0397
76.6286
77.7083
78.0467
78.4547
78.8598
79.3763
80.0588
81.1136
82.7458
84.3514
85.7244
86.6262
86.8589
86.376
85.2086
83.4075
81.0595
78.4577
75.9711
73.4015
72.0068
69.0884
69.6431
66.7597
66.3111
65.4992
61.3112
61.6147
66.577
71.8278
74.4387
75.3436
75.4606
75.6473
76.2426
77.0785
76.7666
77.8295
79.4778
81.097
82.4903
83.4161
83.6675
83.1924
82.0199
80.1912
77.786
75.1061
72.5459
69.9473
68.4039
65.3805
65.6873
62.3632
60.8184
62.4923
59.1312
59.7541
63.9455
68.2042
72.2329
74.6956
74.6358
75.1867
75.7032
75.8926
73.4693
74.5416
76.2084
77.8431
79.2595
80.2132
80.4867
80.0211
78.8433
76.9835
74.5126
71.7397
69.0942
66.4775
64.7477
61.7396
61.4493
57.7112
56.0943
58.4801
55.9273
56.519
60.2731
64.5915
68.5063
72.5652
74.9181
75.7469
75.8798
75.426
70.1671
71.2499
72.9376
74.5894
76.032
77.0176
77.3165
76.8622
75.6792
73.7848
71.2396
68.3564
65.6167
62.9887
61.0513
58.1581
57.1588
54.065
51.5227
52.7876
51.451
52.1217
56.1613
60.5544
65.1278
69.2274
71.9528
73.3624
74.1063
73.9069
66.8598
67.9542
69.6652
71.336
72.8078
73.8293
74.1572
73.7159
72.528
70.5957
67.9678
64.9537
62.113
59.4689
57.3135
54.5526
52.8675
50.5421
47.0462
47.0994
46.494
47.8864
51.7334
56.036
61.1413
65.6723
68.9033
70.9084
71.7432
71.5751
63.5473
64.6546
66.3914
68.0826
69.5867
70.6483
71.0087
70.5825
69.3899
67.4202
64.6937
61.5281
58.5811
55.9139
53.5785
50.8146
48.545
46.2607
42.0814
41.5482
41.4558
43.6144
47.144
50.7579
55.7823
61.344
65.4176
68.3296
69.2609
69.1804
60.2297
61.351
63.1161
64.8292
66.3687
67.4744
67.8714
67.4622
66.2653
64.2561
61.422
58.0754
55.0165
52.333
49.8505
47.0235
44.1698
41.1259
37.1237
35.1236
35.4672
37.4151
41.2207
45.4683
51.3978
57.4634
61.3574
64.7066
65.4613
65.818
56.9068
58.0433
59.8393
61.5756
63.1536
64.3078
64.7454
64.3553
63.1543
61.1039
58.1543
54.5893
51.4168
48.7239
46.1403
43.1526
39.8096
36.0899
32.2409
27.7275
26.7168
29.4195
33.603
38.4422
46.2879
53.6962
57.4397
60.3162
61.0049
61.584
53.5785
54.7314
56.561
58.3216
59.9412
61.1484
61.6308
61.2621
60.0573
57.9643
54.8932
51.0611
47.7792
45.0944
42.4103
39.2454
35.714
30.9407
25.7648
19.1698
15.3654
16.3238
21.6965
30.7311
40.6796
48.0711
52.0931
54.7969
56.019
56.852
50.2449
51.4154
53.2811
55.0671
56.7314
57.9961
58.528
58.1829
56.9744
54.8382
51.6424
47.4788
44.1027
41.4491
38.6784
35.2964
31.9331
27.0434
17.444
8.04611
0.437336
1.2068
8.6608
21.2399
33.8976
43.2293
47.9642
50.0873
51.1473
52.244
46.9058
48.095
49.9998
51.8117
53.524
54.8509
55.437
55.118
53.9056
51.726
48.4071
43.8282
40.3884
37.7833
34.9676
31.4482
28.0537
24.3504
10.3184
-2.76497
-14.3619
-16.7908
-8.22945
9.69292
26.5379
37.1707
42.0586
45.0534
46.5828
47.5466
43.5611
44.7703
46.7169
48.5554
50.3187
51.7127
52.3583
52.0679
50.851
48.6279
45.1942
40.0927
36.644
34.0886
31.2758
27.6332
24.4239
19.5986
4.8624
-16.1922
-31.8461
-12.1385
-9.81029
-0.0316577
13.1409
24.4687
32.5779
38.336
41.141
41.9818
40.2108
41.4411
43.4325
45.2979
47.1154
48.5813
49.2919
49.0331
47.8102
45.5439
42.0143
36.252
32.8776
30.3864
27.6209
23.6355
21.1534
14.2079
1.08
-17.8283
-17.8881
-19.8248
-19.8594
-0.728322
3.48874
14.3868
24.4514
31.3667
34.8092
35.9688
36.8547
38.1074
40.1466
42.0389
43.9137
45.4567
46.2382
46.0139
44.7827
42.4731
38.8805
32.283
29.0937
26.6982
23.9833
19.6709
17.4101
10.1517
-4.83427
-2.77245
-6.698
-20.0732
-10.4461
-0.0130735
2.86348
10.9012
19.8695
26.116
29.265
30.5013
33.4927
34.7691
36.8593
38.7781
40.7134
42.3387
43.1976
43.0112
41.7679
39.4136
35.7983
28.1683
25.3023
23.0202
20.2142
15.9642
13.0961
6.8999
-2.46179
0.76108
-0.0159673
-3.88413
-2.26692
4.13736
4.66047
10.6326
17.6086
23.1675
26.0472
26.8179
30.1247
31.4261
33.5705
35.5151
37.5141
39.227
40.1722
40.0256
38.7648
36.3627
32.6889
23.9812
21.5172
19.3568
16.4626
12.24
8.71129
-1.52598
0.0446419
0.711476
0.371659
-1.44766
1.31219
9.33116
7.39318
12.0493
17.3812
21.9701
24.4558
25.2326
26.7507
28.0784
30.2803
32.2497
34.3156
36.1213
37.1589
37.0579
35.7715
33.3194
29.6757
19.5515
17.7354
15.7194
12.7645
8.35535
2.25315
-0.315289
0.19446
0.533268
0.0512252
-0.565005
1.9848
12.148
11.1712
14.9803
19.0454
22.6439
24.3256
24.6366
23.3703
24.7258
26.9888
28.9814
31.1175
33.0213
34.159
34.1094
32.787
30.2801
26.7755
14.8323
13.9698
12.1314
8.96202
4.03486
-0.595117
0.0975942
0.164073
0.309049
0.0547042
-0.217204
-0.0558475
4.8636
14.5346
17.5232
21.125
23.3997
24.5074
24.1408
19.9836
21.3683
23.696
25.7098
27.9194
29.9268
31.1737
31.1811
29.8068
27.2429
24.0121
9.82761
10.2963
8.69938
4.23187
-0.000255521
-0.204431
0.0161851
0.113939
0.158966
0.147223
-0.0479294
0.151174
2.50359
13.4541
18.6972
21.8954
22.9025
23.3918
23.092
16.5903
18.0059
20.4019
22.4345
24.721
26.8372
28.202
28.2742
26.8306
24.2153
21.3446
4.42274
6.65472
5.05116
0.702019
-0.0669713
-0.13705
-0.0142797
0.0904014
0.114499
0.142793
-0.0085082
0.0710166
0.0821169
1.37862
9.77092
17.368
21.6595
22.0598
22.2392
13.1902
14.6383
17.1066
19.155
21.522
23.7523
25.246
25.392
23.8523
21.1766
18.6166
-1.29709
2.88009
0.860304
-0.0339408
-0.0667568
-0.0993804
-0.0480594
0.0217209
0.0478312
0.0750449
-0.00912841
0.0386761
-0.0362017
-0.140206
0.361454
1.79532
5.40317
9.94253
13.6626
9.78356
11.2668
13.8102
15.871
18.3221
20.6713
22.3042
22.534
20.8583
18.1495
15.7532
-6.92281
-1.60586
-0.12222
0.0209508
-0.0780291
-0.119377
-0.08371
-0.0321171
-0.0159249
0.00107981
-0.0319912
-0.000689719
-0.05155
-0.0692237
0.00902844
0.0488555
0.0781993
0.0797584
0.109919
6.36729
7.88272
10.5125
12.5813
15.1201
17.5931
19.377
19.7024
17.8596
15.2265
12.6156
-13.5754
-1.14498
0.341586
0.016515
-0.0761454
-0.132592
-0.125818
-0.101072
-0.0757692
-0.0607529
-0.0649815
-0.0385275
-0.0321128
-0.0352878
-0.000395726
0.0116438
0.0231904
0.0449117
0.0597532
2.94799
4.53214
7.21358
9.28572
11.9176
14.5193
16.4672
16.9134
14.8327
12.4819
10.9308
-19.0848
-0.451815
0.30512
0.03943
-0.0833838
-0.147653
-0.154242
-0.147966
-0.12457
-0.109587
-0.0999692
-0.0630397
-0.0358667
-0.0297846
-0.00768387
0.0115949
0.0299399
0.0469235
0.0585371
97.5688
96.462
96.821
95.3172
95.1379
96.8269
94.4234
87.1816
83.78
84.9993
90.1812
92.5781
91.0379
91.123
90.1205
92.5571
93.6854
96.1399
98.4613
100.865
103.047
104.748
105.855
106.313
106.095
105.236
103.91
102.34
100.754
99.7196
91.7829
90.5277
89.172
88.2217
88.4017
89.2008
87.1863
79.9574
75.7465
78.3733
85.9919
88.644
87.4682
87.5493
86.7685
89.2235
90.3855
92.8507
95.1816
97.5968
99.7884
101.492
102.603
103.061
102.841
101.981
100.652
99.0808
97.4922
96.4569
87.4177
86.9153
85.9398
85.126
84.9134
85.0761
81.2757
73.8503
69.8227
72.4114
81.5543
84.4098
83.4485
83.9556
83.3343
85.8586
87.0568
89.541
91.8903
94.3265
96.5352
98.2461
99.3602
99.818
99.5945
98.7288
97.3947
95.8197
94.2268
93.1891
84.6767
84.3997
83.5838
83.0948
82.1958
81.4028
76.5374
68.7533
64.7747
67.1008
76.4192
80.0787
79.2325
80.3991
79.8636
82.4702
83.7027
86.2115
88.5887
91.0563
93.2896
95.0117
96.1292
96.5851
96.355
95.4801
94.1379
92.5573
90.9577
89.9164
81.9398
81.6451
81.1405
80.8421
80.4532
79.5549
74.7451
66.9877
62.2991
63.9475
72.2498
75.9318
74.8373
76.9817
76.353
79.0505
80.3245
82.8605
85.2764
87.7862
90.0521
91.7889
92.91
93.3622
93.1225
92.2349
90.8817
89.2934
87.6848
86.6389
79.401
78.9635
78.5928
78.2181
77.9022
76.8864
74.2829
67.7664
62.9303
62.7885
68.7187
71.3188
70.7391
73.3494
72.7759
75.5763
76.9216
79.4862
81.9532
84.5164
86.8229
88.578
89.7026
90.1494
89.8971
88.9931
87.6261
86.0282
84.4083
83.3565
77.1447
76.4687
75.9718
75.7567
75.5425
74.584
72.0161
66.7742
61.7342
61.4007
65.4543
66.1235
66.7273
69.5986
69.1171
72.0358
73.4926
76.0873
78.6181
81.247
83.6024
85.3792
86.5071
86.9468
86.6787
85.7546
84.3708
82.7615
81.128
80.0691
75.8903
75.7154
75.312
74.8336
74.7038
72.2135
68.233
64.0297
59.8358
59.2081
62.453
60.793
62.339
65.634
65.4115
68.4287
70.0409
72.6624
75.2703
77.9782
80.391
82.1926
83.3237
83.7545
83.4675
82.5196
81.116
79.4934
77.844
76.7768
75.383
75.7862
75.6211
74.6578
72.4637
68.4783
64.6162
60.2714
56.522
55.9727
58.3932
55.9913
57.6897
61.383
61.7737
64.7689
66.5739
69.2111
71.9084
74.7103
77.1889
79.0184
80.1525
80.5726
80.2632
79.2878
77.8615
76.2238
74.5561
73.4795
73.8864
74.1961
73.3526
71.7555
69.0844
65.0363
60.5437
56.1031
52.0659
51.4463
52.656
51.3646
54.0338
57.0806
58.1953
61.0699
63.0883
65.7338
68.5302
71.4438
73.9969
75.8571
76.9936
77.4012
77.0661
76.0592
74.6073
72.9528
71.2644
70.1771
71.5369
71.7333
70.9105
68.8002
65.5641
61.0561
55.9761
51.6712
47.7733
46.4563
46.9393
46.8268
50.482
52.7733
54.5915
57.3313
59.5718
62.2303
65.1332
68.1793
70.8155
72.7087
73.8474
74.2404
73.876
72.8337
71.3531
69.6804
67.9688
66.8697
69.1971
69.1651
68.1683
65.2679
61.2068
55.6799
50.6871
47.0923
43.5286
41.3855
41.3744
41.8204
46.162
48.4453
50.8507
53.5981
56.0198
58.6983
61.714
64.9153
67.6474
69.5737
70.7138
71.0903
70.693
69.6112
68.099
66.4064
64.6693
63.5571
65.8189
65.2885
64.4456
61.1438
57.3138
51.2891
45.4621
41.17
37.3538
35.4017
34.8754
36.7653
40.9803
44.0867
47.0596
49.8731
52.4417
55.1333
58.2683
61.6551
64.4917
66.4522
67.5932
67.9512
67.5169
66.3917
64.8448
63.1309
61.3657
60.2393
61.5216
60.8519
60.1236
57.3256
53.6124
46.2107
38.42
33.6355
29.4032
26.5616
27.3612
31.8057
35.9028
39.7627
43.1853
46.1647
48.8349
51.5327
54.7895
58.4006
61.349
63.3445
64.4858
64.823
64.3479
63.1748
61.5903
59.854
58.0582
56.9162
56.8689
55.9233
54.647
51.9446
47.9232
40.6878
30.8765
21.8634
16.4014
15.0199
18.6453
25.2857
30.6537
35.7045
39.256
42.439
45.2072
47.8935
51.2687
55.1547
58.2202
60.2507
61.3918
61.7061
61.1858
59.9606
58.3354
56.5755
54.7465
53.5878
52.26
51.027
49.9503
47.8467
43.2189
33.9984
21.5409
8.95152
1.28427
-0.334564
7.37862
17.0033
27.2572
31.9571
35.2756
38.7197
41.5633
44.2147
47.6939
51.9214
55.1059
57.1709
58.3115
58.6006
58.0306
56.7489
55.0799
53.2955
51.4306
50.2539
47.5303
46.3724
44.8966
41.9966
37.1922
26.5742
9.97382
-7.75169
-16.2957
-13.8824
-3.64972
9.7722
24.331
28.0951
31.4119
35.0332
37.8985
40.4975
44.0507
48.7065
52.0068
54.1051
55.2452
55.5067
54.8822
53.5394
51.8236
50.014
48.1105
46.9145
41.9241
40.9609
38.1546
32.5446
24.444
13.1802
0.487612
-9.73708
-11.4112
-32.1609
-17.2343
4.1374
19.3536
24.5366
27.5914
31.3687
34.2049
36.7489
40.3225
45.5178
48.9231
51.053
52.1933
52.4247
51.7406
50.3319
48.5662
46.731
44.786
43.5695
35.8762
34.6948
31.1562
24.4183
14.3003
3.6581
0.0931633
-19.7795
-19.5659
-20.3986
-17.6796
0.0782452
13.9221
21.3514
23.5572
27.7356
30.5025
32.9756
36.4891
42.3666
45.8546
48.0142
49.156
49.3547
48.6055
47.1262
45.3076
43.4465
41.4571
40.2189
30.4491
29.196
26.015
19.723
10.7539
2.85402
-0.249303
-11.9344
-16.8571
-5.97056
-2.93164
-5.8707
9.92649
17.6649
19.5463
24.1202
26.8086
29.1813
32.5268
39.2673
42.8003
44.9881
46.1339
46.2971
45.4768
43.9219
42.0474
40.1605
38.1238
36.8624
26.9019
26.0472
23.3666
17.3772
10.4058
4.48597
3.38384
-6.14786
-5.3373
0.0741155
0.67059
-3.01964
6.77264
13.4445
15.8106
20.3774
23.1204
25.3767
28.4177
36.2277
39.7584
41.9736
43.1276
43.2521
42.3544
40.7189
38.7855
36.8731
34.7859
33.5001
25.321
24.6571
22.458
17.4849
11.8995
6.95613
8.35822
-2.44704
-1.36622
0.285145
0.579404
-0.0930084
-1.71669
9.16215
12.0228
16.6618
19.4488
21.5745
24.231
33.1739
36.7255
38.9693
40.1377
40.224
39.2379
37.5168
35.5213
33.5842
31.4434
30.1317
24.6554
24.537
22.9731
19.7037
15.1106
10.4648
11.1543
0.583329
-0.454488
0.0940114
0.466387
0.112625
-0.371376
2.57339
8.03167
13.0138
15.8057
17.7685
19.7966
30.2311
33.7001
35.9731
37.165
37.2057
36.1271
34.3153
32.2547
30.294
28.0961
26.7572
24.0599
24.2857
23.1816
21.7003
17.8357
13.8922
4.02373
0.269594
-0.203937
0.0558353
0.304485
0.12251
0.0632002
-0.5644
3.76422
9.26866
12.2103
13.9684
15.0668
27.4203
30.6771
32.9836
34.2105
34.2004
33.0216
31.114
28.9852
27.0025
24.7441
23.3764
22.9715
22.7434
22.3777
21.6374
18.727
13.1398
2.59095
0.598266
0.0468152
0.0887405
0.173351
0.089148
-0.0062929
-0.193377
-0.0824554
4.55143
8.77059
10.2472
10.0445
24.7697
27.653
29.9954
31.2755
31.2094
29.9212
27.9127
25.7125
23.7097
21.3873
19.9891
22.1279
21.2172
20.7729
16.5433
9.8272
1.15279
0.0315481
0.281501
0.119183
0.134757
0.118882
0.0704304
-0.0292965
-0.127802
-0.0576146
0.833243
5.137
6.54664
4.60947
22.2423
24.6328
27.0079
28.3608
28.2318
26.8253
24.7107
22.436
20.4156
18.0256
16.5952
13.262
8.84399
4.42214
1.65654
0.349584
-0.202072
-0.0400722
0.151695
0.0876551
0.122892
0.0479162
0.00869393
-0.0581319
-0.0863374
-0.0559622
-0.0528305
0.988432
2.70749
-1.15175
19.6791
21.5926
24.0144
25.47
25.2695
23.7336
21.5081
19.1553
17.1205
14.6589
13.1945
0.0979215
0.0697716
0.0377623
0.0219893
-0.00196795
-0.106651
-0.0625891
0.062557
0.0162768
0.0501716
-0.0143814
-0.0392261
-0.086197
-0.102877
-0.0664032
0.00263109
-0.0795503
-1.80206
-6.80052
16.9966
18.551
21.0007
22.6028
22.3212
20.6455
18.3044
15.8703
13.8242
11.2882
9.78721
0.0585978
0.0425512
0.0118057
-0.00599317
-0.0194046
-0.058382
-0.032589
-0.00102668
-0.0471562
-0.0323915
-0.0753578
-0.102955
-0.112954
-0.105135
-0.0604546
0.00143899
0.348687
-1.23675
-13.4262
14.06
15.597
17.977
19.7619
19.3873
17.5595
15.0984
12.5796
10.5267
7.90512
6.37023
0.056302
0.0431967
0.0255934
0.00471713
-0.0194545
-0.0422242
-0.029338
-0.0386682
-0.0929469
-0.0965647
-0.125361
-0.15138
-0.14383
-0.124362
-0.0682255
0.0260419
0.302495
-0.448954
-19.1573
12.5811
12.8032
14.9204
16.9643
16.4706
14.4774
11.8918
9.28314
7.22795
4.55579
2.95018
0.579701
1.94735
4.73276
6.80347
9.50508
12.206
14.2889
14.843
12.4847
10.7246
6.34667
6.43938
-0.174327
0.259005
0.0479735
-0.0802358
-0.152763
-0.179222
-0.179112
-0.151763
-0.138505
-0.117687
-0.0696141
-0.0423215
-0.0303799
-0.00857845
0.0104793
0.0245473
0.0335709
0.0384788
0.0326898
1.0915
3.11143
5.06765
7.81989
10.5895
12.7713
13.3985
10.8381
9.34101
5.58584
0.133552
-0.00380809
0.231097
0.0483122
-0.0805983
-0.159668
-0.195034
-0.204735
-0.169658
-0.155009
-0.124593
-0.0711141
-0.0458536
-0.0319484
-0.0111645
0.00643193
0.0186728
0.0261407
0.030196
-0.142397
0.532757
1.9738
3.47105
6.07685
8.86203
11.1332
11.872
9.10846
7.90538
-11.6205
-0.429485
0.0456596
0.216072
0.0453302
-0.0823055
-0.170884
-0.210382
-0.224502
-0.186271
-0.167644
-0.128333
-0.0733315
-0.0502009
-0.0360023
-0.0172738
-0.000592227
0.0113673
0.0186221
0.0221634
-0.0840269
0.16047
0.957881
1.91501
4.28076
7.01344
9.43309
10.7586
7.21178
5.71378
-7.82841
-0.0174307
0.0630683
0.197798
0.046582
-0.0856722
-0.179379
-0.22597
-0.241325
-0.202314
-0.175895
-0.13021
-0.0774801
-0.0559708
-0.0422153
-0.025188
-0.00915703
0.0027021
0.00986298
0.0131464
-0.0798097
-0.0725596
0.0952853
0.596141
2.46403
4.96587
7.41505
8.92828
4.91651
2.58549
-1.3293
0.0908377
0.0558358
0.166837
0.040596
-0.0898467
-0.189092
-0.241415
-0.256429
-0.214462
-0.18116
-0.130934
-0.0815152
-0.0629886
-0.0500908
-0.0340836
-0.0187745
-0.00755566
-0.000722566
0.00237979
-0.082758
-0.0868401
-0.116939
0.0173784
0.94433
2.78089
5.11789
6.70488
1.49345
0.0204278
0.123454
0.07981
0.055549
0.13621
0.0262025
-0.0947653
-0.196568
-0.255511
-0.269334
-0.222185
-0.182673
-0.129775
-0.0867973
-0.0705603
-0.0580184
-0.0434304
-0.0297905
-0.019282
-0.0126559
-0.00973832
-0.0890977
-0.089232
-0.12286
-0.159063
0.0607005
0.842984
2.50446
3.96167
-2.90447
-0.118246
-0.0454402
0.0770267
0.0456273
0.106591
0.0181195
-0.0995559
-0.202627
-0.266624
-0.280223
-0.229715
-0.165183
-0.123595
-0.0909769
-0.0782921
-0.0655761
-0.0529638
-0.0410928
-0.0315554
-0.0253714
-0.0223569
-0.0961631
-0.0922433
-0.125738
-0.18345
-0.15973
-0.0702297
0.279366
0.578615
0.294322
-0.45874
-0.0482442
0.0621582
0.0367624
0.0794188
0.00947267
-0.103464
-0.205206
-0.272968
-0.28167
-0.234309
-0.159165
-0.10669
-0.0967966
-0.0847718
-0.073412
-0.0628161
-0.0522296
-0.0435604
-0.0379833
-0.0354913
-0.100947
-0.0958193
-0.130737
-0.187428
-0.164199
-0.154035
-0.204088
-0.239854
-0.36626
-0.395922
-0.0618158
0.0369537
0.0282884
0.0538244
-0.00608351
-0.10252
-0.206465
-0.271834
-0.27978
-0.22953
-0.157307
-0.102444
-0.0804787
-0.0902942
-0.0813098
-0.0723362
-0.0625287
-0.0547614
-0.0497983
-0.0476244
-0.105207
-0.0994315
-0.138126
-0.191654
-0.169085
-0.157489
-0.207025
-0.244737
-0.340311
-0.372849
-0.0757308
0.0131192
0.0169663
0.0314336
-0.0075323
-0.0992919
-0.189555
-0.261589
-0.264352
-0.207525
-0.147584
-0.103891
-0.082832
-0.0936223
-0.0878669
-0.0793485
-0.0710484
-0.0646874
-0.0602373
-0.0582244
-0.109777
-0.104687
-0.14288
-0.197794
-0.174659
-0.161421
-0.209945
-0.246838
-0.327871
-0.341715
-0.0889447
-0.0105893
0.00527168
0.0112272
-0.0182263
-0.0965285
-0.186672
-0.241392
-0.239745
-0.200105
-0.137558
-0.108911
-0.106985
-0.093961
-0.0927628
-0.0840828
-0.0776711
-0.0716624
-0.0683061
-0.0664602
-0.114646
-0.109986
-0.148082
-0.201466
-0.180611
-0.165863
-0.212657
-0.247227
-0.313822
-0.314025
-0.101393
-0.0317271
-0.00816709
-0.00702055
-0.038235
-0.096008
-0.169207
-0.212938
-0.208484
-0.176581
-0.142977
-0.111851
-0.101879
-0.103046
-0.097533
-0.0862756
-0.0808899
-0.075417
-0.0728676
-0.0712107
-0.119825
-0.11588
-0.153381
-0.204419
-0.186499
-0.170836
-0.215033
-0.246054
-0.300392
-0.289022
-0.1118
-0.0512414
-0.0232584
-0.0230504
-0.0430103
-0.0864843
-0.148241
-0.180998
-0.176006
-0.154663
-0.136259
-0.125225
-0.109756
-0.0967734
-0.0909055
-0.0852604
-0.0810158
-0.0764769
-0.073354
-0.071706
-0.125335
-0.122373
-0.158408
-0.206473
-0.191892
-0.176229
-0.216829
-0.244225
-0.286505
-0.267875
-0.121573
-0.0692941
-0.0384874
-0.0381172
-0.0542954
-0.0877337
-0.130023
-0.151678
-0.146399
-0.134345
-0.122825
-0.113195
-0.100013
-0.092377
-0.0838669
-0.0819644
-0.0787257
-0.0734473
-0.0698038
-0.0682961
-0.131203
-0.12939
-0.163036
-0.207669
-0.19649
-0.181891
-0.218288
-0.242036
-0.273113
-0.250595
-0.130204
-0.0852527
-0.054805
-0.0523957
-0.0607852
-0.0799428
-0.116105
-0.130034
-0.123265
-0.114213
-0.109521
-0.102772
-0.0939157
-0.0826153
-0.0733623
-0.0743033
-0.0754911
-0.0677692
-0.063477
-0.0614812
-0.137458
-0.136862
-0.167293
-0.208237
-0.200341
-0.187607
-0.219658
-0.239793
-0.260947
-0.236954
-0.138844
-0.0989883
-0.0707611
-0.0662466
-0.0745329
-0.0833172
-0.0947021
-0.116642
-0.107772
-0.1001
-0.0983258
-0.0949003
-0.0894191
-0.0781062
-0.061804
-0.0647144
-0.0678351
-0.0617316
-0.0563962
-0.0520717
-0.144126
-0.144705
-0.17139
-0.208725
-0.203768
-0.193316
-0.221061
-0.237597
-0.250476
-0.226473
-0.146915
-0.111914
-0.0861514
-0.07977
-0.0840465
-0.0923442
-0.0958999
-0.0965078
-0.0949301
-0.0923932
-0.0916133
-0.0900449
-0.0852162
-0.0798594
-0.074996
-0.0690702
-0.0621668
-0.0565027
-0.0526632
-0.0487866
-0.15123
-0.152864
-0.175674
-0.209556
-0.207091
-0.199002
-0.222581
-0.235577
-0.241933
-0.218572
-0.154869
-0.123793
-0.101077
-0.0931322
-0.0940689
-0.0984097
-0.102674
-0.104159
-0.0893175
-0.0867751
-0.091125
-0.0888864
-0.0841147
-0.0789468
-0.0739349
-0.0684971
-0.0632633
-0.0597161
-0.0580496
-0.0563815
-0.158803
-0.161326
-0.180473
-0.21097
-0.21056
-0.204678
-0.22429
-0.233938
-0.235354
-0.213245
-0.162883
-0.135186
-0.115293
-0.106431
-0.104566
-0.106008
-0.107783
-0.108304
-0.103036
-0.0871207
-0.0957869
-0.0917616
-0.0868767
-0.082079
-0.0776682
-0.0735094
-0.0698966
-0.0673489
-0.0658911
-0.0652013
-0.16688
-0.170107
-0.18598
-0.21314
-0.214344
-0.210379
-0.226279
-0.232907
-0.23077
-0.210032
-0.171533
-0.146424
-0.128748
-0.119395
-0.115656
-0.114678
-0.114197
-0.113001
-0.110135
-0.105489
-0.099716
-0.0967386
-0.0926353
-0.088645
-0.0851168
-0.0820689
-0.0796196
-0.0778856
-0.0768582
-0.0763804
-0.175495
-0.179244
-0.192277
-0.216155
-0.218562
-0.216165
-0.228665
-0.232699
-0.228236
-0.209425
-0.179729
-0.157642
-0.141904
-0.132478
-0.127342
-0.124379
-0.122155
-0.119527
-0.115992
-0.111701
-0.10739
-0.103848
-0.100757
-0.097853
-0.0953235
-0.0932251
-0.0916041
-0.0904687
-0.0897793
-0.0894523
-0.184682
-0.188783
-0.199394
-0.220084
-0.223304
-0.222111
-0.231583
-0.233514
-0.227702
-0.211136
-0.187969
-0.169022
-0.155026
-0.145658
-0.13963
-0.135603
-0.132177
-0.128597
-0.124872
-0.121006
-0.117433
-0.114432
-0.111952
-0.109832
-0.108057
-0.106639
-0.105574
-0.104838
-0.10439
-0.104178
-0.194489
-0.198766
-0.20734
-0.224982
-0.228645
-0.228315
-0.235181
-0.235515
-0.229146
-0.214912
-0.196561
-0.180601
-0.168314
-0.159525
-0.153296
-0.148519
-0.144482
-0.140773
-0.137061
-0.13361
-0.13062
-0.128164
-0.126171
-0.124562
-0.123274
-0.122283
-0.121559
-0.121069
-0.120775
-0.12064
-0.20497
-0.209238
-0.216117
-0.23092
-0.234652
-0.234888
-0.239606
-0.238826
-0.232495
-0.22049
-0.205881
-0.192677
-0.182034
-0.17392
-0.167779
-0.162936
-0.158861
-0.155234
-0.151924
-0.148995
-0.146523
-0.14452
-0.142924
-0.141675
-0.14071
-0.13999
-0.139476
-0.139135
-0.138935
-0.138847
-0.216184
-0.220252
-0.225724
-0.237762
-0.241393
-0.241956
-0.244994
-0.243543
-0.237668
-0.227752
-0.216139
-0.205347
-0.196339
-0.189178
-0.18353
-0.178965
-0.175143
-0.171865
-0.16902
-0.166602
-0.164605
-0.163003
-0.161743
-0.160772
-0.160039
-0.159503
-0.159127
-0.158882
-0.158742
-0.158683
-0.228201
-0.231847
-0.236204
-0.245643
-0.248948
-0.24965
-0.25146
-0.249725
-0.244592
-0.23662
-0.227527
-0.218924
-0.211528
-0.205455
-0.20053
-0.196506
-0.19317
-0.190372
-0.188024
-0.186082
-0.184509
-0.183262
-0.182291
-0.181552
-0.181001
-0.180603
-0.180328
-0.180151
-0.180051
-0.180012
-0.241095
-0.244176
-0.247502
-0.25459
-0.257393
-0.258107
-0.259094
-0.257401
-0.25321
-0.247062
-0.240156
-0.233532
-0.227712
-0.222826
-0.218801
-0.2155
-0.212784
-0.210547
-0.208714
-0.207228
-0.206042
-0.205112
-0.204396
-0.203855
-0.203456
-0.203169
-0.202973
-0.202849
-0.20278
-0.202755
-0.254952
-0.257323
-0.259678
-0.264621
-0.266801
-0.267447
-0.267955
-0.266572
-0.263464
-0.259059
-0.254144
-0.249377
-0.245121
-0.241495
-0.238482
-0.236011
-0.233996
-0.232356
-0.231035
-0.229982
-0.229155
-0.228514
-0.228025
-0.227658
-0.227389
-0.227198
-0.227068
-0.226986
-0.226941
-0.226926
-0.269868
-0.271357
-0.272796
-0.275743
-0.277227
-0.277762
-0.278062
-0.277201
-0.275292
-0.272594
-0.269567
-0.266591
-0.263897
-0.26158
-0.259652
-0.258079
-0.256812
-0.255806
-0.255015
-0.254392
-0.253909
-0.253537
-0.253256
-0.253047
-0.252894
-0.252785
-0.252711
-0.252665
-0.25264
-0.252632
-0.285959
-0.28647
-0.286952
-0.287952
-0.2887
-0.289092
-0.289366
-0.28919
-0.288592
-0.287642
-0.286506
-0.285337
-0.284248
-0.283302
-0.282522
-0.281904
-0.281423
-0.281083
-0.28084
-0.28065
-0.280503
-0.280392
-0.280309
-0.280248
-0.280204
-0.280173
-0.280152
-0.280139
-0.280132
-0.28013
0.0377853
0.0318848
0.0220904
0.00750254
-0.0128913
-0.0355175
-0.0339771
-0.0468499
-0.110143
-0.129417
-0.153102
-0.180506
-0.164143
-0.129094
-0.0630517
0.0355132
0.254343
-0.14743
5.96401
8.63602
10.9987
12.5462
14.8855
14.2869
12.1574
9.47604
6.80031
4.74733
1.97172
0.580833
0.0300782
0.0256911
0.0174265
0.00504964
-0.0116266
-0.0328728
-0.0348698
-0.0514192
-0.117745
-0.144069
-0.170458
-0.199331
-0.177065
-0.135343
-0.0633957
0.0365335
0.225902
0.0178688
-0.136559
7.03156
9.57504
10.8796
13.4362
12.7656
10.536
7.7886
5.06416
3.12639
1.11697
0.0331763
0.0223466
0.0189625
0.0112591
-0.000767754
-0.0167053
-0.0373485
-0.0242429
-0.0581775
-0.122217
-0.157738
-0.18885
-0.216934
-0.190694
-0.144214
-0.0647214
0.0369551
0.210857
0.0691407
-0.447046
-11.3057
8.09713
9.12627
11.9036
11.1235
8.80403
6.04573
3.4725
1.98829
0.55595
-0.143196
0.0133528
0.0103792
0.00308748
-0.0090609
-0.0254345
-0.0435158
-0.0428151
-0.0664951
-0.126828
-0.169228
-0.196111
-0.232267
-0.204124
-0.14141
-0.0667006
0.0366169
0.193365
0.0770539
-0.0542813
-8.14504
5.88876
7.20407
10.7956
9.41346
6.94848
4.24465
1.91435
0.967219
0.172721
-0.0820467
0.00251187
-0.00033774
-0.00726492
-0.0190372
-0.0349393
-0.0512375
-0.0581049
-0.0750363
-0.134034
-0.179055
-0.217915
-0.242598
-0.216059
-0.15856
-0.0697075
0.0319169
0.161996
0.0657773
0.0560861
-1.50423
2.83691
4.87785
8.95914
7.39452
4.89745
2.4219
0.58714
0.0938725
-0.0735241
-0.0790814
-0.00969543
-0.0125575
-0.0193103
-0.0301195
-0.0446312
-0.05883
-0.0670912
-0.0845303
-0.123321
-0.159592
-0.219716
-0.246871
-0.225326
-0.16256
-0.0731826
0.0245834
0.131431
0.0602718
0.0490839
0.0971874
0.0364079
1.4255
6.73393
5.09839
2.71908
0.908406
0.00857348
-0.119747
-0.0881064
-0.0819832
-0.0224186
-0.0255764
-0.0319802
-0.042036
-0.0546125
-0.067004
-0.0746961
-0.088032
-0.11786
-0.183449
-0.220568
-0.246663
-0.23157
-0.166531
-0.0771044
0.014215
0.101754
0.0476512
0.0494765
-0.0484167
-0.122071
-3.02189
3.98624
2.49549
0.807321
0.0468446
-0.163979
-0.125957
-0.0904884
-0.0879169
-0.0355942
-0.0384497
-0.0444296
-0.0535022
-0.0644868
-0.0751922
-0.0839207
-0.0926231
-0.108951
-0.152777
-0.214651
-0.242819
-0.23365
-0.172531
-0.0772637
0.00509044
0.0742815
0.036979
0.0364438
-0.0520408
-0.452901
0.288464
0.581247
0.27624
-0.0766608
-0.160146
-0.187056
-0.128861
-0.0934861
-0.0982728
-0.0478088
-0.0504057
-0.0558244
-0.0639905
-0.0737867
-0.0832143
-0.0904021
-0.0994387
-0.10664
-0.146636
-0.208752
-0.234589
-0.229947
-0.167911
-0.0774016
-0.00468498
0.0488471
0.0260017
0.0155412
-0.0675025
-0.391766
-0.380414
-0.245793
-0.208967
-0.155825
-0.164195
-0.191094
-0.13387
-0.0970844
-0.102563
-0.0584006
-0.0608564
-0.0657234
-0.0731871
-0.0821841
-0.0907242
-0.0985579
-0.0850405
-0.10935
-0.164709
-0.189539
-0.218192
-0.221171
-0.161781
-0.0836319
-0.0151449
0.0259914
0.0126759
-0.00419627
-0.0826042
-0.37097
-0.352278
-0.25072
-0.211939
-0.159277
-0.169162
-0.195332
-0.141599
-0.10046
-0.106723
-0.0666474
-0.0691019
-0.07374
-0.0804925
-0.088531
-0.0966314
-0.10201
-0.103744
-0.111407
-0.15097
-0.168002
-0.195726
-0.206045
-0.153576
-0.0770928
-0.0246807
0.00626831
-0.000250307
-0.0253191
-0.0968204
-0.341026
-0.338374
-0.252715
-0.214881
-0.163209
-0.174845
-0.201402
-0.146428
-0.10585
-0.111194
-0.0714757
-0.0739054
-0.0784148
-0.0847469
-0.0916004
-0.0988793
-0.100544
-0.108189
-0.11312
-0.127313
-0.161378
-0.177805
-0.172424
-0.142985
-0.0847353
-0.0319195
-0.0116966
-0.0144456
-0.044387
-0.109535
-0.314616
-0.322894
-0.252914
-0.217598
-0.167666
-0.180931
-0.205073
-0.151718
-0.111102
-0.115965
-0.0720394
-0.0743132
-0.0785594
-0.084732
-0.0911175
-0.0989654
-0.105031
-0.106234
-0.116593
-0.126141
-0.125777
-0.132439
-0.145105
-0.126136
-0.0807343
-0.0448864
-0.0288676
-0.0299311
-0.0623798
-0.119991
-0.290635
-0.308337
-0.251485
-0.219958
-0.172652
-0.186974
-0.208026
-0.157077
-0.116974
-0.121055
-0.0682568
-0.0698618
-0.0738183
-0.0801806
-0.0865632
-0.0920043
-0.0946176
-0.101225
-0.112174
-0.124999
-0.141311
-0.1396
-0.126255
-0.109748
-0.0836364
-0.0553551
-0.0436649
-0.0452522
-0.0792443
-0.129563
-0.27024
-0.29355
-0.249429
-0.221682
-0.178022
-0.192537
-0.210051
-0.162095
-0.123455
-0.126483
-0.060832
-0.0618079
-0.065487
-0.0722398
-0.0775068
-0.0781801
-0.0864947
-0.0944478
-0.102433
-0.110316
-0.118245
-0.11382
-0.106381
-0.107587
-0.0850601
-0.0675985
-0.0580409
-0.0616883
-0.0942174
-0.137982
-0.253531
-0.279413
-0.247013
-0.222865
-0.183791
-0.197318
-0.211174
-0.166621
-0.130481
-0.132269
-0.0515564
-0.0544247
-0.0583186
-0.062601
-0.0587571
-0.0660594
-0.0770778
-0.0897833
-0.0954401
-0.0990727
-0.102939
-0.102252
-0.106026
-0.0926398
-0.0925792
-0.0787034
-0.0720903
-0.0776873
-0.107091
-0.146266
-0.240249
-0.266629
-0.244543
-0.223958
-0.189579
-0.201342
-0.211577
-0.170681
-0.137971
-0.138441
-0.0485804
-0.0518741
-0.0550442
-0.059899
-0.0652338
-0.0726936
-0.0787982
-0.0853584
-0.0908096
-0.0930908
-0.0955486
-0.0958762
-0.0968274
-0.107638
-0.0984661
-0.0890999
-0.0855771
-0.0928358
-0.119243
-0.153972
-0.229976
-0.255642
-0.24211
-0.22509
-0.195329
-0.204928
-0.211847
-0.174512
-0.145829
-0.145024
-0.0563009
-0.0571677
-0.0584636
-0.0621356
-0.0672854
-0.0729868
-0.0783549
-0.0842504
-0.089705
-0.0927307
-0.0894984
-0.0915403
-0.109404
-0.108774
-0.104139
-0.0991621
-0.0987077
-0.107349
-0.130441
-0.161471
-0.222214
-0.246664
-0.239843
-0.226346
-0.201028
-0.208386