/*--------------------------------*- C++ -*----------------------------------*\
| =========                 |                                                 |
| \\      /  F ield         | OpenFOAM: The Open Source CFD Toolbox           |
|  \\    /   O peration     | Version:  2.4.0                                 |
|   \\  /    A nd           | Web:      www.OpenFOAM.org                      |
|    \\/     M anipulation  |                                                 |
\*---------------------------------------------------------------------------*/
FoamFile
{
    version     2.0;
    format      ascii;
    class       volScalarField;
    location    "0.295";
    object      p_rgh;
}
// * * * * * * * * * * * * * * * * * * * * * * * * * * * * * * * * * * * * * //

dimensions      [1 -1 -2 0 0 0 0];

internalField   nonuniform List<scalar> 
10000
(
0.00103556
0.00103512
0.00103471
0.00103414
0.00103323
0.00103186
0.00102994
0.0010274
0.00102421
0.00102039
0.00101595
0.00101094
0.00100538
0.000999406
0.000993085
0.000986512
0.000979784
0.000972985
0.000966186
0.000959434
0.000952749
0.000946127
0.000939549
0.000932978
0.000926375
0.000919698
0.000912914
0.000905996
0.000898935
0.000891728
0.000884381
0.000876899
0.000869283
0.000861526
0.000853601
0.000845454
0.000837007
0.000828167
0.000818837
0.000808928
0.000798362
0.000787081
0.00077504
0.000762217
0.000748607
0.00073423
0.00071912
0.000703329
0.000686915
0.000669941
0.00103547
0.00103502
0.0010345
0.00103376
0.00103266
0.00103113
0.0010291
0.00102652
0.00102338
0.00101967
0.00101542
0.00101064
0.00100541
0.000999763
0.000993772
0.000987522
0.000981093
0.000974555
0.000967966
0.000961364
0.000954767
0.000948178
0.000941586
0.000934971
0.000928307
0.000921568
0.000914732
0.000907783
0.000900714
0.000893527
0.000886223
0.000878803
0.000871259
0.000863574
0.000855716
0.000847628
0.000839236
0.000830455
0.000821199
0.000811387
0.000800951
0.000789832
0.000777985
0.000765383
0.000752018
0.000737902
0.000723065
0.000707546
0.000691392
0.000674655
0.00103401
0.00103363
0.00103311
0.00103231
0.00103114
0.00102955
0.00102749
0.00102494
0.00102188
0.00101831
0.00101425
0.00100972
0.00100476
0.000999411
0.000993737
0.000987799
0.000981663
0.000975386
0.000969016
0.000962586
0.000956115
0.000949611
0.000943069
0.000936478
0.000929825
0.000923095
0.000916276
0.000909364
0.000902361
0.000895272
0.000888102
0.000880844
0.00087348
0.000865981
0.000858315
0.000850418
0.000842215
0.000833626
0.000824574
0.000814985
0.000804794
0.000793945
0.000782394
0.000770112
0.000757088
0.000743326
0.000728846
0.000713678
0.000697854
0.000681412
0.00103102
0.00103082
0.00103041
0.00102966
0.00102853
0.00102697
0.00102496
0.00102249
0.00101955
0.00101613
0.00101226
0.00100795
0.00100323
0.000998149
0.000992753
0.000987094
0.000981225
0.000975196
0.000969049
0.000962814
0.000956514
0.000950157
0.000943742
0.000937262
0.00093071
0.000924077
0.000917362
0.000910573
0.000903723
0.000896827
0.000889894
0.000882912
0.000875846
0.000868661
0.00086133
0.000853781
0.000845934
0.000837706
0.00082902
0.000819805
0.000809995
0.000799537
0.000788387
0.000776514
0.000763905
0.000750559
0.000736488
0.000721708
0.000706242
0.000690117
0.00102664
0.00102669
0.00102649
0.00102588
0.00102485
0.0010234
0.0010215
0.00101915
0.00101635
0.0010131
0.00100941
0.00100532
0.00100084
0.000996006
0.00099087
0.000985474
0.000979864
0.000974085
0.000968177
0.000962173
0.000956092
0.000949944
0.000943727
0.000937435
0.000931061
0.000924604
0.000918072
0.000911482
0.000904863
0.000898248
0.000891653
0.000885061
0.000878409
0.000871658
0.000864812
0.000857777
0.000850457
0.000842761
0.000834606
0.000825916
0.000816626
0.00080668
0.000796037
0.000784666
0.00077255
0.000759685
0.000746072
0.000731718
0.000716636
0.000700846
0.00102108
0.00102141
0.00102145
0.00102104
0.00102017
0.00101887
0.00101712
0.00101492
0.00101228
0.00100921
0.00100571
0.00100183
0.000997573
0.000992984
0.0009881
0.000982962
0.000977615
0.000972102
0.000966463
0.000960732
0.000954926
0.000949053
0.000943106
0.000937076
0.000930957
0.000924749
0.000918465
0.000912135
0.000905807
0.000899542
0.00089338
0.000887297
0.000881174
0.000874964
0.000868767
0.000862429
0.000855823
0.000848839
0.000841381
0.000833369
0.000824733
0.000815419
0.000805385
0.000794603
0.000783054
0.000770725
0.000757613
0.000743716
0.000729041
0.000713603
0.00101444
0.00101506
0.00101538
0.00101518
0.00101451
0.00101338
0.00101181
0.00100979
0.00100732
0.00100443
0.00100114
0.000997455
0.000993419
0.000989063
0.000984424
0.000979545
0.000974472
0.000969249
0.000963919
0.000958512
0.000953046
0.000947519
0.00094192
0.000936232
0.000930444
0.000924553
0.000918572
0.000912539
0.000906527
0.000900656
0.000895019
0.000889594
0.000884117
0.000878523
0.000873172
0.000867747
0.000862061
0.000855977
0.000849388
0.000842203
0.000834352
0.000825784
0.000816458
0.000806347
0.00079543
0.00078369
0.00077112
0.000757715
0.000743477
0.000728417
0.0010068
0.00100772
0.00100832
0.00100836
0.00100789
0.00100697
0.00100558
0.00100375
0.00100147
0.000998765
0.000995658
0.000992175
0.000988348
0.000984216
0.00097982
0.000975207
0.000970426
0.000965525
0.000960547
0.000955525
0.00095047
0.000945371
0.000940206
0.000934949
0.000929573
0.000924062
0.000918417
0.000912672
0.000906935
0.000901438
0.000896411
0.000891868
0.000887171
0.000882174
0.00087796
0.000873731
0.000869202
0.000864221
0.000858673
0.000852463
0.000845524
0.000837809
0.000829283
0.000819921
0.000809702
0.00079861
0.000786634
0.000773765
0.000760004
0.000745354
0.000998245
0.000999445
0.00100032
0.0010006
0.00100036
0.000999636
0.000998449
0.000996802
0.000994709
0.000992187
0.000989262
0.000985966
0.000982338
0.000978425
0.000974274
0.000969938
0.00096547
0.000960923
0.000956344
0.000951771
0.00094721
0.000942634
0.000938003
0.000933271
0.000928387
0.0009233
0.000917968
0.000912403
0.000906753
0.000901464
0.000897085
0.000893806
0.00089004
0.000885414
0.00088287
0.000880303
0.000877259
0.000873623
0.0008693
0.00086421
0.000858301
0.000851539
0.0008439
0.000835364
0.000825914
0.000815534
0.000804212
0.000791936
0.000778696
0.000764489
0.000988823
0.000990292
0.000991433
0.000991947
0.000991919
0.000991404
0.000990412
0.000988953
0.000987038
0.000984688
0.000981935
0.000978816
0.000975381
0.000971683
0.000967779
0.00096373
0.000959596
0.000955431
0.000951293
0.000947237
0.000943263
0.000939316
0.000935319
0.000931197
0.000926853
0.00092217
0.000917046
0.00091144
0.000905555
0.000900215
0.000896585
0.000895378
0.000892665
0.000887459
0.000887401
0.000887196
0.00088611
0.000884169
0.000881326
0.000877524
0.000872759
0.000867038
0.000860363
0.000852726
0.000844116
0.000834517
0.000823911
0.00081228
0.000799602
0.000785862
0.000978567
0.000980289
0.000981676
0.000982413
0.000982596
0.000982282
0.000981482
0.000980202
0.000978457
0.000976271
0.000973679
0.000970729
0.000967479
0.000963993
0.000960337
0.000956579
0.000952787
0.000949019
0.000945351
0.000941873
0.00093858
0.000935355
0.000932052
0.000928564
0.000924766
0.00092052
0.000915653
0.000909925
0.000903427
0.000897917
0.000895825
0.000898967
0.000897733
0.000888351
0.00089173
0.000894526
0.000895605
0.000895662
0.000894659
0.000892425
0.000888965
0.000884375
0.000878729
0.000872055
0.000864348
0.000855591
0.000845755
0.000834809
0.000822721
0.000809461
0.000967501
0.000969455
0.00097107
0.000972019
0.000972404
0.000972285
0.000971669
0.000970562
0.000968978
0.000966947
0.00096451
0.000961722
0.000958649
0.000955365
0.000951946
0.000948473
0.000945019
0.000941635
0.000938415
0.000935528
0.000932966
0.000930506
0.000927905
0.000925114
0.000922088
0.000918658
0.000914472
0.000908849
0.000901472
0.000895715
0.000898224
0.0009153
0.000919658
0.000888413
0.000896188
0.000903039
0.00090601
0.000908071
0.000909126
0.000908757
0.000906873
0.000903577
0.000899038
0.000893376
0.00088662
0.000878748
0.000869721
0.000859491
0.000848011
0.000835239
0.000955641
0.000957806
0.000959631
0.000960779
0.000961357
0.000961425
0.000960987
0.000960047
0.000958622
0.000956744
0.000954458
0.000951823
0.000948911
0.000945806
0.0009426
0.000939387
0.00093624
0.000933149
0.000930222
0.00092783
0.000926032
0.000924432
0.000922681
0.000920935
0.000919301
0.000917382
0.000914267
0.000908736
0.000900794
0.000897534
0.000914855
0.000997255
0.00104961
0.000887052
0.000905437
0.000916385
0.000919291
0.000922711
0.000925398
0.000926605
0.000926306
0.000924507
0.000921243
0.000916664
0.000910896
0.000903944
0.000895758
0.000886272
0.000875423
0.000863145
0.000943007
0.000945359
0.000947374
0.000948707
0.000949468
0.000949716
0.000949453
0.000948681
0.000947417
0.000945694
0.000943556
0.000941061
0.000938282
0.000935312
0.000932261
0.000929241
0.000926313
0.00092327
0.000920246
0.000918346
0.000917581
0.000917076
0.000916406
0.000916308
0.000916931
0.000917179
0.000915388
0.000911487
0.000907795
0.000914015
0.00103186
0.00138186
0.0016083
0.00107986
0.000956278
0.000949176
0.000943857
0.000943825
0.000945769
0.000947111
0.000947546
0.000946962
0.000945109
0.000941803
0.000937106
0.000931119
0.000923817
0.000915117
0.000904933
0.000893165
0.00092962
0.00093213
0.000934314
0.000935816
0.000936751
0.000937175
0.000937087
0.00093649
0.000935398
0.000933837
0.000931843
0.000929464
0.000926762
0.000923822
0.000920772
0.000917776
0.000914944
0.000911742
0.000908287
0.000906952
0.000907925
0.000908804
0.000908922
0.000911041
0.000915358
0.000919208
0.000919371
0.000924286
0.000952155
0.00107803
0.00139464
0.00551097
0.00694131
0.00135054
0.00109181
0.00100972
0.000979409
0.000970398
0.000969872
0.000970567
0.000970986
0.00097098
0.000970306
0.000968487
0.000965118
0.000960221
0.00095388
0.000946032
0.000936562
0.000925346
0.000915501
0.000918136
0.000920462
0.000922117
0.000923216
0.000923815
0.000923912
0.000923505
0.000922602
0.000921215
0.00091936
0.00091705
0.000914291
0.000911145
0.000907815
0.000904633
0.000901848
0.000898465
0.000894659
0.0008942
0.00089714
0.000900162
0.000901681
0.000904214
0.000911126
0.000918712
0.000927435
0.000952122
0.00104323
0.00129023
0.00534035
0.00947462
0.00895431
0.00499855
0.00139632
0.00111861
0.00101906
0.000998695
0.000994903
0.000995318
0.00099598
0.000996497
0.000996736
0.000996378
0.000994686
0.000991192
0.000985966
0.000979059
0.000970365
0.000959774
0.000900669
0.000903388
0.000905825
0.000907614
0.000908871
0.000909651
0.00090995
0.00090976
0.000909073
0.000907879
0.000906147
0.000903799
0.000900757
0.000897148
0.000893336
0.000889848
0.000887458
0.000883376
0.000879037
0.000880712
0.000885472
0.000889338
0.000894453
0.000901975
0.000905613
0.000921752
0.000921648
0.000936293
0.00097725
0.00111341
0.00152063
0.00618196
0.00761593
0.00148681
0.00117957
0.00107364
0.00101387
0.00100907
0.00101221
0.00101722
0.00102077
0.00102297
0.00102441
0.00102547
0.00102558
0.0010239
0.0010201
0.00101426
0.0010064
0.000996511
0.000885129
0.000887887
0.000890402
0.000892308
0.00089372
0.000894695
0.000895224
0.000895287
0.000894858
0.000893879
0.000892215
0.000889668
0.000886245
0.00088228
0.000878095
0.000874548
0.000871693
0.000868982
0.000862182
0.000871391
0.000877611
0.00087358
0.000891553
0.000889289
0.000911642
0.00101867
0.000918266
0.000944488
0.000953551
0.000963343
0.00107972
0.00150339
0.00169203
0.00122561
0.00103897
0.00102694
0.00102163
0.00102406
0.00102848
0.00103768
0.00104585
0.00105077
0.0010537
0.00105619
0.00105793
0.00105819
0.00105624
0.00105171
0.00104471
0.00103557
0.00086887
0.000871619
0.000874176
0.000876185
0.000877759
0.000878951
0.000879749
0.00088012
0.000880004
0.000879251
0.000877574
0.000874838
0.000871354
0.000867526
0.000863397
0.000859434
0.000853497
0.000848214
0.000841803
0.000855524
0.000872835
0.000873784
0.000860534
0.000875015
0.000904476
0.000939614
0.00144359
0.000965852
0.000980464
0.00098846
0.00100226
0.00111572
0.00119647
0.00102276
0.00100523
0.00107503
0.00105364
0.00104496
0.00104065
0.0010566
0.00107139
0.00107988
0.00108494
0.00108902
0.00109215
0.00109406
0.00109411
0.00109142
0.00108535
0.00107691
0.000851857
0.00085455
0.000857119
0.000859223
0.00086097
0.000862413
0.000863532
0.000864281
0.000864546
0.000864041
0.00086246
0.000860015
0.000857267
0.000854427
0.000851023
0.00084652
0.000836798
0.000822358
0.000824503
0.000834923
0.000883557
0.000880158
0.00111764
0.000866732
0.000892747
0.000934762
0.000972628
0.00097671
0.000982437
0.00100979
0.00102697
0.00104527
0.00105531
0.00105072
0.00107486
0.00113305
0.00105519
0.00104801
0.00104257
0.00107996
0.0011051
0.00111533
0.00111891
0.00112359
0.00112832
0.00113172
0.00113343
0.00113309
0.00112847
0.00112047
0.000834027
0.000836623
0.000839178
0.000841377
0.000843319
0.000845052
0.000846557
0.00084777
0.000848503
0.000848388
0.000847367
0.000846077
0.000845219
0.000844894
0.000844335
0.00084167
0.000833305
0.00082444
0.000840309
0.000792797
0.000787703
0.000837063
0.000867544
0.000866057
0.000898095
0.000922082
0.000954233
0.000971843
0.000986513
0.00102403
0.00102286
0.00104464
0.00106389
0.00106681
0.00106651
0.0010485
0.0010445
0.00103072
0.00107332
0.00116374
0.00117934
0.00116525
0.00115354
0.00115798
0.00116601
0.00117135
0.00117441
0.00117598
0.00117417
0.00116636
0.000815288
0.000817757
0.000820285
0.000822584
0.000824746
0.000826816
0.000828775
0.000830542
0.000831862
0.000832428
0.000832577
0.000833275
0.000835353
0.000839005
0.000843672
0.000848466
0.000860602
0.000894775
0.000909042
0.000860052
0.000826497
0.00078994
0.000898553
0.000943566
0.000924913
0.000935418
0.000943662
0.000963868
0.000975549
0.000988403
0.00102996
0.00101663
0.00102509
0.00104051
0.00106122
0.00107238
0.00106797
0.00109823
0.0010319
0.00135697
0.00131539
0.00127042
0.00119843
0.00120031
0.00120958
0.0012143
0.00121757
0.00122003
0.00122151
0.00121526
0.000795519
0.000797849
0.000800347
0.000802761
0.000805172
0.000807622
0.000810097
0.000812495
0.000814533
0.00081607
0.000817779
0.000820804
0.000826022
0.000833773
0.000844473
0.000862785
0.00088549
0.000950341
0.00102203
0.00125011
0.00211617
0.00187226
0.00118465
0.00099789
0.000973638
0.000960078
0.0009572
0.000971238
0.000989453
0.000995933
0.00100176
0.00100692
0.00104869
0.00107846
0.00109061
0.0011066
0.00112761
0.00111533
0.00174386
0.00616609
0.00496232
0.00156533
0.00141884
0.00129788
0.00127293
0.00126544
0.00126489
0.00126667
0.00126938
0.00126757
0.000774581
0.000776777
0.000779258
0.000781807
0.000784496
0.000787365
0.000790402
0.000793492
0.000796356
0.000799021
0.000802353
0.000807513
0.000815227
0.000825808
0.000841071
0.000872225
0.000906047
0.000993427
0.000871452
0.00170537
0.00245166
0.00275324
0.00151154
0.00104008
0.00106559
0.000992975
0.000972407
0.000987726
0.0010064
0.00100669
0.0017357
0.00107077
0.00111343
0.00111387
0.00111966
0.00113856
0.00117491
0.00128297
0.00456516
0.00640308
0.00638343
0.00380894
0.0014983
0.00135631
0.0013224
0.00131147
0.00131119
0.00131438
0.0013176
0.00132085
0.000752321
0.00075441
0.0007569
0.000759613
0.000762609
0.000765929
0.00076956
0.000773384
0.000777144
0.000780969
0.000785765
0.000792572
0.000801879
0.000813873
0.000830952
0.000856539
0.000957977
0.000989416
0.00131184
0.0063219
0.00862814
0.00862359
0.00553767
0.00117487
0.00106801
0.001016
0.000998746
0.00100994
0.00102126
0.00102577
0.00103897
0.00105676
0.00110878
0.00112309
0.00111833
0.00114317
0.00130579
0.00123051
0.00294802
0.00622931
0.00651783
0.00291298
0.00135256
0.00133019
0.00132367
0.00133295
0.00134826
0.00135996
0.00136736
0.00137277
0.000728587
0.000730616
0.000733155
0.000736068
0.000739404
0.0007432
0.000747446
0.000752031
0.00075672
0.000761669
0.000767693
0.000775586
0.000785543
0.000797403
0.000811165
0.000820874
0.0009367
0.000955565
0.00269838
0.00883217
0.00867424
0.00866637
0.00878185
0.00209847
0.0010759
0.00102086
0.00103322
0.00125106
0.00103323
0.00103411
0.00100866
0.00105182
0.00217964
0.00153818
0.00117268
0.00114507
0.00121723
0.00131079
0.00114548
0.00255772
0.002403
0.00118819
0.00218859
0.00129618
0.00132014
0.00135652
0.00138752
0.00140873
0.00142156
0.00142671
0.000703237
0.000705267
0.000707912
0.000711068
0.000714775
0.000719068
0.000723942
0.000729303
0.00073495
0.000741026
0.000748282
0.000757449
0.000768658
0.000782114
0.000798291
0.000818913
0.000903892
0.000910253
0.00323724
0.00862643
0.00858365
0.00861642
0.00874022
0.00231579
0.00100716
0.000992267
0.00101244
0.00101737
0.00102439
0.00101785
0.00101923
0.00105555
0.00108585
0.00112034
0.00112654
0.00119272
0.00120397
0.00118215
0.00126134
0.00132889
0.00132417
0.00117041
0.00118153
0.00128564
0.00131406
0.00138171
0.00142804
0.0014593
0.00148003
0.00148668
0.000676149
0.000678256
0.000681072
0.000684518
0.000688629
0.000693433
0.000698932
0.000705061
0.000711654
0.000718819
0.000727239
0.000737656
0.000750447
0.000766086
0.000784335
0.000818903
0.000864826
0.000903493
0.00106008
0.00494319
0.00842379
0.0084715
0.0046621
0.000945866
0.000935191
0.000957304
0.000985774
0.00100032
0.00100324
0.00101557
0.00102934
0.001044
0.00105922
0.0011022
0.00115951
0.00122841
0.00122335
0.00121357
0.00124185
0.0012941
0.00130506
0.00127853
0.001371
0.00188217
0.00150294
0.00142051
0.00147873
0.00151877
0.00154604
0.00155185
0.000647228
0.000649494
0.000652556
0.000656343
0.000660885
0.000666208
0.000672317
0.000679181
0.000686667
0.000694825
0.000704229
0.000715601
0.000729395
0.000745854
0.000765389
0.000791788
0.000820353
0.000826091
0.000906952
0.00123929
0.00139418
0.00150767
0.00108476
0.000929545
0.000897677
0.000921963
0.000957095
0.00096504
0.000986695
0.00101451
0.00104466
0.00104405
0.00105677
0.00114055
0.0011973
0.00151663
0.00121844
0.00123944
0.00125877
0.0012962
0.0013194
0.00134906
0.00139801
0.00140541
0.00141486
0.00190699
0.00161438
0.00156862
0.00163425
0.00162798
0.000616411
0.000618922
0.000622306
0.000626482
0.000631481
0.000637327
0.000644028
0.00065158
0.000659891
0.000668938
0.000679146
0.00069117
0.000705445
0.00072221
0.000742531
0.000764964
0.000790228
0.000798673
0.000814515
0.000971014
0.0010522
0.00104662
0.00093264
0.000867058
0.000878757
0.000909064
0.000933533
0.000959764
0.000973308
0.00101932
0.00109601
0.00130119
0.00104434
0.00114961
0.00121404
0.00120002
0.00122813
0.00126601
0.00127425
0.00131085
0.00133756
0.00137613
0.00142622
0.00147921
0.00146711
0.00147972
0.00166308
0.00209204
0.00187696
0.0017431
0.000583667
0.000586506
0.000590287
0.000594899
0.000600378
0.000606749
0.000614023
0.000622218
0.000631276
0.000641114
0.000651978
0.000664424
0.000678896
0.000695664
0.000715022
0.000735532
0.000756698
0.000766027
0.000806329
0.00088341
0.000947107
0.000992617
0.00103149
0.000919432
0.000886079
0.000896899
0.00165864
0.00105154
0.00102868
0.00103282
0.0011192
0.00112397
0.000825984
0.00118295
0.00128188
0.00118765
0.00120995
0.00126081
0.00129869
0.00132955
0.00134635
0.00138982
0.00143858
0.00149667
0.00156552
0.00159137
0.0016018
0.00174825
0.0020156
0.00181039
0.000548996
0.000552244
0.000556489
0.000561578
0.000567559
0.000574459
0.000582293
0.000591088
0.000600819
0.000611365
0.000622782
0.000635499
0.000649975
0.000666486
0.00068509
0.000705456
0.000729168
0.000759953
0.000808574
0.000845509
0.000892715
0.00091008
0.0013234
0.000894137
0.00088267
0.000901324
0.000929753
0.000957672
0.000947249
0.00101745
0.00139702
0.00477704
0.00880299
0.00611345
0.00220567
0.00106949
0.0011777
0.00125518
0.00129587
0.00131833
0.001774
0.0014474
0.00146815
0.00152006
0.00157247
0.00162324
0.00166871
0.00205464
0.00199801
0.00202568
0.000512424
0.000516153
0.000520923
0.000526527
0.000533029
0.000540466
0.000548854
0.000558221
0.000568567
0.000579767
0.000591718
0.000604672
0.00061908
0.000635228
0.00065306
0.000672567
0.000692428
0.000716058
0.000758153
0.000817545
0.000844369
0.000856567
0.000840939
0.000866266
0.000897038
0.00090106
0.000917502
0.000934506
0.000960483
0.000773824
0.00735358
0.0105107
0.0113493
0.0109619
0.00949906
0.0015989
0.0012092
0.00126893
0.00133382
0.00142172
0.00149993
0.0015126
0.00149179
0.00153393
0.00165224
0.00170586
0.00130362
0.00207406
0.00228967
0.00207482
0.000474
0.000478272
0.000483619
0.00048977
0.000496814
0.000504798
0.00051374
0.000523667
0.000534588
0.000546413
0.000558954
0.000572259
0.000586716
0.000602605
0.00061968
0.000639821
0.000653237
0.000661781
0.00147431
0.000814737
0.00081559
0.000824591
0.000849029
0.000842306
0.00142994
0.000937692
0.000945492
0.000976684
0.00103245
0.00139317
0.0107076
0.0109365
0.0111539
0.0111264
0.0111694
0.00435712
0.00135581
0.00129034
0.00130026
0.00138013
0.00143374
0.00147009
0.00151403
0.00149997
0.00261984
0.0108577
0.0137242
0.0100104
0.00377835
0.00207794
0.000433786
0.000438655
0.000444624
0.000451352
0.000458955
0.000467498
0.000476998
0.000487478
0.000498953
0.000511382
0.000524601
0.000538508
0.000553384
0.000569653
0.000588602
0.000608994
0.00063128
0.000715944
0.000726247
0.000743292
0.000774985
0.000777925
0.000937387
0.000825734
0.000871438
0.000919286
0.000949092
0.00099133
0.00105315
0.0012089
0.0101688
0.010907
0.0111476
0.0112215
0.0114451
0.00346407
0.00124877
0.00132814
0.00161121
0.00138427
0.00144265
0.00150962
0.00155658
0.00170092
0.0106488
0.0127112
0.0129709
0.012448
0.0114711
0.00255898
0.000391854
0.000397367
0.000403998
0.000411329
0.000419511
0.000428621
0.00043868
0.000449705
0.000461711
0.000474696
0.000488581
0.000503222
0.000518716
0.000535625
0.00055494
0.000576402
0.000609349
0.00064179
0.000690876
0.00150012
0.000750054
0.000743738
0.000759605
0.000793845
0.000849614
0.0011725
0.00093448
0.000991889
0.00107939
0.0011363
0.00853468
0.0102752
0.0111014
0.0111911
0.0109872
0.0029731
0.00121502
0.00128244
0.00134018
0.00140706
0.00147202
0.00151717
0.00149677
0.00114942
0.0107486
0.0130535
0.0131153
0.0131942
0.013859
0.0021897
0.000348284
0.000354483
0.000361813
0.000369774
0.000378549
0.000388233
0.000398846
0.000410398
0.000422904
0.00043638
0.000450821
0.000466149
0.000482312
0.000499595
0.000518646
0.000540254
0.000565838
0.000594553
0.000627512
0.000628625
0.000775892
0.000696853
0.000726012
0.000766752
0.000809222
0.000848132
0.000906037
0.000980201
0.00107462
0.00121542
0.00203828
0.00664216
0.0119088
0.0105962
0.00346407
0.00093477
0.00117953
0.00152404
0.00136145
0.00148358
0.0015361
0.00161125
0.00169781
0.00190605
0.0106104
0.012686
0.0131358
0.0133263
0.0138958
0.00375344
0.000303165
0.000310091
0.000318152
0.000326768
0.000336151
0.00034641
0.000357563
0.000369617
0.000382585
0.000396487
0.000411355
0.000427192
0.000443948
0.000461642
0.000480549
0.000501135
0.000524937
0.000549452
0.00057076
0.00062659
0.000629536
0.00065291
0.000690077
0.000728964
0.000771563
0.000815333
0.000869565
0.000940305
0.00102713
0.00117703
0.00126523
0.00121614
0.000633603
0.00108757
0.00128226
0.00136972
0.00123674
0.00130974
0.00139361
0.00147778
0.00157621
0.00166912
0.00178705
0.00188495
0.00256614
0.0115861
0.0132516
0.0131088
0.00703751
0.00137374
0.000256595
0.000264285
0.000273111
0.000282402
0.000292403
0.000303232
0.000314905
0.000327428
0.000340812
0.000355081
0.000370277
0.000386446
0.000403607
0.000421727
0.000440835
0.000461182
0.000483229
0.000507175
0.00053486
0.000562636
0.000585799
0.00061621
0.000650615
0.000690164
0.00073272
0.000776904
0.000826857
0.000886606
0.000961162
0.00106774
0.00114764
0.00108948
0.00114604
0.00106035
0.00128417
0.00125904
0.00128116
0.0013422
0.00142001
0.00150928
0.00168404
0.00168518
0.00182368
0.00218947
0.00316153
0.00261606
0.00288914
0.00324073
0.00246373
0.00207933
0.000208681
0.000217173
0.000226793
0.000236776
0.000247397
0.000258785
0.000270951
0.000283901
0.000297647
0.00031222
0.000327664
0.000344039
0.000361402
0.000379769
0.000399111
0.000419469
0.000441033
0.000464169
0.000488371
0.000514594
0.000543912
0.000572451
0.000606717
0.000648072
0.000698473
0.000732021
0.000776754
0.000828541
0.000889502
0.000961089
0.00102974
0.00100228
0.000929299
0.00105578
0.00119817
0.00122615
0.00128015
0.00136034
0.00144818
0.00150969
0.00157198
0.00164602
0.0016746
0.00154248
0.00161086
0.00229731
0.00411223
0.00406873
0.00282178
0.00247284
0.000159541
0.00016887
0.000179307
0.000189992
0.000201229
0.000213155
0.000225779
0.000239108
0.000253158
0.000267966
0.000283581
0.000300063
0.000317476
0.000335864
0.000355237
0.000375581
0.000396926
0.000419486
0.000443203
0.000468256
0.000495452
0.000526112
0.000562554
0.000621506
0.000651234
0.000679772
0.000724745
0.000773102
0.000823627
0.000876098
0.000918313
0.000946405
0.00095735
0.0010304
0.00111707
0.00120287
0.00128489
0.00136603
0.00144514
0.00152477
0.00158855
0.00165139
0.00171762
0.00395523
0.00708109
0.00497702
0.00323638
0.00343134
0.00205468
0.00258702
0.000109305
0.000119501
0.000130769
0.000142157
0.000153996
0.000166432
0.000179473
0.000193126
0.000207417
0.000222388
0.000238095
0.000254594
0.00027194
0.000290181
0.000309362
0.000329525
0.000350706
0.000372955
0.000396204
0.000420773
0.000447688
0.000478233
0.000510793
0.000538646
0.000581129
0.00062786
0.000674134
0.00071916
0.000765865
0.000814795
0.000861654
0.000903761
0.000944927
0.00101416
0.00109547
0.00117681
0.00125946
0.00134494
0.00142662
0.00150464
0.00159644
0.00166489
0.00162298
0.0035217
0.00283337
0.00345925
0.00239924
0.0115686
0.0258576
0.0165033
5.81108e-05
6.91951e-05
8.12997e-05
9.33806e-05
0.000105799
0.00011871
0.000132119
0.000146039
0.000160504
0.000175566
0.000191282
0.000207706
0.000224883
0.000242857
0.000261687
0.000281464
0.000302298
0.000324282
0.000347446
0.000372018
0.000398367
0.000426937
0.000456935
0.000489749
0.000528384
0.000571247
0.000615586
0.000660739
0.000707737
0.000757161
0.000807745
0.000858985
0.000913391
0.000981967
0.00105979
0.00114456
0.0012387
0.00133524
0.00142622
0.00151091
0.00162897
0.0017589
0.00194755
0.00237615
0.00375107
0.0039487
0.0177476
0.0272139
0.030455
0.029287
6.10465e-06
1.80886e-05
3.10235e-05
4.37781e-05
5.67449e-05
7.00878e-05
8.38146e-05
9.79412e-05
0.000112512
0.000127588
0.000143229
0.000159484
0.000176393
0.000193998
0.000212366
0.000231609
0.000251878
0.000273351
0.000296183
0.000320521
0.000346464
0.000374294
0.000404051
0.000436485
0.000472582
0.000512369
0.000554837
0.000599518
0.000646723
0.000696881
0.000749771
0.000805222
0.000864365
0.000935026
0.0010181
0.00110797
0.00121007
0.00132098
0.00140404
0.00151364
0.00168688
0.00186745
0.00210859
0.0025243
0.0034892
0.00337794
0.029467
0.0294823
0.0303256
0.0302649
-4.65551e-05
-3.36752e-05
-1.99286e-05
-6.53051e-06
6.94431e-06
2.06711e-05
3.4659e-05
4.893e-05
6.35383e-05
7.85509e-05
9.40303e-05
0.000110024
0.000126569
0.000143709
0.000161518
0.000180112
0.000199643
0.000220298
0.000242287
0.000265858
0.000291269
0.000318713
0.000348026
0.000379299
0.000413561
0.00045112
0.000491884
0.000535627
0.000582383
0.000632237
0.000685384
0.000742191
0.000803053
0.00087589
0.000963137
0.00106084
0.00127226
0.00130301
0.00142843
0.00156059
0.00200331
0.00186748
0.00216591
0.00233187
0.00278199
0.00305036
0.0293354
0.0299392
0.0305331
0.0305943
-9.96978e-05
-8.59441e-05
-7.14187e-05
-5.74193e-05
-4.34864e-05
-2.9432e-05
-1.52441e-05
-8.94093e-07
1.36804e-05
2.8552e-05
4.37846e-05
5.94259e-05
7.55147e-05
9.20997e-05
0.000109258
0.000127103
0.000145777
0.000165441
0.000186275
0.000208493
0.000232395
0.000258398
0.000286873
0.00031813
0.000351995
0.000387964
0.000426231
0.00046797
0.000513213
0.000561774
0.000614387
0.000671476
0.000734296
0.000797105
0.000878319
0.0011531
0.00115284
0.00129581
0.00147743
0.0022807
0.00282479
0.00178768
0.00226922
0.00211381
0.00252077
0.00259821
0.0206325
0.0290587
0.0311432
0.0304353
-0.000153137
-0.000138554
-0.000123299
-0.000108755
-9.44264e-05
-8.01107e-05
-6.57916e-05
-5.14334e-05
-3.6967e-05
-2.23158e-05
-7.41412e-06
7.78758e-06
2.33319e-05
3.9274e-05
5.56965e-05
7.271e-05
9.04404e-05
0.000109021
0.000128599
0.000149353
0.000171542
0.0001955
0.000221584
0.000250315
0.000282485
0.000318388
0.000356951
0.000396815
0.00043897
0.000485422
0.000536903
0.000595171
0.000659445
0.000739487
0.000909386
0.00102515
0.00106825
0.00119417
0.00137922
0.00232732
0.00228472
0.0018077
0.00194698
0.00158082
0.00219769
0.00267871
0.00354295
0.0144134
0.0229466
0.0182698
-0.000206669
-0.000191324
-0.000175411
-0.000160396
-0.000145749
-0.000131252
-0.000116881
-0.000102593
-8.83146e-05
-7.39657e-05
-5.94794e-05
-4.48042e-05
-2.98902e-05
-1.4669e-05
9.54845e-07
1.70903e-05
3.38396e-05
5.12963e-05
6.95562e-05
8.87478e-05
0.000109098
0.000130945
0.000154674
0.000180669
0.000209322
0.000241002
0.000276768
0.000317224
0.000359763
0.000402743
0.000450668
0.000504771
0.000565873
0.000644995
0.000726603
0.000823194
0.000931391
0.00104551
0.00184748
0.00204077
0.00298306
0.00200065
0.00913408
0.00677206
0.00173742
0.00255592
0.00291217
0.00334907
0.0029132
0.0042171
-0.000260069
-0.000244059
-0.00022758
-0.00021219
-0.000197322
-0.000182738
-0.000168407
-0.000154279
-0.000140276
-0.000126318
-0.000112336
-9.8277e-05
-8.40717e-05
-6.96245e-05
-5.48212e-05
-3.95589e-05
-2.3771e-05
-7.41956e-06
9.51314e-06
2.70635e-05
4.54248e-05
6.49649e-05
8.60842e-05
0.000109062
0.000134203
0.000161915
0.0001927
0.000227051
0.000266705
0.000311168
0.000354308
0.000400222
0.000457091
0.000525211
0.000600771
0.000681603
0.000761807
0.000816763
0.00217384
0.00189892
0.00240314
0.00632153
0.0085878
0.00836908
0.00274245
0.00266528
0.0030345
0.00339268
0.00368844
0.0044597
-0.000313094
-0.000296543
-0.00027962
-0.000263972
-0.000248999
-0.000234442
-0.000220259
-0.000206395
-0.000192769
-0.000179301
-0.000165927
-0.000152576
-0.000139142
-0.000125487
-0.000111481
-9.70343e-05
-8.21251e-05
-6.67873e-05
-5.11354e-05
-3.53021e-05
-1.91327e-05
-2.15239e-06
1.60898e-05
3.56914e-05
5.68448e-05
8.00312e-05
0.000105677
0.000134096
0.000165786
0.00020186
0.000245475
0.000288717
0.000337213
0.000396245
0.000470678
0.00053878
0.000728969
0.00115243
0.00102999
0.00151367
0.00167677
0.00771864
0.00856008
0.00578472
0.00264452
0.00277496
0.00300128
0.0034638
0.00406724
0.00499472
0.000652467
0.000634556
0.000616265
0.000597647
0.000578741
0.000559571
0.000540149
0.000520475
0.000500547
0.000480357
0.000459899
0.000439168
0.000418168
0.00039692
0.000375462
0.000353836
0.000332084