/*--------------------------------*- C++ -*----------------------------------*\
| =========                 |                                                 |
| \\      /  F ield         | OpenFOAM: The Open Source CFD Toolbox           |
|  \\    /   O peration     | Version:  2.4.0                                 |
|   \\  /    A nd           | Web:      www.OpenFOAM.org                      |
|    \\/     M anipulation  |                                                 |
\*---------------------------------------------------------------------------*/
FoamFile
{
    version     2.0;
    format      ascii;
    class       surfaceScalarField;
    location    "0.144";
    object      phi;
}
// * * * * * * * * * * * * * * * * * * * * * * * * * * * * * * * * * * * * * //

dimensions      [0 3 -1 0 0 0 0];

internalField   nonuniform List<scalar> 
114720
(
-3.5906e-10
1.1861e-09
1.36195e-09
-2.18899e-09
3.12708e-10
7.49462e-10
6.25334e-10
-1.6875e-09
-6.1311e-09
8.17752e-09
9.05883e-10
-2.9523e-09
-1.42924e-08
1.6053e-08
6.73322e-10
-2.43401e-09
-2.07005e-08
2.18793e-08
3.642e-10
-1.54294e-09
-2.48145e-08
2.56019e-08
1.84963e-10
-9.72321e-10
-2.78249e-08
2.83427e-08
5.647e-11
-5.7426e-10
-2.89313e-08
2.8664e-08
-3.26567e-10
5.93892e-10
-2.60199e-08
2.45216e-08
-9.16822e-10
2.41509e-09
-1.74241e-08
1.45094e-08
-1.4785e-09
4.3932e-09
-4.08013e-09
6.95221e-10
-1.43948e-09
4.82439e-09
9.11448e-09
-1.17597e-08
-8.93198e-10
3.53845e-09
1.83483e-08
-1.98998e-08
-3.72735e-10
1.92431e-09
2.34425e-08
-2.42217e-08
-9.67222e-11
8.75896e-10
2.59538e-08
-2.63282e-08
-2.42006e-12
3.76825e-10
2.71275e-08
-2.72774e-08
2.86728e-11
1.21235e-10
2.74541e-08
-2.74159e-08
6.26872e-11
-1.00933e-10
2.6997e-08
-2.67718e-08
1.12478e-10
-3.37747e-10
2.57888e-08
-2.53988e-08
1.64975e-10
-5.54895e-10
2.39594e-08
-2.34469e-08
2.07936e-10
-7.20446e-10
2.1694e-08
-2.11056e-08
2.36129e-10
-8.24482e-10
1.91815e-08
-1.8559e-08
2.49752e-10
-8.72239e-10
1.65807e-08
-1.59557e-08
2.51147e-10
-8.76083e-10
1.40071e-08
-1.34025e-08
2.4352e-10
-8.48117e-10
1.15412e-08
-1.09697e-08
2.30484e-10
-8.01987e-10
9.22808e-09
-8.69767e-09
2.14039e-10
-7.44448e-10
7.09073e-09
-6.60379e-09
1.96559e-10
-6.835e-10
5.13561e-09
-4.69246e-09
1.78886e-10
-6.22038e-10
3.36038e-09
-2.95962e-09
1.6181e-10
-5.62576e-10
1.75566e-09
-1.39423e-09
1.45996e-10
-5.07426e-10
3.09567e-09
1.0333e-08
-7.5387e-09
-5.88994e-09
6.37229e-09
7.15691e-09
-4.83815e-09
-8.69104e-09
-3.75626e-09
1.21633e-08
7.17191e-09
-1.5579e-08
-1.79616e-08
1.09132e-08
2.13991e-08
-1.43507e-08
-3.11346e-08
8.00605e-09
3.39682e-08
-1.08396e-08
-4.17874e-08
6.40486e-09
4.42017e-08
-8.81918e-09
-5.10433e-08
4.39498e-09
5.29989e-08
-6.35057e-09
-5.73842e-08
-5.15788e-10
5.81821e-08
-2.82108e-10
-5.80776e-08
-8.07185e-09
5.70451e-08
9.10441e-09
-5.03305e-08
-1.64119e-08
4.69314e-08
1.98111e-08
-3.35202e-08
-1.96886e-08
2.84362e-08
2.47725e-08
-1.23048e-08
-1.66271e-08
7.14256e-09
2.17894e-08
7.30458e-09
-1.12671e-08
-1.14682e-08
1.54307e-08
2.22077e-08
-6.78714e-09
-2.50764e-08
9.65584e-09
3.20197e-08
-3.77823e-09
-3.37488e-08
5.50736e-09
3.76135e-08
-1.67806e-09
-3.84618e-08
2.52638e-09
3.99502e-08
6.29696e-11
-4.01123e-08
9.90986e-11
3.97684e-08
1.51953e-09
-3.94184e-08
-1.86951e-09
3.77772e-08
2.61041e-09
-3.70863e-08
-3.30131e-09
3.46349e-08
3.31738e-09
-3.37472e-08
-4.20511e-09
3.08693e-08
3.69046e-09
-2.9891e-08
-4.66872e-09
2.68577e-08
3.80771e-09
-2.58619e-08
-4.80346e-09
2.28541e-08
3.74792e-09
-2.1888e-08
-4.71403e-09
1.90207e-08
3.57251e-09
-1.81137e-08
-4.47951e-09
1.54537e-08
3.33237e-09
-1.46214e-08
-4.16472e-09
1.22015e-08
3.06185e-09
-1.14493e-08
-3.81403e-09
9.27127e-09
2.78892e-09
-8.59636e-09
-3.46383e-09
6.64542e-09
2.52464e-09
-6.04096e-09
-3.1291e-09
4.29288e-09
2.27977e-09
-3.74992e-09
-2.82273e-09
2.17763e-09
2.05172e-09
-1.68952e-09
-2.53983e-09
3.70676e-09
2.31263e-08
-1.97785e-08
-7.05454e-09
9.28762e-09
1.29277e-08
-7.93609e-09
-1.42793e-08
-4.47372e-10
2.59105e-08
3.89157e-09
-2.93547e-08
-1.49161e-08
2.49868e-08
1.84885e-08
-2.85593e-08
-2.87472e-08
1.97975e-08
3.17702e-08
-2.28205e-08
-4.02307e-08
1.6606e-08
4.28868e-08
-1.92621e-08
-5.05597e-08
1.28686e-08
5.28187e-08
-1.51276e-08
-5.82209e-08
3.47789e-09
5.93979e-08
-4.65491e-09
-6.06798e-08
-1.10706e-08
6.0196e-08
1.15544e-08
-5.5556e-08
-2.84446e-08
5.29626e-08
3.1038e-08
-4.22295e-08
-3.85547e-08
3.80184e-08
4.27658e-08
-2.42329e-08
-3.65295e-08
1.9677e-08
4.10854e-08
-6.45895e-09
-2.79791e-08
2.49817e-09
3.19398e-08
8.11468e-09
-1.87338e-08
-1.10602e-08
2.16794e-08
1.84218e-08
-1.11669e-08
-2.03181e-08
1.30631e-08
2.4718e-08
-5.4362e-09
-2.57488e-08
6.46701e-09
2.78402e-08
-9.14831e-10
-2.82189e-08
1.29346e-09
2.8602e-08
2.56973e-09
-2.85092e-08
-2.66259e-09
2.7697e-08
4.99399e-09
-2.72871e-08
-5.40395e-09
2.57036e-08
6.47211e-09
-2.50989e-08
-7.0768e-09
2.30679e-08
7.20981e-09
-2.23587e-08
-7.91904e-09
2.01154e-08
7.41198e-09
-1.93672e-08
-8.16013e-09
1.70826e-08
7.25062e-09
-1.6343e-08
-7.99018e-09
1.41406e-08
6.85135e-09
-1.34439e-08
-7.54805e-09
1.14102e-08
6.31764e-09
-1.0779e-08
-6.94883e-09
8.96644e-09
5.72701e-09
-8.41164e-09
-6.28181e-09
6.83268e-09
5.14833e-09
-6.35215e-09
-5.62886e-09
4.98589e-09
4.6143e-09
-4.56875e-09
-5.03144e-09
3.37455e-09
4.14563e-09
-3.00626e-09
-4.51392e-09
1.94191e-09
3.72801e-09
-1.61122e-09
-4.0587e-09
3.91286e-09
3.6977e-08
-3.34618e-08
-7.42804e-09
1.00012e-08
1.83112e-08
-8.64734e-09
-1.9665e-08
2.13772e-10
3.9711e-08
3.25194e-09
-4.31767e-08
-1.43197e-08
3.92992e-08
1.79077e-08
-4.28871e-08
-2.82064e-08
3.18834e-08
3.1223e-08
-3.49e-08
-3.96605e-08
2.72641e-08
4.23333e-08
-2.9937e-08
-5.01249e-08
2.19936e-08
5.24375e-08
-2.43063e-08
-5.80006e-08
8.29628e-09
5.92435e-08
-9.53916e-09
-6.077e-08
-1.28637e-08
6.03633e-08
1.32704e-08
-5.59517e-08
-3.86314e-08
5.34225e-08
4.11606e-08
-4.29689e-08
-5.4988e-08
3.89127e-08
5.90441e-08
-2.58873e-08
-5.40683e-08
2.16673e-08
5.82883e-08
-9.61358e-09
-4.31256e-08
6.03907e-09
4.67001e-08
3.53847e-09
-3.00693e-08
-6.22114e-09
3.2752e-08
1.30723e-08
-1.86304e-08
-1.48981e-08
2.04562e-08
1.93303e-08
-9.6811e-09
-2.04399e-08
1.07906e-08
2.29312e-08
-2.71551e-09
-2.34829e-08
3.26718e-09
2.4478e-08
2.56926e-09
-2.46024e-08
-2.4449e-09
2.44631e-08
6.25309e-09
-2.42696e-08
-6.44659e-09
2.33121e-08
8.54877e-09
-2.2898e-08
-8.96289e-09
2.13989e-08
9.76093e-09
-2.08467e-08
-1.03131e-08
1.90314e-08
1.01766e-08
-1.84067e-08
-1.08013e-08
1.64499e-08
1.00341e-08
-1.58022e-08
-1.06818e-08
1.38356e-08
9.50914e-09
-1.32022e-08
-1.01426e-08
1.13229e-08
8.74884e-09
-1.07305e-08
-9.3412e-09
9.00627e-09
7.87647e-09
-8.47164e-09
-8.4111e-09
6.9332e-09
7.01485e-09
-6.46021e-09
-7.48784e-09
5.10373e-09
6.23625e-09
-4.68624e-09
-6.65375e-09
3.4832e-09
5.57961e-09
-3.11002e-09
-5.95279e-09
2.02648e-09
5.01875e-09
-1.68842e-09
-5.35681e-09
4.07285e-09
5.13363e-08
-4.77011e-08
-7.70811e-09
1.0346e-08
2.37889e-08
-8.946e-09
-2.51889e-08
3.92244e-10
5.36402e-08
3.12201e-09
-5.71545e-08
-1.42494e-08
5.36761e-08
1.78547e-08
-5.72815e-08
-2.82021e-08
4.39348e-08
3.12082e-08
-4.69408e-08
-3.9589e-08
3.79664e-08
4.22691e-08
-4.06465e-08
-5.01648e-08
3.13199e-08
5.25306e-08
-3.36858e-08
-5.82459e-08
1.3365e-08
5.95582e-08
-1.46773e-08
-6.13485e-08
-1.43899e-08
6.10153e-08
1.47231e-08
-5.67378e-08
-4.87959e-08
5.41793e-08
5.13544e-08
-4.3408e-08
-7.13924e-08
3.92108e-08
7.55896e-08
-2.585e-08
-7.09617e-08
2.15789e-08
7.52328e-08
-9.55961e-09
-5.72621e-08
6.04584e-09
6.07759e-08
3.29053e-09
-4.06405e-08
-5.89849e-09
4.32485e-08
1.26075e-08
-2.59044e-08
-1.44228e-08
2.77197e-08
1.8929e-08
-1.42101e-08
-2.00915e-08
1.53726e-08
2.27972e-08
-5.06813e-09
-2.34288e-08
5.69973e-09
2.46726e-08
1.92159e-09
-2.4875e-08
-1.71914e-09
2.49565e-08
6.89704e-09
-2.48278e-08
-7.02575e-09
2.40481e-08
1.00989e-08
-2.36859e-08
-1.04611e-08
2.23313e-08
1.18832e-08
-2.18224e-08
-1.23921e-08
2.01278e-08
1.26062e-08
-1.95388e-08
-1.31952e-08
1.76773e-08
1.25765e-08
-1.70555e-08
-1.31983e-08
1.51478e-08
1.2021e-08
-1.45257e-08
-1.26431e-08
1.26516e-08
1.113e-08
-1.20503e-08
-1.17314e-08
1.02625e-08
1.00637e-08
-9.69503e-09
-1.06312e-08
8.02079e-09
8.98878e-09
-7.49274e-09
-9.51682e-09
5.94223e-09
8.01004e-09
-5.45467e-09
-8.4976e-09
4.02626e-09
7.18447e-09
-3.57728e-09
-7.63345e-09
2.26401e-09
6.47955e-09
-1.8526e-09
-6.89096e-09
4.26393e-09
6.6221e-08
-6.24445e-08
-8.04049e-09
1.07139e-08
2.94825e-08
-9.24751e-09
-3.09488e-08
5.45431e-10
6.77918e-08
3.03479e-09
-7.13721e-08
-1.42339e-08
6.81283e-08
1.78603e-08
-7.17547e-08
-2.82739e-08
5.59403e-08
3.12664e-08
-5.89327e-08
-3.95682e-08
4.86987e-08
4.2256e-08
-5.13866e-08
-5.02831e-08
4.08806e-08
5.27168e-08
-4.33143e-08
-5.86182e-08
1.87455e-08
6.00229e-08
-2.01502e-08
-6.21667e-08
-1.55795e-08
6.19339e-08
1.58123e-08
-5.78846e-08
-5.90558e-08
5.53119e-08
6.16284e-08
-4.41551e-08
-8.84684e-08
3.97586e-08
9.28648e-08
-2.57976e-08
-8.82741e-08
2.13644e-08
9.27073e-08
-8.99557e-09
-7.14032e-08
5.41293e-09
7.49859e-08
4.0347e-09
-5.10843e-08
-6.65873e-09
5.37083e-08
1.33954e-08
-3.31791e-08
-1.52204e-08
3.50041e-08
1.97785e-08
-1.89021e-08
-2.09653e-08
2.00888e-08
2.37562e-08
-7.64363e-09
-2.44152e-08
8.30267e-09
2.57271e-08
1.08027e-09
-2.59445e-08
-8.62853e-10
2.60486e-08
7.40034e-09
-2.59212e-08
-7.5278e-09
2.51343e-08
1.15448e-08
-2.47677e-08
-1.19113e-08
2.34001e-08
1.39139e-08
-2.28879e-08
-1.44262e-08
2.11858e-08
1.49545e-08
-2.0596e-08
-1.55443e-08
1.87357e-08
1.50551e-08
-1.81147e-08
-1.56762e-08
1.62065e-08
1.4508e-08
-1.55822e-08
-1.51323e-08
1.36896e-08
1.35512e-08
-1.3077e-08
-1.41638e-08
1.12345e-08
1.23746e-08
-1.06417e-08
-1.29673e-08
8.8667e-09
1.11685e-08
-8.29836e-09
-1.17368e-08
6.6068e-09
1.00466e-08
-6.06833e-09
-1.0585e-08
4.47599e-09
9.07383e-09
-3.97197e-09
-9.57785e-09
2.49151e-09
8.21581e-09
-2.02663e-09
-8.6807e-09
4.50014e-09
8.17488e-08
-7.77992e-08
-8.44974e-09
1.11634e-08
3.5471e-08
-9.61111e-09
-3.70234e-08
7.2489e-10
8.22281e-08
2.93449e-09
-8.58875e-08
-1.42191e-08
8.2671e-08
1.78714e-08
-8.63234e-08
-2.83732e-08
6.78849e-08
3.1348e-08
-7.08598e-08
-3.95425e-08
5.94624e-08
4.22386e-08
-6.21585e-08
-5.04299e-08
5.07361e-08
5.29476e-08
-5.32538e-08
-5.90624e-08
2.4534e-08
6.05866e-08
-2.60581e-08
-6.31748e-08
-1.63333e-08
6.30648e-08
1.64434e-08
-5.93316e-08
-6.93528e-08
5.67575e-08
7.19269e-08
-4.51346e-08
-1.06406e-07
4.04926e-08
1.11048e-07
-2.57922e-08
-1.06299e-07
2.11568e-08
1.10934e-07
-8.32858e-09
-8.58801e-08
4.64477e-09
8.95639e-08
4.99578e-09
-6.1629e-08
-7.65446e-09
6.42877e-08
1.44479e-08
-4.04961e-08
-1.62841e-08
4.23323e-08
2.08807e-08
-2.36743e-08
-2.20843e-08
2.48779e-08
2.49345e-08
-1.03066e-08
-2.56117e-08
1.09838e-08
2.6958e-08
2.06906e-10
-2.71777e-08
1.28279e-11
2.72583e-08
7.93147e-09
-2.71147e-08
-8.07505e-09
2.62609e-08
1.30446e-08
-2.58688e-08
-1.34367e-08
2.44176e-08
1.59994e-08
-2.38777e-08
-1.65393e-08
2.2097e-08
1.73443e-08
-2.14828e-08
-1.79585e-08
1.95524e-08
1.7565e-08
-1.891e-08
-1.82074e-08
1.69407e-08
1.70284e-08
-1.62975e-08
-1.76716e-08
1.43486e-08
1.60263e-08
-1.37176e-08
-1.66572e-08
1.18173e-08
1.4776e-08
-1.12047e-08
-1.53886e-08
9.36602e-09
1.34787e-08
-8.77579e-09
-1.40689e-08
7.01436e-09
1.22426e-08
-6.45221e-09
-1.28047e-08
4.78602e-09
1.11343e-08
-4.25738e-09
-1.1663e-08
2.70165e-09
1.01189e-08
-2.21222e-09
-1.06083e-08
4.78836e-09
9.80593e-08
-9.39005e-08
-8.94721e-09
1.1698e-08
4.18299e-08
-1.00424e-08
-4.34856e-08
9.33843e-10
9.69949e-08
2.81411e-09
-1.00743e-07
-1.41951e-08
9.73236e-08
1.78774e-08
-1.01006e-07
-2.84902e-08
7.9751e-08
3.14418e-08
-8.27026e-08
-3.94898e-08
7.0258e-08
4.21933e-08
-7.29615e-08
-5.05824e-08
6.09522e-08
5.32008e-08
-6.35705e-08
-5.95452e-08
3.08482e-08
6.12228e-08
-3.25258e-08
-6.43544e-08
-1.65635e-08
6.43888e-08
1.65291e-08
-6.10763e-08
-7.96286e-08
5.85209e-08
8.2184e-08
-4.63215e-08
-1.25409e-07
4.13754e-08
1.30355e-07
-2.57795e-08
-1.25186e-07
2.09051e-08
1.30061e-07
-7.54622e-09
-1.00783e-07
3.74814e-09
1.04581e-07
6.10414e-09
-7.23157e-08
-8.79832e-09
7.50099e-08
1.56447e-08
-4.78551e-08
-1.74901e-08
4.97005e-08
2.2124e-08
-2.85156e-08
-2.33464e-08
2.9738e-08
2.627e-08
-1.30483e-08
-2.69712e-08
1.37495e-08
2.83659e-08
-6.75937e-10
-2.85891e-08
8.99177e-10
2.86383e-08
8.53853e-09
-2.84718e-08
-8.70501e-09
2.75216e-08
1.46656e-08
-2.70923e-08
-1.50949e-08
2.55194e-08
1.82167e-08
-2.49386e-08
-1.87975e-08
2.30328e-08
1.98579e-08
-2.23784e-08
-2.05123e-08
2.03299e-08
2.0186e-08
-1.96508e-08
-2.08651e-08
1.75757e-08
1.96463e-08
-1.69002e-08
-2.03217e-08
1.48617e-08
1.85874e-08
-1.42045e-08
-1.92445e-08
1.22347e-08
1.72549e-08
-1.16029e-08
-1.78867e-08
9.71581e-09
1.58604e-08
-9.11284e-09
-1.64634e-08
7.31992e-09
1.45069e-08
-6.74925e-09
-1.50776e-08
5.05943e-09
1.32636e-08
-4.52303e-09
-1.38e-08
2.94124e-09
1.2094e-08
-2.44207e-09
-1.25932e-08
5.13262e-09
1.153e-07
-1.10895e-07
-9.53845e-09
1.23242e-08
4.86277e-08
-1.05486e-08
-5.04033e-08
1.17206e-09
1.12134e-07
2.67552e-09
-1.15981e-07
-1.41664e-08
1.12104e-07
1.78838e-08
-1.15822e-07
-2.86404e-08
9.15166e-08
3.15633e-08
-9.44395e-08
-3.94183e-08
8.10831e-08
4.21287e-08
-8.37935e-08
-5.07568e-08
7.15997e-08
5.34952e-08
-7.43382e-08
-6.00753e-08
3.78411e-08
6.19522e-08
-3.97179e-08
-6.57393e-08
-1.61847e-08
6.59386e-08
1.59855e-08
-6.31751e-08
-8.97861e-08
6.06715e-08
9.22897e-08
-4.77483e-08
-1.45736e-07
4.24244e-08
1.51059e-07
-2.57445e-08
-1.45093e-07
2.05885e-08
1.50249e-07
-6.62099e-09
-1.16162e-07
2.69593e-09
1.20087e-07
7.381e-09
-8.3145e-08
-1.01093e-08
8.58734e-08
1.6997e-08
-5.52474e-08
-1.88484e-08
5.70988e-08
2.35191e-08
-3.34392e-08
-2.47648e-08
3.46848e-08
2.77898e-08
-1.59025e-08
-2.85268e-08
1.66395e-08
3.00004e-08
-1.58016e-09
-3.02325e-08
1.81228e-09
3.02491e-08
9.24469e-09
-3.00547e-08
-9.43911e-09
2.89836e-08
1.64502e-08
-2.85073e-08
-1.69265e-08
2.67817e-08
2.06139e-08
-2.61497e-08
-2.12459e-08
2.40879e-08
2.25482e-08
-2.33834e-08
-2.32527e-08
2.11867e-08
2.297e-08
-2.0461e-08
-2.36957e-08
1.82518e-08
2.2407e-08
-1.75357e-08
-2.31231e-08
1.53855e-08
2.12623e-08
-1.46965e-08
-2.19513e-08
1.26463e-08
1.98124e-08
-1.1994e-08
-2.04647e-08
1.00622e-08
1.82867e-08
-9.45016e-09
-1.88988e-08
7.64307e-09
1.67934e-08
-7.07124e-09
-1.73652e-08
5.38293e-09
1.54104e-08
-4.84736e-09
-1.59459e-08
3.26268e-09
1.40978e-08
-2.75987e-09
-1.46007e-08
5.53817e-09
1.33633e-07
-1.28938e-07
-1.0233e-08
1.30438e-08
5.5929e-08
-1.11324e-08
-5.78404e-08
1.438e-09
1.27685e-07
2.51921e-09
-1.31642e-07
-1.41321e-08
1.27033e-07
1.78899e-08
-1.30791e-07
-2.8831e-08
1.03158e-07
3.17188e-08
-1.06045e-07
-3.93205e-08
9.19338e-08
4.20366e-08
-9.46499e-08
-5.09505e-08
8.27597e-08
5.38316e-08
-8.56409e-08
-6.06376e-08
4.57179e-08
6.27755e-08
-4.78558e-08
-6.73496e-08
-1.51209e-08
6.77288e-08
1.47417e-08
-6.56747e-08
-9.96614e-08
6.32782e-08
1.02058e-07
-4.94361e-08
-1.677e-07
4.36456e-08
1.73491e-07
-2.56663e-08
-1.66194e-07
2.01825e-08
1.71678e-07
-5.52686e-09
-1.32067e-07
1.46321e-09
1.3613e-07
8.8457e-09
-9.41051e-08
-1.16039e-08
9.68633e-08
1.85109e-08
-6.26544e-08
-2.03615e-08
6.4505e-08
2.50616e-08
-3.8462e-08
-2.63348e-08
3.97352e-08
2.94991e-08
-1.8924e-08
-3.02895e-08
1.97144e-08
3.18878e-08
-2.53144e-09
-3.21372e-08
2.78089e-09
3.21219e-08
1.00716e-08
-3.1893e-08
-1.03005e-08
3.06714e-08
1.84384e-08
-3.0137e-08
-1.89728e-08
2.82274e-08
2.32301e-08
-2.75342e-08
-2.39233e-08
2.52899e-08
2.54512e-08
-2.45273e-08
-2.62139e-08
2.21595e-08
2.59511e-08
-2.13802e-08
-2.67305e-08
1.9016e-08
2.53401e-08
-1.82528e-08
-2.61033e-08
1.59727e-08
2.4072e-08
-1.52466e-08
-2.47981e-08
1.31032e-08
2.24552e-08
-1.24276e-08
-2.31307e-08
1.04487e-08
2.07465e-08
-9.82905e-09
-2.13662e-08
8.02148e-09
1.90742e-08
-7.45575e-09
-1.964e-08
5.79886e-09
1.75397e-08
-5.27546e-09
-1.80631e-08
3.72216e-09
1.61055e-08
-3.22497e-09
-1.66027e-08
6.01129e-09
1.53239e-07
-1.48207e-07
-1.10426e-08
1.38539e-08
6.37957e-08
-1.1792e-08
-6.58576e-08
1.72869e-09
1.43687e-07
2.34536e-09
-1.47761e-07
-1.40861e-08
1.42128e-07
1.78876e-08
-1.4593e-07
-2.90611e-08
1.14646e-07
3.19053e-08
-1.1749e-07
-3.9173e-08
1.02803e-07
4.18916e-08
-1.05522e-07
-5.11423e-08
9.45286e-08
5.41929e-08
-9.75792e-08
-6.11918e-08
5.47539e-08
6.36722e-08
-5.72343e-08
-6.91967e-08
-1.33327e-08
6.97529e-08
1.27765e-08
-6.86125e-08
-1.08985e-07
6.64142e-08
1.11184e-07
-5.13882e-08
-1.91684e-07
4.50243e-08
1.98048e-07
-2.55091e-08
-1.88675e-07
1.96507e-08
1.94533e-07
-4.23423e-09
-1.48539e-07
2.35248e-11
1.5275e-07
1.05136e-08
-1.05173e-07
-1.32928e-08
1.07952e-07
2.01809e-08
-7.00425e-08
-2.20192e-08
7.18808e-08
2.67278e-08
-4.35989e-08
-2.80307e-08
4.49018e-08
3.13842e-08
-2.21936e-08
-3.22532e-08
2.30626e-08
3.40448e-08
-3.56924e-09
-3.43241e-08
3.84854e-09
3.42764e-08
1.10496e-08
-3.40036e-08
-1.13225e-08
3.25906e-08
2.0678e-08
-3.19847e-08
-2.12838e-08
2.98524e-08
2.61047e-08
-2.90887e-08
-2.68684e-08
2.66374e-08
2.85972e-08
-2.58097e-08
-2.94249e-08
2.32504e-08
2.9157e-08
-2.24107e-08
-2.99968e-08
1.9871e-08
2.84715e-08
-1.90538e-08
-2.92888e-08
1.66219e-08
2.704e-08
-1.58514e-08
-2.78104e-08
1.35931e-08
2.51988e-08
-1.28879e-08
-2.59041e-08
1.08476e-08
2.32369e-08
-1.02188e-08
-2.38658e-08
8.41985e-09
2.13156e-08
-7.8693e-09
-2.18661e-08
6.29031e-09
1.95898e-08
-5.79976e-09
-2.00804e-08
4.3477e-09
1.80609e-08
-3.87708e-09
-1.85315e-08
6.5595e-09
1.7432e-07
-1.689e-07
-1.19801e-08
1.47604e-08
7.22868e-08
-1.25335e-08
-7.45138e-08
2.04143e-09
1.60168e-07
2.15646e-09
-1.64365e-07
-1.40315e-08
1.57406e-07
1.7881e-08
-1.61255e-07
-2.93536e-08
1.25947e-07
3.21452e-08
-1.28739e-07
-3.89785e-08
1.13678e-07
4.16962e-08
-1.16396e-07
-5.13464e-08
1.07028e-07
5.46043e-08
-1.10286e-07
-6.17362e-08
6.53152e-08
6.46696e-08
-6.82486e-08
-7.13724e-08
-1.08902e-08
7.20552e-08
1.02075e-08
-7.20951e-08
-1.17317e-07
7.02449e-08
1.19167e-07
-5.36413e-08
-2.18157e-07
4.65674e-08
2.25231e-07
-2.52472e-08
-2.1273e-07
1.89647e-08
2.19013e-07
-2.71355e-09
-1.65613e-07
-1.65195e-09
1.69978e-07
1.24095e-08
-1.16307e-07
-1.51972e-08
1.19095e-07
2.20132e-08
-7.73593e-08
-2.3823e-08
7.91691e-08
2.85027e-08
-4.88547e-08
-2.98339e-08
5.0186e-08
3.34456e-08
-2.58307e-08
-3.44317e-08
2.68168e-08
3.65225e-08
-4.75285e-09
-3.68508e-08
5.08125e-09
3.67683e-08
1.22266e-08
-3.64341e-08
-1.25607e-08
3.47658e-08
2.32296e-08
-3.40699e-08
-2.39255e-08
3.16734e-08
2.92785e-08
-3.08285e-08
-3.01234e-08
2.81433e-08
3.20135e-08
-2.72427e-08
-3.29141e-08
2.44702e-08
3.26153e-08
-2.35631e-08
-3.35224e-08
2.08246e-08
3.1832e-08
-1.99442e-08
-3.27124e-08
1.73295e-08
3.02015e-08
-1.65032e-08
-3.10279e-08
1.40905e-08
2.808e-08
-1.33411e-08
-2.88294e-08
1.11906e-08
2.57833e-08
-1.05344e-08
-2.64394e-08
8.67982e-09
2.35124e-08
-8.11957e-09
-2.40727e-08
6.53378e-09
2.15161e-08
-6.04793e-09
-2.20019e-08
4.62996e-09
1.99053e-08
-4.17319e-09
-2.03621e-08
7.19178e-09
1.97105e-07
-1.91236e-07
-1.30603e-08
1.5763e-08
8.14587e-08
-1.33578e-08
-8.38639e-08
2.37207e-09
1.77151e-07
1.95402e-09
-1.81478e-07
-1.39644e-08
1.7288e-07
1.78644e-08
-1.7678e-07
-2.97222e-08
1.37022e-07
3.24494e-08
-1.39749e-07
-3.87184e-08
1.24541e-07
4.14294e-08
-1.27252e-07
-5.15503e-08
1.20435e-07
5.50731e-08
-1.23957e-07
-6.22064e-08
7.79098e-08
6.57582e-08
-8.14616e-08
-7.39419e-08
-8.11587e-09
7.46221e-08
7.43566e-09
-7.62282e-08
-1.23906e-07
7.49936e-08
1.25141e-07
-5.62066e-08
-2.47728e-07
4.82387e-08
2.55696e-07
-2.48318e-08
-2.38555e-07
1.80778e-08
2.45309e-07
-9.28849e-10
-1.83314e-07
-3.59632e-09
1.87839e-07
1.45584e-08
-1.2745e-07
-1.73355e-08
1.30227e-07
2.40031e-08
-8.45316e-08
-2.5763e-08
8.62915e-08
3.03462e-08
-5.42111e-08
-3.16939e-08
5.55588e-08
3.56588e-08
-3.00169e-08
-3.6821e-08
3.11791e-08
3.93752e-08
-6.17281e-09
-3.9782e-08
6.57969e-09
3.96511e-08
1.36864e-08
-3.92269e-08
-1.41106e-08
3.72062e-08
2.61775e-08
-3.6395e-08
-2.69888e-08
3.36834e-08
3.27929e-08
-3.27468e-08
-3.37295e-08
2.98049e-08
3.57324e-08
-2.88258e-08
-3.67115e-08
2.58218e-08
3.63531e-08
-2.48404e-08
-3.73345e-08
2.18768e-08
3.54598e-08
-2.09237e-08
-3.64129e-08
1.80889e-08
3.36083e-08
-1.71917e-08
-3.45055e-08
1.45691e-08
3.11696e-08
-1.37536e-08
-3.19851e-08
1.14067e-08
2.84948e-08
-1.06862e-08
-2.92152e-08
8.61901e-09
2.58616e-08
-7.97908e-09
-2.65016e-08
6.11128e-09
2.3594e-08
-5.52581e-09
-2.41795e-08
3.84837e-09
2.17789e-08
-3.3475e-09
-2.22798e-08
7.9197e-09
2.21842e-07
-2.15459e-07
-1.43025e-08
1.68621e-08
9.13612e-08
-1.42673e-08
-9.3956e-08
2.71568e-09
1.94651e-07
1.74022e-09
-1.99107e-07
-1.3881e-08
1.88557e-07
1.78322e-08
-1.92508e-07
-3.01895e-08
1.47817e-07
3.28371e-08
-1.50465e-07
-3.83751e-08
1.35366e-07
4.10708e-08
-1.38061e-07
-5.17426e-08
1.35036e-07
5.56337e-08
-1.38927e-07
-6.23782e-08
9.33946e-08
6.68718e-08
-9.78882e-08
-7.65516e-08
-5.42035e-09
7.73316e-08
4.64037e-09
-8.10794e-08
-1.27354e-07
8.10158e-08
1.27418e-07
-5.90784e-08
-2.8123e-07
4.99669e-08
2.90341e-07
-2.42002e-08
-2.66326e-07
1.69373e-08
2.73589e-07
1.15247e-09
-2.01668e-07
-5.84658e-09
2.06362e-07
1.69923e-08
-1.38512e-07
-1.97318e-08
1.41252e-07
2.61458e-08
-9.14667e-08
-2.78305e-08
9.31513e-08
3.22017e-08
-5.95896e-08
-3.35297e-08
6.09175e-08
3.7984e-08
-3.5032e-08
-3.94139e-08
3.64619e-08
4.26922e-08
-7.97014e-09
-4.32247e-08
8.50263e-09
4.30127e-08
1.5576e-08
-4.24446e-08
-1.6144e-08
3.99109e-08
2.96338e-08
-3.89511e-08
-3.05935e-08
3.58714e-08
3.66874e-08
-3.48351e-08
-3.77236e-08
3.16225e-08
3.97717e-08
-3.05612e-08
-4.0833e-08
2.73125e-08
4.03971e-08
-2.62515e-08
-4.14582e-08
2.30412e-08
3.93934e-08
-2.20054e-08
-4.04292e-08
1.89105e-08
3.7323e-08
-1.79259e-08
-3.83077e-08
1.50315e-08
3.4558e-08
-1.41268e-08
-3.54626e-08
1.1518e-08
3.14906e-08
-1.07195e-08
-3.22892e-08
8.46414e-09
2.84994e-08
-7.78731e-09
-2.91763e-08
5.90286e-09
2.59801e-08
-5.33352e-09
-2.65494e-08
3.5647e-09
2.41063e-08
-2.88352e-09
-2.47875e-08
8.75401e-09
2.48815e-07
-2.41845e-07
-1.57244e-08
1.80572e-08
1.02035e-07
-1.52649e-08
-1.04828e-07
3.06632e-09
2.12668e-07
1.51756e-09
-2.17252e-07
-1.37786e-08
2.04435e-07
1.77766e-08
-2.08433e-07
-3.07865e-08
1.58265e-07
3.33343e-08
-1.60813e-07
-3.79262e-08
1.46112e-07
4.05948e-08
-1.48781e-07
-5.19138e-08
1.51325e-07
5.63114e-08
-1.55722e-07
-6.24023e-08
1.13095e-07
6.78658e-08
-1.18558e-07
-7.85215e-08
-6.55055e-10
8.08717e-08
-1.69518e-09
-8.52229e-08
-1.24099e-07
8.81231e-08
1.21198e-07
-6.2136e-08
-3.19698e-07
5.16455e-08
3.30189e-07
-2.32678e-08
-2.96167e-07
1.5479e-08
3.03956e-07
3.57728e-09
-2.207e-07
-8.44534e-09
2.25568e-07
1.97526e-08
-1.49369e-07
-2.24145e-08
1.52031e-07
2.8433e-08
-9.80631e-08
-3.00181e-08
9.96482e-08
3.3995e-08
-6.47787e-08
-3.52126e-08
6.59964e-08
4.03506e-08
-4.13126e-08
-4.21912e-08
4.31533e-08
4.66098e-08
-1.03764e-08
-4.73484e-08
1.1115e-08
4.69885e-08
1.81783e-08
-4.61698e-08
-1.8997e-08
4.28479e-08
3.37434e-08
-4.16996e-08
-3.48916e-08
3.82138e-08
4.09841e-08
-3.70776e-08
-4.21202e-08
3.35958e-08
4.41412e-08
-3.24522e-08
-4.52847e-08
2.8956e-08
4.47645e-08
-2.78128e-08
-4.59076e-08
2.43413e-08
4.36706e-08
-2.32152e-08
-4.47968e-08
1.98252e-08
4.14129e-08
-1.87367e-08
-4.25014e-08
1.54999e-08
3.83459e-08
-1.44747e-08
-3.9371e-08
1.14768e-08
3.48527e-08
-1.05467e-08
-3.57828e-08
7.8922e-09
3.13243e-08
-7.0875e-09
-3.2129e-08
4.82261e-09
2.82595e-08
-4.13885e-09
-2.89432e-08
2.24011e-09
2.62533e-08
-1.7458e-09
-2.67477e-08
9.7092e-09
2.78346e-07
-2.70705e-07
-1.73509e-08
1.93482e-08
1.13505e-07
-1.63557e-08
-1.16498e-07
3.41707e-09
2.3119e-07
1.28922e-09
-2.35896e-07
-1.36578e-08
2.20482e-07
1.7688e-08
-2.24513e-07
-3.15583e-08
1.68277e-07
3.39803e-08
-1.70699e-07
-3.73464e-08
1.5673e-07
3.99739e-08
-1.59357e-07
-5.20744e-08
1.69768e-07
5.7057e-08
-1.7475e-07
-6.45082e-08
1.33171e-07
6.74852e-08
-1.36148e-07
-8.1955e-08
1.31121e-08
8.69358e-08
-1.80929e-08
-8.59418e-08
-1.04709e-07
9.3672e-08
9.69785e-08
-6.49966e-08
-3.63729e-07
5.3196e-08
3.7553e-07
-2.19538e-08
-3.28114e-07
1.36379e-08
3.3643e-07
6.40364e-09
-2.40456e-07
-1.14588e-08
2.45511e-07
2.28956e-08
-1.59837e-07
-2.54234e-08
1.62365e-07
3.08482e-08
-1.04231e-07
-3.23146e-08
1.05697e-07
3.56947e-08
-6.92289e-08
-3.65403e-08
7.00745e-08
4.26436e-08
-4.9541e-08
-4.51193e-08
5.20166e-08
5.13424e-08
-1.37999e-08
-5.24359e-08
1.48933e-08
5.18105e-08
2.20677e-08
-5.05121e-08
-2.33661e-08
4.59151e-08
3.86555e-08
-4.45553e-08
-4.00153e-08
4.06784e-08
4.5664e-08
-3.94576e-08
-4.68848e-08
3.57305e-08
4.88347e-08
-3.45084e-08
-5.00569e-08
3.0774e-08
4.94593e-08
-2.95503e-08
-5.0683e-08
2.58168e-08
4.83146e-08
-2.45978e-08
-4.95336e-08
2.08953e-08
4.59366e-08
-1.96929e-08
-4.7139e-08
1.60608e-08
4.26658e-08
-1.48867e-08
-4.384e-08
1.13527e-08
3.88716e-08
-1.02154e-08
-4.00089e-08
6.82069e-09
3.49394e-08
-5.73987e-09
-3.60202e-08
2.54526e-09
3.15152e-08
-1.52729e-09
-3.25332e-08
-1.29402e-09
2.89961e-08
2.07306e-09
-2.97751e-08
1.0806e-08
3.10807e-07
-3.02395e-07
-1.92189e-08
2.07254e-08
1.25768e-07
-1.75398e-08
-1.28953e-07
3.75837e-09
2.50184e-07
1.05866e-09
-2.55001e-07
-1.35148e-08
2.36616e-07
1.75453e-08
-2.40646e-07
-3.25539e-08
1.77738e-07
3.48183e-08
-1.80002e-07
-3.6586e-08
1.67161e-07
3.9159e-08
-1.69734e-07
-5.21754e-08
1.90804e-07
5.79881e-08
-1.96616e-07
-6.64693e-08
1.34615e-07
6.27586e-08
-1.30905e-07
-8.32946e-08
3.20587e-08
8.61578e-08
-3.49219e-08
-9.50864e-08
-7.51996e-08
9.95927e-08
7.06933e-08
-6.69527e-08
-4.12222e-07
5.4482e-08
4.24693e-07
-2.01993e-08
-3.62202e-07
1.13398e-08
3.71061e-07
9.6486e-09
-2.61024e-07
-1.49358e-08
2.66311e-07
2.64893e-08
-1.69661e-07
-2.88074e-08
1.71979e-07
3.33138e-08
-1.09891e-07
-3.46302e-08
1.11208e-07
3.71761e-08
-7.12489e-08
-3.68704e-08
7.09432e-08
4.46748e-08
-6.07788e-08
-4.81284e-08
6.42324e-08
5.7179e-08
-1.90198e-08
-5.8919e-08
2.07598e-08
5.77495e-08
2.85661e-08
-5.53919e-08
-3.09238e-08
4.87734e-08
4.43168e-08
-4.73293e-08
-4.57608e-08
4.32094e-08
5.06262e-08
-4.1949e-08
-5.18867e-08
3.80195e-08
5.38279e-08
-3.67288e-08
-5.51186e-08
3.27816e-08
5.4467e-08
-3.14844e-08
-5.57642e-08
2.75071e-08
5.33244e-08
-2.62002e-08
-5.46313e-08
2.21986e-08
5.09132e-08
-2.0887e-08
-5.22248e-08
1.68801e-08
4.75793e-08
-1.55675e-08
-4.88919e-08
1.15471e-08
4.37243e-08
-1.0225e-08
-4.50465e-08
6.16291e-09
3.96988e-08
-4.82596e-09
-4.10358e-08
7.54459e-10
3.60604e-08
5.61372e-10
-3.73763e-08
-4.39861e-09
3.31743e-08
5.54584e-09
-3.43215e-08
1.20594e-08
3.46629e-07
-3.37332e-07
-2.13567e-08
2.21779e-08
1.38776e-07
-1.88222e-08
-1.42131e-07
4.07903e-09
2.69597e-07
8.30219e-10
-2.74506e-07
-1.33498e-08
2.52675e-07
1.73241e-08
-2.5665e-07
-3.38515e-08
1.86521e-07
3.59278e-08
-1.88598e-07
-3.55895e-08
1.77362e-07
3.81034e-08
-1.79876e-07
-5.22018e-08
2.15952e-07
5.94162e-08
-2.23166e-07
-6.50673e-08
1.18316e-07
6.20407e-08
-1.15289e-07
-7.70302e-08
3.43568e-08
7.46199e-08
-3.19465e-08
-1.12273e-07
-6.89376e-08
1.0924e-07
7.19708e-08
-6.72279e-08
-4.61924e-07
5.51394e-08
4.74013e-07
-1.78822e-08
-3.98727e-07
8.56407e-09
4.08045e-07
1.33901e-08
-2.82564e-07
-1.89717e-08
2.88145e-07
3.06579e-08
-1.78497e-07
-3.26603e-08
1.805e-07
3.55601e-08
-1.14726e-07
-3.64224e-08
1.15588e-07
3.51717e-08
-6.72087e-08
-3.35999e-08
6.5637e-08
4.61993e-08
-7.67149e-08
-5.12255e-08
8.17411e-08
6.44441e-08
-2.75049e-08
-6.73063e-08
3.03671e-08
6.41741e-08
4.11376e-08
-5.9374e-08
-4.59377e-08
5.06118e-08
4.95357e-08
-4.97592e-08
-5.03882e-08
4.58221e-08
5.5655e-08
-4.45705e-08
-5.69066e-08
4.04745e-08
5.9082e-08
-3.91254e-08
-6.0431e-08
3.50021e-08
5.97517e-08
-3.36442e-08
-6.11095e-08
2.94598e-08
5.86708e-08
-2.80764e-08
-6.00542e-08
2.38127e-08
5.63063e-08
-2.24066e-08
-5.77124e-08
1.80912e-08
5.29963e-08
-1.66735e-08
-5.44139e-08
1.23349e-08
4.91794e-08
-1.09139e-08
-5.06004e-08
6.58616e-09
4.5183e-08
-5.1781e-09
-4.6591e-08
9.43419e-10
4.14066e-08
4.1202e-10
-4.2762e-08
-4.39044e-09
3.79218e-08
5.62707e-09
-3.91584e-08
1.3496e-08
3.86332e-07
-3.76011e-07
-2.38168e-08
2.36925e-08
1.52403e-07
-2.02156e-08
-1.5588e-07
4.36627e-09
2.89345e-07
6.09133e-10
-2.9432e-07
-1.31644e-08
2.68392e-07
1.6995e-08
-2.72222e-07
-3.5576e-08
1.94523e-07
3.74487e-08
-1.96396e-07
-3.42898e-08
1.87345e-07
3.67615e-08
-1.89817e-07
-5.25905e-08
2.47561e-07
6.16362e-08
-2.56607e-07
-6.37231e-08
1.07389e-07
6.02243e-08
-1.0389e-07
-7.84794e-08
2.95035e-08
8.09655e-08
-3.19896e-08
-1.20542e-07
-8.87244e-08
1.14771e-07
9.44949e-08
-6.55385e-08
-5.088e-07
5.50991e-08
5.1924e-07
-1.47421e-08
-4.3721e-07
4.5953e-09
4.47356e-07
1.76572e-08
-3.05372e-07
-2.3627e-08
3.11341e-07
3.56164e-08
-1.85865e-07
-3.71626e-08
1.87411e-07
3.62294e-08
-1.14789e-07
-3.36961e-08
1.12255e-07
1.4281e-08
-6.9538e-08
-2.1135e-08
7.6392e-08
4.74345e-08
-9.98074e-08
-5.44556e-08
1.06828e-07
7.29752e-08
-4.10515e-08
-7.72303e-08
4.53066e-08
7.09551e-08
6.4557e-08
-6.37394e-08
-7.17728e-08
5.18503e-08
5.10614e-08
-5.20304e-08
-5.08814e-08
4.87773e-08
6.0797e-08
-4.73669e-08
-6.22074e-08
4.30975e-08
6.45486e-08
-4.1706e-08
-6.594e-08
3.74653e-08
6.52525e-08
-3.60665e-08
-6.66514e-08
3.17289e-08
6.43014e-08
-3.02846e-08
-6.57456e-08
2.5802e-08
6.20557e-08
-2.43153e-08
-6.35425e-08
1.97391e-08
5.87997e-08
-1.82351e-08
-6.03038e-08
1.36476e-08
5.49729e-08
-1.21544e-08
-5.64661e-08
7.64998e-09
5.08743e-08
-6.20061e-09
-5.23237e-08
1.88846e-09
4.68463e-08
-5.20234e-10
-4.82145e-08
-3.48539e-09
4.29072e-08
4.73423e-09
-4.4156e-08
1.51396e-08
4.30539e-07
-4.19025e-07
-2.66537e-08
2.52333e-08
1.66386e-07
-2.17337e-08
-1.69885e-07
4.60246e-09
3.09304e-07
4.0073e-10
-3.14307e-07
-1.29553e-08
2.83353e-07
1.65134e-08
-2.86911e-07
-3.79057e-08
2.01716e-07
3.95817e-08
-2.03392e-07
-3.25762e-08
1.97234e-07
3.50706e-08
-1.99728e-07
-5.37855e-08
2.85306e-07
6.31539e-08
-2.94675e-07
-5.76915e-08
9.67483e-08
5.8932e-08
-9.79888e-08
-7.05701e-08
4.2851e-08
7.27406e-08
-4.50214e-08
-1.00002e-07
-9.40525e-08
1.09121e-07
8.49332e-08
-6.30126e-08
-5.50354e-07
5.36682e-08
5.59699e-07
-1.06019e-08
-4.76234e-07
1.04627e-09
4.8579e-07
2.24624e-08
-3.29866e-07
-2.88817e-08
3.36286e-07
4.15853e-08
-1.91169e-07
-4.25423e-08
1.92126e-07
3.25667e-08
-9.22926e-08
-2.07151e-08
8.04411e-08
-3.48719e-09
-1.14976e-07
-1.1083e-08
1.29546e-07
4.92618e-08
-1.30658e-07
-5.79823e-08
1.39379e-07
8.10706e-08
-5.98994e-08
-8.63293e-08
6.51581e-08
7.80637e-08
9.60364e-08