/*--------------------------------*- C++ -*----------------------------------*\
| =========                 |                                                 |
| \\      /  F ield         | OpenFOAM: The Open Source CFD Toolbox           |
|  \\    /   O peration     | Version:  2.4.0                                 |
|   \\  /    A nd           | Web:      www.OpenFOAM.org                      |
|    \\/     M anipulation  |                                                 |
\*---------------------------------------------------------------------------*/
FoamFile
{
    version     2.0;
    format      ascii;
    class       surfaceScalarField;
    location    "0.208";
    object      phi;
}
// * * * * * * * * * * * * * * * * * * * * * * * * * * * * * * * * * * * * * //

dimensions      [0 3 -1 0 0 0 0];

internalField   nonuniform List<scalar> 
19800
(
2.92252e-13
-2.92252e-13
1.01283e-12
-7.54974e-13
2.19245e-12
-1.17141e-12
3.70884e-12
-1.50284e-12
5.48396e-12
-1.77226e-12
7.46784e-12
-1.98782e-12
9.61831e-12
-2.15434e-12
1.18949e-11
-2.27815e-12
1.42586e-11
-2.36428e-12
1.66727e-11
-2.41499e-12
1.91013e-11
-2.43047e-12
2.15092e-11
-2.41011e-12
2.38607e-11
-2.35342e-12
2.61201e-11
-2.26079e-12
2.82536e-11
-2.13419e-12
3.0231e-11
-1.9777e-12
3.2028e-11
-1.7973e-12
3.36275e-11
-1.60005e-12
3.50195e-11
-1.39278e-12
3.61994e-11
-1.18073e-12
3.71654e-11
-9.66736e-13
3.79162e-11
-7.51224e-13
3.8449e-11
-5.33033e-13
3.87596e-11
-3.10879e-13
3.88399e-11
-8.04099e-14
3.86917e-11
1.48088e-13
3.83189e-11
3.72923e-13
3.77392e-11
5.80068e-13
3.69852e-11
7.54545e-13
3.61017e-11
8.84019e-13
3.51366e-11
9.65542e-13
3.41264e-11
1.01049e-12
3.30843e-11
1.04237e-12
3.19985e-11
1.0862e-12
3.08402e-11
1.15897e-12
2.95728e-11
1.26812e-12
2.81574e-11
1.41622e-12
2.65536e-11
1.60455e-12
2.47201e-11
1.83417e-12
2.26155e-11
2.10534e-12
2.02003e-11
2.41636e-12
1.74388e-11
2.76291e-12
1.43021e-11
3.13822e-12
1.07697e-11
3.53382e-12
6.8305e-12
3.94041e-12
2.48351e-12
4.34812e-12
-2.26201e-12
4.74674e-12
-7.38519e-12
5.12463e-12
-1.28518e-11
5.46828e-12
5.76255e-12
-1.86126e-11
8.32193e-13
-1.09171e-12
2.70644e-12
-2.64674e-12
5.46198e-12
-3.94848e-12
8.94856e-12
-4.99602e-12
1.30379e-11
-5.86019e-12
1.76233e-11
-6.57193e-12
2.26095e-11
-7.14194e-12
2.79078e-11
-7.57934e-12
3.34326e-11
-7.89254e-12
3.91006e-11
-8.08658e-12
4.48294e-11
-8.1629e-12
5.0537e-11
-8.12105e-12
5.6142e-11
-7.96106e-12
6.15652e-11
-7.68562e-12
6.67317e-11
-7.3017e-12
7.15742e-11
-6.82119e-12
7.6036e-11
-6.26026e-12
8.00719e-11
-5.63731e-12
8.36475e-11
-4.96984e-12
8.67371e-11
-4.27151e-12
8.932e-11
-3.55031e-12
9.13773e-11
-2.80882e-12
9.28904e-11
-2.04629e-12
9.38409e-11
-1.26147e-12
9.42175e-11
-4.56913e-13
9.4013e-11
3.52886e-13
9.32433e-11
1.14316e-12
9.19503e-11
1.87391e-12
9.02073e-11
2.49824e-12
8.81143e-11
2.97765e-12
8.57766e-11
3.30379e-12
8.32733e-11
3.51425e-12
8.06308e-11
3.68572e-12
7.78191e-11
3.89908e-12
7.47707e-11
4.20879e-12
7.14013e-11
4.63893e-12
6.76192e-11
5.1996e-12
6.33265e-11
5.89868e-12
5.84175e-11
6.74478e-12
5.27809e-11
7.74405e-12
4.63045e-11
8.89536e-12
3.88833e-11
1.01869e-11
3.04288e-11
1.15953e-11
2.08775e-11
1.30874e-11
1.01973e-11
1.46226e-11
-1.6085e-12
1.61562e-11
-1.44995e-11
1.76405e-11
-2.83995e-11
1.90276e-11
-4.31981e-11
2.02696e-11
2.13199e-11
-5.87529e-11
1.29872e-12
-2.38222e-12
4.14289e-12
-5.47835e-12
8.15792e-12
-7.96851e-12
1.3155e-11
-9.99981e-12
1.89907e-11
-1.16991e-11
2.55374e-11
-1.31197e-11
3.2675e-11
-1.42807e-11
4.02885e-11
-1.51951e-11
4.82656e-11
-1.5873e-11
5.64939e-11
-1.63188e-11
6.48596e-11
-1.65326e-11
7.32468e-11
-1.65118e-11
8.15389e-11
-1.62558e-11
8.96207e-11
-1.57693e-11
9.73829e-11
-1.50652e-11
1.04726e-10
-1.41653e-11
1.11564e-10
-1.30996e-11
1.17828e-10
-1.19018e-11
1.23461e-10
-1.06041e-11
1.28421e-10
-9.23142e-12
1.32669e-10
-7.79883e-12
1.36173e-10
-6.31189e-12
1.38897e-10
-4.77064e-12
1.40811e-10
-3.17473e-12
1.41885e-10
-1.53108e-12
1.42102e-10
1.36056e-13
1.41469e-10
1.77594e-12
1.40033e-10
3.3105e-12
1.37887e-10
4.64418e-12
1.35171e-10
5.6938e-12
1.32039e-10
6.43592e-12
1.28609e-10
6.94531e-12
1.24912e-10
7.38353e-12
1.20893e-10
7.91903e-12
1.16444e-10
8.65864e-12
1.11441e-10
9.64311e-12
1.05752e-10
1.08895e-11
9.92361e-11
1.24163e-11
9.17351e-11
1.42475e-11
8.30786e-11
1.64026e-11
7.30914e-11
1.8885e-11
6.16073e-11
2.16732e-11
4.84857e-11
2.47188e-11
3.3626e-11
2.79488e-11
1.69785e-11
3.12719e-11
-1.44837e-12
3.45852e-11
-2.15859e-11
3.77806e-11
-4.33078e-11
4.07521e-11
-6.64346e-11
4.33985e-11
4.56277e-11
-9.07408e-11
1.66544e-12
-4.05888e-12
5.31504e-12
-9.11892e-12
1.0408e-11
-1.30589e-11
1.66858e-11
-1.62797e-11
2.39822e-11
-1.89986e-11
3.21594e-11
-2.12993e-11
4.1088e-11
-2.32113e-11
5.06417e-11
-2.47514e-11
6.06943e-11
-2.5929e-11
7.11158e-11
-2.67444e-11
8.177e-11
-2.7191e-11
9.25142e-11
-2.72596e-11
1.032e-10
-2.69445e-11
1.13678e-10
-2.62496e-11
1.23805e-10
-2.51929e-11
1.33447e-10
-2.38089e-11
1.42493e-10
-2.21459e-11
1.5085e-10
-2.02598e-11
1.58451e-10
-1.82045e-11
1.65241e-10
-1.60217e-11
1.71179e-10
-1.37357e-11
1.76223e-10
-1.13546e-11
1.80329e-10
-8.87662e-12
1.83452e-10
-6.29709e-12
1.8554e-10
-3.61945e-12
1.86549e-10
-8.72385e-13
1.86455e-10
1.8695e-12
1.85284e-10
4.48041e-12
1.83135e-10
6.79306e-12
1.80184e-10
8.64563e-12
1.76646e-10
9.97389e-12
1.72693e-10
1.08986e-11
1.68361e-10
1.17162e-11
1.63551e-10
1.27297e-11
1.58102e-10
1.41093e-11
1.51851e-10
1.58954e-11
1.4464e-10
1.81013e-11
1.36299e-10
2.07594e-11
1.26628e-10
2.39201e-11
1.15405e-10
2.76283e-11
1.02393e-10
3.18984e-11
8.73701e-11
3.66984e-11
7.01446e-11
4.1946e-11
5.05811e-11
4.75139e-11
2.86138e-11
5.32409e-11
4.25497e-12
5.89459e-11
-2.24024e-11
6.444e-11
-5.11862e-11
6.95379e-11
-8.18544e-11
7.40683e-11
7.78781e-11
-1.14104e-10
1.97551e-12
-6.04295e-12
6.32382e-12
-1.34665e-11
1.23791e-11
-1.91118e-11
1.98063e-11
-2.37069e-11
2.84065e-11
-2.76007e-11
3.80302e-11
-3.09254e-11
4.85442e-11
-3.37277e-11
5.98194e-11
-3.60294e-11
7.17241e-11
-3.7837e-11
8.41178e-11
-3.91419e-11
9.68473e-11
-3.99244e-11
1.09745e-10
-4.01609e-11
1.22632e-10
-3.9834e-11
1.35323e-10
-3.89417e-11
1.47634e-10
-3.75057e-11
1.594e-10
-3.55755e-11
1.70479e-10
-3.32253e-11
1.80764e-10
-3.05444e-11
1.90181e-10
-2.76202e-11
1.9868e-10
-2.45201e-11
2.06228e-10
-2.12813e-11
2.12788e-10
-1.79129e-11
2.18318e-10
-1.44061e-11
2.22762e-10
-1.07409e-11
2.26043e-10
-6.9005e-12
2.2807e-10
-2.90026e-12
2.28764e-10
1.17516e-12
2.28099e-10
5.14536e-12
2.26151e-10
8.74092e-12
2.23137e-10
1.16596e-11
2.19372e-10
1.37385e-11
2.15123e-10
1.51488e-11
2.10427e-10
1.64124e-11
2.05108e-10
1.80492e-11
1.98924e-10
2.02955e-11
1.9168e-10
2.31401e-11
1.83217e-10
2.65664e-11
1.73352e-10
3.06265e-11
1.61854e-10
3.54193e-11
1.48449e-10
4.10361e-11
1.32835e-10
4.75145e-11
1.14722e-10
5.48123e-11
9.38663e-11
6.28035e-11
7.00917e-11
7.12897e-11
4.33142e-11
8.00197e-11
1.35499e-11
8.87116e-11
-1.90827e-11
9.70738e-11
-5.43666e-11
1.04823e-10
-9.19965e-11
1.117e-10
1.17474e-10
-1.31591e-10
2.24231e-12
-8.28603e-12
7.20914e-12
-1.84356e-11
1.41285e-11
-2.6031e-11
2.25952e-11
-3.21735e-11
3.2375e-11
-3.73815e-11
4.33059e-11
-4.1858e-11
5.52534e-11
-4.56773e-11
6.80907e-11
-4.88692e-11
8.1686e-11
-5.14352e-11
9.58928e-11
-5.3352e-11
1.10543e-10
-5.4578e-11
1.25445e-10
-5.50657e-11
1.40385e-10
-5.47756e-11
1.55135e-10
-5.3692e-11
1.69466e-10
-5.1837e-11
1.83168e-10
-4.92784e-11
1.96071e-10
-4.61278e-11
2.08053e-10
-4.25257e-11
2.19048e-10
-3.8613e-11
2.29028e-10
-3.44984e-11
2.37986e-10
-3.02374e-11
2.45913e-10
-2.58379e-11
2.52785e-10
-2.12776e-11
2.58549e-10
-1.65052e-11
2.63103e-10
-1.14546e-11
2.66293e-10
-6.09063e-12
2.67945e-10
-4.77114e-13
2.67932e-10
5.15862e-12
2.66265e-10
1.04083e-11
2.63204e-10
1.47202e-11
2.59233e-10
1.77095e-11
2.54798e-10
1.95842e-11
2.49941e-10
2.127e-11
2.44335e-10
2.36565e-11
2.37602e-10
2.70297e-11
2.29543e-10
3.12016e-11
2.20032e-10
3.60786e-11
2.08908e-10
4.17526e-11
1.95914e-10
4.84148e-11
1.80712e-10
5.62402e-11
1.6292e-10
6.53085e-11
1.42165e-10
7.55684e-11
1.18133e-10
8.68371e-11
9.05996e-11
9.88234e-11
5.94596e-11
1.1116e-10
2.47322e-11
1.2344e-10
-1.34367e-11
1.35244e-10
-5.47811e-11
1.46169e-10
-9.89286e-11
1.55848e-10
1.63964e-10
-1.45417e-10
2.46523e-12
-1.07486e-11
7.97274e-12
-2.39441e-11
1.56541e-11
-3.37131e-11
2.50426e-11
-4.15625e-11
3.5873e-11
-4.82125e-11
4.79737e-11
-5.39596e-11
6.12129e-11
-5.89177e-11
7.54704e-11
-6.31284e-11
9.06194e-11
-6.65863e-11
1.06511e-10
-6.92458e-11
1.22964e-10
-7.1033e-11
1.39759e-10
-7.18623e-11
1.56641e-10
-7.16578e-11
1.73326e-10
-7.03777e-11
1.89527e-10
-6.80377e-11
2.04976e-10
-6.47273e-11
2.19461e-10
-6.0612e-11
2.32848e-10
-5.5912e-11
2.45094e-10
-5.08561e-11
2.56218e-10
-4.56202e-11
2.6627e-10
-4.02874e-11
2.75295e-10
-3.4861e-11
2.83319e-10
-2.93012e-11
2.9032e-10
-2.35062e-11
2.96181e-10
-1.73154e-11
3.00669e-10
-1.05785e-11
3.03468e-10
-3.27493e-12
3.04266e-10
4.36022e-12
3.02922e-10
1.17532e-11
2.99722e-10
1.79202e-11
2.9544e-10
2.19914e-11
2.90881e-10
2.41436e-11
2.86087e-10
2.60649e-11
2.8043e-10
2.93141e-11
2.73303e-10
3.41582e-11
2.64558e-10
3.99481e-11
2.54192e-10
4.64464e-11
2.42099e-10
5.38472e-11
2.27996e-10
6.25197e-11
2.11455e-10
7.27827e-11
1.91981e-10
8.47839e-11
1.69091e-10
9.84599e-11
1.42377e-10
1.13551e-10
1.11559e-10
1.29642e-10
7.65009e-11
1.46218e-10
3.72271e-11
1.62714e-10
-6.085e-12
1.78556e-10
-5.31146e-11
1.93199e-10
-1.03416e-10
2.06151e-10
2.16988e-10
-1.56438e-10
2.64564e-12
-1.33923e-11
8.60941e-12
-2.99075e-11
1.69395e-11
-4.20438e-11
2.71165e-11
-5.174e-11
3.88524e-11
-5.99487e-11
5.1973e-11
-6.70804e-11
6.63556e-11
-7.33007e-11
8.18934e-11
-7.86672e-11
9.84703e-11
-8.31643e-11
1.1594e-10
-8.67162e-11
1.34108e-10
-8.92023e-11
1.52726e-10
-9.04802e-11
1.71484e-10
-9.04164e-11
1.9003e-10
-8.89227e-11
2.07987e-10
-8.5995e-11
2.25006e-10
-8.1746e-11
2.40812e-10
-7.6417e-11
2.55254e-10
-7.03527e-11
2.68328e-10
-6.39279e-11
2.80141e-10
-5.7431e-11
2.90841e-10
-5.0985e-11
3.00564e-10
-4.4582e-11
3.09435e-10
-3.81714e-11
3.17514e-10
-3.1585e-11
3.24702e-10
-2.45023e-11
3.30679e-10
-1.65541e-11
3.34923e-10
-7.5183e-12
3.36825e-10
2.45843e-12
3.35903e-10
1.26757e-11
3.32387e-10
2.1436e-11
3.2754e-10
2.68385e-11
3.22901e-10
2.87833e-11
3.18499e-10
3.04669e-11
3.13101e-10
3.47136e-11
3.05688e-10
4.15719e-11
2.96337e-10
4.93005e-11
2.85314e-10
5.74709e-11
2.72615e-10
6.65481e-11
2.579e-10
7.72357e-11
2.40602e-10
9.00817e-11
2.20059e-10
1.05327e-10
1.95637e-10
1.22883e-10
1.66812e-10
1.42376e-10
1.33228e-10
1.63226e-10
9.47192e-11
1.84727e-10
5.13157e-11
2.06118e-10
3.2334e-12
2.26639e-10
-4.91441e-11
2.45578e-10
-1.05288e-10
2.62297e-10
2.76255e-10
-1.64553e-10
2.78652e-12
-1.61784e-11
9.11463e-12
-3.6235e-11
1.79655e-11
-5.08949e-11
2.87789e-11
-6.25536e-11
4.12545e-11
-7.24244e-11
5.5226e-11
-8.10518e-11
7.05892e-11
-8.86641e-11
8.72602e-11
-9.53384e-11
1.05142e-10
-1.01047e-10
1.24098e-10
-1.05672e-10
1.43925e-10
-1.0903e-10
1.64341e-10
-1.10895e-10
1.84971e-10
-1.11047e-10
2.05366e-10
-1.09317e-10
2.25028e-10
-1.05657e-10
2.43477e-10
-1.00195e-10
2.60336e-10
-9.32756e-11
2.7542e-10
-8.5435e-11
2.88788e-10
-7.7293e-11
3.00689e-10
-6.93302e-11
3.11428e-10
-6.17221e-11
3.21278e-10
-5.44298e-11
3.30535e-10
-4.74268e-11
3.39431e-10
-4.04802e-11
3.4795e-10
-3.30201e-11
3.55699e-10
-2.43011e-11
3.61898e-10
-1.37169e-11
3.65478e-10
-1.12119e-12
3.6528e-10
1.28741e-11
3.61217e-10
2.54989e-11
3.55295e-10
3.276e-11
3.50589e-10
3.34898e-11
3.47094e-10
3.3962e-11
3.42357e-10
3.94517e-11
3.34638e-10
4.92912e-11
3.2466e-10
5.92795e-11
3.13204e-10
6.89271e-11
3.00384e-10
7.93686e-11
2.85722e-10
9.18979e-11
2.68415e-10
1.07389e-10
2.47561e-10
1.26181e-10
2.22324e-10
1.4812e-10
1.92038e-10
1.72662e-10
1.56259e-10
1.99005e-10
1.14792e-10
2.26195e-10
6.76785e-11
2.53231e-10
1.51841e-11
2.79134e-10
-4.22336e-11
3.02997e-10
-1.03954e-10
3.24019e-10
3.41528e-10
-1.69224e-10
2.88933e-12
-1.90681e-11
9.4819e-12
-4.28274e-11
1.87093e-11
-6.01222e-11
2.99848e-11
-7.38291e-11
4.30099e-11
-8.54493e-11
5.76382e-11
-9.56799e-11
7.37969e-11
-1.04823e-10
9.1437e-11
-1.12978e-10
1.10494e-10
-1.20103e-10
1.30851e-10
-1.26029e-10
1.52306e-10
-1.30484e-10
1.74543e-10
-1.33132e-10
1.97113e-10
-1.33616e-10
2.19436e-10
-1.31641e-10
2.40844e-10
-1.27065e-10
2.60655e-10
-1.20007e-10
2.78316e-10
-1.10936e-10
2.93562e-10
-1.00679e-10
3.06542e-10
-9.02709e-11
3.17743e-10
-8.05285e-11
3.27705e-10
-7.16826e-11
3.36875e-10
-6.35979e-11
3.45824e-10
-5.6375e-11
3.5511e-10
-4.97641e-11
3.64911e-10
-4.28202e-11
3.74806e-10
-3.41945e-11
3.83759e-10
-2.26688e-11
3.90103e-10
-7.46488e-12
3.91379e-10
1.15989e-11
3.86611e-10
3.02664e-11
3.78685e-10
4.06849e-11
3.73815e-10
3.83591e-11
3.71931e-10
3.58462e-11
3.68325e-10
4.30581e-11
3.59963e-10
5.76525e-11
3.49177e-10
7.00656e-11
3.37606e-10
8.04979e-11
3.25372e-10
9.16015e-11
3.11664e-10
1.05605e-10
2.95298e-10
1.23755e-10
2.75045e-10
1.46435e-10
2.49819e-10
1.73346e-10
2.18789e-10
2.03692e-10
1.81424e-10
2.36369e-10
1.37504e-10
2.70115e-10
8.7097e-11
3.03638e-10
3.05295e-11
3.35702e-10
-3.16524e-11
3.6518e-10
-9.87227e-11
3.91092e-10
4.12621e-10
-1.69814e-10
2.9527e-12
-2.20211e-11
9.70006e-12
-4.95749e-11
1.91409e-11
-6.95628e-11
3.06798e-11
-8.53678e-11
4.4035e-11
-9.88041e-11
5.90945e-11
-1.10739e-10
7.58313e-11
-1.21559e-10
9.42471e-11
-1.31394e-10
1.14326e-10
-1.40182e-10
1.35992e-10
-1.47693e-10
1.59056e-10
-1.53548e-10
1.8318e-10
-1.57255e-10
2.07833e-10
-1.5827e-10
2.3228e-10
-1.56089e-10
2.55611e-10
-1.50397e-10
2.76843e-10
-1.4124e-10
2.95117e-10
-1.29209e-10
3.09984e-10
-1.15545e-10
3.21711e-10
-1.01996e-10
3.31179e-10
-8.99943e-11
3.39291e-10
-7.97929e-11
3.46654e-10
-7.09593e-11
3.54264e-10
-6.39839e-11
3.63248e-10
-5.87461e-11
3.74153e-10
-5.37244e-11
3.8658e-10
-4.66192e-11
3.99298e-10
-3.53856e-11
4.10323e-10
-1.84895e-11
4.14915e-10
7.00611e-12
4.09567e-10
3.56139e-11
3.98278e-10
5.19724e-11
3.92822e-10
4.38143e-11
3.93131e-10
3.55371e-11
3.91059e-10
4.51292e-11
3.81071e-10
6.76397e-11
3.69131e-10
8.2004e-11
3.58079e-10
9.15495e-11
3.47546e-10
1.02133e-10
3.36012e-10
1.17139e-10
3.21752e-10
1.38014e-10
3.03145e-10
1.65043e-10
2.78833e-10
1.97658e-10
2.47816e-10
2.34709e-10
2.09485e-10
2.747e-10
1.6361e-10
3.1599e-10
1.10303e-10
3.56945e-10
4.99722e-11
3.96034e-10
-1.67338e-11
4.31888e-10
-8.89709e-11
4.63331e-10
4.89399e-10
-1.65746e-10
2.97266e-12
-2.49938e-11
9.75266e-12
-5.63548e-11
1.92234e-11
-7.90332e-11
3.07995e-11
-9.69434e-11
4.42314e-11
-1.12236e-10
5.94569e-11
-1.25964e-10
7.651e-11
-1.38611e-10
9.54611e-11
-1.50344e-10
1.16365e-10
-1.61085e-10
1.39209e-10
-1.70535e-10
1.63847e-10
-1.78186e-10
1.89942e-10
-1.8335e-10
2.16892e-10
-1.8522e-10
2.43789e-10
-1.82987e-10
2.69415e-10
-1.76025e-10
2.92343e-10
-1.64168e-10
3.11193e-10
-1.48059e-10
3.25117e-10
-1.29468e-10
3.34494e-10
-1.11372e-10
3.40889e-10
-9.63871e-11
3.45787e-10
-8.46899e-11
3.49795e-10
-7.49656e-11
3.54554e-10
-6.87421e-11
3.62172e-10
-6.63629e-11
3.73782e-10
-6.53334e-11
3.89016e-10
-6.18511e-11
4.06363e-10
-5.27319e-11
4.24272e-10
-3.63981e-11
4.37181e-10
-5.90337e-12
4.3307e-10
3.97232e-11
4.15758e-10
6.92832e-11
4.08732e-10
5.08391e-11
4.11166e-10
3.31024e-11
4.09974e-10
4.63197e-11
3.95976e-10
8.16365e-11
3.82996e-10
9.49826e-11
3.74175e-10
1.00369e-10
3.67127e-10
1.0918e-10
3.59296e-10
1.2497e-10
3.48444e-10
1.48866e-10
3.32584e-10
1.80903e-10
3.10098e-10
2.20145e-10
2.79835e-10
2.64973e-10
2.41126e-10
3.13409e-10
1.93755e-10
3.63361e-10
1.37904e-10
4.12797e-10
7.40797e-11
4.59859e-10
3.05174e-12
5.02918e-10
-7.42106e-11
5.40596e-10
5.71769e-10
-1.56579e-10
2.94317e-12
-2.79369e-11
9.61916e-12
-6.30302e-11
1.89146e-11
-8.8328e-11
3.02722e-11
-1.083e-10
4.34897e-11
-1.25452e-10
5.85678e-11
-1.41041e-10
7.56164e-11
-1.55659e-10
9.47927e-11
-1.6952e-10
1.16246e-10
-1.82538e-10
1.40059e-10
-1.94347e-10
1.66168e-10
-2.04295e-10
1.94281e-10
-2.11463e-10
2.23769e-10
-2.14709e-10
2.53565e-10
-2.12784e-10
2.821e-10
-2.0456e-10
3.0734e-10
-1.89408e-10
3.27062e-10
-1.6778e-10
3.39568e-10
-1.41972e-10
3.45223e-10
-1.17025e-10
3.46786e-10
-9.79487e-11
3.46809e-10
-8.47117e-11
3.45361e-10
-7.35164e-11
3.45146e-10
-6.85271e-11
3.49947e-10
-7.11623e-11
3.61643e-10
-7.70281e-11
3.79534e-10
-7.97401e-11
4.02156e-10
-7.53536e-11
4.27668e-10
-6.19103e-11
4.53624e-10
-3.18598e-11
4.65891e-10
2.74547e-11
4.38435e-10
9.67383e-11
4.23013e-10
6.62605e-11
4.25395e-10
3.07188e-11
4.18069e-10
5.3644e-11
3.97676e-10
1.02028e-10
3.88896e-10
1.03761e-10
3.86552e-10
1.02711e-10
3.85274e-10
1.10457e-10
3.82615e-10
1.27628e-10
3.76324e-10
1.55157e-10
3.64176e-10
1.93051e-10
3.44324e-10
2.39997e-10
3.15468e-10
2.93829e-10
2.76893e-10
3.51984e-10
2.28423e-10
4.11832e-10
1.70327e-10
4.70894e-10
1.03236e-10
5.26953e-10
2.8049e-11
5.78108e-10
-5.41281e-11
6.22774e-10
6.59676e-10
-1.42034e-10
2.85697e-12
-3.07935e-11
9.27751e-12
-6.94497e-11
1.81714e-11
-9.72209e-11
2.90254e-11
-1.19153e-10
4.16966e-11
-1.38123e-10
5.62588e-11
-1.55603e-10
7.29083e-11
-1.72308e-10
9.19041e-11
-1.88515e-10
1.13513e-10
-2.04146e-10
1.37945e-10
-2.18778e-10
1.65272e-10
-2.31622e-10
1.95317e-10
-2.41507e-10
2.27504e-10
-2.46896e-10
2.6069e-10
-2.45972e-10
2.92991e-10
-2.36861e-10
3.21659e-10
-2.18077e-10
3.43198e-10
-1.89318e-10
3.54175e-10
-1.52948e-10
3.54452e-10
-1.173e-10
3.48784e-10
-9.22795e-11
3.41943e-10
-7.78694e-11
3.32191e-10
-6.37641e-11
3.2429e-10
-6.06252e-11
3.24732e-10
-7.16032e-11
3.35975e-10
-8.82697e-11
3.55712e-10
-9.94757e-11
3.82042e-10
-1.01684e-10
4.13144e-10
-9.30119e-11
4.49494e-10
-6.82109e-11
4.91589e-10
-1.46409e-11
4.99801e-10
8.85254e-11
4.72897e-10
9.31638e-11
3.95381e-10
1.08233e-10
3.93862e-10
5.51614e-11
3.9016e-10
1.05729e-10
3.95217e-10
9.87019e-11
4.00853e-10
9.70742e-11
4.05298e-10
1.06012e-10
4.07915e-10
1.2501e-10
4.06594e-10
1.56477e-10
3.98725e-10
2.00919e-10
3.82086e-10
2.56636e-10
3.55146e-10
3.20769e-10
3.17116e-10
3.90015e-10
2.67862e-10
4.61087e-10
2.07769e-10
5.30988e-10
1.37602e-10
5.97122e-10
5.83997e-11
6.57312e-10
-2.85998e-11
7.09776e-10
7.53085e-10
-1.22008e-10
2.70696e-12
-3.34999e-11
8.70809e-12
-7.54495e-11
1.69567e-11
-1.05468e-10
2.69961e-11
-1.29191e-10
3.87501e-11
-1.49876e-10
5.23697e-11
-1.69222e-10
6.81415e-11
-1.8808e-10
8.6432e-11
-2.06806e-10
1.07638e-10
-2.25352e-10
1.3213e-10
-2.43269e-10
1.60163e-10
-2.59654e-10
1.91759e-10
-2.73104e-10
2.26529e-10
-2.81667e-10
2.63426e-10
-2.8287e-10
3.00437e-10
-2.73872e-10
3.34217e-10
-2.51856e-10
3.59699e-10
-2.14799e-10
3.70074e-10
-1.63321e-10
3.63187e-10
-1.10412e-10
3.46838e-10
-7.59302e-11
3.30405e-10
-6.14353e-11
3.08321e-10
-4.16802e-11
2.89836e-10
-4.2139e-11
2.85461e-10
-6.72272e-11
2.96856e-10
-9.96635e-11
3.18385e-10
-1.21004e-10
3.44183e-10
-1.27481e-10
3.71735e-10
-1.20564e-10
4.03489e-10
-9.99653e-11
4.4161e-10
-5.2762e-11
4.4677e-10
8.33651e-11
4.47692e-10
9.224e-11
4.4706e-10
1.08864e-10
4.29371e-10
7.28487e-11
4.05605e-10
1.29493e-10
4.18199e-10
8.61066e-11
4.23007e-10
9.22658e-11
4.29248e-10
9.977e-11
4.35957e-10
1.18299e-10
4.39615e-10
1.52819e-10
4.3645e-10
2.04083e-10
4.23529e-10
2.69557e-10
3.98936e-10
3.45361e-10
3.6178e-10
4.27172e-10
3.11999e-10
5.10871e-10
2.50121e-10
5.92869e-10
1.77065e-10
6.7018e-10
9.40041e-11
7.40374e-10
2.29437e-12
8.01486e-10
8.51948e-10
-9.65686e-11
2.48806e-12
-3.59872e-11
7.89868e-12
-8.08588e-11
1.5248e-11
-1.12816e-10
2.41444e-11
-1.38087e-10
3.45799e-11
-1.60311e-10
4.67787e-11
-1.81421e-10
6.111e-11
-2.02412e-10
7.804e-11
-2.23736e-10
9.80929e-11
-2.45405e-10
1.21804e-10
-2.66979e-10
1.49648e-10
-2.87498e-10
1.81926e-10
-3.05382e-10
2.1858e-10
-3.18321e-10
2.58909e-10
-3.23199e-10
3.01147e-10
-3.16109e-10
3.41878e-10
-2.92586e-10
3.75114e-10
-2.48034e-10
3.88957e-10
-1.77162e-10
3.73377e-10
-9.48312e-11
3.41216e-10
-4.37681e-11
3.0982e-10
-3.00381e-11
2.69606e-10
-1.46554e-12
2.3827e-10
-1.08027e-11
2.31576e-10
-6.05325e-11
2.49404e-10
-1.1749e-10
2.74626e-10
-1.46226e-10
3.00922e-10
-1.53777e-10
3.24885e-10
-1.44526e-10
3.44412e-10
-1.19493e-10
3.50039e-10
-5.83891e-11
4.51729e-10
-1.83249e-11
4.2743e-10
1.16538e-10
4.06623e-10
1.29669e-10
3.72891e-10
1.06579e-10
4.52352e-10
5.00309e-11
4.40083e-10
9.83735e-11
4.43139e-10
8.92085e-11
4.52039e-10
9.08695e-11
4.63948e-10
1.06388e-10
4.73793e-10
1.42973e-10
4.76453e-10
2.01421e-10
4.68098e-10
2.77912e-10
4.46392e-10
3.67067e-10
4.1043e-10
4.63135e-10
3.60351e-10
5.60951e-10
2.9691e-10
6.56312e-10
2.212e-10
7.45892e-10
1.34509e-10
8.27065e-10
3.82735e-11
8.97722e-10
9.56163e-10
-6.5942e-11
2.19931e-12
-3.81858e-11
6.84973e-12
-8.5508e-11
1.30478e-11
-1.19014e-10
2.04706e-11
-1.45509e-10
2.91737e-11
-1.69015e-10
3.94412e-11
-1.91689e-10
5.17043e-11
-2.14676e-10
6.6502e-11
-2.38534e-10
8.44558e-11
-2.63359e-10
1.06241e-10
-2.88764e-10
1.32538e-10
-3.13795e-10
1.63948e-10
-3.36792e-10
2.00842e-10
-3.55216e-10
2.43094e-10
-3.65451e-10
2.89626e-10
-3.62641e-10
3.37682e-10
-3.4064e-10
3.82075e-10
-2.92426e-10
4.10553e-10
-2.05639e-10
3.93194e-10
-7.74713e-11
3.26819e-10
2.26077e-11
2.77435e-10
1.93469e-11
2.05527e-10
7.0443e-11
1.61755e-10
3.2971e-11
1.68421e-10
-6.71985e-11
2.03213e-10
-1.52282e-10
2.34991e-10
-1.78004e-10
2.68182e-10
-1.86967e-10
2.96945e-10
-1.73289e-10
3.16962e-10
-1.39509e-10
3.43104e-10
-8.45316e-11
3.42487e-10
-1.77077e-11
3.7899e-10
8.00335e-11
4.06991e-10
1.01666e-10
4.0354e-10
1.10028e-10
4.01116e-10
5.2453e-11
4.31547e-10
6.79413e-11
4.47858e-10
7.28959e-11
4.66192e-10
7.25346e-11
4.8791e-10
8.46688e-11
5.07229e-10
1.23652e-10
5.17732e-10
1.90916e-10
5.15048e-10
2.80596e-10
4.96725e-10
3.85392e-10
4.62167e-10
4.97693e-10
4.11973e-10
6.11146e-10
3.47242e-10
7.21044e-10
2.6924e-10
8.23894e-10
1.7931e-10
9.16996e-10
7.88838e-11
9.98148e-10
1.06552e-09
-3.04696e-11
1.84551e-12
-4.00306e-11
5.57897e-12
-8.92409e-11
1.03919e-11
-1.23826e-10
1.60304e-11
-1.51149e-10
2.2603e-11
-1.75588e-10
3.04323e-11
-1.9952e-10
3.99785e-11
-2.24223e-10
5.18079e-11
-2.50364e-10
6.65802e-11
-2.78131e-10
8.50387e-11
-3.07222e-10
1.0799e-10
-3.36747e-10
1.36261e-10
-3.65063e-10
1.70598e-10
-3.89553e-10
2.11479e-10
-4.06333e-10
2.58716e-10
-4.09877e-10
3.10694e-10
-3.92618e-10
3.63615e-10
-3.45345e-10
4.06381e-10
-2.48404e-10
4.20797e-10
-9.18866e-11
3.33232e-10
1.10174e-10
1.97556e-10
1.55023e-10
7.79866e-11
1.90013e-10
7.19816e-11
3.89767e-11
1.14414e-10
-1.09631e-10
1.56842e-10
-1.9471e-10
2.06555e-10
-2.27717e-10
2.50255e-10
-2.30668e-10
2.89947e-10
-2.12981e-10
3.22286e-10
-1.71849e-10
3.51079e-10
-1.13325e-10
3.79274e-10
-4.5903e-11
4.20128e-10
3.91786e-11
4.35389e-10
8.64031e-11
4.57007e-10
8.84073e-11
4.42714e-10
6.67444e-11
4.44738e-10
6.59165e-11
4.58071e-10
5.95609e-11
4.79834e-10
5.07703e-11
5.11239e-10
5.32622e-11
5.41472e-10
9.34182e-11
5.60774e-10
1.71612e-10
5.64042e-10
2.77328e-10
5.48919e-10
4.00516e-10
5.1556e-10
5.31053e-10
4.65329e-10
6.61378e-10
3.99719e-10
7.86655e-10
3.20058e-10
9.03555e-10
2.27575e-10
1.00948e-09
1.23551e-10
1.10217e-09
1.17961e-09
9.45684e-12
1.43782e-12
-4.14679e-11
4.12381e-12
-9.1927e-11
7.35552e-12
-1.27059e-10
1.09458e-11
-1.5474e-10
1.50423e-11
-1.79687e-10
1.99806e-11
-2.0446e-10
2.62094e-11
-2.30453e-10
3.42646e-11
-2.5842e-10
4.47645e-11
-2.88631e-10
5.84121e-11
-3.20871e-10
7.59974e-11
-3.54333e-10
9.83906e-11
-3.87458e-10
1.26518e-10
-4.17681e-10
1.61272e-10
-4.41087e-10
2.03232e-10
-4.51837e-10
2.51825e-10
-4.41209e-10
3.04679e-10
-3.98199e-10
3.58235e-10
-3.01959e-10
3.77092e-10
-1.10743e-10
3.09803e-10
1.77464e-10
9.45778e-11
3.70249e-10
1.27911e-11
2.71801e-10
5.03414e-11
1.42698e-12
1.02315e-10
-1.61604e-10
1.52677e-10
-2.45072e-10
2.02182e-10
-2.77222e-10
2.52532e-10
-2.81018e-10
2.97371e-10
-2.57821e-10
3.33131e-10
-2.07608e-10
3.63106e-10
-1.433e-10
3.92625e-10
-7.54232e-11
4.34955e-10
-3.15337e-12
4.71494e-10
4.98627e-11
4.86503e-10
7.33967e-11
4.7504e-10
7.82055e-11
4.72113e-10
6.88427e-11
4.70839e-10
6.08338e-11
4.92565e-10
2.90425e-11
5.35251e-10
1.05748e-11
5.77907e-10
5.07614e-11
6.05608e-10
1.43911e-10
6.13879e-10
2.69057e-10
6.00811e-10
4.13584e-10
5.68053e-10
5.63812e-10
5.1796e-10
7.11472e-10
4.52298e-10
8.52317e-10
3.72157e-10
9.83696e-10
2.78324e-10
1.10331e-09
1.71693e-10
1.2088e-09
1.29779e-09
5.35123e-11
9.93416e-13
-4.24613e-11
2.54034e-12
-9.3475e-11
4.05263e-12
-1.28573e-10
5.40483e-12
-1.56094e-10
6.77274e-12
-1.81057e-10
8.47912e-12
-2.06168e-10
1.09232e-11
-2.32899e-10
1.45543e-11
-2.62052e-10
1.98668e-11
-2.93945e-10
2.7405e-11
-3.2841e-10
3.77695e-11
-3.64699e-10
5.16329e-11
-4.01322e-10
6.97746e-11
-4.35823e-10
9.31171e-11
-4.6443e-10
1.22782e-10
-4.81501e-10
1.59859e-10
-4.78286e-10
2.04139e-10
-4.42477e-10
2.49434e-10
-3.47254e-10
3.14426e-10
-1.75735e-10
2.73603e-10
2.18289e-10
6.16804e-11
5.82173e-10
3.75384e-11
2.95944e-10
8.15429e-11
-4.25769e-11
1.29623e-10
-2.09684e-10
1.81524e-10
-2.96973e-10
2.31304e-10
-3.27003e-10
2.77229e-10
-3.26943e-10
3.16327e-10
-2.96919e-10
3.49796e-10
-2.41077e-10
3.8094e-10
-1.74444e-10
4.11933e-10
-1.06417e-10
4.53347e-10
-4.45682e-11
4.92403e-10
1.08049e-11
5.15547e-10
5.02513e-11
5.06569e-10
8.71828e-11
4.81206e-10
9.42055e-11
4.79288e-10
6.27504e-11
5.02462e-10
5.86761e-12
5.60248e-10
-4.72128e-11
6.16561e-10
-5.55266e-12
6.5044e-10
1.10032e-10
6.60678e-10
2.58819e-10
6.47919e-10
4.26343e-10
6.15241e-10
5.9649e-10
5.66151e-10
7.60562e-10
5.02256e-10
9.16213e-10
4.23794e-10
1.06216e-09
3.30626e-10
1.19648e-09
2.22937e-10
1.31649e-09
1.4191e-09
1.01628e-10
5.33896e-13
-4.29957e-11
8.98975e-13
-9.3842e-11
6.2212e-13
-1.28298e-10
-3.50635e-13
-1.55124e-10
-1.83574e-12
-1.79573e-10
-3.53761e-12
-2.04468e-10
-5.13154e-12
-2.31306e-10
-6.29335e-12
-2.60891e-10
-6.70982e-12
-2.9353e-10
-6.08516e-12
-3.29036e-10
-4.14932e-12
-3.66636e-10
-6.5205e-13
-4.0482e-10
4.67006e-12
-4.41145e-10
1.22265e-11
-4.71986e-10
2.29356e-11
-4.92209e-10
3.91365e-11
-4.94486e-10
6.45523e-11
-4.67892e-10
1.16012e-10
-3.98713e-10
1.92947e-10
-2.52669e-10
2.64784e-10
1.46453e-10
-2.4327e-11
8.71285e-10
4.90604e-11
2.22558e-10
1.34436e-10
-1.27952e-10
1.80893e-10
-2.56141e-10
2.14797e-10
-3.30878e-10
2.52561e-10
-3.64769e-10
2.91836e-10
-3.66217e-10
3.29814e-10
-3.34897e-10
3.64028e-10
-2.75291e-10
3.93997e-10
-2.04413e-10
4.26397e-10
-1.38819e-10
4.63887e-10
-8.20592e-11
5.05364e-10
-3.06731e-11
5.35395e-10
2.02202e-11
5.38447e-10
8.41306e-11
5.12614e-10
1.20038e-10
5.04177e-10
7.11864e-11
5.18099e-10
-8.05475e-12
5.91735e-10
-1.2085e-10
6.5708e-10
-7.08987e-11
6.874e-10
7.97119e-11
6.95643e-10
2.50577e-10
6.82519e-10
4.39468e-10
6.50261e-10
6.28748e-10
6.04907e-10
8.05917e-10
5.46463e-10
9.74657e-10
4.73365e-10
1.13526e-09
3.8398e-10
1.28587e-09
2.77457e-10
1.42302e-09
1.54232e-09
1.54243e-10
8.15365e-14
-4.30783e-11
-7.21757e-13
-9.30412e-11
-2.76412e-12
-1.26258e-10
-6.04674e-12
-1.51843e-10
-1.03635e-11
-1.75258e-10
-1.54532e-11
-1.99379e-10
-2.1072e-11
-2.25688e-10
-2.70272e-11
-2.54937e-10
-3.31965e-11
-2.87362e-10
-3.95511e-11
-3.22682e-10
-4.61931e-11
-3.59994e-10
-5.34166e-11
-3.97596e-10
-6.18232e-11
-4.32738e-10
-7.24881e-11
-4.6132e-10
-8.71793e-11
-4.77517e-10
-1.08514e-10
-4.7315e-10
-1.39623e-10
-4.36782e-10
-1.83387e-10
-3.54949e-10
-2.34624e-10
-2.01431e-10
-1.91879e-10
1.0371e-10
2.85194e-10
3.94212e-10
3.38008e-10
1.69744e-10
2.91859e-10
-8.18028e-11
2.56848e-10
-2.21132e-10
2.43868e-10
-3.17898e-10
2.6079e-10
-3.81691e-10
2.90281e-10
-3.95708e-10
3.259e-10
-3.70514e-10
3.64018e-10
-3.13409e-10
3.94033e-10
-2.34428e-10
4.21605e-10
-1.66391e-10
4.55488e-10
-1.15943e-10
4.95491e-10
-7.06763e-11
5.41731e-10
-2.60193e-11
6.0429e-10
2.15714e-11
5.88039e-10
1.36289e-10
5.81511e-10
7.77144e-11
5.49261e-10
2.41933e-11
6.52873e-10
-2.24464e-10
6.86802e-10
-1.04828e-10
6.95517e-10
7.09976e-11
7.09501e-10
2.36593e-10
6.9168e-10
4.5729e-10
6.64026e-10
6.56404e-10
6.28816e-10
8.41126e-10
5.82225e-10
1.02125e-09
5.2018e-10
1.1973e-09
4.38953e-10
1.3671e-09
3.36425e-10
1.52555e-09
1.66612e-09
2.12622e-10
-3.43639e-13
-4.2736e-11
-2.24903e-12
-9.11381e-11
-5.96285e-12
-1.22546e-10
-1.14196e-11
-1.46388e-10
-1.8397e-11
-1.68282e-10
-2.66567e-11
-1.91121e-10
-3.60173e-11
-2.16329e-10
-4.63854e-11
-2.4457e-10
-5.77721e-11
-2.75976e-10
-7.03144e-11
-3.10141e-10
-8.4306e-11
-3.46003e-10
-1.00259e-10
-3.81643e-10
-1.19015e-10
-4.1398e-10
-1.41907e-10
-4.38427e-10
-1.70843e-10
-4.4858e-10
-2.07854e-10
-4.36137e-10
-2.53563e-10
-3.91073e-10
-3.08739e-10
-2.99772e-10
-3.27805e-10
-1.82364e-10
-1.56309e-10
-6.77858e-11
1.06176e-10
1.31728e-10
2.86736e-10
-1.08157e-11
2.72859e-10
-6.79266e-11
2.04801e-10
-1.53075e-10
2.07948e-10
-3.21046e-10
2.29825e-10
-4.03567e-10
2.6146e-10
-4.27342e-10
2.96963e-10
-4.06017e-10
3.35732e-10
-3.52177e-10
3.68601e-10
-2.67297e-10
3.83961e-10
-1.81751e-10
4.15154e-10
-1.47136e-10
4.50696e-10
-1.06218e-10
5.06339e-10
-8.16626e-11
5.73327e-10
-4.54164e-11
7.24846e-10
-1.52296e-11
7.69098e-10
3.34611e-11
7.96899e-10
-3.60829e-12
6.94797e-10
-1.22363e-10
6.8831e-10
-9.83419e-11
6.73219e-10
8.60892e-11
6.62638e-10
2.47174e-10
6.52416e-10
4.67512e-10
6.44018e-10
6.64801e-10
6.32153e-10
8.52992e-10
6.08264e-10
1.04514e-09
5.6562e-10
1.23995e-09
4.98054e-10
1.43466e-09
4.02558e-10
1.62104e-09
1.78944e-09
2.79237e-10
-7.21408e-13
-4.2016e-11
-3.61905e-12
-8.82422e-11
-8.83539e-12
-1.17331e-10
-1.624e-11
-1.38984e-10
-2.55847e-11
-1.58939e-10
-3.66378e-11
-1.80069e-10
-4.92501e-11
-2.03718e-10
-6.33746e-11
-2.30446e-10
-7.90683e-11
-2.60283e-10
-9.64855e-11
-2.92724e-10
-1.15868e-10
-3.26621e-10
-1.37542e-10
-3.59969e-10
-1.61912e-10
-3.89609e-10
-1.89437e-10
-4.109e-10
-2.20533e-10
-4.17482e-10
-2.55056e-10
-4.01614e-10
-2.90531e-10
-3.55597e-10
-3.14371e-10
-2.75931e-10
-3.06846e-10
-1.89888e-10
-1.69245e-10
-2.05386e-10
-3.20124e-11
-5.50432e-12
5.23824e-11
-9.5211e-11
4.18122e-11
-5.73573e-11
8.53401e-11
-1.96603e-10
1.30003e-10
-3.65709e-10
1.71516e-10
-4.4508e-10
2.08678e-10
-4.64504e-10
2.42048e-10
-4.39386e-10
2.73012e-10
-3.83141e-10
3.11507e-10
-3.05792e-10
3.34645e-10
-2.04889e-10
3.37059e-10
-1.4955e-10
3.56606e-10
-1.25766e-10
3.85448e-10
-1.10503e-10
4.50286e-10
-1.10254e-10
5.63946e-10
-1.28891e-10
6.04914e-10
-7.50701e-12
5.75982e-10
2.53223e-11
4.71844e-10
-1.82251e-11
3.22999e-10
5.05021e-11
3.63684e-10