/*--------------------------------*- C++ -*----------------------------------*\
| =========                 |                                                 |
| \\      /  F ield         | OpenFOAM: The Open Source CFD Toolbox           |
|  \\    /   O peration     | Version:  2.4.0                                 |
|   \\  /    A nd           | Web:      www.OpenFOAM.org                      |
|    \\/     M anipulation  |                                                 |
\*---------------------------------------------------------------------------*/
FoamFile
{
    version     2.0;
    format      ascii;
    class       volVectorField;
    location    "0.196";
    object      U;
}
// * * * * * * * * * * * * * * * * * * * * * * * * * * * * * * * * * * * * * //

dimensions      [0 1 -1 0 0 0 0];

internalField   nonuniform List<vector> 
6500
(
(-0.0656275 0.00445398 0)
(-0.200302 0.00380298 0)
(-0.235099 -0.000747768 0)
(-0.11873 -0.00743715 0)
(0.0413582 0.000185449 0)
(-0.10737 -0.000721261 0)
(0.00763388 -0.00931717 0)
(0.340407 -0.00518557 0)
(0.273718 0.00438753 0)
(-0.133132 0.0401146 0)
(-0.803419 -0.000924081 0)
(-0.401527 -0.0761379 0)
(0.525269 -0.0171947 0)
(0.529186 0.0148633 0)
(-0.116515 0.0242249 0)
(0.0156118 -0.0195377 0)
(0.360782 -0.0119542 0)
(0.416299 0.0105503 0)
(0.383939 0.0152989 0)
(0.121742 0.0215352 0)
(-0.135199 0.00760487 0)
(-0.0619969 -0.0275098 0)
(0.425472 -0.0240863 0)
(0.419741 0.0613817 0)
(-0.0455752 0.0257655 0)
(-0.102981 -0.0254925 0)
(0.0115419 0.00539588 0)
(-0.230935 0.0209768 0)
(0.00899164 -0.0468793 0)
(0.583619 -0.00187897 0)
(0.609155 0.00636689 0)
(0.366307 -0.00377064 0)
(0.197083 -0.00393167 0)
(0.122692 0.0226307 0)
(0.0991012 0.00557063 0)
(0.206389 -0.0165033 0)
(0.295714 -0.0153268 0)
(0.402679 -0.0285432 0)
(0.575907 -0.0394184 0)
(0.735891 -0.0182025 0)
(0.781736 0.0108461 0)
(0.829244 -0.0262361 0)
(0.957077 -0.00175639 0)
(0.963005 0.080759 0)
(0.807368 0.0970568 0)
(0.633922 0.048877 0)
(0.527601 0.0025271 0)
(0.603757 -0.0256486 0)
(0.681479 -0.00795061 0)
(0.743146 0.0058321 0)
(-0.108633 0.0128968 0)
(-0.248577 0.00748446 0)
(-0.231343 -0.00308222 0)
(-0.125749 -0.01737 0)
(0.0110996 0.00222212 0)
(-0.137566 0.000737231 0)
(-0.0904872 -0.0289636 0)
(0.327343 -0.0259819 0)
(0.330698 0.0418358 0)
(0.190424 0.0901562 0)
(-0.625827 0.0116604 0)
(-0.241868 -0.10588 0)
(0.133989 -0.0715529 0)
(0.604259 0.0190957 0)
(-0.00470715 0.0878381 0)
(-0.140083 -0.0747964 0)
(0.208805 -0.0430976 0)
(0.452689 -0.0131204 0)
(0.787039 0.029435 0)
(0.348653 0.0847173 0)
(0.0863369 0.017513 0)
(0.362538 -0.0912922 0)
(0.507707 -0.124701 0)
(0.612923 0.0800911 0)
(0.351655 0.121285 0)
(-0.00818036 0.000870478 0)
(0.000545881 0.0365876 0)
(-0.29595 -0.00112913 0)
(0.322159 -0.275365 0)
(1.02295 -0.274863 0)
(1.29403 0.0935699 0)
(0.704941 0.22705 0)
(0.345389 0.0898269 0)
(0.232317 0.033703 0)
(0.387307 -0.0963935 0)
(0.560788 -0.0981124 0)
(0.631555 -0.0760286 0)
(0.673593 -0.138486 0)
(0.878247 -0.203742 0)
(1.18219 -0.129459 0)
(1.26797 -0.00104848 0)
(1.3013 -0.178995 0)
(1.43906 -0.105581 0)
(1.55264 0.118406 0)
(1.50126 0.18241 0)
(1.3712 0.172343 0)
(1.25248 0.0968889 0)
(1.16592 -0.117668 0)
(1.1507 -0.22222 0)
(1.2402 -0.0998013 0)
(-0.125278 0.0240241 0)
(-0.251319 0.0107076 0)
(-0.230209 -0.00643463 0)
(-0.129687 -0.0272944 0)
(0.00472983 0.00480093 0)
(-0.154992 0.0034622 0)
(-0.131851 -0.0460797 0)
(0.128519 -0.053191 0)
(0.322961 0.0249871 0)
(0.386094 0.13611 0)
(-0.549343 0.0668984 0)
(-0.442759 -0.176496 0)
(0.305772 -0.0967463 0)
(0.370436 0.00554351 0)
(-0.0684314 0.160005 0)
(-0.671675 -0.0711702 0)
(-0.183476 -0.102433 0)
(0.347965 -0.0673875 0)
(0.640481 0.0109547 0)
(0.61739 0.1435 0)
(0.444845 0.0213077 0)
(0.636493 -0.102997 0)
(0.591253 -0.0718465 0)
(0.477535 0.112411 0)
(0.339752 0.176072 0)
(0.0701333 0.035818 0)
(0.14276 0.0773682 0)
(-0.170981 -0.0527636 0)
(0.333209 -0.412615 0)
(0.113996 -0.324413 0)
(0.387538 0.14062 0)
(0.634455 0.291935 0)
(0.547926 0.147561 0)
(0.53553 0.0381036 0)
(0.633592 -0.152089 0)
(0.846001 -0.150882 0)
(0.819435 -0.0416114 0)
(0.550483 -0.124749 0)
(0.52779 -0.383308 0)
(1.09539 -0.294332 0)
(1.41325 0.0265706 0)
(1.39491 -0.31071 0)
(1.45477 -0.245262 0)
(1.51183 0.189859 0)
(1.51783 0.262842 0)
(1.50115 0.278446 0)
(1.43962 0.214379 0)
(1.3296 0.0568662 0)
(1.14936 -0.125431 0)
(1.05576 -0.02165 0)
(-0.133518 0.0340381 0)
(-0.251259 0.0133263 0)
(-0.232137 -0.00881063 0)
(-0.138238 -0.0362285 0)
(0.00864082 0.00731751 0)
(-0.143231 0.00680727 0)
(-0.0951774 -0.0499654 0)
(-0.0534734 -0.0573798 0)
(-0.0436967 0.0229366 0)
(-0.155921 0.171409 0)
(-0.668946 0.0829461 0)
(0.0279341 -0.22725 0)
(0.481856 -0.133062 0)
(0.412466 0.0332093 0)
(-0.088173 0.222284 0)
(-0.862114 -0.0298623 0)
(-0.341097 -0.159714 0)
(0.346379 -0.119283 0)
(0.773787 -0.0201195 0)
(0.856725 0.133556 0)
(0.690053 0.0516946 0)
(0.557646 -0.147527 0)
(0.95568 -0.119081 0)
(0.618956 0.167561 0)
(0.267795 0.210017 0)
(0.221316 0.042732 0)
(0.294258 0.106242 0)
(0.0858621 -0.0487555 0)
(0.100935 -0.442885 0)
(-0.0223296 -0.288305 0)
(0.0309553 -0.0565725 0)
(0.605781 0.224571 0)
(0.591267 0.147952 0)
(0.589136 0.016267 0)
(0.684369 -0.162282 0)
(0.79715 -0.182736 0)
(0.770341 0.0964372 0)
(0.236551 0.00850495 0)
(0.165176 -0.513837 0)
(0.501704 -0.733123 0)
(1.3554 -0.0327056 0)
(1.00189 -0.205869 0)
(0.798164 -0.131939 0)
(0.748748 0.0226948 0)
(1.00494 0.104481 0)
(1.21679 0.223207 0)
(1.28559 0.257881 0)
(1.20953 0.177978 0)
(0.977983 0.0317789 0)
(0.904527 0.0365027 0)
(-0.138289 0.043169 0)
(-0.249805 0.0155395 0)
(-0.235484 -0.0107637 0)
(-0.15034 -0.0448434 0)
(0.0175363 0.0085709 0)
(-0.126076 0.00763352 0)
(-0.032765 -0.0496126 0)
(-0.0848424 -0.0680564 0)
(0.299683 0.0259177 0)
(0.262014 0.266263 0)
(-1.13885 0.0651289 0)
(0.191147 -0.308332 0)
(0.495717 -0.117553 0)
(0.324347 0.0550985 0)
(-0.076565 0.302015 0)
(-0.718414 -0.0323312 0)
(0.566893 -0.316335 0)
(0.735372 -0.20697 0)
(0.883654 -0.0232442 0)
(0.982258 0.126768 0)
(0.652918 0.083304 0)
(0.463313 -0.124811 0)
(0.302999 -0.141293 0)
(0.404852 0.234074 0)
(0.29948 0.241105 0)
(0.408654 0.0446839 0)
(0.444849 0.113953 0)
(0.345505 0.0165083 0)
(-0.118174 -0.406497 0)
(-0.273711 -0.267065 0)
(-0.11247 -0.123663 0)
(0.438992 0.124446 0)
(0.503939 0.121742 0)
(0.565469 -0.0144435 0)
(0.649165 -0.199984 0)
(0.657213 -0.159823 0)
(0.434865 0.250368 0)
(0.0830688 0.130212 0)
(0.344088 -0.56119 0)
(0.385118 -0.963041 0)
(0.676484 -0.139534 0)
(0.503496 -0.110659 0)
(0.259866 0.077678 0)
(0.00715157 -0.0593887 0)
(0.369032 -0.112994 0)
(0.735768 0.0821551 0)
(0.961515 0.229022 0)
(0.999267 0.280751 0)
(0.802387 0.226548 0)
(0.550075 0.12777 0)
(-0.140773 0.0516834 0)
(-0.251164 0.0177232 0)
(-0.248068 -0.0121444 0)
(-0.168553 -0.0529207 0)
(0.0189095 0.00896371 0)
(-0.114849 0.0074368 0)
(0.0839344 -0.0512421 0)
(-0.0424433 -0.0773298 0)
(0.159914 -0.0125377 0)
(0.289204 0.299316 0)
(-1.42434 0.0505443 0)
(-0.823253 -0.343372 0)
(0.250236 -0.104636 0)
(0.485982 0.0787961 0)
(-0.0303045 0.354041 0)
(-0.637514 -0.110089 0)
(0.746535 -0.393784 0)
(0.863594 -0.254985 0)
(0.877827 -0.0313374 0)
(1.02184 0.136947 0)
(0.670564 0.143978 0)
(0.33499 -0.04066 0)
(-0.316852 -0.100559 0)
(-0.154972 0.238394 0)
(0.247969 0.206426 0)
(0.585495 0.0174415 0)
(0.623117 0.107672 0)
(0.449018 0.105064 0)
(-0.170249 -0.340935 0)
(-0.123961 -0.273785 0)
(0.116253 -0.177671 0)
(0.318525 0.0426334 0)
(0.443892 0.0909 0)
(0.621125 -0.0328234 0)
(0.616191 -0.19372 0)
(0.518691 -0.163564 0)
(0.535274 0.120041 0)
(0.357096 0.196612 0)
(0.704302 -0.653239 0)
(0.636426 -0.94204 0)
(0.537991 -0.0906648 0)
(0.401931 0.0223882 0)
(0.16691 0.165073 0)
(0.166845 -0.101452 0)
(0.094145 -0.32764 0)
(0.386239 -0.127103 0)
(0.67643 0.0960563 0)
(0.851339 0.289624 0)
(0.84243 0.353686 0)
(0.711218 0.281112 0)
(-0.142439 0.0596162 0)
(-0.254839 0.0200451 0)
(-0.268674 -0.0131101 0)
(-0.189299 -0.0608363 0)
(0.0216375 0.00815794 0)
(-0.106248 0.00295119 0)
(0.165963 -0.0528513 0)
(-0.0777032 -0.0733593 0)
(-0.216461 -0.0162049 0)
(0.254415 0.363939 0)
(-1.0869 0.0887791 0)
(-1.20684 -0.444474 0)
(-0.526161 -0.261777 0)
(0.594817 0.0718413 0)
(0.081408 0.374143 0)
(0.556388 -0.136117 0)
(0.882522 -0.413107 0)
(0.760078 -0.238349 0)
(0.75712 -0.049824 0)
(1.00098 0.127697 0)
(0.714284 0.239407 0)
(0.211348 -0.0464374 0)
(-0.0859269 -0.0630001 0)
(-0.0354864 0.194719 0)
(0.404719 0.121089 0)
(0.672261 -0.0288091 0)
(0.762877 0.122135 0)
(0.656808 0.198149 0)
(-0.0591654 -0.255491 0)
(-0.123111 -0.284347 0)
(0.0643425 -0.205467 0)
(0.245655 -0.0118594 0)
(0.46254 0.0359479 0)
(0.655131 -0.0494302 0)
(0.576536 -0.148093 0)
(0.277423 -0.0929263 0)
(0.14762 0.318869 0)
(0.551634 0.0483654 0)
(1.00758 -0.80354 0)
(0.810429 -0.869471 0)
(0.61644 -0.0994066 0)
(0.513342 0.109493 0)
(0.359707 0.131726 0)
(0.51714 0.0823824 0)
(0.373202 -0.395182 0)
(0.339527 -0.238864 0)
(0.513567 -0.0830362 0)
(0.750119 0.201716 0)
(0.867741 0.34984 0)
(0.811775 0.341847 0)
(-0.143562 0.0669915 0)
(-0.258056 0.0225888 0)
(-0.290799 -0.013647 0)
(-0.209601 -0.0691653 0)
(0.0390136 0.00736239 0)
(-0.0961679 -0.00191866 0)
(0.167423 -0.0536699 0)
(-0.0270039 -0.0582059 0)
(-0.416026 -0.0314993 0)
(-0.142575 0.438383 0)
(-0.74083 0.145483 0)
(-0.645883 -0.450523 0)
(-0.470209 -0.295125 0)
(0.547009 0.0455102 0)
(0.271743 0.382223 0)
(0.700311 -0.130685 0)
(0.866281 -0.399482 0)
(0.702497 -0.220933 0)
(0.588654 -0.0421582 0)
(0.883849 0.115575 0)
(0.855013 0.230762 0)
(-0.130562 0.0764022 0)
(-0.261358 -0.124535 0)
(0.386424 0.105686 0)
(0.59341 0.0765621 0)
(0.597156 -0.0544586 0)
(0.776344 0.116906 0)
(0.921512 0.282023 0)
(0.185587 -0.136174 0)
(0.0367594 -0.344609 0)
(0.189556 -0.271022 0)
(0.217771 -0.0800515 0)
(0.473656 -0.0277321 0)
(0.636951 -0.0605081 0)
(0.662484 -0.098354 0)
(0.570122 -0.0104101 0)
(0.25559 0.100198 0)
(0.786432 -0.155841 0)
(1.28167 -0.741545 0)
(0.817698 -0.670315 0)
(0.570364 -0.0213547 0)
(0.558311 0.145718 0)
(0.490979 0.105011 0)
(0.546519 0.0351031 0)
(0.869289 -0.456317 0)
(0.637939 -0.217775 0)
(0.456216 -0.206159 0)
(0.724764 0.0844819 0)
(0.849716 0.337502 0)
(0.75543 0.432234 0)
(-0.142944 0.0738493 0)
(-0.262596 0.0252973 0)
(-0.314148 -0.0138978 0)
(-0.234597 -0.078127 0)
(0.0448082 0.00577439 0)
(0.0421347 -0.00468847 0)
(0.0373431 -0.0525153 0)
(0.0904586 -0.0444727 0)
(-0.41033 -0.00206905 0)
(-0.369405 0.375313 0)
(-0.347691 0.155313 0)
(0.646299 -0.415187 0)
(0.372337 -0.254362 0)
(0.414087 0.0140358 0)
(0.485274 0.381566 0)
(0.805797 -0.18314 0)
(1.00938 -0.41952 0)
(0.840888 -0.194069 0)
(0.610281 -0.0632575 0)
(0.780048 0.107875 0)
(0.787978 0.3716 0)
(-0.528114 0.0845819 0)
(0.445286 -0.184004 0)
(0.582737 0.0862932 0)
(0.589757 0.0888207 0)
(0.487291 -0.0633198 0)
(0.731777 0.0741978 0)
(0.928799 0.346958 0)
(0.080196 -0.121966 0)
(-0.133646 -0.349139 0)
(0.261782 -0.26528 0)
(0.270111 -0.105901 0)
(0.451322 -0.0698937 0)
(0.622965 -0.0880369 0)
(0.835107 -0.146794 0)
(0.981211 0.0693378 0)
(1.38296 0.0685655 0)
(1.78006 -0.245888 0)
(1.83939 -0.543046 0)
(0.884024 -0.562848 0)
(0.536663 -0.0212059 0)
(0.574362 0.120964 0)
(0.527418 0.112063 0)
(0.531665 0.0302322 0)
(0.809396 -0.303802 0)
(0.918919 0.0928648 0)
(0.460136 -0.157685 0)
(0.838529 -0.15108 0)
(1.04752 0.39943 0)
(0.749804 0.577464 0)
(-0.139605 0.0801783 0)
(-0.26391 0.0283322 0)
(-0.328952 -0.0134438 0)
(-0.244536 -0.0850099 0)
(-0.0137012 -0.00281285 0)
(0.262738 -0.00376183 0)
(-0.0916152 -0.0495593 0)
(0.181754 -0.0373151 0)
(-0.052269 -0.00587772 0)
(-0.102765 0.361946 0)
(-0.296846 0.123429 0)
(0.718935 -0.52289 0)
(0.708257 -0.262847 0)
(0.541708 0.0129081 0)
(0.362917 0.343925 0)
(0.936965 -0.18565 0)
(1.21701 -0.413607 0)
(1.11392 -0.174285 0)
(0.742617 -0.0362878 0)
(0.778533 0.0715337 0)
(1.1031 0.452802 0)
(0.0443662 0.18749 0)
(0.215982 -0.159907 0)
(0.239954 0.0923548 0)
(0.377788 0.100871 0)
(0.328393 -0.0879085 0)
(0.609113 0.0334492 0)
(0.899476 0.366155 0)
(0.292401 -0.0367563 0)
(-0.408691 -0.355636 0)
(0.0891348 -0.306081 0)
(0.213248 -0.137618 0)
(0.416837 -0.113829 0)
(0.634242 -0.130297 0)
(0.775304 -0.24829 0)
(1.31295 -0.0987681 0)
(2.36203 -0.0496585 0)
(2.69564 -0.313446 0)
(2.22497 -0.368971 0)
(1.01113 -0.254506 0)
(0.631231 0.0467991 0)
(0.586607 0.154348 0)
(0.30322 0.142221 0)
(0.395271 -0.247919 0)
(0.631438 -0.444758 0)
(0.606657 -0.114164 0)
(0.537688 -0.162354 0)
(0.673132 -0.522556 0)
(1.02432 0.495021 0)
(0.657079 0.79542 0)
(-0.140514 0.0860414 0)
(-0.277237 0.0312448 0)
(-0.349287 -0.0135709 0)
(-0.218673 -0.0898254 0)
(-0.081285 -0.0112585 0)
(0.169814 -0.00351084 0)
(-0.275566 -0.0494596 0)
(0.17104 -0.0412843 0)
(-0.10338 0.0099201 0)
(-0.175953 0.446191 0)
(-0.488865 0.0745441 0)
(0.812531 -0.521313 0)
(0.176192 -0.275985 0)
(0.195778 0.0364325 0)
(0.352416 0.351197 0)
(1.14922 -0.302429 0)
(0.726355 -0.450578 0)
(0.637647 -0.163513 0)
(0.803999 -0.0335597 0)
(0.816899 0.0456756 0)
(1.10396 0.488046 0)
(-0.710102 0.144455 0)
(-0.636415 -0.247265 0)
(-0.216484 0.0747056 0)
(0.245785 0.0903648 0)
(0.181822 -0.117244 0)
(0.519559 0.0148879 0)
(0.833786 0.377395 0)
(0.608386 0.155626 0)
(-0.135627 -0.323167 0)
(-0.054109 -0.330353 0)
(0.115034 -0.170419 0)
(0.434276 -0.165663 0)
(0.647359 -0.156136 0)
(0.233598 -0.249007 0)
(0.315654 -0.409704 0)
(0.914133 -0.194251 0)
(0.803203 -0.227076 0)
(1.38119 -0.314495 0)
(1.04855 -0.0700198 0)
(0.85704 0.111201 0)
(0.719178 0.206484 0)
(0.572824 0.193419 0)
(0.883983 -0.159064 0)
(0.775346 -0.312219 0)
(0.356999 0.0127573 0)
(0.637808 -0.257383 0)
(0.390756 -0.380793 0)
(0.692592 0.567395 0)
(0.461331 1.03326 0)
(-0.14154 0.0916447 0)
(-0.292164 0.0340848 0)
(-0.363163 -0.0144016 0)
(-0.181965 -0.0979256 0)
(0.0992786 -0.0139046 0)
(0.1631 9.49575e-05 0)
(-0.184958 -0.0549564 0)
(0.28585 -0.0471971 0)
(0.101138 0.0213597 0)
(-0.290682 0.467574 0)
(-0.502216 0.0577285 0)
(0.775121 -0.535995 0)
(0.15536 -0.211451 0)
(-0.581852 -0.0294042 0)
(0.388728 0.330782 0)
(1.02305 -0.2512 0)
(0.159781 -0.395542 0)
(0.441422 -0.174226 0)
(0.919882 -0.0499317 0)
(0.717282 0.0518707 0)
(0.654387 0.479805 0)
(-0.0691008 0.293692 0)
(-0.799474 -0.289524 0)
(-0.190734 0.0152421 0)
(0.182007 0.0658181 0)
(0.0459922 -0.136639 0)
(0.437747 -0.0360262 0)
(0.879935 0.337905 0)
(0.831971 0.201973 0)
(0.336701 -0.266074 0)
(0.0270916 -0.385592 0)
(0.298739 -0.238248 0)
(0.585934 -0.187339 0)
(0.571595 -0.11325 0)
(-0.179565 -0.173877 0)
(0.160501 -0.502878 0)
(0.3444 -0.210544 0)
(0.288997 -0.179133 0)
(0.476455 -0.51112 0)
(0.904814 0.0173976 0)
(0.878535 0.18871 0)
(0.751966 0.246546 0)
(0.882696 0.103524 0)
(1.14206 -0.193053 0)
(0.784576 -0.206313 0)
(0.331847 -0.0521372 0)
(0.711007 -0.379293 0)
(0.982114 -0.204155 0)
(0.578823 0.381718 0)
(0.362568 1.23185 0)
(-0.142501 0.0969883 0)
(-0.301302 0.0368225 0)
(-0.352927 -0.0155775 0)
(-0.201394 -0.10743 0)
(0.138954 -0.0225556 0)
(0.759905 0.011469 0)
(-0.051102 -0.0517885 0)
(0.290945 -0.0489383 0)
(0.152023 0.0206558 0)
(0.528107 0.377965 0)
(-1.13531 0.0424023 0)
(0.643448 -0.556891 0)
(0.0162679 -0.178271 0)
(-1.05819 0.0348183 0)
(0.430743 0.263299 0)
(0.778899 -0.211565 0)
(0.0834564 -0.365939 0)
(0.560404 -0.197618 0)
(0.658269 -0.0730054 0)
(0.685728 0.0834733 0)
(0.475169 0.555115 0)
(-0.0110354 0.406629 0)
(-0.660671 -0.265125 0)
(-0.40373 -0.0330906 0)
(-0.0664184 0.059839 0)
(-0.0112182 -0.155829 0)
(0.0443233 -0.0817528 0)
(0.712709 0.297571 0)
(0.887938 0.226446 0)
(0.523559 -0.205785 0)
(0.101673 -0.367288 0)
(0.389394 -0.283271 0)
(0.596082 -0.192005 0)
(0.729586 -0.0868962 0)
(0.982934 -0.100978 0)
(0.355865 -0.447452 0)
(0.0365358 -0.131551 0)
(0.307072 -0.325691 0)
(0.500243 -0.585413 0)
(1.19095 -0.145736 0)
(1.19443 0.195237 0)
(0.905263 0.251156 0)
(0.94758 -0.00950023 0)
(0.999401 -0.134244 0)
(0.767766 -0.0628307 0)
(0.950435 -0.168673 0)
(0.925707 -0.430786 0)
(0.760721 0.0493719 0)
(0.0117339 0.454388 0)
(0.250906 1.2843 0)
(-0.14348 0.101981 0)
(-0.300787 0.0391201 0)
(-0.324098 -0.01599 0)
(-0.276999 -0.110169 0)
(-0.303919 -0.0429317 0)
(0.81405 0.0086596 0)
(-0.172724 -0.0393838 0)
(0.0671632 -0.047695 0)
(-0.0368622 0.00847602 0)
(0.601012 0.501274 0)
(-1.58412 0.0381682 0)
(0.48763 -0.581253 0)
(-0.0309044 -0.13272 0)
(0.25352 -0.0688967 0)
(0.540401 0.22786 0)
(0.643603 -0.217332 0)
(0.355027 -0.448079 0)
(0.932895 -0.166961 0)
(-0.15668 -0.0689402 0)
(0.494615 0.0805041 0)
(0.624634 0.582916 0)
(-0.307827 0.362328 0)
(-0.387572 -0.219414 0)
(-0.40524 -0.0524626 0)
(-0.381618 0.0337648 0)
(0.105745 -0.169204 0)
(0.0749471 -0.10963 0)
(0.546813 0.276013 0)
(0.709392 0.224377 0)
(0.713469 -0.156548 0)
(0.147039 -0.339037 0)
(0.188968 -0.321352 0)
(0.409702 -0.2512 0)
(1.11698 -0.129097 0)
(1.03265 -0.114105 0)
(0.571383 -0.367681 0)
(0.699616 -0.232846 0)
(1.60398 -0.367427 0)
(1.5223 -0.554498 0)
(1.66269 -0.222819 0)
(1.51982 0.242789 0)
(1.15094 0.289819 0)
(1.04773 0.0329227 0)
(0.942787 -0.0728728 0)
(0.816626 -0.10254 0)
(0.963593 -0.166441 0)
(0.641534 -0.285341 0)
(0.344418 0.197229 0)
(0.107756 0.528331 0)
(0.280196 1.01836 0)
(-0.144257 0.106562 0)
(-0.296936 0.0408825 0)
(-0.303719 -0.0159256 0)
(-0.276531 -0.109383 0)
(-0.507032 -0.0521711 0)
(0.276129 0.00826407 0)
(-0.462657 -0.0369494 0)
(-0.523642 -0.0548434 0)
(-0.335024 0.000789507 0)
(0.306381 0.486427 0)
(-1.33759 0.00114633 0)
(0.406673 -0.621677 0)
(-0.0168417 -0.116867 0)
(0.2847 -0.0341665 0)
(0.606506 0.227523 0)
(0.520397 -0.196845 0)
(0.103865 -0.429184 0)
(0.784387 -0.14703 0)
(0.28191 -0.0756889 0)
(0.494874 0.0630711 0)
(0.979815 0.568824 0)
(-0.0504158 0.429183 0)
(-0.248035 -0.227244 0)
(-0.497559 -0.0547728 0)
(-0.197659 0.021498 0)
(0.149515 -0.182944 0)
(0.0986844 -0.127267 0)
(0.254794 0.246181 0)
(0.488736 0.185411 0)
(0.711364 -0.143981 0)
(0.183241 -0.298695 0)
(0.0874077 -0.34586 0)
(0.348827 -0.289797 0)
(0.518623 -0.302515 0)
(1.34198 -0.0314734 0)
(0.564884 -0.287821 0)
(0.569462 -0.384775 0)
(1.37547 -0.387344 0)
(1.38334 -0.604697 0)
(1.15469 -0.252655 0)
(1.42389 0.284097 0)
(1.26311 0.348441 0)
(1.09143 0.0857436 0)
(0.819055 -0.011109 0)
(0.508931 -0.140107 0)
(0.59845 -0.182121 0)
(0.435581 -0.167207 0)
(0.223331 0.208099 0)
(0.0838523 0.621861 0)
(0.0711544 0.829771 0)
(-0.14516 0.110735 0)
(-0.294584 0.0422348 0)
(-0.282102 -0.0159988 0)
(-0.202499 -0.107907 0)
(-0.352785 -0.0629028 0)
(0.639788 0.0084158 0)
(-0.338295 -0.0055621 0)
(-0.469711 -0.0620457 0)
(-0.295487 -0.0106778 0)
(0.112887 0.498592 0)
(-0.438823 0.0223327 0)
(0.388967 -0.648922 0)
(0.73069 -0.165597 0)
(0.674368 -0.0663395 0)
(0.752762 0.231771 0)
(0.331426 -0.204672 0)
(-0.186724 -0.404827 0)
(0.335324 -0.149276 0)
(0.403455 -0.0734757 0)
(0.591887 0.0292154 0)
(1.01653 0.627465 0)
(0.332448 0.520479 0)
(-0.446228 -0.21084 0)
(-0.596525 -0.0994808 0)
(0.233486 -0.013634 0)
(0.300133 -0.154645 0)
(-0.104912 -0.144726 0)
(0.263942 0.216725 0)
(0.885024 0.171769 0)
(1.15099 -0.107539 0)
(0.255723 -0.238474 0)
(-0.176557 -0.355922 0)
(0.264776 -0.228449 0)
(-1.18428 -0.272519 0)
(0.0609612 -0.0467955 0)
(0.216547 -0.293898 0)
(0.0993716 -0.47402 0)
(-0.00746509 -0.350976 0)
(0.317116 -0.666156 0)
(-0.341875 -0.116995 0)
(0.712935 0.312771 0)
(0.906134 0.331582 0)
(0.943639 0.123114 0)
(0.668168 0.0862771 0)
(0.418006 -0.10847 0)
(0.323384 -0.187826 0)
(0.283065 -0.112959 0)
(0.20025 0.216484 0)
(0.134426 0.711013 0)
(-0.0992223 0.777097 0)
(-0.146281 0.11455 0)
(-0.294522 0.0432644 0)
(-0.25886 -0.017016 0)
(-0.128966 -0.106576 0)
(-0.293678 -0.0652945 0)
(-0.528227 0.0123611 0)
(-0.145775 -0.00917962 0)
(0.282362 -0.0598389 0)
(-0.0223032 -0.014732 0)
(-0.056368 0.53945 0)
(2.4151e-05 0.0225824 0)
(0.431566 -0.659008 0)
(0.219031 -0.146916 0)
(0.361162 -0.0455313 0)
(0.749501 0.251023 0)
(0.343976 -0.186621 0)
(0.450426 -0.460009 0)
(0.3765 -0.16904 0)
(0.687809 -0.0748446 0)
(0.423211 0.0165542 0)
(0.738577 0.60368 0)
(0.563583 0.579912 0)
(-0.433328 -0.144399 0)
(-0.656486 -0.119224 0)
(0.149531 -0.0548172 0)
(0.0320311 -0.160376 0)
(-0.27412 -0.145347 0)
(0.294558 0.168653 0)
(0.81114 0.12591 0)
(0.892958 -0.0797871 0)
(0.276033 -0.153301 0)
(-0.428134 -0.379912 0)
(0.180769 -0.186985 0)
(-0.9505 -0.230274 0)
(-0.0698092 -0.185074 0)
(0.362149 -0.299601 0)
(0.0551955 -0.420737 0)
(-0.325223 -0.292622 0)
(-0.287014 -0.600896 0)
(-1.301 -0.213021 0)
(-0.348318 0.108915 0)
(0.541819 0.216523 0)
(0.831374 0.120233 0)
(0.722014 0.162402 0)
(0.742629 -0.0358143 0)
(0.534384 -0.144994 0)
(0.242976 -0.0380926 0)
(0.195343 0.239943 0)
(0.145744 0.775565 0)
(-0.142425 0.74012 0)
(-0.147505 0.118071 0)
(-0.294971 0.0440501 0)
(-0.239092 -0.0186411 0)
(-0.0699689 -0.107267 0)
(-0.0462191 -0.0555904 0)
(-0.976535 0.00799022 0)
(0.251064 -0.0229042 0)
(0.50293 -0.0663609 0)
(0.482564 -0.0103304 0)
(0.441225 0.512444 0)
(0.368982 0.0093726 0)
(0.55871 -0.657313 0)
(-0.206546 -0.134906 0)
(-0.353083 -0.0778287 0)
(0.909798 0.240225 0)
(0.404147 -0.174858 0)
(-0.156346 -0.422192 0)
(0.44064 -0.187565 0)
(0.778964 -0.084519 0)
(0.711602 0.0456031 0)
(0.44698 0.600014 0)
(0.109361 0.561822 0)
(-0.363418 -0.115367 0)
(-0.138005 -0.144566 0)
(0.222477 -0.0648568 0)
(-0.152907 -0.126306 0)
(-0.647955 -0.156938 0)
(0.0307126 0.0893727 0)
(0.615941 0.119422 0)
(0.759333 -0.0566443 0)
(0.287751 -0.0932827 0)
(-0.470003 -0.372682 0)
(-0.110827 -0.184705 0)
(-0.554061 -0.278671 0)
(0.386907 -0.297218 0)
(0.504815 -0.292063 0)
(0.242035 -0.377268 0)
(0.448021 -0.302523 0)
(0.0908087 -0.63266 0)
(0.658196 -0.151874 0)
(0.440162 -0.00208117 0)
(0.754254 0.119692 0)
(0.703451 0.0964666 0)
(0.682562 0.189679 0)
(1.13737 -0.0381152 0)
(1.06379 -0.116578 0)
(0.318412 0.0153513 0)
(0.191133 0.242759 0)
(0.203372 0.815104 0)
(0.157325 0.735974 0)
(-0.148477 0.121271 0)
(-0.283136 0.0446021 0)
(-0.213278 -0.0204249 0)
(-0.0263342 -0.112068 0)
(0.353059 -0.0466706 0)
(-1.03329 0.0018483 0)
(1.86725 -0.0553982 0)
(0.523478 -0.0388736 0)
(-0.0116529 -0.00473164 0)
(0.6835 0.512119 0)
(0.596166 0.0101625 0)
(0.665869 -0.645233 0)
(-0.175975 -0.125915 0)
(-0.31251 -0.0913485 0)
(0.944766 0.221953 0)
(0.353354 -0.143423 0)
(-0.978962 -0.423389 0)
(0.413096 -0.214871 0)
(0.732066 -0.105911 0)
(1.34741 0.0583463 0)
(0.262856 0.60281 0)
(0.294734 0.606329 0)
(-0.200094 -0.12667 0)
(1.16195 -0.179346 0)
(0.157505 -0.0296291 0)
(-0.244299 -0.112074 0)
(-0.68607 -0.133669 0)
(-1.12733 0.0605838 0)
(0.345632 0.0423852 0)
(0.746185 -0.058185 0)
(0.421519 -0.0392233 0)
(-0.150958 -0.296739 0)
(-1.16066 -0.177926 0)
(0.266311 -0.340729 0)
(0.713649 -0.301454 0)
(0.576466 -0.27787 0)
(0.379417 -0.367255 0)
(0.0943988 -0.290734 0)
(0.161663 -0.620383 0)
(1.15019 -0.340542 0)
(1.07413 0.0436862 0)
(0.838484 0.167606 0)
(0.39583 0.0870374 0)
(0.923323 0.0415841 0)
(1.92347 -0.0675404 0)
(1.55887 -0.00234454 0)
(-0.0234995 0.16772 0)
(-0.0477239 0.261312 0)
(0.272497 0.797746 0)
(0.394112 0.729187 0)
(-0.148968 0.124276 0)
(-0.27584 0.0449124 0)
(-0.206789 -0.022299 0)
(-0.0172603 -0.119787 0)
(0.699273 -0.0399002 0)
(-0.872314 -0.00429707 0)
(-0.092752 -0.0844217 0)
(0.312937 -0.0208797 0)
(0.103994 -0.0224864 0)
(0.763515 0.497977 0)
(0.685691 0.0141526 0)
(0.696758 -0.61871 0)
(0.0745561 -0.114331 0)
(0.508691 -0.0955225 0)
(0.979277 0.212691 0)
(0.434832 -0.104644 0)
(-0.244629 -0.4407 0)
(0.38163 -0.239885 0)
(0.640889 -0.130241 0)
(2.60052 0.0600885 0)
(0.114004 0.659087 0)
(-0.713554 0.589748 0)
(0.0214665 -0.155557 0)
(1.05056 -0.191757 0)
(-0.0406389 0.0224568 0)
(0.0255166 -0.0963472 0)
(-0.313364 -0.108123 0)
(-0.716934 0.0375889 0)
(0.695461 -0.0398856 0)
(0.771271 -0.0542254 0)
(0.445944 -0.00641296 0)
(0.281452 -0.23469 0)
(0.0189058 -0.247553 0)
(0.702827 -0.383959 0)
(0.773705 -0.290839 0)
(0.600373 -0.264507 0)
(0.460713 -0.325536 0)
(0.117247 -0.290224 0)
(0.374899 -0.622193 0)
(-0.528303 -0.432541 0)
(0.551973 0.138798 0)
(0.642483 0.250282 0)
(0.168289 0.0885528 0)
(0.200882 -0.156917 0)
(0.593672 -0.042517 0)
(0.905197 0.190043 0)
(-0.28933 0.375949 0)
(0.0597454 0.13271 0)
(0.230817 0.765687 0)
(0.2715 0.828862 0)
(0.749672 -0.00488228 0)
(0.722975 0.0170632 0)
(0.586006 0.0683989 0)
(0.41904 0.072708 0)
(0.278749 0.0420699 0)
(0.193065 0.0232219 0)
(0.137885 0.0129479 0)
(0.0968034 0.00595759 0)
(0.0653664 0.00169984 0)
(0.0477207 -0.00265108 0)
(0.0501268 -0.0022224 0)
(0.0117229 0.0172788 0)
(0.00166546 0.0562148 0)
(-0.00867467 -0.00859863 0)
(-0.00562603 -0.0475884 0)
(0.00668124 0.00135656 0)
(0.00786829 0.0165509 0)
(0.124691 0.0246084 0)
(-0.0447441 0.160755 0)
(-0.491652 -0.0457727 0)
(-0.23383 -0.0329009 0)
(-0.0353446 -0.0696484 0)
(0.0662557 0.00728614 0)
(0.137078 0.00677894 0)
(-0.171796 -0.00679824 0)
(0.192463 -0.0170828 0)
(0.340012 -0.00225755 0)
(0.139083 0.0376384 0)
(0.194446 -0.00191273 0)
(0.163413 0.0335479 0)
(-0.26662 0.023045 0)
(-0.668303 0.0216216 0)
(-0.334902 -0.00989512 0)
(-0.00878058 -0.0321223 0)
(0.108196 -0.0189419 0)
(0.119687 -0.0585777 0)
(0.592977 -0.00556728 0)
(0.262721 0.030008 0)
(-0.676109 0.0753606 0)
(-0.819043 -0.0296357 0)
(0.309461 -0.0301679 0)
(0.200681 -0.030546 0)
(0.899611 0.0211849 0)
(-0.287085 0.0263099 0)
(-0.00841169 0.00197592 0)
(0.187606 -0.0255575 0)
(0.061604 -0.0272499 0)
(0.0559213 -0.0122325 0)
(0.180959 2.63172e-05 0)
(0.0858733 0.00498444 0)
(1.18601 0.0811424 0)
(0.997235 0.161381 0)
(0.830103 0.237835 0)
(0.659662 0.257384 0)
(0.541158 0.175279 0)
(0.447665 0.104111 0)
(0.365264 0.0705833 0)
(0.286138 0.053653 0)
(0.207441 0.0388852 0)
(0.141889 0.0162431 0)
(0.0836133 0.0305157 0)
(-0.0478382 0.021151 0)
(0.00718123 -0.0451925 0)
(0.140192 0.00927907 0)
(-0.0335474 0.0396356 0)
(-0.131716 -0.00796823 0)
(-0.0247936 -0.0731663 0)
(0.0403176 -0.00583949 0)
(0.0650997 0.124744 0)
(0.0982785 0.0111015 0)
(-0.453361 -0.0414203 0)
(-0.51489 -0.104376 0)
(-0.55402 -0.0329667 0)
(-0.314604 0.0404164 0)
(-0.201265 -0.0280399 0)
(0.189046 -0.0715526 0)
(0.421661 -0.0642119 0)
(0.350898 0.0465475 0)
(0.288463 -0.0109628 0)
(0.223147 0.0948719 0)
(-0.510247 0.106204 0)
(-0.5836 0.0494081 0)
(-0.0968768 -0.119201 0)
(0.250877 -0.0456995 0)
(-0.029597 0.0144185 0)
(-0.505202 -0.0620246 0)
(-0.415618 0.0438866 0)
(-0.742323 0.0715199 0)
(-1.12705 0.100381 0)
(-0.857865 -0.113221 0)
(-0.0274606 -0.0855193 0)
(0.0718678 -0.037514 0)
(0.355148 0.0462234 0)
(0.33401 0.03862 0)
(0.381847 -0.0400993 0)
(1.33679 0.00543669 0)
(0.515607 0.0408209 0)
(0.0850086 0.00261819 0)
(0.189665 -0.000752141 0)
(0.119518 0.0121152 0)
(0.994415 0.274968 0)
(0.824542 0.350818 0)
(0.682452 0.37856 0)
(0.645711 0.358092 0)
(0.640084 0.253735 0)
(0.594454 0.174535 0)
(0.51189 0.139508 0)
(0.411154 0.122244 0)
(0.297502 0.105784 0)
(0.191232 0.0809789 0)
(0.036006 0.0917814 0)
(0.0858403 0.0456062 0)
(-0.0396754 -0.0345035 0)
(0.024638 0.00262761 0)
(-0.039565 0.0894372 0)
(-0.0323858 -0.0101942 0)
(-0.0817021 -0.0671794 0)
(-0.073905 -0.00837034 0)
(0.0893673 0.120734 0)
(0.0509791 0.213983 0)
(-0.300064 0.079249 0)
(-0.505795 -0.00584383 0)
(-0.574874 -0.0100866 0)
(-0.509552 -0.117049 0)
(-0.221932 -0.13558 0)
(0.0721281 -0.11053 0)
(-0.107408 -0.0936356 0)
(0.348483 0.0602016 0)
(0.135186 0.0291173 0)
(0.307395 0.145936 0)
(-0.461825 0.166063 0)
(-0.0819624 -0.0159576 0)
(-0.0370209 -0.174764 0)
(0.23784 -0.0517698 0)
(-0.169118 0.115291 0)
(-1.05604 -0.0432108 0)
(-0.863588 0.0624824 0)
(-1.0975 0.102136 0)
(-1.40055 0.119343 0)
(-1.51263 -0.171809 0)
(-0.666473 -0.134548 0)
(-0.286584 -0.0712519 0)
(-0.00664399 0.0148796 0)
(0.696287 0.0106571 0)
(0.0743657 -0.0421847 0)
(-0.232995 -0.0316413 0)
(-0.00959142 0.0590118 0)
(0.0544776 0.0054016 0)
(0.204593 -0.00169702 0)
(0.131053 0.0216264 0)
(0.794932 0.471721 0)
(0.603923 0.488399 0)
(0.505199 0.399768 0)
(0.587078 0.326686 0)
(0.683065 0.244039 0)
(0.687365 0.211554 0)
(0.611398 0.20706 0)
(0.493635 0.200437 0)
(0.353675 0.186772 0)
(0.219981 0.162075 0)
(0.107484 0.137802 0)
(-0.0354007 0.065119 0)
(0.0359291 -0.0148217 0)
(0.0444249 0.00650215 0)
(-0.0278181 0.0898475 0)
(0.0482384 0.0125464 0)
(-0.060303 -0.0502488 0)
(-0.0473542 -0.0634493 0)
(0.0282804 0.0409915 0)
(-0.0287614 0.266081 0)
(-0.357538 0.0967607 0)
(-0.296222 -0.00506288 0)
(0.0768397 -0.0171837 0)
(-0.0454011 -0.0705859 0)
(-0.351197 -0.20888 0)
(0.0485995 -0.103143 0)
(-0.231117 -0.138008 0)
(0.509897 0.00695767 0)
(-0.0353186 0.0278336 0)
(0.171189 0.222099 0)
(-0.714933 0.142751 0)
(-0.0802279 -0.0457071 0)
(-0.087298 -0.163393 0)
(-0.128454 -0.0334629 0)
(0.00309702 0.177654 0)
(-0.594251 -0.0111952 0)
(-0.826297 0.0806923 0)
(-0.831713 0.113811 0)
(-0.988472 0.167169 0)
(-0.989799 -0.206939 0)
(-0.239101 -0.194806 0)
(-0.315575 -0.097001 0)
(-0.181903 -0.0314619 0)
(0.552506 0.0147482 0)
(1.15816 0.0242714 0)
(0.0984931 -0.00248182 0)
(-0.164025 0.0429312 0)
(0.0413964 -0.00868326 0)
(0.206207 -0.00378362 0)
(0.137053 0.0305147 0)
(0.569102 0.567511 0)
(0.565518 0.590112 0)
(0.53864 0.35283 0)
(0.633836 0.231012 0)
(0.743447 0.201158 0)
(0.756958 0.229571 0)
(0.681767 0.271933 0)
(0.545683 0.284213 0)
(0.383618 0.273429 0)
(0.234836 0.236082 0)
(0.170819 0.19066 0)
(-0.0116983 0.0881376 0)
(0.0141951 -0.0597089 0)
(0.0222693 0.0265373 0)
(-0.0239046 0.0801513 0)
(0.0641202 0.00562449 0)
(0.0637191 -0.0306408 0)
(0.0356882 -0.0419473 0)
(-0.0388506 0.0626789 0)
(-0.00480863 0.367604 0)
(-0.309866 0.121829 0)
(-0.18459 -0.0917189 0)
(0.212402 -0.0727637 0)
(0.395415 0.0460011 0)
(-0.460877 -0.210375 0)
(0.160284 -0.11636 0)
(-0.088877 -0.169141 0)
(0.436238 -0.0139166 0)
(-0.0189308 0.0847958 0)
(0.123463 0.276868 0)
(-1.26578 0.257102 0)
(-0.592788 -0.0794889 0)
(0.117642 -0.183293 0)
(-0.0962516 -0.0666538 0)
(0.027564 0.191548 0)
(0.215379 0.0362225 0)
(-0.564326 0.107975 0)
(-0.353658 0.0870705 0)
(-0.250916 0.218132 0)
(-0.989185 -0.224778 0)
(0.139147 -0.202841 0)
(-0.144993 -0.0829904 0)
(-0.230462 -0.0400007 0)
(0.669674 -0.10457 0)
(1.29148 0.0158978 0)
(0.0693162 0.0409497 0)
(-0.165186 0.0479105 0)
(0.0267448 -0.0185231 0)
(0.201652 -0.00609009 0)
(0.140948 0.0385166 0)
(0.633963 0.491977 0)