/*--------------------------------*- C++ -*----------------------------------*\
| =========                 |                                                 |
| \\      /  F ield         | OpenFOAM: The Open Source CFD Toolbox           |
|  \\    /   O peration     | Version:  2.4.0                                 |
|   \\  /    A nd           | Web:      www.OpenFOAM.org                      |
|    \\/     M anipulation  |                                                 |
\*---------------------------------------------------------------------------*/
FoamFile
{
    version     2.0;
    format      ascii;
    class       surfaceScalarField;
    location    "0.072";
    object      phi;
}
// * * * * * * * * * * * * * * * * * * * * * * * * * * * * * * * * * * * * * //

dimensions      [0 3 -1 0 0 0 0];

internalField   nonuniform List<scalar> 
114720
(
-1.20578e-09
9.81861e-10
2.26649e-09
-2.04257e-09
3.1239e-09
-3.80735e-09
-3.03435e-10
9.86883e-10
6.13204e-09
-6.8964e-09
-3.3519e-10
1.09956e-09
9.41336e-09
-1.02184e-08
-3.34743e-10
1.13978e-09
1.25951e-08
-1.32313e-08
-2.35028e-10
8.7128e-10
1.45484e-08
-1.46857e-08
2.10989e-13
1.37101e-10
1.41213e-08
-1.36242e-08
2.43853e-10
-7.40981e-10
1.1038e-08
-9.88417e-09
4.70869e-10
-1.62465e-09
5.13456e-09
-3.28428e-09
7.40043e-10
-2.59032e-09
-3.52421e-09
5.93501e-09
9.85851e-10
-3.39665e-09
-1.40512e-08
1.67023e-08
1.1058e-09
-3.75689e-09
-2.49738e-08
2.74799e-08
1.037e-09
-3.54305e-09
-3.47382e-08
3.67731e-08
7.94914e-10
-2.82979e-09
-4.21993e-08
4.35731e-08
4.59455e-10
-1.83325e-09
-4.67505e-08
4.73801e-08
9.98503e-11
-7.29441e-10
-4.81866e-08
4.80838e-08
-2.26817e-10
3.29568e-10
-4.6737e-08
4.60249e-08
-4.64957e-10
1.17704e-09
-4.30625e-08
4.19456e-08
-5.85275e-10
1.70222e-09
-3.80521e-08
3.67449e-08
-6.02118e-10
1.90931e-09
-3.25381e-08
3.12094e-08
-5.52667e-10
1.88138e-09
-2.7124e-08
2.58808e-08
-4.71871e-10
1.71505e-09
-2.21647e-08
2.1061e-08
-3.83427e-10
1.48707e-09
-1.78231e-08
1.68766e-08
-2.99908e-10
1.24645e-09
-1.41322e-08
1.3339e-08
-2.27253e-10
1.02051e-09
-1.10521e-08
1.03931e-08
-1.68608e-10
8.27579e-10
-8.49634e-09
7.94857e-09
-1.24021e-10
6.71788e-10
-6.36165e-09
5.89892e-09
-9.33703e-11
5.56099e-10
-4.54244e-09
4.14142e-09
-7.45991e-11
4.75613e-10
-2.9498e-09
2.59312e-09
-6.43133e-11
4.20988e-10
-1.52125e-09
1.19831e-09
-5.89969e-11
3.81937e-10
1.21991e-09
7.336e-09
-6.01597e-09
-2.53994e-09
6.08437e-09
-4.37266e-09
-7.29849e-09
5.58678e-09
1.116e-08
-4.75765e-09
-1.25172e-08
6.11493e-09
1.68859e-08
-4.93549e-09
-1.83422e-08
6.39179e-09
2.25164e-08
-3.64034e-09
-2.36734e-08
4.79733e-09
2.601e-08
-3.56087e-10
-2.62753e-08
6.21407e-10
2.53028e-08
3.70311e-09
-2.43724e-08
-4.63353e-09
1.95954e-08
8.00785e-09
-1.73955e-08
-1.02078e-08
8.83088e-09
1.21506e-08
-5.4797e-09
-1.55018e-08
-6.06331e-09
1.49952e-08
1.01654e-08
-1.90973e-08
-2.32206e-08
1.58622e-08
2.75543e-08
-2.01959e-08
-4.05297e-08
1.46645e-08
4.45963e-08
-1.87311e-08
-5.61416e-08
1.19091e-08
5.95757e-08
-1.53433e-08
-6.88371e-08
8.29679e-09
7.14372e-08
-1.08969e-08
-7.79728e-08
4.29739e-09
7.96375e-08
-5.9621e-09
-8.32518e-08
3.55828e-10
8.39581e-08
-1.06211e-09
-8.47326e-08
-3.00997e-09
8.45584e-08
3.18417e-09
-8.28632e-08
-5.43631e-09
8.19654e-08
6.33414e-09
-7.83513e-08
-6.84989e-09
7.69245e-08
8.27666e-09
-7.19941e-08
-7.40858e-09
7.02306e-08
9.17212e-09
-6.4533e-08
-7.35922e-09
6.25953e-08
9.29688e-09
-5.65635e-08
-6.94021e-09
5.45722e-08
8.9315e-09
-4.85097e-08
-6.33752e-09
4.65444e-08
8.30281e-09
-4.06459e-08
-5.67299e-09
3.87568e-08
7.5621e-09
-3.31392e-08
-5.02822e-09
3.13552e-08
6.81223e-09
-2.60892e-08
-4.44578e-09
2.44271e-08
6.10781e-09
-1.95453e-08
-3.95066e-09
1.80123e-08
5.48364e-09
-1.35333e-08
-3.53568e-09
1.21333e-08
4.9357e-09
-8.06102e-09
-3.18767e-09
6.79178e-09
4.45692e-09
-3.11251e-09
-2.87678e-09
1.97093e-09
4.01836e-09
1.24025e-09
1.26964e-08
-1.13503e-08
-2.58637e-09
6.28359e-09
-9.32407e-09
-7.54164e-09
1.05821e-08
1.1559e-08
-1.03179e-08
-1.29787e-08
1.17377e-08
1.75803e-08
-1.09442e-08
-1.91277e-08
1.24917e-08
2.36231e-08
-8.49079e-09
-2.48954e-08
9.76311e-09
2.75832e-08
-1.61716e-09
-2.79551e-08
1.98911e-09
2.72632e-08
7.29286e-09
-2.64079e-08
-8.14816e-09
2.18048e-08
1.67497e-08
-1.9643e-08
-1.89115e-08
1.11436e-08
2.55505e-08
-7.79937e-09
-2.88947e-08
-3.75153e-09
3.1424e-08
7.86292e-09
-3.55354e-08
-2.09622e-08
3.32332e-08
2.53148e-08
-3.75859e-08
-3.83551e-08
3.09774e-08
4.24435e-08
-3.50658e-08
-5.40525e-08
2.57002e-08
5.75062e-08
-2.91538e-08
-6.68277e-08
1.87711e-08
6.94483e-08
-2.13917e-08
-7.60519e-08
1.10634e-08
7.77402e-08
-1.27518e-08
-8.1432e-08
3.33507e-09
8.21663e-08
-4.06937e-09
-8.30414e-08
-3.4899e-09
8.29082e-08
3.62303e-09
-8.1374e-08
-8.7428e-09
8.05428e-08
9.57402e-09
-7.71767e-08
-1.22277e-08
7.58447e-08
1.35597e-08
-7.12358e-08
-1.41342e-08
6.95848e-08
1.57852e-08
-6.42385e-08
-1.48277e-08
6.24147e-08
1.66515e-08
-5.67129e-08
-1.47032e-08
5.48208e-08
1.65953e-08
-4.90237e-08
-1.40968e-08
4.71307e-08
1.59899e-08
-4.14016e-08
-1.32346e-08
3.95499e-08
1.50863e-08
-3.39909e-08
-1.22685e-08
3.2208e-08
1.40514e-08
-2.68962e-08
-1.12748e-08
2.52049e-08
1.29662e-08
-2.01997e-08
-1.03082e-08
1.8618e-08
1.189e-08
-1.39764e-08
-9.37208e-09
1.2521e-08
1.08275e-08
-8.28227e-09
-8.48648e-09
6.96074e-09
9.80801e-09
-3.13273e-09
-7.63832e-09
1.94648e-09
8.82457e-09
1.24089e-09
1.80992e-08
-1.67461e-08
-2.594e-09
6.29173e-09
-1.43638e-08
-7.55261e-09
1.56246e-08
1.15795e-08
-1.60122e-08
-1.30063e-08
1.74389e-08
1.76459e-08
-1.71694e-08
-1.92126e-08
1.87361e-08
2.37932e-08
-1.36404e-08
-2.51008e-08
1.4948e-08
2.78986e-08
-3.16172e-09
-2.8303e-08
3.56606e-09
2.76973e-08
1.067e-08
-2.68676e-08
-1.14996e-08
2.23314e-08
2.53721e-08
-2.0185e-08
-2.75185e-08
1.17011e-08
3.89356e-08
-8.35085e-09
-4.22859e-08
-3.24778e-09
4.79031e-08
7.38305e-09
-5.20384e-08
-2.0579e-08
5.06967e-08
2.49706e-08
-5.50884e-08
-3.81436e-08
4.73896e-08
4.2277e-08
-5.1523e-08
-5.40181e-08
3.95639e-08
5.75124e-08
-4.30583e-08
-6.69535e-08
2.9294e-08
6.96124e-08
-3.19529e-08
-7.63253e-08
1.78369e-08
7.80433e-08
-1.95548e-08
-8.17843e-08
6.2394e-09
8.2517e-08
-6.9721e-09
-8.33197e-08
-4.12594e-09
8.31397e-08
4.30593e-09
-8.13946e-08
-1.22313e-08
8.04743e-08
1.31515e-08
-7.67889e-08
-1.77482e-08
7.53414e-08
1.91958e-08
-7.03647e-08
-2.09234e-08
6.85933e-08
2.26948e-08
-6.28954e-08
-2.22719e-08
6.09654e-08
2.42019e-08
-5.49789e-08
-2.23657e-08
5.30089e-08
2.43357e-08
-4.70281e-08
-2.17e-08
4.50939e-08
2.36341e-08
-3.93002e-08
-2.06091e-08
3.74476e-08
2.24618e-08
-3.19457e-08
-1.93115e-08
3.02004e-08
2.10568e-08
-2.50547e-08
-1.7908e-08
2.34329e-08
1.95298e-08
-1.86773e-08
-1.6475e-08
1.71869e-08
1.79654e-08
-1.28418e-08
-1.50242e-08
1.14866e-08
1.63794e-08
-7.55324e-09
-1.36093e-08
6.32979e-09
1.48328e-08
-2.79042e-09
-1.22336e-08
1.69438e-09
1.33297e-08
1.23962e-09
2.35299e-08
-2.21693e-08
-2.60023e-09
6.27732e-09
-1.9404e-08
-7.53571e-09
2.06624e-08
1.15519e-08
-2.17194e-08
-1.29784e-08
2.31459e-08
1.76321e-08
-2.34526e-08
-1.92099e-08
2.50304e-08
2.38526e-08
-1.89121e-08
-2.51888e-08
2.02484e-08
2.80764e-08
-4.81562e-09
-2.8506e-08
5.24531e-09
2.79705e-08
1.39545e-08
-2.7165e-08
-1.476e-08
2.2704e-08
3.39289e-08
-2.05784e-08
-3.60545e-08
1.21256e-08
5.23415e-08
-8.77228e-09
-5.56947e-08
-2.87415e-09
6.44827e-08
7.03653e-09
-6.86451e-08
-2.03521e-08
6.83357e-08
2.47949e-08
-7.27784e-08
-3.81502e-08
6.40135e-08
4.23477e-08
-6.8211e-08
-5.42857e-08
5.36318e-08
5.7844e-08
-5.71902e-08
-6.74866e-08
4.00291e-08
7.02164e-08
-4.27589e-08
-7.71603e-08
2.48141e-08
7.89547e-08
-2.66085e-08
-8.29067e-08
9.24507e-09
8.36954e-08
-1.00338e-08
-8.46136e-08
-4.82721e-09
8.44518e-08
4.98895e-09
-8.27017e-08
-1.59524e-08
8.17608e-08
1.68933e-08
-7.79597e-08
-2.36282e-08
7.64595e-08
2.51284e-08
-7.1287e-08
-2.81306e-08
6.94426e-08
2.99751e-08
-6.35075e-08
-3.01242e-08
6.14975e-08
3.21342e-08
-5.52693e-08
-3.03709e-08
5.32229e-08
3.24174e-08
-4.7024e-08
-2.95401e-08
4.50248e-08
3.15392e-08
-3.90574e-08
-2.80906e-08
3.7157e-08
2.99911e-08
-3.154e-08
-2.63249e-08
2.97676e-08
2.80973e-08
-2.45714e-08
-2.43891e-08
2.29432e-08
2.60173e-08
-1.81955e-08
-2.24002e-08
1.67155e-08
2.38803e-08
-1.24201e-08
-2.0391e-08
1.10858e-08
2.17253e-08
-7.22484e-09
-1.84432e-08
6.02699e-09
1.9641e-08
-2.56862e-09
-1.65586e-08
1.49957e-09
1.76276e-08
1.23807e-09
2.89963e-08
-2.76258e-08
-2.60864e-09
6.25826e-09
-2.44326e-08
-7.51305e-09
2.56874e-08
1.15142e-08
-2.74245e-08
-1.29399e-08
2.88501e-08
1.76088e-08
-2.97827e-08
-1.91996e-08
3.13735e-08
2.39185e-08
-2.43087e-08
-2.52907e-08
2.56809e-08
2.82914e-08
-6.57987e-09
-2.87529e-08
7.04134e-09
2.8306e-08
1.71324e-08
-2.75316e-08
-1.79068e-08
2.31698e-08
4.2392e-08
-2.10721e-08
-4.44897e-08
1.2662e-08
6.576e-08
-9.30521e-09
-6.91168e-08
-2.40168e-09
8.11819e-08
6.59825e-09
-8.53784e-08
-2.00655e-08
8.62011e-08
2.45739e-08
-9.07095e-08
-3.81644e-08
8.09227e-08
4.24449e-08
-8.52032e-08
-5.46352e-08
6.79823e-08
5.82747e-08
-7.16217e-08
-6.81719e-08
5.10787e-08
7.09926e-08
-5.38994e-08
-7.82411e-08
3.21388e-08
8.01391e-08
-3.40368e-08
-8.43837e-08
1.25132e-08
8.52526e-08
-1.33821e-08
-8.63493e-08
-5.42527e-09
8.62228e-08
5.55177e-09
-8.4511e-08
-1.97305e-08
8.35611e-08
2.06803e-08
-7.9678e-08
-2.96915e-08
7.81354e-08
3.12341e-08
-7.28008e-08
-3.5597e-08
7.08961e-08
3.75017e-08
-6.47672e-08
-3.8259e-08
6.26933e-08
4.03329e-08
-5.62759e-08
-3.86457e-08
5.41705e-08
4.07511e-08
-4.78031e-08
-3.76152e-08
4.57526e-08
3.96657e-08
-3.96395e-08
-3.576e-08
3.76946e-08
3.77049e-08
-3.195e-08
-3.34726e-08
3.0138e-08
3.52846e-08
-2.48266e-08
-3.09516e-08
2.31622e-08
3.26159e-08
-1.83086e-08
-2.83625e-08
1.67954e-08
2.98757e-08
-1.2405e-08
-2.57621e-08
1.10419e-08
2.71251e-08
-7.10314e-09
-2.32582e-08
5.8835e-09
2.44778e-08
-2.37127e-09
-2.08475e-08
1.28892e-09
2.19299e-08
1.23592e-09
3.45085e-08
-3.31256e-08
-2.61887e-09
6.23551e-09
-2.94453e-08
-7.48581e-09
3.06956e-08
1.14686e-08
-3.31255e-08
-1.28931e-08
3.45499e-08
1.75802e-08
-3.61685e-08
-1.91866e-08
3.77749e-08
2.3999e-08
-2.98619e-08
-2.5416e-08
3.12789e-08
2.85576e-08
-8.48196e-09
-2.9058e-08
8.9824e-09
2.87188e-08
2.0175e-08
-2.79826e-08
-2.09112e-08
2.37442e-08
5.07331e-08
-2.16812e-08
-5.27962e-08
1.33244e-08
7.91939e-08
-9.96284e-09
-8.25554e-08
-1.81945e-09
9.80279e-08
6.05733e-09
-1.02266e-07
-1.97086e-08
1.04351e-07
2.42975e-08
-1.0894e-07
-3.81789e-08
9.8192e-08
4.25618e-08
-1.02575e-07
-5.50606e-08
8.2681e-08
5.87974e-08
-8.64179e-08
-6.89969e-08
6.25208e-08
7.19278e-08
-6.54517e-08
-7.95551e-08
3.99199e-08
8.15856e-08
-4.19505e-08
-8.62095e-08
1.61375e-08
8.71831e-08
-1.71111e-08
-8.85147e-08
-5.86363e-09
8.84358e-08
5.94255e-09
-8.67827e-08
-2.35412e-08
8.58254e-08
2.44984e-08
-8.18491e-08
-3.5934e-08
8.02564e-08
3.75267e-08
-7.47267e-08
-4.332e-08
7.27491e-08
4.52976e-08
-6.63884e-08
-4.66627e-08
6.42389e-08
4.88121e-08
-5.76028e-08
-4.71625e-08
5.54311e-08
4.93341e-08
-4.8879e-08
-4.58967e-08
4.67736e-08
4.80022e-08
-4.05061e-08
-4.36083e-08
3.8514e-08
4.56004e-08
-3.26298e-08
-4.07865e-08
3.07725e-08
4.26438e-08
-2.53194e-08
-3.76782e-08
2.36069e-08
3.93906e-08
-1.85998e-08
-3.44883e-08
1.70346e-08
3.60535e-08
-1.24834e-08
-3.12863e-08
1.10682e-08
3.27014e-08
-6.978e-09
-2.81982e-08
5.71286e-09
2.94633e-08
-2.08091e-09
-2.52194e-08
9.66832e-10
2.63334e-08
1.2337e-09
4.00787e-08
-3.86801e-08
-2.63238e-09
6.20687e-09
-3.44379e-08
-7.45127e-09
3.56823e-08
1.14107e-08
-3.88205e-08
-1.28332e-08
4.0243e-08
1.75395e-08
-4.26197e-08
-1.91634e-08
4.42436e-08
2.40846e-08
-3.56073e-08
-2.55552e-08
3.70779e-08
2.88657e-08
-1.05503e-08
-2.9412e-08
1.10966e-08
2.91986e-08
2.3054e-08
-2.85077e-08
-2.37448e-08
2.442e-08
5.89228e-08
-2.24002e-08
-6.09426e-08
1.4112e-08
9.26468e-08
-1.07456e-08
-9.60132e-08
-1.12312e-09
1.15047e-07
5.40715e-09
-1.19331e-07
-1.92681e-08
1.22843e-07
2.39513e-08
-1.27526e-07
-3.8177e-08
1.15899e-07
4.26816e-08
-1.20404e-07
-5.55414e-08
9.77904e-08
5.93894e-08
-1.01638e-07
-6.99279e-08
7.44303e-08
7.29865e-08
-7.74889e-08
-8.1067e-08
4.82789e-08
8.32632e-08
-5.04751e-08
-8.8366e-08
2.02213e-08
8.94722e-08
-2.13276e-08
-9.11012e-08
-6.09205e-09
9.10833e-08
6.11e-09
-8.95118e-08
-2.7379e-08
8.85489e-08
2.83419e-08
-8.44657e-08
-4.2392e-08
8.28126e-08
4.40451e-08
-7.70425e-08
-5.13601e-08
7.49741e-08
5.34285e-08
-6.83241e-08
-5.53943e-08
6.60808e-08
5.76375e-08
-5.91753e-08
-5.5965e-08
5.69229e-08
5.82174e-08
-5.01495e-08
-5.44118e-08
4.79795e-08
5.65818e-08
-4.15343e-08
-5.16548e-08
3.94888e-08
5.37003e-08
-3.34488e-08
-4.82901e-08
3.1541e-08
5.01979e-08
-2.59279e-08
-4.46096e-08
2.41598e-08
4.63777e-08
-1.89685e-08
-4.08429e-08
1.7338e-08
4.24734e-08
-1.25728e-08
-3.70498e-08
1.10839e-08
3.85387e-08
-6.76561e-09
-3.33566e-08
5.42746e-09
3.46947e-08
-1.59239e-09
-2.97468e-08
4.22218e-10
3.0917e-08
1.23133e-09
4.57211e-08
-4.43029e-08
-2.64951e-09
6.17459e-09
-3.94056e-08
-7.412e-09
4.0643e-08
1.13444e-08
-4.45072e-08
-1.27645e-08
4.59272e-08
1.74922e-08
-4.91443e-08
-1.91357e-08
5.07879e-08
2.41829e-08
-4.15819e-08
-2.57169e-08
4.31158e-08
2.9227e-08
-1.28125e-08
-2.9826e-08
1.34115e-08
2.97547e-08
2.57412e-08
-2.91161e-08
-2.63797e-08
2.52068e-08
6.6927e-08
-2.32391e-08
-6.88948e-08
1.50341e-08
1.06121e-07
-1.16618e-08
-1.09494e-07
-3.10035e-10
1.32259e-07
4.64513e-09
-1.36594e-07
-1.87438e-08
1.41736e-07
2.35366e-08
-1.46529e-07
-3.8169e-08
1.34127e-07
4.28175e-08
-1.38775e-07
-5.60981e-08
1.13366e-07
6.00708e-08
-1.17339e-07
-7.09771e-08
8.68778e-08
7.41809e-08
-9.00815e-08
-8.27924e-08
5.73614e-08
8.51975e-08
-5.97665e-08
-9.09008e-08
2.48837e-08
9.21725e-08
-2.61554e-08
-9.41696e-08
-6.05453e-09
9.42276e-08
5.99653e-09
-9.27646e-08
-3.12369e-08
9.17982e-08
3.22033e-08
-8.75932e-08
-4.91107e-08
8.58667e-08
5.08372e-08
-7.97982e-08
-5.97971e-08
7.76156e-08
6.19798e-08
-7.06014e-08
-6.45355e-08
6.82408e-08
6.68961e-08
-6.10011e-08
-6.5117e-08
5.865e-08
6.7468e-08
-5.16117e-08
-6.32018e-08
4.93664e-08
6.54471e-08
-4.27202e-08
-5.99235e-08
4.06164e-08
6.20272e-08
-3.44117e-08
-5.60002e-08
3.24519e-08
5.796e-08
-2.66749e-08
-5.177e-08
2.48489e-08
5.35961e-08
-1.94572e-08
-4.74766e-08
1.77513e-08
4.91825e-08
-1.27194e-08
-4.31474e-08
1.11305e-08
4.47364e-08
-6.4697e-09
-3.88716e-08
5.00934e-09
4.0332e-08
-7.99415e-10
-3.45667e-08
-4.83228e-10
3.58493e-08
1.22889e-09
5.14526e-08
-5.00104e-08
-2.67106e-09
6.13862e-09
-4.43433e-08
-7.36787e-09
4.55726e-08
1.12694e-08
-5.01831e-08
-1.26864e-08
5.16001e-08
1.74373e-08
-5.575e-08
-1.91022e-08
5.74149e-08
2.42922e-08
-4.78251e-08
-2.59e-08
4.94329e-08
2.96427e-08
-1.52952e-08
-3.03009e-08
1.59535e-08
3.03859e-08
2.82087e-08
-2.98066e-08
-2.8788e-08
2.61064e-08
7.47083e-08
-2.42006e-08
-7.66141e-08
1.60969e-08
1.19621e-07
-1.27173e-08
-1.23e-07
6.28592e-10
1.49684e-07
3.76535e-09
-1.54077e-07
-1.8126e-08
1.61091e-07
2.30443e-08
-1.66009e-07
-3.81508e-08
1.52966e-07
4.29678e-08
-1.57783e-07
-5.67336e-08
1.29459e-07
6.08429e-08
-1.33568e-07
-7.21296e-08
9.99286e-08
7.54928e-08
-1.03292e-07
-8.47051e-08
6.73674e-08
8.73852e-08
-7.00475e-08
-9.38398e-08
3.02616e-08
9.53134e-08
-3.17352e-08
-9.77574e-08
-5.69068e-09
9.79063e-08
5.54178e-09
-9.65838e-08
-3.51023e-08
9.56189e-08
3.60672e-08
-9.12786e-08
-5.61432e-08
8.94644e-08
5.79574e-08
-8.30246e-08
-6.87329e-08
8.06982e-08
7.10593e-08
-7.32257e-08
-7.41883e-08
7.0718e-08
7.66961e-08
-6.3066e-08
-7.46934e-08
6.05954e-08
7.71639e-08
-5.32447e-08
-7.23083e-08
5.09138e-08
7.46392e-08
-4.40494e-08
-6.84278e-08
4.18862e-08
7.05911e-08
-3.55249e-08
-6.39115e-08
3.3519e-08
6.59174e-08
-2.76037e-08
-5.91522e-08
2.57292e-08
6.10267e-08
-2.01623e-08
-5.44121e-08
1.83853e-08
5.61891e-08
-1.30754e-08
-4.9676e-08
1.13722e-08
5.13792e-08
-6.28386e-09
-4.49903e-08
4.65583e-09
4.66183e-08
2.01383e-10
-4.02467e-08
-1.7734e-09
4.18188e-08
1.22648e-09
5.7293e-08
-5.58215e-08
-2.69802e-09
6.09675e-09
-4.92459e-08
-7.31607e-09
5.04652e-08
1.1181e-08
-5.58454e-08
-1.2594e-08
5.72584e-08
1.73674e-08
-6.24425e-08
-1.90544e-08
6.41295e-08
2.44017e-08
-5.43796e-08
-2.60941e-08
5.6072e-08
3.01036e-08
-1.80239e-08
-3.08269e-08
1.87471e-08
3.10798e-08
3.0429e-08
-3.05665e-08
-3.09423e-08
2.71106e-08
8.2224e-08
-2.52789e-08
-8.40556e-08
1.73016e-08
1.3315e-07
-1.39143e-08
-1.36537e-07
1.6924e-09
1.67348e-07
2.76089e-09
-1.71801e-07
-1.73966e-08
1.80969e-07
2.24549e-08
-1.86027e-07
-3.8104e-08
1.72516e-07
4.31155e-08
-1.77527e-07
-5.74339e-08
1.4611e-07
6.16871e-08
-1.50363e-07
-7.33439e-08
1.13623e-07
7.68653e-08
-1.17145e-07
-8.67186e-08
7.86304e-08
8.97958e-08
-8.17077e-08
-9.71908e-08
3.65e-08
9.88991e-08
-3.82083e-08
-1.01876e-07
-4.94434e-09
1.02126e-07
4.69353e-09
-1.00983e-07
-3.89484e-08
1.0003e-07
3.99015e-08
-9.55506e-08
-6.35496e-08
9.36333e-08
6.5467e-08
-8.67329e-08
-7.82978e-08
8.42242e-08
8.08066e-08
-7.61726e-08
-8.44814e-08
7.34811e-08
8.71729e-08
-6.53221e-08
-8.47823e-08
6.2708e-08
8.73964e-08
-5.49941e-08
-8.17714e-08
5.2568e-08
8.41975e-08
-4.5477e-08
-7.71662e-08
4.32576e-08
7.93857e-08
-3.67673e-08
-7.19869e-08
3.47305e-08
7.40236e-08
-2.87423e-08
-6.66921e-08
2.68475e-08
6.85869e-08
-2.12074e-08
-6.15905e-08
1.93956e-08
6.34023e-08
-1.39001e-08
-5.66508e-08
1.20954e-08
5.84555e-08
-6.52186e-09
-5.17387e-08
4.69945e-09
5.35611e-08
1.26738e-10
-4.57524e-08
-1.20526e-09
4.68309e-08
1.22416e-09
6.32668e-08
-6.17594e-08
-2.73159e-09
6.05117e-09
-5.41067e-08
-7.25907e-09
5.53146e-08
1.10831e-08
-6.14904e-08
-1.24912e-08
6.28985e-08
1.72878e-08
-6.92249e-08
-1.89977e-08
7.09347e-08
2.45177e-08
-6.12909e-08
-2.63071e-08
6.30803e-08
3.06225e-08
-2.10211e-08
-3.14162e-08
2.18148e-08
3.1845e-08
3.23755e-08
-3.14041e-08
-3.28164e-08
2.82302e-08
8.94244e-08
-2.64858e-08
-9.11688e-08
1.86624e-08
1.46713e-07
-1.52654e-08
-1.5011e-07
2.88475e-09
1.85252e-07
1.62842e-09
-1.89765e-07
-1.65478e-08
2.01432e-07
2.17624e-08
-2.06647e-07
-3.80371e-08
1.92891e-07
4.32747e-08
-1.98129e-07
-5.82308e-08
1.63346e-07
6.26335e-08
-1.67749e-07
-7.4641e-08
1.27899e-07
7.82678e-08
-1.31526e-07
-8.87585e-08
9.17998e-08
9.24778e-08
-9.55191e-08
-1.01071e-07
4.36991e-08
1.03016e-07
-4.56449e-08
-1.06622e-07
-3.78948e-09
1.06969e-07
3.44239e-09
-1.06052e-07
-4.27218e-08
1.05131e-07
4.3643e-08
-1.00525e-07
-7.13926e-08
9.84895e-08
7.34281e-08
-9.10068e-08
-8.86677e-08
8.82617e-08
9.14128e-08
-7.94668e-08
-9.55791e-08
7.65429e-08
9.85031e-08
-6.77526e-08
-9.54902e-08
6.49639e-08
9.82789e-08
-5.68244e-08
-9.1631e-08
5.42927e-08
9.41627e-08
-4.69676e-08
-8.61234e-08
4.46966e-08
8.83944e-08
-3.81124e-08
-8.01579e-08
3.60638e-08
8.22065e-08
-3.00931e-08
-7.42516e-08
2.82212e-08
7.61235e-08
-2.27011e-08
-6.87934e-08
2.09429e-08
7.05517e-08
-1.56283e-08
-6.38887e-08
1.38737e-08
6.56433e-08
-8.27201e-09
-5.9499e-08
6.30572e-09
6.14653e-08
-1.33318e-10
-5.10605e-08
-1.5372e-09
5.2731e-08
1.22201e-09
6.94037e-08
-6.78525e-08
-2.77324e-09
6.00111e-09
-5.89193e-08
-7.19576e-09
6.0114e-08
1.09736e-08
-6.71144e-08
-1.23757e-08
6.85166e-08
1.71952e-08
-7.60989e-08
-1.89278e-08
7.78314e-08
2.46344e-08
-6.86099e-08
-2.65341e-08
7.05096e-08
3.11987e-08
-2.43073e-08
-3.20673e-08
2.5176e-08
3.26748e-08
3.40234e-08
-3.23123e-08
-3.43859e-08
2.94637e-08
9.62541e-08
-2.78216e-08
-9.78962e-08
2.01882e-08
1.6032e-07
-1.67791e-08
-1.63729e-07
4.2066e-09
2.03393e-07
3.6375e-10
-2.07963e-07
-1.55595e-08
2.22545e-07
2.09469e-08
-2.27933e-07
-3.7939e-08
2.14224e-07
4.3439e-08
-2.19724e-07
-5.91358e-08
1.81186e-07
6.36911e-08
-1.85741e-07
-7.60382e-08
1.42362e-07
7.95659e-08
-1.45889e-07
-9.06672e-08
1.08122e-07
9.5461e-08
-1.12916e-07
-1.05651e-07
5.17446e-08
1.07728e-07
-5.38218e-08
-1.12083e-07
-2.31003e-09
1.1247e-07
1.92354e-09
-1.11842e-07
-4.63139e-08
1.10994e-07
4.71618e-08
-1.06306e-07
-7.97239e-08
1.04145e-07
8.1885e-08
-9.59094e-08
-1.00091e-07
9.28494e-08
1.03151e-07
-8.30904e-08
-1.07697e-07
7.9871e-08
1.10916e-07
-7.02891e-08
-1.06952e-07
6.72866e-08
1.09955e-07
-5.8648e-08
-1.01929e-07
5.60006e-08
1.04576e-07
-4.84393e-08
-9.52783e-08
4.61227e-08
9.75948e-08
-3.9477e-08
-8.83507e-08
3.7432e-08
9.03957e-08
-3.15506e-08
-8.16573e-08
2.97378e-08
8.34701e-08
-2.4521e-08
-7.56187e-08
2.2914e-08
7.72258e-08
-1.82988e-08
-7.04528e-08
1.6881e-08
7.18706e-08
-1.28368e-08
-6.63624e-08
1.15948e-08
6.76044e-08
-7.75132e-09
-5.79239e-08
6.33075e-09
5.93445e-08
1.22021e-09
7.57393e-08
-7.41344e-08
-2.82508e-09
5.94654e-09
-6.36758e-08
-7.1259e-09
6.48552e-08
1.0852e-08
-7.27128e-08
-1.22471e-08
7.41079e-08
1.70884e-08
-8.30623e-08
-1.88427e-08
8.48166e-08
2.47478e-08
-7.63919e-08
-2.67727e-08
7.84169e-08
3.1836e-08
-2.78986e-08
-3.27828e-08
2.88454e-08
3.35655e-08
3.53495e-08
-3.32867e-08
-3.56283e-08
3.0812e-08
1.02649e-07
-2.92894e-08
-1.04172e-07
2.18927e-08
1.73978e-07
-1.84683e-08
-1.77403e-07
5.65464e-09
2.2175e-07
-1.03641e-09
-2.26368e-07
-1.44091e-08
2.44375e-07
1.99865e-08
-2.49952e-07
-3.78025e-08
2.36667e-07
4.36066e-08
-2.42471e-07
-6.01738e-08
1.99644e-07
6.48911e-08
-2.04362e-07
-7.75899e-08
1.55793e-07
8.05463e-08
-1.58749e-07
-9.24089e-08
1.29574e-07
9.8761e-08
-1.35926e-07
-1.11445e-07
5.98131e-08
1.13178e-07
-6.15458e-08
-1.18413e-07
-8.81635e-10
1.18681e-07
6.1336e-10
-1.18438e-07
-4.95208e-08
1.17729e-07
5.02303e-08
-1.13065e-07
-8.85403e-08
1.10799e-07
9.08061e-08
-1.01537e-07
-1.1294e-07
9.80391e-08
1.16438e-07
-8.7021e-08
-1.21109e-07
8.34272e-08
1.24703e-07
-7.28406e-08
-1.19344e-07
6.9571e-08
1.22613e-07
-6.03464e-08
-1.12702e-07
5.75765e-08
1.15472e-07
-4.97941e-08
-1.04604e-07
4.7441e-08
1.06957e-07
-4.07551e-08
-9.65193e-08
3.87172e-08
9.85572e-08
-3.29244e-08
-8.8816e-08
3.11676e-08
9.05728e-08
-2.62401e-08
-8.18081e-08
2.47782e-08
8.327e-08
-2.08279e-08
-7.56002e-08
1.97205e-08
7.67076e-08
-1.70094e-08
-7.02988e-08
1.63553e-08
7.09529e-08
-1.4807e-08
-6.20951e-08
1.42723e-08
6.26297e-08
1.2185e-09
8.23172e-08
-8.0647e-08
-2.8886e-09
5.8874e-09
-6.83678e-08
-7.04919e-09
6.95296e-08
1.07177e-08
-7.82811e-08
-1.21044e-08
7.96678e-08
1.69663e-08
-9.011e-08
-1.87403e-08
9.1884e-08
2.48535e-08
-8.46994e-08
-2.70204e-08
8.68663e-08
3.25396e-08
-3.18054e-08
-3.35661e-08
3.2832e-08
3.4512e-08
3.63342e-08
-3.43211e-08
-3.65251e-08
3.22766e-08
1.08539e-07
-3.08921e-08
-1.09923e-07
2.37933e-08
1.87703e-07
-2.03501e-08
-1.91146e-07
7.21724e-09
2.4028e-07
-2.56639e-09
-2.44931e-07
-1.30674e-08
2.66993e-07
1.88554e-08
-2.72781e-07
-3.76198e-08
2.60395e-07
4.37746e-08
-2.6655e-07
-6.13749e-08
2.18793e-07
6.6289e-08
-2.23707e-07
-7.92283e-08
1.66309e-07
8.13206e-08
-1.68401e-07
-9.45304e-08
1.55859e-07
1.00504e-07
-1.61833e-07
-1.19136e-07
6.42584e-08
1.18603e-07
-6.37258e-08
-1.263e-07
-1.84409e-10
1.262e-07
2.83775e-10
-1.25711e-07
-5.20141e-08
1.25332e-07
5.23938e-08
-1.21122e-07
-9.76693e-08
1.18837e-07
9.99547e-08
-1.07995e-07
-1.27815e-07
1.03854e-07
1.31955e-07
-9.12235e-08
-1.36153e-07
8.71645e-08
1.40212e-07
-7.52694e-08
-1.32912e-07
7.1652e-08
1.3653e-07
-6.17428e-08
-1.2396e-07
5.88596e-08
1.26843e-07
-5.09271e-08
-1.14049e-07
4.85592e-08
1.16417e-07
-4.1859e-08
-1.04669e-07
3.98204e-08
1.06707e-07
-3.40373e-08
-9.58084e-08
3.22907e-08
9.7555e-08
-2.74343e-08
-8.75572e-08
2.60117e-08
8.89797e-08
-2.22368e-08
-7.98398e-08
2.12039e-08
8.08727e-08
-1.87472e-08
-7.26501e-08
1.81811e-08
7.32161e-08
-1.70569e-08
-6.36902e-08
1.67859e-08
6.39612e-08
1.21682e-09
8.91913e-08
-8.74416e-08
-2.96645e-09
5.82429e-09
-7.29858e-08
-6.96611e-09
7.41276e-08
1.05709e-08
-8.38141e-08
-1.19482e-08
8.51914e-08
1.68299e-08
-9.72321e-08
-1.86205e-08
9.90228e-08
2.49485e-08
-9.36023e-08
-2.72766e-08
9.59303e-08
3.33205e-08
-3.60308e-08
-3.44261e-08
3.71364e-08
3.55119e-08
3.69619e-08
-3.54122e-08
-3.70616e-08
3.38622e-08
1.13846e-07
-3.26357e-08
-1.15073e-07
2.59167e-08
2.01509e-07
-2.24511e-08
-2.04975e-07
8.86996e-09
2.58895e-07
-4.22097e-09
-2.63544e-07
-1.14963e-08
2.90496e-07
1.75269e-08
-2.96526e-07
-3.73881e-08
2.85598e-07
4.39417e-08
-2.92152e-07
-6.27811e-08
2.38828e-07
6.7968e-08
-2.44015e-07
-8.08996e-08
1.73098e-07
8.18149e-08
-1.74013e-07
-9.5903e-08
1.75887e-07
1.00731e-07
-1.80715e-07
-1.23977e-07
5.79784e-08
1.22483e-07
-5.64841e-08
-1.37586e-07
-3.57061e-09
1.34574e-07
6.58275e-09
-1.32406e-07
-5.1332e-08
1.34222e-07
4.95152e-08
-1.31806e-07
-1.06856e-07
1.2934e-07
1.09322e-07
-1.15297e-07
-1.45713e-07
1.10181e-07
1.5083e-07
-9.57108e-08
-1.53186e-07
9.11026e-08
1.57795e-07
-7.73669e-08
-1.48066e-07
7.32499e-08
1.52183e-07
-6.25517e-08
-1.35608e-07
5.96132e-08
1.38547e-07
-5.17594e-08
-1.23484e-07
4.94331e-08
1.2581e-07
-4.27865e-08
-1.12837e-07
4.07362e-08
1.14887e-07
-3.48452e-08
-1.02853e-07
3.30453e-08
1.04653e-07
-2.79762e-08
-9.33436e-08
2.64655e-08
9.48544e-08
-2.23452e-08
-8.4131e-08
2.11662e-08
8.531e-08
-1.81225e-08
-7.51881e-08
1.73194e-08
7.59911e-08
-1.56105e-08
-6.46887e-08
1.5376e-08
6.49233e-08
1.21549e-09
9.6428e-08
-9.45806e-08
-3.06293e-09
5.75568e-09
-7.75192e-08
-6.87458e-09
7.86381e-08
1.04081e-08
-8.93071e-08
-1.17747e-08
9.06737e-08
1.66744e-08
-1.04413e-07
-1.84767e-08
1.06216e-07
2.50198e-08
-1.0318e-07
-2.75302e-08
1.0569e-07
3.41802e-08
-4.0567e-08
-3.53607e-08
4.17474e-08
3.65481e-08
3.72216e-08
-3.65415e-08
-3.72282e-08
3.55613e-08
1.18491e-07
-3.45131e-08
-1.19539e-07
2.82883e-08
2.15404e-07
-2.48005e-08
-2.18892e-07
1.05617e-08
2.77414e-07
-5.98268e-09
-2.81993e-07
-9.63616e-09
3.15045e-07
1.59707e-08
-3.2138e-07
-3.70944e-08
3.12454e-07
4.40826e-08
-3.19442e-07
-6.44306e-08
2.60051e-07
6.9905e-08
-2.65525e-07
-8.19056e-08
1.76352e-07
8.30329e-08
-1.77479e-07
-9.8912e-08
2.01176e-07
1.06545e-07
-2.08809e-07
-1.32213e-07
6.2252e-08
1.37157e-07
-6.71955e-08
-1.39097e-07
-1.97516e-08
1.36237e-07
2.26111e-08
-1.46735e-07
-3.73031e-08
1.52797e-07
3.1241e-08
-1.46954e-07
-1.18876e-07
1.42577e-07
1.23253e-07
-1.2267e-07
-1.68088e-07
1.16267e-07
1.7449e-07
-1.00758e-07
-1.72494e-07
9.55435e-08
1.77709e-07
-7.86791e-08
-1.65651e-07
7.37236e-08
1.70606e-07
-6.22576e-08
-1.47236e-07
5.94785e-08
1.50015e-07
-5.23042e-08
-1.32603e-07
5.01368e-08
1.34771e-07
-4.36667e-08
-1.21069e-07
4.15908e-08
1.23144e-07
-3.54563e-08
-1.10214e-07
3.3538e-08
1.12132e-07
-2.80052e-08
-9.96321e-08
2.6312e-08
1.01325e-07
-2.15246e-08
-8.92349e-08
2.00783e-08
9.06813e-08
-1.59753e-08
-7.90758e-08
1.47135e-08
8.03376e-08
-1.10435e-08
-6.68445e-08
9.79258e-09
6.80955e-08
1.21362e-09
1.04108e-07
-1.02142e-07
-3.18054e-09
5.68138e-09
-8.19565e-08
-6.77415e-09
8.30493e-08
1.0228e-08
-9.47559e-08
-1.15829e-08
9.61107e-08
1.64995e-08
-1.11632e-07
-1.83066e-08
1.13439e-07
2.50583e-08
-1.13523e-07
-2.7775e-08
1.16239e-07
3.51309e-08
-4.53918e-08
-3.63778e-08
4.66388e-08
3.76083e-08
3.7107e-08
-3.76959e-08
-3.70195e-08
3.73731e-08
1.22394e-07
-3.65216e-08
-1.23245e-07
3.09501e-08
2.2938e-07
-2.74494e-08
-2.32881e-07
1.21975e-08
2.9548e-07
-7.82199e-09
-2.99856e-07
-7.40994e-09
3.40977e-07
1.41794e-08
-3.47746e-07
-3.67379e-08
3.41068e-07
4.41607e-08
-3.4849e-07
-6.64067e-08
2.81953e-07
7.1757e-08
-2.87304e-07
-8.64194e-08
1.76315e-07
8.16276e-08
-1.71523e-07
-9.36935e-08
2.30005e-07
1.03472e-07
-2.39783e-07
-1.56154e-07
8.27906e-08
1.59129e-07
-8.57664e-08
-1.32633e-07
-1.50853e-08
1.40461e-07
7.25806e-09
-1.64983e-07
-1.35534e-08
1.68308e-07
1.0228e-08
-1.5472e-07
-1.40995e-07
1.47218e-07
1.48498e-07
-1.28118e-07
-1.94708e-07
1.21588e-07
2.01238e-07
-1.08057e-07
-1.94033e-07
1.02628e-07
1.99462e-07
-7.92793e-08
-1.87946e-07
7.23173e-08
1.94908e-07
-6.00271e-08
-1.57237e-07
5.80376e-08
1.59227e-07
-5.29305e-08
-1.4083e-07
5.10977e-08
1.42662e-07
-4.4855e-08
-1.2946e-07
4.2698e-08
1.31617e-07
-3.6096e-08
-1.18148e-07
3.39837e-08
1.2026e-07
-2.78228e-08
-1.06733e-07
2.59082e-08
1.08648e-07
-2.03519e-08
-9.54388e-08
1.86265e-08
9.71641e-08
-1.36626e-08
-8.45679e-08
1.2158e-08
8.60725e-08
-8.11042e-09
-7.20775e-08
6.88073e-09
7.33072e-08
1.21112e-09
1.12335e-07
-1.10221e-07
-3.3253e-09
5.60245e-09
-8.6285e-08
-6.66595e-09
8.73485e-08
1.00315e-08
-1.00158e-07
-1.13745e-08
1.01501e-07
1.63096e-08
-1.18858e-07
-1.81126e-08
1.20661e-07
2.50584e-08
-1.24732e-07
-2.80095e-08
1.27683e-07
3.6197e-08
-5.04646e-08
-3.7497e-08
5.17645e-08
3.86851e-08
3.66141e-08
-3.88682e-08
-3.6431e-08
3.9305e-08
1.25488e-07
-3.86636e-08
-1.26129e-07
3.39681e-08
2.43373e-07
-3.04838e-08
-2.46858e-07
1.36164e-08
3.12411e-07
-9.69081e-09
-3.16336e-07
-4.70843e-09
3.69011e-07
1.2197e-08
-3.76499e-07
-3.63281e-08
3.71326e-07
4.40897e-08
-3.79088e-07
-6.86585e-08
3.02305e-07
7.30708e-08
-3.06717e-07
-9.75727e-08
1.36123e-07
7.82866e-08
-1.16837e-07
-9.35664e-08
3.03382e-07
1.27684e-07
-3.375e-07
-1.72479e-07
8.14934e-08
1.689e-07
-7.79145e-08
-1.53487e-07
2.0947e-08
1.60338e-07
-2.77974e-08
-1.90302e-07
-1.1627e-08
1.86718e-07
1.52117e-08
-1.66956e-07
-1.75623e-07
1.56087e-07
1.86492e-07
-1.41806e-07
-2.17518e-07
1.38455e-07
2.20869e-07
-1.23683e-07
-2.15657e-07
1.1772e-07
2.21619e-07
-8.99676e-08
-2.19796e-07
8.05292e-08
2.29235e-07
-6.25401e-08
-1.65219e-07
5.99666e-08
1.67792e-07
-5.53414e-08
-1.47773e-07
5.36688e-08
1.49446e-07
-4.70023e-08
-1.3839e-07
4.45656e-08
1.40827e-07
-3.7096e-08
-1.26989e-07
3.47069e-08
1.29378e-07
-2.76634e-08
-1.14833e-07
2.54626e-08
1.17033e-07
-1.91142e-08
-1.02702e-07
1.71459e-08
1.0467e-07
-1.14242e-08
-9.09147e-08
9.65438e-09
9.26845e-08
-4.55936e-09
-7.76125e-08
2.82212e-09
7.93498e-08
1.20712e-09
1.21235e-07
-1.18939e-07
-3.50329e-09
5.51777e-09
-9.04911e-08
-6.54855e-09
9.15219e-08
9.81502e-09
-1.05513e-07
-1.1147e-08
1.06845e-07
1.61039e-08
-1.26051e-07
-1.78907e-08
1.27837e-07
2.50028e-08
-1.36925e-07
-2.82198e-08
1.40142e-07
3.73956e-08
-5.57211e-08
-3.87284e-08
5.70539e-08
3.97513e-08
3.57345e-08
-4.00339e-08
-3.54519e-08
4.13505e-08
1.27731e-07
-4.09227e-08
-1.28159e-07
3.74194e-08
2.57209e-07
-3.40258e-08
-2.60602e-07
1.45437e-08
3.26946e-07
-1.15186e-08
-3.29972e-07
-1.41849e-09
4.00648e-07
1.01633e-08
-4.09393e-07
-3.5869e-08
4.02503e-07
4.35718e-08
-4.10206e-07
-7.06697e-08
3.1712e-07
7.30106e-08
-3.19461e-07
-1.19442e-07
4.809e-08
9.9753e-08
-2.84009e-08
-1.28835e-07
4.6182e-07
1.69482e-07
-5.02467e-07
-1.68774e-07
5.88669e-08
1.5692e-07
-4.70125e-08
-1.98917e-07
5.13509e-08
2.15825e-07
-6.82594e-08
-2.33423e-07
-4.26806e-08
2.17051e-07
5.90522e-08
-1.83435e-07
-2.19899e-07