/*--------------------------------*- C++ -*----------------------------------*\
| =========                 |                                                 |
| \\      /  F ield         | OpenFOAM: The Open Source CFD Toolbox           |
|  \\    /   O peration     | Version:  2.4.0                                 |
|   \\  /    A nd           | Web:      www.OpenFOAM.org                      |
|    \\/     M anipulation  |                                                 |
\*---------------------------------------------------------------------------*/
FoamFile
{
    version     2.0;
    format      ascii;
    class       volVectorField;
    location    "0.329";
    object      U;
}
// * * * * * * * * * * * * * * * * * * * * * * * * * * * * * * * * * * * * * //

dimensions      [0 1 -1 0 0 0 0];

internalField   nonuniform List<vector> 
60000
(
(0.000808589 -0.000334166 0)
(0.0029885 -0.000371498 0)
(0.00530279 -0.000354697 0)
(0.00752223 -0.000346249 0)
(0.00970372 -0.000344208 0)
(0.0118772 -0.000342405 0)
(0.0140439 -0.000339731 0)
(0.0162 -0.000336489 0)
(0.0183429 -0.000332751 0)
(0.0204703 -0.000328444 0)
(0.0225795 -0.000323508 0)
(0.0246673 -0.000317878 0)
(0.0267303 -0.000311511 0)
(0.0287649 -0.000304391 0)
(0.0307672 -0.000296515 0)
(0.0327335 -0.000287921 0)
(0.0346601 -0.000278682 0)
(0.0365437 -0.000268895 0)
(0.0383812 -0.000258687 0)
(0.0401702 -0.000248192 0)
(0.041909 -0.000237537 0)
(0.043596 -0.000226828 0)
(0.0452305 -0.000216171 0)
(0.0468118 -0.000205636 0)
(0.0483397 -0.000195255 0)
(0.0498141 -0.000185032 0)
(0.0512347 -0.000174944 0)
(0.052601 -0.000164942 0)
(0.0539126 -0.000154955 0)
(0.0551683 -0.000144897 0)
(0.0563667 -0.000134677 0)
(0.0575059 -0.000124195 0)
(0.0585836 -0.000113346 0)
(0.0595969 -0.000102037 0)
(0.0605423 -9.02009e-05 0)
(0.0614164 -7.7807e-05 0)
(0.0622152 -6.48588e-05 0)
(0.0629348 -5.13963e-05 0)
(0.0635716 -3.74899e-05 0)
(0.0641224 -2.32443e-05 0)
(0.0645845 -8.79582e-06 0)
(0.0649558 5.70055e-06 0)
(0.0652355 2.01477e-05 0)
(0.0654231 3.44193e-05 0)
(0.0655209 4.96565e-05 0)
(0.0655223 6.54006e-05 0)
(0.0654282 7.93046e-05 0)
(0.0652481 9.07803e-05 0)
(0.0649905 0.000100101 0)
(0.0646618 0.000108524 0)
(0.0642664 0.000116406 0)
(0.0638077 0.00012401 0)
(0.0632892 0.000131528 0)
(0.0627134 0.000139198 0)
(0.0620821 0.000147244 0)
(0.0613955 0.000155917 0)
(0.0606527 0.000165452 0)
(0.0598521 0.000176015 0)
(0.0589912 0.000187672 0)
(0.0580675 0.000200382 0)
(0.0570787 0.000214009 0)
(0.0560232 0.000228342 0)
(0.0549005 0.000243131 0)
(0.0537108 0.00025813 0)
(0.0524554 0.000273127 0)
(0.0511365 0.00028799 0)
(0.0497563 0.000302693 0)
(0.0483168 0.000317281 0)
(0.0468196 0.000331866 0)
(0.0452653 0.000346562 0)
(0.043654 0.000361462 0)
(0.0419849 0.000376581 0)
(0.0402567 0.000391821 0)
(0.0384684 0.000406979 0)
(0.036619 0.000421735 0)
(0.0347083 0.000435725 0)
(0.0327367 0.000448517 0)
(0.0307052 0.000459691 0)
(0.0286155 0.000468888 0)
(0.0264697 0.000475808 0)
(0.0242702 0.000480173 0)
(0.0220203 0.000481757 0)
(0.0197237 0.000480398 0)
(0.0173852 0.000476028 0)
(0.0150106 0.00046867 0)
(0.0126066 0.000458443 0)
(0.010181 0.000445545 0)
(0.00774229 0.00043024 0)
(0.00529982 0.00041282 0)
(0.00286326 0.000393522 0)
(0.00043991 0.000372111 0)
(-0.00195942 0.000351421 0)
(-0.00432232 0.000330155 0)
(-0.00664571 0.000306207 0)
(-0.00892152 0.000284694 0)
(-0.0111419 0.000260719 0)
(-0.0133052 0.000236934 0)
(-0.0154047 0.000213248 0)
(-0.017434 0.000189568 0)
(-0.0194031 0.000165605 0)
(0.00123848 -0.00158224 0)
(0.0046512 -0.0020248 0)
(0.00813757 -0.00195997 0)
(0.0114742 -0.00190675 0)
(0.0147537 -0.00189255 0)
(0.0180253 -0.00188687 0)
(0.0212939 -0.00187947 0)
(0.024556 -0.00186983 0)
(0.0278089 -0.00185833 0)
(0.0310503 -0.0018448 0)
(0.0342776 -0.00182898 0)
(0.0374875 -0.00181056 0)
(0.0406761 -0.0017893 0)
(0.0438392 -0.00176503 0)
(0.0469724 -0.00173766 0)
(0.0500709 -0.00170723 0)
(0.0531299 -0.00167387 0)
(0.0561451 -0.00163787 0)
(0.0591124 -0.00159959 0)
(0.062028 -0.00155945 0)
(0.0648889 -0.00151784 0)
(0.0676926 -0.00147516 0)
(0.070437 -0.00143173 0)
(0.0731206 -0.00138782 0)
(0.0757419 -0.00134354 0)
(0.0782998 -0.00129893 0)
(0.080793 -0.0012539 0)
(0.0832201 -0.00120828 0)
(0.0855794 -0.00116182 0)
(0.0878686 -0.00111419 0)
(0.0900851 -0.00106504 0)
(0.0922256 -0.00101398 0)
(0.0942862 -0.000960607 0)
(0.0962625 -0.000904517 0)
(0.0981493 -0.000845367 0)
(0.0999409 -0.000782908 0)
(0.101631 -0.00071703 0)
(0.103214 -0.000647786 0)
(0.104682 -0.000575391 0)
(0.106031 -0.000500221 0)
(0.107254 -0.000422807 0)
(0.108347 -0.000343822 0)
(0.109307 -0.000263963 0)
(0.110132 -0.000184049 0)
(0.110821 -0.000103964 0)
(0.111379 -2.43573e-05 0)
(0.111812 5.18452e-05 0)
(0.112124 0.000123518 0)
(0.112306 0.000191769 0)
(0.112364 0.000256308 0)
(0.112305 0.000316632 0)
(0.112136 0.000373009 0)
(0.111864 0.000425952 0)
(0.111495 0.000476465 0)
(0.111033 0.00052554 0)
(0.110483 0.000574153 0)
(0.109846 0.000623188 0)
(0.109125 0.000673302 0)
(0.108319 0.000724841 0)
(0.107429 0.00077779 0)
(0.106456 0.000831777 0)
(0.105399 0.000886155 0)
(0.104262 0.000940122 0)
(0.103048 0.000992888 0)
(0.101761 0.00104382 0)
(0.100407 0.00109257 0)
(0.0989913 0.00113913 0)
(0.097519 0.00118386 0)
(0.0959943 0.0012274 0)
(0.0944203 0.00127052 0)
(0.0927982 0.00131398 0)
(0.0911281 0.0013584 0)
(0.0894086 0.00140416 0)
(0.0876373 0.00145139 0)
(0.085811 0.00149997 0)
(0.0839254 0.0015497 0)
(0.0819758 0.00160032 0)
(0.0799562 0.00165158 0)
(0.0778596 0.0017033 0)
(0.0756777 0.00175534 0)
(0.0734014 0.00180742 0)
(0.071021 0.00185904 0)
(0.0685271 0.00190947 0)
(0.0659109 0.00195772 0)
(0.0631651 0.00200265 0)
(0.0602848 0.00204302 0)
(0.0572671 0.00207762 0)
(0.054112 0.00210534 0)
(0.0508223 0.00212527 0)
(0.0474033 0.00213667 0)
(0.0438621 0.00213869 0)
(0.0402092 0.00213473 0)
(0.0364563 0.00212273 0)
(0.0326158 0.00210094 0)
(0.0286966 0.00207488 0)
(0.0247157 0.00204167 0)
(0.0206826 0.00200285 0)
(0.0166063 0.00196033 0)
(0.0125046 0.00191433 0)
(0.00836178 0.00187206 0)
(0.00131119 -0.00310502 0)
(0.00481995 -0.00386615 0)
(0.00833074 -0.00370471 0)
(0.0116873 -0.0036002 0)
(0.0149928 -0.00357567 0)
(0.0182957 -0.00356919 0)
(0.0216014 -0.00356109 0)
(0.0249073 -0.00354979 0)
(0.0282121 -0.00353571 0)
(0.0315141 -0.0035186 0)
(0.0348114 -0.00349786 0)
(0.0381011 -0.00347291 0)
(0.0413797 -0.00344325 0)
(0.0446435 -0.00340849 0)
(0.047888 -0.0033684 0)
(0.0511087 -0.00332293 0)
(0.0543009 -0.00327228 0)
(0.0574601 -0.00321682 0)
(0.0605821 -0.00315713 0)
(0.0636632 -0.00309386 0)
(0.0667003 -0.00302766 0)
(0.0696907 -0.00295919 0)
(0.0726323 -0.00288902 0)
(0.0755236 -0.00281757 0)
(0.0783631 -0.00274506 0)
(0.0811498 -0.00267154 0)
(0.0838823 -0.00259689 0)
(0.0865593 -0.0025208 0)
(0.0891791 -0.00244284 0)
(0.0917397 -0.00236246 0)
(0.0942386 -0.00227904 0)
(0.0966725 -0.00219187 0)
(0.0990376 -0.00210025 0)
(0.10133 -0.00200346 0)
(0.103543 -0.00190083 0)
(0.105673 -0.00179186 0)
(0.107713 -0.00167621 0)
(0.109656 -0.00155384 0)
(0.111495 -0.001425 0)
(0.113225 -0.00129025 0)
(0.114839 -0.00115048 0)
(0.116332 -0.00100681 0)
(0.1177 -0.000860633 0)
(0.118939 -0.000713363 0)
(0.12005 -0.000566653 0)
(0.121031 -0.000422441 0)
(0.121885 -0.000282821 0)
(0.122615 -0.000148768 0)
(0.12323 -1.95281e-05 0)
(0.123735 0.000104435 0)
(0.12413 0.000222477 0)
(0.124418 0.000334383 0)
(0.124604 0.000439994 0)
(0.124692 0.000540349 0)
(0.124686 0.000636855 0)
(0.124589 0.000731031 0)
(0.124405 0.000824328 0)
(0.124133 0.000917898 0)
(0.123774 0.00101239 0)
(0.123329 0.00110782 0)
(0.122798 0.00120361 0)
(0.122181 0.00129861 0)
(0.121482 0.00139141 0)
(0.120703 0.00148056 0)
(0.119851 0.00156488 0)
(0.118932 0.00164373 0)
(0.117953 0.00171711 0)
(0.11692 0.00178571 0)
(0.11584 0.00185075 0)
(0.114718 0.00191372 0)
(0.113558 0.00197618 0)
(0.112361 0.00203949 0)
(0.11113 0.00210465 0)
(0.109864 0.00217229 0)
(0.108564 0.00224275 0)
(0.107229 0.00231626 0)
(0.105856 0.00239314 0)
(0.104444 0.00247395 0)
(0.102987 0.00255944 0)
(0.101478 0.00265043 0)
(0.0999102 0.00274753 0)
(0.0982709 0.00285095 0)
(0.0965482 0.00296034 0)
(0.0947283 0.00307474 0)
(0.0927973 0.00319259 0)
(0.0907416 0.00331194 0)
(0.0885482 0.00343056 0)
(0.0862056 0.0035461 0)
(0.083704 0.0036562 0)
(0.0810353 0.00375867 0)
(0.0781933 0.00385168 0)
(0.0751749 0.0039353 0)
(0.071979 0.00400729 0)
(0.0686064 0.00406667 0)
(0.0650589 0.00411461 0)
(0.0613419 0.00415049 0)
(0.0574619 0.00417482 0)
(0.0534236 0.00418922 0)
(0.0492434 0.00419384 0)
(0.0449068 0.0041946 0)
(0.00131167 -0.00459669 0)
(0.00469815 -0.00562873 0)
(0.00803807 -0.00536827 0)
(0.0112328 -0.00521883 0)
(0.0143871 -0.005188 0)
(0.0175445 -0.0051834 0)
(0.0207093 -0.00517748 0)
(0.0238798 -0.00516789 0)
(0.0270553 -0.005155 0)
(0.0302347 -0.00513829 0)
(0.0334164 -0.00511682 0)
(0.0365978 -0.00508962 0)
(0.0397756 -0.00505594 0)
(0.0429459 -0.00501508 0)
(0.0461045 -0.00496663 0)
(0.0492465 -0.00491046 0)
(0.0523672 -0.00484679 0)
(0.0554621 -0.00477612 0)
(0.0585269 -0.00469922 0)
(0.0615577 -0.00461701 0)
(0.0645515 -0.00453045 0)
(0.0675058 -0.00444048 0)
(0.0704186 -0.00434791 0)
(0.0732885 -0.00425338 0)
(0.0761143 -0.0041572 0)
(0.0788952 -0.00405947 0)
(0.08163 -0.00396003 0)
(0.0843179 -0.00385845 0)
(0.0869573 -0.00375413 0)
(0.0895464 -0.00364629 0)
(0.092083 -0.00353403 0)
(0.094564 -0.00341635 0)
(0.0969858 -0.0032922 0)
(0.0993443 -0.00316053 0)
(0.101634 -0.00302041 0)
(0.103851 -0.00287101 0)
(0.105987 -0.0027118 0)
(0.108038 -0.0025426 0)
(0.109996 -0.00236366 0)
(0.111854 -0.00217571 0)
(0.113608 -0.00197993 0)
(0.115252 -0.0017779 0)
(0.116781 -0.00157155 0)
(0.118194 -0.00136306 0)
(0.119487 -0.00115474 0)
(0.120662 -0.000948955 0)
(0.12172 -0.000748123 0)
(0.122663 -0.000554533 0)
(0.123493 -0.00036982 0)
(0.124215 -0.000193701 0)
(0.124836 -2.57862e-05 0)
(0.125364 0.000133937 0)
(0.1258 0.000286417 0)
(0.126148 0.00043232 0)
(0.126409 0.000573074 0)
(0.126587 0.000710632 0)
(0.126682 0.0008469 0)
(0.126692 0.000983439 0)
(0.126618 0.00112117 0)
(0.126458 0.00126014 0)
(0.126211 0.00139946 0)
(0.125876 0.00153741 0)
(0.125455 0.00167178 0)
(0.124951 0.00180027 0)
(0.12437 0.00192095 0)
(0.123717 0.00203267 0)
(0.123 0.0021352 0)
(0.122228 0.00222936 0)
(0.121407 0.00231674 0)
(0.120543 0.00239943 0)
(0.119641 0.00247958 0)
(0.118706 0.00255907 0)
(0.117742 0.00263927 0)
(0.11675 0.00272102 0)
(0.115734 0.00280479 0)
(0.114698 0.00289101 0)
(0.113643 0.00298038 0)
(0.112571 0.00307411 0)
(0.111482 0.00317392 0)
(0.110376 0.00328172 0)
(0.109246 0.00339934 0)
(0.108088 0.00352809 0)
(0.106891 0.00366856 0)
(0.105646 0.00382047 0)
(0.10434 0.00398275 0)
(0.102961 0.00415361 0)
(0.101497 0.00433083 0)
(0.0999335 0.00451187 0)
(0.0982587 0.00469408 0)
(0.0964599 0.00487487 0)
(0.0945247 0.00505194 0)
(0.0924419 0.0052238 0)
(0.090201 0.00538806 0)
(0.087792 0.00554299 0)
(0.0852062 0.00568787 0)
(0.0824365 0.00582154 0)
(0.0794785 0.00594319 0)
(0.0763271 0.00605286 0)
(0.0729895 0.00614968 0)
(0.0694442 0.00623453 0)
(0.00130806 -0.00605118 0)
(0.00460632 -0.00731753 0)
(0.00782738 -0.00695544 0)
(0.0109104 -0.00676505 0)
(0.0139609 -0.0067309 0)
(0.0170188 -0.0067302 0)
(0.0200872 -0.00672843 0)
(0.0231648 -0.00672275 0)
(0.0262512 -0.00671347 0)
(0.0293455 -0.00669971 0)
(0.0324462 -0.00668013 0)
(0.0355508 -0.00665339 0)
(0.038656 -0.00661836 0)
(0.0417576 -0.00657403 0)
(0.0448513 -0.00651977 0)
(0.0479319 -0.00645536 0)
(0.0509946 -0.00638105 0)
(0.0540344 -0.00629747 0)
(0.057047 -0.00620563 0)
(0.0600285 -0.00610675 0)
(0.0629758 -0.00600213 0)
(0.0658865 -0.00589303 0)
(0.0687588 -0.00578055 0)
(0.0715913 -0.00566551 0)
(0.0743833 -0.00554838 0)
(0.0771339 -0.00542929 0)
(0.0798425 -0.00530806 0)
(0.0825082 -0.00518412 0)
(0.0851298 -0.00505669 0)
(0.0877056 -0.00492476 0)
(0.0902334 -0.00478711 0)
(0.0927103 -0.00464243 0)
(0.0951327 -0.00448933 0)
(0.0974965 -0.00432644 0)
(0.0997966 -0.0041525 0)
(0.102028 -0.00396643 0)
(0.104183 -0.00376746 0)
(0.106257 -0.00355529 0)
(0.108243 -0.0033302 0)
(0.110135 -0.00309306 0)
(0.111926 -0.00284536 0)
(0.113612 -0.00258912 0)
(0.115188 -0.00232686 0)
(0.116653 -0.00206142 0)
(0.118003 -0.0017958 0)
(0.119241 -0.00153307 0)
(0.120367 -0.0012763 0)
(0.121383 -0.0010282 0)
(0.122292 -0.00079047 0)
(0.123098 -0.00056358 0)
(0.123807 -0.00034765 0)
(0.124424 -0.000142573 0)
(0.124954 5.31523e-05 0)
(0.1254 0.000240721 0)
(0.125766 0.00042217 0)
(0.126053 0.000600101 0)
(0.12626 0.000777026 0)
(0.126386 0.000954989 0)
(0.12643 0.00113519 0)
(0.126387 0.00131764 0)
(0.126256 0.0015011 0)
(0.126035 0.00168316 0)
(0.125726 0.00186067 0)
(0.12533 0.00203031 0)
(0.124854 0.00218924 0)
(0.124303 0.0023356 0)
(0.123685 0.00246887 0)
(0.123009 0.00258985 0)
(0.122283 0.00270051 0)
(0.121512 0.00280344 0)
(0.120703 0.00290138 0)
(0.119861 0.00299663 0)
(0.118988 0.00309075 0)
(0.11809 0.00318459 0)
(0.117171 0.00327851 0)
(0.116234 0.00337287 0)
(0.115285 0.00346854 0)
(0.114327 0.0035672 0)
(0.113364 0.00367138 0)
(0.112396 0.00378406 0)
(0.111422 0.00390828 0)
(0.110437 0.0040465 0)
(0.109435 0.00420028 0)
(0.108408 0.00437007 0)
(0.107348 0.00455524 0)
(0.106245 0.00475434 0)
(0.10509 0.00496527 0)
(0.103873 0.00518562 0)
(0.102586 0.00541286 0)
(0.101218 0.00564455 0)
(0.0997603 0.00587852 0)
(0.0982024 0.00611305 0)
(0.0965342 0.00634615 0)
(0.094745 0.0065761 0)
(0.0928236 0.0068017 0)
(0.0907588 0.00702143 0)
(0.0885408 0.00723367 0)
(0.0861582 0.00743689 0)
(0.0836111 0.00762893 0)
(0.0808712 0.00780534 0)
(0.00130863 -0.00749018 0)
(0.00456794 -0.00897067 0)
(0.00773225 -0.00850507 0)
(0.0107614 -0.008276 0)
(0.0137627 -0.00824049 0)
(0.0167742 -0.00824509 0)
(0.0197983 -0.00824871 0)
(0.0228336 -0.0082482 0)
(0.0258798 -0.00824389 0)
(0.0289363 -0.0082345 0)
(0.0320015 -0.00821826 0)
(0.035073 -0.00819342 0)
(0.0381472 -0.00815838 0)
(0.04122 -0.00811183 0)
(0.0442866 -0.00805289 0)
(0.0473417 -0.00798125 0)
(0.05038 -0.00789715 0)
(0.0533964 -0.00780142 0)
(0.0563864 -0.00769532 0)
(0.0593459 -0.00758044 0)
(0.0622719 -0.00745843 0)
(0.065162 -0.00733095 0)
(0.0680145 -0.00719937 0)
(0.0708284 -0.00706473 0)
(0.0736031 -0.00692767 0)
(0.0763379 -0.00678837 0)
(0.0790325 -0.00664657 0)
(0.0816862 -0.0065016 0)
(0.0842978 -0.00635245 0)
(0.0868659 -0.00619785 0)
(0.0893882 -0.00603627 0)
(0.0918619 -0.00586604 0)
(0.0942835 -0.00568541 0)
(0.0966485 -0.00549267 0)
(0.0989519 -0.00528622 0)
(0.101188 -0.00506469 0)
(0.10335 -0.0048271 0)
(0.105433 -0.00457305 0)
(0.107428 -0.00430282 0)
(0.10933 -0.00401745 0)
(0.111132 -0.00371876 0)
(0.112829 -0.00340927 0)
(0.114418 -0.0030921 0)
(0.115896 -0.00277079 0)
(0.11726 -0.00244907 0)
(0.118513 -0.00213069 0)
(0.119655 -0.00181924 0)
(0.12069 -0.00151778 0)
(0.121619 -0.00122844 0)
(0.122449 -0.000952296 0)
(0.123184 -0.000689684 0)
(0.123828 -0.000440134 0)
(0.124388 -0.000202717 0)
(0.124867 2.4862e-05 0)
(0.125267 0.000245502 0)
(0.12559 0.000462428 0)
(0.125836 0.000678875 0)
(0.126003 0.000897524 0)
(0.126087 0.00111995 0)
(0.126084 0.00134618 0)
(0.125992 0.00157456 0)
(0.125809 0.00180187 0)
(0.125534 0.0020239 0)
(0.125171 0.00223615 0)
(0.124724 0.00243467 0)
(0.1242 0.0026168 0)
(0.123609 0.00278164 0)
(0.122958 0.00293006 0)
(0.122257 0.00306444 0)
(0.121512 0.00318799 0)
(0.120728 0.00330403 0)
(0.119911 0.0034153 0)
(0.119063 0.00352356 0)
(0.11819 0.00362954 0)
(0.117294 0.00373332 0)
(0.116382 0.00383501 0)
(0.115458 0.0039355 0)
(0.114528 0.00403686 0)
(0.113596 0.00414244 0)
(0.112663 0.00425643 0)
(0.111727 0.00438311 0)
(0.110786 0.00452609 0)
(0.109833 0.00468782 0)
(0.10886 0.00486932 0)
(0.107861 0.00507027 0)
(0.106826 0.00528921 0)
(0.105748 0.00552401 0)
(0.104618 0.00577211 0)
(0.103432 0.00603093 0)
(0.10218 0.006298 0)
(0.100858 0.0065712 0)
(0.0994584 0.00684889 0)
(0.0979748 0.00712954 0)
(0.0964 0.00741189 0)
(0.0947258 0.00769495 0)
(0.0929435 0.00797746 0)
(0.0910446 0.00825775 0)
(0.0890184 0.00853356 0)
(0.0868634 0.00880183 0)
(0.0845511 0.00905522 0)
(0.00131151 -0.00892648 0)
(0.00455722 -0.0106095 0)
(0.00769768 -0.0100389 0)
(0.0107037 -0.0097723 0)
(0.0136845 -0.00973664 0)
(0.0166773 -0.00974745 0)
(0.0196843 -0.00975722 0)
(0.0227038 -0.00976267 0)
(0.0257357 -0.00976411 0)
(0.0287795 -0.00975994 0)
(0.0318337 -0.00974792 0)
(0.0348956 -0.00972579 0)
(0.0379619 -0.00969151 0)
(0.0410279 -0.00964339 0)
(0.0440888 -0.00958027 0)
(0.0471387 -0.00950172 0)
(0.0501722 -0.00940803 0)
(0.0531839 -0.00930023 0)
(0.0561689 -0.00917989 0)
(0.0591231 -0.00904899 0)
(0.0620435 -0.0089096 0)
(0.0649277 -0.00876378 0)
(0.0677743 -0.00861325 0)
(0.0705824 -0.00845929 0)
(0.0733516 -0.00830268 0)
(0.0760817 -0.00814366 0)
(0.0787724 -0.0079819 0)
(0.0814232 -0.00781658 0)
(0.0840334 -0.00764648 0)
(0.0866013 -0.00747001 0)
(0.089125 -0.00728532 0)
(0.0916016 -0.00709035 0)
(0.0940275 -0.00688298 0)
(0.0963983 -0.0066611 0)
(0.0987086 -0.00642275 0)
(0.100953 -0.00616626 0)
(0.103124 -0.00589042 0)
(0.105215 -0.00559469 0)
(0.107219 -0.00527938 0)
(0.109129 -0.00494569 0)
(0.110939 -0.00459581 0)
(0.112643 -0.00423278 0)
(0.114238 -0.0038604 0)
(0.11572 -0.00348294 0)
(0.117088 -0.00310491 0)
(0.118342 -0.00273077 0)
(0.119486 -0.00236468 0)
(0.120521 -0.0020102 0)
(0.121452 -0.00166993 0)
(0.122283 -0.00134538 0)
(0.12302 -0.00103704 0)
(0.123669 -0.000744402 0)
(0.124234 -0.000466065 0)
(0.124721 -0.000199228 0)
(0.125131 5.96804e-05 0)
(0.125466 0.000314693 0)
(0.125725 0.000569962 0)
(0.125907 0.000828938 0)
(0.126005 0.00109365 0)
(0.126017 0.0013642 0)
(0.125938 0.00163846 0)
(0.125765 0.00191227 0)
(0.125498 0.00218015 0)
(0.125139 0.0024362 0)
(0.124694 0.00267523 0)
(0.124172 0.0028937 0)
(0.123581 0.00309029 0)
(0.122931 0.00326601 0)
(0.122231 0.00342374 0)
(0.121489 0.00356747 0)
(0.12071 0.00370133 0)
(0.119897 0.00382858 0)
(0.119054 0.00395116 0)
(0.118185 0.00406959 0)
(0.117293 0.0041835 0)
(0.116385 0.00429257 0)
(0.115465 0.00439756 0)
(0.11454 0.00450095 0)
(0.113615 0.00460704 0)
(0.112691 0.0047213 0)
(0.111767 0.00484942 0)
(0.110839 0.0049963 0)
(0.1099 0.00516533 0)
(0.108941 0.0053581 0)
(0.107956 0.00557444 0)
(0.106934 0.00581282 0)
(0.105868 0.00607081 0)
(0.10475 0.00634559 0)
(0.103575 0.00663424 0)
(0.102335 0.00693406 0)
(0.101025 0.00724275 0)
(0.0996413 0.00755853 0)
(0.0981777 0.00788005 0)
(0.0966291 0.00820632 0)
(0.09499 0.0085366 0)
(0.093254 0.00886993 0)
(0.0914151 0.00920477 0)
(0.089465 0.00953865 0)
(0.0874036 0.00986801 0)
(0.0852051 0.0101849 0)
(0.00131514 -0.010364 0)
(0.00455646 -0.0122425 0)
(0.00768614 -0.011566 0)
(0.0106816 -0.0112626 0)
(0.0136538 -0.0112275 0)
(0.0166394 -0.0112452 0)
(0.0196402 -0.0112617 0)
(0.0226549 -0.0112738 0)
(0.0256833 -0.0112817 0)
(0.028725 -0.0112834 0)
(0.0317786 -0.0112763 0)
(0.0348415 -0.0112576 0)
(0.0379099 -0.0112247 0)
(0.0409793 -0.0111754 0)
(0.0440441 -0.0111084 0)
(0.0470984 -0.011023 0)
(0.0501361 -0.0109197 0)
(0.0531515 -0.0107996 0)
(0.0561395 -0.0106647 0)
(0.0590959 -0.0105174 0)
(0.0620176 -0.0103603 0)
(0.0649022 -0.0101959 0)
(0.0677487 -0.0100263 0)
(0.0705564 -0.00985297 0)
(0.0733251 -0.00967694 0)
(0.076055 -0.00949845 0)
(0.0787461 -0.0093171 0)
(0.0813981 -0.00913191 0)
(0.0840104 -0.0089414 0)
(0.0865817 -0.00874368 0)
(0.0891101 -0.00853652 0)
(0.0915927 -0.00831747 0)
(0.0940259 -0.00808399 0)
(0.0964052 -0.00783353 0)
(0.0987251 -0.00756375 0)
(0.10098 -0.00727263 0)
(0.103162 -0.0069587 0)
(0.105264 -0.00662126 0)
(0.107279 -0.00626059 0)
(0.109199 -0.0058781 0)
(0.111018 -0.00547634 0)
(0.112729 -0.00505895 0)
(0.114328 -0.00463044 0)
(0.115813 -0.00419589 0)
(0.117181 -0.00376064 0)
(0.118434 -0.00332993 0)
(0.119574 -0.00290858 0)
(0.120604 -0.0025007 0)
(0.12153 -0.00210939 0)
(0.122355 -0.00173655 0)
(0.123087 -0.00138283 0)
(0.123731 -0.00104766 0)
(0.124293 -0.000729195 0)
(0.124778 -0.000424137 0)
(0.125189 -0.000128083 0)
(0.125527 0.00016405 0)
(0.125792 0.000457318 0)
(0.12598 0.000756181 0)
(0.126086 0.00106325 0)
(0.126105 0.00137872 0)
(0.126031 0.00169994 0)
(0.12586 0.00202167 0)
(0.125591 0.00233689 0)
(0.125227 0.00263809 0)
(0.124775 0.00291861 0)
(0.124244 0.00317386 0)
(0.123644 0.0034021 0)
(0.122986 0.00360453 0)
(0.122279 0.00378479 0)
(0.121533 0.00394785 0)
(0.120751 0.00409883 0)
(0.119937 0.00424171 0)
(0.119093 0.00437861 0)
(0.118223 0.00450971 0)
(0.117329 0.004634 0)
(0.116419 0.00475045 0)
(0.115498 0.00485951 0)
(0.114574 0.0049641 0)
(0.113652 0.00506958 0)
(0.112733 0.00518294 0)
(0.111818 0.00531152 0)
(0.1109 0.0054617 0)
(0.109972 0.00563791 0)
(0.109026 0.00584227 0)
(0.108051 0.00607473 0)
(0.107038 0.00633355 0)
(0.105979 0.00661595 0)
(0.104866 0.00691871 0)
(0.103691 0.00723856 0)
(0.10245 0.00757245 0)
(0.101137 0.00791782 0)
(0.099746 0.00827274 0)
(0.0982729 0.00863586 0)
(0.0967123 0.00900631 0)
(0.0950588 0.00938347 0)
(0.0933064 0.00976655 0)
(0.0914497 0.010154 0)
(0.0894809 0.0105433 0)
(0.0874003 0.0109302 0)
(0.0851834 0.0113069 0)
(0.00131894 -0.0118037 0)
(0.00455815 -0.0138723 0)
(0.00768109 -0.0130894 0)
(0.0106705 -0.01275 0)
(0.0136383 -0.0127162 0)
(0.0166207 -0.0127413 0)
(0.0196194 -0.0127651 0)
(0.0226332 -0.0127844 0)
(0.0256622 -0.0127994 0)
(0.0287061 -0.0128078 0)
(0.0317634 -0.0128064 0)
(0.0348316 -0.0127918 0)
(0.0379069 -0.0127608 0)
(0.0409841 -0.0127108 0)
(0.0440574 -0.0126401 0)
(0.0471204 -0.012548 0)
(0.0501665 -0.0124347 0)
(0.0531895 -0.0123019 0)
(0.056184 -0.012152 0)
(0.0591456 -0.0119877 0)
(0.0620711 -0.0118124 0)
(0.0649586 -0.0116289 0)
(0.0678068 -0.0114399 0)
(0.0706157 -0.011247 0)
(0.0733855 -0.0110516 0)
(0.0761165 -0.0108538 0)
(0.0788091 -0.0106531 0)
(0.0814634 -0.0104485 0)
(0.0840791 -0.0102381 0)
(0.0866549 -0.0100198 0)
(0.0891891 -0.00979077 0)
(0.091679 -0.00954831 0)
(0.094121 -0.00928936 0)
(0.0965103 -0.00901093 0)
(0.0988416 -0.00871023 0)
(0.101108 -0.00838485 0)
(0.103303 -0.00803298 0)
(0.105419 -0.00765373 0)
(0.107446 -0.00724735 0)
(0.109378 -0.00681541 0)
(0.111207 -0.00636089 0)
(0.112925 -0.00588804 0)
(0.11453 -0.00540218 0)
(0.116016 -0.00490927 0)
(0.117384 -0.00441556 0)
(0.118634 -0.00392714 0)
(0.119769 -0.00344958 0)
(0.120791 -0.00298762 0)
(0.121708 -0.00254487 0)
(0.122524 -0.00212363 0)
(0.123246 -0.00172475 0)
(0.123882 -0.00134757 0)
(0.124437 -0.000989863 0)
(0.124917 -0.000647715 0)
(0.125326 -0.000315791 0)
(0.125665 1.21753e-05 0)
(0.125933 0.00034241 0)
(0.126126 0.00068061 0)
(0.126238 0.00103005 0)
(0.126262 0.0013911 0)
(0.126191 0.00176059 0)
(0.126019 0.00213198 0)
(0.125746 0.00249642 0)
(0.125374 0.00284441 0)
(0.12491 0.00316754 0)
(0.124365 0.00346003 0)
(0.123751 0.00371966 0)
(0.12308 0.00394796 0)
(0.122364 0.00414955 0)
(0.12161 0.00433076 0)
(0.120823 0.00449796 0)
(0.120006 0.00465596 0)
(0.11916 0.00480711 0)
(0.118286 0.00495113 0)
(0.117389 0.00508604 0)
(0.116474 0.00520977 0)
(0.115549 0.0053223 0)
(0.114624 0.00542692 0)
(0.113704 0.00553021 0)
(0.112791 0.00564099 0)
(0.111886 0.00576858 0)
(0.110981 0.00592105 0)
(0.110067 0.006104 0)
(0.109136 0.00632008 0)
(0.108175 0.00656924 0)
(0.107175 0.00684941 0)
(0.106126 0.00715733 0)
(0.105021 0.00748929 0)
(0.103853 0.00784163 0)
(0.102616 0.00821095 0)
(0.101304 0.00859441 0)
(0.0999129 0.00898998 0)
(0.0984368 0.00939634 0)
(0.0968708 0.00981278 0)
(0.0952087 0.0102389 0)
(0.093444 0.0106741 0)
(0.0915703 0.0111168 0)
(0.0895787 0.0115642 0)
(0.0874688 0.0120117 0)
(0.0852144 0.0124512 0)
(0.00132283 -0.0132455 0)
(0.00455979 -0.0154994 0)
(0.00767648 -0.01461 0)
(0.010661 -0.0142354 0)
(0.0136259 -0.0142034 0)
(0.0166063 -0.0142365 0)
(0.0196041 -0.0142683 0)
(0.0226184 -0.0142955 0)
(0.0256495 -0.0143184 0)
(0.0286972 -0.0143344 0)
(0.0317602 -0.0143395 0)
(0.0348359 -0.0143297 0)
(0.0379202 -0.0143013 0)
(0.0410078 -0.0142511 0)
(0.0440922 -0.014177 0)
(0.0471664 -0.0140779 0)
(0.0502232 -0.0139544 0)
(0.0532559 -0.0138084 0)
(0.0562587 -0.0136426 0)
(0.0592269 -0.0134607 0)
(0.0621574 -0.0132664 0)
(0.0650483 -0.0130633 0)
(0.0678989 -0.0128544 0)
(0.0707093 -0.0126418 0)
(0.0734803 -0.0124268 0)
(0.0762125 -0.0122098 0)
(0.0789069 -0.0119902 0)
(0.0815638 -0.0117666 0)
(0.0841831 -0.0115369 0)
(0.086764 -0.0112986 0)
(0.0893047 -0.0110485 0)
(0.0918027 -0.0107834 0)
(0.0942544 -0.0104997 0)
(0.0966551 -0.010194 0)
(0.0989992 -0.00986297 0)
(0.10128 -0.00950375 0)
(0.10349 -0.00911415 0)
(0.10562 -0.00869301 0)
(0.107662 -0.00824051 0)
(0.109607 -0.00775839 0)
(0.111446 -0.00725005 0)
(0.113174 -0.00672044 0)
(0.114784 -0.00617575 0)
(0.116272 -0.00562296 0)
(0.117639 -0.0050693 0)
(0.118885 -0.0045218 0)
(0.120013 -0.00398687 0)
(0.121026 -0.00346994 0)
(0.121932 -0.0029752 0)
(0.122737 -0.00250536 0)
(0.123447 -0.00206149 0)
(0.124072 -0.00164289 0)
(0.124618 -0.00124692 0)
(0.125092 -0.000868998 0)
(0.125497 -0.000502723 0)
(0.125836 -0.000140524 0)
(0.126107 0.000225418 0)
(0.126306 0.000602144 0)
(0.126425 0.000993944 0)
(0.126455 0.00140143 0)
(0.126387 0.00182076 0)
(0.126215 0.00224392 0)
(0.125935 0.00265986 0)
(0.125552 0.00305668 0)
(0.125074 0.00342383 0)
(0.124511 0.00375409 0)
(0.12388 0.00404477 0)
(0.123194 0.00429785 0)
(0.122465 0.00451927 0)
(0.121702 0.00471709 0)
(0.120909 0.00489931 0)
(0.120088 0.00507182 0)
(0.119238 0.00523723 0)
(0.11836 0.00539458 0)
(0.117457 0.00554057 0)
(0.116536 0.00567164 0)
(0.115606 0.00578691 0)
(0.114678 0.00589001 0)
(0.113759 0.00598903 0)
(0.112853 0.00609501 0)
(0.111959 0.00621965 0)
(0.111069 0.00637304 0)
(0.110173 0.00656203 0)
(0.109259 0.0067898 0)
(0.108315 0.00705616 0)
(0.107331 0.00735849 0)
(0.106296 0.00769289 0)
(0.105203 0.00805509 0)
(0.104045 0.00844092 0)
(0.102815 0.00884661 0)
(0.10151 0.00926902 0)
(0.100123 0.00970602 0)
(0.0986514 0.0101564 0)
(0.0970882 0.0106199 0)
(0.0954277 0.0110962 0)
(0.0936625 0.0115853 0)
(0.0917851 0.0120857 0)
(0.0897852 0.0125946 0)
(0.087661 0.0131067 0)
(0.0853836 0.0136134 0)
(0.00132687 -0.0146892 0)
(0.00456064 -0.0171235 0)
(0.00767032 -0.0161279 0)
(0.0106501 -0.0157192 0)
(0.0136122 -0.0156896 0)
(0.0165908 -0.0157311 0)
(0.019588 -0.0157714 0)
(0.0226031 -0.0158074 0)
(0.0256367 -0.0158391 0)
(0.028689 -0.0158636 0)
(0.0317588 -0.0158762 0)
(0.0348433 -0.0158723 0)
(0.0379383 -0.0158472 0)
(0.0410381 -0.0157973 0)
(0.0441356 -0.0157199 0)
(0.047223 -0.0156138 0)
(0.0502923 -0.0154797 0)
(0.0533363 -0.0153197 0)
(0.0563486 -0.0151373 0)
(0.0593244 -0.0149368 0)
(0.0622604 -0.0147227 0)
(0.065155 -0.0144992 0)
(0.068008 -0.0142698 0)
(0.0708199 -0.0140372 0)
(0.0735919 -0.0138027 0)
(0.0763252 -0.0135666 0)
(0.0790213 -0.0133283 0)
(0.0816807 -0.0130863 0)
(0.0843039 -0.0128379 0)
(0.0868901 -0.0125804 0)
(0.0894379 -0.01231 0)
(0.0919448 -0.0120231 0)
(0.0944073 -0.0117156 0)
(0.0968207 -0.0113834 0)
(0.0991791 -0.0110228 0)
(0.101475 -0.0106302 0)
(0.103702 -0.0102032 0)
(0.105849 -0.00974007 0)
(0.107907 -0.009241 0)
(0.109867 -0.00870786 0)
(0.11172 -0.00814449 0)
(0.113457 -0.00755661 0)
(0.115073 -0.00695139 0)
(0.116565 -0.00633692 0)
(0.11793 -0.00572158 0)
(0.119171 -0.00511342 0)
(0.12029 -0.00451977 0)
(0.121294 -0.00394684 0)
(0.122187 -0.00339944 0)
(0.122978 -0.00288074 0)
(0.123675 -0.00239207 0)
(0.124287 -0.0019327 0)
(0.124822 -0.00149963 0)
(0.125287 -0.0010875 0)
(0.125688 -0.000688724 0)
(0.126027 -0.000294143 0)
(0.126303 0.00010613 0)
(0.126509 0.000520103 0)
(0.126637 0.000954084 0)
(0.126675 0.00140904 0)
(0.126612 0.00188021 0)
(0.126439 0.00235775 0)
(0.126153 0.00282804 0)
(0.125756 0.00327619 0)
(0.12526 0.00368909 0)
(0.124677 0.00405781 0)
(0.124024 0.00437905 0)
(0.123319 0.00465553 0)
(0.122576 0.00489486 0)
(0.121803 0.0051073 0)
(0.121003 0.00530299 0)
(0.120178 0.00548932 0)
(0.119324 0.00566916 0)
(0.118441 0.00584064 0)
(0.117531 0.00599846 0)
(0.116602 0.00613705 0)
(0.115664 0.00625429 0)
(0.114731 0.00635402 0)
(0.113812 0.00644616 0)
(0.112913 0.00654453 0)
(0.112032 0.00666377 0)
(0.111159 0.00681635 0)
(0.110284 0.00701055 0)
(0.109391 0.00724997 0)
(0.108468 0.00753409 0)
(0.107502 0.0078595 0)
(0.106483 0.00822142 0)
(0.105404 0.00861487 0)
(0.104257 0.00903517 0)
(0.103038 0.00947805 0)
(0.101741 0.00994001 0)
(0.100362 0.0104189 0)
(0.0988967 0.0109136 0)
(0.0973404 0.0114242 0)
(0.0956866 0.0119513 0)
(0.0939274 0.012495 0)
(0.0920545 0.0130546 0)
(0.0900561 0.0136271 0)
(0.087929 0.014207 0)
(0.0856416 0.0147847 0)
(0.00133113 -0.0161346 0)
(0.00456052 -0.0187441 0)
(0.00766193 -0.0176427 0)
(0.0106365 -0.0172012 0)
(0.0135956 -0.0171747 0)
(0.0165722 -0.0172251 0)
(0.0195685 -0.0172746 0)
(0.0225843 -0.0173201 0)
(0.0256206 -0.0173617 0)
(0.0286779 -0.0173958 0)
(0.0317552 -0.0174171 0)
(0.0348497 -0.01742 0)
(0.037957 -0.0173993 0)
(0.0410708 -0.0173503 0)
(0.0441833 -0.0172699 0)
(0.0472858 -0.0171567 0)
(0.0503696 -0.0170113 0)
(0.0534265 -0.0168365 0)
(0.0564495 -0.0166365 0)
(0.0594335 -0.0164163 0)
(0.0623755 -0.0161813 0)
(0.0652741 -0.0159366 0)
(0.0681293 -0.0156862 0)
(0.0709423 -0.0154331 0)
(0.073715 -0.0151789 0)
(0.0764492 -0.014924 0)
(0.0791466 -0.0146675 0)
(0.0818086 -0.0144075 0)
(0.0844357 -0.0141413 0)
(0.0870277 -0.0138654 0)
(0.0895831 -0.0135757 0)
(0.0920998 -0.013268 0)
(0.0945743 -0.0129376 0)
(0.0970017 -0.01258 0)
(0.0993761 -0.0121905 0)
(0.10169 -0.0117653 0)
(0.103935 -0.0113011 0)
(0.106102 -0.010796 0)
(0.108179 -0.0102499 0)
(0.110156 -0.0096648 0)
(0.112023 -0.00904501 0)
(0.113772 -0.00839709 0)
(0.115395 -0.00772936 0)
(0.116889 -0.00705117 0)
(0.118253 -0.00637214 0)
(0.119488 -0.00570151 0)
(0.120598 -0.0050476 0)
(0.121589 -0.00441747 0)
(0.122468 -0.00381662 0)
(0.123243 -0.00324873 0)
(0.123924 -0.00271546 0)
(0.124521 -0.00221607 0)
(0.125044 -0.00174724 0)
(0.1255 -0.00130277 0)
(0.125897 -0.000873741 0)
(0.126236 -0.000449133 0)
(0.126517 -1.68999e-05 0)
(0.126733 0.00043323 0)
(0.126873 0.000909269 0)
(0.126921 0.00141282 0)
(0.126865 0.00193829 0)
(0.126692 0.00247354 0)
(0.126398 0.00300169 0)
(0.125986 0.00350433 0)
(0.125468 0.00396512 0)
(0.12486 0.00437304 0)
(0.124182 0.00472421 0)
(0.123455 0.00502229 0)
(0.122695 0.00527705 0)
(0.12191 0.00550166 0)
(0.121105 0.00570903 0)