/*--------------------------------*- C++ -*----------------------------------*\
| =========                 |                                                 |
| \\      /  F ield         | OpenFOAM: The Open Source CFD Toolbox           |
|  \\    /   O peration     | Version:  2.4.0                                 |
|   \\  /    A nd           | Web:      www.OpenFOAM.org                      |
|    \\/     M anipulation  |                                                 |
\*---------------------------------------------------------------------------*/
FoamFile
{
    version     2.0;
    format      ascii;
    class       volScalarField;
    location    "0.172";
    object      p;
}
// * * * * * * * * * * * * * * * * * * * * * * * * * * * * * * * * * * * * * //

dimensions      [1 -1 -2 0 0 0 0];

internalField   nonuniform List<scalar> 
60000
(
98.163
98.168
98.178
98.1931
98.2133
98.2388
98.2697
98.3059
98.3478
98.3955
98.4491
98.5089
98.5751
98.648
98.7279
98.8151
98.9099
99.0128
99.1241
99.2444
99.374
99.5135
99.6634
99.8244
99.997
100.182
100.38
100.592
100.819
101.061
101.32
101.597
101.892
102.207
102.543
102.902
103.285
103.693
104.128
104.592
105.086
105.613
106.175
106.773
107.411
108.091
108.815
109.586
110.407
111.283
112.215
113.208
114.265
115.392
116.591
117.869
119.229
120.678
122.22
123.863
125.612
127.474
129.456
131.566
133.813
136.204
138.749
141.458
144.341
147.409
150.673
154.146
157.84
161.769
165.948
170.391
175.114
180.135
185.47
191.137
197.156
203.547
210.33
217.525
225.156
233.243
241.809
250.877
260.471
270.611
281.319
292.617
304.524
317.057
330.231
344.057
358.543
373.692
389.501
405.96
96.1998
96.2048
96.2148
96.2299
96.2501
96.2756
96.3063
96.3426
96.3844
96.432
96.4856
96.5453
96.6115
96.6843
96.7641
96.8512
96.946
97.0488
97.16
97.2801
97.4096
97.549
97.6988
97.8596
98.0321
98.2169
98.4148
98.6266
98.8531
99.0951
99.3538
99.6301
99.9251
100.24
100.576
100.934
101.317
101.724
102.159
102.622
103.116
103.643
104.204
104.802
105.439
106.118
106.841
107.612
108.433
109.307
110.238
111.23
112.287
113.412
114.611
115.887
117.246
118.693
120.234
121.875
123.623
125.483
127.463
129.572
131.816
134.205
136.748
139.455
142.335
145.4
148.661
152.13
155.821
159.747
163.922
168.361
173.081
178.097
183.428
189.091
195.105
201.491
208.268
215.459
223.084
231.165
239.726
248.789
258.377
268.512
279.216
290.509
302.412
314.941
328.112
341.936
356.422
371.572
387.383
403.846
94.2354
94.2403
94.2503
94.2654
94.2855
94.311
94.3417
94.3779
94.4196
94.4671
94.5206
94.5802
94.6462
94.7189
94.7986
94.8855
94.9801
95.0827
95.1937
95.3136
95.4428
95.5819
95.7314
95.8919
96.0641
96.2485
96.446
96.6574
96.8834
97.1251
97.3832
97.659
97.9534
98.2676
98.6029
98.9607
99.3422
99.7491
100.183
100.645
101.139
101.664
102.224
102.821
103.457
104.134
104.856
105.625
106.445
107.317
108.247
109.237
110.291
111.415
112.611
113.885
115.241
116.686
118.224
119.862
121.606
123.462
125.439
127.543
129.784
132.168
134.706
137.408
140.283
143.342
146.597
150.06
153.745
157.663
161.831
166.262
170.974
175.981
181.303
186.957
192.962
199.337
206.104
213.284
220.898
228.969
237.518
246.57
256.147
266.271
276.965
288.249
300.143
312.665
325.83
339.65
354.134
369.286
385.102
401.574
92.2697
92.2746
92.2846
92.2996
92.3197
92.345
92.3757
92.4117
92.4534
92.5007
92.554
92.6135
92.6793
92.7518
92.8312
92.9179
93.0122
93.1145
93.2252
93.3447
93.4735
93.6122
93.7613
93.9213
94.093
94.2769
94.4738
94.6846
94.9099
95.1509
95.4083
95.6832
95.9768
96.2901
96.6244
96.9811
97.3615
97.7672
98.1998
98.661
99.1525
99.6765
100.235
100.83
101.464
102.14
102.859
103.626
104.443
105.313
106.24
107.227
108.279
109.399
110.591
111.861
113.214
114.654
116.188
117.821
119.56
121.412
123.383
125.481
127.715
130.093
132.624
135.317
138.184
141.235
144.481
147.935
151.609
155.517
159.674
164.093
168.792
173.787
179.095
184.735
190.725
197.085
203.836
211
218.597
226.651
235.184
244.219
253.779
263.887
274.564
285.834
297.715
310.225
323.382
337.196
351.678
366.831
382.655
399.14
90.3027
90.3076
90.3176
90.3325
90.3525
90.3778
90.4083
90.4442
90.4857
90.5328
90.5859
90.6451
90.7107
90.7829
90.862
90.9484
91.0423
91.1442
91.2544
91.3735
91.5018
91.6399
91.7884
91.9478
92.1188
92.302
92.4982
92.7081
92.9326
93.1725
93.4289
93.7028
93.9952
94.3073
94.6403
94.9955
95.3745
95.7786
96.2095
96.6688
97.1585
97.6804
98.2366
98.8293
99.4609
100.134
100.851
101.615
102.428
103.295
104.218
105.202
106.249
107.364
108.553
109.818
111.165
112.6
114.128
115.754
117.487
119.331
121.294
123.385
125.61
127.979
130.5
133.184
136.04
139.079
142.313
145.754
149.415
153.309
157.45
161.854
166.536
171.514
176.804
182.424
188.395
194.735
201.465
208.607
216.182
224.213
232.723
241.735
251.272
261.358
272.015
283.265
295.128
307.623
320.767
334.574
349.052
364.208
380.04
396.542
88.3345
88.3394
88.3493
88.3642
88.3841
88.4092
88.4396
88.4753
88.5165
88.5635
88.6163
88.6752
88.7405
88.8123
88.891
88.977
89.0704
89.1718
89.2815
89.3999
89.5276
89.6651
89.8128
89.9714
90.1415
90.3238
90.519
90.7279
90.9513
91.1901
91.4452
91.7177
92.0087
92.3192
92.6506
93.0041
93.3812
93.7833
94.212
94.6691
95.1564
95.6757
96.2291
96.8189
97.4474
98.117
98.8304
99.5905
100.4
101.263
102.181
103.16
104.202
105.312
106.494
107.753
109.094
110.522
112.042
113.661
115.385
117.22
119.174
121.255
123.469
125.827
128.336
131.007
133.849
136.874
140.093
143.518
147.162
151.038
155.161
159.545
164.207
169.162
174.429
180.026
185.972
192.286
198.99
206.104
213.651
221.654
230.135
239.119
248.628
258.686
269.316
280.54
292.381
304.857
317.985
331.781
346.255
361.413
377.256
393.779
86.3651
86.37
86.3798
86.3945
86.4144
86.4393
86.4695
86.505
86.546
86.5927
86.6452
86.7037
86.7686
86.84
86.9183
87.0037
87.0966
87.1973
87.3064
87.4241
87.551
87.6876
87.8345
87.9922
88.1613
88.3425
88.5365
88.7441
88.9662
89.2036
89.4572
89.728
90.0173
90.3259
90.6553
91.0067
91.3816
91.7813
92.2075
92.6619
93.1462
93.6624
94.2126
94.7989
95.4236
96.0892
96.7984
97.554
98.3588
99.2162
100.129
101.102
102.138
103.242
104.417
105.669
107.002
108.421
109.932
111.542
113.255
115.08
117.023
119.091
121.293
123.636
126.131
128.787
131.613
134.621
137.822
141.227
144.851
148.706
152.806
157.166
161.803
166.732
171.972
177.54
183.456
189.739
196.411
203.493
211.006
218.975
227.421
236.37
245.844
255.869
266.467
277.661
289.474
301.925
315.034
328.817
343.284
358.444
374.3
390.848
84.3944
84.3993
84.409
84.4237
84.4433
84.4681
84.4981
84.5333
84.574
84.6204
84.6725
84.7307
84.7951
84.866
84.9437
85.0285
85.1207
85.2208
85.3291
85.446
85.572
85.7077
85.8535
86.01
86.178
86.3579
86.5506
86.7567
86.9773
87.213
87.4648
87.7338
88.021
88.3275
88.6546
89.0035
89.3757
89.7727
90.1959
90.6471
91.1281
91.6407
92.187
92.7692
93.3896
94.0506
94.7548
95.5051
96.3044
97.1558
98.0627
99.0287
100.058
101.154
102.321
103.564
104.887
106.297
107.798
109.396
111.098
112.91
114.84
116.894
119.08
121.408
123.886
126.524
129.331
132.319
135.499
138.882
142.482
146.312
150.385
154.718
159.326
164.224
169.432
174.967
180.848
187.095
193.73
200.773
208.247
216.175
224.581
233.488
242.922
252.907
263.467
274.625
286.405
298.828
311.914
325.679
340.138
355.3
371.169
387.744
82.4225
82.4273
82.437
82.4515
82.4711
82.4956
82.5253
82.5603
82.6007
82.6466
82.6984
82.756
82.8199
82.8903
82.9673
83.0515
83.143
83.2422
83.3496
83.4656
83.5906
83.7251
83.8698
84.0251
84.1916
84.3701
84.5613
84.7658
84.9845
85.2183
85.4682
85.735
86.0198
86.3239
86.6484
86.9945
87.3637
87.7575
88.1773
88.6249
89.102
89.6105
90.1524
90.73
91.3454
92.0011
92.6997
93.444
94.2369
95.0815
95.9812
96.9395
97.9602
99.0474
100.205
101.438
102.751
104.15
105.639
107.225
108.913
110.711
112.625
114.663
116.833
119.143
121.601
124.219
127.004
129.969
133.125
136.482
140.055
143.856
147.9
152.201
156.775
161.639
166.81
172.307
178.148
184.354
190.945
197.944
205.373
213.254
221.614
230.474
239.862
249.8
260.316
271.432
283.174
295.563
308.621
322.366
336.814
351.976
367.859
384.463
80.4494
80.4542
80.4638
80.4782
80.4975
80.5219
80.5513
80.5859
80.6259
80.6715
80.7227
80.7799
80.8432
80.9129
80.9892
81.0726
81.1632
81.2616
81.368
81.4829
81.6068
81.7401
81.8834
82.0373
82.2023
82.3792
82.5686
82.7713
82.988
83.2197
83.4672
83.7316
84.0139
84.3152
84.6367
84.9797
85.3456
85.7358
86.1518
86.5953
87.0681
87.572
88.109
88.6813
89.2911
89.9408
90.6331
91.3707
92.1564
92.9934
93.885
94.8346
95.8462
96.9235
98.0709
99.2929
100.594
101.98
103.456
105.027
106.701
108.483
110.38
112.4
114.55
116.84
119.277
121.871
124.633
127.572
130.7
134.029
137.571
141.34
145.35
149.615
154.152
158.976
164.106
169.56
175.356
181.515
188.058
195.007
202.384
210.214
218.52
227.327
236.662
246.548
257.013
268.081
279.779
292.129
305.154
318.875
333.309
348.47
364.367
381.002
78.4751
78.4798
78.4893
78.5036
78.5227
78.5468
78.5759
78.6102
78.6498
78.6949
78.7456
78.8022
78.8648
78.9338
79.0094
79.0919
79.1816
79.2789
79.3842
79.498
79.6206
79.7526
79.8944
80.0467
80.2101
80.3852
80.5726
80.7732
80.9878
81.2171
81.4621
81.7238
82.0032
82.3015
82.6197
82.9592
83.3214
83.7076
84.1194
84.5584
85.0263
85.5251
86.0567
86.6232
87.2268
87.87
88.5553
89.2854
90.0631
90.8917
91.7742
92.7143
93.7156
94.7821
95.9179
97.1276
98.4159
99.7879
101.249
102.805
104.461
106.225
108.104
110.104
112.233
114.5
116.913
119.482
122.216
125.127
128.225
131.522
135.03
138.763
142.736
146.961
151.456
156.237
161.321
166.727
172.473
178.58
185.069
191.962
199.282
207.053
215.3
224.048
233.322
243.15
253.558
264.572
276.219
288.524
301.511
315.204
329.621
344.778
360.687
377.355
76.4997
76.5043
76.5137
76.5278
76.5467
76.5705
76.5993
76.6332
76.6723
76.7169
76.767
76.8229
76.8849
76.9531
77.0278
77.1093
77.198
77.2943
77.3984
77.5109
77.6321
77.7626
77.9028
78.0534
78.2149
78.388
78.5734
78.7717
78.9838
79.2106
79.4528
79.7116
79.9879
80.2827
80.5974
80.9331
81.2911
81.673
82.0801
82.5142
82.9769
83.4701
83.9957
84.5558
85.1526
85.7886
86.4662
87.1881
87.9571
88.7764
89.6491
90.5786
91.5688
92.6233
93.7465
94.9427
96.2167
97.5734
99.0182
100.557
102.195
103.94
105.797
107.775
109.881
112.123
114.51
117.051
119.756
122.635
125.7
128.961
132.433
136.127
140.058
144.24
148.689
153.422
158.455
163.808
169.499
175.549
181.978
188.81
196.067
203.773
211.954
220.635
229.843
239.605
249.949
260.902
272.492
284.746
297.691
311.349
325.744
340.895
356.816
373.516
74.523
74.5276
74.5368
74.5507
74.5694
74.5929
74.6214
74.6549
74.6935
74.7375
74.787
74.8422
74.9034
74.9707
75.0445
75.125
75.2126
75.3077
75.4105
75.5215
75.6413
75.7701
75.9086
76.0573
76.2169
76.3878
76.5708
76.7667
76.9762
77.2002
77.4394
77.695
77.9678
78.259
78.5698
78.9013
79.255
79.6321
80.0342
80.4629
80.9198
81.4069
81.926
82.4792
83.0687
83.6968
84.366
85.079
85.8386
86.6478
87.5097
88.4278
89.4058
90.4474
91.5568
92.7383
93.9967
95.3368
96.7639
98.2837
99.9021
101.625
103.46
105.414
107.495
109.71
112.068
114.579
117.251
120.096
123.125
126.349
129.78
133.431
137.317
141.451
145.851
150.531
155.509
160.804
166.435
172.422
178.786
185.55
192.738
200.373
208.482
217.09
226.224
235.914
246.187
257.072
268.598
280.794
293.689
307.308
321.677
336.817
352.747
369.479
72.5452
72.5497
72.5588
72.5725
72.591
72.6142
72.6422
72.6752
72.7133
72.7567
72.8055
72.86
72.9203
72.9867
73.0595
73.1389
73.2253
73.3191
73.4205
73.5301
73.6482
73.7753
73.9119
74.0586
74.2159
74.3845
74.5651
74.7583
74.965
75.1859
75.4219
75.674
75.9432
76.2305
76.537
76.8641
77.2129
77.5849
77.9816
78.4045
78.8552
79.3357
79.8478
80.3935
80.9751
81.5947
82.2549
82.9583
83.7076
84.5059
85.3562
86.262
87.2268
88.2545
89.349
90.5147
91.7562
93.0784
94.4865
95.986
97.5829
99.2833
101.094
103.022
105.075
107.261
109.588
112.066
114.704
117.512
120.502
123.684
127.071
130.676
134.513
138.596
142.941
147.565
152.483
157.716
163.281
169.2
175.493
182.184
189.296
196.854
204.883
213.411
222.466
232.075
242.27
253.079
264.534
276.666
289.504
303.077
317.414
332.539
348.474
365.237
70.5662
70.5707
70.5796
70.5932
70.6113
70.6342
70.6618
70.6943
70.7319
70.7746
70.8227
70.8763
70.9357
71.0011
71.0728
71.1511
71.2362
71.3286
71.4285
71.5364
71.6528
71.778
71.9126
72.0572
72.2122
72.3783
72.5562
72.7466
72.9502
73.1679
73.4004
73.6488
73.914
74.1971
74.4991
74.8213
75.165
75.5316
75.9224
76.3391
76.7832
77.2567
77.7612
78.2989
78.8719
79.4825
80.133
80.8261
81.5644
82.351
83.1889
84.0815
85.0322
86.0448
87.1234
88.2721
89.4955
90.7985
92.1862
93.6639
95.2377
96.9135
98.6981
100.598
102.622
104.776
107.07
109.513
112.114
114.882
117.83
120.968
124.308
127.863
131.648
135.676
139.962
144.524
149.379
154.544
160.038
165.884
172.101
178.712
185.742
193.216
201.159
209.6
218.567
228.089
238.197
248.923
260.3
272.358
285.132
298.653
312.951
328.056
343.992
360.783
68.5861
68.5905
68.5993
68.6126
68.6305
68.653
68.6802
68.7121
68.7491
68.7911
68.8384
68.8912
68.9496
69.014
69.0845
69.1615
69.2453
69.3362
69.4345
69.5407
69.6552
69.7784
69.9109
70.0531
70.2057
70.3692
70.5442
70.7316
70.9319
71.1461
71.375
71.6194
71.8804
72.1589
72.4561
72.7732
73.1115
73.4721
73.8567
74.2668
74.7039
75.1698
75.6663
76.1955
76.7594
77.3603
78.0004
78.6825
79.4092
80.1833
81.0079
81.8863
82.822
83.8187
84.8802
86.0108
87.2149
88.4974
89.8632
91.3178
92.8669
94.5165
96.2732
98.1439
100.136
102.257
104.516
106.921
109.481
112.207
115.11
118.2
121.49
124.993
128.721
132.69
136.914
141.411
146.196
151.289
156.708
162.474
168.609
175.135
182.077
189.46
197.31
205.656
214.527
223.954
233.969
244.603
255.892
267.87
280.571
294.031
308.284
323.361
339.294
356.108
66.6049
66.6092
66.6179
66.631
66.6485
66.6706
66.6973
66.7287
66.765
66.8063
66.8528
66.9047
66.9621
67.0253
67.0946
67.1703
67.2526
67.3419
67.4386
67.5429
67.6554
67.7765
67.9067
68.0465
68.1964
68.3571
68.5292
68.7133
68.9102
69.1207
69.3456
69.5858
69.8423
70.1161
70.4082
70.7198
71.0523
71.4068
71.7847
72.1877
72.6173
73.0752
73.5633
74.0834
74.6376
75.2282
75.8574
76.5278
77.242
78.0029
78.8135
79.6769
80.5966
81.5762
82.6197
83.7311
84.9148
86.1754
87.5181
88.948
90.4709
92.0927
93.8198
95.659
97.6175
99.7032
101.924
104.289
106.807
109.489
112.344
115.383
118.62
122.066
125.734
129.64
133.798
138.224
142.936
147.951
153.29
158.971
165.018
171.453
178.3
185.585
193.336
201.58
210.348
219.671
229.583
240.118
251.311
263.199
275.819
289.209
303.407
318.45
334.372
351.204
64.6226
64.6269
64.6354
64.6482
64.6654
64.6871
64.7133
64.7441
64.7797
64.8203
64.8659
64.9167
64.9731
65.0351
65.1031
65.1774
65.2582
65.3458
65.4407
65.5431
65.6535
65.7724
65.9001
66.0373
66.1845
66.3422
66.5111
66.6918
66.8851
67.0917
67.3124
67.5482
67.7999
68.0686
68.3554
68.6613
68.9875
69.3355
69.7065
70.102
70.5237
70.9732
71.4522
71.9627
72.5067
73.0864
73.7041
74.3621
75.0632
75.8101
76.6058
77.4533
78.3562
79.3179
80.3422
81.4332
82.5953
83.8329
85.1511
86.555
88.0501
89.6425
91.3382
93.1442
95.0674
97.1155
99.2965
101.619
104.092
106.726
109.53
112.517
115.697
119.083
122.688
126.527
130.614
134.966
139.6
144.533
149.785
155.377
161.33
167.667
174.413
181.594
189.237
197.371
206.028
215.24
225.04
235.466
246.553
258.342
270.871
284.183
298.317
313.316
329.218
346.063
62.6393
62.6434
62.6518
62.6643
62.6812
62.7024
62.7281
62.7583
62.7932
62.8329
62.8776
62.9274
62.9826
63.0434
63.1101
63.1828
63.262
63.3479
63.4409
63.5412
63.6495
63.766
63.8912
64.0257
64.1699
64.3245
64.49
64.6671
64.8566
65.0591
65.2755
65.5066
65.7533
66.0167
66.2978
66.5976
66.9174
67.2584
67.6221
68.0098
68.4231
68.8637
69.3332
69.8337
70.3669
70.9351
71.5406
72.1857
72.8729
73.6051
74.3851
75.216
76.101
77.0438
78.048
79.1176
80.2569
81.4703
82.7626
84.1391
85.605
87.1663
88.8291
90.6
92.4859
94.4944
96.6334
98.9113
101.337
103.921
106.672
109.602
112.722
116.045
119.583
123.351
127.364
131.637
136.188
141.034
146.195
151.691
157.544
163.778
170.416
177.485
185.014
193.031
201.568
210.659
220.34
230.646
241.618
253.297
265.725
278.947
293.008
307.953
323.827
340.674
60.6549
60.6589
60.6671
60.6794
60.6959
60.7167
60.7418
60.7713
60.8055
60.8443
60.888
60.9368
60.9908
61.0503
61.1155
61.1867
61.2642
61.3482
61.4392
61.5374
61.6434
61.7574
61.88
62.0116
62.1527
62.304
62.4661
62.6394
62.8249
63.0231
63.2349
63.4611
63.7026
63.9604
64.2354
64.5289
64.8419
65.1757
65.5317
65.9112
66.3157
66.747
67.2066
67.6964
68.2184
68.7746
69.3672
69.9987
70.6714
71.3881
72.1517
72.965
73.8314
74.7544
75.7374
76.7846
77.8999
79.0878
80.3531
81.7007
83.136
84.6647
86.2929
88.0269
89.8737
91.8406
93.9354
96.1664
98.5425
101.073
103.768
106.639
109.696
112.952
116.42
120.114
124.048
128.238
132.702
137.456
142.521
147.916
153.664
159.787
166.31
173.261
180.667
188.559
196.969
205.93
215.48
225.658
236.504
248.063
260.378
273.499
287.474
302.353
318.188
335.027
58.6695
58.6734
58.6814
58.6934
58.7095
58.7298
58.7543
58.7832
58.8165
58.8545
58.8972
58.9448
58.9976
59.0557
59.1194
59.189
59.2647
59.3468
59.4357
59.5317
59.6352
59.7467
59.8665
59.9951
60.1331
60.2809
60.4393
60.6087
60.7899
60.9837
61.1906
61.4117
61.6477
61.8997
62.1685
62.4553
62.7612
63.0875
63.4354
63.8063
64.2017
64.6231
65.0723
65.5511
66.0612
66.6049
67.1841
67.8013
68.4589
69.1595
69.9058
70.7008
71.5477
72.4499
73.4108
74.4344
75.5247
76.686
77.9229
79.2404
80.6437
82.1383
83.7301
85.4256
87.2314
89.1548
91.2033
93.3852
95.7091
98.1844
100.821
103.629
106.62
109.807
113.201
116.816
120.668
124.771
129.143
133.8
138.763
144.052
149.688
155.695
162.097
168.922
176.198
183.956
192.229
201.052
210.463
220.501
231.21
242.636
254.827
267.834
281.71
296.511
312.293
329.114
56.683
56.6869
56.6947
56.7064
56.7221
56.7419
56.7658
56.794
56.8265
56.8635
56.9051
56.9516
57.0031
57.0598
57.1219
57.1898
57.2636
57.3437
57.4304
57.5241
57.6251
57.7339
57.8508
57.9763
58.1109
58.2552
58.4097
58.575
58.7519
58.9409
59.1429
59.3586
59.5889
59.8348
60.0971
60.377
60.6755
60.9938
61.3333
61.6952
62.0811
62.4923
62.9307
63.3979
63.8957
64.4263
64.9916
65.5939
66.2356
66.9193
67.6477
68.4236
69.2501
70.1306
71.0685
72.0676
73.1317
74.2652
75.4726
76.7586
78.1284
79.5874
81.1414
82.7966
84.5597
86.4375
88.4378
90.5683
92.8378
95.2552
97.8303
100.573
103.496
106.609
109.926
113.459
117.224
121.236
125.511
130.068
134.924
140.101
145.619
151.503
157.778
164.469
171.608
179.224
187.351
196.025
205.286
215.174
225.735
237.016
249.069
261.949
275.712
290.42
306.135
322.922
54.6957
54.6994
54.707
54.7184
54.7337
54.7529
54.7762
54.8036
54.8353
54.8713
54.9119
54.9571
55.0072
55.0624
55.123
55.189
55.2609
55.339
55.4235
55.5147
55.6131
55.719
55.8329
55.9552
56.0863
56.2269
56.3774
56.5385
56.7108
56.8949
57.0917
57.3018
57.5262
57.7657
58.0213
58.2939
58.5848
58.8949
59.2256
59.5782
59.9541
60.3548
60.7819
61.237
61.7221
62.239
62.7897
63.3766
64.0019
64.668
65.3777
66.1337
66.9391
67.797
68.7109
69.6844
70.7214
71.826
73.0026
74.2558
75.5908
77.0127
78.5273
80.1406
81.8591
83.6896
85.6395
87.7166
89.9293
92.2864
94.7976
97.4728
100.323
103.36
106.596
110.044
113.719
117.635
121.81
126.26
131.004
136.063
141.458
147.213
153.352
159.904
166.897
174.362
182.334
190.85
199.95
209.677
220.077
231.2
243.102
255.839
269.474
284.073
299.705
316.441
52.7073
52.711
52.7183
52.7294
52.7443
52.763
52.7856
52.8122
52.843
52.878
52.9174
52.9614
53.0101
53.0638
53.1226
53.1868
53.2567
53.3326
53.4148
53.5035
53.5992
53.7022
53.8129
53.9318
54.0594
54.1961
54.3425
54.4992
54.6667
54.8458
55.0372
55.2415
55.4597
55.6927
55.9412
56.2064
56.4892
56.7908
57.1125
57.4554
57.821
58.2106
58.626
59.0687
59.5404
60.0432
60.5789
61.1497
61.7578
62.4058
63.0961
63.8315
64.6149
65.4494
66.3384
67.2854
68.2941
69.3687
70.5133
71.7326
73.0314
74.4148
75.8885
77.4583
79.1305
80.9118
82.8094
84.8309
86.9846
89.279
91.7236
94.3283
97.1036
100.061
103.213
106.572
110.152
113.969
118.038
122.377
127.005
131.94
137.206
142.826
148.823
155.227
162.066
169.372
177.18
185.528
194.456
204.009
214.235
225.187
236.922
249.501
262.991
277.463
292.993
309.66
50.7181
50.7216
50.7287
50.7395
50.7539
50.772
50.794
50.8198
50.8497
50.8836
50.9219
50.9645
51.0118
51.0638
51.1209
51.1832
51.2511
51.3247
51.4044
51.4906
51.5834
51.6834
51.7909
51.9063
52.0302
52.1629
52.305
52.4571
52.6197
52.7936
52.9794
53.1778
53.3896
53.6157
53.857
54.1144
54.3889
54.6817
54.994
55.3269
55.6818
56.0601
56.4633
56.893
57.3511
57.8391
58.3592
58.9134
59.5039
60.133
60.8032
61.5172
62.2778
63.0881
63.9513
64.8709
65.8504
66.8939
68.0054
69.1894
70.4507
71.7943
73.2256
74.7502
76.3745
78.1048
79.9482
81.9121
84.0045
86.234
88.6095
91.1408
93.8384
96.7134
99.7777
103.044
106.527
110.24
114.199
118.422
122.928
127.735
132.866
138.343
144.192
150.44
157.117
164.255
171.89
180.058
188.803
198.17
208.209
218.975
230.528
242.932
256.259
270.584
285.991
302.569
48.7279
48.7313
48.7382
48.7486
48.7626
48.7802
48.8014
48.8264
48.8553
48.8882
48.9252
48.9665
49.0122
49.0626
49.1179
49.1782
49.2439
49.3153
49.3925
49.4759
49.5659
49.6628
49.7669
49.8788
49.9987
50.1273
50.265
50.4124
50.57
50.7384
50.9184
51.1106
51.3159
51.5349
51.7687
52.0181
52.2841
52.5678
52.8703
53.1928
53.5367
53.9032
54.294
54.7104
55.1542
55.6271
56.1311
56.6681
57.2402
57.8499
58.4993
59.1912
59.9284
60.7136
61.5502
62.4413
63.3907
64.402
65.4793
66.6269
67.8495
69.1518
70.5392
72.0172
73.5918
75.2694
77.0567
78.961
80.9901
83.1522
85.4562
87.9116
90.5287
93.3181
96.2918
99.4621
102.843
106.448
110.294
114.396
118.775
123.448
128.437
133.766
139.46
145.545
152.052
159.013
166.464
174.443
182.993
192.161
201.999
212.564
223.917
236.128
249.272
263.43
278.692
295.155
46.7369
46.7402
46.7469
46.7569
46.7704
46.7873
46.8078
46.832
46.8599
46.8917
46.9274
46.9673
47.0115
47.0602
47.1136
47.1719
47.2354
47.3044
47.379
47.4597
47.5466
47.6403
47.741
47.8491
47.9651
48.0895
48.2226
48.3651
48.5175
48.6804
48.8544
49.0403
49.2387
49.4505
49.6765
49.9176
50.1748
50.4491
50.7416
51.0535
51.386
51.7404
52.1182
52.5208
52.95
53.4073
53.8946
54.4139
54.9672
55.5568
56.1848
56.854
57.5669
58.3263
59.1353
59.9972
60.9154
61.8935
62.9356
64.0456
65.2282
66.488
67.8301
69.26
70.7834
72.4065
74.1359
75.9787
77.9423
80.0348
82.2649
84.6419
87.1755
89.8766
92.7564
95.8272
99.1023
102.596
106.323
110.301
114.547
119.081
123.923
129.098
134.629
140.544
146.872
153.647
160.904
168.682
177.026
185.982
195.605
205.952
217.089
229.087
242.026
255.994
271.086
287.409
44.745
44.7482
44.7546
44.7643
44.7773
44.7936
44.8134
44.8367
44.8635
44.8942
44.9286
44.9671
45.0097
45.0566
45.1081
45.1643
45.2255
45.292
45.364
45.4418
45.5257
45.6161
45.7132
45.8175
45.9294
46.0494
46.1779
46.3154
46.4624
46.6195
46.7874
46.9667
47.1582
47.3625
47.5805
47.8132
48.0613
48.3259
48.6081
48.909
49.2298
49.5717
49.9362
50.3247
50.7387
51.18
51.6502
52.1513
52.6852
53.254
53.8601
54.5058
55.1937
55.9265
56.7073
57.539
58.4251
59.3691
60.3748
61.4461
62.5875
63.8035
65.099
66.4793
67.95
69.517
71.1867
72.9659
74.8621
76.8829
79.0368
81.3327
83.7804
86.3901
89.1729
92.1409
95.3069
98.6849
102.29
106.138
110.247
114.636
119.326
124.339
129.701
135.437
141.579
148.159
155.212
162.779
170.904
179.635
189.027
199.14
210.041
221.807
234.519
248.272
263.167
279.319
42.7523
42.7554
42.7616
42.7709
42.7834
42.7991
42.8181
42.8404
42.8663
42.8957
42.9288
42.9658
43.0067
43.0519
43.1014
43.1555
43.2144
43.2783
43.3476
43.4224
43.5032
43.5901
43.6836
43.784
43.8918
44.0072
44.1309
44.2632
44.4047
44.556
44.7176
44.8902
45.0744
45.2711
45.4809
45.7048
45.9436
46.1983
46.4699
46.7595
47.0682
47.3974
47.7482
48.1221
48.5207
48.9454
49.398
49.8804
50.3943
50.9419
51.5254
52.147
52.8092
53.5148
54.2664
55.0672
55.9203
56.8292
57.7975
58.8291
59.9282
61.0991
62.3467
63.676
65.0924
66.6016
68.2099
69.9239
71.7506
73.6975
75.7729
77.9854
80.3445
82.86
85.5429
88.4048
91.4582
94.7168
98.1952
101.909
105.876
110.115
114.647
119.493
124.678
130.229
136.176
142.551
149.39
156.734
164.627
173.119
182.265
192.127
202.774
214.285
226.747
240.257
254.926
270.877
40.7589
40.7618
40.7678
40.7767
40.7887
40.8037
40.8219
40.8433
40.8681
40.8963
40.9281
40.9635
41.0028
41.046
41.0935
41.1454
41.2019
41.2633
41.3298
41.4016
41.4791
41.5626
41.6523
41.7487
41.8521
41.963
42.0817
42.2088
42.3447
42.4899
42.645
42.8107
42.9876
43.1764
43.3778
43.5927
43.822
44.0665
44.3272
44.6052
44.9016
45.2176
45.5544
45.9134
46.2961
46.7039
47.1385
47.6016
48.0951
48.6209
49.1811
49.778
50.4139
51.0914
51.8132
52.5823
53.4016
54.2744
55.2044
56.1952
57.2508
58.3755
59.5739
60.8508
62.2115
63.6615
65.2067
66.8535
68.6089
70.4799
72.4746
74.6014
76.8692
79.2879
81.8678
84.6204
87.5578
90.6933
94.0411
97.6168
101.437
105.521
109.888
114.56
119.562
124.92
130.664
136.825
143.44
150.55
158.199
166.437
175.321
184.914
195.287
206.521
218.707
231.947
246.358
262.071
38.7647
38.7675
38.7732
38.7817
38.7931
38.8075
38.8249
38.8454
38.8691
38.896
38.9264
38.9602
38.9978
39.0392
39.0846
39.1342
39.1883
39.247
39.3106
39.3793
39.4535
39.5334
39.6193
39.7116
39.8107
39.9168
40.0305
40.1521
40.2822
40.4213
40.5698
40.7284
40.8978
41.0785
41.2713
41.4771
41.6965
41.9306
42.1802
42.4463
42.7301
43.0326
43.3551
43.6988
44.0652
44.4556
44.8718
45.3152
45.7877
46.2912
46.8277
47.3993
48.0082
48.657
49.3483
50.0847
50.8694
51.7053
52.596
53.545
54.5561
55.6334
56.7814
58.0046
59.3082
60.6974
62.1779
63.756
65.4381
67.2313
69.1431
71.1818
73.356
75.6751
78.1493
80.7895
83.6076
86.6163
89.8296
93.2626
96.9318
100.855
105.052
109.545
114.357
119.514
125.046
130.984
137.365
144.229
151.621
159.591
168.197
177.502
187.581
198.514
210.398
223.338
237.457
252.894
36.7698
36.7725
36.7779
36.786
36.7969
36.8106
36.8272
36.8467
36.8692
36.8949
36.9238
36.9561
36.9919
37.0313
37.0746
37.1219
37.1734
37.2294
37.2901
37.3557
37.4265
37.5028
37.5848
37.6729
37.7674
37.8687
37.9773
38.0934
38.2176
38.3503
38.4921
38.6435
38.8051
38.9776
39.1616
39.358
39.5674
39.7908
40.029
40.2831
40.5539
40.8426
41.1504
41.4785
41.8282
42.201
42.5982
43.0215
43.4726
43.9533
44.4655
45.0111
45.5925
46.212
46.872
47.5751
48.3243
49.1225
49.973
50.8792
51.8447
52.8736
53.97
55.1383
56.3834
57.7103
59.1247
60.6322
62.2394
63.9528
65.7798
67.7282
69.8064
72.0234
74.389
76.9138
79.6093
82.4877
85.5627
88.8488
92.362
96.12
100.142
104.449
109.064
114.013
119.325
125.031
131.168
137.774
144.896
152.584
160.895
169.894
179.656
190.265
201.818
214.427
228.218
243.338
34.7742
34.7768
34.7819
34.7896
34.8
34.813
34.8287
34.8472
34.8686
34.893
34.9204
34.951
34.985
35.0225
35.0636
35.1085
35.1575
35.2107
35.2684
35.3308
35.3981
35.4707
35.5487
35.6325
35.7225
35.8189
35.9221
36.0326
36.1508
36.2771
36.4119
36.5559
36.7097
36.8738
37.0488
37.2356
37.4348
37.6473
37.8739
38.1156
38.3732
38.6479
38.9407
39.2528
39.5855
39.9402
40.3181
40.7209
41.1501
41.6075
42.0948
42.6141
43.1673
43.7568
44.3848
45.054
45.767
46.5266
47.3361
48.1985
49.1176
50.0969
51.1405
52.2527
53.438
54.7014
56.048
57.4835
59.014
60.6458
62.3859
64.2419
66.2218
68.3342
70.5887
72.9952
75.5649
78.3096
81.2425
84.3776
87.7305
91.3182
95.1592
99.2743
103.686
108.42
113.504
118.969
124.851
131.189
138.027
145.418
153.417
162.091
171.515
181.774
192.969
205.213
218.638
233.398
32.778
32.7804
32.7852
32.7925
32.8023
32.8146
32.8295
32.847
32.8672
32.8903
32.9162
32.9452
32.9773
33.0127
33.0516
33.0942
33.1405
33.1909
33.2456
33.3046
33.3684
33.4372
33.5111
33.5906
33.6759
33.7673
33.8652
33.97
34.082
34.2016
34.3295
34.466
34.6117
34.7672
34.9331
35.1101
35.2989
35.5003
35.7151
35.9441
36.1882
36.4486
36.7261
37.022
37.3374
37.6735
38.0318
38.4136
38.8206
39.2542
39.7162
40.2085
40.733
41.2919
41.8874
42.5219
43.1979
43.9183
44.6858
45.5037
46.3752
47.304
48.2938
49.3487
50.4731
51.6715
52.949
54.311
55.7631
57.3115
58.963
60.7245
62.6039
64.6094
66.75
69.0354
71.4763
74.0841
76.8713
79.8515
83.0397
86.4523
90.1074
94.0248
98.2269
102.738
107.586
112.801
118.418
124.475
131.018
138.096
145.767
154.097
163.16
173.045
183.851
195.696
208.715
223.069
30.7811
30.7834
30.788
30.7949
30.8041
30.8157
30.8297
30.8461
30.8652
30.8868
30.9112
30.9385
30.9687
31.0021
31.0387
31.0788
31.1225
31.17
31.2216
31.2773
31.3375
31.4024
31.4722
31.5473
31.6278
31.7141
31.8066
31.9055
32.0112
32.1242
32.2449
32.3737
32.5113
32.6581
32.8147
32.9817
33.1599
33.35
33.5526
33.7688
33.9992
34.245
34.507
34.7863
35.084
35.4014
35.7396
36.1001
36.4843
36.8937
37.33
37.7948
38.2901
38.8179
39.3802
39.9794
40.6178
41.298
42.0229
42.7954
43.6186
44.4958
45.4308
46.4273
47.4895
48.6218
49.8288
51.1157
52.488
53.9514
55.5123
57.1774
58.9542
60.8504
62.8748
65.0365
67.3457
69.8133
72.4513
75.2728
78.2921
81.5251
84.9891
88.7034
92.6893
96.9709
101.575
106.531
111.872
117.639
123.873
130.624
137.95
145.915
154.596
164.079
174.466
185.877
198.449
212.348
28.7837
28.7859
28.7901
28.7966
28.8052
28.8161
28.8292
28.8446
28.8624
28.8827
28.9056
28.9311
28.9594
28.9907
29.025
29.0626
29.1036
29.1481
29.1965
29.2489
29.3054
29.3664
29.432
29.5025
29.5783
29.6594
29.7463
29.8393
29.9386
30.0448
30.1582
30.2793
30.4085
30.5464
30.6936
30.8505
31.0179
31.1964
31.3869
31.5899
31.8064
32.0373
32.2835
32.5459
32.8257
33.1239
33.4418
33.7807
34.1417
34.5265
34.9366
35.3735
35.8391
36.3352
36.8638
37.427
38.0271
38.6666
39.3481
40.0743
40.8483
41.6732
42.5524
43.4895
44.4884
45.5532
46.6886
47.8991
49.1899
50.5667
52.0353
53.6022
55.2744
57.0592
58.9649
61.0004
63.175
65.4994
67.985
70.6441
73.4905
76.5394
79.8074
83.313
87.0768
91.1219
95.474
100.162
105.219
110.683
116.595
123.005
129.969
137.55
145.825
154.881
164.819
175.759
187.842
201.234
26.7858
26.7878
26.7918
26.7978
26.8058
26.8159
26.8281
26.8425
26.8591
26.878
26.8992
26.923
26.9494
26.9785
27.0105
27.0455
27.0837
27.1253
27.1705
27.2194
27.2722
27.3292
27.3906
27.4565
27.5273
27.6032
27.6845
27.7714
27.8644
27.9637
28.0697
28.1829
28.3036
28.4325
28.57
28.7167
28.8731
29.04
29.2179
29.4077
29.61
29.8258
30.0559
30.3012
30.5628
30.8416
31.1388
31.4556
31.7932
32.1531
32.5365
32.9451
33.3804
33.8443
34.3386
34.8653
35.4266
36.0247
36.6621
37.3413
38.0653
38.8369
39.6594
40.5361
41.4706
42.467
43.5294
44.6622
45.8703
47.1589
48.5337
50.0006
51.5662
53.2376
55.0224
56.9291
58.9666
61.1449
63.4747
65.968
68.6377
71.4982
74.5655
77.8571
81.3929
85.1949
89.2879
93.6999
98.4627
103.612
109.191
115.244
121.829
129.008