/*--------------------------------*- C++ -*----------------------------------*\
| =========                 |                                                 |
| \\      /  F ield         | OpenFOAM: The Open Source CFD Toolbox           |
|  \\    /   O peration     | Version:  2.4.0                                 |
|   \\  /    A nd           | Web:      www.OpenFOAM.org                      |
|    \\/     M anipulation  |                                                 |
\*---------------------------------------------------------------------------*/
FoamFile
{
    version     2.0;
    format      ascii;
    class       surfaceScalarField;
    location    "0.262";
    object      phiAlpha;
}
// * * * * * * * * * * * * * * * * * * * * * * * * * * * * * * * * * * * * * //

dimensions      [0 3 -1 0 0 0 0];

internalField   nonuniform List<scalar> 
119500
(
-5.10197e-10
5.10197e-10
-1.41289e-09
9.02696e-10
-2.41738e-09
1.00449e-09
-3.48553e-09
1.06815e-09
-4.62697e-09
1.14145e-09
-5.85158e-09
1.22461e-09
-7.16603e-09
1.31445e-09
-8.57297e-09
1.40693e-09
-1.00709e-08
1.49793e-09
-1.16543e-08
1.58337e-09
-1.3314e-08
1.65969e-09
-1.50378e-08
1.72386e-09
-1.68111e-08
1.77333e-09
-1.86175e-08
1.80635e-09
-2.04389e-08
1.82139e-09
-2.22565e-08
1.81763e-09
-2.40514e-08
1.79488e-09
-2.58047e-08
1.75328e-09
-2.74981e-08
1.69344e-09
-2.91144e-08
1.61628e-09
-3.06373e-08
1.52286e-09
-3.20516e-08
1.41435e-09
-3.33436e-08
1.29201e-09
-3.45008e-08
1.15719e-09
-3.55119e-08
1.01113e-09
-3.63669e-08
8.54918e-10
-3.70558e-08
6.88965e-10
-3.75698e-08
5.13999e-10
-3.7901e-08
3.31139e-10
-3.80425e-08
1.41529e-10
-3.7988e-08
-5.45307e-11
-3.77338e-08
-2.54222e-10
-3.72771e-08
-4.56612e-10
-3.66134e-08
-6.63718e-10
-3.57383e-08
-8.75092e-10
-3.46479e-08
-1.09046e-09
-3.33382e-08
-1.30969e-09
-3.18056e-08
-1.53262e-09
-3.00464e-08
-1.75911e-09
-2.80575e-08
-1.98897e-09
-2.58355e-08
-2.22194e-09
-2.33778e-08
-2.4577e-09
-2.0682e-08
-2.69584e-09
-1.77462e-08
-2.93582e-09
-1.45692e-08
-3.17695e-09
-1.11507e-08
-3.41857e-09
-7.49075e-09
-3.6599e-09
-3.59003e-09
-3.90072e-09
5.53495e-10
-4.14352e-09
4.91762e-09
-4.36413e-09
9.50409e-09
-4.58647e-09
1.43122e-08
-4.80807e-09
1.93287e-08
-5.01652e-09
2.45465e-08
-5.21777e-09
2.99471e-08
-5.4006e-09
3.55185e-08
-5.57145e-09
4.12418e-08
-5.72334e-09
4.70972e-08
-5.85537e-09
5.30643e-08
-5.96706e-09
5.91203e-08
-6.05602e-09
6.52406e-08
-6.12026e-09
7.13991e-08
-6.15851e-09
7.75685e-08
-6.16943e-09
8.37206e-08
-6.15204e-09
8.98265e-08
-6.10596e-09
9.58575e-08
-6.03102e-09
1.01785e-07
-5.92757e-09
1.07582e-07
-5.79661e-09
1.13221e-07
-5.63954e-09
1.1868e-07
-5.45839e-09
1.23936e-07
-5.25586e-09
1.28971e-07
-5.03539e-09
1.33772e-07
-4.80102e-09
1.38329e-07
-4.55722e-09
1.42638e-07
-4.30897e-09
1.467e-07
-4.06163e-09
1.5052e-07
-3.82068e-09
1.54112e-07
-3.59156e-09
1.57491e-07
-3.37934e-09
1.6068e-07
-3.18832e-09
1.63701e-07
-3.02178e-09
1.66583e-07
-2.88161e-09
1.69351e-07
-2.76809e-09
1.72031e-07
-2.67969e-09
1.74644e-07
-2.61299e-09
1.77207e-07
-2.56279e-09
1.79729e-07
-2.52253e-09
1.82214e-07
-2.48507e-09
1.84658e-07
-2.44381e-09
1.87052e-07
-2.39426e-09
1.89388e-07
-2.33555e-09
1.91659e-07
-2.27094e-09
1.93865e-07
-2.20654e-09
1.96014e-07
-2.14901e-09
1.98117e-07
-2.10258e-09
2.00183e-07
-2.06619e-09
2.02215e-07
-2.03145e-09
2.04196e-07
-1.98169e-09
2.0609e-07
-1.8941e-09
-1.74491e-09
2.07835e-07
-1.93791e-09
2.4481e-09
-4.64978e-09
3.61457e-09
-7.45356e-09
3.80827e-09
-1.03043e-08
3.91887e-09
-1.32098e-08
4.04693e-09
-1.61771e-08
4.19196e-09
-1.92099e-08
4.3472e-09
-2.23076e-08
4.5047e-09
-2.54661e-08
4.65645e-09
-2.86774e-08
4.7946e-09
-3.193e-08
4.91227e-09
-3.52095e-08
5.0034e-09
-3.84991e-08
5.0629e-09
-4.17798e-08
5.08704e-09
-4.50311e-08
5.07273e-09
-4.82319e-08
5.0184e-09
-5.13605e-08
4.92346e-09
-5.43953e-08
4.78811e-09
-5.73153e-08
4.61341e-09
-6.01e-08
4.401e-09
-6.27299e-08
4.15282e-09
-6.51866e-08
3.87105e-09
-6.74528e-08
3.55815e-09
-6.95121e-08
3.21654e-09
-7.13497e-08
2.84869e-09
-7.29518e-08
2.45699e-09
-7.43063e-08
2.04347e-09
-7.54017e-08
1.60942e-09
-7.62263e-08
1.15572e-09
-7.67677e-08
6.82939e-10
-7.70138e-08
1.9158e-10
-7.69547e-08
-3.13354e-10
-7.65828e-08
-8.28416e-10
-7.58911e-08
-1.35548e-09
-7.48714e-08
-1.89476e-09
-7.35163e-08
-2.44556e-09
-7.18187e-08
-3.00734e-09
-6.97718e-08
-3.57946e-09
-6.73697e-08
-4.16123e-09
-6.46068e-08
-4.75188e-09
-6.14783e-08
-5.35044e-09
-5.79802e-08
-5.95575e-09
-5.41096e-08
-6.56643e-09
-4.98646e-08
-7.18085e-09
-4.52444e-08
-7.79713e-09
-4.02498e-08
-8.41321e-09
-3.48828e-08
-9.02685e-09
-2.91477e-08
-9.63586e-09
-2.30534e-08
-1.02379e-08
-1.65977e-08
-1.08198e-08
-9.79469e-09
-1.13895e-08
-2.65769e-09
-1.19451e-08
4.80368e-09
-1.24779e-08
1.25623e-08
-1.29764e-08
2.06069e-08
-1.34452e-08
2.89214e-08
-1.3886e-08
3.74795e-08
-1.42814e-08
4.62561e-08
-1.46319e-08
5.52238e-08
-1.49348e-08
6.43537e-08
-1.5186e-08
7.36148e-08
-1.53813e-08
8.29752e-08
-1.55189e-08
9.24012e-08
-1.55955e-08
1.01858e-07
-1.56093e-08
1.11312e-07
-1.55594e-08
1.20727e-07
-1.54457e-08
1.30068e-07
-1.52688e-08
1.39302e-07
-1.50308e-08
1.48397e-07
-1.47346e-08
1.57323e-07
-1.43847e-08
1.66054e-07
-1.39864e-08
1.74565e-07
-1.35471e-08
1.82839e-07
-1.3075e-08
1.90862e-07
-1.25795e-08
1.98624e-07
-1.20713e-08
2.06124e-07
-1.15614e-08
2.13365e-07
-1.10617e-08
2.20357e-07
-1.05836e-08
2.27115e-07
-1.01378e-08
2.3366e-07
-9.73364e-09
2.40017e-07
-9.37835e-09
2.46212e-07
-9.07623e-09
2.52272e-07
-8.82833e-09
2.58224e-07
-8.6319e-09
2.64091e-07
-8.48024e-09
2.69891e-07
-8.36275e-09
2.75634e-07
-8.26557e-09
2.81322e-07
-8.17286e-09
2.86947e-07
-8.06878e-09
2.92493e-07
-7.94064e-09
2.9794e-07
-7.78257e-09
3.03267e-07
-7.59775e-09
3.08458e-07
-7.39739e-09
3.13506e-07
-7.19725e-09
3.18416e-07
-7.01243e-09
3.23202e-07
-6.85169e-09
3.27883e-07
-6.71238e-09
3.3248e-07
-6.57916e-09
3.37007e-07
-6.42148e-09
-6.19936e-09
3.41462e-07
-2.46735e-09
4.91546e-09
-5.82255e-09
6.96977e-09
-9.26652e-09
7.25224e-09
-1.27516e-08
7.40395e-09
-1.62843e-08
7.57961e-09
-1.98708e-08
7.77848e-09
-2.35143e-08
7.99072e-09
-2.72143e-08
8.20464e-09
-3.09664e-08
8.40861e-09
-3.47633e-08
8.59144e-09
-3.8594e-08
8.74299e-09
-4.24448e-08
8.85426e-09
-4.62997e-08
8.91773e-09
-5.01401e-08
8.92743e-09
-5.39464e-08
8.87905e-09
-5.76979e-08
8.76989e-09
-6.13732e-08
8.59878e-09
-6.49509e-08
8.3658e-09
-6.84097e-08
8.07219e-09
-7.17287e-08
7.71998e-09
-7.48876e-08
7.31174e-09
-7.7867e-08
6.85046e-09
-8.06483e-08
6.33944e-09
-8.32138e-08
5.78202e-09
-8.55467e-08
5.1816e-09
-8.76312e-08
4.54152e-09
-8.94525e-08
3.86481e-09
-9.0997e-08
3.15387e-09
-9.22519e-08
2.41063e-09
-9.32056e-08
1.63662e-09
-9.38471e-08
8.33038e-10
-9.41625e-08
2.06569e-12
-9.41384e-08
-8.52455e-10
-9.37661e-08
-1.72781e-09
-9.30361e-08
-2.62476e-09
-9.19396e-08
-3.54211e-09
-9.04681e-08
-4.47875e-09
-8.86143e-08
-5.43328e-09
-8.63712e-08
-6.40439e-09
-8.37327e-08
-7.39035e-09
-8.06938e-08
-8.3893e-09
-7.72506e-08
-9.39903e-09
-7.34e-08
-1.0417e-08
-6.91406e-08
-1.14402e-08
-6.44722e-08
-1.24655e-08
-5.93964e-08
-1.34891e-08
-5.39162e-08
-1.4507e-08
-4.80369e-08
-1.55151e-08
-4.17665e-08
-1.65083e-08
-3.51093e-08
-1.7477e-08
-2.80779e-08
-1.84209e-08
-2.06871e-08
-1.93358e-08
-1.29522e-08
-2.02128e-08
-4.886e-09
-2.10426e-08
3.49433e-09
-2.18255e-08
1.21508e-08
-2.25424e-08
2.1072e-08
-2.32027e-08
3.02328e-08
-2.37927e-08
3.96032e-08
-2.43052e-08
4.9153e-08
-2.47358e-08
5.88511e-08
-2.50794e-08
6.86643e-08
-2.53321e-08
7.85586e-08
-2.54898e-08
8.84995e-08
-2.55502e-08
9.84517e-08
-2.55116e-08
1.0838e-07
-2.5374e-08
1.1825e-07
-2.51383e-08
1.28027e-07
-2.48077e-08
1.37679e-07
-2.43867e-08
1.47176e-07
-2.38816e-08
1.5649e-07
-2.3301e-08
1.65599e-07
-2.26555e-08
1.74481e-07
-2.19573e-08
1.83122e-07
-2.12209e-08
1.91513e-07
-2.04621e-08
1.9965e-07
-1.96979e-08
2.07534e-07
-1.8946e-08
2.15174e-07
-1.8224e-08
2.22585e-07
-1.75482e-08
2.29784e-07
-1.6933e-08
2.36795e-07
-1.63895e-08
2.43644e-07
-1.59247e-08
2.50356e-07
-1.55404e-08
2.56957e-07
-1.52327e-08
2.63468e-07
-1.49916e-08
2.69906e-07
-1.48009e-08
2.7628e-07
-1.4639e-08
2.82588e-07
-1.44809e-08
2.88819e-07
-1.43e-08
2.94952e-07
-1.40741e-08
3.0096e-07
-1.37904e-08
3.06813e-07
-1.34506e-08
3.12486e-07
-1.30706e-08
3.17965e-07
-1.26766e-08
3.23251e-07
-1.22984e-08
3.2836e-07
-1.19605e-08
3.33324e-07
-1.16756e-08
3.38186e-07
-1.14416e-08
3.43004e-07
-1.124e-08
-1.10216e-08
3.47827e-07
-2.60471e-09
7.52017e-09
-6.12161e-09
1.04867e-08
-9.73461e-09
1.08652e-08
-1.33934e-08
1.10628e-08
-1.71046e-08
1.12907e-08
-2.08752e-08
1.15491e-08
-2.4709e-08
1.18245e-08
-2.86061e-08
1.21018e-08
-3.25629e-08
1.23653e-08
-3.65718e-08
1.26004e-08
-4.06223e-08
1.27934e-08
-4.47004e-08
1.29324e-08
-4.87898e-08
1.30072e-08
-5.28721e-08
1.30097e-08
-5.69271e-08
1.2934e-08
-6.09337e-08
1.27765e-08
-6.48702e-08
1.25353e-08
-6.87145e-08
1.22102e-08
-7.24449e-08
1.18025e-08
-7.60395e-08
1.13146e-08
-7.94775e-08
1.07497e-08
-8.27385e-08
1.01114e-08
-8.58029e-08
9.40387e-09
-8.86521e-08
8.63123e-09
-9.12683e-08
7.79775e-09
-9.36344e-08
6.9076e-09
-9.57342e-08
5.96465e-09
-9.75526e-08
4.97226e-09
-9.90754e-08
3.9334e-09
-1.00289e-07
2.85069e-09
-1.01183e-07
1.72649e-09
-1.01744e-07
5.63007e-10
-1.01958e-07
-6.38032e-10
-1.01815e-07
-1.8709e-09
-1.01304e-07
-3.13567e-09
-1.00416e-07
-4.4304e-09
-9.91416e-08
-5.75312e-09
-9.74731e-08
-7.10181e-09
-9.54033e-08
-8.47415e-09
-9.29261e-08
-9.86759e-09
-9.00362e-08
-1.12791e-08
-8.67298e-08
-1.27054e-08
-8.30041e-08
-1.41427e-08
-7.88578e-08
-1.55866e-08
-7.42909e-08
-1.70323e-08
-6.93055e-08
-1.84745e-08
-6.3905e-08
-1.99075e-08
-5.80952e-08
-2.1325e-08
-5.18838e-08
-2.27197e-08
-4.52781e-08
-2.40826e-08
-3.82904e-08
-2.54086e-08
-3.09356e-08
-2.66907e-08
-2.32294e-08
-2.7919e-08
-1.51882e-08
-2.90838e-08
-6.83487e-09
-3.01788e-08
1.81385e-09
-3.11911e-08
1.07248e-08
-3.21136e-08
1.98774e-08
-3.29454e-08
2.92414e-08
-3.36691e-08
3.87858e-08
-3.42802e-08
4.84793e-08
-3.47729e-08
5.82881e-08
-3.51408e-08
6.81775e-08
-3.53792e-08
7.81125e-08
-3.54851e-08
8.80574e-08
-3.54565e-08
9.79766e-08
-3.52932e-08
1.07835e-07
-3.49967e-08
1.17599e-07
-3.45712e-08
1.27235e-07
-3.40229e-08
1.36713e-07
-3.336e-08
1.46006e-07
-3.25939e-08
1.55089e-07
-3.17388e-08
1.63943e-07
-3.0811e-08
1.72552e-07
-2.98295e-08
1.80905e-07
-2.88156e-08
1.88999e-07
-2.7792e-08
1.96835e-07
-2.67822e-08
2.04421e-07
-2.58097e-08
2.1177e-07
-2.48966e-08
2.18899e-07
-2.40621e-08
2.2583e-07
-2.33213e-08
2.32589e-07
-2.26833e-08
2.39199e-07
-2.21505e-08
2.45684e-07
-2.17172e-08
2.52062e-07
-2.13694e-08
2.58345e-07
-2.10844e-08
2.64538e-07
-2.08318e-08
2.70633e-07
-2.05758e-08
2.76611e-07
-2.02782e-08
2.82443e-07
-1.99059e-08
2.88091e-07
-1.94391e-08
2.9352e-07
-1.88786e-08
2.98697e-07
-1.82481e-08
3.03609e-07
-1.75882e-08
3.08257e-07
-1.69465e-08
3.12663e-07
-1.63663e-08
3.16867e-07
-1.58796e-08
3.20926e-07
-1.55013e-08
3.24918e-07
-1.52315e-08
-1.50275e-08
3.28924e-07
-2.63313e-09
1.01533e-08
-6.18098e-09
1.40345e-08
-9.83185e-09
1.45161e-08
-1.35342e-08
1.47651e-08
-1.72949e-08
1.50514e-08
-2.11218e-08
1.5376e-08
-2.50194e-08
1.57222e-08
-2.89881e-08
1.60705e-08
-3.30243e-08
1.64015e-08
-3.71203e-08
1.66965e-08
-4.12652e-08
1.69383e-08
-4.54446e-08
1.71117e-08
-4.96414e-08
1.7204e-08
-5.38368e-08
1.7205e-08
-5.80099e-08
1.71072e-08
-6.21391e-08
1.69057e-08
-6.62021e-08
1.65982e-08
-7.01761e-08
1.61842e-08
-7.40388e-08
1.56652e-08
-7.7768e-08
1.50439e-08
-8.13422e-08
1.43239e-08
-8.47405e-08
1.35097e-08
-8.79429e-08
1.26062e-08
-9.09301e-08
1.16185e-08
-9.36838e-08
1.05515e-08
-9.61865e-08
9.41027e-09
-9.84214e-08
8.19957e-09
-1.00373e-07
6.92361e-09
-1.02026e-07
5.58623e-09
-1.03366e-07
4.19103e-09
-1.04381e-07
2.74144e-09
-1.05058e-07
1.24034e-09
-1.05386e-07
-3.10392e-10
-1.05351e-07
-1.90535e-09
-1.04944e-07
-3.54309e-09
-1.04154e-07
-5.22071e-09
-1.02971e-07
-6.93549e-09
-1.01389e-07
-8.68457e-09
-9.9398e-08
-1.04647e-08
-9.69933e-08
-1.22723e-08
-9.41692e-08
-1.41032e-08
-9.09216e-08
-1.5953e-08
-8.72479e-08
-1.78164e-08
-8.31467e-08
-1.96878e-08
-7.86183e-08
-2.15607e-08
-7.36647e-08
-2.34281e-08
-6.82898e-08
-2.52825e-08
-6.24992e-08
-2.71155e-08
-5.63008e-08
-2.89182e-08
-4.97032e-08
-3.06802e-08
-4.27186e-08
-3.23931e-08
-3.53619e-08
-3.40474e-08
-2.76493e-08
-3.56317e-08
-1.95986e-08
-3.71345e-08
-1.12317e-08
-3.85457e-08
-2.57008e-09
-3.98527e-08
6.36179e-09
-4.10455e-08
1.55335e-08
-4.2117e-08
2.49173e-08
-4.3053e-08
3.44829e-08
-4.38458e-08
4.41969e-08
-4.44869e-08
5.40256e-08
-4.49695e-08
6.39336e-08
-4.52873e-08
7.38852e-08
-4.54367e-08
8.38441e-08
-4.54154e-08
9.37744e-08
-4.52235e-08
1.0364e-07
-4.48623e-08
1.13406e-07
-4.43377e-08
1.23041e-07
-4.36569e-08
1.32511e-07
-4.28307e-08
1.4179e-07
-4.1873e-08
1.50853e-07
-4.08013e-08
1.59678e-07
-3.96362e-08
1.6825e-07
-3.84014e-08
1.76557e-07
-3.71232e-08
1.84596e-07
-3.58303e-08
1.92366e-07
-3.45521e-08
1.99874e-07
-3.33182e-08
2.07134e-07
-3.21564e-08
2.14163e-07
-3.1091e-08
2.20983e-07
-3.01409e-08
2.27617e-07
-2.93176e-08
2.3409e-07
-2.86236e-08
2.40424e-07
-2.80509e-08
2.46635e-07
-2.75811e-08
2.52735e-07
-2.71841e-08
2.58723e-07
-2.68195e-08
2.64586e-07
-2.64387e-08
2.70298e-07
-2.59904e-08
2.7582e-07
-2.54285e-08
2.81107e-07
-2.47253e-08
2.8611e-07
-2.38821e-08
2.90795e-07
-2.29334e-08
2.95145e-07
-2.19384e-08
2.99166e-07
-2.09668e-08
3.02883e-07
-2.00838e-08
3.06346e-07
-1.93425e-08
3.09622e-07
-1.87768e-08
3.12797e-07
-1.84071e-08
-1.82045e-08
3.15974e-07
-2.62995e-09
1.27833e-08
-6.17358e-09
1.75781e-08
-9.82496e-09
1.81675e-08
-1.35324e-08
1.84725e-08
-1.73034e-08
1.88225e-08
-2.11466e-08
1.92192e-08
-2.50667e-08
1.96423e-08
-2.90644e-08
2.00681e-08
-3.31358e-08
2.04729e-08
-3.72731e-08
2.08338e-08
-4.14647e-08
2.11299e-08
-4.56956e-08
2.13426e-08
-4.99482e-08
2.14566e-08
-5.42027e-08
2.14596e-08
-5.84379e-08
2.13423e-08
-6.26313e-08
2.10991e-08
-6.676e-08
2.07269e-08
-7.0801e-08
2.02252e-08
-7.47312e-08
1.95954e-08
-7.85282e-08
1.88409e-08
-8.21701e-08
1.79658e-08
-8.56357e-08
1.69754e-08
-8.89049e-08
1.58754e-08
-9.1958e-08
1.46716e-08
-9.47766e-08
1.33701e-08
-9.73429e-08
1.19766e-08
-9.96401e-08
1.04967e-08
-1.01652e-07
8.93559e-09
-1.03364e-07
7.29785e-09
-1.04761e-07
5.58794e-09
-1.05829e-07
3.8101e-09
-1.06557e-07
1.96803e-09
-1.06932e-07
6.49119e-11
-1.06943e-07
-1.89499e-09
-1.06577e-07
-3.90867e-09
-1.05825e-07
-5.97251e-09
-1.04678e-07
-8.08298e-09
-1.03126e-07
-1.02363e-08
-1.01162e-07
-1.24282e-08
-9.87806e-08
-1.46542e-08
-9.59748e-08
-1.6909e-08
-9.27411e-08
-1.91867e-08
-8.90767e-08
-2.14809e-08
-8.49802e-08
-2.37843e-08
-8.04519e-08
-2.6089e-08
-7.54938e-08
-2.83862e-08
-7.01098e-08
-3.06665e-08
-6.43057e-08
-3.29197e-08
-5.80891e-08
-3.51348e-08
-5.14694e-08
-3.72998e-08
-4.44588e-08
-3.94037e-08
-3.7072e-08
-4.14342e-08
-2.93254e-08
-4.33783e-08
-2.12376e-08
-4.52223e-08
-1.28298e-08
-4.69534e-08
-4.12495e-09
-4.85576e-08
4.85152e-09
-5.0022e-08
1.4072e-08
-5.13375e-08
2.35065e-08
-5.24875e-08
3.31235e-08
-5.34628e-08
4.28903e-08
-5.42536e-08
5.27724e-08
-5.48517e-08
6.27337e-08
-5.52485e-08
7.27381e-08
-5.54411e-08
8.2749e-08
-5.54263e-08
9.27292e-08
-5.52036e-08
1.02643e-07
-5.47757e-08
1.12454e-07
-5.41486e-08
1.22128e-07
-5.33314e-08
1.31634e-07
-5.23368e-08
1.40943e-07
-5.11817e-08
1.50028e-07
-4.98866e-08
1.58868e-07
-4.84763e-08
1.67446e-07
-4.69792e-08
1.7575e-07
-4.54272e-08
1.83774e-07
-4.38545e-08
1.91519e-07
-4.2297e-08
1.98992e-07
-4.07907e-08
2.06205e-07
-3.93696e-08
2.13177e-07
-3.80633e-08
2.19931e-07
-3.6895e-08
2.26492e-07
-3.58785e-08
2.32885e-07
-3.50166e-08
2.39133e-07
-3.42992e-08
2.45255e-07
-3.3703e-08
2.51261e-07
-3.31901e-08
2.57151e-07
-3.27091e-08
2.62909e-07
-3.21975e-08
2.68506e-07
-3.15874e-08
2.73895e-07
-3.08168e-08
2.79017e-07
-2.98479e-08
2.83818e-07
-2.86829e-08
2.88254e-07
-2.73696e-08
2.92306e-07
-2.59898e-08
2.95979e-07
-2.46397e-08
2.99306e-07
-2.34107e-08
3.02342e-07
-2.23788e-08
3.05164e-07
-2.15991e-08
3.07873e-07
-2.11163e-08
-2.09245e-08
3.10593e-07
-2.61249e-09
1.53957e-08
-6.13773e-09
2.11034e-08
-9.77449e-09
2.18042e-08
-1.34717e-08
2.21697e-08
-1.72378e-08
2.25886e-08
-2.10818e-08
2.30632e-08
-2.50091e-08
2.35696e-08
-2.90202e-08
2.40792e-08
-3.31112e-08
2.45639e-08
-3.72737e-08
2.49963e-08
-4.14955e-08
2.53517e-08
-4.5761e-08
2.56081e-08
-5.00518e-08
2.57474e-08
-5.43472e-08
2.5755e-08
-5.86253e-08
2.56204e-08
-6.28628e-08
2.53367e-08
-6.70363e-08
2.49004e-08
-7.11222e-08
2.4311e-08
-7.50969e-08
2.35702e-08
-7.89378e-08
2.26817e-08
-8.26227e-08
2.16506e-08
-8.61302e-08
2.04829e-08
-8.94399e-08
1.91851e-08
-9.25322e-08
1.7764e-08
-9.53887e-08
1.62265e-08
-9.79914e-08
1.45793e-08
-1.00323e-07
1.28288e-08
-1.02369e-07
1.0981e-08
-1.04112e-07
9.04144e-09
-1.0554e-07
7.01525e-09
-1.06637e-07
4.90741e-09
-1.07391e-07
2.72238e-09
-1.07791e-07
4.64357e-10
-1.07824e-07
-1.86237e-09
-1.07478e-07
-4.25396e-09
-1.06745e-07
-6.70616e-09
-1.05613e-07
-9.21459e-09
-1.04075e-07
-1.17746e-08
-1.02122e-07
-1.43809e-08
-9.97482e-08
-1.7028e-08
-9.69476e-08
-1.97095e-08
-9.37161e-08
-2.24182e-08
-9.00506e-08
-2.51464e-08
-8.59498e-08
-2.78851e-08
-8.14137e-08
-3.0625e-08
-7.64445e-08
-3.33555e-08
-7.10457e-08
-3.60652e-08
-6.52232e-08
-3.87422e-08
-5.89845e-08
-4.13734e-08
-5.23394e-08
-4.3945e-08
-4.52999e-08
-4.64432e-08
-3.78804e-08
-4.88537e-08
-3.00976e-08
-5.11611e-08
-2.19701e-08
-5.33498e-08
-1.35192e-08
-5.54043e-08
-4.7681e-09
-5.73088e-08
4.25804e-09
-5.90481e-08
1.35297e-08
-6.06092e-08
2.30187e-08
-6.19765e-08
3.26924e-08
-6.31365e-08
4.25178e-08
-6.4079e-08
5.24585e-08
-6.47923e-08
6.24818e-08
-6.52719e-08
7.25476e-08
-6.55069e-08
8.26193e-08
-6.5498e-08
9.26592e-08
-6.52435e-08
1.02631e-07
-6.47472e-08
1.12497e-07
-6.40149e-08
1.22223e-07
-6.30575e-08
1.31776e-07
-6.189e-08
1.41126e-07
-6.05315e-08
1.50246e-07
-5.90062e-08
1.59112e-07
-5.73426e-08
1.67707e-07
-5.55742e-08
1.76018e-07
-5.37383e-08
1.84039e-07
-5.18754e-08
1.9177e-07
-5.00281e-08
1.99218e-07
-4.82392e-08
2.06398e-07
-4.65493e-08
2.13329e-07
-4.49943e-08
2.20036e-07
-4.36019e-08
2.26546e-07
-4.23887e-08
2.32888e-07
-4.13579e-08
2.39086e-07
-4.04977e-08
2.45163e-07
-3.97796e-08
2.51131e-07
-3.9158e-08
2.56992e-07
-3.85702e-08
2.62732e-07
-3.79375e-08
2.68317e-07
-3.71722e-08
2.73692e-07
-3.61925e-08
2.78792e-07
-3.4947e-08
2.83546e-07
-3.34377e-08
2.87904e-07
-3.17277e-08
2.91841e-07
-2.99264e-08
2.95363e-07
-2.81621e-08
2.98508e-07
-2.65552e-08
3.01336e-07
-2.5207e-08
3.03933e-07
-2.41958e-08
3.06414e-07
-2.35972e-08
-2.34455e-08
3.08935e-07
-2.58574e-09
1.79815e-08
-6.0842e-09
2.46018e-08
-9.69789e-09
2.54179e-08
-1.33768e-08
2.58487e-08
-1.71306e-08
2.63424e-08
-2.09691e-08
2.69018e-08
-2.48979e-08
2.74983e-08
-2.89175e-08
2.80989e-08
-3.30238e-08
2.86702e-08
-3.72079e-08
2.91805e-08
-4.1457e-08
2.96008e-08
-4.57543e-08
2.99055e-08
-5.00807e-08
3.00737e-08
-5.44144e-08
3.00888e-08
-5.87327e-08
2.99387e-08
-6.30115e-08
2.96155e-08
-6.72265e-08
2.91154e-08
-7.13536e-08
2.8438e-08
-7.53688e-08
2.75855e-08
-7.92491e-08
2.6562e-08
-8.29719e-08
2.53735e-08
-8.65158e-08
2.40268e-08
-8.98603e-08
2.25296e-08
-9.29858e-08
2.08895e-08
-9.58737e-08
1.91143e-08
-9.85062e-08
1.72118e-08
-1.00867e-07
1.51892e-08
-1.02939e-07
1.30533e-08
-1.04708e-07
1.08104e-08
-1.06159e-07
8.46653e-09
-1.07279e-07
6.02729e-09
-1.08054e-07
3.49785e-09
-1.08473e-07
8.83156e-10
-1.08524e-07
-1.81198e-09
-1.08195e-07
-4.58305e-09
-1.07475e-07
-7.42519e-09
-1.06357e-07
-1.03332e-08
-1.0483e-07
-1.33017e-08
-1.02886e-07
-1.63244e-08
-1.00519e-07
-1.93948e-08
-9.77238e-08
-2.25052e-08
-9.44946e-08
-2.56474e-08
-9.08288e-08
-2.88121e-08
-8.67249e-08
-3.19891e-08
-8.21827e-08
-3.51671e-08
-7.72042e-08
-3.8334e-08
-7.17929e-08
-4.14766e-08
-6.59544e-08
-4.45808e-08
-5.96962e-08
-4.76316e-08
-5.30279e-08
-5.06132e-08
-4.59616e-08
-5.35096e-08
-3.85115e-08
-5.63038e-08
-3.06942e-08
-5.89784e-08
-2.25285e-08
-6.15155e-08
-1.40355e-08
-6.38973e-08
-5.23872e-09
-6.61056e-08
3.83521e-09
-6.8122e-08
1.3161e-08
-6.9935e-08
2.27053e-08
-7.15208e-08
3.24375e-08
-7.28687e-08
4.23233e-08
-7.39648e-08
5.23281e-08
-7.47971e-08
6.24142e-08
-7.5358e-08
7.25445e-08
-7.56371e-08
8.26807e-08
-7.56342e-08
9.27846e-08
-7.53475e-08
1.02818e-07
-7.47804e-08
1.12743e-07
-7.39403e-08
1.22525e-07
-7.2839e-08
1.32128e-07
-7.14935e-08
1.41522e-07
-6.99255e-08
1.50679e-07
-6.81624e-08
1.59573e-07
-6.6237e-08
1.68186e-07
-6.41876e-08
1.76505e-07
-6.20571e-08
1.84523e-07
-5.98929e-08
1.92239e-07
-5.77447e-08
1.99663e-07
-5.56627e-08
2.06809e-07
-5.36952e-08
2.13699e-07
-5.18844e-08
2.2036e-07
-5.02634e-08
2.26824e-07
-4.8852e-08
2.3312e-07
-4.76543e-08
2.39279e-07
-4.66567e-08
2.45326e-07
-4.58264e-08
2.51278e-07
-4.51099e-08
2.5714e-07
-4.44325e-08
2.629e-07
-4.36976e-08
2.68522e-07
-4.2794e-08
2.73944e-07
-4.16147e-08
2.79087e-07
-4.00898e-08
2.83868e-07
-3.8219e-08
2.88224e-07
-3.60832e-08
2.92123e-07
-3.38261e-08
2.95575e-07
-3.16138e-08
2.9862e-07
-2.95997e-08
3.01323e-07
-2.79105e-08
3.03775e-07
-2.6648e-08
3.06106e-07
-2.59277e-08
-2.58546e-08
3.08515e-07
-2.5517e-09
2.05332e-08
-6.01709e-09
2.80672e-08
-9.60184e-09
2.90027e-08
-1.32574e-08
2.95042e-08
-1.69948e-08
3.00797e-08
-2.08246e-08
3.07316e-08
-2.47529e-08
3.14266e-08
-2.87803e-08
3.21263e-08
-3.29022e-08
3.27921e-08
-3.71092e-08
3.33875e-08
-4.13875e-08
3.3879e-08
-4.57194e-08
3.42374e-08
-5.00844e-08
3.44388e-08
-5.44599e-08
3.44643e-08
-5.8822e-08
3.43007e-08
-6.31455e-08
3.3939e-08
-6.74055e-08
3.33755e-08
-7.15771e-08
3.26096e-08
-7.56357e-08
3.16441e-08
-7.9558e-08
3.04842e-08
-8.33212e-08
2.91366e-08
-8.69036e-08
2.76092e-08
-9.02847e-08
2.59106e-08
-9.34448e-08
2.40496e-08
-9.63654e-08
2.2035e-08
-9.90288e-08
1.98753e-08
-1.01418e-07
1.75788e-08
-1.03518e-07
1.51531e-08
-1.05313e-07
1.26054e-08
-1.06789e-07
9.94244e-09
-1.07932e-07
7.17043e-09
-1.0873e-07
4.29523e-09
-1.09169e-07
1.32243e-09
-1.09238e-07
-1.74255e-09
-1.08927e-07
-4.89455e-09
-1.08224e-07
-8.12809e-09
-1.0712e-07
-1.14373e-08
-1.05606e-07
-1.48159e-08
-1.03673e-07
-1.82568e-08
-1.01316e-07
-2.17524e-08
-9.85269e-08
-2.52941e-08
-9.53021e-08
-2.88722e-08
-9.16381e-08
-3.24761e-08
-8.7533e-08
-3.60942e-08
-8.29866e-08
-3.97135e-08
-7.80005e-08
-4.33201e-08
-7.2578e-08
-4.6899e-08
-6.67245e-08
-5.04342e-08
-6.04475e-08
-5.39086e-08
-5.37564e-08
-5.73043e-08
-4.6663e-08
-6.06029e-08
-3.91816e-08
-6.37852e-08
-3.13286e-08
-6.68314e-08
-2.31228e-08
-6.97213e-08
-1.45854e-08
-7.24347e-08
-5.73955e-09
-7.49514e-08
3.39116e-09
-7.72527e-08
1.27698e-08
-7.93136e-08
2.23741e-08
-8.11252e-08
3.21698e-08
-8.26643e-08
4.21225e-08
-8.39176e-08
5.21959e-08
-8.48705e-08
6.23518e-08
-8.55139e-08
7.2554e-08
-8.58393e-08
8.27618e-08
-8.5842e-08
9.29362e-08
-8.55218e-08
1.03038e-07
-8.48823e-08
1.13029e-07
-8.39314e-08
1.22872e-07
-8.2682e-08
1.32532e-07
-8.1153e-08
1.41975e-07
-7.93687e-08
1.51172e-07
-7.73596e-08
1.60098e-07
-7.51627e-08
1.68731e-07
-7.28213e-08
1.77059e-07
-7.03845e-08
1.85072e-07
-6.79066e-08
1.92773e-07
-6.5445e-08
2.00169e-07
-6.30585e-08
2.07277e-07
-6.08033e-08
2.14121e-07
-5.87291e-08
2.20733e-07
-5.68749e-08
2.27145e-07
-5.52642e-08
2.33393e-07
-5.39026e-08
2.39512e-07
-5.2775e-08
2.4553e-07
-5.18446e-08
2.51471e-07
-5.10507e-08
2.57344e-07
-5.03061e-08
2.63142e-07
-4.94949e-08
2.68825e-07
-4.84776e-08
2.74325e-07
-4.71146e-08
2.79545e-07
-4.53101e-08
2.84385e-07
-4.30588e-08
2.88766e-07
-4.04643e-08
2.92652e-07
-3.77121e-08
2.96052e-07
-3.50139e-08
2.99012e-07
-3.25597e-08
3.01603e-07
-3.05007e-08
3.03912e-07
-2.89577e-08
3.06081e-07
-2.80961e-08
-2.81386e-08
3.08365e-07
-2.51095e-09
2.30441e-08
-5.93749e-09
3.14938e-08
-9.48816e-09
3.25533e-08
-1.3116e-08
3.31321e-08
-1.68338e-08
3.37975e-08
-2.0653e-08
3.45508e-08
-2.45802e-08
3.53538e-08
-2.8616e-08
3.61622e-08
-3.27555e-08
3.69316e-08
-3.69884e-08
3.76204e-08
-4.12997e-08
3.81903e-08
-4.56708e-08
3.86084e-08
-5.00796e-08
3.88476e-08
-5.45024e-08
3.88871e-08
-5.89138e-08
3.87121e-08
-6.32878e-08
3.8313e-08
-6.75984e-08
3.7686e-08
-7.18198e-08
3.6831e-08
-7.59272e-08
3.57515e-08
-7.98964e-08
3.44535e-08
-8.37046e-08
3.29448e-08
-8.733e-08
3.12346e-08
-9.07517e-08
2.93324e-08
-9.39504e-08
2.72482e-08
-9.69074e-08
2.49919e-08
-9.96052e-08
2.25731e-08
-1.02027e-07
2.00008e-08
-1.04158e-07
1.72836e-08
-1.05982e-07
1.44294e-08
-1.07485e-07
1.14457e-08
-1.08654e-07
8.33948e-09
-1.09476e-07
5.1171e-09
-1.09938e-07
1.78478e-09
-1.10029e-07
-1.65149e-09
-1.09738e-07
-5.18588e-09
-1.09054e-07
-8.81234e-09
-1.07967e-07
-1.25244e-08
-1.06468e-07
-1.63148e-08
-1.04549e-07
-2.01759e-08
-1.02202e-07
-2.4099e-08
-9.94218e-08
-2.80742e-08
-9.6203e-08
-3.2091e-08
-9.2542e-08
-3.61371e-08
-8.84367e-08
-4.01995e-08
-8.38867e-08
-4.42636e-08
-7.88931e-08
-4.83137e-08
-7.34592e-08
-5.2333e-08
-6.759e-08
-5.63033e-08
-6.12929e-08
-6.02058e-08
-5.45771e-08
-6.40201e-08
-4.74543e-08
-6.77257e-08
-3.99386e-08
-7.1301e-08
-3.20462e-08
-7.47237e-08
-2.37961e-08
-7.79715e-08
-1.52093e-08
-8.10215e-08
-6.30949e-09
-8.38512e-08
2.87634e-09
-8.64386e-08
1.23223e-08
-8.87595e-08
2.19947e-08
-9.07976e-08
3.18621e-08
-9.25317e-08
4.18894e-08
-9.39449e-08
5.20402e-08
-9.50213e-08
6.22761e-08
-9.57498e-08
7.25582e-08
-9.61214e-08
8.28466e-08
-9.61304e-08
9.31007e-08
-9.5776e-08
1.0328e-07
-9.5062e-08
1.13346e-07
-9.39969e-08
1.23259e-07
-9.25949e-08
1.32982e-07
-9.08763e-08
1.42482e-07
-8.8868e-08
1.51726e-07
-8.66037e-08
1.60687e-07
-8.41245e-08
1.69345e-07
-8.14789e-08
1.77683e-07
-7.87223e-08
1.85693e-07
-7.59165e-08
1.93375e-07
-7.31274e-08
2.00739e-07
-7.04228e-08
2.07804e-07
-6.78682e-08
2.14597e-07
-6.55217e-08
2.21151e-07
-6.34289e-08
2.27505e-07
-6.16178e-08
2.33697e-07
-6.00955e-08
2.39769e-07
-5.88463e-08
2.45754e-07
-5.78299e-08
2.51682e-07
-5.6979e-08
2.57571e-07
-5.61948e-08
2.63416e-07
-5.53401e-08
2.6918e-07
-5.42415e-08
2.74782e-07
-5.27166e-08
2.80106e-07
-5.06337e-08
2.85026e-07
-4.79791e-08
2.89446e-07
-4.48846e-08
2.93323e-07
-4.15889e-08
2.96669e-07
-3.83595e-08
2.99536e-07
-3.54268e-08
3.01999e-07
-3.29636e-08
3.04139e-07
-3.1098e-08
3.06096e-07
-3.00534e-08
-3.02331e-08
3.08191e-07
-2.46334e-09
2.55075e-08
-5.84507e-09
3.48755e-08
-9.35632e-09
3.60646e-08
-1.29522e-08
3.6728e-08
-1.66473e-08
3.74926e-08
-2.04542e-08
3.83577e-08
-2.438e-08
3.92796e-08
-2.84255e-08
4.02076e-08
-3.25849e-08
4.1091e-08
-3.68473e-08
4.18827e-08
-4.11963e-08
4.25393e-08
-4.56118e-08
4.30239e-08
-5.00703e-08
4.33062e-08
-5.45466e-08
4.33633e-08
-5.90137e-08
4.31792e-08
-6.34446e-08
4.27439e-08
-6.7812e-08
4.20534e-08
-7.20895e-08
4.11085e-08
-7.62514e-08
3.99134e-08
-8.02732e-08
3.84754e-08
-8.41318e-08
3.68034e-08
-8.78051e-08
3.49079e-08
-9.12723e-08
3.27996e-08
-9.4514e-08
3.04899e-08
-9.75116e-08
2.79895e-08
-1.00248e-07
2.53092e-08
-1.02706e-07
2.2459e-08
-1.04871e-07
1.94482e-08
-1.06727e-07
1.62857e-08
-1.08261e-07
1.29797e-08
-1.09459e-07
9.53754e-09
-1.10308e-07
5.96644e-09
-1.10797e-07
2.27308e-09
-1.10912e-07
-1.536e-09
-1.10644e-07
-5.45437e-09
-1.09981e-07
-9.4754e-09
-1.08913e-07
-1.3592e-08
-1.07431e-07
-1.77963e-08
-1.05527e-07
-2.20798e-08
-1.03194e-07
-2.64327e-08
-1.00424e-07
-3.08443e-08
-9.7212e-08
-3.53026e-08
-9.35548e-08
-3.97943e-08
-8.94497e-08
-4.43046e-08
-8.48959e-08
-4.88174e-08
-7.98944e-08
-5.33152e-08
-7.4448e-08
-5.77793e-08
-6.85617e-08
-6.21897e-08
-6.22423e-08
-6.65251e-08
-5.54992e-08
-7.07633e-08
-4.83436e-08
-7.48812e-08
-4.07896e-08
-7.8855e-08
-3.28534e-08
-8.26599e-08
-2.45538e-08
-8.62711e-08
-1.59119e-08
-8.96634e-08
-6.9515e-09
-9.28115e-08
2.30078e-09
-9.56908e-08
1.1817e-08
-9.82758e-08
2.15657e-08
-1.00546e-07
3.15134e-08
-1.02479e-07
4.16246e-08
-1.04056e-07
5.18623e-08
-1.05259e-07
6.21875e-08
-1.06075e-07
7.256e-08
-1.06494e-07
8.29391e-08
-1.0651e-07
9.32831e-08
-1.0612e-07
1.03551e-07
-1.05329e-07
1.137e-07
-1.04147e-07
1.23692e-07
-1.02587e-07
1.33488e-07
-1.00672e-07
1.43052e-07
-9.84315e-08
1.5235e-07
-9.59017e-08
1.61353e-07
-9.31281e-08
1.70039e-07
-9.01644e-08
1.78389e-07
-8.70727e-08
1.86395e-07
-8.39226e-08
1.94057e-07
-8.07895e-08
2.01386e-07
-7.77513e-08
2.08401e-07
-7.48837e-08
2.15134e-07
-7.22544e-08
2.21622e-07
-6.99165e-08
2.27907e-07
-6.79031e-08
2.34035e-07
-6.62235e-08
2.4005e-07
-6.48618e-08
2.45996e-07
-6.37751e-08
2.51908e-07
-6.28912e-08
2.57813e-07
-6.21001e-08
2.63716e-07
-6.12427e-08
2.69579e-07
-6.01047e-08
2.7531e-07
-5.84473e-08
2.80765e-07
-5.6089e-08
2.85789e-07
-5.30028e-08
2.9026e-07
-4.93559e-08
2.94127e-07
-4.54559e-08
2.97408e-07
-4.16403e-08
3.00166e-07
-3.81855e-08
3.02483e-07
-3.52802e-08
3.04423e-07
-3.30381e-08
3.06106e-07
-3.17369e-08
-3.20333e-08
3.07907e-07
-2.4084e-09
2.79159e-08
-5.73867e-09
3.82058e-08
-9.20474e-09
3.95307e-08
-1.2764e-08
4.02873e-08
-1.64331e-08
4.11617e-08
-2.0226e-08
4.21505e-08
-2.41503e-08
4.32039e-08
-2.82066e-08
4.4264e-08
-3.23889e-08
4.52733e-08
-3.66847e-08
4.61785e-08
-4.10763e-08
4.6931e-08
-4.55421e-08
4.74896e-08
-5.00566e-08
4.78208e-08
-5.45929e-08
4.78996e-08
-5.91226e-08
4.77089e-08
-6.36171e-08
4.72383e-08
-6.8048e-08
4.64843e-08
-7.23879e-08
4.54484e-08
-7.66104e-08
4.4136e-08
-8.06907e-08
4.25556e-08
-8.46052e-08
4.07178e-08
-8.83316e-08
3.86343e-08
-9.18492e-08
3.63172e-08
-9.51384e-08
3.37791e-08
-9.8181e-08
3.10321e-08
-1.0096e-07
2.80878e-08
-1.03458e-07
2.49573e-08
-1.0566e-07
2.16508e-08
-1.07553e-07
1.81779e-08
-1.0912e-07
1.45475e-08
-1.10351e-07
1.07678e-08
-1.11231e-07
6.84627e-09
-1.11748e-07
2.79024e-09
-1.1189e-07
-1.39328e-09
-1.11647e-07
-5.69733e-09
-1.11008e-07
-1.01148e-08
-1.09962e-07
-1.46379e-08
-1.085e-07
-1.92583e-08
-1.06614e-07
-2.39665e-08
-1.04294e-07
-2.8752e-08
-1.01536e-07
-3.3603e-08
-9.83321e-08
-3.85062e-08
-9.46794e-08
-4.34471e-08
-9.05746e-08
-4.84093e-08
-8.60169e-08
-5.33751e-08
-8.10067e-08
-5.83254e-08
-7.55467e-08
-6.32394e-08
-6.96414e-08
-6.8095e-08
-6.32976e-08
-7.28689e-08
-5.65241e-08
-7.75367e-08
-4.93324e-08
-8.2073e-08
-4.17361e-08
-8.64513e-08
-3.37513e-08
-9.06447e-08
-2.53968e-08
-9.46256e-08
-1.66938e-08
-9.83664e-08
-7.66618e-09
-1.01839e-07
1.65959e-09
-1.05017e-07
1.12545e-08
-1.07871e-07
2.10875e-08
-1.10379e-07
3.11242e-08
-1.12516e-07
4.1328e-08
-1.1426e-07
5.16631e-08
-1.15594e-07
6.20874e-08
-1.16499e-07
7.25609e-08
-1.16968e-07