/*--------------------------------*- C++ -*----------------------------------*\
| =========                 |                                                 |
| \\      /  F ield         | OpenFOAM: The Open Source CFD Toolbox           |
|  \\    /   O peration     | Version:  2.4.0                                 |
|   \\  /    A nd           | Web:      www.OpenFOAM.org                      |
|    \\/     M anipulation  |                                                 |
\*---------------------------------------------------------------------------*/
FoamFile
{
    version     2.0;
    format      ascii;
    class       volVectorField;
    location    "0.323";
    object      U;
}
// * * * * * * * * * * * * * * * * * * * * * * * * * * * * * * * * * * * * * //

dimensions      [0 1 -1 0 0 0 0];

internalField   nonuniform List<vector> 
60000
(
(0.000795424 -0.000326069 0)
(0.00277483 -0.000338277 0)
(0.00480137 -0.000323497 0)
(0.006764 -0.00031898 0)
(0.0087072 -0.000318092 0)
(0.0106478 -0.000316906 0)
(0.0125852 -0.000315143 0)
(0.0145171 -0.000313041 0)
(0.0164421 -0.0003106 0)
(0.0183588 -0.000307774 0)
(0.0202653 -0.000304521 0)
(0.0221597 -0.000300783 0)
(0.0240395 -0.000296538 0)
(0.0259023 -0.000291762 0)
(0.0277453 -0.00028644 0)
(0.0295658 -0.000280584 0)
(0.0313608 -0.000274211 0)
(0.0331276 -0.000267364 0)
(0.0348635 -0.000260088 0)
(0.036566 -0.000252448 0)
(0.0382328 -0.000244467 0)
(0.0398616 -0.000236187 0)
(0.0414502 -0.000227653 0)
(0.0429968 -0.00021888 0)
(0.0444993 -0.000209866 0)
(0.0459558 -0.000200598 0)
(0.0473641 -0.000191057 0)
(0.0487219 -0.000181207 0)
(0.050027 -0.000170999 0)
(0.0512765 -0.000160391 0)
(0.0524678 -0.00014933 0)
(0.0535976 -0.000137759 0)
(0.0546626 -0.000125618 0)
(0.0556592 -0.000112866 0)
(0.0565835 -9.95025e-05 0)
(0.0574319 -8.55582e-05 0)
(0.0582008 -7.10802e-05 0)
(0.0588867 -5.61278e-05 0)
(0.0594867 -4.07887e-05 0)
(0.0599983 -2.51729e-05 0)
(0.0604199 -9.40789e-06 0)
(0.0607503 6.391e-06 0)
(0.0609893 2.21839e-05 0)
(0.0611369 3.80576e-05 0)
(0.0611961 5.58707e-05 0)
(0.0611571 7.24685e-05 0)
(0.0610259 8.71564e-05 0)
(0.0608116 9.99153e-05 0)
(0.0605209 0.000111051 0)
(0.0601586 0.000121757 0)
(0.0597284 0.000132214 0)
(0.0592342 0.000142308 0)
(0.0586801 0.000151983 0)
(0.05807 0.000161266 0)
(0.0574077 0.000170277 0)
(0.0566964 0.00017914 0)
(0.0559388 0.000188 0)
(0.0551372 0.000197005 0)
(0.0542934 0.000206282 0)
(0.0534087 0.000215952 0)
(0.0524841 0.000226093 0)
(0.0515204 0.000236712 0)
(0.0505182 0.000247758 0)
(0.0494786 0.000259077 0)
(0.048403 0.000270415 0)
(0.0472936 0.000281486 0)
(0.0461538 0.000291981 0)
(0.0449876 0.000301557 0)
(0.0437996 0.000310009 0)
(0.0425947 0.000317187 0)
(0.0413776 0.000323149 0)
(0.0401516 0.000328043 0)
(0.0389185 0.000332159 0)
(0.0376778 0.000335891 0)
(0.0364267 0.000339606 0)
(0.0351598 0.000343755 0)
(0.0338696 0.000348529 0)
(0.0325469 0.000354038 0)
(0.0311815 0.00036021 0)
(0.0297627 0.000366848 0)
(0.0282804 0.000373566 0)
(0.026726 0.000379872 0)
(0.0250932 0.000385205 0)
(0.0233782 0.000389036 0)
(0.0215804 0.00039093 0)
(0.0197021 0.000390559 0)
(0.0177482 0.00038772 0)
(0.0157264 0.000382343 0)
(0.0136462 0.0003745 0)
(0.0115183 0.0003644 0)
(0.00935384 0.000352369 0)
(0.00716405 0.000338799 0)
(0.00495933 0.000324086 0)
(0.00274911 0.000308557 0)
(0.000540561 0.00029224 0)
(-0.00165875 0.000276536 0)
(-0.00384128 0.000260385 0)
(-0.00600635 0.00024398 0)
(-0.00814529 0.000227963 0)
(-0.0102718 0.000213176 0)
(0.00118406 -0.00148686 0)
(0.00417249 -0.00178835 0)
(0.0071144 -0.00171936 0)
(0.00995092 -0.00168588 0)
(0.0127597 -0.00168011 0)
(0.0155691 -0.00167789 0)
(0.0183811 -0.00167425 0)
(0.0211939 -0.00166943 0)
(0.0240067 -0.00166353 0)
(0.0268184 -0.00165637 0)
(0.0296276 -0.00164771 0)
(0.0324324 -0.00163731 0)
(0.0352302 -0.00162494 0)
(0.0380183 -0.00161044 0)
(0.0407935 -0.0015937 0)
(0.0435523 -0.00157463 0)
(0.0462912 -0.00155322 0)
(0.0490065 -0.00152952 0)
(0.0516945 -0.00150363 0)
(0.0543516 -0.00147568 0)
(0.0569744 -0.00144574 0)
(0.0595595 -0.00141392 0)
(0.0621035 -0.00138031 0)
(0.0646034 -0.00134496 0)
(0.0670557 -0.00130784 0)
(0.0694574 -0.00126891 0)
(0.0718049 -0.00122806 0)
(0.0740947 -0.00118518 0)
(0.076323 -0.00114009 0)
(0.0784856 -0.00109261 0)
(0.0805784 -0.00104256 0)
(0.0825965 -0.000989743 0)
(0.084535 -0.000933938 0)
(0.0863888 -0.000874957 0)
(0.0881521 -0.000812718 0)
(0.0898193 -0.000747261 0)
(0.0913848 -0.000678745 0)
(0.0928431 -0.000607432 0)
(0.0941894 -0.000533692 0)
(0.0954193 -0.000457999 0)
(0.0965294 -0.000380931 0)
(0.0975172 -0.000303116 0)
(0.0983813 -0.00022513 0)
(0.099122 -0.000147512 0)
(0.0997389 -6.94173e-05 0)
(0.100242 6.67935e-06 0)
(0.100636 7.88681e-05 0)
(0.10092 0.000146984 0)
(0.101089 0.000212635 0)
(0.101149 0.000275233 0)
(0.101107 0.000333748 0)
(0.10097 0.000388031 0)
(0.100746 0.000438316 0)
(0.100442 0.000484877 0)
(0.100065 0.000528061 0)
(0.0996221 0.000568181 0)
(0.0991187 0.000605568 0)
(0.0985615 0.000640594 0)
(0.097956 0.00067359 0)
(0.0973078 0.00070484 0)
(0.0966218 0.000734582 0)
(0.095903 0.000762926 0)
(0.0951563 0.000789849 0)
(0.0943864 0.000815152 0)
(0.0935984 0.000838412 0)
(0.092798 0.000859059 0)
(0.091991 0.00087655 0)
(0.0911838 0.000890407 0)
(0.0903826 0.000900544 0)
(0.089593 0.00090719 0)
(0.0888193 0.0009112 0)
(0.0880635 0.000913913 0)
(0.0873249 0.000917078 0)
(0.0865987 0.000922861 0)
(0.0858769 0.000933369 0)
(0.0851468 0.000950797 0)
(0.0843924 0.000976817 0)
(0.0835944 0.00101263 0)
(0.0827311 0.00105892 0)
(0.0817791 0.00111569 0)
(0.0807149 0.0011822 0)
(0.0795156 0.00125701 0)
(0.0781602 0.00133813 0)
(0.0766304 0.00142313 0)
(0.0749115 0.00150931 0)
(0.0729927 0.00159395 0)
(0.0708673 0.00167448 0)
(0.0685329 0.00174866 0)
(0.0659914 0.00181478 0)
(0.063248 0.0018717 0)
(0.060311 0.00191891 0)
(0.0571911 0.00195643 0)
(0.0539004 0.00198475 0)
(0.0504517 0.00200464 0)
(0.0468578 0.00201682 0)
(0.0431318 0.00202398 0)
(0.0392865 0.00202567 0)
(0.0353294 0.00202334 0)
(0.0312768 0.00201856 0)
(0.0271096 0.00201869 0)
(0.00122853 -0.00285457 0)
(0.0041984 -0.00332926 0)
(0.00704996 -0.00316314 0)
(0.0097989 -0.00309722 0)
(0.0125274 -0.00308942 0)
(0.0152625 -0.00309005 0)
(0.0180072 -0.00308942 0)
(0.0207613 -0.00308754 0)
(0.023525 -0.00308442 0)
(0.0262982 -0.00307967 0)
(0.0290801 -0.00307276 0)
(0.0318694 -0.00306316 0)
(0.034664 -0.00305047 0)
(0.0374615 -0.00303425 0)
(0.0402589 -0.00301425 0)
(0.0430529 -0.00299021 0)
(0.0458401 -0.00296205 0)
(0.0486169 -0.0029298 0)
(0.0513796 -0.00289357 0)
(0.0541244 -0.00285351 0)
(0.0568481 -0.00280971 0)
(0.0595471 -0.00276234 0)
(0.0622183 -0.00271156 0)
(0.0648584 -0.0026574 0)
(0.0674641 -0.00259981 0)
(0.0700323 -0.00253869 0)
(0.0725596 -0.00247388 0)
(0.0750423 -0.00240515 0)
(0.0774769 -0.0023322 0)
(0.0798592 -0.00225471 0)
(0.082185 -0.00217237 0)
(0.0844495 -0.00208481 0)
(0.0866478 -0.00199165 0)
(0.0887747 -0.00189257 0)
(0.0908247 -0.00178736 0)
(0.0927919 -0.00167601 0)
(0.0946705 -0.0015587 0)
(0.096455 -0.00143585 0)
(0.09814 -0.00130812 0)
(0.099721 -0.00117633 0)
(0.101194 -0.00104151 0)
(0.102556 -0.000904828 0)
(0.103805 -0.000767525 0)
(0.104941 -0.000630732 0)
(0.105964 -0.000496206 0)
(0.106876 -0.00036512 0)
(0.10768 -0.000238993 0)
(0.108379 -0.000117562 0)
(0.108982 2.93393e-07 0)
(0.109492 0.000113024 0)
(0.109911 0.000219144 0)
(0.110242 0.000318056 0)
(0.110489 0.000409577 0)
(0.11066 0.000493807 0)
(0.11076 0.000571127 0)
(0.110794 0.000641992 0)
(0.110769 0.00070687 0)
(0.110691 0.000766269 0)
(0.110565 0.0008207 0)
(0.110395 0.000870612 0)
(0.110187 0.000916341 0)
(0.109946 0.000958083 0)
(0.109677 0.000995779 0)
(0.109385 0.00102907 0)
(0.109076 0.00105735 0)
(0.108757 0.00107985 0)
(0.108436 0.00109572 0)
(0.10812 0.00110443 0)
(0.107817 0.00110585 0)
(0.107538 0.00110067 0)
(0.107288 0.00109055 0)
(0.107073 0.00107812 0)
(0.106895 0.00106687 0)
(0.106754 0.00106075 0)
(0.106644 0.0010641 0)
(0.106556 0.00108084 0)
(0.106477 0.00111477 0)
(0.10639 0.00116888 0)
(0.106275 0.00124524 0)
(0.10611 0.00134465 0)
(0.105871 0.00146669 0)
(0.105534 0.00160992 0)
(0.105075 0.00177176 0)
(0.104472 0.00194878 0)
(0.103705 0.00213697 0)
(0.102754 0.00233204 0)
(0.101603 0.00252965 0)
(0.100239 0.00272568 0)
(0.0986519 0.00291643 0)
(0.0968326 0.00309884 0)
(0.0947761 0.00327058 0)
(0.0924794 0.00343008 0)
(0.0899421 0.00357653 0)
(0.0871658 0.00370971 0)
(0.0841541 0.00382994 0)
(0.0809121 0.00393869 0)
(0.0774472 0.0040363 0)
(0.073764 0.00412464 0)
(0.0698782 0.00420482 0)
(0.0657701 0.00428334 0)
(0.00121333 -0.00416478 0)
(0.00401086 -0.00475946 0)
(0.00664804 -0.00449779 0)
(0.00919582 -0.00440608 0)
(0.0117323 -0.00439986 0)
(0.0142806 -0.00440642 0)
(0.0168441 -0.00441247 0)
(0.0194237 -0.0044177 0)
(0.0220203 -0.00442192 0)
(0.0246342 -0.00442441 0)
(0.0272652 -0.00442429 0)
(0.0299122 -0.0044207 0)
(0.0325732 -0.00441301 0)
(0.0352458 -0.00440042 0)
(0.0379272 -0.00438246 0)
(0.0406141 -0.00435876 0)
(0.0433028 -0.00432917 0)
(0.0459898 -0.00429363 0)
(0.0486712 -0.00425228 0)
(0.0513433 -0.0042053 0)
(0.0540029 -0.00415287 0)
(0.0566465 -0.00409525 0)
(0.059271 -0.00403262 0)
(0.0618733 -0.00396503 0)
(0.0644504 -0.00389243 0)
(0.0669993 -0.0038147 0)
(0.0695166 -0.0037316 0)
(0.0719992 -0.00364278 0)
(0.0744435 -0.00354785 0)
(0.0768456 -0.00344635 0)
(0.0792013 -0.00333779 0)
(0.0815061 -0.00322164 0)
(0.0837552 -0.00309735 0)
(0.0859435 -0.00296446 0)
(0.0880654 -0.00282266 0)
(0.0901155 -0.00267184 0)
(0.0920879 -0.00251221 0)
(0.0939772 -0.00234433 0)
(0.0957781 -0.00216908 0)
(0.0974861 -0.00198763 0)
(0.0990973 -0.00180142 0)
(0.100609 -0.0016121 0)
(0.102018 -0.00142147 0)
(0.103326 -0.0012313 0)
(0.104531 -0.00104348 0)
(0.105635 -0.000859516 0)
(0.10664 -0.000681231 0)
(0.107547 -0.000509814 0)
(0.108362 -0.000346371 0)
(0.109086 -0.000190935 0)
(0.109727 -4.37094e-05 0)
(0.11029 9.47094e-05 0)
(0.110777 0.000223815 0)
(0.111194 0.000343505 0)
(0.111544 0.000453848 0)
(0.111831 0.000555175 0)
(0.112061 0.000648061 0)
(0.112237 0.000733111 0)
(0.112363 0.000810911 0)
(0.112444 0.000881975 0)
(0.112483 0.000946641 0)
(0.112485 0.001005 0)
(0.112454 0.00105684 0)
(0.112395 0.00110153 0)
(0.112314 0.00113806 0)
(0.112218 0.00116515 0)
(0.112116 0.0011814 0)
(0.112016 0.00118578 0)
(0.111928 0.00117792 0)
(0.111865 0.00115875 0)
(0.111834 0.00113057 0)
(0.111846 0.00109711 0)
(0.111905 0.00106347 0)
(0.112012 0.0010354 0)
(0.112167 0.00101933 0)
(0.112363 0.00102126 0)
(0.112589 0.00104689 0)
(0.112832 0.00110109 0)
(0.113075 0.0011871 0)
(0.113299 0.00130659 0)
(0.113483 0.00145965 0)
(0.113608 0.0016448 0)
(0.113653 0.00185919 0)
(0.113598 0.00209885 0)
(0.113427 0.0023591 0)
(0.113122 0.00263488 0)
(0.112669 0.00292109 0)
(0.112055 0.0032129 0)
(0.111267 0.00350595 0)
(0.110294 0.00379649 0)
(0.109126 0.00408143 0)
(0.107751 0.00435835 0)
(0.106162 0.00462548 0)
(0.104351 0.00488162 0)
(0.10231 0.00512611 0)
(0.100034 0.00535898 0)
(0.097521 0.00557999 0)
(0.0947671 0.00578977 0)
(0.0917811 0.00598861 0)
(0.0885379 0.00617807 0)
(0.00120132 -0.00542583 0)
(0.00388828 -0.00610395 0)
(0.00639075 -0.0057464 0)
(0.00881288 -0.00563269 0)
(0.01123 -0.00563055 0)
(0.0136629 -0.00564518 0)
(0.0161146 -0.00566023 0)
(0.0185865 -0.00567515 0)
(0.0210798 -0.00568957 0)
(0.0235951 -0.00570227 0)
(0.0261323 -0.00571201 0)
(0.0286902 -0.0057176 0)
(0.0312672 -0.00571801 0)
(0.0338606 -0.00571215 0)
(0.0364673 -0.00569931 0)
(0.0390841 -0.00567896 0)
(0.041707 -0.00565087 0)
(0.0443323 -0.00561492 0)
(0.046956 -0.0055713 0)
(0.0495746 -0.00552028 0)
(0.0521845 -0.00546214 0)
(0.0547826 -0.00539722 0)
(0.0573656 -0.00532575 0)
(0.0599307 -0.00524782 0)
(0.0624749 -0.00516342 0)
(0.0649953 -0.00507237 0)
(0.0674889 -0.00497437 0)
(0.0699526 -0.00486897 0)
(0.0723828 -0.00475565 0)
(0.0747758 -0.00463379 0)
(0.0771273 -0.0045027 0)
(0.079433 -0.00436166 0)
(0.081688 -0.00420998 0)
(0.0838869 -0.00404707 0)
(0.0860243 -0.0038725 0)
(0.0880946 -0.00368608 0)
(0.090092 -0.00348804 0)
(0.0920109 -0.00327909 0)
(0.0938462 -0.00306032 0)
(0.0955933 -0.00283324 0)
(0.0972483 -0.00259973 0)
(0.0988083 -0.00236192 0)
(0.100271 -0.00212213 0)
(0.101637 -0.00188265 0)
(0.102905 -0.00164579 0)
(0.104077 -0.00141368 0)
(0.105155 -0.00118836 0)
(0.10614 -0.000971363 0)
(0.107036 -0.000763715 0)
(0.107846 -0.000565819 0)
(0.108574 -0.00037845 0)
(0.109224 -0.000202308 0)
(0.109801 -3.76435e-05 0)
(0.110309 0.000115606 0)
(0.110752 0.000257532 0)
(0.111134 0.000388463 0)
(0.111458 0.000509034 0)
(0.111728 0.000619921 0)
(0.111949 0.000721739 0)
(0.112122 0.000815011 0)
(0.112251 0.000900045 0)
(0.112341 0.000976778 0)
(0.112395 0.00104478 0)
(0.112417 0.00110309 0)
(0.112413 0.00115016 0)
(0.11239 0.00118398 0)
(0.112356 0.00120241 0)
(0.112322 0.00120368 0)
(0.112298 0.00118715 0)
(0.112298 0.00115378 0)
(0.112331 0.00110638 0)
(0.112408 0.00104979 0)
(0.112536 0.000990536 0)
(0.112719 0.000936422 0)
(0.112955 0.000895911 0)
(0.11324 0.000877295 0)
(0.113563 0.000888183 0)
(0.113912 0.000934935 0)
(0.11427 0.001022 0)
(0.11462 0.00115194 0)
(0.114941 0.00132521 0)
(0.115214 0.00154012 0)
(0.115421 0.0017933 0)
(0.115545 0.00208006 0)
(0.115571 0.00239483 0)
(0.115486 0.00273168 0)
(0.115278 0.00308475 0)
(0.114938 0.00344866 0)
(0.114459 0.00381873 0)
(0.113832 0.00419111 0)
(0.113049 0.00456274 0)
(0.112105 0.00493128 0)
(0.110989 0.00529501 0)
(0.109695 0.00565262 0)
(0.108213 0.00600316 0)
(0.106536 0.00634596 0)
(0.104656 0.00668017 0)
(0.102565 0.00700507 0)
(0.100267 0.0073197 0)
(0.0977327 0.00762086 0)
(0.00119699 -0.00666497 0)
(0.00383345 -0.00740712 0)
(0.00627236 -0.00695323 0)
(0.00863472 -0.00681967 0)
(0.0109958 -0.0068233 0)
(0.0133749 -0.00684736 0)
(0.0157751 -0.00687277 0)
(0.0181978 -0.00689883 0)
(0.0206443 -0.00692497 0)
(0.0231153 -0.00694949 0)
(0.0256108 -0.00697074 0)
(0.0281298 -0.00698716 0)
(0.0306703 -0.00699725 0)
(0.0332298 -0.00699968 0)
(0.035805 -0.00699343 0)
(0.0383923 -0.00697782 0)
(0.0409877 -0.00695251 0)
(0.0435874 -0.0069174 0)
(0.0461872 -0.00687273 0)
(0.0487835 -0.00681886 0)
(0.0513729 -0.00675621 0)
(0.053952 -0.00668521 0)
(0.0565179 -0.00660617 0)
(0.0590678 -0.00651923 0)
(0.0615987 -0.00642441 0)
(0.064108 -0.0063215 0)
(0.0665926 -0.0062101 0)
(0.0690496 -0.00608966 0)
(0.0714754 -0.00595952 0)
(0.0738664 -0.00581885 0)
(0.0762183 -0.00566675 0)
(0.0785266 -0.00550234 0)
(0.0807863 -0.00532473 0)
(0.082992 -0.00513318 0)
(0.085138 -0.00492713 0)
(0.0872185 -0.00470633 0)
(0.0892276 -0.00447105 0)
(0.0911596 -0.00422213 0)
(0.093009 -0.0039609 0)
(0.0947711 -0.00368923 0)
(0.096442 -0.00340943 0)
(0.0980189 -0.00312417 0)
(0.0995 -0.00283629 0)
(0.100884 -0.00254861 0)
(0.102173 -0.0022639 0)
(0.103366 -0.0019847 0)
(0.104466 -0.00171326 0)
(0.105475 -0.00145135 0)
(0.106396 -0.00120025 0)
(0.107233 -0.000960836 0)
(0.107989 -0.000733952 0)
(0.108668 -0.000520229 0)
(0.109274 -0.000320007 0)
(0.109811 -0.000133376 0)
(0.110283 3.99368e-05 0)
(0.110694 0.000200435 0)
(0.111048 0.000348749 0)
(0.111348 0.000485672 0)
(0.111597 0.000611934 0)
(0.111799 0.000728074 0)
(0.111956 0.000834347 0)
(0.112071 0.000930652 0)
(0.112149 0.0010163 0)
(0.112193 0.00108988 0)
(0.112209 0.00114919 0)
(0.112203 0.00119142 0)
(0.112183 0.0012136 0)
(0.112161 0.00121319 0)
(0.112148 0.00118894 0)
(0.112158 0.00114159 0)
(0.112202 0.00107446 0)
(0.112293 0.000993555 0)
(0.112438 0.000907095 0)
(0.112641 0.000824902 0)
(0.112903 0.000757581 0)
(0.113217 0.00071602 0)
(0.113574 0.000709684 0)
(0.113961 0.000746548 0)
(0.11436 0.000832571 0)
(0.114752 0.000971101 0)
(0.115116 0.00116273 0)
(0.115434 0.00140554 0)
(0.115686 0.00169547 0)
(0.115854 0.0020268 0)
(0.115923 0.00239281 0)
(0.115883 0.00278641 0)
(0.115722 0.00320068 0)
(0.115433 0.00362939 0)
(0.115011 0.00406727 0)
(0.114449 0.00451017 0)
(0.113745 0.004955 0)
(0.112893 0.00539962 0)
(0.111889 0.00584255 0)
(0.110728 0.00628283 0)
(0.109404 0.00671972 0)
(0.107912 0.00715253 0)
(0.106245 0.00758026 0)
(0.104397 0.00800147 0)
(0.10237 0.00841428 0)
(0.100135 0.008813 0)
(0.00119652 -0.0078972 0)
(0.00381213 -0.00869271 0)
(0.00622322 -0.00814187 0)
(0.00855896 -0.00798956 0)
(0.0108955 -0.00799999 0)
(0.0132517 -0.00803433 0)
(0.0156304 -0.0080709 0)
(0.018033 -0.00810896 0)
(0.0204609 -0.00814766 0)
(0.0229151 -0.00818493 0)
(0.0253954 -0.00821866 0)
(0.0279009 -0.00824681 0)
(0.0304296 -0.0082675 0)
(0.0329788 -0.00827904 0)
(0.035545 -0.00828012 0)
(0.0381244 -0.00826989 0)
(0.040713 -0.00824791 0)
(0.0433066 -0.00821419 0)
(0.045901 -0.00816895 0)
(0.0484925 -0.0081127 0)
(0.0510777 -0.00804597 0)
(0.0536533 -0.00796937 0)
(0.0562163 -0.00788331 0)
(0.0587641 -0.00778795 0)
(0.0612939 -0.00768336 0)
(0.0638031 -0.00756928 0)
(0.0662887 -0.00744521 0)
(0.0687479 -0.0073105 0)
(0.0711773 -0.0071643 0)
(0.073573 -0.00700559 0)
(0.075931 -0.00683326 0)
(0.0782466 -0.00664619 0)
(0.0805147 -0.0064433 0)
(0.0827297 -0.00622364 0)
(0.0848858 -0.00598653 0)
(0.0869769 -0.00573168 0)
(0.0889968 -0.00545937 0)
(0.0909394 -0.00517056 0)
(0.0927991 -0.00486684 0)
(0.094571 -0.00455047 0)
(0.0962509 -0.00422425 0)
(0.0978359 -0.00389139 0)
(0.0993241 -0.00355529 0)
(0.100715 -0.00321933 0)
(0.102009 -0.00288676 0)
(0.103207 -0.00256049 0)
(0.104312 -0.00224306 0)
(0.105326 -0.0019365 0)
(0.106252 -0.00164235 0)
(0.107093 -0.00136174 0)
(0.107854 -0.00109558 0)
(0.108538 -0.000844548 0)
(0.109149 -0.000609039 0)
(0.109692 -0.000389105 0)
(0.11017 -0.000184422 0)
(0.110586 5.59415e-06 0)
(0.110946 0.00018173 0)
(0.111251 0.000344725 0)
(0.111506 0.000495565 0)
(0.111713 0.000634862 0)
(0.111875 0.000762793 0)
(0.111994 0.000879169 0)
(0.112075 0.000983094 0)
(0.112121 0.00107276 0)
(0.112136 0.00114537 0)
(0.112127 0.00119721 0)
(0.112103 0.00122424 0)
(0.112074 0.00122286 0)
(0.112053 0.00119094 0)
(0.112056 0.00112919 0)
(0.112095 0.00104131 0)
(0.112185 0.000934461 0)
(0.112332 0.000818668 0)
(0.112544 0.000706137 0)
(0.112819 0.000609814 0)
(0.113152 0.000543031 0)
(0.113533 0.000517542 0)
(0.113947 0.000543273 0)
(0.114375 0.000627553 0)
(0.114797 0.000774514 0)
(0.115191 0.000984985 0)
(0.115537 0.00125672 0)
(0.115813 0.00158484 0)
(0.116002 0.00196251 0)
(0.116088 0.0023817 0)
(0.116059 0.00283397 0)
(0.115905 0.00331116 0)
(0.11562 0.00380603 0)
(0.115197 0.00431257 0)
(0.114632 0.00482615 0)
(0.113922 0.00534347 0)
(0.113063 0.00586231 0)
(0.112052 0.00638131 0)
(0.110886 0.00689965 0)
(0.10956 0.00741679 0)
(0.10807 0.0079321 0)
(0.106413 0.00844455 0)
(0.104584 0.00895236 0)
(0.102585 0.009453 0)
(0.10039 0.00994016 0)
(0.00119742 -0.00912758 0)
(0.003803 -0.00997023 0)
(0.00620015 -0.00932212 0)
(0.0085226 -0.00915173 0)
(0.0108473 -0.00916966 0)
(0.0131929 -0.00921493 0)
(0.0155622 -0.00926322 0)
(0.0179566 -0.00931394 0)
(0.0203777 -0.00936589 0)
(0.0228265 -0.00941662 0)
(0.0253029 -0.00946358 0)
(0.0278059 -0.00950416 0)
(0.0303335 -0.00953611 0)
(0.0328828 -0.00955732 0)
(0.0354501 -0.0095662 0)
(0.0380313 -0.00956172 0)
(0.0406223 -0.00954336 0)
(0.0432184 -0.0095112 0)
(0.0458157 -0.00946552 0)
(0.0484101 -0.00940699 0)
(0.0509982 -0.00933633 0)
(0.0535768 -0.00925427 0)
(0.056143 -0.00916135 0)
(0.0586943 -0.00905782 0)
(0.0612279 -0.00894377 0)
(0.0637415 -0.00881888 0)
(0.0662323 -0.00868257 0)
(0.0686973 -0.00853402 0)
(0.0711334 -0.00837223 0)
(0.0735368 -0.00819597 0)
(0.0759033 -0.00800387 0)
(0.0782283 -0.00779458 0)
(0.0805065 -0.00756678 0)
(0.0827324 -0.00731929 0)
(0.0848997 -0.00705128 0)
(0.0870021 -0.00676239 0)
(0.0890331 -0.00645291 0)
(0.0909863 -0.00612389 0)
(0.0928557 -0.00577721 0)
(0.0946358 -0.00541555 0)
(0.0963226 -0.00504223 0)
(0.0979127 -0.00466106 0)
(0.0994045 -0.00427605 0)
(0.100797 -0.00389117 0)
(0.102092 -0.00351015 0)
(0.103289 -0.00313634 0)
(0.104392 -0.00277256 0)
(0.105403 -0.00242111 0)
(0.106326 -0.00208375 0)
(0.107164 -0.00176179 0)
(0.107921 -0.00145625 0)
(0.1086 -0.00116788 0)
(0.109207 -0.000897068 0)
(0.109745 -0.000643867 0)
(0.110219 -0.000407911 0)
(0.110632 -0.000188502 0)
(0.110988 1.53195e-05 0)
(0.11129 0.000204511 0)
(0.111542 0.000379822 0)
(0.111746 0.000542235 0)
(0.111905 0.000692001 0)
(0.112021 0.000828802 0)
(0.112097 0.000951581 0)
(0.112137 0.00105819 0)
(0.112144 0.00114517 0)
(0.112124 0.00120775 0)
(0.112087 0.00124058 0)
(0.112044 0.00123886 0)
(0.112008 0.00119931 0)
(0.111996 0.00112221 0)
(0.112024 0.00101199 0)
(0.112106 0.000876937 0)
(0.112253 0.000729035 0)
(0.11247 0.000583094 0)
(0.112758 0.000454797 0)
(0.11311 0.000359869 0)
(0.113517 0.000312868 0)
(0.11396 0.000325807 0)
(0.114421 0.000407455 0)
(0.114877 0.000562794 0)
(0.115305 0.000792843 0)
(0.115682 0.00109492 0)
(0.115985 0.00146321 0)
(0.116197 0.00188953 0)
(0.116302 0.0023644 0)
(0.116286 0.00287785 0)
(0.116141 0.00342041 0)
(0.115859 0.00398374 0)
(0.115435 0.00456111 0)
(0.114866 0.00514744 0)
(0.114148 0.00573922 0)
(0.113278 0.00633419 0)
(0.112253 0.00693103 0)
(0.111068 0.00752903 0)
(0.10972 0.00812771 0)
(0.108204 0.00872642 0)
(0.106518 0.00932401 0)
(0.104655 0.0099184 0)
(0.102619 0.0105065 0)
(0.100384 0.0110817 0)
(0.00119864 -0.0103573 0)
(0.00379693 -0.0112427 0)
(0.00618425 -0.0104973 0)
(0.00849795 -0.0103095 0)
(0.0108152 -0.0103354 0)
(0.0131544 -0.0103922 0)
(0.0155184 -0.0104528 0)
(0.0179089 -0.0105169 0)
(0.0203276 -0.0105828 0)
(0.0227754 -0.0106477 0)
(0.0252524 -0.0107086 0)
(0.0277575 -0.0107623 0)
(0.0302886 -0.0108061 0)
(0.0328424 -0.0108375 0)
(0.0354152 -0.0108546 0)
(0.0380026 -0.0108561 0)
(0.0405998 -0.0108415 0)
(0.0432024 -0.0108109 0)
(0.0458059 -0.0107647 0)
(0.0484064 -0.0107038 0)
(0.0510002 -0.0106291 0)
(0.0535844 -0.0105416 0)
(0.056156 -0.0104418 0)
(0.0587128 -0.0103302 0)
(0.0612521 -0.0102069 0)
(0.0637717 -0.0100714 0)
(0.066269 -0.0099231 0)
(0.0687412 -0.00976109 0)
(0.0711851 -0.00958409 0)
(0.0735972 -0.00939066 0)
(0.0759732 -0.0091792 0)
(0.0783085 -0.00894807 0)
(0.0805978 -0.00869567 0)
(0.0828354 -0.00842058 0)
(0.0850148 -0.00812178 0)
(0.0871293 -0.00779879 0)
(0.0891721 -0.00745186 0)
(0.0911363 -0.00708217 0)
(0.0930154 -0.00669188 0)
(0.0948037 -0.00628411 0)
(0.0964966 -0.00586278 0)
(0.0980909 -0.00543234 0)
(0.0995847 -0.00499746 0)
(0.100977 -0.00456275 0)
(0.10227 -0.00413249 0)
(0.103464 -0.00371044 0)
(0.104562 -0.00329977 0)
(0.105567 -0.00290302 0)
(0.106483 -0.00252213 0)
(0.107314 -0.00215859 0)
(0.108063 -0.00181349 0)
(0.108734 -0.00148766 0)
(0.109333 -0.00118153 0)
(0.109863 -0.000895139 0)
(0.110329 -0.000628069 0)
(0.110734 -0.000379485 0)
(0.111083 -0.000148288 0)
(0.111379 6.6842e-05 0)
(0.111624 0.000266594 0)
(0.111822 0.000452126 0)
(0.111975 0.00062382 0)
(0.112085 0.000781346 0)
(0.112154 0.000923571 0)
(0.112184 0.00104804 0)
(0.11218 0.00115051 0)
(0.112147 0.00122515 0)
(0.112093 0.00126501 0)
(0.11203 0.00126344 0)
(0.111974 0.00121639 0)
(0.111943 0.00112316 0)
(0.111955 0.000988517 0)
(0.112026 0.000822295 0)
(0.11217 0.000638783 0)
(0.112392 0.000455379 0)
(0.112694 0.000291145 0)
(0.113068 0.000164703 0)
(0.113503 9.33274e-05 0)
(0.113982 9.13394e-05 0)
(0.114481 0.000169164 0)
(0.114977 0.000332672 0)
(0.115445 0.000583009 0)
(0.115858 0.00091691 0)
(0.116195 0.00132745 0)
(0.116436 0.00180484 0)
(0.116563 0.00233798 0)
(0.116565 0.00291516 0)
(0.116432 0.00352536 0)
(0.116158 0.00415917 0)
(0.115739 0.0048091 0)
(0.115172 0.00546972 0)
(0.114453 0.00613737 0)
(0.11358 0.00680989 0)
(0.11255 0.00748613 0)
(0.111358 0.00816556 0)
(0.11 0.00884784 0)
(0.108472 0.00953237 0)
(0.106768 0.0102179 0)
(0.104883 0.010902 0)
(0.102818 0.0115811 0)
(0.100546 0.012248 0)
(0.00119989 -0.0115865 0)
(0.00379066 -0.0125105 0)
(0.00616847 -0.0116682 0)
(0.00847447 -0.0114638 0)
(0.0107854 -0.0114983 0)
(0.0131192 -0.0115671 0)
(0.0154792 -0.0116407 0)
(0.017867 -0.0117187 0)
(0.0202846 -0.0117994 0)
(0.022733 -0.0118793 0)
(0.0252124 -0.0119549 0)
(0.0277216 -0.0120225 0)
(0.0302582 -0.0120788 0)
(0.0328188 -0.0121209 0)
(0.0353993 -0.0121465 0)
(0.0379948 -0.0121542 0)
(0.0406005 -0.0121434 0)
(0.0432114 -0.0121142 0)
(0.0458228 -0.0120674 0)
(0.0484308 -0.012004 0)
(0.0510317 -0.0119251 0)
(0.0536224 -0.011832 0)
(0.0562005 -0.0117253 0)
(0.0587635 -0.0116057 0)
(0.0613092 -0.0114731 0)
(0.0638355 -0.0113272 0)
(0.06634 -0.0111672 0)
(0.06882 -0.0109921 0)
(0.0712725 -0.0108002 0)
(0.073694 -0.0105901 0)
(0.0760803 -0.0103597 0)
(0.0784269 -0.0101071 0)
(0.0807283 -0.00983044 0)
(0.0829786 -0.00952802 0)
(0.0851713 -0.00919855 0)
(0.0872991 -0.00884137 0)
(0.0893548 -0.00845668 0)
(0.091331 -0.00804577 0)
(0.0932206 -0.0076111 0)
(0.0950177 -0.00715627 0)
(0.096717 -0.00668583 0)
(0.0983153 -0.00620495 0)
(0.0998105 -0.00571907 0)
(0.101202 -0.00523347 0)
(0.102492 -0.00475302 0)
(0.103681 -0.00428195 0)
(0.104773 -0.00382375 0)
(0.10577 -0.00338119 0)
(0.106678 -0.0029564 0)
(0.107499 -0.00255097 0)
(0.108238 -0.00216611 0)
(0.1089 -0.0018027 0)
(0.109488 -0.00146124 0)
(0.110008 -0.00114175 0)
(0.110464 -0.000843759 0)
(0.110861 -0.000566271 0)
(0.111201 -0.000307932 0)
(0.111489 -6.72906e-05 0)
(0.111727 0.000157127 0)
(0.111917 0.000365424 0)
(0.112063 0.000559027 0)
(0.112165 0.000737607 0)
(0.112226 0.000899926 0)
(0.112246 0.00104325 0)
(0.112229 0.00116271 0)
(0.112179 0.00125108 0)
(0.112104 0.00129954 0)
(0.112018 0.00129929 0)
(0.111937 0.0012447 0)
(0.111882 0.00113426 0)
(0.111874 0.000972738 0)
(0.111932 0.000771818 0)
(0.112071 0.000548323 0)
(0.112298 0.00032292 0)
(0.112615 0.000118125 0)
(0.113014 -4.40897e-05 0)
(0.113483 -0.000143386 0)
(0.114001 -0.000162866 0)
(0.114545 -9.0307e-05 0)
(0.115088 8.10947e-05 0)
(0.115601 0.000352522 0)
(0.116058 0.000719953 0)
(0.116433 0.00117495 0)
(0.116706 0.00170629 0)
(0.11686 0.00230053 0)
(0.116882 0.00294415 0)
(0.116764 0.00362446 0)
(0.116501 0.00433068 0)
(0.116089 0.00505465 0)
(0.115526 0.00579062 0)
(0.11481 0.00653494 0)
(0.113939 0.00728562 0)
(0.11291 0.00804185 0)
(0.111718 0.00880342 0)
(0.11036 0.00957027 0)
(0.108829 0.010342 0)
(0.107121 0.0111174 0)
(0.105228 0.0118938 0)
(0.103151 0.0126672 0)
(0.100859 0.0134296 0)
(0.00120107 -0.0128149 0)
(0.00378309 -0.0137732 0)
(0.00615034 -0.0128349 0)
(0.00844835 -0.0126148 0)
(0.0107527 -0.0126583 0)
(0.0130811 -0.0127397 0)
(0.0154369 -0.012827 0)
(0.0178222 -0.0129198 0)
(0.020239 -0.0130161 0)
(0.0226886 -0.0131119 0)
(0.0251711 -0.0132032 0)
(0.0276854 -0.0132855 0)
(0.0302286 -0.013355 0)
(0.0327974 -0.0134084 0)
(0.035387 -0.0134429 0)
(0.0379923 -0.0134569 0)
(0.0406078 -0.0134498 0)
(0.0432283 -0.013422 0)
(0.0458488 -0.0133743 0)
(0.0484652 -0.013308 0)
(0.0510739 -0.0132248 0)
(0.053672 -0.0131258 0)
(0.0562571 -0.0130121 0)
(0.0588269 -0.0128844 0)
(0.0613795 -0.0127427 0)
(0.0639131 -0.0125866 0)
(0.0664253 -0.0124152 0)
(0.0689137 -0.0122273 0)
(0.0713755 -0.0120211 0)
(0.0738073 -0.0117946 0)
(0.076205 -0.0115458 0)
(0.0785639 -0.0112722 0)
(0.0808787 -0.0109717 0)
(0.0831432 -0.0106423 0)
(0.0853505 -0.0102823 0)
(0.0874933 -0.00989085 0)
(0.0895634 -0.00946807 0)
(0.0915531 -0.00901533 0)
(0.0934547 -0.00853538 0)
(0.0952614 -0.00803237 0)
(0.0969679 -0.00751155 0)
(0.0985703 -0.00697891 0)
(0.100067 -0.00644072 0)
(0.101457 -0.00590302 0)
(0.102743 -0.00537132 0)
(0.103926 -0.00485033 0)
(0.105011 -0.00434389 0)
(0.106 -0.00385499 0)
(0.106897 -0.00338587 0)
(0.107708 -0.00293825 0)
(0.108436 -0.00251341 0)
(0.109087 -0.00211229 0)
(0.109664 -0.00173548 0)
(0.110172 -0.00138301 0)
(0.110617 -0.00105434 0)
(0.111003 -0.000748273 0)
(0.111334 -0.000463166 0)
(0.111613 -0.000197245 0)
(0.111842 5.12102e-05 0)
(0.112025 0.000282594 0)
(0.112163 0.000498122 0)
(0.112257 0.000697938 0)
(0.112308 0.000881021 0)
(0.112318 0.00104443 0)
(0.112287 0.00118269 0)
(0.112218 0.00128689 0)
(0.11212 0.00134597 0)
(0.112006 0.00134872 0)
(0.111895 0.00128666 0)
(0.11181 0.00115745 0)
(0.111778 0.000966317 0)
(0.111819 0.0007267 0)
(0.111951 0.00045819 0)
(0.112183 0.000185395 0)
(0.112516 -6.5486e-05 0)
(0.112944 -0.000268503 0)
(0.113451 -0.000399877 0)
(0.114015 -0.000439863 0)
(0.114611 -0.000374248 0)
(0.115207 -0.000195257 0)
(0.115772 9.8237e-05 0)
(0.116278 0.000501229 0)
(0.116697 0.00100364 0)
(0.117008 0.00159206 0)
(0.117191 0.00225074 0)
(0.117236 0.00296389 0)
(0.117135 0.00371688 0)
(0.116883 0.00449758 0)
(0.116478 0.00529706 0)
(0.115921 0.00610933 0)
(0.115209 0.00693086 0)
(0.114341 0.00775999 0)
(0.113315 0.00859635 0)
(0.112127 0.00944021 0)
(0.110772 0.0102919 0)
(0.109243 0.0111515 0)
(0.107536 0.0120177 0)
(0.105642 0.012888 0)
(0.103561 0.0137581 0)
(0.10126 0.014619 0)
(0.00120218 -0.0140419 0)
(0.00377381 -0.01503 0)
(0.00612895 -0.0139967 0)
(0.00841814 -0.013762 0)
(0.0107153 -0.0138152 0)
(0.0130376 -0.0139098 0)
(0.0153887 -0.0140115 0)
(0.017771 -0.0141201 0)
(0.0201869 -0.0142329 0)
(0.0226378 -0.0143457 0)
(0.025124 -0.0144536 0)
(0.027644 -0.0145517 0)
(0.030195 -0.0146353 0)
(0.0327731 -0.0147005 0)
(0.0353732 -0.0147443 0)
(0.0379896 -0.0147648 0)
(0.0406162 -0.0147615 0)
(0.0432475 -0.0147347 0)
(0.0458781 -0.0146858 0)
(0.0485039 -0.0146164 0)
(0.0511212 -0.0145283 0)
(0.0537272 -0.0144233 0)
(0.0563197 -0.0143025 0)
(0.0588968 -0.0141667 0)
(0.0614569 -0.0140159 0)
(0.0639981 -0.0138498 0)
(0.0665187 -0.0136674 0)
(0.0690162 -0.0134671 0)
(0.0714882 -0.013247 0)
(0.0739311 -0.0130048 0)
(0.0763412 -0.012738 0)
(0.0787138 -0.0124441 0)
(0.0810434 -0.0121203 0)
(0.0833237 -0.0117642 0)
(0.0855476 -0.0113739 0)
(0.087707 -0.0109481 0)
(0.0897936 -0.0104869 0)
(0.0917986 -0.00999165 0)
(0.0937137 -0.00946542 0)
(0.0955314 -0.00891294 0)
(0.0972458 -0.00834026 0)
(0.098853 -0.00775432 0)
(0.100351 -0.00716231 0)
(0.10174 -0.00657114 0)
(0.103021 -0.00598702 0)
(0.104198 -0.00541515 0)
(0.105273 -0.0048597 0)
(0.106253 -0.00432387 0)
(0.107139 -0.00380999 0)
(0.107939 -0.00331985 0)
(0.108655 -0.00285477 0)
(0.109293 -0.00241581 0)
(0.109857 -0.00200362 0)
(0.110352 -0.00161831 0)
(0.110785 -0.00125925 0)
(0.11116 -0.00092501 0)
(0.11148 -0.000613573 0)
(0.111749 -0.000322787 0)
(0.11197 -5.09087e-05 0)
(0.112144 0.000203816 0)
(0.112274 0.000441139 0)