/*--------------------------------*- C++ -*----------------------------------*\
| =========                 |                                                 |
| \\      /  F ield         | OpenFOAM: The Open Source CFD Toolbox           |
|  \\    /   O peration     | Version:  2.4.0                                 |
|   \\  /    A nd           | Web:      www.OpenFOAM.org                      |
|    \\/     M anipulation  |                                                 |
\*---------------------------------------------------------------------------*/
FoamFile
{
    version     2.0;
    format      ascii;
    class       volScalarField;
    location    "0.2";
    object      alpha.water;
}
// * * * * * * * * * * * * * * * * * * * * * * * * * * * * * * * * * * * * * //

dimensions      [0 0 0 0 0 0 0];

internalField   nonuniform List<scalar> 
10000
(
5.52109e-59
2.51795e-55
4.0183e-52
2.31945e-49
5.9829e-47
8.80679e-45
8.66454e-43
6.31331e-41
3.64438e-39
1.74988e-37
7.16683e-36
2.47975e-34
7.07818e-33
1.61972e-31
2.97984e-30
4.44563e-29
5.42057e-28
5.35624e-27
4.3402e-26
2.96757e-25
1.74252e-24
8.9836e-24
4.14903e-23
1.72757e-22
6.45516e-22
2.14305e-21
6.21988e-21
1.53171e-20
2.98662e-20
3.93434e-20
3.44603e-20
2.00846e-20
8.0034e-21
2.27144e-21
4.76369e-22
7.5982e-23
1.01084e-23
1.13808e-24
1.04586e-25
7.61121e-27
4.35331e-28
1.94702e-29
6.78175e-31
1.81455e-32
3.65467e-34
5.42158e-36
5.74186e-38
4.16016e-40
6.90358e-42
3.42005e-40
1.22615e-55
6.73323e-52
1.29857e-48
7.64513e-46
1.88514e-43
2.57179e-41
2.31755e-39
1.53463e-37
7.99071e-36
3.43709e-34
1.25798e-32
3.89017e-31
9.92656e-30
2.03078e-28
3.33534e-27
4.43122e-26
4.8068e-25
4.23666e-24
3.06735e-23
1.87454e-22
9.86509e-22
4.57705e-21
1.91335e-20
7.26628e-20
2.499e-19
7.70944e-19
2.09659e-18
4.85795e-18
9.01973e-18
1.20708e-17
1.14547e-17
7.77243e-18
3.84646e-18
1.44629e-18
4.38634e-19
1.13238e-19
2.56738e-20
5.01393e-21
8.24253e-22
1.11914e-22
1.23242e-23
1.07816e-24
7.32464e-26
3.7748e-27
1.43247e-28
3.8286e-30
6.83725e-32
7.94956e-34
1.69022e-33
6.5345e-32
6.1513e-53
5.91551e-49
1.29596e-45
7.14673e-43
1.59506e-40
1.96452e-38
1.59723e-36
9.52511e-35
4.44774e-33
1.70598e-31
5.55854e-30
1.53353e-28
3.49942e-27
6.41447e-26
9.43775e-25
1.1213e-23
1.08611e-22
8.56287e-22
5.55502e-21
3.04339e-20
1.43891e-19
6.01912e-19
2.28003e-18
7.90287e-18
2.50456e-17
7.19868e-17
1.84389e-16
4.07087e-16
7.31128e-16
9.86162e-16
9.90665e-16
7.45932e-16
4.26409e-16
1.92676e-16
7.29211e-17
2.42261e-17
7.12148e-18
1.82371e-18
3.98707e-19
7.30245e-20
1.09856e-20
1.32529e-21
1.2409e-22
8.6793e-24
4.34812e-25
1.4766e-26
3.19905e-28
7.82087e-30
1.33539e-28
3.60359e-27
1.82531e-50
3.12685e-46
6.48304e-43
3.13273e-40
6.17417e-38
6.78586e-36
4.94307e-34
2.64281e-32
1.10339e-30
3.7653e-29
1.08959e-27
2.67856e-26
5.46753e-25
8.99362e-24
1.18832e-22
1.2665e-21
1.09834e-20
7.75889e-20
4.51674e-19
2.22224e-18
9.4551e-18
3.57217e-17
1.2282e-16
3.89077e-16
1.1374e-15
3.04883e-15
7.36751e-15
1.5541e-14
2.71596e-14
3.68686e-14
3.85267e-14
3.13017e-14
1.98823e-14
1.02248e-14
4.50249e-15
1.75376e-15
6.08994e-16
1.85822e-16
4.88566e-17
1.08563e-17
1.99662e-18
2.96227e-19
3.42448e-20
2.93189e-21
1.75171e-22
6.79007e-24
1.60979e-25
1.55304e-26
3.90328e-25
7.8395e-24
4.77701e-48
1.09614e-43
1.91725e-40
7.90692e-38
1.36451e-35
1.32996e-33
8.6426e-32
4.12982e-30
1.5386e-28
4.66451e-27
1.19635e-25
2.61626e-24
4.77457e-23
7.05233e-22
8.38146e-21
8.03324e-20
6.25249e-19
3.96396e-18
2.07277e-17
9.16732e-17
3.5138e-16
1.20057e-15
3.75311e-15
1.0883e-14
2.93649e-14
7.33884e-14
1.6726e-13
3.37372e-13
5.74559e-13
7.83086e-13
8.45519e-13
7.27375e-13
5.00587e-13
2.84473e-13
1.39655e-13
6.10099e-14
2.38906e-14
8.27604e-15
2.48905e-15
6.37314e-16
1.35944e-16
2.35196e-17
3.18321e-18
3.19402e-19
2.19254e-20
9.38326e-22
2.34748e-23
7.31091e-24
1.74525e-22
2.75288e-21
1.25665e-45
2.62688e-41
3.70978e-38
1.29559e-35
1.94699e-33
1.67572e-31
9.68428e-30
4.12571e-28
1.36943e-26
3.68493e-25
8.36175e-24
1.62309e-22
2.64449e-21
3.50604e-20
3.75045e-19
3.23842e-18
2.26737e-17
1.29237e-16
6.07642e-16
2.41688e-15
8.34835e-15
2.58125e-14
7.346e-14
1.95266e-13
4.86564e-13
1.13262e-12
2.43039e-12
4.68348e-12
7.7722e-12
1.06206e-11
1.17901e-11
1.06198e-11
7.79207e-12
4.79226e-12
2.55938e-12
1.2223e-12
5.25718e-13
2.01265e-13
6.73717e-14
1.93366e-14
4.65422e-15
9.14017e-16
1.4114e-16
1.62288e-17
1.27219e-18
6.0241e-20
1.58755e-21
1.0523e-21
2.21904e-20
2.91455e-19
2.83859e-43
4.50652e-39
5.06137e-36
1.48871e-33
1.93963e-31
1.46942e-29
7.53249e-28
2.85446e-26
8.4288e-25
2.01186e-23
4.03333e-22
6.93116e-21
1.00589e-19
1.19519e-18
1.15027e-17
8.95625e-17
5.65221e-16
2.90267e-15
1.22897e-14
4.39681e-14
1.36812e-13
3.82713e-13
9.92078e-13
2.41993e-12
5.57193e-12
1.20676e-11
2.43171e-11
4.46708e-11
7.21224e-11
9.86535e-11
1.1228e-10
1.05308e-10
8.14927e-11
5.34063e-11
3.05698e-11
1.57119e-11
7.30476e-12
3.04191e-12
1.11597e-12
3.53793e-13
9.47697e-14
2.08601e-14
3.6352e-15
4.75103e-16
4.25985e-17
2.26777e-18
6.45591e-20
6.11746e-20
1.13928e-18
1.30228e-17
5.21995e-41
5.79051e-37
5.13118e-34
1.26518e-31
1.42413e-29
9.47121e-28
4.29589e-26
1.44476e-24
3.78925e-23
8.01874e-22
1.419e-20
2.15316e-19
2.77504e-18
2.94748e-17
2.54818e-16
1.78877e-15
1.0191e-14
4.72694e-14
1.80652e-13
5.81499e-13
1.62831e-12
4.11628e-12
9.71606e-12
2.17579e-11
4.63199e-11
9.32742e-11
1.76011e-10
3.07322e-10
4.81136e-10
6.5793e-10
7.67041e-10
7.46596e-10
6.04268e-10
4.17285e-10
2.53413e-10
1.3883e-10
6.91389e-11
3.10537e-11
1.23913e-11
4.31079e-12
1.27819e-12
3.14075e-13
6.16297e-14
9.1587e-15
9.46373e-16
5.82621e-17
1.84702e-18
1.72177e-18
2.9271e-17
3.01527e-16
7.61611e-39
5.74804e-35
4.01046e-32
8.26067e-30
8.01157e-28
4.66589e-26
1.86787e-24
5.56222e-23
1.29358e-21
2.4256e-20
3.78759e-19
5.06375e-18
5.77689e-17
5.46694e-16
4.23441e-15
2.67636e-14
1.37759e-13
5.78679e-13
2.00357e-12
5.80762e-12
1.4614e-11
3.33166e-11
7.15237e-11
1.47003e-10
2.89462e-10
5.41945e-10
9.55485e-10
1.5816e-09
2.3883e-09
3.26837e-09
3.90956e-09
3.93681e-09
3.30653e-09
2.38443e-09
1.5252e-09
8.855e-10
4.70155e-10
2.26897e-10
9.82023e-11
3.74315e-11
1.22834e-11
3.37372e-12
7.47697e-13
1.27037e-13
1.52713e-14
1.11961e-15
4.11857e-17
2.69616e-17
4.34724e-16
4.15552e-15
8.72743e-37
4.5075e-33
2.47837e-30
4.25629e-28
3.54904e-26
1.80576e-24
6.36472e-23
1.67477e-21
3.44819e-20
5.72515e-19
7.89027e-18
9.28229e-17
9.34559e-16
7.85309e-15
5.43136e-14
3.08368e-13
1.43393e-12
5.47016e-12
1.72489e-11
4.51036e-11
1.01853e-10
2.08811e-10
4.06931e-10
7.66796e-10
1.39653e-09
2.43215e-09
4.00055e-09
6.27483e-09
9.07704e-09
1.25876e-08
1.55782e-08
1.61977e-08
1.39444e-08
1.03612e-08
6.91989e-09
4.23682e-09
2.3923e-09
1.23927e-09
5.81985e-10
2.43496e-10
8.87197e-11
2.73621e-11
6.89004e-12
1.34885e-12
1.90607e-13
1.69971e-14
7.62715e-16
2.6366e-16
4.12549e-15
3.75962e-14
7.91802e-35
2.83333e-31
1.22993e-28
1.76028e-26
1.25989e-24
5.5883e-23
1.73077e-21
4.01871e-20
7.31732e-19
1.07511e-17
1.3086e-16
1.35427e-15
1.20071e-14
8.93332e-14
5.49841e-13
2.79599e-12
1.1735e-11
4.07646e-11
1.17905e-10
2.78859e-10
5.64765e-10
1.03793e-09
1.83236e-09
3.15867e-09
5.31654e-09
8.6154e-09
1.32047e-08
1.96843e-08
2.71424e-08
4.00235e-08
5.22498e-08
5.59454e-08
4.84878e-08
3.61893e-08
2.4734e-08
1.57871e-08
9.43258e-09
5.23821e-09
2.67154e-09
1.22999e-09
4.99559e-10
1.739e-10
5.00683e-11
1.13794e-11
1.90734e-12
2.09796e-13
1.20335e-14
1.8537e-15
2.68035e-14
2.39454e-13
5.71824e-33
1.43725e-29
4.93102e-27
5.88757e-25
3.61481e-23
1.39574e-21
3.79396e-20
7.77024e-19
1.25118e-17
1.62704e-16
1.75111e-15
1.59526e-14
1.24421e-13
8.18112e-13
4.46999e-12
2.0301e-11
7.67983e-11
2.43543e-10
6.52048e-10
1.39832e-09
2.54254e-09
4.17848e-09
6.67824e-09
1.04924e-08
1.62778e-08
2.4507e-08
3.48898e-08
4.94978e-08
6.42646e-08
1.11949e-07
1.53246e-07
1.62721e-07
1.43175e-07
1.07563e-07
7.37462e-08
4.79703e-08
2.98574e-08
1.76261e-08
9.73027e-09
4.93018e-09
2.23739e-09
8.82513e-10
2.9194e-10
7.74666e-11
1.5498e-11
2.11404e-12
1.60327e-13
1.20964e-14
1.25548e-13
1.13365e-12
3.29352e-31
5.85255e-28
1.59194e-25
1.59176e-23
8.39698e-22
2.82209e-20
6.73061e-19
1.21626e-17
1.73386e-16
1.99879e-15
1.90577e-14
1.53104e-13
1.05075e-12
6.10115e-12
2.95635e-11
1.19702e-10
4.0762e-10
1.18281e-09
2.96435e-09
5.76411e-09
9.44606e-09
1.38693e-08
2.01527e-08
2.8707e-08
4.07893e-08
5.66719e-08
7.4343e-08
9.8609e-08
7.03712e-08
3.39273e-07
3.46808e-07
2.71163e-07
2.4545e-07
2.33775e-07
1.79725e-07
1.22304e-07
7.84131e-08
4.83265e-08
2.85084e-08
1.58007e-08
8.00181e-09
3.581e-09
1.36443e-09
4.23882e-10
1.01469e-10
1.7163e-11
1.73601e-12
1.00238e-13
4.4096e-13
4.16495e-12
1.50425e-29
1.88133e-26
4.10363e-24
3.46514e-22
1.57815e-20
4.62452e-19
9.67899e-18
1.54354e-16
1.95065e-15
1.99855e-14
1.69251e-13
1.20315e-12
7.27884e-12
3.73285e-11
1.60483e-10
5.79258e-10
1.77492e-09
4.72251e-09
1.124e-08
1.97229e-08
2.93549e-08
3.84565e-08
5.15044e-08
6.61121e-08
8.50084e-08
1.0734e-07
1.27922e-07
1.50584e-07
2.03336e-07
2.85034e-07
1.13688e-06
6.38322e-06
5.21902e-06
8.76309e-07
4.88019e-07
3.02108e-07
1.84591e-07
1.12212e-07
6.8201e-08
4.05809e-08
2.27639e-08
1.15347e-08
5.06061e-09
1.84014e-09
5.26355e-10
1.09883e-10
1.46541e-11
9.9364e-13
1.20671e-12
1.22942e-11
5.20932e-28
4.71516e-25
8.39878e-23
6.06162e-21
2.40044e-19
6.15434e-18
1.13154e-16
1.59198e-15
1.78382e-14
1.62721e-13
1.22717e-12
7.75296e-12
4.14862e-11
1.88225e-10
7.18672e-10
2.31556e-09
6.39297e-09
1.56266e-08
3.61908e-08
5.7137e-08
7.72814e-08
8.98365e-08
1.13807e-07
1.30763e-07
1.49221e-07
1.67315e-07
1.79839e-07
1.8162e-07
1.78074e-07
1.78167e-07
9.51061e-06
1.32888e-05
1.32887e-05
7.53994e-06
4.11826e-07
3.79188e-07
2.79486e-07
1.89584e-07
1.25242e-07
8.15492e-08
5.09726e-08
2.92847e-08
1.47827e-08
6.27558e-09
2.13485e-09
5.45339e-10
9.39442e-11
8.74617e-12
2.92044e-12
2.9829e-11
1.33796e-26
9.191e-24
1.36547e-21
8.51752e-20
2.95368e-18
6.65494e-17
1.0774e-15
1.33814e-14
1.32928e-13
1.08033e-12
7.27147e-12
4.09525e-11
1.9461e-10
7.83515e-10
2.65998e-09
7.65919e-09
1.91156e-08
4.30264e-08
1.02478e-07
1.50995e-07
1.66896e-07
1.80071e-07
2.21867e-07
2.25442e-07
2.21839e-07
2.15688e-07
2.14783e-07
2.07225e-07
1.84903e-07
8.32807e-07
1.25851e-05
1.32878e-05
1.32868e-05
1.29323e-05
1.63879e-06
2.70948e-07
2.64782e-07
2.12637e-07
1.6569e-07
1.24913e-07
8.95028e-08
5.89012e-08
3.42306e-08
1.68894e-08
6.77763e-09
2.09181e-09
4.54638e-10
5.83935e-11
7.98312e-12
6.0703e-11
2.50852e-25
1.37904e-22
1.75269e-20
9.59388e-19
2.93767e-17
5.8436e-16
8.3553e-15
9.18934e-14
8.09823e-13
5.86133e-12
3.52616e-11
1.77472e-10
7.51411e-10
2.68788e-09
8.12294e-09
2.08976e-08
4.73253e-08
9.82496e-08
2.72478e-07
4.23777e-07
1.79562e-07
3.50758e-07
3.97265e-07
3.42611e-07
2.78126e-07
2.3006e-07
2.36067e-07
2.37547e-07
2.39806e-07
2.39096e-07
3.26981e-06
1.32244e-05
1.32862e-05
5.35111e-06
3.54233e-07
8.84832e-07
2.66455e-07
2.31631e-07
1.98492e-07
1.67307e-07
1.34504e-07
9.96085e-08
6.55772e-08
3.70375e-08
1.72643e-08
6.32384e-09
1.6907e-09
2.87936e-10
3.0354e-11
1.05808e-10
3.46945e-24
1.58789e-21
1.75979e-19
8.55267e-18
2.3411e-16
4.16261e-15
5.29135e-14
5.16773e-13
4.05127e-12
2.61181e-11
1.40445e-10
6.31907e-10
2.38657e-09
7.58489e-09
2.03485e-08
4.67306e-08
9.6255e-08
1.81156e-07
7.1658e-07
1.2768e-06
4.21338e-06
1.12244e-06
7.29904e-07
4.6837e-07
2.90097e-07
5.62274e-07
2.77199e-07
2.65622e-07
2.70224e-07
2.73058e-07
2.74939e-07
8.56267e-07
1.00934e-06
4.82991e-07
3.41815e-07
2.97589e-07
2.73941e-07
2.53508e-07
2.33724e-07
2.11332e-07
1.83176e-07
1.47874e-07
1.07618e-07
6.82138e-08
3.6278e-08
1.54752e-08
4.96685e-09
1.07502e-09
1.32341e-10
1.67689e-10
3.47034e-23
1.36561e-20
1.34132e-18
5.86082e-17
1.45483e-15
2.35372e-14
2.71263e-13
2.38163e-12
1.67457e-11
9.65667e-11
4.62966e-10
1.85599e-09
6.22919e-09
1.75551e-08
4.17182e-08
8.53049e-08
1.60246e-07
2.46718e-07
1.63087e-06
9.11661e-06
9.72892e-06
8.61201e-06
1.39111e-06
5.86357e-07
3.6788e-07
3.10974e-07
6.44424e-07
2.76363e-07
2.88295e-07
2.94034e-07
2.93781e-07
3.06296e-07
3.196e-07
3.05901e-07
2.96904e-07
2.76097e-07
2.72268e-07
2.66995e-07
2.5922e-07
2.46622e-07
2.26203e-07
1.95471e-07
1.54578e-07
1.08201e-07
6.46258e-08
3.15592e-08
1.19018e-08
3.16327e-09
5.00573e-10
2.59948e-10
2.49551e-22
8.66979e-20
7.66022e-18
3.04272e-16
6.9242e-15
1.032e-13
1.09678e-12
8.82392e-12
5.63075e-11
2.93573e-10
1.26348e-09
4.51573e-09
1.34387e-08
3.34556e-08
7.04871e-08
1.28916e-07
2.2077e-07
2.21764e-07
5.65448e-06
9.7315e-06
9.7321e-06
9.73395e-06
2.25739e-06
5.79468e-07
3.69565e-07
3.22066e-07
3.0091e-07
3.00249e-07
3.0998e-07
3.2392e-07
3.24315e-07
3.22954e-07
3.25894e-07
3.28852e-07
2.97298e-07
6.32051e-07
2.82363e-07
2.83011e-07
2.79622e-07
2.73009e-07
2.59836e-07
2.36232e-07
1.99722e-07
1.52024e-07
1.00447e-07
5.52725e-08
2.40371e-08
7.63448e-09
1.53506e-09
4.2793e-10
1.29377e-21
4.04475e-19
3.25746e-17
1.19297e-15
2.51995e-14
3.49912e-13
3.46589e-12
2.58802e-11
1.51686e-10
7.19289e-10
2.80157e-09
9.01893e-09
2.4095e-08
5.37744e-08
1.01647e-07
1.67121e-07
2.56281e-07
3.19507e-07
1.01949e-06
4.30094e-06
8.33825e-06
3.2032e-06
6.38634e-07
4.61904e-07
3.64898e-07
3.35363e-07
3.24088e-07
3.11138e-07
3.40314e-07
3.81204e-07
3.81059e-07
3.71425e-07
3.77133e-07
3.82841e-07
3.50697e-07
3.40205e-07
3.05368e-07
3.03706e-07
3.11851e-07
3.02434e-07
2.70908e-07
2.60646e-07
2.36905e-07
1.94357e-07
1.40061e-07
8.55317e-08
4.21798e-08
1.56609e-08
3.88016e-09
8.1582e-10
4.87671e-21
1.39575e-18
1.04177e-16
3.56244e-15
7.05386e-14
9.19504e-13
8.5464e-12
5.97172e-11
3.25527e-10
1.42337e-09
5.09186e-09
1.5034e-08
3.69107e-08
7.58492e-08
1.31747e-07
1.96655e-07
2.60703e-07
3.18923e-07
3.29436e-07
3.27852e-07
3.70147e-07
3.28748e-07
4.41075e-07
4.53933e-07
3.83198e-07
3.51077e-07
3.31355e-07
3.16742e-07
4.81551e-07
5.38743e-07
5.0528e-07
4.57686e-07
4.41685e-07
5.55793e-07
6.21557e-07
1.07845e-06
1.80576e-06
1.92572e-06
1.55155e-06
5.92952e-07
5.12923e-07
3.32421e-07
2.38509e-07
2.29022e-07
1.81002e-07
1.20655e-07
6.62428e-08
2.81864e-08
8.36893e-09
1.7236e-09
1.37139e-20
3.67105e-18
2.583e-16
8.36586e-15
1.5719e-13
1.94478e-12
1.71402e-11
1.13375e-10
5.83111e-10
2.39284e-09
7.99674e-09
2.20879e-08
5.08293e-08
9.78895e-08
1.58399e-07
2.18207e-07
2.67156e-07
3.16651e-07
3.73116e-07
3.32097e-07
3.89962e-07
3.38187e-07
4.02039e-07
5.7761e-07
4.09676e-07
3.58372e-07
3.31159e-07
3.39393e-07
3.41967e-07
6.41148e-07
6.55329e-07
5.80316e-07
5.07491e-07
4.75587e-07
1.06835e-06
8.28e-06
9.05548e-06
9.05499e-06
9.05553e-06
7.92786e-06
1.19713e-06
3.37143e-07
4.26902e-07
2.2265e-07
2.11983e-07
1.56594e-07
9.50107e-08
4.5665e-08
1.58993e-08
3.65182e-09
2.95929e-20
7.56675e-18
5.10944e-16
1.59096e-14
2.87505e-13
3.41785e-12
2.88994e-11
1.83109e-10
9.00975e-10
3.5314e-09
1.12563e-08
2.96563e-08
6.49968e-08
1.18623e-07
1.80995e-07
2.37012e-07
2.87159e-07
3.55285e-07
3.68695e-07
4.42549e-06
1.20796e-05
1.06825e-05
2.72461e-06
7.1851e-07
3.85272e-07
3.46752e-07
3.26201e-07
3.37835e-07
3.4712e-07
8.44135e-07
9.94164e-07
7.2658e-07
6.42349e-07
5.22802e-07
5.02935e-07
5.63718e-06
9.05713e-06
9.0555e-06
9.05596e-06
9.05454e-06
8.65131e-06
1.93121e-06
2.95685e-07
2.88177e-07
2.50949e-07
1.92995e-07
1.27018e-07
6.80538e-08
2.73095e-08
7.30547e-09
5.00147e-20
1.24767e-17
8.23402e-16
2.50423e-14
4.41649e-13
5.1182e-12
4.21369e-11
2.59716e-10
1.24359e-09
4.74412e-09
1.46645e-08
3.71405e-08
7.75481e-08
1.33995e-07
1.94389e-07
2.47428e-07
3.00309e-07
3.0898e-07
5.18372e-06
2.40466e-05
2.41593e-05
2.41632e-05
1.95261e-05
2.66793e-06
3.12351e-07
3.26408e-07
3.21262e-07
3.27794e-07
3.62768e-07
5.94037e-07
6.20735e-07
9.67336e-07
8.16281e-07
6.00276e-07
5.04512e-07
1.1524e-06
2.13713e-06
1.93577e-06
7.06683e-06
9.01914e-06
9.02308e-06
8.43598e-06
1.22563e-06
2.94602e-07
2.97787e-07
2.32396e-07
1.61932e-07
9.5161e-08
4.33081e-08
1.35423e-08
6.70105e-20
1.66759e-17
1.09561e-15
3.30839e-14
5.77533e-13
6.60702e-12
5.35584e-11
3.24224e-10
1.52036e-09
5.66499e-09
1.70414e-08
4.179e-08
8.41933e-08
1.40792e-07
1.99994e-07
2.52897e-07
3.11289e-07
5.01339e-07
1.65851e-05
2.41587e-05
2.41614e-05
2.41626e-05
2.41651e-05
7.71732e-06
3.11765e-07
3.13844e-07
3.18162e-07
5.61049e-07
3.63571e-07
4.08788e-07
5.21891e-07
1.61125e-06
2.14125e-06
7.22041e-07
4.91491e-07
5.68255e-07
5.00104e-07
5.54833e-07
8.81903e-07
1.75329e-06
2.97815e-06
4.70454e-06
1.84624e-06
3.18786e-07
3.17971e-07
2.64043e-07
1.96758e-07
1.25943e-07
6.41946e-08
2.32528e-08
7.1475e-20
1.81733e-17
1.21223e-15
3.69558e-14
6.47946e-13
7.40977e-12
5.97939e-11
3.58931e-10
1.66263e-09
6.09666e-09
1.79997e-08
4.32364e-08
8.52457e-08
1.40124e-07
1.98131e-07
2.54245e-07
3.26944e-07
6.28584e-07
1.81228e-05
2.41614e-05
2.4163e-05
2.41642e-05
2.41653e-05
3.87812e-06
3.11933e-07
3.14519e-07
3.226e-07
3.23055e-07
3.63182e-07
4.04086e-07
5.30429e-07
6.81956e-07
8.35365e-07
6.9161e-07
4.57157e-07
3.98587e-07
3.71271e-07
3.59726e-07
3.96211e-07
5.25164e-07
5.27484e-07
5.33997e-07
6.31908e-07
4.43028e-07
3.54446e-07
2.93226e-07
2.29246e-07
1.58316e-07
8.94437e-08
3.71049e-08
6.05828e-20
1.61699e-17
1.11875e-15
3.50456e-14
6.26638e-13
7.26e-12
5.89938e-11
3.54698e-10
1.63794e-09
5.96253e-09
1.74225e-08
4.14054e-08
8.102e-08
1.33059e-07
1.90066e-07
2.47779e-07
3.03693e-07
3.11177e-07
6.18953e-06
2.40278e-05
2.41633e-05
2.40093e-05
1.06727e-05
3.12921e-07
3.14475e-07
3.20251e-07
3.3872e-07
3.59067e-07
3.81032e-07
4.03244e-07
4.27462e-07
4.15723e-07
4.67008e-07
5.12376e-07
4.11791e-07
3.79864e-07
3.735e-07
3.62585e-07
3.70213e-07
3.97195e-07
6.31213e-07
1.03584e-06
7.54029e-07
3.55566e-07
2.90856e-07
2.88146e-07
2.50073e-07
1.88381e-07
1.17398e-07
5.52025e-08
4.04755e-20
1.1716e-17
8.61765e-16
2.82925e-14
5.24381e-13
6.24356e-12
5.17637e-11
3.15432e-10
1.46818e-09
5.36622e-09
1.57133e-08
3.74559e-08
7.38808e-08
1.23149e-07
1.79653e-07
2.39637e-07
2.98752e-07
4.03238e-07
4.06691e-07
4.36147e-06
1.07232e-05
4.76125e-06
3.12603e-07
3.14199e-07
3.23372e-07
3.36657e-07
3.70874e-07
4.06496e-07
4.30027e-07
4.17264e-07
4.16001e-07
4.58587e-07
4.22292e-07
4.20701e-07
4.15937e-07
5.72475e-07
3.74827e-07
4.60439e-07
3.75616e-07
3.83325e-07
3.83587e-07
3.27689e-06
3.86245e-06
3.86641e-06
1.48189e-06
2.31607e-07
2.23976e-07
2.06317e-07
1.4391e-07
7.64744e-08
2.09361e-20
6.84972e-18
5.51857e-16
1.94368e-14
3.80633e-13
4.73161e-12
4.05932e-11
2.54208e-10
1.20805e-09
4.48672e-09
1.33191e-08
3.21868e-08
6.45525e-08
1.10042e-07
1.64732e-07
2.23657e-07
2.55489e-07
4.54098e-07
4.1243e-07
3.10076e-07
3.10077e-07
3.101e-07
3.14453e-07
3.19817e-07
3.58264e-07
3.68924e-07
4.00661e-07
5.72382e-07
5.50699e-07
4.77308e-07
4.24044e-07
4.20169e-07
4.20167e-07
4.29674e-07
4.43192e-07
3.362e-07
3.85338e-07
3.53642e-07
5.75654e-07
3.75904e-07
4.38918e-07
2.11031e-07
2.70488e-06
3.86864e-06
3.86162e-06
3.167e-06
4.11541e-07
1.69339e-07
1.62603e-07
9.91263e-08
8.12606e-21
3.16905e-18
2.90431e-16
1.1288e-14
2.38923e-13
3.16198e-12
2.8536e-11
1.86368e-10
9.18344e-10
3.51669e-09
1.0729e-08
2.66372e-08
5.49719e-08
9.67544e-08
1.49143e-07
2.07228e-07
2.60757e-07
2.68549e-07
6.28013e-07
3.10139e-07
3.10959e-07
3.1474e-07
3.19976e-07
3.23454e-07
3.5335e-07
3.78888e-07
9.24821e-07
1.03837e-06
7.00505e-07
5.81577e-07
1.04951e-05
2.50981e-05
1.91434e-05
1.24356e-06
3.33832e-07
3.35832e-07
3.36125e-07
3.5292e-07
2.6159e-07
2.59998e-07
2.14043e-07
2.10626e-07
2.05054e-07
2.25356e-07
1.96797e-06
3.1605e-06
1.7373e-06
1.86694e-07
1.86529e-07
1.21757e-07
2.42813e-21
1.17785e-18
1.26883e-16
5.58303e-15
1.30477e-13
1.87362e-12
1.81166e-11
1.25471e-10
6.51138e-10
2.61646e-09
8.34031e-09
2.15837e-08
4.63392e-08
8.44953e-08
1.339e-07
1.88884e-07
2.43221e-07
2.84078e-07
2.8513e-07
3.12064e-07
3.10975e-07
3.08126e-07
4.92695e-07
3.2471e-07
3.80757e-07
5.25038e-07
9.39372e-07
7.78525e-07
7.23921e-07
1.43503e-05
3.62095e-05
3.61668e-05
3.60747e-05
1.95544e-05
3.33842e-07
3.46228e-07
3.50426e-07
3.45537e-07
3.49528e-07
2.75822e-07
2.69533e-07
2.29995e-07
2.07767e-07
2.21564e-07
2.10608e-07
4.36741e-07
8.99889e-07
4.3069e-07
1.43328e-07
1.35721e-07
5.70884e-22
3.58874e-19
4.68891e-17
2.39824e-15
6.32904e-14
1.0049e-12
1.05832e-11
7.89777e-11
4.37687e-10
1.86737e-09
6.30167e-09
1.71883e-08
3.87928e-08
7.40913e-08
1.22101e-07
1.75677e-07
2.2376e-07
2.60313e-07
2.87765e-07
3.10101e-07
3.08771e-07
3.03028e-07
3.05392e-07
3.38103e-07
3.75406e-07
4.24157e-07
4.76736e-07
4.26992e-07
2.62472e-06
2.87525e-05
3.63285e-05
3.62523e-05
3.61669e-05
2.5813e-05
3.35788e-07
3.68707e-07
3.68126e-07
3.61718e-07
3.95107e-07
1.09894e-06
2.94816e-07
2.6255e-07
2.31161e-07
2.15725e-07
2.06048e-07
2.18113e-07
2.15481e-07
2.24446e-07
2.11242e-07
1.52611e-07
1.09149e-22
9.43086e-20
1.54045e-17
9.26798e-16
2.7785e-14
4.92215e-13
5.72549e-12
4.67107e-11
2.80231e-10
1.28355e-09
4.62395e-09
1.34239e-08
3.20516e-08
6.43524e-08
1.10649e-07
1.63533e-07
2.04396e-07
2.17813e-07
5.99724e-07
2.82006e-07
3.23458e-07
3.04945e-07
3.07315e-07
3.01369e-07
4.92366e-07
3.23202e-07
3.33988e-07
3.37391e-07
5.755e-06
3.55218e-05
3.63512e-05
3.62898e-05
3.50167e-05
2.38273e-05
1.47903e-06
3.74918e-07
3.74995e-07
3.82873e-07
4.64768e-07
1.20186e-06
9.74945e-07
2.80412e-07
2.60563e-07
2.34604e-07
2.17645e-07
2.04631e-07
2.07523e-07
1.98044e-07
2.13082e-07
1.46669e-07
1.69089e-23
2.14205e-20
4.63951e-18
3.40312e-16
1.18109e-14
2.34132e-13
2.97849e-12
2.63073e-11
1.70804e-10
8.47544e-10
3.27925e-09
1.0145e-08
2.57009e-08
5.4557e-08
9.93998e-08
1.57555e-07
2.14182e-07
2.4469e-07
2.4827e-07
2.80855e-07
2.83617e-07
3.59171e-07
2.93791e-07
2.95936e-07
2.98686e-07
3.22896e-07
3.26176e-07
3.31851e-07
8.73962e-06
3.63607e-05
3.63572e-05
3.61418e-05
3.62178e-05
1.71445e-05
4.13018e-07
4.04191e-07
8.67139e-07
3.89192e-07
4.52647e-07
8.71732e-07
1.61372e-06
3.13628e-07
2.53336e-07
2.38922e-07
2.32705e-07
2.12391e-07
5.11942e-07
1.85643e-07
1.31152e-07
1.23447e-07
2.0262e-24
4.20951e-21
1.28644e-18
1.18438e-16
4.84258e-15
1.08795e-13
1.52989e-12
1.46651e-11
1.0166e-10
5.33117e-10
2.19726e-09
7.28696e-09
1.96209e-08
4.40797e-08
8.49787e-08
1.42368e-07
2.0321e-07
2.43951e-07
2.58595e-07
7.50197e-07
2.81561e-07
2.82848e-07
3.08683e-07
2.95904e-07
3.07201e-07
3.22412e-07
3.26385e-07
3.6161e-07
1.93127e-05
3.63613e-05
3.63617e-05
3.6239e-05
3.62327e-05
1.44432e-05
4.14787e-07
4.08497e-07
1.28326e-06
1.70552e-06
6.16006e-07
5.24874e-07
2.60445e-06
4.1743e-07
1.91518e-06
6.135e-07
2.27712e-07
2.14193e-07
2.06525e-06
2.42647e-06
1.59269e-07
1.02348e-07
1.83218e-25
7.3397e-22
3.47129e-19
4.15796e-17
2.0177e-15
5.10949e-14
7.83892e-13
8.02981e-12
5.88258e-11
3.259e-10
1.41159e-09
4.88603e-09
1.39743e-08
3.35981e-08
6.88536e-08
1.23385e-07
1.89749e-07
2.43428e-07
2.69338e-07
2.80808e-07
3.18333e-07
2.80536e-07
2.84993e-07
2.96434e-07
3.11264e-07
3.31972e-07
3.42515e-07
3.5741e-07
1.92068e-05
3.63845e-05
3.63599e-05
3.63223e-05
3.62815e-05
1.08961e-05
4.22645e-07
4.55768e-07
8.11024e-07
5.63687e-06
6.11313e-07
5.28682e-07
3.52813e-06
4.56632e-06
4.6702e-06
1.46887e-06
2.4422e-07
2.73945e-07
1.42647e-06
1.00863e-05
5.55292e-06
4.27505e-07
1.24998e-26
1.3278e-22
9.85129e-20
1.50742e-17
8.57696e-16
2.43037e-14
4.05566e-13
4.43015e-12
3.41196e-11
1.96027e-10
8.73356e-10
3.14553e-09
9.39353e-09
2.36202e-08
5.14832e-08
9.9182e-08
1.65794e-07
2.30262e-07
2.39098e-07
3.4822e-07
2.84722e-07
2.82961e-07
2.83196e-07
2.92348e-07
3.06893e-07
3.33645e-07
3.98067e-07
3.87196e-07
1.01499e-05
3.63773e-05
3.63474e-05
3.63224e-05
2.66052e-05
1.67266e-06
4.23839e-07
4.3465e-07
6.89623e-07
6.64773e-06
8.25452e-07
6.22881e-06
1.1723e-05
1.67827e-05
4.67376e-06
7.29919e-06
2.80247e-05
1.30781e-06
1.92886e-06
1.61227e-05
1.58154e-05
1.45817e-06
9.13536e-28
2.42902e-23
2.7402e-20
5.27637e-18
3.50058e-16
1.10822e-14
2.0118e-13
2.34955e-12
1.90934e-11
1.14522e-10
5.29749e-10
1.97025e-09
6.06469e-09
1.59141e-08
3.59561e-08
7.20979e-08
1.30487e-07
2.02773e-07
2.56912e-07
2.69036e-07
2.85049e-07
2.81603e-07
2.81964e-07
2.9109e-07
3.10974e-07
3.51367e-07
4.18509e-07
4.37291e-07
3.25921e-06
1.19557e-05
3.19126e-05
2.42257e-05
1.83141e-06
3.62185e-07
5.70779e-07
3.51252e-06
4.81848e-06
1.0392e-05
2.2799e-05
4.15231e-05
2.18497e-05
2.41723e-05
3.28995e-05
8.43658e-05
0.000147196
3.88195e-06
4.78901e-06
1.7346e-06
8.80515e-07
7.82719e-07
3.53052e-29
4.30644e-24
7.13205e-21
1.72019e-18
1.33153e-16
4.71799e-15
9.33231e-14
1.16696e-12
1.00388e-11
6.32159e-11
3.05512e-10
1.17996e-09
3.7618e-09
1.01962e-08
2.40682e-08
5.01874e-08
9.40624e-08
1.57856e-07
2.25806e-07
2.68992e-07
2.82036e-07
2.80184e-07
2.78949e-07
2.79741e-07
3.18051e-07
4.03908e-07
6.23849e-07
1.62928e-06
4.31804e-06
3.07295e-07
3.07302e-07
3.07494e-07
3.25572e-07
3.41054e-07
1.46033e-06
9.9291e-06
1.96355e-05
3.60905e-05
4.54175e-05
4.54081e-05
2.8879e-05
2.71789e-05
0.000101452
0.000143058
0.000173767
5.27065e-05
2.45055e-05
3.65578e-06
-3.72113e-07
4.60664e-08
1.61255e-30
6.95834e-25
1.681e-21
5.09116e-19
4.61651e-17
1.83742e-15
3.9727e-14
5.33335e-13
4.86684e-12
3.22653e-11
1.63544e-10
6.60336e-10
2.19567e-09
6.18455e-09
1.51502e-08
3.27836e-08
6.41145e-08
1.13444e-07
1.77306e-07
2.35658e-07
2.67646e-07
2.76731e-07
2.74348e-07
4.81708e-07
2.96509e-07
3.39416e-07
4.51309e-07
1.2222e-06
4.31784e-06
3.07294e-07
3.07881e-07
3.13522e-07
3.38687e-07
1.75208e-06
3.56183e-06
7.24749e-06
1.76163e-05
3.08324e-05
4.27452e-05
4.26717e-05
3.6711e-05
0.000112426
0.000251786
0.00014226
0.000159309
0.000133066
0.000104372
4.85741e-05
0.000139833
0.0807769
8.55975e-32
9.81614e-26
3.49085e-22
1.33714e-19
1.42211e-17
6.38042e-16
1.51481e-14
2.19179e-13
2.13045e-12
1.49262e-11
7.95345e-11
3.36823e-10
1.17525e-09
3.46736e-09
8.87157e-09
2.00488e-08
4.08027e-08
7.53708e-08
1.26318e-07
1.85617e-07
2.342e-07
2.60637e-07
2.70883e-07
2.73083e-07
2.90368e-07
3.20379e-07
3.79638e-07
1.19227e-06
7.3877e-07
3.09001e-07
3.15576e-07
3.17369e-07
6.4644e-07
6.18399e-06
9.67826e-06
8.6012e-06
8.57779e-06
8.57781e-06
8.58213e-06
3.34902e-05
7.77228e-05
0.000130186
0.00014046
0.000232496
0.0390431
0.129039
0.270973
0.504545
0.759033
0.896702
4.1618e-33
1.17402e-26
6.16055e-23
3.01484e-20
3.8015e-18
1.93171e-16
5.04416e-15
7.8883e-14
8.17989e-13
6.07182e-12
3.42049e-11
1.52877e-10
5.61418e-10
1.74801e-09
4.71299e-09
1.12299e-08
2.39943e-08
4.64803e-08
8.23673e-08
1.31286e-07
1.8394e-07
2.25642e-07
2.51472e-07
2.66345e-07
2.81859e-07
3.14344e-07
3.74711e-07
6.78926e-07
3.18073e-07
3.15478e-07
3.17038e-07
3.28151e-07
3.322e-07
2.7819e-06
9.55785e-06
2.09678e-05
1.07129e-05
8.58267e-06
9.02205e-06
6.20324e-05
0.000326239
0.000164722
0.000159818
0.117853
0.346491
0.605537
0.864127
0.990327
1
1
1.70105e-34
1.16236e-27
9.04072e-24
5.68674e-21
8.59185e-19
4.99294e-17
1.44355e-15
2.44335e-14
2.70356e-13
2.12178e-12
1.25809e-11
5.93973e-11
2.32085e-10
7.67082e-10
2.20253e-09
5.58557e-09
1.27102e-08
2.61402e-08
4.91102e-08
8.4026e-08
1.29069e-07
1.75308e-07
2.13579e-07
2.41809e-07
2.64949e-07
2.66466e-07
4.94544e-07
4.38938e-07
3.35218e-07
3.08969e-07
3.16174e-07
3.34285e-07
3.42856e-07
3.46109e-07
3.2482e-06
2.45701e-05
3.85663e-05
3.66531e-05
2.42574e-05
0.00016043
0.00023188
0.000167961
0.198376
0.575868
0.855298
0.995119
0.999945
1
1
1
5.68638e-36
9.31407e-29
1.08365e-24
8.73919e-22
1.56792e-19
1.0365e-17
3.32426e-16
6.13693e-15
7.32087e-14
6.13951e-13
3.8626e-12
1.91973e-11
7.88602e-11
2.79735e-10
8.67112e-10
2.37745e-09
5.84002e-09
1.29846e-08
2.62317e-08
4.83629e-08
8.09559e-08
1.21396e-07
1.63082e-07
2.00998e-07
2.34421e-07
2.67341e-07
3.10762e-07
4.12082e-07
3.28263e-07
2.99493e-07
3.13428e-07
3.29771e-07
3.51348e-07
3.52985e-07
3.57225e-07
3.71485e-07
2.54891e-05
7.69899e-05
4.75385e-05
6.32015e-05
0.000147504
0.238302
0.737765
0.97058
0.999949
0.999995
0.999997
1
1
1
1.53005e-37
5.94727e-30
1.01701e-25
1.03552e-22
2.18892e-20
1.64148e-18
5.82732e-17
1.17263e-15
1.51127e-14
1.36284e-13
9.19875e-13
4.90281e-12
2.155e-11
8.06418e-11
2.68871e-10
8.14571e-10
2.214e-09
5.42862e-09
1.2085e-08
2.44134e-08
4.48392e-08
7.43623e-08
1.10792e-07
1.50465e-07
1.90435e-07
2.35593e-07
2.37875e-07
6.48534e-07
3.57959e-07
2.98084e-07
3.17538e-07
3.28419e-07
3.02377e-07
2.40378e-06
9.75425e-06
1.81124e-05
6.3596e-05
7.00884e-05
6.23979e-05
6.35295e-05
0.214851
0.774019
0.999712
0.99998
0.999998
1
1
1
1
1
3.25094e-39
2.92627e-31
7.18388e-27
9.27834e-24
2.36879e-21
2.06537e-19
8.22543e-18
1.79845e-16
2.463e-15
2.3365e-14
1.65789e-13
9.34679e-13
4.38528e-12
1.77312e-11
6.31923e-11
2.04874e-10
6.31531e-10
1.77875e-09
4.5073e-09
1.03115e-08
2.12531e-08
3.94867e-08
6.59246e-08
9.98255e-08
1.3929e-07
1.86522e-07
2.02362e-07
4.65895e-07
7.57965e-07
3.87962e-07
3.09095e-07
2.91376e-07
2.51808e-07
6.52704e-06
1.07001e-05
1.08735e-05
0.000219488
0.000102902
6.35256e-05
0.121212
0.663354
0.989827
0.99998
0.999995
0.999999
1
1
1
1
1
5.53792e-41
2.34195e-32
2.58545e-27
8.28317e-24
3.38594e-21
3.60273e-19
1.47492e-17
2.95343e-16
3.39937e-15
2.5269e-14
1.32866e-13
5.3508e-13
1.78011e-12
5.29033e-12
1.50404e-11
4.36394e-11
1.29865e-10
4.04737e-10
1.22755e-09
3.34796e-09
8.11413e-09
1.74409e-08
3.33517e-08
5.73121e-08
8.97084e-08
1.31951e-07
1.62935e-07
2.67144e-07
7.57045e-07
4.93396e-07
3.11119e-07
2.46997e-07
2.51736e-07
2.38515e-07
2.41279e-07
7.81153e-05
0.000307843
0.000139956
0.0375474
0.421201
0.912092
0.999931
0.999996
0.999999
1
1
1
1
1
1
1.00364e-40
4.1814e-31
4.4586e-26
1.13569e-22
3.8129e-20
3.47337e-18
1.25906e-16
2.29159e-15
2.4438e-14
1.70302e-13
8.4083e-13
3.13211e-12
9.23369e-12
2.22821e-11
4.38885e-11
7.29054e-11
1.08148e-10
1.60446e-10
2.94577e-10
7.73971e-10
2.2495e-09
5.92514e-09
1.35792e-08
2.73471e-08
4.92391e-08
8.1399e-08
1.16148e-07
1.05795e-07
6.36529e-07
6.37545e-07
2.99584e-07
2.15482e-07
2.27847e-07
2.33643e-07
2.67201e-07
4.20314e-07
1.73813e-06
5.38501e-05
0.152426
0.703045
0.999814
0.999986
0.999999
1
1
1
1
1
1
1
6.96392e-39
1.05114e-29
6.93199e-25
1.29564e-21
3.48523e-19
2.68804e-17
8.57774e-16
1.4158e-14
1.40211e-13
9.25622e-13
4.40662e-12
1.6099e-11
4.73818e-11
1.16251e-10
2.35338e-10
4.0219e-10
5.9621e-10
7.85906e-10
9.2216e-10
9.65775e-10
1.0345e-09
1.74538e-09
4.23683e-09
1.02029e-08
2.19043e-08
4.20648e-08
7.01708e-08
9.84067e-08
1.13303e-07
2.13388e-07
2.93427e-07
2.0748e-07
3.2928e-07
1.62997e-06
2.10015e-06
1.06299e-06
8.57065e-08