/*--------------------------------*- C++ -*----------------------------------*\
| =========                 |                                                 |
| \\      /  F ield         | OpenFOAM: The Open Source CFD Toolbox           |
|  \\    /   O peration     | Version:  2.4.0                                 |
|   \\  /    A nd           | Web:      www.OpenFOAM.org                      |
|    \\/     M anipulation  |                                                 |
\*---------------------------------------------------------------------------*/
FoamFile
{
    version     2.0;
    format      ascii;
    class       volScalarField;
    location    "0.414";
    object      p_rgh;
}
// * * * * * * * * * * * * * * * * * * * * * * * * * * * * * * * * * * * * * //

dimensions      [1 -1 -2 0 0 0 0];

internalField   nonuniform List<scalar> 
10000
(
0.00126692
0.0012665
0.00126604
0.00126572
0.00126568
0.00126596
0.00126661
0.00126762
0.00126901
0.00127075
0.00127282
0.00127522
0.00127793
0.00128091
0.00128416
0.00128765
0.00129136
0.00129526
0.00129934
0.00130358
0.00130797
0.00131249
0.00131714
0.00132192
0.00132684
0.00133191
0.00133715
0.00134258
0.00134823
0.00135413
0.00136028
0.00136669
0.00137337
0.00138029
0.00138743
0.00139474
0.00140222
0.00140986
0.00141772
0.00142584
0.0014343
0.00144314
0.00145238
0.00146204
0.00147206
0.00148241
0.00149302
0.0015038
0.00151469
0.00152559
0.00126734
0.00126692
0.00126654
0.00126633
0.00126637
0.00126671
0.00126737
0.00126836
0.00126968
0.00127134
0.00127332
0.0012756
0.00127817
0.00128103
0.00128414
0.00128749
0.00129108
0.00129487
0.00129887
0.00130304
0.00130739
0.0013119
0.00131657
0.00132141
0.00132641
0.00133158
0.00133695
0.00134253
0.00134833
0.00135437
0.00136066
0.00136721
0.00137401
0.00138106
0.00138832
0.00139577
0.00140339
0.00141119
0.00141919
0.00142745
0.00143601
0.00144489
0.00145413
0.00146372
0.00147362
0.0014838
0.0014942
0.00150476
0.0015154
0.00152606
0.0012678
0.00126731
0.00126693
0.00126677
0.00126687
0.00126723
0.00126789
0.00126886
0.00127013
0.0012717
0.00127358
0.00127575
0.0012782
0.00128092
0.00128391
0.00128714
0.00129061
0.0012943
0.00129821
0.00130233
0.00130664
0.00131114
0.00131584
0.00132072
0.0013258
0.00133108
0.00133657
0.00134228
0.00134822
0.00135441
0.00136085
0.00136754
0.00137449
0.00138168
0.00138908
0.00139668
0.00140445
0.0014124
0.00142053
0.0014289
0.00143753
0.00144646
0.0014557
0.00146523
0.00147504
0.00148509
0.00149532
0.00150569
0.00151614
0.00152659
0.00126811
0.00126752
0.00126709
0.00126694
0.00126705
0.00126742
0.00126807
0.001269
0.00127022
0.00127172
0.00127352
0.00127559
0.00127793
0.00128055
0.00128342
0.00128654
0.00128992
0.00129353
0.00129737
0.00130143
0.00130571
0.00131021
0.00131493
0.00131986
0.001325
0.00133037
0.00133596
0.00134178
0.00134785
0.00135417
0.00136075
0.00136759
0.00137469
0.00138203
0.0013896
0.00139737
0.00140528
0.00141334
0.00142156
0.00143
0.00143868
0.00144764
0.00145688
0.00146639
0.00147614
0.00148611
0.00149625
0.00150651
0.00151683
0.00152715
0.00126814
0.00126748
0.00126701
0.00126684
0.00126695
0.00126731
0.00126794
0.00126884
0.00127001
0.00127145
0.00127316
0.00127514
0.00127739
0.0012799
0.00128267
0.0012857
0.00128899
0.00129252
0.0012963
0.00130032
0.00130458
0.00130908
0.00131381
0.00131878
0.00132398
0.00132943
0.00133511
0.00134105
0.00134723
0.00135368
0.00136039
0.00136737
0.00137462
0.00138215
0.00138992
0.00139787
0.00140593
0.00141408
0.00142235
0.00143082
0.00143953
0.00144851
0.00145776
0.00146727
0.00147702
0.00148696
0.00149705
0.00150725
0.0015175
0.00152776
0.00126785
0.00126716
0.00126667
0.00126649
0.00126659
0.00126694
0.00126755
0.00126841
0.00126953
0.0012709
0.00127254
0.00127443
0.00127658
0.001279
0.00128167
0.00128461
0.00128781
0.00129127
0.00129499
0.00129897
0.00130321
0.0013077
0.00131245
0.00131746
0.00132272
0.00132824
0.00133402
0.00134005
0.00134635
0.00135291
0.00135976
0.00136688
0.0013743
0.00138203
0.00139005
0.00139825
0.00140648
0.00141468
0.00142296
0.00143142
0.00144013
0.00144913
0.0014584
0.00146793
0.0014777
0.00148766
0.00149775
0.00150795
0.00151819
0.00152842
0.00126721
0.00126653
0.00126605
0.00126588
0.00126598
0.00126632
0.0012669
0.00126773
0.00126879
0.0012701
0.00127166
0.00127346
0.00127552
0.00127784
0.00128041
0.00128326
0.00128637
0.00128976
0.00129342
0.00129736
0.00130157
0.00130607
0.00131084
0.00131588
0.0013212
0.0013268
0.00133266
0.00133879
0.00134519
0.00135187
0.00135883
0.0013661
0.00137369
0.00138165
0.00139
0.00139857
0.001407
0.0014152
0.00142339
0.00143178
0.00144046
0.00144947
0.00145878
0.00146837
0.0014782
0.00148822
0.00149837
0.00150861
0.00151888
0.00152914
0.00126624
0.0012656
0.00126515
0.00126501
0.00126512
0.00126545
0.00126602
0.0012668
0.00126782
0.00126906
0.00127053
0.00127224
0.0012742
0.00127641
0.00127889
0.00128164
0.00128466
0.00128798
0.00129158
0.00129548
0.00129966
0.00130415
0.00130894
0.00131403
0.00131941
0.00132507
0.00133101
0.00133723
0.00134373
0.00135049
0.00135755
0.00136493
0.00137265
0.00138088
0.00138971
0.00139889
0.00140761
0.00141569
0.00142364
0.00143186
0.00144049
0.00144951
0.00145889
0.00146858
0.00147852
0.00148865
0.0014989
0.00150924
0.0015196
0.00152993
0.00126494
0.00126438
0.001264
0.0012639
0.00126402
0.00126436
0.0012649
0.00126565
0.00126661
0.00126778
0.00126917
0.00127078
0.00127263
0.00127473
0.00127709
0.00127974
0.00128267
0.00128591
0.00128945
0.00129329
0.00129745
0.00130193
0.00130674
0.00131185
0.00131727
0.00132298
0.00132897
0.00133524
0.00134178
0.00134857
0.00135566
0.00136308
0.00137081
0.00137928
0.00138884
0.00139918
0.00140839
0.0014161
0.00142354
0.00143151
0.00144009
0.00144917
0.00145868
0.00146853
0.00147865
0.00148895
0.00149937
0.00150985
0.00152035
0.0015308
0.00126336
0.00126291
0.00126262
0.00126257
0.00126272
0.00126306
0.00126358
0.0012643
0.0012652
0.00126629
0.00126758
0.00126908
0.00127081
0.00127279
0.00127503
0.00127755
0.00128039
0.00128354
0.001287
0.00129079
0.00129489
0.00129934
0.00130412
0.00130922
0.00131462
0.0013203
0.00132627
0.00133255
0.00133907
0.00134577
0.00135281
0.00136019
0.00136769
0.00137619
0.00138685
0.00139948
0.00140944
0.00141611
0.00142251
0.00143023
0.00143892
0.00144825
0.00145804
0.00146818
0.00147857
0.00148913
0.00149978
0.00151047
0.00152115
0.00153177
0.00126154
0.00126122
0.00126103
0.00126103
0.00126122
0.00126157
0.00126208
0.00126275
0.00126359
0.00126459
0.00126578
0.00126716
0.00126875
0.00127058
0.00127267
0.00127506
0.00127778
0.00128083
0.0012842
0.00128787
0.00129185
0.00129618
0.00130085
0.00130586
0.0013112
0.00131684
0.00132282
0.0013292
0.00133575
0.00134228
0.0013492
0.00135656
0.00136354
0.00137165
0.00138368
0.00140093
0.00141188
0.00141571
0.0014199
0.00142723
0.00143624
0.00144613
0.00145654
0.00146728
0.00147819
0.00148915
0.00150013
0.00151111
0.00152204
0.00153287
0.00125953
0.00125934
0.00125926
0.00125933
0.00125956
0.00125991
0.00126041
0.00126104
0.00126181
0.00126272
0.00126379
0.00126503
0.00126645
0.0012681
0.00127002
0.00127223
0.00127479
0.0012777
0.00128091
0.00128436
0.00128808
0.0012922
0.00129674
0.00130168
0.00130704
0.00131279
0.00131899
0.00132581
0.00133261
0.00133889
0.00134601
0.00135316
0.001359
0.0013674
0.00138047
0.00140646
0.00141998
0.00141696
0.00141619
0.00142223
0.00143167
0.0014424
0.00145368
0.00146531
0.00147707
0.00148877
0.00150032
0.00151173
0.00152301
0.00153413
0.00125736
0.00125731
0.00125735
0.00125749
0.00125775
0.00125812
0.0012586
0.00125919
0.00125989
0.0012607
0.00126163
0.0012627
0.00126392
0.00126534
0.00126698
0.00126892
0.00127122
0.0012739
0.00127686
0.00128001
0.00128347
0.00128744
0.00129194
0.00129692
0.00130246
0.00130839
0.00131493
0.00132272
0.00133029
0.00133582
0.00134403
0.0013555
0.00135509
0.00135623
0.00138976
0.0014439
0.00145255
0.00142556
0.00140861
0.00141326
0.00142551
0.00143808
0.00145029
0.00146267
0.0014752
0.00148767
0.0015
0.00151211
0.00152397
0.00153552
0.0012551
0.00125518
0.00125533
0.00125555
0.00125585
0.00125623
0.00125669
0.00125723
0.00125786
0.00125855
0.00125933
0.00126019
0.00126113
0.00126219
0.00126341
0.00126491
0.00126682
0.00126921
0.00127193
0.00127485
0.00127821
0.00128224
0.00128681
0.00129184
0.00129757
0.00130344
0.00130988
0.00131898
0.00132891
0.00133739
0.00134985
0.00136104
0.00135367
0.00144327
0.0013956
0.00152539
0.00153065
0.0014457
0.00139062
0.00140724
0.00142631
0.00143925
0.0014503
0.00146194
0.00147418
0.00148668
0.00149931
0.00151201
0.00152463
0.00153686
0.00125278
0.00125299
0.00125323
0.00125352
0.00125386
0.00125425
0.0012547
0.0012552
0.00125575
0.00125632
0.00125691
0.00125749
0.00125801
0.00125855
0.00125922
0.0012602
0.00126166
0.00126371
0.00126622
0.00126907
0.00127259
0.00127692
0.00128165
0.00128658
0.00129239
0.00129745
0.00130242
0.00131253
0.00132581
0.00133855
0.00136028
0.00137476
0.00137471
0.00130767
0.00136151
0.00241698
0.00215273
0.00154999
0.00147089
0.00145723
0.00145346
0.0014523
0.00145636
0.00146461
0.00147522
0.00148684
0.00149906
0.00151185
0.00152504
0.00153794
0.00125046
0.00125077
0.0012511
0.00125144
0.00125181
0.00125222
0.00125266
0.00125313
0.0012536
0.00125404
0.0012544
0.00125458
0.00125459
0.00125458
0.00125475
0.00125526
0.00125626
0.00125784
0.00126
0.00126286
0.00126682
0.00127188
0.00127703
0.00128173
0.00128735
0.00128995
0.0012915
0.0013039
0.00132085
0.00134543
0.00137041
0.0014838
0.00144932
0.00162612
0.00658437
0.00968843
0.00970199
0.00724596
0.00171203
0.00153173
0.00148028
0.00146431
0.00146144
0.00146684
0.00147643
0.00148732
0.00149905
0.00151183
0.00152562
0.00153898
0.00124816
0.00124855
0.00124894
0.00124933
0.00124973
0.00125016
0.0012506
0.00125104
0.00125145
0.00125175
0.00125181
0.00125156
0.00125114
0.0012508
0.0012507
0.00125088
0.00125142
0.00125236
0.00125401
0.00125681
0.00126136
0.00126784
0.00127441
0.00127916
0.00128523
0.00128084
0.00127434
0.00129126
0.00131303
0.00132939
0.00135299
0.00137942
0.00142752
0.00151221
0.00446125
0.00981232
0.00984943
0.00375812
0.00154339
0.00150339
0.00147543
0.00145767
0.00145577
0.00146422
0.00147567
0.00148665
0.00149802
0.00151111
0.00152639
0.0015404
0.00124591
0.00124634
0.00124678
0.0012472
0.00124764
0.00124809
0.00124855
0.00124899
0.00124935
0.0012495
0.00124928
0.00124874
0.00124816
0.0012478
0.00124772
0.0012478
0.00124803
0.00124853
0.00124975
0.0012523
0.00125719
0.00126595
0.00127561
0.00128272
0.00130065
0.00128346
0.00124525
0.00128878
0.00131543
0.00132589
0.00134166
0.00135649
0.00136021
0.00137179
0.00142622
0.00235545
0.00233458
0.00161087
0.00156401
0.00149376
0.0014663
0.00144854
0.00144666
0.00145963
0.00147334
0.00148363
0.00149401
0.00150775
0.00152688
0.00154231
0.00124373
0.00124417
0.00124462
0.00124506
0.00124553
0.00124601
0.00124651
0.00124699
0.00124734
0.00124737
0.001247
0.00124643
0.001246
0.00124591
0.00124612
0.00124637
0.00124675
0.0012476
0.00124903
0.00125118
0.00125656
0.00126934
0.00127665
0.00129169
0.00129154
0.00131312
0.00244718
0.00130986
0.0013209
0.00132492
0.00133212
0.0013533
0.00134155
0.00133919
0.00138478
0.00150059
0.00150879
0.00140363
0.00135822
0.00138983
0.0014163
0.0014283
0.00144049
0.00145809
0.00147094
0.00147767
0.00148582
0.00150057
0.00152777
0.00154566
0.0012416
0.00124201
0.00124245
0.00124291
0.0012434
0.00124394
0.0012445
0.00124505
0.00124543
0.00124547
0.00124515
0.0012448
0.00124474
0.00124511
0.00124575
0.0012463
0.001247
0.00124887
0.00125138
0.00125329
0.00126532
0.00128163
0.00129019
0.00129071
0.00133981
0.00143234
0.00161523
0.00141317
0.00132591
0.00131798
0.00132676
0.00133633
0.00135864
0.00138932
0.00141459
0.00143249
0.00144057
0.00141543
0.00141358
0.00142395
0.00144
0.00144144
0.00143834
0.0014585
0.00146956
0.00146813
0.00147
0.00148676
0.00153121
0.00155227
0.00123952
0.00123986
0.00124026
0.00124071
0.00124124
0.00124184
0.0012425
0.00124316
0.00124367
0.00124385
0.00124379
0.00124386
0.00124434
0.00124525
0.00124641
0.00124712
0.00124778
0.00125037
0.00125438
0.00125003
0.00124473
0.00125993
0.00128673
0.00151524
0.00140677
0.00147509
0.00143689
0.00128522
0.00127213
0.00130168
0.00132487
0.0013351
0.00134543
0.00136724
0.001397
0.00143427
0.00143896
0.00142228
0.00141144
0.00141622
0.00142664
0.00146583
0.00222784
0.00147149
0.00147873
0.00145709
0.00143568
0.00145951
0.00155608
0.00158135
0.00123743
0.00123766
0.001238
0.00123844
0.00123901
0.00123969
0.00124048
0.00124131
0.00124203
0.0012425
0.00124288
0.00124351
0.00124464
0.00124623
0.00124815
0.00124929
0.00125056
0.00125425
0.00125957
0.00122899
0.00116282
0.00250601
0.00137493
0.00108445
0.00177758
0.00203631
0.00226473
0.0012481
0.00126917
0.00129851
0.00132778
0.00134337
0.00134796
0.00135976
0.00137455
0.00139481
0.00140756
0.00141485
0.00142646
0.00143178
0.00143228
0.00146557
0.00150998
0.00147751
0.00146435
0.0014782
0.00153536
0.00143807
0.00172641
0.00176428
0.00123527
0.00123538
0.00123563
0.00123605
0.00123666
0.00123744
0.00123838
0.00123943
0.00124044
0.00124133
0.00124226
0.00124356
0.00124547
0.00124801
0.00125114
0.00125404
0.00125882
0.00126676
0.00126969
0.0012808
0.00150873
0.00145609
0.00158815
0.00214449
0.00965222
0.0105011
0.010155
0.0037656
0.00138523
0.00133989
0.0013324
0.00134184
0.00134994
0.00136026
0.0013725
0.00138914
0.00140581
0.00142079
0.00143601
0.00145179
0.00146941
0.00147803
0.00148876
0.00148799
0.00148653
0.00150927
0.00147434
0.00165516
0.00726928
0.00546955
0.00123298
0.00123294
0.00123309
0.00123349
0.00123413
0.00123502
0.00123614
0.00123744
0.00123881
0.00124019
0.00124173
0.00124375
0.0012465
0.00125013
0.00125471
0.00126006
0.00126901
0.00127657
0.00129015
0.00198381
0.00131336
0.0014043
0.00149933
0.00582191
0.0106647
0.0105382
0.0106009
0.00904042
0.00152881
0.00134701
0.00176446
0.00133937
0.0013556
0.00136302
0.00137318
0.00138382
0.00139569
0.0014079
0.00142115
0.00143371
0.00146255
0.00150484
0.00152107
0.00151673
0.0015195
0.00160349
0.00180663
0.00560869
0.00759109
0.00790622
0.00123048
0.00123027
0.00123032
0.00123069
0.00123137
0.00123237
0.00123366
0.00123523
0.001237
0.0012389
0.00124106
0.0012438
0.00124739
0.00125205
0.00125831
0.0012667
0.00127642
0.00129016
0.00140191
0.00130891
0.00134095
0.00140859
0.00147233
0.00587679
0.0102431
0.0103907
0.0103544
0.0082022
0.00159264
0.00135883
0.00137484
0.0013802
0.00137841
0.00137487
0.00137754
0.00138626
0.00139822
0.00141101
0.00142393
0.00143917
0.00144662
0.00218012
0.00153212
0.00153032
0.0015268
0.00154232
0.00156903
0.00203962
0.00755656
0.00725477
0.00122767
0.0012273
0.00122724
0.00122758
0.0012283
0.0012294
0.00123087
0.00123271
0.00123486
0.00123728
0.00124006
0.00124346
0.00124776
0.00125332
0.00126138
0.0012703
0.00128197
0.00133231
0.00131099
0.00132904
0.00139864
0.00140953
0.00144655
0.00171798
0.00751187
0.0104606
0.00945299
0.00258437
0.00142429
0.00145471
0.00145748
0.00144723
0.00141955
0.00138965
0.00138194
0.0013854
0.00140025
0.00141554
0.00142532
0.00142962
0.00143357
0.00142971
0.00145074
0.00147943
0.00151366
0.00151413
0.00151828
0.00157248
0.00203557
0.00202965
0.00122447
0.00122395
0.00122378
0.00122409
0.00122485
0.00122605
0.00122769
0.00122977
0.00123228
0.00123518
0.00123852
0.0012425
0.00124738
0.00125387
0.00126196
0.00127152
0.00129468
0.00129707
0.0013091
0.00134178
0.00139627
0.00140871
0.00142258
0.00143387
0.00164196
0.00153072
0.00173405
0.00153472
0.00154413
0.00147913
0.00147642
0.00148938
0.00148039
0.00199086
0.00138542
0.00139568
0.00140099
0.00141972
0.0014472
0.00143299
0.00142464
0.00142571
0.00143692
0.0014684
0.00155613
0.00157926
0.00162958
0.00161832
0.00164828
0.00167121
0.0012208
0.00122015
0.00121988
0.00122017
0.00122097
0.00122225
0.00122404
0.00122634
0.00122915
0.00123246
0.0012363
0.00124079
0.00124619
0.00125288
0.0012611
0.00127205
0.00128278
0.00129617
0.00131118
0.00132559
0.00176914
0.00139919
0.00142091
0.00144574
0.00152498
0.00154421
0.00157352
0.00152473
0.00148478
0.00146645
0.00145974
0.00215106
0.00142715
0.00143443
0.00140367
0.00140639
0.00140689
0.00141631
0.00214018
0.00144007
0.00142533
0.0014112
0.00139825
0.00142279
0.00153276
0.0015286
0.00167592
0.00172711
0.0016651
0.00165621
0.0012166
0.00121583
0.00121549
0.00121575
0.00121658
0.00121795
0.00121986
0.00122234
0.0012254
0.00122905
0.00123331
0.00123823
0.00124401
0.00125089
0.00125915
0.0012691
0.00128165
0.00129476
0.00130814
0.00133578
0.0013435
0.00137549
0.00141301
0.00145204
0.00149244
0.00151077
0.0015332
0.00150081
0.00146865
0.00144412
0.00141758
0.0013829
0.00167712
0.00143152
0.00141201
0.0014073
0.00141141
0.00143039
0.00140669
0.00142772
0.00143444
0.00140781
0.00134758
0.00133658
0.001772
0.00142134
0.00204156
0.0017555
0.00147365
0.00156466
0.0012118
0.00121094
0.00121054
0.00121079
0.00121165
0.00121308
0.0012151
0.00121773
0.00122098
0.00122489
0.00122947
0.00123476
0.00124085
0.00124791
0.00125615
0.00126595
0.00127763
0.00129056
0.00130367
0.0013225
0.00133877
0.00136574
0.00139338
0.00144713
0.00144933
0.00179208
0.00146844
0.00149486
0.00151326
0.00140295
0.00140531
0.00139086
0.00139094
0.00140799
0.00140971
0.00140772
0.00141056
0.0014129
0.0014182
0.00143196
0.00144497
0.00144863
0.00135193
0.000883315
0.0103183
0.0191985
0.0182217
0.00555083
0.00105281
0.00150551
0.00120636
0.00120544
0.001205
0.00120525
0.00120613
0.00120762
0.00120972
0.00121246
0.00121587
0.00121996
0.00122478
0.00123034
0.00123671
0.00124396
0.00125223
0.00126171
0.00127282
0.00128563
0.00130139
0.00131526
0.00133217
0.00135228
0.00138753
0.00138471
0.00139837
0.00140511
0.00142753
0.00146997
0.00139005
0.00139079
0.0013942
0.00139014
0.00139077
0.0013967
0.00140001
0.00140264
0.00140705
0.00141421
0.00142697
0.00144834
0.00147853
0.00154185
0.00175845
0.00977673
0.0187126
0.0189343
0.0187663
0.0181258
0.00417425
0.00187184
0.00120026
0.0011993
0.00119884
0.00119909
0.0012
0.00120153
0.00120371
0.00120653
0.00121004
0.00121425
0.00121922
0.00122497
0.00123154
0.00123897
0.00124732
0.00125672
0.00126747
0.00127986
0.00129356
0.00130668
0.00132146
0.00133825
0.00135519
0.00136525
0.00137742
0.00138709
0.00139747
0.00138865
0.00138139
0.00138464
0.00138494
0.00138416
0.00138614
0.0013889
0.00139246
0.00139667
0.00140249
0.0014106
0.00142274
0.00144399
0.00147828
0.0015461
0.00165717
0.00276248
0.0190649
0.019076
0.0191909
0.0133756
0.00185103
0.00180972
0.00119346
0.0011925
0.00119204
0.0011923
0.00119323
0.00119481
0.00119703
0.00119991
0.00120349
0.00120778
0.00121283
0.00121866
0.00122534
0.00123287
0.0012413
0.00125069
0.0012612
0.00127291
0.00128543
0.00129852
0.00131213
0.00132647
0.0013393
0.0013509
0.00136112
0.00136847
0.00137466
0.00137623
0.00137531
0.00137503
0.00137684
0.00137798
0.00137974
0.00138243
0.00138551
0.00138957
0.00139495
0.00140185
0.00141218
0.00143009
0.00146095
0.00151654
0.00170147
0.00633999
0.0184573
0.0191276
0.0191838
0.0187145
0.00304785
0.0017898
0.00118598
0.00118503
0.00118458
0.00118487
0.00118582
0.00118743
0.00118968
0.00119261
0.00119622
0.00120055
0.00120562
0.00121148
0.00121815
0.00122568
0.00123409
0.0012434
0.00125366
0.00126484
0.00127675
0.00128922
0.00130203
0.0013151
0.00132715
0.00133782
0.00134774
0.00135625
0.00136337
0.0013667
0.00136767
0.00136916
0.0013707
0.00137201
0.00137353
0.00137539
0.00137758
0.00138069
0.00138493
0.0013889
0.00139255
0.00139447
0.00141187
0.00140401
0.00127205
0.000786105
0.0049377
0.017043
0.0131107
0.00325922
0.000754788
0.00132147
0.0011778
0.00117688
0.00117647
0.00117678
0.00117776
0.00117939
0.00118167
0.00118461
0.00118824
0.00119257
0.00119763
0.00120345
0.00121004
0.00121745
0.00122566
0.00123469
0.00124451
0.0012551
0.00126631
0.00127799
0.00129012
0.00130237
0.00131436
0.00132564
0.00133599
0.00134502
0.00135263
0.00135799
0.00136185
0.00136487
0.00136706
0.0013682
0.00136843
0.00136864
0.0013692
0.00137083
0.00137348
0.00137689
0.00138184
0.00137638
0.00141575
0.00136031
0.00128752
0.00124672
0.00148928
0.00114051
0.00143159
0.00159384
0.00127216
0.00134405
0.00116895
0.00116808
0.0011677
0.00116805
0.00116905
0.00117069
0.00117298
0.00117593
0.00117956
0.00118387
0.00118888
0.00119462
0.00120109
0.00120828
0.0012162
0.00122484
0.00123417
0.00124416
0.00125471
0.00126573
0.00127706
0.00128846
0.0012996
0.00131025
0.0013203
0.0013296
0.00133793
0.00134485
0.00135054
0.00135528
0.00135911
0.0013621
0.00136369
0.00136447
0.00136401
0.00136322
0.00136358
0.00136436
0.00136498
0.00136029
0.00135279
0.00133688
0.00131834
0.00131237
0.00137854
0.00132007
0.00138646
0.00144297
0.00138538
0.00141308
0.00115943
0.00115861
0.00115829
0.00115867
0.00115969
0.00116135
0.00116365
0.00116659
0.00117019
0.00117446
0.00117941
0.00118505
0.00119135
0.00119831
0.00120593
0.00121422
0.00122316
0.00123273
0.00124284
0.00125341
0.00126428
0.0012753
0.00128624
0.00129692
0.00130725
0.00131707
0.00132613
0.00133399
0.0013404
0.0013453
0.00134848
0.00135036
0.00135042
0.00135195
0.0013533
0.00135546
0.00135623
0.00135693
0.00135567
0.0013515
0.00134576
0.00133919
0.00133252
0.00133038
0.00136661
0.00135112
0.00138245
0.00141499
0.0013992
0.00142717
0.00114927
0.00114851
0.00114824
0.00114865
0.0011497
0.00115137
0.00115367
0.00115659
0.00116016
0.00116438
0.00116925
0.00117475
0.00118086
0.00118758
0.00119494
0.00120296
0.00121162
0.00122091
0.00123075
0.00124105
0.00125172
0.00126262
0.00127361
0.00128457
0.00129542
0.00130605
0.0013162
0.00132536
0.00133306
0.00133903
0.00134272
0.00134472
0.00134123
0.00134089
0.00133804
0.00133779
0.00134006
0.00134332
0.00134567
0.00134487
0.0013422
0.00133882
0.00133702
0.00133976
0.00135881
0.00135833
0.0013814
0.00140732
0.00140493
0.00151403
0.00113848
0.00113779
0.00113758
0.00113802
0.00113909
0.00114077
0.00114306
0.00114596
0.00114949
0.00115365
0.00115842
0.00116376
0.00116967
0.00117617
0.00118331
0.00119112
0.0011996
0.00120871
0.00121839
0.00122857
0.00123916
0.00125007
0.00126123
0.00127258
0.00128408
0.00129571
0.00130725
0.00131813
0.00132772
0.0013356
0.00134084
0.00134589
0.00133454
0.00133396
0.00132544
0.00132337
0.00132435
0.00132603
0.00132849
0.00133221
0.00133668
0.00134023
0.00134238
0.00134644
0.00135727
0.00136354
0.00138003
0.00139607
0.00140168
0.00141661
0.00112708
0.00112646
0.0011263
0.00112679
0.00112788
0.00112956
0.00113183
0.00113471
0.0011382
0.00114228
0.00114692
0.00115209
0.00115779
0.00116411
0.00117109
0.00117877
0.00118713
0.00119613
0.00120572
0.00121584
0.00122642
0.00123742
0.00124879
0.00126054
0.00127273
0.00128544
0.00129859
0.00131181
0.00132458
0.00133602
0.00134673
0.00135998
0.00133302
0.001331
0.00131103
0.00130739
0.00130874
0.00131096
0.0013141
0.00131797
0.00132227
0.00132816
0.00133662
0.00134709
0.00135812
0.00136656
0.0013787
0.00139222
0.00140407
0.00141883
0.0011151
0.00111455
0.00111444
0.00111496
0.00111606
0.00111775
0.00112001
0.00112286
0.00112629
0.00113028
0.00113478
0.00113976
0.0011453
0.00115147
0.00115834
0.00116594
0.00117423
0.00118317
0.00119271
0.0012028
0.00121339
0.00122445
0.001236
0.00124808
0.00126088
0.0012746
0.00128946
0.00130575
0.0013239
0.00134506
0.00136063
0.00138386
0.00133064
0.00132768
0.00129331
0.00128523
0.00129103
0.00129492
0.00129938
0.00130481
0.00131078
0.00131749
0.00132542
0.00133524
0.00134858
0.0013631
0.0013777
0.00139072
0.00140364
0.00141907
0.00110256
0.00110207
0.00110201
0.00110256
0.00110368
0.00110536
0.00110761
0.00111042
0.00111379
0.00111768
0.00112201
0.00112683
0.00113222
0.0011383
0.00114511
0.00115265
0.0011609
0.0011698
0.00117931
0.00118937
0.00119995
0.00121103
0.00122264
0.00123487
0.00124797
0.00126237
0.00127882
0.00129831
0.00132355
0.00136723
0.00140809
0.00147158
0.00134816
0.00138608
0.00125562
0.00127817
0.00127572
0.00127773
0.00128356
0.00129109
0.00129891
0.00130692
0.0013158
0.00132606
0.0013381
0.00135137
0.00136737
0.00138553
0.00140249
0.00141751
0.00108947
0.00108903
0.00108902
0.0010896
0.00109073
0.00109241
0.00109463
0.00109741
0.00110072
0.00110447
0.00110865
0.00111332
0.00111862
0.00112464
0.00113141
0.00113891
0.00114713
0.00115599
0.00116546
0.00117547
0.001186
0.00119702
0.00120854
0.00122062
0.00123352
0.00124781
0.00126427
0.00128606
0.00131266
0.00137085
0.00186432
0.00695874
0.0119331
0.00801735
0.00198333
0.00126413
0.00126381
0.0012645
0.00126728
0.00127643
0.00128626
0.0012956
0.00130547
0.00131634
0.00132849
0.00134174
0.00135643
0.00137254
0.00139131
0.00141189
0.00107584
0.00107546
0.00107549
0.00107609
0.00107723
0.00107891
0.00108111
0.00108385
0.00108707
0.00109069
0.00109472
0.00109929
0.00110454
0.00111052
0.00111725
0.00112472
0.00113288
0.0011417
0.0011511
0.00116103
0.00117145
0.00118232
0.00119359
0.00120514
0.0012171
0.00122896
0.00123983
0.00125135
0.00126111
0.00121527
0.00690788
0.0121762
0.0129455
0.0124731
0.00737447
0.00128877
0.00125274
0.00124659
0.00124953
0.00125994
0.00127269
0.00128323
0.00129411
0.00130573
0.00131826
0.00133158
0.00134588
0.0013613
0.00137829
0.00139753
0.0010617
0.00106136
0.00106143
0.00106205
0.0010632
0.00106487
0.00106706
0.00106975
0.00107287
0.00107636
0.00108027
0.00108477
0.00108999
0.00109594
0.00110263
0.00111004
0.00111814
0.00112685
0.00113612
0.0011459
0.00115612
0.00116678
0.00117782
0.00118886
0.00120033
0.00121143
0.00122006
0.00122532
0.00123296
0.00125875
0.0102957
0.0129988
0.0129376
0.0131057
0.00922282
0.00127715
0.00120678
0.00122101
0.00122792
0.00124211
0.00125737
0.00126951
0.00128177
0.00129423
0.00130725
0.00132067
0.00133462
0.00134935
0.0013653
0.00138314
0.00104705
0.00104675
0.00104686
0.0010475
0.00104866
0.00105032
0.00105248
0.00105512
0.00105814
0.0010615
0.00106533
0.0010698
0.00107499
0.00108091
0.00108755
0.00109487
0.00110283
0.00111137
0.0011204
0.00112987
0.00113975
0.00115005
0.00116085
0.00117121
0.0011821
0.0011961
0.00120888
0.00122694
0.00125501
0.00129562
0.00262517
0.0109856
0.013029
0.0122277
0.00349026
0.00115232
0.00120127
0.00119631
0.00120676
0.00122611
0.00124656
0.00125726
0.00126975
0.00128224
0.00129572
0.00130912
0.00132263
0.00133652
0.00135115
0.00136701
0.0010319
0.00103165
0.00103178
0.00103245
0.00103361
0.00103526
0.0010374
0.00103998
0.0010429
0.00104616
0.00104993
0.00105438
0.00105956
0.00106544
0.00107199
0.00107917
0.00108692
0.00109516
0.00110382
0.00111284
0.00112219
0.00113196
0.00114224
0.00115121
0.00116042
0.00118246
0.00118402
0.00119394
0.00120325
0.00121371
0.00119766
0.001968
0.0042868
0.00229719
0.000939135
0.00108358
0.00113032
0.00116242
0.0011872
0.00120967
0.0013854
0.00124031
0.00125562
0.00127113
0.00128402
0.00129719
0.00131012
0.00132304
0.00133634
0.00135045
0.00101627
0.00101605
0.00101622
0.0010169
0.00101807
0.00101971
0.00102182
0.00102434
0.00102717
0.00103036
0.0010341
0.00103855
0.0010437
0.00104951
0.00105594
0.00106291
0.00107037
0.00107823
0.00108644
0.00109494
0.00110373
0.00111295
0.0011226
0.00113133
0.00114026
0.00117548
0.00115892
0.00116627
0.00117315
0.00117578
0.00116811
0.0011929
0.00119318
0.00110004
0.00104244
0.00108243
0.00112301
0.00115271
0.00117594
0.00130002
0.00120373
0.00122026
0.00123832
0.00125539
0.00127206
0.00128537
0.00129767
0.00130951
0.00132118
0.0013332
0.00100015
0.000999971
0.00100017
0.00100087
0.00100205
0.00100369
0.00100577
0.00100823
0.00101098
0.00101413
0.00101786
0.0010223
0.00102741
0.00103312
0.00103937
0.00104609
0.00105321
0.00106067
0.00106843
0.00107646
0.00108476
0.0010936
0.00110263
0.00111135
0.00112702
0.00113049
0.0011357
0.00114109
0.00114738
0.0011497
0.00115033
0.00116367
0.00112535
0.00111469
0.00109078
0.00110369
0.0011234
0.00114272
0.0011741
0.00117623
0.00118941
0.00120497
0.0012215
0.00124149
0.00125946
0.00127344
0.00128483
0.00129575
0.00130634
0.0013164
0.000983561
0.000983423
0.000983659
0.000984381
0.000985567
0.000987201
0.000989261
0.000991664
0.000994364
0.000997492
0.00100123
0.00100564
0.00101068
0.00101626
0.0010223
0.00102873
0.00103552
0.00104261
0.00104999
0.00105763
0.00106554
0.00107372
0.00108251
0.00109146
0.00109977
0.00110684
0.00111661
0.00112079
0.0011242
0.00112661
0.00112839
0.00113293
0.00111165
0.00112826
0.00110192
0.0011223
0.00112494
0.00113366
0.00115095
0.00116294
0.00117719
0.00118997
0.00120676
0.00134559
0.00124914
0.00125752
0.00126705
0.00127641
0.00128614
0.00129564
0.00153644
0.00154716
0.00155771
0.00156803
0.00157808
0.00158782
0.00159723
0.00160627
0.00161491
0.00162312
0.00163086
0.00163811
0.0016448
0.0016509
0.00165636
0.00166114
0.00166519
0.00166847
0.00167095
0.00167261
0.00167348
0.00167358
0.00167306
0.00167211
0.00167097
0.00166985
0.00166887
0.00166811
0.00166756
0.00166723
0.00166706
0.00166703
0.00166711
0.00166728
0.00166752
0.00166784
0.00166823
0.00166869
0.00166922
0.00166983
0.00167051
0.00167124
0.001672
0.00167276
0.00167347
0.00167409
0.00167456
0.00167485
0.00167492
0.00167484
0.00153667
0.00154717
0.00155751
0.00156764
0.00157751
0.00158709
0.00159635
0.00160525
0.00161376
0.00162185
0.00162948
0.00163661
0.00164319
0.00164919
0.00165457
0.00165927
0.00166327
0.00166653
0.00166904
0.0016708
0.00167182
0.00167215
0.0016719
0.00167125
0.00167041
0.00166955
0.00166877
0.00166815
0.0016677
0.00166742
0.00166729
0.00166728
0.00166739
0.00166758
0.00166785
0.00166819
0.00166859
0.00166907
0.0016696
0.0016702
0.00167084
0.00167152
0.00167221
0.0016729
0.00167353
0.00167408
0.00167451
0.00167477
0.00167483
0.00167475
0.001537
0.00154731
0.00155747
0.00156743
0.00157715
0.0015866
0.00159573
0.00160452
0.00161293
0.00162092
0.00162845
0.0016355
0.001642
0.00164793
0.00165324
0.0016579
0.00166187
0.00166513
0.00166766
0.00166949
0.00167063
0.00167111
0.00167102
0.00167054
0.00166988
0.00166919
0.00166857
0.00166807
0.00166771
0.0016675
0.00166742
0.00166746
0.0016676
0.00166783
0.00166813
0.0016685
0.00166893
0.00166942
0.00166996
0.00167054
0.00167116
0.00167181
0.00167246
0.00167309
0.00167367
0.00167418
0.00167457
0.00167483
0.00167491
0.00167483
0.00153743
0.00154761
0.00155765
0.0015675
0.00157712
0.00158647
0.00159553
0.00160424
0.00161259
0.00162052
0.00162801
0.00163502
0.00164149
0.0016474
0.00165269
0.00165733
0.0016613
0.00166456
0.00166712
0.00166898
0.00167018
0.00167069
0.00167059
0.00167006
0.00166942
0.00166879
0.00166825
0.00166784
0.00166757
0.00166744