/*--------------------------------*- C++ -*----------------------------------*\
| =========                 |                                                 |
| \\      /  F ield         | OpenFOAM: The Open Source CFD Toolbox           |
|  \\    /   O peration     | Version:  2.4.0                                 |
|   \\  /    A nd           | Web:      www.OpenFOAM.org                      |
|    \\/     M anipulation  |                                                 |
\*---------------------------------------------------------------------------*/
FoamFile
{
    version     2.0;
    format      ascii;
    class       volScalarField;
    location    "0.024";
    object      p;
}
// * * * * * * * * * * * * * * * * * * * * * * * * * * * * * * * * * * * * * //

dimensions      [1 -1 -2 0 0 0 0];

internalField   nonuniform List<scalar> 
60000
(
97.0435
97.0435
97.0435
97.0435
97.0435
97.0435
97.0435
97.0435
97.0435
97.0436
97.0436
97.0436
97.0436
97.0436
97.0436
97.0436
97.0436
97.0436
97.0436
97.0436
97.0436
97.0436
97.0437
97.0437
97.0437
97.0437
97.0437
97.0437
97.0438
97.0438
97.0438
97.0438
97.0438
97.0439
97.0439
97.0439
97.0439
97.044
97.044
97.044
97.044
97.0441
97.0441
97.0441
97.0442
97.0442
97.0443
97.0443
97.0443
97.0444
97.0444
97.0445
97.0445
97.0445
97.0446
97.0446
97.0447
97.0447
97.0448
97.0448
97.0449
97.0449
97.045
97.045
97.0451
97.0451
97.0452
97.0452
97.0453
97.0453
97.0454
97.0454
97.0454
97.0455
97.0455
97.0455
97.0455
97.0455
97.0455
97.0455
97.0454
97.0454
97.0453
97.0452
97.0451
97.045
97.0449
97.0447
97.0445
97.0443
97.0441
97.0439
97.0437
97.0435
97.0432
97.0429
97.0427
97.0424
97.0421
97.0418
95.0815
95.0815
95.0815
95.0815
95.0815
95.0815
95.0815
95.0815
95.0815
95.0816
95.0816
95.0816
95.0816
95.0816
95.0816
95.0816
95.0816
95.0816
95.0816
95.0816
95.0816
95.0816
95.0817
95.0817
95.0817
95.0817
95.0817
95.0817
95.0818
95.0818
95.0818
95.0818
95.0818
95.0819
95.0819
95.0819
95.0819
95.082
95.082
95.082
95.082
95.0821
95.0821
95.0821
95.0822
95.0822
95.0823
95.0823
95.0823
95.0824
95.0824
95.0825
95.0825
95.0825
95.0826
95.0826
95.0827
95.0827
95.0828
95.0828
95.0829
95.0829
95.083
95.083
95.0831
95.0831
95.0832
95.0832
95.0833
95.0833
95.0834
95.0834
95.0835
95.0835
95.0835
95.0835
95.0835
95.0835
95.0835
95.0835
95.0834
95.0834
95.0833
95.0832
95.0831
95.083
95.0829
95.0827
95.0825
95.0824
95.0822
95.0819
95.0817
95.0815
95.0812
95.0809
95.0807
95.0804
95.0801
95.0798
93.1195
93.1195
93.1195
93.1195
93.1195
93.1195
93.1195
93.1195
93.1195
93.1196
93.1196
93.1196
93.1196
93.1196
93.1196
93.1196
93.1196
93.1196
93.1196
93.1196
93.1196
93.1196
93.1197
93.1197
93.1197
93.1197
93.1197
93.1197
93.1198
93.1198
93.1198
93.1198
93.1198
93.1199
93.1199
93.1199
93.1199
93.12
93.12
93.12
93.12
93.1201
93.1201
93.1201
93.1202
93.1202
93.1203
93.1203
93.1203
93.1204
93.1204
93.1205
93.1205
93.1205
93.1206
93.1206
93.1207
93.1207
93.1208
93.1208
93.1209
93.1209
93.121
93.121
93.1211
93.1212
93.1212
93.1213
93.1213
93.1213
93.1214
93.1214
93.1215
93.1215
93.1215
93.1215
93.1215
93.1215
93.1215
93.1215
93.1214
93.1214
93.1213
93.1212
93.1211
93.121
93.1209
93.1207
93.1206
93.1204
93.1202
93.1199
93.1197
93.1195
93.1192
93.1189
93.1187
93.1184
93.1181
93.1178
91.1575
91.1575
91.1575
91.1575
91.1575
91.1575
91.1575
91.1575
91.1575
91.1576
91.1576
91.1576
91.1576
91.1576
91.1576
91.1576
91.1576
91.1576
91.1576
91.1576
91.1576
91.1576
91.1577
91.1577
91.1577
91.1577
91.1577
91.1577
91.1578
91.1578
91.1578
91.1578
91.1578
91.1579
91.1579
91.1579
91.1579
91.158
91.158
91.158
91.158
91.1581
91.1581
91.1581
91.1582
91.1582
91.1583
91.1583
91.1583
91.1584
91.1584
91.1585
91.1585
91.1585
91.1586
91.1586
91.1587
91.1587
91.1588
91.1588
91.1589
91.1589
91.159
91.1591
91.1591
91.1592
91.1592
91.1593
91.1593
91.1593
91.1594
91.1594
91.1595
91.1595
91.1595
91.1595
91.1595
91.1595
91.1595
91.1595
91.1595
91.1594
91.1593
91.1593
91.1592
91.159
91.1589
91.1587
91.1586
91.1584
91.1582
91.158
91.1577
91.1575
91.1572
91.157
91.1567
91.1564
91.1561
91.1558
89.1955
89.1955
89.1955
89.1955
89.1955
89.1955
89.1955
89.1955
89.1955
89.1956
89.1956
89.1956
89.1956
89.1956
89.1956
89.1956
89.1956
89.1956
89.1956
89.1956
89.1956
89.1956
89.1957
89.1957
89.1957
89.1957
89.1957
89.1957
89.1958
89.1958
89.1958
89.1958
89.1958
89.1959
89.1959
89.1959
89.1959
89.196
89.196
89.196
89.196
89.1961
89.1961
89.1961
89.1962
89.1962
89.1963
89.1963
89.1963
89.1964
89.1964
89.1965
89.1965
89.1965
89.1966
89.1966
89.1967
89.1967
89.1968
89.1968
89.1969
89.1969
89.197
89.1971
89.1971
89.1972
89.1972
89.1973
89.1973
89.1974
89.1974
89.1974
89.1975
89.1975
89.1975
89.1975
89.1976
89.1975
89.1975
89.1975
89.1975
89.1974
89.1974
89.1973
89.1972
89.1971
89.1969
89.1968
89.1966
89.1964
89.1962
89.196
89.1957
89.1955
89.1952
89.195
89.1947
89.1944
89.1941
89.1938
87.2335
87.2335
87.2335
87.2335
87.2335
87.2335
87.2335
87.2335
87.2335
87.2336
87.2336
87.2336
87.2336
87.2336
87.2336
87.2336
87.2336
87.2336
87.2336
87.2336
87.2336
87.2336
87.2337
87.2337
87.2337
87.2337
87.2337
87.2337
87.2338
87.2338
87.2338
87.2338
87.2338
87.2339
87.2339
87.2339
87.2339
87.234
87.234
87.234
87.234
87.2341
87.2341
87.2341
87.2342
87.2342
87.2342
87.2343
87.2343
87.2344
87.2344
87.2345
87.2345
87.2345
87.2346
87.2346
87.2347
87.2347
87.2348
87.2348
87.2349
87.235
87.235
87.2351
87.2351
87.2352
87.2352
87.2353
87.2353
87.2354
87.2354
87.2354
87.2355
87.2355
87.2355
87.2356
87.2356
87.2356
87.2356
87.2355
87.2355
87.2354
87.2354
87.2353
87.2352
87.2351
87.2349
87.2348
87.2346
87.2344
87.2342
87.234
87.2338
87.2335
87.2333
87.233
87.2327
87.2324
87.2321
87.2318
85.2715
85.2715
85.2715
85.2715
85.2715
85.2715
85.2715
85.2715
85.2715
85.2716
85.2716
85.2716
85.2716
85.2716
85.2716
85.2716
85.2716
85.2716
85.2716
85.2716
85.2716
85.2716
85.2717
85.2717
85.2717
85.2717
85.2717
85.2717
85.2717
85.2718
85.2718
85.2718
85.2718
85.2719
85.2719
85.2719
85.2719
85.272
85.272
85.272
85.272
85.2721
85.2721
85.2721
85.2722
85.2722
85.2722
85.2723
85.2723
85.2724
85.2724
85.2725
85.2725
85.2725
85.2726
85.2726
85.2727
85.2727
85.2728
85.2728
85.2729
85.273
85.273
85.2731
85.2731
85.2732
85.2732
85.2733
85.2733
85.2734
85.2734
85.2735
85.2735
85.2735
85.2736
85.2736
85.2736
85.2736
85.2736
85.2736
85.2735
85.2735
85.2734
85.2733
85.2732
85.2731
85.273
85.2728
85.2726
85.2725
85.2722
85.272
85.2718
85.2715
85.2713
85.271
85.2707
85.2704
85.2701
85.2698
83.3095
83.3095
83.3095
83.3095
83.3095
83.3095
83.3095
83.3095
83.3095
83.3096
83.3096
83.3096
83.3096
83.3096
83.3096
83.3096
83.3096
83.3096
83.3096
83.3096
83.3096
83.3096
83.3097
83.3097
83.3097
83.3097
83.3097
83.3097
83.3097
83.3098
83.3098
83.3098
83.3098
83.3099
83.3099
83.3099
83.3099
83.31
83.31
83.31
83.31
83.3101
83.3101
83.3101
83.3102
83.3102
83.3102
83.3103
83.3103
83.3104
83.3104
83.3105
83.3105
83.3105
83.3106
83.3106
83.3107
83.3107
83.3108
83.3109
83.3109
83.311
83.311
83.3111
83.3111
83.3112
83.3112
83.3113
83.3113
83.3114
83.3114
83.3115
83.3115
83.3115
83.3116
83.3116
83.3116
83.3116
83.3116
83.3116
83.3115
83.3115
83.3114
83.3114
83.3113
83.3111
83.311
83.3109
83.3107
83.3105
83.3103
83.3101
83.3098
83.3096
83.3093
83.309
83.3087
83.3084
83.3081
83.3078
81.3475
81.3475
81.3475
81.3475
81.3475
81.3475
81.3475
81.3475
81.3475
81.3475
81.3476
81.3476
81.3476
81.3476
81.3476
81.3476
81.3476
81.3476
81.3476
81.3476
81.3476
81.3476
81.3477
81.3477
81.3477
81.3477
81.3477
81.3477
81.3477
81.3478
81.3478
81.3478
81.3478
81.3478
81.3479
81.3479
81.3479
81.3479
81.348
81.348
81.348
81.3481
81.3481
81.3481
81.3482
81.3482
81.3482
81.3483
81.3483
81.3484
81.3484
81.3485
81.3485
81.3485
81.3486
81.3486
81.3487
81.3487
81.3488
81.3489
81.3489
81.349
81.349
81.3491
81.3491
81.3492
81.3492
81.3493
81.3493
81.3494
81.3494
81.3495
81.3495
81.3496
81.3496
81.3496
81.3496
81.3496
81.3496
81.3496
81.3496
81.3495
81.3495
81.3494
81.3493
81.3492
81.349
81.3489
81.3487
81.3485
81.3483
81.3481
81.3478
81.3476
81.3473
81.347
81.3468
81.3464
81.3462
81.3458
79.3855
79.3855
79.3855
79.3855
79.3855
79.3855
79.3855
79.3855
79.3855
79.3855
79.3856
79.3856
79.3856
79.3856
79.3856
79.3856
79.3856
79.3856
79.3856
79.3856
79.3856
79.3856
79.3857
79.3857
79.3857
79.3857
79.3857
79.3857
79.3857
79.3858
79.3858
79.3858
79.3858
79.3858
79.3859
79.3859
79.3859
79.3859
79.386
79.386
79.386
79.3861
79.3861
79.3861
79.3862
79.3862
79.3862
79.3863
79.3863
79.3864
79.3864
79.3865
79.3865
79.3865
79.3866
79.3866
79.3867
79.3867
79.3868
79.3869
79.3869
79.387
79.387
79.3871
79.3871
79.3872
79.3872
79.3873
79.3873
79.3874
79.3874
79.3875
79.3875
79.3876
79.3876
79.3876
79.3877
79.3877
79.3877
79.3876
79.3876
79.3876
79.3875
79.3874
79.3873
79.3872
79.3871
79.3869
79.3868
79.3866
79.3864
79.3861
79.3859
79.3856
79.3853
79.3851
79.3848
79.3845
79.3842
79.3838
77.4235
77.4235
77.4235
77.4235
77.4235
77.4235
77.4235
77.4235
77.4235
77.4235
77.4235
77.4236
77.4236
77.4236
77.4236
77.4236
77.4236
77.4236
77.4236
77.4236
77.4236
77.4236
77.4236
77.4237
77.4237
77.4237
77.4237
77.4237
77.4237
77.4238
77.4238
77.4238
77.4238
77.4238
77.4239
77.4239
77.4239
77.4239
77.424
77.424
77.424
77.4241
77.4241
77.4241
77.4242
77.4242
77.4242
77.4243
77.4243
77.4244
77.4244
77.4245
77.4245
77.4245
77.4246
77.4246
77.4247
77.4247
77.4248
77.4249
77.4249
77.425
77.425
77.4251
77.4251
77.4252
77.4252
77.4253
77.4254
77.4254
77.4255
77.4255
77.4256
77.4256
77.4256
77.4257
77.4257
77.4257
77.4257
77.4257
77.4257
77.4256
77.4256
77.4255
77.4254
77.4253
77.4251
77.425
77.4248
77.4246
77.4244
77.4242
77.4239
77.4237
77.4234
77.4231
77.4228
77.4225
77.4222
77.4219
75.4615
75.4615
75.4615
75.4615
75.4615
75.4615
75.4615
75.4615
75.4615
75.4615
75.4615
75.4616
75.4616
75.4616
75.4616
75.4616
75.4616
75.4616
75.4616
75.4616
75.4616
75.4616
75.4616
75.4617
75.4617
75.4617
75.4617
75.4617
75.4617
75.4618
75.4618
75.4618
75.4618
75.4618
75.4619
75.4619
75.4619
75.4619
75.462
75.462
75.462
75.4621
75.4621
75.4621
75.4622
75.4622
75.4622
75.4623
75.4623
75.4624
75.4624
75.4625
75.4625
75.4625
75.4626
75.4626
75.4627
75.4627
75.4628
75.4629
75.4629
75.463
75.463
75.4631
75.4631
75.4632
75.4633
75.4633
75.4634
75.4634
75.4635
75.4635
75.4636
75.4636
75.4636
75.4637
75.4637
75.4637
75.4637
75.4637
75.4637
75.4637
75.4636
75.4635
75.4634
75.4633
75.4632
75.463
75.4629
75.4627
75.4624
75.4622
75.462
75.4617
75.4614
75.4611
75.4608
75.4605
75.4602
75.4599
73.4995
73.4995
73.4995
73.4995
73.4995
73.4995
73.4995
73.4995
73.4995
73.4995
73.4995
73.4995
73.4996
73.4996
73.4996
73.4996
73.4996
73.4996
73.4996
73.4996
73.4996
73.4996
73.4996
73.4997
73.4997
73.4997
73.4997
73.4997
73.4997
73.4998
73.4998
73.4998
73.4998
73.4998
73.4999
73.4999
73.4999
73.4999
73.5
73.5
73.5
73.5001
73.5001
73.5001
73.5002
73.5002
73.5002
73.5003
73.5003
73.5004
73.5004
73.5004
73.5005
73.5005
73.5006
73.5006
73.5007
73.5007
73.5008
73.5009
73.5009
73.501
73.501
73.5011
73.5011
73.5012
73.5013
73.5013
73.5014
73.5014
73.5015
73.5015
73.5016
73.5016
73.5017
73.5017
73.5017
73.5018
73.5018
73.5018
73.5017
73.5017
73.5017
73.5016
73.5015
73.5014
73.5013
73.5011
73.5009
73.5007
73.5005
73.5003
73.5
73.4997
73.4995
73.4992
73.4989
73.4985
73.4982
73.4979
71.5375
71.5375
71.5375
71.5375
71.5375
71.5375
71.5375
71.5375
71.5375
71.5375
71.5375
71.5375
71.5376
71.5376
71.5376
71.5376
71.5376
71.5376
71.5376
71.5376
71.5376
71.5376
71.5376
71.5377
71.5377
71.5377
71.5377
71.5377
71.5377
71.5377
71.5378
71.5378
71.5378
71.5378
71.5379
71.5379
71.5379
71.5379
71.538
71.538
71.538
71.5381
71.5381
71.5381
71.5382
71.5382
71.5382
71.5383
71.5383
71.5384
71.5384
71.5384
71.5385
71.5385
71.5386
71.5386
71.5387
71.5387
71.5388
71.5389
71.5389
71.539
71.539
71.5391
71.5391
71.5392
71.5393
71.5393
71.5394
71.5394
71.5395
71.5396
71.5396
71.5397
71.5397
71.5397
71.5398
71.5398
71.5398
71.5398
71.5398
71.5398
71.5397
71.5397
71.5396
71.5395
71.5393
71.5392
71.539
71.5388
71.5386
71.5383
71.5381
71.5378
71.5375
71.5372
71.5369
71.5365
71.5362
71.5359
69.5755
69.5755
69.5755
69.5755
69.5755
69.5755
69.5755
69.5755
69.5755
69.5755
69.5755
69.5755
69.5755
69.5756
69.5756
69.5756
69.5756
69.5756
69.5756
69.5756
69.5756
69.5756
69.5756
69.5756
69.5757
69.5757
69.5757
69.5757
69.5757
69.5757
69.5758
69.5758
69.5758
69.5758
69.5759
69.5759
69.5759
69.5759
69.576
69.576
69.576
69.5761
69.5761
69.5761
69.5762
69.5762
69.5762
69.5763
69.5763
69.5764
69.5764
69.5764
69.5765
69.5765
69.5766
69.5766
69.5767
69.5767
69.5768
69.5769
69.5769
69.577
69.577
69.5771
69.5771
69.5772
69.5773
69.5773
69.5774
69.5775
69.5775
69.5776
69.5776
69.5777
69.5777
69.5778
69.5778
69.5778
69.5779
69.5779
69.5779
69.5778
69.5778
69.5777
69.5776
69.5775
69.5774
69.5772
69.577
69.5768
69.5766
69.5764
69.5761
69.5758
69.5755
69.5752
69.5749
69.5746
69.5743
69.5739
67.6135
67.6135
67.6135
67.6135
67.6135
67.6135
67.6135
67.6135
67.6135
67.6135
67.6135
67.6135
67.6135
67.6136
67.6136
67.6136
67.6136
67.6136
67.6136
67.6136
67.6136
67.6136
67.6136
67.6136
67.6137
67.6137
67.6137
67.6137
67.6137
67.6137
67.6138
67.6138
67.6138
67.6138
67.6139
67.6139
67.6139
67.6139
67.614
67.614
67.614
67.614
67.6141
67.6141
67.6142
67.6142
67.6142
67.6143
67.6143
67.6143
67.6144
67.6144
67.6145
67.6145
67.6146
67.6146
67.6147
67.6147
67.6148
67.6149
67.6149
67.615
67.615
67.6151
67.6152
67.6152
67.6153
67.6153
67.6154
67.6155
67.6155
67.6156
67.6156
67.6157
67.6158
67.6158
67.6159
67.6159
67.6159
67.6159
67.6159
67.6159
67.6159
67.6158
67.6157
67.6156
67.6155
67.6153
67.6151
67.6149
67.6147
67.6144
67.6142
67.6139
67.6136
67.6133
67.6129
67.6126
67.6123
67.6119
65.6515
65.6515
65.6515
65.6515
65.6515
65.6515
65.6515
65.6515
65.6515
65.6515
65.6515
65.6515
65.6515
65.6515
65.6516
65.6516
65.6516
65.6516
65.6516
65.6516
65.6516
65.6516
65.6516
65.6516
65.6517
65.6517
65.6517
65.6517
65.6517
65.6517
65.6518
65.6518
65.6518
65.6518
65.6518
65.6519
65.6519
65.6519
65.652
65.652
65.652
65.652
65.6521
65.6521
65.6521
65.6522
65.6522
65.6523
65.6523
65.6523
65.6524
65.6524
65.6525
65.6525
65.6526
65.6526
65.6527
65.6527
65.6528
65.6529
65.6529
65.653
65.653
65.6531
65.6532
65.6532
65.6533
65.6533
65.6534
65.6535
65.6535
65.6536
65.6537
65.6537
65.6538
65.6538
65.6539
65.6539
65.654
65.654
65.654
65.654
65.6539
65.6539
65.6538
65.6537
65.6535
65.6534
65.6532
65.653
65.6528
65.6525
65.6522
65.6519
65.6516
65.6513
65.651
65.6506
65.6503
65.6499
63.6895
63.6895
63.6895
63.6895
63.6895
63.6895
63.6895
63.6895
63.6895
63.6895
63.6895
63.6895
63.6895
63.6895
63.6895
63.6896
63.6896
63.6896
63.6896
63.6896
63.6896
63.6896
63.6896
63.6896
63.6897
63.6897
63.6897
63.6897
63.6897
63.6897
63.6898
63.6898
63.6898
63.6898
63.6898
63.6899
63.6899
63.6899
63.6899
63.69
63.69
63.69
63.6901
63.6901
63.6901
63.6902
63.6902
63.6903
63.6903
63.6903
63.6904
63.6904
63.6905
63.6905
63.6906
63.6906
63.6907
63.6907
63.6908
63.6909
63.6909
63.691
63.691
63.6911
63.6912
63.6912
63.6913
63.6914
63.6914
63.6915
63.6916
63.6916
63.6917
63.6918
63.6918
63.6919
63.6919
63.692
63.692
63.692
63.6921
63.692
63.692
63.692
63.6919
63.6918
63.6916
63.6915
63.6913
63.6911
63.6908
63.6906
63.6903
63.69
63.6897
63.6894
63.689
63.6886
63.6883
63.6879
61.7275
61.7275
61.7275
61.7275
61.7275
61.7275
61.7275
61.7275
61.7275
61.7275
61.7275
61.7275
61.7275
61.7275
61.7275
61.7276
61.7276
61.7276
61.7276
61.7276
61.7276
61.7276
61.7276
61.7276
61.7276
61.7277
61.7277
61.7277
61.7277
61.7277
61.7277
61.7278
61.7278
61.7278
61.7278
61.7279
61.7279
61.7279
61.7279
61.728
61.728
61.728
61.7281
61.7281
61.7281
61.7282
61.7282
61.7283
61.7283
61.7283
61.7284
61.7284
61.7285
61.7285
61.7286
61.7286
61.7287
61.7287
61.7288
61.7289
61.7289
61.729
61.729
61.7291
61.7292
61.7292
61.7293
61.7294
61.7294
61.7295
61.7296
61.7296
61.7297
61.7298
61.7299
61.7299
61.73
61.73
61.7301
61.7301
61.7301
61.7301
61.7301
61.7301
61.73
61.7299
61.7297
61.7296
61.7294
61.7292
61.7289
61.7287
61.7284
61.7281
61.7277
61.7274
61.7271
61.7267
61.7264
61.726
59.7655
59.7655
59.7655
59.7655
59.7655
59.7655
59.7655
59.7655
59.7655
59.7655
59.7655
59.7655
59.7655
59.7655
59.7655
59.7655
59.7656
59.7656
59.7656
59.7656
59.7656
59.7656
59.7656
59.7656
59.7656
59.7657
59.7657
59.7657
59.7657
59.7657
59.7657
59.7658
59.7658
59.7658
59.7658
59.7659
59.7659
59.7659
59.7659
59.766
59.766
59.766
59.7661
59.7661
59.7661
59.7662
59.7662
59.7662
59.7663
59.7663
59.7664
59.7664
59.7665
59.7665
59.7666
59.7666
59.7667
59.7667
59.7668
59.7669
59.7669
59.767
59.767
59.7671
59.7672
59.7672
59.7673
59.7674
59.7674
59.7675
59.7676
59.7677
59.7677
59.7678
59.7679
59.768
59.768
59.7681
59.7681
59.7682
59.7682
59.7682
59.7682
59.7682
59.7681
59.768
59.7678
59.7677
59.7675
59.7673
59.767
59.7667
59.7664
59.7661
59.7658
59.7655
59.7651
59.7647
59.7644
59.764
57.8035
57.8035
57.8035
57.8035
57.8035
57.8035
57.8035
57.8035
57.8035
57.8035
57.8035
57.8035
57.8035
57.8035
57.8035
57.8035
57.8036
57.8036
57.8036
57.8036
57.8036
57.8036
57.8036
57.8036
57.8036
57.8037
57.8037
57.8037
57.8037
57.8037
57.8037
57.8038
57.8038
57.8038
57.8038
57.8038
57.8039
57.8039
57.8039
57.804
57.804
57.804
57.8041
57.8041
57.8041
57.8042
57.8042
57.8042
57.8043
57.8043
57.8044
57.8044
57.8045
57.8045
57.8046
57.8046
57.8047
57.8047
57.8048
57.8048
57.8049
57.805
57.805
57.8051
57.8052
57.8052
57.8053
57.8054
57.8055
57.8055
57.8056
57.8057
57.8058
57.8058
57.8059
57.806
57.8061
57.8061
57.8062
57.8063
57.8063
57.8063
57.8063
57.8063
57.8062
57.8061
57.806
57.8058
57.8056
57.8054
57.8051
57.8048
57.8045
57.8042
57.8039
57.8035
57.8032
57.8028
57.8024
57.802
55.8415
55.8415
55.8415
55.8415
55.8415
55.8415
55.8415
55.8415
55.8415
55.8415
55.8415
55.8415
55.8415
55.8415
55.8415
55.8415
55.8415
55.8416
55.8416
55.8416
55.8416
55.8416
55.8416
55.8416
55.8416
55.8416
55.8417
55.8417
55.8417
55.8417
55.8417
55.8418
55.8418
55.8418
55.8418
55.8418
55.8419
55.8419
55.8419
55.842
55.842
55.842
55.842
55.8421
55.8421
55.8422
55.8422
55.8422
55.8423
55.8423
55.8424
55.8424
55.8425
55.8425
55.8426
55.8426
55.8427
55.8427
55.8428
55.8428
55.8429
55.843
55.843
55.8431
55.8432
55.8432
55.8433
55.8434
55.8435
55.8435
55.8436
55.8437
55.8438
55.8439
55.844
55.844
55.8441
55.8442
55.8443
55.8443
55.8444
55.8444
55.8444
55.8444
55.8443
55.8442
55.8441
55.8439
55.8437
55.8435
55.8432
55.8429
55.8426
55.8423
55.8419
55.8416
55.8412
55.8408
55.8404
55.84
53.8795
53.8795
53.8795
53.8795
53.8795
53.8795
53.8795
53.8795
53.8795
53.8795
53.8795
53.8795
53.8795
53.8795
53.8795
53.8795
53.8795
53.8795
53.8796
53.8796
53.8796
53.8796
53.8796
53.8796
53.8796
53.8796
53.8797
53.8797
53.8797
53.8797
53.8797
53.8797
53.8798
53.8798
53.8798
53.8798
53.8799
53.8799
53.8799
53.8799
53.88
53.88
53.88
53.8801
53.8801
53.8801
53.8802
53.8802
53.8803
53.8803
53.8804
53.8804
53.8805
53.8805
53.8806
53.8806
53.8807
53.8807
53.8808
53.8808
53.8809
53.881
53.881
53.8811
53.8812
53.8812
53.8813
53.8814
53.8815
53.8815
53.8816
53.8817
53.8818
53.8819
53.882
53.8821
53.8822
53.8823
53.8824
53.8824
53.8825
53.8825
53.8825
53.8825
53.8824
53.8823
53.8822
53.882
53.8818
53.8816
53.8813
53.881
53.8807
53.8804
53.88
53.8796
53.8793
53.8788
53.8785
53.878
51.9175
51.9175
51.9175
51.9175
51.9175
51.9175
51.9175
51.9175
51.9175
51.9175
51.9175
51.9175
51.9175
51.9175
51.9175
51.9175
51.9175
51.9175
51.9175
51.9176
51.9176
51.9176
51.9176
51.9176
51.9176
51.9176
51.9176
51.9177
51.9177
51.9177
51.9177
51.9177
51.9178
51.9178
51.9178
51.9178
51.9179
51.9179
51.9179
51.9179
51.918
51.918
51.918
51.9181
51.9181
51.9181
51.9182
51.9182
51.9183
51.9183
51.9184
51.9184
51.9185
51.9185
51.9186
51.9186
51.9187
51.9187
51.9188
51.9188
51.9189
51.919
51.919
51.9191
51.9192
51.9192
51.9193
51.9194
51.9195
51.9196
51.9196
51.9197
51.9198
51.9199
51.92
51.9201
51.9202
51.9203
51.9204
51.9205
51.9206
51.9206
51.9206
51.9206
51.9206
51.9205
51.9203
51.9202
51.92
51.9197
51.9194
51.9191
51.9188
51.9185
51.9181
51.9177
51.9173
51.9169
51.9165
51.9161
49.9555
49.9555
49.9555
49.9555
49.9555
49.9555
49.9555
49.9555
49.9555
49.9555
49.9555
49.9555
49.9555
49.9555
49.9555
49.9555
49.9555
49.9555
49.9555
49.9556
49.9556
49.9556
49.9556
49.9556
49.9556
49.9556
49.9556
49.9557
49.9557
49.9557
49.9557
49.9557
49.9558
49.9558
49.9558
49.9558
49.9558
49.9559
49.9559
49.9559
49.956
49.956
49.956
49.9561
49.9561
49.9561
49.9562
49.9562
49.9563
49.9563
49.9563
49.9564
49.9564
49.9565
49.9565
49.9566
49.9567
49.9567
49.9568
49.9568
49.9569
49.957
49.957
49.9571
49.9572
49.9573
49.9573
49.9574
49.9575
49.9576
49.9576
49.9577
49.9578
49.9579
49.958
49.9582
49.9583
49.9584
49.9585
49.9586
49.9587
49.9587
49.9588
49.9588
49.9587
49.9586
49.9585
49.9583
49.9581
49.9578
49.9576
49.9572
49.9569
49.9565
49.9562
49.9558
49.9554
49.9549
49.9545
49.9541
47.9935
47.9935
47.9935
47.9935
47.9935
47.9935
47.9935
47.9935
47.9935
47.9935
47.9935
47.9935
47.9935
47.9935
47.9935
47.9935
47.9935
47.9935
47.9935
47.9935
47.9936
47.9936
47.9936
47.9936
47.9936
47.9936
47.9936
47.9937
47.9937
47.9937
47.9937
47.9937
47.9937
47.9938
47.9938
47.9938
47.9938
47.9939
47.9939
47.9939
47.994
47.994
47.994
47.9941
47.9941
47.9941
47.9942
47.9942
47.9943
47.9943
47.9943
47.9944
47.9944
47.9945
47.9945
47.9946
47.9947
47.9947
47.9948
47.9948
47.9949
47.995
47.995
47.9951
47.9952
47.9953
47.9953
47.9954
47.9955
47.9956
47.9957
47.9958
47.9959
47.996
47.9961
47.9962
47.9963
47.9965
47.9966
47.9967
47.9968
47.9969
47.9969
47.9969
47.9969
47.9968
47.9966
47.9965
47.9962
47.996
47.9957
47.9954
47.995
47.9946
47.9943
47.9938
47.9934
47.993
47.9926
47.9921
46.0315
46.0315
46.0315
46.0315
46.0315
46.0315
46.0315
46.0315
46.0315
46.0315
46.0315
46.0315
46.0315
46.0315
46.0315
46.0315
46.0315
46.0315
46.0315
46.0315
46.0315
46.0316
46.0316
46.0316
46.0316
46.0316
46.0316
46.0316
46.0317
46.0317
46.0317
46.0317
46.0317
46.0318
46.0318
46.0318
46.0318
46.0319
46.0319
46.0319
46.0319
46.032
46.032
46.032
46.0321
46.0321
46.0322
46.0322
46.0322
46.0323
46.0323
46.0324
46.0324
46.0325
46.0325
46.0326
46.0327
46.0327
46.0328
46.0328
46.0329
46.033
46.033
46.0331
46.0332
46.0333
46.0333
46.0334
46.0335
46.0336
46.0337
46.0338
46.0339
46.034
46.0341
46.0342
46.0344
46.0345
46.0347
46.0348
46.0349
46.035
46.035
46.0351
46.035
46.0349
46.0348
46.0346
46.0344
46.0341
46.0338
46.0335
46.0331
46.0327
46.0323
46.0319
46.0315
46.031
46.0306
46.0301
44.0695
44.0695
44.0695
44.0695
44.0695
44.0695
44.0695
44.0695
44.0695
44.0695
44.0695
44.0695
44.0695
44.0695
44.0695
44.0695
44.0695
44.0695
44.0695
44.0695
44.0695
44.0695
44.0696
44.0696
44.0696
44.0696
44.0696
44.0696
44.0697
44.0697
44.0697
44.0697
44.0697
44.0698
44.0698
44.0698
44.0698
44.0698
44.0699
44.0699
44.0699
44.07
44.07
44.07
44.0701
44.0701
44.0702
44.0702
44.0702
44.0703
44.0703
44.0704
44.0704
44.0705
44.0705
44.0706
44.0706
44.0707
44.0708
44.0708
44.0709
44.071
44.071
44.0711
44.0712
44.0713
44.0713
44.0714
44.0715
44.0716
44.0717
44.0718
44.0719
44.072
44.0721
44.0723
44.0724
44.0726
44.0728
44.0729
44.073
44.0731
44.0732
44.0732
44.0732
44.0731
44.073
44.0728
44.0726
44.0723
44.072
44.0716
44.0712
44.0709
44.0704
44.07
44.0696
44.0691
44.0686
44.0682
42.1075
42.1075
42.1075
42.1075
42.1075
42.1075
42.1075
42.1075
42.1075
42.1075
42.1075
42.1075
42.1075
42.1075
42.1075
42.1075
42.1075
42.1075
42.1075
42.1075
42.1075
42.1075
42.1076
42.1076
42.1076
42.1076
42.1076
42.1076
42.1076
42.1077
42.1077
42.1077
42.1077
42.1077
42.1078
42.1078
42.1078
42.1078
42.1079
42.1079
42.1079
42.108
42.108
42.108
42.1081
42.1081
42.1081
42.1082
42.1082
42.1083
42.1083
42.1084
42.1084
42.1085
42.1085
42.1086
42.1086
42.1087
42.1088
42.1088
42.1089
42.109
42.109
42.1091
42.1092
42.1093
42.1093
42.1094
42.1095
42.1096
42.1097
42.1098
42.1099
42.11
42.1102
42.1103
42.1105
42.1107
42.1108
42.111
42.1112
42.1113
42.1114
42.1114
42.1114
42.1113
42.1112
42.111
42.1107
42.1105
42.1101
42.1098
42.1094
42.109
42.1085
42.1081
42.1076
42.1071
42.1067
42.1062
40.1454
40.1454
40.1455
40.1455
40.1455
40.1455
40.1455
40.1455
40.1455
40.1455
40.1455
40.1455
40.1455
40.1455
40.1455
40.1455
40.1455
40.1455
40.1455
40.1455
40.1455
40.1455
40.1455
40.1456
40.1456
40.1456
40.1456
40.1456
40.1456
40.1457
40.1457
40.1457
40.1457
40.1457
40.1458
40.1458
40.1458
40.1458
40.1459
40.1459
40.1459
40.146
40.146
40.146
40.1461
40.1461
40.1461
40.1462
40.1462
40.1463
40.1463
40.1464
40.1464
40.1465
40.1465
40.1466
40.1466
40.1467
40.1468
40.1468
40.1469
40.147
40.147
40.1471
40.1472
40.1473
40.1473
40.1474
40.1475
40.1476
40.1477
40.1478
40.1479
40.148
40.1482
40.1483
40.1485
40.1487
40.1489
40.1491
40.1493
40.1495
40.1496
40.1496
40.1496
40.1495
40.1494
40.1492
40.1489
40.1486
40.1483
40.1479
40.1475
40.1471
40.1466
40.1462
40.1457
40.1452
40.1447
40.1442
38.1834
38.1834
38.1834
38.1834
38.1834
38.1835
38.1835
38.1835
38.1835
38.1835
38.1835
38.1835
38.1835
38.1835
38.1835
38.1835
38.1835
38.1835
38.1835
38.1835
38.1835
38.1835
38.1835
38.1835
38.1836
38.1836
38.1836
38.1836
38.1836
38.1836
38.1837
38.1837
38.1837
38.1837
38.1837
38.1838
38.1838
38.1838
38.1839
38.1839
38.1839
38.1839
38.184
38.184
38.184
38.1841
38.1841
38.1842
38.1842
38.1843
38.1843
38.1843
38.1844
38.1845
38.1845
38.1846
38.1846
38.1847
38.1847
38.1848
38.1849
38.1849
38.185
38.1851
38.1852
38.1853
38.1853
38.1854
38.1855
38.1856
38.1857
38.1858
38.1859
38.186
38.1862
38.1864
38.1866
38.1868
38.187
38.1873
38.1875
38.1876
38.1878
38.1878
38.1878
38.1877
38.1876
38.1874
38.1871
38.1868
38.1865
38.1861
38.1856
38.1852
38.1847
38.1843
38.1838
38.1832
38.1828
38.1822
36.2214
36.2214
36.2214
36.2214
36.2214
36.2214
36.2214
36.2214
36.2215
36.2215
36.2215
36.2215
36.2215
36.2215
36.2215
36.2215
36.2215
36.2215
36.2215
36.2215
36.2215
36.2215
36.2215
36.2215
36.2216
36.2216
36.2216
36.2216
36.2216
36.2216
36.2217
36.2217
36.2217
36.2217
36.2217
36.2218
36.2218
36.2218
36.2218
36.2219
36.2219
36.2219
36.222
36.222
36.222
36.2221
36.2221
36.2222
36.2222
36.2222
36.2223
36.2223
36.2224
36.2224
36.2225
36.2226
36.2226
36.2227
36.2227
36.2228
36.2229
36.2229
36.223
36.2231
36.2232
36.2232
36.2233
36.2234
36.2235
36.2236
36.2237
36.2238
36.2239
36.224
36.2242
36.2244
36.2246
36.2249
36.2251
36.2254
36.2256
36.2258
36.226
36.226
36.226
36.226
36.2258
36.2256
36.2253
36.225
36.2246
36.2242
36.2238
36.2233
36.2228
36.2223
36.2218
36.2213
36.2208
36.2203
34.2594
34.2594
34.2594
34.2594
34.2594
34.2594
34.2594
34.2594
34.2594
34.2594
34.2595
34.2595
34.2595
34.2595
34.2595
34.2595
34.2595
34.2595
34.2595
34.2595
34.2595
34.2595
34.2595
34.2595
34.2595
34.2596
34.2596
34.2596
34.2596
34.2596
34.2596
34.2597
34.2597
34.2597
34.2597
34.2598
34.2598
34.2598
34.2598
34.2599
34.2599
34.2599
34.26
34.26
34.26
34.2601
34.2601
34.2601
34.2602
34.2602
34.2603
34.2603
34.2604
34.2604
34.2605
34.2605
34.2606
34.2607
34.2607
34.2608
34.2609
34.2609
34.261
34.2611
34.2612
34.2612
34.2613
34.2614
34.2615
34.2616
34.2617
34.2618
34.2619
34.262
34.2622
34.2624
34.2626
34.2629
34.2632
34.2635
34.2638
34.264
34.2642
34.2643
34.2643
34.2642
34.2641
34.2639
34.2636
34.2632
34.2628
34.2624
34.2619
34.2615
34.261
34.2604
34.2599
34.2594
34.2589
34.2583
32.2974
32.2974
32.2974
32.2974
32.2974
32.2974
32.2974
32.2974
32.2974
32.2974
32.2974
32.2974
32.2975
32.2975
32.2975
32.2975
32.2975
32.2975
32.2975
32.2975
32.2975
32.2975
32.2975
32.2975
32.2975
32.2976
32.2976
32.2976
32.2976
32.2976
32.2976
32.2977
32.2977
32.2977
32.2977
32.2977
32.2978
32.2978
32.2978
32.2978
32.2979
32.2979
32.2979
32.298
32.298
32.2981
32.2981
32.2981
32.2982
32.2982
32.2983
32.2983
32.2984
32.2984
32.2985
32.2985
32.2986
32.2987
32.2987
32.2988
32.2989
32.2989
32.299
32.2991
32.2992
32.2992
32.2993
32.2994
32.2995
32.2996
32.2997
32.2998
32.2999
32.3
32.3002
32.3004
32.3007
32.301
32.3013
32.3017
32.302
32.3022
32.3024
32.3026
32.3026
32.3025
32.3024
32.3021
32.3018
32.3014
32.301
32.3006
32.3001
32.2996
32.2991
32.2985
32.298
32.2974
32.2969
32.2963
30.3354
30.3354
30.3354
30.3354
30.3354
30.3354
30.3354
30.3354
30.3354
30.3354
30.3354
30.3354
30.3354
30.3354
30.3354
30.3354
30.3355
30.3355
30.3355
30.3355
30.3355
30.3355
30.3355
30.3355
30.3355
30.3355
30.3356
30.3356
30.3356
30.3356
30.3356
30.3356
30.3357
30.3357
30.3357
30.3357
30.3358
30.3358
30.3358
30.3358
30.3359
30.3359
30.3359
30.336
30.336
30.336
30.3361
30.3361
30.3362
30.3362
30.3363
30.3363
30.3364
30.3364
30.3365
30.3365
30.3366
30.3366
30.3367
30.3368
30.3368
30.3369
30.337
30.3371
30.3372
30.3372
30.3373
30.3374
30.3375
30.3376
30.3377
30.3377
30.3378
30.338
30.3381
30.3384
30.3387
30.339
30.3394
30.3398
30.3402
30.3405
30.3407
30.3408
30.3409
30.3408
30.3406
30.3404
30.3401
30.3397
30.3392
30.3388
30.3383
30.3377
30.3372
30.3366
30.3361
30.3355
30.335
30.3344
28.3734
28.3734
28.3734
28.3734
28.3734
28.3734
28.3734
28.3734
28.3734
28.3734
28.3734
28.3734
28.3734
28.3734
28.3734
28.3734
28.3734
28.3734
28.3734
28.3734
28.3735
28.3735
28.3735
28.3735
28.3735
28.3735
28.3736
28.3736
28.3736
28.3736
28.3736
28.3736
28.3737
28.3737
28.3737
28.3737
28.3737
28.3738
28.3738
28.3738
28.3739
28.3739
28.3739
28.374
28.374
28.374
28.3741
28.3741
28.3741
28.3742
28.3742
28.3743
28.3743
28.3744
28.3744
28.3745
28.3746
28.3746
28.3747
28.3748
28.3748
28.3749
28.375
28.3751
28.3751
28.3752
28.3753
28.3754
28.3755
28.3756
28.3757
28.3757
28.3758
28.3759
28.3761
28.3764
28.3767
28.3771
28.3775
28.378
28.3784
28.3787
28.379
28.3792
28.3792
28.3791
28.379
28.3787
28.3783
28.3779
28.3775
28.377
28.3764
28.3759
28.3753
28.3747
28.3742
28.3736
28.373
28.3724
26.4114
26.4114
26.4114
26.4114
26.4114
26.4114
26.4114
26.4114
26.4114
26.4114
26.4114
26.4114
26.4114
26.4114
26.4114
26.4114
26.4114
26.4114
26.4114
26.4114
26.4114
26.4115
26.4115
26.4115
26.4115
26.4115
26.4115
26.4116
26.4116
26.4116
26.4116
26.4116
26.4116
26.4117
26.4117
26.4117
26.4117
26.4118
26.4118
26.4118
26.4118
26.4119
26.4119
26.4119
26.412
26.412
26.412
26.4121
26.4121
26.4122
26.4122
26.4123
26.4123
26.4124
26.4124
26.4125
26.4126
26.4126
26.4127
26.4127
26.4128
26.4129
26.413
26.4131
26.4131
26.4132
26.4133
26.4134
26.4135
26.4136
26.4137
26.4137
26.4138
26.4139
26.4141
26.4143
26.4147
26.4151
26.4156
26.4161
26.4166
26.417
26.4173