/*--------------------------------*- C++ -*----------------------------------*\
| =========                 |                                                 |
| \\      /  F ield         | OpenFOAM: The Open Source CFD Toolbox           |
|  \\    /   O peration     | Version:  2.4.0                                 |
|   \\  /    A nd           | Web:      www.OpenFOAM.org                      |
|    \\/     M anipulation  |                                                 |
\*---------------------------------------------------------------------------*/
FoamFile
{
    version     2.0;
    format      ascii;
    class       volVectorField;
    location    "0.1";
    object      U;
}
// * * * * * * * * * * * * * * * * * * * * * * * * * * * * * * * * * * * * * //

dimensions      [0 1 -1 0 0 0 0];

internalField   nonuniform List<vector> 
57600
(
(-0.00405058 0.000256317 0)
(-0.00763322 5.55563e-05 0)
(-0.0105521 6.97161e-06 0)
(-0.00986166 -7.78892e-05 0)
(-0.00417631 -0.000173962 0)
(0.00458905 -0.000209844 0)
(0.013537 -0.00020926 0)
(0.0214354 -0.000182114 0)
(0.0272606 -0.000105946 0)
(0.0300984 -4.41507e-06 0)
(0.0307607 6.34664e-05 0)
(0.030421 0.000114434 0)
(0.0290608 0.000189546 0)
(0.0259348 0.000305615 0)
(0.0207369 0.000422 0)
(0.0140182 0.000488291 0)
(0.00682024 0.000485909 0)
(0.000233714 0.000420392 0)
(-0.00501494 0.00031453 0)
(-0.00865939 0.000189407 0)
(-0.0107765 6.28132e-05 0)
(-0.0116235 -5.39833e-05 0)
(-0.0115119 -0.000157655 0)
(-0.0107284 -0.000244559 0)
(-0.00950097 -0.000317358 0)
(-0.00800159 -0.000378198 0)
(-0.00636048 -0.000426902 0)
(-0.00468606 -0.000461256 0)
(-0.0030679 -0.000479458 0)
(-0.00156837 -0.000484121 0)
(-0.00555771 0.00111634 0)
(-0.0164282 0.000549406 0)
(-0.0228642 0.000201604 0)
(-0.0237909 -0.000457159 0)
(-0.0168354 -0.00118284 0)
(-0.00475527 -0.00153378 0)
(0.00882004 -0.00164921 0)
(0.0222189 -0.00157513 0)
(0.0338502 -0.00119984 0)
(0.0425649 -0.000775259 0)
(0.0494374 -0.000590472 0)
(0.055385 -0.000409127 0)
(0.0598395 8.8212e-05 0)
(0.0615759 0.000956714 0)
(0.0600162 0.00195515 0)
(0.0554143 0.00283283 0)
(0.0485635 0.00335072 0)
(0.0407088 0.00340491 0)
(0.0330006 0.00307668 0)
(0.0261277 0.00251591 0)
(0.0203601 0.00186197 0)
(0.0156991 0.00121521 0)
(0.0120088 0.000632387 0)
(0.00910153 0.000131665 0)
(0.00679238 -0.000285763 0)
(0.00492668 -0.000622904 0)
(0.00338321 -0.000876649 0)
(0.00207022 -0.00103869 0)
(0.000919549 -0.00111028 0)
(-0.00011454 -0.00111481 0)
(-0.00576893 0.00208485 0)
(-0.0175537 0.00120778 0)
(-0.0248513 0.000581189 0)
(-0.0267019 -0.000676075 0)
(-0.0203542 -0.00215033 0)
(-0.00849604 -0.00294771 0)
(0.00524794 -0.00331373 0)
(0.0192504 -0.00333831 0)
(0.0317748 -0.00278669 0)
(0.0414207 -0.00210932 0)
(0.0492075 -0.00186054 0)
(0.056082 -0.00162485 0)
(0.0616003 -0.00082117 0)
(0.0646179 0.000683514 0)
(0.0646597 0.00246752 0)
(0.0620717 0.00416242 0)
(0.0574583 0.00538488 0)
(0.0517602 0.00587849 0)
(0.0458744 0.00573392 0)
(0.0402917 0.00519755 0)
(0.0351549 0.0044929 0)
(0.0304417 0.00377331 0)
(0.0260812 0.00312796 0)
(0.0219928 0.00259879 0)
(0.0180981 0.00219727 0)
(0.0143397 0.00191465 0)
(0.0106946 0.00173683 0)
(0.00718924 0.00164858 0)
(0.003883 0.00162792 0)
(0.000836224 0.0016455 0)
(-0.00583609 0.00307056 0)
(-0.0177203 0.0018885 0)
(-0.0251579 0.000996457 0)
(-0.0272301 -0.000861587 0)
(-0.0209498 -0.00310332 0)
(-0.00907329 -0.00435754 0)
(0.0047018 -0.00499465 0)
(0.018823 -0.00514422 0)
(0.0315173 -0.00442067 0)
(0.0411799 -0.00348082 0)
(0.0489713 -0.0031774 0)
(0.0559547 -0.0029091 0)
(0.0616913 -0.00182843 0)
(0.0648808 0.000304033 0)
(0.0649626 0.00283443 0)
(0.0623182 0.00529389 0)
(0.0575101 0.00717702 0)
(0.0515781 0.00806685 0)
(0.0455372 0.00808176 0)
(0.0399086 0.00758944 0)
(0.0348158 0.00690793 0)
(0.0302007 0.00623799 0)
(0.0259576 0.00568724 0)
(0.021982 0.00530677 0)
(0.0181817 0.00511456 0)
(0.0144857 0.00509445 0)
(0.0108573 0.00519792 0)
(0.00731993 0.00535206 0)
(0.00394853 0.005481 0)
(0.000827834 0.00554623 0)
(-0.00590515 0.0040651 0)
(-0.0177947 0.00257128 0)
(-0.025287 0.00142431 0)
(-0.0275112 -0.001038 0)
(-0.0212037 -0.00406301 0)
(-0.00923199 -0.00577186 0)
(0.00459193 -0.00668341 0)
(0.0188199 -0.00697141 0)
(0.0316745 -0.00606625 0)
(0.041271 -0.00483862 0)
(0.0489854 -0.00449627 0)
(0.056066 -0.00422746 0)
(0.0621014 -0.00290362 0)
(0.0655573 -0.000103897 0)
(0.0657316 0.00320155 0)
(0.063061 0.00648244 0)
(0.0579453 0.0091075 0)
(0.0515249 0.0104264 0)
(0.0449903 0.0105969 0)
(0.0389144 0.0101322 0)
(0.0334115 0.0094505 0)
(0.0284297 0.00879712 0)
(0.0238972 0.0082914 0)
(0.0197483 0.00799394 0)
(0.0159255 0.00792836 0)
(0.0123789 0.00807951 0)
(0.0090666 0.00837898 0)
(0.00597426 0.00870804 0)
(0.00311526 0.00894469 0)
(0.000509827 0.0090393 0)
(-0.00599257 0.00506984 0)
(-0.0178742 0.00325332 0)
(-0.0254203 0.00186428 0)
(-0.0278273 -0.00120693 0)
(-0.0214743 -0.00503488 0)
(-0.00937746 -0.0071929 0)
(0.00449841 -0.00838037 0)
(0.0188482 -0.00882269 0)
(0.0319098 -0.00772347 0)
(0.0414039 -0.00617187 0)
(0.0490049 -0.00581268 0)
(0.0561976 -0.00558434 0)
(0.0626313 -0.00408137 0)
(0.0664469 -0.0005545 0)
(0.0667481 0.00354706 0)
(0.0641342 0.00770683 0)
(0.0587199 0.0111821 0)
(0.0518001 0.0129657 0)
(0.0448445 0.0132777 0)
(0.0384802 0.0128289 0)
(0.0327553 0.0121558 0)
(0.0275601 0.0115269 0)
(0.0228079 0.0110567 0)
(0.0184623 0.010795 0)
(0.0145139 0.010761 0)
(0.0109602 0.0109414 0)
(0.00778696 0.0112678 0)
(0.00496886 0.0116149 0)
(0.00246814 0.011855 0)
(0.000241441 0.011938 0)
(-0.00610106 0.00608725 0)
(-0.0179687 0.00393374 0)
(-0.0255768 0.00231915 0)
(-0.0282137 -0.00136653 0)
(-0.0218043 -0.00602248 0)
(-0.00955304 -0.00862169 0)
(0.00437928 -0.0100864 0)
(0.0188724 -0.0107042 0)
(0.0322079 -0.00939673 0)
(0.0415601 -0.0074717 0)
(0.0490096 -0.00712468 0)
(0.0563235 -0.00697801 0)
(0.0632781 -0.00540539 0)
(0.0675504 -0.0010501 0)
(0.0679792 0.0038582 0)
(0.0655169 0.00895469 0)
(0.0597446 0.0134281 0)
(0.0521961 0.0157011 0)
(0.04477 0.0160969 0)
(0.0381763 0.0156077 0)
(0.0323692 0.0149198 0)
(0.0271389 0.014322 0)
(0.0223489 0.0139011 0)
(0.0179532 0.013675 0)
(0.0139579 0.013642 0)
(0.0103868 0.0137821 0)
(0.00724845 0.0140355 0)
(0.0045224 0.0142995 0)
(0.00215393 0.0144717 0)
(7.36649e-05 0.0145129 0)
(-0.00623243 0.00712008 0)
(-0.0180785 0.00461165 0)
(-0.0257566 0.00279224 0)
(-0.028676 -0.0015144 0)
(-0.022198 -0.00702957 0)
(-0.00976053 -0.0100591 0)
(0.00423137 -0.0118032 0)
(0.0188869 -0.0126232 0)
(0.0325805 -0.0110922 0)
(0.0417379 -0.00872715 0)
(0.0489901 -0.00843128 0)
(0.0564203 -0.00839742 0)
(0.0640641 -0.00693316 0)
(0.0688948 -0.00158003 0)
(0.0694068 0.00412395 0)
(0.0672656 0.0102084 0)
(0.0610476 0.0158995 0)
(0.0526719 0.0186823 0)
(0.0446747 0.0190638 0)
(0.0378569 0.0184394 0)
(0.0320281 0.0176858 0)
(0.0268471 0.0171058 0)
(0.022115 0.0167382 0)
(0.0177648 0.0165556 0)
(0.0137982 0.0165267 0)
(0.0102415 0.0166175 0)
(0.00710894 0.0167765 0)
(0.00438596 0.0169307 0)
(0.00202288 0.0170127 0)
(-4.74248e-05 0.0169993 0)
(-0.00638884 0.0081713 0)
(-0.0182034 0.00528587 0)
(-0.0259578 0.0032871 0)
(-0.0292178 -0.00164791 0)
(-0.022657 -0.00806046 0)
(-0.00999821 -0.0115057 0)
(0.00405339 -0.0135317 0)
(0.0188854 -0.0145873 0)
(0.0330441 -0.0128185 0)
(0.0419338 -0.00992414 0)
(0.0489374 -0.00973484 0)
(0.0564517 -0.00982846 0)
(0.0650443 -0.00873643 0)
(0.0705222 -0.00210655 0)
(0.0709772 0.00434065 0)
(0.0694741 0.011435 0)
(0.0626784 0.0186758 0)
(0.0531962 0.0219791 0)
(0.0444992 0.0221972 0)
(0.0374673 0.0213051 0)
(0.0316753 0.0204225 0)
(0.0265968 0.0198426 0)
(0.0219618 0.0195292 0)
(0.0176878 0.0193983 0)
(0.0137733 0.0193859 0)
(0.0102405 0.0194444 0)
(0.00710052 0.0195274 0)
(0.00434419 0.0195861 0)
(0.00193473 0.0195823 0)
(-0.000179064 0.0195089 0)
(-0.006573 0.00924418 0)
(-0.0183429 0.00595495 0)
(-0.0261777 0.00380754 0)
(-0.0298431 -0.00176412 0)
(-0.0231828 -0.00912013 0)
(-0.0102637 -0.0129616 0)
(0.00384404 -0.0152727 0)
(0.0188589 -0.0166047 0)
(0.0336211 -0.014588 0)
(0.0421414 -0.0110439 0)
(0.0488473 -0.0110454 0)
(0.0563627 -0.0112756 0)
(0.0663314 -0.0108968 0)
(0.072491 -0.00253685 0)
(0.0725538 0.00452758 0)
(0.0723011 0.0125805 0)
(0.0647022 0.0218759 0)
(0.0537178 0.0256843 0)
(0.0441658 0.0255148 0)
(0.036957 0.0241765 0)
(0.0312891 0.0230963 0)
(0.0263717 0.0225097 0)
(0.0218574 0.0222618 0)
(0.0176629 0.0221962 0)
(0.0137939 0.0222183 0)
(0.0102723 0.02227 0)
(0.0071073 0.0223085 0)
(0.00429463 0.0222987 0)
(0.00181473 0.0222209 0)
(-0.000362849 0.0220789 0)
(-0.00678811 0.0103422 0)
(-0.0184964 0.00661699 0)
(-0.0264131 0.00435764 0)
(-0.0305567 -0.00185978 0)
(-0.0237774 -0.0102143 0)
(-0.0105539 -0.0144265 0)
(0.00360252 -0.0170264 0)
(0.0187946 -0.0186832 0)
(0.0343421 -0.0164188 0)
(0.0423485 -0.0120607 0)
(0.0487322 -0.0123856 0)
(0.0560689 -0.0128 0)
(0.0679479 -0.0134783 0)
(0.0748547 -0.00271077 0)
(0.0737993 0.00475848 0)
(0.0760343 0.0135748 0)
(0.0672 0.0256813 0)
(0.0541535 0.0299194 0)
(0.0435624 0.029028 0)
(0.0362659 0.0270031 0)
(0.0308598 0.025659 0)
(0.0261802 0.0250842 0)
(0.0218077 0.0249318 0)
(0.0176859 0.024956 0)
(0.0138457 0.0250356 0)
(0.0103158 0.0251102 0)
(0.00710403 0.0251402 0)
(0.00420934 0.0250947 0)
(0.00162828 0.0249564 0)
(-0.00064165 0.0247311 0)
(-0.00703801 0.0114694 0)
(-0.0186635 0.00726964 0)
(-0.0266602 0.00494181 0)
(-0.0313643 -0.00193123 0)
(-0.0244431 -0.0113495 0)
(-0.0108651 -0.0158989 0)
(0.00332808 -0.0187931 0)
(0.0186749 -0.0208291 0)
(0.0352487 -0.0183378 0)
(0.0425324 -0.0129383 0)
(0.0486474 -0.0137919 0)
(0.0554271 -0.0146059 0)
(0.0688478 -0.016413 0)
(0.0778149 -0.002623 0)
(0.0740423 0.00512642 0)
(0.0811819 0.0143786 0)
(0.070264 0.0303699 0)
(0.0543695 0.0348399 0)
(0.0425312 0.0327349 0)
(0.035323 0.0296981 0)
(0.0303929 0.0280432 0)
(0.0260484 0.0275393 0)
(0.0218327 0.0275395 0)
(0.0177713 0.0276882 0)
(0.0139415 0.0278525 0)
(0.0103862 0.0279812 0)
(0.00710951 0.0280448 0)
(0.00410209 0.0280099 0)
(0.0013673 0.0278361 0)
(-0.00104986 0.0275017 0)
(-0.00732729 0.0126301 0)
(-0.0188435 0.00791003 0)
(-0.0269145 0.00556487 0)
(-0.0322728 -0.00197431 0)
(-0.0251829 -0.0125337 0)
(-0.0111923 -0.0173763 0)
(0.00302069 -0.0205727 0)
(0.0184754 -0.0230464 0)
(0.0363982 -0.020386 0)
(0.0426548 -0.0136259 0)
(0.0487566 -0.0153113 0)
(0.054459 -0.0171262 0)
(0.0675824 -0.0194596 0)
(0.0818481 -0.00317647 0)
(0.0724748 0.00550477 0)
(0.0884312 0.0150892 0)
(0.0739763 0.0363617 0)
(0.0541637 0.0406373 0)
(0.0408429 0.0366108 0)
(0.0340485 0.0321159 0)
(0.0299231 0.0301558 0)
(0.0260248 0.0298525 0)
(0.0219679 0.030092 0)
(0.0179399 0.0304079 0)
(0.0140995 0.0306812 0)
(0.0105106 0.0308922 0)
(0.00716885 0.0310354 0)
(0.00403644 0.0310941 0)
(0.0010351 0.0310101 0)
(-0.00188202 0.0306405 0)
(-0.00766142 0.0138294 0)
(-0.0190359 0.00853457 0)
(-0.0271703 0.00623203 0)
(-0.0332901 -0.00198436 0)
(-0.0260002 -0.013776 0)
(-0.0115294 -0.0188544 0)
(0.00268119 -0.0223652 0)
(0.018163 -0.025333 0)
(0.0378699 -0.0226271 0)
(0.0426564 -0.0140535 0)
(0.0495004 -0.0170088 0)
(0.0541158 -0.0206891 0)
(0.0684453 -0.0234681 0)
(0.0866948 -0.00657235 0)
(0.0679485 0.00561102 0)
(0.0998977 0.0162143 0)
(0.0783343 0.0442885 0)
(0.0532657 0.0475241 0)
(0.0381627 0.0405977 0)
(0.0323631 0.03401 0)
(0.0295406 0.0318744 0)
(0.0261935 0.0320117 0)
(0.0222516 0.032612 0)
(0.0182083 0.0331359 0)
(0.0143352 0.0335313 0)
(0.0107125 0.0338389 0)
(0.00733389 0.0340892 0)
(0.00416507 0.0343161 0)
(0.00110097 0.0346259 0)
(-0.00216725 0.0348369 0)
(-0.0080469 0.0150731 0)
(-0.0192399 0.00913892 0)
(-0.0274212 0.006949 0)
(-0.0344257 -0.00195602 0)
(-0.0268997 -0.0150871 0)
(-0.0118688 -0.0203263 0)
(0.00231148 -0.0241717 0)
(0.0176928 -0.0276767 0)
(0.0397753 -0.0251646 0)
(0.0424533 -0.0141276 0)
(0.0520253 -0.0190126 0)
(0.0560384 -0.0257994 0)
(0.0798464 -0.0330998 0)
(0.097868 -0.012904 0)
(0.0654631 0.00650192 0)
(0.120739 0.020156 0)
(0.0829998 0.0551991 0)
(0.0515413 0.0556963 0)
(0.0339676 0.0446169 0)
(0.0302151 0.0349607 0)
(0.0294397 0.0330559 0)
(0.0266787 0.0340435 0)
(0.0227277 0.0351517 0)
(0.0185838 0.0359035 0)
(0.0146472 0.0364105 0)
(0.0109979 0.036808 0)
(0.00760683 0.0371551 0)
(0.00447761 0.0374502 0)
(0.00183098 0.0376537 0)
(0.000642864 0.0371948 0)
(-0.00849148 0.0163678 0)
(-0.0194551 0.00971778 0)
(-0.0276592 0.00772204 0)
(-0.0356906 -0.00188316 0)
(-0.027887 -0.0164799 0)
(-0.0122005 -0.0217821 0)
(0.00191495 -0.0259948 0)
(0.0170048 -0.0300472 0)
(0.0422759 -0.0281737 0)
(0.0419406 -0.0137298 0)
(0.0590646 -0.0217588 0)
(0.0647513 -0.0357996 0)
(0.0892847 -0.0499376 0)
(0.108971 -0.0172799 0)
(0.140347 0.00278286 0)
(0.143818 0.0275084 0)
(0.0864936 0.0701157 0)
(0.0488331 0.0655499 0)
(0.0268528 0.0485243 0)
(0.0276323 0.0342122 0)
(0.0299916 0.0335727 0)
(0.027646 0.0360561 0)
(0.0234235 0.0378067 0)
(0.0190481 0.0387558 0)
(0.0150163 0.0393218 0)
(0.0113604 0.039782 0)
(0.00797007 0.0402394 0)
(0.00471736 0.0406228 0)
(0.00153898 0.0404956 0)
(-0.00153654 0.038565 0)
(-0.00900427 0.017721 0)
(-0.0196807 0.0102646 0)
(-0.0278749 0.00855791 0)
(-0.0370979 -0.00175888 0)
(-0.0289697 -0.0179691 0)
(-0.0125117 -0.0232067 0)
(0.00149576 -0.0278463 0)
(0.0160214 -0.0323844 0)
(0.0456153 -0.0319649 0)
(0.040991 -0.0127632 0)
(0.0711269 -0.0266174 0)
(0.0343075 -0.0481221 0)
(0.0552773 -0.0688279 0)
(0.101826 -0.0155796 0)
(0.200746 -0.0156741 0)
(0.15618 0.0442227 0)
(0.0868963 0.0877958 0)
(0.0418673 0.0785873 0)
(0.0148784 0.051182 0)
(0.0253431 0.0304182 0)
(0.031874 0.0334489 0)
(0.0292701 0.0383061 0)
(0.0243154 0.0407283 0)
(0.0195392 0.0417463 0)
(0.0153916 0.0422554 0)
(0.0117913 0.0427132 0)
(0.0085168 0.0433176 0)
(0.00526929 0.0441106 0)
(0.00163789 0.0446791 0)
(-0.001973 0.0435613 0)
(-0.00959599 0.0191417 0)
(-0.0199166 0.0107715 0)
(-0.0280571 0.00946399 0)
(-0.0386631 -0.00157527 0)
(-0.0301576 -0.0195723 0)
(-0.0127862 -0.0245787 0)
(0.00105883 -0.0297358 0)
(0.0146446 -0.0345871 0)
(0.050168 -0.0371027 0)
(0.0394192 -0.0111689 0)
(0.0591838 -0.0321803 0)
(-0.0106226 -0.0589861 0)
(0.0125601 -0.0685375 0)
(0.0682435 -0.026078 0)
(0.189143 -0.0241454 0)
(0.132637 0.0598592 0)
(0.0847392 0.104278 0)
(0.0333733 0.0962539 0)
(0.00622505 0.0501436 0)
(0.0277774 0.0228288 0)
(0.0362426 0.0332812 0)
(0.0316409 0.0412848 0)
(0.0252853 0.0441179 0)
(0.0199322 0.0449244 0)
(0.0156742 0.0451798 0)
(0.0122308 0.0454924 0)
(0.00930581 0.0461503 0)
(0.0066089 0.0473598 0)
(0.00378666 0.0489807 0)
(0.000624091 0.0473057 0)
(-0.0102793 0.0206402 0)
(-0.0201625 0.0112285 0)
(-0.0281926 0.0104482 0)
(-0.0404044 -0.00132332 0)
(-0.0314639 -0.0213097 0)
(-0.0130024 -0.0258665 0)
(0.00060966 -0.0316859 0)
(0.0127618 -0.0365051 0)
(0.0553368 -0.0445533 0)
(0.0368596 -0.00882312 0)
(6.09524e-05 -0.037104 0)
(0.00791025 -0.0539532 0)
(-0.00436652 -0.0500491 0)
(0.0487276 -0.0663106 0)
(0.1377 -0.0338892 0)
(0.0691833 0.0536859 0)
(0.0817316 0.115199 0)
(0.038023 0.116422 0)
(0.020921 0.0436844 0)
(0.0437954 0.0147726 0)
(0.0442998 0.0350524 0)
(0.0345194 0.0457474 0)
(0.0260435 0.0481732 0)
(0.0200288 0.0483101 0)
(0.015712 0.0480419 0)
(0.0125312 0.047991 0)
(0.0101366 0.0484329 0)
(0.00833705 0.0495563 0)
(0.00707807 0.0512803 0)
(0.00582573 0.0502721 0)
(-0.011069 0.0222285 0)
(-0.0204185 0.0116237 0)
(-0.0282655 0.0115189 0)
(-0.0423433 -0.000993146 0)
(-0.0329061 -0.0232045 0)
(-0.0131316 -0.0270241 0)
(0.000152766 -0.0337359 0)
(0.0102575 -0.037928 0)
(0.045964 -0.0546565 0)
(0.0323515 -0.00638495 0)
(-0.00083424 -0.0457516 0)
(0.17231 -0.0609278 0)
(0.167679 -0.0371472 0)
(0.0185614 -0.0626318 0)
(-1.05532 0.188602 0)
(0.0405085 0.020966 0)
(0.0728176 0.119357 0)
(0.063738 0.129842 0)
(0.0793049 0.0325434 0)
(0.0818128 0.0171754 0)
(0.0553123 0.0422898 0)
(0.0369506 0.0524629 0)
(0.0261123 0.0529616 0)
(0.0195781 0.0518535 0)
(0.0153219 0.0507736 0)
(0.0124828 0.050125 0)
(0.0106508 0.0500585 0)
(0.00964901 0.0506256 0)
(0.0094525 0.051696 0)
(0.00969129 0.0514323 0)
(-0.0119823 0.0239207 0)
(-0.0206853 0.0119419 0)
(-0.0282572 0.0126849 0)
(-0.0445056 -0.000573596 0)
(-0.0345079 -0.0252824 0)
(-0.0131348 -0.0279842 0)
(-0.000307735 -0.0359459 0)
(0.00702367 -0.0385375 0)
(-0.00143799 -0.0619066 0)
(0.0239433 -0.00614896 0)
(-0.108413 -0.0277448 0)
(0.717823 -0.236156 0)
(1.17857 0.0474677 0)
(0.396374 0.0750299 0)
(0.0846855 0.402434 0)
(-0.46926 -0.19179 0)
(0.0844085 0.101961 0)
(0.102017 0.127479 0)
(0.147376 0.0141689 0)
(0.126627 0.040675 0)
(0.0644966 0.0584378 0)
(0.0371198 0.0614915 0)
(0.024924 0.0582388 0)
(0.0183417 0.0554056 0)
(0.0143348 0.0532928 0)
(0.0119002 0.0518682 0)
(0.0105818 0.0511033 0)
(0.0101581 0.0509189 0)
(0.0105157 0.0511389 0)
(0.0113794 0.0508425 0)
(-0.013039 0.0257337 0)
(-0.0209641 0.0121643 0)
(-0.0281449 0.0139552 0)
(-0.0469221 -5.2677e-05 0)
(-0.0363015 -0.027572 0)
(-0.0129565 -0.028648 0)
(-0.0007762 -0.0384181 0)
(0.00306153 -0.037719 0)
(-0.0324717 -0.06505 0)
(0.0117112 -0.0120885 0)
(0.0665672 -0.0689037 0)
(0.741932 -0.206961 0)
(0.773224 0.0571951 0)
(0.762776 0.318471 0)
(0.0965704 0.425119 0)
(-0.420216 -0.368168 0)
(-0.0053635 0.0974009 0)
(0.114934 0.109914 0)
(0.175794 0.000796974 0)
(0.135242 0.0777798 0)
(0.0636317 0.081891 0)
(0.0334541 0.0714958 0)
(0.0221562 0.0633777 0)
(0.0161955 0.0587351 0)
(0.0126511 0.0555111 0)
(0.0106722 0.0532189 0)
(0.00981598 0.0516788 0)
(0.0098205 0.0507214 0)
(0.010513 0.0501675 0)
(0.0116521 0.0495603 0)
(-0.014262 0.0276876 0)
(-0.021257 0.0122667 0)
(-0.0279016 0.0153386 0)
(-0.0496293 0.000581913 0)
(-0.0383298 -0.0301025 0)
(-0.012514 -0.0288736 0)
(-0.0012818 -0.0413016 0)
(-0.00133206 -0.0345611 0)
(-0.0142937 -0.0721085 0)
(-0.0749075 -0.00265416 0)
(0.882463 -0.449698 0)
(0.494837 -0.126213 0)
(0.481259 0.0341219 0)
(0.837904 0.454219 0)
(0.30236 0.490243 0)
(-0.249847 -0.218408 0)
(-0.0486021 0.0293123 0)
(0.112359 0.0617613 0)
(0.156856 0.0165241 0)
(0.0966207 0.108536 0)
(0.0491594 0.103918 0)
(0.0266496 0.080061 0)
(0.0181411 0.0677421 0)
(0.0131585 0.0616388 0)
(0.0102165 0.0573455 0)
(0.00875545 0.054172 0)
(0.00833935 0.0518593 0)
(0.00869091 0.0501658 0)
(0.00966288 0.0488762 0)
(0.0112017 0.0477112 0)
(-0.0156775 0.0298071 0)
(-0.0215672 0.0122172 0)
(-0.0274943 0.0168434 0)
(-0.0526713 0.00134262 0)
(-0.0406501 -0.0329021 0)
(-0.0116785 -0.0284644 0)
(-0.00190203 -0.0448096 0)
(-0.00544532 -0.029234 0)
(0.0154612 -0.0644344 0)
(-0.00583369 -0.043865 0)
(0.849755 -0.366912 0)
(0.312567 -0.0732771 0)
(0.39223 0.00276636 0)
(0.729567 0.425341 0)
(0.49922 0.566237 0)
(-0.00919172 -0.0392166 0)
(-0.711445 -0.201197 0)
(-0.0434421 -0.0382717 0)
(0.0813581 0.0418786 0)
(0.0433909 0.125544 0)
(0.0271226 0.116705 0)
(0.0188542 0.0851483 0)
(0.0134901 0.0712275 0)
(0.00938528 0.0640525 0)
(0.00708925 0.0587394 0)
(0.00617441 0.0547082 0)
(0.00620486 0.0516843 0)
(0.00683451 0.0493575 0)
(0.00787683 0.0473436 0)
(0.00954209 0.0449103 0)
(-0.0173153 0.032123 0)
(-0.0218992 0.0119737 0)
(-0.0268833 0.0184769 0)
(-0.0561005 0.00224023 0)
(-0.0433374 -0.0359919 0)
(-0.0102426 -0.0271531 0)
(-0.00283186 -0.0492323 0)
(-0.00924548 -0.0224626 0)
(0.00635317 -0.0233658 0)
(0.598956 -0.366267 0)
(0.533878 -0.237761 0)
(0.227475 -0.0513303 0)
(0.339546 -0.0348646 0)
(0.560074 0.300375 0)
(0.660768 0.617035 0)
(0.257916 0.145402 0)
(-0.256732 -0.166638 0)
(-0.0623368 -0.0848532 0)
(-0.0286995 0.0282811 0)
(-0.000276171 0.126235 0)
(0.00636731 0.118822 0)
(0.0108299 0.086409 0)
(0.00812328 0.0740448 0)
(0.00487836 0.0659574 0)
(0.00324368 0.059683 0)
(0.00295696 0.054786 0)
(0.00352616 0.0511366 0)
(0.00448463 0.0483994 0)
(0.00547955 0.0462044 0)
(0.00589319 0.0439453 0)
(-0.019209 0.0346746 0)
(-0.0222602 0.0114865 0)
(-0.0260203 0.0202448 0)
(-0.05998 0.00328248 0)
(-0.0464891 -0.0393779 0)
(-0.00785839 -0.0245644 0)
(-0.00504188 -0.0547346 0)
(-0.0148769 -0.0139645 0)
(-0.183142 -0.030182 0)
(0.84611 -0.345082 0)
(0.313775 -0.158897 0)
(0.186932 -0.0512382 0)
(0.324567 -0.0636888 0)
(0.446169 0.176692 0)
(0.732297 0.623835 0)
(0.525296 0.32242 0)
(0.0893199 0.0257752 0)
(-0.0679334 0.0113377 0)
(-0.100511 0.0134565 0)
(-0.0231464 0.116888 0)
(-0.00793754 0.114126 0)
(0.000587722 0.0845851 0)
(0.00175784 0.075969 0)
(-0.000627265 0.0673987 0)
(-0.0015818 0.0600547 0)
(-0.000881571 0.0542356 0)
(0.000456671 0.0500887 0)
(0.0019392 0.0470957 0)
(0.00348236 0.044816 0)
(0.0052015 0.0429417 0)
(-0.0213966 0.0375137 0)
(-0.0226619 0.0107038 0)
(-0.0248462 0.0221507 0)
(-0.0643861 0.0044705 0)
(-0.0502306 -0.0430464 0)
(-0.0039405 -0.020162 0)
(-0.0139372 -0.0595762 0)
(-0.0255802 -0.00305168 0)
(0.214401 -0.527684 0)
(0.53623 -0.22451 0)
(0.18131 -0.116572 0)
(0.174911 -0.0592658 0)
(0.313939 -0.0830033 0)
(0.427117 0.106221 0)
(0.7445 0.599148 0)
(0.715164 0.445455 0)
(0.27959 0.115797 0)
(-0.387899 -0.52666 0)
(0.0058713 0.00574815 0)
(-0.0231132 0.105876 0)
(-0.0153249 0.111729 0)
(-0.00930689 0.0796187 0)
(-0.00450277 0.0767334 0)
(-0.00688935 0.0687579 0)
(-0.00724592 0.0595383 0)
(-0.0051415 0.0527506 0)
(-0.00279525 0.048383 0)
(-0.000731269 0.0452759 0)
(0.00122608 0.0426579 0)
(0.00304142 0.0408101 0)
(-0.0239213 0.0407102 0)
(-0.0231217 0.00957656 0)
(-0.0232885 0.0241938 0)
(-0.0694113 0.00579423 0)
(-0.0547521 -0.0469367 0)
(0.00150334 -0.0134268 0)
(-0.0353249 -0.0584952 0)
(-0.0425727 0.0060829 0)
(0.491659 -0.436421 0)
(0.257055 -0.154819 0)
(0.118533 -0.102453 0)
(0.156343 -0.0757808 0)
(0.313824 -0.0786551 0)
(0.462965 0.0739909 0)
(0.667637 0.534093 0)
(0.79655 0.505525 0)
(0.510069 0.251192 0)
(0.214095 -0.0380191 0)
(-0.0946958 -0.102228 0)
(-0.00346312 0.0936409 0)
(-0.00440306 0.116184 0)
(-0.0115156 0.0741883 0)
(-0.00813252 0.0773934 0)
(-0.0122349 0.0706373 0)
(-0.0127545 0.058089 0)
(-0.00924399 0.0501131 0)
(-0.00584998 0.045962 0)
(-0.00333016 0.0430863 0)
(-0.00138508 0.040481 0)
(-0.000236413 0.039732 0)
(-0.0268159 0.0443311 0)
(-0.023664 0.00804674 0)
(-0.021258 0.0263667 0)
(-0.0751695 0.00723413 0)
(-0.060902 -0.0505191 0)
(-0.00250801 -0.00716153 0)
(-0.0469319 -0.0529648 0)
(-0.10635 0.0190312 0)
(0.621399 -0.402437 0)
(0.14445 -0.106102 0)
(0.0943785 -0.104413 0)
(0.149087 -0.108986 0)
(0.321592 -0.00867126 0)
(0.466431 0.0252745 0)
(0.583081 0.457525 0)
(0.802497 0.5047 0)
(0.640617 0.383542 0)
(0.293334 0.151272 0)
(-0.104708 -0.130725 0)
(0.0268553 0.066936 0)
(0.0201089 0.127011 0)
(-0.000106562 0.0742995 0)
(-0.0072841 0.0802546 0)
(-0.0141259 0.0737956 0)
(-0.0160412 0.0562734 0)
(-0.0121567 0.046528 0)
(-0.00820299 0.0429798 0)
(-0.00552204 0.040841 0)
(-0.00394599 0.0388709 0)
(-0.00344971 0.039629 0)
(-0.0297836 0.0480577 0)
(-0.0243282 0.00604287 0)
(-0.0186451 0.028651 0)
(-0.0818052 0.00876512 0)
(-0.0711842 -0.0511414 0)
(-0.0617525 -0.0131982 0)
(-0.0423277 -0.0494152 0)
(-0.211099 -0.0241972 0)
(0.55308 -0.331589 0)
(0.0716892 -0.0746508 0)
(0.0839896 -0.109717 0)
(0.214468 -0.168222 0)
(0.329385 0.0453936 0)
(0.566447 -0.0145138 0)
(0.521546 0.434504 0)
(0.751778 0.46117 0)
(0.697124 0.482008 0)
(0.42547 0.243567 0)
(-0.0162845 -0.0331529 0)
(-0.000275592 0.0176124 0)
(0.041434 0.139968 0)
(0.0144821 0.0854969 0)
(-0.00388687 0.0859466 0)
(-0.0103111 0.0781424 0)
(-0.0147782 0.0556015 0)
(-0.0130044 0.0430635 0)
(-0.00937323 0.0398608 0)
(-0.00687097 0.0388584 0)
(-0.00579971 0.0379485 0)
(-0.00562231 0.0397104 0)
(-0.000201096 -0.000480153 0)
(0.00116062 -0.000471132 0)
(0.00262513 -0.000456491 0)
(0.004171 -0.000434382 0)
(0.00575703 -0.000401645 0)
(0.00731311 -0.000356963 0)
(0.00874112 -0.000300935 0)
(0.00990975 -0.00023144 0)
(0.0106384 -0.000146059 0)
(0.010684 -4.28089e-05 0)
(0.00974723 7.47011e-05 0)
(0.0075125 0.000201951 0)
(0.00374128 0.000323926 0)
(-0.0015942 0.000423175 0)
(-0.00817984 0.000480196 0)
(-0.0152961 0.000475441 0)
(-0.0218809 0.000400923 0)
(-0.0268385 0.000280096 0)
(-0.0296263 0.000168883 0)
(-0.0306847 0.000102233 0)
(-0.03082 5.22399e-05 0)
(-0.029786 -2.63544e-05 0)
(-0.0262786 -0.000126215 0)
(-0.0199228 -0.000193171 0)
(-0.0114503 -0.000219338 0)
(-0.00203327 -0.000211929 0)
(0.00648987 -0.000157911 0)
(0.0109842 -5.17303e-05 0)
(0.0104754 2.68211e-05 0)
(0.00646258 8.49018e-05 0)
(-0.00109317 -0.00108087 0)
(-0.00212799 -0.00102259 0)
(-0.00329497 -0.00093764 0)
(-0.0046129 -0.000812081 0)
(-0.00611631 -0.000626467 0)
(-0.00786767 -0.000367772 0)
(-0.00996798 -2.72322e-05 0)
(-0.0125568 0.000402842 0)
(-0.0158143 0.000926555 0)
(-0.0199296 0.00153038 0)
(-0.0250549 0.00216958 0)
(-0.0312324 0.00275535 0)
(-0.0382992 0.0031643 0)
(-0.045792 0.00326757 0)
(-0.0528694 0.00297429 0)
(-0.0584226 0.00229043 0)
(-0.0613678 0.00133863 0)
(-0.0609264 0.000363159 0)
(-0.0572367 -0.00030815 0)
(-0.0515442 -0.000563035 0)
(-0.0449169 -0.000707173 0)
(-0.0368257 -0.00106794 0)
(-0.0260353 -0.00148235 0)
(-0.0128755 -0.00168846 0)
(0.00137886 -0.00165182 0)
(0.0146987 -0.00134985 0)
(0.0236259 -0.000670965 0)
(0.0245597 8.60747e-05 0)
(0.0190551 0.000461212 0)
(0.00875252 0.000779436 0)
(-0.00202398 0.00167913 0)
(-0.00496701 0.00171446 0)
(-0.00814659 0.00174466 0)
(-0.0115134 0.00178269 0)
(-0.0150099 0.0018663 0)
(-0.0185991 0.00203713 0)
(-0.02229 0.00232714 0)
(-0.0261276 0.00275524 0)
(-0.0301792 0.00331703 0)
(-0.034509 0.00397571 0)
(-0.0391739 0.0046563 0)
(-0.0442153 0.00523479 0)
(-0.0495998 0.00553509 0)
(-0.0550786 0.00535269 0)
(-0.060043 0.00454592 0)
(-0.0636233 0.00315994 0)
(-0.0648996 0.00139742 0)
(-0.0630646 -0.000341998 0)
(-0.0582137 -0.00147363 0)
(-0.0515543 -0.00183387 0)
(-0.0440346 -0.00200662 0)
(-0.0350245 -0.00257165 0)
(-0.0233245 -0.00320488 0)
(-0.00948633 -0.00343759 0)
(0.00508187 -0.00322196 0)
(0.0183235 -0.00250859 0)
(0.0267724 -0.00109817 0)
(0.0268258 0.000372651 0)
(0.0204065 0.00105327 0)
(0.00929431 0.00163565 0)
(-0.00209792 0.00555291 0)
(-0.00509193 0.00550165 0)
(-0.00829981 0.00537312 0)
(-0.0116625 0.00517825 0)
(-0.0151178 0.00498611 0)
(-0.0186345 0.0048888 0)
(-0.0222343 0.00495506 0)
(-0.0259706 0.00521492 0)
(-0.0299158 0.00565668 0)
(-0.0341479 0.00623495 0)
(-0.0387526 0.00686614 0)
(-0.0438069 0.00740563 0)
(-0.0493024 0.00761817 0)
(-0.0549753 0.00719618 0)
(-0.0601447 0.00592598 0)
(-0.0638673 0.00388885 0)
(-0.0651952 0.0013467 0)
(-0.0632394 -0.00114917 0)
(-0.0581508 -0.00272305 0)
(-0.0513268 -0.00315716 0)
(-0.0437885 -0.00334265 0)
(-0.0347797 -0.00411915 0)
(-0.0229523 -0.00496964 0)
(-0.00899675 -0.00520944 0)
(0.00564454 -0.00479572 0)
(0.0189218 -0.00365824 0)
(0.0273455 -0.00149717 0)
(0.027198 0.000697902 0)
(0.0206057 0.00166937 0)
(0.00939256 0.00251302 0)
(-0.00192206 0.00901579 0)
(-0.00441798 0.00888692 0)
(-0.00712388 0.00863186 0)
(-0.010033 0.00826631 0)
(-0.0131438 0.00788427 0)
(-0.0164695 0.00761377 0)
(-0.0200465 0.0075446 0)
(-0.023915 0.0077069 0)
(-0.0281182 0.00808026 0)
(-0.0326934 0.00861339 0)
(-0.0376866 0.00921636 0)
(-0.0431472 0.00972806 0)
(-0.049067 0.00985442 0)
(-0.0551696 0.00917361 0)
(-0.0606819 0.00739047 0)
(-0.0645826 0.00465616 0)
(-0.065951 0.00128687 0)
(-0.063787 -0.00201443 0)
(-0.0583539 -0.00403081 0)
(-0.0513392 -0.00449401 0)
(-0.043851 -0.0046648 0)
(-0.0349316 -0.00567038 0)
(-0.0230024 -0.00675104 0)
(-0.00894212 -0.00699328 0)
(0.00579133 -0.00637685 0)
(0.0191617 -0.00481603 0)
(0.0276503 -0.00189164 0)
(0.0273742 0.00103812 0)
(0.0206921 0.00228757 0)
(0.00945927 0.00339362 0)
(-0.00182389 0.01189 0)
(-0.00395774 0.0117271 0)
(-0.00631626 0.0114341 0)
(-0.00893988 0.011033 0)
(-0.0118753 0.0106188 0)
(-0.0151597 0.0103187 0)
(-0.0188173 0.0102193 0)
(-0.0228523 0.0103439 0)
(-0.0272623 0.0106707 0)
(-0.0320477 0.0111512 0)
(-0.0372394 0.01171 0)
(-0.0429193 0.0121885 0)
(-0.0491449 0.0122381 0)
(-0.0556485 0.0112858 0)
(-0.0615008 0.00893061 0)
(-0.0655547 0.00545189 0)
(-0.0669598 0.0012032 0)
(-0.0645001 -0.00296547 0)
(-0.0586033 -0.00542049 0)
(-0.0513531 -0.00584554 0)
(-0.0439446 -0.00596225 0)
(-0.0351571 -0.0072223 0)
(-0.0230965 -0.00855049 0)
(-0.00891547 -0.00879045 0)
(0.00592696 -0.00796748 0)
(0.019414 -0.00598694 0)
(0.0279938 -0.00228427 0)
(0.0275639 0.00139343 0)
(0.0207831 0.00290485 0)
(0.00953949 0.00427563 0)
(-0.00184699 0.0144438 0)
(-0.0038371 0.0142767 0)
(-0.00605855 0.0140037 0)
(-0.00856997 0.01365 0)
(-0.0114355 0.0132947 0)
(-0.0146988 0.0130401 0)
(-0.018375 0.0129543 0)
(-0.0224495 0.0130556 0)
(-0.0269023 0.0133286 0)
(-0.0317254 0.0137458 0)
(-0.0369674 0.0142623 0)
(-0.042773 0.0147406 0)
(-0.0493009 0.0147666 0)
(-0.0562903 0.0135517 0)
(-0.06255 0.0105493 0)
(-0.0667498 0.00627637 0)
(-0.068225 0.00108706 0)
(-0.0653708 -0.00402927 0)
(-0.0588733 -0.00692162 0)
(-0.0513493 -0.00721565 0)
(-0.0440516 -0.00722647 0)
(-0.0354423 -0.00877553 0)
(-0.0232029 -0.0103724 0)
(-0.00887938 -0.0106037 0)
(0.00609392 -0.00956928 0)
(0.0197208 -0.00717453 0)
(0.0284145 -0.00267474 0)
(0.0277905 0.00176761 0)
(0.0208903 0.0035204 0)
(0.00963839 0.00515893 0)
(-0.001953 0.0169055 0)
(-0.00392145 0.0167381 0)
(-0.00611313 0.0164967 0)
(-0.00858617 0.016208 0)
(-0.0114061 0.0159326 0)
(-0.014621 0.0157415 0)
(-0.0182507 0.015681 0)
(-0.0222834 0.0157633 0)
(-0.0266979 0.0159832 0)
(-0.0314878 0.0163399 0)
(-0.0367182 0.016835 0)
(-0.0426132 0.0173745 0)
(-0.049484 0.0174695 0)
(-0.0570997 0.0160138 0)
(-0.0638575 0.0122517 0)
(-0.0681642 0.00713015 0)
(-0.069785 0.000928069 0)
(-0.0664059 -0.00523342 0)
(-0.0591402 -0.00857278 0)
(-0.0513216 -0.00860809 0)
(-0.0441699 -0.00844789 0)
(-0.0357982 -0.0103316 0)
(-0.023318 -0.0122221 0)
(-0.00883216 -0.0124366 0)
(0.00629499 -0.0111838 0)
(0.0200855 -0.00838274 0)
(0.0289186 -0.00306244 0)
(0.0280554 0.00216516 0)
(0.0210138 0.00413349 0)
(0.00975733 0.00604339 0)
(-0.00211622 0.0193786 0)
(-0.00410177 0.0191959 0)
(-0.00629002 0.0189685 0)
(-0.0087346 0.0187287 0)
(-0.0115031 0.0185234 0)
(-0.0146531 0.0183955 0)
(-0.0182171 0.0183667 0)
(-0.0221911 0.0184381 0)
(-0.0265519 0.0186095 0)
(-0.0312812 0.0189088 0)
(-0.0364536 0.0194046 0)
(-0.0423915 0.0200855 0)
(-0.0496528 0.0203908 0)
(-0.0581011 0.018735 0)
(-0.0654709 0.0140357 0)
(-0.0697759 0.00800741 0)
(-0.0717017 0.000706191 0)
(-0.0676149 -0.00660072 0)