/*--------------------------------*- C++ -*----------------------------------*\
| =========                 |                                                 |
| \\      /  F ield         | OpenFOAM: The Open Source CFD Toolbox           |
|  \\    /   O peration     | Version:  2.4.0                                 |
|   \\  /    A nd           | Web:      www.OpenFOAM.org                      |
|    \\/     M anipulation  |                                                 |
\*---------------------------------------------------------------------------*/
FoamFile
{
    version     2.0;
    format      ascii;
    class       volScalarField;
    location    "0.038";
    object      alpha.water;
}
// * * * * * * * * * * * * * * * * * * * * * * * * * * * * * * * * * * * * * //

dimensions      [0 0 0 0 0 0 0];

internalField   nonuniform List<scalar> 
14400
(
1
1
1
1
1
1
1
1
1
1
1
1
1
1
1
1
1
1
1
1
1
1
1
1
1
1
1
1
1
1
1
1
1
1
1
1
1
1
1
1
1
1
1
1
1
1
1
1
1
1
1
1
1
1
1
1
1
1
1
1
1
1
1
1
1
1
1
1
1
1
1
1
1
1
1
1
1
1
1
1
1
1
1
1
1
1
1
1
1
1
1
1
1
1
1
1
1
1
1
1
1
1
1
1
1
1
1
1
1
1
1
1
1
1
1
1
1
1
1
1
1
1
1
1
1
1
1
1
1
1
1
1
1
1
1
1
1
1
1
1
1
1
1
1
1
1
1
1
1
1
1
1
1
1
1
1
1
1
1
1
1
1
1
1
1
1
1
1
1
1
1
1
1
1
1
1
1
1
1
1
1
1
1
1
1
1
1
1
1
1
1
1
1
1
1
1
1
1
1
1
1
1
1
1
1
1
1
1
1
1
1
1
1
1
1
1
1
1
1
1
1
1
1
1
1
1
1
1
1
1
1
1
1
1
1
1
1
1
1
1
1
1
1
1
1
1
1
1
1
1
1
1
1
1
1
1
1
1
1
1
1
1
1
1
1
1
1
1
1
1
1
1
1
1
1
1
1
1
1
1
1
1
1
1
1
1
1
1
1
1
1
1
1
1
1
1
1
1
1
1
1
1
1
1
1
1
1
1
1
1
1
1
1
1
1
1
1
1
1
1
1
1
1
1
1
1
1
1
1
1
1
1
1
1
1
1
1
1
1
1
1
1
1
1
1
1
1
1
1
1
1
1
1
1
1
1
1
1
1
1
1
1
1
1
1
1
1
1
1
1
1
1
1
1
1
1
1
1
1
1
1
1
1
1
1
1
1
1
1
1
1
1
1
1
1
1
1
1
1
1
1
1
1
1
1
1
1
1
1
1
1
1
1
1
0.889892
0.590102
0.351916
0.222239
0.146122
0.121749
1
1
1
1
1
1
1
1
1
1
1
1
1
1
1
1
1
1
1
1
1
1
0.944545
0.153321
0.000110683
7.02334e-05
0.000102824
0.000103016
0.000141715
0.000175683
1
1
1
1
1
1
1
1
1
1
1
1
1
1
1
1
1
1
1
1
1
0.831842
0.000179866
3.22719e-07
8.78527e-06
1.1485e-05
8.0093e-06
1.82528e-06
4.14715e-06
1.29948e-05
1
1
1
1
1
1
1
1
1
1
1
1
1
1
1
1
1
1
1
1
0.809246
5.34617e-05
6.98578e-07
6.15868e-07
7.68126e-05
4.26151e-06
2.78118e-06
3.29358e-08
1.39855e-07
4.94096e-06
1
1
1
1
1
1
1
1
1
1
1
1
1
1
1
1
1
1
1
0.87451
0.00259692
1.5285e-05
1.94982e-07
4.86052e-05
0.000121717
1.53457e-06
2.22758e-08
1.98147e-08
3.52816e-08
4.70914e-05
1
1
1
1
1
1
1
1
1
1
1
1
1
1
1
1
1
1
0.955177
0.0281244
3.23922e-05
2.65914e-07
1.04305e-08
0.000128343
0.000113995
1.31217e-06
1.77498e-08
1.81652e-08
1.5301e-07
3.90972e-05
1
1
1
1
1
1
1
1
1
1
1
1
1
1
1
1
1
0.999999
0.2929
5.93566e-05
-6.64815e-08
1.86563e-08
1.65128e-07
3.23155e-05
1.90068e-07
3.03947e-07
5.76607e-08
1.40346e-07
1.10035e-07
2.10174e-07
1
1
1
1
1
1
1
1
1
1
1
1
1
1
1
1
1
0.992723
0.000656425
2.42309e-08
1.46817e-09
3.74116e-09
3.7191e-09
1.0987e-08
1.56587e-08
1.35759e-08
2.61603e-08
6.82933e-08
5.90026e-07
2.39912e-06
1
1
1
1
1
1
1
1
1
1
1
1
1
1
1
1
1
0.108251
4.83917e-05
1.32383e-06
1.13439e-09
1.66444e-09
2.76194e-09
3.6765e-09
5.82099e-09
2.28248e-07
7.47866e-08
4.86769e-07
8.13343e-06
4.48033e-06
1
1
1
1
1
1
1
1
1
1
1
1
1
1
1
1
0.999863
0.000155654
0.000255812
4.83126e-10
1.06615e-09
8.7055e-10
2.16884e-09
9.34005e-09
4.27441e-07
4.27771e-07
1.10711e-07
2.35847e-07
1.94952e-06
7.52072e-09
1
1
1
1
1
1
1
1
1
1
1
1
1
1
1
1
0.472391
2.84358e-07
0.000207437
3.7312e-10
4.33159e-10
3.02804e-10
8.76561e-10
2.28831e-09
3.20976e-09
1.70837e-09
1.44602e-09
1.9748e-09
2.499e-09
2.73989e-09
1
1
1
1
1
1
1
1
1
1
1
1
1
1
1
1
0.143107
4.6395e-08
4.51725e-08
4.21085e-10
6.54146e-11
7.84732e-11
1.63196e-10
3.94388e-10
6.89523e-10
6.83175e-10
4.75349e-10
6.03632e-10
9.07127e-10
6.07725e-10
1
1
1
1
1
1
1
1
1
1
1
1
1
1
1
0.999997
0.0112299
4.65277e-08
2.57619e-10
2.99945e-10
1.70881e-11
1.79135e-11
2.73117e-11
4.34974e-11
6.14653e-11
6.13726e-11
4.44118e-11
4.50842e-11
6.04229e-11
4.76642e-11
1
1
1
1
1
1
1
1
1
1
1
1
1
1
1
0.893452
4.61811e-05
3.64212e-05
1.59371e-11
5.71057e-11
4.55702e-12
3.08079e-12
3.93083e-12
5.24049e-12
5.87832e-12
5.05087e-12
3.23629e-12
2.04903e-12
1.91422e-12
1.70223e-12
1
1
1
1
1
1
1
1
1
1
1
1
1
1
1
0.652524
0.00017747
5.99042e-11
1.50408e-11
9.05137e-12
1.81792e-12
4.90548e-13
3.7591e-13
4.50768e-13
4.7625e-13
3.85682e-13
2.2679e-13
1.02364e-13
5.42192e-14
4.04649e-14
1
1
1
1
1
1
1
1
1
1
1
1
1
1
0.999998
0.140859
0.000480072
-9.70459e-12
4.23182e-11
8.81384e-12
1.50065e-12
1.92838e-13
3.40622e-14
2.41175e-14
2.39749e-14
1.92907e-14
1.14256e-14
5.25528e-15
2.68117e-15
1.7347e-15
1
1
1
1
1
1
1
1
1
1
1
1
1
1
0.999735
2.39351e-06
0.00015725
2.36845e-11
1.74092e-10
9.95461e-12
1.66743e-12
1.93087e-13
1.45004e-14
1.58402e-15
9.42031e-16
7.46063e-16
4.59161e-16
2.39081e-16
1.49541e-16
1.02734e-16
1
1
1
1
1
1
1
1
1
1
1
1
1
1
1
1
1
1
1
1
1
1
1
1
1
1
1
1
1
1
1
1
1
1
1
1
1
1
1
1
1
1
1
1
1
1
1
1
1
1
1
1
1
1
1
1
1
1
1
1
1
1
1
1
1
1
1
1
1
1
1
1
1
1
1
1
1
1
1
1
1
1
1
1
1
1
1
1
1
1
1
1
1
1
1
1
1
1
1
1
1
1
1
1
1
1
1
1
1
1
1
1
1
1
1
1
1
1
1
1
1
1
1
1
1
1
1
1
1
1
1
1
1
1
1
1
1
1
1
1
1
1
1
1
1
1
1
1
1
1
1
1
1
1
1
1
1
1
1
1
1
1
1
1
1
1
1
1
1
1
1
1
1
1
1
1
1
1
1
1
1
1
1
1
1
1
1
1
1
1
1
1
1
1
1
1
1
1
1
1
1
1
1
1
1
1
1
1
1
1
1
1
1
1
1
1
1
1
1
1
1
1
1
1
1
1
1
1
1
1
1
1
1
1
1
1
1
1
1
1
1
1
1
1
1
1
1
1
1
1
1
1
1
1
1
1
1
1
1
1
1
1
1
1
1
1
1
1
1
1
1
1
1
1
1
1
1
1
1
1
1
1
1
1
1
1
1
1
1
1
1
1
1
1
1
1
1
1
1
1
1
1
1
1
1
1
1
1
1
1
1
1
1
1
1
1
1
1
1
1
1
1
1
1
1
1
1
1
1
1
1
1
1
1
1
1
1
1
1
1
1
1
1
1
1
1
1
1
1
1
1
1
1
1
1
1
1
1
1
1
1
1
1
1
1
1
1
1
1
1
1
1
1
1
1
1
1
1
1
1
1
1
1
1
1
1
1
1
1
1
0.117318
0.127999
0.174446
0.275443
0.454975
0.74572
0.978759
1
1
1
1
1
1
1
1
1
1
1
1
1
1
1
1
1
1
1
1
1
1
1
0.000167887
0.000167201
0.000108028
9.28809e-05
0.000112087
2.94125e-05
0.000528753
0.540813
0.999999
1
1
1
1
1
1
1
1
1
1
1
1
1
1
1
1
1
1
1
1
1
1.53645e-05
6.34857e-06
2.26684e-06
2.18502e-06
1.87172e-05
1.29835e-05
2.9539e-06
1.21873e-05
0.173167
1
1
1
1
1
1
1
1
1
1
1
1
1
1
1
1
1
1
1
1
1
6.62666e-06
8.88965e-07
5.01932e-08
1.48667e-07
6.5231e-06
6.98517e-05
6.18973e-06
2.45276e-07
2.29588e-06
0.107205
1
1
1
1
1
1
1
1
1
1
1
1
1
1
1
1
1
1
1
1
4.71506e-05
5.05042e-06
2.96262e-08
2.65356e-08
1.48449e-07
5.18245e-05
0.000132349
4.00859e-08
7.41801e-07
0.000103519
0.23353
1
1
1
1
1
1
1
1
1
1
1
1
1
1
1
1
1
1
1
4.07669e-05
3.8372e-06
2.87415e-08
2.37716e-08
1.85699e-08
6.7273e-05
0.000134642
1.38769e-08
1.72298e-08
1.63112e-06
0.000228719
0.533095
0.999999
1
1
1
1
1
1
1
1
1
1
1
1
1
1
1
1
1
1.97244e-07
1.0424e-07
1.33042e-07
1.35166e-07
1.74154e-08
1.72372e-07
2.13184e-05
3.44165e-06
8.49016e-09
6.36642e-09
3.03118e-06
0.000906485
0.976342
1
1
1
1
1
1
1
1
1
1
1
1
1
1
1
1
1
9.79825e-08
6.07047e-06
7.21812e-08
7.47647e-08
1.30974e-08
1.56093e-08
1.43217e-08
4.29797e-09
4.40179e-09
2.54447e-09
1.01273e-08
2.5297e-05
0.175868
1
1
1
1
1
1
1
1
1
1
1
1
1
1
1
1
1
9.81878e-08
9.42337e-06
6.62579e-06
4.95634e-08
2.59426e-07
6.91217e-08
4.09098e-09
3.56136e-09
2.4475e-09
1.87356e-09
4.7762e-10
4.93671e-06
0.000780739
0.945727
1
1
1
1
1
1
1
1
1
1
1
1
1
1
1
1
1.1207e-07
1.53515e-06
5.19309e-07
6.11881e-08
4.43061e-07
4.42543e-07
1.99538e-07
1.9098e-09
1.21074e-09
6.34061e-10
4.35786e-10
5.18169e-05
0.000260956
0.0862668
1
1
1
1
1
1
1
1
1
1
1
1
1
1
1
1
2.04358e-09
2.58304e-09
2.31256e-09
1.58636e-09
1.6075e-09
6.01933e-09
1.79212e-09
1.2675e-09
4.01292e-10
1.90502e-10
3.33951e-10
1.2561e-05
2.0156e-05
1.308e-06
1
1
1
1
1
1
1
1
1
1
1
1
1
1
1
1
6.29267e-10
1.03069e-09
8.05816e-10
5.25165e-10
6.90291e-10
8.01886e-10
4.8529e-10
2.07639e-10
8.85875e-11
6.75263e-11
5.21322e-10
-2.62921e-09
5.47941e-09
1.40394e-07
0.931647
1
1
1
1
1
1
1
1
1
1
1
1
1
1
1
4.96827e-11
7.29514e-11
5.7077e-11
4.80231e-11
6.25754e-11
6.80897e-11
4.88823e-11
2.97792e-11
1.81555e-11
1.48896e-11
2.68314e-11
4.42428e-10
2.45149e-09
4.70285e-07
0.525823
0.999999
1
1
1
1
1
1
1
1
1
1
1
1
1
1
1.81325e-12
2.21532e-12
2.20786e-12
3.09832e-12
4.86783e-12
5.89078e-12
5.34627e-12
3.96624e-12
2.78942e-12
3.04409e-12
6.92545e-12
8.32697e-11
2.34097e-11
6.62673e-06
0.144936
0.999995
1
1
1
1
1
1
1
1
1
1
1
1
1
1
3.92289e-14
5.3492e-14
8.77218e-14
1.96485e-13
3.55917e-13
4.59953e-13
4.43832e-13
3.52521e-13
3.39279e-13
9.45128e-13
4.53464e-12
1.49129e-11
1.62136e-06
0.00027877
0.0026449
0.999999
1
1
1
1
1
1
1
1
1
1
1
1
1
1
1.42888e-15
2.5143e-15
4.40309e-15
9.87143e-15
1.78278e-14
2.3166e-14
2.31758e-14
2.42531e-14
8.23961e-14
6.82622e-13
4.48306e-12
2.20767e-11
4.00556e-11
1.00831e-06
0.00152584
0.986637
1
1
1
1
1
1
1
1
1
1
1
1
1
1
8.20983e-17
1.45871e-16
2.1056e-16
4.05179e-16
7.00642e-16
9.08258e-16
1.09554e-15
4.96288e-15
6.96265e-14
7.58172e-13
5.11715e-12
2.29671e-11
2.69406e-10
3.09965e-07
2.90373e-05
0.635807
1
1
1
1
1
1
1
1
1
1
1
1
1
1
4.51634e-10
0.432097
0.673687
0.930242
1
1
1
1
1
1
1
1
1
1
0.969704
3.25537e-07
1.43348e-05
-8.80838e-10
7.12132e-11
1.0339e-11
1.81093e-12
2.13887e-13
1.54626e-14
7.24361e-16
3.95766e-17
1.52199e-17
1.0421e-17
7.08255e-18
6.04332e-18
4.56917e-18
1.96686e-11
1.55564e-08
9.31544e-07
3.14815e-05
0.105549
0.847328
1
1
1
1
1
1
1
1
0.932296
1.64574e-07
4.14402e-10
-2.14247e-09
4.33692e-11
1.03438e-11
1.89331e-12
2.20483e-13
1.60342e-14
7.50453e-16
2.73649e-17
3.86759e-18
2.47004e-18
1.81185e-18
1.66786e-18
1.29043e-18
1.9189e-13
7.49039e-11
1.24763e-09
2.70449e-06
0.018632
0.0525866
0.548852
1
1
1
1
1
1
1
0.831495
1.54393e-07
8.51578e-09
-5.88851e-10
3.95388e-11
1.0986e-11
2.11785e-12
2.354e-13
1.64405e-14
7.7314e-16
2.52823e-17
1.20153e-18
5.17179e-19
4.10478e-19
4.08968e-19
3.2401e-19
1.63838e-15
2.04153e-11
5.25912e-10
0.00128874
9.95752e-05
0.0158466
0.444603
0.886116
1
1
0.999988
1
1
1
0.674542
2.36491e-06
1.38037e-05
8.66359e-15
3.91477e-11
1.3264e-11
2.67041e-12
2.79553e-13
1.74592e-14
7.90655e-16
2.53621e-17
6.70804e-19
9.93088e-20
8.13491e-20
8.7889e-20
7.13546e-20
3.4273e-16
3.66795e-12
2.70687e-08
2.68036e-06
8.42946e-05
0.000160462
0.134457
0.929494
0.997956
0.999999
0.999954
0.999999
1
1
0.55773
4.28858e-07
1.5993e-05
5.68125e-12
4.61036e-11
1.84067e-11
3.78631e-12
3.8573e-13
2.07521e-14
8.37755e-16
2.58693e-17
5.89607e-19
2.25701e-20
1.39018e-20
1.62464e-20
1.35309e-20
6.3542e-16
8.67788e-13
6.88859e-11
-2.10416e-08
0.000139677
2.36216e-05
0.000468024
0.651655
1
1
1
1
1
0.999999
0.431386
5.68042e-09
1.99571e-06
1.33268e-11
6.43264e-11
2.75041e-11
5.68013e-12
5.93523e-13
2.89476e-14
9.93706e-16
2.75969e-17
5.95418e-19
1.09197e-20
2.07435e-21
2.53663e-21
2.17036e-21
5.19884e-16
3.11528e-12
1.44018e-10
9.6515e-09
0.000345231
5.21194e-06
6.67587e-05
0.0700018
0.991221
1
1
1
1
0.999999
0.292812
2.6875e-11
5.93803e-09
5.73507e-11
9.64801e-11
4.05672e-11
8.45357e-12
9.36322e-13
4.53022e-14
1.38419e-15
3.30183e-17
6.48845e-19
9.96569e-21
3.3385e-22
3.25236e-22
2.8618e-22
1.04737e-16
2.03199e-12
9.75113e-11
7.08787e-05
0.000498794
4.38105e-06
1.30942e-05
0.00021931
0.627325
1
1
1
1
0.999996
0.095535
2.49216e-10
7.07051e-10
3.05433e-10
1.365e-10
5.52963e-11
1.21566e-11
1.43306e-12
7.28756e-14
2.16435e-15
4.59846e-17
7.9527e-19
1.11935e-20
1.35703e-22
3.36957e-23
3.0069e-23
1.04374e-17
3.70554e-13
5.27627e-11
8.84955e-06
0.000550394
4.92615e-08
3.7406e-07
1.04317e-05
0.0135541
0.975875
0.999998
1
1
0.999982
0.0233317
2.54337e-10
7.46031e-10
1.90425e-08
1.6445e-10
6.9497e-11
1.7543e-11
2.15612e-12
1.15133e-13
3.49732e-15
7.12224e-17
1.11339e-18
1.4211e-20
1.39671e-22
3.40397e-24
2.40501e-24
7.34142e-19
3.25976e-14
4.34107e-11
3.12042e-09
0.000213237
3.19763e-08
8.19064e-06
1.1333e-05
3.08499e-05
0.195543
0.999904
1
1
0.996652
0.00267192
2.93257e-10
8.2376e-08
3.62915e-10
1.71388e-10
8.86296e-11
2.8082e-11
3.55406e-12
1.86012e-13
5.6663e-15
1.14638e-16
1.70454e-18
2.00459e-20
1.82122e-22
1.2543e-24
1.40184e-25
4.88926e-20
2.1804e-15
6.8728e-12
1.90965e-09
3.02037e-09
3.62657e-09
9.38049e-06
7.44614e-06
1.73247e-06
0.00023347
0.495903
1
1
0.960154
0.000268508
6.00053e-07
1.88813e-08
2.83973e-09
1.87029e-10
1.28859e-10
5.30784e-11
7.37273e-12
3.54919e-13
9.93348e-15
1.9214e-16
2.75109e-18
3.053e-20
2.59351e-22
1.52333e-24
1.00012e-26
5.62238e-21
1.50062e-16
4.94284e-13
1.94129e-10
3.55457e-10
3.34025e-10
1.72811e-05
2.31942e-08
3.42975e-08
6.40959e-06
0.0330306
1.00001
0.999998
0.885801
1.91858e-05
2.31762e-06
8.35454e-10
7.26505e-10
2.50207e-10
2.06648e-10
1.09349e-10
1.85331e-11
8.91961e-13
2.23048e-14
3.81873e-16
4.98307e-18
5.12839e-20
4.06254e-22
2.25257e-24
7.481e-27
1.15709e-21
1.4346e-17
3.6633e-14
2.46841e-11
1.34939e-10
1.07633e-08
5.8965e-06
2.87215e-07
1.34509e-09
4.16382e-07
0.000268984
0.999912
0.999946
0.7706
1.04967e-05
1.96726e-05
7.48642e-10
5.42871e-10
4.24051e-10
2.96884e-10
2.13591e-10
4.7528e-11
2.64261e-12
6.6904e-14
1.059e-15
1.22204e-17
1.10663e-19
7.86053e-22
4.04964e-24
1.32839e-26
2.19587e-22
2.43073e-18
3.78889e-15
1.83713e-12
3.09433e-11
2.14626e-10
3.08795e-08
4.13277e-06
7.83801e-10
1.06453e-07
8.53726e-05
0.347336
0.999747
0.388929
1.01766e-05
1.93378e-05
1.39408e-08
8.9287e-06
4.19002e-09
2.21816e-10
3.5698e-10
1.11231e-10
7.80154e-12
2.27448e-13
3.83473e-15
4.37325e-17
3.66337e-19
2.32539e-21
1.08684e-23
3.51678e-26
3.01794e-23
4.27985e-19
6.15031e-16
2.19345e-13
1.16103e-11
9.23286e-11
9.29025e-07
7.33832e-10
5.84336e-10
1.40009e-06
4.7793e-06
9.33936e-06
0.971702
0.0536347
1.03334e-05
1.04348e-05
0.000131351
2.43915e-05
2.67989e-07
-1.36922e-09
4.50846e-10
2.30063e-10
2.12292e-11
7.62438e-13
1.50354e-14
1.9098e-16
1.68481e-18
1.06447e-20
4.78033e-23
1.52489e-25
2.80956e-24
5.57883e-20
9.1967e-17
3.52611e-14
3.25071e-12
3.89191e-11
3.41099e-07
2.94324e-10
2.49125e-10
2.09839e-10
3.91987e-07
4.19535e-08
5.65425e-05
0.000121872
0.000128718
2.4023e-05
0.000132035
0.000102666
0.000199222
1.75167e-07
6.71904e-10
4.11294e-10
5.27667e-11
2.41284e-12
5.81401e-14
8.71941e-16
8.77256e-18
6.08527e-20
2.89017e-22
9.72126e-25
1.71155e-25
4.90463e-21
9.75592e-18
4.69707e-15
6.35384e-13
1.32826e-11
7.26718e-11
1.32612e-10
1.09557e-10
1.70784e-10
1.92452e-08
3.89972e-11
5.23571e-11
1.39745e-07
0.000118862
2.81114e-05
0.000131873
3.68942e-05
0.000306973
0.000177493
6.36896e-08
6.28861e-10
1.21861e-10
7.33408e-12
2.21642e-13
4.03328e-15
4.79998e-17
3.84302e-19
2.06093e-21
7.88564e-24
6.78393e-27
2.80755e-22
6.79476e-19
4.22943e-16
8.18439e-14
2.73992e-12
1.07349e-10
3.21355e-11
3.76358e-11
7.29293e-11
6.12922e-11
3.81695e-11
9.01082e-11
-1.14843e-09
0.000127602
6.1911e-06
6.21683e-06
5.88414e-06
0.000304461
0.000305769
5.83991e-08
6.46141e-10
2.60379e-10
2.14118e-11
8.32809e-13
1.85128e-14
2.59859e-16
2.37456e-18
1.39198e-20
4.97817e-23
1.78841e-28
1.0399e-23
3.03145e-20
2.41719e-17
6.56e-15
3.25339e-13
1.75838e-11
4.80105e-12
8.42813e-12
1.81131e-11
6.32269e-12
1.53687e-11
5.36978e-11
7.01919e-11
2.8344e-08
0.000133392
0.000157133
0.00023073
0.000289177
5.34202e-05
6.96016e-08
1.00842e-09
4.69661e-10
3.91991e-11
1.78005e-12
4.53229e-14
7.13282e-16
7.14435e-18
4.40742e-20
1.53524e-22
3.25092e-30
2.53878e-25
8.70456e-22
8.66155e-19
3.19145e-16
2.25456e-14
1.38302e-12
5.18024e-13
1.21531e-12
2.4883e-12
7.74579e-13
1.68228e-12
1.14701e-11
1.53695e-11
4.65829e-12
1.84307e-05
3.02698e-05
6.68359e-05
3.54192e-05
6.36258e-05
1.17447e-07
1.34936e-09
3.35253e-10
3.52644e-11
1.59463e-12
4.161e-14
6.73931e-16
6.95402e-18
4.36786e-20
1.48212e-22
4.14585e-32
4.2283e-27
1.65309e-23
1.97874e-20
9.49743e-18
9.38174e-16
5.75759e-14
3.94158e-14
1.06418e-13
1.91433e-13
5.51008e-14
3.10699e-14
5.2706e-13
6.73317e-13
4.33766e-11
0.000106853
0.000650654
7.67271e-05
7.76062e-05
7.51997e-05
2.79197e-09
2.48545e-10
1.28341e-10
7.3654e-12
2.79783e-13
6.84435e-15
1.08629e-16
1.09379e-18
6.55976e-21
2.0443e-23
3.66126e-34
4.9509e-29
2.15922e-25
2.99216e-22
1.78673e-19
2.42487e-17
1.38445e-15
1.92066e-15
5.38993e-15
8.2922e-15
2.21318e-15
3.75703e-16
6.38199e-15
9.34631e-15
4.2254e-11
0.000112361
0.00065075
0.000420689
4.3143e-06
3.94318e-10
1.07131e-10
4.56408e-11
4.06376e-12
1.98802e-13
6.01178e-15
1.17886e-16
1.50431e-18
1.2126e-20
5.72317e-23
1.3485e-25
2.14757e-36
4.07956e-31
1.99502e-27
3.12807e-24
2.22984e-21
4.03467e-19
2.13125e-17
5.50991e-17
1.51945e-16
1.99316e-16
4.84287e-17
5.21893e-18
2.15025e-17
2.9844e-17
4.79736e-12
5.09423e-12
4.1808e-11
2.63413e-10
1.22388e-10
7.13164e-11
6.24881e-12
3.65288e-13
1.41433e-14
3.68634e-16
6.53177e-18
7.84736e-20
6.24833e-22
3.14297e-24
9.09574e-27
1.25802e-29
7.97816e-39
2.29657e-33
1.30012e-29
2.31921e-26
1.92687e-23
4.43944e-21
2.2508e-19
8.8155e-19
2.31859e-18
2.59516e-18
5.53014e-19
4.72571e-20
1.73026e-20
1.25051e-20
1.62159e-18
2.37013e-14
2.98339e-11
3.91238e-12
7.54714e-14
1.3469e-15
2.12218e-17
2.76676e-19
2.86064e-21
2.27465e-23
1.3514e-25
5.80969e-28
1.72593e-30
3.31261e-33
3.68017e-36
1.96013e-39
1.80292e-41
8.4857e-36
5.80512e-32
1.20934e-28
1.16505e-25
3.23258e-23
1.60947e-21
7.63558e-21
1.88149e-20
1.77108e-20
3.11731e-21
2.03243e-22
8.10137e-24
6.09709e-25
5.45213e-26
3.90786e-27
3.57305e-28
3.85214e-29
3.95038e-30
3.48891e-31
2.52421e-32
1.45104e-33
6.48938e-35
2.21606e-36
5.65052e-38
1.04426e-39
1.33432e-41
1.09596e-43
5.10437e-46
1.05468e-48
2.39152e-44
1.99344e-38
1.72291e-34
4.31752e-31
4.82307e-28
1.52224e-25
7.33793e-24
3.56522e-23
8.03156e-23
6.11271e-23
8.10341e-24
3.64895e-25
8.44023e-27
1.29233e-28
1.76584e-30
3.18294e-32
9.13462e-34
3.53395e-35
1.4849e-36
5.93879e-38
2.09434e-39
6.20358e-41
1.4899e-42
2.81336e-44
4.04148e-46
4.24719e-48
3.08646e-50
1.42744e-52
3.65069e-55
3.90238e-58
1.78454e-47
2.91193e-41
3.33895e-37
1.03395e-33
1.32899e-30
4.51955e-28
2.03316e-26
9.07352e-26
1.79187e-25
1.02448e-25
8.96745e-27
2.46682e-28
3.43771e-30
3.25952e-32
2.78977e-34
2.81773e-36
3.75848e-38
6.15975e-40
1.09154e-41
1.88511e-43
2.95199e-45
3.98348e-47
4.45352e-49
3.98278e-51
2.74492e-53
1.39576e-55
4.92341e-58
1.10018e-60
1.33353e-63
6.36156e-67
6.95718e-51
2.59858e-44
4.21559e-40
1.65927e-36
2.41286e-33
8.40676e-31
3.38018e-29
1.29418e-28
2.10957e-28
8.10197e-29
3.91301e-30
5.61886e-32
4.11784e-34
2.1146e-36
9.90299e-39
5.16402e-41
3.22192e-43
2.31039e-45
1.75502e-47
1.30595e-49
8.94121e-52
5.35999e-54
2.69843e-56
1.09712e-58
3.45466e-61
8.02622e-64
1.28632e-66
1.28874e-69
6.81035e-73
1.31611e-76
1.19583e-54
1.38008e-47
3.49854e-43
1.82034e-39
2.9313e-36
1.00015e-33
3.45128e-32
1.08629e-31
1.37042e-31
3.02575e-32
6.27977e-34
3.67932e-36
1.10491e-38
2.36111e-41
4.57287e-44
9.46209e-47
2.21677e-49
5.7273e-52
1.53503e-54
4.00342e-57
9.61554e-60
2.0308e-62
3.62103e-65
5.24046e-68
5.89633e-71
4.90329e-74
2.80746e-77
9.96681e-81
1.82547e-84
1.14084e-88
6.30761e-59
4.11828e-51
1.93989e-46
1.43191e-42
2.48795e-39
8.01677e-37
2.30458e-35
5.80431e-35
5.36206e-35
5.64276e-36
3.1735e-38
4.26229e-41
2.64891e-44
1.11719e-47
4.18107e-51
1.61606e-54
6.77973e-58
3.04024e-61
1.39469e-64
6.2198e-68
2.57e-71
9.42128e-75
2.94363e-78
7.53276e-82
1.51101e-85
2.25625e-89
2.33165e-93
1.49423e-97
4.87677e-102
5.12838e-107
3.58684e-18
6.20468e-18
6.73935e-18
9.55199e-18
1.4288e-17
2.21752e-17
1.99489e-16
4.61973e-15
7.875e-14
8.5401e-13
5.67223e-12
2.64975e-11
2.97389e-10
-5.09935e-11
4.54864e-06
0.232259
0.999998
1
1
1
1
1
1
1
1
1
1
0.808901
0.520483
0.206081
1.00964e-18
1.73447e-18
1.76082e-18
2.2941e-18
3.36512e-18
9.20818e-18
1.96368e-16
4.87044e-15
8.20634e-14
8.99483e-13
5.98477e-12
2.64468e-11
1.97792e-10
1.37813e-11
3.79581e-07
0.116711
0.999994
1
1
1
1
1
1
1
1
0.418548
0.0077407
5.7572e-06
1.17098e-07
2.31632e-08
2.5268e-19
4.30904e-19
4.08136e-19
4.8399e-19
7.58961e-19
6.29928e-18
2.01816e-16
5.03477e-15
8.60433e-14
9.95379e-13
6.69362e-12
2.68096e-11
9.24758e-11
1.37771e-14
7.01977e-07
0.0608198
0.999984
1
1
1
1
1
1
0.968998
0.115886
0.0235423
0.00159694
1.62711e-08
3.23869e-10
2.48945e-11
5.5435e-20
9.38381e-20
8.28521e-20
8.92939e-20
2.2096e-19
5.80208e-18
2.05563e-16
5.20129e-15
9.60013e-14
1.22442e-12
8.29502e-12
2.93364e-11
7.86903e-11
6.7558e-06
1.23325e-06
0.0322731
0.999934
1
1
0.999991
0.999999
1
1
0.769337
0.0856701
0.000603415
0.000959271
1.85285e-06
6.54471e-11
4.56702e-13
1.0463e-20
1.75819e-20
1.44726e-20
1.50069e-20
1.25627e-19
5.70963e-18
2.08292e-16
5.68074e-15
1.21736e-13
1.70718e-12
1.14299e-11
3.62429e-11
7.79702e-11
7.115e-06
4.37542e-07
0.0196953
0.99565
1
1
0.999967
0.999967
1
0.978969
0.664276
0.00601062
2.72949e-05
0.000157604
1.06209e-05
4.76055e-11
1.01538e-13
1.66849e-21
2.78344e-21
2.14421e-21
3.13491e-21
1.09356e-19
5.6558e-18
2.20448e-16
7.06294e-15
1.77536e-13
2.58297e-12
1.6742e-11
4.9745e-11
9.49018e-11
4.9062e-11
9.633e-09
0.0117391
0.981886
1
1
1
1
1
0.982713
0.124148
6.41737e-05
3.2743e-05
3.78746e-06
3.53133e-09
3.9198e-11
4.19421e-14
2.1841e-22
3.6169e-22
2.68299e-22
1.49774e-21
1.04675e-19
5.81254e-18
2.62339e-16
1.01987e-14
2.79779e-13
3.9683e-12
2.46537e-11
7.1843e-11
1.32619e-10
3.12662e-10
5.19151e-10
-2.24373e-05
0.974063
1
1
1
1
1
0.646548
0.000294151
9.16327e-06
1.49562e-06
6.4689e-06
1.97631e-10
2.98189e-11
7.94209e-14
2.27451e-23
3.7383e-23
3.38994e-23
1.25922e-21
1.04709e-19
6.60186e-18
3.61545e-16
1.60007e-14
4.40189e-13
5.89022e-12
3.50217e-11
1.02686e-10
1.86443e-10
4.4306e-10
3.93563e-10
-1.21502e-06
0.929612
1
1
1
1
0.991255
0.0532839
2.05535e-05
6.77693e-07
1.53624e-05
2.85162e-05
2.01704e-09
5.33487e-11
1.6786e-13
1.79832e-24
2.94737e-24
9.97436e-24
1.2093e-21
1.13722e-19
8.53905e-18
5.44399e-16
2.49944e-14
6.56337e-13
8.24485e-12
4.69969e-11
1.3684e-10
2.134e-10
5.65629e-10
7.75781e-10
-4.4435e-09
0.751421
1
1
1
0.999954
0.491645
0.000117176
8.12782e-07
2.83864e-07
0.000321796
3.40072e-06
3.75579e-07
2.89998e-11
1.59902e-13
1.01001e-25
1.81156e-25
7.57873e-24
1.24502e-21
1.36801e-19
1.20033e-17
8.19595e-16
3.67136e-14
9.0704e-13
1.08975e-11
5.99358e-11
1.64719e-10
2.05969e-10
1.17338e-07
8.68422e-10
3.23913e-06
0.594512
0.999999
1
1
0.687448
0.000351179
3.11808e-06
7.32671e-06
1.11194e-06
0.000310084
4.01108e-06
1.75653e-06
3.20315e-11
6.35547e-14
3.65696e-27
2.12812e-26
7.0888e-24
1.37305e-21
1.75642e-19
1.69134e-17
1.15988e-15
4.95316e-14
1.17174e-12
1.41364e-11
7.62827e-11
1.90064e-10
1.43332e-09
1.84863e-09
6.47991e-09
5.84857e-06
0.445325
0.999991
1
1.00003
0.0192619
1.8466e-05
1.85122e-07
1.66957e-06
9.96326e-06
1.73916e-06
0.000464443
8.22145e-10
3.08426e-11
1.24862e-14
8.5706e-29
1.26233e-26
6.91868e-24
1.57545e-21
2.25553e-19
2.24997e-17
1.50499e-15
6.21651e-14
1.49858e-12
1.95794e-11
1.04357e-10
2.34286e-10
2.73257e-10
3.81738e-10
1.02524e-05
2.74278e-05
0.229733
0.999975
0.999999
0.676977
5.38703e-05
1.61797e-07
9.79275e-09
1.25364e-05
6.87155e-06
4.50734e-05
3.84861e-05
7.16337e-11
4.14367e-12
1.79763e-15
2.95824e-29
9.93098e-27
6.8177e-24
1.79645e-21
2.75637e-19
2.76485e-17
1.82757e-15
7.84505e-14
2.14024e-12
3.14824e-11
1.54845e-10
3.03757e-10
5.38186e-10
3.2567e-10
4.51825e-06
1.08832e-05
0.0697661
0.999897
0.999992
0.14577
9.94471e-07
5.61735e-09
4.23896e-09
5.78868e-06
2.97587e-09
2.73163e-05
1.3694e-06
3.84494e-11
5.55276e-13
1.65112e-16
8.66087e-29
7.57464e-27
6.58207e-24
1.97028e-21
3.17322e-19
3.26691e-17
2.32865e-15
1.17823e-13
3.80327e-12
5.91723e-11
2.20329e-10
3.35264e-10
1.46621e-09
7.13404e-06
7.69172e-07
7.57421e-06
9.89102e-06
0.989788
0.999596
0.00109958
3.49351e-06
1.95699e-09
8.63154e-10
2.47862e-09
2.69785e-10
2.36507e-07
2.4247e-07
2.9451e-11
5.06753e-14
1.06759e-17
4.23611e-28
5.36961e-27
6.13427e-24
2.10811e-21
3.72091e-19
4.43768e-17
3.93153e-15
2.39604e-13
8.2713e-12
1.22382e-10
2.58699e-10
2.67109e-09
7.34633e-08
8.61615e-06
9.67026e-05
1.02565e-05
1.05574e-05
0.851956
0.276689
4.68405e-06
1.57873e-05
4.91423e-10
4.08621e-10
3.88338e-10
1.05529e-10
4.11679e-09
8.86692e-11
4.50838e-12
3.21134e-15
5.01046e-19
2.82523e-27
3.44328e-27
5.77644e-24
2.5589e-21
5.84612e-19
9.24216e-17
9.80406e-15
6.18039e-13
2.03986e-11
2.49729e-10
4.9808e-10
2.35166e-07
8.40957e-05
5.97948e-05
0.000122321
1.22018e-05
0.000695316
0.0330637
8.54683e-07
2.83354e-07
2.45937e-08
3.02034e-10
1.93841e-10
2.28419e-10
2.49614e-11
7.05822e-11
7.31295e-11
2.79609e-13
1.36348e-16
1.73696e-20
1.853e-26
2.03642e-27
7.03088e-24
5.12115e-21
1.6359e-18
2.97464e-16
3.14555e-14
1.82742e-12
5.3675e-11
3.74205e-10
3.4555e-09
0.000167002
0.00021594
3.42878e-05
0.000122321
2.09189e-05
7.5668e-05
1.09296e-10
1.09638e-08
3.08917e-06
7.93546e-11
1.79515e-10
7.49003e-11
8.48464e-11
6.37321e-12
1.475e-12
7.84425e-12
1.07715e-14
4.04312e-18
4.58268e-22
8.99569e-26
1.46768e-27
1.76228e-23
1.93946e-20
7.03198e-18
1.23177e-15
1.18518e-13
5.97846e-12
1.41891e-10
1.01595e-09
3.10823e-07
0.000218195
0.000211287
2.85816e-05
2.85104e-05
2.63562e-05
1.69367e-05
7.82435e-11
2.05759e-08
2.93079e-11
5.50022e-11
8.06459e-11
2.17026e-11
1.7535e-11
1.03009e-12
1.23883e-13
2.9089e-13
2.71373e-16
8.67668e-20
1.00114e-23
2.30438e-25
2.81841e-27
8.77049e-23
9.45471e-20
3.04433e-17
4.53807e-15
3.54084e-13
1.41676e-11
2.96865e-10
9.06787e-10
1.60545e-07
0.000220534
0.00021315
0.000210468
0.000197699
2.0126e-05
1.37166e-11
6.61513e-11
8.98944e-11
2.06543e-11
1.32143e-11
2.13157e-11
4.51035e-12
2.18151e-12
1.00118e-13
9.50881e-15
6.42723e-15
4.67143e-18
1.49002e-21
2.04336e-25
1.91457e-25
1.28744e-26
2.14759e-22
1.66545e-19
4.45465e-17
5.73009e-15
3.92488e-13
1.41118e-11
2.86404e-10
8.18245e-10
8.89959e-08
0.000104364
1.08839e-05
7.63366e-06
6.79465e-07
2.25323e-09
1.14282e-11
1.6354e-11
2.07431e-11
1.91841e-12
1.80529e-12
3.00647e-12
6.10073e-13
1.74737e-13
6.38412e-15
5.39146e-16
8.84017e-17
6.2621e-20
2.37299e-23
3.85652e-27
2.1911e-26
1.57504e-26
8.45982e-23
5.43948e-20
1.29323e-17
1.50742e-15
9.66613e-14
3.59655e-12
8.21455e-11
2.29671e-10
1.89799e-09
4.77257e-05
3.98169e-05
6.37571e-05
0.000547424
0.000159815
6.15529e-11
7.26519e-13
9.53684e-13
3.74825e-14
1.36976e-13
2.31567e-13
4.9618e-14
9.40811e-15
2.89307e-16
2.06672e-17
9.03664e-19
7.8115e-22
3.49491e-25
5.90324e-29
9.81869e-29
8.05192e-28
3.04876e-24
1.90015e-21
4.62249e-19
5.67966e-17
3.92828e-15
1.58926e-13
3.70335e-12
4.55633e-11
1.31916e-10
6.72715e-10
9.69702e-06
0.000138218
0.000547424
0.000190839
4.68904e-11
8.12893e-15
8.74963e-15
1.01545e-15
5.69728e-15
9.95056e-15
2.34337e-15
3.40786e-16
9.57297e-18
5.17966e-19
8.62566e-21
9.06653e-24
4.17143e-27
6.65183e-31
4.77983e-33
8.09025e-31
3.07085e-27
2.37009e-24
7.56927e-22
1.26972e-19
1.24903e-17
7.6041e-16
2.94347e-14
7.32668e-13
1.16784e-11
1.10048e-10
1.87139e-10
1.91078e-09
1.65914e-06
7.05725e-12
8.64906e-11
2.07137e-17
2.25655e-17
1.87196e-17
1.27258e-16
2.37505e-16
6.19833e-17
7.96606e-18
2.23271e-19
8.56008e-21
7.84853e-23
8.52201e-26
3.66948e-29
5.22692e-33
3.05869e-43
4.21722e-37
2.20004e-33
2.76084e-30
1.52425e-27
4.63309e-25
8.67281e-23
1.06303e-20
8.84689e-19
5.10686e-17
2.08773e-15
6.26714e-14
1.51399e-12
3.18164e-11
5.69179e-11
7.7343e-12
1.77662e-14
7.69645e-21
2.06247e-20
1.80919e-19
1.48752e-18
3.10217e-18
9.02891e-19
1.1405e-19
3.44727e-21
9.47762e-23
5.83859e-25
5.90368e-28
2.2618e-31
2.74312e-35
4.45175e-52
4.8613e-49
5.78736e-46
1.95114e-43
3.10307e-41
2.85741e-39
1.69656e-37
6.91453e-36
2.01378e-34
4.30114e-33
6.88507e-32
8.44149e-31
8.17392e-30
6.55997e-29
4.72538e-28
3.82487e-27
4.80226e-26
1.09711e-24
3.60155e-23
8.28093e-22
8.76109e-21
2.1646e-20
7.17602e-21
9.61124e-22
3.33216e-23
7.00553e-25
3.18833e-27
2.8715e-30
9.40377e-34
9.24631e-38
6.98792e-62
3.60122e-58
6.28717e-55
3.47212e-52
9.45297e-50
1.53783e-47
1.6634e-45
1.2783e-43
7.31229e-42
3.22229e-40
1.12989e-38
3.26654e-37
8.18583e-36
1.92671e-34
4.89533e-33
1.74122e-31
1.06032e-29
8.12389e-28
4.82141e-26
1.65478e-24
2.46699e-23
7.86799e-23
3.09806e-23
4.66142e-24
1.94648e-25
3.3876e-27
1.21237e-29
9.50409e-33
2.56294e-36
1.94005e-40
8.68695e-71
2.31047e-66
6.80478e-63
6.96398e-60
3.64092e-57
1.16045e-54
2.49471e-52
3.85843e-50
4.50077e-48
4.10719e-46
3.04013e-44
1.8994e-42
1.05631e-40
5.64881e-39
3.25519e-37
2.34986e-35
2.3009e-33
2.58582e-31
2.38519e-29
1.32481e-27
3.1357e-26
1.46116e-25
7.28445e-26
1.29061e-26
6.76785e-28
1.05132e-29
3.11826e-32
2.10367e-35
4.49897e-39
2.46583e-43
3.34468e-80
1.49168e-75
8.14556e-72
1.65741e-68
1.76739e-65
1.16491e-62
5.23467e-60
1.71138e-57
4.27684e-55
8.49975e-53
1.39691e-50
1.97864e-48
2.54199e-46
3.1669e-44
4.16616e-42
6.34558e-40
1.16185e-37
2.29582e-35
3.80717e-33
3.92247e-31
1.71533e-29
1.38094e-28
9.50814e-29
2.05813e-29
1.40915e-30
2.09003e-32
5.38767e-35
3.11608e-38
5.05187e-42
1.84141e-46
4.66127e-92
3.94306e-87
5.23897e-83
2.73993e-79
7.68779e-76
1.35227e-72
1.639e-69
1.45865e-66
1.00112e-63
5.51325e-61
2.53372e-58
1.01203e-55
3.68656e-53
1.29909e-50
4.73972e-48
1.90947e-45
8.64517e-43
4.0294e-40
1.57054e-37
3.8528e-35
3.95684e-33
6.84098e-32
7.23844e-32
1.95569e-32
1.80824e-33
2.71742e-35
6.35747e-38
3.14644e-41
3.62206e-45
7.65476e-50
1.79639e-110
6.46392e-105
4.2603e-100
1.15087e-95
1.70847e-91
1.62028e-87
1.07593e-83
5.3204e-80
2.05499e-76
6.44439e-73
1.70459e-69
3.9523e-66
8.39042e-63
1.71445e-59
3.55621e-56
7.84593e-53
1.85794e-49
4.37451e-46
8.34383e-43
9.27879e-40
3.76423e-37
1.93647e-35
3.46155e-35
1.2086e-35
1.51447e-36
2.4229e-38
5.34131e-41
2.24748e-44
1.65015e-48
1.56608e-53
1
1
1
1
1
1
1
1
1
1
1
1
1
1
1
1
1
1
1
1
1
1
1
1
1
1
1
1
1
1
1
1
1
1
1
1
1
1
1
1
1
1
1
1
1
1
1
1
1
1
1
1
1
1
1
1
1
1
1
1
1
1
1
1
1
1
1
1
1
1
1
1
1
1
1
1
1
1
1
1
1
1
1
1
1
1
1
1
1
1
1
1
1
1
1
1
1
1
1
1
1
1
1
1
1
1
1
1
1
1
1
1
1
1
1
1
1
1
1
1
1
1
1
1
1
1
1
1
1
1
1
1
1
1
1
1
1
1
1
1
1
1
1
1
1
1
1
1
1
1
1
1
1
1
1
1
1
1
1
1
1
1
1
1
1
1
1
1
1
1
1
1
1
1
1
1
1
1
1
1
1
1
1
1
1
1
1
1
1
1
1
1
1
1
1
1
1
1
1
1
1
1
1
1
1
1
1
1
1
1
1
1
1
1
1
1
1
1
1
1
1
1
1
1
1
1
1
1
1
1
1
1
1
1
1
1
1
1
1
1
1
1
1
1
1
1
1
1
1
1
1
1
1
1
1
1
1
1
1
1
1
1
1
1
1
1
1
1
1
1
1
1
1
1
1
1
1
1
1
1
1
1
1
1
1
1
1
1
1
1
1
1
1
1
1
1
1
1
1
1
1
1
1
1
1
1
1
1
1
1
1
1
1
1
1
1
1
1
1
1
1
1
1
1
1
1
1
1
1
1
1
1
1
1
1
1
1
1
1
1
1
1
1
1
1
1
1
1
1
1
1
1
1
1
1
1
1
1
1
1
1
1
1
1
1
1
1
1
1
1
1
1
1
1
1
1
1
1
1
1
1
1
1
1
1
1
1
1
1
1
1
1
1
1
1
1
1
1
1
1
1
1
1
1
1
1
1
1
1
1
1
1
1
0.978617
0.744902
0.453666
0.275128
0.174294
0.12796
0.117233
1
1
1
1
1
1
1
1
1
1
1
1
1
1
1
1
1
1
1
1
1
0.999999
0.541213
0.000461167
2.68625e-05
0.000109759
9.1575e-05
0.000111845
0.000171767
0.000165779
1
1
1
1
1
1
1
1
1
1
1
1
1
1
1
1
1
1
1
1
1
0.172507
1.11368e-05
3.0025e-06
1.00948e-05
1.52828e-05
1.83419e-06
2.41171e-06
7.5748e-06
1.80308e-05
1
1
1
1
1
1
1
1
1
1
1
1
1
1
1
1
1
1
1
1
0.10957
1.85162e-06
3.00913e-07
1.90362e-05
5.24343e-05
3.57659e-06
5.52025e-08