/*--------------------------------*- C++ -*----------------------------------*\
| =========                 |                                                 |
| \\      /  F ield         | OpenFOAM: The Open Source CFD Toolbox           |
|  \\    /   O peration     | Version:  2.4.0                                 |
|   \\  /    A nd           | Web:      www.OpenFOAM.org                      |
|    \\/     M anipulation  |                                                 |
\*---------------------------------------------------------------------------*/
FoamFile
{
    version     2.0;
    format      ascii;
    class       volScalarField;
    location    "1.7";
    object      alpha.water;
}
// * * * * * * * * * * * * * * * * * * * * * * * * * * * * * * * * * * * * * //

dimensions      [0 0 0 0 0 0 0];

internalField   nonuniform List<scalar> 
2400
(
1
1
1
0.999999
0.999999
0.999999
1
1
1
1
1
1
1
1
1
1
1
1
1
0.99835
1
0.999999
0.999998
1
1
1
1
1
1
1
1
1
1
1
1
1
1
1
1
0.902887
0.999999
0.999998
0.999998
0.999999
1
1
1
1
1
1
1
1
1
1
1
1
1
1
1
0.7965
0.999998
0.999998
0.999998
0.999998
1
1
1
1
1
1
1
1
1
1
1
1
1
1
0.971492
0.851357
0.999998
0.999998
0.999998
0.999998
0.999999
1
1
1
1
1
1
1
1
1
1
1
1
0.997659
0.924964
0.892539
0.999999
0.999999
0.999998
0.999998
1
1
1
1
1
1
1
1
1
1
1
1
0.9995
0.987096
0.899386
0.748938
0.999999
0.999998
0.999998
0.999999
1
1
1
1
1
1
1
1
1
1
1
1
1
0.960956
0.878355
0.780572
0.999999
0.999998
0.999998
1
1
1
1
1
1
1
1
1
1
1
1
1
0.993049
0.930551
0.882458
0.917335
0.999998
0.999998
0.999998
1
1
1
1
1
1
1
1
1
1
1
1
0.996292
0.939167
0.929732
0.973939
0.971448
0.999998
0.999998
0.999998
0.999999
1
1
1
1
1
1
1
1
1
1
0.998911
0.97341
0.971306
0.993634
0.992026
0.702949
0.999998
0.999998
0.999998
0.999999
1
1
1
1
1
1
1
1
1
1
0.996635
0.992767
0.997811
0.997717
0.951496
0.268297
0.999999
0.999998
1
1
1
1
1
1
1
1
1
1
1
0.999682
0.999699
0.999731
0.999691
0.999093
0.570111
0.0513273
1
1
1
1
0.999999
0.999999
1
1
1
1
1
1
1
0.999999
0.999998
0.999985
0.999509
0.812568
0.151366
0.00596624
1
1
1
0.999999
0.999999
0.999999
0.999999
1
1
1
1
1
1
1
1
0.999616
0.915294
0.274482
0.00599186
0.00112348
1
1
1
0.999999
0.999999
0.999999
0.999999
1
1
1
1
1
1
1
0.999866
0.974967
0.374886
0.00784753
0.0011538
0.000283287
1
1
1
1
0.999999
0.999999
1
1
1
1
1
1
1
0.999986
0.998776
0.44987
0.0131542
0.00132556
0.000316339
6.68115e-05
1
1
1
1
1
1
1
1
1
1
1
1
1
0.999837
0.662992
0.0451762
0.00183469
0.000268895
7.65849e-05
1.44769e-05
1
1
1
1
1
0.999999
0.999999
1
1
1
1
1
0.99991
0.98312
0.211329
0.00308421
0.000283446
6.33136e-05
1.53545e-05
3.60613e-06
1
1
1
1
1
0.999998
0.999998
0.999998
0.999998
1
0.999995
0.999939
0.999218
0.538395
0.0155548
0.000325002
2.37712e-05
7.76966e-06
3.85762e-06
9.59936e-07
1
1
1
0.999999
0.999996
0.999986
0.999981
0.999949
0.999751
0.999995
0.999987
0.999435
0.992683
0.246038
0.00113337
-1.01028e-08
1.9165e-06
1.84238e-06
1.0132e-06
4.19181e-07
0.805053
0.751681
0.751681
0.751693
0.751827
0.763931
0.84036
0.841153
0.820159
0.820159
0.820474
0.820996
0.914776
0.933064
0.929748
0.960849
0.979714
0.981888
0.983977
0.991749
0.751679
0.751679
0.751685
0.757893
0.841079
0.861134
0.840209
0.842258
0.883408
0.931994
0.942169
0.952167
0.985018
0.985112
0.98374
0.983472
0.981144
0.990399
0.990925
0.991415
0.751978
0.751673
0.813289
0.980579
0.983399
0.98365
0.983921
0.984213
0.984495
0.984707
0.984828
0.984909
0.985096
0.985458
0.985803
0.985925
0.985962
0.986051
0.990689
0.990925
0.896009
0.950574
0.962124
0.963232
0.967805
0.973697
0.981648
0.983921
0.984213
0.984499
0.984708
0.984829
0.984915
0.985112
0.985464
0.985803
0.982788
0.963977
0.850568
0.800196
0.884983
0.828062
0.741842
0.629581
0.514872
0.513899
0.57823
0.681231
0.762364
0.833932
0.89859
0.89966
0.869453
0.856496
0.803583
0.706098
0.808312
0.546072
0.328901
0.420871
0.622228
0.509078
0.370884
0.21373
0.101623
0.0561999
0.0432293
0.0374959
0.0298112
0.0562445
0.186473
0.216088
0.1771
0.159516
0.158431
0.204959
0.268764
0.174373
0.0102637
0.0777877
0.682967
0.401387
0.0662809
0.0334923
0.0189239
0.00937441
0.00238541
0.000991966
0.000489834
0.000960895
0.00108592
0.000984108
0.000176487
5.04464e-05
0.000100569
0.0356605
0.0291034
0.00854716
0.00602984
0.00936062
0.898944
0.630536
0.11408
0.0187061
0.00612939
0.00260216
0.000747406
0.000216089
0.000232485
0.000430503
0.000434903
0.000228247
5.09227e-05
2.76078e-05
5.19551e-05
0.000204298
0.0155368
0.00553501
0.0051135
0.00606514
0.837332
0.509427
0.0414335
0.0060289
0.00142284
0.000336129
0.000122864
7.74873e-05
0.000100144
0.000166786
0.000221807
0.000115456
2.81277e-05
2.32671e-05
2.71701e-05
0.00146513
0.0079958
0.00520389
0.00501412
0.00510792
0.195955
0.0219673
0.00844423
0.00149663
0.000340532
0.000165572
7.51146e-05
2.95363e-05
3.77966e-05
6.84686e-05
0.000125292
0.000181243
0.000110448
2.2076e-05
2.27948e-05
0.000478087
0.00294846
0.00381697
0.00432799
0.00501024
0.0229388
0.00630629
0.00163884
0.000284602
3.82195e-05
1.01582e-05
1.00337e-05
9.66852e-06
1.35611e-05
2.20185e-05
4.03381e-05
9.16971e-05
0.000115465
2.20701e-05
2.20375e-05
5.21794e-05
0.00146875
0.00316306
0.00336037
0.00461781
0.00599941
0.00180981
0.00034693
4.1218e-05
7.91868e-06
5.45305e-06
5.84847e-06
7.40173e-06
9.7499e-06
1.36863e-05
2.14788e-05
3.49489e-05
5.90185e-05
2.2076e-05
2.21872e-05
3.75443e-05
0.000301546
0.00104899
0.00208399
0.00396133
0.00110225
0.000406775
6.96931e-05
9.97714e-06
5.21455e-06
5.13148e-06
5.49323e-06
5.88149e-06
3.69194e-05
5.68568e-05
6.22303e-05
6.35613e-05
6.04438e-05
3.17668e-05
3.51326e-05
4.91935e-05
0.000108178
0.000394241
0.00128237
0.00385984
0.000276195
7.52854e-05
1.53961e-05
4.32264e-06
4.61224e-06
4.87474e-06
5.1114e-06
6.02296e-05
6.56764e-05
6.47295e-05
6.37825e-05
6.38022e-05
6.35285e-05
6.04854e-05
4.97532e-05
5.42227e-05
9.10664e-05
0.000271312
0.000928257
0.00332975
5.66561e-05
1.83611e-05
4.3147e-06
2.09031e-06
3.66635e-06
7.19603e-06
6.23619e-05
6.56764e-05
6.56764e-05
6.56764e-05
4.54382e-05
1.80261e-05
2.55211e-05
6.33598e-05
9.95179e-05
0.000123168
0.000137703
0.000296197
0.00137613
0.0046129
1.43488e-05
4.59394e-06
1.36409e-06
1.20634e-06
2.75337e-06
3.63416e-05
6.56709e-05
6.56737e-05
6.56764e-05
1.67211e-05
2.15938e-06
8.48129e-07
1.87629e-06
2.58611e-05
6.18946e-05
9.62325e-05
0.000134123
0.00032199
0.00158293
0.0039651
3.52794e-06
1.12866e-06
4.97216e-07
6.73951e-07
1.83247e-06
4.68314e-05
6.55164e-05
6.57145e-05
2.92758e-05
3.16143e-07
1.65275e-07
1.9107e-07
4.73099e-07
1.52042e-06
6.08417e-06
2.03926e-05
5.11242e-05
0.00011521
0.000210212
0.000469068
1.02509e-06
4.19052e-07
3.21531e-07
3.96154e-07
8.43104e-07
1.98502e-05
5.87289e-05
6.39677e-05
9.26226e-06
5.72906e-08
3.28552e-08
4.34798e-08
1.12734e-07
3.4557e-07
9.87457e-07
2.48857e-06
6.14828e-06
1.77776e-05
4.54706e-05
0.000175289
4.244e-07
3.00035e-07
2.78083e-07
3.10955e-07
5.19529e-07
1.31253e-06
1.47982e-05
3.57955e-05
1.32918e-05
1.50289e-08
6.7344e-09
8.95902e-09
2.34242e-08
8.0176e-08
3.26484e-07
9.91009e-07
2.46814e-06
5.59929e-06
1.71644e-05
5.87542e-05
2.99841e-07
2.7846e-07
2.7846e-07
2.7846e-07
3.79301e-07
5.9781e-07
1.73852e-06
3.82018e-06
3.92035e-06
6.73426e-09
1.91216e-09
1.61707e-09
2.39097e-09
6.1793e-09
8.82892e-08
6.22821e-07
1.02055e-06
2.46754e-06
5.57424e-06
1.08663e-05
0.99444
0.99999
1
1
1
1
1
1
1
1
1
1
1
1
0.999999
0.999999
0.999999
0.999999
0.999999
0.999999
0.927921
0.809334
0.988084
1
1
1
1
1
1
1
1
1
1
1
0.999999
0.999999
0.999999
0.999999
0.999999
0.999999
0.670734
0.574066
0.65757
0.999937
0.996188
1
1
1
1
1
1
1
1
1
1
0.999999
0.999998
0.999997
0.999996
0.999998
0.661772
0.574066
0.574066
0.690202
0.985032
1
1
1
1
1
1
1
1
0.999999
0.999999
0.999998
0.999996
0.999996
0.999996
0.999996
0.55743
0.612801
0.58031
0.743489
0.996757
1
1
1
1
1
1
1
0.999999
0.999999
0.999999
0.999998
0.999996
0.999996
0.999996
0.999998
0.510199
0.850855
0.852984
0.986961
0.999402
1
1
1
1
1
1
1
0.999999
0.999999
1
1
0.999997
0.999996
0.999997
0.999999
0.125166
0.776518
0.992196
0.999967
1
1
1
1
1
1
1
1
1
1
1
1
0.999997
0.999996
0.999999
0.999999
0.0116958
0.396875
0.975336
0.999998
1
1
1
1
1
1
1
1
1
1
1
0.999998
0.999996
0.999996
0.999998
0.999999
0.00692719
0.15472
0.824914
1
1
1
1
1
1
1
1
1
1
1
0.999999
0.999996
0.999996
0.999996
0.999996
0.999998
0.00692749
0.0606277
0.667619
1
1
1
1
1
1
1
1
1
1
1
0.999999
0.999997
0.999997
0.999996
0.999996
0.999997
0.00790477
0.0324493
0.56554
1
1
1
1
1
1
1
1
1
0.999999
0.999999
0.999999
1
1
0.999998
0.999997
1
0.00958098
0.100616
0.688192
1
1
1
1
1
1
1
1
1
0.999999
0.999999
0.999999
1
1
1
1
1
0.0125208
0.250141
0.88675
0.999996
1
1
1
1
1
1
1
1
1
1
1
1
1
1
1
1
0.0123174
0.281933
0.883201
0.999822
0.999996
1
1
1
1
1
1
1
1
1
1
1
1
1
1
1
0.00988302
0.0338625
0.424312
0.959537
0.999848
0.999999
1
1
1
1
1
1
1
1
1
1
1
1
1
0.999999
0.00558423
0.00685473
0.0464911
0.548058
0.997745
0.999864
0.999995
1
1
1
1
1
1
1
1
0.999999
1
1
1
0.999999
0.00150643
0.00272068
0.00594416
0.102703
0.711108
0.998414
0.999938
0.999993
1
1
1
1
1
1
0.999999
0.999999
0.999999
1
1
0.999999
0.000404717
0.00105952
0.00177803
0.00557455
0.176661
0.837274
0.998805
0.999919
0.999985
0.999998
1
1
1
1
0.999999
1
1
1
0.999999
0.999999
0.000134058
0.000300358
0.00146052
0.000793451
0.00541841
0.233397
0.93814
0.998799
0.99983
0.999977
0.999998
1
1
0.999999
0.999999
0.999999
1
1
0.999999
0.999999
1.42594e-05
4.06127e-05
0.000242787
6.91182e-06
0.000601467
0.00838699
0.466861
0.969445
0.998036
0.99978
0.999986
0.999998
0.999999
0.999996
0.999996
0.999998
0.999999
1
0.999999
0.999999
0.999999
0.999999
0.999996
0.999986
0.999967
0.999869
0.997871
0.997365
0.998813
0.999955
0.999689
0.941948
0.564492
0.0304166
1.18147e-06
2.979e-06
2.08459e-06
1.73124e-06
1.37133e-06
1.32801e-06
0.999995
0.999993
0.999972
0.999615
0.992086
0.945071
0.975676
0.994023
0.99895
0.999687
0.852115
0.229639
2.34512e-05
1.08931e-05
8.22988e-06
9.02199e-06
2.33663e-05
2.56295e-05
1.64034e-05
1.05614e-06
0.999861
0.999516
0.963678
0.803368
0.732924
0.836717
0.973773
0.994213
0.99813
0.799838
0.143666
7.42098e-05
5.9989e-06
7.25335e-06
1.82574e-05
4.82245e-05
3.97292e-05
1.21424e-05
1.58095e-07
5.91808e-07
0.726692
0.658044
0.54195
0.529268
0.619007
0.90092
0.969049
0.918708
0.645895
0.1201
7.39122e-05
5.1624e-06
1.20632e-06
6.29034e-06
2.98476e-05
1.82822e-05
5.13511e-06
2.9894e-09
1.93889e-09
8.00351e-09
0.168731
0.168731
0.374906
0.612127
0.849702
0.831859
0.601938
0.292339
0.0153302
2.07514e-05
5.9119e-06
6.0145e-07
-1.15772e-07
2.4814e-06
2.18145e-06
1.80104e-09
2.91973e-09
3.97728e-09
1.9331e-09
5.47578e-10
0.168731
0.511848
0.867318
0.835812
0.488634
0.207147
9.2625e-07
1.14898e-06
2.17879e-06
1.68128e-06
4.97748e-07
-5.90534e-08
4.44071e-09
2.0523e-09
1.70528e-09
1.78115e-09
4.05861e-09
4.25729e-09
1.11256e-09
9.33106e-11
0.318224
0.838087
0.812144
0.117403
3.76401e-07
4.95374e-07
8.13605e-07
8.90656e-07
2.69737e-06
1.35479e-07
3.395e-08
4.82651e-09
2.39762e-09
2.12941e-09
1.664e-09
9.1284e-10
3.95789e-10
2.70507e-10
2.65835e-10
2.65517e-10
0.397356
0.838157
0.449047
3.69136e-07
3.69143e-07
3.85285e-07
1.65181e-06
9.0476e-07
1.52437e-07
4.87423e-08
3.64107e-08
2.49061e-08
4.83264e-09
2.56079e-09
2.04497e-09
1.28271e-09
5.58229e-10
3.06669e-10
2.66466e-10
3.93896e-10
0.397658
0.793261
0.0924646
3.61084e-07
3.65206e-07
3.68851e-07
8.64839e-07
2.62689e-07
2.37161e-07
1.35652e-07
1.6331e-07
3.20153e-08
3.30499e-08
2.59295e-08
1.62797e-08
6.74027e-09
1.39105e-09
2.86983e-09
1.84152e-10
3.85466e-10
0.471697
0.320164
0.0287296
3.52112e-07
3.66797e-07
3.69134e-07
3.46652e-07
2.53002e-07
1.95615e-07
3.07057e-05
0.000109514
0.000145216
0.00011763
3.39721e-05
6.9876e-06
8.25085e-06
2.58922e-06
2.56039e-07
1.72198e-08
8.66811e-10
0.400053
1.66713e-05
0.00020718
4.39271e-07
3.68893e-07
3.87273e-07
4.41504e-07
7.4356e-06
6.42084e-06
0.000342409
0.000773645
0.000825219
0.000868555
0.000889747
0.000836867
0.000907089
0.000704508
0.000223848
1.2785e-05
7.90572e-07
0.234972
1.03441e-05
2.94828e-06
1.55654e-06
4.10516e-07
2.94205e-06
0.000278641
0.000534068
0.00053478
0.000483057
4.98857e-05
0.000304127
0.000644769
0.00101488
0.00145415
0.00147437
0.00147317
0.00138428
0.000581468
8.91582e-06
0.183015
1.70241e-05
1.03904e-05
2.94828e-06
7.06042e-05
0.0003351
0.0003351
0.000312881
4.85365e-05
4.57964e-05
4.62018e-05
4.5958e-05
4.64918e-05
4.9704e-05
0.000153011
0.00118583
0.0014741
0.00147262
0.00121987
7.95768e-06
0.207422
1.70704e-05
1.76631e-05
2.20035e-05
0.000275092
0.000332161
0.0003351
0.000120413
5.04323e-05
9.13621e-05
4.59702e-05
4.62292e-05
4.94815e-05
0.000129434
0.00042407
0.00118714
0.00147262
0.00139102
0.00041149
1.09928e-11
0.249695
1.76482e-05
1.78863e-05
2.25195e-05
0.000216851
0.00024077
0.000137517
0.000127867
0.00025804
0.00053978
4.11895e-05
4.72563e-05
0.000123288
0.000581424
0.00107047
0.00112933
0.000971656
3.48419e-05
1.52387e-13
1.0699e-11
0.254262
0.000860384
1.88849e-05
2.13731e-05
4.23455e-05
0.000109839
0.000113017
0.000148085
0.000641629
0.000572355
3.0654e-05
4.17225e-05
0.000310494
0.000525736
0.000278855
6.66928e-05
-9.47476e-13
-3.00507e-12
5.39459e-15
1.33581e-11
0.194044
0.00227451
2.01957e-05
2.11401e-05
2.23177e-05
0.000597489
0.00108951
0.000381438
0.00112601
0.000367703
4.56687e-06
6.20039e-05
0.000102211
4.26304e-06
-1.98561e-12
-5.15585e-12
-6.93006e-12
-1.03079e-11
-9.12735e-12
-1.97924e-13
0.0236975
0.000960717
2.08312e-05
2.08312e-05
9.03392e-05
0.00126281
0.00126228
0.00125684
0.000841063
4.22106e-07
9.42953e-07
7.97218e-05
-6.61421e-13
-7.74217e-12
-1.24563e-11
-9.70726e-12
-4.83344e-12
-6.99243e-12
-6.82833e-12
-1.57882e-13
0.00494523
2.32704e-05
2.08307e-05
3.7524e-05
0.000779415
0.00126281
0.00126281
0.000573595
8.76663e-15
2.63555e-14
3.80784e-07
8.14829e-05
-8.83716e-13
-1.10279e-11
-1.73753e-11
-1.09938e-11
-7.85939e-13
-1.86384e-13
-3.93094e-14
-3.69625e-14
0.00228428
3.02063e-05
2.3336e-05
0.000156311
0.00119993
0.00122273
4.26906e-05
-6.22749e-10
-2.43504e-10
-3.36719e-11
1.65592e-07
7.8163e-05
-1.28612e-13
-6.48283e-12
-1.09064e-11
-6.00511e-12
-7.4304e-15
-1.20967e-17
-6.04485e-18
-1.58914e-17
2.33798e-06
2.83593e-07
2.7846e-07
6.94887e-07
1.03522e-06
8.41648e-07
1.14586e-06
3.21869e-06
3.43805e-08
2.97451e-08
1.57865e-09
1.14055e-09
1.32668e-09
2.33848e-09
1.11591e-09
6.06865e-06
1.02732e-05
7.85326e-06
8.05691e-06
5.50572e-06
1.48976e-05
1.48767e-05
2.08884e-06
4.8897e-07
1.07442e-06
1.15623e-06
9.468e-07
4.33227e-07
5.66519e-08
2.92245e-08
9.47083e-09
8.88146e-10
7.00686e-10
5.89246e-10
5.42853e-10
2.97023e-06
1.0715e-05
1.0729e-05
1.0715e-05
8.11847e-06
1.215e-05
1.64261e-05
1.072e-05
4.77414e-07
4.29839e-07
1.17419e-06
1.17092e-06
3.38009e-07
6.34391e-08
7.26445e-08
1.03393e-07
1.33402e-08
5.88532e-10
5.42871e-10
5.37114e-10
3.78681e-07
1.91421e-06
1.43945e-06
4.83775e-07
1.15491e-07
1.34895e-07
4.55354e-06
1.98063e-06
5.93254e-08
3.84055e-09
1.16774e-06
8.46355e-07
2.25436e-07
1.876e-07
1.18582e-06
3.94639e-07
1.85965e-09
6.38995e-10
5.37177e-10
5.36901e-10
5.12068e-10
3.41716e-10
1.65291e-10
6.4143e-11
4.19025e-11
1.49439e-09
2.56251e-10
4.18971e-10
2.7011e-08
3.39101e-09
1.53669e-07
3.3538e-07
6.31415e-07
2.33989e-06
2.34144e-06
4.13123e-07
1.64892e-09
6.15151e-10
5.36922e-10
5.369e-10
1.98159e-09
9.58168e-09
9.61676e-09
5.63871e-09
2.6956e-10
9.55765e-11
1.09447e-10
2.88549e-10
4.18967e-10
5.34993e-10
8.10656e-08
1.44418e-06
2.34356e-06
2.3474e-06
2.34709e-06
1.22263e-06
1.23672e-08
1.80152e-09
6.15207e-10
5.36939e-10
5.03427e-10
1.13786e-09
4.49551e-10
3.37464e-11
2.60832e-11
3.30743e-10
1.97689e-10
2.17537e-10
4.22431e-10
2.25161e-07
1.8992e-06
2.34233e-06
2.34453e-06
2.34691e-06
2.3474e-06
2.34499e-06
9.95848e-07
3.0609e-07
9.93704e-08
1.13236e-08
1.43843e-10
8.4627e-11
7.98695e-11
7.75829e-11
4.9873e-11
4.71359e-10
2.17528e-10
4.81897e-10
3.66019e-07
1.83637e-06
2.32241e-06
2.32731e-06
1.62421e-06
1.1834e-06
2.06354e-06
2.29808e-06
2.22745e-06
1.61857e-06
1.20027e-06
5.24051e-07
1.00706e-08
1.43825e-10
1.80252e-10
2.1933e-10
1.70095e-10
5.98216e-10
8.83316e-10
2.01216e-07
1.46944e-06
1.8329e-06
1.74021e-06
1.32244e-07
2.44362e-13
2.98854e-15
1.51342e-07
7.83687e-07
9.88243e-07
1.77105e-06
1.77105e-06
1.55019e-06
1.60938e-07
2.97832e-10
2.28732e-10
2.77515e-10
2.80326e-10
1.34425e-09
1.78941e-09
3.62677e-07
8.99261e-07
3.15662e-07
7.67309e-11
2.58854e-13
8.60247e-15
-1.32862e-10
-3.62414e-10
-6.38487e-10
-5.51981e-11
3.86559e-07
1.74257e-06
1.31196e-06
1.91338e-07
4.41389e-10
3.40248e-10
3.29417e-10
3.12246e-10
1.79476e-09
2.61233e-09
9.29437e-10
8.95394e-10
3.13039e-08
8.59092e-08
6.13607e-09
3.80762e-11
-2.53924e-10
-8.49575e-10
-1.49782e-09
-9.63029e-10
-4.5738e-11
1.20472e-07
1.51511e-07
5.25692e-08
8.8464e-09
4.0526e-09
5.5786e-10
3.14157e-10
2.58402e-09
1.63868e-08
8.95438e-10
8.76905e-10
8.95411e-10
3.60182e-09
1.24708e-08
1.52989e-09
-1.69269e-10
-8.14176e-10
-1.4818e-09
-1.13172e-09
-5.51453e-10
-1.53111e-10
1.53693e-15
6.70423e-09
1.60542e-08
8.67773e-09
7.06666e-10
5.93921e-10
3.42829e-09
2.15683e-08
1.85606e-09
8.37843e-10
9.12067e-10
8.39581e-10
9.95781e-10
1.18562e-09
-1.36594e-10
-6.34366e-10
-1.11616e-09
-8.76393e-10
-3.72563e-10
4.1052e-12
2.71712e-10
1.39035e-10
1.26479e-09
8.96575e-10
8.01174e-10
9.59721e-10
3.23599e-09
1.3381e-08
2.52931e-11
7.01816e-10
9.25484e-10
8.10696e-10
2.23906e-10
8.07059e-12
-1.43202e-10
-4.40944e-10
-6.83833e-10
-4.97349e-10
-1.2395e-10
1.68567e-10
3.95174e-10
1.38724e-10
1.35373e-10
1.2782e-10
9.31946e-11
5.8527e-10
1.46808e-11
1.59924e-11
2.33754e-11
4.61994e-11
1.53779e-10
1.9959e-10
1.3403e-10
-2.24835e-11
-1.13644e-10
-2.60095e-10
-3.38877e-10
-2.1111e-10
1.47704e-12
1.67782e-10
2.34275e-10
1.27967e-10
1.65165e-10
1.23871e-10
2.41155e-11
1.20899e-11
2.88924e-11
2.04509e-11
7.78093e-13
-9.1639e-14
-9.43059e-14
-1.57576e-13
-4.57933e-12
-2.40007e-11
-6.48592e-11
-1.22094e-10
-1.33536e-10
-7.16279e-11
6.33747e-12
2.53259e-11
1.61571e-11
4.27701e-11
6.0572e-11
9.05704e-12
7.74405e-12
8.8132e-12
-4.91404e-14
-9.57555e-14
-3.42504e-13
-7.80262e-13
-1.54269e-12
-2.90545e-12
-5.80611e-12
-1.27714e-11
-2.74609e-11
-4.53431e-11
-4.08893e-11
-1.92537e-11
3.84042e-14
1.57583e-12
1.64874e-12
5.16606e-12
3.01313e-12
6.70507e-13
1.52497e-12
1.86148e-13
-8.89153e-14
-8.32447e-14
-2.14856e-13
-4.8872e-13
-9.37568e-13
-1.50958e-12
-2.33389e-12
-4.14751e-12
-8.3427e-12
-1.33675e-11
-9.09266e-12
-3.26854e-12
-3.78638e-13
3.14903e-14
1.9254e-13
3.62621e-13
3.33547e-13
9.13197e-14
1.74308e-14
8.65245e-16
-9.98636e-15
-1.8574e-14
-6.16307e-14
-1.69335e-13
-3.49336e-13
-5.02931e-13
-5.77472e-13
-7.82442e-13
-1.62036e-12
-2.97343e-12
-1.31034e-12
-1.74312e-13
-1.14341e-14
-8.8119e-15
-4.59504e-15
7.09374e-16
4.39389e-15
3.19847e-15
6.90835e-16
-2.38595e-15
-1.08032e-16
-9.28963e-16
-6.0288e-15
-2.42885e-14
-5.50249e-14
-7.29131e-14
-6.26562e-14
-5.60915e-14
-1.40367e-13
-3.77796e-13
-1.03628e-13
-6.43524e-15
-9.12989e-16
-1.13712e-15
-8.10634e-16
-2.86065e-16
-3.12548e-18
1.86425e-17
1.54837e-18
-7.2981e-20
3.72694e-06
2.64809e-05
8.0525e-06
1.16188e-06
6.25461e-06
0.000599257
0.0519151
0.468971
0.786036
0.9953
0.999889
0.999985
0.999988
0.999707
0.999975
0.999986
0.999991
0.999998
0.999999
0.999999
6.49838e-07
2.62576e-07
2.99397e-07
6.66657e-07
4.42848e-06
0.001292
0.00124413
0.00145818
0.00334342
0.534322
0.95092
0.999887
0.999972
0.995503
0.991705
0.998082
0.999932
0.999986
0.999998
0.999999
4.19309e-11
3.04945e-09
2.3898e-08
3.41055e-07
6.65773e-07
3.64363e-05
0.00151405
0.00147241
0.00145749
0.00141484
0.310105
0.923325
0.999653
0.995055
0.971803
0.905261
0.913212
0.987766
0.999966
0.999991
3.84284e-11
2.67391e-11
4.11015e-09
1.60677e-07
7.00382e-07
2.40323e-06
0.00082053
0.00165659
0.00148398
0.0010376
0.000919311
0.241247
0.772538
0.98547
0.978037
0.857473
0.657129
0.702875
0.962329
0.997924
2.59265e-11
2.56454e-11
3.24453e-06
2.4937e-05
2.3472e-05
1.14108e-05
8.96405e-06
0.00123126
0.00145874
0.00110832
0.000762897
0.000539657
0.135959
0.632584
0.909296
0.917635
0.672254
0.494493
0.480555
0.602636
2.56724e-11
2.56454e-11
2.56454e-11
2.6003e-05
3.14642e-05
1.96188e-05
1.53468e-06
8.02751e-05
0.000230998
0.000498467
0.000951983
0.000519335
0.000263286
0.0329478
0.294907
0.721993
0.85542
0.688015
0.201423
0.183298
3.45159e-11
2.61382e-11
2.6469e-11
2.75007e-11
7.3446e-06
3.02804e-06
-3.0396e-08
1.37557e-06
1.7621e-06
3.28848e-06
0.0003093
0.000560734
0.000244362
6.6182e-05
2.22559e-05
0.0399674
0.445412
0.786082
0.675819
0.184996
1.08176e-10
4.42398e-11
3.74464e-11
3.44159e-11
1.58468e-10
8.22158e-10
9.74398e-09
-5.26613e-08
2.86565e-07
3.88203e-07
1.34687e-06
0.000285576
0.000283012
0.000123562
1.20711e-05
1.24456e-05
1.61795e-05
0.698089
0.741641
0.249521
2.27915e-10
7.80688e-11
6.3395e-11
1.80133e-10
1.01167e-09
9.6299e-09
1.56654e-08
1.96812e-08
8.73127e-08
1.76707e-07
2.45329e-07
8.47934e-07
0.000118324
8.35958e-05
7.72998e-06
9.23701e-06
1.24456e-05
0.133379
0.708522
0.262691
2.51826e-10
8.96239e-11
4.39379e-10
2.61661e-09
6.8674e-09
1.56637e-08
1.96802e-08
1.36406e-07
1.70199e-07
1.8602e-07
1.92614e-07
2.44802e-07
6.56477e-07
1.27582e-05
4.18114e-06
3.67044e-06
0.000170357
0.000274315
0.587569
0.264409
2.75482e-10
2.8566e-10
1.14988e-08
9.01534e-08
1.91978e-07
2.92625e-07
2.26571e-07
2.26997e-07
1.88816e-05
8.07966e-06
6.76148e-07
5.14477e-07
7.26563e-07
8.66486e-07
1.31104e-06
1.56078e-06
2.01766e-06
0.00769741
0.328906
0.296023
5.46184e-09
3.43673e-08
2.89859e-07
4.05281e-05
0.000130403
0.000277603
0.000320302
0.000305671
0.000915089
0.000739608
7.67542e-05
7.24286e-07
8.66606e-07
1.3106e-06
1.56176e-06
1.56172e-06
1.56001e-06
9.68855e-05
0.0319856
0.258326
7.85821e-09
2.94926e-06
0.000228283
0.00109456
0.00149414
0.00145011
0.00137004
0.00125851
0.000963705
0.000549519
2.88056e-05
0.0002662
0.000540468
0.000472178
3.11836e-05
1.54778e-06
2.61659e-06
0.000103338
2.88695e-05
0.203767
3.24682e-08
4.0668e-05
0.00124778
0.00165934
0.0016605
0.00107856
0.00031014
3.72069e-05
2.77493e-05
2.73864e-05
2.77473e-05
0.000221998
0.000566583
0.000566583
0.00036365
2.82259e-05
4.92622e-06
1.9732e-05
2.4989e-05
0.211708
1.16226e-13
6.25034e-05
0.00142341
0.00166077
0.00165307
0.000124939
3.93678e-05
2.94327e-05
2.73864e-05
2.73844e-05
2.73709e-05
3.12605e-05
5.75061e-05
0.000164202
0.000947585
0.000203279
1.26121e-05
2.66704e-05
0.000640473
0.225556
9.70787e-16
-2.73179e-13
0.000301089
0.00145507
0.00163182
0.000783324
0.000337064
0.000118749
3.25747e-05
2.73864e-05
7.48823e-05
0.000209634
6.3476e-05
7.86575e-05
0.00103313
0.000265396
2.78371e-05
3.27944e-05
0.00320339
0.202572
-8.8774e-15
-2.95953e-12
-1.33263e-11
1.73632e-05
0.000692589
0.000907543
0.000907543
0.000386014
7.35298e-05
2.75362e-05
7.81555e-05
0.000621264
0.000154076
8.75459e-05
0.00114094
0.000743997
4.37925e-05
3.46175e-05
0.00168489
0.0429773
-1.44136e-13
-7.41736e-12
-5.34228e-11
-3.6388e-11
-1.33408e-11
5.42774e-05
0.000326807
0.000394543
0.000154764
2.43805e-05
6.12184e-06
0.000545039
0.00092186
0.000892868
0.00121125
0.00122035
0.000154563
4.01042e-05
0.000527879
0.00404477
-1.50198e-13
-7.66765e-12
-5.59931e-11
-3.19104e-11
-1.32652e-11
-3.1469e-12
6.80168e-15
1.91018e-05
0.000124568
3.71357e-05
2.43067e-07
1.95153e-10
0.000299688
0.00113073
0.00120374
0.00121125
0.000581209
5.24884e-05
8.27765e-05
0.0121319
-1.52704e-18
-5.55571e-18
-1.30339e-17
-2.80891e-16
-6.65954e-13
-5.57134e-13
-2.92245e-13
-5.66379e-14
2.97058e-05
2.25524e-05
8.76356e-08
2.70207e-16
-3.16028e-10
-3.00688e-11
0.000480645
0.0012113
0.000937643
8.40027e-05
0.000123191
0.00965433
)
;

boundaryField
{
    leftWall
    {
        type            zeroGradient;
    }
    rightWall
    {
        type            zeroGradient;
    }
    lowerWall
    {
        type            zeroGradient;
    }
    atmosphere
    {
        type            inletOutlet;
        inletValue      uniform 0;
        value           nonuniform List<scalar> 
60
(
0.00228428
3.02063e-05
2.3336e-05
0.000156311
0.00119993
0.00122273
0
0
0
0
0
0
0
0
0
0
0
0
0
0
0
0
0
0
0
0
0
0
0
0
0
0
0
0
0
0
0
0
0
0
0
0
0
0
0
0
0
0
0
0
0
0
0
0
0.000480645
0.0012113
0.000937643
8.40027e-05
0.000123191
0.00965433
)
;
    }
    defaultFaces
    {
        type            empty;
    }
}


// ************************************************************************* //
