/*--------------------------------*- C++ -*----------------------------------*\
| =========                 |                                                 |
| \\      /  F ield         | OpenFOAM: The Open Source CFD Toolbox           |
|  \\    /   O peration     | Version:  2.4.0                                 |
|   \\  /    A nd           | Web:      www.OpenFOAM.org                      |
|    \\/     M anipulation  |                                                 |
\*---------------------------------------------------------------------------*/
FoamFile
{
    version     2.0;
    format      ascii;
    class       volScalarField;
    location    "0.185";
    object      p;
}
// * * * * * * * * * * * * * * * * * * * * * * * * * * * * * * * * * * * * * //

dimensions      [1 -1 -2 0 0 0 0];

internalField   nonuniform List<scalar> 
3600
(
93.0892
90.4972
87.7867
86.2493
86.5506
88.1151
90.6004
92.0607
93.4909
94.0909
94.7944
94.7171
94.8606
94.9832
94.6934
94.796
94.8152
94.5303
94.1012
93.2223
92.8074
94.2515
94.4143
94.9502
95.9874
96.39
96.4809
97.012
97.2823
97.3622
89.8341
87.2353
84.5169
82.9749
83.277
84.8508
87.3466
88.8088
90.2409
90.8413
91.546
91.4621
91.6086
91.7353
91.43
91.5435
91.5592
91.1697
90.4375
89.9046
89.2213
89.0763
89.4642
90.1381
91.0952
91.9526
92.465
92.7011
92.8161
92.8969
86.5873
83.9747
81.2399
79.6885
79.9892
81.5797
84.098
85.5593
86.9957
87.6015
88.3
88.2039
88.3554
88.4818
88.1725
88.3101
88.235
87.8503
87.1945
86.5227
85.3746
84.7403
85.4813
86.5031
87.2566
88.1365
88.8281
89.1654
89.2579
89.3248
83.3488
80.7153
77.955
76.3889
76.6867
78.3016
80.8541
82.3122
83.7544
84.3722
85.0621
84.9443
85.0979
85.2272
84.9299
85.0987
85.0405
84.6425
83.9864
82.9314
80.7561
80.2449
81.5368
82.6344
83.5028
84.4103
84.9434
85.3689
85.525
85.5813
80.1189
77.4571
74.6623
73.0759
73.3695
75.0167
77.6153
79.0677
80.5167
81.1532
81.8354
81.687
81.831
81.9683
81.6892
81.8927
81.8483
81.5673
80.7335
79.3672
76.7529
75.8231
77.1565
78.3362
79.297
80.4186
81.4529
81.9248
81.8758
81.9141
76.8978
74.2004
71.3615
69.7494
70.0379
71.7252
74.3821
75.8254
77.2822
77.9441
78.6196
78.4348
78.5492
78.6991
78.4471
78.6513
78.563
78.3603
77.5551
76.2892
73.1494
71.9915
73.5283
75.114
76.0601
77.0554
77.771
78.2463
78.3921
78.458
73.6855
70.945
68.0524
66.409
66.6898
68.427
71.1552
72.5848
74.0508
74.7441
75.4109
75.1874
75.2921
75.431
75.1964
75.3506
75.171
75.0395
74.1499
72.9503
69.864
68.7279
70.234
71.6291
72.8593
73.674
74.3385
74.786
75.0038
75.0668
70.4823
67.6911
64.735
63.0544
63.3253
65.1223
67.9354
69.3454
70.8226
71.5533
72.2078
71.9393
72.0947
72.187
71.9019
72.0153
71.7029
71.6483
70.6678
69.2979
66.6983
65.9079
67.0369
68.5533
69.665
70.3427
70.8762
71.2843
71.5148
71.5899
67.2883
64.4388
61.409
59.6853
59.9437
61.8111
64.7237
66.1064
67.5983
68.373
69.0127
68.6822
68.9393
68.9611
68.5832
68.7114
68.3089
68.2482
67.3501
66.1041
64.2585
63.4232
64.5458
65.6269
66.4849
67.0553
67.4943
67.8055
68.0093
68.1298
64.1036
61.1883
58.0742
56.3013
56.5441
58.4935
61.5214
62.8668
64.3782
65.208
65.8291
65.4138
65.7844
65.7317
65.2737
65.4309
65.0289
64.8959
64.1433
63.121
61.9224
61.4547
62.0296
62.7727
63.3919
63.8401
64.158
64.3803
64.5291
64.6419
60.9287
57.9396
54.7304
52.9019
53.1255
55.1698
58.33
59.6253
61.1626
62.061
62.6564
62.1334
62.6139
62.5001
61.9765
62.1415
61.7592
61.5708
60.9795
60.2428
59.5648
59.1047
59.3859
59.8194
60.2569
60.6153
60.8721
61.0151
61.1114
61.1712
57.7636
54.693
51.3774
49.4864
49.6868
51.8401
55.1511
56.38
57.9507
58.9329
59.4919
58.844
59.4421
59.2991
58.69
58.8309
58.4318
58.2508
57.8051
57.2979
56.7557
56.4741
56.5743
56.8211
57.0933
57.338
57.5375
57.6661
57.7294
57.7354
54.6088
51.4486
48.015
46.0542
46.2266
48.5048
51.9869
53.1287
54.7417
55.8253
56.3317
55.5489
56.2698
56.12
55.4125
55.5494
55.0627
54.9633
54.6122
54.2464
53.8636
53.6961
53.7038
53.7742
53.8839
54.0381
54.1928
54.3106
54.3736
54.3695
51.4645
48.2067
44.6428
42.6045
42.7434
45.1643
48.8395
49.8684
51.5349
52.7408
53.1735
52.2415
53.1207
52.9644
52.1415
52.2535
51.6917
51.6868
51.4009
51.156
50.9293
50.8082
50.753
50.6645
50.5796
50.5419
50.6874
50.9263
51.041
50.98
48.3311
44.9674
41.2607
39.1363
39.2355
41.8191
45.7117
46.5957
48.3294
49.683
50.024
48.9185
49.9863
49.8361
48.9144
48.9354
48.3097
48.3713
48.1646
48.022
47.9035
47.774
47.6861
47.6211
47.5087
47.3372
47.3293
47.5046
47.6619
47.5564
45.2089
41.731
37.8683
35.6487
35.701
38.4697
42.6064
43.3057
45.1247
46.6573
46.8497
45.5771
46.8706
46.6902
45.6046
45.518
44.9237
45.0529
44.9138
44.8589
44.8282
44.6537
44.5056
44.4489
44.4524
44.4355
44.315
44.2289
44.2462
44.1982
42.0985
38.4979
34.4652
32.1406
32.1376
35.1172
39.5264
39.9959
41.9203
43.6573
43.6843
42.2019
43.7622
43.5851
42.3028
42.0061
41.4121
41.742
41.7349
41.6685
41.7594
41.5052
41.269
41.1123
41.0456
41.0225
41.0453
40.8967
40.8608
40.9442
39.0002
35.2683
31.0508
28.6108
28.5429
31.7623
36.4757
36.6556
38.7138
40.7063
40.482
38.7846
40.6781
40.5215
38.9696
38.4207
37.8607
38.4296
38.5397
38.4536
38.6095
38.3844
38.0288
37.8196
37.6949
37.6691
37.7442
37.6896
37.6771
37.7943
35.9146
32.0426
27.6247
25.0582
24.9141
28.4066
33.4561
33.2946
35.5189
37.7812
37.2719
35.3436
37.5846
37.4024
35.531
34.7921
34.3364
35.1324
35.2946
35.233
35.4423
35.1887
34.7856
34.6015
34.4069
34.365
34.508
34.5183
34.4746
34.5222
32.842
28.8211
24.1862
21.4812
21.2485
25.052
30.4721
29.8715
32.3138
34.907
33.9941
31.7933
34.4584
34.3599
32.1063
31.2225
30.8771
31.8085
31.9922
31.9104
32.2218
31.8245
31.2219
31.1409
31.1801
31.1996
31.319
31.3063
31.2212
31.2342
29.7836
25.6044
20.7348
17.8789
17.5429
21.701
27.525
26.4438
29.1223
32.0335
30.6927
28.3831
31.3799
31.2836
28.6115
27.4715
27.4378
28.5329
28.7038
28.5649
28.9528
28.2233
27.5741
27.7589
28.0261
28.1158
28.1387
28.089
28.038
28.0453
26.7393
22.3936
17.2702
14.2517
13.7926
18.3569
24.61
22.9258
25.9714
29.2663
27.1669
24.6142
28.3139
28.4895
25.3183
23.5669
24.5789
25.4048
25.3894
25.2118
25.8146
24.8576
24.4149
24.5352
24.8573
24.9582
24.9372
24.8776
24.8417
24.8315
23.7108
19.1898
13.7928
10.604
10.0103
15.0264
21.7569
19.3807
22.8172
26.4783
26.1781
21.2454
24.8405
25.4753
22.0643
19.3881
20.7632
22.1604
22.1136
21.7516
22.4132
22.3983
21.4817
21.472
21.6884
21.6784
21.6545
21.61
21.5844
21.5549
20.6999
15.9903
10.3059
6.94743
5.90008
11.7152
18.911
15.8448
19.7125
23.5061
23.3267
20.0323
21.0523
21.9956
17.2663
14.7168
16.414
19.2916
18.8331
19.1578
19.2442
19.7348
18.423
18.5668
18.5758
18.5197
18.4444
18.3589
18.287
18.2449
17.706
12.8014
6.81493
3.28198
2.12302
8.42269
16.1948
19.799
16.9733
21.7504
19.6827
14.6925
16.9613
18.2675
13.1831
11.057
13.1163
16.3472
15.1292
15.4404
15.942
15.4161
15.2582
15.4346
15.3668
15.218
15.1255
15.032
14.9794
14.9147
14.7316
9.62265
3.32136
0.19513
-0.267289
5.78332
14.5409
14.6195
13.8279
18.6969
16.8081
11.5952
13.3871
14.4017
10.0705
7.95106
9.96513
13.4975
11.7982
11.7158
12.3468
11.9972
12.1879
12.2528
12.081
12.0009
11.915
11.7915
11.7088
11.5978
11.7673
6.4463
0.645953
-0.297383
0.973972
5.58534
11.5976
16.8251
10.9234
15.6824
14.3891
9.00064
10.6098
10.8255
7.42554
5.37675
7.12668
10.873
8.27664
8.21172
9.45979
8.60253
9.13583
8.88718
8.67788
8.58903
8.65339
8.51285
8.42144
8.2716
8.80053
2.60822
0.164418
-0.0991109
0.295569
4.05816
7.54681
7.01253
7.53381
12.6726
12.2946
6.0545
8.23257
8.01874
5.24153
3.41599
4.94487
7.95317
5.01362
5.5252
5.93944
5.18753
6.04183
5.70864
5.68196
5.52492
5.54174
5.32518
5.13129
4.92239
5.82027
0.0197723
0.0074373
-0.0897146
-0.0664352
1.4931
3.43809
3.4833
4.45328
9.6656
9.68941
3.12793
5.65708
5.27933
2.56703
0.0996007
2.51898
5.14266
1.60493
2.37308
2.49201
2.14125
3.1114
3.06985
2.71552
2.51797
2.45828
2.27707
2.11837
1.95022
2.24078
-0.127842
-0.101283
-0.0895026
-0.0867433
0.13448
0.503267
0.401021
1.62457
6.69786
6.78543
0.0189968
2.64503
1.93431
0.522999
-0.318047
0.473115
2.38526
0.208503
0.110918
0.30899
0.805184
0.563512
-0.00975112
0.283487
0.497717
0.323679
0.318946
0.433684
0.493317
97.3846
97.2848
96.7418
96.7173
96.7699
95.8887
94.9822
94.4585
93.6794
92.4875
92.8248
93.6307
93.9926
94.3987
94.3146
94.2602
94.4662
94.3309
94.1511
94.1053
93.2962
93.1043
92.1309
91.2982
88.9766
87.28
86.6422
87.9909
90.7098
93.2086
92.8856
92.8559
92.7968
92.5219
92.0382
91.2222
90.3313
89.5289
88.7512
88.807
89.4743
89.9102
90.5833
91.093
91.0619
91
91.2198
91.0784
90.8994
90.8545
90.0417
89.8483
88.879
88.0469
85.7169
84.0081
83.3683
84.7199
87.4482
89.9531
89.3076
89.3175
89.1976
88.84
88.368
87.5892
86.8149
85.5851
84.0597
84.6443
85.9859
86.7016
87.2863
87.7657
87.826
87.7451
87.9681
87.8224
87.6463
87.6047
86.787
86.5925
85.6305
84.8046
82.4559
80.7238
80.081
81.4404
84.1881
86.7057
85.5515
85.5422
85.4283
85.1952
84.7246
83.9431
83.0936
81.5621
79.7589
80.3529
82.3899
83.4656
84.1115
84.5807
84.6093
84.5102
84.7135
84.5591
84.3939
84.3583
83.5336
83.3365
82.386
81.5704
79.1932
77.4264
76.7798
78.1517
80.9296
83.4664
81.9335
82.0921
81.9702
81.2906
80.6252
79.7306
78.8666
77.2884
75.5602
76.4456
78.8556
80.1462
81.0196
81.3904
81.4146
81.2798
81.4543
81.2854
81.1468
81.1181
80.2821
80.0803
79.1458
78.3449
75.9292
74.117
73.4646
74.8539
77.6727
80.2353
78.4575
78.3805
78.1759
77.7912
77.1855
76.411
75.4845
73.7667
72.1216
72.9569
75.5969
77.102
77.8005
78.1121
78.1774
78.0486
78.1854
77.9917
77.9096
77.8848
77.0317
76.8238
75.9099
75.1283
72.6642
70.7928
70.1352
71.5465
74.4174
77.0127
75.0545
74.9385
74.6701
74.2324
73.8071
73.169
72.1364
70.4403
69.0534
69.702
72.1531
73.587
74.5018
74.7414
74.8839
74.8122
74.9133
74.7044
74.6841
74.6549
73.7812
73.5662
72.6783
71.9214
69.3985
67.4544
66.7913
68.2295
71.1639
73.7986
71.5728
71.4442
71.1628
70.7683
70.3132
69.7718
68.967
67.6877
66.298
66.8982
68.7692
70.1875
71.1371
71.2973
71.5507
71.541
71.6666
71.4689
71.4672
71.4268
70.5297
70.3072
69.4511
68.7248
66.1325
64.1011
63.4324
64.9026
67.9122
70.5933
68.0716
67.9469
67.6892
67.3731
67.0176
66.5838
65.9831
65.1083
64.1021
64.3581
65.6805
66.9227
67.7787
67.9095
68.2395
68.2403
68.4454
68.2835
68.2515
68.2014
67.2769
67.0462
66.2282
65.5394
62.8667
60.7322
60.0583
61.5656
64.6625
67.3969
64.5497
64.464
64.2774
64.0412
63.7642
63.4246
63.0012
62.4681
61.9241
62.1792
62.8389
63.7728
64.4759
64.6267
64.9606
64.947
65.2229
65.1105
65.0334
64.9838
64.0244
63.7828
63.0097
62.3663
59.6017
57.3468
56.6685
58.2181
61.4149
64.2095
61.1183
61.0653
60.9151
60.7386
60.527
60.2512
59.9527
59.6231
59.3703
59.5156
60.0297
60.6303
61.2021
61.3831
61.6922
61.6708
61.9884
61.9151
61.8099
61.7766
60.7734
60.5161
59.7955
59.2069
56.3382
53.944
53.2622
54.8598
58.1697
61.0315
57.7233
57.6824
57.5809
57.4361
57.2552
57.0457
56.8833
56.7196
56.5674
56.6487
57.0313
57.4593
57.928
58.1137
58.4338
58.4097
58.7804
58.6989
58.5841
58.5802
57.5238
57.2449
56.5851
56.0626
53.077
50.5225
49.8388
51.4904
54.927
57.8632
54.3707
54.3163
54.1628
53.9874
53.8911
53.7912
53.7746
53.7588
53.6512
53.7044
53.9335
54.2609
54.6722
54.817
55.2023
55.1905
55.593
55.4645
55.3618
55.3917
54.2737
53.9676
53.3782
52.9351
49.8191
47.081
46.3976
48.1095
51.6871
54.7047
50.9131
50.8145
50.7126
50.6068
50.5462
50.5679
50.6388
50.6963
50.6334
50.7003
50.8239
51.0367
51.4203
51.505
51.9493
51.9557
52.4313
52.2344
52.1362
52.2119
51.0222
50.6822
50.1746
49.8262
46.5655
43.6181
42.9375
44.7165
48.4503
51.5564
47.4019
47.3664
47.4264
47.4935
47.4706
47.4854
47.5148
47.5416
47.4987
47.5781
47.6813
47.7847
48.1366
48.1813
48.7082
48.8071
49.2939
49.003
48.9277
49.0394
47.7676
47.3868
46.974
46.7378
43.3176
40.1321
39.4573
41.3112
45.2167
48.4188
44.051
44.0117
44.1606
44.2295
44.183
44.2179
44.3347
44.3458
44.3122
44.3832
44.4787
44.4988
44.8429
44.8704
45.3786
45.6171
46.1666
45.7734
45.6832
45.8804
44.5143
44.0788
43.776
43.672
40.0769
36.621
35.9558
37.8931
41.9868
45.2921
40.8902
40.8486
40.834
40.6861
40.6198
40.8021
41.1028
41.1606
41.1909
41.2335
41.2866
41.2772
41.5567
41.4882
42.0446
42.3501
43.0011
42.5574
42.5
42.7337
41.2432
40.7534
40.5811
40.6307
36.8452
33.0828
32.4314
34.4616
38.7609
42.1768
37.8214
37.713
37.5469
37.2596
37.2329
37.492
37.8678
37.8441
37.8228
37.6713
37.9265
37.9977
38.2635
38.0681
38.6594
39.2282
40.0346
39.3058
39.199
39.5917
37.984
37.4233
37.3834
37.6169
33.6245
29.5151
28.8825
31.0162
35.5395
39.0733
34.5371
34.4291
34.3127
34.034
33.9611
34.163
34.3551
34.5073
35.0882
34.7424
34.5425
34.7051
34.9737
34.6566
35.2431
35.9241
36.7952
36.0545
36.0576
36.519
34.6959
34.0234
34.2028
34.632
30.4174
25.9152
25.3072
27.5563
32.3227
35.9822
31.2538
31.2099
31.128
31.0522
30.9276
30.9017
30.9279
31.1617
32.5003
32.0272
31.2507
31.3982
31.6923
31.2458
31.7696
32.6846
33.7784
32.7959
32.7738
33.3282
31.4202
30.6835
31.0027
31.6802
27.2267
22.2801
21.7035
24.081
29.1112
32.9039
28.0539
28.0521
28.0063
27.9894
27.8576
27.6107
27.5611
28.0267
29.117
29.1529
28.0123
28.1418
28.423
27.7917
28.2769
29.5149
30.8367
29.5039
29.4638
30.3265
28.1244
27.1928
27.8194
28.7628
24.0549
18.6177
18.0696
20.5899
25.9056
29.8393
24.8346
24.8253
24.8196
24.7894
24.6522
24.4683
24.3961
25.4282
25.6673
25.4258
24.765
25.262
25.1991
24.2179
24.7734
26.3645
27.8658
26.3288
26.1717
27.2424
24.8381
23.7516
24.6435
25.882
20.9073
14.8976
14.4051
17.0823
22.7072
26.7886
21.5316
21.5056
21.4669
21.4141
21.3779
21.3023
21.1186
21.286
21.7954
22.4058
22.5528
21.6194
21.993
20.5552
21.1881
23.086
24.7215
23.0674
22.9514
24.1536
21.5465
20.3138
21.4887
23.0314
17.7744
11.1482
10.7139
13.5589
19.5172
23.7534
18.1968
18.1445
18.0911
18.0005
18.0278
18.0887
17.768
17.7278
18.7697
19.1647
17.8533
18.243
18.943
17.0751
17.2174
19.9489
21.6951
19.6996
19.6645
21.1581
18.2373
16.8858
18.2625
20.1996
14.6788
7.35357
7.00852
10.0235
16.3335
20.7354
14.8482
14.7699
14.7247
14.6156
14.6367
14.8036
14.3393
14.1685
15.38
14.9214
13.8986
14.1384
15.6193
13.1659
13.0743
17.2262
19.6105
16.5465
17.1149
18.3721
15.0525
15.3135
15.7982
17.4076
11.5879
3.57914
3.28712
6.4818
13.1627
17.7343
11.5041
11.3986
11.322
11.2013
11.1742
11.4774
10.8279
10.7021
11.8162
11.3459
10.4875
11.0759
12.6335
9.52705
8.79962
12.7913
17.3715
13.2747
13.3679
16.7585
12.5582
10.3525
12.5256
14.5911
8.94904
0.714394
-0.0192476
2.93259
10.0044
14.7523
8.15642
8.05026
7.92943
7.86306
7.48804
7.83138
7.48769
7.52426
8.11179
8.29083
7.9945
7.75181
9.73668
5.99681
5.77649
8.95497
14.4105
10.3545
9.768
12.6631
9.03519
7.4064
9.96492
11.8023
8.75447
2.10314
-0.631128
0.415127
6.85677
11.7788
4.76867
4.67019
4.5501
4.58632
4.44819
4.46322
4.57616
4.54101
4.84642
5.21276
5.00257
5.10989
6.54052
3.1889
2.19006
6.29344
11.3345
7.59308
7.02715
9.87418
6.15411
4.20213
6.65619
9.13847
6.77972
0.812786
-0.215323
0.460166
2.9106
8.79691
1.78636
1.6375
1.3698
1.3366
1.25781
1.09645
1.68375
1.80078
1.84448
2.00261
1.69442
1.74102
3.56432
0.521504
-0.878882
3.94466
8.46322
5.3754
4.10754
6.81595
2.97156
0.757732
3.15233
4.51889
4.11274
0.391389
-0.0964225
0.242897
0.0642287
5.80966
0.494274
0.391586
0.158657
0.0563022
0.233524
0.0339427
-0.0802071
0.32255
0.538304
0.189672
0.0132335
0.0440709
0.591661
-0.0553749
-1.01781
1.80948
5.74664
2.47874
0.864924
3.88857
1.24296
-0.280346
0.571923
0.926495
0.546425
-0.0282884
-0.0964791
-0.055262
-0.100183
2.25135
-0.0193764
-0.105373
-0.105745
-0.0944736
-0.098258
-0.10461
-0.112437
-0.138203
0.399797
4.0228
4.37221
-0.98489
-0.0893104
0.0817141
0.0137723
-0.0324976
-0.0697697
-0.0805114
-0.0682293
-0.0732282
-0.0783053
-0.0791435
-0.0822543
-0.0822577
-0.0796273
-0.0811538
-0.0808918
-0.078458
-0.0775714
-0.0770281
-0.098884
-0.106411
-0.108573
-0.0974596
-0.100707
-0.105703
-0.112081
-0.113981
0.0523445
1.49899
2.30581
0.154415
0.0946986
0.0130267
-0.00727448
-0.0323738
-0.0788375
-0.047551
-0.0700351
-0.0762848
-0.0782874
-0.0802182
-0.0816632
-0.0833161
-0.0828541
-0.0825136
-0.0821891
-0.0814012
-0.0808896
-0.0801918
-0.0977945
-0.108823
-0.111431
-0.100433
-0.103807
-0.107185
-0.113731
-0.116516
-0.111222
-0.0811328
-0.0457168
0.076538
-0.12366
0.0181715
-0.0121633
-0.0481486
-0.0742094
-0.076524
-0.0785425
-0.079495
-0.081052
-0.0819378
-0.0840325
-0.0850548
-0.0846978
-0.084195
-0.0838195
-0.0832174
-0.0825928
-0.0818327
-0.100885
-0.110308
-0.114303
-0.103555
-0.107254
-0.108735
-0.115362
-0.118619
-0.111786
-0.113341
-0.105913
-0.187246
-0.114467
-0.0286604
-0.0447441
-0.0546276
-0.0772628
-0.078231
-0.0809106
-0.0830403
-0.0837866
-0.0842238
-0.0856696
-0.0869787
-0.08663
-0.0861134
-0.0857042
-0.0851145
-0.0844169
-0.0836307
-0.105177
-0.112165
-0.117118
-0.106835
-0.110809
-0.110336
-0.117104
-0.120688
-0.113941
-0.116225
-0.108565
-0.19152
-0.215196
-0.0574809
-0.054261
-0.0793931
-0.0791403
-0.0802537
-0.0831383
-0.0851715
-0.0863974
-0.0862302
-0.0877366
-0.0889948
-0.0887594
-0.0882538
-0.0878281
-0.0872569
-0.0865344
-0.0857968
-0.10812
-0.115167
-0.119751
-0.11029
-0.114159
-0.11201
-0.118871
-0.122711
-0.115912
-0.119234
-0.113999
-0.191154
-0.200588
-0.088282
-0.0861751
-0.0860861
-0.0828978
-0.0829291
-0.085409
-0.0874748
-0.0889869
-0.0892607
-0.090163
-0.0911478
-0.0910353
-0.0906009
-0.0901931
-0.0896589
-0.0888749
-0.0881541
-0.111119
-0.117428
-0.122123
-0.113905
-0.117264
-0.113923
-0.120569
-0.124675
-0.11802
-0.121864
-0.119605
-0.186422
-0.186133
-0.0990156
-0.0951512
-0.0929046
-0.0878065
-0.085913
-0.0875095
-0.0899383
-0.0914664
-0.0919308
-0.0926624
-0.0934731
-0.0934582
-0.0931496
-0.0928079
-0.0923596
-0.0909754
-0.0903231
-0.114262
-0.119886
-0.124318
-0.117612
-0.120169
-0.116094
-0.122175
-0.126645
-0.120471
-0.124805
-0.12561
-0.180006
-0.173396
-0.108731
-0.104238
-0.100835
-0.0929392
-0.0895839
-0.0896673
-0.0921812
-0.0939007
-0.0945818
-0.0952931
-0.0959857
-0.0960678
-0.0959098
-0.0956734
-0.0951819
-0.0932833
-0.0930792
-0.117592
-0.122554
-0.126513
-0.121325
-0.123043
-0.118618
-0.123762
-0.128835
-0.123605
-0.12811
-0.131752
-0.173794
-0.163202
-0.11757
-0.113506
-0.109788
-0.0982966
-0.0934863
-0.0922678
-0.0939397
-0.0963053
-0.0973357
-0.0980618
-0.0987072
-0.0989119
-0.0989121
-0.0988672
-0.098456
-0.0982301
-0.0981889
-0.121138
-0.125451
-0.128889
-0.124868
-0.126034
-0.121585
-0.125575
-0.131506
-0.127987
-0.131535
-0.137469
-0.168474
-0.155761
-0.125559
-0.122127
-0.118558
-0.103025
-0.0970554
-0.0945664
-0.0974186
-0.0987409
-0.100011
-0.100929
-0.101681
-0.10206
-0.102203
-0.102258
-0.102246
-0.102025
-0.101803
-0.124921
-0.128601
-0.131544
-0.128413
-0.129234
-0.125113
-0.127948
-0.134934
-0.133543
-0.136552
-0.143658
-0.163156
-0.151015
-0.132706
-0.130126
-0.107353
-0.0853681
-0.0901053
-0.0976529
-0.0998457
-0.101318
-0.102853
-0.10397
-0.104947
-0.105462
-0.10583
-0.106109
-0.106085
-0.106043
-0.106033
-0.128966
-0.132031
-0.13453
-0.132019
-0.132667
-0.129312
-0.131128
-0.139348
-0.140647
-0.141993
-0.15039
-0.160538
-0.148964
-0.139327
-0.136856
-0.131965
-0.0782131
-0.0888105
-0.100793
-0.102839
-0.104396
-0.106157
-0.107538
-0.108663
-0.109465
-0.11003
-0.110347
-0.110592
-0.110712
-0.110759
-0.133297
-0.13577
-0.137887
-0.135843
-0.136388
-0.134015
-0.135114
-0.144918
-0.148772
-0.147537
-0.155842
-0.160277
-0.148222
-0.145263
-0.142057
-0.137606
-0.13478
-0.101747
-0.106275
-0.106933
-0.108009
-0.109784
-0.111418
-0.112803
-0.113842
-0.114615
-0.115121
-0.115464
-0.115715
-0.115878
-0.13794
-0.139852
-0.141651
-0.139998
-0.140455
-0.13879
-0.139532
-0.150955
-0.156257
-0.153075
-0.160549
-0.160304
-0.150173
-0.15097
-0.148676
-0.143205
-0.137873
-0.106889
-0.117677
-0.111513
-0.11203
-0.11395
-0.115865
-0.117522
-0.118806
-0.119764
-0.12041
-0.12085
-0.121193
-0.12143
-0.142921
-0.144311
-0.145853
-0.144555
-0.144928
-0.143575
-0.144403
-0.156962
-0.161672
-0.158338
-0.164276
-0.161285
-0.154199
-0.156138
-0.155088
-0.14951
-0.142417
-0.113162
-0.114356
-0.11513
-0.116626
-0.11882
-0.121004
-0.122913
-0.124413
-0.125514
-0.126293
-0.126822
-0.127175
-0.127409
-0.148271
-0.149179
-0.15053
-0.149548
-0.149861
-0.148719
-0.149894
-0.163013
-0.165016
-0.16337
-0.167033
-0.164469
-0.159119
-0.160773
-0.15959
-0.153999
-0.148312
-0.123661
-0.119979
-0.123128
-0.122221
-0.124764
-0.126975
-0.129091
-0.13079
-0.131981
-0.132799
-0.13335
-0.133682
-0.133874
-0.154019
-0.154491
-0.155712
-0.155003
-0.155272
-0.154413
-0.155947
-0.169321
-0.16906
-0.16867
-0.16929
-0.167839
-0.1645
-0.165442
-0.163673
-0.157978
-0.152435
-0.147095
-0.124464
-0.119647
-0.128706
-0.132188
-0.133833
-0.136042
-0.13708
-0.1388
-0.139691
-0.140304
-0.140629
-0.140798
-0.160201
-0.160287
-0.16143
-0.160943
-0.16119
-0.16066
-0.162351
-0.175304
-0.17514
-0.174598
-0.172958
-0.172419
-0.170427
-0.171015
-0.168556
-0.162374
-0.155806
-0.149084
-0.137401
-0.127793
-0.133895
-0.140728
-0.142065
-0.143736
-0.145081
-0.145971
-0.146021
-0.146753
-0.147713
-0.148402
-0.166853
-0.166611
-0.167712
-0.167397
-0.167645
-0.167448
-0.169121
-0.180497
-0.182828
-0.181284
-0.178804
-0.179121
-0.177607
-0.177957
-0.175297
-0.169176
-0.163903
-0.161045
-0.161852
-0.159017
-0.137007
-0.149656
-0.151162
-0.151857
-0.153166
-0.154127
-0.154771
-0.155371
-0.15566
-0.156662
-0.17402
-0.173508
-0.174593
-0.1744
-0.174667
-0.174785
-0.176352
-0.185478
-0.190081
-0.186969
-0.184818
-0.186491
-0.186268
-0.186527
-0.184124
-0.177932
-0.17289
-0.170015
-0.169859
-0.170141
-0.169086
-0.134558
-0.156972
-0.159775
-0.160416
-0.160705
-0.160779
-0.160979
-0.157279
-0.147273
-0.181747
-0.18102
-0.182111
-0.181993
-0.182288
-0.182682
-0.184093
-0.191025
-0.195059
-0.190543
-0.189002
-0.192586
-0.1956
-0.197028
-0.194559
-0.187702
-0.182043
-0.178514
-0.177091
-0.176476
-0.174865
-0.171366
-0.16446
-0.170297
-0.16902
-0.170285
-0.16763
-0.161637
-0.16052
-0.160027
-0.190086
-0.189199
-0.190303
-0.190225
-0.190552
-0.191147
-0.192366
-0.197445
-0.199763
-0.194646
-0.192835
-0.198281
-0.205606
-0.208497
-0.205605
-0.197776
-0.19121
-0.186817
-0.184252
-0.182667
-0.181225
-0.180271
-0.179929
-0.180368
-0.17989
-0.18016
-0.176984
-0.170482
-0.170137
-0.170555
-0.199091
-0.1981
-0.19921
-0.199146
-0.199499
-0.200221
-0.201219
-0.204874
-0.205618
-0.201253
-0.199318
-0.205729
-0.216558
-0.220914
-0.216951
-0.207854
-0.20066
-0.195949
-0.19309
-0.191219
-0.190483
-0.19065
-0.190637
-0.190782
-0.190998
-0.191551
-0.191583
-0.187712
-0.185059
-0.188534
-0.208821
-0.207781
-0.208879
-0.208811
-0.209175
-0.209957
-0.210729
-0.213352
-0.213415
-0.210419
-0.209036
-0.21516
-0.226295
-0.230181
-0.225925
-0.217255
-0.21071
-0.206376
-0.203744
-0.202503
-0.201982
-0.20171
-0.20157
-0.201436
-0.201316
-0.201311
-0.201354
-0.201411
-0.201309
-0.200815
-0.219338
-0.218306
-0.219361
-0.219283
-0.219638
-0.220421
-0.220969
-0.222894
-0.222728
-0.221088
-0.220128
-0.224647
-0.232944
-0.234581
-0.231002
-0.225191
-0.220638
-0.217332
-0.215392
-0.21432
-0.213706
-0.213302
-0.212976
-0.212669
-0.21239
-0.212149
-0.211934
-0.211722
-0.211482
-0.211232
-0.230709
-0.229741
-0.230715
-0.230625
-0.230953
-0.231685
-0.232008
-0.233491
-0.233167
-0.232436
-0.231939
-0.234556
-0.238358
-0.239475
-0.237111
-0.233792
-0.231111
-0.228947
-0.227627
-0.226719
-0.226113
-0.225676
-0.225328
-0.225025
-0.224752
-0.224352
-0.224158
-0.223904
-0.223622
-0.22333
-0.243008
-0.242158
-0.243007
-0.242909
-0.243191
-0.24383
-0.243992
-0.245082
-0.244731
-0.244468
-0.244222
-0.245442
-0.247602
-0.247966
-0.246397
-0.244426
-0.24287
-0.241503
-0.24053
-0.239812
-0.239294
-0.238909
-0.238612
-0.238374
-0.238179
-0.237907
-0.237778
-0.237686
-0.237553
-0.237497
-0.256314
-0.255631
-0.256312
-0.256211
-0.256431
-0.256944
-0.256971
-0.257738
-0.257429
-0.257366
-0.257175
-0.257701
-0.258875
-0.259158
-0.258136
-0.256976
-0.25601
-0.255132
-0.254427
-0.253861
-0.253407
-0.253018
-0.252653
-0.252288
-0.251911
-0.251531
-0.251217
-0.250899
-0.250653
-0.250574
-0.270715
-0.270243
-0.270711
-0.270614
-0.270755
-0.271091
-0.271063
-0.271523
-0.271308
-0.271311
-0.271182
-0.27139
-0.271856
-0.272046
-0.27149
-0.270918
-0.270375
-0.269852
-0.269376
-0.268935
-0.268517
-0.268108
-0.267684
-0.26725
-0.266811
-0.26639
-0.265983
-0.265699
-0.265327
-0.265437
-0.286307
-0.286078
-0.286296
-0.28621
-0.28626
-0.286377
-0.286346
-0.286492
-0.28638
-0.286378
-0.286348
-0.286411
-0.286556
-0.286633
-0.286455
-0.286305
-0.286158
-0.286015
-0.285876
-0.285733
-0.285585
-0.285433
-0.285285
-0.285153
-0.285055
-0.285013
-0.285049
-0.285146
-0.285354
-0.285658
-0.0762393
-0.0747666
-0.0727515
-0.074014
-0.0758483
-0.0717716
-0.0723989
-0.0768233
-0.0780604
-0.0820842
-0.0896761
-0.0956902
-0.10774
-0.108066
-0.0880655
-0.0435819
1.35071
0.17737
-0.0821207
0.887056
-0.00629561
-0.118512
-0.118115
-0.110105
-0.114412
-0.147514
-0.101952
-0.0644862
-0.0938498
-0.0137365
-0.0793308
-0.0782438
-0.0770077
-0.0766455
-0.0767746
-0.0756539
-0.075904
-0.0776972
-0.0804414
-0.085157
-0.0905577
-0.0968247
-0.104827
-0.106625
-0.0947949
-0.0956043
-0.102791
-0.10199
-0.11024
-0.0846127
-0.121538
-0.120918
-0.123428
-0.120048
-0.116467
-0.147037
-0.104977
-0.0696634
-0.0946218
-0.0957767
-0.0809831
-0.0800282
-0.079038
-0.0785684
-0.0787491
-0.0780769
-0.0782799
-0.0801064
-0.082442
-0.0868623
-0.0928794
-0.0992281
-0.106835
-0.108335
-0.0972018
-0.0975114
-0.101219
-0.102859
-0.111799
-0.113356
-0.119749
-0.122809
-0.12514
-0.121674
-0.118161
-0.14687
-0.107618
-0.074743
-0.097187
-0.0950495
-0.0828248
-0.0819861
-0.0811602
-0.0809581
-0.0810528
-0.0804773
-0.0807835
-0.0824849
-0.0845663
-0.0888145
-0.0951914
-0.101946
-0.109237
-0.110885
-0.0997989
-0.0995546
-0.103332
-0.105236
-0.114341
-0.115338
-0.122002
-0.124669
-0.12693
-0.123357
-0.119945
-0.146777
-0.110132
-0.0800395
-0.0977192
-0.0982935
-0.0850942
-0.0844837
-0.0843824
-0.0835902
-0.0830144
-0.0831875
-0.0834886
-0.0850161
-0.0870493
-0.091175
-0.0977924
-0.104995
-0.112014
-0.113484
-0.103135
-0.102042
-0.105501
-0.107339
-0.116685
-0.11752
-0.124094
-0.126563
-0.128687
-0.125043
-0.121859
-0.146908
-0.112666
-0.0857058
-0.0995581
-0.102632
-0.0873205
-0.0865122
-0.0856091
-0.0849002
-0.0864338
-0.0860707
-0.0864512
-0.0878529
-0.0899097
-0.0940402
-0.100862
-0.108472
-0.115318
-0.116601
-0.106415
-0.104164
-0.107329
-0.109864
-0.11973
-0.120179
-0.126185
-0.128521
-0.130406
-0.126734
-0.12381
-0.147293
-0.115315
-0.0915727
-0.101785
-0.105749
-0.0898614
-0.0890947
-0.0892391
-0.089783
-0.08944
-0.0892164
-0.089666
-0.0910086
-0.0932345
-0.097451
-0.104454
-0.112362
-0.119099
-0.12015
-0.109788
-0.106423
-0.109299
-0.112407
-0.12253
-0.122772
-0.128502
-0.130583
-0.132122
-0.128433
-0.125712
-0.147812
-0.118077
-0.0972119
-0.10424
-0.108936
-0.0935267
-0.0937368
-0.0932698
-0.0929607
-0.0927198
-0.0926776
-0.0932042
-0.0945657
-0.0970091
-0.101359
-0.108285
-0.116274
-0.123069
-0.123938
-0.113268
-0.108901
-0.111503
-0.115233
-0.125531
-0.125591
-0.131168
-0.132882
-0.133907
-0.130158
-0.127545
-0.148343
-0.120891
-0.102303
-0.106961
-0.11229
-0.0977034
-0.0972605
-0.0968554
-0.0966321
-0.096475
-0.0965491
-0.097138
-0.098549
-0.101197
-0.105513
-0.112565
-0.120551
-0.127226
-0.127778
-0.116912
-0.11176
-0.113802
-0.118472
-0.128691
-0.128654
-0.134297
-0.135574
-0.135908
-0.131995
-0.129438
-0.148897
-0.123762
-0.106816
-0.109942
-0.115841
-0.101528
-0.101259
-0.101041
-0.100831
-0.100737
-0.100889
-0.101507
-0.102939
-0.10571
-0.109491
-0.117098
-0.124907
-0.131179
-0.131282
-0.120837
-0.115094
-0.116658
-0.122119
-0.131899
-0.131991
-0.138058
-0.138809
-0.138354
-0.134122
-0.131687
-0.149628
-0.126761
-0.111115
-0.113198
-0.119614
-0.105965
-0.105816
-0.105642
-0.105514
-0.105483
-0.105682
-0.106303
-0.107674
-0.110394
-0.114956
-0.12153
-0.128878
-0.134771
-0.134473
-0.124862
-0.118972
-0.119833
-0.126355
-0.135236
-0.135612
-0.142615
-0.142631
-0.141508
-0.136733
-0.134562
-0.150701
-0.129915
-0.115535
-0.116752
-0.123631
-0.110758
-0.110732
-0.110686
-0.110659
-0.110691
-0.110891
-0.111452
-0.112659
-0.115151
-0.119397
-0.125503
-0.132274
-0.137726
-0.137273
-0.12901
-0.12346
-0.124069
-0.130937
-0.138737
-0.139562
-0.148028
-0.146877
-0.145385
-0.139926
-0.138061
-0.152193
-0.133195
-0.120239
-0.120629
-0.127913
-0.115987
-0.116065
-0.116117
-0.11616
-0.116224
-0.116398
-0.116845
-0.117868
-0.119932
-0.123648
-0.128858
-0.134958
-0.140011
-0.139707
-0.133362
-0.128725
-0.129163
-0.135544
-0.142275
-0.143874
-0.154137
-0.151284
-0.149537
-0.143665
-0.141881
-0.154057
-0.136686
-0.125273
-0.124854
-0.132484
-0.121596
-0.121732
-0.121826
-0.121916
-0.121975
-0.12209
-0.122383
-0.123118
-0.12466
-0.127657
-0.131802
-0.136996
-0.141018
-0.142051
-0.138161
-0.134678
-0.134939
-0.139901
-0.145605
-0.148559
-0.160466
-0.155751
-0.153443
-0.147859
-0.14588
-0.156381
-0.140447
-0.130656
-0.129449
-0.137366
-0.12757
-0.127686
-0.127774
-0.127869
-0.127889
-0.12793
-0.128062
-0.128502
-0.129519
-0.131672
-0.134914
-0.138945
-0.142427
-0.14483
-0.143594
-0.141281
-0.140786
-0.143933
-0.148708
-0.153676
-0.166346
-0.16069
-0.157136
-0.152397
-0.150143
-0.159228
-0.144578
-0.136408
-0.134443
-0.142584
-0.133974
-0.134022
-0.134059
-0.134065
-0.134041
-0.134
-0.133998
-0.134159
-0.134737
-0.136125
-0.138537
-0.141881
-0.145748
-0.148858
-0.149659
-0.148213
-0.146355
-0.147753
-0.151848
-0.159405
-0.171718
-0.166252
-0.161271
-0.157306
-0.154806
-0.162645
-0.149159
-0.142546
-0.139868
-0.148165
-0.140857
-0.140777
-0.140707
-0.140599
-0.140464
-0.140333
-0.14024
-0.140259
-0.140565
-0.14144
-0.14316
-0.145961
-0.149849
-0.153905
-0.156084
-0.154963
-0.15176
-0.151687
-0.155403
-0.165934
-0.177455
-0.172551
-0.166228
-0.162661
-0.159928
-0.166661
-0.154234
-0.14909
-0.145761
-0.154137
-0.147189
-0.147152
-0.147227
-0.147165
-0.147147
-0.147025
-0.146926
-0.146925
-0.147156
-0.147808
-0.14922
-0.151625
-0.155312
-0.159641
-0.162316
-0.161201
-0.157302
-0.156358
-0.159676
-0.172957
-0.184105
-0.178807
-0.171656
-0.16845
-0.165528
-0.171299
-0.159838
-0.156062
-0.152156
-0.160529
-0.156063
-0.155131
-0.154392
-0.155337
-0.154778
-0.154372
-0.154154
-0.154165
-0.154465
-0.155189
-0.156442
-0.158563
-0.161733
-0.165504
-0.167922
-0.166917
-0.16332
-0.162237
-0.165039
-0.179105
-0.190092
-0.184127
-0.177258
-0.174646
-0.171629
-0.17658
-0.166008
-0.163484
-0.159091
-0.167376