/*--------------------------------*- C++ -*----------------------------------*\
| =========                 |                                                 |
| \\      /  F ield         | OpenFOAM: The Open Source CFD Toolbox           |
|  \\    /   O peration     | Version:  2.4.0                                 |
|   \\  /    A nd           | Web:      www.OpenFOAM.org                      |
|    \\/     M anipulation  |                                                 |
\*---------------------------------------------------------------------------*/
FoamFile
{
    version     2.0;
    format      ascii;
    class       surfaceScalarField;
    location    "0.185";
    object      phiAlpha;
}
// * * * * * * * * * * * * * * * * * * * * * * * * * * * * * * * * * * * * * //

dimensions      [0 3 -1 0 0 0 0];

internalField   nonuniform List<scalar> 
7080
(
3.62672e-08
-3.62672e-08
6.96359e-08
-3.33687e-08
8.93947e-08
-1.97587e-08
9.04772e-08
-1.08251e-09
7.89967e-08
1.14805e-08
5.41816e-08
2.48151e-08
3.11865e-08
2.29951e-08
1.1218e-08
1.99685e-08
-4.35797e-09
1.5576e-08
-1.16461e-08
7.28815e-09
-1.22676e-08
6.21485e-10
-2.32445e-08
1.09769e-08
-2.83439e-08
5.09936e-09
-3.53711e-08
7.02723e-09
-3.88067e-08
3.43566e-09
-1.88215e-08
-1.99852e-08
1.61253e-08
-3.48886e-08
2.79714e-08
-1.18463e-08
2.02287e-08
7.74261e-09
-3.12183e-08
5.15062e-08
-1.31776e-07
1.02047e-07
-1.90835e-07
5.90578e-08
-1.85765e-07
-5.07088e-09
-1.9233e-07
6.56223e-09
-1.76135e-07
-1.61996e-08
-1.32207e-07
-4.48436e-08
-8.97788e-08
-4.30193e-08
-5.86467e-08
-3.13377e-08
-3.03714e-08
-2.8541e-08
-2.6225e-08
-4.38599e-09
3.58507e-08
-7.21179e-08
8.25841e-08
-8.01021e-08
1.20075e-07
-5.72498e-08
1.34802e-07
-1.58096e-08
1.34475e-07
1.18078e-08
1.16895e-07
4.2395e-08
9.57414e-08
4.41488e-08
7.55561e-08
4.01538e-08
5.34003e-08
3.77318e-08
4.12451e-08
1.94435e-08
3.61624e-08
5.70416e-09
1.50069e-08
3.21324e-08
7.18635e-09
1.29199e-08
-2.16602e-08
3.58738e-08
-3.22867e-08
1.40621e-08
-2.82072e-08
-2.40617e-08
-1.89783e-08
-4.40389e-08
-9.07671e-09
-2.17506e-08
-5.94587e-08
5.81922e-08
-1.77427e-07
1.69573e-07
-2.91397e-07
2.16671e-07
-3.03115e-07
7.14733e-08
-2.74165e-07
-3.40581e-08
-2.4913e-07
-1.86388e-08
-2.00889e-07
-6.46502e-08
-1.449e-07
-1.00818e-07
-9.76865e-08
-9.02193e-08
-6.41547e-08
-6.48564e-08
-3.27289e-08
-5.99875e-08
-5.61727e-08
-2.79574e-09
3.07566e-08
-1.02875e-07
7.81393e-08
-1.27485e-07
1.18919e-07
-9.80293e-08
1.37015e-07
-3.39059e-08
1.40712e-07
8.11152e-09
1.28155e-07
5.49516e-08
1.1096e-07
6.1344e-08
9.68105e-08
5.4303e-08
7.54829e-08
5.90593e-08
6.78613e-08
2.70651e-08
6.53951e-08
8.17032e-09
4.5261e-08
5.22666e-08
4.80032e-08
1.01777e-08
1.69015e-08
6.69756e-08
4.89877e-09
2.60649e-08
-2.40653e-09
-1.67556e-08
-3.30653e-08
-1.34334e-08
-5.70046e-08
2.04514e-09
-1.34827e-07
1.35952e-07
-2.50599e-07
2.85349e-07
-3.17876e-07
2.83952e-07
-2.95661e-07
4.93159e-08
-2.60426e-07
-6.94231e-08
-2.20086e-07
-5.88727e-08
-1.67854e-07
-1.16786e-07
-1.21201e-07
-1.47468e-07
-8.21572e-08
-1.29272e-07
-5.52351e-08
-9.17647e-08
-3.09359e-08
-8.42859e-08
-8.07367e-08
-6.37147e-09
2.88443e-08
-1.31719e-07
7.61972e-08
-1.74838e-07
1.1745e-07
-1.39282e-07
1.35995e-07
-5.24511e-08
1.40286e-07
3.8202e-09
1.28622e-07
6.66159e-08
1.12415e-07
7.75511e-08
1.00889e-07
6.58289e-08
7.89773e-08
8.09709e-08
7.59786e-08
3.00639e-08
7.14547e-08
1.26942e-08
5.82776e-08
6.54437e-08
7.63756e-08
-7.92039e-09
4.86121e-08
9.47391e-08
3.44579e-08
4.02191e-08
1.92935e-08
-1.59127e-09
-4.09906e-08
4.68685e-08
-9.44149e-08
5.54654e-08
-1.72358e-07
2.13881e-07
-2.46837e-07
3.5982e-07
-2.67407e-07
3.04553e-07
-2.56583e-07
3.83907e-08
-2.32539e-07
-9.3556e-08
-1.79216e-07
-1.12278e-07
-1.37534e-07
-1.58543e-07
-1.11283e-07
-1.73965e-07
-7.85759e-08
-1.62109e-07
-4.31344e-08
-1.27212e-07
-2.6488e-08
-1.00925e-07
-9.53093e-08
-1.19067e-08
2.83036e-08
-1.60022e-07
7.58797e-08
-2.22414e-07
1.17449e-07
-1.80851e-07
1.36174e-07
-7.11762e-08
1.40446e-07
-4.51551e-10
1.28506e-07
7.85555e-08
1.12333e-07
9.37249e-08
1.01446e-07
7.67151e-08
7.79311e-08
1.04486e-07
7.82039e-08
2.97911e-08
6.53212e-08
2.55769e-08
6.307e-08
6.7695e-08
9.48336e-08
-3.9684e-08
6.9658e-08
1.19915e-07
6.04489e-08
4.94283e-08
4.29915e-08
1.58661e-08
-3.8003e-08
1.27863e-07
-1.13911e-07
1.31362e-07
-1.70255e-07
2.70206e-07
-1.91708e-07
3.81072e-07
-1.78385e-07
2.91202e-07
-1.54029e-07
1.39336e-08
-1.13938e-07
-1.3398e-07
-6.14744e-08
-1.6491e-07
-2.97714e-08
-1.90402e-07
-2.03305e-08
-1.83454e-07
-2.48633e-08
-1.57728e-07
-1.92636e-08
-1.32948e-07
-1.61234e-08
-1.04051e-07
-9.29832e-08
-1.84268e-08
2.8069e-08
-1.88091e-07
7.59308e-08
-2.70276e-07
1.17904e-07
-2.22824e-07
1.36878e-07
-9.01502e-08
1.41089e-07
-4.66246e-09
1.28648e-07
9.09963e-08
1.12477e-07
1.09895e-07
1.01525e-07
8.76675e-08
7.67565e-08
1.29255e-07
7.87114e-08
2.78362e-08
5.67436e-08
4.75446e-08
6.41346e-08
6.03041e-08
9.70929e-08
-7.26423e-08
7.96129e-08
1.37395e-07
8.49838e-08
4.40574e-08
7.19041e-08
2.89459e-08
-6.68478e-09
2.06452e-07
-8.44488e-08
2.09126e-07
-1.12993e-07
2.98978e-07
-1.11268e-07
3.79316e-07
-9.87949e-08
2.78701e-07
-7.13788e-08
-1.36097e-08
-2.34447e-08
-1.81946e-07
3.33184e-08
-2.21665e-07
6.1169e-08
-2.18184e-07
5.73749e-08
-1.7971e-07
3.14076e-08
-1.31806e-07
4.05478e-09
-1.05689e-07
-7.81163e-09
-9.22113e-08
-8.23522e-08
-1.84553e-08
2.78532e-08
-2.15945e-07
7.60378e-08
-3.1846e-07
1.18505e-07
-2.65291e-07
1.37796e-07
-1.09442e-07
1.41945e-07
-8.81155e-09
1.28887e-07
1.04055e-07
1.12852e-07
1.2593e-07
1.01478e-07
9.9041e-08
7.63607e-08
1.54372e-07
7.90473e-08
2.51496e-08
5.3726e-08
7.2866e-08
6.25883e-08
5.14418e-08
7.17522e-08
-8.18062e-08
7.07483e-08
1.38399e-07
1.01586e-07
1.322e-08
9.23935e-08
3.81383e-08
3.2294e-08
2.66551e-07
-4.30446e-08
2.84465e-07
-6.78273e-08
3.24222e-07
-3.9358e-08
3.50817e-07
-8.42498e-09
2.47741e-07
2.63293e-08
-4.83519e-08
5.34861e-08
-2.09133e-07
8.12565e-08
-2.49449e-07
9.01157e-08
-2.27055e-07
8.69407e-08
-1.76307e-07
7.36996e-08
-1.18561e-07
4.38681e-08
-7.58572e-08
1.20214e-08
-6.03644e-08
-5.69718e-08
-1.33829e-08
2.75956e-08
-2.4354e-07
7.61522e-08
-3.67017e-07
1.19207e-07
-3.08346e-07
1.38883e-07
-1.29118e-07
1.4296e-07
-1.28885e-08
1.29161e-07
1.17854e-07
1.13388e-07
1.41704e-07
1.01258e-07
1.11171e-07
7.68624e-08
1.78767e-07
7.98249e-08
2.21871e-08
5.8403e-08
9.42879e-08
6.13815e-08
4.84634e-08
3.45174e-08
-5.49421e-08
4.50193e-08
1.27897e-07
9.22483e-08
-3.4009e-08
8.1842e-08
4.85446e-08
5.4092e-08
2.94301e-07
2.16235e-09
3.36394e-07
-1.94382e-08
3.45992e-07
1.596e-08
3.16673e-07
8.07805e-08
1.83691e-07
1.18567e-07
-8.60857e-08
1.26826e-07
-2.17407e-07
1.24752e-07
-2.47388e-07
1.11609e-07
-2.13964e-07
9.50013e-08
-1.59855e-07
7.88982e-08
-1.02461e-07
5.5834e-08
-5.27926e-08
2.59823e-08
-3.05126e-08
-3.07599e-08
-2.34981e-10
2.72829e-08
-2.70823e-07
7.62662e-08
-4.16e-07
1.20006e-07
-3.52085e-07
1.40139e-07
-1.49251e-07
1.44124e-07
-1.6873e-08
1.29473e-07
1.32505e-07
1.14038e-07
1.57139e-07
1.00798e-07
1.24411e-07
7.81899e-08
2.01375e-07
7.97153e-08
2.06617e-08
6.80672e-08
1.05936e-07
6.79152e-08
4.86154e-08
1.99316e-08
-6.95837e-09
2.17557e-08
1.26073e-07
5.35732e-08
-6.58265e-08
5.53186e-08
4.67993e-08
5.99381e-08
2.89682e-07
5.19445e-08
3.44388e-07
6.64026e-08
3.31534e-07
1.05824e-07
2.77253e-07
1.6417e-07
1.25361e-07
1.84208e-07
-1.06224e-07
1.69356e-07
-2.02569e-07
1.45623e-07
-2.23724e-07
1.2144e-07
-1.89884e-07
9.59413e-08
-1.34357e-07
7.44402e-08
-8.09601e-08
5.124e-08
-2.95921e-08
2.72819e-08
-6.55545e-09
-9.24469e-09
5.76404e-09
2.69099e-08
-2.97733e-07
7.63763e-08
-4.65467e-07
1.20897e-07
-3.96606e-07
1.41572e-07
-1.69926e-07
1.45436e-07
-2.07365e-08
1.29839e-07
1.48101e-07
1.14719e-07
1.72259e-07
1.00288e-07
1.38842e-07
7.93468e-08
2.22316e-07
7.69548e-08
2.30538e-08
7.75944e-08
1.05296e-07
7.70528e-08
4.9157e-08
2.48919e-08
4.52026e-08
1.722e-08
1.33745e-07
3.09533e-08
-7.95597e-08
5.2089e-08
2.56636e-08
7.44572e-08
2.67314e-07
8.22441e-08
3.36601e-07
1.3376e-07
2.80018e-07
1.83943e-07
2.2707e-07
2.20098e-07
8.89992e-08
2.04298e-07
-9.0579e-08
1.71527e-07
-1.69915e-07
1.38807e-07
-1.91e-07
1.11413e-07
-1.6249e-07
8.45514e-08
-1.07496e-07
5.95473e-08
-5.59592e-08
3.8591e-08
-8.63572e-09
2.03077e-08
1.17274e-08
6.1507e-09
4.90954e-09
2.64723e-08
-3.24205e-07
7.64788e-08
-5.15473e-07
1.21875e-07
-4.42002e-07
1.43189e-07
-1.91241e-07
1.46899e-07
-2.44465e-08
1.30256e-07
1.64744e-07
1.15417e-07
1.87099e-07
9.99986e-08
1.54261e-07
7.93169e-08
2.42998e-07
7.25459e-08
2.98248e-08
8.41209e-08
9.37214e-08
7.87852e-08
5.44927e-08
3.49636e-08
8.90241e-08
3.07466e-08
1.37962e-07
3.70914e-08
-8.59044e-08
6.13707e-08
1.38433e-09
8.76535e-08
2.41031e-07
9.74824e-08
3.26773e-07
1.4397e-07
2.3353e-07
1.92504e-07
1.78536e-07
2.05446e-07
7.59852e-08
1.71492e-07
-5.66331e-08
1.55481e-07
-1.53904e-07
1.33991e-07
-1.6951e-07
1.09046e-07
-1.37546e-07
7.99176e-08
-7.83695e-08
4.94013e-08
-2.54455e-08
2.81781e-08
1.25887e-08
1.56861e-08
2.42185e-08
1.42615e-08
7.57732e-09
2.59658e-08
-3.50171e-07
7.65693e-08
-5.66077e-07
1.22926e-07
-4.88359e-07
1.45e-07
-2.13314e-07
1.48519e-07
-2.79664e-08
1.30709e-07
1.82555e-07
1.16205e-07
2.01603e-07
1.00029e-07
1.70437e-07
7.78635e-08
2.65163e-07
6.98729e-08
3.78155e-08
8.76232e-08
7.59711e-08
7.21946e-08
6.99213e-08
4.37093e-08
1.17509e-07
4.99773e-08
1.31694e-07
5.88649e-08
-9.4792e-08
7.09307e-08
-1.06814e-08
8.72896e-08
2.24672e-07
1.07573e-07
3.06489e-07
1.31741e-07
2.09361e-07
1.65145e-07
1.45129e-07
1.75274e-07
6.58679e-08
1.65121e-07
-4.64797e-08
1.62887e-07
-1.5167e-07
1.43261e-07
-1.49884e-07
1.1432e-07
-1.08604e-07
7.58085e-08
-3.98617e-08
3.8985e-08
1.1377e-08
2.32355e-08
2.83395e-08
1.49647e-08
3.24882e-08
1.88936e-08
1.03344e-08
2.53853e-08
-3.75556e-07
7.66413e-08
-6.17333e-07
1.24058e-07
-5.35775e-07
1.47011e-07
-2.36267e-07
1.50295e-07
-3.12512e-08
1.31186e-07
2.01664e-07
1.17194e-07
2.15594e-07
1.00136e-07
1.87495e-07
7.58928e-08
2.89406e-07
6.86664e-08
4.50419e-08
9.02872e-08
5.43503e-08
6.62842e-08
9.39244e-08
5.23899e-08
1.31404e-07
6.77861e-08
1.16297e-07
7.53406e-08
-1.02346e-07
7.57947e-08
-1.11354e-08
7.01242e-08
2.30342e-07
1.00718e-07
2.75896e-07
1.27484e-07
1.82595e-07
1.47585e-07
1.25029e-07
1.64012e-07
4.94414e-08
1.67185e-07
-4.96526e-08
1.47265e-07
-1.3175e-07
1.20921e-07
-1.23541e-07
9.42136e-08
-8.18966e-08
6.96934e-08
-1.53415e-08
4.79644e-08
3.31062e-08
3.03954e-08
4.59085e-08
1.67329e-08
4.61496e-08
1.85232e-08
1.71036e-08
2.47249e-08
-4.00281e-07
7.66879e-08
-6.69296e-07
1.25291e-07
-5.84379e-07
1.49232e-07
-2.60208e-07
1.52228e-07
-3.4247e-08
1.31695e-07
2.22197e-07
1.18391e-07
2.28898e-07
1.00336e-07
2.05551e-07
7.35409e-08
3.16201e-07
6.74205e-08
5.11623e-08
9.24354e-08
2.93354e-08
6.40926e-08
1.22267e-07
5.20109e-08
1.43485e-07
7.50939e-08
9.32145e-08
7.24566e-08
-9.97091e-08
7.86004e-08
-1.72792e-08
7.42769e-08
2.34666e-07
9.61316e-08
2.54041e-07
1.21065e-07
1.57662e-07
1.3804e-07
1.08054e-07
1.54924e-07
3.25569e-08
1.48812e-07
-4.354e-08
1.20703e-07
-1.03642e-07
9.7665e-08
-1.00503e-07
8.10455e-08
-6.52762e-08
6.78223e-08
-2.11684e-09
4.64054e-08
5.45232e-08
1.43789e-08
7.79351e-08
1.13512e-08
4.91761e-08
4.95598e-09
2.49195e-08
2.3978e-08
-4.24259e-07
7.67014e-08
-7.22019e-07
1.26641e-07
-6.34318e-07
1.51675e-07
-2.85242e-07
1.54322e-07
-3.68946e-08
1.32224e-07
2.44296e-07
1.19816e-07
2.41306e-07
1.0084e-07
2.24527e-07
7.08615e-08
3.46179e-07
6.41765e-08
5.78473e-08
9.4457e-08
-9.45136e-10
7.0881e-08
1.45843e-07
6.34914e-08
1.50875e-07
8.32421e-08
7.34639e-08
7.30242e-08
-8.94913e-08
9.22827e-08
-3.65376e-08
8.41499e-08
2.42799e-07
8.5015e-08
2.53176e-07
1.10443e-07
1.32233e-07
1.26609e-07
9.18881e-08
1.29404e-07
2.9762e-08
1.21891e-07
-3.60272e-08
9.6242e-08
-7.79925e-08
5.15855e-08
-5.5846e-08
9.40829e-09
-2.31024e-08
-8.26315e-09
1.55534e-08
-2.29652e-08
6.92253e-08
-2.40542e-08
7.90245e-08
-3.46747e-10
2.54707e-08
-8.63794e-09
1.32475e-08
2.31368e-08
-4.47396e-07
7.66733e-08
-7.75556e-07
1.2811e-07
-6.85755e-07
1.54355e-07
-3.11487e-07
1.56579e-07
-3.91184e-08
1.32752e-07
2.68123e-07
1.21457e-07
2.526e-07
1.0184e-07
2.44144e-07
6.73921e-08
3.80627e-07
6.05573e-08
6.4682e-08
9.87464e-08
-3.91342e-08
7.40787e-08
1.70511e-07
2.67139e-08
1.9824e-07
4.84263e-08
5.17515e-08
7.56892e-08
-1.16754e-07
1.13178e-07
-7.40261e-08
1.07208e-07
2.48769e-07
1.01076e-07
2.59308e-07
1.2157e-07
1.1174e-07
1.09987e-07
1.03471e-07
1.18408e-07
2.13406e-08
1.31739e-07
-4.93583e-08
1.09761e-07
-5.60141e-08
6.89471e-08
-1.50321e-08
1.69942e-08
2.88505e-08
-1.98332e-08
5.23771e-08
-3.27697e-08
8.21536e-08
-2.94731e-08
7.57222e-08
-2.34975e-08
1.94942e-08
-6.57249e-09
-2.55614e-08
2.21929e-08
-4.69589e-07
7.65923e-08
-8.29955e-07
1.29696e-07
-7.38859e-07
1.57295e-07
-3.39086e-07
1.58984e-07
-4.08069e-08
1.3321e-07
2.93896e-07
1.23517e-07
2.62294e-07
1.02612e-07
2.65049e-07
6.26034e-08
4.20636e-07
5.98102e-08
6.74753e-08
1.0591e-07
-8.52342e-08
8.42071e-08
1.92214e-07
5.39811e-08
2.28466e-07
6.83742e-08
3.73585e-08
8.90098e-08
-1.3739e-07
1.32509e-07
-1.17525e-07
1.51375e-07
2.29903e-07
1.42237e-07
2.68447e-07
1.06114e-07
1.47862e-07
8.5285e-08
1.243e-07
1.11787e-07
-5.16132e-09
1.05295e-07
-4.28662e-08
6.76376e-08
-1.83567e-08
5.37406e-08
-1.13513e-09
4.07096e-08
4.18816e-08
1.07021e-08
8.23893e-08
-2.75766e-09
9.56088e-08
-2.83346e-09
7.57927e-08
-1.66854e-08
3.33432e-08
1.33059e-08
-3.65597e-08
2.11387e-08
-4.90728e-07
7.64356e-08
-8.85252e-07
1.31384e-07
-7.93807e-07
1.60515e-07
-3.68217e-07
1.61446e-07
-4.17377e-08
1.3366e-07
3.21682e-07
1.25894e-07
2.7006e-07
1.05591e-07
2.85353e-07
5.65799e-08
4.69647e-07
5.51718e-08
6.88834e-08
1.13388e-07
-1.43451e-07
7.77969e-08
2.27806e-07
2.05894e-08
2.85673e-07
3.78492e-08
2.00986e-08
7.58554e-08
-1.75396e-07
1.25123e-07
-1.66793e-07
1.29801e-07
2.25225e-07
1.18039e-07
2.80209e-07
9.02874e-08
1.75613e-07
7.86783e-08
1.35909e-07
7.55785e-08
-2.06151e-09
1.82237e-08
1.44879e-08
-1.85416e-08
1.8409e-08
-1.47348e-09
-1.82027e-08
2.84713e-08
1.19361e-08
3.59393e-08
7.49213e-08
4.1956e-08
8.95969e-08
4.62095e-08
7.15383e-08
3.10497e-08
4.85022e-08
4.12893e-08
3.07038e-09
1.9974e-08
-5.10702e-07
7.61354e-08
-9.41413e-07
1.33114e-07
-8.50786e-07
1.6396e-07
-3.99063e-07
1.63778e-07
-4.15554e-08
1.33865e-07
3.51595e-07
1.29996e-07
2.73929e-07
1.00303e-07
3.15046e-07
5.83347e-08
5.11615e-07
5.78121e-08
6.9406e-08
1.13146e-07
-1.98785e-07
7.23037e-08
2.68648e-07
-7.50954e-09
3.65486e-07
2.86221e-08
-1.6033e-08
7.97429e-08
-2.26517e-07
1.19916e-07
-2.06489e-07
1.05143e-07
2.40107e-07
8.95572e-08
2.95796e-07
9.89162e-08
1.66255e-07
6.93741e-08
1.65451e-07
-1.06868e-09
6.83813e-08
-6.45342e-08
7.7954e-08
-7.71133e-08
3.09873e-08
-5.6736e-08
-3.85807e-08
-2.17763e-08
-2.30249e-08
1.0866e-08
4.22775e-08
3.37853e-08
6.66808e-08
5.022e-08
5.51129e-08
4.46127e-08
5.41169e-08
6.06949e-08
2.52073e-08
1.87361e-08
-5.29438e-07
7.54731e-08
-9.9815e-07
1.34645e-07
-9.09958e-07
1.67289e-07
-4.31707e-07
1.65352e-07
-3.96188e-08
1.34574e-07
3.82373e-07
1.31942e-07
2.7656e-07
1.13766e-07
3.33222e-07
3.99601e-08
5.85421e-07
2.04336e-08
8.89324e-08
1.12021e-07
-2.90372e-07
5.87736e-08
3.21896e-07
-1.81261e-09
4.26073e-07
5.58302e-08
-7.36758e-08
6.94107e-08
-2.40097e-07
1.00086e-07
-2.37301e-07
6.81477e-08
2.72237e-07
5.48405e-08
3.09103e-07
6.13596e-08
1.59735e-07
5.57577e-08
1.71053e-07
5.92028e-09
1.18219e-07
-8.61984e-08
1.70075e-07
-1.08723e-07
5.35163e-08
-1.03406e-07
-4.38991e-08
-7.62389e-08
-5.01941e-08
-4.12711e-08
7.30817e-09
-1.32322e-08
3.86376e-08
1.19558e-08
2.9924e-08
2.11385e-08
4.49315e-08
6.60814e-08
1.57496e-08
1.75821e-08
-5.4702e-07
7.37851e-08
-1.05435e-06
1.35085e-07
-9.71257e-07
1.69256e-07
-4.65879e-07
1.64805e-07
-3.51669e-08
1.32493e-07
4.14684e-07
1.38106e-07
2.70947e-07
8.52005e-08
3.86128e-07
4.67745e-08
6.23847e-07
4.19298e-08
9.37772e-08
1.13346e-07
-3.60919e-07
5.6152e-08
3.79096e-07
-1.41042e-08
4.96329e-07
9.74304e-08
-1.8521e-07
1.11957e-07
-2.54592e-07
9.14689e-08
-2.1695e-07
8.29669e-08
2.80315e-07
6.85813e-08
3.23489e-07
1.35118e-08
2.1479e-07
4.49181e-09
1.80073e-07
3.43207e-08
8.72784e-08
-1.84403e-08
2.22875e-07
-4.82964e-08
8.33724e-08
-6.40201e-08
-2.81755e-08
-7.30807e-08
-4.11334e-08
-5.92833e-08
-6.48912e-09
-3.86625e-08
1.80172e-08
-2.34898e-08
1.47528e-08
-1.01948e-08
3.16358e-08
5.39478e-08
1.93814e-09
1.69408e-08
-5.63961e-07
6.93822e-08
-1.10679e-06
1.31776e-07
-1.03365e-06
1.66556e-07
-5.00659e-07
1.56949e-07
-2.55598e-08
1.24605e-07
4.47028e-07
1.21622e-07
2.73929e-07
1.18844e-07
3.88906e-07
7.82015e-08
6.6449e-07
5.07017e-08
1.21277e-07
1.72816e-07
-4.72996e-07
1.40777e-07
4.11141e-07
-8.51196e-09
6.45473e-07
1.06674e-07
-3.00396e-07
1.80686e-07
-3.28295e-07
1.06165e-07
-1.42571e-07
9.34932e-08
2.92863e-07
9.01286e-08
3.2708e-07
4.47055e-08
2.60219e-07
-4.98784e-09
2.29207e-07
4.55325e-08
3.67432e-08
6.33499e-08
2.05058e-07
2.34771e-08
1.23245e-07
2.44953e-09
-7.14792e-09
-1.81257e-08
-2.05582e-08
-2.37792e-08
-8.35604e-10
-2.07761e-08
1.50134e-08
-2.22997e-08
1.62765e-08
-1.77062e-08
2.70461e-08
3.98826e-08
-3.63889e-09
1.70817e-08
-5.81042e-07
5.88914e-08
-1.1486e-06
1.18729e-07
-1.09349e-06
1.52351e-07
-5.34281e-07
1.31275e-07
-4.48409e-09
8.59672e-08
4.92337e-07
6.83549e-08
2.91542e-07
4.0249e-08
4.17012e-07
-1.23401e-08
7.17079e-07
-4.68048e-08
1.56572e-07
-3.36777e-08
-4.86535e-07
-2.91109e-08
3.9738e-07
-1.16649e-07
7.31762e-07
2.63902e-08
-4.43435e-07
1.94439e-07
-4.97559e-07
1.19836e-07
-6.81083e-08
9.40437e-08
3.20197e-07
8.65924e-08
3.35047e-07
8.18798e-08
2.64934e-07
3.38441e-08
2.74592e-07
3.51248e-08
3.54503e-08
8.06542e-08
1.57976e-07
5.99133e-08
1.44021e-07
3.06523e-08
2.2113e-08
9.48222e-09
6.11795e-10
8.04906e-09
5.96562e-10
7.20264e-09
1.58588e-08
-2.27431e-10
2.37039e-08
-8.36015e-09
3.51786e-08
4.11958e-08
-9.67274e-09
2.11205e-08
-6.02163e-07
3.78618e-08
-1.16535e-06
8.73872e-08
-1.14301e-06
1.204e-07
-5.67293e-07
7.92416e-08
3.66768e-08
3.91871e-08
5.32391e-07
4.93719e-08
2.81357e-07
7.51697e-09
4.58052e-07
-1.70732e-08
7.40447e-07
-9.55266e-08
2.3698e-07
-1.3277e-07
-4.4977e-07
-1.09819e-07
3.73992e-07
-2.0878e-07
8.29433e-07
-9.88154e-08
-5.53399e-07
8.99104e-08
-6.87486e-07
3.57381e-08
-1.42983e-08
-2.31967e-08
3.80072e-07
-2.91742e-08
3.41169e-07
4.88029e-08
1.86959e-07
6.83504e-08
2.55027e-07
3.64491e-08
6.73394e-08
7.65541e-08
1.19528e-07
7.44278e-08
1.46555e-07
3.21661e-08
6.43736e-08
9.17893e-09
2.35899e-08
1.1115e-08
-1.34162e-09
8.19088e-09
1.8781e-08
2.30388e-09
2.9591e-08
-9.14718e-09
4.66295e-08
5.21174e-08
-2.00687e-08
1.23761e-08
-6.14539e-07
5.46503e-09
-1.15843e-06
3.682e-08
-1.17437e-06
8.24116e-08
-6.12883e-07
4.193e-08
5.96752e-08
-5.11562e-08
6.25477e-07
-1.59785e-07
3.90605e-07
-8.76414e-08
3.66387e-07
-6.53501e-09
6.57986e-07
-1.3013e-07
3.5825e-07
-1.43512e-07
-4.43944e-07
-1.25353e-07
3.6174e-07
-1.90054e-07
8.94757e-07
-1.62798e-07
-5.80922e-07
-7.0174e-08
-7.79282e-07
-9.02698e-08
5.43904e-09
-1.79817e-07
4.69642e-07
-9.9872e-08
2.61242e-07
6.78672e-08
1.86906e-08
1.15651e-07
2.08866e-07
7.00766e-08
1.12901e-07
5.03797e-08
1.40514e-07
4.04996e-08
1.56616e-07
1.53536e-09
1.03339e-07
-9.7891e-09
3.49148e-08
-1.24812e-08
1.3522e-09
-1.2864e-08
1.91667e-08
-8.59013e-09
2.53213e-08
-1.02081e-08
4.82472e-08
5.71356e-08
-1.52268e-08
2.81888e-08
-6.42728e-07
-2.85669e-08
-1.10168e-06
-8.25453e-09
-1.19466e-06
3.3868e-08
-2.30523e-07
-1.25361e-08
7.86686e-09
-2.5057e-07
4.77956e-07
-4.26441e-07
5.59955e-07
-1.66818e-07
9.94126e-08
-3.10229e-08
5.23126e-07
-1.80758e-07
5.10058e-07
-2.53889e-07
-3.70589e-07
-2.47033e-07
3.55278e-07
-1.46501e-07
7.9433e-07
-1.5691e-07
-5.70552e-07
-1.76637e-07
-7.58248e-07
-1.42592e-07
-2.9298e-08
-1.48527e-07
4.75601e-07
-6.5574e-08
1.78426e-07
2.79713e-08
-7.48864e-08
1.52155e-08
2.21745e-07
-4.27859e-08
1.7205e-07
3.46275e-09
9.42647e-08
2.27596e-08
1.37319e-07
-1.84857e-08
1.44579e-07
-2.97613e-08
4.61931e-08
-2.64135e-08
-1.99576e-09
-1.81484e-08
1.09017e-08
-1.16995e-08
1.88722e-08
-5.07377e-09
4.16219e-08
5.10842e-08
9.7732e-10
-4.46652e-08
-5.98063e-07
-4.77275e-08
-1.09861e-06
-6.16445e-09
-4.23806e-07
-3.23207e-08
-1.09272e-08
-2.25027e-07
4.94203e-09
-4.16566e-07
1.88584e-07
-3.93873e-07
4.88651e-07
-2.96445e-07
-2.0717e-09
-1.30336e-07
3.57208e-07
-1.67401e-07
5.48062e-07
-3.54297e-07
-1.83736e-07
-2.98871e-07
2.98092e-07
-1.12157e-07
6.07648e-07
-1.77216e-07
-5.0555e-07
-3.0162e-07
-6.33894e-07
-2.48535e-07
-8.29299e-08
-1.21712e-07
3.47002e-07
-1.02662e-07
1.59086e-07
-1.10167e-07
-6.75379e-08
-8.56775e-08
1.97238e-07
-6.65867e-08
1.52958e-07
3.95546e-09
2.37222e-08
4.41737e-08
9.71011e-08
1.28199e-08
1.75928e-07
-5.80362e-09
6.48144e-08
-1.66793e-08
8.87977e-09
-1.6147e-08
1.03692e-08
-1.3263e-08
1.5988e-08
-3.3057e-09
3.16644e-08
4.01254e-08
7.65312e-09
-3.4233e-08
-5.63826e-07
1.35503e-07
-1.05254e-06
-7.3573e-09
-2.33798e-08
-3.57835e-08
-1.22767e-09
-3.09102e-07
-3.84857e-08
-4.85024e-07
2.34188e-08
-5.26938e-07
4.07957e-07
-5.49794e-07
-6.06386e-09
-2.57906e-07
6.02065e-08
-1.75433e-07
4.65625e-07
-4.10868e-07
5.18132e-08
-2.03913e-07
8.97944e-08
1.89367e-08
3.82146e-07
-1.80109e-07
-3.06639e-07
-3.66114e-07
-4.47975e-07
-3.10745e-07
-1.38407e-07
-1.1692e-07
1.51958e-07
-1.06627e-07
1.48671e-07
-1.31086e-07
-4.30786e-08
-7.76515e-08
1.43804e-07
-3.77789e-08
1.13085e-07
-4.77649e-08
3.3708e-08
-7.99574e-09
5.73318e-08
4.79959e-08
1.19936e-07
5.7576e-08
5.52342e-08
3.07075e-08
3.57482e-08
4.17159e-09
3.69051e-08
-6.65425e-09
2.68138e-08
-2.38269e-09
2.73928e-08
3.07557e-08
6.98696e-09
-9.34904e-08
-4.25963e-07
2.88106e-08
-3.36632e-07
-1.47227e-09
-5.34258e-09
1.48652e-11
-4.15047e-10
-6.53713e-08
-1.82929e-09
-5.10682e-07
2.16464e-09
-6.35135e-07
2.52214e-07
-6.65148e-07
-6.12987e-08
-4.22788e-07
-1.94273e-07
-2.40977e-07
2.8385e-07
-3.63233e-07
1.74102e-07
-1.93058e-07
-8.03545e-08
1.70698e-08
1.72077e-07
-1.44843e-07
-1.44822e-07
-3.37342e-07
-2.53745e-07
-3.63639e-07
-1.02045e-07
-1.4109e-07
-6.3804e-08
-5.42445e-08
6.16955e-08
-9.11344e-08
-4.66726e-09
-2.11599e-08
7.38293e-08
4.20312e-08
3.49141e-08
2.11636e-09
4.81852e-08
-8.80057e-09
4.57712e-08
5.30761e-08
4.13887e-08
6.55083e-08
2.53609e-08
5.02377e-08
3.16082e-08
4.03729e-08
2.78257e-08
2.49837e-08
2.41955e-08
1.49629e-08
2.04997e-08
1.89103e-08
9.43197e-09
3.20716e-07
-3.17071e-07
5.198e-09
-1.91309e-09
6.15814e-11
-1.13945e-11
5.7361e-10
1.40903e-11
-5.86111e-09
6.39661e-11
-1.96754e-07
-1.4349e-09
-3.43451e-07
1.68505e-08
-5.49909e-07
-3.59927e-08
-5.52939e-07
-2.7281e-07
-3.42939e-07
6.48998e-08
-3.16803e-07
1.51061e-07
-3.45577e-07
-5.72128e-08
-1.46703e-07
-1.76135e-08
-1.14222e-07
-4.65178e-08
-1.63066e-07
-2.14858e-08
-1.45797e-07
-1.05681e-08
-1.2757e-07
-1.28943e-10
-9.03722e-09
-8.59905e-11
5.13158e-09
-2.51499e-11
3.13302e-08
1.14706e-10
2.23292e-08
3.2985e-11
2.53158e-08
1.54201e-10
3.33438e-08
-2.08892e-10
3.36079e-08
2.16719e-10
2.41888e-08
1.79626e-13
2.43811e-08
-1.24848e-10
2.29522e-08
-2.34221e-11
1.85888e-08
3.92821e-11
1.2197e-08
-4.75931e-11
6.97119e-09
-8.36788e-11
2.34779e-08
-2.81047e-08
4.89995e-08
-2.57837e-08
8.67018e-08
-3.80116e-08
1.25067e-07
-3.9189e-08
1.59887e-07
-3.49108e-08
1.74543e-07
-1.47527e-08
1.84606e-07
-1.01708e-08
2.21546e-07
-3.70583e-08
1.76972e-07
4.6093e-08
6.12563e-08
1.16369e-07
-3.89757e-09
6.50876e-08
-1.9426e-08
1.55284e-08
-1.02409e-08
-9.1852e-09
2.50735e-08
-3.51787e-08
4.65561e-08
-2.14717e-08
4.34928e-08
3.06332e-09
3.44027e-08
9.09004e-09
2.7603e-08
6.79966e-09
1.32371e-08
1.4366e-08
4.78152e-09
8.45554e-09
-1.16157e-08
1.63972e-08
-2.66385e-08
1.50228e-08
-4.11123e-08
1.44739e-08
-5.5903e-08
1.47906e-08
-7.6435e-08
2.05321e-08
-8.66998e-08
1.02648e-08
-8.75401e-08
8.40229e-10
-6.89398e-08
-1.86003e-08
-3.59499e-08
-3.299e-08
-3.59498e-08
2.51175e-08
-5.60177e-08
5.49879e-08
-5.56539e-08
8.99864e-08
-7.30098e-08
1.36753e-07
-8.59553e-08
1.89013e-07
-8.73712e-08
2.37345e-07
-6.32667e-08
2.72896e-07
-4.5731e-08
3.16311e-07
-8.03998e-08
3.14723e-07
4.80147e-08
2.06849e-07
2.24566e-07
8.23928e-08
1.89579e-07
2.26081e-08
7.53464e-08
3.05287e-08
-1.71425e-08
4.28865e-08
-4.74545e-08
4.66914e-08
-2.52458e-08
3.37643e-08
1.59905e-08
9.13338e-10
4.1941e-08
-1.11469e-08
1.88599e-08
-3.81859e-08
4.14051e-08
-5.20442e-08
2.23137e-08
-7.47359e-08
3.90889e-08
-9.3893e-08
3.41799e-08
-1.06517e-07
2.70976e-08
-1.18254e-07
2.65281e-08
-1.31465e-07
3.37427e-08
-1.30624e-07
9.4239e-09
-1.18114e-07
-1.16701e-08
-8.18655e-08
-5.48484e-08
-3.55329e-08
-7.93225e-08
-7.14827e-08
1.39255e-08
-7.63144e-08
3.52125e-08
-7.6939e-08
6.05507e-08
-9.83109e-08
1.00866e-07
-1.26194e-07
1.51163e-07
-1.37619e-07
2.06489e-07
-1.18627e-07
2.47359e-07
-8.6643e-08
2.84011e-07
-1.17437e-07
3.05896e-07
2.6084e-08
2.57345e-07
2.73275e-07
1.57728e-07
2.89209e-07
7.97652e-08
1.53323e-07
5.27774e-08
9.70844e-09
2.21444e-08
-1.69011e-08
1.13207e-08
-1.44078e-08
-3.60773e-09
3.09189e-08
-4.00541e-08
7.83874e-08
-4.31621e-08
2.19679e-08
-6.96787e-08
6.79217e-08
-7.99238e-08
3.25587e-08
-9.7361e-08
5.65262e-08
-1.14814e-07
5.16331e-08
-1.2124e-07
3.35232e-08
-1.292e-07
3.44883e-08
-1.37578e-07
4.21206e-08
-1.32843e-07
4.68949e-09
-1.16988e-07
-2.75256e-08
-7.74517e-08
-9.43845e-08
-3.04503e-08
-1.26324e-07
-1.01933e-07
1.08717e-09
-8.92793e-08
2.33061e-08
-9.9104e-08
5.60744e-08
-1.31169e-07
8.25441e-08
-1.53093e-07
1.09083e-07
-1.64183e-07
1.47094e-07
-1.56666e-07
2.03107e-07
-1.42684e-07
2.29869e-07
-1.44226e-07
2.47921e-07
8.00353e-09
2.47453e-07
2.73798e-07
1.92394e-07
3.44282e-07
1.21316e-07
2.24416e-07
6.5224e-08
6.57893e-08
2.64045e-09
4.57e-08
-1.83671e-08
6.60027e-09
-3.60103e-08
4.8562e-08
-6.95779e-08
1.11955e-07
-5.80673e-08
1.04573e-08
-7.76101e-08
8.74645e-08
-8.85666e-08
4.35153e-08
-1.01208e-07
6.91679e-08
-1.18882e-07
6.93066e-08
-1.22513e-07
3.71548e-08
-1.29491e-07
4.14659e-08
-1.36996e-07
4.96254e-08
-1.31792e-07
-5.14397e-10
-1.15516e-07
-4.38017e-08
-7.55339e-08
-1.34366e-07
-2.85425e-08
-1.73315e-07
-1.30475e-07
-1.78088e-08
-8.98696e-08
-1.15106e-08
-1.05397e-07
-1.54069e-08
-1.2737e-07
-2.15407e-08
-1.46953e-07
-1.19335e-08
-1.74012e-07
2.2383e-08
-1.91141e-07
7.68089e-08
-1.97273e-07
1.18009e-07
-1.8576e-07
1.51788e-07
-2.60261e-08
1.78163e-07
2.47339e-07
1.73814e-07
3.48439e-07
1.30554e-07
2.67415e-07
6.19915e-08
1.34339e-07
-1.85297e-08
1.26221e-07
-4.39912e-08
3.20618e-08
-5.8092e-08
6.26628e-08
-8.9992e-08
1.43855e-07
-6.42219e-08
-1.53128e-08
-7.27573e-08
9.59999e-08
-9.1178e-08
6.19359e-08
-1.0081e-07
7.88003e-08
-1.19845e-07
8.83409e-08
-1.2244e-07
3.97499e-08
-1.2923e-07
4.8256e-08
-1.36941e-07
5.73361e-08
-1.31917e-07
-5.53815e-09
-1.15507e-07
-6.0212e-08
-7.52455e-08
-1.74627e-07
-2.80057e-08
-2.20555e-07
-1.58481e-07
-2.90073e-08
-7.93744e-08
-4.84136e-08
-8.60669e-08
-8.0123e-08
-9.57964e-08
-9.83741e-08
-1.28695e-07
-9.25282e-08
-1.7976e-07
-5.99583e-08
-2.23659e-07
-7.80516e-09
-2.49367e-07
3.4474e-08
-2.27973e-07
7.29829e-08
-6.4615e-08
1.04124e-07
2.16115e-07
1.15014e-07
3.37453e-07
9.74963e-08
2.85685e-07
2.97468e-08
2.02106e-07
-4.87791e-08
2.04747e-07
-6.91349e-08
5.24176e-08
-7.09906e-08
6.45184e-08
-9.68959e-08
1.6976e-07
-6.58559e-08
-4.63528e-08
-6.41246e-08
9.42685e-08
-9.20446e-08
8.98559e-08
-1.00501e-07
8.72569e-08
-1.20508e-07
1.08348e-07
-1.22637e-07
4.18791e-08
-1.29193e-07
5.4812e-08
-1.37308e-07
6.54504e-08
-1.32552e-07
-1.02938e-08
-1.15954e-07
-7.68096e-08
-7.53336e-08
-2.15248e-07
-2.77763e-08
-2.68113e-07
-1.86257e-07
-3.91507e-08
-5.36081e-08
-6.98762e-08
-5.53415e-08
-9.14829e-08
-7.41897e-08
-1.01841e-07
-1.18301e-07
-1.07455e-07
-1.74075e-07
-1.01552e-07
-2.29588e-07
-8.01415e-08
-2.70806e-07
-6.18659e-08
-2.46222e-07
-1.81266e-08
-1.08266e-07
3.84698e-08
1.59684e-07
7.31758e-08
3.03572e-07
5.37792e-08
3.05657e-07
-1.41277e-08
2.70012e-07
-7.42519e-08
2.64871e-07
-8.91311e-08
6.72968e-08
-6.78782e-08
4.32655e-08
-7.86689e-08
1.80551e-07
-6.48431e-08
-6.01786e-08
-5.89553e-08
8.83808e-08
-9.26251e-08
1.23526e-07
-1.01153e-07
9.57845e-08
-1.21132e-07
1.28327e-07
-1.2308e-07
4.38269e-08
-1.29209e-07
6.09411e-08
-1.37827e-07
7.40682e-08
-1.3339e-07
-1.47307e-08
-1.1655e-07
-9.36494e-08
-7.54858e-08
-2.56312e-07
-2.75667e-08
-3.16032e-07
-2.13824e-07
-2.63331e-08
-2.75107e-08
-5.44487e-08
-2.72259e-08
-7.74023e-08
-5.1236e-08
-9.56886e-08
-1.00015e-07
-1.15379e-07
-1.54495e-07
-1.32763e-07
-2.1235e-07
-1.39421e-07
-2.64198e-07
-1.39895e-07
-2.45795e-07
-1.01883e-07
-1.463e-07
-2.64299e-08
8.45573e-08
1.37788e-08
2.63756e-07
3.27848e-09
3.16176e-07
-4.05154e-08
3.13808e-07
-7.15303e-08
2.95886e-07
-8.77489e-08
8.35154e-08
-4.50412e-08
5.57799e-10
-4.2058e-08
1.77568e-07
-6.26657e-08
-3.95709e-08
-6.01223e-08
8.58374e-08
-9.37138e-08
1.57117e-07
-1.02884e-07
1.04955e-07
-1.21652e-07
1.47095e-07
-1.23695e-07
4.58704e-08
-1.29214e-07
6.64599e-08
-1.38438e-07
8.32919e-08
-1.34383e-07
-1.87858e-08
-1.17249e-07
-1.10784e-07
-7.56541e-08
-2.97906e-07
-2.73165e-08
-3.6437e-07
-2.41141e-07
-1.51452e-08
-6.60144e-09
-3.92546e-08
-3.11645e-09
-6.36499e-08
-2.68402e-08
-8.42171e-08
-7.94477e-08
-1.06882e-07
-1.31831e-07
-1.30546e-07
-1.88685e-07
-1.57591e-07
-2.37266e-07
-1.76462e-07
-2.2701e-07
-1.74825e-07
-1.48038e-07
-1.22233e-07
3.18565e-08
-7.76002e-08
2.19123e-07
-4.71365e-08
2.85712e-07
-4.70033e-08
3.13677e-07
-4.63006e-08
2.95183e-07
-5.15083e-08
8.87232e-08
-1.75028e-08
-3.34477e-08
-1.9212e-08
1.79277e-07
-6.57037e-08
6.92072e-09
-6.70766e-08
8.72104e-08
-9.44244e-08
1.84465e-07
-1.05818e-07
1.16348e-07
-1.22031e-07
1.63308e-07
-1.24397e-07
4.82367e-08
-1.29213e-07
7.12755e-08
-1.39129e-07
9.32077e-08
-1.35533e-07
-2.23815e-08
-1.18047e-07
-1.28269e-07
-7.58311e-08
-3.40122e-07
-2.70126e-08
-4.13188e-07
-2.68153e-07
-8.00388e-09
6.31256e-09
-2.40267e-08
1.29067e-08
-4.3082e-08
-7.78452e-09
-6.57532e-08
-5.67774e-08
-8.7957e-08
-1.09628e-07
-1.13163e-07
-1.63479e-07
-1.43394e-07
-2.07036e-07
-1.70295e-07
-2.00109e-07
-2.03753e-07
-1.14681e-07
-1.85559e-07
1.34435e-08
-1.33083e-07
1.66647e-07
-7.72108e-08
2.2984e-07
-6.17903e-08
2.98256e-07
-3.59397e-08
2.69333e-07
-1.97864e-08
7.25699e-08
-3.03569e-09
-5.01984e-08
-1.52647e-08
1.91506e-07