/*--------------------------------*- C++ -*----------------------------------*\
| =========                 |                                                 |
| \\      /  F ield         | OpenFOAM: The Open Source CFD Toolbox           |
|  \\    /   O peration     | Version:  2.4.0                                 |
|   \\  /    A nd           | Web:      www.OpenFOAM.org                      |
|    \\/     M anipulation  |                                                 |
\*---------------------------------------------------------------------------*/
FoamFile
{
    version     2.0;
    format      ascii;
    class       volScalarField;
    location    "0.061";
    object      alpha.water;
}
// * * * * * * * * * * * * * * * * * * * * * * * * * * * * * * * * * * * * * //

dimensions      [0 0 0 0 0 0 0];

internalField   nonuniform List<scalar> 
3600
(
1
1.00002
1.00002
1.00002
1.00002
1.00001
1.00001
1.00001
1.00001
1.00001
1
1
1
1
1
1
1
1
1
1
1
1
1
1
1
1
1
1
1
1
1.00005
1.00004
1.00004
1.00003
1.00003
1.00002
1.00002
1.00001
1.00001
1.00001
1.00001
1.00001
1
1
1
1
1
1
1
1
1
1
1
1
1
1
1
1
1
1
1.00003
1.00003
1.00003
1.00002
1.00002
1.00002
1.00001
1.00001
1.00001
1.00001
1.00001
1
1
1
1
1
1
1
1
1
1
1
1
1
1
1
1
1
1
1
1.00003
1.00003
1.00002
1.00002
1.00002
1.00001
1.00001
1.00001
1.00001
1.00001
1
1
1
1
1
1
1
1
1
1
1
1
1
1
1
1
1
1
1
1
1.00003
1.00002
1.00002
1.00002
1.00001
1.00001
1.00001
1.00001
1.00001
1
1
1
1
1
1
1
1
1
1
1
1
1
1
1
1
1
1
1
1
1
1.00002
1.00002
1.00001
1.00001
1.00001
1.00001
1.00001
1
1
1
1
1
1
1
1
1
1
1
1
1
1
1
1
1
1
1
1
1
1
1
1.00001
1.00001
1.00001
1.00001
1.00001
1
1
1
1
1
1
1
1
1
1
1
1
1
1
1
1
1
1
1
1
1
1
1
1
1
1.00001
1
1
1
1
1
1
1
1
1
1
1
1
1
1
1
1
1
1
1
1
1
1
1
1
1
1
1
1
1
0.999998
0.999996
0.999996
0.999997
0.999998
0.999999
0.999999
1
1
1
1
1
1
1
1
1
1
1
1
1
1
1
1
1
1
1
1
1
1
1
0.999992
0.999992
0.999994
0.999995
0.999996
0.999996
0.999998
0.999999
0.999999
1
1
1
1
1
1
1
1
1
1
1
1
1
1
1
1
1
1
1
1
1
0.999989
0.999989
0.999987
0.999988
0.99999
0.999995
0.999997
0.999998
0.999999
0.999999
1
1
1
1
1
1
1
1
1
1
1
1
1
1
1
1
1
1
1
1
0.999986
0.999986
0.999985
0.999985
0.999991
0.999995
0.999997
0.999998
0.999998
0.999999
0.999999
1
1
1
1
1
1
1
1
1
1
1
1
1
1
1
1
1
1
1
0.999985
0.999985
0.999986
0.999991
0.999996
0.999996
0.999996
0.999997
0.999997
0.999998
0.999999
0.999999
1
1
1
1
1
1
1
1
1
1
1
1
1
1
1
1
1
1
0.999986
0.999985
0.999993
0.999995
0.999996
0.999996
0.999994
0.999996
0.999997
0.999998
0.999998
0.999999
1
1
1
1
1
1
1
1
1
1
1
1
1
1
1
1
1
1
0.999988
0.999992
0.999996
0.999996
0.99999
0.99999
0.999993
0.999996
0.999996
0.999997
0.999998
0.999999
1
1
1
1
1
1
1
1
1
1
1
1
1
1
1
1
1
1
0.999989
0.99999
0.999983
0.999991
0.999987
0.999988
0.999993
0.999995
0.999995
0.999997
0.999998
0.999999
1
1
1
1
1
1
1
1
1
1
1
1
1
1
1
1
1
1
0.999988
0.999979
0.999979
0.999989
0.999991
0.999991
0.99999
0.999993
0.999993
0.999996
0.999997
0.999999
1
1
1
1
1
1
1
1
1
1
1
1
1
1
1
1
1
1
0.999989
0.999989
0.999979
0.99999
0.999991
0.999991
0.999991
0.999988
0.999991
0.999992
0.999996
0.999999
0.999999
1
1
1
1
1
1
1
1
1
1
1
1
1
1
1
1
1
0.999989
0.999987
0.999987
0.999974
0.999957
0.99995
0.999965
0.999988
0.999981
0.999994
0.999996
0.999998
0.999999
1
1
1
1
1
1
1
1
1
1
1
1
1
1
1
1
1
0.99996
0.999901
0.999987
0.999923
0.999914
0.999908
0.999908
0.999942
0.999981
0.999995
0.999995
0.999995
0.999999
1
1
1
1
1
1
1
1
1
1
1
1
1
1
1
1
1
0.99996
0.999959
0.999541
0.998934
0.999579
0.999917
0.999908
0.999922
0.999974
0.999974
0.999989
0.999997
0.999999
1
1
1
1
1
1
1
1
1
1
1
1
1
1
1
1
1
0.99962
0.99972
0.995648
0.998257
0.999921
0.999977
0.999946
0.999982
0.999988
0.99998
0.99998
0.999998
0.999999
0.999999
1
1
1
1
1
1
1
1
1
1
1
1
1
1
1
1
0.992014
0.991377
0.989468
0.994262
0.999978
1
0.999999
1
1
0.999995
0.99999
0.999991
0.999999
0.999999
1
1
1
1
1
1
1
1
1
1
1
1
1
1
1
1
0.989458
0.98946
0.989464
0.991263
0.99996
1
1
1
1
1
0.999996
0.999991
0.999992
1
1
1
1
1
1
1
1
1
1
1
1
1
1
1
1
1
0.98945
0.995836
0.989756
0.993232
0.999985
1
1
1
1
1
0.999999
0.999995
0.999995
0.999999
1
1
1
1
1
1
1
1
1
1
1
1
1
1
1
1
0.989475
0.999741
0.998685
0.999152
0.998809
0.999998
1
1
1
1
1
1
1
1
1
1
1
1
1
1
1
1
1
1
1
1
1
1
1
1
0.993788
0.999754
0.999858
0.99986
0.998809
0.999974
1
1
1
1
1
1
1
1
1
1
1
1
1
1
1
1
1
1
1
1
1
1
1
1
0.993969
0.999902
0.999886
0.999883
0.99899
0.999909
0.999976
0.999971
1
1
1
1
1
1
1
1
1
1
1
1
1
1
1
1
1
1
1
1
1
1
0.593394
0.853789
0.888348
0.975749
0.999969
1
1
1
1
1
1
1
1
0.990304
1
1
1
0.939888
0.995167
1
1
1
1
1
1
1
1
1
1
1
0.260119
0.50727
0.855201
0.525288
0.840871
0.970621
0.961325
0.992199
0.953356
0.952105
0.84278
0.896289
0.959122
0.872574
0.821484
0.883947
0.546982
0.318409
0.57211
0.878123
0.998749
1
1
1
1
1
1
1
1
1
1
0.999999
1
1
1
1
1
1
1
1
1
1
1
1
1
1
1
1
1
1
1
1
1
1
1
1
1
1
1
1
1
0.999999
1
1
1
1
1
1
1
1
1
1
1
1
1
1
1
1
1
1
1
1
1
1
1
1
1
1
1
1
1
0.999999
1
1
1
1
1
1
1
1
1
1
1
1
1
1
1
1
1
1
1
1
1
1
1
1
1
1
1
1
1
0.999999
1
1
1
1
1
1
1
1
1
1
1
1
1
1
1
1
1
1
1
1
1
1
1
1
1
1
1
1
1
0.999999
1
1
1
1
1
1
1
1
1
1
1
1
1
1
1
1
1
1
1
1
1
1
1
1
1
1
1
1
1
0.999999
1
1
1
1
1
1
1
1
1
1
1
1
1
1
1
1
1
1
1
1
1
1
1
1
1
1
1
1
1
0.999999
1
1
1
1
1
1
1
1
1
1
1
1
1
1
1
1
1
1
1
1
1
1
1
1
1
1
1
1
1
0.999999
1
1
1
1
1
1
1
1
1
1
1
1
1
1
1
1
1
1
1
1
1
1
1
1
1
1
1
1
1
0.999999
1
1
1
1
1
1
1
1
1
1
1
1
1
1
1
1
1
1
1
1
1
1
1
1
1
1
1
1
1
0.999999
1
1
1
1
1
1
1
1
1
1
1
1
1
1
1
1
1
1
1
1
1
1
1
1
1
1
1
1
1
0.999999
1
1
1
1
1
1
1
1
1
1
1
1
1
1
1
1
1
1
1
1
1
1
1
1
1
1
1
1
1
0.999999
1
1
1
1
1
1
1
1
1
1
1
1
1
1
1
1
1
1
1
1
1
1
1
1
1
1
1
1
1
1
1
1
1
1
1
1
1
1
1
1
1
1
1
1
1
1
1
1
1
1
1
1
1
1
1
1
1
1
1
1
1
1
1
1
1
1
1
1
1
1
1
1
1
1
1
1
1
1
1
1
1
1
1
1
1
1
1
1
1
1
1
1
1
1
1
1
1
1
1
1
1
1
1
1
1
1
1
1
1
1
1
1
1
1
1
1
1
1
1
1
1
1
1
1
1
1
1
1
1
1
1
1
1
1
1
1
1
1
1
1
1
1
1
1
1
1
1
1
1
1
1
1
1
1
1
1
1
1
1
1
1
1
1
1
1
1
1
1
1
1
1
1
1
1
1
1
1
1
1
1
1
1
1
1
1
1
1
1
1
1
1
1
1
1
1
1
1
1
1
1
1
1
1
1
1
1
1
1
1
1
1
1
1
1
1
1
1
1
1
1
1
1
1
1
1
1
1
1
1
1
1
1
1
1
1
1
1
1
1
1
1
1
1
1
1
1
1
1
1
1
1
1
1
1
1
1
1
1
1
1
1
1
1
1
1
1
1
1
1
1
1
1
1
1
1
1
1
1
1
1
1
1
1
1
1
1
1
1
1
1
1
1
1
1
1
1
1
1
1
1
1
1
1
1
1
1
1
1
1
1
1
1
1
1
1
1
1
1
1
1
1
1
1
1
1
1
1
1
1
1
1
1
1
1
1
1
1
1
1
1
1
1
1
1
1
1
1
1
1
1
1
1
1
1
1
1
1
1
1
1
1
1
1
1
1
1
1
1
1
1
1
1
1
1
1
1
1
1
1
1
1
1
1
1
1
1
1
1
1
1
1
1
1
1
1
1
1
1
1
1
1
1
1
1
1
1
1
1
1
1
1
1
1
1
1
1
1
1
1
1
1
1
1
1
1
1
1
1
1
1
1
1
1
1
1
1
1
1
1
1
1
1
1
1
1
1
1
1
1
1
1
1
1
1
1
1
1
1
1
1
1
1
1
1
1
1
1
1
1
1
1
1
1
1
1
1
1
1
1
1
1
1
1
1
1
1
1
1
1
1
1
1
1
1
1
1
1
1
1
1
1
1
1
1
1
1
1
1
1
1
1
1
1
1
1
1
1
1
1
1
1
1
1
1
1
1
1
1
1
1
1
1
1
1
1
1
1
1
1
1
1
1
1
1
1
1
1
1
1
1
1
1
1
1
1
1
1
1
1
1
0.999994
1
0.999975
1
0.999934
1
0.999881
1
0.261235
0.52197
0.491127
0.000639549
0.191615
0.0729646
0.17678
0.186704
0.125755
0.123066
0.0685847
0.0444498
0.0674816
0.0564631
0.0836417
0.132481
0.0323545
9.52515e-05
0.0184496
0.0931811
0.106432
0.0574997
0.0286859
0.0142534
0.0102981
0.0062911
0.00424148
0.00243869
0.00142743
0.000763205
0.24868
0.450606
0.199628
0.000652354
5.30337e-06
5.67995e-07
1.58483e-07
-1.15563e-08
2.43402e-10
1.21981e-10
-3.54821e-09
1.64408e-10
2.95773e-10
2.95599e-10
2.95599e-10
3.02395e-10
3.36784e-08
3.36721e-08
3.60893e-10
3.60893e-10
2.35507e-10
4.57434e-10
1.29712e-10
4.08304e-10
3.35672e-10
7.36014e-11
2.54434e-11
5.536e-12
2.20747e-12
7.24157e-13
0.249006
0.0664442
-0.000350705
4.95236e-08
6.40582e-07
6.0933e-07
1.63165e-08
1.50351e-08
1.49803e-08
1.55104e-08
3.42106e-09
3.42097e-09
6.26126e-09
2.94588e-09
1.88558e-09
1.44273e-09
2.69747e-10
2.60262e-10
4.16672e-10
3.61218e-10
1.02386e-10
2.66877e-11
3.47297e-11
5.6755e-10
5.64108e-10
1.01538e-10
4.10158e-11
6.31444e-12
1.9126e-12
2.1112e-13
0.117399
-6.89227e-05
4.96248e-07
4.78968e-07
4.05147e-07
4.24523e-07
3.22434e-07
8.08933e-07
1.8778e-07
1.89855e-07
3.6548e-08
4.30768e-10
9.54838e-10
8.81509e-10
1.74252e-09
1.42851e-09
2.26923e-10
2.46027e-10
5.63512e-10
3.33144e-10
9.53597e-11
2.11225e-11
3.01874e-11
1.04985e-11
3.33895e-12
2.7546e-13
9.45299e-14
5.52572e-15
1.57352e-15
5.14705e-17
0.0406725
0.0128048
4.33889e-07
4.23377e-07
7.49172e-07
3.22931e-06
1.78665e-06
3.29255e-07
3.70225e-10
2.26646e-10
2.26405e-10
1.99587e-10
2.2929e-10
1.10292e-10
1.84657e-10
2.09648e-10
2.09654e-10
9.17046e-11
1.20776e-10
1.92035e-11
6.48845e-12
6.81868e-13
1.03756e-12
6.6208e-14
1.77843e-14
4.93345e-16
1.94688e-16
3.07192e-18
1.24035e-18
7.51702e-21
0.00461457
0.00422525
0.000194564
0.000679285
6.51357e-07
1.57012e-06
2.7835e-06
1.30587e-06
2.60368e-10
3.30544e-10
1.8496e-10
4.7119e-11
4.36859e-11
9.70694e-12
1.50181e-11
1.40815e-11
2.28956e-11
4.32329e-12
6.01002e-12
4.94373e-13
2.50939e-13
1.44129e-14
1.79216e-14
2.56281e-16
7.76381e-17
5.31788e-19
3.30829e-19
9.40201e-22
8.4656e-22
5.28682e-25
0.0473613
0.0366054
0.0143042
0.019897
0.00656585
-7.78444e-09
2.14176e-08
5.26651e-08
3.8341e-09
2.46188e-10
8.91421e-11
5.69931e-12
5.01114e-12
3.27007e-13
2.55277e-13
2.53703e-13
9.97888e-13
9.8772e-14
1.81565e-13
7.02836e-15
6.01547e-15
1.5797e-16
1.90461e-16
6.35402e-19
2.75887e-19
3.41389e-22
4.73371e-22
1.51299e-25
5.07625e-25
1.49385e-29
0.0606168
0.0606089
0.0606009
0.021134
0.0046249
-3.72171e-08
1.6294e-09
1.28008e-08
6.21981e-10
1.24707e-10
1.33006e-11
1.32057e-13
4.00337e-14
6.10767e-15
5.25784e-15
2.09358e-15
1.74431e-14
8.2634e-16
2.95556e-15
5.77266e-17
1.06001e-16
9.58607e-19
1.46211e-18
1.01594e-21
8.13278e-22
1.32073e-25
5.8371e-25
1.29876e-29
2.73678e-28
1.5258e-34
0.0386869
0.0386921
8.2336e-06
0.00443584
0.000157671
3.8664e-11
1.54933e-09
3.27005e-09
3.33089e-10
4.88885e-11
3.32905e-12
6.69462e-14
3.75783e-16
5.47158e-17
6.72373e-17
2.34328e-17
1.34964e-16
5.53002e-18
4.03352e-17
2.97141e-19
1.20537e-18
3.02536e-21
7.94118e-21
1.02837e-24
1.98185e-24
3.10667e-29
6.2934e-28
6.01221e-34
1.34878e-31
3.99061e-40
2.85667e-07
0.000154437
3.18815e-06
4.26569e-09
1.02098e-09
1.62133e-07
1.19509e-09
1.18524e-09
3.58792e-10
4.43327e-11
2.94809e-12
6.09734e-14
3.61718e-16
8.94917e-19
4.09244e-19
1.0646e-19
5.9983e-19
2.86543e-20
3.5436e-19
1.07023e-21
1.01835e-20
5.15896e-24
3.34487e-23
6.48589e-28
4.0224e-27
4.51451e-33
5.99103e-31
1.67976e-38
6.14539e-35
1.98574e-45
1.03055e-06
2.14624e-08
6.93112e-08
2.05855e-09
1.59387e-09
3.45591e-09
1.73889e-09
7.41631e-10
3.52457e-10
5.27644e-11
2.18567e-12
3.9332e-14
3.1233e-16
1.01765e-18
1.55593e-21
3.50672e-22
2.08965e-21
1.93047e-22
2.59195e-21
2.19985e-24
5.59413e-23
4.4008e-27
9.95189e-26
2.47645e-31
6.74132e-30
5.01415e-37
5.06706e-34
1.30918e-42
2.60876e-38
1.2926e-49
6.08983e-07
2.64969e-07
5.38552e-07
1.1794e-09
1.13154e-09
1.12828e-09
1.1267e-09
9.05818e-10
5.62872e-10
9.60529e-11
3.48191e-12
3.907e-14
2.8487e-16
1.1535e-18
1.10314e-21
6.74309e-25
3.19725e-24
9.80674e-25
1.23269e-23
4.35112e-27
2.1934e-25
2.41719e-30
2.27108e-28
6.14412e-35
9.33418e-33
1.20047e-40
3.82382e-37
4.28147e-46
1.03714e-41
7.76667e-54
1.56306e-07
2.49657e-07
1.29974e-06
1.23462e-06
2.51404e-06
9.68261e-07
1.06032e-09
1.22424e-09
7.92403e-10
1.37102e-10
5.82562e-12
4.6121e-14
2.25012e-16
1.21606e-18
2.0119e-21
6.74436e-25
1.97232e-27
3.68603e-27
4.62314e-26
8.76321e-30
5.39173e-28
2.24549e-33
4.27509e-31
1.8402e-38
1.05239e-35
6.34728e-44
2.58339e-40
1.50873e-49
3.87817e-45
4.16641e-58
-1.17136e-05
3.3565e-07
9.95738e-07
1.02548e-06
4.063e-06
1.7282e-06
1.06032e-09
1.43399e-09
1.33976e-09
1.71105e-10
9.49729e-12
1.08005e-13
3.09381e-16
1.32303e-18
2.99337e-21
1.86018e-24
1.03999e-28
8.83952e-30
1.24196e-28
1.45922e-32
8.71157e-31
3.22375e-36
6.29288e-34
1.16319e-41
9.58769e-39
3.5369e-47
1.56707e-43
5.03816e-53
1.36875e-48
1.97135e-62
0.019744
3.41165e-07
3.43779e-07
3.5154e-07
4.05528e-06
9.3365e-07
1.69316e-09
9.07542e-10
5.76461e-10
1.62716e-10
1.32309e-11
2.43436e-13
7.94466e-16
1.57061e-18
4.47342e-21
4.17728e-24
4.98681e-28
1.80271e-32
1.87055e-31
1.57571e-35
8.4849e-34
3.27158e-39
6.68995e-37
8.56585e-45
6.88998e-42
1.84737e-50
8.55074e-47
1.58303e-56
4.57082e-52
8.21222e-67
0.0671505
0.0209257
0.0119731
0.000573032
-9.96893e-09
6.52015e-09
4.34605e-09
2.89127e-10
2.8892e-10
2.44552e-10
1.67358e-11
3.58188e-13
2.18513e-15
1.91255e-18
6.80616e-21
7.23002e-24
1.4079e-27
3.46531e-32
1.23106e-34
1.21375e-38
4.91085e-37
2.39722e-42
5.03986e-40
5.24347e-48
4.11375e-45
8.67139e-54
4.20598e-50
4.68944e-60
1.44788e-55
3.01568e-71
0.0671866
0.0668715
0.0267548
7.50743e-06
1.88455e-09
3.74205e-09
3.36337e-09
1.48585e-06
5.61528e-10
4.32357e-10
1.96409e-11
4.3839e-13
3.63222e-15
2.11683e-18
6.61607e-21
9.7838e-24
2.89671e-27
1.49259e-31
5.04342e-38
7.92752e-42
2.91686e-40
1.19261e-45
2.54634e-43
2.61405e-51
2.10731e-48
3.6625e-57
1.86878e-53
1.31178e-63
4.36014e-59
9.78516e-76
0.0438179
0.053677
0.00887797
1.60498e-07
2.72858e-07
5.97305e-09
3.36122e-09
8.25217e-06
1.29392e-10
5.13068e-10
2.34191e-11
6.02084e-13
6.16659e-15
4.08197e-18
8.14304e-21
1.36462e-23
5.93886e-27
4.42635e-31
3.54129e-37
9.56752e-45
1.17929e-43
3.92689e-49
8.03285e-47
1.04107e-54
8.72712e-52
1.39372e-60
7.51311e-57
3.4679e-67
1.25017e-62
2.81122e-80
0.00697925
0.00963411
0.0046162
1.87597e-07
3.8683e-07
5.80798e-09
3.76074e-05
5.1329e-07
1.29117e-10
3.17513e-10
2.02901e-11
6.41893e-13
7.97612e-15
9.8565e-18
7.69198e-21
1.40642e-23
7.61433e-27
9.72353e-31
2.28204e-36
9.23673e-44
8.65376e-48
8.59114e-53
1.4158e-50
3.25648e-58
2.85575e-55
4.78533e-64
2.73954e-60
8.67249e-71
3.41922e-66
7.16803e-85
0.00697257
-1.14667e-05
0.000254566
4.04174e-05
4.04746e-06
0.000194633
0.000217531
1.23936e-10
1.29113e-10
2.49293e-10
1.5637e-11
5.34332e-13
8.62225e-15
1.78071e-17
8.57668e-21
1.37195e-23
8.62869e-27
1.4341e-30
6.22789e-36
9.55424e-43
1.15899e-58
1.82461e-56
2.09583e-54
7.9093e-62
7.25758e-59
1.48519e-67
9.08593e-64
2.05283e-74
8.93555e-70
1.62565e-89
0.0138474
9.1016e-07
2.07546e-06
1.51434e-05
4.17989e-06
0.000312378
0.000251387
1.26275e-10
1.26295e-10
1.16845e-10
1.23382e-11
4.56747e-13
8.78317e-15
2.14145e-17
1.38558e-20
6.3855e-24
2.98567e-27
5.98877e-31
5.696e-36
6.59489e-42
2.5197e-62
4.5485e-60
5.82414e-58
1.49145e-65
1.41953e-62
4.17297e-71
2.74924e-67
4.59797e-78
2.23389e-73
3.28476e-94
0.0350106
0.000994884
2.89072e-06
0.000130673
0.00104346
0.000228302
6.20511e-05
2.35836e-10
5.78305e-10
9.79859e-11
1.13867e-11
4.56511e-13
1.00354e-14
2.74962e-17
3.85471e-20
9.47164e-24
2.67588e-27
6.19252e-31
1.083e-35
2.43064e-41
3.68206e-66
7.62329e-64
1.09889e-61
2.24397e-69
2.1541e-66
1.06375e-74
7.62204e-71
9.74107e-82
5.35095e-77
5.92605e-99
0.0350652
0.00629243
7.50019e-05
0.000132713
0.00113594
0.000187129
2.07872e-10
1.13037e-09
3.13686e-10
8.41602e-11
1.2016e-11
5.04926e-13
1.25008e-14
4.04975e-17
8.57855e-20
1.66425e-23
1.53089e-27
3.042e-31
5.47288e-36
2.91731e-41
3.31942e-70
7.94716e-68
1.30701e-65
2.8996e-73
2.6449e-70
2.46581e-78
1.94656e-74
1.94965e-85
1.22997e-80
9.57069e-104
0.0350721
0.00564137
0.0101046
0.00249009
0.000613422
4.18389e-05
8.79958e-10
8.77069e-10
3.45256e-10
9.72378e-11
1.32965e-11
5.75721e-13
1.33934e-14
4.33419e-17
1.06114e-19
2.39943e-23
1.05797e-27
2.51646e-31
7.83635e-36
8.37726e-41
1.63641e-74
4.592e-72
8.76276e-70
3.5914e-77
2.8359e-74
5.20627e-82
4.60731e-78
3.67595e-89
2.71589e-84
1.38847e-108
0.0335293
0.00401113
0.0120205
0.00623965
7.4792e-06
4.25902e-08
1.82193e-09
7.09498e-10
3.32395e-10
8.63686e-11
1.00686e-11
3.66114e-13
8.27649e-15
2.93184e-17
7.8341e-20
1.90732e-23
3.19127e-28
7.08013e-32
2.12489e-36
2.8018e-41
3.60593e-79
1.20883e-76
2.73406e-74
4.6845e-81
3.02452e-78
1.00221e-85
1.01857e-81
6.49987e-93
5.7695e-88
1.82338e-113
0.0186965
0.00522585
0.0120193
0.00423548
2.43421e-09
2.90237e-09
2.97166e-09
7.01935e-10
3.15124e-10
7.4308e-11
7.12916e-12
2.19434e-13
3.59262e-15
1.02755e-17
2.39361e-20
6.35444e-24
1.53809e-28
4.2082e-32
1.45146e-36
2.3806e-41
2.27111e-84
9.33984e-82
2.57629e-79
7.58036e-85
5.50827e-82
1.75638e-89
2.12251e-85
1.0693e-96
1.18091e-91
2.20786e-118
0.000440465
0.00182946
0.00993211
0.000705639
1.45301e-09
2.41334e-09
2.06356e-09
5.49384e-10
2.94926e-10
6.61977e-11
4.91867e-12
1.17447e-13
1.45829e-15
3.88386e-18
7.96454e-21
2.37859e-24
7.65075e-29
1.58771e-32
5.42368e-37
9.47079e-42
9.29556e-91
4.83686e-88
1.69725e-85
1.13603e-88
1.05987e-85
2.78031e-93
4.21013e-89
1.61236e-100
2.3313e-95
2.57973e-123
7.82455e-05
6.33124e-05
0.000584528
5.20586e-05
1.11199e-09
2.05825e-09
1.70166e-09
4.65165e-10
3.9652e-10
7.48044e-11
3.63015e-12
6.60762e-14
5.90851e-16
1.32325e-18
2.01435e-21
4.87439e-25
7.93191e-30
8.65377e-34
1.41333e-38
1.40717e-43
7.96576e-98
2.12909e-97
8.48258e-96
1.41733e-92
1.84696e-89
3.89241e-97
8.03922e-93
2.17352e-104
4.44554e-99
3.208e-128
0.00056201
2.57226e-05
2.46056e-05
0.000117221
2.36327e-06
1.94482e-09
1.75592e-09
5.93591e-10
8.3787e-10
9.51947e-11
3.49704e-12
5.19379e-14
3.45574e-16
5.82169e-19
6.11715e-22
1.30032e-25
4.59568e-30
1.91947e-34
2.45775e-39
1.88342e-44
5.23088e-103
8.15529e-102
4.88573e-100
1.361e-96
2.9225e-93
4.59985e-101
1.49668e-96
2.55053e-108
8.20104e-103
4.82627e-133
0.00145782
0.000348727
2.50533e-05
3.3585e-05
2.83001e-08
7.07727e-09
9.83849e-09
6.04979e-10
6.90394e-10
4.06176e-11
8.74596e-13
9.22625e-15
4.01001e-17
5.20425e-20
1.89497e-23
1.45243e-27
2.92359e-34
1.89473e-38
8.79778e-44
4.51056e-49
2.73141e-108
2.86643e-106
9.015e-105
7.26326e-101
4.21191e-97
4.28072e-105
2.74898e-100
2.81367e-112
1.46567e-106
9.21933e-138
0.000508913
0.000410073
0.000325456
0.0002626
0.000207099
0.000166962
0.000131278
0.000106113
8.30781e-05
6.75342e-05
5.26259e-05
4.28211e-05
3.34817e-05
2.71029e-05
2.13689e-05
1.71113e-05
1.35496e-05
1.071e-05
8.58676e-06
6.44049e-06
4.30793e-06
3.21221e-06
1.0019e-12
1.40828e-06
1.49709e-13
3.48236e-06
1.47319e-13
2.10858e-05
1.69413e-13
9.72512e-05
1.59667e-12
1.5069e-12
1.452e-12
1.42627e-12
1.39655e-12
1.41142e-12
1.40779e-12
1.45863e-12
1.4628e-12
1.52384e-12
7.54648e-11
4.59272e-10
5.59066e-10
6.44425e-10
3.19701e-10
2.68061e-10
1.26841e-10
1.0778e-10
4.56021e-11
3.32917e-11
3.72406e-12
4.48002e-12
1.00178e-12
3.07114e-12
1.49701e-13
3.14363e-11
1.47334e-13
9.39219e-20
1.68761e-13
1.00109e-19
1.05392e-13
4.25681e-14
2.86939e-14
1.41518e-14
8.69566e-15
1.25221e-14
1.63819e-14
2.27209e-14
2.80162e-14
1.9764e-14
3.02824e-14
3.34517e-14
1.45635e-14
1.24603e-14
3.38743e-15
3.12447e-15
6.80263e-16
6.26815e-16
2.83459e-17
9.88803e-18
9.70471e-20
7.16486e-20
2.34033e-20
2.00087e-19
2.07258e-20
2.77315e-20
4.09121e-20
5.76469e-20
3.99157e-20
9.95647e-20
3.02861e-17
8.6441e-18
5.76204e-18
2.13057e-18
1.29848e-18
2.19604e-18
2.78795e-18
2.96405e-18
2.66265e-18
1.5688e-18
1.13611e-18
9.50489e-19
2.17719e-19
1.79402e-19
2.55879e-20
2.42219e-20
1.67918e-21
1.32364e-21
2.31189e-25
9.51145e-26
8.21081e-26
1.88416e-26
5.03075e-27
6.37196e-26
2.56675e-27
5.9591e-27
7.32498e-27
9.77248e-27
9.38737e-27
1.70127e-26
8.09549e-21
1.26016e-21
1.04836e-21
2.27629e-22
1.63884e-22
2.02091e-22
2.63285e-22
1.85149e-22
1.36498e-22
6.0933e-23
2.64462e-23
1.72251e-23
2.42738e-24
1.82914e-24
1.34467e-25
1.11825e-25
9.59023e-28
2.14918e-28
1.81032e-31
9.21183e-32
7.43034e-32
9.67468e-33
2.18029e-33
1.24667e-32
6.13177e-34
1.14212e-33
1.29661e-33
1.49224e-33
1.81568e-33
1.93034e-33
1.70727e-24
1.22101e-25
1.49889e-25
1.58658e-26
1.58574e-26
1.1162e-26
1.71795e-26
6.96772e-27
4.89588e-27
1.4624e-27
4.62134e-28
2.17439e-28
2.14064e-29
1.28664e-29
4.94893e-31
2.59567e-31
7.55812e-36
4.41292e-37
2.09536e-37
9.98204e-38
7.17855e-38
5.83247e-39
1.1538e-39
2.65908e-39
1.55208e-40
1.83996e-40
1.56311e-40
2.0186e-40
2.92567e-40
1.55425e-40
2.84115e-28
7.95953e-30
1.69723e-29
7.37353e-31
1.21176e-30
3.99688e-31
8.59249e-31
1.72472e-31
1.36725e-31
2.36159e-32
6.55345e-33
1.964e-33
1.54156e-34
6.09869e-35
1.29213e-36
2.03375e-37
4.82546e-42
7.65685e-43
2.85635e-43
1.15008e-43
7.01558e-44
4.23257e-45
6.46183e-46
3.86845e-46
4.07671e-47
3.71505e-47
3.68794e-47
3.71155e-47
4.00744e-47
9.41279e-48
3.82575e-32
3.53985e-34
1.56318e-33
2.32935e-35
7.56706e-35
9.65904e-36
3.48969e-35
2.93597e-36
3.14955e-36
2.67307e-37
7.87304e-38
1.27835e-38
9.29101e-40
1.88078e-40
2.43182e-42
2.53581e-44
5.82786e-48
1.37419e-48
4.14353e-49
1.38143e-49
6.88895e-50
3.34379e-51
4.08018e-52
1.10585e-52
1.21573e-53
9.09943e-54
1.24675e-53
7.53297e-54
6.39957e-54
4.53712e-55
4.26096e-36
1.07448e-38
1.19808e-37
5.03285e-40
3.963e-39
1.6044e-40
1.19152e-39
3.50894e-41
6.19563e-41
2.15822e-42
8.22623e-43
5.96267e-44
4.77543e-45
3.54683e-46
3.33988e-48
7.07384e-52
1.11584e-53
2.52668e-54
6.28754e-55
1.72245e-55
7.02491e-56
2.8379e-57
2.64165e-58
3.08182e-59
4.85201e-60
2.6636e-60
4.53928e-60
1.34166e-60
9.0554e-61
1.82211e-62
3.99846e-40
2.21327e-43
7.78199e-42
7.40981e-45
1.77511e-43
1.84255e-45
3.50143e-44
2.97095e-46
1.06516e-45
1.25019e-47
7.61171e-48
1.9674e-49
2.12575e-50
3.91065e-52
3.39007e-54
1.22932e-58
2.33441e-59
4.71213e-60
9.77988e-61
2.19726e-61
7.22022e-62
2.50776e-63
1.91402e-64
1.47297e-65
2.49898e-66
7.14127e-67
1.46254e-66
1.66342e-67
8.15113e-68
6.3394e-70
3.20579e-44
3.06533e-48
4.34398e-46
7.3885e-50
6.90138e-48
1.4614e-50
9.00435e-49
1.78581e-51
1.62654e-50
5.1927e-53
6.31793e-53
4.52416e-55
8.29901e-56
2.44055e-58
2.5859e-60
2.77941e-64
5.00967e-65
8.91457e-66
1.55977e-66
2.88133e-67
7.6919e-68
2.36637e-69
1.47473e-70
7.23869e-72
1.10594e-72
1.40106e-73
3.55706e-73
1.63074e-74
4.99115e-75
1.97031e-77
2.2207e-48
2.83619e-53
2.10587e-50
5.0494e-55
2.35453e-52
8.01744e-56
2.05079e-53
7.66064e-57
2.23164e-55
1.54912e-58
4.74772e-58
7.21712e-61
2.87024e-61
8.21068e-65
1.51768e-66
6.87466e-70
1.09099e-70
1.69914e-71
2.52147e-72
3.8382e-73
8.28316e-74
2.30017e-75
1.21366e-76
4.35055e-78
6.24196e-79
2.16068e-80
6.3605e-80
2.07993e-81
4.24615e-82
5.60479e-85
1.34112e-52
1.75277e-58
8.94464e-55
2.62227e-60
7.11321e-57
3.12064e-61
4.1764e-58
2.42149e-62
2.77628e-60
3.3793e-64
3.2546e-63
8.05218e-67
8.8733e-67
1.50407e-71
7.21147e-73
1.73885e-75
2.40508e-76
3.26585e-77
4.1352e-78
5.21398e-79
9.17527e-80
2.34859e-81
1.0495e-82
2.66829e-84
3.22173e-85
4.11171e-87
9.82188e-87
2.67244e-88
3.51225e-89
1.48792e-92
7.10452e-57
7.76451e-64
3.35616e-59
1.55377e-65
1.91718e-61
1.04937e-66
7.66269e-63
6.83103e-68
3.15412e-65
5.95354e-70
2.04774e-68
6.6406e-73
2.47128e-72
5.90642e-78
3.4396e-79
4.43842e-81
5.3398e-82
6.3078e-83
6.84662e-84
7.19141e-85
1.03123e-85
2.47117e-87
9.26915e-89
1.73571e-90
1.856e-91
8.79409e-94
1.46223e-93
3.73839e-95
2.75418e-96
3.74585e-100
3.31679e-61
4.29388e-69
1.12048e-63
1.47641e-70
4.6368e-66
6.58709e-72
1.27388e-67
3.30693e-73
3.28934e-70
1.34456e-75
1.18806e-73
5.90049e-79
6.24114e-78
1.13696e-83
3.25932e-85
1.13951e-86
1.19214e-87
1.22412e-88
1.14222e-89
1.00647e-90
1.1784e-91
2.67274e-93
8.35539e-95
1.19574e-96
1.09009e-97
2.00471e-100
2.22183e-100
5.18117e-102
2.09098e-103
9.06908e-108
1.37067e-65
6.70376e-74
3.35108e-68
1.30434e-75
1.01177e-70
8.87785e-77
1.9288e-72
3.22186e-78
3.16293e-75
6.69357e-81
6.38397e-79
1.3116e-84
1.43844e-83
2.37733e-89
7.05639e-91
2.93633e-92
2.66779e-93
2.38229e-94
1.91537e-95
1.42476e-96
1.36492e-97
2.94823e-99
7.61823e-101
8.87472e-103
6.44014e-104
6.54604e-107
3.99612e-107
7.09561e-109
1.55635e-110
2.14613e-115
5.0333e-70
1.46364e-78
9.02797e-73
1.15442e-81
2.00138e-75
1.30396e-81
2.67171e-77
3.54084e-83
2.81463e-80
4.62438e-86
3.18934e-84
4.97538e-90
3.04403e-89
4.87583e-95
1.92038e-96
7.58242e-98
5.97968e-99
4.6471e-100
3.22496e-101
2.03366e-102
1.60114e-103
3.29384e-105
7.01294e-107
6.92939e-109
3.86084e-110
3.00568e-113
9.83875e-114
9.63722e-116
1.13632e-117
5.08055e-123
1.64739e-74
3.06436e-83
2.20044e-77
5.626e-87
3.60248e-80
1.75172e-86
3.39754e-82
3.64956e-88
2.32421e-85
3.14106e-91
1.48587e-89
1.91129e-95
5.94853e-95
1.02829e-100
5.44085e-102
1.95931e-103
1.33915e-104
9.07033e-106
5.43455e-107
2.92033e-108
1.89506e-109
3.70856e-111
6.46745e-113
5.6589e-115
2.36822e-116
1.5666e-119
2.91158e-120
1.30599e-122
8.19442e-125
1.25557e-130
4.82131e-79
5.97815e-88
4.87141e-82
6.78757e-92
5.92315e-85
2.12994e-91
3.981e-87
3.46838e-93
1.78605e-90
1.99367e-96
6.47609e-95
6.9033e-101
1.08093e-100
2.36905e-106
1.56257e-107
5.06083e-109
2.99298e-110
1.76862e-111
9.14954e-113
4.20719e-114
2.25727e-115
4.19368e-117
5.97533e-119
4.73668e-121
1.50329e-122
9.2117e-126
9.43545e-127
1.77161e-129
6.02227e-132
3.48469e-138
1.26565e-83
1.06957e-92
9.8248e-87
7.91826e-97
8.92791e-90
2.36664e-96
4.31268e-92
3.04495e-98
1.28069e-95
1.17917e-101
2.64854e-100
2.34395e-106
1.84365e-106
6.17923e-112
4.52258e-113
1.30332e-114
6.66583e-116
3.44167e-117
1.53654e-118
6.0644e-120
2.69796e-121
4.74065e-123
5.5271e-125
4.02236e-127
9.76013e-129
5.60909e-132
3.30955e-133
2.42753e-136
4.52357e-139
1.16981e-145
2.98825e-88
1.72482e-97
1.80944e-91
8.58736e-102
1.23744e-94
2.42526e-101
4.33157e-97
2.47807e-103
8.58739e-101
6.50609e-107
1.01887e-105
7.53649e-112
2.99708e-112
1.79842e-117
1.31441e-118
3.33898e-120
1.4777e-121
6.66726e-123
2.56759e-124
8.7243e-126
3.22631e-127
5.34316e-129
5.11102e-131
3.45173e-133
6.50922e-135
3.45076e-138
1.19475e-139
3.65464e-143
3.38011e-146
4.80154e-153
6.3664e-93
2.50881e-102
3.05216e-96
8.61346e-107
1.58253e-99
2.30494e-106
4.04624e-102
1.88231e-108
5.3983e-106
3.35681e-112
3.69724e-111
2.27994e-117
4.7901e-118
5.5999e-123
3.82967e-124
8.48753e-126
3.25802e-127
1.28296e-128
4.2626e-130
1.24882e-131
3.85341e-133
5.98828e-135
4.71596e-137
2.96865e-139
4.36634e-141
2.15687e-144
4.40586e-146
7.05587e-150
2.51862e-153
2.42994e-160
1.22819e-97
3.29111e-107
4.73015e-101
8.28845e-112
1.87404e-104
2.03e-111
3.52618e-107
1.33483e-113
3.18959e-111
1.6267e-117
1.26917e-116
6.49869e-123
8.00798e-124
1.79781e-128
1.11714e-129
2.13943e-131
7.13497e-133
2.44589e-134
7.02158e-136
1.77231e-137
4.59648e-139
6.65926e-141
4.3362e-143
2.55121e-145
2.93011e-147
1.38338e-150
1.62592e-152
1.81391e-156
2.00455e-160
1.47668e-167
2.15267e-102
3.88711e-112
6.75448e-106
7.17699e-117
2.06155e-109
1.67396e-116
2.87427e-112
8.83948e-119
1.77501e-116
7.37939e-123
4.13152e-122
1.73871e-128
1.54471e-129
5.8226e-134
3.25492e-135
5.34183e-137
1.54898e-138
4.60666e-140
1.14561e-141
2.48665e-143
5.46167e-145
7.32413e-147
3.97181e-149
2.18515e-151
1.96065e-153
8.98626e-157
5.93543e-159
5.14081e-163
1.78667e-167
9.65104e-175
3.44199e-107
4.11751e-117
8.91824e-111
5.51299e-122
2.11449e-114
1.31278e-121
2.19801e-117
5.45938e-124
9.32728e-122
3.12266e-128
1.27933e-127
4.34988e-134
3.73198e-135
1.88306e-139
9.4562e-141
1.32065e-142
3.3272e-144
8.55358e-146
1.84848e-147
3.44389e-149
6.45644e-151
7.9475e-153
3.62414e-155
1.86132e-157
1.30492e-159
5.8484e-163
2.13927e-165
1.5311e-169
1.74311e-174
5.78095e-182
5.0431e-112
3.87849e-122
1.0928e-115
3.65599e-127
2.0296e-119
9.94598e-127
1.58167e-122
3.12987e-129
4.63965e-127
1.22973e-133
3.78105e-133
1.01438e-139
1.11235e-140
6.05294e-145
2.73647e-146
3.22773e-148
7.0586e-150
1.56242e-151
2.94126e-153
4.69857e-155
7.57433e-157
8.49655e-159
3.29236e-161
1.56806e-163
8.66189e-166
3.72004e-169
7.98418e-172
4.74955e-176
1.76511e-181
2.14214e-189
6.80036e-117
3.19354e-127
1.24697e-120
2.00519e-132
1.82911e-124
7.3406e-132
1.07369e-127
1.65216e-134
2.18918e-132
4.45192e-139
1.07038e-138
2.18797e-145
3.77292e-146
1.9296e-150
7.87957e-152
7.7836e-154
1.47579e-155
2.8026e-157
4.6029e-159
6.29794e-161
8.79788e-163
8.94459e-165
2.9737e-167
1.30379e-169
5.71162e-172
2.28487e-175
3.01411e-178
1.4177e-182
1.66796e-188
3.45432e-197
8.48304e-122
2.23795e-132
1.33042e-125
8.88171e-138
1.55359e-129
5.0325e-137
6.89635e-133
7.77554e-140
9.82246e-138
1.43376e-144
2.91734e-144
4.28125e-151
1.36548e-151
6.09739e-156
2.25731e-157
1.85064e-159
3.03402e-161
4.92567e-163
7.06602e-165
8.28341e-167
1.00951e-168
9.27883e-171
2.67372e-173
1.06988e-175
3.75811e-178
1.3629e-181
1.17356e-184
4.07043e-189
1.46818e-195
1.64399e-204
9.8433e-127
1.35296e-137
1.33287e-130
4.56704e-143
1.24842e-134
2.3008e-142
4.20387e-138
2.84599e-145
4.20114e-143
3.68286e-150
7.7101e-150
7.1344e-157
5.10924e-157
1.90664e-161
6.41633e-163
4.32962e-165
6.11842e-167
8.46253e-169
1.06109e-170
1.06701e-172
1.14194e-174
9.47122e-177
2.38305e-179
8.65858e-182
2.43822e-184
7.85262e-188
4.60118e-191
1.12901e-195
1.20221e-202
6.95465e-212
1.06804e-131
1.07968e-142
1.25932e-135
2.53149e-147
9.52074e-140
1.45206e-152
2.43861e-143
1.65932e-151
1.71623e-148
3.70975e-156
1.99665e-155
7.47895e-163
1.94638e-162
5.92493e-167
1.80111e-168
9.97129e-171
1.2072e-172
1.41497e-174
1.55267e-176
1.34366e-178
1.27325e-180
9.56666e-183
2.12052e-185
6.97563e-188
1.57455e-190
4.41807e-194
1.75381e-197
2.8033e-202
9.41572e-210
2.1997e-219
)
;

boundaryField
{
    symmetryAxis
    {
        type            symmetryPlane;
    }
    rightWall
    {
        type            zeroGradient;
    }
    lowerWall
    {
        type            zeroGradient;
    }
    atmosphere
    {
        type            inletOutlet;
        inletValue      uniform 0;
        value           nonuniform List<scalar> 
90
(
0.00145782
0.000348727
2.50533e-05
3.3585e-05
2.83001e-08
7.07727e-09
9.83849e-09
6.04979e-10
6.90394e-10
4.06176e-11
0
0
0
0
0
0
0
0
0
0
0
0
0
0
0
0
0
0
1.46567e-106
0
1.06804e-131
0
1.25932e-135
0
9.52074e-140
0
2.43861e-143
0
1.71623e-148
0
1.99665e-155
0
1.94638e-162
0
1.80111e-168
0
0
0
0
0
0
0
0
0
0
0
0
0
0
0
9.72512e-05
1.00109e-19
0
0
0
0
0
0
0
0
0
0
0
0
0
0
0
0
0
0
0
0
0
0
0
0
0
0
0
0
)
;
    }
    frontAndBack
    {
        type            empty;
    }
    frontAndBack_pos
    {
        type            wedge;
    }
    frontAndBack_neg
    {
        type            wedge;
    }
}


// ************************************************************************* //
