/*--------------------------------*- C++ -*----------------------------------*\
| =========                 |                                                 |
| \\      /  F ield         | OpenFOAM: The Open Source CFD Toolbox           |
|  \\    /   O peration     | Version:  2.4.0                                 |
|   \\  /    A nd           | Web:      www.OpenFOAM.org                      |
|    \\/     M anipulation  |                                                 |
\*---------------------------------------------------------------------------*/
FoamFile
{
    version     2.0;
    format      ascii;
    class       surfaceScalarField;
    location    "0.058";
    object      phi;
}
// * * * * * * * * * * * * * * * * * * * * * * * * * * * * * * * * * * * * * //

dimensions      [0 3 -1 0 0 0 0];

internalField   nonuniform List<scalar> 
114720
(
-6.38587e-10
4.81992e-10
1.17974e-09
-1.02315e-09
1.60175e-09
-1.96229e-09
-1.71537e-10
5.3207e-10
3.23344e-09
-3.67327e-09
-2.15284e-10
6.55108e-10
5.21778e-09
-5.75528e-09
-2.65231e-10
8.02737e-10
7.56112e-09
-8.14357e-09
-2.89006e-10
8.7146e-10
9.82048e-09
-1.02327e-08
-1.97577e-10
6.09818e-10
1.08046e-08
-1.06758e-08
8.16222e-11
-2.10418e-10
9.04408e-09
-8.11187e-09
4.76163e-10
-1.40837e-09
3.87009e-09
-2.14465e-09
8.5591e-10
-2.58135e-09
-4.28255e-09
6.56544e-09
1.11603e-09
-3.39892e-09
-1.42551e-08
1.67756e-08
1.21558e-09
-3.73604e-09
-2.47447e-08
2.72187e-08
1.17331e-09
-3.64724e-09
-3.46696e-08
3.68701e-08
1.01666e-09
-3.2172e-09
-4.31465e-08
4.48841e-08
7.61694e-10
-2.49932e-09
-4.94574e-08
5.05937e-08
4.36233e-10
-1.57253e-09
-5.31523e-08
5.36342e-08
9.15625e-11
-5.73502e-10
-5.4164e-08
5.40361e-08
-2.13218e-10
3.41104e-10
-5.28072e-08
5.21877e-08
-4.37513e-10
1.05707e-09
-4.96418e-08
4.86805e-08
-5.68613e-10
1.52995e-09
-4.52816e-08
4.41167e-08
-6.208e-10
1.78574e-09
-4.02589e-08
3.90003e-08
-6.17622e-10
1.8763e-09
-3.49833e-08
3.37118e-08
-5.80972e-10
1.85251e-09
-2.97479e-08
2.85176e-08
-5.28011e-10
1.75832e-09
-2.47407e-08
2.3585e-08
-4.69634e-10
1.62532e-09
-2.00696e-08
1.90016e-08
-4.14495e-10
1.48243e-09
-1.57755e-08
1.47998e-08
-3.6543e-10
1.34106e-09
-1.18598e-08
1.0972e-08
-3.2496e-10
1.21279e-09
-8.29959e-09
7.49306e-09
-2.91996e-10
1.09853e-09
-5.06716e-09
4.33611e-09
-2.64309e-10
9.95357e-10
-2.13648e-09
1.4752e-09
-2.40187e-10
9.01462e-10
5.93397e-10
3.73881e-09
-3.0731e-09
-1.25911e-09
3.03744e-09
-2.28155e-09
-3.65828e-09
2.90239e-09
5.70188e-09
-2.70688e-09
-6.44703e-09
3.45203e-09
8.9767e-09
-3.2594e-09
-9.88087e-09
4.16357e-09
1.27789e-08
-3.34927e-09
-1.37271e-08
4.29744e-09
1.63026e-08
-1.99611e-09
-1.6937e-08
2.63049e-09
1.77542e-08
1.41106e-09
-1.75533e-08
-1.61198e-09
1.52324e-08
5.9649e-09
-1.38909e-08
-7.30642e-09
8.09349e-09
1.01565e-08
-5.69115e-09
-1.25588e-08
-2.8704e-09
1.28879e-08
5.98471e-09
-1.60022e-08
-1.60858e-08
1.39205e-08
1.9503e-08
-1.73377e-08
-2.99755e-08
1.35187e-08
3.33517e-08
-1.68949e-08
-4.32613e-08
1.19579e-08
4.63199e-08
-1.50165e-08
-5.48943e-08
9.43896e-09
5.7406e-08
-1.19507e-08
-6.40316e-08
6.25448e-09
6.58321e-08
-8.05493e-09
-7.01449e-08
2.84872e-09
7.11645e-08
-3.86832e-09
-7.31093e-08
-3.0801e-10
7.33788e-08
3.85116e-11
-7.31801e-08
-2.87643e-09
7.28082e-08
3.24838e-09
-7.0861e-08
-4.74061e-09
6.99873e-08
5.61435e-09
-6.67119e-08
-5.96879e-09
6.54659e-08
7.21483e-09
-6.1226e-08
-6.68201e-09
5.97162e-08
8.19187e-09
-5.48155e-08
-6.99177e-09
5.31343e-08
8.67297e-09
-4.78363e-08
-6.99905e-09
4.60635e-08
8.77178e-09
-4.05939e-08
-6.79041e-09
3.87978e-08
8.58652e-09
-3.3344e-08
-6.44266e-09
3.158e-08
8.20667e-09
-2.62983e-08
-6.00931e-09
2.46119e-08
7.69576e-09
-1.96193e-08
-5.53819e-09
1.80429e-08
7.11458e-09
-1.34256e-08
-5.05163e-09
1.1981e-08
6.49629e-09
-7.78221e-09
-4.57673e-09
6.47563e-09
5.8833e-09
-2.69693e-09
-4.115e-09
1.52745e-09
5.28448e-09
6.02115e-10
6.44311e-09
-5.76384e-09
-1.28139e-09
3.13642e-09
-4.81533e-09
-3.78023e-09
5.45914e-09
5.90711e-09
-5.76069e-09
-6.6863e-09
6.53989e-09
9.34634e-09
-6.98613e-09
-1.03033e-08
7.94312e-09
1.34008e-08
-7.30092e-09
-1.44284e-08
8.32852e-09
1.72923e-08
-4.74321e-09
-1.8035e-08
5.48585e-09
1.92113e-08
1.97738e-09
-1.91333e-08
-2.05534e-09
1.71897e-08
1.1091e-08
-1.59697e-08
-1.2311e-08
1.05288e-08
1.95391e-08
-8.2369e-09
-2.18311e-08
-1.09825e-11
2.51358e-08
3.02706e-09
-2.81519e-08
-1.28555e-08
2.74119e-08
1.61918e-08
-3.07481e-08
-2.64449e-08
2.68807e-08
2.97584e-08
-3.01942e-08
-3.9507e-08
2.40895e-08
4.25222e-08
-2.71047e-08
-5.0986e-08
1.94146e-08
5.34671e-08
-2.18956e-08
-6.00113e-08
1.34098e-08
6.17874e-08
-1.51859e-08
-6.60306e-08
6.90475e-09
6.70284e-08
-7.90251e-09
-6.89112e-08
7.76082e-10
6.91627e-08
-1.02758e-09
-6.89208e-08
-4.32343e-09
6.85401e-08
4.70413e-09
-6.659e-08
-8.15265e-09
6.57248e-08
9.0178e-09
-6.2509e-08
-1.08259e-08
6.12942e-08
1.20407e-08
-5.71857e-08
-1.25569e-08
5.57305e-08
1.40121e-08
-5.10304e-08
-1.35262e-08
4.94252e-08
1.51314e-08
-4.43869e-08
-1.38872e-08
4.27072e-08
1.55668e-08
-3.75422e-08
-1.37708e-08
3.58514e-08
1.54616e-08
-3.07323e-08
-1.33004e-08
2.9081e-08
1.49516e-08
-2.41497e-08
-1.2566e-08
2.25788e-08
1.41368e-08
-1.79386e-08
-1.16649e-08
1.64763e-08
1.31272e-08
-1.22001e-08
-1.06629e-08
1.08642e-08
1.19988e-08
-6.98718e-09
-9.64686e-09
5.78244e-09
1.08516e-08
-2.3036e-09
-8.64765e-09
1.22858e-09
9.72267e-09
6.00608e-10
9.17219e-09
-8.48817e-09
-1.28463e-09
3.13688e-09
-7.39291e-09
-3.78121e-09
8.03724e-09
5.90855e-09
-8.88219e-09
-6.68925e-09
9.6629e-09
9.35945e-09
-1.08266e-08
-1.03223e-08
1.17895e-08
1.34518e-08
-1.14414e-08
-1.44963e-08
1.24859e-08
1.74366e-08
-7.76781e-09
-1.82117e-08
8.54291e-09
1.94973e-08
2.22993e-09
-1.94546e-08
-2.2726e-09
1.7604e-08
1.59277e-08
-1.64079e-08
-1.71238e-08
1.10135e-08
2.86894e-08
-8.72755e-09
-3.09754e-08
4.77212e-10
3.72119e-08
2.54981e-09
-4.02389e-08
-1.24167e-08
4.07729e-08
1.57689e-08
-4.41251e-08
-2.60831e-08
4.01637e-08
2.94215e-08
-4.35021e-08
-3.92633e-08
3.61949e-08
4.2315e-08
-3.92466e-08
-5.09054e-08
2.9393e-08
5.34311e-08
-3.19188e-08
-6.01127e-08
2.05628e-08
6.19313e-08
-2.23814e-08
-6.62865e-08
1.09212e-08
6.73126e-08
-1.19473e-08
-6.92493e-08
1.7738e-09
6.95066e-08
-2.0311e-09
-6.92477e-08
-5.88508e-09
6.88518e-08
6.28096e-09
-6.6835e-08
-1.16677e-08
6.59436e-08
1.25592e-08
-6.26411e-08
-1.57431e-08
6.13964e-08
1.69878e-08
-5.71935e-08
-1.8433e-08
5.57069e-08
1.99196e-08
-5.09114e-08
-1.99929e-08
4.9276e-08
2.16283e-08
-4.41526e-08
-2.06344e-08
4.24484e-08
2.23386e-08
-3.72211e-08
-2.05405e-08
3.55146e-08
2.2247e-08
-3.03618e-08
-1.98904e-08
2.8704e-08
2.15482e-08
-2.37641e-08
-1.88179e-08
2.21937e-08
2.03883e-08
-1.7562e-08
-1.74736e-08
1.61045e-08
1.89311e-08
-1.18481e-08
-1.59615e-08
1.05204e-08
1.72891e-08
-6.67552e-09
-1.44177e-08
5.48394e-09
1.56093e-08
-2.05406e-09
-1.28955e-08
9.98193e-10
1.39514e-08
5.97751e-10
1.19223e-08
-1.12325e-08
-1.28757e-09
3.12702e-09
-9.96746e-09
-3.76936e-09
1.06098e-08
5.8872e-09
-1.20021e-08
-6.66576e-09
1.27806e-08
9.33316e-09
-1.46799e-08
-1.02972e-08
1.56439e-08
1.34438e-08
-1.56375e-08
-1.45009e-08
1.66946e-08
1.75085e-08
-1.09122e-08
-1.83145e-08
1.17182e-08
1.97058e-08
2.35278e-09
-1.96968e-08
-2.36186e-09
1.79305e-08
2.06845e-08
-1.67537e-08
-2.18612e-08
1.13861e-08
3.78364e-08
-9.0978e-09
-4.01247e-08
8.11153e-10
4.93465e-08
2.2349e-09
-5.23925e-08
-1.21744e-08
5.42205e-08
1.55541e-08
-5.76001e-08
-2.59651e-08
5.35703e-08
2.9341e-08
-5.69462e-08
-3.93239e-08
4.84798e-08
4.24308e-08
-5.15867e-08
-5.12162e-08
3.95958e-08
5.38127e-08
-4.21923e-08
-6.07191e-08
2.79406e-08
6.26115e-08
-2.9833e-08
-6.71778e-08
1.51106e-08
6.8265e-08
-1.61978e-08
-7.03524e-08
2.85173e-09
7.06452e-08
-3.14454e-09
-7.04534e-08
-7.45556e-09
7.00678e-08
7.84112e-09
-6.80615e-08
-1.52361e-08
6.71698e-08
1.61278e-08
-6.38634e-08
-2.07289e-08
6.26162e-08
2.19761e-08
-5.83975e-08
-2.43965e-08
5.69017e-08
2.58922e-08
-5.20626e-08
-2.65659e-08
5.04075e-08
2.8221e-08
-4.52085e-08
-2.74954e-08
4.34748e-08
2.92292e-08
-3.81445e-08
-2.74209e-08
3.64001e-08
2.91653e-08
-3.11192e-08
-2.65856e-08
2.94152e-08
2.82895e-08
-2.43215e-08
-2.51727e-08
2.26967e-08
2.67976e-08
-1.78882e-08
-2.33825e-08
1.63704e-08
2.49002e-08
-1.19304e-08
-2.13457e-08
1.05449e-08
2.27312e-08
-6.53958e-09
-1.92399e-08
5.30288e-09
2.04766e-08
-1.76585e-09
-1.71481e-08
6.85712e-10
1.82282e-08
5.94098e-10
1.47001e-08
-1.40026e-08
-1.29159e-09
3.11449e-09
-1.25331e-08
-3.75418e-09
1.31728e-08
5.85969e-09
-1.51123e-08
-6.6354e-09
1.5888e-08
9.29868e-09
-1.85377e-08
-1.02638e-08
1.95028e-08
1.34308e-08
-1.98882e-08
-1.45033e-08
2.09608e-08
1.75955e-08
-1.41922e-08
-1.84407e-08
1.50374e-08
1.9967e-08
2.32781e-09
-2.00008e-08
-2.294e-09
1.83418e-08
2.53565e-08
-1.71897e-08
-2.65087e-08
1.18562e-08
4.69947e-08
-9.56461e-09
-4.92863e-08
1.23019e-09
6.15676e-08
1.84098e-09
-6.46388e-08
-1.18732e-08
6.7789e-08
1.52873e-08
-7.12031e-08
-2.582e-08
6.71428e-08
2.92433e-08
-7.05661e-08
-3.94038e-08
6.10088e-08
4.25811e-08
-6.41861e-08
-5.16162e-08
5.01121e-08
5.43037e-08
-5.27997e-08
-6.15025e-08
3.56477e-08
6.34912e-08
-3.76363e-08
-6.83367e-08
1.95761e-08
6.95058e-08
-2.07452e-08
-7.17969e-08
4.09198e-09
7.21383e-08
-4.43338e-09
-7.20374e-08
-8.97764e-09
7.16655e-08
9.34953e-09
-6.96743e-08
-1.87999e-08
6.87843e-08
1.96898e-08
-6.54859e-08
-2.57139e-08
6.42422e-08
2.69576e-08
-6.00275e-08
-3.03863e-08
5.85281e-08
3.18856e-08
-5.3656e-08
-3.32137e-08
5.19823e-08
3.48874e-08
-4.67037e-08
-3.44782e-08
4.4937e-08
3.62449e-08
-3.9487e-08
-3.44643e-08
3.76974e-08
3.62539e-08
-3.22587e-08
-3.34863e-08
3.04964e-08
3.52487e-08
-2.52e-08
-3.17799e-08
2.35002e-08
3.34796e-08
-1.84364e-08
-2.95821e-08
1.68268e-08
3.11917e-08
-1.20888e-08
-2.70235e-08
1.06031e-08
2.85092e-08
-6.30339e-09
-2.43011e-08
4.97948e-09
2.5625e-08
-1.22697e-09
-2.15329e-08
9.71473e-11
2.26627e-08
5.89389e-10
1.75133e-08
-1.68062e-08
-1.29647e-09
3.09956e-09
-1.50872e-08
-3.73597e-09
1.57236e-08
5.82653e-09
-1.82102e-08
-6.59879e-09
1.89824e-08
9.25696e-09
-2.24e-08
-1.02233e-08
2.33663e-08
1.34142e-08
-2.42053e-08
-1.45053e-08
2.52964e-08
1.77002e-08
-1.76422e-08
-1.85935e-08
1.85355e-08
2.02865e-08
2.11642e-09
-2.03733e-08
-2.02968e-09
1.88467e-08
2.99212e-08
-1.77251e-08
-3.10428e-08
1.24342e-08
5.61669e-08
-1.01385e-08
-5.84626e-08
1.74432e-09
7.38975e-08
1.35834e-09
-7.70002e-08
-1.15036e-08
8.15057e-08
1.49595e-08
-8.49616e-08
-2.56374e-08
8.09177e-08
2.9117e-08
-8.43974e-08
-3.94901e-08
7.38407e-08
4.27524e-08
-7.71029e-08
-5.20928e-08
6.10236e-08
5.48924e-08
-6.38232e-08
-6.24534e-08
4.37753e-08
6.45625e-08
-4.58844e-08
-6.97594e-08
2.44017e-08
7.10329e-08
-2.56752e-08
-7.35856e-08
5.54615e-09
7.39891e-08
-5.94967e-09
-7.39981e-08
-1.04449e-08
7.36393e-08
1.08037e-08
-7.1651e-08
-2.23604e-08
7.07596e-08
2.32518e-08
-6.74737e-08
-3.06773e-08
6.6239e-08
3.19119e-08
-6.20476e-08
-3.6384e-08
6.05494e-08
3.78821e-08
-5.56491e-08
-3.99384e-08
5.39551e-08
4.16324e-08
-4.85837e-08
-4.16014e-08
4.67781e-08
4.3407e-08
-4.11884e-08
-4.16987e-08
3.93471e-08
4.354e-08
-3.37319e-08
-4.06321e-08
3.19048e-08
4.24591e-08
-2.6383e-08
-3.87056e-08
2.45978e-08
4.04908e-08
-1.92249e-08
-3.61923e-08
1.74958e-08
3.79214e-08
-1.23312e-08
-3.31824e-08
1.06868e-08
3.48268e-08
-5.86947e-09
-2.98141e-08
4.37581e-09
3.13078e-08
-1.68773e-10
-2.61885e-08
-1.07309e-09
2.74304e-08
5.83748e-10
2.03712e-08
-1.9652e-08
-1.30293e-09
3.08115e-09
-1.76267e-08
-3.71338e-09
1.8259e-08
5.78558e-09
-2.12929e-08
-6.55352e-09
2.20609e-08
9.20445e-09
-2.62666e-08
-1.01716e-08
2.72338e-08
1.33882e-08
-2.86001e-08
-1.45002e-08
2.97121e-08
1.78149e-08
-2.12981e-08
-1.87653e-08
2.22485e-08
2.06575e-08
1.67777e-09
-2.08076e-08
-1.52769e-09
1.94401e-08
3.43539e-08
-1.83557e-08
-3.54383e-08
1.31186e-08
6.53552e-08
-1.0819e-08
-6.76548e-08
2.35543e-09
8.63595e-08
7.83069e-10
-8.9498e-08
-1.10599e-08
9.53981e-08
1.45631e-08
-9.89013e-08
-2.54036e-08
9.49285e-08
2.89463e-08
-9.84712e-08
-3.9561e-08
8.70323e-08
4.29213e-08
-9.03926e-08
-5.26192e-08
7.24143e-08
5.55516e-08
-7.53467e-08
-6.35456e-08
5.24213e-08
6.58e-08
-5.46756e-08
-7.14261e-08
2.9681e-08
7.28289e-08
-3.10837e-08
-7.57111e-08
7.27175e-09
7.61928e-08
-7.75341e-09
-7.63306e-08
-1.1865e-08
7.59803e-08
1.22153e-08
-7.39645e-08
-2.59366e-08
7.30636e-08
2.68376e-08
-6.97949e-08
-3.55909e-08
6.85797e-08
3.68061e-08
-6.44504e-08
-4.23633e-08
6.29638e-08
4.38499e-08
-5.80497e-08
-4.67456e-08
5.63346e-08
4.84607e-08
-5.08578e-08
-4.88889e-08
4.90072e-08
5.07394e-08
-4.32605e-08
-4.91464e-08
4.13633e-08
5.10436e-08
-3.55688e-08
-4.80353e-08
3.36797e-08
4.99244e-08
-2.79502e-08
-4.59695e-08
2.60871e-08
4.78326e-08
-2.04185e-08
-4.33018e-08
1.85644e-08
4.51559e-08
-1.28814e-08
-4.00826e-08
1.10101e-08
4.19539e-08
-5.29196e-09
-3.62395e-08
3.44124e-09
3.80902e-08
1.89726e-09
-3.15247e-08
-3.45989e-09
3.30873e-08
5.76981e-10
2.32844e-08
-2.25503e-08
-1.31115e-09
3.06044e-09
-2.01486e-08
-3.68771e-09
2.07758e-08
5.73889e-09
-2.43575e-08
-6.50185e-09
2.51205e-08
9.14425e-09
-3.01365e-08
-1.01121e-08
3.11044e-08
1.33565e-08
-3.30828e-08
-1.4492e-08
3.42183e-08
1.79442e-08
-2.5197e-08
-1.89614e-08
2.62141e-08
2.10875e-08
9.69569e-10
-2.13118e-08
-7.45269e-10
2.01307e-08
3.8628e-08
-1.90903e-08
-3.96685e-08
1.39177e-08
7.45609e-08
-1.16133e-08
-7.68652e-08
3.067e-09
9.89781e-08
1.16478e-10
-1.02162e-07
-1.05444e-08
1.09491e-07
1.41016e-08
-1.13048e-07
-2.51236e-08
1.09202e-07
2.87361e-08
-1.12815e-07
-3.96211e-08
1.00637e-07
4.30931e-08
-1.04109e-07
-5.32047e-08
8.43701e-08
5.62923e-08
-8.74578e-08
-6.47965e-08
6.16893e-08
6.72237e-08
-6.41165e-08
-7.33675e-08
3.55205e-08
7.49291e-08
-3.70821e-08
-7.8225e-08
9.3397e-09
7.88059e-08
-9.92051e-09
-7.90942e-08
-1.3264e-08
7.87426e-08
1.36155e-08
-7.66335e-08
-2.95752e-08
7.57038e-08
3.05049e-08
-7.24541e-08
-4.04021e-08
7.12776e-08
4.15786e-08
-6.72816e-08
-4.82731e-08
6.58246e-08
4.97301e-08
-6.09205e-08
-5.36391e-08
5.91829e-08
5.53768e-08
-5.35783e-08
-5.63698e-08
5.16729e-08
5.82753e-08
-4.57422e-08
-5.68249e-08
4.37837e-08
5.87834e-08
-3.78114e-08
-5.56748e-08
3.58692e-08
5.7617e-08
-2.99953e-08
-5.35015e-08
2.80893e-08
5.54075e-08
-2.22822e-08
-5.08442e-08
2.03696e-08
5.27568e-08
-1.43738e-08
-4.79075e-08
1.23163e-08
4.99649e-08
-5.4959e-09
-4.45367e-08
3.04613e-09
4.69865e-08
4.11828e-09
-3.77559e-08
-5.58564e-09
3.92233e-08
5.68916e-10
2.62663e-08
-2.55136e-08
-1.32156e-09
3.03747e-09
-2.26492e-08
-3.65892e-09
2.32706e-08
5.68636e-09
-2.74012e-08
-6.44371e-09
2.81585e-08
9.07606e-09
-3.40086e-08
-1.00443e-08
3.49768e-08
1.33178e-08
-3.76624e-08
-1.44789e-08
3.88234e-08
1.80862e-08
-2.93774e-08
-1.918e-08
3.04713e-08
2.15769e-08
-5.26375e-11
-2.1887e-08
3.6274e-10
2.0921e-08
4.27153e-08
-1.99319e-08
-4.37045e-08
1.4836e-08
8.37859e-08
-1.25264e-08
-8.60956e-08
3.88257e-09
1.11776e-07
-6.51708e-10
-1.15007e-07
-9.95562e-09
1.23808e-07
1.3573e-08
-1.27425e-07
-2.47921e-08
1.23763e-07
2.84793e-08
-1.2745e-07
-3.96589e-08
1.14708e-07
4.32554e-08
-1.18305e-07
-5.38371e-08
9.69816e-08
5.71038e-08
-1.00248e-07
-6.61995e-08
7.16924e-08
6.88295e-08
-7.43224e-08
-7.55882e-08
4.20443e-08
7.73425e-08
-4.37986e-08
-8.11605e-08
1.18446e-08
8.18696e-08
-1.25537e-08
-8.23415e-08
-1.46898e-08
8.19732e-08
1.50581e-08
-7.96418e-08
-3.33824e-08
7.86401e-08
3.43842e-08
-7.54052e-08
-4.50094e-08
7.43057e-08
4.61088e-08
-7.05806e-08
-5.40217e-08
6.91852e-08
5.5417e-08
-6.43271e-08
-6.06287e-08
6.25617e-08
6.2394e-08
-5.67875e-08
-6.4093e-08
5.48096e-08
6.60708e-08
-4.86451e-08
-6.47637e-08
4.66128e-08
6.67959e-08
-4.04474e-08
-6.35148e-08
3.84574e-08
6.55047e-08
-3.25079e-08
-6.11297e-08
3.06071e-08
6.30305e-08
-2.49416e-08
-5.83999e-08
2.31269e-08
6.02146e-08
-1.7639e-08
-5.5949e-08
1.58295e-08
5.77585e-08
-1.01239e-08
-5.40113e-08
8.22663e-09
5.59086e-08
-3.20583e-09
-4.32262e-08
1.97512e-09
4.44569e-08
5.59323e-10
2.93323e-08
-2.85569e-08
-1.33468e-09
3.01123e-09
-2.51247e-08
-3.62563e-09
2.57391e-08
5.62588e-09
-3.04209e-08
-6.37666e-09
3.11717e-08
8.99636e-09
-3.78809e-08
-9.96411e-09
3.88487e-08
1.32658e-08
-4.23463e-08
-1.44537e-08
4.35342e-08
1.82317e-08
-3.38795e-08
-1.94123e-08
3.506e-08
2.21185e-08
-1.43586e-09
-2.25264e-08
1.84377e-09
2.18059e-08
4.65851e-08
-2.08764e-08
-4.75147e-08
1.58735e-08
9.30319e-08
-1.35588e-08
-9.53466e-08
4.80377e-09
1.24784e-07
-1.51484e-09
-1.28073e-07
-9.28857e-09
1.38373e-07
1.29708e-08
-1.42055e-07
-2.43946e-08
1.38626e-07
2.81585e-08
-1.4239e-07
-3.96465e-08
1.29293e-07
4.33776e-08
-1.33024e-07
-5.44824e-08
1.10344e-07
5.79516e-08
-1.13813e-07
-6.77214e-08
8.25525e-08
7.05855e-08
-8.54166e-08
-7.80611e-08
4.93962e-08
8.00476e-08
-5.13827e-08
-8.45275e-08
1.49202e-08
8.54067e-08
-1.57993e-08
-8.61257e-08
-1.62087e-08
8.57244e-08
1.66101e-08
-8.29286e-08
-3.76004e-08
8.17556e-08
3.87734e-08
-7.85168e-08
-4.92045e-08
7.75771e-08
5.01443e-08
-7.43935e-08
-5.94497e-08
7.31148e-08
6.07284e-08
-6.83468e-08
-6.77455e-08
6.65395e-08
6.95529e-08
-6.05145e-08
-7.21462e-08
5.84336e-08
7.4227e-08
-5.19475e-08
-7.30305e-08
4.98164e-08
7.51616e-08
-4.33953e-08
-7.15589e-08
4.13428e-08
7.36114e-08
-3.52984e-08
-6.87059e-08
3.34086e-08
7.05956e-08
-2.79811e-08
-6.53862e-08
2.63382e-08
6.7029e-08
-2.18551e-08
-6.23159e-08
2.06048e-08
6.35662e-08
-1.77349e-08
-5.94223e-08
1.71889e-08
5.99683e-08
-1.67362e-08
-4.57283e-08
1.68428e-08
4.56217e-08
5.47901e-10
3.25018e-08
-3.16985e-08
-1.35116e-09
2.9829e-09
-2.75705e-08
-3.58909e-09
2.81767e-08
5.55942e-09
-3.34135e-08
-6.30294e-09
3.4157e-08
8.90814e-09
-4.17506e-08
-9.87474e-09
4.27172e-08
1.32034e-08
-4.71399e-08
-1.44194e-08
4.83558e-08
1.83844e-08
-3.87446e-08
-1.96625e-08
4.00227e-08
2.27206e-08
-3.2294e-09
-2.32391e-08
3.74793e-09
2.27954e-08
5.02034e-08
-2.19344e-08
-5.10645e-08
1.70415e-08
1.02299e-07
-1.47213e-08
-1.04619e-07
5.83611e-09
1.38038e-07
-2.47981e-09
-1.41395e-07
-8.54611e-09
1.53206e-07
1.2299e-08
-1.56959e-07
-2.39349e-08
1.53798e-07
2.77758e-08
-1.57639e-07
-3.95818e-08
1.44431e-07
4.3457e-08
-1.48306e-07
-5.5142e-08
1.24556e-07
5.88401e-08
-1.28254e-07
-6.93731e-08
9.44029e-08
7.25075e-08
-9.75373e-08
-8.08039e-08
5.77498e-08
8.30751e-08
-6.0021e-08
-8.83991e-08
1.87607e-08
8.95092e-08
-1.98708e-08
-9.06036e-08
-1.78634e-08
9.01771e-08
1.82899e-08
-8.64796e-08
-4.2799e-08
8.48923e-08
4.43864e-08
-8.159e-08
-5.25271e-08
8.10001e-08
5.3117e-08
-7.88987e-08
-6.42935e-08
7.78222e-08
6.537e-08
-7.31632e-08
-7.50793e-08
7.12739e-08
7.69685e-08
-6.48385e-08
-8.06827e-08
6.26022e-08
8.2919e-08
-5.56523e-08
-8.17508e-08
5.3381e-08
8.40221e-08
-4.6582e-08
-7.99106e-08
4.44243e-08
8.20684e-08
-3.8124e-08
-7.63243e-08
3.61744e-08
7.82739e-08
-3.06585e-08
-7.18634e-08
2.90265e-08
7.34954e-08
-2.47417e-08
-6.69357e-08
2.36171e-08
6.80602e-08
-2.12737e-08
-6.09178e-08
2.09032e-08
6.12883e-08
-2.08384e-08
-4.47802e-08
2.10454e-08
4.45732e-08
5.3425e-10
3.57985e-08
-3.4961e-08
-1.37179e-09
2.95221e-09
-2.99814e-08
-3.54874e-09
3.05779e-08
5.48621e-09
-3.63759e-08
-6.22168e-09
3.71113e-08
8.81001e-09
-4.56145e-08
-9.77449e-09
4.65789e-08
1.31274e-08
-5.20467e-08
-1.43719e-08
5.32911e-08
1.85384e-08
-4.40173e-08
-1.99255e-08
4.54044e-08
2.33814e-08
-5.48553e-09
-2.40241e-08
6.12821e-09
2.38897e-08
5.35334e-08
-2.31071e-08
-5.4316e-08
1.83457e-08
1.11589e-07
-1.60199e-08
-1.13915e-07
6.98377e-09
1.51577e-07
-3.54969e-09
-1.55011e-07
-7.72694e-09
1.68331e-07
1.15558e-08
-1.7216e-07
-2.34046e-08
1.69276e-07
2.73196e-08
-1.73191e-07
-3.94403e-08
1.60157e-07
4.34664e-08
-1.64183e-07
-5.57883e-08
1.39726e-07
5.97433e-08
-1.43681e-07
-7.11321e-08
1.07393e-07
7.45762e-08
-1.10837e-07
-8.37772e-08
6.73579e-08
8.64232e-08
-7.00039e-08
-9.28032e-08
2.36492e-08
9.42359e-08
-2.50819e-08
-9.59238e-08
-1.94983e-08
9.55953e-08
1.98268e-08
-9.02818e-08
-5.04185e-08
8.76389e-08
5.30614e-08
-8.41179e-08
-5.38727e-08
8.43585e-08
5.36321e-08
-8.44392e-08
-6.81659e-08
8.36745e-08
6.89306e-08
-7.90158e-08
-8.28599e-08
7.69488e-08
8.49269e-08
-6.98116e-08
-8.99518e-08
6.73399e-08
9.24234e-08
-5.97319e-08
-9.11081e-08
5.7269e-08
9.3571e-08
-4.99463e-08
-8.87636e-08
4.76312e-08
9.10787e-08
-4.08542e-08
-8.43386e-08
3.87392e-08
8.64536e-08
-3.26487e-08
-7.86565e-08
3.07946e-08
8.05107e-08
-2.56457e-08
-7.1894e-08
2.41479e-08
7.33917e-08
-2.02245e-08
-6.33192e-08
1.91745e-08
6.43693e-08
-1.68443e-08
-4.51285e-08
1.61554e-08
4.58174e-08
5.17915e-10
3.92515e-08
-3.83717e-08
-1.39769e-09
2.91926e-09
-3.23511e-08
-3.50445e-09
3.29363e-08
5.40617e-09
-3.93048e-08
-6.13278e-09
4.00314e-08
8.70175e-09
-4.9468e-08
-9.66294e-09
5.04292e-08
1.30357e-08
-5.7067e-08
-1.43083e-08
5.83395e-08
1.86895e-08
-4.97437e-08
-2.01977e-08
5.12519e-08
2.4102e-08
-8.2593e-09
-2.48831e-08
9.04033e-09
2.50913e-08
5.65334e-08
-2.43982e-08
-5.72265e-08
1.97945e-08
1.20901e-07
-1.74631e-08
-1.23232e-07
8.25184e-09
1.65445e-07
-4.72779e-09
-1.68969e-07
-6.83241e-09
1.83766e-07
1.07423e-08
-1.87676e-07
-2.27996e-08
1.85039e-07
2.67815e-08
-1.89021e-07
-3.91987e-08
1.76493e-07
4.33787e-08
-1.80673e-07
-5.6396e-08
1.55967e-07
6.06382e-08
-1.60209e-07
-7.29846e-08
1.21679e-07
7.67745e-08
-1.25469e-07
-8.69098e-08
7.87105e-08
9.01239e-08
-8.19246e-08
-9.77012e-08
3.00557e-08
9.96534e-08
-3.20078e-08
-1.02101e-07
-2.01372e-08
1.02432e-07
1.98057e-08
-9.46702e-08
-6.44016e-08
8.91587e-08
6.9913e-08
-8.50106e-08
-5.03309e-08
8.74004e-08
4.79411e-08
-9.18521e-08
-7.06715e-08
9.14422e-08
7.10814e-08
-8.62576e-08
-9.16143e-08
8.38078e-08
9.40642e-08
-7.54745e-08
-1.00321e-07
7.26557e-08
1.0314e-07
-6.4166e-08
-1.01307e-07
6.14675e-08
1.04006e-07
-5.35339e-08
-9.83064e-08
5.10372e-08
1.00803e-07
-4.36415e-08
-9.31174e-08
4.12915e-08
9.54674e-08
-3.4326e-08
-8.65678e-08
3.21124e-08
8.87814e-08
-2.55634e-08
-7.87137e-08
2.34923e-08
8.07848e-08
-1.74301e-08
-6.87505e-08
1.55697e-08
7.06108e-08
-1.02092e-08
-4.9838e-08
8.09319e-09
5.19541e-08
4.98098e-10
4.28964e-08
-4.19648e-08
-1.4297e-09
2.88413e-09
-3.46728e-08
-3.45607e-09
3.52447e-08
5.31919e-09
-4.2197e-08
-6.03613e-09
4.2914e-08
8.58311e-09
-5.33065e-08
-9.5397e-09
5.4263e-08
1.29261e-08
-6.21983e-08
-1.42256e-08
6.34978e-08
1.88326e-08
-5.59737e-08
-2.04749e-08
5.76161e-08
2.4884e-08
-1.16086e-08
-2.58183e-08
1.25429e-08
2.64025e-08
5.91571e-08
-2.58113e-08
-5.97483e-08
2.13981e-08
1.30235e-07
-1.90613e-08
-1.32572e-07
9.64617e-09
1.79694e-07
-6.01681e-09
-1.83323e-07
-5.86502e-09
1.99535e-07
9.86172e-09
-2.03531e-07
-2.21168e-08
2.01054e-07
2.61537e-08
-2.05091e-07
-3.88286e-08
1.93443e-07
4.31605e-08
-1.97775e-07
-5.69353e-08
1.73407e-07
6.14987e-08
-1.7797e-07
-7.49276e-08
1.37375e-07
7.90688e-08
-1.41516e-07
-9.01171e-08
9.28065e-08
9.42432e-08
-9.69325e-08
-1.02778e-07
3.944e-08
1.06116e-07
-4.27777e-08
-1.08588e-07
-1.57747e-08
1.11677e-07
1.26858e-08
-1.02069e-07
-9.48757e-08
9.07468e-08
1.06198e-07
-8.75538e-08
-3.4785e-08
9.37551e-08
2.85837e-08
-1.03294e-07
-7.21702e-08
1.02697e-07
7.27672e-08
-9.53404e-08
-1.02394e-07
9.21472e-08
1.05587e-07
-8.18887e-08
-1.12295e-07
7.85818e-08
1.15602e-07
-6.8924e-08
-1.1253e-07
6.5945e-08
1.15509e-07
-5.74151e-08
-1.08573e-07
5.47697e-08
1.11218e-07
-4.6885e-08
-1.02806e-07
4.43225e-08
1.05369e-07
-3.65349e-08
-9.59755e-08
3.398e-08
9.85304e-08
-2.61129e-08
-8.77812e-08
2.35113e-08
9.03827e-08
-1.54544e-08
-7.74662e-08
1.27575e-08
8.01631e-08
-4.00797e-09
-6.03838e-08
7.09758e-10
6.3682e-08
4.73942e-10
4.67779e-08
-4.57826e-08
-1.46924e-09
2.84727e-09
-3.69381e-08
-3.4038e-09
3.74946e-08
5.22579e-09
-4.50494e-08
-5.93234e-09
4.5756e-08
8.45496e-09
-5.71242e-08
-9.40554e-09
5.80748e-08
1.2798e-08
-6.74344e-08
-1.41224e-08
6.87588e-08
1.89639e-08
-6.27607e-08
-2.07544e-08
6.45512e-08
2.57327e-08
-1.55937e-08
-2.68356e-08
1.66966e-08
2.78285e-08
6.13528e-08
-2.73531e-08
-6.18282e-08
2.31716e-08
1.3959e-07
-2.08294e-08
-1.41932e-07
1.1175e-08
1.94392e-07
-7.42113e-09
-1.98145e-07
-4.83012e-09
2.15659e-07
8.92021e-09
-2.19749e-07
-2.13586e-08
2.17265e-07
2.54334e-08
-2.2134e-07
-3.83004e-08
2.10989e-07
4.27747e-08
-2.15463e-07
-5.73765e-08
1.92191e-07
6.23032e-08
-1.97117e-07
-7.69858e-08
1.54387e-07
8.14009e-08
-1.58802e-07
-9.37002e-08
1.11104e-07
9.88722e-08
-1.16276e-07
-1.09233e-07
5.64269e-08
1.14054e-07
-6.1247e-08
-1.19176e-07
6.36223e-09
1.29403e-07
-1.65889e-08
-1.20117e-07
-1.41059e-07
1.11016e-07
1.5016e-07
-1.26929e-07
-1.01623e-08
1.33745e-07
3.34683e-09
-1.26101e-07
-7.89377e-08
1.21023e-07
8.40148e-08
-1.06778e-07
-1.1682e-07
1.02314e-07
1.21283e-07
-8.94547e-08
-1.26535e-07
8.553e-08
1.3046e-07
-7.40129e-08
-1.25242e-07
7.04586e-08
1.28797e-07
-6.04452e-08
-1.19177e-07
5.74018e-08
1.2222e-07
-4.97188e-08
-1.12931e-07
4.74587e-08
1.15191e-07
-3.96492e-08
-1.07047e-07
3.6731e-08
1.09965e-07
-2.73139e-08
-9.90794e-08
2.42425e-08
1.02151e-07
-1.50793e-08
-8.87733e-08
1.20483e-08
9.18043e-08
-1.82076e-09
-7.38891e-08
-1.80408e-09
7.75139e-08
4.44502e-10
5.09508e-08
-4.98767e-08
-1.51858e-09
2.80805e-09
-3.91379e-08
-3.34662e-09
3.96765e-08
5.12461e-09
-4.78587e-08
-5.81991e-09
4.8554e-08
8.31514e-09
-6.09151e-08
-9.25796e-09
6.18579e-08
1.26457e-08
-7.27648e-08
-1.39916e-08
7.41107e-08
1.90715e-08
-7.01613e-08
-2.10248e-08
7.21145e-08
2.66455e-08
-2.02758e-08
-2.79321e-08
2.15624e-08
2.93631e-08
6.30619e-08
-2.90195e-08
-6.34055e-08
2.51246e-08
1.48966e-07
-2.27771e-08
-1.51314e-07
1.2844e-08
2.09619e-07
-8.94249e-09
-2.1352e-07
-3.73317e-09
2.32166e-07
7.92346e-09
-2.36356e-07
-2.05232e-08
2.33591e-07
2.46114e-08
-2.3768e-07
-3.75637e-08
2.29073e-07
4.21573e-08
-2.33666e-07
-5.76607e-08
2.12504e-07
6.30076e-08
-2.17851e-07
-7.91451e-08
1.72453e-07
8.38788e-08
-1.77187e-07
-9.80886e-08
1.28832e-07
1.00117e-07
-1.3086e-07
-1.11467e-07
6.61401e-08
1.12016e-07
-6.66897e-08
-1.49887e-07
4.85752e-08
1.54973e-07
-5.36617e-08
-1.40543e-07
-1.60085e-07
1.45341e-07
1.55287e-07
-1.75911e-07
1.39102e-08
1.76354e-07
-1.43535e-08
-1.54161e-07
-1.09623e-07
1.43975e-07
1.19809e-07
-1.202e-07
-1.36615e-07
1.14382e-07
1.42433e-07
-9.85251e-08
-1.43868e-07
9.40292e-08
1.48364e-07
-7.98517e-08
-1.40801e-07
7.50077e-08
1.45645e-07
-6.01871e-08
-1.31567e-07
5.72801e-08
1.34474e-07
-5.1689e-08
-1.20454e-07
5.01483e-08
1.21995e-07
-4.46322e-08
-1.18035e-07
4.24033e-08
1.20264e-07
-3.36955e-08
-1.12441e-07
3.03079e-08
1.15829e-07
-1.9101e-08
-1.01921e-07
1.5221e-08
1.05801e-07
-3.05184e-09
-8.85988e-08
-1.00765e-09
9.26583e-08
4.08133e-10
5.54828e-08
-5.43118e-08
-1.57911e-09
2.76654e-09
-4.12618e-08
-3.28428e-09
4.17796e-08
5.01555e-09
-5.0622e-08
-5.69877e-09
5.13052e-08
8.16366e-09
-6.46725e-08
-9.0969e-09
6.56057e-08
1.24669e-08
-7.81748e-08
-1.38296e-08
7.95374e-08
1.91466e-08
-7.82367e-08
-2.12782e-08
8.03684e-08
2.76271e-08
-2.57147e-08
-2.91115e-08
2.71991e-08
3.1005e-08
6.42177e-08
-3.08111e-08
-6.44116e-08
2.72747e-08
1.58364e-07
-2.49213e-08
-1.60718e-07
1.46632e-08
2.25481e-07
-1.05837e-08
-2.2956e-07
-2.58416e-09
2.49087e-07
6.88277e-09
-2.53385e-07
-1.96204e-08
2.49928e-07
2.36904e-08
-2.53998e-07
-3.65683e-08
2.4758e-07
4.1239e-08
-2.52251e-07
-5.77274e-08
2.34627e-07
6.35922e-08
-2.40492e-07
-8.16435e-08
1.91394e-07
8.59918e-08
-1.95742e-07
-9.6286e-08
1.43519e-07
1.06459e-07
-1.53691e-07
-1.05322e-07
1.07407e-07
1.3033e-07
-1.32415e-07
-1.38094e-07
3.31463e-08
1.21977e-07
-1.70291e-08
-1.51597e-07
-1.02709e-07
1.82407e-07
7.18991e-08
-1.78763e-07
3.9775e-10
1.67972e-07
1.03933e-08
-1.46357e-07
-1.46935e-07
1.42168e-07
1.51124e-07
-1.31339e-07
-1.59803e-07
1.2697e-07
1.64172e-07
-1.10086e-07
-1.63476e-07
1.04171e-07
1.69391e-07
-8.71801e-08
-1.6214e-07
8.27662e-08
1.66554e-07
-6.80002e-08
-1.45947e-07
6.29945e-08
1.50953e-07
-4.90001e-08
-1.2763e-07
4.59169e-08
1.30713e-07
-3.89846e-08
-1.26402e-07
3.73126e-08
1.28074e-07
-3.11967e-08
-1.25652e-07
2.85933e-08
1.28256e-07
-1.8629e-08
-1.17838e-07
1.50617e-08
1.21405e-07
-4.02078e-09
-1.04011e-07
4.01551e-10
1.0763e-07
3.63177e-10
6.04586e-08
-5.91678e-08
-1.654e-09
2.7234e-09
-4.32982e-08
-3.21731e-09
4.37921e-08
4.89968e-09
-5.33361e-08
-5.57021e-09
5.40067e-08
8.00255e-09
-6.83894e-08
-8.92461e-09
6.93115e-08
1.2262e-08
-8.36445e-08
-1.36359e-08
8.50184e-08
1.91826e-08
-8.70517e-08
-2.15098e-08
8.93788e-08
2.86916e-08
-3.19641e-08
-3.03857e-08
3.36582e-08
3.27573e-08
6.47449e-08
-3.27334e-08
-6.47687e-08
2.96515e-08
1.67791e-07
-2.72887e-08
-1.70154e-07
1.66496e-08
2.42114e-07
-1.23502e-08
-2.46414e-07
-1.39701e-09
2.66456e-07
5.8137e-09
-2.70873e-07
-1.86735e-08
2.66137e-07
2.26872e-08
-2.70151e-07
-3.52633e-08
2.663e-07
3.99387e-08
-2.70976e-07
-5.75117e-08
2.59066e-07
6.40764e-08
-2.65631e-07
-8.41392e-08
2.06971e-07
8.74929e-08
-2.10325e-07
-1.04264e-07
1.84349e-07
1.11482e-07
-1.91567e-07
-1.22413e-07
1.73204e-07
1.26858e-07
-1.77649e-07
-1.56531e-07
-1.89755e-09
1.6007e-07
-1.64235e-09
-1.80604e-07
-6.69395e-09
1.66625e-07
2.06732e-08
-1.06675e-07
-6.08498e-08
9.0564e-08
7.69608e-08
-1.01109e-07
-1.44439e-07
1.0832e-07
1.37229e-07
-1.10692e-07
-1.75705e-07
1.0735e-07
1.79047e-07
-9.87965e-08
-1.85612e-07
9.82934e-08
1.86115e-07
-9.20689e-08
-1.78582e-07
9.29012e-08
1.7775e-07
-8.4085e-08
-1.66672e-07
8.03153e-08
1.70442e-07
-6.24831e-08
-1.45436e-07
5.55891e-08
1.5233e-07
-3.88496e-08
-1.35859e-07
3.37027e-08
1.41006e-07
-2.34367e-08
-1.35004e-07
2.04583e-08
1.37982e-07
-1.32924e-08
-1.2998e-07
1.06852e-08
1.32587e-07
-3.00924e-09
-1.17279e-07
1.04275e-10
1.20184e-07
3.07338e-10
6.59828e-08
-6.45437e-08
-1.74647e-09
2.67825e-09
-4.52342e-08
-3.14497e-09
4.57009e-08
4.77626e-09
-5.59985e-08
-5.43349e-09
5.66558e-08
7.83096e-09
-7.20591e-08
-8.74027e-09
7.29684e-08
1.20268e-08
-8.91492e-08
-1.34052e-08
9.05276e-08
1.91641e-08
-9.66742e-08
-2.1704e-08
9.92141e-08
2.98468e-08
-3.90643e-08
-3.17573e-08
4.09748e-08
3.46083e-08
6.45593e-08
-3.47767e-08
-6.43909e-08
3.22812e-08
1.77265e-07
-2.99014e-08
-1.79645e-07
1.8821e-08
2.59709e-07
-1.42428e-08
-2.64287e-07
-1.86833e-10
2.84321e-07
4.73519e-09
-2.8887e-07
-1.77108e-08
2.82054e-07
2.16219e-08
-2.85965e-07
-3.35762e-08
2.84873e-07
3.81327e-08
-2.8943e-07
-5.69306e-08
2.86648e-07
6.44035e-08
-2.94121e-07
-8.42483e-08
2.24862e-07
9.27205e-08
-2.33334e-07
-1.16502e-07
2.17219e-07
1.19272e-07
-2.19988e-07
-1.31705e-07
2.02072e-07
1.39491e-07
-2.09858e-07
-1.13379e-07