/*--------------------------------*- C++ -*----------------------------------*\
| =========                 |                                                 |
| \\      /  F ield         | OpenFOAM: The Open Source CFD Toolbox           |
|  \\    /   O peration     | Version:  2.4.0                                 |
|   \\  /    A nd           | Web:      www.OpenFOAM.org                      |
|    \\/     M anipulation  |                                                 |
\*---------------------------------------------------------------------------*/
FoamFile
{
    version     2.0;
    format      ascii;
    class       surfaceScalarField;
    location    "0.207";
    object      phi;
}
// * * * * * * * * * * * * * * * * * * * * * * * * * * * * * * * * * * * * * //

dimensions      [0 3 -1 0 0 0 0];

internalField   nonuniform List<scalar> 
119500
(
-3.72121e-10
3.72121e-10
-8.15043e-10
4.42923e-10
-1.2704e-09
4.55356e-10
-1.72978e-09
4.59384e-10
-2.19308e-09
4.63294e-10
-2.66099e-09
4.67914e-10
-3.13442e-09
4.73433e-10
-3.61431e-09
4.79889e-10
-4.1016e-09
4.87291e-10
-4.59725e-09
4.95643e-10
-5.10219e-09
5.0494e-10
-5.61735e-09
5.15168e-10
-6.14367e-09
5.26317e-10
-6.68204e-09
5.38371e-10
-7.23335e-09
5.51308e-10
-7.79845e-09
5.65106e-10
-8.37819e-09
5.7974e-10
-8.97337e-09
5.95177e-10
-9.58475e-09
6.11378e-10
-1.02131e-08
6.28302e-10
-1.0859e-08
6.45902e-10
-1.15231e-08
6.64123e-10
-1.2206e-08
6.82903e-10
-1.29082e-08
7.02175e-10
-1.363e-08
7.21864e-10
-1.43719e-08
7.41884e-10
-1.5134e-08
7.62144e-10
-1.59166e-08
7.82549e-10
-1.67196e-08
8.02987e-10
-1.75429e-08
8.23335e-10
-1.83864e-08
8.4346e-10
-1.92496e-08
8.63222e-10
-2.01321e-08
8.82465e-10
-2.10331e-08
9.0102e-10
-2.19518e-08
9.18711e-10
-2.28871e-08
9.35347e-10
-2.38379e-08
9.50726e-10
-2.48025e-08
9.64633e-10
-2.57793e-08
9.76844e-10
-2.67665e-08
9.87126e-10
-2.77617e-08
9.95233e-10
-2.87626e-08
1.00091e-09
-2.97665e-08
1.0039e-09
-3.07704e-08
1.00393e-09
-3.17712e-08
1.00072e-09
-3.27652e-08
9.93995e-10
-3.37486e-08
9.83466e-10
-3.47175e-08
9.68837e-10
-3.56673e-08
9.49814e-10
-3.65934e-08
9.26096e-10
-3.74908e-08
8.97385e-10
-3.83541e-08
8.63383e-10
-3.91779e-08
8.23802e-10
-3.99563e-08
7.78365e-10
-4.06831e-08
7.26809e-10
-4.1352e-08
6.68898e-10
-4.19564e-08
6.04422e-10
-4.24897e-08
5.33215e-10
-4.29448e-08
4.55156e-10
-4.3315e-08
3.7018e-10
-4.35933e-08
2.7828e-10
-4.37728e-08
1.79558e-10
-4.38474e-08
7.46093e-11
-4.38138e-08
-3.35965e-11
-4.36604e-08
-1.53396e-10
-4.33846e-08
-2.75809e-10
-4.29823e-08
-4.02376e-10
-4.24497e-08
-5.32517e-10
-4.17845e-08
-6.65266e-10
-4.0985e-08
-7.99469e-10
-4.00512e-08
-9.33761e-10
-3.89846e-08
-1.06661e-09
-3.77884e-08
-1.19627e-09
-3.64676e-08
-1.32081e-09
-3.50292e-08
-1.43839e-09
-3.34818e-08
-1.54739e-09
-3.18397e-08
-1.64203e-09
-3.01176e-08
-1.72212e-09
-2.83333e-08
-1.78431e-09
-2.65081e-08
-1.82519e-09
-2.46671e-08
-1.84105e-09
-2.28389e-08
-1.8282e-09
-2.1056e-08
-1.78289e-09
-1.93548e-08
-1.70118e-09
-1.77757e-08
-1.57908e-09
-1.63636e-08
-1.4121e-09
-1.51697e-08
-1.19388e-09
-1.42505e-08
-9.19209e-10
-1.36747e-08
-5.75848e-10
-1.352e-08
-1.54712e-10
-1.38412e-08
3.21261e-10
-1.4676e-08
8.34796e-10
-1.60621e-08
1.38611e-09
-1.80242e-08
1.96211e-09
-2.05605e-08
2.53625e-09
-2.36273e-08
3.06682e-09
-2.71185e-08
3.49122e-09
-3.08391e-08
3.72053e-09
-3.45028e-08
3.6637e-09
3.34298e-09
-3.78458e-08
-6.02542e-10
9.74663e-10
-1.33257e-09
1.17295e-09
-2.07402e-09
1.19681e-09
-2.82095e-09
1.20631e-09
-3.5748e-09
1.21715e-09
-4.33736e-09
1.23047e-09
-5.11043e-09
1.24651e-09
-5.89587e-09
1.26532e-09
-6.69552e-09
1.28694e-09
-7.51125e-09
1.31138e-09
-8.34494e-09
1.33864e-09
-9.19849e-09
1.36871e-09
-1.00738e-08
1.40161e-09
-1.09727e-08
1.43733e-09
-1.18973e-08
1.47584e-09
-1.28493e-08
1.51713e-09
-1.38307e-08
1.56117e-09
-1.48435e-08
1.60792e-09
-1.58894e-08
1.65734e-09
-1.69705e-08
1.70938e-09
-1.80886e-08
1.76397e-09
-1.92455e-08
1.82104e-09
-2.04431e-08
1.8805e-09
-2.16831e-08
1.94225e-09
-2.29675e-08
2.00617e-09
-2.42977e-08
2.07214e-09
-2.56756e-08
2.14001e-09
-2.71026e-08
2.20962e-09
-2.85804e-08
2.28078e-09
-3.01104e-08
2.35328e-09
-3.16938e-08
2.42689e-09
-3.3332e-08
2.50137e-09
-3.50259e-08
2.57643e-09
-3.67767e-08
2.65176e-09
-3.8585e-08
2.72703e-09
-4.04515e-08
2.80189e-09
-4.23767e-08
2.87594e-09
-4.43609e-08
2.94877e-09
-4.6404e-08
3.01994e-09
-4.85058e-08
3.08897e-09
-5.0666e-08
3.15538e-09
-5.28837e-08
3.21864e-09
-5.5158e-08
3.2782e-09
-5.74875e-08
3.33348e-09
-5.98707e-08
3.38391e-09
-6.23056e-08
3.42885e-09
-6.47898e-08
3.46766e-09
-6.73206e-08
3.49968e-09
-6.9895e-08
3.52421e-09
-7.25094e-08
3.54052e-09
-7.516e-08
3.5479e-09
-7.78422e-08
3.54558e-09
-8.05512e-08
3.53282e-09
-8.32817e-08
3.50886e-09
-8.60278e-08
3.47297e-09
-8.87834e-08
3.42444e-09
-9.15415e-08
3.36259e-09
-9.42952e-08
3.28684e-09
-9.70367e-08
3.19666e-09
-9.97581e-08
3.09165e-09
-1.02451e-07
2.97154e-09
-1.05108e-07
2.83628e-09
-1.0772e-07
2.68618e-09
-1.10275e-07
2.52209e-09
-1.1277e-07
2.34101e-09
-1.15193e-07
2.14735e-09
-1.17537e-07
1.94147e-09
-1.19794e-07
1.72451e-09
-1.21957e-07
1.49816e-09
-1.24021e-07
1.26451e-09
-1.25981e-07
1.02609e-09
-1.27834e-07
7.85847e-10
-1.29577e-07
5.4719e-10
-1.31212e-07
3.13982e-10
-1.3274e-07
8.99465e-11
-1.34164e-07
-1.23116e-10
-1.35496e-07
-3.10633e-10
-1.36744e-07
-4.74262e-10
-1.37921e-07
-6.06531e-10
-1.39046e-07
-7.00776e-10
-1.40137e-07
-7.49521e-10
-1.4122e-07
-7.45801e-10
-1.4232e-07
-6.83056e-10
-1.43466e-07
-5.54613e-10
-1.4469e-07
-3.54958e-10
-1.46023e-07
-7.91029e-11
-1.47498e-07
2.80433e-10
-1.49139e-07
7.2258e-10
-1.50973e-07
1.25788e-09
-1.53017e-07
1.88899e-09
-1.55309e-07
2.6137e-09
-1.57894e-07
3.41996e-09
-1.60789e-07
4.28023e-09
-1.63971e-07
5.14457e-09
-1.67369e-07
5.93426e-09
-1.70844e-07
6.5421e-09
-1.74185e-07
6.83157e-09
-1.77114e-07
6.65028e-09
-1.79333e-07
5.88232e-09
4.61335e-09
-1.80603e-07
-6.62533e-10
1.6372e-09
-1.46433e-09
1.97475e-09
-2.27777e-09
2.01025e-09
-3.09712e-09
2.02566e-09
-3.92426e-09
2.04429e-09
-4.76132e-09
2.06754e-09
-5.61043e-09
2.09562e-09
-6.47371e-09
2.1286e-09
-7.35329e-09
2.16653e-09
-8.25135e-09
2.20943e-09
-9.17007e-09
2.25735e-09
-1.01116e-08
2.31029e-09
-1.10783e-08
2.36827e-09
-1.20723e-08
2.43131e-09
-1.30959e-08
2.49942e-09
-1.41513e-08
2.5726e-09
-1.5241e-08
2.65082e-09
-1.63671e-08
2.73407e-09
-1.75321e-08
2.82232e-09
-1.87383e-08
2.91553e-09
-1.99879e-08
3.01364e-09
-2.12835e-08
3.11658e-09
-2.26272e-08
3.22427e-09
-2.40216e-08
3.3366e-09
-2.54689e-08
3.45345e-09
-2.69714e-08
3.57469e-09
-2.85316e-08
3.70014e-09
-3.01516e-08
3.82962e-09
-3.18337e-08
3.96291e-09
-3.35802e-08
4.09975e-09
-3.53931e-08
4.23988e-09
-3.72748e-08
4.38298e-09
-3.9227e-08
4.52869e-09
-4.12519e-08
4.67663e-09
-4.33512e-08
4.82636e-09
-4.55267e-08
4.97742e-09
-4.77801e-08
5.1293e-09
-5.01128e-08
5.28144e-09
-5.25261e-08
5.43327e-09
-5.50213e-08
5.58413e-09
-5.75993e-08
5.73337e-09
-6.02609e-08
5.88027e-09
-6.30068e-08
6.02407e-09
-6.58372e-08
6.16397e-09
-6.87525e-08
6.29914e-09
-7.17523e-08
6.42871e-09
-7.48364e-08
6.55175e-09
-7.8004e-08
6.66728e-09
-8.12541e-08
6.77428e-09
-8.45853e-08
6.87169e-09
-8.79957e-08
6.95837e-09
-9.14833e-08
7.03318e-09
-9.50455e-08
7.09494e-09
-9.8679e-08
7.14242e-09
-1.0238e-07
7.17441e-09
-1.06146e-07
7.18971e-09
-1.0997e-07
7.18714e-09
-1.13849e-07
7.16561e-09
-1.17776e-07
7.1241e-09
-1.21747e-07
7.06172e-09
-1.25753e-07
6.97778e-09
-1.29788e-07
6.87177e-09
-1.33846e-07
6.74356e-09
-1.37917e-07
6.59316e-09
-1.41995e-07
6.41935e-09
-1.46072e-07
6.22432e-09
-1.5014e-07
6.00893e-09
-1.54189e-07
5.77446e-09
-1.58214e-07
5.52272e-09
-1.62206e-07
5.25604e-09
-1.66157e-07
4.97728e-09
-1.70061e-07
4.68982e-09
-1.73911e-07
4.39759e-09
-1.77702e-07
4.10502e-09
-1.81429e-07
3.81676e-09
-1.8509e-07
3.53758e-09
-1.88678e-07
3.2774e-09
-1.92192e-07
3.03972e-09
-1.9563e-07
2.83196e-09
-1.98993e-07
2.66206e-09
-2.02281e-07
2.53844e-09
-2.05496e-07
2.46923e-09
-2.08641e-07
2.4619e-09
-2.11719e-07
2.52366e-09
-2.14736e-07
2.66132e-09
-2.17696e-07
2.88147e-09
-2.20607e-07
3.19112e-09
-2.23477e-07
3.5931e-09
-2.26314e-07
4.09422e-09
-2.2912e-07
4.69512e-09
-2.31891e-07
5.38451e-09
-2.34599e-07
6.12866e-09
-2.37183e-07
6.86355e-09
-2.39531e-07
7.49311e-09
-2.41491e-07
7.8941e-09
-2.42876e-07
7.92692e-09
-2.43485e-07
7.44122e-09
-2.4313e-07
6.29477e-09
-2.4168e-07
4.43232e-09
2.00298e-09
-2.3907e-07
-6.75155e-10
2.31235e-09
-1.48991e-09
2.7895e-09
-2.31703e-09
2.83738e-09
-3.1503e-09
2.85892e-09
-3.99154e-09
2.88553e-09
-4.84298e-09
2.91897e-09
-5.70678e-09
2.95942e-09
-6.58514e-09
3.00697e-09
-7.48028e-09
3.06167e-09
-8.39442e-09
3.12358e-09
-9.32982e-09
3.19275e-09
-1.02888e-08
3.26923e-09
-1.12736e-08
3.35306e-09
-1.22865e-08
3.44427e-09
-1.333e-08
3.5429e-09
-1.44064e-08
3.64897e-09
-1.5518e-08
3.76249e-09
-1.66674e-08
3.88346e-09
-1.7857e-08
4.01186e-09
-1.90891e-08
4.14768e-09
-2.03664e-08
4.29088e-09
-2.16912e-08
4.44139e-09
-2.30661e-08
4.59915e-09
-2.44935e-08
4.76406e-09
-2.59761e-08
4.936e-09
-2.75162e-08
5.11484e-09
-2.91165e-08
5.3004e-09
-3.07793e-08
5.49248e-09
-3.25073e-08
5.69085e-09
-3.43028e-08
5.89524e-09
-3.61682e-08
6.10534e-09
-3.8106e-08
6.32078e-09
-4.01185e-08
6.54118e-09
-4.22079e-08
6.76607e-09
-4.43765e-08
6.99496e-09
-4.66264e-08
7.22731e-09
-4.89596e-08
7.46251e-09
-5.13781e-08
7.69991e-09
-5.38836e-08
7.9388e-09
-5.64779e-08
8.17842e-09
-5.91625e-08
8.41797e-09
-6.19388e-08
8.65659e-09
-6.48081e-08
8.89335e-09
-6.77714e-08
9.12729e-09
-7.08297e-08
9.35738e-09
-7.39835e-08
9.58255e-09
-7.72334e-08
9.80165e-09
-8.05796e-08
1.00135e-08
-8.4022e-08
1.02167e-08
-8.75602e-08
1.04099e-08
-9.11937e-08
1.05918e-08
-9.49214e-08
1.07608e-08
-9.87418e-08
1.09154e-08
-1.02653e-07
1.10539e-08
-1.06653e-07
1.11746e-08
-1.1074e-07
1.1276e-08
-1.14909e-07
1.13563e-08
-1.19157e-07
1.1414e-08
-1.23481e-07
1.14476e-08
-1.27875e-07
1.14556e-08
-1.32334e-07
1.14369e-08
-1.36853e-07
1.13904e-08
-1.41425e-07
1.13156e-08
-1.46043e-07
1.12117e-08
-1.50702e-07
1.10779e-08
-1.55392e-07
1.09152e-08
-1.60108e-07
1.07243e-08
-1.64839e-07
1.05061e-08
-1.69579e-07
1.02621e-08
-1.74317e-07
9.99429e-09
-1.79045e-07
9.70526e-09
-1.83753e-07
9.39805e-09
-1.88432e-07
9.07624e-09
-1.93071e-07
8.74391e-09
-1.9766e-07
8.40543e-09
-2.02188e-07
8.0658e-09
-2.06643e-07
7.73243e-09
-2.11013e-07
7.41035e-09
-2.15288e-07
7.1067e-09
-2.19456e-07
6.82967e-09
-2.23505e-07
6.58799e-09
-2.27426e-07
6.39022e-09
-2.31209e-07
6.24473e-09
-2.34846e-07
6.16047e-09
-2.38332e-07
6.14748e-09
-2.41667e-07
6.21626e-09
-2.44852e-07
6.37631e-09
-2.47892e-07
6.63256e-09
-2.50783e-07
6.9858e-09
-2.53513e-07
7.42463e-09
-2.56044e-07
7.91631e-09
-2.58313e-07
8.39728e-09
-2.6022e-07
8.77032e-09
-2.61638e-07
8.91125e-09
-2.62426e-07
8.68185e-09
-2.62442e-07
7.94349e-09
-2.61562e-07
6.56083e-09
-2.59684e-07
4.41711e-09
-2.56747e-07
1.49466e-09
-2.02638e-09
-2.52717e-07
-6.76685e-10
2.98904e-09
-1.49168e-09
3.60449e-09
-2.31948e-09
3.66518e-09
-3.15357e-09
3.69301e-09
-3.99569e-09
3.72765e-09
-4.84803e-09
3.7713e-09
-5.71277e-09
3.82417e-09
-6.59213e-09
3.88632e-09
-7.48832e-09
3.95786e-09
-8.40359e-09
4.03885e-09
-9.34021e-09
4.12937e-09
-1.03005e-08
4.22949e-09
-1.12867e-08
4.33927e-09
-1.23012e-08
4.45879e-09
-1.33464e-08
4.58809e-09
-1.44246e-08
4.72722e-09
-1.55384e-08
4.87621e-09
-1.669e-08
5.03509e-09
-1.7882e-08
5.20387e-09
-1.91169e-08
5.38255e-09
-2.03971e-08
5.57109e-09
-2.17252e-08
5.76947e-09
-2.31036e-08
5.97762e-09
-2.4535e-08
6.19545e-09
-2.60219e-08
6.42286e-09
-2.75667e-08
6.65971e-09
-2.91722e-08
6.90584e-09
-3.08407e-08
7.16102e-09
-3.25749e-08
7.42502e-09
-3.43772e-08
7.69754e-09
-3.62501e-08
7.97825e-09
-3.81961e-08
8.26675e-09
-4.02175e-08
8.56259e-09
-4.23167e-08
8.86527e-09
-4.4496e-08
9.17423e-09
-4.67575e-08
9.48885e-09
-4.91035e-08
9.80844e-09
-5.15358e-08
1.01323e-08
-5.40565e-08
1.04595e-08
-5.66673e-08
1.07892e-08
-5.93699e-08
1.11206e-08
-6.21658e-08
1.14525e-08
-6.50564e-08
1.1784e-08
-6.8043e-08
1.21139e-08
-7.11266e-08
1.2441e-08
-7.43081e-08
1.2764e-08
-7.7588e-08
1.30816e-08
-8.0967e-08
1.33924e-08
-8.4445e-08
1.36947e-08
-8.80221e-08
1.3987e-08
-9.16979e-08
1.42676e-08
-9.54716e-08
1.45345e-08
-9.93422e-08
1.4786e-08
-1.03308e-07
1.50198e-08
-1.07368e-07
1.52341e-08
-1.11518e-07
1.54267e-08
-1.15757e-07
1.55954e-08
-1.20082e-07
1.57382e-08
-1.24487e-07
1.58531e-08
-1.2897e-07
1.59381e-08
-1.33524e-07
1.59916e-08
-1.38146e-07
1.6012e-08
-1.42828e-07
1.59981e-08
-1.47565e-07
1.59486e-08
-1.5235e-07
1.58628e-08
-1.57176e-07
1.57405e-08
-1.62033e-07
1.55821e-08
-1.66915e-07
1.53879e-08
-1.71812e-07
1.51591e-08
-1.76715e-07
1.4897e-08
-1.81614e-07
1.46038e-08
-1.86497e-07
1.42818e-08
-1.91355e-07
1.39341e-08
-1.96175e-07
1.35641e-08
-2.00946e-07
1.31756e-08
-2.05653e-07
1.27732e-08
-2.10283e-07
1.23627e-08
-2.14823e-07
1.19497e-08
-2.19257e-07
1.15415e-08
-2.23575e-07
1.11467e-08
-2.27761e-07
1.07748e-08
-2.31806e-07
1.04352e-08
-2.357e-07
1.0138e-08
-2.39434e-07
9.89447e-09
-2.43005e-07
9.71854e-09
-2.46413e-07
9.62448e-09
-2.4966e-07
9.62298e-09
-2.52743e-07
9.71645e-09
-2.55653e-07
9.89558e-09
-2.58361e-07
1.01322e-08
-2.60816e-07
1.03715e-08
-2.62945e-07
1.05264e-08
-2.64654e-07
1.04789e-08
-2.65833e-07
1.00911e-08
-2.66371e-07
9.21913e-09
-2.66153e-07
7.72554e-09
-2.65072e-07
5.47971e-09
-2.63025e-07
2.37058e-09
-2.59912e-07
-1.61843e-09
-6.29599e-09
-2.55642e-07
-6.75698e-10
3.66474e-09
-1.48844e-09
4.41724e-09
-2.31425e-09
4.49099e-09
-3.14642e-09
4.52518e-09
-3.98663e-09
4.56787e-09
-4.83705e-09
4.62172e-09
-5.69986e-09
4.68698e-09
-6.57728e-09
4.76374e-09
-7.47152e-09
4.8521e-09
-8.38483e-09
4.95216e-09
-9.31947e-09
5.06402e-09
-1.02778e-08
5.18777e-09
-1.1262e-08
5.32351e-09
-1.22745e-08
5.47133e-09
-1.33177e-08
5.6313e-09
-1.4394e-08
5.80349e-09
-1.55058e-08
5.98797e-09
-1.66555e-08
6.18478e-09
-1.78456e-08
6.39395e-09
-1.90785e-08
6.6155e-09
-2.03569e-08
6.84943e-09
-2.16831e-08
7.09571e-09
-2.30598e-08
7.35429e-09
-2.44894e-08
7.6251e-09
-2.59746e-08
7.90804e-09
-2.75178e-08
8.20298e-09
-2.91218e-08
8.50974e-09
-3.07888e-08
8.82811e-09
-3.25217e-08
9.15784e-09
-3.43227e-08
9.49861e-09
-3.61945e-08
9.85005e-09
-3.81395e-08
1.02117e-08
-4.01601e-08
1.05832e-08
-4.22586e-08
1.09638e-08
-4.44374e-08
1.1353e-08
-4.66986e-08
1.17501e-08
-4.90445e-08
1.21543e-08
-5.14769e-08
1.25647e-08
-5.39979e-08
1.29805e-08
-5.66093e-08
1.34006e-08
-5.93128e-08
1.3824e-08
-6.21098e-08
1.42495e-08
-6.50018e-08
1.4676e-08
-6.799e-08
1.51021e-08
-7.10755e-08
1.55265e-08
-7.42591e-08
1.59476e-08
-7.75415e-08
1.6364e-08
-8.09232e-08
1.6774e-08
-8.44043e-08
1.71758e-08
-8.79848e-08
1.75675e-08
-9.16642e-08
1.7947e-08
-9.54418e-08
1.83122e-08
-9.93166e-08
1.86608e-08
-1.03287e-07
1.89903e-08
-1.07351e-07
1.92983e-08
-1.11507e-07
1.95822e-08
-1.15751e-07
1.98394e-08
-1.2008e-07
2.00673e-08
-1.2449e-07
2.02635e-08
-1.28977e-07
2.04253e-08
-1.33536e-07
2.05506e-08
-1.38162e-07
2.06373e-08
-1.42847e-07
2.06835e-08
-1.47586e-07
2.06877e-08
-1.52372e-07
2.06484e-08
-1.57196e-07
2.05651e-08
-1.62052e-07
2.04373e-08
-1.66929e-07
2.02651e-08
-1.71819e-07
2.0049e-08
-1.76712e-07
1.97901e-08
-1.81598e-07
1.94897e-08
-1.86466e-07
1.915e-08
-1.91305e-07
1.87734e-08
-1.96104e-07
1.8363e-08
-2.00851e-07
1.79222e-08
-2.05533e-07
1.74554e-08
-2.10138e-07
1.6968e-08
-2.14654e-07
1.6466e-08
-2.1907e-07
1.59574e-08
-2.23375e-07
1.54518e-08
-2.2756e-07
1.49596e-08
-2.31616e-07
1.44913e-08
-2.35536e-07
1.4058e-08
-2.39315e-07
1.36727e-08
-2.42947e-07
1.33515e-08
-2.46433e-07
1.31104e-08
-2.4977e-07
1.29595e-08
-2.52949e-07
1.28959e-08
-2.55953e-07
1.28995e-08
-2.58748e-07
1.29269e-08
-2.61282e-07
1.29054e-08
-2.63485e-07
1.27295e-08
-2.65272e-07
1.22661e-08
-2.66547e-07
1.13657e-08
-2.67203e-07
9.87587e-09
-2.67131e-07
7.65288e-09
-2.66213e-07
4.5618e-09
-2.64326e-07
4.8392e-10
-2.61324e-07
-4.6203e-09
-1.0551e-08
-2.57069e-07
-6.73842e-10
4.33858e-09
-1.48366e-09
5.22705e-09
-2.30664e-09
5.31397e-09
-3.13601e-09
5.35456e-09
-3.97344e-09
5.40529e-09
-4.82106e-09
5.46934e-09
-5.68106e-09
5.54698e-09
-6.55563e-09
5.63831e-09
-7.447e-09
5.74347e-09
-8.35742e-09
5.86258e-09
-9.28916e-09
5.99575e-09
-1.02445e-08
6.14312e-09
-1.12258e-08
6.3048e-09
-1.22353e-08
6.48089e-09
-1.32756e-08
6.67151e-09
-1.43488e-08
6.87676e-09
-1.54576e-08
7.09671e-09
-1.66042e-08
7.33144e-09
-1.77912e-08
7.581e-09
-1.90212e-08
7.84542e-09
-2.02965e-08
8.12473e-09
-2.16197e-08
8.41892e-09
-2.29933e-08
8.72794e-09
-2.442e-08
9.05175e-09
-2.59022e-08
9.39025e-09
-2.74425e-08
9.74331e-09
-2.90436e-08
1.01108e-08
-3.07078e-08
1.04924e-08
-3.24379e-08
1.08879e-08
-3.42363e-08
1.1297e-08
-3.61055e-08
1.17193e-08
-3.8048e-08
1.21542e-08
-4.00662e-08
1.26014e-08
-4.21625e-08
1.30601e-08
-4.43392e-08
1.35297e-08
-4.65985e-08
1.40094e-08
-4.89425e-08
1.44983e-08
-5.13734e-08
1.49956e-08
-5.38931e-08
1.55001e-08
-5.65032e-08
1.60108e-08
-5.92057e-08
1.65264e-08
-6.20019e-08
1.70458e-08
-6.48933e-08
1.75674e-08
-6.78812e-08
1.809e-08
-7.09666e-08
1.86118e-08
-7.41503e-08
1.91314e-08
-7.74331e-08
1.96468e-08
-8.08153e-08
2.01563e-08
-8.42972e-08
2.06577e-08
-8.78786e-08
2.11489e-08
-9.15591e-08
2.16276e-08
-9.53381e-08
2.20912e-08
-9.92143e-08
2.2537e-08
-1.03186e-07
2.29623e-08
-1.07252e-07
2.3364e-08
-1.11409e-07
2.37392e-08
-1.15654e-07
2.40847e-08
-1.19984e-07
2.43974e-08
-1.24395e-07
2.46742e-08
-1.28882e-07
2.49122e-08
-1.3344e-07
2.51084e-08
-1.38063e-07
2.52602e-08
-1.42744e-07
2.53652e-08
-1.47478e-07
2.54213e-08
-1.52256e-07
2.54265e-08
-1.5707e-07
2.53796e-08
-1.61913e-07
2.52797e-08
-1.66774e-07
2.51265e-08
-1.71645e-07
2.49198e-08
-1.76515e-07
2.46604e-08
-1.81375e-07
2.43493e-08
-1.86213e-07
2.39883e-08
-1.91019e-07
2.35796e-08
-1.95782e-07
2.31261e-08
-2.00492e-07
2.26314e-08
-2.05136e-07
2.20998e-08
-2.09705e-07
2.1537e-08
-2.14189e-07
2.09498e-08
-2.18578e-07
2.03471e-08
-2.22866e-07
1.97395e-08
-2.27045e-07
1.91384e-08
-2.31108e-07
1.85546e-08
-2.3505e-07
1.79994e-08
-2.38863e-07
1.74862e-08
-2.42544e-07
1.7032e-08
-2.46087e-07
1.66533e-08
-2.49486e-07
1.6359e-08
-2.52732e-07
1.61417e-08
-2.55805e-07
1.59727e-08
-2.58675e-07
1.57965e-08
-2.61294e-07
1.5525e-08
-2.63601e-07
1.50365e-08
-2.65517e-07
1.41822e-08
-2.6695e-07
1.27986e-08
-2.67795e-07
1.0721e-08
-2.67938e-07
7.79541e-09
-2.67255e-07
3.87832e-09
-2.65601e-07
-1.16996e-09
-2.62787e-07
-7.43368e-09
-1.47312e-08
-2.58607e-07
-6.71416e-10
5.00999e-09
-1.47783e-09
6.03347e-09
-2.29743e-09
6.13356e-09
-3.12344e-09
6.18057e-09
-3.95749e-09
6.23935e-09
-4.80172e-09
6.31357e-09
-5.6583e-09
6.40355e-09
-6.52943e-09
6.50944e-09
-7.41733e-09
6.63137e-09
-8.32424e-09
6.76949e-09
-9.25244e-09
6.92395e-09
-1.02042e-08
7.0949e-09
-1.11819e-08
7.28248e-09
-1.21878e-08
7.48683e-09
-1.32244e-08
7.70808e-09
-1.4294e-08
7.94635e-09
-1.53991e-08
8.20176e-09
-1.6542e-08
8.47439e-09
-1.77254e-08
8.76433e-09
-1.89516e-08
9.07163e-09
-2.02231e-08
9.39632e-09
-2.15427e-08
9.73842e-09
-2.29126e-08
1.00979e-08
-2.43356e-08
1.04747e-08
-2.58142e-08
1.08688e-08
-2.73509e-08
1.12801e-08
-2.89484e-08
1.17082e-08
-3.06092e-08
1.21532e-08
-3.23358e-08
1.26146e-08
-3.41309e-08
1.30921e-08
-3.59969e-08
1.35853e-08
-3.79363e-08
1.40937e-08
-3.99516e-08
1.46167e-08
-4.20452e-08
1.51536e-08
-4.42193e-08
1.57038e-08
-4.64762e-08
1.62663e-08
-4.88182e-08
1.68403e-08
-5.12471e-08
1.74246e-08
-5.37651e-08
1.80181e-08
-5.63739e-08
1.86196e-08
-5.90753e-08
1.92278e-08
-6.18708e-08
1.98412e-08
-6.47618e-08
2.04584e-08
-6.77495e-08
2.10777e-08
-7.08352e-08
2.16975e-08
-7.40196e-08
2.23158e-08
-7.73034e-08
2.29306e-08
-8.06871e-08
2.354e-08
-8.4171e-08
2.41415e-08
-8.77548e-08
2.47328e-08
-9.14384e-08
2.53111e-08
-9.52208e-08
2.58736e-08
-9.9101e-08
2.64172e-08
-1.03078e-07
2.69388e-08
-1.07148e-07
2.74348e-08
-1.11311e-07
2.79017e-08
-1.15562e-07
2.83359e-08
-1.19898e-07
2.87337e-08
-1.24316e-07
2.90916e-08
-1.28809e-07
2.94058e-08
-1.33374e-07
2.9673e-08
-1.38004e-07
2.98898e-08
-1.42692e-07
3.00533e-08
-1.47431e-07
3.01607e-08
-1.52214e-07
3.02096e-08
-1.57033e-07
3.01982e-08
-1.61878e-07
3.0125e-08
-1.66741e-07
2.99891e-08
-1.71611e-07
2.97901e-08
-1.76479e-07
2.95282e-08
-1.81334e-07
2.92044e-08
-1.86165e-07
2.88199e-08
-1.90963e-07
2.83771e-08
-1.95716e-07
2.78789e-08
-2.00413e-07
2.7329e-08
-2.05046e-07
2.67321e-08
-2.09603e-07
2.60944e-08
-2.14077e-07
2.54234e-08
-2.18459e-07
2.4729e-08
-2.22742e-07
2.40229e-08
-2.26921e-07
2.33169e-08
-2.30988e-07
2.26219e-08
-2.34937e-07
2.19487e-08
-2.38762e-07
2.13107e-08
-2.42455e-07
2.07255e-08
-2.46013e-07
2.02107e-08
-2.49428e-07
1.97748e-08
-2.52694e-07
1.94077e-08
-2.55796e-07
1.90748e-08
-2.58711e-07
1.87106e-08
-2.61399e-07
1.82132e-08
-2.63806e-07
1.74436e-08
-2.65858e-07
1.62346e-08
-2.67466e-07
1.4406e-08
-2.68522e-07
1.17778e-08
-2.6891e-07
8.18342e-09
-2.685e-07
3.46779e-09
-2.67129e-07
-2.54136e-09
-2.64559e-07
-1.00034e-08
-1.8802e-08
-2.60488e-07
-6.68493e-10
5.67849e-09
-1.47103e-09
6.836e-09
-2.28672e-09
6.94925e-09
-3.10883e-09
7.00267e-09
-3.93896e-09
7.06949e-09
-4.77925e-09
7.15386e-09
-5.63185e-09
7.25616e-09
-6.49897e-09
7.37656e-09
-7.38283e-09
7.51522e-09
-8.28566e-09
7.67232e-09
-9.20974e-09
7.84803e-09
-1.01574e-08
8.04253e-09
-1.11309e-08
8.25598e-09
-1.21326e-08
8.48855e-09
-1.31649e-08
8.7404e-09
-1.42302e-08
9.01167e-09
-1.5331e-08
9.30251e-09
-1.64696e-08
9.61303e-09
-1.76486e-08
9.94333e-09
-1.88705e-08
1.02935e-08
-2.01377e-08
1.06636e-08
-2.14529e-08
1.10536e-08
-2.28185e-08
1.14635e-08
-2.42372e-08
1.18934e-08
-2.57115e-08
1.23431e-08
-2.7244e-08
1.28126e-08
-2.88373e-08
1.33015e-08
-3.04939e-08
1.38098e-08
-3.22166e-08
1.43372e-08
-3.40077e-08
1.48832e-08
-3.58699e-08
1.54475e-08
-3.78057e-08
1.60294e-08
-3.98175e-08
1.66285e-08
-4.19077e-08
1.72439e-08
-4.40788e-08
1.78748e-08
-4.63329e-08
1.85204e-08
-4.86722e-08
1.91796e-08
-5.10988e-08
1.98512e-08
-5.36148e-08
2.05341e-08
-5.6222e-08
2.12267e-08
-5.8922e-08
2.19278e-08
-6.17165e-08
2.26358e-08
-6.4607e-08
2.33489e-08
-6.75946e-08
2.40654e-08
-7.06806e-08
2.47834e-08
-7.38658e-08
2.5501e-08
-7.71509e-08
2.62158e-08
-8.05366e-08
2.69256e-08
-8.40229e-08
2.76279e-08
-8.76099e-08
2.83198e-08
-9.12973e-08
2.89985e-08
-9.50843e-08
2.96606e-08
-9.89699e-08
3.03029e-08
-1.02953e-07
3.09214e-08
-1.0703e-07
3.15125e-08
-1.11201e-07
3.20721e-08
-1.15461e-07
3.25959e-08
-1.19807e-07
3.30797e-08
-1.24235e-07
3.35194e-08
-1.28739e-07
3.39106e-08
-1.33316e-07
3.42494e-08
-1.37958e-07
3.45319e-08
-1.42659e-07
3.47543e-08
-1.47412e-07
3.49135e-08
-1.52208e-07
3.50063e-08
-1.57041e-07
3.50304e-08
-1.61899e-07
3.49838e-08
-1.66775e-07
3.4865e-08
-1.71658e-07
3.46732e-08
-1.76538e-07
3.44083e-08
-1.81405e-07
3.40708e-08
-1.86247e-07
3.3662e-08
-1.91054e-07
3.3184e-08
-1.95815e-07
3.26399e-08
-2.00519e-07
3.20336e-08
-2.05158e-07
3.13703e-08
-2.0972e-07
3.06565e-08
-2.14197e-07
2.99007e-08
-2.18582e-07
2.91135e-08
-2.22866e-07
2.83074e-08
-2.27044e-07
2.74947e-08
-2.31108e-07
2.66861e-08
-2.35052e-07
2.58923e-08
-2.38868e-07
2.51268e-08
-2.42551e-07
2.44086e-08
-2.46097e-07
2.37571e-08
-2.49504e-07
2.31822e-08
-2.5277e-07
2.2673e-08
-2.55886e-07
2.21906e-08
-2.58837e-07
2.16616e-08
-2.61594e-07
2.09707e-08
-2.6411e-07
1.99592e-08
-2.66314e-07
1.84387e-08
-2.68117e-07
1.62089e-08
-2.69411e-07
1.30725e-08
-2.70077e-07
8.84946e-09
-2.69982e-07
3.3722e-09
-2.6895e-07
-3.5728e-09
-2.66696e-07
-1.22581e-08
-2.2708e-08
-2.6279e-07
-6.65104e-10
6.34359e-09
-1.46328e-09
7.63418e-09
-2.27454e-09
7.76052e-09
-3.0922e-09
7.82034e-09
-3.91788e-09
7.89516e-09
-4.75367e-09
7.98966e-09
-5.60175e-09
8.10424e-09
-6.46431e-09
8.23911e-09
-7.34355e-09
8.39447e-09
-8.24174e-09
8.5705e-09
-9.16112e-09
8.76742e-09
-1.0104e-08
8.98542e-09
-1.10727e-08
9.2247e-09
-1.20696e-08
9.48545e-09
-1.30971e-08
9.76785e-09
-1.41575e-08
1.00721e-08
-1.52533e-08
1.03983e-08
-1.6387e-08
1.07467e-08
-1.75611e-08
1.11174e-08
-1.8778e-08
1.15104e-08
-2.00402e-08
1.19258e-08
-2.13504e-08
1.23638e-08
-2.2711e-08
1.28242e-08
-2.41248e-08
1.33071e-08
-2.55941e-08
1.38125e-08
-2.71218e-08
1.43402e-08
-2.87102e-08
1.489e-08
-3.03621e-08
1.54618e-08
-3.20801e-08
1.60552e-08
-3.38667e-08
1.66698e-08
-3.57245e-08
1.73053e-08
-3.7656e-08
1.79609e-08
-3.96637e-08
1.86362e-08
-4.17501e-08
1.93302e-08
-4.39175e-08
2.00422e-08
-4.61681e-08
2.07711e-08
-4.85044e-08
2.15158e-08
-5.09282e-08
2.22751e-08
-5.34417e-08
2.30476e-08
-5.60468e-08
2.38318e-08
-5.87451e-08
2.46262e-08
-6.15383e-08
2.5429e-08
-6.44279e-08
2.62385e-08
-6.74152e-08
2.70527e-08
-7.05013e-08
2.78695e-08
-7.36872e-08
2.86868e-08
-7.69736e-08
2.95022e-08
-8.03612e-08
3.03131e-08
-8.38501e-08
3.11168e-08
-8.74404e-08
3.19102e-08
-9.11319e-08
3.269e-08
-9.4924e-08
3.34527e-08
-9.88155e-08
3.41944e-08
-1.02805e-07
3.4911e-08
-1.06891e-07
3.55982e-08
-1.1107e-07
3.62514e-08
-1.1534e-07
3.68659e-08
-1.19697e-07
3.74368e-08
-1.24137e-07
3.79593e-08
-1.28655e-07
3.84286e-08
-1.33246e-07
3.884e-08
-1.37903e-07
3.9189e-08
-1.4262e-07
3.94713e-08
-1.47389e-07
3.9683e-08
-1.52203e-07
3.98204e-08
-1.57054e-07
3.98805e-08
-1.61931e-07
3.98609e-08
-1.66825e-07
3.97594e-08
-1.71727e-07
3.9575e-08
-1.76626e-07
3.93069e-08
-1.8151e-07
3.89555e-08
-1.8637e-07
3.85218e-08
-1.91194e-07
3.8008e-08
-1.95971e-07
3.7417e-08
-2.00691e-07
3.67531e-08
-2.05342e-07
3.60218e-08
-2.09916e-07
3.523e-08
-2.14402e-07
3.43868e-08
-2.18792e-07
3.35038e-08
-2.23079e-07
3.25941e-08
-2.27255e-07
3.16704e-08
-2.31312e-07
3.07437e-08
-2.35244e-07
2.98244e-08
-2.39045e-07
2.89273e-08
-2.4271e-07
2.80735e-08
-2.46238e-07
2.72857e-08
-2.49632e-07
2.65762e-08
-2.52894e-07
2.59349e-08
-2.56024e-07
2.53208e-08
-2.59017e-07
2.46544e-08
-2.61854e-07
2.3807e-08
-2.64493e-07
2.25986e-08
-2.66869e-07
2.08148e-08
-2.68892e-07
1.82318e-08
-2.70453e-07
1.46337e-08
-2.71432e-07
9.82821e-09
-2.71698e-07
3.63839e-09
-2.71078e-07
-4.19297e-09
-2.6924e-07
-1.40965e-08
-2.63508e-08
-2.65597e-07
-6.61267e-10
7.00486e-09
-1.45457e-09
8.42748e-09
-2.26089e-09
8.56683e-09
-3.07358e-09
8.63304e-09
-3.89426e-09
8.71584e-09
-4.72502e-09
8.82042e-09
-5.56803e-09
8.94724e-09
-6.42546e-09
9.09655e-09
-7.29954e-09
9.26855e-09
-8.1925e-09
9.46347e-09
-9.10661e-09
9.68154e-09
-1.00442e-08
9.92299e-09
-1.10075e-08
1.0188e-08
-1.1999e-08
1.04769e-08
-1.3021e-08
1.07899e-08
-1.40759e-08
1.1127e-08
-1.51662e-08
1.14886e-08
-1.62944e-08
1.18748e-08
-1.74628e-08
1.22858e-08
-1.86741e-08
1.27216e-08
-1.99307e-08
1.31825e-08
-2.12353e-08
1.36683e-08
-2.25903e-08
1.41792e-08
-2.39984e-08
1.47153e-08
-2.54622e-08
1.52763e-08
-2.69843e-08
1.58623e-08
-2.85673e-08
1.6473e-08
-3.02138e-08
1.71083e-08
-3.19265e-08
1.77678e-08
-3.37079e-08
1.84512e-08
-3.55606e-08
1.9158e-08
-3.74872e-08
1.98876e-08
-3.94902e-08
2.06392e-08
-4.15721e-08
2.14121e-08
-4.37353e-08
2.22054e-08
-4.5982e-08
2.30179e-08
-4.83146e-08
2.38484e-08
-5.07351e-08
2.46956e-08
-5.32457e-08
2.55581e-08
-5.58482e-08
2.64343e-08
-5.85444e-08
2.73224e-08
-6.1336e-08
2.82206e-08
-6.42244e-08
2.91269e-08
-6.72111e-08
3.00393e-08
-7.02971e-08
3.09555e-08
-7.34834e-08
3.18732e-08
-7.6771e-08
3.27898e-08
-8.01603e-08
3.37025e-08
-8.36518e-08
3.46083e-08
-8.72455e-08
3.55039e-08
-9.09413e-08
3.63858e-08
-9.47386e-08
3.725e-08
-9.86365e-08
3.80922e-08
-1.02633e-07
3.8908e-08
-1.06728e-07
3.96924e-08
-1.10917e-07
4.04405e-08
-1.15198e-07
4.11468e-08
-1.19567e-07
4.18059e-08
-1.2402e-07
4.24125e-08
-1.28552e-07
4.29611e-08
-1.33159e-07
4.34463e-08
-1.37832e-07
4.38629e-08
-1.42567e-07
4.4206e-08
-1.47355e-07
4.44711e-08
-1.52189e-07
4.46539e-08
-1.57059e-07
4.47508e-08
-1.61957e-07
4.47586e-08
-1.66872e-07
4.4675e-08
-1.71796e-07
4.4498e-08
-1.76716e-07
4.42268e-08
-1.81621e-07
4.38614e-08
-1.86502e-07
4.34024e-08
-1.91346e-07
4.2852e-08
-1.96142e-07
4.22133e-08
-2.0088e-07
4.14904e-08
-2.05547e-07
4.06892e-08
-2.10134e-07
3.98171e-08
-2.14631e-07
3.88837e-08
-2.19028e-07
3.79014e-08
-2.23318e-07
3.68839e-08
-2.27493e-07
3.58447e-08
-2.31544e-07
3.47947e-08
-2.35464e-07
3.37452e-08
-2.39249e-07
3.27124e-08
-2.42897e-07
3.17207e-08
-2.46408e-07
3.07969e-08
-2.49789e-07
2.99574e-08
-2.53049e-07
2.91948e-08
-2.56197e-07
2.84684e-08
-2.59237e-07
2.76949e-08
-2.62163e-07
2.67328e-08
-2.64942e-07
2.53776e-08
-2.67511e-07
2.3384e-08
-2.6978e-07
2.05002e-08
-2.71636e-07
1.64901e-08
-2.72961e-07
1.11536e-08
-2.73639e-07
4.31617e-09
-2.73516e-07
-4.31614e-09
-2.72235e-07
-1.53773e-08
-2.9565e-08
-2.69021e-07
-6.56995e-10
7.66185e-09
-1.44492e-09
9.21541e-09
-2.24577e-09
9.36768e-09
-3.05297e-09
9.44024e-09
-3.86812e-09
9.53099e-09
-4.69331e-09
9.64561e-09
-5.53069e-09
9.78463e-09
-6.38245e-09
9.9483e-09
-7.25079e-09
1.01369e-08
-8.13797e-09
1.03506e-08
-9.04623e-09
1.05898e-08
-9.9779e-09
1.08547e-08
-1.09353e-08
1.11454e-08
-1.19208e-08
1.14624e-08
-1.29367e-08
1.18058e-08
-1.39855e-08
1.21759e-08
-1.50697e-08
1.25728e-08
-1.61916e-08
1.29968e-08
-1.73538e-08
1.3448e-08
-1.85589e-08
1.39267e-08
-1.98092e-08
1.44328e-08
-2.11075e-08
1.49666e-08
-2.24563e-08
1.5528e-08
-2.38581e-08
1.61171e-08
-2.53157e-08
1.67338e-08
-2.68316e-08
1.73781e-08
-2.84084e-08
1.80498e-08
-3.00489e-08
1.87487e-08
-3.17556e-08
1.94745e-08
-3.35312e-08
2.02268e-08
-3.53782e-08
2.1005e-08
-3.72993e-08
2.18086e-08
-3.9297e-08
2.26369e-08
-4.13738e-08
2.34889e-08
-4.35321e-08
2.43637e-08
-4.57744e-08
2.52601e-08
-4.81028e-08
2.61768e-08
-5.05195e-08
2.71124e-08
-5.30267e-08
2.80653e-08
-5.56262e-08
2.90338e-08
-5.83199e-08
3.00161e-08
-6.11095e-08
3.10101e-08
-6.39964e-08
3.20138e-08
-6.6982e-08
3.3025e-08
-7.00677e-08
3.40412e-08
-7.32543e-08
3.50598e-08
-7.65428e-08
3.60783e-08
-7.99339e-08
3.70935e-08
-8.34279e-08
3.81023e-08
-8.70251e-08
3.91011e-08
-9.07253e-08
4.0086e-08
-9.45281e-08
4.10527e-08
-9.84325e-08
4.19967e-08
-1.02437e-07
4.29128e-08
-1.06541e-07
4.37957e-08
-1.1074e-07
4.46399e-08
-1.15033e-07
4.54394e-08
-1.19415e-07
4.61882e-08
-1.23882e-07
4.68802e-08
-1.28431e-07
4.75093e-08
-1.33054e-07
4.80695e-08
-1.37746e-07
4.8555e-08
-1.425e-07
4.89601e-08
-1.47309e-07
4.92797e-08
-1.52164e-07
4.95088e-08
-1.57056e-07
4.96432e-08
-1.61977e-07
4.96792e-08
-1.66915e-07
4.96137e-08
-1.71862e-07
4.94446e-08
-1.76805e-07
4.91703e-08
-1.81735e-07
4.87906e-08
-1.86638e-07
4.8306e-08
-1.91504e-07
4.77183e-08
-1.96322e-07