/*--------------------------------*- C++ -*----------------------------------*\
| =========                 |                                                 |
| \\      /  F ield         | OpenFOAM: The Open Source CFD Toolbox           |
|  \\    /   O peration     | Version:  2.4.0                                 |
|   \\  /    A nd           | Web:      www.OpenFOAM.org                      |
|    \\/     M anipulation  |                                                 |
\*---------------------------------------------------------------------------*/
FoamFile
{
    version     2.0;
    format      ascii;
    class       volVectorField;
    location    "0.097";
    object      U;
}
// * * * * * * * * * * * * * * * * * * * * * * * * * * * * * * * * * * * * * //

dimensions      [0 1 -1 0 0 0 0];

internalField   nonuniform List<vector> 
14400
(
(-0.00375828 0.000369594 0)
(-0.00763894 3.58192e-05 0)
(-0.00880607 2.29296e-05 0)
(-0.00465356 -9.6075e-06 0)
(7.37817e-05 -9.65445e-05 0)
(0.00626773 -0.000111605 0)
(0.0134095 -0.000117613 0)
(0.0203825 -0.00010718 0)
(0.0261941 -6.1297e-05 0)
(0.0291897 2.39797e-05 0)
(0.0294062 8.41782e-05 0)
(0.0282328 0.000122639 0)
(0.0261484 0.00017949 0)
(0.0227518 0.000272223 0)
(0.0175758 0.000358679 0)
(0.011106 0.00038155 0)
(0.00452158 0.000330607 0)
(-0.00116175 0.000230664 0)
(-0.00540009 0.00012091 0)
(-0.00814946 1.39764e-05 0)
(-0.00960043 -7.48461e-05 0)
(-0.0100278 -0.000146849 0)
(-0.00970777 -0.000202631 0)
(-0.00887246 -0.000247803 0)
(-0.00771359 -0.000284431 0)
(-0.00637152 -0.000313516 0)
(-0.00494852 -0.000336552 0)
(-0.0035191 -0.000353751 0)
(-0.00213823 -0.000364522 0)
(-0.000844188 -0.000369905 0)
(-0.00461755 0.00135786 0)
(-0.0182537 0.000629093 0)
(-0.0241813 0.000458605 0)
(-0.0186397 -0.000123477 0)
(-0.0123073 -0.00090698 0)
(-0.00217594 -0.00132384 0)
(0.0112167 -0.00157906 0)
(0.026049 -0.00173251 0)
(0.0403276 -0.00152499 0)
(0.0509434 -0.000873701 0)
(0.057247 -0.000350488 0)
(0.0611434 -9.75847e-05 0)
(0.0637038 0.000225667 0)
(0.0644943 0.000927151 0)
(0.0623998 0.00190702 0)
(0.05722 0.00273927 0)
(0.0499615 0.00320476 0)
(0.0418684 0.00323701 0)
(0.0339987 0.00294188 0)
(0.0269784 0.00244323 0)
(0.0210658 0.0018554 0)
(0.0162788 0.00125767 0)
(0.0124939 0.000705082 0)
(0.00953292 0.000221719 0)
(0.00720993 -0.000184072 0)
(0.00536753 -0.000516066 0)
(0.00387959 -0.000771609 0)
(0.00266127 -0.000956174 0)
(0.0016399 -0.00107628 0)
(0.000760245 -0.00113749 0)
(-0.00473724 0.00242011 0)
(-0.0198399 0.00144122 0)
(-0.0268086 0.00107426 0)
(-0.0216744 -0.000114601 0)
(-0.0158629 -0.0016737 0)
(-0.00595166 -0.00264882 0)
(0.00775524 -0.00332473 0)
(0.0233503 -0.0037888 0)
(0.0386692 -0.00352154 0)
(0.0503895 -0.0023387 0)
(0.0577906 -0.00135722 0)
(0.0627603 -0.000911584 0)
(0.0664143 -0.000407089 0)
(0.0685306 0.000798713 0)
(0.0680599 0.00260763 0)
(0.0646882 0.00426202 0)
(0.0593574 0.00538945 0)
(0.0530738 0.00581723 0)
(0.0466727 0.00569367 0)
(0.040612 0.0052139 0)
(0.0350773 0.00455857 0)
(0.0300891 0.00386137 0)
(0.0255907 0.00321376 0)
(0.0214939 0.00266561 0)
(0.0177088 0.00223394 0)
(0.0141663 0.00191154 0)
(0.0108303 0.00167549 0)
(0.00769452 0.00150952 0)
(0.0047745 0.00140357 0)
(0.00208775 0.00135086 0)
(-0.00477686 0.00349493 0)
(-0.0201158 0.00227835 0)
(-0.0272995 0.00171355 0)
(-0.0221186 -6.40794e-05 0)
(-0.0164387 -0.00241073 0)
(-0.00661053 -0.00396288 0)
(0.0071231 -0.00508579 0)
(0.0228422 -0.0058818 0)
(0.0383959 -0.0055678 0)
(0.0502283 -0.0038388 0)
(0.0575821 -0.00240168 0)
(0.0625666 -0.00179869 0)
(0.0663484 -0.00115757 0)
(0.0687279 0.000530552 0)
(0.068459 0.00316649 0)
(0.0650778 0.00560413 0)
(0.0596634 0.00735436 0)
(0.0533142 0.00814096 0)
(0.0469061 0.00818879 0)
(0.0408807 0.00776743 0)
(0.0353972 0.00712297 0)
(0.0304579 0.00643248 0)
(0.0259954 0.00581474 0)
(0.0219183 0.00533613 0)
(0.0181366 0.0050195 0)
(0.0145774 0.00484866 0)
(0.0111977 0.00478051 0)
(0.00798969 0.0047681 0)
(0.00497347 0.00477692 0)
(0.00217847 0.0047881 0)
(-0.00481659 0.00457637 0)
(-0.0202793 0.00311594 0)
(-0.0275907 0.00236023 0)
(-0.0222171 -2.80169e-06 0)
(-0.0165971 -0.00314663 0)
(-0.00680772 -0.00527784 0)
(0.00694116 -0.00685438 0)
(0.0227498 -0.00799826 0)
(0.0385635 -0.00765004 0)
(0.0505197 -0.00533557 0)
(0.0577563 -0.00342836 0)
(0.0626944 -0.00271247 0)
(0.0665773 -0.00200112 0)
(0.0692821 0.000181384 0)
(0.069259 0.0037351 0)
(0.0657591 0.00700101 0)
(0.0600258 0.0094231 0)
(0.0532811 0.0105751 0)
(0.0464933 0.0107907 0)
(0.0401259 0.0104208 0)
(0.0343454 0.00977476 0)
(0.0291613 0.00907141 0)
(0.0245214 0.00845305 0)
(0.0203535 0.00799998 0)
(0.0165849 0.00774301 0)
(0.0131491 0.00766437 0)
(0.00999137 0.00770907 0)
(0.00707774 0.00780841 0)
(0.00439371 0.0079055 0)
(0.0019359 0.00796723 0)
(-0.00486466 0.00566528 0)
(-0.0204683 0.00395041 0)
(-0.027929 0.00301482 0)
(-0.0222888 6.6184e-05 0)
(-0.016737 -0.003886 0)
(-0.0069948 -0.00659404 0)
(0.00675995 -0.0086286 0)
(0.0226653 -0.0101424 0)
(0.0388142 -0.00978043 0)
(0.0509355 -0.00682751 0)
(0.0580127 -0.004428 0)
(0.0628885 -0.00365928 0)
(0.0668748 -0.0029748 0)
(0.0700187 -0.000288218 0)
(0.0703681 0.00431322 0)
(0.0667581 0.00845861 0)
(0.0606822 0.0116248 0)
(0.0535303 0.0131505 0)
(0.0463919 0.0135319 0)
(0.0397428 0.0132078 0)
(0.0337372 0.012554 0)
(0.0283678 0.0118274 0)
(0.0235773 0.011185 0)
(0.0193042 0.0107133 0)
(0.0154958 0.010446 0)
(0.0121025 0.0103689 0)
(0.00907505 0.0104269 0)
(0.00636477 0.0105474 0)
(0.00393043 0.0106656 0)
(0.0017413 0.0107408 0)
(-0.00492165 0.00676332 0)
(-0.0206971 0.0047804 0)
(-0.0283432 0.00367922 0)
(-0.0223703 0.000144194 0)
(-0.0169043 -0.00462985 0)
(-0.00722201 -0.00791096 0)
(0.00653479 -0.0104095 0)
(0.0225502 -0.01232 0)
(0.0391248 -0.0119736 0)
(0.0514568 -0.0083121 0)
(0.0583198 -0.00539021 0)
(0.0631226 -0.00464574 0)
(0.0672009 -0.00411913 0)
(0.0709122 -0.000928825 0)
(0.0717737 0.00490972 0)
(0.0680344 0.00997972 0)
(0.0615344 0.0139815 0)
(0.0539028 0.01587 0)
(0.0463926 0.0163969 0)
(0.0394871 0.0160926 0)
(0.0333249 0.0154102 0)
(0.0278668 0.014646 0)
(0.0230269 0.0139677 0)
(0.0187301 0.0134583 0)
(0.0149237 0.0131465 0)
(0.011564 0.0130202 0)
(0.0086079 0.0130298 0)
(0.00600537 0.0131085 0)
(0.00370077 0.0131998 0)
(0.00164968 0.013266 0)
(-0.00498749 0.00787224 0)
(-0.0209666 0.00560454 0)
(-0.0288376 0.00435532 0)
(-0.0224639 0.000232773 0)
(-0.0171034 -0.00537913 0)
(-0.00749338 -0.00922843 0)
(0.00626158 -0.0121977 0)
(0.0223965 -0.0145377 0)
(0.0394991 -0.0142466 0)
(0.0520942 -0.00978541 0)
(0.0586728 -0.00630189 0)
(0.0633985 -0.00567418 0)
(0.0675365 -0.00547214 0)
(0.0719718 -0.00179081 0)
(0.0735156 0.00555345 0)
(0.0696178 0.0115661 0)
(0.0625768 0.016536 0)
(0.0543626 0.018755 0)
(0.0464242 0.0193942 0)
(0.0392411 0.0190667 0)
(0.0329376 0.018315 0)
(0.0274341 0.0174834 0)
(0.0226031 0.0167505 0)
(0.0183448 0.016189 0)
(0.0145878 0.01582 0)
(0.0112848 0.0156261 0)
(0.00838556 0.0155672 0)
(0.00584799 0.0155875 0)
(0.00361635 0.0156315 0)
(0.00162564 0.0156642 0)
(-0.00506175 0.00899385 0)
(-0.0212764 0.0064212 0)
(-0.0294139 0.00504495 0)
(-0.0225694 0.000333422 0)
(-0.017335 -0.00613509 0)
(-0.00780953 -0.0105464 0)
(0.00593952 -0.0139933 0)
(0.0221963 -0.0168009 0)
(0.0399435 -0.0166194 0)
(0.0528625 -0.0112417 0)
(0.0590643 -0.00714691 0)
(0.0637176 -0.00673888 0)
(0.0678561 -0.00706283 0)
(0.073227 -0.00292672 0)
(0.075647 0.00629728 0)
(0.0715599 0.0132189 0)
(0.0638135 0.0193454 0)
(0.0548921 0.0218315 0)
(0.0464602 0.0225426 0)
(0.0389623 0.0221361 0)
(0.032513 0.0212596 0)
(0.0269819 0.0203214 0)
(0.0221862 0.0195065 0)
(0.0179949 0.0188764 0)
(0.0143147 0.0184427 0)
(0.011087 0.0181801 0)
(0.00825975 0.0180464 0)
(0.00576572 0.0180031 0)
(0.00355742 0.0180047 0)
(0.00160477 0.0180276 0)
(-0.00514427 0.0101301 0)
(-0.0216263 0.00722839 0)
(-0.030074 0.00574979 0)
(-0.0226848 0.000447323 0)
(-0.0175991 -0.00689919 0)
(-0.00817074 -0.0118649 0)
(0.00556705 -0.0157987 0)
(0.0219394 -0.0191154 0)
(0.0404654 -0.0191157 0)
(0.0537813 -0.0126727 0)
(0.059482 -0.00790437 0)
(0.0640804 -0.00782378 0)
(0.0681158 -0.00890491 0)
(0.0747394 -0.00439026 0)
(0.0782312 0.00723514 0)
(0.0739388 0.0149329 0)
(0.0652411 0.0224874 0)
(0.0554732 0.0251271 0)
(0.0464802 0.0258648 0)
(0.0386214 0.0253137 0)
(0.032018 0.0242406 0)
(0.0264719 0.023151 0)
(0.0217352 0.0222199 0)
(0.0176175 0.0215086 0)
(0.0140349 0.0209976 0)
(0.0108854 0.0206751 0)
(0.00812116 0.0204812 0)
(0.00568921 0.0203808 0)
(0.0035386 0.0203426 0)
(0.00161578 0.0203266 0)
(-0.00523444 0.011283 0)
(-0.0220151 0.00802368 0)
(-0.0308192 0.00647132 0)
(-0.02281 0.000575337 0)
(-0.0178961 -0.00767332 0)
(-0.00857719 -0.0131838 0)
(0.00514333 -0.0176134 0)
(0.0216122 -0.0214867 0)
(0.041073 -0.021764 0)
(0.0548767 -0.014068 0)
(0.0599067 -0.00854882 0)
(0.0644825 -0.00890269 0)
(0.0682214 -0.0109919 0)
(0.07662 -0.006231 0)
(0.0813387 0.00847094 0)
(0.0768741 0.0167061 0)
(0.0668391 0.0260629 0)
(0.0560832 0.028664 0)
(0.0464589 0.0293859 0)
(0.0381804 0.0286136 0)
(0.0314359 0.0272503 0)
(0.0258732 0.0259707 0)
(0.021231 0.0248819 0)
(0.0172167 0.024063 0)
(0.0137064 0.0234945 0)
(0.0106531 0.0230885 0)
(0.00796635 0.0228357 0)
(0.0055955 0.0226956 0)
(0.00349826 0.0226298 0)
(0.00161772 0.0226264 0)
(-0.00533212 0.0124546 0)
(-0.0224426 0.00880417 0)
(-0.0316515 0.00721058 0)
(-0.0229432 0.00071778 0)
(-0.0182264 -0.00845964 0)
(-0.00902919 -0.0145033 0)
(0.00466804 -0.0194362 0)
(0.021198 -0.0239181 0)
(0.0417757 -0.0245979 0)
(0.0561828 -0.015413 0)
(0.0603084 -0.00905283 0)
(0.0649156 -0.00994361 0)
(0.0680613 -0.0132923 0)
(0.0792139 -0.00847929 0)
(0.0850759 0.0100301 0)
(0.080531 0.0185638 0)
(0.0685525 0.0302076 0)
(0.056694 0.0324523 0)
(0.0463647 0.0331367 0)
(0.0375949 0.0320404 0)
(0.0307096 0.0302823 0)
(0.0251804 0.0287462 0)
(0.0206179 0.0275215 0)
(0.0167943 0.0265523 0)
(0.0133793 0.0258827 0)
(0.0103646 0.0254494 0)
(0.00775277 0.0251568 0)
(0.00544669 0.0249612 0)
(0.00338223 0.0248575 0)
(0.0015646 0.0248216 0)
(-0.00543671 0.0136472 0)
(-0.0229071 0.00956638 0)
(-0.0325723 0.00796773 0)
(-0.0230844 0.000874248 0)
(-0.0185903 -0.00926074 0)
(-0.00952715 -0.0158235 0)
(0.00414131 -0.0212665 0)
(0.0206755 -0.0264117 0)
(0.0425833 -0.0276557 0)
(0.057745 -0.0166891 0)
(0.0606455 -0.0093902 0)
(0.0653957 -0.0108977 0)
(0.0680373 -0.0156721 0)
(0.0841602 -0.0111759 0)
(0.0897614 0.0116738 0)
(0.0850065 0.0206165 0)
(0.0702384 0.0350869 0)
(0.0572769 0.0364791 0)
(0.0461853 0.037166 0)
(0.0368122 0.0356133 0)
(0.0297834 0.0333288 0)
(0.0244024 0.0314376 0)
(0.0198491 0.0300899 0)
(0.0159476 0.0290553 0)
(0.0128196 0.0282414 0)
(0.0100697 0.0276952 0)
(0.00759235 0.0273453 0)
(0.0053698 0.0271481 0)
(0.00339608 0.0270442 0)
(0.00160911 0.0269704 0)
(-0.00554783 0.0148632 0)
(-0.0234077 0.0103061 0)
(-0.0335826 0.00874132 0)
(-0.023233 0.00104323 0)
(-0.0189883 -0.0100794 0)
(-0.0100713 -0.0171443 0)
(0.00356437 -0.0231026 0)
(0.0200171 -0.028967 0)
(0.0435061 -0.0309829 0)
(0.0596259 -0.0178713 0)
(0.0608613 -0.0095407 0)
(0.0659719 -0.0116523 0)
(0.0692191 -0.0174193 0)
(0.0948403 -0.0145756 0)
(0.0959379 0.0124748 0)
(0.0898034 0.0232441 0)
(0.0714975 0.04082 0)
(0.057884 0.040666 0)
(0.0459364 0.0415605 0)
(0.0357306 0.0393708 0)
(0.0286514 0.0363333 0)
(0.0235634 0.0340482 0)
(0.0189811 0.0324891 0)
(0.0153102 0.0313783 0)
(0.0122399 0.0305852 0)
(0.00956284 0.0299499 0)
(0.00717989 0.0295188 0)
(0.00508626 0.0292431 0)
(0.0032587 0.0290918 0)
(0.00159003 0.0290855 0)
(-0.005665 0.0161052 0)
(-0.0239423 0.0110182 0)
(-0.0346835 0.00952631 0)
(-0.0233896 0.00122177 0)
(-0.0194212 -0.010919 0)
(-0.0106617 -0.0184661 0)
(0.00293917 -0.0249458 0)
(0.0191885 -0.0315806 0)
(0.0445525 -0.0346351 0)
(0.0619124 -0.0189257 0)
(0.0608806 -0.00950029 0)
(0.0665224 -0.0121107 0)
(0.0692875 -0.0174792 0)
(0.106478 -0.0187559 0)
(0.103622 0.0105043 0)
(0.0935907 0.0275476 0)
(0.0719914 0.0471588 0)
(0.0589001 0.0448865 0)
(0.0456341 0.0465033 0)
(0.0342217 0.0433041 0)
(0.0271137 0.0392929 0)
(0.0224266 0.0365394 0)
(0.0185373 0.0347551 0)
(0.0150475 0.0336615 0)
(0.0120471 0.0326402 0)
(0.00940916 0.0319616 0)
(0.00704599 0.0315277 0)
(0.00497603 0.0312256 0)
(0.00310984 0.0310687 0)
(0.00148784 0.0310463 0)
(-0.0057878 0.0173759 0)
(-0.0245096 0.0116967 0)
(-0.0358742 0.0103098 0)
(-0.0235551 0.00140465 0)
(-0.0198893 -0.0117829 0)
(-0.0112978 -0.0197892 0)
(0.00226913 -0.0267928 0)
(0.018148 -0.0342453 0)
(0.0457231 -0.038679 0)
(0.0647281 -0.0198031 0)
(0.0606209 -0.00929453 0)
(0.0669435 -0.0124118 0)
(0.0661819 -0.0173657 0)
(0.10147 -0.0239596 0)
(0.110315 0.00588973 0)
(0.0967044 0.0346051 0)
(0.0736937 0.0532325 0)
(0.0616159 0.0491589 0)
(0.0454053 0.0524412 0)
(0.0320165 0.0474831 0)
(0.0255257 0.0419739 0)
(0.0210892 0.0388398 0)
(0.0170834 0.0369418 0)
(0.0139076 0.0355512 0)
(0.0112096 0.0346602 0)
(0.00869769 0.0340431 0)
(0.00658835 0.0335335 0)
(0.00468734 0.0332225 0)
(0.00295191 0.033025 0)
(0.00144813 0.0328448 0)
(-0.00591574 0.0186784 0)
(-0.0251057 0.0123342 0)
(-0.0371548 0.0110729 0)
(-0.023733 0.00158326 0)
(-0.0203939 -0.0126751 0)
(-0.011979 -0.021114 0)
(0.00155969 -0.0286392 0)
(0.0168447 -0.0369499 0)
(0.0469988 -0.0431955 0)
(0.068229 -0.0204292 0)
(0.0599987 -0.00896113 0)
(0.0676436 -0.0125725 0)
(0.0657392 -0.0182617 0)
(0.0846798 -0.0331058 0)
(0.114345 0.00365767 0)
(0.106021 0.0431255 0)
(0.0819534 0.0587544 0)
(0.0664076 0.0543215 0)
(0.0445777 0.0600781 0)
(0.0284666 0.0518146 0)
(0.0231912 0.0443038 0)
(0.0195647 0.0408034 0)
(0.0166031 0.0389671 0)
(0.0135509 0.037844 0)
(0.0105097 0.0368537 0)
(0.00818397 0.0358939 0)
(0.00618624 0.0352695 0)
(0.0044549 0.0349667 0)
(0.00297213 0.0347564 0)
(0.00154486 0.034584 0)
(-0.00604843 0.0200161 0)
(-0.0257274 0.0129215 0)
(-0.0385226 0.0118188 0)
(-0.0239264 0.00174375 0)
(-0.0209356 -0.0135996 0)
(-0.0127045 -0.0224416 0)
(0.000819103 -0.0304796 0)
(0.0152189 -0.0396788 0)
(0.0482869 -0.0482841 0)
(0.0724142 -0.0206895 0)
(0.0588544 -0.00852699 0)
(0.0683146 -0.0124138 0)
(0.0646238 -0.0190206 0)
(0.0856891 -0.0447301 0)
(0.135723 0.000142734 0)
(0.125598 0.0500329 0)
(0.097348 0.065971 0)
(0.0705477 0.0622245 0)
(0.0411462 0.0704847 0)
(0.0247164 0.0557993 0)
(0.0210894 0.0456323 0)
(0.0181104 0.0423197 0)
(0.0150728 0.0409213 0)
(0.012301 0.0399665 0)
(0.0102879 0.0386165 0)
(0.00814834 0.0376761 0)
(0.00597551 0.0370757 0)
(0.0042299 0.036552 0)
(0.00283367 0.0362994 0)
(0.00151773 0.0363767 0)
(-0.00618544 0.0213925 0)
(-0.0263702 0.013447 0)
(-0.039974 0.0125748 0)
(-0.0241393 0.00186373 0)
(-0.0215159 -0.0145602 0)
(-0.0134733 -0.0237735 0)
(5.97157e-05 -0.0323072 0)
(0.013202 -0.0424075 0)
(0.0490905 -0.0540314 0)
(0.0759589 -0.0204525 0)
(0.0567455 -0.00805445 0)
(0.0685746 -0.0121878 0)
(0.0688288 -0.0209423 0)
(0.0922274 -0.0545417 0)
(0.12964 -0.00672998 0)
(0.120268 0.0567301 0)
(0.0936178 0.0773356 0)
(0.0704399 0.0734454 0)
(0.0234605 0.0814359 0)
(0.0245429 0.0582442 0)
(0.022568 0.0467368 0)
(0.017981 0.0438449 0)
(0.0153149 0.0429693 0)
(0.0122922 0.0413612 0)
(0.00956552 0.0402223 0)
(0.00688156 0.0395619 0)
(0.00508098 0.0387942 0)
(0.00357311 0.0380532 0)
(0.00223728 0.0377427 0)
(0.00119907 0.0378494 0)
(-0.00632643 0.0228118 0)
(-0.0270304 0.0138951 0)
(-0.0415031 0.0133769 0)
(-0.0243742 0.00191582 0)
(-0.0221363 -0.0155607 0)
(-0.0142844 -0.0251118 0)
(-0.000701056 -0.0341137 0)
(0.0107091 -0.0450963 0)
(0.0469312 -0.0601946 0)
(0.0727633 -0.0198735 0)
(0.0523217 -0.00779337 0)
(0.0678444 -0.0116601 0)
(0.0863375 -0.0284461 0)
(0.111852 -0.0590465 0)
(0.138218 -0.0216438 0)
(0.107098 0.0661991 0)
(0.0552363 0.0932993 0)
(0.0696917 0.0825723 0)
(0.00643346 0.0881795 0)
(0.0151897 0.0550916 0)
(0.0230511 0.0478449 0)
(0.0187635 0.0460731 0)
(0.0153613 0.0446902 0)
(0.0119517 0.0437574 0)
(0.00799152 0.0425494 0)
(0.00572016 0.0410826 0)
(0.00446531 0.039953 0)
(0.00323728 0.0395011 0)
(0.00192052 0.0391377 0)
(0.000968838 0.0387463 0)
(-0.006471 0.0242783 0)
(-0.0277046 0.0142466 0)
(-0.0431025 0.0142628 0)
(-0.0246311 0.00187636 0)
(-0.022799 -0.0166044 0)
(-0.0151368 -0.0264603 0)
(-0.00143982 -0.0358898 0)
(0.00759212 -0.0475978 0)
(0.0343805 -0.0651642 0)
(0.0496917 -0.019793 0)
(0.0423911 -0.00868993 0)
(0.0590665 -0.0110253 0)
(0.111328 -0.0432618 0)
(0.218598 -0.0706907 0)
(-0.730296 0.0482362 0)
(0.143375 0.116239 0)
(0.0217654 0.124205 0)
(0.045707 0.0859993 0)
(0.0459385 0.0849619 0)
(-0.0035052 0.0580738 0)
(0.0113923 0.0427258 0)
(0.0201104 0.0491262 0)
(0.0138768 0.0474316 0)
(0.00989416 0.0459153 0)
(0.00777685 0.0443788 0)
(0.00622655 0.042389 0)
(0.00442212 0.0412772 0)
(0.00295816 0.0407759 0)
(0.00195327 0.0403122 0)
(0.00111838 0.0396812 0)
(-0.00661883 0.0257971 0)
(-0.0283884 0.0144857 0)
(-0.0447658 0.015273 0)
(-0.0249066 0.0017212 0)
(-0.0235072 -0.0176934 0)
(-0.0160299 -0.0278223 0)
(-0.00212646 -0.0376276 0)
(0.00340521 -0.0493867 0)
(0.00486629 -0.0656876 0)
(-0.00139206 -0.0219173 0)
(0.0260533 -0.0124695 0)
(0.0279174 -0.013664 0)
(0.154448 -0.0639146 0)
(-0.785784 0.171595 0)
(-0.509681 -0.0627253 0)
(-0.219116 0.0701608 0)
(0.165617 0.133292 0)
(-0.0342853 0.107358 0)
(0.0380084 0.0926457 0)
(0.00630062 0.0663897 0)
(0.000886097 0.0339929 0)
(0.0151804 0.0472473 0)
(0.0131167 0.0512247 0)
(0.00837685 0.0478223 0)
(0.00633167 0.0452965 0)
(0.00468633 0.0439093 0)
(0.00300504 0.0427809 0)
(0.00225024 0.0417415 0)
(0.00194716 0.0411415 0)
(0.00133772 0.0406948 0)
(-0.00676972 0.0273736 0)
(-0.0290794 0.0146034 0)
(-0.0464866 0.0164575 0)
(-0.0251893 0.00141787 0)
(-0.0242645 -0.0188284 0)
(-0.016964 -0.0291997 0)
(-0.00271924 -0.0393374 0)
(-0.00291305 -0.0494032 0)
(-0.0302239 -0.0605936 0)
(-0.0634208 -0.0258243 0)
(0.000555352 -0.0167512 0)
(0.0953269 -0.0399197 0)
(0.647884 -0.0953549 0)
(0.0915849 0.384037 0)
(-0.274621 -0.130603 0)
(-0.226385 -0.171069 0)
(0.0288413 0.102764 0)
(0.0893492 0.101318 0)
(0.011151 0.108359 0)
(0.0308958 0.0692943 0)
(0.0125196 0.0366942 0)
(0.0082984 0.0432756 0)
(0.0123561 0.0534775 0)
(0.00898937 0.0509549 0)
(0.00443102 0.0470357 0)
(0.00179907 0.0452033 0)
(0.00108458 0.0434974 0)
(0.00100485 0.0418281 0)
(0.00106541 0.0411945 0)
(0.000880798 0.041528 0)
(-0.00692355 0.0290137 0)
(-0.0297742 0.0145907 0)
(-0.0482606 0.0178813 0)
(-0.0254581 0.000918452 0)
(-0.025076 -0.0200088 0)
(-0.0179413 -0.0305921 0)
(-0.00315852 -0.040998 0)
(-0.0118528 -0.0467065 0)
(-0.0502097 -0.0518987 0)
(-0.107506 -0.0273829 0)
(0.011773 -0.0366151 0)
(0.881082 -0.176042 0)
(0.610256 -0.0554236 0)
(0.702608 0.492104 0)
(0.128909 0.0283929 0)
(-0.271185 -0.330935 0)
(0.0997557 -0.275271 0)
(-0.00942648 0.0991449 0)
(0.0530367 0.100779 0)
(0.0503461 0.0731529 0)
(0.0455705 0.0465173 0)
(0.0102412 0.0447679 0)
(0.00780005 0.0530104 0)
(0.00689476 0.0537435 0)
(0.002359 0.0497704 0)
(0.000103949 0.0459309 0)
(5.05608e-05 0.0430765 0)
(0.000279548 0.0417523 0)
(0.000339831 0.0412854 0)
(0.000463163 0.0416105 0)
(-0.00708071 0.0307243 0)
(-0.0304717 0.0144343 0)
(-0.0500945 0.0196451 0)
(-0.025659 0.000146818 0)
(-0.0259484 -0.0212312 0)
(-0.0189685 -0.0319971 0)
(-0.00338036 -0.042563 0)
(-0.0220135 -0.0418948 0)
(-0.0526044 -0.0436548 0)
(-0.105544 -0.0335115 0)
(0.60066 -0.145777 0)
(0.765745 -0.178162 0)
(0.5498 -0.013679 0)
(0.809046 0.439617 0)
(0.499539 0.21408 0)
(0.00610973 -0.0899757 0)
(0.0962532 -1.00537 0)
(-0.070576 0.0538605 0)
(0.0708612 0.110133 0)
(0.0353894 0.0717983 0)
(0.0562888 0.058791 0)
(0.0175335 0.0575483 0)
(0.00124352 0.055315 0)
(-0.00172703 0.0544485 0)
(-0.00157898 0.0506616 0)
(-0.000555647 0.0462014 0)
(-0.000444265 0.0433163 0)
(-0.000861403 0.0418497 0)
(-0.00104009 0.0410756 0)
(-0.000422578 0.0409729 0)
(-0.00724136 0.032514 0)
(-0.031171 0.0141163 0)
(-0.052083 0.0219987 0)
(-0.0255257 -0.0010964 0)
(-0.026892 -0.0224893 0)
(-0.02006 -0.0334114 0)
(-0.00332462 -0.0439767 0)
(-0.0332582 -0.0355056 0)
(-0.0685781 -0.032382 0)
(0.439193 -0.166609 0)
(0.816684 -0.206902 0)
(0.590884 -0.133852 0)
(0.401169 0.0355874 0)
(0.553396 0.294501 0)
(0.71587 0.34038 0)
(0.292395 0.0525821 0)
(-0.162141 -0.596846 0)
(0.174033 0.176845 0)
(-0.0129256 0.0954068 0)
(0.0323797 0.0613485 0)
(0.0625392 0.0701141 0)
(0.0303158 0.0822391 0)
(0.00016994 0.0636544 0)
(-0.00709456 0.0549553 0)
(-0.00432574 0.0487354 0)
(-0.00168604 0.0451863 0)
(-0.0013778 0.043649 0)
(-0.00157346 0.0424357 0)
(-0.00134641 0.0407392 0)
(-0.000424002 0.0393256 0)
(-0.00737039 0.0343994 0)
(-0.0318722 0.0136126 0)
(-0.0547563 0.0257179 0)
(-0.023446 -0.00352371 0)
(-0.0279244 -0.0237724 0)
(-0.0212386 -0.0348314 0)
(-0.00296289 -0.0451626 0)
(-0.047667 -0.0265941 0)
(-0.125655 -0.042123 0)
(1.24572 -0.215479 0)
(0.674271 -0.159484 0)
(0.456002 -0.119886 0)
(0.290091 0.0500588 0)
(0.224452 0.184107 0)
(0.796186 0.383038 0)
(0.460919 0.168765 0)
(0.286826 -0.117261 0)
(0.217757 0.623742 0)
(-0.11383 0.0177554 0)
(0.0121219 0.0772988 0)
(0.0276355 0.0432301 0)
(0.0351507 0.103046 0)
(0.00494786 0.0773246 0)
(-0.00495748 0.057199 0)
(-0.00547269 0.0467486 0)
(-0.00547283 0.0445753 0)
(-0.0054452 0.0432257 0)
(-0.00406427 0.0414589 0)
(-0.00248296 0.0395871 0)
(-0.000842626 0.0377745 0)
(-0.00624325 0.0364035 0)
(-0.0325706 0.0128873 0)
(-0.056568 0.0317492 0)
(-0.0256623 -0.00837598 0)
(-0.029103 -0.0250675 0)
(-0.0225429 -0.0362545 0)
(-0.0025174 -0.045999 0)
(-0.0707405 -0.0147265 0)
(0.258615 -0.144126 0)
(0.873446 -0.232404 0)
(0.41468 -0.0874752 0)
(0.30355 -0.139632 0)
(0.186228 0.0463836 0)
(0.161246 0.163387 0)
(0.665155 0.335881 0)
(0.594684 0.276962 0)
(0.431728 -0.0462502 0)
(0.948969 0.5985 0)
(-0.0480009 0.0401672 0)
(-0.0243555 0.053837 0)
(-0.0553925 0.00359643 0)
(0.0258828 0.106666 0)
(0.0105871 0.0882598 0)
(-0.00109534 0.0597614 0)
(-0.00657877 0.0480442 0)
(-0.00895916 0.0450504 0)
(-0.00796463 0.0421914 0)
(-0.00561039 0.0395578 0)
(-0.00310102 0.0372951 0)
(-0.0009203 0.0352455 0)
(0.0114443 0.0383947 0)
(-0.0332963 0.0118913 0)
(-0.0130512 0.0370552 0)
(-0.101292 -0.0160865 0)
(-0.030577 -0.0261153 0)
(-0.0241018 -0.0376529 0)
(-0.00471629 -0.0459344 0)
(-0.0875027 0.000700158 0)
(0.321061 -0.332149 0)
(0.530198 -0.203926 0)
(0.210295 -0.0169623 0)
(0.167716 -0.179735 0)
(0.207184 0.0248016 0)
(0.292315 0.196433 0)
(0.500849 0.196012 0)
(0.666111 0.356711 0)
(0.383438 0.0163525 0)
(0.0449883 0.343858 0)
(0.00300625 0.208882 0)
(-0.0776048 0.00635997 0)
(-0.00756436 -0.0077631 0)
(0.00622178 0.100926 0)
(0.00499731 0.0940922 0)
(-0.00312695 0.0645792 0)
(-0.0115986 0.0525028 0)
(-0.0144157 0.0453768 0)
(-0.0111708 0.0392249 0)
(-0.00637709 0.0358012 0)
(-0.00254241 0.0341289 0)
(-0.000367375 0.0329322 0)
(0.0681669 0.0407489 0)
(-0.0343781 0.0108185 0)
(-0.0549768 0.038499 0)
(-0.0945206 -0.0157662 0)
(-0.0316422 -0.0264261 0)
(-0.0268525 -0.0387832 0)
(-0.0338445 -0.0441642 0)
(-0.105725 -0.0343302 0)
(-0.101674 -0.269989 0)
(0.292559 -0.129861 0)
(0.0743854 0.0267179 0)
(0.168608 -0.223594 0)
(0.137229 -0.0145135 0)
(0.352798 0.225573 0)
(0.367897 0.0812032 0)
(0.620542 0.403854 0)
(0.29361 0.125851 0)
(-0.280344 0.16029 0)
(0.691024 0.578976 0)
(-0.0464094 0.011588 0)
(-0.0680869 -0.0147005 0)
(-0.00460092 0.055405 0)
(-0.00371452 0.0989483 0)
(-0.0102747 0.0706945 0)
(-0.0173204 0.0563133 0)
(-0.0167911 0.0434936 0)
(-0.0120482 0.034176 0)
(-0.00689 0.0308024 0)
(-0.00282057 0.0304477 0)
(-0.000322098 0.0310235 0)
(0.000370224 -0.000370954 0)
(0.00161102 -0.000367771 0)
(0.00295112 -0.000359489 0)
(0.00435939 -0.000345255 0)
(0.00578936 -0.000324828 0)
(0.0071761 -0.000298872 0)
(0.00843242 -0.000265979 0)
(0.00943718 -0.000224571 0)
(0.010027 -0.00017379 0)
(0.00998566 -0.000110769 0)
(0.00906056 -3.05009e-05 0)
(0.0069643 6.84124e-05 0)
(0.00345426 0.000180469 0)
(-0.00157349 0.000285739 0)
(-0.00783163 0.000367027 0)
(-0.0145044 0.000380529 0)
(-0.0204366 0.00031773 0)
(-0.0246379 0.000225698 0)
(-0.0272343 0.000156919 0)
(-0.028925 0.000109437 0)
(-0.0296351 6.19282e-05 0)
(-0.0281348 -1.85022e-05 0)
(-0.0234579 -8.76506e-05 0)
(-0.0168833 -0.000106531 0)
(-0.00990036 -0.000107129 0)
(-0.0033457 -9.64976e-05 0)
(0.00214719 -7.77583e-05 0)
(0.00597512 -5.14795e-05 0)
(0.00716576 -1.13472e-05 0)
(0.00486211 3.85712e-05 0)
(-3.78519e-05 -0.00114855 0)
(-0.000863548 -0.00111194 0)
(-0.00181152 -0.00102092 0)
(-0.00292945 -0.000866914 0)
(-0.00428238 -0.000645024 0)
(-0.00594976 -0.000348315 0)
(-0.00803535 2.27707e-05 0)
(-0.0106838 0.000469376 0)
(-0.0140688 0.000990926 0)
(-0.0183803 0.00157337 0)
(-0.0237772 0.00217621 0)
(-0.0303202 0.00273176 0)
(-0.037878 0.00314502 0)
(-0.046011 0.00328347 0)
(-0.0538563 0.00303453 0)
(-0.0601751 0.00235111 0)
(-0.0638108 0.00137117 0)
(-0.0641894 0.000528394 0)
(-0.062258 8.92286e-05 0)
(-0.0591413 -0.00016983 0)
(-0.0543566 -0.000569329 0)
(-0.0459032 -0.00124009 0)
(-0.0328284 -0.0017068 0)
(-0.0177058 -0.00165997 0)
(-0.00340235 -0.00140111 0)
(0.00840855 -0.00104829 0)
(0.0166542 -0.000658562 0)
(0.0204593 -0.000236068 0)
(0.0187445 0.000218183 0)
(0.0110097 0.000708317 0)
(-0.000416621 0.0013425 0)
(-0.00298428 0.00137678 0)
(-0.00579671 0.00146034 0)
(-0.0088391 0.00160102 0)
(-0.0120946 0.00180691 0)
(-0.0155563 0.00208923 0)
(-0.0192473 0.00247075 0)
(-0.0232194 0.00296661 0)
(-0.0275569 0.00357378 0)
(-0.0323512 0.0042588 0)
(-0.0376773 0.00495073 0)
(-0.0435553 0.00553496 0)
(-0.0498854 0.00585472 0)
(-0.0563463 0.0057091 0)
(-0.0622896 0.00491818 0)
(-0.0666957 0.00346185 0)
(-0.0686148 0.00158816 0)
(-0.0675171 0.000113872 0)
(-0.0643818 -0.000581879 0)
(-0.060205 -0.00102542 0)
(-0.0543433 -0.00177736 0)
(-0.0447765 -0.00302511 0)
(-0.030595 -0.00382477 0)
(-0.0145268 -0.00358577 0)
(0.000390829 -0.00291326 0)
(0.0123303 -0.00206866 0)
(0.0202059 -0.00118936 0)
(0.0232735 -0.000288688 0)
(0.0206197 0.000623182 0)
(0.0118943 0.00159282 0)
(-0.000434528 0.00479463 0)
(-0.00311129 0.00479482 0)
(-0.00602924 0.00479335 0)
(-0.00915905 0.00480275 0)
(-0.0124753 0.00484843 0)
(-0.0159698 0.00497208 0)
(-0.0196698 0.00522132 0)
(-0.0236338 0.00562788 0)
(-0.0279472 0.006189 0)
(-0.032701 0.00685869 0)
(-0.0379759 0.0075442 0)
(-0.0438069 0.00809546 0)
(-0.0501201 0.00830148 0)
(-0.056617 0.00789248 0)
(-0.0626526 0.0066021 0)
(-0.0670977 0.00441259 0)
(-0.0689691 0.00165886 0)
(-0.0675921 -0.000401338 0)
(-0.064197 -0.00130439 0)
(-0.059974 -0.00192285 0)
(-0.0541857 -0.00301732 0)
(-0.044602 -0.00485206 0)
(-0.0301998 -0.00598814 0)
(-0.0139404 -0.00553565 0)
(0.00106959 -0.0044316 0)
(0.0129992 -0.00307627 0)
(0.0207807 -0.00169419 0)
(0.0237159 -0.000311005 0)
(0.0209121 0.00105636 0)
(0.0120675 0.00250574 0)
(-0.000351203 0.00798479 0)
(-0.00269746 0.00795984 0)
(-0.00527601 0.00789351 0)
(-0.00808713 0.00780509 0)
(-0.0111393 0.00773997 0)
(-0.014457 0.00776299 0)
(-0.0180876 0.00793933 0)
(-0.0220923 0.00830712 0)
(-0.0265438 0.00885934 0)
(-0.0315138 0.00953842 0)
(-0.0370648 0.0102324 0)
(-0.0432197 0.0107605 0)
(-0.0499 0.0108592 0)
(-0.0567928 0.0101864 0)
(-0.0632173 0.00837227 0)
(-0.067857 0.00539195 0)
(-0.0697446 0.00167864 0)
(-0.067996 -0.000959579 0)
(-0.0642819 -0.00201401 0)
(-0.0600747 -0.0028034 0)
(-0.0544561 -0.00423872 0)
(-0.0448847 -0.00669694 0)
(-0.0302163 -0.00818463 0)
(-0.0137752 -0.00749403 0)
(0.00129764 -0.00595179 0)
(0.0132254 -0.00408207 0)
(0.0209774 -0.00219463 0)
(0.0238833 -0.000328244 0)
(0.0210381 0.00149444 0)
(0.0121871 0.00342634 0)
(-0.00027928 0.0107631 0)
(-0.00235775 0.0107334 0)
(-0.00467267 0.0106536 0)
(-0.00725198 0.0105473 0)
(-0.0101327 0.010469 0)
(-0.0133623 0.010489 0)
(-0.0169933 0.0106749 0)
(-0.0210749 0.011062 0)
(-0.02566 0.0116391 0)
(-0.0308036 0.0123438 0)
(-0.0365648 0.0130538 0)
(-0.0429767 0.0135639 0)
(-0.0499785 0.01356 0)
(-0.0572562 0.0126218 0)
(-0.0641037 0.0102494 0)
(-0.0689186 0.00640106 0)
(-0.0708149 0.00161567 0)
(-0.0685274 -0.00156902 0)
(-0.0643848 -0.00269483 0)
(-0.0602228 -0.00365871 0)
(-0.0548431 -0.00543444 0)
(-0.0452881 -0.00856681 0)
(-0.0302675 -0.0104229 0)
(-0.0136054 -0.00945792 0)
(0.00153291 -0.007472 0)
(0.0134507 -0.00508641 0)
(0.0211705 -0.00269285 0)
(0.0240536 -0.000343211 0)
(0.0211715 0.00193509 0)
(0.0123304 0.00435386 0)
(-0.000236082 0.0132887 0)
(-0.00217842 0.013266 0)
(-0.00435659 0.0132072 0)
(-0.00681469 0.0131413 0)
(-0.00960434 0.0131141 0)
(-0.0127826 0.0131892 0)
(-0.0163984 0.0134289 0)
(-0.0204953 0.0138618 0)
(-0.0251217 0.0144795 0)
(-0.0303392 0.0152219 0)
(-0.0362262 0.0159648 0)
(-0.042846 0.0164799 0)
(-0.0501689 0.0163983 0)
(-0.0578758 0.0152125 0)
(-0.0652502 0.0122516 0)
(-0.0702439 0.00743661 0)
(-0.0721883 0.0014332 0)
(-0.0691475 -0.00223931 0)
(-0.0644524 -0.00333016 0)
(-0.0603792 -0.00448254 0)
(-0.0553237 -0.00659593 0)
(-0.0457945 -0.0104694 0)
(-0.0303223 -0.0127145 0)
(-0.0133908 -0.0114262 0)
(0.00182374 -0.00899172 0)
(0.0137249 -0.00608854 0)
(0.0214029 -0.00318833 0)
(0.0242584 -0.000355644 0)
(0.0213311 0.00237844 0)
(0.0125061 0.00528971 0)
(-0.000210157 0.0156806 0)
(-0.00209919 0.0156826 0)
(-0.00420914 0.0156704 0)
(-0.00659622 0.0156614 0)
(-0.00932689 0.0157043 0)
(-0.0124515 0.0158554 0)
(-0.0160151 0.0161648 0)
(-0.0200724 0.0166576 0)
(-0.0246792 0.0173324 0)
(-0.0299195 0.0181366 0)
(-0.0359036 0.0189469 0)
(-0.0427349 0.0195088 0)
(-0.0504183 0.0193891 0)
(-0.0586251 0.0179907 0)
(-0.0666826 0.0144142 0)
(-0.0718453 0.00849841 0)
(-0.0739201 0.00108235 0)
(-0.0698296 -0.00299419 0)
(-0.0644509 -0.00390415 0)
(-0.0605282 -0.00527104 0)
(-0.0559052 -0.00771258 0)
(-0.0464157 -0.0124133 0)
(-0.0303762 -0.0150721 0)
(-0.0131264 -0.0133979 0)
(0.00217519 -0.0105109 0)
(0.014053 -0.00708767 0)
(0.0216782 -0.00368036 0)
(0.0245008 -0.000364968 0)
(0.021518 0.0028249 0)
(0.0127166 0.00623551 0)
(-0.000180346 0.0180459 0)
(-0.00202228 0.0180525 0)
(-0.00410473 0.0180695 0)
(-0.00646317 0.0181212 0)
(-0.00913737 0.0182404 0)
(-0.0121856 0.0184732 0)
(-0.0156801 0.0188541 0)
(-0.0196662 0.0194228 0)
(-0.0242287 0.0201751 0)
(-0.0294713 0.0210757 0)
(-0.0355479 0.022 0)
(-0.0426098 0.0226634 0)
(-0.0507059 0.0225546 0)
(-0.059491 0.020997 0)
(-0.068446 0.0167865 0)