/*--------------------------------*- C++ -*----------------------------------*\
| =========                 |                                                 |
| \\      /  F ield         | OpenFOAM: The Open Source CFD Toolbox           |
|  \\    /   O peration     | Version:  2.4.0                                 |
|   \\  /    A nd           | Web:      www.OpenFOAM.org                      |
|    \\/     M anipulation  |                                                 |
\*---------------------------------------------------------------------------*/
FoamFile
{
    version     2.0;
    format      ascii;
    class       volVectorField;
    location    "0.037";
    object      U;
}
// * * * * * * * * * * * * * * * * * * * * * * * * * * * * * * * * * * * * * //

dimensions      [0 1 -1 0 0 0 0];

internalField   nonuniform List<vector> 
14400
(
(-0.000197017 2.81138e-05 0)
(-0.000691615 6.18541e-06 0)
(-0.00130822 7.72453e-06 0)
(-0.00204975 9.32847e-06 0)
(-0.00289861 9.65496e-06 0)
(-0.00374196 5.18739e-06 0)
(-0.0042558 -1.26235e-05 0)
(-0.00388506 -4.91929e-05 0)
(-0.00211104 -0.000102417 0)
(0.00119017 -0.000157773 0)
(0.00573207 -0.000208986 0)
(0.0109807 -0.000244415 0)
(0.0164382 -0.000261583 0)
(0.021655 -0.000260153 0)
(0.0262714 -0.000238923 0)
(0.0299984 -0.000193181 0)
(0.0326313 -0.000128741 0)
(0.034089 -4.48719e-05 0)
(0.0343828 4.91664e-05 0)
(0.0335955 0.000153153 0)
(0.0318886 0.00026294 0)
(0.0294326 0.000370761 0)
(0.0264124 0.000477465 0)
(0.0229994 0.00057509 0)
(0.0193605 0.000661466 0)
(0.0156453 0.000733217 0)
(0.0119794 0.000788167 0)
(0.00846273 0.000826887 0)
(0.00516334 0.00085075 0)
(0.00212104 0.000862244 0)
(-0.00022894 8.90239e-05 0)
(-0.0012869 7.31557e-05 0)
(-0.00252422 0.000100113 0)
(-0.00414017 0.000139297 0)
(-0.00620388 0.000182322 0)
(-0.00866131 0.000207882 0)
(-0.0111899 0.000162057 0)
(-0.0131257 -1.00438e-05 0)
(-0.0137413 -0.000310502 0)
(-0.0127209 -0.000662189 0)
(-0.0102529 -0.000996011 0)
(-0.0067783 -0.00126304 0)
(-0.00266183 -0.00145121 0)
(0.00179349 -0.00154364 0)
(0.00632241 -0.00152312 0)
(0.0106348 -0.00138552 0)
(0.0144415 -0.00110414 0)
(0.0174941 -0.000703747 0)
(0.0196219 -0.000201724 0)
(0.0207323 0.000351776 0)
(0.0208845 0.000950542 0)
(0.02018 0.00155098 0)
(0.0187689 0.00214057 0)
(0.0168104 0.00268767 0)
(0.0144611 0.00317311 0)
(0.0118782 0.00358324 0)
(0.00920155 0.00390133 0)
(0.00655101 0.00412844 0)
(0.00401442 0.00427052 0)
(0.00165058 0.00434029 0)
(-0.000229441 0.000152032 0)
(-0.00133631 0.000153863 0)
(-0.00263214 0.000214902 0)
(-0.00434373 0.000306821 0)
(-0.00656069 0.000416116 0)
(-0.00925667 0.000506036 0)
(-0.0121409 0.000477493 0)
(-0.0145703 0.000221218 0)
(-0.0158146 -0.000266843 0)
(-0.0155419 -0.000858688 0)
(-0.0139194 -0.00142202 0)
(-0.011322 -0.00189706 0)
(-0.00800095 -0.00228278 0)
(-0.00412257 -0.00255997 0)
(0.000139829 -0.00269181 0)
(0.00451949 -0.00263607 0)
(0.00866508 -0.00234969 0)
(0.0122345 -0.00180676 0)
(0.0149772 -0.00105221 0)
(0.016725 -0.00013445 0)
(0.0175007 0.000864056 0)
(0.0173945 0.00190739 0)
(0.016534 0.00293933 0)
(0.0150674 0.00392405 0)
(0.0131395 0.00481852 0)
(0.0109048 0.00557645 0)
(0.00851183 0.00617726 0)
(0.00609088 0.006608 0)
(0.00374336 0.00687918 0)
(0.00154093 0.00701338 0)
(-0.000227122 0.000214724 0)
(-0.00133553 0.000235094 0)
(-0.00262964 0.000330946 0)
(-0.00434259 0.000476788 0)
(-0.00656575 0.000654533 0)
(-0.0092816 0.000813383 0)
(-0.0122118 0.000809417 0)
(-0.0147141 0.000478851 0)
(-0.0160397 -0.000189744 0)
(-0.0158377 -0.00101427 0)
(-0.0142785 -0.00180049 0)
(-0.0117409 -0.00248133 0)
(-0.00846398 -0.00307442 0)
(-0.0045875 -0.00356011 0)
(-0.000270784 -0.00387614 0)
(0.00422112 -0.00393595 0)
(0.008517 -0.00366406 0)
(0.0122655 -0.00300798 0)
(0.0151809 -0.00200757 0)
(0.0170761 -0.000736107 0)
(0.0179786 0.000677336 0)
(0.0179756 0.00215979 0)
(0.017199 0.00364523 0)
(0.0157764 0.0050847 0)
(0.0138522 0.00641222 0)
(0.0115668 0.00756039 0)
(0.00907103 0.00847648 0)
(0.006514 0.00914022 0)
(0.00401144 0.00956149 0)
(0.0016526 0.0097699 0)
(-0.000223874 0.000276918 0)
(-0.00133106 0.000315925 0)
(-0.00261847 0.000446567 0)
(-0.00432599 0.00064641 0)
(-0.00654555 0.000893129 0)
(-0.00926908 0.00112288 0)
(-0.0122325 0.00114686 0)
(-0.0147925 0.000744259 0)
(-0.0161723 -0.000106202 0)
(-0.0159946 -0.00116661 0)
(-0.0144368 -0.00217754 0)
(-0.0118981 -0.00306415 0)
(-0.00861991 -0.00386753 0)
(-0.00472431 -0.00456892 0)
(-0.000355554 -0.00508033 0)
(0.0042322 -0.00526906 0)
(0.00867199 -0.00502791 0)
(0.0126121 -0.00427202 0)
(0.0157131 -0.00300484 0)
(0.0177752 -0.00138469 0)
(0.018812 0.000434506 0)
(0.0189289 0.00235625 0)
(0.0182451 0.00431579 0)
(0.016881 0.00623427 0)
(0.0149571 0.00803769 0)
(0.0125935 0.00962841 0)
(0.00994553 0.0109238 0)
(0.00717373 0.0118719 0)
(0.00443168 0.0124754 0)
(0.00182758 0.0127756 0)
(-0.00021972 0.000338445 0)
(-0.00132516 0.000396159 0)
(-0.00260365 0.000561725 0)
(-0.00430373 0.000815584 0)
(-0.00651774 0.00113152 0)
(-0.00924941 0.00143454 0)
(-0.0122531 0.00149069 0)
(-0.0148852 0.00101857 0)
(-0.0163319 -1.60546e-05 0)
(-0.0161828 -0.00131749 0)
(-0.0146229 -0.00255546 0)
(-0.012083 -0.00364668 0)
(-0.00880888 -0.00466158 0)
(-0.00489881 -0.0055862 0)
(-0.000476568 -0.0062982 0)
(0.00422251 -0.00664344 0)
(0.00884278 -0.00646528 0)
(0.0130309 -0.00561504 0)
(0.0163785 -0.00409993 0)
(0.018652 -0.00211882 0)
(0.0198649 0.000118414 0)
(0.0201362 0.0024842 0)
(0.0195911 0.00491752 0)
(0.018327 0.00734596 0)
(0.0164364 0.00968226 0)
(0.0140031 0.0118042 0)
(0.0111635 0.0135731 0)
(0.00810297 0.0148853 0)
(0.00502145 0.0157273 0)
(0.002073 0.0161454 0)
(-0.000214605 0.000399166 0)
(-0.00131797 0.000475659 0)
(-0.00258531 0.000676161 0)
(-0.00427617 0.00098401 0)
(-0.00648272 0.00136962 0)
(-0.00922313 0.00174877 0)
(-0.0122749 0.00184234 0)
(-0.0149948 0.00130399 0)
(-0.016524 8.22495e-05 0)
(-0.0164097 -0.00146674 0)
(-0.0148462 -0.00293442 0)
(-0.0123075 -0.00422782 0)
(-0.00904537 -0.00545497 0)
(-0.00512697 -0.00661087 0)
(-0.000650526 -0.00754433 0)
(0.00417737 -0.00807562 0)
(0.00901631 -0.00798256 0)
(0.0135142 -0.00705765 0)
(0.0171756 -0.00529515 0)
(0.0197114 -0.00293605 0)
(0.0211289 -0.000288908 0)
(0.021601 0.00251981 0)
(0.0212422 0.00542931 0)
(0.0201409 0.00838588 0)
(0.0183525 0.0113217 0)
(0.0158882 0.0140964 0)
(0.0128273 0.016481 0)
(0.00938507 0.0182884 0)
(0.00583707 0.0194455 0)
(0.00241147 0.0200179 0)
(-0.000208464 0.000458912 0)
(-0.00130952 0.000554254 0)
(-0.00256348 0.000789796 0)
(-0.00424321 0.00115161 0)
(-0.00644034 0.00160724 0)
(-0.00918976 0.00206593 0)
(-0.0122971 0.00220334 0)
(-0.0151214 0.00160281 0)
(-0.0167494 0.000190465 0)
(-0.0166762 -0.00161438 0)
(-0.0151067 -0.00331455 0)
(-0.0125714 -0.00480634 0)
(-0.00933071 -0.00624563 0)
(-0.00541225 -0.00764227 0)
(-0.000879913 -0.00881974 0)
(0.00408491 -0.00956072 0)
(0.00918197 -0.00959463 0)
(0.0140506 -0.00865147 0)
(0.0181146 -0.00662472 0)
(0.020954 -0.00386781 0)
(0.0226067 -0.000803489 0)
(0.0233179 0.00242504 0)
(0.0231972 0.00581102 0)
(0.0223447 0.00929274 0)
(0.020784 0.0128865 0)
(0.0183869 0.0164753 0)
(0.0151063 0.019717 0)
(0.0111526 0.0222241 0)
(0.00694874 0.0238142 0)
(0.00286523 0.0245811 0)
(-0.000201215 0.000517535 0)
(-0.00129988 0.000631793 0)
(-0.00253817 0.000902475 0)
(-0.0042049 0.00131813 0)
(-0.00639045 0.00184417 0)
(-0.00914874 0.00238632 0)
(-0.012319 0.0025752 0)
(-0.015265 0.00191749 0)
(-0.0170092 0.000310487 0)
(-0.0169838 -0.00176041 0)
(-0.0154041 -0.00369633 0)
(-0.012874 -0.00538081 0)
(-0.00966587 -0.00703105 0)
(-0.00575871 -0.00867892 0)
(-0.00117353 -0.0101215 0)
(0.0039365 -0.0111029 0)
(0.00932092 -0.0113196 0)
(0.0146389 -0.010396 0)
(0.0192005 -0.00811641 0)
(0.0223961 -0.00491602 0)
(0.0242867 -0.00143643 0)
(0.0252738 0.00217749 0)
(0.0254437 0.00602183 0)
(0.0249345 0.00996879 0)
(0.0238163 0.0142341 0)
(0.0217253 0.0188644 0)
(0.0182758 0.0233497 0)
(0.0136235 0.0269157 0)
(0.0084478 0.0290999 0)
(0.00344771 0.0300785 0)
(-0.000192769 0.000574864 0)
(-0.00128913 0.000708123 0)
(-0.00250935 0.00101402 0)
(-0.00416119 0.00148349 0)
(-0.00633287 0.0020802 0)
(-0.00909939 0.00271022 0)
(-0.0123395 0.00295951 0)
(-0.0154255 0.00225065 0)
(-0.0173049 0.000444336 0)
(-0.0173338 -0.00190503 0)
(-0.0157378 -0.0040805 0)
(-0.013214 -0.00594967 0)
(-0.0100518 -0.00780813 0)
(-0.00617007 -0.00971829 0)
(-0.00153901 -0.0114488 0)
(0.00371806 -0.0127117 0)
(0.00941086 -0.0131761 0)
(0.0152627 -0.0123476 0)
(0.0204607 -0.00979913 0)
(0.0240549 -0.00609079 0)
(0.026151 -0.00218263 0)
(0.0274476 0.00174365 0)
(0.0279497 0.00605498 0)
(0.0278595 0.0102862 0)
(0.02755 0.0151058 0)
(0.0262849 0.0210451 0)
(0.0228647 0.0274704 0)
(0.0171591 0.0327753 0)
(0.010424 0.0357612 0)
(0.00414875 0.0369038 0)
(-0.000183015 0.000630744 0)
(-0.00127741 0.000783069 0)
(-0.00247705 0.00112434 0)
(-0.00411213 0.00164748 0)
(-0.00626742 0.00231496 0)
(-0.00904097 0.00303781 0)
(-0.0123575 0.00335782 0)
(-0.0156028 0.00260501 0)
(-0.0176378 0.000594256 0)
(-0.0177282 -0.00204869 0)
(-0.0161069 -0.00446824 0)
(-0.0135895 -0.00651109 0)
(-0.0104891 -0.00857306 0)
(-0.00665092 -0.0107573 0)
(-0.00198348 -0.0128006 0)
(0.00341138 -0.0143794 0)
(0.0094245 -0.0151822 0)
(0.01591 -0.0145719 0)
(0.021922 -0.0117279 0)
(0.0259664 -0.00735857 0)
(0.0281734 -0.00302392 0)
(0.0298065 0.00108102 0)
(0.0306753 0.00599452 0)
(0.0310441 0.00999064 0)
(0.032348 0.0148693 0)
(0.0329187 0.0225827 0)
(0.0298932 0.0323597 0)
(0.0222885 0.0404564 0)
(0.0130087 0.0448131 0)
(0.00499789 0.0462315 0)
(-0.00017184 0.000684993 0)
(-0.00126479 0.0008565 0)
(-0.00244126 0.00123321 0)
(-0.00405771 0.00180994 0)
(-0.00619385 0.00254814 0)
(-0.00897259 0.00336922 0)
(-0.0123715 0.0037718 0)
(-0.0157967 0.0029836 0)
(-0.0180097 0.000762711 0)
(-0.0181692 -0.00219202 0)
(-0.0165103 -0.00486114 0)
(-0.0139982 -0.00706327 0)
(-0.0109786 -0.00932121 0)
(-0.00720613 -0.0117917 0)
(-0.00251641 -0.0141744 0)
(0.00300144 -0.0161138 0)
(0.00932385 -0.0173476 0)
(0.0165458 -0.0171355 0)
(0.0236462 -0.0139752 0)
(0.0282184 -0.00870643 0)
(0.0303145 -0.00391575 0)
(0.0322737 9.66007e-05 0)
(0.0336043 0.00612958 0)
(0.0347527 0.00844386 0)
(0.0398953 0.0119923 0)
(0.0431343 0.0231229 0)
(0.0407955 0.0399584 0)
(0.0291959 0.0495205 0)
(0.0174733 0.0579915 0)
(0.00519283 0.0599337 0)
(-0.000159098 0.000737445 0)
(-0.0012514 0.000928225 0)
(-0.00240198 0.00134059 0)
(-0.003998 0.00197068 0)
(-0.00611199 0.00277927 0)
(-0.00889336 0.00370448 0)
(-0.0123799 0.00420307 0)
(-0.016007 0.00338957 0)
(-0.0184228 0.00095251 0)
(-0.0186596 -0.00233601 0)
(-0.0169465 -0.0052617 0)
(-0.0144368 -0.00760386 0)
(-0.0115204 -0.0100469 0)
(-0.00784031 -0.0128169 0)
(-0.00314519 -0.0155657 0)
(0.00247067 -0.0178998 0)
(0.00906082 -0.0196823 0)
(0.0171065 -0.0201761 0)
(0.0257465 -0.0166644 0)
(0.0310352 -0.010066 0)
(0.0326215 -0.0047309 0)
(0.0344333 -0.00133408 0)
(0.0365947 0.00714692 0)
(0.0398143 0.00342394 0)
(0.0514952 0.00516983 0)
(0.0498446 0.0216726 0)
(0.0178011 0.0472532 0)
(0.0244015 0.0597364 0)
(0.0166196 0.0596153 0)
(-0.00148789 0.0657758 0)
(-0.00014465 0.000787906 0)
(-0.0012374 0.000998123 0)
(-0.00235923 0.00144622 0)
(-0.00393298 0.00212954 0)
(-0.00602162 0.00300784 0)
(-0.00880222 0.00404347 0)
(-0.0123807 0.0046533 0)
(-0.0162335 0.00382632 0)
(-0.0188794 0.00116689 0)
(-0.0192029 -0.00248197 0)
(-0.0174135 -0.00567322 0)
(-0.014901 -0.00813043 0)
(-0.0121146 -0.0107435 0)
(-0.00855937 -0.0138266 0)
(-0.00387755 -0.0169699 0)
(0.00180629 -0.0197217 0)
(0.00858687 -0.0221952 0)
(0.0174816 -0.0238922 0)
(0.0284636 -0.0200766 0)
(0.0351778 -0.0113577 0)
(0.0359447 -0.00515654 0)
(0.0350769 -0.00305039 0)
(0.038059 0.0107454 0)
(0.062358 -0.0139478 0)
(0.0790755 -0.00302986 0)
(0.0788076 0.0316993 0)
(0.0996926 0.0477969 0)
(0.0953239 0.0588622 0)
(0.0512568 0.0736926 0)
(0.0206044 0.0782187 0)
(-0.000128306 0.000836195 0)
(-0.00122291 0.001066 0)
(-0.00231297 0.00155009 0)
(-0.0038627 0.00228638 0)
(-0.00592257 0.0032332 0)
(-0.00869811 0.004386 0)
(-0.0123716 0.00512419 0)
(-0.0164758 0.00429754 0)
(-0.019382 0.00140958 0)
(-0.0198038 -0.00263176 0)
(-0.0179088 -0.00610007 0)
(-0.0153849 -0.00864019 0)
(-0.0127607 -0.0114026 0)
(-0.00936949 -0.0148139 0)
(-0.00471985 -0.0183837 0)
(0.00100501 -0.0215599 0)
(0.0078534 -0.0248738 0)
(0.0175003 -0.0286015 0)
(0.0324623 -0.0249387 0)
(0.0428906 -0.0128009 0)
(0.0426624 -0.00458863 0)
(0.0347127 -0.00495971 0)
(0.0331781 -0.0115784 0)
(0.255904 -0.0265771 0)
(0.278991 -0.0391677 0)
(0.212044 0.085652 0)
(0.198653 0.0682937 0)
(0.151229 0.115304 0)
(0.108436 0.148875 0)
(0.0451259 0.166362 0)
(-0.000109893 0.000882106 0)
(-0.00120817 0.00113173 0)
(-0.00226326 0.00165195 0)
(-0.0037872 0.00244101 0)
(-0.00581459 0.00345459 0)
(-0.00857988 0.00473173 0)
(-0.0123499 0.00561728 0)
(-0.0167335 0.00480711 0)
(-0.0199339 0.00168494 0)
(-0.0204677 -0.00278765 0)
(-0.0184291 -0.0065487 0)
(-0.0158812 -0.00912987 0)
(-0.0134578 -0.0120145 0)
(-0.0102778 -0.0157708 0)
(-0.00567737 -0.019803 0)
(8.00743e-05 -0.0233909 0)
(0.00683671 -0.0276225 0)
(0.0169883 -0.0348854 0)
(0.0395895 -0.0333483 0)
(0.0544314 -0.0147682 0)
(0.0441598 -0.000809373 0)
(0.047472 -0.00809583 0)
(0.207642 -0.11272 0)
(0.129376 -0.0412318 0)
(0.146231 -0.0251168 0)
(0.143839 0.045892 0)
(0.121923 0.107136 0)
(0.0759639 0.153368 0)
(0.0368908 0.201787 0)
(0.00900098 0.222081 0)
(-8.91796e-05 0.000925436 0)
(-0.00119332 0.00119512 0)
(-0.00221002 0.00175174 0)
(-0.00370651 0.00259331 0)
(-0.00569759 0.00367108 0)
(-0.00844634 0.00508013 0)
(-0.0123125 0.0061341 0)
(-0.0170063 0.00535911 0)
(-0.0205383 0.00199817 0)
(-0.0212017 -0.00295245 0)
(-0.0189705 -0.00702685 0)
(-0.0163806 -0.00959597 0)
(-0.0142044 -0.0125671 0)
(-0.0112927 -0.0166875 0)
(-0.00675531 -0.0212288 0)
(-0.000943679 -0.0251651 0)
(0.00561199 -0.0302037 0)
(0.0160045 -0.0437268 0)
(0.0550835 -0.0494516 0)
(0.0469504 -0.0106357 0)
(0.0124751 0.00982633 0)
(0.0685835 -0.0871924 0)
(0.183558 -0.100259 0)
(0.152299 -0.0608796 0)
(0.105515 0.00792357 0)
(0.0690492 0.0688739 0)
(0.0295229 0.140781 0)
(9.06517e-05 0.188174 0)
(-0.0137449 0.22249 0)
(-0.00932971 0.225117 0)
(-6.59423e-05 0.00096596 0)
(-0.00117866 0.00125606 0)
(-0.00215329 0.00184929 0)
(-0.00362071 0.00274311 0)
(-0.00557137 0.00388155 0)
(-0.00829628 0.00543051 0)
(-0.0122555 0.00667619 0)
(-0.0172934 0.00595771 0)
(-0.0211988 0.00235561 0)
(-0.022015 -0.0031297 0)
(-0.0195277 -0.00754543 0)
(-0.0168707 -0.0100344 0)
(-0.0149981 -0.013046 0)
(-0.0124254 -0.0175528 0)
(-0.00796084 -0.0226679 0)
(-0.0020174 -0.0269291 0)
(0.00445226 -0.0323106 0)
(0.0174931 -0.0567737 0)
(0.0638279 -0.0650904 0)
(-0.0217084 0.0169533 0)
(0.202445 -0.00302235 0)
(0.264288 -0.144403 0)
(0.16695 -0.0615954 0)
(0.0934665 -0.0257685 0)
(0.0364789 0.0404316 0)
(-0.00152495 0.105504 0)
(-0.0343925 0.16942 0)
(-0.0429059 0.20077 0)
(-0.0357085 0.216221 0)
(-0.0181718 0.205866 0)
(-3.99038e-05 0.00100345 0)
(-0.00116436 0.00131436 0)
(-0.00209301 0.0019445 0)
(-0.00352981 0.0028903 0)
(-0.00543584 0.00408463 0)
(-0.00812847 0.00578194 0)
(-0.0121744 0.00724512 0)
(-0.0175943 0.00660691 0)
(-0.0219194 0.00276492 0)
(-0.0229191 -0.00332353 0)
(-0.0200943 -0.00811872 0)
(-0.0173363 -0.0104404 0)
(-0.0158355 -0.0134332 0)
(-0.0136895 -0.0183525 0)
(-0.00930762 -0.0241349 0)
(-0.00307097 -0.0287061 0)
(0.00382462 -0.0337767 0)
(0.0495374 -0.0819432 0)
(-0.0309404 -0.0401422 0)
(0.151504 -0.0515124 0)
(0.277532 -0.139492 0)
(0.181712 -0.0250619 0)
(0.077574 -0.0131908 0)
(0.0494176 0.0249702 0)
(-0.0417812 0.0814062 0)
(-0.0849811 0.12003 0)
(-0.0746073 0.169898 0)
(-0.058937 0.189075 0)
(-0.0366062 0.192303 0)
(-0.0166944 0.183721 0)
(-1.07738e-05 0.00103767 0)
(-0.00115079 0.00136989 0)
(-0.00202914 0.00203724 0)
(-0.00343388 0.00303476 0)
(-0.00529093 0.00427867 0)
(-0.00794173 0.00613319 0)
(-0.012064 0.00784246 0)
(-0.0179083 0.00731025 0)
(-0.0227041 0.00323548 0)
(-0.0239285 -0.00353873 0)
(-0.0206622 -0.00876547 0)
(-0.0177576 -0.0108086 0)
(-0.0167128 -0.0137071 0)
(-0.015103 -0.0190689 0)
(-0.0108193 -0.0256541 0)
(-0.00400757 -0.0306093 0)
(0.00214311 -0.0341413 0)
(0.101685 -0.0968983 0)
(0.0775946 -0.0592696 0)
(0.0848276 -0.0613038 0)
(0.0451998 -0.0764271 0)
(0.0020999 0.0124061 0)
(-0.0270113 0.008053 0)
(-0.0636945 0.0677322 0)
(-0.0782575 0.116252 0)
(-0.0907904 0.123317 0)
(-0.0806134 0.153323 0)
(-0.0580343 0.165329 0)
(-0.0342277 0.16657 0)
(-0.0163865 0.163267 0)
(2.17767e-05 0.00106835 0)
(-0.00113826 0.0014225 0)
(-0.00196166 0.00212737 0)
(-0.00333292 0.00317639 0)
(-0.00513661 0.00446169 0)
(-0.00773497 0.00648268 0)
(-0.011918 0.00846974 0)
(-0.0182347 0.00807041 0)
(-0.023557 0.00377891 0)
(-0.0250623 -0.00378073 0)
(-0.0212211 -0.00951039 0)
(-0.0181101 -0.0111328 0)
(-0.0176237 -0.0138416 0)
(-0.016687 -0.0196786 0)
(-0.0125404 -0.0272642 0)
(-0.00448304 -0.0329795 0)
(0.00575738 -0.0452745 0)
(0.0566664 -0.0654476 0)
(0.515196 -0.215713 0)
(0.120492 -0.0470788 0)
(-0.0381331 -0.00956242 0)
(-0.074671 0.0212457 0)
(-0.0955109 0.0259544 0)
(-0.114604 0.072909 0)
(-0.103339 0.11002 0)
(-0.0916365 0.121249 0)
(-0.0745655 0.134487 0)
(-0.0518474 0.140697 0)
(-0.0285786 0.141258 0)
(-0.00602181 0.14527 0)
(5.81135e-05 0.00109525 0)
(-0.00112714 0.00147203 0)
(-0.00189048 0.00221483 0)
(-0.00322694 0.00331511 0)
(-0.00497287 0.00463135 0)
(-0.00750728 0.00682838 0)
(-0.0117286 0.00912853 0)
(-0.0185729 0.00888826 0)
(-0.024482 0.00440959 0)
(-0.0263447 -0.00405548 0)
(-0.0217579 -0.0103847 0)
(-0.0183622 -0.0114061 0)
(-0.018559 -0.0138073 0)
(-0.0184554 -0.0201598 0)
(-0.0145484 -0.0290037 0)
(-0.00451581 -0.0360927 0)
(0.0415563 -0.0785606 0)
(-0.0974606 -0.131762 0)
(-0.139053 -0.0325798 0)
(-0.0293068 0.0172196 0)
(-0.0856298 0.0289669 0)
(-0.108837 0.0292505 0)
(-0.123194 0.0369247 0)
(-0.127101 0.0688312 0)
(-0.109776 0.0955647 0)
(-0.0893638 0.106907 0)
(-0.0683898 0.114476 0)
(-0.0466385 0.117325 0)
(-0.0260006 0.11662 0)
(-0.0101337 0.123158 0)
(9.86375e-05 0.00111807 0)
(-0.00111784 0.00151833 0)
(-0.00181553 0.00229947 0)
(-0.00311591 0.00345088 0)
(-0.00479979 0.00478489 0)
(-0.007258 0.00716764 0)
(-0.0114865 0.00982049 0)
(-0.0189227 0.00976187 0)
(-0.0254822 0.00514549 0)
(-0.027807 -0.00436911 0)
(-0.0222561 -0.0114334 0)
(-0.0184738 -0.0116209 0)
(-0.0194958 -0.0135688 0)
(-0.0203536 -0.0204314 0)
(-0.0168026 -0.0307869 0)
(-0.00638746 -0.0393789 0)
(0.0409205 -0.146815 0)
(0.126538 -0.530384 0)
(0.0245781 -0.0517794 0)
(-0.0884557 0.0817525 0)
(-0.110519 0.0475974 0)
(-0.124947 0.0351125 0)
(-0.130878 0.0406886 0)
(-0.126087 0.0610493 0)
(-0.107832 0.07942 0)
(-0.0864934 0.0893665 0)
(-0.0659457 0.0949572 0)
(-0.0469877 0.0974154 0)
(-0.0314193 0.0998125 0)
(-0.0164966 0.104715 0)
(0.000143798 0.00113655 0)
(-0.00111084 0.00156125 0)
(-0.00173666 0.00238126 0)
(-0.00299971 0.0035837 0)
(-0.00461735 0.00491933 0)
(-0.00698683 0.00749697 0)
(-0.0111801 0.0105476 0)
(-0.019284 0.0106847 0)
(-0.0265598 0.00600903 0)
(-0.0294899 -0.00472749 0)
(-0.0226935 -0.0127071 0)
(-0.0183928 -0.0117681 0)
(-0.0203525 -0.0130864 0)
(-0.0221573 -0.0203865 0)
(-0.0191276 -0.0323414 0)
(-0.00643551 -0.0487407 0)
(0.129483 -0.0841394 0)
(-0.644791 -0.852306 0)
(-0.0240933 0.150758 0)
(-0.153643 0.120286 0)
(-0.131063 0.0516156 0)
(-0.13372 0.0360172 0)
(-0.131413 0.0391088 0)
(-0.121676 0.0517189 0)
(-0.104152 0.0641582 0)
(-0.0842214 0.0723003 0)
(-0.0650005 0.0772617 0)
(-0.0474518 0.0802339 0)
(-0.0317462 0.0827373 0)
(-0.0165487 0.0851552 0)
(0.00019408 0.00115041 0)
(-0.00110668 0.00160063 0)
(-0.00165375 0.00246005 0)
(-0.00287824 0.00371377 0)
(-0.00442563 0.0050316 0)
(-0.00669411 0.00781168 0)
(-0.0107951 0.011312 0)
(-0.0196577 0.011643 0)
(-0.027715 0.00702826 0)
(-0.0314459 -0.00513535 0)
(-0.0230421 -0.014273 0)
(-0.0180485 -0.0118342 0)
(-0.0210245 -0.0122407 0)
(-0.023672 -0.0200287 0)
(-0.0247811 -0.0339636 0)
(-0.0120755 -0.0670753 0)
(0.0108194 0.0208877 0)
(-0.409061 -0.345596 0)
(-0.344317 0.0513084 0)
(-0.200362 0.0922295 0)
(-0.151535 0.0452479 0)
(-0.139737 0.0319668 0)
(-0.130387 0.0337765 0)
(-0.117423 0.0416185 0)
(-0.100315 0.0500362 0)
(-0.0817023 0.0563379 0)
(-0.0635151 0.0605619 0)
(-0.0464944 0.0633095 0)
(-0.0306969 0.0652077 0)
(-0.0157866 0.0664281 0)
(0.000250016 0.00115941 0)
(-0.00110595 0.0016363 0)
(-0.00156664 0.00253583 0)
(-0.00275134 0.0038415 0)
(-0.0042245 0.00511907 0)
(-0.00638087 0.00810572 0)
(-0.0103132 0.0121167 0)
(-0.0200453 0.0126134 0)
(-0.0289456 0.00823835 0)
(-0.0337431 -0.00559506 0)
(-0.0232658 -0.0162125 0)
(-0.0173662 -0.0117992 0)
(-0.0220422 -0.0109302 0)
(-0.0274936 -0.0195279 0)
(-0.027749 -0.0361561 0)
(0.016057 -0.0795777 0)
(0.0308669 -0.0479745 0)
(-0.246709 -0.0598988 0)
(-0.337699 -0.00592055 0)
(-0.208657 0.0611924 0)
(-0.165949 0.0340739 0)
(-0.143972 0.0247418 0)
(-0.129366 0.0258779 0)
(-0.114052 0.0308381 0)
(-0.0968649 0.036536 0)
(-0.0789775 0.0411886 0)
(-0.0614906 0.0444898 0)
(-0.0449437 0.0466477 0)
(-0.0294896 0.0479471 0)
(-0.0151291 0.0485841 0)
(0.000311474 0.00116351 0)
(-0.00110932 0.0016681 0)
(-0.00147511 0.00260851 0)
(-0.00261896 0.00396792 0)
(-0.0040137 0.00518025 0)
(-0.00604911 0.00837214 0)
(-0.00971178 0.0129656 0)
(-0.0204494 0.01356 0)
(-0.0302451 0.00968358 0)
(-0.0364696 -0.00610376 0)
(-0.0233205 -0.0186257 0)
(-0.0162643 -0.011657 0)
(-0.0240195 -0.00934856 0)
(-0.033515 -0.0183489 0)
(-0.0353167 -0.0361668 0)
(-0.0264825 -0.0986466 0)
(-0.0381445 -0.227702 0)
(-0.308518 0.0596013 0)
(-0.311672 -0.0394963 0)
(-0.202543 0.0368492 0)
(-0.171413 0.0211301 0)
(-0.146379 0.0155848 0)
(-0.128543 0.0162335 0)
(-0.11151 0.0194007 0)
(-0.0939831 0.0232301 0)
(-0.0764161 0.0265253 0)
(-0.0594185 0.0289222 0)
(-0.0433634 0.0304501 0)
(-0.0284169 0.0312657 0)
(-0.0146445 0.0315714 0)
(0.000340722 0.00116043 0)
(-0.00111758 0.00169585 0)
(-0.00137895 0.00267809 0)
(-0.00248116 0.00409503 0)
(-0.00379279 0.00521598 0)
(-0.00570213 0.00860429 0)
(-0.00896194 0.0138644 0)
(-0.0208733 0.0144325 0)
(-0.0316016 0.0114176 0)
(-0.0397408 -0.00665325 0)
(-0.0231508 -0.0216419 0)
(-0.0145837 -0.0114271 0)
(-0.0243732 -0.00701427 0)
(-0.0333146 -0.0160367 0)
(-0.03918 -0.0375458 0)
(-0.00804466 -0.0598443 0)
(0.0858905 -0.104151 0)
(-0.281706 0.0816841 0)
(-0.257 -0.059034 0)
(-0.196872 0.0145959 0)
(-0.171852 0.0079984 0)
(-0.147445 0.00508703 0)
(-0.127888 0.00539849 0)
(-0.109635 0.00738478 0)
(-0.091706 0.00990567 0)
(-0.0742517 0.012145 0)
(-0.0575995 0.0137738 0)
(-0.0419855 0.0147568 0)
(-0.0275311 0.0151982 0)
(-0.014284 0.0152878 0)
(-0.000997682 0.00124889 0)
(-0.00113334 0.00171936 0)
(-0.00127952 0.0027445 0)
(-0.0023396 0.00422571 0)
(-0.0035617 0.00522905 0)
(-0.00534489 0.00879725 0)
(-0.00802731 0.0148236 0)
(-0.0213206 0.0151616 0)
(-0.0329973 0.0134939 0)
(-0.0437061 -0.00724873 0)
(-0.0226899 -0.0254519 0)
(-0.012026 -0.0110337 0)
(-0.0252291 -0.00420211 0)
(-0.039787 -0.014324 0)
(-0.0476107 -0.0437749 0)
(0.0186745 -0.0668383 0)
(-0.406324 0.184102 0)
(-0.135306 0.0763529 0)
(-0.200183 -0.049639 0)
(-0.1918 -0.00363534 0)
(-0.170867 -0.00447999 0)
(-0.147842 -0.00622663 0)
(-0.127355 -0.00624449 0)
(-0.108228 -0.00510759 0)
(-0.0899201 -0.00352127 0)
(-0.0724795 -0.00207218 0)
(-0.0560723 -0.00104255 0)
(-0.0408241 -0.000486945 0)
(-0.0267942 -0.000324862 0)
(-0.0139916 -0.000381193 0)
(-0.0294464 0.00218417 0)
(-0.00119219 0.00176803 0)
(-0.00121244 0.00282277 0)
(-0.00222817 0.00437916 0)
(-0.00334311 0.00524312 0)
(-0.004992 0.00896483 0)
(-0.00686125 0.0158592 0)
(-0.0218059 0.0156309 0)
(-0.034403 0.0159433 0)
(-0.0485341 -0.00789921 0)
(-0.0218299 -0.0302909 0)
(-0.00843965 -0.0103784 0)
(-0.0265347 -0.000742664 0)
(-0.0412583 -0.0104999 0)
(-0.0546565 -0.0467223 0)
(0.014389 -0.351118 0)
(-0.205907 0.252936 0)
(-0.0932439 0.064147 0)
(-0.180933 -0.0334547 0)
(-0.188509 -0.0150186 0)
(-0.170258 -0.0161439 0)
(-0.14803 -0.0179685 0)
(-0.126884 -0.0184426 0)
(-0.107085 -0.017978 0)
(-0.0884389 -0.0170673 0)
(-0.0709702 -0.016186 0)
(-0.0547468 -0.01559 0)
(-0.0398071 -0.0153432 0)
(-0.0261469 -0.015378 0)
(-0.0137303 -0.0155296 0)
(-0.000715531 0.000864285 0)
(-0.00362033 0.000857766 0)
(-0.00679405 0.000840151 0)
(-0.0102068 0.000808898 0)
(-0.0138053 0.000762035 0)
(-0.0175057 0.000698574 0)
(-0.0211948 0.000619056 0)
(-0.0247346 0.000526238 0)
(-0.0279679 0.000424554 0)
(-0.0307224 0.000316763 0)
(-0.0328232 0.000207449 0)
(-0.0340923 0.000103966 0)
(-0.034351 5.40284e-07 0)
(-0.0334795 -8.84627e-05 0)
(-0.0314328 -0.000162712 0)
(-0.0282381 -0.000217867 0)
(-0.0240369 -0.00025188 0)
(-0.0190862 -0.00026333 0)
(-0.013705 -0.00025468 0)
(-0.00829525 -0.000227761 0)
(-0.00333732 -0.000184315 0)
(0.000637802 -0.00013297 0)
(0.00317394 -7.35536e-05 0)
(0.00419129 -2.85615e-05 0)
(0.00405213 -1.65501e-06 0)
(0.00332531 8.40407e-06 0)
(0.00245962 9.72196e-06 0)
(0.00166108 8.53415e-06 0)
(0.000985436 6.86744e-06 0)
(0.0003963 6.51638e-06 0)
(-0.000561988 0.00435211 0)
(-0.00282473 0.0043126 0)
(-0.00527918 0.00420768 0)
(-0.00787988 0.00402254 0)
(-0.0105523 0.00374952 0)
(-0.0131942 0.00338512 0)
(-0.0156703 0.00293362 0)
(-0.0178378 0.00241229 0)
(-0.0195383 0.00184394 0)
(-0.0206016 0.00124915 0)
(-0.0208916 0.000644592 0)
(-0.0202653 5.694e-05 0)
(-0.0186438 -0.000474689 0)
(-0.0160344 -0.000915754 0)
(-0.0125818 -0.00125084 0)
(-0.00849287 -0.00146381 0)
(-0.00404022 -0.00154886 0)
(0.000471417 -0.00150958 0)
(0.00477995 -0.00136609 0)
(0.00861015 -0.00113999 0)
(0.011632 -0.000834633 0)
(0.0134205 -0.000486633 0)
(0.0136035 -0.000144422 0)
(0.0122469 9.38672e-05 0)
(0.0099304 0.000196514 0)
(0.0073866 0.000199332 0)
(0.00511434 0.000160424 0)
(0.00328173 0.000118316 0)
(0.00186987 8.46064e-05 0)
(0.000735239 7.01143e-05 0)
(-0.000526521 0.00703766 0)
(-0.00263924 0.00696002 0)
(-0.00491971 0.00675848 0)
(-0.00731264 0.00640826 0)
(-0.00973021 0.00588982 0)
(-0.0120563 0.0052059 0)
(-0.0141474 0.00437497 0)
(-0.0158572 0.00343238 0)
(-0.017035 0.00241972 0)
(-0.0175214 0.00137876 0)
(-0.0171964 0.000355508 0)
(-0.0159369 -0.000613296 0)
(-0.0136905 -0.0014574 0)
(-0.0105027 -0.0021027 0)
(-0.00660419 -0.00251013 0)
(-0.00229977 -0.00268435 0)
(0.00205229 -0.00264334 0)
(0.00613389 -0.00243413 0)
(0.00974053 -0.00209898 0)
(0.0127168 -0.00167158 0)
(0.014867 -0.00114929 0)
(0.0158541 -0.000557697 0)
(0.0153462 6.76347e-06 0)
(0.0134266 0.000382469 0)
(0.0106875 0.00051141 0)
(0.00785045 0.000466968 0)
(0.00538624 0.000359182 0)
(0.00343206 0.000257197 0)
(0.00194509 0.000179714 0)
(0.000762416 0.000145522 0)
(-0.000566031 0.00980666 0)
(-0.00283136 0.00968708 0)
(-0.00526921 0.00937459 0)
(-0.007809 0.00883074 0)
(-0.0103493 0.00803753 0)
(-0.0127493 0.0069968 0)
(-0.0148664 0.00575214 0)
(-0.0165478 0.00436421 0)
(-0.0176575 0.00289305 0)
(-0.0180541 0.00140647 0)
(-0.017614 -4.65492e-05 0)
(-0.0162193 -0.00138979 0)
(-0.0138065 -0.00254151 0)
(-0.0104459 -0.0033867 0)
(-0.00637478 -0.00384039 0)
(-0.00193595 -0.00393723 0)
(0.00249861 -0.00373907 0)
(0.00660409 -0.00332866 0)
(0.0101846 -0.00278483 0)
(0.0131058 -0.00215363 0)
(0.0151953 -0.00141971 0)
(0.0161166 -0.000592263 0)
(0.0155306 0.000187933 0)
(0.0135305 0.000691942 0)
(0.0107317 0.000838756 0)
(0.00786309 0.000741261 0)
(0.00538731 0.000561286 0)
(0.00342989 0.0003977 0)
(0.00194299 0.000275632 0)
(0.000760985 0.000221639 0)
(-0.000627262 0.0128284 0)
(-0.00313166 0.0126565 0)
(-0.00581459 0.0122062 0)
(-0.00858509 0.0114308 0)
(-0.0113114 0.0103011 0)
(-0.0138286 0.00884512 0)
(-0.0159791 0.0071317 0)
(-0.0176269 0.00526198 0)
(-0.0186588 0.00331876 0)
(-0.0189465 0.00137572 0)
(-0.0183824 -0.000498264 0)
(-0.0168388 -0.0022418 0)
(-0.0142453 -0.00369747 0)
(-0.0106912 -0.0047307 0)
(-0.00645231 -0.00521662 0)
(-0.00189317 -0.0052188 0)
(0.00261568 -0.0048479 0)
(0.00675319 -0.00422788 0)
(0.0103412 -0.00347001 0)
(0.0132621 -0.00263445 0)
(0.0153549 -0.00168833 0)
(0.0162664 -0.000622312 0)
(0.0156381 0.000376933 0)
(0.013577 0.00100842 0)
(0.0107323 0.00116972 0)
(0.00784459 0.00101646 0)
(0.00536845 0.000763189 0)
(0.00341604 0.000537975 0)
(0.00193475 0.000371225 0)
(0.000757097 0.000297848 0)
(-0.000713022 0.0162199 0)
(-0.00355298 0.0159793 0)
(-0.00658111 0.0153542 0)
(-0.00967438 0.0142746 0)
(-0.012643 0.0127191 0)
(-0.0152902 0.0107507 0)
(-0.017453 0.0085025 0)
(-0.0190251 0.006111 0)
(-0.0199336 0.00368066 0)
(-0.0200767 0.00127661 0)
(-0.0193466 -0.00102799 0)
(-0.0176146 -0.00315511 0)
(-0.0147909 -0.00493419 0)
(-0.0109776 -0.00614281 0)
(-0.00652368 -0.00664379 0)
(-0.0018207 -0.00653602 0)
(0.00276965 -0.00597008 0)
(0.00693807 -0.00513049 0)
(0.0105272 -0.00415479 0)
(0.0134453 -0.00311586 0)
(0.0155445 -0.00195755 0)
(0.016447 -0.000648404 0)
(0.0157669 0.000574611 0)
(0.0136297 0.00133296 0)
(0.0107283 0.00150467 0)
(0.00781821 0.00129246 0)
(0.00534296 0.000964595 0)
(0.00339762 0.00067766 0)
(0.00192379 0.000466277 0)
(0.000751992 0.00037415 0)
(-0.000831585 0.0201179 0)
(-0.00413358 0.0197899 0)
(-0.00763981 0.0189357 0)
(-0.0111701 0.0174492 0)
(-0.0144476 0.0153228 0)
(-0.0172171 0.0127028 0)
(-0.0193278 0.00982117 0)
(-0.0207552 0.00687154 0)
(-0.0214888 0.00393967 0)
(-0.0214371 0.00107966 0)
(-0.0205096 -0.00165089 0)
(-0.0185529 -0.00417887 0)
(-0.0154326 -0.00628494 0)
(-0.011297 -0.00764733 0)
(-0.00657283 -0.00813185 0)
(-0.00170088 -0.00787425 0)
(0.00297623 -0.00710687 0)
(0.00717416 -0.00603543 0)
(0.0107561 -0.00483758 0)
(0.0136656 -0.00359749 0)
(0.0157722 -0.00222765 0)
(0.0166649 -0.000669698 0)
(0.0159208 0.00078319 0)
(0.0136902 0.00166751 0)
(0.0107206 0.00184444 0)
(0.00778438 0.0015693 0)
(0.00531111 0.00116537 0)
(0.00337479 0.000816691 0)
(0.00191031 0.000560669 0)
(0.000745707 0.000450568 0)
(-0.000993238 0.0247079 0)
(-0.00491585 0.0242714 0)
(-0.00908499 0.0231226 0)
(-0.0132341 0.0210654 0)
(-0.0168909 0.0181293 0)
(-0.019719 0.0146413 0)
(-0.0216506 0.0110172 0)
(-0.0228255 0.00749216 0)
(-0.0233151 0.00407498 0)
(-0.0230255 0.000772935 0)
(-0.0218726 -0.0023685 0)
(-0.0196568 -0.00531635 0)
(-0.0161766 -0.00776915 0)