/*--------------------------------*- C++ -*----------------------------------*\
| =========                 |                                                 |
| \\      /  F ield         | OpenFOAM: The Open Source CFD Toolbox           |
|  \\    /   O peration     | Version:  2.4.0                                 |
|   \\  /    A nd           | Web:      www.OpenFOAM.org                      |
|    \\/     M anipulation  |                                                 |
\*---------------------------------------------------------------------------*/
FoamFile
{
    version     2.0;
    format      ascii;
    class       volScalarField;
    location    "0.156";
    object      p_rgh;
}
// * * * * * * * * * * * * * * * * * * * * * * * * * * * * * * * * * * * * * //

dimensions      [1 -1 -2 0 0 0 0];

internalField   nonuniform List<scalar> 
3600
(
100.184
98.4757
95.5067
92.3742
89.6082
87.4035
86.837
87.788
90.1599
92.1965
94.3249
95.3315
96.2946
96.9292
97.0346
97.3116
97.2213
97.3164
96.4987
95.4059
94.2973
94.2561
94.6704
95.3219
98.5902
99.2567
99.5872
99.9879
100.143
100.214
100.191
98.4788
95.5037
92.3706
89.5981
87.384
86.8125
87.7673
90.1564
92.2065
94.3401
95.3433
96.3103
96.9558
97.0491
97.3357
97.2645
97.1113
96.1755
95.0126
94.1045
93.8783
94.2559
95.0288
96.2379
97.159
97.9184
98.55
98.8916
99.0461
100.205
98.4872
95.5013
92.366
89.5806
87.3476
86.7631
87.7233
90.1471
92.2213
94.3633
95.362
96.3205
96.9778
97.0733
97.3793
97.3009
97.1056
96.268
95.0736
93.9161
93.0909
93.3913
94.3347
95.682
96.9318
97.7231
98.1986
98.5612
98.7355
100.227
98.5012
95.4993
92.3602
89.5554
87.2938
86.6886
87.6558
90.131
92.2405
94.394
95.3911
96.3226
97.0003
97.1155
97.4345
97.3553
97.2022
96.3886
95.0777
93.2664
92.1264
92.5269
93.1721
94.1378
95.8416
97.1093
97.5888
97.9782
98.1648
100.256
98.5211
95.4977
92.3532
89.5223
87.2223
86.5887
87.5642
90.1086
92.2646
94.4332
95.4372
96.3209
97.022
97.1725
97.4531
97.3338
97.2458
96.4333
95.0095
92.778
91.1604
91.5836
92.535
93.5585
95.0563
96.214
96.9614
97.3775
97.576
100.292
98.5467
95.4965
92.3452
89.4815
87.1329
86.4621
87.4476
90.0801
92.2929
94.4782
95.5032
96.3305
97.0538
97.226
97.4263
97.2077
97.1707
96.2999
94.8455
92.428
90.486
90.6619
91.9785
92.9213
94.379
95.923
96.5311
96.8763
97.1002
100.336
98.5782
95.4955
92.3364
89.433
87.0252
86.3081
87.3045
90.0462
92.3248
94.5262
95.5881
96.3951
97.1259
97.2539
97.3835
97.0318
97.0167
96.1631
94.6987
92.3595
90.6414
91.0712
92.1683
92.9013
94.279
95.9619
96.3676
96.6901
96.8711
100.388
98.6154
95.4948
92.3268
89.3769
86.899
86.1251
87.1335
90.0077
92.3608
94.5773
95.6793
96.522
97.2504
97.2452
97.3506
96.9166
96.8642
96.0954
94.8809
92.7054
91.076
91.3406
92.4777
93.3898
94.5214
96.3347
96.5956
96.7999
96.9121
100.447
98.6585
95.4941
92.3168
89.3132
86.7541
85.9117
86.9329
89.9658
92.4031
94.6387
95.7667
96.6376
97.3882
97.2823
97.3418
96.8958
96.7799
96.0899
95.0671
93.7352
92.5764
92.5924
93.0734
94.1367
95.0726
96.2426
96.6236
96.8911
96.9507
100.514
98.7074
95.4934
92.3068
89.2422
86.5901
85.6658
86.7004
89.922
92.4549
94.7184
95.8497
96.7313
97.5251
97.3649
97.3853
96.9078
96.7304
96.0991
95.3539
94.6544
93.8201
93.4463
93.6842
94.5863
95.4166
96.1761
96.6531
96.8655
96.9153
100.588
98.762
95.4925
92.297
89.164
86.4066
85.3852
86.4337
89.8769
92.5179
94.819
95.9454
96.8044
97.6768
97.5019
97.4982
96.9093
96.6915
96.1419
95.6227
95.1069
94.5491
94.103
94.1483
94.8655
95.5446
96.0635
96.4756
96.739
96.8246
100.671
98.8223
95.4914
92.2879
89.0789
86.2033
85.067
86.1295
89.8316
92.5914
94.937
96.0585
96.8751
97.8788
97.6955
97.6424
96.8855
96.695
96.1948
95.7506
95.3045
94.9289
94.478
94.4296
94.9459
95.4688
95.9193
96.2941
96.4904
96.5882
100.761
98.8883
95.4897
92.2799
88.987
85.9798
84.7079
85.7846
89.7873
92.6755
95.0705
96.1775
96.9508
98.1008
97.9149
97.7799
96.8367
96.6887
96.2366
95.8918
95.5607
95.2653
94.7801
94.6507
94.9644
95.3181
95.6553
96.1116
96.4276
96.3801
100.859
98.9599
95.4872
92.2737
88.8889
85.7358
84.304
85.3953
89.7454
92.7717
95.2239
96.2873
97.0539
98.4073
98.0892
97.8797
96.7463
96.6533
96.2717
96.0557
95.8555
95.5628
94.9752
94.7049
94.7913
94.9958
95.3882
95.7153
96.0108
95.862
100.964
99.037
95.4837
92.2698
88.7848
85.4709
83.8505
84.9576
89.7075
92.8804
95.4033
96.3808
97.1115
98.703
98.5393
98.0169
96.6494
96.6132
96.2758
96.128
96.0524
95.7135
95.1591
94.9358
94.9955
94.7529
95.0007
95.2152
95.3627
95.445
101.078
99.1194
95.4789
92.269
88.6753
85.185
83.3417
84.4666
89.6761
93.0014
95.6172
96.4493
97.1992
99.015
98.4129
98.0397
96.4744
96.5386
96.3325
96.141
96.0028
95.7321
95.272
95.0811
95.2648
95.2281
95.1357
94.9973
94.9613
95.3557
101.199
99.2072
95.4724
92.272
88.5609
84.8782
82.7709
83.9174
89.6509
93.1323
95.8702
96.4837
97.1981
99.3988
98.9098
98.0646
96.1754
96.3794
96.3173
96.1051
96.1581
95.8142
95.2041
94.8653
95.0536
94.9101
94.9328
94.9989
95.1779
95.6405
101.328
99.3002
95.4636
92.2798
88.4424
84.5504
82.1297
83.3037
89.6417
93.2787
96.1603
96.572
97.2131
99.7747
99.2125
98.1018
95.9761
96.2581
96.2535
96.1688
96.2405
96.0976
95.2719
94.8833
94.9836
94.7185
94.8231
95.0656
95.2038
95.4965
101.465
99.3982
95.4518
92.2934
88.3206
84.2018
81.4084
82.6268
89.6364
93.4228
96.5013
96.571
97.1239
100.131
99.4961
98.089
95.625
96.1678
96.2647
96.1178
96.4012
95.7516
94.9621
94.751
94.7791
94.497
94.7018
95.0247
94.9316
95.1269
101.609
99.5009
95.4361
92.3139
88.1966
83.8323
80.6003
81.8666
89.6663
93.596
96.8728
96.4542
96.8492
100.627
100.029
97.9495
95.1041
95.8765
96.174
95.9078
96.1446
95.1131
94.3754
94.1979
94.5149
94.6674
94.8595
95.0403
95.1284
95.2642
101.76
99.6098
95.4152
92.3424
88.0718
83.4443
79.6954
81.0558
89.7015
93.7075
97.4556
96.1262
96.6192
101.291
100.636
97.0104
94.1622
95.4238
96.0183
95.5592
95.5051
94.5798
94.1538
94.0506
94.6487
94.875
94.929
95.0163
95.1727
95.3228
101.92
99.7207
95.3907
92.38
87.9482
83.0477
78.7284
80.1732
89.7917
93.7825
97.5681
93.1068
96.199
101.753
101.025
96.3021
93.5191
94.6176
95.674
95.4705
95.3778
94.7409
94.4429
94.4519
94.6481
94.7996
94.8448
94.8199
94.979
95.0447
102.085
99.8337
95.3647
92.4278
87.83
82.6692
77.7535
79.4051
90.0097
94.0348
97.6841
95.623
96.152
102.158
101.283
96.5221
93.6492
94.2665
95.4604
94.7006
95.3603
94.9548
94.6332
94.9104
94.8156
94.7654
94.6816
94.6377
94.7399
94.795
102.262
99.9499
95.3364
92.4867
87.7263
82.3337
74.2572
59.5885
89.8168
93.6372
100.853
93.082
95.8584
102.561
101.256
97.1858
93.8778
93.9635
95.2561
95.7028
95.5416
94.9694
94.728
95.208
94.7554
94.6081
94.5014
94.4005
94.4597
94.5082
102.437
100.046
95.3049
92.5574
87.6414
81.1081
33.7225
48.7319
89.7705
93.2722
98.5579
94.581
96.5816
103.029
100.81
97.4787
91.8359
93.5227
95.8672
95.552
95.3981
95.2003
94.8054
94.9558
94.3948
94.2838
94.1847
94.0897
94.177
94.2116
102.628
100.192
95.2726
92.6416
87.5382
38.9687
9.36746
38.4968
80.9321
92.1507
100.23
95.0659
96.7173
103.678
100.989
97.4163
90.6102
93.2912
96.9954
95.2118
95.5484
95.1426
94.8892
94.5185
93.8403
93.7719
93.7979
93.8026
93.9325
93.9517
102.839
100.26
95.2554
92.7249
64.8892
3.50708
0.332419
25.0018
72.4214
90.4107
99.788
96.014
99.0032
104.422
102.355
97.8027
89.8881
94.6731
97.0009
95.8288
95.1548
94.3483
93.6633
93.9048
93.3244
93.1819
93.3559
93.4307
93.5579
93.6483
103.022
100.378
95.2486
88.1693
8.14698
0.10272
0.128273
9.54373
51.8773
81.2983
99.5337
95.3395
100.391
105.187
103.867
98.6723
91.3746
95.1452
98.4469
95.9933
95.0031
93.3083
92.9196
93.6036
92.8572
92.8027
92.8224
92.9447
93.1189
93.303
103.276
100.347
93.8667
29.4933
0.214425
0.0857166
0.0266415
0.100743
18.3346
63.1119
99.2606
92.3701
101.336
105.918
104.808
99.2178
94.0434
98.1768
98.7826
96.0741
95.4351
86.9537
81.8769
80.3225
78.8713
77.8404
75.5198
76.4741
76.217
78.5249
103.429
99.983
38.4894
0.0543939
0.0290244
0.0697034
-0.00744184
-0.0819594
0.119847
15.6875
72.3955
78.3673
101.155
106.48
105.293
98.5345
92.5186
96.9517
86.5141
52.543
41.0939
22.5855
19.0955
14.3611
9.12247
8.12105
7.44356
7.58133
6.76854
7.05544
100.271
100.323
100.185
99.8792
99.7439
98.3563
95.6246
94.9161
94.4263
94.4276
95.4608
96.5844
97.3606
97.2703
97.2617
96.8945
96.6676
95.9846
94.8676
93.9725
91.8966
90.2064
87.9885
87.0137
87.4739
89.6779
92.3852
95.529
98.4644
100.179
99.048
98.9597
98.6356
98.0651
97.4967
96.5706
95.3182
94.4485
94.0305
94.2144
95.0938
96.2342
97.182
97.308
97.2856
96.9105
96.6914
96.0007
94.8817
93.9778
91.9018
90.2029
87.9733
86.9902
87.4542
89.6676
92.3813
95.526
98.4674
100.186
98.725
98.5604
98.2996
97.9334
97.1378
95.987
94.5839
93.599
93.2314
93.9664
95.1551
96.3421
97.1892
97.3503
97.3301
96.9336
96.7062
96.0068
94.8964
93.9885
91.907
90.1944
87.9412
86.9427
87.4175
89.6498
92.376
95.5235
98.4756
100.2
98.1594
97.9943
97.7001
97.2799
96.1045
94.4568
93.5831
92.9137
92.3382
93.2937
95.1409
96.4718
97.2944
97.4128
97.3946
96.9695
96.7133
96.0012
94.9152
94.0042
91.9121
90.1799
87.8922
86.8709
87.3631
89.624
92.3693
95.5215
98.4894
100.221
97.6005
97.4493
97.133
96.5092
95.3399
93.8664
93.0037
92.0328
91.3724
92.8021
95.0681
96.5265
97.3565
97.4109
97.4243
97.0196
96.7103
95.9896
94.9468
94.0264
91.9177
90.16
87.8263
86.7798
87.2907
89.5903
92.3611
95.5199
98.5089
100.25
97.1602
96.9848
96.7442
96.2443
94.7202
93.3038
92.4707
91.2655
90.7973
92.512
94.9308
96.4147
97.3105
97.3115
97.4142
97.0694
96.7054
95.9829
94.9956
94.0531
91.9225
90.1349
87.743
86.6576
87.1999
89.5486
92.3516
95.5186
98.5342
100.286
96.893
96.8001
96.6054
96.2561
94.6537
93.4081
92.6862
91.647
91.0312
92.554
94.843
96.3107
97.2007
97.1723
97.3873
97.0976
96.73
96.034
95.0608
94.0804
91.9254
90.1051
87.6421
86.5087
87.0904
89.4989
92.3409
95.5176
98.5651
100.33
96.9312
96.8699
96.7809
96.5161
94.8985
93.8659
93.0076
91.9778
91.6384
93.0176
95.0983
96.3088
97.0962
97.0897
97.3701
97.0844
96.8014
96.1554
95.1316
94.1072
91.926
90.0713
87.5231
86.3316
86.9617
89.4413
92.3292
95.5169
98.6018
100.381
96.972
96.9798
96.7029
96.2502
95.363
94.5202
93.5745
93.2116
93.185
94.2104
95.4342
96.3765
97.0673
97.1042
97.3736
97.117
96.8846
96.2743
95.1988
94.1379
91.9258
90.0346
87.3857
86.1248
86.8135
89.3757
92.3168
95.5162
98.6443
100.441
96.9315
96.9355
96.7139
96.2375
95.5943
94.9032
94.1139
93.9315
94.309
95.1537
95.7659
96.4635
97.0793
97.1655
97.4357
97.193
96.9615
96.3719
95.2638
94.1792
91.9273
89.9962
87.2296
85.8863
86.6452
89.3024
92.304
95.5155
98.6924
100.507
96.8158
96.77
96.4543
96.0445
95.6391
95.1435
94.5253
94.5495
95.0569
95.6671
96.0878
96.562
97.1023
97.2339
97.565
97.3304
97.0403
96.4458
95.3357
94.234
91.9315
89.9571
87.054
85.6139
86.4561
89.2214
92.2911
95.5147
98.7463
100.582
96.6427
96.5415
96.2962
95.9289
95.5702
95.2073
94.8197
94.9383
95.4339
95.8704
96.242
96.6668
97.1614
97.3031
97.7313
97.5157
97.157
96.5033
95.4189
94.2983
91.9356
89.9185
86.8583
85.3048
86.2455
89.1328
92.2786
95.5137
98.8058
100.664
96.3512
96.2959
95.9331
95.402
95.335
95.2311
95.0499
95.2706
95.7584
96.1501
96.4271
96.7642
97.2313
97.3671
97.9079
97.719
97.2734
96.5542
95.5099
94.3692
91.9375
89.882
86.6421
84.9559
86.0125
89.0368
92.2669
95.5122
98.8708
100.754
95.6784
95.5843
95.3592
95.2871
95.303
95.2868
95.2333
95.5277
96.0212
96.4926
96.6692
96.8675
97.2741
97.4197
98.0782
97.9533
97.4531
96.6101
95.6037
94.4487
91.9362
89.8493
86.405
84.5636
85.7562
88.9337
92.2566
95.5101
98.9414
100.852
95.21
95.0091
95.1388
95.3734
95.4051
95.4885
95.4316
95.7421
96.1359
96.6731
96.7881
96.9023
97.318
97.4744
98.3153
98.2714
97.5862
96.6184
95.7155
94.5387
91.9309
89.8225
86.1468
84.1237
85.4754
88.8237
92.2482
95.5071
99.0174
100.958
95.2529
95.0281
95.1193
95.1745
95.3178
95.4936
95.5626
95.909
96.1733
96.7204
96.8188
96.9731
97.3369
97.5175
98.4599
98.3564
97.7494
96.7421
95.8216
94.6469
91.9201
89.8039
85.8675
83.6313
85.1688
88.7074
92.2425
95.503
99.0988
101.071
95.6947
95.3825
95.1058
94.8374
94.8957
95.3178
95.5606
95.9998
96.3055
96.7708
96.8775
97.0308
97.3337
97.4716
98.8251
98.7945
97.9584
96.7316
95.9665
94.7728
91.896
89.7971
85.5676
83.0807
84.8351
88.585
92.2403
95.4975
99.1853
101.192
95.5306
95.2421
94.9383
94.4302
94.554
95.1409
95.6874
96.1315
96.2294
96.6738
96.8976
96.9592
97.2913
97.5663
98.9383
99.005
98.2336
96.7204
96.0763
94.917
91.866
89.8071
85.2479
82.4654
84.4726
88.4573
92.2425
95.4899
99.2769
101.321
95.1862
94.9681
94.8315
94.456
94.465
94.914
95.2437
95.8895
96.3768
96.7027
96.8929
96.9644
97.3441
97.623
99.2211
99.3327
98.459
96.6969
96.2583
95.082
91.7838
89.8279
84.9121
81.7774
84.0794
88.3249
92.25
95.4799
99.3734
101.458
95.3198
95.2359
95.0972
95.011
94.9186
94.9134
95.0037
95.352
96.1997
96.8014
96.8459
96.907
97.2537
97.5479
99.5274
99.9029
98.7481
96.4894
96.323
95.2747
91.749
89.9049
84.5592
81.0091
83.6533
88.1889
92.2641
95.4666
99.4745
101.602
95.3513
95.2801
95.1613
95.2297
95.2031
95.0274
95.0533
95.0152
96.0257
96.6685
96.2974
96.9081
97.1621
97.6382
99.8431
100.356
99.0095
96.2881
96.5992
95.5332
91.578
89.895
84.2011
80.1519
83.1929
88.0504
92.2859
95.4486
99.5813
101.753
95.1051
95.0708
95.0306
95.1585
95.183
95.1826
95.0923
95.0313
96.6249
96.383
97.2165
97.6209
97.0496
97.8352
100.204
100.797
99.576
96.2431
96.7362
95.657
91.4862
90.197
83.8637
79.1953
82.7042
87.9116
92.3169
95.4248
99.6925
101.913
94.8404
94.8337
94.8604
94.9353
95.1751
95.3492
94.977
95.1576
95.8968
96.3407
97.1097
97.4141
96.8588
97.5849
100.204
101.044
99.1307
95.8331
96.3871
96.1226
91.3874
90.1702
83.5516
78.1978
82.2165
87.7778
92.3584
95.3998
99.8056
102.078
94.5665
94.5795
94.6683
94.7356
95.1075
95.4616
94.9692
95.4144
96.3218
96.8521
97.2122
97.4276
96.399
97.145
99.9332
100.618
98.249
96.9443
96.8398
95.8284
92.4426
89.2646
79.843
76.3021
81.7606
87.6629
92.4113
95.3728
99.9216
102.255
94.2907
94.2784
94.4267
94.4334
94.955
95.206
95.0001
95.2955
96.4912
96.4064
96.1724
97.912
95.6609
96.3692
99.8794
100.934
97.7483
96.74
96.9083
96.1288
92.8564
90.8628
63.5155
38.5597
79.6413
87.5774
92.4757
95.343
100.017
102.43
94.0445
94.0438
94.1047
94.1247
94.5145
94.7733
94.5172
94.2076
95.769
95.9645
96.5371
96.8272
95.2743
95.1157
101.919
102.922
98.9406
96.9856
97.9618
96.4171
92.9902
93.9134
51.0342
9.93473
35.2363
87.4671
92.5504
95.3127
100.163
102.621
93.7568
93.7893
93.8066
93.8142
93.7781
94.0875
93.8111
93.0257
94.8466
95.6694
96.5086
97.5422
94.0749
94.0905
101.332
104.547
100.371
96.5954
98.1744
96.6316
89.952
86.9163
47.538
5.43589
4.38328
62.4077
92.624
95.2986
100.231
102.832
93.4419
93.4858
93.4111
93.4049
93.235
93.4338
93.9188
93.679
94.0271
95.6591
97.7381
97.2847
93.7402
93.7443
102.177
104.805
101.453
95.7508
97.8202
97.0668
83.3923
64.4355
25.4003
1.92145
0.0769405
8.07376
87.51
95.2947
100.348
103.014
78.4239
80.5533
79.1889
81.9138
81.6102
89.2757
88.0253
91.0669
91.2257
95.9639
98.2118
99.4245
94.8661
96.3983
102.546
105.065
102.002
95.6276
97.7172
92.6886
54.4376
18.1986
1.08119
0.0263036
0.0566743
0.0851873
27.677
93.8828
100.318
103.269
6.50519
8.22703
8.84321
12.8326
13.3447
17.7111
19.3769
33.7518
31.9454
58.9544
81.7988
96.951
92.0718
93.8837
102.702
105.297
102.396
79.0578
81.4421
49.7915
7.04963
-0.00981643
-0.00549934
0.0145348
0.0479787
-0.00820496
0.0425713
38.6544
99.983
103.423
103.623
96.8199
0.748774
0.0665288
0.0267923
0.0589705
-0.00766834
-0.0710297
-0.016295
0.0189602
17.097
36.3073
92.6963
106.727
105.084
75.2324
27.6916
19.3171
4.66546
0.0677257
0.0245903
0.0262933
0.0264095
0.0401433
0.0399419
0.029745
0.0287845
0.0279069
0.0282146
0.0296919
102.711
30.9924
0.995347
0.0677788
0.026579
0.0525345
-0.00687435
-0.0655663
-0.0185357
-0.033338
-0.00407783
4.02634
53.1729
98.2155
80.412
25.518
0.908716
0.0776805
0.0679417
0.0674503
0.0331099
0.0294457
0.0278366
0.0322687
0.0345959
0.0300484
0.0295425
0.0290686
0.0292459
0.0298525
90.1069
0.311277
0.0802635
0.0670142
0.0265363
0.0467642
-0.00579846
-0.0622941
-0.0196595
-0.0344256
-0.0164225
-0.0259291
6.62167
37.2396
18.4306
0.00318675
0.0612408
0.0629653
0.046595
0.0388431
0.0310431
0.0291789
0.0277487
0.0311766
0.0329572
0.0297892
0.029338
0.0290981
0.0292996
0.0297168
16.7891
0.529367
0.0786058
0.0656038
0.0264961
0.041899
-0.00463506
-0.0601544
-0.0211197
-0.0337569
-0.0161819
-0.02654
-0.02965
0.184993
-0.0117126
0.00944278
0.0519178
0.0423689
0.0388895
0.0433899
0.0300303
0.0290123
0.0276862
0.0308714
0.0316394
0.0293388
0.0290473
0.029015
0.0292129
0.0295504
-0.0246463
-0.0252428
0.0736309
0.0633486
0.0264832
0.0382848
-0.00338759
-0.05824
-0.0229336
-0.0324659
-0.0162314
-0.0273453
-0.0287203
-0.0262159
-0.011665
0.00636763
0.0574028
0.0418046
0.0387846
0.0431411
0.0363811
0.0291494
0.0288935
0.0284476
0.0294934
0.0286409
0.0285516
0.0286979
0.0290377
0.029349
-0.0162601
-0.0233723
0.0700778
0.0608318
0.026511
0.0359725
-0.00219968
-0.0558702
-0.0248499
-0.0309269
-0.0170073
-0.0263101
-0.0289916
-0.0255292
-0.0111977
-0.00230378
0.008693
0.0307004
0.0385401
0.0431981
0.0460248
0.0294715
0.0352953
0.0263275
0.0277259
0.0276063
0.0278059
0.0282328
0.0286655
0.0290343
-0.0165837
-0.0219941
0.0660957
0.0582281
0.026533
0.0345167
-0.00155049
-0.0528259
-0.0268207
-0.0292557
-0.0163194
-0.0263096
-0.0282557
-0.0273267
-0.0153933
-0.00430561
0.00537654
0.0195537
0.0379616
0.0431006
0.0475383
0.0351129
0.0390581
0.028425
0.0260686
0.0264473
0.026884
0.0276565
0.0285087
0.0285829
-0.0157244
-0.0195488
0.062348
0.0555926
0.0265053
0.0331679
-0.00202661
-0.0496307
-0.0290897
-0.0274328
-0.0167729
-0.0263108
-0.0288019
-0.0277473
-0.0159457
-0.00479359
0.00517719
0.0178246
0.0288662
0.0430651
0.0468438
0.0564057
0.0282491
0.0237829
0.0247224
0.025254
0.0262422
0.0280222
0.0283909
0.0280736
-0.0136987
-0.0171025
0.0590379
0.0529292
0.0263938
0.031446
-0.00369527
-0.0470956
-0.0318787
-0.0254928
-0.0174128
-0.0259583
-0.0304307
-0.0294864
-0.0169186
-0.00552736
0.00464687
0.0164715
0.0289586
0.0339395
0.0255764
0.0251758
0.023623
0.022894
0.0236368
0.0247236
0.0259324
0.0269671
0.0268386
0.0273486
-0.012274
-0.0147208
0.0556477
0.0502419
0.0261823
0.0293003
-0.0053634
-0.04532
-0.0344889
-0.02349
-0.0172067
-0.026087
-0.0299115
-0.0291617
-0.0186126
-0.00652233
0.00393641
0.019069
0.0184773
0.021712
0.0244369
0.0235333
0.0224902
0.0228131
0.0233517
0.0241483
0.0250764
0.0253779
0.0260178
0.026432
-0.0136014
-0.0124313
0.0522242
0.0475367
0.0258623
0.0269976
-0.00531703
-0.0435353
-0.0350332
-0.0213778
-0.0160538
-0.0259415
-0.0309242
-0.0309289
-0.0186988
-0.00769662
0.00319531
0.0132966
0.0173612
0.0218621
0.0244327
0.0247412
0.0235685
0.0229891
0.0236271
0.0239131
0.0240453
0.0245897
0.0250314
0.0253145
-0.0124494
-0.0102101
0.0487961
0.0448203
0.0254232
0.0247333
-0.0039494
-0.0416313
-0.0321924
-0.0189302
-0.0139815
-0.0250044
-0.0318523
-0.0331216
-0.0196953
-0.00897821
0.00246497
0.0130527
0.0183247
0.0225345
0.0261479
0.0280971
0.0241327
0.0238191
0.0241893
0.0236907
0.0234994
0.0237077
0.0238759
0.023979
-0.0112959
-0.00884159
0.0453731
0.0420963
0.024853
0.0225558
-0.0024179
-0.0406054
-0.0273811
-0.016285
-0.0107988
-0.0236212
-0.0347823
-0.0373258
-0.0226221
-0.00913334
0.00178559
0.0130454
0.019668
0.024093
0.0291607
0.0317626
0.0265656
0.0250721
0.0243057
0.0235337
0.0228257
0.0226549
0.022569
0.0225343
-0.0101365
-0.00740353
0.0419613
0.0393684
0.0241427
0.0204861
-0.00139252
-0.0401246
-0.0229826
-0.0137607
-0.00636443
-0.0219988
-0.0355952
-0.0388062
-0.0264583
-0.00683685
0.0173449
0.0178044
0.0215666
0.0263177
0.0305709
0.0337335
0.0286496
0.0258674
0.0245832
0.0230922
0.0220385
0.0214637
0.021159
0.0210093
-0.008982
-0.00546721
0.0385302
0.0366325
0.0232888
0.0185455
-0.00076572
-0.0383331
-0.0189874
-0.0111035
-0.00233032
-0.0203371
-0.0349447
-0.0380744
-0.0266456
-0.0122733
0.0714795
0.0750174
0.0276224
0.0289679
0.0297051
0.034798
0.0282212
0.0263293
0.024274
0.0222793
0.0208732
0.020193
0.0197774
0.0195505
-0.0078494
-0.00365301
0.0351316
0.0338913
0.0222923
0.0167572
-0.000240128
-0.0330871
-0.0156078
-0.0091773
-0.00119697
-0.0194174
-0.0340679
-0.0355568
-0.0239262
-0.0103085
0.0294634
0.109995
0.0933357
0.0317048
0.0311423
0.0328875
0.0281117
0.0262333
0.0249434
0.0231776
0.020701
0.0194534
0.0189014
0.018601
-0.00675646
-0.00201392
0.0318092
0.0311612
0.0211574
0.0151255
0.000287006
-0.0268517
-0.011861
-0.0106561
-0.00509195
-0.0164862
-0.0330211
-0.0317577
-0.0192314
-0.0068681
0.00528092
0.11265
0.114526
0.0526563
0.0306754
0.0302893
0.0306271
0.0243681
0.0223825
0.021598
0.0216952
0.0212869
0.0216582
0.0223459
-0.00571955
-0.000580251
0.0285882
0.0284609
0.0198916
0.0136435
0.000810012
-0.0208703
-0.00780917
-0.0158759
-0.00944945
-0.0107484
-0.0338944
-0.027164
-0.013165
-0.000350376
0.00844157
0.0739581
0.116748
0.0834233
0.0274977
0.0263794
0.0231483
0.0512095
0.0314511
0.0220662
0.0214787
0.0214398
0.021762
0.0229197
-0.00475163
0.00063199
0.0254922
0.0258017
0.0185062
0.0122956
0.0012964
-0.015717
-0.00429652
-0.0168037
-0.0103861
-0.0162161
-0.039811
-0.022638
-0.00606048
0.00519579
0.00938867
0.0453649
0.121432
0.122493
0.0329978
0.0268883
0.0249003
0.0700808
0.0682662
0.060481
0.043232
0.025756
0.025333
0.0245876
-0.00386386
0.00161643
0.0225462
0.0231873
0.017018
0.0110624
0.00168969
-0.0117363
-0.00198187
-0.0128089
-0.00821721
-0.0249907
-0.0461215
-0.0186356
-0.000393274
0.00851995
0.0100227
0.0242748
0.128808
0.119871
0.0317259
0.0239684
0.0220018
0.0501686
0.0676617
0.0662944
0.0647924
0.0654476
0.0658924
0.0453255
-0.00306611
0.00237337
0.0197616
0.0206265
0.0154497
0.0099183
0.00194734
-0.00897429
-0.00113606
-0.0099872
-0.00739547
-0.0302449
-0.0444958
-0.0155114
0.00240994
0.00895778
0.010561
0.026272
0.0984135
0.0545911
0.0171674
0.0169761
0.0173333
0.0168965
0.0224385
0.0413378
0.0326526
0.029465
0.0819348
0.0732209
-0.00236582
0.00290708
0.017138
0.0181335
0.0138271
0.0088345
0.00206895
-0.00686846
-0.000874573
-0.00913045
-0.00756763
-0.0324905
-0.0383156
-0.0113928
0.00251293
0.00843611
0.0107926
0.0131911
0.0134388
0.0126756
0.0139927
0.0153699
0.0159255
0.0158805
0.0155651
0.0155559
0.0163834
0.0168157
0.0166515
0.0251532
-0.00176695
0.00322414
0.014671
0.0157201
0.0121742
0.00778783
0.00206929
-0.00514482
-0.00079381
-0.00840948
-0.00676114
-0.0317875
-0.0304525
-0.00969754
0.000552254
0.00762824
0.00942426
0.0101043
0.0112896
0.0125633
0.0137814
0.0148507
0.0155692
0.0160642
0.0164203
0.0167022
0.0171425
0.017594
0.017907
0.0183969
-0.00126982
0.00333334
0.0123542
0.0133935
0.0105112
0.00676321
0.00196973
-0.00372272
-0.000687184
-0.00777419
-0.00510389
-0.0268533
-0.0212266
-0.00718821
-0.000399658
0.00654487
0.00815028
0.00964953
0.0110738
0.0123522
0.013504
0.0144964
0.0152859
0.0159293
0.0164893
0.0170193
0.0175826
0.018132
0.0186346
0.0191033
-0.000871558
0.0032462
0.0101775
0.0111557
0.00885433
0.00575019
0.00179346
-0.00253502
-0.000648712
-0.00652868
-0.00375817
-0.0161456
-0.0122132
-0.00422579
0.000324047
0.00558556
0.00745987
0.00921945
0.0107652
0.0121158
0.0133005
0.0143097
0.0151933
0.0161014
0.0164472
0.0166189
0.0168093
0.0168643
0.0167925
0.0166417
-0.000566567
0.0029766
0.00812608
0.0090027
0.00721381
0.00474046
0.00156861
-0.00156648
-0.000567775
-0.00473405
-0.00254487
-0.00713247
-0.00419724
-0.000275876
0.00199297
0.0050447
0.00705257
0.00881907
0.0104221
0.0119023
0.013298
0.0146392
0.0160479
0.0175088
0.0186717
0.0195383
0.020369
0.020815
0.0209204
0.0232399
-0.000346901
0.00253921
0.00617927
0.00692307
0.00559212
0.00372527
0.00131233
-0.000840831
-0.000437072
-0.00311308
-0.00144168
-0.00259891
-0.000191506
0.00124368
0.00295988
0.00477233
0.00652385
0.00817898
0.00975918
0.0112969
0.012818
0.0143676
0.0160013
0.017854
0.0194637
0.0209666
0.0222694
0.0232351
0.0240436
0.0245555
-0.000202816
0.00194529
0.00431278
0.00489552
0.00398125
0.00269282
0.00101553
-0.000357008
-0.000281936
-0.00186301
-0.000660059
-0.000916198
0.000948315
0.00139755
0.00292058
0.00408485
0.00551801
0.00692207
0.00830576
0.00965665
0.010987
0.0123431
0.0137811
0.0153437
0.0166517
0.0176695
0.0186564
0.019527
0.0198632
0.0199906
-0.000123059
0.001202
0.00249661
0.00288364
0.00235863
0.00162587
0.000658238
-8.59392e-05
-0.000140337
-0.000941144
-0.000212046
-0.000277736
0.000923817
0.00102161
0.00221594
0.00284458
0.00383619
0.00482493
0.00583798
0.00687601
0.00781212
0.00865771
0.00948115
0.0102345
0.0108299
0.0111629
0.0113046
0.011376
0.0111347
0.01069
-9.3887e-05
0.000334543
0.000656755
0.000825966
0.000679616
0.000496991
0.000226234
2.71371e-05
-1.27141e-05
-0.000230983
2.55684e-06
-7.87794e-06
0.000355071
0.00036423
0.000723285
0.000910803
0.00119172
0.0014731
0.00169894
0.00179327
0.00181397
0.00168636
0.00136045
0.000812616
7.41019e-05
-0.000700924
-0.00133395
-0.00158808
-0.00158877
-0.00166432
0.0318006
0.0294407
0.0296085
0.0275478
0.0300585
0.0342157
0.0390513
0.034627
0.0301343
0.0219249
0.0160359
15.7096
16.2
38.7138
91.3762
105.592
87.4773
23.2226
23.5674
4.22614
-0.0425363
-0.0278321
-0.00834182
0.0102744
0.0412463
-0.00969377
0.0567044
0.726269
96.5741
103.617
0.0305682
0.0299689
0.0296727
0.0291552
0.0301554
0.0309715
0.033525
0.0309245
0.031109
0.02856
0.0234374
0.0105692
-0.00834644
-0.0194634
25.0227
68.0208
26.0125
0.116881
-0.0018705
-0.0014376
-0.0408143
-0.0292339
-0.00875492
0.00823033
0.0370847
-0.009119
0.0580238
0.954733
30.3416
102.669
0.0300784
0.0298508
0.0296348
0.0294111
0.0301234
0.0308892
0.0331996
0.0311912
0.0289703
0.0261918
0.0208848
0.0127752
-0.00616199
-0.0230007
-0.0245518
4.78469
-0.00852182
-0.00482435
-0.00338007
-0.00093239
-0.040081
-0.0291675
-0.0094502
0.00653578
0.0332142
-0.00784923
0.057386
0.0780646
0.299374
89.9931
0.0297853
0.0296915
0.0295644
0.0294306
0.0303373
0.0319157
0.0328493
0.0311349
0.0293061
0.0272044
0.021733
0.0116878
-0.00694783
-0.0235566
-0.0254338
-0.0151607
-0.003401
-0.00506172
-0.00305573
-0.00145883
-0.0391882
-0.0290046
-0.0108705
0.00495167
0.0295787
-0.00627198
0.0560602
0.0762594
0.529097
16.5387
0.0295445
0.0295369
0.0294733
0.0295155
0.0323255
0.0335938
0.0349626
0.0343211
0.0277214
0.0229285
0.0169849
0.00671447
-0.00977799
-0.0237086
-0.0264135
-0.0151262
-0.00464014
-0.0051868
-0.00263599
-0.00122813
-0.03767
-0.0287381
-0.0127955
0.0033014
0.0262827
-0.00464142
0.0538747
0.0713787
-0.034191
-0.0234321
0.0292653
0.0293329
0.02932
0.0295781
0.0325076
0.0323662
0.0311846
0.0293731
0.0269772
0.0226942
0.0160887
0.00526838
-0.0115612
-0.0249582
-0.0282045
-0.0153432
-0.00386316
-0.0050005
-0.00196682
-0.000935927
-0.0354755
-0.0280429
-0.0143823
0.00165588
0.0237669
-0.00301639
0.0513258
0.0683969
-0.0323476
-0.0151385
0.0288915
0.0290281
0.0291025
0.0292458
0.0289672
0.0295254
0.0295522
0.0288805
0.0265193
0.0222897
0.0152434
0.00383642
-0.0135781
-0.0269167
-0.0299029
-0.0162259
-0.00389353
-0.00437349
-0.000940206
-0.000562161
-0.0324382
-0.0266346
-0.01457
0.000218598
0.022353
-0.00138804
0.0486764
0.0651233
-0.0307502
-0.0154617
0.0283822
0.0285568
0.0286152
0.0285838
0.0285446
0.0287224
0.0286433
0.0279442
0.0258629
0.0215292
0.0139016
0.00204592
-0.015725
-0.0293644
-0.031919
-0.0172363
-0.00347146
-0.00371504
0.000307392
6.89093e-05
-0.0284931
-0.0244376
-0.0128859
-0.00114826
0.0218585
0.000235474
0.0460477
0.0611236
-0.0281313
-0.0146154
0.0276682
0.0278487
0.0279161
0.0278541
0.0277489
0.0277249
0.0275529
0.0268736
0.0246793
0.0205019
0.0128792
0.000654652
-0.0176552
-0.0317434
-0.0339937
-0.0183661
-0.0040492
-0.00305524
0.00163579
0.00107703
-0.0238619
-0.0217586
-0.0101715
-0.0029065
0.0216246
0.00182949
0.0434446
0.0578971
-0.0255033
-0.012777
0.0269624
0.0270982
0.0270919
0.0269674
0.0267961
0.0265822
0.02625
0.0252856
0.0233366
0.0193392
0.0118421
-0.000560474
-0.0188759
-0.0333659
-0.0356797
-0.0196033
-0.00375025
-0.00166095
0.00273986
0.00254068
-0.0194661
-0.0192003
-0.00781913
-0.00510035
0.0211538
0.00335875
0.0408547
0.0546145
-0.0228954
-0.0112001
0.0257871
0.02556
0.0255089
0.0253898
0.0251973
0.0249799
0.024554
0.0236379
0.0217731
0.0179884
0.0108619
-0.00129196
-0.019059
-0.033698
-0.0359142
-0.0203895
-0.00564806
-0.00369686
0.00352418
0.00432563
-0.0166594
-0.0168785
-0.00623823
-0.00653563
0.0203387
0.00480282
0.0382689
0.0512787
-0.020351
-0.0128377
0.0240427
0.0240733
0.0240419
0.0239258
0.0237145
0.0233783
0.0228538
0.0218602
0.0200328
0.0165512
0.010072
-0.00124431
-0.0177774
-0.0319793
-0.0332884
-0.0194818
-0.00811271
-0.00766621
0.000263724
0.00563104
-0.0163136
-0.0144799
-0.00488885
-0.0063894
0.019368
0.00614697
0.0356885
0.0479801
-0.0178359
-0.011784
0.0225242
0.0225174
0.0224843
0.0223904
0.0221928
0.0218269
0.021209
0.02021
0.0183993
0.0152866
0.00966172
-0.000179995
-0.0146882
-0.0277261
-0.0284966
-0.0181976
-0.010843
-0.00982606
-0.00527117
0.00562965
-0.0184282
-0.0127197
-0.00371863
-0.00544878
0.0183511
0.00737096
0.033122
0.0446269
-0.0161833
-0.0106305
0.0209509
0.0209439
0.0209534
0.0209222
0.0207805
0.0204356
0.0198666
0.0187503
0.0169958
0.0143497
0.00982505
0.0019699
-0.00973818
-0.0206728
-0.0231793
-0.0169458
-0.0144503
-0.0114216
-0.0091191
0.00495709
-0.0207463
-0.0127441
-0.00283224
-0.00449891
0.0173023
0.00845006
0.0305969
0.0411824
-0.0144121
-0.00947933
0.019471
0.0194946
0.0195793
0.0196518
0.0196177
0.0193577
0.0187891
0.0177814
0.0161551
0.0139484
0.0106607
0.00497985
-0.00341354
-0.0113116
-0.0141647
-0.0134958
-0.0164236
-0.0131017
-0.00942842
0.00552482
-0.0204433
-0.0133878
-0.00207511
-0.00368072
0.0162254
0.00935711
0.0281388
0.0378096
-0.0121192
-0.00833887
0.0185336
0.0184945
0.0185276
0.0187352
0.018822
0.018683
0.0181958
0.0172826
0.015962
0.0141852
0.0119121
0.00837403
0.00315882
-0.00145396
-0.00414505
-0.00866204
-0.0176038
-0.0158011
-0.00652444
0.00759511
-0.0157187
-0.0123939
-0.00118826
-0.00285063
0.0151273
0.0100677
0.0257614
0.0344557
-0.00993689
-0.0072253
0.022217
0.0203757
0.0183835
0.0185174
0.0185374
0.0184349
0.018065
0.0173104
0.016166
0.0148321
0.0133
0.0113218
0.0085694
0.00627178
0.00403231
-0.00392611
-0.0174244
-0.017298
-0.00203891
0.00998358
-0.00894837
-0.00960643
-0.000201269
-0.00197344
0.0140144
0.0105641
0.0234655
0.0311727
-0.00791158
-0.00615528
0.02281
0.0226743
0.0226664
0.0201898
0.0187574
0.0186284
0.0182887
0.0176519
0.0167
0.0155321
0.0143563
0.0132354
0.0120597