/*--------------------------------*- C++ -*----------------------------------*\
| =========                 |                                                 |
| \\      /  F ield         | OpenFOAM: The Open Source CFD Toolbox           |
|  \\    /   O peration     | Version:  2.4.0                                 |
|   \\  /    A nd           | Web:      www.OpenFOAM.org                      |
|    \\/     M anipulation  |                                                 |
\*---------------------------------------------------------------------------*/
FoamFile
{
    version     2.0;
    format      ascii;
    class       volScalarField;
    location    "0.446";
    object      p;
}
// * * * * * * * * * * * * * * * * * * * * * * * * * * * * * * * * * * * * * //

dimensions      [1 -1 -2 0 0 0 0];

internalField   nonuniform List<scalar> 
10000
(
0.000542657
0.000542487
0.000542268
0.000542078
0.000541968
0.000541971
0.000542103
0.000542371
0.000542777
0.000543319
0.000543994
0.000544797
0.000545721
0.000546759
0.000547904
0.000549148
0.000550483
0.000551901
0.000553396
0.000554964
0.000556605
0.000558322
0.000560124
0.000562025
0.000564043
0.000566206
0.000568544
0.000571097
0.000573906
0.000577017
0.000580475
0.000584315
0.000588554
0.000593185
0.000598168
0.000603436
0.000608902
0.000614491
0.000620151
0.000625862
0.000631629
0.000637471
0.000643409
0.000649459
0.000655631
0.000661921
0.000668324
0.000674824
0.000681405
0.000688049
0.000542829
0.000542659
0.000542478
0.000542341
0.000542283
0.000542327
0.000542488
0.000542774
0.000543188
0.00054373
0.000544399
0.000545191
0.000546103
0.00054713
0.000548265
0.000549503
0.000550837
0.000552264
0.000553778
0.000555376
0.000557061
0.000558836
0.00056071
0.000562696
0.000564812
0.000567081
0.000569532
0.000572197
0.000575112
0.000578313
0.000581835
0.000585704
0.000589933
0.000594512
0.00059941
0.000604568
0.000609918
0.000615397
0.000620961
0.000626592
0.000632293
0.000638075
0.000643953
0.000649937
0.000656034
0.000662243
0.000668555
0.000674961
0.000681445
0.000687992
0.000543048
0.000542842
0.000542663
0.000542556
0.000542533
0.000542608
0.000542792
0.000543092
0.000543513
0.000544056
0.00054472
0.000545505
0.000546408
0.000547426
0.000548555
0.000549791
0.00055113
0.000552567
0.000554101
0.000555731
0.000557457
0.000559285
0.000561223
0.000563284
0.000565483
0.000567842
0.000570386
0.000573141
0.000576138
0.000579408
0.000582979
0.000586873
0.000591099
0.00059565
0.000600498
0.000605593
0.000610867
0.000616262
0.000621742
0.000627293
0.000632918
0.000638628
0.000644435
0.000650347
0.000656368
0.000662495
0.000668723
0.00067504
0.000681435
0.000687894
0.000543231
0.000542977
0.000542777
0.000542675
0.000542667
0.000542759
0.000542957
0.000543267
0.000543693
0.000544236
0.000544898
0.000545679
0.000546577
0.000547591
0.000548718
0.000549956
0.000551303
0.000552754
0.000554308
0.000555965
0.000557726
0.000559595
0.000561581
0.000563695
0.000565952
0.000568369
0.00057097
0.00057378
0.000576824
0.00058013
0.000583727
0.000587635
0.000591868
0.000596422
0.000601275
0.000606374
0.000611634
0.00061699
0.000622406
0.000627881
0.000633426
0.000639056
0.000644787
0.000650626
0.000656575
0.000662632
0.000668789
0.000675036
0.000681362
0.000687752
0.000543323
0.000543028
0.000542805
0.000542699
0.000542698
0.000542798
0.000543005
0.00054332
0.000543749
0.000544292
0.000544952
0.000545729
0.000546624
0.000547636
0.000548765
0.000550009
0.000551365
0.000552832
0.000554406
0.000556088
0.000557878
0.00055978
0.000561801
0.000563952
0.000566245
0.000568698
0.000571331
0.000574165
0.000577227
0.000580543
0.000584143
0.000588056
0.000592301
0.000596885
0.000601794
0.000606971
0.000612278
0.000617631
0.000622994
0.000628387
0.000633839
0.00063938
0.000645027
0.000650791
0.000656672
0.000662666
0.000668764
0.000674954
0.000681225
0.000687564
0.000543288
0.000542969
0.000542732
0.000542624
0.000542626
0.000542733
0.000542944
0.000543263
0.000543691
0.000544233
0.000544889
0.000545663
0.000546555
0.000547566
0.000548698
0.000549949
0.000551318
0.000552801
0.000554396
0.000556101
0.000557916
0.000559844
0.000561891
0.000564065
0.000566378
0.000568846
0.000571488
0.000574323
0.000577376
0.000580673
0.000584252
0.000588153
0.000592406
0.000597042
0.000602068
0.000607424
0.000612857
0.000618242
0.000623546
0.000628834
0.00063417
0.000639602
0.000645157
0.000650843
0.00065666
0.000662599
0.000668647
0.000674793
0.000681022
0.000687323
0.00054311
0.000542786
0.000542548
0.000542443
0.000542451
0.000542562
0.000542776
0.000543096
0.000543523
0.00054406
0.000544711
0.000545479
0.000546367
0.000547378
0.000548513
0.000549773
0.000551156
0.000552659
0.000554276
0.000556004
0.000557841
0.000559789
0.000561851
0.000564036
0.000566355
0.00056882
0.000571449
0.000574261
0.000577275
0.000580518
0.000584039
0.000587897
0.000592139
0.000596837
0.000602058
0.000607769
0.000613444
0.000618899
0.000624107
0.000629239
0.000634416
0.000639712
0.000645161
0.00065077
0.00065653
0.000662424
0.000668436
0.000674549
0.00068075
0.000687026
0.000542784
0.000542474
0.000542249
0.000542155
0.000542171
0.000542288
0.000542504
0.000542822
0.000543244
0.000543774
0.000544416
0.000545176
0.000546057
0.000547066
0.000548205
0.000549475
0.000550876
0.000552402
0.000554044
0.000555796
0.000557653
0.000559616
0.000561686
0.000563871
0.000566178
0.00056862
0.000571212
0.000573971
0.000576907
0.00058004
0.00058344
0.000587195
0.000591367
0.000596103
0.000601617
0.000608032
0.00061415
0.000619718
0.000624738
0.000629612
0.000634558
0.000639682
0.000645015
0.000650552
0.000656268
0.000662134
0.000668124
0.000674219
0.000680404
0.000686669
0.000542315
0.000542036
0.000541838
0.000541762
0.00054179
0.000541913
0.00054213
0.000542443
0.000542857
0.000543375
0.000544004
0.000544751
0.000545621
0.000546625
0.000547766
0.000549048
0.000550471
0.000552027
0.000553702
0.00055548
0.000557356
0.000559327
0.000561393
0.000563557
0.000565822
0.000568198
0.000570699
0.000573349
0.000576135
0.000579059
0.000582222
0.000585762
0.000589706
0.000594343
0.000600241
0.000608095
0.000615022
0.000620782
0.00062542
0.000629887
0.000634522
0.000639449
0.000644672
0.000650159
0.000655858
0.00066172
0.000667708
0.000673799
0.000679982
0.000686247
0.000541713
0.000541482
0.000541322
0.000541271
0.000541313
0.000541442
0.000541658
0.000541965
0.000542365
0.000542866
0.000543475
0.000544201
0.000545054
0.000546046
0.000547187
0.000548484
0.000549936
0.000551532
0.000553248
0.000555055
0.000556937
0.000558891
0.000560911
0.000562994
0.000565142
0.000567365
0.000569692
0.000572163
0.000574709
0.000577276
0.000580046
0.000583262
0.000586695
0.000590809
0.00059706
0.000607829
0.000616042
0.000622032
0.00062581
0.000629674
0.000633989
0.000638795
0.000644003
0.000649525
0.000655273
0.000661176
0.000667188
0.000673292
0.000679481
0.000685755
0.000540998
0.000540826
0.000540713
0.000540691
0.000540749
0.000540884
0.000541096
0.000541391
0.000541773
0.000542249
0.000542829
0.000543524
0.000544349
0.000545321
0.000546456
0.000547767
0.000549255
0.000550903
0.000552662
0.000554473
0.000556305
0.000558163
0.000560049
0.00056196
0.00056392
0.000565958
0.000568128
0.000570501
0.000572826
0.000574885
0.000577061
0.000579914
0.000582695
0.000585548
0.0005914
0.000608283
0.000618081
0.000624021
0.000625543
0.000628306
0.000632242
0.000637107
0.000642562
0.000648381
0.000654384
0.000660456
0.000666557
0.000672696
0.0006789
0.000685191
0.000540193
0.000540086
0.000540025
0.000540034
0.000540108
0.000540246
0.000540452
0.00054073
0.000541086
0.000541528
0.000542066
0.000542716
0.000543497
0.000544432
0.000545543
0.000546852
0.000548365
0.000550056
0.000551831
0.000553574
0.000555263
0.000556952
0.000558662
0.000560394
0.000562214
0.000564174
0.000566375
0.000569
0.000571325
0.000572723
0.000574269
0.000576388
0.000578533
0.000579922
0.00058261
0.000613267
0.000625037
0.00062968
0.000625753
0.000625831
0.000628839
0.000633777
0.000639704
0.000646143
0.00065275
0.000659292
0.000665683
0.000671961
0.00067822
0.000684542
0.000539324
0.000539284
0.000539276
0.000539315
0.000539402
0.000539542
0.000539736
0.000539991
0.000540312
0.000540708
0.000541189
0.000541773
0.00054248
0.000543333
0.000544361
0.000545597
0.000547069
0.000548761
0.000550525
0.000552182
0.000553756
0.000555356
0.00055697
0.000558574
0.000560318
0.000562251
0.000564614
0.000568106
0.000571035
0.000571289
0.000572273
0.000580021
0.000576303
0.000567479
0.00057122
0.000652367
0.000658575
0.000650138
0.000628349
0.000621032
0.000623263
0.000629087
0.000635879
0.000643026
0.000650253
0.000657343
0.000664193
0.000670808
0.000677279
0.000683732
0.000538421
0.000538444
0.000538484
0.000538549
0.000538646
0.000538782
0.00053896
0.000539185
0.000539462
0.000539798
0.000540202
0.000540683
0.000541247
0.000541909
0.000542721
0.000543762
0.000545115
0.000546802
0.000548635
0.000550365
0.000552053
0.000553786
0.000555395
0.000556798
0.000558341
0.000559946
0.000562067
0.0005671
0.000572326
0.000574895
0.000580186
0.000580555
0.000571495
0.000590175
0.000537676
0.000758578
0.000746448
0.000700258
0.000623938
0.000610829
0.000617774
0.000627009
0.000634566
0.000641555
0.000648542
0.000655463
0.000662256
0.000668968
0.000675679
0.000682452
0.000537514
0.000537589
0.000537668
0.000537752
0.000537854
0.00053798
0.000538136
0.000538326
0.00053855
0.000538812
0.000539104
0.000539405
0.000539695
0.000540026
0.000540524
0.000541334
0.000542583
0.000544313
0.000546333
0.000548388
0.000550526
0.000552687
0.000554353
0.000555285
0.000556217
0.000556619
0.00055716
0.000564232
0.000573113
0.00058081
0.000593291
0.000590734
0.000583131
0.000517069
0.000416679
0.00166846
0.00121686
0.000904582
0.000708223
0.000651438
0.000645859
0.00064123
0.000641046
0.000644259
0.000649312
0.000655014
0.000660884
0.000666953
0.000673398
0.000680354
0.000536629
0.000536742
0.000536846
0.000536939
0.000537037
0.00053715
0.000537281
0.00053743
0.000537595
0.000537761
0.00053788
0.000537886
0.000537805
0.000537804
0.000538082
0.000538779
0.00054
0.00054177
0.000544007
0.000546623
0.000549644
0.000552712
0.00055464
0.000554785
0.000554313
0.000551498
0.000549075
0.00055955
0.000573378
0.000591555
0.000613588
0.000694336
0.000672079
0.000841565
0.00243522
0.0103223
0.0106875
0.00857577
0.00128776
0.00084237
0.000696227
0.000659524
0.000648736
0.000647729
0.000650964
0.000655441
0.000660112
0.000665077
0.000670769
0.000677646
0.000535792
0.00053592
0.000536032
0.000536122
0.00053621
0.000536304
0.000536407
0.000536517
0.000536617
0.000536656
0.000536526
0.000536193
0.00053583
0.000535708
0.000536013
0.000536799
0.000538101
0.000539934
0.000542447
0.000545844
0.000550237
0.000555081
0.000558111
0.000557559
0.000554897
0.000545324
0.000532343
0.000551979
0.000571853
0.000584006
0.00060128
0.000621444
0.000658644
0.0007374
0.00161085
0.0097195
0.0103
0.00431863
0.000943231
0.000728033
0.000677847
0.000655592
0.000644841
0.000645595
0.000650731
0.00065531
0.000658959
0.000662602
0.000667327
0.000674484
0.000535019
0.000535138
0.000535236
0.000535309
0.000535378
0.000535452
0.00053553
0.000535603
0.000535636
0.000535517
0.000535129
0.000534572
0.00053417
0.000534222
0.000534845
0.000535974
0.000537625
0.000539898
0.000543089
0.000547531
0.000553789
0.000561817
0.000567461
0.00056805
0.000576681
0.000549455
0.00049155
0.000549529
0.000584501
0.000589839
0.00059494
0.000604778
0.000591496
0.000581543
0.00057273
0.00160402
0.00147051
0.00107024
0.000772225
0.000702407
0.000678876
0.000653319
0.00063809
0.000642256
0.00064991
0.00065419
0.000656144
0.000657909
0.000661504
0.00067041
0.000534319
0.000534399
0.00053446
0.000534503
0.000534547
0.000534599
0.000534657
0.000534704
0.00053467
0.000534404
0.000533851
0.000533277
0.000533077
0.000533527
0.000534673
0.000536377
0.000538809
0.000542389
0.000547249
0.000553463
0.000563096
0.000577491
0.000581256
0.000586872
0.000574741
0.000584601
0.00173744
0.000597299
0.000608669
0.00060143
0.000594391
0.000601807
0.000590513
0.000562103
0.000565314
0.000760421
0.000789224
0.000700248
0.000611408
0.000611285
0.000621553
0.000623469
0.000631061
0.000644108
0.000651262
0.000652547
0.000651131
0.000649906
0.000652019
0.000665115
0.00053369
0.0005337
0.0005337
0.000533699
0.000533712
0.000533744
0.000533791
0.000533826
0.000533746
0.000533395
0.000532828
0.000532415
0.000532555
0.000533466
0.000535147
0.000537394
0.000540606
0.000545901
0.000553469
0.00056329
0.000584375
0.000602363
0.00061189
0.000598996
0.000629247
0.000727919
0.000930895
0.000711907
0.000631874
0.000608716
0.000597352
0.000589694
0.000592402
0.00060601
0.000608389
0.000642644
0.000658432
0.000649132
0.000635507
0.000641961
0.00064588
0.00063962
0.000633098
0.000646931
0.000653644
0.000650353
0.000643727
0.000635891
0.000633247
0.000660773
0.000533117
0.000533028
0.000532943
0.000532885
0.000532862
0.000532877
0.000532924
0.000532966
0.000532881
0.000532543
0.000532096
0.000531952
0.000532466
0.000533781
0.000535883
0.000538334
0.000541811
0.000548179
0.000557754
0.000565282
0.000579485
0.000606328
0.00062226
0.000725548
0.000705937
0.000780553
0.000736865
0.000634626
0.000611004
0.000612352
0.000603395
0.000592316
0.000585725
0.000586963
0.000608655
0.000643422
0.000658346
0.000652586
0.000639367
0.000631673
0.000635508
0.000663393
0.00150393
0.000661342
0.000664789
0.00065512
0.000638896
0.000617082
0.000597916
0.000682593
0.00053257
0.000532356
0.000532167
0.000532041
0.000531978
0.000531979
0.000532036
0.000532109
0.000532073
0.000531839
0.000531603
0.00053177
0.000532643
0.000534318
0.000536819
0.000539493
0.000543436
0.000550392
0.000560678
0.000545122
0.000519476
0.00191486
0.000696637
0.000596298
0.000742152
0.00104256
0.00118638
0.000493468
0.000682125
0.000611048
0.000604544
0.000598096
0.000587688
0.00058598
0.000593641
0.000611534
0.000621512
0.000627895
0.000632996
0.000642364
0.00064058
0.000660145
0.000698093
0.000662543
0.000648366
0.000655002
0.000660835
0.000645037
0.000633734
0.000878719
0.000532011
0.000531652
0.000531343
0.000531139
0.000531034
0.000531022
0.000531099
0.000531223
0.000531285
0.000531223
0.000531241
0.000531716
0.000532928
0.00053501
0.000538086
0.000541711
0.000547411
0.00055649
0.000563204
0.00058225
0.000841458
0.000731068
0.000811825
0.000599179
0.00579069
0.0106053
0.0105061
0.00354517
0.000712076
0.000636966
0.000581031
0.000581195
0.000578974
0.000581239
0.00058892
0.000601628
0.00061379
0.000624163
0.000634528
0.000646145
0.000658645
0.000671116
0.000677009
0.000670807
0.000664963
0.000671519
0.000683121
0.000634775
0.000383856
0.00594916
0.000531393
0.000530875
0.000530435
0.000530148
0.000529997
0.000529973
0.000530073
0.000530263
0.000530453
0.000530595
0.000530872
0.000531622
0.000533127
0.000535599
0.000539318
0.000544153
0.000551723
0.000559511
0.000573461
0.00118456
0.000633229
0.000719537
0.000705884
0.00200404
0.00999928
0.0113191
0.0101522
0.00929641
0.00115199
0.000665262
0.00101709
0.000565589
0.00057306
0.000575276
0.00058492
0.000594427
0.000603767
0.000612502
0.000620953
0.00062836
0.000635137
0.000667872
0.000694479
0.000711344
0.000702608
0.000703919
0.00077044
0.000929761
0.00460828
0.00748245
0.000530661
0.000529979
0.000529404
0.000529031
0.000528832
0.000528795
0.000528917
0.000529176
0.000529501
0.000529852
0.000530367
0.00053134
0.000533051
0.00053577
0.000540145
0.000546005
0.000553419
0.000562473
0.000648668
0.000586573
0.000575612
0.000651274
0.000690318
0.00226303
0.0104923
0.0112702
0.0108157
0.00883702
0.00121287
0.00066155
0.000575896
0.000579229
0.000585117
0.000583552
0.000584213
0.00059283
0.000603444
0.000614238
0.000624189
0.00063748
0.000655971
0.000714584
0.000945081
0.000733525
0.000718962
0.000712766
0.000734116
0.000719849
0.000835127
0.00744488
0.000529761
0.000528919
0.00052821
0.000527751
0.000527503
0.00052745
0.00052759
0.000527909
0.000528361
0.000528902
0.000529619
0.000530745
0.000532523
0.000535344
0.000539999
0.00054523
0.000551344
0.000584852
0.000572423
0.000580457
0.000623816
0.000609848
0.000584107
0.000572231
0.00601775
0.0110596
0.0106142
0.00365124
0.000693544
0.000672541
0.000626028
0.000636483
0.000632346
0.000595326
0.000585905
0.000588987
0.000603247
0.000617447
0.000626308
0.000630878
0.000639281
0.000632482
0.000627061
0.000661775
0.000696682
0.000726634
0.00074087
0.000694882
0.000680955
0.00123193
0.00052864
0.000527648
0.000526814
0.000526273
0.000525978
0.000525905
0.000526055
0.000526422
0.000526977
0.000527679
0.000528564
0.000529783
0.00053155
0.0005344
0.000538176
0.000542389
0.000555753
0.000556191
0.000557873
0.000571391
0.000624236
0.00058915
0.000558137
0.000515379
0.00078257
0.00103604
0.00119134
0.000451565
0.000623403
0.000623028
0.000666311
0.000693737
0.000688745
0.00133485
0.000578475
0.000596084
0.000602113
0.000620941
0.000649133
0.000637882
0.000628454
0.000630552
0.000631553
0.00064514
0.000687919
0.000775328
0.000868492
0.000874286
0.000761919
0.000614101
0.000527252
0.000526126
0.00052518
0.000524565
0.000524225
0.000524131
0.000524285
0.000524683
0.000525313
0.000526142
0.000527166
0.000528467
0.000530218
0.000532642
0.000535921
0.000540666
0.000545159
0.000549885
0.000554078
0.000553016
0.000842901
0.000579234
0.000571182
0.000565353
0.000625821
0.000702262
0.000671648
0.000565945
0.000577959
0.000610284
0.000630093
0.00137386
0.000617014
0.00061596
0.00059588
0.000603429
0.000606578
0.000617263
0.00147674
0.000646289
0.000640403
0.0006307
0.000619397
0.000597551
0.000655669
0.000728867
0.00100968
0.0010154
0.000771296
0.000670481
0.000525556
0.000524319
0.000523279
0.0005226
0.000522219
0.000522105
0.000522256
0.000522672
0.00052335
0.00052427
0.000525412
0.0005268
0.000528527
0.000530718
0.000533527
0.00053712
0.000541936
0.000545893
0.000548126
0.000555662
0.000552281
0.000564184
0.000584557
0.000628184
0.00061518
0.000643333
0.000635075
0.00057568
0.00058718
0.00059232
0.000584386
0.000556387
0.000779892
0.00060663
0.000600722
0.000602099
0.000609968
0.000632253
0.000608295
0.000634013
0.000645593
0.000637326
0.000616082
0.000546133
0.000441024
0.00108168
0.00264136
0.00390914
0.000810301
0.000310536
0.000523522
0.0005222
0.000521086
0.000520356
0.000519941
0.000519809
0.000519954
0.000520377
0.00052108
0.000522055
0.000523284
0.000524758
0.000526501
0.000528573
0.00053107
0.000534147
0.000537854
0.000541609
0.000544249
0.000549434
0.000551517
0.000561786
0.000570972
0.00057685
0.000593262
0.000727355
0.000592986
0.000601469
0.000602117
0.000569185
0.000570044
0.000564493
0.000573612
0.000591469
0.000599351
0.000602301
0.00060892
0.000613709
0.000620268
0.000636209
0.000651277
0.000661784
0.000666134
0.00061572
0.000388401
0.0122837
0.0188064
0.0190934
0.0134034
0.000780935
0.000521129
0.000519748
0.000518582
0.000517816
0.000517377
0.000517229
0.000517368
0.000517792
0.000518505
0.000519504
0.000520785
0.000522332
0.000524136
0.000526202
0.000528554
0.000531234
0.000534439
0.000538199
0.00054313
0.000545674
0.00054935
0.000555351
0.000564009
0.000566005
0.000573256
0.000577263
0.000585267
0.000590068
0.000557412
0.000560467
0.000564925
0.000567271
0.000573337
0.000583217
0.000590961
0.000597697
0.000605232
0.000614447
0.000626798
0.000644327
0.000666396
0.000692786
0.000739207
0.000862733
0.00406265
0.0193003
0.019068
0.0191364
0.0192787
0.00611179
0.000518364
0.000516951
0.000515757
0.00051497
0.000514516
0.000514359
0.000514492
0.000514914
0.000515627
0.000516632
0.000517931
0.000519518
0.000521382
0.000523506
0.000525874
0.000528506
0.000531558
0.000535195
0.000539091
0.00054166
0.000545288
0.000550082
0.000554919
0.000558574
0.000562788
0.000566669
0.000571812
0.000562329
0.000557359
0.000558197
0.000560951
0.000563923
0.000570003
0.000577012
0.000584907
0.000593276
0.00060278
0.000613654
0.000626544
0.000645742
0.000672081
0.00071086
0.000774304
0.000911666
0.00243312
0.0189293
0.0189929
0.0191241
0.0191366
0.00364708
0.000515223
0.000513804
0.000512603
0.000511811
0.000511354
0.000511194
0.000511324
0.000511744
0.000512452
0.00051345
0.000514743
0.000516333
0.000518218
0.000520385
0.000522818
0.000525512
0.00052854
0.000531922
0.000535405
0.000538975
0.000542412
0.000546278
0.00054946
0.000552383
0.000555449
0.000557484
0.000558486
0.000556222
0.00055431
0.000553839
0.000555829
0.000559331
0.000564948
0.000572116
0.000579979
0.00058863
0.000598439
0.000609474
0.000622471
0.000639032
0.000661424
0.000693291
0.000733991
0.000794574
0.00100401
0.0128724
0.0188817
0.0192701
0.0141121
0.00172262
0.000511709
0.000510308
0.000509122
0.00050834
0.000507889
0.000507734
0.000507866
0.000508284
0.000508985
0.000509971
0.000511243
0.000512805
0.000514656
0.000516791
0.000519192
0.000521844
0.000524739
0.000527841
0.000531062
0.000534323
0.000537645
0.000541133
0.000544354
0.000547317
0.000549828
0.000551361
0.000551768
0.000551434
0.000550984
0.000551542
0.000553189
0.000556206
0.000561174
0.000567464
0.00057473
0.000583128
0.00059277
0.000603624
0.000615036
0.000627793
0.00064307
0.000661525
0.000674916
0.000647373
0.000508609
0.000750055
0.00373206
0.00452491
0.000906412
-6.22599e-05
0.00050783
0.000506468
0.000505316
0.000504558
0.000504125
0.000503982
0.000504122
0.000504541
0.000505236
0.000506205
0.000507448
0.000508961
0.000510735
0.000512748
0.000514972
0.000517375
0.00051993
0.000522611
0.000525365
0.000528102
0.000530906
0.000533687
0.000536314
0.000538568
0.000540285
0.000541187
0.000541403
0.000541513
0.000541492
0.000542189
0.000544269
0.000548466
0.00055579
0.000564375
0.000572755
0.000579564
0.000586975
0.000596475
0.000608141
0.000620818
0.000628282
0.000641172
0.000648304
0.000638836
0.000617412
0.000697755
0.000840347
0.000747056
0.000548138
0.000351924
0.0005036
0.000502295
0.000501193
0.000500472
0.000500068
0.000499946
0.000500099
0.000500524
0.000501215
0.00050217
0.000503381
0.000504837
0.000506511
0.000508369
0.000510383
0.000512533
0.00051481
0.000517199
0.000519655
0.000522123
0.000524548
0.000526847
0.000528858
0.000530438
0.000531484
0.000531947
0.000531861
0.000531068
0.000529839
0.000528764
0.00052876
0.000531423
0.000539724
0.000550865
0.000563156
0.000573877
0.000584185
0.000593514
0.000602576
0.000611179
0.000617911
0.000624306
0.000629831
0.000632029
0.000637259
0.000673158
0.00070645
0.000653975
0.000568265
0.000486394
0.000499034
0.000497801
0.000496764
0.000496092
0.000495725
0.000495632
0.000495806
0.000496243
0.000496937
0.000497881
0.000499065
0.00050046
0.000502027
0.000503734
0.000505575
0.000507556
0.000509682
0.00051193
0.000514254
0.000516584
0.000518844
0.000520929
0.000522694
0.000523994
0.000524711
0.00052474
0.000523989
0.000522352
0.00051984
0.000516858
0.000514472
0.000515401
0.000526836
0.00053964
0.000552607
0.000559056
0.000568756
0.000582041
0.000595796
0.000606494
0.000613497
0.000618503
0.000622437
0.000626019
0.000631236
0.000646698
0.000655795
0.00062631
0.000579143
0.00052945
0.000494151
0.000493001
0.000492039
0.000491426
0.000491105
0.00049105
0.000491252
0.000491708
0.000492412
0.000493354
0.000494512
0.000495842
0.000497301
0.000498882
0.000500612
0.000502519
0.000504603
0.000506832
0.00050915
0.000511478
0.00051372
0.000515757
0.000517442
0.000518612
0.000519104
0.000518748
0.000517343
0.000514618
0.000510286
0.000504378
0.000497823
0.000495607
0.000516652
0.000532104
0.000550152
0.000550491
0.000555652
0.000567541
0.000579785
0.000591472
0.000601931
0.000611289
0.000617963
0.000621376
0.000623447
0.000627736
0.000627569
0.000608734
0.000580964
0.000559811
0.000488969
0.000487911
0.000487033
0.000486486
0.00048622
0.000486209
0.000486448
0.000486931
0.000487653
0.000488599
0.000489729
0.000490988
0.000492351
0.000493852
0.000495548
0.000497471
0.000499608
0.000501918
0.000504335
0.000506773
0.000509122
0.000511253
0.000513008
0.000514201
0.000514616
0.000514
0.000512001
0.000508098
0.000501447
0.000491038
0.000476536
0.000469415
0.000512476
0.000540391
0.000558021
0.00053935
0.000537363
0.000554031
0.000569138
0.000580595
0.00058975
0.000597127
0.000603773
0.000610031
0.000615374
0.000618119
0.000614759
0.000601445
0.00058359
0.000568074
0.000483505
0.000482545
0.000481757
0.000481284
0.000481079
0.000481119
0.000481401
0.00048192
0.000482668
0.000483619
0.000484716
0.000485904
0.000487202
0.000488688
0.000490429
0.000492446
0.000494718
0.000497193
0.000499799
0.000502444
0.000505016
0.000507382
0.000509378
0.000510793
0.000511375
0.000510801
0.000508543
0.000503877
0.00049547
0.000479161
0.000450752
0.000420883
0.00052091
0.000572232
0.000596232
0.000512912
0.000510894
0.000541728
0.000560875
0.000572608
0.00058141
0.000588129
0.000593087
0.000596406
0.000598254
0.000600089
0.000600147
0.000595188
0.00058486
0.000573276
0.000477778
0.000476918
0.000476225
0.000475829
0.000475691
0.000475789
0.000476121
0.000476683
0.000477462
0.000478416
0.000479472
0.000480605
0.00048189
0.00048343
0.000485284
0.000487461
0.000489932
0.000492639
0.000495508
0.00049845
0.000501356
0.000504101
0.000506528
0.000508408
0.000509513
0.000509578
0.000507884
0.000503535
0.000495475
0.000477078
0.000430556
0.000314372
0.000728148
0.00101507
0.00105194
0.00044229
0.000517408
0.00053857
0.000558002
0.000568389
0.000576117
0.000581849
0.000585659
0.00058786
0.000588648
0.000588477
0.000586745
0.000583093
0.000579651
0.000576961
0.000471801
0.000471043
0.000470447
0.000470133
0.000470066
0.000470227
0.000470615
0.000471226
0.000472038
0.000472988
0.000474003
0.000475114
0.000476448
0.000478101
0.000480121
0.000482506
0.00048522
0.000488207
0.000491398
0.000494708
0.000498044
0.000501303
0.000504347
0.000506933
0.000509004
0.000510645
0.000511278
0.000509705
0.000508185
0.000507724
0.000493005
0.000874742
0.00808368
0.0128594
0.0124429
0.00293596
0.000560687
0.000572786
0.000573063
0.000572146
0.000574488
0.000577879
0.000580247
0.000581421
0.000581257
0.000580285
0.000578482
0.000575824
0.000572729
0.000570406
0.000465588
0.000464932
0.000464435
0.000464205
0.000464211
0.00046444
0.000464889
0.000465553
0.000466397
0.000467334
0.000468323
0.000469461
0.000470898
0.000472711
0.00047493
0.000477548
0.000480529
0.000483821
0.00048736
0.000491073
0.000494883
0.000498723
0.000502493
0.000505876
0.000509097
0.000512508
0.000513578
0.000514336
0.000547103
0.000528295
0.000558523
0.00444341
0.0128061
0.0127575
0.0128043
0.010756
0.000786755
0.000593009
0.000590674
0.00057873
0.000575009
0.00057531
0.00057587
0.000576314
0.000575178
0.000573475
0.000572266
0.000570352
0.000568132
0.000565936
0.000459151
0.000458596
0.000458197
0.000458052
0.000458136
0.000458435
0.000458949
0.000459667
0.000460536
0.000461459
0.000462451
0.000463667
0.000465249
0.00046725
0.000469685
0.000472542
0.000475787
0.00047937
0.00048323
0.0004873
0.000491521
0.000495873
0.000500345
0.00050446
0.000508453
0.000513336
0.000517341
0.000522582
0.000529262
0.000546824
0.000592058
0.00420471
0.0126111
0.0126828
0.0126721
0.0102788
0.00081032
0.000597362
0.000598522
0.000585156
0.000578061
0.000577987
0.000575886
0.000573752
0.000570483
0.00056832
0.000566259
0.000565233
0.000564406
0.000562121
0.000452497
0.000452042
0.000451741
0.000451682
0.000451844
0.000452217
0.000452798
0.00045357
0.000454457
0.000455375
0.000456408
0.000457744
0.000459501
0.000461702
0.00046435
0.000467429
0.000470901
0.000474709
0.000478781
0.000483047
0.000487474
0.000492112
0.000497132
0.000501349
0.000504989
0.000514521
0.000519035
0.000530068
0.000539499
0.000555149
0.000563754
0.000665718
0.00749228
0.0127379
0.0119884
0.00244141
0.000534965
0.000583229
0.000583962
0.000575746
0.000580324
0.000578964
0.000574187
0.000570981
0.00056826
0.000563975
0.000558876
0.00056354
0.000562204
0.000558421
0.000445636
0.000445278
0.000445075
0.000445102
0.000445343
0.00044579
0.000446439
0.000447263
0.000448165
0.000449098
0.000450211
0.000451698
0.000453643
0.000456041
0.000458882
0.000462137
0.000465754
0.00046966
0.000473775
0.000478051
0.000482495
0.000487213
0.000492843
0.000497398
0.000502521
0.000550319
0.000518457
0.00052823
0.000538291
0.000550925
0.000565088
0.00059238
0.000630714
0.000749322
0.000876295
0.000696282
0.000611319
0.00058862
0.000578927
0.000585629
0.000595945
0.000581128
0.000572317
0.000564798
0.000556856
0.000556295
0.00062505
0.000560782
0.000560741
0.000556154
0.000438573
0.000438311
0.000438203
0.000438317
0.000438638
0.00043916
0.000439878
0.000440748
0.000441668
0.000442644
0.000443871
0.000445527
0.000447656
0.000450231
0.000453222
0.000456577
0.000460226
0.000464095
0.000468134
0.000472348
0.000476792
0.00048161
0.000487092
0.000493448
0.000499075
0.000504235
0.000511417
0.000524779
0.000534818
0.000547722
0.000560843
0.000586894
0.000620873
0.000660175
0.000702822
0.000657575
0.000609301
0.000590504
0.000585697
0.000583577
0.00112174
0.000587041
0.000612759
0.000811808
0.000551965
0.000555313
0.000564971
0.000554667
0.000597547
0.000547641
0.000431313
0.000431145
0.000431132
0.000431331
0.000431732
0.000432329
0.000433115
0.000434029
0.000434978
0.000436027
0.000437391
0.000439218
0.000441515
0.000444228
0.000447303
0.000450668
0.000454257
0.000458032
0.000461994
0.000466191
0.000470687
0.000475598
0.000481024
0.000487033
0.000493894
0.000501127
0.000509266
0.000518366
0.000530589
0.000542366
0.000555092
0.000573879
0.00060294
0.000616218
0.000638075
0.00062241
0.000600179
0.000584773
0.000574013
0.000596506
0.000551005
0.000564664
0.000569521
0.000541697
0.000545792
0.000553022
0.000565785
0.000730303
0.00054297
0.000537812
0.000423859
0.000423784
0.000423865
0.000424149
0.00042463
0.000425303
0.000426154
0.000427112
0.000428107
0.000429256
0.000430769
0.000432756
0.000435186
0.000437983
0.000441072
0.000444384
0.000447889
0.000451596
0.000455541
0.000459775
0.000464347
0.000469328
0.000474839
0.000480875
0.000487694
0.000495108
0.000503886
0.000513152
0.000524231
0.000533362
0.000544527
0.000558308
0.000578198
0.000593909
0.000598538
0.000606707
0.000587835
0.00057365
0.00057256
0.000557877
0.000550122
0.000550444
0.000548786
0.000540148
0.000536122
0.000544357
0.000921832
0.000532309
0.000527259
0.000530086
0.000416216
0.000416233
0.000416406
0.000416775
0.000417336
0.000418084
0.000418999
0.000420005
0.000421067
0.000422335