/*--------------------------------*- C++ -*----------------------------------*\
| =========                 |                                                 |
| \\      /  F ield         | OpenFOAM: The Open Source CFD Toolbox           |
|  \\    /   O peration     | Version:  2.4.0                                 |
|   \\  /    A nd           | Web:      www.OpenFOAM.org                      |
|    \\/     M anipulation  |                                                 |
\*---------------------------------------------------------------------------*/
FoamFile
{
    version     2.0;
    format      ascii;
    class       volScalarField;
    location    "0.069";
    object      alpha.water;
}
// * * * * * * * * * * * * * * * * * * * * * * * * * * * * * * * * * * * * * //

dimensions      [0 0 0 0 0 0 0];

internalField   nonuniform List<scalar> 
57600
(
1
1
1
1
1
1
1
1
1
1
1
1
1
1
1
1
1
1
1
1
1
1
1
1
1
1
1
1
1
1
1
1
1
1
1
1
1
1
1
1
1
1
1
1
1
1
1
1
1
1
1
1
1
1
1
1
1
1
1
1
1
1
1
1
1
1
1
1
1
1
1
1
1
1
1
1
1
1
1
1
1
1
1
1
1
1
1
1
1
1
1
1
1
1
1
1
1
1
1
1
1
1
1
1
1
1
1
1
1
1
1
1
1
1
1
1
1
1
1
1
1
1
1
1
1
1
1
1
1
1
1
1
1
1
1
1
1
1
1
1
1
1
1
1
1
1
1
1
1
1
1
1
1
1
1
1
1
1
1
1
1
1
1
1
1
1
1
1
1
1
1
1
1
1
1
1
1
1
1
1
1
1
1
1
1
1
1
1
1
1
1
1
1
1
1
1
1
1
1
1
1
1
1
1
1
1
1
1
1
1
1
1
1
1
1
1
1
1
1
1
1
1
1
1
1
1
1
1
1
1
1
1
1
1
1
1
1
1
1
1
1
1
1
1
1
1
1
1
1
1
1
1
1
1
1
1
1
1
1
1
1
1
1
1
1
1
1
1
1
1
1
1
1
1
1
1
1
1
1
1
1
1
1
1
1
1
1
1
1
1
1
1
1
1
1
1
1
1
1
1
1
1
1
1
1
1
1
1
1
1
1
1
1
1
1
1
1
1
1
1
1
1
1
1
1
1
1
1
1
1
1
1
1
1
1
1
1
1
1
1
1
1
1
1
1
1
1
1
1
1
1
1
1
1
1
1
1
1
1
0.999994
1
1
1
1
1
1
1
1
1
1
1
1
1
1
1
1
1
1
1
1
1
1
1
1
1
1
1
1
1
1
1
1
1
1
1
1
1
1
1
1
1
1
1
1
1
1
1
1
1
1
1
1
1
1
1
1
1
1
1
1
1
1
1
1
1
1
1
1
1
1
1
1
1
1
1
1
1
1
1
1
1
1
1
1
1
1
1
1
1
1
1
1
1
1
1
1
1
1
1
1
1
1
1
1
1
1
1
1
1
1
1
1
1
1
1
1
1
1
1
1
1
1
1
1
1
1
1
1
1
1
1
1
1
1
1
1
1
1
1
1
1
1
1
1
1
1
1
1
1
1
1
1
1
1
1
1
1
1
1
1
1
1
1
1
1
1
1
1
1
1
1
1
1
1
1
1
1
1
1
1
1
1
1
1
1
1
1
1
1
1
1
1
1
1
1
1
1
1
1
1
1
1
1
1
1
1
1
1
1
1
1
1
1
1
1
1
1
1
1
1
1
1
1
1
1
1
0.99913
1
1
1
1
0.99999
1
1
1
1
1
1
1
1
1
1
1
1
1
1
1
1
1
1
1
1
1
1
1
0.999998
1
0.999852
1
1
1
1
0.999859
1
1
1
1
1
1
1
1
1
1
1
1
1
1
1
1
1
1
1
1
1
1
1
1
0.99893
0.999196
1
0.999997
1
0.997015
1
1
1
1
1
1
1
1
1
1
1
1
1
1
1
1
1
1
1
1
1
1
1
0.986909
0.322173
0.876553
1
1
1
0.999998
1
1
1
1
1
1
1
1
1
1
1
1
1
1
1
1
1
1
1
1
1
1
0.999994
2.2596e-05
1.72149e-05
1.38003e-07
0.000171113
0.929754
1
1
1
1
1
1
1
1
1
1
1
1
1
1
1
1
1
1
1
1
1
1
1
1
0.00013376
7.24548e-09
4.06348e-09
4.60064e-09
8.25327e-09
1.56463e-05
0.0143052
1
1
1
1
1
1
1
1
1
1
1
1
1
1
1
1
1
1
1
1
1
1
0.198356
1.71716e-07
2.25646e-09
4.09028e-09
4.06702e-09
4.59255e-09
5.79467e-09
1.07337e-06
7.89753e-05
0.00408687
0.723701
1
1
1
1
1
1
1
1
1
1
1
1
1
1
0.999999
0.999914
1
1
0.999997
1.80972e-05
2.2582e-09
2.25162e-09
4.96645e-09
1.01864e-07
9.42236e-08
4.9091e-09
5.59225e-09
2.13075e-08
8.03791e-07
4.28774e-06
5.68989e-06
0.00279384
0.299805
0.614357
0.802656
1
1
1
1
1
1
1
1
1
1
1
1
1
0.0651681
-5.35151e-09
7.36319e-10
2.72764e-09
5.4248e-09
7.18719e-09
6.26779e-09
5.45494e-09
5.34022e-09
5.73921e-09
6.37334e-09
6.49817e-09
8.76663e-09
8.59387e-08
1.98512e-07
3.65357e-06
1.78983e-06
1
1
1
1
1
1
1
1
0.999995
0.999967
0.999954
1
0.999993
-1.68831e-05
2.15752e-10
8.05586e-10
2.95261e-09
5.78455e-07
9.57036e-09
6.33762e-09
5.72276e-09
1.13176e-08
5.65048e-09
5.94101e-09
5.90066e-09
5.79037e-09
6.20612e-09
7.05631e-09
8.5585e-09
9.88471e-09
1
1
1
1
1
1
1
0.999991
0.99999
0.999998
0.999989
1
0.131592
3.80132e-05
8.4958e-10
4.64906e-10
1.75161e-09
2.47534e-09
5.49304e-09
3.82288e-06
1.35294e-06
5.5597e-09
4.96542e-08
5.74427e-09
5.53767e-09
5.38562e-09
5.6563e-09
6.99902e-09
8.47555e-09
9.00189e-09
1
1
1
1
1
1
1
1
1
1
1
1
1
1
1
1
1
1
1
1
1
1
1
1
1
1
1
1
1
1
1
1
1
1
1
1
1
1
1
1
1
1
1
1
1
1
1
1
1
1
1
1
1
1
1
1
1
1
1
1
1
1
1
1
1
1
1
1
1
1
1
1
1
1
1
1
1
1
1
1
1
1
1
1
1
1
1
1
1
1
1
1
1
1
1
1
1
1
1
1
1
1
1
1
1
1
1
1
1
1
1
1
1
1
1
1
1
1
1
1
1
1
1
1
1
1
1
1
1
1
1
1
1
1
1
1
1
1
1
1
1
1
1
1
1
1
1
1
1
1
1
1
1
1
1
1
1
1
1
1
1
1
1
1
1
1
1
1
1
1
1
1
1
1
1
1
1
1
1
1
1
1
1
1
1
1
1
1
1
1
1
1
1
1
1
1
1
1
1
1
1
1
1
1
1
1
1
1
1
1
1
1
1
1
1
1
1
1
1
1
1
1
1
1
1
1
1
1
1
1
1
1
1
1
1
1
1
1
1
1
1
1
1
1
1
1
1
1
1
1
1
1
1
1
1
1
1
1
1
1
1
1
1
1
1
1
1
1
1
1
0.999971
0.99982
1
1
1
1
1
1
1
1
1
1
1
1
1
1
1
1
1
1
1
1
1
1
1
1
1
1
1
1
0.999995
0.999995
1
1
1
1
1
1
1
1
1
1
1
1
1
1
1
1
1
1
1
1
1
1
1
1
1
1
1
1
0.999998
0.999975
0.999642
1
1
1
1
1
1
1
1
1
1
1
1
1
1
1
1
1
1
1
1
1
1
1
1
1
1
1
1
0.999987
1
1
1
1
1
1
1
1
1
1
1
1
1
1
1
1
1
1
1
1
1
1
1
1
1
1
1
1
1
1
1
1
1
1
1
1
1
1
1
1
1
1
1
1
1
1
1
1
1
1
1
1
1
1
1
1
1
1
0.999995
1
1
1
1
1
1
1
1
1
1
1
1
1
1
1
1
1
1
1
1
1
1
1
1
1
1
1
1
1
0.999999
0.976729
1
1
1
1
1
1
1
1
1
1
1
1
1
1
1
1
1
1
1
1
1
1
1
1
1
1
1
1
0.999996
0.999989
1
1
1
1
1
1
1
1
1
1
1
1
1
1
1
1
1
1
1
1
1
1
1
1
1
1
1
1
1
1
1
1
1
1
1
1
0.999997
1
1
1
1
1
1
1
1
1
1
1
1
1
1
1
1
1
1
1
1
1
1
1
1
1
1
1
1
1
0.999996
1
1
1
1
1
1
1
1
1
1
1
1
1
1
1
1
1
1
1
1
1
1
1
1
1
1
1
1
1
0.999905
1
1
0.999999
1
1
1
1
0.999994
1
1
1
1
1
1
1
1
1
1
1
1
1
1
1
1
1
1
1
1
0.999998
0.998197
1
1
1
1
1
1
0.999998
1
1
1
1
1
1
1
1
1
1
1
1
1
1
1
1
1
1
1
1
1
0.996559
1
0.999897
1
0.999998
0.999864
0.999066
0.999996
1
1
1
1
1
1
1
1
1
1
1
1
1
1
1
1
1
1
1
1
1
1
1
1
1
1
0.709933
0.0828515
0.463077
0.993393
0.999999
1
1
1
1
1
1
1
1
1
1
1
1
1
1
1
1
1
1
1
1
1
1
1
0.999998
0.000387342
7.01374e-08
1.77721e-07
6.5427e-07
0.205999
1
1
1
1
1
1
1
1
1
1
1
1
1
1
1
1
1
1
1
1
1
1
1
0.1443
4.14424e-05
4.07748e-08
2.88712e-09
2.83891e-09
2.41402e-09
5.81793e-06
0.963771
1
1
1
1
1
1
1
1
1
1
1
1
1
1
1
1
1
1
1
0.982499
0.0139752
0.000111453
2.86383e-06
6.7376e-09
2.53449e-09
2.40499e-09
2.4566e-09
1.23554e-09
9.36613e-09
0.000813987
1
1
1
1
1
1
1
1
1
1
1
1
1
1
0.82802
0.719559
0.649738
0.105161
2.36538e-05
2.10676e-05
2.34991e-06
2.56056e-08
4.94739e-09
3.75193e-09
7.86402e-08
6.5374e-09
3.72302e-09
1.43981e-09
6.47262e-10
1.82146e-06
0.969621
1
1
1
1
0.999999
1
1
1
1
1
1
1
1
4.02405e-06
3.58331e-06
1.25027e-06
7.40057e-07
1.80249e-08
7.54124e-09
6.00704e-09
4.95249e-09
4.58332e-09
4.23847e-09
4.39885e-09
1.12422e-07
9.80226e-08
1.48971e-09
1.54775e-10
8.82418e-05
0.000329995
1
1
0.999917
1
0.999999
0.999996
1
1
1
1
1
1
1
8.73773e-09
7.77201e-09
7.13974e-09
7.12026e-09
6.61409e-09
5.83269e-09
5.40167e-09
6.00397e-09
4.61119e-09
1.17053e-08
1.47207e-08
7.00521e-07
4.33184e-09
1.02712e-09
6.33871e-11
2.28455e-05
3.76733e-06
0.677811
0.999999
1
0.999998
0.999969
0.999964
1
1
1
1
1
1
1
7.77819e-09
6.90653e-09
6.58858e-09
6.69376e-09
6.56949e-09
5.84533e-09
8.58064e-07
4.59947e-09
4.592e-09
1.58452e-08
7.16327e-09
5.44259e-09
2.6843e-09
5.37082e-10
2.61881e-11
6.78316e-11
1.34941e-06
8.43686e-06
0.999997
0.999998
0.999995
0.999999
0.999997
1
1
1
1
1
1
1
0.0635169
1
1
1
1
1
1
0.999998
0.999973
0.999697
0.0377717
0.998459
0.000156373
0.000595297
0.000259812
2.27296e-10
1.48612e-09
4.21087e-09
6.40913e-09
3.14853e-06
2.31739e-06
1.31373e-07
1.63257e-07
5.8718e-09
5.32161e-09
5.13576e-09
5.40292e-09
7.01547e-09
8.1684e-09
8.37601e-09
1.64918e-11
5.62532e-06
1
1
1
1
0.99976
0.999996
0.99998
3.8114e-05
1.24674e-07
1.48027e-06
0.000360777
0.000592351
0.000348461
1.48243e-10
1.82177e-09
7.02769e-08
7.01389e-09
7.58751e-09
7.88357e-09
6.38322e-09
7.27061e-09
1.48887e-07
5.31792e-09
5.00356e-09
5.29963e-09
7.07934e-09
7.96904e-09
8.00213e-09
2.09064e-11
8.34896e-10
0.00327224
1
1
1
0.999622
0.999999
0.991446
1.67497e-05
6.38383e-08
9.62935e-05
0.000739295
1.34074e-05
0.000350806
7.37296e-11
1.138e-09
4.48053e-09
5.02412e-06
7.19689e-09
5.05274e-09
5.65933e-09
6.94798e-09
1.00304e-07
5.36686e-09
4.91569e-09
5.22167e-09
7.08437e-09
9.67696e-09
7.67385e-09
2.27575e-12
3.56844e-09
8.52646e-07
0.556977
0.99587
1
0.999989
0.999993
0.46289
2.78413e-05
2.39737e-07
1.41008e-06
1.4598e-05
2.28442e-05
0.000323519
2.97492e-11
5.94166e-10
2.94706e-09
7.07582e-06
7.78388e-09
3.87807e-09
5.60391e-09
6.14404e-09
5.73992e-09
4.98346e-09
4.93853e-09
5.08889e-09
6.95498e-09
8.2845e-09
7.41981e-09
5.35663e-14
7.45932e-11
5.85019e-05
3.22607e-05
0.954877
1
0.998093
1
0.000242101
4.91038e-05
1.71376e-08
7.85505e-09
0.00019976
0.000147672
0.00015724
1.05801e-11
2.77386e-10
2.97175e-09
7.08777e-06
8.86654e-09
0.000177579
4.32251e-09
4.5582e-09
5.20785e-09
5.1919e-09
4.95223e-09
7.13445e-09
7.27449e-09
5.80611e-08
7.29374e-09
1.17975e-14
1.20115e-10
6.78791e-06
5.96924e-06
0.120415
1
0.999517
0.999998
4.41004e-05
0.000142612
2.93202e-08
1.00793e-09
4.4718e-07
0.000424894
0.000379768
3.1574e-12
9.76022e-11
1.5221e-09
1.81826e-07
8.46659e-07
4.19247e-08
6.28092e-09
3.65767e-08
4.99956e-09
5.18207e-09
6.21205e-07
7.15456e-09
7.40394e-09
9.04913e-09
7.48297e-09
7.89554e-15
2.57744e-10
6.82457e-05
0.000260426
5.47945e-05
1
1
0.912462
2.50916e-05
0.000357769
4.00772e-09
5.96835e-09
8.77224e-05
0.000172408
0.000378656
7.7983e-13
2.81418e-11
5.17028e-10
3.141e-09
5.84497e-09
6.24706e-09
6.07519e-09
5.89407e-09
5.67778e-09
5.0009e-07
1.25477e-08
7.16473e-09
8.00824e-09
8.63537e-09
7.81859e-09
9.8215e-16
7.20299e-11
0.000265401
4.59236e-05
0.000156977
1
0.949855
0.000486125
2.05089e-05
2.04011e-06
1.02173e-09
5.76668e-10
8.03429e-06
0.000100165
2.20861e-05
1.52142e-13
6.44986e-12
1.72866e-10
1.63723e-09
3.92396e-08
4.85977e-09
1.00524e-08
6.40042e-09
6.66784e-09
7.62626e-09
6.9064e-09
6.90387e-09
7.23187e-09
8.41883e-09
2.29699e-08
2.0965e-16
4.65546e-11
1.38349e-05
0.000168256
8.88742e-06
0.279331
0.245787
3.07736e-05
0.000481897
0.000238166
4.05683e-08
1.5588e-10
3.88017e-07
0.000104589
1.2096e-05
2.11013e-14
1.00869e-12
3.99264e-11
6.25955e-10
2.48665e-09
3.7715e-06
5.18126e-09
5.26529e-09
5.54674e-09
6.28761e-09
5.96023e-06
2.65384e-07
7.13145e-09
2.89946e-08
9.16256e-09
1.21149e-16
1.61833e-11
0.000433765
0.000190365
0.000243745
1.31187e-05
8.08344e-05
0.000332671
8.70034e-06
2.99398e-10
2.82473e-10
1.32506e-10
2.13707e-07
9.56186e-05
-1.86738e-10
1.98119e-15
9.61383e-14
5.6029e-12
1.41283e-10
1.25101e-09
3.27736e-09
3.3555e-06
5.86602e-08
3.83532e-06
4.18598e-06
2.2044e-08
5.84957e-09
5.87141e-09
7.40826e-09
6.85637e-09
5.28041e-17
9.72227e-12
1.54397e-08
1.02382e-05
2.14936e-05
2.98294e-05
2.64638e-06
1.15407e-05
0.000129279
9.75123e-09
3.42641e-10
1.31743e-10
1.44216e-08
0.00078614
4.86955e-13
1.42025e-16
4.9399e-15
4.27183e-13
1.71174e-11
2.49639e-10
1.29312e-09
2.50704e-09
3.66098e-09
4.11619e-09
6.17096e-09
4.94486e-09
5.39674e-09
2.12776e-06
3.07676e-06
2.70245e-06
1.05266e-17
4.99739e-12
2.1756e-08
5.10278e-05
0.000195764
2.02413e-08
6.14037e-06
7.3572e-07
0.000106611
4.5563e-08
3.81142e-10
1.36342e-10
8.84673e-10
8.66104e-05
4.42612e-13
2.14028e-16
4.30424e-16
1.57398e-14
9.91004e-13
2.32799e-11
2.01075e-10
7.29799e-10
1.48346e-09
2.17961e-09
2.65389e-09
2.88369e-09
3.33443e-09
3.40093e-09
3.87848e-09
3.84512e-09
4.75578e-19
1.02065e-12
5.47965e-09
4.75562e-09
4.34245e-05
2.494e-06
1.32158e-09
1.51318e-07
8.36689e-07
3.4149e-07
3.03006e-10
2.25118e-10
6.88205e-10
7.88381e-10
3.10318e-13
1.13255e-12
1.28895e-12
1.18388e-13
2.54746e-14
8.93649e-13
1.22485e-11
7.03302e-11
2.10553e-10
4.06844e-10
5.82003e-10
6.92508e-10
8.13658e-10
9.98426e-10
1.21163e-09
1.09501e-09
1.68048e-20
4.39172e-14
2.82776e-10
5.99256e-07
0.000239959
6.27352e-07
5.90685e-10
2.14917e-05
4.48849e-05
4.0319e-09
1.29765e-10
1.55152e-08
6.91286e-10
4.03663e-11
1.17857e-10
3.51252e-10
2.10094e-10
2.66036e-11
8.89501e-13
1.95213e-14
2.59792e-13
2.22615e-12
9.32193e-12
2.30078e-11
3.88588e-11
5.13935e-11
6.14348e-11
7.1303e-11
8.08879e-11
7.37867e-11
6.77354e-22
1.22713e-15
3.82191e-11
6.44067e-06
0.00011478
2.96164e-10
4.0721e-10
2.16237e-09
3.20189e-06
5.40572e-10
5.82593e-11
2.90423e-09
1.66379e-10
3.28331e-10
7.69962e-05
0.000103518
6.40513e-07
5.85143e-10
7.07034e-11
2.59498e-12
2.68436e-14
2.10932e-14
1.17844e-13
3.60612e-13
7.05765e-13
1.0186e-12
1.23962e-12
1.37719e-12
1.43948e-12
1.3166e-12
3.17998e-23
3.39659e-17
1.63626e-12
4.77326e-11
2.60798e-10
1.74081e-10
1.69342e-10
2.20584e-10
1.1702e-05
8.49489e-11
5.02154e-11
3.5316e-08
2.01645e-10
4.25661e-06
5.93033e-06
7.57147e-08
7.78215e-05
8.59653e-09
7.69933e-10
1.42479e-10
5.95818e-12
5.98733e-14
6.22014e-16
1.42076e-15
3.0997e-15
4.72439e-15
5.74681e-15
6.10058e-15
5.9182e-15
5.2346e-15
8.58542e-25
1.13098e-18
4.19616e-14
2.52219e-11
1.36234e-10
6.31431e-11
5.353e-11
7.49245e-11
1.26651e-10
1.25446e-11
5.92571e-11
6.29445e-09
3.63107e-10
2.13154e-05
0.00014505
0.000112953
2.67483e-09
7.75951e-05
1.35901e-05
8.27047e-09
2.56944e-10
8.70597e-12
7.94527e-14
5.20052e-16
6.02572e-18
4.30882e-18
4.99847e-18
4.92923e-18
4.36997e-18
3.61347e-18
9.31072e-27
2.47281e-20
1.1673e-15
2.81012e-12
2.15832e-11
1.02993e-11
9.43357e-12
1.33704e-11
8.80413e-12
1.3843e-11
1.57849e-10
3.20269e-09
1.39744e-08
1.0923e-07
1.87036e-08
7.43545e-06
1.83979e-09
9.39649e-06
8.02032e-06
7.69955e-05
9.70966e-10
2.17754e-10
5.09783e-12
6.74252e-14
8.7983e-16
1.33782e-17
2.76381e-19
8.81772e-21
7.441e-22
3.01215e-22
4.42558e-29
2.08548e-22
2.04521e-17
1.20489e-13
4.99965e-13
7.51519e-13
9.15258e-13
1.24387e-12
3.94605e-13
4.22645e-11
1.47417e-10
1.04957e-09
2.33436e-08
1.34351e-05
1.38901e-09
2.15938e-09
4.98095e-09
1.3796e-09
3.46562e-09
0.000317338
7.68937e-10
4.80814e-10
4.92875e-11
1.52639e-12
4.28791e-14
1.21905e-15
3.67066e-17
1.25587e-18
5.22167e-20
2.72261e-21
1.14051e-31
7.17893e-25
1.25252e-19
1.15049e-15
3.90389e-15
2.42556e-14
4.76349e-14
5.9319e-14
5.59653e-14
1.08479e-10
0.00034102
8.97104e-10
1.93641e-08
7.36755e-08
2.84484e-07
1.39283e-09
1.10426e-09
6.06612e-10
5.96411e-10
5.6681e-10
4.63059e-10
2.37231e-10
4.92648e-11
4.28774e-12
2.33974e-13
9.12747e-15
2.94597e-16
9.09508e-18
3.04168e-19
1.21261e-20
1.72784e-34
1.28998e-27
2.93642e-22
2.9545e-18
2.42187e-17
4.05375e-16
1.19747e-15
1.52526e-15
8.97917e-13
7.69497e-11
0.000557395
3.67899e-05
2.10941e-05
8.95982e-08
6.03934e-07
8.74876e-06
9.3355e-08
4.34864e-10
1.93003e-10
1.93239e-10
1.22153e-10
4.83377e-11
1.19182e-11
1.65589e-12
1.29567e-13
6.24341e-15
2.134e-16
6.08238e-18
1.68373e-19
5.09844e-21
1.34809e-37
1.36029e-30
3.49103e-25
3.37022e-21
9.43014e-20
3.05535e-18
1.36833e-17
2.55743e-17
1.16535e-11
1.15417e-05
0.000967677
7.05188e-06
1.69255e-05
0.000250487
3.72447e-08
3.59691e-08
9.07071e-08
8.03164e-05
1.55039e-10
7.06315e-11
5.171e-11
2.01631e-11
4.1974e-12
5.23727e-13
3.87708e-14
1.7563e-15
5.34538e-17
1.25258e-18
2.61297e-20
5.51288e-22
4.5204e-41
7.45007e-34
2.30662e-28
2.19273e-24
1.63402e-22
8.88032e-21
6.88957e-20
5.22718e-16
1.00811e-10
0.000333925
0.00133938
6.45168e-05
4.06545e-06
0.00025229
0.000101991
1.63144e-06
7.15855e-07
2.81873e-08
8.85278e-06
2.01237e-10
1.52593e-11
7.31703e-12
1.39845e-12
1.42293e-13
8.38035e-15
2.98669e-16
6.97235e-18
1.19158e-19
1.68756e-21
2.22441e-23
5.854e-45
1.76894e-37
7.1718e-32
6.66639e-28
1.07149e-25
9.77291e-24
1.5014e-22
1.26356e-14
1.5103e-10
0.000352858
2.40433e-07
1.05699e-06
7.00489e-06
1.27402e-07
7.85877e-08
2.04459e-09
3.9895e-09
1.67208e-08
8.77589e-05
5.94919e-10
2.74956e-11
1.75227e-12
2.98912e-13
2.3272e-14
9.91221e-16
2.51734e-17
4.12374e-19
4.74704e-21
4.22929e-23
3.20365e-25
2.76829e-49
1.64906e-41
8.775e-36
7.93e-32
2.59602e-29
4.15403e-27
3.65517e-22
2.19881e-14
1.59194e-10
0.000218511
2.34022e-08
7.9033e-05
2.20502e-05
1.29773e-05
1.83192e-09
6.08912e-08
8.04897e-09
9.12734e-06
8.80325e-05
6.1769e-10
7.55971e-11
1.42097e-12
4.49051e-14
2.20131e-15
5.75237e-17
8.61331e-19
8.47333e-21
5.83147e-23
2.97803e-25
1.41604e-27
4.74085e-54
5.84876e-46
3.906e-40
3.64192e-36
2.44319e-33
8.12172e-31
6.64245e-23
1.52581e-15
6.29068e-11
0.000105263
4.01501e-07
3.0544e-09
7.76836e-08
2.15463e-09
1.96987e-09
7.63985e-07
1.46328e-05
3.67781e-05
1.57778e-05
3.97177e-10
3.49762e-11
9.28468e-13
1.02717e-14
1.22921e-16
1.73385e-18
1.71801e-20
1.11785e-22
4.86607e-25
1.44262e-27
2.9491e-30
3.27292e-59
8.24028e-51
6.46609e-45
7.29424e-41
1.19291e-37
1.4321e-34
1.61132e-25
2.70174e-18
3.39716e-13
1.75851e-10
2.53844e-06
1.80884e-05
1.72043e-05
1.98337e-05
3.08934e-06
9.36461e-09
1.26431e-06
3.39747e-11
3.06425e-11
7.63094e-12
6.34755e-13
2.07733e-14
2.26622e-16
9.57002e-19
2.63964e-21
7.97277e-24
2.10034e-26
3.67585e-29
3.833e-32
2.18888e-35
1.26781e-64
5.78595e-56
5.08745e-50
1.04219e-45
6.55269e-42
3.04479e-38
9.37626e-30
3.79661e-22
1.9676e-16
2.44533e-12
1.39833e-10
2.20256e-10
3.45884e-10
2.66269e-10
2.03643e-10
1.14872e-10
5.04004e-11
2.84546e-12
5.17146e-14
5.51959e-16
4.54483e-18
2.99851e-20
1.11035e-22
1.9171e-25
1.54689e-28
6.39464e-32
1.61679e-35
3.10384e-39
4.48014e-43
3.70412e-47
2.81851e-70
3.39938e-61
3.96181e-55
2.27406e-50
4.0013e-46
3.65773e-42
8.11318e-36
2.26471e-27
1.29861e-20
8.83574e-16
5.30829e-13
6.95462e-12
8.21956e-12
4.31589e-12
1.55636e-12
1.1013e-13
1.15976e-15
3.01194e-18
3.15152e-21
1.69732e-24
4.94724e-28
7.6913e-32
6.27589e-36
2.66693e-40
5.86196e-45
6.57792e-50
3.62238e-55
9.08086e-61
9.60219e-67
2.38051e-72
2.50816e-76
1.89372e-66
4.26682e-60
5.10091e-55
1.4982e-50
1.97772e-46
1.75247e-42
1.50081e-34
5.01455e-26
3.56188e-20
1.25282e-16
5.65725e-15
9.74905e-15
4.96214e-15
1.28845e-16
9.21104e-20
7.63122e-24
1.68194e-28
1.53786e-33
7.34196e-39
2.04289e-44
3.43087e-50
3.46652e-56
2.0639e-62
7.00119e-69
1.29135e-75
1.19704e-82
4.91546e-90
7.14678e-98
4.30683e-106
7.13419e-09
6.42069e-09
6.23483e-09
6.47899e-09
6.85465e-09
1.24525e-06
9.92996e-09
1.216e-08
7.62132e-09
7.02922e-09
6.49893e-09
4.53472e-09
1.9361e-09
3.03284e-10
1.12149e-11
8.8278e-13
0.00055861
8.16738e-07
0.997989
0.9959
0.999974
1
0.999987
1
1
1
1
1
1
1
6.79503e-09
6.16396e-09
6.04994e-09
6.42414e-09
7.47119e-09
1.28353e-06
8.53867e-09
7.91311e-09
7.26916e-09
6.31542e-09
6.0581e-09
3.81811e-09
1.62956e-09
1.9893e-10
5.60467e-12
4.76676e-07
0.000118349
8.51701e-05
0.00555494
1.15864e-05
0.234288
0.999997
0.999993
0.999811
1
1
1
1
0.0179203
2.29732e-11
6.52629e-09
5.95705e-09
5.90811e-09
6.4077e-09
1.12249e-06
8.65153e-09
9.40679e-09
1.30809e-08
6.73556e-09
4.95747e-06
4.10848e-09
2.19854e-07
1.57205e-09
1.20463e-10
2.50758e-12
1.68865e-06
2.93401e-06
1.62763e-05
1.09944e-06
6.86058e-11
1.76457e-08
0.122209
0.99999
0.997914
1
1
1
0.0766714
6.80951e-10
7.07349e-10
6.33563e-09
5.80638e-09
5.77265e-09
9.42038e-09
4.47246e-07
7.74471e-09
9.20196e-09
5.14974e-07
4.9679e-06
1.17485e-08
1.02173e-05
3.62162e-09
9.6384e-10
6.22278e-11
9.8172e-13
4.13912e-11
2.54681e-07
3.00365e-06
5.49241e-05
1.54179e-10
4.76442e-11
7.56654e-05
0.999999
0.999674
1
0.997938
0.761995
3.06323e-05
6.20649e-07
8.57187e-11
6.24946e-09
5.70485e-09
5.6051e-09
6.40519e-09
6.51428e-09
7.40097e-09
7.49908e-09
3.9025e-05
1.00681e-08
1.69905e-08
7.3635e-09
3.30809e-09
5.4165e-10
2.77572e-11
3.34384e-13
1.3934e-11
9.47508e-07
3.09136e-05
2.34852e-08
7.23692e-09
1.08207e-06
1.33755e-06
0.999996
0.99742
1
0.999226
0.0686343
5.45196e-06
4.75589e-07
3.2432e-12
6.38717e-09
5.59751e-09
5.52569e-09
5.84985e-09
5.86186e-09
6.3714e-09
4.52913e-08
5.59468e-08
6.93816e-09
5.13736e-09
4.88696e-09
1.94748e-09
2.59883e-10
1.0433e-11
9.74961e-14
7.14204e-11
0.000125337
5.21135e-08
7.07085e-07
7.94222e-09
-9.036e-10
2.22768e-06
0.851707
0.99833
0.999415
0.650139
1.37678e-05
7.67044e-06
7.47854e-06
1.97216e-13
6.87649e-09
2.56148e-08
5.51708e-09
5.79767e-09
3.53387e-08
5.06588e-09
4.29811e-09
5.32312e-09
4.67907e-07
1.35377e-06
3.6024e-09
1.00019e-09
1.02213e-10
3.21859e-12
2.38846e-14
4.3701e-10
2.36425e-05
5.39711e-08
1.04809e-07
8.80813e-10
-3.20725e-12
0.000372398
0.0171149
0.999999
0.999999
0.0211338
0.000338563
0.0001537
1.48953e-09
5.58015e-14
7.36918e-09
7.6007e-09
4.52064e-08
7.91467e-09
1.20637e-07
1.32952e-08
0.000131331
6.31012e-09
5.79919e-09
4.13787e-09
1.95492e-09
3.9634e-10
3.1314e-11
7.89628e-13
5.00907e-15
1.53652e-10
9.98184e-05
5.9423e-08
0.000111707
3.90653e-09
4.50653e-10
7.61157e-05
3.13852e-06
0.95991
0.999999
0.000152074
4.70037e-05
2.59237e-05
9.46045e-08
3.88992e-14
6.75281e-09
6.75418e-09
7.87608e-09
8.2927e-09
8.33398e-09
1.29442e-08
9.73699e-07
5.84878e-09
4.60963e-09
2.46699e-09
7.60086e-10
1.15273e-10
7.12578e-12
1.48802e-13
1.00655e-14
2.4508e-11
2.06819e-06
1.10925e-07
1.16441e-06
5.06508e-10
2.38735e-07
0.000166447
1.31994e-06
1.53813e-05
0.999927
0.000207647
2.74399e-05
0.000219706
1.08369e-10
3.02029e-14
1.41736e-07
9.96587e-08
8.19377e-09
8.44734e-07
7.71305e-09
7.03631e-09
5.33372e-09
4.36688e-09
2.49838e-09
9.27089e-10
2.03483e-10
2.29654e-11
1.14329e-12
2.8971e-14
5.02127e-13
2.22857e-12
1.83961e-06
0.000444956
2.98478e-06
2.97071e-10
3.28341e-08
1.69997e-05
4.37125e-07
1.88896e-05
3.53856e-05
4.49072e-05
0.000234023
1.8681e-06
5.4317e-10
1.72629e-14
2.98477e-06
3.4952e-06
3.50052e-06
5.90154e-09
6.06562e-09
5.27608e-09
3.70996e-09
2.04113e-09
7.94275e-10
2.07135e-10
3.30345e-11
2.87751e-12
1.25381e-13
2.84657e-13
1.59348e-11
1.38219e-11
0.00118354
0.000444856
2.3802e-06
2.80203e-10
5.13035e-07
0.000143826
5.01274e-06
3.45661e-05
4.35824e-05
3.20885e-08
1.29057e-05
0.00012444
2.51906e-09
2.95794e-15
3.92048e-09
3.58852e-09
3.21807e-09
3.18116e-09
2.64271e-09
1.88291e-09
1.05205e-09
4.29842e-10
1.22832e-10
2.37582e-11
2.90211e-12
2.09122e-13
9.74e-14
4.5802e-12
1.66235e-10
2.4688e-10
0.00066084
0.000405296
5.60807e-06
1.54594e-10
6.05979e-10
0.000193129
2.08358e-07
7.62843e-08
7.29314e-08
3.21432e-08
4.99699e-07
2.42242e-06
4.12183e-11
2.15347e-16
1.0907e-09
1.08552e-09
8.41039e-10
6.11745e-10
4.24219e-10
2.46967e-10
1.10554e-10
3.56934e-11
8.04285e-12
1.23305e-12
1.24243e-13
4.55156e-14
1.21116e-12
3.31187e-11
4.33476e-10
2.39309e-10
7.99658e-05
1.41401e-06
1.62137e-05
2.84313e-06
2.80401e-10
1.93011e-06
6.96183e-07
2.29034e-05
4.55284e-07
3.75209e-06
1.70441e-08
2.23054e-06
5.22882e-12
1.12707e-17
7.00703e-11
6.53104e-11
4.98572e-11
3.43001e-11
2.08831e-11
1.02954e-11
3.848e-12
1.03673e-12
1.95722e-13
2.61055e-14
3.1352e-14
6.35231e-13
9.29846e-12
1.13356e-10
3.29416e-10
9.21704e-07
0.000997962
5.36626e-06
3.33229e-07
4.09415e-06
8.74766e-09
1.33839e-06
3.0173e-05
9.84506e-07
1.2482e-05
3.76839e-07
3.83262e-11
1.55628e-10
3.04945e-13
4.42747e-19
1.18783e-12
1.04155e-12
7.76895e-13
5.041e-13
2.75472e-13
1.19262e-13
3.88568e-14
9.17272e-15
2.3648e-15
3.22006e-14
6.03677e-13
6.35303e-12
4.56753e-11
2.18929e-10
6.56436e-07
8.00386e-08
0.00400647
1.18415e-06
1.65338e-05
0.000118868
1.51255e-10
0.000102399
3.05937e-10
5.6598e-09
5.56423e-09
1.28759e-10
2.379e-11
3.27769e-11
9.4554e-15
1.29299e-20
4.47398e-15
3.73015e-15
2.68346e-15
1.63909e-15
8.20772e-16
3.2206e-16
1.17489e-16
8.53593e-16
2.91125e-14
6.41161e-13
6.75709e-12
3.95641e-11
1.6324e-10
5.60372e-10
3.84853e-07
6.62707e-09
0.00496921
1.33384e-05
4.68225e-05
7.01809e-05
7.8933e-11
9.22435e-05
2.59828e-10
7.43168e-10
9.16049e-11
5.25409e-11
3.69979e-12
6.72692e-12
1.92766e-16
2.40828e-22
2.89543e-18
2.29082e-18
1.5755e-18
9.14559e-19
6.93221e-19
1.07694e-17
3.87364e-16
1.21743e-14
3.29108e-13
5.3594e-12
4.01237e-11
1.5832e-10
4.21195e-10
9.76684e-10
2.2945e-09
1.75242e-09
0.00429925
3.2502e-07
4.32306e-06
6.02113e-06
1.02305e-11
4.09424e-10
9.33701e-11
6.68863e-11
5.47456e-11
8.87273e-12
3.2248e-13
2.94269e-13
2.20442e-18
3.57048e-24
2.05936e-22
1.56018e-22
2.89322e-22
9.85216e-21
5.59897e-19
2.85484e-17
1.12294e-15
3.16355e-14
6.58155e-13
8.92154e-12
6.436e-11
2.52916e-10
6.09148e-10
1.05513e-09
1.66148e-09
2.45955e-08
9.0902e-08
7.18079e-10
3.5732e-06
9.8599e-05
3.5993e-12
1.61181e-11
1.6261e-11
1.09939e-11
1.10251e-11
6.25648e-13
1.81033e-14
3.0233e-15
1.96963e-20
3.09675e-26
1.67353e-22
1.3872e-23
2.45327e-23
2.55121e-21
2.41063e-19
1.63006e-17
7.07441e-16
1.83943e-14
2.82125e-13
2.49969e-12
1.25273e-11
3.7281e-11
7.3725e-11
1.14702e-10
1.75496e-10
3.09189e-10
5.40658e-10
7.5421e-10
1.42451e-05
0.000102603
2.96071e-12
5.85948e-13
1.1297e-12
8.00555e-13
8.32466e-13
2.3861e-14
4.16218e-16
1.63782e-17
1.02839e-22
1.22225e-28
5.75064e-22
2.96448e-23
3.79429e-24
3.32385e-22
5.09043e-20
4.69077e-18
2.43458e-16
6.83596e-15
1.03269e-13
8.44625e-13
3.76778e-12
9.61954e-12
2.11351e-11
7.38486e-11
2.17108e-10
4.11004e-10
1.52499e-09
5.2302e-10
0.0024366
8.47761e-05
5.61496e-12
2.01677e-14
3.04117e-14
2.57432e-14
2.04157e-14
4.66232e-16
4.25151e-18
5.40358e-20
2.38942e-25
2.62689e-31
1.79668e-22
5.91732e-24
4.22223e-25
3.24677e-23
7.94819e-21
1.015e-18
6.54405e-17
2.093e-15
3.33916e-14
2.67712e-13
1.10647e-12
4.672e-12
3.57913e-11
1.55902e-10
4.09289e-10
5.37502e-10
4.67366e-05
6.11007e-05
0.00465974
4.39414e-05
1.55015e-11
2.52411e-15
3.7778e-16
3.02028e-16
1.89475e-16
3.9724e-18
2.20834e-20
7.79746e-23
3.0759e-28
3.33979e-34
1.26429e-23
2.65715e-25
1.13712e-26
1.98239e-24
8.02501e-22
1.49016e-19
1.26611e-17
4.9679e-16
9.30888e-15
8.26122e-14
5.7541e-13
7.78413e-12
5.08335e-11
1.7968e-10
3.15775e-10
6.80849e-07
2.56626e-08
1.03949e-07
1.12413e-06
6.12798e-06
3.68997e-11
9.71346e-15
4.19906e-18
1.31383e-18
5.70002e-19
1.24438e-20
4.89057e-23
6.27907e-26
2.34283e-31
2.01887e-37
2.85874e-25
3.39921e-27
8.86569e-29
5.88425e-26
4.1625e-23
1.20325e-20
1.48412e-18
8.7387e-17
2.41533e-15
3.22704e-14
6.13576e-13
8.15905e-12
3.98234e-11
2.25855e-10
7.34821e-08
7.0431e-09
2.51318e-08
9.47151e-06
2.54863e-07
0.000177669
9.16831e-11
1.26537e-13
1.18714e-19
3.51818e-21
5.27142e-22
1.12139e-23
3.54414e-26
2.67217e-29
8.11876e-35
4.67565e-41
2.13679e-27
1.35555e-29
2.37159e-31
6.10627e-28
8.17057e-25
4.17403e-22
1.09132e-19
1.42436e-17
5.84178e-16
1.5187e-14
4.24011e-13
4.08467e-12
4.27554e-11
2.29833e-10
3.29916e-07
1.44677e-05
1.03635e-07
2.41076e-06
5.461e-05
2.13782e-09
1.42696e-07
9.27388e-13
4.13857e-21
1.56415e-23
2.63112e-25
3.10039e-27
7.23627e-30
4.21188e-33
1.05255e-38
3.98796e-45
5.52355e-30
1.35078e-32
1.45865e-34
1.28527e-30
4.90493e-27
1.12864e-23
9.22299e-21
1.53528e-18
9.19663e-17
4.6556e-15
1.2042e-13
2.14886e-12
7.15978e-11
1.31799e-09
7.09702e-10
3.15936e-06
8.86348e-08
0.000289796
0.000874187
2.75239e-05
1.16937e-09
2.88989e-12
5.82389e-21
1.10277e-25
2.34848e-28
5.04936e-31
5.23725e-34
2.13126e-37
5.19647e-43
1.55836e-49
3.52602e-33
1.65424e-36
9.74737e-39
1.07973e-33
3.9274e-29
2.03853e-25
1.70459e-22
4.7116e-20
7.09103e-18
4.96249e-16
2.02687e-14
2.14994e-12
9.80693e-11
2.10396e-09
2.12539e-08
1.10949e-07
0.00014616
0.000146984
1.6773e-06
0.000412648
1.53251e-10
3.03335e-12
6.6422e-20
4.24064e-28
3.36924e-31
1.63597e-34
3.74955e-38
5.04924e-42
1.49773e-47
5.34416e-54
5.06701e-39
2.43776e-43
2.14947e-44
1.04612e-37
1.25944e-32
1.13277e-28
2.6271e-25
1.94899e-22
4.61431e-20
5.59774e-18
2.56942e-15
7.43084e-13
4.58596e-11
6.91537e-10
1.4151e-06
6.62241e-08
7.02015e-08
0.000166711
1.08178e-07
0.000412672
2.74389e-10
1.98215e-12
1.2492e-19
6.69308e-31
2.5326e-34
5.55291e-38
4.91338e-42
1.83785e-46
5.57009e-52
1.83436e-58
1.00267e-51
2.60597e-57
1.26485e-53
6.07941e-47
9.85079e-42
2.45856e-37
1.8924e-33
2.13649e-29
3.40461e-25
2.29223e-21
5.40801e-18
4.17623e-15
9.97608e-13
6.86632e-11
5.08002e-10
2.867e-05
1.87455e-08
1.02821e-07
3.43566e-06
0.000133897
2.80716e-10
2.22519e-13
2.11855e-20
4.14292e-34
7.92205e-38
8.81296e-42
4.02731e-46
7.17379e-51
1.67645e-56
2.86997e-63
1.43151e-77
3.39548e-78
2.51134e-69
1.06572e-61
7.49044e-55
1.4119e-48
9.09404e-43
2.23947e-37
2.20157e-32
8.57715e-28
1.2783e-23
6.90837e-20
1.26486e-16
7.35129e-14
1.35403e-11
1.92356e-10
2.27343e-09
6.59689e-06
2.31999e-06
3.08535e-10
5.42478e-12
4.11589e-16
3.14258e-23
9.67124e-38
1.03876e-41
6.32137e-46
1.56674e-50
1.48477e-55
2.26328e-61
1.45018e-68
1.72425e-113
9.51094e-104
8.07413e-94
8.32687e-85
1.97816e-76
1.50054e-68
4.34167e-61
5.22888e-54
2.72546e-47
6.14693e-41
5.85591e-35
2.25765e-29
3.34941e-24
1.84789e-19
3.34249e-15
2.06663e-12
5.57476e-11
1.51968e-10
1.2573e-10
9.71886e-12
3.35813e-15
3.76898e-21
5.60638e-30
7.97089e-42
5.93911e-46
2.33606e-50
3.51386e-55
1.82175e-60
1.57242e-66
2.38675e-74
1
1
1
1
1
1
1
1
1
1
1
1
1
1
1
1
1
1
1
1
1
1
1
1
1
1
1
1
1
1
1
1
1
1
1
1
1
1
1
1
1
1
1
1
1
1
1
1
1
1
1
1
1
1
1
1
1
1
1
1
1
1
1
1
1
1
1
1
1
1
1
1
1
1
1
1
1
1
1
1
1
1
1
1
1
1
1
1
1
1
1
1
1
1
1
1
1
1
1
1
1
1
1
1
1
1
1
1
1
1
1
1
1
1
1
1
1
1
1
1
1
1
1
1
1
1
1
1
1
1
1
1
1
1
1
1
1
1
1
1
1
1
1
1
1
1
1
1
1
1
1
1
1
1
1
1
1
1
1
1
1
1
1
1
1
1
1
1
1
1
1
1
1
1
1
1
1
1
1
1
1
1
1
1
1
1
1
1
1
1
1
1
1
1
1
1
1
1
1
1
1
1
1
1
1
1
1
1
1
1
1
1
1
1
1
1
1
1
1
1
1
1
1
1
1
1
1
1
1
1
1
1
1
1
1
1
1
1
1
1
1
1
1
1
1
1
1
1
1
1
1
1
1
1
1
1
1
1
1
1
1
1
1
1
1
1
1
1
1
1
1
1
1
1
1
1
1
1
1
1
1
1
1
1
1
1
1
1
1
1
1
1
1
1
1
1
1
1
1
1
1
1
1
1
1
1
1
1
1
1
1
1
1
1
1
1
1
1
1
1
1
1
1
1
1
1
1
1
1
0.999891
1
1
1
1
1
1
1
1
1
1
1
1
1
1
1
1
1
1
1
1
1
1
1
1
1
1
1
1
1
0.999774
1
1
1
1
1
1
1
1
1
1
1
1
1
1
1
1
1
1
1
1
1
1
1
1
1
1
1
1
1
1
1
1
1
1
1
1
1
1
1
1
1
1
1
1
1
1
1
1
1
1
1
1
1
1
1
1
1
1
1
1
1
1
1
1
1
1
1
1
1
1
1
1
1
1
1
1
1
1
1
1
1
1
1
1
1
1
1
1
1
1
1
1
1
1
1
1
1
1
1
1
1
1
1
1
1
1
1
1
1
1
1
1
1
1
1
1
1
1
1
1
1
1
1
1
1
1
1
1
1
1
1
1
1
1
1
1
1
1
1
1
1
1
1
1
1
1
1
1
1
1
1
1
1
1
1
1
1
1
1
1
1
1
1
1
1
1
1
1
1
1
1
1
1
1
1
1
1
1
1
1
1
1
1
1
1
1
1
1
1
1
1
1
1
1
1
1
1
1
1
1
1
1
1
1
1
1
1
1
1
1
1
1
1
1
1
1
1
1
1
1
1
1
1
1
1
1
1
1
1
1
1
0.99999
1
1
1
1
1
1
1
1
1
1
1
1
1
1
1
1
1
1
1
1
1
1
1
0.999999
0.997859
1
1
1
1
1
1
1
1
1
1
1
1
1
1
1
1
1
1
1
1
1
1
1
1
1
1
1
1
1
1
0.999117
0.999666
1
1
0.99923
0.998844
1
1
1
1
1
1
1
1
1
1
1
1
1
1
1
1
1
1
1
1
1
1
1
0.998333
0.988682
1
1
0.999996
1
0.999997
1
1
1
1
1
1
1
1
1
1
1
1
1
1
1
1
1
1
1
1
1
1
0.998079
4.69721e-05
3.04066e-05
6.92139e-06
0.308106
1
1
1
1
1
1
1
1
1
1
1
1
1
1
1
1
1
1
1
1
1
1
1
1
1
6.26783e-05
7.34465e-09
4.45711e-09
4.94583e-09
5.72678e-07
0.000700862
0.896783
1
1
1
1
1
1
1
1
1
1
1
1
1
1
1
1
1
1
1
1
1
1
0.0657564
1.85552e-07
2.95816e-09
3.93825e-09
4.49195e-09
4.70799e-09
2.14327e-07
4.84189e-05
0.00194117
0.731844
1
1
1
1
1
1
1
1
1
1
1
1
1
1
1
1
1
1
1
0.942956
-2.45709e-06
1.63124e-09
2.74159e-09
4.66008e-09
1.30521e-07
4.51492e-09
4.94401e-09
1.44715e-08
1.21075e-06
2.50691e-05
0.000158926
0.00134543
0.539976
0.999854
1
1
1
1
1
1
1
1
1
1
0.999993
1
0.99999
1
1
0.000411286
5.19938e-10
1.26534e-09
3.07596e-09
5.35823e-09
7.95701e-09
6.40588e-09
5.21241e-09
5.39912e-09
6.16756e-09
1.47239e-08
2.29792e-08
1.58389e-08
1.10912e-06
8.37483e-06
4.33319e-05
3.42117e-05
1
1
1
1
1
1
1
1
0.999962
0.999967
0.999992
1
0.992687
7.8074e-07
3.11611e-10
1.2168e-09
1.46367e-07
1.9714e-07
5.97634e-09