/*--------------------------------*- C++ -*----------------------------------*\
| =========                 |                                                 |
| \\      /  F ield         | OpenFOAM: The Open Source CFD Toolbox           |
|  \\    /   O peration     | Version:  2.4.0                                 |
|   \\  /    A nd           | Web:      www.OpenFOAM.org                      |
|    \\/     M anipulation  |                                                 |
\*---------------------------------------------------------------------------*/
FoamFile
{
    version     2.0;
    format      ascii;
    class       volScalarField;
    location    "0.199";
    object      p_rgh;
}
// * * * * * * * * * * * * * * * * * * * * * * * * * * * * * * * * * * * * * //

dimensions      [1 -1 -2 0 0 0 0];

internalField   nonuniform List<scalar> 
3600
(
93.1216
90.3022
88.1988
88.3408
90.3487
92.767
94.9679
95.7238
96.8016
96.9799
97.2383
96.85
96.7708
96.6831
96.3129
96.3729
96.4685
96.1775
95.7111
95.0397
95.7774
96.3687
96.9259
97.6847
97.107
97.5284
98.4709
98.6302
98.6598
98.7006
93.124
90.2958
88.1848
88.3281
90.3437
92.7749
94.9749
95.7329
96.8119
96.9897
97.2428
96.8543
96.7757
96.6887
96.3029
96.3731
96.4472
96.0612
95.5174
95.0111
94.7064
94.7114
95.2201
95.9091
96.8402
97.3673
97.5416
97.6926
97.7922
97.8489
93.1345
90.2861
88.1589
88.3017
90.3324
92.7884
94.9883
95.7457
96.8284
97.009
97.252
96.8525
96.7775
96.6877
96.2958
96.387
96.3699
96.0845
95.5916
94.7851
93.7512
93.7022
94.5026
95.2293
96.1854
96.9914
97.2546
97.4699
97.5627
97.6101
93.1527
90.2732
88.1201
88.2612
90.3139
92.8076
95.0072
95.7637
96.8512
97.0395
97.2667
96.8467
96.7751
96.6826
96.2954
96.4179
96.4333
96.1719
95.688
94.6397
92.7271
92.3538
93.6766
94.9086
95.963
96.5654
96.9452
97.1614
97.2251
97.2103
93.1785
90.2568
88.0684
88.2063
90.2883
92.8331
95.0315
95.7869
96.8797
97.0803
97.2903
96.8401
96.7615
96.6697
96.2937
96.456
96.516
96.2949
95.6742
94.1409
91.5552
91.2533
92.5776
93.9941
95.2838
96.2174
96.6237
96.9132
96.957
96.9649
93.2124
90.237
88.0034
88.1368
90.2556
92.8654
95.0612
95.8154
96.9133
97.1307
97.3255
96.8364
96.7255
96.6429
96.2845
96.4732
96.5088
96.3821
95.6556
93.8099
91.0156
90.5728
92.1158
93.7599
95.0593
95.936
96.3541
96.6259
96.7409
96.7746
93.2543
90.2136
87.925
88.0522
90.2153
92.905
95.0962
95.8492
96.9518
97.1902
97.3707
96.8367
96.6926
96.6037
96.2639
96.4295
96.3973
96.3113
95.7972
93.762
90.862
90.3981
91.9906
93.6714
94.9936
95.7141
96.1503
96.4073
96.5411
96.5934
93.3046
90.1866
87.8329
87.9519
90.1675
92.9526
95.1364
95.8883
96.9953
97.2587
97.423
96.8367
96.7133
96.5795
96.2108
96.3236
96.1964
96.1641
95.5941
93.8197
91.2871
90.8172
92.3708
93.8262
94.8919
95.6078
96.0076
96.2262
96.3382
96.3916
93.3636
90.1559
87.7266
87.8355
90.1119
93.0091
95.1817
95.933
97.0444
97.3374
97.482
96.8308
96.7848
96.5753
96.1228
96.2301
96.0296
96.0364
95.3169
93.9677
91.8994
91.5429
92.9028
94.1474
95.0069
95.5765
95.9123
96.0945
96.1898
96.261
93.4314
90.1215
87.6058
87.7021
90.0482
93.0755
95.2317
95.9834
97.0997
97.4288
97.5483
96.8161
96.8669
96.5717
96.0211
96.1635
95.9571
95.9313
95.3105
94.2006
92.7678
92.5017
93.5918
94.4841
95.153
95.6264
95.9005
96.0312
96.0931
96.157
93.5084
90.0831
87.4701
87.5511
89.9764
93.1525
95.2863
96.0397
97.1611
97.5353
97.6209
96.7911
96.9382
96.5633
95.916
96.0775
95.9389
95.8587
95.3909
94.6494
93.7732
93.5643
94.207
94.8054
95.2957
95.6667
95.9148
96.0145
96.049
96.0838
93.5951
90.0409
87.3189
87.3814
89.8962
93.2413
95.3452
96.1019
97.2278
97.6579
97.6985
96.7547
96.9997
96.5709
95.808
95.9551
95.8635
95.7934
95.4893
95.0818
94.5336
94.3809
94.7175
95.1077
95.4296
95.6721
95.8565
95.9627
96.0014
96.0038
93.6918
89.9945
87.1518
87.1922
89.8076
93.3429
95.4079
96.17
97.2982
97.797
97.7766
96.7074
97.0534
96.5965
95.6974
95.8195
95.7158
95.7375
95.581
95.381
95.0237
94.949
95.146
95.3804
95.552
95.6889
95.8206
95.9236
95.9718
95.9711
93.799
89.9439
86.9681
86.9823
89.7106
93.4584
95.474
96.2438
97.371
97.954
97.854
96.6442
97.1207
96.6389
95.5737
95.6728
95.5762
95.7206
95.6595
95.5881
95.4202
95.3753
95.4827
95.6097
95.6599
95.6375
95.6921
95.8643
95.96
95.9506
93.9172
89.889
86.7671
86.7503
89.6052
93.589
95.5429
96.3233
97.4455
98.1306
97.9281
96.5626
97.2012
96.6989
95.4692
95.5319
95.4502
95.6919
95.7145
95.7465
95.7095
95.6766
95.7147
95.8117
95.8573
95.7703
95.6866
95.8225
95.9457
95.9207
94.0469
89.8296
86.5481
86.4948
89.4917
93.7359
95.6141
96.4078
97.5207
98.3293
97.9929
96.4589
97.3025
96.7543
95.2815
95.2866
95.3385
95.6281
95.713
95.8635
95.9366
95.9009
95.8623
95.9026
95.9958
96.0333
95.9565
95.9278
95.9721
95.9223
94.1889
89.7656
86.3103
86.2142
89.3705
93.9006
95.6864
96.499
97.5953
98.5504
98.0412
96.3268
97.4237
96.8281
95.0763
94.9533
95.1554
95.5594
95.736
95.962
96.1791
96.0823
95.9763
95.914
95.9252
95.9819
96.0052
95.9204
95.8991
95.9067
94.3438
89.6968
86.0529
85.9064
89.2418
94.0846
95.7596
96.5895
97.6619
98.801
98.065
96.1401
97.5772
96.9281
94.8379
94.5576
94.929
95.5138
95.7987
96.0564
96.343
96.2632
96.0807
95.9527
95.8997
95.9644
96.0472
95.9819
95.9676
96.0793
94.5123
89.6229
85.7749
85.5694
89.1062
94.2901
95.8303
96.6952
97.7311
99.0732
98.0545
95.9425
97.7367
97.0331
94.4911
93.9662
94.7141
95.4858
95.8564
96.1488
96.4773
96.4182
96.1803
96.0709
95.9414
95.9926
96.127
96.1416
96.1311
96.1946
94.6952
89.5442
85.4753
85.2013
88.9642
94.5194
95.8971
96.7855
97.7838
99.3873
97.9959
95.6408
97.9177
97.1784
94.1329
93.3209
94.5639
95.4598
95.8631
96.1835
96.5483
96.4753
96.0949
96.0446
96.0525
96.1199
96.2729
96.2938
96.2561
96.2834
94.8936
89.4612
85.1535
84.8007
88.8164
94.7748
95.9916
96.9029
97.8269
99.708
97.1727
95.3486
98.0312
97.0539
93.555
92.8056
94.5645
95.4228
95.812
96.1892
96.5419
96.343
95.835
95.9768
96.2009
96.3349
96.412
96.4106
96.3666
96.3818
95.1081
89.3762
84.8099
84.3687
88.6629
95.0588
95.9602
97.0092
97.902
100.084
96.1953
94.9496
97.9735
96.7817
93.2477
91.7802
94.018
95.4541
95.7341
96.2337
96.1921
96.2503
95.8079
96.041
96.3585
96.508
96.5497
96.5353
96.5198
96.5419
95.3407
89.2914
84.448
83.9139
88.5051
95.3694
96.1366
97.1339
97.9572
100.12
95.95
94.0147
97.3203
96.4619
92.693
90.478
93.8416
95.5306
95.6301
96.3622
96.2686
96.1905
96.0876
96.2468
96.506
96.5707
96.6177
96.639
96.6575
96.6647
95.5915
89.21
84.0753
83.4222
88.3412
95.6958
96.0839
97.2989
98.0093
100.133
94.4183
93.3385
96.6699
96.0168
91.3565
89.4465
93.4957
95.6294
95.6554
96.3574
96.2142
96.8325
96.411
96.4914
96.6613
96.6926
96.7286
96.7404
96.7592
96.7748
95.8632
89.1399
83.6881
82.4114
88.1773
96.0102
96.02
96.443
97.9421
100.428
95.5006
93.7322
96.58
95.6958
91.3664
89.3275
93.2834
95.9362
95.7142
95.8444
96.2966
96.9657
96.6428
96.7095
96.7667
96.7632
96.7878
96.811
96.8511
96.8742
96.1579
89.073
63.8398
40.2911
78.2609
96.3126
99.1439
98.1807
97.9968
100.65
95.7623
93.428
97.055
95.5422
90.6793
89.6601
93.4521
95.9504
95.7418
96.6259
96.4248
96.6295
96.715
96.8877
96.8746
96.8865
96.9168
96.9381
96.9775
96.9907
96.4784
85.9669
11.4
14.6861
47.6538
93.6549
97.4177
95.9275
98.1018
100.931
96.5134
95.2199
97.4875
95.1967
91.3624
91.082
93.2502
95.7113
95.438
95.6589
96.7739
96.9676
96.9466
96.9522
96.8454
96.8708
96.9885
97.0441
97.1055
97.124
96.8149
32.0163
3.99023
15.4384
53.6372
86.4417
97.3174
94.499
98.5748
101.237
97.4885
96.4408
97.9615
95.1764
92.1341
91.9855
93.4053
95.6698
95.6237
97.0482
97.1076
96.956
97.0774
96.9468
96.9765
96.9774
97.1519
97.1859
97.2451
97.2743
87.692
1.07111
3.14358
4.36306
23.3868
81.8029
97.0942
94.3859
98.7618
101.444
98.4269
96.9736
98.4992
93.6076
82.4994
87.7803
90.6657
95.7626
95.9376
97.4445
97.0578
97.0408
97.1939
97.3015
97.2039
97.1087
97.2176
97.2964
97.3584
97.4123
19.268
1.06302
0.540424
0.0101401
8.0408
49.7149
72.1143
63.4767
93.9773
101.643
94.8311
88.7858
94.5381
42.9837
22.109
15.2913
15.4022
40.4247
39.3424
63.3136
58.8295
65.9409
64.8022
70.2321
67.6022
68.7636
68.0713
69.0969
68.7696
69.2438
98.7036
98.7449
98.748
98.0215
97.7836
98.2599
97.6603
96.7242
96.0028
95.2821
94.5901
95.2506
95.5341
95.9344
95.7093
95.5379
95.687
95.5228
95.3867
95.3336
94.7292
94.5777
93.9184
94.1354
92.8947
91.2049
89.1215
88.6717
90.7804
93.3051
97.8539
97.8192
97.7876
97.7206
97.4927
96.9353
96.0992
95.2904
94.3355
93.9097
94.5279
95.0606
95.3675
95.8144
95.7143
95.5327
95.6953
95.5278
95.3929
95.3402
94.7336
94.5771
93.9199
94.1423
92.9046
91.2053
89.1123
88.6567
90.7736
93.3071
97.5949
97.5427
97.4291
97.3776
97.0957
96.3976
95.6946
94.837
93.3998
93.4714
94.4505
95.0722
95.3901
95.762
95.7231
95.5293
95.6996
95.5291
95.3967
95.3461
94.7378
94.5728
93.9181
94.1558
92.9237
91.2057
89.0928
88.6304
90.7633
93.3168
97.2394
97.2781
97.197
97.0109
96.7373
96.134
95.4214
94.1679
92.0758
91.8058
93.9874
95.1355
95.4719
95.8285
95.7573
95.5459
95.6987
95.5247
95.4002
95.3541
94.7432
94.5648
93.9143
94.175
92.9519
91.2051
89.0623
88.5909
90.7493
93.3335
96.9584
96.9144
96.7893
96.5855
96.2476
95.543
94.5231
93.0907
91.1141
90.9697
93.3596
95.1007
95.7004
95.932
95.8083
95.5645
95.6932
95.5105
95.4065
95.3665
94.7502
94.553
93.9087
94.2003
92.9897
91.2038
89.0207
88.5379
90.7316
93.3576
96.7529
96.6568
96.4723
96.2046
95.8723
95.2476
94.2286
92.818
90.7953
90.578
93.1608
95.0679
95.7142
95.9389
95.8415
95.5787
95.6782
95.477
95.42
95.3848
94.7585
94.537
93.9012
94.2318
93.0374
91.2017
88.9676
88.4713
90.7099
93.3891
96.5507
96.4311
96.2356
95.989
95.6633
95.1103
94.2126
92.7382
90.8718
90.7306
93.1165
95.2871
95.6643
95.8513
95.821
95.5862
95.6501
95.4292
95.4425
95.4066
94.767
94.5163
93.8914
94.2697
93.0958
91.1991
88.9028
88.3907
90.6843
93.4282
96.3548
96.2537
96.0849
95.862
95.54
95.0319
94.2109
93.1397
91.4982
91.2863
93.219
94.9693
95.5626
95.6859
95.7402
95.5678
95.6344
95.4242
95.4718
95.4302
94.7751
94.4901
93.8788
94.3143
93.1653
91.1961
88.8257
88.2958
90.6545
93.4753
96.21
96.124
95.9749
95.7838
95.5137
95.0975
94.4665
93.5315
92.1518
92.0284
93.3928
94.8629
95.4674
95.5241
95.6581
95.5174
95.6395
95.4721
95.5026
95.4558
94.7829
94.4579
93.8632
94.3656
93.2467
91.1932
88.7358
88.1861
90.6204
93.5305
96.0966
96.0407
95.9427
95.7984
95.5674
95.2136
94.7275
94.0618
93.1332
92.9446
93.837
94.8965
95.4071
95.4501
95.614
95.45
95.6504
95.5441
95.532
95.4876
94.7917
94.4191
93.844
94.4239
93.3408
91.1906
88.6323
88.0611
90.5818
93.5941
96.036
96.0002
95.9227
95.7998
95.6016
95.3165
94.9688
94.5092
93.9462
93.8226
94.4021
94.9896
95.3928
95.4605
95.5802
95.3956
95.6514
95.6065
95.558
95.5276
94.8031
94.3729
93.8207
94.4896
93.4483
91.1891
88.5144
87.9204
90.5387
93.6666
95.9841
95.9596
95.9011
95.7866
95.6147
95.412
95.2008
94.894
94.5078
94.4274
94.7863
95.0883
95.3847
95.4521
95.5364
95.3406
95.6635
95.6499
95.5792
95.5768
94.8179
94.3179
93.7924
94.5629
93.5702
91.1892
88.3813
87.7631
90.4907
93.7482
95.9668
95.9294
95.8317
95.7186
95.5982
95.4947
95.4033
95.2057
94.9211
94.8388
94.9892
95.1697
95.3752
95.4041
95.4971
95.3082
95.6919
95.673
95.6035
95.6328
94.8354
94.2523
93.7578
94.6443
93.7074
91.1919
88.2317
87.5887
90.4376
93.8394
95.9195
95.8513
95.7597
95.6603
95.6113
95.6128
95.5802
95.4331
95.2282
95.1423
95.1543
95.2204
95.3867
95.343
95.4528
95.2669
95.7369
95.6935
95.6237
95.6963
94.8556
94.1739
93.7157
94.7342
93.8607
91.1981
88.0645
87.3964
90.3792
93.9408
95.8381
95.8126
95.8347
95.8491
95.8162
95.7959
95.7474
95.6013
95.4524
95.342
95.2913
95.2382
95.3794
95.2835
95.4231
95.2601
95.8009
95.7189
95.6654
95.7658
94.8775
94.0803
93.6644
94.8329
94.0292
91.2086
87.8782
87.1852
90.3153
94.0528
95.7936
95.7749
95.8985
95.9322
95.8581
95.8399
95.8727
95.7319
95.6241
95.466
95.3695
95.2092
95.3324
95.2429
95.3284
95.3202
95.8924
95.7446
95.6741
95.8459
94.9077
93.9695
93.6017
94.9412
94.2192
91.2248
87.6714
86.9543
90.2454
94.1761
95.87
95.8494
95.8822
95.7687
95.7068
95.8108
95.9734
95.8758
95.7869
95.5526
95.4407
95.2042
95.2873
95.1663
95.202
95.1298
95.9237
95.7895
95.7406
95.9399
94.9309
93.8337
93.53
95.0594
94.4301
91.2477
87.4422
86.7024
90.1694
94.3112
96.083
96.0441
95.959
95.7333
95.6999
95.8551
96.0519
95.8848
95.7128
95.4693
95.4091
95.2081
95.2466
95.0348
95.0507
95.2001
96.0863
95.8176
95.7268
96.011
94.9661
93.6839
93.4325
95.1886
94.6633
91.2785
87.1887
86.4286
90.0869
94.459
96.2296
96.16
96.064
95.8448
95.7584
95.901
96.009
96.0014
95.853
95.4826
95.2678
95.1911
95.1858
94.9141
94.8726
95.0269
96.1139
95.8478
95.8005
96.1805
95.0079
93.4774
93.3282
95.3286
94.9206
91.3186
86.909
86.1313
89.9975
94.6201
96.3124
96.2894
96.221
96.135
96.0078
96.0104
95.9873
95.6424
95.986
95.6074
95.2202
95.1226
95.1269
94.8134
94.6438
94.8881
96.1955
95.8852
95.8464
96.2255
95.0566
93.2644
93.1833
95.4815
95.2051
91.3691
86.6008
85.8094
89.901
94.7954
96.425
96.4417
96.4243
96.3906
96.2422
96.0565
95.9191
95.7945
96.0772
95.7626
95.2362
94.9788
95.075
94.683
94.3763
94.7361
96.3811
95.9087
95.8466
96.3827
95.1254
92.9829
93.0597
95.6477
95.5141
91.4315
86.263
85.4615
89.7981
94.9862
96.582
96.6031
96.6246
96.6085
96.4223
96.2019
95.9827
96.292
95.8348
94.9509
95.2813
95.0396
95.036
94.4959
93.853
94.5318
96.5677
96.0262
95.8233
96.5626
95.2223
92.6656
92.8383
95.8345
95.863
91.5047
85.8947
85.0874
89.6911
95.1928
96.6868
96.7084
96.71
96.6698
96.5684
96.3985
96.1562
95.8962
95.7568
94.742
95.2378
94.9228
94.972
94.313
93.4259
94.2192
96.8053
96.1477
95.856
96.7387
95.31
92.3482
92.732
96.0537
96.2064
91.5898
85.5048
84.6891
89.583
95.4177
96.7846
96.7892
96.7765
96.7193
96.6731
96.6117
96.2577
96.156
95.9109
95.1285
94.6619
94.8508
94.956
93.8411
92.8157
93.8697
96.9434
96.1094
95.853
96.7482
95.3516
92.0639
92.3197
96.2952
96.6291
91.6709
85.085
84.2751
89.4787
95.6609
96.8786
96.8669
96.849
96.7846
96.7821
96.7929
96.3255
96.1489
96.7795
94.976
94.6439
94.1139
94.8652
93.6951
91.7261
93.1798
97.3199
96.0809
95.6413
97.0212
95.4308
92.6522
93.2992
96.4731
96.8839
91.7636
84.6777
83.8472
89.3883
95.9254
96.9913
96.9734
96.9569
96.8686
96.8372
96.996
96.3327
96.0386
96.8323
94.9009
94.163
94.1192
94.8968
92.8053
91.1184
92.4582
97.382
95.9977
95.7485
97.9483
95.4923
92.1594
92.9394
96.8394
97.5125
87.4857
55.7659
62.061
89.3063
96.2121
97.1296
97.1175
97.0735
97.0045
96.9088
97.0081
96.4766
96.2823
96.5742
95.4913
94.4677
94.043
94.9541
93.4992
92.4303
92.408
97.2476
95.5103
95.497
98.1757
95.9642
92.453
94.0129
96.7645
97.3715
70.5481
23.4773
10.3933
85.7332
96.5203
97.2918
97.3099
97.2675
97.2493
97.0997
97.0726
96.8515
96.618
96.4824
95.5755
94.6343
94.2444
94.8604
93.7505
93.0731
93.0215
97.649
95.8177
96.2449
99.5579
96.37
92.3576
94.1537
97.1092
94.9264
73.4562
25.6366
7.0625
36.0269
96.8313
97.4543
97.4841
97.4804
97.5184
97.3999
97.1671
97.3758
97.11
96.5757
95.431
94.4683
93.2805
94.6902
92.7576
91.4418
85.2832
98.0804
97.0925
96.7532
99.9561
96.3858
74.0532
86.657
97.121
94.2826
53.1149
13.5378
6.53322
1.31948
88.5398
69.0141
68.8295
68.2508
67.3823
66.301
63.5537
62.719
56.105
51.1886
37.9383
31.4803
18.8591
23.9543
12.7944
27.3293
28.9288
73.7407
85.0033
76.9651
97.9599
53.6174
9.44882
22.1827
59.7951
59.3028
17.4186
1.08055
2.77873
0.929375
22.1619
0.00698144
0.000286232
0.0305949
0.00050232
-0.0211221
6.65865
14.1229
3.43601
43.6081
90.2604
49.9757
18.3076
13.8134
0.0857623
0.912437
0.101032
0.0327116
0.0212382
0.0366587
1.74986
2.16008
6.82778
6.25123
8.32083
8.62373
10.5673
10.4021
10.979
10.5425
10.6503
0.00757106
8.3397e-05
0.0294718
-0.000587103
-0.0191124
-0.00408897
-0.00929434
-0.00365249
6.50178
43.4458
6.6245
0.0599975
0.0679454
0.0817755
0.000742649
0.0459716
0.0355506
0.0306582
0.0358809
0.0129004
0.0112896
0.00956435
0.0107765
0.00896181
0.0117605
0.0123851
0.0134966
0.01411
0.0144538
0.01428
0.00760567
7.31467e-05
0.0286113
-0.000725798
-0.0185197
-0.00410234
-0.00863411
-0.00366465
0.00182467
-0.00327
-0.0100896
0.353631
0.142543
0.03119
5.09458e-05
0.0510777
0.0319619
0.018307
0.0160066
0.0133268
0.0116917
0.0102158
0.0103491
0.00937724
0.0101066
0.0105112
0.0109906
0.0114999
0.0118925
0.0120014
0.00646454
-0.00078584
0.0278095
-0.000628343
-0.0175998
-0.00390132
-0.00868273
-0.00354704
0.00252281
-0.00197894
-0.00935467
-0.0121442
0.00737743
0.0251424
-0.00633277
0.0190741
0.0286382
0.0181268
0.0163635
0.0122585
0.0110715
0.0102616
0.0103839
0.00962771
0.0102178
0.0106309
0.0111117
0.011561
0.0119107
0.0120741
0.00626284
-0.000608138
0.0268838
-0.000413885
-0.0165487
-0.00376213
-0.00854681
-0.00320324
0.00226873
-0.00224876
-0.00933355
-0.0123129
0.00625197
0.016446
-0.0084209
-0.00406943
0.0286146
0.0164366
0.0163288
0.0121963
0.0110563
0.0106266
0.0104708
0.00982437
0.0103425
0.0107997
0.0112828
0.0116979
0.0120155
0.012109
0.00621568
-0.000292651
0.0257288
-0.000195323
-0.0156762
-0.00371083
-0.00820739
-0.00285184
0.00270698
-0.00194005
-0.00941973
-0.0126696
0.00529082
0.0107991
-0.0238953
-0.00453391
0.0271293
0.0153866
0.0167118
0.0120655
0.0110614
0.0105434
0.0102409
0.00999624
0.0104491
0.0109355
0.0113934
0.0117913
0.0121916
0.0127611
0.00617399
-0.000100017
0.0243522
-6.49155e-05
-0.0150352
-0.00367616
-0.00762926
-0.00242849
0.0026243
-0.00185552
-0.00970325
-0.013044
0.00377295
0.00148433
-0.0446101
-0.00947551
0.0268358
0.0148649
0.0171487
0.0120002
0.0108911
0.0102928
0.0101917
0.0101233
0.0105372
0.0110444
0.0114778
0.0122893
0.0131455
0.0137414
0.00614128
-4.21127e-05
0.0228559
-5.22671e-05
-0.0145434
-0.00356951
-0.00663914
-0.00186933
0.00291196
-0.00181289
-0.00999292
-0.0133988
0.00126
-0.00116216
-0.032197
0.0133994
0.0263297
0.0142888
0.0148292
0.012015
0.0109477
0.0103553
0.010228
0.0102031
0.0105809
0.0113567
0.012446
0.0128733
0.0132925
0.0125375
0.00610709
-6.16411e-05
0.0214049
-0.000117948
-0.0140033
-0.0034707
-0.00570665
-0.00135039
0.00251477
-0.00127739
-0.0105146
-0.0137382
-0.00147253
-0.00393125
-0.0255375
0.0153974
0.0484791
0.0141889
0.0144014
0.0121833
0.0110965
0.010484
0.0102908
0.0102338
0.0110031
0.0121899
0.0124983
0.0121079
0.0113517
0.0116116
0.00605869
-0.000102923
0.0200705
-0.000206713
-0.0132309
-0.00342217
-0.00450717
-0.00101798
0.00203292
8.16828e-06
-0.00993694
-0.0135905
-0.00397757
-0.00782284
0.0367795
0.0700709
0.0748887
0.0192123
0.0140495
0.0124749
0.0114083
0.010672
0.0103798
0.0102389
0.0118747
0.0123205
0.0109239
0.0108551
0.0110881
0.0112924
0.00599268
-0.000147713
0.0188124
-0.000297371
-0.0127178
-0.00359873
-0.00326433
-0.00105848
-6.33016e-05
-0.00065321
-0.0108731
-0.011066
-0.00588349
-0.00980988
-0.0116845
0.0655141
0.0765213
0.0256597
0.0142097
0.0129692
0.0118797
0.0109684
0.010489
0.0102443
0.0102553
0.0102328
0.0102691
0.0105026
0.010626
0.0108261
0.00590517
-0.000193827
0.0175531
-0.00034655
-0.0120602
-0.00398257
-0.002152
-0.00162186
-0.0024996
-0.00171646
-0.0123757
-0.0150181
-0.00750595
-0.0107641
-0.0138657
0.0219619
0.069989
0.0241805
0.0151022
0.0133777
0.0121896
0.0112628
0.0106893
0.0102213
0.010012
0.00993918
0.0099372
0.0100246
0.0101374
0.0102545
0.00579292
-0.000242444
0.0162863
-0.000317822
-0.0113143
-0.00432398
-0.00131333
-0.00267596
-0.0048989
-0.00312999
-0.0145572
-0.0162303
-0.00757279
-0.0110941
-0.0103699
0.0202576
0.0737085
0.0341482
0.0155463
0.0135048
0.0121314
0.0111819
0.0105222
0.010059
0.00977043
0.00957375
0.00951434
0.00950221
0.00953437
0.0095908
0.0056535
-0.000294533
0.0150243
-0.000251555
-0.0104335
-0.00431605
-0.000883039
-0.00394604
-0.00644379
-0.00677264
-0.0171441
-0.0167028
-0.0078836
-0.0105229
-0.00820458
0.00543294
0.0700217
0.0690111
0.017737
0.0129414
0.011675
0.0108653
0.0102319
0.00980058
0.00944215
0.00915634
0.00898914
0.00891252
0.00889851
0.00889082
0.00548523
-0.000340368
0.0137698
-0.000179187
-0.00937425
-0.00386396
-0.000958833
-0.00530084
-0.00677261
-0.00882754
-0.0172435
-0.0163536
-0.00942064
-0.00876074
-0.00602217
-0.000463288
0.0374494
0.0843304
0.0636541
0.0117349
0.0105066
0.0103016
0.00982673
0.00938682
0.00903131
0.0086802
0.00837138
0.00822655
0.00817767
0.00819165
0.00528724
-0.000373607
0.0125266
-0.000114172
-0.00822289
-0.00322315
-0.00136739
-0.00673142
-0.00641722
-0.0101228
-0.0164448
-0.0156869
-0.0101391
-0.00862504
-0.00412078
0.00107262
0.0256865
0.0867358
0.0861574
0.0285104
0.00861722
0.00962922
0.00942996
0.00899434
0.00850836
0.00810887
0.00783698
0.00768034
0.00761844
0.00761334
0.0050594
-0.000393991
0.011304
-6.21601e-05
-0.00707308
-0.00264763
-0.0016805
-0.00805951
-0.00681473
-0.0113626
-0.0150338
-0.0143814
-0.00944381
-0.00714535
-0.00275625
0.00258447
0.00823501
0.0673595
0.0923206
0.0637842
0.00688388
0.00937633
0.00949214
0.0090002
0.008294
0.00777225
0.00739751
0.00721408
0.00714784
0.00714851
0.00480222
-0.00040013
0.0101094
-2.08852e-05
-0.00599531
-0.00221218
-0.00175332
-0.0086982
-0.00819598
-0.0124628
-0.0133476
-0.0127943
-0.00916089
-0.00636271
-0.00238112
0.00245105
0.00579906
0.0460938
0.089576
0.0132214
0.00700758
0.00994051
0.0104647
0.00966674
0.00936653
0.0096843
0.00989665
0.00832018
0.00710868
0.00693218
0.00451661
-0.000390653
0.00894963
1.22438e-05
-0.00504341
-0.00188559
-0.00167733
-0.00807007
-0.0095397
-0.0126946
-0.0113347
-0.0110714
-0.00925115
-0.00641987
-0.00319022
0.000224035
0.00235575
0.000885036
0.00895412
0.00389513
0.0277644
0.0186271
0.0126872
0.0109777
0.0104513
0.0107244
0.0101304
0.00853971
0.00774606
0.00744403
0.00420378
-0.00036814
0.00783556
3.50656e-05
-0.00421056
-0.00163984
-0.00163307
-0.00634453
-0.010434
-0.0115448
-0.00895369
-0.00880806
-0.00910257
-0.00721764
-0.00493364
-0.00260281
-0.00034759
-0.000626951
-0.000704073
-0.000646839
0.00272179
0.036015
0.0358657
0.0135795
0.00990502
0.00925805
0.00889166
0.00849955
0.00817365
0.00900831
0.00386546
-0.000342847
0.00678458
4.5453e-05
-0.00347349
-0.0014797
-0.00168832
-0.00485254
-0.0112449
-0.00951225
-0.00652328
-0.00617091
-0.00865702
-0.00871659
-0.00785739
-0.00594395
-0.0029828
-0.00147229
-0.000701958
-0.000129745
0.000631743
0.00161461
0.0270991
0.0141943
0.00793742
0.0081054
0.00814493
0.0112649
0.0347965
0.0513736
0.003504
-0.000314138
0.00580027
4.17108e-05
-0.0028318
-0.00136277
-0.00173343
-0.00388414
-0.0105365
-0.00695362
-0.0036059
-0.00383463
-0.00846051
-0.0110224
-0.0116257
-0.00950861
-0.00549809
-0.002381
-0.000339648
0.00120608
0.00273004
0.00424997
0.0128236
0.0146706
0.00695173
0.00720265
0.00732223
0.0374534
0.0519962
0.0531938
0.00312262
-0.000282319
0.00488568
2.33226e-05
-0.00227346
-0.00126058
-0.00170979
-0.00315709
-0.00772888
-0.00455489
-0.000285829
-0.00200787
-0.00818387
-0.0132005
-0.0156368
-0.0128845
-0.00756162
-0.0031378
-0.0001217
0.00185308
0.00335175
0.00470954
0.00513836
0.00690204
0.00522606
0.00490563
0.00454312
0.00846085
0.0162936
0.0512968
0.00272527
-0.000248155
0.00404297
-1.28024e-05
-0.00178282
-0.0011573
-0.00161574
-0.00259341
-0.00521226
-0.00303579
0.00143009
-0.00136619
-0.00730572
-0.014508
-0.0173883
-0.0142041
-0.00843565
-0.00364064
-0.000390911
0.00163364
0.00380267
0.00423748
0.00348628
0.00348866
0.00370548
0.0035343
0.00329562
0.0029361
0.00398206
0.00563169
0.00231627
-0.000212453
0.00327245
-3.04861e-05
-0.00138446
-0.0010416
-0.00146763
-0.00215428
-0.00375849
-0.00253932
0.000710676
-0.000638963
-0.00603498
-0.0116111
-0.0145911
-0.0115127
-0.00697047
-0.00318348
-0.000546054
0.00128719
0.00227686
0.0024228
0.00257754
0.00278263
0.00298167
0.00318566
0.00331306
0.00337143
0.00334775
0.00326121
0.00189958
-0.000175722
0.00256955
-3.91117e-05
-0.00105448
-0.000906124
-0.00127299
-0.00176186
-0.00272516
-0.0020716
-0.000275554
-0.000815286
-0.00347085
-0.00777011
-0.00882478
-0.00685896
-0.00431307
-0.00208027
-0.000405276
0.000699132
0.00133533
0.00175498
0.00207289
0.0023564
0.00263039
0.00290273
0.00322762
0.00341565
0.00360249
0.00379879
0.0014779
-0.000138251
0.00192687
-4.04135e-05
-0.000776803
-0.000748094
-0.00104325
-0.00138947
-0.00191379
-0.00160078
-0.0007895
-0.00140666
-0.00316435
-0.00521805
-0.00491029
-0.00376773
-0.00246105
-0.00116433
-0.000183783
0.000508148
0.000964977
0.00129027
0.00154526
0.00176809
0.00197924
0.00227407
0.0027623
0.00278571
0.00291507
0.00316212
0.00105136
-9.98761e-05
0.00133351
-3.52002e-05
-0.000537154
-0.000567245
-0.000782931
-0.00101771
-0.00125502
-0.00110445
-0.000723119
-0.00124676
-0.00249875
-0.00309932
-0.00269778
-0.00206225
-0.00134633
-0.000634927
-8.64466e-05
0.000311868
0.000577209
0.000741558
0.000845844
0.00091943
0.00108795
0.00137306
0.00139581
0.00136845
0.00134453
0.00448093
0.000615938
-5.93038e-05
0.000775095
-2.26711e-05
-0.000321757
-0.000364685
-0.000493632
-0.000634159
-0.000720299
-0.000631508
-0.000483226
-0.000721569
-0.00131597
-0.00156767
-0.00127565
-0.000957841
-0.000616949
-0.000256783
7.33301e-05
0.000375283
0.000639103
0.00088072
0.00111729
0.00135003
0.00172057
0.00206753
0.00213981
0.00206259
0.00190629
0.012783
0.000161645
-1.95036e-05
0.000226412
-8.97498e-06
-0.000116439
-0.000142013
-0.000178836
-0.000235056
-0.000216384
-0.000148881
-9.91352e-05
-0.000198313
-0.000394646
-0.000465587
-0.000351053
-0.000273829
-0.000196605
-0.000113907
-3.28693e-05
5.02911e-05
0.000125303
0.000191348
0.000245258
0.000273713
0.000280802
0.000252449
0.000111874
-0.000113958
-0.000534416
0.000248154
10.3364
10.2551
9.87417
9.23958
8.30234
6.74982
4.89109
2.71702
1.10611
0.009249
0.00718132
0.00841668
0.00193478
-0.000964191
0.0071345
0.0157966
-0.00335792
3.27385
1.25287
47.9972
2.48119
0.00162091
-0.00477037
6.19277
5.8964
-0.0139374
-0.00643278
0.0276535
0.000721391
0.0069196
0.0138781
0.0139582
0.0138482
0.0144106
0.0141881
0.014182
0.0118166
0.0119443
0.00980469
0.00882921
0.0076947
0.00597662
0.00299969
0.00102625
0.00571547
0.0118223
0.00150328
-4.35118e-05
-0.00177757
3.24445
0.00554304
0.00128574
-0.00401574
-0.0105833
-0.00273752
-0.0116087
-0.00925331
0.0262404
0.000489498
0.00783644
0.0120243
0.0121147
0.0122713
0.0125287
0.0127809
0.0127785
0.0119331
0.0116756
0.00991223
0.00856594
0.00711545
0.00537826
0.00256345
0.0011368
0.00561859
0.0115365
0.00122966
0.00034606
-0.00260394
-0.00907764
-0.00456612
0.00109973
-0.00406388
-0.0100532
-0.00262581
-0.01214
-0.0094836
0.0253329
0.000221284
0.00788848
0.012152
0.0122722
0.0123561
0.012582
0.0128336
0.0127498
0.012039
0.0116256
0.00989574
0.00832274
0.0065412
0.00474641
0.00225851
0.00116741
0.00560676
0.0113993
0.00141456
-6.28967e-05
-0.00319419
-0.00820363
-0.00475528
0.00106024
-0.00401584
-0.00985557
-0.00249001
-0.0122062
-0.00937235
0.0247643
-0.00168616
0.00594333
0.0121726
0.0122692
0.0124855
0.0128639
0.0130574
0.0127407
0.0121278
0.011555
0.00980011
0.00799556
0.00588042
0.00395953
0.00190428
0.00115364
0.00560195
0.010929
0.00176784
-0.000290704
-0.00392485
-0.0075633
-0.00466607
0.00111421
-0.00385372
-0.00956236
-0.0023649
-0.0117792
-0.00901297
0.0243204
-0.00171873
0.00589342
0.0141812
0.0127762
0.0124885
0.0126433
0.0127181
0.0127165
0.0121435
0.0113892
0.0095584
0.00749972
0.00523348
0.00356924
0.00181178
0.00113051
0.00550974
0.0107566
0.00215574
-0.000772904
-0.00454397
-0.00750858
-0.00457283
0.00119788
-0.00362465
-0.00911122
-0.00225306
-0.0110089
-0.00842759
0.0239165
-0.00148284
0.00588528
0.0141008
0.012559
0.0124209
0.0125962
0.0126707
0.0125964
0.0120316
0.0110735
0.00914574
0.00720894
0.00523921
0.00314038
0.00265667
0.00111507
0.00552388
0.0106743
0.00238649
-0.00107419
-0.00505078
-0.00713494
-0.00444108
0.00125859
-0.00338214
-0.00848022
-0.00215508
-0.0101894
-0.00764433
0.0235421
-0.00107787
0.00588365
0.0120768
0.0121635
0.0123099
0.0124575
0.0125019
0.0123531
0.0117481
0.0106217
0.00878684
0.00732193
0.00415312
0.00195745
0.0014367
0.000683189
0.00564758
0.0105986
0.00262829
-0.00136822
-0.00551913
-0.00689651
-0.00458355
0.00122207
-0.003177
-0.00767948
-0.00203983
-0.00958712
-0.00705064
0.0228473
-0.000759769
0.0058902
0.0118137
0.0119766
0.012082
0.0121826
0.0121833
0.0119609
0.0112921
0.0100604
0.00817323
0.00631555
0.00301872
0.00078365
-0.00062023
0.000288271
0.00588134
0.010422
0.00266804
-0.00173795
-0.00591964
-0.00680142
-0.00512217
0.00100773
-0.00307609
-0.00675086
-0.00192214
-0.00920079
-0.00655638
0.0218884
-0.000626165
0.0058993
0.0114178
0.0116336
0.0116959
0.0117514
0.0117052
0.0114207
0.0106852
0.00939252
0.00755118
0.00538851
0.00207009
-0.000486255
-0.00143914
0.000315188
0.00612581
0.0100957
0.00266362
-0.00209192
-0.00622047
-0.00685879
-0.00615032
0.000548107
-0.00313569
-0.00580378
-0.00182667
-0.00889072
-0.00616051
0.0207277
-0.000666289
0.00589968
0.0109869
0.0111305
0.0112437
0.0112927
0.0110997
0.0107765
0.00998257
0.00894901
0.00746069
0.00475125
0.0011297
-0.00175583
-0.00167496
0.000530281
0.00629341
0.00967276
0.00230784
-0.00264181
-0.00636162
-0.00707048
-0.00764606
-0.000191041
-0.00333317
-0.00499507
-0.00177338
-0.00850344
-0.00580879
0.0195481
-0.000780787
0.00588283
0.0103684
0.0104767
0.010569
0.010609
0.0104898
0.0101267
0.00938747
0.00930442
0.00737616
0.00430091
0.000544449
-0.00158639
-0.00144008
0.000935059
0.00630597
0.00877504
0.00180045
-0.00294142
-0.00629531
-0.00744097
-0.00933262
-0.00123017
-0.00349882
-0.00440652
-0.00174963
-0.00798151
-0.00545534
0.0183025
-0.000913337
0.00584727
0.00965724
0.00974879
0.00982748
0.00988162
0.00981218
0.00951255
0.00890168
0.00888693
0.00745587
0.00465198
0.00107225
-0.000835913
-0.000772611
0.00144811
0.00594957
0.00744599
0.00147157
-0.00293086
-0.00596228
-0.00798308
-0.0106429
-0.00244043
-0.00347296
-0.00398119
-0.00167746
-0.00734192
-0.00507954
0.0170525
-0.00104608
0.00579001
0.00897302
0.00902446
0.00911747
0.00918192
0.00910113
0.00896859
0.0085427
0.00790402
0.00761107
0.00565244
0.00216659
0.00023261
-6.72304e-07
0.00159409
0.00508189
0.00595614
0.001476
-0.00239331
-0.00533383
-0.00875628
-0.0112169
-0.00360597
-0.00339419
-0.00357272
-0.00147525
-0.00661524
-0.00459396
0.0157424
-0.00116761
0.0057081
0.00823463
0.00842246
0.00852257
0.00849742
0.00850925
0.0085115
0.00831715
0.00779966
0.00728584
0.00673909
0.00340405
0.00139128
0.000568209
0.00135343
0.00391423
0.0046294
0.0018755
-0.00125001
-0.00443645
-0.00989897
-0.0113904
-0.00467786
-0.00355807
-0.00321669
-0.0011427
-0.00584479
-0.00402432
0.014399
-0.00127024
0.00559914
0.00763639
0.00768632
0.00777385
0.00789669