/*--------------------------------*- C++ -*----------------------------------*\
| =========                 |                                                 |
| \\      /  F ield         | OpenFOAM: The Open Source CFD Toolbox           |
|  \\    /   O peration     | Version:  2.4.0                                 |
|   \\  /    A nd           | Web:      www.OpenFOAM.org                      |
|    \\/     M anipulation  |                                                 |
\*---------------------------------------------------------------------------*/
FoamFile
{
    version     2.0;
    format      ascii;
    class       surfaceScalarField;
    location    "0.199";
    object      phiAlpha;
}
// * * * * * * * * * * * * * * * * * * * * * * * * * * * * * * * * * * * * * //

dimensions      [0 3 -1 0 0 0 0];

internalField   nonuniform List<scalar> 
7080
(
4.67916e-08
-4.67916e-08
7.66001e-08
-2.98085e-08
8.00796e-08
-3.47955e-09
6.30212e-08
1.70584e-08
4.10321e-08
2.1989e-08
2.12001e-08
1.98321e-08
8.64444e-09
1.25556e-08
-1.67286e-09
1.03173e-08
-9.30955e-09
7.63665e-09
-8.84496e-09
-4.64611e-10
-4.76589e-09
-4.07912e-09
-1.42597e-08
9.4938e-09
-1.71813e-08
2.92158e-09
-2.26701e-08
5.48884e-09
-2.72809e-08
4.61079e-09
-4.86997e-09
-2.24109e-08
3.43462e-08
-3.91866e-08
4.43602e-08
-1.00804e-08
3.88493e-08
5.44709e-09
-7.42079e-09
4.65253e-08
-1.27499e-07
1.21409e-07
-2.09734e-07
8.22338e-08
-2.19161e-07
9.42461e-09
-2.10854e-07
-8.78846e-09
-1.45891e-07
-6.65408e-08
-1.05169e-07
-4.08783e-08
-7.35856e-08
-3.14846e-08
-4.53503e-08
-2.83891e-08
-2.37866e-08
-2.17026e-08
-1.88545e-08
-5.05732e-09
5.34254e-08
-1.00217e-07
9.97392e-08
-7.61222e-08
1.20203e-07
-2.39431e-08
1.13585e-07
2.36758e-08
9.79463e-08
3.7628e-08
8.05378e-08
3.72407e-08
6.793e-08
2.51633e-08
5.30924e-08
2.51549e-08
3.78378e-08
2.28912e-08
3.45537e-08
2.81945e-09
3.59978e-08
-5.52325e-09
1.59039e-08
2.95877e-08
9.35518e-09
9.47028e-09
-1.52732e-08
3.01172e-08
-2.43447e-08
1.36823e-08
-1.36552e-08
-3.30972e-08
5.30562e-09
-5.81939e-08
1.70258e-08
-2.18139e-08
-4.13513e-08
6.40098e-08
-1.66074e-07
1.72167e-07
-2.80739e-07
2.37117e-07
-2.85666e-07
8.66341e-08
-2.58953e-07
-1.74141e-08
-2.1748e-07
-5.03203e-08
-1.59461e-07
-1.24572e-07
-1.15056e-07
-8.52872e-08
-7.71334e-08
-6.94144e-08
-5.34074e-08
-5.21216e-08
-2.91003e-08
-4.60145e-08
-4.37233e-08
-4.22862e-09
4.95661e-08
-1.49783e-07
9.76508e-08
-1.24207e-07
1.22422e-07
-4.87143e-08
1.19874e-07
2.62237e-08
1.08472e-07
4.90304e-08
9.6168e-08
4.95443e-08
8.70922e-08
3.4239e-08
7.71072e-08
3.51399e-08
6.14975e-08
3.85009e-08
6.15584e-08
2.75844e-09
6.57026e-08
-9.66746e-09
4.52543e-08
5.00359e-08
4.78488e-08
6.87581e-09
2.00241e-08
5.79418e-08
7.47604e-09
2.62304e-08
4.47464e-09
-3.00966e-08
-1.72842e-08
-3.6515e-08
-4.42324e-08
5.02836e-09
-1.36375e-07
1.56164e-07
-2.48186e-07
2.84474e-07
-2.92207e-07
2.81751e-07
-2.68151e-07
6.24949e-08
-2.27722e-07
-5.80193e-08
-1.72284e-07
-1.0574e-07
-1.30488e-07
-1.66385e-07
-9.78772e-08
-1.17945e-07
-6.52672e-08
-1.02028e-07
-4.08945e-08
-7.64647e-08
-2.64077e-08
-6.04962e-08
-5.88741e-08
-1.12494e-08
4.79017e-08
-1.97685e-07
9.60915e-08
-1.72397e-07
1.21402e-07
-7.40244e-08
1.19335e-07
2.82904e-08
1.08602e-07
5.97628e-08
9.79256e-08
6.02212e-08
9.01523e-08
4.20122e-08
8.30696e-08
4.22226e-08
6.65242e-08
5.50462e-08
7.10754e-08
-1.79281e-09
7.43048e-08
-1.28969e-08
5.91093e-08
6.52313e-08
7.69479e-08
-1.09628e-08
5.21936e-08
8.26962e-08
3.5548e-08
4.2876e-08
2.24598e-08
-1.70084e-08
-2.80683e-08
1.3994e-08
-8.03795e-08
5.73202e-08
-1.81427e-07
2.57219e-07
-2.72576e-07
3.75478e-07
-2.74264e-07
2.82997e-07
-2.44838e-07
3.28949e-08
-1.8194e-07
-1.21074e-07
-1.16362e-07
-1.71461e-07
-9.44164e-08
-1.88602e-07
-6.58147e-08
-1.46665e-07
-4.8692e-08
-1.19195e-07
-3.05914e-08
-9.46047e-08
-2.12726e-08
-6.98023e-08
-6.49042e-08
-1.52308e-08
4.76209e-08
-2.45306e-07
9.60775e-08
-2.20853e-07
1.21492e-07
-9.94391e-08
1.19263e-07
3.05192e-08
1.08164e-07
7.0862e-08
9.77578e-08
7.06276e-08
9.03033e-08
4.94667e-08
8.40968e-08
4.84291e-08
6.57468e-08
7.33961e-08
7.39713e-08
-1.00173e-08
6.98391e-08
-8.76476e-09
6.36943e-08
7.13762e-08
9.73659e-08
-4.46344e-08
7.46298e-08
1.05432e-07
5.98102e-08
5.76956e-08
3.90402e-08
3.76158e-09
-3.60843e-08
8.91209e-08
-1.03678e-07
1.24924e-07
-1.69614e-07
3.23165e-07
-2.01832e-07
4.07571e-07
-1.83861e-07
2.6499e-07
-1.42143e-07
-9.38245e-09
-8.85864e-08
-1.74608e-07
-3.20246e-08
-2.28068e-07
-6.11826e-10
-2.19937e-07
1.66554e-08
-1.63853e-07
5.22952e-09
-1.07792e-07
-9.98424e-09
-7.9427e-08
-1.28031e-08
-6.69935e-08
-5.76073e-08
-2.01142e-08
4.77257e-08
-2.93032e-07
9.65401e-08
-2.69668e-07
1.22106e-07
-1.25005e-07
1.19677e-07
3.29487e-08
1.07987e-07
8.25514e-08
9.76022e-08
8.10127e-08
9.04301e-08
5.66388e-08
8.41788e-08
5.46804e-08
6.43866e-08
9.31883e-08
7.47811e-08
-2.04119e-08
6.14172e-08
4.59908e-09
6.38627e-08
6.89307e-08
1.04379e-07
-8.51509e-08
8.61964e-08
1.23615e-07
8.19265e-08
6.19655e-08
6.40207e-08
2.16674e-08
-1.79997e-08
1.71141e-07
-8.86677e-08
1.95592e-07
-1.29282e-07
3.63534e-07
-1.36434e-07
4.14188e-07
-1.13954e-07
2.42543e-07
-7.09194e-08
-5.25434e-08
-3.09605e-08
-2.14544e-07
3.97192e-09
-2.62983e-07
1.84485e-08
-2.34467e-07
3.36733e-08
-1.79117e-07
3.73444e-08
-1.11456e-07
2.08304e-08
-6.29491e-08
1.6104e-09
-4.77836e-08
-4.15033e-08
-1.45116e-08
4.79224e-08
-3.40954e-07
9.71531e-08
-3.18898e-07
1.22929e-07
-1.50781e-07
1.20284e-07
3.55933e-08
1.07883e-07
9.49521e-08
9.74961e-08
9.14e-08
9.08091e-08
6.33257e-08
8.40475e-08
6.1442e-08
6.37615e-08
1.13474e-07
7.54277e-08
-3.20782e-08
5.80209e-08
2.20059e-08
6.26779e-08
6.42736e-08
8.55636e-08
-1.08037e-07
7.91377e-08
1.30041e-07
9.72976e-08
4.38057e-08
8.82156e-08
3.07494e-08
1.94166e-08
2.3994e-07
-3.8665e-08
2.53699e-07
-4.04177e-08
3.64822e-07
-3.63137e-08
4.10121e-07
-1.34968e-08
2.19761e-07
2.25576e-08
-8.85084e-08
4.42348e-08
-2.36286e-07
4.63714e-08
-2.65101e-07
4.3123e-08
-2.31191e-07
4.10049e-08
-1.77092e-07
4.54491e-08
-1.1592e-07
4.00596e-08
-5.75601e-08
1.93479e-08
-2.70724e-08
-2.03022e-08
-1.85303e-09
4.81513e-08
-3.89105e-07
9.78651e-08
-3.68612e-07
1.23903e-07
-1.76819e-07
1.21015e-07
3.84818e-08
1.0777e-07
1.08197e-07
9.73821e-08
1.01788e-07
9.14064e-08
6.93014e-08
8.37381e-08
6.91103e-08
6.40517e-08
1.33161e-07
7.6718e-08
-4.47445e-08
6.28039e-08
3.592e-08
6.21055e-08
6.4972e-08
4.86073e-08
-9.45384e-08
5.49482e-08
1.237e-07
9.39373e-08
4.81658e-09
8.94117e-08
3.5275e-08
4.94084e-08
2.79944e-07
-5.42032e-09
3.08545e-07
2.38468e-09
3.57669e-07
3.53086e-08
3.77235e-07
7.11032e-08
1.84002e-07
9.9387e-08
-1.16509e-07
1.04749e-07
-2.41396e-07
9.4169e-08
-2.5451e-07
7.97957e-08
-2.16981e-07
6.25978e-08
-1.59895e-07
4.99638e-08
-1.03287e-07
3.94685e-08
-4.70655e-08
2.47898e-08
-1.23942e-08
-4.22162e-09
8.70957e-09
4.8401e-08
-4.37506e-07
9.86703e-08
-4.18881e-07
1.25027e-07
-2.03176e-07
1.21862e-07
4.16468e-08
1.07624e-07
1.22435e-07
9.7258e-08
1.12154e-07
9.21706e-08
7.43887e-08
8.31621e-08
7.81188e-08
6.51731e-08
1.5115e-07
7.75012e-08
-5.70727e-08
7.22227e-08
4.11985e-08
6.76717e-08
6.95229e-08
2.86232e-08
-5.54899e-08
3.21763e-08
1.20147e-07
6.24286e-08
-2.54357e-08
6.2907e-08
3.47965e-08
6.25796e-08
2.80271e-07
2.93729e-08
3.41751e-07
3.53537e-08
3.52092e-07
7.95585e-08
3.33067e-07
1.29828e-07
1.34486e-07
1.48748e-07
-1.35355e-07
1.31829e-07
-2.24816e-07
1.04959e-07
-2.27912e-07
8.45686e-08
-1.96591e-07
6.73115e-08
-1.42638e-07
5.18275e-08
-8.78028e-08
3.80174e-08
-3.32561e-08
2.46978e-08
9.2462e-10
7.72056e-09
1.27535e-08
4.86684e-08
-4.86175e-07
9.95678e-08
-4.69781e-07
1.26304e-07
-2.29912e-07
1.22829e-07
4.51216e-08
1.07437e-07
1.37827e-07
9.71471e-08
1.22444e-07
9.29989e-08
7.85369e-08
8.24096e-08
8.87081e-08
6.61856e-08
1.67373e-07
7.58058e-08
-6.66929e-08
8.14471e-08
3.55572e-08
7.68108e-08
7.41592e-08
3.04523e-08
-9.13136e-09
2.55594e-08
1.2504e-07
3.70467e-08
-3.6923e-08
4.96631e-08
2.21802e-08
7.19084e-08
2.58026e-07
6.34455e-08
3.50214e-07
8.95001e-08
3.26037e-07
1.41988e-07
2.81642e-07
1.8927e-07
8.73092e-08
1.74396e-07
-1.20605e-07
1.38782e-07
-1.89273e-07
1.10311e-07
-1.99441e-07
8.82806e-08
-1.74561e-07
6.79389e-08
-1.22297e-07
4.74003e-08
-6.72647e-08
3.17236e-08
-1.75798e-08
1.99871e-08
1.26605e-08
1.78036e-08
9.90201e-09
4.89516e-08
-5.35126e-07
1.00557e-07
-5.21386e-07
1.27738e-07
-2.57093e-07
1.23916e-07
4.89436e-08
1.07205e-07
1.54538e-07
9.70589e-08
1.3259e-07
9.38288e-08
8.1767e-08
8.17268e-08
1.0081e-07
6.59516e-08
1.83149e-07
7.20849e-08
-7.28262e-08
8.85148e-08
1.91273e-08
8.13339e-08
8.13401e-08
4.05629e-08
3.16396e-08
3.72557e-08
1.28347e-07
4.01649e-08
-3.98321e-08
6.01155e-08
2.22959e-09
8.26558e-08
2.35486e-07
8.2935e-08
3.49935e-07
1.22972e-07
2.86e-07
1.86836e-07
2.17778e-07
2.15396e-07
5.87135e-08
1.72213e-07
-7.74708e-08
1.38682e-07
-1.55736e-07
1.20709e-07
-1.81468e-07
1.02611e-07
-1.56463e-07
7.7085e-08
-9.67719e-08
4.94868e-08
-3.96683e-08
2.88043e-08
3.10252e-09
1.71935e-08
2.42722e-08
2.35925e-08
1.14024e-08
4.92482e-08
-5.84375e-07
1.01636e-07
-5.73774e-07
1.29334e-07
-2.84791e-07
1.25121e-07
5.31561e-08
1.06929e-07
1.72731e-07
9.69871e-08
1.42532e-07
9.46879e-08
8.40661e-08
8.12954e-08
1.14203e-07
6.4087e-08
2.00357e-07
6.96263e-08
-7.83655e-08
9.36886e-08
-4.93507e-09
7.78634e-08
9.71652e-08
5.03394e-08
5.91636e-08
5.6629e-08
1.22057e-07
6.27881e-08
-4.59912e-08
7.71567e-08
-1.2139e-08
9.21557e-08
2.20487e-07
1.02113e-07
3.39978e-07
1.31897e-07
2.56216e-07
1.82488e-07
1.67187e-07
1.94795e-07
4.63996e-08
1.66683e-07
-4.93573e-08
1.47974e-07
-1.37027e-07
1.28414e-07
-1.61908e-07
1.08208e-07
-1.36258e-07
7.91379e-08
-6.77017e-08
4.36025e-08
-4.13496e-09
2.34921e-08
2.32122e-08
1.58138e-08
3.19504e-08
2.73682e-08
1.2043e-08
4.95559e-08
-6.3393e-07
1.02803e-07
-6.27021e-07
1.31098e-07
-3.13086e-07
1.26443e-07
5.78103e-08
1.06606e-07
1.92568e-07
9.69234e-08
1.52215e-07
9.56792e-08
8.53103e-08
8.09305e-08
1.28951e-07
6.12421e-08
2.20045e-07
6.89516e-08
-8.6075e-08
9.80822e-08
-3.40657e-08
7.19041e-08
1.23343e-07
5.98088e-08
7.12588e-08
7.74813e-08
1.04385e-07
8.16429e-08
-5.01528e-08
8.3226e-08
-1.37221e-08
8.40453e-08
2.19667e-07
1.03991e-07
3.20033e-07
1.31248e-07
2.28959e-07
1.60258e-07
1.38176e-07
1.68448e-07
3.82094e-08
1.64041e-07
-4.49501e-08
1.42472e-07
-1.15458e-07
1.11917e-07
-1.31353e-07
8.61611e-08
-1.10502e-07
6.50096e-08
-4.65503e-08
4.46456e-08
1.62289e-08
3.05518e-08
3.73058e-08
1.97098e-08
4.27922e-08
3.06556e-08
1.64227e-08
4.98712e-08
-6.83802e-07
1.04054e-07
-6.81204e-07
1.33037e-07
-3.42069e-07
1.27882e-07
6.29653e-08
1.06232e-07
2.14218e-07
9.68832e-08
1.61564e-07
9.6825e-08
8.53684e-08
8.05132e-08
1.45263e-07
5.78794e-08
2.42679e-07
6.86265e-08
-9.6822e-08
1.01375e-07
-6.68145e-08
6.76639e-08
1.57055e-07
6.16889e-08
7.72338e-08
9.08891e-08
7.51848e-08
8.37385e-08
-4.30022e-08
7.80289e-08
-8.01251e-09
7.49178e-08
2.22778e-07
9.86065e-08
2.96344e-07
1.25467e-07
2.02098e-07
1.42146e-07
1.21498e-07
1.5238e-07
2.7975e-08
1.50214e-07
-4.27839e-08
1.28387e-07
-9.36318e-08
9.95568e-08
-1.02523e-07
7.42376e-08
-8.51844e-08
6.15415e-08
-3.38498e-08
4.87054e-08
2.90662e-08
2.7703e-08
5.8308e-08
1.88727e-08
5.16224e-08
2.31752e-08
2.63532e-08
5.01903e-08
-7.33992e-07
1.05388e-07
-7.36401e-07
1.35161e-07
-3.71842e-07
1.29439e-07
6.86869e-08
1.05807e-07
2.3785e-07
9.68688e-08
1.70503e-07
9.81433e-08
8.40938e-08
7.99861e-08
1.6342e-07
5.49351e-08
2.6773e-07
6.68725e-08
-1.08759e-07
1.03594e-07
-1.03536e-07
6.99249e-08
1.90724e-07
7.04903e-08
7.66684e-08
1.01902e-07
4.37733e-08
8.5844e-08
-2.69445e-08
8.31423e-08
-5.31074e-09
7.73266e-08
2.28594e-07
8.69979e-08
2.86673e-07
1.07851e-07
1.81245e-07
1.26237e-07
1.03112e-07
1.348e-07
1.94121e-08
1.3198e-07
-3.99638e-08
1.15068e-07
-7.67197e-08
7.72575e-08
-6.47127e-08
3.26595e-08
-4.05884e-08
1.04412e-08
-1.16352e-08
-3.48389e-09
4.29924e-08
-1.02348e-08
6.50588e-08
7.08815e-09
3.42995e-08
6.04406e-09
2.42192e-08
5.05094e-08
-7.84501e-07
1.06798e-07
-7.9269e-07
1.37475e-07
-4.02519e-07
1.31115e-07
7.50467e-08
1.05328e-07
2.63637e-07
9.68877e-08
1.78943e-07
9.95877e-08
8.13938e-08
7.9675e-08
1.83333e-07
5.12695e-08
2.96135e-07
6.52007e-08
-1.22691e-07
1.08457e-07
-1.46792e-07
7.31147e-08
2.26066e-07
4.65956e-08
1.03187e-07
7.89317e-08
1.14372e-08
8.63268e-08
-3.43396e-08
9.90887e-08
-1.80726e-08
8.09704e-08
2.46712e-07
7.23705e-08
2.95273e-07
1.06656e-07
1.46959e-07
1.13652e-07
9.61158e-08
1.18184e-07
1.48809e-08
1.30629e-07
-5.24096e-08
1.19149e-07
-6.52394e-08
8.79009e-08
-3.34647e-08
3.62393e-08
1.10731e-08
-6.43522e-09
3.10356e-08
-2.37167e-08
6.02713e-08
-2.34905e-08
6.48325e-08
-1.01017e-08
2.09107e-08
-9.03695e-10
-3.15373e-09
5.0828e-08
-8.35329e-07
1.0827e-07
-8.50132e-07
1.39974e-07
-4.34223e-07
1.32916e-07
8.21045e-08
1.04788e-07
2.91765e-07
9.68831e-08
1.86848e-07
1.01355e-07
7.6922e-08
7.89296e-08
2.05758e-07
4.51563e-08
3.29909e-07
6.54585e-08
-1.42993e-07
1.15892e-07
-1.97226e-07
7.99678e-08
2.6199e-07
6.37539e-08
1.19401e-07
9.38463e-08
-1.86551e-08
9.73488e-08
-3.78421e-08
1.13587e-07
-3.43109e-08
1.12655e-07
2.47645e-07
1.12897e-07
2.9503e-07
1.13674e-07
1.46183e-07
9.38272e-08
1.15963e-07
1.06078e-07
2.62995e-09
1.08058e-07
-5.43891e-08
7.69742e-08
-3.41559e-08
6.1409e-08
-1.78995e-08
3.9023e-08
3.34592e-08
1.49598e-09
6.85619e-08
-1.71014e-08
7.8861e-08
-1.93366e-08
6.70611e-08
-2.44762e-08
2.60461e-08
5.65458e-09
-3.10312e-08
5.11625e-08
-8.86492e-07
1.09751e-07
-9.0872e-07
1.42602e-07
-4.67074e-07
1.34849e-07
8.98575e-08
1.04103e-07
3.2251e-07
9.69612e-08
1.9399e-07
1.03076e-07
7.08072e-08
8.20984e-08
2.26736e-07
4.18737e-08
3.70133e-07
6.27821e-08
-1.63901e-07
1.22073e-07
-2.56517e-07
7.6596e-08
3.07467e-07
4.17016e-08
1.54296e-07
8.09425e-08
-5.7896e-08
9.25811e-08
-4.94807e-08
1.05554e-07
-4.72842e-08
1.22146e-07
2.31053e-07
1.28566e-07
2.8861e-07
9.95384e-08
1.7521e-07
7.86387e-08
1.36862e-07
8.18193e-08
-5.5067e-10
4.01673e-08
-1.27373e-08
-1.74373e-10
6.18576e-09
8.62238e-09
-2.66951e-08
2.69447e-08
1.51368e-08
2.26307e-08
7.2877e-08
1.84792e-08
8.30122e-08
1.86e-08
6.694e-08
7.0035e-09
3.76423e-08
2.50764e-08
-1.24178e-08
5.15886e-08
-9.3808e-07
1.11053e-07
-9.68185e-07
1.45131e-07
-5.01151e-07
1.3685e-07
9.81376e-08
1.03152e-07
3.56208e-07
9.67888e-08
2.00354e-07
1.06994e-07
6.06023e-08
7.45514e-08
2.59178e-07
3.5507e-08
4.09178e-07
6.10352e-08
-1.89429e-07
1.19143e-07
-3.14624e-07
7.06047e-08
3.56005e-07
2.21024e-08
2.02798e-07
8.72926e-08
-1.23086e-07
1.01691e-07
-6.38794e-08
9.33728e-08
-3.91442e-08
1.15895e-07
2.08477e-07
1.14344e-07
2.90161e-07
9.87561e-08
1.90798e-07
7.19683e-08
1.6365e-07
2.0003e-08
5.14146e-08
-3.46297e-08
4.18951e-08
-5.4588e-08
2.61439e-08
-3.9567e-08
-4.17163e-08
-7.66748e-09
-1.67641e-08
1.58299e-08
4.93802e-08
3.13562e-08
6.74909e-08
4.31408e-08
5.51551e-08
3.71092e-08
4.36737e-08
4.18136e-08
2.03762e-08
5.23345e-08
-9.90415e-07
1.11607e-07
-1.02746e-06
1.46805e-07
-5.3635e-07
1.38607e-07
1.06336e-07
1.01338e-07
3.93477e-07
9.7426e-08
2.04266e-07
1.07742e-07
5.02859e-08
9.03984e-08
2.76522e-07
3.24062e-08
4.6717e-07
3.6338e-08
-1.93361e-07
1.1673e-07
-3.94753e-07
6.12772e-08
4.11459e-07
2.21494e-08
2.41926e-07
1.24339e-07
-2.25276e-07
1.1739e-07
-5.69303e-08
8.44894e-08
-6.6648e-09
8.22982e-08
2.10791e-07
7.18759e-08
3.00584e-07
7.97523e-08
1.82922e-07
6.99349e-08
1.73468e-07
5.41465e-09
1.15935e-07
-6.89262e-08
1.16241e-07
-8.84048e-08
4.56222e-08
-8.27418e-08
-4.73814e-08
-5.34981e-08
-4.60106e-08
-1.9166e-08
1.50442e-08
6.5679e-09
4.17573e-08
2.8958e-08
3.27703e-08
3.31672e-08
3.9468e-08
5.10343e-08
2.39475e-08
5.38761e-08
-1.04429e-06
1.09962e-07
-1.08354e-06
1.45598e-07
-5.71986e-07
1.38937e-07
1.12997e-07
9.79147e-08
4.34499e-07
9.54486e-08
2.06732e-07
1.15197e-07
3.05376e-08
6.45976e-08
3.27121e-07
2.8395e-08
5.03372e-07
5.03733e-08
-2.1534e-07
8.91953e-08
-4.24833e-07
1.02531e-08
4.90798e-07
-5.18386e-08
3.04018e-07
1.3855e-07
-4.15665e-07
1.90526e-07
-1.09168e-07
9.87615e-08
8.45043e-08
5.94458e-08
2.5014e-07
4.81284e-08
3.11903e-07
2.7648e-08
2.03397e-07
3.38665e-08
1.67249e-07
2.51732e-08
1.24628e-07
-3.8635e-08
1.8002e-07
-5.85693e-08
6.55593e-08
-6.83806e-08
-3.75702e-08
-6.69537e-08
-4.74375e-08
-4.53791e-08
-6.53059e-09
-2.07783e-08
1.71568e-08
-3.19061e-09
1.51832e-08
6.65971e-09
2.96186e-08
4.87444e-08
8.94756e-09
5.67251e-08
-1.10102e-06
1.03219e-07
-1.13004e-06
1.37258e-07
-6.06026e-07
1.34818e-07
1.15437e-07
8.95484e-08
4.79769e-07
9.02501e-08
2.0603e-07
1.07977e-07
1.28109e-08
8.59467e-08
3.49152e-07
4.55279e-08
5.43791e-07
1.76321e-08
-1.87343e-07
1.39957e-07
-5.48737e-07
1.1196e-07
5.19774e-07
-8.75922e-08
5.0357e-07
7.88783e-08
-5.82135e-07
2.43866e-07
-2.75401e-07
1.19858e-07
2.08244e-07
4.43184e-08
3.25149e-07
4.17396e-08
3.1438e-07
4.45484e-09
2.4068e-07
-9.92057e-09
1.81639e-07
3.41821e-08
7.92637e-08
3.16051e-08
1.82601e-07
6.32462e-09
9.08397e-08
-1.25891e-08
-1.86565e-08
-2.72819e-08
-3.27448e-08
-2.69357e-08
-6.87678e-09
-1.9913e-08
1.0134e-08
-1.72236e-08
1.24941e-08
-1.15041e-08
2.38997e-08
3.88605e-08
-1.62089e-09
6.03977e-08
-1.16141e-06
8.73873e-08
-1.15703e-06
1.15745e-07
-6.34383e-07
1.19998e-07
1.11183e-07
6.94719e-08
5.30296e-07
6.06346e-08
2.14867e-07
5.94343e-08
1.40112e-08
5.79619e-08
3.50624e-07
2.78665e-08
5.73887e-07
-3.2602e-08
-1.26067e-07
3.6061e-08
-6.18961e-07
6.78575e-08
4.8321e-07
-1.09139e-07
6.80554e-07
-3.21689e-08
-6.59105e-07
1.51876e-07
-4.60431e-07
9.59428e-08
2.63916e-07
3.7664e-08
3.83382e-07
7.94496e-08
2.72308e-07
5.8997e-08
2.6114e-07
8.02717e-09
2.32634e-07
3.58611e-08
5.13632e-08
7.26225e-08
1.44941e-07
4.34913e-08
1.19971e-07
1.94829e-08
5.35196e-09
3.19835e-09
-1.64603e-08
1.18391e-09
-4.86174e-09
-1.71242e-10
1.1488e-08
-5.96959e-09
1.82908e-08
-9.42783e-09
2.73585e-08
3.53921e-08
-5.95617e-09
6.11417e-08
-1.22256e-06
6.02917e-08
-1.15618e-06
7.81736e-08
-6.52265e-07
8.70946e-08
1.02264e-07
2.45422e-08
5.92848e-07
9.35902e-09
2.30051e-07
5.58869e-08
-3.25167e-08
2.50972e-08
3.81414e-07
-3.81999e-08
6.37184e-07
-9.34142e-08
-6.95971e-08
-9.61164e-08
-6.21457e-07
-7.2072e-08
4.56754e-07
-1.0136e-07
7.09897e-07
-9.28917e-08
-6.67399e-07
4.96991e-09
-5.56736e-07
4.50126e-08
2.23822e-07
3.4547e-08
3.93802e-07
5.1304e-08
2.56285e-07
3.55256e-08
2.76925e-07
1.91015e-08
2.49044e-07
9.76233e-09
6.06485e-08
3.96273e-08
1.15042e-07
5.94528e-08
9.99793e-08
3.37628e-08
3.10523e-08
1.19969e-08
5.30242e-09
9.81661e-09
-2.68192e-09
7.63619e-09
1.3668e-08
8.25138e-10
2.51006e-08
-9.36792e-09
3.75516e-08
4.19734e-08
-1.59492e-08
4.87723e-08
-1.27133e-06
2.52571e-08
-1.13266e-06
3.21006e-08
-6.59089e-07
4.65903e-08
6.91872e-08
-1.26326e-08
6.52071e-07
-7.21029e-08
2.89523e-07
-9.31039e-08
-9.94726e-09
-7.03938e-08
3.47806e-07
-7.12215e-08
6.3712e-07
-1.02553e-07
-3.88461e-08
-9.62483e-08
-6.2735e-07
-1.19019e-07
4.77109e-07
-6.4428e-08
6.54678e-07
-1.03129e-07
-6.2855e-07
-1.06929e-07
-5.51053e-07
-8.7476e-08
2.04318e-07
-1.14152e-07
4.2254e-07
-3.40863e-08
1.76371e-07
6.231e-08
1.80535e-07
1.03362e-07
2.04796e-07
7.94786e-08
8.44958e-08
6.16841e-08
1.32804e-07
5.45887e-08
1.07947e-07
1.8886e-08
6.67652e-08
-2.82098e-09
2.7003e-08
-7.80278e-09
2.299e-09
-8.58254e-09
1.44511e-08
-7.96097e-09
2.44824e-08
-1.30469e-08
4.26372e-08
4.90508e-08
-2.01243e-08
1.84153e-08
-1.28974e-06
-1.43123e-08
-1.09993e-06
-1.53991e-08
-2.93357e-07
-3.09215e-08
6.01725e-09
-9.40912e-08
4.01894e-07
-2.71929e-07
4.67364e-07
-3.46891e-07
6.45164e-08
-1.27917e-07
1.28369e-07
-5.32446e-08
5.61673e-07
-1.94412e-07
1.01536e-07
-1.87271e-07
-6.3409e-07
-1.36196e-07
4.31216e-07
-5.72365e-08
5.75257e-07
-1.29803e-07
-5.56166e-07
-1.7502e-07
-5.07486e-07
-1.82723e-07
2.12466e-07
-1.97546e-07
4.37489e-07
-7.06693e-08
4.96212e-08
7.81116e-08
3.10372e-08
9.60096e-08
1.87251e-07
3.71791e-08
1.43299e-07
4.03996e-08
1.31351e-07
3.22531e-08
1.16477e-07
-5.8417e-09
1.04858e-07
-2.1794e-08
4.29494e-08
-2.2194e-08
2.69985e-09
-1.5226e-08
7.48359e-09
-9.95933e-09
1.92159e-08
-7.48004e-09
4.01578e-08
4.86257e-08
-7.05532e-09
-3.36063e-08
-1.25613e-06
3.49138e-08
-9.37702e-07
-5.68832e-08
-2.5662e-08
-2.00279e-07
1.06968e-08
-3.81287e-07
9.39476e-08
-2.91001e-07
2.88234e-07
-3.60436e-07
1.3585e-07
-1.68966e-07
-6.13433e-08
-7.23036e-08
4.66479e-07
-2.28418e-07
2.57612e-07
-2.87123e-07
-5.76457e-07
-2.25056e-07
3.71047e-07
-1.15964e-07
4.66424e-07
-1.92979e-07
-4.79219e-07
-2.88621e-07
-4.11878e-07
-2.35826e-07
1.59244e-07
-1.68775e-07
3.70434e-07
-1.10079e-07
-9.14102e-09
-5.12125e-08
-2.76193e-08
-2.19504e-08
1.5932e-07
-3.59349e-08
1.58682e-07
3.14916e-08
6.39245e-08
5.32618e-08
9.47056e-08
9.8682e-09
1.48254e-07
-1.22025e-08
6.50301e-08
-2.20473e-08
1.2544e-08
-1.90403e-08
4.47646e-09
-1.29071e-08
1.30827e-08
-3.94244e-09
3.11936e-08
4.04009e-08
4.28293e-09
-2.92655e-08
-1.22675e-06
-1.20544e-09
-1.87385e-07
-4.58457e-08
-1.2979e-09
-3.55072e-07
6.09422e-08
-4.18449e-07
-1.07983e-07
-3.27013e-07
7.33137e-08
-4.83023e-07
2.87198e-07
-3.83233e-07
-1.69605e-07
-1.39189e-07
2.21603e-07
-1.87669e-07
3.0615e-07
-3.48489e-07
-4.16315e-07
-1.7742e-07
1.99321e-07
-1.76088e-08
3.06545e-07
-1.76541e-07
-3.20319e-07
-3.3516e-07
-2.53263e-07
-2.51873e-07
7.59545e-08
-1.13406e-07
2.31965e-07
-1.16106e-07
-6.47325e-09
-1.11739e-07
-3.19874e-08
-6.02574e-08
1.07837e-07
-3.76467e-08
1.36071e-07
-7.70582e-09
3.39832e-08
2.29168e-08
6.40823e-08
3.6446e-08
1.34726e-07
3.3983e-08
6.74958e-08
1.88541e-08
2.7673e-08
6.74606e-10
2.2656e-08
-7.06176e-09
2.0819e-08
-2.53482e-09
2.66665e-08
3.11011e-08
6.76472e-09
1.45684e-07
-8.7715e-07
2.59016e-09
-2.81207e-08
-1.50201e-08
1.00458e-08
-7.30053e-08
-9.82374e-09
-4.6956e-07
-1.05583e-07
-6.37045e-07
1.32585e-08
-6.1801e-07
2.63407e-07
-5.49184e-07
-2.56296e-07
-2.39588e-07
-8.8695e-08
-1.58618e-07
2.24552e-07
-3.39992e-07
-2.34986e-07
-9.67679e-08
-4.39827e-08
9.17492e-08
1.17959e-07
-1.32749e-07
-7.3319e-08
-3.34171e-07
-3.09077e-08
-2.69865e-07
8.6562e-10
-7.6397e-08
1.85804e-08
-6.45009e-08
-1.6883e-08
-1.07335e-07
1.08463e-08
-3.81668e-08
3.8668e-08
1.30392e-08
8.48643e-08
-9.27821e-09
5.63001e-08
-7.66905e-09
6.24727e-08
4.53994e-08
8.16574e-08
6.15458e-08
5.13492e-08
4.78468e-08
4.1372e-08
3.41519e-08
3.63509e-08
1.93094e-08
3.56616e-08
1.1747e-08
3.42291e-08
3.29713e-08
9.87691e-09
1.20803e-08
-5.10831e-12
1.60276e-09
-8.5434e-12
-1.67652e-10
1.94482e-11
-1.03542e-08
9.21012e-11
-2.51062e-07
-1.23515e-08
-5.28864e-07
-4.99062e-09
-4.449e-07
7.119e-08
-5.28189e-07
-8.60303e-08
-3.7126e-07
-2.59798e-07
-2.06874e-07
5.96621e-08
-2.51854e-07
-1.53314e-07
-1.95843e-07
-6.50608e-08
-3.39059e-08
-1.54596e-08
-4.23776e-08
4.69296e-11
-5.73654e-08
-8.04879e-09
-4.1896e-08
-1.96434e-11
-3.59873e-08
-6.77879e-12
-1.65049e-08
-1.63159e-11
-2.5833e-08
2.7626e-11
7.42036e-09
-2.97398e-09
3.36058e-08
6.76838e-09
4.22783e-08
1.16746e-08
4.11156e-08
1.41013e-08
6.37947e-08
1.57799e-08
5.69618e-08
1.47092e-08
4.5924e-08
1.55801e-08
3.38527e-08
1.35714e-08
2.53451e-08
1.30246e-08
1.93149e-08
1.13336e-08
1.5409e-08
1.04911e-08
1.47716e-08
-1.99577e-08
3.81379e-08
-2.35092e-08
6.91722e-08
-3.1193e-08
9.71687e-08
-2.79153e-08
1.46842e-07
-5.03344e-08
2.02136e-07
-5.65512e-08
2.04081e-07
-1.94758e-09
2.17773e-07
-1.36953e-08
1.74647e-07
4.31213e-08
5.30627e-08
1.23056e-07
-1.43817e-08
6.76677e-08
-3.07501e-08
1.63684e-08
-2.61756e-08
-4.57456e-09
1.0914e-08
-3.69949e-08
3.59014e-08
-2.49739e-08
3.38206e-08
2.08078e-09
2.78136e-08
6.00705e-09
2.30254e-08
4.78827e-09
1.23406e-08
1.06847e-08
8.28059e-09
4.06009e-09
-4.94618e-09
1.32268e-08
-1.83835e-08
1.34374e-08
-2.82432e-08
9.85969e-09
-3.23419e-08
4.09869e-09
-4.34528e-08
1.11109e-08
-5.90452e-08
1.55924e-08
-7.62386e-08
1.71934e-08
-7.56821e-08
-5.56404e-10
-4.55804e-08
-3.01017e-08
-4.55804e-08
1.67422e-08
-4.09242e-08
3.73688e-08
-4.41283e-08
6.24314e-08
-5.6227e-08
1.04171e-07
-6.96298e-08
1.43528e-07
-8.96713e-08
2.03375e-07
-1.16376e-07
2.50467e-07
-4.91393e-08
2.92721e-07
-5.61151e-08
3.12545e-07
2.29187e-08
2.21922e-07
2.14393e-07
8.70716e-08
2.03281e-07
6.79011e-09
9.68858e-08
9.20828e-09
-7.01173e-09
2.90477e-08
-5.68973e-08
4.08594e-08
-3.67557e-08
3.21791e-08
1.07612e-08
5.1501e-09
3.30361e-08
-6.39352e-09
1.63319e-08
-2.97221e-08
3.40133e-08
-4.00785e-08
1.44166e-08
-6.08025e-08
3.39507e-08
-7.95349e-08
3.21698e-08
-8.99313e-08
2.0256e-08
-9.24794e-08
6.64689e-09
-9.95355e-08
1.8167e-08
-1.08203e-07
2.42601e-08
-1.1574e-07
2.47298e-08
-9.87379e-08
-1.75581e-08
-5.21053e-08
-7.67344e-08
-9.76857e-08
6.20028e-10
-5.27785e-08
1.7612e-08
-6.10931e-08
4.19474e-08
-8.0564e-08
6.96793e-08
-9.73998e-08
9.86366e-08
-1.18692e-07
1.44406e-07
-1.62188e-07
2.15711e-07
-1.20474e-07
2.64189e-07
-1.04649e-07
2.97636e-07
-1.06627e-08
2.77219e-07
2.35031e-07
1.68363e-07
3.12177e-07
7.10972e-08
1.94179e-07
3.78654e-08
2.61825e-08
1.70285e-08
-3.6142e-08
1.15886e-08
-3.13125e-08
-6.03096e-10
2.29529e-08
-3.32845e-08
6.57175e-08
-3.79426e-08
2.09901e-08
-6.19709e-08
5.80416e-08
-6.91273e-08
2.1573e-08
-8.60579e-08
5.08813e-08
-1.03641e-07
4.97526e-08
-1.08354e-07
2.49698e-08
-1.07558e-07
5.85055e-09
-1.09646e-07
2.02547e-08
-1.14282e-07
2.88963e-08
-1.17947e-07
2.83952e-08
-9.6681e-08
-3.88243e-08
-4.82631e-08
-1.25152e-07
-1.45949e-07
-5.67548e-09
-6.23011e-08
5.37358e-09
-7.21796e-08
1.51114e-08
-9.03433e-08
2.95429e-08
-1.11828e-07
5.12146e-08
-1.40442e-07
7.96049e-08
-1.90828e-07
1.49061e-07
-1.90213e-07
2.20652e-07
-1.76363e-07
2.57393e-07
-4.75372e-08
2.63822e-07
2.28163e-07
1.9804e-07
3.77883e-07
1.10834e-07
2.81318e-07
5.65934e-08
8.03903e-08
3.74418e-09
1.66927e-08
-1.56981e-08
-1.18702e-08
-3.37754e-08
4.10302e-08
-6.34184e-08
9.53605e-08
-5.42828e-08
1.18545e-08
-7.27685e-08
7.65273e-08
-7.94861e-08
2.82907e-08
-9.183e-08
6.32252e-08
-1.09644e-07
6.75665e-08
-1.11122e-07
2.64481e-08
-1.09088e-07
3.81607e-09
-1.09546e-07
2.07135e-08
-1.13565e-07
3.29148e-08
-1.16861e-07
3.16908e-08
-9.51399e-08
-6.0545e-08
-4.66098e-08
-1.73683e-07
-1.92559e-07
-2.52563e-08
-5.7205e-08
-3.75477e-08
-5.99135e-08
-5.88179e-08
-6.91063e-08
-6.14069e-08
-1.09258e-07
-3.51718e-08
-1.66644e-07
-8.57605e-10
-2.25107e-07
5.17615e-08
-2.42795e-07
1.07931e-07
-2.32493e-07
1.60312e-07
-1.00285e-07
1.8974e-07
1.98775e-07
1.76993e-07
3.90259e-07
1.27363e-07
3.30947e-07
6.57968e-08
1.41955e-07
-1.04018e-08
9.28931e-08
-3.94295e-08
1.71576e-08
-5.75482e-08
5.91488e-08
-8.55761e-08
1.23388e-07
-6.07328e-08
-1.29887e-08
-6.98007e-08
8.55952e-08
-8.26594e-08
4.11494e-08
-9.17846e-08
7.23503e-08
-1.11226e-07
8.70082e-08
-1.11436e-07
2.66575e-08
-1.08915e-07
1.29516e-09
-1.08899e-07
2.06982e-08
-1.13253e-07
3.72685e-08
-1.16846e-07
3.52833e-08
-9.51522e-08
-8.22383e-08
-4.63379e-08
-2.22497e-07
-2.38896e-07
-3.35516e-08
-3.81649e-08
-5.37498e-08
-3.97153e-08
-6.19171e-08
-6.09389e-08
-5.6098e-08
-1.15094e-07
-4.27702e-08
-1.79979e-07
-2.94061e-08
-2.38454e-07
-2.75812e-09
-2.69532e-07
2.9424e-08
-2.64783e-07
7.21788e-08
-1.43152e-07
1.06808e-07
1.64184e-07
1.10879e-07
3.86232e-07
9.7141e-08
3.44131e-07
4.4128e-08
1.94947e-07
-3.5451e-08
1.72472e-07
-6.29251e-08
4.46317e-08
-7.29155e-08
6.91393e-08
-9.72521e-08
1.47725e-07
-6.21984e-08
-4.80424e-08
-6.11905e-08
8.45874e-08
-8.34715e-08
6.34304e-08
-9.11982e-08
8.0077e-08
-1.12154e-07
1.07964e-07
-1.11902e-07
2.64057e-08
-1.08797e-07
-1.8095e-09
-1.08468e-07
2.03685e-08
-1.1336e-07
4.21608e-08
-1.17333e-07
3.92567e-08
-9.56529e-08
-1.03919e-07
-4.64535e-08
-2.71696e-07
-2.8535e-07
-2.2041e-08
-1.79768e-08
-3.66858e-08
-2.50704e-08
-4.07398e-08
-5.68848e-08
-4.44949e-08
-1.11362e-07
-5.76398e-08
-1.66972e-07
-6.90683e-08
-2.27197e-07
-6.79029e-08
-2.70533e-07
-5.80401e-08
-2.7445e-07
-2.56374e-08
-1.75413e-07
2.03452e-08
1.18239e-07
4.13159e-08
3.65304e-07
4.96998e-08
3.35796e-07
2.47538e-09
2.42329e-07
-6.54331e-08
2.40381e-07
-8.26416e-08
6.18402e-08
-7.34149e-08
5.99126e-08
-8.74043e-08
1.61715e-07
-6.1158e-08
-7.42887e-08
-5.49442e-08
7.83735e-08
-8.37619e-08
9.22482e-08
-9.14146e-08
8.77297e-08
-1.13027e-07
1.29577e-07
-1.1271e-07
2.60885e-08
-1.08722e-07
-5.79736e-09
-1.08059e-07
1.97052e-08
-1.13594e-07
4.76959e-08
-1.18009e-07
4.36721e-08
-9.63144e-08
-1.25614e-07
-4.66639e-08
-3.21347e-07
-3.32014e-07
-7.20956e-09
-2.05688e-09
-2.34736e-08
-8.80631e-09
-3.93278e-08
-4.10305e-08
-5.57762e-08
-9.49139e-08
-7.11993e-08
-1.51549e-07
-8.83192e-08
-2.10077e-07
-9.90675e-08
-2.60014e-07
-1.04846e-07
-2.68656e-07
-8.33018e-08
-1.9672e-07
-3.18532e-08
6.71296e-08
8.61669e-09
3.24879e-07
1.77781e-08
3.27506e-07
-3.22176e-08
2.9244e-07
-7.7439e-08
2.85602e-07
-8.77921e-08
7.21933e-08
-5.3534e-08
2.56545e-08
-5.4329e-08
1.6251e-07
-5.91844e-08
-6.94332e-08
-5.53566e-08
7.45457e-08
-8.45952e-08
1.21487e-07
-9.26114e-08
9.57459e-08
-1.13849e-07
1.50814e-07
-1.13817e-07
2.60561e-08
-1.08628e-07
-1.09863e-08
-1.076e-07
1.86769e-08
-1.13883e-07
5.3979e-08
-1.18815e-07
4.86046e-08
-9.7085e-08
-1.47344e-07
-4.69097e-08
-3.71522e-07
-3.78923e-07
2.99031e-10
1.03983e-08
-1.47307e-08
6.22386e-09
-3.02113e-08
-2.55495e-08
-4.48405e-08
-8.02848e-08
-6.05739e-08
-1.35815e-07
-7.99428e-08
-1.90709e-07
-1.05458e-07
-2.34498e-07
-1.35854e-07
-2.38514e-07
-1.44972e-07
-1.87842e-07
-9.13084e-08
1.36191e-08
-3.66556e-08
2.71155e-07
-2.20671e-08
3.13104e-07
-4.80632e-08
3.1844e-07
-5.74522e-08
2.94991e-07
-6.17773e-08
7.65185e-08
-2.63826e-08
-9.74014e-09
-2.5795e-08
1.61922e-07
-6.10527e-08
-3.41754e-08
-6.1712e-08
7.5205e-08
-8.55882e-08
1.45363e-07
-9.4939e-08
1.05097e-07
-1.14538e-07
1.70413e-07
-1.15153e-07
2.66719e-08
-1.08518e-07
-1.76221e-08
-1.07073e-07
1.72324e-08
-1.14217e-07
6.11232e-08
-1.19748e-07
5.41349e-08
-9.79595e-08
-1.69132e-07
-4.71801e-08
-4.22302e-07
-4.26103e-07
2.52273e-09
1.77796e-08
-7.74644e-09
1.64932e-08
-2.28274e-08
-1.04686e-08
-4.33282e-08
-5.97841e-08
-6.22792e-08
-1.16865e-07
-8.33451e-08
-1.69643e-07
-1.09498e-07
-2.08345e-07
-1.45478e-07
-2.02535e-07
-1.86077e-07
-1.47385e-07
-1.55792e-07
-1.67021e-08
-9.16065e-08
2.07038e-07
-5.80486e-08
2.79546e-07
-5.67259e-08
3.17117e-07
-3.7284e-08
2.75549e-07
-2.8117e-08
6.73515e-08
-8.10522e-09
-2.97519e-08
-1.59612e-08
1.69778e-07
-6.71598e-08
1.70233e-08
-6.99165e-08