/*--------------------------------*- C++ -*----------------------------------*\
| =========                 |                                                 |
| \\      /  F ield         | OpenFOAM: The Open Source CFD Toolbox           |
|  \\    /   O peration     | Version:  2.4.0                                 |
|   \\  /    A nd           | Web:      www.OpenFOAM.org                      |
|    \\/     M anipulation  |                                                 |
\*---------------------------------------------------------------------------*/
FoamFile
{
    version     2.0;
    format      ascii;
    class       volVectorField;
    location    "0.269";
    object      U;
}
// * * * * * * * * * * * * * * * * * * * * * * * * * * * * * * * * * * * * * //

dimensions      [0 1 -1 0 0 0 0];

internalField   nonuniform List<vector> 
60000
(
(-0.000384994 0.000148062 0)
(-0.0014462 0.00015469 0)
(-0.00257794 0.000157589 0)
(-0.00370814 0.000155202 0)
(-0.00482544 0.000151594 0)
(-0.00592626 0.000147007 0)
(-0.00700638 0.000141592 0)
(-0.00806166 0.000135415 0)
(-0.00908791 0.000128552 0)
(-0.0100809 0.000121055 0)
(-0.0110366 0.000113001 0)
(-0.011951 0.000104468 0)
(-0.0128202 9.55231e-05 0)
(-0.0136406 8.6258e-05 0)
(-0.0144089 7.67077e-05 0)
(-0.0151218 6.69077e-05 0)
(-0.0157764 5.69032e-05 0)
(-0.0163697 4.67079e-05 0)
(-0.0168992 3.63418e-05 0)
(-0.0173623 2.58061e-05 0)
(-0.0177565 1.50881e-05 0)
(-0.0180794 4.151e-06 0)
(-0.0183285 -7.05398e-06 0)
(-0.0185013 -1.85959e-05 0)
(-0.0185953 -3.06889e-05 0)
(-0.0186082 -4.3464e-05 0)
(-0.0185361 -5.51232e-05 0)
(-0.0183751 -6.73948e-05 0)
(-0.0181225 -8.03103e-05 0)
(-0.0177752 -9.40368e-05 0)
(-0.01733 -0.000108447 0)
(-0.0167841 -0.000123425 0)
(-0.0161356 -0.000138694 0)
(-0.0153817 -0.000154313 0)
(-0.0145199 -0.000170238 0)
(-0.0135483 -0.000186399 0)
(-0.0124652 -0.000202708 0)
(-0.0112698 -0.000219056 0)
(-0.00996142 -0.000235316 0)
(-0.00854048 -0.000251361 0)
(-0.00700785 -0.000267056 0)
(-0.00536518 -0.000282274 0)
(-0.00361475 -0.000296904 0)
(-0.00175948 -0.000310872 0)
(0.000196562 -0.000324206 0)
(0.00224994 -0.000336195 0)
(0.004397 -0.000347405 0)
(0.00663125 -0.00035809 0)
(0.00894905 -0.000366462 0)
(0.0113458 -0.000374268 0)
(0.0138165 -0.000381482 0)
(0.0163557 -0.000388043 0)
(0.0189581 -0.000393583 0)
(0.0216191 -0.000398279 0)
(0.0243337 -0.000401967 0)
(0.0270968 -0.000404913 0)
(0.0299031 -0.000406972 0)
(0.0327469 -0.000408118 0)
(0.0356221 -0.000408391 0)
(0.0385222 -0.000407662 0)
(0.0414403 -0.000405783 0)
(0.0443688 -0.000402644 0)
(0.0472995 -0.000398124 0)
(0.0502236 -0.00039208 0)
(0.0531315 -0.000384393 0)
(0.0560132 -0.00037493 0)
(0.0588579 -0.000363566 0)
(0.0616545 -0.000350191 0)
(0.0643911 -0.000334696 0)
(0.0670555 -0.000316985 0)
(0.0696351 -0.000296978 0)
(0.0721171 -0.000274633 0)
(0.0744886 -0.000249951 0)
(0.0767367 -0.000222978 0)
(0.0788491 -0.000193822 0)
(0.0808142 -0.000162676 0)
(0.0826214 -0.000129834 0)
(0.0842619 -9.57123e-05 0)
(0.0857292 -6.0846e-05 0)
(0.0870195 -2.58949e-05 0)
(0.0881326 8.37658e-06 0)
(0.089072 4.11202e-05 0)
(0.0898457 7.14483e-05 0)
(0.090466 9.84886e-05 0)
(0.0909495 0.000121453 0)
(0.0913168 0.000139716 0)
(0.0915914 0.0001529 0)
(0.0917985 0.000160935 0)
(0.0919631 0.000164084 0)
(0.0921088 0.000162924 0)
(0.0922555 0.000158243 0)
(0.0924185 0.000150847 0)
(0.0926085 0.000141388 0)
(0.0928315 0.000130392 0)
(0.0930904 0.000118399 0)
(0.0933848 0.000106221 0)
(0.0937121 9.51243e-05 0)
(0.0940649 8.69892e-05 0)
(0.0944339 8.4067e-05 0)
(0.0947921 8.98049e-05 0)
(-0.000664995 0.000796617 0)
(-0.00267067 0.000992193 0)
(-0.00477123 0.0010144 0)
(-0.00686849 0.00100815 0)
(-0.00894677 0.000997116 0)
(-0.0110029 0.000982615 0)
(-0.013031 0.000964723 0)
(-0.0150254 0.000943315 0)
(-0.0169797 0.000918305 0)
(-0.0188877 0.000889615 0)
(-0.0207427 0.000857272 0)
(-0.0225384 0.000821355 0)
(-0.0242681 0.000781979 0)
(-0.0259255 0.000739312 0)
(-0.0275042 0.000693464 0)
(-0.028998 0.000644604 0)
(-0.0304011 0.000592911 0)
(-0.0317079 0.000538537 0)
(-0.0329128 0.000481638 0)
(-0.0340107 0.000422317 0)
(-0.0349966 0.000360637 0)
(-0.0358653 0.000296619 0)
(-0.0366122 0.000230255 0)
(-0.0372324 0.0001615 0)
(-0.037721 9.01873e-05 0)
(-0.0380731 1.6406e-05 0)
(-0.0382842 -5.83921e-05 0)
(-0.0383491 -0.000136513 0)
(-0.0382616 -0.000218587 0)
(-0.0380163 -0.000303918 0)
(-0.0376075 -0.000391983 0)
(-0.0370301 -0.00048209 0)
(-0.0362808 -0.000574005 0)
(-0.035356 -0.00066796 0)
(-0.0342519 -0.000763758 0)
(-0.0329655 -0.000861065 0)
(-0.0314943 -0.000959483 0)
(-0.0298368 -0.00105855 0)
(-0.0279921 -0.00115774 0)
(-0.0259605 -0.00125652 0)
(-0.0237429 -0.00135431 0)
(-0.0213416 -0.00145055 0)
(-0.0187596 -0.00154472 0)
(-0.0160008 -0.00163638 0)
(-0.0130703 -0.0017252 0)
(-0.00997318 -0.00180996 0)
(-0.00671538 -0.00189132 0)
(-0.00330414 -0.00196918 0)
(0.000254258 -0.00204137 0)
(0.00395225 -0.00210996 0)
(0.00778343 -0.0021742 0)
(0.0117395 -0.002235 0)
(0.0158125 -0.00229103 0)
(0.0199955 -0.00234283 0)
(0.0242805 -0.00238999 0)
(0.0286593 -0.00243289 0)
(0.0331242 -0.00247078 0)
(0.0376664 -0.00250349 0)
(0.0422769 -0.00253093 0)
(0.0469461 -0.00255271 0)
(0.0516643 -0.00256829 0)
(0.0564206 -0.00257725 0)
(0.0612039 -0.00257908 0)
(0.0660021 -0.00257327 0)
(0.0708025 -0.0025593 0)
(0.0755917 -0.00253669 0)
(0.0803559 -0.002505 0)
(0.0850803 -0.00246379 0)
(0.0897498 -0.00241269 0)
(0.0943485 -0.00235135 0)
(0.0988604 -0.00227952 0)
(0.103269 -0.00219705 0)
(0.107557 -0.00210396 0)
(0.111708 -0.00200043 0)
(0.115706 -0.00188689 0)
(0.119534 -0.00176407 0)
(0.123178 -0.00163305 0)
(0.126626 -0.00149537 0)
(0.129865 -0.00135301 0)
(0.132889 -0.00120846 0)
(0.135694 -0.00106461 0)
(0.138281 -0.000924787 0)
(0.140654 -0.000792522 0)
(0.142826 -0.000671429 0)
(0.144813 -0.000564934 0)
(0.146639 -0.000475981 0)
(0.148328 -0.000406685 0)
(0.149913 -0.000357988 0)
(0.151425 -0.000329415 0)
(0.152894 -0.000318987 0)
(0.154347 -0.000323377 0)
(0.155805 -0.00033843 0)
(0.157282 -0.00035997 0)
(0.158782 -0.000384433 0)
(0.160305 -0.000409135 0)
(0.161844 -0.000432048 0)
(0.163392 -0.000451206 0)
(0.164938 -0.000464086 0)
(0.166477 -0.000467445 0)
(0.167993 -0.000454903 0)
(-0.000788377 0.00175654 0)
(-0.00321005 0.00218481 0)
(-0.00571767 0.00221954 0)
(-0.00822315 0.00220521 0)
(-0.0107053 0.00218243 0)
(-0.0131611 0.0021531 0)
(-0.015584 0.00211722 0)
(-0.0179677 0.00207457 0)
(-0.0203054 0.00202499 0)
(-0.0225905 0.00196837 0)
(-0.024816 0.00190475 0)
(-0.0269752 0.0018342 0)
(-0.0290614 0.00175687 0)
(-0.0310677 0.00167296 0)
(-0.0329875 0.00158266 0)
(-0.0348145 0.00148625 0)
(-0.0365424 0.001384 0)
(-0.038165 0.00127616 0)
(-0.0396766 0.00116298 0)
(-0.0410713 0.00104462 0)
(-0.0423434 0.000921197 0)
(-0.0434872 0.000792764 0)
(-0.0444971 0.000659344 0)
(-0.0453674 0.000520938 0)
(-0.0460923 0.000377646 0)
(-0.0466656 0.000229547 0)
(-0.0470821 7.59269e-05 0)
(-0.0473368 -8.376e-05 0)
(-0.0474235 -0.000250231 0)
(-0.0473359 -0.0004227 0)
(-0.0470684 -0.000600498 0)
(-0.0466142 -0.000782848 0)
(-0.0459674 -0.000969329 0)
(-0.0451239 -0.00115987 0)
(-0.0440798 -0.00135411 0)
(-0.0428314 -0.00155132 0)
(-0.0413764 -0.00175071 0)
(-0.0397131 -0.00195135 0)
(-0.0378409 -0.00215222 0)
(-0.0357601 -0.00235224 0)
(-0.0334724 -0.00255032 0)
(-0.0309804 -0.00274536 0)
(-0.0282878 -0.00293634 0)
(-0.0253993 -0.00312232 0)
(-0.0223206 -0.00330244 0)
(-0.0190579 -0.00347567 0)
(-0.0156182 -0.0036419 0)
(-0.0120093 -0.00380067 0)
(-0.00823891 -0.00395121 0)
(-0.00431512 -0.00409379 0)
(-0.000245791 -0.00422748 0)
(0.00396027 -0.00435375 0)
(0.00829431 -0.00447132 0)
(0.0127482 -0.00458052 0)
(0.0173131 -0.00468129 0)
(0.0219809 -0.00477343 0)
(0.0267429 -0.00485631 0)
(0.0315898 -0.00492955 0)
(0.036512 -0.00499269 0)
(0.0415 -0.00504519 0)
(0.0465435 -0.00508632 0)
(0.0516319 -0.00511539 0)
(0.0567537 -0.0051316 0)
(0.0618971 -0.0051341 0)
(0.0670495 -0.00512208 0)
(0.0721979 -0.00509473 0)
(0.0773286 -0.00505131 0)
(0.0824273 -0.0049911 0)
(0.0874793 -0.00491342 0)
(0.0924692 -0.00481768 0)
(0.0973813 -0.00470339 0)
(0.102199 -0.00457025 0)
(0.106907 -0.00441815 0)
(0.111487 -0.00424729 0)
(0.115923 -0.00405822 0)
(0.1202 -0.00385201 0)
(0.124301 -0.00363033 0)
(0.128213 -0.00339557 0)
(0.131923 -0.00315093 0)
(0.135422 -0.00290043 0)
(0.138703 -0.00264895 0)
(0.141766 -0.00240207 0)
(0.144612 -0.00216594 0)
(0.14725 -0.00194696 0)
(0.149695 -0.00175142 0)
(0.151965 -0.00158493 0)
(0.154086 -0.00145187 0)
(0.156087 -0.00135471 0)
(0.158 -0.00129346 0)
(0.159857 -0.00126536 0)
(0.161685 -0.00126486 0)
(0.163507 -0.00128433 0)
(0.165338 -0.00131536 0)
(0.167182 -0.00135016 0)
(0.169035 -0.0013826 0)
(0.170889 -0.00140839 0)
(0.17273 -0.00142475 0)
(0.174549 -0.0014295 0)
(0.176336 -0.00142055 0)
(0.178082 -0.00139364 0)
(-0.000834062 0.00279247 0)
(-0.00339831 0.00347733 0)
(-0.00604356 0.00352672 0)
(-0.00869079 0.00350445 0)
(-0.0113144 0.00346967 0)
(-0.0139123 0.00342517 0)
(-0.0164778 0.00337094 0)
(-0.0190046 0.00330664 0)
(-0.021486 0.00323207 0)
(-0.0239153 0.00314709 0)
(-0.0262857 0.00305173 0)
(-0.0285903 0.00294605 0)
(-0.0308224 0.00283024 0)
(-0.0329751 0.00270451 0)
(-0.0350417 0.00256916 0)
(-0.0370157 0.00242451 0)
(-0.0388906 0.00227091 0)
(-0.0406603 0.00210867 0)
(-0.0423186 0.00193808 0)
(-0.0438592 0.00175933 0)
(-0.0452762 0.00157253 0)
(-0.0465633 0.00137774 0)
(-0.0477143 0.00117493 0)
(-0.048723 0.00096404 0)
(-0.0495829 0.000744996 0)
(-0.0502875 0.000517674 0)
(-0.0508301 0.000281555 0)
(-0.0512046 3.68662e-05 0)
(-0.0514049 -0.000216461 0)
(-0.0514245 -0.000478936 0)
(-0.0512575 -0.000750357 0)
(-0.0508975 -0.00102975 0)
(-0.0503379 -0.00131622 0)
(-0.0495734 -0.00160896 0)
(-0.0485998 -0.00190728 0)
(-0.0474135 -0.00221013 0)
(-0.0460118 -0.00251621 0)
(-0.0443933 -0.00282411 0)
(-0.0425574 -0.00313224 0)
(-0.0405046 -0.00343897 0)
(-0.038237 -0.00374261 0)
(-0.0357575 -0.00404151 0)
(-0.0330701 -0.00433411 0)
(-0.0301803 -0.00461896 0)
(-0.0270941 -0.00489475 0)
(-0.0238184 -0.00516025 0)
(-0.0203607 -0.00541484 0)
(-0.0167294 -0.00565784 0)
(-0.0129328 -0.00588858 0)
(-0.00897955 -0.00610696 0)
(-0.00487835 -0.00631256 0)
(-0.000638299 -0.00650596 0)
(0.00373157 -0.00668646 0)
(0.0082224 -0.00685404 0)
(0.012825 -0.00700877 0)
(0.0175309 -0.00715016 0)
(0.0223311 -0.00727802 0)
(0.0272159 -0.00739165 0)
(0.0321755 -0.00749008 0)
(0.0372 -0.00757271 0)
(0.0422792 -0.00763868 0)
(0.0474021 -0.00768698 0)
(0.0525571 -0.00771653 0)
(0.0577323 -0.00772626 0)
(0.0629152 -0.00771504 0)
(0.0680926 -0.00768183 0)
(0.073251 -0.00762556 0)
(0.078376 -0.00754528 0)
(0.0834532 -0.00744005 0)
(0.0884672 -0.00730905 0)
(0.0934025 -0.00715158 0)
(0.0982431 -0.00696715 0)
(0.102973 -0.00675553 0)
(0.107575 -0.00651689 0)
(0.112033 -0.00625188 0)
(0.11633 -0.00596183 0)
(0.120452 -0.00564892 0)
(0.124384 -0.0053163 0)
(0.128113 -0.00496825 0)
(0.13163 -0.00461028 0)
(0.134927 -0.00424907 0)
(0.138001 -0.00389243 0)
(0.140855 -0.00354907 0)
(0.143496 -0.00322816 0)
(0.145937 -0.00293884 0)
(0.148197 -0.00268952 0)
(0.1503 -0.00248697 0)
(0.152274 -0.00233535 0)
(0.15415 -0.00223529 0)
(0.155958 -0.00218325 0)
(0.157727 -0.00217136 0)
(0.159476 -0.00218814 0)
(0.161218 -0.00222058 0)
(0.162952 -0.00225637 0)
(0.164674 -0.00228584 0)
(0.16637 -0.00230279 0)
(0.168026 -0.00230412 0)
(0.169632 -0.00228875 0)
(0.17118 -0.00225646 0)
(0.17266 -0.00220675 0)
(-0.000850812 0.00385739 0)
(-0.00346116 0.00480209 0)
(-0.00614994 0.00486787 0)
(-0.0088448 0.00483862 0)
(-0.011517 0.00479271 0)
(-0.0141654 0.00473403 0)
(-0.0167832 0.00466252 0)
(-0.0193643 0.00457771 0)
(-0.0219021 0.0044793 0)
(-0.0243898 0.0043671 0)
(-0.0268205 0.00424109 0)
(-0.0291874 0.00410132 0)
(-0.0314834 0.00394799 0)
(-0.0337017 0.00378136 0)
(-0.0358352 0.00360177 0)
(-0.0378775 0.00340961 0)
(-0.0398218 0.0032053 0)
(-0.0416618 0.00298917 0)
(-0.043391 0.00276155 0)
(-0.0450029 0.00252263 0)
(-0.0464913 0.00227252 0)
(-0.0478496 0.00201123 0)
(-0.0490712 0.0017387 0)
(-0.0501497 0.00145479 0)
(-0.051078 0.00115936 0)
(-0.0518492 0.000852209 0)
(-0.0524563 0.000533022 0)
(-0.0528924 0.000201859 0)
(-0.0531506 -0.000141264 0)
(-0.0532244 -0.000496664 0)
(-0.0531074 -0.000864131 0)
(-0.0527934 -0.00124281 0)
(-0.0522761 -0.00163162 0)
(-0.0515496 -0.00202925 0)
(-0.0506095 -0.00243445 0)
(-0.0494519 -0.00284577 0)
(-0.0480741 -0.00326142 0)
(-0.0464745 -0.00367939 0)
(-0.0446525 -0.00409755 0)
(-0.042609 -0.00451363 0)
(-0.0403461 -0.00492535 0)
(-0.0378668 -0.00533046 0)
(-0.0351758 -0.00572682 0)
(-0.0322785 -0.00611247 0)
(-0.0291815 -0.00648565 0)
(-0.0258922 -0.00684486 0)
(-0.0224185 -0.00718904 0)
(-0.018769 -0.00751731 0)
(-0.0149526 -0.00782897 0)
(-0.0109784 -0.00812372 0)
(-0.00685533 -0.00840131 0)
(-0.00259286 -0.00866198 0)
(0.00179975 -0.00890534 0)
(0.00631335 -0.00913123 0)
(0.0109385 -0.00933962 0)
(0.0156665 -0.00953006 0)
(0.0204882 -0.00970242 0)
(0.0253937 -0.00985573 0)
(0.0303732 -0.00998887 0)
(0.0354165 -0.0101011 0)
(0.0405132 -0.0101912 0)
(0.0456523 -0.010258 0)
(0.050822 -0.0103001 0)
(0.0560103 -0.0103162 0)
(0.0612043 -0.010305 0)
(0.0663911 -0.0102651 0)
(0.0715567 -0.0101951 0)
(0.0766869 -0.0100939 0)
(0.081767 -0.00996028 0)
(0.0867816 -0.00979321 0)
(0.091715 -0.00959175 0)
(0.0965511 -0.00935524 0)
(0.101273 -0.00908333 0)
(0.105865 -0.00877609 0)
(0.11031 -0.00843427 0)
(0.114591 -0.00805941 0)
(0.118691 -0.00765413 0)
(0.122598 -0.00722229 0)
(0.126296 -0.00676922 0)
(0.129776 -0.00630185 0)
(0.133031 -0.00582867 0)
(0.136056 -0.00535971 0)
(0.138853 -0.00490618 0)
(0.14143 -0.00448006 0)
(0.143799 -0.00409338 0)
(0.145978 -0.00375735 0)
(0.147993 -0.00348115 0)
(0.149872 -0.00327063 0)
(0.151647 -0.00312693 0)
(0.153347 -0.00304549 0)
(0.154999 -0.00301574 0)
(0.156623 -0.00302203 0)
(0.158227 -0.00304629 0)
(0.159808 -0.00307145 0)
(0.161356 -0.00308462 0)
(0.162853 -0.00307834 0)
(0.164286 -0.00305001 0)
(0.165642 -0.00300025 0)
(0.166915 -0.0029311 0)
(0.168096 -0.00284687 0)
(-0.000859212 0.00493457 0)
(-0.00348896 0.00613901 0)
(-0.0061954 0.00622219 0)
(-0.00891065 0.00618672 0)
(-0.0116039 0.00613038 0)
(-0.0142747 0.0060583 0)
(-0.0169162 0.00597032 0)
(-0.0195222 0.00586583 0)
(-0.0220863 0.00574442 0)
(-0.0246015 0.0056058 0)
(-0.0270609 0.00544987 0)
(-0.0294574 0.00527668 0)
(-0.031784 0.00508644 0)
(-0.0340335 0.00487944 0)
(-0.036199 0.00465608 0)
(-0.0382737 0.00441683 0)
(-0.040251 0.00416212 0)
(-0.0421241 0.00389235 0)
(-0.0438867 0.00360786 0)
(-0.0455321 0.00330883 0)
(-0.047054 0.00299537 0)
(-0.0484456 0.00266742 0)
(-0.0497002 0.00232487 0)
(-0.0508111 0.00196752 0)
(-0.0517713 0.00159513 0)
(-0.0525735 0.00120743 0)
(-0.0532105 0.000804162 0)
(-0.0536751 0.000385265 0)
(-0.0539599 -4.9262e-05 0)
(-0.0540583 -0.000499275 0)
(-0.0539632 -0.000964324 0)
(-0.0536686 -0.00144374 0)
(-0.0531682 -0.00193626 0)
(-0.0524562 -0.00244033 0)
(-0.0515275 -0.00295418 0)
(-0.0503785 -0.00347582 0)
(-0.049006 -0.00400291 0)
(-0.0474086 -0.00453288 0)
(-0.0455856 -0.00506295 0)
(-0.0435378 -0.00559023 0)
(-0.0412676 -0.00611177 0)
(-0.0387782 -0.00662471 0)
(-0.0360744 -0.00712632 0)
(-0.0331619 -0.0076141 0)
(-0.0300477 -0.00808584 0)
(-0.0267395 -0.00853969 0)
(-0.0232455 -0.00897423 0)
(-0.0195746 -0.00938838 0)
(-0.0157362 -0.00978136 0)
(-0.0117393 -0.0101528 0)
(-0.00759357 -0.0105024 0)
(-0.00330828 -0.0108304 0)
(0.0011071 -0.0111365 0)
(0.00564332 -0.0114206 0)
(0.0102909 -0.0116826 0)
(0.015041 -0.0119219 0)
(0.0198845 -0.0121386 0)
(0.0248117 -0.0123314 0)
(0.0298127 -0.0124991 0)
(0.0348772 -0.0126406 0)
(0.0399949 -0.0127546 0)
(0.0451547 -0.0128396 0)
(0.0503449 -0.0128939 0)
(0.0555532 -0.0129161 0)
(0.0607671 -0.0129043 0)
(0.0659732 -0.0128571 0)
(0.0711577 -0.0127729 0)
(0.0763063 -0.0126501 0)
(0.0814039 -0.0124874 0)
(0.0864355 -0.0122834 0)
(0.0913849 -0.012037 0)
(0.096236 -0.0117474 0)
(0.100972 -0.011414 0)
(0.105576 -0.0110368 0)
(0.11003 -0.0106165 0)
(0.114317 -0.0101549 0)
(0.118422 -0.00965495 0)
(0.122327 -0.00912123 0)
(0.126019 -0.0085601 0)
(0.129487 -0.00797989 0)
(0.132722 -0.00739096 0)
(0.13572 -0.00680557 0)
(0.138483 -0.00623757 0)
(0.141016 -0.00570183 0)
(0.143332 -0.00521341 0)
(0.145451 -0.0047865 0)
(0.147398 -0.0044329 0)
(0.149204 -0.00416031 0)
(0.150901 -0.00397045 0)
(0.152522 -0.00385751 0)
(0.154097 -0.0038078 0)
(0.155644 -0.0038007 0)
(0.15717 -0.00381227 0)
(0.158669 -0.00382025 0)
(0.160124 -0.00380853 0)
(0.161517 -0.0037689 0)
(0.162829 -0.00369999 0)
(0.164046 -0.00360494 0)
(0.165164 -0.00348848 0)
(0.166173 -0.00336067 0)
(-0.000865211 0.00601899 0)
(-0.00350751 0.00748244 0)
(-0.00622524 0.00758357 0)
(-0.00895341 0.0075423 0)
(-0.0116598 0.00747597 0)
(-0.0143447 0.00739091 0)
(-0.0170009 0.0072869 0)
(-0.0196223 0.00716316 0)
(-0.0222024 0.00701914 0)
(-0.0247342 0.00685443 0)
(-0.0272105 0.00666888 0)
(-0.0296243 0.0064625 0)
(-0.0319683 0.00623553 0)
(-0.0342354 0.0059883 0)
(-0.0364185 0.00572128 0)
(-0.0385109 0.00543497 0)
(-0.0405058 0.0051299 0)
(-0.0423965 0.00480649 0)
(-0.0441765 0.0044651 0)
(-0.0458394 0.00410593 0)
(-0.0473786 0.00372902 0)
(-0.0487875 0.00333432 0)
(-0.0500593 0.0029216 0)
(-0.0511873 0.0024906 0)
(-0.0521642 0.00204099 0)
(-0.0529828 0.00157244 0)
(-0.0536359 0.00108466 0)
(-0.0541159 0.000577557 0)
(-0.0544154 5.11896e-05 0)
(-0.0545273 -0.000494151 0)
(-0.0544444 -0.00105791 0)
(-0.0541603 -0.00163918 0)
(-0.0536685 -0.00223655 0)
(-0.0529635 -0.00284818 0)
(-0.0520399 -0.00347188 0)
(-0.0508937 -0.00410511 0)
(-0.0495219 -0.00474498 0)
(-0.0479228 -0.00538829 0)
(-0.0460957 -0.00603162 0)
(-0.0440416 -0.00667139 0)
(-0.0417626 -0.00730401 0)
(-0.0392623 -0.00792595 0)
(-0.0365456 -0.00853386 0)
(-0.0336186 -0.00912469 0)
(-0.0304883 -0.00969577 0)
(-0.0271628 -0.0102448 0)
(-0.0236507 -0.0107702 0)
(-0.0199612 -0.0112706 0)
(-0.0161037 -0.0117451 0)
(-0.0120877 -0.0121932 0)
(-0.00792288 -0.0126149 0)
(-0.00361863 -0.0130102 0)
(0.000815569 -0.013379 0)
(0.00537044 -0.0137211 0)
(0.0100366 -0.0140366 0)
(0.0148051 -0.0143248 0)
(0.0196671 -0.0145858 0)
(0.0246132 -0.014818 0)
(0.0296332 -0.0150202 0)
(0.0347171 -0.015191 0)
(0.0398547 -0.0153289 0)
(0.0450348 -0.0154321 0)
(0.050246 -0.0154988 0)
(0.0554758 -0.0155269 0)
(0.0607116 -0.0155147 0)
(0.0659403 -0.0154603 0)
(0.0711478 -0.0153618 0)
(0.0763198 -0.0152174 0)
(0.0814414 -0.0150255 0)
(0.0864972 -0.0147845 0)
(0.091471 -0.014493 0)
(0.0963466 -0.01415 0)
(0.101107 -0.0137546 0)
(0.105734 -0.0133068 0)
(0.110211 -0.0128071 0)
(0.114519 -0.0122575 0)
(0.118641 -0.0116612 0)
(0.12256 -0.0110235 0)
(0.126262 -0.0103516 0)
(0.129734 -0.00965542 0)
(0.132966 -0.00894713 0)
(0.135953 -0.00824134 0)
(0.138695 -0.00755462 0)
(0.141199 -0.00690492 0)
(0.143477 -0.00631061 0)
(0.14555 -0.00578914 0)
(0.147443 -0.00535533 0)
(0.14919 -0.0050191 0)
(0.150828 -0.00478305 0)
(0.152394 -0.00464024 0)
(0.15392 -0.00457326 0)
(0.155427 -0.00455557 0)
(0.156922 -0.00455624 0)
(0.158396 -0.00454691 0)
(0.159828 -0.00450787 0)
(0.161193 -0.00443041 0)
(0.162468 -0.0043151 0)
(0.163639 -0.00416843 0)
(0.164699 -0.00399821 0)
(0.165638 -0.00382084 0)
(-0.00087049 0.00710921 0)
(-0.00352359 0.00883102 0)
(-0.0062513 0.00895041 0)
(-0.00899051 0.00890359 0)
(-0.0117081 0.00882755 0)
(-0.0144049 0.00872978 0)
(-0.0170735 0.00860998 0)
(-0.0197078 0.00846721 0)
(-0.022301 0.00830073 0)
(-0.0248463 0.00811006 0)
(-0.0273362 0.00789495 0)
(-0.0297636 0.00765542 0)
(-0.0321212 0.00739169 0)
(-0.0344017 0.00710418 0)
(-0.0365981 0.00679342 0)
(-0.0387035 0.00645998 0)
(-0.0407112 0.00610446 0)
(-0.0426145 0.00572734 0)
(-0.0444071 0.00532899 0)
(-0.0460824 0.00490962 0)
(-0.047634 0.00446926 0)
(-0.0490553 0.00400777 0)
(-0.0503397 0.00352486 0)
(-0.0514802 0.00302018 0)
(-0.0524697 0.00249329 0)
(-0.0533009 0.00194379 0)
(-0.0539665 0.00137135 0)
(-0.0544588 0.000775824 0)
(-0.0547703 0.000157299 0)
(-0.0548936 -0.000483836 0)
(-0.0548213 -0.00114687 0)
(-0.0545465 -0.00183071 0)
(-0.0540629 -0.00253371 0)
(-0.0533644 -0.00325375 0)
(-0.0524457 -0.0039882 0)
(-0.0513027 -0.004734 0)
(-0.0499321 -0.00548768 0)
(-0.0483321 -0.00624541 0)
(-0.0465019 -0.00700309 0)
(-0.0444425 -0.00775646 0)
(-0.0421561 -0.00850119 0)
(-0.0396464 -0.00923309 0)
(-0.0369184 -0.00994816 0)
(-0.0339785 -0.0106428 0)
(-0.0308339 -0.0113138 0)
(-0.027493 -0.0119586 0)
(-0.0239647 -0.0125751 0)
(-0.0202585 -0.0131618 0)
(-0.016384 -0.0137179 0)
(-0.012351 -0.0142429 0)
(-0.00816921 -0.0147365 0)
(-0.00384815 -0.015199 0)
(0.000602754 -0.0156304 0)
(0.00517424 -0.0160305 0)
(0.00985707 -0.0163994 0)
(0.0146423 -0.0167366 0)
(0.0195212 -0.0170419 0)
(0.0244848 -0.0173136 0)
(0.029523 -0.0175505 0)
(0.0346258 -0.017751 0)
(0.0397829 -0.0179131 0)
(0.0449836 -0.0180348 0)
(0.0502161 -0.0181142 0)
(0.0554683 -0.0181487 0)
(0.0607275 -0.0181364 0)
(0.0659804 -0.0180751 0)
(0.0712131 -0.0179626 0)
(0.0764112 -0.017797 0)
(0.0815596 -0.0175762 0)
(0.086643 -0.0172985 0)
(0.0916452 -0.0169622 0)
(0.0965494 -0.0165658 0)
(0.101339 -0.0161085 0)
(0.105995 -0.0155897 0)
(0.110499 -0.01501 0)
(0.114834 -0.0143713 0)
(0.11898 -0.0136772 0)
(0.12292 -0.0129335 0)
(0.126638 -0.0121483 0)
(0.13012 -0.011333 0)
(0.133354 -0.0105016 0)
(0.136335 -0.00967114 0)
(0.139062 -0.00886112 0)
(0.14154 -0.00809274 0)
(0.143782 -0.00738797 0)
(0.145809 -0.006768 0)
(0.14765 -0.00625116 0)
(0.14934 -0.00585023 0)
(0.150921 -0.0055692 0)
(0.152435 -0.00540014 0)
(0.153921 -0.00532144 0)
(0.155403 -0.00529952 0)
(0.156889 -0.00529501 0)
(0.158366 -0.00527206 0)
(0.159807 -0.00520664 0)
(0.161182 -0.00508975 0)
(0.162462 -0.00492479 0)
(0.16363 -0.00472234 0)
(0.16468 -0.00449352 0)
(0.165595 -0.00426126 0)
(-0.000875684 0.00820487 0)
(-0.0035395 0.0101846 0)
(-0.0062775 0.0103225 0)
(-0.00902786 0.0102703 0)
(-0.0117568 0.0101848 0)
(-0.0144657 0.0100746 0)
(-0.0171468 0.00993925 0)
(-0.0197942 0.00977762 0)
(-0.0224008 0.00958881 0)
(-0.0249596 0.00937224 0)
(-0.0274633 0.00912759 0)
(-0.0299043 0.00885484 0)
(-0.0322754 0.00855427 0)
(-0.0345691 0.00822637 0)
(-0.0367785 0.00787173 0)
(-0.0388966 0.00749103 0)
(-0.0409166 0.00708495 0)
(-0.0428322 0.00665402 0)
(-0.0446368 0.00619867 0)
(-0.0463241 0.00571909 0)
(-0.0478877 0.00521528 0)
(-0.0493211 0.00468705 0)
(-0.0506177 0.00413402 0)
(-0.0517707 0.00355572 0)
(-0.0527728 0.00295162 0)
(-0.0536169 0.0023212 0)
(-0.0542954 0.00166407 0)
(-0.0548006 0.000980045 0)
(-0.0551247 0.000269195 0)
(-0.0552603 -0.000468028 0)
(-0.0551996 -0.00123077 0)
(-0.0549355 -0.00201773 0)
(-0.0544613 -0.00282704 0)
(-0.0537709 -0.00365623 0)
(-0.0528586 -0.00450228 0)
(-0.0517202 -0.00536159 0)
(-0.0503521 -0.00623011 0)
(-0.0487523 -0.00710334 0)
(-0.0469201 -0.00797648 0)
(-0.0448562 -0.00884454 0)
(-0.0425631 -0.00970246 0)
(-0.0400444 -0.0105453 0)
(-0.0373054 -0.0113685 0)
(-0.0343526 -0.0121677 0)
(-0.0311936 -0.0129393 0)
(-0.0278371 -0.0136802 0)
(-0.0242923 -0.0143882 0)
(-0.020569 -0.0150616 0)
(-0.0166771 -0.0156993 0)
(-0.0126266 -0.016301 0)
(-0.00842728 -0.0168666 0)
(-0.00408889 -0.0173962 0)
(0.000379268 -0.0178901 0)
(0.00496797 -0.0183482 0)
(0.00966811 -0.0187707 0)
(0.0144708 -0.0191571 0)
(0.0193676 -0.0195066 0)
(0.0243499 -0.0198182 0)
(0.0294074 -0.0200902 0)
(0.0345305 -0.0203207 0)
(0.0397089 -0.0205075 0)
(0.044932 -0.0206483 0)
(0.0501881 -0.0207408 0)
(0.055465 -0.0207823 0)
(0.0607501 -0.0207705 0)
(0.0660299 -0.0207028 0)
(0.0712908 -0.0205769 0)
(0.076518 -0.0203905 0)
(0.0816967 -0.0201413 0)
(0.0868112 -0.0198273 0)
(0.0918453 -0.0194464 0)
(0.0967823 -0.018997 0)
(0.101604 -0.0184776 0)
(0.106294 -0.0178878 0)
(0.110831 -0.0172276 0)
(0.115197 -0.016499 0)
(0.119371 -0.0157056 0)
(0.123336 -0.0148536 0)
(0.127074 -0.0139524 0)
(0.130568 -0.0130144 0)
(0.133808 -0.0120558 0)
(0.136784 -0.011096 0)
(0.139495 -0.0101575 0)
(0.141947 -0.009265 0)
(0.14415 -0.00844449 0)
(0.146127 -0.00772137 0)
(0.147908 -0.00711821 0)
(0.149533 -0.00665145 0)
(0.15105 -0.00632717 0)
(0.152507 -0.00613678 0)
(0.15395 -0.0060541 0)
(0.155411 -0.00603708 0)
(0.156896 -0.00603578 0)
(0.158389 -0.00600495 0)
(0.159855 -0.00591543 0)
(0.161256 -0.00575845 0)
(0.162558 -0.00554123 0)
(0.163741 -0.00527941 0)
(0.164796 -0.00498717 0)
(0.165704 -0.00469373 0)
(-0.000881081 0.00930612 0)
(-0.00355624 0.0115435 0)
(-0.00630547 0.0117002 0)
(-0.00906787 0.0116429 0)
(-0.0118092 0.0115483 0)
(-0.0145312 0.0114258 0)
(-0.0172261 0.0112752 0)
(-0.0198877 0.0110949 0)
(-0.0225091 0.0108839 0)
(-0.0250829 0.0106415 0)
(-0.0276016 0.0103673 0)
(-0.0300576 0.0100613 0)
(-0.0324434 0.00972374 0)
(-0.0347517 0.00935529 0)
(-0.0369752 0.00895662 0)
(-0.0391071 0.00852851 0)
(-0.0411406 0.00807173 0)
(-0.0430694 0.00758691 0)
(-0.0448871 0.0070745 0)
(-0.0465874 0.00653471 0)
(-0.0481641 0.00596751 0)
(-0.0496108 0.00537263 0)
(-0.0509209 0.00474959 0)
(-0.0520876 0.00409779 0)
(-0.0531038 0.00341658 0)
(-0.0539622 0.00270534 0)
(-0.0546551 0.00196356 0)
(-0.0551747 0.00119099 0)
(-0.0555133 0.000387684 0)
(-0.0556627 -0.000445864 0)
(-0.0556154 -0.0013087 0)
(-0.0553638 -0.00219932 0)
(-0.0549008 -0.0031156 0)
(-0.05422 -0.00405475 0)
(-0.0533156 -0.00501331 0)
(-0.0521829 -0.00598716 0)
(-0.0508183 -0.00697164 0)
(-0.0492195 -0.00796158 0)
(-0.0473856 -0.00895143 0)
(-0.0453174 -0.00993544 0)
(-0.0430173 -0.0109078 0)
(-0.040489 -0.0118627 0)
(-0.037738 -0.012795 0)
(-0.0347711 -0.0136997 0)
(-0.0315962 -0.0145726 0)
(-0.0282225 -0.0154103 0)
(-0.0246594 -0.0162101 0)
(-0.020917 -0.0169704 0)
(-0.0170058 -0.0176899 0)
(-0.0129358 -0.0183684 0)
(-0.00871721 -0.0190058 0)
(-0.00435961 -0.0196025 0)
(0.000127657 -0.0201589 0)
(0.00473541 -0.0206749 0)
(0.00945463 -0.0211509 0)
(0.0142768 -0.0215867 0)
(0.0191937 -0.021981 0)
(0.0241965 -0.0223327 0)
(0.0292756 -0.0226403 0)
(0.0344213 -0.0229014 0)
(0.0396236 -0.0231135 0)
(0.0448718 -0.023274 0)
(0.0501543 -0.0233802 0)
(0.055459 -0.0234293 0)
(0.0607731 -0.0234185 0)
(0.0660834 -0.023345 0)
(0.0713758 -0.0232063 0)
(0.0766359 -0.0229997 0)
(0.0818486 -0.0227226 0)
(0.0869982 -0.0223728 0)
(0.0920685 -0.0219478 0)
(0.0970425 -0.0214456 0)
(0.101902 -0.0208645 0)
(0.106629 -0.0202034 0)
(0.111204 -0.0194623 0)
(0.115605 -0.0186427 0)
(0.119813 -0.0177484 0)
(0.123808 -0.016786 0)
(0.127569 -0.0157656 0)
(0.131079 -0.0147011 0)
(0.134326 -0.0136105 0)
(0.137298 -0.0125159 0)
(0.139993 -0.0114429 0)
(0.142414 -0.01042 0)
(0.144574 -0.00947745 0)
(0.146494 -0.00864554 0)
(0.148206 -0.00795193 0)
(0.149756 -0.00741772 0)
(0.151196 -0.00705214 0)
(0.152586 -0.00684653 0)
(0.15398 -0.00676976 0)
(0.155417 -0.0067694 0)
(0.156906 -0.00678209 0)
(0.158425 -0.0067506 0)
(0.159927 -0.00663975 0)
(0.161364 -0.00644173 0)
(0.162696 -0.00616918 0)
(0.1639 -0.00584393 0)
(0.164968 -0.00548276 0)
(0.165872 -0.00512002 0)
(-0.000886814 0.0104133 0)
(-0.0035742 0.0129083 0)
(-0.00633579 0.0130839 0)
(-0.00911141 0.0130219 0)
(-0.0118663 0.0129184 0)
(-0.0146029 0.0127841 0)
(-0.0173131 0.0126184 0)
(-0.0199907 0.0124197 0)
(-0.0226284 0.0121867 0)
(-0.0252189 0.0119186 0)
(-0.0277544 0.0116148 0)
(-0.0302272 0.0112755 0)
(-0.0326295 0.0109009 0)
(-0.034954 0.0104917 0)
(-0.0371933 0.0100488 0)
(-0.0393405 0.00957314 0)
(-0.041389 0.00906551 0)
(-0.0433325 0.00852669 0)
(-0.0451647 0.00795718 0)
(-0.0468795 0.0073572 0)
(-0.0484708 0.00672668 0)
(-0.0499323 0.00606525 0)
(-0.0512575 0.00537235 0)
(-0.0524397 0.00464722 0)
(-0.0534717 0.00388906 0)
(-0.0543461 0.0030971 0)
(-0.0550553 0.00227073 0)
(-0.0555914 0.0014096 0)
(-0.0559461 0.000513722 0)
(-0.0561115 -0.000416404 0)
(-0.0560794 -0.00137974 0)
(-0.055842 -0.00237456 0)
(-0.0553918 -0.00339854 0)
(-0.0547222 -0.00444853 0)
(-0.053827 -0.00552062 0)
(-0.0527012 -0.00661019 0)
(-0.0513408 -0.00771192 0)
(-0.0497433 -0.00881994 0)
(-0.0479078 -0.00992793 0)
(-0.0458349 -0.0110293 0)
(-0.0435269 -0.0121175 0)
(-0.0409878 -0.0131859 0)
(-0.0382233 -0.0142285 0)
(-0.0352405 -0.0152397 0)
(-0.0320477 -0.0162148 0)
(-0.0286544 -0.0171499 0)
(-0.0250706 -0.018042 0)
(-0.0213069 -0.0188894 0)
(-0.0173738 -0.0196908 0)
(-0.013282 -0.020446 0)
(-0.00904169 -0.0211552 0)
(-0.0046626 -0.0218189 0)
(-0.00015398 -0.0224377 0)
(0.00447501 -0.0230116 0)
(0.0092154 -0.0235413 0)
(0.0140591 -0.0240264 0)
(0.0189982 -0.0244661 0)
(0.024024 -0.0248585 0)
(0.0291271 -0.0252021 0)
(0.034298 -0.0254943 0)
(0.0395269 -0.0257323 0)
(0.0448031 -0.0259132 0)
(0.0501151 -0.0260339 0)
(0.0554508 -0.0260913 0)
(0.0607973 -0.0260822 0)
(0.0661415 -0.0260037 0)
(0.0714692 -0.0258527 0)
(0.0767659 -0.0256265 0)
(0.0820165 -0.0253222 0)
(0.0872054 -0.0249371 0)
(0.0923161 -0.0244685 0)
(0.0973316 -0.023914 0)
(0.102234 -0.0232713 0)
(0.107003 -0.022539 0)
(0.11162 -0.0217164 0)
(0.116063 -0.0208049 0)
(0.120309 -0.0198081 0)
(0.124337 -0.0187327 0)
(0.128126 -0.0175897 0)
(0.131657 -0.0163943 0)
(0.134912 -0.0151665 0)
(0.137882 -0.0139309 0)
(0.14056 -0.0127165 0)
(0.142948 -0.0115557 0)
(0.145059 -0.0104836 0)
(0.146913 -0.00953604 0)
(0.148546 -0.00874673 0)
(0.150007 -0.00814275 0)
(0.151357 -0.00773792 0)
(0.152666 -0.00752446 0)
(0.154003 -0.00746584 0)
(0.155414 -0.00749688 0)
(0.156912 -0.007537 0)
(0.158465 -0.00751369 0)
(0.160015 -0.00738451 0)
(0.161498 -0.00714368 0)
(0.162867 -0.0068116 0)
(0.164096 -0.00641812 0)
(0.16518 -0.00598191 0)
(0.166083 -0.00553991 0)
(-0.000892939 0.0115268 0)
(-0.00359347 0.0142795 0)
(-0.00636855 0.0144744 0)
(-0.00915862 0.0144079 0)
(-0.0119285 0.014296 0)
(-0.0146812 0.0141503 0)
(-0.0174082 0.01397 0)
(-0.0201035 0.0137531 0)
(-0.0227595 0.0134983 0)
(-0.0253686 0.0132045 0)
(-0.0279229 0.0128712 0)
(-0.0304143 0.0124984 0)
(-0.032835 0.0120866 0)
(-0.0351774 0.0116365 0)
(-0.0374341 0.0111492 0)
(-0.0395983 0.0106257 0)
(-0.0416634 0.0100671 0)
(-0.0436231 0.00947413 0)
(-0.0454714 0.00884748 0)
(-0.0472022 0.00818733 0)
(-0.0488096 0.00749357 0)
(-0.0502875 0.00676576 0)
(-0.0516295 0.00600317 0)
(-0.0528288 0.0052049 0)
(-0.0538785 0.00436998 0)
(-0.0547709 0.00349746 0)
(-0.0554984 0.00258659 0)
(-0.0560529 0.00163688 0)
(-0.0564259 0.000648301 0)
(-0.0566091 -0.000378683 0)