/*--------------------------------*- C++ -*----------------------------------*\
| =========                 |                                                 |
| \\      /  F ield         | OpenFOAM: The Open Source CFD Toolbox           |
|  \\    /   O peration     | Version:  2.4.0                                 |
|   \\  /    A nd           | Web:      www.OpenFOAM.org                      |
|    \\/     M anipulation  |                                                 |
\*---------------------------------------------------------------------------*/
FoamFile
{
    version     2.0;
    format      ascii;
    class       surfaceScalarField;
    location    "0.273";
    object      phiAlpha;
}
// * * * * * * * * * * * * * * * * * * * * * * * * * * * * * * * * * * * * * //

dimensions      [0 3 -1 0 0 0 0];

internalField   nonuniform List<scalar> 
19800
(
-1.70477e-63
1.72656e-67
-1.83685e-59
2.19236e-63
-5.6345e-56
1.03175e-59
-3.7984e-53
1.23445e-56
-6.96411e-51
1.10869e-54
-4.6857e-49
-9.64338e-49
-1.47148e-47
-9.51431e-47
-2.65037e-46
-2.53206e-45
-3.42014e-45
-4.69932e-45
-3.82648e-44
8.02571e-46
-3.91782e-43
1.7678e-44
-3.56208e-42
2.13169e-43
-2.9428e-41
1.85537e-42
-2.31719e-40
1.36148e-41
-1.8199e-39
9.30253e-41
-1.51946e-38
6.30772e-40
-1.26017e-37
4.54999e-39
-9.50658e-37
3.2664e-38
-6.40416e-36
2.13617e-37
-3.78737e-35
1.24841e-36
-1.99179e-34
6.40554e-36
-9.42195e-34
2.92216e-35
-4.03847e-33
1.19912e-34
-1.55809e-32
4.46222e-34
-5.37679e-32
1.49785e-33
-1.64379e-31
4.51509e-33
-4.36939e-31
1.21319e-32
-9.35407e-31
2.85827e-32
-1.4157e-30
5.48194e-32
-1.50993e-30
7.53038e-32
-1.13949e-30
7.40491e-32
-6.28163e-31
5.24665e-32
-2.63457e-31
2.76678e-32
-8.805e-32
1.12672e-32
-2.46657e-32
3.68332e-33
-5.97667e-33
1.01036e-33
-1.23423e-33
2.39214e-34
-2.08088e-34
4.81564e-35
-2.74429e-35
7.90987e-36
-2.75561e-36
1.01811e-36
-2.12637e-37
1.00152e-37
-1.29427e-38
7.60665e-39
-6.1942e-40
4.57671e-40
-2.08906e-41
2.17109e-41
-4.60252e-43
7.261e-43
-1.03158e-44
1.58286e-44
-8.09619e-45
3.49334e-46
-5.08797e-44
2.6797e-46
-3.34676e-43
1.62977e-45
1.02475e-44
-1.877e-42
-9.94999e-60
1.15092e-63
-1.11229e-55
2.01233e-59
-2.79176e-52
9.07034e-56
-1.45274e-49
8.0964e-53
-2.1209e-47
-7.95924e-50
-1.16418e-45
-1.66419e-45
-2.97406e-44
-1.30544e-43
-4.35759e-43
-3.13481e-42
-4.9924e-42
-9.34959e-42
-5.83166e-41
2.7263e-42
-6.54171e-40
5.86884e-41
-6.27039e-39
6.70218e-40
-5.36965e-38
5.533e-39
-4.33601e-37
3.94769e-38
-3.35002e-36
2.66212e-37
-2.68979e-35
1.734e-36
-2.11079e-34
1.18447e-35
-1.45875e-33
7.96264e-35
-9.01848e-33
4.7361e-34
-4.9664e-32
2.52708e-33
-2.4169e-31
1.20288e-32
-1.05569e-30
5.06385e-32
-4.17141e-30
1.91469e-31
-1.4927e-29
6.55712e-31
-4.77928e-29
2.03846e-30
-1.34416e-28
5.69349e-30
-3.27363e-28
1.40568e-29
-6.52673e-28
3.03145e-29
-9.78564e-28
5.41137e-29
-1.09384e-27
7.36327e-29
-9.15338e-28
7.59217e-29
-5.80056e-28
5.97176e-29
-2.85667e-28
3.6268e-29
-1.13873e-28
1.73889e-29
-3.82891e-29
6.80483e-30
-1.10324e-29
2.25114e-30
-2.69791e-30
6.37534e-31
-5.44969e-31
1.53034e-31
-8.85717e-32
3.03462e-32
-1.13802e-32
4.85154e-33
-1.16645e-33
6.15323e-34
-9.60512e-35
6.25019e-35
-6.16968e-36
5.11686e-36
-2.86807e-37
3.27291e-37
-9.15675e-39
1.5142e-38
-4.4486e-40
4.79702e-40
-1.13207e-39
2.30029e-41
-1.71932e-38
5.73446e-41
-2.38107e-37
8.45038e-40
1.12246e-38
-2.8363e-36
-6.18637e-57
8.10167e-61
-7.52988e-53
1.85868e-56
-1.50618e-49
8.92412e-53
-5.40817e-47
4.76907e-50
-4.68483e-45
-3.70677e-45
-6.59147e-44
-9.72143e-43
1.57715e-43
-5.8393e-41
1.03404e-41
-1.30722e-39
2.31976e-40
-7.98131e-39
2.25878e-39
1.1582e-39
4.80894e-39
2.87404e-38
-6.75612e-37
3.25588e-37
-9.96608e-36
2.60907e-36
-9.75819e-35
1.81124e-35
-8.05665e-34
1.18866e-34
-6.3835e-33
7.39751e-34
-4.81923e-32
4.67205e-33
-3.11845e-31
2.89959e-32
-1.78544e-30
1.57078e-31
-9.10271e-30
7.61277e-31
-4.10738e-29
3.30781e-30
-1.66508e-28
1.27757e-29
-6.11363e-28
4.4469e-29
-2.03686e-27
1.40603e-28
-6.12294e-27
4.04868e-28
-1.62485e-26
1.05728e-27
-3.71934e-26
2.45479e-27
-7.09832e-26
4.96268e-27
-1.06266e-25
8.46294e-27
-1.23279e-25
1.148e-26
-1.11283e-25
1.22702e-26
-7.82528e-26
1.04055e-26
-4.36332e-26
7.01569e-27
-2.00125e-26
3.81404e-27
-7.80487e-27
1.7205e-27
-2.61701e-27
6.61523e-28
-7.49324e-28
2.18532e-28
-1.80094e-28
6.1593e-29
-3.57808e-29
1.45802e-29
-5.80389e-30
2.85992e-30
-7.76829e-31
4.59652e-31
-8.42309e-32
6.11894e-32
-7.02368e-33
6.61755e-33
-4.28066e-34
5.50987e-34
-1.99454e-35
3.34938e-35
-1.24351e-35
1.55132e-36
-1.43642e-34
9.56051e-37
-1.50192e-33
1.0834e-35
-1.34781e-32
1.10089e-34
9.49478e-34
-1.0402e-31
-1.16437e-54
1.90392e-58
-1.41888e-50
5.44706e-54
-1.54279e-47
2.65826e-50
1.58758e-48
-6.31451e-46
9.75584e-45
-1.62473e-42
2.3081e-42
-2.38821e-40
1.80177e-40
-1.16849e-38
6.42559e-39
-2.43632e-37
1.21765e-37
-1.90808e-36
1.3222e-36
1.34761e-37
8.49295e-36
4.99359e-36
2.98558e-35
5.7571e-35
-6.85118e-35
4.51251e-34
-5.8745e-33
3.03805e-33
-6.3353e-32
1.91972e-32
-5.30465e-31
1.13272e-31
-3.92898e-30
6.60577e-31
-2.43539e-29
3.74071e-30
-1.30749e-28
1.85718e-29
-6.1724e-28
8.19703e-29
-2.58791e-27
3.23126e-28
-9.74026e-27
1.14244e-27
-3.33098e-26
3.65051e-27
-1.03773e-25
1.06567e-26
-2.93168e-25
2.8497e-26
-7.38747e-25
6.95599e-26
-1.61164e-24
1.52728e-25
-2.97956e-24
2.93382e-25
-4.46076e-24
4.83607e-25
-5.33025e-24
6.54952e-25
-5.09095e-24
7.20134e-25
-3.88282e-24
6.45903e-25
-2.38713e-24
4.72952e-25
-1.22043e-24
2.84273e-25
-5.33479e-25
1.43298e-25
-2.01773e-25
6.18625e-26
-6.58652e-26
2.30802e-26
-1.8331e-26
7.42505e-27
-4.28932e-27
2.03839e-27
-8.37478e-28
4.71821e-28
-1.36862e-28
9.14888e-29
-1.77434e-29
1.49064e-29
-1.75056e-30
1.93202e-30
-1.26365e-31
1.90713e-31
-1.04938e-32
1.37539e-32
-4.51431e-32
1.13685e-33
-4.15358e-31
4.83933e-33
-3.28327e-30
4.37212e-32
-2.22553e-29
3.36193e-31
2.19286e-30
-1.30015e-28
-9.9896e-53
2.59446e-56
-4.80372e-50
8.44232e-52
2.95322e-48
2.17014e-48
8.62655e-45
-6.14979e-43
4.01717e-42
-2.8173e-40
5.68222e-40
-3.00218e-38
3.39089e-38
-1.24735e-36
1.03185e-36
-2.41287e-35
1.78882e-35
-2.05721e-34
1.88781e-34
2.37385e-36
1.27321e-33
4.31471e-34
5.71487e-33
5.17218e-33
1.60307e-32
3.97021e-32
-7.54883e-33
2.57734e-31
-2.13076e-30
1.55457e-30
-2.17526e-29
8.64246e-30
-1.63378e-28
4.65825e-29
-9.83238e-28
2.39613e-28
-4.9978e-27
1.08996e-27
-2.19248e-26
4.39719e-27
-8.52983e-26
1.57353e-26
-2.98251e-25
5.07768e-26
-9.50454e-25
1.48897e-25
-2.77105e-24
4.01268e-25
-7.36351e-24
9.96898e-25
-1.76144e-23
2.27618e-24
-3.69144e-23
4.7253e-24
-6.62876e-23
8.697e-24
-9.91768e-23
1.39028e-23
-1.21482e-22
1.87952e-23
-1.21448e-22
2.11637e-23
-9.8677e-23
1.98699e-23
-6.55296e-23
1.55408e-23
-3.64712e-23
1.01391e-23
-1.74666e-23
5.58453e-24
-7.29258e-24
2.64611e-24
-2.65526e-24
1.09033e-24
-8.32933e-25
3.91279e-25
-2.2138e-25
1.21118e-25
-4.97772e-26
3.1876e-26
-9.23083e-27
7.12968e-27
-1.34981e-27
1.32085e-27
-1.49764e-28
1.93499e-28
-1.19925e-29
2.15222e-29
-2.85091e-30
1.72462e-30
-1.98825e-29
4.08602e-31
-1.5022e-28
2.82267e-30
-9.70899e-28
2.09586e-29
-5.38466e-27
1.3188e-28
7.04477e-28
-2.57792e-26
3.72213e-57
2.41798e-54
5.08035e-50
7.78233e-50
1.05079e-45
-3.71185e-44
1.63862e-42
-9.45178e-41
5.32453e-40
-2.63678e-38
5.94076e-38
-2.22956e-36
3.00984e-36
-8.0575e-35
8.17932e-35
-1.44403e-33
1.31682e-33
-1.25537e-32
1.33219e-32
-1.9281e-32
8.88024e-32
2.19618e-32
4.09751e-31
2.79999e-31
1.36624e-30
2.10508e-30
2.79071e-30
1.30941e-29
-2.62954e-29
7.46446e-29
-5.21009e-28
3.89078e-28
-4.16704e-27
1.93737e-27
-2.45918e-26
9.06838e-27
-1.18654e-25
3.77954e-26
-4.85073e-25
1.39421e-25
-1.74622e-24
4.54125e-25
-5.67152e-24
1.33425e-24
-1.68337e-23
3.59175e-24
-4.59071e-23
8.93524e-24
-1.14715e-22
2.06215e-23
-2.60027e-22
4.40504e-23
-5.23652e-22
8.63617e-23
-9.15102e-22
1.52489e-22
-1.36555e-21
2.37136e-22
-1.70839e-21
3.19675e-22
-1.77579e-21
3.67385e-22
-1.5194e-21
3.58704e-22
-1.0726e-21
2.96698e-22
-6.38969e-22
2.0742e-22
-3.29924e-22
1.22915e-22
-1.49802e-22
6.28983e-23
-5.98501e-23
2.81728e-23
-2.07414e-23
1.1082e-23
-6.13012e-24
3.78751e-24
-1.53499e-24
1.10884e-24
-3.12381e-25
2.76562e-25
-5.0311e-26
5.63368e-26
-6.11739e-27
9.10997e-27
-5.54957e-28
1.11277e-27
-3.19453e-28
1.01204e-28
-2.21688e-27
5.81466e-29
-1.43231e-26
4.00167e-28
-7.90103e-26
2.54329e-27
-3.74453e-25
1.36702e-26
6.24545e-26
-1.53691e-24
1.67418e-53
1.5679e-52
1.12064e-47
-4.86834e-47
1.3942e-43
-7.18304e-42
1.51905e-40
-7.56413e-39
3.84573e-38
-1.53771e-36
3.5816e-36
-1.07679e-34
1.58842e-34
-3.43551e-33
3.91797e-33
-5.70669e-32
5.89664e-32
-4.91199e-31
5.71129e-31
-1.27984e-30
3.71397e-30
7.2436e-31
1.69279e-29
1.00939e-29
5.78986e-29
7.43082e-29
1.46411e-28
4.40536e-28
9.83654e-29
2.35498e-27
-7.96228e-27
1.14312e-26
-7.24508e-26
5.26322e-26
-4.22886e-25
2.24609e-25
-1.93487e-24
8.59954e-25
-7.36411e-24
2.89958e-24
-2.45071e-23
8.60092e-24
-7.37884e-23
2.30172e-23
-2.03893e-22
5.6827e-23
-5.19892e-22
1.30536e-22
-1.22003e-21
2.79899e-22
-2.61369e-21
5.58909e-22
-5.04009e-21
1.03289e-21
-8.57401e-21
1.74566e-21
-1.27369e-20
2.64623e-21
-1.62248e-20
3.55513e-21
-1.7463e-20
4.15654e-21
-1.56158e-20
4.19938e-21
-1.15724e-20
3.65165e-21
-7.29014e-21
2.7144e-21
-4.01517e-21
1.71239e-21
-1.96105e-21
9.35657e-22
-8.48188e-22
4.4997e-22
-3.20203e-22
1.91152e-22
-1.04062e-22
7.10574e-23
-2.85753e-23
2.28731e-23
-6.36591e-24
6.26397e-24
-1.12032e-24
1.39978e-24
-1.49282e-25
2.47943e-25
-1.58179e-26
3.3269e-26
-1.45023e-26
3.54146e-27
-9.18159e-26
3.24628e-27
-5.23625e-25
2.04094e-26
-2.55269e-24
1.14618e-25
-1.07149e-23
5.44942e-25
2.20684e-24
-3.90706e-23
1.9022e-51
7.9765e-51
1.31741e-45
-6.88064e-44
1.06298e-41
-5.69938e-40
8.64612e-39
-3.82869e-37
1.77427e-36
-6.0764e-35
1.413e-34
-3.61085e-33
5.56733e-33
-1.02736e-31
1.25732e-31
-1.58371e-30
1.77679e-30
-1.33013e-29
1.65018e-29
-4.2598e-29
1.04389e-28
1.63246e-29
4.65653e-28
2.58079e-28
1.57066e-27
1.86326e-27
4.13998e-27
1.04929e-26
5.93261e-27
5.22614e-26
-7.95861e-26
2.34836e-25
-9.14808e-25
9.97865e-25
-5.31674e-24
3.88931e-24
-2.30536e-23
1.37293e-23
-8.15282e-23
4.23728e-23
-2.50594e-22
1.1446e-22
-6.98222e-22
2.79145e-22
-1.79561e-21
6.31548e-22
-4.28063e-21
1.33989e-21
-9.41582e-21
2.66986e-21
-1.89968e-20
4.97509e-21
-3.49226e-20
8.64051e-21
-5.76943e-20
1.39365e-20
-8.51438e-20
2.05958e-20
-1.10291e-19
2.75733e-20
-1.2269e-19
3.27278e-20
-1.14022e-19
3.40442e-20
-8.77051e-20
3.09897e-20
-5.78556e-20
2.44172e-20
-3.37477e-20
1.62582e-20
-1.76155e-20
9.40151e-21
-8.18151e-21
4.81294e-21
-3.33879e-21
2.18677e-21
-1.18172e-21
8.76661e-22
-3.54101e-22
3.07249e-22
-8.6628e-23
9.19556e-23
-1.66814e-23
2.26228e-23
-2.45096e-24
4.39722e-24
-2.96483e-25
6.52361e-25
-3.11796e-25
7.94629e-26
-1.80052e-24
8.3707e-26
-9.3285e-24
4.80712e-25
-4.13341e-23
2.45536e-24
-1.57913e-22
1.06202e-23
3.91769e-23
-5.25291e-22
1.83136e-49
3.82224e-49
9.80356e-44
-6.61606e-42
5.32693e-40
-2.78266e-38
3.33632e-37
-1.33871e-35
5.6682e-35
-1.71915e-33
3.91452e-33
-8.80739e-32
1.38279e-31
-2.25108e-30
2.8754e-30
-3.22501e-29
3.82744e-29
-2.62225e-28
3.4147e-28
-9.31774e-28
2.10302e-27
2.56795e-28
9.18476e-27
4.87579e-27
3.01513e-26
3.4656e-26
7.8751e-26
1.85185e-25
1.32853e-25
8.56386e-25
-4.7793e-25
3.54382e-24
-8.73534e-24
1.38356e-23
-5.08436e-23
4.9423e-23
-2.0888e-22
1.61379e-22
-6.86319e-22
4.56651e-22
-1.94471e-21
1.12485e-21
-5.00876e-21
2.49753e-21
-1.19906e-20
5.17488e-21
-2.67259e-20
1.01436e-20
-5.50596e-20
1.87785e-20
-1.0433e-19
3.26158e-20
-1.819e-19
5.30905e-20
-2.90462e-19
8.1423e-20
-4.25358e-19
1.1719e-19
-5.61086e-19
1.56723e-19
-6.45782e-19
1.88854e-19
-6.21224e-19
2.00948e-19
-4.89246e-19
1.90704e-19
-3.34952e-19
1.59462e-19
-2.05932e-19
1.11064e-19
-1.14285e-19
6.73918e-20
-5.68514e-20
3.6433e-20
-2.50272e-20
1.76315e-20
-9.61377e-21
7.60381e-21
-3.13912e-21
2.89263e-21
-8.44733e-22
9.45446e-22
-1.80052e-22
2.56686e-22
-2.92898e-23
5.54162e-23
-3.90454e-24
9.13074e-24
-3.72568e-24
1.22879e-24
-1.97469e-23
1.1768e-24
-9.5122e-23
6.2123e-24
-3.91706e-22
2.95365e-23
-1.3913e-21
1.18842e-22
4.07913e-22
-4.30875e-21
1.57756e-47
1.17676e-47
4.98384e-42
-3.58899e-40
1.8774e-38
-9.38257e-37
9.23314e-36
-3.40843e-34
1.31682e-33
-3.62087e-32
7.96248e-32
-1.61727e-30
2.53798e-30
-3.73411e-29
4.87855e-29
-4.97856e-28
6.13054e-28
-3.90056e-27
5.26127e-27
-1.46812e-26
3.16014e-26
2.76658e-27
1.35607e-25
6.98643e-26
4.32604e-25
4.92696e-25
1.09973e-24
2.50297e-24
1.93771e-24
1.07407e-23
-5.96106e-25
4.07642e-23
-6.44302e-23
1.45532e-22
-3.79012e-22
4.77344e-22
-1.47996e-21
1.44642e-21
-4.52309e-21
3.76533e-21
-1.18049e-20
8.46955e-21
-2.81014e-20
1.7107e-20
-6.26525e-20
3.24547e-20
-1.30606e-19
5.87785e-20
-2.51864e-19
1.01043e-19
-4.47447e-19
1.6328e-19
-7.37239e-19
2.48396e-19
-1.13332e-18
3.61349e-19
-1.65464e-18
5.07297e-19
-2.24119e-18
6.85396e-19
-2.6881e-18
8.44809e-19
-2.66984e-18
9.11628e-19
-2.10301e-18
8.96045e-19
-1.47488e-18
7.98261e-19
-9.49581e-19
5.71763e-19
-5.58397e-19
3.59281e-19
-2.97295e-19
2.03819e-19
-1.41295e-19
1.04889e-19
-5.90031e-20
4.87279e-20
-2.10975e-20
2.01791e-20
-6.26234e-21
7.24836e-21
-1.49108e-21
2.18018e-21
-2.7172e-22
5.27976e-22
-3.90563e-23
9.779e-23
-2.81858e-23
1.42282e-23
-1.3629e-22
1.03265e-23
-6.22276e-22
4.98076e-23
-2.42537e-21
2.2472e-22
-8.14673e-21
8.56589e-22
2.78266e-21
-2.38658e-20
1.06319e-45
-1.69322e-44
1.81754e-40
-1.31913e-38
4.84626e-37
-2.31573e-35
1.89947e-34
-6.55142e-33
2.29782e-32
-5.8462e-31
1.22551e-30
-2.29597e-29
3.54209e-29
-4.81008e-28
6.31252e-28
-5.97479e-27
7.50011e-27
-4.49598e-26
6.19731e-26
-1.74784e-25
3.63685e-25
1.79702e-26
1.53896e-24
7.7151e-25
4.79726e-24
5.46511e-24
1.1819e-23
2.65111e-23
2.09288e-23
1.0587e-22
8.31105e-24
3.67803e-22
-3.6919e-22
1.19594e-21
-2.23519e-21
3.60622e-21
-8.36133e-21
1.01607e-20
-2.38512e-20
2.44505e-20
-5.74002e-20
5.03103e-20
-1.26446e-19
9.24477e-20
-2.62517e-19
1.60672e-19
-5.11696e-19
2.68597e-19
-9.24009e-19
4.28046e-19
-1.53964e-18
6.42348e-19
-2.39912e-18
9.10934e-19
-3.56198e-18
1.25636e-18
-5.28872e-18
1.73972e-18
-7.48643e-18
2.45318e-18
-9.47236e-18
3.15583e-18
-9.78107e-18
3.40068e-18
-7.35163e-18
3.42934e-18
-5.19354e-18
3.26538e-18
-3.46065e-18
2.33287e-18
-2.13916e-18
1.48637e-18
-1.21537e-18
8.761e-19
-6.24268e-19
4.78475e-19
-2.84222e-19
2.4026e-19
-1.11863e-19
1.08909e-19
-3.68588e-20
4.33066e-20
-9.83666e-21
1.4543e-20
-2.02867e-21
3.96671e-21
-3.18047e-22
8.34567e-22
-1.52289e-22
1.32797e-22
-6.45711e-22
6.40711e-23
-2.84019e-21
2.71364e-22
-1.06418e-20
1.18076e-21
-3.42821e-20
4.33067e-21
1.35027e-20
-9.62143e-20
5.3981e-44
-2.6948e-42
4.90034e-39
-3.53029e-37
9.41214e-36
-4.34372e-34
2.97579e-33
-9.77149e-32
3.07948e-31
-7.40843e-30
1.45748e-29
-2.57532e-28
3.83538e-28
-4.91269e-27
6.35159e-27
-5.68915e-26
7.14194e-26
-4.10082e-25
5.6839e-25
-1.62078e-24
3.26298e-24
1.47857e-26
1.36583e-23
6.62578e-24
4.19852e-23
4.79115e-23
1.00634e-22
2.23498e-22
1.7751e-22
8.35908e-22
1.24201e-22
2.66162e-21
-1.61352e-21
7.86473e-21
-1.04901e-20
2.18176e-20
-3.81226e-20
5.72004e-20
-1.02233e-19
1.2787e-19
-2.27692e-19
2.41324e-19
-4.65429e-19
4.03916e-19
-8.99091e-19
6.4406e-19
-1.63716e-18
9.91957e-19
-2.76825e-18
1.46164e-18
-4.32555e-18
2.0312e-18
-6.37895e-18
2.67173e-18
-9.22151e-18
3.47007e-18
-1.43566e-17
4.79084e-18
-2.14713e-17
7.47886e-18
-2.95331e-17
1.03324e-17
-3.49088e-17
1.09655e-17
-2.15032e-17
1.19072e-17
-1.52247e-17
1.13097e-17
-1.04351e-17
7.80196e-18
-6.70495e-18
4.94973e-18
-4.02999e-18
3.00426e-18
-2.22503e-18
1.73576e-18
-1.10377e-18
9.4193e-19
-4.80041e-19
4.69016e-19
-1.76625e-19
2.07823e-19
-5.30324e-20
7.84882e-20
-1.24075e-20
2.42137e-20
-2.18033e-21
5.80018e-21
-6.72072e-22
1.03697e-21
-2.24496e-21
3.226e-22
-9.63314e-21
1.07772e-21
-3.51786e-20
4.57919e-21
-1.09994e-19
1.63828e-20
4.96156e-20
-2.9884e-19
2.04034e-42
-1.43383e-40
9.96196e-38
-7.19436e-36
1.40069e-34
-6.38106e-33
3.61015e-32
-1.15848e-30
3.21963e-30
-7.52676e-29
1.35944e-28
-2.32766e-27
3.26855e-27
-4.05303e-26
5.03898e-26
-4.37589e-25
5.36474e-25
-3.0129e-24
4.11138e-24
-1.19678e-23
2.30995e-23
-6.72635e-24
9.59029e-23
4.44004e-23
2.93664e-22
3.34211e-22
6.9136e-22
1.51379e-21
1.22232e-21
5.35413e-21
1.12006e-21
1.57112e-20
-4.95013e-21
4.22001e-20
-3.89985e-20
1.07383e-19
-1.41132e-19
2.63112e-19
-3.60186e-19
5.48837e-19
-7.4688e-19
9.53084e-19
-1.42119e-18
1.45558e-18
-2.55423e-18
2.13234e-18
-4.33409e-18
3.02238e-18
-6.81784e-18
4.10141e-18
-9.85117e-18
5.23237e-18
-1.33497e-17
6.26309e-18
-1.87421e-17
7.34983e-18
-3.41091e-17
9.86234e-18
-5.29245e-17
1.9456e-17
-9.76717e-17
3.09402e-17
-1.6938e-16
3.88287e-17
-5.62176e-17
4.9625e-17
-3.67255e-17
3.59756e-17
-2.65862e-17
2.02613e-17
-1.77329e-17
1.3089e-17
-1.11694e-17
8.39951e-18
-6.55022e-18
5.1658e-18
-3.51219e-18
3.02314e-18
-1.68159e-18
1.64854e-18
-6.92751e-19
8.12636e-19
-2.35794e-19
3.46258e-19
-6.28023e-20
1.21692e-19
-1.25434e-20
3.32817e-20
-2.80248e-21
6.77456e-21
-6.06061e-21
1.52935e-21
-2.54834e-20
3.31071e-21
-9.18552e-20
1.37959e-20
-2.81747e-19
4.87559e-20
1.44957e-19
-7.47573e-19
5.81353e-41
-4.99241e-39
1.55051e-36
-1.16571e-34
1.61916e-33
-7.58211e-32
3.43376e-31
-1.1214e-29
2.65648e-29
-6.27814e-28
1.00535e-27
-1.73215e-26
2.21509e-26
-2.75528e-25
3.18318e-25
-2.76958e-24
3.2086e-24
-1.81438e-23
2.36604e-23
-7.1693e-23
1.30053e-22
-7.53663e-23
5.36557e-22
2.31334e-22
1.65451e-21
1.86056e-21
3.8724e-21
8.26866e-21
6.95532e-21
2.79732e-20
7.62659e-21
7.64569e-20
-6.9909e-21
1.87607e-19
-1.12147e-19
4.36692e-19
-4.24971e-19
1.00852e-18
-1.04938e-18
1.97073e-18
-2.0399e-18
3.14801e-18
-3.6386e-18
4.38576e-18
-6.08614e-18
5.9302e-18
-9.54986e-18
7.73197e-18
-1.38708e-17
9.58942e-18
-1.86904e-17
1.11603e-17
-2.43993e-17
1.22447e-17
-3.39638e-17
1.34924e-17
-5.87613e-17
1.68136e-17
-1.42387e-16
3.29535e-17
-3.8462e-16
9.88216e-17
-7.61271e-16
9.53803e-16
-3.08889e-16
1.10543e-15
-1.45536e-16
1.89491e-16
-7.66708e-17
7.49235e-17
-4.46711e-17
3.67463e-17
-2.73386e-17
2.21089e-17
-1.6376e-17
1.36409e-17
-9.29105e-18
8.317e-18
-4.83337e-18
4.85756e-18
-2.21654e-18
2.62344e-18
-8.55219e-19
1.25123e-18
-2.62266e-19
4.99994e-19
-6.01862e-20
1.57661e-19
-1.18525e-20
3.68955e-20
-1.34886e-20
7.34477e-21
-5.45703e-20
8.37169e-21
-1.96517e-19
3.35887e-20
-5.97322e-19
1.18687e-19
3.49938e-19
-1.56022e-18
1.26309e-39
-1.31277e-37
1.87983e-35
-1.58673e-33
1.47358e-32
-7.61184e-31
2.59008e-30
-9.19984e-29
1.74767e-28
-4.44338e-27
5.94968e-27
-1.09298e-25
1.20375e-25
-1.58483e-24
1.61315e-24
-1.47741e-23
1.53805e-23
-9.15084e-23
1.08948e-22
-3.55547e-22
5.85129e-22
-5.08471e-22
2.40079e-21
9.2474e-22
7.50638e-21
8.2277e-21
1.78108e-20
3.64939e-20
3.29378e-20
1.19176e-19
4.16612e-20
3.08363e-19
1.56684e-20
6.98593e-19
-2.30079e-19
1.48668e-18
-1.03513e-18
3.28833e-18
-2.53306e-18
6.0804e-18
-4.66684e-18
8.81411e-18
-7.8842e-18
1.11835e-17
-1.22095e-17
1.40676e-17
-1.74115e-17
1.67878e-17
-2.28559e-17
1.87484e-17
-2.80294e-17
1.96108e-17
-3.46702e-17
1.96325e-17
-5.6712e-17
2.03138e-17
-1.50298e-16
2.81718e-17
-4.14211e-16
6.25095e-17
-7.77172e-16
7.21184e-16
-2.80823e-15
1.56924e-15
-2.96282e-15
1.39258e-15
-2.46073e-16
1.5361e-15
-1.23232e-16
1.11342e-16
-6.89139e-17
6.32398e-17
-4.54073e-17
3.79334e-17
-3.01592e-17
2.57159e-17
-1.90087e-17
1.74037e-17
-1.10169e-17
1.12903e-17
-5.68236e-18
6.80093e-18
-2.49786e-18
3.65205e-18
-8.86151e-19
1.66255e-18
-2.3827e-19
6.05977e-19
-4.85033e-20
1.66021e-19
-2.70712e-20
3.41526e-20
-9.73453e-20
1.90964e-20
-3.54232e-19
6.81446e-20
-1.07812e-18
2.43514e-19
7.1949e-19
-2.79406e-18
2.10574e-38
-2.74717e-36
1.81261e-34
-1.88594e-32
1.07205e-31
-6.74065e-30
1.5699e-29
-6.67895e-28
9.27504e-28
-2.78054e-26
2.84586e-26
-6.07873e-25
5.28952e-25
-7.99721e-24
6.60355e-24
-6.87017e-23
5.94087e-23
-3.98649e-22
4.0296e-22
-1.501e-21
2.10823e-21
-2.55809e-21
8.59827e-21
2.74587e-21
2.73583e-20
2.87307e-20
6.72372e-20
1.29601e-19
1.29717e-19
4.1215e-19
1.85669e-19
1.02666e-18
1.61488e-19
2.18828e-18
-2.32697e-19
4.28916e-18
-2.0224e-18
9.35599e-18
-4.98071e-18
1.67764e-17
-9.07953e-18
2.10791e-17
-1.47251e-17
2.46486e-17
-2.0568e-17
2.8805e-17
-2.60395e-17
3.10752e-17
-3.06448e-17
3.0615e-17
-3.61064e-17
2.90321e-17
-4.96177e-17
2.84324e-17
-9.74698e-17
3.35331e-17
-1.81846e-16
5.94626e-17
-2.20474e-16
1.0799e-16
-3.57549e-15
7.22107e-16
-3.65665e-15
1.75594e-15
-4.30482e-15
2.16005e-15
-2.06898e-15
5.17128e-16
-1.30094e-16
2.31383e-16
-6.41125e-17
9.06285e-17
-4.94018e-17
4.40522e-17
-3.88592e-17
3.34536e-17
-2.87549e-17
2.62406e-17
-1.93441e-17
1.97396e-17
-1.15118e-17
1.37317e-17
-5.84264e-18
8.49073e-18
-2.41341e-18
4.45235e-18
-7.65105e-19
1.88447e-18
-1.77523e-19
6.07532e-19
-5.62845e-20
1.42333e-19
-1.48155e-19
4.52178e-20
-5.49039e-19
1.18207e-19
-1.69275e-18
4.30596e-19
1.28987e-18
-4.38993e-18
2.54453e-37
-4.40049e-35
1.35062e-33
-1.90107e-31
6.15236e-31
-5.20513e-29
7.61647e-29
-4.29143e-27
3.97291e-27
-1.55386e-25
1.10285e-25
-3.03508e-24
1.88476e-24
-3.62931e-23
2.18968e-23
-2.86773e-22
1.85341e-22
-1.54946e-21
1.19896e-21
-5.57406e-21
6.08518e-21
-1.0451e-20
2.461e-20
5.54477e-21
7.98056e-20
7.89543e-20
2.05961e-19
3.66095e-19
4.21636e-19
1.14602e-18
6.72522e-19
2.78983e-18
8.10735e-19
5.69791e-18
3.91091e-19
1.04598e-17
-2.7715e-18
1.32689e-17
-7.70955e-18
4.14257e-17
-1.40789e-17
4.25284e-17
-1.95894e-17
4.53592e-17
-2.954e-17
4.20908e-17
-3.05449e-17
4.81103e-17
-2.88583e-17
3.98898e-17
-3.66429e-17
4.13895e-17
-4.16295e-17
3.39142e-17
-5.77505e-17
3.34179e-17
-1.26237e-16
4.40559e-17
-3.66647e-16
8.8114e-17
-7.28079e-16
2.40688e-16
-2.72761e-15
4.70839e-16
-2.09773e-15
1.6327e-15
-2.68555e-16
2.79797e-16
-1.52037e-16
1.19006e-16
-7.18972e-17
9.57031e-17
-5.23879e-17
5.1495e-17
-4.43421e-17
4.01429e-17
-3.70082e-17
3.45719e-17
-2.84364e-17
2.93387e-17
-1.93921e-17
2.32808e-17
-1.13279e-17
1.65039e-17
-5.42717e-18
9.9376e-18
-2.02145e-18
4.86e-18
-5.51438e-19
1.83586e-18
-1.3508e-19
5.05226e-19
-1.98182e-19
1.24063e-19
-7.41531e-19
1.80966e-19
-2.34802e-18
6.66369e-19
2.05191e-18
-6.15527e-18
1.59913e-36
-5.08916e-34
6.06395e-33
-1.52684e-30
2.32887e-30
-3.32651e-28
2.60347e-28
-2.33193e-26
1.25186e-26
-7.44439e-25
3.23143e-25
-1.31077e-23
5.16626e-24
-1.43378e-22
5.64724e-23
-1.04745e-21
4.53065e-22
-5.28784e-21
2.80686e-21
-1.81343e-20
1.38613e-20
-3.57124e-20
5.57162e-20
4.80865e-21
1.84393e-19
1.71593e-19
5.00166e-19
8.1592e-19
1.10538e-18
2.52463e-18
1.95005e-18
6.08326e-18
2.7791e-18
1.2159e-17
1.69208e-18
1.41173e-17
-4.31195e-20
5.95875e-17
-7.88359e-18
8.04777e-17
-1.79301e-17
6.51171e-17
-1.9214e-17
7.39499e-17
-3.72766e-17
6.27064e-17
-3.92433e-17
6.38588e-17
-4.38473e-17
5.42965e-17
-3.10594e-17
7.97408e-17
-3.53426e-17
3.91431e-17
-3.66026e-17
3.5249e-17
-4.29568e-17
3.52267e-17
-8.70544e-17
4.24635e-17
-2.71726e-16
8.5848e-17
-5.21087e-16
2.88539e-16
-2.39081e-16
5.14046e-16
-1.09089e-16
1.36361e-16
-7.62692e-17
6.06317e-17
-5.57527e-17
6.01233e-17
-4.89307e-17
4.71946e-17
-4.65489e-17
4.53533e-17
-4.34331e-17
4.36109e-17
-3.72e-17
4.02343e-17
-2.84141e-17
3.53126e-17
-1.88455e-17
2.81497e-17
-1.03691e-17
1.91893e-17
-4.496e-18
1.07158e-17
-1.44752e-18
4.69484e-18
-3.52093e-19
1.52379e-18
-2.48545e-19
3.71969e-19
-8.78538e-19
2.61475e-19
-2.90469e-18
9.10837e-19
2.93083e-18
-7.79607e-18
-4.6554e-33
-4.09725e-33
-1.00685e-30
-9.44082e-30
4.09094e-31
-1.70679e-27
2.54936e-28
-1.04021e-25
1.67404e-26
-2.96463e-24
4.77292e-25
-4.73753e-23
7.85428e-24
-4.75676e-22
8.63178e-23
-3.21688e-21
6.94857e-22
-1.51609e-20
4.35651e-21
-4.93571e-20
2.20821e-20
-9.87287e-20
9.23818e-20
-3.16483e-20
3.21898e-19
2.9911e-19
9.35552e-19
1.46408e-18
2.25998e-18
4.43942e-18
4.48174e-18
1.04154e-17
7.24149e-18
2.0855e-17
6.67022e-18
3.00032e-17
7.40184e-18
8.27319e-17
-2.77121e-18
1.07355e-16
-2.02022e-17
8.26769e-17
-4.09916e-17
1.07856e-16
-5.02897e-17
2.04699e-16
-3.69808e-17
6.34844e-17
-3.42072e-17
5.82989e-17
-1.91679e-17
5.44972e-17
-2.53244e-17
4.52111e-17
-2.44827e-17
3.54353e-17
-2.62237e-17
3.7495e-17
-3.26597e-17
3.94241e-17
-6.56219e-17
4.77264e-17
-1.06484e-16
9.53589e-17
-5.43214e-17
1.54878e-16
-4.35664e-17
7.03312e-17
-3.86743e-17
3.97693e-17
-3.75934e-17
6.30381e-17
-4.16179e-17
4.89973e-17
-4.61332e-17
5.31248e-17
-4.77341e-17
5.46247e-17
-4.38714e-17
5.20016e-17
-3.66046e-17
4.86192e-17
-2.72502e-17
4.29314e-17
-1.70923e-17
3.26706e-17
-8.57567e-18
2.05836e-17
-3.25836e-18
1.03764e-17
-8.95082e-19
3.97387e-18
-3.36615e-19
1.09811e-18
-9.15887e-19
4.12187e-19
-3.21354e-18
1.10675e-18
3.78041e-18
-8.9841e-18
-1.14334e-31
-2.29902e-32
-3.7497e-29
-4.39647e-29
-2.70631e-27
-6.83178e-27
-7.8837e-26
-3.69905e-25
-1.2328e-24
-9.52873e-24
-1.21397e-23
-1.3913e-22
-8.18263e-23
-1.28611e-21
-3.78947e-22
-8.05162e-21
-1.00254e-21
-3.53249e-20
2.69203e-22
-1.0822e-19
9.41567e-21
-2.12233e-19
6.93095e-20
-1.37494e-19
3.29596e-19
4.29139e-19
1.16926e-18
2.1745e-18
3.27578e-18
6.25677e-18
7.46073e-18
1.41008e-17
1.40085e-17
2.76704e-17
1.99157e-17
4.76084e-17
3.59888e-17
1.5455e-16
6.52705e-18
1.34369e-16
-1.00258e-17
9.93036e-17
-4.92314e-17
1.3113e-16
-3.62575e-17
1.89899e-16
-2.05804e-17
8.87826e-17
-1.31123e-17
5.67741e-17
-8.39856e-18
4.77767e-17
-5.93074e-18
4.35586e-17
-7.3258e-18
4.09054e-17
-1.08094e-17
4.38926e-17
-1.50688e-17
9.28654e-17
-1.98485e-17
4.82002e-17
-2.08242e-17
5.23184e-17
-1.69932e-17
6.08602e-17
-1.93411e-17
4.81966e-17
-4.69066e-17
4.67659e-17
-4.2637e-17
9.0559e-17
-3.72842e-17
5.60447e-17
-5.08872e-17
7.01785e-17
-5.74226e-17
7.82808e-17
-4.9995e-17
7.33698e-17
-4.20491e-17
6.57728e-17
-3.44418e-17
6.0197e-17
-2.45388e-17
4.99385e-17
-1.41424e-17
3.49054e-17
-6.29055e-18
2.00392e-17
-2.05379e-18
9.00196e-18
-5.85994e-19
2.96949e-18
-8.54968e-19
8.48409e-19
-3.16303e-18
1.22239e-18
4.39825e-18
-9.43493e-18
-9.00757e-31
-8.79694e-32
-2.61452e-28
-1.51288e-28
-1.79286e-26
-2.09065e-26
-5.3007e-25
-1.02662e-24
-8.8589e-24
-2.42295e-23
-9.70224e-23
-3.26245e-22
-7.57323e-22
-2.79285e-21
-4.41412e-21
-1.62292e-20
-1.96523e-20
-6.61828e-20
-6.71672e-20
-1.8895e-19
-1.73434e-19
-3.49476e-19
-3.18669e-19
-2.45821e-19
-3.15247e-19
5.88073e-19
2.33966e-19
2.89394e-18
2.00916e-18
7.74486e-18
7.11174e-18
1.66983e-17
1.95054e-17
3.54016e-17
5.15517e-17
8.61731e-17
1.30675e-16
2.73273e-16
5.22016e-16
2.3359e-15
-1.15645e-16
5.10392e-15
-3.54279e-17
2.16123e-15
-1.11181e-17
1.33254e-16
9.14166e-18
7.88919e-17
1.53666e-17
5.47916e-17
1.61908e-17
4.79945e-17
1.50883e-17
4.62209e-17
1.21081e-17
4.56587e-17
1.48716e-17
5.10234e-17
4.44092e-18
6.23794e-17
-7.94665e-19
6.45759e-17
-8.29907e-19
5.69678e-17
2.89561e-19
5.54447e-17
-3.56971e-18
5.45959e-17
-1.06656e-17
5.8265e-17
-1.82094e-17
7.72088e-17
-3.62603e-17
8.40599e-17
-8.29962e-17
1.26648e-16
-1.05671e-16
1.80004e-16
-7.5697e-17
1.67461e-16
-4.85996e-17
1.24776e-16
-3.9883e-17
9.40434e-17
-3.1341e-17
7.27148e-17
-2.03087e-17
5.29776e-17
-1.04744e-17
3.41833e-17
-4.08489e-18
1.79656e-17
-1.20541e-18
7.12919e-18
-8.00886e-19
2.11378e-18
-2.75157e-18
1.38536e-18
4.61092e-18
-8.96253e-18
-4.09065e-30
-2.30376e-31
-1.0523e-27
-3.85197e-28
-6.60038e-26
-4.90253e-26
-1.83076e-24
-2.23584e-24
-2.91283e-23
-4.91707e-23
-3.05849e-22
-6.18034e-22
-2.29758e-21
-4.94031e-21
-1.29647e-20
-2.6782e-20
-5.66672e-20
-1.01555e-19
-1.95781e-19
-2.6741e-19
-5.42743e-19
-4.44886e-19
-1.22809e-18
-2.16717e-19
-2.33309e-18
1.01022e-18
-3.88075e-18
4.19992e-18
-6.00324e-18
1.05059e-17
-9.09016e-18
2.25295e-17
-1.03287e-17
5.07257e-17
1.32724e-17
1.41814e-16
5.09365e-16
4.39442e-16
3.38966e-16
5.33655e-15
9.06253e-16
7.12625e-15
3.34693e-16
5.38258e-15
1.77276e-16
2.15521e-16
1.00488e-16
1.01602e-16
6.84838e-17
7.17538e-17
5.03761e-17
5.92641e-17
3.93794e-17
5.36743e-17
3.24081e-17
5.17579e-17
3.10849e-17
5.86118e-17
4.80366e-17
6.25539e-17
3.71006e-17
1.09866e-16
2.47808e-17
7.92241e-17
1.96021e-17
7.21386e-17
1.15538e-17
7.50232e-17
3.48557e-18
8.31143e-17
-3.85846e-18
1.01473e-16
-1.07013e-17
1.41569e-16
-9.95135e-17
2.25514e-16
-2.51348e-16
2.17234e-15
-9.31237e-17
2.98323e-15
-8.7146e-17
1.48102e-15
-5.91444e-17
2.50288e-16
-3.89597e-17
1.25416e-16
-2.56048e-17
7.81714e-17
-1.48838e-17
5.30152e-17
-6.92244e-18
3.19041e-17
-2.42861e-18
1.51999e-17
-9.42951e-19
5.3594e-18
-2.14981e-18
2.04129e-18
4.46418e-18
-7.66972e-18
-1.18334e-29
-4.24709e-31
-2.74319e-27
-7.46617e-28
-1.57802e-25
-9.0407e-26
-4.0657e-24
-3.91841e-24
-6.05492e-23
-8.16478e-23
-5.97631e-22
-9.7067e-22
-4.23387e-21
-7.32713e-21
-2.26127e-20
-3.73998e-20
-9.4072e-20
-1.3269e-19
-3.12216e-19
-3.21835e-19
-8.44472e-19
-4.6585e-19
-1.91063e-18
-3.30997e-20
-3.77123e-18
1.71896e-18
-7.0073e-18
5.98647e-18
-1.37233e-17
1.41933e-17
-3.13168e-17
3.06886e-17
-8.11786e-17
7.21719e-17
-1.74917e-16
1.72237e-16
-1.62188e-16
3.43087e-16
1.57704e-15
3.36681e-15
1.62644e-16
7.30183e-15
1.25148e-15
2.81195e-15
4.66639e-16
3.59049e-16
1.72942e-16
1.31338e-16
1.14244e-16
9.21981e-17
8.29579e-17
7.48542e-17
6.25223e-17
6.34399e-17
5.15033e-17
5.90453e-17
4.76002e-17
6.01632e-17
5.47273e-17
7.99153e-17
4.56915e-17
1.61149e-16
5.37878e-17
9.61509e-17
4.37942e-17
9.86547e-17
2.80944e-17
9.67444e-17
1.50577e-17
9.65994e-17
7.48632e-18
1.05054e-16
7.52941e-18
1.23754e-16
1.61752e-16
7.48652e-16
-1.47138e-16
3.8775e-15
-1.08033e-15
3.73494e-15
-7.24322e-16
3.84518e-15
-9.85759e-17
6.04351e-16
-4.71834e-17
2.63964e-16
-2.84443e-17
1.36864e-16
-1.7748e-17
8.32217e-17
-9.72065e-18
5.25458e-17
-4.20486e-18
2.90113e-17
-1.50471e-18
1.24359e-17
-1.61176e-18
4.29078e-18
4.31624e-18
-5.8877e-18
-2.22368e-29
-5.79288e-31
-4.73989e-27
-1.14271e-27
-2.5118e-25
-1.3515e-25
-5.96922e-24
-5.68183e-24
-8.21647e-23
-1.14102e-22
-7.51652e-22
-1.302e-21
-4.95028e-21
-9.40855e-21
-2.46462e-20
-4.58383e-20
-9.57788e-20
-1.54388e-19
-2.97396e-19
-3.50896e-19
-7.52967e-19
-4.51914e-19
-1.59191e-18
1.15716e-19
-2.92394e-18
2.21227e-18
-4.98727e-18
6.95604e-18
-8.3105e-18
1.61926e-17
-1.21452e-17
3.55539e-17
-5.85703e-18
8.09041e-17
-9.54493e-18
2.18185e-16
4.05406e-16
1.00818e-15
1.33302e-15
6.39004e-15
1.0931e-15
8.61106e-15
1.28918e-15
2.55607e-15
4.09435e-16
9.4538e-16
3.97938e-16
2.83752e-16
1.19135e-16
9.11232e-17
9.12908e-17
7.69634e-17
7.34572e-17
6.82285e-17
6.34578e-17
6.47202e-17
6.12092e-17
6.3937e-17