/*--------------------------------*- C++ -*----------------------------------*\
| =========                 |                                                 |
| \\      /  F ield         | OpenFOAM: The Open Source CFD Toolbox           |
|  \\    /   O peration     | Version:  2.4.0                                 |
|   \\  /    A nd           | Web:      www.OpenFOAM.org                      |
|    \\/     M anipulation  |                                                 |
\*---------------------------------------------------------------------------*/
FoamFile
{
    version     2.0;
    format      ascii;
    class       volScalarField;
    location    "0.021";
    object      p_rgh;
}
// * * * * * * * * * * * * * * * * * * * * * * * * * * * * * * * * * * * * * //

dimensions      [1 -1 -2 0 0 0 0];

internalField   nonuniform List<scalar> 
3600
(
96.446
96.4426
96.4489
96.4626
96.4852
96.5183
96.5654
96.6214
96.7248
96.7777
96.9885
96.9856
97.344
97.229
97.6759
97.4439
97.8392
97.6183
97.8213
97.7309
97.7541
97.7411
97.7351
97.7226
97.7185
97.7082
97.7071
97.701
97.7011
97.6983
96.4332
96.4352
96.4419
96.4548
96.477
96.5096
96.5579
96.6113
96.7194
96.7682
96.987
96.9786
97.3464
97.2267
97.6805
97.4443
97.8411
97.6192
97.8218
97.7314
97.7543
97.7412
97.7352
97.7226
97.7185
97.7082
97.7071
97.701
97.7011
97.6983
96.4072
96.4097
96.4177
96.4315
96.4544
96.4874
96.5395
96.5892
96.7071
96.7485
96.9835
96.9653
97.3513
97.2226
97.6892
97.4452
97.8458
97.6206
97.8231
97.7319
97.7546
97.7413
97.7352
97.7225
97.7185
97.7082
97.7071
97.701
97.701
97.6983
96.3736
96.375
96.383
96.3973
96.4212
96.4535
96.5119
96.5552
96.6884
96.7184
96.978
96.9448
97.359
97.2164
97.7026
97.447
97.853
97.6228
97.8252
97.7325
97.7551
97.7414
97.7352
97.7225
97.7184
97.7082
97.7071
97.701
97.701
97.6983
96.3269
96.3283
96.3364
96.3512
96.3767
96.4066
96.4748
96.5086
96.6632
96.6772
96.9709
96.9174
97.3697
97.2084
97.721
97.4497
97.8628
97.6257
97.828
97.7333
97.7559
97.7417
97.7352
97.7225
97.7183
97.7082
97.707
97.7011
97.701
97.6983
96.2669
96.2685
96.2771
96.2919
96.3207
96.3459
96.4277
96.448
96.6311
96.6239
96.962
96.8825
97.3837
97.1986
97.7448
97.4537
97.875
97.6295
97.8314
97.7343
97.7567
97.742
97.7352
97.7225
97.7181
97.7082
97.7068
97.7011
97.7009
97.6983
96.1937
96.1955
96.2046
96.2182
96.2532
96.2698
96.3704
96.3721
96.5918
96.5573
96.9512
96.8397
97.4012
97.187
97.7746
97.4591
97.8897
97.6341
97.8354
97.7354
97.7578
97.7423
97.7352
97.7226
97.7179
97.7082
97.7067
97.7011
97.7008
97.6983
96.1069
96.1088
96.1188
96.1291
96.1738
96.1773
96.3018
96.2794
96.5444
96.476
96.9385
96.7887
97.4227
97.1734
97.8116
97.4665
97.9067
97.6396
97.8399
97.7368
97.7589
97.7427
97.7351
97.7226
97.7177
97.7083
97.7065
97.7011
97.7007
97.6983
96.005
96.0075
96.0198
96.0243
96.0814
96.0673
96.2215
96.1679
96.4881
96.3783
96.9235
96.729
97.4486
97.1653
97.8508
97.4764
97.9259
97.6462
97.8448
97.7384
97.76
97.7431
97.735
97.7227
97.7174
97.7083
97.7063
97.7012
97.7006
97.6983
95.8885
95.8897
95.9072
95.9027
95.975
95.9379
96.1275
96.0353
96.4213
96.2623
96.9059
96.6603
97.4794
97.1601
97.8958
97.4893
97.9471
97.6538
97.85
97.7403
97.7611
97.7436
97.7348
97.7227
97.7171
97.7084
97.7061
97.7012
97.7005
97.6984
95.7605
95.7597
95.7806
95.7651
95.8539
95.7888
96.0181
95.8797
96.3417
96.1257
96.8848
96.5819
97.5156
97.1586
97.9476
97.5059
97.9702
97.6625
97.8552
97.7425
97.7622
97.7441
97.7346
97.7228
97.7167
97.7084
97.7058
97.7013
97.7004
97.6984
95.6093
95.6042
95.6355
95.5994
95.7161
95.6151
95.8912
95.6966
96.2464
95.9656
96.8591
96.4934
97.558
97.1625
98.0071
97.5269
97.9948
97.6723
97.8604
97.7449
97.7632
97.7446
97.7343
97.7228
97.7163
97.7084
97.7055
97.7013
97.7003
97.6984
95.4615
95.4586
95.4748
95.457
95.5575
95.4427
95.741
95.4868
96.13
95.7797
96.8273
96.3943
97.6075
97.174
98.0752
97.5531
98.0209
97.6832
97.8653
97.7476
97.764
97.7451
97.734
97.7229
97.7158
97.7085
97.7052
97.7013
97.7001
97.6984
95.3238
95.2964
95.3533
95.2075
95.42
95.1525
95.5766
95.2343
95.9896
95.5623
96.7873
96.2842
97.6652
97.1956
98.1534
97.5852
98.0479
97.6951
97.8699
97.7505
97.7647
97.7455
97.7336
97.7229
97.7154
97.7085
97.7049
97.7014
97.7
97.6985
94.7652
94.7955
94.9005
95.0733
95.1094
95.0803
95.3337
94.9808
95.8079
95.3141
96.736
96.1627
97.7329
97.231
98.2429
97.6241
98.0754
97.7081
97.874
97.7537
97.7653
97.7459
97.7332
97.7229
97.7149
97.7085
97.7046
97.7014
97.6998
97.6985
95.3433
95.2905
95.2022
94.7816
95.1554
94.4346
95.1593
94.5534
95.594
95.0117
96.6706
96.0289
97.813
97.2831
98.3454
97.6705
98.1028
97.7218
97.8772
97.7569
97.7657
97.7462
97.7327
97.7229
97.7143
97.7085
97.7043
97.7014
97.6997
97.6985
93.7585
93.7466
94.2134
94.7712
94.5014
94.8874
94.727
94.3895
95.2904
94.7218
96.5852
95.8837
97.9104
97.3579
98.4631
97.7252
98.1294
97.7359
97.8795
97.7602
97.7659
97.7465
97.7322
97.7229
97.7138
97.7085
97.7039
97.7014
97.6995
97.6986
95.064
95.3331
94.7182
94.1687
94.793
93.2757
94.5178
93.4568
94.9426
94.2059
96.4784
95.7216
98.0067
97.472
98.5981
97.7886
98.1537
97.7501
97.8806
97.7635
97.7659
97.7466
97.7316
97.7228
97.7132
97.7084
97.7036
97.7014
97.6993
97.6986
91.4323
91.7233
93.904
95.0642
94.0964
95.0852
93.6576
93.6567
94.3447
93.961
96.3409
95.5532
98.1212
97.6391
98.7553
97.8624
98.1752
97.7638
97.8803
97.7667
97.7656
97.7467
97.7309
97.7226
97.7126
97.7083
97.7032
97.7014
97.6992
97.6986
91.5972
97.2801
93.6377
93.368
94.0704
91.9659
93.6887
91.9234
94.0921
93.1028
96.1779
95.338
98.2434
97.8464
98.9252
97.9351
98.1914
97.7764
97.8785
97.7697
97.7651
97.7467
97.7302
97.7224
97.712
97.7083
97.7028
97.7015
97.699
97.6986
78.8668
82.7399
95.6666
96.0051
95.0383
94.7178
91.2545
92.2875
92.3597
92.8689
95.9726
95.1819
98.4045
98.1544
99.1692
98.0584
98.2026
97.7871
97.8749
97.7724
97.7644
97.7465
97.7295
97.7222
97.7114
97.7081
97.7024
97.7014
97.6988
97.6987
93.2985
88.8909
90.9115
94.688
92.5018
91.5327
92.6403
89.9636
92.8032
91.6048
95.7424
94.8663
98.5604
98.5165
99.3383
98.0583
98.2012
97.7941
97.8695
97.7747
97.7634
97.7462
97.7288
97.7219
97.7108
97.708
97.702
97.7014
97.6986
97.6987
89.7512
83.7999
101.663
92.2586
95.1628
91.508
86.787
88.9856
88.2138
91.335
95.4998
94.7
98.7886
99.0446
99.7627
98.2689
98.197
97.7987
97.8624
97.7765
97.7624
97.7459
97.728
97.7215
97.7101
97.7079
97.7016
97.7014
97.6984
97.6987
79.0669
80.3679
92.4132
99.0124
91.1487
93.4029
90.264
87.1784
90.5535
89.5416
95.268
94.2548
98.9905
99.6434
99.9189
98.1762
98.1431
97.7947
97.8531
97.7772
97.7612
97.7452
97.7271
97.7211
97.7094
97.7077
97.7012
97.7014
97.6982
97.6987
67.3237
82.408
97.2842
87.8796
87.8374
81.9081
78.7666
80.8627
83.7345
88.9328
95.1769
93.9831
99.2887
100.464
100.644
98.4995
98.1551
97.7884
97.8436
97.7777
97.7607
97.7448
97.7265
97.7207
97.7088
97.7075
97.7008
97.7014
97.6981
97.6988
50.8395
116.365
87.5817
111.385
85.9066
93.0945
79.9242
79.6009
83.2373
86.4871
95.0641
93.3034
99.5317
101.422
100.813
98.1577
97.9449
97.764
97.8289
97.7769
97.7586
97.7435
97.725
97.7198
97.7079
97.7071
97.7003
97.7013
97.6978
97.6988
100.349
102.62
110.801
104.025
90.8056
65.7233
53.9252
49.9222
75.8907
84.9159
95.5902
92.9718
99.8509
102.698
101.836
98.6298
98.0239
97.7449
97.821
97.777
97.7599
97.7434
97.7253
97.7198
97.7077
97.7072
97.7001
97.7013
97.6977
97.6988
59.1224
117.51
117.976
125.232
76.1655
42.2087
7.29047
4.12246
29.7428
76.6678
96.4515
91.3738
99.9989
104.359
102.381
97.939
97.5649
97.6844
97.8024
97.7763
97.7562
97.7412
97.7226
97.7183
97.7061
97.7064
97.6993
97.7011
97.6973
97.6988
108.405
142.98
129.741
134.316
64.9474
1.62132
1.4063
-0.968706
0.928072
14.27
86.8222
88.9048
99.9555
106.415
103.357
98.3392
97.6314
97.6734
97.7939
97.7758
97.7582
97.7409
97.7237
97.7185
97.7065
97.7067
97.6994
97.7012
97.6973
97.6989
161.944
163.06
162.344
182.303
13.1476
-2.52464
1.2645
-1.02342
0.407256
-0.69815
16.2146
37.5791
89.6414
108.86
104.831
97.3946
96.8966
97.5645
97.7869
97.7805
97.7559
97.739
97.7208
97.7167
97.7046
97.7058
97.6984
97.7009
97.6969
97.6988
97.6996
97.6981
97.6989
97.698
97.6984
97.698
97.6981
97.6979
97.6979
97.6979
97.6978
97.6978
97.6978
97.6978
97.6978
97.6978
97.6977
97.6977
97.6977
97.6977
97.6977
97.6977
97.6977
97.6977
97.6977
97.6977
97.6977
97.6977
97.6977
97.6977
97.6996
97.6981
97.6989
97.698
97.6984
97.698
97.6981
97.6979
97.6979
97.6979
97.6978
97.6978
97.6978
97.6978
97.6978
97.6978
97.6977
97.6977
97.6977
97.6977
97.6977
97.6977
97.6977
97.6977
97.6977
97.6977
97.6977
97.6977
97.6977
97.6977
97.6997
97.6981
97.6989
97.698
97.6984
97.698
97.6981
97.6979
97.6979
97.6979
97.6978
97.6978
97.6978
97.6978
97.6978
97.6978
97.6977
97.6977
97.6977
97.6977
97.6977
97.6977
97.6977
97.6977
97.6977
97.6977
97.6977
97.6977
97.6977
97.6977
97.6996
97.698
97.6989
97.698
97.6983
97.698
97.6981
97.6979
97.6979
97.6978
97.6978
97.6978
97.6978
97.6978
97.6978
97.6978
97.6977
97.6977
97.6977
97.6977
97.6977
97.6977
97.6977
97.6977
97.6977
97.6977
97.6977
97.6977
97.6977
97.6977
97.6996
97.6981
97.6988
97.698
97.6983
97.698
97.6981
97.6979
97.6979
97.6978
97.6978
97.6978
97.6978
97.6978
97.6978
97.6978
97.6977
97.6977
97.6977
97.6977
97.6977
97.6977
97.6977
97.6977
97.6977
97.6977
97.6977
97.6977
97.6977
97.6977
97.6996
97.6981
97.6988
97.698
97.6983
97.698
97.6981
97.6979
97.6979
97.6978
97.6978
97.6978
97.6978
97.6978
97.6978
97.6978
97.6977
97.6977
97.6977
97.6977
97.6977
97.6977
97.6977
97.6977
97.6977
97.6977
97.6977
97.6977
97.6977
97.6977
97.6996
97.6981
97.6988
97.698
97.6983
97.698
97.6981
97.6979
97.6979
97.6978
97.6978
97.6978
97.6978
97.6978
97.6978
97.6978
97.6977
97.6977
97.6977
97.6977
97.6977
97.6977
97.6977
97.6977
97.6977
97.6977
97.6977
97.6977
97.6977
97.6977
97.6995
97.6981
97.6988
97.698
97.6983
97.698
97.6981
97.6979
97.6979
97.6978
97.6978
97.6978
97.6978
97.6978
97.6978
97.6978
97.6977
97.6977
97.6977
97.6977
97.6977
97.6977
97.6977
97.6977
97.6977
97.6977
97.6977
97.6977
97.6977
97.6977
97.6995
97.6981
97.6987
97.698
97.6983
97.698
97.698
97.6979
97.6979
97.6978
97.6978
97.6978
97.6978
97.6978
97.6978
97.6978
97.6977
97.6977
97.6977
97.6977
97.6977
97.6977
97.6977
97.6977
97.6977
97.6977
97.6977
97.6978
97.6977
97.6977
97.6995
97.6981
97.6987
97.698
97.6983
97.698
97.698
97.6979
97.6979
97.6978
97.6978
97.6978
97.6978
97.6978
97.6977
97.6978
97.6977
97.6977
97.6977
97.6977
97.6977
97.6977
97.6977
97.6977
97.6977
97.6977
97.6977
97.6977
97.6977
97.6977
97.6994
97.6981
97.6987
97.698
97.6983
97.698
97.698
97.6979
97.6979
97.6978
97.6978
97.6978
97.6978
97.6978
97.6978
97.6978
97.6977
97.6977
97.6977
97.6977
97.6977
97.6977
97.6977
97.6977
97.6977
97.6978
97.6977
97.6978
97.6977
97.6977
97.6993
97.6981
97.6986
97.698
97.6982
97.698
97.698
97.6979
97.6979
97.6978
97.6978
97.6978
97.6978
97.6978
97.6977
97.6978
97.6977
97.6977
97.6977
97.6977
97.6977
97.6977
97.6977
97.6977
97.6977
97.6977
97.6977
97.6977
97.6977
97.6977
97.6993
97.6981
97.6986
97.698
97.6982
97.698
97.698
97.6979
97.6979
97.6978
97.6978
97.6978
97.6978
97.6978
97.6978
97.6978
97.6977
97.6977
97.6977
97.6977
97.6977
97.6977
97.6977
97.6977
97.6977
97.6978
97.6977
97.6978
97.6977
97.6978
97.6992
97.6981
97.6986
97.698
97.6982
97.698
97.698
97.6979
97.6979
97.6978
97.6978
97.6978
97.6978
97.6978
97.6977
97.6978
97.6977
97.6977
97.6977
97.6977
97.6977
97.6977
97.6977
97.6977
97.6977
97.6977
97.6977
97.6977
97.6977
97.6977
97.6991
97.6981
97.6985
97.698
97.6982
97.698
97.698
97.6979
97.6979
97.6978
97.6978
97.6978
97.6978
97.6978
97.6978
97.6978
97.6978
97.6977
97.6977
97.6977
97.6977
97.6977
97.6977
97.6978
97.6977
97.6978
97.6977
97.6978
97.6977
97.6978
97.6991
97.6981
97.6985
97.698
97.6982
97.698
97.698
97.6979
97.6979
97.6978
97.6978
97.6978
97.6978
97.6978
97.6977
97.6978
97.6977
97.6977
97.6977
97.6977
97.6977
97.6977
97.6977
97.6977
97.6977
97.6977
97.6977
97.6977
97.6977
97.6978
97.699
97.6981
97.6984
97.698
97.6981
97.698
97.698
97.6979
97.6979
97.6978
97.6978
97.6978
97.6978
97.6978
97.6978
97.6978
97.6978
97.6978
97.6978
97.6978
97.6977
97.6978
97.6978
97.6978
97.6978
97.6978
97.6977
97.6978
97.6977
97.6978
97.6989
97.6981
97.6984
97.698
97.6981
97.6979
97.698
97.6979
97.6979
97.6978
97.6978
97.6978
97.6978
97.6978
97.6977
97.6978
97.6977
97.6977
97.6977
97.6977
97.6977
97.6977
97.6977
97.6977
97.6977
97.6978
97.6977
97.6978
97.6977
97.6978
97.6988
97.6981
97.6984
97.698
97.6981
97.6979
97.698
97.6979
97.6979
97.6978
97.6978
97.6978
97.6978
97.6978
97.6978
97.6978
97.6978
97.6978
97.6978
97.6978
97.6978
97.6978
97.6978
97.6978
97.6978
97.6978
97.6977
97.6978
97.6977
97.6978
97.6987
97.6981
97.6983
97.698
97.6981
97.6979
97.6979
97.6979
97.6978
97.6978
97.6978
97.6978
97.6978
97.6978
97.6977
97.6977
97.6977
97.6977
97.6977
97.6977
97.6977
97.6977
97.6977
97.6978
97.6978
97.6978
97.6977
97.6978
97.6977
97.6978
97.6986
97.6981
97.6983
97.698
97.6981
97.6979
97.6979
97.6979
97.6978
97.6978
97.6978
97.6978
97.6978
97.6978
97.6978
97.6978
97.6978
97.6978
97.6978
97.6978
97.6978
97.6978
97.6978
97.6978
97.6978
97.6978
97.6978
97.6978
97.6977
97.6978
97.6985
97.6981
97.6982
97.698
97.698
97.6979
97.6979
97.6978
97.6978
97.6978
97.6978
97.6978
97.6978
97.6978
97.6977
97.6977
97.6977
97.6977
97.6977
97.6977
97.6977
97.6978
97.6978
97.6978
97.6978
97.6978
97.6977
97.6978
97.6977
97.6978
97.6985
97.6981
97.6982
97.698
97.698
97.6979
97.6979
97.6979
97.6978
97.6978
97.6978
97.6978
97.6978
97.6978
97.6978
97.6978
97.6978
97.6978
97.6978
97.6978
97.6978
97.6978
97.6978
97.6978
97.6978
97.6978
97.6978
97.6978
97.6977
97.6978
97.6984
97.6981
97.6981
97.698
97.698
97.6979
97.6979
97.6978
97.6978
97.6978
97.6978
97.6978
97.6978
97.6978
97.6977
97.6977
97.6977
97.6977
97.6977
97.6977
97.6978
97.6978
97.6978
97.6978
97.6978
97.6978
97.6978
97.6978
97.6977
97.6978
97.6983
97.6981
97.6981
97.698
97.698
97.6979
97.6979
97.6978
97.6978
97.6978
97.6978
97.6978
97.6978
97.6978
97.6978
97.6978
97.6978
97.6978
97.6978
97.6978
97.6978
97.6978
97.6978
97.6978
97.6978
97.6978
97.6978
97.6978
97.6977
97.6978
97.6982
97.6981
97.698
97.698
97.6979
97.6979
97.6979
97.6978
97.6978
97.6978
97.6978
97.6978
97.6978
97.6978
97.6977
97.6978
97.6978
97.6978
97.6978
97.6978
97.6978
97.6978
97.6978
97.6978
97.6978
97.6978
97.6978
97.6978
97.6977
97.6978
97.6981
97.6981
97.698
97.698
97.6979
97.6979
97.6979
97.6978
97.6978
97.6978
97.6978
97.6978
97.6978
97.6978
97.6978
97.6978
97.6978
97.6978
97.6978
97.6978
97.6978
97.6978
97.6978
97.6978
97.6978
97.6978
97.6978
97.6978
97.6977
97.6978
97.6979
97.6981
97.6979
97.6979
97.6979
97.6978
97.6978
97.6978
97.6978
97.6978
97.6978
97.6978
97.6978
97.6978
97.6978
97.6978
97.6978
97.6978
97.6978
97.6978
97.6978
97.6978
97.6978
97.6978
97.6978
97.6978
97.6978
97.6978
97.6977
97.6978
97.6979
97.6981
97.6979
97.698
97.6979
97.6979
97.6978
97.6978
97.6978
97.6978
97.6978
97.6978
97.6978
97.6978
97.6978
97.6978
97.6978
97.6978
97.6978
97.6978
97.6978
97.6978
97.6978
97.6978
97.6978
97.6978
97.6978
97.6978
97.6977
97.6978
97.6978
97.6981
97.6978
97.6979
97.6978
97.6978
97.6978
97.6978
97.6978
97.6978
97.6978
97.6978
97.6978
97.6978
97.6978
97.6978
97.6978
97.6978
97.6978
97.6978
97.6978
97.6978
97.6978
97.6978
97.6977
97.6977
97.6976
97.6978
97.6971
97.6979
89.4042
101.805
27.8911
28.9194
2.26301
-2.73503
1.67893
-1.03142
1.26429
-0.514533
0.59216
0.146599
19.7647
62.5274
45.8328
14.8215
5.36935
2.99066
2.24894
1.60967
1.13602
0.769358
0.509182
0.329451
0.199611
0.12231
0.0651115
0.0382633
0.0163733
0.0104665
8.49156
148.37
-0.113545
-3.66774
-1.2971
-1.23737
-0.298269
-1.06198
-0.0502983
-0.543951
0.152178
-0.207138
0.0864144
0.889159
0.0402688
-0.0309318
0.0203167
-0.0193749
0.00166425
-0.00879756
-0.00656321
-0.00258924
-0.00650377
9.79175e-05
-0.00497573
0.00101019
-0.00332264
0.00100155
-0.00190234
0.000447407
4.45039
49.6459
-0.21741
-0.981394
-0.837012
-0.591736
0.227102
-0.456142
0.310042
-0.258904
0.168452
-0.162227
-0.209471
-0.0929161
-0.099279
-0.0317702
-0.0238699
-0.0185888
-0.0075632
-0.00953706
-0.00636228
-0.00346238
-0.00574329
-0.000255098
-0.00467054
0.00100085
-0.00324317
0.00100077
-0.00188012
0.000448708
-1.79726
0.833875
0.0345247
0.904691
-0.179357
0.0791825
0.0582611
-0.23483
0.0430351
-0.097941
0.0769482
-0.0799425
0.109604
-0.052982
0.0447079
-0.0290623
0.0160966
-0.0188496
-0.000110762
-0.00833532
-0.00698453
-0.00254713
-0.00648275
9.22628e-05
-0.00491937
0.000998401
-0.0032831
0.000989115
-0.00188143
0.000442751
-0.0110291
0.738884
0.201693
0.862603
0.170594
0.316033
0.146869
0.0369516
-0.0206355
-0.0320381
0.0526261
-0.0472567
-0.0981533
-0.044388
-0.0665979
-0.0299969
-0.0203603
-0.0184412
-0.00694737
-0.00907951
-0.00646656
-0.0033798
-0.00576138
-0.000248634
-0.00464788
0.000981124
-0.00321343
0.000983511
-0.00185843
0.000440513
0.0404291
0.426775
0.372142
0.61093
0.33801
0.407747
0.23708
0.211812
0.116705
0.0768208
0.0399796
0.0154363
0.0478254
-0.0209647
0.0263685
-0.0247116
0.00868118
-0.0172288
-0.0037894
-0.00764601
-0.00729588
-0.00236538
-0.00639134
8.94472e-05
-0.0047995
0.000972701
-0.00320596
0.000967514
-0.00184034
0.000433625
-0.229692
0.0980704
0.404118
0.43471
0.299039
0.324829
0.199799
0.162151
0.0674366
0.0449228
0.0156447
-0.00406126
-0.0484619
-0.0238972
-0.0384088
-0.024623
-0.0154483
-0.0169983
-0.00604398
-0.00840513
-0.00653464
-0.00321515
-0.00575917
-0.000209524
-0.00458601
0.000955586
-0.00314573
0.000954473
-0.00181295
0.000427292
-0.0519266
0.0639014
0.329209
0.364797
0.265087
0.297674
0.18242
0.201102
0.085956
0.0849549
0.0106771
0.0224695
0.0106864
-0.0151923
0.00680118
-0.0220505
-0.000929654
-0.0149491
-0.00682293
-0.00664614
-0.00746317
-0.00215647
-0.00620609
7.27574e-05
-0.0046213
0.000938897
-0.00309642
0.000935719
-0.00178093
0.00041923
-0.0804849
0.0108312
0.285103
0.310313
0.189581
0.218354
0.0954548
0.123281
0.0134196
0.0393715
-0.0127712
0.00407601
-0.0334044
-0.016841
-0.0225113
-0.0209956
-0.0107507
-0.0151472
-0.00705626
-0.00755789
-0.00666065
-0.00295475
-0.00571229
-0.000143875
-0.0044654
0.000918037
-0.00303177
0.000915291
-0.00174363
0.000409995
-0.192467
-0.117199
0.165803
0.188111
0.0769948
0.127828
0.00971575
0.0808793
-0.0210151
0.0361342
-0.0338058
0.00168576
-0.0197025
-0.0174629
-0.010152
-0.0186374
-0.00951891
-0.0124148
-0.00848013
-0.00589213
-0.00742744
-0.00198154
-0.00593728
4.22726e-05
-0.00440288
0.000896122
-0.00295917
0.000892189
-0.00170117
0.000399586
-0.234611
-0.207802
-0.00737942
0.0586717
-0.0488665
0.0116927
-0.0933235
-0.00847036
-0.0828289
-0.0177896
-0.0568616
-0.0172606
-0.0361996
-0.0213646
-0.0185975
-0.0193282
-0.0106149
-0.0131045
-0.00806838
-0.0067651
-0.00674397
-0.00262823
-0.0055789
-6.92084e-05
-0.00426991
0.000870598
-0.00287749
0.000866535
-0.00165366
0.000388031
-0.350463
-0.34571
-0.191226
-0.0917649
-0.220594
-0.125972
-0.213429
-0.0845375
-0.135158
-0.048573
-0.0774574
-0.0274178
-0.0417835
-0.0217727
-0.0208896
-0.0170845
-0.0125171
-0.0106595
-0.00907815
-0.00523069
-0.00718887
-0.00185379
-0.00560188
1.16079e-05
-0.00414952
0.000843136
-0.00278725
0.000838397
-0.00160124
0.000375364
-0.479024
-0.465207
-0.498228
-0.414075
-0.537628
-0.39035
-0.382274
-0.207275
-0.198738
-0.0947544
-0.0981822
-0.0412235
-0.0464834
-0.025724
-0.022108
-0.0180172
-0.0123746
-0.0113283
-0.0085569
-0.00601829
-0.00666075
-0.00226094
-0.0053302
-1.16646e-05
-0.00400467
0.000812912
-0.0026885
0.000807844
-0.00154404
0.00036162
-0.86272
-0.834819
-0.99034
-0.734671
-0.897748
-0.577888
-0.588033
-0.268636
-0.240471
-0.11261
-0.104321
-0.0476802
-0.0483146
-0.0251833
-0.0234321
-0.0158266
-0.0132574
-0.00942701
-0.00902992
-0.00472584
-0.00678404
-0.00175536
-0.00520844
4.32682e-06
-0.00385126
0.000780347
-0.00258165
0.000774967
-0.00148225
0.000346842
-0.987149
-0.986356
-1.15433
-0.791042
-0.968113
-0.632927
-0.486391
-0.279609
-0.206295
-0.116073
-0.0932206
-0.0508736
-0.0445737
-0.0263138
-0.0224062
-0.0158943
-0.0126807
-0.0098019
-0.00841586
-0.00518195
-0.00635307
-0.00188818
-0.00496199
9.07008e-06
-0.00368331
0.000745424
-0.00246693
0.000739857
-0.00141603
0.000331075
-0.468093
-0.50905
-0.470742
-0.408271
-0.441409
-0.36178
-0.278591
-0.187959
-0.13756
-0.0910823
-0.071743
-0.0446696
-0.0385381
-0.0235686
-0.0211769
-0.0136017
-0.0127166
-0.00823338
-0.00844173
-0.00426852
-0.00623222
-0.00163996
-0.00475373
1.47321e-05
-0.0035042
0.00070825
-0.00234473
0.00070261
-0.00134559
0.000314362
0.0281655
-0.0252255
0.151753
0.0758488
0.0294035
-0.0483626
-0.0684113
-0.0741617
-0.0706204
-0.0576426
-0.0491117
-0.0355479
-0.030827
-0.0209157
-0.0185998
-0.0128119
-0.0115945
-0.00807733
-0.00779217
-0.00430104
-0.00582931
-0.00156087
-0.00449208
1.85729e-05
-0.00331317
0.000668936
-0.0022154
0.000663342
-0.00127114
0.000296756
0.223351
0.193125
0.311554
0.25015
0.216793
0.104941
0.03805
-0.00208698
-0.0221819
-0.0281027
-0.0296436
-0.0247982
-0.0233398
-0.0168249
-0.0161165
-0.010799
-0.0108613
-0.00686643
-0.00747486
-0.00375816
-0.00555155
-0.00143637
-0.00423118
2.14465e-05
-0.00311162
0.000627603
-0.00207934
0.000622163
-0.00119289
0.000278307
0.239936
0.232184
0.268628
0.249932
0.216151
0.138226
0.0768113
0.0338809
0.00740181
-0.00677987
-0.0142564
-0.0152319
-0.0163522
-0.0129733
-0.0131922
-0.00925701
-0.00959489
-0.00620466
-0.00680925
-0.0034606
-0.00513684
-0.00131609
-0.00394323
2.33669e-05
-0.0028998
0.000584381
-0.00193695
0.000579192
-0.00111108
0.000259066
0.178347
0.178605
0.180602
0.181736
0.153384
0.113018
0.0720706
0.0409507
0.0190739
0.00500886
-0.00379338
-0.00762382
-0.0105092
-0.00932288
-0.0105835
-0.00754327
-0.00855003
-0.00531094
-0.00631408
-0.00309982
-0.00476574
-0.00119551
-0.00364525
2.43785e-05
-0.00267875
0.000539417
-0.00178871
0.000534559
-0.00102595
0.000239092
0.0758078
0.0783891
0.0662091
0.0769139
0.0755394
0.0694705
0.0550535
0.0387784
0.0246147
0.0125465
0.0038749
-0.00172053
-0.00552584
-0.00613017
-0.00797954
-0.00598935
-0.00727005
-0.00451816
-0.00564739
-0.00274315
-0.00433104
-0.00107504
-0.00333259
2.45885e-05
-0.00244916
0.000492855
-0.00163506
0.000488392
-0.000937762
0.00021844
0.0352421
0.0358291
0.0230933
0.0288351
0.0437167
0.0499598
0.0469604
0.0373136
0.0269366
0.0165109
0.00850607
0.00243632
-0.00180917
-0.00351353
-0.00583542
-0.00460554
-0.00618161
-0.00378242
-0.00506295
-0.00238894
-0.00390446
-0.000955367
-0.00300906
2.40466e-05
-0.00221188
0.000444841
-0.00147646
0.000440823
-0.000846765
0.000197166
0.0849683
0.0806373
0.0780105
0.0645659
0.0660795
0.059581
0.0516098
0.0402818
0.0304964
0.0198022
0.0126154
0.00553982
0.00136968
-0.00143395
-0.00383611
-0.00341177
-0.00504785
-0.00311145
-0.00440556
-0.00205123
-0.00345642
-0.000836938
-0.0026757
2.28243e-05
-0.00196775
0.000395535
-0.00131342
0.000391994
-0.000753245
0.000175334
0.112686
0.107351
0.111804
0.0948029
0.083889
0.0689639
0.0563372
0.0430437
0.0325917
0.0216776
0.0145126
0.0073175
0.0030704
4.86847e-06
-0.00246083
-0.00243386
-0.00408113
-0.0025136
-0.00378223
-0.00173058
-0.00300281
-0.000720152
-0.00233416
2.09887e-05
-0.0017176
0.000345086
-0.00114644
0.000342044
-0.000657472
0.000153003
0.150488
0.15003
0.149559
0.13014
0.107046
0.0819181
0.0628281
0.0454803
0.0340829
0.0222157
0.0158404
0.00818035
0.00477616
0.000999768
-0.00106577
-0.00165265
-0.00317729
-0.00198461
-0.00315887
-0.00142739
-0.00254399
-0.000605217
-0.00198585
1.86133e-05
-0.00146224
0.000293645
-0.000975995
0.000291111
-0.000559723
0.000130232
0.152788
0.151031
0.151348
0.127911
0.101927
0.0760199
0.0573727
0.0418611
0.0311081
0.0209011
0.0147739
0.00813588
0.00471361
0.00146681
-0.000593403
-0.00108242
-0.00242226
-0.00152265
-0.00255215
-0.00114141
-0.00208264
-0.000492217
-0.00163218
1.57795e-05
-0.00120254
0.000241372
-0.00080264
0.000239346
-0.000460302
0.000107089
0.113818
0.113812
0.11399
0.103264
0.0821703
0.0640621
0.0481597
0.0356155
0.0267547
0.0178006
0.0132248
0.0070473
0.00489639
0.00156164
0.000323769
-0.000661626
-0.00172615
-0.00111694
-0.00196179
-0.000870823
-0.0016205
-0.000381007
-0.00127432
1.25642e-05
-0.000939278
0.000188418
-0.00062688
0.000186893
-0.000359498
8.36339e-05
0.0844337
0.0903386
0.076478
0.0726985
0.0501204
0.0441302
0.0338042
0.0259451
0.0194679
0.0135792
0.00978608
0.00576008
0.00352208
0.00139406
-1.52353e-05
-0.000378098
-0.00121582
-0.000764745
-0.00139027
-0.000612832
-0.00115869
-0.000271288
-0.000913352
9.04954e-06
-0.000673254
0.000134929
-0.000449226
0.000133895
-0.000257596
5.99314e-05
0.0245451
0.0235428
0.019451
0.0189083
0.0193925
0.0191151
0.0161481
0.0139159
0.0109597
0.00778943
0.00620016
0.00325853
0.00260936
0.000819671
0.000554731
-0.000195393
-0.000613972
-0.000446723
-0.000829873
-0.0003647
-0.000697755
-0.000162792
-0.00055031
5.32364e-06
-0.000405306
8.10612e-05
-0.000270249
8.05023e-05
-0.000154925
3.6044e-05
0.00490399
0.00175284
0.00521909
0.00525624
0.00960513
0.00907256
0.00822843
0.00645259
0.00500918
0.00352499
0.00229634
0.00158713
0.000709542
0.000474501
-0.000173926
-4.23044e-05
-0.000290054
-0.000146098
-0.00028408
-0.000121295
-0.000237053
-5.46853e-05
-0.000185995
1.50645e-06
-0.000136185
2.69592e-05
-9.04776e-05
2.68561e-05
-5.1788e-05
1.20307e-05
0.00488945
0.00460403
0.00283068
0.00272022
0.00170624
0.00159201
0.0010567
0.00092003
0.000678425
0.000545923
0.000445669
0.000333043
0.000282341
0.000203311
0.000169775
0.00012378
0.000103016
7.50924e-05
5.75033e-05
4.65841e-05
2.9177e-05
3.10393e-05
2.75054e-05
2.41107e-05
1.93141e-05
2.42584e-05
-1.00876e-05
6.13907e-05
-3.09587e-05
0.000456697
-0.000327068
9.71493e-06
-0.000178024
-4.43776e-05
-7.82204e-05
-6.83379e-05
-5.52629e-05
-6.13149e-05
-5.12702e-05
-5.63904e-05
-5.24392e-05
-5.35295e-05
-5.26877e-05
-5.15835e-05
-4.99107e-05
-4.76809e-05
-4.49604e-05
-4.18439e-05
-3.84355e-05
-3.48857e-05
-3.12533e-05
-2.76888e-05
-2.41744e-05
-2.08078e-05
-1.73902e-05
-1.35014e-05
-1.03206e-05
-4.94236e-06
-1.62388e-06
6.5902e-06
-0.000320313
1.28562e-05
-0.000176841
-3.97263e-05
-7.73702e-05
-6.65101e-05
-5.43913e-05
-6.01433e-05
-5.05343e-05
-5.55762e-05
-5.17884e-05
-5.29383e-05
-5.21243e-05
-5.10774e-05
-4.94443e-05
-4.7259e-05
-4.45833e-05
-4.14837e-05
-3.81177e-05
-3.45943e-05
-3.0993e-05
-2.7476e-05
-2.40195e-05
-2.07891e-05
-1.80583e-05
-1.51147e-05
-1.53093e-05
-1.21266e-05
-2.0528e-05
-1.57768e-05
-0.000324044
1.03706e-05
-0.000177092
-4.36213e-05
-7.70572e-05
-6.80553e-05
-5.46621e-05
-6.08447e-05
-5.07479e-05
-5.58787e-05
-5.1891e-05
-5.29696e-05
-5.21155e-05
-5.09972e-05
-4.93215e-05
-4.71049e-05
-4.44004e-05
-4.13122e-05
-3.79375e-05
-3.44274e-05
-3.08396e-05
-2.73211e-05
-2.3857e-05
-2.05899e-05
-1.72612e-05
-1.36384e-05
-1.06456e-05
-5.41861e-06
-3.27177e-06
4.576e-06
-0.000319378
1.16e-05
-0.000175206
-4.20888e-05
-7.56437e-05
-6.71571e-05
-5.37821e-05
-6.00874e-05
-5.00697e-05
-5.51783e-05
-5.12553e-05
-5.23097e-05
-5.14834e-05
-5.0368e-05
-4.87238e-05
-4.65274e-05
-4.38642e-05
-4.08058e-05
-3.74719e-05
-3.40089e-05
-3.04564e-05
-2.6995e-05
-2.35778e-05
-2.03863e-05
-1.73893e-05
-1.46346e-05
-1.36799e-05
-1.09835e-05
-1.29467e-05
-9.55399e-06
-0.000317439
1.03881e-05
-0.000173577
-4.30115e-05
-7.48219e-05
-6.68884e-05
-5.33096e-05
-5.97225e-05
-4.96205e-05
-5.47229e-05
-5.07423e-05
-5.17803e-05
-5.09201e-05
-4.98013e-05
-4.81475e-05
-4.59673e-05
-4.33173e-05
-4.02945e-05
-3.69954e-05
-3.35688e-05
-3.00649e-05
-2.66337e-05
-2.32501e-05
-2.00785e-05
-1.68916e-05
-1.37355e-05
-1.07895e-05
-6.31112e-06
-4.44631e-06
2.30513e-06
-0.000313169
1.00789e-05
-0.000171079
-4.3013e-05
-7.35278e-05
-6.61146e-05
-5.24868e-05
-5.89854e-05
-4.89038e-05
-5.39692e-05
-4.99983e-05
-5.10054e-05
-5.014e-05
-4.90188e-05
-4.73799e-05
-4.52225e-05
-4.26076e-05
-3.96291e-05
-3.63788e-05
-3.30074e-05
-2.95572e-05
-2.61822e-05
-2.28525e-05
-1.97353e-05
-1.66398e-05
-1.39804e-05
-1.17787e-05
-9.5292e-06
-8.20197e-06
-5.63789e-06
-0.000308056
9.50759e-06
-0.000168104
-4.29291e-05
-7.21159e-05
-6.51228e-05
-5.15483e-05
-5.80692e-05
-4.80573e-05
-5.3066e-05
-4.91131e-05
-5.00947e-05
-4.92201e-05
-4.81055e-05
-4.64831e-05
-4.43572e-05
-4.17837e-05
-3.88578e-05
-3.56665e-05
-3.23572e-05
-2.89724e-05
-2.56582e-05
-2.23876e-05
-1.93182e-05
-1.62112e-05
-1.3466e-05
-1.04732e-05
-7.28015e-06
-4.5212e-06
5.64553e-08
-0.00030194
8.9202e-06
-0.000164618
-4.26445e-05
-7.0532e-05
-6.39074e-05
-5.04675e-05
-5.69625e-05
-4.70698e-05
-5.20001e-05
-4.80834e-05
-4.90371e-05
-4.81575e-05
-4.70537e-05
-4.54537e-05
-4.33658e-05
-4.08418e-05
-3.7977e-05
-3.48541e-05
-3.16163e-05
-2.83062e-05
-2.50625e-05
-2.18618e-05
-1.88538e-05
-1.58072e-05
-1.32457e-05
-1.04014e-05
-8.23238e-06
-5.5315e-06
-3.27888e-06
-0.000294855
8.33322e-06
-0.000160636
-4.21509e-05
-6.87703e-05
-6.24759e-05
-4.92449e-05
-5.56682e-05
-4.59423e-05
-5.07728e-05
-4.69103e-05
-4.78339e-05
-4.6954e-05
-4.58653e-05
-4.42934e-05
-4.22503e-05
-3.97839e-05
-3.69884e-05
-3.3943e-05
-3.07861e-05
-2.75595e-05
-2.43956e-05
-2.12728e-05
-1.83301e-05
-1.53379e-05
-1.28204e-05
-9.79889e-06
-7.42641e-06
-4.25758e-06
-1.25506e-06
-0.000286839
7.75343e-06
-0.000156177
-4.1456e-05
-6.68308e-05
-6.08417e-05
-4.78849e-05
-5.41956e-05
-4.46801e-05
-4.93908e-05
-4.55998e-05
-4.64905e-05
-4.56151e-05
-4.45455e-05
-4.30075e-05
-4.10156e-05
-3.86144e-05
-3.58966e-05
-3.29375e-05
-2.98706e-05
-2.67367e-05
-2.3662e-05
-2.06267e-05
-1.77595e-05
-1.48482e-05
-1.2419e-05
-9.42457e-06
-7.38698e-06
-4.17724e-06
-2.14646e-06
-0.000277924
7.18993e-06
-0.000151253
-4.05627e-05
-6.47093e-05
-5.90096e-05
-4.63868e-05
-5.25481e-05
-4.32841e-05
-4.78559e-05
-4.41535e-05
-4.50086e-05
-4.41429e-05
-4.30965e-05
-4.1598e-05
-3.96638e-05
-3.73356e-05
-3.47033e-05
-3.18392e-05
-2.88712e-05
-2.58387e-05
-2.28621e-05
-1.99224e-05
-1.71387e-05
-1.43179e-05
-1.195e-05
-8.97867e-06
-7.00663e-06
-3.75071e-06
-1.66134e-06
-0.000268145
6.64539e-06
-0.000145879
-3.94816e-05
-6.24078e-05
-5.699e-05
-4.47554e-05
-5.07348e-05
-4.17601e-05
-4.61754e-05
-4.25776e-05
-4.33946e-05
-4.25434e-05
-4.15243e-05
-4.00707e-05
-3.82004e-05
-3.59523e-05
-3.34134e-05
-3.06525e-05
-2.77922e-05
-2.48697e-05
-2.20003e-05
-1.9165e-05
-1.64748e-05
-1.37579e-05
-1.14582e-05
-8.57298e-06
-6.72034e-06
-3.51159e-06
-1.72363e-06
-0.000257538
6.12246e-06
-0.000140069
-3.82212e-05