/*--------------------------------*- C++ -*----------------------------------*\
| =========                 |                                                 |
| \\      /  F ield         | OpenFOAM: The Open Source CFD Toolbox           |
|  \\    /   O peration     | Version:  2.4.0                                 |
|   \\  /    A nd           | Web:      www.OpenFOAM.org                      |
|    \\/     M anipulation  |                                                 |
\*---------------------------------------------------------------------------*/
FoamFile
{
    version     2.0;
    format      ascii;
    class       volVectorField;
    location    "0.302";
    object      U;
}
// * * * * * * * * * * * * * * * * * * * * * * * * * * * * * * * * * * * * * //

dimensions      [0 1 -1 0 0 0 0];

internalField   nonuniform List<vector> 
10000
(
(-7.02531e-07 6.92697e-07 0)
(-3.13747e-07 4.3684e-08 0)
(3.03708e-06 -6.63282e-07 0)
(8.88693e-06 -1.18541e-06 0)
(1.66905e-05 -1.56567e-06 0)
(2.5899e-05 -1.84425e-06 0)
(3.60768e-05 -2.03087e-06 0)
(4.68637e-05 -2.13555e-06 0)
(5.79434e-05 -2.17176e-06 0)
(6.90319e-05 -2.15249e-06 0)
(7.988e-05 -2.08854e-06 0)
(9.02818e-05 -1.9897e-06 0)
(0.000100081 -1.86639e-06 0)
(0.000109178 -1.73023e-06 0)
(0.000117533 -1.59362e-06 0)
(0.000125165 -1.46905e-06 0)
(0.000132155 -1.36815e-06 0)
(0.000138634 -1.30062e-06 0)
(0.000144773 -1.27314e-06 0)
(0.000150767 -1.28839e-06 0)
(0.000156819 -1.34424e-06 0)
(0.00016311 -1.43369e-06 0)
(0.000169787 -1.54573e-06 0)
(0.000176946 -1.66703e-06 0)
(0.000184622 -1.78413e-06 0)
(0.000192794 -1.88608e-06 0)
(0.000201401 -1.96669e-06 0)
(0.000210364 -2.02599e-06 0)
(0.000219615 -2.07018e-06 0)
(0.000229119 -2.10961e-06 0)
(0.000238888 -2.15538e-06 0)
(0.000248973 -2.21677e-06 0)
(0.000259459 -2.30124e-06 0)
(0.000270456 -2.41769e-06 0)
(0.000282104 -2.57349e-06 0)
(0.000294533 -2.76245e-06 0)
(0.000307826 -2.96927e-06 0)
(0.000321987 -3.17415e-06 0)
(0.000336937 -3.3577e-06 0)
(0.000352525 -3.50422e-06 0)
(0.000368544 -3.60335e-06 0)
(0.000384758 -3.65036e-06 0)
(0.000400919 -3.6453e-06 0)
(0.000416792 -3.5917e-06 0)
(0.000432158 -3.49512e-06 0)
(0.00044683 -3.36186e-06 0)
(0.000460653 -3.19806e-06 0)
(0.000473501 -3.00927e-06 0)
(0.000485275 -2.80025e-06 0)
(0.000495898 -2.57492e-06 0)
(-8.61991e-08 2.76827e-07 0)
(4.61483e-06 -4.6468e-06 0)
(1.57707e-05 -9.82167e-06 0)
(3.20827e-05 -1.39007e-05 0)
(5.25731e-05 -1.70155e-05 0)
(7.62768e-05 -1.93144e-05 0)
(0.00010227 -2.08702e-05 0)
(0.000129685 -2.17491e-05 0)
(0.000157728 -2.20266e-05 0)
(0.000185683 -2.17815e-05 0)
(0.00021292 -2.10956e-05 0)
(0.000238909 -2.00573e-05 0)
(0.000263242 -1.87661e-05 0)
(0.00028565 -1.73331e-05 0)
(0.000306015 -1.58767e-05 0)
(0.000324379 -1.45157e-05 0)
(0.000340933 -1.33605e-05 0)
(0.000356005 -1.25031e-05 0)
(0.000370029 -1.20071e-05 0)
(0.000383502 -1.19002e-05 0)
(0.000396939 -1.21696e-05 0)
(0.000410818 -1.27619e-05 0)
(0.000425531 -1.35908e-05 0)
(0.000441346 -1.45499e-05 0)
(0.000458392 -1.553e-05 0)
(0.000476662 -1.64391e-05 0)
(0.000496051 -1.72214e-05 0)
(0.000516406 -1.78687e-05 0)
(0.000537591 -1.84211e-05 0)
(0.000559545 -1.89518e-05 0)
(0.000582302 -1.95419e-05 0)
(0.000605988 -2.02606e-05 0)
(0.000630787 -2.11622e-05 0)
(0.000656939 -2.23e-05 0)
(0.000684739 -2.37024e-05 0)
(0.000714461 -2.53089e-05 0)
(0.000746252 -2.69916e-05 0)
(0.000780066 -2.85919e-05 0)
(0.000815665 -2.99561e-05 0)
(0.000852637 -3.09616e-05 0)
(0.000890452 -3.15284e-05 0)
(0.00092851 -3.16211e-05 0)
(0.000966201 -3.1242e-05 0)
(0.00100294 -3.04219e-05 0)
(0.00103819 -2.9209e-05 0)
(0.0010715 -2.76608e-05 0)
(0.00110249 -2.58362e-05 0)
(0.00113085 -2.37913e-05 0)
(0.00115635 -2.15753e-05 0)
(0.00117882 -1.9229e-05 0)
(6.04639e-07 -3.13048e-06 0)
(9.58305e-06 -1.55508e-05 0)
(2.73258e-05 -2.7462e-05 0)
(5.19353e-05 -3.70576e-05 0)
(8.20219e-05 -4.45302e-05 0)
(0.00011638 -5.00908e-05 0)
(0.00015381 -5.3856e-05 0)
(0.000193121 -5.59454e-05 0)
(0.000233179 -5.65043e-05 0)
(0.000272942 -5.57013e-05 0)
(0.00031148 -5.37304e-05 0)
(0.000348004 -5.08172e-05 0)
(0.000381901 -4.72222e-05 0)
(0.000412756 -4.32375e-05 0)
(0.000440384 -3.91756e-05 0)
(0.000464832 -3.53503e-05 0)
(0.000486377 -3.20537e-05 0)
(0.000505501 -2.95306e-05 0)
(0.00052285 -2.79532e-05 0)
(0.000539175 -2.74012e-05 0)
(0.000555256 -2.78498e-05 0)
(0.000571828 -2.91716e-05 0)
(0.000589501 -3.11534e-05 0)
(0.000608708 -3.35284e-05 0)
(0.000629676 -3.60194e-05 0)
(0.00065243 -3.8389e-05 0)
(0.000676838 -4.04875e-05 0)
(0.000702692 -4.22849e-05 0)
(0.000729809 -4.38727e-05 0)
(0.000758111 -4.54267e-05 0)
(0.000787666 -4.71403e-05 0)
(0.000818662 -4.91707e-05 0)
(0.000851348 -5.16324e-05 0)
(0.00088603 -5.46439e-05 0)
(0.000923126 -5.82721e-05 0)
(0.000963038 -6.23498e-05 0)
(0.00100595 -6.65455e-05 0)
(0.00105173 -7.04585e-05 0)
(0.00109999 -7.37095e-05 0)
(0.00115007 -7.60005e-05 0)
(0.00120114 -7.71427e-05 0)
(0.0012523 -7.70571e-05 0)
(0.00130266 -7.57581e-05 0)
(0.00135136 -7.33296e-05 0)
(0.00139764 -6.98997e-05 0)
(0.00144085 -6.56191e-05 0)
(0.00148044 -6.06437e-05 0)
(0.00151601 -5.51219e-05 0)
(0.00154723 -4.91853e-05 0)
(0.00157389 -4.29431e-05 0)
(1.1429e-06 -9.01509e-06 0)
(1.35544e-05 -3.16837e-05 0)
(3.66758e-05 -5.19597e-05 0)
(6.80358e-05 -6.83078e-05 0)
(0.00010578 -8.11439e-05 0)
(0.000148446 -9.07244e-05 0)
(0.000194615 -9.71739e-05 0)
(0.00024286 -0.000100651 0)
(0.000291798 -0.000101374 0)
(0.000340132 -9.96149e-05 0)
(0.000386691 -9.57057e-05 0)
(0.000430472 -9.00468e-05 0)
(0.000470684 -8.31113e-05 0)
(0.000506789 -7.54352e-05 0)
(0.000538531 -6.7595e-05 0)
(0.000565959 -6.01723e-05 0)
(0.000589416 -5.3712e-05 0)
(0.000609518 -4.8674e-05 0)
(0.0006271 -4.53882e-05 0)
(0.000643146 -4.40152e-05 0)
(0.000658686 -4.45235e-05 0)
(0.000674699 -4.66907e-05 0)
(0.00069201 -5.01333e-05 0)
(0.000711215 -5.43637e-05 0)
(0.000732632 -5.88683e-05 0)
(0.000756306 -6.32004e-05 0)
(0.000782063 -6.70712e-05 0)
(0.000809614 -7.04153e-05 0)
(0.000838699 -7.33987e-05 0)
(0.00086922 -7.63484e-05 0)
(0.000901294 -7.96122e-05 0)
(0.000935188 -8.3445e-05 0)
(0.000971187 -8.80049e-05 0)
(0.00100961 -9.35085e-05 0)
(0.00105104 -0.000100131 0)
(0.00109606 -0.000107537 0)
(0.00114492 -0.000115083 0)
(0.00119741 -0.000122018 0)
(0.00125292 -0.000127649 0)
(0.00131054 -0.000131448 0)
(0.00136914 -0.000133098 0)
(0.00142755 -0.00013248 0)
(0.0014846 -0.000129642 0)
(0.00153921 -0.000124756 0)
(0.00159044 -0.000118068 0)
(0.0016375 -0.000109862 0)
(0.00167975 -0.00010043 0)
(0.0017167 -9.00454e-05 0)
(0.001748 -7.8953e-05 0)
(0.00177339 -6.73547e-05 0)
(1.53412e-06 -1.67089e-05 0)
(1.67104e-05 -5.19924e-05 0)
(4.43742e-05 -8.20825e-05 0)
(8.14869e-05 -0.000106124 0)
(0.000125738 -0.000124972 0)
(0.000175382 -0.000138998 0)
(0.000228777 -0.000148342 0)
(0.000284288 -0.000153193 0)
(0.000340321 -0.000153837 0)
(0.000395366 -0.000150657 0)
(0.000448043 -0.000144137 0)
(0.00049716 -0.000134877 0)
(0.000541763 -0.000123602 0)
(0.000581192 -0.000111142 0)
(0.000615125 -9.83951e-05 0)
(0.0006436 -8.62754e-05 0)
(0.00066702 -7.56457e-05 0)
(0.000686125 -6.72428e-05 0)
(0.000701937 -6.16052e-05 0)
(0.000715673 -5.90083e-05 0)
(0.000728629 -5.94238e-05 0)
(0.000742042 -6.25169e-05 0)
(0.000756967 -6.76913e-05 0)
(0.00077417 -7.41753e-05 0)
(0.000794064 -8.11428e-05 0)
(0.000816692 -8.78606e-05 0)
(0.000841789 -9.38429e-05 0)
(0.000868921 -9.89712e-05 0)
(0.000897687 -0.000103524 0)
(0.000927944 -0.000108058 0)
(0.00095989 -0.000113139 0)
(0.000993924 -0.000119109 0)
(0.00103033 -0.000126094 0)
(0.00106934 -0.000134472 0)
(0.00111177 -0.000144728 0)
(0.00115859 -0.000156258 0)
(0.00121016 -0.000167941 0)
(0.00126615 -0.000178527 0)
(0.00132569 -0.000186915 0)
(0.00138755 -0.000192307 0)
(0.00145027 -0.000194249 0)
(0.00151236 -0.00019261 0)
(0.00157241 -0.000187515 0)
(0.00162915 -0.000179267 0)
(0.00168149 -0.000168278 0)
(0.00172852 -0.000155005 0)
(0.00176957 -0.000139907 0)
(0.00180408 -0.000123415 0)
(0.00183171 -0.000105909 0)
(0.00185221 -8.77025e-05 0)
(1.81314e-06 -2.58029e-05 0)
(1.92564e-05 -7.57325e-05 0)
(5.08471e-05 -0.000117011 0)
(9.30068e-05 -0.000149629 0)
(0.000143007 -0.000175037 0)
(0.000198811 -0.000193811 0)
(0.000258547 -0.00020614 0)
(0.000320375 -0.000212255 0)
(0.000382498 -0.00021251 0)
(0.000443206 -0.000207396 0)
(0.000500924 -0.000197561 0)
(0.000554273 -0.000183827 0)
(0.000602138 -0.0001672 0)
(0.000643732 -0.000148847 0)
(0.000678655 -0.000130042 0)
(0.000706927 -0.000112095 0)
(0.000729001 -9.62545e-05 0)
(0.000745741 -8.36009e-05 0)
(0.000758365 -7.49412e-05 0)
(0.000768349 -7.07094e-05 0)
(0.000777286 -7.08957e-05 0)
(0.000786714 -7.50369e-05 0)
(0.000797956 -8.22761e-05 0)
(0.000811979 -9.14838e-05 0)
(0.0008293 -0.000101425 0)
(0.000849944 -0.000110974 0)
(0.000873494 -0.000119359 0)
(0.000899257 -0.000126376 0)
(0.000926576 -0.000132475 0)
(0.000955207 -0.000138592 0)
(0.000985499 -0.000145629 0)
(0.00101812 -0.000153979 0)
(0.00105328 -0.000163503 0)
(0.00109082 -0.000174861 0)
(0.001132 -0.000189379 0)
(0.00117857 -0.000205944 0)
(0.00123102 -0.000222674 0)
(0.00128886 -0.000237607 0)
(0.00135084 -0.00024912 0)
(0.0014153 -0.000256107 0)
(0.0014804 -0.000258004 0)
(0.0015443 -0.000254721 0)
(0.00160532 -0.000246525 0)
(0.00166203 -0.000233914 0)
(0.00171321 -0.000217516 0)
(0.00175791 -0.000198005 0)
(0.0017954 -0.000176042 0)
(0.00182515 -0.000152237 0)
(0.0018468 -0.000127125 0)
(0.00186016 -0.000101147 0)
(2.01885e-06 -3.60523e-05 0)
(2.13596e-05 -0.000102398 0)
(5.63973e-05 -0.000156156 0)
(0.000103079 -0.000198221 0)
(0.000158299 -0.000230732 0)
(0.000219741 -0.000254537 0)
(0.0002853 -0.000269918 0)
(0.000352925 -0.000277158 0)
(0.000420613 -0.000276685 0)
(0.000486453 -0.000269102 0)
(0.000548669 -0.000255225 0)
(0.000605687 -0.000236113 0)
(0.000656216 -0.000213082 0)
(0.000699326 -0.000187674 0)
(0.000734519 -0.000161595 0)
(0.000761779 -0.000136616 0)
(0.0007816 -0.000114445 0)
(0.000794967 -9.65848e-05 0)
(0.000803314 -8.41872e-05 0)
(0.000808413 -7.79031e-05 0)
(0.000812212 -7.77678e-05 0)
(0.000816615 -8.31733e-05 0)
(0.000823272 -9.2949e-05 0)
(0.000833408 -0.000105521 0)
(0.000847686 -0.000119122 0)
(0.000866115 -0.000132083 0)
(0.000888053 -0.000143197 0)
(0.000912394 -0.0001521 0)
(0.000938008 -0.000159496 0)
(0.000964431 -0.000166976 0)
(0.000992295 -0.000176029 0)
(0.00102288 -0.000187028 0)
(0.00105619 -0.000198938 0)
(0.00109093 -0.000212893 0)
(0.00112916 -0.000232413 0)
(0.00117428 -0.000255244 0)
(0.00122688 -0.000278212 0)
(0.00128609 -0.000298347 0)
(0.00135013 -0.000313383 0)
(0.00141678 -0.000321899 0)
(0.00148369 -0.000323282 0)
(0.00154867 -0.000317576 0)
(0.00160977 -0.000305284 0)
(0.00166539 -0.000287183 0)
(0.00171425 -0.000264179 0)
(0.00175537 -0.000237204 0)
(0.00178801 -0.000207149 0)
(0.00181168 -0.000174824 0)
(0.00182605 -0.000140932 0)
(0.00183098 -0.000106055 0)
(2.18556e-06 -4.72798e-05 0)
(2.31679e-05 -0.000131627 0)
(6.12914e-05 -0.000199078 0)
(0.000112114 -0.00025146 0)
(0.000172196 -0.000291645 0)
(0.000238957 -0.000320798 0)
(0.000310066 -0.000339322 0)
(0.000383258 -0.00034757 0)
(0.000456321 -0.000346044 0)
(0.000527131 -0.000335462 0)
(0.000593694 -0.000316808 0)
(0.000654223 -0.000291388 0)
(0.000707226 -0.00026085 0)
(0.000751596 -0.000227153 0)
(0.000786709 -0.00019249 0)
(0.000812488 -0.000159162 0)
(0.000829446 -0.000129422 0)
(0.000838686 -0.000105289 0)
(0.000841867 -8.83572e-05 0)
(0.000841109 -7.95802e-05 0)
(0.000838797 -7.90798e-05 0)
(0.000837287 -8.60889e-05 0)
(0.000838637 -9.90668e-05 0)
(0.000844417 -0.000115904 0)
(0.000855528 -0.000134152 0)
(0.000872011 -0.000151378 0)
(0.000892949 -0.000165696 0)
(0.000916611 -0.000176404 0)
(0.000941017 -0.000184538 0)
(0.000965212 -0.000192844 0)
(0.0009903 -0.000203955 0)
(0.00101902 -0.000218174 0)
(0.00105101 -0.000231931 0)
(0.00108194 -0.000247067 0)
(0.00111556 -0.000272692 0)
(0.00115871 -0.000303632 0)
(0.00121164 -0.000334465 0)
(0.00127272 -0.000360865 0)
(0.00133938 -0.00037984 0)
(0.00140866 -0.000389705 0)
(0.00147762 -0.000389925 0)
(0.00154368 -0.000380823 0)
(0.00160464 -0.000363267 0)
(0.0016588 -0.00033841 0)
(0.00170485 -0.000307501 0)
(0.00174181 -0.00027177 0)
(0.001769 -0.000232359 0)
(0.00178595 -0.00019029 0)
(0.0017924 -0.000146445 0)
(0.00178826 -0.000101558 0)
(2.33353e-06 -5.93603e-05 0)
(2.47927e-05 -0.000163165 0)
(6.57463e-05 -0.000245472 0)
(0.000120441 -0.000309045 0)
(0.000185149 -0.000357515 0)
(0.000257055 -0.000392392 0)
(0.000333613 -0.000414214 0)
(0.000412347 -0.000423411 0)
(0.000490834 -0.00042056 0)
(0.000566724 -0.000406482 0)
(0.000637788 -0.000382328 0)
(0.000701995 -0.000349654 0)
(0.000757611 -0.000310459 0)
(0.000803318 -0.000267155 0)
(0.000838318 -0.000222478 0)
(0.000862434 -0.000179337 0)
(0.000876167 -0.000140624 0)
(0.000880715 -0.000108984 0)
(0.000877966 -8.65849e-05 0)
(0.000870443 -7.48118e-05 0)
(0.000861071 -7.39362e-05 0)
(0.000852764 -8.30158e-05 0)
(0.000848081 -0.000100084 0)
(0.000849052 -0.000122422 0)
(0.000856975 -0.000146741 0)
(0.000872071 -0.000169557 0)
(0.000893178 -0.000187896 0)
(0.000917703 -0.00020032 0)
(0.000942193 -0.000208149 0)
(0.00096455 -0.000216184 0)
(0.000986492 -0.000229415 0)
(0.00101415 -0.000248388 0)
(0.00104686 -0.000262907 0)
(0.00107296 -0.000275474 0)
(0.00109975 -0.00030937 0)
(0.00114116 -0.000351367 0)
(0.00119562 -0.000392241 0)
(0.00125999 -0.000426127 0)
(0.00133056 -0.000449376 0)
(0.00140348 -0.000460199 0)
(0.00147518 -0.000458344 0)
(0.00154267 -0.000444621 0)
(0.00160361 -0.000420429 0)
(0.00165626 -0.000387404 0)
(0.00169933 -0.0003472 0)
(0.00173193 -0.000301367 0)
(0.00175342 -0.000251307 0)
(0.00176342 -0.000198255 0)
(0.00176171 -0.000143279 0)
(0.00174825 -8.72694e-05 0)
(2.47153e-06 -7.2215e-05 0)
(2.6302e-05 -0.00019684 0)
(6.99055e-05 -0.000295125 0)
(0.000128279 -0.000370775 0)
(0.000197456 -0.000428192 0)
(0.000274418 -0.000469242 0)
(0.000356429 -0.000494606 0)
(0.000440817 -0.000504786 0)
(0.000524945 -0.000500421 0)
(0.000606233 -0.000482419 0)
(0.000682192 -0.000452083 0)
(0.000750514 -0.000411213 0)
(0.000809179 -0.000362169 0)
(0.000856596 -0.00030785 0)
(0.000891743 -0.000251591 0)
(0.000914289 -0.000196994 0)
(0.000924675 -0.000147687 0)
(0.000924145 -0.000107071 0)
(0.000914788 -7.80557e-05 0)
(0.000899587 -6.26579e-05 0)
(0.000882145 -6.13927e-05 0)
(0.000866053 -7.31071e-05 0)
(0.00085443 -9.5353e-05 0)
(0.000849893 -0.000124795 0)
(0.000854397 -0.000157187 0)
(0.000868647 -0.000187647 0)
(0.000891446 -0.000211508 0)
(0.000919205 -0.000225755 0)
(0.000946074 -0.000231438 0)
(0.000967408 -0.000236915 0)
(0.000985085 -0.000252233 0)
(0.0010127 -0.000280194 0)
(0.00105042 -0.00029386 0)
(0.00107016 -0.000294509 0)
(0.0010867 -0.000341966 0)
(0.00112814 -0.000399787 0)
(0.00118679 -0.000453333 0)
(0.00125683 -0.000495864 0)
(0.00133318 -0.000523422 0)
(0.00141105 -0.000534407 0)
(0.00148627 -0.000529174 0)
(0.00155556 -0.00050929 0)
(0.00161658 -0.000476873 0)
(0.00166766 -0.000434145 0)
(0.00170766 -0.000383196 0)
(0.00173581 -0.000325898 0)
(0.00175157 -0.000263896 0)
(0.00175458 -0.000198625 0)
(0.00174468 -0.000131333 0)
(0.00172187 -6.30866e-05 0)
(2.60262e-06 -8.57968e-05 0)
(2.77269e-05 -0.000232526 0)
(7.38367e-05 -0.000347878 0)
(0.000135728 -0.000436502 0)
(0.000209246 -0.000503583 0)
(0.000291213 -0.000551343 0)
(0.000378735 -0.000580603 0)
(0.000468965 -0.000591921 0)
(0.000559069 -0.000585975 0)
(0.00064623 -0.00056373 0)
(0.000727684 -0.000526608 0)
(0.000800805 -0.000476635 0)
(0.00086323 -0.000416528 0)
(0.00091303 -0.0003497 0)
(0.000948888 -0.000280148 0)
(0.000970254 -0.000212247 0)
(0.000977446 -0.000150467 0)
(0.000971672 -9.90837e-05 0)
(0.000955127 -6.19742e-05 0)
(0.000931306 -4.21113e-05 0)
(0.000904692 -4.03825e-05 0)
(0.000879669 -5.53162e-05 0)
(0.000859878 -8.39072e-05 0)
(0.000848596 -0.000122355 0)
(0.000848803 -0.000165468 0)
(0.000862181 -0.000206625 0)
(0.000887989 -0.000238712 0)
(0.000921979 -0.0002557 0)
(0.00095509 -0.000256342 0)
(0.000977334 -0.000254268 0)
(0.000987879 -0.000270399 0)
(0.00101521 -0.000318715 0)
(0.00106487 -0.000330456 0)
(0.00107594 -0.000296345 0)
(0.00107797 -0.000371318 0)
(0.00112453 -0.000452027 0)
(0.00119211 -0.000520706 0)
(0.00127116 -0.000572538 0)
(0.00135554 -0.000603761 0)
(0.00143965 -0.000613422 0)
(0.0015189 -0.000602941 0)
(0.00159002 -0.000574982 0)
(0.00165088 -0.000532554 0)
(0.00170012 -0.000478522 0)
(0.00173683 -0.000415397 0)
(0.00176042 -0.000345324 0)
(0.00177041 -0.000270135 0)
(0.00176649 -0.000191436 0)
(0.00174848 -0.000110648 0)
(0.0017164 -2.90351e-05 0)
(2.7274e-06 -0.00010007 0)
(2.9071e-05 -0.000270117 0)
(7.75424e-05 -0.000403584 0)
(0.000142781 -0.000506088 0)
(0.000220498 -0.000583604 0)
(0.000307409 -0.000638709 0)
(0.000400502 -0.000672349 0)
(0.000496796 -0.000685116 0)
(0.000593282 -0.000677686 0)
(0.000686917 -0.000651034 0)
(0.000774646 -0.000606653 0)
(0.000853488 -0.000546747 0)
(0.000920675 -0.000474376 0)
(0.000973858 -0.000393481 0)
(0.00101133 -0.000308783 0)
(0.00103226 -0.00022552 0)
(0.00103677 -0.000149102 0)
(0.0010259 -8.47477e-05 0)
(0.00100176 -3.7582e-05 0)
(0.000968386 -1.21014e-05 0)
(0.000931461 -9.72424e-06 0)
(0.000896277 -2.83429e-05 0)
(0.000866695 -6.42295e-05 0)
(0.000846565 -0.000113614 0)
(0.00084039 -0.000170636 0)
(0.000851464 -0.000226654 0)
(0.000880157 -0.000271443 0)
(0.000922844 -0.000294338 0)
(0.000968805 -0.000287768 0)
(0.000998559 -0.000267827 0)
(0.000997525 -0.000276359 0)
(0.00101845 -0.00037045 0)
(0.00108453 -0.000383539 0)
(0.0010844 -0.000268092 0)
(0.00107168 -0.000402731 0)
(0.00113469 -0.000514467 0)
(0.0012189 -0.000598915 0)
(0.00131132 -0.000659363 0)
(0.00140602 -0.000692299 0)
(0.00149713 -0.000698033 0)
(0.00158016 -0.000679676 0)
(0.00165237 -0.000641339 0)
(0.00171224 -0.000587007 0)
(0.00175891 -0.000520138 0)
(0.00179186 -0.000443553 0)
(0.00181065 -0.000359548 0)
(0.00181487 -0.000270055 0)
(0.00180413 -0.000176786 0)
(0.00177817 -8.13316e-05 0)
(0.00173694 1.48138e-05 0)
(2.84457e-06 -0.000114996 0)
(3.03161e-05 -0.00030949 0)
(8.09696e-05 -0.000462071 0)
(0.000149338 -0.00057936 0)
(0.000231057 -0.000668136 0)
(0.000322792 -0.000731327 0)
(0.000421475 -0.000769986 0)
(0.000524039 -0.000784701 0)
(0.000627343 -0.000776098 0)
(0.000728142 -0.000745095 0)
(0.000823091 -0.000693175 0)
(0.000908824 -0.000622652 0)
(0.000982098 -0.000536877 0)
(0.00104003 -0.000440325 0)
(0.00108044 -0.000338504 0)
(0.00110207 -0.000237631 0)
(0.00110488 -0.000144145 0)
(0.00108959 -6.41314e-05 0)
(0.00105776 -4.22935e-06 0)
(0.001014 2.84275e-05 0)
(0.000965772 3.17364e-05 0)
(0.000919349 9.29788e-06 0)
(0.000878021 -3.40452e-05 0)
(0.000845864 -9.58434e-05 0)
(0.000829675 -0.000170274 0)
(0.000835067 -0.000246259 0)
(0.000863523 -0.000309871 0)
(0.00091326 -0.000345591 0)
(0.000979235 -0.000338078 0)
(0.00103562 -0.000288102 0)
(0.00103078 -0.00025507 0)
(0.00102526 -0.000424479 0)
(0.00107765 -0.000450731 0)
(0.00106245 -0.000199611 0)
(0.00105902 -0.000453567 0)
(0.00116172 -0.000602565 0)
(0.00127634 -0.000697039 0)
(0.0013881 -0.000761123 0)
(0.00149464 -0.00079076 0)
(0.00159182 -0.000788105 0)
(0.00167671 -0.000758378 0)
(0.001748 -0.000707129 0)
(0.00180517 -0.000639128 0)
(0.00184806 -0.00055819 0)
(0.0018765 -0.0004672 0)
(0.00189019 -0.000368409 0)
(0.00188865 -0.000263705 0)
(0.00187131 -0.000154835 0)
(0.00183767 -4.35472e-05 0)
(0.00178749 6.83704e-05 0)
(2.95063e-06 -0.000130519 0)
(3.14245e-05 -0.000350485 0)
(8.40181e-05 -0.000523108 0)
(0.000155214 -0.000656073 0)
(0.00024064 -0.000756981 0)
(0.00033698 -0.00082911 0)
(0.000441178 -0.000873597 0)
(0.00055015 -0.000890989 0)
(0.000660684 -0.000881794 0)
(0.000769383 -0.000846788 0)
(0.00087264 -0.000787337 0)
(0.000966688 -0.000705748 0)
(0.00104774 -0.00060557 0)
(0.00111226 -0.000491783 0)
(0.00115738 -0.000370758 0)
(0.00118138 -0.000249861 0)
(0.00118403 -0.000136729 0)
(0.00116566 -3.79024e-05 0)
(0.00112661 3.84723e-05 0)
(0.0010719 8.0391e-05 0)
(0.0010118 8.48185e-05 0)
(0.000953749 5.88976e-05 0)
(0.000898907 9.7936e-06 0)
(0.000850634 -6.46331e-05 0)
(0.000818974 -0.000159788 0)
(0.000812486 -0.000261051 0)
(0.000832784 -0.000349862 0)
(0.000881978 -0.000410111 0)
(0.000970201 -0.000425081 0)
(0.00108173 -0.000351491 0)
(0.00113413 -0.000227474 0)
(0.00107908 -0.00039898 0)
(0.000973533 -0.000440044 0)
(0.00095648 -0.000179746 0)
(0.00107597 -0.000562853 0)
(0.00124311 -0.000740636 0)
(0.00139655 -0.000823996 0)
(0.00152517 -0.000878456 0)
(0.00163704 -0.000896486 0)
(0.00173357 -0.000879993 0)
(0.00181481 -0.000835646 0)
(0.00188121 -0.000769672 0)
(0.00193305 -0.000687 0)
(0.00197049 -0.000591463 0)
(0.00199356 -0.000485725 0)
(0.0020019 -0.000371761 0)
(0.00199478 -0.000251252 0)
(0.00197128 -0.000125894 0)
(0.00193046 2.40789e-06 0)
(0.00187171 0.000131489 0)
(3.03988e-06 -0.000146557 0)
(3.23415e-05 -0.000392881 0)
(8.65458e-05 -0.000586376 0)
(0.000160153 -0.000735872 0)
(0.000248853 -0.000849821 0)
(0.000349428 -0.000931848 0)
(0.000458914 -0.000983158 0)
(0.000574295 -0.00100421 0)
(0.000692376 -0.000995341 0)
(0.000809689 -0.000957063 0)
(0.000922432 -0.000890492 0)
(0.00102646 -0.00079776 0)
(0.0011174 -0.000682447 0)
(0.00119091 -0.000549939 0)
(0.00124322 -0.000407532 0)
(0.00127179 -0.000263999 0)
(0.00127636 -0.000128645 0)
(0.001257 -7.61454e-06 0)
(0.00121212 9.01501e-05 0)
(0.00114652 0.000144512 0)
(0.00107469 0.000149597 0)
(0.00100618 0.000120374 0)
(0.000937698 7.00372e-05 0)
(0.000869676 -1.40559e-05 0)
(0.000816301 -0.000131891 0)
(0.000789035 -0.000261661 0)
(0.000784454 -0.000376954 0)
(0.000807547 -0.000477271 0)
(0.000888926 -0.000558464 0)
(0.0010512 -0.000520729 0)
(0.00117624 -0.000180352 0)
(0.00111991 -0.000235416 0)
(0.000930099 -0.000279154 0)
(0.00093661 -0.000231128 0)
(0.00119832 -0.000786769 0)
(0.00144056 -0.000939943 0)
(0.00161111 -0.000977766 0)
(0.00173928 -0.00100215 0)
(0.00184204 -0.000999469 0)
(0.00192675 -0.000965339 0)
(0.00199667 -0.000905442 0)
(0.0020535 -0.000825015 0)
(0.00209728 -0.000728189 0)
(0.0021278 -0.00061863 0)
(0.00214492 -0.000498615 0)
(0.002148 -0.00036968 0)
(0.0021359 -0.000233158 0)
(0.0021071 -9.05933e-05 0)
(0.00206003 5.59561e-05 0)
(0.00199344 0.000203836 0)
(3.1047e-06 -0.000162998 0)
(3.29983e-05 -0.000436376 0)
(8.83782e-05 -0.000651443 0)
(0.000163837 -0.000818262 0)
(0.000255208 -0.000946171 0)
(0.00035945 -0.00103915 0)
(0.000473782 -0.00109847 0)
(0.000595352 -0.00112446 0)
(0.000721096 -0.0011172 0)
(0.000847602 -0.00107686 0)
(0.000970993 -0.00100414 0)
(0.00108685 -0.000900756 0)
(0.00119025 -0.000770063 0)
(0.00127593 -0.00061761 0)
(0.00133885 -0.000451541 0)
(0.00137507 -0.000282295 0)
(0.00138411 -0.00012203 0)
(0.00136553 2.5073e-05 0)
(0.00131615 0.000149275 0)
(0.00124154 0.000219824 0)
(0.00116006 0.000225442 0)
(0.00108295 0.0001921 0)
(0.00100372 0.000145403 0)
(0.000917135 6.17313e-05 0)
(0.000837791 -7.45159e-05 0)
(0.000779207 -0.000225703 0)
(0.0007348 -0.000350157 0)
(0.000684311 -0.000450209 0)
(0.000570553 -0.000518952 0)
(0.000345662 -0.000516697 0)
(0.000494903 -0.000435408 0)
(0.000897981 -0.000312961 0)
(0.000999157 -0.000255166 0)
(0.00148473 -0.000768101 0)
(0.00197783 -0.00094908 0)
(0.00195675 -0.00102357 0)
(0.00196697 -0.00106716 0)
(0.00203096 -0.00108875 0)
(0.00210159 -0.00107762 0)
(0.00216309 -0.00103207 0)
(0.00221617 -0.000961374 0)
(0.0022615 -0.000869946 0)
(0.00229664 -0.000761068 0)
(0.00232007 -0.000639044 0)
(0.00233156 -0.00050594 0)
(0.0023302 -0.000362782 0)
(0.00231434 -0.000210424 0)
(0.00228177 -5.01107e-05 0)
(0.00223005 0.000116002 0)
(0.00215702 0.000284647 0)
(3.13616e-06 -0.000179693 0)
(3.33181e-05 -0.000480578 0)
(8.93225e-05 -0.000717744 0)
(0.000165916 -0.000902576 0)
(0.000259158 -0.00104534 0)
(0.00036626 -0.0011504 0)
(0.000484712 -0.00121906 0)
(0.000611933 -0.00125153 0)
(0.000745122 -0.0012476 0)
(0.000881086 -0.00120698 0)
(0.00101607 -0.00112978 0)
(0.00114559 -0.00101709 0)
(0.00126438 -0.000871638 0)
(0.00136628 -0.000698678 0)
(0.00144471 -0.000506797 0)
(0.00149335 -0.000307989 0)
(0.00151132 -0.000120173 0)
(0.00149707 5.82954e-05 0)
(0.00144297 0.00021617 0)
(0.00135959 0.000303061 0)
(0.00127495 0.000307866 0)
(0.00119148 0.00027484 0)
(0.0010991 0.000230183 0)
(0.00100399 0.000153031 0)
(0.000921228 3.52119e-06 0)
(0.000858308 -0.000166176 0)
(0.000822525 -0.000312344 0)
(0.000849142 -0.000433659 0)
(0.000948842 -0.000482108 0)
(0.00110516 -0.000509936 0)
(0.00122134 -0.000718751 0)
(0.001223 -0.000463097 0)
(0.00125008 -0.000390572 0)
(0.00141458 -0.00134492 0)
(0.00167869 -0.00112018 0)
(0.00193314 -0.00111358 0)
(0.00212878 -0.00117458 0)
(0.00227744 -0.00117795 0)
(0.00236569 -0.00114388 0)
(0.00241721 -0.00108326 0)
(0.00245935 -0.00100529 0)
(0.0024984 -0.000906298 0)
(0.00252834 -0.000786825 0)
(0.00254646 -0.000653697 0)
(0.00255387 -0.000508861 0)
(0.00254985 -0.00035253 0)
(0.00253231 -0.000184815 0)
(0.00249832 -6.44595e-06 0)
(0.00244448 0.00018061 0)
(0.00236744 0.000372355 0)
(3.12495e-06 -0.000196452 0)
(3.32249e-05 -0.000525002 0)
(8.91904e-05 -0.000784573 0)
(0.000166048 -0.000987967 0)
(0.000260155 -0.00114642 0)
(0.000369048 -0.00126468 0)
(0.000490556 -0.00134413 0)
(0.000622472 -0.00138486 0)
(0.000762387 -0.00138636 0)
(0.000907521 -0.00134784 0)
(0.00105449 -0.0012687 0)
(0.00119911 -0.00114915 0)
(0.00133611 -0.000990908 0)
(0.00145885 -0.000798209 0)
(0.00155925 -0.000579169 0)
(0.00162764 -0.000346095 0)
(0.00165952 -0.000126218 0)
(0.00165202 8.97061e-05 0)
(0.00159674 0.000289317 0)
(0.00150639 0.000392595 0)
(0.0014278 0.000382957 0)
(0.00134754 0.000372845 0)
(0.00121993 0.000342458 0)
(0.0011016 0.000238817 0)
(0.00105077 5.38658e-05 0)
(0.00103273 -0.000126508 0)
(0.00101601 -0.000301868 0)
(0.00106272 -0.000529037 0)
(0.00119642 -0.000642452 0)
(0.00134378 -0.00069313 0)
(0.00143293 -0.000730836 0)
(0.00149472 -0.000466209 0)
(0.00167349 -0.000564215 0)
(0.00185961 -0.0014663 0)
(0.0020443 -0.00140733 0)
(0.00227799 -0.00132591 0)
(0.00245861 -0.00135683 0)
(0.00259984 -0.00130008 0)
(0.00266955 -0.00120226 0)
(0.00269239 -0.00112043 0)
(0.00272299 -0.00104245 0)
(0.00276273 -0.000939639 0)
(0.00279212 -0.000808604 0)
(0.00280679 -0.000664672 0)
(0.00281209 -0.000509469 0)
(0.00280805 -0.000341306 0)
(0.00279185 -0.000158939 0)
(0.00275973 3.74725e-05 0)
(0.00270743 0.000246691 0)
(0.00263021 0.000464141 0)
(3.06268e-06 -0.000213049 0)
(3.26551e-05 -0.000569076 0)
(8.7828e-05 -0.000851099 0)
(0.000163949 -0.00107341 0)
(0.000257737 -0.00124825 0)
(0.000367094 -0.00138076 0)
(0.000490238 -0.00147246 0)
(0.000625392 -0.00152335 0)
(0.000770652 -0.00153265 0)
(0.000923821 -0.00149912 0)
(0.00108219 -0.00142145 0)
(0.00124228 -0.00129884 0)
(0.00139945 -0.00113164 0)
(0.00154736 -0.000922249 0)
(0.00167719 -0.000676878 0)
(0.00177741 -0.00040647 0)
(0.00183473 -0.000143874 0)
(0.00183716 0.000121036 0)
(0.00177914 0.00036734 0)
(0.00168429 0.000485833 0)
(0.00161284 0.000436646 0)
(0.00155554 0.00046215 0)
(0.00141592 0.000505514 0)
(0.00125738 0.000336381 0)
(0.00119786 7.53364e-05 0)
(0.00122008 -0.000138257 0)
(0.00128774 -0.000334798 0)
(0.0013741 -0.000626306 0)
(0.00147639 -0.000777687 0)
(0.00159592 -0.000821447 0)
(0.00169267 -0.000801757 0)
(0.00185481 -0.000640981 0)
(0.00214496 -0.000839125 0)
(0.0022763 -0.00150823 0)
(0.00235055 -0.00164005 0)
(0.00261253 -0.00156945 0)
(0.00284424 -0.00151228 0)
(0.00296056 -0.00139572 0)
(0.00298409 -0.00121569 0)
(0.0029679 -0.00113702 0)
(0.00299825 -0.0010821 0)
(0.00305411 -0.000979438 0)
(0.00308899 -0.000829436 0)
(0.00310065 -0.00067358 0)
(0.00310579 -0.000510163 0)
(0.00310531 -0.000332396 0)
(0.00309479 -0.00013643 0)
(0.00306895 7.77496e-05 0)
(0.00302296 0.000309807 0)
(0.0029509 0.000555496 0)
(2.94368e-06 -0.00022923 0)
(3.15724e-05 -0.000612163 0)
(8.51521e-05 -0.000916397 0)
(0.000159463 -0.00115775 0)
(0.000251628 -0.00134947 0)
(0.000359928 -0.00149713 0)
(0.000482967 -0.00160239 0)
(0.000619401 -0.00166524 0)
(0.000767848 -0.00168476 0)
(0.000926766 -0.00165937 0)
(0.00109431 -0.00158721 0)
(0.00126813 -0.0014666 0)
(0.00144501 -0.0012965 0)
(0.00162028 -0.00107702 0)
(0.00178628 -0.00081079 0)
(0.00193095 -0.000505121 0)
(0.00203418 -0.000189502 0)
(0.00207613 0.000138243 0)
(0.0020327 0.000454569 0)
(0.00193645 0.000586047 0)
(0.00184114 0.000499458 0)
(0.00173857 0.000546685 0)
(0.00159375 0.000681531 0)
(0.001477 0.000422121 0)
(0.00147068 6.98367e-05 0)
(0.00154665 -0.000212949 0)
(0.001682 -0.000451898 0)
(0.00181099 -0.000718087 0)
(0.00190148 -0.000873095 0)
(0.00198883 -0.000928343 0)
(0.00208623 -0.000914143 0)
(0.00227011 -0.000903878 0)
(0.00253565 -0.00110532 0)
(0.00270231 -0.00154383 0)
(0.00277292 -0.00177835 0)
(0.00292033 -0.00182054 0)
(0.0031292 -0.00167962 0)
(0.00327553 -0.00147459 0)
(0.00328526 -0.00118366 0)
(0.00324568 -0.0011442 0)
(0.00329104 -0.00114613 0)
(0.00337849 -0.00104027 0)
(0.00341999 -0.000848724 0)
(0.00342499 -0.000680948 0)
(0.00343263 -0.000514254 0)
(0.00344118 -0.000330628 0)
(0.00344243 -0.000122514 0)
(0.00342856 0.000109419 0)
(0.00339452 0.000364261 0)
(0.00333442 0.000639907 0)
(2.76687e-06 -0.000244729 0)
(2.99813e-05 -0.000653611 0)
(8.11837e-05 -0.000979511 0)
(0.000152624 -0.00123977 0)
(0.000241851 -0.00144861 0)
(0.000347502 -0.00161205 0)
(0.000468519 -0.00173187 0)
(0.000603912 -0.00180815 0)
(0.000752708 -0.00183992 0)
(0.000913894 -0.00182546 0)
(0.00108636 -0.00176266 0)
(0.00126883 -0.0016494 0)
(0.00145973 -0.00148377 0)
(0.00165709 -0.00126426 0)
(0.00185758 -0.000989638 0)
(0.00205349 -0.000660324 0)
(0.00222071 -0.000290809 0)
(0.00233347 0.000101051 0)
(0.00235313 0.000524927 0)
(0.00230524 0.000685494 0)
(0.00217482 0.000641519 0)
(0.00196166 0.000682227 0)
(0.00181648 0.000799351 0)
(0.00176804 0.000462791 0)
(0.00181148 4.80828e-06 0)
(0.00194787 -0.00034292 0)
(0.00211927 -0.000616651 0)
(0.00227308 -0.000829948 0)
(0.00239973 -0.00097536 0)
(0.00251007 -0.00101762 0)
(0.00259549 -0.00101948 0)
(0.00270909 -0.0011151 0)
(0.00290368 -0.00133876 0)
(0.00309246 -0.00167801 0)
(0.00322426 -0.00188608 0)
(0.00334734 -0.00197823 0)