/*--------------------------------*- C++ -*----------------------------------*\
| =========                 |                                                 |
| \\      /  F ield         | OpenFOAM: The Open Source CFD Toolbox           |
|  \\    /   O peration     | Version:  2.4.0                                 |
|   \\  /    A nd           | Web:      www.OpenFOAM.org                      |
|    \\/     M anipulation  |                                                 |
\*---------------------------------------------------------------------------*/
FoamFile
{
    version     2.0;
    format      ascii;
    class       surfaceScalarField;
    location    "0.181";
    object      phi;
}
// * * * * * * * * * * * * * * * * * * * * * * * * * * * * * * * * * * * * * //

dimensions      [0 3 -1 0 0 0 0];

internalField   nonuniform List<scalar> 
19800
(
-2.42413e-13
2.42409e-13
-1.90049e-13
-6.71378e-14
1.98598e-13
-3.95569e-13
8.12929e-13
-6.10331e-13
1.57376e-12
-7.55613e-13
2.44868e-12
-8.72588e-13
3.43005e-12
-9.81311e-13
4.52147e-12
-1.09201e-12
5.73228e-12
-1.21118e-12
7.07518e-12
-1.34292e-12
8.56417e-12
-1.48879e-12
1.02122e-11
-1.64775e-12
1.20285e-11
-1.81627e-12
1.40171e-11
-1.98876e-12
1.61748e-11
-2.1582e-12
1.84911e-11
-2.31686e-12
2.09476e-11
-2.4571e-12
2.3519e-11
-2.57193e-12
2.61742e-11
-2.65554e-12
2.88774e-11
-2.70375e-12
3.1591e-11
-2.71444e-12
3.42776e-11
-2.68789e-12
3.69032e-11
-2.62709e-12
3.94393e-11
-2.53771e-12
4.1866e-11
-2.42778e-12
4.41721e-11
-2.30666e-12
4.63548e-11
-2.18295e-12
4.84156e-11
-2.06121e-12
5.03528e-11
-1.93815e-12
5.21515e-11
-1.8002e-12
5.37753e-11
-1.62555e-12
5.51685e-11
-1.39448e-12
5.62688e-11
-1.10065e-12
5.70235e-11
-7.542e-13
5.73989e-11
-3.74534e-13
5.73753e-11
2.41236e-14
5.69562e-11
4.19096e-13
5.61433e-11
8.12417e-13
5.49434e-11
1.19929e-12
5.33614e-11
1.58138e-12
5.14003e-11
1.96049e-12
4.90624e-11
2.33712e-12
4.63515e-11
2.70984e-12
4.32754e-11
3.07517e-12
3.98472e-11
3.42784e-12
3.60861e-11
3.76117e-12
3.20192e-11
4.06744e-12
2.76809e-11
4.33853e-12
2.31137e-11
4.56678e-12
4.74535e-12
1.83675e-11
-9.43317e-15
2.65972e-13
7.19801e-13
-7.83291e-13
2.10263e-12
-1.78029e-12
3.95494e-12
-2.4648e-12
6.16188e-12
-2.96176e-12
8.68278e-12
-3.39166e-12
1.15207e-11
-3.81831e-12
1.47012e-11
-4.27258e-12
1.82614e-11
-4.77178e-12
2.22441e-11
-5.32586e-12
2.66928e-11
-5.93745e-12
3.16455e-11
-6.60065e-12
3.71293e-11
-7.30073e-12
4.31545e-11
-8.01502e-12
4.97099e-11
-8.71482e-12
5.67601e-11
-9.36812e-12
6.42446e-11
-9.94238e-12
7.20794e-11
-1.04075e-11
8.01613e-11
-1.07385e-11
8.8374e-11
-1.0918e-11
9.65961e-11
-1.09385e-11
1.04709e-10
-1.08033e-11
1.12606e-10
-1.05263e-11
1.20198e-10
-1.01315e-11
1.2742e-10
-9.64999e-12
1.34228e-10
-9.11563e-12
1.40602e-10
-8.55787e-12
1.46531e-10
-7.99133e-12
1.51994e-10
-7.40393e-12
1.56941e-10
-6.74968e-12
1.61269e-10
-5.95551e-12
1.64829e-10
-4.95578e-12
1.67459e-10
-3.72953e-12
1.69016e-10
-2.31031e-12
1.69402e-10
-7.59769e-13
1.68565e-10
8.615e-13
1.66476e-10
2.50736e-12
1.63132e-10
4.15547e-12
1.58533e-10
5.79722e-12
1.52681e-10
7.43202e-12
1.45581e-10
9.0596e-12
1.37241e-10
1.06746e-11
1.27685e-10
1.22642e-11
1.16952e-10
1.38079e-11
1.05102e-10
1.52787e-11
9.22179e-11
1.66457e-11
7.84094e-11
1.78763e-11
6.38089e-11
1.89386e-11
4.85709e-11
1.98034e-11
2.04458e-11
3.28686e-11
3.30807e-13
-7.17595e-14
1.78908e-12
-2.23173e-12
4.07825e-12
-4.06471e-12
6.96687e-12
-5.35229e-12
1.03418e-11
-6.33668e-12
1.41797e-11
-7.2297e-12
1.85066e-11
-8.14539e-12
2.33732e-11
-9.13955e-12
2.88432e-11
-1.02423e-11
3.4986e-11
-1.14694e-11
4.18701e-11
-1.28225e-11
4.95554e-11
-1.42871e-11
5.80848e-11
-1.58314e-11
6.74759e-11
-1.74073e-11
7.77138e-11
-1.89534e-11
8.87459e-11
-2.04006e-11
1.0048e-10
-2.16769e-11
1.12787e-10
-2.27147e-11
1.25505e-10
-2.34572e-11
1.3845e-10
-2.38642e-11
1.51428e-10
-2.39178e-11
1.64248e-10
-2.36238e-11
1.76732e-10
-2.30116e-11
1.88732e-10
-2.21312e-11
2.00128e-10
-2.10469e-11
2.10841e-10
-1.98292e-11
2.20823e-10
-1.85405e-11
2.30045e-10
-1.72148e-11
2.3847e-10
-1.58316e-11
2.46016e-10
-1.42978e-11
2.52516e-10
-1.2456e-11
2.57722e-10
-1.01618e-11
2.61363e-10
-7.37035e-12
2.63213e-10
-4.15843e-12
2.63113e-10
-6.59624e-13
2.60977e-10
2.99708e-12
2.56762e-10
6.72176e-12
2.50452e-10
1.04653e-11
2.42038e-10
1.42097e-11
2.31519e-10
1.79501e-11
2.18897e-10
2.16797e-11
2.04192e-10
2.53788e-11
1.87444e-10
2.90111e-11
1.68729e-10
3.25235e-11
1.4816e-10
3.58497e-11
1.25891e-10
3.8916e-11
1.0212e-10
4.16473e-11
7.70868e-11
4.39715e-11
5.10654e-11
4.58241e-11
4.71509e-11
2.4359e-11
5.69121e-13
-6.4646e-13
2.50609e-12
-4.16609e-12
5.39866e-12
-6.95342e-12
8.9686e-12
-8.92023e-12
1.31066e-11
-1.04744e-11
1.78119e-11
-1.19355e-11
2.3139e-11
-1.34732e-11
2.91691e-11
-1.51704e-11
3.59963e-11
-1.70705e-11
4.37199e-11
-1.91943e-11
5.24357e-11
-2.15399e-11
6.2227e-11
-2.408e-11
7.31537e-11
-2.67593e-11
8.5242e-11
-2.94961e-11
9.84748e-11
-3.21863e-11
1.12785e-10
-3.47109e-11
1.28054e-10
-3.69454e-11
1.44109e-10
-3.87704e-11
1.60736e-10
-4.00848e-11
1.77688e-10
-4.0816e-11
1.947e-10
-4.09296e-11
2.11509e-10
-4.04329e-11
2.2787e-10
-3.93732e-11
2.43571e-10
-3.78324e-11
2.58442e-10
-3.59181e-11
2.72363e-10
-3.37515e-11
2.85268e-10
-3.14462e-11
2.97127e-10
-2.90753e-11
3.07915e-10
-2.66206e-11
3.17543e-10
-2.39276e-11
3.25787e-10
-2.06998e-11
3.3228e-10
-1.6655e-11
3.36619e-10
-1.17078e-11
3.38477e-10
-6.01602e-12
3.37651e-10
1.67107e-13
3.34032e-10
6.61588e-12
3.27572e-10
1.31808e-11
3.1825e-10
1.97868e-11
3.0605e-10
2.64087e-11
2.9096e-10
3.30391e-11
2.72977e-10
3.96616e-11
2.52121e-10
4.62342e-11
2.2845e-10
5.26833e-11
2.02069e-10
5.89061e-11
1.73142e-10
6.4778e-11
1.41896e-10
7.01632e-11
1.08619e-10
7.49249e-11
7.36552e-11
7.89346e-11
3.74002e-11
8.20785e-11
8.42631e-11
2.87459e-13
7.07176e-13
-1.35335e-12
2.91856e-12
-6.37768e-12
6.15313e-12
-1.01865e-11
1.01031e-11
-1.28689e-11
1.46648e-11
-1.50358e-11
1.9861e-11
-1.71319e-11
2.57772e-11
-1.93899e-11
3.25287e-11
-2.19226e-11
4.02448e-11
-2.47878e-11
4.90588e-11
-2.80099e-11
5.90983e-11
-3.1581e-11
7.04737e-11
-3.54565e-11
8.32658e-11
-3.95516e-11
9.75124e-11
-4.37424e-11
1.13198e-10
-4.78712e-11
1.30243e-10
-5.17564e-11
1.48503e-10
-5.5206e-11
1.67767e-10
-5.80344e-11
1.87764e-10
-6.00821e-11
2.08181e-10
-6.12334e-11
2.28683e-10
-6.14309e-11
2.48931e-10
-6.06817e-11
2.68611e-10
-5.90535e-11
2.87444e-10
-5.66664e-11
3.05207e-10
-5.36816e-11
3.21743e-10
-5.02885e-11
3.36977e-10
-4.66801e-11
3.50906e-10
-4.30052e-11
3.63564e-10
-3.92787e-11
3.74912e-10
-3.52766e-11
3.84678e-10
-3.04653e-11
3.92333e-10
-2.43098e-11
3.9728e-10
-1.66535e-11
3.9908e-10
-7.81551e-12
3.97497e-10
1.74999e-12
3.92431e-10
1.1681e-11
3.83849e-10
2.17622e-11
3.71732e-10
3.19027e-11
3.56056e-10
4.20837e-11
3.36791e-10
5.23037e-11
3.13914e-10
6.25374e-11
2.87437e-10
7.27123e-11
2.57419e-10
8.27027e-11
2.2399e-10
9.23366e-11
1.8736e-10
1.01409e-10
1.47823e-10
1.09701e-10
1.05755e-10
1.16993e-10
6.16058e-11
1.23083e-10
1.58889e-11
1.27795e-10
1.30986e-10
-3.08338e-11
7.75331e-13
-2.1261e-12
3.1022e-12
-8.7044e-12
6.45925e-12
-1.35432e-11
1.05273e-11
-1.69363e-11
1.52153e-11
-1.97231e-11
2.05723e-11
-2.24884e-11
2.67182e-11
-2.55357e-11
3.38069e-11
-2.90117e-11
4.20074e-11
-3.29893e-11
5.14926e-11
-3.74961e-11
6.24269e-11
-4.25162e-11
7.49536e-11
-4.79833e-11
8.91794e-11
-5.3777e-11
1.0516e-10
-5.97223e-11
1.22885e-10
-6.55963e-11
1.42268e-10
-7.11405e-11
1.6314e-10
-7.6079e-11
1.85247e-10
-8.01424e-11
2.08261e-10
-8.30962e-11
2.31795e-10
-8.47683e-11
2.55435e-10
-8.50712e-11
2.78763e-10
-8.4011e-11
3.01388e-10
-8.16794e-11
3.22961e-10
-7.82408e-11
3.43199e-10
-7.39195e-11
3.61903e-10
-6.8992e-11
3.78991e-10
-6.37683e-11
3.94523e-10
-5.85373e-11
4.08663e-10
-5.3419e-11
4.21527e-10
-4.81408e-11
4.32816e-10
-4.17536e-11
4.4175e-10
-3.3243e-11
4.47421e-10
-2.23245e-11
4.49258e-10
-9.65268e-12
4.47035e-10
3.97231e-12
4.40707e-10
1.80076e-11
4.30284e-10
3.2184e-11
4.15763e-10
4.6424e-11
3.97101e-10
6.07445e-11
3.74236e-10
7.51688e-11
3.47107e-10
8.96667e-11
3.15694e-10
1.04127e-10
2.80044e-10
1.18353e-10
2.40301e-10
1.32081e-10
1.96712e-10
1.44999e-10
1.49635e-10
1.56778e-10
9.95311e-11
1.67096e-10
4.69564e-11
1.75657e-10
-7.45775e-12
1.82209e-10
1.86549e-10
-6.30213e-11
7.86675e-13
-2.91098e-12
3.08481e-12
-1.10014e-11
6.35612e-12
-1.68139e-11
1.02871e-11
-2.08665e-11
1.4809e-11
-2.4244e-11
2.00043e-11
-2.76827e-11
2.6033e-11
-3.15638e-11
3.30925e-11
-3.60713e-11
4.13977e-11
-4.12949e-11
5.11665e-11
-4.72655e-11
6.26071e-11
-5.39569e-11
7.59022e-11
-6.1278e-11
9.11922e-11
-6.90665e-11
1.08557e-10
-7.70876e-11
1.28e-10
-8.50406e-11
1.49432e-10
-9.25739e-11
1.7266e-10
-9.93084e-11
1.97386e-10
-1.04869e-10
2.23215e-10
-1.08926e-10
2.49677e-10
-1.11232e-10
2.76267e-10
-1.11663e-10
3.0248e-10
-1.10226e-10
3.27843e-10
-1.07044e-10
3.51932e-10
-1.0233e-10
3.74388e-10
-9.63756e-11
3.94954e-10
-8.95563e-11
4.13526e-10
-8.23401e-11
4.30246e-10
-7.52577e-11
4.45515e-10
-6.86881e-11
4.59803e-10
-6.24288e-11
4.72835e-10
-5.47858e-11
4.83408e-10
-4.3815e-11
4.90078e-10
-2.89949e-11
4.9213e-10
-1.17058e-11
4.89448e-10
6.65374e-12
4.8212e-10
2.53345e-11
4.70237e-10
4.40665e-11
4.53813e-10
6.28482e-11
4.32774e-10
8.17832e-11
4.06996e-10
1.00948e-10
3.76348e-10
1.20314e-10
3.40755e-10
1.3972e-10
3.00233e-10
1.58876e-10
2.54921e-10
1.77394e-10
2.05098e-10
1.94823e-10
1.51181e-10
2.10694e-10
9.37213e-11
2.24555e-10
3.3381e-11
2.35997e-10
-2.90866e-11
2.44676e-10
2.50323e-10
-9.28603e-11
7.44663e-13
-3.65502e-12
2.8703e-12
-1.31255e-11
5.84523e-12
-1.97876e-11
9.37823e-12
-2.43982e-11
1.3435e-11
-2.82995e-11
1.81404e-11
-3.23873e-11
2.37019e-11
-3.71249e-11
3.03672e-11
-4.27368e-11
3.84031e-11
-4.93311e-11
4.80796e-11
-5.69421e-11
5.96557e-11
-6.55328e-11
7.33618e-11
-7.49841e-11
8.93809e-11
-8.50862e-11
1.07828e-10
-9.55355e-11
1.28726e-10
-1.05941e-10
1.51991e-10
-1.1584e-10
1.77408e-10
-1.24726e-10
2.0463e-10
-1.32093e-10
2.33186e-10
-1.37483e-10
2.62509e-10
-1.40556e-10
2.91986e-10
-1.41141e-10
3.21018e-10
-1.39259e-10
3.4905e-10
-1.35076e-10
3.75582e-10
-1.28861e-10
4.00167e-10
-1.2096e-10
4.22444e-10
-1.11833e-10
4.42234e-10
-1.0213e-10
4.59736e-10
-9.27604e-11
4.7571e-10
-8.46634e-11
4.91373e-10
-7.80921e-11
5.06608e-10
-7.00205e-11
5.19449e-10
-5.66561e-11
5.27481e-10
-3.70274e-11
5.29899e-10
-1.41246e-11
5.26914e-10
9.63783e-12
5.1887e-10
3.33789e-11
5.05969e-10
5.6968e-11
4.88231e-10
8.05863e-11
4.65517e-10
1.04498e-10
4.37595e-10
1.2887e-10
4.04228e-10
1.53681e-10
3.65247e-10
1.78701e-10
3.20611e-10
2.03513e-10
2.7044e-10
2.27564e-10
2.15039e-10
2.50224e-10
1.54885e-10
2.70846e-10
9.06218e-11
2.88818e-10
2.30264e-11
3.03593e-10
-4.70181e-11
3.14721e-10
3.21857e-10
-1.18552e-10
6.49341e-13
-4.30403e-12
2.45793e-12
-1.49322e-11
4.92367e-12
-2.22516e-11
7.79408e-12
-2.72672e-11
1.10824e-11
-3.15869e-11
1.49661e-11
-3.62708e-11
1.97082e-11
-4.18673e-11
2.56139e-11
-4.86429e-11
3.30084e-11
-5.67257e-11
4.22208e-11
-6.61546e-11
5.35687e-11
-7.68811e-11
6.73399e-11
-8.87562e-11
8.37704e-11
-1.01518e-10
1.0302e-10
-1.14787e-10
1.25145e-10
-1.28068e-10
1.50072e-10
-1.40767e-10
1.7757e-10
-1.52224e-10
2.07239e-10
-1.61762e-10
2.38517e-10
-1.68762e-10
2.70716e-10
-1.72756e-10
3.03099e-10
-1.73525e-10
3.34971e-10
-1.71132e-10
3.65711e-10
-1.65816e-10
3.9476e-10
-1.57909e-10
4.21577e-10
-1.47777e-10
4.45643e-10
-1.35899e-10
4.66564e-10
-1.23051e-10
4.8445e-10
-1.10648e-10
5.00514e-10
-1.00728e-10
5.17436e-10
-9.50148e-11
5.35606e-10
-8.81903e-11
5.51676e-10
-7.27264e-11
5.61394e-10
-4.67463e-11
5.64137e-10
-1.68676e-11
5.60898e-10
1.28778e-11
5.52413e-10
4.18636e-11
5.38996e-10
7.03857e-11
5.20627e-10
9.89557e-11
4.97037e-10
1.28088e-10
4.6783e-10
1.58077e-10
4.32603e-10
1.88907e-10
3.91053e-10
2.2025e-10
3.43052e-10
2.51515e-10
2.88686e-10
2.81929e-10
2.28277e-10
3.10631e-10
1.62373e-10
3.3675e-10
9.17162e-11
3.59474e-10
1.72132e-11
3.78096e-10
-6.01103e-11
3.92045e-10
4.00891e-10
-1.39144e-10
5.00239e-13
-4.8036e-12
1.84969e-12
-1.62794e-11
3.59685e-12
-2.39969e-11
5.54376e-12
-2.9213e-11
7.76399e-12
-3.3807e-11
1.04981e-11
-3.90054e-11
1.40726e-11
-4.54423e-11
1.88568e-11
-5.34275e-11
2.52408e-11
-6.31099e-11
3.36198e-11
-7.45341e-11
4.43786e-11
-8.76408e-11
5.78715e-11
-1.02251e-10
7.43994e-11
-1.18048e-10
9.41803e-11
-1.34569e-10
1.17316e-10
-1.51204e-10
1.43756e-10
-1.67207e-10
1.73259e-10
-1.81727e-10
2.0537e-10
-1.93873e-10
2.39415e-10
-2.02808e-10
2.74552e-10
-2.07893e-10
3.09891e-10
-2.08864e-10
3.44654e-10
-2.05895e-10
3.78199e-10
-1.99361e-10
4.09972e-10
-1.89682e-10
4.39373e-10
-1.77178e-10
4.6567e-10
-1.62197e-10
4.88038e-10
-1.4542e-10
5.06076e-10
-1.28687e-10
5.21277e-10
-1.15929e-10
5.39134e-10
-1.12872e-10
5.61217e-10
-1.10273e-10
5.81871e-10
-9.33799e-11
5.93285e-10
-5.81599e-11
5.95884e-10
-1.9466e-11
5.92268e-10
1.64946e-11
5.83652e-10
5.04798e-11
5.70327e-10
8.37117e-11
5.52134e-10
1.17148e-10
5.28591e-10
1.5163e-10
4.99059e-10
1.87609e-10
4.62904e-10
2.25062e-10
4.1964e-10
2.63515e-10
3.69014e-10
3.0214e-10
3.11066e-10
3.39877e-10
2.46136e-10
3.75561e-10
1.74846e-10
4.08039e-10
9.80621e-11
4.36258e-10
1.68352e-11
4.59323e-10
-6.76463e-11
4.76526e-10
4.87349e-10
-1.54105e-10
2.97842e-13
-5.10032e-12
1.05239e-12
-1.70315e-11
1.88125e-12
-2.48241e-11
2.65525e-12
-2.99865e-11
3.52016e-12
-3.46722e-11
4.78882e-12
-4.02746e-11
6.8583e-12
-4.7512e-11
1.0168e-11
-5.6737e-11
1.51788e-11
-6.81205e-11
2.23583e-11
-8.17141e-11
3.21662e-11
-9.74496e-11
4.50337e-11
-1.15119e-10
6.1338e-11
-1.34353e-10
8.13702e-11
-1.54601e-10
1.05294e-10
-1.75127e-10
1.33098e-10
-1.9501e-10
1.6454e-10
-2.13168e-10
1.99103e-10
-2.28434e-10
2.35978e-10
-2.39683e-10
2.74112e-10
-2.46026e-10
3.12413e-10
-2.47165e-10
3.50058e-10
-2.4354e-10
3.86476e-10
-2.3578e-10
4.21259e-10
-2.24466e-10
4.53878e-10
-2.09797e-10
4.8343e-10
-1.91749e-10
5.08376e-10
-1.70367e-10
5.27134e-10
-1.47446e-10
5.40032e-10
-1.28828e-10
5.58256e-10
-1.31095e-10
5.85062e-10
-1.37078e-10
6.1199e-10
-1.20306e-10
6.24214e-10
-7.03829e-11
6.25475e-10
-2.07264e-11
6.21273e-10
2.06973e-11
6.13052e-10
5.87013e-11
6.00627e-10
9.61366e-11
5.83589e-10
1.34186e-10
5.61163e-10
1.74055e-10
5.32386e-10
2.16386e-10
4.96323e-10
2.61125e-10
4.52242e-10
3.07596e-10
3.99733e-10
3.54649e-10
3.38768e-10
4.00841e-10
2.69712e-10
4.44616e-10
1.93282e-10
4.84468e-10
1.10488e-10
5.19052e-10
2.25574e-11
5.47254e-10
-6.91339e-11
5.68217e-10
5.81335e-10
-1.6312e-10
4.45414e-14
-5.14344e-12
7.80607e-14
-1.70623e-11
-1.95926e-13
-2.45486e-11
-8.25551e-13
-2.93564e-11
-1.58293e-12
-3.39148e-11
-2.07612e-12
-3.97811e-11
-1.83129e-12
-4.7756e-11
-3.34453e-13
-5.82328e-11
2.95038e-12
-7.14046e-11
8.56893e-12
-8.73325e-11
1.70624e-11
-1.05943e-10
2.89479e-11
-1.27005e-10
4.46922e-11
-1.50097e-10
6.46758e-11
-1.74584e-10
8.91444e-11
-1.99595e-10
1.18144e-10
-2.24008e-10
1.51442e-10
-2.46466e-10
1.88455e-10
-2.65447e-10
2.28208e-10
-2.79435e-10
2.69335e-10
-2.87152e-10
3.10455e-10
-2.88286e-10
3.5077e-10
-2.83856e-10
3.89939e-10
-2.74949e-10
4.27949e-10
-2.62477e-10
4.646e-10
-2.46448e-10
4.99156e-10
-2.26305e-10
5.29349e-10
-2.0056e-10
5.51365e-10
-1.69463e-10
5.61876e-10
-1.39339e-10
5.77709e-10
-1.46927e-10
6.0983e-10
-1.69197e-10
6.43784e-10
-1.5426e-10
6.5384e-10
-8.04378e-11
6.51704e-10
-1.85899e-11
6.47542e-10
2.48593e-11
6.40913e-10
6.53297e-11
6.3046e-10
1.0659e-10
6.15709e-10
1.48937e-10
5.95607e-10
1.94157e-10
5.68787e-10
2.43206e-10
5.33926e-10
2.95987e-10
4.8998e-10
3.51544e-10
4.36329e-10
4.083e-10
3.72865e-10
4.64304e-10
2.99985e-10
5.17496e-10
2.18529e-10
5.65922e-10
1.29691e-10
6.0789e-10
3.49115e-11
6.42034e-10
-6.42128e-11
6.67341e-10
6.83122e-10
-1.66001e-10
-2.56054e-13
-4.88576e-12
-1.0554e-12
-1.62601e-11
-2.59678e-12
-2.30056e-11
-4.83626e-12
-2.7116e-11
-7.45665e-12
-3.12935e-11
-9.98077e-12
-3.72555e-11
-1.18554e-11
-4.58794e-11
-1.24891e-11
-5.75972e-11
-1.12678e-11
-7.26245e-11
-7.56428e-12
-9.10351e-11
-7.50303e-13
-1.12757e-10
9.78582e-12
-1.3754e-10
2.46136e-11
-1.64924e-10
4.42215e-11
-1.94192e-10
6.89591e-11
-2.24333e-10
9.89515e-11
-2.54001e-10
1.33989e-10
-2.81504e-10
1.73413e-10
-3.04871e-10
2.16042e-10
-3.22064e-10
2.60031e-10
-3.31142e-10
3.03523e-10
-3.31778e-10
3.45894e-10
-3.26229e-10
3.87243e-10
-3.16298e-10
4.28351e-10
-3.03585e-10
4.69663e-10
-2.8776e-10
5.1116e-10
-2.67803e-10
5.51638e-10
-2.41039e-10
5.8238e-10
-2.00205e-10
5.99562e-10
-1.5652e-10
6.02557e-10
-1.4992e-10
6.3853e-10
-2.05169e-10
6.74335e-10
-1.90064e-10
6.76029e-10
-8.21318e-11
6.70809e-10
-1.33693e-11
6.71322e-10
2.4346e-11
6.68051e-10
6.86008e-11
6.60636e-10
1.14004e-10
6.49296e-10
1.60277e-10
6.32764e-10
2.1069e-10
6.09185e-10
2.66785e-10
5.76732e-10
3.28441e-10
5.33929e-10
3.94346e-10
4.79883e-10
4.62345e-10
4.1438e-10
5.29806e-10
3.3787e-10
5.94004e-10
2.51363e-10
6.52429e-10
1.56285e-10
7.02967e-10
5.43397e-11
7.43978e-10
-5.26103e-11
7.7429e-10
7.93148e-10
-1.62638e-10
-5.97799e-13
-4.28615e-12
-2.32582e-12
-1.45292e-11
-5.27312e-12
-2.00563e-11
-9.29738e-12
-2.30901e-11
-1.39868e-11
-2.66021e-11
-1.87769e-11
-3.24629e-11
-2.30337e-11
-4.16203e-11
-2.60878e-11
-5.45409e-11
-2.7247e-11
-7.14637e-11
-2.58009e-11
-9.24797e-11
-2.10303e-11
-1.17526e-10
-1.22205e-11
-1.4635e-10
1.31451e-12
-1.78459e-10
2.01918e-11
-2.1307e-10
4.48903e-11
-2.49033e-10
7.56369e-11
-2.84748e-10
1.12251e-10
-3.18118e-10
1.53985e-10
-3.46605e-10
1.99434e-10
-3.67514e-10
2.45958e-10
-3.77667e-10
2.90836e-10
-3.76657e-10
3.34025e-10
-3.69418e-10
3.76252e-10
-3.58525e-10
4.19672e-10
-3.47003e-10
4.65577e-10
-3.33666e-10
5.143e-10
-3.16526e-10
5.68488e-10
-2.95228e-10
6.209e-10
-2.52617e-10
6.52311e-10
-1.8793e-10
6.77052e-10
-1.7466e-10
6.50647e-10
-1.78764e-10
6.89292e-10
-2.28708e-10
6.77378e-10
-7.02179e-11
6.90107e-10
-2.60988e-11
6.95825e-10
1.86278e-11
6.96574e-10
6.78519e-11
6.9243e-10
1.18148e-10
6.85291e-10
1.67414e-10
6.73497e-10
2.22484e-10
6.54489e-10
2.85792e-10
6.25737e-10
3.57192e-10
5.8516e-10
4.34924e-10
5.31468e-10
5.16036e-10
4.64317e-10
5.96955e-10
3.84248e-10
6.74073e-10
2.92502e-10
7.44175e-10
1.90814e-10
8.04656e-10
8.12143e-11
8.53577e-10
-3.41193e-11
8.89624e-10
9.12005e-10
-1.52976e-10
-9.72516e-13
-3.31177e-12
-3.70324e-12
-1.17958e-11
-8.16544e-12
-1.55921e-11
-1.4112e-11
-1.71415e-11
-2.1035e-11
-1.9677e-11
-2.82831e-11
-2.52127e-11
-3.51432e-11
-3.47581e-11
-4.08715e-11
-4.8811e-11
-4.46993e-11
-6.76343e-11
-4.58349e-11
-9.13429e-11
-4.34654e-11
-1.19895e-10
-3.67657e-11
-1.5305e-10
-2.49172e-11
-1.90309e-10
-7.14912e-12
-2.3084e-10
1.7178e-11
-2.73361e-10
4.84166e-11
-3.15987e-10
8.64061e-11
-3.56108e-10
1.30273e-10
-3.90473e-10
1.78438e-10
-4.15681e-10
2.26907e-10
-4.26138e-10
2.71274e-10
-4.21025e-10
3.13332e-10
-4.11476e-10
3.54371e-10
-3.99563e-10
3.98493e-10
-3.91126e-10
4.47845e-10
-3.83018e-10
5.01466e-10
-3.70148e-10
5.63361e-10
-3.57124e-10
6.44233e-10
-3.33489e-10
7.00094e-10
-2.43791e-10
7.47368e-10
-2.21934e-10
7.53958e-10
-1.85354e-10
7.1663e-10
-1.91381e-10
6.97237e-10
-5.08242e-11
7.19554e-10
-4.84158e-11
7.26531e-10
1.16501e-11
7.28597e-10
6.57849e-11
7.2677e-10
1.19974e-10
7.24325e-10
1.69859e-10
7.18436e-10
2.28372e-10
7.05492e-10
2.98736e-10
6.81935e-10
3.80748e-10
6.44768e-10
4.7209e-10
5.92174e-10
5.6863e-10
5.23673e-10
6.65455e-10
4.39959e-10
7.57786e-10
3.42608e-10
8.41528e-10
2.33755e-10
9.1351e-10
1.1584e-10
9.71493e-10
-8.58922e-12
1.01405e-09
1.04041e-09
-1.36998e-10
-1.37123e-12
-1.93884e-12
-5.15377e-12
-8.01113e-12
-1.12026e-11
-9.54139e-12
-1.91638e-11
-9.17869e-12
-2.84339e-11
-1.04054e-11
-3.8279e-11
-1.53664e-11
-4.79127e-11
-2.51235e-11
-5.65224e-11
-4.02005e-11
-6.32699e-11
-6.08861e-11
-6.72854e-11
-8.73269e-11
-6.76632e-11
-1.19518e-10
-6.34615e-11
-1.57253e-10
-5.37126e-11
-2.0006e-10
-3.74584e-11
-2.47096e-10
-1.38463e-11
-2.96974e-10
1.76507e-11
-3.47485e-10
5.68405e-11
-3.95298e-10
1.02522e-10
-4.36155e-10
1.53191e-10
-4.66351e-10
2.02696e-10
-4.75644e-10
2.42945e-10
-4.61274e-10
2.81392e-10
-4.49923e-10
3.19306e-10
-4.37478e-10
3.62309e-10
-4.34129e-10
4.13577e-10
-4.34287e-10
4.69695e-10
-4.26268e-10
5.29031e-10
-4.16461e-10
5.86704e-10
-3.91162e-10
7.44464e-10
-4.01552e-10
7.54863e-10
-2.32333e-10
7.18225e-10
-1.48717e-10
6.43719e-10
-1.16874e-10
7.4543e-10
-1.52536e-10
7.48264e-10
-5.125e-11
7.58237e-10
1.6763e-12
7.60359e-10
6.36619e-11
7.61297e-10
1.19035e-10
7.66052e-10
1.65102e-10
7.6772e-10
2.26704e-10
7.62848e-10
3.03607e-10
7.46352e-10
3.97243e-10
7.13927e-10
5.04514e-10
6.63129e-10
6.19427e-10
5.9342e-10
7.35166e-10
5.05782e-10
8.45424e-10
4.02255e-10
9.45056e-10
2.85496e-10
1.03027e-09
1.58442e-10
1.09855e-09
2.40751e-11
1.14842e-09
1.1792e-09
-1.14713e-10
-1.78283e-12
-1.54729e-13
-6.63679e-12
-3.15563e-12
-1.43007e-11
-1.87627e-12
-2.43147e-11
8.36188e-13
-3.59849e-11
1.26531e-12
-4.85023e-11
-2.84885e-12
-6.10168e-11
-1.26089e-11
-7.26577e-11
-2.85593e-11
-8.25272e-11
-5.10163e-11
-8.96868e-11
-8.01675e-11
-9.31433e-11
-1.16062e-10
-9.18374e-11
-1.5856e-10
-8.4638e-11
-2.07261e-10
-7.03591e-11
-2.61375e-10
-4.7842e-11
-3.19491e-10
-1.62145e-11
-3.79112e-10
2.44132e-11
-4.35926e-10
7.17812e-11
-4.83524e-10
1.24531e-10
-5.19101e-10
1.71785e-10
-5.22899e-10
2.01671e-10
-4.91159e-10
2.34258e-10
-4.82511e-10
2.67841e-10
-4.71061e-10
3.11803e-10
-4.78092e-10
3.69635e-10
-4.92121e-10
4.2613e-10
-4.82763e-10
4.87726e-10
-4.78059e-10
5.66446e-10
-4.69884e-10
5.97004e-10
-4.32111e-10
6.5138e-10
-2.86709e-10
7.15149e-10
-2.12486e-10
7.22295e-10
-1.24021e-10
7.33834e-10
-1.64076e-10
7.73648e-10
-9.10646e-11
7.77566e-10
-2.24231e-12
7.86695e-10
5.45323e-11
8.01541e-10
1.04189e-10
8.12479e-10
1.54163e-10
8.2289e-10
2.16292e-10
8.28147e-10
2.9835e-10
8.20573e-10
4.04817e-10
7.94069e-10
5.31019e-10
7.45515e-10
6.67981e-10
6.74462e-10
8.0622e-10
5.82366e-10
9.37522e-10
4.71879e-10
1.05554e-09
3.46299e-10
1.15585e-09
2.09149e-10
1.2357e-09
6.39049e-11
1.29366e-09
1.32926e-09
-8.61499e-11
-2.19407e-12
2.04016e-12
-8.1052e-12
2.7566e-12
-1.7362e-11
7.38125e-12
-2.94041e-11
1.28786e-11
-4.34561e-11
1.53172e-11
-5.86453e-11
1.23403e-11
-7.4072e-11
2.81797e-12
-8.88225e-11
-1.38085e-11
-1.01955e-10
-3.78835e-11
-1.12479e-10
-6.96444e-11
-1.19329e-10
-1.09213e-10
-1.21341e-10
-1.56549e-10
-1.17225e-10
-2.11377e-10
-1.05544e-10
-2.73057e-10
-8.47304e-11
-3.40305e-10
-5.32369e-11
-4.10606e-10
-1.0183e-11
-4.7898e-10
4.258e-11
-5.36287e-10
9.86854e-11
-5.75206e-10
1.37e-10
-5.61213e-10
1.42786e-10
-4.96946e-10
1.65375e-10
-5.051e-10
1.95851e-10
-5.01537e-10
2.52042e-10
-5.34284e-10
3.1004e-10
-5.5012e-10
3.77462e-10
-5.50186e-10
4.42139e-10
-5.42738e-10
5.04433e-10
-5.32179e-10
5.60614e-10
-4.88293e-10
6.64779e-10
-3.90875e-10
7.45024e-10
-2.92731e-10
8.41359e-10
-2.20356e-10
8.5957e-10
-1.82287e-10
8.745e-10
-1.05996e-10
8.83441e-10
-1.11829e-11
8.76285e-10
6.16882e-11
8.65753e-10
1.14719e-10
8.7179e-10
1.48125e-10
8.88202e-10
1.99879e-10
9.04058e-10
2.82494e-10
9.06598e-10
4.02277e-10
8.8665e-10
5.50967e-10
8.40306e-10
7.14325e-10
7.67408e-10
8.79118e-10
6.70068e-10
1.03486e-09
5.51671e-10
1.17394e-09
4.16237e-10
1.29128e-09
2.67955e-10
1.38398e-09
1.10855e-10
1.45076e-09
1.49147e-09
-5.13611e-11
-2.58968e-12
4.63039e-12
-9.50543e-12
9.67333e-12
-2.02757e-11
1.81521e-11
-3.42497e-11
2.6853e-11
-5.05831e-11
3.1651e-11
-6.83555e-11
3.01133e-11
-8.66353e-11
2.10985e-11
-1.04486e-10
4.04284e-12
-1.20945e-10
-2.14247e-11
-1.34993e-10
-5.5597e-11
-1.45523e-10
-9.86835e-11
-1.51306e-10
-1.50766e-10
-1.50946e-10
-2.11737e-10
-1.42821e-10
-2.81183e-10
-1.2503e-10
-3.58097e-10
-9.53226e-11
-4.40314e-10
-5.0692e-11
-5.23611e-10
8.78943e-12
-5.95769e-10
7.96676e-11
-6.46085e-10
1.39065e-10
-6.20611e-10
3.36836e-11
-3.91565e-10
5.48586e-11
-5.26275e-10
1.29015e-10
-5.75693e-10
2.00953e-10
-6.06222e-10
2.64822e-10
-6.13988e-10
3.32244e-10
-6.17609e-10
4.03823e-10
-6.14319e-10
4.78842e-10
-6.07198e-10
5.63746e-10
-5.73197e-10
6.75204e-10
-5.02334e-10
8.00978e-10
-4.18507e-10
9.06612e-10
-3.25992e-10
9.61572e-10
-2.37248e-10
9.82652e-10
-1.27075e-10
9.78164e-10
-6.69474e-12
9.55683e-10
8.41689e-11
9.28555e-10
1.41847e-10
9.3402e-10
1.4266e-10
9.5941e-10
1.74489e-10
9.8983e-10
2.52074e-10
1.00484e-09
3.87266e-10
9.92066e-10
5.63741e-10
9.47592e-10
7.58799e-10
8.7214e-10
9.54571e-10
7.68698e-10
1.13831e-09
6.41437e-10
1.3012e-09
4.95134e-10
1.43759e-09
3.34699e-10
1.54441e-09
1.64793e-10
1.62067e-09
1.66669e-09
-1.04214e-11
-2.9524e-12
7.58338e-12
-1.07783e-11
1.75002e-11
-2.292e-11
3.02946e-11
-3.86509e-11
4.25849e-11
-5.70743e-11
5.00758e-11
-7.72409e-11
5.02815e-11
-9.82085e-11
4.20674e-11
-1.19042e-10
2.48772e-11
-1.38787e-10
-1.67991e-12
-1.5643e-10
-3.7954e-11
-1.70865e-10
-8.4249e-11
-1.80852e-10
-1.40779e-10
-1.84973e-10
-2.07618e-10
-1.81557e-10
-2.84601e-10
-1.6862e-10
-3.71035e-10
-1.44039e-10
-4.64897e-10
-1.05262e-10
-5.62389e-10
-4.39839e-11
-6.57048e-10
3.14581e-11
-7.21528e-10
3.2561e-11
-6.21715e-10
4.60773e-11
-4.05081e-10
6.5371e-11
-5.45567e-10
1.14841e-10
-6.25161e-10
1.64525e-10
-6.55906e-10
2.22095e-10
-6.71559e-10
2.89205e-10
-6.84719e-10
3.70213e-10
-6.95327e-10
4.5909e-10
-6.96075e-10
5.64818e-10
-6.78925e-10
6.9648e-10
-6.33997e-10
8.42365e-10
-5.64393e-10
9.70959e-10
-4.54586e-10
1.05166e-09
-3.17945e-10
1.09155e-09
-1.66972e-10
1.07882e-09
6.04108e-12
1.03258e-09
1.30401e-10
9.83909e-10
1.90522e-10
9.94928e-10
1.31641e-10
1.03532e-09
1.34099e-10
1.08553e-09
2.0186e-10
1.11536e-09
3.57435e-10
1.10965e-09
5.69451e-10
1.0662e-09
8.02247e-10
9.87488e-10
1.03329e-09
8.77348e-10
1.24844e-09
7.40545e-10
1.438e-09
5.82558e-10
1.59557e-09
4.09089e-10
1.71788e-09
2.25527e-10
1.80423e-09
1.85562e-09
3.65948e-11
-3.26372e-12
1.08478e-11
-1.18611e-11
2.60987e-11
-2.51668e-11
4.36013e-11
-4.23966e-11
5.98163e-11
-6.26207e-11
7.03017e-11
-8.48812e-11
7.25439e-11
-1.08249e-10
6.54362e-11
-1.31818e-10
4.84469e-11
-1.54675e-10
2.11778e-11
-1.75859e-10
-1.67711e-11
-1.94309e-10
-6.57999e-11
-2.0882e-10
-1.2627e-10
-2.17962e-10
-1.98479e-10
-2.19969e-10
-2.82597e-10
-2.12523e-10
-3.78482e-10
-1.92381e-10
-4.8504e-10
-1.56708e-10
-5.98062e-10
-1.01001e-10
-7.12757e-10
3.89934e-13
-8.2292e-10
5.66544e-11
-6.7798e-10
-4.71777e-12
-3.43708e-10
1.57529e-11
-5.66036e-10
7.58778e-11
-6.85285e-10
1.15957e-10
-6.95984e-10
1.65478e-10
-7.2108e-10
2.31611e-10
-7.50853e-10
3.19573e-10
-7.83289e-10
4.24951e-10
-8.01453e-10
5.46041e-10
-8.00017e-10
6.98492e-10
-7.8645e-10
8.68782e-10
-7.34684e-10
1.02605e-09
-6.11857e-10
1.13329e-09
-4.25186e-10
1.20185e-09
-2.35528e-10
1.1974e-09
1.04915e-11
1.11427e-09
2.13529e-10
1.03867e-09
2.66125e-10
1.0629e-09
1.07413e-10
1.12039e-09
7.66104e-11
1.19175e-09
1.30491e-10
1.23753e-09
3.11654e-10
1.23656e-09
5.70424e-10
1.19283e-09
8.45972e-10
1.11084e-09
1.11528e-09
9.94344e-10
1.36494e-09
8.48034e-10
1.58431e-09
6.77965e-10
1.76564e-09
4.90813e-10
1.90503e-09
2.92904e-10
2.00214e-09
2.05885e-09
8.96781e-11
-3.50477e-12
1.43534e-11
-1.26921e-11
3.52865e-11
-2.68902e-11
5.78003e-11
-4.52783e-11
7.82059e-11
-6.69133e-11
9.19383e-11
-9.08494e-11
9.64812e-11
-1.16193e-10
9.07804e-11
-1.42098e-10
7.43522e-11
-1.67735e-10
4.6814e-11
-1.92248e-10
7.74106e-12
-2.14713e-10
-4.33375e-11
-2.3407e-10
-1.06916e-10
-2.49029e-10
-1.83522e-10
-2.57913e-10
-2.73715e-10
-2.58404e-10
-3.77991e-10
-2.47354e-10
-4.96091e-10
-2.19685e-10
-6.25732e-10
-1.6828e-10
-7.64164e-10
-1.55514e-10
-8.35687e-10
-8.74048e-11
-7.46088e-10
-6.04041e-11
-3.70708e-10
8.59272e-12
-6.35032e-10
1.83579e-11
-6.95049e-10
4.53479e-11
-7.22974e-10
8.59898e-11
-7.61721e-10
1.52142e-10
-8.17004e-10
2.45152e-10
-8.76298e-10
3.64869e-10
-9.2117e-10
5.02547e-10
-9.37696e-10
6.58432e-10
-9.42335e-10
8.41335e-10
-9.17588e-10
1.04256e-09
-8.13079e-10
1.20801e-09
-5.90635e-10
1.31672e-09
-3.44243e-10
1.30776e-09
1.94549e-11
1.25889e-09
2.62396e-10
1.10416e-09
4.20852e-10
1.17778e-09
3.37957e-11
1.21662e-09
3.77698e-11
1.31192e-09
3.51834e-11
1.36641e-09
2.57169e-10
1.36415e-09
5.72685e-10
1.32052e-09
8.89599e-10
1.23792e-09
1.19788e-09
1.11755e-09
1.4853e-09
9.63065e-10
1.7388e-09
7.81087e-10
1.94762e-09
5.79813e-10
2.10631e-09
3.66999e-10
2.21495e-09
2.27685e-09
1.48995e-10
-3.65861e-12
1.80123e-11
-1.32154e-11
4.48431e-11
-2.79768e-11
7.25619e-11
-4.71071e-11
9.73368e-11
-6.96683e-11
1.145e-10
-9.47439e-11
1.21557e-10
-1.21495e-10
1.17531e-10
-1.4916e-10
1.02016e-10
-1.77028e-10
7.4681e-11
-2.04414e-10
3.51258e-11
-2.30639e-10
-1.7116e-11
-2.54998e-10
-8.256e-11
-2.76758e-10
-1.61764e-10
-2.95189e-10
-2.55285e-10
-3.09675e-10
-3.63505e-10
-3.19719e-10
-4.86047e-10
-3.25724e-10
-6.19729e-10
-3.38499e-10
-7.51389e-10
-3.36978e-10
-8.37208e-10
-3.0674e-10
-7.76326e-10
-7.17382e-11
-6.05709e-10
-6.05432e-11
-6.46227e-10
-5.07907e-11
-7.04801e-10
-5.09107e-11
-7.22853e-10
-2.07509e-11
-7.91881e-10
4.59272e-11
-8.83682e-10
1.42659e-10
-9.73031e-10
2.60096e-10
-1.03861e-09
3.99252e-10
-1.07685e-09
5.51843e-10
-1.09493e-09
7.24396e-10
-1.09014e-09
9.12823e-10
-1.00151e-09
1.09936e-09
-7.77174e-10
1.28559e-09
-5.30473e-10
1.36469e-09
-5.96439e-11
1.34428e-09
2.82804e-10
1.40678e-09
3.58354e-10
1.37376e-09
6.68122e-11
1.32503e-09
8.65051e-11
1.42606e-09
-6.58523e-11
1.46691e-09
2.16318e-10
1.46953e-09
5.70065e-10
1.43728e-09
9.21849e-10
1.36355e-09
1.27161e-09
1.24571e-09
1.60314e-09
1.08605e-09
1.89847e-09
8.92674e-10
2.14099e-09
6.76708e-10
2.32227e-09
4.4834e-10
2.44332e-09
2.51023e-09
2.14964e-10
-3.71179e-12
2.17237e-11
-1.33885e-11
5.45188e-11
-2.83402e-11
8.75132e-11
-4.77367e-11
1.16733e-10
-7.06603e-11
1.37423e-10
-9.62344e-11
1.4713e-10
-1.23683e-10
1.44979e-10
-1.52336e-10
1.30668e-10
-1.81609e-10
1.03953e-10
-2.10998e-10
6.45124e-11
-2.40081e-10
1.19635e-11
-2.68542e-10
-5.41003e-11
-2.96237e-10
-1.3407e-10
-3.23289e-10
-2.28233e-10
-3.5022e-10
-3.36574e-10
-3.78069e-10
-4.58199e-10
-4.08551e-10
-5.89248e-10
-4.40368e-10
-7.19573e-10
-4.28659e-10
-8.48917e-10
-3.53256e-10
-8.51729e-10
-2.04427e-10
-7.54539e-10
-1.8078e-10
-6.69874e-10
-1.77504e-10
-7.08077e-10
-1.90332e-10
-7.10025e-10
-1.51979e-10
-8.30234e-10
-7.46031e-11
-9.61059e-10
2.8914e-11
-1.07655e-09
1.52789e-10
-1.16248e-09
2.76767e-10
-1.20083e-09
4.25045e-10
-1.24321e-09
5.56027e-10
-1.22112e-09
6.88853e-10
-1.13433e-09
8.66724e-10
-9.55044e-10