/*--------------------------------*- C++ -*----------------------------------*\
| =========                 |                                                 |
| \\      /  F ield         | OpenFOAM: The Open Source CFD Toolbox           |
|  \\    /   O peration     | Version:  2.4.0                                 |
|   \\  /    A nd           | Web:      www.OpenFOAM.org                      |
|    \\/     M anipulation  |                                                 |
\*---------------------------------------------------------------------------*/
FoamFile
{
    version     2.0;
    format      ascii;
    class       volVectorField;
    location    "0.181";
    object      U;
}
// * * * * * * * * * * * * * * * * * * * * * * * * * * * * * * * * * * * * * //

dimensions      [0 1 -1 0 0 0 0];

internalField   nonuniform List<vector> 
10000
(
(-1.68356e-06 1.877e-06 0)
(-2.7057e-06 1.26489e-06 0)
(-4.40448e-07 3.41425e-07 0)
(4.65293e-06 -1.98967e-07 0)
(1.16237e-05 -5.2543e-07 0)
(1.98107e-05 -7.68639e-07 0)
(2.90581e-05 -9.81185e-07 0)
(3.93711e-05 -1.18828e-06 0)
(5.08253e-05 -1.40665e-06 0)
(6.35367e-05 -1.64553e-06 0)
(7.76446e-05 -1.90632e-06 0)
(9.32906e-05 -2.18377e-06 0)
(0.000110593 -2.46733e-06 0)
(0.000129625 -2.74323e-06 0)
(0.000150395 -2.99702e-06 0)
(0.000172836 -3.21601e-06 0)
(0.0001968 -3.3911e-06 0)
(0.000222064 -3.51748e-06 0)
(0.000248337 -3.5941e-06 0)
(0.000275271 -3.62288e-06 0)
(0.000302488 -3.60797e-06 0)
(0.000329604 -3.55563e-06 0)
(0.000356252 -3.47449e-06 0)
(0.000382116 -3.3764e-06 0)
(0.000406956 -3.27684e-06 0)
(0.000430618 -3.1939e-06 0)
(0.000453045 -3.1442e-06 0)
(0.000474247 -3.13525e-06 0)
(0.000494243 -3.15519e-06 0)
(0.00051297 -3.16564e-06 0)
(0.000530178 -3.10459e-06 0)
(0.000545391 -2.91523e-06 0)
(0.000557988 -2.57778e-06 0)
(0.000567369 -2.11944e-06 0)
(0.00057309 -1.59327e-06 0)
(0.000574891 -1.04971e-06 0)
(0.000572701 -5.05031e-07 0)
(0.000566552 7.82632e-09 0)
(0.000556497 4.85173e-07 0)
(0.000542595 9.35379e-07 0)
(0.000524881 1.36787e-06 0)
(0.000503377 1.79084e-06 0)
(0.000478109 2.21005e-06 0)
(0.000449132 2.62848e-06 0)
(0.000416545 3.0464e-06 0)
(0.000380512 3.46069e-06 0)
(0.000341264 3.86453e-06 0)
(0.000299111 4.24841e-06 0)
(0.000254443 4.60241e-06 0)
(0.000207724 4.91669e-06 0)
(-1.31258e-06 3.57047e-06 0)
(2.17349e-06 -2.0433e-06 0)
(1.28761e-05 -8.15711e-06 0)
(2.93375e-05 -1.22547e-05 0)
(4.97878e-05 -1.50966e-05 0)
(7.34126e-05 -1.74506e-05 0)
(0.000100118 -1.97152e-05 0)
(0.000130092 -2.20861e-05 0)
(0.000163665 -2.46787e-05 0)
(0.000201249 -2.75615e-05 0)
(0.000243286 -3.07551e-05 0)
(0.000290198 -3.42266e-05 0)
(0.000342329 -3.78904e-05 0)
(0.00039988 -4.16164e-05 0)
(0.000462862 -4.52445e-05 0)
(0.000531047 -4.86022e-05 0)
(0.000603953 -5.15212e-05 0)
(0.000680846 -5.38526e-05 0)
(0.000760768 -5.54784e-05 0)
(0.000842596 -5.63217e-05 0)
(0.000925114 -5.63543e-05 0)
(0.0010071 -5.56026e-05 0)
(0.0010874 -5.4148e-05 0)
(0.00116503 -5.21231e-05 0)
(0.00123922 -4.97012e-05 0)
(0.00130943 -4.7072e-05 0)
(0.00137536 -4.44013e-05 0)
(0.00143689 -4.17696e-05 0)
(0.00149392 -3.91035e-05 0)
(0.00154615 -3.61358e-05 0)
(0.00159283 -3.24469e-05 0)
(0.00163266 -2.76593e-05 0)
(0.00166399 -2.16466e-05 0)
(0.00168522 -1.4591e-05 0)
(0.00169514 -6.84004e-06 0)
(0.00169299 1.25596e-06 0)
(0.00167842 9.46037e-06 0)
(0.00165128 1.76228e-05 0)
(0.00161159 2.57014e-05 0)
(0.00155934 3.37064e-05 0)
(0.00149457 4.16546e-05 0)
(0.00141734 4.95394e-05 0)
(0.00132778 5.73173e-05 0)
(0.00122619 6.49047e-05 0)
(0.00111306 7.21843e-05 0)
(0.000989116 7.90143e-05 0)
(0.000855313 8.52392e-05 0)
(0.000712869 9.07016e-05 0)
(0.000563233 9.52536e-05 0)
(0.000408055 9.87648e-05 0)
(-4.85188e-07 1.64785e-06 0)
(8.69153e-06 -1.36533e-05 0)
(2.76709e-05 -2.7381e-05 0)
(5.39145e-05 -3.69652e-05 0)
(8.53711e-05 -4.41173e-05 0)
(0.000121373 -5.0444e-05 0)
(0.00016205 -5.68092e-05 0)
(0.000207837 -6.36328e-05 0)
(0.000259327 -7.11443e-05 0)
(0.0003172 -7.94686e-05 0)
(0.000382163 -8.86286e-05 0)
(0.000454876 -9.85288e-05 0)
(0.000535876 -0.000108949 0)
(0.000625489 -0.000119556 0)
(0.000723744 -0.00012993 0)
(0.000830313 -0.000139601 0)
(0.000944471 -0.000148093 0)
(0.00106509 -0.000154963 0)
(0.0011907 -0.000159845 0)
(0.00131954 -0.000162485 0)
(0.00144967 -0.000162776 0)
(0.00157913 -0.000160767 0)
(0.00170607 -0.000156664 0)
(0.00182881 -0.00015081 0)
(0.00194603 -0.000143646 0)
(0.00205672 -0.000135652 0)
(0.00216027 -0.000127241 0)
(0.00225635 -0.000118618 0)
(0.00234472 -0.000109606 0)
(0.00242489 -9.95457e-05 0)
(0.00249564 -8.73774e-05 0)
(0.00255483 -7.21485e-05 0)
(0.00259971 -5.35603e-05 0)
(0.00262765 -3.21118e-05 0)
(0.0026367 -8.70523e-06 0)
(0.00262569 1.57716e-05 0)
(0.00259402 4.06648e-05 0)
(0.00254143 6.56201e-05 0)
(0.00246784 9.0503e-05 0)
(0.00237319 0.000115288 0)
(0.00225747 0.000139952 0)
(0.00212077 0.000164396 0)
(0.00196335 0.000188412 0)
(0.00178579 0.00021168 0)
(0.00158901 0.000233788 0)
(0.00137434 0.000254266 0)
(0.00114356 0.000272629 0)
(0.000898859 0.000288402 0)
(0.000642829 0.000301155 0)
(0.000378377 0.000310522 0)
(1.19642e-07 -3.24084e-06 0)
(1.31265e-05 -3.11581e-05 0)
(3.75904e-05 -5.40205e-05 0)
(7.02841e-05 -7.01621e-05 0)
(0.000108929 -8.27266e-05 0)
(0.000153021 -9.43195e-05 0)
(0.000202968 -0.000106333 0)
(0.000259505 -0.000119447 0)
(0.000323533 -0.00013402 0)
(0.000396036 -0.000150231 0)
(0.00047801 -0.000168081 0)
(0.000570375 -0.000187369 0)
(0.000673874 -0.000207676 0)
(0.000788961 -0.000228379 0)
(0.000915703 -0.000248687 0)
(0.00105369 -0.000267704 0)
(0.00120198 -0.000284496 0)
(0.00135912 -0.000298179 0)
(0.00152314 -0.000308007 0)
(0.0016917 -0.000313449 0)
(0.00186219 -0.000314259 0)
(0.00203193 -0.000310499 0)
(0.00219836 -0.000302538 0)
(0.00235915 -0.000291003 0)
(0.00251236 -0.000276716 0)
(0.00265655 -0.000260581 0)
(0.0027908 -0.000243415 0)
(0.00291468 -0.000225682 0)
(0.00302804 -0.000207147 0)
(0.00313051 -0.000186608 0)
(0.00322064 -0.000161958 0)
(0.00329533 -0.000131247 0)
(0.00335043 -9.38821e-05 0)
(0.00338208 -5.09355e-05 0)
(0.00338762 -4.21713e-06 0)
(0.00336558 4.45805e-05 0)
(0.00331527 9.42683e-05 0)
(0.00323641 0.000144218 0)
(0.00312884 0.000194196 0)
(0.00299242 0.000244134 0)
(0.00282704 0.000293924 0)
(0.00263276 0.000343289 0)
(0.00240992 0.000391723 0)
(0.00215931 0.000438501 0)
(0.00188227 0.000482728 0)
(0.00158073 0.000523415 0)
(0.00125729 0.000559554 0)
(0.000915127 0.000590187 0)
(0.000557966 0.00061446 0)
(0.000189979 0.000631654 0)
(4.61899e-07 -9.82324e-06 0)
(1.56867e-05 -5.23188e-05 0)
(4.32712e-05 -8.52218e-05 0)
(7.95835e-05 -0.000108454 0)
(0.000122208 -0.000127031 0)
(0.000170807 -0.000144729 0)
(0.000226078 -0.000163534 0)
(0.000289091 -0.000184408 0)
(0.000361096 -0.000207848 0)
(0.00044343 -0.000234076 0)
(0.000537419 -0.000263045 0)
(0.000644282 -0.000294404 0)
(0.000765002 -0.000327471 0)
(0.000900201 -0.000361249 0)
(0.00105001 -0.000394466 0)
(0.00121397 -0.000425669 0)
(0.00139096 -0.000453327 0)
(0.0015792 -0.000475969 0)
(0.00177623 -0.000492335 0)
(0.00197911 -0.000501518 0)
(0.00218454 -0.000503073 0)
(0.00238911 -0.000497066 0)
(0.00258949 -0.000484053 0)
(0.00278268 -0.000465014 0)
(0.00296615 -0.000441254 0)
(0.00313796 -0.000414267 0)
(0.00329693 -0.000385495 0)
(0.00344271 -0.000355927 0)
(0.00357563 -0.000325443 0)
(0.00369604 -0.000292171 0)
(0.00380266 -0.000252252 0)
(0.00389125 -0.000201952 0)
(0.0039556 -0.000140164 0)
(0.00399016 -6.90515e-05 0)
(0.00399164 8.07883e-06 0)
(0.00395853 8.83906e-05 0)
(0.00389034 0.000170058 0)
(0.00378689 0.000252212 0)
(0.003648 0.000334588 0)
(0.00347337 0.000417119 0)
(0.0032627 0.000499599 0)
(0.00301585 0.000581485 0)
(0.00273314 0.000661831 0)
(0.00241548 0.000739322 0)
(0.00206454 0.000812376 0)
(0.00168285 0.000879276 0)
(0.00127376 0.000938299 0)
(0.000841434 0.000987834 0)
(0.000390724 0.00102646 0)
(-7.29539e-05 0.00105302 0)
(6.40375e-07 -1.73816e-05 0)
(1.69003e-05 -7.54072e-05 0)
(4.56857e-05 -0.000118723 0)
(8.31896e-05 -0.000149197 0)
(0.000126984 -0.000174023 0)
(0.000176944 -0.000198312 0)
(0.000234084 -0.000224719 0)
(0.000299846 -0.000254529 0)
(0.000375877 -0.000288383 0)
(0.000463911 -0.000326539 0)
(0.000565663 -0.000368879 0)
(0.000682699 -0.000414861 0)
(0.000816302 -0.000463478 0)
(0.000967312 -0.000513268 0)
(0.00113598 -0.000562372 0)
(0.00132186 -0.000608638 0)
(0.00152366 -0.000649783 0)
(0.00173926 -0.000683591 0)
(0.00196574 -0.000708139 0)
(0.00219946 -0.000722026 0)
(0.00243636 -0.000724538 0)
(0.0026722 -0.000715732 0)
(0.00290289 -0.000696384 0)
(0.00312468 -0.000667885 0)
(0.00333438 -0.000632132 0)
(0.00352948 -0.000591398 0)
(0.00370852 -0.000548087 0)
(0.00387136 -0.000504188 0)
(0.00401934 -0.000460149 0)
(0.00415455 -0.000413425 0)
(0.00427672 -0.000357134 0)
(0.00438008 -0.000284205 0)
(0.00445502 -0.000192613 0)
(0.00449351 -8.67309e-05 0)
(0.00449185 2.75921e-05 0)
(0.00444909 0.000145953 0)
(0.00436531 0.000265879 0)
(0.00424064 0.000386433 0)
(0.00407487 0.000507524 0)
(0.00386742 0.000629214 0)
(0.00361757 0.000751219 0)
(0.00332485 0.000872652 0)
(0.0029893 0.00099196 0)
(0.00261186 0.00110703 0)
(0.00219443 0.00121535 0)
(0.00174005 0.00131424 0)
(0.00125284 0.00140106 0)
(0.000737933 0.00147335 0)
(0.000201298 0.00152901 0)
(-0.000350406 0.00156633 0)
(6.9274e-07 -2.53196e-05 0)
(1.69835e-05 -9.8908e-05 0)
(4.51866e-05 -0.000152405 0)
(8.1538e-05 -0.000189844 0)
(0.000123744 -0.000220805 0)
(0.000171978 -0.000251866 0)
(0.000227628 -0.000286431 0)
(0.000292561 -0.00032614 0)
(0.000368873 -0.000371798 0)
(0.000458756 -0.000423693 0)
(0.00056437 -0.000481619 0)
(0.000687701 -0.000544802 0)
(0.000830399 -0.000611849 0)
(0.000993601 -0.000680746 0)
(0.00117776 -0.000748916 0)
(0.00138248 -0.000813362 0)
(0.00160636 -0.000870868 0)
(0.00184695 -0.000918277 0)
(0.00210077 -0.000952822 0)
(0.00236341 -0.000972455 0)
(0.00262992 -0.000976125 0)
(0.00289515 -0.000963879 0)
(0.00315416 -0.000936756 0)
(0.00340241 -0.000896622 0)
(0.00363596 -0.000846046 0)
(0.0038516 -0.000788264 0)
(0.00404733 -0.00072706 0)
(0.00422317 -0.000666236 0)
(0.00438195 -0.000607824 0)
(0.00452938 -0.000549101 0)
(0.0046679 -0.000477821 0)
(0.00478946 -0.000380493 0)
(0.00487846 -0.000253407 0)
(0.00492299 -0.000105635 0)
(0.00491975 5.2581e-05 0)
(0.00486942 0.000214853 0)
(0.00477323 0.000378307 0)
(0.00463179 0.000542363 0)
(0.00444477 0.000707484 0)
(0.00421104 0.000874097 0)
(0.0039292 0.0010419 0)
(0.0035981 0.00120956 0)
(0.00321735 0.00137472 0)
(0.00278765 0.00153419 0)
(0.00231109 0.00168425 0)
(0.00179116 0.00182099 0)
(0.00123273 0.00194058 0)
(0.000641917 0.00203957 0)
(2.58631e-05 0.002115 0)
(-0.000607504 0.00216452 0)
(6.35712e-07 -3.31085e-05 0)
(1.59816e-05 -0.000121386 0)
(4.18156e-05 -0.000184167 0)
(7.46252e-05 -0.000227812 0)
(0.000112416 -0.000264428 0)
(0.000155769 -0.000302158 0)
(0.000206524 -0.00034521 0)
(0.000267038 -0.000395617 0)
(0.00033992 -0.000454362 0)
(0.000427882 -0.000521771 0)
(0.000533599 -0.000597531 0)
(0.000659552 -0.000680606 0)
(0.000807849 -0.000769154 0)
(0.000980022 -0.000860516 0)
(0.00117681 -0.000951272 0)
(0.00139797 -0.0010374 0)
(0.00164202 -0.00111455 0)
(0.00190618 -0.00117838 0)
(0.00218633 -0.00122503 0)
(0.00247718 -0.00125161 0)
(0.00277268 -0.00125667 0)
(0.00306667 -0.00124029 0)
(0.00335332 -0.00120386 0)
(0.00362734 -0.00114976 0)
(0.00388399 -0.00108124 0)
(0.00411909 -0.00100253 0)
(0.00432955 -0.000919201 0)
(0.00451493 -0.000838089 0)
(0.00467969 -0.000764905 0)
(0.00483626 -0.000698755 0)
(0.00499341 -0.000617742 0)
(0.00513964 -0.000495786 0)
(0.00524815 -0.000325992 0)
(0.00530088 -0.000127745 0)
(0.00529718 8.1147e-05 0)
(0.00524133 0.000292294 0)
(0.00513636 0.000503248 0)
(0.00498338 0.000714601 0)
(0.00478164 0.000927996 0)
(0.0045291 0.00114456 0)
(0.00422322 0.00136403 0)
(0.00386177 0.0015845 0)
(0.0034436 0.00180252 0)
(0.00296904 0.00201349 0)
(0.00244018 0.00221212 0)
(0.00186097 0.00239292 0)
(0.00123707 0.00255062 0)
(0.000575647 0.00268054 0)
(-0.000114912 0.00277872 0)
(-0.000825327 0.00284211 0)
(4.76494e-07 -4.02113e-05 0)
(1.38948e-05 -0.000141396 0)
(3.55625e-05 -0.000211876 0)
(6.24101e-05 -0.000260456 0)
(9.29175e-05 -0.000301868 0)
(0.000128194 -0.000345881 0)
(0.000170618 -0.000397546 0)
(0.000223107 -0.000459313 0)
(0.000288851 -0.000532361 0)
(0.000371147 -0.000617058 0)
(0.000473259 -0.00071298 0)
(0.000598251 -0.000818801 0)
(0.00074879 -0.000932178 0)
(0.000926913 -0.00104972 0)
(0.00113377 -0.00116703 0)
(0.00136935 -0.00127887 0)
(0.00163218 -0.0013795 0)
(0.00191916 -0.00146308 0)
(0.00222543 -0.00152433 0)
(0.0025446 -0.00155929 0)
(0.00286932 -0.00156602 0)
(0.00319226 -0.00154481 0)
(0.0035068 -0.00149759 0)
(0.00380712 -0.00142732 0)
(0.00408781 -0.00133767 0)
(0.00434349 -0.00123361 0)
(0.00456898 -0.00112248 0)
(0.00476165 -0.00101567 0)
(0.00492631 -0.00092643 0)
(0.00508697 -0.000862032 0)
(0.00526612 -0.000782794 0)
(0.00544735 -0.000637955 0)
(0.00558257 -0.00041425 0)
(0.00564393 -0.000154063 0)
(0.00563908 0.000112154 0)
(0.00557921 0.000375552 0)
(0.00546946 0.000636117 0)
(0.00531099 0.000896933 0)
(0.00510212 0.00116167 0)
(0.0048392 0.00143254 0)
(0.00451797 0.00170936 0)
(0.00413466 0.00198942 0)
(0.00368696 0.00226779 0)
(0.00317459 0.00253799 0)
(0.0025996 0.0027927 0)
(0.00196638 0.00302446 0)
(0.00128146 0.00322623 0)
(0.000553186 0.00339183 0)
(-0.000208681 0.0035162 0)
(-0.00099338 0.00359546 0)
(2.17009e-07 -4.60799e-05 0)
(1.0728e-05 -0.000157496 0)
(2.64653e-05 -0.000233411 0)
(4.49669e-05 -0.000285137 0)
(6.5361e-05 -0.000330098 0)
(8.94032e-05 -0.000379724 0)
(0.000120096 -0.000439926 0)
(0.000160992 -0.000513586 0)
(0.00021592 -0.000602092 0)
(0.00028883 -0.000705864 0)
(0.000383652 -0.000824368 0)
(0.000504124 -0.000955969 0)
(0.000653579 -0.00109779 0)
(0.000834686 -0.00124562 0)
(0.00104914 -0.00139398 0)
(0.00129729 -0.00153621 0)
(0.00157779 -0.00166484 0)
(0.00188722 -0.00177213 0)
(0.00221989 -0.00185098 0)
(0.00256804 -0.00189595 0)
(0.00292257 -0.00190462 0)
(0.00327489 -0.00187793 0)
(0.00361792 -0.00181876 0)
(0.00394589 -0.00173074 0)
(0.00425339 -0.00161752 0)
(0.00453391 -0.00148371 0)
(0.00477896 -0.00133729 0)
(0.00498016 -0.00119524 0)
(0.00513764 -0.00108412 0)
(0.00529348 -0.00103754 0)
(0.00549799 -0.0009821 0)
(0.00572915 -0.000818757 0)
(0.00589885 -0.000520774 0)
(0.00596433 -0.00018243 0)
(0.0059544 0.000146141 0)
(0.00589165 0.000462 0)
(0.005782 0.0007716 0)
(0.00562533 0.00108206 0)
(0.00541816 0.00139996 0)
(0.00515445 0.00172897 0)
(0.00482747 0.00206891 0)
(0.00443132 0.00241588 0)
(0.00396213 0.00276296 0)
(0.00341876 0.00310117 0)
(0.00280311 0.00342058 0)
(0.00212009 0.00371122 0)
(0.00137727 0.00396391 0)
(0.000584336 0.0041707 0)
(-0.000247361 0.00432526 0)
(-0.0011054 0.00442284 0)
(-1.4183e-07 -5.01714e-05 0)
(6.50976e-06 -0.000168289 0)
(1.46352e-05 -0.000246719 0)
(2.25162e-05 -0.000299293 0)
(3.00896e-05 -0.000346169 0)
(3.98631e-05 -0.00040045 0)
(5.55418e-05 -0.000468905 0)
(8.13726e-05 -0.000554851 0)
(0.000121882 -0.000659894 0)
(0.000181733 -0.000784519 0)
(0.000265593 -0.00092809 0)
(0.000377963 -0.00108867 0)
(0.000522954 -0.00126283 0)
(0.000704 -0.0014455 0)
(0.000923496 -0.00162998 0)
(0.00118235 -0.00180796 0)
(0.00147943 -0.00196988 0)
(0.00181107 -0.00210561 0)
(0.00217064 -0.00220555 0)
(0.00254853 -0.00226228 0)
(0.00293325 -0.00227294 0)
(0.0033148 -0.00224014 0)
(0.00368629 -0.00216849 0)
(0.00404333 -0.00206274 0)
(0.00438196 -0.0019257 0)
(0.0046957 -0.00175971 0)
(0.00497226 -0.0015696 0)
(0.00519215 -0.00137619 0)
(0.00533851 -0.00122464 0)
(0.00547574 -0.00121963 0)
(0.00570507 -0.00122961 0)
(0.006004 -0.00105565 0)
(0.00621266 -0.00064234 0)
(0.00626763 -0.000203432 0)
(0.00624517 0.000185492 0)
(0.00618221 0.000548115 0)
(0.00607974 0.000902867 0)
(0.00593395 0.00126108 0)
(0.0057389 0.00163286 0)
(0.00548535 0.00202356 0)
(0.00516328 0.00243281 0)
(0.004764 0.00285501 0)
(0.00428158 0.0032805 0)
(0.00371374 0.00369702 0)
(0.00306222 0.00409125 0)
(0.00233256 0.00445009 0)
(0.00153356 0.00476171 0)
(0.000676603 0.00501613 0)
(-0.00022514 0.00520557 0)
(-0.00115734 0.0053244 0)
(-5.9609e-07 -5.19627e-05 0)
(1.30065e-06 -0.00017246 0)
(2.59449e-07 -0.00024987 0)
(-4.58123e-06 -0.000300508 0)
(-1.23386e-05 -0.00034729 0)
(-1.96678e-05 -0.000404977 0)
(-2.20987e-05 -0.000481179 0)
(-1.46424e-05 -0.000579638 0)
(7.97018e-06 -0.000702184 0)
(5.11653e-05 -0.00084938 0)
(0.000120409 -0.00102052 0)
(0.000221044 -0.00121338 0)
(0.00035807 -0.00142401 0)
(0.000535832 -0.00164647 0)
(0.000757612 -0.00187271 0)
(0.00102506 -0.00209256 0)
(0.00133747 -0.00229394 0)
(0.00169094 -0.00246361 0)
(0.00207782 -0.00258866 0)
(0.00248597 -0.0026587 0)
(0.00290021 -0.00267061 0)
(0.00330892 -0.00263074 0)
(0.00370669 -0.00254703 0)
(0.00409258 -0.0024264 0)
(0.00446689 -0.00226994 0)
(0.00482601 -0.00207545 0)
(0.00515706 -0.0018377 0)
(0.00542434 -0.00156957 0)
(0.00557608 -0.00133773 0)
(0.00568058 -0.00138631 0)
(0.00591685 -0.00154039 0)
(0.00629195 -0.00137101 0)
(0.00652813 -0.000758682 0)
(0.00654291 -0.000197467 0)
(0.00650391 0.000229628 0)
(0.00645138 0.000626177 0)
(0.00636738 0.00102043 0)
(0.00624335 0.00142312 0)
(0.00607221 0.00184871 0)
(0.00584104 0.00230471 0)
(0.00553568 0.00279028 0)
(0.00514374 0.00329747 0)
(0.00465664 0.00381295 0)
(0.00407064 0.00432013 0)
(0.00338729 0.00480126 0)
(0.00261299 0.00523933 0)
(0.00175814 0.0056193 0)
(0.000836158 0.00592884 0)
(-0.000137552 0.00615862 0)
(-0.00114646 0.00630213 0)
(-1.13637e-06 -5.0962e-05 0)
(-4.80224e-06 -0.000168817 0)
(-1.63992e-05 -0.00024111 0)
(-3.58334e-05 -0.000286582 0)
(-6.11677e-05 -0.000330899 0)
(-8.81616e-05 -0.000390454 0)
(-0.00011154 -0.000473658 0)
(-0.000125538 -0.000584654 0)
(-0.000124117 -0.000725497 0)
(-0.000101056 -0.000896858 0)
(-5.00456e-05 -0.001098 0)
(3.51674e-05 -0.00132649 0)
(0.000160574 -0.00157788 0)
(0.000331592 -0.00184539 0)
(0.000552596 -0.00211959 0)
(0.000826211 -0.00238817 0)
(0.00115233 -0.00263603 0)
(0.00152689 -0.00284597 0)
(0.00194115 -0.00300062 0)
(0.00237946 -0.00308472 0)
(0.00282039 -0.00309505 0)
(0.00325046 -0.00304615 0)
(0.00366783 -0.00295165 0)
(0.0040781 -0.00282311 0)
(0.00448979 -0.00265898 0)
(0.00490568 -0.00245144 0)
(0.00532324 -0.00218113 0)
(0.00569618 -0.00181774 0)
(0.00592658 -0.00144916 0)
(0.0060188 -0.00149313 0)
(0.00619121 -0.00188587 0)
(0.00657315 -0.00176967 0)
(0.00678611 -0.000812014 0)
(0.00674154 -0.000152337 0)
(0.00671952 0.00025939 0)
(0.00670502 0.000679791 0)
(0.00665348 0.00111224 0)
(0.00656148 0.00155613 0)
(0.00642615 0.00203485 0)
(0.0062303 0.00255981 0)
(0.0059544 0.00312972 0)
(0.00558114 0.00373351 0)
(0.00509826 0.00435296 0)
(0.00450014 0.0049657 0)
(0.00378815 0.00554826 0)
(0.00296991 0.00607863 0)
(0.00205796 0.00653796 0)
(0.00106828 0.00691127 0)
(1.89671e-05 0.00718761 0)
(-0.00107086 0.00735971 0)
(-1.75386e-06 -4.67267e-05 0)
(-1.16693e-05 -0.000156317 0)
(-3.49989e-05 -0.000218911 0)
(-7.06146e-05 -0.000255592 0)
(-0.000115443 -0.000294747 0)
(-0.000164318 -0.000354346 0)
(-0.000211141 -0.000443543 0)
(-0.000249367 -0.00056685 0)
(-0.000272182 -0.00072655 0)
(-0.000272564 -0.000923458 0)
(-0.000243333 -0.00115687 0)
(-0.000177266 -0.00142425 0)
(-6.72716e-05 -0.00172076 0)
(9.33011e-05 -0.00203885 0)
(0.000310159 -0.00236769 0)
(0.000587161 -0.00269258 0)
(0.000924963 -0.00299478 0)
(0.00131931 -0.00325206 0)
(0.00176057 -0.00344126 0)
(0.00222818 -0.00353827 0)
(0.00268914 -0.00353966 0)
(0.00312857 -0.00347751 0)
(0.00355211 -0.00337358 0)
(0.00397536 -0.00324891 0)
(0.00441953 -0.0030974 0)
(0.00489225 -0.0029045 0)
(0.00541114 -0.00265133 0)
(0.00596343 -0.00222421 0)
(0.00640545 -0.00165365 0)
(0.00667453 -0.00161223 0)
(0.00666236 -0.00195197 0)
(0.00671525 -0.0021526 0)
(0.00682294 -0.000762872 0)
(0.00683354 -0.000192098 0)
(0.00693741 0.000228941 0)
(0.00697381 0.000691025 0)
(0.00695479 0.00117041 0)
(0.00689862 0.00165013 0)
(0.00680924 0.00217921 0)
(0.00666176 0.00277598 0)
(0.00642903 0.00343887 0)
(0.0060867 0.0041529 0)
(0.00561735 0.00489325 0)
(0.00501279 0.00562964 0)
(0.00427433 0.00633102 0)
(0.00341139 0.00696915 0)
(0.00243937 0.00752059 0)
(0.00137755 0.00796748 0)
(0.000247281 0.00829734 0)
(-0.000929283 0.00850232 0)
(-2.43604e-06 -3.88851e-05 0)
(-1.91409e-05 -0.000134104 0)
(-5.51242e-05 -0.000182023 0)
(-0.000108162 -0.000205961 0)
(-0.000174001 -0.000236969 0)
(-0.000246543 -0.00029451 0)
(-0.000318882 -0.000388405 0)
(-0.000383713 -0.000523497 0)
(-0.000433475 -0.0007023 0)
(-0.000460361 -0.000925828 0)
(-0.000456321 -0.00119352 0)
(-0.000413121 -0.00150285 0)
(-0.000322463 -0.00184878 0)
(-0.00017625 -0.00222315 0)
(3.28419e-05 -0.00261375 0)
(0.000310208 -0.0030032 0)
(0.00065742 -0.00336825 0)
(0.00106965 -0.00368034 0)
(0.0015371 -0.00390992 0)
(0.00203245 -0.00401538 0)
(0.00250026 -0.00399176 0)
(0.00292801 -0.00390901 0)
(0.00333725 -0.00379524 0)
(0.00375485 -0.00369015 0)
(0.00421954 -0.00357846 0)
(0.00473313 -0.00342699 0)
(0.00531233 -0.00324879 0)
(0.00600829 -0.00287266 0)
(0.00676856 -0.00212789 0)
(0.00736297 -0.00193642 0)
(0.00756115 -0.00186042 0)
(0.00730261 -0.00209237 0)
(0.00703652 -0.000563224 0)
(0.00710163 -0.000323513 0)
(0.00723667 0.000153487 0)
(0.00728648 0.000674301 0)
(0.00728243 0.00120109 0)
(0.0072618 0.00169986 0)
(0.00722767 0.00227119 0)
(0.00714247 0.00293975 0)
(0.00696864 0.00370425 0)
(0.00667115 0.0045446 0)
(0.00622511 0.00542647 0)
(0.00561919 0.00630853 0)
(0.00485508 0.00714961 0)
(0.00394493 0.00791359 0)
(0.00290802 0.00857175 0)
(0.00176781 0.00910319 0)
(0.000549613 0.00949412 0)
(-0.000720924 0.00973657 0)
(-3.167e-06 -2.7152e-05 0)
(-2.70232e-05 -0.000101559 0)
(-7.62764e-05 -0.000129534 0)
(-0.000147563 -0.000136529 0)
(-0.000235442 -0.000156164 0)
(-0.000332913 -0.00020928 0)
(-0.000432307 -0.000306273 0)
(-0.000525621 -0.000452269 0)
(-0.000604608 -0.000650029 0)
(-0.000660729 -0.000900833 0)
(-0.000685095 -0.0012044 0)
(-0.000668439 -0.00155841 0)
(-0.000601156 -0.00195791 0)
(-0.000473476 -0.00239438 0)
(-0.00027601 -0.00285436 0)
(-1.28425e-06 -0.00331743 0)
(0.000353356 -0.00375429 0)
(0.000781313 -0.00412774 0)
(0.0012736 -0.00440465 0)
(0.0017943 -0.0045095 0)
(0.00224287 -0.00442979 0)
(0.00262476 -0.00431896 0)
(0.00299786 -0.00419042 0)
(0.00339197 -0.00412413 0)
(0.00386655 -0.00408311 0)
(0.00439998 -0.00397668 0)
(0.00495613 -0.00386869 0)
(0.00558078 -0.00363519 0)
(0.00670155 -0.00322789 0)
(0.00756123 -0.00224684 0)
(0.00744015 -0.00161833 0)
(0.00680674 -0.001484 0)
(0.00687795 -0.000939609 0)
(0.0074619 -0.000478755 0)
(0.00756984 7.07447e-05 0)
(0.00760006 0.000653859 0)
(0.00760933 0.00120552 0)
(0.00764032 0.00169332 0)
(0.00767989 0.00229613 0)
(0.00767649 0.0030334 0)
(0.00758199 0.00390893 0)
(0.00734588 0.00489579 0)
(0.00693333 0.00594512 0)
(0.00632998 0.00699989 0)
(0.00553921 0.00800558 0)
(0.0045773 0.00891644 0)
(0.00346869 0.00969778 0)
(0.00224208 0.0103258 0)
(0.000927515 0.0107857 0)
(-0.000445405 0.0110703 0)
(-3.92813e-06 -1.13435e-05 0)
(-3.50911e-05 -5.83286e-05 0)
(-9.78685e-05 -6.09309e-05 0)
(-0.000187739 -4.66345e-05 0)
(-0.000298106 -5.14868e-05 0)
(-0.000421135 -9.75655e-05 0)
(-0.000548479 -0.000195733 0)
(-0.000671535 -0.000351349 0)
(-0.000781477 -0.000567435 0)
(-0.000869135 -0.000845629 0)
(-0.000924857 -0.00118609 0)
(-0.000938383 -0.00158701 0)
(-0.000898748 -0.00204388 0)
(-0.000794263 -0.00254834 0)
(-0.000612855 -0.00308612 0)
(-0.000343735 -0.00363347 0)
(1.82971e-05 -0.00415261 0)
(0.000463491 -0.0045913 0)
(0.000980944 -0.00491963 0)
(0.00151874 -0.00500352 0)
(0.0018884 -0.00480522 0)
(0.00216623 -0.00468477 0)
(0.00249342 -0.00453662 0)
(0.00287723 -0.00455417 0)
(0.00339128 -0.00461996 0)
(0.00396943 -0.00453657 0)
(0.00457013 -0.00446922 0)
(0.00523921 -0.00434202 0)
(0.00582351 -0.00415499 0)
(0.00631458 -0.00255907 0)
(0.00687928 -0.00166062 0)
(0.007166 -0.00112319 0)
(0.00728333 -0.00153605 0)
(0.00757764 -0.000737528 0)
(0.00776992 -5.75398e-06 0)
(0.00783453 0.000581303 0)
(0.00793388 0.00110636 0)
(0.00805978 0.00159976 0)
(0.0081826 0.0022312 0)
(0.00827882 0.00303366 0)
(0.00828493 0.00403287 0)
(0.00812621 0.00519294 0)
(0.00775519 0.00644276 0)
(0.00715557 0.0077032 0)
(0.00633439 0.00890274 0)
(0.00531381 0.00998435 0)
(0.00412477 0.010907 0)
(0.00280223 0.0116442 0)
(0.00138171 0.0121813 0)
(-0.000102775 0.0125122 0)
(-4.69826e-06 8.60289e-06 0)
(-4.30871e-05 -4.37901e-06 0)
(-0.000119221 2.3829e-05 0)
(-0.000227437 6.38093e-05 0)
(-0.00036006 7.72606e-05 0)
(-0.000508527 4.10417e-05 0)
(-0.000663939 -5.60501e-05 0)
(-0.000817243 -0.000219548 0)
(-0.000959187 -0.000452749 0)
(-0.00108013 -0.000757748 0)
(-0.00116983 -0.00113535 0)
(-0.00121717 -0.00158456 0)
(-0.00120995 -0.00210189 0)
(-0.00113453 -0.00267998 0)
(-0.000975653 -0.00330493 0)
(-0.000717247 -0.00395092 0)
(-0.000345566 -0.00457096 0)
(0.000136458 -0.0050856 0)
(0.000710861 -0.00545594 0)
(0.00127932 -0.00546899 0)
(0.00142823 -0.00497532 0)
(0.00145797 -0.00497562 0)
(0.00177184 -0.00484826 0)
(0.00222556 -0.00503813 0)
(0.00280095 -0.00519285 0)
(0.00343058 -0.00515403 0)
(0.00408841 -0.00509149 0)
(0.00472931 -0.00498083 0)
(0.00530684 -0.00458414 0)
(0.00609169 -0.00331303 0)
(0.00707743 -0.00241903 0)
(0.00799889 -0.00162148 0)
(0.00855114 -0.00170203 0)
(0.00872089 -0.000970329 0)
(0.00882623 -8.12122e-05 0)
(0.00880754 0.000546267 0)
(0.00869381 0.00106103 0)
(0.00865977 0.0015023 0)
(0.00878917 0.00209672 0)
(0.00897972 0.00293266 0)
(0.00910044 0.00406242 0)
(0.00902963 0.00542717 0)
(0.00870273 0.00691715 0)
(0.00810363 0.00842159 0)
(0.00724526 0.00984785 0)
(0.0061571 0.0111263 0)
(0.00487752 0.0122094 0)
(0.00344854 0.0130688 0)
(0.00191188 0.0136907 0)
(0.000306407 0.0140715 0)
(-5.4522e-06 3.26092e-05 0)
(-5.07206e-05 5.99653e-05 0)
(-0.000139563 0.000124252 0)
(-0.000265231 0.000194218 0)
(-0.000419098 0.000229516 0)
(-0.000592021 0.00020614 0)
(-0.000774712 0.000112692 0)
(-0.000957857 -5.64584e-05 0)
(-0.001132 -0.000304884 0)
(-0.00128726 -0.000635218 0)
(-0.00141308 -0.00104908 0)
(-0.00149783 -0.00154662 0)
(-0.0015285 -0.00212587 0)
(-0.0014901 -0.00278147 0)
(-0.00136512 -0.00350182 0)
(-0.0011333 -0.00426278 0)
(-0.00076968 -0.00501529 0)
(-0.000246805 -0.00565372 0)
(0.00048556 -0.00610601 0)
(0.00122229 -0.00590389 0)
(0.000842531 -0.00446529 0)
(0.000304624 -0.0051457 0)
(0.000857694 -0.00537912 0)
(0.00162994 -0.00569656 0)
(0.0023205 -0.00582427 0)
(0.0029742 -0.0058307 0)
(0.00366829 -0.00576661 0)
(0.00439765 -0.00566043 0)
(0.00516482 -0.00526688 0)
(0.00615321 -0.00439909 0)
(0.00739053 -0.00350274 0)
(0.00861561 -0.00264618 0)
(0.0094399 -0.00205583 0)
(0.00979251 -0.00113898 0)
(0.00986945 -0.000100771 0)
(0.0096986 0.000683623 0)
(0.00938168 0.00123915 0)
(0.00924785 0.00145784 0)
(0.00943761 0.00189933 0)
(0.00976127 0.0027126 0)
(0.0100301 0.00398061 0)
(0.0100614 0.00559197 0)
(0.00977833 0.00737017 0)
(0.00917366 0.0091616 0)
(0.00827009 0.0108499 0)
(0.00710524 0.0123525 0)
(0.00572513 0.013616 0)
(0.00417934 0.0146103 0)
(0.00251651 0.0153238 0)
(0.000781026 0.015757 0)
(-6.15947e-06 6.04361e-05 0)
(-5.76699e-05 0.000133974 0)
(-0.000158043 0.000239242 0)
(-0.000299553 0.000343257 0)
(-0.000472791 0.000403855 0)
(-0.000668214 0.000396385 0)
(-0.000876348 0.000309426 0)
(-0.00108784 0.000137353 0)
(-0.00129329 -0.000123649 0)
(-0.00148293 -0.000476788 0)
(-0.00164623 -0.000924607 0)
(-0.00177154 -0.00146854 0)
(-0.00184567 -0.00210835 0)
(-0.0018533 -0.00284101 0)
(-0.0017768 -0.00365784 0)
(-0.00159689 -0.00453768 0)
(-0.00128827 -0.00543623 0)
(-0.000790131 -0.00625632 0)
(-4.05454e-05 -0.00684399 0)
(0.000473743 -0.00618494 0)
(0.000401532 -0.00395855 0)
(0.000419184 -0.00534353 0)
(0.000870805 -0.00602145 0)
(0.00140142 -0.00633341 0)
(0.00191869 -0.00644659 0)
(0.00252713 -0.00651136 0)
(0.00326584 -0.00652891 0)
(0.00411397 -0.00648023 0)
(0.0050678 -0.00621039 0)
(0.00625695 -0.00563397 0)
(0.00769574 -0.00485659 0)
(0.00914426 -0.00383546 0)
(0.0102222 -0.00270172 0)
(0.0108259 -0.00142326 0)
(0.0109639 -6.28277e-06 0)
(0.0106113 0.00103282 0)
(0.0100082 0.00161518 0)
(0.00978429 0.00138158 0)
(0.0101053 0.00157471 0)
(0.010617 0.00231841 0)
(0.0110766 0.00375734 0)
(0.0112186 0.00568229 0)
(0.0109717 0.00780754 0)
(0.0103532 0.00993141 0)
(0.00939831 0.0119174 0)
(0.0081507 0.0136723 0)
(0.00666248 0.0151363 0)
(0.00499108 0.0162784 0)
(0.00319315 0.0170897 0)
(0.00131971 0.0175763 0)
(-6.78474e-06 9.16624e-05 0)
(-6.3593e-05 0.000216481 0)
(-0.000173766 0.000367054 0)
(-0.000328751 0.000508773 0)
(-0.000518572 0.000597893 0)
(-0.000733483 0.000609363 0)
(-0.000964041 0.000531931 0)
(-0.00120111 0.000360123 0)
(-0.00143567 8.99645e-05 0)
(-0.00165842 -0.000282318 0)
(-0.00185934 -0.000760252 0)
(-0.00202725 -0.0013467 0)
(-0.00214915 -0.00204342 0)
(-0.00220936 -0.00285024 0)
(-0.00218849 -0.00376246 0)
(-0.00206252 -0.00476396 0)
(-0.00180057 -0.00581858 0)
(-0.00131997 -0.00688636 0)
(-0.000454513 -0.00773378 0)
(0.000402085 -0.00651427 0)
(0.000239528 -0.00364151 0)
(-4.88126e-05 -0.00556556 0)
(0.000436991 -0.00656799 0)
(0.000940682 -0.00680033 0)
(0.00137584 -0.00698101 0)
(0.00193919 -0.00717854 0)
(0.00270761 -0.00737408 0)
(0.00367561 -0.00745717 0)
(0.00480246 -0.007356 0)
(0.00617132 -0.00706243 0)
(0.00781806 -0.00644164 0)
(0.00953015 -0.00526103 0)
(0.0109106 -0.0036178 0)
(0.011838 -0.00193752 0)
(0.0121531 9.02153e-05 0)
(0.0116474 0.00167721 0)
(0.010664 0.00229353 0)
(0.0103507 0.00117062 0)
(0.0108565 0.00107805 0)
(0.0115651 0.00169626 0)
(0.0122405 0.00337436 0)
(0.0124798 0.00571065 0)
(0.0122491 0.00824223 0)
(0.0116115 0.0107377 0)
(0.0106088 0.0130541 0)
(0.00928107 0.01509 0)
(0.00768266 0.0167769 0)
(0.00587974 0.0180806 0)
(0.00393954 0.0189956 0)
(0.00192165 0.0195355 0)
(-7.28897e-06 0.000125677 0)
(-6.81471e-05 0.000305875 0)
(-0.000185843 0.000505286 0)
(-0.000351193 0.000687768 0)
(-0.000553889 0.000808239 0)
(-0.000784183 0.000841496 0)
(-0.00103287 0.000776687 0)
(-0.00129131 0.000608682 0)
(-0.00155118 0.000333515 0)
(-0.00180414 -5.30271e-05 0)