/*--------------------------------*- C++ -*----------------------------------*\
| =========                 |                                                 |
| \\      /  F ield         | OpenFOAM: The Open Source CFD Toolbox           |
|  \\    /   O peration     | Version:  2.4.0                                 |
|   \\  /    A nd           | Web:      www.OpenFOAM.org                      |
|    \\/     M anipulation  |                                                 |
\*---------------------------------------------------------------------------*/
FoamFile
{
    version     2.0;
    format      ascii;
    class       surfaceScalarField;
    location    "0.216";
    object      phiAlpha;
}
// * * * * * * * * * * * * * * * * * * * * * * * * * * * * * * * * * * * * * //

dimensions      [0 3 -1 0 0 0 0];

internalField   nonuniform List<scalar> 
119500
(
-1.24066e-10
1.24066e-10
-3.50314e-10
2.26247e-10
-6.05267e-10
2.54955e-10
-8.80995e-10
2.75729e-10
-1.18112e-09
3.00124e-10
-1.5097e-09
3.28578e-10
-1.87009e-09
3.60399e-10
-2.26475e-09
3.9466e-10
-2.69518e-09
4.30427e-10
-3.162e-09
4.66822e-10
-3.66506e-09
5.03054e-10
-4.20351e-09
5.3845e-10
-4.77598e-09
5.72475e-10
-5.3807e-09
6.04714e-10
-6.01558e-09
6.34884e-10
-6.67838e-09
6.62804e-10
-7.36676e-09
6.88381e-10
-8.07836e-09
7.11598e-10
-8.81084e-09
7.32485e-10
-9.56195e-09
7.51106e-10
-1.03295e-08
7.6755e-10
-1.11114e-08
7.81913e-10
-1.19057e-08
7.9428e-10
-1.27104e-08
8.04728e-10
-1.35237e-08
8.13317e-10
-1.43438e-08
8.20084e-10
-1.51689e-08
8.25041e-10
-1.5997e-08
8.28182e-10
-1.68265e-08
8.29467e-10
-1.76553e-08
8.28829e-10
-1.84815e-08
8.26183e-10
-1.93029e-08
8.21421e-10
-2.01174e-08
8.14412e-10
-2.09224e-08
8.05012e-10
-2.17154e-08
7.93062e-10
-2.24938e-08
7.78392e-10
-2.32546e-08
7.60819e-10
-2.39948e-08
7.40152e-10
-2.4711e-08
7.16202e-10
-2.53998e-08
6.88764e-10
-2.60574e-08
6.57633e-10
-2.668e-08
6.22598e-10
-2.72634e-08
5.83441e-10
-2.78034e-08
5.39941e-10
-2.82952e-08
4.91877e-10
-2.87343e-08
4.39021e-10
-2.91154e-08
3.81154e-10
-2.94335e-08
3.18053e-10
-2.9683e-08
2.49508e-10
-2.98583e-08
1.75333e-10
-2.99538e-08
9.54526e-11
-2.99652e-08
1.14435e-11
-2.9884e-08
-8.12011e-11
-2.97048e-08
-1.79229e-10
-2.94222e-08
-2.82602e-10
-2.90305e-08
-3.91681e-10
-2.85241e-08
-5.06394e-10
-2.78975e-08
-6.26602e-10
-2.71451e-08
-7.52364e-10
-2.62615e-08
-8.83628e-10
-2.52437e-08
-1.01778e-09
-2.40872e-08
-1.15652e-09
-2.27883e-08
-1.29893e-09
-2.1344e-08
-1.44428e-09
-1.97526e-08
-1.59137e-09
-1.80122e-08
-1.74039e-09
-1.61224e-08
-1.88985e-09
-1.40835e-08
-2.03891e-09
-1.18972e-08
-2.18631e-09
-9.56619e-09
-2.33098e-09
-7.09494e-09
-2.47125e-09
-4.48906e-09
-2.60589e-09
-1.75567e-09
-2.73339e-09
1.09683e-09
-2.8525e-09
4.05429e-09
-2.95746e-09
7.1056e-09
-3.05131e-09
1.02353e-08
-3.12969e-09
1.34251e-08
-3.18985e-09
1.66533e-08
-3.22821e-09
1.98951e-08
-3.24175e-09
2.31228e-08
-3.22769e-09
2.63055e-08
-3.18275e-09
2.94096e-08
-3.10408e-09
3.23919e-08
-2.98227e-09
3.52088e-08
-2.81694e-09
3.78166e-08
-2.60779e-09
4.01594e-08
-2.34279e-09
4.21724e-08
-2.01302e-09
4.37715e-08
-1.59913e-09
4.48551e-08
-1.08359e-09
4.52959e-08
-4.40732e-10
4.50038e-08
2.92056e-10
4.39508e-08
1.053e-09
4.21513e-08
1.7995e-09
3.96253e-08
2.52606e-09
3.645e-08
3.17527e-09
3.27411e-08
3.70892e-09
2.86633e-08
4.07779e-09
2.4344e-08
4.31928e-09
4.5002e-09
1.98438e-08
-4.19572e-10
5.43641e-10
-1.02528e-09
8.31957e-10
-1.66074e-09
8.90414e-10
-2.31918e-09
9.34173e-10
-3.00609e-09
9.8704e-10
-3.72684e-09
1.04932e-09
-4.48588e-09
1.11944e-09
-5.28667e-09
1.19546e-09
-6.13172e-09
1.27547e-09
-7.0226e-09
1.3577e-09
-7.96008e-09
1.44054e-09
-8.94426e-09
1.52263e-09
-9.97468e-09
1.60289e-09
-1.10505e-08
1.6805e-09
-1.21705e-08
1.75488e-09
-1.33333e-08
1.82568e-09
-1.45377e-08
1.89272e-09
-1.5782e-08
1.95595e-09
-1.7065e-08
2.01545e-09
-1.83853e-08
2.07137e-09
-1.97416e-08
2.12386e-09
-2.11328e-08
2.17313e-09
-2.25578e-08
2.21934e-09
-2.40158e-08
2.26266e-09
-2.55056e-08
2.30318e-09
-2.70265e-08
2.34099e-09
-2.85776e-08
2.37608e-09
-3.01578e-08
2.40841e-09
-3.17662e-08
2.43789e-09
-3.34018e-08
2.46436e-09
-3.50632e-08
2.4876e-09
-3.67491e-08
2.50737e-09
-3.84581e-08
2.52335e-09
-4.01882e-08
2.5352e-09
-4.19377e-08
2.54255e-09
-4.37043e-08
2.54499e-09
-4.54856e-08
2.54209e-09
-4.72788e-08
2.53338e-09
-4.9081e-08
2.51841e-09
-5.0889e-08
2.49669e-09
-5.2699e-08
2.4677e-09
-5.45073e-08
2.43091e-09
-5.63097e-08
2.3858e-09
-5.81016e-08
2.3318e-09
-5.9878e-08
2.26834e-09
-6.16339e-08
2.19485e-09
-6.33634e-08
2.11073e-09
-6.50608e-08
2.01542e-09
-6.67196e-08
1.90836e-09
-6.83333e-08
1.78904e-09
-6.9895e-08
1.65708e-09
-7.13961e-08
1.51252e-09
-7.28304e-08
1.35313e-09
-7.41898e-08
1.18022e-09
-7.54661e-08
9.93658e-10
-7.6651e-08
7.93226e-10
-7.77364e-08
5.7899e-10
-7.87141e-08
3.51115e-10
-7.95756e-08
1.09162e-10
-8.03111e-08
-1.48161e-10
-8.09159e-08
-4.12999e-10
-8.13816e-08
-6.90805e-10
-8.17015e-08
-9.79024e-10
-8.18694e-08
-1.27639e-09
-8.18809e-08
-1.57982e-09
-8.17308e-08
-1.89049e-09
-8.14161e-08
-2.20458e-09
-8.09346e-08
-2.52043e-09
-8.02857e-08
-2.83522e-09
-7.94701e-08
-3.14652e-09
-7.8491e-08
-3.45037e-09
-7.73528e-08
-3.74414e-09
-7.60622e-08
-4.02395e-09
-7.46288e-08
-4.28587e-09
-7.30625e-08
-4.52379e-09
-7.13786e-08
-4.7352e-09
-6.95944e-08
-4.91385e-09
-6.77305e-08
-5.05375e-09
-6.58108e-08
-5.14794e-09
-6.38633e-08
-5.18931e-09
-6.19202e-08
-5.17072e-09
-6.00182e-08
-5.08474e-09
-5.81995e-08
-4.92282e-09
-5.65078e-08
-4.67399e-09
-5.49924e-08
-4.33229e-09
-5.37092e-08
-3.89098e-09
-5.27147e-08
-3.33731e-09
-5.20724e-08
-2.65528e-09
-5.18494e-08
-1.82217e-09
-5.21107e-08
-8.22327e-10
-5.29072e-08
3.55779e-10
-5.42955e-08
1.68039e-09
-5.63517e-08
3.10924e-09
-5.91031e-08
4.55085e-09
-6.24788e-08
5.90175e-09
-6.63316e-08
7.02806e-09
-7.04115e-08
7.78882e-09
-7.44467e-08
8.11302e-09
-7.82337e-08
8.10626e-09
8.02935e-09
-8.17628e-08
-5.0873e-10
1.05237e-09
-1.22476e-09
1.54799e-09
-1.97131e-09
1.63697e-09
-2.74183e-09
1.70469e-09
-3.5425e-09
1.78772e-09
-4.37926e-09
1.88608e-09
-5.25698e-09
1.99716e-09
-6.17954e-09
2.11802e-09
-7.14981e-09
2.24574e-09
-8.1697e-09
2.3776e-09
-9.24037e-09
2.51121e-09
-1.03623e-08
2.64451e-09
-1.15353e-08
2.77591e-09
-1.2759e-08
2.9042e-09
-1.40326e-08
3.02851e-09
-1.53553e-08
3.14834e-09
-1.6726e-08
3.26346e-09
-1.81439e-08
3.37384e-09
-1.96081e-08
3.47961e-09
-2.11177e-08
3.58103e-09
-2.26722e-08
3.67838e-09
-2.42711e-08
3.77197e-09
-2.59138e-08
3.86209e-09
-2.76002e-08
3.94901e-09
-2.93299e-08
4.03292e-09
-3.11029e-08
4.11395e-09
-3.29189e-08
4.19213e-09
-3.47779e-08
4.26741e-09
-3.66797e-08
4.33968e-09
-3.86241e-08
4.4087e-09
-4.06107e-08
4.47419e-09
-4.26391e-08
4.53577e-09
-4.47087e-08
4.59299e-09
-4.68189e-08
4.64535e-09
-4.89686e-08
4.69228e-09
-5.11568e-08
4.73318e-09
-5.33821e-08
4.76739e-09
-5.56429e-08
4.79424e-09
-5.79375e-08
4.81301e-09
-6.02638e-08
4.82294e-09
-6.26194e-08
4.82327e-09
-6.50016e-08
4.81318e-09
-6.74077e-08
4.79182e-09
-6.98342e-08
4.75833e-09
-7.22777e-08
4.7118e-09
-7.47341e-08
4.65131e-09
-7.71993e-08
4.5759e-09
-7.96685e-08
4.48463e-09
-8.21367e-08
4.37656e-09
-8.45985e-08
4.25083e-09
-8.70481e-08
4.10666e-09
-8.9479e-08
3.94341e-09
-9.18854e-08
3.75956e-09
-9.42605e-08
3.55528e-09
-9.65971e-08
3.33027e-09
-9.88881e-08
3.08421e-09
-1.01126e-07
2.81699e-09
-1.03304e-07
2.52865e-09
-1.05414e-07
2.21914e-09
-1.07451e-07
1.88879e-09
-1.09405e-07
1.54122e-09
-1.1127e-07
1.17483e-09
-1.13041e-07
7.91241e-10
-1.14709e-07
3.91952e-10
-1.16271e-07
-1.78081e-11
-1.17719e-07
-4.42387e-10
-1.19049e-07
-8.74339e-10
-1.20258e-07
-1.31221e-09
-1.21341e-07
-1.7513e-09
-1.22299e-07
-2.18888e-09
-1.23131e-07
-2.61893e-09
-1.23837e-07
-3.03809e-09
-1.2442e-07
-3.44101e-09
-1.24883e-07
-3.82222e-09
-1.25232e-07
-4.17475e-09
-1.25474e-07
-4.49319e-09
-1.25619e-07
-4.76932e-09
-1.25677e-07
-4.99518e-09
-1.25664e-07
-5.16117e-09
-1.25596e-07
-5.25702e-09
-1.25494e-07
-5.27268e-09
-1.25382e-07
-5.19694e-09
-1.25288e-07
-5.01668e-09
-1.25245e-07
-4.71725e-09
-1.25291e-07
-4.28649e-09
-1.25471e-07
-3.71118e-09
-1.25832e-07
-2.97616e-09
-1.26423e-07
-2.06427e-09
-1.27289e-07
-9.56255e-10
-1.28453e-07
3.41514e-10
-1.29917e-07
1.81981e-09
-1.31674e-07
3.43756e-09
-1.33655e-07
5.09006e-09
-1.35744e-07
6.64034e-09
-1.37781e-07
7.93857e-09
-1.39573e-07
8.82047e-09
-1.40925e-07
9.14028e-09
-1.41709e-07
8.89695e-09
-1.4198e-07
8.37768e-09
8.02502e-09
-1.41976e-07
-5.27678e-10
1.58005e-09
-1.26529e-09
2.2856e-09
-2.03471e-09
2.40639e-09
-2.829e-09
2.49898e-09
-3.65447e-09
2.61319e-09
-4.51724e-09
2.74885e-09
-5.42236e-09
2.90228e-09
-6.37379e-09
3.06945e-09
-7.37447e-09
3.24641e-09
-8.42637e-09
3.42951e-09
-9.53068e-09
3.61551e-09
-1.06879e-08
3.8017e-09
-1.18979e-08
3.98594e-09
-1.31603e-08
4.16664e-09
-1.44745e-08
4.3427e-09
-1.58397e-08
4.51348e-09
-1.72549e-08
4.6787e-09
-1.87195e-08
4.83839e-09
-2.02326e-08
4.99276e-09
-2.17938e-08
5.14219e-09
-2.34025e-08
5.2871e-09
-2.50585e-08
5.42796e-09
-2.67616e-08
5.56519e-09
-2.85118e-08
5.69919e-09
-3.03091e-08
5.83024e-09
-3.21537e-08
5.95855e-09
-3.40457e-08
6.08421e-09
-3.59855e-08
6.20719e-09
-3.79732e-08
6.32735e-09
-4.00089e-08
6.44444e-09
-4.20928e-08
6.5581e-09
-4.42249e-08
6.66786e-09
-4.64051e-08
6.77315e-09
-4.86331e-08
6.87333e-09
-5.09085e-08
6.96769e-09
-5.32307e-08
7.05544e-09
-5.55991e-08
7.13575e-09
-5.80126e-08
7.20775e-09
-6.04701e-08
7.2705e-09
-6.29702e-08
7.32303e-09
-6.55112e-08
7.36434e-09
-6.80914e-08
7.39336e-09
-7.07086e-08
7.409e-09
-7.33604e-08
7.4101e-09
-7.6044e-08
7.39545e-09
-7.87565e-08
7.36382e-09
-8.14946e-08
7.31392e-09
-8.42544e-08
7.24445e-09
-8.7032e-08
7.15413e-09
-8.98228e-08
7.04172e-09
-9.26223e-08
6.90607e-09
-9.54249e-08
6.74608e-09
-9.82257e-08
6.56037e-09
-1.01019e-07
6.34842e-09
-1.03798e-07
6.10966e-09
-1.06558e-07
5.8436e-09
-1.09291e-07
5.54993e-09
-1.11991e-07
5.22857e-09
-1.14651e-07
4.87953e-09
-1.17266e-07
4.50344e-09
-1.19827e-07
4.10233e-09
-1.22328e-07
3.67623e-09
-1.24763e-07
3.22658e-09
-1.27127e-07
2.75537e-09
-1.29411e-07
2.2662e-09
-1.31612e-07
1.75894e-09
-1.33725e-07
1.2385e-09
-1.35745e-07
7.07868e-10
-1.37668e-07
1.71446e-10
-1.39487e-07
-3.6933e-10
-1.41203e-07
-9.03161e-10
-1.42811e-07
-1.43046e-09
-1.44309e-07
-1.94258e-09
-1.45697e-07
-2.43476e-09
-1.46973e-07
-2.89859e-09
-1.48138e-07
-3.32767e-09
-1.49196e-07
-3.7118e-09
-1.5015e-07
-4.04139e-09
-1.51006e-07
-4.30453e-09
-1.51775e-07
-4.48802e-09
-1.52469e-07
-4.5787e-09
-1.53106e-07
-4.55993e-09
-1.5371e-07
-4.41281e-09
-1.54311e-07
-4.11611e-09
-1.54947e-07
-3.65095e-09
-1.55659e-07
-2.9987e-09
-1.5649e-07
-2.14579e-09
-1.57472e-07
-1.08158e-09
-1.5862e-07
1.91416e-10
-1.59921e-07
1.64247e-09
-1.6132e-07
3.21863e-09
-1.6272e-07
4.83736e-09
-1.63998e-07
6.36811e-09
-1.65008e-07
7.65045e-09
-1.65589e-07
8.51958e-09
-1.6559e-07
8.82152e-09
-1.64907e-07
8.45755e-09
-1.63551e-07
7.54045e-09
-1.61726e-07
6.55277e-09
6.10647e-09
-1.59807e-07
-5.26107e-10
2.10616e-09
-1.26113e-09
3.02062e-09
-2.02908e-09
3.17433e-09
-2.82287e-09
3.29277e-09
-3.64884e-09
3.43917e-09
-4.51321e-09
3.61321e-09
-5.42107e-09
3.81014e-09
-6.37639e-09
4.02478e-09
-7.38207e-09
4.25209e-09
-8.44e-09
4.48744e-09
-9.55125e-09
4.72676e-09
-1.07162e-08
4.96665e-09
-1.19347e-08
5.20444e-09
-1.32062e-08
5.43817e-09
-1.453e-08
5.66651e-09
-1.59053e-08
5.88872e-09
-1.73311e-08
6.10449e-09
-1.88066e-08
6.31393e-09
-2.03312e-08
6.51735e-09
-2.19043e-08
6.71527e-09
-2.35254e-08
6.90828e-09
-2.51945e-08
7.09699e-09
-2.69113e-08
7.282e-09
-2.86759e-08
7.46381e-09
-3.04885e-08
7.64285e-09
-3.23493e-08
7.81938e-09
-3.42587e-08
7.99358e-09
-3.62169e-08
8.16542e-09
-3.82244e-08
8.33478e-09
-4.02813e-08
8.50137e-09
-4.2388e-08
8.66476e-09
-4.45445e-08
8.8244e-09
-4.6751e-08
8.97962e-09
-4.90073e-08
9.12965e-09
-5.13132e-08
9.27362e-09
-5.36684e-08
9.4106e-09
-5.60722e-08
9.53957e-09
-5.85239e-08
9.65947e-09
-6.10226e-08
9.76917e-09
-6.35671e-08
9.86751e-09
-6.6156e-08
9.95326e-09
-6.87878e-08
1.00251e-08
-7.14606e-08
1.00818e-08
-7.41723e-08
1.01218e-08
-7.69205e-08
1.01437e-08
-7.97026e-08
1.01459e-08
-8.25155e-08
1.01269e-08
-8.5356e-08
1.00849e-08
-8.82202e-08
1.00184e-08
-9.11043e-08
9.92578e-09
-9.40037e-08
9.8055e-09
-9.69138e-08
9.6561e-09
-9.98295e-08
9.47609e-09
-1.02746e-07
9.26447e-09
-1.05656e-07
9.02037e-09
-1.08556e-07
8.74305e-09
-1.11438e-07
8.43201e-09
-1.14296e-07
8.08701e-09
-1.17125e-07
7.70803e-09
-1.19917e-07
7.29563e-09
-1.22666e-07
6.85113e-09
-1.25365e-07
6.37516e-09
-1.28007e-07
5.86917e-09
-1.30587e-07
5.33521e-09
-1.33097e-07
4.77619e-09
-1.35532e-07
4.19372e-09
-1.37885e-07
3.59177e-09
-1.40151e-07
2.97404e-09
-1.42325e-07
2.34491e-09
-1.44402e-07
1.70814e-09
-1.46377e-07
1.07167e-09
-1.48246e-07
4.38758e-10
-1.50005e-07
-1.83543e-10
-1.51652e-07
-7.88358e-10
-1.53182e-07
-1.36858e-09
-1.54595e-07
-1.91427e-09
-1.55892e-07
-2.4147e-09
-1.57076e-07
-2.85732e-09
-1.58153e-07
-3.22799e-09
-1.59131e-07
-3.50999e-09
-1.60023e-07
-3.68642e-09
-1.60849e-07
-3.73446e-09
-1.61632e-07
-3.62916e-09
-1.62405e-07
-3.3433e-09
-1.63202e-07
-2.85378e-09
-1.6406e-07
-2.14126e-09
-1.65005e-07
-1.19996e-09
-1.66055e-07
-3.23535e-11
-1.67196e-07
1.33267e-09
-1.68392e-07
2.83841e-09
-1.69575e-07
4.40204e-09
-1.70652e-07
5.91362e-09
-1.71508e-07
7.22473e-09
-1.72017e-07
8.15979e-09
-1.72042e-07
8.54394e-09
-1.71452e-07
8.23148e-09
-1.70153e-07
7.15852e-09
-1.68144e-07
5.53137e-09
-1.65628e-07
4.03716e-09
3.53052e-09
-1.63052e-07
-5.18169e-10
2.62433e-09
-1.24393e-09
3.74639e-09
-2.00365e-09
3.93404e-09
-2.79029e-09
4.07941e-09
-3.6103e-09
4.25918e-09
-4.46999e-09
4.47291e-09
-5.3745e-09
4.71465e-09
-6.32775e-09
4.97803e-09
-7.33255e-09
5.25688e-09
-8.39064e-09
5.54554e-09
-9.50295e-09
5.83906e-09
-1.06697e-08
6.13336e-09
-1.18905e-08
6.42524e-09
-1.31647e-08
6.71238e-09
-1.44914e-08
6.99326e-09
-1.58697e-08
7.26702e-09
-1.72986e-08
7.53341e-09
-1.87773e-08
7.79258e-09
-2.03049e-08
8.04501e-09
-2.1881e-08
8.29136e-09
-2.35052e-08
8.5324e-09
-2.51771e-08
8.76893e-09
-2.68968e-08
9.0017e-09
-2.86643e-08
9.23135e-09
-3.04799e-08
9.45843e-09
-3.23439e-08
9.68331e-09
-3.42565e-08
9.90619e-09
-3.62182e-08
1.01271e-08
-3.82293e-08
1.03459e-08
-4.02903e-08
1.05623e-08
-4.24013e-08
1.07758e-08
-4.45626e-08
1.09857e-08
-4.67743e-08
1.11913e-08
-4.90363e-08
1.13917e-08
-5.13485e-08
1.15858e-08
-5.37104e-08
1.17726e-08
-5.61217e-08
1.19508e-08
-5.85815e-08
1.21193e-08
-6.10889e-08
1.22766e-08
-6.36429e-08
1.24215e-08
-6.62422e-08
1.25525e-08
-6.88851e-08
1.26681e-08
-7.157e-08
1.27667e-08
-7.42947e-08
1.28466e-08
-7.70571e-08
1.2906e-08
-7.98544e-08
1.29432e-08
-8.26837e-08
1.29561e-08
-8.55417e-08
1.29429e-08
-8.84248e-08
1.29015e-08
-9.1329e-08
1.283e-08
-9.42499e-08
1.27264e-08
-9.71828e-08
1.2589e-08
-1.00123e-07
1.2416e-08
-1.03064e-07
1.22061e-08
-1.06002e-07
1.1958e-08
-1.0893e-07
1.16707e-08
-1.11841e-07
1.13435e-08
-1.1473e-07
1.09761e-08
-1.1759e-07
1.05682e-08
-1.20415e-07
1.01202e-08
-1.23197e-07
9.63312e-09
-1.25929e-07
9.10777e-09
-1.28606e-07
8.54558e-09
-1.31219e-07
7.9486e-09
-1.33763e-07
7.31945e-09
-1.36229e-07
6.66058e-09
-1.38613e-07
5.9757e-09
-1.40908e-07
5.26886e-09
-1.43108e-07
4.54464e-09
-1.45208e-07
3.80789e-09
-1.47201e-07
3.06547e-09
-1.49085e-07
2.32269e-09
-1.50856e-07
1.58677e-09
-1.5251e-07
8.65569e-10
-1.54046e-07
1.67784e-10
-1.55465e-07
-4.95516e-10
-1.56768e-07
-1.11096e-09
-1.57963e-07
-1.66323e-09
-1.59055e-07
-2.13547e-09
-1.60057e-07
-2.50826e-09
-1.60983e-07
-2.75973e-09
-1.61854e-07
-2.86372e-09
-1.62694e-07
-2.78988e-09
-1.6353e-07
-2.50659e-09
-1.64394e-07
-1.98959e-09
-1.65314e-07
-1.22208e-09
-1.66306e-07
-2.07268e-10
-1.67378e-07
1.03909e-09
-1.6851e-07
2.46529e-09
-1.69668e-07
3.99605e-09
-1.70794e-07
5.5276e-09
-1.71809e-07
6.9294e-09
-1.72621e-07
8.03646e-09
-1.73114e-07
8.6526e-09
-1.73151e-07
8.58066e-09
-1.72582e-07
7.6624e-09
-1.7126e-07
5.83673e-09
-1.691e-07
3.37138e-09
-1.66255e-07
1.19244e-09
5.44375e-10
-1.63269e-07
-5.07092e-10
3.13142e-09
-1.22072e-09
4.46002e-09
-1.96931e-09
4.68262e-09
-2.74608e-09
4.85618e-09
-3.55767e-09
5.07078e-09
-4.41052e-09
5.32575e-09
-5.30977e-09
5.6139e-09
-6.25932e-09
5.92758e-09
-7.26182e-09
6.25939e-09
-8.31887e-09
6.60259e-09
-9.43116e-09
6.95134e-09
-1.05986e-08
7.30085e-09
-1.18208e-08
7.64741e-09
-1.30968e-08
7.98835e-09
-1.44255e-08
8.32196e-09
-1.58058e-08
8.64736e-09
-1.72367e-08
8.96432e-09
-1.87173e-08
9.27312e-09
-2.02466e-08
9.57438e-09
-2.18243e-08
9.86898e-09
-2.34497e-08
1.01579e-08
-2.51228e-08
1.0442e-08
-2.68435e-08
1.07224e-08
-2.86119e-08
1.09998e-08
-3.04283e-08
1.12748e-08
-3.2293e-08
1.1548e-08
-3.42063e-08
1.18195e-08
-3.61688e-08
1.20896e-08
-3.81808e-08
1.23579e-08
-4.02427e-08
1.26242e-08
-4.23548e-08
1.28879e-08
-4.45174e-08
1.31483e-08
-4.67306e-08
1.34045e-08
-4.89944e-08
1.36555e-08
-5.13086e-08
1.39e-08
-5.36729e-08
1.41368e-08
-5.60867e-08
1.43646e-08
-5.85494e-08
1.45819e-08
-6.10601e-08
1.47873e-08
-6.36176e-08
1.4979e-08
-6.62207e-08
1.51556e-08
-6.88678e-08
1.53152e-08
-7.15572e-08
1.54561e-08
-7.42869e-08
1.55762e-08
-7.70544e-08
1.56736e-08
-7.98573e-08
1.57461e-08
-8.26925e-08
1.57914e-08
-8.55568e-08
1.58072e-08
-8.84464e-08
1.57911e-08
-9.13573e-08
1.57409e-08
-9.42852e-08
1.56542e-08
-9.72251e-08
1.55289e-08
-1.00172e-07
1.53629e-08
-1.0312e-07
1.51545e-08
-1.06064e-07
1.49021e-08
-1.08998e-07
1.46044e-08
-1.11915e-07
1.42605e-08
-1.14809e-07
1.38697e-08
-1.17672e-07
1.34318e-08
-1.20499e-07
1.29469e-08
-1.23282e-07
1.24158e-08
-1.26013e-07
1.18392e-08
-1.28686e-07
1.12186e-08
-1.31294e-07
1.0556e-08
-1.33828e-07
9.85396e-09
-1.36283e-07
9.11539e-09
-1.38651e-07
8.34403e-09
-1.40927e-07
7.54425e-09
-1.43103e-07
6.72104e-09
-1.45175e-07
5.88001e-09
-1.47138e-07
5.02805e-09
-1.48987e-07
4.17193e-09
-1.5072e-07
3.31971e-09
-1.52335e-07
2.48055e-09
-1.53832e-07
1.66504e-09
-1.55214e-07
8.86316e-10
-1.56485e-07
1.60162e-10
-1.57653e-07
-4.95389e-10
-1.58728e-07
-1.06072e-09
-1.59722e-07
-1.51418e-09
-1.60651e-07
-1.83083e-09
-1.61533e-07
-1.98144e-09
-1.62391e-07
-1.93236e-09
-1.63249e-07
-1.64775e-09
-1.64135e-07
-1.10417e-09
-1.65071e-07
-2.85594e-10
-1.66076e-07
7.97964e-10
-1.67153e-07
2.11597e-09
-1.68292e-07
3.60385e-09
-1.69464e-07
5.16786e-09
-1.70622e-07
6.68587e-09
-1.71702e-07
8.00925e-09
-1.7262e-07
8.9549e-09
-1.73267e-07
9.29923e-09
-1.73493e-07
8.80671e-09
-1.73112e-07
7.2811e-09
-1.71898e-07
4.62335e-09
-1.69644e-07
1.11711e-09
-1.66422e-07
-2.02942e-09
-2.9689e-09
-1.62909e-07
-4.93448e-10
3.62487e-09
-1.19262e-09
5.15919e-09
-1.92782e-09
5.41782e-09
-2.69268e-09
5.62104e-09
-3.49411e-09
5.87221e-09
-4.33867e-09
6.17031e-09
-5.23157e-09
6.5068e-09
-6.1766e-09
6.87262e-09
-7.17629e-09
7.25907e-09
-8.23197e-09
7.65827e-09
-9.34409e-09
8.06346e-09
-1.05123e-08
8.4691e-09
-1.17359e-08
8.871e-09
-1.30137e-08
9.26616e-09
-1.43445e-08
9.65274e-09
-1.5727e-08
1.00298e-08
-1.716e-08
1.03973e-08
-1.86424e-08
1.07556e-08
-2.01735e-08
1.11054e-08
-2.17525e-08
1.1448e-08
-2.33792e-08
1.17845e-08
-2.50532e-08
1.21161e-08
-2.67747e-08
1.24438e-08
-2.85437e-08
1.27688e-08
-3.03605e-08
1.30916e-08
-3.22256e-08
1.3413e-08
-3.41393e-08
1.37333e-08
-3.61022e-08
1.40524e-08
-3.81146e-08
1.43704e-08
-4.01771e-08
1.46867e-08
-4.22901e-08
1.50009e-08
-4.44537e-08
1.53119e-08
-4.66681e-08
1.5619e-08
-4.89334e-08
1.59208e-08
-5.12494e-08
1.6216e-08
-5.36158e-08
1.65032e-08
-5.60321e-08
1.67809e-08
-5.84975e-08
1.70474e-08
-6.10113e-08
1.73011e-08
-6.35723e-08
1.75401e-08
-6.61793e-08
1.77626e-08
-6.88307e-08
1.79666e-08
-7.15248e-08
1.81501e-08
-7.42595e-08
1.8311e-08
-7.70326e-08
1.84467e-08
-7.98415e-08
1.85549e-08
-8.26831e-08
1.8633e-08
-8.55543e-08
1.86783e-08
-8.84511e-08
1.8688e-08
-9.13697e-08
1.86595e-08
-9.43054e-08
1.859e-08
-9.72535e-08
1.8477e-08
-1.00209e-07
1.83181e-08
-1.03165e-07
1.81111e-08
-1.06117e-07
1.78543e-08
-1.09059e-07
1.75459e-08
-1.11983e-07
1.71849e-08
-1.14884e-07
1.67702e-08
-1.17754e-07
1.63015e-08
-1.20585e-07
1.57786e-08
-1.23372e-07
1.52022e-08
-1.26105e-07
1.45728e-08
-1.28779e-07
1.38921e-08
-1.31385e-07
1.31618e-08
-1.33915e-07
1.23847e-08
-1.36364e-07
1.15638e-08
-1.38723e-07
1.07032e-08
-1.40986e-07
9.80741e-09
-1.43147e-07
8.88208e-09
-1.45201e-07
7.93348e-09
-1.47142e-07
6.96907e-09
-1.48967e-07
5.99688e-09
-1.50673e-07
5.0262e-09
-1.5226e-07
4.06771e-09
-1.53729e-07
3.13397e-09
-1.55083e-07
2.24028e-09
-1.56328e-07
1.40487e-09
-1.57472e-07
6.48278e-10
-1.58525e-07
-7.4268e-12
-1.59499e-07
-5.39615e-10
-1.6041e-07
-9.19782e-10
-1.61275e-07
-1.11737e-09
-1.62113e-07
-1.09391e-09
-1.62948e-07
-8.12327e-10
-1.63808e-07
-2.44642e-10
-1.64716e-07
6.22652e-10
-1.65694e-07
1.77586e-09
-1.66752e-07
3.17402e-09
-1.67888e-07
4.73968e-09
-1.69082e-07
6.36165e-09
-1.70295e-07
7.89949e-09
-1.71474e-07
9.18747e-09
-1.72543e-07
1.00241e-08
-1.73398e-07
1.01541e-08
-1.73878e-07
9.2868e-09
-1.73752e-07
7.15579e-09
-1.72697e-07
3.56814e-09
-1.70329e-07
-1.25137e-09
-1.66578e-07
-5.77979e-09
-7.26621e-09
-1.62281e-07
-4.77255e-10
4.10212e-09
-1.15958e-09
5.84152e-09
-1.87914e-09
6.13737e-09
-2.63009e-09
6.37199e-09
-3.41967e-09
6.66179e-09
-4.25463e-09
7.00526e-09
-5.1402e-09
7.39237e-09
-6.08009e-09
7.8125e-09
-7.07658e-09
8.25556e-09
-8.13078e-09
8.71247e-09
-9.24278e-09
9.17546e-09
-1.0412e-08
9.63829e-09
-1.16372e-08
1.00963e-08
-1.29172e-08
1.05461e-08
-1.42504e-08
1.09859e-08
-1.56352e-08
1.14147e-08
-1.70705e-08
1.18326e-08
-1.8555e-08
1.22401e-08
-2.00879e-08
1.26383e-08
-2.16685e-08
1.30286e-08
-2.32964e-08
1.34124e-08
-2.49714e-08
1.37911e-08
-2.66936e-08
1.4166e-08
-2.84631e-08
1.45383e-08
-3.02803e-08
1.49088e-08
-3.21456e-08
1.52784e-08
-3.40596e-08
1.56472e-08
-3.60228e-08
1.60156e-08
-3.80356e-08
1.63832e-08
-4.00987e-08
1.67498e-08
-4.22124e-08
1.71145e-08
-4.4377e-08
1.74765e-08
-4.65927e-08
1.78347e-08
-4.88596e-08
1.81877e-08
-5.11776e-08
1.85339e-08
-5.35463e-08
1.88719e-08
-5.59653e-08
1.91999e-08
-5.84339e-08
1.9516e-08
-6.09513e-08
1.98184e-08
-6.35163e-08
2.01051e-08
-6.61278e-08
2.0374e-08
-6.87842e-08
2.0623e-08
-7.14838e-08
2.08498e-08
-7.42247e-08
2.10518e-08
-7.70044e-08
2.12265e-08
-7.98206e-08
2.13711e-08
-8.26701e-08
2.14826e-08
-8.55498e-08
2.15579e-08
-8.84559e-08
2.15941e-08
-9.13842e-08
2.15878e-08
-9.43302e-08
2.1536e-08
-9.72891e-08
2.14359e-08
-1.00255e-07
2.12845e-08
-1.03224e-07
2.10793e-08
-1.06188e-07
2.08183e-08
-1.09141e-07
2.04994e-08
-1.12078e-07
2.01212e-08
-1.1499e-07
1.96826e-08
-1.17871e-07
1.91827e-08
-1.20714e-07
1.86215e-08
-1.23511e-07
1.79991e-08
-1.26254e-07
1.73163e-08
-1.28937e-07
1.65744e-08
-1.3155e-07
1.57753e-08
-1.34087e-07
1.49217e-08
-1.3654e-07
1.40169e-08
-1.38902e-07
1.30651e-08
-1.41166e-07
1.20713e-08
-1.43325e-07
1.10416e-08
-1.45375e-07
9.98301e-09
-1.4731e-07
8.90374e-09
-1.49126e-07
7.81301e-09
-1.50821e-07
6.72142e-09
-1.52394e-07
5.64124e-09
-1.53847e-07
4.58694e-09
-1.55183e-07
3.57594e-09
-1.56407e-07
2.62871e-09
-1.57527e-07
1.76805e-09
-1.58552e-07
1.01789e-09
-1.59495e-07
4.03145e-10
-1.60368e-07
-4.65282e-11
-1.61187e-07
-2.98142e-10
-1.61974e-07
-3.06725e-10
-1.62753e-07
-3.33929e-11
-1.63553e-07
5.54832e-10
-1.64402e-07
1.4719e-09
-1.65329e-07
2.70239e-09
-1.66351e-07
4.19682e-09
-1.67477e-07
5.86504e-09
-1.68693e-07
7.57824e-09
-1.69971e-07
9.17719e-09
-1.71263e-07
1.04798e-08
-1.72508e-07
1.12692e-08
-1.73612e-07
1.12573e-08
-1.74408e-07
1.00829e-08
-1.74619e-07
7.36708e-09
-1.73795e-07
2.74435e-09
-1.71303e-07
-3.74314e-09
-1.66822e-07
-1.02607e-08
-1.27307e-08
-1.61358e-07
-4.58403e-10
4.56052e-09
-1.12133e-09
6.50445e-09
-1.82288e-09
6.83892e-09
-2.55785e-09
7.10696e-09
-3.33389e-09
7.43782e-09
-4.15793e-09
7.82931e-09
-5.03524e-09
8.26968e-09
-5.96939e-09
8.74665e-09
-6.96243e-09
9.2486e-09
-8.0151e-09
9.76514e-09
-9.12713e-09
1.02875e-08
-1.02975e-08
1.08087e-08
-1.15248e-08
1.13236e-08
-1.28073e-08
1.18286e-08
-1.41432e-08
1.23218e-08
-1.55308e-08
1.28023e-08
-1.69687e-08
1.32704e-08
-1.84555e-08
1.37269e-08
-1.99904e-08
1.41732e-08
-2.15726e-08
1.46109e-08
-2.32018e-08
1.50416e-08
-2.48777e-08
1.54671e-08
-2.66006e-08
1.58888e-08
-2.83705e-08
1.63082e-08
-3.0188e-08
1.67263e-08
-3.20535e-08
1.71439e-08
-3.39676e-08
1.75614e-08
-3.59309e-08
1.79789e-08
-3.79441e-08
1.83964e-08
-4.00076e-08
1.88133e-08
-4.2122e-08
1.92289e-08
-4.42875e-08
1.96421e-08
-4.65046e-08
2.00517e-08
-4.87731e-08
2.04562e-08
-5.10932e-08
2.0854e-08
-5.34644e-08
2.12431e-08
-5.58863e-08
2.16218e-08
-5.83584e-08
2.19881e-08
-6.08796e-08
2.23397e-08
-6.34491e-08
2.26746e-08
-6.60656e-08
2.29905e-08
-6.87275e-08
2.3285e-08
-7.14333e-08
2.35555e-08
-7.4181e-08
2.37994e-08
-7.69682e-08
2.40138e-08
-7.97926e-08
2.41954e-08
-8.26512e-08
2.43411e-08
-8.55406e-08
2.44474e-08
-8.84572e-08
2.45107e-08
-9.13968e-08
2.45274e-08
-9.43549e-08
2.44941e-08
-9.73265e-08
2.44074e-08
-1.00306e-07
2.42641e-08
-1.03288e-07
2.40614e-08
-1.06267e-07
2.37966e-08
-1.09235e-07
2.34675e-08
-1.12186e-07
2.30724e-08
-1.15113e-07
2.26099e-08
-1.18009e-07
2.2079e-08
-1.20867e-07
2.14792e-08
-1.23679e-07
2.08107e-08
-1.26437e-07
2.0074e-08
-1.29133e-07
1.92704e-08
-1.31759e-07
1.84018e-08
-1.34308e-07
1.74708e-08
-1.36772e-07
1.64809e-08
-1.39144e-07
1.54365e-08
-1.41416e-07
1.43432e-08
-1.43581e-07
1.32073e-08
-1.45635e-07
1.20366e-08
-1.47571e-07
1.08401e-08
-1.49386e-07
9.62821e-09
-1.51078e-07
8.41276e-09
-1.52644e-07
7.20755e-09
-1.54086e-07
6.02883e-09
-1.55406e-07
4.896e-09
-1.56609e-07
3.83167e-09
-1.57702e-07
2.86068e-09
-1.58692e-07
2.00881e-09
-1.59592e-07
1.30296e-09
-1.60413e-07
7.74551e-10
-1.61173e-07
4.61416e-10
-1.61891e-07
4.11298e-10
-1.62595e-07
6.7053e-10
-1.63317e-07
1.27703e-09
-1.64093e-07
2.2475e-09
-1.64957e-07
3.56629e-09
-1.65937e-07
5.17753e-09
-1.6705e-07
6.97814e-09
-1.68293e-07
8.82113e-09
-1.69644e-07
1.05276e-08
-1.71064e-07
1.19004e-08
-1.72508e-07
1.27133e-08
-1.73903e-07
1.26519e-08
-1.75092e-07
1.12722e-08
-1.75757e-07
8.03174e-09
-1.7529e-07
2.27755e-09
-1.72699e-07
-6.33386e-09
-1.67223e-07
-1.5737e-08
-1.99413e-08
-1.60013e-07
-4.36728e-10
4.99725e-09
-1.0775e-09
7.14522e-09
-1.75853e-09
7.51995e-09
-2.47536e-09
7.82379e-09
-3.2361e-09
8.19856e-09
-4.04791e-09
8.64112e-09
-4.91607e-09
9.13783e-09
-5.84397e-09
9.67456e-09
-6.83336e-09
1.0238e-08
-7.88457e-09
1.08163e-08
-8.99689e-09
1.13998e-08
-1.01689e-08
1.19807e-08
-1.13986e-08
1.25533e-08
-1.2684e-08
1.3114e-08
-1.40231e-08
1.36608e-08
-1.54138e-08
1.41931e-08
-1.68546e-08
1.47112e-08
-1.8344e-08
1.52164e-08
-1.9881e-08
1.57102e-08
-2.1465e-08
1.61948e-08
-2.30954e-08
1.66721e-08
-2.47723e-08
1.71439e-08
-2.64958e-08
1.76123e-08
-2.8266e-08
1.80785e-08
-3.00836e-08
1.85439e-08
-3.19492e-08
1.90094e-08
-3.38633e-08
1.94755e-08
-3.58266e-08
1.99423e-08
-3.78399e-08
2.04097e-08
-3.99038e-08
2.08772e-08
-4.20187e-08
2.13438e-08
-4.41852e-08
2.18086e-08
-4.64035e-08
2.227e-08
-4.86738e-08
2.27265e-08
-5.09959e-08
2.31761e-08
-5.33698e-08
2.3617e-08
-5.57948e-08
2.40469e-08
-5.82705e-08
2.44637e-08
-6.0796e-08
2.48652e-08
-6.33702e-08
2.52488e-08
-6.5992e-08
2.56123e-08
-6.86599e-08
2.59529e-08
-7.13724e-08
2.6268e-08
-7.41274e-08
2.65545e-08
-7.69229e-08
2.68093e-08
-7.97563e-08
2.70288e-08
-8.26247e-08
2.72095e-08
-8.55249e-08
2.73475e-08
-8.84531e-08
2.74389e-08
-9.14052e-08
2.74795e-08
-9.43766e-08
2.74656e-08
-9.73623e-08
2.73931e-08
-1.00357e-07
2.72587e-08
-1.03354e-07
2.70589e-08
-1.06349e-07
2.67909e-08
-1.09333e-07
2.64522e-08
-1.12301e-07
2.60405e-08
-1.15246e-07
2.55543e-08
-1.18159e-07
2.49924e-08
-1.21034e-07
2.43542e-08
-1.23863e-07
2.36394e-08
-1.26638e-07
2.28485e-08
-1.2935e-07
2.19828e-08
-1.31992e-07
2.10439e-08
-1.34556e-07
2.00347e-08
-1.37034e-07
1.89587e-08
-1.39418e-07
1.78206e-08
-1.41701e-07
1.6626e-08
-1.43876e-07
1.53821e-08
-1.45936e-07
1.40971e-08
-1.47877e-07
1.27809e-08
-1.49693e-07
1.14449e-08
-1.51383e-07
1.01021e-08
-1.52943e-07
8.76783e-09
-1.54374e-07
7.45993e-09
-1.55678e-07
6.19968e-09
-1.56858e-07
5.01166e-09
-1.5792e-07
3.9227e-09
-1.58872e-07
2.96045e-09
-1.59722e-07
2.15384e-09
-1.60485e-07
1.5368e-09
-1.61175e-07
1.15185e-09
-1.61815e-07
1.05166e-09
-1.62435e-07
1.29026e-09
-1.63071e-07
1.91251e-09
-1.63764e-07
2.94046e-09
-1.64558e-07
4.36036e-09
-1.65492e-07
6.11183e-09
-1.66593e-07
8.07879e-09
-1.67866e-07
1.00942e-08
-1.69296e-07
1.19583e-08
-1.70857e-07
1.34611e-08
-1.7252e-07
1.43759e-08
-1.74248e-07
1.43805e-08
-1.75926e-07
1.29499e-08
-1.77213e-07
9.31848e-09
-1.77306e-07
2.37059e-09
-1.74668e-07
-8.97185e-09
-1.67759e-07
-2.26457e-08
-2.99107e-08
-1.5779e-07
-4.12017e-10
5.40927e-09
-1.02768e-09
7.76088e-09
-1.68551e-09
8.17778e-09
-2.38193e-09
8.52022e-09
-3.12556e-09
8.94219e-09
-3.92381e-09
9.43937e-09
-4.78196e-09
9.99598e-09
-5.70319e-09
1.05958e-08
-6.68883e-09
1.12236e-08
-7.73875e-09
1.18663e-08
-8.85172e-09
1.25128e-08
-1.00257e-08
1.31547e-08
-1.12585e-08
1.3786e-08
-1.25474e-08
1.44029e-08
-1.38901e-08
1.50035e-08
-1.52843e-08
1.55873e-08
-1.67283e-08
1.61552e-08
-1.82205e-08
1.67086e-08
-1.97599e-08
1.72496e-08
-2.13457e-08
1.77806e-08
-2.29775e-08
1.83039e-08
-2.46553e-08
1.88217e-08
-2.63792e-08
1.93362e-08
-2.81497e-08
1.9849e-08
-2.99673e-08
2.03615e-08
-3.18327e-08
2.08748e-08
-3.37466e-08
2.13894e-08
-3.57098e-08
2.19055e-08
-3.77231e-08
2.2423e-08
-3.97871e-08
2.29412e-08
-4.19026e-08
2.34593e-08
-4.40699e-08
2.39759e-08
-4.62894e-08
2.44896e-08
-4.85614e-08
2.49985e-08
-5.08858e-08
2.55005e-08
-5.32623e-08
2.59935e-08
-5.56907e-08
2.64753e-08
-5.81702e-08
2.69433e-08
-6.07001e-08
2.73951e-08
-6.32794e-08
2.78281e-08
-6.59069e-08
2.82398e-08
-6.85812e-08
2.86272e-08
-7.13008e-08
2.89876e-08
-7.40638e-08
2.93175e-08
-7.6868e-08
2.96135e-08
-7.97111e-08
2.98719e-08
-8.25902e-08
3.00886e-08
-8.5502e-08
3.02594e-08
-8.84429e-08
3.03797e-08
-9.14086e-08
3.04453e-08
-9.43947e-08
3.04516e-08
-9.73958e-08
3.03943e-08
-1.00407e-07
3.02695e-08
-1.03421e-07
3.00735e-08
-1.06433e-07
2.98029e-08
-1.09436e-07
2.94549e-08
-1.12423e-07
2.90272e-08
-1.15386e-07
2.85176e-08
-1.18318e-07
2.79249e-08
-1.21212e-07
2.72482e-08
-1.2406e-07
2.6487e-08
-1.26853e-07
2.56417e-08
-1.29584e-07
2.47134e-08
-1.32244e-07
2.37037e-08
-1.34824e-07
2.26154e-08
-1.37318e-07
2.14521e-08
-1.39716e-07
2.02187e-08
-1.42011e-07
1.89213e-08
-1.44196e-07