/*--------------------------------*- C++ -*----------------------------------*\
| =========                 |                                                 |
| \\      /  F ield         | OpenFOAM: The Open Source CFD Toolbox           |
|  \\    /   O peration     | Version:  2.4.0                                 |
|   \\  /    A nd           | Web:      www.OpenFOAM.org                      |
|    \\/     M anipulation  |                                                 |
\*---------------------------------------------------------------------------*/
FoamFile
{
    version     2.0;
    format      ascii;
    class       volScalarField;
    location    "0.448";
    object      p;
}
// * * * * * * * * * * * * * * * * * * * * * * * * * * * * * * * * * * * * * //

dimensions      [1 -1 -2 0 0 0 0];

internalField   nonuniform List<scalar> 
10000
(
0.000435249
0.00043508
0.000434844
0.000434616
0.000434447
0.000434367
0.000434392
0.00043453
0.000434783
0.000435152
0.000435633
0.000436223
0.000436917
0.000437708
0.000438592
0.00043956
0.000440604
0.000441718
0.000442896
0.000444132
0.000445426
0.00044678
0.0004482
0.000449698
0.000451291
0.000453003
0.000454861
0.0004569
0.000459158
0.000461676
0.000464494
0.000467643
0.000471136
0.000474962
0.000479083
0.00048343
0.000487926
0.000492497
0.000497102
0.000501726
0.000506382
0.000511095
0.000515888
0.000520783
0.000525788
0.000530904
0.000536124
0.000541435
0.000546821
0.000552264
0.000435419
0.000435251
0.000435053
0.000434878
0.00043476
0.000434721
0.000434776
0.000434933
0.000435197
0.000435569
0.000436048
0.000436632
0.000437318
0.000438102
0.000438979
0.000439944
0.000440992
0.000442117
0.000443315
0.000444584
0.000445922
0.000447333
0.000448824
0.000450406
0.000452094
0.000453909
0.000455874
0.00045802
0.000460377
0.000462978
0.000465854
0.000469027
0.000472505
0.000476279
0.000480315
0.000484559
0.000488946
0.000493417
0.000497936
0.000502493
0.000507094
0.000511757
0.0005165
0.000521337
0.000526276
0.000531317
0.000536453
0.000541674
0.000546966
0.000552313
0.000435656
0.000435452
0.000435257
0.000435111
0.000435027
0.00043502
0.000435099
0.000435273
0.000435546
0.000435921
0.000436399
0.000436979
0.00043766
0.000438439
0.000439314
0.00044028
0.000441335
0.000442475
0.000443696
0.000444998
0.00044638
0.000447846
0.000449402
0.000451059
0.00045283
0.000454732
0.000456788
0.00045902
0.000461456
0.000464122
0.000467043
0.000470236
0.000473709
0.000477452
0.000481439
0.000485622
0.000489935
0.000494327
0.000498768
0.00050325
0.000507783
0.000512382
0.000517062
0.000521834
0.000526703
0.000531669
0.000536726
0.000541864
0.00054707
0.00055233
0.00043588
0.00043563
0.000435414
0.000435273
0.000435205
0.000435214
0.000435308
0.000435493
0.000435773
0.000436151
0.000436628
0.000437206
0.000437885
0.000438663
0.000439539
0.000440511
0.000441577
0.000442734
0.000443979
0.000445311
0.000446732
0.000448243
0.00044985
0.000451564
0.000453394
0.000455357
0.000457472
0.000459759
0.000462242
0.000464943
0.000467888
0.000471094
0.000474572
0.000478317
0.000482305
0.000486489
0.000490785
0.000495134
0.00049951
0.000503915
0.000508369
0.000512891
0.000517499
0.000522203
0.000527006
0.000531906
0.000536896
0.000541967
0.000547105
0.000552299
0.000436035
0.000435746
0.000435509
0.000435365
0.000435303
0.000435321
0.000435424
0.000435615
0.000435898
0.000436277
0.000436753
0.00043733
0.000438007
0.000438786
0.000439667
0.000440647
0.000441727
0.000442903
0.000444173
0.000445535
0.00044699
0.000448539
0.000450188
0.000451944
0.000453817
0.000455821
0.000457971
0.000460288
0.000462791
0.000465504
0.000468455
0.000471666
0.000475155
0.000478926
0.000482966
0.000487218
0.000491552
0.000495889
0.000500202
0.000504518
0.000508875
0.000513306
0.000517832
0.000522463
0.000527201
0.000532042
0.000536975
0.000541992
0.000547078
0.000552219
0.00043609
0.000435777
0.000435527
0.000435381
0.000435323
0.000435347
0.000435454
0.000435648
0.000435932
0.000436309
0.000436783
0.000437357
0.000438032
0.000438813
0.000439698
0.00044069
0.000441785
0.000442983
0.000444279
0.000445671
0.000447158
0.000448741
0.000450423
0.000452211
0.000454113
0.00045614
0.000458308
0.000460632
0.000463132
0.000465832
0.000468765
0.000471967
0.000475466
0.000479286
0.000483434
0.000487853
0.000492295
0.000496646
0.000500881
0.000505079
0.000509311
0.000513628
0.000518059
0.000522614
0.000527291
0.00053208
0.000536968
0.000541941
0.000546986
0.00055209
0.000436028
0.00043571
0.000435458
0.000435316
0.000435263
0.000435291
0.000435401
0.000435595
0.000435876
0.000436249
0.000436717
0.000437285
0.000437958
0.000438738
0.00043963
0.000440633
0.000441747
0.000442969
0.000444293
0.000445716
0.000447234
0.000448847
0.000450557
0.000452368
0.000454286
0.000456322
0.000458488
0.000460799
0.00046327
0.000465924
0.000468808
0.000471973
0.000475465
0.000479346
0.000483676
0.00048843
0.000493087
0.000497479
0.000501591
0.00050561
0.000509668
0.000513842
0.000518165
0.000522643
0.000527266
0.000532013
0.000536867
0.00054181
0.000546827
0.000551906
0.000435843
0.00043554
0.000435301
0.000435169
0.000435123
0.000435155
0.000435266
0.000435457
0.000435732
0.000436096
0.000436555
0.000437114
0.00043778
0.000438558
0.000439455
0.000440471
0.000441606
0.000442857
0.000444214
0.00044567
0.000447219
0.00044886
0.000450591
0.000452416
0.000454339
0.000456366
0.000458509
0.000460782
0.000463188
0.000465746
0.000468519
0.000471594
0.000475024
0.000478945
0.000483551
0.000488983
0.000494041
0.000498505
0.000502383
0.000506114
0.000509921
0.000513914
0.000518119
0.000522527
0.000527109
0.000531831
0.000536666
0.000541593
0.000546595
0.00055166
0.000435542
0.000435269
0.000435057
0.000434941
0.000434906
0.000434942
0.000435052
0.000435237
0.000435502
0.000435852
0.000436295
0.000436839
0.000437493
0.000438266
0.000439165
0.000440196
0.000441357
0.000442643
0.00044404
0.000445533
0.000447114
0.000448778
0.000450522
0.000452344
0.000454244
0.000456224
0.000458296
0.000460476
0.000462751
0.000465116
0.000467671
0.000470548
0.000473771
0.000477603
0.000482568
0.000489399
0.000495206
0.000499807
0.000503233
0.000506511
0.000509987
0.000513775
0.00051787
0.000522232
0.000526801
0.000531525
0.000536361
0.000541286
0.000546285
0.000551349
0.000435135
0.000434909
0.000434733
0.00043464
0.000434617
0.000434658
0.000434765
0.00043494
0.000435189
0.000435519
0.000435939
0.000436459
0.000437093
0.000437854
0.000438752
0.000439797
0.000440991
0.000442322
0.000443768
0.000445301
0.000446903
0.000448568
0.000450288
0.000452051
0.000453857
0.000455709
0.000457628
0.000459652
0.000461709
0.00046374
0.000465923
0.000468502
0.00047125
0.000474591
0.000479874
0.000489557
0.000496563
0.000501327
0.000503779
0.000506395
0.000509532
0.000513199
0.000517284
0.000521688
0.000526315
0.000531085
0.00053595
0.000540888
0.000545895
0.000550967
0.000434642
0.000434472
0.000434341
0.000434276
0.000434267
0.000434311
0.000434411
0.000434571
0.000434797
0.000435098
0.000435485
0.000435971
0.000436573
0.00043731
0.0004382
0.000439258
0.000440489
0.000441877
0.000443375
0.000444924
0.000446492
0.000448083
0.000449693
0.000451313
0.000452959
0.000454654
0.000456444
0.000458396
0.000460256
0.000461805
0.000463417
0.000465671
0.000467832
0.00046999
0.000474842
0.000490546
0.000498984
0.000503622
0.000503625
0.000505065
0.000507819
0.000511557
0.000515908
0.000520626
0.000525519
0.000530466
0.000535424
0.0005404
0.000545423
0.000550511
0.000434085
0.000433978
0.000433897
0.00043386
0.000433864
0.000433909
0.000433999
0.000434138
0.000434333
0.000434595
0.000434934
0.00043537
0.000435922
0.000436616
0.000437479
0.000438532
0.000439788
0.000441221
0.000442742
0.000444235
0.000445679
0.000447126
0.000448591
0.000450066
0.000451608
0.00045326
0.000455112
0.000457345
0.000459233
0.000460145
0.000461134
0.000462675
0.000464387
0.000465248
0.000466853
0.000496455
0.000506425
0.000509675
0.00050386
0.000502524
0.000504358
0.000508224
0.000513092
0.00051846
0.000523976
0.000529403
0.000534655
0.000539772
0.00054485
0.000549972
0.00043349
0.000433448
0.000433418
0.000433409
0.000433424
0.000433466
0.00043354
0.000433651
0.000433806
0.000434015
0.000434291
0.000434653
0.000435123
0.000435729
0.0004365
0.000437475
0.000438686
0.00044012
0.000441634
0.000443053
0.000444404
0.000445792
0.000447197
0.000448587
0.000450095
0.000451762
0.000453815
0.000456947
0.00045947
0.000459264
0.000459682
0.000466986
0.000462916
0.0004546
0.000456099
0.000537532
0.000540643
0.000530831
0.000506342
0.000497461
0.000498558
0.000503458
0.000509278
0.000515402
0.000521565
0.000527553
0.000533268
0.000538724
0.000544016
0.000549272
0.000432888
0.000432907
0.000432923
0.000432937
0.000432959
0.000432993
0.000433046
0.000433122
0.000433226
0.000433369
0.000433559
0.000433808
0.000434125
0.000434529
0.000435074
0.000435844
0.000436927
0.000438351
0.000439935
0.000441438
0.000442924
0.000444479
0.000445928
0.000447169
0.000448529
0.000449922
0.000451782
0.000456495
0.000461339
0.000463469
0.000468171
0.000467882
0.000458301
0.000472527
0.000422822
0.000646172
0.000628674
0.00058199
0.000501153
0.000486147
0.000492549
0.000501175
0.000507917
0.000513974
0.000519937
0.000525769
0.00053143
0.000536983
0.000542516
0.0005481
0.000432307
0.000432378
0.000432431
0.000432462
0.000432484
0.000432506
0.000432532
0.000432566
0.000432611
0.00043267
0.000432738
0.000432795
0.000432826
0.000432884
0.0004331
0.000433624
0.000434587
0.000436041
0.000437803
0.000439638
0.000441599
0.000443625
0.000445193
0.000446029
0.000446841
0.0004471
0.000447444
0.000454252
0.000462768
0.00047006
0.000482127
0.000478269
0.000470748
0.000405727
0.000305594
0.00156143
0.00108114
0.000792071
0.000579595
0.000525259
0.000520047
0.000515224
0.000514417
0.000516779
0.000520824
0.000525427
0.000530153
0.000535051
0.000540317
0.000546098
0.000431776
0.000431884
0.000431961
0.000431999
0.000432015
0.000432019
0.000432014
0.000432002
0.000431979
0.000431933
0.000431815
0.000431564
0.000431207
0.000430914
0.000430888
0.000431276
0.000432187
0.000433656
0.000435605
0.000438007
0.00044088
0.000443863
0.000445777
0.000445913
0.000445394
0.00044252
0.000439978
0.000450264
0.00046379
0.000481508
0.000503115
0.000583019
0.000557399
0.000738558
0.00228533
0.0102817
0.0106803
0.0083713
0.00119319
0.000721021
0.000571962
0.000534038
0.000522467
0.000520523
0.000522672
0.000525989
0.000529475
0.000533244
0.000537743
0.000543464
0.000431319
0.000431443
0.000431527
0.000431561
0.000431564
0.000431546
0.000431508
0.000431449
0.000431353
0.000431168
0.000430789
0.000430182
0.000429522
0.000429085
0.000429058
0.000429504
0.000430465
0.000431976
0.000434215
0.000437358
0.000441584
0.000446396
0.000449523
0.000449075
0.000446452
0.000436941
0.000423849
0.000443466
0.00046315
0.000474957
0.000491911
0.000511501
0.000545284
0.00062873
0.00150628
0.0095466
0.010099
0.00423024
0.000824085
0.000605777
0.000553974
0.000530833
0.000519145
0.000518759
0.000522671
0.000525998
0.000528403
0.000530808
0.000534311
0.000540334
0.000430956
0.000431071
0.000431142
0.000431159
0.000431141
0.000431098
0.00043103
0.000430928
0.000430754
0.0004304
0.000429748
0.000428898
0.000428176
0.000427883
0.000428138
0.000428885
0.000430146
0.00043204
0.000434884
0.000439036
0.000445128
0.000453202
0.000459153
0.00045999
0.000468723
0.000441883
0.000383544
0.000441793
0.0004767
0.000481809
0.000486448
0.000495727
0.000481228
0.000470847
0.000459996
0.00150378
0.00136224
0.000960206
0.000653148
0.000580598
0.000556454
0.000529744
0.000513155
0.000515871
0.00052207
0.000524986
0.000525625
0.000526088
0.000528414
0.000536205
0.000430695
0.000430773
0.000430808
0.000430795
0.00043075
0.000430683
0.00043059
0.000430454
0.000430205
0.000429691
0.000428858
0.00042797
0.000427424
0.000427494
0.000428229
0.000429497
0.00043147
0.000434583
0.000438993
0.000444815
0.000454256
0.000468875
0.000473453
0.000479691
0.000467458
0.000478019
0.00162617
0.000490654
0.00050194
0.000494587
0.000487074
0.000493776
0.000481898
0.000452613
0.000454149
0.000652191
0.000680277
0.000587869
0.000495714
0.000492943
0.000500882
0.000500803
0.000506693
0.000518099
0.000523506
0.000523382
0.00052062
0.00051795
0.000518694
0.000530664
0.000430535
0.000430548
0.000430524
0.000430467
0.000430391
0.000430301
0.000430193
0.000430038
0.000429734
0.000429122
0.000428258
0.000427511
0.000427275
0.00042777
0.00042899
0.000430734
0.000433399
0.000438099
0.000445048
0.00045434
0.000475274
0.000493818
0.000504743
0.000491769
0.000521476
0.000620287
0.000826804
0.000605753
0.000526563
0.000503289
0.000491355
0.000482894
0.000484516
0.000497108
0.000497865
0.000530921
0.000545338
0.000534185
0.000519032
0.000524059
0.000525975
0.000517717
0.000509336
0.000521252
0.000526243
0.000521244
0.000513472
0.000503977
0.000499292
0.000525371
0.000430464
0.000430382
0.000430277
0.000430165
0.000430053
0.000429944
0.000429833
0.000429679
0.000429361
0.00042875
0.000427991
0.000427491
0.000427601
0.000428462
0.000430053
0.00043193
0.000434759
0.000440373
0.000449095
0.000456002
0.000470587
0.000497135
0.000516326
0.000614196
0.000597686
0.000677707
0.00063298
0.000530552
0.000507695
0.000509212
0.000498947
0.000486781
0.000478984
0.000478711
0.000498921
0.000531223
0.000545177
0.000538903
0.000523953
0.000514443
0.000516352
0.000542108
0.00138229
0.000535897
0.000537006
0.000525681
0.000509026
0.000486455
0.000462542
0.000543856
0.000430454
0.000430253
0.000430049
0.000429871
0.00042972
0.000429596
0.000429492
0.000429364
0.000429088
0.000428571
0.000428009
0.0004278
0.000428244
0.000429431
0.000431375
0.000433408
0.000436592
0.00044261
0.000451733
0.00043443
0.000404913
0.00179338
0.000590264
0.000491883
0.000634486
0.00095463
0.00108265
0.000390768
0.000588245
0.000510909
0.000501716
0.000494139
0.000482149
0.00047877
0.000484819
0.000501239
0.000509286
0.000513757
0.000517373
0.000525281
0.000521981
0.000539362
0.000575111
0.000537239
0.000520391
0.000524109
0.000525516
0.000497054
0.000496632
0.000713145
0.000430468
0.000430129
0.00042981
0.000429558
0.000429366
0.00042923
0.000429144
0.000429064
0.000428879
0.000428526
0.000428206
0.000428291
0.000429055
0.000430626
0.000433114
0.000436061
0.000440972
0.00044906
0.000454529
0.000471681
0.00072804
0.000622863
0.000686933
0.000506853
0.00566476
0.0104916
0.0103507
0.00344116
0.000612512
0.000538268
0.000480466
0.000478977
0.000474652
0.000474956
0.000480884
0.000491913
0.000502251
0.000510795
0.000519455
0.000529485
0.000540603
0.000552116
0.000555241
0.000545835
0.000536443
0.000538171
0.000541918
0.000488714
0.000194014
0.00541627
0.000430462
0.000429972
0.000429528
0.000429197
0.000428962
0.000428815
0.000428751
0.000428734
0.000428673
0.000428519
0.000428449
0.0004288
0.000429847
0.000431794
0.000434909
0.000439042
0.000445824
0.000452676
0.000465056
0.00107283
0.000534266
0.00061973
0.000573434
0.00188839
0.00989371
0.0113632
0.0100852
0.00913408
0.00105897
0.000571088
0.00092265
0.000464659
0.00046962
0.000469711
0.000477459
0.000485213
0.000492777
0.000499696
0.000506334
0.000512045
0.000517953
0.000549572
0.000572965
0.000587103
0.000574762
0.000571777
0.000633086
0.000784828
0.00431921
0.00738665
0.000430384
0.000429738
0.000429165
0.000428753
0.000428473
0.000428314
0.000428273
0.000428324
0.000428396
0.000428446
0.00042861
0.000429179
0.000430427
0.00043262
0.000436394
0.000441565
0.000448183
0.000456266
0.000541133
0.000479671
0.000468617
0.000541575
0.000571905
0.00214505
0.0103294
0.0113219
0.0108299
0.00869232
0.00113245
0.000577865
0.000480489
0.000478657
0.000482238
0.000478643
0.000477387
0.000484137
0.000492901
0.000501825
0.000509756
0.000520782
0.000536596
0.000577404
0.000862828
0.000605687
0.000590405
0.000582356
0.000603224
0.000594928
0.000675112
0.00738061
0.000430181
0.000429381
0.000428683
0.000428189
0.000427864
0.000427692
0.000427669
0.000427782
0.00042798
0.000428219
0.000428584
0.000429304
0.000430621
0.00043292
0.000436979
0.000441537
0.00044687
0.000479449
0.000466408
0.000473973
0.000515699
0.000499197
0.00046917
0.000481977
0.00593064
0.011083
0.0105584
0.00354513
0.00059725
0.000569168
0.000519816
0.000533927
0.00052947
0.000490807
0.000479428
0.000480692
0.000493165
0.000505559
0.000512543
0.00051499
0.000520848
0.000511477
0.000503593
0.000535521
0.000568265
0.000595302
0.00061064
0.000571403
0.00057068
0.00111341
0.000429802
0.00042886
0.000428043
0.000427472
0.000427103
0.000426915
0.000426905
0.000427067
0.000427369
0.000427771
0.000428305
0.000429122
0.000430433
0.000432766
0.000435962
0.000439525
0.000452067
0.000451819
0.000452649
0.000464913
0.000517534
0.000479629
0.000445755
0.000399756
0.00067384
0.000953645
0.00109938
0.000360197
0.000507808
0.000517473
0.000563141
0.000590912
0.000585115
0.00123165
0.000471614
0.000487968
0.000492524
0.000509708
0.000536166
0.000523153
0.000511694
0.000511549
0.000510298
0.000521137
0.000558467
0.000635931
0.000728591
0.000739493
0.00064392
0.00049137
0.000429202
0.000428133
0.00042721
0.000426571
0.000426161
0.000425955
0.000425952
0.000426148
0.000426529
0.000427061
0.000427738
0.000428642
0.000429944
0.000431862
0.000434579
0.000438676
0.000442487
0.000446471
0.000449819
0.000447781
0.000734657
0.000471671
0.000462044
0.00045485
0.000515112
0.000598448
0.000569462
0.000463961
0.000473091
0.00050433
0.000525757
0.00127148
0.000512639
0.000510239
0.000489342
0.000495727
0.000497522
0.000506743
0.00136749
0.00053265
0.000525274
0.000513924
0.000501059
0.000477006
0.000523792
0.000577479
0.000851618
0.000854917
0.000675302
0.0005593
0.000428342
0.000427168
0.000426156
0.000425458
0.000425012
0.000424789
0.000424787
0.000425005
0.000425438
0.000426066
0.000426868
0.000427867
0.000429154
0.000430853
0.000433115
0.000436106
0.000440253
0.000443488
0.000444929
0.000451429
0.000447149
0.00045832
0.000477587
0.000520739
0.000507736
0.000538417
0.00053024
0.000472404
0.00048251
0.000487788
0.000480477
0.000452657
0.000673322
0.000501021
0.000494488
0.000494848
0.000501525
0.000522568
0.000497089
0.000521628
0.000532152
0.000522989
0.00050108
0.000431732
0.000327044
0.000833982
0.0027594
0.00370605
0.000763752
0.000189898
0.000427192
0.000425937
0.000424856
0.000424111
0.000423635
0.000423398
0.000423394
0.000423624
0.000424087
0.000424777
0.000425674
0.000426768
0.000428084
0.000429679
0.000431648
0.000434143
0.000437214
0.000440283
0.000442199
0.00044657
0.000447828
0.000457296
0.000465738
0.000470601
0.000486904
0.000619241
0.000488618
0.000497203
0.000496833
0.000465677
0.000466498
0.000460809
0.000469556
0.000486562
0.00049364
0.000495608
0.000501088
0.000504665
0.000509999
0.000524939
0.000539408
0.000549846
0.000555828
0.000514489
0.000315684
0.0114405
0.0186657
0.0190619
0.0139553
0.000800755
0.00042573
0.00042442
0.000423292
0.000422514
0.000422018
0.000421769
0.000421763
0.000421999
0.000422478
0.0004232
0.000424158
0.000425336
0.000426725
0.000428329
0.000430171
0.000432292
0.000434889
0.000437995
0.000442222
0.000444056
0.000446977
0.000452259
0.000460091
0.000461846
0.000468964
0.000473281
0.000481534
0.000486081
0.000454614
0.0004575
0.000461754
0.000463964
0.000469676
0.000478944
0.000485887
0.00049162
0.000498013
0.000506026
0.000517188
0.00053364
0.000554905
0.000581238
0.000628059
0.000753229
0.00313014
0.0191341
0.0189472
0.019051
0.019137
0.00648829
0.000423944
0.000422604
0.000421451
0.000420655
0.000420148
0.000419894
0.000419887
0.000420126
0.000420612
0.000421348
0.000422334
0.000423564
0.000425026
0.000426702
0.000428576
0.000430668
0.000433134
0.000436143
0.000439373
0.000441272
0.000444214
0.000448347
0.000452582
0.000455819
0.000459794
0.000463783
0.000468969
0.000459768
0.000454889
0.000455583
0.000458254
0.000461122
0.000466948
0.000473473
0.00048059
0.000487913
0.000496209
0.000505794
0.00051734
0.000535115
0.000559803
0.000596222
0.000654363
0.000781809
0.00202733
0.0188174
0.0188906
0.0190228
0.0190085
0.0042289
0.000421828
0.000420485
0.000419327
0.000418528
0.00041802
0.000417767
0.000417762
0.000418004
0.000418494
0.000419232
0.000420222
0.000421467
0.000422961
0.000424695
0.000426647
0.000428816
0.000431276
0.000434049
0.000436892
0.00043981
0.000442589
0.000445819
0.000448426
0.000450867
0.000453594
0.000455478
0.000456374
0.000454144
0.000452168
0.000451663
0.000453638
0.00045715
0.0004627
0.00046954
0.000476641
0.000484127
0.000492596
0.000502253
0.000513883
0.000529018
0.000549786
0.000579883
0.000616503
0.000661214
0.000758969
0.0122562
0.018728
0.0191915
0.0143189
0.00166483
0.000419385
0.00041806
0.000416918
0.000416131
0.000415632
0.000415388
0.00041539
0.000415637
0.000416127
0.000416861
0.000417841
0.000419069
0.000420543
0.000422255
0.000424187
0.000426324
0.000428658
0.000431157
0.000433743
0.000436346
0.000439002
0.000441833
0.000444433
0.000446841
0.000448872
0.000450019
0.000450143
0.00044962
0.000449097
0.000449697
0.000451535
0.000454859
0.000460102
0.000466297
0.000472749
0.00047966
0.000487731
0.00049708
0.000507227
0.000518882
0.000533005
0.000550082
0.000565428
0.000547251
0.000436642
0.000562995
0.00360685
0.00429631
0.000870607
-0.000167697
0.000416622
0.000415335
0.000414227
0.000413466
0.000412987
0.000412759
0.000412773
0.000413028
0.00041352
0.000414248
0.000415209
0.000416399
0.000417807
0.000419408
0.000421172
0.000423067
0.000425067
0.000427149
0.000429267
0.000431337
0.000433449
0.000435524
0.000437445
0.000439007
0.000440071
0.000440393
0.000440102
0.000439828
0.000439584
0.000440296
0.000442709
0.00044758
0.000455784
0.000464903
0.000472582
0.000477626
0.000482869
0.000490527
0.000500758
0.000512491
0.000519532
0.000531602
0.000539038
0.000532979
0.000518457
0.000573874
0.000723334
0.000629783
0.000443021
0.0002445
0.000413549
0.000412318
0.000411259
0.000410536
0.000410088
0.000409884
0.000409918
0.000410185
0.000410683
0.000411406
0.000412347
0.000413492
0.000414811
0.000416268
0.000417832
0.000419483
0.000421212
0.000423007
0.000424825
0.000426613
0.000428317
0.00042986
0.000431084
0.000431857
0.000432094
0.000431762
0.000430937
0.000429546
0.000427947
0.000426868
0.000427391
0.00043125
0.000441318
0.000453793
0.000465067
0.000472835
0.000480438
0.000487811
0.000495611
0.000503447
0.000509995
0.000516364
0.000522262
0.00052557
0.000530937
0.000559555
0.000593776
0.000541153
0.000460407
0.000377877
0.000410182
0.00040902
0.000408024
0.00040735
0.000406942
0.000406771
0.000406831
0.000407118
0.000407628
0.000408352
0.000409277
0.000410373
0.000411597
0.000412915
0.000414317
0.00041581
0.000417396
0.000419055
0.000420736
0.00042237
0.000423873
0.000425137
0.000426014
0.000426361
0.000426068
0.000425047
0.000423254
0.000420679
0.000417489
0.000414334
0.000412649
0.000415625
0.000430773
0.000447164
0.000458793
0.000459871
0.00046461
0.000475195
0.000487785
0.000498424
0.00050575
0.000511176
0.000515536
0.000519387
0.000524173
0.000536689
0.000546277
0.000516359
0.000471478
0.000422048
0.000406535
0.000405453
0.000404531
0.000403916
0.000403556
0.000403427
0.000403521
0.000403836
0.000404366
0.000405099
0.00040601
0.000407054
0.000408184
0.000409389
0.000410694
0.000412126
0.000413682
0.000415328
0.000417002
0.000418616
0.000420063
0.000421212
0.000421903
0.00042196
0.000421213
0.000419494
0.000416636
0.000412461
0.00040688
0.000400297
0.000394365
0.000395558
0.000423664
0.000447358
0.000463072
0.000453344
0.000450448
0.000459129
0.000470575
0.000482338
0.000493394
0.000503603
0.000511367
0.000515443
0.000517623
0.000520706
0.00052062
0.000501923
0.000474653
0.000452121
0.000402625
0.000401631
0.000400791
0.000400243
0.000399939
0.000399859
0.000399997
0.000400348
0.000400906
0.000401655
0.000402553
0.000403541
0.000404589
0.00040573
0.000407019
0.000408484
0.000410111
0.00041185
0.000413626
0.000415339
0.000416864
0.000418049
0.000418712
0.000418633
0.000417564
0.000415218
0.000411229
0.000405124
0.000396212
0.000383834
0.000368731
0.000365619
0.000424566
0.000469577
0.000482891
0.000443877
0.000427151
0.000441389
0.000457533
0.000470403
0.000481038
0.000489772
0.000497369
0.000504373
0.000510236
0.000513212
0.000510263
0.000497202
0.000479495
0.000463828
0.000398466
0.000397566
0.000396814
0.000396339
0.000396099
0.000396076
0.000396264
0.000396661
0.000397256
0.000398024
0.000398904
0.000399836
0.000400838
0.000401984
0.00040334
0.000404924
0.000406708
0.000408632
0.000410611
0.000412536
0.000414272
0.000415656
0.000416487
0.000416499
0.000415367
0.000412682
0.000407803
0.000399902
0.000387586
0.000366583
0.000333518
0.000305338
0.000445969
0.000533548
0.000552119
0.000412221
0.000389502
0.000422203
0.000445849
0.000460932
0.00047241
0.000481298
0.000487883
0.000492378
0.000494848
0.000496735
0.000497029
0.000492525
0.000482932
0.000471556
0.000394075
0.000393271
0.000392611
0.000392214
0.000392044
0.000392083
0.00039233
0.000392779
0.000393419
0.000394205
0.00039506
0.000395955
0.000396965
0.00039819
0.000399687
0.000401461
0.000403475
0.000405661
0.000407933
0.000410178
0.000412265
0.000414033
0.000415272
0.00041568
0.000414923
0.000412585
0.000407684
0.000398946
0.000384852
0.000357578
0.000297489
0.000182468
0.000647765
0.0011838
0.00135454
0.000332518
0.000377492
0.000409362
0.000439061
0.000455495
0.000467297
0.000476019
0.000481937
0.000485565
0.000487234
0.000487536
0.000486173
0.000482652
0.000479154
0.000476724
0.000389462
0.000388756
0.000388191
0.000387876
0.000387779
0.000387887
0.000388198
0.000388708
0.000389395
0.000390192
0.000391025
0.000391919
0.000393003
0.00039437
0.000396065
0.000398083
0.000400381
0.000402892
0.00040553
0.000408194
0.000410763
0.0004131
0.00041501
0.000416162
0.000416387
0.000415587
0.000412772
0.000406056
0.00039666
0.000384721
0.000348535
0.000570503
0.00805566
0.0127038
0.0123299
0.00385345
0.000403771
0.000438259
0.000452588
0.000460251
0.000467333
0.000474032
0.000478668
0.000481346
0.000482135
0.000481728
0.000480326
0.00047792
0.000474937
0.00047242
0.000384638
0.00038403
0.000383561
0.00038333
0.000383312
0.000383493
0.000383874
0.000384448
0.000385181
0.000385983
0.000386808
0.000387754
0.000388969
0.000390528
0.000392461
0.000394756
0.00039737
0.000400241
0.000403291
0.000406432
0.000409566
0.000412593
0.000415366
0.000417487
0.000419098
0.000420407
0.000418699
0.000415456
0.000444619
0.000416124
0.000443802
0.00336673
0.0129027
0.0127143
0.0127575
0.011926
0.000695548
0.000464161
0.000475056
0.000470712
0.000471847
0.000474997
0.000477328
0.000479011
0.000478703
0.000477457
0.000476668
0.000475014
0.000472942
0.000470639
0.000379612
0.000379102
0.000378729
0.000378584
0.000378646
0.000378905
0.00037936
0.000380001
0.000380774
0.000381579
0.000382429
0.000383478
0.000384869
0.000386652
0.000388843
0.000391426
0.000394361
0.000397589
0.000401039
0.00040463
0.000408293
0.000411982
0.000415657
0.000418765
0.000421412
0.000424977
0.000427169
0.000430387
0.000434602
0.000448109
0.000481553
0.00299961
0.0124218
0.0126251
0.0126103
0.0108543
0.000810945
0.000489535
0.000492196
0.000486734
0.000481104
0.000482916
0.000481833
0.000480104
0.000477256
0.000475241
0.000473214
0.00047258
0.00047197
0.000469477
0.000374391
0.000373976
0.0003737
0.000373642
0.000373786
0.000374124
0.000374656
0.000375364
0.000376171
0.000376989
0.000377903
0.000379098
0.000380696
0.000382718
0.000385169
0.000388027
0.00039125
0.000394775
0.000398522
0.000402418
0.00040642
0.000410571
0.000415048
0.000418542
0.000421236
0.000431152
0.000433812
0.000443936
0.000451936
0.000464248
0.000467987
0.000466443
0.00592826
0.0127679
0.0121365
0.00251508
0.000425022
0.000486737
0.000493614
0.000485707
0.000490413
0.000488732
0.000483899
0.000480819
0.000477804
0.00047316
0.000468392
0.000473613
0.000472617
0.00046859
0.000368979
0.000368658
0.000368477
0.000368507
0.000368735
0.000369154
0.000369764
0.000370536
0.000371373
0.000372226
0.000373242
0.000374617
0.000376435
0.000378694
0.000381384
0.000384473
0.000387905
0.000391601
0.000395483
0.000399504
0.000403674
0.000408104
0.000413449
0.000417793
0.00042265
0.000464863
0.000438674
0.000448085
0.000459867
0.000474875
0.000496008
0.000544162
0.000617875
0.000676688
0.000851266
0.000748022
0.000571228
0.000520904
0.000503555
0.000506327
0.000514207
0.000497793
0.000488058
0.00047892
0.000469003
0.000467606
0.000547032
0.0004741
0.000474911
0.000468907
0.00036338
0.000363152
0.000363065
0.000363183
0.000363494
0.000363996
0.000364684
0.000365516
0.000366387
0.000367301
0.000368454
0.000370025
0.000372062
0.000374537
0.000377423
0.000380665
0.00038419
0.000387924
0.000391823
0.000395901
0.000400226
0.000404954
0.000410377
0.000416878
0.000422888
0.000429165
0.000436129
0.000450555
0.000463499
0.000480642
0.000501281
0.000550053
0.000597991
0.000644014
0.000695637
0.000656031
0.000576263
0.000535627
0.000519746
0.000511192
0.00105839
0.000508573
0.000534626
0.000736638
0.000467926
0.000470382
0.000481616
0.000469686
0.000526494
0.000462226
0.000357597
0.000357459
0.000357466
0.00035767
0.000358066
0.00035865
0.000359416
0.000360304
0.000361219
0.000362225
0.000363538
0.000365308
0.000367544
0.000370195
0.000373209
0.000376511
0.000380036
0.000383748
0.000387661
0.000391836
0.000396353
0.000401342
0.000406927
0.000413223
0.000420666
0.000428594
0.000438007
0.000449001
0.00046415
0.000480359
0.00049937
0.00052734
0.000569028
0.000591103
0.000614645
0.000600918
0.000562505
0.00053316
0.000512871
0.000525852
0.000479292
0.000490289
0.000493253
0.000462245
0.000464993
0.000471627
0.00048499
0.000677488
0.000461407
0.000454015
0.000351631
0.000351582
0.000351681
0.000351972
0.000352452
0.000353119
0.00035396
0.000354904
0.00035588
0.000357004
0.000358487
0.000360442
0.000362841
0.000365611
0.000368678
0.000371974
0.000375471
0.000379185
0.000383165
0.000387476
0.000392186
0.000397382
0.000403214
0.00040974
0.000417278
0.000425767
0.000435828
0.000446986
0.000461032
0.000474188
0.000490546
0.000511018
0.00053846
0.0005603
0.000564358
0.000583286
0.000545797
0.000523024
0.00051378
0.000493783
0.000481938
0.00047923
0.000475159
0.000464564
0.000458841
0.000465877
0.000863013
0.000452762
0.000448
0.000451239
0.000345484
0.000345523
0.000345713
0.00034609
0.000346654
0.000347402
0.000348316
0.000349319
0.000350377
0.000351637