/*--------------------------------*- C++ -*----------------------------------*\
| =========                 |                                                 |
| \\      /  F ield         | OpenFOAM: The Open Source CFD Toolbox           |
|  \\    /   O peration     | Version:  2.4.0                                 |
|   \\  /    A nd           | Web:      www.OpenFOAM.org                      |
|    \\/     M anipulation  |                                                 |
\*---------------------------------------------------------------------------*/
FoamFile
{
    version     2.0;
    format      ascii;
    class       volVectorField;
    location    "0.014";
    object      U;
}
// * * * * * * * * * * * * * * * * * * * * * * * * * * * * * * * * * * * * * //

dimensions      [0 1 -1 0 0 0 0];

internalField   nonuniform List<vector> 
14400
(
(-9.68358e-05 1.45841e-05 0)
(-0.000359537 4.01232e-06 0)
(-0.000792867 6.85002e-06 0)
(-0.0014823 1.18155e-05 0)
(-0.0025513 1.94755e-05 0)
(-0.00412783 3.04111e-05 0)
(-0.00633235 4.48786e-05 0)
(-0.00925266 6.23927e-05 0)
(-0.0129121 8.13452e-05 0)
(-0.0172368 9.88693e-05 0)
(-0.0220437 0.000111852 0)
(-0.0270619 0.000118288 0)
(-0.0319723 0.000118011 0)
(-0.0364604 0.000113337 0)
(-0.0402684 0.00010759 0)
(-0.0432106 0.000101264 0)
(-0.045142 8.88732e-05 0)
(-0.0459392 6.10335e-05 0)
(-0.0455177 1.362e-05 0)
(-0.0438778 -5.79277e-05 0)
(-0.0411301 -0.000145505 0)
(-0.0374835 -0.000239273 0)
(-0.0332006 -0.000329544 0)
(-0.0285463 -0.000409565 0)
(-0.0237551 -0.000475714 0)
(-0.0190121 -0.000526992 0)
(-0.0144495 -0.000564279 0)
(-0.0101544 -0.000589072 0)
(-0.00617579 -0.000603689 0)
(-0.00253397 -0.000610171 0)
(-0.000102689 4.20577e-05 0)
(-0.000578668 4.08253e-05 0)
(-0.0012848 7.13699e-05 0)
(-0.00242316 0.000126229 0)
(-0.00421307 0.00021387 0)
(-0.00689328 0.000344126 0)
(-0.0107053 0.000525553 0)
(-0.0158568 0.000761577 0)
(-0.0224694 0.00104558 0)
(-0.0305149 0.00135568 0)
(-0.0397616 0.00165499 0)
(-0.049755 0.00189474 0)
(-0.0598292 0.00201862 0)
(-0.0691762 0.00197706 0)
(-0.0769886 0.00174109 0)
(-0.0826131 0.0013015 0)
(-0.0856454 0.000660858 0)
(-0.0859625 -0.000160635 0)
(-0.0836992 -0.0011297 0)
(-0.0791979 -0.00217616 0)
(-0.0729346 -0.00322427 0)
(-0.0654362 -0.00420338 0)
(-0.0572072 -0.00506369 0)
(-0.0486772 -0.0057804 0)
(-0.0401842 -0.00634912 0)
(-0.0319713 -0.00677935 0)
(-0.0241976 -0.00708807 0)
(-0.0169579 -0.00729507 0)
(-0.0102969 -0.00741948 0)
(-0.00422269 -0.00747946 0)
(-0.000102214 6.95579e-05 0)
(-0.000580618 8.06587e-05 0)
(-0.00128931 0.000141345 0)
(-0.0024323 0.000250632 0)
(-0.00423039 0.000425874 0)
(-0.00692454 0.000687454 0)
(-0.0107598 0.00105384 0)
(-0.0159491 0.00153416 0)
(-0.022622 0.00211819 0)
(-0.0307599 0.00276504 0)
(-0.0401396 0.0034005 0)
(-0.0503093 0.00392037 0)
(-0.0605939 0.00419657 0)
(-0.0701572 0.00410908 0)
(-0.0781531 0.00358447 0)
(-0.0838991 0.00260643 0)
(-0.0869846 0.00120414 0)
(-0.0872987 -0.00055312 0)
(-0.0849951 -0.00255636 0)
(-0.0804268 -0.00466719 0)
(-0.0740751 -0.00673756 0)
(-0.0664694 -0.00864049 0)
(-0.058119 -0.010292 0)
(-0.0494592 -0.0116557 0)
(-0.0408339 -0.0127307 0)
(-0.0324908 -0.0135404 0)
(-0.024592 -0.0141199 0)
(-0.0172349 -0.0145074 0)
(-0.0104653 -0.0147404 0)
(-0.00429192 -0.0148525 0)
(-0.000101402 9.68654e-05 0)
(-0.000577019 0.000120327 0)
(-0.0012813 0.000211041 0)
(-0.00241736 0.000374564 0)
(-0.00420482 0.000637099 0)
(-0.00688355 0.00102963 0)
(-0.0106982 0.00158065 0)
(-0.0158628 0.00230524 0)
(-0.0225107 0.00319019 0)
(-0.0306312 0.00417615 0)
(-0.0400113 0.00515238 0)
(-0.050213 0.00595978 0)
(-0.0605743 0.00639765 0)
(-0.0702626 0.00627281 0)
(-0.0784242 0.00546562 0)
(-0.0843646 0.0039532 0)
(-0.0876592 0.00179186 0)
(-0.0881792 -0.000898679 0)
(-0.086055 -0.00394405 0)
(-0.0816139 -0.00713404 0)
(-0.0753193 -0.0102492 0)
(-0.0676974 -0.0131024 0)
(-0.0592684 -0.0155711 0)
(-0.0504857 -0.0176041 0)
(-0.0417106 -0.0192035 0)
(-0.0332048 -0.0204066 0)
(-0.025141 -0.0212666 0)
(-0.0176234 -0.0218411 0)
(-0.0107024 -0.0221863 0)
(-0.00438954 -0.0223522 0)
(-0.000100322 0.000123923 0)
(-0.000571961 0.000159692 0)
(-0.00127002 0.000280202 0)
(-0.0023963 0.00049757 0)
(-0.00416872 0.000846799 0)
(-0.00682553 0.00136943 0)
(-0.0106107 0.00210408 0)
(-0.0157394 0.00307209 0)
(-0.0223505 0.00425792 0)
(-0.0304434 0.00558479 0)
(-0.0398198 0.00690653 0)
(-0.0500614 0.0080109 0)
(-0.060527 0.00862462 0)
(-0.0703915 0.00847922 0)
(-0.0787905 0.00740603 0)
(-0.0850107 0.00537381 0)
(-0.0886056 0.0024638 0)
(-0.0894189 -0.00115668 0)
(-0.0875487 -0.00525488 0)
(-0.083287 -0.00954993 0)
(-0.0770724 -0.0137488 0)
(-0.0694263 -0.0175974 0)
(-0.0608847 -0.0209265 0)
(-0.0519271 -0.0236654 0)
(-0.0429402 -0.0258187 0)
(-0.0342056 -0.0274375 0)
(-0.02591 -0.028594 0)
(-0.0181675 -0.0293664 0)
(-0.0110346 -0.0298299 0)
(-0.00452599 -0.030052 0)
(-9.89755e-05 0.000150659 0)
(-0.000565486 0.000198659 0)
(-0.00125557 0.000348675 0)
(-0.0023693 0.000619388 0)
(-0.00412241 0.0010545 0)
(-0.00675104 0.00170612 0)
(-0.0104981 0.00262306 0)
(-0.0155805 0.00383333 0)
(-0.0221433 0.00532 0)
(-0.0301993 0.00699007 0)
(-0.0395689 0.00866363 0)
(-0.0498597 0.0100778 0)
(-0.0604587 0.0108871 0)
(-0.0705515 0.0107441 0)
(-0.07926 0.00942746 0)
(-0.0858448 0.00689466 0)
(-0.0898298 0.00324938 0)
(-0.0910247 -0.00129856 0)
(-0.0894877 -0.00646242 0)
(-0.0854651 -0.0118964 0)
(-0.0793606 -0.017232 0)
(-0.0716854 -0.0221378 0)
(-0.0629965 -0.0263861 0)
(-0.0538095 -0.0298804 0)
(-0.0445456 -0.0326266 0)
(-0.035512 -0.0346908 0)
(-0.0269137 -0.0361654 0)
(-0.0188776 -0.0371499 0)
(-0.0114682 -0.0377403 0)
(-0.00470434 -0.0380229 0)
(-9.73633e-05 0.000177005 0)
(-0.000557611 0.000237128 0)
(-0.00123798 0.000416284 0)
(-0.00233644 0.000739704 0)
(-0.004066 0.0012597 0)
(-0.00666023 0.0020389 0)
(-0.0103608 0.00313646 0)
(-0.0153861 0.00458747 0)
(-0.021889 0.00637483 0)
(-0.0298984 0.0083909 0)
(-0.039257 0.0104239 0)
(-0.0496043 0.0121638 0)
(-0.060364 0.0131937 0)
(-0.0707364 0.0130826 0)
(-0.0798264 0.0115512 0)
(-0.086861 0.0085421 0)
(-0.0913285 0.00417891 0)
(-0.0929978 -0.00129258 0)
(-0.0918818 -0.00753548 0)
(-0.0881702 -0.01415 0)
(-0.082217 -0.0206903 0)
(-0.074514 -0.0267345 0)
(-0.0656421 -0.031979 0)
(-0.0561669 -0.0362919 0)
(-0.0465558 -0.0396802 0)
(-0.0371482 -0.0422275 0)
(-0.0281711 -0.0440476 0)
(-0.0197672 -0.0452624 0)
(-0.0120112 -0.0459905 0)
(-0.00492752 -0.0463386 0)
(-9.54871e-05 0.000202891 0)
(-0.000548357 0.000275004 0)
(-0.00121729 0.00048286 0)
(-0.00229778 0.000858232 0)
(-0.00399962 0.00146191 0)
(-0.00655329 0.002367 0)
(-0.0101988 0.00364311 0)
(-0.0151563 0.00533302 0)
(-0.0215874 0.00742072 0)
(-0.0295397 0.0097859 0)
(-0.0388817 0.0121873 0)
(-0.0492906 0.014272 0)
(-0.0602361 0.015553 0)
(-0.0709382 0.0155099 0)
(-0.0804816 0.0137987 0)
(-0.0880524 0.0103431 0)
(-0.0930968 0.00528355 0)
(-0.0953395 -0.0011015 0)
(-0.0947427 -0.00843853 0)
(-0.0914297 -0.0162809 0)
(-0.085685 -0.0241094 0)
(-0.0779628 -0.0313972 0)
(-0.06887 -0.0377368 0)
(-0.0590413 -0.0429462 0)
(-0.0490072 -0.0470364 0)
(-0.0391447 -0.0501134 0)
(-0.0297058 -0.0523133 0)
(-0.0208527 -0.0537811 0)
(-0.0126735 -0.0546601 0)
(-0.00519948 -0.0550796 0)
(-9.33485e-05 0.000228247 0)
(-0.000537748 0.000312193 0)
(-0.00119356 0.000548245 0)
(-0.00225342 0.000974682 0)
(-0.00392342 0.00166065 0)
(-0.00643044 0.00268965 0)
(-0.0100125 0.00414192 0)
(-0.0148915 0.00606845 0)
(-0.0212385 0.00845601 0)
(-0.0291222 0.0111737 0)
(-0.0384406 0.0139533 0)
(-0.0489132 0.0164047 0)
(-0.0600667 0.0179729 0)
(-0.0711474 0.018041 0)
(-0.081216 0.0161916 0)
(-0.0894104 0.0123249 0)
(-0.095129 0.00659599 0)
(-0.0980494 -0.000690072 0)
(-0.0980818 -0.00912976 0)
(-0.0952752 -0.01825 0)
(-0.0898186 -0.0274678 0)
(-0.0820978 -0.0361342 0)
(-0.0727409 -0.0436959 0)
(-0.0624829 -0.0498949 0)
(-0.0519436 -0.0547563 0)
(-0.0415398 -0.0584201 0)
(-0.0315478 -0.0610431 0)
(-0.0221548 -0.0627918 0)
(-0.0134674 -0.063837 0)
(-0.00552546 -0.0643349 0)
(-9.0949e-05 0.000253007 0)
(-0.000525815 0.000348602 0)
(-0.00116684 0.000612265 0)
(-0.00220345 0.00108878 0)
(-0.00383758 0.00185543 0)
(-0.00629192 0.00300608 0)
(-0.00980219 0.00463174 0)
(-0.0145917 0.00679221 0)
(-0.0208418 0.00947882 0)
(-0.028645 0.0125528 0)
(-0.0379308 0.0157212 0)
(-0.048466 0.0185639 0)
(-0.0598461 0.0204612 0)
(-0.0713525 0.0206909 0)
(-0.0820183 0.0187515 0)
(-0.0909246 0.0145155 0)
(-0.0974166 0.00815005 0)
(-0.101125 -1.62579e-05 0)
(-0.101909 -0.00956255 0)
(-0.0997416 -0.0200067 0)
(-0.0946857 -0.0307314 0)
(-0.0870049 -0.0409518 0)
(-0.0773299 -0.0499012 0)
(-0.0665478 -0.0571966 0)
(-0.0554161 -0.0629035 0)
(-0.044382 -0.0672249 0)
(-0.0337342 -0.070327 0)
(-0.0236974 -0.0723895 0)
(-0.0144073 -0.0736172 0)
(-0.00591121 -0.0742018 0)
(-8.82898e-05 0.000277102 0)
(-0.000512594 0.000384134 0)
(-0.00113718 0.000674768 0)
(-0.002148 0.00120023 0)
(-0.00374229 0.00204578 0)
(-0.00613804 0.00331554 0)
(-0.0095682 0.00511143 0)
(-0.0142573 0.00750269 0)
(-0.0203974 0.0104873 0)
(-0.028107 0.0139212 0)
(-0.0373493 0.0174895 0)
(-0.0479417 0.0207502 0)
(-0.0595632 0.0230246 0)
(-0.0715404 0.0234743 0)
(-0.0828755 0.0215005 0)
(-0.092583 0.016943 0)
(-0.0999494 0.00998028 0)
(-0.10456 0.00096306 0)
(-0.106229 -0.00967949 0)
(-0.104865 -0.0214837 0)
(-0.10037 -0.0338475 0)
(-0.0927993 -0.0458533 0)
(-0.0827306 -0.0564155 0)
(-0.0712918 -0.06492 0)
(-0.0594822 -0.0715379 0)
(-0.0477369 -0.0766104 0)
(-0.0363128 -0.0802718 0)
(-0.0255047 -0.0826847 0)
(-0.0155087 -0.0841046 0)
(-0.00636457 -0.0847873 0)
(-8.53721e-05 0.000300467 0)
(-0.000498119 0.000418702 0)
(-0.00110467 0.00073559 0)
(-0.00208719 0.00130877 0)
(-0.00363775 0.00223125 0)
(-0.00596911 0.00361729 0)
(-0.00931096 0.00557989 0)
(-0.0138887 0.00819833 0)
(-0.019905 0.0114793 0)
(-0.027507 0.015277 0)
(-0.0366929 0.0192563 0)
(-0.0473326 0.0229637 0)
(-0.0592049 0.0256693 0)
(-0.071696 0.026406 0)
(-0.0837726 0.0244609 0)
(-0.0943713 0.019636 0)
(-0.102715 0.0121225 0)
(-0.108344 0.00229194 0)
(-0.111042 -0.00941724 0)
(-0.110676 -0.0225937 0)
(-0.106973 -0.036733 0)
(-0.0996419 -0.0508351 0)
(-0.0890621 -0.0633385 0)
(-0.0767514 -0.0731517 0)
(-0.0642029 -0.0806974 0)
(-0.0517091 -0.0866631 0)
(-0.0393467 -0.0910186 0)
(-0.027585 -0.0938173 0)
(-0.0167909 -0.0953954 0)
(-0.00690377 -0.0962018 0)
(-8.21963e-05 0.000323036 0)
(-0.00048243 0.000452214 0)
(-0.00106938 0.00079459 0)
(-0.00202118 0.00141413 0)
(-0.00352424 0.00241138 0)
(-0.00578549 0.00391059 0)
(-0.00903092 0.00603597 0)
(-0.0134863 0.00887746 0)
(-0.0193647 0.0124528 0)
(-0.0268439 0.016618 0)
(-0.0359585 0.0210191 0)
(-0.04663 0.0252031 0)
(-0.0587566 0.0284007 0)
(-0.0718019 0.0295003 0)
(-0.0846929 0.0276551 0)
(-0.0962737 0.0226231 0)
(-0.105697 0.0146129 0)
(-0.112463 0.00401813 0)
(-0.116332 -0.00870768 0)
(-0.117196 -0.0232235 0)
(-0.114616 -0.0392552 0)
(-0.10777 -0.0558746 0)
(-0.0964884 -0.0708492 0)
(-0.0828905 -0.0820141 0)
(-0.069629 -0.0903394 0)
(-0.0564965 -0.0974642 0)
(-0.0429095 -0.102794 0)
(-0.0298429 -0.106016 0)
(-0.0182777 -0.107491 0)
(-0.00757875 -0.108504 0)
(-7.87624e-05 0.000344746 0)
(-0.000465572 0.000484587 0)
(-0.00103139 0.000851606 0)
(-0.00195011 0.00151606 0)
(-0.00340199 0.00258572 0)
(-0.00558757 0.00419472 0)
(-0.00872863 0.00647859 0)
(-0.0130506 0.00953839 0)
(-0.0187762 0.0134055 0)
(-0.0261165 0.0179418 0)
(-0.0351429 0.0227746 0)
(-0.0458245 0.0274655 0)
(-0.0582015 0.0312228 0)
(-0.0718389 0.0327719 0)
(-0.0856179 0.0311061 0)
(-0.098272 0.0259333 0)
(-0.108877 0.0174872 0)
(-0.116894 0.00618634 0)
(-0.122071 -0.00748141 0)
(-0.124415 -0.0232312 0)
(-0.12343 -0.0411987 0)
(-0.117548 -0.0608932 0)
(-0.105271 -0.0792985 0)
(-0.0894583 -0.0917209 0)
(-0.0757412 -0.100193 0)
(-0.0624634 -0.109084 0)
(-0.0469152 -0.116074 0)
(-0.0317046 -0.119846 0)
(-0.0198754 -0.119946 0)
(-0.00843412 -0.121411 0)
(-7.50702e-05 0.000365534 0)
(-0.000447596 0.000515733 0)
(-0.000990789 0.000906504 0)
(-0.00187415 0.00161431 0)
(-0.00327131 0.00275386 0)
(-0.00537578 0.00446898 0)
(-0.00840462 0.00690665 0)
(-0.0125821 0.0101795 0)
(-0.0181397 0.014335 0)
(-0.0253239 0.0192459 0)
(-0.0342434 0.024519 0)
(-0.0449059 0.0297466 0)
(-0.0575208 0.0341387 0)
(-0.0717846 0.0362351 0)
(-0.0865272 0.0348374 0)
(-0.100347 0.0295953 0)
(-0.112235 0.0207815 0)
(-0.121611 0.00883881 0)
(-0.12821 -0.00567522 0)
(-0.132269 -0.022448 0)
(-0.133522 -0.0422172 0)
(-0.129539 -0.0656643 0)
(-0.115874 -0.0894042 0)
(-0.0956688 -0.10273 0)
(-0.0821464 -0.109491 0)
(-0.0696133 -0.121704 0)
(-0.0500931 -0.131996 0)
(-0.0314749 -0.136618 0)
(-0.0206289 -0.131158 0)
(-0.00895584 -0.133676 0)
(-7.11174e-05 0.000385338 0)
(-0.000428558 0.000545571 0)
(-0.000947676 0.000959137 0)
(-0.00179348 0.00170864 0)
(-0.00313248 0.00291538 0)
(-0.00515059 0.00473267 0)
(-0.00805954 0.00731907 0)
(-0.0120816 0.0107989 0)
(-0.0174552 0.0152386 0)
(-0.0244649 0.0205276 0)
(-0.0332576 0.0262477 0)
(-0.0438636 0.0320396 0)
(-0.0566932 0.0371497 0)
(-0.0716144 0.0399046 0)
(-0.0873982 0.0388732 0)
(-0.102477 0.0336378 0)
(-0.115746 0.0245311 0)
(-0.12659 0.0120122 0)
(-0.134675 -0.00324945 0)
(-0.140604 -0.0207028 0)
(-0.144878 -0.0417875 0)
(-0.144407 -0.0696507 0)
(-0.128925 -0.102567 0)
(-0.10054 -0.115967 0)
(-0.0871977 -0.117417 0)
(-0.0738776 -0.136371 0)
(-0.0485786 -0.15211 0)
(-0.02851 -0.156276 0)
(-0.0176688 -0.139662 0)
(-0.00732078 -0.144494 0)
(-6.69011e-05 0.000404097 0)
(-0.000408515 0.000574014 0)
(-0.000902149 0.00100938 0)
(-0.0017083 0.0017988 0)
(-0.00298586 0.00306988 0)
(-0.00491249 0.00498513 0)
(-0.0076941 0.00771478 0)
(-0.0115499 0.011395 0)
(-0.0167229 0.0161137 0)
(-0.0235386 0.0217842 0)
(-0.0321842 0.0279553 0)
(-0.0426865 0.0343354 0)
(-0.0556947 0.0402555 0)
(-0.0713002 0.0437949 0)
(-0.0882071 0.0432389 0)
(-0.104639 0.0380888 0)
(-0.119384 0.0287714 0)
(-0.131807 0.0157402 0)
(-0.141387 -0.000185353 0)
(-0.149122 -0.0178777 0)
(-0.157039 -0.0392522 0)
(-0.161449 -0.0721346 0)
(-0.143906 -0.120379 0)
(-0.1107 -0.132069 0)
(-0.0900002 -0.128028 0)
(-0.0620916 -0.155685 0)
(-0.0416927 -0.171112 0)
(-0.0294215 -0.168888 0)
(-0.00855864 -0.157199 0)
(-0.00416656 -0.163542 0)
(-6.24168e-05 0.000421751 0)
(-0.000387527 0.000600986 0)
(-0.000854315 0.00105709 0)
(-0.00161879 0.00188459 0)
(-0.00283177 0.00321697 0)
(-0.00466202 0.0052257 0)
(-0.00730901 0.00809278 0)
(-0.0109879 0.011966 0)
(-0.0159431 0.0169572 0)
(-0.022544 0.0230128 0)
(-0.0310227 0.0296363 0)
(-0.041363 0.0366216 0)
(-0.0544978 0.0434535 0)
(-0.0708099 0.0479214 0)
(-0.0889279 0.0479619 0)
(-0.106812 0.0429762 0)
(-0.123118 0.0335382 0)
(-0.137252 0.0200567 0)
(-0.148274 0.00343778 0)
(-0.157306 -0.0140765 0)
(-0.167936 -0.0345376 0)
(-0.172353 -0.0745487 0)
(-0.152349 -0.137515 0)
(-0.156315 -0.145064 0)
(-0.111917 -0.162719 0)
(-0.0351322 -0.186173 0)
(-0.0175607 -0.177389 0)
(-0.0213512 -0.159507 0)
(-0.0175148 -0.185867 0)
(-0.0143454 -0.176679 0)
(-5.76574e-05 0.000438244 0)
(-0.00036566 0.000626406 0)
(-0.000804284 0.00110217 0)
(-0.00152518 0.0019658 0)
(-0.0026706 0.00335629 0)
(-0.00439973 0.00545375 0)
(-0.00690509 0.00845205 0)
(-0.0103966 0.0125102 0)
(-0.0151162 0.0177661 0)
(-0.0214798 0.0242106 0)
(-0.0297745 0.0312844 0)
(-0.0398816 0.0388819 0)
(-0.0530718 0.0467385 0)
(-0.0701077 0.0522998 0)
(-0.0895332 0.0530715 0)
(-0.108973 0.0483258 0)
(-0.12691 0.0388666 0)
(-0.142937 0.0250093 0)
(-0.155327 0.00750563 0)
(-0.164264 -0.0100748 0)
(-0.171593 -0.0308073 0)
(-0.156202 -0.0865254 0)
(-0.097038 -0.142769 0)
(-0.25492 -0.116332 0)
(-0.140896 -0.277765 0)
(-0.0974053 -0.225078 0)
(-0.0622637 -0.138722 0)
(-0.0359162 -0.163692 0)
(-0.0225721 -0.196323 0)
(-0.00768171 -0.209489 0)
(-5.26144e-05 0.000453523 0)
(-0.000342991 0.000650193 0)
(-0.000752173 0.00114448 0)
(-0.00142768 0.00204222 0)
(-0.00250273 0.00348748 0)
(-0.00412623 0.00566868 0)
(-0.00648321 0.00879163 0)
(-0.00977742 0.0130258 0)
(-0.0142429 0.0185367 0)
(-0.0203446 0.025375 0)
(-0.028443 0.032894 0)
(-0.038231 0.041095 0)
(-0.0513811 0.0501023 0)
(-0.0691518 0.0569466 0)
(-0.0899944 0.0586007 0)
(-0.111103 0.0541618 0)
(-0.130705 0.0447846 0)
(-0.148901 0.0306857 0)
(-0.16263 0.0117694 0)
(-0.168725 -0.00810684 0)
(-0.163578 -0.0343801 0)
(-0.160401 -0.111089 0)
(0.0619753 -0.0766615 0)
(0.0458863 -0.0906276 0)
(-0.0421647 -0.242947 0)
(-0.0790774 -0.23678 0)
(-0.053128 -0.195649 0)
(-0.0189482 -0.196795 0)
(-0.00606459 -0.21004 0)
(-0.000248875 -0.21056 0)
(-4.72765e-05 0.000467533 0)
(-0.000319597 0.00067227 0)
(-0.000698104 0.00118393 0)
(-0.00132652 0.00211366 0)
(-0.00232857 0.00361023 0)
(-0.00384215 0.00586988 0)
(-0.00604427 0.00911062 0)
(-0.00913159 0.0135111 0)
(-0.013324 0.0192654 0)
(-0.0191363 0.0265032 0)
(-0.027035 0.0344598 0)
(-0.0364005 0.0432335 0)
(-0.049385 0.0535329 0)
(-0.0678944 0.0618796 0)
(-0.0902806 0.0645887 0)
(-0.113188 0.0605033 0)
(-0.134417 0.051287 0)
(-0.155204 0.0372711 0)
(-0.170411 0.0158848 0)
(-0.171138 -0.0106482 0)
(-0.163704 -0.0348038 0)
(0.825631 0.0112555 0)
(0.304601 -0.184941 0)
(0.0776217 -0.0520118 0)
(0.0196267 -0.181364 0)
(-0.0130004 -0.222914 0)
(-0.0134479 -0.21713 0)
(-0.0029097 -0.210087 0)
(-0.00227215 -0.20739 0)
(-0.000529875 -0.228741 0)
(-4.16292e-05 0.000480226 0)
(-0.000295559 0.000692558 0)
(-0.000642199 0.00122041 0)
(-0.00122195 0.00217996 0)
(-0.00214854 0.00372423 0)
(-0.00354814 0.00605681 0)
(-0.00558924 0.00940813 0)
(-0.00846072 0.0139646 0)
(-0.0123606 0.0199481 0)
(-0.0178519 0.0275924 0)
(-0.0255612 0.0359789 0)
(-0.0343803 0.0452612 0)
(-0.0470365 0.0570144 0)
(-0.0662794 0.0671179 0)
(-0.0903581 0.0710787 0)
(-0.115199 0.0673414 0)
(-0.137776 0.0582159 0)
(-0.161788 0.0452843 0)
(-0.179231 0.0196519 0)
(-0.177583 -0.0155878 0)
(-0.161734 -0.0778599 0)
(-0.174684 0.0401119 0)
(-0.263883 -0.207929 0)
(-0.0876215 -0.102404 0)
(-0.00816809 -0.177475 0)
(0.00179986 -0.217477 0)
(0.00443012 -0.221594 0)
(0.0104189 -0.216185 0)
(0.0178078 -0.213785 0)
(0.0150597 -0.218194 0)
(-3.56565e-05 0.000491556 0)
(-0.000270966 0.00071099 0)
(-0.000584589 0.00125382 0)
(-0.0011142 0.00224095 0)
(-0.0019631 0.00382918 0)
(-0.00324491 0.00622892 0)
(-0.00511913 0.00968336 0)
(-0.00776661 0.0143846 0)
(-0.0113546 0.0205801 0)
(-0.0164864 0.0286395 0)
(-0.0240378 0.0374513 0)
(-0.0321628 0.0471318 0)
(-0.0442807 0.0605258 0)
(-0.0642401 0.07268 0)
(-0.0901766 0.078115 0)
(-0.11689 0.0746275 0)
(-0.13865 0.0650184 0)
(-0.165101 0.0562875 0)
(-0.188542 0.0237697 0)
(-0.192058 -0.0204846 0)
(0.0911992 0.0853718 0)
(-0.174192 -0.240304 0)
(-0.179703 -0.25287 0)
(-0.0779363 -0.178752 0)
(-0.0261395 -0.204635 0)
(-0.00840845 -0.223625 0)
(-0.00146873 -0.226749 0)
(0.00464236 -0.222684 0)
(0.00849443 -0.21746 0)
(0.00308346 -0.19857 0)
(-2.93396e-05 0.00050148 0)
(-0.00024591 0.000727508 0)
(-0.000525399 0.00128409 0)
(-0.00100354 0.00229648 0)
(-0.00177269 0.00392483 0)
(-0.00293316 0.00638569 0)
(-0.00463497 0.00993555 0)
(-0.00705122 0.0147699 0)
(-0.0103079 0.0211564 0)
(-0.0150323 0.0296405 0)
(-0.0224886 0.0388825 0)
(-0.0297431 0.0487854 0)
(-0.0410532 0.0640421 0)
(-0.0616913 0.0785776 0)
(-0.089578 0.0857137 0)
(-0.117182 0.0825773 0)
(-0.129075 0.0722559 0)
(-0.140138 0.0695508 0)
(-0.200984 0.0291025 0)
(-0.170034 -0.106351 0)
(0.263117 -0.255466 0)
(-0.157052 -0.242037 0)
(-0.113294 -0.292363 0)
(-0.065617 -0.219753 0)
(-0.0392018 -0.225135 0)
(-0.0242513 -0.23239 0)
(-0.0156996 -0.233316 0)
(-0.00914917 -0.227839 0)
(-0.00574983 -0.217409 0)
(-0.00478676 -0.199291 0)
(-2.26588e-05 0.00050996 0)
(-0.00022049 0.000742074 0)
(-0.000464764 0.00131113 0)
(-0.00089021 0.00234642 0)
(-0.00157781 0.00401094 0)
(-0.00261365 0.00652664 0)
(-0.00413782 0.010164 0)
(-0.00631668 0.0151191 0)
(-0.00922395 0.0216716 0)
(-0.0134778 0.0305896 0)
(-0.0209472 0.0402863 0)
(-0.02712 0.0501478 0)
(-0.0372773 0.0675347 0)
(-0.058485 0.0847766 0)
(-0.0876585 0.0937736 0)
(-0.115102 0.0920827 0)
(-0.127282 0.0854297 0)
(-0.126251 0.0723799 0)
(-0.20632 0.0196909 0)
(0.176192 -0.128533 0)
(0.398029 -0.106086 0)
(-0.0296474 -0.16916 0)
(-0.0572622 -0.27454 0)
(-0.0624304 -0.241942 0)
(-0.0487469 -0.238337 0)
(-0.0373788 -0.240848 0)
(-0.0293802 -0.240142 0)
(-0.0230456 -0.233323 0)
(-0.0170096 -0.221277 0)
(-0.00792971 -0.209964 0)
(-1.55933e-05 0.000516966 0)
(-0.000194808 0.000754656 0)
(-0.000402825 0.00133488 0)
(-0.000774491 0.00239065 0)
(-0.00137894 0.0040873 0)
(-0.00228717 0.00665129 0)
(-0.00362878 0.0103681 0)
(-0.00556536 0.0154312 0)
(-0.00810723 0.0221199 0)
(-0.0118049 0.0314786 0)
(-0.0194615 0.0416885 0)
(-0.024297 0.0511295 0)
(-0.0328538 0.0709769 0)
(-0.0541126 0.0910956 0)
(-0.0802844 0.102155 0)
(-0.11178 0.101138 0)
(-0.177151 0.0916035 0)
(-0.242096 0.0712751 0)
(-0.206864 0.0154819 0)
(-0.79169 -1.22617 0)
(-0.283539 0.124964 0)
(-0.0603972 -0.0895375 0)
(-0.0496466 -0.241676 0)
(-0.0630497 -0.245367 0)
(-0.0551846 -0.246567 0)
(-0.0459878 -0.248045 0)
(-0.0383557 -0.246534 0)
(-0.0308864 -0.240572 0)
(-0.0214138 -0.232106 0)
(-0.00918984 -0.225481 0)
(-8.12313e-06 0.000522476 0)
(-0.000168969 0.00076524 0)
(-0.000339715 0.00135527 0)
(-0.000656641 0.00242905 0)
(-0.00117659 0.00415374 0)
(-0.00195451 0.00675923 0)
(-0.00310887 0.0105474 0)
(-0.00479966 0.0157058 0)
(-0.00696423 0.0224963 0)
(-0.00998626 0.0322985 0)
(-0.0180993 0.043139 0)
(-0.0212814 0.0516403 0)
(-0.0275941 0.074347 0)
(-0.0466544 0.0973569 0)
(-0.0631289 0.11139 0)
(-0.115262 0.109505 0)
(-0.15422 0.10255 0)
(-0.16189 0.0861589 0)
(-0.180533 -0.0263402 0)
(-0.476696 -0.647222 0)
(-0.150444 -0.174507 0)
(-0.114035 -0.11924 0)
(-0.0747274 -0.232038 0)
(-0.0704716 -0.248687 0)
(-0.0605444 -0.253767 0)
(-0.0505779 -0.25531 0)
(-0.0414942 -0.253995 0)
(-0.0320905 -0.250146 0)
(-0.0211186 -0.245358 0)
(-0.00870145 -0.241934 0)
(-5.12232e-07 0.000526516 0)
(-0.00014308 0.000773935 0)
(-0.000275571 0.00137245 0)
(-0.000536935 0.00246189 0)
(-0.000971297 0.00421066 0)
(-0.00161653 0.00685096 0)
(-0.00257919 0.0107032 0)
(-0.00402221 0.0159472 0)
(-0.00580463 0.0228084 0)
(-0.00798093 0.0330642 0)
(-0.0169569 0.0447493 0)
(-0.0180676 0.0516099 0)
(-0.0208729 0.0776406 0)
(-0.0342338 0.10455 0)
(-0.0633818 0.12095 0)
(-0.134138 0.124098 0)
(-0.17069 0.126712 0)
(-0.205155 0.0924643 0)
(-0.204603 -0.0433259 0)
(-0.49813 -0.24183 0)
(-0.291369 -0.260184 0)
(-0.132283 -0.206753 0)
(-0.0958274 -0.242903 0)
(-0.0790251 -0.257317 0)
(-0.065027 -0.262584 0)
(-0.0528015 -0.264076 0)
(-0.0416642 -0.263284 0)
(-0.030704 -0.261137 0)
(-0.0193253 -0.258751 0)
(-0.00771086 -0.25717 0)
(-4.0708e-05 0.000524854 0)
(-0.000117334 0.000780445 0)
(-0.000210614 0.00138615 0)
(-0.000415739 0.00248966 0)
(-0.0007637 0.00426154 0)
(-0.00127434 0.00693753 0)
(-0.00204124 0.0108631 0)
(-0.00323636 0.0162116 0)
(-0.00464264 0.0231449 0)
(-0.00572812 0.0338847 0)
(-0.0161786 0.0466638 0)
(-0.0145547 0.0508614 0)
(-0.0121541 0.0809186 0)
(-0.0311609 0.112906 0)
(-0.0962176 0.135598 0)
(-0.128837 0.143013 0)
(-0.163673 0.121958 0)
(-0.171271 0.0946207 0)
(-0.24624 0.0302373 0)
(-0.485346 -0.216256 0)
(-0.296288 -0.262806 0)
(-0.148125 -0.257357 0)
(-0.108459 -0.262008 0)
(-0.0858106 -0.269738 0)
(-0.0686396 -0.273481 0)
(-0.0542637 -0.274611 0)
(-0.0414226 -0.274148 0)
(-0.0294077 -0.272934 0)
(-0.01792 -0.271714 0)
(-0.00701298 -0.270973 0)
(-0.00446795 0.000629904 0)
(-9.89136e-05 0.000824894 0)
(-0.000153122 0.00146241 0)
(-0.000302403 0.00261726 0)
(-0.000562639 0.0044556 0)
(-0.000934139 0.00720543 0)
(-0.00149751 0.0112302 0)
(-0.00244793 0.0166735 0)
(-0.0035196 0.0235589 0)
(-0.00319578 0.0345886 0)
(-0.0159744 0.0484128 0)
(-0.0109169 0.0487734 0)
(-0.00995138 0.0832374 0)
(-0.0381114 0.12159 0)
(-0.072612 0.156046 0)
(-0.139759 0.150412 0)
(-0.18262 0.138353 0)
(-0.209995 0.0958373 0)
(-0.0883954 0.191998 0)
(-0.190101 -0.258651 0)
(-0.223592 -0.306063 0)
(-0.146097 -0.28941 0)
(-0.113742 -0.281525 0)
(-0.0901953 -0.283896 0)
(-0.0713427 -0.285894 0)
(-0.0555248 -0.286475 0)
(-0.0416247 -0.286061 0)
(-0.0290221 -0.28521 0)
(-0.0174411 -0.284417 0)
(-0.00680241 -0.283975 0)
(0.000852096 -0.000611126 0)
(0.00432367 -0.000607848 0)
(0.00813536 -0.00059757 0)
(0.0122764 -0.000578146 0)
(0.0167137 -0.000547321 0)
(0.0213793 -0.000503304 0)
(0.0261663 -0.000444447 0)
(0.030914 -0.000371078 0)
(0.0354137 -0.00028521 0)
(0.0394115 -0.000192095 0)
(0.0426384 -0.000100053 0)
(0.0448521 -1.93353e-05 0)
(0.0458888 4.14815e-05 0)
(0.0456929 7.75246e-05 0)
(0.0443132 9.66449e-05 0)
(0.0418566 0.000104944 0)
(0.0384581 0.000110659 0)
(0.0342799 0.000116159 0)
(0.0295425 0.000118934 0)
(0.0245383 0.000115895 0)
(0.0195904 0.000105993 0)
(0.014998 9.04016e-05 0)
(0.0109915 7.17662e-05 0)
(0.00770037 5.32582e-05 0)
(0.00514625 3.71601e-05 0)
(0.00326962 2.44674e-05 0)
(0.00196274 1.5244e-05 0)
(0.0010991 9.01663e-06 0)
(0.000552411 5.18675e-06 0)
(0.000201843 3.24331e-06 0)
(0.00141548 -0.00749072 0)
(0.00719873 -0.00745662 0)
(0.0135668 -0.00736639 0)
(0.0205201 -0.00720331 0)
(0.0280353 -0.00694789 0)
(0.0360429 -0.00658073 0)
(0.0444208 -0.00608272 0)
(0.0529662 -0.00544027 0)
(0.0613928 -0.0046497 0)
(0.0693141 -0.0037249 0)
(0.0762594 -0.00270316 0)
(0.0817048 -0.00164621 0)
(0.0851394 -0.000629917 0)
(0.0861412 0.000272196 0)
(0.0844669 0.00100714 0)
(0.0801027 0.00154832 0)
(0.0733138 0.00188557 0)
(0.064638 0.00202175 0)
(0.0548222 0.00197484 0)
(0.0446958 0.0017854 0)
(0.0350084 0.0015089 0)
(0.0263225 0.0011988 0)
(0.01898 0.000898045 0)
(0.0131063 0.000636404 0)
(0.00864672 0.000427691 0)
(0.00542951 0.00027279 0)
(0.00322459 0.000165152 0)
(0.0017886 9.51523e-05 0)
(0.000891838 5.3415e-05 0)
(0.000324257 3.26274e-05 0)
(0.00143865 -0.0148727 0)
(0.00731624 -0.0148101 0)
(0.0137883 -0.0146413 0)
(0.0208548 -0.0143356 0)
(0.0284914 -0.013857 0)
(0.0366271 -0.0131669 0)
(0.0451367 -0.0122279 0)
(0.0538138 -0.0110098 0)
(0.0623669 -0.0094994 0)
(0.0704031 -0.00771392 0)
(0.0774468 -0.00571318 0)
(0.0829702 -0.00360455 0)
(0.0864593 -0.00152886 0)
(0.0874849 0.000367126 0)
(0.0857877 0.00195769 0)
(0.0813367 0.003154 0)
(0.0743928 0.00390604 0)
(0.0655123 0.00420595 0)
(0.0554787 0.00409754 0)
(0.0451567 0.00368182 0)
(0.0353145 0.00308886 0)
(0.0265168 0.00243659 0)
(0.0190991 0.00181397 0)
(0.0131775 0.00127895 0)
(0.00868817 0.000855952 0)
(0.00545292 0.000544058 0)
(0.00323728 0.000328389 0)
(0.00179511 0.000188696 0)
(0.000894893 0.000105657 0)
(0.000325318 6.43958e-05 0)
(0.00147116 -0.0223819 0)
(0.00748257 -0.0222893 0)
(0.0140998 -0.0220398 0)
(0.0213226 -0.0215865 0)
(0.0291228 -0.0208766 0)
(0.0374234 -0.0198519 0)
(0.0460909 -0.0184558 0)
(0.0549062 -0.0166419 0)
(0.0635623 -0.0143871 0)
(0.071648 -0.0117144 0)
(0.0786717 -0.00870936 0)
(0.0841017 -0.00553023 0)
(0.0874344 -0.00238443 0)
(0.0882643 0.000507416 0)
(0.0863569 0.00295165 0)
(0.0817023 0.00479977 0)
(0.0745767 0.00596165 0)
(0.0655492 0.00641771 0)
(0.0554143 0.00623854 0)
(0.0450394 0.00558796 0)
(0.0351831 0.00467258 0)
(0.0263954 0.00367471 0)
(0.019 0.00272869 0)
(0.0131039 0.00191993 0)
(0.0086375 0.00128288 0)
(0.00542028 0.000814373 0)
(0.00321756 0.000491014 0)
(0.001784 0.000281857 0)
(0.00088933 0.000157682 0)
(0.000323269 9.60352e-05 0)
(0.00151706 -0.0300925 0)
(0.00771472 -0.0299681 0)
(0.0145363 -0.0296332 0)
(0.0219781 -0.0290244 0)
(0.0300076 -0.0280696 0)
(0.0385399 -0.0266913 0)
(0.0474298 -0.0248123 0)
(0.0564413 -0.0223693 0)
(0.0652445 -0.0193301 0)
(0.0734015 -0.0157249 0)
(0.0803982 -0.0116728 0)
(0.0856965 -0.00739017 0)
(0.0888084 -0.0031569 0)
(0.0893604 0.000734758 0)
(0.0871524 0.0040253 0)
(0.0822046 0.00651236 0)
(0.0748175 0.00806848 0)
(0.065581 0.0086638 0)
(0.0553057 0.00839793 0)
(0.0448609 0.00750035 0)
(0.0349894 0.00625567 0)
(0.0262195 0.00490916 0)
(0.0188578 0.00363898 0)
(0.012999 0.00255704 0)
(0.00856564 0.00170694 0)
(0.00537414 0.00108276 0)
(0.00318973 0.000652447 0)
(0.00176837 0.000374333 0)
(0.000881502 0.000209307 0)
(0.000320391 0.000127444 0)
(0.00157657 -0.0380741 0)
(0.00801809 -0.0379162 0)
(0.015106 -0.0374899 0)
(0.0228336 -0.0367141 0)
(0.0311624 -0.0354968 0)
(0.0399974 -0.0337393 0)
(0.049178 -0.0313432 0)
(0.0584465 -0.028227 0)
(0.0674428 -0.0243486 0)
(0.0756919 -0.0197495 0)
(0.0826489 -0.0145914 0)
(0.0877692 -0.00916077 0)
(0.0905898 -0.00381649 0)
(0.0907789 0.00107871 0)
(0.0881804 0.0052068 0)
(0.0828512 0.00831616 0)
(0.0751236 0.0102453 0)
(0.0656151 0.0109566 0)
(0.0551586 0.0105821 0)
(0.0446256 0.00942107 0)
(0.034737 0.00783789 0)
(0.0259915 0.00613876 0)
(0.0186744 0.00454343 0)
(0.0128641 0.00318907 0)
(0.00847334 0.00212723 0)
(0.00531493 0.00134863 0)
(0.00315404 0.000812329 0)
(0.00174834 0.000465888 0)
(0.000871473 0.000260408 0)
(0.000316704 0.000158547 0)
(0.00165138 -0.0464016 0)
(0.00839819 -0.0462075 0)
(0.0158197 -0.0456818 0)
(0.0239052 -0.0447247 0)
(0.0326089 -0.0432223 0)
(0.0418225 -0.0410534 0)
(0.0513672 -0.0380968 0)
(0.0609582 -0.0342513 0)
(0.0701966 -0.0294632 0)
(0.0785563 -0.0237891 0)
(0.0854518 -0.017448 0)
(0.0903361 -0.0108143 0)
(0.0927834 -0.00433167 0)
(0.092519 0.00157065 0)
(0.0894364 0.00652456 0)
(0.0836363 0.010235 0)
(0.0754883 0.0125106 0)
(0.0656453 0.0133083 0)
(0.0549684 0.012797 0)
(0.044331 0.0113517 0)
(0.0344245 0.00941862 0)
(0.0257112 0.007362 0)
(0.0184496 0.00544043 0)
(0.0126992 0.00381467 0)
(0.00836074 0.00254279 0)
(0.00524278 0.00161135 0)
(0.00311059 0.000970264 0)
(0.00172395 0.000556312 0)
(0.000859274 0.000310856 0)
(0.000312219 0.000189276 0)
(0.0017428 -0.0551554 0)
(0.00886191 -0.0549217 0)
(0.0166902 -0.0542874 0)
(0.0252128 -0.0531315 0)
(0.0343738 -0.0513159 0)
(0.0440488 -0.0486949 0)
(0.0540363 -0.0451249 0)
(0.0640218 -0.0404821 0)
(0.0735564 -0.0346951 0)
(0.082043 -0.0278409 0)
(0.0888429 -0.0202195 0)
(0.0934161 -0.0123167 0)
(0.0953949 -0.00466727 0)
(0.0945779 0.00224431 0)
(0.0909141 0.00800784 0)
(0.0845522 0.0122935 0)
(0.0759035 0.0148827 0)
(0.0656642 0.0157304 0)
(0.0547293 0.0150479 0)
(0.0439736 0.0132932 0)
(0.0340508 0.010997 0)
(0.0253779 0.00857736 0)
(0.0181836 0.00632837 0)
(0.0125046 0.00443253 0)
(0.00822808 0.00295267 0)
(0.00515785 0.00187029 0)