/*--------------------------------*- C++ -*----------------------------------*\
| =========                 |                                                 |
| \\      /  F ield         | OpenFOAM: The Open Source CFD Toolbox           |
|  \\    /   O peration     | Version:  2.4.0                                 |
|   \\  /    A nd           | Web:      www.OpenFOAM.org                      |
|    \\/     M anipulation  |                                                 |
\*---------------------------------------------------------------------------*/
FoamFile
{
    version     2.0;
    format      ascii;
    class       volScalarField;
    location    "0.289";
    object      alpha.water;
}
// * * * * * * * * * * * * * * * * * * * * * * * * * * * * * * * * * * * * * //

dimensions      [0 0 0 0 0 0 0];

internalField   nonuniform List<scalar> 
10000
(
9.73099e-54
1.04523e-49
5.5991e-46
1.24917e-42
6.24426e-40
9.30153e-38
5.61649e-36
1.67898e-34
2.82778e-33
2.96146e-32
2.16075e-31
1.23472e-30
6.0499e-30
2.81452e-29
1.33295e-28
6.69495e-28
3.84277e-27
2.32661e-26
1.34804e-25
7.30934e-25
3.62089e-24
1.64771e-23
6.93386e-23
2.70223e-22
9.63286e-22
3.10181e-21
8.89154e-21
2.21709e-20
4.46405e-20
6.45726e-20
6.68036e-20
4.97006e-20
2.73543e-20
1.15819e-20
3.9596e-21
1.1491e-21
2.91205e-22
6.39126e-23
1.17833e-23
1.77325e-24
2.14424e-25
2.09853e-26
1.67069e-27
1.06155e-28
5.1425e-30
1.91397e-31
3.50201e-32
1.23192e-31
4.98833e-31
2.09874e-30
9.12607e-51
1.24965e-46
1.21738e-42
2.43927e-39
9.77442e-37
1.2273e-34
6.53494e-33
1.77928e-31
2.79123e-30
2.76001e-29
1.91554e-28
1.04244e-27
4.87867e-27
2.21503e-26
1.03383e-25
4.99818e-25
2.71686e-24
1.55217e-23
8.25472e-23
4.10915e-22
1.89112e-21
7.94362e-21
3.0753e-20
1.09945e-19
3.62129e-19
1.07991e-18
2.84861e-18
6.51424e-18
1.22412e-17
1.75258e-17
1.89357e-17
1.55087e-17
9.72959e-18
4.79496e-18
1.93168e-18
6.6167e-19
1.96219e-19
5.02056e-20
1.08875e-20
1.96685e-21
2.92458e-22
3.59132e-23
3.62709e-24
2.94735e-25
1.8788e-26
9.85335e-28
3.17785e-28
1.2884e-27
5.84262e-27
2.71692e-26
2.02058e-48
6.46641e-44
7.97595e-40
1.25918e-36
4.05797e-34
4.32269e-32
2.03748e-30
5.06895e-29
7.43436e-28
6.97336e-27
4.62221e-26
2.40151e-25
1.07944e-24
4.75449e-24
2.15582e-23
1.00044e-22
5.06412e-22
2.67455e-21
1.30228e-20
5.91348e-20
2.48954e-19
9.60649e-19
3.42452e-18
1.12931e-17
3.43706e-17
9.55959e-17
2.367e-16
5.07418e-16
9.10579e-16
1.29579e-15
1.44414e-15
1.26449e-15
8.71612e-16
4.80812e-16
2.19722e-16
8.58688e-17
2.90962e-17
8.53512e-18
2.14194e-18
4.54245e-19
8.06288e-20
1.19928e-20
1.47193e-21
1.45655e-22
1.14072e-23
8.14792e-25
6.73462e-25
3.41056e-24
1.85873e-23
1.15792e-22
3.42122e-46
1.93178e-41
2.4221e-37
2.93758e-34
7.65265e-32
6.95886e-30
2.9164e-28
6.6533e-27
9.15415e-26
8.17478e-25
5.19359e-24
2.57552e-23
1.11039e-22
4.69783e-22
2.04831e-21
9.04279e-21
4.23972e-20
2.05145e-19
9.19869e-19
3.81605e-18
1.46067e-17
5.15905e-17
1.68932e-16
5.1485e-16
1.45619e-15
3.78185e-15
8.83911e-15
1.8013e-14
3.12143e-14
4.42187e-14
5.04699e-14
4.64003e-14
3.43338e-14
2.06482e-14
1.03839e-14
4.48736e-15
1.68961e-15
5.54695e-16
1.57298e-16
3.80595e-17
7.79891e-18
1.34669e-18
1.91038e-19
2.17376e-20
1.96254e-21
2.21056e-22
5.63505e-22
3.57276e-21
2.23017e-20
1.31032e-19
4.02272e-44
4.08259e-39
4.15893e-35
3.83571e-32
8.14407e-30
6.36882e-28
2.38558e-26
5.00979e-25
6.48967e-24
5.53785e-23
3.38222e-22
1.60382e-21
6.61059e-21
2.66498e-20
1.10639e-19
4.60593e-19
2.00092e-18
8.85453e-18
3.66057e-17
1.3924e-16
4.84256e-16
1.55915e-15
4.6835e-15
1.32001e-14
3.47586e-14
8.45908e-14
1.86908e-13
3.64674e-13
6.12795e-13
8.64194e-13
1.00613e-12
9.62257e-13
7.52306e-13
4.83722e-13
2.62059e-13
1.22691e-13
5.03549e-14
1.81531e-14
5.69379e-15
1.5316e-15
3.51237e-16
6.74405e-17
1.05675e-17
1.32147e-18
1.31998e-19
3.39151e-20
1.62465e-19
9.88561e-19
5.52539e-18
2.70121e-17
3.58726e-42
6.14749e-37
4.45927e-33
3.14492e-30
5.50338e-28
3.73004e-26
1.25533e-24
2.43545e-23
2.98023e-22
2.43863e-21
1.43606e-20
6.53347e-20
2.56746e-19
9.80853e-19
3.8321e-18
1.49506e-17
6.02248e-17
2.44563e-16
9.29033e-16
3.23516e-15
1.02565e-14
3.01262e-14
8.308e-14
2.16368e-13
5.30784e-13
1.21219e-12
2.535e-12
4.74254e-12
7.7489e-12
1.0876e-11
1.28859e-11
1.27533e-11
1.04329e-11
7.07004e-12
4.06334e-12
2.03198e-12
8.97303e-13
3.50473e-13
1.19683e-13
3.52086e-14
8.83264e-15
1.83773e-15
3.10482e-16
4.1585e-17
4.63663e-18
2.8051e-18
1.52062e-17
8.33588e-17
3.99005e-16
1.66514e-15
2.65591e-40
6.39411e-35
3.19843e-31
1.7463e-28
2.54533e-26
1.50611e-24
4.57566e-23
8.22659e-22
9.53231e-21
7.50278e-20
4.27358e-19
1.87361e-18
7.00951e-18
2.52645e-17
9.20674e-17
3.33968e-16
1.25069e-15
4.65282e-15
1.62669e-14
5.18403e-14
1.49947e-13
4.02148e-13
1.01913e-12
2.45628e-12
5.613e-12
1.20343e-11
2.38058e-11
4.26668e-11
6.78782e-11
9.4754e-11
1.14063e-10
1.1651e-10
9.91231e-11
7.00529e-11
4.22603e-11
2.23584e-11
1.05249e-11
4.40609e-12
1.62048e-12
5.16473e-13
1.40138e-13
3.13999e-14
5.67977e-15
8.105e-16
1.03868e-16
1.08894e-16
5.69049e-16
2.76938e-15
1.17092e-14
4.32852e-14
1.94564e-38
4.68415e-33
1.61792e-29
6.9264e-27
8.48614e-25
4.41079e-23
1.21451e-21
2.02868e-20
2.22988e-19
1.69222e-18
9.35142e-18
3.97105e-17
1.41533e-16
4.79689e-16
1.62014e-15
5.43121e-15
1.88479e-14
6.42184e-14
2.07062e-13
6.04655e-13
1.59602e-12
3.91206e-12
9.11623e-12
2.03636e-11
4.34305e-11
8.73176e-11
1.63115e-10
2.79468e-10
4.32543e-10
6.00134e-10
7.33923e-10
7.73392e-10
6.81497e-10
4.97356e-10
3.12117e-10
1.73559e-10
8.66077e-11
3.8632e-11
1.52207e-11
5.22355e-12
1.52727e-12
3.69227e-13
7.16538e-14
1.09336e-14
1.59412e-15
2.12463e-15
1.03455e-14
4.56952e-14
1.75467e-13
5.89437e-13
1.52904e-36
2.49014e-31
6.01386e-28
2.04065e-25
2.11769e-23
9.71884e-22
2.43348e-20
3.78379e-19
3.9498e-18
2.89419e-17
1.55576e-16
6.43321e-16
2.18992e-15
6.96907e-15
2.17236e-14
6.69576e-14
2.1381e-13
6.68264e-13
1.98991e-12
5.32826e-12
1.2852e-11
2.88091e-11
6.18072e-11
1.28168e-10
2.55453e-10
4.81791e-10
8.48835e-10
1.386e-09
2.08194e-09
2.87262e-09
3.5774e-09
3.89817e-09
3.54791e-09
2.6404e-09
1.70823e-09
9.9359e-10
5.23656e-10
2.48607e-10
1.04938e-10
3.87654e-11
1.22305e-11
3.20246e-12
6.73589e-13
1.10915e-13
1.76259e-14
2.36427e-14
1.06702e-13
4.37078e-13
1.55625e-12
4.85598e-12
1.07768e-34
9.89734e-30
1.69462e-26
4.60103e-24
4.07044e-22
1.6567e-20
3.78236e-19
5.48177e-18
5.43664e-17
3.84832e-16
2.01592e-15
8.15208e-15
2.66395e-14
7.96815e-14
2.28871e-13
6.45268e-13
1.8827e-12
5.38946e-12
1.48375e-11
3.65341e-11
8.06438e-11
1.65355e-10
3.2727e-10
6.3155e-10
1.17779e-09
2.08485e-09
3.46142e-09
5.37843e-09
7.83636e-09
1.08232e-08
1.38384e-08
1.57097e-08
1.47495e-08
1.0943e-08
7.20041e-09
4.35367e-09
2.41865e-09
1.22369e-09
5.55215e-10
2.21797e-10
7.60183e-11
2.17042e-11
5.00575e-12
9.02873e-13
1.49198e-13
1.67005e-13
7.00664e-13
2.71167e-12
9.11859e-12
2.6849e-11
6.13485e-33
3.01846e-28
3.71132e-25
8.13038e-23
6.1658e-21
2.23381e-19
4.66007e-18
6.29965e-17
5.9339e-16
4.05563e-15
2.07217e-14
8.21456e-14
2.59482e-13
7.31515e-13
1.94036e-12
4.98186e-12
1.31911e-11
3.4489e-11
8.78565e-11
1.99725e-10
4.04266e-10
7.5869e-10
1.38764e-09
2.49632e-09
4.3566e-09
7.24365e-09
1.13462e-08
1.68258e-08
2.39753e-08
3.38233e-08
4.50403e-08
5.40217e-08
5.29415e-08
3.71925e-08
2.44334e-08
1.52141e-08
8.86835e-09
4.7823e-09
2.34036e-09
1.0161e-09
3.81086e-10
1.19672e-10
3.05032e-11
6.09973e-12
1.0405e-12
8.29365e-13
3.196e-12
1.18628e-11
3.82114e-11
1.07524e-10
2.75795e-31
7.22161e-27
6.4543e-24
1.1492e-21
7.50569e-20
2.4277e-18
4.63464e-17
5.84406e-16
5.22202e-15
3.44057e-14
1.71383e-13
6.66411e-13
2.04978e-12
5.47212e-12
1.34694e-11
3.14595e-11
7.50782e-11
1.78825e-10
4.21116e-10
8.8747e-10
1.65198e-09
2.84325e-09
4.81351e-09
8.06796e-09
1.31663e-08
2.05473e-08
3.03409e-08
4.30172e-08
6.0876e-08
9.07201e-08
1.27418e-07
1.70191e-07
1.89916e-07
1.06923e-07
6.89113e-08
4.41142e-08
2.68614e-08
1.53834e-08
8.10431e-09
3.8296e-09
1.58024e-09
5.50084e-10
1.5618e-10
3.48716e-11
6.2945e-12
3.21186e-12
1.08087e-11
3.8965e-11
1.21655e-10
3.30814e-10
9.81737e-30
1.38535e-25
9.10107e-23
1.32501e-20
7.47991e-19
2.16438e-17
3.78356e-16
4.44618e-15
3.76039e-14
2.3812e-13
1.15393e-12
4.39579e-12
1.32445e-11
3.36884e-11
7.75238e-11
1.65194e-10
3.53763e-10
7.62597e-10
1.66231e-09
3.25863e-09
5.59852e-09
8.85894e-09
1.38963e-08
2.16578e-08
3.29509e-08
4.7821e-08
6.54603e-08
8.68963e-08
1.24623e-07
2.14234e-07
3.32885e-07
5.92854e-07
8.3881e-07
2.81678e-07
1.64764e-07
1.09772e-07
6.97932e-08
4.21397e-08
2.36676e-08
1.20918e-08
5.47551e-09
2.12054e-09
6.76545e-10
1.69976e-10
3.34395e-11
1.09784e-11
2.85941e-11
1.00862e-10
3.08745e-10
8.19134e-10
2.82371e-28
2.18725e-24
1.06561e-21
1.27382e-19
6.2285e-18
1.61333e-16
2.58064e-15
2.81982e-14
2.24876e-13
1.36187e-12
6.39286e-12
2.37732e-11
7.04206e-11
1.71744e-10
3.72442e-10
7.29485e-10
1.40305e-09
2.71841e-09
5.50227e-09
1.00583e-08
1.59629e-08
2.3248e-08
3.39021e-08
4.90249e-08
6.89637e-08
9.23875e-08
1.17999e-07
1.51336e-07
2.2069e-07
4.18651e-07
9.64621e-07
2.25646e-06
3.18967e-06
1.18091e-06
5.51172e-07
2.95945e-07
1.72019e-07
1.03023e-07
5.97489e-08
3.24135e-08
1.59319e-08
6.83467e-09
2.45355e-09
7.019e-10
1.54636e-10
3.74772e-11
6.21908e-11
2.13708e-10
6.48333e-10
1.69353e-09
6.73705e-27
2.93677e-23
1.06665e-20
1.04893e-18
4.4436e-17
1.02914e-15
1.50261e-14
1.52047e-13
1.13657e-12
6.53373e-12
2.94829e-11
1.06331e-10
3.08794e-10
7.28904e-10
1.49822e-09
2.72925e-09
4.7515e-09
8.22492e-09
1.55812e-08
2.67151e-08
3.88112e-08
5.20559e-08
7.0991e-08
9.45777e-08
1.20787e-07
1.46045e-07
1.70368e-07
2.1657e-07
3.88392e-07
9.46229e-07
2.51485e-06
1.30244e-05
1.51169e-05
2.18851e-06
9.31194e-07
5.08808e-07
2.84304e-07
1.80831e-07
1.14997e-07
6.8899e-08
3.7586e-08
1.80524e-08
7.33661e-09
2.40729e-09
6.09529e-10
1.33087e-10
1.18438e-10
3.82041e-10
1.15981e-09
3.00984e-09
1.3625e-25
3.45595e-22
9.39404e-20
7.61061e-18
2.79258e-16
5.77235e-15
7.66738e-14
7.14743e-13
4.96932e-12
2.68375e-11
1.15028e-10
3.97885e-10
1.1221e-09
2.58037e-09
5.05146e-09
8.65631e-09
1.38539e-08
2.14183e-08
3.87316e-08
6.33479e-08
8.11612e-08
1.01451e-07
1.29966e-07
1.57056e-07
1.78924e-07
1.96318e-07
2.23198e-07
3.08274e-07
5.56763e-07
1.11988e-06
1.24336e-05
1.58306e-05
1.59571e-05
1.28013e-05
1.09109e-06
6.51355e-07
3.21467e-07
2.21252e-07
1.61365e-07
1.11497e-07
6.9876e-08
3.84536e-08
1.79319e-08
6.80323e-09
2.00582e-09
4.61935e-10
2.18846e-10
5.90837e-10
1.80711e-09
4.70626e-09
2.32037e-24
3.57383e-21
7.34733e-19
4.93189e-17
1.57223e-15
2.90389e-14
3.50667e-13
3.0026e-12
1.92979e-11
9.6899e-11
3.88986e-10
1.26972e-09
3.42179e-09
7.61708e-09
1.42677e-08
2.31993e-08
3.46685e-08
4.83264e-08
5.45069e-08
1.31659e-07
1.45042e-07
1.64964e-07
1.81004e-07
2.2515e-07
2.17654e-07
1.98226e-07
2.40047e-07
2.73522e-07
4.12351e-07
9.18736e-07
2.48931e-06
1.33172e-05
1.54491e-05
2.56496e-06
1.14229e-06
6.88587e-07
3.57418e-07
2.51454e-07
1.99367e-07
1.54787e-07
1.10252e-07
6.92414e-08
3.69911e-08
1.61921e-08
5.56555e-09
1.45388e-09
4.48776e-10
8.11807e-10
2.49597e-09
6.58644e-09
3.17167e-23
3.14008e-20
4.98762e-18
2.80802e-16
7.84328e-15
1.30256e-13
1.43655e-12
1.13319e-11
6.73728e-11
3.13376e-10
1.16786e-09
3.54843e-09
8.95589e-09
1.8896e-08
3.37628e-08
5.23517e-08
7.4023e-08
6.96014e-08
1.73054e-07
2.33403e-07
2.06947e-07
2.33196e-07
1.90922e-07
2.95351e-07
3.03514e-07
4.65821e-07
2.45915e-07
2.71476e-07
2.96371e-07
4.05122e-07
8.73821e-07
2.08551e-06
2.77644e-06
1.46306e-06
6.40695e-07
4.42727e-07
3.16295e-07
2.64313e-07
2.32319e-07
1.98553e-07
1.56915e-07
1.10341e-07
6.66994e-08
3.34013e-08
1.33072e-08
4.03743e-09
1.07035e-09
1.04141e-09
3.08968e-09
8.36282e-09
3.31963e-22
2.25072e-19
2.84135e-17
1.36262e-15
3.36699e-14
5.06084e-13
5.12421e-12
3.74264e-11
2.06895e-10
8.95598e-10
3.10605e-09
8.77581e-09
2.05317e-08
4.04303e-08
6.82835e-08
1.00256e-07
1.34802e-07
1.34656e-07
2.51173e-07
2.98314e-07
2.42444e-07
3.14925e-07
4.9812e-07
3.12797e-07
3.49388e-07
3.51665e-07
6.82721e-07
2.79454e-07
2.95428e-07
3.14298e-07
3.98683e-07
7.32178e-07
1.10388e-06
6.34646e-07
3.8632e-07
2.9933e-07
2.87484e-07
2.7587e-07
2.64939e-07
2.4351e-07
2.06141e-07
1.58452e-07
1.06859e-07
6.06736e-08
2.78797e-08
9.9154e-09
2.75218e-09
1.39534e-09
3.46154e-09
9.7133e-09
2.58268e-21
1.28349e-18
1.32705e-16
5.50728e-15
1.21521e-13
1.66232e-12
1.55055e-11
1.05091e-10
5.41229e-10
2.18634e-09
7.0822e-09
1.87022e-08
4.08518e-08
7.51689e-08
1.1902e-07
1.66263e-07
2.1098e-07
2.30133e-07
4.13775e-07
3.61847e-07
2.5548e-07
3.4324e-07
8.42161e-07
4.43044e-07
3.80157e-07
3.46484e-07
3.10518e-07
3.0473e-07
3.16594e-07
3.17429e-07
3.4052e-07
3.90056e-07
4.59018e-07
3.99975e-07
3.68963e-07
5.87736e-07
2.9864e-07
3.17868e-07
3.43528e-07
3.38605e-07
2.77086e-07
2.13309e-07
1.5472e-07
9.8235e-08
5.16781e-08
2.14934e-08
6.85492e-09
2.3263e-09
3.59e-09
1.03409e-08
1.48669e-20
5.71149e-18
4.96949e-16
1.81404e-14
3.61024e-13
4.52399e-12
3.90345e-11
2.46162e-10
1.18315e-09
4.46625e-09
1.353e-08
3.34446e-08
6.85203e-08
1.18953e-07
1.80649e-07
2.51699e-07
3.41635e-07
4.7799e-07
7.90444e-07
4.00428e-07
8.30491e-07
4.43842e-07
6.29607e-07
5.38714e-07
4.32484e-07
3.74217e-07
3.4232e-07
3.25488e-07
3.1776e-07
4.16778e-07
3.51571e-07
4.03374e-07
4.12977e-07
4.08709e-07
4.01673e-07
4.42123e-07
4.00294e-07
4.67804e-07
6.37255e-07
7.38359e-07
5.12579e-07
3.2873e-07
2.1914e-07
1.45658e-07
8.59238e-08
4.15226e-08
1.56099e-08
4.9096e-09
3.7877e-09
1.01006e-08
6.20979e-20
1.94656e-17
1.46715e-15
4.79504e-14
8.7146e-13
1.00951e-11
8.11293e-11
4.7856e-10
2.15604e-09
7.6355e-09
2.17116e-08
5.04284e-08
9.74541e-08
1.61304e-07
2.39945e-07
3.46488e-07
5.35546e-07
9.42297e-07
1.10338e-06
2.24321e-06
3.85211e-06
2.42597e-06
1.2449e-06
7.94267e-07
5.69956e-07
4.46999e-07
3.78503e-07
3.44493e-07
3.57308e-07
3.57798e-07
5.86602e-07
5.36069e-07
5.03618e-07
4.93559e-07
4.94838e-07
5.17666e-07
5.71153e-07
6.84676e-07
7.85667e-07
2.01624e-06
8.68513e-07
6.44556e-07
3.83026e-07
2.25438e-07
1.34955e-07
7.2794e-08
3.20669e-08
1.12022e-08
4.95322e-09
9.26321e-09
1.88633e-19
5.06893e-17
3.41096e-15
1.01883e-13
1.71649e-12
1.85944e-11
1.40452e-10
7.81012e-10
3.3213e-09
1.11038e-08
2.97999e-08
6.53575e-08
1.19609e-07
1.88857e-07
2.73822e-07
4.01061e-07
6.51703e-07
1.15843e-06
1.63121e-06
4.82692e-06
8.08482e-06
7.76028e-06
2.43267e-06
9.1557e-07
6.71345e-07
4.92827e-07
4.01958e-07
3.57176e-07
3.4906e-07
4.02407e-07
4.5431e-07
5.52228e-07
5.4326e-07
5.55048e-07
5.27576e-07
5.19009e-07
5.45927e-07
5.46441e-07
6.93545e-06
1.3152e-05
1.07077e-05
1.64039e-06
8.34831e-07
4.28926e-07
2.28504e-07
1.23478e-07
6.04547e-08
2.44231e-08
8.98133e-09
8.67049e-09
4.25476e-19
1.02455e-16
6.3369e-15
1.76598e-13
2.80099e-12
2.87299e-11
2.06218e-10
1.09181e-09
4.42396e-09
1.40904e-08
3.60179e-08
7.53201e-08
1.32207e-07
2.04389e-07
3.03455e-07
4.74487e-07
8.00423e-07
1.40688e-06
1.40902e-06
7.50838e-06
9.44028e-06
9.9212e-06
3.3025e-06
1.32396e-06
8.89013e-07
5.33233e-07
3.9678e-07
3.51524e-07
3.45732e-07
3.45766e-07
1.46444e-06
7.05159e-07
8.94788e-07
5.62151e-07
5.55366e-07
5.55848e-07
6.54353e-07
1.29924e-06
1.28231e-05
1.31499e-05
1.31496e-05
7.86487e-06
5.37598e-07
5.23395e-07
3.31481e-07
1.90695e-07
1.02432e-07
4.77728e-08
1.88034e-08
1.01307e-08
7.32453e-19
1.63932e-16
9.56285e-15
2.5364e-13
3.84917e-12
3.789e-11
2.61494e-10
1.33261e-09
5.19986e-09
1.59524e-08
3.93019e-08
7.93958e-08
1.35374e-07
2.05867e-07
3.10176e-07
5.26877e-07
1.06617e-06
1.04299e-06
8.57563e-06
2.68586e-05
2.8715e-05
2.87152e-05
1.69914e-05
7.48897e-07
5.771e-07
4.4803e-07
3.72056e-07
3.52752e-07
3.49372e-07
3.99809e-07
4.0443e-07
8.12257e-07
8.52026e-07
7.09169e-07
5.91571e-07
6.33108e-07
7.81017e-07
7.81293e-07
9.23228e-06
1.31503e-05
1.315e-05
5.77922e-06
5.72452e-07
5.62467e-07
3.9042e-07
2.49144e-07
1.50666e-07
8.14572e-08
3.72705e-08
1.64141e-08
9.86827e-19
2.1149e-16
1.1914e-14
3.06318e-13
4.5169e-12
4.32395e-11
2.90327e-10
1.43977e-09
5.46963e-09
1.63555e-08
3.93692e-08
7.80429e-08
1.31413e-07
1.98413e-07
2.96728e-07
5.00219e-07
9.88467e-07
7.92143e-07
1.76996e-05
2.87087e-05
2.87099e-05
2.87125e-05
2.84389e-05
4.22127e-06
4.13506e-07
4.05262e-07
3.52888e-07
5.84677e-07
3.55213e-07
4.14632e-07
5.76829e-07
7.01712e-07
1.87538e-06
1.12216e-06
6.4504e-07
5.4984e-07
6.09465e-07
9.73215e-07
1.07356e-06
6.60964e-06
5.06032e-06
1.75647e-06
2.56382e-06
1.00051e-06
5.86415e-07
3.57378e-07
2.22636e-07
1.31242e-07
6.83786e-08
3.13299e-08
1.06343e-18
2.23993e-16
1.24351e-14
3.15513e-13
4.59033e-12
4.33298e-11
2.86697e-10
1.40104e-09
5.24885e-09
1.55052e-08
3.6984e-08
7.29337e-08
1.22511e-07
1.83818e-07
2.69673e-07
4.11132e-07
1.09551e-06
7.90503e-07
1.84352e-05
2.87088e-05
2.8707e-05
2.87075e-05
2.78391e-05
4.32597e-06
4.04333e-07
3.96072e-07
3.52776e-07
3.43211e-07
3.62548e-07
4.10594e-07
5.10679e-07
6.29453e-07
6.59646e-07
6.13048e-07
4.82345e-07
4.36576e-07
4.47593e-07
5.6295e-07
8.24939e-07
6.02912e-07
5.2859e-07
7.66865e-07
7.37351e-07
6.88223e-07
5.98613e-07
4.6002e-07
3.20464e-07
2.05774e-07
1.18948e-07
6.03179e-08
9.30367e-19
1.97567e-16
1.10318e-14
2.80667e-13
4.08688e-12
3.85764e-11
2.55062e-10
1.24492e-09
4.66018e-09
1.37787e-08
3.2988e-08
6.54764e-08
1.10616e-07
1.64202e-07
2.23739e-07
2.99335e-07
4.21339e-07
7.89939e-07
2.53784e-06
2.13286e-05
2.87076e-05
2.87084e-05
1.00529e-05
4.76683e-07
4.65739e-07
3.91867e-07
3.66594e-07
3.72865e-07
3.90257e-07
4.13035e-07
4.51454e-07
4.93142e-07
4.87875e-07
4.42763e-07
4.01418e-07
3.96381e-07
3.91214e-07
4.22026e-07
4.99927e-07
5.24172e-07
5.20182e-07
5.16894e-07
3.9151e-07
1.33588e-06
9.51596e-07
6.777e-07
4.48633e-07
2.91063e-07
1.79487e-07
1.01136e-07
6.66553e-19
1.46186e-16
8.3629e-15
2.17037e-13
3.21483e-12
3.07878e-11
2.06156e-10
1.01844e-09
3.86016e-09
1.15709e-08
2.81419e-08
5.69066e-08
9.81701e-08
1.48472e-07
2.02655e-07
2.56427e-07
3.09534e-07
4.09015e-07
9.55884e-07
2.43074e-06
2.0148e-06
2.49371e-06
1.14745e-06
6.87405e-07
4.67499e-07
3.86168e-07
3.8813e-07
4.17893e-07
4.33525e-07
4.2091e-07
4.37673e-07
4.38341e-07
4.32407e-07
4.12511e-07
3.84722e-07
6.6886e-07
3.78036e-07
3.97587e-07
4.1623e-07
4.2475e-07
4.21855e-07
4.04585e-07
3.89824e-07
4.27026e-07
7.18421e-07
1.12646e-06
9.93886e-07
6.39514e-07
3.71107e-07
2.09856e-07
3.91005e-19
9.04343e-17
5.40336e-15
1.45568e-13
2.2266e-12
2.19502e-11
1.51049e-10
7.66016e-10
2.97921e-09
9.16701e-09
2.29129e-08
4.76821e-08
8.46458e-08
1.3112e-07
1.80333e-07
2.22158e-07
2.29236e-07
4.4819e-07
4.85025e-07
7.29756e-07
6.67963e-07
6.57806e-07
5.36681e-07
4.42989e-07
3.96317e-07
4.31851e-07
4.54989e-07
4.72807e-07
4.36964e-07
5.91259e-07
4.40419e-07
8.96253e-07
4.38641e-07
4.26832e-07
3.96729e-07
3.75384e-07
3.72534e-07
3.71869e-07
4.34525e-07
4.3156e-07
4.29795e-07
4.14188e-07
3.90246e-07
3.74804e-07
4.84121e-07
4.88445e-07
1.12408e-06
1.41362e-06
1.01549e-06
5.34242e-07
1.85787e-19
4.63643e-17
2.95841e-15
8.42116e-14
1.35174e-12
1.39259e-11
9.99551e-11
5.28325e-10
2.14155e-09
6.86773e-09
1.7887e-08
3.87691e-08
7.1611e-08
1.15311e-07
1.64888e-07
2.12013e-07
2.47523e-07
2.52913e-07
4.56953e-07
4.15129e-07
3.72244e-07
3.62419e-07
3.72276e-07
3.78708e-07
4.09257e-07
4.16668e-07
1.0128e-06
7.1925e-07
5.89131e-07
5.66029e-07
4.51077e-07
5.90239e-07
6.90725e-07
4.38573e-07
4.34495e-07
4.00182e-07
3.85353e-07
3.85009e-07
3.85027e-07
5.25392e-07
4.77831e-07
4.6123e-07
4.41253e-07
4.1207e-07
4.0979e-07
4.27566e-07
5.73439e-07
8.0332e-07
1.01105e-06
7.04854e-07
7.14507e-20
1.96846e-17
1.36405e-15
4.17354e-14
7.15413e-13
7.83819e-12
5.9689e-11
3.34221e-10
1.43345e-09
4.8581e-09
1.33523e-08
3.04773e-08
5.90703e-08
9.92234e-08
1.47036e-07
1.95186e-07
2.35582e-07
2.62415e-07
2.6869e-07
2.93589e-07
3.08714e-07
3.08138e-07
7.40188e-07
3.45297e-07
4.0509e-07
4.57945e-07
5.00818e-07
5.4477e-07
4.53474e-07
4.54222e-07
1.28621e-05
3.47359e-05
3.46062e-05
1.8925e-05
1.02413e-06
5.1118e-07
4.43258e-07
4.23478e-07
4.37863e-07
4.38148e-07
9.4037e-07
4.9328e-07
4.80222e-07
4.56159e-07
5.2713e-07
4.82635e-07
4.94859e-07
4.78324e-07
9.79671e-07
7.33613e-07
2.21721e-20
6.88249e-18
5.284e-16
1.77079e-14
3.29779e-13
3.90544e-12
3.20075e-11
1.92277e-10
8.83134e-10
3.2027e-09
9.41226e-09
2.29119e-08
4.71217e-08
8.33092e-08
1.28424e-07
1.75052e-07
2.14337e-07
2.38101e-07
2.69607e-07
2.84375e-07
2.97039e-07
3.07852e-07
3.03812e-07
3.34537e-07
3.54731e-07
3.91317e-07
3.95668e-07
3.56642e-07
3.28509e-07
1.40761e-05
4.79379e-05
4.79381e-05
4.79136e-05
4.79285e-05
2.47773e-05
5.91889e-07
5.34898e-07
4.71487e-07
4.38432e-07
8.48935e-07
6.45508e-07
5.91229e-07
5.13855e-07
4.6522e-07
2.08153e-06
2.1238e-06
2.12793e-06
6.0684e-07
5.54617e-07
7.09535e-07
5.53397e-21
1.96464e-18
1.70369e-16
6.35653e-15
1.30559e-13
1.69297e-12
1.51249e-11
9.88094e-11
4.92634e-10
1.93593e-09
6.14688e-09
1.6104e-08
3.54809e-08
6.68105e-08
1.08805e-07
1.54682e-07
1.86581e-07
1.89141e-07
8.19764e-07
2.77086e-07
2.82694e-07
2.94757e-07
3.01903e-07
3.01428e-07
7.49123e-07
3.15595e-07
3.33724e-07
3.30105e-07
3.28458e-07
3.32322e-05
4.7934e-05
4.79135e-05
4.7908e-05
4.78987e-05
4.3572e-05
4.67372e-06
5.0657e-07
5.01633e-07
4.61716e-07
4.59767e-07
4.98434e-07
4.92537e-07
4.66353e-07
5.17078e-06
3.88805e-05
5.00256e-05
4.54173e-05
1.2266e-05
5.46017e-07
5.29204e-07
1.09327e-21
4.58055e-19
4.579e-17
1.93375e-15
4.4344e-14
6.36212e-13
6.25731e-12
4.48865e-11
2.45132e-10
1.05198e-09
3.63241e-09
1.03068e-08
2.45228e-08
4.98713e-08
8.78867e-08
1.35047e-07
1.39611e-07
2.85095e-07
1.75443e-07
2.59211e-07
2.68039e-07
2.66403e-07
4.23973e-07
3.00077e-07
2.94823e-07
3.02684e-07
3.24181e-07
3.28445e-07
3.28446e-07
3.01074e-05
4.79183e-05
4.79078e-05
4.78987e-05
4.79018e-05
4.23483e-05
3.91847e-06
7.64437e-07
5.09482e-07
9.00105e-07
4.84245e-07
4.72383e-07
4.66335e-07
4.66157e-07
3.93272e-05
5.00516e-05
5.00484e-05
5.00259e-05
5.00125e-05
1.03001e-05
5.0328e-07
1.62521e-22
8.43067e-20
1.01217e-17
4.99055e-16
1.30831e-14
2.11537e-13
2.31828e-12
1.83155e-11
1.09068e-10
5.07727e-10
1.89825e-09
5.82956e-09
1.50101e-08
3.30672e-08
6.32916e-08
1.05927e-07
1.5504e-07
1.63603e-07
1.66825e-07
8.81395e-07
3.1021e-07
2.83377e-07
2.7132e-07
3.23185e-07
2.93359e-07
5.33773e-07
3.29701e-07
3.33653e-07
3.28466e-07
2.10255e-05
4.7919e-05
4.79102e-05
4.78935e-05
4.7905e-05
3.70636e-05
2.76201e-06
5.48806e-07
5.49754e-07
4.97322e-07
4.88752e-07
4.76043e-07
4.66587e-07
4.66158e-07
4.30268e-05
5.00356e-05
5.00191e-05
5.00122e-05
5.0018e-05
2.15718e-05
4.91217e-07
1.84134e-23
1.25611e-20
1.90901e-18
1.15111e-16
3.58487e-15
6.66883e-14
8.15441e-13
7.01415e-12
4.47663e-11
2.21943e-10
8.83524e-10
2.90133e-09
8.04633e-09
1.91801e-08
3.99287e-08
7.32185e-08
1.17857e-07
1.66199e-07
1.92396e-07
1.9597e-07
4.21232e-07
2.60739e-07
2.70497e-07
2.71719e-07
2.92207e-07
2.93706e-07
3.4076e-07
3.55157e-07
3.46947e-07
3.46968e-07
2.07616e-05
4.5563e-05
4.78299e-05
3.53141e-05
4.28234e-06
5.50075e-07
5.44448e-07
6.2459e-07
5.62719e-07
5.40636e-07
5.01553e-07
4.68276e-07
4.66194e-07
3.99526e-05
5.00263e-05
5.00139e-05
4.99907e-05
5.00087e-05
2.15292e-05
4.74647e-07
1.61927e-24
1.55011e-21
3.23973e-19
2.57574e-17
9.93049e-16
2.15221e-14
2.92899e-13
2.71629e-12
1.83298e-11
9.48592e-11
3.91794e-10
1.34022e-09
3.90008e-09
9.8469e-09
2.1957e-08
4.36824e-08
7.73122e-08
1.20245e-07
1.17482e-07
3.20931e-07
1.83829e-07
2.36954e-07
2.6003e-07
2.76215e-07
2.90757e-07
3.11597e-07
3.46887e-07
3.89743e-07
4.59e-07
6.35999e-07
6.37277e-07
6.39183e-07
6.41746e-07
6.45131e-07
6.49983e-07
8.37648e-07
7.23035e-07
5.17209e-07
5.12665e-07
5.01178e-07
4.90363e-07
4.7456e-07
4.66936e-07
5.66033e-06
3.97414e-05
4.9998e-05
4.99898e-05
2.84656e-05
1.02874e-06
4.59219e-07
1.14421e-25
1.69364e-22
5.51538e-20
6.18045e-18
2.97804e-16
7.42638e-15
1.1053e-13
1.08838e-12
7.65242e-12
4.07699e-11
1.72438e-10
6.03497e-10
1.80168e-09
4.70403e-09
1.09337e-08
2.29373e-08
4.36717e-08
7.46716e-08
1.12886e-07
1.04114e-07
1.65316e-07
2.08977e-07
2.34707e-07
2.64851e-07
2.7913e-07
2.94849e-07
3.24862e-07
3.70162e-07
4.34112e-07
5.69595e-07
8.63906e-07
1.18426e-06
1.18693e-06
7.27421e-07
6.62556e-07
5.54491e-07
4.80506e-07
4.5459e-07
4.49189e-07
4.6532e-07
5.24739e-07
4.95733e-07
4.79614e-07
4.87555e-07
1.14813e-06
3.40448e-06
1.88768e-06
4.82688e-07
4.78402e-07
4.71311e-07
6.84803e-27
1.67397e-23
9.61531e-21
1.5482e-18
9.13204e-17
2.55774e-15
4.07422e-14
4.17802e-13
3.01666e-12
1.63991e-11
7.07083e-11
2.52451e-10
7.71016e-10
2.06812e-09
4.9682e-09
1.08411e-08
2.17007e-08
3.97863e-08
6.61082e-08
9.92118e-08
1.35651e-07
1.71653e-07
1.84939e-07
2.78014e-07
2.78374e-07
2.77721e-07
2.91189e-07
3.284e-07
4.03455e-07
5.06132e-07
5.63278e-07
5.31317e-07
8.00561e-07
6.53175e-07
5.12079e-07
4.40926e-07
4.09468e-07
3.89742e-07
3.80294e-07
5.24127e-07
4.85204e-07
4.16217e-07
1.60937e-06
4.3291e-06
2.04282e-06
5.28792e-07
5.14119e-07
5.008e-07
4.88146e-07
4.89291e-07
3.1735e-28
1.46018e-24
1.83432e-21
3.95585e-19
2.66605e-17
8.02638e-16
1.33525e-14
1.40978e-13
1.03941e-12
5.75456e-12
2.52934e-11
9.2262e-11
2.89115e-10
7.99071e-10
1.9874e-09
4.51093e-09
9.44804e-09
1.83365e-08
3.28353e-08
5.39365e-08
8.1271e-08
1.13086e-07
9.19571e-08
4.04898e-07
3.01008e-07
2.56799e-07
2.54548e-07
2.77064e-07
3.1718e-07
3.6325e-07
4.00481e-07
4.19724e-07
3.91102e-07
3.9061e-07
3.90325e-07
3.87482e-07
3.85125e-07
3.82047e-07
3.80369e-07
3.78193e-07
3.76889e-07
3.77862e-07
9.24045e-06
1.04305e-05
9.49248e-06
9.48029e-07
5.31259e-07
5.92119e-07
5.02142e-07
5.60878e-07
1.01014e-29
1.55345e-25
3.4278e-22
8.97748e-20
6.70792e-18
2.16276e-16
3.79118e-15
4.15857e-14
3.14595e-13
1.77071e-12
7.88308e-12
2.9178e-11
9.32819e-11
2.64871e-10
6.81672e-10
1.61197e-09
3.53828e-09
7.25053e-09
1.38734e-08
2.46974e-08
4.07749e-08
6.24183e-08
8.8614e-08
7.08048e-08
1.15501e-07
1.54532e-07
1.89111e-07
2.23982e-07
2.63167e-07
3.03665e-07
3.37273e-07
3.5898e-07
3.71376e-07
3.79692e-07
3.85869e-07
3.9335e-07
4.02771e-07
4.0215e-07
3.97252e-07
4.18762e-07
3.77117e-07
2.42727e-06
9.22934e-06
7.87162e-06
9.23054e-06
1.61521e-05
5.58015e-05
7.12209e-05
5.83851e-05
1.57323e-05
1.71448e-31
1.72294e-26
5.44308e-23
1.71874e-20
1.56282e-18
6.47342e-17
1.41663e-15
1.77613e-14
1.40703e-13
7.78239e-13
3.27705e-12
1.12718e-11
3.34913e-11
8.96198e-11
2.22447e-10
5.21306e-10
1.16249e-09
2.47045e-09
4.99182e-09
9.54204e-09
1.71536e-08
2.88706e-08
4.53845e-08
6.67843e-08
9.23821e-08
1.20609e-07
1.49987e-07
1.81389e-07
2.16961e-07
2.55199e-07
2.90518e-07
3.19879e-07
3.46667e-07
3.73001e-07
3.94364e-07
4.19956e-07
4.48437e-07
4.38419e-07
4.15106e-07
5.4379e-07
3.86779e-07
5.92727e-07
1.2031e-06
6.25666e-07
3.55143e-06
9.10545e-05
0.000126423
0.000126253
0.000126452
0.000104798
1.44199e-33
1.61885e-27
7.70986e-24
6.16842e-21
1.59239e-18
1.16321e-16
3.14176e-15
4.07995e-14
3.08286e-13
1.55263e-12
5.74539e-12
1.67828e-11
4.08978e-11
8.6747e-11
1.6686e-10
3.03167e-10
5.40874e-10
9.76247e-10
1.80348e-09
3.37944e-09
6.28779e-09
1.13621e-08
1.96105e-08
3.20285e-08
4.931e-08
7.14103e-08
9.75645e-08
1.27333e-07
1.63063e-07
2.05444e-07
2.50007e-07
2.93342e-07
3.3918e-07
3.85481e-07
4.17993e-07
4.57367e-07
5.00745e-07
4.4122e-07
8.11354e-07
8.92399e-07
8.59085e-07
6.01177e-07
6.15867e-07
6.19004e-07
4.12261e-05
0.000126523
0.000126268
0.00012618
0.000126199
0.00012647
2.22304e-35
1.50527e-28
9.77638e-24
2.91108e-20
8.45403e-18
5.56263e-16
1.33211e-14
1.55565e-13
1.07507e-12
5.02214e-12
1.74077e-11
4.78516e-11
1.09505e-10
2.15612e-10
3.75419e-10
5.91323e-10
8.59755e-10
1.17963e-09
1.57357e-09
2.1277e-09
3.05238e-09
4.759e-09
7.9319e-09
1.35521e-08
2.28063e-08
3.68008e-08
5.59458e-08
7.93765e-08
1.11228e-07
1.56209e-07
2.11036e-07
2.69061e-07
3.3401e-07
4.07615e-07
4.49452e-07
4.69332e-07
5.58011e-07
5.5487e-07
5.59478e-07
9.11963e-07
7.77896e-07
6.49546e-07
6.32706e-07
6.23639e-07
4.12369e-05
0.000126588
0.000126435
0.0001262
0.000126288
0.000126242
5.20336e-37
4.80141e-28
8.41809e-23
1.93536e-19
4.47339e-17
2.46177e-15
5.12456e-14
5.361e-13
3.39804e-12
1.48307e-11
4.8729e-11
1.28434e-10
2.84362e-10
5.45607e-10
9.30322e-10
1.43729e-09
2.04044e-09
2.68904e-09
3.31685e-09
3.866e-09
4.32724e-09
4.79804e-09
5.56915e-09
7.23631e-09
1.07928e-08
1.76195e-08
2.90334e-08
4.48504e-08
6.97312e-08
1.11088e-07
1.68006e-07
2.3146e-07
2.98353e-07
4.3921e-07
4.89906e-07
5.44542e-07
4.82513e-07
4.74043e-07
1.03766e-06
3.61528e-06
2.14091e-06
6.74161e-07
6.40727e-07
6.29074e-07
9.20946e-06
0.000105338
0.000126318
0.000126346
0.00012617
0.000106758
2.8213e-37
6.13095e-27
6.71223e-22
1.12309e-18
2.05798e-16
9.49049e-15
1.72323e-13
1.62112e-12
9.45848e-12
3.86864e-11
1.20785e-10
3.0583e-10
6.56275e-10
1.23009e-09
2.06331e-09
3.15554e-09
4.4599e-09
5.87949e-09
7.2715e-09
8.47222e-09
9.33465e-09
9.76081e-09
9.75846e-09
9.55188e-09
9.73454e-09
1.14167e-08
1.62156e-08
2.57242e-08
4.19898e-08
7.02628e-08
1.12795e-07
1.71256e-07
2.00918e-07
5.07258e-07
6.04709e-07
4.91196e-07
4.70582e-07
4.72315e-07
3.08015e-06
3.61372e-06
2.60219e-06
6.92912e-07
1.10262e-06
1.19784e-06
1.28093e-06
1.87207e-05
7.31727e-05
9.31926e-05
8.31042e-05
2.4611e-05
8.44054e-36
6.86173e-26
4.63657e-21
5.65926e-18
8.25438e-16
3.20558e-14
5.10397e-13
4.3398e-12
2.34104e-11
9.00415e-11
2.67767e-10
6.52206e-10
1.35692e-09
2.48383e-09
4.09477e-09
6.18968e-09
8.69303e-09
1.1449e-08
1.42163e-08
1.67139e-08
1.8685e-08
1.98934e-08
2.01369e-08
1.93428e-08
1.77382e-08
1.60302e-08
1.55803e-08
1.83795e-08
2.69227e-08
4.53486e-08
7.45734e-08
1.41238e-07
2.38175e-07
2.92296e-07
3.67729e-07
4.24714e-07
4.27629e-07
7.97373e-07
3.60837e-06
3.61394e-06
1.44457e-06
3.50408e-06
1.65038e-05
8.5633e-06
1.93101e-06
1.98706e-06
2.02084e-06
2.03228e-06
2.05633e-06
2.22836e-06
2.26228e-34
6.64769e-25
2.78244e-20
2.48961e-17
2.90784e-15
9.57321e-14
1.34565e-12
1.04058e-11
5.2168e-11
1.89442e-10
5.38105e-10
1.26291e-09
2.54873e-09
4.55551e-09
7.37493e-09
1.09996e-08
1.53088e-08
2.00674e-08
2.48892e-08
2.93446e-08
3.31169e-08
3.58904e-08
3.7278e-08
3.69142e-08
3.47087e-08
3.09621e-08
2.66013e-08
2.34121e-08
2.40661e-08
3.12978e-08
5.16696e-08
1.01554e-07
1.75511e-07
3.03331e-07
4.13421e-07
4.34832e-07
4.33669e-07
1.52331e-06
3.59639e-06
1.28274e-06
1.40319e-06
1.97354e-05
2.07712e-05
1.40396e-05
2.24708e-06
2.02486e-06
2.0432e-06
2.09626e-06
2.10695e-06
2.23107e-06
5.22631e-33