/*--------------------------------*- C++ -*----------------------------------*\
| =========                 |                                                 |
| \\      /  F ield         | OpenFOAM: The Open Source CFD Toolbox           |
|  \\    /   O peration     | Version:  2.4.0                                 |
|   \\  /    A nd           | Web:      www.OpenFOAM.org                      |
|    \\/     M anipulation  |                                                 |
\*---------------------------------------------------------------------------*/
FoamFile
{
    version     2.0;
    format      ascii;
    class       surfaceScalarField;
    location    "0.099";
    object      phiAlpha;
}
// * * * * * * * * * * * * * * * * * * * * * * * * * * * * * * * * * * * * * //

dimensions      [0 3 -1 0 0 0 0];

internalField   nonuniform List<scalar> 
114720
(
-2.25271e-09
2.1257e-09
4.39984e-09
-4.27282e-09
5.72543e-09
-6.59761e-09
-3.2494e-10
1.19712e-09
8.54089e-09
-8.847e-09
-4.3484e-11
3.49593e-10
8.65641e-09
-8.11175e-09
3.78799e-10
-9.23457e-10
4.75685e-09
-3.26679e-09
7.88644e-10
-2.2787e-09
-2.13199e-09
3.92431e-09
8.59132e-10
-2.65146e-09
-9.46912e-09
1.11437e-08
7.59959e-10
-2.43456e-09
-1.60274e-08
1.74056e-08
5.83932e-10
-1.9622e-09
-2.10308e-08
2.1899e-08
2.95631e-10
-1.16385e-09
-2.37298e-08
2.40654e-08
-1.94138e-12
-3.33576e-10
-2.46658e-08
2.4762e-08
-1.56081e-10
5.99039e-11
-2.48617e-08
2.4819e-08
-2.46037e-10
2.88682e-10
-2.43155e-08
2.39985e-08
-3.69685e-10
6.86639e-10
-2.23672e-08
2.16361e-08
-5.36093e-10
1.26717e-09
-1.86659e-08
1.7537e-08
-6.67181e-10
1.79611e-09
-1.35154e-08
1.21394e-08
-7.01544e-10
2.07754e-09
-7.67961e-09
6.28147e-09
-6.36517e-10
2.03466e-09
-2.09745e-09
8.80223e-10
-5.00827e-10
1.71806e-09
2.52138e-09
-3.44558e-09
-3.3941e-10
1.26361e-09
5.85845e-09
-6.46512e-09
-1.85004e-10
7.91677e-10
7.91474e-09
-8.23719e-09
-5.50596e-11
3.7751e-10
8.87757e-09
-8.97406e-09
4.4024e-11
5.24695e-11
8.99877e-09
-8.93023e-09
1.13358e-10
-1.81896e-10
8.52038e-09
-8.33893e-09
1.5824e-10
-3.39694e-10
7.63865e-09
-7.38382e-09
1.85382e-10
-4.40217e-10
6.50274e-09
-6.20489e-09
1.99288e-10
-4.9714e-10
5.2264e-09
-4.90918e-09
2.03131e-10
-5.20353e-10
3.90334e-09
-3.58721e-09
1.98072e-10
-5.1421e-10
2.61176e-09
-2.31295e-09
1.8568e-10
-4.84489e-10
1.40806e-09
-1.13575e-09
1.69131e-10
-4.4144e-10
2.90503e-09
1.54738e-08
-1.25195e-08
-5.85934e-09
1.25058e-08
-5.50762e-09
-1.42992e-08
7.30103e-09
1.84001e-08
-2.01071e-09
-1.93398e-08
2.9504e-09
2.02882e-08
3.43859e-09
-1.98106e-08
-3.91611e-09
1.58533e-08
8.55844e-09
-1.38767e-08
-1.0535e-08
6.60255e-09
1.01119e-08
-3.98713e-09
-1.27273e-08
-4.28453e-09
9.74925e-09
7.02466e-09
-1.24894e-08
-1.52599e-08
8.36294e-09
1.78497e-08
-1.09527e-08
-2.51138e-08
5.77994e-09
2.72195e-08
-7.88567e-09
-3.28286e-08
3.50682e-09
3.44608e-08
-5.13904e-09
-3.91195e-08
2.63167e-09
4.0573e-08
-4.08517e-09
-4.47833e-08
1.81126e-09
4.60512e-08
-3.07911e-09
-4.93447e-08
9.07744e-12
5.01752e-08
-8.39594e-10
-5.17531e-08
-2.54558e-09
5.19316e-08
2.36703e-09
-5.14214e-08
-5.00575e-09
5.09149e-08
5.51231e-09
-4.84005e-08
-6.74614e-09
4.72908e-08
7.85583e-09
-4.32225e-08
-7.31071e-09
4.17264e-08
8.80679e-09
-3.69003e-08
-6.75347e-09
3.52893e-08
8.36442e-09
-3.04528e-08
-5.52272e-09
2.89278e-08
7.04768e-09
-2.45369e-08
-4.07735e-09
2.31994e-08
5.41478e-09
-1.94479e-08
-2.71839e-09
1.83297e-08
3.83661e-09
-1.52411e-08
-1.59192e-09
1.43319e-08
2.50108e-09
-1.1839e-08
-7.34625e-10
1.11084e-08
1.4652e-09
-9.10599e-09
-1.16615e-10
8.5177e-09
7.04905e-10
-6.8975e-09
3.07842e-10
6.41832e-09
1.71337e-10
-5.08676e-09
5.81016e-10
4.68921e-09
-1.83473e-10
-3.57236e-09
7.31471e-10
3.2348e-09
-3.9391e-10
-2.27519e-09
7.78902e-10
1.98121e-09
-4.84921e-10
-1.13558e-09
7.50605e-10
8.7334e-10
-4.88369e-10
-1.12247e-10
6.78583e-10
-1.24969e-10
-4.41366e-10
3.00962e-09
2.76231e-08
-2.456e-08
-6.07274e-09
1.33284e-08
-1.30117e-08
-1.52786e-08
1.49619e-08
1.99017e-08
-6.15261e-09
-2.10314e-08
7.28232e-09
2.25603e-08
5.01013e-09
-2.2252e-08
-5.31846e-09
1.86889e-08
1.6288e-08
-1.67992e-08
-1.81777e-08
9.67698e-09
2.05609e-08
-7.07412e-09
-2.31638e-08
-1.28966e-09
2.08857e-08
4.10612e-09
-2.37021e-08
-1.27092e-08
1.90662e-08
1.54568e-08
-2.18137e-08
-2.32694e-08
1.46248e-08
2.55628e-08
-1.69181e-08
-3.17351e-08
1.04629e-08
3.35492e-08
-1.2277e-08
-3.87578e-08
8.86108e-09
4.03903e-08
-1.04936e-08
-4.516e-08
7.32006e-09
4.66203e-08
-8.78039e-09
-5.05509e-08
3.84812e-09
5.16103e-08
-4.90751e-09
-5.3952e-08
-1.19609e-09
5.44084e-08
7.39623e-10
-5.48664e-08
-6.22666e-09
5.47201e-08
6.37297e-09
-5.34282e-08
-1.02527e-08
5.27491e-08
1.09318e-08
-5.00397e-08
-1.23696e-08
4.89906e-08
1.34187e-08
-4.54935e-08
-1.23984e-08
4.42955e-08
1.35964e-08
-4.06119e-08
-1.10404e-08
3.94201e-08
1.22323e-08
-3.58754e-08
-9.12118e-09
3.47526e-08
1.02439e-08
-3.14462e-08
-7.17743e-09
3.04033e-08
8.22034e-09
-2.73315e-08
-5.47921e-09
2.63606e-08
6.45011e-09
-2.34899e-08
-4.12152e-09
2.25783e-08
5.03312e-09
-1.98683e-08
-3.09647e-09
1.90024e-08
3.96231e-09
-1.64114e-08
-2.35562e-09
1.55786e-08
3.18838e-09
-1.30764e-08
-1.83492e-09
1.22699e-08
2.64146e-09
-9.8455e-09
-1.48256e-09
9.0661e-09
2.26197e-09
-6.73898e-09
-1.25376e-09
5.99708e-09
1.99567e-09
-3.80619e-09
-1.10918e-09
3.1151e-09
1.80028e-09
-1.09783e-09
-1.00785e-09
4.69258e-10
1.63642e-09
3.03936e-09
3.99535e-08
-3.68611e-08
-6.1318e-09
1.34535e-08
-2.08507e-08
-1.54214e-08
2.28187e-08
2.01253e-08
-1.07484e-08
-2.12981e-08
1.19211e-08
2.29694e-08
6.17712e-09
-2.26968e-08
-6.44974e-09
1.91806e-08
2.38352e-08
-1.72906e-08
-2.57252e-08
1.01563e-08
3.09703e-08
-7.55043e-09
-3.35762e-08
-8.31632e-10
3.21731e-08
3.66112e-09
-3.50026e-08
-1.23346e-08
3.01107e-08
1.51161e-08
-3.28922e-08
-2.3033e-08
2.38364e-08
2.53474e-08
-2.61507e-08
-3.15236e-08
1.77211e-08
3.33318e-08
-1.95293e-08
-3.85437e-08
1.54146e-08
4.01877e-08
-1.70586e-08
-4.50338e-08
1.32158e-08
4.65305e-08
-1.47125e-08
-5.05977e-08
8.15273e-09
5.17055e-08
-9.26053e-09
-5.41502e-08
6.59997e-10
5.46273e-08
-1.13718e-09
-5.51241e-08
-6.79974e-09
5.49824e-08
6.94144e-09
-5.36622e-08
-1.29888e-08
5.29549e-08
1.36961e-08
-5.01054e-08
-1.66042e-08
4.89996e-08
1.771e-08
-4.53276e-08
-1.72033e-08
4.40785e-08
1.84524e-08
-4.02705e-08
-1.57766e-08
3.90502e-08
1.69968e-08
-3.54553e-08
-1.35444e-08
3.43274e-08
1.46723e-08
-3.10354e-08
-1.12634e-08
3.00051e-08
1.22937e-08
-2.69896e-08
-9.28081e-09
2.60412e-08
1.02292e-08
-2.32456e-08
-7.70548e-09
2.23595e-08
8.59158e-09
-1.97268e-08
-6.52486e-09
1.88853e-08
7.36633e-09
-1.63633e-08
-5.68325e-09
1.55508e-08
6.49573e-09
-1.31002e-08
-5.09188e-09
1.23064e-08
5.88562e-09
-9.9066e-09
-4.66386e-09
9.13026e-09
5.4402e-09
-6.79829e-09
-4.30859e-09
6.05081e-09
5.05608e-09
-3.83465e-09
-3.96886e-09
3.13367e-09
4.66984e-09
-1.08517e-09
-3.61198e-09
4.46844e-10
4.2503e-09
3.0686e-09
5.23919e-08
-4.92715e-08
-6.18898e-09
1.35121e-08
-2.87236e-08
-1.54797e-08
3.06912e-08
2.02101e-08
-1.54814e-08
-2.14112e-08
1.66825e-08
2.31827e-08
7.23771e-09
-2.29298e-08
-7.49054e-09
1.94022e-08
3.14228e-08
-1.74918e-08
-3.33332e-08
1.02962e-08
4.1411e-08
-7.67799e-09
-4.40292e-08
-7.32447e-10
4.35106e-08
3.57429e-09
-4.63525e-08
-1.23068e-08
4.12818e-08
1.51193e-08
-4.40943e-08
-2.31314e-08
3.31118e-08
2.54578e-08
-3.54383e-08
-3.15815e-08
2.49169e-08
3.33625e-08
-2.66979e-08
-3.85267e-08
2.1994e-08
4.01724e-08
-2.36397e-08
-4.50932e-08
1.92634e-08
4.6632e-08
-2.08022e-08
-5.08873e-08
1.26869e-08
5.20699e-08
-1.38694e-08
-5.46756e-08
2.61743e-09
5.51877e-08
-3.12951e-09
-5.57723e-08
-7.34027e-09
5.56529e-08
7.45966e-09
-5.43458e-08
-1.58664e-08
5.36108e-08
1.66015e-08
-5.05685e-08
-2.11657e-08
4.93726e-08
2.23615e-08
-4.5389e-08
-2.23645e-08
4.40341e-08
2.37195e-08
-3.99134e-08
-2.08142e-08
3.8595e-08
2.21326e-08
-3.47157e-08
-1.81995e-08
3.34985e-08
1.94167e-08
-2.99419e-08
-1.55117e-08
2.88287e-08
1.66249e-08
-2.55738e-08
-1.31771e-08
2.45538e-08
1.41971e-08
-2.15678e-08
-1.13147e-08
2.06304e-08
1.22521e-08
-1.78815e-08
-9.90948e-09
1.7017e-08
1.0774e-08
-1.44761e-08
-8.90002e-09
1.36752e-08
9.70095e-09
-1.13159e-08
-8.1823e-09
1.05702e-08
8.92792e-09
-8.36875e-09
-7.64252e-09
7.67244e-09
8.33883e-09
-5.62135e-09
-7.14571e-09
4.97498e-09
7.79208e-09
-3.08248e-09
-6.61279e-09
2.48955e-09
7.20572e-09
-7.66293e-10
-6.01354e-09
2.311e-10
6.54873e-09
3.10594e-09
6.49587e-08
-6.18032e-08
-6.26145e-09
1.35785e-08
-3.65899e-08
-1.55428e-08
3.85541e-08
2.02977e-08
-2.03338e-08
-2.15322e-08
2.15684e-08
2.3425e-08
8.21629e-09
-2.31952e-08
-8.44611e-09
1.96455e-08
3.91052e-08
-1.77067e-08
-4.10441e-08
1.04292e-08
5.19064e-08
-7.79566e-09
-5.45399e-08
-6.4573e-10
5.48992e-08
3.50061e-09
-5.77541e-08
-1.23004e-08
5.25875e-08
1.51515e-08
-5.54386e-08
-2.32878e-08
4.24405e-08
2.56304e-08
-4.4783e-08
-3.1675e-08
3.19867e-08
3.34173e-08
-3.37289e-08
-3.85123e-08
2.85778e-08
4.01583e-08
-3.02238e-08
-4.51713e-08
2.54892e-08
4.67574e-08
-2.70753e-08
-5.12628e-08
1.75671e-08
5.25528e-08
-1.88571e-08
-5.53709e-08
4.72682e-09
5.5924e-08
-5.27984e-09
-5.66308e-08
-7.7621e-09
5.65521e-08
7.84079e-09
-5.53225e-08
-1.88327e-08
5.45715e-08
1.95837e-08
-5.13363e-08
-2.60879e-08
5.00438e-08
2.73804e-08
-4.5737e-08
-2.79327e-08
4.42808e-08
2.9389e-08
-3.98944e-08
-2.61982e-08
3.85048e-08
2.75878e-08
-3.44458e-08
-2.31536e-08
3.31789e-08
2.44205e-08
-2.94825e-08
-2.00472e-08
2.83244e-08
2.12053e-08
-2.49329e-08
-1.73413e-08
2.38666e-08
1.84075e-08
-2.0738e-08
-1.51444e-08
1.97548e-08
1.61276e-08
-1.68772e-08
-1.34275e-08
1.59763e-08
1.43284e-08
-1.33514e-08
-1.21272e-08
1.2534e-08
1.29447e-08
-1.01652e-08
-1.11397e-08
9.43122e-09
1.18737e-08
-7.31202e-09
-1.03522e-08
6.6575e-09
1.10067e-08
-4.7731e-09
-9.61756e-09
4.19181e-09
1.01989e-08
-2.51817e-09
-8.85432e-09
2.00079e-09
9.3717e-09
-5.09011e-10
-8.02728e-09
4.78948e-11
8.4884e-09
3.15148e-09
7.7684e-08
-7.4486e-08
-6.34942e-09
1.36601e-08
-4.44396e-08
-1.5619e-08
4.63985e-08
2.04019e-08
-2.53316e-08
-2.16779e-08
2.66076e-08
2.37233e-08
9.09388e-09
-2.35226e-08
-9.29452e-09
1.99453e-08
4.69119e-08
-1.79705e-08
-4.88867e-08
1.05907e-08
6.24664e-08
-7.93933e-09
-6.51178e-08
-5.36374e-10
6.63417e-08
3.40711e-09
-6.92125e-08
-1.22854e-08
6.40615e-08
1.51852e-08
-6.69612e-08
-2.34883e-08
5.18426e-08
2.5854e-08
-5.42083e-08
-3.17902e-08
3.88827e-08
3.34807e-08
-4.05732e-08
-3.8484e-08
3.51613e-08
4.01297e-08
-3.68069e-08
-4.52532e-08
3.19023e-08
4.68836e-08
-3.35327e-08
-5.17131e-08
2.29366e-08
5.31526e-08
-2.43761e-08
-5.62371e-08
6.99758e-09
5.68271e-08
-7.58751e-09
-5.76755e-08
-7.99405e-09
5.76564e-08
8.01312e-09
-5.65834e-08
-2.18524e-08
5.5824e-08
2.26118e-08
-5.23485e-08
-3.14351e-08
5.09303e-08
3.28533e-08
-4.62125e-08
-3.39334e-08
4.46331e-08
3.55128e-08
-3.99485e-08
-3.186e-08
3.84889e-08
3.33195e-08
-3.42874e-08
-2.82677e-08
3.29918e-08
2.95632e-08
-2.92426e-08
-2.47006e-08
2.80742e-08
2.5869e-08
-2.46555e-08
-2.1627e-08
2.35808e-08
2.27017e-08
-2.04224e-08
-1.91029e-08
1.94281e-08
2.00972e-08
-1.65133e-08
-1.70573e-08
1.56e-08
1.79706e-08
-1.29403e-08
-1.54152e-08
1.21136e-08
1.62418e-08
-9.72858e-09
-1.40759e-08
8.99404e-09
1.48104e-08
-6.89084e-09
-1.29472e-08
6.24757e-09
1.35904e-08
-4.41427e-09
-1.19002e-08
3.85446e-09
1.246e-08
-2.25663e-09
-1.08711e-08
1.76628e-09
1.13614e-08
-3.59286e-10
-9.81848e-09
-7.42283e-11
1.0252e-08
3.20714e-09
9.06021e-08
-8.73526e-08
-6.45659e-09
1.37524e-08
-5.22635e-08
-1.57029e-08
5.4214e-08
2.05152e-08
-3.05072e-08
-2.18407e-08
3.18327e-08
2.4073e-08
9.84439e-09
-2.39085e-08
-1.00088e-08
2.02987e-08
5.48736e-08
-1.82803e-08
-5.68921e-08
1.07784e-08
7.31001e-08
-8.1077e-09
-7.57708e-08
-4.01267e-10
7.78485e-08
3.28871e-09
-8.07359e-08
-1.22525e-08
7.57448e-08
1.52112e-08
-7.87035e-08
-2.37319e-08
6.13497e-08
2.61297e-08
-6.37475e-08
-3.19156e-08
4.55474e-08
3.35373e-08
-4.71691e-08
-3.84203e-08
4.17434e-08
4.00664e-08
-4.33894e-08
-4.5312e-08
3.84767e-08
4.6975e-08
-4.01398e-08
-5.22197e-08
2.89782e-08
5.38599e-08
-3.06184e-08
-5.72774e-08
9.39046e-09
5.78819e-08
-9.99497e-09
-5.88714e-08
-7.9533e-09
5.8936e-08
7.88873e-09
-5.81585e-08
-2.48878e-08
5.74042e-08
2.56421e-08
-5.36176e-08
-3.73454e-08
5.20301e-08
3.8933e-08
-4.67704e-08
-4.04735e-08
4.50345e-08
4.22094e-08
-3.99912e-08
-3.78113e-08
3.84544e-08
3.93481e-08
-3.41172e-08
-3.34815e-08
3.28023e-08
3.47965e-08
-2.90386e-08
-2.93711e-08
2.78745e-08
3.05352e-08
-2.44804e-08
-2.59152e-08
2.34151e-08
2.69805e-08
-2.02845e-08
-2.30714e-08
1.92982e-08
2.40577e-08
-1.64038e-08
-2.07059e-08
1.54956e-08
2.16141e-08
-1.28469e-08
-1.87207e-08
1.20224e-08
1.95452e-08
-9.64016e-09
-1.70144e-08
8.90553e-09
1.7749e-08
-6.79996e-09
-1.55198e-08
6.15544e-09
1.61643e-08
-4.31808e-09
-1.41368e-08
3.75705e-09
1.46978e-08
-2.15677e-09
-1.28275e-08
1.66613e-09
1.33181e-08
-2.60103e-10
-1.15461e-08
-1.72482e-10
1.19786e-08
3.27345e-09
1.0375e-07
-1.00439e-07
-6.58391e-09
1.38607e-08
-6.00494e-08
-1.57995e-08
6.19882e-08
2.06431e-08
-3.58944e-08
-2.20272e-08
3.72784e-08
2.44849e-08
1.04389e-08
-2.43644e-08
-1.05594e-08
2.07149e-08
6.30243e-08
-1.86431e-08
-6.5096e-08
1.09943e-08
8.38144e-08
-8.30253e-09
-8.65062e-08
-2.40507e-10
8.94254e-08
3.14565e-09
-9.23305e-08
-1.22017e-08
8.76817e-08
1.52309e-08
-9.07109e-08
-2.40376e-08
7.10054e-08
2.64817e-08
-7.34494e-08
-3.20624e-08
5.19067e-08
3.35938e-08
-5.34381e-08
-3.83264e-08
4.83351e-08
3.99796e-08
-4.99883e-08
-4.53434e-08
4.51679e-08
4.70335e-08
-4.6858e-08
-5.28089e-08
3.59073e-08
5.4706e-08
-3.78044e-08
-5.85565e-08
1.17679e-08
5.91155e-08
-1.23269e-08
-6.02005e-08
-7.53573e-09
6.03776e-08
7.35867e-09
-6.01503e-08
-2.78742e-08
5.94218e-08
2.86026e-08
-5.52124e-08
-4.40223e-08
5.33909e-08
4.58438e-08
-4.74044e-08
-4.77034e-08
4.54671e-08
4.96408e-08
-3.99874e-08
-4.40843e-08
3.83655e-08
4.57063e-08
-3.39036e-08
-3.87592e-08
3.25797e-08
4.0083e-08
-2.88386e-08
-3.40076e-08
2.76905e-08
3.51557e-08
-2.4351e-08
-3.01524e-08
2.33032e-08
3.12002e-08
-2.0221e-08
-2.69968e-08
1.92486e-08
2.79692e-08
-1.63902e-08
-2.43245e-08
1.54917e-08
2.5223e-08
-1.28656e-08
-2.2011e-08
1.20461e-08
2.28306e-08
-9.67049e-09
-1.99536e-08
8.93499e-09
2.06891e-08
-6.81746e-09
-1.81066e-08
6.16623e-09
1.87579e-08
-4.30154e-09
-1.63951e-08
3.7299e-09
1.69667e-08
-2.09495e-09
-1.48051e-08
1.59302e-09
1.5307e-08
-1.55108e-10
-1.32886e-08
-2.86594e-10
1.37303e-08
3.35163e-09
1.17167e-07
-1.13786e-07
-6.73345e-09
1.39851e-08
-6.77825e-08
-1.59082e-08
6.97056e-08
2.07834e-08
-4.15295e-08
-2.22355e-08
4.29816e-08
2.49619e-08
1.08452e-08
-2.48939e-08
-1.09133e-08
2.11962e-08
7.1404e-08
-1.90601e-08
-7.35401e-08
1.12363e-08
9.46145e-08
-8.5224e-09
-9.73284e-08
-5.58235e-11
1.01073e-07
2.97781e-09
-1.03995e-07
-1.21261e-08
9.99188e-08
1.5238e-08
-1.03031e-07
-2.44197e-08
8.08744e-08
2.69309e-08
-8.33855e-08
-3.22293e-08
5.78638e-08
3.36415e-08
-5.92759e-08
-3.81946e-08
5.49767e-08
3.98722e-08
-5.66543e-08
-4.53092e-08
5.19958e-08
4.70573e-08
-5.37439e-08
-5.34962e-08
4.39423e-08
5.56988e-08
-4.61449e-08
-6.01507e-08
1.37969e-08
6.05373e-08
-1.41835e-08
-6.1567e-08
-6.62064e-09
6.18898e-08
6.29784e-09
-6.26982e-08
-3.0719e-08
6.20205e-08
3.13968e-08
-5.71998e-08
-5.17675e-08
5.50475e-08
5.39198e-08
-4.80748e-08
-5.58222e-08
4.58773e-08
5.80197e-08
-3.98703e-08
-5.07063e-08
3.81583e-08
5.24183e-08
-3.36035e-08
-4.40483e-08
3.22887e-08
4.53632e-08
-2.8626e-08
-3.85597e-08
2.75085e-08
3.96771e-08
-2.42567e-08
-3.43094e-08
2.32331e-08
3.53331e-08
-2.02095e-08
-3.08643e-08
1.92519e-08
3.18219e-08
-1.6428e-08
-2.79052e-08
1.55377e-08
2.87955e-08
-1.29276e-08
-2.52846e-08
1.21103e-08
2.61019e-08
-9.73149e-09
-2.29009e-08
8.99158e-09
2.36408e-08
-6.84987e-09
-2.07269e-08
6.18737e-09
2.13894e-08
-4.27999e-09
-1.87038e-08
3.69246e-09
1.92913e-08
-2.00708e-09
-1.68359e-08
1.48881e-09
1.73541e-08
-5.82084e-12
-1.50733e-08
-4.4847e-10
1.55275e-08
3.44311e-09
1.30898e-07
-1.27434e-07
-6.90776e-09
1.41208e-08
-7.54444e-08
-1.60224e-08
7.7346e-08
2.09258e-08
-4.74512e-08
-2.24556e-08
4.8981e-08
2.54981e-08
1.10276e-08
-2.54921e-08
-1.10335e-08
2.17378e-08
8.00587e-08
-1.95253e-08
-8.22712e-08
1.14973e-08
1.05502e-07
-8.76239e-09
-1.08237e-07
1.63049e-10
1.12796e-07
2.78043e-09
-1.1574e-07
-1.20132e-08
1.12502e-07
1.52174e-08
-1.15706e-07
-2.48879e-08
9.10528e-08
2.74961e-08
-9.3661e-08
-3.24016e-08
6.3288e-08
3.36546e-08
-6.45409e-08
-3.80103e-08
6.17582e-08
3.97433e-08
-6.34912e-08
-4.51334e-08
5.91937e-08
4.70586e-08
-6.11189e-08
-5.42821e-08
5.32189e-08
5.67809e-08
-5.57176e-08
-6.21075e-08
1.48827e-08
6.21663e-08
-1.49416e-08
-6.27072e-08
-5.05041e-09
6.32398e-08
4.51774e-09
-6.60335e-08
-3.33395e-08
6.54113e-08
3.39617e-08
-5.96446e-08
-6.10359e-08
5.70157e-08
6.36648e-08
-4.8697e-08
-6.5088e-08
4.61648e-08
6.76202e-08
-3.95284e-08
-5.76876e-08
3.77288e-08
5.94871e-08
-3.31525e-08
-4.92579e-08
3.18792e-08
5.05312e-08
-2.83829e-08
-4.29565e-08
2.73191e-08
4.40204e-08
-2.41977e-08
-3.83593e-08
2.32052e-08
3.93517e-08
-2.02487e-08
-3.46727e-08
1.93054e-08
3.5616e-08
-1.65089e-08
-3.14581e-08
1.56234e-08
3.23436e-08
-1.30176e-08
-2.85551e-08
1.21985e-08
2.93742e-08
-9.80403e-09
-2.58722e-08
9.05544e-09
2.66208e-08
-6.87587e-09
-2.33994e-08
6.19727e-09
2.4078e-08
-4.23081e-09
-2.10845e-08
3.62134e-09
2.1694e-08
-1.86523e-09
-1.89407e-08
1.32392e-09
1.9482e-08
2.2349e-10
-1.69149e-08
-6.9539e-10
1.73868e-08
3.54957e-09
1.44992e-07
-1.41432e-07
-7.10987e-09
1.42731e-08
-8.30117e-08
-1.6147e-08
8.48856e-08
2.10743e-08
-5.36999e-08
-2.26926e-08
5.53183e-08
2.61061e-08
1.09455e-08
-2.61732e-08
-1.08784e-08
2.23507e-08
8.90412e-08
-2.00468e-08
-9.13451e-08
1.17774e-08
1.16472e-07
-9.0233e-09
-1.19226e-07
4.0716e-10
1.246e-07
2.55537e-09
-1.27562e-07
-1.18559e-08
1.25468e-07
1.51606e-08
-1.28773e-07
-2.54755e-08
1.01683e-07
2.82272e-08
-1.04435e-07
-3.25847e-08
6.79992e-08
3.36238e-08
-6.90383e-08
-3.78047e-08
6.88227e-08
3.96347e-08
-7.06527e-08
-4.47372e-08
6.74949e-08
4.71577e-08
-6.99154e-08
-5.51671e-08
6.35251e-08
5.78433e-08
-6.62014e-08
-6.43808e-08
1.47311e-08
6.43056e-08
-1.46559e-08
-6.30887e-08
-2.3301e-09
6.41252e-08
1.2936e-09
-7.06335e-08
-3.58224e-08
6.99825e-08
3.64733e-08
-6.26698e-08
-7.25149e-08
5.93429e-08
7.58418e-08
-4.91774e-08
-7.58284e-08
4.62162e-08
7.87895e-08
-3.88376e-08
-6.50028e-08
3.6965e-08
6.68754e-08
-3.25012e-08
-5.42306e-08
3.13225e-08
5.54093e-08
-2.81271e-08
-4.70991e-08
2.71457e-08
4.80804e-08
-2.42053e-08
-4.22727e-08
2.32509e-08
4.32271e-08
-2.03625e-08
-3.84275e-08
1.94306e-08
3.93594e-08
-1.66498e-08
-3.49982e-08
1.57646e-08
3.58833e-08
-1.31499e-08
-3.18393e-08
1.23249e-08
3.26643e-08
-9.90361e-09
-2.88841e-08
9.14291e-09
2.96448e-08
-6.9142e-09
-2.61439e-08
6.21497e-09
2.68431e-08
-4.16977e-09
-2.35656e-08
3.52925e-09
2.42061e-08
-1.66642e-09
-2.1153e-08
1.08846e-09
2.1731e-08
5.63044e-10
-1.88368e-08
-1.06414e-09
1.93379e-08
3.67297e-09
1.59505e-07
-1.55834e-07
-7.34344e-09
1.44407e-08
-9.0457e-08
-1.62791e-08
9.22954e-08
2.12224e-08
-6.03197e-08
-2.29406e-08
6.20379e-08
2.67873e-08
1.05531e-08
-2.69398e-08
-1.04006e-08
2.30362e-08
9.84146e-08
-2.06237e-08
-1.00827e-07
1.20701e-08
1.27512e-07
-9.30135e-09
-1.30281e-07
6.80387e-10
1.3648e-07
2.30163e-09
-1.39462e-07
-1.16379e-08
1.38842e-07
1.50451e-08
-1.42249e-07
-2.62118e-08
1.12985e-07
2.9178e-08
-1.15952e-07
-3.27626e-08
7.17496e-08
3.35128e-08
-7.24998e-08
-3.7631e-08
7.63374e-08
3.95995e-08
-7.83058e-08
-4.40204e-08
7.85251e-08
4.74278e-08
-8.19324e-08
-5.58235e-08
7.43473e-08
5.86248e-08
-7.71487e-08
-6.67239e-08
1.55019e-08
6.77822e-08
-1.65602e-08
-6.19638e-08
3.44751e-09
6.42783e-08
-5.76199e-09
-7.71056e-08
-3.87325e-08
7.61739e-08
3.96642e-08
-6.63743e-08
-8.72413e-08
6.20188e-08
9.15968e-08
-4.9338e-08
-8.84471e-08
4.58368e-08
9.19482e-08
-3.7591e-08
-7.25658e-08
3.56805e-08
7.44764e-08
-3.15753e-08
-5.87055e-08
3.05803e-08
5.97005e-08
-2.78876e-08
-5.0856e-08
2.70276e-08
5.1716e-08
-2.43205e-08
-4.60294e-08
2.34068e-08
4.6943e-08
-2.05773e-08
-4.21445e-08
1.96506e-08
4.30712e-08
-1.68641e-08
-3.85458e-08
1.59729e-08
3.94369e-08
-1.33355e-08
-3.51515e-08
1.25019e-08
3.5985e-08
-1.00492e-08
-3.19462e-08
9.2761e-09
3.27193e-08
-6.99977e-09
-2.89726e-08
6.28062e-09
2.96918e-08
-4.1526e-09
-2.61861e-08
3.47409e-09
2.68646e-08
-1.43592e-09
-2.35751e-08
7.73416e-10
2.42377e-08
1.22828e-09
-2.09888e-08
-1.86361e-09
2.16241e-08
3.81614e-09
1.74499e-07
-1.70701e-07
-7.61377e-09
1.46241e-08
-9.77466e-08
-1.64176e-08
9.95401e-08
2.13654e-08
-6.73566e-08
-2.31955e-08
6.91868e-08
2.75467e-08
9.79827e-09
-2.77989e-08
-9.5461e-09
2.37992e-08
1.08251e-07
-2.12579e-08
-1.10793e-07
1.2369e-08
1.38601e-07
-9.59327e-09
-1.41377e-07
9.83221e-10
1.48436e-07
2.01859e-09
-1.51438e-07
-1.13407e-08
1.52616e-07
1.48407e-08
-1.56116e-07
-2.714e-08
1.25296e-07
3.04322e-08
-1.28588e-07
-3.29148e-08
7.42025e-08
3.32757e-08
-7.45634e-08
-3.76201e-08
8.44811e-08
3.97843e-08
-8.66454e-08
-4.30735e-08
9.3916e-08
4.76737e-08
-9.85161e-08
-5.54755e-08
8.74967e-08
6.05213e-08
-9.25425e-08
-6.90579e-08
2.40021e-08
7.30721e-08
-2.80162e-08
-5.83742e-08
1.62842e-08
6.37894e-08
-2.16994e-08
-8.73956e-08
-4.3686e-08
8.52525e-08
4.58292e-08
-7.08185e-08
-1.06775e-07
6.49198e-08
1.12674e-07
-4.89459e-08
-1.03402e-07
4.47875e-08
1.0756e-07
-3.54942e-08
-8.01926e-08
3.36108e-08
8.2076e-08
-3.03056e-08
-6.22471e-08
2.96423e-08
6.29103e-08
-2.77485e-08
-5.40614e-08
2.70543e-08
5.47556e-08
-2.4616e-08
-4.96292e-08
2.37356e-08
5.05096e-08
-2.09235e-08
-4.58589e-08
1.99879e-08
4.67945e-08
-1.71617e-08
-4.21268e-08
1.62574e-08
4.3031e-08
-1.35836e-08
-3.85016e-08
1.27393e-08
3.93459e-08
-1.02566e-08
-3.50541e-08
9.47411e-09
3.58366e-08
-7.16931e-09
-3.18671e-08
6.44127e-09
3.25952e-08
-4.29099e-09
-2.89261e-08
3.60781e-09
2.96093e-08
-1.55808e-09
-2.63195e-08
8.86069e-10
2.69915e-08
1.23532e-09
-2.38238e-08
-1.96661e-09
2.45551e-08
3.98096e-09
1.90046e-07
-1.86103e-07
-7.92433e-09
1.48238e-08
-1.04841e-07
-1.65614e-08
1.06578e-07
2.14974e-08
-7.48606e-08
-2.34524e-08
7.68156e-08
2.83905e-08
8.62118e-09
-2.87585e-08
-8.25312e-09
2.46456e-08
1.18638e-07
-2.19516e-08
-1.21332e-07
1.26654e-08
1.49701e-07
-9.89513e-09
-1.52472e-07
1.31596e-09
1.60476e-07
1.70871e-09
-1.635e-07
-1.09412e-08
1.66725e-07
1.4504e-08
-1.70288e-07
-2.83166e-08
1.39154e-07
3.21163e-08
-1.42954e-07
-3.30122e-08
7.49116e-08
3.28515e-08
-7.47509e-08
-3.80988e-08
9.35618e-08
4.05935e-08
-9.60565e-08
-4.19875e-08
1.15135e-07
4.91775e-08
-1.22325e-07
-5.82196e-08
1.16257e-07
6.89026e-08
-1.2694e-07
-7.66938e-08
4.15823e-08
8.04524e-08
-4.53409e-08
-5.73765e-08
4.1324e-08
6.14976e-08
-4.54451e-08
-1.06027e-07
-5.74349e-08
1.00215e-07
6.32468e-08
-7.57887e-08
-1.3355e-07
6.76425e-08
1.41696e-07
-4.7924e-08
-1.2119e-07
4.2936e-08
1.26178e-07
-3.20803e-08
-8.75742e-08
3.03289e-08
8.93257e-08
-2.86453e-08
-6.41274e-08
2.85649e-08
6.42079e-08
-2.78871e-08
-5.65396e-08
2.73979e-08
5.70289e-08
-2.51994e-08
-5.31315e-08
2.43221e-08
5.40088e-08
-2.1434e-08
-4.96424e-08
2.04642e-08
5.06121e-08
-1.75437e-08
-4.57766e-08
1.66151e-08
4.67053e-08
-1.38882e-08
-4.18958e-08
1.30327e-08
4.27512e-08
-1.05277e-08
-3.81933e-08
9.74019e-09
3.89808e-08
-7.42287e-09
-3.47822e-08
6.69209e-09
3.5513e-08
-4.55373e-09
-3.16145e-08
3.89145e-09
3.22768e-08
-2.06562e-09
-2.86957e-08
1.57085e-09
2.91905e-08
-6.69796e-10
-2.55742e-08
6.4957e-10
2.55944e-08
4.17063e-09
2.0623e-07
-2.02119e-07
-8.28131e-09
1.50425e-08
-1.11693e-07
-1.67113e-08
1.13361e-07
2.16144e-08
-8.28842e-08
-2.37081e-08
8.4978e-08
2.93291e-08
6.95332e-09
-2.98317e-08
-6.45065e-09
2.55855e-08
1.29676e-07
-2.27107e-08
-1.3255e-07
1.29496e-08
1.60753e-07
-1.02035e-08
-1.63499e-07
1.67888e-09
1.72615e-07
1.37549e-09
-1.7567e-07
-1.04125e-08
1.81e-07
1.3973e-08
-1.84561e-07
-2.98181e-08
1.55453e-07
3.44352e-08
-1.6007e-07
-3.30118e-08
7.32865e-08
3.21671e-08
-7.24418e-08
-3.97449e-08
1.04635e-07
4.3251e-08
-1.08141e-07
-4.06414e-08
1.52369e-07
5.35414e-08
-1.65269e-07
-6.65016e-08
1.65718e-07
8.27696e-08
-1.81986e-07
-8.77466e-08
5.20584e-08
8.85902e-08
-5.2902e-08
-1.08631e-07
6.26048e-08
1.19791e-07
-7.37653e-08
-1.25325e-07
-8.47702e-08
1.16021e-07
9.40746e-08
-7.98268e-08
-1.69664e-07
6.95296e-08
1.79962e-07
-4.59818e-08
-1.43056e-07
3.94718e-08
1.49566e-07
-2.59306e-08
-9.40212e-08
2.47275e-08
9.52242e-08
-2.66139e-08
-6.30841e-08
2.75671e-08
6.21308e-08
-2.86445e-08
-5.8178e-08
2.83574e-08
5.84651e-08
-2.62135e-08
-5.67131e-08
2.52671e-08
5.76595e-08
-2.21266e-08
-5.36181e-08
2.10822e-08
5.46625e-08
-1.79895e-08
-4.95435e-08
1.70231e-08
5.05098e-08
-1.42293e-08
-4.53328e-08
1.33647e-08
4.61975e-08
-1.08561e-08
-4.13429e-08
1.00716e-08
4.21275e-08
-7.75721e-09
-3.77176e-08
7.01932e-09
3.84555e-08
-4.79763e-09
-3.4334e-08
4.07461e-09
3.5057e-08
-1.86888e-09
-3.09203e-08
1.14787e-09
3.16414e-08
1.07005e-09
-2.66168e-08
-1.79017e-09
2.73369e-08
4.39045e-09
2.23149e-07
-2.18844e-07
-8.69517e-09
1.52777e-08
-1.18246e-07
-1.6862e-08
1.1983e-07
2.17031e-08
-9.14832e-08
-2.39496e-08
9.37297e-08
3.03638e-08
4.71603e-09
-3.10225e-08
-4.05737e-09
2.66218e-08
1.41482e-07
-2.35339e-08
-1.4457e-07
1.32039e-08
1.71668e-07
-1.05104e-08
-1.74362e-07
2.07159e-09
1.84894e-07
1.02812e-09
-1.87994e-07
-9.71982e-09
1.951e-07
1.31514e-08
-1.98532e-07
-3.1733e-08
1.75743e-07
3.77176e-08
-1.81728e-07
-3.27403e-08
6.87674e-08
3.11296e-08
-6.71566e-08
-4.30259e-08
1.2223e-07
4.8915e-08
-1.28119e-07
-2.08408e-08
2.05742e-07
3.23355e-08
-2.17236e-07
-5.42456e-08
2.36408e-07
6.86342e-08
-2.50797e-07
-8.59739e-08
4.58848e-08
8.19907e-08
-4.19016e-08
-1.57807e-07
1.00274e-07
1.63375e-07
-1.05842e-07
-1.356e-07
-1.29824e-07
1.22599e-07
1.42824e-07
-8.12239e-08
-2.12246e-07
7.04409e-08
2.23029e-07
-4.01118e-08
-1.72971e-07
3.08562e-08
1.82227e-07
-1.56164e-08
-9.64993e-08
1.62778e-08
9.58379e-08
-2.50318e-08
-5.70051e-08
2.75462e-08
5.44908e-08
-3.06337e-08
-5.91547e-08
3.04025e-08
5.9386e-08
-2.77923e-08
-6.07525e-08
2.66392e-08
6.19056e-08
-2.2963e-08
-5.79704e-08
2.17892e-08
5.91441e-08
-1.84331e-08
-5.34802e-08
1.74167e-08
5.44966e-08
-1.45531e-08
-4.87961e-08
1.36874e-08
4.96617e-08
-1.12223e-08
-4.44526e-08
1.04631e-08
4.52118e-08
-8.23821e-09
-4.06476e-08
7.52767e-09
4.13581e-08
-5.3434e-09
-3.72966e-08
4.60303e-09
3.80369e-08
-2.17095e-09
-3.40842e-08
1.31235e-09
3.49428e-08
1.20653e-09
-2.99023e-08
-1.89506e-09
3.05884e-08
4.64277e-09
2.40915e-07
-2.36387e-07
-9.17074e-09
1.55308e-08
-1.24435e-07
-1.70119e-08
1.25916e-07
2.1754e-08
-1.00716e-07
-2.41678e-08
1.03129e-07
3.15042e-08
1.81891e-09
-3.23434e-08
-9.79788e-10
2.77649e-08
1.54197e-07
-2.44266e-08
-1.57535e-07
1.34083e-08
1.82316e-07
-1.0809e-08
-1.84915e-07
2.49396e-09
1.97389e-07
6.77942e-10
-2.00561e-07
-8.83084e-09
2.08399e-07
1.19256e-08
-2.11494e-07
-3.41985e-08
2.02828e-07
4.25584e-08
-2.11188e-07
-3.19853e-08
6.11458e-08
2.95581e-08
-5.87186e-08
-4.11265e-08
1.44414e-07
4.50577e-08
-1.48345e-07
-2.98615e-09
2.5853e-07
1.9239e-08
-2.74783e-07
-2.35132e-08
2.64524e-07
1.63381e-08
-2.57348e-07
-5.04813e-08
6.64749e-08
7.93452e-08
-9.53388e-08
-1.50313e-07
1.07648e-07
1.45483e-07
-1.02819e-07
-1.1417e-07
-1.74855e-07
1.08566e-07
1.80459e-07
-8.07677e-08
-2.53453e-07
7.1787e-08
2.62434e-07
-3.47878e-08
-2.13828e-07
2.32323e-08
2.25384e-07
-9.98896e-09
-8.98355e-08
1.34432e-08
8.63813e-08
-2.85177e-08
-4.51075e-08
3.18925e-08
4.17327e-08
-3.49207e-08
-6.05494e-08
3.41999e-08
6.12703e-08
-2.99855e-08
-6.59241e-08
2.8406e-08
6.75037e-08
-2.38234e-08
-6.29312e-08
2.24614e-08
6.42932e-08
-1.87598e-08
-5.76302e-08
1.7687e-08
5.8703e-08
-1.47697e-08
-5.22442e-08
1.39172e-08
5.30967e-08
-1.1565e-08
-4.74128e-08
1.08639e-08
4.81139e-08
-8.87889e-09
-4.33615e-08
8.26836e-09
4.39721e-08
-6.47318e-09
-4.00705e-08
5.8953e-09
4.06483e-08
-4.09865e-09
-3.73393e-08
3.48118e-09
3.79568e-08
-1.57263e-09
-3.25662e-08
1.1064e-09
3.30386e-08
4.93433e-09
2.59665e-07
-2.54877e-07
-9.72187e-09
1.58075e-08
-1.3018e-07
-1.71637e-08
1.31536e-07
2.17614e-08
-1.1064e-07
-2.43574e-08
1.13236e-07
3.27693e-08
-1.8413e-09
-3.3817e-08
2.88896e-09
2.90349e-08
1.67977e-07
-2.54025e-08
-1.7161e-07
1.35398e-08
1.92506e-07
-1.10944e-08
-1.94951e-07
2.9468e-09
2.10241e-07
3.4797e-10
-2.13535e-07
-7.7256e-09
2.19927e-07
1.01764e-08
-2.22378e-07
-3.71668e-08
2.41692e-07
4.94483e-08
-2.53974e-07
-3.03654e-08
5.00472e-08
2.71255e-08
-4.68073e-08
-5.86065e-09
1.62906e-07
1.39972e-08
-1.71042e-07
-2.72273e-08
2.77025e-07
1.22342e-08
-2.62031e-07
-7.98068e-09
2.0947e-07
-1.22027e-08
-1.89286e-07
-3.51994e-08
2.01972e-07
5.83289e-08
-2.25089e-07
-8.70784e-08
9.72145e-08
9.95223e-08
-8.24943e-08
-5.81563e-08
-1.71426e-07
7.17823e-08
1.578e-07
-7.93432e-08
-2.83362e-07
7.51628e-08
2.87543e-07
-4.36628e-08
-2.60547e-07
3.28999e-08
2.7131e-07
-2.73176e-08
-7.19289e-08
3.30241e-08
6.62224e-08
-4.51084e-08
-3.37867e-08
4.59057e-08
3.29894e-08
-4.24752e-08
-6.5426e-08
4.01491e-08
6.77521e-08
-3.25329e-08
-7.3198e-08
3.02679e-08
7.5463e-08
-2.44434e-08
-6.87092e-08
2.28607e-08
7.02918e-08
-1.88006e-08
-6.1999e-08
1.76804e-08
6.31192e-08
-1.4753e-08
-5.56138e-08
1.39316e-08
5.64351e-08
-1.17586e-08
-5.00961e-08
1.11421e-08
5.07126e-08
-9.50006e-09
-4.55924e-08
9.03353e-09
4.6059e-08
-7.80698e-09
-4.20147e-08
7.46975e-09
4.23519e-08
-6.63824e-09
-3.91702e-08
6.41792e-09
3.93905e-08
-5.6608e-09
-3.46425e-08
5.28585e-09
3.50175e-08
5.27116e-09
2.79557e-07
-2.74467e-07
-1.03615e-08
1.61087e-08
-1.35386e-07
-1.73135e-08
1.36591e-07
2.17096e-08
-1.21315e-07
-2.45022e-08
1.24107e-07
3.41692e-08
-6.38193e-09
-3.54571e-08
7.66986e-09
3.04453e-08
1.83006e-07
-2.64701e-08
-1.86981e-07
1.356e-08
2.01956e-07
-1.13577e-08
-2.04159e-07
3.43065e-09
2.23689e-07
6.58569e-11
-2.27185e-07
-6.33472e-09
2.28301e-07
7.73371e-09
-2.297e-07
-3.48554e-08
2.96335e-07
4.94564e-08
-3.10936e-07
-2.67527e-08
3.75201e-08
2.43536e-08
-3.51211e-08
7.71338e-10
2.02313e-07
7.97484e-09
-2.11059e-07
-7.12424e-08
2.30796e-07
8.38081e-08
-1.8525e-07
-1.00022e-11
1.00186e-11
1.85659e-14
-3.55605e-14
-2.05693e-17
2.10422e-16
1.2863e-17
-2.17919e-16
-5.48977e-16
7.97299e-14
1.60409e-13
-2.39754e-13
-3.79559e-08
-1.10848e-07
1.04746e-08
1.36992e-07
-7.086e-08
-2.90804e-07
7.58094e-08
2.85854e-07
-6.76353e-08
-2.93327e-07