/*--------------------------------*- C++ -*----------------------------------*\
| =========                 |                                                 |
| \\      /  F ield         | OpenFOAM: The Open Source CFD Toolbox           |
|  \\    /   O peration     | Version:  2.4.0                                 |
|   \\  /    A nd           | Web:      www.OpenFOAM.org                      |
|    \\/     M anipulation  |                                                 |
\*---------------------------------------------------------------------------*/
FoamFile
{
    version     2.0;
    format      ascii;
    class       volVectorField;
    location    "0.005";
    object      U;
}
// * * * * * * * * * * * * * * * * * * * * * * * * * * * * * * * * * * * * * //

dimensions      [0 1 -1 0 0 0 0];

internalField   nonuniform List<vector> 
3600
(
(0.000381226 -0.000638189 1.22391e-10)
(0.000831692 -0.000628637 3.97429e-11)
(0.00139134 -0.000614071 2.14464e-11)
(0.00198687 -0.000596563 1.41189e-11)
(0.00261358 -0.000569579 1.01014e-11)
(0.00325012 -0.000531883 7.53479e-12)
(0.00386919 -0.000483348 5.73813e-12)
(0.00443568 -0.000424223 4.40211e-12)
(0.00490872 -0.000356102 3.37224e-12)
(0.00524582 -0.000282181 2.55996e-12)
(0.00540979 -0.000207169 1.91447e-12)
(0.00537676 -0.000136449 1.40265e-12)
(0.00514324 -7.51341e-05 1.00311e-12)
(0.00472994 -2.70113e-05 6.98005e-13)
(0.00417931 6.41472e-06 4.73817e-13)
(0.00354855 2.59296e-05 3.08932e-13)
(0.00289622 3.43391e-05 1.95273e-13)
(0.00227321 3.45268e-05 1.19679e-13)
(0.00171654 3.0356e-05 7.09585e-14)
(0.00124842 2.41844e-05 4.07363e-14)
(0.000874851 1.80381e-05 2.26e-14)
(0.000590335 1.26714e-05 1.20883e-14)
(0.000383448 8.43548e-06 6.26058e-15)
(0.000239029 5.38136e-06 3.10283e-15)
(0.000142688 3.25673e-06 1.47739e-15)
(8.1361e-05 1.88018e-06 6.72782e-16)
(4.3929e-05 1.02929e-06 2.89373e-16)
(2.27327e-05 5.29915e-07 1.20148e-16)
(1.06674e-05 2.52876e-07 4.29998e-17)
(5.18806e-06 1.26109e-07 1.84231e-17)
(0.000384872 -0.00198354 1.25356e-10)
(0.000858463 -0.00196349 4.13995e-11)
(0.00145255 -0.00192511 2.25612e-11)
(0.00208358 -0.00186918 1.4912e-11)
(0.00274494 -0.00178437 1.06843e-11)
(0.00341596 -0.00166636 7.97491e-12)
(0.00406739 -0.0015137 6.07392e-12)
(0.00466095 -0.0013275 4.65732e-12)
(0.00515291 -0.00111305 3.56383e-12)
(0.00549877 -0.000880733 2.70117e-12)
(0.0056605 -0.000645415 2.01622e-12)
(0.00561476 -0.000424057 1.47411e-12)
(0.00536003 -0.000232662 1.05202e-12)
(0.00491959 -8.28065e-05 7.30588e-13)
(0.00433906 2.09342e-05 4.9507e-13)
(0.00367834 8.15052e-05 3.22304e-13)
(0.00299808 0.000107255 2.03471e-13)
(0.00235046 0.000107821 1.24566e-13)
(0.00177313 9.46187e-05 7.3773e-14)
(0.00128861 7.55329e-05 4.23159e-14)
(0.000902273 5.62581e-05 2.34454e-14)
(0.000608468 3.95668e-05 1.25277e-14)
(0.000395021 2.63583e-05 6.48309e-15)
(0.00024609 1.67753e-05 3.2091e-15)
(0.000146903 1.01437e-05 1.52854e-15)
(8.37692e-05 5.83904e-06 6.96221e-16)
(4.52732e-05 3.19106e-06 3.00196e-16)
(2.3466e-05 1.64994e-06 1.25124e-16)
(1.10384e-05 7.80532e-07 4.51402e-17)
(5.52698e-06 4.07388e-07 2.03012e-17)
(0.000403397 -0.00334639 1.31257e-10)
(0.000899198 -0.00333284 4.33502e-11)
(0.00152002 -0.00327591 2.36056e-11)
(0.00217834 -0.00317939 1.55853e-11)
(0.00286617 -0.00303308 1.11514e-11)
(0.00356019 -0.0028302 8.30785e-12)
(0.00422898 -0.00256748 6.3126e-12)
(0.00483211 -0.00224735 4.82671e-12)
(0.00532414 -0.00187965 3.68131e-12)
(0.00565993 -0.00148283 2.77985e-12)
(0.00580227 -0.00108252 2.06653e-12)
(0.00573032 -0.000707715 1.50444e-12)
(0.00544636 -0.000385253 1.06903e-12)
(0.00497773 -0.000133915 7.39307e-13)
(0.00437346 3.9097e-05 4.99074e-13)
(0.00369502 0.000139673 3.23819e-13)
(0.00300323 0.000181491 2.03856e-13)
(0.00234924 0.000181841 1.24525e-13)
(0.00176932 0.000159018 7.36252e-14)
(0.00128433 0.000126819 4.21804e-14)
(0.000898602 9.43306e-05 2.33518e-14)
(0.000605692 6.62754e-05 1.2471e-14)
(0.000393084 4.41491e-05 6.45139e-15)
(0.00024485 2.80669e-05 3.1928e-15)
(0.00014612 1.69817e-05 1.52033e-15)
(8.3335e-05 9.77368e-06 6.92559e-16)
(4.50433e-05 5.33622e-06 2.98661e-16)
(2.33472e-05 2.77059e-06 1.24497e-16)
(1.0972e-05 1.30078e-06 4.48934e-17)
(5.538e-06 6.79195e-07 2.03693e-17)
(0.000436956 -0.00480289 1.41462e-10)
(0.000966784 -0.00478885 4.64858e-11)
(0.00162776 -0.00470768 2.52341e-11)
(0.00232643 -0.00456535 1.66226e-11)
(0.00305356 -0.00434973 1.1867e-11)
(0.00378253 -0.00405185 8.81767e-12)
(0.00447798 -0.00366731 6.678e-12)
(0.00509564 -0.00320053 5.08569e-12)
(0.00558724 -0.002667 3.86045e-12)
(0.00590654 -0.00209437 2.89928e-12)
(0.00601789 -0.00152024 2.14237e-12)
(0.00590478 -0.000986284 1.54976e-12)
(0.00557549 -0.000530124 1.09417e-12)
(0.0050637 -0.000177143 7.52006e-13)
(0.00442334 6.38303e-05 5.04755e-13)
(0.00371848 0.000202408 3.25874e-13)
(0.00300952 0.000258493 2.04289e-13)
(0.00234632 0.000257256 1.24375e-13)
(0.00176273 0.000224037 7.33535e-14)
(0.00127735 0.000178342 4.19513e-14)
(0.000892705 0.00013244 2.31981e-14)
(0.000601273 9.2988e-05 1.23795e-14)
(0.000390071 6.19239e-05 6.40148e-15)
(0.000242904 3.93475e-05 3.16721e-15)
(0.000144966 2.3806e-05 1.50821e-15)
(8.26602e-05 1.36983e-05 6.86922e-16)
(4.46744e-05 7.47629e-06 2.96199e-16)
(2.31554e-05 3.88299e-06 1.23464e-16)
(1.08905e-05 1.82121e-06 4.45502e-17)
(5.44519e-06 9.44405e-07 2.00511e-17)
(0.000474176 -0.00637978 1.53307e-10)
(0.00105174 -0.00636156 5.05064e-11)
(0.00177109 -0.00625011 2.74249e-11)
(0.00252832 -0.00605421 1.80442e-11)
(0.00331174 -0.00575854 1.28552e-11)
(0.00409006 -0.00535149 9.52326e-12)
(0.00482244 -0.00482837 7.18344e-12)
(0.00545932 -0.00419676 5.44297e-12)
(0.00594863 -0.0034795 4.10643e-12)
(0.00624319 -0.00271542 3.06226e-12)
(0.00631021 -0.0019557 2.24516e-12)
(0.00613947 -0.00125546 1.61073e-12)
(0.00574779 -0.000662867 1.12772e-12)
(0.00517728 -0.000208859 7.68792e-13)
(0.00448846 9.76473e-05 5.12182e-13)
(0.00374833 0.000271228 3.28501e-13)
(0.00301685 0.000338981 2.04801e-13)
(0.0023417 0.000334251 1.24143e-13)
(0.00175356 0.000289658 7.29771e-14)
(0.00126783 0.000229901 4.16398e-14)
(0.000884721 0.000170446 2.29907e-14)
(0.000595336 0.000119523 1.22568e-14)
(0.000386001 7.95628e-05 6.33428e-15)
(0.000240297 5.0524e-05 3.13298e-15)
(0.000143384 3.05652e-05 1.49163e-15)
(8.17523e-05 1.75852e-05 6.79315e-16)
(4.41817e-05 9.595e-06 2.92901e-16)
(2.28995e-05 4.98479e-06 1.22088e-16)
(1.07711e-05 2.33717e-06 4.40585e-17)
(5.38287e-06 1.21245e-06 1.98117e-17)
(0.000526657 -0.00811135 1.69882e-10)
(0.00116805 -0.00809094 5.59926e-11)
(0.00196534 -0.00794355 3.03792e-11)
(0.00280054 -0.0076836 1.99518e-11)
(0.00365825 -0.00729253 1.41756e-11)
(0.00450078 -0.00675635 1.04619e-11)
(0.00527981 -0.00607112 7.85232e-12)
(0.00593889 -0.00524943 5.91277e-12)
(0.00642137 -0.00432402 4.42741e-12)
(0.00667967 -0.00334758 3.27312e-12)
(0.00668554 -0.00238689 2.3769e-12)
(0.00643773 -0.00151141 1.68809e-12)
(0.00596443 -0.000779268 1.16984e-12)
(0.00531844 -0.000225353 7.8963e-13)
(0.00456827 0.000143265 5.21276e-13)
(0.00378407 0.000347903 3.31646e-13)
(0.00302483 0.000423802 2.05363e-13)
(0.00233523 0.000413253 1.23815e-13)
(0.00174175 0.000355954 7.24919e-14)
(0.00125576 0.000281504 4.12454e-14)
(0.000874682 0.000208262 2.27299e-14)
(0.0005879 0.000145838 1.21032e-14)
(0.000380913 9.70188e-05 6.25031e-15)
(0.00023704 6.15737e-05 3.09025e-15)
(0.00014141 3.72426e-05 1.47095e-15)
(8.06195e-05 2.14246e-05 6.6983e-16)
(4.35674e-05 1.16873e-05 2.88792e-16)
(2.25805e-05 6.07284e-06 1.20373e-16)
(1.06216e-05 2.84679e-06 4.34448e-17)
(5.30722e-06 1.47688e-06 1.95182e-17)
(0.000596431 -0.0100527 1.91833e-10)
(0.0013215 -0.0100288 6.32065e-11)
(0.00222058 -0.00983704 3.42443e-11)
(0.00315703 -0.0094981 2.24389e-11)
(0.00411024 -0.00899024 1.58909e-11)
(0.0050338 -0.0082974 1.16756e-11)
(0.00586941 -0.00741801 8.71182e-12)
(0.00655194 -0.00637241 6.51167e-12)
(0.00701982 -0.00520679 4.83278e-12)
(0.00722622 -0.00399126 3.53664e-12)
(0.00715001 -0.00281058 2.53965e-12)
(0.00680222 -0.00174927 1.7825e-12)
(0.00622571 -0.000874468 1.22059e-12)
(0.00548627 -0.000222659 8.14384e-13)
(0.00466149 0.000203468 5.31892e-13)
(0.00382457 0.000434061 3.35212e-13)
(0.00303269 0.000513815 2.05922e-13)
(0.00232646 0.000494621 1.23368e-13)
(0.00172708 0.000423023 7.18889e-14)
(0.00124108 0.000333135 4.07653e-14)
(0.000862569 0.000245838 2.24152e-14)
(0.000578965 0.000171878 1.19187e-14)
(0.000374817 0.000114251 6.14972e-15)
(0.000233141 7.24678e-05 3.03913e-15)
(0.000139049 4.38204e-05 1.44623e-15)
(7.9265e-05 2.5206e-05 6.58494e-16)
(4.28332e-05 1.37473e-05 2.83885e-16)
(2.21993e-05 7.1441e-06 1.18325e-16)
(1.0443e-05 3.34865e-06 4.27118e-17)
(5.2173e-06 1.73688e-06 1.91678e-17)
(0.000687655 -0.0122692 2.20385e-10)
(0.00152127 -0.0122388 7.25559e-11)
(0.00255182 -0.0119906 3.9235e-11)
(0.003618 -0.0115519 2.56396e-11)
(0.00469204 -0.0108978 1.80892e-11)
(0.00571556 -0.0100107 1.32219e-11)
(0.00661726 -0.0088941 9.79819e-12)
(0.00732166 -0.00758007 7.26134e-12)
(0.00776242 -0.0061332 5.33452e-12)
(0.00789562 -0.00464534 3.8587e-12)
(0.00771088 -0.00322195 2.73585e-12)
(0.00723584 -0.00196303 1.89465e-12)
(0.00653171 -0.000942889 1.27995e-12)
(0.00567947 -0.00019656 8.42854e-13)
(0.00476648 0.000281141 5.43842e-13)
(0.00386839 0.000531233 3.39075e-13)
(0.00303946 0.000609802 2.06414e-13)
(0.00231486 0.000578669 1.22773e-13)
(0.00170929 0.000490935 7.11569e-14)
(0.00122368 0.000384763 4.01962e-14)
(0.000848356 0.000283115 2.20459e-14)
(0.000568534 0.000197589 1.17033e-14)
(0.000367719 0.000131217 6.03264e-15)
(0.000228609 8.31783e-05 2.97971e-15)
(0.000136307 5.02814e-05 1.41752e-15)
(7.76924e-05 2.8919e-05 6.45337e-16)
(4.19811e-05 1.57696e-05 2.78192e-16)
(2.17569e-05 8.19565e-06 1.1595e-16)
(1.02356e-05 3.84141e-06 4.18613e-17)
(5.113e-06 1.99176e-06 1.87613e-17)
(0.000806499 -0.0148434 2.57317e-10)
(0.00178046 -0.0148015 8.46243e-11)
(0.00298014 -0.0144797 4.56558e-11)
(0.00421166 -0.0139125 2.97411e-11)
(0.00543705 -0.0130712 2.08908e-11)
(0.00658172 -0.0119388 1.51777e-11)
(0.00755781 -0.0105273 1.11592e-11)
(0.008278 -0.00888692 8.18974e-12)
(0.00867229 -0.00710703 5.94763e-12)
(0.00870327 -0.00530646 4.24643e-12)
(0.00837651 -0.00361412 2.96825e-12)
(0.00774156 -0.00214513 2.02526e-12)
(0.00688203 -0.000978088 1.34784e-12)
(0.00589619 -0.000142109 8.74764e-13)
(0.00488112 0.000379147 5.56888e-13)
(0.00391381 0.000640891 3.43087e-13)
(0.00304406 0.000712447 2.06763e-13)
(0.00229984 0.000665639 1.21999e-13)
(0.0016881 0.000559721 7.02841e-14)
(0.00120346 0.000436339 3.95344e-14)
(0.000832017 0.000320029 2.16214e-14)
(0.00055661 0.000222913 1.14571e-14)
(0.000359631 0.000147876 5.89923e-15)
(0.000223453 9.36765e-05 2.91212e-15)
(0.000133191 5.66081e-05 1.3849e-15)
(7.59057e-05 3.25534e-05 6.30392e-16)
(4.10133e-05 1.77484e-05 2.71729e-16)
(2.12546e-05 9.22459e-06 1.13253e-16)
(9.99998e-06 4.32374e-06 4.08956e-17)
(4.99444e-06 2.24102e-06 1.82999e-17)
(0.000961269 -0.0178824 3.05032e-10)
(0.00211728 -0.0178212 1.0021e-10)
(0.00353504 -0.0174014 5.39222e-11)
(0.00497707 -0.016665 3.4997e-11)
(0.00639094 -0.0155797 2.44575e-11)
(0.00768024 -0.0141317 1.76457e-11)
(0.00873635 -0.0123486 1.28572e-11)
(0.0094592 -0.010307 9.33238e-12)
(0.00977791 -0.00812961 6.69048e-12)
(0.00966731 -0.00596819 4.70812e-12)
(0.00915605 -0.00397754 3.2399e-12)
(0.00832206 -0.00228618 2.17495e-12)
(0.00727575 -0.000972708 1.42403e-12)
(0.00613389 -5.88305e-05 9.09742e-13)
(0.00500269 0.000500124 5.70737e-13)
(0.00395883 0.000764423 3.47075e-13)
(0.00304521 0.000822323 2.06885e-13)
(0.00228072 0.000755698 1.2101e-13)
(0.0016632 0.000629369 6.92574e-14)
(0.00118029 0.000487791 3.87758e-14)
(0.000813523 0.000356505 2.11406e-14)
(0.000543197 0.00024779 1.11802e-14)
(0.000350566 0.000164185 5.7497e-15)
(0.000217684 0.000103934 2.83652e-15)
(0.000129708 6.27831e-05 1.34846e-15)
(7.39097e-05 3.60991e-05 6.13699e-16)
(3.99325e-05 1.96784e-05 2.64513e-16)
(2.06938e-05 1.02281e-05 1.10243e-16)
(9.73689e-06 4.79432e-06 3.98173e-17)
(4.86179e-06 2.48361e-06 1.77851e-17)
(0.00116373 -0.021527 3.66814e-10)
(0.00255749 -0.0214359 1.20419e-10)
(0.00425818 -0.0208828 6.46145e-11)
(0.00596901 -0.0199191 4.17605e-11)
(0.00761687 -0.0185096 2.90119e-11)
(0.00907599 -0.0166496 2.07639e-11)
(0.0102124 -0.0143923 1.4974e-11)
(0.0109138 -0.011853 1.07342e-11)
(0.0111139 -0.00919848 7.58537e-12)
(0.0108086 -0.00662 5.25333e-12)
(0.0100592 -0.00429935 3.55397e-12)
(0.00897941 -0.0023746 2.34418e-12)
(0.00770914 -0.000917722 1.50796e-12)
(0.00638922 6.66612e-05 9.4729e-13)
(0.00512937 0.000647072 5.85109e-13)
(0.00400114 0.000903083 3.50838e-13)
(0.00304152 0.000939881 2.06684e-13)
(0.00225675 0.000848924 1.19765e-13)
(0.00163427 0.000699825 6.8063e-14)
(0.00115407 0.00053903 3.79165e-14)
(0.000792849 0.000392461 2.06031e-14)
(0.000528304 0.000272157 1.08727e-14)
(0.000340538 0.0001801 5.5843e-15)
(0.000211316 0.000113924 2.75306e-15)
(0.000125868 6.87898e-05 1.30827e-15)
(7.17096e-05 3.95465e-05 5.95304e-16)
(3.87415e-05 2.15543e-05 2.56565e-16)
(2.0076e-05 1.12034e-05 1.06928e-16)
(9.44698e-06 5.25189e-06 3.86288e-17)
(4.71548e-06 2.71894e-06 1.72193e-17)
(0.00143202 -0.0259672 4.47596e-10)
(0.00313916 -0.0258312 1.46875e-10)
(0.00520971 -0.0250933 7.85647e-11)
(0.00726547 -0.0238179 5.05302e-11)
(0.00920301 -0.0219696 3.48624e-11)
(0.0108571 -0.0195636 2.47187e-11)
(0.012064 -0.0166946 1.76161e-11)
(0.0127027 -0.0135339 1.24514e-11)
(0.0127216 -0.0103054 8.65884e-12)
(0.0121506 -0.00724582 5.89272e-12)
(0.0110956 -0.00456254 3.91359e-12)
(0.00971471 -0.00239639 2.53316e-12)
(0.00818201 -0.000803407 1.59926e-12)
(0.00665752 0.000240996 9.86748e-13)
(0.00525479 0.000822638 5.99438e-13)
(0.00403806 0.00105794 3.54146e-13)
(0.00303144 0.0010654 2.06053e-13)
(0.00222715 0.000945292 1.18222e-13)
(0.00160096 0.000770976 6.66858e-14)
(0.00112466 0.000589938 3.69523e-14)
(0.000769971 0.000427805 2.0008e-14)
(0.000511941 0.000295948 1.05348e-14)
(0.000329564 0.000195577 5.40329e-15)
(0.000204362 0.000123617 2.66193e-15)
(0.000121679 7.46116e-05 1.26444e-15)
(6.93113e-05 4.28858e-05 5.75254e-16)
(3.74435e-05 2.33709e-05 2.47905e-16)
(1.9403e-05 1.21478e-05 1.03316e-16)
(9.13106e-06 5.69521e-06 3.73338e-17)
(4.55598e-06 2.94675e-06 1.66053e-17)
(0.00179247 -0.0314658 5.54581e-10)
(0.00391828 -0.0312624 1.81967e-10)
(0.00647804 -0.0302624 9.69851e-11)
(0.00897946 -0.0285504 6.20216e-11)
(0.0112742 -0.0260974 4.24414e-11)
(0.013144 -0.0229572 2.97634e-11)
(0.0143934 -0.0192921 2.09228e-11)
(0.014902 -0.0153525 1.4554e-11)
(0.0146495 -0.0114338 9.94205e-12)
(0.0137183 -0.00782231 6.63779e-12)
(0.0122738 -0.00474509 4.32157e-12)
(0.0105269 -0.00233484 2.74157e-12)
(0.00868787 -0.000619762 1.69686e-12)
(0.00693304 0.000460899 1.02728e-12)
(0.00537544 0.00102887 6.13241e-13)
(0.00406665 0.00122977 3.56743e-13)
(0.00301331 0.00119899 2.04881e-13)
(0.00219109 0.00104467 1.16337e-13)
(0.00156292 0.000842653 6.51109e-14)
(0.00109195 0.000640375 3.58792e-14)
(0.000744873 0.000462435 1.93549e-14)
(0.000494125 0.000319095 1.01668e-14)
(0.000317665 0.000210573 5.20701e-15)
(0.000196839 0.000132987 2.56333e-15)
(0.000117153 8.02322e-05 1.21709e-15)
(6.67213e-05 4.6108e-05 5.53603e-16)
(3.60422e-05 2.51232e-05 2.38558e-16)
(1.86764e-05 1.30588e-05 9.94195e-17)
(8.79e-06 6.12306e-06 3.59352e-17)
(4.38377e-06 3.16629e-06 1.59454e-17)
(0.00228441 -0.0383923 6.98518e-10)
(0.0049799 -0.0380886 2.29314e-10)
(0.00819657 -0.0367085 1.21694e-10)
(0.0112784 -0.0343705 7.7286e-11)
(0.0140096 -0.0310674 5.2366e-11)
(0.0161031 -0.0269268 3.62456e-11)
(0.0173349 -0.0222175 2.50765e-11)
(0.0176055 -0.0173001 1.71287e-11)
(0.0169534 -0.0125552 1.14709e-11)
(0.0155379 -0.00831684 7.50039e-12)
(0.0136004 -0.00481905 4.77998e-12)
(0.0114122 -0.00217017 2.96838e-12)
(0.00921905 -0.000356643 1.7993e-12)
(0.00720859 0.000735086 1.06785e-12)
(0.00548615 0.00126788 6.25952e-13)
(0.00408369 0.00141906 3.58345e-13)
(0.00298537 0.00134052 2.03046e-13)
(0.00214771 0.00114679 1.14062e-13)
(0.0015198 0.000914626 6.33232e-14)
(0.00105585 0.000690176 3.46935e-14)
(0.000717544 0.000496241 1.86433e-14)
(0.000474875 0.000341528 9.76912e-15)
(0.000304864 0.000225043 4.99583e-15)
(0.000188763 0.000142007 2.4575e-15)
(0.0001123 8.5636e-05 1.16633e-15)
(6.39464e-05 4.9204e-05 5.3041e-16)
(3.45413e-05 2.68064e-05 2.28549e-16)
(1.78985e-05 1.39338e-05 9.52473e-17)
(8.42472e-06 6.53428e-06 3.4437e-17)
(4.19944e-06 3.37697e-06 1.52425e-17)
(0.00297054 -0.0472801 8.96204e-10)
(0.00645702 -0.0468272 2.94589e-10)
(0.0105716 -0.0448817 1.5549e-10)
(0.0144153 -0.0416222 9.79032e-11)
(0.0176701 -0.0370992 6.55301e-11)
(0.0199637 -0.0315773 4.46456e-11)
(0.0210625 -0.025492 3.03148e-11)
(0.020927 -0.0193498 2.0281e-11)
(0.0196951 -0.0136246 1.32855e-11)
(0.0176339 -0.00868503 8.49193e-12)
(0.015078 -0.00474956 5.28963e-12)
(0.0123621 -0.00187937 3.21148e-12)
(0.00976495 -4.46436e-06 1.90457e-12)
(0.00747566 0.00106902 1.10723e-12)
(0.00558093 0.00154133 6.36898e-13)
(0.00408562 0.00162589 3.58639e-13)
(0.00294576 0.00148962 2.00419e-13)
(0.00209618 0.00125128 1.11353e-13)
(0.00147126 0.0009866 6.13085e-14)
(0.00101624 0.000739147 3.33919e-14)
(0.000687981 0.000529101 1.78733e-14)
(0.000454217 0.000363172 9.34227e-15)
(0.000291185 0.000238944 4.77016e-15)
(0.000180154 0.00015065 2.34467e-15)
(0.000107135 9.08076e-05 1.11229e-15)
(6.09941e-05 5.21653e-05 5.05736e-16)
(3.29449e-05 2.8416e-05 2.17906e-16)
(1.70712e-05 1.47704e-05 9.08117e-17)
(8.03622e-06 6.92775e-06 3.28431e-17)
(4.00365e-06 3.57824e-06 1.44995e-17)
(0.00394852 -0.0589177 1.17423e-09)
(0.00856136 -0.0582421 3.86948e-10)
(0.0139303 -0.0554315 2.02822e-10)
(0.0187808 -0.0507754 1.26306e-10)
(0.0226395 -0.0444642 8.32493e-11)
(0.0250435 -0.0370131 5.56305e-11)
(0.0258004 -0.0291115 3.69461e-11)
(0.0250004 -0.0214459 2.41371e-11)
(0.0229393 -0.0145747 1.54288e-11)
(0.0200269 -0.00886825 9.62208e-12)
(0.0167033 -0.00449421 5.84934e-12)
(0.0133624 -0.00143689 3.46726e-12)
(0.0103114 0.000459147 2.01005e-12)
(0.00772445 0.00146786 1.14404e-12)
(0.00565304 0.00185027 6.45316e-13)
(0.00406865 0.00184989 3.5729e-13)
(0.00289259 0.00164565 1.96871e-13)
(0.00203567 0.00135758 1.08165e-13)
(0.00141702 0.00105822 5.90537e-14)
(0.000973056 0.000787069 3.19717e-14)
(0.000656195 0.000560887 1.70449e-14)
(0.000432181 0.000383954 8.88682e-15)
(0.000276659 0.000252231 4.53049e-15)
(0.000171033 0.000158892 2.22514e-15)
(0.000101669 9.57323e-05 1.05512e-15)
(5.78724e-05 5.49836e-05 4.7965e-16)
(3.12575e-05 2.99473e-05 2.06658e-16)
(1.61969e-05 1.55663e-05 8.61249e-17)
(7.62558e-06 7.30237e-06 3.11578e-17)
(3.797e-06 3.76956e-06 1.37191e-17)
(0.00536713 -0.0744897 1.57547e-09)
(0.0116381 -0.0734929 5.21886e-10)
(0.0188111 -0.0693186 2.71118e-10)
(0.0249966 -0.0624756 1.66401e-10)
(0.029493 -0.053484 1.07515e-10)
(0.0317823 -0.0433148 7.01389e-11)
(0.0318317 -0.0330242 4.53694e-11)
(0.0299777 -0.0234904 2.88448e-11)
(0.0267489 -0.0153092 1.79442e-11)
(0.0227287 -0.00879119 1.08971e-11)
(0.0184636 -0.00400249 6.45503e-12)
(0.0143964 -0.000820234 3.73163e-12)
(0.0108402 0.00104316 2.11233e-12)
(0.00793934 0.00193522 1.17601e-12)
(0.00569482 0.00219485 6.5034e-13)
(0.00402879 0.00209012 3.53947e-13)
(0.00282398 0.00180765 1.92271e-13)
(0.00196539 0.00146501 1.04453e-13)
(0.00135678 0.00112905 5.65468e-14)
(0.000926252 0.000833701 3.04312e-14)
(0.000622206 0.000591465 1.61586e-14)
(0.000408802 0.000403797 8.40348e-15)
(0.000261316 0.000264863 4.27733e-15)
(0.000161423 0.000166706 2.09919e-15)
(9.59181e-05 0.000100396 9.94963e-16)
(5.45899e-05 5.7651e-05 4.52223e-16)
(2.94837e-05 3.13963e-05 1.94836e-16)
(1.5278e-05 1.63194e-05 8.11997e-17)
(7.1939e-06 7.65708e-06 2.93856e-17)
(3.58004e-06 3.95039e-06 1.29032e-17)
(0.00743336 -0.0957813 2.17059e-09)
(0.0162644 -0.0943942 7.27474e-10)
(0.0261359 -0.0879976 3.73644e-10)
(0.0340825 -0.0776005 2.24775e-10)
(0.039101 -0.0645041 1.41429e-10)
(0.0407826 -0.0504909 8.95025e-11)
(0.0395014 -0.0370949 5.60945e-11)
(0.0360189 -0.0253247 3.45705e-11)
(0.0311752 -0.015696 2.08715e-11)
(0.0257363 -0.0083599 1.23172e-11)
(0.0203313 -0.00321856 7.09796e-12)
(0.0154326 -5.78923e-06 3.99692e-12)
(0.0113302 0.00174973 2.20735e-12)
(0.00810749 0.00247294 1.20126e-12)
(0.00569811 0.00257406 6.51037e-13)
(0.00396196 0.00234498 3.48248e-13)
(0.00273811 0.00197431 1.86491e-13)
(0.00188462 0.00157275 1.00178e-13)
(0.00129035 0.00119862 5.37782e-14)
(0.000875799 0.000878776 2.87691e-14)
(0.000586053 0.000620691 1.52153e-14)
(0.000384123 0.000422624 7.89312e-15)
(0.000245194 0.000276796 4.01128e-15)
(0.000151348 0.000174071 1.96714e-15)
(8.98968e-05 0.000104786 9.31985e-16)
(5.11553e-05 6.016e-05 4.23528e-16)
(2.76283e-05 3.27589e-05 1.82472e-16)
(1.43169e-05 1.70275e-05 7.60499e-17)
(6.74238e-06 7.99087e-06 2.75313e-17)
(3.35331e-06 4.12022e-06 1.20542e-17)
(0.010328 -0.125431 3.07114e-09)
(0.0234202 -0.123895 1.05954e-09)
(0.0375669 -0.11373 5.36663e-10)
(0.0477695 -0.0973031 3.13388e-10)
(0.0527881 -0.0778056 1.90021e-10)
(0.0528479 -0.0583855 1.15632e-10)
(0.0492027 -0.0410531 6.97608e-11)
(0.0432703 -0.0267094 4.14902e-11)
(0.0362425 -0.015562 2.42389e-11)
(0.029022 -0.00746098 1.38728e-11)
(0.0222613 -0.00207377 7.76363e-12)
(0.0164325 0.00105755 4.25349e-12)
(0.0117551 0.00259397 2.29023e-12)
(0.00821225 0.0030816 1.21739e-12)
(0.00565423 0.00298556 6.46412e-13)
(0.00386408 0.00261213 3.39823e-13)
(0.00263329 0.002144 1.79412e-13)
(0.00179278 0.00167978 9.53085e-14)
(0.00121756 0.00126637 5.0741e-14)
(0.000821708 0.00092201 2.69857e-14)
(0.000547786 0.00064842 1.42163e-14)
(0.000358197 0.000440359 7.35679e-15)
(0.000228331 0.000287989 3.73297e-15)
(0.000140835 0.000180961 1.82934e-15)
(8.36216e-05 0.000108888 8.66355e-16)
(4.75782e-05 6.25034e-05 3.93645e-16)
(2.56964e-05 3.40313e-05 1.69601e-16)
(1.33165e-05 1.76884e-05 7.069e-17)
(6.27227e-06 8.30276e-06 2.56e-17)
(3.11751e-06 4.27858e-06 1.11753e-17)
(0.0139292 -0.16715 4.43007e-09)
(0.0348938 -0.167001 1.6461e-09)
(0.0562457 -0.150144 8.21323e-10)
(0.0691205 -0.122966 4.56859e-10)
(0.0725825 -0.0933713 2.62066e-10)
(0.0690073 -0.0665172 1.5135e-10)
(0.0613376 -0.0444238 8.71635e-11)
(0.0518304 -0.0273051 4.97777e-11)
(0.0419303 -0.0146909 2.80555e-11)
(0.0325285 -0.00597077 1.55414e-11)
(0.0241975 -0.000559336 8.43369e-12)
(0.017342 0.00238639 4.48836e-12)
(0.0120751 0.00358052 2.35358e-12)
(0.008235 0.00375874 1.22163e-12)
(0.00555416 0.0034254 6.35423e-13)
(0.00373126 0.0028884 3.28322e-13)
(0.00250801 0.00231469 1.70926e-13)
(0.0016894 0.001785 8.98158e-14)
(0.00113835 0.00133173 4.74313e-14)
(0.000764021 0.000963105 2.5082e-14)
(0.000507475 0.000674505 1.31634e-14)
(0.000331085 0.000456926 6.79574e-15)
(0.00021077 0.000298401 3.44312e-15)
(0.000129912 0.000187357 1.68616e-15)
(7.71093e-05 0.00011269 7.98247e-16)
(4.38681e-05 6.46747e-05 3.62655e-16)
(2.36934e-05 3.52099e-05 1.56257e-16)
(1.22794e-05 1.83007e-05 6.51345e-17)
(5.78487e-06 8.59184e-06 2.35972e-17)
(2.87298e-06 4.42509e-06 1.02672e-17)
(0.0181633 -0.224547 6.43544e-09)
(0.0546304 -0.231992 2.80827e-09)
(0.0875752 -0.202955 1.38984e-09)
(0.10362 -0.155835 7.15272e-10)
(0.10152 -0.110352 3.75086e-10)
(0.0904594 -0.0738095 2.01118e-10)
(0.0762183 -0.0464492 1.0929e-10)
(0.061694 -0.0266651 5.9582e-11)
(0.0481473 -0.012827 3.2298e-11)
(0.0361241 -0.00374337 1.72698e-11)
(0.0260471 0.001483 9.07746e-12)
(0.0181212 0.00399064 4.69133e-12)
(0.0122569 0.00471008 2.39089e-12)
(0.00815626 0.00449832 1.21109e-12)
(0.00538902 0.00388772 6.17031e-13)
(0.00355997 0.00316978 3.13419e-13)
(0.00236109 0.00248405 1.60946e-13)
(0.00157417 0.00188713 8.3682e-14)
(0.00105272 0.00139405 4.38488e-14)
(0.000702826 0.00100175 2.30607e-14)
(0.00046521 0.000698795 1.20587e-14)
(0.000302857 0.000472252 6.21141e-15)
(0.000192557 0.000307996 3.14249e-15)
(0.000118608 0.000193237 1.53798e-15)
(7.03779e-05 0.000116182 7.27849e-16)
(4.00353e-05 6.66675e-05 3.30643e-16)
(2.16246e-05 3.62912e-05 1.42478e-16)
(1.12085e-05 1.88627e-05 5.93992e-17)
(5.28151e-06 8.85729e-06 2.15282e-17)
(2.62055e-06 4.5594e-06 9.33342e-18)
(0.0282504 -0.30602 9.51948e-09)
(0.090948 -0.332766 5.10147e-09)
(0.131843 -0.280252 2.57214e-09)
(0.158091 -0.196648 1.23389e-09)
(0.143336 -0.126145 5.69667e-10)
(0.118164 -0.0782346 2.73155e-10)
(0.0937997 -0.0460377 1.37443e-10)
(0.0726346 -0.0242603 7.09944e-11)
(0.0546973 -0.00969914 3.6895e-11)
(0.039706 -0.000709858 1.90158e-11)
(0.027691 0.00411468 9.65569e-12)
(0.0186517 0.00589479 4.83237e-12)
(0.0122547 0.00597655 2.39326e-12)
(0.00795524 0.00528997 1.18267e-12)
(0.00515042 0.00436448 5.90236e-13)
(0.00334727 0.00345134 2.94836e-13)
(0.00219172 0.00264938 1.49409e-13)
(0.00144702 0.00198482 7.69006e-14)
(0.000960793 0.00145268 3.99977e-14)
(0.000638265 0.00103764 2.09263e-14)
(0.000421097 0.000721141 1.09049e-14)
(0.000273586 0.000486264 5.60525e-15)
(0.000173742 0.000316736 2.8319e-15)
(0.000106955 0.000198582 1.3852e-15)
(6.34461e-05 0.000119353 6.55355e-16)
(3.60905e-05 6.84759e-05 2.97698e-16)
(1.9496e-05 3.72708e-05 1.28302e-16)
(1.01068e-05 1.93722e-05 5.35002e-17)
(4.76359e-06 9.09826e-06 1.93988e-17)
(2.36086e-06 4.68119e-06 8.37573e-18)
(0.0703189 -0.489094 1.46525e-08)
(0.157067 -0.493206 8.30559e-09)
(0.154302 -0.398914 4.38451e-09)
(0.226164 -0.255927 2.18098e-09)
(0.198694 -0.137062 9.25931e-10)
(0.15186 -0.0767676 3.85167e-10)
(0.113356 -0.0418214 1.73845e-10)
(0.0841316 -0.0195582 8.40581e-11)
(0.061225 -0.00511298 4.16972e-11)
(0.0430314 0.00339086 2.06721e-11)
(0.0290169 0.00731043 1.01269e-11)
(0.0188657 0.00809625 4.89357e-12)
(0.0120226 0.00736292 2.35166e-12)
(0.00761185 0.00611798 1.13328e-12)
(0.00483113 0.00484545 5.54151e-13)
(0.00309107 0.00372738 2.72362e-13)
(0.00199957 0.00280774 1.36285e-13)
(0.00130811 0.00207663 6.94778e-14)
(0.000862789 0.00150693 3.58865e-14)
(0.000570517 0.00107046 1.86844e-14)
(0.000375263 0.000741402 9.70541e-15)
(0.000243357 0.000498896 4.97897e-15)
(0.000154379 0.000324587 2.51223e-15)
(9.49849e-05 0.000203373 1.22824e-15)
(5.63331e-05 0.000122192 5.80967e-16)
(3.20444e-05 7.00941e-05 2.6391e-16)
(1.73132e-05 3.81481e-05 1.13768e-16)
(8.97743e-06 1.98279e-05 4.74547e-17)
(4.23254e-06 9.31399e-06 1.72153e-17)
(2.09472e-06 4.79016e-06 7.39681e-18)
(0.176312 -0.840326 2.04268e-08)
(0.263261 -0.715818 1.06175e-08)
(0.0901931 -0.567718 5.47298e-09)
(0.265368 -0.379644 3.20136e-09)
(0.254379 -0.154231 1.46335e-09)
(0.186988 -0.0676324 5.6333e-10)
(0.132924 -0.0325917 2.22791e-10)
(0.0952125 -0.0120943 9.88163e-11)
(0.0673869 0.00119297 4.65476e-11)
(0.0458834 0.0086865 2.21303e-11)
(0.0297843 0.0111653 1.04068e-11)
(0.018649 0.0105832 4.84507e-12)
(0.0115101 0.00884063 2.25615e-12)
(0.00710762 0.00696073 1.06005e-12)
(0.0044258 0.0053181 5.0808e-13)
(0.00279044 0.00399137 2.45885e-13)
(0.00178489 0.00295596 1.21581e-13)
(0.00115786 0.00216107 6.14333e-14)
(0.000759049 0.00155615 3.15285e-14)
(0.000499814 0.00109991 1.63424e-14)
(0.000327858 0.000759438 8.46388e-15)
(0.00021226 0.00051008 4.33443e-15)
(0.000134525 0.000331516 2.18441e-15)
(8.27317e-05 0.000207593 1.06756e-15)
(4.9059e-05 0.00012469 5.04893e-16)
(2.79085e-05 7.15172e-05 2.29377e-16)
(1.50824e-05 3.89207e-05 9.89165e-17)
(7.82334e-06 2.02282e-05 4.12777e-17)
(3.68986e-06 9.50368e-06 1.49838e-17)
(1.82304e-06 4.88595e-06 6.40025e-18)
(0.161308 -1.77974 2.37583e-08)
(0.52836 -0.893953 2.28977e-08)
(-0.171764 -0.758055 3.29361e-09)
(0.221021 -0.649896 3.73783e-09)
(0.301134 -0.209217 1.84961e-09)
(0.216755 -0.0557554 7.89857e-10)
(0.149053 -0.0183086 2.8824e-10)
(0.104727 -0.002094 1.15521e-10)
(0.0726313 0.00939597 5.11643e-11)
(0.0479402 0.0151744 2.32113e-11)
(0.0298135 0.0156908 1.04211e-11)
(0.0178823 0.0133127 4.65485e-12)
(0.0106679 0.0103652 2.09684e-12)
(0.00642796 0.0077902 9.60586e-13)
(0.00393179 0.00576776 4.51617e-13)
(0.00244585 0.00423628 2.15414e-13)
(0.00154859 0.00309079 1.05351e-13)
(0.000996976 0.00223669 5.28023e-14)
(0.000650035 0.00159966 2.69423e-14)
(0.000426436 0.0011257 1.39092e-14)
(0.000279049 0.000775121 7.18465e-15)
(0.000180397 0.000519759 3.67369e-15)
(0.000114239 0.000337494 1.84944e-15)
(7.02313e-05 0.000211228 9.03623e-16)
(4.16442e-05 0.000126838 4.2735e-16)
(2.36945e-05 7.27407e-05 1.94197e-16)
(1.28099e-05 3.95837e-05 8.379e-17)
(6.6478e-06 2.0572e-05 3.49873e-17)
(3.13707e-06 9.66682e-06 1.27109e-17)
(1.54655e-06 4.96828e-06 5.38911e-18)
(-0.089108 -1.85198 -9.92005e-08)
(0.11897 -0.692627 -4.11819e-08)
(0.329654 -0.120681 -2.49843e-08)
(0.430541 -0.69401 -1.21124e-08)
(0.388389 -0.30103 1.77516e-09)
(0.244059 -0.04124 9.30595e-10)
(0.156979 -7.38197e-05 3.59889e-10)
(0.111336 0.00981743 1.33716e-10)
(0.0767694 0.0189653 5.53633e-11)
(0.0488944 0.0228754 2.37096e-11)
(0.0288503 0.0208691 1.00659e-11)
(0.0164287 0.0162018 4.28685e-12)
(0.00945136 0.0118702 1.86474e-12)
(0.00556444 0.00857001 8.33365e-13)
(0.00335006 0.00617724 3.84745e-13)
(0.00205946 0.0044543 1.81098e-13)
(0.00129229 0.00320871 8.76935e-14)
(0.000826464 0.00230188 4.36352e-14)
(0.000536319 0.00163676 2.21511e-14)
(0.000350707 0.00114748 1.13952e-14)
(0.000229019 0.000788283 5.87244e-15)
(0.000147873 0.000527845 2.9989e-15)
(9.35824e-05 0.000342475 1.50835e-15)
(5.75198e-05 0.000214252 7.369e-16)
(3.41099e-05 0.000128625 3.4856e-16)
(1.9414e-05 7.37583e-05 1.58468e-16)
(1.0502e-05 4.01357e-05 6.84311e-17)
(5.45411e-06 2.08591e-05 2.86016e-17)
(2.57572e-06 9.80453e-06 1.04034e-17)
(1.26921e-06 5.03627e-06 4.3801e-18)
(0.0895155 -2.10319 -1.33095e-07)
(0.326796 -1.67109 -1.49524e-07)
(0.371083 -1.31859 -6.40226e-08)
(0.474948 -0.711587 -5.20196e-08)
(0.335923 -0.321541 -2.82345e-09)
(0.250401 -0.0236928 8.69524e-10)
(0.14976 0.00982387 4.0437e-10)
(0.113315 0.0247661 1.50641e-10)
(0.0797035 0.0326937 5.85933e-11)
(0.0486974 0.0330775 2.33681e-11)
(0.0266601 0.0269812 9.21747e-12)
(0.0141491 0.0192113 3.70396e-12)
(0.00782862 0.0133004 1.55337e-12)
(0.00451886 0.00927323 6.78244e-13)
(0.00268657 0.00653616 3.0797e-13)
(0.00163546 0.00464179 1.43259e-13)
(0.00101841 0.00330859 6.87641e-14)
(0.000647651 0.00235644 3.39999e-14)
(0.000418613 0.00166749 1.71835e-14)
(0.000273006 0.00116539 8.81271e-15)