/*--------------------------------*- C++ -*----------------------------------*\
| =========                 |                                                 |
| \\      /  F ield         | OpenFOAM: The Open Source CFD Toolbox           |
|  \\    /   O peration     | Version:  2.4.0                                 |
|   \\  /    A nd           | Web:      www.OpenFOAM.org                      |
|    \\/     M anipulation  |                                                 |
\*---------------------------------------------------------------------------*/
FoamFile
{
    version     2.0;
    format      ascii;
    class       volScalarField;
    location    "0.179";
    object      p;
}
// * * * * * * * * * * * * * * * * * * * * * * * * * * * * * * * * * * * * * //

dimensions      [1 -1 -2 0 0 0 0];

internalField   nonuniform List<scalar> 
6500
(
68.0957
51.2771
54.3163
50.7198
43.876
28.3654
36.67
24.4693
-9.66478
28.7011
-3.33724
9.7413
-3.29241
-14.3927
-11.8578
-7.32483
-5.45206
-5.83812
-7.07845
-5.0166
-4.98275
-5.1826
-5.01475
-4.73417
-4.37701
-4.31199
-2.13772
-1.03243
-1.00097
-0.237502
0.773894
0.619422
0.0571745
0.0966285
0.00152505
0.00669299
-0.00662794
0.00296318
0.0152392
0.020349
0.0196555
0.0253821
0.0266629
0.036118
0.0448437
0.0546091
0.074114
0.106635
0.144508
0.18247
66.3139
49.3388
52.4623
48.8773
42.3809
26.6589
35.9304
21.5387
-16.3583
52.7907
17.8747
25.9354
14.6458
-14.6153
-12.0268
-7.18617
-5.31102
-5.84123
-7.08508
-5.06849
-5.10282
-5.20714
-5.00915
-4.69999
-4.20958
-4.53888
-1.8478
-1.07317
2.18488
0.586344
1.27473
3.15974
0.0567962
-0.0471757
0.0778272
0.0479254
-0.0103075
0.00243173
0.0160115
0.0364463
0.0255764
0.0310379
0.0338554
0.0367734
0.026799
0.035156
0.058921
0.0910693
0.132284
0.17695
64.5481
47.3932
50.7388
47.1146
40.5579
24.5952
37.3032
25.0756
-18.8977
67.1509
-7.7824
2.79156
-2.41874
-10.1144
-11.9623
-5.95063
-5.0915
-5.76552
-7.18128
-5.34948
-4.7545
-5.21744
-5.01105
-4.55788
-3.46016
-4.95879
-2.08788
-1.18935
-1.1984
0.491218
1.00529
0.670111
0.0430141
-0.00565125
0.284004
0.298209
0.016751
0.00350665
0.0163268
0.033372
0.0359163
0.0225983
0.0213998
0.014501
0.0119982
0.0126586
0.0321053
0.0591853
0.106374
0.157724
62.8378
45.5221
49.8273
45.4004
39.9226
22.5929
32.2797
24.8282
-38.9472
66.657
1.42484
2.63749
-2.70656
-9.58084
-11.8111
-3.84082
-5.18317
-5.56738
-7.16628
-6.64853
-6.1928
-5.2856
-5.01728
-4.46192
-4.23795
-5.49805
-2.30386
-0.910862
-1.11637
-0.110987
0.611493
0.514463
0.0561053
0.0336502
0.229532
0.337485
0.0302171
0.00290044
0.00877785
0.0176205
0.0215585
0.0093296
0.0171142
0.00610033
-0.0120283
-0.0244922
-0.00556884
0.00700229
0.0601872
0.132624
61.2859
43.9205
46.6066
43.8908
38.847
20.1475
31.9406
21.5101
-20.3924
70.3042
-1.24876
-1.88667
-2.96568
-7.33983
-12.4
-6.00687
-5.02103
-5.13919
-7.32529
-6.72764
-3.91675
-5.31848
-5.04318
-4.43242
-4.28835
-3.8808
-0.534465
-1.11305
-0.974929
-0.307413
0.380093
0.218534
0.0748851
0.166791
0.153321
0.269744
0.0465676
0.00479016
0.00881105
0.0236288
0.0156798
0.0194143
0.00556419
-0.00991006
-0.0231982
-0.0188367
0.0584668
-0.0138117
0.0281652
0.128406
59.8218
42.0356
45.3149
47.5489
51.0518
17.8634
14.0669
23.1402
-20.3849
67.3575
-4.09403
17.0874
-3.22291
7.06282
6.66848
-5.12162
-5.18176
-4.80261
-7.5326
-6.85564
-4.42606
-5.32911
-5.03545
-4.3548
-4.25496
-3.90655
-0.775167
-0.631532
-0.916878
-0.0178825
0.0738817
-0.0125034
0.0664476
0.143118
-0.0423548
0.251677
0.0953405
0.00773201
0.0149529
0.0185126
0.0121194
0.0183415
0.00210087
-0.0281319
-0.0217688
-0.0128542
-0.0203912
2.2323
4.21086
1.71865
58.4469
40.3955
48.8213
42.1279
45.5768
15.5926
11.0756
25.1985
-2.65375
83.2384
-8.50095
-6.66412
-3.08741
-2.21388
1.16628
-0.39815
-5.01819
-4.51218
-7.54109
-3.32363
-3.11342
-5.34066
-5.0283
-4.00069
-4.17608
-2.47225
-0.503893
-0.644114
-0.276254
-0.00449605
0.190121
0.151963
0.0455893
0.114109
-0.185808
0.244408
0.141721
0.0143545
0.019372
0.015286
0.0059176
-0.0272339
0.0204811
-0.0322402
-0.0234164
0.0159592
1.24358
7.10568
7.58945
7.22406
57.1642
41.0568
41.3046
40.8867
45.1471
13.3059
7.9912
21.73
-8.24745
89.3169
-13.4564
-6.63895
-3.12758
-2.40493
-0.219527
-4.25547
-5.67078
-4.31645
-7.99755
-4.63274
-5.30302
-5.35599
-5.04534
-3.74916
-4.0481
-4.0129
-0.716654
-0.221844
-0.262511
0.316727
0.0654783
-0.0667237
0.0203942
0.114062
0.559092
0.228337
0.0944572
0.0246829
0.0221189
0.0136989
-0.00232996
-0.0297066
0.00916172
-0.0372355
-0.00604117
0.0296663
4.46434
7.82326
7.79984
7.83929
55.9737
39.9268
44.4068
39.7399
44.9689
11.1763
6.044
12.5357
232.098
99.9726
8.63621
-22.1901
-3.6452
-2.38647
-0.529976
-3.81038
-6.07775
-4.07706
-8.12487
-6.72299
0.389007
-4.49814
-5.07821
-3.72143
-4.06544
-1.80671
-1.86625
0.222544
-0.565915
-0.118571
0.111036
-0.00684797
-0.00143165
0.0980613
-0.0479281
0.239871
0.0869199
0.0312155
0.034929
0.0134504
-0.0091539
-0.0540285
0.0211002
-0.0626305
0.00306002
0.0749152
3.14185
6.83754
7.59302
7.82072
54.8709
39.8744
43.9424
37.1023
37.2652
10.9748
3.14879
8.93281
118.765
96.7177
7.80494
-11.0753
5.90799
-2.30041
-0.677008
-3.61984
-6.20007
-3.07603
-8.19318
3.8683
-0.79539
-2.63613
-5.09224
-3.62293
-4.01396
-5.36978
0.966106
-0.974322
0.0778474
-0.0971223
0.299709
0.0420921
0.101935
0.070352
0.582678
0.262721
0.0829896
0.0357492
0.0394246
0.013788
-0.0121793
-0.0643891
-0.0106241
0.00327172
0.017445
0.0943461
3.07669
6.50218
7.34508
7.84748
53.8388
38.6424
43.0761
36.1383
37.1181
4.60432
1.31266
4.84911
108.226
401.695
100.24
-19.548
-4.67348
-2.2767
-0.737009
-3.52174
-6.00631
-2.6752
-8.14768
4.31139
-0.830817
-5.79978
-5.11108
-3.98838
-3.88024
-4.81256
3.14218
-0.804492
-0.0574624
-0.086676
0.38946
0.0636238
0.0185808
0.0517446
0.385388
0.269719
0.112446
0.0447503
0.0416088
0.0130557
-0.0149683
-0.0775615
-0.0847633
-0.0380542
0.0470359
0.100011
0.904226
5.85579
7.31466
7.88561
53.7608
44.8993
44.7503
41.1057
36.9489
8.4619
-0.273021
0.741424
327.725
54.0234
67.5261
12.9818
-4.60692
-2.3134
-0.756837
-3.45822
-6.03352
-2.41429
-8.22964
4.01759
3.96366
-4.75602
-5.08683
-3.86028
-3.74172
-3.64207
5.45416
3.43167
-0.0771571
-0.0761846
0.203855
0.060907
0.120163
0.0696773
-0.145219
0.238172
0.173914
0.0426897
0.0410841
0.0106532
-0.0184278
-0.0915385
-0.0682255
-0.00837793
0.0892096
0.143306
-0.303804
7.22595
7.50658
3.52621
52.4688
36.0426
36.6187
27.9332
36.8008
6.52253
-1.66862
-1.16093
15.4909
110.236
64.8964
6.70465
-4.50944
-2.35777
-0.765809
-3.45467
-6.09475
-2.25198
-7.32192
4.08027
2.16729
-4.79525
-5.08594
-3.77278
-3.69182
-6.5947
6.36345
3.61306
0.0295098
-0.0525008
0.175387
0.119659
0.142178
0.102861
1.07584
0.167843
0.118884
0.0239617
0.0388857
0.00801995
-0.0223268
-0.106359
-0.136942
0.000263859
0.109629
0.235516
0.603722
6.01708
2.78592
1.15326
51.6324
35.0717
35.9648
27.4272
37.1865
4.10614
-3.37481
-1.10575
18.1085
-165.02
59.6478
3.21912
-4.54286
-2.37112
-0.744744
-3.43788
-6.15924
-2.20512
-2.04607
3.61159
1.26455
-4.65076
-5.14433
-3.67174
-3.68212
4.2873
7.06939
4.27735
-0.309583
-0.045426
0.164985
0.113056
0.0882018
0.0993396
1.39546
0.20316
0.647933
0.0194175
0.0375266
0.00588666
-0.0310559
-0.11808
-0.164572
-0.00363165
0.108741
0.341993
0.434989
1.11073
2.3305
1.56193
50.8957
34.1685
37.396
26.9176
37.0535
2.08559
-10.0707
-1.00267
21.3251
-148.605
39.5412
1.7969
-4.79948
-2.40968
-0.752734
-3.42488
-6.22164
-2.16423
-6.23492
3.52707
4.92461
37.9443
0.648355
-3.57301
-3.14121
-7.49227
7.7355
2.32231
0.337328
-0.0388374
0.152972
-0.141989
0.0840018
0.0880346
0.582169
0.254799
0.190205
0.059546
0.0378907
0.00550718
-0.0364229
-0.107102
0.467558
0.0764666
0.0431324
0.346401
0.610191
0.666392
0.705636
-0.011711
50.2179
33.3212
31.4625
26.1975
38.1611
205.632
-12.0909
-0.419531
23.0274
-125.215
35.0733
1.09867
-4.97798
-2.44491
-0.741919
-3.35129
-6.33749
-2.149
-7.44482
6.2737
1.342
46.4179
2.08808
-3.50553
-3.35946
-9.10361
8.16997
6.31284
2.22424
-0.047555
0.126856
-0.138602
0.093256
0.0572941
0.281173
0.266486
0.103371
0.0230572
0.0375599
0.00600147
-0.0361948
-0.0819617
0.20188
0.11346
0.108461
0.299723
0.402743
0.448807
0.137516
1.16894
49.596
32.551
30.9532
25.5543
36.5891
45.0902
-13.074
0.201187
21.7159
-104.227
493.924
53.2404
-5.33866
-2.48458
-0.705982
-3.30312
-1.9651
-2.20095
-8.16919
5.30391
48.3813
38.7428
2.54407
-3.43532
-3.21751
-10.439
7.92177
7.75821
1.02587
-0.0646797
0.310328
-0.079398
0.0512463
0.038284
0.304245
0.305769
0.543593
0.0662502
0.0358923
0.00627701
-0.0307927
-0.0575731
-0.00137444
0.134574
0.182053
0.299334
0.768471
0.208561
0.329495
0.925572
49.0275
31.8376
30.5812
25.0183
35.9923
52.3074
-12.967
0.546767
16.9777
-84.3228
454.292
-2.29349
2.61772
7.65613
9.05737
-4.49347
-2.36019
-2.15351
-9.00011
5.01005
41.4898
36.9815
1.36281
-3.43803
-3.78385
16.6747
6.80582
4.42425
1.07196
-0.0588219
0.331139
-0.00378413
0.0433123
0.0266068
0.253419
0.205774
0.0220419
-0.0282155
0.0324191
0.00625416
-0.0258532
-0.0447377
0.100094
0.0760982
0.170921
0.335038
0.771746
0.263345
0.556266
0.856676
48.5105
31.1905
33.8139
24.4872
35.9147
51.9121
-11.2641
1.08591
14.0546
-69.0041
409.166
-0.389955
0.723518
-0.387316
-0.662739
-4.47088
3.59575
1.74813
45.1334
4.55952
39.8912
35.6589
0.10682
-3.6339
-3.76384
8.28554
6.79399
3.59467
2.41755
-0.057452
0.325248
-0.00281326
0.0397484
0.0103276
0.1949
0.118355
0.0424186
-0.0262876
0.0300127
0.00665158
-0.0233726
-0.0373558
0.109545
0.0193256
0.16128
0.331176
0.539575
0.856293
0.729886
1.45016
47.4102
30.39
27.044
23.9697
35.8837
35.9806
-9.01154
1.29625
12.9664
-58.5434
506.731
0.640403
0.805842
-0.391582
-0.600978
-4.4308
5.71482
0.00440708
36.548
4.31337
37.7437
33.6142
-0.492257
-3.99966
-2.64054
7.08451
11.9882
6.75303
0.167787
-0.0555538
0.298306
0.0173226
0.0178361
0.0236392
0.179549
0.135301
0.0586418
-0.0122164
0.0293954
0.00732095
-0.0219794
-0.0313564
0.0908472
-0.00720847
0.285309
0.297043
0.562341
1.23994
0.801067
1.59936
0.21812
0.252037
0.28066
0.302497
0.317527
0.327268
0.334469
0.339031
0.336974
0.342732
0.259641
5.08819
59.5157
61.8436
56.9791
45.2347
37.6484
2.24358
-1.24976
-1.70252
-1.90046
-1.59562
-1.52584
-1.21918
-1.41847
-1.67058
-1.87128
-1.92156
-2.5634
-4.13512
-2.18501
-0.0357749
-4.30865
-6.70631
-2.75225
-7.56045
-17.7246
1.5352
14.0212
0.895595
22.6027
33.9128
-103.259
44.0931
107.554
43.376
63.5044
72.696
70.6865
53.5709
0.215784
0.251359
0.281039
0.303084
0.317637
0.327446
0.33592
0.3426
0.346248
0.353396
0.678225
14.6235
56.9634
72.8631
68.0296
47.8308
30.022
3.5922
-1.3052
-2.11201
-1.927
-1.59533
-1.52036
-1.43828
-1.40819
-1.67686
-1.89119
-1.92786
-2.5817
-4.17065
-1.80835
0.11121
-3.40956
-6.62199
-3.16914
-7.70094
-18.1866
-9.12649
6.88191
-0.215846
31.0992
36.5434
-105.252
37.968
116.655
41.7432
61.4962
70.8303
68.8747
51.6507
0.201919
0.245103
0.278671
0.300839
0.314842
0.323501
0.330251
0.336878
0.341731
0.346064
0.390909
38.4608
63.4852
65.7375
61.1929
57.4841
36.6044
10.9705
-1.61166
-2.10526
-1.81942
-1.60509
-1.62805
-1.44609
-1.38875
-1.70569
-1.42261
-1.90174
-2.6149
-4.01231
-0.628136
0.373927
-5.04791
-5.10188
-1.24524
-8.45579
-18.6586
-9.0079
5.44734
-0.812082
32.3459
40.1803
-106.366
41.8107
117.482
38.3196
59.5503
69.3771
67.2226
49.6671
0.192578
0.24259
0.281219
0.304557
0.317828
0.324703
0.330485
0.336818
0.337948
0.347665
0.785276
46.4138
65.0763
61.5032
57.2017
56.8394
36.2698
9.16318
-1.77532
-2.6171
-2.02504
-1.69602
-1.53548
-1.47811
-1.35055
-0.653355
-1.44895
-1.5944
-2.69495
-4.04294
-3.06792
-0.489723
-5.21016
-5.89239
-1.16025
2.28042
-19.4024
-9.04421
0.975398
0.0631097
30.9228
41.1246
-107.859
1.0985
116.602
35.8759
57.8312
67.9776
65.7822
47.7266
0.189566
0.239577
0.286983
0.3109
0.32282
0.327274
0.333154
0.336982
0.336395
0.343742
1.38301
49.6794
61.4154
58.6206
54.5135
55.2885
50.7633
4.08955
-1.81961
-2.69766
-2.04367
-1.7732
-1.46021
-0.96293
-1.31666
-1.17258
-1.06654
-1.51465
-2.87145
-4.34212
-1.87271
-0.49452
-4.84663
-7.02097
-2.16636
-0.445555
-9.68738
-9.79775
5.26773
1.92349
72.7654
42.0651
-109.367
-15.324
121.143
33.5743
56.0217
66.5731
64.4267
45.8388
0.18077
0.251602
0.302934
0.324779
0.334307
0.332877
0.335378
0.340453
0.337814
0.3504
1.6526
45.8516
58.2475
57.2235
54.2465
54.1724
51.5322
0.189562
-1.88425
-2.6999
-2.17493
-1.81347
-1.50327
-1.33252
-1.29587
-0.965267
-1.06971
-1.31076
-2.75649
-2.01344
-2.74997
-0.5004
-4.8375
3.89977
-2.74016
-1.71498
-12.1199
-1.64513
71.4505
3.93868
49.8777
42.8758
-111.184
64.8607
122.727
31.2088
61.9789
65.3252
63.199
44.0033
0.836964
0.293747
0.323362
0.339275
0.346149
0.34116
0.338728
0.343072
0.342084
0.361698
0.598714
39.7155
55.0818
56.2137
54.1857
52.1004
48.0928
2.66264
-1.91724
-2.99582
-2.34347
-1.95788
-1.39134
-1.31809
-1.28251
-1.1945
-0.615437
-1.13368
-1.90095
-4.45336
-2.90232
-1.9912
-4.87441
0.953392
-2.35722
-1.8589
-12.8835
-9.47568
9.69169
5.77646
50.422
49.2207
-101.768
-45.6027
123.847
42.8974
58.3142
64.1939
62.097
42.2274
3.27462
0.295312
0.329523
0.353715
0.357331
0.344254
0.338659
0.341842
0.349541
0.374941
0.21469
30.4503
52.0449
55.3343
54.2773
50.8048
48.0723
5.19323
-1.882
-3.2915
-0.52694
-1.19401
-1.39767
-1.3004
-1.27212
-1.06463
2.2265
-0.885028
-1.81121
-4.83498
-2.81402
-1.45079
-0.733917
0.941392
-2.58735
-1.90289
-13.2234
-5.73228
39.4978
10.3727
51.8528
20.1293
-116.902
98.1033
160.477
29.564
56.9809
63.1862
61.1209
40.5302
4.6968
0.272652
0.342327
0.364856
0.366137
0.347052
0.335128
0.337032
0.349866
0.382289
0.363842
17.9023
49.0203
54.6067
54.3504
49.7229
47.957
9.50193
-1.79864
-1.71905
-1.70399
-1.45236
-1.37779
-1.16923
-1.32191
-1.32211
1.70522
-0.504389
-1.85391
-5.21428
-2.8907
-1.22733
-0.208882
0.860877
-1.87839
-1.90051
-13.783
-6.29394
24.2493
15.0742
52.696
22.4556
-114.531
90.8107
163.011
33.9796
55.6758
62.2618
60.3064
38.9044
2.18957
0.327936
0.354162
0.372689
0.368326
0.345021
0.328763
0.341681
0.393563
0.384807
0.359827
8.12101
45.9914
53.8631
54.1356
48.743
49.4054
9.463
-1.69029
-2.6361
-1.6587
-1.60416
-1.34914
-1.17565
-1.0593
-1.3315
1.01677
11.892
-2.07107
-5.55299
-2.96034
-3.9755
0.532342
1.02537
-2.74251
-1.82327
-14.3586
-6.92665
26.6396
17.5509
53.129
24.111
-119.581
-3.6046
139.797
31.191
54.4158
61.2957
59.4412
37.3687
1.15711
0.361332
0.353496
0.369606
0.365372
0.343017
0.323992
0.392197
0.390107
0.398769
0.392258
3.16248
42.5136
53.4762
53.8014
47.5382
51.8996
15.3318
-1.12553
1.67971
-1.75181
-1.57583
-1.32931
-1.1554
-1.17088
-1.27864
4.59702
3.11838
0.749063
-5.90935
-2.99935
-0.0446051
0.903819
1.04069
-2.66096
-1.68734
-14.7937
-7.29716
36.2677
21.95
53.2514
23.0051
337.995
-28.1003
144.164
28.7467
53.1936
65.6374
58.8283
43.1679
0.4111
0.354972
0.338423
0.356496
0.357641
0.337778
0.328097
0.345729
0.380612
0.411545
0.392475
2.39385
39.6925
53.8131
53.5235
46.3514
51.6811
10.853
-0.349013
-0.358191
-1.82783
-1.6317
-1.31269
-1.14719
-1.11189
-1.09363
-1.53692
3.77405
-0.689117
-6.52061
-2.07941
1.02
2.45817
1.12298
-2.72533
-1.70013
-15.2796
-10.3822
46.0105
22.5037
51.4887
21.6653
115.81
-55.2909
150.377
52.3681
52.4255
58.7601
54.4286
39.8962
0.385078
0.3242
0.30659
0.335044
0.345006
0.32973
0.317483
0.329894
0.388174
0.423084
0.402877
1.59268
32.8313
54.8689
53.5158
45.4288
54.5884
7.30617
-0.1185
-0.0268389
-1.91795
-1.67955
-1.28686
-1.14262
-1.07045
-0.887055
-1.24377
2.19889
-0.0727224
10.7761
-2.56476
1.15958
4.241
1.06281
-3.22709
-1.74133
-15.6858
-7.86248
47.5271
24.1779
81.6221
45.8475
115.76
-89.9721
156.999
38.7369
71.0072
61.0741
55.1253
38.6026
0.416503
0.278517
0.260851
0.308411
0.330272
0.321403
0.309655
0.31789
0.336022
0.413585
0.377567
2.81578
26.2589
56.2049
53.9127
44.5834
54.9261
5.76051
0.382604
1.10403
-2.07631
-1.70158
-1.27284
-1.12317
-1.09183
-1.52216
-0.470726
2.86839
-1.04964
2.95613
-1.93515
9.99891
4.83602
0.816638
-3.67912
4.03311
-16.3155
-4.3908
54.8361
26.1834
44.1782
45.8717
143.653
-129.894
162.405
88.1528
16.4404
60.4596
54.6681
37.4643
0.22455
0.240197
0.224384
0.284261
0.315843
0.313127
0.305263
0.307019
0.374945
0.39737
0.313813
2.96273
26.3305
57.0528
54.5825
42.6708
45.713
-6.9918
-0.879926
1.09877
-2.20405
-1.70642
-1.2556
-1.11458
-1.07023
-0.690858
-0.0525451
3.30231
-0.836825
16.0002
-2.00219
-2.12312
6.26824
1.99199
-3.88419
3.16568
-17.6815
-0.199846
54.2808
20.4846
44.075
16.0006
156.74
-167.923
167.276
59.4751
15.6732
67.6921
53.9353
36.364
0.156645
0.2198
0.207318
0.266497
0.303176
0.305638
0.301202
0.299544
0.394314
0.382354
0.297807
-0.171693
27.2886
52.5747
55.1032
40.5769
9.87526
1.15185
31.0562
8.64979
-2.32153
-1.70274
-1.23568
-1.10701
-1.07191
-1.91461
-0.298027
-3.08778
-0.794441
10.9819
3.06053
-1.75338
12.9542
2.17825
-3.6444
5.95339
-20.628
3.99462
57.1274
20.5362
43.7261
19.1645
916.338
-204.303
215.295
154.212
4.51051
31.9963
58.5501
35.3356
0.201993
0.174993
0.193074
0.253543
0.292637
0.299547
0.298826
0.300443
0.39362
0.299669
0.309479
0.112619
16.5554
45.9931
55.4026
37.2177
0.671937
13.7799
21.4558
8.56475
3.48237
-1.70467
-1.2013
-1.1207
-1.02824
-1.78222
-0.294979
-2.74062
-3.2138
10.3063
3.0981
-0.865757
-1.46475
1.73062
-3.33311
6.00133
110.507
169.603
59.1766
63.2967
46.9158
22.5153
696.699
548.314
221.476
65.5972
48.2772
34.4784
61.2357
34.3712
0.124189
0.122305
0.176183
0.24409
0.284077
0.294475
0.297406
0.300321
0.390805
0.396065
0.326243
0.775864
3.17909
41.1945
54.7652
41.6457
5.94937
23.3036
15.3731
2.77945
-0.0996278
-1.69273
-1.16665
-1.13426
-1.02236
1.02313
-0.263081
-2.37357
2.01496
9.61006
3.1153
0.260877
-1.20842
1.19916
-3.15987
11.1615
12.5733
135.4
81.715
48.8441
48.8091
24.5609
707.493
549.268
226.048
64.3561
26.9279
26.0457
60.8311
33.4898
0.0486002
0.0956933
0.166153
0.237792
0.277178
0.290199
0.296106
0.299569
0.381474
0.433318
0.332152
0.733951
1.98551
33.6902
52.8933
40.0201
4.86248
6.31738
29.6899
3.8547
-0.278853
-1.66605
-1.1477
-1.12754
-1.1611
0.440534
-0.287171
-2.03451
2.10534
8.92391
3.09853
-0.00305186
-0.527656
1.15863
3.15
-5.86418
11.6108
210.315
89.7526
236.741
48.8906
17.1255
762.439
533.058
230.343
63.1857
26.3113
25.5918
60.5766
32.6716
0.0674181
0.0936854
0.165995
0.234109
0.271576
0.286512
0.294622
0.298282
0.378227
0.324863
0.349918
0.601982
3.00183
21.0295
51.2105
21.5152
3.12611
4.52052
9.57875
3.47269
-0.316013
-1.61074
-1.04295
-1.10603
-1.17721
0.0110337
-0.381779
-1.73231
2.14987
8.53307
3.06815
0.391884
-0.0294643
1.05051
-0.576822
-5.2166
10.831
153.438
91.4537
15.4394
50.0265
16.0674
268.687
570.218
246.692
65.5369
25.7083
25.3569
60.3679
31.7236
8.77063
16.298
27.0165
22.7691
42.9486
24.3615
-2.26269
1.63979
10.4617
-33.0329
76.251
1.72726
0.586515
-0.395619
-0.534924
-4.26187
4.75851
0.192095
20.2828
4.86358
32.4319
28.8613
2.47123
-4.6941
-4.26669
5.01576
-10.98
-2.94348
-0.00944811
-0.0666587
0.276712
0.0408274
-0.0631653
0.014497
0.108667
0.190744
0.0705118
-0.00010303
0.0275325
0.00874486
-0.018605
-0.0172656
0.0543739
-0.000805037
0.34932
-0.00689905
0.208847
-0.019855
0.389989
-0.142456
7.27715
17.785
24.6172
21.1215
16.872
20.3876
-1.70292
1.67632
7.38607
-9.56532
8.19045
2.01423
0.51608
-0.355335
-0.722799
-4.14028
7.08713
1.73819
18.9982
2.65679
25.9003
12.7673
-1.84377
-4.53655
-3.19644
2.60654
-4.12994
0.37065
-0.143589
0.0589929
0.315477
0.0559804
0.0087556
-0.015131
0.0515339
-0.0230522
-0.00526368
-0.00527026
0.0110528
0.0107382
-0.0181346
-0.00827559
0.0260279
-0.0265358
0.31308
0.108596
0.202822
0.179156
0.158628
0.146607
5.68855
15.9924
17.7438
19.2746
16.7912
15.2331
-1.45069
1.54307
5.50553
0.487276
0.846615
1.77003
1.38744
-0.284644
-0.763426
6.12776
4.65154
-0.394768
8.90351
3.17542
16.5938
11.11
-5.31564
-3.91087
-2.55013
-1.09333
-1.11834
-1.40868
-0.167851
-0.115846
-0.000903559
0.0326207
0.0887993
-0.0361886
0.0197925
-0.0141243
0.0161106
-0.044053
0.0272334
0.0460115
-0.0186462
0.00406149
0.00654193
-0.0307511
0.313365
0.240208
0.169045
0.214366
0.221506
0.227032
3.89194
13.1184
16.0002
17.2907
16.1848
7.02311
-0.0725435
1.21621
5.26749
1.66707
2.67428
1.61788
1.11289
-0.237557
-1.05732
-1.05382
1.16291
3.49396
7.27213
-0.210557
4.21459
1.01718
-8.85995
-4.04307
-2.61681
-0.684608
0.883072
0.47268
-0.193177
-0.0879708
-0.0205651
-0.0357262
-0.0395019
0.253383
0.0134166
-0.0248324
-0.00297726
0.00742232
0.0314505
0.0985634
0.0648405
0.0169259
0.0126192
-0.0171802
0.288712
0.241023
0.177427
0.210012
0.236641
0.242147
1.92741
13.0396
13.9072
15.3283
15.1491
-3.30782
0.0984647
1.42348
7.2362
-2.66038
1.32915
1.44337
0.909487
-0.180593
-1.12675
2.03958
1.2583
3.39255
5.50013
-0.00537213
1.05373
-0.0888054
-0.458789
-4.51386
-3.39426
1.05305
1.07691
-0.324002
-0.115289
-0.0747233
-0.0217197
-0.0342875
-0.0658173
-0.0719457
-0.0320691
-0.0319349
-0.0515599
-0.0242973
-0.0154839
-0.0168529
-0.0322432
0.00979461
0.0238936
0.0146552
0.240238
0.224473
0.189654
0.180457
0.226686
0.262699
3.7093
10.3999
11.6803
14.1244
13.9326
-4.59906
0.215808
1.28785
-1.13081
-12.5622
0.739654
1.26344
0.752974
-0.0982292
-0.67223
-0.585851
1.06014
0.724497
1.87981
0.497648
1.23842
0.288467
-2.22143
-4.47335
-3.21089
1.04629
1.31099
-0.279818
-0.113417
-0.0921759
-0.109284
-0.0766416
-0.0757412
-0.0781195
-0.0537374
-0.0474602
-0.0649289
-0.0583935
-0.0519272
-0.0422614
-0.0280378
0.00369531
0.0260251
0.117436
0.214348
0.219254
0.209929
0.141002
0.200267
0.23227
1.53347
7.58452
7.80445
11.353
12.2244
-3.14982
0.206764
0.991724
-0.115079
-8.50708
0.605089
1.16947
0.675859
-0.0220428
-0.0405949
0.150866
0.854255
6.75479
0.407993
0.565467
1.09211
0.344134
-0.853792
-4.09101
-2.40583
0.817011
2.18217
0.588297
-0.152729
-0.126259
-0.034096
-0.0962617
-0.0864586
-0.0811018
-0.0636698
-0.0548305
-0.0628154
-0.0644264
-0.0615735
-0.052778
-0.0359062
-0.00803655
0.0480102
0.223133
0.23146
0.186624
0.133267
0.109795
0.151289
0.172583
6.01974
6.19013
5.91897
10.0575
10.3605
0.687225
0.186848
1.06043
1.20062
-4.87425
0.656325
1.06265
1.25184
0.107297
0.296122
-0.101164
0.704477
0.705644
0.53525
0.688597
0.971367
0.355935
-0.55798
-3.35657
-1.58089
0.818245
2.77494
0.632703
-0.148333
-0.122964
-0.11348
-0.108454
-0.0904825
-0.0843532
-0.0719665
-0.0636267
-0.067877
-0.0739015
-0.0760944
-0.0693046
-0.0511206
-0.0211893
0.0360141
0.281299
0.281876
0.101449
0.058094
0.0800737
0.110829
0.128058
4.54531
3.226
3.54331
7.77116
8.45696
1.13806
0.209459
1.10148
0.737532
-2.00142
0.393106
0.967766
0.611052
0.234618
1.59478
0.0955886
0.479255
0.513481
0.639342
0.690157
0.885233
0.317844
0.28366
1.59482
-0.102594
1.03301
2.84395
0.00773112
-0.145958
-0.190456
-0.137379
-0.105361
-0.0925591
-0.0880288
-0.0798157
-0.0738482
-0.0781517
-0.0885221
-0.0961481
-0.092611
-0.0752942
-0.0479215
-0.0216845
0.252924
0.420174
0.0357201
0.0278828
0.0518792
0.0798655
0.101172
1.96206
0.836685
1.06404
4.27269
9.26932
2.09642
0.17415
0.836485
0.179754
-1.67386
0.393187
0.874481
0.444792
0.313163
0.444944
-0.00492237
0.429764
0.477252
0.626751
0.69521
0.840022
0.260076
-0.751865
2.83851
-0.0490394
0.631263
3.43853
0.174425
-0.158622
-0.156467
-0.124469
-0.105996
-0.0960902
-0.0933765
-0.0892578
-0.086793
-0.0936389
-0.108663
-0.122088
-0.123757
-0.110421
-0.0887775
-0.0732477
-0.0363633
0.0710059
0.00211655
-0.00453228
0.021156
0.0445524
0.0642956
0.248989
0.10725
0.146445
0.949084
3.06209
1.64363
0.12192
0.788032
0.155899
-0.783468
0.392308
0.787401
0.583434
0.329384
1.0191
0.0892183
0.376641
0.442427
0.613669
0.693657
0.886976
0.202735
-2.31567
-1.26444
-0.624353
0.501687
2.32444
0.31399
-0.18097
-0.149601
-0.13371
-0.107862
-0.10105
-0.100113
-0.0995715
-0.101366
-0.11241
-0.132905
-0.152825
-0.16063
-0.151784
-0.131485
-0.105988
-0.0815186
-0.053409
-0.0304951
-0.00622117
-0.00588206
0.00897007
0.0248091
-0.0329265
-0.0156376
-0.0112523
-0.0170772
0.101769
-0.201101
0.0886935
0.271203
0.182852
0.0348205
0.399573
0.71457
0.509453
0.280395
-0.0713993
0.121323
0.350521
0.426084
0.595621
0.674462
0.980565
0.599933
-1.80789
-1.05835
-0.0503958
-0.0792076
-0.0262558
-0.304234
-0.219343
-0.177884
-0.11181
-0.11172
-0.106793
-0.107555
-0.1102
-0.116489
-0.132348
-0.158232
-0.184584
-0.198264
-0.193548
-0.17443
-0.1472
-0.120079
-0.0918954
-0.0665259
-0.0458276
-0.0420689
-0.0365247
-0.0277501
-0.0334831
-0.0173427
-0.0144464
-0.0220905
-0.0220689
-0.1879
0.109959
0.274585
0.187574
-0.0613804
0.347637
0.638172
0.460383
0.200373
0.00267116
0.139756
0.322571
0.423584
0.56256
0.630999
1.12695
1.31511
-2.58322
-0.639304
0.0369442
0.0876192
-0.038195
-0.255965
-0.245958
-0.161682
-0.112203
-0.115359
-0.112387
-0.115233
-0.121334
-0.131445
-0.151113
-0.180597
-0.211573
-0.230346
-0.229913
-0.213696
-0.189205
-0.162325
-0.135293
-0.11326
-0.0985568
-0.0900503
-0.0831116
-0.0690233
-0.0390376
-0.0273014
-0.0230298
-0.0288363
-0.0226271
-0.178553
0.044708
0.147749
0.185289
-0.12939
0.261163
0.568146
0.460533
0.17745
0.0480366
0.145011
0.31047
0.420067
0.51275
0.578448
0.220853
1.796
-0.255022
-0.541075
-0.0927061
-0.0236438
-0.0810127
-0.235324
-0.255189
-0.173734
-0.133073
-0.120439
-0.11851
-0.123342
-0.133349
-0.145468
-0.166892
-0.196862
-0.229713
-0.251763
-0.255005
-0.241832
-0.220682
-0.197729
-0.176444
-0.160421
-0.15167
-0.149807
-0.150719
-0.149055
-0.0372926
-0.0166935
-0.0276597
-0.0437197
-0.028209
-0.173898
0.0725898
0.188899
0.00893759
-0.243229
0.26677
0.475432
0.331057
0.17905
0.0782439
0.143551
0.311361
0.442562
0.483791
0.537667
1.11743
1.96548
0.802825
0.584998
-0.12646
-0.0403994
-0.0979903
-0.234533
-0.250366
-0.167395
-0.141651
-0.126339
-0.124259
-0.129472
-0.145159
-0.155755
-0.179629
-0.206675
-0.238017
-0.261258
-0.268899
-0.258982
-0.24059
-0.221679
-0.205962
-0.195562
-0.191444
-0.19227
-0.19305
-0.189352
-0.047289
-0.0194544
-0.0324242
-0.0618134
-0.0332634
-0.168071
-0.0109804
0.371713
0.0109647
-0.26013
0.253045
0.629175
0.485722
0.177845
0.101516
0.150647
0.357375
0.486768
0.502828
0.483227
0.951153
1.84608
1.02258
0.727523
-0.11738
-0.0559325
-0.0888516
-0.276002
-0.22125
-0.169874
-0.143488
-0.129662
-0.126226
-0.13177
-0.100757
-0.132846
-0.188774
-0.210522
-0.237146
-0.26363
-0.275255
-0.274192
-0.259509
-0.242979
-0.228102
-0.217185
-0.209816
-0.204163
-0.197609
-0.191832
-0.0514791
-0.0449317
-0.039113
-0.0670501
-0.0393507
-0.161781
-0.0119241
-0.11142
0.00794222
0.0485526
0.241552
0.351015
0.339594
0.184408
0.1223
0.148291
0.433426
0.465046
0.495687
0.537493
1.45895
1.62591
0.44982
-0.0223582
-0.0952596
-0.0858022
0.0491414
-0.0228604
-0.183681
-0.166723
-0.143089
-0.128782
-0.12094
-0.11516
-0.070532
0.0562235
-0.154855
-0.204341
-0.22712
-0.259498
-0.281858
-0.290791
-0.286207
-0.275497
-0.263941
-0.25257
-0.237842
-0.220176
-0.197088
-0.172587
-0.0558526
-0.0508908
-0.0468552
-0.0714899
-0.0443065
-0.15621
-0.0182335
-0.124002
-0.00454467
0.0104918
0.235861
0.315377
0.237246
0.14474
0.134258
0.0900962
0.495931
0.362167
0.422048
0.250498
1.48019
1.61953
-0.568036
-0.000695708
-0.0531769
-0.0801426
0.12932
-0.0205754
-0.184386
-0.157897
-0.141074
-0.128709
-0.116744
-0.0970572
-0.0429957
0.0125833
-0.106089
-0.192333
-0.201971
-0.240344
-0.246098
-0.255825
-0.305856
-0.311891
-0.315737
-0.315578
-0.313228
-0.30974
-0.313075
-0.32378
-0.0606057
-0.0554604
-0.0550292
-0.0744507
-0.0526615
-0.15222
-0.026871
-0.107097
0.00770574
-0.0340752
0.228177
0.274825
0.233898
0.158519
0.140867
0.207209
0.457626
0.289907
0.357426
0.40306
-0.134003
1.31948
-0.316069
-0.00582156
-0.0404651
-0.0568604
0.10199
-0.141148
-0.15943
-0.146918
-0.140407
-0.134516
-0.130031
-0.0602634
0.0189143
0.0111613
-0.0714907
-0.17721
-0.169361
-0.208425
-0.199359
-0.231408
-0.284575
-0.302958
-0.318827
-0.329954
-0.334976
-0.335407
-0.336304
-0.334532
-0.0656392
-0.0605341
-0.0619007
-0.0795315
-0.0580763
-0.148128
-0.0337405
-0.139394
0.00753613
-0.02947
0.180454
0.236908
0.20993
0.0996822
0.0835443
0.240576
0.275694
0.217959
0.296222
0.383971
0.779375
0.039731
-0.173638
-0.0781218
-0.0666498
-0.0833417
0.139056
-0.142374
-0.150419
-0.14348
-0.141161
-0.140108
-0.138131
-0.0783629
0.0327508
0.0086566
-0.130943
-0.16769
-0.16896
-0.185553
-0.187559
-0.199053
-0.222502
-0.243084
-0.253421
-0.261644
-0.267486
-0.269202
-0.269555
-0.271776
-0.0709269
-0.065428
-0.0673806
-0.0829075
-0.0632707
-0.143571
-0.0403025
-0.116898
0.00856706
-0.0318138
0.139213
0.204918
0.185256
0.137334
0.149214
0.133301
0.144467
0.128617
0.192676
0.110315
2.5219
-0.627744
-0.0885683
-0.0802847
-0.0906199
0.0393039
0.1516
-0.12478
-0.144948
-0.142714
-0.141844
-0.141664
-0.139772
-0.141727
-0.111518
-0.015056
-0.182416
-0.172013
-0.171848
-0.177655
-0.184462
-0.18681
-0.177127
-0.190304
-0.193582
-0.191911
-0.193018
-0.192777
-0.191774
-0.189871
-0.0764285
-0.0704665
-0.073257
-0.0865501
-0.0682552
-0.140522
-0.0469185
-0.123757
0.00915774
-0.0336565
0.134616
0.179444
0.153004
0.111668
0.478371
0.151512
0.12103
0.11947
0.133169
0.105424
1.93861
-0.0144719
-0.0750255
-0.0886582
-0.10061
0.0781133
-0.0588446
-0.134135
-0.140784
-0.141908
-0.142427
-0.142492
-0.141642
-0.143702
-0.134952
-0.121738
-0.162841
-0.161508
-0.162784
-0.166388
-0.168379
-0.165735
-0.17305
-0.180934
-0.147485
-0.151618
-0.158286
-0.155764
-0.154601
-0.152912
-0.0821316
-0.075719
-0.0793178
-0.0901643
-0.0732312
-0.136669
-0.0533945
-0.113386
8.72676e-05
-0.0366586
0.121359
0.152893
0.137209
0.102019
0.162415
0.0321805
0.0794109
0.0430558
-0.0195853
1.59785
1.3147
0.0284635
-0.0693842
-0.085803
-0.103336
-0.109675
-0.108478
-0.128688
-0.137962
-0.141934
-0.143787
-0.143858
-0.143478
-0.142415
-0.140091
-0.144991
-0.147626
-0.150553
-0.152802
-0.157216
-0.164487
-0.16116
-0.1415
-0.131461
-0.153687
-0.125117
-0.124747
-0.134955
-0.136093
-0.135301
-0.0880293
-0.0812027
-0.0854661
-0.0940289
-0.0785473
-0.132689
-0.0605795
-0.1164
-0.0120617
-0.0408119
0.0965851
0.133458
0.118172
0.112012
0.0330522
0.0299535
0.048733
0.0143996
-0.123039
0.92794
0.121804
0.00486144
-0.0554156
-0.0794138
-0.09667
-0.105324
-0.109873
-0.12666
-0.138149
-0.14393
-0.146076
-0.146395
-0.146179
-0.144126
-0.142778
-0.143957
-0.144496
-0.146556
-0.150467
-0.152209
-0.080203
0.0234867
-0.129465
-0.0793539
-0.0904736
-0.118151
-0.104769
-0.108131
-0.116851
-0.122219
-0.0941217
-0.0869634
-0.0916589
-0.0981635
-0.0843306
-0.129532
-0.0689166
-0.112588
-0.0270351