/*--------------------------------*- C++ -*----------------------------------*\
| =========                 |                                                 |
| \\      /  F ield         | OpenFOAM: The Open Source CFD Toolbox           |
|  \\    /   O peration     | Version:  2.4.0                                 |
|   \\  /    A nd           | Web:      www.OpenFOAM.org                      |
|    \\/     M anipulation  |                                                 |
\*---------------------------------------------------------------------------*/
FoamFile
{
    version     2.0;
    format      ascii;
    class       volScalarField;
    location    "1.2";
    object      p;
}
// * * * * * * * * * * * * * * * * * * * * * * * * * * * * * * * * * * * * * //

dimensions      [1 -1 -2 0 0 0 0];

internalField   nonuniform List<scalar> 
2400
(
1913.67
1913.68
1913.7
1913.73
1913.76
1913.81
1913.86
1913.93
1914
1914.09
1914.18
1914.29
1914.4
1914.53
1914.66
1914.81
1914.96
1915.11
1915.26
1915.41
1815.57
1815.58
1815.6
1815.62
1815.66
1815.7
1815.76
1815.82
1815.9
1815.98
1816.08
1816.18
1816.3
1816.43
1816.56
1816.7
1816.85
1817.01
1817.16
1817.31
1717.47
1717.47
1717.49
1717.52
1717.55
1717.6
1717.65
1717.72
1717.79
1717.88
1717.97
1718.08
1718.19
1718.32
1718.46
1718.6
1718.75
1718.91
1719.06
1719.21
1619.36
1619.37
1619.38
1619.41
1619.45
1619.49
1619.55
1619.61
1619.68
1619.77
1619.86
1619.97
1620.09
1620.21
1620.35
1620.5
1620.65
1620.81
1620.97
1621.12
1521.25
1521.26
1521.28
1521.3
1521.34
1521.38
1521.44
1521.5
1521.57
1521.66
1521.75
1521.86
1521.98
1522.11
1522.24
1522.39
1522.55
1522.71
1522.87
1523.03
1423.14
1423.15
1423.16
1423.19
1423.22
1423.27
1423.32
1423.39
1423.46
1423.54
1423.64
1423.75
1423.86
1423.99
1424.13
1424.28
1424.44
1424.61
1424.77
1424.94
1325.02
1325.03
1325.05
1325.08
1325.11
1325.15
1325.21
1325.27
1325.34
1325.43
1325.52
1325.63
1325.75
1325.88
1326.02
1326.17
1326.33
1326.5
1326.68
1326.85
1226.91
1226.92
1226.93
1226.96
1226.99
1227.04
1227.09
1227.15
1227.23
1227.31
1227.4
1227.51
1227.63
1227.76
1227.9
1228.06
1228.23
1228.4
1228.58
1228.77
1128.79
1128.8
1128.81
1128.84
1128.87
1128.92
1128.97
1129.03
1129.1
1129.19
1129.28
1129.39
1129.51
1129.64
1129.79
1129.94
1130.11
1130.3
1130.49
1130.68
1030.67
1030.68
1030.69
1030.72
1030.75
1030.79
1030.85
1030.91
1030.98
1031.06
1031.16
1031.26
1031.38
1031.52
1031.66
1031.82
1032
1032.19
1032.39
1032.6
932.546
932.554
932.571
932.595
932.628
932.67
932.721
932.782
932.853
932.935
933.028
933.135
933.254
933.388
933.537
933.701
933.882
934.079
934.291
934.515
834.422
834.43
834.445
834.469
834.502
834.543
834.593
834.653
834.723
834.804
834.897
835.002
835.122
835.256
835.407
835.575
835.76
835.965
836.188
836.428
736.295
736.303
736.318
736.341
736.373
736.413
736.462
736.521
736.59
736.67
736.761
736.866
736.986
737.121
737.273
737.443
737.634
737.846
738.081
738.338
638.166
638.174
638.189
638.212
638.242
638.281
638.329
638.387
638.454
638.533
638.623
638.727
638.846
638.981
639.134
639.307
639.502
639.722
639.969
640.243
540.036
540.043
540.057
540.079
540.109
540.147
540.194
540.25
540.316
540.392
540.481
540.584
540.701
540.836
540.99
541.164
541.364
541.591
541.85
542.142
441.903
441.91
441.924
441.945
441.974
442.011
442.056
442.11
442.174
442.249
442.336
442.437
442.553
442.687
442.84
443.016
443.218
443.452
443.723
444.032
343.769
343.776
343.789
343.81
343.837
343.873
343.916
343.968
344.03
344.103
344.187
344.286
344.4
344.532
344.685
344.861
345.065
345.304
345.586
345.909
245.633
245.639
245.652
245.672
245.698
245.732
245.774
245.824
245.884
245.953
246.035
246.131
246.242
246.373
246.524
246.699
246.903
247.148
247.439
247.771
147.499
147.505
147.517
147.536
147.561
147.593
147.633
147.681
147.738
147.805
147.883
147.975
148.084
148.211
148.36
148.531
148.733
148.984
149.28
149.605
49.3365
49.3418
49.3529
49.3701
49.3934
49.4231
49.4596
49.5035
49.5556
49.6168
49.6885
49.7732
49.875
49.9981
50.1458
50.3198
50.5279
50.7777
51.0882
51.505
1915.51
1915.57
1915.63
1915.69
1915.74
1915.78
1915.81
1915.84
1915.85
1915.86
1915.86
1915.85
1915.83
1915.8
1915.77
1915.72
1915.67
1915.61
1915.55
1915.48
1817.41
1817.48
1817.54
1817.59
1817.64
1817.68
1817.72
1817.75
1817.76
1817.77
1817.77
1817.76
1817.74
1817.71
1817.68
1817.63
1817.58
1817.52
1817.45
1817.38
1719.32
1719.39
1719.45
1719.5
1719.56
1719.6
1719.64
1719.66
1719.68
1719.69
1719.69
1719.68
1719.66
1719.63
1719.59
1719.54
1719.49
1719.43
1719.36
1719.29
1621.23
1621.3
1621.36
1621.42
1621.48
1621.52
1621.56
1621.59
1621.61
1621.62
1621.62
1621.61
1621.59
1621.56
1621.52
1621.47
1621.41
1621.35
1621.28
1621.2
1523.14
1523.22
1523.28
1523.35
1523.4
1523.45
1523.49
1523.52
1523.55
1523.56
1523.56
1523.55
1523.52
1523.49
1523.45
1523.4
1523.34
1523.27
1523.2
1523.12
1425.06
1425.14
1425.21
1425.28
1425.34
1425.39
1425.44
1425.47
1425.49
1425.51
1425.51
1425.49
1425.47
1425.44
1425.39
1425.33
1425.27
1425.2
1425.12
1425.04
1326.98
1327.06
1327.14
1327.21
1327.28
1327.34
1327.39
1327.43
1327.45
1327.47
1327.47
1327.45
1327.43
1327.39
1327.34
1327.28
1327.21
1327.13
1327.05
1326.96
1228.91
1228.99
1229.08
1229.16
1229.23
1229.29
1229.35
1229.39
1229.42
1229.44
1229.44
1229.43
1229.4
1229.36
1229.3
1229.24
1229.16
1229.08
1228.99
1228.89
1130.83
1130.93
1131.02
1131.11
1131.19
1131.26
1131.32
1131.37
1131.41
1131.43
1131.43
1131.42
1131.38
1131.34
1131.27
1131.2
1131.12
1131.02
1130.92
1130.82
1032.76
1032.86
1032.97
1033.06
1033.15
1033.24
1033.31
1033.37
1033.41
1033.43
1033.44
1033.42
1033.38
1033.33
1033.26
1033.17
1033.08
1032.98
1032.87
1032.75
934.687
934.802
934.915
935.025
935.128
935.223
935.306
935.375
935.426
935.455
935.462
935.444
935.402
935.339
935.256
935.159
935.051
934.934
934.812
934.688
836.616
836.743
836.869
836.993
837.111
837.221
837.319
837.402
837.464
837.502
837.512
837.492
837.442
837.366
837.269
837.156
837.03
836.897
836.761
836.623
738.544
738.684
738.825
738.965
739.102
739.231
739.348
739.449
739.528
739.578
739.593
739.569
739.508
739.416
739.299
739.164
739.017
738.865
738.71
738.556
640.469
640.624
640.783
640.942
641.1
641.252
641.393
641.519
641.62
641.688
641.711
641.683
641.606
641.49
641.346
641.183
641.011
640.835
640.659
640.487
542.389
542.561
542.739
542.921
543.104
543.283
543.455
543.613
543.747
543.842
543.881
543.846
543.744
543.593
543.411
543.212
543.008
542.804
542.604
542.412
444.301
444.491
444.692
444.899
445.11
445.322
445.531
445.731
445.913
446.054
446.123
446.075
445.931
445.726
445.492
445.248
445.005
444.768
444.542
444.328
346.201
346.412
346.637
346.874
347.117
347.365
347.616
347.868
348.118
348.341
348.479
348.4
348.179
347.89
347.583
347.283
346.995
346.723
346.467
346.23
248.086
248.319
248.572
248.841
249.12
249.405
249.698
250.008
250.352
250.722
251.034
250.869
250.495
250.071
249.67
249.304
248.97
248.66
248.374
248.114
149.944
150.199
150.485
150.791
151.107
151.428
151.754
152.108
152.561
153.196
153.939
153.55
152.861
152.224
151.712
151.286
150.912
150.567
150.25
149.966
51.8978
52.2053
52.5694
52.9667
53.3717
53.7703
54.147
54.4934
54.9842
56.2733
59.1927
57.4529
55.676
54.6502
54.0102
53.5086
53.0723
52.6496
52.2551
51.9132
1915.37
1915.21
1915.05
1914.89
1914.73
1914.57
1914.43
1914.29
1914.17
1914.06
1913.95
1913.86
1913.79
1913.72
1913.66
1913.61
1913.57
1913.55
1913.53
1913.52
1817.27
1817.11
1816.95
1816.79
1816.63
1816.47
1816.33
1816.19
1816.07
1815.95
1815.85
1815.76
1815.68
1815.61
1815.56
1815.51
1815.47
1815.44
1815.43
1815.42
1719.18
1719.02
1718.85
1718.69
1718.52
1718.37
1718.22
1718.09
1717.96
1717.85
1717.75
1717.66
1717.58
1717.51
1717.45
1717.4
1717.37
1717.34
1717.32
1717.31
1621.09
1620.92
1620.75
1620.58
1620.42
1620.26
1620.11
1619.98
1619.85
1619.74
1619.64
1619.55
1619.47
1619.4
1619.34
1619.3
1619.26
1619.23
1619.21
1619.2
1523
1522.83
1522.65
1522.48
1522.31
1522.15
1522
1521.87
1521.74
1521.63
1521.53
1521.44
1521.36
1521.29
1521.23
1521.19
1521.15
1521.12
1521.1
1521.1
1424.91
1424.73
1424.55
1424.37
1424.2
1424.04
1423.89
1423.75
1423.63
1423.51
1423.41
1423.32
1423.25
1423.18
1423.12
1423.08
1423.04
1423.01
1422.99
1422.98
1326.83
1326.64
1326.45
1326.27
1326.09
1325.93
1325.78
1325.64
1325.51
1325.4
1325.3
1325.21
1325.13
1325.06
1325.01
1324.96
1324.92
1324.9
1324.88
1324.87
1228.74
1228.54
1228.35
1228.16
1227.98
1227.81
1227.66
1227.52
1227.39
1227.28
1227.18
1227.09
1227.01
1226.94
1226.89
1226.84
1226.81
1226.78
1226.76
1226.75
1130.66
1130.45
1130.24
1130.05
1129.86
1129.69
1129.54
1129.39
1129.27
1129.15
1129.05
1128.97
1128.89
1128.82
1128.77
1128.72
1128.69
1128.66
1128.65
1128.64
1032.58
1032.35
1032.14
1031.93
1031.74
1031.57
1031.41
1031.27
1031.14
1031.03
1030.93
1030.84
1030.76
1030.7
1030.65
1030.6
1030.57
1030.54
1030.52
1030.52
934.5
934.256
934.026
933.813
933.617
933.44
933.28
933.137
933.009
932.897
932.798
932.712
932.637
932.574
932.521
932.478
932.444
932.419
932.402
932.394
836.417
836.155
835.912
835.689
835.488
835.308
835.146
835.002
834.875
834.763
834.665
834.58
834.507
834.445
834.394
834.351
834.318
834.294
834.278
834.27
738.33
738.049
737.792
737.561
737.354
737.171
737.008
736.864
736.737
736.626
736.53
736.446
736.375
736.314
736.264
736.223
736.19
736.167
736.151
736.143
640.238
639.936
639.666
639.426
639.215
639.028
638.864
638.72
638.595
638.485
638.39
638.309
638.239
638.18
638.131
638.092
638.06
638.037
638.022
638.015
542.138
541.816
541.532
541.284
541.069
540.881
540.716
540.573
540.448
540.341
540.248
540.169
540.101
540.044
539.997
539.958
539.928
539.906
539.892
539.884
444.028
443.686
443.389
443.135
442.916
442.727
442.562
442.42
442.298
442.192
442.102
442.025
441.96
441.905
441.86
441.823
441.794
441.773
441.759
441.752
345.904
345.544
345.235
344.976
344.755
344.567
344.403
344.263
344.143
344.04
343.953
343.879
343.817
343.764
343.721
343.686
343.658
343.638
343.625
343.618
247.761
247.39
247.07
246.807
246.587
246.4
246.238
246.1
245.983
245.884
245.801
245.73
245.671
245.621
245.58
245.546
245.52
245.501
245.489
245.483
149.589
149.223
148.893
148.631
148.414
148.23
148.071
147.937
147.823
147.729
147.649
147.582
147.526
147.479
147.44
147.409
147.384
147.367
147.355
147.349
51.4758
51.017
50.6788
50.4086
50.1853
50.0005
49.8447
49.7162
49.6115
49.5259
49.4547
49.395
49.3448
49.3027
49.2679
49.2396
49.2172
49.2022
49.192
49.1867
-0.00732882
-0.000459545
0.0134722
0.0347915
0.0639888
0.101739
0.148928
0.206673
0.276336
0.359525
0.458162
0.574598
0.711063
0.867603
1.04279
1.24482
1.48491
1.76905
2.10964
2.53167
-0.52967
-0.522846
-0.50903
-0.488025
-0.459573
-0.423337
-0.37889
-0.325697
-0.263091
-0.190234
-0.106031
-0.00899638
0.102783
0.231447
0.379632
0.552261
0.757208
1.00435
1.31421
1.73133
-0.975201
-0.96913
-0.956901
-0.938434
-0.913634
-0.882394
-0.844609
-0.800193
-0.749095
-0.691313
-0.626912
-0.556046
-0.478989
-0.39612
-0.307715
-0.213654
-0.11456
-0.014411
0.0855391
0.198586
-1.46002
-1.45507
-1.44512
-1.43017
-1.41026
-1.38551
-1.35608
-1.32228
-1.28458
-1.24373
-1.20081
-1.15751
-1.11638
-1.08142
-1.05864
-1.05691
-1.09141
-1.1914
-1.40019
-1.76151
-1.97798
-1.97419
-1.9666
-1.95524
-1.94026
-1.92183
-1.90025
-1.876
-1.84976
-1.82253
-1.79584
-1.77192
-1.75421
-1.74796
-1.76117
-1.80576
-1.90083
-2.08037
-2.39712
-2.90393
-2.52211
-2.51939
-2.51395
-2.50582
-2.49509
-2.48189
-2.46641
-2.44894
-2.42988
-2.4098
-2.38955
-2.37037
-2.35414
-2.34376
-2.34347
-2.35928
-2.40057
-2.48417
-2.63781
-2.87762
-3.08694
-3.08524
-3.08181
-3.07664
-3.06968
-3.06089
-3.05018
-3.03738
-3.02228
-3.00451
-2.98355
-2.95863
-2.92874
-2.89257
-2.84821
-2.79246
-2.72147
-2.63519
-2.5419
-2.43964
-3.66745
-3.66682
-3.66553
-3.66348
-3.66051
-3.65638
-3.65069
-3.64289
-3.63209
-3.61705
-3.59592
-3.56605
-3.52371
-3.46389
-3.37956
-3.25931
-3.08648
-2.85483
-2.61039
-2.44788
-4.25826
-4.25893
-4.26023
-4.26202
-4.26412
-4.26619
-4.26776
-4.2681
-4.26613
-4.26034
-4.24849
-4.22731
-4.192
-4.13587
-4.05024
-3.91772
-3.68437
-3.26293
-2.7639
-2.6579
-4.85304
-4.85532
-4.85983
-4.86651
-4.87523
-4.8858
-4.89793
-4.91118
-4.92491
-4.93824
-4.94999
-4.95844
-4.96097
-4.95441
-4.94128
-4.93885
-4.9463
-4.74423
-3.82458
-3.01702
-5.44411
-5.44823
-5.45647
-5.46888
-5.48551
-5.50649
-5.53195
-5.56212
-5.59735
-5.63825
-5.68602
-5.74299
-5.81343
-5.90416
-6.03345
-6.25711
-6.65431
-7.30781
-7.93878
-8.33281
-6.02252
-6.02853
-6.04057
-6.05882
-6.0836
-6.11535
-6.15469
-6.20242
-6.25959
-6.32762
-6.40834
-6.50401
-6.61724
-6.74947
-6.89994
-7.06545
-7.21941
-7.30507
-7.36117
-20.809
-6.57902
-6.58675
-6.60206
-6.62534
-6.65717
-6.69833
-6.74984
-6.81299
-6.88929
-6.98042
-7.08836
-7.21348
-7.35352
-7.5051
-7.6617
-7.75091
-7.5917
-7.33875
-8.82118
-35.9241
-7.10547
-7.1149
-7.13217
-7.15868
-7.1952
-7.24288
-7.30329
-7.37849
-7.4709
-7.58251
-7.72266
-7.89533
-8.10766
-8.37612
-8.76343
-9.30385
-9.66087
-9.57871
-9.04669
18.3625
-7.59718
-7.60721
-7.62487
-7.65206
-7.6897
-7.73914
-7.80236
-7.88224
-7.98293
-8.11065
-8.27544
-8.49329
-8.79083
-9.2108
-9.87299
-10.9472
-12.0937
-12.825
-12.8186
-12.0103
-8.05337
-8.06244
-8.07856
-8.10334
-8.13761
-8.18258
-8.24009
-8.31278
-8.40454
-8.52117
-8.67141
-8.86879
-9.13617
-9.50443
-10.0242
-10.7952
-11.7046
-12.2527
-12.0159
-11.4399
-8.47694
-8.48384
-8.49658
-8.51605
-8.54269
-8.57715
-8.62035
-8.67353
-8.73834
-8.81686
-8.91159
-9.0249
-9.1595
-9.31572
-9.48379
-9.66818
-9.8757
-10.0606
-10.2552
-10.2592
-8.87476
-8.8789
-8.8873
-8.89998
-8.91695
-8.93825
-8.96387
-8.99374
-9.02752
-9.06454
-9.10349
-9.14192
-9.17658
-9.2045
-9.2216
-9.22629
-9.24173
-9.30523
-9.38612
-9.45822
-9.25479
-9.25623
-9.26033
-9.26642
-9.27426
-9.28364
-9.29425
-9.30566
-9.31723
-9.32821
-9.33772
-9.34477
-9.34853
-9.34859
-9.34453
-9.33282
-9.31507
-9.30792
-9.35498
-9.45106
-9.62828
-9.62834
-9.6293
-9.63064
-9.6322
-9.63382
-9.63525
-9.63625
-9.63648
-9.63562
-9.63337
-9.62951
-9.624
-9.61715
-9.60937
-9.6005
-9.59251
-9.60944
-9.67627
-9.78583
2.91615
3.19614
3.50824
3.84374
4.18623
4.52156
4.83796
5.12645
5.39348
5.65919
5.86161
5.75865
5.46052
5.10956
4.74041
4.36056
3.98024
3.61153
3.26705
2.95775
2.16767
2.52232
2.94823
3.43495
3.90564
4.29436
4.59576
4.80358
4.91989
5.03788
5.15243
5.09685
4.85106
4.56211
4.23118
3.87746
3.46041
2.98136
2.51961
2.12631
0.297006
0.358368
0.486945
0.929577
2.02289
3.06639
3.64748
3.87559
3.83524
3.6455
3.49617
3.35642
3.16291
2.97811
2.63848
2.07166
1.118
0.326423
0.0547933
-0.0193658
-2.17288
-2.48088
-2.78357
-3.07334
-2.95511
-0.405412
1.19616
1.93922
2.17623
2.05435
1.82762
1.35587
0.895277
0.586936
-0.259659
-2.3374
-3.69384
-3.4705
-3.11637
-2.76969
-3.42233
-3.77702
-4.09967
-4.5365
-5.42569
-5.46317
-2.20592
0.602537
1.11592
0.76221
0.197091
-0.406092
-0.807599
-1.70247
-4.18845
-6.575
-5.16341
-4.64216
-4.3367
-3.99668
-3.09488
-3.23885
-3.35031
-3.50486
-4.20312
-5.57807
-6.86753
-3.31131
-0.85898
-2.17931
-3.04019
-4.33582
-7.15038
-14.3219
-7.40778
-4.98651
-3.97952
-3.79695
-3.6458
-3.48796
-2.34707
-2.30008
-2.26121
-2.23781
-2.30545
-2.76241
-2.7217
2.36787
6.27952
7.08051
6.99106
8.02217
5.74937
4.59185
-3.5299
-2.89122
-2.59731
-2.57071
-2.60301
-2.65356
-2.3812
-2.33605
-2.23838
-2.10046
-2.50901
-5.07945
-10.0577
-3.12391
-5.50153
-1.67436
0.0741943
0.808926
2.35315
0.360615
-7.05585
-3.43213
-2.49575
-2.57959
-2.73576
-2.82138
-2.72901
-2.77644
-3.31274
-8.38418
-19.3094
-24.0889
-16.2961
-9.97843
-11.1243
-7.45773
-6.64133
-10.2318
-7.57753
-10.052
-18.9056
-21.2546
-11.5114
-4.4513
-3.42239
-3.38661
-3.41615
-4.86183
-11.0027
-15.1584
-14.0992
-10.676
-7.79605
-6.63429
-6.59708
-4.2678
-3.13482
-5.66955
-4.81007
-5.82284
-8.06405
-13.0036
-16.7476
-14.1047
-7.12395
-4.37281
-16.3236
-20.1807
-18.6455
-16.0713
-14.6034
-14.4709
-15.0895
-14.6359
-14.3704
-14.4865
-14.3085
-13.7587
-13.8834
-14.8232
-15.4562
-15.1476
-16.2315
-18.2162
-19.7047
-16.2882
-46.5194
-47.1843
-47.4094
-47.5734
-47.2295
-46.3681
-45.1386
-43.2834
-42.0568
-41.535
-41.1184
-40.6654
-40.9955
-41.8054
-43.3708
-44.4385
-45.5206
-46.0092
-46.757
-47.7322
-31.9104
-10.6388
-2.26862
-4.8547
-7.87205
-7.19102
-5.77135
-3.84829
-2.35122
-1.35265
-0.786086
-0.963775
-0.781757
0.688073
3.56221
7.5463
11.0184
10.8202
1.46269
-19.3386
22.9895
16.8052
23.9473
40.5313
58.726
68.5595
72.7022
73.8825
70.0369
67.8615
67.9509
68.4103
70.9219
68.0856
56.9955
40.0181
25.4536
13.9784
12.1603
15.5116
-11.5401
-11.2917
-11.0763
-10.8655
-10.584
-10.1956
-9.96054
-9.82948
-9.94982
-9.92611
-9.90238
-9.98302
-9.96346
-10.1789
-10.6934
-11.0042
-11.1941
-11.3484
-11.5694
-11.8155
-11.13
-11.0053
-10.8762
-10.7523
-10.644
-10.5509
-10.4661
-10.3983
-10.3571
-10.3379
-10.3416
-10.366
-10.4164
-10.4939
-10.5952
-10.7062
-10.8218
-10.9572
-11.1008
-11.2759
-10.1016
-10.0333
-10.0167
-9.9919
-9.95854
-9.93658
-9.9196
-9.90375
-9.89698
-9.8984
-9.89997
-9.90243
-9.91577
-9.93786
-9.95874
-9.97962
-10.0089
-10.0327
-10.064
-10.1497
-9.51092
-9.53559
-9.55278
-9.56338
-9.56147
-9.55546
-9.55736
-9.5652
-9.57494
-9.58408
-9.58602
-9.58284
-9.58047
-9.57751
-9.57612
-9.57909
-9.57409
-9.55527
-9.53192
-9.50492
-9.5416
-9.60278
-9.65457
-9.69026
-9.70469
-9.70666
-9.71268
-9.72348
-9.73149
-9.73709
-9.73831
-9.73598
-9.73214
-9.72427
-9.71384
-9.70099
-9.67571
-9.63369
-9.58192
-9.52939
-9.8832
-9.94603
-9.99959
-10.0395
-10.0657
-10.0845
-10.1027
-10.1181
-10.1284
-10.1326
-10.1315
-10.1239
-10.1121
-10.0956
-10.0738
-10.0477
-10.0144
-9.96909
-9.91352
-9.85375
2.53549
2.075
1.70282
1.39264
1.1313
0.912966
0.725027
0.558328
0.414866
0.294333
0.193785
0.110156
0.0409431
-0.0158994
-0.0620472
-0.0988208
-0.127209
-0.147928
-0.161474
-0.168158
1.64812
1.19983
0.872374
0.612542
0.39747
0.217225
0.0634942
-0.0689605
-0.182933
-0.280829
-0.36491
-0.437006
-0.498502
-0.550469
-0.593742
-0.628959
-0.656598
-0.677017
-0.690474
-0.697146
-0.0816824
-0.158192
-0.232606
-0.318516
-0.410321
-0.499784
-0.58481
-0.665005
-0.739713
-0.808334
-0.870514
-0.926108
-0.975101
-1.01757
-1.05362
-1.08341
-1.10706
-1.12471
-1.13643
-1.14228
-2.27763
-1.80573
-1.52026
-1.37268
-1.30847
-1.29019
-1.29881
-1.32341
-1.35667
-1.39375
-1.43154
-1.46804
-1.50197
-1.53251
-1.55917
-1.58164
-1.59975
-1.6134
-1.62252
-1.62707
-3.44217
-2.84285
-2.45518
-2.22568
-2.09459
-2.02327
-1.98961
-1.98001
-1.98536
-1.99947
-2.01824
-2.03896
-2.05977
-2.07946
-2.09723
-2.11257
-2.12514
-2.13472
-2.14118
-2.1444
-3.26132
-3.00506
-2.8299
-2.72014
-2.65345
-2.61467
-2.59474
-2.58797
-2.59002
-2.59759
-2.60834
-2.62061
-2.63321
-2.6453
-2.65633
-2.66592
-2.67382
-2.67988
-2.68397
-2.68601
-2.7328
-2.85508
-2.95402
-3.02919
-3.08175
-3.11699
-3.14165
-3.16041
-3.17553
-3.18818
-3.19908
-3.20862
-3.21695
-3.22415
-3.23028
-3.23535
-3.2394
-3.24244
-3.24447
-3.24547
-2.90145
-3.04056
-3.23666
-3.42211
-3.55686
-3.64634
-3.70591
-3.74575
-3.77203
-3.78916
-3.80027
-3.80735
-3.81175
-3.81439
-3.81588
-3.81665
-3.817
-3.81712
-3.81715
-3.81713
-3.34353
-3.39021
-3.73702
-4.02919
-4.19309
-4.28892
-4.35016
-4.38759
-4.40857
-4.41907
-4.42287
-4.42243
-4.41949
-4.41526
-4.41057
-4.40601
-4.40197
-4.39875
-4.39653
-4.39539
-3.80232
-4.31806
-5.00946
-5.12131
-5.10433
-5.10332
-5.10869
-5.10606
-5.09694
-5.08441
-5.0697
-5.05399
-5.03837
-5.0236
-5.0102
-4.99857
-4.98899
-4.98166
-4.97672
-4.97424
-7.53052
-7.18566
-6.84622
-6.42832
-6.162
-6.02567
-5.94137
-5.87452
-5.81935
-5.77209
-5.73025
-5.69308
-5.6603
-5.63176
-5.60738
-5.58713
-5.57098
-5.55889
-5.55085
-5.54684
-18.5694
-7.0232
-6.96027
-6.96648
-6.90711
-6.81604
-6.71486
-6.61736
-6.52933
-6.45097
-6.3821
-6.32241
-6.27125
-6.22792
-6.19183
-6.16247
-6.13944
-6.12241
-6.11118
-6.10557
-28.2812
-8.06888
-7.25295
-7.58919
-7.69929
-7.59547
-7.46157
-7.33313
-7.21155
-7.10175
-7.0062
-6.92465
-6.85595
-6.7988
-6.75197
-6.71441
-6.68529
-6.66396
-6.64996
-6.64276
12.1146
-9.63535
-9.86244
-9.69368
-9.15029
-8.62603
-8.29764
-8.06217
-7.86908
-7.71329
-7.58702
-7.48413
-7.40024
-7.33209
-7.27723
-7.23383
-7.20052
-7.17633
-7.16057
-7.15203
-12.3365
-13.1583
-12.9458
-11.8935
-10.5438
-9.61901
-9.07296
-8.70302
-8.43913
-8.24477
-8.09652
-7.98084
-7.88939
-7.81669
-7.75905
-7.71393
-7.67955
-7.6547
-7.63858
-7.62966
-11.6303
-12.1042
-12.0682
-11.3151
-10.4389
-9.79888
-9.35912
-9.03928
-8.80664
-8.63259
-8.49871
-8.39398
-8.31107
-8.24509
-8.19273
-8.15169
-8.12036
-8.09768
-8.08295
-8.07495
-10.2826
-10.2066
-9.97826
-9.75132
-9.55948
-9.39828
-9.24365
-9.10439
-8.98519
-8.88416
-8.79938
-8.72872
-8.67007
-8.62171
-8.58228
-8.55076
-8.52633
-8.50844
-8.49673
-8.49067
-9.45786
-9.39395
-9.32253
-9.25543
-9.23154
-9.21494
-9.1907
-9.16175
-9.12845
-9.09277
-9.05716
-9.02337
-8.99247
-8.96508
-8.94149
-8.92186
-8.90617
-8.8944
-8.8866
-8.88295
-9.45779
-9.39283
-9.36561
-9.36189
-9.35516
-9.3513
-9.34974
-9.34775
-9.34367
-9.33708
-9.32837
-9.31822
-9.30743
-9.29672
-9.28668
-9.27778
-9.27032
-9.26449
-9.26049
-9.25919
-9.76694
-9.68011
-9.63081
-9.61288
-9.61254
-9.61679
-9.62146
-9.62608
-9.63026
-9.63349
-9.63555
-9.63643
-9.6363
-9.63542
-9.63409
-9.63257
-9.63108
-9.62978
-9.62878
-9.62869
)
;

boundaryField
{
    leftWall
    {
        type            calculated;
        value           nonuniform List<scalar> 
40
(
1913.67
1815.57
1717.47
1619.36
1521.25
1423.14
1325.02
1226.91
1128.79
1030.67
932.546
834.422
736.295
638.166
540.036
441.903
343.769
245.633
147.499
49.3365
-0.00732882
-0.52967
-0.975201
-1.46002
-1.97798
-2.52211
-3.08694
-3.66745
-4.25826
-4.85304
-5.44411
-6.02252
-6.57902
-7.10547
-7.59718
-8.05337
-8.47694
-8.87476
-9.25479
-9.62828
)
;
    }
    rightWall
    {
        type            calculated;
        value           nonuniform List<scalar> 
40
(
1913.52
1815.42
1717.31
1619.2
1521.1
1422.98
1324.87
1226.75
1128.64
1030.52
932.394
834.27
736.143
638.015
539.884
441.752
343.618
245.483
147.349
49.1867
-0.168158
-0.697146
-1.14228
-1.62707
-2.1444
-2.68601
-3.24547
-3.81713
-4.39539
-4.97424
-5.54684
-6.10557
-6.64276
-7.15203
-7.62966
-8.07495
-8.49067
-8.88295
-9.25919
-9.62869
)
;
    }
    lowerWall
    {
        type            calculated;
        value           nonuniform List<scalar> 
60
(
1962.72
1962.73
1962.75
1962.78
1962.81
1962.86
1962.91
1962.98
1963.05
1963.14
1963.23
1963.34
1963.45
1963.58
1963.71
1963.86
1964.01
1964.16
1964.31
1964.46
1964.56
1964.62
1964.68
1964.74
1964.79
1964.83
1964.86
1964.89
1964.9
1964.91
1964.91
1964.9
1964.88
1964.85
1964.82
1964.77
1964.72
1964.66
1964.6
1964.53
1964.42
1964.26
1964.1
1963.94
1963.78
1963.62
1963.48
1963.34
1963.22
1963.11
1963
1962.91
1962.84
1962.77
1962.71
1962.66
1962.62
1962.6
1962.58
1962.57
)
;
    }
    atmosphere
    {
        type            calculated;
        value           nonuniform List<scalar> 
60
(
-9.81
-9.81
-9.81
-9.81
-9.81
-9.81
-9.81
-9.81
-9.81
-9.81
-9.81
-9.81
-9.81
-9.81
-9.81
-9.81
-9.81073
-9.85797
-9.95476
-10.0737
-10.1879
-10.2571
-10.2826
-10.2688
-10.2768
-10.3292
-10.3748
-10.3604
-10.3878
-10.38
-10.3923
-10.3653
-10.3382
-10.34
-10.3324
-10.2805
-10.2617
-10.2503
-10.2017
-10.1199
-10.0199
-9.92398
-9.85913
-9.8231
-9.81061
-9.81
-9.81
-9.81
-9.81
-9.81
-9.81
-9.81
-9.81
-9.81
-9.81
-9.81
-9.81
-9.81
-9.81
-9.81
)
;
    }
    defaultFaces
    {
        type            empty;
    }
}


// ************************************************************************* //
