/*--------------------------------*- C++ -*----------------------------------*\
| =========                 |                                                 |
| \\      /  F ield         | OpenFOAM: The Open Source CFD Toolbox           |
|  \\    /   O peration     | Version:  2.4.0                                 |
|   \\  /    A nd           | Web:      www.OpenFOAM.org                      |
|    \\/     M anipulation  |                                                 |
\*---------------------------------------------------------------------------*/
FoamFile
{
    version     2.0;
    format      ascii;
    class       volVectorField;
    location    "0.029";
    object      U;
}
// * * * * * * * * * * * * * * * * * * * * * * * * * * * * * * * * * * * * * //

dimensions      [0 1 -1 0 0 0 0];

internalField   nonuniform List<vector> 
57600
(
(-0.000221624 1.57649e-05 0)
(-0.000517354 6.62746e-06 0)
(-0.00104781 8.76879e-06 0)
(-0.00174487 1.19167e-05 0)
(-0.00263369 1.44629e-05 0)
(-0.00366873 1.44525e-05 0)
(-0.00474392 9.78933e-06 0)
(-0.00571037 -1.21074e-06 0)
(-0.00640003 -1.95631e-05 0)
(-0.00664707 -4.63907e-05 0)
(-0.00631475 -8.02676e-05 0)
(-0.00534484 -0.000116644 0)
(-0.00382291 -0.000146862 0)
(-0.00198255 -0.000161518 0)
(-0.000118717 -0.000155752 0)
(0.00151631 -0.000129925 0)
(0.00275801 -8.64795e-05 0)
(0.0035183 -2.79686e-05 0)
(0.00375932 4.19349e-05 0)
(0.00351091 0.000116423 0)
(0.00286813 0.00018647 0)
(0.00197932 0.000243868 0)
(0.00101071 0.000281987 0)
(0.00011927 0.000297032 0)
(-0.000575227 0.000288371 0)
(-0.00100208 0.000258734 0)
(-0.00114802 0.000216096 0)
(-0.00105166 0.000171193 0)
(-0.000786547 0.000134504 0)
(-0.000434051 0.00011311 0)
(-0.000280143 6.45762e-05 0)
(-0.00108847 6.20968e-05 0)
(-0.00214028 9.35418e-05 0)
(-0.00363945 0.000141969 0)
(-0.00571168 0.00020248 0)
(-0.00841195 0.000267845 0)
(-0.0117237 0.0003284 0)
(-0.0155586 0.000372352 0)
(-0.0197501 0.00038506 0)
(-0.024034 0.000348579 0)
(-0.028045 0.000248807 0)
(-0.0313794 9.09407e-05 0)
(-0.0337149 -9.44102e-05 0)
(-0.0348893 -0.000271589 0)
(-0.0348885 -0.000419764 0)
(-0.0338195 -0.000531052 0)
(-0.0319066 -0.000592546 0)
(-0.02947 -0.00058788 0)
(-0.0268439 -0.000518534 0)
(-0.0242754 -0.000412008 0)
(-0.0218794 -0.000314018 0)
(-0.0196531 -0.00026992 0)
(-0.0175271 -0.000312068 0)
(-0.0154129 -0.000455252 0)
(-0.0132373 -0.000692879 0)
(-0.0109632 -0.000997649 0)
(-0.00859518 -0.00132296 0)
(-0.00618134 -0.00161496 0)
(-0.0037972 -0.00183038 0)
(-0.00152338 -0.00194854 0)
(-0.000281516 0.000116557 0)
(-0.00110826 0.000126511 0)
(-0.00218384 0.000194016 0)
(-0.0037246 0.000300502 0)
(-0.00586711 0.000440149 0)
(-0.00868082 0.000603334 0)
(-0.0121674 0.000775679 0)
(-0.01626 0.000937271 0)
(-0.0208126 0.0010585 0)
(-0.0255706 0.00109542 0)
(-0.030148 0.000999226 0)
(-0.0340731 0.00074796 0)
(-0.0369174 0.000367885 0)
(-0.0384124 -9.03449e-05 0)
(-0.038481 -0.000580087 0)
(-0.0372342 -0.00105209 0)
(-0.0349606 -0.00143732 0)
(-0.0320721 -0.00166902 0)
(-0.028987 -0.00173165 0)
(-0.0260114 -0.00167677 0)
(-0.0232872 -0.00159702 0)
(-0.0208173 -0.00158534 0)
(-0.0185247 -0.00170823 0)
(-0.0163071 -0.00199815 0)
(-0.0140701 -0.00245191 0)
(-0.0117453 -0.00303019 0)
(-0.00930119 -0.00365737 0)
(-0.00675825 -0.00423475 0)
(-0.00418853 -0.00467124 0)
(-0.00169354 -0.00491565 0)
(-0.00028053 0.000168786 0)
(-0.00110439 0.000190989 0)
(-0.0021757 0.000294771 0)
(-0.00371201 0.000459771 0)
(-0.00585029 0.000679438 0)
(-0.008661 0.000942027 0)
(-0.0121473 0.00122884 0)
(-0.0162449 0.00151237 0)
(-0.0208124 0.00174859 0)
(-0.0256013 0.00186721 0)
(-0.0302278 0.00178207 0)
(-0.0342116 0.00143928 0)
(-0.0371093 0.000857181 0)
(-0.0386422 0.000101907 0)
(-0.0387292 -0.000750603 0)
(-0.0374732 -0.00160619 0)
(-0.0351524 -0.00233513 0)
(-0.0321845 -0.00281411 0)
(-0.0290153 -0.00300555 0)
(-0.0259862 -0.00298506 0)
(-0.0232633 -0.00289659 0)
(-0.0208564 -0.00288563 0)
(-0.0186823 -0.00305736 0)
(-0.0166248 -0.00346684 0)
(-0.0145681 -0.00412446 0)
(-0.0124076 -0.00499597 0)
(-0.0100567 -0.00599227 0)
(-0.00748077 -0.00696425 0)
(-0.0047324 -0.00773983 0)
(-0.00195138 -0.00819288 0)
(-0.00027914 0.000221273 0)
(-0.00109847 0.00025509 0)
(-0.00216318 0.000395066 0)
(-0.00369209 0.000618479 0)
(-0.00582237 0.000918107 0)
(-0.00862539 0.00128015 0)
(-0.0121057 0.00168168 0)
(-0.0162015 0.00208792 0)
(-0.0207769 0.00244101 0)
(-0.0255922 0.00264474 0)
(-0.0302691 0.00257465 0)
(-0.0343205 0.0021426 0)
(-0.0372881 0.00135856 0)
(-0.0388838 0.000304863 0)
(-0.0390186 -0.000914772 0)
(-0.037776 -0.00216521 0)
(-0.0354106 -0.00325548 0)
(-0.0323416 -0.00399586 0)
(-0.029054 -0.0043154 0)
(-0.025944 -0.0043094 0)
(-0.0232156 -0.00417748 0)
(-0.0208894 -0.00412525 0)
(-0.018874 -0.00430222 0)
(-0.0170387 -0.00479027 0)
(-0.0152509 -0.00562213 0)
(-0.0133731 -0.0067953 0)
(-0.0112431 -0.00824845 0)
(-0.00870639 -0.00980456 0)
(-0.0057196 -0.0111644 0)
(-0.00244529 -0.01202 0)
(-0.000277379 0.000274114 0)
(-0.0010908 0.000318678 0)
(-0.00214692 0.000494727 0)
(-0.00366611 0.000776393 0)
(-0.00578572 0.00115586 0)
(-0.00857816 0.00161735 0)
(-0.0120496 0.00213383 0)
(-0.0161417 0.00266365 0)
(-0.0207255 0.0031359 0)
(-0.0255732 0.0034293 0)
(-0.0303155 0.00338 0)
(-0.0344577 0.00286264 0)
(-0.0375224 0.00187789 0)
(-0.0392078 0.000524999 0)
(-0.0394143 -0.00106667 0)
(-0.0381984 -0.00272757 0)
(-0.0357796 -0.00420554 0)
(-0.0325726 -0.00523 0)
(-0.0291159 -0.00567936 0)
(-0.0258816 -0.00566195 0)
(-0.0231287 -0.00543983 0)
(-0.0208932 -0.00528968 0)
(-0.019072 -0.00541273 0)
(-0.0175168 -0.00591768 0)
(-0.0160917 -0.00685766 0)
(-0.014661 -0.00828556 0)
(-0.0130045 -0.0102515 0)
(-0.0107627 -0.0126685 0)
(-0.00757748 -0.0151169 0)
(-0.00346323 -0.0168698 0)
(-0.000275257 0.000327428 0)
(-0.00108138 0.000381619 0)
(-0.00212695 0.000593591 0)
(-0.00363411 0.000933296 0)
(-0.00574035 0.00139244 0)
(-0.00851934 0.00195332 0)
(-0.0119792 0.00258501 0)
(-0.0160653 0.0032394 0)
(-0.0206578 0.00383368 0)
(-0.0255435 0.00422256 0)
(-0.0303663 0.00420175 0)
(-0.0346234 0.00360471 0)
(-0.0378126 0.0024212 0)
(-0.0396152 0.000768831 0)
(-0.0399195 -0.00120062 0)
(-0.0387485 -0.00329161 0)
(-0.0362702 -0.00519264 0)
(-0.0328849 -0.00653547 0)
(-0.0291955 -0.00712108 0)
(-0.0257792 -0.00706066 0)
(-0.0229716 -0.00668784 0)
(-0.0208308 -0.00636677 0)
(-0.0192342 -0.00636217 0)
(-0.0180052 -0.00680462 0)
(-0.0170144 -0.0077412 0)
(-0.0162027 -0.00925852 0)
(-0.015435 -0.0116123 0)
(-0.0141803 -0.0151305 0)
(-0.011337 -0.0196546 0)
(-0.00589978 -0.023755 0)
(-0.000272786 0.000381362 0)
(-0.00107024 0.000443777 0)
(-0.00210327 0.000691492 0)
(-0.0035961 0.00108897 0)
(-0.00568628 0.00162755 0)
(-0.00844893 0.00228775 0)
(-0.0118944 0.00303488 0)
(-0.0159723 0.00381498 0)
(-0.0205731 0.00453461 0)
(-0.0255019 0.00502609 0)
(-0.03042 0.00504353 0)
(-0.0348165 0.00437415 0)
(-0.0381585 0.00299468 0)
(-0.0401065 0.00104311 0)
(-0.0405373 -0.00130923 0)
(-0.0394361 -0.00385331 0)
(-0.0368976 -0.00622445 0)
(-0.033289 -0.00793501 0)
(-0.0292877 -0.00867124 0)
(-0.0256118 -0.00853038 0)
(-0.0227047 -0.00793042 0)
(-0.0206555 -0.00734664 0)
(-0.0193118 -0.00712734 0)
(-0.0184395 -0.00742574 0)
(-0.0178858 -0.00822791 0)
(-0.0177347 -0.00951456 0)
(-0.0182806 -0.0116522 0)
(-0.0194475 -0.0158139 0)
(-0.0194414 -0.0236744 0)
(-0.0133935 -0.0349029 0)
(-0.000269982 0.000436104 0)
(-0.00105737 0.000505008 0)
(-0.00207592 0.00078826 0)
(-0.0035521 0.00124318 0)
(-0.00562352 0.00186094 0)
(-0.0083669 0.00262032 0)
(-0.011795 0.00348312 0)
(-0.0158622 0.00439015 0)
(-0.0204705 0.00523888 0)
(-0.0254467 0.00584132 0)
(-0.0304748 0.00590906 0)
(-0.0350361 0.00517652 0)
(-0.0385597 0.00360464 0)
(-0.0406817 0.0013548 0)
(-0.0412709 -0.00138414 0)
(-0.0402727 -0.00440626 0)
(-0.0376831 -0.00730766 0)
(-0.0338017 -0.00945586 0)
(-0.0293876 -0.0103697 0)
(-0.0253484 -0.0101054 0)
(-0.0222773 -0.00918289 0)
(-0.0203095 -0.00822013 0)
(-0.0192535 -0.00768405 0)
(-0.0187712 -0.00777671 0)
(-0.0185706 -0.00839165 0)
(-0.0187514 -0.00912513 0)
(-0.0203199 -0.00978069 0)
(-0.0252532 -0.0117336 0)
(-0.0340334 -0.0207869 0)
(-0.0302332 -0.0543063 0)
(-0.000266849 0.000491895 0)
(-0.00104278 0.000565172 0)
(-0.00204491 0.000883737 0)
(-0.00350214 0.00139572 0)
(-0.00555211 0.00209232 0)
(-0.00827327 0.00295072 0)
(-0.011681 0.0039294 0)
(-0.0157349 0.00496464 0)
(-0.0203493 0.0059466 0)
(-0.025376 0.00666962 0)
(-0.0305282 0.00680212 0)
(-0.0352807 0.00601767 0)
(-0.0390159 0.00425743 0)
(-0.0413404 0.00171138 0)
(-0.0421229 -0.00141505 0)
(-0.041272 -0.00494027 0)
(-0.0386543 -0.0084465 0)
(-0.0344485 -0.0111309 0)
(-0.0294932 -0.0122693 0)
(-0.024951 -0.0118329 0)
(-0.0216259 -0.0104692 0)
(-0.0197198 -0.00897667 0)
(-0.0190034 -0.00799428 0)
(-0.0190029 -0.00783994 0)
(-0.0191069 -0.00843577 0)
(-0.0188609 -0.00884493 0)
(-0.0192241 -0.00713494 0)
(-0.0239207 -0.00221646 0)
(-0.0275937 -0.0196604 0)
(0.0344639 -0.124631 0)
(-0.000263386 0.000549032 0)
(-0.00102648 0.000624119 0)
(-0.00201028 0.000977759 0)
(-0.00344628 0.00154637 0)
(-0.00547206 0.00232142 0)
(-0.00816805 0.00327862 0)
(-0.0115524 0.00437335 0)
(-0.0155899 0.00553811 0)
(-0.0202084 0.00665769 0)
(-0.0252875 0.00751212 0)
(-0.0305774 0.00772657 0)
(-0.0355487 0.00690368 0)
(-0.0395265 0.0049595 0)
(-0.0420821 0.00212002 0)
(-0.0430946 -0.00139002 0)
(-0.0424488 -0.00543965 0)
(-0.039848 -0.00964101 0)
(-0.0352674 -0.012999 0)
(-0.0296062 -0.0144404 0)
(-0.024372 -0.0137759 0)
(-0.0206701 -0.0118256 0)
(-0.0187874 -0.00960316 0)
(-0.0184819 -0.00799511 0)
(-0.0191721 -0.00748523 0)
(-0.0199205 -0.00845441 0)
(-0.01879 -0.010035 0)
(-0.0144193 -0.00856066 0)
(-0.00582932 -0.00374393 0)
(0.018253 -0.0573222 0)
(0.0120878 -0.139181 0)
(-0.000259581 0.000607898 0)
(-0.00100847 0.000681691 0)
(-0.00197204 0.00107016 0)
(-0.00338453 0.00169489 0)
(-0.00538342 0.00254795 0)
(-0.00805125 0.00360369 0)
(-0.0114091 0.00481461 0)
(-0.0154269 0.00611015 0)
(-0.0200467 0.00737195 0)
(-0.0251786 0.00836968 0)
(-0.0306192 0.0086863 0)
(-0.0358383 0.00784092 0)
(-0.040091 0.00571742 0)
(-0.042905 0.00258789 0)
(-0.044185 -0.00129549 0)
(-0.0438183 -0.0058815 0)
(-0.0413121 -0.0108836 0)
(-0.0363148 -0.015106 0)
(-0.0297361 -0.0169785 0)
(-0.02355 -0.0160177 0)
(-0.0193119 -0.0133098 0)
(-0.0173569 -0.0100827 0)
(-0.0174975 -0.0076382 0)
(-0.019003 -0.0063943 0)
(-0.0213586 -0.00793144 0)
(-0.0202638 -0.0133357 0)
(-0.0104104 -0.0186348 0)
(0.00922085 -0.0251379 0)
(0.0234994 -0.0707971 0)
(-0.0194622 -0.0843137 0)
(-0.000255398 0.000668973 0)
(-0.00098876 0.000737726 0)
(-0.00193024 0.00116079 0)
(-0.00331695 0.00184108 0)
(-0.00528621 0.00277166 0)
(-0.00792285 0.00392561 0)
(-0.0112511 0.00525281 0)
(-0.0152457 0.00668034 0)
(-0.0198632 0.00808901 0)
(-0.0250465 0.00924296 0)
(-0.0306493 0.0096854 0)
(-0.0361475 0.00883641 0)
(-0.0407093 0.00653775 0)
(-0.0438071 0.00312145 0)
(-0.0453902 -0.0011165 0)
(-0.0453931 -0.0062336 0)
(-0.0431079 -0.0121534 0)
(-0.037674 -0.0175041 0)
(-0.0299069 -0.0200165 0)
(-0.0223924 -0.0186649 0)
(-0.0174028 -0.0150297 0)
(-0.0149596 -0.0104178 0)
(-0.0154372 -0.00718571 0)
(-0.017329 -0.0042389 0)
(-0.0232875 -0.0059374 0)
(-0.0245175 -0.0177505 0)
(-0.0111333 -0.0376916 0)
(0.0033702 -0.0459298 0)
(0.0133187 -0.0601783 0)
(-0.00705289 -0.0574187 0)
(-0.000250771 0.000732853 0)
(-0.00096734 0.000792042 0)
(-0.00188492 0.00124949 0)
(-0.00324359 0.0019847 0)
(-0.0051805 0.00299225 0)
(-0.00778291 0.00424403 0)
(-0.0110782 0.00568751 0)
(-0.0150459 0.00724814 0)
(-0.0196566 0.00880827 0)
(-0.0248878 0.0101321 0)
(-0.0306629 0.0107279 0)
(-0.0364739 0.00989763 0)
(-0.0413814 0.00742699 0)
(-0.0447856 0.003726 0)
(-0.0467008 -0.000837926 0)
(-0.0471802 -0.00645231 0)
(-0.045313 -0.013408 0)
(-0.039466 -0.0202491 0)
(-0.0301753 -0.023745 0)
(-0.0206452 -0.0218858 0)
(-0.0141747 -0.0173207 0)
(-0.011155 -0.0100984 0)
(-0.0190421 -0.00595721 0)
(-0.0350365 0.0014357 0)
(-0.0787281 0.00126087 0)
(0.101598 -0.0509074 0)
(0.17942 -0.151053 0)
(0.0396753 0.0267007 0)
(-0.00272127 0.054297 0)
(0.00845756 0.0128424 0)
(-0.0002456 0.000800286 0)
(-0.00094421 0.000844443 0)
(-0.00183612 0.0013361 0)
(-0.00316452 0.00212554 0)
(-0.00506633 0.00320945 0)
(-0.00763144 0.00455861 0)
(-0.0108905 0.00611832 0)
(-0.0148271 0.00781297 0)
(-0.019426 0.00952898 0)
(-0.0246989 0.0110368 0)
(-0.0306544 0.0118181 0)
(-0.036815 0.0110329 0)
(-0.0421082 0.00839187 0)
(-0.0458372 0.00440506 0)
(-0.048102 -0.000446195 0)
(-0.0491741 -0.00648011 0)
(-0.0480228 -0.0145698 0)
(-0.0418609 -0.0233986 0)
(-0.0306541 -0.0284571 0)
(-0.0168047 -0.026385 0)
(-0.00655219 -0.0203517 0)
(-0.00811039 -0.00428334 0)
(0.00647194 0.0033338 0)
(0.0726341 0.00478841 0)
(0.078924 -0.0564768 0)
(0.0196947 -0.0976835 0)
(-0.0531836 -0.0541571 0)
(-0.061371 -0.00327375 0)
(-0.0282352 0.0125014 0)
(-0.00476728 0.00324076 0)
(-0.00023973 0.000872203 0)
(-0.000919368 0.000894707 0)
(-0.00178389 0.00142048 0)
(-0.0030798 0.00226336 0)
(-0.00494375 0.00342297 0)
(-0.00746846 0.00486902 0)
(-0.0106879 0.00654482 0)
(-0.0145892 0.0083742 0)
(-0.0191703 0.0102502 0)
(-0.0244757 0.0119563 0)
(-0.0306167 0.0129603 0)
(-0.0371678 0.0122518 0)
(-0.0428914 0.00943937 0)
(-0.0469595 0.0051596 0)
(-0.0495711 6.74365e-05 0)
(-0.0513471 -0.00624622 0)
(-0.0513488 -0.0155011 0)
(-0.0450815 -0.0270243 0)
(-0.0313784 -0.0347316 0)
(-0.00571366 -0.0346114 0)
(-0.0046979 -0.0195691 0)
(0.0678014 -0.0347045 0)
(0.181991 -0.0180003 0)
(0.172286 -0.0212538 0)
(0.127903 -0.0145749 0)
(0.0579991 -0.0328701 0)
(0.00892406 -0.0237056 0)
(-0.00764143 -0.014792 0)
(-0.00545741 -0.00939106 0)
(0.000820031 -0.0094282 0)
(-0.000232935 0.000949746 0)
(-0.000892814 0.000942578 0)
(-0.00172828 0.00150247 0)
(-0.0029895 0.00239794 0)
(-0.00481283 0.00363254 0)
(-0.007294 0.00517489 0)
(-0.0104705 0.00696656 0)
(-0.0143319 0.00893109 0)
(-0.0188884 0.0109707 0)
(-0.024214 0.0128886 0)
(-0.0305414 0.0141589 0)
(-0.0375293 0.0135651 0)
(-0.0437342 0.0105769 0)
(-0.0481511 0.00598729 0)
(-0.0510782 0.000703184 0)
(-0.0536351 -0.00567076 0)
(-0.0554073 -0.0159652 0)
(-0.0493685 -0.0313287 0)
(-0.0318855 -0.0436842 0)
(-0.00859378 -0.0331238 0)
(0.146047 -0.0904396 0)
(0.425213 -0.0339213 0)
(0.353498 -0.0193761 0)
(0.279235 0.0205675 0)
(0.196799 0.0442656 0)
(0.111664 0.0253525 0)
(0.0536727 0.00712427 0)
(0.0279673 0.00139184 0)
(0.0145749 -0.00634937 0)
(0.00896899 -0.0103336 0)
(-0.000224904 0.00103431 0)
(-0.000864547 0.000987765 0)
(-0.00166934 0.00158193 0)
(-0.0028937 0.00252905 0)
(-0.00467364 0.00383789 0)
(-0.0071081 0.00547589 0)
(-0.0102383 0.00738312 0)
(-0.0140549 0.00948287 0)
(-0.0185796 0.0116893 0)
(-0.0239093 0.0138311 0)
(-0.0304183 0.0154182 0)
(-0.037896 0.0149854 0)
(-0.044642 0.0118125 0)
(-0.0494137 0.00688221 0)
(-0.0525872 0.0014465 0)
(-0.0559197 -0.00467849 0)
(-0.0602713 -0.0155601 0)
(-0.0549141 -0.0371437 0)
(-0.0311166 -0.0535058 0)
(-0.0393437 -0.0522913 0)
(0.364854 -0.24549 0)
(0.296822 -0.0284653 0)
(0.266383 0.0249909 0)
(0.21841 0.0655307 0)
(0.173858 0.100182 0)
(0.114307 0.0885571 0)
(0.0652638 0.0419092 0)
(0.0368511 0.0203507 0)
(0.0218137 0.006093 0)
(0.0121164 -0.00200922 0)
(-0.000215216 0.00112754 0)
(-0.000834571 0.00102993 0)
(-0.00160714 0.00165872 0)
(-0.00279248 0.00265646 0)
(-0.00452624 0.00403874 0)
(-0.00691079 0.00577164 0)
(-0.0099913 0.00779404 0)
(-0.0137582 0.0100287 0)
(-0.0182434 0.0124045 0)
(-0.0235568 0.0147797 0)
(-0.030235 0.0167427 0)
(-0.0382638 0.0165279 0)
(-0.0456224 0.0131558 0)
(-0.0507544 0.00783474 0)
(-0.0540624 0.00226247 0)
(-0.0580096 -0.00322947 0)
(-0.0657998 -0.0136612 0)
(-0.060389 -0.0478516 0)
(-0.0806032 -0.0561561 0)
(0.314763 -0.190043 0)
(0.191864 -0.15272 0)
(0.111005 -0.0192704 0)
(0.0984182 0.0457921 0)
(0.0784694 0.0837958 0)
(0.0786415 0.125567 0)
(0.0563879 0.122544 0)
(0.0411066 0.0714186 0)
(0.0275559 0.0378333 0)
(0.0179454 0.0184456 0)
(0.0100717 0.00854221 0)
(-0.000203338 0.00123141 0)
(-0.000802894 0.0010687 0)
(-0.00154177 0.0017327 0)
(-0.00268594 0.00277992 0)
(-0.00437072 0.00423481 0)
(-0.00670211 0.00606179 0)
(-0.00972961 0.00819889 0)
(-0.0134416 0.0105676 0)
(-0.0178795 0.0131148 0)
(-0.0231521 0.0157284 0)
(-0.0299757 0.0181366 0)
(-0.0386281 0.0182107 0)
(-0.0466863 0.0146182 0)
(-0.052187 0.00883231 0)
(-0.0554752 0.00309007 0)
(-0.0596356 -0.00137461 0)
(-0.0711469 -0.00965754 0)
(-0.0261857 -0.0827098 0)
(0.360719 -0.378408 0)
(0.151861 -0.195547 0)
(0.00127417 -0.0828466 0)
(-0.0431106 -0.0132004 0)
(-0.0205776 0.044622 0)
(-0.0438374 0.092178 0)
(-0.070309 0.13449 0)
(-0.0182448 0.112729 0)
(0.00353515 0.0719762 0)
(0.00924398 0.042329 0)
(0.00843857 0.0247229 0)
(0.00540937 0.015708 0)
(-0.00018839 0.00135119 0)
(-0.000769523 0.00110363 0)
(-0.00147328 0.00180374 0)
(-0.00257419 0.00289918 0)
(-0.00420716 0.00442584 0)
(-0.00648207 0.00634598 0)
(-0.00945333 0.00859725 0)
(-0.0131052 0.0110985 0)
(-0.0174881 0.0138192 0)
(-0.0226912 0.0166695 0)
(-0.0296207 0.0196036 0)
(-0.0389837 0.0200561 0)
(-0.0478479 0.0162141 0)
(-0.0537358 0.00986112 0)
(-0.0568208 0.00384265 0)
(-0.060487 0.000661305 0)
(-0.0737136 -0.00465862 0)
(-0.0350798 -0.10821 0)
(0.020846 -0.257317 0)
(-0.0523884 -0.120118 0)
(-0.122713 -0.0481637 0)
(-0.141769 -0.0109834 0)
(-0.145776 0.0384837 0)
(-0.119167 0.0956586 0)
(-0.0830991 0.0925027 0)
(-0.0451731 0.0793877 0)
(-0.0184471 0.0565155 0)
(-0.0060833 0.037008 0)
(-0.00112892 0.0241972 0)
(0.000634089 0.0172893 0)
(-0.000169006 0.00149098 0)
(-0.000734476 0.00113428 0)
(-0.00140178 0.0018717 0)
(-0.00245733 0.00301399 0)
(-0.00403563 0.00461159 0)
(-0.00625069 0.00662385 0)
(-0.00916256 0.00898874 0)
(-0.012749 0.0116203 0)
(-0.0170695 0.0145168 0)
(-0.0221711 0.0175923 0)
(-0.029145 0.0211471 0)
(-0.0393247 0.0220914 0)
(-0.0491255 0.0179616 0)
(-0.0554364 0.010909 0)
(-0.0581316 0.00441433 0)
(-0.06033 0.00239624 0)
(-0.0673788 -0.00488517 0)
(0.810791 -0.959994 0)
(-0.0457848 -0.0894363 0)
(-0.139167 -0.0880303 0)
(-0.17186 -0.0370042 0)
(-0.173727 -0.00821378 0)
(-0.167661 0.0311276 0)
(-0.129401 0.0658535 0)
(-0.0847905 0.0652419 0)
(-0.0527163 0.0533365 0)
(-0.030456 0.0396051 0)
(-0.0167839 0.0273377 0)
(-0.00850171 0.0185786 0)
(-0.00307877 0.0136367 0)
(-0.000143433 0.0016558 0)
(-0.000697777 0.00116017 0)
(-0.00132738 0.00193645 0)
(-0.00233549 0.00312405 0)
(-0.0038562 0.00479181 0)
(-0.00600794 0.00689505 0)
(-0.00885743 0.00937301 0)
(-0.0123732 0.0121316 0)
(-0.0166246 0.0152075 0)
(-0.021591 0.0184826 0)
(-0.0285159 0.0227688 0)
(-0.0396441 0.0243508 0)
(-0.0505411 0.0198834 0)
(-0.0573369 0.0119693 0)
(-0.0594898 0.00469677 0)
(-0.0592338 0.00310014 0)
(-0.0554821 -0.0349781 0)
(-0.433432 -0.513094 0)
(-0.159116 -0.0136026 0)
(-0.164894 -0.0680789 0)
(-0.177982 -0.0356594 0)
(-0.171114 -0.0109602 0)
(-0.154911 0.0162597 0)
(-0.121167 0.0364517 0)
(-0.0853425 0.0385104 0)
(-0.0578854 0.0320739 0)
(-0.03794 0.0235677 0)
(-0.0237415 0.0155788 0)
(-0.013462 0.00955815 0)
(-0.00558466 0.00606786 0)
(-0.000109359 0.00185223 0)
(-0.000659469 0.0011808 0)
(-0.00125017 0.00199785 0)
(-0.00220882 0.00322907 0)
(-0.00366887 0.0049663 0)
(-0.00575375 0.00715925 0)
(-0.00853805 0.00974979 0)
(-0.0119784 0.0126308 0)
(-0.0161543 0.0158927 0)
(-0.0209538 0.0193225 0)
(-0.0276901 0.0244688 0)
(-0.0399349 0.0268768 0)
(-0.0521211 0.0220075 0)
(-0.0594972 0.0130446 0)
(-0.0610256 0.0046001 0)
(-0.0577603 0.00211871 0)
(-0.0364506 -0.147544 0)
(-0.0711911 -0.288907 0)
(-0.142359 -0.0274833 0)
(-0.166934 -0.0584404 0)
(-0.171074 -0.0376506 0)
(-0.160083 -0.018155 0)
(-0.140739 0.000676572 0)
(-0.112959 0.0135344 0)
(-0.0845574 0.0164525 0)
(-0.0609056 0.0133494 0)
(-0.0423398 0.0080397 0)
(-0.0279139 0.00266746 0)
(-0.0165145 -0.00155961 0)
(-0.00716026 -0.00405544 0)
(-6.37433e-05 0.00208872 0)
(-0.000619628 0.00119574 0)
(-0.00117031 0.00205577 0)
(-0.00207748 0.00332868 0)
(-0.00347362 0.0051349 0)
(-0.00548799 0.00741613 0)
(-0.00820451 0.0101189 0)
(-0.0115652 0.0131161 0)
(-0.0156595 0.0165759 0)
(-0.0202681 0.0200892 0)
(-0.0266095 0.0262438 0)
(-0.0401905 0.0297232 0)
(-0.0538951 0.0243676 0)
(-0.0619867 0.0141515 0)
(-0.0629062 0.00406799 0)
(-0.0562209 -0.000726948 0)
(0.0917219 -0.137716 0)
(-0.149646 -0.237631 0)
(-0.138074 -0.0341713 0)
(-0.165273 -0.0519863 0)
(-0.1636 -0.0413378 0)
(-0.150475 -0.0270603 0)
(-0.130921 -0.0137455 0)
(-0.107019 -0.00490972 0)
(-0.0830526 -0.00215249 0)
(-0.0620305 -0.00363141 0)
(-0.0445528 -0.00704501 0)
(-0.0301981 -0.0107787 0)
(-0.0182795 -0.0138353 0)
(-0.0081356 -0.0156705 0)
(-2.59698e-06 0.00237602 0)
(-0.000578381 0.00120459 0)
(-0.00108792 0.00211007 0)
(-0.00194165 0.00342243 0)
(-0.00327025 0.00529751 0)
(-0.00521046 0.00766541 0)
(-0.00785686 0.0104805 0)
(-0.0111353 0.013585 0)
(-0.0151403 0.0172635 0)
(-0.0195522 0.0207547 0)
(-0.025193 0.028085 0)
(-0.040407 0.0329574 0)
(-0.0558961 0.027002 0)
(-0.0648801 0.0153244 0)
(-0.0653216 0.00308307 0)
(-0.0552211 -0.00535274 0)
(-0.0400591 0.109732 0)
(-0.156499 -0.205581 0)
(-0.170591 -0.0339271 0)
(-0.166903 -0.0510752 0)
(-0.158326 -0.0465949 0)
(-0.14339 -0.0365883 0)
(-0.124086 -0.0271026 0)
(-0.102453 -0.0208247 0)
(-0.0811243 -0.0185587 0)
(-0.0619259 -0.0193068 0)
(-0.0453767 -0.0216267 0)
(-0.0312901 -0.0243426 0)
(-0.0192303 -0.0266468 0)
(-0.00874018 -0.0280538 0)
(7.92963e-05 0.00272786 0)
(-0.000535935 0.00120707 0)
(-0.00100318 0.0021606 0)
(-0.00180156 0.00350978 0)
(-0.00305829 0.00545424 0)
(-0.0049208 0.00790686 0)
(-0.00749504 0.0108349 0)
(-0.010691 0.0140352 0)
(-0.0145957 0.0179668 0)
(-0.0188397 0.0212865 0)
(-0.0233244 0.0299747 0)
(-0.0405877 0.0366644 0)
(-0.058159 0.0299525 0)
(-0.0682513 0.0166179 0)
(-0.0684776 0.00165776 0)
(-0.0530113 -0.0132365 0)
(-0.137392 0.413283 0)
(-0.201644 -0.168206 0)
(-0.197767 -0.0444722 0)
(-0.169109 -0.0560373 0)
(-0.154664 -0.0534864 0)
(-0.138056 -0.0465142 0)
(-0.11891 -0.0397597 0)
(-0.098656 -0.0352594 0)
(-0.0789996 -0.033526 0)
(-0.0611022 -0.0339798 0)
(-0.0453395 -0.0356839 0)
(-0.0316162 -0.0377782 0)
(-0.0196387 -0.0396079 0)
(-0.00907866 -0.0407436 0)
(0.000188688 0.00316168 0)
(-0.000492617 0.00120303 0)
(-0.000916242 0.00220724 0)
(-0.00165745 0.00358998 0)
(-0.00283676 0.00560562 0)
(-0.00461858 0.00814028 0)
(-0.00711888 0.0111835 0)
(-0.010237 0.0144644 0)
(-0.014022 0.0187034 0)
(-0.0181875 0.0216492 0)
(-0.0208309 0.0318785 0)
(-0.0407511 0.0409486 0)
(-0.0607195 0.0332609 0)
(-0.0721651 0.0181089 0)
(-0.0726341 -0.000169804 0)
(-0.0530661 -0.0173049 0)
(-0.711384 0.226482 0)
(-0.181094 -0.142682 0)
(-0.197854 -0.0690966 0)
(-0.169425 -0.0643504 0)
(-0.151692 -0.0617241 0)
(-0.13379 -0.0567706 0)
(-0.114706 -0.051975 0)
(-0.0953341 -0.0487634 0)
(-0.0767942 -0.0475108 0)
(-0.0598454 -0.0478774 0)
(-0.0447397 -0.0492382 0)
(-0.0314105 -0.0509531 0)
(-0.0196403 -0.0524851 0)
(-0.00917772 -0.0534509 0)
(0.000337749 0.00368178 0)
(-0.000449672 0.00119254 0)
(-0.000828051 0.00224984 0)
(-0.00151022 0.00366192 0)
(-0.0026042 0.0057534 0)
(-0.00430352 0.00836535 0)
(-0.00672823 0.011529 0)
(-0.00978085 0.0148721 0)
(-0.0134132 0.0194991 0)
(-0.0176884 0.0218085 0)
(-0.017445 0.0337383 0)
(-0.0409468 0.0459306 0)
(-0.0636117 0.036964 0)
(-0.0766648 0.019893 0)
(-0.0782134 -0.00225309 0)
(-0.0511276 -0.0270636 0)
(-0.204593 -0.0143601 0)
(-0.176708 -0.125149 0)
(-0.19067 -0.082036 0)
(-0.168334 -0.073508 0)
(-0.149176 -0.0708584 0)
(-0.130353 -0.0672937 0)
(-0.111246 -0.0639164 0)
(-0.0924282 -0.0616581 0)
(-0.0746393 -0.0608089 0)
(-0.0583782 -0.0611762 0)
(-0.0438026 -0.0623377 0)
(-0.0308489 -0.063811 0)
(-0.0193372 -0.0651494 0)
(-0.0090573 -0.0660061 0)
(0.00237147 0.00310712 0)
(-0.00043583 0.0011768 0)
(-0.000771534 0.00228936 0)
(-0.00139307 0.0037244 0)
(-0.0023838 0.00590233 0)
(-0.00398932 0.00858116 0)
(-0.0063263 0.0118774 0)
(-0.00933562 0.0152637 0)
(-0.0127629 0.0203875 0)
(-0.0174867 0.0217362 0)
(-0.0127399 0.0354836 0)
(-0.0412831 0.0517328 0)
(-0.0668639 0.0410825 0)
(-0.0817592 0.0220738 0)
(-0.0857909 -0.00403604 0)
(-0.0204687 -0.0509971 0)
(0.126161 -0.158869 0)
(-0.16907 -0.109159 0)
(-0.185964 -0.0894913 0)
(-0.167373 -0.082703 0)
(-0.147418 -0.080575 0)
(-0.127866 -0.0780565 0)
(-0.108625 -0.0757192 0)
(-0.0901058 -0.0741689 0)
(-0.0727894 -0.0736401 0)
(-0.0569985 -0.0740317 0)
(-0.0428194 -0.0750599 0)
(-0.0301807 -0.0763588 0)
(-0.0189187 -0.0775562 0)
(-0.00884216 -0.0783362 0)
(-6.11641e-05 0.000105232 0)
(0.00031661 0.000112021 0)
(0.00067789 0.000132938 0)
(0.000943493 0.00017097 0)
(0.00102381 0.000217954 0)
(0.000841412 0.000262312 0)
(0.000361563 0.000291668 0)
(-0.000388309 0.000297457 0)
(-0.00131817 0.000277141 0)
(-0.00228645 0.000232791 0)
(-0.00312403 0.00016972 0)
(-0.00366185 9.58591e-05 0)
(-0.00376119 1.99632e-05 0)
(-0.00335 -4.78281e-05 0)
(-0.00242405 -0.000102147 0)
(-0.00104156 -0.000139993 0)
(0.000683397 -0.00015939 0)
(0.002562 -0.000158718 0)
(0.00432729 -0.000138984 0)
(0.00569663 -0.000106206 0)
(0.00647757 -7.04273e-05 0)
(0.0066321 -3.81678e-05 0)
(0.00624807 -1.40283e-05 0)
(0.00547074 2.07996e-06 0)
(0.00446414 1.1378e-05 0)
(0.00339022 1.46991e-05 0)
(0.00238741 1.38951e-05 0)
(0.00154762 1.10604e-05 0)
(0.000899488 8.0439e-06 0)
(0.000397905 6.43705e-06 0)
(0.000655214 -0.0019724 0)
(0.0029064 -0.0019028 0)
(0.00530558 -0.0017275 0)
(0.0077665 -0.00145463 0)
(0.0101975 -0.00112169 0)
(0.0125297 -0.000787945 0)
(0.0147421 -0.000512491 0)
(0.0168654 -0.000335405 0)
(0.0189771 -0.000269404 0)
(0.0211759 -0.000301597 0)
(0.0235478 -0.00039879 0)
(0.0261185 -0.000514168 0)
(0.0288013 -0.000599301 0)
(0.0313726 -0.000619376 0)
(0.0335026 -0.000567583 0)
(0.0348468 -0.00045971 0)
(0.0351451 -0.000312 0)
(0.0342593 -0.000134856 0)
(0.032176 5.43883e-05 0)
(0.0290276 0.000222616 0)
(0.025111 0.000336152 0)
(0.0208307 0.000384648 0)
(0.0165728 0.000380228 0)
(0.0126254 0.000341397 0)
(0.0091726 0.000283453 0)
(0.0063178 0.000218319 0)
(0.0040936 0.000155903 0)
(0.00246237 0.000104027 0)
(0.00131645 6.79748e-05 0)
(0.000471832 5.05675e-05 0)
(0.000717574 -0.004967 0)
(0.0032053 -0.00482473 0)
(0.00582411 -0.00446685 0)
(0.0084525 -0.00391896 0)
(0.0109851 -0.00326667 0)
(0.0133709 -0.00262695 0)
(0.0156293 -0.0021031 0)
(0.0178314 -0.00175584 0)
(0.0200837 -0.00159726 0)
(0.0225021 -0.0015961 0)
(0.0251814 -0.0016842 0)
(0.0281436 -0.00176685 0)
(0.0312797 -0.00174521 0)
(0.0343157 -0.00155343 0)
(0.0368409 -0.00119065 0)
(0.0384186 -0.000718599 0)
(0.0387139 -0.000212776 0)
(0.0375671 0.000269043 0)
(0.0350126 0.00067938 0)
(0.0312819 0.000966856 0)
(0.0267836 0.0010974 0)
(0.0220018 0.00108412 0)
(0.0173544 0.000975086 0)
(0.0131251 0.00081809 0)
(0.00947883 0.000645598 0)
(0.00649702 0.000478581 0)
(0.00419318 0.000332092 0)
(0.00251431 0.000216841 0)
(0.00134101 0.000139164 0)
(0.000480306 0.000101807 0)
(0.000790541 -0.00829436 0)
(0.00360926 -0.00803452 0)
(0.00649212 -0.00738751 0)
(0.00923935 -0.00643559 0)
(0.0117281 -0.0053635 0)
(0.0139556 -0.0043728 0)
(0.016013 -0.00360289 0)
(0.0180277 -0.0031133 0)
(0.020138 -0.00289823 0)
(0.022476 -0.00289939 0)
(0.0251416 -0.00300853 0)
(0.02815 -0.00307844 0)
(0.0313699 -0.00295686 0)
(0.034493 -0.00254501 0)
(0.0370768 -0.00185278 0)
(0.0386731 -0.000993227 0)
(0.0389547 -0.000107107 0)
(0.0377727 0.000697044 0)
(0.0351663 0.00133795 0)
(0.0313756 0.0017449 0)
(0.0268239 0.00188578 0)
(0.0220067 0.00180219 0)
(0.0173414 0.00158149 0)
(0.0131055 0.00130154 0)
(0.00945857 0.00101148 0)
(0.0064793 0.000740781 0)
(0.0041795 0.000509192 0)
(0.00250509 0.000330024 0)
(0.0013361 0.000210453 0)
(0.000479436 0.000152944 0)
(0.000916576 -0.012229 0)
(0.00435044 -0.0117447 0)
(0.00766916 -0.0105685 0)
(0.0105336 -0.00895789 0)
(0.0128561 -0.00730695 0)
(0.0147784 -0.0059201 0)
(0.0165183 -0.00492741 0)
(0.0182665 -0.00434328 0)
(0.0201857 -0.00412347 0)
(0.0224211 -0.00417503 0)
(0.0250771 -0.0043441 0)
(0.0281574 -0.00442519 0)
(0.0314969 -0.00420841 0)
(0.0347347 -0.00356462 0)
(0.037382 -0.00252447 0)
(0.0389777 -0.00126355 0)
(0.0392162 9.01698e-06 0)
(0.0379715 0.0011374 0)
(0.0352938 0.00200912 0)
(0.0314319 0.00253367 0)
(0.0268236 0.00268094 0)
(0.0219744 0.00252323 0)
(0.0172979 0.00218863 0)
(0.0130625 0.00178476 0)
(0.00942117 0.00137682 0)
(0.00644941 0.00100236 0)
(0.00415764 0.000685712 0)
(0.00249082 0.000442724 0)
(0.00132861 0.000281344 0)
(0.00047806 0.000203603 0)
(0.0011449 -0.0173536 0)
(0.00579214 -0.016357 0)
(0.00978662 -0.0140756 0)
(0.0126034 -0.0113288 0)
(0.0144487 -0.00891047 0)
(0.0158218 -0.00714213 0)
(0.0171048 -0.00600625 0)
(0.0185109 -0.00540757 0)
(0.0201977 -0.00525508 0)
(0.022318 -0.00542174 0)
(0.0249812 -0.00570228 0)
(0.0281747 -0.00582531 0)
(0.0316864 -0.00551742 0)
(0.0350821 -0.00462172 0)
(0.0378094 -0.00320562 0)
(0.0393961 -0.00152411 0)
(0.0395683 0.00014241 0)
(0.0382335 0.00159622 0)
(0.0354567 0.00269804 0)
(0.0314982 0.00333674 0)
(0.0268158 0.00348459 0)
(0.0219267 0.00324758 0)
(0.0172377 0.00279626 0)
(0.0130046 0.00226738 0)
(0.00937145 0.00174124 0)
(0.00641009 0.00126299 0)
(0.00412908 0.0008614 0)
(0.00247228 0.000554753 0)
(0.0013189 0.000351692 0)
(0.000476354 0.000253615 0)
(0.00162641 -0.0251219 0)
(0.00897452 -0.0226416 0)
(0.0137878 -0.0177322 0)
(0.0158043 -0.0130545 0)
(0.0164902 -0.00983096 0)
(0.0169872 -0.0078846 0)
(0.0176948 -0.00677576 0)
(0.0187053 -0.00627459 0)
(0.0201291 -0.00627996 0)
(0.0221319 -0.0066435 0)
(0.0248315 -0.00710023 0)
(0.0281936 -0.00730272 0)
(0.0319432 -0.00690532 0)
(0.0355463 -0.00572797 0)
(0.0383688 -0.00389672 0)
(0.0399322 -0.00176942 0)
(0.0400123 0.000299729 0)
(0.0385594 0.00208001 0)
(0.0356547 0.00341044 0)
(0.031574 0.00415826 0)
(0.0267996 0.00429887 0)
(0.021863 0.00397585 0)
(0.0171606 0.0034043 0)
(0.0129315 0.0027491 0)
(0.00930939 0.00210445 0)
(0.00636134 0.00152241 0)
(0.00409386 0.00103603 0)
(0.0024495 0.000665936 0)
(0.00130698 0.000421361 0)
(0.0004744 0.000302804 0)
(0.00326167 -0.0402458 0)
(0.0174785 -0.0318614 0)
(0.0215926 -0.020068 0)
(0.0202177 -0.0128732 0)
(0.0186267 -0.00959743 0)
(0.018043 -0.00804433 0)
(0.0181817 -0.00720975 0)