/*--------------------------------*- C++ -*----------------------------------*\
| =========                 |                                                 |
| \\      /  F ield         | OpenFOAM: The Open Source CFD Toolbox           |
|  \\    /   O peration     | Version:  2.4.0                                 |
|   \\  /    A nd           | Web:      www.OpenFOAM.org                      |
|    \\/     M anipulation  |                                                 |
\*---------------------------------------------------------------------------*/
FoamFile
{
    version     2.0;
    format      ascii;
    class       volVectorField;
    location    "0.193";
    object      U;
}
// * * * * * * * * * * * * * * * * * * * * * * * * * * * * * * * * * * * * * //

dimensions      [0 1 -1 0 0 0 0];

internalField   nonuniform List<vector> 
3600
(
(0.00612125 -0.000381721 0)
(0.0177097 -0.000222696 0)
(0.0254355 1.25294e-05 0)
(0.0250026 0.000232561 0)
(0.0208743 0.000348707 0)
(0.0134991 0.000405522 0)
(0.00805343 0.000248746 0)
(0.00158596 0.000206473 0)
(0.000367625 7.95971e-05 0)
(-0.00534144 -5.26832e-05 0)
(-0.000845295 -0.000187206 0)
(-0.00453494 0.000105668 0)
(-0.0060965 -4.58108e-05 0)
(-0.00659622 -0.000235086 0)
(-0.0109812 3.68936e-05 0)
(-0.00738728 -0.00117217 0)
(0.00153052 -0.00222844 0)
(0.0129676 -0.000184213 0)
(0.0108138 -0.000739074 0)
(0.00787911 -0.000439827 0)
(-0.0169733 0.00684672 0)
(-0.0576789 0.0100515 0)
(-0.0609372 0.00251882 0)
(-0.0652796 0.00281464 0)
(-0.0596466 -0.00255509 0)
(-0.0414114 -0.0055433 0)
(-0.0295032 -0.00320716 0)
(-0.0203513 -0.00356561 0)
(-0.0120293 -0.00312302 0)
(-0.00478967 -0.00259322 0)
(0.00581782 -0.00131014 0)
(0.0200227 -0.00120272 0)
(0.0340461 -0.000560617 0)
(0.0379292 0.000274036 0)
(0.0369189 0.000781641 0)
(0.0314617 0.00115815 0)
(0.0276135 0.000960785 0)
(0.0186355 0.000986193 0)
(0.0195187 0.000905673 0)
(0.00614762 0.000328216 0)
(0.0160919 -6.03848e-05 0)
(0.00449198 0.00117578 0)
(0.004609 0.000574002 0)
(0.000484183 0.00116228 0)
(-0.0118111 0.000551263 0)
(-0.00435548 -0.00291357 0)
(-0.00656679 -0.00570398 0)
(0.00326551 -0.00237926 0)
(0.000774755 0.00253676 0)
(-0.0286163 0.0145215 0)
(-0.0761775 0.0272769 0)
(-0.0955597 0.0153616 0)
(-0.0794587 0.000415804 0)
(-0.0814926 -0.000241241 0)
(-0.058175 -0.0185529 0)
(-0.0463566 -0.0213457 0)
(-0.0307503 -0.016595 0)
(-0.0216366 -0.0144732 0)
(-0.0134508 -0.0148368 0)
(-0.00477776 -0.0147113 0)
(0.00479967 -0.00213969 0)
(0.0184694 -0.00224962 0)
(0.0336834 -0.0013304 0)
(0.0386925 0.000111521 0)
(0.0388226 0.000976526 0)
(0.0347692 0.0016432 0)
(0.0327098 0.00140833 0)
(0.0240471 0.00153835 0)
(0.0280179 0.00169295 0)
(0.0115337 0.000612751 0)
(0.026929 -6.34642e-05 0)
(0.0112724 0.00249116 0)
(0.0157373 0.000894387 0)
(0.0134857 0.00352294 0)
(-0.00264139 0.00156275 0)
(0.00625694 -0.00266654 0)
(-0.00452358 -0.00485517 0)
(-0.00906543 -0.00192621 0)
(-0.0199426 0.0131736 0)
(-0.0603454 0.0322999 0)
(-0.0974025 0.0385648 0)
(-0.0892816 0.0110111 0)
(-0.0757978 -0.0062456 0)
(-0.0713709 -0.00970114 0)
(-0.0446954 -0.0321477 0)
(-0.0392603 -0.0316736 0)
(-0.0271408 -0.0277131 0)
(-0.0178937 -0.0220767 0)
(-0.0108932 -0.0228065 0)
(-0.0054655 -0.0244997 0)
(0.00439233 -0.00292776 0)
(0.0178347 -0.00330387 0)
(0.0332744 -0.00211958 0)
(0.0383703 -6.39165e-05 0)
(0.0386589 0.00115058 0)
(0.0348616 0.00207268 0)
(0.0333134 0.00181365 0)
(0.0248454 0.00194382 0)
(0.0303093 0.00250377 0)
(0.0119939 0.000659838 0)
(0.0317263 -0.000209614 0)
(0.0111815 0.00360019 0)
(0.0236391 0.000224399 0)
(0.0230546 0.00561596 0)
(0.0064933 0.00271142 0)
(0.0149434 -0.0019367 0)
(-0.00100651 -0.000730032 0)
(-0.0174263 0.00291215 0)
(-0.0316679 0.025607 0)
(-0.0672897 0.0456464 0)
(-0.0935915 0.0420674 0)
(-0.0760476 0.00554816 0)
(-0.0712704 -0.0153296 0)
(-0.0523563 -0.0231914 0)
(-0.0345304 -0.0411251 0)
(-0.0292963 -0.0406898 0)
(-0.0230006 -0.0388573 0)
(-0.0144468 -0.0327954 0)
(-0.00836983 -0.0279944 0)
(-0.00569434 -0.0303475 0)
(0.00427447 -0.00369351 0)
(0.01771 -0.00436111 0)
(0.0333014 -0.00291241 0)
(0.0383868 -0.000243514 0)
(0.0386514 0.00132373 0)
(0.034788 0.00249086 0)
(0.0332772 0.00220085 0)
(0.0248844 0.00228949 0)
(0.0307445 0.00338017 0)
(0.0111296 0.000490767 0)
(0.0340225 -4.15384e-05 0)
(0.00616194 0.00423864 0)
(0.0308216 -0.00152363 0)
(0.0279689 0.00737934 0)
(0.0142862 0.00407994 0)
(0.0224868 -0.000135901 0)
(0.0029472 0.00640305 0)
(-0.0232284 0.0102943 0)
(-0.0392082 0.0360164 0)
(-0.0578112 0.0554087 0)
(-0.0682827 0.0448913 0)
(-0.0453594 0.00448506 0)
(-0.039111 -0.0238643 0)
(-0.0181188 -0.0357375 0)
(-0.00448682 -0.044075 0)
(0.00303849 -0.0422822 0)
(0.00165175 -0.0388885 0)
(-0.00420525 -0.0370472 0)
(-0.00436124 -0.031031 0)
(-0.00505975 -0.0304881 0)
(0.00423989 -0.00446016 0)
(0.0177044 -0.0054259 0)
(0.0334621 -0.00371069 0)
(0.0385667 -0.000422801 0)
(0.0387842 0.00150759 0)
(0.0348063 0.00291673 0)
(0.0332296 0.0025791 0)
(0.0249836 0.00262533 0)
(0.0306907 0.00433054 0)
(0.010484 0.000173016 0)
(0.035001 0.00069434 0)
(0.000458567 0.00424358 0)
(0.0360671 -0.00452786 0)
(0.0262663 0.00886897 0)
(0.0219829 0.00477972 0)
(0.0290285 0.00159455 0)
(0.011681 0.0146963 0)
(-0.0178786 0.0181654 0)
(-0.0304937 0.0410381 0)
(-0.0374259 0.0566084 0)
(-0.0429659 0.0402871 0)
(-0.0247264 -0.00500132 0)
(-0.0158736 -0.0359663 0)
(0.000155279 -0.0495499 0)
(0.0111444 -0.0528709 0)
(0.014489 -0.0455744 0)
(0.0161249 -0.0316183 0)
(0.00892294 -0.0258354 0)
(0.00120504 -0.0263422 0)
(-0.00252414 -0.0256369 0)
(0.00422246 -0.00522693 0)
(0.0177144 -0.00649897 0)
(0.0336689 -0.00451648 0)
(0.0388107 -0.000602843 0)
(0.0389708 0.00170582 0)
(0.0348623 0.00335298 0)
(0.0331872 0.00294335 0)
(0.0252184 0.00297671 0)
(0.0304116 0.00532015 0)
(0.0104712 -0.000203766 0)
(0.0353164 0.00180463 0)
(-0.00168058 0.00377522 0)
(0.0372014 -0.0067407 0)
(0.0127217 0.00991667 0)
(0.0299077 0.00424345 0)
(0.0312264 0.00247341 0)
(0.0225457 0.0223111 0)
(-0.00516277 0.0254256 0)
(-0.0173217 0.0419046 0)
(-0.00908141 0.0566395 0)
(-0.0119372 0.0389185 0)
(0.00372419 -0.00878398 0)
(0.012588 -0.0407331 0)
(0.0175329 -0.0558321 0)
(0.0178928 -0.0551436 0)
(0.0170782 -0.0480931 0)
(0.0179431 -0.0343048 0)
(0.0175878 -0.0216559 0)
(0.00968877 -0.0176537 0)
(0.00136617 -0.0179213 0)
(0.00420512 -0.00599414 0)
(0.0177218 -0.00758157 0)
(0.0339104 -0.00533173 0)
(0.0391012 -0.000784243 0)
(0.039193 0.00192002 0)
(0.0349312 0.00380277 0)
(0.0331351 0.00328573 0)
(0.0255762 0.00335827 0)
(0.0299187 0.00631247 0)
(0.0111713 -0.000626472 0)
(0.0353253 0.00291309 0)
(0.000899532 0.00349268 0)
(0.0346654 -0.00636913 0)
(-0.00676005 0.00999694 0)
(0.0335441 0.000526867 0)
(0.0249084 0.00287821 0)
(0.0258979 0.0272576 0)
(0.00847867 0.0328698 0)
(-0.0110481 0.042015 0)
(0.00338133 0.0514597 0)
(0.0101166 0.0345543 0)
(0.032574 -0.0146463 0)
(0.0369977 -0.0430303 0)
(0.0354653 -0.0536495 0)
(0.0295774 -0.0519915 0)
(0.02488 -0.0442196 0)
(0.0191469 -0.0318702 0)
(0.016782 -0.0178858 0)
(0.0111339 -0.00920741 0)
(0.00443557 -0.00802971 0)
(0.00418399 -0.00676097 0)
(0.0177231 -0.00867507 0)
(0.0341859 -0.00615833 0)
(0.039437 -0.000967406 0)
(0.03945 0.00215273 0)
(0.0350046 0.0042681 0)
(0.0330795 0.00359747 0)
(0.0260217 0.00379193 0)
(0.0291947 0.00725641 0)
(0.0125613 -0.00106954 0)
(0.0343555 0.00366619 0)
(0.00696977 0.00366107 0)
(0.0329573 -0.00409037 0)
(-0.0157199 0.00881297 0)
(0.028658 -0.00305252 0)
(0.00933529 0.0040324 0)
(0.0242847 0.0303858 0)
(0.0157348 0.0388747 0)
(0.0064334 0.0444343 0)
(0.0178607 0.045583 0)
(0.0280152 0.0242854 0)
(0.0536331 -0.0202525 0)
(0.0507914 -0.0426846 0)
(0.0423911 -0.0498449 0)
(0.0326326 -0.0476181 0)
(0.0275425 -0.0390413 0)
(0.0203809 -0.0273912 0)
(0.0158214 -0.0126515 0)
(0.0104162 -0.00298599 0)
(0.00501724 -0.00186526 0)
(0.00415819 -0.00752725 0)
(0.0177168 -0.009781 0)
(0.0344957 -0.00699826 0)
(0.0398196 -0.00115282 0)
(0.0397427 0.00240828 0)
(0.0350769 0.00474859 0)
(0.0330362 0.00387388 0)
(0.0264829 0.00428998 0)
(0.028375 0.00811474 0)
(0.0139902 -0.00141797 0)
(0.0318841 0.00388813 0)
(0.0142703 0.00379276 0)
(0.0320307 -0.000833989 0)
(-0.0132382 0.0091089 0)
(0.0231197 -0.00462238 0)
(-3.51322e-05 0.00296361 0)
(0.0276668 0.0282478 0)
(0.018314 0.039774 0)
(0.023323 0.0426455 0)
(0.0390462 0.0412062 0)
(0.0515217 0.0173276 0)
(0.0661789 -0.0203931 0)
(0.0515312 -0.0374524 0)
(0.0423283 -0.0433961 0)
(0.0319166 -0.0416821 0)
(0.0267318 -0.0323688 0)
(0.018121 -0.0209855 0)
(0.012793 -0.00681743 0)
(0.00806853 0.00293431 0)
(0.00373614 0.00422102 0)
(0.00412758 -0.00829298 0)
(0.0177014 -0.010901 0)
(0.0348401 -0.00785342 0)
(0.0402511 -0.00134106 0)
(0.0400722 0.0026903 0)
(0.0351461 0.00524553 0)
(0.0330084 0.00411569 0)
(0.0269274 0.00485581 0)
(0.0276355 0.00889816 0)
(0.0146993 -0.00152959 0)
(0.0289551 0.00339091 0)
(0.0205604 0.0040241 0)
(0.0286848 0.00221817 0)
(-0.00466301 0.00937846 0)
(0.0221733 -0.00512074 0)
(0.00351706 0.0007543 0)
(0.0308575 0.0258739 0)
(0.0223894 0.0388491 0)
(0.0303217 0.0357227 0)
(0.0491279 0.0318809 0)
(0.0645329 0.0105943 0)
(0.0616991 -0.015404 0)
(0.0449586 -0.0321049 0)
(0.0425153 -0.0390495 0)
(0.0347779 -0.0371077 0)
(0.0294127 -0.0268797 0)
(0.018352 -0.013706 0)
(0.0108764 -0.00106382 0)
(0.00622647 0.007188 0)
(0.0035166 0.00753945 0)
(0.00409212 -0.0090575 0)
(0.0176751 -0.0120366 0)
(0.0352193 -0.0087258 0)
(0.0407338 -0.00153292 0)
(0.0404393 0.00300374 0)
(0.0352102 0.00575718 0)
(0.0329907 0.00432486 0)
(0.027382 0.00547263 0)
(0.0270371 0.00970714 0)
(0.0144675 -0.00153305 0)
(0.0276997 0.00234885 0)
(0.023992 0.0046128 0)
(0.0230386 0.00485781 0)
(0.00565975 0.0102122 0)
(0.0234663 -0.0053571 0)
(0.0155912 -0.00139217 0)
(0.0280495 0.0221817 0)
(0.0286889 0.0381758 0)
(0.0341991 0.0307308 0)
(0.0466036 0.0231343 0)
(0.0579414 0.00865134 0)
(0.0534897 -0.00818236 0)
(0.0472529 -0.0279555 0)
(0.0452104 -0.0352132 0)
(0.0372956 -0.0313967 0)
(0.0310982 -0.0195032 0)
(0.0173603 -0.005893 0)
(0.00830058 0.00610467 0)
(0.00535327 0.0107219 0)
(0.00372517 0.00895045 0)
(0.00405183 -0.00981991 0)
(0.0176359 -0.0131894 0)
(0.035633 -0.00961768 0)
(0.0412697 -0.00172913 0)
(0.0408448 0.00335285 0)
(0.0352649 0.00628545 0)
(0.0329795 0.00449326 0)
(0.0279075 0.00614753 0)
(0.0263941 0.0105964 0)
(0.0139735 -0.00156975 0)
(0.0276366 0.000992924 0)
(0.0258753 0.00612021 0)
(0.0179396 0.0057284 0)
(0.0154798 0.00809209 0)
(0.0253731 -0.00646086 0)
(0.024359 -0.0017843 0)
(0.0225772 0.0223104 0)
(0.0263384 0.0362825 0)
(0.0348284 0.0282499 0)
(0.0440162 0.0186939 0)
(0.0471918 0.00776322 0)
(0.0528632 -0.00713158 0)
(0.0473366 -0.0257226 0)
(0.039235 -0.0311712 0)
(0.0303789 -0.0259048 0)
(0.0246259 -0.00790532 0)
(0.0165809 0.00828161 0)
(0.0117462 0.011018 0)
(0.00679148 0.0126622 0)
(0.0044615 0.0111747 0)
(0.00400666 -0.0105799 0)
(0.0175812 -0.0143608 0)
(0.0360811 -0.0105317 0)
(0.0418612 -0.00193041 0)
(0.0412898 0.00374421 0)
(0.0353046 0.00682956 0)
(0.0329855 0.00461942 0)
(0.0285001 0.006874 0)
(0.0256475 0.0116327 0)
(0.0134552 -0.00169445 0)
(0.0276957 -0.000525005 0)
(0.0271535 0.00771244 0)
(0.0148708 0.00700042 0)
(0.0187125 0.0078884 0)
(0.0283165 -0.00689644 0)
(0.0217065 -0.00180315 0)
(0.023224 0.0230365 0)
(0.023127 0.0328901 0)
(0.0342384 0.0241112 0)
(0.0405271 0.0174786 0)
(0.0426441 0.00644533 0)
(0.0498396 -0.00716252 0)
(0.041739 -0.0197299 0)
(0.0338938 -0.0247082 0)
(0.0248928 -0.0221506 0)
(0.0199996 -0.00973749 0)
(0.0189662 0.00495416 0)
(0.0120469 0.0153318 0)
(0.00279313 0.019692 0)
(0.00630925 0.0102694 0)
(0.00395662 -0.0113369 0)
(0.0175081 -0.0155526 0)
(0.0365637 -0.0114708 0)
(0.0425112 -0.00213737 0)
(0.0417749 0.00418394 0)
(0.0353271 0.00738772 0)
(0.0330061 0.00468589 0)
(0.0291714 0.00770964 0)
(0.024762 0.0127269 0)
(0.01303 -0.00208376 0)
(0.0266664 -0.00209402 0)
(0.029005 0.0100415 0)
(0.0157761 0.00645433 0)
(0.0234599 0.00437446 0)
(0.0293262 -0.00470737 0)
(0.0215884 -0.00138688 0)
(0.0283086 0.0231902 0)
(0.021853 0.0295136 0)
(0.0280733 0.0213001 0)
(0.0372011 0.0139122 0)
(0.0394982 0.00278433 0)
(0.0407576 -0.00700075 0)
(0.037034 -0.0163319 0)
(0.029582 -0.0170869 0)
(0.0123805 -0.0130364 0)
(0.00151047 -0.000704868 0)
(0.000424046 0.0170544 0)
(-0.00593408 0.0257164 0)
(-0.00274128 0.01673 0)
(0.00487565 0.00285753 0)
(0.00390168 -0.01209 0)
(0.0174134 -0.0167671 0)
(0.0370802 -0.0124382 0)
(0.0432226 -0.00235058 0)
(0.0423036 0.00467571 0)
(0.0353252 0.00795271 0)
(0.0330446 0.00472443 0)
(0.0298959 0.00850202 0)
(0.023947 0.0140632 0)
(0.0121058 -0.00200882 0)
(0.0259638 -0.00433103 0)
(0.0319545 0.011569 0)
(0.0152116 0.00766005 0)
(0.00716306 0.00322517 0)
(0.0284156 -0.0058811 0)
(0.0232234 -0.00348584 0)
(0.0374583 0.0256311 0)
(0.0198324 0.0322146 0)
(0.0283542 0.0176069 0)
(0.0400385 0.0127705 0)
(0.030022 0.00422035 0)
(0.0400164 -0.00561171 0)
(0.0386508 -0.0126494 0)
(0.0319898 -0.00825793 0)
(0.0184642 -0.00205033 0)
(-0.000906238 0.00130823 0)
(-0.00645307 0.0163992 0)
(-0.0107508 0.0214329 0)
(-0.00464584 0.00577407 0)
(-0.00433154 -0.00210205 0)
(0.00384173 -0.0128394 0)
(0.0172944 -0.0180034 0)
(0.0376264 -0.0134373 0)
(0.0439978 -0.0025711 0)
(0.0428817 0.00523042 0)
(0.035287 0.008539 0)
(0.033069 0.00462779 0)
(0.0308174 0.0096896 0)
(0.0228294 0.0153715 0)
(0.010195 -0.00288645 0)
(0.0274863 -0.00632275 0)
(0.0343802 0.0137344 0)
(0.0181954 0.0104825 0)
(0.016406 0.000464415 0)
(0.0287558 -0.00658099 0)
(0.0294686 -0.0059488 0)
(0.040961 0.0240965 0)
(0.0400278 0.0309074 0)
(0.037051 0.0150011 0)
(0.0314102 0.0138553 0)
(0.0255502 0.00196537 0)
(0.0376274 -0.0115842 0)
(0.0272403 -0.0104268 0)
(0.0177728 -0.00281093 0)
(0.0181586 0.00978536 0)
(0.00628025 0.0176672 0)
(-0.00302557 0.0222733 0)
(-0.0051915 0.0218033 0)
(-0.00353788 0.00801829 0)
(-0.00939061 -0.000253328 0)
(0.0037767 -0.0135811 0)
(0.017152 -0.0192611 0)
(0.0381792 -0.0144714 0)
(0.04484 -0.00280109 0)
(0.0435144 0.00586021 0)
(0.0351556 0.00911095 0)
(0.0331828 0.00462504 0)
(0.0316833 0.0100991 0)
(0.0236451 0.0170016 0)
(0.00708896 -0.00276409 0)
(0.0280333 -0.0100285 0)
(0.0374351 0.0150888 0)
(0.013195 0.0113134 0)
(0.00613037 -1.90965e-05 0)
(0.027256 -0.00764666 0)
(0.0258639 -0.00843575 0)
(0.0405139 0.0243713 0)
(0.041266 0.0320215 0)
(0.0363541 0.0210118 0)
(0.0212408 0.0195643 0)
(0.0277348 -0.00173502 0)
(0.020363 -0.00463476 0)
(-3.83408e-05 0.000564958 0)
(-0.00324487 -0.00126869 0)
(0.00609017 0.00813552 0)
(0.010745 0.0212979 0)
(0.00732069 0.026687 0)
(0.00831655 0.0243789 0)
(0.00871001 0.0137783 0)
(0.00238653 0.00780282 0)
(0.00370637 -0.0143161 0)
(0.0170042 -0.0205496 0)
(0.0386463 -0.0155452 0)
(0.0457516 -0.0030451 0)
(0.0441634 0.0065681 0)
(0.0348776 0.00973012 0)
(0.0332356 0.00421181 0)
(0.0337465 0.0123168 0)
(0.0177569 0.0195394 0)
(0.0107875 -0.00453929 0)
(0.0243469 -0.0121747 0)
(0.0396188 0.0201342 0)
(0.00824089 0.0161636 0)
(-0.00230998 -0.00438557 0)
(0.0346382 -0.0117295 0)
(0.02242 -0.0110841 0)
(0.0396936 0.0203349 0)
(0.03313 0.032275 0)
(0.0296297 0.0233184 0)
(0.0287087 0.0197079 0)
(0.0172962 0.00146522 0)
(-0.00866652 0.00443318 0)
(-0.0190743 0.00497644 0)
(-0.0170915 -0.00684352 0)
(-0.0111433 -0.000587433 0)
(0.00316182 0.0169893 0)
(0.0069579 0.0235985 0)
(0.0126677 0.0213692 0)
(0.0150966 0.0169286 0)
(0.011123 0.0163455 0)
(0.00362997 -0.015049 0)
(0.0169223 -0.0218638 0)
(0.0387221 -0.0166646 0)
(0.0467101 -0.00331478 0)
(0.0446505 0.00737422 0)
(0.0342472 0.0102879 0)
(0.0340036 0.0040247 0)
(0.0335386 0.0118861 0)
(0.0265553 0.0197428 0)
(-0.00246104 -0.00365707 0)
(0.018197 -0.0174035 0)
(0.0430936 0.0183743 0)
(-0.00199883 0.0183754 0)
(0.00958277 -0.00682365 0)
(0.0437679 -0.0110038 0)
(0.0181679 -0.0112446 0)
(0.0368576 0.0234692 0)
(0.0122065 0.0326815 0)
(0.0243383 0.0219951 0)
(0.0194556 0.0252728 0)
(0.0224127 0.017122 0)
(-0.0177192 0.0153757 0)
(-0.029867 0.00603322 0)
(-0.0261302 -0.0101227 0)
(-0.0270237 -0.00757167 0)
(-0.0114245 0.00859136 0)
(-0.00356601 0.0165147 0)
(0.00367975 0.0142905 0)
(0.0100326 0.0166323 0)
(0.00876144 0.0218709 0)
(0.00354524 -0.0157925 0)
(0.0170978 -0.0231673 0)
(0.0375833 -0.0178298 0)
(0.0475518 -0.00363141 0)
(0.0443965 0.00830546 0)
(0.0332156 0.0108121 0)
(0.0335801 0.00378441 0)
(0.0379438 0.0152438 0)
(0.00641264 0.0250458 0)
(0.0149102 -0.0047813 0)
(0.0131361 -0.0186452 0)
(0.0415911 0.0304021 0)
(-0.0203818 0.0233049 0)
(0.000146929 -0.0190338 0)
(0.0719268 -0.0118605 0)
(0.0272865 -0.00955892 0)
(0.0335791 0.0248899 0)
(0.00690236 0.0362909 0)
(0.0224778 0.0214628 0)
(-0.00861905 0.022296 0)
(0.0221987 0.0205751 0)
(-0.00489663 0.0293285 0)
(-0.0161531 0.011094 0)
(-0.0151858 -0.00920009 0)
(-0.0232806 -0.0132437 0)
(-0.0191493 -0.0011772 0)
(-0.0113637 0.00780999 0)
(-0.00559992 0.0066151 0)
(-0.00131732 0.0141311 0)
(0.00174134 0.0244421 0)
(0.0034314 -0.0164624 0)
(0.0178632 -0.0243889 0)
(0.0335253 -0.0190272 0)
(0.0476342 -0.0040247 0)
(0.0421115 0.00926652 0)
(0.0306049 0.0112299 0)
(0.0323068 0.00198603 0)
(0.0331616 0.0151399 0)
(0.0266156 0.0238413 0)
(0.0126999 -0.00415572 0)
(0.00631313 -0.0285121 0)
(0.0826436 0.0246248 0)
(0.00601866 0.0283204 0)
(-0.0355669 -0.0286166 0)
(0.0841072 -0.0156139 0)
(0.0498269 0.00157266 0)
(0.0249765 0.0296978 0)
(0.0134945 0.0357354 0)
(0.0218235 0.0288729 0)
(-0.00845536 0.026048 0)
(-6.55865e-05 0.0136052 0)
(0.020686 0.0363869 0)
(0.00608276 0.0175418 0)
(0.00343039 -0.00420475 0)
(-0.0059834 -0.00730195 0)
(-0.0080576 -0.00134659 0)
(-0.00754203 0.00328484 0)
(-0.0051087 0.0040331 0)
(-0.00634678 0.00918338 0)
(-0.00228417 0.0178209 0)
(0.00326556 -0.0174159 0)
(0.0193935 -0.0253167 0)
(0.0242038 -0.0202047 0)
(0.0453252 -0.00453328 0)
(0.0355111 0.010695 0)
(0.0238349 0.011768 0)
(0.0193768 0.00385521 0)
(0.016828 0.0171867 0)
(0.0152544 0.0273899 0)
(-0.00373197 -0.00246885 0)
(-0.0212267 -0.0314902 0)
(0.0276373 0.0327745 0)
(-0.00419788 0.0428563 0)
(-0.070847 -0.0421605 0)
(0.0522579 -0.0338208 0)
(0.0526978 0.0107015 0)
(0.0205373 0.0331924 0)
(0.0253513 0.0318285 0)
(0.028783 0.0325029 0)
(0.0169031 0.0299281 0)
(-0.00559052 0.00483016 0)
(0.0274675 0.0312932 0)
(0.0154712 0.0235447 0)
(0.0145942 -0.00104825 0)
(0.00189123 -0.00541058 0)
(0.0018318 -0.000556661 0)
(0.00109946 0.00423681 0)
(0.000930616 0.00570398 0)
(-0.00259086 0.00924834 0)
(-0.0026233 0.014009 0)
(0.00335707 -0.0179175 0)
(0.0207696 -0.0258912 0)
(0.00878592 -0.0211748 0)
(0.0382826 -0.00489181 0)
(0.0231979 0.0118238 0)
(0.00695632 0.0127489 0)
(0.00646398 0.000877377 0)
(0.0261112 0.0163525 0)
(-0.0148936 0.028538 0)
(-0.00693708 0.000398063 0)
(-0.0562857 -0.0302435 0)
(-0.0273719 0.0300578 0)
(-0.0356735 0.0490325 0)
(-0.0669202 -0.0509041 0)
(-0.00823298 -0.0532025 0)
(0.026349 0.0121391 0)
(0.00397418 0.0371165 0)
(0.0141325 0.0347609 0)
(0.0015583 0.0384761 0)
(0.023829 0.0398502 0)
(0.00189107 0.00997293 0)
(0.0119412 0.0211114 0)
(0.0211453 0.0249579 0)
(0.0197992 0.00666134 0)
(0.00304049 0.00158515 0)
(0.00423484 0.000186465 0)
(0.00304244 0.00402047 0)
(0.00261014 0.00813905 0)
(-0.000709698 0.0129279 0)
(-0.00404174 0.0161915 0)
(0.000669973 -0.0192874 0)
(0.0186864 -0.0258827 0)
(-0.00779172 -0.0217654 0)
(0.0258071 -0.00511919 0)
(0.0120573 0.013979 0)
(-0.00458266 0.0135436 0)
(-0.029805 0.00225527 0)
(-0.0420609 0.0214031 0)
(-0.00432409 0.030313 0)
(-0.0232448 0.0029436 0)
(-0.0478589 -0.033091 0)
(-0.0291812 0.0277007 0)
(-0.0333258 0.0506631 0)
(-0.0277538 -0.0505814 0)
(-0.0587413 -0.0574049 0)
(-0.0135924 0.0148367 0)
(-0.0414679 0.0392651 0)
(-0.0416151 0.0283605 0)
(0.0011963 0.027583 0)
(0.040249 0.034883 0)
(0.0347059 0.00965009 0)
(0.0192667 0.0186579 0)
(0.0207914 0.0199102 0)
(0.0121944 0.0114289 0)
(-0.00258039 0.00531392 0)
(-8.76506e-05 -0.000350295 0)
(-0.00414901 0.00562346 0)
(-0.00132116 0.00978744 0)
(-0.00225009 0.0167926 0)
(-0.00407824 0.0205596 0)
(0.00799554 -0.0190833 0)
(0.0062592 -0.0243275 0)
(-0.0138338 -0.0232192 0)
(0.00236391 -0.00940672 0)
(-0.00860756 0.0139567 0)
(-0.0318757 0.0179336 0)
(-0.125867 0.00451109 0)
(-0.118638 0.0130453 0)
(0.0335446 0.0277184 0)
(-0.047759 0.00862233 0)
(-0.070269 -0.0308717 0)
(-0.0606282 0.0271898 0)
(-0.0346307 0.0513992 0)
(-0.00797574 -0.0461561 0)
(-0.0759231 -0.054964 0)
(-0.0382123 0.0107618 0)
(-0.0569222 0.0442234 0)
(-0.0474965 0.0148653 0)
(-0.0014345 0.00158306 0)
(0.0353594 0.0247862 0)
(0.0064017 0.0216666 0)
(-0.00449376 0.0291547 0)
(0.0186773 0.0293551 0)
(0.000815701 0.0244577 0)
(-0.00710003 0.0105187 0)
(-0.00654248 0.00273813 0)
(-0.00666394 0.00510086 0)
(-0.00257865 0.00792254 0)
(-0.00224233 0.0169127 0)
(-0.000709332 0.0223055 0)
(-0.0127363 -0.0203144 0)
(-0.0132029 -0.0248274 0)
(0.0201783 -0.0217049 0)
(-0.257975 0.000756688 0)
(-0.227555 0.0181263 0)
(-0.100902 0.0231282 0)
(-0.102109 0.0096804 0)
(-0.117703 0.000529599 0)
(-0.0174034 0.0227215 0)
(-0.0302964 0.0167911 0)
(-0.0979198 -0.0276309 0)
(-0.0983337 0.0283085 0)
(-0.0512894 0.0418572 0)
(-0.0210981 -0.0448655 0)
(-0.0963218 -0.0458537 0)
(-0.0896376 0.010688 0)
(-0.0542859 0.0419045 0)
(-0.0251918 0.00362826 0)
(-0.0434467 -0.00287457 0)
(-0.00137559 0.0300414 0)
(-0.0245808 0.0242554 0)
(-0.00842809 0.0114268 0)
(0.0208133 0.0183802 0)
(0.00897149 0.0253782 0)
(-0.00213877 0.00960304 0)
(-0.0029951 -0.00177184 0)
(-0.00695352 0.000235974 0)
(-0.00334479 0.00495039 0)
(-0.00269232 0.0131537 0)
(0.00146933 0.0184326 0)
(-0.00350464 -0.0172819 0)
(-0.0208165 -0.0248917 0)
(0.076737 -0.000869838 0)
(-0.524936 0.00979515 0)
(-0.283663 -0.000177379 0)
(-0.144444 0.0062633 0)
(-0.132211 0.00956004 0)
(-0.174791 -0.000187336 0)
(-0.108557 0.0147935 0)
(0.000845697 0.0198773 0)
(-0.107212 -0.0181586 0)
(-0.129009 0.0198785 0)
(0.0158972 0.0323178 0)
(-0.0193342 -0.0312715 0)
(-0.0914648 -0.0358716 0)
(-0.122563 0.00034087 0)
(-0.0403618 0.0310737 0)
(-0.0155272 0.00493047 0)
(-0.0494938 -0.00431157 0)
(-0.0166613 0.0242545 0)
(-0.0262293 0.0231041 0)
(-0.00148817 0.00428438 0)
(-0.0110615 0.0173659 0)
(0.0158038 0.040143 0)
(0.0111766 0.0224043 0)
(0.0143833 0.00863376 0)
(0.00344109 0.0046208 0)
(-4.37005e-05 0.00577369 0)
(-0.00180611 0.0112017 0)
(0.00153405 0.015343 0)
(-0.0667443 -0.0211876 0)
(0.0727382 -0.0394407 0)
(0.117039 0.015326 0)
(-0.256425 0.0331318 0)
(-0.208165 -0.0233756 0)
(-0.214334 0.00176496 0)
(-0.200511 0.0135278 0)
(-0.207221 -0.00376551 0)
(-0.15771 -0.0010365 0)
(-0.0236767 0.0175642 0)
(-0.0851902 -0.00830263 0)
(-0.132263 0.00147524 0)
(0.0545508 0.0175308 0)
(-0.0140979 -0.0161751 0)
(-0.0777673 -0.0214589 0)
(-0.137247 -0.00414797 0)
(-0.0541123 0.00326014 0)
(0.00462849 0.00406039 0)
(-0.0324511 0.00168256 0)
(-0.0217883 0.0141314 0)
(-0.00323124 0.0156482 0)
(0.014632 0.00801886 0)
(-0.0167748 0.00612621 0)
(0.0103783 0.0182522 0)
(0.020229 0.00817762 0)
(0.0201221 0.00726065 0)
(0.0134064 0.0107611 0)
(0.0109038 0.0106113 0)
(0.00511977 0.0102283 0)
(0.00431528 0.0106555 0)
(-0.116109 -0.0123379 0)
(0.159235 -0.0184254 0)
(0.114079 0.0256166 0)
(0.0408083 0.0485691 0)
(-0.230412 0.00269291 0)
(-0.2318 0.00436152 0)
(-0.229512 0.00983951 0)
(-0.214605 -0.00716924 0)
(-0.173341 -0.01164 0)
(-0.0876796 0.0102751 0)
(-0.0681579 -0.00214424 0)
(-0.11599 -0.00627246 0)
(-0.031839 0.00585815 0)
(-0.0247724 -0.00706808 0)
(-0.0754079 -0.00494459 0)
(-0.13708 -0.00694114 0)
(-0.0534147 -0.0189899 0)
(-0.00744801 -0.00491879 0)
(-0.0082016 0.00836558 0)
(-0.00164793 0.00623536 0)
(0.0132824 0.0056016 0)
(0.028314 0.0122989 0)
(0.0133047 0.0145766 0)
(0.0337015 0.0125466 0)
(0.0327348 0.0116028 0)
(0.0232089 0.0143476 0)
(0.017643 0.0125716 0)
(0.0142772 0.0149066 0)
(0.0105546 0.0164376 0)
(0.0108553 0.0166397 0)
(0.0022251 -0.0035856 0)
(0.0099677 -0.00308921 0)
(0.0179826 -0.00390909 0)
(0.0279343 -0.00359027 0)
(0.0411363 -0.00514548 0)
(0.0557692 -0.00153006 0)
(0.0602941 0.0022777 0)
(0.057682 -0.00180018 0)
(0.0700013 0.0080379 0)
(0.0345682 0.00886979 0)
(8.87063e-05 0.000967093 0)
(-0.00620671 -0.000447035 0)
(-0.0107277 8.39227e-05 0)
(0.000105396 -0.00206336 0)
(0.00914346 -0.00124868 0)
(0.0138138 -5.99608e-05 0)
(0.00931891 -0.000222485 0)
(0.00814375 -3.16001e-05 0)
(0.00637269 0.000110705 0)
(0.00164223 -1.46062e-05 0)
(0.00225428 0.000203595 0)
(-0.00651954 0.0001796 0)
(-0.00672772 0.00018567 0)
(-0.0113212 0.000119247 0)
(-0.0139744 0.000294707 0)
(-0.0199605 0.000291258 0)
(-0.0237884 0.000250516 0)
(-0.0250722 4.05334e-05 0)
(-0.0175488 -0.00022625 0)
(-0.00599341 -0.000374753 0)
(0.00252293 -0.015434 0)
(0.00949811 -0.0138475 0)
(0.0179481 -0.0160787 0)
(0.0269839 -0.0174382 0)
(0.0435947 -0.0201519 0)
(0.0542031 -0.014949 0)
(0.0781623 3.39391e-05 0)
(0.0786708 -0.00747491 0)
(0.0994554 0.00678871 0)
(0.0914544 0.0261268 0)
(0.0423261 0.0187417 0)
(0.00653368 0.00520022 0)
(0.000463166 -0.00157273 0)
(0.0108567 -0.00566949 0)
(0.00876294 -0.00320504 0)
(0.01632 0.000402706 0)
(0.00366826 0.00133059 0)
(-0.00201305 0.000807113 0)
(-0.00309315 0.00140585 0)
(-0.0164183 0.000663877 0)
(-0.0113168 0.00126444 0)
(-0.027684 0.00106357 0)
(-0.0243814 0.000728984 0)
(-0.0311286 0.000474837 0)
(-0.0316931 0.000783735 0)
(-0.0357978 0.000607434 0)
(-0.0365321 0.000348102 0)
(-0.0336536 -0.000465788 0)
(-0.0198357 -0.00121132 0)
(-0.0056953 -0.0012876 0)
(-0.000376502 -0.0222498 0)
(0.00397467 -0.0208626 0)
(0.011503 -0.0236785 0)
(0.0195628 -0.0276634 0)
(0.0310568 -0.0314697 0)
(0.0384333 -0.030263 0)
(0.0664236 -0.0135517 0)
(0.0734985 -0.0160966 0)
(0.0862707 0.00167462 0)
(0.100815 0.0359762 0)
(0.0654316 0.0359543 0)
(0.0275965 0.0169186 0)
(0.0151933 -0.000706461 0)
(0.010857 -0.0051206 0)
(-0.000733583 -0.00281841 0)
(0.00734375 0.00154911 0)
(-0.00912447 0.00399779 0)
(-0.0134469 0.00154657 0)
(-0.010796 0.00300034 0)
(-0.0278217 0.00118854 0)
(-0.0172079 0.00224379 0)
(-0.0362933 0.00181221 0)
(-0.0295366 0.00100178 0)
(-0.0360511 0.000573847 0)
(-0.0349005 0.00100718 0)
(-0.037657 0.000686982 0)
(-0.0372947 0.000247504 0)
(-0.0333046 -0.00116801 0)
(-0.018288 -0.00226468 0)
(-0.00467816 -0.00210209 0)
(-0.00299822 -0.0273353 0)
(0.00140306 -0.0282964 0)
(0.00762099 -0.0341255 0)
(0.0133357 -0.0376161 0)
(0.0180209 -0.0386306 0)
(0.0229359 -0.039258 0)
(0.0427236 -0.0276048 0)
(0.062 -0.024386 0)
(0.0692777 -0.00445046 0)
(0.0895042 0.0374139 0)
(0.070411 0.0476279 0)
(0.040391 0.0288438 0)
(0.0257912 0.00506243 0)
(0.00937576 -0.000684156 0)
(-0.00876962 -0.00166656 0)
(-0.00173853 0.00282569 0)
(-0.0190748 0.00648024 0)
(-0.0216457 0.00134701 0)
(-0.0117293 0.00438708 0)
(-0.0328306 0.00155438 0)
(-0.0178916 0.00297796 0)
(-0.0386572 0.00256672 0)
(-0.0302425 0.00111721 0)
(-0.0365836 0.000633839 0)
(-0.0349399 0.00117478 0)
(-0.0374482 0.000749922 0)
(-0.0369494 0.00013466 0)
(-0.0329029 -0.00188797 0)
(-0.0176597 -0.00332557 0)
(-0.00426889 -0.00287488 0)
(-0.00667071 -0.0301106 0)
(-0.00592808 -0.0323777 0)
(-0.0104975 -0.0339 0)
(-0.0176582 -0.0353435 0)
(-0.0152313 -0.039664 0)
(-0.00711262 -0.0445156 0)
(0.0086468 -0.041263 0)
(0.0267905 -0.0351669 0)
(0.0374942 -0.00743786 0)
(0.0602469 0.0378299 0)
(0.0575412 0.0537922 0)
(0.0437154 0.0369724 0)
(0.0300916 0.0120763 0)
(0.00612539 0.00664304 0)
(-0.0161808 0.000859722 0)
(-0.00938555 0.00445515 0)
(-0.0249487 0.00865154 0)
(-0.0289621 0.000195451 0)
(-0.00749497 0.00528336 0)
(-0.0351883 0.0021453 0)
(-0.0171757 0.00350601 0)
(-0.0393403 0.00337671 0)
(-0.0303163 0.00115792 0)
(-0.0365498 0.00067468 0)
(-0.0348149 0.00132733 0)
(-0.0373822 0.000813517 0)
(-0.0369293 2.07738e-05 0)
(-0.0329384 -0.00260968 0)
(-0.0175431 -0.00439013 0)
(-0.00414804 -0.00362593 0)
(-0.00716118 -0.0248415 0)
(-0.013522 -0.0230105 0)
(-0.0223549 -0.0228669 0)
(-0.0257822 -0.0337643 0)
(-0.0220557 -0.0476463 0)
(-0.0177441 -0.0554136 0)
(-0.00714317 -0.0539659 0)
(0.00406599 -0.0461843 0)
(0.012593 -0.0171281 0)
(0.03234 0.0314455 0)
(0.0332054 0.0526976 0)
(0.0304507 0.0398306 0)
(0.0232301 0.0183174 0)
(-0.00271581 0.0147042 0)
(-0.0235157 0.00348062 0)
(-0.0168469 0.00554524 0)
(-0.0257455 0.0106455 0)
(-0.0345313 -0.00223766 0)
(-0.00178334 0.00553691 0)
(-0.0361462 0.00325266 0)
(-0.0166615 0.00390624 0)
(-0.0396364 0.00425514 0)
(-0.0304975 0.00116717 0)
(-0.0365182 0.000701842 0)
(-0.0347687 0.00147965 0)
(-0.0374389 0.000892168 0)
(-0.0370655 -8.90254e-05 0)
(-0.033111 -0.0033342 0)
(-0.0175482 -0.00546323 0)
(-0.00410974 -0.00437788 0)
(-0.00564724 -0.0164718 0)
(-0.0134549 -0.0157238 0)
(-0.0185851 -0.021616 0)
(-0.0182633 -0.0345069 0)
(-0.0203465 -0.0466489 0)
(-0.0236317 -0.0556817 0)
(-0.0245317 -0.057495 0)
(-0.0227284 -0.0476757 0)
(-0.018526 -0.0206475 0)
(0.0051239 0.0271714 0)
(0.0116786 0.0507305 0)
(0.0208789 0.0391219 0)
(0.0106125 0.024492 0)
(-0.0147076 0.0223688 0)
(-0.0277244 0.00505836 0)
(-0.024947 0.00574149 0)
(-0.0163655 0.0121348 0)
(-0.0365395 -0.00457215 0)
(0.00156 0.00522152 0)
(-0.0362717 0.00479014 0)
(-0.0168018 0.00427607 0)
(-0.0397583 0.00516855 0)
(-0.0308408 0.00116401 0)
(-0.0364884 0.000706494 0)
(-0.034745 0.0016336 0)
(-0.0375319 0.000986949 0)
(-0.0372583 -0.00019591 0)
(-0.0333327 -0.00406309 0)
(-0.0175713 -0.00654587 0)
(-0.00408774 -0.00512943 0)
(-0.0011799 -0.00717875 0)
(-0.0078654 -0.0086285 0)
(-0.0138467 -0.01727 0)
(-0.0183486 -0.0303292 0)
(-0.0238633 -0.0419237 0)
(-0.0294552 -0.0516485 0)
(-0.0359329 -0.0552743 0)
(-0.0385988 -0.049314 0)
(-0.0392328 -0.0286538 0)
(-0.0122195 0.0171552 0)
(-0.000962295 0.0436244 0)
(0.012111 0.0391058 0)
(-0.0042724 0.0311647 0)
(-0.0201895 0.0273448 0)
(-0.0250655 0.00600004 0)
(-0.0298269 0.00287694 0)
(0.0021793 0.0130726 0)
(-0.0346685 -0.0047987 0)
(0.000925244 0.00481195 0)
(-0.0360441 0.00650168 0)
(-0.0176817 0.00464788 0)
(-0.0397044 0.00608215 0)
(-0.0313288 0.00116193 0)
(-0.0364452 0.000678511 0)
(-0.0347192 0.00178959 0)
(-0.0376427 0.00110274 0)
(-0.037489 -0.000299476 0)
(-0.0335923 -0.00479779 0)
(-0.0175943 -0.00763958 0)
(-0.00406497 -0.00588175 0)
(0.000888859 -0.000694341 0)
(-0.00446691 -0.00159226 0)
(-0.0107265 -0.0110478 0)
(-0.0154055 -0.0257111 0)
(-0.0209354 -0.0374701 0)