/*--------------------------------*- C++ -*----------------------------------*\
| =========                 |                                                 |
| \\      /  F ield         | OpenFOAM: The Open Source CFD Toolbox           |
|  \\    /   O peration     | Version:  2.4.0                                 |
|   \\  /    A nd           | Web:      www.OpenFOAM.org                      |
|    \\/     M anipulation  |                                                 |
\*---------------------------------------------------------------------------*/
FoamFile
{
    version     2.0;
    format      ascii;
    class       volScalarField;
    location    "0.449";
    object      p_rgh;
}
// * * * * * * * * * * * * * * * * * * * * * * * * * * * * * * * * * * * * * //

dimensions      [1 -1 -2 0 0 0 0];

internalField   nonuniform List<scalar> 
10000
(
0.000379738
0.000379575
0.000379334
0.000379086
0.00037888
0.000378746
0.000378699
0.000378748
0.000378895
0.00037914
0.000379481
0.000379914
0.000380435
0.000381038
0.000381717
0.000382465
0.000383275
0.000384139
0.00038505
0.000386004
0.000386998
0.000388036
0.000389122
0.000390268
0.00039149
0.000392809
0.000394253
0.000395855
0.000397652
0.000399684
0.000401989
0.000404595
0.000407516
0.00041074
0.000414227
0.000417913
0.00042172
0.000425581
0.000429457
0.000433337
0.000437239
0.000441188
0.000445212
0.000449334
0.000453563
0.000457901
0.000462341
0.00046687
0.000471472
0.00047613
0.000379901
0.000379738
0.000379535
0.000379339
0.000379183
0.00037909
0.000379074
0.000379143
0.000379302
0.000379551
0.000379891
0.00038032
0.000380834
0.000381431
0.000382105
0.000382852
0.000383665
0.00038454
0.000385471
0.000386456
0.000387494
0.000388588
0.000389743
0.00039097
0.000392283
0.000393701
0.000395249
0.000396953
0.000398844
0.000400954
0.000403312
0.00040594
0.000408844
0.000412014
0.000415418
0.000419003
0.000422706
0.000426471
0.000430267
0.000434085
0.000437937
0.000441842
0.00044582
0.000449888
0.000454054
0.000458319
0.000462678
0.000467118
0.000471628
0.00047619
0.000380137
0.00037994
0.00037974
0.000379572
0.00037945
0.000379388
0.000379397
0.000379483
0.000379652
0.000379906
0.000380246
0.000380672
0.000381182
0.000381776
0.000382448
0.000383197
0.000384018
0.000384908
0.000385862
0.00038688
0.000387962
0.000389109
0.000390328
0.000391628
0.000393021
0.000394525
0.000396159
0.000397947
0.000399914
0.000402085
0.000404485
0.00040713
0.000410026
0.000413166
0.000416521
0.000420045
0.000423676
0.000427366
0.000431086
0.000434834
0.000438621
0.000442465
0.000446383
0.000450389
0.000454488
0.00045868
0.00046296
0.000467319
0.000471744
0.00047622
0.000380371
0.00038013
0.00037991
0.000379748
0.000379642
0.000379596
0.00037962
0.000379717
0.000379893
0.00038015
0.000380491
0.000380915
0.000381424
0.000382017
0.000382693
0.000383448
0.000384281
0.000385188
0.000386167
0.000387216
0.000388335
0.000389527
0.000390797
0.000392153
0.000393605
0.000395168
0.000396861
0.000398702
0.000400714
0.000402919
0.000405342
0.000407999
0.000410899
0.000414039
0.000417395
0.000420919
0.000424532
0.000428178
0.000431833
0.000435504
0.000439213
0.000442982
0.00044683
0.000450768
0.000454802
0.00045893
0.000463145
0.000467437
0.000471796
0.000476206
0.000380551
0.000380271
0.000380029
0.000379864
0.000379765
0.000379729
0.000379761
0.000379864
0.000380044
0.000380303
0.000380643
0.000381066
0.000381575
0.000382169
0.000382849
0.000383613
0.000384461
0.000385388
0.000386392
0.000387472
0.000388626
0.000389858
0.000391169
0.000392568
0.000394064
0.000395668
0.000397397
0.000399268
0.000401301
0.000403519
0.000405947
0.000408609
0.00041152
0.000414685
0.00041809
0.00042168
0.000425327
0.000428957
0.000432546
0.000436126
0.000439736
0.000443413
0.000447179
0.000451045
0.000455015
0.000459085
0.000463244
0.000467484
0.000471791
0.000476151
0.000380642
0.000380339
0.000380085
0.000379918
0.000379822
0.000379791
0.000379828
0.000379935
0.000380115
0.000380372
0.00038071
0.000381131
0.000381638
0.000382234
0.00038292
0.000383695
0.000384559
0.000385508
0.00038654
0.000387651
0.000388839
0.000390105
0.000391453
0.000392885
0.000394412
0.000396042
0.00039779
0.00039967
0.000401703
0.000403909
0.000406322
0.000408976
0.000411897
0.00041511
0.000418619
0.00042237
0.000426119
0.000429756
0.000433261
0.000436717
0.000440198
0.000443759
0.00044743
0.000451221
0.00045513
0.000459149
0.000463264
0.000467462
0.00047173
0.000476053
0.000380629
0.000380321
0.000380066
0.000379903
0.000379811
0.000379784
0.000379823
0.00037993
0.000380107
0.00038036
0.000380691
0.000381107
0.000381612
0.000382208
0.0003829
0.000383688
0.00038457
0.000385545
0.000386607
0.00038775
0.000388971
0.00039027
0.000391648
0.000393107
0.000394654
0.000396297
0.000398047
0.000399918
0.000401925
0.000404089
0.000406455
0.000409076
0.000411991
0.000415263
0.000418949
0.000423028
0.000426981
0.000430649
0.000434019
0.000437288
0.000440589
0.000444004
0.000447566
0.00045128
0.000455136
0.000459115
0.000463198
0.000467369
0.000471611
0.000475912
0.000380507
0.000380213
0.000379971
0.000379817
0.000379732
0.000379709
0.000379748
0.000379851
0.000380022
0.000380265
0.000380587
0.000380994
0.000381491
0.000382086
0.000382782
0.000383584
0.000384489
0.000385493
0.000386589
0.000387768
0.000389024
0.000390354
0.000391759
0.000393237
0.000394793
0.000396433
0.000398166
0.000400004
0.000401952
0.000404025
0.000406286
0.000408819
0.000411678
0.00041499
0.000418945
0.000423687
0.000428026
0.000431752
0.000434872
0.000437839
0.000440883
0.000444113
0.000447555
0.0004512
0.000455017
0.000458974
0.000463042
0.0004672
0.000471432
0.000475724
0.000380282
0.000380018
0.000379801
0.000379663
0.000379587
0.000379568
0.000379605
0.000379701
0.000379861
0.00038009
0.000380396
0.000380787
0.000381272
0.00038186
0.00038256
0.000383375
0.000384307
0.000385348
0.000386486
0.000387705
0.000388997
0.000390357
0.00039178
0.000393263
0.000394803
0.000396403
0.000398072
0.000399826
0.000401649
0.000403535
0.000405584
0.000407927
0.000410587
0.000413815
0.000418116
0.000424241
0.000429305
0.000433148
0.00043579
0.000438289
0.000440992
0.000444014
0.000447347
0.000450947
0.000454756
0.000458718
0.000462793
0.000466955
0.000471191
0.000475488
0.000379964
0.000379745
0.000379563
0.000379447
0.000379384
0.000379367
0.0003794
0.000379485
0.000379628
0.000379835
0.000380117
0.000380484
0.000380948
0.000381523
0.000382221
0.000383052
0.000384016
0.000385104
0.000386294
0.000387557
0.000388876
0.000390244
0.00039165
0.000393084
0.00039454
0.000396021
0.000397547
0.000399153
0.000400765
0.000402326
0.00040401
0.000406066
0.000408265
0.000411016
0.00041562
0.00042457
0.000430796
0.00043478
0.000436407
0.000438222
0.000440579
0.000443478
0.000446804
0.000450452
0.000454323
0.000458339
0.00046245
0.000466634
0.000470886
0.000475201
0.000379571
0.000379408
0.00037927
0.00037918
0.000379129
0.000379115
0.000379139
0.000379208
0.000379327
0.000379504
0.000379751
0.000380081
0.000380512
0.000381062
0.000381751
0.000382594
0.000383596
0.000384743
0.000385988
0.000387272
0.000388565
0.000389868
0.000391175
0.000392477
0.000393786
0.000395122
0.000396529
0.000398072
0.000399497
0.000400583
0.000401705
0.00040345
0.00040509
0.000406692
0.000410848
0.000425766
0.000433366
0.000437212
0.000436315
0.000436928
0.000438899
0.000441877
0.000445476
0.000449445
0.00045359
0.000457792
0.000462005
0.000466238
0.000470518
0.000474861
0.000379127
0.000379026
0.000378936
0.000378874
0.000378834
0.000378819
0.000378832
0.000378878
0.000378964
0.000379099
0.000379297
0.000379575
0.000379953
0.000380459
0.000381118
0.000381955
0.000382982
0.000384176
0.000385447
0.000386683
0.000387861
0.000389032
0.000390208
0.00039138
0.000392599
0.000393905
0.000395388
0.000397222
0.000398683
0.00039914
0.000399637
0.000400678
0.000401958
0.000402351
0.000403218
0.000431887
0.000440929
0.000443454
0.000436594
0.000434393
0.000435453
0.000438579
0.000442712
0.000447343
0.000452121
0.000456812
0.00046133
0.000465717
0.000470067
0.000474459
0.000378657
0.00037862
0.000378579
0.000378543
0.000378513
0.000378494
0.000378489
0.000378504
0.000378547
0.000378628
0.000378759
0.00037896
0.000379254
0.000379667
0.000380233
0.00038099
0.000381972
0.000383167
0.000384438
0.000385606
0.000386701
0.000387827
0.000388962
0.000390067
0.000391271
0.000392611
0.000394306
0.000397052
0.000399161
0.000398503
0.000398414
0.00040527
0.000400803
0.000392598
0.000393012
0.000473074
0.000475157
0.000464947
0.000439093
0.00042928
0.000429644
0.000433828
0.000438944
0.000444354
0.000449794
0.000455057
0.00046005
0.00046479
0.000469372
0.000473921
0.000378191
0.000378214
0.000378218
0.000378204
0.000378179
0.00037815
0.000378122
0.0003781
0.00037809
0.0003781
0.000378142
0.000378226
0.000378362
0.00037857
0.000378906
0.000379455
0.000380307
0.000381494
0.000382837
0.000384098
0.00038534
0.000386652
0.000387853
0.000388834
0.000389912
0.000391
0.000392522
0.000396862
0.000401297
0.000402977
0.000407148
0.000406295
0.000396204
0.000407964
0.000359583
0.000584341
0.000563662
0.000516612
0.000433668
0.000417646
0.000423542
0.000431488
0.000437608
0.000442997
0.000448257
0.000453375
0.000458327
0.000463182
0.000468031
0.000472937
0.000377758
0.000377832
0.000377873
0.000377874
0.000377848
0.000377804
0.000377747
0.00037768
0.000377606
0.000377529
0.000377445
0.000377332
0.000377176
0.000377033
0.000377034
0.000377332
0.000378062
0.000379279
0.000380806
0.000382404
0.000384134
0.000385939
0.000387291
0.000387899
0.000388455
0.000388436
0.000388467
0.000394926
0.000403026
0.00040987
0.000421474
0.000416811
0.00040902
0.000343975
0.000244041
0.00150404
0.00100678
0.00072923
0.000509848
0.000456278
0.000450789
0.000445528
0.000444174
0.0004459
0.000449253
0.000453148
0.000457172
0.000461392
0.000466005
0.00047115
0.000377386
0.000377496
0.00037756
0.000377567
0.000377534
0.00037747
0.000377379
0.000377262
0.000377117
0.00037693
0.000376655
0.000376227
0.000375678
0.000375177
0.000374928
0.000375083
0.000375756
0.000376988
0.000378717
0.000380878
0.000383525
0.000386319
0.000388061
0.000388009
0.000387262
0.000384141
0.000381317
0.000391291
0.000404428
0.000421664
0.000442883
0.000522527
0.000495058
0.000680165
0.00220957
0.0102465
0.0106702
0.00826884
0.00113717
0.000654076
0.000503356
0.000464621
0.000452435
0.000449822
0.000451252
0.000453843
0.000456624
0.00045973
0.000463614
0.000468753
0.0003771
0.000377226
0.000377297
0.000377298
0.00037725
0.000377162
0.000377035
0.000376868
0.000376645
0.000376315
0.000375772
0.000374982
0.000374122
0.000373467
0.000373208
0.00037341
0.000374119
0.000375372
0.000377342
0.000380267
0.000384311
0.000388985
0.000392005
0.000391425
0.000388603
0.000378881
0.000365495
0.000384902
0.000404246
0.00041562
0.00043227
0.000451779
0.000483198
0.000567791
0.00144814
0.00946182
0.00998691
0.00417485
0.00075867
0.00053832
0.00048556
0.000461776
0.000449423
0.000448291
0.000451431
0.000453995
0.000455675
0.000457426
0.000460359
0.000465877
0.000376919
0.000377036
0.000377093
0.000377077
0.000377007
0.000376892
0.000376732
0.000376518
0.000376214
0.000375709
0.000374886
0.000373845
0.000372915
0.000372393
0.000372404
0.000372893
0.000373887
0.000375511
0.000378094
0.000382016
0.000387931
0.000395909
0.000401857
0.000402633
0.000411182
0.00038424
0.000325438
0.00038366
0.000418278
0.000423009
0.000427184
0.000436001
0.000420596
0.000409638
0.000398249
0.00144772
0.0013025
0.000898533
0.000587409
0.000513561
0.00048874
0.000461275
0.000443856
0.000445698
0.000451023
0.000453114
0.000452991
0.000452793
0.000454597
0.000462002
0.000376852
0.000376934
0.000376955
0.000376908
0.000376809
0.000376668
0.000376481
0.00037623
0.000375845
0.000375174
0.000374164
0.000373078
0.000372313
0.000372142
0.000372619
0.000373609
0.000375291
0.000378106
0.000382224
0.000387773
0.000397019
0.00041165
0.0004165
0.000422774
0.00041027
0.000420858
0.00156649
0.000433074
0.000444097
0.00043643
0.000428417
0.000434533
0.000422173
0.000392364
0.000393063
0.000592308
0.000619873
0.000525609
0.000431736
0.000427486
0.00043409
0.000432857
0.000437763
0.000448216
0.000452622
0.000451599
0.000448004
0.000444655
0.000444912
0.000456679
0.000376899
0.000376916
0.000376879
0.000376788
0.000376657
0.000376491
0.000376286
0.000376013
0.000375569
0.000374796
0.000373748
0.000372794
0.000372329
0.00037257
0.000373514
0.000374957
0.000377298
0.00038165
0.000388246
0.00039722
0.000417906
0.000436598
0.000448182
0.00043524
0.000464284
0.000562581
0.000770372
0.000548559
0.000469527
0.000445897
0.000433392
0.000424301
0.000425212
0.000437136
0.000436869
0.000469327
0.000482988
0.00047076
0.000454745
0.000458895
0.000459663
0.000450217
0.000440864
0.000451675
0.000455597
0.000449468
0.000440615
0.000430511
0.000425487
0.000451319
0.000377047
0.000376971
0.000376855
0.000376709
0.000376541
0.000376355
0.000376144
0.000375869
0.000375408
0.000374631
0.000373682
0.000372968
0.000372839
0.000373434
0.000374729
0.000376281
0.000378749
0.000383955
0.000392244
0.000398977
0.000414122
0.000439685
0.0004609
0.000556308
0.000540598
0.000621844
0.000576486
0.000474559
0.000451748
0.000453002
0.000441777
0.000428828
0.000420252
0.00041909
0.000438427
0.000469368
0.000482736
0.000476217
0.000460286
0.000449789
0.000450647
0.000475298
0.00131515
0.000466672
0.000466389
0.000453693
0.000435242
0.000412088
0.00038808
0.000468535
0.000377271
0.000377078
0.000376863
0.000376652
0.000376445
0.000376243
0.000376038
0.000375787
0.000375364
0.000374677
0.00037392
0.000373491
0.000373689
0.000374598
0.000376231
0.000377912
0.000380692
0.000386226
0.000394767
0.00037652
0.000344935
0.00173063
0.000535188
0.000438229
0.000578241
0.000904824
0.00102552
0.00033648
0.000536817
0.000456136
0.000445318
0.000436941
0.000424013
0.000419694
0.000424854
0.00044047
0.000447505
0.000450974
0.000453817
0.00046088
0.00045671
0.000472899
0.000507371
0.000468375
0.000450076
0.000452141
0.000451472
0.000419115
0.000417634
0.000625722
0.000377533
0.000377205
0.000376878
0.000376593
0.000376345
0.000376131
0.000375942
0.000375737
0.000375404
0.000374878
0.000374361
0.000374222
0.000374734
0.000376021
0.00037819
0.000380776
0.000385271
0.000392868
0.000397731
0.000413875
0.000669214
0.00056714
0.00062366
0.000459653
0.00559638
0.0104383
0.0102793
0.00338252
0.000559752
0.000484204
0.000425129
0.000422563
0.000417097
0.000416381
0.000421412
0.000431551
0.000440975
0.000448618
0.000456411
0.000465625
0.000475966
0.000486878
0.000488487
0.000477613
0.000466498
0.00046603
0.000467099
0.000407612
0.000101513
0.00510615
0.000377791
0.000377314
0.000376865
0.000376502
0.000376212
0.000375986
0.00037582
0.000375678
0.000375467
0.000375138
0.000374871
0.000374996
0.000375789
0.000377451
0.000380247
0.00038402
0.000390376
0.000396752
0.000408454
0.0010144
0.00048369
0.000567669
0.000508077
0.00182999
0.00983404
0.011343
0.0100345
0.00905835
0.00100665
0.000517985
0.000869831
0.000408661
0.000412425
0.00041154
0.000418422
0.000425218
0.000431993
0.000438046
0.000443817
0.000448704
0.000454167
0.000484975
0.000506828
0.000519827
0.00050587
0.000500888
0.000559792
0.000708158
0.00417976
0.00735619
0.000377993
0.000377363
0.000376788
0.000376346
0.000376012
0.000375775
0.000375632
0.000375557
0.00037548
0.000375356
0.000375322
0.000375666
0.000376662
0.000378574
0.000382037
0.000386861
0.000393084
0.000400721
0.000485036
0.000423964
0.000413587
0.000485396
0.000512491
0.00208625
0.0102467
0.0113238
0.0107879
0.00864397
0.00108283
0.000528099
0.000425997
0.000422528
0.000425322
0.000420871
0.000418762
0.000424795
0.000432649
0.000440696
0.000447696
0.00045768
0.00047227
0.000505593
0.000814832
0.000537655
0.000521882
0.000513038
0.000533733
0.000528857
0.00060059
0.00735966
0.000378089
0.000377308
0.000376609
0.000376088
0.00037571
0.000375461
0.000375338
0.000375326
0.000375376
0.000375442
0.00037561
0.000376108
0.000377176
0.000379201
0.000382954
0.000387178
0.000392143
0.000424316
0.000411047
0.000418554
0.000459678
0.000442421
0.000411203
0.000436198
0.00588346
0.0110732
0.0105242
0.00349044
0.000542996
0.000511104
0.00046128
0.000477334
0.000472828
0.000433534
0.000421296
0.000421778
0.000433454
0.000445053
0.000451226
0.00045277
0.000457574
0.00044728
0.000438597
0.000468674
0.000499983
0.000525885
0.000541752
0.000505865
0.000510902
0.00105058
0.000378027
0.000377107
0.000376292
0.000375696
0.000375276
0.000375013
0.000374905
0.000374944
0.0003751
0.000375332
0.000375671
0.000376269
0.000377335
0.000379396
0.000382295
0.000385537
0.000397687
0.000397125
0.000397587
0.000409332
0.000462119
0.000422957
0.000387859
0.000340148
0.000614899
0.000910776
0.00105099
0.000312957
0.000445196
0.000458838
0.000506338
0.000534765
0.000528526
0.00117514
0.000413607
0.000429464
0.000433414
0.00044992
0.00047568
0.000461981
0.00044976
0.00044881
0.000446778
0.000456734
0.000491594
0.000563375
0.000655461
0.00066881
0.00058092
0.000426257
0.000377764
0.000376721
0.000375802
0.000375139
0.000374681
0.000374402
0.000374303
0.00037438
0.000374617
0.000374982
0.000375467
0.000376155
0.000377216
0.000378868
0.000381294
0.000385064
0.000388539
0.00039217
0.000395127
0.000392666
0.000678217
0.00041542
0.000404894
0.000396519
0.000455214
0.00054085
0.000512209
0.000409147
0.000416834
0.000447081
0.000469051
0.00121532
0.000455864
0.00045302
0.000431868
0.000437808
0.000439073
0.000447729
0.00130918
0.00047249
0.000464625
0.000452761
0.000439451
0.000414737
0.000456565
0.00050118
0.000769426
0.000768921
0.000621333
0.000499304
0.000377262
0.000376116
0.000375111
0.000374391
0.000373899
0.000373606
0.000373511
0.000373612
0.000373906
0.00037437
0.000374983
0.00037577
0.00037682
0.000378257
0.000380233
0.000382913
0.000386723
0.000389598
0.000390653
0.000396678
0.000392046
0.000402509
0.000421181
0.000463682
0.000450069
0.000481566
0.000474068
0.000416996
0.000426384
0.000431563
0.000424392
0.000396576
0.000616057
0.000444287
0.000437575
0.000437574
0.000443815
0.000464413
0.000438384
0.000462565
0.000472826
0.000463534
0.000441771
0.000373364
0.000269759
0.000711098
0.00278853
0.00357019
0.000729102
0.000129217
0.000376492
0.000375266
0.000374194
0.00037343
0.000372911
0.000372607
0.000372513
0.00037263
0.000372957
0.000373486
0.000374199
0.000375085
0.000376167
0.000377504
0.000379191
0.000381382
0.000384123
0.000386841
0.000388387
0.000392343
0.000393181
0.000402127
0.000410074
0.000414204
0.00043013
0.000561514
0.000432783
0.000441463
0.000440598
0.000410228
0.000410989
0.000405241
0.000413893
0.000430614
0.000437432
0.000439067
0.00044415
0.000447311
0.00045224
0.0004669
0.000481307
0.00049196
0.000498981
0.000462661
0.000281375
0.0110449
0.0185923
0.0190413
0.0141807
0.0007998
0.000375432
0.000374152
0.000373034
0.00037224
0.000371703
0.000371391
0.000371298
0.000371424
0.000371771
0.000372337
0.000373114
0.000374088
0.000375248
0.000376598
0.000378163
0.000379985
0.000382262
0.000385026
0.000388886
0.000390343
0.000392856
0.000397717
0.000405043
0.000406517
0.000413393
0.000417754
0.000426162
0.000430677
0.000399817
0.000402647
0.000406838
0.000409039
0.000414683
0.000423783
0.000430479
0.000435881
0.000441887
0.000449493
0.000460254
0.000476349
0.000497345
0.000523634
0.000570277
0.000695069
0.00276525
0.0190534
0.018882
0.0190003
0.0190661
0.00667155
0.000374069
0.000372762
0.00037162
0.00037081
0.000370264
0.000369949
0.000369859
0.000369993
0.00037035
0.000370934
0.000371742
0.000372771
0.000374008
0.000375435
0.000377037
0.000378836
0.00038099
0.000383668
0.00038655
0.00038809
0.000390663
0.000394422
0.000398297
0.000401247
0.000405029
0.000409041
0.000414279
0.000405298
0.000400576
0.000401277
0.000403994
0.000406915
0.000412744
0.000419182
0.000426081
0.000433069
0.000440959
0.000450102
0.000461179
0.000478429
0.000502404
0.000537662
0.000593494
0.000714897
0.00184138
0.0187443
0.0188381
0.0189716
0.018949
0.00451217
0.000372401
0.000371089
0.000369944
0.000369133
0.000368589
0.000368278
0.000368194
0.000368334
0.000368698
0.000369287
0.000370103
0.00037115
0.000372423
0.00037391
0.000375595
0.000377478
0.000379632
0.000382083
0.000384592
0.000387168
0.0003896
0.000392491
0.000394789
0.000396972
0.000399531
0.000401378
0.000402304
0.000400221
0.000398352
0.000397968
0.000400079
0.000403744
0.000409417
0.00041627
0.000423183
0.000430296
0.000438306
0.000447485
0.000458639
0.000473269
0.000493323
0.000522167
0.000557726
0.000596021
0.000649657
0.0119587
0.0186488
0.0191457
0.0144251
0.00163487
0.000370426
0.000369133
0.000368005
0.000367207
0.000366675
0.000366376
0.000366302
0.00036645
0.000366818
0.000367406
0.000368215
0.000369248
0.000370503
0.000371972
0.00037364
0.000375493
0.000377525
0.000379707
0.000381962
0.000384227
0.000386545
0.000389049
0.000391353
0.000393519
0.000395375
0.000396432
0.000396561
0.000396123
0.00039576
0.000396586
0.000398723
0.000402395
0.000407958
0.000414307
0.000420575
0.000426975
0.000434484
0.000443289
0.000452993
0.0004643
0.000478214
0.000495444
0.000510907
0.000498504
0.000410381
0.000466069
0.00354848
0.00416855
0.000850411
-0.000223914
0.000368154
0.000366899
0.000365805
0.000365034
0.000364525
0.000364245
0.000364186
0.000364345
0.000364718
0.000365302
0.000366095
0.000367093
0.000368283
0.000369644
0.000371147
0.00037276
0.000374459
0.000376225
0.000378014
0.000379747
0.000381521
0.000383269
0.000384886
0.000386183
0.000387044
0.000387242
0.000386911
0.000386698
0.000386626
0.000387642
0.000390504
0.000395954
0.000404778
0.000414369
0.000421952
0.000426399
0.000430784
0.000437702
0.000447361
0.000458759
0.000465768
0.000477819
0.000485984
0.000481796
0.000466559
0.000509736
0.000662193
0.000568744
0.000388022
0.000188221
0.000365595
0.000364394
0.00036335
0.000362619
0.000362142
0.000361889
0.000361852
0.000362026
0.000362407
0.00036299
0.000363765
0.000364719
0.000365824
0.000367043
0.000368346
0.000369717
0.000371147
0.000372626
0.000374114
0.000375563
0.000376926
0.000378136
0.000379045
0.000379537
0.00037954
0.000379041
0.000378134
0.000376789
0.000375399
0.000374734
0.000375913
0.000380673
0.000391768
0.000405108
0.000416179
0.000422838
0.000429294
0.000435818
0.000443069
0.000450557
0.000457024
0.000463427
0.000469571
0.000472932
0.000476631
0.000501737
0.000536029
0.000483336
0.000404726
0.000322072
0.000362762
0.00036163
0.000360649
0.000359968
0.000359532
0.000359314
0.000359306
0.000359503
0.000359899
0.000360485
0.000361246
0.000362154
0.000363165
0.000364247
0.00036539
0.000366603
0.000367889
0.00036923
0.000370577
0.000371864
0.000373015
0.000373928
0.000374464
0.00037449
0.000373908
0.000372655
0.000370717
0.000368136
0.000365148
0.000362494
0.000361715
0.000366095
0.000383047
0.00040138
0.000412724
0.000411747
0.000414196
0.000423441
0.000435396
0.000445914
0.000453298
0.00045879
0.000463163
0.000466845
0.000471059
0.000481434
0.000490798
0.000460655
0.000416804
0.000367655
0.000359671
0.000358618
0.00035771
0.000357088
0.000356703
0.000356528
0.000356557
0.000356784
0.000357202
0.000357799
0.00035855
0.000359408
0.000360328
0.000361298
0.000362345
0.000363496
0.000364751
0.000366074
0.000367407
0.000368664
0.000369743
0.000370514
0.000370823
0.000370502
0.00036939
0.000367343
0.00036423
0.000359938
0.000354473
0.000348386
0.000343577
0.000347018
0.000378126
0.00040595
0.000421025
0.000407389
0.000400611
0.000407463
0.000418332
0.000429905
0.000440999
0.00045135
0.000459354
0.000463448
0.000465309
0.000467365
0.000467087
0.000448431
0.000421436
0.000398461
0.000356337
0.00035537
0.000354544
0.00035399
0.000353662
0.000353539
0.000353612
0.000353878
0.000354327
0.000354943
0.000355682
0.000356487
0.000357327
0.000358236
0.000359267
0.000360452
0.000361775
0.000363187
0.000364615
0.000365958
0.000367093
0.000367868
0.000368099
0.00036757
0.000366037
0.000363231
0.000358817
0.000352381
0.000343346
0.000331224
0.000317083
0.000316623
0.000382236
0.000435287
0.000447354
0.000400597
0.000376338
0.000388535
0.0004048
0.000418006
0.000428978
0.000438011
0.000445729
0.00045275
0.000458496
0.000461332
0.000458492
0.000445601
0.00042815
0.000412767
0.000352775
0.0003519
0.000351161
0.00035068
0.000350417
0.000350352
0.000350478
0.000350791
0.00035128
0.000351917
0.000352641
0.000353394
0.000354191
0.000355106
0.000356208
0.000357511
0.000358989
0.000360583
0.000362206
0.00036375
0.000365074
0.000366012
0.000366357
0.000365838
0.000364128
0.000360819
0.000355272
0.000346682
0.000333735
0.000312339
0.000279437
0.000252558
0.000410479
0.000513413
0.000531568
0.00037086
0.000334842
0.000366599
0.000392115
0.000408343
0.000420574
0.000430045
0.000437036
0.000441777
0.000444303
0.000446062
0.000446441
0.000442257
0.000433303
0.000422465
0.000348999
0.000348219
0.00034757
0.000347168
0.000346975
0.000346974
0.00034716
0.000347528
0.000348064
0.000348722
0.000349425
0.000350144
0.000350952
0.00035195
0.000353194
0.00035469
0.000356398
0.000358253
0.000360165
0.00036202
0.000363676
0.000364965
0.000365668
0.000365468
0.000364018
0.000360884
0.000355034
0.000345133
0.000329638
0.0003008
0.000239696
0.000135898
0.000596797
0.00126455
0.00150168
0.000309016
0.000317081
0.000350964
0.0003843
0.000402793
0.000415789
0.000425401
0.000431942
0.000435981
0.000437906
0.000438379
0.000437271
0.000434049
0.000430866
0.000428974
0.00034502
0.000344335
0.000343781
0.00034346
0.000343342
0.000343411
0.000343663
0.000344093
0.000344679
0.000345351
0.000346036
0.000346758
0.000347644
0.00034879
0.000350236
0.000351979
0.000353974
0.000356156
0.000358434
0.000360702
0.000362829
0.000364664
0.000366002
0.000366489
0.000365935
0.000364196
0.000360163
0.000351762
0.000339987
0.000325024
0.00028252
0.000416552
0.00792484
0.0126248
0.0122867
0.00433622
0.000347306
0.000379639
0.000397586
0.000408223
0.000416651
0.00042435
0.000429714
0.000432906
0.000434081
0.000433999
0.000432978
0.000431013
0.000428527
0.00042647
0.000340848
0.000340259
0.000339799
0.000339563
0.000339523
0.000339667
0.00033999
0.000340488
0.000341121
0.000341803
0.000342484
0.000343263
0.000344286
0.000345628
0.000347318
0.000349344
0.000351662
0.00035421
0.000356905
0.000359652
0.000362341
0.00036486
0.000367048
0.000368484
0.000369283
0.000369613
0.000366698
0.000361884
0.000390132
0.000358274
0.000385804
0.00279287
0.0129135
0.0126801
0.0127145
0.0124148
0.000673718
0.000408323
0.000421637
0.00041985
0.000422648
0.000426735
0.000429682
0.000431851
0.000432
0.000431154
0.000430875
0.000429767
0.000428311
0.000426564
0.000336491
0.000335997
0.000335632
0.000335481
0.000335522
0.000335743
0.000336143
0.00033671
0.000337387
0.000338076
0.000338787
0.000339675
0.000340881
0.000342455
0.00034441
0.000346732
0.000349381
0.000352297
0.000355403
0.00035861
0.000361835
0.000365022
0.000368122
0.000370549
0.000372341
0.000375047
0.000376039
0.000377816
0.000380147
0.0003909
0.000419363
0.00242438
0.0123496
0.012599
0.0125885
0.0111261
0.000828454
0.00043827
0.000440695
0.000438506
0.000433744
0.000436468
0.000435938
0.000434558
0.000432137
0.000430513
0.000428933
0.000429029
0.000429155
0.000427238
0.000331955
0.000331554
0.000331283
0.000331219
0.000331342
0.000331644
0.000332122
0.000332758
0.000333474
0.00033418
0.000334961
0.000336003
0.000337423
0.000339244
0.000341467
0.000344075
0.000347026
0.000350254
0.000353674
0.000357201
0.000360784
0.000364458
0.000368398
0.000371241
0.000373146
0.000382763
0.000383794
0.000392416
0.00039776
0.000405759
0.000400232
0.000369517
0.00519676
0.0127781
0.0122831
0.00258709
0.000365728
0.000435685
0.000446749
0.000439889
0.000445249
0.00044387
0.000439362
0.000436657
0.000433916
0.000429593
0.00042562
0.000431761
0.000431574
0.000428218
0.000327244
0.000326934
0.000326756
0.000326778
0.000326985
0.000327369
0.000327928
0.00032863
0.00032938
0.000330126
0.000331017
0.000332245
0.000333894
0.000335961
0.000338436
0.000341288
0.000344463
0.000347881
0.000351455
0.000355132
0.000358918
0.000362918
0.000367786
0.000371633
0.00037587
0.000414422
0.000390508
0.000398611
0.000409623
0.000423036
0.000442012
0.000494235
0.000614719
0.000669214
0.000825862
0.000743248
0.000537503
0.000479726
0.000461443
0.000464013
0.000471874
0.000455547
0.000446058
0.000436737
0.00042636
0.00042506
0.000511814
0.000434273
0.000436016
0.000430265
0.000322359
0.000322139
0.000322054
0.000322162
0.000322453
0.00032292
0.000323558
0.000324323
0.000325111
0.000325924
0.000326959
0.000328392
0.000330269
0.000332563
0.000335246
0.000338267
0.000341553
0.000345029
0.000348646
0.000352416
0.000356403
0.000360767
0.000365795
0.000371916
0.000377576
0.000383701
0.000389964
0.000403844
0.000416965
0.00043444
0.000456983
0.00051327
0.000577476
0.000626353
0.000669674
0.000632799
0.000546194
0.000499566
0.000481105
0.00047131
0.00102361
0.000468212
0.000495264
0.000699774
0.000427158
0.000429856
0.000442737
0.000430727
0.000495067
0.000424967
0.000317304
0.000317172
0.000317177
0.000317372
0.000317746
0.000318297
0.000319014
0.000319838
0.000320674
0.000321585
0.000322786
0.000324427
0.000326513
0.000328995
0.000331819
0.000334916
0.00033822
0.000341698
0.000345361
0.000349267
0.000353498
0.000358188
0.000363473
0.000369479
0.000376678
0.000384375
0.000393712
0.000404812
0.000420458
0.000437852
0.000459317
0.000492323
0.000541259
0.000566375
0.000587156
0.000575685
0.0005323
0.00049907
0.000476366
0.000486478
0.000440809
0.000451614
0.000454611
0.000422942
0.000425847
0.000432921
0.000447324
0.00065556
0.000425465
0.000418222
0.000312077
0.000312032
0.000312128
0.000312408
0.000312866
0.000313499
0.000314293
0.000315175
0.000316076
0.000317111
0.000318491
0.000320325
0.000322585
0.000325198
0.000328089
0.000331195
0.000334492
0.000337998
0.000341759
0.000345841
0.000350315
0.000355275
0.000360883
0.000367222
0.000374629
0.000383095
0.000393198
0.000404602
0.000419393
0.000433878
0.000452352
0.000476128
0.000507975
0.000531263
0.000532495
0.000565926
0.00051556
0.000490326
0.000478515
0.000457556
0.000445047
0.000441962
0.000437733
0.000427114
0.000421598
0.000428741
0.000831462
0.000417025
0.000413558
0.000417881
0.000306681
0.000306721
0.000306907
0.000307271
0.000307812
0.000308527
0.000309395
0.000310339
0.000311325
0.000312502
0.000314057
0.000316057