/*--------------------------------*- C++ -*----------------------------------*\
| =========                 |                                                 |
| \\      /  F ield         | OpenFOAM: The Open Source CFD Toolbox           |
|  \\    /   O peration     | Version:  2.4.0                                 |
|   \\  /    A nd           | Web:      www.OpenFOAM.org                      |
|    \\/     M anipulation  |                                                 |
\*---------------------------------------------------------------------------*/
FoamFile
{
    version     2.0;
    format      ascii;
    class       volVectorField;
    location    "0.238";
    object      U;
}
// * * * * * * * * * * * * * * * * * * * * * * * * * * * * * * * * * * * * * //

dimensions      [0 1 -1 0 0 0 0];

internalField   nonuniform List<vector> 
10000
(
(-4.5889e-07 4.57737e-07 0)
(-1.82193e-08 7.04869e-09 0)
(2.78393e-06 -5.91829e-07 0)
(7.61997e-06 -1.06938e-06 0)
(1.42361e-05 -1.45661e-06 0)
(2.23967e-05 -1.78278e-06 0)
(3.18473e-05 -2.02884e-06 0)
(4.22149e-05 -2.17399e-06 0)
(5.30292e-05 -2.20678e-06 0)
(6.37684e-05 -2.12589e-06 0)
(7.38982e-05 -1.93686e-06 0)
(8.28986e-05 -1.64902e-06 0)
(9.02864e-05 -1.27394e-06 0)
(9.56359e-05 -8.25649e-07 0)
(9.86005e-05 -3.23451e-07 0)
(9.89215e-05 2.09706e-07 0)
(9.64852e-05 7.67992e-07 0)
(9.13279e-05 1.30671e-06 0)
(8.36224e-05 1.79236e-06 0)
(7.37037e-05 2.1952e-06 0)
(6.20385e-05 2.48899e-06 0)
(4.91864e-05 2.65565e-06 0)
(3.57508e-05 2.68838e-06 0)
(2.23273e-05 2.59291e-06 0)
(9.45545e-06 2.38438e-06 0)
(-2.41689e-06 2.08715e-06 0)
(-1.29491e-05 1.7273e-06 0)
(-2.19097e-05 1.32986e-06 0)
(-2.91699e-05 9.17231e-07 0)
(-3.47033e-05 5.11302e-07 0)
(-3.86019e-05 1.39711e-07 0)
(-4.11108e-05 -1.59246e-07 0)
(-4.26396e-05 -3.43625e-07 0)
(-4.37354e-05 -4.0376e-07 0)
(-4.49748e-05 -3.56227e-07 0)
(-4.68441e-05 -2.40487e-07 0)
(-4.971e-05 -8.80468e-08 0)
(-5.38458e-05 8.997e-08 0)
(-5.94961e-05 3.00928e-07 0)
(-6.69336e-05 5.63266e-07 0)
(-7.64859e-05 8.97136e-07 0)
(-8.8528e-05 1.3168e-06 0)
(-0.000103449 1.82677e-06 0)
(-0.00012161 2.42002e-06 0)
(-0.000143299 3.07976e-06 0)
(-0.000168706 3.78136e-06 0)
(-0.000197899 4.49482e-06 0)
(-0.000230814 5.18823e-06 0)
(-0.000267262 5.83217e-06 0)
(-0.000306931 6.40385e-06 0)
(-1.38535e-07 9.83652e-08 0)
(3.10942e-06 -3.43746e-06 0)
(1.16169e-05 -7.7141e-06 0)
(2.45522e-05 -1.13376e-05 0)
(4.14658e-05 -1.45146e-05 0)
(6.19828e-05 -1.728e-05 0)
(8.55557e-05 -1.94387e-05 0)
(0.000111323 -2.07711e-05 0)
(0.000138162 -2.11309e-05 0)
(0.000164787 -2.04534e-05 0)
(0.000189843 -1.87384e-05 0)
(0.000211975 -1.60341e-05 0)
(0.000229905 -1.24308e-05 0)
(0.000242496 -8.06179e-06 0)
(0.000248823 -3.10698e-06 0)
(0.000248249 2.20565e-06 0)
(0.000240471 7.62487e-06 0)
(0.000225564 1.28402e-05 0)
(0.000204015 1.75483e-05 0)
(0.00017668 2.14734e-05 0)
(0.000144728 2.43977e-05 0)
(0.000109545 2.61873e-05 0)
(7.26177e-05 2.68059e-05 0)
(3.54136e-05 2.63137e-05 0)
(-7.28553e-07 2.48482e-05 0)
(-3.46751e-05 2.2599e-05 0)
(-6.55378e-05 1.97754e-05 0)
(-9.26895e-05 1.6587e-05 0)
(-0.000115761 1.32406e-05 0)
(-0.000134651 9.95771e-06 0)
(-0.000149571 7.00864e-06 0)
(-0.00016114 4.7192e-06 0)
(-0.000170447 3.40709e-06 0)
(-0.000178961 3.22862e-06 0)
(-0.000188244 4.11592e-06 0)
(-0.000199665 5.84977e-06 0)
(-0.000214286 8.21837e-06 0)
(-0.00023294 1.11071e-05 0)
(-0.00025636 1.45136e-05 0)
(-0.000285296 1.85099e-05 0)
(-0.000320571 2.31853e-05 0)
(-0.00036307 2.85949e-05 0)
(-0.000413682 3.47282e-05 0)
(-0.000473217 4.14967e-05 0)
(-0.000542323 4.87398e-05 0)
(-0.000621423 5.62399e-05 0)
(-0.000710658 6.37442e-05 0)
(-0.000809859 7.09885e-05 0)
(-0.000918526 7.77206e-05 0)
(-0.00103584 8.37194e-05 0)
(4.32658e-07 -2.39718e-06 0)
(7.23987e-06 -1.18945e-05 0)
(2.12824e-05 -2.18002e-05 0)
(4.14078e-05 -3.03775e-05 0)
(6.69751e-05 -3.80764e-05 0)
(9.75093e-05 -4.48402e-05 0)
(0.000132238 -5.01363e-05 0)
(0.000169938 -5.33914e-05 0)
(0.00020901 -5.41986e-05 0)
(0.000247605 -5.23439e-05 0)
(0.000283748 -4.77771e-05 0)
(0.000315448 -4.05854e-05 0)
(0.000340807 -3.09841e-05 0)
(0.000358123 -1.93193e-05 0)
(0.000365999 -6.07204e-06 0)
(0.00036346 8.14648e-06 0)
(0.00035003 2.26075e-05 0)
(0.000325812 3.65244e-05 0)
(0.00029151 4.91045e-05 0)
(0.000248395 5.96341e-05 0)
(0.00019821 6.75593e-05 0)
(0.000143025 7.25464e-05 0)
(8.50595e-05 7.45102e-05 0)
(2.64952e-05 7.36056e-05 0)
(-3.0685e-05 7.01831e-05 0)
(-8.48136e-05 6.47187e-05 0)
(-0.000134601 5.77443e-05 0)
(-0.000179149 4.97987e-05 0)
(-0.000217931 4.14205e-05 0)
(-0.000250792 3.31913e-05 0)
(-0.000278006 2.58222e-05 0)
(-0.000300448 2.01785e-05 0)
(-0.000319752 1.71106e-05 0)
(-0.000338207 1.70915e-05 0)
(-0.000358257 1.9976e-05 0)
(-0.000381981 2.52308e-05 0)
(-0.000410951 3.23217e-05 0)
(-0.000446393 4.09374e-05 0)
(-0.000489407 5.10306e-05 0)
(-0.000541145 6.27283e-05 0)
(-0.000602877 7.61972e-05 0)
(-0.000675958 9.15247e-05 0)
(-0.00076173 0.000108644 0)
(-0.000861394 0.000127308 0)
(-0.000975891 0.000147099 0)
(-0.0011058 0.000167467 0)
(-0.00125127 0.000187774 0)
(-0.00141196 0.00020735 0)
(-0.00158702 0.000225533 0)
(-0.00177512 0.00024171 0)
(9.04518e-07 -6.95024e-06 0)
(1.09036e-05 -2.47724e-05 0)
(3.00536e-05 -4.19584e-05 0)
(5.67376e-05 -5.69053e-05 0)
(9.00217e-05 -7.04043e-05 0)
(0.000129262 -8.22573e-05 0)
(0.000173463 -9.14964e-05 0)
(0.000221103 -9.70945e-05 0)
(0.000270213 -9.82988e-05 0)
(0.000318515 -9.46832e-05 0)
(0.000363562 -8.61106e-05 0)
(0.000402861 -7.26994e-05 0)
(0.000434008 -5.48149e-05 0)
(0.00045482 -3.30773e-05 0)
(0.000463481 -8.37048e-06 0)
(0.000458681 1.81686e-05 0)
(0.000439757 4.51875e-05 0)
(0.000406787 7.1212e-05 0)
(0.000360646 9.47651e-05 0)
(0.000302969 0.000114522 0)
(0.000236029 0.00012946 0)
(0.00016254 0.000138973 0)
(8.54074e-05 0.000142916 0)
(7.46965e-06 0.000141592 0)
(-6.87253e-05 0.000135663 0)
(-0.000141082 0.000126021 0)
(-0.000208033 0.000113651 0)
(-0.000268527 9.95296e-05 0)
(-0.000321968 8.46076e-05 0)
(-0.000368141 6.98929e-05 0)
(-0.000407271 5.66538e-05 0)
(-0.000440319 4.65397e-05 0)
(-0.000469394 4.12758e-05 0)
(-0.000497702 4.18589e-05 0)
(-0.000528653 4.79754e-05 0)
(-0.00056494 5.8534e-05 0)
(-0.00060841 7.2501e-05 0)
(-0.000660436 8.93098e-05 0)
(-0.000722311 0.000108898 0)
(-0.0007955 0.00013151 0)
(-0.000881696 0.000157437 0)
(-0.000982735 0.000186808 0)
(-0.00110043 0.000219458 0)
(-0.00123637 0.000254894 0)
(-0.00139179 0.000292319 0)
(-0.00156739 0.000330702 0)
(-0.0017633 0.00036886 0)
(-0.00197898 0.000405545 0)
(-0.00221322 0.000439517 0)
(-0.00246414 0.000469606 0)
(1.33542e-06 -1.33851e-05 0)
(1.43527e-05 -4.17587e-05 0)
(3.8446e-05 -6.78134e-05 0)
(7.15144e-05 -9.0366e-05 0)
(0.000112224 -0.00011066 0)
(0.000159693 -0.000128371 0)
(0.000212692 -0.000142067 0)
(0.000269445 -0.000150219 0)
(0.000327692 -0.000151678 0)
(0.000384823 -0.000145756 0)
(0.000438011 -0.000132191 0)
(0.00048435 -0.00011111 0)
(0.000520993 -8.30255e-05 0)
(0.000545309 -4.88628e-05 0)
(0.000555055 -9.97361e-06 0)
(0.000548562 3.18734e-05 0)
(0.000524926 7.45544e-05 0)
(0.000484153 0.000115729 0)
(0.000427253 0.00015304 0)
(0.000356219 0.00018437 0)
(0.000273876 0.00020809 0)
(0.000183617 0.000223243 0)
(8.90664e-05 0.000229625 0)
(-6.267e-06 0.000227754 0)
(-9.92986e-05 0.000218733 0)
(-0.000187581 0.00020402 0)
(-0.000269388 0.000185195 0)
(-0.000343658 0.000163765 0)
(-0.000409835 0.000141114 0)
(-0.000467651 0.000118623 0)
(-0.000517077 9.81362e-05 0)
(-0.000558873 8.23694e-05 0)
(-0.000595556 7.44694e-05 0)
(-0.000631594 7.632e-05 0)
(-0.000671722 8.71847e-05 0)
(-0.000719192 0.000104929 0)
(-0.000775797 0.000127743 0)
(-0.000842737 0.00015477 0)
(-0.000921295 0.00018605 0)
(-0.00101318 0.000222097 0)
(-0.00112052 0.000263443 0)
(-0.0012457 0.000310293 0)
(-0.00139106 0.000362351 0)
(-0.00155865 0.000418786 0)
(-0.00175 0.000478288 0)
(-0.00196598 0.00053919 0)
(-0.00220664 0.000599595 0)
(-0.00247126 0.000657512 0)
(-0.00275823 0.000710959 0)
(-0.00306518 0.000758055 0)
(1.73912e-06 -2.15762e-05 0)
(1.76658e-05 -6.27682e-05 0)
(4.65698e-05 -9.93106e-05 0)
(8.58475e-05 -0.00013066 0)
(0.000133734 -0.000158628 0)
(0.000189083 -0.000182825 0)
(0.000250445 -0.00020137 0)
(0.000315834 -0.000212223 0)
(0.000382765 -0.000213807 0)
(0.00044837 -0.000205134 0)
(0.000509518 -0.000185769 0)
(0.000562943 -0.000155803 0)
(0.000605382 -0.000115872 0)
(0.000633749 -6.71965e-05 0)
(0.000645331 -1.16316e-05 0)
(0.000638027 4.8339e-05 0)
(0.000610605 0.000109678 0)
(0.000562925 0.000168984 0)
(0.0004961 0.000222793 0)
(0.000412506 0.00026797 0)
(0.000315604 0.000302106 0)
(0.000209575 0.000323809 0)
(9.88782e-05 0.000332822 0)
(-1.22206e-05 0.000329985 0)
(-0.000120072 0.000317023 0)
(-0.000221934 0.000296184 0)
(-0.00031606 0.000269829 0)
(-0.000401579 0.000240098 0)
(-0.000478201 0.000208763 0)
(-0.000545661 0.000177333 0)
(-0.000603358 0.00014803 0)
(-0.000651257 0.000124978 0)
(-0.000692121 0.000113748 0)
(-0.000732424 0.000117845 0)
(-0.000779014 0.000135502 0)
(-0.0008356 0.00016257 0)
(-0.000903352 0.000196053 0)
(-0.000982825 0.000234867 0)
(-0.00107507 0.000279441 0)
(-0.00118203 0.000330857 0)
(-0.00130639 0.000390078 0)
(-0.00145122 0.000457452 0)
(-0.00161953 0.000532503 0)
(-0.00181391 0.000613933 0)
(-0.00203625 0.000699756 0)
(-0.00228757 0.000787482 0)
(-0.00256791 0.00087432 0)
(-0.0028763 0.00095736 0)
(-0.00321077 0.00103372 0)
(-0.00356842 0.00110066 0)
(2.10878e-06 -3.14508e-05 0)
(2.06964e-05 -8.76152e-05 0)
(5.40104e-05 -0.000136195 0)
(9.89812e-05 -0.000177463 0)
(0.000153444 -0.000213915 0)
(0.000216009 -0.000245168 0)
(0.000285046 -0.000268933 0)
(0.000358414 -0.000282668 0)
(0.000433474 -0.00028435 0)
(0.00050717 -0.000272648 0)
(0.00057613 -0.000246895 0)
(0.000636769 -0.000207083 0)
(0.000685418 -0.000153901 0)
(0.000718497 -8.88292e-05 0)
(0.000732745 -1.42206e-05 0)
(0.000725507 6.66654e-05 0)
(0.00069509 0.000149735 0)
(0.000641087 0.0002303 0)
(0.000564664 0.000303495 0)
(0.00046863 0.000364865 0)
(0.000357225 0.000410988 0)
(0.000235617 0.000439933 0)
(0.000109305 0.0004514 0)
(-1.65074e-05 0.000446711 0)
(-0.000137514 0.000428489 0)
(-0.00025071 0.00040009 0)
(-0.000354505 0.000364951 0)
(-0.000448519 0.000326014 0)
(-0.000533162 0.000285351 0)
(-0.000608444 0.000244018 0)
(-0.0006727 0.000203939 0)
(-0.000723888 0.000170974 0)
(-0.000764498 0.000155075 0)
(-0.000804516 0.000162954 0)
(-0.000854482 0.000190421 0)
(-0.000918202 0.000229373 0)
(-0.000995098 0.000275114 0)
(-0.0010844 0.000326656 0)
(-0.00118674 0.000385417 0)
(-0.00130442 0.00045354 0)
(-0.00144096 0.000532694 0)
(-0.00160035 0.000623428 0)
(-0.00178648 0.000724991 0)
(-0.00200259 0.00083544 0)
(-0.00225101 0.000951892 0)
(-0.00253293 0.00107082 0)
(-0.00284836 0.00118833 0)
(-0.00319609 0.00130043 0)
(-0.00357376 0.00140316 0)
(-0.00397791 0.00149281 0)
(2.42232e-06 -4.28021e-05 0)
(2.32283e-05 -0.00011584 0)
(6.02189e-05 -0.000177822 0)
(0.000109944 -0.000230006 0)
(0.000169923 -0.000275669 0)
(0.000238581 -0.000314517 0)
(0.000314175 -0.000343903 0)
(0.000394482 -0.000360799 0)
(0.000476786 -0.00036272 0)
(0.000557926 -0.000347945 0)
(0.000634355 -0.000315504 0)
(0.000702215 -0.00026519 0)
(0.000757435 -0.000197646 0)
(0.000795891 -0.000114512 0)
(0.00081366 -1.85886e-05 0)
(0.000807363 8.60648e-05 0)
(0.000774633 0.00019416 0)
(0.000714608 0.000299445 0)
(0.0006284 0.000395255 0)
(0.00051932 0.000475382 0)
(0.000392613 0.000535068 0)
(0.00025473 0.000571696 0)
(0.00011253 0.000584942 0)
(-2.7547e-05 0.000576832 0)
(-0.000160357 0.000551287 0)
(-0.000282639 0.000513263 0)
(-0.000393148 0.000467729 0)
(-0.000492407 0.000418771 0)
(-0.000582346 0.000368781 0)
(-0.000664047 0.0003172 0)
(-0.000734197 0.000263916 0)
(-0.000786281 0.000216545 0)
(-0.000821062 0.000193261 0)
(-0.000855008 0.000207573 0)
(-0.000905484 0.00024963 0)
(-0.000975232 0.00030354 0)
(-0.0010597 0.000362552 0)
(-0.00115589 0.000426734 0)
(-0.00126403 0.000499605 0)
(-0.00138722 0.000585112 0)
(-0.00153026 0.000685942 0)
(-0.00169849 0.000802836 0)
(-0.00189687 0.000934577 0)
(-0.00212947 0.00107831 0)
(-0.00239908 0.00122997 0)
(-0.00270706 0.00138473 0)
(-0.00305337 0.00153741 0)
(-0.00343654 0.00168269 0)
(-0.00385378 0.00181544 0)
(-0.00430106 0.00193084 0)
(2.6572e-06 -5.5309e-05 0)
(2.5068e-05 -0.00014672 0)
(6.47088e-05 -0.000223179 0)
(0.000117866 -0.000287074 0)
(0.000181863 -0.000342562 0)
(0.000255029 -0.000389513 0)
(0.000335595 -0.000424969 0)
(0.000421352 -0.000445437 0)
(0.000509604 -0.000447958 0)
(0.000597178 -0.000430369 0)
(0.000680448 -0.000391306 0)
(0.000755344 -0.000330235 0)
(0.000817415 -0.000247595 0)
(0.000861948 -0.000145024 0)
(0.000884221 -2.56409e-05 0)
(0.000879899 0.000105738 0)
(0.000845634 0.000242512 0)
(0.000779783 0.000376533 0)
(0.000683209 0.000498775 0)
(0.000559792 0.000600637 0)
(0.000416131 0.000675543 0)
(0.00026038 0.000720023 0)
(0.000101208 0.000733716 0)
(-5.3245e-05 0.000719653 0)
(-0.000196701 0.000683639 0)
(-0.000325601 0.000632937 0)
(-0.000439217 0.000574741 0)
(-0.000539386 0.000514983 0)
(-0.000630936 0.000456946 0)
(-0.000717996 0.000396436 0)
(-0.000795354 0.000327273 0)
(-0.000847324 0.000257623 0)
(-0.000869162 0.000221418 0)
(-0.000889574 0.00024717 0)
(-0.000938855 0.000311821 0)
(-0.00101543 0.000384165 0)
(-0.00110652 0.000456122 0)
(-0.00120615 0.000531138 0)
(-0.00131474 0.000616745 0)
(-0.00143709 0.000719633 0)
(-0.00158003 0.000843726 0)
(-0.00175069 0.000989778 0)
(-0.00195542 0.00115574 0)
(-0.00219913 0.00133746 0)
(-0.0024851 0.00152934 0)
(-0.00281483 0.001725 0)
(-0.00318815 0.00191769 0)
(-0.00360329 0.00210065 0)
(-0.004057 0.0022674 0)
(-0.00454467 0.0024119 0)
(2.79461e-06 -6.85619e-05 0)
(2.60625e-05 -0.000179322 0)
(6.70884e-05 -0.000270941 0)
(0.00012203 -0.00034707 0)
(0.000188155 -0.000412837 0)
(0.000263808 -0.000468338 0)
(0.000347298 -0.000510354 0)
(0.000436538 -0.00053495 0)
(0.000528968 -0.000538684 0)
(0.000621533 -0.000518903 0)
(0.000710644 -0.000473743 0)
(0.000792134 -0.000402184 0)
(0.000861235 -0.000304238 0)
(0.000912632 -0.000181287 0)
(0.000940665 -3.65186e-05 0)
(0.000939749 0.000124643 0)
(0.000905112 0.000294234 0)
(0.0008338 0.000461834 0)
(0.00072604 0.000615257 0)
(0.000586346 0.000742507 0)
(0.00042321 0.000834482 0)
(0.000247064 0.000886702 0)
(6.89777e-05 0.000898668 0)
(-0.000100504 0.00087481 0)
(-0.000253528 0.00082366 0)
(-0.000386187 0.000755778 0)
(-0.000498345 0.000681463 0)
(-0.000593195 0.000609677 0)
(-0.000680357 0.000547086 0)
(-0.000771226 0.000483014 0)
(-0.000860139 0.000396161 0)
(-0.00091412 0.000290249 0)
(-0.000914019 0.000229772 0)
(-0.00091137 0.000277133 0)
(-0.000960703 0.000378264 0)
(-0.00104809 0.000472005 0)
(-0.00114507 0.00055357 0)
(-0.00124324 0.000634883 0)
(-0.00134511 0.000730297 0)
(-0.00145879 0.00085006 0)
(-0.00159404 0.000999187 0)
(-0.00176024 0.00117792 0)
(-0.00196522 0.0013828 0)
(-0.00221475 0.00160785 0)
(-0.00251247 0.00184557 0)
(-0.00285993 0.00208768 0)
(-0.00325675 0.0023257 0)
(-0.0037008 0.00255126 0)
(-0.00418833 0.00275643 0)
(-0.00471417 0.00293381 0)
(2.81996e-06 -8.20833e-05 0)
(2.60928e-05 -0.000212543 0)
(6.70439e-05 -0.000319525 0)
(0.000121846 -0.000408065 0)
(0.000187867 -0.00048434 0)
(0.000263574 -0.000548729 0)
(0.000347473 -0.000597799 0)
(0.000437718 -0.000627205 0)
(0.000532017 -0.000633029 0)
(0.000627586 -0.000612085 0)
(0.000721048 -0.000561908 0)
(0.000808314 -0.0004808 0)
(0.000884444 -0.000368061 0)
(0.000943577 -0.000224445 0)
(0.000979018 -5.27965e-05 0)
(0.000983599 0.000141201 0)
(0.000950515 0.000348328 0)
(0.000874645 0.000555534 0)
(0.000754834 0.000746312 0)
(0.000596258 0.000903652 0)
(0.000410208 0.00101486 0)
(0.000210135 0.00107446 0)
(1.02237e-05 0.00108147 0)
(-0.000175497 0.00104222 0)
(-0.000336996 0.000969245 0)
(-0.000470162 0.000877759 0)
(-0.00057551 0.000781923 0)
(-0.000656473 0.000694837 0)
(-0.000728567 0.000633479 0)
(-0.000818093 0.000580133 0)
(-0.00092601 0.00047893 0)
(-0.000990166 0.000311773 0)
(-0.000958402 0.000202563 0)
(-0.000922178 0.000293932 0)
(-0.000978857 0.000456534 0)
(-0.00108495 0.000570196 0)
(-0.00118518 0.000651559 0)
(-0.00127352 0.000730769 0)
(-0.0013587 0.000831767 0)
(-0.00145423 0.000968066 0)
(-0.00157351 0.0011448 0)
(-0.00172825 0.00136072 0)
(-0.00192763 0.00161014 0)
(-0.00217806 0.00188467 0)
(-0.00248335 0.00217448 0)
(-0.00284492 0.00246917 0)
(-0.0032621 0.00275834 0)
(-0.00373236 0.00303192 0)
(-0.00425147 0.00328039 0)
(-0.00481369 0.00349494 0)
(2.72341e-06 -9.53455e-05 0)
(2.50712e-05 -0.000245136 0)
(6.43316e-05 -0.000367129 0)
(0.000116847 -0.000467837 0)
(0.000180227 -0.000554555 0)
(0.00025318 -0.000627991 0)
(0.000334513 -0.000684547 0)
(0.000422734 -0.000719517 0)
(0.000515966 -0.000728536 0)
(0.000611874 -0.000707878 0)
(0.000707524 -0.000654392 0)
(0.000799164 -0.000565507 0)
(0.000881951 -0.000439471 0)
(0.000949669 -0.0002759 0)
(0.000994599 -7.66648e-05 0)
(0.00100768 0.000152949 0)
(0.00097933 0.000402914 0)
(0.000900881 0.000657398 0)
(0.000768385 0.00089389 0)
(0.000587572 0.00108759 0)
(0.000374192 0.00122055 0)
(0.000145595 0.0012871 0)
(-8.02159e-05 0.00128464 0)
(-0.000283956 0.00122211 0)
(-0.000452628 0.00111805 0)
(-0.000582732 0.000994379 0)
(-0.000676092 0.000869083 0)
(-0.000734157 0.000758735 0)
(-0.000773966 0.0007012 0)
(-0.000843162 0.000685586 0)
(-0.000973986 0.000595132 0)
(-0.00106797 0.000327938 0)
(-0.00100283 0.000119055 0)
(-0.000928861 0.000300735 0)
(-0.00101079 0.000566358 0)
(-0.00114432 0.000680717 0)
(-0.00123611 0.00074126 0)
(-0.00129905 0.000807075 0)
(-0.00135424 0.000910094 0)
(-0.00142129 0.00106424 0)
(-0.0015166 0.00127286 0)
(-0.00165361 0.00153192 0)
(-0.00184238 0.00183261 0)
(-0.00208958 0.00216358 0)
(-0.00239889 0.00251237 0)
(-0.00277144 0.00286629 0)
(-0.00320622 0.00321291 0)
(-0.0037003 0.00354038 0)
(-0.00424903 0.00383753 0)
(-0.00484619 0.00409404 0)
(2.50115e-06 -0.00010779 0)
(2.29471e-05 -0.000275745 0)
(5.87921e-05 -0.00041178 0)
(0.000106707 -0.000523929 0)
(0.000164676 -0.000620651 0)
(0.000231745 -0.000703022 0)
(0.0003071 -0.000767334 0)
(0.000389705 -0.000808589 0)
(0.000478225 -0.000822048 0)
(0.000570969 -0.000803489 0)
(0.000665718 -0.000749049 0)
(0.000759427 -0.000655128 0)
(0.00084777 -0.000518561 0)
(0.00092459 -0.000337201 0)
(0.000981387 -0.000111039 0)
(0.00100708 0.000156145 0)
(0.000988485 0.000454573 0)
(0.000911359 0.000766209 0)
(0.000766255 0.00106021 0)
(0.000558905 0.00129888 0)
(0.000312772 0.00145635 0)
(4.9934e-05 0.00152966 0)
(-0.000207305 0.00151171 0)
(-0.000431089 0.00141482 0)
(-0.000604554 0.00126728 0)
(-0.000727336 0.00110115 0)
(-0.000804484 0.00093587 0)
(-0.000835478 0.00078997 0)
(-0.000830503 0.000725252 0)
(-0.000833866 0.000762115 0)
(-0.00094407 0.000757228 0)
(-0.00108779 0.000368295 0)
(-0.00104983 -5.45918e-05 0)
(-0.000992982 0.000319027 0)
(-0.00112407 0.000732513 0)
(-0.00126085 0.000781803 0)
(-0.00130081 0.00079621 0)
(-0.00131092 0.000844073 0)
(-0.00132176 0.000952013 0)
(-0.00135229 0.0011295 0)
(-0.00141823 0.00137677 0)
(-0.00153339 0.00168647 0)
(-0.00170817 0.00204614 0)
(-0.00194913 0.00244113 0)
(-0.00225965 0.0028562 0)
(-0.00264053 0.00327631 0)
(-0.00309043 0.00368702 0)
(-0.0036061 0.00407464 0)
(-0.00418264 0.00442633 0)
(-0.0048135 0.00473017 0)
(2.15648e-06 -0.000118851 0)
(1.97182e-05 -0.000302954 0)
(5.03835e-05 -0.000451393 0)
(9.13107e-05 -0.000573715 0)
(0.000140967 -0.000679554 0)
(0.000198794 -0.000770374 0)
(0.000264404 -0.000842412 0)
(0.000337261 -0.000890476 0)
(0.00041667 -0.000909582 0)
(0.000501752 -0.00089514 0)
(0.000591297 -0.000842657 0)
(0.00068341 -0.000747457 0)
(0.000774904 -0.000604668 0)
(0.000860394 -0.000409696 0)
(0.000931251 -0.000159465 0)
(0.000974626 0.000145426 0)
(0.000973312 0.000497464 0)
(0.00090465 0.000878773 0)
(0.000748741 0.00124757 0)
(0.000509123 0.00154359 0)
(0.00022363 0.00172768 0)
(-8.02948e-05 0.00180856 0)
(-0.00037603 0.00176687 0)
(-0.000620519 0.00162007 0)
(-0.000792944 0.00141285 0)
(-0.000902647 0.00119514 0)
(-0.000964226 0.000980346 0)
(-0.000975044 0.000784701 0)
(-0.000935341 0.000685989 0)
(-0.00084388 0.000724735 0)
(-0.000791959 0.000859026 0)
(-0.000882925 0.000502833 0)
(-0.00111191 1.0479e-05 0)
(-0.00133703 0.000436849 0)
(-0.00142625 0.00084706 0)
(-0.00139148 0.000777926 0)
(-0.00131397 0.000771125 0)
(-0.00126195 0.000825412 0)
(-0.00123404 0.000951909 0)
(-0.00123268 0.00116113 0)
(-0.00127096 0.00145434 0)
(-0.00136411 0.00182218 0)
(-0.00152372 0.00224846 0)
(-0.00175667 0.00271499 0)
(-0.00206625 0.0032036 0)
(-0.00245307 0.0036969 0)
(-0.00291562 0.00417844 0)
(-0.00345063 0.00463275 0)
(-0.0040531 0.00504528 0)
(-0.00471638 0.00540244 0)
(1.7003e-06 -0.000127983 0)
(1.54446e-05 -0.00032535 0)
(3.92235e-05 -0.000483873 0)
(7.0832e-05 -0.000614526 0)
(0.00010929 -0.000728077 0)
(0.000154456 -0.000826368 0)
(0.000206346 -0.000905635 0)
(0.000264909 -0.000960613 0)
(0.000330097 -0.000986253 0)
(0.000401934 -0.000977837 0)
(0.000480456 -0.000930494 0)
(0.000565393 -0.000838641 0)
(0.000655477 -0.000695616 0)
(0.0007472 -0.000493782 0)
(0.000833075 -0.000225619 0)
(0.000899482 0.00011378 0)
(0.000925597 0.000522352 0)
(0.000877257 0.000988402 0)
(0.000716789 0.00145713 0)
(0.000437424 0.00183068 0)
(0.000103813 0.00203978 0)
(-0.000250125 0.00213192 0)
(-0.000592749 0.00205342 0)
(-0.000852459 0.00183419 0)
(-0.00100859 0.00154535 0)
(-0.00109189 0.00127461 0)
(-0.00114104 0.00101564 0)
(-0.00115759 0.000771098 0)
(-0.00113974 0.000628472 0)
(-0.00108013 0.000621268 0)
(-0.0010277 0.000882782 0)
(-0.00101351 0.000610826 0)
(-0.00117076 0.000323347 0)
(-0.00133629 0.000552269 0)
(-0.00130327 0.000846608 0)
(-0.00122088 0.000676724 0)
(-0.00114779 0.000696057 0)
(-0.0011039 0.00078071 0)
(-0.001074 0.00092861 0)
(-0.00105688 0.00116851 0)
(-0.00107333 0.00150931 0)
(-0.00114596 0.00193996 0)
(-0.0012901 0.00243896 0)
(-0.00151362 0.00298366 0)
(-0.00182009 0.00355252 0)
(-0.0022102 0.0041257 0)
(-0.00268261 0.00468476 0)
(-0.00323424 0.00521248 0)
(-0.00386035 0.0056926 0)
(-0.00455447 0.00610981 0)
(1.15114e-06 -0.000134695 0)
(1.02618e-05 -0.000341613 0)
(2.56311e-05 -0.00050724 0)
(4.5815e-05 -0.000643809 0)
(7.04175e-05 -0.000763105 0)
(9.96787e-05 -0.000867298 0)
(0.000133932 -0.000952649 0)
(0.000173494 -0.00101394 0)
(0.000218845 -0.00104629 0)
(0.000270844 -0.00104521 0)
(0.000330831 -0.00100589 0)
(0.000400508 -0.000922372 0)
(0.000481352 -0.000786552 0)
(0.000573231 -0.000587555 0)
(0.000671924 -0.000312027 0)
(0.000765217 5.35169e-05 0)
(0.000830758 0.00051668 0)
(0.000818853 0.00108574 0)
(0.000665414 0.00168763 0)
(0.000338541 0.00217108 0)
(-5.11348e-05 0.00239342 0)
(-0.000469001 0.00251651 0)
(-0.000873303 0.00237378 0)
(-0.00112744 0.00203918 0)
(-0.00122829 0.00163846 0)
(-0.00125725 0.00133365 0)
(-0.00128317 0.00105568 0)
(-0.0013146 0.000800819 0)
(-0.00137245 0.000657068 0)
(-0.0014664 0.000627617 0)
(-0.00129595 0.000668478 0)
(-0.00103214 0.000557552 0)
(-0.00113237 0.000530949 0)
(-0.00119427 0.000471491 0)
(-0.000904959 0.000632188 0)
(-0.000752648 0.000675593 0)
(-0.000853368 0.000712831 0)
(-0.000897052 0.000777098 0)
(-0.000883457 0.000909028 0)
(-0.000849777 0.00116066 0)
(-0.000839683 0.00154346 0)
(-0.000887409 0.00203924 0)
(-0.00101277 0.00261614 0)
(-0.00122381 0.00324499 0)
(-0.00152385 0.00390028 0)
(-0.00191361 0.00455965 0)
(-0.0023921 0.00520284 0)
(-0.00295676 0.00581091 0)
(-0.00360341 0.00636599 0)
(-0.00432614 0.00685093 0)
(5.36984e-07 -0.000138594 0)
(4.39051e-06 -0.000350619 0)
(1.01552e-05 -0.0005198 0)
(1.72347e-05 -0.000659343 0)
(2.581e-05 -0.000781857 0)
(3.64214e-05 -0.000889728 0)
(4.95634e-05 -0.000979218 0)
(6.56988e-05 -0.00104524 0)
(8.55556e-05 -0.0010833 0)
(0.000110502 -0.00108954 0)
(0.000142905 -0.00105991 0)
(0.000186372 -0.000988992 0)
(0.000245653 -0.000868363 0)
(0.000325655 -0.000684747 0)
(0.00042868 -0.000418355 0)
(0.000548377 -4.34396e-05 0)
(0.000667988 0.000460346 0)
(0.000725642 0.00114894 0)
(0.000602956 0.00194333 0)
(0.000199719 0.00259122 0)
(-0.000255984 0.00276666 0)
(-0.000745511 0.00299777 0)
(-0.00122864 0.00272873 0)
(-0.00143426 0.00219279 0)
(-0.00141938 0.00163531 0)
(-0.00134628 0.00134129 0)
(-0.00130389 0.0010578 0)
(-0.00125984 0.000806842 0)
(-0.00120476 0.000667689 0)
(-0.00111861 0.000618183 0)
(-0.00102091 0.000430046 0)
(-0.000955681 0.000488101 0)
(-0.00110523 0.000759398 0)
(-0.00127635 0.000380029 0)
(-0.00118201 0.000365281 0)
(-0.00102557 0.000649489 0)
(-0.00090934 0.000694876 0)
(-0.000817268 0.000745019 0)
(-0.00073306 0.000856279 0)
(-0.000645515 0.00111673 0)
(-0.000587571 0.00154383 0)
(-0.00059814 0.00211253 0)
(-0.000698263 0.00277512 0)
(-0.000892001 0.00349484 0)
(-0.00118082 0.00424263 0)
(-0.00156511 0.00499435 0)
(-0.00204446 0.0057283 0)
(-0.0026172 0.0064241 0)
(-0.00328011 0.00706225 0)
(-0.00402825 0.0076238 0)
(-9.51564e-08 -0.000139398 0)
(-1.85727e-06 -0.000351581 0)
(-6.43018e-06 -0.000520331 0)
(-1.34934e-05 -0.00065949 0)
(-2.23416e-05 -0.000782208 0)
(-3.2245e-05 -0.000890896 0)
(-4.2743e-05 -0.000981713 0)
(-5.35274e-05 -0.00104969 0)
(-6.40666e-05 -0.00109084 0)
(-7.30998e-05 -0.00110228 0)
(-7.80313e-05 -0.00108145 0)
(-7.42135e-05 -0.00102474 0)
(-5.4186e-05 -0.000925484 0)
(-7.27521e-06 -0.000770684 0)
(7.91014e-05 -0.000536278 0)
(0.000212172 -0.0001814 0)
(0.000386744 0.000332453 0)
(0.00054508 0.00113734 0)
(0.000545648 0.00218386 0)
(8.70212e-05 0.00316334 0)
(-0.000517008 0.00317493 0)
(-0.00118953 0.00368536 0)
(-0.00170543 0.00300966 0)
(-0.00168646 0.0022077 0)
(-0.00154508 0.00153438 0)
(-0.00136716 0.0012142 0)
(-0.00119493 0.000959271 0)
(-0.00106413 0.000704271 0)
(-0.000946468 0.000562175 0)
(-0.000829624 0.000488024 0)
(-0.000732467 0.00039235 0)
(-0.00075988 0.000541565 0)
(-0.000814655 0.000915447 0)
(-0.000891622 0.000464552 0)
(-0.000926719 0.000261431 0)
(-0.000836937 0.000531877 0)
(-0.000759039 0.000575013 0)
(-0.000675922 0.000638125 0)
(-0.000563591 0.000745125 0)
(-0.000426845 0.00101653 0)
(-0.000310714 0.00149489 0)
(-0.000276554 0.00215176 0)
(-0.000348865 0.00291086 0)
(-0.000521808 0.00372836 0)
(-0.000793972 0.004574 0)
(-0.001166 0.00542374 0)
(-0.00163909 0.00625523 0)
(-0.00221323 0.00704674 0)
(-0.00288664 0.00777708 0)
(-0.00365576 0.00842552 0)
(-7.23864e-07 -0.000137003 0)
(-8.12784e-06 -0.000344148 0)
(-2.31487e-05 -0.000508265 0)
(-4.45699e-05 -0.000643446 0)
(-7.11969e-05 -0.000763032 0)
(-0.000102211 -0.000869196 0)
(-0.000137366 -0.000957776 0)
(-0.000176813 -0.00102374 0)
(-0.000220726 -0.00106354 0)
(-0.000268783 -0.00107533 0)
(-0.000319454 -0.00105842 0)
(-0.000368961 -0.00101219 0)
(-0.00040968 -0.000934248 0)
(-0.000427898 -0.000816734 0)
(-0.000401226 -0.000639392 0)
(-0.00029626 -0.000356575 0)
(-8.53674e-05 9.9049e-05 0)
(0.00024429 0.000928184 0)
(0.000539311 0.00226041 0)
(0.000249322 0.0038639 0)
(-0.000684658 0.00392112 0)
(-0.00158936 0.00447495 0)
(-0.00181837 0.00303222 0)
(-0.00149495 0.00198973 0)
(-0.00118058 0.00133625 0)
(-0.000970141 0.00100388 0)
(-0.000808733 0.000796724 0)
(-0.000687015 0.000571057 0)
(-0.000620955 0.000471435 0)
(-0.000598965 0.000411653 0)
(-0.000614538 0.000380084 0)
(-0.00062922 0.00059072 0)
(-0.000492445 0.000803519 0)
(-0.000389662 0.000565436 0)
(-0.000459202 0.000262216 0)
(-0.000434474 0.000438663 0)
(-0.000403131 0.000544841 0)
(-0.000434771 0.000566572 0)
(-0.000361137 0.000616249 0)
(-0.000184258 0.000860399 0)
(2.37316e-07 0.00138906 0)
(8.08486e-05 0.0021569 0)
(3.18141e-05 0.00302267 0)
(-0.00011834 0.00394134 0)
(-0.000366676 0.00488749 0)
(-0.000716944 0.00583979 0)
(-0.00117398 0.00677568 0)
(-0.00174059 0.00767177 0)
(-0.00241699 0.00850469 0)
(-0.00320126 0.00925197 0)
(-1.30052e-06 -0.00013151 0)
(-1.40141e-05 -0.000328482 0)
(-3.89275e-05 -0.000483818 0)
(-7.39785e-05 -0.000611444 0)
(-0.000117511 -0.000724517 0)
(-0.000168659 -0.000824648 0)
(-0.000227474 -0.000907038 0)
(-0.00029475 -0.000966265 0)
(-0.000371746 -0.000998791 0)
(-0.000459813 -0.00100339 0)
(-0.000559889 -0.000980842 0)
(-0.000671625 -0.000933464 0)
(-0.000791836 -0.00086414 0)
(-0.000911717 -0.000773735 0)
(-0.00101225 -0.000655001 0)
(-0.00105617 -0.000477842 0)
(-0.000978149 -0.000167668 0)
(-0.000674391 0.000509087 0)
(-8.74971e-05 0.00198587 0)
(-7.5616e-05 0.00457746 0)
(-0.00108175 0.00506649 0)
(-0.00168776 0.00488899 0)
(-0.00132991 0.00267029 0)
(-0.000800637 0.00157284 0)
(-0.000458756 0.00104731 0)
(-0.000273068 0.000819907 0)
(-0.000176931 0.0006707 0)
(-0.000153535 0.000522003 0)
(-0.000193547 0.00048002 0)
(-0.00026569 0.000449481 0)
(-0.000341717 0.000419588 0)
(-0.000322873 0.000519522 0)
(-0.000142171 0.000578244 0)
(6.87046e-05 0.000506983 0)
(9.49838e-05 0.000345705 0)
(1.4495e-05 0.000429316 0)
(-7.76543e-05 0.00062738 0)
(-0.000191636 0.0005778 0)
(-0.000148508 0.000469681 0)
(8.52109e-05 0.000631966 0)
(0.00034589 0.00121672 0)
(0.000465282 0.0021375 0)
(0.000429167 0.00311197 0)
(0.000307798 0.00412689 0)
(9.66272e-05 0.00517234 0)
(-0.000217309 0.00623094 0)
(-0.000644901 0.00727881 0)
(-0.00119238 0.00828983 0)
(-0.00186232 0.0092376 0)
(-0.00265446 0.0100976 0)
(-1.78282e-06 -0.000123213 0)
(-1.91267e-05 -0.000305306 0)
(-5.27215e-05 -0.000448055 0)
(-9.97335e-05 -0.000564861 0)
(-0.000158038 -0.000668342 0)
(-0.000226671 -0.000759224 0)
(-0.000305893 -0.000831719 0)
(-0.000397065 -0.00087956 0)
(-0.000502506 -0.000898602 0)
(-0.000625393 -0.000887295 0)
(-0.000769672 -0.000846547 0)
(-0.000939891 -0.000779708 0)
(-0.00114078 -0.00069247 0)
(-0.00137592 -0.000592297 0)
(-0.00164448 -0.000485869 0)
(-0.00193333 -0.000370171 0)
(-0.00219979 -0.000209258 0)
(-0.00229788 0.000188937 0)
(-0.0019045 0.00138803 0)
(-0.00137414 0.00485801 0)
(-0.00122579 0.00564307 0)
(-0.00059832 0.00442972 0)
(0.000233575 0.00211997 0)
(0.000495873 0.00123119 0)
(0.000541192 0.000885656 0)
(0.000485308 0.000763557 0)
(0.000407017 0.000669787 0)
(0.000316569 0.000579747 0)
(0.000225216 0.000560801 0)
(0.000133977 0.000543898 0)
(4.53764e-05 0.000471567 0)
(5.78027e-05 0.000412514 0)
(0.000234176 0.000354272 0)
(0.000456855 0.000332659 0)