/*--------------------------------*- C++ -*----------------------------------*\
| =========                 |                                                 |
| \\      /  F ield         | OpenFOAM: The Open Source CFD Toolbox           |
|  \\    /   O peration     | Version:  2.4.0                                 |
|   \\  /    A nd           | Web:      www.OpenFOAM.org                      |
|    \\/     M anipulation  |                                                 |
\*---------------------------------------------------------------------------*/
FoamFile
{
    version     2.0;
    format      ascii;
    class       surfaceScalarField;
    location    "0.099";
    object      phi;
}
// * * * * * * * * * * * * * * * * * * * * * * * * * * * * * * * * * * * * * //

dimensions      [0 3 -1 0 0 0 0];

internalField   nonuniform List<scalar> 
19800
(
2.02499e-13
-2.02499e-13
2.25337e-13
-2.53725e-14
-3.77404e-13
6.01532e-13
-1.60727e-12
1.22929e-12
-3.27573e-12
1.66796e-12
-5.19113e-12
1.91505e-12
-7.19676e-12
2.00558e-12
-9.18035e-12
1.9836e-12
-1.10614e-11
1.88065e-12
-1.27781e-11
1.71576e-12
-1.42791e-11
1.49958e-12
-1.5518e-11
1.23796e-12
-1.64527e-11
9.34668e-13
-1.70423e-11
5.90469e-13
-1.72486e-11
2.07686e-13
-1.70365e-11
-2.11335e-13
-1.63726e-11
-6.64214e-13
-1.52275e-11
-1.14622e-12
-1.35778e-11
-1.65076e-12
-1.14084e-11
-2.16953e-12
-8.71496e-12
-2.69251e-12
-5.50551e-12
-3.20789e-12
-1.80183e-12
-3.70229e-12
2.3593e-12
-4.16034e-12
6.92511e-12
-4.56541e-12
1.18252e-11
-4.89944e-12
1.69702e-11
-5.14385e-12
2.22519e-11
-5.28021e-12
2.7544e-11
-5.29097e-12
3.27044e-11
-5.16016e-12
3.75781e-11
-4.87439e-12
4.20018e-11
-4.42458e-12
4.58096e-11
-3.80807e-12
4.88405e-11
-3.03025e-12
5.09465e-11
-2.10489e-12
5.2e-11
-1.05289e-12
5.18997e-11
9.9729e-14
5.05724e-11
1.32579e-12
4.79742e-11
2.59643e-12
4.40888e-11
3.88395e-12
3.89255e-11
5.16225e-12
3.25186e-11
6.40591e-12
2.49265e-11
7.59087e-12
1.62306e-11
8.69461e-12
6.53344e-12
9.69628e-12
-4.04311e-12
1.05767e-11
-1.53601e-11
1.1318e-11
-2.72633e-11
1.19043e-11
-3.95843e-11
1.23212e-11
1.25579e-11
-5.21428e-11
2.56539e-14
-2.28269e-13
-7.14788e-13
7.13155e-13
-2.86689e-12
2.75144e-12
-6.36698e-12
4.72795e-12
-1.08371e-11
6.13756e-12
-1.58545e-11
6.93267e-12
-2.10703e-11
7.22153e-12
-2.62156e-11
7.12838e-12
-3.1084e-11
6.74756e-12
-3.55099e-11
6.13975e-12
-3.93525e-11
5.34074e-12
-4.24855e-11
4.37094e-12
-4.47918e-11
3.24232e-12
-4.61622e-11
1.96266e-12
-4.64931e-11
5.39642e-13
-4.56879e-11
-1.01708e-12
-4.36587e-11
-2.69516e-12
-4.03297e-11
-4.47675e-12
-3.56423e-11
-6.33845e-12
-2.95596e-11
-8.25077e-12
-2.20721e-11
-1.01776e-11
-1.32017e-11
-1.20761e-11
-3.0061e-12
-1.38963e-11
8.41787e-12
-1.55833e-11
2.09305e-11
-1.70767e-11
3.43464e-11
-1.83135e-11
4.84333e-11
-1.92284e-11
6.29116e-11
-1.97568e-11
7.74575e-11
-1.98364e-11
9.17071e-11
-1.94105e-11
1.05264e-10
-1.84321e-11
1.17709e-10
-1.68696e-11
1.28615e-10
-1.47135e-11
1.37567e-10
-1.19808e-11
1.44178e-10
-8.71565e-12
1.4811e-10
-4.98623e-12
1.49085e-10
-8.77565e-13
1.46891e-10
3.51629e-12
1.41388e-10
8.09697e-12
1.32502e-10
1.27681e-11
1.20228e-10
1.74356e-11
1.04623e-10
2.20085e-11
8.5813e-11
2.63993e-11
6.39827e-11
3.05239e-11
3.93776e-11
3.4302e-11
1.22978e-11
3.76578e-11
-1.69051e-11
4.05219e-11
-4.78327e-11
4.28321e-11
-8.00469e-11
4.45346e-11
4.55872e-11
-1.13077e-10
-6.04672e-13
3.75194e-13
-2.77074e-12
2.87837e-12
-6.89754e-12
6.87728e-12
-1.27677e-11
1.05976e-11
-1.9872e-11
1.32422e-11
-2.76706e-11
1.47322e-11
-3.57021e-11
1.52536e-11
-4.35971e-11
1.50231e-11
-5.10604e-11
1.42097e-11
-5.78476e-11
1.29254e-11
-6.37464e-11
1.12385e-11
-6.8565e-11
9.18969e-12
-7.21252e-11
6.80366e-12
-7.42599e-11
4.0985e-12
-7.48118e-11
1.09163e-12
-7.36342e-11
-2.1959e-12
-7.05954e-11
-5.73593e-12
-6.55829e-11
-9.49067e-12
-5.85105e-11
-1.34109e-11
-4.93252e-11
-1.74347e-11
-3.80145e-11
-2.14865e-11
-2.46127e-11
-2.54763e-11
-9.20684e-12
-2.9301e-11
8.057e-12
-3.28462e-11
2.69698e-11
-3.59883e-11
4.72551e-11
-3.85971e-11
6.85682e-11
-4.05396e-11
9.04964e-11
-4.16836e-11
1.12563e-10
-4.19021e-11
1.34231e-10
-4.10785e-11
1.54913e-10
-3.91147e-11
1.73987e-10
-3.59435e-11
1.90815e-10
-3.15414e-11
2.04774e-10
-2.59389e-11
2.1528e-10
-1.92227e-11
2.2182e-10
-1.15284e-11
2.23968e-10
-3.02726e-12
2.21393e-10
6.08972e-12
2.13864e-10
1.56243e-11
2.01253e-10
2.53791e-11
1.83527e-10
3.51611e-11
1.60754e-10
4.47812e-11
1.33097e-10
5.40549e-11
1.00818e-10
6.28026e-11
6.42699e-11
7.08507e-11
2.38943e-11
7.80341e-11
-1.97836e-11
8.41997e-11
-6.61631e-11
8.92107e-11
-1.14579e-10
9.29496e-11
9.53222e-11
-1.64314e-10
-1.23112e-12
1.60507e-12
-4.7808e-12
6.42748e-12
-1.07067e-11
1.28031e-11
-1.86091e-11
1.85005e-11
-2.78686e-11
2.25028e-11
-3.78671e-11
2.47321e-11
-4.80758e-11
2.54633e-11
-5.80631e-11
2.50103e-11
-6.74741e-11
2.36195e-11
-7.60072e-11
2.1457e-11
-8.33956e-11
1.86262e-11
-8.93956e-11
1.51899e-11
-9.37795e-11
1.11884e-11
-9.63326e-11
6.65212e-12
-9.68529e-11
1.61143e-12
-9.5153e-11
-3.89739e-12
-9.10648e-11
-9.82585e-12
-8.44462e-11
-1.61104e-11
-7.51888e-11
-2.26681e-11
-6.32268e-11
-2.93955e-11
-4.85456e-11
-3.6166e-11
-3.11905e-11
-4.28301e-11
-1.12739e-11
-4.92168e-11
1.10176e-11
-5.51372e-11
3.54177e-11
-6.03876e-11
6.15764e-11
-6.47546e-11
8.90591e-11
-6.80208e-11
1.17348e-10
-6.99709e-11
1.45843e-10
-7.03968e-11
1.73869e-10
-6.91041e-11
2.00679e-10
-6.59253e-11
2.25476e-10
-6.07403e-11
2.47435e-10
-5.35007e-11
2.65745e-10
-4.42493e-11
2.79646e-10
-3.31249e-11
2.88467e-10
-2.03509e-11
2.91649e-10
-6.21007e-12
2.88755e-10
8.98307e-12
2.79476e-10
2.49037e-11
2.63627e-10
4.12283e-11
2.4115e-10
5.76386e-11
2.12111e-10
7.38206e-11
1.76702e-10
8.94635e-11
1.35243e-10
1.04261e-10
8.81784e-11
1.17915e-10
3.60754e-11
1.30137e-10
-2.03858e-11
1.40661e-10
-8.04197e-11
1.49244e-10
-1.43152e-10
1.55682e-10
1.59807e-10
-2.07636e-10
-1.685e-12
3.28947e-12
-6.27412e-12
1.10162e-11
-1.35616e-11
2.00909e-11
-2.29822e-11
2.79223e-11
-3.38193e-11
3.33415e-11
-4.5394e-11
3.63085e-11
-5.71317e-11
3.72017e-11
-6.8559e-11
3.64372e-11
-7.928e-11
3.43392e-11
-8.89519e-11
3.11275e-11
-9.72665e-11
2.69402e-11
-1.03939e-10
2.18627e-11
-1.08702e-10
1.59514e-11
-1.113e-10
9.25072e-12
-1.11494e-10
1.80541e-12
-1.09063e-10
-6.3302e-12
-1.03806e-10
-1.50841e-11
-9.55548e-11
-2.43617e-11
-8.41811e-11
-3.40411e-11
-6.96062e-11
-4.39691e-11
-5.18117e-11
-5.39591e-11
-3.08501e-11
-6.37909e-11
-6.85326e-12
-7.32136e-11
1.99599e-11
-8.19505e-11
4.9277e-11
-8.97044e-11
8.06891e-11
-9.61657e-11
1.13691e-10
-1.01022e-10
1.47684e-10
-1.03962e-10
1.81971e-10
-1.04683e-10
2.15763e-10
-1.02896e-10
2.48175e-10
-9.83386e-11
2.7825e-10
-9.0815e-11
3.04981e-10
-8.02325e-11
3.27372e-10
-6.66402e-11
3.44486e-10
-5.02387e-11
3.55495e-10
-3.13613e-11
3.59716e-10
-1.04311e-11
3.56613e-10
1.20865e-11
3.45802e-10
3.57159e-11
3.27045e-10
5.99863e-11
3.0025e-10
8.44342e-11
2.65473e-10
1.08597e-10
2.22923e-10
1.32013e-10
1.72966e-10
1.54217e-10
1.16127e-10
1.74754e-10
5.30857e-11
1.93179e-10
-1.53295e-11
2.09076e-10
-8.81545e-11
2.22069e-10
-1.64309e-10
2.31836e-10
2.38119e-10
-2.4262e-10
-1.96704e-12
5.2564e-12
-7.24826e-12
1.62972e-11
-1.54748e-11
2.83178e-11
-2.59563e-11
3.8405e-11
-3.7896e-11
4.52827e-11
-5.05649e-11
4.89785e-11
-6.33521e-11
4.99893e-11
-7.57534e-11
4.88377e-11
-8.73427e-11
4.59271e-11
-9.77458e-11
4.15295e-11
-1.06623e-10
3.58167e-11
-1.13656e-10
2.8896e-11
-1.18543e-10
2.08395e-11
-1.20998e-10
1.17054e-11
-1.20746e-10
1.55389e-12
-1.17535e-10
-9.54179e-12
-1.11136e-10
-2.1484e-11
-1.01353e-10
-3.41443e-11
-8.80357e-11
-4.73572e-11
-7.10894e-11
-6.09142e-11
-5.04869e-11
-7.45608e-11
-2.62811e-11
-8.79968e-11
1.38482e-12
-1.0088e-10
3.22683e-11
-1.12834e-10
6.6022e-11
-1.23458e-10
1.02193e-10
-1.32336e-10
1.40226e-10
-1.39053e-10
1.79461e-10
-1.43196e-10
2.19136e-10
-1.44358e-10
2.58372e-10
-1.42133e-10
2.96171e-10
-1.36138e-10
3.31416e-10
-1.26059e-10
3.62913e-10
-1.11729e-10
3.89462e-10
-9.31886e-11
4.09932e-10
-7.07096e-11
4.23336e-10
-4.47658e-11
4.28863e-10
-1.59578e-11
4.25884e-10
1.50664e-11
4.13943e-10
4.76585e-11
3.92745e-10
8.11859e-11
3.62153e-10
1.15026e-10
3.222e-10
1.4855e-10
2.73093e-10
1.81119e-10
2.1523e-10
2.12081e-10
1.492e-10
2.40786e-10
7.5786e-11
2.66594e-10
-4.03971e-12
2.88902e-10
-8.91353e-11
3.07164e-10
-1.78211e-10
3.20912e-10
3.29769e-10
-2.69862e-10
-2.13149e-12
7.38784e-12
-7.85931e-12
2.20247e-11
-1.67254e-11
3.71842e-11
-2.79551e-11
4.96356e-11
-4.06907e-11
5.80194e-11
-5.41619e-11
6.24504e-11
-6.77277e-11
6.35549e-11
-8.08586e-11
6.19676e-11
-9.31042e-11
5.81714e-11
-1.04066e-10
5.24901e-11
-1.13377e-10
4.51278e-11
-1.20693e-10
3.62124e-11
-1.25684e-10
2.58306e-11
-1.28031e-10
1.40535e-11
-1.27433e-10
9.55696e-13
-1.23604e-10
-1.33709e-11
-1.16285e-10
-2.88028e-11
-1.05251e-10
-4.51769e-11
-9.03259e-11
-6.22815e-11
-7.13907e-11
-7.98487e-11
-4.84018e-11
-9.75498e-11
-2.14037e-11
-1.14996e-10
9.45769e-12
-1.31742e-10
4.39254e-11
-1.47302e-10
8.16278e-11
-1.6116e-10
1.22081e-10
-1.72788e-10
1.64697e-10
-1.81668e-10
2.08787e-10
-1.87285e-10
2.53554e-10
-1.89125e-10
2.98071e-10
-1.8665e-10
3.41247e-10
-1.79313e-10
3.8181e-10
-1.66622e-10
4.18354e-10
-1.48272e-10
4.49437e-10
-1.24272e-10
4.73705e-10
-9.49777e-11
4.89989e-10
-6.105e-11
4.97354e-10
-2.33222e-11
4.95084e-10
1.73368e-11
4.82654e-10
6.0089e-11
4.59706e-10
1.04134e-10
4.26044e-10
1.48687e-10
3.81652e-10
1.92941e-10
3.26713e-10
2.36058e-10
2.61629e-10
2.77168e-10
1.87036e-10
3.1538e-10
1.03811e-10
3.49819e-10
1.30637e-11
3.79649e-10
-8.38844e-11
4.04111e-10
-1.85527e-10
4.22553e-10
4.34454e-10
-2.90212e-10
-2.23457e-12
9.62216e-12
-8.27353e-12
2.80633e-11
-1.76134e-11
4.65242e-11
-2.94261e-11
6.1449e-11
-4.28101e-11
7.14041e-11
-5.69623e-11
7.66028e-11
-7.12162e-11
7.78084e-11
-8.50207e-11
7.57711e-11
-9.79049e-11
7.10545e-11
-1.09449e-10
6.40337e-11
-1.19266e-10
5.4944e-11
-1.26986e-10
4.39323e-11
-1.32253e-10
3.1098e-11
-1.34722e-10
1.65231e-11
-1.3406e-10
2.94492e-13
-1.29951e-10
-1.74793e-11
-1.22103e-10
-3.66508e-11
-1.10255e-10
-5.70233e-11
-9.41977e-11
-7.83386e-11
-7.37794e-11
-1.00267e-10
-4.89299e-11
-1.224e-10
-1.96758e-11
-1.4425e-10
1.3843e-11
-1.65261e-10
5.13624e-11
-1.84821e-10
9.24927e-11
-2.02289e-10
1.36729e-10
-2.17024e-10
1.83469e-10
-2.28407e-10
2.32024e-10
-2.35841e-10
2.81618e-10
-2.38718e-10
3.3133e-10
-2.36362e-10
3.80017e-10
-2.27999e-10
4.26254e-10
-2.12857e-10
4.68375e-10
-1.90393e-10
5.04635e-10
-1.60532e-10
5.33394e-10
-1.23736e-10
5.53277e-10
-8.09333e-11
5.63232e-10
-3.32767e-11
5.62475e-10
1.80941e-11
5.50421e-10
7.21439e-11
5.26638e-10
1.27917e-10
4.90849e-10
1.84475e-10
4.42956e-10
2.40835e-10
3.83077e-10
2.95939e-10
3.11589e-10
3.48657e-10
2.29151e-10
3.97819e-10
1.36718e-10
4.42252e-10
3.55305e-11
4.80835e-10
-7.29024e-11
5.12543e-10
-1.86846e-10
5.36496e-10
5.5199e-10
-3.04383e-10
-2.31799e-12
1.19398e-11
-8.62027e-12
3.43652e-11
-1.83776e-11
5.62818e-11
-3.07279e-11
7.37997e-11
-4.47388e-11
8.54155e-11
-5.95816e-11
9.14458e-11
-7.45687e-11
9.27954e-11
-8.91304e-11
9.0332e-11
-1.02778e-10
8.4701e-11
-1.15074e-10
7.63286e-11
-1.25611e-10
6.548e-11
-1.33998e-10
5.23193e-11
-1.39856e-10
3.69562e-11
-1.42813e-10
1.94806e-11
-1.42506e-10
-1.20966e-14
-1.38584e-10
-2.14006e-11
-1.30717e-10
-4.45174e-11
-1.18605e-10
-6.91353e-11
-1.01991e-10
-9.49519e-11
-8.06831e-11
-1.21574e-10
-5.45725e-11
-1.4851e-10
-2.36572e-11
-1.75165e-10
1.19355e-11
-2.00853e-10
5.19369e-11
-2.24821e-10
9.59389e-11
-2.46289e-10
1.43416e-10
-2.64499e-10
1.93763e-10
-2.78753e-10
2.46332e-10
-2.8841e-10
3.00436e-10
-2.92823e-10
3.55261e-10
-2.91186e-10
4.09686e-10
-2.82424e-10
4.62133e-10
-2.65303e-10
5.10602e-10
-2.38862e-10
5.52929e-10
-2.02858e-10
5.8709e-10
-1.57898e-10
6.11473e-10
-1.05316e-10
6.24933e-10
-4.67371e-11
6.26661e-10
1.6367e-11
6.16032e-10
8.27731e-11
5.92532e-10
1.51416e-10
5.55764e-10
2.21243e-10
5.05496e-10
2.91103e-10
4.41735e-10
3.59701e-10
3.64785e-10
4.25608e-10
2.75296e-10
4.87307e-10
1.74282e-10
5.43265e-10
6.31138e-11
5.92002e-10
-5.65067e-11
6.32163e-10
-1.82595e-10
6.62584e-10
6.82339e-10
-3.12945e-10
-2.40881e-12
1.43482e-11
-8.98754e-12
4.09439e-11
-1.91848e-11
6.64794e-11
-3.21139e-11
8.67293e-11
-4.68203e-11
1.00123e-10
-6.24559e-11
1.07082e-10
-7.83157e-11
1.08655e-10
-9.38137e-11
1.05829e-10
-1.08446e-10
9.93318e-11
-1.21758e-10
8.96396e-11
-1.33326e-10
7.70469e-11
-1.4274e-10
6.17326e-11
-1.49597e-10
4.38136e-11
-1.53499e-10
2.33834e-11
-1.54053e-10
5.41506e-13
-1.50869e-10
-2.45842e-11
-1.43574e-10
-5.18123e-11
-1.31817e-10
-8.08913e-11
-1.15289e-10
-1.11479e-10
-9.37416e-11
-1.43121e-10
-6.70144e-11
-1.75237e-10
-3.50672e-11
-2.07112e-10
1.99074e-12
-2.3791e-10
4.3882e-11
-2.66711e-10
9.01666e-11
-2.92572e-10
1.40282e-10
-3.14614e-10
1.9362e-10
-3.3209e-10
2.49608e-10
-3.44399e-10
3.07756e-10
-3.50972e-10
3.6752e-10
-3.5095e-10
4.27947e-10
-3.4285e-10
4.87317e-10
-3.24673e-10
5.43158e-10
-2.94702e-10
5.92696e-10
-2.52397e-10
6.33366e-10
-1.98568e-10
6.6327e-10
-1.35219e-10
6.81251e-10
-6.47177e-11
6.86559e-10
1.10599e-11
6.78567e-10
9.07653e-11
6.56661e-10
1.73322e-10
6.20267e-10
2.57637e-10
5.68948e-10
3.42422e-10
5.02524e-10
4.26125e-10
4.21171e-10
5.06961e-10
3.25487e-10
5.8299e-10
2.16525e-10
6.52227e-10
9.57808e-11
7.12746e-10
-3.48356e-11
7.6278e-10
-1.73063e-10
8.00811e-10
8.25639e-10
-3.16365e-10
-2.52314e-12
1.68713e-11
-9.43014e-12
4.7851e-11
-2.01413e-11
7.71909e-11
-3.3748e-11
1.00337e-10
-4.92788e-11
1.15655e-10
-6.587e-11
1.23674e-10
-8.28023e-11
1.25588e-10
-9.94758e-11
1.22502e-10
-1.15373e-10
1.15227e-10
-1.30025e-10
1.04291e-10
-1.42992e-10
9.00137e-11
-1.53848e-10
7.25878e-11
-1.62167e-10
5.21332e-11
-1.67526e-10
2.87425e-11
-1.69497e-10
2.51263e-12
-1.67651e-10
-2.64296e-11
-1.61565e-10
-5.78975e-11
-1.50831e-10
-9.1625e-11
-1.35071e-10
-1.27238e-10
-1.13967e-10
-1.64225e-10
-8.72929e-11
-2.01911e-10
-5.4957e-11
-2.39447e-10
-1.70481e-11
-2.75818e-10
2.61355e-11
-3.09892e-10
7.40908e-11
-3.40526e-10
1.26175e-10
-3.66698e-10
1.81741e-10
-3.87656e-10
2.40315e-10
-4.02974e-10
3.0175e-10
-4.12408e-10
3.66056e-10
-4.15255e-10
4.32716e-10
-4.09509e-10
4.99908e-10
-3.91864e-10
5.64448e-10
-3.59241e-10
6.22634e-10
-3.10583e-10
6.71088e-10
-2.47023e-10
7.07586e-10
-1.71717e-10
7.31133e-10
-8.82643e-11
7.41205e-10
9.89062e-13
7.37227e-10
9.47436e-11
7.18445e-10
1.92103e-10
6.84019e-10
2.92063e-10
6.332e-10
3.93241e-10
5.65522e-10
4.93803e-10
4.80953e-10
5.91529e-10
3.79992e-10
6.83951e-10
2.63704e-10
7.68515e-10
1.33713e-10
8.42737e-10
-7.84258e-12
9.04336e-10
-1.58387e-10
9.51356e-10
9.82254e-10
-3.15002e-10
-2.66969e-12
1.9541e-11
-9.97877e-12
5.516e-11
-2.1308e-11
8.85206e-11
-3.57258e-11
1.14756e-10
-5.22453e-11
1.32176e-10
-6.99902e-11
1.4142e-10
-8.8229e-11
1.43827e-10
-1.0635e-10
1.40622e-10
-1.23823e-10
1.32699e-10
-1.40168e-10
1.20635e-10
-1.54931e-10
1.04777e-10
-1.67669e-10
8.53267e-11
-1.77939e-10
6.24032e-11
-1.85289e-10
3.60926e-11
-1.89258e-10
6.48195e-12
-1.89375e-10
-2.63126e-11
-1.8516e-10
-6.21116e-11
-1.76137e-10
-1.00647e-10
-1.61849e-10
-1.41525e-10
-1.41891e-10
-1.84183e-10
-1.1595e-10
-2.27853e-10
-8.38674e-11
-2.7153e-10
-4.57083e-11
-3.13976e-10
-1.81073e-12
-3.53789e-10
4.72079e-11
-3.89543e-10
1.00539e-10
-4.20029e-10
1.57402e-10
-4.44519e-10
2.17384e-10
-4.62957e-10
2.80861e-10
-4.75885e-10
3.48871e-10
-4.83264e-10
4.2186e-10
-4.82496e-10
4.97991e-10
-4.67994e-10
5.72935e-10
-4.34186e-10
6.4155e-10
-3.79198e-10
6.99198e-10
-3.04671e-10
7.43297e-10
-2.15815e-10
7.73405e-10
-1.18371e-10
7.89506e-10
-1.51116e-11
7.91134e-10
9.31148e-11
7.77307e-10
2.05929e-10
7.46764e-10
3.22605e-10
6.98291e-10
4.41716e-10
6.31005e-10
5.6109e-10
5.44572e-10
6.77962e-10
4.39329e-10
7.89194e-10
3.1633e-10
8.91515e-10
1.77332e-10
9.81735e-10
2.47355e-11
1.05693e-09
-1.38517e-10
1.11461e-09
1.1528e-09
-3.09059e-10
-2.85214e-12
2.23932e-11
-1.06471e-11
6.29547e-11
-2.2713e-11
1.00587e-10
-3.80912e-11
1.30135e-10
-5.57801e-11
1.49866e-10
-7.48917e-11
1.60533e-10
-9.46839e-11
1.63618e-10
-1.14534e-10
1.60471e-10
-1.33903e-10
1.52067e-10
-1.523e-10
1.39032e-10
-1.6926e-10
1.21738e-10
-1.84325e-10
1.00393e-10
-1.97033e-10
7.51118e-11
-2.06909e-10
4.5968e-11
-2.13457e-10
1.30301e-11
-2.16162e-10
-2.36079e-11
-2.14483e-10
-6.37892e-11
-2.0787e-10
-1.0726e-10
-1.9577e-10
-1.53625e-10
-1.77671e-10
-2.02285e-10
-1.53147e-10
-2.52378e-10
-1.21953e-10
-3.02725e-10
-8.41142e-11
-3.51814e-10
-4.00274e-11
-3.97874e-10
9.50534e-12
-4.39075e-10
6.3373e-11
-4.73897e-10
1.20465e-10
-5.01612e-10
1.80249e-10
-5.22741e-10
2.43775e-10
-5.39411e-10
3.13871e-10
-5.5336e-10
3.9295e-10
-5.61575e-10
4.79382e-10
-5.54427e-10
5.66894e-10
-5.21699e-10
6.4811e-10
-4.60415e-10
7.16415e-10
-3.72975e-10
7.6887e-10
-2.6827e-10
8.06402e-10
-1.55903e-10
8.29949e-10
-3.86581e-11
8.39133e-10
8.39302e-11
8.32541e-10
2.1252e-10
8.08252e-10
3.46894e-10
7.64371e-10
4.85597e-10
6.9944e-10
6.26022e-10
6.12709e-10
7.64693e-10
5.04288e-10
8.97615e-10
3.75197e-10
1.02061e-09
2.27342e-10
1.12959e-09
6.34288e-11
1.22085e-09
-1.13163e-10
1.2912e-09
1.33816e-09
-2.98531e-10
-3.07072e-12
2.54638e-11
-1.14366e-11
7.13197e-11
-2.43596e-11
1.1351e-10
-4.08495e-11
1.46626e-10
-5.98887e-11
1.68906e-10
-8.05783e-11
1.81222e-10
-1.02166e-10
1.85205e-10
-1.24022e-10
1.82326e-10
-1.45596e-10
1.73641e-10
-1.66391e-10
1.59828e-10
-1.85932e-10
1.4128e-10
-2.0375e-10
1.18211e-10
-2.19365e-10
9.07269e-11
-2.3228e-10
5.8882e-11
-2.41968e-10
2.27173e-11
-2.47868e-10
-1.77077e-11
-2.4938e-10
-6.22765e-11
-2.4587e-10
-1.10771e-10
-2.3668e-10
-1.62816e-10
-2.21164e-10
-2.17802e-10
-1.98759e-10
-2.74785e-10
-1.69086e-10
-3.32398e-10
-1.32103e-10
-3.88796e-10
-8.82621e-11
-4.41714e-10
-3.86208e-11
-4.88716e-10
1.5218e-11
-5.27736e-10
7.14856e-11
-5.5788e-10
1.29073e-10
-5.80329e-10
1.8961e-10
-5.99947e-10
2.58822e-10
-6.22572e-10
3.43043e-10
-6.45797e-10
4.41354e-10
-6.52739e-10
5.44016e-10
-6.24361e-10
6.40368e-10
-5.56768e-10
7.20684e-10
-4.53291e-10
7.81715e-10
-3.293e-10
8.27427e-10
-2.01615e-10
8.60235e-10
-7.14666e-11
8.79578e-10
6.45866e-11
8.83209e-10
2.08888e-10
8.6819e-10
3.61913e-10
8.31686e-10
5.22102e-10
7.71483e-10
6.86226e-10
6.863e-10
8.49876e-10
5.75956e-10
1.00796e-09
4.41418e-10
1.15514e-09
2.84766e-10
1.28624e-09
1.09072e-10
1.39654e-09
-8.17522e-11
1.48202e-09
1.53957e-09
-2.8316e-10
-3.32312e-12
2.87863e-11
-1.23395e-11
8.03349e-11
-2.62327e-11
1.27403e-10
-4.39757e-11
1.6437e-10
-6.45336e-11
1.89464e-10
-8.69965e-11
2.03684e-10
-1.10604e-10
2.08812e-10
-1.34717e-10
2.06438e-10
-1.58781e-10
1.97706e-10
-1.82291e-10
1.83339e-10
-2.04766e-10
1.63755e-10
-2.25725e-10
1.3917e-10
-2.44676e-10
1.09677e-10
-2.61103e-10
7.53073e-11
-2.7445e-10
3.60639e-11
-2.84118e-10
-8.03998e-12
-2.89449e-10
-5.69465e-11
-2.89723e-10
-1.10498e-10
-2.84168e-10
-1.68372e-10
-2.7199e-10
-2.29981e-10
-2.52442e-10
-2.94332e-10
-2.24961e-10
-3.59878e-10
-1.89362e-10
-4.24394e-10
-1.46099e-10
-4.84977e-10
-9.65073e-11
-5.38308e-10
-4.28886e-11
-5.81355e-10
1.18406e-11
-6.1261e-10
6.51545e-11
-6.33644e-10
1.18467e-10
-6.5326e-10
1.81587e-10
-6.85694e-10
2.68575e-10
-7.32786e-10
3.80253e-10
-7.64418e-10
5.00653e-10
-7.44761e-10
6.14755e-10
-6.7087e-10
7.07981e-10
-5.46516e-10
7.7702e-10
-3.98337e-10
8.31958e-10
-2.56554e-10
8.76874e-10
-1.16384e-10
9.10185e-10
3.12739e-11
9.28104e-10
1.90969e-10
9.26243e-10
3.63774e-10
9.00579e-10
5.47766e-10
8.47985e-10
7.3882e-10
7.66547e-10
9.31314e-10
6.55733e-10
1.11877e-09
5.16445e-10
1.29443e-09
3.5097e-10
1.45172e-09
1.62833e-10
1.58468e-09
-4.34079e-11
1.68826e-09
1.75858e-09
-2.62416e-10
-3.60512e-12
3.23906e-11
-1.33414e-11
9.00696e-11
-2.83024e-11
1.42363e-10
-4.74204e-11
1.83487e-10
-6.96417e-11
2.11685e-10
-9.40459e-11
2.28088e-10
-1.19865e-10
2.34629e-10
-1.46453e-10
2.33026e-10
-1.73252e-10
2.24504e-10
-1.99751e-10
2.09838e-10
-2.25463e-10
1.89466e-10
-2.499e-10
1.63606e-10
-2.72561e-10
1.32337e-10
-2.92913e-10
9.56582e-11
-3.10382e-10
5.35317e-11
-3.24336e-10
5.91303e-12
-3.34068e-10
-4.7215e-11
-3.38785e-10
-1.05781e-10
-3.37602e-10
-1.69554e-10
-3.29565e-10
-2.38018e-10
-3.13709e-10
-3.10186e-10
-2.89206e-10
-3.84381e-10
-2.55604e-10
-4.57996e-10
-2.132e-10
-5.2738e-10
-1.63498e-10
-5.8801e-10
-1.09595e-10
-6.35259e-10
-5.6158e-11
-6.66048e-10
-8.43397e-12
-6.8137e-10
3.27225e-11
-6.94418e-10
8.13507e-11
-7.34323e-10
1.65579e-10
-8.17016e-10
2.9117e-10
-8.90009e-10
4.30775e-10
-8.84367e-10
5.63291e-10
-8.03386e-10
6.69417e-10
-6.5264e-10
7.45995e-10
-4.74914e-10
8.12709e-10
-3.23269e-10
8.74996e-10
-1.78672e-10
9.28146e-10
-2.18779e-11
9.65876e-10
1.5324e-10
9.82103e-10
3.47547e-10
9.71513e-10
5.58356e-10
9.29993e-10
7.8034e-10
8.54917e-10
1.00639e-09
7.45339e-10
1.22835e-09
6.0208e-10
1.43769e-09
4.2768e-10
1.62612e-09
2.26224e-10
1.78613e-09
3.06369e-12
1.91142e-09
1.99714e-09
-2.35495e-10
-3.91103e-12
3.63005e-11
-1.44219e-11
1.00579e-10
-3.05272e-11
1.58467e-10
-5.11145e-11
2.04074e-10
-7.51115e-11
2.35681e-10
-1.01588e-10
2.54563e-10
-1.29769e-10
2.62809e-10
-1.59005e-10
2.62261e-10
-1.88733e-10
2.54232e-10
-2.18438e-10
2.39544e-10
-2.47631e-10
2.18658e-10
-2.75817e-10
1.91791e-10
-3.0249e-10
1.59007e-10
-3.27108e-10
1.20274e-10
-3.49084e-10
7.55061e-11
-3.67767e-10
2.45952e-11
-3.82421e-10
-3.25603e-11
-3.92202e-10
-9.59995e-11
-3.96137e-10
-1.65618e-10
-3.93124e-10
-2.4103e-10
-3.81962e-10
-3.21348e-10
-3.61472e-10
-4.0487e-10
-3.30752e-10
-4.88715e-10
-2.89642e-10
-5.6849e-10
-2.39445e-10
-6.38208e-10
-1.83825e-10
-6.90881e-10
-1.29469e-10
-7.20405e-10
-8.54719e-11
-7.25369e-10
-6.04188e-11
-7.19473e-10
-3.77555e-11
-7.56987e-10
3.2531e-11
-8.87303e-10
1.67929e-10
-1.02541e-09
3.19731e-10
-1.03617e-09
4.68346e-10
-9.52e-10
5.87042e-10
-7.71334e-10
6.73486e-10
-5.61359e-10
7.58853e-10
-4.08638e-10
8.49332e-10
-2.69153e-10
9.3092e-10
-1.03466e-10
9.9545e-10
8.8709e-11
1.03565e-09
3.07346e-10
1.0451e-09
5.48904e-10
1.01873e-09
8.06714e-10
9.53114e-10
1.072e-09
8.46804e-10
1.33466e-09
7.00484e-10
1.58401e-09
5.16993e-10
1.80961e-09
3.01105e-10
2.00202e-09
5.91652e-11
2.15336e-09
2.25763e-09
-2.01328e-10
-4.23389e-12
4.05333e-11
-1.55563e-11
1.119e-10
-3.28553e-11
1.75766e-10
-5.49724e-11
2.2619e-10
-8.08171e-11
2.61525e-10
-1.09451e-10
2.83196e-10
-1.40095e-10
2.93452e-10
-1.72095e-10
2.94261e-10
-2.04887e-10
2.87022e-10
-2.37954e-10
2.72609e-10
-2.70801e-10
2.51503e-10
-3.02933e-10
2.23922e-10
-3.33838e-10
1.8991e-10
-3.62972e-10
1.49406e-10
-3.89746e-10
1.02278e-10
-4.13506e-10
4.83553e-11
-4.33517e-10
-1.2549e-11
-4.48921e-10
-8.05937e-11
-4.58713e-10
-1.55825e-10
-4.61694e-10
-2.38048e-10
-4.56458e-10
-3.26584e-10
-4.41429e-10
-4.19898e-10
-4.15048e-10
-5.15096e-10
-3.76246e-10
-6.07292e-10
-3.25431e-10
-6.89024e-10
-2.6614e-10
-7.50174e-10
-2.0705e-10
-7.79496e-10
-1.58058e-10
-7.74361e-10
-1.40511e-10
-7.3702e-10
-1.60473e-10
-7.37026e-10
-1.26487e-10
-9.21288e-10
2.25774e-12
-1.15415e-09
1.39375e-10
-1.17328e-09
2.88893e-10
-1.10152e-09
4.33402e-10
-9.15843e-10
5.27212e-10
-6.55171e-10
6.6308e-10
-5.44508e-10
7.98302e-10
-4.04375e-10
9.1799e-10
-2.23155e-10
1.0168e-09
-1.00986e-11
1.08717e-09
2.36975e-10
1.12207e-09
5.14006e-10
1.1155e-09
8.13281e-10
1.06304e-09
1.12446e-09
9.62456e-10
1.43524e-09
8.14185e-10
1.73228e-09
6.21387e-10
2.0024e-09
3.89696e-10
2.23371e-09
1.26707e-10
2.41635e-09
2.54293e-09
-1.58594e-10
-4.56567e-12
4.50979e-11
-1.67155e-11
1.24048e-10
-3.52266e-11
1.94276e-10
-5.88943e-11
2.49858e-10
-8.66126e-11
2.89243e-10
-1.17438e-10
3.14021e-10
-1.50587e-10
3.266e-10
-1.85408e-10
3.2908e-10
-2.21333e-10
3.22945e-10
-2.57844e-10
3.09119e-10
-2.94445e-10
2.88103e-10
-3.30638e-10
2.60113e-10
-3.65909e-10
2.25179e-10
-3.99715e-10
1.8321e-10
-4.3147e-10
1.34034e-10
-4.60541e-10
7.74265e-11
-4.86222e-10
1.31317e-11
-5.07701e-10
-5.91136e-11
-5.24021e-10
-1.39505e-10
-5.34003e-10
-2.28066e-10
-5.36154e-10
-3.24432e-10
-5.28562e-10
-4.2749e-10
-5.08867e-10
-5.34791e-10
-4.74563e-10
-6.41597e-10
-4.24214e-10
-7.39373e-10
-3.60204e-10
-8.14184e-10
-2.94033e-10
-8.45668e-10
-2.38935e-10
-8.29459e-10
-1.84879e-10
-7.91076e-10
-2.13995e-10
-7.07909e-10
-2.3983e-10
-8.95452e-10
-2.01436e-10
-1.19254e-09
-1.48558e-10
-1.22616e-09
-4.1247e-11
-1.20883e-09
1.04125e-10
-1.06122e-09
3.26068e-10
-8.77115e-10
5.42528e-10
-7.60969e-10
7.29545e-10
-5.91393e-10
8.93265e-10
-3.86876e-10
1.03145e-09
-1.4828e-10
1.13712e-09
1.313e-10
1.20295e-09
4.4818e-10
1.22151e-09
7.94719e-10
1.18668e-09
1.15929e-09
1.09492e-09
1.527e-09
9.46108e-10
1.88109e-09
7.43751e-10
2.20476e-09
4.9458e-10
2.48288e-09
2.07793e-10
2.70314e-09
2.85647e-09
-1.05752e-10
-4.89734e-12
4.99945e-11
-1.78669e-11
1.37017e-10
-3.75733e-11
2.13983e-10
-6.27684e-11
2.75054e-10
-9.23346e-11
3.1881e-10
-1.25326e-10
3.47012e-10
-1.60963e-10
3.62236e-10
-1.98593e-10
3.66708e-10
-2.3765e-10
3.62001e-10
-2.77617e-10
3.49085e-10
-3.17997e-10
3.2848e-10
-3.58287e-10
3.00402e-10
-3.97972e-10
2.64861e-10
-4.36506e-10
2.21743e-10
-4.73319e-10
1.70846e-10
-5.07804e-10
1.11911e-10
-5.39313e-10
4.46407e-11
-5.67143e-10
-3.12846e-11
-5.90485e-10
-1.16164e-10
-6.08349e-10
-2.10202e-10
-6.19393e-10
-3.13388e-10
-6.21625e-10
-4.25258e-10
-6.11963e-10
-5.44453e-10
-5.85857e-10
-6.67703e-10
-5.38349e-10
-7.86881e-10
-4.70376e-10
-8.82158e-10
-3.99674e-10
-9.1637e-10
-3.43827e-10
-8.85305e-10
-3.06197e-10
-8.28706e-10
-1.75496e-10
-8.38609e-10
-1.4728e-10
-9.23667e-10
-2.07865e-10
-1.13196e-09
-2.48862e-10
-1.18516e-09
-2.18486e-10
-1.2392e-09
-7.16132e-11
-1.20809e-09
2.35383e-10
-1.18411e-09
4.51701e-10
-9.77288e-10
6.65951e-10
-8.05644e-10
8.65223e-10
-5.86148e-10
1.04078e-09
-3.23841e-10
1.18487e-09
-1.27836e-11
1.28739e-09
3.4566e-10
1.33755e-09
7.44553e-10
1.3261e-09
1.17074e-09
1.24718e-09
1.60592e-09
1.09966e-09
2.02861e-09
8.87428e-10
2.41698e-09
6.18705e-10
2.7516e-09
3.04793e-10
3.01705e-09
3.20235e-09
-4.10831e-11
-5.21896e-12
5.5213e-11
-1.89748e-11
1.50773e-10
-3.98213e-11
2.3483e-10
-6.64723e-11
3.01705e-10
-9.78043e-11
3.50141e-10
-1.32876e-10
3.82083e-10
-1.70915e-10
4.00272e-10
-2.11273e-10
4.07065e-10
-2.53391e-10
4.04118e-10
-2.96755e-10
3.92446e-10
-3.40865e-10
3.72588e-10
-3.85216e-10
3.44751e-10
-4.29286e-10
3.08929e-10
-4.72528e-10
2.64985e-10
-5.14376e-10
2.12694e-10
-5.54251e-10
1.51786e-10
-5.91576e-10
8.19642e-11
-6.25782e-10
2.92048e-12
-6.563e-10
-8.56465e-11
-6.82506e-10
-1.83996e-10
-7.03537e-10
-2.92357e-10
-7.17844e-10
-4.10951e-10
-7.22248e-10
-5.40048e-10
-7.10113e-10
-6.79837e-10
-6.68201e-10
-8.28793e-10
-5.86183e-10
-9.64175e-10
-5.23952e-10
-9.78601e-10
-4.63574e-10
-9.45682e-10
-4.22269e-10
-8.70011e-10
-3.15258e-10
-9.45618e-10
-2.48264e-10
-9.9066e-10
-2.52586e-10
-1.12764e-09
-1.93078e-10
-1.24467e-09
-1.31622e-10
-1.30066e-09
-9.37576e-12
-1.33034e-09
1.3985e-10
-1.33334e-09
3.69696e-10
-1.20714e-09
5.96552e-10
-1.0325e-09
8.23457e-10
-8.13052e-10
1.03714e-09
-5.37529e-10
1.22529e-09
-2.00931e-10
1.37283e-09
1.98115e-10
1.46366e-09
6.53728e-10
1.48348e-09
1.15092e-09
1.42278e-09
1.66662e-09
1.27887e-09
2.17251e-09
1.05628e-09
2.63958e-09
7.65341e-10
3.04254e-09
4.20241e-10
3.36215e-09
3.58538e-09
3.7209e-11
-5.51974e-12
6.07326e-11
-2.00002e-11
1.65254e-10
-4.18903e-11
2.5672e-10
-6.98734e-11
3.29688e-10
-1.02829e-10
3.83096e-10
-1.39829e-10
4.19081e-10
-1.80112e-10
4.40554e-10
-2.23048e-10
4.49999e-10
-2.68084e-10
4.49153e-10
-3.14715e-10
4.39075e-10
-3.62443e-10
4.20314e-10
-4.1076e-10
3.93066e-10
-4.59134e-10
3.57303e-10
-5.0701e-10
3.12859e-10
-5.53812e-10
2.59496e-10
-5.98972e-10
1.96945e-10
-6.41951e-10
1.24943e-10
-6.82292e-10
4.32613e-11
-7.19662e-10
-4.82757e-11
-7.53874e-10
-1.49784e-10
-7.84816e-10
-2.61413e-10
-8.12082e-10
-3.83685e-10
-8.33949e-10
-5.1818e-10
-8.45043e-10
-6.68743e-10
-8.28374e-10
-8.45461e-10
-7.37702e-10
-1.05485e-09
-5.88605e-10
-1.1277e-09
-6.88931e-10
-8.45355e-10
-6.58823e-10
-9.00119e-10
-5.56178e-10
-1.04826e-09
-4.51304e-10
-1.09553e-09
-3.78126e-10
-1.20081e-09
-3.10732e-10
-1.31206e-09
-2.08513e-10
-1.40288e-09
-7.98168e-11
-1.45903e-09
6.36787e-11
-1.47683e-09
2.62158e-10
-1.40562e-09
4.98268e-10
-1.26861e-09
7.52003e-10
-1.06679e-09
1.00862e-09
-7.9415e-10
1.25038e-09
-4.4269e-10
1.45545e-09
-6.96214e-12
1.59986e-09
5.09323e-10
1.66179e-09
1.08898e-09
1.62632e-09
1.70209e-09
1.4887e-09
2.31013e-09
1.25468e-09
2.8736e-09
9.37936e-10
3.35928e-09
5.56631e-10
3.74346e-09
4.0112e-09
1.30812e-10
-5.78816e-12
6.65208e-11
-2.09015e-11
1.80368e-10
-4.36939e-11
2.79513e-10
-7.28297e-11
3.58823e-10
-1.07202e-10
4.17467e-10
-1.45907e-10
4.57784e-10
-1.88207e-10
4.82854e-10
-2.33493e-10
4.95284e-10
-2.81235e-10
4.96893e-10
-3.30939e-10
4.88778e-10
-3.82117e-10
4.71491e-10
-4.34262e-10
4.45211e-10
-4.86836e-10
4.09876e-10
-5.39264e-10
3.65288e-10
-5.90951e-10
3.11182e-10
-6.41297e-10
2.4729e-10
-6.89744e-10
1.7339e-10
-7.35838e-10
8.93553e-11
-7.79308e-10
-4.80536e-12
-8.20168e-10
-1.08924e-10
-8.5886e-10
-2.2272e-10
-8.96261e-10
-3.46283e-10
-9.33292e-10
-4.81149e-10
-9.70732e-10
-6.31302e-10
-1.0026e-09
-8.13594e-10
-1.00201e-09
-1.05544e-09
-9.82791e-10
-1.14692e-09
-8.74347e-10
-9.53799e-10
-7.52772e-10
-1.02169e-09
-7.44397e-10
-1.05664e-09
-6.78526e-10
-1.1614e-09
-6.051e-10
-1.27424e-09
-5.1792e-10
-1.39924e-09
-4.08009e-10
-1.51279e-09
-2.77515e-10
-1.58953e-09
-1.19716e-10
-1.63463e-09
8.58784e-11
-1.61121e-09
3.38403e-10
-1.52114e-09
6.28718e-10
-1.3571e-09
9.40495e-10
-1.10593e-09
1.2514e-09
-7.53602e-10
1.53205e-09
-2.87608e-10
1.74763e-09
2.93735e-10
1.86589e-09
9.70732e-10
1.86415e-09
1.70383e-09
1.73516e-09
2.43912e-09
1.48732e-09
3.12144e-09
1.13966e-09
3.70694e-09
7.15975e-10
4.16714e-09
4.48616e-09
2.41013e-10
-6.01192e-12
7.25328e-11
-2.16345e-11
1.9599e-10
-4.51404e-11
3.03018e-10
-7.51901e-11
3.88872e-10
-1.10705e-10
4.52981e-10
-1.50818e-10
4.97896e-10
-1.94829e-10
5.26864e-10
-2.42163e-10
5.42617e-10
-2.92321e-10
5.4705e-10
-3.44838e-10
5.41294e-10
-3.99247e-10
5.259e-10
-4.55055e-10
5.01019e-10
-5.11726e-10
4.66547e-10
-5.68674e-10
4.22236e-10
-6.25271e-10
3.6778e-10
-6.80865e-10
3.02885e-10
-7.34809e-10
2.27334e-10
-7.86497e-10
1.41044e-10
-8.35405e-10
4.41021e-11
-8.81103e-10
-6.32254e-11
-9.23241e-10
-1.80581e-10
-9.61508e-10
-3.08016e-10
-9.94104e-10
-4.48553e-10
-1.01729e-09
-6.08116e-10