/*--------------------------------*- C++ -*----------------------------------*\
| =========                 |                                                 |
| \\      /  F ield         | OpenFOAM: The Open Source CFD Toolbox           |
|  \\    /   O peration     | Version:  2.4.0                                 |
|   \\  /    A nd           | Web:      www.OpenFOAM.org                      |
|    \\/     M anipulation  |                                                 |
\*---------------------------------------------------------------------------*/
FoamFile
{
    version     2.0;
    format      ascii;
    class       volScalarField;
    location    "0.016";
    object      p_rgh;
}
// * * * * * * * * * * * * * * * * * * * * * * * * * * * * * * * * * * * * * //

dimensions      [1 -1 -2 0 0 0 0];

internalField   nonuniform List<scalar> 
57600
(
97.8657
97.9105
98.0295
98.2073
98.4296
98.6655
98.8568
98.9118
98.7124
98.1291
97.0485
95.4067
93.2152
90.5705
87.6384
84.6194
81.7068
79.0553
76.7597
74.8548
73.3263
72.1319
71.2195
70.5372
70.0391
69.6861
69.4455
69.2913
69.2028
69.1636
97.8655
97.9335
98.0678
98.2587
98.4886
98.7216
98.8917
98.8999
98.6234
97.9336
96.7255
94.9503
92.6386
89.9053
86.9273
83.907
81.0314
78.4428
76.2233
74.3957
72.9382
71.8046
70.9419
70.2997
69.8333
69.5055
69.2848
69.1462
69.0698
69.04
97.865
97.9331
98.0675
98.2586
98.4893
98.7242
98.8978
98.9117
98.6434
97.9639
96.7671
95.0017
92.6957
89.9609
86.9725
83.932
81.0272
78.4031
76.1461
74.2827
72.7929
71.6311
70.744
70.0815
69.5993
69.2599
69.0315
68.8879
68.8086
68.7773
97.8641
97.9324
98.0667
98.258
98.4896
98.7269
98.9052
98.927
98.6703
98.0059
96.8257
95.0753
92.7786
90.043
87.0404
83.9708
81.0226
78.3449
76.0301
74.111
72.5707
71.3639
70.4376
69.742
69.2339
68.8758
68.6348
68.4834
68.3994
68.3657
97.8628
97.9312
98.0653
98.2568
98.4895
98.7297
98.9138
98.9457
98.7041
98.0593
96.9012
95.1714
92.8879
90.1524
87.1321
84.0244
81.0187
78.2685
75.8748
73.879
72.2692
71.0004
70.019
69.2764
68.7312
68.3464
68.0879
67.9259
67.8358
67.7989
97.8612
97.9296
98.0636
98.2551
98.489
98.7324
98.9235
98.9677
98.7446
98.1241
96.9936
95.2898
93.0238
90.2896
87.2485
84.0944
81.0169
78.1745
75.6792
73.5845
71.8853
70.5365
69.483
68.6777
68.0822
67.6616
67.3806
67.2058
67.109
67.0684
97.8592
97.9277
98.0613
98.2528
98.4879
98.7351
98.9343
98.9929
98.7916
98.1999
97.1027
95.4306
93.1866
90.4556
87.3911
84.1826
81.0189
78.0639
75.4422
73.2243
71.4147
69.9674
68.8235
67.9369
67.2752
66.8079
66.499
66.3104
66.2072
66.1632
97.8569
97.9254
98.0586
98.25
98.4863
98.7377
98.9461
99.0211
98.8448
98.2866
97.2282
95.5939
93.3768
90.6512
87.5614
84.291
81.0271
77.9378
75.1624
72.7937
70.8515
69.2871
68.0329
67.0432
66.2947
65.7662
65.4237
65.2223
65.1164
65.071
97.8541
97.9227
98.0554
98.2466
98.4842
98.7401
98.9588
99.0521
98.904
98.3838
97.3699
95.7795
93.5948
90.8775
87.7612
84.4223
81.0445
77.7983
74.8381
72.2864
70.1874
68.4884
67.1034
65.9841
65.1213
64.5111
64.1274
63.9186
63.8203
63.7798
97.8509
97.9197
98.0517
98.2426
98.4815
98.7423
98.9721
99.0856
98.9689
98.4911
97.5275
95.9874
93.841
91.1357
87.9925
84.5795
81.075
77.6485
74.4674
71.6934
69.4107
67.5622
66.0273
64.747
63.7328
63.0091
62.5706
62.3653
62.3
62.2817
97.8473
97.9162
98.0475
98.238
98.4781
98.7441
98.9859
99.1214
99.039
98.608
97.7005
96.2175
94.1158
91.4269
88.2576
84.7658
81.1232
77.4929
74.0494
71.0017
68.5027
66.4968
64.7979
63.3208
62.1062
61.2186
60.6928
60.5035
60.5284
60.5821
97.8432
97.9125
98.0429
98.2328
98.4741
98.7456
99.0001
99.1593
99.1141
98.7341
97.8884
96.4694
94.4194
91.7524
88.5586
84.985
81.1949
77.3388
73.5849
70.1934
67.4332
65.2748
63.4098
61.6968
60.224
59.0994
58.4059
58.21
58.441
58.7272
97.8386
97.9083
98.0378
98.227
98.4695
98.7464
99.0145
99.1988
99.1935
98.8689
98.0906
96.7428
94.7523
92.1134
88.898
85.2407
81.2966
77.1967
73.0795
69.2444
66.1497
63.868
61.859
59.8643
58.0792
56.6437
55.6167
55.1896
55.7135
56.8168
97.8334
97.9038
98.0322
98.2206
98.464
98.7467
99.0289
99.2398
99.277
99.0115
98.3065
97.0373
95.1146
92.5111
89.2782
85.5369
81.4355
77.0816
72.5499
68.1277
64.5571
62.2238
60.1427
57.7902
55.6586
53.9243
52.3907
50.8949
50.4186
53.8428
97.8277
97.8989
98.0261
98.2135
98.4578
98.7462
99.043
99.2817
99.3638
99.1615
98.5352
97.3523
95.5062
92.9467
89.7016
85.877
81.6182
77.0135
72.0316
66.8256
62.4756
60.2298
58.2651
55.3607
52.8418
50.9871
49.3
45.7587
40.0893
35.8008
97.8213
97.8937
98.0196
98.2058
98.4508
98.7449
99.0567
99.3243
99.4535
99.3179
98.7758
97.6869
95.9271
93.4212
90.1705
86.2639
81.8501
77.016
71.5909
65.3717
59.5637
57.5971
56.2624
52.2387
49.053
46.6861
46.2458
45.0306
39.5804
46.4014
97.8142
97.8882
98.0126
98.1975
98.4428
98.7427
99.0697
99.3671
99.5455
99.4799
99.0272
98.0401
96.3767
93.9354
90.6874
86.7001
82.1334
77.111
71.3341
63.9462
55.2357
53.4777
54.4268
47.3141
25.9605
5.78119
-0.0282276
0.0665218
0.0524643
0.0903812
97.8063
97.8823
98.005
98.1884
98.4339
98.7393
99.0818
99.4097
99.639
99.6467
99.2882
98.4108
96.8546
94.4901
91.2546
87.1876
82.4646
77.3067
71.3962
63.0335
48.9888
45.2432
16.5877
0.0421158
0.0420913
0.0376232
0.0312928
0.0553962
0.0718915
0.0761193
97.7975
97.8761
97.9971
98.1787
98.4241
98.7347
99.0927
99.4517
99.7334
99.8172
99.5574
98.7974
97.3595
95.0854
91.8747
87.7281
82.8335
77.5799
71.8961
63.468
42.9448
-0.063199
0.0174901
0.0472159
0.0441209
0.0477343
0.0445133
0.0511948
0.0601052
0.0636803
97.7876
97.8697
97.9886
98.1683
98.4132
98.7289
99.1022
99.4925
99.828
99.9904
99.8333
99.1982
97.8899
95.7213
92.5505
88.3251
83.224
77.8517
72.856
65.7561
-7.81877
-0.0670137
0.0315355
0.0408084
0.0427695
0.0447643
0.0450985
0.0485736
0.0525962
0.0549336
97.7765
97.863
97.9796
98.1572
98.4012
98.7215
99.11
99.5316
99.922
100.165
100.114
99.611
98.4438
96.397
93.2852
88.9844
83.6211
77.9661
74.1209
68.4763
-0.121391
-0.0336592
0.0286589
0.0386564
0.0418509
0.0429543
0.0437396
0.0454027
0.0471762
0.0484292
97.764
97.856
97.9702
98.1454
98.3881
98.7125
99.1159
99.5686
100.015
100.341
100.398
100.033
99.0184
97.1108
94.0823
89.7166
84.0249
77.7021
75.1618
-6.23661
-0.0673355
0.0136095
0.0318085
0.0382333
0.0405277
0.0408258
0.0409823
0.0416231
0.0422825
0.0428459
97.7499
97.8488
97.9603
98.1329
98.3738
98.7017
99.1197
99.6029
100.105
100.515
100.683
100.463
99.6103
97.8597
94.9456
90.5377
84.4677
76.925
74.7833
0.393515
0.0584014
0.0339859
0.0367205
0.0382859
0.0388066
0.0380892
0.0375934
0.0376461
0.0379433
0.0383481
97.7336
97.8415
97.9499
98.1197
98.3583
98.689
99.121
99.634
100.192
100.688
100.966
100.896
100.215
98.6388
95.878
91.4694
85.0201
76.0523
-5.6481
0.0759263
0.0748763
0.0457708
0.0398514
0.0377025
0.0364806
0.0348882
0.0339122
0.0335571
0.0335211
0.0336018
97.7147
97.834
97.939
98.1058
98.3414
98.6742
99.1199
99.6612
100.276
100.858
101.245
101.329
100.827
99.4408
96.8813
92.5372
85.7762
76.1459
-1.10806
0.0619303
0.06873
0.0496402
0.0405846
0.0360908
0.0334473
0.0311896
0.0296532
0.028646
0.0279833
0.0275684
97.6925
97.8265
97.9276
98.0912
98.3231
98.6571
99.1163
99.6841
100.355
101.024
101.518
101.758
101.44
100.254
97.9545
93.7669
86.8389
75.5993
0.01859
0.0765953
0.0642652
0.049072
0.0390834
0.0332866
0.0295383
0.0265415
0.0243119
0.0227186
0.0216107
0.0208594
97.6664
97.8188
97.9158
98.0759
98.3034
98.6374
99.1106
99.702
100.428
101.185
101.782
102.179
102.047
101.063
99.0924
95.1817
88.2808
64.3589
0.139739
0.0810936
0.0610562
0.0463278
0.0357469
0.0291658
0.024462
0.0207981
0.0180768
0.0161006
0.0146773
0.0136572
97.6352
97.8112
97.9035
98.06
98.282
98.6146
99.1038
99.7146
100.495
101.339
102.035
102.588
102.638
101.845
100.284
96.7989
90.049
75.754
0.138306
0.0822523
0.0572915
0.0418812
0.0309388
0.0236635
0.0182763
0.0141947
0.0111518
0.00889152
0.00721279
0.00596438
97.5979
97.8035
97.8907
98.0435
98.2587
98.5879
99.0987
99.7222
100.556
101.484
102.278
102.982
103.204
102.568
101.51
98.6301
92.2002
7.58052
0.112737
0.076195
0.0518461
0.0357938
0.024757
0.0169696
0.0112098
0.00686442
0.00358265
0.00109972
-0.000784813
-0.00222224
97.5497
97.7958
97.8775
98.0265
98.233
98.5559
99.102
99.7268
100.614
101.618
102.516
103.364
103.736
103.188
102.743
100.674
95.3925
1.26458
0.0797926
0.0655539
0.0440982
0.0284989
0.0173502
0.00934533
0.00338283
-0.0011508
-0.00461691
-0.00727547
-0.00932447
-0.0109148
69.1616
69.1924
69.2657
69.3955
69.6001
69.9027
70.3322
70.9239
71.72
72.7688
74.1236
75.8361
77.9418
80.441
83.2765
86.325
89.4035
92.2964
94.7985
96.7601
98.1206
98.9118
99.2354
99.2276
99.024
98.738
98.4491
98.2038
98.0225
97.9106
69.0458
69.0865
69.1735
69.3221
69.5522
69.8887
70.3627
71.011
71.8775
73.0122
74.4688
76.2968
78.524
81.1361
84.0567
87.1441
90.203
93.0156
95.3878
97.192
98.3938
99.0475
99.2677
99.1939
98.9573
98.663
98.3813
98.151
97.9871
97.8939
68.7825
68.8236
68.9122
69.0646
69.3013
69.6481
70.1369
70.8047
71.695
72.8574
74.3461
76.2103
78.4764
81.1267
84.0802
87.1914
90.2633
93.0785
95.4446
97.2376
98.4266
99.0687
99.28
99.2001
98.9598
98.6636
98.3811
98.1506
97.9866
97.8934
68.37
68.4116
68.5029
68.6611
68.9084
69.2722
69.7854
70.4849
71.4135
72.6202
74.1591
76.0797
78.406
81.1146
84.1173
87.2632
90.3533
93.1708
95.5267
97.3024
98.4722
99.0972
99.2958
99.2073
98.9621
98.6635
98.3802
98.1495
97.9856
97.8925
67.8019
67.8439
67.9384
68.1043
68.3664
68.7545
69.3028
70.0476
71.0301
72.298
73.9061
75.9043
78.3131
81.1007
84.1691
87.3606
90.4737
93.2929
95.6343
97.3861
98.5302
99.133
99.315
99.2156
98.9642
98.6628
98.3785
98.1478
97.9842
97.8912
67.0695
67.1113
67.2087
67.3837
67.6649
68.0858
68.6817
69.4873
70.5404
71.8873
73.5843
75.6827
78.1979
81.0863
84.2373
87.4851
90.6254
93.4453
95.7673
97.4887
98.6007
99.1759
99.3374
99.2249
98.9661
98.6614
98.3762
98.1455
97.9823
97.8894
66.1617
66.2017
66.3003
66.4846
66.7895
67.2534
67.9125
68.7972
69.9393
71.3834
73.1898
75.4129
78.0607
81.0731
84.3239
87.6382
90.8098
93.6287
95.9259
97.61
98.6832
99.2255
99.363
99.235
98.9678
98.6593
98.3731
98.1427
97.9799
97.8873
65.0658
65.1001
65.1949
65.3864
65.7202
66.2412
66.9838
67.9694
69.2203
70.7797
72.7171
75.0924
77.9023
81.0637
84.4315
87.8221
91.028
93.8437
96.1101
97.7496
98.7774
99.2816
99.3915
99.2459
98.9691
98.6565
98.3693
98.1392
97.9771
97.8848
63.7691
63.7884
63.8677
64.0606
64.4306
65.0289
65.8827
66.9958
68.3756
70.0672
72.1585
74.7181
77.7238
81.0609
84.5632
88.0393
91.2817
94.091
96.32
97.9074
98.8829
99.3439
99.4227
99.2574
98.97
98.653
98.3648
98.1352
97.9738
97.8819
62.2623
62.2449
62.282
62.4659
62.8857
63.5933
64.5961
65.8687
67.3963
69.2332
71.5029
74.2862
77.5272
81.0688
84.7226
88.2922
91.5725
94.3713
96.5556
98.0828
98.9991
99.4119
99.4562
99.2693
98.9704
98.6486
98.3595
98.1306
97.9701
97.8786
60.5471
60.4358
60.3752
60.5404
61.0428
61.9104
63.1135
64.5823
66.2701
68.2577
70.7346
73.7927
77.3165
81.0927
84.9138
88.5841
91.9025
94.6854
96.8168
98.2752
99.1256
99.4851
99.4919
99.2815
98.9702
98.6434
98.3535
98.1253
97.9659
97.875
58.659
58.281
58.0194
58.1966
58.8595
59.9605
61.4284
63.1338
64.979
67.1075
69.8305
73.2346
77.0978
81.139
85.1416
88.9182
92.2734
95.034
97.1032
98.4841
99.2615
99.5631
99.5293
99.2938
98.9693
98.6373
98.3466
98.1195
97.9612
97.871
56.6487
55.4158
54.929
55.3499
56.3224
57.7314
59.5382
61.5259
63.4914
65.7252
68.7586
72.6124
76.8815
81.2158
85.4113
89.2979
92.6876
95.4179
97.4147
98.7086
99.4062
99.6453
99.568
99.306
98.9676
98.6303
98.339
98.113
97.9562
97.8666
52.6362
49.8927
50.6774
52.0913
53.4875
55.1901
57.4325
59.7718
61.7439
64.0068
67.4786
71.9363
76.6837
81.3327
85.728
89.7269
93.1471
95.8377
97.7506
98.9477
99.5587
99.7311
99.6078
99.3178
98.9651
98.6223
98.3305
98.106
97.9506
97.862
28.2783
38.7898
46.1587
49.0376
50.3685
52.1395
55.0682
57.9149
59.587
61.7564
65.9508
71.2354
76.5279
81.4998
86.0971
90.2089
93.6542
96.2938
98.1101
99.2003
99.7181
99.8197
99.6481
99.329
98.9614
98.6133
98.3212
98.0983
97.9446
97.857
35.917
44.5416
45.4797
46.4304
46.1285
47.9249
52.371
56.1023
56.6251
58.6018
64.1732
70.5713
76.4444
81.7272
86.5233
90.748
94.2112
96.7865
98.4923
99.4651
99.8832
99.9105
99.6885
99.3393
98.9567
98.6031
98.3111
98.0901
97.9382
97.8518
0.11739
0.0839568
0.0802011
0.10133
3.21061
24.7176
49.3431
55.189
51.8017
53.8759
62.2814
70.0551
76.4681
82.0214
87.0106
91.348
94.8204
97.316
98.8959
99.7404
100.053
100.003
99.7285
99.3485
98.9506
98.5919
98.3001
98.0812
97.9314
97.8463
0.0712788
0.0730586
0.0717109
0.0616079
0.0481451
0.0679907
0.100369
2.03257
42.3414
46.7803
60.7456
69.8408
76.6313
82.3833
87.5615
92.0131
95.4843
97.8819
99.3191
100.025
100.226
100.095
99.7677
99.3563
98.9431
98.5795
98.2882
98.0717
97.9241
97.8406
0.0641113
0.0637421
0.0606266
0.0516685
0.0498375
0.066715
0.077428
0.0789874
0.146867
37.1568
60.5294
70.0868
76.9416
82.8039
88.178
92.7481
96.2052
98.4836
99.7597
100.315
100.401
100.188
99.8055
99.3624
98.934
98.5658
98.2755
98.0617
97.9164
97.8346
0.055989
0.0561349
0.0549365
0.0525092
0.0529577
0.0599373
0.0695035
0.0835574
0.0355456
-0.37043
62.246
70.8825
77.3574
83.2612
88.862
93.5585
96.9853
99.1196
100.215
100.61
100.577
100.279
99.8413
99.3666
98.9233
98.5508
98.2618
98.0511
97.9084
97.8283
0.0493303
0.049889
0.0501046
0.050325
0.0521954
0.0571345
0.0635291
0.0700117
0.0329413
0.00491647
47.9652
72.2725
77.7386
83.723
89.6176
94.4512
97.8271
99.7879
100.682
100.907
100.751
100.369
99.8748
99.3685
98.9106
98.5344
98.2473
98.0398
97.8999
97.8219
0.0434714
0.0442026
0.0450097
0.0461337
0.0483654
0.0524541
0.0570475
0.0610503
0.0513785
0.052444
0.504882
74.5489
77.773
84.1611
90.4538
95.4348
98.7324
100.485
101.156
101.202
100.923
100.455
99.9052
99.3679
98.896
98.5167
98.2318
98.028
97.891
97.8152
0.0387199
0.039116
0.0397393
0.0408431
0.0428742
0.0462579
0.0497809
0.0529573
0.0525375
0.0656156
0.397606
79.1809
76.9708
84.578
91.3885
96.52
99.7028
101.207
101.632
101.493
101.09
100.538
99.9319
99.3645
98.8792
98.4975
98.2155
98.0157
97.8817
97.8084
0.0336747
0.033801
0.0341672
0.0349575
0.0364632
0.0389596
0.0414724
0.0438785
0.0460441
0.0582431
0.137171
1.19652
75.4375
85.0293
92.4502
97.7197
100.739
101.947
102.104
101.775
101.252
100.616
99.9545
99.358
98.8601
98.4768
98.1982
98.0027
97.872
97.8012
0.027343
0.0273306
0.0276209
0.0282813
0.0293712
0.0309515
0.0324278
0.0336111
0.0344596
0.0328304
-0.0260379
0.0943544
77.264
85.6004
93.6777
99.0486
101.841
102.696
102.566
102.044
101.406
100.688
99.9723
99.3483
98.8386
98.4547
98.1799
97.9893
97.8619
97.7939
0.0203698
0.0201221
0.0201751
0.0205948
0.0213928
0.0223988
0.0229824
0.0227962
0.0214681
0.0116791
-0.0417717
-0.010103
71.6257
86.4071
95.1169
100.523
103.005
103.443
103.01
102.296
101.552
100.754
99.9848
99.3351
98.8148
98.431
98.1608
97.9752
97.8513
97.7862
0.0129262
0.0124283
0.0121898
0.0122582
0.0126453
0.0132047
0.0132998
0.0122028
0.00963456
-0.000492443
-0.028732
0.00115473
6.3773
87.7507
96.8127
102.158
104.225
104.17
103.426
102.525
101.688
100.813
99.9914
99.3184
98.7886
98.4059
98.1407
97.9607
97.8403
97.7781
0.00501897
0.00428841
0.00377379
0.00350186
0.00346389
0.00354883
0.00331122
0.00195462
-0.000781461
-0.00737218
-0.0160518
0.0132236
5.00461
89.597
98.7959
103.972
105.492
104.855
103.804
102.724
101.813
100.863
99.9914
99.2978
98.7604
98.3795
98.1198
97.9456
97.8289
97.7696
-0.00335118
-0.00428497
-0.00504263
-0.00560849
-0.00600218
-0.00632108
-0.00685165
-0.00812835
-0.0103698
-0.0133441
-0.0122407
0.00647318
0.357575
92.1173
101.079
105.981
106.787
105.47
104.133
102.885
101.928
100.904
99.9837
99.273
98.7311
98.3519
98.098
97.9301
97.817
97.7604
-0.0121936
-0.0132939
-0.0142501
-0.0150515
-0.0157179
-0.0163303
-0.0170766
-0.0182347
-0.0196889
-0.0203903
-0.0152316
-0.0024414
0.1816
96.929
103.663
108.209
108.084
105.974
104.392
102.992
102.034
100.936
99.9656
99.2419
98.7026
98.3237
98.0755
97.9141
97.8046
97.7504
-0.00136957
0.00638701
0.456683
8.27871
43.1615
97.856
99.1211
99.7343
100.666
101.712
102.716
103.679
104.141
103.59
103.727
102.477
98.2148
0.136143
0.0505414
0.0546112
0.0362844
0.0210959
0.010125
0.00210011
-0.00396764
-0.00860578
-0.0121723
-0.0149277
-0.0170694
-0.0187483
-0.00119028
0.00638772
0.0118811
0.0178508
0.0244666
0.0325687
0.0406077
52.7085
100.706
101.758
102.852
103.901
104.389
103.781
104.336
103.687
99.4744
0.107133
0.119854
0.0471442
0.0301976
0.015278
0.00463423
-0.00340981
-0.00953571
-0.0142098
-0.0178031
-0.0205844
-0.0227534
-0.0244641
-0.000864072
0.00637212
0.0118728
0.0178437
0.0244637
0.0325614
0.0402888
0.0485036
0.0620533
101.788
103.011
104.195
104.653
103.925
104.97
105.052
101.244
0.0842712
0.0363956
0.0407529
0.0236693
0.00906806
-0.00139144
-0.00942736
-0.0155935
-0.020294
-0.0239067
-0.0267089
-0.0289032
-0.0306449
-0.000557175
0.00636435
0.0118677
0.0178343
0.0244573
0.032505
0.0401922
0.0485464
0.0588038
0.0690496
103.196
104.655
104.948
104.016
105.62
106.589
104.483
0.11531
0.0133664
0.0349836
0.0166259
0.0022489
-0.00810847
-0.0160667
-0.0222339
-0.0269436
-0.0305633
-0.0333775
-0.0355901
-0.0373563
-0.000265464
0.00635832
0.0118613
0.0178238
0.0244542
0.0325268
0.0401668
0.0486099
0.0586629
0.0696749
0.122561
105.464
105.329
104.083
106.286
108.322
107.875
0.0540931
0.00380931
0.0290139
0.00852445
-0.00542732
-0.0156381
-0.0234639
-0.029578
-0.034269
-0.0378776
-0.0406881
-0.0429061
-0.0446855
6.57153e-06
0.00634996
0.0118484
0.0178076
0.024446
0.0325115
0.0402094
0.0487528
0.0586771
0.0703707
0.114112
-0.331004
105.852
104.303
107.001
110.273
107.513
-0.0433837
-0.0032952
0.0167822
-0.00125864
-0.0141021
-0.0240764
-0.0317488
-0.0377503
-0.0423817
-0.0459519
-0.048736
-0.0509418
-0.0527184
0.000255953
0.00633585
0.0118269
0.0177826
0.0244275
0.032473
0.0402616
0.0489108
0.058897
0.0707772
0.0905438
-0.337699
4.92138
105.223
107.906
112.479
104.785
0.000394786
-0.0566067
-0.0268424
-0.0129795
-0.0238212
-0.0335457
-0.041062
-0.0468956
-0.0514143
-0.0549044
-0.0576322
-0.0598012
-0.0615558
0.000480863
0.0063195
0.0117958
0.017746
0.0243944
0.03239
0.0402807
0.0490492
0.0591479
0.0707829
0.0815251
-0.339909
0.128767
110.844
109.488
114.899
125.068
0.030651
0.173616
-0.18319
-0.0247028
-0.0345835
-0.0442203
-0.0515715
-0.0571796
-0.0615164
-0.0648696
-0.0674986
-0.0695981
-0.0713054
0.000680661
0.00630893
0.0117629
0.0176971
0.0243447
0.0323104
0.040273
0.0491452
0.0592985
0.070321
0.0663483
-0.335593
0.00595914
-13.583
113.386
117.451
117.765
0.0583537
-0.0265501
0.0360711
-0.0334432
-0.0465972
-0.0563685
-0.0634972
-0.0687944
-0.0728556
-0.0759978
-0.0784697
-0.0804572
-0.0820868
0.000855156
0.0062897
0.0117161
0.0176314
0.024274
0.0322216
0.0402585
0.0492011
0.0593317
0.0693255
0.0484279
-0.196568
-0.0357318
0.32623
118.525
119.869
84.9544
0.0879336
0.0237475
-0.0300799
-0.0453582
-0.0606162
-0.0703891
-0.0771157
-0.0819529
-0.0856103
-0.0884414
-0.0906809
-0.0924993
-0.0940118
0.00100505
0.00625752
0.0116499
0.0175457
0.0241789
0.0320586
0.0401835
0.0491964
0.0593095
0.0679311
0.0918397
-0.127533
-0.0382401
0.35177
125.373
121.837
95.7213
0.323983
-0.000354689
-0.034347
-0.0623219
-0.077648
-0.086813
-0.0927724
-0.0969042
-0.0999786
-0.102363
-0.104274
-0.105854
-0.107201
0.00113143
0.00621751
0.011568
0.0174402
0.0240581
0.0318224
0.040031
0.0491069
0.0591278
0.0664948
0.0373166
-0.141533
-0.0239076
0.269737
15.5233
120.963
5.83884
0.115763
-0.0163149
-0.0581459
-0.0848446
-0.098599
-0.106215
-0.110836
-0.113895
-0.116138
-0.117901
-0.119363
-0.120624
-0.121747
0.00123518
0.00617683
0.0114743
0.017314
0.0239082
0.0315296
0.0398128
0.0489319
0.0587601
0.0652746
0.0441964
-0.0789393
-0.00474632
0.105086
-0.0370338
121.007
0.367195
0.089735
-0.0433442
-0.0924644
-0.114378
-0.124368
-0.129137
-0.131629
-0.133119
-0.134211
-0.135139
-0.136004
-0.13685
-0.137689
0.00131684
0.00613883
0.0113715
0.0171623
0.0237215
0.0312332
0.0395438
0.0486764
0.0582599
0.0644324
0.0527761
0.00521196
0.0161003
-0.0267937
0.237101
127.664
0.394188
0.0271896
-0.100644
-0.140664
-0.152562
-0.15573
-0.155954
-0.155325
-0.154644
-0.154202
-0.154046
-0.154154
-0.154479
-0.154969
0.00137758
0.00609298
0.0112495
0.0169762
0.0234856
0.0309256
0.0392235
0.0483419
0.0577182
0.0640741
0.0599801
0.0495874
0.043737
-0.11454
-0.31312
112.02
0.0225754
0.0175237
-0.198512
-0.206216
-0.200194
-0.192852
-0.186576
-0.181741
-0.178241
-0.175863
-0.17437
-0.17356
-0.173264
-0.173348
0.00141941
0.00603143
0.0110993
0.0167474
0.0231879
0.0305495
0.0388107
0.0478977
0.0571978
0.0642272
0.0663404
0.0769412
0.0906337
-0.146453
133.676
-1.56958
-0.472335
-0.426898
-0.341053
-0.287711
-0.255913
-0.234634
-0.220096
-0.210096
-0.20322
-0.19857
-0.195533
-0.193675
-0.192683
-0.192324
0.00144401
0.00595021
0.0109143
0.0164669
0.0228149
0.0300788
0.0382685
0.0472993
0.0566273
0.0646744
0.0719004
0.09434
0.131053
123.588
151.024
-1.81318
-1.45099
-0.728859
-0.484876
-0.375539
-0.314922
-0.278026
-0.254366
-0.238729
-0.228214
-0.221147
-0.216484
-0.213536
-0.211829
-0.211025
0.00145204
0.00584527
0.0106878
0.016124
0.0223523
0.029491
0.037568
0.0465079
0.0559093
0.0650668
0.076211
0.103152
0.15065
183.229
121.362
-3.12426
-2.50967
-1.06669
-0.627707
-0.456832
-0.369062
-0.317792
-0.285755
-0.264922
-0.251054
-0.241768
-0.235617
-0.231678
-0.229327
-0.228129
0.00144356
0.00571195
0.0104126
0.0157074
0.0217846
0.0287623
0.0366772
0.0454789
0.0549436
0.0650619
0.0786701
0.104815
0.129095
193.609
-0.371001
-3.08598
-2.65898
-1.20322
-0.71491
-0.511502
-0.407251
-0.346931
-0.309418
-0.285074
-0.26888
-0.258026
-0.250814
-0.246164
-0.243352
-0.241876
0.00141861
0.00554473
0.0100797
0.0152039
0.0210934
0.0278655
0.0355605
0.0441592
0.0536071
0.0643283
0.078895
0.101805
0.119376
231.593
-0.524819
-1.50814
-1.85815
-1.08628
-0.703471
-0.519148
-0.418532
-0.35845
-0.320391
-0.295382
-0.278601
-0.267281
-0.259718
-0.254816
-0.251833
-0.250249
0.00137722
0.00533811
0.00967892
0.0145978
0.0202576
0.0267708
0.0341782
0.0424869
0.051763
0.0625835
0.0767521
0.0954101
0.100934
0.118972
-0.487889
-1.24633
-1.16152
-0.824798
-0.605901
-0.477179
-0.398633
-0.348513
-0.315414
-0.293049
-0.277756
-0.267306
-0.260262
-0.255669
-0.252862
-0.25137
0.00131888
0.00508636
0.00920006
0.0138728
0.0192546
0.0254462
0.0324859
0.0403944
0.0492807
0.0596351
0.0723229
0.0866993
0.0957595
0.0980865
0.0633869
-0.506273
-0.610891
-0.551549
-0.468873
-0.401809
-0.353214
-0.318859
-0.29463
-0.277525
-0.265478
-0.257082
-0.251348
-0.247579
-0.24527
-0.244046
0.00124258
0.00478255
0.00863122
0.0130113
0.0180586
0.0238577
0.0304384
0.0378149
0.0460579
0.0554099
0.0658589
0.0757914
0.0797263
0.0670942
-0.00378071
-0.164404
-0.30942
-0.348452
-0.339044
-0.316707
-0.294538
-0.276091
-0.261729
-0.25092
-0.24298
-0.237289
-0.233333
-0.230705
-0.229091
-0.228243
0.00114716
0.00441907
0.00795931
0.0119939
0.0166425
0.0219706
0.0279938
0.0346931
0.0420442
0.049971
0.0577791
0.0632476
0.0611753
0.0418303
-0.0094925
-0.0934004
-0.176803
-0.222882
-0.238913
-0.239842
-0.234898
-0.228467
-0.222369
-0.217241
-0.213207
-0.210188
-0.208034
-0.206584
-0.205694
-0.205236
0.00103157
0.00398829
0.00717079
0.0107997
0.0149783
0.0197514
0.0251124
0.0309939
0.0372499
0.0435087
0.0486647
0.0503146
0.0441937
0.0244692
-0.0130123
-0.0639153
-0.113523
-0.148705
-0.168663
-0.178195
-0.18183
-0.182508
-0.18189
-0.180839
-0.179769
-0.178859
-0.178164
-0.177684
-0.177394
-0.177259
0.000894351
0.00348283
0.00625216
0.00940885
0.0130397
0.0171697
0.0217647
0.0267098
0.0317472
0.0363098
0.0391684
0.0381757
0.030413
0.01318
-0.0137915
-0.046473
-0.0779251
-0.102856
-0.120113
-0.131089
-0.137719
-0.141601
-0.14383
-0.1451
-0.145824
-0.146244
-0.146496
-0.146656
-0.146764
-0.146842
0.000733593
0.002895
0.00518957
0.00780268
0.0108028
0.0141985
0.0179327
0.0218561
0.0256489
0.0286856
0.0298513
0.0275253
0.0200055
0.00635952
-0.0125787
-0.0340643
-0.0546927
-0.0720554
-0.0853791
-0.0950289
-0.101796
-0.10647
-0.109682
-0.111888
-0.113407
-0.114451
-0.115163
-0.115638
-0.115943
-0.116124
0.000547731
0.00221816
0.00397112
0.00596529
0.00824902
0.0108193
0.01361
0.0164662
0.0190788
0.0208942
0.0210635
0.0185426
0.0124576
0.00262864
-0.0100957
-0.0240725
-0.0375623
-0.0493617
-0.0589886
-0.0664893
-0.0721672
-0.0763903
-0.0794959
-0.0817604
-0.0833964
-0.0845624
-0.0853763
-0.0859255
-0.0862754
-0.086475
0.00033545
0.0014476
0.00258814
0.00388446
0.00536496
0.00702116
0.00879774
0.0105719
0.0121168
0.0130532
0.0128629
0.0109804
0.00699771
0.000895968
-0.0068105
-0.0152534
-0.0235475
-0.0310546
-0.0374569
-0.04269
-0.0468438
-0.0500704
-0.052533
-0.0543845
-0.055754
-0.0567449
-0.057443
-0.0579157
-0.0582145
-0.0583801
9.52943e-05
0.000581147
0.00103743
0.00155573
0.00214618
0.00280254
0.00349944
0.00418218
0.0047576
0.00507872
0.00495913
0.00421064
0.00269355
0.00021411
-0.00312991
-0.00703564
-0.0111152
-0.015031
-0.0185585
-0.0215891
-0.0241002
-0.0261215
-0.0277086
-0.0289262
-0.0298387
-0.0305033
-0.0309706
-0.0312833
-0.0314767
-0.0315793
-0.0201175
-0.0213236
-0.0224099
-0.0233642
-0.0242033
-0.0249859
-0.0258413
-0.0269332
-0.0279273
-0.0272408
-0.0218732
-0.00878395
0.0509592
98.4733
105.971
110.21
109.111
106.263
104.517
103.022
102.117
100.953
99.9371
99.2069
98.6822
60.4923
13.4285
1.20228
0.00923119
0.00309604
-0.0258734
-0.0271337
-0.0282919
-0.0293346
-0.0302712
-0.0311457
-0.0320466
-0.0330531
-0.0338037
-0.0325356
-0.0269267
-0.0161999
-0.026978
97.4515
107.524
111.585
109.738
106.375
104.528
103.006
102.173
100.958
89.4243
0.0535101
0.0402468
0.0312127
0.0228648
0.0155936
0.00922356
0.00304885
-0.0320905
-0.0333956
-0.0346131
-0.0357325
-0.0367559
-0.037712
-0.0386543
-0.0395813
-0.0400804
-0.0385544
-0.0319486
-0.0138855
-0.0327556
100.737
109.28
113.175
110.362
106.407
104.436
102.948
102.243
1.52963
0.062398
0.051389
0.0402715
0.0312147
0.0228516
0.0155818
0.00920498
0.0030096
-0.0388309
-0.0401724
-0.0414399
-0.0426235
-0.043723
-0.0447522
-0.0457358
-0.0466095
-0.0469671
-0.0453816
-0.037702
-0.0266238
-0.0904474
100.612
111.267
115.033
110.936
106.301
104.127
102.831
0.0900742
0.0743653
0.0622516
0.0511662
0.0402468
0.0312092
0.0228341
0.0155711
0.00919298
0.00298867
-0.0461788
-0.0475478
-0.0488559
-0.0500935
-0.0512584
-0.0523543
-0.0533838
-0.054249
-0.0546504
-0.0534063
-0.0451284
-0.0263614
-0.112692
113.174
113.514
117.25
111.323
105.936
103.323
0.0258112
0.0870401
0.0742541
0.0620404
0.0510618
0.0402539
0.0312111
0.0228151
0.0155594
0.00918005
0.00298006
-0.0542176
-0.0556029
-0.0569403
-0.058221
-0.0594416
-0.0605995
-0.0616805
-0.0625912
-0.0632162
-0.0629588
-0.0566396
-0.0110434
-0.14664
107.613
116.043
119.946
111.136
105.158
0.916536
0.277554
0.0881771
0.0742222
0.0621119
0.0510595
0.0402563
0.0311904
0.0227899
0.0155409
0.00916183
0.00297781
-0.0630447
-0.0644315
-0.0657859
-0.0670973
-0.0683654
-0.0695811
-0.0707163
-0.0717171
-0.072673
-0.0740375
-0.0765197
0.104312
-0.150052
53.5983
118.869
123.319
109.072
83.3149
0.0124784
0.107853
0.0893345
0.0743379
0.0622406
0.0510762
0.0402471
0.031147
0.022754
0.0155136
0.00913428
0.00297667
-0.0727644
-0.0741356
-0.0754912
-0.0768234
-0.0781313
-0.0794009
-0.0805936
-0.0816937
-0.0829459
-0.0859228
-0.104388
1.28122
-0.121612
84.2304
121.957
127.607
101.291
0.328272
-0.0204727
0.117597
0.0898096
0.0744989
0.0623696
0.0510461
0.0402086
0.0310789
0.0227038
0.0154744
0.00910019
0.00297924
-0.0834914
-0.0848272
-0.0861674
-0.0875104
-0.0888518
-0.0901739
-0.0914283
-0.0925981
-0.0939383
-0.0972856
-0.119139
1.38416
-0.0517899
48.8642
125.062
133.006
97.9774
0.0756571
-0.0428886
0.0920341
0.0889381
0.0746321
0.0624086
0.0509721
0.0401422
0.0309984
0.0226372
0.0154281
0.00906893
0.00299131
-0.0953335
-0.0966121
-0.0979232
-0.0992687
-0.100644
-0.102028
-0.103356
-0.104556
-0.105691
-0.107639
-0.113366
0.296283
-0.0352881
6.7492
127.961
138.864
0.10669
0.0489458
-0.0315748
0.0605812
0.087211
0.0746571
0.0624199
0.050914
0.0400441
0.0308866
0.0225501
0.0153671
0.00902451
0.00299886
-0.108407
-0.109605
-0.110873
-0.112218
-0.113643
-0.11512
-0.116564
-0.117811
-0.118578
-0.118134
-0.108784
-0.0613708
-0.028899
-0.252723
129.994
136.559
-1.22954
0.0628954
0.0104021
0.0594786
0.0855777
0.0745851
0.0623729
0.0507598
0.0398917
0.0307201
0.0224394
0.0152856
0.00896151
0.00299836
-0.1228
-0.123895
-0.12511
-0.126466
-0.127975
-0.129615
-0.131289
-0.13274
-0.133362
-0.131343
-0.119492
-0.0898532
-0.0407392
0.232621
129.987
138.025
-0.220972
0.0552579
0.021003
0.067558
0.0843997
0.0743743
0.0621566
0.0504672
0.0396859
0.030502
0.022304
0.0151842
0.00888525
0.00299502
-0.138549
-0.139519
-0.140682
-0.142078
-0.143742
-0.145674
-0.147791
-0.149811
-0.150991
-0.14928
-0.139315
-0.116425
-0.0899809
0.163383
126.663
3.45163
-0.227863
0.051019
0.0565027
0.0749603
0.0837152
0.0740032
0.0617756
0.050067
0.0394284
0.0302465
0.0221408
0.0150634
0.00880409
0.00299583
-0.155602
-0.156434
-0.157559
-0.159048
-0.160976
-0.163395
-0.166293
-0.169468
-0.172302
-0.173075
-0.167844
-0.151509
-0.127906
-0.357619
121.857
4.39111
-0.208974
0.0520165
0.0826298
0.0823557
0.0835025
0.0735187
0.0612584
0.0496097
0.0391184
0.0299663
0.0219416
0.0149232
0.00872276
0.00300347
-0.173725
-0.174418
-0.175536
-0.177197
-0.179537
-0.1827
-0.186816
-0.191911
-0.197765
-0.203457
-0.206394
-0.201293
-0.185955
-0.0850995
15.1224
21.1121
-0.22893
0.0609175
0.103884
0.089418
0.0836765
0.0729616
0.0606886
0.0491246
0.0387354
0.0296398
0.021695
0.0147539
0.00862947
0.00300817
-0.192435
-0.193
-0.194155
-0.19608
-0.198997
-0.203188
-0.208997
-0.216838
-0.227202
-0.240511
-0.256617
-0.2739
-0.285306
-0.245512
-0.343896
129.449
-0.470257
0.104176
0.121954
0.0958124
0.0840896
0.0723351
0.0600318
0.0485348
0.038245
0.0292367
0.021391
0.014546
0.00851495
0.00300355
-0.210882
-0.211347
-0.212588
-0.214857
-0.218486
-0.223928
-0.231817
-0.243079
-0.259192
-0.282561
-0.317343
-0.372928
-0.479143
-0.70087
-1.16981
149.041
160.21
0.125836
0.134441
0.100982
0.0845062
0.0715468
0.0591689
0.0477754
0.0376232
0.028739
0.0210182
0.0142928
0.00837452
0.00298727
-0.227772
-0.228171
-0.22953
-0.232174
-0.236551
-0.243294
-0.25335
-0.268204
-0.290414
-0.324649
-0.380476
-0.482511
-0.713113
-1.34368
-2.82456
21.0518
170.809
0.155689
0.139786
0.104215
0.0844895
0.0704594
0.0580334
0.0468065