/*--------------------------------*- C++ -*----------------------------------*\
| =========                 |                                                 |
| \\      /  F ield         | OpenFOAM: The Open Source CFD Toolbox           |
|  \\    /   O peration     | Version:  2.4.0                                 |
|   \\  /    A nd           | Web:      www.OpenFOAM.org                      |
|    \\/     M anipulation  |                                                 |
\*---------------------------------------------------------------------------*/
FoamFile
{
    version     2.0;
    format      ascii;
    class       surfaceScalarField;
    location    "0.129";
    object      phi;
}
// * * * * * * * * * * * * * * * * * * * * * * * * * * * * * * * * * * * * * //

dimensions      [0 3 -1 0 0 0 0];

internalField   nonuniform List<scalar> 
114720
(
-1.61352e-09
2.15688e-09
3.67917e-09
-4.22253e-09
3.9943e-09
-4.0254e-09
9.1571e-11
-6.04688e-11
1.87555e-09
-4.58065e-10
7.02502e-10
-2.11998e-09
-5.20707e-09
7.19629e-09
8.44858e-10
-2.83409e-09
-1.33751e-08
1.52076e-08
6.8776e-10
-2.5202e-09
-2.04359e-08
2.19508e-08
5.37853e-10
-2.05268e-09
-2.653e-08
2.78947e-08
4.59428e-10
-1.82411e-09
-3.17753e-08
3.27916e-08
2.69154e-10
-1.28545e-09
-3.49284e-08
3.51331e-08
-1.16745e-10
-8.79438e-11
-3.38072e-08
3.27038e-08
-7.02645e-10
1.80603e-09
-2.70717e-08
2.46597e-08
-1.26823e-09
3.68017e-09
-1.54628e-08
1.22145e-08
-1.51704e-09
4.76527e-09
-1.8283e-09
-1.29505e-09
-1.26353e-09
4.38688e-09
1.00645e-08
-1.24107e-08
-7.97916e-10
3.14412e-09
1.84291e-08
-1.99257e-08
-4.32004e-10
1.92859e-09
2.35713e-08
-2.44287e-08
-2.08873e-10
1.06623e-09
2.63696e-08
-2.67687e-08
-6.656e-11
4.65685e-10
2.74508e-08
-2.75017e-08
4.26988e-11
8.28614e-12
2.72178e-08
-2.70023e-08
1.31289e-10
-3.46859e-10
2.59886e-08
-2.55761e-08
2.01463e-10
-6.13985e-10
2.40409e-08
-2.34932e-08
2.52336e-10
-8.00027e-10
2.16215e-08
-2.09942e-08
2.83291e-10
-9.10661e-10
1.8945e-08
-1.82824e-08
2.9692e-10
-9.59528e-10
1.61766e-08
-1.55119e-08
2.96955e-10
-9.61614e-10
1.34353e-08
-1.27889e-08
2.88265e-10
-9.34611e-10
1.0795e-08
-1.01807e-08
2.7378e-10
-8.88112e-10
8.30078e-09
-7.72575e-09
2.5622e-10
-8.31247e-10
5.97899e-09
-5.44844e-09
2.36487e-10
-7.67038e-10
3.8469e-09
-3.36363e-09
2.15427e-10
-6.98702e-10
1.91001e-09
-1.47353e-09
1.94669e-10
-6.31149e-10
3.95345e-09
1.69989e-08
-1.31996e-08
-7.75272e-09
1.30478e-08
2.00055e-10
-1.34491e-08
2.01267e-10
1.00526e-08
9.07658e-09
-7.7973e-09
-1.13318e-08
-1.45089e-09
1.22988e-08
4.94677e-09
-1.57946e-08
-1.59926e-08
1.15795e-08
1.95394e-08
-1.51263e-08
-2.98626e-08
1.02362e-08
3.31305e-08
-1.3504e-08
-4.28852e-08
9.36994e-09
4.59821e-08
-1.24668e-08
-5.48037e-08
7.06342e-09
5.7384e-08
-9.64363e-09
-6.36405e-08
1.78204e-09
6.49651e-08
-3.1066e-09
-6.60783e-08
-6.08205e-09
6.53764e-08
6.78402e-09
-5.9984e-08
-1.36135e-08
5.72102e-08
1.63873e-08
-4.61668e-08
-1.82305e-08
4.18799e-08
2.25174e-08
-2.76859e-08
-1.80033e-08
2.29297e-08
2.27595e-08
-9.005e-09
-1.42335e-08
4.8157e-09
1.84228e-08
6.40285e-09
-9.67694e-09
-9.5123e-09
1.27864e-08
1.73044e-08
-5.84945e-09
-1.93279e-08
7.87295e-09
2.40789e-08
-2.88747e-09
-2.52074e-08
4.01598e-09
2.75343e-08
-6.07802e-10
-2.7969e-08
1.04247e-09
2.84668e-08
1.08998e-09
-2.83944e-08
-1.1624e-09
2.76012e-08
2.28215e-09
-2.71851e-08
-2.69818e-09
2.55583e-08
3.04404e-09
-2.49332e-08
-3.66919e-09
2.28314e-08
3.45626e-09
-2.20982e-08
-4.18944e-09
1.97845e-08
3.609e-09
-1.90147e-08
-4.37878e-09
1.66682e-08
3.58345e-09
-1.59092e-08
-4.34244e-09
1.36442e-08
3.44688e-09
-1.29248e-08
-4.16633e-09
1.08083e-08
3.24513e-09
-1.01437e-08
-3.90969e-09
8.20421e-09
3.01115e-09
-7.59935e-09
-3.616e-09
5.84327e-09
2.75846e-09
-5.29743e-09
-3.3043e-09
3.71651e-09
2.50407e-09
-3.22528e-09
-2.99531e-09
1.80358e-09
2.25329e-09
-1.36275e-09
-2.69411e-09
4.35103e-09
3.33179e-08
-2.91408e-08
-8.52818e-09
1.53519e-08
-1.93008e-09
-1.6019e-08
2.59721e-09
1.31715e-08
1.79046e-08
-1.10181e-08
-2.00579e-08
1.85984e-09
2.63523e-08
1.65568e-09
-2.98678e-08
-1.29008e-08
2.59949e-08
1.65358e-08
-2.96299e-08
-2.71946e-08
2.36499e-08
3.06057e-08
-2.7061e-08
-4.08896e-08
2.21976e-08
4.41856e-08
-2.54936e-08
-5.36839e-08
1.79283e-08
5.65176e-08
-2.07619e-08
-6.36726e-08
7.80611e-09
6.53383e-08
-9.47178e-09
-6.768e-08
-7.94644e-09
6.74355e-08
8.19102e-09
-6.36141e-08
-2.36154e-08
6.13999e-08
2.58296e-08
-5.22036e-08
-3.41983e-08
4.85556e-08
3.78463e-08
-3.63446e-08
-3.59545e-08
3.22277e-08
4.00713e-08
-2.01135e-08
-3.02372e-08
1.64427e-08
3.39081e-08
-6.51502e-09
-2.17269e-08
3.72912e-09
2.45128e-08
3.34088e-09
-1.38106e-08
-5.20701e-09
1.56768e-08
9.69745e-09
-7.47005e-09
-1.08122e-08
8.5848e-09
1.33014e-08
-2.58785e-09
-1.38509e-08
3.13733e-09
1.48571e-08
1.00868e-09
-1.49951e-08
-8.70603e-10
1.49452e-08
3.4889e-09
-1.47986e-08
-3.63545e-09
1.40455e-08
5.04018e-09
-1.37181e-08
-5.36766e-09
1.25432e-08
5.86359e-09
-1.21161e-08
-6.2907e-09
1.07369e-08
6.1563e-09
-1.0272e-08
-6.6212e-09
8.85243e-09
6.08432e-09
-8.39584e-09
-6.54092e-09
7.05447e-09
5.7837e-09
-6.63816e-09
-6.20002e-09
5.45248e-09
5.35593e-09
-5.0946e-09
-5.71381e-09
4.09641e-09
4.88347e-09
-3.8e-09
-5.17988e-09
2.97935e-09
4.41027e-09
-2.73552e-09
-4.6541e-09
2.05359e-09
3.96996e-09
-1.84741e-09
-4.17614e-09
1.25885e-09
3.56331e-09
-1.07732e-09
-3.74484e-09
4.47593e-09
5.03199e-08
-4.60349e-08
-8.76089e-09
1.58528e-08
-4.69491e-09
-1.65679e-08
5.41001e-09
1.37927e-08
2.64973e-08
-1.16432e-08
-2.86468e-08
2.45419e-09
4.04323e-08
1.07716e-09
-4.39636e-08
-1.23732e-08
4.05381e-08
1.60126e-08
-4.41774e-08
-2.66514e-08
3.73012e-08
3.00648e-08
-4.07146e-08
-4.03975e-08
3.54313e-08
4.37225e-08
-3.87563e-08
-5.33368e-08
2.93506e-08
5.62264e-08
-3.22402e-08
-6.35932e-08
1.45772e-08
6.53284e-08
-1.63124e-08
-6.78838e-08
-8.81265e-09
6.7698e-08
8.99843e-09
-6.40734e-08
-3.23265e-08
6.19169e-08
3.44831e-08
-5.28924e-08
-4.86076e-08
4.92967e-08
5.22032e-08
-3.72819e-08
-5.21373e-08
3.32616e-08
5.61577e-08
-2.15647e-08
-4.45318e-08
1.80624e-08
4.80341e-08
-8.67901e-09
-3.25161e-08
6.06357e-09
3.51315e-08
5.61169e-10
-2.1042e-08
-2.31183e-09
2.27927e-08
6.55607e-09
-1.18365e-08
-7.62735e-09
1.29077e-08
1.00979e-08
-4.83326e-09
-1.06777e-08
5.41309e-09
1.18665e-08
3.07268e-10
-1.20882e-08
-8.56275e-11
1.23433e-08
3.87477e-09
-1.23067e-08
-3.91137e-09
1.19018e-08
6.13884e-09
-1.16883e-08
-6.35235e-09
1.08497e-08
7.37485e-09
-1.05267e-08
-7.69784e-09
9.44187e-09
7.84337e-09
-9.0646e-09
-8.22064e-09
7.88376e-09
7.76468e-09
-7.49584e-09
-8.1526e-09
6.33706e-09
7.3236e-09
-5.97242e-09
-7.68824e-09
4.92451e-09
6.67271e-09
-4.60648e-09
-6.99074e-09
3.71957e-09
5.95588e-09
-3.45718e-09
-6.21828e-09
2.73606e-09
5.27201e-09
-2.52368e-09
-5.4844e-09
1.9341e-09
4.68558e-09
-1.75674e-09
-4.86294e-09
1.25063e-09
4.19061e-09
-1.09403e-09
-4.34721e-09
4.5821e-09
6.76702e-08
-6.33001e-08
-8.95221e-09
1.61127e-08
-7.57734e-09
-1.68408e-08
8.30543e-09
1.40502e-08
3.51196e-08
-1.18827e-08
-3.72872e-08
2.61941e-09
5.45967e-08
9.38673e-10
-5.81548e-08
-1.23104e-08
5.51081e-08
1.59589e-08
-5.87566e-08
-2.65676e-08
5.09487e-08
2.99763e-08
-5.43575e-08
-4.03344e-08
4.87639e-08
4.36818e-08
-5.21113e-08
-5.34013e-08
4.09972e-08
5.63531e-08
-4.3949e-08
-6.39804e-08
2.16382e-08
6.58014e-08
-2.34592e-08
-6.86159e-08
-9.48503e-09
6.84822e-08
9.61873e-09
-6.49603e-08
-4.09665e-08
6.27943e-08
4.31325e-08
-5.36151e-08
-6.31338e-08
4.99134e-08
6.68355e-08
-3.74558e-08
-6.84101e-08
3.32865e-08
7.25794e-08
-2.12141e-08
-5.86379e-08
1.76238e-08
6.22282e-08
-8.07927e-09
-4.29863e-08
5.44069e-09
4.56248e-08
1.20321e-09
-2.80295e-08
-2.95214e-09
2.97785e-08
7.19646e-09
-1.61268e-08
-8.27337e-09
1.72037e-08
1.07864e-08
-7.1889e-09
-1.13874e-08
7.78988e-09
1.26608e-08
-6.39889e-10
-1.29154e-08
8.94558e-10
1.32796e-08
3.95099e-09
-1.32808e-08
-3.94973e-09
1.29926e-08
6.92265e-09
-1.28177e-08
-7.09758e-09
1.20936e-08
8.60303e-09
-1.18067e-08
-8.89002e-09
1.082e-08
9.30628e-09
-1.04698e-08
-9.65653e-09
9.35057e-09
9.29635e-09
-8.97447e-09
-9.67246e-09
7.81978e-09
8.79703e-09
-7.44472e-09
-9.17209e-09
6.3258e-09
7.99787e-09
-5.97128e-09
-8.35239e-09
4.93348e-09
7.09272e-09
-4.60982e-09
-7.41638e-09
3.67178e-09
6.23193e-09
-3.38062e-09
-6.52309e-09
2.53661e-09
5.51419e-09
-2.27347e-09
-5.77733e-09
1.50699e-09
4.93247e-09
-1.2672e-09
-5.17226e-09
4.71322e-09
8.54e-08
-8.09274e-08
-9.18584e-09
1.64008e-08
-1.05045e-08
-1.71386e-08
1.12423e-08
1.43191e-08
4.3825e-08
-1.21272e-08
-4.60169e-08
2.76936e-09
6.88784e-08
8.20732e-10
-7.24685e-08
-1.22928e-08
6.97197e-08
1.59532e-08
-7.33802e-08
-2.65189e-08
6.45742e-08
2.99204e-08
-6.79757e-08
-4.03066e-08
6.21924e-08
4.36805e-08
-6.55663e-08
-5.35255e-08
5.29184e-08
5.65567e-08
-5.59495e-08
-6.45246e-08
2.90788e-08
6.64537e-08
-3.1008e-08
-6.96252e-08
-9.91658e-09
6.95639e-08
9.97785e-09
-6.61985e-08
-4.96416e-08
6.40262e-08
5.18139e-08
-5.46644e-08
-7.81418e-08
5.08232e-08
8.1983e-08
-3.77454e-08
-8.53974e-08
3.33587e-08
8.97841e-08
-2.07026e-08
-7.32164e-08
1.69604e-08
7.69586e-08
-7.09175e-09
-5.36317e-08
4.38979e-09
5.63337e-08
2.35114e-09
-3.50429e-08
-4.10983e-09
3.68016e-08
8.36024e-09
-2.04392e-08
-9.43752e-09
2.15165e-08
1.19599e-08
-9.60576e-09
-1.25665e-08
1.02124e-08
1.38588e-08
-1.67292e-09
-1.41189e-08
1.93303e-09
1.44969e-08
3.93234e-09
-1.45019e-08
-3.92733e-09
1.42242e-08
7.60613e-09
-1.40542e-08
-7.77616e-09
1.33477e-08
9.73243e-09
-1.30669e-08
-1.00132e-08
1.2103e-08
1.0688e-08
-1.17605e-08
-1.10304e-08
1.06607e-08
1.07911e-08
-1.02881e-08
-1.11637e-08
9.12814e-09
1.03097e-08
-8.74438e-09
-1.06935e-08
7.57061e-09
9.46226e-09
-7.18763e-09
-9.84524e-09
6.02836e-09
8.47108e-09
-5.65375e-09
-8.8457e-09
4.53044e-09
7.50938e-09
-4.17065e-09
-7.86916e-09
3.10198e-09
6.69216e-09
-2.76248e-09
-7.03166e-09
1.76301e-09
6.01396e-09
-1.44873e-09
-6.32824e-09
4.87581e-09
1.03593e-07
-9.89961e-08
-9.47224e-09
1.67537e-08
-1.34687e-08
-1.74998e-08
1.42149e-08
1.46463e-08
5.26356e-08
-1.24245e-08
-5.48575e-08
2.9508e-09
8.32995e-08
6.81317e-10
-8.69316e-08
-1.22786e-08
8.43837e-08
1.59545e-08
-8.80597e-08
-2.64612e-08
7.8166e-08
2.98528e-08
-8.15576e-08
-4.0274e-08
7.57338e-08
4.36795e-08
-7.91393e-08
-5.36693e-08
6.51836e-08
5.67982e-08
-6.83125e-08
-6.51903e-08
3.69768e-08
6.72428e-08
-3.90293e-08
-7.08698e-08
-1.00338e-08
7.08969e-08
1.00067e-08
-6.77402e-08
-5.83349e-08
6.55663e-08
6.05088e-08
-5.6009e-08
-9.37501e-08
5.19991e-08
9.77601e-08
-3.81371e-08
-1.03335e-07
3.34768e-08
1.07996e-07
-2.00947e-08
-8.8454e-08
1.61657e-08
9.2383e-08
-5.90541e-09
-6.45471e-08
3.12976e-09
6.73228e-08
3.70758e-09
-4.20846e-08
-5.46871e-09
4.38458e-08
9.69025e-09
-2.47348e-08
-1.07562e-08
2.58007e-08
1.32547e-08
-1.20274e-08
-1.38566e-08
1.26294e-08
1.51347e-08
-2.70463e-09
-1.53876e-08
2.95745e-09
1.57311e-08
3.9321e-09
-1.57199e-08
-3.94329e-09
1.5384e-08
8.31402e-09
-1.51914e-08
-8.50665e-09
1.44161e-08
1.088e-08
-1.41139e-08
-1.11822e-08
1.30887e-08
1.20776e-08
-1.27277e-08
-1.24385e-08
1.15757e-08
1.2299e-08
-1.11869e-08
-1.26878e-08
9.97697e-09
1.18666e-08
-9.57582e-09
-1.22678e-08
8.34143e-09
1.10288e-08
-7.93531e-09
-1.14349e-08
6.69275e-09
1.00213e-08
-6.28666e-09
-1.04274e-08
5.05587e-09
9.01394e-09
-4.6578e-09
-9.41202e-09
3.46646e-09
8.12162e-09
-3.08579e-09
-8.50229e-09
1.96153e-09
7.34048e-09
-1.60739e-09
-7.69462e-09
5.07512e-09
1.22341e-07
-1.17597e-07
-9.81918e-09
1.7171e-08
-1.64625e-08
-1.79223e-08
1.72138e-08
1.50322e-08
6.15734e-08
-1.27754e-08
-6.38301e-08
3.16723e-09
9.7896e-08
5.11868e-10
-1.01575e-07
-1.2263e-08
9.91134e-08
1.59571e-08
-1.02808e-07
-2.63804e-08
9.17121e-08
2.97578e-08
-9.50896e-08
-4.02186e-08
8.94068e-08
4.36591e-08
-9.28472e-08
-5.38036e-08
7.78679e-08
5.70495e-08
-8.11137e-08
-6.59525e-08
4.5381e-08
6.81347e-08
-4.75633e-08
-7.23298e-08
-9.77692e-09
7.24581e-08
9.64859e-09
-6.95714e-08
-6.70225e-08
6.74052e-08
6.91888e-08
-5.76556e-08
-1.10077e-07
5.34478e-08
1.14285e-07
-3.86077e-08
-1.22461e-07
3.36092e-08
1.2746e-07
-1.93451e-08
-1.04492e-07
1.51927e-08
1.08645e-07
-4.47476e-09
-7.57695e-08
1.61733e-09
7.8627e-08
5.30642e-09
-4.91185e-08
-7.05773e-09
5.08699e-08
1.12093e-08
-2.89689e-08
-1.22533e-08
3.00129e-08
1.47101e-08
-1.44247e-08
-1.53052e-08
1.50198e-08
1.6564e-08
-3.70143e-09
-1.6807e-08
3.9444e-09
1.70963e-08
4.01264e-09
-1.70597e-08
-4.04927e-09
1.66254e-08
9.1367e-09
-1.63954e-08
-9.36662e-09
1.54975e-08
1.21457e-08
-1.51539e-08
-1.24893e-08
1.40032e-08
1.35753e-08
-1.36026e-08
-1.39759e-08
1.23357e-08
1.39025e-08
-1.19116e-08
-1.43265e-08
1.06022e-08
1.35129e-08
-1.01709e-08
-1.39441e-08
8.85183e-09
1.26905e-08
-8.4201e-09
-1.31223e-08
7.10494e-09
1.16804e-08
-6.67673e-09
-1.21086e-08
5.38221e-09
1.06395e-08
-4.96436e-09
-1.10573e-08
3.71509e-09
9.67628e-09
-3.31609e-09
-1.00753e-08
2.13716e-09
8.78761e-09
-1.76546e-09
-9.1593e-09
5.31442e-09
1.41738e-07
-1.36823e-07
-1.02297e-08
1.76619e-08
-1.94687e-08
-1.8412e-08
2.02188e-08
1.54833e-08
7.06604e-08
-1.31855e-08
-7.29583e-08
3.42045e-09
1.12692e-07
3.12879e-10
-1.16425e-07
-1.22537e-08
1.13924e-07
1.59709e-08
-1.17641e-07
-2.62836e-08
1.05197e-07
2.96432e-08
-1.08556e-07
-4.0153e-08
1.03227e-07
4.3633e-08
-1.06707e-07
-5.39375e-08
9.10539e-08
5.73233e-08
-9.44397e-08
-6.6834e-08
5.43013e-08
6.91411e-08
-5.66084e-08
-7.40419e-08
-9.10284e-09
7.42775e-08
8.86725e-09
-7.1734e-08
-7.566e-08
6.95901e-08
7.78039e-08
-5.96715e-08
-1.27241e-07
5.52369e-08
1.31676e-07
-3.9174e-08
-1.43054e-07
3.37594e-08
1.48469e-07
-1.8431e-08
-1.21488e-07
1.40124e-08
1.25907e-07
-2.76169e-09
-8.73326e-08
-1.86431e-10
9.02807e-08
7.17963e-09
-5.60904e-08
-8.9032e-09
5.78139e-08
1.29291e-08
-3.30981e-08
-1.39391e-08
3.41081e-08
1.6344e-08
-1.67977e-08
-1.69352e-08
1.73888e-08
1.8188e-08
-4.66081e-09
-1.84237e-08
4.89657e-09
1.86576e-08
4.20295e-09
-1.8591e-08
-4.26958e-09
1.80338e-08
1.01252e-08
-1.77561e-08
-1.0403e-08
1.66987e-08
1.35982e-08
-1.63007e-08
-1.39962e-08
1.49841e-08
1.5254e-08
-1.45305e-08
-1.57076e-08
1.311e-08
1.56664e-08
-1.2639e-08
-1.61374e-08
1.11979e-08
1.52939e-08
-1.0728e-08
-1.57638e-08
9.3054e-09
1.44601e-08
-8.84474e-09
-1.49207e-08
7.45594e-09
1.34231e-08
-7.00811e-09
-1.38709e-08
5.66544e-09
1.2331e-08
-5.23496e-09
-1.27615e-08
3.95323e-09
1.1288e-08
-3.54471e-09
-1.16965e-08
2.33729e-09
1.02901e-08
-1.95588e-09
-1.06715e-08
5.59827e-09
1.6188e-07
-1.5677e-07
-1.07084e-08
1.82302e-08
-2.24549e-08
-1.89677e-08
2.31924e-08
1.60009e-08
7.99212e-08
-1.36554e-08
-8.22667e-08
3.71119e-09
1.27717e-07
8.44166e-11
-1.31513e-07
-1.2255e-08
1.28834e-07
1.60016e-08
-1.3258e-07
-2.61676e-08
1.18603e-07
2.95048e-08
-1.2194e-07
-4.00752e-08
1.17212e-07
4.35997e-08
-1.20737e-07
-5.4058e-08
1.04838e-07
5.76104e-08
-1.0839e-07
-6.78326e-08
6.36952e-08
7.0244e-08
-6.61066e-08
-7.60233e-08
-8.00739e-09
7.63565e-08
7.67417e-09
-7.42478e-08
-8.41772e-08
7.21481e-08
8.6277e-08
-6.21207e-08
-1.45347e-07
5.74374e-08
1.50031e-07
-3.98408e-08
-1.65445e-07
3.39163e-08
1.7137e-07
-1.73171e-08
-1.39617e-07
1.25849e-08
1.44349e-07
-7.21525e-10
-9.92703e-08
-2.32538e-09
1.02317e-07
9.35653e-09
-6.29151e-08
-1.10256e-08
6.45841e-08
1.4842e-08
-3.70687e-08
-1.5802e-08
3.80287e-08
1.81492e-08
-1.91647e-08
-1.87443e-08
1.97598e-08
2.00221e-08
-5.60163e-09
-2.02587e-08
5.83819e-09
2.0445e-08
4.51826e-09
-2.03453e-08
-4.618e-09
1.96431e-08
1.13195e-08
-1.93078e-08
-1.16548e-08
1.80578e-08
1.52848e-08
-1.75944e-08
-1.57482e-08
1.608e-08
1.71593e-08
-1.55638e-08
-1.76755e-08
1.39633e-08
1.76304e-08
-1.34377e-08
-1.8156e-08
1.18458e-08
1.72377e-08
-1.13323e-08
-1.77513e-08
9.79509e-09
1.63489e-08
-9.30324e-09
-1.68407e-08
7.83847e-09
1.52429e-08
-7.37172e-09
-1.57097e-08
5.98641e-09
1.40687e-08
-5.54596e-09
-1.45091e-08
4.24138e-09
1.29322e-08
-3.82678e-09
-1.33468e-08
2.59949e-09
1.18277e-08
-2.21039e-09
-1.22168e-08
5.93233e-09
1.8286e-07
-1.77531e-07
-1.12609e-08
1.8875e-08
-2.5364e-08
-1.95803e-08
2.60693e-08
1.65805e-08
8.93819e-08
-1.4181e-08
-9.17813e-08
4.03886e-09
1.42999e-07
-1.75247e-10
-1.46863e-07
-1.22676e-08
1.43872e-07
1.60509e-08
-1.47655e-07
-2.60183e-08
1.31911e-07
2.93271e-08
-1.35219e-07
-3.99691e-08
1.31382e-07
4.3543e-08
-1.34955e-07
-5.41299e-08
1.1933e-07
5.78775e-08
-1.23078e-07
-6.89163e-08
7.34523e-08
7.13914e-08
-7.59274e-08
-7.82702e-08
-6.56917e-09
7.86606e-08
6.17872e-09
-7.71035e-08
-9.24721e-08
7.5083e-08
9.44927e-08
-6.50746e-08
-1.64468e-07
6.0128e-08
1.69415e-07
-4.05981e-08
-1.90038e-07
3.40504e-08
1.96585e-07
-1.59548e-08
-1.59076e-07
1.08577e-08
1.64173e-07
1.69888e-09
-1.11616e-07
-4.85355e-09
1.14771e-07
1.18746e-08
-6.94609e-08
-1.34447e-08
7.1031e-08
1.69211e-08
-4.08075e-08
-1.78084e-08
4.16948e-08
2.00999e-08
-2.15683e-08
-2.0715e-08
2.21834e-08
2.20747e-08
-6.56446e-09
-2.23262e-08
6.81603e-09
2.24826e-08
4.96996e-09
-2.2347e-08
-5.10557e-09
2.14733e-08
1.2762e-08
-2.10673e-08
-1.3168e-08
1.95847e-08
1.72512e-08
-1.90435e-08
-1.77924e-08
1.72979e-08
1.93288e-08
-1.67098e-08
-1.99169e-08
1.49054e-08
1.98223e-08
-1.43187e-08
-2.0409e-08
1.25599e-08
1.93624e-08
-1.19984e-08
-1.99238e-08
1.0337e-08
1.83651e-08
-9.81203e-09
-1.88901e-08
8.26877e-09
1.71377e-08
-7.7836e-09
-1.76228e-08
6.36195e-09
1.58413e-08
-5.91518e-09
-1.62881e-08
4.60271e-09
1.45944e-08
-4.18748e-09
-1.50096e-08
2.95795e-09
1.33914e-08
-2.5659e-09
-1.37835e-08
6.3237e-09
2.04771e-07
-1.99201e-07
-1.18935e-08
1.96075e-08
-2.81048e-08
-2.02523e-08
2.87495e-08
1.72291e-08
9.90701e-08
-1.4768e-08
-1.01531e-07
4.40571e-09
1.58565e-07
-4.66462e-10
-1.62504e-07
-1.23021e-08
1.59075e-07
1.61351e-08
-1.62908e-07
-2.58391e-08
1.45098e-07
2.91146e-08
-1.48373e-07
-3.98472e-08
1.45762e-07
4.34802e-08
-1.49395e-07
-5.41544e-08
1.34649e-07
5.8126e-08
-1.38621e-07
-7.00932e-08
8.33762e-08
7.25671e-08
-8.58502e-08
-8.08463e-08
-5.02448e-09
8.11959e-08
4.67489e-09
-8.03301e-08
-1.00351e-07
7.84712e-08
1.0221e-07
-6.87409e-08
-1.84717e-07
6.34508e-08
1.90007e-07
-4.14599e-08
-2.17331e-07
3.41445e-08
2.24646e-07
-1.42982e-08
-1.8008e-07
8.77848e-09
1.856e-07
4.56144e-09
-1.24413e-07
-7.83901e-09
1.27691e-07
1.47949e-08
-7.55156e-08
-1.61956e-08
7.69164e-08
1.9129e-08
-4.42139e-08
-1.99138e-08
4.49987e-08
2.21705e-08
-2.40912e-08
-2.28353e-08
2.4756e-08
2.43756e-08
-7.62093e-09
-2.4667e-08
7.91233e-09
2.48223e-08
5.57154e-09
-2.4646e-08
-5.74787e-09
2.35596e-08
1.45112e-08
-2.3066e-08
-1.50048e-08
2.12967e-08
1.9551e-08
-2.06613e-08
-2.01865e-08
1.8645e-08
2.18021e-08
-1.79739e-08
-2.24732e-08
1.59364e-08
2.227e-08
-1.52806e-08
-2.29258e-08
1.33341e-08
2.16868e-08
-1.27189e-08
-2.23019e-08
1.09183e-08
2.05193e-08
-1.03561e-08
-2.10816e-08
8.72607e-09
1.91064e-08
-8.22174e-09
-1.96107e-08
6.77154e-09
1.76302e-08
-6.32546e-09
-1.80763e-08
5.04367e-09
1.62373e-08
-4.64632e-09
-1.66347e-08
3.48057e-09
1.49427e-08
-3.10765e-09
-1.53156e-08
6.78122e-09
2.27701e-07
-2.21869e-07
-1.26131e-08
2.04283e-08
-3.05492e-08
-2.09739e-08
3.10949e-08
1.79466e-08
1.09018e-07
-1.54153e-08
-1.11549e-07
4.81236e-09
1.74445e-07
-7.90856e-10
-1.78466e-07
-1.23647e-08
1.74504e-07
1.62666e-08
-1.78406e-07
-2.56181e-08
1.58145e-07
2.88559e-08
-1.61383e-07
-3.97029e-08
1.60401e-07
4.3411e-08
-1.6411e-07
-5.41037e-08
1.50898e-07
5.83191e-08
-1.55113e-07
-7.13244e-08
9.31581e-08
7.36962e-08
-9.55299e-08
-8.38068e-08
-3.917e-09
8.38977e-08
3.82607e-09
-8.39421e-08
-1.07388e-07
8.23551e-08
1.08975e-07
-7.34684e-08
-2.06749e-07
6.74877e-08
2.1273e-07
-4.23824e-08
-2.47942e-07
3.41349e-08
2.56189e-07
-1.22853e-08
-2.02867e-07
6.282e-09
2.0887e-07
7.93734e-09
-1.37737e-07
-1.13646e-08
1.41164e-07
1.82051e-08
-8.07338e-08
-1.93174e-08
8.1846e-08
2.13854e-08
-4.71548e-08
-2.20289e-08
4.77983e-08
2.43079e-08
-2.68812e-08
-2.50736e-08
2.76469e-08
2.69576e-08
-8.88979e-09
-2.7328e-08
9.26023e-09
2.7527e-08
6.34694e-09
-2.73015e-08
-6.5724e-09
2.59378e-08
1.66465e-08
-2.53303e-08
-1.72539e-08
2.32022e-08
2.22551e-08
-2.24533e-08
-2.30041e-08
2.01124e-08
2.46269e-08
-1.93449e-08
-2.53944e-08
1.70415e-08
2.50073e-08
-1.63078e-08
-2.57411e-08
1.41474e-08
2.42375e-08
-1.34704e-08
-2.49145e-08
1.1506e-08
2.2833e-08
-1.08986e-08
-2.34405e-08
9.15785e-09
2.11592e-08
-8.62701e-09
-2.169e-08
7.13197e-09
1.94091e-08
-6.68523e-09
-1.98558e-08
5.45192e-09
1.77706e-08
-5.08676e-09
-1.81358e-08
4.05147e-09
1.63626e-08
-3.72394e-09
-1.66902e-08
7.31693e-09
2.51728e-07
-2.45613e-07
-1.34311e-08
2.13365e-08
-3.25256e-08
-2.17339e-08
3.2923e-08
1.87344e-08
1.19259e-07
-1.61236e-08
-1.2187e-07
5.26007e-09
1.90661e-07
-1.15046e-09
-1.94771e-07
-1.24646e-08
1.90249e-07
1.64654e-08
-1.9425e-07
-2.53432e-08
1.71038e-07
2.85417e-08
-1.74236e-07
-3.95342e-08
1.75378e-07
4.33454e-08
-1.79189e-07
-5.39433e-08
1.68147e-07
5.843e-08
-1.72634e-07
-7.25736e-08
1.02312e-07
7.46736e-08
-1.04412e-07
-8.72692e-08
-4.43331e-09
8.66414e-08
5.06115e-09
-8.81614e-08
-1.13576e-07
8.65485e-08
1.15189e-07
-7.95745e-08
-2.32379e-07
7.23724e-08
2.39581e-07
-4.32166e-08
-2.825e-07
3.39052e-08
2.91812e-07
-9.84686e-09
-2.27674e-07
3.30178e-09
2.34219e-07
1.19048e-08
-1.51724e-07
-1.55328e-08
1.55352e-07
2.2244e-08
-8.45277e-08
-2.28669e-08
8.51505e-08
2.35545e-08
-4.94607e-08
-2.40075e-08
4.99137e-08
2.64337e-08
-3.01913e-08
-2.73868e-08
3.11444e-08
2.98783e-08
-1.05598e-08
-3.03907e-08
1.10723e-08
3.06979e-08
7.34142e-09
-3.04053e-08
-7.63409e-09
2.86518e-08
1.92922e-08
-2.789e-08
-2.00541e-08
2.52988e-08
2.54519e-08
-2.441e-08
-2.63406e-08
2.16884e-08
2.78587e-08
-2.08102e-08
-2.8737e-08
1.82047e-08
2.80723e-08
-1.73819e-08
-2.88951e-08
1.4977e-08
2.70501e-08
-1.42282e-08
-2.7799e-08
1.20677e-08
2.53444e-08
-1.14032e-08
-2.60088e-08
9.50707e-09
2.33455e-08
-8.92968e-09
-2.39229e-08
7.28931e-09
2.12554e-08
-6.78724e-09
-2.17575e-08
5.32575e-09
1.93115e-08
-4.8608e-09
-1.97765e-08
3.46877e-09
1.7743e-08
-3.02888e-09
-1.81829e-08
7.94365e-09
2.76927e-07
-2.70513e-07
-1.43584e-08
2.23275e-08
-3.38367e-08
-2.25313e-08
3.40404e-08
1.95946e-08
1.29835e-07
-1.68933e-08
-1.32536e-07
5.75026e-09
2.07238e-07
-1.54792e-09
-2.11441e-07
-1.26137e-08
2.06453e-07
1.67596e-08
-2.10598e-07
-2.49973e-08
1.83776e-07
2.81601e-08
-1.86939e-07
-3.93389e-08
1.9083e-07
4.33012e-08
-1.94793e-07
-5.35579e-08
1.86742e-07
5.86087e-08
-1.91793e-07
-7.4143e-08
1.09747e-07
7.52742e-08
-1.10879e-07
-9.13872e-08
-8.99208e-09
8.91624e-08
1.12169e-08
-9.30713e-08
-1.20707e-07
9.1047e-08
1.22732e-07
-8.74823e-08
-2.63267e-07
7.88282e-08
2.71921e-07
-4.37187e-08
-3.21414e-07
3.33282e-08
3.31804e-07
-6.82662e-09
-2.54698e-07
-2.53728e-10
2.61778e-07
1.65427e-08
-1.66638e-07
-2.04655e-08
1.70561e-07
2.71642e-08
-8.59513e-08
-2.70037e-08
8.57907e-08
2.54126e-08
-5.09121e-08
-2.56128e-08
5.11122e-08
2.84331e-08
-3.44405e-08
-2.97133e-08
3.57207e-08
3.32319e-08
-1.29362e-08
-3.39892e-08
1.36935e-08
3.44954e-08
8.65576e-09
-3.40952e-08
-9.05596e-09
3.1748e-08
2.26427e-08
-3.07674e-08
-2.36234e-08
2.75708e-08
2.9252e-08
-2.65122e-08
-3.03106e-08
2.33499e-08
3.1554e-08
-2.23477e-08
-3.25561e-08
1.94073e-08
3.15087e-08
-1.8486e-08
-3.243e-08
1.58054e-08
3.01665e-08
-1.49734e-08
-3.09984e-08
1.25802e-08
2.81021e-08
-1.18467e-08
-2.88356e-08
9.76223e-09
2.57396e-08
-9.13016e-09
-2.63717e-08
7.33247e-09
2.33785e-08
-6.77571e-09
-2.39353e-08
5.0939e-09
2.14364e-08
-4.52677e-09
-2.20036e-08
2.68647e-09
1.99238e-08
-2.05194e-09
-2.05584e-08
8.68021e-09
3.03378e-07
-2.96644e-07
-1.54142e-08
2.3399e-08
-3.43233e-08
-2.33794e-08
3.43037e-08
2.05317e-08
1.40791e-07
-1.77268e-08
-1.43596e-07
6.2851e-09
2.24191e-07
-1.98691e-09
-2.28489e-07
-1.28284e-08
2.23333e-07
1.71897e-08
-2.27694e-07
-2.45596e-08
1.96387e-07
2.76997e-08
-1.99527e-07
-3.91193e-08
2.06994e-07
4.33114e-08
-2.11186e-07
-5.28129e-08
2.08791e-07
5.91481e-08
-2.15127e-07
-7.85905e-08
1.08706e-07
7.46771e-08
-1.04792e-07
-9.53071e-08
-2.13703e-08
9.08922e-08
2.57851e-08
-9.81404e-08
-1.28577e-07
9.65631e-08
1.30155e-07
-9.97739e-08
-3.01664e-07
8.79714e-08
3.13466e-07
-4.39173e-08
-3.64663e-07
3.25319e-08
3.76048e-07
-2.97282e-09
-2.83789e-07
-4.44378e-09
2.91205e-07
2.18757e-08
-1.82958e-07
-2.62419e-08
1.87324e-07
3.34522e-08
-8.35263e-08
-3.1926e-08
8.20001e-08
2.64103e-08
-5.13355e-08
-2.64016e-08
5.13268e-08
3.01505e-08
-4.02914e-08
-3.19702e-08
4.21111e-08
3.71706e-08
-1.65244e-08
-3.8349e-08
1.77027e-08
3.91923e-08
1.05133e-08
-3.85931e-08
-1.11125e-08
3.52626e-08
2.70082e-08
-3.39601e-08
-2.83106e-08
2.9973e-08
3.37781e-08
-2.87143e-08
-3.50368e-08
2.5064e-08
3.57592e-08
-2.39299e-08
-3.68932e-08
2.06346e-08
3.53509e-08
-1.96075e-08
-3.63779e-08
1.66224e-08
3.36329e-08
-1.56953e-08
-3.456e-08
1.30249e-08
3.11571e-08
-1.22061e-08
-3.19758e-08
9.89237e-09
2.83459e-08
-9.20195e-09
-2.90363e-08
7.32727e-09
2.55536e-08
-6.79763e-09
-2.60833e-08
5.47927e-09
2.33156e-08
-5.15643e-09
-2.36384e-08
4.47895e-09
2.17902e-08
-4.28426e-09
-2.19849e-08
9.55012e-09
3.31166e-07
-3.24087e-07
-1.66285e-08
2.45416e-08
-3.38882e-08
-2.42811e-08
3.36277e-08
2.15434e-08
1.52183e-07
-1.86198e-08
-1.55107e-07
6.86451e-09
2.41525e-07
-2.47134e-09
-2.45918e-07
-1.31256e-08
2.41212e-07
1.78023e-08
-2.45889e-07
-2.39898e-08
2.08942e-07
2.71353e-08
-2.12087e-07
-3.88631e-08
2.24239e-07
4.34059e-08
-2.28782e-07
-5.22619e-08
2.34373e-07
5.79453e-08
-2.40057e-07
-8.34601e-08
8.3243e-08
7.61675e-08
-7.59504e-08
-9.4046e-08
-3.89351e-08
9.09195e-08
4.20616e-08
-1.02059e-07
-1.29795e-07
1.05974e-07
1.25879e-07
-1.118e-07
-3.54155e-07
9.76818e-08
3.68273e-07
-4.52023e-08
-4.1195e-07
3.26409e-08
4.24512e-07
1.66172e-09
-3.14113e-07
-9.2457e-09
3.21697e-07
2.7804e-08
-2.01292e-07
-3.2736e-08
2.06224e-07
4.17191e-08
-7.36796e-08
-3.65442e-08
6.85047e-08
2.53053e-08
-5.14772e-08
-2.56004e-08
5.17723e-08
3.13715e-08
-4.87115e-08
-3.40193e-08
5.13592e-08
4.19212e-08
-2.22219e-08
-4.38467e-08
2.41475e-08
4.52403e-08
1.34335e-08
-4.42248e-08
-1.4449e-08
3.91548e-08
3.28786e-08
-3.73736e-08
-3.46598e-08
3.23918e-08
3.91361e-08
-3.0917e-08
-4.06109e-08
2.6777e-08
4.04911e-08
-2.55144e-08
-4.17537e-08
2.18699e-08
3.962e-08
-2.07358e-08
-4.07541e-08
1.7428e-08
3.74975e-08
-1.63945e-08
-3.85311e-08
1.33903e-08
3.45913e-08
-1.24588e-08
-3.55228e-08
9.78994e-09
3.12613e-08
-8.98075e-09
-3.20705e-08
6.74015e-09
2.7807e-08
-6.08719e-09
-2.84599e-08
4.30381e-09
2.48335e-08
-3.75789e-09
-2.53794e-08
2.16786e-09
2.27385e-08
-1.88139e-09
-2.3025e-08
1.05679e-08
3.60405e-07
-3.52951e-07
-1.80219e-08
2.57519e-08
-3.24681e-08
-2.52361e-08
3.19523e-08
2.2632e-08
1.64076e-07
-1.95717e-08
-1.67136e-07
7.48931e-09
2.59235e-07
-3.00629e-09
-2.63718e-07
-1.35325e-08
2.6055e-07
1.86637e-08
-2.65681e-07
-2.32397e-08
2.2159e-07
2.64433e-08
-2.24793e-07
-3.85651e-08
2.43153e-07
4.36552e-08
-2.48243e-07
-5.14128e-08
2.52879e-07
5.45638e-08
-2.5603e-07
-7.14412e-08
7.51868e-08
8.15113e-08
-8.52569e-08
-8.48195e-08
-4.44147e-08
8.61058e-08
4.31284e-08
-1.01607e-07
-9.42292e-08
1.1961e-07
7.62258e-08
-1.23059e-07
-4.13282e-07
1.0393e-07
4.32412e-07
-4.59985e-08
-4.61654e-07
3.03532e-08
4.77299e-07
5.9392e-09
-3.44989e-07
-1.37856e-08
3.52835e-07
3.42149e-08
-2.21732e-07
-3.94066e-08
2.26924e-07
3.91689e-08
-3.92189e-08
-2.53239e-08
2.53738e-08
2.06638e-08
-5.45834e-08
-2.25913e-08
5.65109e-08
3.18535e-08
-6.09393e-08
-3.56637e-08
6.47495e-08
4.78158e-08
-3.16703e-08
-5.10413e-08
3.48958e-08
5.32016e-08
1.86411e-08
-5.12771e-08
-2.05656e-08
4.31406e-08
4.09486e-08
-4.06948e-08
-4.33943e-08
3.46299e-08
4.5337e-08
-3.29671e-08
-4.69998e-08
2.843e-08
4.57095e-08
-2.70629e-08
-4.70767e-08
2.31155e-08
4.43097e-08
-2.18817e-08
-4.55434e-08
1.82547e-08
4.1799e-08
-1.71095e-08
-4.29443e-08
1.37315e-08
3.85177e-08
-1.26636e-08
-3.95855e-08
9.51479e-09
3.47597e-08
-8.52123e-09
-3.57533e-08
5.61137e-09
3.07379e-08
-4.70645e-09
-3.16429e-08
2.14465e-09
2.7156e-08
-1.38067e-09
-2.79199e-08
-7.9955e-10
2.52716e-08
1.62302e-09
-2.60951e-08
1.176e-08
3.91258e-07
-3.83384e-07
-1.96338e-08
2.70323e-08
-3.00019e-08
-2.62439e-08
2.92134e-08
2.38051e-08
1.76549e-07
-2.05858e-08
-1.79768e-07
8.16162e-09
2.77292e-07
-3.59844e-09
-2.81855e-07
-1.40916e-08
2.81979e-07
1.9873e-08
-2.8776e-07
-2.22494e-08
2.3459e-07
2.55992e-08
-2.3794e-07
-3.82242e-08
2.64697e-07
4.41873e-08
-2.7066e-07
-4.94954e-08
2.65562e-07
5.37256e-08
-2.69792e-07
-6.6178e-08
1.41851e-07
8.85132e-08
-1.64186e-07
-7.18603e-08
-3.68308e-08
7.42421e-08
3.4449e-08
-9.35136e-08
2.64359e-09
1.26507e-07
-3.56365e-08
-1.40633e-07
-5.08623e-07
1.0861e-07
5.40646e-07
-3.45814e-08
-5.14662e-07
2.35979e-08
5.25646e-07
1.05242e-08
-3.75938e-07
-1.80547e-08
3.83469e-07
4.06768e-08
-2.41745e-07
-4.51019e-08
2.4617e-07
1.60994e-08
1.88539e-08
-2.70316e-09
-3.22501e-08
1.43384e-08
-6.62373e-08
-1.86241e-08
7.0523e-08
3.13587e-08
-7.83091e-08
-3.66382e-08
8.35886e-08
5.47448e-08
-4.72899e-08
-5.98765e-08
5.24216e-08
6.21341e-08
2.88088e-08
-5.83049e-08
-3.2638e-08
4.61961e-08
5.17574e-08
-4.31853e-08
-5.47682e-08
3.64355e-08
5.21471e-08
-3.47036e-08
-5.3879e-08
3.00001e-08
5.12863e-08
-2.85718e-08
-5.27146e-08
2.44034e-08
4.93764e-08
-2.3086e-08
-5.06938e-08
1.9169e-08
4.65435e-08
-1.79172e-08
-4.77952e-08
1.41741e-08
4.29967e-08
-1.29715e-08
-4.41993e-08
9.34904e-09
3.90232e-08
-8.17391e-09
-4.01983e-08
4.58671e-09
3.48337e-08
-3.40588e-09
-3.60145e-08
-2.12597e-10
3.10316e-08
1.38428e-09
-3.22033e-08
-4.70199e-09
2.85661e-08
5.62655e-09
-2.94906e-08
1.31604e-08
4.2391e-07
-4.15567e-07
-2.15035e-08
2.83747e-08
-2.64136e-08
-2.72915e-08
2.53305e-08
2.50615e-08
1.89695e-07
-2.16577e-08
-1.93099e-07
8.87985e-09
2.95646e-07
-4.25414e-09
-3.00272e-07
-1.4861e-08
3.06397e-07
2.15745e-08
-3.13111e-07
-2.09283e-08
2.48361e-07
2.45604e-08
-2.51993e-07
-3.78618e-08
2.90369e-07
4.50864e-08
-2.97594e-07
-4.68865e-08
2.8676e-07
5.23483e-08
-2.92222e-07
-9.14892e-08
2.14444e-07
9.90809e-08
-2.22035e-07
-5.1071e-08
-2.62216e-08
5.3856e-08
2.34366e-08
-9.36782e-08
1.51256e-07
1.17996e-07
-1.75574e-07
-6.90871e-08
-6.45763e-07
7.61432e-08
6.38707e-07
-9.79761e-09
-5.72088e-07
1.54822e-09
5.80337e-07
1.76189e-08
-4.06058e-07
-2.55726e-08
4.14012e-07
4.7078e-08
-2.57431e-07
-4.99264e-08
2.60279e-07
1.29966e-08
4.66652e-08
-1.72707e-08
-4.23912e-08
1.44228e-08
-8.25273e-08
-1.69398e-08
8.50442e-08
2.95266e-08
-1.01768e-07
-3.63308e-08
1.08572e-07