/*--------------------------------*- C++ -*----------------------------------*\
| =========                 |                                                 |
| \\      /  F ield         | OpenFOAM: The Open Source CFD Toolbox           |
|  \\    /   O peration     | Version:  2.4.0                                 |
|   \\  /    A nd           | Web:      www.OpenFOAM.org                      |
|    \\/     M anipulation  |                                                 |
\*---------------------------------------------------------------------------*/
FoamFile
{
    version     2.0;
    format      ascii;
    class       volScalarField;
    location    "0.202";
    object      p;
}
// * * * * * * * * * * * * * * * * * * * * * * * * * * * * * * * * * * * * * //

dimensions      [1 -1 -2 0 0 0 0];

internalField   nonuniform List<scalar> 
10000
(
-0.00297815
-0.00297621
-0.00296997
-0.00295918
-0.00294425
-0.00292551
-0.00290316
-0.00287732
-0.0028481
-0.00281558
-0.00277986
-0.002741
-0.00269908
-0.00265417
-0.00260632
-0.00255561
-0.00250209
-0.00244585
-0.00238698
-0.00232556
-0.00226166
-0.00219539
-0.00212682
-0.00205601
-0.00198308
-0.00190805
-0.00183103
-0.00175213
-0.00167152
-0.00158943
-0.00150624
-0.00142238
-0.0013384
-0.00125486
-0.00117229
-0.00109117
-0.00101194
-0.000934979
-0.000860666
-0.000789331
-0.000721269
-0.00065672
-0.000595863
-0.000538803
-0.000485585
-0.000436197
-0.000390573
-0.000348595
-0.0003101
-0.000274885
-0.00298007
-0.00297812
-0.00297208
-0.00296164
-0.00294712
-0.0029288
-0.00290682
-0.00288132
-0.00285239
-0.00282012
-0.00278462
-0.00274594
-0.00270417
-0.00265937
-0.00261158
-0.00256087
-0.0025073
-0.00245094
-0.00239187
-0.00233016
-0.00226591
-0.00219919
-0.0021301
-0.00205874
-0.00198518
-0.00190954
-0.00183194
-0.0017525
-0.00167143
-0.00158896
-0.00150546
-0.00142134
-0.00133711
-0.00125329
-0.00117039
-0.00108887
-0.00100914
-0.000931614
-0.000856651
-0.000784594
-0.000715749
-0.000650364
-0.000588626
-0.000530659
-0.000476528
-0.000426244
-0.000379765
-0.000336995
-0.000297785
-0.000261952
-0.00298629
-0.00298409
-0.00297803
-0.00296776
-0.00295351
-0.00293548
-0.00291379
-0.00288856
-0.00285988
-0.00282784
-0.00279253
-0.00275402
-0.00271237
-0.00266765
-0.00261989
-0.00256915
-0.00251548
-0.00245895
-0.00239961
-0.00233755
-0.00227285
-0.00220559
-0.00213589
-0.00206384
-0.00198956
-0.00191316
-0.00183479
-0.0017546
-0.00167279
-0.00158962
-0.00150543
-0.00142062
-0.0013357
-0.00125119
-0.00116756
-0.00108527
-0.00100472
-0.000926327
-0.00085046
-0.000777477
-0.000707693
-0.000641369
-0.000578703
-0.000519831
-0.000464834
-0.000413739
-0.000366518
-0.000323084
-0.000283297
-0.000246987
-0.00299708
-0.00299448
-0.00298821
-0.00297792
-0.00296377
-0.00294589
-0.00292438
-0.00289933
-0.00287084
-0.00283897
-0.00280381
-0.00276542
-0.00272388
-0.00267921
-0.00263147
-0.00258069
-0.00252691
-0.00247017
-0.00241054
-0.00234809
-0.00228289
-0.00221506
-0.00214469
-0.0020719
-0.0019968
-0.00191952
-0.00184024
-0.0017591
-0.0016763
-0.0015921
-0.0015068
-0.00142084
-0.00133476
-0.00124911
-0.00116435
-0.00108093
-0.000999249
-0.000919725
-0.000842755
-0.000768712
-0.000697927
-0.00063067
-0.000567144
-0.000507494
-0.000451809
-0.000400118
-0.000352389
-0.000308535
-0.000268415
-0.000231858
-0.00301202
-0.00300897
-0.0030024
-0.002992
-0.00297784
-0.00296002
-0.00293862
-0.0029137
-0.00288533
-0.0028536
-0.00281857
-0.0027803
-0.00273885
-0.00269426
-0.00264654
-0.00259573
-0.00254184
-0.0024849
-0.00242497
-0.00236211
-0.0022964
-0.00222795
-0.00215685
-0.00208323
-0.00200722
-0.00192896
-0.00184861
-0.00176635
-0.00168235
-0.00159681
-0.00151003
-0.00142249
-0.00133483
-0.00124766
-0.00116146
-0.00107663
-0.000993581
-0.000912748
-0.000834553
-0.000759393
-0.000687612
-0.000619487
-0.000555225
-0.000494971
-0.00043881
-0.000386762
-0.000338776
-0.000294745
-0.000254523
-0.000217933
-0.00303082
-0.00302732
-0.00302043
-0.00300987
-0.00299566
-0.00297786
-0.00295651
-0.00293168
-0.00290343
-0.00287182
-0.00283692
-0.00279878
-0.00275746
-0.00271296
-0.00266531
-0.00261451
-0.00256055
-0.00250346
-0.00244325
-0.00237999
-0.00231375
-0.00224465
-0.00217277
-0.00209826
-0.00202125
-0.00194191
-0.0018604
-0.00177688
-0.00169152
-0.00160441
-0.00151581
-0.00142625
-0.00133661
-0.00124763
-0.00115977
-0.00107336
-0.000988809
-0.000906579
-0.000827128
-0.000750879
-0.000678191
-0.000609345
-0.000544548
-0.000483933
-0.000427566
-0.000375438
-0.000327466
-0.000283511
-0.00024341
-0.000206976
-0.00305325
-0.00304937
-0.00304219
-0.00303146
-0.00301718
-0.00299937
-0.00297806
-0.00295331
-0.00292516
-0.00289368
-0.00285893
-0.00282097
-0.00277982
-0.0027355
-0.00268799
-0.00263729
-0.00258336
-0.00252619
-0.00246577
-0.00240214
-0.00233539
-0.00226562
-0.00219294
-0.00211749
-0.00203943
-0.00195893
-0.00187619
-0.00179136
-0.00170456
-0.00161576
-0.001525
-0.00143291
-0.00134084
-0.00124983
-0.00116024
-0.00107219
-0.000986096
-0.000902461
-0.000821796
-0.00074456
-0.000671129
-0.000601788
-0.000536727
-0.000476052
-0.000419786
-0.000367872
-0.000320183
-0.00027654
-0.000236748
-0.000200603
-0.00307921
-0.00307503
-0.0030676
-0.00305673
-0.00304239
-0.00302457
-0.00300329
-0.00297861
-0.00295058
-0.00291926
-0.00288472
-0.00284699
-0.0028061
-0.00276206
-0.00271484
-0.00266439
-0.00261064
-0.00255353
-0.002493
-0.00242905
-0.00236181
-0.00229139
-0.0022179
-0.00214148
-0.00206231
-0.00198062
-0.00189664
-0.00181053
-0.00172245
-0.00163198
-0.00153869
-0.00144326
-0.00134818
-0.00125502
-0.0011638
-0.00107416
-0.000986532
-0.000901514
-0.000819703
-0.000741613
-0.000667641
-0.000598061
-0.000533028
-0.000472592
-0.000416712
-0.000365266
-0.000318068
-0.000274891
-0.000235496
-0.000199648
-0.00310863
-0.00310423
-0.00309662
-0.00308566
-0.00307128
-0.00305346
-0.00303223
-0.00300765
-0.00297976
-0.00294865
-0.00291437
-0.00287696
-0.00283646
-0.00279286
-0.00274611
-0.00269614
-0.0026428
-0.00258594
-0.00252543
-0.00246125
-0.00239355
-0.00232252
-0.00224824
-0.0021708
-0.00209045
-0.00200754
-0.00192238
-0.00183523
-0.00174632
-0.00165459
-0.00155844
-0.00145821
-0.00135916
-0.00126388
-0.00117142
-0.00108025
-0.000991012
-0.000904557
-0.000821611
-0.000742759
-0.000668413
-0.000598809
-0.000534036
-0.000474061
-0.000418755
-0.000367911
-0.000321272
-0.000278552
-0.000239467
-0.000203749
-0.00314149
-0.00313697
-0.00312927
-0.00311826
-0.00310387
-0.00308608
-0.00306492
-0.00304046
-0.00301276
-0.00298191
-0.00294797
-0.00291101
-0.00287106
-0.00282811
-0.00278211
-0.00273291
-0.00268028
-0.00262396
-0.00256366
-0.0024993
-0.00243118
-0.0023596
-0.00228455
-0.00220606
-0.00212448
-0.00204032
-0.00195409
-0.00186628
-0.00177752
-0.00168522
-0.00158589
-0.00147805
-0.00137342
-0.00127659
-0.00118404
-0.00109145
-0.0010003
-0.000912057
-0.000827745
-0.000748048
-0.000673354
-0.00060381
-0.00053939
-0.000479943
-0.000425219
-0.000374912
-0.000328681
-0.000286183
-0.000247099
-0.000211143
-0.00317783
-0.00317329
-0.00316558
-0.00315457
-0.00314021
-0.00312248
-0.00310142
-0.00307712
-0.00304965
-0.00301911
-0.00298561
-0.00294922
-0.00291002
-0.00286799
-0.00282307
-0.00277505
-0.00272358
-0.00266819
-0.00260834
-0.00254384
-0.00247526
-0.0024033
-0.00232761
-0.00224802
-0.00216504
-0.00207946
-0.00199192
-0.00190338
-0.00181668
-0.00172519
-0.00162075
-0.00150018
-0.00138716
-0.00129078
-0.0012016
-0.00110847
-0.00101492
-0.000924126
-0.00083779
-0.000756778
-0.000681462
-0.00061183
-0.000547647
-0.000488569
-0.000434195
-0.000384102
-0.000337877
-0.000295133
-0.000255529
-0.000218781
-0.00321771
-0.00321324
-0.0032056
-0.00319466
-0.00318037
-0.00316273
-0.0031418
-0.00311767
-0.00309046
-0.0030603
-0.00302733
-0.00299167
-0.00295343
-0.00291265
-0.00286922
-0.0028229
-0.0027732
-0.00271939
-0.00266036
-0.00259562
-0.00252644
-0.00245444
-0.00237837
-0.00229741
-0.00221235
-0.00212469
-0.00203527
-0.00194526
-0.00186113
-0.00177631
-0.00166067
-0.00151337
-0.00138971
-0.00130323
-0.00122634
-0.00113238
-0.00103437
-0.000939766
-0.000850555
-0.000767502
-0.000690932
-0.000620706
-0.000556341
-0.000497213
-0.000442702
-0.000392258
-0.000345417
-0.000301776
-0.000260996
-0.000222809
-0.0032612
-0.00325691
-0.00324942
-0.00323861
-0.00322444
-0.00320692
-0.00318613
-0.0031622
-0.00313528
-0.00310553
-0.00307316
-0.00303837
-0.00300131
-0.00296209
-0.00292066
-0.00287674
-0.00282974
-0.00277858
-0.00272104
-0.00265563
-0.00258517
-0.00251375
-0.0024377
-0.00235459
-0.00226594
-0.00217477
-0.00208168
-0.00199306
-0.00190632
-0.00176986
-0.00170321
-0.00150579
-0.00136229
-0.0013065
-0.00125734
-0.0011589
-0.00105424
-0.000955347
-0.000862854
-0.000777364
-0.000699097
-0.000627654
-0.000562372
-0.000502469
-0.00044712
-0.000395611
-0.000347424
-0.000302186
-0.000259591
-0.000219418
-0.00330843
-0.00330442
-0.00329716
-0.00328653
-0.00327251
-0.00325514
-0.00323452
-0.00321079
-0.00318415
-0.00315484
-0.00312311
-0.00308926
-0.00305355
-0.00301621
-0.0029773
-0.00293671
-0.00289393
-0.00284731
-0.002792
-0.00272423
-0.00265066
-0.00258134
-0.00250649
-0.00242011
-0.00232534
-0.00222795
-0.00212981
-0.00203615
-0.00195224
-0.00188971
-0.00185912
-0.000333592
-0.000333126
-0.00117793
-0.00121289
-0.00115757
-0.00106214
-0.000963956
-0.000869368
-0.000781763
-0.000701972
-0.000629231
-0.000562504
-0.000500966
-0.000443909
-0.000390589
-0.000340404
-0.000293017
-0.00024822
-0.000205863
-0.00335956
-0.00335591
-0.00334896
-0.00333858
-0.00332475
-0.00330754
-0.00328707
-0.00326353
-0.00323715
-0.00320823
-0.0031771
-0.00314418
-0.00310987
-0.00307462
-0.00303882
-0.0030028
-0.00296651
-0.00292739
-0.00287427
-0.00279987
-0.00271978
-0.00265673
-0.00258603
-0.00249558
-0.00239101
-0.00228254
-0.00217377
-0.00206211
-0.00194445
-0.001852
0.000177944
0.00309057
0.00307472
0.000979104
-0.00129318
-0.00115832
-0.00105797
-0.000963804
-0.000867439
-0.000777412
-0.000695857
-0.000621753
-0.000553526
-0.000489971
-0.000430469
-0.000374659
-0.000322081
-0.000272392
-0.000225487
-0.000181314
-0.00341476
-0.00341157
-0.00340502
-0.00339493
-0.00338132
-0.00336428
-0.00334395
-0.00332055
-0.00329435
-0.0032657
-0.00323503
-0.00320284
-0.00316978
-0.00313667
-0.00310444
-0.00307406
-0.00304685
-0.00302053
-0.00296838
-0.00287755
-0.00278594
-0.00273718
-0.00267861
-0.0025813
-0.00245671
-0.00233772
-0.00221632
-0.00208907
-0.00193445
-0.00173618
0.0019578
0.00298923
0.00305893
0.00327356
-0.000991831
-0.00114504
-0.00106498
-0.000960307
-0.000857117
-0.000763076
-0.000678742
-0.00060266
-0.000532829
-0.000467444
-0.000405543
-0.000347019
-0.000292019
-0.000240421
-0.000192125
-0.000147153
-0.0034743
-0.00347165
-0.00346557
-0.00345581
-0.00344244
-0.00342556
-0.00340534
-0.00338201
-0.00335587
-0.00332728
-0.00329673
-0.00326487
-0.00323263
-0.00320132
-0.00317241
-0.00314722
-0.00313008
-0.00312309
-0.00306162
-0.00293813
-0.00279937
-0.00282436
-0.00278407
-0.00266675
-0.00252385
-0.00240162
-0.00227302
-0.00213622
-0.00199245
-0.00181497
-0.00135625
0.00250198
0.00293276
0.00010455
-0.00147069
-0.000988691
-0.0010861
-0.000956108
-0.000839079
-0.00073773
-0.000648737
-0.000570109
-0.000498899
-0.000432351
-0.00036896
-0.000308537
-0.000251716
-0.000199094
-0.000150711
-0.00010654
-0.00353845
-0.00353642
-0.00353086
-0.00352147
-0.00350835
-0.00349163
-0.00347148
-0.00344811
-0.00342183
-0.003393
-0.00336212
-0.00332996
-0.00329771
-0.003267
-0.0032394
-0.00321648
-0.00320554
-0.00321416
-0.00309054
-0.00293543
-0.00207005
-0.00286515
-0.00285433
-0.00274669
-0.00255814
-0.00223773
-0.00233846
-0.00219336
-0.00205458
-0.00191804
-0.00179806
-0.00149934
-0.00141179
-0.00144815
-0.00139018
-0.00121853
-0.00107405
-0.000934663
-0.000804515
-0.00069513
-0.000601823
-0.000521911
-0.00045103
-0.000384941
-0.000321635
-0.000260983
-0.000203857
-0.000151535
-0.000104682
-6.32109e-05
-0.00360752
-0.00360618
-0.00360118
-0.00359218
-0.00357932
-0.00356275
-0.00354262
-0.00351912
-0.00349249
-0.00346306
-0.0034313
-0.00339806
-0.00336451
-0.00333191
-0.00330198
-0.00327632
-0.00326285
-0.00326435
-0.00311227
0.000314661
0.00068083
0.000370148
-0.00278036
-0.00278178
-0.00262968
-0.00244918
-0.00196537
-0.00224165
-0.00211207
-0.00198217
-0.00183868
-0.0016802
-0.0015704
-0.00149383
-0.00138101
-0.00119743
-0.00105925
-0.000895412
-0.0007475
-0.000630707
-0.000534481
-0.000456623
-0.000389978
-0.000326901
-0.000265564
-0.000206512
-0.000151019
-0.000100715
-5.69267e-05
-1.9855e-05
-0.00368187
-0.00368122
-0.00367682
-0.00366823
-0.00365566
-0.00363925
-0.00361911
-0.00359537
-0.00356821
-0.00353785
-0.00350472
-0.00346955
-0.00343301
-0.00339572
-0.00335991
-0.00332845
-0.00330667
-0.0032719
-0.00222915
0.000675791
0.000430353
0.000637589
-0.0027082
-0.00281734
-0.00268156
-0.00251887
-0.00238785
-0.00228216
-0.00216941
-0.00204301
-0.0019146
-0.00176824
-0.001654
-0.00156279
-0.00143321
-0.00117394
-0.00106915
-0.000844236
-0.000663865
-0.000540465
-0.000445498
-0.000376245
-0.000317213
-0.000260817
-0.000203253
-0.000147078
-9.46648e-05
-4.79796e-05
-8.50654e-06
2.313e-05
-0.0037618
-0.00376186
-0.00375805
-0.00374992
-0.00373767
-0.00372143
-0.00370129
-0.00367728
-0.00364946
-0.00361796
-0.00358305
-0.00354503
-0.00350371
-0.00345909
-0.0034128
-0.00336869
-0.00332973
-0.00332819
-0.00348459
-0.00329598
-0.00208189
-0.00314146
-0.00313864
-0.00286291
-0.00270516
-0.00257212
-0.00244674
-0.00233187
-0.00222579
-0.00210406
-0.0019844
-0.00186405
-0.00175318
-0.00166517
-0.00155431
-0.00136254
-0.001073
-0.000759155
-0.000527025
-0.000410411
-0.000328285
-0.000276918
-0.000235775
-0.000189627
-0.000137015
-8.35986e-05
-3.45682e-05
7.70255e-06
4.19222e-05
6.7775e-05
-0.00384763
-0.00384837
-0.00384517
-0.00383751
-0.00382562
-0.00380963
-0.00378952
-0.00376528
-0.00373682
-0.00370413
-0.0036672
-0.00362554
-0.00357786
-0.00352252
-0.00345792
-0.00338277
-0.00329621
-0.00317874
-0.00292928
-0.00199614
-0.00125642
-0.00184274
-0.00257541
-0.00272
-0.00268025
-0.00259149
-0.00248499
-0.00237679
-0.00224563
-0.00212497
-0.00204314
-0.00193764
-0.00182182
-0.00172018
-0.0015984
-0.0014779
-0.00109785
-0.000510822
-0.000190241
-0.000197622
-0.00014137
-0.000136766
-0.000147972
-0.000117227
-7.03068e-05
-1.58654e-05
3.12496e-05
6.94259e-05
9.76913e-05
0.000117408
-0.00393964
-0.00394101
-0.00393841
-0.00393125
-0.00391979
-0.00390411
-0.00388416
-0.00385981
-0.0038309
-0.00379725
-0.00375853
-0.00371358
-0.00366032
-0.00359624
-0.00351848
-0.00342393
-0.0033084
-0.00314419
-0.00287717
-0.00235873
-0.00200261
-0.00209564
-0.00247863
-0.00269106
-0.0027195
-0.00263128
-0.0025277
-0.0024298
-0.00233617
-0.00216249
-0.00210311
-0.00199565
-0.00189827
-0.00175521
-0.00167569
0.00143575
0.00269348
0.00210456
0.00166245
0.00125923
0.000260126
3.47652e-05
-5.48921e-05
-6.47497e-05
-6.69819e-06
5.6835e-05
0.000106038
0.00014153
0.000162971
0.000174777
-0.00403806
-0.00403999
-0.00403796
-0.00403133
-0.00402036
-0.0040051
-0.00398545
-0.00396121
-0.00393212
-0.00389792
-0.00385796
-0.00381058
-0.0037533
-0.00368336
-0.00359813
-0.00349478
-0.00337028
-0.00320938
-0.00304782
-0.00176511
-0.000254908
-0.000410946
-0.00223838
-0.0029233
-0.00282195
-0.00269331
-0.00257673
-0.00247483
-0.00236739
-0.00219009
-0.00157081
-0.00203977
-0.00197463
-0.00182416
-0.00171828
-0.00046127
0.00266073
0.00242172
0.00199851
0.00205299
0.00227433
0.00020487
-0.000159787
-6.03265e-05
4.93761e-05
0.000136723
0.000196045
0.000229454
0.00024174
0.000240931
-0.00414305
-0.00414546
-0.00414395
-0.00413786
-0.00412744
-0.00411271
-0.00409351
-0.0040696
-0.00404066
-0.00400635
-0.00396575
-0.00391686
-0.00385703
-0.00378354
-0.00369424
-0.00358616
-0.00345468
-0.0032796
-0.00191122
0.00265951
0.00319148
0.00307069
0.00191891
-0.00279502
-0.00286444
-0.00274129
-0.00262839
-0.00251879
-0.00241699
-0.00229801
-0.00218427
-0.00202006
-0.00204108
-0.00188152
-0.0017146
-0.00142754
-0.000852942
-0.000459843
0.00023059
0.00157339
0.00300954
0.00356521
-0.000102518
-5.51521e-05
0.000121756
0.00024717
0.00031432
0.000340902
0.000337321
0.000315642
-0.00425468
-0.00425746
-0.00425641
-0.00425085
-0.00424102
-0.00422691
-0.00420833
-0.00418496
-0.00415645
-0.00412238
-0.00408171
-0.00403235
-0.00397187
-0.00389833
-0.0038111
-0.00370991
-0.00358907
-0.00343989
0.000744907
0.00288615
0.0029823
0.00304932
0.00352275
-0.00236047
-0.00286038
-0.00277082
-0.00268334
-0.00232703
-0.00244024
-0.00233177
-0.00218369
-0.00157334
-0.000215606
-0.0019163
-0.00166224
-0.00137736
-0.000920735
-0.000577108
-0.000301048
-2.81366e-05
-0.000586413
0.000718263
2.01714e-05
-1.47647e-05
0.000254607
0.000408427
0.000474043
0.000483021
0.000451671
0.00039719
-0.0043729
-0.00437594
-0.00437527
-0.00437021
-0.004361
-0.00434759
-0.00432973
-0.00430706
-0.00427917
-0.00424561
-0.00420526
-0.00415612
-0.00409602
-0.00402348
-0.00393809
-0.00383919
-0.00371988
-0.0035427
0.000709469
0.00269609
0.00277236
0.00266734
0.00266214
-0.00265267
-0.00284751
-0.00278866
-0.00271875
-0.00262588
-0.00254088
-0.00246231
-0.0023545
-0.0022196
-0.002072
-0.00188687
-0.00165643
-0.00129342
-0.000927605
-0.000609802
-0.000355432
-0.000171054
-0.000177332
1.56719e-05
0.000129018
0.000262202
0.000489778
0.000663203
0.000699808
0.000665765
0.000586451
0.000483019
-0.00449758
-0.00450073
-0.00450035
-0.00449577
-0.00448718
-0.00447449
-0.00445742
-0.00443555
-0.00440841
-0.00437553
-0.00433583
-0.0042875
-0.00422874
-0.00415851
-0.00407643
-0.00398051
-0.00387029
-0.00374241
-0.0028501
0.0021116
0.0028131
0.00187356
-0.00152068
-0.00287885
-0.0028843
-0.00284257
-0.00277787
-0.00270838
-0.00264332
-0.00258473
-0.00252972
-0.00244209
-0.00226653
-0.00201341
-0.00168175
-0.00128912
-0.000938143
-0.000589784
-0.000311838
-8.53766e-05
6.59898e-05
0.000261767
0.000256452
0.000415076
0.000778096
0.000990938
0.000986458
0.000889567
0.000737005
0.000566142
-0.00462846
-0.00463161
-0.00463142
-0.00462725
-0.00461924
-0.00460728
-0.00459102
-0.00456998
-0.00454366
-0.00451154
-0.00447268
-0.00442554
-0.00436878
-0.00430195
-0.00422542
-0.00413913
-0.00404696
-0.00394074
-0.00393031
-0.00358792
-0.00285898
-0.00298952
-0.00301404
-0.00301734
-0.00299263
-0.00292763
-0.00285251
-0.00278826
-0.00272518
-0.00269347
-0.00267145
-0.00266103
-0.00242773
-0.00212496
-0.00172862
-0.0011072
-0.000958451
-0.000571025
-0.000263455
1.86079e-05
0.000221567
0.0011336
0.00317088
0.00305919
0.00140217
0.00152416
0.00133689
0.00113979
0.00089216
0.000633096
-0.00476521
-0.00476822
-0.0047681
-0.00476427
-0.0047568
-0.00474552
-0.00473005
-0.00470984
-0.00468433
-0.00465298
-0.00461496
-0.00456899
-0.00451406
-0.00445
-0.00437695
-0.00429716
-0.00421765
-0.00404295
-0.00396275
-0.00382215
-0.00366603
-0.00345068
-0.00328511
-0.00319537
-0.00310568
-0.00300945
-0.00289154
-0.00279834
-0.0027469
-0.00278566
-0.0028631
-0.00292108
-0.00274021
-0.00235807
-0.00182224
-0.00134741
-0.000930945
-0.000546625
3.49064e-05
0.000166954
0.000451819
0.000792047
0.00156943
0.0026327
0.00339157
0.00325075
0.00169079
0.001385
0.00103762
0.000659798
-0.00490743
-0.00491015
-0.00490999
-0.00490639
-0.00489938
-0.00488872
-0.00487398
-0.00485458
-0.00482986
-0.00479924
-0.00476201
-0.00471711
-0.00466365
-0.00460147
-0.00453094
-0.00445374
-0.00437218
-0.00430016
-0.00386629
-0.00398027
-0.00383515
-0.00365135
-0.00348899
-0.00334705
-0.00321971
-0.00306677
-0.00265939
-0.00246157
-0.00268909
-0.00280048
-0.00165183
0.000508052
-0.00185804
-0.00271195
-0.00184478
-0.00129217
-0.000855927
-0.000462591
-4.99296e-05
0.000354491
0.000774332
0.00118368
0.00172024
0.00233472
0.00219138
0.00407771
0.00284616
0.00165709
0.00115693
0.000612861
-0.00505462
-0.00505692
-0.00505658
-0.00505309
-0.00504644
-0.00503633
-0.00502226
-0.00500362
-0.00497969
-0.00494984
-0.00491346
-0.00486966
-0.00481756
-0.00475685
-0.00468776
-0.00461108
-0.00452524
-0.00441975
-0.0042904
-0.00415723
-0.00401516
-0.00385193
-0.0034627
-0.0034868
-0.0033331
-0.00311195
-0.00267116
-0.00245121
-0.00251558
3.27281e-05
0.00406187
0.00552937
0.00542864
-0.000659853
-0.00158914
-0.00112208
-0.000725328
-0.000339428
5.84907e-05
0.00049349
0.000952369
0.00146139
0.00204706
0.00256388
0.00279479
0.00275245
0.00267427
0.00226882
0.00125217
0.000451533
-0.00520624
-0.00520795
-0.00520728
-0.00520379
-0.00519739
-0.00518773
-0.00517428
-0.00515638
-0.00513327
-0.00510431
-0.00506899
-0.0050266
-0.00497631
-0.00491764
-0.00485059
-0.00477564
-0.00469203
-0.00459117
-0.00445786
-0.00433745
-0.00420519
-0.00404869
-0.00387795
-0.0036855
-0.0034573
-0.00317509
-0.00278457
-0.00224303
-0.00160709
0.0026826
0.00361902
0.00434451
0.00475065
0.00155319
-0.00113385
-0.000867199
-0.000559091
-0.000216485
0.000156998
0.00104855
0.00112338
0.00170827
0.00238671
0.00306803
0.00357304
0.00371446
0.00332843
0.00245013
0.00130271
9.37538e-05
-0.00536166
-0.00536263
-0.00536148
-0.00535784
-0.00535157
-0.00534227
-0.00532938
-0.00531222
-0.00529003
-0.00526218
-0.00522825
-0.00518776
-0.00514002
-0.00508452
-0.00502108
-0.00494952
-0.00487351
-0.00480043
-0.0042821
-0.00451661
-0.00441902
-0.00426775
-0.00410009
-0.00390173
-0.00353213
-0.00332877
-0.00289095
-0.00231519
-0.000896631
0.00233173
0.00313243
0.00358579
0.00355806
0.00192882
-0.000699684
-0.000596816
-0.000423533
-0.000119407
0.000226833
0.00111852
0.00123258
0.00187566
0.00272038
0.00367741
0.00457199
0.00497435
0.00438836
0.00302578
0.00120664
-0.000616494
-0.00552019
-0.00552026
-0.00551846
-0.00551454
-0.00550828
-0.00549925
-0.00548687
-0.00547047
-0.00544934
-0.00542288
-0.00539075
-0.00535273
-0.00530832
-0.00525692
-0.0051982
-0.00513202
-0.00505823
-0.00497202
-0.00486527
-0.00476056
-0.00463583
-0.00444882
-0.0043484
-0.00415599
-0.00391772
-0.0036235
-0.0032386
-0.0027438
-0.000101158
0.00216492
0.00293258
0.00321948
0.00300265
0.00128144
-0.000396896
-0.000458861
-0.000367072
-0.000137318
0.000361559
0.000718807
0.00133503
0.00187412
0.00289606
0.00422944
0.00586624
0.00673218
0.00575962
0.00368142
0.000873952
-0.00194969
-0.00568109
-0.00568008
-0.00567747
-0.00567312
-0.00566675
-0.00565791
-0.00564601
-0.00563043
-0.00561053
-0.00558579
-0.00555595
-0.00552105
-0.00548086
-0.00543488
-0.00538259
-0.00532323
-0.00525497
-0.00517432
-0.00507961
-0.00437714
-0.00488796
-0.00476444
-0.00463139
-0.00446288
-0.00426258
-0.00402006
-0.00372648
-0.00346729
0.000972483
0.00263178
0.00308765
0.00329733
0.00335653
0.000211639
-0.000587436
-0.000491567
-0.000394258
-0.000277096
0.000402548
0.000816513
0.00117552
0.00133773
0.00261265
0.00436302
0.0073392
0.00933281
0.0076569
0.00485025
0.000226729
-0.00433278
-0.00584354
-0.00584128
-0.0058377
-0.00583279
-0.0058262
-0.00581746
-0.00580604
-0.00579136
-0.0057729
-0.00575024
-0.00572324
-0.00569212
-0.00565704
-0.00561771
-0.00557359
-0.00552372
-0.0054666
-0.00540021
-0.00532514
-0.00525437
-0.00515044
-0.00505293
-0.00493859
-0.00480249
-0.00463789
-0.00444201
-0.00420171
-0.00391835
-0.000783496
0.00302991
0.00339331
0.00339994
0.00347952
-0.000789309
-0.0010337
-0.000730781
-0.000605234
0.00118683
0.000600919
0.00108557
0.000254514
0.000683565
0.00171496
0.00342682
0.00849392
0.01355
0.0106015
0.00678711
0.00516514
-0.00776164
-0.00600666
-0.006003
-0.0059983
-0.0059927
-0.00598579
-0.0059771
-0.00596615
-0.00595248
-0.00593567
-0.00591548
-0.0058919
-0.00586527
-0.00583606
-0.00580433
-0.00576966
-0.0057311
-0.00568651
-0.00563618
-0.00558294
-0.00548047
-0.0054491
-0.00536397
-0.00527016
-0.00516502
-0.00504399
-0.00490548
-0.0047486
-0.00449169
-0.00344599
0.00291739
0.00416619
0.00326288
-0.000587685
-0.00200954
-0.00141479
-0.000916341
-0.000204996
0.000914473
0.000386059
6.61153e-05
-0.000258928
0.00128821
0.000111658
-0.00193485
0.010246
0.0211597
0.0162999
0.00795787
-0.00250809
-0.0117413
-0.00616952
-0.00616433
-0.00615838
-0.00615196
-0.00614463
-0.00613594
-0.0061255
-0.00611294
-0.00609803
-0.00608069
-0.00606108
-0.00603965
-0.00601704
-0.00599362
-0.00596913
-0.0059427
-0.00591262
-0.00587863
-0.00583366
-0.0057924
-0.00574031
-0.00568116
-0.00561377
-0.00554238
-0.00547091
-0.00539546
-0.00532177
-0.0053052
-0.00504057
-0.00555052
-0.00228474
-0.00338842
-0.00290992
-0.0021665
-0.00174265
-0.00109407
-0.000449383
0.000733061
5.84767e-05
0.00940962
0.000977933
-0.000230871
-0.00468694
-0.00832018
0.0221351
0.0377724
0.0305679
0.0157799
-0.00203687
-0.0144575
-0.00633116
-0.00632431
-0.00631698
-0.00630965
-0.00630182
-0.0062931
-0.00628319
-0.00627187
-0.00625908
-0.00624493
-0.00622978
-0.00621419
-0.00619888
-0.00618439
-0.00617061
-0.00615676
-0.00614142
-0.00612297
-0.00609856
-0.00607173
-0.00603828
-0.00600459
-0.00596382
-0.00591307
-0.0058702
-0.00582668
-0.00577116
-0.00560077
-0.00435182
-0.00473697
-0.00442367
-0.00405462
-0.00327605
-0.00220061
-0.00100695
-0.000163075
0.00187
0.0137642
0.0200406
0.0125869
0.00204545
0.0030505
-0.00816419
0.00902989
0.0376408
0.0905827
0.273021
0.109278
0.0500351
-0.0499207
-0.00649056
-0.00648196
-0.00647316
-0.00646483
-0.00645644
-0.00644766
-0.00643831
-0.00642833
-0.00641786
-0.00640723
-0.00639696
-0.00638774
-0.0063803
-0.00637525
-0.00637261
-0.00637162
-0.00637097
-0.00636899
-0.00636401
-0.00635454
-0.00634328
-0.00633242
-0.00632112
-0.00605938
-0.00623791
-0.0062318
-0.00621109
-0.0059789
-0.00416944
-0.00525903
-0.00485549
-0.00436864
-0.0038581
-0.00243096
-0.00097927
0.00121361
0.00333073
0.00541563
0.0151946
0.0090994
0.0017536
0.00221463
0.0137134
-0.0217101
-0.0250855
0.239328
0.366871
1.02769
0.392499
0.363487
-0.00664668
-0.00663626
-0.00662592
-0.00661653
-0.00660753
-0.00659867
-0.00658992
-0.00658139
-0.00657343
-0.00656656
-0.00656151
-0.00655905
-0.00655994
-0.00656471
-0.00657347
-0.00658554
-0.00659964
-0.00661423
-0.00662793
-0.00663968
-0.00664959
-0.00665887
-0.00666667
-0.00667159
-0.00665437
-0.00664391
-0.00661654
-0.00610924
-0.00623214
-0.00578697
-0.00534451
-0.00479997
-0.00410762
-0.00164561
0.00216827
0.00184019
0.00782012
0.0136152
0.0174962
0.0130819
0.00785081
0.0219399
0.0244464
-0.062075
-0.574772
2.05557
3.94118
9.94527
24.6151
40.1585
-0.00679847
-0.00678621
-0.00677429
-0.00676379
-0.00675416
-0.00674522
-0.0067371
-0.0067301
-0.00672478
-0.00672189
-0.00672229
-0.00672689
-0.00673641
-0.00675132
-0.00677164
-0.00679687
-0.00682588
-0.00685734
-0.00689007
-0.00692324
-0.00695682
-0.00699113
-0.0070256
-0.00705528
-0.00707494
-0.00708233
-0.00705631
-0.006854
-0.006684
-0.00632467
-0.00587643
-0.00527743
-0.00444467
-0.00312691
0.000483082
0.0123513
0.00717142
0.0169649
0.0236077
0.0260657
0.0225214
0.0277219
0.0879493
0.268077
3.49696
14.1084
24.3826
38.209
42.1682
42.8104
-0.00694489
-0.00693079
-0.00691729
-0.00690568
-0.0068954
-0.00688639
-0.00687892
-0.00687352
-0.00687096
-0.00687216
-0.00687819
-0.00689
-0.00690834
-0.00693357
-0.00696563
-0.00700412
-0.00704821
-0.00709693
-0.00714944
-0.0072053
-0.00726443
-0.00732656
-0.00739044
-0.00745112
-0.00750683
-0.00754426
-0.00744744
-0.00742275
-0.00726054
-0.0069697
-0.00657473
-0.00598678
-0.00505607
-0.0034965
-0.00143928
0.00479605
0.0186827
0.0201779
0.0326715
0.0288167
0.056893
0.0291152
-0.0950079
7.66304
15.9517
32.7993
39.4307
40.0194
41.0391
41.7528
-0.00708491
-0.00706902
-0.00705398
-0.00704126
-0.00703034
-0.00702126
-0.00701447
-0.00701072
-0.00701096
-0.00701634
-0.00702805
-0.00704713
-0.00707434
-0.00710997
-0.00715391
-0.00720579
-0.00726515
-0.00733153
-0.00740465
-0.00748447
-0.00757108
-0.00766408
-0.00776195
-0.00786049
-0.00795353
-0.00802756
-0.00806277
-0.00803222
-0.00794683
-0.00776135
-0.00750733
-0.00708341
-0.00636734
-0.00503436
-0.00229934
0.00180608
0.000251894
0.0914629
0.036382
0.0644668
0.0628653
0.0613493
5.83286
27.7166
37.4937
38.462
38.9231
39.5944
40.4283
41.1344
-0.00721756
-0.00719995
-0.00718342
-0.00716964
-0.0071581
-0.00714896
-0.00714286
-0.00714076
-0.00714383
-0.00715338
-0.00717074
-0.00719704
-0.00723303
-0.00727901
-0.00733487
-0.00740032
-0.00747516
-0.00755956
-0.00765395
-0.0077589
-0.00787481
-0.00800149
-0.0081375
-0.00827943
-0.0084191
-0.00855481
-0.00865945
-0.00837961
-0.00871491
-0.00869372
-0.00863257
-0.00851361
-0.00829328
-0.00812699
-0.00624591
-0.0059863
-0.00444727
0.0892158
0.0195881
0.0425392
0.0969894
5.46522
25.5434
33.8744
36.6824
38.0167
38.7233
39.4016
40.1317
40.7796
-0.00734186
-0.00732266
-0.00730475
-0.00728996
-0.00727782
-0.00726864
-0.00726323
-0.00726277
-0.0072686
-0.00728225
-0.00730515
-0.0073385
-0.00738308
-0.0074392
-0.00750684
-0.00758589
-0.00767646
-0.0077792
-0.00789529
-0.00802613
-0.00817271
-0.00833528
-0.00851279
-0.00870241
-0.00889781
-0.00909417
-0.00927591
-0.00942357
-0.00928206
-0.00965733
-0.00976867
-0.00985454
-0.010051
-0.00930459
-0.0117221
-0.0194401
0.0231367
0.0264317
-0.0202663
-0.145706
5.86232
23.1556
33.3154
35.1071
36.7761
37.9346
38.6958
39.3648
40.0208
40.6057
-0.00745693
-0.00743628
-0.0074171
-0.00740138
-0.0073887
-0.00737949
-0.00737476
-0.00737587
-0.00738439
-0.00740198
-0.0074302
-0.00747033
-0.00752315
-0.00758906
-0.00766816
-0.00776059
-0.00786687
-0.00798814
-0.00812619
-0.00828323
-0.00846131
-0.00866148
-0.00888359
-0.00912591
-0.00938426
-0.00965299
-0.00992859
-0.0102118
-0.0100695
-0.0105863
-0.0108279
-0.0109314
-0.0109304
-0.0108422
-0.0114746
-0.014446
-0.00467431
0.0233112
-0.0203717
3.86179
14.3084
34.367
35.4799
36.2682
37.2853
38.1437
38.8445
39.4695
40.0488
40.5572
-0.00756188
-0.00753997
-0.00751967
-0.00750312
-0.00748996
-0.00748074
-0.00747667
-0.00747928
-0.00749033
-0.00751164
-0.00754489
-0.00759139
-0.007652
-0.00772717
-0.00781717
-0.00792246
-0.00804403
-0.00818358
-0.00834352
-0.00852669
-0.00873617
-0.00897472
-0.00924359
-0.00954233
-0.00986927
-0.0102195
-0.0105889
-0.0109567
-0.0111792
-0.0115055
-0.0120091
-0.0121873
-0.0120279
-0.0112903
-0.0104804
-0.00538359
0.0100752
-0.00724481
1.7806
8.38745
28.9324
35.974
36.5013
37.0698
37.7751
38.4719
39.1014
39.6594
40.1531
40.5762
-0.00765593
-0.00763296
-0.00761172
-0.00759447
-0.0075809
-0.0075717
-0.00756825
-0.00757225
-0.00758564
-0.00761039
-0.00764827
-0.00770064
-0.00776841
-0.00785214
-0.00795227
-0.00806961
-0.00820561
-0.00836264
-0.00854385