/*--------------------------------*- C++ -*----------------------------------*\
| =========                 |                                                 |
| \\      /  F ield         | OpenFOAM: The Open Source CFD Toolbox           |
|  \\    /   O peration     | Version:  2.4.0                                 |
|   \\  /    A nd           | Web:      www.OpenFOAM.org                      |
|    \\/     M anipulation  |                                                 |
\*---------------------------------------------------------------------------*/
FoamFile
{
    version     2.0;
    format      ascii;
    class       surfaceScalarField;
    location    "0.017";
    object      phiAlpha;
}
// * * * * * * * * * * * * * * * * * * * * * * * * * * * * * * * * * * * * * //

dimensions      [0 3 -1 0 0 0 0];

internalField   nonuniform List<scalar> 
28560
(
-2.18405e-10
5.71079e-10
-3.52675e-10
4.69935e-10
-7.48227e-10
2.78292e-10
1.10502e-09
-1.52669e-09
4.21673e-10
2.0781e-09
-2.72513e-09
6.47035e-10
3.55563e-09
-4.50731e-09
9.51677e-10
5.69867e-09
-7.0281e-09
1.32943e-09
8.64839e-09
-1.04069e-08
1.75849e-09
1.24908e-08
-1.46878e-08
2.19696e-09
1.72148e-08
-1.97962e-08
2.58131e-09
2.26698e-08
-2.55085e-08
2.8387e-09
2.85664e-08
-3.14898e-08
2.92336e-09
3.45383e-08
-3.7358e-08
2.81969e-09
4.02022e-08
-4.27483e-08
2.54611e-09
4.52388e-08
-4.74062e-08
2.16737e-09
4.94721e-08
-5.12257e-08
1.75367e-09
5.28496e-08
-5.41738e-08
1.32415e-09
5.53245e-08
-5.61648e-08
8.40255e-10
5.67588e-08
-5.70212e-08
2.62374e-10
5.69461e-08
-5.65258e-08
-4.20248e-10
5.57058e-08
-5.45662e-08
-1.13958e-09
5.30039e-08
-5.11963e-08
-1.80767e-09
4.89902e-08
-4.66435e-08
-2.34664e-09
4.3956e-08
-4.1238e-08
-2.71803e-09
3.82486e-08
-3.5329e-08
-2.91959e-09
3.22063e-08
-2.92269e-08
-2.97942e-09
2.61073e-08
-2.31822e-08
-2.92503e-09
2.01632e-08
-1.73679e-08
-2.79522e-09
1.45162e-08
-1.19003e-08
-2.61594e-09
9.25332e-09
-6.84203e-09
-2.41129e-09
4.41598e-09
-2.22027e-09
-2.1957e-09
-9.49999e-10
1.3323e-09
-3.82303e-10
8.16136e-10
-1.30511e-09
-7.32351e-10
1.22132e-09
1.93946e-09
-2.69797e-09
-1.12351e-09
1.88202e-09
3.70204e-09
-4.89484e-09
-1.74643e-09
2.93923e-09
6.44584e-09
-8.24673e-09
-2.60451e-09
4.4054e-09
1.05326e-08
-1.31205e-08
-3.69306e-09
6.28091e-09
1.6324e-08
-1.98593e-08
-4.96918e-09
8.50447e-09
2.41263e-08
-2.87155e-08
-6.33588e-09
1.09251e-08
3.41123e-08
-3.97615e-08
-7.63325e-09
1.32825e-08
4.62221e-08
-5.27923e-08
-8.65628e-09
1.52264e-08
6.00894e-08
-6.72875e-08
-9.23084e-09
1.64289e-08
7.50307e-08
-8.24084e-08
-9.22574e-09
1.66034e-08
9.00504e-08
-9.70342e-08
-8.5817e-09
1.55655e-08
1.03945e-07
-1.09944e-07
-7.37678e-09
1.33761e-08
1.15542e-07
-1.20073e-07
-5.77794e-09
1.03088e-08
1.23937e-07
-1.26689e-07
-3.92398e-09
6.67568e-09
1.28589e-07
-1.29435e-07
-1.88338e-09
2.72903e-09
1.29328e-07
-1.28309e-07
2.85214e-10
-1.30389e-09
1.26318e-07
-1.23614e-07
2.47403e-09
-5.17841e-09
1.19991e-07
-1.15892e-07
4.51224e-09
-8.61115e-09
1.10983e-07
-1.05844e-07
6.21759e-09
-1.13559e-08
1.00036e-07
-9.42284e-08
7.46853e-09
-1.32766e-08
8.78979e-08
-8.17538e-08
8.23838e-09
-1.43825e-08
7.52194e-08
-6.90152e-08
8.56737e-09
-1.47716e-08
6.25305e-08
-5.64633e-08
8.55334e-09
-1.46205e-08
5.02092e-08
-4.44236e-08
8.27404e-09
-1.40596e-08
3.85147e-08
-3.30925e-08
7.82935e-09
-1.32515e-08
2.75981e-08
-2.25871e-08
7.2817e-09
-1.22927e-08
1.75371e-08
-1.29521e-08
6.687e-09
-1.12719e-08
8.34721e-09
-4.1882e-09
6.07751e-09
-1.02365e-08
-1.71415e-09
2.09501e-09
-3.80859e-10
8.22637e-10
-1.31567e-09
-1.71472e-09
2.20775e-09
1.95551e-09
-2.72092e-09
-2.6479e-09
3.41332e-09
3.73458e-09
-4.93934e-09
-4.14449e-09
5.34926e-09
6.50671e-09
-8.32763e-09
-6.22694e-09
8.04786e-09
1.06404e-08
-1.32607e-08
-8.90132e-09
1.15216e-08
1.65071e-08
-2.00932e-08
-1.20892e-08
1.56754e-08
2.44266e-08
-2.90936e-08
-1.55872e-08
2.02542e-08
3.45904e-08
-4.03546e-08
-1.90356e-08
2.47997e-08
4.69592e-08
-5.36899e-08
-2.19366e-08
2.86672e-08
6.11815e-08
-6.85883e-08
-2.38029e-08
3.12097e-08
7.6574e-08
-8.41982e-08
-2.41816e-08
3.18058e-08
9.21082e-08
-9.93427e-08
-2.27463e-08
2.99808e-08
1.065e-07
-1.12705e-07
-1.95303e-08
2.57349e-08
1.18477e-07
-1.23126e-07
-1.49193e-08
1.95679e-08
1.2706e-07
-1.29829e-07
-9.41936e-09
1.21885e-08
1.31701e-07
-1.32483e-07
-3.49287e-09
4.27443e-09
1.3228e-07
-1.31151e-07
2.44826e-09
-3.57803e-09
1.29032e-07
-1.26199e-07
8.02368e-09
-1.0856e-08
1.22439e-07
-1.18208e-07
1.2847e-08
-1.70772e-08
1.13161e-07
-1.07892e-07
1.66188e-08
-2.18881e-08
1.01946e-07
-9.60085e-08
1.9195e-08
-2.51328e-08
8.95431e-08
-8.32721e-08
2.06232e-08
-2.68942e-08
7.66069e-08
-7.02812e-08
2.10601e-08
-2.73858e-08
6.36724e-08
-5.749e-08
2.07618e-08
-2.69441e-08
5.11195e-08
-4.52262e-08
1.99106e-08
-2.58039e-08
3.92087e-08
-3.36875e-08
1.87315e-08
-2.42527e-08
2.80935e-08
-2.29917e-08
1.73552e-08
-2.24569e-08
1.78508e-08
-1.31836e-08
1.59031e-08
-2.05703e-08
8.49649e-09
-4.26251e-09
1.44375e-08
-1.86715e-08
-2.47446e-09
2.8524e-09
-3.77939e-10
8.1795e-10
-1.30817e-09
-2.69953e-09
3.18975e-09
1.94435e-09
-2.70549e-09
-4.17705e-09
4.93819e-09
3.71362e-09
-4.91192e-09
-6.55137e-09
7.74968e-09
6.471e-09
-8.28246e-09
-9.86463e-09
1.16761e-08
1.05835e-08
-1.3191e-08
-1.41362e-08
1.67437e-08
1.64223e-08
-1.99929e-08
-1.9255e-08
2.28256e-08
2.43093e-08
-2.89603e-08
-2.49147e-08
2.95657e-08
3.4442e-08
-4.01949e-08
-3.05597e-08
3.63126e-08
4.67925e-08
-5.35226e-08
-3.5399e-08
4.21291e-08
6.10224e-08
-6.84482e-08
-3.8627e-08
4.60528e-08
7.64684e-08
-8.41414e-08
-3.94542e-08
4.71272e-08
9.21196e-08
-9.94339e-08
-3.72532e-08
4.45675e-08
1.06689e-07
-1.12996e-07
-3.1986e-08
3.82932e-08
1.18885e-07
-1.2365e-07
-2.42673e-08
2.90328e-08
1.27713e-07
-1.30608e-07
-1.50119e-08
1.79072e-08
1.32617e-07
-1.3353e-07
-5.11276e-09
6.02616e-09
1.33467e-07
-1.32466e-07
4.65168e-09
-5.65242e-09
1.30475e-07
-1.27753e-07
1.36399e-08
-1.63623e-08
1.24089e-07
-1.19929e-07
2.12763e-08
-2.54365e-08
1.14929e-07
-1.09677e-07
2.71496e-08
-3.24015e-08
1.03722e-07
-9.77503e-08
3.10856e-08
-3.70571e-08
9.12269e-08
-8.48831e-08
3.31976e-08
-3.95414e-08
7.81265e-08
-7.17027e-08
3.37555e-08
-4.01792e-08
6.49825e-08
-5.8689e-08
3.31767e-08
-3.94702e-08
5.21973e-08
-4.6188e-08
3.17493e-08
-3.77586e-08
4.00485e-08
-3.44129e-08
2.98256e-08
-3.54612e-08
2.87008e-08
-2.34902e-08
2.76079e-08
-3.28185e-08
1.82385e-08
-1.347e-08
2.52831e-08
-3.00516e-08
8.68128e-09
-4.35592e-09
2.29473e-08
-2.72726e-08
-3.22849e-09
3.60258e-09
-3.74084e-10
8.11219e-10
-1.29738e-09
-3.67803e-09
4.16419e-09
1.92827e-09
-2.68325e-09
-5.69629e-09
6.45127e-09
3.68335e-09
-4.87225e-09
-8.94336e-09
1.01323e-08
6.4192e-09
-8.21678e-09
-1.3481e-08
1.52786e-08
1.05006e-08
-1.30891e-08
-1.93423e-08
2.19308e-08
1.62978e-08
-1.98448e-08
-2.63851e-08
2.99321e-08
2.41347e-08
-2.87605e-08
-3.42048e-08
3.88306e-08
3.42172e-08
-3.99498e-08
-4.20561e-08
4.77887e-08
4.65318e-08
-5.3255e-08
-4.8856e-08
5.55792e-08
6.07589e-08
-6.82037e-08
-5.34872e-08
6.0932e-08
7.62646e-08
-8.39991e-08
-5.48281e-08
6.25627e-08
9.20679e-08
-9.94916e-08
-5.19314e-08
5.93551e-08
1.06883e-07
-1.13338e-07
-4.46678e-08
5.11228e-08
1.19398e-07
-1.24337e-07
-3.38776e-08
3.88163e-08
1.28591e-07
-1.31674e-07
-2.08895e-08
2.39732e-08
1.33886e-07
-1.34993e-07
-7.02923e-09
8.13654e-09
1.35131e-07
-1.34317e-07
6.56715e-09
-7.38198e-09
1.32509e-07
-1.29943e-07
1.90122e-08
-2.15785e-08
1.26417e-07
-1.22355e-07
2.95507e-08
-3.36119e-08
1.17421e-07
-1.12193e-07
3.7642e-08
-4.28703e-08
1.06222e-07
-1.00201e-07
4.30512e-08
-4.90726e-08
9.35935e-08
-8.7145e-08
4.59332e-08
-5.23817e-08
8.02576e-08
-7.3695e-08
4.66666e-08
-5.32292e-08
6.68169e-08
-6.0366e-08
4.58363e-08
-5.22871e-08
5.37048e-08
-4.75325e-08
4.3843e-08
-5.00153e-08
4.12216e-08
-3.54255e-08
4.11709e-08
-4.6967e-08
2.95484e-08
-2.41853e-08
3.80993e-08
-4.34624e-08
1.87792e-08
-1.387e-08
3.4885e-08
-3.97942e-08
8.93921e-09
-4.48473e-09
3.16577e-08
-3.61122e-08
-3.97426e-09
4.3435e-09
-3.69238e-10
8.02533e-10
-1.28344e-09
-4.64787e-09
5.12878e-09
1.90749e-09
-2.65449e-09
-7.2026e-09
7.9496e-09
3.6442e-09
-4.8209e-09
-1.13156e-08
1.24923e-08
6.35213e-09
-8.1317e-09
-1.70677e-08
1.88473e-08
1.03931e-08
-1.29569e-08
-2.45077e-08
2.70715e-08
1.6136e-08
-1.96521e-08
-3.34645e-08
3.69806e-08
2.39072e-08
-2.84994e-08
-4.34409e-08
4.80332e-08
3.39225e-08
-3.96276e-08
-5.35084e-08
5.92134e-08
4.61878e-08
-5.29001e-08
-6.22974e-08
6.90096e-08
6.04071e-08
-6.78741e-08
-6.83879e-08
7.58549e-08
7.59853e-08
-8.37984e-08
-7.03349e-08
7.81481e-08
9.19844e-08
-9.9551e-08
-6.68465e-08
7.44131e-08
1.07123e-07
-1.13773e-07
-5.76696e-08
6.43191e-08
1.20057e-07
-1.25224e-07
-4.38622e-08
4.90288e-08
1.29729e-07
-1.33058e-07
-2.71725e-08
3.05023e-08
1.35532e-07
-1.36891e-07
-9.36233e-09
1.07207e-08
1.3729e-07
-1.36716e-07
8.0831e-09
-8.65635e-09
1.35147e-07
-1.32786e-07
2.4049e-08
-2.641e-08
1.29443e-07
-1.25516e-07
3.76111e-08
-4.15384e-08
1.20672e-07
-1.15477e-07
4.80837e-08
-5.32782e-08
1.09488e-07
-1.03401e-07
5.5125e-08
-6.1212e-08
9.66824e-08
-9.00954e-08
5.88953e-08
-6.54823e-08
8.3036e-08
-7.62912e-08
5.98774e-08
-6.66222e-08
6.92069e-08
-6.25507e-08
5.88346e-08
-6.54908e-08
5.56674e-08
-4.92819e-08
5.62877e-08
-6.26732e-08
4.27472e-08
-3.67415e-08
5.28617e-08
-5.88674e-08
3.0649e-08
-2.50882e-08
4.89185e-08
-5.44793e-08
1.94811e-08
-1.43887e-08
4.47897e-08
-4.9882e-08
9.27358e-09
-4.65266e-09
4.06451e-08
-4.5266e-08
-4.70991e-09
5.07331e-09
-3.63406e-10
7.92061e-10
-1.26663e-09
-5.60664e-09
6.0812e-09
1.8824e-09
-2.61976e-09
-8.692e-09
9.42936e-09
3.59692e-09
-4.75887e-09
-1.36618e-08
1.48238e-08
6.27108e-09
-8.02881e-09
-2.06164e-08
2.23742e-08
1.0263e-08
-1.27968e-08
-2.96211e-08
3.21549e-08
1.59401e-08
-1.94184e-08
-4.04788e-08
4.39572e-08
2.3631e-08
-2.81822e-08
-5.2606e-08
5.71571e-08
3.3564e-08
-3.92351e-08
-6.49027e-08
7.05737e-08
4.57681e-08
-5.24662e-08
-7.57159e-08
8.2414e-08
5.99754e-08
-6.74681e-08
-8.33346e-08
9.08273e-08
7.56395e-08
-8.35485e-08
-8.60072e-08
9.39162e-08
9.18791e-08
-9.96235e-08
-8.20644e-08
8.98088e-08
1.0742e-07
-1.14313e-07
-7.10844e-08
7.7977e-08
1.20878e-07
-1.26328e-07
-5.43306e-08
5.97808e-08
1.31144e-07
-1.34778e-07
-3.39767e-08
3.761e-08
1.37576e-07
-1.39244e-07
-1.22264e-08
1.38942e-08
1.39965e-07
-1.39689e-07
9.08841e-09
-9.36455e-09
1.3842e-07
-1.36321e-07
2.8648e-08
-3.07473e-08
1.33216e-07
-1.29468e-07
4.53829e-08
-4.91314e-08
1.24749e-07
-1.19606e-07
5.84504e-08
-6.35938e-08
1.13598e-07
-1.07429e-07
6.73384e-08
-7.35074e-08
1.00568e-07
-9.38038e-08
7.21529e-08
-7.89168e-08
8.65265e-08
-7.95521e-08
7.3476e-08
-8.04504e-08
7.22089e-08
-6.52944e-08
7.22695e-08
-7.9184e-08
5.81314e-08
-5.14768e-08
6.91862e-08
-7.58408e-08
4.46593e-08
-3.83893e-08
6.49982e-08
-7.12682e-08
3.20257e-08
-2.62159e-08
6.01583e-08
-6.59681e-08
2.0357e-08
-1.50357e-08
5.50832e-08
-6.04045e-08
9.6904e-09
-4.86161e-09
4.99858e-08
-5.48146e-08
-5.4334e-09
5.79005e-09
-3.5665e-10
7.79686e-10
-1.24674e-09
-6.5521e-09
7.01915e-09
1.85272e-09
-2.57865e-09
-1.01612e-08
1.08871e-08
3.54094e-09
-4.68541e-09
-1.59773e-08
1.71217e-08
6.17508e-09
-7.9069e-09
-2.41194e-08
2.58513e-08
1.01087e-08
-1.26068e-08
-3.46714e-08
3.71695e-08
1.57074e-08
-1.91407e-08
-4.74136e-08
5.08469e-08
2.33022e-08
-2.78037e-08
-6.16844e-08
6.61858e-08
3.31352e-08
-3.87644e-08
-7.62243e-08
8.18534e-08
4.52631e-08
-5.19418e-08
-8.91026e-08
9.57813e-08
5.945e-08
-6.69688e-08
-9.83328e-08
1.05852e-07
7.52072e-08
-8.32264e-08
-1.01878e-07
1.09898e-07
9.17267e-08
-9.96816e-08
-9.7654e-08
1.05609e-07
1.07746e-07
-1.14929e-07
-8.50084e-08
9.21913e-08
1.21829e-07
-1.27618e-07
-6.5393e-08
7.11819e-08
1.32805e-07
-1.36801e-07
-4.14169e-08
4.54125e-08
1.39986e-07
-1.42022e-07
-1.57385e-08
1.7775e-08
1.43129e-07
-1.43213e-07
9.46919e-09
-9.38528e-09
1.4231e-07
-1.40539e-07
3.26914e-08
-3.44629e-08
1.37742e-07
-1.34233e-07
5.27686e-08
-5.62779e-08
1.29691e-07
-1.24628e-07
6.87012e-08
-7.37637e-08
1.18609e-07
-1.12342e-07
7.9723e-08
-8.59902e-08
1.05304e-07
-9.83197e-08
8.57843e-08
-9.27681e-08
9.07747e-08
-8.35216e-08
8.75574e-08
-9.48105e-08
7.58654e-08
-6.86379e-08
8.62475e-08
-9.3475e-08
6.11335e-08
-5.41485e-08
8.2652e-08
-8.9637e-08
4.69831e-08
-4.03878e-08
7.76922e-08
-8.42874e-08
3.36918e-08
-2.75783e-08
7.19221e-08
-7.80357e-08
2.14137e-08
-1.58157e-08
6.58576e-08
-7.14556e-08
1.01926e-08
-5.1133e-09
5.97628e-08
-6.48421e-08
-6.14289e-09
6.49181e-09
-3.48914e-10
7.65448e-10
-1.22382e-09
-7.48199e-09
7.94036e-09
1.8185e-09
-2.53126e-09
-1.16068e-08
1.23196e-08
3.47641e-09
-4.60072e-09
-1.82563e-08
1.93807e-08
6.06434e-09
-7.76622e-09
-2.75686e-08
2.92705e-08
9.93061e-09
-1.23874e-08
-3.96477e-08
4.21045e-08
1.54384e-08
-1.88191e-08
-5.42549e-08
5.76357e-08
2.2921e-08
-2.7364e-08
-7.06592e-08
7.51023e-08
3.2636e-08
-3.82149e-08
-8.74587e-08
9.30376e-08
4.46717e-08
-5.13251e-08
-1.02448e-07
1.09102e-07
5.88274e-08
-6.63709e-08
-1.13383e-07
1.20927e-07
7.46805e-08
-8.28226e-08
-1.17977e-07
1.26119e-07
9.15161e-08
-9.97141e-08
-1.13681e-07
1.21879e-07
1.0809e-07
-1.15611e-07
-9.95373e-08
1.07058e-07
1.229e-07
-1.29083e-07
-7.71609e-08
8.33437e-08
1.34703e-07
-1.3912e-07
-4.96114e-08
5.40278e-08
1.42753e-07
-1.45218e-07
-2.00182e-08
2.2483e-08
1.46775e-07
-1.47283e-07
9.09893e-09
-8.59096e-09
1.46819e-07
-1.45452e-07
3.60427e-08
-3.74097e-08
1.4305e-07
-1.39862e-07
5.9638e-08
-6.28255e-08
1.35572e-07
-1.30639e-07
7.87692e-08
-8.37023e-08
1.24624e-07
-1.18241e-07
9.2313e-08
-9.86965e-08
1.10979e-07
-1.0372e-07
9.98817e-08
-1.07141e-07
9.58491e-08
-8.82668e-08
1.02222e-07
-1.09804e-07
8.02449e-08
-7.2649e-08
1.0088e-07
-1.08476e-07
6.47366e-08
-5.73498e-08
9.68133e-08
-1.042e-07
4.97578e-08
-4.27644e-08
9.10716e-08
-9.8065e-08
3.56645e-08
-2.91862e-08
8.43235e-08
-9.08018e-08
2.26588e-08
-1.67343e-08
7.7211e-08
-8.31356e-08
1.07839e-08
-5.40994e-09
7.00633e-08
-7.54373e-08
-6.83644e-09
7.17664e-09
-3.40208e-10
7.49529e-10
-1.19817e-09
-8.39402e-09
8.84266e-09
1.78016e-09
-2.47815e-09
-1.30251e-08
1.37231e-08
3.40407e-09
-4.50579e-09
-2.0494e-08
2.15957e-08
5.9402e-09
-7.60846e-09
-3.09562e-08
3.26244e-08
9.73081e-09
-1.21411e-08
-4.45387e-08
4.6949e-08
1.51362e-08
-1.84576e-08
-6.09879e-08
6.43093e-08
2.24917e-08
-2.68681e-08
-7.95133e-08
8.38896e-08
3.20716e-08
-3.75927e-08
-9.85887e-08
1.0411e-07
4.40006e-08
-5.06229e-08
-1.15741e-07
1.22363e-07
5.81144e-08
-6.56799e-08
-1.28482e-07
1.36048e-07
7.40636e-08
-8.23403e-08
-1.34328e-07
1.42604e-07
9.12508e-08
-9.97251e-08
-1.30212e-07
1.38686e-07
1.08457e-07
-1.16366e-07
-1.14767e-07
1.22676e-07
1.24103e-07
-1.30737e-07
-8.9745e-08
9.63791e-08
1.36851e-07
-1.41748e-07
-5.86772e-08
6.35744e-08
1.45894e-07
-1.48848e-07
-2.5185e-08
2.81389e-08
1.5092e-07
-1.51917e-07
7.84678e-09
-6.84959e-09
1.5197e-07
-1.51094e-07
3.85429e-08
-3.94185e-08
1.49193e-07
-1.46437e-07
6.58132e-08
-6.85684e-08
1.4251e-07
-1.37785e-07
8.85441e-08
-9.32686e-08
1.31808e-07
-1.25283e-07
1.05148e-07
-1.11673e-07
1.17724e-07
-1.10105e-07
1.14567e-07
-1.22186e-07
1.01835e-07
-9.38761e-08
1.1757e-07
-1.2553e-07
8.54483e-08
-7.74367e-08
1.16276e-07
-1.24287e-07
6.90443e-08
-6.11649e-08
1.11821e-07
-1.197e-07
5.30394e-08
-4.55494e-08
1.05292e-07
-1.12782e-07
3.79539e-08
-3.10393e-08
9.74887e-08
-1.04403e-07
2.40952e-08
-1.77987e-08
8.92416e-08
-9.55381e-08
1.14711e-08
-5.75836e-09
8.09758e-08
-8.66885e-08
-7.51214e-09
7.84274e-09
-3.30605e-10
7.31853e-10
-1.16961e-09
-9.28596e-09
9.72371e-09
1.73744e-09
-2.41898e-09
-1.44131e-08
1.50947e-08
3.32349e-09
-4.40001e-09
-2.26851e-08
2.37616e-08
5.80184e-09
-7.43256e-09
-3.42742e-08
3.5905e-08
9.5079e-09
-1.18661e-08
-4.93337e-08
5.1692e-08
1.47985e-08
-1.80533e-08
-6.7598e-08
7.08528e-08
2.20107e-08
-2.63111e-08
-8.82288e-08
9.25292e-08
3.14362e-08
-3.68901e-08
-1.09598e-07
1.15052e-07
4.32404e-08
-4.98237e-08
-1.28966e-07
1.3555e-07
5.72961e-08
-6.48769e-08
-1.43621e-07
1.51202e-07
7.33327e-08
-8.17511e-08
-1.5095e-07
1.59369e-07
9.08989e-08
-9.9681e-08
-1.4731e-07
1.56092e-07
1.08813e-07
-1.17159e-07
-1.30796e-07
1.39142e-07
1.25401e-07
-1.32543e-07
-1.03259e-07
1.10402e-07
1.39212e-07
-1.44649e-07
-6.87337e-08
7.41708e-08
1.49371e-07
-1.52874e-07
-3.13596e-08
3.48628e-08
1.55526e-07
-1.57074e-07
5.58311e-09
-4.0352e-09
1.57724e-07
-1.57433e-07
4.0014e-08
-4.03051e-08
1.5616e-07
-1.53989e-07
7.10537e-08
-7.32254e-08
1.50593e-07
-1.46212e-07
9.78426e-08
-1.02223e-07
1.40343e-07
-1.3364e-07
1.18282e-07
-1.24985e-07
1.25655e-07
-1.1753e-07
1.30033e-07
-1.38158e-07
1.08758e-07
-1.00395e-07
1.33689e-07
-1.42052e-07
9.15719e-08
-8.31382e-08
1.32513e-07
-1.40947e-07
7.42021e-08
-6.57037e-08
1.27869e-07
-1.36367e-07
5.68737e-08
-4.87333e-08
1.20572e-07
-1.28712e-07
4.05066e-08
-3.30651e-08
1.11567e-07
-1.19009e-07
2.56931e-08
-1.90153e-08
1.02029e-07
-1.08706e-07
1.22667e-08
-6.18881e-09
9.25829e-08
-9.86607e-08
-8.16809e-09
8.48813e-09
-3.20036e-10
7.12473e-10
-1.13823e-09
-1.01556e-08
1.05814e-08
1.69044e-09
-2.35389e-09
-1.57672e-08
1.64307e-08
3.23484e-09
-4.28363e-09
-2.48245e-08
2.58733e-08
5.64958e-09
-7.23889e-09
-3.75156e-08
3.91049e-08
9.26235e-09
-1.1563e-08
-5.40221e-08
5.63228e-08
1.44261e-08
-1.76066e-08
-7.40716e-08
7.72522e-08
2.14785e-08
-2.56934e-08
-9.67882e-08
1.01003e-07
3.07292e-08
-3.61063e-08
-1.20469e-07
1.25846e-07
4.23897e-08
-4.89255e-08
-1.42111e-07
1.48646e-07
5.63684e-08
-6.39543e-08
-1.58787e-07
1.66373e-07
7.24757e-08
-8.10397e-08
-1.6786e-07
1.76424e-07
9.04428e-08
-9.95634e-08
-1.6504e-07
1.7416e-07
1.0914e-07
-1.17973e-07
-1.47726e-07
1.56559e-07
1.26778e-07
-1.34487e-07
-1.1782e-07
1.25528e-07
1.41773e-07
-1.4781e-07
-7.99003e-08
8.5937e-08
1.53171e-07
-1.57282e-07
-3.86628e-08
4.27745e-08
1.60574e-07
-1.62734e-07
2.18683e-09
-2.63715e-11
1.6405e-07
-1.64439e-07
4.02679e-08
-3.98793e-08
1.63945e-07
-1.62556e-07
7.50342e-08
-7.64227e-08
1.59948e-07
-1.56148e-07
1.06352e-07
-1.10151e-07
1.50533e-07
-1.43609e-07
1.31793e-07
-1.38717e-07
1.34949e-07
-1.26013e-07
1.46634e-07
-1.55571e-07
1.16556e-07
-1.07822e-07
1.50611e-07
-1.59345e-07
9.87547e-08
-9.00159e-08
1.49561e-07
-1.583e-07
8.05117e-08
-7.11768e-08
1.45247e-07
-1.54582e-07
6.12904e-08
-5.22016e-08
1.37274e-07
-1.46363e-07
4.30818e-08
-3.49514e-08
1.26765e-07
-1.34896e-07
2.73402e-08
-2.04202e-08
1.15541e-07
-1.22461e-07
1.32134e-08
-6.84132e-09
1.04908e-07
-1.1128e-07
-8.80248e-09
9.11101e-09
-3.08521e-10
6.91583e-10
-1.1043e-09
-1.10007e-08
1.14135e-08
1.63959e-09
-2.28344e-09
-1.70847e-08
1.77285e-08
3.13891e-09
-4.15769e-09
-2.69074e-08
2.79262e-08
5.48476e-09
-7.02919e-09
-4.06722e-08
4.22167e-08
8.99633e-09
-1.12345e-08
-5.8593e-08
6.08312e-08
1.4022e-08
-1.71216e-08
-8.03932e-08
8.34928e-08
2.08995e-08
-2.50196e-08
-1.05172e-07
1.09292e-07
2.9956e-08
-3.5247e-08
-1.31181e-07
1.36472e-07
4.14548e-08
-4.7935e-08
-1.55156e-07
1.61636e-07
5.53373e-08
-6.29154e-08
-1.73957e-07
1.81535e-07
7.14921e-08
-8.02026e-08
-1.85062e-07
1.93772e-07
8.98778e-08
-9.93687e-08
-1.83462e-07
1.92953e-07
1.09437e-07
-1.18812e-07
-1.65657e-07
1.75032e-07
1.28242e-07
-1.36577e-07
-1.33542e-07
1.41878e-07
1.44545e-07
-1.51243e-07
-9.22967e-08
9.8994e-08
1.57307e-07
-1.62088e-07
-4.72131e-08
5.19932e-08
1.66074e-07
-1.68899e-07
-2.46122e-09
5.28641e-09
1.70929e-07
-1.72079e-07
3.91186e-08
-3.7968e-08
1.72521e-07
-1.72168e-07
7.73278e-08
-7.76812e-08
1.70728e-07
-1.67928e-07
1.1352e-07
-1.1632e-07
1.62898e-07
-1.55735e-07
1.45764e-07
-1.52928e-07
1.45895e-07
-1.35444e-07
1.65135e-07
-1.75587e-07
1.249e-07
-1.15955e-07
1.68216e-07
-1.7716e-07
1.07107e-07
-9.84428e-08
1.67069e-07
-1.75734e-07
8.84124e-08
-7.77606e-08
1.64486e-07
-1.75138e-07
6.59726e-08
-5.53196e-08
1.56132e-07
-1.66786e-07
4.47965e-08
-3.56075e-08
1.43493e-07
-1.52682e-07
2.85101e-08
-2.19057e-08
1.29331e-07
-1.35935e-07
1.422e-08
-7.96311e-09
1.17679e-07
-1.23935e-07
-9.41339e-09
9.7095e-09
-2.96113e-10
6.69133e-10
-1.06771e-09
-1.18192e-08
1.22178e-08
1.58466e-09
-2.20737e-09
-1.83619e-08
1.89846e-08
3.03532e-09
-4.0217e-09
-2.89289e-08
2.99153e-08
5.30676e-09
-6.80259e-09
-4.37372e-08
4.5233e-08
8.70866e-09
-1.0879e-08
-6.30359e-08
6.52063e-08
1.35845e-08
-1.65958e-08
-8.6549e-08
8.95603e-08
2.02704e-08
-2.42856e-08
-1.13361e-07
1.17376e-07
2.91107e-08
-3.43046e-08
-1.41716e-07
1.46909e-07
4.04268e-08
-4.68414e-08
-1.68084e-07
1.74498e-07
5.41886e-08
-6.17402e-08
-1.89102e-07
1.96654e-07
7.03538e-08
-7.92046e-08
-2.02553e-07
2.11404e-07
8.91641e-08
-9.90548e-08
-2.0264e-07
2.1253e-07
1.09662e-07
-1.19633e-07
-1.84697e-07
1.94668e-07
1.29751e-07
-1.38774e-07
-1.50549e-07
1.59572e-07
1.47488e-07
-1.54906e-07
-1.06044e-07
1.13462e-07
1.61739e-07
-1.67247e-07
-5.7129e-08
6.26369e-08
1.71982e-07
-1.75498e-07
-8.45453e-09
1.19711e-08
1.78269e-07
-1.80219e-07
3.64191e-08
-3.44686e-08
1.81723e-07
-1.82695e-07
7.74089e-08
-7.64365e-08
1.8297e-07
-1.81895e-07
1.18373e-07
-1.19448e-07
1.78179e-07
-1.70925e-07
1.60176e-07
-1.67431e-07
1.58943e-07
-1.45344e-07
1.87322e-07
-2.00922e-07
1.32771e-07
-1.23896e-07
1.86097e-07
-1.94973e-07
1.15937e-07
-1.07683e-07
1.8417e-07
-1.92425e-07
9.68654e-08
-8.38887e-08
1.868e-07
-1.99776e-07
6.87615e-08
-5.58748e-08
1.7853e-07
-1.91416e-07
4.38258e-08
-3.33021e-08
1.62573e-07
-1.73096e-07
2.76109e-08
-2.21285e-08
1.42026e-07
-1.47508e-07
1.41484e-08
-8.63607e-09
1.29855e-07
-1.35367e-07
-9.99901e-09
1.02818e-08
-2.82784e-10
6.45221e-10
-1.02854e-09
-1.26089e-08
1.29922e-08
1.5258e-09
-2.12585e-09
-1.95963e-08
2.01963e-08
2.92432e-09
-3.87598e-09
-3.08847e-08
3.18363e-08
5.11597e-09
-6.55961e-09
-4.67032e-08
4.81469e-08
8.40002e-09
-1.04974e-08
-6.73408e-08
6.94382e-08
1.31143e-08
-1.60301e-08
-9.25247e-08
9.54405e-08
1.95921e-08
-2.34918e-08
-1.21335e-07
1.25234e-07
2.8193e-08
-3.32782e-08
-1.52051e-07
1.57136e-07
3.93045e-08
-4.56439e-08
-1.80877e-07
1.87216e-07
5.29194e-08
-6.04199e-08
-2.04184e-07
2.11684e-07
6.9044e-08
-7.80223e-08
-2.20321e-07
2.29299e-07
8.82742e-08
-9.8594e-08
-2.22632e-07
2.32952e-07
1.09788e-07
-1.20413e-07
-2.04958e-07
2.15582e-07
1.31285e-07
-1.41059e-07
-1.68963e-07
1.78738e-07
1.50582e-07
-1.58782e-07
-1.21264e-07
1.29463e-07
1.66449e-07
-1.72749e-07
-6.85324e-08
7.48319e-08
1.78283e-07
-1.82505e-07
-1.58405e-08
2.00618e-08
1.85985e-07
-1.88686e-07
3.21292e-08
-2.94279e-08
1.91291e-07
-1.93839e-07
7.46999e-08
-7.21518e-08
1.96502e-07
-1.98257e-07
1.19262e-07
-1.17508e-07
1.9725e-07
-1.90607e-07
1.74529e-07
-1.81172e-07
1.75283e-07
-1.55852e-07
2.17124e-07
-2.36555e-07
1.39698e-07
-1.30209e-07
2.03884e-07
-2.13373e-07
1.21308e-07
-1.10775e-07
2.01045e-07
-2.11574e-07
9.68865e-08
-8.15926e-08
2.14183e-07
-2.29452e-07
6.53338e-08
-5.23923e-08
2.05003e-07
-2.17904e-07
4.16854e-08
-3.21411e-08
1.83707e-07
-1.93212e-07
2.4309e-08
-1.77981e-08
1.52814e-07
-1.59292e-07
1.0773e-08
-4.86042e-09
1.40752e-07
-1.46632e-07
-1.05575e-08
1.08261e-08
-2.68538e-10
6.20074e-10
-9.87099e-10
-1.33675e-08
1.37346e-08
1.4634e-09
-2.03945e-09
-2.07844e-08
2.13605e-08
2.80669e-09
-3.72157e-09
-3.27699e-08
3.36848e-08
4.91375e-09
-6.30194e-09
-4.95632e-08
5.09514e-08
8.07251e-09
-1.00921e-08
-7.14973e-08
7.35169e-08
1.26148e-08
-1.54283e-08
-9.83061e-08
1.0112e-07
1.88691e-08
-2.2643e-08
-1.29073e-07
1.32847e-07
2.72077e-08
-3.21727e-08
-1.62163e-07
1.67127e-07
3.80939e-08
-4.43499e-08
-1.93515e-07
1.99771e-07
5.1537e-08
-5.89571e-08
-2.19149e-07
2.26569e-07
6.75566e-08
-7.66428e-08
-2.38335e-07
2.47421e-07
8.71925e-08
-9.79721e-08
-2.43498e-07
2.54278e-07
1.09807e-07
-1.21149e-07
-2.26557e-07
2.37899e-07
1.32847e-07
-1.43439e-07
-1.88913e-07
1.99505e-07
1.53838e-07
-1.6288e-07
-1.38076e-07
1.47118e-07
1.71453e-07
-1.78619e-07
-8.15545e-08
8.87205e-08
1.85015e-07
-1.89936e-07
-2.46341e-08
2.95553e-08
1.94037e-07
-1.97296e-07
2.64082e-08
-2.31486e-08
2.00795e-07
-2.0492e-07
6.8778e-08
-6.46528e-08
2.10368e-07
-2.15794e-07
1.13926e-07
-1.08499e-07
2.18882e-07
-2.15017e-07
1.86837e-07
-1.90701e-07
1.99425e-07
-1.76908e-07
2.58905e-07
-2.81404e-07
1.58522e-07
-1.41263e-07
2.24955e-07
-2.42062e-07
1.18191e-07
-9.52456e-08
2.26873e-07
-2.4888e-07
7.02913e-08
-5.55054e-08
2.43939e-07
-1.65292e-07
4.9357e-08
-4.21102e-08
2.27313e-07
-9.20848e-08
3.39837e-08
-3.02021e-08
1.99277e-07
-5.53464e-08
1.58115e-08
-5.09655e-09
1.66264e-07
-2.80221e-08
3.46234e-09
1.15672e-09
1.48811e-07
-1.31332e-08
-1.10872e-08
1.13406e-08
-2.53449e-10
5.93683e-10
-9.43285e-10
-1.4093e-08
1.44426e-08
1.39732e-09
-1.94796e-09
-2.1924e-08
2.24747e-08
2.68216e-09
-3.55811e-09
-3.45805e-08
3.54564e-08
4.69965e-09
-6.02899e-09
-5.23105e-08
5.36399e-08
7.72529e-09
-9.66223e-09
-7.54956e-08
7.74326e-08
1.20845e-08
-1.47887e-08
-1.03879e-07
1.06583e-07
1.8099e-08
-2.17358e-08
-1.36553e-07
1.4019e-07
2.61496e-08
-3.09808e-08
-1.72027e-07
1.76858e-07
3.67866e-08
-4.29519e-08
-2.05982e-07
2.12147e-07
5.00317e-08
-5.7333e-08
-2.33934e-07
2.41236e-07
6.58586e-08
-7.50212e-08
-2.5655e-07
2.65713e-07
8.58666e-08
-9.71352e-08
-2.65298e-07
2.76566e-07
1.09667e-07
-1.21792e-07
-2.49622e-07
2.61747e-07
1.34392e-07
-1.45871e-07
-2.10531e-07
2.2201e-07
1.57211e-07
-1.6715e-07
-1.56601e-07
1.66541e-07
1.767e-07
-1.84825e-07
-9.63523e-08
1.04477e-07
1.92174e-07
-1.97801e-07
-3.48272e-08
4.04545e-08
2.0234e-07
-2.05758e-07
1.9742e-08
-1.63242e-08
2.09422e-07
-2.14084e-07
6.00086e-08
-5.5347e-08
2.20565e-07
-2.26674e-07
1.01834e-07
-9.57245e-08
2.29678e-07
-2.29598e-07
1.91943e-07
-1.91984e-07
2.26158e-07
-2.12697e-07
2.9819e-07
-2.45481e-07
1.52701e-07
-5.93667e-08
2.21488e-07
-7.72353e-15
5.71774e-09
1.08033e-09
6.8342e-08
-3.38406e-15
-7.69487e-12
7.20852e-15
7.69029e-12
-3.38734e-15
9.21657e-17
-1.58326e-16
9.35584e-16
-9.61783e-16
2.1146e-16
-2.44454e-16
1.12058e-15
-1.17572e-15
1.53229e-15
-3.35363e-14
8.36746e-14
-5.20485e-14
1.00381e-13
-9.60807e-14
3.64617e-12
-3.75627e-12
-1.15862e-08
1.18236e-08
-2.37476e-10
5.66143e-10
-8.97221e-10
-1.47831e-08
1.51142e-08
1.3277e-09
-1.85161e-09
-2.3012e-08
2.35359e-08
2.55102e-09
-3.386e-09
-3.63122e-08
3.71472e-08
4.47417e-09
-5.74137e-09
-5.49385e-08
5.62057e-08
7.35917e-09
-9.20856e-09
-7.93264e-08
8.11758e-08
1.15245e-08
-1.41127e-08
-1.0923e-07
1.11819e-07
1.72831e-08
-2.07711e-08
-1.43754e-07
1.47242e-07
2.50184e-08
-2.9701e-08
-1.81617e-07
1.863e-07
3.53817e-08
-4.14515e-08
-2.18265e-07
2.24335e-07
4.8406e-08
-5.55416e-08
-2.48461e-07
2.55596e-07
6.39278e-08
-7.31218e-08
-2.74898e-07
2.84092e-07
8.42543e-08
-9.60414e-08
-2.88091e-07
2.99878e-07
1.0933e-07
-1.22312e-07
-2.74291e-07
2.87274e-07
1.35898e-07
-1.48337e-07
-2.3396e-07
2.46399e-07
1.60679e-07
-1.71566e-07
-1.76949e-07
1.87835e-07
1.8216e-07
-1.91364e-07
-1.13125e-07
1.22329e-07
1.9982e-07
-2.06206e-07
-4.64491e-08
5.28352e-08
2.10945e-07
-2.13757e-07
1.3085e-08
-1.02728e-08
2.15674e-07
-2.16925e-07
5.16363e-08
-5.03854e-08
2.16355e-07
-2.10617e-07
9.36604e-08
-9.93896e-08
1.95459e-07
-1.0876e-07
2.0058e-07
-1.70232e-07
1.44399e-09
-4.61708e-14
2.73353e-08
-7.16483e-11
1.05225e-14
-1.09826e-15
1.84193e-14
-7.89367e-14
7.16236e-16
-2.5708e-15
3.27293e-15
-1.20619e-15
2.47922e-15
-1.0445e-15
3.99102e-15
-2.06719e-14
4.88053e-16
-4.40642e-16
1.10343e-15
-1.386e-15
4.64081e-16
-5.7832e-17
1.11832e-15
-2.01605e-15
-3.01965e-16
-3.52575e-14
4.49212e-14
-9.88867e-14
-5.75281e-14
5.77424e-14
1.05922e-11
-1.06275e-11
-1.20528e-08
1.22734e-08
-2.20654e-10
5.37627e-10
-8.49164e-10
-1.54356e-08
1.57471e-08
1.25493e-09
-1.75093e-09
-2.40461e-08
2.45421e-08
2.41404e-09
-3.20626e-09
-3.79611e-08
3.87533e-08
4.23865e-09
-5.44077e-09
-5.74408e-08
5.86429e-08
6.97616e-09
-8.73371e-09
-8.29798e-08
8.47373e-08
1.09381e-08
-1.34041e-08
-1.14347e-07
1.16813e-07
1.64262e-08
-1.97539e-08
-1.50651e-07
1.53979e-07
2.38184e-08
-2.83366e-08
-1.90902e-07
1.95421e-07
3.38839e-08
-3.98596e-08
-2.30358e-07
2.36333e-07
4.66745e-08
-5.35888e-08
-2.62629e-07
2.69544e-07
6.17508e-08
-7.09159e-08
-2.9328e-07
3.02445e-07
8.23214e-08
-9.46606e-08
-3.11937e-07
3.24276e-07
1.08775e-07
-1.227e-07
-3.00718e-07
3.14643e-07
1.37367e-07
-1.50848e-07
-2.59349e-07
2.72829e-07
1.64256e-07
-1.76125e-07
-1.9921e-07
2.11079e-07
1.87817e-07
-1.98256e-07
-1.3213e-07
1.42569e-07
2.08088e-07
-2.15414e-07
-5.96577e-08
6.69841e-08
2.20093e-07
-2.2095e-07
8.22818e-09
-7.37074e-09
2.17542e-07
-2.09341e-07
5.33692e-08
-6.15701e-08
1.95589e-07
-1.84665e-07
1.10288e-07
-1.13275e-07
3.467e-08
4.91244e-09
1.01755e-09
-1.56105e-08
-1.20483e-10
1.79279e-12
8.5404e-11
3.35786e-11
2.87966e-13
-5.06594e-15
3.69162e-13
-2.47843e-13
6.01378e-18
-2.21393e-16
4.36328e-16
-6.39542e-16
3.78168e-15
-6.68682e-15
5.2651e-14
-2.47377e-15
6.1899e-15
-6.38055e-15
2.02458e-14
-4.81409e-14
4.34182e-15
-2.26961e-15
4.61575e-14
-4.71463e-14
-3.98928e-16
3.23596e-14
5.2284e-14
-2.20385e-14
6.92409e-13
-2.06112e-13
1.07006e-11
-1.11933e-11
-1.24854e-08
1.26884e-08
-2.03049e-10
5.08093e-10
-7.99098e-10
-1.60485e-08
1.63395e-08
1.1789e-09
-1.64579e-09
-2.50237e-08
2.54906e-08
2.27105e-09
-3.01869e-09
-3.95234e-08
4.02711e-08
3.99283e-09
-5.12682e-09
-5.98113e-08
6.09453e-08
6.5758e-09
-8.23694e-09
-8.64472e-08
8.81083e-08
1.03243e-08
-1.2662e-08
-1.19215e-07
1.21553e-07
1.55268e-08
-1.86821e-08
-1.57222e-07
1.60377e-07
2.25449e-08
-2.68797e-08
-1.99849e-07
2.04184e-07
3.22845e-08
-3.81736e-08
-2.42264e-07
2.48153e-07
4.48395e-08
-5.14641e-08
-2.76322e-07
2.82947e-07
5.92892e-08
-6.83417e-08
-3.11566e-07
3.20618e-07
7.99946e-08
-9.29207e-08
-3.36904e-07
3.4983e-07
1.07935e-07
-1.22898e-07
-3.29073e-07
3.44036e-07
1.38754e-07
-1.53364e-07
-2.86862e-07
3.01472e-07
1.67897e-07
-1.80758e-07
-2.23444e-07
2.36305e-07
1.93558e-07
-2.05409e-07
-1.5369e-07
1.65541e-07
2.17041e-07
-2.25709e-07
-7.49123e-08
8.35806e-08
2.30204e-07
-2.27573e-07
8.12691e-09
-1.07573e-08
2.16468e-07
-2.01056e-07
7.41551e-08
-8.95544e-08
1.688e-07
-1.16018e-09
1.09783e-07
-1.44431e-07
-2.81313e-10
-3.10915e-14
4.76317e-10
-1.91097e-10
-1.73856e-13
8.06793e-13
2.20534e-13
2.37681e-14
-9.31874e-14
-1.74013e-16
3.1833e-14
-3.71433e-14
-7.15777e-16
-1.49211e-17
-1.13031e-16
1.06386e-15
1.54659e-16
-3.76333e-18
-3.79038e-16
8.15664e-16
-2.84789e-19
4.74785e-16
4.28414e-14
-1.67616e-16
-1.47194e-15
1.97965e-15
4.66763e-14
-4.58951e-14
-2.0885e-15
2.96894e-15
2.16587e-14
-2.32912e-14
-4.82028e-13
8.15656e-13
1.17147e-11
-2.97709e-12