/*--------------------------------*- C++ -*----------------------------------*\
| =========                 |                                                 |
| \\      /  F ield         | OpenFOAM: The Open Source CFD Toolbox           |
|  \\    /   O peration     | Version:  2.4.0                                 |
|   \\  /    A nd           | Web:      www.OpenFOAM.org                      |
|    \\/     M anipulation  |                                                 |
\*---------------------------------------------------------------------------*/
FoamFile
{
    version     2.0;
    format      ascii;
    class       volScalarField;
    location    "0.028";
    object      alpha.water;
}
// * * * * * * * * * * * * * * * * * * * * * * * * * * * * * * * * * * * * * //

dimensions      [0 0 0 0 0 0 0];

internalField   nonuniform List<scalar> 
60000
(
1
1
1
1
1
1
1
1
1
1
1
1
1
1
1
1
1
1
1
1
1
1
1
1
1
1
1
1
1
1
1
1
1
1
1
1
1
1
1
1
1
1
1
1
1
1
1
1
1
1
1
1
1
1
1
1
1
1
1
1
1
1
1
1
1
1
1
1
1
1
1
1
1
1
1
1
1
1
1
1
1
1
1
1
1
1
1
1
1
1
1
1
1
1
1
1
1
1
1
1
1
1
1
1
1
1
1
1
1
1
1
1
1
1
1
1
1
1
1
1
1
1
1
1
1
1
1
1
1
1
1
1
1
1
1
1
1
1
1
1
1
1
1
1
1
1
1
1
1
1
1
1
1
1
1
1
1
1
1
1
1
1
1
1
1
1
1
1
1
1
1
1
1
1
1
1
1
1
1
1
1
1
1
1
1
1
1
1
1
1
1
1
1
1
1
1
1
1
1
1
1
1
1
1
1
1
1
1
1
1
1
1
1
1
1
1
1
1
1
1
1
1
1
1
1
1
1
1
1
1
1
1
1
1
1
1
1
1
1
1
1
1
1
1
1
1
1
1
1
1
1
1
1
1
1
1
1
1
1
1
1
1
1
1
1
1
1
1
1
1
1
1
1
1
1
1
1
1
1
1
1
1
1
1
1
1
1
1
1
1
1
1
1
1
1
1
1
1
1
1
1
1
1
1
1
1
1
1
1
1
1
1
1
1
1
1
1
1
1
1
1
1
1
1
1
1
1
1
1
1
1
1
1
1
1
1
1
1
1
1
1
1
1
1
1
1
1
1
1
1
1
1
1
1
1
1
1
1
1
1
1
1
1
1
1
1
1
1
1
1
1
1
1
1
1
1
1
1
1
1
1
1
1
1
1
1
1
1
1
1
1
1
1
1
1
1
1
1
1
1
1
1
1
1
1
1
1
1
1
1
1
1
1
1
1
1
1
1
1
1
1
1
1
1
1
1
1
1
1
1
1
1
1
1
1
1
1
1
1
1
1
1
1
1
1
1
1
1
1
1
1
1
1
1
1
1
1
1
1
1
1
1
1
1
1
1
1
1
1
1
1
1
1
1
1
1
1
1
1
1
1
1
1
1
1
1
1
1
1
1
1
1
1
1
1
1
1
1
1
1
1
1
1
1
1
1
1
1
1
1
1
1
1
1
1
1
1
1
1
1
1
1
1
1
1
1
1
1
1
1
1
1
1
1
1
1
1
1
1
1
1
1
1
1
1
1
1
1
1
1
1
1
1
1
1
1
1
1
1
1
1
1
1
1
1
1
1
1
1
1
1
1
1
1
1
1
1
1
1
1
1
1
1
1
1
1
1
1
1
1
1
1
1
1
1
1
1
1
1
1
1
1
1
1
1
1
1
1
1
1
1
1
1
1
1
1
1
1
1
1
1
1
1
1
1
1
1
1
1
1
1
1
1
1
1
1
1
1
1
1
1
1
1
1
1
1
1
1
1
1
1
1
1
1
1
1
1
1
1
1
1
1
1
1
1
1
1
1
1
1
1
1
1
1
1
1
1
1
1
1
1
1
1
1
1
1
1
1
1
1
1
1
1
1
1
1
1
1
1
1
1
1
1
1
1
1
1
1
1
1
1
1
1
1
1
1
1
1
1
1
1
1
1
1
1
1
1
1
1
1
1
1
1
1
1
1
1
1
1
1
1
1
1
1
1
1
1
1
1
1
1
1
1
1
1
1
1
1
1
1
1
1
1
1
1
1
1
1
1
1
1
1
1
1
1
1
1
1
1
1
1
1
1
1
1
1
1
1
1
1
1
1
1
1
1
1
1
1
1
1
1
1
1
1
1
1
1
1
1
1
1
1
1
1
1
1
1
1
1
1
1
1
1
1
1
1
1
1
1
1
1
1
1
1
1
1
1
1
1
1
1
1
1
1
1
1
1
1
1
1
1
1
1
1
1
1
1
1
1
1
1
1
1
1
1
1
1
1
1
1
1
1
1
1
1
1
1
1
1
1
1
1
1
1
1
1
1
1
1
1
1
1
1
1
1
1
1
1
1
1
1
1
1
1
1
1
1
1
1
1
1
1
1
1
1
1
1
1
1
1
1
1
1
1
1
1
1
1
1
1
1
1
1
1
1
1
1
1
1
1
1
1
1
1
1
1
1
1
1
1
1
1
1
1
1
1
1
1
1
1
1
1
1
1
1
1
1
1
1
1
1
1
1
1
1
1
1
1
1
1
1
1
1
1
1
1
1
1
1
1
1
1
1
1
1
1
1
1
1
1
1
1
1
1
1
1
1
1
1
1
1
1
1
1
1
1
1
1
1
1
1
1
1
1
1
1
1
1
1
1
1
1
1
1
1
1
1
1
1
1
1
1
1
1
1
1
1
1
1
1
1
1
1
1
1
1
1
1
1
1
1
1
1
1
1
1
1
1
1
1
1
1
1
1
1
1
1
1
1
1
1
1
1
1
1
1
1
1
1
1
1
1
1
1
1
1
1
1
1
1
1
1
1
1
1
1
1
1
1
1
1
1
1
1
1
1
1
1
1
1
1
1
1
1
1
1
1
1
1
1
1
1
1
1
1
1
1
1
1
1
1
1
1
1
1
1
1
1
1
1
1
1
1
1
1
1
1
1
1
1
1
1
1
1
1
1
1
1
1
1
1
1
1
1
1
1
1
1
1
1
1
1
1
1
1
1
1
1
1
1
1
1
1
1
1
1
1
1
1
1
1
1
1
1
1
1
1
1
1
1
1
1
1
1
1
1
1
1
1
1
1
1
1
1
1
1
1
1
1
1
1
1
1
1
1
1
1
1
1
1
1
1
1
1
1
1
1
1
1
1
1
1
1
1
1
1
1
1
1
1
1
1
1
1
1
1
1
1
1
1
1
1
1
1
1
1
1
1
1
1
1
1
1
1
1
1
1
1
1
1
1
1
1
1
1
1
1
1
1
1
1
1
1
1
1
1
1
1
1
1
1
1
1
1
1
1
1
1
1
1
1
1
1
1
1
1
1
1
1
1
1
1
1
1
1
1
1
1
1
1
1
1
1
1
1
1
1
1
1
1
1
1
1
1
1
1
1
1
1
1
1
1
1
1
1
1
1
1
1
1
1
1
1
1
1
1
1
1
1
1
1
1
1
1
1
1
1
1
1
1
1
1
1
1
1
1
1
1
1
1
1
1
1
1
1
1
1
1
1
1
1
1
1
1
1
1
1
1
1
1
1
1
1
1
1
1
1
1
1
1
1
1
1
1
1
1
1
1
1
1
1
1
1
1
1
1
1
1
1
1
1
1
1
1
1
1
1
1
1
1
1
1
1
1
1
1
1
1
1
1
1
1
1
1
1
1
1
1
1
1
1
1
1
1
1
1
1
1
1
1
1
1
1
1
1
1
1
1
1
1
1
1
1
1
1
1
1
1
1
1
1
1
1
1
1
1
1
1
1
1
1
1
1
1
1
1
1
1
1
1
1
1
1
1
1
1
1
1
1
1
1
1
1
1
1
1
1
1
1
1
1
1
1
1
1
1
1
1
1
1
1
1
1
1
1
1
1
1
1
1
1
1
1
1
1
1
1
1
1
1
1
1
1
1
1
1
1
1
1
1
1
1
1
1
1
1
1
1
1
1
1
1
1
1
1
1
1
1
1
1
1
1
1
1
1
1
1
1
1
1
1
1
1
1
1
1
1
1
1
1
1
1
1
1
1
1
1
1
1
1
1
1
1
1
1
1
1
1
1
1
1
1
1
1
1
1
1
1
1
1
1
1
1
1
1
1
1
1
1
1
1
1
1
1
1
1
1
1
1
1
1
1
1
1
1
1
1
1
1
1
1
1
1
1
1
1
1
1
1
1
1
1
1
1
1
1
1
1
1
1
1
1
1
1
1
1
1
1
1
1
1
1
1
1
1
1
1
1
1
1
1
1
1
1
1
1
1
1
1
1
1
1
1
1
1
1
1
1
1
1
1
1
1
1
1
1
1
1
1
1
1
1
1
1
1
1
1
1
1
1
1
1
1
1
1
1
1
1
1
1
1
1
1
1
1
1
1
1
1
1
1
1
1
1
1
1
1
1
1
1
1
1
1
1
1
1
1
1
1
1
1
1
1
1
1
1
1
1
1
1
1
1
1
1
1
1
1
1
1
1
1
1
1
1
1
1
1
1
1
1
1
1
1
1
1
1
1
1
1
1
1
1
1
1
1
1
1
1
1
1
1
1
1
1
1
1
1
1
1
1
1
1
1
1
1
1
1
1
1
1
1
1
1
1
1
1
1
1
1
1
1
1
1
1
1
1
1
1
1
1
1
1
1
1
1
1
1
1
1
1
1
1
1
1
1
1
1
1
1
1
1
1
1
1
1
1
1
1
1
1
1
1
1
1
1
1
1
1
1
1
1
1
1
1
1
1
1
1
1
1
1
1
1
1
1
1
1
1
1
1
1
1
1
1
1
1
1
1
1
1
1
1
1
1
1
1
1
1
1
1
1
1
1
1
1
1
1
1
1
1
1
1
1
1
1
1
1
1
1
1
1
1
1
1
1
1
1
1
1
1
1
1
1
1
1
1
1
1
1
1
1
1
1
1
1
1
1
1
1
1
1
1
1
1
1
1
1
1
1
1
1
1
1
1
1
1
1
1
1
1
1
1
1
1
1
1
1
1
1
1
1
1
1
1
1
1
1
1
1
1
1
1
1
1
1
1
1
1
1
1
1
1
1
1
1
1
1
1
1
1
1
1
1
1
1
1
1
1
1
1
1
1
1
1
1
1
1
1
1
1
1
1
1
1
1
1
1
1
1
1
1
1
1
1
1
1
1
1
1
1
1
1
1
1
1
1
1
1
1
1
1
1
1
1
1
1
1
1
1
1
1
1
1
1
1
1
1
1
1
1
1
1
1
1
1
1
1
1
1
1
1
1
1
1
1
1
1
1
1
1
1
1
1
1
1
1
1
1
1
1
1
1
1
1
1
1
1
1
1
1
1
1
1
1
1
1
1
1
1
1
1
1
1
1
1
1
1
1
1
1
1
1
1
1
1
1
1
1
1
1
1
1
1
1
1
1
1
1
1
1
1
1
1
1
1
1
1
1
1
1
1
1
1
1
1
1
1
1
1
1
1
1
1
1
1
1
1
1
1
1
1
1
1
1
1
1
1
1
1
1
1
1
1
1
1
1
1
1
1
1
1
1
1
1
1
1
1
1
1
1
1
1
1
1
1
1
1
1
1
1
1
1
1
1
1
1
1
1
1
1
1
1
1
1
1
1
1
1
1
1
1
1
1
1
1
1
1
1
1
1
1
1
1
1
1
1
1
1
1
1
1
1
1
1
1
1
1
1
1
1
1
1
1
1
1
1
1
1
1
1
1
1
1
1
1
1
1
1
1
1
1
1
1
1
1
1
1
1
1
1
1
1
1
1
1
1
1
1
1
1
1
1
1
1
1
1
1
1
1
1
1
1
1
1
1
1
1
1
1
1
1
1
1
1
1
1
1
1
1
1
1
1
1
1
1
1
1
1
1
1
1
1
1
1
1
1
1
1
1
1
1
1
1
1
1
1
1
1
1
1
1
1
1
1
1
1
1
1
1
1
1
1
1
1
1
1
1
1
1
1
1
1
1
1
1
1
1
1
1
1
1
1
1
1
1
1
1
1
1
1
1
1
1
1
1
1
1
1
1
1
1
1
1
1
1
1
1
1
1
1
1
1
1
1
1
1
1
1
1
1
1
1
1
1
1
1
1
1
1
1
1
1
1
1
1
1
1
1
1
1
1
1
1
1
1
1
1
1
1
1
1
1
1
1
1
1
1
1
1
1
1
1
1
1
1
1
1
1
1
1
1
1
1
1
1
1
1
1
1
1
1
1
1
1
1
1
1
1
1
1
1
1
1
1
1
1
1
1
1
1
1
1
1
1
1
1
1
1
1
1
1
1
1
1
1
1
1
1
1
1
1
1
1
1
1
1
1
1
1
1
1
1
1
1
1
1
1
1
1
1
1
1
1
1
1
1
1
1
1
1
1
1
1
1
1
1
1
1
1
1
1
1
1
1
1
1
1
1
1
1
1
1
1
1
1
1
1
1
1
1
1
1
1
1
1
1
1
1
1
1
1
1
1
1
1
1
1
1
1
1
1
1
1
1
1
1
1
1
1
1
1
1
1
1
1
1
1
1
1
1
1
1
1
1
1
1
1
1
1
1
1
1
1
1
1
1
1
1
1
1
1
1
1
1
1
1
1
1
1
1
1
1
1
1
1
1
1
1
1
1
1
1
1
1
1
1
1
1
1
1
1
1
1
1
1
1
1
1
1
1
1
1
1
1
1
1
1
1
1
1
1
1
1
1
1
1
1
1
1
1
1
1
1
1
1
1
1
1
1
1
1
1
1
1
1
1
1
1
1
1
1
1
1
1
1
1
1
1
1
1
1
1
1
1
1
1
1
1
1
1
1
1
1
1
1
1
1
1
1
1
1
1
1
1
1
1
1
1
1
1
1
1
1
1
1
1
1
1
1
1
1
1
1
1
1
1
1
1
1
1
1
1
1
1
1
1
1
1
1
1
1
1
1
1
1
1
1
1
1
1
1
1
1
1
1
1
1
1
1
1
1
1
1
1
1
1
1
1
1
1
1
1
1
1
1
1
1
1
1
1
1
1
1
1
1
1
1
1
1
1
1
1
1
1
1
1
1
1
1
1
1
1
1
1
1
1
1
1
1
1
1
1
1
1
1
1
1
1
1
1
1
1
1
1
1
1
1
1
1
1
1
1
1
1
1
1
1
1
1
1
1
1
1
1
1
1
1
1
1
1
1
1
1
1
1
1
1
1
1
1
1
1
1
1
1
1
1
1
1
1
1
1
1
1
1
1
1
1
1
1
1
1
1
1
1
1
1
1
1
1
1
1
1
1
1
1
1
1
1
1
1
1
1
1
1
1
1
1
1
1
1
1
1
1
1
1
1
1
1
1
1
1
1
1
1
1
1
1
1
1
1
1
1
1
1
1
1
1
1
1
1
1
1
1
1
1
1
1
1
1
1
1
1
1
1
1
1
1
1
1
1
1
1
1
1
1
1
1
1
1
1
1
1
1
1
1
1
1
1
1
1
1
1
1
1
1
1
1
1
1
1
1
1
1
1
1
1
1
1
1
1
1
1
1
1
1
1
1
1
1
1
1
1
1
1
1
1
1
1
1
1
1
1
1
1
1
1
1
1
1
1
1
1
1
1
1
1
1
1
1
1
1
1
1
1
1
1
1
1
1
1
1
1
1
1
1
1
1
1
1
1
1
1
1
1
1
1
1
1
1
1
1
1
1
1
1
1
1
1
1
1
1
1
1
1
1
1
1
1
1
1
1
1
1
1
1
1
1
1
1
1
1
1
1
1
1
1
1
1
1
1
1
1
1
1
1
1
1
1
1
1
1
1
1
1
1
1
1
1
1
1
1
1
1
1
1
1
1
1
1
1
1
1
1
1
1
1
1
1
1
1
1
1
1
1
1
1
1
1
1
1
1
1
1
1
1
1
1
1
1
1
1
1
1
1
1
1
1
1
1
1
1
1
1
1
1
1
1
1
1
1
1
1
1
1
1
1
1
1
1
1
1
1
1
1
1
1
1
1
1
1
1
1
1
1
1
1
1
1
1
1
1
1
1
1
1
1
1
1
1
1
1
1
1
1
1
1
1
1
1
1
1
1
1
1
1
1
1
1
1
1
1
1
1
1
1
1
1
1
1
1
1
1
1
1
1
1
1
1
1
1
1
1
1
1
1
1
1
1
1
1
1
1
1
1
1
1
1
1
1
1
1
1
1
1
1
1
1
1
1
1
1
1
1
1
1
1
1
1
1
1
1
1
1
1
1
1
1
1
1
1
1
1
1
1
1
1
1
1
1
1
1
1
1
1
1
1
1
1
1
1
1
1
1
1
1
1
1
1
1
1
1
1
1
1
1
1
1
1
1
1
1
1
1
1
1
1
1
1
1
1
1
1
1
1
1
1
1
1
1
1
1
1
1
1
1
1
1
1
1
1
1
1
1
1
1
1
1
1
1
1
1
1
1
1
1
1
1
1
1
1
1
1
1
1
1
1
1
1
1
1
1
1
1
1
1
1
1
1
1
1
1
1
1
1
1
1
1
1
1
1
1
1
1
1
1
1
1
1
1
1
1
1
1
1
1
1
1
1
1
1
1
1
1
1
1
1
1
1
1
1
1
1
1
1
1
1
1
1
1
1
1
1
1
1
1
1
1
1
1
1
1
1
1
1
1
1
1
1
1
1
1
1
1
1
1
1
1
1
1
1
1
1
1
1
1
1
1
1
1
1
1
1
1
1
1
1
1
1
1
1
1
1
1
1
1
1
1
1
1
1
1
1
1
1
1
1
1
1
1
1
1
1
1
1
1
1
1
1
1
1
1
1
1
1
1
1
1
1
1
1
1
1
1
1
1
1
1
1
1
1
1
1
1
1
1
1
1
1
1
1
1
1
1
1
1
1
1
1
1
1
1
1
1
1
1
1
1
1
1
1
1
1
1
1
1
1
1
1
1
1
1
1
1
1
1
1
1
1
1
1
1
1
1
1
1
1
1
1
1
1
1
1
1
1
1
1
1
1
1
1
1
1
1
1
1
1
1
1
1
1
1
1
1
1
1
1
1
1
1
1
1
1
1
1
1
1
1
1
1
1
1
1
1
1
1
1
1
1
1
1
1
1
1
1
1
1
1
1
1
1
1
1
1
1
1
1
1
1
1
1
1
1
1
1
1
1
1
1
1
1
1
1
1
1
1
1
1
1
1
1
1
1
1
1
1
1
1
1
1
1
1
1
1
1
1
1
1
1
1
1
1
1
1
1
1
1
1
1
1
1
1
1
1
1
1
1
1
1
1
1
1
1
1
1
1
1
1
1
1
1
1
1
1
1
1
1
1
1
1
1
1
1
1
1
1
1
1
1
1
1
1
1
1
1
1
1
1
1
1
1
1
1
1
1
1
1
1
1
1
1
1
1
1
1
1
1
1
1
1
1
1
1
1
1
1
1
1
1
1
1
1
1
1
1
1
1
1
1
1
1
1
1
1
1
1
1
1
1
1
1
1
1
1
1
1
1
1
1
1
1
1
1
1
1
1
1
1
1
1
1
1
1
1
1
1
1
1
1
1
1
1
1
1
1
1
1
1
1
1
1
1
1
1
1
1
1
1
1
1
1
1
1
1
1
1
1
1
1
1
1
1
1
1
1
1
1
1
1
1
1
1
1
1
1
1
1
1
1
1
1
1
1
1
1
1
1
1
1
1
1
1
1
1
1
1
1
1
1
1
1
1
1
1
1
1
1
1
1
1
1
1
1
1
1
1
1
1
1
1
1
1
1
1
1
1
1
1
1
1
1
1
1
1
1
1
1
1
1
1
1
1
1
1
1
1
1
1
1
1
1
1
1
1
1
1
1
1
1
1
1
1
1
1
1
1
1
1
1
1
1
1
1
1
1
1
1
1
1
1
1
1
1
1
1
1
1
1
1
1
1
1
1
1
1
1
1
1
1
1
1
1
1
1
1
1
1
1
1
1
1
1
1
1
1
1
1
1
1
1
1
1
1
1
1
1
1
1
1
1
1
1
1
1
1
1
1
1
1
1
1
1
1
1
1
1
1
1
1
1
1
1
1
1
1
1
1
1
1
1
1
1
1
1
1
1
1
1
1
1
1
1
1
1
1
1
1
1
1
1
1
1
1
1
1
1
1
1
1
1
1
1
1
1
1
1
1
1
1
1
1
1
1
1
1
1
1
1
1
1
1
1
1
1
1
1
1
1
1
1
1
1
1
1
1
1
1
1
1
1
1
1
1
1
1
1
1
1
1
1
1
1
1
1
1
1
1
1
1
1
1
1
1
1
1
1
1
1
1
1
1
1
1
1
1
1
1
1
1
1
1
1
1
1
1
1
1
1
1
1
1
1
1
1
1
1
1
1
1
1
1
1
1
1
1
1
1
1
1
1
1
1
1
1
1
1
1
1
1
1
1
1
1
1
1
1
1
1
1
1
1
1
1
1
1
1
1
1
1
1
1
1
1
1
1
1
1
1
1
1
1
1
1
1
1
1
1
1
1
1
1
1
1
1
1
1
1
1
1
1
1
1
1
1
1
1
1
1
1
1
1
1
1
1
1
1
1
1
1
1
1
1
1
1
1
1
1
1
1
1
1
1
1
1
1
1
1
1
1
1
1
1
1
1
1
1
1
1
1
1
1
1
1
1
1
1
1
1
1
1
1
1
1
1
1
1
1
1
1
1
1
1
1
1
1
1
1
1
1
1
1
1
1
1
1
1
1
1
1
1
1
1
1
1
1
1
1
1
1
1
1
1
1
1
1
1
1
1
1
1
1
1
1
1
1
1
1
1
1
1
1
1
1
1
1
1
1
1
1
1
1
1
1
1
1
1
1
1
1
1
1
1
1
1
1
1
1
1
1
1
1
1
1
1
1
1
1
1
1
1
1
1
1
1
1
1
1
1
1
1
1
1
1
1
1
1
1
1
1
1
1
1
1
1
1
1
1
1
1
1
1
1
1
1
1
1
1
1
1
1
1
1
1
1
1
1
1
1
1
1
1
1
1
1
1
1
1
1
1
1
1
1
1
1
1
1
1
1
1
1
1
1
1
1
1
1
1
1
1
1
1
1
1
1
1
1
1
1
1
1
1
1
1
1
1
1
1
1
1
1
1
1
1
1
1
1
1
1
1
1
1
1
1
1
1
1
1
1
1
1
1
1
1
1
1
1
1
1
1
1
1
1
1
1
1
1
1
1
1
1
1
1
1
1
1
1
1
1
1
1
1
1
1
1
1
1
1
1
1
1
1
1
1
1
1
1
1
1
1
1
1
1
1
1
1
1
1
1
1
1
1
1
1
1
1
1
1
1
1
1
1
1
1
1
1
1
1
1
1
1
1
1
1
1
1
1
1
1
1
1
1
1
1
1
1
1
1
1
1
1
1
1
1
1
1
1
1
1
1
1
1
1
1
1
1
1
1
1
1
1
1
1
1
1
1
1
1
1
1
1
1
1
1
1
1
1
1
1
1
1
1
1
1
1
1
1
1
1
1
1
1
1
1
1
1
1
1
1
1
1
1
1
1
1
1
1
1
1
1
1
1
1
1
1
1
1
1
1
1
1
1
1
1
1
1
1
1
1
1
1
1
1
1
1
1
1
1
1
1
1
1
1
1
1
1
1
1
1
0.999996
0.999971
0.999952
0.999969
1
1
1
1
1
1
1
1
1
1
1
0.999982
0.999917
0.999825
0.999707
0.999579
0.999445
0.999319
0.999202
0.9991
0.999036
0.99897
0.998983
0.99896
0.999077
0.999079
0.99934
0.99936
7.98089e-05
8.00731e-05
8.07408e-05
8.18325e-05
8.29449e-05
8.46372e-05
8.65051e-05
8.86256e-05
9.08929e-05
9.34859e-05
9.60176e-05
9.86143e-05
0.000101118
0.000103467
0.000105451
0.000107021
0.000108087
0.000108599
0.000108644
0.000108464
0.000108004
0.000108103
0.000109953
0.00011368
0.000119611
0.000129392
0.000143661
0.000161039
0.00017872
0.000193744
0.000204907
0.000213125
0.000220317
0.000228518
0.000239008
0.000251931
0.00026673
0.000282654
0.000299236
0.000316369
0.000334207
0.00035298
0.000372839
0.000393956
0.000416287
0.000440049
0.000465015
0.000491666
0.000519465
0.000549366
0.000580249
0.000613827
0.000648127
0.000685909
0.000724187
0.000766867
0.000809822
0.000857238
0.000903541
0.000952953
0.00100107
0.0010564
0.0011197
0.00120158
0.00129571
0.00139669
0.00147743
0.00152347
0.00153002
0.00152883
0.0015255
0.00155749
0.00168908
0.00196567
0.00232795
0.00273281
0.00313942
0.00352313
0.00387267
0.00415362
0.0043494
0.00445347
0.00447354
0.00442776
0.00435704
0.00425865
0.0041423
0.0039961
0.00383453
0.00364405
0.00343113
0.00319895
0.0029251
0.00265097
0.00230153
0.00198913
0.00153915
0.00120802
0.000617582
0.000257069
5.78784e-10
5.20785e-09
4.54432e-09
4.41629e-09
4.11165e-09
3.88299e-09
4.00774e-09
4.00352e-09
4.35454e-09
4.54986e-09
4.93239e-09
5.20976e-09
5.63889e-09
5.97165e-09
6.35827e-09
6.67291e-09
6.93978e-09
4.51488e-09
2.43036e-09
2.12933e-09
1.6513e-09
1.82421e-09
2.88932e-09
4.2862e-09
6.03159e-09
4.80571e-09
3.60096e-09
2.77548e-09
1.93217e-09
1.68315e-10
1.13326e-10
1.0932e-10
1.07827e-10
1.0781e-10
1.08397e-10
1.08653e-10
1.08006e-10
1.06554e-10
1.04851e-10
1.03264e-10
1.01921e-10
1.00758e-10
9.96766e-11
9.86523e-11
9.76406e-11
9.67162e-11
9.57936e-11
9.50057e-11
9.42084e-11
9.35852e-11
9.28888e-11
9.24487e-11
9.18515e-11
9.1596e-11
9.11e-11
9.10148e-11
9.07494e-11
9.09824e-11
9.115e-11
9.1689e-11
9.18932e-11
9.19356e-11
9.22704e-11
9.31819e-11
9.5772e-11
9.80661e-11
1.0142e-10
4.64525e-11
1.66457e-11
1.66457e-11
1.66639e-11
1.02056e-10
1.15641e-10
1.48039e-10
2.10144e-10
2.89464e-10
3.82461e-10
4.63973e-10
5.45292e-10
5.85792e-10
4.60661e-10
1.27995e-10
4.15733e-11
4.15632e-11
4.15515e-11
4.15377e-11
4.15228e-11
4.15072e-11
4.14913e-11
4.14761e-11
4.14609e-11
4.14477e-11
4.14348e-11
4.14244e-11
4.14144e-11
4.14068e-11
4.13991e-11
4.13931e-11
4.13859e-11
4.13761e-11
9.62084e-13
1.56581e-12
3.44069e-13
9.61723e-14
1.855e-14
9.05796e-15
2.9126e-14
7.56991e-14
1.36599e-13
1.73294e-13
2.10376e-13
2.35683e-13
2.70445e-13
2.94795e-13
3.22944e-13
3.45588e-13
3.63339e-13
3.51392e-13
2.87518e-13
2.73749e-13
2.42694e-13
2.43713e-13
2.80695e-13
3.25645e-13
3.87779e-13
3.52435e-13
4.04332e-13
4.97426e-13
5.96221e-13
6.45027e-13
5.91746e-13
5.51104e-13
5.27633e-13
5.03264e-13
4.79482e-13
4.56004e-13
4.34206e-13
4.14541e-13
4.14883e-13
4.15338e-13
4.16363e-13
4.19271e-13
4.26565e-13
4.5325e-13
4.86771e-13
5.40766e-13
5.92975e-13
6.68184e-13
7.6814e-13
8.72948e-13
1.01064e-12
1.1576e-12
1.35185e-12
1.56319e-12
1.84158e-12
2.12793e-12
2.52982e-12
2.90165e-12
3.44473e-12
3.86885e-12
4.58388e-12
5.18274e-12
6.51794e-12
8.01726e-12
1.09639e-11
1.31603e-11
1.5653e-11
1.55457e-11
1.69693e-11
1.66458e-11
1.8291e-11
1.87332e-11
3.15679e-11
6.41655e-11
1.26381e-10
2.05717e-10
2.98717e-10
3.80207e-10
4.6134e-10
5.01589e-10
5.42071e-10
5.34478e-10
5.68149e-10
5.38926e-10
5.84538e-10
5.31745e-10
5.87512e-10
5.08658e-10
5.6921e-10
4.69096e-10
5.24185e-10
4.12974e-10
4.47595e-10
3.4611e-10
3.51884e-10
2.80743e-10
2.57815e-10
1.91415e-10
9.42231e-11
4.13739e-11
3.66365e-15
9.19571e-16
3.46477e-17
1.33715e-18
3.04426e-30
9.57432e-27
2.79718e-23
1.65189e-19
2.77959e-18
5.93329e-18
8.59859e-18
1.04834e-17
1.25947e-17
1.39619e-17
1.53376e-17
1.63332e-17
1.68304e-17
1.67356e-17
1.49102e-17
1.42062e-17
1.29563e-17
1.31187e-17
1.4565e-17
1.70104e-17
2.11767e-17
2.34631e-17
3.06021e-17
4.2273e-17
5.7156e-17
7.07795e-17
7.46534e-17
7.68496e-17
7.96449e-17
8.20661e-17
8.43661e-17
8.62995e-17
8.75052e-17
8.78166e-17
9.16359e-17
9.46125e-17
9.65422e-17
9.74433e-17
9.7773e-17
1.03271e-16
1.09472e-16
1.22507e-16
1.32028e-16
1.50064e-16
1.77484e-16
2.04612e-16
2.44463e-16
2.87192e-16
3.47892e-16
4.20992e-16
5.14924e-16
6.25418e-16
7.71956e-16
9.38765e-16
1.16521e-15
1.40472e-15
1.75084e-15
2.11702e-15
2.72443e-15
3.43191e-15
4.67556e-15
5.90499e-15
7.61127e-15
8.36046e-15
9.43931e-15
9.59853e-15
1.08253e-14
1.22861e-14
1.89741e-14
3.42725e-14
7.69585e-14
1.51604e-13
2.79218e-13
4.22628e-13
6.09928e-13
7.39427e-13
8.9598e-13
9.07746e-13
9.86996e-13
9.09956e-13
1.00289e-12
8.84378e-13
9.89321e-13
8.26176e-13
9.33741e-13
7.43579e-13
8.48714e-13
6.61397e-13
7.75065e-13
6.59013e-13
9.34435e-13
1.20681e-12
2.38543e-12
2.72554e-12
2.18049e-12
7.18899e-13
1.52998e-17
7.35447e-19
4.21729e-21
1.55695e-23
2.00074e-38
1.1005e-34
6.24981e-31
3.77928e-27
2.90815e-23
1.81232e-22
3.40957e-22
4.61964e-22
5.77645e-22
6.45087e-22
6.9897e-22
7.29235e-22
7.26018e-22
7.0573e-22
6.41436e-22
6.19463e-22
6.01407e-22
6.53049e-22
7.61389e-22
9.45915e-22
1.24031e-21
1.53553e-21
2.11315e-21
3.03408e-21
4.26813e-21
5.603e-21
6.47536e-21
7.25927e-21
8.13333e-21
9.05739e-21
1.00438e-20
1.10571e-20
1.20321e-20
1.29186e-20
1.4333e-20
1.56708e-20
1.68128e-20
1.76622e-20
1.82099e-20
1.96804e-20
2.11518e-20
2.41552e-20
2.59975e-20
2.98953e-20
3.63378e-20
4.23242e-20
5.19875e-20
6.20545e-20
7.76673e-20
9.75118e-20
1.23541e-19
1.5627e-19
2.0023e-19
2.55422e-19
3.3089e-19
4.21783e-19
5.51867e-19
7.08979e-19
9.52538e-19
1.26439e-18
1.76355e-18
2.32936e-18
3.11203e-18
3.67957e-18
4.39997e-18
4.80917e-18
5.86021e-18
7.26436e-18
1.14438e-17
1.96212e-17
4.30989e-17
9.01815e-17
1.92552e-16
3.33001e-16
5.54412e-16
7.38382e-16
9.84677e-16
1.04128e-15
1.17942e-15
1.0737e-15
1.19681e-15
1.04834e-15
1.18433e-15
9.92919e-16
1.13857e-15
9.38343e-16
1.11886e-15
9.67418e-16
1.31846e-15
1.52835e-15
3.68962e-15
8.05726e-15
2.41621e-14
4.24348e-14
4.44921e-14
1.02554e-14
6.21173e-20
6.76988e-22
5.84411e-25
1.81265e-28
2.23045e-45
2.55061e-41
3.71387e-37
6.62668e-33
1.32068e-28
4.89802e-27
1.30079e-26
1.99906e-26
2.60457e-26
2.9212e-26
3.10474e-26
3.16609e-26
3.05985e-26
2.92473e-26
2.72043e-26
2.77612e-26
2.99743e-26
3.59428e-26
4.47383e-26
5.81111e-26
7.81662e-26
1.02756e-25
1.45117e-25
2.10782e-25
2.99751e-25
4.04871e-25
4.98967e-25
6.00028e-25
7.209e-25
8.61187e-25
1.02182e-24
1.20064e-24
1.39334e-24
1.59591e-24
1.88077e-24
2.18262e-24
2.47706e-24
2.73616e-24
2.94221e-24
3.29423e-24
3.64294e-24
4.28087e-24
4.67078e-24
5.4679e-24
6.83433e-24
8.06014e-24
1.0162e-23
1.22872e-23
1.58352e-23
2.05228e-23
2.68319e-23
3.51449e-23
4.66116e-23
6.20356e-23
8.37525e-23
1.12213e-22
1.53923e-22
2.08704e-22
2.9275e-22
4.09218e-22
5.90015e-22
8.18e-22
1.13527e-21
1.43978e-21
1.83393e-21
2.1978e-21
2.88165e-21
3.8854e-21
6.35598e-21
1.10903e-20
2.36515e-20
4.94382e-20
1.12379e-19
2.12348e-19
3.94688e-19
5.74063e-19
8.37765e-19
9.41933e-19
1.13539e-18
1.05507e-18
1.19378e-18
1.06641e-18
1.22655e-18
1.0712e-18
1.26945e-18
1.14255e-18
1.48557e-18
1.55646e-18
2.73335e-18
5.05043e-18
1.76331e-17
5.72651e-17
2.4496e-16
6.25606e-16
8.02012e-16
1.1976e-16
2.27471e-22
6.53545e-25
8.80407e-29
2.32508e-33
1.55362e-51
2.31019e-47
4.5172e-43
1.171e-38
3.42429e-34
1.19712e-31
4.77938e-31
8.47454e-31
1.15609e-30
1.30509e-30
1.36549e-30
1.37561e-30
1.32062e-30
1.28077e-30
1.25967e-30
1.4109e-30
1.71566e-30
2.24572e-30
2.92918e-30
3.87856e-30
5.26121e-30
7.15786e-30
1.0268e-29
1.49748e-29
2.13346e-29
2.92518e-29
3.77641e-29
4.80744e-29
6.1328e-29
7.78472e-29
9.79046e-29
1.21675e-28
1.49408e-28
1.81436e-28
2.26026e-28
2.77512e-28
3.32726e-28
3.86851e-28
4.35621e-28
5.07242e-28
5.8075e-28
7.04693e-28
7.86916e-28
9.42303e-28
1.21153e-27
1.45196e-27
1.87795e-27
2.30027e-27
3.04565e-27
4.06117e-27
5.46309e-27
7.37962e-27
1.01022e-26
1.39713e-26
1.96206e-26
2.75156e-26
3.95128e-26
5.6266e-26
8.22913e-26
1.20754e-25
1.80513e-25
2.62899e-25
3.81096e-25
5.179e-25
7.05088e-25
9.23958e-25
1.30495e-24
1.90758e-24
3.25886e-24
5.90928e-24
1.25454e-23
2.62039e-23
6.03106e-23
1.19928e-22
2.39916e-22
3.77674e-22
5.97463e-22
7.23612e-22
9.3546e-22
9.30908e-22
1.0853e-21
1.01348e-21
1.20436e-21
1.13238e-21
1.42646e-21
1.46584e-21
2.19015e-21
2.99069e-21
7.31141e-21
1.86158e-20
8.57421e-20
4.01379e-19
2.37555e-18
8.37247e-18
1.24771e-17
1.12998e-18
7.12617e-25
6.60454e-28
1.74554e-32
3.9806e-38
1.01503e-52
1.5953e-52
2.41704e-48
4.20576e-44
9.70159e-40
2.77279e-36
1.71263e-35
3.53888e-35
5.08097e-35
5.80453e-35
6.04319e-35
6.152e-35
6.09809e-35
6.25365e-35
6.69566e-35
8.29208e-35
1.1136e-34
1.55281e-34
2.08313e-34
2.77119e-34
3.7625e-34
5.23239e-34
7.60701e-34
1.1143e-33
1.58839e-33
2.19668e-33
2.93251e-33
3.90696e-33
5.2413e-33
7.004e-33
9.25348e-33
1.20615e-32
1.55542e-32
1.98975e-32
2.60603e-32
3.36953e-32
4.2528e-32
5.19332e-32
6.12262e-32
7.41529e-32
8.8064e-32
1.10426e-31
1.26867e-31
1.55843e-31
2.06068e-31
2.51763e-31
3.33987e-31
4.15004e-31
5.63746e-31
7.71785e-31
1.06599e-30
1.48082e-30
2.08756e-30
2.99052e-30
4.36e-30
6.37775e-30
9.57274e-30
1.42608e-29
2.17214e-29
3.33822e-29
5.1829e-29
7.9294e-29
1.20501e-28
1.75215e-28
2.55218e-28
3.63897e-28
5.52705e-28
8.7179e-28
1.55955e-27
2.95287e-27
6.33969e-27
1.34427e-26
3.09349e-26
6.34869e-26
1.32634e-25
2.23664e-25
3.7887e-25
4.97976e-25
6.92208e-25
7.53158e-25
9.43617e-25
9.488e-25
1.18671e-24
1.23327e-24
1.70525e-24
2.07781e-24
3.77362e-24
6.74034e-24
2.02819e-23
6.79052e-23
4.07978e-22
2.67362e-21
2.12542e-20
9.86923e-20
1.63687e-19
8.49659e-21
1.8372e-27
9.1361e-31
5.73471e-35
2.27143e-39
1.61515e-49
1.62901e-57
2.9941e-53
5.03795e-49
8.42647e-45
6.43145e-41
6.09966e-40
1.47026e-39
2.2289e-39
2.5948e-39
2.73373e-39
2.90757e-39
3.11651e-39
3.48966e-39
4.08508e-39
5.48962e-39
7.92869e-39
1.15723e-38
1.58056e-38
2.09915e-38
2.84534e-38
4.02196e-38
5.9317e-38
8.75247e-38
1.24979e-37
1.73788e-37
2.37665e-37
3.28315e-37
4.59341e-37
6.40958e-37
8.82592e-37
1.19761e-36
1.61091e-36
2.15759e-36
2.95547e-36
4.00484e-36
5.29876e-36
6.77382e-36
8.34432e-36
1.04967e-35
1.29285e-35
1.67434e-35
1.98421e-35
2.50399e-35
3.40308e-35
4.24867e-35
5.77997e-35
7.29913e-35
1.0164e-34
1.42676e-34
2.02061e-34
2.88114e-34
4.17533e-34
6.18015e-34
9.33659e-34
1.42043e-33
2.22485e-33
3.45672e-33
5.47789e-33
8.80325e-33
1.42139e-32
2.28401e-32
3.64638e-32
5.66094e-32
8.81518e-32
1.36008e-31
2.21534e-31
3.75168e-31
7.03612e-31
1.39239e-30
3.04789e-30
6.63077e-30
1.53353e-29
3.236e-29
6.9455e-29
1.24451e-28
2.2327e-28
3.19374e-28
4.77154e-28
5.73482e-28
7.80417e-28
8.80962e-28
1.20415e-27
1.42134e-27
2.21689e-27
3.22781e-27
6.86386e-27
1.50522e-26
5.51242e-26
2.39031e-25
1.84945e-24
1.64728e-23
1.70708e-22
1.00236e-21
1.77837e-21
5.03582e-23
3.78901e-30
2.01256e-33
3.34352e-37
2.76646e-41
1.68696e-46
1.97583e-62
4.81623e-58
9.7354e-54
1.71956e-49
1.56673e-45
2.20198e-44
6.14433e-44
9.83914e-44
1.1764e-43
1.28284e-43
1.48437e-43
1.78975e-43
2.20851e-43
2.78013e-43
3.95721e-43
6.03169e-43
9.13378e-43
1.26481e-42
1.67343e-42
2.26354e-42
3.24465e-42
4.86349e-42
7.25109e-42
1.0389e-41
1.45019e-41
2.01843e-41
2.87077e-41
4.16111e-41
6.02268e-41
8.58621e-41
1.20506e-40
1.68054e-40
2.34348e-40
3.34128e-40
4.72327e-40
6.52358e-40
8.69925e-40
1.11673e-39
1.45613e-39
1.85794e-39
2.48228e-39
3.03736e-39
3.93985e-39
5.49891e-39
7.02682e-39
9.80067e-39
1.26008e-38
1.79768e-38
2.58536e-38
3.75108e-38
5.48331e-38
8.15819e-38
1.24526e-37
1.94606e-37
3.07186e-37
5.01331e-37
8.10367e-37
1.33489e-36
2.24079e-36
3.76586e-36
6.35397e-36
1.06667e-35
1.76379e-35
2.93104e-35
4.86751e-35
8.47609e-35
1.53416e-34
3.01772e-34
6.24196e-34
1.40027e-33
3.1413e-33
7.36215e-33
1.60222e-32
3.51935e-32
6.67152e-32
1.25934e-31
1.96019e-31
3.14396e-31
4.1917e-31
6.21571e-31
7.92024e-31
1.19881e-30
1.62752e-30
2.87306e-30
4.93266e-30
1.22086e-29
3.26222e-29
1.44468e-28
7.98586e-28
7.8339e-27
9.20483e-26
1.20703e-24
8.63952e-24
1.58041e-23
2.33606e-25
6.12835e-33
4.45285e-36
1.11515e-39
1.24983e-43
2.85654e-48
2.62287e-61
9.17166e-63
2.25673e-58
4.56085e-54
4.13784e-50
8.18982e-49
2.60831e-48
4.40153e-48
5.45225e-48
6.32978e-48
8.2951e-48
1.14757e-47
1.54404e-47
2.04521e-47
3.0291e-47
4.82237e-47
7.54947e-47
1.05867e-46
1.39496e-46
1.88363e-46
2.73598e-46
4.17542e-46
6.30593e-46
9.07801e-46
1.27105e-45
1.79271e-45
2.6118e-45
3.90239e-45
5.82802e-45
8.55596e-45
1.23533e-44
1.77673e-44
2.56673e-44
3.79281e-44
5.56968e-44
7.99826e-44
1.10863e-43
1.47881e-43
1.99434e-43
2.63201e-43
3.62259e-43
4.57705e-43
6.1021e-43
8.73823e-43
1.144e-42
1.63527e-42
2.14375e-42
3.13207e-42
4.61248e-42
6.85226e-42
1.0261e-41
1.56588e-41
2.46109e-41
3.97272e-41
6.49378e-41
1.1027e-40
1.85085e-40
3.16663e-40
5.54772e-40
9.70918e-40
1.7194e-39
3.03567e-39
5.33326e-39
9.43715e-39
1.67872e-38
3.11575e-38
6.00388e-38
1.23871e-37
2.67794e-37
6.1812e-37
1.43353e-36
3.42832e-36
7.72465e-36
1.74147e-35
3.48795e-35
6.91511e-35
1.16946e-34
2.01255e-34
2.97768e-34
4.81949e-34
6.93901e-34
1.16561e-33
1.81942e-33
3.63707e-33
7.33622e-33
2.10731e-32
6.8023e-32
3.61224e-31
2.50282e-30
3.05842e-29
4.60258e-28
7.4185e-27
6.26088e-26
1.14091e-25
8.45479e-28
7.6793e-36
7.61676e-39
2.25431e-42
3.01895e-46
1.07549e-50
4.60094e-58
2.2637e-67
7.01828e-63
1.39171e-58
1.20346e-54
3.17391e-53
1.13314e-52
2.00632e-52
2.60158e-52
3.32155e-52
5.08203e-52
8.0508e-52
1.15988e-51
1.58929e-51
2.42391e-51
4.01038e-51
6.4834e-51
9.20761e-51
1.20885e-50
1.63049e-50
2.39945e-50
3.73328e-50
5.7216e-50
8.28511e-50
1.16314e-49
1.65778e-49
2.46523e-49
3.7828e-49
5.8061e-49
8.74033e-49
1.29257e-48
1.90883e-48
2.84433e-48
4.33968e-48
6.59515e-48
9.81107e-48
1.40879e-47
1.94706e-47
2.70972e-47
3.69237e-47
5.2275e-47
6.81616e-47
9.33565e-47
1.37023e-46
1.83867e-46
2.69229e-46
3.60284e-46
5.38856e-46
8.12264e-46
1.23509e-45
1.8937e-45
2.96208e-45
4.78812e-45
7.97331e-45
1.34752e-44
2.3779e-44
4.13826e-44
7.34831e-44
1.34269e-43
2.44749e-43
4.54673e-43
8.43953e-43
1.57169e-42
2.95451e-42
5.60588e-42
1.10588e-41
2.26131e-41
4.89303e-41
1.1056e-40
2.63448e-40
6.32784e-40
1.55256e-39
3.63247e-39
8.44635e-39
1.7877e-38
3.72788e-38
6.83726e-38
1.26308e-37
2.07035e-37
3.66128e-37
5.94752e-37
1.10957e-36
1.98597e-36
4.49058e-36
1.05859e-35
3.51339e-35
1.35667e-34
8.55437e-34
7.30083e-33
1.09068e-31
2.04258e-30
3.93556e-29
3.79837e-28
6.67673e-28
2.38816e-30
7.41945e-39
9.80089e-42
3.10603e-45
4.35147e-49
2.00123e-53
9.71844e-60
8.08826e-72
2.56754e-67
4.77655e-63
3.86813e-59
1.28979e-57
5.06286e-57
9.35516e-57
1.28624e-56
1.86787e-56
3.38283e-56
6.04153e-56
9.16895e-56
1.2857e-55
2.0083e-55
3.44526e-55
5.75078e-55
8.27529e-55
1.08332e-54
1.46044e-54
2.17765e-54
3.45737e-54
5.38366e-54
7.8479e-54
1.10463e-53
1.58818e-53
2.40472e-53
3.7793e-53
5.94399e-53
9.14578e-53
1.38061e-52
2.08589e-52
3.1941e-52
5.01551e-52
7.862e-52
1.20756e-51
1.79067e-51
2.55709e-51
3.66435e-51
5.14587e-51
7.4822e-51
1.00587e-50
1.41428e-50
2.12532e-50
2.92318e-50
4.38189e-50
5.9904e-50
9.16793e-50
1.41404e-49
2.20006e-49
3.45266e-49
5.53276e-49
9.18999e-49
1.57704e-48
2.75226e-48
5.0418e-48
9.08689e-48
1.6736e-47
3.18755e-47
6.05137e-47
1.17857e-46
2.29845e-46
4.52757e-46
9.02164e-46
1.81926e-45
3.80496e-45
8.23425e-45
1.8683e-44
4.41264e-44
1.08852e-43
2.71234e-43
6.85732e-43
1.66955e-42
4.02312e-42
9.00392e-42
1.98038e-41
3.93249e-41
7.80736e-41
1.41411e-40
2.73433e-40
4.99742e-40
1.03529e-39
2.11648e-39
5.4014e-39
1.47872e-38
5.63964e-38
2.57787e-37
1.90961e-36
1.97273e-35
3.5346e-34
8.01504e-33
1.79803e-31
1.92918e-30
3.17447e-30
5.28262e-33
5.54255e-42
9.66538e-45
3.13033e-48
4.29611e-52
2.09154e-56
1.83016e-62
3.52018e-76
1.05641e-71
1.82047e-67
1.36869e-63
5.50907e-62
2.33285e-61
4.47415e-61
6.62853e-61
1.12844e-60
2.41134e-60
4.76183e-60
7.5249e-60
1.07324e-59
1.71227e-59
3.04243e-59
5.24377e-59
7.64995e-59
9.99402e-59
1.34738e-58
2.03589e-58
3.30006e-58
5.22515e-58
7.67262e-58
1.08289e-57
1.56888e-57
2.4147e-57
3.87927e-57
6.23834e-57
9.78754e-57
1.50424e-56
2.31842e-56
3.63709e-56
5.86146e-56
9.44953e-56
1.49409e-55
2.28146e-55
3.35723e-55
4.94326e-55
7.14056e-55
1.06463e-54
1.47386e-54
2.12533e-54
3.26645e-54
4.60366e-54
7.05985e-54
9.86407e-54
1.54404e-53
2.43591e-53
3.87691e-53
6.22583e-53
1.02169e-52
1.74255e-52
3.07883e-52
5.5431e-52
1.05315e-51
1.96396e-51
3.74958e-51
7.44015e-51
1.47072e-50
3.001e-50
6.14399e-50
1.2777e-49
2.69303e-49
5.75402e-49
1.2731e-48
2.90947e-48
6.92074e-48
1.70889e-47
4.37448e-47
1.13264e-46
2.96157e-46
7.51686e-46
1.88473e-45
4.46311e-45
1.03841e-44
2.22919e-44
4.76279e-44
9.50588e-44
2.01062e-43
4.12038e-43
9.47193e-43
2.20147e-42
6.3229e-42
1.99642e-41
8.69629e-41
4.65525e-40
4.00715e-39
4.92592e-38
1.0388e-36
2.78011e-35
7.08483e-34
8.23244e-33
1.23342e-32
9.20665e-36
3.23584e-45
7.49024e-48
2.4191e-51
3.12664e-55
1.44509e-59
1.23785e-65
1.71769e-80
4.79265e-76
7.61133e-72
5.29136e-68
2.47238e-66
1.10979e-65
2.19865e-65
3.58012e-65
7.30226e-65
1.81379e-64
3.89291e-64
6.35838e-64
9.19308e-64
1.49596e-63
2.75142e-63
4.89685e-63
7.24615e-63
9.45472e-63
1.27538e-62
1.95302e-62
3.23294e-62
5.20751e-62
7.70674e-62
1.09089e-61
1.59164e-61
2.48728e-61
4.07875e-61
6.69579e-61
1.06931e-60
1.66992e-60
2.61962e-60
4.1995e-60
6.92966e-60
1.14605e-59
1.86041e-59
2.91764e-59
4.41313e-59
6.66308e-59
9.8817e-59
1.5084e-58
2.14747e-58
3.17261e-58
4.98132e-58
7.19043e-58
1.12721e-57
1.60997e-57
2.5763e-57
4.15569e-57
6.76397e-57
1.11123e-56
1.86689e-56
3.26756e-56
5.93976e-56
1.10232e-55
2.17036e-55
4.18469e-55
8.27738e-55
1.71025e-54
3.5189e-54
7.51741e-54
1.6142e-53
3.53778e-53
7.87241e-53
1.77761e-52
4.15276e-52
1.00048e-51
2.49451e-51
6.44122e-51
1.71449e-50
4.62012e-50
1.2534e-49
3.32201e-49
8.6958e-49
2.18008e-48
5.37896e-48
1.24675e-47
2.86995e-47
6.29468e-47
1.45657e-46
3.33477e-46
8.49621e-46
2.23394e-45
7.19681e-45
2.60214e-44
1.28631e-43
7.97871e-43
7.89415e-42
1.13606e-40
2.76948e-39
8.54436e-38
2.41825e-36
2.97089e-35
3.95096e-35
1.27478e-38
1.5042e-48
4.6818e-51
1.48781e-54
1.76067e-58
7.16935e-63
4.37084e-69
9.17651e-85
2.36197e-80
3.45012e-76
2.21526e-72
1.16353e-70
5.45072e-70
1.1116e-69
2.03591e-69
5.02659e-69
1.42254e-68
3.27481e-68
5.50347e-68
8.0513e-68
1.33526e-67
2.54092e-67
4.66924e-67
7.01104e-67
9.14358e-67
1.23466e-66
1.91622e-66
3.23961e-66
5.31013e-66
7.92376e-66
1.12522e-65
1.65276e-65
2.62024e-65
4.3811e-65
7.33303e-65
1.19046e-64
1.88633e-64
3.00643e-64
4.91462e-64
8.28694e-64
1.40285e-63
2.33258e-63
3.74813e-63
5.81385e-63
8.98365e-63
1.36539e-62
2.13061e-62
3.11497e-62
4.70966e-62
7.54624e-62
1.11496e-61
1.7854e-61
2.60679e-61
4.26221e-61
7.02676e-61
1.16928e-60
1.96472e-60
3.37815e-60
6.06449e-60
1.13343e-59
2.16667e-59
4.41747e-59
8.80055e-59
1.80252e-58
3.87595e-58
8.29696e-58
1.85431e-57
4.17208e-57
9.62152e-57
2.25652e-56
5.37315e-56
1.32325e-55
3.3561e-55
8.76988e-55
2.36889e-54
6.56796e-54
1.84494e-53
5.20763e-53
1.44362e-52
3.95608e-52
1.05061e-51
2.75423e-51
6.88478e-51
1.70885e-50
4.10818e-50
1.0397e-49
2.64951e-49
7.46924e-49
2.21054e-48
7.9588e-48
3.27185e-47
1.82357e-46
1.29719e-45
1.45973e-44
2.42193e-43
6.71136e-42
2.33682e-40
7.1964e-39
9.14575e-38
1.05493e-37
1.41655e-41