/*--------------------------------*- C++ -*----------------------------------*\
| =========                 |                                                 |
| \\      /  F ield         | OpenFOAM: The Open Source CFD Toolbox           |
|  \\    /   O peration     | Version:  2.4.0                                 |
|   \\  /    A nd           | Web:      www.OpenFOAM.org                      |
|    \\/     M anipulation  |                                                 |
\*---------------------------------------------------------------------------*/
FoamFile
{
    version     2.0;
    format      ascii;
    class       volScalarField;
    location    "0.028";
    object      p;
}
// * * * * * * * * * * * * * * * * * * * * * * * * * * * * * * * * * * * * * //

dimensions      [1 -1 -2 0 0 0 0];

internalField   nonuniform List<scalar> 
60000
(
97.0534
97.0534
97.0534
97.0534
97.0534
97.0534
97.0534
97.0534
97.0534
97.0534
97.0534
97.0534
97.0534
97.0534
97.0534
97.0535
97.0535
97.0535
97.0535
97.0535
97.0535
97.0535
97.0536
97.0536
97.0536
97.0536
97.0536
97.0537
97.0537
97.0537
97.0537
97.0538
97.0538
97.0538
97.0539
97.0539
97.0539
97.054
97.054
97.054
97.0541
97.0541
97.0542
97.0542
97.0542
97.0543
97.0543
97.0544
97.0544
97.0545
97.0545
97.0546
97.0546
97.0547
97.0548
97.0548
97.0549
97.0549
97.055
97.0551
97.0551
97.0552
97.0553
97.0553
97.0554
97.0554
97.0555
97.0556
97.0556
97.0557
97.0557
97.0558
97.0558
97.0558
97.0558
97.0558
97.0558
97.0558
97.0558
97.0558
97.0557
97.0556
97.0556
97.0555
97.0553
97.0552
97.055
97.0549
97.0547
97.0545
97.0543
97.054
97.0538
97.0535
97.0533
97.053
97.0527
97.0524
97.0522
97.0519
95.0914
95.0914
95.0914
95.0914
95.0914
95.0914
95.0914
95.0914
95.0914
95.0914
95.0914
95.0914
95.0914
95.0914
95.0914
95.0915
95.0915
95.0915
95.0915
95.0915
95.0915
95.0915
95.0916
95.0916
95.0916
95.0916
95.0916
95.0917
95.0917
95.0917
95.0917
95.0918
95.0918
95.0918
95.0919
95.0919
95.0919
95.092
95.092
95.092
95.0921
95.0921
95.0922
95.0922
95.0922
95.0923
95.0923
95.0924
95.0924
95.0925
95.0925
95.0926
95.0926
95.0927
95.0928
95.0928
95.0929
95.0929
95.093
95.0931
95.0931
95.0932
95.0933
95.0933
95.0934
95.0934
95.0935
95.0936
95.0936
95.0937
95.0937
95.0938
95.0938
95.0938
95.0938
95.0939
95.0939
95.0938
95.0938
95.0938
95.0937
95.0937
95.0936
95.0935
95.0933
95.0932
95.0931
95.0929
95.0927
95.0925
95.0923
95.092
95.0918
95.0915
95.0913
95.091
95.0907
95.0904
95.0902
95.0899
93.1294
93.1294
93.1294
93.1294
93.1294
93.1294
93.1294
93.1294
93.1294
93.1294
93.1294
93.1294
93.1294
93.1294
93.1294
93.1295
93.1295
93.1295
93.1295
93.1295
93.1295
93.1295
93.1296
93.1296
93.1296
93.1296
93.1296
93.1297
93.1297
93.1297
93.1297
93.1298
93.1298
93.1298
93.1299
93.1299
93.1299
93.13
93.13
93.13
93.1301
93.1301
93.1302
93.1302
93.1302
93.1303
93.1303
93.1304
93.1304
93.1305
93.1305
93.1306
93.1306
93.1307
93.1308
93.1308
93.1309
93.1309
93.131
93.1311
93.1311
93.1312
93.1313
93.1313
93.1314
93.1314
93.1315
93.1316
93.1316
93.1317
93.1317
93.1318
93.1318
93.1318
93.1318
93.1319
93.1319
93.1318
93.1318
93.1318
93.1317
93.1317
93.1316
93.1315
93.1314
93.1312
93.1311
93.1309
93.1307
93.1305
93.1303
93.13
93.1298
93.1295
93.1293
93.129
93.1287
93.1284
93.1282
93.1279
91.1674
91.1674
91.1674
91.1674
91.1674
91.1674
91.1674
91.1674
91.1674
91.1674
91.1674
91.1674
91.1674
91.1674
91.1674
91.1675
91.1675
91.1675
91.1675
91.1675
91.1675
91.1675
91.1676
91.1676
91.1676
91.1676
91.1676
91.1677
91.1677
91.1677
91.1677
91.1678
91.1678
91.1678
91.1679
91.1679
91.1679
91.168
91.168
91.168
91.1681
91.1681
91.1682
91.1682
91.1682
91.1683
91.1683
91.1684
91.1684
91.1685
91.1685
91.1686
91.1686
91.1687
91.1688
91.1688
91.1689
91.1689
91.169
91.1691
91.1691
91.1692
91.1693
91.1693
91.1694
91.1695
91.1695
91.1696
91.1696
91.1697
91.1697
91.1698
91.1698
91.1698
91.1699
91.1699
91.1699
91.1699
91.1698
91.1698
91.1697
91.1697
91.1696
91.1695
91.1694
91.1692
91.1691
91.1689
91.1687
91.1685
91.1683
91.1681
91.1678
91.1676
91.1673
91.167
91.1667
91.1664
91.1662
91.1659
89.2054
89.2054
89.2054
89.2054
89.2054
89.2054
89.2054
89.2054
89.2054
89.2054
89.2054
89.2054
89.2054
89.2054
89.2054
89.2055
89.2055
89.2055
89.2055
89.2055
89.2055
89.2055
89.2056
89.2056
89.2056
89.2056
89.2056
89.2057
89.2057
89.2057
89.2057
89.2058
89.2058
89.2058
89.2059
89.2059
89.2059
89.206
89.206
89.206
89.2061
89.2061
89.2062
89.2062
89.2062
89.2063
89.2063
89.2064
89.2064
89.2065
89.2065
89.2066
89.2066
89.2067
89.2068
89.2068
89.2069
89.2069
89.207
89.2071
89.2071
89.2072
89.2073
89.2073
89.2074
89.2075
89.2075
89.2076
89.2076
89.2077
89.2077
89.2078
89.2078
89.2078
89.2079
89.2079
89.2079
89.2079
89.2079
89.2078
89.2078
89.2077
89.2076
89.2075
89.2074
89.2072
89.2071
89.2069
89.2067
89.2065
89.2063
89.2061
89.2058
89.2056
89.2053
89.205
89.2047
89.2044
89.2042
89.2039
87.2434
87.2434
87.2434
87.2434
87.2434
87.2434
87.2434
87.2434
87.2434
87.2434
87.2434
87.2434
87.2434
87.2434
87.2434
87.2435
87.2435
87.2435
87.2435
87.2435
87.2435
87.2435
87.2436
87.2436
87.2436
87.2436
87.2436
87.2437
87.2437
87.2437
87.2437
87.2438
87.2438
87.2438
87.2439
87.2439
87.2439
87.244
87.244
87.244
87.2441
87.2441
87.2442
87.2442
87.2442
87.2443
87.2443
87.2444
87.2444
87.2445
87.2445
87.2446
87.2446
87.2447
87.2448
87.2448
87.2449
87.2449
87.245
87.2451
87.2451
87.2452
87.2453
87.2453
87.2454
87.2455
87.2455
87.2456
87.2456
87.2457
87.2457
87.2458
87.2458
87.2459
87.2459
87.2459
87.2459
87.2459
87.2459
87.2458
87.2458
87.2457
87.2456
87.2455
87.2454
87.2453
87.2451
87.2449
87.2448
87.2445
87.2443
87.2441
87.2438
87.2436
87.2433
87.243
87.2428
87.2424
87.2422
87.2419
85.2814
85.2814
85.2814
85.2814
85.2814
85.2814
85.2814
85.2814
85.2814
85.2814
85.2814
85.2814
85.2814
85.2814
85.2814
85.2815
85.2815
85.2815
85.2815
85.2815
85.2815
85.2815
85.2816
85.2816
85.2816
85.2816
85.2816
85.2817
85.2817
85.2817
85.2817
85.2818
85.2818
85.2818
85.2819
85.2819
85.2819
85.282
85.282
85.282
85.2821
85.2821
85.2821
85.2822
85.2822
85.2823
85.2823
85.2824
85.2824
85.2825
85.2825
85.2826
85.2826
85.2827
85.2828
85.2828
85.2829
85.283
85.283
85.2831
85.2831
85.2832
85.2833
85.2833
85.2834
85.2835
85.2835
85.2836
85.2836
85.2837
85.2838
85.2838
85.2838
85.2839
85.2839
85.2839
85.2839
85.2839
85.2839
85.2839
85.2838
85.2837
85.2837
85.2836
85.2834
85.2833
85.2831
85.283
85.2828
85.2826
85.2823
85.2821
85.2819
85.2816
85.2813
85.281
85.2808
85.2805
85.2802
85.2799
83.3194
83.3194
83.3194
83.3194
83.3194
83.3194
83.3194
83.3194
83.3194
83.3194
83.3194
83.3194
83.3194
83.3194
83.3194
83.3195
83.3195
83.3195
83.3195
83.3195
83.3195
83.3195
83.3196
83.3196
83.3196
83.3196
83.3196
83.3197
83.3197
83.3197
83.3197
83.3198
83.3198
83.3198
83.3198
83.3199
83.3199
83.32
83.32
83.32
83.3201
83.3201
83.3201
83.3202
83.3202
83.3203
83.3203
83.3204
83.3204
83.3205
83.3205
83.3206
83.3206
83.3207
83.3208
83.3208
83.3209
83.321
83.321
83.3211
83.3211
83.3212
83.3213
83.3213
83.3214
83.3215
83.3215
83.3216
83.3217
83.3217
83.3218
83.3218
83.3219
83.3219
83.3219
83.3219
83.3219
83.3219
83.3219
83.3219
83.3218
83.3218
83.3217
83.3216
83.3215
83.3213
83.3212
83.321
83.3208
83.3206
83.3204
83.3201
83.3199
83.3196
83.3193
83.3191
83.3188
83.3185
83.3182
83.3179
81.3574
81.3574
81.3574
81.3574
81.3574
81.3574
81.3574
81.3574
81.3574
81.3574
81.3574
81.3574
81.3574
81.3574
81.3574
81.3575
81.3575
81.3575
81.3575
81.3575
81.3575
81.3575
81.3576
81.3576
81.3576
81.3576
81.3576
81.3577
81.3577
81.3577
81.3577
81.3578
81.3578
81.3578
81.3578
81.3579
81.3579
81.358
81.358
81.358
81.3581
81.3581
81.3581
81.3582
81.3582
81.3583
81.3583
81.3584
81.3584
81.3585
81.3585
81.3586
81.3586
81.3587
81.3588
81.3588
81.3589
81.359
81.359
81.3591
81.3591
81.3592
81.3593
81.3593
81.3594
81.3595
81.3595
81.3596
81.3597
81.3597
81.3598
81.3598
81.3599
81.3599
81.3599
81.36
81.36
81.36
81.36
81.3599
81.3599
81.3598
81.3597
81.3596
81.3595
81.3594
81.3592
81.359
81.3588
81.3586
81.3584
81.3582
81.3579
81.3576
81.3574
81.3571
81.3568
81.3565
81.3562
81.3559
79.3954
79.3954
79.3954
79.3954
79.3954
79.3954
79.3954
79.3954
79.3954
79.3954
79.3954
79.3954
79.3954
79.3954
79.3954
79.3955
79.3955
79.3955
79.3955
79.3955
79.3955
79.3955
79.3956
79.3956
79.3956
79.3956
79.3956
79.3957
79.3957
79.3957
79.3957
79.3958
79.3958
79.3958
79.3958
79.3959
79.3959
79.3959
79.396
79.396
79.3961
79.3961
79.3961
79.3962
79.3962
79.3963
79.3963
79.3964
79.3964
79.3965
79.3965
79.3966
79.3966
79.3967
79.3968
79.3968
79.3969
79.397
79.397
79.3971
79.3971
79.3972
79.3973
79.3973
79.3974
79.3975
79.3975
79.3976
79.3977
79.3977
79.3978
79.3978
79.3979
79.3979
79.398
79.398
79.398
79.398
79.398
79.398
79.3979
79.3979
79.3978
79.3977
79.3975
79.3974
79.3973
79.3971
79.3969
79.3967
79.3964
79.3962
79.3959
79.3957
79.3954
79.3951
79.3948
79.3945
79.3942
79.3939
77.4334
77.4334
77.4334
77.4334
77.4334
77.4334
77.4334
77.4334
77.4334
77.4334
77.4334
77.4334
77.4334
77.4334
77.4334
77.4335
77.4335
77.4335
77.4335
77.4335
77.4335
77.4335
77.4336
77.4336
77.4336
77.4336
77.4336
77.4337
77.4337
77.4337
77.4337
77.4338
77.4338
77.4338
77.4338
77.4339
77.4339
77.4339
77.434
77.434
77.4341
77.4341
77.4341
77.4342
77.4342
77.4343
77.4343
77.4344
77.4344
77.4345
77.4345
77.4346
77.4346
77.4347
77.4348
77.4348
77.4349
77.435
77.435
77.4351
77.4351
77.4352
77.4353
77.4354
77.4354
77.4355
77.4356
77.4356
77.4357
77.4357
77.4358
77.4359
77.4359
77.436
77.436
77.436
77.436
77.436
77.436
77.436
77.436
77.4359
77.4358
77.4357
77.4356
77.4355
77.4353
77.4351
77.4349
77.4347
77.4345
77.4342
77.434
77.4337
77.4334
77.4331
77.4328
77.4325
77.4322
77.4319
75.4714
75.4714
75.4714
75.4714
75.4714
75.4714
75.4714
75.4714
75.4714
75.4714
75.4714
75.4714
75.4714
75.4714
75.4714
75.4715
75.4715
75.4715
75.4715
75.4715
75.4715
75.4715
75.4715
75.4716
75.4716
75.4716
75.4716
75.4717
75.4717
75.4717
75.4717
75.4718
75.4718
75.4718
75.4718
75.4719
75.4719
75.4719
75.472
75.472
75.4721
75.4721
75.4721
75.4722
75.4722
75.4723
75.4723
75.4724
75.4724
75.4725
75.4725
75.4726
75.4726
75.4727
75.4728
75.4728
75.4729
75.473
75.473
75.4731
75.4731
75.4732
75.4733
75.4734
75.4734
75.4735
75.4736
75.4736
75.4737
75.4738
75.4738
75.4739
75.4739
75.474
75.474
75.474
75.4741
75.4741
75.4741
75.474
75.474
75.4739
75.4739
75.4738
75.4736
75.4735
75.4733
75.4732
75.473
75.4727
75.4725
75.4723
75.472
75.4717
75.4714
75.4711
75.4708
75.4705
75.4702
75.4699
73.5094
73.5094
73.5094
73.5094
73.5094
73.5094
73.5094
73.5094
73.5094
73.5094
73.5094
73.5094
73.5094
73.5094
73.5094
73.5094
73.5095
73.5095
73.5095
73.5095
73.5095
73.5095
73.5095
73.5096
73.5096
73.5096
73.5096
73.5096
73.5097
73.5097
73.5097
73.5098
73.5098
73.5098
73.5098
73.5099
73.5099
73.5099
73.51
73.51
73.5101
73.5101
73.5101
73.5102
73.5102
73.5103
73.5103
73.5104
73.5104
73.5105
73.5105
73.5106
73.5106
73.5107
73.5108
73.5108
73.5109
73.511
73.511
73.5111
73.5112
73.5112
73.5113
73.5114
73.5114
73.5115
73.5116
73.5116
73.5117
73.5118
73.5118
73.5119
73.512
73.512
73.512
73.5121
73.5121
73.5121
73.5121
73.5121
73.5121
73.512
73.5119
73.5118
73.5117
73.5116
73.5114
73.5112
73.511
73.5108
73.5106
73.5103
73.51
73.5098
73.5095
73.5092
73.5089
73.5085
73.5082
73.5079
71.5474
71.5474
71.5474
71.5474
71.5474
71.5474
71.5474
71.5474
71.5474
71.5474
71.5474
71.5474
71.5474
71.5474
71.5474
71.5474
71.5475
71.5475
71.5475
71.5475
71.5475
71.5475
71.5475
71.5476
71.5476
71.5476
71.5476
71.5476
71.5477
71.5477
71.5477
71.5477
71.5478
71.5478
71.5478
71.5479
71.5479
71.5479
71.548
71.548
71.5481
71.5481
71.5481
71.5482
71.5482
71.5483
71.5483
71.5484
71.5484
71.5485
71.5485
71.5486
71.5486
71.5487
71.5488
71.5488
71.5489
71.549
71.549
71.5491
71.5492
71.5492
71.5493
71.5494
71.5494
71.5495
71.5496
71.5496
71.5497
71.5498
71.5499
71.5499
71.55
71.55
71.5501
71.5501
71.5501
71.5502
71.5502
71.5501
71.5501
71.5501
71.55
71.5499
71.5498
71.5496
71.5495
71.5493
71.5491
71.5488
71.5486
71.5483
71.5481
71.5478
71.5475
71.5472
71.5469
71.5465
71.5462
71.5459
69.5854
69.5854
69.5854
69.5854
69.5854
69.5854
69.5854
69.5854
69.5854
69.5854
69.5854
69.5854
69.5854
69.5854
69.5854
69.5854
69.5855
69.5855
69.5855
69.5855
69.5855
69.5855
69.5855
69.5856
69.5856
69.5856
69.5856
69.5856
69.5857
69.5857
69.5857
69.5857
69.5858
69.5858
69.5858
69.5859
69.5859
69.5859
69.586
69.586
69.586
69.5861
69.5861
69.5862
69.5862
69.5863
69.5863
69.5864
69.5864
69.5865
69.5865
69.5866
69.5866
69.5867
69.5868
69.5868
69.5869
69.587
69.587
69.5871
69.5872
69.5872
69.5873
69.5874
69.5874
69.5875
69.5876
69.5877
69.5877
69.5878
69.5879
69.5879
69.588
69.5881
69.5881
69.5882
69.5882
69.5882
69.5882
69.5882
69.5882
69.5881
69.588
69.588
69.5878
69.5877
69.5875
69.5873
69.5871
69.5869
69.5867
69.5864
69.5861
69.5858
69.5855
69.5852
69.5849
69.5846
69.5843
69.5839
67.6234
67.6234
67.6234
67.6234
67.6234
67.6234
67.6234
67.6234
67.6234
67.6234
67.6234
67.6234
67.6234
67.6234
67.6234
67.6234
67.6235
67.6235
67.6235
67.6235
67.6235
67.6235
67.6235
67.6236
67.6236
67.6236
67.6236
67.6236
67.6237
67.6237
67.6237
67.6237
67.6238
67.6238
67.6238
67.6239
67.6239
67.6239
67.624
67.624
67.624
67.6241
67.6241
67.6242
67.6242
67.6243
67.6243
67.6244
67.6244
67.6245
67.6245
67.6246
67.6246
67.6247
67.6248
67.6248
67.6249
67.6249
67.625
67.6251
67.6252
67.6252
67.6253
67.6254
67.6254
67.6255
67.6256
67.6257
67.6257
67.6258
67.6259
67.626
67.626
67.6261
67.6262
67.6262
67.6262
67.6263
67.6263
67.6263
67.6262
67.6262
67.6261
67.626
67.6259
67.6258
67.6256
67.6254
67.6252
67.625
67.6247
67.6244
67.6242
67.6239
67.6236
67.6233
67.6229
67.6226
67.6223
67.6219
65.6614
65.6614
65.6614
65.6614
65.6614
65.6614
65.6614
65.6614
65.6614
65.6614
65.6614
65.6614
65.6614
65.6614
65.6614
65.6614
65.6615
65.6615
65.6615
65.6615
65.6615
65.6615
65.6615
65.6616
65.6616
65.6616
65.6616
65.6616
65.6617
65.6617
65.6617
65.6617
65.6618
65.6618
65.6618
65.6619
65.6619
65.6619
65.662
65.662
65.662
65.6621
65.6621
65.6622
65.6622
65.6623
65.6623
65.6624
65.6624
65.6625
65.6625
65.6626
65.6626
65.6627
65.6628
65.6628
65.6629
65.6629
65.663
65.6631
65.6632
65.6632
65.6633
65.6634
65.6634
65.6635
65.6636
65.6637
65.6638
65.6638
65.6639
65.664
65.6641
65.6641
65.6642
65.6642
65.6643
65.6643
65.6643
65.6643
65.6643
65.6643
65.6642
65.6641
65.664
65.6638
65.6637
65.6635
65.6633
65.663
65.6628
65.6625
65.6622
65.6619
65.6616
65.6613
65.661
65.6606
65.6603
65.6599
63.6994
63.6994
63.6994
63.6994
63.6994
63.6994
63.6994
63.6994
63.6994
63.6994
63.6994
63.6994
63.6994
63.6994
63.6994
63.6994
63.6995
63.6995
63.6995
63.6995
63.6995
63.6995
63.6995
63.6996
63.6996
63.6996
63.6996
63.6996
63.6997
63.6997
63.6997
63.6997
63.6998
63.6998
63.6998
63.6999
63.6999
63.6999
63.7
63.7
63.7
63.7001
63.7001
63.7002
63.7002
63.7003
63.7003
63.7004
63.7004
63.7005
63.7005
63.7006
63.7006
63.7007
63.7008
63.7008
63.7009
63.7009
63.701
63.7011
63.7012
63.7012
63.7013
63.7014
63.7015
63.7015
63.7016
63.7017
63.7018
63.7018
63.7019
63.702
63.7021
63.7022
63.7022
63.7023
63.7023
63.7024
63.7024
63.7024
63.7024
63.7024
63.7023
63.7022
63.7021
63.7019
63.7018
63.7016
63.7013
63.7011
63.7008
63.7006
63.7003
63.7
63.6996
63.6993
63.699
63.6986
63.6983
63.6979
61.7374
61.7374
61.7374
61.7374
61.7374
61.7374
61.7374
61.7374
61.7374
61.7374
61.7374
61.7374
61.7374
61.7374
61.7374
61.7374
61.7374
61.7375
61.7375
61.7375
61.7375
61.7375
61.7375
61.7375
61.7376
61.7376
61.7376
61.7376
61.7377
61.7377
61.7377
61.7377
61.7378
61.7378
61.7378
61.7379
61.7379
61.7379
61.738
61.738
61.738
61.7381
61.7381
61.7382
61.7382
61.7382
61.7383
61.7383
61.7384
61.7385
61.7385
61.7386
61.7386
61.7387
61.7387
61.7388
61.7389
61.7389
61.739
61.7391
61.7392
61.7392
61.7393
61.7394
61.7395
61.7395
61.7396
61.7397
61.7398
61.7399
61.7399
61.74
61.7401
61.7402
61.7403
61.7403
61.7404
61.7405
61.7405
61.7405
61.7405
61.7404
61.7404
61.7403
61.7402
61.74
61.7398
61.7396
61.7394
61.7392
61.7389
61.7386
61.7383
61.738
61.7377
61.7374
61.737
61.7366
61.7363
61.7359
59.7754
59.7754
59.7754
59.7754
59.7754
59.7754
59.7754
59.7754
59.7754
59.7754
59.7754
59.7754
59.7754
59.7754
59.7754
59.7754
59.7754
59.7755
59.7755
59.7755
59.7755
59.7755
59.7755
59.7755
59.7756
59.7756
59.7756
59.7756
59.7756
59.7757
59.7757
59.7757
59.7758
59.7758
59.7758
59.7758
59.7759
59.7759
59.7759
59.776
59.776
59.7761
59.7761
59.7762
59.7762
59.7762
59.7763
59.7763
59.7764
59.7764
59.7765
59.7766
59.7766
59.7767
59.7767
59.7768
59.7769
59.7769
59.777
59.7771
59.7772
59.7772
59.7773
59.7774
59.7775
59.7775
59.7776
59.7777
59.7778
59.7779
59.778
59.7781
59.7781
59.7782
59.7783
59.7784
59.7785
59.7785
59.7786
59.7786
59.7786
59.7785
59.7785
59.7784
59.7783
59.7781
59.7779
59.7777
59.7775
59.7773
59.777
59.7767
59.7764
59.7761
59.7757
59.7754
59.775
59.7747
59.7743
59.774
57.8134
57.8134
57.8134
57.8134
57.8134
57.8134
57.8134
57.8134
57.8134
57.8134
57.8134
57.8134
57.8134
57.8134
57.8134
57.8134
57.8134
57.8135
57.8135
57.8135
57.8135
57.8135
57.8135
57.8135
57.8136
57.8136
57.8136
57.8136
57.8136
57.8137
57.8137
57.8137
57.8137
57.8138
57.8138
57.8138
57.8139
57.8139
57.8139
57.814
57.814
57.8141
57.8141
57.8141
57.8142
57.8142
57.8143
57.8143
57.8144
57.8144
57.8145
57.8146
57.8146
57.8147
57.8147
57.8148
57.8149
57.8149
57.815
57.8151
57.8152
57.8152
57.8153
57.8154
57.8155
57.8155
57.8156
57.8157
57.8158
57.8159
57.816
57.8161
57.8162
57.8163
57.8164
57.8165
57.8165
57.8166
57.8166
57.8167
57.8167
57.8166
57.8166
57.8165
57.8164
57.8162
57.816
57.8158
57.8156
57.8153
57.8151
57.8148
57.8144
57.8141
57.8138
57.8134
57.8131
57.8127
57.8124
57.812
55.8514
55.8514
55.8514
55.8514
55.8514
55.8514
55.8514
55.8514
55.8514
55.8514
55.8514
55.8514
55.8514
55.8514
55.8514
55.8514
55.8514
55.8515
55.8515
55.8515
55.8515
55.8515
55.8515
55.8515
55.8516
55.8516
55.8516
55.8516
55.8516
55.8517
55.8517
55.8517
55.8517
55.8518
55.8518
55.8518
55.8519
55.8519
55.8519
55.852
55.852
55.8521
55.8521
55.8521
55.8522
55.8522
55.8523
55.8523
55.8524
55.8524
55.8525
55.8526
55.8526
55.8527
55.8527
55.8528
55.8529
55.8529
55.853
55.8531
55.8532
55.8532
55.8533
55.8534
55.8535
55.8535
55.8536
55.8537
55.8538
55.8539
55.854
55.8541
55.8542
55.8543
55.8544
55.8545
55.8546
55.8547
55.8547
55.8548
55.8548
55.8547
55.8547
55.8546
55.8545
55.8543
55.8541
55.8539
55.8537
55.8534
55.8531
55.8528
55.8525
55.8522
55.8518
55.8515
55.8511
55.8507
55.8504
55.85
53.8894
53.8894
53.8894
53.8894
53.8894
53.8894
53.8894
53.8894
53.8894
53.8894
53.8894
53.8894
53.8894
53.8894
53.8894
53.8894
53.8894
53.8894
53.8895
53.8895
53.8895
53.8895
53.8895
53.8895
53.8895
53.8896
53.8896
53.8896
53.8896
53.8897
53.8897
53.8897
53.8897
53.8898
53.8898
53.8898
53.8899
53.8899
53.8899
53.89
53.89
53.89
53.8901
53.8901
53.8902
53.8902
53.8903
53.8903
53.8904
53.8904
53.8905
53.8905
53.8906
53.8907
53.8907
53.8908
53.8909
53.8909
53.891
53.8911
53.8912
53.8912
53.8913
53.8914
53.8915
53.8916
53.8916
53.8917
53.8918
53.8919
53.892
53.8921
53.8922
53.8924
53.8925
53.8926
53.8927
53.8928
53.8928
53.8929
53.8929
53.8929
53.8928
53.8927
53.8926
53.8924
53.8923
53.892
53.8918
53.8915
53.8912
53.8909
53.8906
53.8902
53.8899
53.8895
53.8892
53.8888
53.8884
53.888
51.9273
51.9273
51.9274
51.9274
51.9274
51.9274
51.9274
51.9274
51.9274
51.9274
51.9274
51.9274
51.9274
51.9274
51.9274
51.9274
51.9274
51.9274
51.9275
51.9275
51.9275
51.9275
51.9275
51.9275
51.9275
51.9276
51.9276
51.9276
51.9276
51.9277
51.9277
51.9277
51.9277
51.9278
51.9278
51.9278
51.9279
51.9279
51.9279
51.928
51.928
51.928
51.9281
51.9281
51.9282
51.9282
51.9283
51.9283
51.9284
51.9284
51.9285
51.9285
51.9286
51.9287
51.9287
51.9288
51.9289
51.9289
51.929
51.9291
51.9291
51.9292
51.9293
51.9294
51.9295
51.9296
51.9296
51.9297
51.9298
51.9299
51.93
51.9302
51.9303
51.9304
51.9305
51.9306
51.9308
51.9308
51.9309
51.931
51.931
51.931
51.9309
51.9309
51.9307
51.9306
51.9304
51.9302
51.9299
51.9296
51.9293
51.929
51.9287
51.9283
51.9279
51.9276
51.9272
51.9268
51.9264
51.926
49.9653
49.9653
49.9653
49.9654
49.9654
49.9654
49.9654
49.9654
49.9654
49.9654
49.9654
49.9654
49.9654
49.9654
49.9654
49.9654
49.9654
49.9654
49.9655
49.9655
49.9655
49.9655
49.9655
49.9655
49.9655
49.9656
49.9656
49.9656
49.9656
49.9656
49.9657
49.9657
49.9657
49.9658
49.9658
49.9658
49.9659
49.9659
49.9659
49.966
49.966
49.966
49.9661
49.9661
49.9662
49.9662
49.9663
49.9663
49.9664
49.9664
49.9665
49.9665
49.9666
49.9667
49.9667
49.9668
49.9669
49.9669
49.967
49.9671
49.9671
49.9672
49.9673
49.9674
49.9675
49.9676
49.9676
49.9677
49.9678
49.9679
49.9681
49.9682
49.9683
49.9684
49.9686
49.9687
49.9688
49.9689
49.969
49.9691
49.9691
49.9691
49.9691
49.969
49.9689
49.9687
49.9685
49.9683
49.968
49.9677
49.9674
49.9671
49.9667
49.9664
49.966
49.9656
49.9652
49.9648
49.9644
49.964
48.0033
48.0033
48.0033
48.0033
48.0034
48.0034
48.0034
48.0034
48.0034
48.0034
48.0034
48.0034
48.0034
48.0034
48.0034
48.0034
48.0034
48.0034
48.0034
48.0035
48.0035
48.0035
48.0035
48.0035
48.0035
48.0036
48.0036
48.0036
48.0036
48.0036
48.0037
48.0037
48.0037
48.0038
48.0038
48.0038
48.0038
48.0039
48.0039
48.0039
48.004
48.004
48.0041
48.0041
48.0042
48.0042
48.0043
48.0043
48.0044
48.0044
48.0045
48.0045
48.0046
48.0046
48.0047
48.0048
48.0048
48.0049
48.005
48.0051
48.0051
48.0052
48.0053
48.0054
48.0055
48.0056
48.0056
48.0057
48.0058
48.006
48.0061
48.0062
48.0063
48.0065
48.0066
48.0068
48.0069
48.007
48.0071
48.0072
48.0073
48.0073
48.0072
48.0071
48.007
48.0069
48.0066
48.0064
48.0061
48.0058
48.0055
48.0052
48.0048
48.0044
48.0041
48.0037
48.0033
48.0028
48.0025
48.002
46.0413
46.0413
46.0413
46.0413
46.0413
46.0414
46.0414
46.0414
46.0414
46.0414
46.0414
46.0414
46.0414
46.0414
46.0414
46.0414
46.0414
46.0414
46.0414
46.0415
46.0415
46.0415
46.0415
46.0415
46.0415
46.0415
46.0416
46.0416
46.0416
46.0416
46.0417
46.0417
46.0417
46.0417
46.0418
46.0418
46.0418
46.0419
46.0419
46.0419
46.042
46.042
46.0421
46.0421
46.0421
46.0422
46.0422
46.0423
46.0423
46.0424
46.0425
46.0425
46.0426
46.0426
46.0427
46.0428
46.0428
46.0429
46.043
46.0431
46.0431
46.0432
46.0433
46.0434
46.0435
46.0436
46.0436
46.0437
46.0438
46.044
46.0441
46.0442
46.0444
46.0445
46.0447
46.0448
46.045
46.0451
46.0453
46.0454
46.0454
46.0454
46.0454
46.0453
46.0452
46.045
46.0448
46.0445
46.0443
46.044
46.0436
46.0433
46.0429
46.0425
46.0421
46.0417
46.0413
46.0409
46.0405
46.04
44.0793
44.0793
44.0793
44.0793
44.0793
44.0793
44.0794
44.0794
44.0794
44.0794
44.0794
44.0794
44.0794
44.0794
44.0794
44.0794
44.0794
44.0794
44.0794
44.0794
44.0795
44.0795
44.0795
44.0795
44.0795
44.0795
44.0796
44.0796
44.0796
44.0796
44.0797
44.0797
44.0797
44.0797
44.0798
44.0798
44.0798
44.0799
44.0799
44.0799
44.08
44.08
44.0801
44.0801
44.0801
44.0802
44.0802
44.0803
44.0803
44.0804
44.0804
44.0805
44.0806
44.0806
44.0807
44.0808
44.0808
44.0809
44.081
44.0811
44.0811
44.0812
44.0813
44.0814
44.0815
44.0816
44.0816
44.0817
44.0818
44.082
44.0821
44.0822
44.0824
44.0826
44.0827
44.0829
44.0831
44.0833
44.0834
44.0835
44.0836
44.0836
44.0836
44.0835
44.0833
44.0832
44.083
44.0827
44.0824
44.0821
44.0817
44.0814
44.081
44.0806
44.0802
44.0798
44.0794
44.0789
44.0785
44.0781
42.1173
42.1173
42.1173
42.1173
42.1173
42.1173
42.1174
42.1174
42.1174
42.1174
42.1174
42.1174
42.1174
42.1174
42.1174
42.1174
42.1174
42.1174
42.1174
42.1174
42.1175
42.1175
42.1175
42.1175
42.1175
42.1175
42.1176
42.1176
42.1176
42.1176
42.1176
42.1177
42.1177
42.1177
42.1178
42.1178
42.1178
42.1179
42.1179
42.1179
42.118
42.118
42.118
42.1181
42.1181
42.1182
42.1182
42.1183
42.1183
42.1184
42.1184
42.1185
42.1186
42.1186
42.1187
42.1188
42.1188
42.1189
42.119
42.119
42.1191
42.1192
42.1193
42.1194
42.1195
42.1196
42.1196
42.1197
42.1198
42.12
42.1201
42.1202
42.1204
42.1206
42.1208
42.121
42.1212
42.1214
42.1215
42.1216
42.1217
42.1218
42.1217
42.1217
42.1215
42.1213
42.1211
42.1208
42.1205
42.1202
42.1199
42.1195
42.1191
42.1187
42.1183
42.1178
42.1174
42.1169
42.1165
42.1161
40.1553
40.1553
40.1553
40.1553
40.1553
40.1553
40.1553
40.1554
40.1554
40.1554
40.1554
40.1554
40.1554
40.1554
40.1554
40.1554
40.1554
40.1554
40.1554
40.1554
40.1554
40.1555
40.1555
40.1555
40.1555
40.1555
40.1555
40.1556
40.1556
40.1556
40.1556
40.1557
40.1557
40.1557
40.1558
40.1558
40.1558
40.1558
40.1559
40.1559
40.156
40.156
40.156
40.1561
40.1561
40.1562
40.1562
40.1563
40.1563
40.1564
40.1564
40.1565
40.1565
40.1566
40.1567
40.1567
40.1568
40.1569
40.157
40.157
40.1571
40.1572
40.1573
40.1574
40.1575
40.1576
40.1576
40.1577
40.1578
40.158
40.1581
40.1582
40.1584
40.1586
40.1588
40.1591
40.1593
40.1595
40.1597
40.1598
40.1599
40.1599
40.1599
40.1598
40.1597
40.1595
40.1593
40.159
40.1587
40.1583
40.158
40.1576
40.1572
40.1568
40.1563
40.1559
40.1554
40.155
40.1546
40.1541
38.1933
38.1933
38.1933
38.1933
38.1933
38.1933
38.1933
38.1933
38.1934
38.1934
38.1934
38.1934
38.1934
38.1934
38.1934
38.1934
38.1934
38.1934
38.1934
38.1934
38.1934
38.1935
38.1935
38.1935
38.1935
38.1935
38.1935
38.1936
38.1936
38.1936
38.1936
38.1937
38.1937
38.1937
38.1937
38.1938
38.1938
38.1938
38.1939
38.1939
38.1939
38.194
38.194
38.1941
38.1941
38.1942
38.1942
38.1943
38.1943
38.1944
38.1944
38.1945
38.1945
38.1946
38.1947
38.1947
38.1948
38.1949
38.195
38.195
38.1951
38.1952
38.1953
38.1954
38.1955
38.1956
38.1956
38.1957
38.1958
38.1959
38.1961
38.1962
38.1964
38.1966
38.1969
38.1971
38.1974
38.1976
38.1978
38.198
38.1981
38.1981
38.1981
38.1981
38.1979
38.1977
38.1975
38.1972
38.1969
38.1965
38.1961
38.1957
38.1953
38.1948
38.1944
38.1939
38.1935
38.193
38.1926
38.1921
36.2313
36.2313
36.2313
36.2313
36.2313
36.2313
36.2313
36.2313
36.2314
36.2314
36.2314
36.2314
36.2314
36.2314
36.2314
36.2314
36.2314
36.2314
36.2314
36.2314
36.2314
36.2314
36.2315
36.2315
36.2315
36.2315
36.2315
36.2316
36.2316
36.2316
36.2316
36.2317
36.2317
36.2317
36.2317
36.2318
36.2318
36.2318
36.2319
36.2319
36.2319
36.232
36.232
36.2321
36.2321
36.2321
36.2322
36.2322
36.2323
36.2324
36.2324
36.2325
36.2325
36.2326
36.2327
36.2327
36.2328
36.2329
36.2329
36.233
36.2331
36.2332
36.2333
36.2334
36.2335
36.2336
36.2336
36.2337
36.2338
36.2339
36.2341
36.2342
36.2344
36.2347
36.2349
36.2352
36.2355
36.2358
36.236
36.2362
36.2363
36.2364
36.2364
36.2363
36.2361
36.2359
36.2357
36.2354
36.235
36.2346
36.2342
36.2338
36.2334
36.2329
36.2325
36.232
36.2315
36.2311
36.2306
36.2301
34.2693
34.2693
34.2693
34.2693
34.2693
34.2693
34.2693
34.2693
34.2693
34.2694
34.2694
34.2694
34.2694
34.2694
34.2694
34.2694
34.2694
34.2694
34.2694
34.2694
34.2694
34.2694
34.2695
34.2695
34.2695
34.2695
34.2695
34.2695
34.2696
34.2696
34.2696
34.2696
34.2697
34.2697
34.2697
34.2698
34.2698
34.2698
34.2699
34.2699
34.2699
34.27
34.27
34.27
34.2701
34.2701
34.2702
34.2702
34.2703
34.2703
34.2704
34.2705
34.2705
34.2706
34.2706
34.2707
34.2708
34.2709
34.2709
34.271
34.2711
34.2712
34.2713
34.2714
34.2715
34.2715
34.2716
34.2717
34.2718
34.2719
34.272
34.2722
34.2724
34.2727
34.273
34.2733
34.2736
34.2739
34.2742
34.2744
34.2745
34.2746
34.2746
34.2745
34.2744
34.2742
34.2739
34.2736
34.2732
34.2728
34.2724
34.2719
34.2715
34.271
34.2705
34.2701
34.2696
34.2691
34.2686
34.2681
32.3073
32.3073
32.3073
32.3073
32.3073
32.3073
32.3073
32.3073
32.3073
32.3073
32.3074
32.3074
32.3074
32.3074
32.3074
32.3074
32.3074
32.3074
32.3074
32.3074
32.3074
32.3074
32.3074
32.3075
32.3075
32.3075
32.3075
32.3075
32.3076
32.3076
32.3076
32.3076
32.3077
32.3077
32.3077
32.3077
32.3078
32.3078
32.3078
32.3079
32.3079
32.3079
32.308
32.308
32.3081
32.3081
32.3082
32.3082
32.3083
32.3083
32.3084
32.3084
32.3085
32.3086
32.3086
32.3087
32.3088
32.3089
32.3089
32.309
32.3091
32.3092
32.3093
32.3094
32.3095
32.3095
32.3096
32.3097
32.3098
32.3099
32.31
32.3102
32.3104
32.3107
32.311
32.3114
32.3117
32.3121
32.3124
32.3126
32.3128
32.3129
32.3129
32.3128
32.3126
32.3124
32.3121
32.3118
32.3114
32.311
32.3105
32.31
32.3096
32.3091
32.3086
32.3081
32.3076
32.3071
32.3067
32.3062
30.3453
30.3453
30.3453
30.3453
30.3453
30.3453
30.3453
30.3453
30.3453
30.3453
30.3453
30.3454
30.3454
30.3454
30.3454
30.3454
30.3454
30.3454
30.3454
30.3454
30.3454
30.3454
30.3454
30.3454
30.3455
30.3455
30.3455
30.3455
30.3456
30.3456
30.3456
30.3456
30.3457
30.3457
30.3457
30.3457
30.3458
30.3458
30.3458
30.3459
30.3459
30.3459
30.346
30.346
30.3461
30.3461
30.3462
30.3462
30.3463
30.3463
30.3464
30.3464
30.3465
30.3466
30.3466
30.3467
30.3468
30.3468
30.3469
30.347
30.3471
30.3472
30.3473
30.3474
30.3475
30.3475
30.3476
30.3477
30.3478
30.3479
30.348
30.3481
30.3484
30.3487
30.349
30.3494
30.3498
30.3502
30.3506
30.3508
30.351
30.3511
30.3512
30.3511
30.3509
30.3507
30.3503
30.35
30.3496
30.3491
30.3487
30.3482
30.3477
30.3472
30.3467
30.3462
30.3457
30.3452
30.3447
30.3442
28.3833
28.3833
28.3833
28.3833
28.3833
28.3833
28.3833
28.3833
28.3833
28.3833
28.3833
28.3834
28.3834
28.3834
28.3834
28.3834
28.3834
28.3834
28.3834
28.3834
28.3834
28.3834
28.3834
28.3834
28.3835
28.3835
28.3835
28.3835
28.3835
28.3836
28.3836
28.3836
28.3836
28.3837
28.3837
28.3837
28.3838
28.3838
28.3838
28.3839
28.3839
28.3839
28.384
28.384
28.3841
28.3841
28.3841
28.3842
28.3842
28.3843
28.3844
28.3844
28.3845
28.3845
28.3846
28.3847
28.3848
28.3848
28.3849
28.385
28.3851
28.3852
28.3853
28.3854
28.3855
28.3855
28.3856
28.3857
28.3857
28.3858
28.3859
28.3861
28.3863
28.3867
28.3871
28.3875
28.388
28.3884
28.3888
28.3891
28.3893
28.3894
28.3895
28.3894
28.3892
28.3889
28.3886
28.3882
28.3878
28.3873
28.3868
28.3863
28.3858
28.3853
28.3848
28.3842
28.3837
28.3832
28.3827
28.3822
26.4213
26.4213
26.4213
26.4213
26.4213
26.4213
26.4213
26.4213
26.4213
26.4213
26.4213
26.4213
26.4214
26.4214
26.4214
26.4214
26.4214
26.4214
26.4214
26.4214
26.4214
26.4214
26.4214
26.4214
26.4214
26.4215
26.4215
26.4215
26.4215
26.4216
26.4216
26.4216
26.4216
26.4217
26.4217
26.4217
26.4217
26.4218
26.4218
26.4218
26.4219
26.4219
26.422
26.422
26.422
26.4221
26.4221
26.4222
26.4222
26.4223
26.4223
26.4224
26.4225
26.4225
26.4226
26.4227
26.4227
26.4228
26.4229
26.423
26.4231
26.4232
26.4233
26.4234
26.4235
26.4236
26.4236
26.4237
26.4237
26.4238
26.4239
26.424
26.4243
26.4246
26.4251
26.4256
26.4261
26.4266
26.427
26.4274
26.4276