/*--------------------------------*- C++ -*----------------------------------*\
| =========                 |                                                 |
| \\      /  F ield         | OpenFOAM: The Open Source CFD Toolbox           |
|  \\    /   O peration     | Version:  2.4.0                                 |
|   \\  /    A nd           | Web:      www.OpenFOAM.org                      |
|    \\/     M anipulation  |                                                 |
\*---------------------------------------------------------------------------*/
FoamFile
{
    version     2.0;
    format      ascii;
    class       surfaceScalarField;
    location    "0.266";
    object      phiAlpha;
}
// * * * * * * * * * * * * * * * * * * * * * * * * * * * * * * * * * * * * * //

dimensions      [0 3 -1 0 0 0 0];

internalField   nonuniform List<scalar> 
119500
(
-1.26559e-09
1.26559e-09
-2.92192e-09
1.65633e-09
-4.64871e-09
1.72679e-09
-6.39092e-09
1.74222e-09
-8.14538e-09
1.75446e-09
-9.91069e-09
1.76531e-09
-1.16844e-08
1.77372e-09
-1.34624e-08
1.77794e-09
-1.52387e-08
1.77632e-09
-1.70059e-08
1.76723e-09
-1.87553e-08
1.74939e-09
-2.04772e-08
1.72187e-09
-2.21611e-08
1.68396e-09
-2.37965e-08
1.63539e-09
-2.53724e-08
1.57587e-09
-2.68778e-08
1.50542e-09
-2.83022e-08
1.42439e-09
-2.96354e-08
1.33316e-09
-3.08677e-08
1.2323e-09
-3.19901e-08
1.12241e-09
-3.29941e-08
1.00406e-09
-3.38719e-08
8.77766e-10
-3.46159e-08
7.44033e-10
-3.52193e-08
6.0335e-10
-3.56753e-08
4.56059e-10
-3.59776e-08
3.02258e-10
-3.6119e-08
1.41378e-10
-3.60962e-08
-2.27409e-11
-3.58963e-08
-1.99938e-10
-3.55156e-08
-3.80761e-10
-3.4949e-08
-5.66603e-10
-3.41939e-08
-7.551e-10
-3.32453e-08
-9.48567e-10
-3.20982e-08
-1.14712e-09
-3.07478e-08
-1.35037e-09
-2.91898e-08
-1.55799e-09
-2.74202e-08
-1.76962e-09
-2.54354e-08
-1.98482e-09
-2.32323e-08
-2.20305e-09
-2.08086e-08
-2.42377e-09
-1.81623e-08
-2.6463e-09
-1.52923e-08
-2.86998e-09
-1.21982e-08
-3.09409e-09
-8.88032e-09
-3.31787e-09
-5.33967e-09
-3.54066e-09
-1.57756e-09
-3.76211e-09
2.40496e-09
-3.98253e-09
6.60199e-09
-4.19703e-09
1.1002e-08
-4.40005e-09
1.56043e-08
-4.60226e-09
2.04007e-08
-4.79643e-09
2.5391e-08
-4.99028e-09
3.05621e-08
-5.17105e-09
3.59043e-08
-5.3422e-09
4.14049e-08
-5.50063e-09
4.70522e-08
-5.64734e-09
5.28308e-08
-5.77858e-09
5.8724e-08
-5.8932e-09
6.47146e-08
-5.99057e-09
7.07834e-08
-6.06875e-09
7.69092e-08
-6.12583e-09
8.30696e-08
-6.16039e-09
8.92405e-08
-6.17094e-09
9.53965e-08
-6.15602e-09
1.01511e-07
-6.11457e-09
1.07557e-07
-6.04559e-09
1.13505e-07
-5.94838e-09
1.19328e-07
-5.82254e-09
1.24996e-07
-5.66797e-09
1.3048e-07
-5.48489e-09
1.35755e-07
-5.27403e-09
1.40791e-07
-5.03669e-09
1.45566e-07
-4.77483e-09
1.50057e-07
-4.49102e-09
1.54246e-07
-4.18863e-09
1.58118e-07
-3.87187e-09
1.61663e-07
-3.54592e-09
1.6488e-07
-3.21681e-09
1.67772e-07
-2.89144e-09
1.70349e-07
-2.57731e-09
1.72631e-07
-2.28226e-09
1.74645e-07
-2.01406e-09
1.76425e-07
-1.77988e-09
1.78011e-07
-1.58566e-09
1.79446e-07
-1.43547e-09
1.80777e-07
-1.33075e-09
1.82047e-07
-1.26982e-09
1.83295e-07
-1.24764e-09
1.84551e-07
-1.25626e-09
1.85837e-07
-1.28573e-09
1.87162e-07
-1.32592e-09
1.88531e-07
-1.3687e-09
1.8994e-07
-1.4092e-09
1.91386e-07
-1.4459e-09
1.92865e-07
-1.47913e-09
1.94374e-07
-1.50894e-09
1.95907e-07
-1.5326e-09
1.9745e-07
-1.54333e-09
1.98979e-07
-1.52915e-09
-1.47188e-09
2.00451e-07
-2.66576e-09
3.93135e-09
-6.12592e-09
5.11649e-09
-9.66351e-09
5.26438e-09
-1.32094e-08
5.28814e-09
-1.67592e-08
5.30427e-09
-2.03099e-08
5.31601e-09
-2.38566e-08
5.32041e-09
-2.73923e-08
5.31359e-09
-3.09078e-08
5.29182e-09
-3.43921e-08
5.25154e-09
-3.78326e-08
5.18993e-09
-4.12155e-08
5.10471e-09
-4.45257e-08
4.99414e-09
-4.77476e-08
4.85728e-09
-5.08651e-08
4.69339e-09
-5.38622e-08
4.50256e-09
-5.67232e-08
4.28534e-09
-5.94326e-08
4.04258e-09
-6.19757e-08
3.77544e-09
-6.43384e-08
3.48516e-09
-6.65073e-08
3.17296e-09
-6.84696e-08
2.84002e-09
-7.02131e-08
2.48751e-09
-7.17262e-08
2.11643e-09
-7.29979e-08
1.72779e-09
-7.4018e-08
1.3224e-09
-7.47773e-08
9.00621e-10
-7.52635e-08
4.63524e-10
-7.54682e-08
4.68977e-12
-7.53779e-08
-4.71055e-10
-7.49824e-08
-9.62075e-10
-7.42723e-08
-1.46522e-09
-7.32412e-08
-1.97968e-09
-7.18816e-08
-2.50677e-09
-7.01857e-08
-3.04626e-09
-6.81465e-08
-3.59719e-09
-6.57576e-08
-4.15852e-09
-6.30134e-08
-4.72895e-09
-5.99095e-08
-5.30701e-09
-5.64421e-08
-5.8911e-09
-5.2609e-08
-6.47943e-09
-4.84089e-08
-7.07011e-09
-4.38418e-08
-7.66114e-09
-3.89093e-08
-8.25047e-09
-3.36138e-08
-8.83608e-09
-2.79598e-08
-9.4161e-09
-2.19536e-08
-9.98875e-09
-1.56012e-08
-1.05495e-08
-8.90688e-09
-1.10943e-08
-1.88252e-09
-1.16266e-08
5.46478e-09
-1.21437e-08
1.31118e-08
-1.26373e-08
2.10483e-08
-1.31076e-08
2.9261e-08
-1.35549e-08
3.77342e-08
-1.39737e-08
4.64502e-08
-1.43634e-08
5.53867e-08
-1.47151e-08
6.45212e-08
-1.50276e-08
7.38293e-08
-1.52987e-08
8.32855e-08
-1.55249e-08
9.28619e-08
-1.57023e-08
1.0253e-07
-1.58284e-08
1.12259e-07
-1.58997e-08
1.22016e-07
-1.59134e-08
1.31769e-07
-1.58672e-08
1.41482e-07
-1.57592e-08
1.51122e-07
-1.55878e-08
1.60651e-07
-1.53521e-08
1.70035e-07
-1.50518e-08
1.79238e-07
-1.46876e-08
1.88224e-07
-1.42607e-08
1.96961e-07
-1.37737e-08
2.05417e-07
-1.32306e-08
2.13563e-07
-1.26366e-08
2.21373e-07
-1.19987e-08
2.28827e-07
-1.13256e-08
2.35909e-07
-1.06282e-08
2.42611e-07
-9.91914e-09
2.48933e-07
-9.21306e-09
2.54881e-07
-8.526e-09
2.60474e-07
-7.87493e-09
2.65737e-07
-7.27687e-09
2.70705e-07
-6.7479e-09
2.75421e-07
-6.30175e-09
2.79934e-07
-5.94837e-09
2.84296e-07
-5.69236e-09
2.88557e-07
-5.53159e-09
2.92766e-07
-5.45644e-09
2.9696e-07
-5.45011e-09
3.01164e-07
-5.49013e-09
3.0539e-07
-5.55167e-09
3.09634e-07
-5.61257e-09
3.13882e-07
-5.65755e-09
3.18117e-07
-5.68009e-09
3.22318e-07
-5.68109e-09
3.26475e-07
-5.66564e-09
3.3058e-07
-5.63775e-09
3.34634e-07
-5.59738e-09
3.38642e-07
-5.53666e-09
-5.43905e-09
3.42609e-07
-3.26845e-09
7.1998e-09
-7.47142e-09
9.31946e-09
-1.17482e-08
9.54112e-09
-1.60274e-08
9.56735e-09
-2.03034e-08
9.58025e-09
-2.4572e-08
9.58463e-09
-2.88276e-08
9.57604e-09
-3.30625e-08
9.54852e-09
-3.72671e-08
9.49642e-09
-4.14302e-08
9.41462e-09
-4.55391e-08
9.29877e-09
-4.95796e-08
9.14526e-09
-5.35369e-08
8.95142e-09
-5.73951e-08
8.71547e-09
-6.11381e-08
8.43644e-09
-6.47498e-08
8.11428e-09
-6.82141e-08
7.74961e-09
-7.15151e-08
7.34358e-09
-7.46374e-08
6.89773e-09
-7.75659e-08
6.41372e-09
-8.02862e-08
5.89326e-09
-8.27842e-08
5.338e-09
-8.50462e-08
4.74952e-09
-8.7059e-08
4.12924e-09
-8.88097e-08
3.47849e-09
-9.02858e-08
2.7985e-09
-9.14753e-08
2.09009e-09
-9.23656e-08
1.35383e-09
-9.29484e-08
5.87425e-10
-9.3212e-08
-2.07451e-10
-9.31434e-08
-1.03064e-09
-9.27294e-08
-1.87925e-09
-9.19591e-08
-2.74996e-09
-9.08236e-08
-3.64229e-09
-8.93141e-08
-4.55577e-09
-8.74225e-08
-5.48871e-09
-8.51419e-08
-6.43912e-09
-8.24663e-08
-7.40455e-09
-7.93909e-08
-8.38241e-09
-7.59123e-08
-9.36972e-09
-7.20285e-08
-1.03633e-08
-6.77387e-08
-1.13598e-08
-6.30441e-08
-1.23558e-08
-5.79469e-08
-1.33476e-08
-5.24512e-08
-1.43318e-08
-4.65626e-08
-1.53047e-08
-4.02885e-08
-1.62628e-08
-3.36368e-08
-1.72012e-08
-2.66157e-08
-1.81155e-08
-1.92377e-08
-1.90046e-08
-1.15166e-08
-1.98649e-08
-3.4639e-09
-2.069e-08
4.90615e-09
-2.14776e-08
1.35716e-08
-2.22204e-08
2.25159e-08
-2.2918e-08
3.17165e-08
-2.35639e-08
4.11558e-08
-2.41545e-08
5.08108e-08
-2.46826e-08
6.06554e-08
-2.51433e-08
7.06629e-08
-2.55324e-08
8.08056e-08
-2.5845e-08
9.10539e-08
-2.60767e-08
1.01377e-07
-2.62228e-08
1.11743e-07
-2.62795e-08
1.22119e-07
-2.62431e-08
1.3247e-07
-2.61108e-08
1.42763e-07
-2.58803e-08
1.52961e-07
-2.55504e-08
1.6303e-07
-2.51205e-08
1.72934e-07
-2.45913e-08
1.82638e-07
-2.39649e-08
1.92109e-07
-2.32447e-08
2.01315e-07
-2.24363e-08
2.10225e-07
-2.15474e-08
2.18815e-07
-2.05879e-08
2.2706e-07
-1.95708e-08
2.34944e-07
-1.85121e-08
2.42455e-07
-1.74306e-08
2.4959e-07
-1.63481e-08
2.56353e-07
-1.5289e-08
2.62758e-07
-1.42792e-08
2.68826e-07
-1.33451e-08
2.7459e-07
-1.25117e-08
2.80089e-07
-1.18014e-08
2.85371e-07
-1.12305e-08
2.90487e-07
-1.08078e-08
2.95487e-07
-1.05316e-08
3.00419e-07
-1.03886e-08
3.05322e-07
-1.03534e-08
3.10222e-07
-1.03902e-08
3.15129e-07
-1.04579e-08
3.20034e-07
-1.0518e-08
3.24918e-07
-1.05418e-08
3.29754e-07
-1.05156e-08
3.34513e-07
-1.04405e-08
3.39176e-07
-1.03284e-08
3.43733e-07
-1.01952e-08
3.48191e-07
-1.00547e-08
3.52568e-07
-9.91451e-09
-9.77108e-09
3.569e-07
-3.45802e-09
1.06578e-08
-7.88486e-09
1.37463e-08
-1.23908e-08
1.40471e-08
-1.69024e-08
1.40789e-08
-2.14135e-08
1.40913e-08
-2.59205e-08
1.40917e-08
-3.04181e-08
1.40737e-08
-3.4899e-08
1.40294e-08
-3.93538e-08
1.39512e-08
-4.37713e-08
1.38321e-08
-4.81388e-08
1.36663e-08
-5.24422e-08
1.34486e-08
-5.66663e-08
1.31755e-08
-6.07951e-08
1.28443e-08
-6.48124e-08
1.24537e-08
-6.87017e-08
1.20035e-08
-7.24464e-08
1.14943e-08
-7.60302e-08
1.09274e-08
-7.9437e-08
1.03046e-08
-8.26513e-08
9.62794e-09
-8.56575e-08
8.89945e-09
-8.84406e-08
8.12118e-09
-9.09861e-08
7.29501e-09
-9.32796e-08
6.4227e-09
-9.53069e-08
5.50579e-09
-9.70541e-08
4.54572e-09
-9.85076e-08
3.54357e-09
-9.96539e-08
2.5001e-09
-1.00481e-07
1.41493e-09
-1.00978e-07
2.89624e-10
-1.01133e-07
-8.76079e-10
-1.00933e-07
-2.07957e-09
-1.00364e-07
-3.31835e-09
-9.94173e-08
-4.58926e-09
-9.80824e-08
-5.89073e-09
-9.63509e-08
-7.22017e-09
-9.42156e-08
-8.57441e-09
-9.16703e-08
-9.94984e-09
-8.87103e-08
-1.13424e-08
-8.53323e-08
-1.27478e-08
-8.15344e-08
-1.41612e-08
-7.73166e-08
-1.55776e-08
-7.26803e-08
-1.69921e-08
-6.76285e-08
-1.83994e-08
-6.21659e-08
-1.97943e-08
-5.6299e-08
-2.11717e-08
-5.00356e-08
-2.25262e-08
-4.33848e-08
-2.3852e-08
-3.63567e-08
-2.51436e-08
-2.89639e-08
-2.63974e-08
-2.12206e-08
-2.76081e-08
-1.31411e-08
-2.87695e-08
-4.74222e-09
-2.98765e-08
3.95993e-09
-3.09225e-08
1.29428e-08
-3.1901e-08
2.21872e-08
-3.28082e-08
3.16698e-08
-3.36371e-08
4.13684e-08
-3.43812e-08
5.12565e-08
-3.50314e-08
6.1307e-08
-3.55828e-08
7.14916e-08
-3.60296e-08
8.17802e-08
-3.63653e-08
9.21417e-08
-3.65844e-08
1.02544e-07
-3.66816e-08
1.12953e-07
-3.66525e-08
1.23336e-07
-3.64933e-08
1.33657e-07
-3.62012e-08
1.43881e-07
-3.57744e-08
1.53972e-07
-3.52124e-08
1.63897e-07
-3.45158e-08
1.7362e-07
-3.36874e-08
1.83107e-07
-3.27317e-08
1.92326e-07
-3.16557e-08
2.01248e-07
-3.04693e-08
2.09845e-07
-2.91854e-08
2.18096e-07
-2.78211e-08
2.25981e-07
-2.63969e-08
2.33488e-07
-2.4938e-08
2.40613e-07
-2.34731e-08
2.47358e-07
-2.20346e-08
2.53737e-07
-2.06574e-08
2.59769e-07
-1.93771e-08
2.65485e-07
-1.8228e-08
2.70924e-07
-1.72406e-08
2.76132e-07
-1.6438e-08
2.81157e-07
-1.5833e-08
2.86049e-07
-1.54241e-08
2.90854e-07
-1.51935e-08
2.95607e-07
-1.5106e-08
3.00328e-07
-1.51115e-08
3.05021e-07
-1.51508e-08
3.09671e-07
-1.51675e-08
3.14248e-07
-1.51192e-08
3.18719e-07
-1.49862e-08
3.23051e-07
-1.47725e-08
3.27222e-07
-1.45001e-08
3.31227e-07
-1.41994e-08
3.35073e-07
-1.39012e-08
3.38791e-07
-1.36322e-08
-1.34145e-08
3.42434e-07
-3.51366e-09
1.41715e-08
-8.00062e-09
1.82333e-08
-1.25728e-08
1.86193e-08
-1.71551e-08
1.86612e-08
-2.17416e-08
1.86778e-08
-2.63292e-08
1.86793e-08
-3.09132e-08
1.86576e-08
-3.54863e-08
1.86025e-08
-4.00393e-08
1.85042e-08
-4.45608e-08
1.83537e-08
-4.90379e-08
1.81434e-08
-5.34561e-08
1.78668e-08
-5.77997e-08
1.75191e-08
-6.20525e-08
1.70971e-08
-6.61975e-08
1.65988e-08
-7.0218e-08
1.60239e-08
-7.40968e-08
1.53731e-08
-7.78171e-08
1.46477e-08
-8.13624e-08
1.38499e-08
-8.47164e-08
1.29819e-08
-8.78632e-08
1.20462e-08
-9.07871e-08
1.10452e-08
-9.3473e-08
9.98091e-09
-9.59058e-08
8.8555e-09
-9.80707e-08
7.6707e-09
-9.99531e-08
6.42811e-09
-1.01539e-07
5.12904e-09
-1.02813e-07
3.77452e-09
-1.03763e-07
2.36517e-09
-1.04376e-07
9.02736e-10
-1.04641e-07
-6.11937e-10
-1.04543e-07
-2.1767e-09
-1.04072e-07
-3.7893e-09
-1.03216e-07
-5.44555e-09
-1.01964e-07
-7.1424e-09
-1.00309e-07
-8.87611e-09
-9.82407e-08
-1.06423e-08
-9.57545e-08
-1.2436e-08
-9.28453e-08
-1.42516e-08
-8.95098e-08
-1.60833e-08
-8.57463e-08
-1.79247e-08
-8.15548e-08
-1.97691e-08
-7.69372e-08
-2.16098e-08
-7.18968e-08
-2.34398e-08
-6.64388e-08
-2.52523e-08
-6.057e-08
-2.70405e-08
-5.42987e-08
-2.87974e-08
-4.76347e-08
-3.0516e-08
-4.05888e-08
-3.21895e-08
-3.31741e-08
-3.38121e-08
-2.5405e-08
-3.53772e-08
-1.72968e-08
-3.68777e-08
-8.86679e-09
-3.83065e-08
-1.32914e-10
-3.96564e-08
8.88551e-09
-4.09194e-08
1.81649e-08
-4.20876e-08
2.76842e-08
-4.31565e-08
3.74179e-08
-4.41149e-08
4.73405e-08
-4.4954e-08
5.74247e-08
-4.5667e-08
6.76412e-08
-4.62461e-08
7.79598e-08
-4.66839e-08
8.83487e-08
-4.69733e-08
9.87753e-08
-4.71081e-08
1.09206e-07
-4.70829e-08
1.19606e-07
-4.68932e-08
1.2994e-07
-4.65352e-08
1.40172e-07
-4.6007e-08
1.50268e-07
-4.53079e-08
1.60191e-07
-4.44387e-08
1.69906e-07
-4.34026e-08
1.79379e-07
-4.22051e-08
1.88578e-07
-4.08546e-08
1.97472e-07
-3.9363e-08
2.06033e-07
-3.77464e-08
2.14237e-07
-3.60253e-08
2.22065e-07
-3.42254e-08
2.29505e-07
-3.23775e-08
2.3655e-07
-3.05177e-08
2.43201e-07
-2.86865e-08
2.49472e-07
-2.69278e-08
2.55381e-07
-2.52867e-08
2.60961e-07
-2.38071e-08
2.66248e-07
-2.25279e-08
2.71289e-07
-2.14792e-08
2.76134e-07
-2.06776e-08
2.80832e-07
-2.01221e-08
2.85427e-07
-1.97893e-08
2.89954e-07
-1.9633e-08
2.94429e-07
-1.95863e-08
2.98848e-07
-1.95697e-08
3.03187e-07
-1.95061e-08
3.07406e-07
-1.93389e-08
3.11464e-07
-1.90441e-08
3.15324e-07
-1.86319e-08
3.18962e-07
-1.81384e-08
3.22375e-07
-1.7612e-08
3.25577e-07
-1.71032e-08
3.28603e-07
-1.66588e-08
-1.63319e-08
3.31521e-07
-3.53219e-09
1.77037e-08
-8.03609e-09
2.27372e-08
-1.26293e-08
2.32125e-08
-1.72361e-08
2.32681e-08
-2.18509e-08
2.32926e-08
-2.6471e-08
2.32993e-08
-3.10916e-08
2.32783e-08
-3.57059e-08
2.32167e-08
-4.03043e-08
2.31026e-08
-4.48753e-08
2.29247e-08
-4.94055e-08
2.26736e-08
-5.38799e-08
2.23412e-08
-5.82825e-08
2.19217e-08
-6.25965e-08
2.14111e-08
-6.68047e-08
2.0807e-08
-7.08896e-08
2.01089e-08
-7.4834e-08
1.93175e-08
-7.86206e-08
1.84343e-08
-8.22326e-08
1.74619e-08
-8.56534e-08
1.64027e-08
-8.88669e-08
1.52597e-08
-9.18572e-08
1.40355e-08
-9.46088e-08
1.27325e-08
-9.71064e-08
1.13531e-08
-9.93349e-08
9.89921e-09
-1.01279e-07
8.37263e-09
-1.02925e-07
6.77487e-09
-1.04258e-07
5.10723e-09
-1.05264e-07
3.37095e-09
-1.05929e-07
1.56797e-09
-1.06241e-07
-2.99852e-10
-1.06188e-07
-2.23011e-09
-1.05757e-07
-4.22015e-09
-1.04937e-07
-6.26571e-09
-1.03717e-07
-8.36234e-09
-1.02088e-07
-1.0505e-08
-1.00042e-07
-1.26881e-08
-9.75728e-08
-1.49052e-08
-9.46752e-08
-1.71491e-08
-9.13461e-08
-1.94124e-08
-8.75838e-08
-2.1687e-08
-8.33885e-08
-2.39644e-08
-7.8762e-08
-2.62362e-08
-7.37082e-08
-2.84936e-08
-6.82324e-08
-3.07282e-08
-6.23417e-08
-3.29312e-08
-5.60447e-08
-3.50944e-08
-4.93515e-08
-3.72092e-08
-4.22734e-08
-3.92676e-08
-3.48238e-08
-4.12617e-08
-2.70172e-08
-4.31839e-08
-1.88693e-08
-4.50256e-08
-1.03974e-08
-4.67784e-08
-1.62016e-09
-4.84337e-08
7.44257e-09
-4.99821e-08
1.6769e-08
-5.14141e-08
2.63356e-08
-5.2723e-08
3.61181e-08
-5.38974e-08
4.60903e-08
-5.49262e-08
5.62243e-08
-5.5801e-08
6.6491e-08
-5.65129e-08
7.68599e-08
-5.70528e-08
8.72988e-08
-5.74122e-08
9.77749e-08
-5.75842e-08
1.08254e-07
-5.75621e-08
1.18701e-07
-5.73405e-08
1.29081e-07
-5.69152e-08
1.39358e-07
-5.62837e-08
1.49495e-07
-5.54449e-08
1.59457e-07
-5.44001e-08
1.69206e-07
-5.31525e-08
1.7871e-07
-5.17087e-08
1.87934e-07
-5.00781e-08
1.96846e-07
-4.82749e-08
2.05417e-07
-4.63175e-08
2.13622e-07
-4.42304e-08
2.2144e-07
-4.20438e-08
2.28858e-07
-3.97948e-08
2.35866e-07
-3.75265e-08
2.42468e-07
-3.52881e-08
2.48673e-07
-3.31328e-08
2.54502e-07
-3.11158e-08
2.59986e-07
-2.9291e-08
2.65165e-07
-2.77067e-08
2.70086e-07
-2.64005e-08
2.74803e-07
-2.53943e-08
2.79368e-07
-2.46872e-08
2.83829e-07
-2.42509e-08
2.88223e-07
-2.40267e-08
2.92565e-07
-2.39282e-08
2.96847e-07
-2.38513e-08
3.01035e-07
-2.36948e-08
3.05082e-07
-2.33854e-08
3.08933e-07
-2.28954e-08
3.12545e-07
-2.22444e-08
3.15893e-07
-2.14861e-08
3.18972e-07
-2.06912e-08
3.21802e-07
-1.9933e-08
3.24423e-07
-1.92794e-08
-1.88214e-08
3.26912e-07
-3.53816e-09
2.12418e-08
-8.04604e-09
2.7245e-08
-1.26461e-08
2.78126e-08
-1.72625e-08
2.78845e-08
-2.18902e-08
2.79203e-08
-2.65267e-08
2.79358e-08
-3.11674e-08
2.79191e-08
-3.58054e-08
2.78547e-08
-4.04308e-08
2.7728e-08
-4.50319e-08
2.75258e-08
-4.95947e-08
2.72364e-08
-5.41039e-08
2.68503e-08
-5.85428e-08
2.63607e-08
-6.28943e-08
2.57626e-08
-6.71408e-08
2.50534e-08
-7.12643e-08
2.42324e-08
-7.52473e-08
2.33005e-08
-7.90724e-08
2.22594e-08
-8.27225e-08
2.1112e-08
-8.6181e-08
1.98612e-08
-8.94316e-08
1.85103e-08
-9.24584e-08
1.70623e-08
-9.52459e-08
1.55199e-08
-9.77785e-08
1.38857e-08
-1.00041e-07
1.2162e-08
-1.02019e-07
1.03505e-08
-1.03697e-07
8.45302e-09
-1.05061e-07
6.47116e-09
-1.06097e-07
4.40653e-09
-1.0679e-07
2.26132e-09
-1.07128e-07
3.80226e-11
-1.07098e-07
-2.2604e-09
-1.06687e-07
-4.63061e-09
-1.05885e-07
-7.06805e-09
-1.0468e-07
-9.56725e-09
-1.03063e-07
-1.2122e-08
-1.01026e-07
-1.47252e-08
-9.85621e-08
-1.7369e-08
-9.56664e-08
-2.00448e-08
-9.23356e-08
-2.27433e-08
-8.8568e-08
-2.54546e-08
-8.43639e-08
-2.81686e-08
-7.97253e-08
-3.08748e-08
-7.4656e-08
-3.35629e-08
-6.91616e-08
-3.62225e-08
-6.32494e-08
-3.88434e-08
-5.69282e-08
-4.14156e-08
-5.02082e-08
-4.39292e-08
-4.31012e-08
-4.63746e-08
-3.56204e-08
-4.87426e-08
-2.77804e-08
-5.10239e-08
-1.95972e-08
-5.32088e-08
-1.10879e-08
-5.52876e-08
-2.27136e-09
-5.72502e-08
6.83263e-09
-5.90861e-08
1.62019e-08
-6.07834e-08
2.58141e-08
-6.23352e-08
3.56432e-08
-6.37265e-08
4.56641e-08
-6.49471e-08
5.58485e-08
-6.59855e-08
6.61674e-08
-6.68317e-08
7.65893e-08
-6.74747e-08
8.70835e-08
-6.79064e-08
9.76155e-08
-6.81162e-08
1.08151e-07
-6.80979e-08
1.18656e-07
-6.78449e-08
1.29093e-07
-6.73524e-08
1.39426e-07
-6.66171e-08
1.49619e-07
-6.56379e-08
1.59635e-07
-6.44158e-08
1.69437e-07
-6.29546e-08
1.78989e-07
-6.12611e-08
1.88257e-07
-5.93462e-08
1.97208e-07
-5.72255e-08
2.05811e-07
-5.49202e-08
2.14039e-07
-5.24582e-08
2.21869e-07
-4.98744e-08
2.29286e-07
-4.7212e-08
2.36282e-07
-4.45217e-08
2.42855e-07
-4.18613e-08
2.49016e-07
-3.92941e-08
2.54786e-07
-3.68861e-08
2.60197e-07
-3.4702e-08
2.65291e-07
-3.28006e-08
2.70119e-07
-3.12287e-08
2.74739e-07
-3.00142e-08
2.7921e-07
-2.91582e-08
2.83587e-07
-2.86278e-08
2.87912e-07
-2.83512e-08
2.92202e-07
-2.82187e-08
2.96448e-07
-2.80969e-08
3.00608e-07
-2.78552e-08
3.04623e-07
-2.73998e-08
3.08426e-07
-2.66985e-08
3.11964e-07
-2.57825e-08
3.15206e-07
-2.47287e-08
3.18149e-07
-2.36338e-08
3.20812e-07
-2.25963e-08
3.2324e-07
-2.17066e-08
-2.11007e-08
3.25519e-07
-3.53813e-09
2.47799e-08
-8.04465e-09
3.17516e-08
-1.26458e-08
3.24137e-08
-1.72663e-08
3.2505e-08
-2.19014e-08
3.25554e-08
-2.6549e-08
3.25835e-08
-3.12048e-08
3.25748e-08
-3.58615e-08
3.25113e-08
-4.0509e-08
3.23756e-08
-4.51352e-08
3.2152e-08
-4.97256e-08
3.18268e-08
-5.42643e-08
3.1389e-08
-5.87341e-08
3.08305e-08
-6.31173e-08
3.01458e-08
-6.73957e-08
2.93319e-08
-7.15513e-08
2.8388e-08
-7.55659e-08
2.73151e-08
-7.94222e-08
2.61156e-08
-8.31027e-08
2.47926e-08
-8.6591e-08
2.33495e-08
-8.98706e-08
2.179e-08
-9.29258e-08
2.01174e-08
-9.57408e-08
1.8335e-08
-9.83005e-08
1.64454e-08
-1.0059e-07
1.44511e-08
-1.02593e-07
1.23541e-08
-1.04297e-07
1.01563e-08
-1.05685e-07
7.85954e-09
-1.06744e-07
5.4657e-09
-1.0746e-07
2.97724e-09
-1.07819e-07
3.97098e-10
-1.07808e-07
-2.27121e-09
-1.07415e-07
-5.02363e-09
-1.06628e-07
-7.85498e-09
-1.05437e-07
-1.07589e-08
-1.03831e-07
-1.3728e-08
-1.01802e-07
-1.67539e-08
-9.93436e-08
-1.98272e-08
-9.64507e-08
-2.29377e-08
-9.31197e-08
-2.60743e-08
-8.93489e-08
-2.92254e-08
-8.51386e-08
-3.23789e-08
-8.04908e-08
-3.55226e-08
-7.54095e-08
-3.86443e-08
-6.99003e-08
-4.17317e-08
-6.39706e-08
-4.47731e-08
-5.76294e-08
-4.77568e-08
-5.0887e-08
-5.06716e-08
-4.37553e-08
-5.35063e-08
-3.62475e-08
-5.62504e-08
-2.83783e-08
-5.88931e-08
-2.01635e-08
-6.14236e-08
-1.16205e-08
-6.38307e-08
-2.76774e-09
-6.6103e-08
6.37467e-09
-6.82285e-08
1.5785e-08
-7.01937e-08
2.54403e-08
-7.19905e-08
3.53164e-08
-7.36025e-08
4.53859e-08
-7.50166e-08
5.56215e-08
-7.62212e-08
6.59938e-08
-7.7204e-08
7.64721e-08
-7.7953e-08
8.70236e-08
-7.8458e-08
9.76151e-08
-7.87077e-08
1.08212e-07
-7.86947e-08
1.18778e-07
-7.84114e-08
1.29278e-07
-7.78523e-08
1.39675e-07
-7.70134e-08
1.4993e-07
-7.58934e-08
1.60007e-07
-7.4493e-08
1.69869e-07
-7.28162e-08
1.79478e-07
-7.08702e-08
1.88799e-07
-6.86668e-08
1.97796e-07
-6.62231e-08
2.06439e-07
-6.35626e-08
2.14697e-07
-6.07164e-08
2.22547e-07
-5.77244e-08
2.2997e-07
-5.46356e-08
2.36957e-07
-5.15086e-08
2.43507e-07
-4.84105e-08
2.49628e-07
-4.5415e-08
2.55341e-07
-4.25997e-08
2.60681e-07
-4.00414e-08
2.65691e-07
-3.78106e-08
2.70427e-07
-3.5965e-08
2.74953e-07
-3.45406e-08
2.79337e-07
-3.35423e-08
2.83643e-07
-3.29338e-08
2.87921e-07
-3.2629e-08
2.92195e-07
-3.24923e-08
2.96452e-07
-3.23542e-08
3.00644e-07
-3.20472e-08
3.04696e-07
-3.14517e-08
3.08527e-07
-3.05294e-08
3.12072e-07
-2.93272e-08
3.15294e-07
-2.79505e-08
3.18187e-07
-2.65269e-08
3.20772e-07
-2.51815e-08
3.23091e-07
-2.40259e-08
-2.32499e-08
3.2524e-07
-3.53455e-09
2.83145e-08
-8.03699e-09
3.6254e-08
-1.26367e-08
3.70135e-08
-1.7259e-08
3.71272e-08
-2.18999e-08
3.71962e-08
-2.65576e-08
3.72412e-08
-3.12278e-08
3.72451e-08
-3.59032e-08
3.71867e-08
-4.05734e-08
3.70458e-08
-4.52256e-08
3.68041e-08
-4.98447e-08
3.64459e-08
-5.44142e-08
3.59585e-08
-5.89162e-08
3.53326e-08
-6.33324e-08
3.4562e-08
-6.76441e-08
3.36436e-08
-7.18328e-08
3.25766e-08
-7.588e-08
3.13624e-08
-7.97681e-08
3.00037e-08
-8.34797e-08
2.85042e-08
-8.69981e-08
2.68679e-08
-9.03071e-08
2.50989e-08
-9.33909e-08
2.32011e-08
-9.62338e-08
2.11779e-08
-9.88208e-08
1.90324e-08
-1.01137e-07
1.67669e-08
-1.03166e-07
1.43839e-08
-1.04895e-07
1.18853e-08
-1.06309e-07
9.27304e-09
-1.07393e-07
6.54931e-09
-1.08132e-07
3.71678e-09
-1.08514e-07
7.78723e-10
-1.08524e-07
-2.26084e-09
-1.08151e-07
-5.39715e-09
-1.07381e-07
-8.62431e-09
-1.06205e-07
-1.1935e-08
-1.04612e-07
-1.53208e-08
-1.02594e-07
-1.87719e-08
-1.00144e-07
-2.22774e-08
-9.72564e-08
-2.58255e-08
-9.39275e-08
-2.94032e-08
-9.01557e-08
-3.29971e-08
-8.59413e-08
-3.65933e-08
-8.12863e-08
-4.01776e-08
-7.61947e-08
-4.37359e-08
-7.06722e-08
-4.72542e-08
-6.47264e-08
-5.0719e-08
-5.83662e-08
-5.4117e-08
-5.16021e-08
-5.74356e-08
-4.44462e-08
-6.06623e-08
-3.69115e-08
-6.3785e-08
-2.90128e-08
-6.67918e-08
-2.07659e-08
-6.96705e-08
-1.2188e-08
-7.24086e-08
-3.29752e-09
-7.49934e-08
5.88555e-09
-7.74116e-08
1.53419e-08
-7.96501e-08
2.50437e-08
-8.16924e-08
3.49676e-08
-8.35264e-08
4.50899e-08
-8.51388e-08
5.53814e-08
-8.65127e-08
6.58127e-08
-8.76353e-08
7.63525e-08
-8.84927e-08
8.69678e-08
-8.90733e-08
9.76256e-08
-8.93655e-08
1.0829e-07
-8.93595e-08
1.18926e-07
-8.90472e-08
1.29496e-07
-8.84223e-08
1.39963e-07
-8.74804e-08
1.50289e-07
-8.62192e-08
1.60436e-07
-8.46396e-08
1.70365e-07
-8.27453e-08
1.80038e-07
-8.05439e-08
1.89419e-07
-7.80476e-08
1.98471e-07
-7.52748e-08
2.0716e-07
-7.22512e-08
2.15454e-07
-6.90109e-08
2.23328e-07
-6.55983e-08
2.30761e-07
-6.20688e-08
2.37741e-07
-5.84888e-08
2.44266e-07
-5.49351e-08
2.50344e-07
-5.14926e-08
2.55995e-07
-4.82515e-08
2.61256e-07
-4.53016e-08
2.66172e-07
-4.2727e-08
2.70805e-07
-4.05982e-08
2.75227e-07
-3.8962e-08
2.79514e-07
-3.78296e-08
2.83743e-07
-3.71629e-08
2.87976e-07
-3.68618e-08
2.92244e-07
-3.67606e-08
2.96536e-07
-3.66455e-08
3.0079e-07
-3.63017e-08
3.04914e-07
-3.55757e-08
3.08807e-07
-3.44227e-08
3.12391e-07
-3.29106e-08
3.15621e-07
-3.11806e-08
3.18491e-07
-2.93967e-08
3.2102e-07
-2.77109e-08
3.23245e-07
-2.62512e-08
-2.52697e-08
3.25265e-07
-3.52839e-09
3.18429e-08
-8.02492e-09
4.07505e-08
-1.26218e-08
4.16103e-08
-1.72449e-08
4.17503e-08
-2.18913e-08
4.18426e-08
-2.65595e-08
4.19095e-08
-3.12455e-08
4.1931e-08
-3.59414e-08
4.18827e-08
-4.06368e-08
4.17411e-08
-4.53179e-08
4.14853e-08
-4.99692e-08
4.10972e-08
-5.45731e-08
4.05624e-08
-5.91111e-08
3.98706e-08
-6.35642e-08
3.9015e-08
-6.7913e-08
3.79924e-08
-7.21384e-08
3.6802e-08
-7.62217e-08
3.54458e-08
-8.01451e-08
3.39271e-08
-8.3891e-08
3.22501e-08
-8.74428e-08
3.04197e-08
-9.07842e-08
2.84403e-08
-9.38994e-08
2.63164e-08
-9.67732e-08
2.40517e-08
-9.93903e-08
2.16495e-08
-1.01736e-07
1.91124e-08
-1.03795e-07
1.64428e-08
-1.05552e-07
1.36429e-08
-1.06994e-07
1.07146e-08
-1.08105e-07
7.66029e-09
-1.08871e-07
4.48285e-09
-1.09278e-07
1.18583e-09
-1.09312e-07
-2.2263e-09
-1.08961e-07
-5.74816e-09
-1.08213e-07
-9.37306e-09
-1.07055e-07
-1.30928e-08
-1.05478e-07
-1.68977e-08
-1.03473e-07
-2.07767e-08
-1.01033e-07
-2.47175e-08
-9.81523e-08
-2.87063e-08
-9.48269e-08
-3.27286e-08
-9.10552e-08
-3.67689e-08
-8.68372e-08
-4.08113e-08
-8.21752e-08
-4.48397e-08
-7.7073e-08
-4.8838e-08
-7.15367e-08
-5.27906e-08
-6.55736e-08
-5.6682e-08
-5.91931e-08
-6.04976e-08
-5.24057e-08
-6.4223e-08
-4.52233e-08
-6.78446e-08
-3.76593e-08
-7.1349e-08
-2.97282e-08
-7.47228e-08
-2.14459e-08
-7.79528e-08
-1.28294e-08
-8.10251e-08
-3.89711e-09
-8.39257e-08
5.33084e-09
-8.66395e-08
1.48333e-08
-8.91526e-08
2.45881e-08
-9.14471e-08
3.45698e-08
-9.35082e-08
4.47516e-08
-9.53206e-08
5.51061e-08
-9.68672e-08
6.56034e-08
-9.81326e-08
7.62123e-08
-9.91017e-08
8.68999e-08
-9.97608e-08
9.7632e-08
-1.00098e-07
1.08373e-07
-1.00101e-07
1.19087e-07
-9.97612e-08
1.29737e-07
-9.90717e-08
1.40283e-07
-9.80271e-08
1.50689e-07
-9.66248e-08
1.60914e-07
-9.4865e-08
1.7092e-07
-9.27513e-08
1.80667e-07
-9.02912e-08
1.90117e-07
-8.74974e-08
1.99232e-07
-8.43891e-08
2.07974e-07
-8.09936e-08
2.16311e-07
-7.73481e-08
2.24214e-07
-7.35013e-08
2.3166e-07
-6.95147e-08
2.38634e-07
-6.54631e-08
2.45133e-07
-6.14333e-08
2.51162e-07
-5.75224e-08
2.56745e-07
-5.38336e-08
2.61915e-07
-5.04716e-08
2.66723e-07
-4.75358e-08
2.71237e-07
-4.51118e-08
2.75535e-07
-4.32604e-08
2.79708e-07
-4.20026e-08
2.83847e-07
-4.13016e-08
2.88029e-07
-4.10435e-08
2.92296e-07
-4.10281e-08
2.96637e-07
-4.09863e-08
3.00977e-07
-4.06421e-08
3.052e-07
-3.9798e-08
3.09178e-07
-3.84016e-08
3.12817e-07
-3.65495e-08
3.16065e-07
-3.44287e-08
3.18916e-07
-3.22474e-08
3.21389e-07
-3.01836e-08
3.23509e-07
-2.83713e-08
-2.71299e-08
3.25369e-07
-3.51984e-09
3.53627e-08
-8.00876e-09
4.52395e-08
-1.26014e-08
4.6203e-08
-1.72248e-08
4.63736e-08
-2.18768e-08
4.64946e-08
-2.65565e-08
4.65892e-08
-3.12599e-08
4.66343e-08
-3.5979e-08
4.66018e-08
-4.07026e-08
4.64647e-08
-4.54165e-08
4.61992e-08
-5.0104e-08
4.57847e-08
-5.47468e-08
4.52052e-08
-5.93255e-08
4.44493e-08
-6.382e-08
4.35096e-08
-6.82104e-08
4.23828e-08
-7.24771e-08
4.10686e-08
-7.66009e-08
3.95696e-08
-8.05637e-08
3.78899e-08
-8.4348e-08
3.60344e-08
-8.79369e-08
3.40086e-08
-9.13145e-08
3.18178e-08
-9.44649e-08
2.94669e-08
-9.73731e-08
2.69599e-08
-1.00024e-07
2.43003e-08
-1.02403e-07
2.1491e-08
-1.04494e-07
1.85344e-08
-1.06284e-07
1.54325e-08
-1.07757e-07
1.21876e-08
-1.08899e-07
8.80207e-09
-1.09695e-07
5.27882e-09
-1.1013e-07
1.62171e-09
-1.10192e-07
-2.16439e-09
-1.09867e-07
-6.07355e-09
-1.09142e-07
-1.00983e-08
-1.08005e-07
-1.42294e-08
-1.06447e-07
-1.84563e-08
-1.04457e-07
-2.27664e-08
-1.02029e-07
-2.71458e-08
-9.91558e-08
-3.15791e-08
-9.58347e-08
-3.60497e-08
-9.20633e-08
-4.05403e-08
-8.78416e-08
-4.50329e-08
-8.31718e-08
-4.95095e-08
-7.8058e-08
-5.39518e-08
-7.25061e-08
-5.83424e-08
-6.65239e-08
-6.26642e-08
-6.01206e-08
-6.69008e-08
-5.3307e-08
-7.10366e-08
-4.60952e-08
-7.50565e-08
-3.84984e-08
-7.89458e-08
-3.05312e-08
-8.26901e-08
-2.22093e-08
-8.62747e-08
-1.35497e-08
-8.96848e-08
-4.57063e-09
-9.29047e-08
4.70744e-09
-9.59176e-08
1.42645e-08
-9.87096e-08
2.40777e-08
-1.0126e-07
3.41215e-08
-1.03552e-07
4.43699e-08
-1.05569e-07
5.47947e-08
-1.07292e-07
6.5366e-08
-1.08704e-07
7.60524e-08
-1.09788e-07
8.68206e-08
-1.10529e-07
9.76361e-08
-1.10913e-07
1.08463e-07
-1.10928e-07
1.19265e-07
-1.10563e-07
1.30003e-07
-1.0981e-07
1.40639e-07
-1.08663e-07
1.51134e-07
-1.0712e-07
1.61448e-07
-1.05179e-07
1.7154e-07
-1.02844e-07
1.81371e-07
-1.00122e-07
1.909e-07
-9.70258e-08
2.00085e-07
-9.3575e-08
2.0889e-07
-8.97982e-08
2.17277e-07
-8.57352e-08
2.25215e-07
-8.14389e-08
2.32677e-07
-7.69771e-08
2.39647e-07
-7.24328e-08
2.46117e-07
-6.79037e-08
2.52094e-07
-6.34994e-08
2.57598e-07
-5.93377e-08
2.62666e-07
-5.55392e-08
2.67351e-07
-5.22207e-08
2.71725e-07
-4.94861e-08
2.75878e-07
-4.74138e-08
2.79915e-07
-4.60395e-08
2.83945e-07
-4.53316e-08
2.88066e-07
-4.51644e-08
2.92336e-07
-4.52976e-08
2.96742e-07
-4.53931e-08
3.01195e-07
-4.50947e-08
3.05544e-07
-4.41473e-08
3.09633e-07
-4.24899e-08
3.13341e-07
-4.02579e-08
3.16612e-07
-3.76994e-08
3.19441e-07
-3.50771e-08
3.21852e-07
-3.2594e-08
3.23853e-07
-3.0373e-08
-2.87941e-08
3.25518e-07
-3.50872e-09
3.88714e-08
-7.98797e-09
4.97187e-08
-1.25751e-08
5.07901e-08
-1.71979e-08
5.09965e-08
-2.18557e-08
5.11524e-08
-2.65478e-08
5.12813e-08
-3.12705e-08
5.1357e-08
-3.60155e-08
5.13468e-08
-4.0771e-08
5.12201e-08
-4.55217e-08
5.09499e-08
-5.025e-08
5.0513e-08
-5.49365e-08
4.98918e-08
-5.95607e-08
4.90735e-08
-6.41017e-08
4.80505e-08
-6.85386e-08
4.68197e-08
-7.28512e-08
4.53813e-08
-7.70201e-08
4.37385e-08
-8.10267e-08
4.18964e-08
-8.48534e-08
3.98611e-08
-8.84835e-08
3.76388e-08
-9.19011e-08
3.52354e-08
-9.50906e-08
3.26564e-08
-9.80369e-08
2.99062e-08
-1.00725e-07
2.69886e-08
-1.03141e-07
2.39065e-08
-1.05268e-07
2.06622e-08
-1.07094e-07
1.7258e-08
-1.08602e-07
1.36958e-08
-1.09778e-07
9.97824e-09
-1.10608e-07
6.10822e-09
-1.11076e-07
2.0898e-09
-1.11168e-07
-2.07181e-09
-1.10872e-07
-6.37015e-09
-1.10173e-07
-1.0797e-08
-1.0906e-07
-1.53423e-08
-1.07522e-07
-1.99942e-08
-1.0555e-07
-2.47389e-08
-1.03135e-07
-2.95608e-08
-1.00271e-07
-3.44427e-08
-9.69546e-08
-3.93661e-08
-9.31835e-08
-4.43115e-08
-8.89576e-08
-4.92589e-08
-8.4279e-08
-5.4188e-08
-7.91521e-08
-5.90788e-08
-7.35828e-08
-6.39117e-08
-6.75792e-08
-6.86679e-08
-6.11505e-08
-7.33295e-08
-5.43077e-08
-7.78794e-08
-4.7063e-08
-8.23012e-08
-3.94298e-08
-8.6579e-08
-3.14225e-08
-9.06974e-08
-2.30568e-08
-9.46404e-08
-1.43495e-08
-9.83921e-08
-5.31853e-09
-1.01936e-07
4.01842e-09
-1.05255e-07
1.36324e-08
-1.08324e-07
2.35101e-08
-1.11138e-07
3.36229e-08
-1.13665e-07
4.39447e-08
-1.15891e-07
5.44472e-08
-1.17795e-07
6.51003e-08
-1.19357e-07
7.58727e-08
-1.2056e-07
8.67302e-08