/*--------------------------------*- C++ -*----------------------------------*\
| =========                 |                                                 |
| \\      /  F ield         | OpenFOAM: The Open Source CFD Toolbox           |
|  \\    /   O peration     | Version:  2.4.0                                 |
|   \\  /    A nd           | Web:      www.OpenFOAM.org                      |
|    \\/     M anipulation  |                                                 |
\*---------------------------------------------------------------------------*/
FoamFile
{
    version     2.0;
    format      ascii;
    class       volScalarField;
    location    "0.194";
    object      alpha.water;
}
// * * * * * * * * * * * * * * * * * * * * * * * * * * * * * * * * * * * * * //

dimensions      [0 0 0 0 0 0 0];

internalField   nonuniform List<scalar> 
60000
(
1
1
1
1
1
1
1
1
1
1
1
1
1
1
1
1
1
1
1
1
1
1
1
1
1
1
1
1
1
1
1
1
1
1
1
1
1
1
1
1
1
1
1
1
1
1
1
1
1
1
1
1
1
1
1
1
1
1
1
1
1
1
1
1
1
1
1
1
1
1
1
1
1
1
1
1
1
1
1
1
1
1
1
1
1
1
1
1
1
1
1
1
1
1
1
1
1
1
1
1
1
1
1
1
1
1
1
1
1
1
1
1
1
1
1
1
1
1
1
1
1
1
1
1
1
1
1
1
1
1
1
1
1
1
1
1
1
1
1
1
1
1
1
1
1
1
1
1
1
1
1
1
1
1
1
1
1
1
1
1
1
1
1
1
1
1
1
1
1
1
1
1
1
1
1
1
1
1
1
1
1
1
1
1
1
1
1
1
1
1
1
1
1
1
1
1
1
1
1
1
1
1
1
1
1
1
1
1
1
1
1
1
1
1
1
1
1
1
1
1
1
1
1
1
1
1
1
1
1
1
1
1
1
1
1
1
1
1
1
1
1
1
1
1
1
1
1
1
1
1
1
1
1
1
1
1
1
1
1
1
1
1
1
1
1
1
1
1
1
1
1
1
1
1
1
1
1
1
1
1
1
1
1
1
1
1
1
1
1
1
1
1
1
1
1
1
1
1
1
1
1
1
1
1
1
1
1
1
1
1
1
1
1
1
1
1
1
1
1
1
1
1
1
1
1
1
1
1
1
1
1
1
1
1
1
1
1
1
1
1
1
1
1
1
1
1
1
1
1
1
1
1
1
1
1
1
1
1
1
1
1
1
1
1
1
1
1
1
1
1
1
1
1
1
1
1
1
1
1
1
1
1
1
1
1
1
1
1
1
1
1
1
1
1
1
1
1
1
1
1
1
1
1
1
1
1
1
1
1
1
1
1
1
1
1
1
1
1
1
1
1
1
1
1
1
1
1
1
1
1
1
1
1
1
1
1
1
1
1
1
1
1
1
1
1
1
1
1
1
1
1
1
1
1
1
1
1
1
1
1
1
1
1
1
1
1
1
1
1
1
1
1
1
1
1
1
1
1
1
1
1
1
1
1
1
1
1
1
1
1
1
1
1
1
1
1
1
1
1
1
1
1
1
1
1
1
1
1
1
1
1
1
1
1
1
1
1
1
1
1
1
1
1
1
1
1
1
1
1
1
1
1
1
1
1
1
1
1
1
1
1
1
1
1
1
1
1
1
1
1
1
1
1
1
1
1
1
1
1
1
1
1
1
1
1
1
1
1
1
1
1
1
1
1
1
1
1
1
1
1
1
1
1
1
1
1
1
1
1
1
1
1
1
1
1
1
1
1
1
1
1
1
1
1
1
1
1
1
1
1
1
1
1
1
1
1
1
1
1
1
1
1
1
1
1
1
1
1
1
1
1
1
1
1
1
1
1
1
1
1
1
1
1
1
1
1
1
1
1
1
1
1
1
1
1
1
1
1
1
1
1
1
1
1
1
1
1
1
1
1
1
1
1
1
1
1
1
1
1
1
1
1
1
1
1
1
1
1
1
1
1
1
1
1
1
1
1
1
1
1
1
1
1
1
1
1
1
1
1
1
1
1
1
1
1
1
1
1
1
1
1
1
1
1
1
1
1
1
1
1
1
1
1
1
1
1
1
1
1
1
1
1
1
1
1
1
1
1
1
1
1
1
1
1
1
1
1
1
1
1
1
1
1
1
1
1
1
1
1
1
1
1
1
1
1
1
1
1
1
1
1
1
1
1
1
1
1
1
1
1
1
1
1
1
1
1
1
1
1
1
1
1
1
1
1
1
1
1
1
1
1
1
1
1
1
1
1
1
1
1
1
1
1
1
1
1
1
1
1
1
1
1
1
1
1
1
1
1
1
1
1
1
1
1
1
1
1
1
1
1
1
1
1
1
1
1
1
1
1
1
1
1
1
1
1
1
1
1
1
1
1
1
1
1
1
1
1
1
1
1
1
1
1
1
1
1
1
1
1
1
1
1
1
1
1
1
1
1
1
1
1
1
1
1
1
1
1
1
1
1
1
1
1
1
1
1
1
1
1
1
1
1
1
1
1
1
1
1
1
1
1
1
1
1
1
1
1
1
1
1
1
1
1
1
1
1
1
1
1
1
1
1
1
1
1
1
1
1
1
1
1
1
1
1
1
1
1
1
1
1
1
1
1
1
1
1
1
1
1
1
1
1
1
1
1
1
1
1
1
1
1
1
1
1
1
1
1
1
1
1
1
1
1
1
1
1
1
1
1
1
1
1
1
1
1
1
1
1
1
1
1
1
1
1
1
1
1
1
1
1
1
1
1
1
1
1
1
1
1
1
1
1
1
1
1
1
1
1
1
1
1
1
1
1
1
1
1
1
1
1
1
1
1
1
1
1
1
1
1
1
1
1
1
1
1
1
1
1
1
1
1
1
1
1
1
1
1
1
1
1
1
1
1
1
1
1
1
1
1
1
1
1
1
1
1
1
1
1
1
1
1
1
1
1
1
1
1
1
1
1
1
1
1
1
1
1
1
1
1
1
1
1
1
1
1
1
1
1
1
1
1
1
1
1
1
1
1
1
1
1
1
1
1
1
1
1
1
1
1
1
1
1
1
1
1
1
1
1
1
1
1
1
1
1
1
1
1
1
1
1
1
1
1
1
1
1
1
1
1
1
1
1
1
1
1
1
1
1
1
1
1
1
1
1
1
1
1
1
1
1
1
1
1
1
1
1
1
1
1
1
1
1
1
1
1
1
1
1
1
1
1
1
1
1
1
1
1
1
1
1
1
1
1
1
1
1
1
1
1
1
1
1
1
1
1
1
1
1
1
1
1
1
1
1
1
1
1
1
1
1
1
1
1
1
1
1
1
1
1
1
1
1
1
1
1
1
1
1
1
1
1
1
1
1
1
1
1
1
1
1
1
1
1
1
1
1
1
1
1
1
1
1
1
1
1
1
1
1
1
1
1
1
1
1
1
1
1
1
1
1
1
1
1
1
1
1
1
1
1
1
1
1
1
1
1
1
1
1
1
1
1
1
1
1
1
1
1
1
1
1
1
1
1
1
1
1
1
1
1
1
1
1
1
1
1
1
1
1
1
1
1
1
1
1
1
1
1
1
1
1
1
1
1
1
1
1
1
1
1
1
1
1
1
1
1
1
1
1
1
1
1
1
1
1
1
1
1
1
1
1
1
1
1
1
1
1
1
1
1
1
1
1
1
1
1
1
1
1
1
1
1
1
1
1
1
1
1
1
1
1
1
1
1
1
1
1
1
1
1
1
1
1
1
1
1
1
1
1
1
1
1
1
1
1
1
1
1
1
1
1
1
1
1
1
1
1
1
1
1
1
1
1
1
1
1
1
1
1
1
1
1
1
1
1
1
1
1
1
1
1
1
1
1
1
1
1
1
1
1
1
1
1
1
1
1
1
1
1
1
1
1
1
1
1
1
1
1
1
1
1
1
1
1
1
1
1
1
1
1
1
1
1
1
1
1
1
1
1
1
1
1
1
1
1
1
1
1
1
1
1
1
1
1
1
1
1
1
1
1
1
1
1
1
1
1
1
1
1
1
1
1
1
1
1
1
1
1
1
1
1
1
1
1
1
1
1
1
1
1
1
1
1
1
1
1
1
1
1
1
1
1
1
1
1
1
1
1
1
1
1
1
1
1
1
1
1
1
1
1
1
1
1
1
1
1
1
1
1
1
1
1
1
1
1
1
1
1
1
1
1
1
1
1
1
1
1
1
1
1
1
1
1
1
1
1
1
1
1
1
1
1
1
1
1
1
1
1
1
1
1
1
1
1
1
1
1
1
1
1
1
1
1
1
1
1
1
1
1
1
1
1
1
1
1
1
1
1
1
1
1
1
1
1
1
1
1
1
1
1
1
1
1
1
1
1
1
1
1
1
1
1
1
1
1
1
1
1
1
1
1
1
1
1
1
1
1
1
1
1
1
1
1
1
1
1
1
1
1
1
1
1
1
1
1
1
1
1
1
1
1
1
1
1
1
1
1
1
1
1
1
1
1
1
1
1
1
1
1
1
1
1
1
1
1
1
1
1
1
1
1
1
1
1
1
1
1
1
1
1
1
1
1
1
1
1
1
1
1
1
1
1
1
1
1
1
1
1
1
1
1
1
1
1
1
1
1
1
1
1
1
1
1
1
1
1
1
1
1
1
1
1
1
1
1
1
1
1
1
1
1
1
1
1
1
1
1
1
1
1
1
1
1
1
1
1
1
1
1
1
1
1
1
1
1
1
1
1
1
1
1
1
1
1
1
1
1
1
1
1
1
1
1
1
1
1
1
1
1
1
1
1
1
1
1
1
1
1
1
1
1
1
1
1
1
1
1
1
1
1
1
1
1
1
1
1
1
1
1
1
1
1
1
1
1
1
1
1
1
1
1
1
1
1
1
1
1
1
1
1
1
1
1
1
1
1
1
1
1
1
1
1
1
1
1
1
1
1
1
1
1
1
1
1
1
1
1
1
1
1
1
1
1
1
1
1
1
1
1
1
1
1
1
1
1
1
1
1
1
1
1
1
1
1
1
1
1
1
1
1
1
1
1
1
1
1
1
1
1
1
1
1
1
1
1
1
1
1
1
1
1
1
1
1
1
1
1
1
1
1
1
1
1
1
1
1
1
1
1
1
1
1
1
1
1
1
1
1
1
1
1
1
1
1
1
1
1
1
1
1
1
1
1
1
1
1
1
1
1
1
1
1
1
1
1
1
1
1
1
1
1
1
1
1
1
1
1
1
1
1
1
1
1
1
1
1
1
1
1
1
1
1
1
1
1
1
1
1
1
1
1
1
1
1
1
1
1
1
1
1
1
1
1
1
1
1
1
1
1
1
1
1
1
1
1
1
1
1
1
1
1
1
1
1
1
1
1
1
1
1
1
1
1
1
1
1
1
1
1
1
1
1
1
1
1
1
1
1
1
1
1
1
1
1
1
1
1
1
1
1
1
1
1
1
1
1
1
1
1
1
1
1
1
1
1
1
1
1
1
1
1
1
1
1
1
1
1
1
1
1
1
1
1
1
1
1
1
1
1
1
1
1
1
1
1
1
1
1
1
1
1
1
1
1
1
1
1
1
1
1
1
1
1
1
1
1
1
1
1
1
1
1
1
1
1
1
1
1
1
1
1
1
1
1
1
1
1
1
1
1
1
1
1
1
1
1
1
1
1
1
1
1
1
1
1
1
1
1
1
1
1
1
1
1
1
1
1
1
1
1
1
1
1
1
1
1
1
1
1
1
1
1
1
1
1
1
1
1
1
1
1
1
1
1
1
1
1
1
1
1
1
1
1
1
1
1
1
1
1
1
1
1
1
1
1
1
1
1
1
1
1
1
1
1
1
1
1
1
1
1
1
1
1
1
1
1
1
1
1
1
1
1
1
1
1
1
1
1
1
1
1
1
1
1
1
1
1
1
1
1
1
1
1
1
1
1
1
1
1
1
1
1
1
1
1
1
1
1
1
1
1
1
1
1
1
1
1
1
1
1
1
1
1
1
1
1
1
1
1
1
1
1
1
1
1
1
1
1
1
1
1
1
1
1
1
1
1
1
1
1
1
1
1
1
1
1
1
1
1
1
1
1
1
1
1
1
1
1
1
1
1
1
1
1
1
1
1
1
1
1
1
1
1
1
1
1
1
1
1
1
1
1
1
1
1
1
1
1
1
1
1
1
1
1
1
1
1
1
1
1
1
1
1
1
1
1
1
1
1
1
1
1
1
1
1
1
1
1
1
1
1
1
1
1
1
1
1
1
1
1
1
1
1
1
1
1
1
1
1
1
1
1
1
1
1
1
1
1
1
1
1
1
1
1
1
1
1
1
1
1
1
1
1
1
1
1
1
1
1
1
1
1
1
1
1
1
1
1
1
1
1
1
1
1
1
1
1
1
1
1
1
1
1
1
1
1
1
1
1
1
1
1
1
1
1
1
1
1
1
1
1
1
1
1
1
1
1
1
1
1
1
1
1
1
1
1
1
1
1
1
1
1
1
1
1
1
1
1
1
1
1
1
1
1
1
1
1
1
1
1
1
1
1
1
1
1
1
1
1
1
1
1
1
1
1
1
1
1
1
1
1
1
1
1
1
1
1
1
1
1
1
1
1
1
1
1
1
1
1
1
1
1
1
1
1
1
1
1
1
1
1
1
1
1
1
1
1
1
1
1
1
1
1
1
1
1
1
1
1
1
1
1
1
1
1
1
1
1
1
1
1
1
1
1
1
1
1
1
1
1
1
1
1
1
1
1
1
1
1
1
1
1
1
1
1
1
1
1
1
0.999999
1
1
1
1
1
1
1
1
1
1
1
1
1
1
1
1
1
1
1
1
1
1
1
1
1
1
1
1
1
1
1
1
1
1
1
1
1
1
1
1
1
1
1
1
1
1
1
1
1
1
1
1
1
1
1
1
1
1
1
1
1
1
1
1
1
1
1
1
1
1
1
1
1
1
1
1
1
1
1
1
1
1
1
1
1
1
1
1
1
1
1
1
1
1
1
1
1
1
1
0.99892
0.989755
1
1
1
1
1
1
1
1
1
1
1
1
1
1
1
1
1
1
1
1
1
1
1
1
1
1
1
1
1
1
1
1
1
1
1
1
1
1
1
1
1
1
1
1
1
1
1
1
1
1
1
1
1
1
1
1
1
1
1
1
1
1
1
1
1
1
1
1
1
1
1
1
1
1
1
1
1
1
1
1
1
1
1
1
1
1
1
1
1
1
1
1
1
1
1
1
1
0.999997
0.998666
0.828707
1
1
1
1
1
1
1
1
1
1
1
1
1
1
1
1
1
1
1
1
1
1
1
1
1
1
1
1
1
1
1
1
1
1
1
1
1
1
1
1
1
1
1
1
1
1
1
1
1
1
1
1
1
1
1
1
1
1
1
1
1
1
1
1
1
1
1
1
1
1
1
1
1
1
1
1
1
1
1
1
1
1
1
1
1
1
1
1
1
1
1
1
1
1
1
1
1
0.999995
0.99418
0.746767
1
1
1
1
1
1
1
1
1
1
1
1
1
1
1
1
1
1
1
1
1
1
1
1
1
1
1
1
1
1
1
1
1
1
1
1
1
1
1
1
1
1
1
1
1
1
1
1
1
1
1
1
1
1
1
1
1
1
1
1
1
1
1
1
1
1
1
1
1
1
1
1
1
1
1
1
1
1
1
1
1
1
1
1
1
1
1
1
1
1
1
1
1
1
1
1
1
0.999998
0.999231
0.821875
1
1
1
1
1
1
1
1
1
1
1
1
1
1
1
1
1
1
1
1
1
1
1
1
1
1
1
1
1
1
1
1
1
1
1
1
1
1
1
1
1
1
1
1
1
1
1
1
1
1
1
1
1
1
1
1
1
1
1
1
1
1
1
1
1
1
1
1
1
1
1
1
1
1
1
1
1
1
1
1
1
1
1
1
1
1
1
1
1
1
1
1
1
1
1
1
1
1
0.999993
0.987243
1
1
1
1
1
1
1
1
1
1
1
1
1
1
1
1
1
1
1
1
1
1
1
1
1
1
1
1
1
1
1
1
1
1
1
1
1
1
1
1
1
1
1
1
1
1
1
1
1
1
1
1
1
1
1
1
1
1
1
1
1
1
1
1
1
1
1
1
1
1
1
1
1
1
1
1
1
1
1
1
1
1
1
1
1
1
1
1
1
1
1
1
1
1
1
1
1
1
0.999998
0.999956
1
1
1
1
1
1
1
1
1
1
1
1
1
1
1
1
1
1
1
1
1
1
1
1
1
1
1
1
1
1
1
1
1
1
1
1
1
1
1
1
1
1
1
1
1
1
1
1
1
1
1
1
1
1
1
1
1
1
1
1
1
1
1
1
1
1
1
1
1
1
1
1
1
1
1
1
1
1
1
1
1
1
1
1
1
1
1
1
1
1
1
1
1
1
1
1
1
1
0.999993
0.999653
1
1
1
1
1
1
1
1
1
1
1
1
1
1
1
1
1
1
1
1
1
1
1
1
1
1
1
1
1
1
1
1
1
1
1
1
1
1
1
1
1
1
1
1
1
1
1
1
1
1
1
1
1
1
1
1
1
1
1
1
1
1
1
1
1
1
1
1
1
1
1
1
1
1
1
1
1
1
1
1
1
1
1
1
1
1
1
1
1
1
1
1
1
1
1
1
1
0.999999
0.999977
0.962274
1
1
1
1
1
1
1
1
1
1
1
1
1
1
1
1
1
1
1
1
1
1
1
1
1
1
1
1
1
1
1
1
1
1
1
1
1
1
1
1
1
1
1
1
1
1
1
1
1
1
1
1
1
1
1
1
1
1
1
1
1
1
1
1
1
1
1
1
1
1
1
1
1
1
1
1
1
1
1
1
1
1
1
1
1
1
1
1
1
1
1
1
1
1
1
1
1
0.999997
0.999899
0.775361
1
1
1
1
1
1
1
1
1
1
1
1
1
1
1
1
1
1
1
1
1
1
1
1
1
1
1
1
1
1
1
1
1
1
1
1
1
1
1
1
1
1
1
1
1
1
1
1
1
1
1
1
1
1
1
1
1
1
1
1
1
1
1
1
1
1
1
1
1
1
1
1
1
1
1
1
1
1
1
1
1
1
1
1
1
1
1
1
1
1
1
1
1
1
1
1
0.999998
0.999946
0.913576
0.204799
1
1
1
1
1
1
1
1
1
1
1
1
1
1
1
1
1
1
1
1
1
1
1
1
1
1
1
1
1
1
1
1
1
1
1
1
1
1
1
1
1
1
1
1
1
1
1
1
1
1
1
1
1
1
1
1
1
1
1
1
1
1
1
1
1
1
1
1
1
1
1
1
1
1
1
1
1
1
1
1
1
1
1
1
1
1
1
1
1
1
1
1
1
1
1
1
0.999989
0.990708
0.517873
4.98855e-06
1
1
1
1
1
1
1
1
1
1
1
1
1
1
1
1
1
1
1
1
1
1
1
1
1
1
1
1
1
1
1
1
1
1
1
1
1
1
1
1
1
1
1
1
1
1
1
1
1
1
1
1
1
1
1
1
1
1
1
1
1
1
1
1
1
1
1
1
1
1
1
1
1
1
1
1
1
1
1
1
1
1
1
1
1
1
1
1
1
1
1
1
1
1
1
0.999999
0.999956
0.934319
0.300623
2.47548e-06
1
1
1
1
1
1
1
1
1
1
1
1
1
1
1
1
1
1
1
1
1
1
1
1
1
1
1
1
1
1
1
1
1
1
1
1
1
1
1
1
1
1
1
1
1
1
1
1
1
1
1
1
1
1
1
1
1
1
1
1
1
1
1
1
1
1
1
1
1
1
1
1
1
1
1
1
1
1
1
1
1
1
1
1
1
1
1
1
1
1
1
1
1
1
1
0.999996
0.999871
0.777588
0.0696999
6.1988e-07
1
1
1
1
1
1
1
1
1
1
1
1
1
1
1
1
1
1
1
1
1
1
1
1
1
1
1
1
1
1
1
1
1
1
1
1
1
1
1
1
1
1
1
1
1
1
1
1
1
1
1
1
1
1
1
1
1
1
1
1
1
1
1
1
1
1
1
1
1
1
1
1
1
1
1
1
1
1
1
1
1
1
1
1
1
1
1
1
1
1
1
1
1
1
1
0.999991
0.997582
0.571827
6.10964e-07
4.05291e-07
1
1
1
1
1
1
1
1
1
1
1
1
1
1
1
1
1
1
1
1
1
1
1
1
1
1
1
1
1
1
1
1
1
1
1
1
1
1
1
1
1
1
1
1
1
1
1
1
1
1
1
1
1
1
1
1
1
1
1
1
1
1
1
1
1
1
1
1
1
1
1
1
1
1
1
1
1
1
1
1
1
1
1
1
1
1
1
1
1
1
1
1
1
1
0.999999
0.999973
0.967516
0.364929
4.03369e-07
3.97381e-07
1
1
1
1
1
1
1
1
1
1
1
1
1
1
1
1
1
1
1
1
1
1
1
1
1
1
1
1
1
1
1
1
1
1
1
1
1
1
1
1
1
1
1
1
1
1
1
1
1
1
1
1
1
1
1
1
1
1
1
1
1
1
1
1
1
1
1
1
1
1
1
1
1
1
1
1
1
1
1
1
1
1
1
1
1
1
1
1
1
1
1
1
1
1
0.999998
0.999931
0.889184
0.193419
3.99155e-07
4.03991e-07
1
1
1
1
1
1
1
1
1
1
1
1
1
1
1
1
1
1
1
1
1
1
1
1
1
1
1
1
1
1
1
1
1
1
1
1
1
1
1
1
1
1
1
1
1
1
1
1
1
1
1
1
1
1
1
1
1
1
1
1
1
1
1
1
1
1
1
1
1
1
1
1
1
1
1
1
1
1
1
1
1
1
1
1
1
1
1
1
1
1
1
1
1
1
0.999995
0.999858
0.748134
0.0455503
4.82764e-07
4.03999e-07
1
1
1
1
1
1
1
1
1
1
1
1
1
1
1
1
1
1
1
1
1
1
1
1
1
1
1
1
1
1
1
1
1
1
1
1
1
1
1
1
1
1
1
1
1
1
1
1
1
1
1
1
1
1
1
1
1
1
1
1
1
1
1
1
1
1
1
1
1
1
1
1
1
1
1
1
1
1
1
1
1
1
1
1
1
1
1
1
1
1
1
1
1
1
0.999991
0.996664
0.552324
1.28808e-06
1.00593e-06
4.82826e-07
1
1
1
1
1
1
1
1
1
1
1
1
1
1
1
1
1
1
1
1
1
1
1
1
1
1
1
1
1
1
1
1
1
1
1
1
1
1
1
1
1
1
1
1
1
1
1
1
1
1
1
1
1
1
1
1
1
1
1
1
1
1
1
1
1
1
1
1
1
1
1
1
1
1
1
1
1
1
1
1
1
1
1
1
1
1
1
1
1
1
1
1
1
0.999999
0.999976
0.966084
0.363167
1.67779e-06
1.40328e-06
3.32133e-06
1
1
1
1
1
1
1
1
1
1
1
1
1
1
1
1
1
1
1
1
1
1
1
1
1
1
1
1
1
1
1
1
1
1
1
1
1
1
1
1
1
1
1
1
1
1
1
1
1
1
1
1
1
1
1
1
1
1
1
1
1
1
1
1
1
1
1
1
1
1
1
1
1
1
1
1
1
1
1
1
1
1
1
1
1
1
1
1
1
1
1
1
1
0.999998
0.999938
0.885618
0.184985
2.49015e-06
1.7207e-06
8.61878e-06
1
1
1
1
1
1
1
1
1
1
1
1
1
1
1
1
1
1
1
1
1
1
1
1
1
1
1
1
1
1
1
1
1
1
1
1
1
1
1
1
1
1
1
1
1
1
1
1
1
1
1
1
1
1
1
1
1
1
1
1
1
1
1
1
1
1
1
1
1
1
1
1
1
1
1
1
1
1
1
1
1
1
1
1
1
1
1
1
1
1
1
1
1
0.999996
0.999873
0.741778
0.0242905
3.59633e-06
2.51282e-06
2.42832e-05
1
1
1
1
1
1
1
1
1
1
1
1
1
1
1
1
1
1
1
1
1
1
1
1
1
1
1
1
1
1
1
1
1
1
1
1
1
1
1
1
1
1
1
1
1
1
1
1
1
1
1
1
1
1
1
1
1
1
1
1
1
1
1
1
1
1
1
1
1
1
1
1
1
1
1
1
1
1
1
1
1
1
1
1
1
1
1
1
1
1
1
1
1
0.999993
0.996996
0.556809
8.87185e-06
6.41619e-06
6.18648e-06
3.4157e-05
0.251711
0.253084
0.255266
0.258598
0.262737
0.267935
0.273975
0.281043
0.289007
0.298014
0.30799
0.31906
0.331188
0.344483
0.358942
0.374661
0.391662
0.410011
0.429604
0.450466
0.472579
0.495948
0.520536
0.546312
0.573203
0.601136
0.629999
0.65967
0.689985
0.720774
0.751826
0.78291
0.813758
0.844082
0.873567
0.901881
0.928652
0.953472
0.975962
0.995773
1
1
1
1
1
1
1
1
1
1
1
1
1
1
1
1
1
1
1
1
1
1
1
1
1
1
1
1
1
1
1
1
1
1
1
1
1
1
1
1
1
1
1
1
1
1
1
1
1
1
1
1
1
0.999981
0.968417
0.371442
9.97171e-06
9.33645e-06
1.08947e-05
3.18401e-05
1.87132e-07
1.42788e-07
1.65162e-07
1.73517e-07
1.82807e-07
1.93912e-07
2.07386e-07
2.23582e-07
2.42928e-07
2.6584e-07
2.92844e-07
3.24542e-07
3.61673e-07
4.05163e-07
4.55991e-07
5.15171e-07
5.84517e-07
2.91474e-05
0.000243997
0.000726571
0.00155752
0.00283582
0.00467923
0.00722984
0.0106533
0.0151449
0.0209277
0.0282623
0.0374442
0.0488077
0.0627245
0.0796106
0.0999237
0.124168
0.152889
0.186682
0.226162
0.271866
0.324171
0.384262
0.465259
0.550971
0.63362
0.711811
0.78442
0.850085
0.907504
0.955702
0.993756
1
1
1
1
1
1
1
1
1
1
1
1
1
1
1
1
1
1
1
1
1
1
1
1
1
1
1
1
1
1
1
1
1
1
1
1
1
1
1
1
1
1
1
0.999999
0.999951
0.890992
0.192349
9.53246e-06
1.00131e-05
1.53178e-05
3.12943e-05
4.54623e-10
5.05015e-10
5.58468e-10
5.90646e-10
6.09341e-10
6.37543e-10
6.67306e-10
7.00525e-10
7.48569e-10
8.14843e-10
8.97938e-10
9.82761e-10
1.08521e-09
1.21889e-09
1.38616e-09
1.59521e-09
1.85552e-09
2.18491e-09
2.97555e-09
4.50019e-09
7.05861e-09
1.05699e-08
1.55009e-08
2.3988e-08
3.70217e-08
5.60723e-08
8.35147e-08
1.22728e-07
1.78386e-07
2.56933e-07
3.6712e-07
5.20514e-07
7.32319e-07
1.02211e-06
1.41524e-06
1.94497e-06
2.64353e-06
3.50373e-06
4.5942e-06
6.46349e-06
0.00133337
0.00801987
0.0221405
0.0457949
0.0812554
0.130659
0.195858
0.278227
0.380315
0.520855
0.657461
0.775399
0.873205
0.949877
1
1
1
1
1
1
1
1
1
1
1
1
1
1
1
1
1
1
1
1
1
1
1
1
1
1
1
1
1
1
1
1
1
1
1
1
1
1
0.999997
0.999898
0.748652
0.0180831
9.5374e-06
1.01339e-05
2.49539e-05
2.47476e-05
1.81358e-10
2.34314e-10
2.87726e-10
2.93116e-10
2.9534e-10
3.04874e-10
3.11443e-10
3.16204e-10
3.29513e-10
3.53767e-10
3.86176e-10
4.10208e-10
4.39857e-10
4.86135e-10
5.47514e-10
6.28768e-10
7.3623e-10
8.77874e-10
1.06868e-09
1.32435e-09
1.67998e-09
1.5175e-09
6.92603e-10
4.489e-10
4.7691e-10
5.44341e-10
6.47079e-10
8.09301e-10
1.05268e-09
1.41533e-09
1.95922e-09
2.76819e-09
3.93626e-09
5.32497e-09
6.54971e-09
8.57111e-09
1.22568e-08
1.71371e-08
2.38177e-08
3.65319e-08
8.16151e-08
2.45858e-07
5.95414e-07
1.26902e-06
2.45726e-06
4.37894e-06
7.1873e-06
1.12665e-05
1.85675e-05
0.00513317
0.0287838
0.077018
0.155194
0.268035
0.423289
0.623261
0.787658
0.911034
0.992769
1
1
1
1
1
1
1
1
1
1
1
1
1
1
1
1
1
1
1
1
1
1
1
1
1
1
1
1
1
1
1
1
1
0.999995
0.998045
0.573519
1.69665e-05
1.20738e-05
1.16199e-05
2.4206e-05
1.71454e-05
1.37307e-10
1.90288e-10
2.43709e-10
2.50158e-10
2.52421e-10
2.62005e-10
2.68629e-10
2.73455e-10
2.86847e-10
3.1121e-10
3.43748e-10
3.67916e-10
3.97721e-10
4.44348e-10
5.07442e-10
5.91735e-10
7.01101e-10
8.41635e-10
1.03193e-09
1.3115e-09
1.68729e-09
1.42964e-09
5.76144e-10
3.39668e-10
3.35226e-10
3.53183e-10
3.84847e-10
4.36338e-10
5.13187e-10
6.27345e-10
7.97336e-10
1.04761e-09
1.38323e-09
1.51585e-09
1.00907e-09
3.81928e-10
3.96383e-10
4.31367e-10
5.04286e-10
6.4546e-10
1.04488e-09
2.34976e-09
4.97053e-09
9.28007e-09
1.87907e-08
3.54522e-08
6.16172e-08
1.02558e-07
1.85165e-07
5.97977e-07
2.08178e-06
5.29167e-06
1.12297e-05
2.19451e-05
0.000339425
0.0210228
0.0856675
0.203955
0.385764
0.637384
0.836392
0.965942
1
1
1
1
1
1
1
1
1
1
1
1
1
1
1
1
1
1
1
1
1
1
1
1
1
1
1
1
1
1
0.999986
0.972671
0.389823
1.47264e-05
1.32978e-05
1.29743e-05
2.41696e-05
4.28888e-06
1.64809e-11
3.52549e-11
5.14623e-11
5.373e-11
5.37303e-11
5.51041e-11
5.54003e-11
5.48366e-11
5.63183e-11
6.04364e-11
6.59606e-11
6.79453e-11
7.01178e-11
7.56175e-11
8.41787e-11
9.67981e-11
1.13969e-10
1.36449e-10
1.66092e-10
2.06493e-10
2.60838e-10
3.09464e-10
3.12109e-10
2.96317e-10
2.91769e-10
3.09697e-10
3.41382e-10
3.93307e-10
4.72655e-10
5.89804e-10
7.63741e-10
1.02103e-09
1.3688e-09
1.56938e-09
8.35589e-10
3.11052e-10
3.01108e-10
3.12866e-10
3.44185e-10
4.08655e-10
5.3191e-10
7.8668e-10
1.03604e-09
4.53173e-10
5.60003e-10
7.65399e-10
1.16341e-09
1.87099e-09
3.2432e-09
6.9112e-09
2.37793e-08
6.26724e-08
1.39779e-07
2.89653e-07
6.46568e-07
3.18771e-06
1.01812e-05
2.60373e-05
6.15317e-05
0.0250066
0.122426
0.310505
0.603246
0.849689
0.989642
1
1
1
1
1
1
1
1
1
1
1
1
1
1
1
1
1
1
1
1
1
1
1
1
1
1
0.999999
0.999963
0.903333
0.211994
1.53679e-05
1.5997e-05
2.13263e-05
2.29712e-05
1.33632e-09
1.43349e-12
4.94072e-12
8.57808e-12
9.32884e-12
9.38873e-12
9.58009e-12
9.56084e-12
9.36447e-12
9.56135e-12
1.02547e-11
1.11386e-11
1.12488e-11
1.12526e-11
1.17679e-11
1.27583e-11
1.43849e-11
1.66736e-11
1.96778e-11
2.36569e-11
2.91773e-11
3.69063e-11
4.6398e-11
5.54456e-11
6.31401e-11
7.06142e-11
8.00851e-11
9.12976e-11
1.05357e-10
1.23086e-10
1.45209e-10
1.73614e-10
2.12238e-10
2.66741e-10
3.21734e-10
3.19988e-10
2.67451e-10
2.58542e-10
2.70372e-10
3.01695e-10
3.67024e-10
4.92248e-10
7.81273e-10
9.15232e-10
3.51045e-10
3.81466e-10
4.50703e-10
6.15316e-10
9.30899e-10
1.43418e-09
6.22784e-10
7.84544e-10
1.39253e-09
2.84234e-09
4.22019e-09
9.69248e-09
4.94768e-08
1.61176e-07
4.35878e-07
1.14344e-06
6.00716e-06
2.20971e-05
6.70988e-05
0.0181441
0.135539
0.385624
0.733838
0.952261
1
1
1
1
1
1
1
1
1
1
1
1
1
1
1
1
1
1
1
1
1
1
1
1
0.999998
0.999924
0.783537
0.0443862
1.01153e-05
1.59113e-05
2.00001e-05
1.25364e-05
-4.36367e-09
1.02394e-13
5.90246e-13
1.24083e-12
1.42794e-12
1.45845e-12
1.48653e-12
1.48065e-12
1.44667e-12
1.4803e-12
1.59616e-12
1.73469e-12
1.74266e-12
1.7177e-12
1.7621e-12
1.8761e-12
2.08183e-12
2.37447e-12
2.75034e-12
3.2428e-12
3.94463e-12
4.97719e-12
6.3713e-12
8.0824e-12
1.0018e-11
1.21993e-11
1.47768e-11
1.77945e-11
2.13691e-11
2.55348e-11
3.02106e-11
3.54079e-11
4.1622e-11
5.04417e-11
6.26134e-11
7.43536e-11
8.13182e-11
8.74753e-11
9.535e-11
1.06918e-10
1.26745e-10
1.58498e-10
2.13172e-10
2.95432e-10
3.07353e-10
3.40185e-10
4.15208e-10
5.93303e-10
9.26812e-10
1.47357e-09
5.03095e-10
4.9249e-10
6.32602e-10
1.13907e-09
4.58263e-10
5.64639e-10
1.32839e-09
2.96122e-09
7.69927e-09
2.14826e-08
1.19331e-07
4.46093e-07
1.48571e-06
7.50708e-06
3.50305e-05
0.000182585
0.0590875
0.285109
0.678564
0.949404
1
1
1
1
1
1
1
1
1
1
1
1
1
1
1
1
1
1
1
1
1
1
0.999997
0.99981
0.629821
1.50694e-05
1.05088e-05
1.59189e-05
1.1116e-05
1.36276e-08
-5.72961e-10
6.52261e-15
6.41968e-14
1.64813e-13
2.03121e-13
2.11657e-13
2.16061e-13
2.15226e-13
2.10362e-13
2.1644e-13
2.35205e-13
2.5636e-13
2.58032e-13
2.53045e-13
2.56919e-13
2.70936e-13
2.97747e-13
3.35408e-13
3.81682e-13
4.40424e-13
5.25988e-13
6.58006e-13
8.45482e-13
1.09697e-12
1.41389e-12
1.80447e-12
2.28754e-12
2.88098e-12
3.60055e-12
4.44494e-12
5.38597e-12
6.39812e-12
7.5439e-12
9.11337e-12
1.14562e-11
1.44672e-11
1.75776e-11
2.05813e-11
2.38055e-11
2.77761e-11
3.34556e-11
4.14723e-11
5.34502e-11
7.17531e-11
9.30362e-11
1.16826e-10
1.47482e-10
2.00689e-10
2.91493e-10
4.38646e-10
4.59953e-10
4.48423e-10
6.31869e-10
1.04473e-09
3.63701e-10
3.93305e-10
5.40439e-10
4.4657e-10
5.43673e-10
9.98769e-10
2.96476e-09
9.60807e-09
3.3821e-08
1.83933e-07
8.64059e-07
3.34393e-06
2.18838e-05
0.000107493
0.0380173
0.284506
0.734937
0.991171
1
1
1
1
1
1
1
1
1
1
1
1
1
1
1
1
1
1
1
1
0.999993
0.989515
0.470327
1.27274e-05
6.66223e-06
1.94051e-05
1.40324e-05
3.46745e-09
1.0072e-09
3.94174e-16
6.62997e-15
2.08665e-14
2.78157e-14
2.96928e-14
3.04283e-14
3.03401e-14
2.9687e-14
3.07552e-14
3.37092e-14
3.68644e-14
3.7259e-14
3.64966e-14
3.68525e-14
3.87098e-14
4.23371e-14
4.72876e-14
5.30142e-14
5.99191e-14
7.01303e-14
8.66225e-14
1.1089e-13
1.4476e-13
1.89522e-13
2.47435e-13
3.22289e-13
4.18528e-13
5.39399e-13
6.85398e-13
8.52914e-13
1.03821e-12
1.25096e-12
1.53494e-12
1.95165e-12
2.5176e-12
3.18358e-12
3.9083e-12
4.72604e-12
5.73301e-12
7.09213e-12
8.9144e-12
1.14737e-11
1.53062e-11
2.09965e-11
2.88966e-11
3.95527e-11
5.54205e-11
7.98341e-11
1.18275e-10
1.58647e-10
1.81285e-10
2.25092e-10
3.38839e-10
3.21481e-10
3.50395e-10
5.52069e-10
3.49431e-10
3.8072e-10
5.54886e-10
6.67415e-10
7.14942e-10
1.53499e-09
4.97909e-09
2.26944e-08
9.33033e-08
6.20174e-07
3.14382e-06
2.20565e-05
0.000135948
0.0630891
0.420849
0.888603
1
1
1
1
1
1
1
1
1
1
1
1
1
1
1
1
1
1
1
0.999982
0.955724
0.315456
6.46379e-06
3.31544e-06
1.91865e-05
1.54727e-05
1.43939e-09
1.04545e-09
2.38576e-17
6.69742e-16
2.5849e-15
3.75827e-15
4.1252e-15
4.25493e-15
4.25003e-15
4.16427e-15
4.34723e-15
4.80641e-15
5.27111e-15
5.34681e-15
5.2339e-15
5.26561e-15
5.52437e-15
6.02919e-15
6.69357e-15
7.41074e-15
8.21794e-15
9.4242e-15
1.14657e-14
1.45597e-14
1.89598e-14
2.48884e-14
3.2749e-14
4.32218e-14
5.71464e-14
7.51638e-14
9.75656e-14
1.24178e-13
1.54886e-13
1.91405e-13
2.39735e-13
3.08316e-13
4.00963e-13
5.14279e-13
6.45423e-13
8.00879e-13
9.97459e-13
1.26116e-12
1.61345e-12
2.10297e-12
2.83198e-12
3.97476e-12
5.74481e-12
8.37627e-12
1.23291e-11
1.833e-11
2.7656e-11
4.0603e-11
5.42038e-11
7.0735e-11
9.88687e-11
1.27321e-10
1.55193e-10
2.07342e-10
3.05407e-10
3.37889e-10
5.52094e-10
4.87202e-10
4.77413e-10
7.48371e-10
6.05991e-10
1.23598e-09
3.12636e-09
1.9017e-08
1.0037e-07
7.02732e-07
4.70236e-06
5.19856e-05
0.001531
0.20008
0.745007
1
1
1
1
1
1
1
1
1
1
1
1
1
1
1
1
1
0.999999
0.999965
0.897152
0.190515
3.08461e-06
1.19079e-06
1.0754e-05
7.73098e-06
1.06628e-09
1.05398e-09
1.52602e-18
6.76754e-17
3.19302e-16
5.09748e-16
5.77385e-16
6.01266e-16
6.02347e-16
5.91371e-16
6.2261e-16
6.94333e-16
7.62873e-16
7.75175e-16
7.57401e-16
7.59314e-16
7.96282e-16
8.67836e-16
9.58452e-16
1.04925e-15
1.14315e-15
1.28487e-15
1.53758e-15
1.93127e-15
2.49563e-15
3.25927e-15
4.28164e-15
5.66836e-15
7.55263e-15
1.00419e-14
1.32073e-14
1.7082e-14
2.17277e-14
2.74377e-14
3.49853e-14
4.53968e-14
5.92017e-14
7.62048e-14
9.63872e-14
1.20942e-13
1.52528e-13
1.95058e-13
2.5258e-13
3.33553e-13
4.55225e-13
6.49032e-13
9.62827e-13
1.46146e-12
2.24825e-12
3.48795e-12
5.46112e-12
8.49545e-12
1.26334e-11
1.80564e-11
2.59272e-11
3.72958e-11
5.21026e-11
7.26424e-11
1.13995e-10
1.5418e-10
2.39455e-10
3.88261e-10
4.41872e-10
7.97497e-10
4.47161e-10
6.06858e-10
5.45496e-10
1.18759e-09
3.71199e-09
2.44977e-08
1.68999e-07
1.9453e-06
1.24221e-05
0.000179703
0.0786243
0.593038
0.991601
1
1
1
1
1
1
1
1
1
1
1
1
1
1
1
0.999999
0.999941
0.818792
0.100258
1.25444e-06
6.27007e-07
3.70162e-07
-1.52523e-08
1.33165e-09
1.15467e-09
1.08404e-19
6.96165e-18
3.98773e-17
7.0229e-17
8.23713e-17
8.68997e-17
8.74673e-17
8.61544e-17
9.15728e-17
1.0299e-16
1.13251e-16
1.15023e-16
1.11997e-16
1.11832e-16
1.17183e-16
1.27465e-16
1.3998e-16
1.51555e-16
1.62353e-16
1.78917e-16
2.10382e-16
2.60797e-16
3.33188e-16
4.30702e-16
5.61302e-16
7.39931e-16
9.85516e-16
1.31376e-15
1.7372e-15
2.26692e-15
2.92063e-15
3.74339e-15
4.82953e-15
6.29432e-15
8.19804e-15
1.053e-14
1.33117e-14
1.67144e-14
2.10954e-14
2.69813e-14
3.50269e-14
4.65446e-14
6.40807e-14
9.22326e-14
1.38635e-13
2.15343e-13
3.42314e-13
5.52714e-13
9.03345e-13
1.48172e-12
2.38937e-12
3.73839e-12
5.75374e-12
8.93599e-12
1.39258e-11
2.13003e-11
3.45684e-11
5.40935e-11
8.84515e-11
1.488e-10
2.13993e-10
3.32834e-10
4.11065e-10
6.70246e-10
4.28598e-10
5.46726e-10
6.27196e-10
1.5369e-09
6.80729e-09
7.67615e-08
5.48158e-07
8.63078e-06
9.98494e-05
0.0249789
0.458919
0.963302
1
1
1
1
1
1
1
1
1
1
1
1
1
1
0.999998
0.999911
0.724811
0.0185118
-1.94463e-06
3.44892e-07
1.60601e-07
7.62249e-10
4.13894e-09
1.12148e-09
8.81897e-21
7.39059e-19
5.08446e-18
9.90103e-18
1.20627e-17
1.29374e-17
1.31122e-17
1.29814e-17
1.39454e-17
1.58139e-17
1.73903e-17
1.76217e-17
1.7078e-17
1.69785e-17
1.77634e-17
1.92619e-17
2.10109e-17
2.24896e-17
2.36997e-17
2.56176e-17
2.95747e-17
3.61088e-17
4.54709e-17
5.79598e-17
7.45921e-17
9.73723e-17
1.28805e-16
1.70958e-16
2.2567e-16
2.94993e-16
3.82099e-16
4.9319e-16
6.3911e-16
8.31905e-16
1.07741e-15
1.37445e-15
1.72596e-15
2.15151e-15
2.69157e-15
3.40756e-15
4.38707e-15
5.80281e-15
7.97648e-15
1.14766e-14
1.72868e-14
2.71177e-14
4.40221e-14
7.34349e-14
1.25149e-13
2.16241e-13
3.73804e-13
6.3593e-13
1.06323e-12
1.78792e-12
3.05371e-12
5.14665e-12
8.87742e-12
1.52992e-11
2.70685e-11
4.77533e-11
8.21003e-11
1.32811e-10
2.10962e-10
3.15071e-10
3.87116e-10
6.73636e-10
4.67989e-10
6.72561e-10
9.44993e-10
3.74961e-09
2.42967e-08
4.10329e-07
4.63804e-06
4.49628e-05
0.00485844
0.348898
0.92865
1
1
1
1
1
1
1
1
1
1
1
1
1
0.999997
0.999785
0.613441
-1.61502e-05
-2.24781e-08
2.19067e-07
8.33572e-08
2.09635e-08
7.19519e-09
1.23235e-08
8.21946e-22
8.1768e-20
6.66003e-19
1.43388e-18
1.81929e-18
1.99001e-18
2.03555e-18
2.02976e-18
2.20584e-18
2.52128e-18
2.77155e-18
2.79895e-18
2.69886e-18
2.67186e-18
2.78929e-18
3.01168e-18
3.25944e-18
3.44786e-18
3.57641e-18
3.79455e-18
4.29876e-18
5.15947e-18
6.38708e-18
8.00372e-18
1.01367e-17
1.30476e-17
1.70525e-17
2.24025e-17
2.93349e-17
3.81523e-17
4.93149e-17
6.35947e-17
8.21577e-17
1.06159e-16
1.36035e-16
1.71507e-16
2.12708e-16
2.61417e-16
3.21498e-16
3.99105e-16
5.03968e-16
6.55088e-16
8.86692e-16
1.25814e-15
1.87479e-15
2.93224e-15
4.80414e-15
8.2062e-15
1.45212e-14
2.63946e-14
4.86943e-14
8.96483e-14
1.633e-13
2.98788e-13
5.55769e-13
1.0274e-12
1.91384e-12
3.58059e-12
6.87873e-12
1.31178e-11
2.5633e-11
4.66344e-11
8.51321e-11
1.38888e-10
2.12559e-10
3.3555e-10
4.3298e-10
6.27939e-10
6.70599e-10
7.21967e-10
1.62879e-09
1.83607e-08
2.20716e-07
2.03838e-06
2.07569e-05
0.000510369
0.259981
0.946227
1
1
1
1
1
1
1
1
1
1
1
1
0.999994
0.994061
0.495229
5.58549e-07
4.40539e-07
3.49059e-07
5.66385e-07
7.47988e-08
2.10867e-08
8.99175e-07
8.5853e-23
9.48239e-21
8.99174e-20
2.13545e-19
2.82704e-19
3.16204e-19
3.27104e-19
3.2914e-19
3.62053e-19
4.16932e-19
4.58096e-19
4.60942e-19
4.42406e-19
4.36449e-19
4.54532e-19
4.88324e-19
5.2403e-19
5.47872e-19
5.60022e-19
5.84007e-19
6.49288e-19
7.64911e-19
9.28806e-19
1.1415e-18
1.41897e-18
1.79498e-18
2.30819e-18
2.98696e-18
3.85889e-18
4.96284e-18
6.3572e-18
8.12954e-18
1.03956e-17
1.32524e-17
1.67128e-17
2.07118e-17
2.52185e-17
3.03496e-17
3.64099e-17
4.39271e-17
5.38082e-17
6.77997e-17
8.89356e-17
1.22385e-16
1.77523e-16
2.7264e-16
4.44783e-16
7.69987e-16
1.40648e-15
2.68391e-15
5.27692e-15
1.04933e-14
2.08309e-14
4.1571e-14
8.41149e-14
1.69873e-13
3.43791e-13
6.97925e-13
1.45761e-12
3.05395e-12
6.67526e-12
1.39437e-11
2.86765e-11
5.36397e-11
9.4839e-11
1.63748e-10
2.58798e-10
4.38703e-10
6.45401e-10
5.52543e-10
5.74324e-10
1.45825e-09
1.13791e-08
9.59171e-08
9.90056e-07
1.6362e-05
0.000298888
0.328189
1
1
1
1
1
1
1
1
1
1
1
1
0.999988
0.976
0.379592
2.36525e-06
1.49456e-06
1.53425e-06
4.91482e-06
1.10595e-06
1.05011e-07
1.97701e-06
9.78388e-24
1.15467e-21
1.25232e-20
3.26792e-20
4.51941e-20
5.17854e-20
5.42634e-20
5.51763e-20
6.14385e-20
7.12439e-20
7.82507e-20
7.84779e-20
7.5048e-20
7.38579e-20
7.6748e-20
8.20319e-20
8.72916e-20
9.02727e-20
9.10933e-20
9.3562e-20
1.02177e-19
1.18063e-19
1.40417e-19
1.68979e-19
2.0579e-19
2.55226e-19
3.21914e-19
4.08816e-19
5.18823e-19
6.56429e-19
8.28297e-19
1.04346e-18
1.31218e-18
1.64072e-18
2.02523e-18
2.45321e-18
2.91439e-18
3.41112e-18
3.96193e-18
4.60539e-18
5.4135e-18
6.52095e-18
8.14982e-18
1.06698e-17
1.47652e-17
2.18307e-17
3.48422e-17
6.03148e-17
1.12853e-16
2.25532e-16
4.72758e-16
1.01615e-15
2.20015e-15
4.79573e-15
1.05614e-14
2.32445e-14
5.11723e-14
1.12909e-13
2.57002e-13
5.9636e-13
1.46047e-12
3.51914e-12
8.26171e-12
1.79399e-11
3.64488e-11
7.20972e-11
1.32736e-10
2.40304e-10
3.93872e-10
5.1263e-10
4.77751e-10
5.86276e-10
1.16829e-09
5.50382e-09
6.06481e-08
1.18905e-06
1.95175e-05
0.000298171
0.591902
1
1
1
1
1
1
1
1
1
1
0.999999
0.999978
0.94266
0.27537
2.26831e-06
2.34203e-06
5.78651e-06
5.61264e-06
1.66617e-06
2.88873e-07
6.00654e-06
1.19087e-24
1.47411e-22
1.79752e-21
5.12887e-21
7.41382e-21
8.71271e-21
9.25721e-21
9.52029e-21
1.07274e-20
1.25188e-20
1.37488e-20
1.37526e-20
1.31192e-20
1.28949e-20
1.33765e-20
1.42298e-20
1.50255e-20
1.53914e-20
1.53676e-20
1.55873e-20
1.67499e-20
1.89883e-20
2.21111e-20
2.60384e-20
3.10396e-20
3.76897e-20
4.65349e-20
5.78526e-20
7.19061e-20
8.91652e-20
1.10314e-19
1.36177e-19
1.67498e-19
2.04362e-19
2.45649e-19
2.89277e-19
3.33313e-19
3.76956e-19
4.20886e-19
4.67587e-19
5.22143e-19
5.93455e-19
6.94936e-19
8.48023e-19
1.09322e-18
1.51624e-18
2.30899e-18
3.91817e-18
7.4228e-18
1.54838e-17
3.46718e-17
8.08305e-17
1.91398e-16
4.56512e-16
1.09519e-15
2.62177e-15
6.26855e-15
1.50244e-14
3.73493e-14
9.64744e-14
2.66798e-13
7.45946e-13
2.04108e-12
5.20785e-12
1.23707e-11
2.84121e-11
6.01517e-11
1.21514e-10
2.25177e-10
3.50587e-10
4.39588e-10
4.79741e-10
6.05314e-10
9.89032e-10
5.87802e-09
5.37533e-08
1.20745e-06
4.32289e-05
0.0500413
0.901321
1
1
1
1
1
1
1
1
1
0.999999
0.999962
0.893661
0.185941
1.87636e-06
1.64087e-06
6.003e-06
5.83453e-06
1.35631e-06
1.26485e-06
7.56218e-06
1.52585e-25
1.96554e-23
2.65349e-22
8.23519e-22
1.24431e-21
1.50058e-21
1.61749e-21
1.683e-21
1.91791e-21
2.25118e-21
2.47282e-21
2.46887e-21
2.35203e-21
2.31127e-21
2.39498e-21
2.53749e-21
2.66166e-21
2.70527e-21
2.6793e-21
2.69139e-21
2.85249e-21
3.1766e-21
3.62431e-21
4.17842e-21
4.87621e-21
5.795e-21
6.9986e-21
8.50798e-21
1.03411e-20
1.25409e-20
1.51681e-20
1.82823e-20
2.191e-20
2.59822e-20
3.0289e-20
3.45197e-20
3.83854e-20
4.17194e-20
4.44928e-20
4.6845e-20
4.91552e-20
5.20215e-20
5.62166e-20
6.28236e-20
7.36992e-20
9.31737e-20
1.3102e-19
2.11465e-19
3.97581e-19
8.5953e-19
2.06102e-18
5.24183e-18
1.36393e-17
3.56886e-17
9.33011e-17
2.42197e-16
6.25903e-16
1.62162e-15
4.3968e-15
1.26821e-14
3.99982e-14
1.31373e-13
4.29292e-13
1.31417e-12
3.73517e-12
1.00775e-11
2.4691e-11
5.6729e-11
1.18775e-10
2.16536e-10
3.13069e-10
5.00059e-10
6.60723e-10
7.59094e-10
1.07251e-09
4.87827e-09
1.55353e-07
8.18658e-06
0.000264802
0.312996
1
1
1
1
1
1
1
1
1
0.999999
0.99994
0.830504
0.114606
1.3973e-06
1.12705e-06
5.87074e-06
5.81767e-06
1.38165e-06
2.06891e-06
7.0767e-06
2.03806e-26
2.72385e-24
4.01787e-23
1.3493e-22
2.13043e-22
2.63668e-22
2.88374e-22
3.03564e-22
3.49599e-22
4.12511e-22
4.53325e-22
4.52066e-22
4.30493e-22
4.23285e-22
4.38401e-22
4.62998e-22
4.83039e-22
4.88002e-22
4.80552e-22
4.79371e-22
5.02382e-22
5.50679e-22
6.1662e-22
6.96935e-22
7.9707e-22
9.27738e-22
1.09634e-21
1.3035e-21
1.54928e-21
1.83667e-21
2.16946e-21
2.54914e-21
2.97077e-21
3.41672e-21
3.85347e-21
4.23832e-21
4.53404e-21
4.71788e-21
4.81114e-21