/*--------------------------------*- C++ -*----------------------------------*\
| =========                 |                                                 |
| \\      /  F ield         | OpenFOAM: The Open Source CFD Toolbox           |
|  \\    /   O peration     | Version:  2.4.0                                 |
|   \\  /    A nd           | Web:      www.OpenFOAM.org                      |
|    \\/     M anipulation  |                                                 |
\*---------------------------------------------------------------------------*/
FoamFile
{
    version     2.0;
    format      ascii;
    class       volScalarField;
    location    "0.194";
    object      p_rgh;
}
// * * * * * * * * * * * * * * * * * * * * * * * * * * * * * * * * * * * * * //

dimensions      [1 -1 -2 0 0 0 0];

internalField   nonuniform List<scalar> 
60000
(
100.04
100.044
100.051
100.063
100.08
100.1
100.126
100.155
100.189
100.228
100.272
100.32
100.373
100.431
100.495
100.563
100.636
100.715
100.8
100.89
100.986
101.088
101.196
101.31
101.431
101.558
101.691
101.832
101.98
102.134
102.296
102.465
102.642
102.826
103.018
103.217
103.424
103.639
103.861
104.09
104.327
104.571
104.821
105.078
105.341
105.61
105.884
106.162
106.443
106.727
107.013
107.299
107.584
107.867
108.146
108.42
108.685
108.941
109.185
109.414
109.626
109.818
109.986
110.128
110.24
110.317
110.358
110.356
110.31
110.213
110.063
109.854
109.583
109.245
108.836
108.353
107.791
107.148
106.42
105.606
104.702
103.708
102.623
101.448
100.183
98.8327
97.3994
95.8885
94.3064
92.661
90.9616
89.2187
87.444
85.6503
83.8502
82.0562
80.2801
78.5338
76.8275
75.1649
100.04
100.043
100.051
100.063
100.079
100.1
100.125
100.155
100.189
100.228
100.272
100.32
100.373
100.431
100.494
100.563
100.636
100.715
100.8
100.89
100.986
101.088
101.196
101.31
101.431
101.558
101.692
101.832
101.98
102.135
102.297
102.466
102.643
102.827
103.019
103.218
103.425
103.64
103.862
104.092
104.329
104.573
104.824
105.081
105.345
105.614
105.888
106.166
106.448
106.732
107.019
107.305
107.591
107.875
108.154
108.428
108.695
108.952
109.196
109.426
109.639
109.832
110.001
110.144
110.256
110.335
110.377
110.377
110.331
110.235
110.086
109.878
109.608
109.271
108.863
108.381
107.82
107.177
106.45
105.636
104.732
103.738
102.653
101.478
100.213
98.8617
97.4275
95.9154
94.3319
92.6848
90.9833
89.2381
87.4608
85.6642
83.8611
82.064
80.2842
78.5335
76.8236
75.1603
100.039
100.042
100.05
100.062
100.078
100.099
100.124
100.154
100.188
100.227
100.27
100.318
100.372
100.43
100.493
100.561
100.635
100.714
100.798
100.888
100.984
101.086
101.194
101.308
101.429
101.556
101.69
101.831
101.978
102.133
102.295
102.464
102.641
102.825
103.017
103.217
103.424
103.639
103.861
104.091
104.328
104.572
104.824
105.081
105.345
105.614
105.889
106.167
106.45
106.735
107.022
107.309
107.596
107.88
108.16
108.435
108.703
108.961
109.207
109.438
109.652
109.846
110.017
110.161
110.275
110.355
110.398
110.4
110.356
110.262
110.114
109.908
109.639
109.304
108.898
108.416
107.857
107.215
106.489
105.675
104.772
103.778
102.693
101.517
100.252
98.8991
97.4632
95.949
94.3629
92.7127
91.0077
89.2584
87.4765
85.675
83.8669
82.0646
80.2793
78.5224
76.8072
75.1409
100.036
100.04
100.047
100.059
100.075
100.096
100.121
100.151
100.185
100.224
100.267
100.316
100.369
100.427
100.49
100.558
100.632
100.711
100.795
100.885
100.981
101.083
101.191
101.305
101.425
101.552
101.686
101.827
101.974
102.129
102.291
102.46
102.637
102.821
103.013
103.213
103.42
103.635
103.858
104.088
104.325
104.569
104.821
105.079
105.343
105.612
105.887
106.167
106.449
106.735
107.023
107.311
107.598
107.884
108.165
108.442
108.71
108.97
109.217
109.45
109.666
109.862
110.034
110.18
110.297
110.379
110.425
110.429
110.387
110.296
110.15
109.946
109.68
109.347
108.943
108.464
107.906
107.267
106.542
105.729
104.827
103.833
102.748
101.572
100.305
98.9507
97.5124
95.995
94.4048
92.7497
91.0389
89.283
87.4939
85.6846
83.8685
82.0582
80.2648
78.5002
76.779
75.1089
100.033
100.036
100.043
100.055
100.072
100.092
100.118
100.147
100.181
100.22
100.263
100.312
100.365
100.423
100.486
100.554
100.627
100.706
100.79
100.88
100.976
101.078
101.186
101.3
101.42
101.547
101.681
101.821
101.969
102.123
102.285
102.454
102.631
102.815
103.007
103.207
103.414
103.629
103.852
104.082
104.319
104.564
104.815
105.073
105.338
105.608
105.883
106.163
106.447
106.733
107.022
107.311
107.599
107.886
108.169
108.447
108.717
108.978
109.227
109.462
109.68
109.878
110.053
110.202
110.321
110.407
110.455
110.462
110.423
110.335
110.193
109.992
109.729
109.399
108.997
108.521
107.966
107.329
106.606
105.795
104.893
103.901
102.816
101.639
100.371
99.0145
97.5732
96.0517
94.4565
92.7951
91.0769
89.3125
87.5139
85.6944
83.8679
82.0471
80.2435
78.4697
76.7413
75.0663
100.028
100.031
100.039
100.051
100.067
100.088
100.113
100.142
100.176
100.215
100.258
100.306
100.359
100.417
100.48
100.548
100.621
100.7
100.784
100.874
100.97
101.071
101.179
101.293
101.413
101.54
101.673
101.813
101.961
102.115
102.277
102.446
102.623
102.807
102.999
103.198
103.405
103.62
103.843
104.073
104.311
104.555
104.807
105.066
105.331
105.601
105.877
106.158
106.442
106.729
107.019
107.309
107.599
107.887
108.171
108.451
108.723
108.986
109.237
109.474
109.695
109.896
110.074
110.226
110.348
110.437
110.489
110.499
110.464
110.38
110.241
110.045
109.785
109.459
109.061
108.588
108.036
107.402
106.681
105.873
104.973
103.981
102.897
101.719
100.45
99.0911
97.6462
96.1199
94.5183
92.8492
91.1217
89.3466
87.5361
85.7038
83.864
82.03
80.214
78.4293
76.6927
75.0122
100.022
100.025
100.033
100.045
100.061
100.082
100.107
100.136
100.17
100.209
100.252
100.3
100.353
100.41
100.473
100.541
100.614
100.692
100.776
100.866
100.961
101.063
101.17
101.284
101.404
101.53
101.664
101.804
101.951
102.105
102.267
102.436
102.612
102.796
102.988
103.187
103.394
103.609
103.832
104.062
104.3
104.545
104.797
105.056
105.321
105.592
105.868
106.15
106.435
106.723
107.014
107.305
107.596
107.886
108.172
108.453
108.728
108.993
109.247
109.487
109.71
109.914
110.096
110.251
110.377
110.47
110.526
110.541
110.51
110.43
110.296
110.104
109.849
109.528
109.134
108.666
108.118
107.487
106.769
105.963
105.066
104.075
102.991
101.813
100.542
99.1808
97.7316
96.1994
94.5903
92.9119
91.1733
89.3853
87.5603
85.7125
83.8566
82.0068
80.176
78.3786
76.6325
74.9462
100.015
100.018
100.026
100.038
100.054
100.074
100.099
100.129
100.163
100.201
100.244
100.292
100.345
100.402
100.465
100.532
100.605
100.684
100.767
100.857
100.952
101.053
101.16
101.273
101.393
101.52
101.653
101.792
101.939
102.093
102.254
102.423
102.599
102.783
102.975
103.174
103.381
103.596
103.818
104.049
104.286
104.531
104.784
105.043
105.308
105.58
105.857
106.139
106.425
106.715
107.006
107.299
107.592
107.883
108.171
108.455
108.732
108.999
109.256
109.499
109.726
109.934
110.119
110.279
110.409
110.507
110.567
110.587
110.562
110.487
110.358
110.171
109.922
109.605
109.217
108.753
108.21
107.583
106.869
106.066
105.171
104.183
103.099
101.921
100.648
99.2835
97.8295
96.2906
94.6727
92.9834
91.2317
89.4286
87.5866
85.7203
83.8453
81.9767
80.1284
78.3163
76.5594
74.8667
100.007
100.01
100.018
100.029
100.046
100.066
100.091
100.12
100.154
100.192
100.235
100.283
100.335
100.393
100.455
100.522
100.595
100.673
100.757
100.846
100.941
101.041
101.148
101.261
101.381
101.507
101.639
101.779
101.925
102.079
102.24
102.408
102.584
102.768
102.959
103.158
103.365
103.58
103.802
104.032
104.27
104.516
104.768
105.028
105.294
105.566
105.843
106.126
106.413
106.704
106.997
107.291
107.586
107.879
108.169
108.455
108.734
109.005
109.265
109.512
109.743
109.954
110.144
110.308
110.444
110.546
110.612
110.637
110.618
110.549
110.426
110.246
110.002
109.691
109.309
108.851
108.313
107.691
106.982
106.182
105.29
104.304
103.221
102.042
100.768
99.3996
97.9401
96.3936
94.7658
93.064
91.2973
89.4766
87.6149
85.7271
83.8298
81.9391
80.0703
78.2411
76.4721
74.7727
99.9977
100.001
100.008
100.02
100.036
100.057
100.081
100.111
100.144
100.182
100.225
100.273
100.325
100.382
100.444
100.511
100.584
100.661
100.745
100.833
100.928
101.028
101.135
101.247
101.367
101.492
101.624
101.763
101.91
102.063
102.223
102.391
102.567
102.75
102.941
103.14
103.347
103.561
103.784
104.014
104.252
104.497
104.75
105.01
105.276
105.549
105.827
106.111
106.399
106.691
106.985
107.281
107.577
107.873
108.165
108.454
108.736
109.01
109.274
109.525
109.759
109.976
110.17
110.339
110.48
110.588
110.66
110.692
110.679
110.617
110.501
110.327
110.09
109.786
109.411
108.959
108.427
107.81
107.106
106.311
105.423
104.438
103.357
102.178
100.902
99.5295
98.0639
96.5089
94.87
93.1542
91.3705
89.5298
87.6454
85.7329
83.8096
81.8931
80.0005
78.1515
76.3686
74.6625
99.9874
99.9907
99.9981
100.01
100.026
100.046
100.071
100.1
100.133
100.171
100.214
100.261
100.313
100.37
100.432
100.499
100.571
100.648
100.731
100.819
100.913
101.014
101.12
101.232
101.35
101.476
101.607
101.746
101.892
102.045
102.205
102.372
102.548
102.73
102.921
103.12
103.326
103.54
103.762
103.993
104.23
104.476
104.729
104.989
105.256
105.529
105.808
106.093
106.382
106.675
106.971
107.269
107.567
107.865
108.16
108.451
108.737
109.015
109.282
109.537
109.776
109.997
110.197
110.372
110.519
110.634
110.712
110.751
110.745
110.69
110.582
110.415
110.186
109.89
109.522
109.077
108.552
107.942
107.243
106.453
105.568
104.587
103.507
102.328
101.05
99.6733
98.2012
96.637
94.9857
93.2543
91.4516
89.5884
87.6783
85.7374
83.7843
81.8379
79.9175
78.0455
76.247
74.534
99.9761
99.9793
99.9867
99.9984
100.014
100.034
100.059
100.088
100.121
100.159
100.201
100.248
100.3
100.357
100.418
100.485
100.556
100.633
100.716
100.804
100.898
100.997
101.103
101.215
101.333
101.457
101.589
101.727
101.872
102.024
102.184
102.351
102.526
102.708
102.898
103.097
103.303
103.517
103.739
103.969
104.207
104.452
104.705
104.966
105.233
105.507
105.787
106.072
106.363
106.657
106.954
107.254
107.555
107.855
108.153
108.447
108.736
109.018
109.289
109.549
109.793
110.02
110.225
110.407
110.56
110.681
110.767
110.814
110.815
110.769
110.669
110.511
110.29
110.002
109.642
109.205
108.688
108.085
107.393
106.608
105.728
104.75
103.671
102.492
101.212
99.8316
98.3525
96.7783
95.1136
93.3651
91.5412
89.6529
87.7138
85.7407
83.7533
81.7723
79.8196
77.9208
76.1044
74.3846
99.9636
99.9669
99.9742
99.9858
100.002
100.022
100.046
100.075
100.108
100.145
100.188
100.234
100.286
100.342
100.403
100.469
100.541
100.617
100.699
100.787
100.88
100.979
101.084
101.196
101.313
101.437
101.568
101.706
101.85
102.002
102.161
102.328
102.502
102.684
102.873
103.071
103.277
103.491
103.712
103.942
104.18
104.426
104.679
104.94
105.207
105.482
105.763
106.049
106.34
106.636
106.936
107.237
107.54
107.843
108.144
108.441
108.734
109.02
109.296
109.56
109.81
110.043
110.254
110.442
110.603
110.732
110.826
110.88
110.891
110.853
110.762
110.613
110.402
110.123
109.772
109.344
108.834
108.239
107.554
106.776
105.901
104.926
103.85
102.672
101.39
100.005
98.5183
96.9333
95.2542
93.487
91.64
89.7238
87.7523
85.7428
83.7162
81.6952
79.7048
77.7745
75.9375
74.2111
99.9501
99.9533
99.9606
99.9721
99.9878
100.008
100.032
100.061
100.093
100.131
100.173
100.219
100.27
100.326
100.387
100.453
100.524
100.6
100.681
100.768
100.861
100.96
101.064
101.175
101.292
101.415
101.545
101.682
101.826
101.978
102.136
102.302
102.476
102.657
102.846
103.043
103.249
103.462
103.684
103.913
104.151
104.396
104.65
104.911
105.179
105.454
105.735
106.023
106.316
106.613
106.914
107.218
107.523
107.828
108.133
108.434
108.731
109.021
109.302
109.571
109.827
110.066
110.284
110.479
110.647
110.785
110.887
110.95
110.97
110.942
110.861
110.722
110.521
110.252
109.911
109.492
108.992
108.405
107.728
106.957
106.088
105.118
104.044
102.866
101.582
100.193
98.699
97.1027
95.4081
93.6208
91.7486
89.8018
87.7942
85.7438
83.6725
81.6053
79.5708
77.6035
75.7424
74.0095
99.9355
99.9387
99.946
99.9574
99.973
99.9928
100.017
100.045
100.078
100.115
100.157
100.203
100.253
100.309
100.369
100.435
100.505
100.581
100.662
100.748
100.84
100.938
101.042
101.152
101.269
101.392
101.521
101.657
101.801
101.951
102.109
102.274
102.447
102.628
102.816
103.013
103.218
103.431
103.652
103.881
104.119
104.364
104.618
104.879
105.148
105.423
105.706
105.994
106.288
106.587
106.89
107.196
107.504
107.812
108.119
108.425
108.725
109.02
109.306
109.582
109.843
110.089
110.314
110.517
110.694
110.84
110.951
111.024
111.054
111.036
110.966
110.838
110.647
110.389
110.059
109.651
109.161
108.584
107.915
107.151
106.288
105.323
104.253
103.076
101.791
100.397
98.8953
97.2872
95.5762
93.7673
91.8679
89.8877
87.8403
85.744
83.622
81.5015
79.4152
77.4037
75.514
73.7747
99.9199
99.923
99.9302
99.9416
99.9571
99.9767
100.001
100.029
100.061
100.098
100.139
100.185
100.235
100.291
100.35
100.415
100.485
100.56
100.641
100.727
100.818
100.916
101.019
101.128
101.244
101.366
101.495
101.63
101.773
101.922
102.08
102.244
102.416
102.596
102.784
102.98
103.185
103.397
103.618
103.847
104.084
104.33
104.583
104.845
105.114
105.39
105.673
105.963
106.258
106.558
106.863
107.171
107.482
107.793
108.104
108.413
108.718
109.018
109.31
109.591
109.859
110.112
110.345
110.556
110.741
110.897
111.018
111.102
111.142
111.135
111.076
110.96
110.781
110.535
110.216
109.819
109.34
108.773
108.114
107.359
106.503
105.544
104.477
103.302
102.016
100.617
99.1077
97.4874
95.7592
93.9276
91.9989
89.9825
87.8914
85.744
83.5645
81.3825
79.2352
77.1705
75.2459
73.5
99.9031
99.9063
99.9135
99.9247
99.9401
99.9596
99.9833
100.011
100.043
100.08
100.121
100.166
100.216
100.271
100.33
100.395
100.464
100.539
100.618
100.704
100.795
100.891
100.994
101.102
101.217
101.339
101.466
101.601
101.743
101.892
102.048
102.212
102.383
102.563
102.75
102.945
103.149
103.361
103.581
103.81
104.047
104.292
104.546
104.807
105.076
105.353
105.637
105.928
106.225
106.527
106.834
107.144
107.457
107.772
108.086
108.4
108.71
109.014
109.312
109.599
109.874
110.134
110.376
110.596
110.79
110.956
111.088
111.182
111.234
111.239
111.192
111.088
110.922
110.688
110.382
109.998
109.53
108.975
108.326
107.58
106.732
105.779
104.717
103.544
102.257
100.855
99.3368
97.7041
95.9582
94.1025
92.1429
90.0874
87.9486
85.7445
83.5001
81.2472
79.0279
76.8988
74.9307
73.1777
99.8854
99.8885
99.8956
99.9068
99.922
99.9414
99.9648
99.9925
100.024
100.061
100.101
100.146
100.196
100.25
100.309
100.373
100.442
100.515
100.595
100.679
100.769
100.865
100.967
101.075
101.189
101.309
101.436
101.57
101.711
101.859
102.014
102.177
102.348
102.526
102.713
102.907
103.11
103.322
103.542
103.77
104.006
104.252
104.505
104.767
105.036
105.314
105.599
105.89
106.188
106.492
106.801
107.114
107.43
107.748
108.066
108.384
108.699
109.009
109.312
109.606
109.889
110.157
110.407
110.636
110.84
111.016
111.159
111.265
111.33
111.347
111.313
111.223
111.07
110.85
110.557
110.186
109.731
109.188
108.551
107.815
106.976
106.03
104.973
103.802
102.515
101.109
99.5835
97.9381
96.174
94.2934
92.3011
90.204
88.0134
85.7469
83.4295
81.095
78.7903
76.5823
74.5592
72.7974
99.8666
99.8697
99.8768
99.8878
99.9029
99.9221
99.9453
99.9727
100.004
100.04
100.08
100.125
100.174
100.228
100.286
100.349
100.418
100.491
100.569
100.653
100.743
100.838
100.939
101.046
101.159
101.278
101.404
101.537
101.677
101.824
101.979
102.141
102.31
102.488
102.673
102.867
103.069
103.28
103.499
103.727
103.963
104.208
104.462
104.723
104.993
105.271
105.557
105.85
106.149
106.455
106.766
107.081
107.4
107.721
108.044
108.366
108.685
109.001
109.311
109.612
109.902
110.178
110.437
110.676
110.891
111.078
111.233
111.351
111.429
111.46
111.44
111.363
111.225
111.02
110.741
110.384
109.943
109.413
108.788
108.063
107.234
106.296
105.245
104.077
102.79
101.381
99.8483
98.1904
96.4077
94.5016
92.4751
90.334
88.0879
85.7529
83.3538
80.9254
78.5195
76.2142
74.1195
72.3439
99.8468
99.8499
99.8569
99.8678
99.8828
99.9017
99.9248
99.9519
99.9832
100.019
100.058
100.103
100.151
100.204
100.262
100.325
100.392
100.465
100.543
100.626
100.714
100.809
100.909
101.015
101.127
101.246
101.371
101.503
101.641
101.787
101.941
102.102
102.27
102.447
102.632
102.825
103.026
103.236
103.454
103.681
103.917
104.162
104.415
104.677
104.947
105.226
105.512
105.806
106.107
106.414
106.727
107.045
107.367
107.692
108.018
108.345
108.67
108.991
109.308
109.616
109.914
110.199
110.468
110.717
110.943
111.141
111.309
111.44
111.531
111.576
111.571
111.51
111.387
111.197
110.934
110.592
110.166
109.649
109.037
108.325
107.506
106.577
105.533
104.369
103.083
101.672
100.132
98.4619
96.6607
94.7284
92.6668
90.4795
88.1742
85.7649
83.2749
80.7391
78.2131
75.7867
73.5966
71.7983
99.826
99.8291
99.8359
99.8468
99.8616
99.8804
99.9031
99.93
99.9609
99.996
100.035
100.079
100.127
100.18
100.237
100.299
100.366
100.438
100.515
100.597
100.685
100.778
100.877
100.982
101.093
101.211
101.335
101.466
101.604
101.749
101.901
102.061
102.228
102.404
102.587
102.779
102.98
103.189
103.406
103.633
103.868
104.113
104.366
104.628
104.898
105.177
105.464
105.759
106.061
106.37
106.685
107.006
107.331
107.659
107.99
108.321
108.651
108.979
109.302
109.618
109.924
110.218
110.497
110.757
110.994
111.205
111.386
111.531
111.636
111.697
111.707
111.662
111.555
111.381
111.135
110.809
110.398
109.897
109.3
108.6
107.793
106.874
105.837
104.679
103.395
101.981
100.435
98.7534
96.9339
94.9755
92.878
90.643
88.2753
85.786
83.1957
80.5378
77.8696
75.2918
72.9723
71.1344
99.8042
99.8072
99.814
99.8248
99.8394
99.858
99.8805
99.907
99.9376
99.9723
100.011
100.054
100.102
100.154
100.211
100.272
100.338
100.409
100.485
100.567
100.653
100.746
100.844
100.948
101.058
101.175
101.298
101.427
101.564
101.708
101.859
102.017
102.184
102.358
102.54
102.731
102.931
103.139
103.356
103.582
103.816
104.06
104.313
104.575
104.845
105.125
105.412
105.708
106.012
106.322
106.64
106.963
107.291
107.623
107.958
108.294
108.63
108.964
109.294
109.618
109.933
110.237
110.526
110.796
111.046
111.27
111.464
111.624
111.744
111.821
111.847
111.819
111.73
111.573
111.344
111.035
110.642
110.157
109.574
108.889
108.095
107.186
106.158
105.006
103.725
102.311
100.759
99.066
97.2288
95.2444
93.1109
90.8271
88.3946
85.8204
83.1205
80.3246
77.4892
74.7219
72.2239
70.3168
99.7814
99.7844
99.7911
99.8017
99.8162
99.8345
99.8568
99.883
99.9132
99.9475
99.986
100.029
100.076
100.127
100.183
100.243
100.309
100.379
100.454
100.535
100.621
100.712
100.809
100.912
101.021
101.136
101.258
101.387
101.522
101.664
101.814
101.972
102.137
102.31
102.491
102.681
102.879
103.086
103.302
103.527
103.762
104.005
104.257
104.519
104.79
105.069
105.357
105.654
105.959
106.271
106.591
106.917
107.248
107.584
107.923
108.264
108.606
108.947
109.284
109.616
109.94
110.253
110.553
110.835
111.097
111.335
111.543
111.718
111.855
111.948
111.992
111.981
111.91
111.772
111.561
111.271
110.895
110.427
109.861
109.191
108.411
107.514
106.496
105.351
104.074
102.66
101.103
99.4005
97.5465
95.537
93.3677
91.035
88.5362
85.8732
83.0552
80.1052
77.0748
74.0707
71.3228
69.2906
99.7576
99.7606
99.7672
99.7777
99.792
99.8101
99.8321
99.858
99.8878
99.9217
99.9596
100.002
100.048
100.099
100.154
100.214
100.278
100.348
100.422
100.502
100.586
100.677
100.773
100.875
100.982
101.096
101.217
101.344
101.478
101.619
101.768
101.924
102.088
102.259
102.439
102.628
102.825
103.031
103.246
103.47
103.704
103.946
104.198
104.46
104.73
105.01
105.299
105.597
105.903
106.217
106.539
106.867
107.202
107.541
107.885
108.231
108.579
108.926
109.271
109.611
109.944
110.267
110.578
110.873
111.148
111.399
111.623
111.814
111.967
112.078
112.14
112.148
112.096
111.977
111.786
111.515
111.158
110.709
110.161
109.507
108.742
107.859
106.851
105.715
104.442
103.029
101.47
99.758
97.8884
95.8549
93.651
91.2699
88.7046
85.9505
83.0075
79.8876
76.633
73.3358
70.2358
67.9873
99.7329
99.7358
99.7424
99.7527
99.7668
99.7847
99.8064
99.8319
99.8613
99.8947
99.9322
99.9737
100.019
100.07
100.124
100.183
100.247
100.315
100.389
100.467
100.551
100.64
100.735
100.835
100.942
101.055
101.174
101.3
101.432
101.572
101.719
101.874
102.036
102.206
102.385
102.572
102.768
102.973
103.187
103.41
103.643
103.885
104.136
104.397
104.668
104.948
105.237
105.536
105.843
106.159
106.482
106.813
107.151
107.495
107.843
108.194
108.548
108.902
109.254
109.603
109.946
110.28
110.602
110.909
111.198
111.464
111.703
111.91
112.081
112.21
112.292
112.319
112.287
112.189
112.018
111.768
111.432
111.002
110.473
109.837
109.087
108.219
107.224
106.096
104.83
103.42
101.858
100.139
98.2556
96.1998
93.9632
91.5353
88.9046
86.0597
82.9877
79.6837
76.1764
72.5233
68.922
66.2967
99.7072
99.7101
99.7166
99.7268
99.7407
99.7583
99.7797
99.8049
99.8339
99.8668
99.9037
99.9446
99.9897
100.039
100.093
100.151
100.214
100.281
100.354
100.431
100.514
100.602
100.695
100.795
100.9
101.011
101.129
101.253
101.385
101.523
101.668
101.821
101.982
102.151
102.328
102.514
102.709
102.912
103.125
103.347
103.578
103.82
104.07
104.331
104.601
104.882
105.171
105.471
105.779
106.096
106.422
106.756
107.097
107.444
107.797
108.153
108.513
108.874
109.234
109.592
109.944
110.289
110.623
110.944
111.246
111.527
111.783
112.008
112.197
112.345
112.446
112.495
112.484
112.407
112.258
112.03
111.715
111.306
110.797
110.179
109.448
108.594
107.613
106.496
105.238
103.832
102.27
100.545
98.6493
96.5734
94.3065
91.8348
89.1417
86.2088
83.0085
79.5101
75.7246
71.6541
67.3436
64.0835
99.6805
99.6834
99.6898
99.6999
99.7136
99.731
99.752
99.7768
99.8054
99.8378
99.8741
99.9144
99.9588
100.007
100.06
100.118
100.179
100.246
100.317
100.394
100.475
100.562
100.654
100.752
100.856
100.966
101.082
101.205
101.335
101.471
101.615
101.767
101.926
102.093
102.269
102.453
102.646
102.848
103.06
103.281
103.511
103.751
104.001
104.262
104.532
104.812
105.102
105.402
105.711
106.03
106.358
106.694
107.038
107.389
107.747
108.109
108.474
108.842
109.211
109.577
109.94
110.296
110.642
110.976
111.293
111.59
111.862
112.105
112.313
112.481
112.604
112.674
112.685
112.631
112.505
112.299
112.007
111.62
111.132
110.535
109.822
108.986
108.02
106.915
105.666
104.265
102.705
100.976
99.0705
96.9771
94.6832
92.1718
89.4212
86.4068
83.0855
79.3891
75.3025
70.7642
65.4342
61.015
99.653
99.6558
99.6622
99.6721
99.6856
99.7027
99.7234
99.7478
99.7759
99.8078
99.8436
99.8832
99.9269
99.9747
100.027
100.083
100.144
100.209
100.28
100.355
100.435
100.521
100.612
100.708
100.811
100.919
101.034
101.155
101.283
101.418
101.56
101.71
101.868
102.033
102.207
102.39
102.581
102.782
102.992
103.211
103.441
103.68
103.929
104.189
104.458
104.738
105.029
105.329
105.639
105.96
106.29
106.628
106.976
107.33
107.692
108.06
108.432
108.807
109.183
109.559
109.931
110.299
110.658
111.005
111.338
111.651
111.94
112.202
112.43
112.619
112.763
112.856
112.891
112.861
112.758
112.577
112.308
111.945
111.48
110.904
110.212
109.394
108.443
107.353
106.115
104.721
103.163
101.433
99.5199
97.412
95.0952
92.5495
89.748
86.6615
83.2353
79.3535
74.9579
69.9601
63.2392
56.7098
99.6245
99.6273
99.6336
99.6433
99.6566
99.6735
99.6938
99.7178
99.7455
99.7768
99.812
99.851
99.8939
99.9409
99.9921
100.047
100.107
100.172
100.241
100.315
100.394
100.478
100.568
100.663
100.764
100.871
100.984
101.103
101.23
101.363
101.503
101.651
101.807
101.97
102.143
102.323
102.513
102.712
102.92
103.139
103.367
103.605
103.853
104.112
104.381
104.661
104.951
105.252
105.563
105.885
106.217
106.558
106.908
107.267
107.633
108.006
108.384
108.766
109.151
109.536
109.919
110.298
110.67
111.032
111.38
111.71
112.017
112.298
112.547
112.758
112.924
113.041
113.1
113.095
113.018
112.862
112.619
112.28
111.839
111.286
110.615
109.817
108.884
107.809
106.583
105.198
103.646
101.916
99.9981
97.8791
95.5437
92.9702
90.1269
86.9823
83.476
79.4312
74.6984
69.2534
61.0223
49.9511
99.5952
99.598
99.6041
99.6137
99.6268
99.6433
99.6634
99.6869
99.7141
99.7449
99.7794
99.8177
99.8599
99.906
99.9562
100.011
100.069
100.133
100.201
100.273
100.351
100.434
100.522
100.616
100.715
100.82
100.932
101.049
101.174
101.305
101.444
101.59
101.743
101.905
102.075
102.254
102.442
102.64
102.846
103.063
103.29
103.527
103.774
104.032
104.3
104.579
104.87
105.171
105.483
105.806
106.139
106.483
106.836
107.198
107.569
107.947
108.332
108.721
109.114
109.509
109.902
110.293
110.679
111.055
111.418
111.766
112.092
112.393
112.663
112.896
113.087
113.228
113.313
113.334
113.283
113.154
112.937
112.625
112.209
111.681
111.033
110.256
109.342
108.284
107.072
105.698
104.152
102.425
100.506
98.3789
96.0297
93.4354
90.561
87.3725
83.812
79.6992
74.8184
68.9768
59.5595
57.1154
99.565
99.5677
99.5738
99.5832
99.5961
99.6123
99.632
99.6551
99.6818
99.712
99.7459
99.7834
99.8248
99.87
99.9193
99.9728
100.03
100.093
100.159
100.231
100.307
100.388
100.475
100.567
100.665
100.768
100.878
100.994
101.116
101.246
101.382
101.526
101.678
101.838
102.006
102.183
102.369
102.564
102.769
102.984
103.209
103.445
103.691
103.948
104.215
104.494
104.784
105.085
105.398
105.722
106.057
106.403
106.759
107.125
107.5
107.884
108.274
108.671
109.072
109.476
109.881
110.284
110.683
111.074
111.454
111.819
112.165
112.486
112.778
113.035
113.25
113.417
113.528
113.577
113.554
113.453
113.264
112.979
112.59
112.088
111.464
110.71
109.817
108.777
107.581
106.219
104.683
102.961
101.042
98.9115
96.5531
93.9453
91.0519
87.8384
84.2595
80.1478
75.1909
68.5909
58.4437
69.1909
99.5339
99.5366
99.5425
99.5518
99.5645
99.5804
99.5997
99.6224
99.6486
99.6782
99.7113
99.7482
99.7887
99.833
99.8813
99.9337
99.9903
100.051
100.117
100.187
100.262
100.341
100.426
100.517
100.613
100.715
100.822
100.936
101.057
101.184
101.319
101.46
101.61
101.768
101.934
102.108
102.292
102.486
102.689
102.902
103.125
103.359
103.604
103.86
104.126
104.405
104.694
104.996
105.309
105.634
105.97
106.318
106.677
107.046
107.426
107.815
108.212
108.616
109.025
109.439
109.854
110.27
110.682
111.088
111.485
111.869
112.234
112.577
112.892
113.173
113.414
113.607
113.746
113.823
113.83
113.758
113.598
113.342
112.982
112.507
111.909
111.179
110.309
109.288
108.109
106.762
105.237
103.523
101.608
99.4767
97.1135
94.4987
91.5973
88.376
84.801
80.7547
76.3213
71.3503
64.2144
59.4077
99.502
99.5046
99.5105
99.5196
99.532
99.5477
99.5666
99.5888
99.6144
99.6434
99.6759
99.7119
99.7516
99.795
99.8423
99.8936
99.949
100.009
100.073
100.141
100.215
100.293
100.376
100.465
100.559
100.659
100.765
100.877
100.996
101.121
101.253
101.393
101.54
101.695
101.859
102.031
102.213
102.404
102.605
102.817
103.038
103.271
103.514
103.768
104.034
104.311
104.6
104.901
105.215
105.54
105.878
106.228
106.59
106.962
107.346
107.74
108.143
108.554
108.972
109.396
109.822
110.25
110.676
111.098
111.512
111.914
112.3
112.665
113.004
113.31
113.577
113.798
113.966
114.073
114.11
114.068
113.94
113.714
113.384
112.938
112.367
111.664
110.817
109.818
108.658
107.327
105.814
104.111
102.202
100.074
97.7099
95.0932
92.193
88.9799
85.4231
81.4324
77.541
74.237
66.9548
59.292
99.4692
99.4718
99.4776
99.4866
99.4987
99.5141
99.5326
99.5544
99.5794
99.6078
99.6395
99.6748
99.7135
99.756
99.8022
99.8524
99.9065
99.9649
100.028
100.095
100.167
100.243
100.325
100.412
100.504
100.602
100.706
100.816
100.932
101.055
101.185
101.322
101.467
101.62
101.781
101.951
102.131
102.32
102.519
102.728
102.948
103.178
103.42
103.672
103.937
104.213
104.501
104.802
105.115
105.442
105.781
106.132
106.496
106.873
107.26
107.659
108.068
108.487
108.913
109.346
109.784
110.224
110.665
111.102
111.534
111.955
112.362
112.749
113.112
113.444
113.739
113.989
114.187
114.325
114.394
114.384
114.288
114.095
113.795
113.38
112.839
112.162
111.341
110.365
109.225
107.912
106.415
104.723
102.824
100.702
98.3408
95.7259
92.8332
89.6337
86.0793
82.11
78.6624
76.7947
70.2298
67.7776
99.4357
99.4382
99.4439
99.4527
99.4647
99.4797
99.4978
99.5191
99.5436
99.5713
99.6023
99.6367
99.6745
99.716
99.7611
99.8101
99.863
99.92
99.9813
100.047
100.117
100.192
100.272
100.357
100.448
100.544
100.645
100.753
100.867
100.988
101.115
101.25
101.392
101.543
101.701
101.869
102.046
102.232
102.429
102.636
102.854
103.082
103.322
103.573
103.835
104.11
104.397
104.698
105.011
105.338
105.678
106.031
106.398
106.777
107.168
107.572
107.987
108.413
108.848
109.29
109.739
110.192
110.647
111.1
111.549
111.99
112.418
112.829
113.217
113.576
113.899
114.18
114.409
114.579
114.68
114.705
114.642
114.482
114.216
113.833
113.322
112.675
111.881
110.93
109.812
108.518
107.038
105.36
103.473
101.36
99.0046
96.394
93.5121
90.3206
86.7387
82.7915
79.4104
77.0916
72.0983
70.6902
99.4013
99.4038
99.4094
99.4181
99.4298
99.4445
99.4622
99.483
99.5069
99.5339
99.5642
99.5977
99.6346
99.675
99.719
99.7668
99.8184
99.874
99.9338
99.9979
100.067
100.14
100.218
100.301
100.39
100.484
100.583
100.689
100.8
100.918
101.043
101.175
101.315
101.463
101.619
101.783
101.958
102.142
102.336
102.54
102.756
102.982
103.22
103.469
103.73
104.003
104.289
104.589
104.902
105.229
105.57
105.924
106.293
106.675
107.07
107.479
107.899
108.332
108.775
109.227
109.687
110.153
110.622
111.092
111.559
112.02
112.47
112.904
113.318
113.705
114.057
114.368
114.63
114.834
114.97
115.029
115.002
114.877
114.645
114.296
113.818
113.201
112.436
111.511
110.417
109.145
107.683
106.021
104.148
102.047
99.6996
97.095
94.2243
91.0362
87.4085
83.4146
79.6526
76.1025
73.4546
68.8043
99.3661
99.3687
99.3742
99.3827
99.3942
99.4085
99.4259
99.4462
99.4694
99.4958
99.5252
99.5579
99.5938
99.6331
99.676
99.7225
99.7727
99.8269
99.8852
99.9477
100.015
100.086
100.162
100.244
100.33
100.422
100.519
100.622
100.731
100.847
100.969
101.099
101.236
101.38
101.533
101.695
101.867
102.048
102.239
102.442
102.655
102.879
103.114
103.361
103.62
103.892
104.176
104.475
104.787
105.114
105.456
105.811
106.182
106.566
106.965
107.378
107.804
108.244
108.695
109.157
109.628
110.106
110.59
111.076
111.561
112.042
112.515
112.974
113.414
113.829
114.212
114.555
114.85
115.089
115.261
115.357
115.366
115.279
115.083
114.769
114.325
113.741
113.006
112.109
111.04
109.79
108.348
106.704
104.846
102.76
100.424
97.8268
94.9675
91.7851
88.0759