/*--------------------------------*- C++ -*----------------------------------*\
| =========                 |                                                 |
| \\      /  F ield         | OpenFOAM: The Open Source CFD Toolbox           |
|  \\    /   O peration     | Version:  2.4.0                                 |
|   \\  /    A nd           | Web:      www.OpenFOAM.org                      |
|    \\/     M anipulation  |                                                 |
\*---------------------------------------------------------------------------*/
FoamFile
{
    version     2.0;
    format      ascii;
    class       surfaceScalarField;
    location    "0.057";
    object      phi;
}
// * * * * * * * * * * * * * * * * * * * * * * * * * * * * * * * * * * * * * //

dimensions      [0 3 -1 0 0 0 0];

internalField   nonuniform List<scalar> 
19800
(
-5.15868e-13
5.15868e-13
-1.2553e-12
7.54081e-13
-2.1313e-12
8.62507e-13
-3.02387e-12
8.83711e-13
-3.8608e-12
8.36718e-13
-4.60165e-12
7.43595e-13
-5.22247e-12
6.22502e-13
-5.70897e-12
4.86563e-13
-6.05145e-12
3.41606e-13
-6.23972e-12
1.8703e-13
-6.2631e-12
2.22712e-14
-6.1081e-12
-1.55481e-13
-5.75696e-12
-3.50735e-13
-5.1924e-12
-5.63675e-13
-4.39545e-12
-7.9653e-13
-3.34668e-12
-1.0496e-12
-2.02703e-12
-1.32176e-12
-4.19151e-13
-1.61051e-12
1.49086e-12
-1.91212e-12
3.71178e-12
-2.22194e-12
6.24599e-12
-2.53437e-12
9.08861e-12
-2.8426e-12
1.22266e-11
-3.13833e-12
1.56377e-11
-3.4117e-12
1.92888e-11
-3.65159e-12
2.31351e-11
-3.84613e-12
2.71193e-11
-3.98342e-12
3.11724e-11
-4.05214e-12
3.5215e-11
-4.04206e-12
3.91595e-11
-3.94471e-12
4.29132e-11
-3.75403e-12
4.63805e-11
-3.46721e-12
4.94666e-11
-3.08523e-12
5.20814e-11
-2.61314e-12
5.41428e-11
-2.05967e-12
5.55806e-11
-1.43663e-12
5.63412e-11
-7.60237e-13
5.63817e-11
-4.06297e-14
5.56846e-11
6.97176e-13
5.42451e-11
1.44016e-12
5.20773e-11
2.1691e-12
4.92121e-11
2.86616e-12
4.56978e-11
3.51463e-12
4.15989e-11
4.09891e-12
3.6993e-11
4.60547e-12
3.19696e-11
5.02308e-12
2.66282e-11
5.34202e-12
2.10743e-11
5.55478e-12
1.54177e-11
5.65702e-12
5.64671e-12
9.77139e-12
-6.26941e-13
1.12725e-12
-1.58529e-12
1.73366e-12
-2.73147e-12
2.01834e-12
-3.87627e-12
2.02684e-12
-4.86921e-12
1.82579e-12
-5.602e-12
1.47487e-12
-6.01303e-12
1.03372e-12
-6.0549e-12
5.28179e-13
-5.69465e-12
-2.01507e-14
-4.902e-12
-6.07597e-13
-3.64244e-12
-1.23846e-12
-1.87664e-12
-1.92109e-12
4.37111e-13
-2.6636e-12
3.34777e-12
-3.47414e-12
6.90516e-12
-4.35549e-12
1.11595e-11
-5.30722e-12
1.61582e-11
-6.32433e-12
2.19419e-11
-7.3971e-12
2.85396e-11
-8.51119e-12
3.5965e-11
-9.64747e-12
4.42125e-11
-1.07818e-11
5.32544e-11
-1.18849e-11
6.30377e-11
-1.29224e-11
7.34815e-11
-1.38558e-11
8.44739e-11
-1.46434e-11
9.58716e-11
-1.52424e-11
1.075e-10
-1.561e-11
1.19154e-10
-1.57062e-11
1.30607e-10
-1.54954e-11
1.41611e-10
-1.49492e-11
1.51905e-10
-1.40486e-11
1.61226e-10
-1.27859e-11
1.69309e-10
-1.11661e-11
1.75906e-10
-9.20687e-12
1.80786e-10
-6.93813e-12
1.8375e-10
-4.40056e-12
1.84632e-10
-1.64239e-12
1.83321e-10
1.27149e-12
1.79738e-10
4.28127e-12
1.73863e-10
7.31667e-12
1.65729e-10
1.03056e-11
1.55419e-10
1.31761e-11
1.43075e-10
1.58588e-11
1.28885e-10
1.82885e-11
1.13085e-10
2.04059e-11
9.59484e-11
2.21596e-11
7.77836e-11
2.35077e-11
5.89209e-11
2.44184e-11
3.97052e-11
2.48722e-11
2.48622e-11
2.04895e-11
-6.5176e-13
1.76552e-12
-1.66072e-12
2.73821e-12
-2.80401e-12
3.1651e-12
-3.87226e-12
3.0969e-12
-4.67913e-12
2.63215e-12
-5.0839e-12
1.8784e-12
-4.9799e-12
9.28451e-13
-4.29632e-12
-1.5696e-13
-2.97486e-12
-1.34354e-12
-9.60822e-13
-2.62335e-12
1.80354e-12
-4.00363e-12
5.38145e-12
-5.49881e-12
9.84271e-12
-7.12431e-12
1.52609e-11
-8.89235e-12
2.17127e-11
-1.08084e-11
2.92736e-11
-1.28698e-11
3.80123e-11
-1.50648e-11
4.79859e-11
-1.73716e-11
5.92327e-11
-1.9758e-11
7.17665e-11
-2.21809e-11
8.5571e-11
-2.45861e-11
1.00594e-10
-2.69084e-11
1.16745e-10
-2.90726e-11
1.33885e-10
-3.09956e-11
1.51831e-10
-3.25882e-11
1.70348e-10
-3.37586e-11
1.89154e-10
-3.44167e-11
2.07925e-10
-3.44775e-11
2.26294e-10
-3.3867e-11
2.4387e-10
-3.25262e-11
2.60238e-10
-3.04164e-11
2.74976e-10
-2.75219e-11
2.87664e-10
-2.38524e-11
2.97902e-10
-1.94439e-11
3.05322e-10
-1.43572e-11
3.09599e-10
-8.67701e-12
3.10458e-10
-2.50154e-12
3.07707e-10
4.02338e-12
3.01213e-10
1.07773e-11
2.90929e-10
1.76019e-11
2.76897e-10
2.43386e-11
2.59247e-10
3.08264e-11
2.38197e-10
3.69076e-11
2.14052e-10
4.24325e-11
1.87195e-10
4.72634e-11
1.58074e-10
5.12803e-11
1.27197e-10
5.43848e-11
9.51125e-11
5.65029e-11
6.23964e-11
5.75881e-11
5.76225e-11
2.96368e-11
-6.24376e-13
2.39118e-12
-1.55072e-12
3.65629e-12
-2.53141e-12
4.14396e-12
-3.34434e-12
3.91036e-12
-3.78798e-12
3.07605e-12
-3.69786e-12
1.78757e-12
-2.94521e-12
1.74302e-13
-1.43366e-12
-1.67045e-12
9.19025e-13
-3.6982e-12
4.1907e-12
-5.89654e-12
8.46239e-12
-8.27602e-12
1.38216e-11
-1.08579e-11
2.03623e-11
-1.36645e-11
2.81834e-11
-1.6713e-11
3.73853e-11
-2.00103e-11
4.80652e-11
-2.35499e-11
6.03107e-11
-2.73105e-11
7.41928e-11
-3.12536e-11
8.97582e-11
-3.5323e-11
1.07021e-10
-3.94436e-11
1.25958e-10
-4.35216e-11
1.46495e-10
-4.74451e-11
1.68508e-10
-5.10855e-11
1.91813e-10
-5.43005e-11
2.16163e-10
-5.69381e-11
2.41246e-10
-5.88417e-11
2.66685e-10
-5.98573e-11
2.92047e-10
-5.98407e-11
3.16844e-10
-5.86657e-11
3.40549e-10
-5.62322e-11
3.62606e-10
-5.24735e-11
3.82447e-10
-4.73616e-11
3.99506e-10
-4.09108e-11
4.13242e-10
-3.3179e-11
4.23151e-10
-2.42667e-11
4.28788e-10
-1.43147e-11
4.29779e-10
-3.49173e-12
4.2584e-10
7.96309e-12
4.16783e-10
1.98353e-11
4.02532e-10
3.1854e-11
3.83128e-10
4.37428e-11
3.58736e-10
5.52187e-11
3.29641e-10
6.60013e-11
2.9625e-10
7.58223e-11
2.59079e-10
8.44343e-11
2.18739e-10
9.16193e-11
1.75926e-10
9.7198e-11
1.31395e-10
1.01034e-10
8.59425e-11
1.03041e-10
1.03183e-10
4.03832e-11
-5.54554e-13
2.94994e-12
-1.30041e-12
4.39877e-12
-2.00893e-12
4.85034e-12
-2.46275e-12
4.36382e-12
-2.45476e-12
3.06818e-12
-1.80693e-12
1.13939e-12
-3.75448e-13
-1.25821e-12
1.95707e-12
-4.00445e-12
5.29376e-12
-7.03645e-12
9.73444e-12
-1.03385e-11
1.53829e-11
-1.39251e-11
2.235e-11
-1.78248e-11
3.07538e-11
-2.20675e-11
4.07168e-11
-2.66752e-11
5.23627e-11
-3.16556e-11
6.58102e-11
-3.69973e-11
8.11661e-11
-4.26665e-11
9.8517e-11
-4.86046e-11
1.17921e-10
-5.47263e-11
1.39396e-10
-6.09183e-11
1.62915e-10
-6.70399e-11
1.88393e-10
-7.29227e-11
2.1568e-10
-7.83734e-11
2.44557e-10
-8.31778e-11
2.74725e-10
-8.71063e-11
3.05805e-10
-8.99227e-11
3.3734e-10
-9.13939e-11
3.68799e-10
-9.1301e-11
3.99584e-10
-8.94522e-11
4.29045e-10
-8.56941e-11
4.56495e-10
-7.99231e-11
4.81227e-10
-7.20934e-11
5.02538e-10
-6.22223e-11
5.19752e-10
-5.03925e-11
5.32235e-10
-3.67507e-11
5.39424e-10
-2.15051e-11
5.40842e-10
-4.90887e-12
5.36117e-10
1.26884e-11
5.24998e-10
3.09555e-11
5.0737e-10
4.94825e-11
4.83266e-10
6.78464e-11
4.52873e-10
8.56109e-11
4.16534e-10
1.0234e-10
3.74743e-10
1.17612e-10
3.28139e-10
1.31038e-10
2.77486e-10
1.42273e-10
2.23655e-10
1.51029e-10
1.67603e-10
1.57088e-10
1.10338e-10
1.60308e-10
1.60628e-10
5.2894e-11
-4.66263e-13
3.41766e-12
-9.85229e-13
4.91916e-12
-1.37733e-12
5.24252e-12
-1.4459e-12
4.43251e-12
-9.85944e-13
2.60845e-12
1.88486e-13
-3.4966e-14
2.23338e-12
-3.3034e-12
5.28303e-12
-7.05483e-12
9.45963e-12
-1.1214e-11
1.48839e-11
-1.57636e-11
2.16817e-11
-2.07232e-11
2.99871e-11
-2.61299e-11
3.99419e-11
-3.20216e-11
5.1693e-11
-3.84257e-11
6.53879e-11
-4.53506e-11
8.11687e-11
-5.27788e-11
9.9164e-11
-6.06627e-11
1.1948e-10
-6.89208e-11
1.42189e-10
-7.74355e-11
1.67322e-10
-8.6051e-11
1.94855e-10
-9.45726e-11
2.24699e-10
-1.02768e-10
2.56693e-10
-1.10368e-10
2.90588e-10
-1.17074e-10
3.26048e-10
-1.22567e-10
3.62639e-10
-1.26514e-10
3.99833e-10
-1.28589e-10
4.37012e-10
-1.28481e-10
4.73476e-10
-1.25917e-10
5.08458e-10
-1.20678e-10
5.41146e-10
-1.12611e-10
5.70701e-10
-1.01648e-10
5.96284e-10
-8.78062e-11
6.17084e-10
-7.11942e-11
6.32342e-10
-5.20103e-11
6.41374e-10
-3.05379e-11
6.43601e-10
-7.13593e-12
6.38549e-10
1.77408e-11
6.25902e-10
4.36035e-11
6.05496e-10
6.98888e-11
5.77343e-10
9.59982e-11
5.41643e-10
1.2131e-10
4.98783e-10
1.452e-10
4.49337e-10
1.67058e-10
3.94057e-10
1.86319e-10
3.33855e-10
2.02477e-10
2.69774e-10
2.1511e-10
2.02968e-10
2.23894e-10
1.34659e-10
2.28617e-10
2.29185e-10
6.61012e-11
-3.80517e-13
3.79798e-12
-6.78841e-13
5.22081e-12
-7.80516e-13
5.34607e-12
-5.14934e-13
4.16789e-12
3.16175e-13
1.778e-12
1.90229e-12
-1.62054e-12
4.4117e-12
-5.81252e-12
7.99347e-12
-1.06368e-11
1.27878e-11
-1.60089e-11
1.89356e-11
-2.19119e-11
2.65848e-11
-2.83725e-11
3.58928e-11
-3.54376e-11
4.70259e-11
-4.31545e-11
6.01566e-11
-5.1557e-11
7.54587e-11
-6.06541e-11
9.31009e-11
-7.04225e-11
1.13238e-10
-8.08003e-11
1.35999e-10
-9.16823e-11
1.6148e-10
-1.02917e-10
1.8973e-10
-1.14301e-10
2.20738e-10
-1.25582e-10
2.54423e-10
-1.36454e-10
2.9062e-10
-1.46566e-10
3.29068e-10
-1.55522e-10
3.694e-10
-1.62899e-10
4.11139e-10
-1.68253e-10
4.53694e-10
-1.71145e-10
4.96368e-10
-1.71156e-10
5.38363e-10
-1.67913e-10
5.78799e-10
-1.61114e-10
6.16736e-10
-1.50549e-10
6.51203e-10
-1.36116e-10
6.81225e-10
-1.17829e-10
7.05853e-10
-9.58247e-11
7.24198e-10
-7.03571e-11
7.35452e-10
-4.17928e-11
7.3892e-10
-1.06042e-11
7.34031e-10
2.26306e-11
7.20383e-10
5.72519e-11
6.97753e-10
9.25184e-11
6.66121e-10
1.2763e-10
6.25685e-10
1.61747e-10
5.76866e-10
1.94018e-10
5.20313e-10
2.23612e-10
4.56887e-10
2.49746e-10
3.87643e-10
2.71721e-10
3.13807e-10
2.88946e-10
2.36733e-10
3.00968e-10
1.57864e-10
3.07487e-10
3.08363e-10
7.86863e-11
-3.11175e-13
4.10957e-12
-4.43205e-13
5.35591e-12
-3.3525e-13
5.24026e-12
1.50293e-13
3.68365e-12
1.20525e-12
7.2395e-13
3.02348e-12
-3.43803e-12
5.78435e-12
-8.57292e-12
9.65195e-12
-1.45043e-11
1.47843e-11
-2.11413e-11
2.13425e-11
-2.84701e-11
2.94967e-11
-3.65265e-11
3.94283e-11
-4.53693e-11
5.13297e-11
-5.50567e-11
6.54011e-11
-6.563e-11
8.18459e-11
-7.71007e-11
1.00863e-10
-8.94407e-11
1.22637e-10
-1.02575e-10
1.4733e-10
-1.16374e-10
1.75065e-10
-1.30652e-10
2.05919e-10
-1.45156e-10
2.39908e-10
-1.59572e-10
2.76966e-10
-1.73514e-10
3.16939e-10
-1.8654e-10
3.59563e-10
-1.98146e-10
4.04454e-10
-2.0779e-10
4.511e-10
-2.149e-10
4.98857e-10
-2.18903e-10
5.46951e-10
-2.19251e-10
5.94487e-10
-2.1545e-10
6.40469e-10
-2.07097e-10
6.83828e-10
-1.93908e-10
7.23449e-10
-1.75738e-10
7.58216e-10
-1.52597e-10
7.87038e-10
-1.24649e-10
8.08887e-10
-9.22075e-11
8.22823e-10
-5.57296e-11
8.28024e-10
-1.58056e-11
8.23812e-10
2.6843e-11
8.09684e-10
7.13797e-11
7.85342e-10
1.1686e-10
7.50717e-10
1.62255e-10
7.05991e-10
2.06473e-10
6.51612e-10
2.48399e-10
5.88293e-10
2.86933e-10
5.17007e-10
3.21033e-10
4.38963e-10
3.49765e-10
3.55573e-10
3.72336e-10
2.68411e-10
3.8813e-10
1.79158e-10
3.96739e-10
3.97969e-10
8.95522e-11
-2.69122e-13
4.38012e-12
-3.12852e-13
5.40159e-12
-1.16963e-13
5.04578e-12
4.29575e-13
3.13809e-12
1.51589e-12
-3.61641e-13
3.34099e-12
-5.26259e-12
6.09688e-12
-1.13285e-11
9.96339e-12
-1.83706e-11
1.51167e-11
-2.62944e-11
2.17385e-11
-3.50915e-11
3.00216e-11
-4.48094e-11
4.01726e-11
-5.55208e-11
5.24118e-11
-6.72972e-11
6.697e-11
-8.01898e-11
8.40829e-11
-9.42146e-11
1.03984e-10
-1.09341e-10
1.26894e-10
-1.25484e-10
1.53012e-10
-1.42491e-10
1.82502e-10
-1.60141e-10
2.15477e-10
-1.78133e-10
2.51987e-10
-1.96083e-10
2.91999e-10
-2.13528e-10
3.35379e-10
-2.29921e-10
3.81875e-10
-2.44642e-10
4.31098e-10
-2.57013e-10
4.82513e-10
-2.66316e-10
5.35427e-10
-2.71819e-10
5.88992e-10
-2.72817e-10
6.42216e-10
-2.68674e-10
6.93979e-10
-2.58859e-10
7.43069e-10
-2.42997e-10
7.88223e-10
-2.20892e-10
8.28167e-10
-1.92542e-10
8.61661e-10
-1.58144e-10
8.87527e-10
-1.18075e-10
9.04686e-10
-7.28886e-11
9.12177e-10
-2.32974e-11
9.09195e-10
2.98252e-11
8.95121e-10
8.54547e-11
8.69557e-10
1.42424e-10
8.32367e-10
1.99446e-10
7.837e-10
2.5514e-10
7.24016e-10
3.08083e-10
6.54093e-10
3.56857e-10
5.75017e-10
4.0011e-10
4.88162e-10
4.36622e-10
3.95148e-10
4.65351e-10
2.9779e-10
4.85488e-10
1.98038e-10
4.9649e-10
4.98098e-10
9.79084e-11
-2.59751e-13
4.64135e-12
-3.08442e-13
5.45108e-12
-1.68673e-13
4.9065e-12
2.57756e-13
2.71201e-12
1.15402e-12
-1.25768e-12
2.73388e-12
-6.84233e-12
5.20301e-12
-1.37975e-11
8.75815e-12
-2.19254e-11
1.35945e-11
-3.11302e-11
1.99146e-11
-4.14112e-11
2.79351e-11
-5.283e-11
3.78892e-11
-6.54756e-11
5.00268e-11
-7.94357e-11
6.46112e-11
-9.47747e-11
8.19142e-11
-1.11517e-10
1.02208e-10
-1.29634e-10
1.25756e-10
-1.4903e-10
1.52802e-10
-1.69536e-10
1.83557e-10
-1.90896e-10
2.18184e-10
-2.1276e-10
2.56779e-10
-2.34679e-10
2.99353e-10
-2.56102e-10
3.45808e-10
-2.76377e-10
3.95918e-10
-2.94753e-10
4.49304e-10
-3.10401e-10
5.05417e-10
-3.2243e-10
5.63527e-10
-3.29929e-10
6.22714e-10
-3.32004e-10
6.8188e-10
-3.27839e-10
7.39773e-10
-3.16751e-10
7.95023e-10
-2.98247e-10
8.462e-10
-2.72068e-10
8.91861e-10
-2.38204e-10
9.30601e-10
-1.96886e-10
9.6109e-10
-1.48565e-10
9.82093e-10
-9.38924e-11
9.92501e-10
-3.37059e-11
9.9136e-10
3.09667e-11
9.77909e-10
9.89069e-11
9.51624e-10
1.68709e-10
9.12273e-10
2.38797e-10
8.5995e-10
3.07463e-10
7.95115e-10
3.7292e-10
7.18601e-10
4.33371e-10
6.31618e-10
4.87094e-10
5.3572e-10
5.3252e-10
4.32761e-10
5.6831e-10
3.24836e-10
5.93414e-10
2.14198e-10
6.07127e-10
6.09112e-10
1.03184e-10
-2.84745e-13
4.92688e-12
-4.35928e-13
5.60234e-12
-5.03222e-13
4.9737e-12
-3.96297e-13
2.60489e-12
7.89581e-14
-1.7332e-12
1.1495e-12
-7.91309e-12
3.03893e-12
-1.56869e-11
5.96253e-12
-2.48488e-11
1.01354e-11
-3.53028e-11
1.57821e-11
-4.70577e-11
2.31437e-11
-6.01917e-11
3.24812e-11
-7.48132e-11
4.40753e-11
-9.10297e-11
5.82243e-11
-1.08923e-10
7.52387e-11
-1.2853e-10
9.54341e-11
-1.49828e-10
1.19122e-10
-1.72718e-10
1.466e-10
-1.97013e-10
1.78133e-10
-2.22429e-10
2.13945e-10
-2.48571e-10
2.5419e-10
-2.74925e-10
2.98938e-10
-3.00851e-10
3.48145e-10
-3.25585e-10
4.01626e-10
-3.48235e-10
4.59029e-10
-3.67805e-10
5.19809e-10
-3.8321e-10
5.83203e-10
-3.93324e-10
6.48226e-10
-3.97027e-10
7.1367e-10
-3.93282e-10
7.78131e-10
-3.81211e-10
8.40064e-10
-3.60179e-10
8.97846e-10
-3.2985e-10
9.49849e-10
-2.90208e-10
9.94496e-10
-2.41534e-10
1.03029e-09
-1.84362e-10
1.05584e-09
-1.19445e-10
1.06988e-09
-4.77405e-11
1.07127e-09
2.95776e-11
1.05908e-09
1.11098e-10
1.03262e-09
1.95166e-10
9.91528e-10
2.79888e-10
9.35813e-10
3.63179e-10
8.6591e-10
4.42824e-10
7.82705e-10
5.16576e-10
6.87537e-10
5.82262e-10
5.82166e-10
6.37892e-10
4.68714e-10
6.8176e-10
3.49597e-10
7.12531e-10
2.27429e-10
7.29297e-10
7.31625e-10
1.04916e-10
-3.41941e-13
5.26891e-12
-6.92992e-13
5.95318e-12
-1.12139e-12
5.40173e-12
-1.53139e-12
3.01435e-12
-1.71164e-12
-1.55347e-12
-1.4156e-12
-8.20945e-12
-3.99556e-13
-1.67031e-11
1.57249e-12
-2.68209e-11
4.73658e-12
-3.84669e-11
9.3401e-12
-5.16613e-11
1.56491e-11
-6.65004e-11
2.39529e-11
-8.31163e-11
3.45642e-11
-1.0164e-10
4.78177e-11
-1.22176e-10
6.40656e-11
-1.44778e-10
8.36713e-11
-1.69433e-10
1.07e-10
-1.96045e-10
1.34407e-10
-2.24419e-10
1.66223e-10
-2.54244e-10
2.0274e-10
-2.85087e-10
2.44185e-10
-3.1637e-10
2.907e-10
-3.47369e-10
3.42314e-10
-3.772e-10
3.98905e-10
-4.04826e-10
4.60168e-10
-4.29067e-10
5.25579e-10
-4.4862e-10
5.94362e-10
-4.62106e-10
6.65469e-10
-4.68133e-10
7.37576e-10
-4.65388e-10
8.09111e-10
-4.52745e-10
8.78318e-10
-4.29386e-10
9.43355e-10
-3.94887e-10
1.00239e-09
-3.49244e-10
1.05366e-09
-2.9281e-10
1.09552e-09
-2.26221e-10
1.12641e-09
-1.50334e-10
1.14488e-09
-6.62083e-11
1.1496e-09
2.48598e-11
1.13941e-09
1.21283e-10
1.11342e-09
2.21154e-10
1.07108e-09
3.22234e-10
1.01226e-09
4.22002e-10
9.37341e-10
5.17739e-10
8.47262e-10
6.06655e-10
7.43496e-10
6.86027e-10
6.28036e-10
7.53352e-10
5.03322e-10
8.06475e-10
3.72146e-10
8.43706e-10
2.37545e-10
8.63899e-10
8.66502e-10
1.02667e-10
-4.28773e-13
5.69754e-12
-1.07439e-12
6.59845e-12
-2.01316e-12
6.3399e-12
-3.13122e-12
4.13174e-12
-4.19455e-12
-4.90626e-13
-4.93128e-12
-7.47301e-12
-5.07404e-12
-1.65607e-11
-4.36543e-12
-2.753e-11
-2.5469e-12
-4.0286e-11
6.52039e-13
-5.48601e-11
5.52312e-12
-7.13705e-11
1.23838e-11
-8.99755e-11
2.15787e-11
-1.10834e-10
3.34811e-11
-1.34078e-10
4.8487e-11
-1.59784e-10
6.70105e-11
-1.87957e-10
8.94739e-11
-2.18508e-10
1.16296e-10
-2.51239e-10
1.47881e-10
-2.85827e-10
1.84596e-10
-3.21802e-10
2.26755e-10
-3.58531e-10
2.7459e-10
-3.95205e-10
3.28219e-10
-4.30829e-10
3.87605e-10
-4.64212e-10
4.52517e-10
-4.93978e-10
5.2248e-10
-5.18582e-10
5.96727e-10
-5.36353e-10
6.74163e-10
-5.45568e-10
7.5334e-10
-5.44566e-10
8.32492e-10
-5.31896e-10
9.09611e-10
-5.06504e-10
9.82593e-10
-4.67869e-10
1.04938e-09
-4.16032e-10
1.10804e-09
-3.51467e-10
1.15676e-09
-2.74948e-10
1.19386e-09
-1.87429e-10
1.21768e-09
-9.00354e-11
1.22668e-09
1.58676e-11
1.21941e-09
1.28555e-10
1.19468e-09
2.45878e-10
1.1517e-09
3.65223e-10
1.09013e-09
4.83567e-10
1.01028e-09
5.97591e-10
9.1309e-10
7.03841e-10
8.00196e-10
7.9892e-10
6.73858e-10
8.7969e-10
5.36889e-10
9.43444e-10
3.92536e-10
9.88058e-10
2.44339e-10
1.0121e-09
1.01486e-09
9.59794e-11
-5.43898e-13
6.24127e-12
-1.57594e-12
7.62984e-12
-3.16089e-12
7.92405e-12
-5.16784e-12
6.13813e-12
-7.32884e-12
1.67017e-12
-9.34321e-12
-5.4589e-12
-1.09172e-11
-1.49874e-11
-1.17688e-11
-2.66794e-11
-1.16174e-11
-4.04378e-11
-1.01694e-11
-5.63073e-11
-7.10885e-12
-7.44293e-11
-2.09047e-12
-9.49924e-11
5.26535e-12
-1.1819e-10
1.53684e-11
-1.44182e-10
2.86606e-11
-1.73077e-10
4.56078e-11
-2.04903e-10
6.6692e-11
-2.3959e-10
9.24002e-11
-2.76945e-10
1.23212e-10
-3.16638e-10
1.59583e-10
-3.58173e-10
2.01921e-10
-4.00871e-10
2.50563e-10
-4.43848e-10
3.05735e-10
-4.85999e-10
3.67511e-10
-5.25987e-10
4.35766e-10
-5.62231e-10
5.10109e-10
-5.92925e-10
5.89819e-10
-6.16063e-10
6.73777e-10
-6.29525e-10
7.60416e-10
-6.31204e-10
8.47736e-10
-6.19216e-10
9.33416e-10
-5.92183e-10
1.01503e-09
-5.49485e-10
1.09028e-09
-4.9128e-10
1.15706e-09
-4.18254e-10
1.21349e-09
-3.31375e-10
1.25775e-09
-2.31684e-10
1.288e-09
-1.20295e-10
1.30242e-09
1.45292e-12
1.2992e-09
1.31774e-10
1.27677e-09
2.68308e-10
1.23395e-09
4.08041e-10
1.17015e-09
5.47367e-10
1.08551e-09
6.82238e-10
9.80963e-10
8.08383e-10
8.58314e-10
9.2157e-10
7.20137e-10
1.01787e-09
5.69696e-10
1.09389e-09
4.10787e-10
1.14697e-09
2.47562e-10
1.17532e-09
1.17808e-09
8.43422e-11
-6.86072e-13
6.92704e-12
-2.17874e-12
9.12149e-12
-4.54194e-12
1.02865e-11
-7.60365e-12
9.19972e-12
-1.10607e-11
5.12739e-12
-1.45788e-11
-1.94107e-12
-1.78355e-11
-1.17317e-11
-2.05242e-11
-2.39916e-11
-2.23415e-11
-3.86204e-11
-2.2972e-11
-5.56753e-11
-2.2076e-11
-7.53235e-11
-1.92806e-11
-9.77867e-11
-1.4176e-11
-1.23295e-10
-6.31114e-12
-1.52047e-10
4.80061e-12
-1.84189e-10
1.96768e-11
-2.19778e-10
3.88594e-11
-2.5877e-10
6.29058e-11
-3.00991e-10
9.23758e-11
-3.46109e-10
1.27816e-10
-3.93615e-10
1.69738e-10
-4.42793e-10
2.18591e-10
-4.927e-10
2.74727e-10
-5.42135e-10
3.3836e-10
-5.89619e-10
4.09505e-10
-6.33376e-10
4.87905e-10
-6.71325e-10
5.72937e-10
-7.01095e-10
6.63501e-10
-7.20089e-10
7.57928e-10
-7.25631e-10
8.53942e-10
-7.15231e-10
9.48804e-10
-6.87047e-10
1.03968e-09
-6.40363e-10
1.12401e-09
-5.75611e-10
1.1996e-09
-4.93839e-10
1.26454e-09
-3.96317e-10
1.31699e-09
-2.84131e-10
1.35494e-09
-1.58247e-10
1.3762e-09
-1.98089e-11
1.37851e-09
1.29471e-10
1.35973e-09
2.87082e-10
1.3182e-09
4.49577e-10
1.2529e-09
6.12665e-10
1.16373e-09
7.71405e-10
1.05161e-09
9.20506e-10
9.185e-10
1.05468e-09
7.67357e-10
1.16901e-09
6.01993e-10
1.25925e-09
4.26876e-10
1.32209e-09
2.46903e-10
1.35529e-09
1.35782e-09
6.71701e-11
-8.51766e-13
7.77822e-12
-2.88125e-12
1.115e-11
-6.1329e-12
1.35379e-11
-1.03962e-11
1.34636e-11
-1.53259e-11
1.00576e-11
-2.05508e-11
3.28361e-12
-2.57178e-11
-6.56565e-12
-3.04955e-11
-1.92145e-11
-3.45588e-11
-3.45564e-11
-3.75716e-11
-5.26608e-11
-3.91721e-11
-7.37216e-11
-3.89614e-11
-9.79969e-11
-3.64981e-11
-1.25758e-10
-3.12954e-11
-1.5725e-10
-2.28236e-11
-1.92659e-10
-1.05127e-11
-2.32087e-10
6.24065e-12
-2.75522e-10
2.80633e-11
-3.22813e-10
5.55953e-11
-3.73641e-10
8.9475e-11
-4.27495e-10
1.30317e-10
-4.83636e-10
1.78692e-10
-5.41074e-10
2.35089e-10
-5.98532e-10
2.99882e-10
-6.54412e-10
3.73267e-10
-7.06761e-10
4.55179e-10
-7.53236e-10
5.45169e-10
-7.91085e-10
6.42239e-10
-8.1716e-10
7.44656e-10
-8.28048e-10
8.49815e-10
-8.20391e-10
9.54399e-10
-7.91631e-10
1.05502e-09
-7.40982e-10
1.14886e-09
-6.69455e-10
1.23374e-09
-5.78712e-10
1.30793e-09
-4.70511e-10
1.36969e-09
-3.45889e-10
1.41685e-09
-2.05404e-10
1.44676e-09
-4.97225e-11
1.45651e-09
1.19728e-10
1.44322e-09
3.00371e-10
1.40449e-09
4.88299e-10
1.33877e-09
6.78396e-10
1.24556e-09
8.64608e-10
1.12571e-09
1.04035e-09
9.81382e-10
1.19901e-09
8.15983e-10
1.33441e-09
6.34e-10
1.44123e-09
4.40728e-10
1.51536e-09
2.41979e-10
1.55404e-09
1.55601e-09
4.37884e-11
-1.0407e-12
8.81821e-12
-3.66817e-12
1.37772e-11
-7.90538e-12
1.7776e-11
-1.34966e-11
1.90562e-11
-2.0051e-11
1.66128e-11
-2.71582e-11
1.03905e-11
-3.44344e-11
7.09925e-13
-4.15236e-11
-1.21254e-11
-4.8081e-11
-2.79982e-11
-5.37518e-11
-4.69889e-11
-5.81535e-11
-6.93191e-11
-6.08636e-11
-9.52864e-11
-6.14121e-11
-1.25209e-10
-5.9278e-11
-1.59382e-10
-5.389e-11
-1.98045e-10
-4.46288e-11
-2.41346e-10
-3.08331e-11
-2.89317e-10
-1.18064e-11
-3.4184e-10
1.31709e-11
-3.98618e-10
4.48234e-11
-4.59147e-10
8.38634e-11
-5.22676e-10
1.30979e-10
-5.8819e-10
1.868e-10
-6.54354e-10
2.51872e-10
-7.19484e-10
3.26603e-10
-7.81492e-10
4.11184e-10
-8.37818e-10
5.05447e-10
-8.85347e-10
6.08622e-10
-9.20336e-10
7.1902e-10
-9.38447e-10
8.33646e-10
-9.35017e-10
9.48322e-10
-9.06306e-10
1.05887e-09
-8.51531e-10
1.1623e-09
-7.7288e-10
1.2566e-09
-6.73019e-10
1.34063e-09
-5.54533e-10
1.41291e-09
-4.18176e-10
1.47114e-09
-2.63626e-10
1.51203e-09
-9.06164e-11
1.53175e-09
1.00011e-10
1.52639e-09
3.05724e-10
1.49259e-09
5.22108e-10
1.42794e-09
7.43038e-10
1.33149e-09
9.61059e-10
1.20391e-09
1.16794e-09
1.04756e-09
1.35535e-09
8.66453e-10
1.51552e-09
6.65896e-10
1.64179e-09
4.52206e-10
1.72905e-09
2.32319e-10
1.77393e-09
1.77491e-09
1.34158e-11
-1.24779e-12
1.00657e-11
-4.52632e-12
1.70568e-11
-9.82818e-12
2.30797e-11
-1.68498e-11
2.60797e-11
-2.51529e-11
2.49167e-11
-3.4287e-11
1.95243e-11
-4.38382e-11
1.02607e-11
-5.3428e-11
-2.53563e-12
-6.26937e-11
-1.8732e-11
-7.12645e-11
-3.84176e-11
-7.87404e-11
-6.18427e-11
-8.46783e-11
-8.93478e-11
-8.85831e-11
-1.21303e-10
-8.99023e-11
-1.58062e-10
-8.80254e-11
-1.99921e-10
-8.22851e-11
-2.47086e-10
-7.19633e-11
-2.99638e-10
-5.62995e-11
-3.57502e-10
-3.45043e-11
-4.20412e-10
-5.77246e-12
-4.87879e-10
3.07069e-11
-5.59156e-10
7.57145e-11
-6.33199e-10
1.30006e-10
-7.08646e-10
1.94289e-10
-7.83767e-10
2.69198e-10
-8.56401e-10
3.55238e-10
-9.23859e-10
4.52642e-10
-9.82752e-10
5.6107e-10
-1.02876e-09
6.79089e-10
-1.05647e-09
8.03287e-10
-1.05921e-09
9.28122e-10
-1.03114e-09
1.04825e-09
-9.71656e-10
1.16071e-09
-8.85339e-10
1.26402e-09
-7.76331e-10
1.3582e-09
-6.48709e-10
1.4424e-09
-5.02381e-10
1.51407e-09
-3.35292e-10
1.569e-09
-1.45545e-10
1.60204e-09
6.69703e-11
1.60789e-09
2.99874e-10
1.58183e-09
5.48165e-10
1.5204e-09
8.04468e-10
1.42191e-09
1.05955e-09
1.28677e-09
1.30308e-09
1.11763e-09
1.52449e-09
9.19186e-10
1.71396e-09
6.97813e-10
1.86316e-09
4.611e-10
1.96576e-09
2.17358e-10
2.01767e-09
2.01711e-09
-2.48372e-11
-1.47283e-12
1.15389e-11
-5.44149e-12
2.10275e-11
-1.18664e-11
2.95067e-11
-2.03944e-11
3.46091e-11
-3.05386e-11
3.50614e-11
-4.18097e-11
3.0795e-11
-5.37644e-11
2.2215e-11
-6.60055e-11
9.70532e-12
-7.81554e-11
-6.58193e-12
-8.98304e-11
-2.67422e-11
-1.00617e-10
-5.10552e-11
-1.10057e-10
-7.99077e-11
-1.17632e-10
-1.13728e-10
-1.22763e-10
-1.52932e-10
-1.248e-10
-1.97883e-10
-1.23033e-10
-2.48852e-10
-1.16688e-10
-3.05981e-10
-1.04944e-10
-3.69244e-10
-8.69432e-11
-4.38412e-10
-6.18086e-11
-5.13014e-10
-2.86644e-11
-5.92301e-10
1.33563e-11
-6.75219e-10
6.5095e-11
-7.60384e-10
1.2738e-10
-8.46052e-10
2.01045e-10
-9.30067e-10
2.86924e-10
-1.00974e-09
3.85763e-10
-1.08159e-09
4.97904e-10
-1.14091e-09
6.22599e-10
-1.18116e-09
7.5613e-10
-1.19275e-09
8.90672e-10
-1.16568e-09
1.01905e-09
-1.10003e-09
1.13906e-09
-1.00535e-09
1.25007e-09
-8.87338e-10
1.35446e-09
-7.53098e-10
1.45234e-09
-6.00267e-10
1.54062e-09
-4.23571e-10
1.61362e-09
-2.18545e-10
1.66437e-09
1.62241e-11
1.6857e-09
2.78544e-10
1.67116e-09
5.62701e-10
1.61584e-09
8.5979e-10
1.51705e-09
1.15834e-09
1.37484e-09
1.44529e-09
1.19215e-09
1.70719e-09
9.74562e-10
1.93155e-09
7.29821e-10
2.1079e-09
4.67109e-10
2.22847e-09
1.96424e-10
2.28836e-09
2.2855e-09
-7.19688e-11
-1.71062e-12
1.32507e-11
-6.39626e-12
2.57152e-11
-1.39807e-11
3.70928e-11
-2.40616e-11
4.46908e-11
-3.61048e-11
4.71044e-11
-4.95837e-11
4.42734e-11
-6.40302e-11
3.66611e-11
-7.90303e-11
2.47054e-11
-9.41966e-11
8.58491e-12
-1.09138e-10
-1.18001e-11
-1.23433e-10
-3.67597e-11
-1.36611e-10
-6.67301e-11
-1.48137e-10
-1.02202e-10
-1.57406e-10
-1.43663e-10
-1.63736e-10
-1.91552e-10
-1.66371e-10
-2.46215e-10
-1.64486e-10
-3.07864e-10
-1.57198e-10
-3.76531e-10
-1.43584e-10
-4.52027e-10
-1.22703e-10
-5.33896e-10
-9.36195e-11
-6.21384e-10
-5.54261e-11
-7.13412e-10
-7.24392e-12
-8.08566e-10
5.18015e-11
-9.05098e-10
1.22646e-10
-1.00091e-09
2.06379e-10
-1.09347e-09
3.04272e-10
-1.17948e-09
4.176e-10
-1.25424e-09
5.47035e-10
-1.3106e-09
6.89049e-10
-1.33476e-09
8.31929e-10
-1.30856e-09
9.65612e-10
-1.23372e-09
1.09032e-09
-1.13006e-09
1.20657e-09
-1.00358e-09
1.32119e-09
-8.67722e-10
1.43531e-09
-7.14387e-10
1.54455e-09
-5.32814e-10
1.64089e-09
-3.14885e-10
1.7149e-09
-5.77849e-11
1.75714e-09
2.36311e-10
1.75899e-09
5.60849e-10
1.71363e-09
9.05149e-10
1.617e-09
1.25497e-09
1.46857e-09
1.59372e-09
1.27162e-09
1.90414e-09
1.0329e-09
2.17027e-09
7.61887e-10
2.37891e-09
4.69812e-10
2.52055e-09
1.68739e-10
2.58943e-09
2.5833e-09
-1.29057e-10
-1.95618e-12
1.52081e-11
-7.37038e-12
3.11305e-11
-1.61266e-11
4.58494e-11
-2.77749e-11
5.63389e-11
-4.17367e-11
6.10655e-11
-5.74521e-11
5.99882e-11
-7.44322e-11
5.36409e-11
-9.22518e-11
4.25256e-11
-1.1052e-10
2.68541e-11
-1.28843e-10
6.52438e-12
-1.46799e-10
-1.88038e-11
-1.6391e-10
-4.96196e-11
-1.79632e-10
-8.64819e-11
-1.93336e-10
-1.29959e-10
-2.04311e-10
-1.80576e-10
-2.11759e-10
-2.38766e-10
-2.148e-10
-3.04823e-10
-2.12486e-10
-3.78846e-10
-2.03824e-10
-4.6069e-10
-1.87804e-10
-5.49915e-10
-1.63441e-10
-6.45746e-10
-1.29804e-10
-7.47047e-10
-8.60378e-11
-8.52333e-10
-3.13275e-11
-9.59809e-10
3.51979e-11
-1.06744e-09
1.14652e-10
-1.17293e-09
2.08608e-10
-1.27344e-09
3.1927e-10
-1.3649e-09
4.49931e-10
-1.44126e-09
5.98694e-10
-1.48352e-09
7.46508e-10
-1.45637e-09
8.79933e-10
-1.36714e-09
1.00463e-09
-1.25475e-09
1.12276e-09
-1.12172e-09
1.24831e-09
-9.93266e-10
1.38275e-09
-8.48824e-10
1.51894e-09
-6.6901e-10
1.64514e-09
-4.41084e-10
1.74903e-09
-1.61673e-10
1.81871e-09
1.66634e-10
1.84304e-09
5.3652e-10
1.81267e-09
9.35511e-10
1.72158e-09
1.34606e-09
1.56829e-09
1.74701e-09
1.35644e-09
2.11599e-09
1.09435e-09
2.43237e-09
7.93799e-10
2.67946e-09
4.6862e-10
2.84573e-09
1.33399e-10
2.92465e-09
2.91395e-09
-1.97253e-10
-2.20326e-12
1.7412e-11
-8.34041e-12
3.72675e-11
-1.82539e-11
5.57624e-11
-3.14494e-11
6.95336e-11
-4.7308e-11
7.69232e-11
-6.52418e-11
7.79214e-11
-8.4747e-11
7.31466e-11
-1.05395e-10
6.3175e-11
-1.26796e-10
4.82578e-11
-1.48566e-10
2.82953e-11
-1.70287e-10
2.91643e-12
-1.91485e-10
-2.84238e-11
-2.11607e-10
-6.63598e-11
-2.30015e-10
-1.1155e-10
-2.4597e-10
-1.64619e-10
-2.58633e-10
-2.26104e-10
-2.67064e-10
-2.96393e-10
-2.70243e-10
-3.75669e-10
-2.67091e-10
-4.63843e-10
-2.56514e-10
-5.60492e-10
-2.37455e-10
-6.64804e-10
-2.08955e-10
-7.75547e-10
-1.70201e-10
-8.91086e-10
-1.20537e-10
-1.00947e-09
-5.93683e-11
-1.12861e-09
1.40799e-11
-1.24637e-09
1.01112e-10
-1.36047e-09
2.03719e-10
-1.4675e-09
3.29544e-10
-1.56708e-09
4.82485e-10
-1.63646e-09
6.28306e-10
-1.60219e-09
7.50285e-10
-1.48912e-09
8.69008e-10
-1.37348e-09
9.85759e-10
-1.23847e-09
1.12456e-09
-1.13206e-09
1.28677e-09
-1.01104e-09
1.45758e-09
-8.39821e-10
1.62051e-09
-6.04009e-10
1.76122e-09
-3.02385e-10
1.8657e-09
6.215e-11
1.91994e-09
4.82287e-10
1.91112e-09
9.44324e-10
1.83018e-09
1.42701e-09
1.67406e-09
1.90313e-09
1.44679e-09
2.34326e-09
1.15879e-09
2.72036e-09
8.25028e-10
3.01323e-09
4.62682e-10
3.20807e-09
8.93711e-11
3.29796e-09
3.281e-09
-2.77688e-10
-2.44414e-12
1.9856e-11
-9.27959e-12
4.41021e-11
-2.03071e-11
6.6789e-11
-3.49916e-11
8.42172e-11
-5.26799e-11
9.46106e-11
-7.2763e-11
9.80044e-11
-9.47301e-11
9.51151e-11
-1.18157e-10
8.66045e-11
-1.42669e-10
7.27707e-11
-1.67893e-10
5.35201e-11
-1.9343e-10
2.84523e-11
-2.18818e-10
-3.03673e-12
-2.43512e-10
-4.16653e-11
-2.66868e-10
-8.8193e-11
-2.88128e-10
-1.43359e-10
-3.06415e-10
-2.07819e-10
-3.20728e-10
-2.82081e-10
-3.29963e-10
-3.66435e-10
-3.32934e-10
-4.60873e-10
-3.28423e-10
-5.65003e-10
-3.15251e-10
-6.77976e-10
-2.92364e-10
-7.98434e-10
-2.58937e-10
-9.24511e-10
-2.14464e-10
-1.05395e-09
-1.58744e-10
-1.18433e-09
-9.16842e-11
-1.31344e-09
-1.28696e-11
-1.43929e-09
7.79593e-11
-1.55833e-09
1.8666e-10
-1.67578e-09
3.4211e-10
-1.79191e-09
4.76985e-10
-1.73707e-09
5.53406e-10
-1.56554e-09
6.72602e-10
-1.49267e-09
7.76416e-10
-1.34228e-09
9.40888e-10
-1.29654e-09
1.14605e-09
-1.2162e-09
1.35725e-09
-1.05102e-09
1.56109e-09
-8.07847e-10
1.74413e-09
-4.85431e-10
1.89105e-09
-8.47697e-11
1.98433e-09
3.89013e-10
2.00585e-09
9.22802e-10
1.94151e-09
1.49136e-09
1.78557e-09
2.05907e-09
1.54243e-09
2.5864e-09
1.22561e-09
3.03719e-09
8.54496e-10
3.38434e-09
4.5075e-10
3.61182e-09
3.55486e-11
3.71316e-09
3.6878e-09
-3.71251e-10
-2.66972e-12
2.25251e-11
-1.01585e-11
5.15902e-11
-2.22254e-11
7.88553e-11
-3.82999e-11
1.00291e-10
-5.77016e-11
1.14012e-10
-7.98093e-11
1.20113e-10
-1.04116e-10
1.19423e-10
-1.30211e-10
1.12702e-10
-1.57744e-10
1.00304e-10
-1.86369e-10
8.21451e-11
-2.15716e-10
5.77976e-11
-2.45348e-10
2.65962e-11
-2.74745e-10
-1.22675e-11
-3.03272e-10
-5.96661e-11
-3.30164e-10
-1.16467e-10
-3.54516e-10
-1.83469e-10
-3.75271e-10
-2.61326e-10
-3.91235e-10
-3.50472e-10
-4.01093e-10
-4.51016e-10
-4.03454e-10
-5.62642e-10
-3.96931e-10
-6.84499e-10
-3.80249e-10
-8.15115e-10
-3.52396e-10
-9.52362e-10
-3.12803e-10
-1.09354e-09
-2.61488e-10
-1.23564e-09
-1.99018e-10
-1.37591e-09
-1.25915e-10
-1.51239e-09
-4.20575e-11
-1.64219e-09
4.15667e-11
-1.7594e-09
1.73115e-10
-1.92346e-09
2.88113e-10
-1.85207e-09