/*--------------------------------*- C++ -*----------------------------------*\
| =========                 |                                                 |
| \\      /  F ield         | OpenFOAM: The Open Source CFD Toolbox           |
|  \\    /   O peration     | Version:  2.4.0                                 |
|   \\  /    A nd           | Web:      www.OpenFOAM.org                      |
|    \\/     M anipulation  |                                                 |
\*---------------------------------------------------------------------------*/
FoamFile
{
    version     2.0;
    format      ascii;
    class       volScalarField;
    location    "0.26";
    object      alpha.water;
}
// * * * * * * * * * * * * * * * * * * * * * * * * * * * * * * * * * * * * * //

dimensions      [0 0 0 0 0 0 0];

internalField   nonuniform List<scalar> 
60000
(
1
1
1
1
1
1
1
1
1
1
1
1
1
1
1
1
1
1
1
1
1
1
1
1
1
1
1
1
1
1
1
1
1
1
1
1
1
1
1
1
1
1
1
1
1
1
1
1
1
1
1
1
1
1
1
1
1
1
1
1
1
1
1
1
1
1
1
1
1
1
1
1
1
1
1
1
1
1
1
1
1
1
1
1
1
1
1
1
1
1
1
1
1
1
1
1
1
1
1
1
1
1
1
1
1
1
1
1
1
1
1
1
1
1
1
1
1
1
1
1
1
1
1
1
1
1
1
1
1
1
1
1
1
1
1
1
1
1
1
1
1
1
1
1
1
1
1
1
1
1
1
1
1
1
1
1
1
1
1
1
1
1
1
1
1
1
1
1
1
1
1
1
1
1
1
1
1
1
1
1
1
1
1
1
1
1
1
1
1
1
1
1
1
1
1
1
1
1
1
1
1
1
1
1
1
1
1
1
1
1
1
1
1
1
1
1
1
1
1
1
1
1
1
1
1
1
1
1
1
1
1
1
1
1
1
1
1
1
1
1
1
1
1
1
1
1
1
1
1
1
1
1
1
1
1
1
1
1
1
1
1
1
1
1
1
1
1
1
1
1
1
1
1
1
1
1
1
1
1
1
1
1
1
1
1
1
1
1
1
1
1
1
1
1
1
1
1
1
1
1
1
1
1
1
1
1
1
1
1
1
1
1
1
1
1
1
1
1
1
1
1
1
1
1
1
1
1
1
1
1
1
1
1
1
1
1
1
1
1
1
1
1
1
1
1
1
1
1
1
1
1
1
1
1
1
1
1
1
1
1
1
1
1
1
1
1
1
1
1
1
1
1
1
1
1
1
1
1
1
1
1
1
1
1
1
1
1
1
1
1
1
1
1
1
1
1
1
1
1
1
1
1
1
1
1
1
1
1
1
1
1
1
1
1
1
1
1
1
1
1
1
1
1
1
1
1
1
1
1
1
1
1
1
1
1
1
1
1
1
1
1
1
1
1
1
1
1
1
1
1
1
1
1
1
1
1
1
1
1
1
1
1
1
1
1
1
1
1
1
1
1
1
1
1
1
1
1
1
1
1
1
1
1
1
1
1
1
1
1
1
1
1
1
1
1
1
1
1
1
1
1
1
1
1
1
1
1
1
1
1
1
1
1
1
1
1
1
1
1
1
1
1
1
1
1
1
1
1
1
1
1
1
1
1
1
1
1
1
1
1
1
1
1
1
1
1
1
1
1
1
1
1
1
1
1
1
1
1
1
1
1
1
1
1
1
1
1
1
1
1
1
1
1
1
1
1
1
1
1
1
1
1
1
1
1
1
1
1
1
1
1
1
1
1
1
1
1
1
1
1
1
1
1
1
1
1
1
1
1
1
1
1
1
1
1
1
1
1
1
1
1
1
1
1
1
1
1
1
1
1
1
1
1
1
1
1
1
1
1
1
1
1
1
1
1
1
1
1
1
1
1
1
1
1
1
1
1
1
1
1
1
1
1
1
1
1
1
1
1
1
1
1
1
1
1
1
1
1
1
1
1
1
1
1
1
1
1
1
1
1
1
1
1
1
1
1
1
1
1
1
1
1
1
1
1
1
1
1
1
1
1
1
1
1
1
1
1
1
1
1
1
1
1
1
1
1
1
1
1
1
1
1
1
1
1
1
1
1
1
1
1
1
1
1
1
1
1
1
1
1
1
1
1
1
1
1
1
1
1
1
1
1
1
1
1
1
1
1
1
1
1
1
1
1
1
1
1
1
1
1
1
1
1
1
1
1
1
1
1
1
1
1
1
1
1
1
1
1
1
1
1
1
1
1
1
1
1
1
1
1
1
1
1
1
1
1
1
1
1
1
1
1
1
1
1
1
1
1
1
1
1
1
1
1
1
1
1
1
1
1
1
1
1
1
1
1
1
1
1
1
1
1
1
1
1
1
1
1
1
1
1
1
1
1
1
1
1
1
1
1
1
1
1
1
1
1
1
1
1
1
1
1
1
1
1
1
1
1
1
1
1
1
1
1
1
1
1
1
1
1
1
1
1
1
1
1
1
1
1
1
1
1
1
1
1
1
1
1
1
1
1
1
1
1
1
1
1
1
1
1
1
1
1
1
1
1
1
1
1
1
1
1
1
1
1
1
1
1
1
1
1
1
1
1
1
1
1
1
1
1
1
1
1
1
1
1
1
1
1
1
1
1
1
1
1
1
1
1
1
1
1
1
1
1
1
1
1
1
1
1
1
1
1
1
1
1
1
1
1
1
1
1
1
1
1
1
1
1
1
1
1
1
1
1
1
1
1
1
1
1
1
1
1
1
1
1
1
1
1
1
1
1
1
1
1
1
1
1
1
1
1
1
1
1
1
1
1
1
1
1
1
1
1
1
1
1
1
1
1
1
1
1
1
1
1
1
1
1
1
1
1
1
1
1
1
1
1
1
1
1
1
1
1
1
1
1
1
1
1
1
1
1
1
1
1
1
1
1
1
1
1
1
1
1
1
1
1
1
1
1
1
1
1
1
1
1
1
1
1
1
1
1
1
1
1
1
1
1
1
1
1
1
1
1
1
1
1
1
1
1
1
1
1
1
1
1
1
1
1
1
1
1
1
1
1
1
1
1
1
1
1
1
1
1
1
1
1
1
1
1
1
1
1
1
1
1
1
1
1
1
1
1
1
1
1
1
1
1
1
1
1
1
1
1
1
1
1
1
1
1
1
1
1
1
1
1
1
1
1
1
1
1
1
1
1
1
1
1
1
1
1
1
1
1
1
1
1
1
1
1
1
1
1
1
1
1
1
1
1
1
1
1
1
1
1
1
1
1
1
1
1
1
1
1
1
1
1
1
1
1
1
1
1
1
1
1
1
1
1
1
1
1
1
1
1
1
1
1
1
1
1
1
1
1
1
1
1
1
1
1
1
1
1
1
1
1
1
1
1
1
1
1
1
1
1
1
1
1
1
1
1
1
1
1
1
1
1
1
1
1
1
1
1
1
1
1
1
1
1
1
1
1
1
1
1
1
1
1
1
1
1
1
1
1
1
1
1
1
1
1
1
1
1
1
1
1
1
1
1
1
1
1
1
1
1
1
1
1
1
1
1
1
1
1
1
1
1
1
1
1
1
1
1
1
1
1
1
1
1
1
1
1
1
1
1
1
1
1
1
1
1
1
1
1
1
1
1
1
1
1
1
1
1
1
1
1
1
1
1
1
1
1
1
1
1
1
1
1
1
1
1
1
1
1
1
1
1
1
1
1
1
1
1
1
1
1
1
1
1
1
1
1
1
1
1
1
1
1
1
1
1
1
1
1
1
1
1
1
1
1
1
1
1
1
1
1
1
1
1
1
1
1
1
1
1
1
1
1
1
1
1
1
1
1
1
1
1
1
1
1
1
1
1
1
1
1
1
1
1
1
1
1
1
1
1
1
1
1
1
1
1
1
1
1
1
1
1
1
1
1
1
1
1
1
1
1
1
1
1
1
1
1
1
1
1
1
1
1
1
1
1
1
1
1
1
1
1
1
1
1
1
1
1
1
1
1
1
1
1
1
1
1
1
1
1
1
1
1
1
1
1
1
1
1
1
1
1
1
1
1
1
1
1
1
1
1
1
1
1
1
1
1
1
1
1
1
1
1
1
1
1
1
1
1
1
1
1
1
1
1
1
1
1
1
1
1
1
1
1
1
1
1
1
1
1
1
1
1
1
1
1
1
1
1
1
1
1
1
1
1
1
1
1
1
1
1
1
1
1
1
1
1
1
1
1
1
1
1
1
1
1
1
1
1
1
1
1
1
1
1
1
1
1
1
1
1
1
1
1
1
1
1
1
1
1
1
1
1
1
1
1
1
1
1
1
1
1
1
1
1
1
1
1
1
1
1
1
1
1
1
1
1
1
1
1
1
1
1
1
1
1
1
1
1
1
1
1
1
1
1
1
1
1
1
1
1
1
1
1
1
1
1
1
1
1
1
1
1
1
1
1
1
1
1
1
1
1
1
1
1
1
1
1
1
1
1
1
1
1
1
1
1
1
1
1
1
1
1
1
1
1
1
1
1
1
1
1
1
1
1
1
1
1
1
1
1
1
1
1
1
1
1
1
1
1
1
1
1
1
1
1
1
1
1
1
1
1
1
1
1
1
1
1
1
1
1
1
1
1
1
1
1
1
1
1
1
1
1
1
1
1
1
1
1
1
1
1
1
1
1
1
1
1
1
1
1
1
1
1
1
1
1
1
1
1
1
1
1
1
1
1
1
1
1
1
1
1
1
1
1
1
1
1
1
1
1
1
1
1
1
1
1
1
1
1
1
1
1
1
1
1
1
1
1
1
1
1
1
1
1
1
1
1
1
1
1
1
1
1
1
1
1
1
1
1
1
1
1
1
1
1
1
1
1
1
1
1
1
1
1
1
1
1
1
1
1
1
1
1
1
1
1
1
1
1
1
1
1
1
1
1
1
1
1
1
1
1
1
1
1
1
1
1
1
1
1
1
1
1
1
1
1
1
1
1
1
1
1
1
1
1
1
1
1
1
1
1
1
1
1
1
1
1
1
1
1
1
1
1
1
1
1
1
1
1
1
1
1
1
1
1
1
1
1
1
1
1
1
1
1
1
1
1
1
1
1
1
1
1
1
1
1
1
1
1
1
1
1
1
1
1
1
1
1
1
1
1
1
1
1
1
1
1
1
1
1
1
1
1
1
1
1
1
1
1
1
1
1
1
1
1
1
1
1
1
1
1
1
1
1
1
1
1
1
1
1
1
1
1
1
1
1
1
1
1
1
1
1
1
1
1
1
1
1
1
1
1
1
1
1
1
1
1
1
1
1
1
1
1
1
1
1
1
1
1
1
1
1
1
1
1
1
1
1
1
1
1
1
1
1
1
1
1
1
1
1
1
1
1
1
1
1
1
1
1
1
1
1
1
1
1
1
1
1
1
1
1
1
1
1
1
1
1
1
1
1
1
1
1
1
1
1
1
1
1
1
1
1
1
1
1
1
1
1
1
1
1
1
1
1
1
1
1
1
1
1
1
1
1
1
1
1
1
1
1
1
1
1
1
1
1
1
1
1
1
1
1
1
1
1
1
1
1
1
1
1
1
1
1
1
1
1
1
1
1
1
1
1
1
1
1
1
1
1
1
1
1
1
1
1
1
1
1
1
1
1
1
1
1
1
1
1
1
1
1
1
1
1
1
1
1
1
1
1
1
1
1
1
1
1
1
1
1
1
1
1
1
1
1
1
1
1
1
1
1
1
1
1
1
1
1
1
1
1
1
1
1
1
1
1
1
1
1
1
1
1
1
1
1
1
1
1
1
1
1
1
1
1
1
1
1
1
1
1
1
1
1
1
1
1
1
1
1
1
1
1
1
1
1
1
1
1
1
1
1
1
1
1
1
1
1
1
1
1
1
1
1
1
1
1
1
1
1
1
1
1
1
1
1
1
1
1
1
1
1
1
1
1
1
1
1
1
1
1
1
1
1
1
1
1
1
1
1
1
1
1
1
1
1
1
1
1
1
1
1
1
1
1
1
1
1
1
1
1
1
1
1
1
1
1
1
1
1
1
1
1
1
1
1
1
1
1
1
1
1
1
1
1
1
1
1
1
1
1
1
1
1
1
1
1
1
0.999999
0.999998
1
1
1
1
1
1
1
1
1
1
1
1
1
1
1
1
1
1
1
1
1
1
1
1
1
1
1
1
1
1
1
1
1
1
1
1
1
1
1
1
1
1
1
1
1
1
1
1
1
1
1
1
1
1
1
1
1
1
1
1
1
1
1
1
1
1
1
1
1
1
1
1
1
1
1
1
1
1
1
1
1
1
1
1
1
1
1
1
1
1
1
1
1
1
1
1
1
1
1
0.999997
0.999986
0.999984
0.999995
1
1
1
1
1
1
1
1
1
1
1
1
1
1
1
1
1
1
1
1
1
1
1
1
1
1
1
1
1
1
1
1
1
1
1
1
1
1
1
1
1
1
1
1
1
1
1
1
1
1
1
1
1
1
1
1
1
1
1
1
1
1
1
1
1
1
1
1
1
1
1
1
1
1
1
1
1
1
1
1
1
1
1
1
1
1
1
1
1
1
1
1
1
1
1
1
1
0.999973
0.999907
0.999905
0.999927
0.999957
0.999958
0.999954
1
1
1
1
1
1
1
1
1
1
1
1
1
1
1
1
1
1
1
1
1
1
1
1
1
1
1
1
1
1
1
1
1
1
1
1
1
1
1
1
1
1
1
1
1
1
1
1
1
1
1
1
1
1
1
1
1
1
1
1
1
1
1
1
1
1
1
1
1
1
1
1
1
1
1
1
1
1
1
1
1
1
1
1
1
1
1
1
1
1
1
1
1
1
0.999981
0.999858
0.999827
0.999827
0.999827
0.999827
1
1
1
1
1
1
1
1
1
1
1
1
1
1
1
1
1
1
1
1
1
1
1
1
1
1
1
1
1
1
1
1
1
1
1
1
1
1
1
1
1
1
1
1
1
1
1
1
1
1
1
1
1
1
1
1
1
1
1
1
1
1
1
1
1
1
1
1
1
1
1
1
1
1
1
1
1
1
1
1
1
1
1
1
1
1
1
1
1
1
1
1
1
1
1
1
0.999986
0.999913
0.99983
0.999827
1
1
1
1
1
1
1
1
1
1
1
1
1
1
1
1
1
1
1
1
1
1
1
1
1
1
1
1
1
1
1
1
1
1
1
1
1
1
1
1
1
1
1
1
1
1
1
1
1
1
1
1
1
1
1
1
1
1
1
1
1
1
1
1
1
1
1
1
1
1
1
1
1
1
1
1
1
1
1
1
1
1
1
1
1
1
1
1
1
1
1
1
1
1
1
1
1
1
0.999998
0.999962
1
1
1
1
1
1
1
1
1
1
1
1
1
1
1
1
1
1
1
1
1
1
1
1
1
1
1
1
1
1
1
1
1
1
1
1
1
1
1
1
1
1
1
1
1
1
1
1
1
1
1
1
1
1
1
1
1
1
1
1
1
1
1
1
1
1
1
1
1
1
1
1
1
1
1
1
1
1
1
1
1
1
1
1
1
1
1
1
1
1
1
1
1
1
1
1
1
1
1
1
1
1
1
1
1
1
1
1
1
1
1
1
1
1
1
1
1
1
1
1
1
1
1
1
1
1
1
1
1
1
1
1
1
1
1
1
1
1
1
1
1
1
1
1
1
1
1
1
1
1
1
1
1
1
1
1
1
1
1
1
1
1
1
1
1
1
1
1
1
1
1
1
1
1
1
1
1
1
1
1
1
1
1
1
1
1
1
1
1
1
1
1
1
1
1
1
1
1
1
1
1
1
1
1
1
1
1
1
1
1
1
1
1
1
1
1
1
1
1
1
1
1
1
1
1
1
1
1
1
1
1
1
1
1
1
1
1
1
1
1
1
1
1
1
1
1
1
1
1
1
1
1
1
1
1
1
1
1
1
1
1
1
1
1
1
1
1
1
1
1
1
1
1
1
1
1
1
1
1
1
1
1
1
1
1
1
1
1
1
1
1
1
1
1
1
1
1
1
1
0.999994
1
1
1
1
1
1
1
1
1
1
1
1
1
1
1
1
1
1
1
1
1
1
1
1
1
1
1
1
1
1
1
1
1
1
1
1
1
1
1
1
1
1
1
1
1
1
1
1
1
1
1
1
1
1
1
1
1
1
1
1
1
1
1
1
1
1
1
1
1
1
1
1
1
1
1
1
1
1
1
1
1
1
1
1
1
1
1
1
1
1
1
1
1
1
1
1
1
0.998351
0.975315
0.78378
1
1
1
1
1
1
1
1
1
1
1
1
1
1
1
1
1
1
1
1
1
1
1
1
1
1
1
1
1
1
1
1
1
1
1
1
1
1
1
1
1
1
1
1
1
1
1
1
1
1
1
1
1
1
1
1
1
1
1
1
1
1
1
1
1
1
1
1
1
1
1
1
1
1
1
1
1
1
1
1
1
1
1
1
1
0.999999
0.999999
0.999999
0.999999
1
1
1
0.999999
0.999999
1
1
0.930825
0.626917
0.271829
0.0108321
1
1
1
1
1
1
1
1
1
1
1
1
1
1
1
1
1
1
1
1
1
1
1
1
1
1
1
1
1
1
1
1
1
1
1
1
1
1
1
1
1
1
1
1
1
1
1
1
1
1
1
1
1
1
1
1
1
1
1
1
1
1
1
1
1
1
1
1
1
1
1
1
1
1
1
1
1
1
1
1
1
1
1
0.999998
0.999991
0.999982
0.999978
0.99998
0.999985
0.999985
0.999983
0.999982
0.995905
0.954475
0.81425
0.523988
0.167725
0.00155478
1.94643e-06
8.58119e-07
1
1
1
1
1
1
1
1
1
1
1
1
1
1
1
1
1
1
1
1
1
1
1
1
1
1
1
1
1
1
1
1
1
1
1
1
1
1
1
1
1
1
1
1
1
1
1
1
1
1
1
1
1
1
1
1
1
1
1
1
1
1
1
1
1
1
1
1
1
1
1
1
1
1
1
1
1
1
1
1
1
1
0.999998
0.999945
0.999771
0.999579
0.999222
0.996469
0.991533
0.97562
0.931358
0.845879
0.648251
0.376795
0.128282
0.0110452
5.64535e-06
9.98158e-07
8.04525e-07
8.34003e-07
1
1
1
1
1
1
1
1
1
1
1
1
1
1
1
1
1
1
1
1
1
1
1
1
1
1
1
1
1
1
1
1
1
1
1
1
1
1
1
1
1
1
1
1
1
1
1
1
1
1
1
1
1
1
1
1
1
1
1
1
1
1
1
1
1
1
1
1
1
1
1
1
1
1
1
1
1
1
1
1
1
1
0.99994
0.972018
0.847463
0.707059
0.595526
0.512306
0.455038
0.366057
0.237714
0.108467
0.00222529
8.69871e-07
2.82876e-07
1.86117e-06
1.77216e-06
5.07561e-07
7.7243e-07
3.09091e-06
1
1
1
1
1
1
1
1
1
1
1
1
1
1
1
1
1
1
1
1
1
1
1
1
1
1
1
1
1
1
1
1
1
1
1
1
1
1
1
1
1
1
1
1
1
1
1
1
1
1
1
1
1
1
1
1
1
1
1
1
1
1
1
1
1
1
1
1
1
1
1
1
1
1
1
1
1
1
1
1
1
0.999982
0.79949
0.363843
0.117857
0.0280456
7.03787e-07
5.63716e-07
5.40114e-07
5.1514e-07
5.04707e-07
4.97396e-07
3.68394e-07
6.36836e-07
2.44847e-07
2.79944e-07
4.64577e-07
5.08748e-07
8.27809e-06
1.05577e-05
1
1
1
1
1
1
1
1
1
1
1
1
1
1
1
1
1
1
1
1
1
1
1
1
1
1
1
1
1
1
1
1
1
1
1
1
1
1
1
1
1
1
1
1
1
1
1
1
1
1
1
1
1
1
1
1
1
1
1
1
1
1
1
1
1
1
1
1
1
1
1
1
1
1
1
1
1
1
1
1
0.999997
0.768296
0.118435
8.53914e-05
3.95585e-06
6.9906e-07
5.63689e-07
5.49496e-07
5.3608e-07
5.22075e-07
5.12491e-07
4.99604e-07
2.45141e-07
2.44086e-07
2.44254e-07
2.44415e-07
1.98217e-06
1.04322e-05
1.04819e-05
7.78268e-06
1
1
1
1
1
1
1
1
1
1
1
1
1
1
1
1
1
1
1
1
1
1
1
1
1
1
1
1
1
1
1
1
1
1
1
1
1
1
1
1
1
1
1
1
1
1
1
1
1
1
1
1
1
1
1
1
1
1
1
1
1
1
1
1
1
1
1
1
1
1
1
1
1
1
1
1
1
1
1
1
0.905121
0.240837
0.000468516
2.6166e-05
1.96519e-06
8.61543e-07
7.13038e-07
5.63756e-07
1.09671e-06
1.83324e-06
2.41318e-06
1.05398e-06
2.44062e-07
2.44058e-07
2.44099e-07
6.18317e-06
1.10473e-05
1.10378e-05
4.82544e-06
5.48964e-08
1
1
1
1
1
1
1
1
1
1
1
1
1
1
1
1
1
1
1
1
1
1
1
1
1
1
1
1
1
1
1
1
1
1
1
1
1
1
1
1
1
1
1
1
1
1
1
1
1
1
1
1
1
1
1
1
1
1
1
1
1
1
1
1
1
1
1
1
1
1
1
1
1
1
1
1
1
1
1
0.99927
0.503264
0.0286714
0.000174069
1.21564e-05
3.0421e-06
2.44834e-06
3.78686e-06
7.88367e-06
3.43384e-06
2.85555e-06
2.41636e-06
6.79636e-07
2.45106e-07
6.59385e-07
9.03378e-06
1.10236e-05
1.10316e-05
1.84724e-06
5.72706e-08
5.42365e-08
1
1
1
1
1
1
1
1
1
1
1
1
1
1
1
1
1
1
1
1
1
1
1
1
1
1
1
1
1
1
1
1
1
1
1
1
1
1
1
1
1
1
1
1
1
1
1
1
1
1
1
1
1
1
1
1
1
1
1
1
1
1
1
1
1
1
1
1
1
1
1
1
1
1
1
1
1
1
0.999998
0.792342
0.119145
0.000241424
1.94507e-05
7.63931e-06
7.29521e-06
1.04404e-05
1.7275e-05
1.71598e-05
1.17081e-05
1.08312e-06
1.05958e-06
1.0288e-06
3.5531e-06
1.06775e-05
1.06775e-05
9.20499e-06
3.46322e-07
1.60128e-07
5.98668e-08
4.91755e-07
1
1
1
1
1
1
1
1
1
1
1
1
1
1
1
1
1
1
1
1
1
1
1
1
1
1
1
1
1
1
1
1
1
1
1
1
1
1
1
1
1
1
1
1
1
1
1
1
1
1
1
1
1
1
1
1
1
1
1
1
1
1
1
1
1
1
1
1
1
1
1
1
1
1
1
1
1
0.999999
0.988228
0.395613
0.00471321
5.21587e-05
8.91532e-06
8.94221e-06
1.25878e-05
1.72827e-05
1.72788e-05
1.71245e-05
5.25632e-06
1.09404e-06
1.14095e-06
5.51673e-06
1.06053e-05
1.06458e-05
7.00743e-06
1.86161e-06
2.52802e-06
7.96878e-06
7.71711e-06
1.13701e-06
1
1
1
1
1
1
1
1
1
1
1
1
1
1
1
1
1
1
1
1
1
1
1
1
1
1
1
1
1
1
1
1
1
1
1
1
1
1
1
1
1
1
1
1
1
1
1
1
1
1
1
1
1
1
1
1
1
1
1
1
1
1
1
1
1
1
1
1
1
1
1
1
1
1
1
1
1
0.999988
0.687706
0.0465921
9.59178e-05
9.10251e-06
6.55837e-06
9.52767e-06
1.72763e-05
1.72858e-05
1.72485e-05
5.52863e-06
1.18859e-06
1.16282e-06
5.76507e-06
1.05465e-05
1.05911e-05
5.88391e-06
2.38577e-06
4.19707e-06
1.77137e-05
1.91247e-05
1.89781e-05
4.38618e-07
1
1
1
1
1
1
1
1
1
1
1
1
1
1
1
1
1
1
1
1
1
1
1
1
1
1
1
1
1
1
1
1
1
1
1
1
1
1
1
1
1
1
1
1
1
1
1
1
1
1
1
1
1
1
1
1
1
1
1
1
1
1
1
1
1
1
1
1
1
1
1
1
1
1
1
1
0.999993
0.939924
0.23896
0.000651374
2.82085e-05
6.0917e-06
6.15476e-06
1.72505e-05
1.72672e-05
1.72881e-05
4.61547e-06
1.26434e-06
1.24369e-06
5.46805e-06
1.04224e-05
1.04135e-05
4.51365e-06
3.17357e-06
6.25469e-06
1.8698e-05
1.87315e-05
1.54805e-05
3.5485e-06
5.05552e-06
1
1
1
1
1
1
1
1
1
1
1
1
1
1
1
1
1
1
1
1
1
1
1
1
1
1
1
1
1
1
1
1
1
1
1
1
1
1
1
1
1
1
1
1
1
1
1
1
1
1
1
1
1
1
1
1
1
1
1
1
1
1
1
1
1
1
1
1
1
1
1
1
1
1
1
0.999997
0.999857
0.482715
0.00216389
2.86974e-05
7.23246e-06
7.8114e-06
4.55038e-06
6.99379e-06
1.08349e-05
4.62459e-06
1.37828e-06
1.341e-06
5.93016e-06
9.8513e-06
9.58311e-06
3.50254e-06
3.43026e-06
6.74042e-06
1.85636e-05
1.87315e-05
1.12937e-05
1.33853e-06
2.67065e-06
1.20711e-05
1
1
1
1
1
1
1
1
1
1
1
1
1
1
1
1
1
1
1
1
1
1
1
1
1
1
1
1
1
1
1
1
1
1
1
1
1
1
1
1
1
1
1
1
1
1
1
1
1
1
1
1
1
1
1
1
1
1
1
1
1
1
1
1
1
1
1
1
1
1
1
1
1
1
0.999998
0.999952
0.732776
0.0699106
0.000145724
8.52317e-06
5.20453e-06
2.98136e-06
9.08717e-07
9.19125e-07
1.06368e-06
1.17139e-06
2.95536e-06
7.92861e-06
7.9286e-06
7.04606e-06
2.17601e-06
2.4383e-06
8.08216e-06
1.82434e-05
1.85354e-05
8.54982e-06
1.1687e-06
1.4688e-06
1.05977e-05
1.20913e-05
0.999997
1
0.999997
1
1
1
1
1
1
1
1
1
1
1
1
1
1
1
1
1
1
1
1
1
1
1
1
1
1
1
1
1
1
1
1
1
1
1
1
1
1
1
1
1
1
1
1
1
1
1
1
1
1
1
1
1
1
1
1
1
1
1
1
1
1
1
1
1
1
1
1
1
1
0.999997
0.999946
0.916776
0.186177
0.000146103
9.55988e-06
5.55498e-06
3.81948e-06
9.08688e-07
9.0866e-07
9.08668e-07
1.21286e-06
6.82432e-06
7.8821e-06
7.92118e-06
5.62579e-06
1.59012e-06
1.8372e-06
9.58522e-06
1.79761e-05
1.78677e-05
6.57012e-06
1.13123e-06
1.50896e-06
9.88451e-06
1.14566e-05
8.48653e-06
0.997141
0.999971
0.999872
0.999988
1
1
1
1
1
1
1
1
1
1
1
1
1
1
1
1
1
1
1
1
1
1
1
1
1
1
1
1
1
1
1
1
1
1
1
1
1
1
1
1
1
1
1
1
1
1
1
1
1
1
1
1
1
1
1
1
1
1
1
1
1
1
1
1
1
1
1
0.999999
0.999995
0.999937
0.999085
0.362035
0.000470553
6.35084e-06
1.02717e-05
2.80712e-06
9.28198e-07
9.12056e-07
9.08696e-07
4.00993e-06
7.7309e-06
7.75855e-06
7.81839e-06
4.63879e-06
1.57318e-06
1.59785e-06
1.08075e-05
1.74657e-05
1.71516e-05
5.07466e-06
1.09035e-06
1.23579e-06
8.30225e-06
1.0526e-05
8.32975e-06
7.20175e-09
0.715922
0.890318
0.887407
0.968161
0.999924
1
1
1
1
1
1
1
1
1
1
1
1
1
1
1
1
1
1
1
1
1
1
1
1
1
1
1
1
1
1
1
1
1
1
1
1
1
1
1
1
1
1
1
1
1
1
1
1
1
1
1
1
1
1
1
1
1
1
1
1
1
1
1
1
0.999999
0.999996
0.999986
0.99991
0.99907
0.508636
0.00328264
1.08031e-05
4.33843e-07
2.92532e-07
2.09919e-06
9.35373e-07
9.15449e-07
4.16745e-06
7.64186e-06
7.68639e-06
6.35624e-06
1.40931e-06
8.04583e-07
1.77477e-06
1.15311e-05
1.69455e-05
1.62928e-05
3.85856e-06
1.11153e-06
1.12091e-06
5.80942e-06
8.16779e-06
5.41657e-06
4.93159e-09
5.04264e-09
0.493719
0.595003
0.715227
0.828268
0.992155
0.99999
1
1
1
1
1
1
1
1
1
1
1
1
1
1
1
1
1
1
1
1
1
1
1
1
1
1
1
1
1
1
1
1
1
1
1
1
1
1
1
1
1
1
1
1
1
1
1
1
1
1
1
1
1
1
1
1
1
1
1
1
1
0.999999
0.999997
0.999988
0.999949
0.999821
0.998513
0.586196
0.0188849
-9.95512e-07
4.10406e-07
1.86602e-07
2.22565e-07
5.33818e-07
9.08852e-07
2.36175e-06
3.26477e-06
4.26053e-06
2.43071e-06
4.55746e-07
3.1168e-07
8.0091e-07
1.09456e-05
1.5957e-05
1.48362e-05
3.06654e-06
2.12591e-06
2.97447e-06
6.29896e-06
6.16015e-06
2.2764e-06
4.82548e-09
4.84637e-09
1.25499e-08
0.493719
0.526313
0.665875
0.637584
0.897754
0.999899
0.999999
1
1
1
1
1
1
1
1
1
1
1
1
1
1
1
1
1
1
1
1
1
1
1
1
1
1
1
1
1
1
1
1
1
1
1
1
1
1
1
1
1
1
1
1
1
1
1
1
1
1
1
1
1
1
1
1
1
1
0.999999
0.999998
0.999991
0.999968
0.999865
0.999393
0.979988
0.559926
0.0165268
2.56405e-07
2.41793e-07
2.02181e-07
1.68495e-07
1.62247e-07
5.56729e-07
8.09643e-07
7.55907e-07
2.62651e-07
6.94143e-08
7.68691e-08
1.25772e-07
2.77287e-07
8.32629e-06
1.35971e-05
1.19863e-05
2.561e-06
2.68836e-06
5.2735e-06
7.38091e-06
7.36933e-06
1.86622e-06
4.82837e-09
4.82104e-09
4.85024e-09
5.56215e-09
0.504036
0.777493
0.48807
0.302995
0.715471
0.998277
0.999958
0.999957
1
1
1
1
1
1
1
1
1
1
1
1
1
1
1
1
1
1
1
1
1
1
1
1
1
1
1
1
1
1
1
1
1
1
1
1
1
1
1
1
1
1
1
1
1
1
1
1
1
1
1
1
1
1
1
1
0.999999
0.999994
0.999976
0.999899
0.999657
0.998463
0.873068
0.385891
1.05795e-05
2.57962e-07
2.48573e-07
2.50765e-07
1.68488e-07
1.62186e-07
1.59196e-07
1.15883e-07
8.99775e-08
5.83005e-08
5.88455e-08
6.15398e-08
6.54116e-08
2.64403e-07
5.56424e-06
8.17601e-06
6.36765e-06
2.16144e-06
2.41669e-06
6.63078e-06
7.25623e-06
6.51316e-06
7.07478e-07
4.84273e-09
4.82948e-09
4.86911e-09
4.86074e-09
4.64337e-09
0.78866
0.78866
0.350396
0.0853635
0.451183
0.976917
0.999854
0.99991
0.999958
0.990262
0.984986
1
1
1
1
1
1
1
1
1
1
1
1
1
1
1
1
1
1
1
1
1
1
1
1
1
1
1
1
1
1
1
1
1
1
1
1
1
1
1
1
1
1
1
1
1
1
1
1
1
1
1
1
0.999997
0.999985
0.999935
0.999754
0.998944
0.968153
0.666014
0.159806
1.11739e-06
5.83725e-07
5.51503e-07
5.61533e-07
4.05095e-07
5.71853e-07
1.28121e-06
4.18169e-07
5.76468e-08
5.76148e-08
5.76529e-08
5.82687e-08
5.88673e-08
6.15416e-08
1.86705e-06
3.81192e-06
2.45347e-06
1.68593e-06
2.65662e-06
7.13491e-06
7.15551e-06
5.40648e-06
4.91434e-09
4.87129e-09
4.84726e-09
4.91518e-09
1.02035e-08
4.82003e-08
7.45747e-09
0.78866
0.609717
0.209448
0.0161046
0.0993749
0.865625
0.999585
0.999818
0.999821
0.986689
0.970053
0.971121
0.976288
0.965327
0.957417
0.978333
1
1
1
1
1
1
1
1
1
1
1
1
1
1
1
1
1
1
1
1
1
1
1
1
1
1
1
1
1
1
1
1
1
1
1
1
1
1
1
1
1
1
1
1
1
0.999999
0.999995
0.999973
0.999847
0.999354
0.996022
0.826785
0.361084
0.0232951
1.05084e-06
9.69382e-07
9.35803e-07
1.0137e-06
7.97775e-07
1.21811e-06
1.89904e-06
1.90139e-06
6.65334e-07
5.76002e-08
5.76001e-08
5.76047e-08
5.7624e-08
5.88667e-08
7.69634e-07
1.45369e-06
8.24527e-07
8.45716e-07
3.14975e-06
7.11657e-06
7.15552e-06
4.41357e-06
5.07217e-09
4.99441e-09
4.88835e-09
4.92026e-09
1.22399e-08
2.55767e-07
3.92689e-07
1.49151e-07
0.662942
0.276817
0.145865
0.00327523
0.00595856
0.47063
0.989672
0.999589
0.999581
0.996702
0.993611
0.985902
0.94683
0.830997
0.610333
0.499096
0.873181
1
1
1
1
1
1
1
1
1
1
1
1
1
1
1
1
1
1
1
1
1
1
1
1
1
1
1
1
1
1
1
1
1
1
1
1
1
1
1
1
1
1
1
0.999999
0.999991
0.99995
0.999732
0.998529
0.93272
0.58186
0.122301
1.27947e-06
1.0276e-06
1.00821e-06
9.83175e-07
9.8155e-07
1.17173e-06
2.70434e-06
3.3358e-06
3.25438e-06
8.57292e-07
5.79966e-08
5.76396e-08
5.76126e-08
5.76798e-08
2.94299e-06
4.58485e-06
3.24133e-06
8.11246e-07
8.06689e-07
1.61381e-06
6.6748e-06
7.12887e-06
3.78777e-06
7.20062e-09
5.16198e-09
5.1174e-09
5.01171e-09
5.43763e-09
1.13474e-07
4.00617e-07
4.01355e-07
2.27293e-07
0.313642
0.302491
0.243849
0.00252783
0.00166464
0.062309
0.866086
0.999
0.999458
0.998777
0.998479
0.984383
0.78826
0.405731
0.0975454
0.0167116
0.214755
0.867642
1
1
1
1
1
1
1
1
1
1
1
1
1
1
1
1
1
1
1
1
1
1
1
1
1
1
1
1
1
1
1
1
1
1
1
1
1
1
1
1
1
0.999998
0.999985
0.999908
0.999506
0.995279
0.784412
0.27603
0.00476241
1.01601e-06
9.90867e-07
1.02189e-06
1.02833e-06
1.03547e-06
1.31666e-06
2.88403e-06
3.4747e-06
3.42267e-06
1.26593e-06
6.84034e-08
6.33223e-08
5.79464e-08
8.47022e-07
6.48413e-06
6.70508e-06
6.7051e-06
1.09925e-06
8.06999e-07
1.11156e-06
4.51344e-06
6.63408e-06
2.62144e-06
2.66452e-08
9.19285e-09
5.29171e-08
7.26131e-08
7.34462e-09
2.20847e-08
3.51298e-07
3.70701e-07
1.65291e-07
9.68839e-09
0.327547
0.411544
0.291062
0.00166798
0.00117028
0.00016471
0.247806
0.928473
0.998948
0.998479
0.970186
0.672765
0.210965
0.0130222
0.00202277
0.00171468
0.00220495
0.15042
0.868907
1
1
1
1
1
1
1
1
1
1
1
1
1
1
1
1
1
1
1
1
1
1
1
1
1
1
1
1
1
1
1
1
1
1
1
1
1
1
0.999999
0.999996
0.999977
0.999846
0.99908
0.955595
0.576392
0.0986947
1.20142e-06
9.28058e-07
8.97019e-07
9.5165e-07
9.90927e-07
1.1524e-06
2.35268e-06
3.5689e-06
3.55759e-06
3.53943e-06
1.3127e-06
9.77307e-08
8.31068e-08
6.84102e-08
2.97022e-06
8.05556e-06
8.00135e-06
6.65704e-06
1.68318e-06
1.24115e-06
3.60436e-06
6.72872e-06
6.08869e-06
1.07674e-06
4.17314e-07
6.73504e-07
4.05131e-06
6.16454e-06
6.31063e-06
3.90189e-06
2.02432e-06
4.74838e-07
1.01892e-08
1.02032e-08
1.11232e-08
0.411719
0.411719
0.192695
0.0140206
0.00016499
9.5363e-05
3.11662e-05
0.244621
0.747389
0.747092
0.466523
0.102107
0.00140297
0.000341048
0.000347572
0.000822096
0.00179143
0.00220354
0.268668
0.8404
1
1
1
1
1
1
1
1
1
1
1
1
1
1
1
1
1
1
1
1
1
1
1
1
1
1
1
1
1
1
1
1
1
1
1
1
0.999999
0.999992
0.999957
0.999756
0.99844
0.865015
0.339536
0.0101893
1.22714e-06
9.30679e-07
8.97977e-07
8.82403e-07
9.24909e-07
1.41052e-06
3.43923e-06
3.57534e-06
3.57465e-06
3.56893e-06
1.51584e-06
1.57054e-07
1.22693e-07
2.96643e-07
6.39437e-06
8.66743e-06
8.52764e-06
5.61065e-06
1.91372e-06
1.80836e-06
5.66642e-06
6.78989e-06
6.78991e-06
2.21451e-06
8.04727e-07
1.60056e-06
8.35357e-06
9.8035e-06
9.80865e-06
9.8035e-06
9.7375e-06
4.14032e-06
1.00906e-08
1.00413e-08
1.05483e-08
9.18417e-08
0.366872
0.0988679
2.0633e-06
1.2315e-06
0.00033348
0.000130793
4.46151e-06
2.36137e-05
0.0753428
0.0687828
0.0196952
0.000612042
6.63827e-05
4.33775e-05
8.88893e-05
0.000386669
0.000812047
0.00516344
0.350866
0.792685
0.893137
0.949613
1
1
1
1
1
1
1
1
1
1
1
1
1
1
1
1
1
1
1
1
1
1
1
1
1
1
1
1
1
1
1
1
0.999999
0.999997
0.999984
0.999912
0.999549
0.992095
0.727212
0.17837
8.05435e-07
1.33728e-06
7.48654e-06
1.6977e-06
8.82472e-07
8.57906e-07
1.56558e-06
3.5778e-06
3.57779e-06
3.57791e-06
3.57402e-06
1.62892e-06
2.66645e-07
1.8572e-07
2.4086e-06
8.5466e-06
8.8677e-06
8.80025e-06
4.69226e-06
2.66471e-06
2.70127e-06
6.74072e-06
6.83293e-06
6.53431e-06
1.72247e-06
1.63347e-06
3.21025e-06
9.80553e-06
9.80707e-06
9.80861e-06
9.77899e-06
6.18732e-06
1.95033e-06
2.01987e-07
1.00432e-08
1.05349e-08
1.39147e-08
2.89208e-06
2.4146e-06
2.06328e-06
1.18923e-06
1.10377e-06
1.79387e-06
4.01676e-06
4.14153e-06
1.73984e-06
0.000276048
0.000224577
6.22158e-05
1.34997e-05
6.24423e-06
6.63033e-06
2.76263e-05
9.07667e-05
0.000667323
0.00909872
0.298374
0.756978
0.937314
0.95482
0.975206
0.996121
1
1
1
1
1
1
1
1
1
1
1
1
1
1
1
1
1
1
1
1
1
1
1
1
1
1
1
1
1
0.999998
0.999993
0.999965
0.999827
0.999045
0.944557
0.540292
0.0740426
1.78429e-07
2.38137e-07
4.17988e-05
0.000151605
3.1768e-05
1.01027e-06
8.07286e-07
2.38014e-06
3.5744e-06
3.57792e-06
3.57347e-06
1.58397e-06
4.04837e-07
3.66352e-07
5.42741e-06
9.06255e-06
9.03446e-06
8.93885e-06
3.79441e-06
3.19911e-06
3.53521e-06
6.78842e-06
6.78841e-06
5.97322e-06
1.46758e-06
1.50941e-06
4.66635e-06
9.80216e-06
9.80541e-06
9.80551e-06
7.93928e-06
9.86893e-07
1.32386e-08
1.31947e-08
1.35074e-08
1.69855e-08
1.53428e-08
3.11284e-08
8.47165e-06
2.41872e-06
2.35355e-06
1.70326e-06
9.1801e-07
3.69531e-07
3.85396e-07
3.03014e-05
2.2339e-06
1.16819e-05
1.23431e-05
3.42614e-06
1.03933e-06
7.3419e-07
1.60805e-06
6.88466e-06
2.82862e-05
0.00677066
0.0334874
0.0171051
0.355808
0.958695
0.998089
0.991
0.981093
1
1
1
1
1
0.999941
0.998391
0.996261
0.998117
1
0.999996
0.99999
1
1
1
0.999993
1
0.999999
1
1
1
1
0.999998
1
1
1
1
0.999998
0.999995
0.999978
0.999906
0.999587
0.996312
0.814892
0.309051
0.00738049
9.50328e-08
1.16678e-07
4.56411e-06
0.000176445
0.000175995
5.5198e-05
7.31636e-07
7.62737e-07
1.35685e-06
3.39615e-06
3.56172e-06
1.87187e-06
1.18356e-06
1.34254e-06
7.72781e-06
9.1542e-06
9.09483e-06
8.61492e-06
3.29569e-06
3.32262e-06
3.87495e-06
6.75814e-06
6.77747e-06
5.54287e-06
1.19894e-06
1.29537e-06
5.64833e-06
9.79836e-06
9.80526e-06
9.80012e-06
5.15992e-06
1.35541e-08
1.34171e-08
1.32129e-08
1.36269e-08
1.50544e-07
4.46035e-07
3.70074e-07
2.06574e-07
5.82702e-06
2.41875e-06
8.62719e-05
6.58291e-05
1.01686e-05
3.64504e-07
3.6446e-07
3.98177e-07
3.99994e-07
7.94027e-07
7.19695e-07
3.72009e-07
2.35273e-07
2.30306e-07
6.70828e-07
1.64867e-06
0.000274489
0.013425
0.0153375
0.00569827
0.139205
0.779995
0.998542
0.998191
0.981011
0.996334
1
1
1
1
0.999899
0.982501
0.945203
0.950263
0.994027
0.999996
0.99997
0.999541
0.999195
0.999854
0.999993
0.999988
0.999985
0.999993
1
0.999992
0.999986
0.999997
0.999999
1
0.999998
0.999994
0.999977
0.999924
0.999703
0.998838
0.929085
0.582291
0.125262
6.98056e-08
7.16568e-08
7.11937e-08
1.74294e-07
0.00012697
0.000176445
0.000176445
3.03201e-05
6.93355e-07
7.31717e-07
1.25455e-06
1.23353e-06
1.23379e-06
1.25246e-06
4.32215e-06
9.25933e-06
9.22664e-06
9.18759e-06
8.57602e-06
3.17407e-06
3.23734e-06
4.08773e-06
6.70827e-06
6.74575e-06
5.00538e-06
8.26893e-07
1.07056e-06
6.01229e-06
9.79079e-06
9.80039e-06
9.75819e-06
3.38615e-06
3.99576e-08
1.42421e-08
1.36192e-08
1.3457e-08
3.22953e-08
5.01547e-07
6.06152e-07
6.04873e-07
3.56865e-07
1.94949e-08
7.46923e-06
0.000107743
0.000107688
1.51873e-05
7.58479e-07
3.64504e-07
4.91167e-07
1.29312e-06
8.70844e-07
3.85543e-07
2.39319e-07
1.88192e-07
1.82505e-07
6.27528e-07
8.09519e-07
0.000170149
0.00637848
0.00162175
0.00235375
0.0087191
0.447519
0.999207
0.999389
0.988865
0.98784
1
1
1
0.999991
0.989087
0.947449
0.941685
0.941685
0.97728
0.999996
0.999387
0.997572
0.997582
0.997932
0.999997
0.999997
0.999996
0.99996
0.99989
0.99989
0.999975
0.999996
0.999998
0.999993
0.999972
0.999911
0.999658
0.998655
0.932584
0.678916
0.258312
0.0132547
4.96044e-08
6.83459e-08
6.98245e-08
1.17873e-06
3.59184e-05
0.000175491
0.000176445
4.18375e-05
3.56356e-07
6.69063e-07
7.55964e-07
7.76668e-07
1.18487e-06
1.33168e-06
5.88679e-06
9.25931e-06
9.25933e-06
9.25931e-06
8.63248e-06
2.95449e-06
3.04178e-06
4.56677e-06
6.61996e-06
6.67212e-06
4.33354e-06
6.28051e-07
7.0807e-07
5.61485e-06
9.77667e-06
9.79207e-06
9.63171e-06
3.30116e-06
1.98139e-06
1.91537e-06
1.4251e-06
1.72786e-08
5.0396e-08
3.55451e-08
2.44172e-07
6.05303e-07
6.01349e-07
5.25654e-07
1.30327e-08
1.51873e-05
0.000107677
0.000107754
7.59535e-06
4.03234e-06
1.65276e-05
5.12699e-05
7.46938e-05
4.37316e-05
3.35572e-06
1.88263e-07
1.8279e-07
1.78112e-07
5.67518e-07
5.47803e-07
8.47466e-07
2.97479e-05
0.000193262
0.000606684
0.00234122
0.270678
0.954338
0.999511
0.996839
0.987501
1
0.999999
0.997476
0.995732
0.960228
0.941741
0.941685
0.972536
0.99951
0.999903
0.997717
0.997572
0.997572
0.998617
0.999914
0.999898
0.999527
0.999389
0.999504
0.999902
0.999974
0.99999
0.999969
0.999884
0.999563
0.990266
0.879195
0.614091
0.253073
0.0356173
9.28156e-09
9.51694e-09
2.01893e-08
2.48149e-07
7.51746e-08
1.00048e-05
0.000171933
0.000175397
8.52702e-05
2.59269e-07
3.06981e-07
9.00549e-07
1.31613e-06
9.64064e-07
1.74293e-06
6.9739e-06
9.2577e-06
9.25851e-06
9.25931e-06
7.35371e-06
1.28154e-06
1.63877e-06
6.48646e-06
6.54987e-06
6.5705e-06
3.90676e-06
4.90183e-07
5.26314e-07
3.25383e-06
9.72637e-06
9.76999e-06
8.34498e-06
5.23187e-06
5.60406e-06
1.33367e-05
2.05652e-05
1.81033e-05
5.92102e-06
4.90077e-07
3.87346e-08
3.84579e-08
1.65339e-07
5.67565e-07
4.5752e-08
1.28818e-08
1.68796e-05
0.000103639
0.000107677
5.02801e-06
5.59909e-06
7.47764e-05
8.41831e-05
8.41831e-05
8.41831e-05
2.75018e-05
1.8612e-07
1.78245e-07
1.78092e-07
1.77797e-07
2.55789e-07
2.85231e-07
1.10029e-05
8.73063e-05
0.000249504
0.000657304
0.14695
0.874429
0.999517
0.999435
0.987451
0.9857
0.986116
0.972119
0.98308
0.981079
0.959166
0.983683
0.999982
0.999987
0.999677
0.999555
0.999529
0.999535
0.999252
0.999015
0.999008
0.999
0.999177
0.999674
0.999893
0.999949
0.999864
0.999496
0.969904
0.799703
0.471776
0.159841
0.00910188
8.6786e-09
8.68788e-09
8.72768e-09
3.03605e-08
2.32653e-06
3.76164e-06
5.45858e-07
1.6437e-05
0.000117291
0.000127996
1.98027e-07
2.27864e-07
4.20682e-07
9.68411e-07
1.43118e-06
2.51453e-06
7.98893e-06
9.24751e-06
9.25262e-06
9.25772e-06
5.85393e-06
2.2922e-07
2.59415e-07
2.50885e-06
6.48639e-06
6.52079e-06
1.79225e-06
4.90193e-07
4.90156e-07
4.90186e-07
2.90352e-06
8.14374e-06
6.09823e-06
3.21745e-06
5.67303e-06
1.8075e-05
2.06644e-05
2.0676e-05
2.06615e-05
1.9136e-05
1.43508e-07
3.87679e-08
3.98704e-07
6.79893e-07
1.03828e-07
1.28628e-08
1.25941e-08
1.75039e-05
3.11553e-05
0.000103912
4.91357e-06
3.92588e-06
3.25976e-05
7.13622e-05
8.41831e-05
8.40422e-05
7.64155e-05
7.14774e-06
1.80045e-07
1.78231e-07
1.79882e-07
3.02334e-06
2.7981e-06
2.66057e-06
3.17789e-05
5.68054e-05
0.000213377
0.110529
0.82894
0.999535
0.999512
0.984258
0.967247
0.967752
0.977253
0.999983
0.99984
0.999305
0.999983
0.999988
0.999988
0.999976
0.999987
0.999984
0.99998
0.999937
0.999445
0.999143
0.999013
0.999216
0.999628
0.999753
0.998661
0.933317
0.715727
0.348424
0.074561
9.50611e-09
9.53906e-09
9.07184e-09
8.70861e-09
8.67546e-09
1.82716e-08
2.03489e-06
4.32159e-06
4.32166e-06
3.41678e-06
1.57248e-06
6.56915e-08
1.02256e-07
1.72563e-07
2.56933e-07
8.11418e-07
1.01124e-06
2.52242e-06
7.84446e-06
9.24042e-06
9.24289e-06
9.24754e-06
4.84239e-06
7.74692e-08
7.83629e-08
2.57289e-07
1.35073e-06
1.71525e-06
1.16236e-06
5.74083e-07
5.30597e-07
1.73172e-06
2.86163e-06
8.12208e-07
2.68991e-07
2.90339e-07
4.8393e-06
2.0146e-05
2.06547e-05
2.0676e-05
2.06615e-05
1.33424e-05
1.34735e-06
4.1026e-07
2.60364e-07
7.6798e-07
7.67998e-07
2.36215e-07
1.29435e-08
1.45448e-08
2.06202e-05
2.82828e-05
2.17758e-05
5.09446e-06
3.37169e-06
2.02564e-06
2.02568e-06
1.95049e-05
5.66179e-05
7.65125e-05
5.87388e-05
1.05304e-05
1.80043e-07
1.87341e-07
6.37836e-06
7.17364e-06
5.48524e-06
1.59104e-05
2.42631e-05
5.08591e-05
0.0860383
0.799305
0.999611
0.998869
0.972452
0.96725
0.967258
0.988155
0.999984
0.999984
0.999986
0.999988
0.999988
0.999988
0.999988
0.999988
0.999987
0.999971
0.999939
0.999679
0.999271
0.999002
0.994642
0.953895
0.836884
0.588257
0.216902
0.0171736
1.2783e-07
1.25069e-08
9.77189e-09
9.52791e-09
9.71434e-09
9.12806e-09
8.77618e-09
4.43159e-08
3.13007e-06
4.32167e-06
4.29054e-06
1.73663e-06
5.62151e-08
5.74578e-08
6.57337e-08
1.47568e-07
5.2125e-07
6.8858e-07
1.80837e-06
6.26685e-06
9.24531e-06
9.24517e-06
9.23972e-06
4.50943e-06
7.6716e-08
7.56098e-08
7.58145e-08
1.30435e-07
1.99426e-07
2.13607e-07
2.42037e-07
1.72316e-06
3.63145e-06
3.60965e-06
3.27598e-06
2.90146e-07
1.24969e-07
3.3982e-07
1.38561e-05
2.06043e-05
2.06622e-05
2.0343e-05
6.32875e-06
5.07371e-08
4.93571e-08
1.40525e-07
7.51222e-07
7.67995e-07
4.05082e-07
1.58645e-08
1.61848e-08
3.46592e-08
3.585e-05
3.82323e-05
3.37362e-05
6.52693e-06
3.41358e-06
2.02614e-06
2.02677e-06
2.02743e-06
2.0345e-06
2.79201e-05
7.45306e-05
7.43395e-05
1.60374e-05
1.95979e-07
1.61113e-06
2.09536e-06
3.06064e-06
9.12006e-06
1.66506e-05