/*--------------------------------*- C++ -*----------------------------------*\
| =========                 |                                                 |
| \\      /  F ield         | OpenFOAM: The Open Source CFD Toolbox           |
|  \\    /   O peration     | Version:  2.4.0                                 |
|   \\  /    A nd           | Web:      www.OpenFOAM.org                      |
|    \\/     M anipulation  |                                                 |
\*---------------------------------------------------------------------------*/
FoamFile
{
    version     2.0;
    format      ascii;
    class       surfaceScalarField;
    location    "0.26";
    object      phiAlpha;
}
// * * * * * * * * * * * * * * * * * * * * * * * * * * * * * * * * * * * * * //

dimensions      [0 3 -1 0 0 0 0];

internalField   nonuniform List<scalar> 
119500
(
-5.56276e-10
5.56276e-10
-1.50643e-09
9.50151e-10
-2.55949e-09
1.05306e-09
-3.67985e-09
1.12037e-09
-4.87743e-09
1.19758e-09
-6.16209e-09
1.28465e-09
-7.54016e-09
1.37808e-09
-9.01358e-09
1.47342e-09
-1.05798e-08
1.56626e-09
-1.22322e-08
1.65231e-09
-1.39601e-08
1.7279e-09
-1.575e-08
1.78998e-09
-1.75862e-08
1.83612e-09
-1.9451e-08
1.86481e-09
-2.13257e-08
1.87471e-09
-2.3191e-08
1.86531e-09
-2.50277e-08
1.83673e-09
-2.68171e-08
1.78939e-09
-2.85413e-08
1.72416e-09
-3.01834e-08
1.64219e-09
-3.17281e-08
1.54468e-09
-3.3161e-08
1.43287e-09
-3.44691e-08
1.30809e-09
-3.56407e-08
1.17164e-09
-3.66655e-08
1.02473e-09
-3.75339e-08
8.68399e-10
-3.82367e-08
7.02879e-10
-3.87654e-08
5.28701e-10
-3.91125e-08
3.47022e-10
-3.92717e-08
1.5929e-10
-3.92369e-08
-3.48587e-11
-3.90056e-08
-2.31275e-10
-3.85742e-08
-4.31371e-10
-3.79383e-08
-6.35967e-10
-3.70935e-08
-8.44715e-10
-3.60362e-08
-1.05736e-09
-3.47625e-08
-1.27372e-09
-3.32688e-08
-1.49365e-09
-3.15519e-08
-1.71695e-09
-2.96085e-08
-1.9434e-09
-2.74358e-08
-2.17272e-09
-2.50312e-08
-2.40458e-09
-2.23927e-08
-2.6385e-09
-1.95187e-08
-2.87394e-09
-1.64085e-08
-3.11018e-09
-1.30621e-08
-3.34647e-09
-9.48019e-09
-3.5819e-09
-5.66456e-09
-3.81563e-09
-1.61729e-09
-4.04727e-09
2.65989e-09
-4.27718e-09
7.14296e-09
-4.48306e-09
1.18403e-08
-4.6973e-09
1.67386e-08
-4.89831e-09
2.18289e-08
-5.0903e-09
2.7096e-08
-5.26716e-09
3.25239e-08
-5.42783e-09
3.80963e-08
-5.5724e-09
4.37926e-08
-5.6963e-09
4.95931e-08
-5.80055e-09
5.54758e-08
-5.88274e-09
6.1417e-08
-5.94117e-09
6.73919e-08
-5.97492e-09
7.3375e-08
-5.98302e-09
7.93399e-08
-5.96494e-09
8.52608e-08
-5.92087e-09
9.11119e-08
-5.85114e-09
9.68686e-08
-5.75669e-09
1.02508e-07
-5.6392e-09
1.08008e-07
-5.50063e-09
1.13352e-07
-5.34359e-09
1.18523e-07
-5.17126e-09
1.23511e-07
-4.98745e-09
1.28307e-07
-4.79622e-09
1.32909e-07
-4.60174e-09
1.37317e-07
-4.40834e-09
1.41537e-07
-4.22019e-09
1.45578e-07
-4.04113e-09
1.49453e-07
-3.87443e-09
1.53175e-07
-3.72257e-09
1.56762e-07
-3.587e-09
1.6023e-07
-3.46803e-09
1.63595e-07
-3.36481e-09
1.66871e-07
-3.27536e-09
1.70067e-07
-3.19656e-09
1.73191e-07
-3.12433e-09
1.76245e-07
-3.05385e-09
1.79225e-07
-2.98019e-09
1.82124e-07
-2.89888e-09
1.84932e-07
-2.80718e-09
1.87637e-07
-2.7053e-09
1.90234e-07
-2.59708e-09
1.92723e-07
-2.48947e-09
1.95114e-07
-2.39032e-09
1.97419e-07
-2.30555e-09
1.99656e-07
-2.23629e-09
2.01832e-07
-2.17617e-09
2.03941e-07
-2.10955e-09
2.05953e-07
-2.01175e-09
2.07808e-07
-1.85473e-09
-1.61476e-09
2.09423e-07
-2.04938e-09
2.60565e-09
-4.85937e-09
3.76015e-09
-7.75073e-09
3.94442e-09
-1.0684e-08
4.05368e-09
-1.36659e-08
4.17943e-09
-1.67019e-08
4.3207e-09
-1.97942e-08
4.47038e-09
-2.29411e-08
4.62033e-09
-2.61374e-08
4.76248e-09
-2.93741e-08
4.88905e-09
-3.26396e-08
4.9934e-09
-3.59195e-08
5.06991e-09
-3.91974e-08
5.114e-09
-4.24552e-08
5.12262e-09
-4.56738e-08
5.09327e-09
-4.88336e-08
5.02508e-09
-5.19149e-08
4.91808e-09
-5.48985e-08
4.77294e-09
-5.77654e-08
4.59113e-09
-6.04978e-08
4.37455e-09
-6.30784e-08
4.12525e-09
-6.54909e-08
3.84537e-09
-6.772e-08
3.53723e-09
-6.97514e-08
3.203e-09
-7.15714e-08
2.8448e-09
-7.31677e-08
2.46466e-09
-7.45291e-08
2.06429e-09
-7.56452e-08
1.64481e-09
-7.6505e-08
1.20679e-09
-7.70961e-08
7.50426e-10
-7.74067e-08
2.75769e-10
-7.74268e-08
-2.11226e-10
-7.71486e-08
-7.09522e-10
-7.65643e-08
-1.22023e-09
-7.56657e-08
-1.74338e-09
-7.44447e-08
-2.27831e-09
-7.28939e-08
-2.82451e-09
-7.10063e-08
-3.38129e-09
-6.87753e-08
-3.94792e-09
-6.61951e-08
-4.5236e-09
-6.32605e-08
-5.10731e-09
-5.99673e-08
-5.69784e-09
-5.6312e-08
-6.29377e-09
-5.22926e-08
-6.89338e-09
-4.7908e-08
-7.49475e-09
-4.31587e-08
-8.09572e-09
-3.80467e-08
-8.69391e-09
-3.25756e-08
-9.28673e-09
-2.67511e-08
-9.87174e-09
-2.05832e-08
-1.04451e-08
-1.40711e-08
-1.09952e-08
-7.23514e-09
-1.15333e-08
-8.44994e-11
-1.20489e-08
7.36075e-09
-1.25355e-08
1.50824e-08
-1.29888e-08
2.30629e-08
-1.34083e-08
3.12816e-08
-1.37912e-08
3.97123e-08
-1.41269e-08
4.83287e-08
-1.44169e-08
5.7103e-08
-1.46571e-08
6.60053e-08
-1.48435e-08
7.50059e-08
-1.49755e-08
8.40731e-08
-1.50502e-08
9.31751e-08
-1.5067e-08
1.0228e-07
-1.5026e-08
1.11357e-07
-1.49283e-08
1.20376e-07
-1.47756e-08
1.29309e-07
-1.45715e-08
1.38128e-07
-1.432e-08
1.46811e-07
-1.4027e-08
1.55339e-07
-1.36986e-08
1.63694e-07
-1.33431e-08
1.71867e-07
-1.29688e-08
1.7985e-07
-1.25845e-08
1.87641e-07
-1.21994e-08
1.95243e-07
-1.18222e-08
2.02663e-07
-1.14612e-08
2.09912e-07
-1.11232e-08
2.17002e-07
-1.08135e-08
2.23951e-07
-1.05351e-08
2.30771e-07
-1.0289e-08
2.3748e-07
-1.00735e-08
2.44089e-07
-9.88465e-09
2.50609e-07
-9.71619e-09
2.57044e-07
-9.55972e-09
2.63396e-07
-9.40515e-09
2.69657e-07
-9.24155e-09
2.75817e-07
-9.0583e-09
2.81856e-07
-8.84712e-09
2.87756e-07
-8.60513e-09
2.93496e-07
-8.33688e-09
2.99061e-07
-8.0546e-09
3.04446e-07
-7.77501e-09
3.09655e-07
-7.5147e-09
3.14703e-07
-7.2844e-09
3.19611e-07
-7.08388e-09
3.24399e-07
-6.89786e-09
3.29083e-07
-6.69563e-09
3.33659e-07
-6.43098e-09
-6.05328e-09
3.38098e-07
-2.53968e-09
5.14534e-09
-5.94061e-09
7.16107e-09
-9.42062e-09
7.42443e-09
-1.29364e-08
7.56946e-09
-1.64933e-08
7.73632e-09
-2.00962e-08
7.92359e-09
-2.3747e-08
8.12121e-09
-2.74442e-08
8.31756e-09
-3.1183e-08
8.50121e-09
-3.49553e-08
8.6614e-09
-3.87505e-08
8.78863e-09
-4.25554e-08
8.87474e-09
-4.63545e-08
8.91316e-09
-5.01308e-08
8.89894e-09
-5.38664e-08
8.82885e-09
-5.75425e-08
8.70115e-09
-6.114e-08
8.51555e-09
-6.46398e-08
8.2728e-09
-6.80233e-08
7.97464e-09
-7.12721e-08
7.62337e-09
-7.43685e-08
7.22159e-09
-7.72952e-08
6.77211e-09
-8.00359e-08
6.27789e-09
-8.25747e-08
5.74175e-09
-8.48963e-08
5.16645e-09
-8.69863e-08
4.55464e-09
-8.88307e-08
3.90873e-09
-9.04165e-08
3.23058e-09
-9.17313e-08
2.52163e-09
-9.27638e-08
1.78289e-09
-9.35031e-08
1.01505e-09
-9.39349e-08
2.20618e-10
-9.40458e-08
-5.98604e-10
-9.38267e-08
-1.4394e-09
-9.32675e-08
-2.30256e-09
-9.23589e-08
-3.18694e-09
-9.10918e-08
-4.09152e-09
-8.94583e-08
-5.01483e-09
-8.74506e-08
-5.9556e-09
-8.50622e-08
-6.91204e-09
-8.22872e-08
-7.88226e-09
-7.91211e-08
-8.86396e-09
-7.55603e-08
-9.85456e-09
-7.16027e-08
-1.0851e-08
-6.72475e-08
-1.18499e-08
-6.24957e-08
-1.28476e-08
-5.73498e-08
-1.38398e-08
-5.18143e-08
-1.48222e-08
-4.5896e-08
-1.57901e-08
-3.96037e-08
-1.67374e-08
-3.29435e-08
-1.76553e-08
-2.59318e-08
-1.85449e-08
-1.85834e-08
-1.93974e-08
-1.0914e-08
-2.0205e-08
-2.94127e-09
-2.09615e-08
5.31433e-09
-2.16639e-08
1.38213e-08
-2.22981e-08
2.25623e-08
-2.28679e-08
3.15086e-08
-2.33633e-08
4.0631e-08
-2.37795e-08
4.98997e-08
-2.41122e-08
5.92831e-08
-2.43588e-08
6.87492e-08
-2.45163e-08
7.8266e-08
-2.45838e-08
8.78012e-08
-2.45613e-08
9.73233e-08
-2.44504e-08
1.06802e-07
-2.42539e-08
1.16207e-07
-2.3977e-08
1.25513e-07
-2.36263e-08
1.34696e-07
-2.32098e-08
1.43736e-07
-2.27379e-08
1.52615e-07
-2.22223e-08
1.61322e-07
-2.16756e-08
1.69849e-07
-2.11114e-08
1.78193e-07
-2.05436e-08
1.86356e-07
-1.99857e-08
1.94345e-07
-1.94499e-08
2.02168e-07
-1.89468e-08
2.09839e-07
-1.84842e-08
2.17371e-07
-1.80671e-08
2.24779e-07
-1.76965e-08
2.32075e-07
-1.737e-08
2.39272e-07
-1.70815e-08
2.46377e-07
-1.68212e-08
2.53394e-07
-1.65761e-08
2.60319e-07
-1.63304e-08
2.67144e-07
-1.60666e-08
2.73852e-07
-1.57669e-08
2.80422e-07
-1.54164e-08
2.86824e-07
-1.50079e-08
2.93033e-07
-1.45455e-08
2.99025e-07
-1.40465e-08
3.04787e-07
-1.35374e-08
3.10321e-07
-1.30485e-08
3.15642e-07
-1.26055e-08
3.2078e-07
-1.22219e-08
3.25778e-07
-1.18952e-08
3.30685e-07
-1.16034e-08
3.35559e-07
-1.13048e-08
-1.09192e-08
3.40425e-07
-2.65888e-09
7.80422e-09
-6.19832e-09
1.07005e-08
-9.82517e-09
1.10513e-08
-1.34929e-08
1.12372e-08
-1.72069e-08
1.14503e-08
-2.0973e-08
1.16897e-08
-2.47938e-08
1.1942e-08
-2.86685e-08
1.21922e-08
-3.25926e-08
1.24253e-08
-3.65586e-08
1.26273e-08
-4.05556e-08
1.27857e-08
-4.45704e-08
1.28895e-08
-4.85874e-08
1.29302e-08
-5.25896e-08
1.29012e-08
-5.65586e-08
1.27978e-08
-6.04754e-08
1.26179e-08
-6.43204e-08
1.23606e-08
-6.80744e-08
1.20268e-08
-7.1718e-08
1.16182e-08
-7.52323e-08
1.11377e-08
-7.8599e-08
1.05882e-08
-8.18001e-08
9.97323e-09
-8.48184e-08
9.29619e-09
-8.76372e-08
8.56055e-09
-9.02403e-08
7.7696e-09
-9.26122e-08
6.92651e-09
-9.47377e-08
6.03421e-09
-9.66023e-08
5.09517e-09
-9.81921e-08
4.11148e-09
-9.94943e-08
3.08502e-09
-1.00497e-07
2.01759e-09
-1.01187e-07
9.11213e-10
-1.01552e-07
-2.33797e-10
-1.0158e-07
-1.41185e-09
-1.01259e-07
-2.62318e-09
-1.0058e-07
-3.86592e-09
-9.95334e-08
-5.13825e-09
-9.81101e-08
-6.43815e-09
-9.63024e-08
-7.76333e-09
-9.41032e-08
-9.11123e-09
-9.15067e-08
-1.04788e-08
-8.8508e-08
-1.18626e-08
-8.51037e-08
-1.32589e-08
-8.12916e-08
-1.46631e-08
-7.70712e-08
-1.60703e-08
-7.24436e-08
-1.74752e-08
-6.74116e-08
-1.88718e-08
-6.19801e-08
-2.02537e-08
-5.61561e-08
-2.16141e-08
-4.99486e-08
-2.2945e-08
-4.33665e-08
-2.42374e-08
-3.64247e-08
-2.54866e-08
-2.91388e-08
-2.66833e-08
-2.15258e-08
-2.7818e-08
-1.36051e-08
-2.88823e-08
-5.39995e-09
-2.9869e-08
3.06875e-09
-3.07668e-08
1.17713e-08
-3.15704e-08
2.0682e-08
-3.2274e-08
2.97706e-08
-3.28681e-08
3.90072e-08
-3.33488e-08
4.83594e-08
-3.37111e-08
5.77947e-08
-3.39516e-08
6.72803e-08
-3.40694e-08
7.67837e-08
-3.40646e-08
8.62726e-08
-3.39394e-08
9.57162e-08
-3.36975e-08
1.05085e-07
-3.3346e-08
1.14353e-07
-3.28937e-08
1.23494e-07
-3.23515e-08
1.32489e-07
-3.17331e-08
1.41321e-07
-3.10541e-08
1.49977e-07
-3.03315e-08
1.58449e-07
-2.95836e-08
1.66735e-07
-2.88288e-08
1.74834e-07
-2.80852e-08
1.82753e-07
-2.73692e-08
1.90501e-07
-2.66947e-08
1.98089e-07
-2.60722e-08
2.0553e-07
-2.55079e-08
2.12837e-07
-2.50031e-08
2.2002e-07
-2.45538e-08
2.2709e-07
-2.4151e-08
2.3405e-07
-2.37808e-08
2.40898e-07
-2.34247e-08
2.47628e-07
-2.306e-08
2.54223e-07
-2.26614e-08
2.60659e-07
-2.22031e-08
2.66905e-07
-2.16626e-08
2.72925e-07
-2.10279e-08
2.78683e-07
-2.03036e-08
2.84151e-07
-1.95141e-08
2.89313e-07
-1.87e-08
2.94174e-07
-1.79088e-08
2.98752e-07
-1.71841e-08
3.03087e-07
-1.65568e-08
3.07233e-07
-1.60415e-08
3.11259e-07
-1.5629e-08
3.15247e-07
-1.52924e-08
-1.49356e-08
3.19263e-07
-2.68322e-09
1.04874e-08
-6.2486e-09
1.42659e-08
-9.90836e-09
1.4711e-08
-1.36147e-08
1.49435e-08
-1.73732e-08
1.52088e-08
-2.11904e-08
1.5507e-08
-2.50697e-08
1.58213e-08
-2.90103e-08
1.61328e-08
-3.30079e-08
1.6423e-08
-3.70546e-08
1.6674e-08
-4.11392e-08
1.68703e-08
-4.52478e-08
1.69981e-08
-4.93644e-08
1.70468e-08
-5.34714e-08
1.70081e-08
-5.75498e-08
1.68762e-08
-6.158e-08
1.66481e-08
-6.55423e-08
1.63229e-08
-6.94167e-08
1.59012e-08
-7.31836e-08
1.53852e-08
-7.68238e-08
1.47779e-08
-8.03185e-08
1.40829e-08
-8.36494e-08
1.33042e-08
-8.6799e-08
1.24458e-08
-8.97501e-08
1.15117e-08
-9.24862e-08
1.05057e-08
-9.49913e-08
9.43161e-09
-9.72498e-08
8.29268e-09
-9.92466e-08
7.09197e-09
-1.00967e-07
5.83212e-09
-1.02398e-07
4.51566e-09
-1.03526e-07
3.14523e-09
-1.04337e-07
1.72307e-09
-1.04822e-07
2.50579e-10
-1.04965e-07
-1.26836e-09
-1.04757e-07
-2.83179e-09
-1.04185e-07
-4.43731e-09
-1.03241e-07
-6.08235e-09
-1.01915e-07
-7.76411e-09
-1.00199e-07
-9.47938e-09
-9.80858e-08
-1.12246e-08
-9.55689e-08
-1.29957e-08
-9.26436e-08
-1.47879e-08
-8.93063e-08
-1.65962e-08
-8.55549e-08
-1.84145e-08
-8.13887e-08
-2.02365e-08
-7.68089e-08
-2.2055e-08
-7.18185e-08
-2.38622e-08
-6.64224e-08
-2.56498e-08
-6.06278e-08
-2.74088e-08
-5.44435e-08
-2.91292e-08
-4.788e-08
-3.08009e-08
-4.09515e-08
-3.24151e-08
-3.3674e-08
-3.39608e-08
-2.60652e-08
-3.54268e-08
-1.81451e-08
-3.68023e-08
-9.93689e-09
-3.80773e-08
-1.46379e-09
-3.92399e-08
7.24755e-09
-4.02817e-08
1.61671e-08
-4.11936e-08
2.52666e-08
-4.19676e-08
3.45138e-08
-4.25961e-08
4.38769e-08
-4.30742e-08
5.33223e-08
-4.33969e-08
6.28166e-08
-4.35637e-08
7.23266e-08
-4.35746e-08
8.18197e-08
-4.34325e-08
9.1264e-08
-4.31417e-08
1.0063e-07
-4.27118e-08
1.09889e-07
-4.21533e-08
1.19018e-07
-4.14802e-08
1.27994e-07
-4.07094e-08
1.36801e-07
-3.98606e-08
1.45425e-07
-3.89552e-08
1.53857e-07
-3.80158e-08
1.62094e-07
-3.70659e-08
1.70137e-07
-3.61279e-08
1.7799e-07
-3.52225e-08
1.85662e-07
-3.4367e-08
1.93165e-07
-3.35745e-08
2.00509e-07
-3.28525e-08
2.07708e-07
-3.22019e-08
2.14771e-07
-3.16172e-08
2.21706e-07
-3.10859e-08
2.28515e-07
-3.05891e-08
2.35192e-07
-3.0102e-08
2.41726e-07
-2.95944e-08
2.48096e-07
-2.90316e-08
2.54272e-07
-2.83784e-08
2.60212e-07
-2.76031e-08
2.65872e-07
-2.66879e-08
2.71207e-07
-2.56383e-08
2.76182e-07
-2.4489e-08
2.8078e-07
-2.32984e-08
2.85007e-07
-2.21353e-08
2.88887e-07
-2.10649e-08
2.92468e-07
-2.01377e-08
2.95813e-07
-1.93864e-08
2.99002e-07
-1.88176e-08
3.02131e-07
-1.84215e-08
-1.80902e-08
3.05285e-07
-2.67973e-09
1.31672e-08
-6.24084e-09
1.7827e-08
-9.90081e-09
1.8371e-08
-1.36118e-08
1.86545e-08
-1.73802e-08
1.89772e-08
-2.1213e-08
1.93398e-08
-2.51137e-08
1.9722e-08
-2.90819e-08
2.0101e-08
-3.31129e-08
2.0454e-08
-3.71983e-08
2.07594e-08
-4.13265e-08
2.09985e-08
-4.54829e-08
2.11546e-08
-4.96509e-08
2.12148e-08
-5.3812e-08
2.11692e-08
-5.79469e-08
2.10111e-08
-6.20353e-08
2.07366e-08
-6.60571e-08
2.03446e-08
-6.99919e-08
1.9836e-08
-7.38199e-08
1.92132e-08
-7.75216e-08
1.84795e-08
-8.1078e-08
1.76393e-08
-8.44707e-08
1.66969e-08
-8.76821e-08
1.56571e-08
-9.06948e-08
1.45244e-08
-9.34922e-08
1.33032e-08
-9.60582e-08
1.19975e-08
-9.83769e-08
1.06114e-08
-1.00433e-07
9.14825e-09
-1.02212e-07
7.61126e-09
-1.037e-07
6.00351e-09
-1.04883e-07
4.32814e-09
-1.05748e-07
2.58792e-09
-1.06283e-07
7.85382e-10
-1.06475e-07
-1.07629e-09
-1.06312e-07
-2.99423e-09
-1.05784e-07
-4.96528e-09
-1.04881e-07
-6.98612e-09
-1.03592e-07
-9.0531e-09
-1.01909e-07
-1.11621e-08
-9.9825e-08
-1.33085e-08
-9.73334e-08
-1.54872e-08
-9.44292e-08
-1.76921e-08
-9.11086e-08
-1.99168e-08
-8.73692e-08
-2.21539e-08
-8.32105e-08
-2.43952e-08
-7.86336e-08
-2.66319e-08
-7.36414e-08
-2.88544e-08
-6.82389e-08
-3.10523e-08
-6.2433e-08
-3.32146e-08
-5.6233e-08
-3.53293e-08
-4.96496e-08
-3.73843e-08
-4.2697e-08
-3.93677e-08
-3.53911e-08
-4.12667e-08
-2.77502e-08
-4.30678e-08
-1.97945e-08
-4.4758e-08
-1.1547e-08
-4.63247e-08
-3.03219e-09
-4.77548e-08
5.72284e-09
-4.90368e-08
1.46898e-08
-5.01605e-08
2.38374e-08
-5.11152e-08
3.31343e-08
-5.1893e-08
4.25479e-08
-5.24878e-08
5.20434e-08
-5.28924e-08
6.15875e-08
-5.31078e-08
7.11463e-08
-5.31333e-08
8.06857e-08
-5.29719e-08
9.01741e-08
-5.26301e-08
9.95803e-08
-5.2118e-08
1.08876e-07
-5.14489e-08
1.18035e-07
-5.06395e-08
1.27036e-07
-4.97104e-08
1.3586e-07
-4.86849e-08
1.44494e-07
-4.75889e-08
1.52928e-07
-4.645e-08
1.61159e-07
-4.52963e-08
1.69186e-07
-4.41552e-08
1.77015e-07
-4.30518e-08
1.84655e-07
-4.20072e-08
1.92118e-07
-4.10371e-08
1.99416e-07
-4.01505e-08
2.06562e-07
-3.9348e-08
2.13567e-07
-3.8622e-08
2.20438e-07
-3.79564e-08
2.27175e-07
-3.7327e-08
2.33776e-07
-3.67025e-08
2.40226e-07
-3.60442e-08
2.46502e-07
-3.53075e-08
2.52569e-07
-3.44453e-08
2.5838e-07
-3.34145e-08
2.63881e-07
-3.21891e-08
2.69018e-07
-3.07754e-08
2.7375e-07
-2.92201e-08
2.78054e-07
-2.76031e-08
2.81938e-07
-2.6019e-08
2.85432e-07
-2.45585e-08
2.88588e-07
-2.32942e-08
2.9148e-07
-2.22785e-08
2.942e-07
-2.15376e-08
2.96862e-07
-2.10837e-08
-2.08023e-08
2.99574e-07
-2.66298e-09
1.58301e-08
-6.2069e-09
2.13709e-08
-9.85327e-09
2.20174e-08
-1.3555e-08
2.23562e-08
-1.73193e-08
2.27415e-08
-2.11538e-08
2.31743e-08
-2.50623e-08
2.36305e-08
-2.90441e-08
2.40828e-08
-3.30944e-08
2.45042e-08
-3.72043e-08
2.48693e-08
-4.13614e-08
2.51556e-08
-4.55504e-08
2.53436e-08
-4.97539e-08
2.54183e-08
-5.39526e-08
2.53679e-08
-5.81264e-08
2.51849e-08
-6.22547e-08
2.48648e-08
-6.63165e-08
2.44065e-08
-7.02913e-08
2.38108e-08
-7.41589e-08
2.30807e-08
-7.78995e-08
2.22202e-08
-8.14942e-08
2.12339e-08
-8.49244e-08
2.01272e-08
-8.81725e-08
1.89052e-08
-9.12211e-08
1.7573e-08
-9.40536e-08
1.61357e-08
-9.66538e-08
1.45977e-08
-9.90059e-08
1.29635e-08
-1.01095e-07
1.1237e-08
-1.02905e-07
9.42198e-09
-1.04424e-07
7.52192e-09
-1.05636e-07
5.54039e-09
-1.06529e-07
3.48072e-09
-1.0709e-07
1.34615e-09
-1.07306e-07
-8.59895e-10
-1.07166e-07
-3.13397e-09
-1.06659e-07
-5.4724e-09
-1.05774e-07
-7.87107e-09
-1.04502e-07
-1.03255e-08
-1.02833e-07
-1.28307e-08
-1.00761e-07
-1.53809e-08
-9.8278e-08
-1.797e-08
-9.53795e-08
-2.05907e-08
-9.20613e-08
-2.3235e-08
-8.83211e-08
-2.58941e-08
-8.4158e-08
-2.85583e-08
-7.95731e-08
-3.12168e-08
-7.45692e-08
-3.38583e-08
-6.91512e-08
-3.64703e-08
-6.33261e-08
-3.90397e-08
-5.71028e-08
-4.15525e-08
-5.04927e-08
-4.39945e-08
-4.35094e-08
-4.6351e-08
-3.61691e-08
-4.8607e-08
-2.849e-08
-5.07468e-08
-2.04928e-08
-5.27553e-08
-1.22004e-08
-5.46171e-08
-3.63765e-09
-5.63175e-08
5.16801e-09
-5.78424e-08
1.41881e-08
-5.91805e-08
2.33909e-08
-6.0318e-08
3.27448e-08
-6.12469e-08
4.22141e-08
-6.19571e-08
5.17698e-08
-6.24481e-08
6.1372e-08
-6.271e-08
7.09877e-08
-6.27491e-08
8.05822e-08
-6.25664e-08
9.01232e-08
-6.21712e-08
9.95783e-08
-6.15731e-08
1.08918e-07
-6.07887e-08
1.18116e-07
-5.98376e-08
1.27149e-07
-5.87435e-08
1.35998e-07
-5.7534e-08
1.44649e-07
-5.62396e-08
1.53092e-07
-5.48927e-08
1.61322e-07
-5.35268e-08
1.69342e-07
-5.21745e-08
1.77156e-07
-5.08658e-08
1.84775e-07
-4.9626e-08
1.92211e-07
-4.8474e-08
1.99481e-07
-4.74199e-08
2.06597e-07
-4.64644e-08
2.13573e-07
-4.55975e-08
2.20416e-07
-4.47994e-08
2.27129e-07
-4.40405e-08
2.33709e-07
-4.32827e-08
2.40144e-07
-4.24786e-08
2.46409e-07
-4.15731e-08
2.52469e-07
-4.05046e-08
2.58269e-07
-3.92152e-08
2.63748e-07
-3.76678e-08
2.68841e-07
-3.58681e-08
2.73496e-07
-3.38758e-08
2.7769e-07
-3.17964e-08
2.81427e-07
-2.97558e-08
2.84742e-07
-2.78739e-08
2.87695e-07
-2.62474e-08
2.90367e-07
-2.49506e-08
2.92863e-07
-2.4033e-08
2.95321e-07
-2.35417e-08
-2.33701e-08
2.97888e-07
-2.63753e-09
1.84677e-08
-6.15654e-09
2.48899e-08
-9.78156e-09
2.56424e-08
-1.34668e-08
2.60415e-08
-1.72206e-08
2.64953e-08
-2.10512e-08
2.70048e-08
-2.49625e-08
2.75419e-08
-2.89541e-08
2.80744e-08
-3.30203e-08
2.85705e-08
-3.71519e-08
2.90009e-08
-4.13356e-08
2.93393e-08
-4.55552e-08
2.95632e-08
-4.97922e-08
2.96552e-08
-5.40264e-08
2.96022e-08
-5.82371e-08
2.93955e-08
-6.24026e-08
2.90303e-08
-6.65016e-08
2.85055e-08
-7.05129e-08
2.78222e-08
-7.44162e-08
2.6984e-08
-7.81915e-08
2.59954e-08
-8.18197e-08
2.48621e-08
-8.52822e-08
2.35898e-08
-8.85614e-08
2.21844e-08
-9.164e-08
2.06516e-08
-9.45013e-08
1.8997e-08
-9.71293e-08
1.72257e-08
-9.95082e-08
1.53424e-08
-1.01623e-07
1.33517e-08
-1.03459e-07
1.12576e-08
-1.05001e-07
9.06428e-09
-1.06236e-07
6.7756e-09
-1.07151e-07
4.39539e-09
-1.07732e-07
1.92745e-09
-1.07968e-07
-6.24303e-10
-1.07846e-07
-3.25593e-09
-1.07355e-07
-5.96316e-09
-1.06485e-07
-8.74121e-09
-1.05226e-07
-1.15848e-08
-1.03568e-07
-1.4488e-08
-1.01505e-07
-1.74442e-08
-9.90289e-08
-2.04459e-08
-9.61348e-08
-2.34848e-08
-9.28182e-08
-2.65515e-08
-8.90768e-08
-2.96356e-08
-8.49093e-08
-3.27257e-08
-8.03168e-08
-3.58094e-08
-7.53019e-08
-3.88732e-08
-6.98693e-08
-4.19029e-08
-6.40258e-08
-4.48832e-08
-5.77804e-08
-4.77979e-08
-5.11444e-08
-5.06305e-08
-4.41313e-08
-5.3364e-08
-3.67574e-08
-5.59809e-08
-2.90407e-08
-5.84634e-08
-2.10022e-08
-6.07938e-08
-1.26648e-08
-6.29545e-08
-4.05369e-09
-6.49286e-08
4.80379e-09
-6.66999e-08
1.38777e-08
-6.82545e-08
2.31374e-08
-6.95777e-08
3.25493e-08
-7.06588e-08
4.20806e-08
-7.14884e-08
5.16949e-08
-7.20624e-08
6.13571e-08
-7.23722e-08
7.10318e-08
-7.24237e-08
8.06841e-08
-7.22187e-08
9.02789e-08
-7.1766e-08
9.97841e-08
-7.10783e-08
1.09169e-07
-7.01736e-08
1.18406e-07
-6.90747e-08
1.27471e-07
-6.78086e-08
1.36344e-07
-6.64071e-08
1.4501e-07
-6.49056e-08
1.53459e-07
-6.33419e-08
1.61688e-07
-6.17551e-08
1.69697e-07
-6.01836e-08
1.77494e-07
-5.86628e-08
1.85091e-07
-5.72228e-08
1.92502e-07
-5.58858e-08
1.99746e-07
-5.46638e-08
2.06839e-07
-5.35571e-08
2.13795e-07
-5.25535e-08
2.20624e-07
-5.16288e-08
2.27332e-07
-5.07483e-08
2.33916e-07
-4.98669e-08
2.40367e-07
-4.89289e-08
2.46661e-07
-4.7867e-08
2.52759e-07
-4.66035e-08
2.58606e-07
-4.50615e-08
2.64126e-07
-4.31882e-08
2.69244e-07
-4.0986e-08
2.73897e-07
-3.8529e-08
2.78055e-07
-3.59537e-08
2.81722e-07
-3.34236e-08
2.8494e-07
-3.10917e-08
2.87773e-07
-2.90805e-08
2.90309e-07
-2.74859e-08
2.9266e-07
-2.63847e-08
2.94999e-07
-2.58799e-08
-2.59074e-08
2.97536e-07
-2.60524e-09
2.10729e-08
-6.09359e-09
2.83783e-08
-9.692e-09
2.92408e-08
-1.33562e-08
2.97057e-08
-1.70959e-08
3.0235e-08
-2.09201e-08
3.0829e-08
-2.4833e-08
3.14548e-08
-2.88339e-08
3.20753e-08
-3.2917e-08
3.26536e-08
-3.70719e-08
3.31558e-08
-4.12845e-08
3.35519e-08
-4.55375e-08
3.38161e-08
-4.98111e-08
3.39289e-08
-5.40843e-08
3.38753e-08
-5.8335e-08
3.36463e-08
-6.2541e-08
3.32363e-08
-6.66801e-08
3.26446e-08
-7.07309e-08
3.1873e-08
-7.46724e-08
3.09255e-08
-7.84845e-08
2.98076e-08
-8.21481e-08
2.85257e-08
-8.56447e-08
2.70863e-08
-8.89565e-08
2.54961e-08
-9.20663e-08
2.37614e-08
-9.49576e-08
2.18883e-08
-9.76143e-08
1.98824e-08
-1.00021e-07
1.7749e-08
-1.02162e-07
1.54929e-08
-1.04023e-07
1.31189e-08
-1.0559e-07
1.06312e-08
-1.06849e-07
8.03441e-09
-1.07786e-07
5.33263e-09
-1.08389e-07
2.5302e-09
-1.08645e-07
-3.6849e-10
-1.08542e-07
-3.35894e-09
-1.08069e-07
-6.43632e-09
-1.07215e-07
-9.59521e-09
-1.0597e-07
-1.28296e-08
-1.04325e-07
-1.61326e-08
-1.02273e-07
-1.94968e-08
-9.98053e-08
-2.29134e-08
-9.69172e-08
-2.6373e-08
-9.36039e-08
-2.98647e-08
-8.98628e-08
-3.33768e-08
-8.56925e-08
-3.6896e-08
-8.10936e-08
-4.04082e-08
-7.60687e-08
-4.38981e-08
-7.06222e-08
-4.73493e-08
-6.47609e-08
-5.07445e-08
-5.84935e-08
-5.40653e-08
-5.18312e-08
-5.72928e-08
-4.47876e-08
-6.04077e-08
-3.73786e-08
-6.33899e-08
-2.96226e-08
-6.62194e-08
-2.15404e-08
-6.8876e-08
-1.31552e-08
-7.13398e-08
-4.49234e-09
-7.35915e-08
4.42059e-09
-7.56129e-08
1.3553e-08
-7.73869e-08
2.28737e-08
-7.88984e-08
3.23498e-08
-8.0135e-08
4.1946e-08
-8.10846e-08
5.16252e-08
-8.17416e-08
6.13542e-08
-8.21013e-08
7.10939e-08
-8.21634e-08
8.08085e-08
-8.19332e-08
9.04626e-08
-8.14201e-08
1.00023e-07
-8.06384e-08
1.09457e-07
-7.96077e-08
1.18736e-07
-7.8354e-08
1.27836e-07
-7.6908e-08
1.36734e-07
-7.53057e-08
1.45416e-07
-7.35875e-08
1.53871e-07
-7.17971e-08
1.62096e-07
-6.99798e-08
1.70093e-07
-6.81802e-08
1.7787e-07
-6.644e-08
1.85442e-07
-6.47946e-08
1.92826e-07
-6.32703e-08
2.00043e-07
-6.18808e-08
2.07112e-07
-6.06261e-08
2.1405e-07
-5.94914e-08
2.20869e-07
-5.84482e-08
2.27577e-07
-5.74562e-08
2.34175e-07
-5.6464e-08
2.40653e-07
-5.54076e-08
2.46993e-07
-5.4207e-08
2.53155e-07
-5.27658e-08
2.59077e-07
-5.09827e-08
2.64671e-07
-4.87824e-08
2.69845e-07
-4.616e-08
2.74522e-07
-4.32066e-08
2.78666e-07
-4.0097e-08
2.82282e-07
-3.704e-08
2.85417e-07
-3.42267e-08
2.88142e-07
-3.1805e-08
2.90545e-07
-2.98896e-08
2.92746e-07
-2.85856e-08
2.9495e-07
-2.80835e-08
-2.84213e-08
2.97464e-07
-2.56662e-09
2.36395e-08
-6.01898e-09
3.18307e-08
-9.5861e-09
3.28079e-08
-1.32255e-08
3.3345e-08
-1.69484e-08
3.39579e-08
-2.07647e-08
3.46453e-08
-2.4679e-08
3.53692e-08
-2.86904e-08
3.60867e-08
-3.27925e-08
3.67556e-08
-3.69739e-08
3.73373e-08
-4.12194e-08
3.77973e-08
-4.55102e-08
3.8107e-08
-4.98254e-08
3.8244e-08
-5.41425e-08
3.81924e-08
-5.84384e-08
3.79422e-08
-6.26899e-08
3.74878e-08
-6.68741e-08
3.68288e-08
-7.09689e-08
3.59678e-08
-7.4953e-08
3.49097e-08
-7.88063e-08
3.36609e-08
-8.25094e-08
3.22288e-08
-8.60437e-08
3.06207e-08
-8.93917e-08
2.88441e-08
-9.25362e-08
2.6906e-08
-9.54608e-08
2.48129e-08
-9.81495e-08
2.25711e-08
-1.00587e-07
2.01863e-08
-1.02758e-07
1.76638e-08
-1.04647e-07
1.50085e-08
-1.06242e-07
1.22256e-08
-1.07527e-07
9.31952e-09
-1.08489e-07
6.29511e-09
-1.09116e-07
3.15705e-09
-1.09395e-07
-8.98018e-11
-1.09313e-07
-3.44039e-09
-1.0886e-07
-6.88932e-09
-1.08025e-07
-1.04306e-08
-1.06797e-07
-1.40575e-08
-1.05167e-07
-1.77623e-08
-1.03128e-07
-2.15366e-08
-1.0067e-07
-2.53706e-08
-9.77899e-08
-2.92536e-08
-9.44813e-08
-3.31733e-08
-9.07415e-08
-3.71166e-08
-8.6569e-08
-4.10685e-08
-8.19641e-08
-4.50131e-08
-7.6929e-08
-4.89332e-08
-7.14681e-08
-5.28103e-08
-6.55877e-08
-5.66248e-08
-5.92966e-08
-6.03564e-08
-5.26058e-08
-6.39837e-08
-4.55287e-08
-6.74848e-08
-3.80812e-08
-7.08374e-08
-3.02818e-08
-7.40189e-08
-2.21512e-08
-7.70065e-08
-1.37128e-08
-7.97781e-08
-4.99234e-09
-8.2312e-08
3.98246e-09
-8.45877e-08
1.31805e-08
-8.65849e-08
2.25703e-08
-8.82882e-08
3.21177e-08
-8.96823e-08
4.17869e-08
-9.07538e-08
5.15413e-08
-9.1496e-08
6.13436e-08
-9.19036e-08
7.11562e-08
-9.19761e-08
8.09415e-08
-9.17184e-08
9.06628e-08
-9.11415e-08
1.00285e-07
-9.02605e-08
1.09775e-07
-8.90977e-08
1.19102e-07
-8.76815e-08
1.28241e-07
-8.60466e-08
1.37169e-07
-8.42334e-08
1.45869e-07
-8.22877e-08
1.54331e-07
-8.02593e-08
1.62552e-07
-7.82003e-08
1.70534e-07
-7.61625e-08
1.78288e-07
-7.41945e-08
1.85832e-07
-7.23379e-08
1.93185e-07
-7.06234e-08
2.00371e-07
-6.90671e-08
2.07413e-07
-6.76684e-08
2.14331e-07
-6.64094e-08
2.2114e-07
-6.52569e-08
2.27849e-07
-6.41654e-08
2.34462e-07
-6.30772e-08
2.40976e-07
-6.19209e-08
2.47373e-07
-6.06041e-08
2.53616e-07
-5.90086e-08
2.59634e-07
-5.7001e-08
2.65326e-07
-5.44744e-08
2.70577e-07
-5.14107e-08
2.75292e-07
-4.79218e-08
2.79426e-07
-4.42306e-08
2.82987e-07
-4.06017e-08
2.8603e-07
-3.72698e-08
2.88633e-07
-3.44073e-08
2.90882e-07
-3.21394e-08
2.92891e-07
-3.05939e-08
2.94898e-07
-3.00906e-08
-3.08605e-08
2.97337e-07
-2.52145e-09
2.6161e-08
-5.93226e-09
3.52415e-08
-9.46315e-09
3.63388e-08
-1.30738e-08
3.69557e-08
-1.67774e-08
3.76615e-08
-2.05845e-08
3.84524e-08
-2.45004e-08
3.92851e-08
-2.85239e-08
4.01101e-08
-3.26476e-08
4.08794e-08
-3.68594e-08
4.15491e-08
-4.11423e-08
4.20802e-08
-4.54761e-08
4.24408e-08
-4.98384e-08
4.26063e-08
-5.42052e-08
4.25592e-08
-5.8552e-08
4.2289e-08
-6.28546e-08
4.17904e-08
-6.70893e-08
4.10635e-08
-7.12333e-08
4.01118e-08
-7.52652e-08
3.89415e-08
-7.91643e-08
3.756e-08
-8.29113e-08
3.59758e-08
-8.64878e-08
3.41972e-08
-8.98761e-08
3.22324e-08
-9.30593e-08
3.00892e-08
-9.60211e-08
2.77747e-08
-9.87455e-08
2.52955e-08
-1.01217e-07
2.2658e-08
-1.03421e-07
1.98677e-08
-1.05343e-07
1.69301e-08
-1.06968e-07
1.38506e-08
-1.08282e-07
1.06342e-08
-1.09273e-07
7.28594e-09
-1.09927e-07
3.81103e-09
-1.10232e-07
2.14719e-10
-1.10175e-07
-3.4974e-09
-1.09745e-07
-7.31943e-09
-1.0893e-07
-1.12448e-08
-1.07722e-07
-1.52661e-08
-1.06109e-07
-1.93748e-08
-1.04084e-07
-2.35616e-08
-1.01639e-07
-2.78157e-08
-9.87674e-08
-3.21251e-08
-9.54644e-08
-3.64763e-08
-9.17265e-08
-4.08544e-08
-8.7552e-08
-4.52431e-08
-8.29407e-08
-4.96244e-08
-7.78947e-08
-5.39792e-08
-7.24179e-08
-5.8287e-08
-6.65166e-08
-6.25261e-08
-6.01993e-08
-6.66737e-08
-5.34768e-08
-7.07062e-08
-4.63624e-08
-7.45991e-08
-3.88721e-08
-7.83277e-08
-3.10242e-08
-8.18668e-08
-2.28396e-08
-8.51911e-08
-1.43418e-08
-8.82759e-08
-5.5568e-09
-9.1097e-08
3.48675e-09
-9.36312e-08
1.27589e-08
-9.5857e-08
2.22261e-08
-9.77554e-08
3.18537e-08
-9.93099e-08
4.16053e-08
-1.00505e-07
5.14433e-08
-1.01334e-07
6.13292e-08
-1.01789e-07
7.12241e-08
-1.01871e-07
8.10892e-08
-1.01584e-07
9.08865e-08
-1.00939e-07
1.00579e-07
-9.99531e-08
1.10132e-07
-9.86511e-08
1.19515e-07
-9.7064e-08
1.28698e-07
-9.52301e-08
1.3766e-07
-9.31946e-08
1.46381e-07
-9.10089e-08
1.54851e-07
-8.87296e-08
1.63067e-07
-8.6416e-08
1.71032e-07
-8.41282e-08
1.7876e-07
-8.19225e-08
1.8627e-07
-7.98477e-08
1.93587e-07
-7.79398e-08
2.00737e-07
-7.62175e-08
2.07748e-07
-7.46793e-08
2.14643e-07
-7.33039e-08
2.21439e-07
-7.20529e-08
2.28148e-07
-7.0875e-08
2.34779e-07
-6.97078e-08
2.41331e-07
-6.84735e-08
2.47796e-07
-6.70684e-08
2.54136e-07
-6.53489e-08
2.60275e-07
-6.31401e-08
2.6609e-07
-6.02898e-08
2.7144e-07
-5.67601e-08
2.76205e-07
-5.26866e-08
2.80328e-07
-4.8354e-08
2.83824e-07
-4.40982e-08
2.86759e-07
-4.02048e-08
2.89219e-07
-3.68675e-08
2.91289e-07
-3.42085e-08
2.93053e-07
-3.23581e-08
2.9477e-07
-3.18083e-08
-3.31088e-08
2.97019e-07
-2.46924e-09
2.86302e-08
-5.8322e-09
3.86044e-08
-9.32149e-09
3.98281e-08
-1.28993e-08
4.05334e-08
-1.65806e-08
4.13428e-08
-2.03774e-08
4.22492e-08
-2.42951e-08
4.32028e-08
-2.83323e-08
4.41473e-08
-3.24809e-08
4.50279e-08
-3.67271e-08
4.57953e-08
-4.10524e-08
4.64056e-08
-4.54349e-08
4.68234e-08
-4.98502e-08
4.70216e-08
-5.42727e-08
4.69817e-08
-5.86765e-08
4.66928e-08
-6.30362e-08
4.615e-08
-6.7327e-08
4.53543e-08
-7.15258e-08
4.43106e-08
-7.56104e-08
4.30261e-08
-7.95603e-08
4.15099e-08
-8.33559e-08
3.97714e-08
-8.69789e-08
3.78202e-08
-9.04118e-08
3.56653e-08
-9.36378e-08
3.33151e-08
-9.66406e-08
3.07775e-08
-9.94045e-08
2.80595e-08
-1.01914e-07
2.51677e-08
-1.04155e-07
2.21083e-08
-1.06112e-07
1.88871e-08
-1.07771e-07
1.55097e-08
-1.09119e-07
1.19817e-08
-1.10141e-07
8.30834e-09
-1.10825e-07
4.49526e-09
-1.11159e-07
5.48099e-10
-1.11129e-07
-3.52708e-09
-1.10724e-07
-7.72389e-09
-1.09934e-07
-1.20352e-08
-1.08747e-07
-1.6453e-08
-1.07154e-07
-2.09681e-08
-1.05145e-07
-2.55701e-08
-1.02714e-07
-3.02473e-08
-9.98525e-08
-3.49865e-08
-9.6556e-08
-3.97728e-08
-9.28206e-08
-4.45899e-08
-8.8644e-08
-4.94197e-08
-8.40259e-08
-5.42425e-08
-7.89679e-08
-5.90372e-08
-7.34738e-08
-6.37811e-08
-6.75494e-08
-6.84504e-08
-6.12032e-08
-7.302e-08
-5.44457e-08
-7.74637e-08
-4.72901e-08
-8.17547e-08
-3.97523e-08
-8.58656e-08
-3.18506e-08
-8.97685e-08
-2.36061e-08
-9.34357e-08
-1.50423e-08
-9.68396e-08
-6.18568e-09
-9.99536e-08
2.93495e-09
-1.02752e-07
1.22888e-08
-1.05211e-07
2.18419e-08
-1.07309e-07
3.15578e-08
-1.09026e-07
4.14024e-08
-1.1035e-07
5.13334e-08
-1.11265e-07
6.1313e-08
-1.11769e-07
7.13e-08