/*--------------------------------*- C++ -*----------------------------------*\
| =========                 |                                                 |
| \\      /  F ield         | OpenFOAM: The Open Source CFD Toolbox           |
|  \\    /   O peration     | Version:  2.4.0                                 |
|   \\  /    A nd           | Web:      www.OpenFOAM.org                      |
|    \\/     M anipulation  |                                                 |
\*---------------------------------------------------------------------------*/
FoamFile
{
    version     2.0;
    format      ascii;
    class       volVectorField;
    location    "0.198";
    object      U;
}
// * * * * * * * * * * * * * * * * * * * * * * * * * * * * * * * * * * * * * //

dimensions      [0 1 -1 0 0 0 0];

internalField   nonuniform List<vector> 
14400
(
(0.00601895 -0.000723581 0)
(0.0130011 -7.72115e-05 0)
(0.0133656 -1.22847e-06 0)
(0.0155937 9.49216e-05 0)
(0.00906331 0.000158526 0)
(0.000749698 8.32213e-05 0)
(-0.00528219 2.1522e-05 0)
(-0.00953725 -4.30853e-05 0)
(-0.0105818 -8.23936e-05 0)
(-0.00949243 -8.21156e-05 0)
(-0.00716795 -8.35654e-05 0)
(-0.00419277 -7.32011e-05 0)
(-0.00158667 -4.92806e-05 0)
(0.000263605 -2.50531e-05 0)
(0.00135038 -2.88215e-06 0)
(0.00187646 1.29885e-05 0)
(0.00205647 2.14705e-05 0)
(0.002049 2.49065e-05 0)
(0.00194339 2.45965e-05 0)
(0.00179399 2.3113e-05 0)
(0.0016297 2.10082e-05 0)
(0.00146396 1.85811e-05 0)
(0.00130028 1.63932e-05 0)
(0.0011381 1.48227e-05 0)
(0.00097537 1.38919e-05 0)
(0.000812128 1.33166e-05 0)
(0.000650827 1.29443e-05 0)
(0.000494703 1.2941e-05 0)
(0.000347666 1.24347e-05 0)
(0.0002114 1.23378e-05 0)
(0.00597581 -0.00228346 0)
(0.0259763 -0.00135619 0)
(0.0352066 -0.000446356 0)
(0.0490337 0.000178707 0)
(0.0448802 0.00130092 0)
(0.0318243 0.00151013 0)
(0.0172655 0.00141124 0)
(0.00230313 0.00113575 0)
(-0.00841413 0.000537383 0)
(-0.0140375 7.56872e-06 0)
(-0.0148569 -0.000671535 0)
(-0.011972 -0.000966178 0)
(-0.00818076 -0.000917444 0)
(-0.00481029 -0.000729113 0)
(-0.00228901 -0.000519461 0)
(-0.000509791 -0.000351093 0)
(0.000739097 -0.000225024 0)
(0.00160897 -0.000132823 0)
(0.00219389 -6.39716e-05 0)
(0.00256154 -1.04988e-05 0)
(0.00276563 3.38658e-05 0)
(0.00284391 7.33345e-05 0)
(0.0028183 0.000112981 0)
(0.00270158 0.000156035 0)
(0.0025032 0.000202213 0)
(0.00223634 0.000247247 0)
(0.00192082 0.000286365 0)
(0.00158009 0.000316021 0)
(0.00123479 0.000336053 0)
(0.000902001 0.000347499 0)
(0.005392 -0.0037092 0)
(0.0247069 -0.00314715 0)
(0.0358479 -0.00113417 0)
(0.0533998 -0.000154195 0)
(0.0521265 0.00211302 0)
(0.0417609 0.00284276 0)
(0.0295652 0.00293997 0)
(0.0163676 0.00271747 0)
(0.0065115 0.00176993 0)
(0.000589705 0.000746439 0)
(-0.00204121 -0.000639453 0)
(-0.00176506 -0.0013932 0)
(-0.000182772 -0.00148063 0)
(0.0015763 -0.00125803 0)
(0.00299219 -0.000962012 0)
(0.00398771 -0.000713912 0)
(0.00464043 -0.000512589 0)
(0.00501812 -0.000349837 0)
(0.00518054 -0.000215659 0)
(0.00518006 -0.000101807 0)
(0.00506375 -2.57127e-06 0)
(0.00486002 9.1839e-05 0)
(0.00458588 0.000191413 0)
(0.00424426 0.00030337 0)
(0.0038342 0.000427549 0)
(0.00335859 0.000554307 0)
(0.00283034 0.000668975 0)
(0.00227206 0.000760434 0)
(0.00170995 0.000824272 0)
(0.00116891 0.000860125 0)
(0.0052553 -0.00505561 0)
(0.0239781 -0.00498385 0)
(0.0346701 -0.00183988 0)
(0.0531464 -0.000556428 0)
(0.0522263 0.0027577 0)
(0.0425897 0.00392258 0)
(0.031633 0.00417529 0)
(0.019971 0.00400258 0)
(0.0121102 0.00274207 0)
(0.00797975 0.00131298 0)
(0.00628684 -0.000466267 0)
(0.00623685 -0.00152877 0)
(0.00720458 -0.00175975 0)
(0.00839973 -0.00154817 0)
(0.00930651 -0.00119079 0)
(0.00974877 -0.00085055 0)
(0.00976604 -0.000557745 0)
(0.00947005 -0.000311201 0)
(0.00897282 -0.000104999 0)
(0.00835919 6.80922e-05 0)
(0.00769008 0.000218418 0)
(0.00700127 0.000358544 0)
(0.00631161 0.00050671 0)
(0.00562267 0.000677647 0)
(0.00492599 0.000874805 0)
(0.00421205 0.00108636 0)
(0.00347909 0.00128829 0)
(0.00273803 0.0014573 0)
(0.00200878 0.00157865 0)
(0.00131279 0.00164851 0)
(0.00529312 -0.00638697 0)
(0.0240093 -0.00683891 0)
(0.0342864 -0.00255943 0)
(0.0533273 -0.000963283 0)
(0.0522023 0.0033966 0)
(0.0424853 0.00494425 0)
(0.031776 0.00530683 0)
(0.0202223 0.00515235 0)
(0.0129739 0.00353495 0)
(0.00964478 0.00165777 0)
(0.00875528 -0.000399566 0)
(0.00906643 -0.00165684 0)
(0.0101239 -0.00199262 0)
(0.0112946 -0.00178192 0)
(0.0120775 -0.0013399 0)
(0.0122891 -0.000860638 0)
(0.0119786 -0.000433924 0)
(0.0113104 -7.73806e-05 0)
(0.0104452 0.000212842 0)
(0.00948821 0.000448886 0)
(0.00850441 0.000646854 0)
(0.00753802 0.000824474 0)
(0.00661075 0.00100626 0)
(0.00573231 0.00121349 0)
(0.00490107 0.00145631 0)
(0.00410961 0.0017244 0)
(0.00335083 0.00198964 0)
(0.00262292 0.00221865 0)
(0.00193142 0.00238726 0)
(0.00128452 0.00248657 0)
(0.00538161 -0.00771988 0)
(0.0242072 -0.00871881 0)
(0.0341316 -0.00328643 0)
(0.0538456 -0.00139044 0)
(0.0524434 0.00405523 0)
(0.0425283 0.00596567 0)
(0.0319116 0.00642854 0)
(0.0199866 0.0062864 0)
(0.0127397 0.00428295 0)
(0.009606 0.00193029 0)
(0.0089969 -0.00041735 0)
(0.00960458 -0.00183396 0)
(0.0108678 -0.00224573 0)
(0.0121531 -0.00201563 0)
(0.0129415 -0.0014652 0)
(0.0130717 -0.000816825 0)
(0.0126278 -0.00023258 0)
(0.0118079 0.000245742 0)
(0.0107937 0.000624376 0)
(0.00969534 0.000927004 0)
(0.00857903 0.00117434 0)
(0.00748469 0.00138936 0)
(0.00644031 0.00159836 0)
(0.0054646 0.0018261 0)
(0.00456811 0.00208619 0)
(0.00375466 0.00237175 0)
(0.00302022 0.0026566 0)
(0.00235725 0.00290585 0)
(0.00175754 0.00309185 0)
(0.00121391 0.00320346 0)
(0.00549117 -0.00905746 0)
(0.0244554 -0.010629 0)
(0.0339818 -0.00401586 0)
(0.0545306 -0.00185089 0)
(0.0527962 0.00473414 0)
(0.0426462 0.00699055 0)
(0.032158 0.00755803 0)
(0.0197 0.00743611 0)
(0.0123186 0.00502923 0)
(0.00924516 0.00219686 0)
(0.00870557 -0.000475802 0)
(0.00950112 -0.00205966 0)
(0.0109721 -0.00253318 0)
(0.0124244 -0.00226542 0)
(0.0132795 -0.00159038 0)
(0.0133961 -0.000754308 0)
(0.0128996 -1.28529e-06 0)
(0.0120164 0.000603244 0)
(0.0109424 0.00107248 0)
(0.00978854 0.0014432 0)
(0.00861684 0.00174425 0)
(0.00746512 0.00200099 0)
(0.00636314 0.00223805 0)
(0.00533574 0.00248024 0)
(0.00440196 0.00274141 0)
(0.00357303 0.00301757 0)
(0.00284872 0.00328868 0)
(0.00222012 0.00352463 0)
(0.00167223 0.00370183 0)
(0.00118796 0.00381058 0)
(0.00561677 -0.0104003 0)
(0.0247373 -0.0125752 0)
(0.0338016 -0.00474521 0)
(0.0553532 -0.00235359 0)
(0.0532178 0.0054354 0)
(0.0427861 0.00801659 0)
(0.032493 0.00869779 0)
(0.0193672 0.00860728 0)
(0.0118207 0.00578161 0)
(0.00881481 0.00247079 0)
(0.00831145 -0.000562605 0)
(0.00925719 -0.00233391 0)
(0.0109427 -0.0028606 0)
(0.0125994 -0.00253949 0)
(0.0135575 -0.00172793 0)
(0.0136847 -0.000686298 0)
(0.0131577 0.000245114 0)
(0.01223 0.000978296 0)
(0.0111188 0.00153625 0)
(0.00993592 0.00197636 0)
(0.00873658 0.00233278 0)
(0.00755792 0.00263436 0)
(0.00642938 0.00290119 0)
(0.00537736 0.00315634 0)
(0.00442467 0.00341222 0)
(0.00358322 0.00366864 0)
(0.00285394 0.00391192 0)
(0.00222774 0.00411993 0)
(0.00168726 0.00427641 0)
(0.00121314 0.00437593 0)
(0.0057574 -0.011749 0)
(0.025046 -0.0145627 0)
(0.0335868 -0.00547145 0)
(0.0563125 -0.00290813 0)
(0.0537005 0.00616226 0)
(0.0429305 0.00904115 0)
(0.0329237 0.00985081 0)
(0.0189741 0.0098013 0)
(0.0112405 0.0065412 0)
(0.00833829 0.00275204 0)
(0.0078797 -0.00067903 0)
(0.00897191 -0.0026623 0)
(0.0108917 -0.00323462 0)
(0.0127917 -0.00284275 0)
(0.0138815 -0.00188503 0)
(0.0140261 -0.000616012 0)
(0.0134643 0.00050628 0)
(0.0124879 0.00136854 0)
(0.0113414 0.00201225 0)
(0.0101343 0.00251997 0)
(0.00891619 0.00293219 0)
(0.0077207 0.00327807 0)
(0.00657758 0.00357553 0)
(0.00551373 0.00384222 0)
(0.00455121 0.00409205 0)
(0.0036996 0.00432818 0)
(0.00295853 0.00454285 0)
(0.0023179 0.00472268 0)
(0.00176079 0.00485894 0)
(0.00126946 0.00494898 0)
(0.00591347 -0.0131042 0)
(0.0253697 -0.0165964 0)
(0.0333393 -0.00618985 0)
(0.0574092 -0.00352625 0)
(0.0542413 0.00691812 0)
(0.043067 0.0100609 0)
(0.0334685 0.0110223 0)
(0.0185132 0.0110177 0)
(0.0105658 0.00730779 0)
(0.00781782 0.00303919 0)
(0.00741097 -0.00083037 0)
(0.00865372 -0.00305539 0)
(0.0108336 -0.00366341 0)
(0.0130212 -0.00317921 0)
(0.0142747 -0.00206775 0)
(0.0144359 -0.000542216 0)
(0.0138278 0.000787228 0)
(0.0127873 0.00177543 0)
(0.0115995 0.00250081 0)
(0.0103692 0.0030716 0)
(0.00913473 0.00353964 0)
(0.00792339 0.00392984 0)
(0.00676644 0.00425665 0)
(0.00569251 0.00453441 0)
(0.00472022 0.00477896 0)
(0.00385757 0.0049976 0)
(0.00310126 0.00518865 0)
(0.00244 0.00534647 0)
(0.00185843 0.00546749 0)
(0.00134127 0.00555121 0)
(0.00608548 -0.0144671 0)
(0.0256888 -0.0186805 0)
(0.0330655 -0.00689251 0)
(0.05864 -0.00422317 0)
(0.0548387 0.00770674 0)
(0.0431786 0.0110715 0)
(0.034149 0.0122204 0)
(0.0179776 0.0122544 0)
(0.00978337 0.00808027 0)
(0.00725937 0.00333114 0)
(0.00690124 -0.00102447 0)
(0.00829724 -0.00352726 0)
(0.0107671 -0.00415826 0)
(0.0132925 -0.00355215 0)
(0.0147488 -0.00228396 0)
(0.014922 -0.000464032 0)
(0.0142501 0.00109364 0)
(0.0131264 0.00220388 0)
(0.0118879 0.00300237 0)
(0.0106371 0.00363076 0)
(0.00938606 0.00415505 0)
(0.00815416 0.00459107 0)
(0.0069779 0.00494623 0)
(0.00588821 0.00523442 0)
(0.00490277 0.00547418 0)
(0.00402586 0.00567879 0)
(0.00325209 0.00585214 0)
(0.00256933 0.0059946 0)
(0.00196341 0.00610555 0)
(0.00142085 0.00618615 0)
(0.00627471 -0.0158397 0)
(0.0259686 -0.0208182 0)
(0.0327814 -0.00756608 0)
(0.0599931 -0.00502007 0)
(0.0554915 0.0085308 0)
(0.0432401 0.0120671 0)
(0.0349823 0.0134584 0)
(0.0173599 0.0135077 0)
(0.00887467 0.00885603 0)
(0.00667314 0.00362727 0)
(0.00634647 -0.00126717 0)
(0.0078954 -0.0040908 0)
(0.010689 -0.00473398 0)
(0.0136081 -0.00396436 0)
(0.015319 -0.00254361 0)
(0.0154931 -0.000379829 0)
(0.014734 0.00143653 0)
(0.0135022 0.00265903 0)
(0.0122021 0.00351787 0)
(0.0109374 0.00419667 0)
(0.00967046 0.00478018 0)
(0.00841233 0.00526594 0)
(0.00720672 0.00564924 0)
(0.00609213 0.00594638 0)
(0.00508674 0.00618144 0)
(0.00419239 0.00637373 0)
(0.00340077 0.00653341 0)
(0.00269859 0.00666516 0)
(0.00207158 0.00677043 0)
(0.00150701 0.00685126 0)
(0.00648254 -0.0172248 0)
(0.0261505 -0.0230121 0)
(0.0325157 -0.00818795 0)
(0.0614433 -0.00594787 0)
(0.0562007 0.00939487 0)
(0.0432074 0.0130382 0)
(0.0359612 0.0147576 0)
(0.0166517 0.0147722 0)
(0.00781291 0.00962999 0)
(0.00607461 0.00392798 0)
(0.00574139 -0.0015662 0)
(0.00744082 -0.00475504 0)
(0.010595 -0.00540223 0)
(0.0139691 -0.004417 0)
(0.0160018 -0.00285977 0)
(0.0161642 -0.000288461 0)
(0.0152814 0.00183053 0)
(0.0139111 0.0031478 0)
(0.0125351 0.00404609 0)
(0.0112722 0.00476576 0)
(0.00999099 0.00541706 0)
(0.00869697 0.00595936 0)
(0.0074506 0.00637237 0)
(0.00630067 0.00667624 0)
(0.00526844 0.00690434 0)
(0.00435291 0.0070841 0)
(0.00354259 0.00723161 0)
(0.0028226 0.007355 0)
(0.00217847 0.00745746 0)
(0.00159758 0.00754052 0)
(0.0067127 -0.0186264 0)
(0.0261267 -0.0252637 0)
(0.0323169 -0.00871853 0)
(0.0629431 -0.00705551 0)
(0.0569724 0.0103041 0)
(0.0430163 0.0139671 0)
(0.037011 0.0161536 0)
(0.0158412 0.0160449 0)
(0.00655657 0.0103918 0)
(0.00548674 0.00423873 0)
(0.00507528 -0.00192535 0)
(0.00692279 -0.00552854 0)
(0.010483 -0.00617248 0)
(0.0143757 -0.00490809 0)
(0.016819 -0.00325035 0)
(0.0169514 -0.000190351 0)
(0.015893 0.0022968 0)
(0.0143514 0.00367662 0)
(0.0128777 0.00458401 0)
(0.01165 0.00533121 0)
(0.0103551 0.00606919 0)
(0.00901081 0.006679 0)
(0.00770821 0.00712318 0)
(0.00651184 0.00742995 0)
(0.00544578 0.00764678 0)
(0.00450656 0.0078113 0)
(0.00367885 0.0079459 0)
(0.00294443 0.00806125 0)
(0.00228732 0.00816083 0)
(0.0016951 0.0082458 0)
(0.00697092 -0.0200506 0)
(0.0256893 -0.0275733 0)
(0.0322756 -0.00908153 0)
(0.0643931 -0.00842991 0)
(0.0578278 0.0112706 0)
(0.042623 0.014822 0)
(0.0379617 0.0176981 0)
(0.0148967 0.0173325 0)
(0.0050386 0.0111196 0)
(0.00494522 0.00457819 0)
(0.00433499 -0.00235002 0)
(0.00632246 -0.00642285 0)
(0.0103529 -0.00705512 0)
(0.0148326 -0.00543221 0)
(0.0177943 -0.0037391 0)
(0.0178801 -8.73461e-05 0)
(0.0165643 0.00286774 0)
(0.0148288 0.00425199 0)
(0.0132162 0.00512387 0)
(0.0120924 0.00588207 0)
(0.0107766 0.00674372 0)
(0.00935739 0.0074352 0)
(0.00797886 0.00791092 0)
(0.00672182 0.00821429 0)
(0.00561349 0.00841227 0)
(0.00464866 0.00855454 0)
(0.00380742 0.00867187 0)
(0.00306604 0.00877764 0)
(0.00240319 0.00887514 0)
(0.00180336 0.00896367 0)
(0.00726733 -0.0215062 0)
(0.0244183 -0.0299405 0)
(0.0325709 -0.00910522 0)
(0.0655573 -0.0102542 0)
(0.0587996 0.0123162 0)
(0.0420917 0.0155622 0)
(0.0387089 0.0194402 0)
(0.0137132 0.0186714 0)
(0.00316051 0.0117676 0)
(0.0044975 0.00498219 0)
(0.00350535 -0.00285004 0)
(0.00561405 -0.00745181 0)
(0.0102111 -0.00806084 0)
(0.0153637 -0.00597613 0)
(0.0189448 -0.00436047 0)
(0.0189867 1.73265e-05 0)
(0.0172791 0.00358221 0)
(0.015384 0.00488036 0)
(0.0135334 0.00565023 0)
(0.0126757 0.00639948 0)
(0.0112909 0.00746108 0)
(0.00974253 0.00824331 0)
(0.0082612 0.00874747 0)
(0.00692669 0.00903742 0)
(0.00576784 0.00920478 0)
(0.00477383 0.00931385 0)
(0.00391898 0.00940482 0)
(0.00317371 0.00949656 0)
(0.00251188 0.0095921 0)
(0.00191483 0.0096869 0)
(0.00762074 -0.0230051 0)
(0.0215552 -0.0323651 0)
(0.0334404 -0.0083877 0)
(0.0658975 -0.0129378 0)
(0.0599142 0.0134749 0)
(0.0415684 0.0161665 0)
(0.039628 0.0213757 0)
(0.012053 0.0201529 0)
(0.000855461 0.0122439 0)
(0.00421398 0.0055102 0)
(0.00248883 -0.00341961 0)
(0.0048054 -0.00862964 0)
(0.0100828 -0.00920321 0)
(0.0159067 -0.00650695 0)
(0.0202794 -0.00516627 0)
(0.0202857 0.000122169 0)
(0.0180248 0.00446976 0)
(0.0161296 0.00557936 0)
(0.0138352 0.00611604 0)
(0.0136201 0.00685765 0)
(0.0119855 0.0082841 0)
(0.0101739 0.00913198 0)
(0.00854929 0.00964751 0)
(0.00711635 0.00990817 0)
(0.00589458 0.0100291 0)
(0.0048714 0.0100901 0)
(0.00400687 0.0101455 0)
(0.00326036 0.0102153 0)
(0.00260584 0.0103011 0)
(0.00202424 0.0103955 0)
(0.0080653 -0.024561 0)
(0.016429 -0.0348544 0)
(0.0347032 -0.00621486 0)
(0.063423 -0.0172131 0)
(0.0611859 0.0147993 0)
(0.041043 0.0166553 0)
(0.041534 0.0234355 0)
(0.00967021 0.0219127 0)
(-0.00161642 0.0123967 0)
(0.00412376 0.0062873 0)
(0.00127104 -0.00403737 0)
(0.00386577 -0.00999022 0)
(0.00991837 -0.0104684 0)
(0.0164172 -0.00700576 0)
(0.0217606 -0.00621722 0)
(0.0217918 0.000243452 0)
(0.018868 0.00549814 0)
(0.0172159 0.00642205 0)
(0.0140909 0.00640957 0)
(0.0150632 0.0072199 0)
(0.0129239 0.00934947 0)
(0.010651 0.0101503 0)
(0.00884269 0.0106304 0)
(0.00728146 0.0108414 0)
(0.005984 0.0108884 0)
(0.00493702 0.0108757 0)
(0.00408001 0.0108821 0)
(0.00335352 0.0109237 0)
(0.00272002 0.0109917 0)
(0.00215647 0.0110793 0)
(0.00864864 -0.026184 0)
(0.0106513 -0.0374423 0)
(0.0368068 -0.0022422 0)
(0.0445077 -0.0235154 0)
(0.062586 0.016345 0)
(0.0403208 0.017054 0)
(0.0447331 0.0255846 0)
(0.00694675 0.0240515 0)
(-0.00324335 0.0120758 0)
(0.00405997 0.00752487 0)
(-0.000176165 -0.00478303 0)
(0.00261975 -0.0115239 0)
(0.00975822 -0.0118299 0)
(0.0166474 -0.00754291 0)
(0.0230913 -0.00753157 0)
(0.0234953 0.000369099 0)
(0.0201074 0.0065235 0)
(0.0186657 0.00759259 0)
(0.0138457 0.00659457 0)
(0.0159866 0.00733986 0)
(0.0137549 0.0107171 0)
(0.0110991 0.0113367 0)
(0.00911113 0.011708 0)
(0.00741544 0.0118481 0)
(0.00603302 0.0117853 0)
(0.00495726 0.0116643 0)
(0.00411809 0.0115938 0)
(0.00343618 0.0115963 0)
(0.00284482 0.0116538 0)
(0.00230745 0.0117464 0)
(0.00939822 -0.0278811 0)
(0.0099986 -0.0402099 0)
(0.045549 0.00204993 0)
(0.0109192 -0.0303413 0)
(0.0639153 0.0181197 0)
(0.0393418 0.0173509 0)
(0.0487089 0.0279109 0)
(0.00502711 0.0265331 0)
(-0.00271244 0.0112364 0)
(0.00370032 0.00925295 0)
(-0.0023559 -0.00567662 0)
(0.00138858 -0.013257 0)
(0.00991055 -0.0131913 0)
(0.0170457 -0.00801695 0)
(0.0242187 -0.00945064 0)
(0.025523 0.000537696 0)
(0.0222252 0.00735488 0)
(0.0202329 0.0094008 0)
(0.0131881 0.00719909 0)
(0.0149542 0.00703741 0)
(0.0135211 0.0119708 0)
(0.0114493 0.0126188 0)
(0.00935423 0.0128797 0)
(0.00746777 0.0129419 0)
(0.00596891 0.0127286 0)
(0.00487775 0.0124514 0)
(0.00407127 0.0122681 0)
(0.00343972 0.0122136 0)
(0.00290771 0.0122609 0)
(0.00243197 0.0123669 0)
(0.0102595 -0.0296916 0)
(0.0166697 -0.043121 0)
(0.0440149 0.00227303 0)
(0.0580499 -0.0336193 0)
(0.0671818 0.0206977 0)
(0.0381726 0.0175538 0)
(0.0530461 0.0306115 0)
(-0.00017166 0.0292463 0)
(-6.65829e-05 0.0103541 0)
(0.00142522 0.0113226 0)
(-0.00482933 -0.00703955 0)
(-0.000381491 -0.0150316 0)
(0.0105183 -0.0144917 0)
(0.0165054 -0.00791855 0)
(0.0262147 -0.0129088 0)
(0.0276981 0.000724133 0)
(0.0257628 0.00801577 0)
(0.0219536 0.01206 0)
(0.0146787 0.00833407 0)
(0.0133926 0.00702924 0)
(0.0114998 0.0122798 0)
(0.0118638 0.0136989 0)
(0.00975625 0.0141928 0)
(0.00749613 0.0141881 0)
(0.00583373 0.0137113 0)
(0.00477517 0.0132068 0)
(0.00404038 0.012896 0)
(0.00346679 0.0127746 0)
(0.0029887 0.0127927 0)
(0.00257378 0.0128934 0)
(0.0111178 -0.0318664 0)
(0.0230175 -0.0441529 0)
(0.0228095 -0.000272073 0)
(0.0142508 -0.0349259 0)
(0.0692736 0.0245333 0)
(0.0361315 0.0177342 0)
(0.0566391 0.0334877 0)
(-0.00462165 0.0327401 0)
(0.00260988 0.00997186 0)
(-0.00169439 0.013222 0)
(-0.00853361 -0.00887043 0)
(-0.00194664 -0.0169457 0)
(0.0113867 -0.0156612 0)
(0.014903 -0.0062863 0)
(0.0306657 -0.0192552 0)
(0.0309682 0.000715881 0)
(0.0304671 0.00875558 0)
(0.02433 0.0151647 0)
(0.0200721 0.00970487 0)
(0.0145083 0.00913768 0)
(0.00854984 0.0111289 0)
(0.0125659 0.0141495 0)
(0.0104509 0.0157602 0)
(0.00759918 0.0156796 0)
(0.00572885 0.0147191 0)
(0.00478099 0.013871 0)
(0.00422013 0.01343 0)
(0.00375938 0.0132747 0)
(0.00331033 0.0132886 0)
(0.00286451 0.0133946 0)
(0.012345 -0.0342786 0)
(0.0157073 -0.0421907 0)
(0.0247249 -0.00570407 0)
(0.0248656 -0.0332438 0)
(0.0556237 0.0268376 0)
(0.0312011 0.0177789 0)
(0.0566443 0.0370507 0)
(-0.00607697 0.0351087 0)
(-0.00159538 0.0103333 0)
(-0.00991213 0.0145287 0)
(-0.0123291 -0.0116799 0)
(-0.00489376 -0.0188058 0)
(0.0120174 -0.0171086 0)
(0.0108143 -0.00171836 0)
(0.0300959 -0.0301605 0)
(0.034414 8.08796e-05 0)
(0.0353757 0.0100385 0)
(0.0280657 0.0174339 0)
(0.028073 0.0112019 0)
(0.0194261 0.0142123 0)
(0.00838554 0.00958806 0)
(0.0138454 0.0138366 0)
(0.01135 0.0177349 0)
(0.00771055 0.0174894 0)
(0.00569454 0.0156988 0)
(0.00500235 0.014333 0)
(0.00469587 0.0137837 0)
(0.00435771 0.0137021 0)
(0.00388806 0.0138381 0)
(0.0033118 0.0140413 0)
(0.014234 -0.0366818 0)
(0.0233281 -0.0367579 0)
(0.0153104 -0.0151473 0)
(0.0277659 -0.0280433 0)
(0.0181494 0.0259051 0)
(0.0287863 0.0181624 0)
(0.0585045 0.0411513 0)
(-0.0216589 0.0389381 0)
(-0.00342138 0.0118644 0)
(-0.0152907 0.0148177 0)
(-0.0174063 -0.0156851 0)
(-0.00710451 -0.0208766 0)
(0.0120202 -0.0190243 0)
(0.00618451 0.00582117 0)
(0.000292904 -0.0452195 0)
(0.0332382 -0.00157611 0)
(0.0385405 0.0115957 0)
(0.0311656 0.0171992 0)
(0.0366419 0.0132851 0)
(0.0256718 0.0208155 0)
(0.0161591 0.0105255 0)
(0.0161565 0.0130361 0)
(0.0124055 0.0202874 0)
(0.00811199 0.0195727 0)
(0.0062045 0.0165186 0)
(0.00576083 0.0145662 0)
(0.00547091 0.0140359 0)
(0.00502199 0.014151 0)
(0.00442694 0.0145148 0)
(0.00372446 0.014894 0)
(0.0172772 -0.0392677 0)
(0.021632 -0.0295941 0)
(0.0285729 -0.0251404 0)
(-0.0325835 -0.0222881 0)
(-0.030561 0.0220811 0)
(-0.0312883 0.016513 0)
(0.00475917 0.0440354 0)
(-0.0477563 0.042456 0)
(-0.0279434 0.013402 0)
(-0.0298036 0.0136877 0)
(-0.0222082 -0.020381 0)
(-0.0109088 -0.0230621 0)
(0.0124902 -0.021758 0)
(0.00153507 0.010218 0)
(-0.0207744 -0.0527906 0)
(0.0294185 -0.00353235 0)
(0.0400989 0.0114414 0)
(0.0257669 0.0165657 0)
(0.0363501 0.014269 0)
(0.0287419 0.0265039 0)
(0.0173526 0.0155321 0)
(0.0129645 0.0124794 0)
(0.0122547 0.0230449 0)
(0.00949725 0.0215717 0)
(0.00812344 0.0171823 0)
(0.00748891 0.0148523 0)
(0.00663108 0.0145729 0)
(0.00560672 0.0148966 0)
(0.00469965 0.0153608 0)
(0.00393906 0.0158092 0)
(0.0175796 -0.0421962 0)
(0.0253088 -0.0219985 0)
(-0.0290331 -0.0282594 0)
(-0.304392 -0.00653878 0)
(-0.0781738 0.0121227 0)
(-0.166062 0.0241158 0)
(-0.162626 0.0354642 0)
(-0.0834104 0.0426645 0)
(-0.0412134 0.0147334 0)
(-0.0322572 0.0108268 0)
(-0.0318619 -0.0279347 0)
(-0.0151538 -0.025486 0)
(0.0123443 -0.0233161 0)
(-0.0087772 0.00573413 0)
(-0.00269657 -0.0501455 0)
(0.0268272 -0.00446625 0)
(0.0445916 0.00782797 0)
(0.0194191 0.0218242 0)
(0.0264172 0.0120397 0)
(0.0286789 0.029007 0)
(0.0218104 0.0234908 0)
(0.0104146 0.0125262 0)
(0.011572 0.0239394 0)
(0.011798 0.022388 0)
(0.0118452 0.0178801 0)
(0.0106083 0.0157573 0)
(0.00879204 0.0159175 0)
(0.00661341 0.0162006 0)
(0.0049477 0.0164118 0)
(0.00406825 0.0166701 0)
(0.0100824 -0.0429258 0)
(0.0403273 -0.0167922 0)
(0.0434256 -0.00242599 0)
(-0.493033 0.0022666 0)
(-0.28562 -0.0229384 0)
(-0.212308 0.0430703 0)
(-0.12606 -0.00115961 0)
(-0.114527 0.056563 0)
(-0.0562742 0.0158662 0)
(-0.0648209 0.00541004 0)
(-0.0383003 -0.0341608 0)
(-0.0175551 -0.0286921 0)
(0.0117671 -0.0231924 0)
(0.0077221 -0.00284817 0)
(0.0293217 -0.0466335 0)
(0.0300641 -0.00627725 0)
(0.0507834 0.0043691 0)
(0.0425562 0.0310688 0)
(0.0180198 0.00977445 0)
(0.0229938 0.0265814 0)
(0.0272006 0.0312265 0)
(0.00946953 0.0135535 0)
(0.0119544 0.0230066 0)
(0.0146599 0.0211305 0)
(0.0160082 0.0184397 0)
(0.0144772 0.0178806 0)
(0.0109521 0.0185984 0)
(0.00796262 0.018365 0)
(0.00610147 0.0178258 0)
(0.00479927 0.0175642 0)
(-0.0206817 -0.0390822 0)
(-0.0075313 -0.0175492 0)
(0.525924 -0.0710492 0)
(-0.269972 0.0758933 0)
(-0.35885 -0.0600269 0)
(-0.0751699 0.0528147 0)
(-0.256472 -0.016595 0)
(-0.0548651 0.0565709 0)
(-0.0974129 0.0152893 0)
(-0.0850386 -0.00600771 0)
(-0.0464053 -0.0370072 0)
(0.000947408 -0.0328044 0)
(0.0260114 -0.0253408 0)
(0.0597631 -0.0122219 0)
(0.0931744 -0.0329128 0)
(0.049944 -0.0116804 0)
(0.0541842 0.00384625 0)
(0.06428 0.032009 0)
(0.0410294 0.0174281 0)
(0.0266856 0.0210673 0)
(0.0320525 0.0372386 0)
(0.0182282 0.0172304 0)
(0.0179928 0.0205008 0)
(0.0220105 0.0190632 0)
(0.0226817 0.0190163 0)
(0.0190414 0.0202977 0)
(0.0156531 0.0224659 0)
(0.0106494 0.0221561 0)
(0.00650927 0.0204486 0)
(0.00447204 0.0191799 0)
(-0.123818 -0.0335424 0)
(0.169416 -0.0257946 0)
(0.737103 -0.0934996 0)
(-0.367933 0.196139 0)
(-0.613378 -0.115506 0)
(-0.0134187 0.0651115 0)
(-0.300089 -0.0172509 0)
(-0.101144 0.047397 0)
(-0.126788 0.00646731 0)
(-0.0638944 -0.0090734 0)
(-0.0266722 -0.0498296 0)
(0.0456154 -0.0321523 0)
(0.0369994 -0.0348223 0)
(0.0941937 -0.0260131 0)
(0.110876 -0.0241147 0)
(0.0970165 -0.0141689 0)
(0.0492605 0.00813993 0)
(0.0722935 0.0209603 0)
(0.0656705 0.0282087 0)
(0.0417701 0.0253862 0)
(0.0359384 0.0392215 0)
(0.0370394 0.0217402 0)
(0.0289396 0.0212304 0)
(0.0235986 0.0186445 0)
(0.020581 0.0209582 0)
(0.0174315 0.0229749 0)
(0.0147106 0.0257924 0)
(0.0116093 0.0270995 0)
(0.00843774 0.0244011 0)
(0.00603127 0.0213202 0)
(-0.189236 -0.0413936 0)
(0.607584 -0.0250813 0)
(0.42063 -0.0779031 0)
(-0.47869 0.261358 0)
(-0.340764 -0.138136 0)
(-0.0662721 0.0493984 0)
(-0.309096 -0.00244738 0)
(-0.211874 0.037834 0)
(-0.168991 -0.00259131 0)
(-0.0645035 -0.0171119 0)
(0.0202535 -0.0521856 0)
(0.0652591 -0.0405183 0)
(0.0371036 -0.0450101 0)
(0.0881942 -0.0334378 0)
(0.100995 -0.0263428 0)
(0.0495075 0.00178796 0)
(0.0830063 0.0256097 0)
(-0.042796 0.0190613 0)
(0.0157427 0.0336408 0)
(0.0720612 0.0363941 0)
(0.0575421 0.0348228 0)
(0.0602752 0.0259925 0)
(0.0505415 0.0283237 0)
(0.0362521 0.0259423 0)
(0.0233986 0.0252395 0)
(0.0173643 0.026236 0)
(0.0137695 0.028072 0)
(0.0120848 0.0290191 0)
(0.0100374 0.0273105 0)
(0.00642699 0.0252262 0)
(8.3401e-05 1.22618e-05 0)
(-4.80316e-05 1.24587e-05 0)
(-0.000192654 1.26712e-05 0)
(-0.000350155 1.28859e-05 0)
(-0.000517723 1.3248e-05 0)
(-0.000692748 1.37037e-05 0)
(-0.000872595 1.44431e-05 0)
(-0.00105671 1.56691e-05 0)
(-0.001247 1.75618e-05 0)
(-0.00144646 2.00295e-05 0)
(-0.00165616 2.26284e-05 0)
(-0.00186992 2.48723e-05 0)
(-0.00207214 2.61287e-05 0)
(-0.00222833 2.57516e-05 0)
(-0.0022721 2.14921e-05 0)
(-0.0020786 8.99887e-06 0)
(-0.00144688 -1.20806e-05 0)
(-0.000121331 -3.60257e-05 0)
(0.00204108 -6.12694e-05 0)
(0.00488928 -7.96326e-05 0)
(0.00773165 -8.6707e-05 0)
(0.00957745 -8.46382e-05 0)
(0.0100035 -5.5427e-05 0)
(0.00770388 1.75009e-05 0)
(0.00188442 8.74697e-05 0)
(-0.00619391 0.0001257 0)
(-0.0123202 7.74253e-05 0)
(-0.0142205 5.93506e-05 0)
(-0.0123191 -2.62616e-06 0)
(-0.00831085 -6.80818e-05 0)
(0.000584853 0.000352061 0)
(0.000257573 0.000350113 0)
(-9.72795e-05 0.000341359 0)
(-0.000467459 0.000323124 0)
(-0.000836559 0.000295618 0)
(-0.00118396 0.000259753 0)
(-0.00148939 0.000220184 0)
(-0.00173841 0.000181178 0)
(-0.00192267 0.000146557 0)
(-0.00203585 0.000113853 0)
(-0.00206467 7.90307e-05 0)
(-0.00198174 3.60493e-05 0)
(-0.00174542 -1.88775e-05 0)
(-0.00129625 -9.14449e-05 0)
(-0.000555697 -0.000192489 0)
(0.000603731 -0.000342688 0)
(0.0023689 -0.000557744 0)
(0.00499434 -0.000790308 0)
(0.00843278 -0.000923924 0)
(0.0118404 -0.000833875 0)
(0.0131141 -0.000357772 0)
(0.00972781 0.000237259 0)
(0.00200296 0.000852855 0)
(-0.0100981 0.00143911 0)
(-0.0253205 0.00167288 0)
(-0.039139 0.00133193 0)
(-0.0448059 0.000335131 0)
(-0.0411189 -0.000173692 0)
(-0.0301778 -0.000532133 0)
(-0.0161162 -0.00117116 0)
(0.000653345 0.0008735 0)
(0.000122219 0.000866004 0)
(-0.00045062 0.000834039 0)
(-0.00104621 0.000773891 0)
(-0.00164043 0.00068722 0)
(-0.00220866 0.000580719 0)
(-0.00273377 0.000468135 0)
(-0.00320919 0.000362677 0)
(-0.00363804 0.000270515 0)
(-0.00402325 0.000187602 0)
(-0.00435904 0.000104609 0)
(-0.0046239 9.14326e-06 0)
(-0.00478018 -0.000103607 0)
(-0.00477798 -0.000241923 0)
(-0.00456251 -0.000414543 0)
(-0.00406715 -0.000650716 0)
(-0.00320938 -0.000973624 0)
(-0.00192835 -0.00129632 0)
(-0.000444065 -0.00138417 0)
(0.000413391 -0.00100599 0)
(-0.000851975 7.49132e-05 0)
(-0.00539507 0.00121714 0)
(-0.0131518 0.00227944 0)
(-0.0240163 0.00317458 0)
(-0.0367622 0.00325095 0)
(-0.0472939 0.00225383 0)
(-0.0496711 0.000159635 0)
(-0.0435013 -0.000835707 0)
(-0.0305566 -0.00134383 0)
(-0.0150568 -0.0025143 0)
(0.000652361 0.00167311 0)
(-2.74462e-05 0.00165671 0)
(-0.000764105 0.00159202 0)
(-0.00153892 0.00147595 0)
(-0.00233147 0.00131544 0)
(-0.00312529 0.0011295 0)
(-0.00391691 0.000943708 0)
(-0.00471401 0.000778527 0)
(-0.00553042 0.000639369 0)
(-0.00637244 0.000515389 0)
(-0.00723086 0.000388782 0)
(-0.00807667 0.000241208 0)
(-0.00885859 6.22386e-05 0)
(-0.00950778 -0.000151324 0)
(-0.00993621 -0.000410687 0)
(-0.0100318 -0.000743941 0)
(-0.0096832 -0.00116767 0)
(-0.00894763 -0.00153962 0)
(-0.00814137 -0.00154706 0)
(-0.00790539 -0.000925279 0)
(-0.00897996 0.000505777 0)
(-0.0119239 0.00198069 0)
(-0.0178754 0.00342377 0)
(-0.0269651 0.00463739 0)
(-0.0381937 0.00457305 0)
(-0.0477271 0.00298682 0)
(-0.0494827 -0.000153996 0)
(-0.0429329 -0.00157103 0)
(-0.0296928 -0.00217532 0)
(-0.0144147 -0.00381589 0)
(0.000674334 0.00252237 0)
(4.49801e-05 0.00249965 0)
(-0.000645481 0.00241018 0)
(-0.00139123 0.00225194 0)
(-0.00218599 0.00203893 0)
(-0.0030292 0.00180058 0)
(-0.00392774 0.00157092 0)
(-0.00489257 0.0013727 0)
(-0.00593202 0.00120612 0)
(-0.00704289 0.00105206 0)
(-0.00820683 0.000884715 0)
(-0.00938556 0.000680962 0)
(-0.0105189 0.000425159 0)
(-0.0115295 0.000117443 0)
(-0.0123077 -0.000258761 0)
(-0.0126932 -0.000731531 0)
(-0.0125225 -0.00129063 0)
(-0.0118843 -0.00173153 0)
(-0.0111097 -0.00167917 0)
(-0.0107244 -0.000881164 0)
(-0.011192 0.000750767 0)
(-0.013207 0.0025343 0)
(-0.0184471 0.00439545 0)
(-0.027069 0.0060028 0)
(-0.0381562 0.00584276 0)
(-0.0478017 0.00370493 0)
(-0.0495429 -0.000502512 0)
(-0.042857 -0.00231688 0)
(-0.0294658 -0.00300923 0)
(-0.0143706 -0.00510554 0)
(0.000707863 0.00324628 0)
(0.000184251 0.00322555 0)
(-0.000403001 0.00313333 0)
(-0.00106213 0.00296777 0)
(-0.00180452 0.0027458 0)
(-0.00264176 0.00249964 0)
(-0.0035841 0.00226359 0)
(-0.00463578 0.00205696 0)
(-0.0057923 0.00187516 0)
(-0.00703758 0.0016941 0)
(-0.00834344 0.00148306 0)
(-0.00966523 0.00121655 0)
(-0.0109429 0.000877782 0)
(-0.0120986 0.000468133 0)
(-0.0130225 -3.86359e-05 0)
(-0.0135274 -0.00067551 0)
(-0.0134041 -0.00140002 0)
(-0.0127279 -0.00193723 0)
(-0.0118221 -0.00184608 0)
(-0.0111957 -0.000902739 0)
(-0.0113286 0.000905294 0)
(-0.0131062 0.00302242 0)
(-0.0182366 0.0053335 0)
(-0.0268751 0.00737905 0)
(-0.0381855 0.0071289 0)
(-0.0481282 0.00444355 0)
(-0.0498547 -0.00088807 0)
(-0.0429888 -0.00307451 0)
(-0.0294353 -0.00384735 0)
(-0.0144997 -0.0063977 0)
(0.000742552 0.00385629 0)
(0.000280018 0.00384481 0)
(-0.000247482 0.00376861 0)
(-0.000858533 0.00362584 0)
(-0.00157434 0.00343049 0)
(-0.00241277 0.00321036 0)
(-0.00338456 0.00299302 0)
(-0.00448833 0.00279188 0)
(-0.00571031 0.00259825 0)
(-0.00702635 0.00238711 0)
(-0.00840106 0.00212659 0)
(-0.00978612 0.00179106 0)
(-0.0111205 0.00136394 0)
(-0.012331 0.000850124 0)
(-0.013314 0.000208949 0)
(-0.0138657 -0.000604837 0)
(-0.013725 -0.00151996 0)
(-0.012953 -0.00217727 0)
(-0.0118722 -0.00205408 0)
(-0.0110258 -0.000965111 0)
(-0.0109936 0.00103321 0)
(-0.0127581 0.00349895 0)
(-0.0179291 0.00627953 0)
(-0.0266787 0.00879304 0)
(-0.0382928 0.00844045 0)
(-0.0485864 0.00520654 0)
(-0.0502701 -0.00132541 0)
(-0.0431767 -0.00384829 0)
(-0.0294298 -0.00468942 0)
(-0.0146817 -0.00769474 0)
(0.000778139 0.00442301 0)
(0.000325902 0.00442361 0)
(-0.000192357 0.00437213 0)
(-0.000798631 0.00426565 0)
(-0.00151679 0.00411335 0)
(-0.00236707 0.00393401 0)
(-0.00336087 0.00374615 0)
(-0.0044957 0.00355595 0)
(-0.00575585 0.00335157 0)
(-0.00711409 0.00310786 0)
(-0.00853047 0.00279323 0)
(-0.00995149 0.00238289 0)
(-0.0113163 0.00186488 0)
(-0.012555 0.00124587 0)
(-0.0135755 0.000470267 0)
(-0.0141538 -0.000530896 0)
(-0.0139636 -0.00166425 0)
(-0.013064 -0.00246319 0)
(-0.0117812 -0.00230309 0)
(-0.0107166 -0.00105502 0)
(-0.0105566 0.00115167 0)