/*--------------------------------*- C++ -*----------------------------------*\
| =========                 |                                                 |
| \\      /  F ield         | OpenFOAM: The Open Source CFD Toolbox           |
|  \\    /   O peration     | Version:  2.4.0                                 |
|   \\  /    A nd           | Web:      www.OpenFOAM.org                      |
|    \\/     M anipulation  |                                                 |
\*---------------------------------------------------------------------------*/
FoamFile
{
    version     2.0;
    format      ascii;
    class       surfaceScalarField;
    location    "0.145";
    object      phiAlpha;
}
// * * * * * * * * * * * * * * * * * * * * * * * * * * * * * * * * * * * * * //

dimensions      [0 3 -1 0 0 0 0];

internalField   nonuniform List<scalar> 
7080
(
8.619e-10
-8.619e-10
2.49584e-08
-2.40964e-08
5.88982e-08
-3.39399e-08
8.47398e-08
-2.58415e-08
1.10946e-07
-2.62063e-08
1.29773e-07
-1.8827e-08
1.365e-07
-6.72644e-09
1.26224e-07
1.02751e-08
9.72028e-08
2.90216e-08
6.16117e-08
3.55911e-08
3.17924e-08
2.98192e-08
-1.78141e-09
3.35739e-08
-2.58309e-08
2.40495e-08
-6.14797e-08
3.56489e-08
-8.26125e-08
2.11328e-08
-8.73918e-08
4.77923e-09
-8.45768e-08
-2.66426e-09
-6.36555e-08
-2.05176e-08
-7.25019e-08
8.74707e-09
-8.60639e-08
1.32658e-08
-1.16553e-07
3.04978e-08
-1.61821e-07
4.52914e-08
-2.03456e-07
4.15268e-08
-2.26622e-07
2.29752e-08
-2.15878e-07
-1.04772e-08
-1.54468e-07
-5.84328e-08
-9.05415e-08
-6.39548e-08
-3.80825e-08
-5.24478e-08
-2.21464e-08
-1.59586e-08
-1.56479e-08
-6.56192e-09
-1.49487e-08
1.40868e-08
9.61163e-09
-4.86568e-08
5.31292e-08
-7.74574e-08
9.04964e-08
-6.32088e-08
1.30144e-07
-6.58541e-08
1.63702e-07
-5.23846e-08
1.83743e-07
-2.67678e-08
1.87817e-07
6.20174e-09
1.63921e-07
5.29172e-08
1.37816e-07
6.16961e-08
1.09633e-07
5.80021e-08
7.08113e-08
7.23957e-08
5.80137e-08
3.6847e-08
-1.83447e-10
9.38461e-08
-2.47333e-08
4.56827e-08
-4.78752e-08
2.7921e-08
-9.78073e-08
4.741e-08
-1.26869e-07
8.88353e-09
-1.52165e-07
3.34807e-08
-1.88454e-07
4.95592e-08
-2.45952e-07
8.80041e-08
-2.94325e-07
9.3699e-08
-3.01417e-07
4.8666e-08
-2.67181e-07
-1.12174e-08
-1.97081e-07
-7.99541e-08
-1.26031e-07
-1.30327e-07
-1.01693e-07
-8.90679e-08
-8.75424e-08
-6.70275e-08
-5.07523e-08
-5.34007e-08
-6.48071e-08
-2.37443e-09
-2.10146e-08
3.51014e-08
1.6651e-09
-7.13365e-08
4.55852e-08
-1.21378e-07
8.41192e-08
-1.01743e-07
1.25504e-07
-1.07239e-07
1.61586e-07
-8.84661e-08
1.84572e-07
-4.97541e-08
1.9314e-07
-2.36599e-09
1.7151e-07
7.4547e-08
1.52862e-07
8.03444e-08
1.25983e-07
8.48813e-08
9.45307e-08
1.03848e-07
9.67474e-08
3.46302e-08
4.26776e-08
1.47916e-07
2.22714e-08
6.60888e-08
4.61758e-09
4.55749e-08
-5.95263e-08
1.11603e-07
-1.20276e-07
6.99795e-08
-1.83441e-07
9.62713e-08
-2.58266e-07
1.24385e-07
-3.30618e-07
1.60359e-07
-3.63415e-07
1.27389e-07
-3.37562e-07
2.26696e-08
-2.85007e-07
-6.39016e-08
-2.35996e-07
-1.299e-07
-1.94724e-07
-1.71599e-07
-1.50428e-07
-1.33364e-07
-9.53722e-08
-1.22083e-07
-3.75461e-08
-1.11227e-07
-1.03991e-07
1.63746e-09
-2.28317e-08
5.79331e-08
-4.79657e-10
-9.36885e-08
4.35089e-08
-1.65366e-07
8.21612e-08
-1.40395e-07
1.23861e-07
-1.48939e-07
1.6047e-07
-1.25075e-07
1.84217e-07
-7.35007e-08
1.93733e-07
-1.18823e-08
1.71243e-07
9.70365e-08
1.55881e-07
9.57071e-08
1.22677e-07
1.18085e-07
1.03279e-07
1.23246e-07
1.13728e-07
2.41816e-08
6.46222e-08
1.97022e-07
5.33778e-08
7.73332e-08
4.21839e-08
5.67688e-08
-2.72364e-08
1.81026e-07
-1.11287e-07
1.54122e-07
-1.95771e-07
1.80737e-07
-2.65446e-07
1.94055e-07
-3.28627e-07
2.23546e-07
-3.44677e-07
1.43549e-07
-3.09501e-07
-1.23079e-08
-2.69393e-07
-1.03145e-07
-2.20039e-07
-1.78793e-07
-1.66028e-07
-2.25538e-07
-1.08251e-07
-1.91141e-07
-6.11079e-08
-1.69226e-07
-2.40972e-08
-1.48237e-07
-1.29669e-07
1.58248e-09
-2.36403e-08
8.15734e-08
-1.23744e-09
-1.16091e-07
4.30396e-08
-2.09643e-07
8.17778e-08
-1.79133e-07
1.23728e-07
-1.90889e-07
1.60778e-07
-1.62125e-07
1.85264e-07
-9.7987e-08
1.95241e-07
-2.186e-08
1.71485e-07
1.20793e-07
1.57703e-07
1.09489e-07
1.14993e-07
1.60795e-07
1.08886e-07
1.29353e-07
1.13483e-07
1.95849e-08
7.32522e-08
2.37252e-07
8.16475e-08
6.89379e-08
7.12079e-08
6.72084e-08
9.34626e-09
2.42888e-07
-6.64051e-08
2.29886e-07
-1.47899e-07
2.62167e-07
-2.04356e-07
2.50515e-07
-2.37352e-07
2.56544e-07
-2.30809e-07
1.37008e-07
-2.00078e-07
-4.20185e-08
-1.69787e-07
-1.33431e-07
-1.41119e-07
-2.07472e-07
-1.08549e-07
-2.57728e-07
-6.90294e-08
-2.3066e-07
-4.7098e-08
-1.91158e-07
-2.37494e-08
-1.71587e-07
-1.53472e-07
5.07388e-11
-2.43516e-08
1.05925e-07
-1.83282e-09
-1.3861e-07
4.28185e-08
-2.54294e-07
8.16341e-08
-2.17949e-07
1.23855e-07
-2.3311e-07
1.61417e-07
-1.99687e-07
1.86875e-07
-1.23445e-07
1.9722e-07
-3.22045e-08
1.72752e-07
1.45261e-07
1.58981e-07
1.23259e-07
1.10025e-07
2.09751e-07
1.11199e-07
1.28178e-07
9.18022e-08
3.89817e-08
7.03996e-08
2.58655e-07
1.02591e-07
3.67465e-08
7.84114e-08
9.13881e-08
2.85265e-08
2.92773e-07
-9.67123e-09
2.68084e-07
-5.51388e-08
3.0771e-07
-9.54515e-08
2.89916e-07
-1.05928e-07
2.67023e-07
-9.10421e-08
1.22124e-07
-6.5072e-08
-6.78169e-08
-6.7239e-08
-1.31276e-07
-8.60101e-08
-1.88711e-07
-8.73995e-08
-2.56348e-07
-6.74472e-08
-2.50254e-07
-4.84981e-08
-2.10107e-07
-2.62544e-08
-1.9383e-07
-1.7749e-07
-2.2413e-09
-2.51681e-08
1.31093e-07
-2.51123e-09
-1.61267e-07
4.25908e-08
-2.99397e-07
8.14955e-08
-2.56854e-07
1.24016e-07
-2.7563e-07
1.62176e-07
-2.37847e-07
1.88876e-07
-1.50145e-07
1.99468e-07
-4.27961e-08
1.75055e-07
1.69673e-07
1.59722e-07
1.38592e-07
1.10279e-07
2.59194e-07
1.12602e-07
1.25856e-07
5.8766e-08
9.28172e-08
5.48992e-08
2.62521e-07
9.30983e-08
-1.45253e-09
5.65523e-08
1.27934e-07
3.23026e-08
3.17023e-07
3.97008e-08
2.60685e-07
5.20796e-08
2.95334e-07
1.22843e-08
3.29668e-07
1.91322e-08
2.60177e-07
3.70659e-08
1.04192e-07
3.13249e-08
-6.20745e-08
1.62996e-08
-1.16821e-07
4.01181e-09
-1.76433e-07
-7.97392e-09
-2.4437e-07
-1.57967e-08
-2.41953e-07
-1.69587e-08
-2.08868e-07
-1.46775e-08
-1.96111e-07
-1.87999e-07
-4.10446e-09
-2.61319e-08
1.57225e-07
-3.31367e-09
-1.84085e-07
4.23223e-08
-3.45032e-07
8.13162e-08
-2.95847e-07
1.24182e-07
-3.18495e-07
1.63037e-07
-2.76703e-07
1.91248e-07
-1.78356e-07
2.02002e-07
-5.35505e-08
1.78395e-07
1.93281e-07
1.59166e-07
1.57821e-07
1.16367e-07
3.01993e-07
1.20064e-07
1.2216e-07
4.38845e-08
1.68996e-07
3.57368e-08
2.70669e-07
5.55726e-08
-2.12883e-08
3.63025e-08
1.47204e-07
5.13412e-08
3.01984e-07
6.81516e-08
2.43875e-07
1.14667e-07
2.48819e-07
1.21441e-07
3.22855e-07
1.45696e-07
2.3566e-07
1.57137e-07
9.26978e-08
1.33819e-07
-3.86682e-08
1.18869e-07
-1.01867e-07
1.07053e-07
-1.65226e-07
8.81733e-08
-2.25498e-07
5.79094e-08
-2.117e-07
3.17059e-08
-1.82481e-07
1.01983e-08
-1.74603e-07
-1.73038e-07
-4.75884e-09
-2.72537e-08
1.84479e-07
-4.24774e-09
-2.07091e-07
4.20097e-08
-3.9129e-07
8.1085e-08
-3.34923e-07
1.24341e-07
-3.61752e-07
1.63999e-07
-3.16361e-07
1.93961e-07
-2.08318e-07
2.05034e-07
-6.46233e-08
1.82161e-07
2.16155e-07
1.56133e-07
1.83849e-07
1.27355e-07
3.30771e-07
1.27208e-07
1.22307e-07
5.35151e-08
2.42689e-07
3.08553e-08
2.93329e-07
2.39219e-08
-1.43548e-08
2.66983e-08
1.44428e-07
6.45795e-08
2.64103e-07
5.3678e-08
2.54777e-07
9.84446e-08
2.04052e-07
1.68997e-07
2.52266e-07
2.29344e-07
1.75192e-07
2.54882e-07
6.70508e-08
2.40672e-07
-2.39931e-08
2.1309e-07
-7.42827e-08
1.84043e-07
-1.37072e-07
1.37628e-07
-1.79095e-07
8.94636e-08
-1.63288e-07
5.17133e-08
-1.44678e-07
2.26881e-08
-1.45576e-07
-1.44673e-07
-5.68066e-09
-2.8539e-08
2.13018e-07
-5.31643e-09
-2.30314e-07
4.16527e-08
-4.38259e-07
8.0803e-08
-3.74073e-07
1.2448e-07
-4.05428e-07
1.65062e-07
-3.56943e-07
1.97015e-07
-2.40271e-07
2.08808e-07
-7.64159e-08
1.85177e-07
2.39785e-07
1.53237e-07
2.15789e-07
1.35619e-07
3.48389e-07
1.20887e-07
1.37038e-07
6.44882e-08
2.99088e-07
4.03491e-08
3.17468e-07
2.19664e-08
4.02781e-09
1.05181e-08
1.55876e-07
4.21197e-08
2.32501e-07
4.16084e-08
2.55288e-07
6.33352e-08
1.82325e-07
1.41989e-07
1.7372e-07
2.24554e-07
9.28791e-08
2.69137e-07
2.27663e-08
2.83712e-07
-3.84627e-08
2.59324e-07
-4.98945e-08
2.20977e-07
-9.98105e-08
1.70582e-07
-1.28726e-07
9.74314e-08
-9.01143e-08
4.34607e-08
-9.06996e-08
1.42524e-08
-1.16361e-07
-1.24198e-07
-6.22651e-09
-2.99926e-08
2.4301e-07
-6.52245e-09
-2.53784e-07
4.1252e-08
-4.86034e-07
8.04666e-08
-4.13288e-07
1.24574e-07
-4.49535e-07
1.66211e-07
-3.98581e-07
2.00476e-07
-2.74536e-07
2.13207e-07
-8.91468e-08
1.87645e-07
2.65347e-07
1.52958e-07
2.50476e-07
1.382e-07
3.63147e-07
1.07146e-07
1.68092e-07
7.42481e-08
3.31986e-07
5.73325e-08
3.34384e-07
2.63057e-08
3.50546e-08
2.26662e-09
1.79915e-07
2.69158e-08
2.07852e-07
5.88335e-08
2.2337e-07
6.3544e-08
1.77615e-07
9.66509e-08
1.40613e-07
1.60781e-07
2.87638e-08
2.21989e-07
-3.84412e-08
2.57782e-07
-7.42558e-08
2.36678e-07
-2.87904e-08
1.95437e-07
-5.90191e-08
1.56521e-07
-9.03864e-08
1.08094e-07
-4.16726e-08
5.89442e-08
-4.15374e-08
1.64464e-08
-7.38765e-08
-1.03941e-07
-3.81467e-09
-3.16198e-08
2.7463e-07
-7.8687e-09
-2.77535e-07
4.08085e-08
-5.34711e-07
8.00641e-08
-4.52543e-07
1.24607e-07
-4.94078e-07
1.67435e-07
-4.41409e-07
2.0439e-07
-3.11491e-07
2.18071e-07
-1.02828e-07
1.90485e-07
2.92933e-07
1.54384e-07
2.86578e-07
1.36284e-07
3.81247e-07
1.0692e-07
1.97456e-07
8.35585e-08
3.55347e-07
6.52854e-08
3.52657e-07
4.17384e-08
5.86016e-08
2.55112e-08
1.96143e-07
3.01427e-08
2.03221e-07
7.51399e-08
1.78373e-07
9.92689e-08
1.53486e-07
1.18865e-07
1.21017e-07
1.45365e-07
2.2638e-09
1.90324e-07
-8.34003e-08
2.05562e-07
-8.94931e-08
1.90551e-07
-1.385e-08
1.60881e-07
-2.93694e-08
1.0611e-07
-3.56146e-08
8.95557e-08
-2.51186e-08
6.69001e-08
-1.88817e-08
1.81731e-08
-2.5163e-08
-8.97633e-08
3.96577e-09
-3.34266e-08
3.08057e-07
-9.35849e-09
-3.01603e-07
4.03228e-08
-5.84392e-07
7.96014e-08
-4.91822e-07
1.2461e-07
-5.39087e-07
1.68715e-07
-4.85514e-07
2.08756e-07
-3.51532e-07
2.23492e-07
-1.17564e-07
1.94207e-07
3.22218e-07
1.53824e-07
3.26961e-07
1.35578e-07
3.99493e-07
1.17486e-07
2.15548e-07
8.80988e-08
3.84735e-07
6.55902e-08
3.75165e-07
4.31906e-08
8.10012e-08
5.26365e-08
1.86697e-07
5.22923e-08
2.03565e-07
7.87717e-08
1.51894e-07
1.16196e-07
1.16061e-07
1.36299e-07
1.00914e-07
1.49135e-07
-1.05721e-08
1.62886e-07
-9.71516e-08
1.40588e-07
-6.71955e-08
1.33918e-07
-7.18276e-09
1.43858e-07
-3.93094e-08
1.31981e-07
-2.37383e-08
9.35265e-08
1.33362e-08
3.22083e-08
4.24364e-08
8.81443e-09
-1.77942e-09
-9.07876e-08
9.83874e-09
-3.54197e-08
3.43476e-07
-1.09954e-08
-3.26027e-07
3.9796e-08
-6.35184e-07
7.90716e-08
-5.31097e-07
1.24606e-07
-5.84621e-07
1.70018e-07
-5.30925e-07
2.13594e-07
-3.95109e-07
2.29821e-07
-1.33791e-07
1.97862e-07
3.54177e-07
1.5181e-07
3.73013e-07
1.35676e-07
4.15627e-07
1.30365e-07
2.20858e-07
8.27853e-08
4.32315e-07
5.67208e-08
4.0123e-07
2.66071e-08
1.11115e-07
6.77638e-08
1.4554e-07
8.6279e-08
1.8505e-07
7.44203e-08
1.63752e-07
1.04135e-07
8.63463e-08
1.34076e-07
7.09732e-08
1.43567e-07
-2.00629e-08
1.39702e-07
-9.32863e-08
1.37958e-07
-6.5452e-08
1.40671e-07
-9.8951e-09
1.13101e-07
-1.17394e-08
6.57866e-08
2.3576e-08
-6.40548e-09
8.55181e-08
-4.34619e-08
7.94792e-08
-1.35753e-08
-3.1674e-08
-1.04089e-07
-2.74456e-10
-3.76064e-08
3.81083e-07
-1.27834e-08
-3.5085e-07
3.92287e-08
-6.87196e-07
7.84796e-08
-5.70348e-07
1.24598e-07
-6.3074e-07
1.71293e-07
-5.7762e-07
2.19023e-07
-4.4284e-07
2.37072e-07
-1.5184e-07
2.0118e-07
3.9007e-07
1.48928e-07
4.25265e-07
1.39843e-07
4.24712e-07
1.41114e-07
2.19587e-07
7.37618e-08
4.99667e-07
4.23701e-08
4.32622e-07
2.67441e-08
1.26741e-07
6.81814e-08
1.04102e-07
9.43528e-08
1.58878e-07
7.88539e-08
1.79251e-07
7.78536e-08
8.73466e-08
6.63494e-08
8.24773e-08
4.46724e-08
1.61407e-09
3.85886e-08
-8.72025e-08
3.98026e-08
-6.6666e-08
1.20443e-08
1.78632e-08
-4.62135e-08
4.65217e-08
-7.93989e-08
5.67629e-08
-6.2501e-08
6.86191e-08
-2.72348e-08
4.42119e-08
-7.4749e-09
-5.14335e-08
-9.81869e-08
-1.33765e-08
-3.99948e-08
4.21078e-07
-1.47269e-08
-3.76118e-07
3.86223e-08
-7.40545e-07
7.78242e-08
-6.0955e-07
1.24576e-07
-6.77492e-07
1.72553e-07
-6.25597e-07
2.25152e-07
-4.95439e-07
2.45093e-07
-1.7178e-07
2.03816e-07
4.31347e-07
1.4947e-07
4.79611e-07
1.43708e-07
4.30473e-07
1.33382e-07
2.29914e-07
3.34425e-08
5.99606e-07
7.13532e-09
4.58929e-07
2.61593e-08
1.07717e-07
9.85189e-08
3.17428e-08
1.22237e-07
1.35161e-07
7.43456e-08
2.27142e-07
4.85164e-08
1.13176e-07
5.1149e-08
7.98448e-08
6.19329e-08
-9.16986e-09
5.59848e-08
-8.12544e-08
5.32636e-08
-6.39448e-08
5.28468e-08
1.82801e-08
3.89107e-08
6.04578e-08
2.63823e-08
6.9298e-08
3.0955e-08
6.40451e-08
3.80923e-08
3.70735e-08
1.49836e-08
-2.83194e-08
-5.10383e-08
-3.2165e-08
-4.25941e-08
4.63672e-07
-1.68303e-08
-4.01882e-07
3.7977e-08
-7.95352e-07
7.71075e-08
-6.48681e-07
1.24519e-07
-7.24904e-07
1.73819e-07
-6.74896e-07
2.32007e-07
-5.53627e-07
2.53428e-07
-1.932e-07
2.07861e-07
4.76913e-07
1.5178e-07
5.35693e-07
1.43252e-07
4.39e-07
1.26819e-07
2.46347e-07
9.231e-08
6.34115e-07
7.43175e-08
4.76921e-07
3.85396e-08
1.43495e-07
5.73516e-08
1.29308e-08
4.61297e-08
1.46382e-07
3.66976e-08
2.36574e-07
4.56996e-08
1.04174e-07
8.07071e-08
4.48373e-08
9.54161e-08
-2.38788e-08
5.00879e-08
-3.59262e-08
3.47957e-08
-4.86527e-08
5.57476e-08
-2.67173e-09
9.19278e-08
2.42775e-08
1.21236e-07
3.99896e-08
1.27241e-07
5.80489e-08
1.20367e-07
4.39547e-08
7.46489e-08
1.7401e-08
2.45512e-08
-9.40571e-10
-4.54141e-08
5.09086e-07
-1.90984e-08
-4.28198e-07
3.72938e-08
-8.51744e-07
7.63322e-08
-6.87719e-07
1.24399e-07
-7.72971e-07
1.7513e-07
-7.25627e-07
2.39342e-07
-6.17839e-07
2.626e-07
-2.16459e-07
2.14104e-07
5.25409e-07
1.48944e-07
6.00854e-07
1.41119e-07
4.46825e-07
1.2972e-07
2.57746e-07
-4.546e-09
7.68382e-07
-6.46797e-08
5.37055e-07
-3.0362e-08
1.09177e-07
2.81163e-08
-4.55475e-08
4.4762e-08
1.29737e-07
8.49239e-08
1.96412e-07
8.79757e-08
1.01122e-07
7.39315e-08
5.88815e-08
1.84371e-08
3.16156e-08
-7.31543e-08
5.56654e-08
-8.82861e-08
-3.35182e-08
-5.04592e-08
-4.04968e-08
2.15906e-08
-4.77718e-08
7.73095e-08
-1.57292e-08
9.40307e-08
4.13277e-08
9.74986e-08
4.04868e-08
6.33884e-08
5.15111e-08
7.67659e-08
1.11737e-08
-4.84661e-08
5.57552e-07
-2.15361e-08
-4.55127e-07
3.65741e-08
-9.09855e-07
7.55016e-08
-7.26646e-07
1.2417e-07
-8.21639e-07
1.76563e-07
-7.78021e-07
2.46518e-07
-6.87793e-07
2.72675e-07
-2.42616e-07
2.19673e-07
5.78411e-07
1.38009e-07
6.82518e-07
1.42077e-07
4.42758e-07
1.84184e-07
2.15638e-07
1.13452e-07
8.39114e-07
3.33998e-08
6.17107e-07
-1.88456e-08
1.61423e-07
6.1132e-08
-1.25525e-07
1.2448e-07
6.63892e-08
6.6192e-08
2.547e-07
1.5537e-08
1.51777e-07
3.18895e-08
4.2529e-08
5.32504e-09
5.818e-08
-1.11156e-07
1.72147e-07
-1.86842e-07
4.21707e-08
-1.64873e-07
-6.24687e-08
-9.38059e-08
-1.18842e-07
-4.64124e-08
-6.31232e-08
-2.95183e-08
2.44336e-08
-1.39923e-08
2.49594e-08
-8.05892e-10
3.83198e-08
7.18937e-08
4.05521e-09
-5.17589e-08
6.09311e-07
-2.41505e-08
-4.82736e-07
3.58187e-08
-9.69824e-07
7.46173e-08
-7.65445e-07
1.23732e-07
-8.70754e-07
1.78109e-07
-8.32398e-07
2.50463e-07
-7.60148e-07
2.78367e-07
-2.7052e-07
2.16297e-07
6.40481e-07
1.32566e-07
7.66249e-07
1.5899e-07
4.16333e-07
1.89661e-07
1.84968e-07
1.0617e-07
9.22605e-07
1.48592e-08
7.08418e-07
-5.13409e-08
2.27623e-07
3.94254e-08
-2.16291e-07
6.42612e-08
4.15535e-08
7.98069e-09
3.1098e-07
-6.06459e-08
2.20404e-07
-1.76463e-08
-4.31076e-10
1.01892e-07
-6.10514e-08
2.44037e-08
2.49656e-07
-1.13735e-07
1.8031e-07
-1.69764e-07
-6.44286e-09
-1.66785e-07
-1.21826e-07
-1.4026e-07
-8.96384e-08
-1.18476e-07
2.66765e-09
-8.57872e-08
-7.7337e-09
-4.25693e-08
-4.90235e-09
2.87225e-08
5.98046e-10
-5.53382e-08
6.64649e-07
-2.69481e-08
-5.11126e-07
3.50304e-08
-1.0318e-06
7.36664e-08
-8.04081e-07
1.22896e-07
-9.19983e-07
1.77993e-07
-8.87495e-07
2.41073e-07
-8.23228e-07
2.62817e-07
-2.92264e-07
2.13494e-07
6.89805e-07
8.24712e-08
8.97271e-07
1.21154e-07
3.7765e-07
1.64364e-07
1.41758e-07
8.22305e-09
1.07875e-06
-1.13323e-07
8.29964e-07
-9.74244e-08
2.11726e-07
6.48657e-08
-3.78112e-07
2.48695e-08
8.15497e-08
-7.55837e-08
4.11433e-07
-5.1134e-08
1.96046e-07
-2.9646e-08
-2.17182e-08
4.37986e-08
-1.34606e-07
8.27183e-08
2.10917e-07
4.14587e-08
2.21569e-07
-2.60532e-08
6.10691e-08
-9.16683e-08
-5.62106e-08
-1.19928e-07
-6.13801e-08
-9.89123e-08
-1.83512e-08
-7.82454e-08
-2.84005e-08
-4.88935e-08
-3.42524e-08
-1.90217e-08
-1.14581e-09
-5.88913e-08
7.2354e-07
-2.99047e-08
-5.40112e-07
3.42093e-08
-1.09592e-06
7.25611e-08
-8.42433e-07
1.21054e-07
-9.68476e-07
1.6744e-07
-9.33881e-07
1.98951e-07
-8.54739e-07
2.05413e-07
-2.98727e-07
1.07627e-07
7.87591e-07
9.43321e-08
9.10566e-07
1.19384e-07
3.52598e-07
7.42377e-08
1.71994e-07
-6.46397e-08
1.21762e-06
-1.59413e-07
9.24737e-07
-7.54068e-08
1.2798e-07
-2.05976e-08
-4.30759e-07
-3.09499e-08
9.12958e-08
-4.34724e-08
4.23956e-07
6.31418e-08
8.93058e-08
1.72864e-08
2.40157e-08
-3.65618e-08
-8.08692e-08
6.23936e-08
1.12228e-07
7.48291e-08
2.09134e-07
1.75993e-08
1.18299e-07
-1.26809e-08
-2.59304e-08
-4.2787e-08
-3.12746e-08
-3.759e-08
-2.35514e-08
-2.43988e-08
-4.15917e-08
-1.87347e-08
-3.99165e-08
-3.30873e-08
-4.66897e-09
-6.46322e-08
7.88172e-07
-3.31556e-08
-5.71589e-07
3.3295e-08
-1.16237e-06
7.09141e-08
-8.80052e-07
1.1507e-07
-1.01263e-06
1.27248e-07
-9.4606e-07
1.14153e-07
-8.41643e-07
9.31176e-08
-2.68178e-07
1.40126e-07
7.40582e-07
3.37658e-08
1.01693e-06
-2.58338e-07
6.46773e-07
-1.59963e-07
6.13243e-08
-6.8827e-08
1.09856e-06
-1.98552e-07
1.05446e-06
-1.53549e-07
8.37146e-08
-1.88755e-07
-3.956e-07
2.60008e-08
-1.23622e-07
7.46462e-08
3.75193e-07
5.17707e-08
1.12055e-07
3.76461e-08
3.78919e-08
-3.58135e-08
-7.51927e-09
1.4637e-08
6.16097e-08
4.48939e-08
1.78877e-07
1.45323e-08
1.48661e-07
-9.9322e-09
-1.46589e-09
-1.29959e-08
-2.8211e-08
5.91894e-09
-4.2465e-08
1.52916e-08
-5.0964e-08
6.28748e-09
-3.09122e-08
-1.73066e-08
-9.49325e-09
-6.166e-08
8.49832e-07
-3.64259e-08
-5.96823e-07
3.21777e-08
-1.23097e-06
6.71981e-08
-9.15072e-07
9.37523e-08
-1.03919e-06
5.05663e-08
-9.02874e-07
2.09828e-08
-8.12035e-07
-2.75323e-08
-8.60226e-08
-1.48249e-07
2.37715e-07
-2.72428e-07
9.92281e-07
-2.91126e-07
6.77699e-07
-1.21392e-07
-1.08541e-07
-7.21591e-08
1.06446e-06
-1.37168e-07
1.11948e-06
-1.25821e-07
7.29309e-08
-1.79688e-07
-3.4178e-07
3.19509e-08
-3.36201e-07
3.81485e-08
3.68889e-07
2.56182e-08
1.24458e-07
7.09389e-08
-7.73605e-09
-7.19786e-08
1.3529e-07
-8.95051e-08
7.89002e-08
-4.47956e-08
1.34167e-07
-5.35839e-08
1.57449e-07
-5.91382e-08
4.09097e-09
-2.24232e-08
-6.49023e-08
5.69254e-09
-7.0563e-08
9.51524e-09
-5.47734e-08
1.49798e-09
-2.28938e-08
-2.23936e-09
-1.3569e-08
-9.06894e-08
9.40522e-07
-4.0269e-08
-6.47244e-07
2.95468e-08
-1.30079e-06
5.62428e-08
-9.41768e-07
3.72064e-08
-1.02015e-06
-1.01202e-08
-8.55544e-07
-5.18001e-09
-3.6797e-07
-1.57148e-07
3.40225e-10
-5.9692e-07
1.21313e-07
-2.10187e-07
2.48277e-07
-1.29595e-07
5.86886e-07
-3.05766e-07
6.85059e-08
-7.83005e-08
8.46961e-07
-5.1658e-08
1.09285e-06
-2.11424e-07
2.32383e-07
-2.30646e-07
-3.23206e-07
-1.0023e-07
-4.66555e-07
2.06766e-08
2.46271e-07
6.47711e-10
1.43627e-07
-5.59807e-08
4.8809e-08
-1.78743e-07
2.57665e-07
-2.20956e-07
1.21113e-07
-1.43495e-07
5.67066e-08
-1.0727e-07
1.21223e-07
-8.96766e-08
-1.34767e-08
-4.72836e-08
-1.07296e-07
-3.56599e-08
-8.21873e-08
-2.4213e-08
-6.62251e-08
-1.16596e-08
-3.54512e-08
-8.57918e-09
-5.32051e-09
-3.20213e-08
9.72543e-07
-4.49699e-08
-6.34295e-07
2.17694e-08
-1.36753e-06
2.56367e-08
-9.45636e-07
-3.89693e-08
-9.55542e-07
1.46069e-07
-8.27631e-07
4.62266e-08
-6.85034e-08
-2.0029e-08
2.77591e-08
-3.40711e-07
5.32836e-08
-2.99974e-07
-9.0958e-08
-3.37925e-07
6.25686e-07
-5.09233e-07
2.40694e-07
-1.85045e-07
5.17629e-07
-1.02002e-07
1.00841e-06
-2.6928e-07
3.99367e-07
-2.53258e-07
-3.37864e-07
-2.15813e-07
-5.00579e-07
-1.23009e-07
1.5325e-07
-1.73171e-07
1.93596e-07
-2.81815e-07
1.56616e-07
-3.38414e-07
3.14267e-07
-3.18824e-07
1.01523e-07
-1.68305e-07
-9.38031e-08
-1.03598e-07
5.65342e-08
-1.00955e-07
-1.61201e-08
-8.18332e-08
-1.26418e-07
-6.71876e-08
-9.68758e-08
-4.39857e-08
-8.94555e-08
-2.08194e-08
-5.86205e-08
-3.12377e-08
1.8388e-09
-1.45218e-07
1.11776e-06
-5.16167e-08
-7.27896e-07
-4.80459e-09
-1.41434e-06
-4.37276e-08
-9.06712e-07
-2.85903e-08
-9.70635e-07
6.88739e-08
-3.61663e-07
1.3621e-09
-2.83786e-09
-3.29839e-09
-4.01136e-10
-2.54369e-07
2.40536e-08
-6.77948e-07
-9.16056e-08
-6.53279e-07
5.16097e-07
-6.24459e-07
2.08179e-07
-4.08662e-07
2.94299e-07
-2.35731e-07
8.35807e-07
-2.6802e-07
4.31863e-07
-2.75114e-07
-3.29377e-07
-3.17577e-07
-4.58534e-07
-3.0716e-07
1.42455e-07
-3.42565e-07
2.27655e-07
-4.03039e-07
2.1644e-07
-3.97114e-07
3.08342e-07
-3.20825e-07
2.52342e-08
-1.38123e-07
-2.76504e-07
-4.76503e-08
-3.39168e-08
-8.76933e-08
2.39204e-08
-7.73875e-08
-1.36774e-07
-4.9267e-08
-1.2499e-07
-3.54374e-08
-1.0328e-07
-1.44357e-08
-7.96173e-08
-5.0779e-08
5.11339e-09
-3.88428e-09
1.12164e-06
-8.29009e-08
-6.48879e-07
-6.91403e-08
-1.4281e-06
-1.35662e-07
-8.4015e-07
2.90886e-07
-6.26376e-07
3.57255e-09
-3.57767e-08
9.90319e-10
-5.22426e-12
4.23647e-10
7.99801e-11
-3.64015e-08
-1.80021e-09
-5.35821e-07
-4.77524e-10
-7.14343e-07
2.33862e-07
-6.92266e-07
1.03324e-07
-5.31523e-07
1.14711e-07
-3.21519e-07
6.25789e-07
-2.55151e-07
3.65488e-07
-3.51771e-07
-2.32808e-07
-4.98899e-07
-3.09469e-07
-4.89625e-07
1.32135e-07
-4.32426e-07
1.6863e-07
-4.16508e-07
2.00522e-07
-3.34621e-07
2.26456e-07
-2.45527e-07
-6.38964e-08
-1.73326e-07
-3.48706e-07
-4.6215e-08
-1.61019e-07
-3.00316e-08
7.74543e-09
-3.40977e-08
-1.32702e-07
-2.39632e-08
-1.35119e-07
-1.49217e-08
-1.12316e-07
1.74228e-09
-9.62763e-08
-5.97968e-08
1.07119e-08
-1.43238e-07
1.26488e-06
-1.48368e-07
-6.4375e-07
-1.91525e-07
-1.38493e-06
1.11053e-07
-8.34089e-07
3.28438e-08
-9.02207e-08
7.95142e-11
-2.73571e-09
4.83857e-11
-2.88796e-12
1.13766e-10
4.8403e-12
-1.79305e-09
3.11303e-11
-9.73909e-08
-2.10197e-09
-4.24142e-07
-8.29849e-09
-6.82279e-07
2.38807e-08
-6.25866e-07
-2.64828e-08
-3.96216e-07
3.96128e-07
-2.96433e-07
2.65702e-07
-4.30286e-07
-9.89603e-08
-6.13586e-07
-1.26268e-07
-5.37712e-07
5.56422e-08
-4.04747e-07
3.49516e-08
-3.24992e-07
1.2077e-07
-1.90219e-07
9.16832e-08
-1.09368e-07
-1.44759e-07
-2.01257e-07
-2.5678e-07
-1.16727e-07
-2.45524e-07
6.20903e-09
-1.15182e-07
-5.24325e-09
-1.21227e-07
-1.95988e-08
-1.20741e-07
-1.74229e-08
-1.14472e-07
-8.17555e-09
-1.05506e-07
-7.10986e-08
3.12477e-09
3.62166e-08
1.22867e-06
-3.27581e-07
-2.79952e-07
-1.34198e-07
-1.44348e-06
8.29302e-08
-3.20111e-07
2.30801e-09
-9.62075e-09
3.49626e-12
-4.32091e-10
4.06995e-12
-4.36959e-14
6.51269e-12
4.75061e-13
2.31479e-11
6.34744e-12
-2.13778e-09
-4.13027e-11
-4.85092e-08
-1.35167e-09
-3.74854e-07
-2.99548e-09
-6.44705e-07
-1.08263e-07
-4.18089e-07
1.47581e-07
-3.33457e-07
1.8107e-07
-4.50548e-07
1.81283e-08
-5.94366e-07
1.75448e-08
-5.35499e-07
8.67185e-10
-4.26433e-07
-5.5464e-08
-2.1164e-07
-6.20875e-08
4.97239e-09
-6.42927e-08
7.86386e-08
-7.13735e-08
-9.77163e-10
-3.81348e-08
-6.72702e-08
-4.85123e-08
-4.54891e-08
-3.72928e-08
-2.69445e-08
-4.82705e-08
-3.35471e-08
-3.60927e-08
-3.33983e-08
-4.45277e-08
-3.0552e-08
-4.12196e-08
-1.4038e-09
-4.38582e-08
9.22179e-09
-1.5847e-08
3.15926e-08
-2.2441e-08
8.52677e-08
-5.37514e-08
1.52489e-07
-6.72995e-08
2.12544e-07
-5.70682e-08
2.24579e-07
-1.2115e-08
2.08156e-07
1.62438e-08
1.71454e-07
3.66014e-08
1.25809e-07
4.56786e-08
9.24727e-08
3.33435e-08
7.78104e-08
1.43654e-08
6.94097e-08
8.29598e-09
9.06487e-08
-2.08315e-08
9.41068e-08
-3.2792e-09
8.80571e-08
6.04974e-09
6.31402e-08
2.49169e-08
2.50799e-08
3.80603e-08
6.77331e-10
2.44026e-08
-3.57718e-08
3.64491e-08
-6.67034e-08
3.09316e-08
-1.01057e-07
3.43541e-08
-1.25456e-07
2.43981e-08
-1.36626e-07
1.11702e-08
-1.30133e-07
-6.49307e-09
-1.11768e-07
-1.83643e-08
-8.51925e-08
-2.65758e-08
-5.92213e-08
-2.59712e-08
-2.50679e-08
-3.41534e-08
-9.07291e-10
-2.41606e-08
-9.07279e-10
4.67018e-08
-6.57759e-08
8.24532e-08
-5.86726e-08
9.37428e-08
-6.54366e-08
1.18961e-07
-9.33851e-08
1.92238e-07
-1.31086e-07
2.64874e-07
-8.40419e-08
3.04783e-07
-2.36363e-08
3.04834e-07
3.65822e-08
2.57682e-07
9.28647e-08
1.97855e-07
9.31786e-08
1.60053e-07
5.21681e-08
1.35014e-07
3.27642e-08
1.06445e-07
8.03813e-09
5.62283e-08
4.71237e-08
3.04215e-08
3.18566e-08
1.24129e-09
5.4097e-08
-5.93733e-08
9.86748e-08
-7.16991e-08
3.67284e-08
-1.14598e-07
7.93482e-08
-1.43836e-07
6.01693e-08
-1.68254e-07
5.87717e-08
-1.86772e-07
4.29167e-08
-1.83903e-07
8.30116e-09
-1.6414e-07
-2.62567e-08
-1.31068e-07
-5.14359e-08
-9.10116e-08
-6.66322e-08
-5.35022e-08
-6.34806e-08
-9.78299e-09
-7.78726e-08
1.48715e-08
-4.88151e-08
1.39643e-08
3.92479e-08
-1.03386e-07
9.22563e-08
-1.11681e-07
1.47834e-07
-1.21014e-07
1.91286e-07
-1.36837e-07
2.34041e-07
-1.73841e-07
2.86672e-07
-1.37503e-07
3.39269e-07
-7.63533e-08
3.70783e-07
4.96891e-09
3.40756e-07
1.23679e-07
2.69444e-07
1.64491e-07
1.94252e-07
1.2736e-07
1.3056e-07
9.60713e-08
6.93358e-08
6.95941e-08
4.12878e-09
1.12403e-07
-1.70202e-08
5.30056e-08
-4.16971e-08
7.87739e-08
-9.83152e-08
1.55293e-07
-9.55809e-08
3.39941e-08
-1.31264e-07
1.15031e-07
-1.59124e-07
8.80289e-08
-1.75815e-07
7.54633e-08
-1.91896e-07
5.89975e-08
-1.84716e-07
1.12058e-09
-1.62049e-07
-4.89233e-08
-1.26451e-07
-8.70341e-08
-8.46399e-08
-1.08443e-07
-4.59697e-08
-1.02151e-07
-1.88208e-09
-1.2196e-07
2.09288e-08
-7.1626e-08
3.48931e-08
2.5982e-08
-1.27782e-07
5.87069e-08
-1.44405e-07
1.03229e-07
-1.65536e-07
1.58106e-07
-1.91714e-07
2.13418e-07
-2.2907e-07
2.63912e-07
-1.87522e-07
3.03866e-07
-1.15439e-07
3.40231e-07
-3.10527e-08
3.31724e-07
1.32257e-07
2.73651e-07
2.22564e-07
2.0515e-07
1.95862e-07
1.21186e-07
1.80007e-07
3.72086e-08
1.53667e-07
-3.39133e-08
1.83532e-07
-4.80005e-08
6.70929e-08
-6.33333e-08
9.41067e-08
-1.15767e-07
2.07727e-07
-1.04544e-07
2.27712e-08
-1.28203e-07
1.3869e-07
-1.62416e-07
1.22242e-07
-1.75639e-07
8.86855e-08
-1.92307e-07
7.56654e-08
-1.8427e-07
-6.91551e-09
-1.60956e-07
-7.22382e-08
-1.24824e-07
-1.23165e-07
-8.26815e-08
-1.50586e-07
-4.38945e-08
-1.40938e-07
3.02086e-10
-1.66157e-07
2.27447e-08
-9.40687e-08
5.76378e-08
2.2828e-08
-1.50562e-07
4.28522e-08
-1.6443e-07
6.28737e-08
-1.85558e-07
1.02209e-07
-2.3105e-07
1.34565e-07
-2.61055e-07
1.62765e-07
-2.15728e-07
1.9025e-07
-1.42925e-07
2.23538e-07
-6.33104e-08
2.35958e-07
1.19837e-07
2.09597e-07
2.48925e-07
1.57019e-07
2.4844e-07
7.63471e-08
2.60615e-07
-8.36462e-10
2.30865e-07
-6.32015e-08
2.45896e-07
-7.61917e-08
8.00831e-08
-7.17459e-08
8.96609e-08
-1.15736e-07
2.51717e-07
-1.10209e-07
1.72447e-08
-1.20769e-07
1.4925e-07
-1.64613e-07
1.66086e-07
-1.76045e-07
1.00118e-07
-1.93598e-07
9.32182e-08
-1.85186e-07
-1.53271e-08
-1.61295e-07
-9.61298e-08
-1.24713e-07
-1.59747e-07
-8.22926e-08
-1.93007e-07
-4.34235e-08
-1.79807e-07
1.06437e-09
-2.10644e-07
2.3554e-08
-1.16558e-07
8.11919e-08
2.16793e-08
-1.74488e-07
4.2608e-08
-1.85359e-07
6.04829e-08
-2.03433e-07
8.10697e-08
-2.51329e-07
8.00875e-08
-2.60079e-07
6.29156e-08
-1.98563e-07
5.99894e-08
-1.40007e-07
8.5268e-08
-8.84777e-08
1.03923e-07
1.01163e-07
1.00178e-07
2.52669e-07
6.53385e-08
2.82482e-07
1.95905e-08
3.06419e-07
-2.08599e-08
2.71316e-07
-7.15765e-08
2.96613e-07
-9.78796e-08
1.06386e-07
-6.88953e-08
6.06766e-08
-9.41243e-08
2.76946e-07
-1.12312e-07
3.54321e-08
-1.15999e-07
1.52937e-07
-1.66371e-07
2.16458e-07
-1.77514e-07
1.1126e-07
-1.95306e-07
1.1101e-07
-1.86626e-07
-2.40063e-08
-1.61976e-07
-1.20781e-07
-1.24869e-07
-1.96853e-07
-8.21463e-08
-2.35729e-07
-4.31996e-08
-2.18754e-07
1.66264e-09
-2.55507e-07
2.42666e-08
-1.39162e-07
1.05459e-07
6.82406e-09
-1.85415e-07
9.122e-09
-1.87657e-07
7.16352e-09
-2.01389e-07
-3.00262e-09
-2.40587e-07
-1.34923e-08
-2.49595e-07
-2.29141e-08
-1.89148e-07
-3.46258e-08
-1.28969e-07
-4.03274e-08
-8.27776e-08
-1.91816e-08
8.00166e-08
-7.29585e-09
2.40783e-07
-4.0638e-08
3.15707e-07
-3.03739e-08
2.96184e-07
-2.4453e-08
2.65395e-07
-5.1345e-08
3.23505e-07
-9.0959e-08
1.46e-07
-5.42836e-08
2.40011e-08
-6.13643e-08
2.84026e-07
-1.1337e-07
8.74376e-08
-1.1625e-07
1.55817e-07
-1.67723e-07
2.67932e-07
-1.80058e-07
1.23594e-07
-1.97232e-07
1.28184e-07
-1.8841e-07
-3.28281e-08
-1.62792e-07
-1.46399e-07
-1.25066e-07
-2.34579e-07
-8.20037e-08
-2.78792e-07
-4.29683e-08
-2.57789e-07
2.34382e-09
-3.00819e-07
2.50847e-08
-1.61903e-07
1.30543e-07
-1.97877e-08
-1.7035e-07
-4.19903e-08
-1.65454e-07
-6.98924e-08
-1.73275e-07
-9.92358e-08
-2.11254e-07
-1.19048e-07
-2.29789e-07
-1.26873e-07
-1.81902e-07
-1.36825e-07
-1.19014e-07
-1.58015e-07
-6.14991e-08
-1.44616e-07
6.66084e-08
-1.16077e-07
2.12018e-07
-1.09472e-07
3.08985e-07
-6.22009e-08
2.48913e-07
-4.17475e-08
2.44941e-07
-3.01813e-08
3.11939e-07
-5.52466e-08
1.71065e-07
-3.70213e-08
5.77582e-09
-4.72266e-08
2.94232e-07
-1.19997e-07
1.60208e-07
-1.22373e-07
1.58193e-07
-1.67904e-07
3.13462e-07
-1.83699e-07
1.39389e-07
-1.99399e-07
1.43885e-07
-1.90511e-07
-4.17162e-08
-1.63729e-07
-1.73181e-07
-1.25278e-07
-2.7303e-07
-8.18208e-08
-3.22249e-07
-4.26955e-08
-2.96914e-07
3.14909e-09
-3.46663e-07
2.60502e-08
-1.84804e-07
1.56593e-07
-3.44625e-08
-1.41553e-07
-6.40186e-08
-1.35897e-07
-1.01402e-07
-1.3585e-07
-1.46638e-07
-1.65726e-07
-1.90783e-07
-1.85656e-07
-2.1919e-07
-1.54458e-07
-2.42158e-07
-9.60458e-08
-2.55138e-07
-4.81141e-08
-2.27056e-07
3.8435e-08
-1.63261e-07
1.48122e-07
-9.40991e-08
2.39708e-07
-4.76159e-08
2.0243e-07
-5.59318e-08
2.53257e-07
-1.92185e-08
2.75226e-07
-2.11576e-08
1.73004e-07
-3.35725e-08
1.81907e-08
-5.70335e-08
3.17693e-07
-1.24801e-07
2.27976e-07
-1.33786e-07
1.67178e-07
-1.65708e-07
3.45385e-07
-1.87832e-07
1.61513e-07
-2.02029e-07
1.58082e-07
-1.9289e-07
-5.08552e-08
-1.64797e-07
-2.01274e-07
-1.25495e-07
-3.12332e-07
-8.15905e-08
-3.66153e-07
-4.23775e-08
-3.36127e-07
4.08611e-09
-3.93127e-07
2.71741e-08
-2.07892e-07
1.83767e-07
-2.68676e-08
-1.20916e-07
-5.39913e-08
-1.08772e-07
-1.04259e-07
-8.55782e-08
-1.7565e-07
-9.43095e-08
-2.2141e-07
-1.40023e-07
-2.57144e-07
-1.19931e-07
-2.78504e-07
-7.46859e-08
-2.63081e-07
-6.3473e-08
-2.17578e-07
-6.81903e-09
-1.3384e-07
6.4627e-08
-5.50864e-08