/*--------------------------------*- C++ -*----------------------------------*\
| =========                 |                                                 |
| \\      /  F ield         | OpenFOAM: The Open Source CFD Toolbox           |
|  \\    /   O peration     | Version:  2.4.0                                 |
|   \\  /    A nd           | Web:      www.OpenFOAM.org                      |
|    \\/     M anipulation  |                                                 |
\*---------------------------------------------------------------------------*/
FoamFile
{
    version     2.0;
    format      ascii;
    class       surfaceScalarField;
    location    "0.012";
    object      phi;
}
// * * * * * * * * * * * * * * * * * * * * * * * * * * * * * * * * * * * * * //

dimensions      [0 3 -1 0 0 0 0];

internalField   nonuniform List<scalar> 
28560
(
-2.18376e-10
5.35859e-10
-3.17483e-10
4.70085e-10
-7.55618e-10
2.85533e-10
1.13085e-09
-1.58495e-09
4.54101e-10
2.19273e-09
-2.9227e-09
7.29966e-10
3.88099e-09
-5.00359e-09
1.1226e-09
6.43932e-09
-8.07626e-09
1.63694e-09
1.01151e-08
-1.23782e-08
2.2631e-09
1.51231e-08
-1.80889e-08
2.96581e-09
2.15904e-08
-2.527e-08
3.67961e-09
2.94926e-08
-3.38012e-08
4.30859e-09
3.86003e-08
-4.33482e-08
4.74792e-09
4.84738e-08
-5.33833e-08
4.90949e-09
5.85101e-08
-6.32523e-08
4.7422e-09
6.80268e-08
-7.22719e-08
4.24512e-09
7.63654e-08
-7.98311e-08
3.46574e-09
8.29825e-08
-8.54555e-08
2.47304e-09
8.7476e-08
-8.88077e-08
1.3317e-09
8.95745e-08
-8.96848e-08
1.10259e-10
8.91532e-08
-8.8043e-08
-1.11016e-09
8.62666e-08
-8.40358e-08
-2.23077e-09
8.11692e-08
-7.80063e-08
-3.16294e-09
7.42809e-08
-7.04284e-08
-3.8526e-09
6.61117e-08
-6.18227e-08
-4.28897e-09
5.71712e-08
-5.26795e-08
-4.49166e-09
4.79187e-08
-4.34094e-08
-4.50926e-09
3.87149e-08
-3.4334e-08
-4.38097e-09
2.98289e-08
-2.56699e-08
-4.15902e-09
2.14368e-08
-1.75604e-08
-3.87635e-09
1.36432e-08
-1.00782e-08
-3.56503e-09
6.49333e-09
-3.2503e-09
-3.24303e-09
-8.67203e-10
1.19931e-09
-3.3211e-10
7.13533e-10
-1.14852e-09
-7.02255e-10
1.13724e-09
1.72225e-09
-2.41911e-09
-1.12107e-09
1.81793e-09
3.35547e-09
-4.48446e-09
-1.80924e-09
2.93823e-09
5.97305e-09
-7.7247e-09
-2.79495e-09
4.5466e-09
9.97593e-09
-1.25558e-08
-4.09591e-09
6.67574e-09
1.5787e-08
-1.93953e-08
-5.69546e-09
9.30375e-09
2.38013e-08
-2.85968e-08
-7.51568e-09
1.23112e-08
3.43051e-08
-4.03578e-08
-9.40371e-09
1.54565e-08
4.7373e-08
-5.46079e-08
-1.11242e-08
1.83591e-08
6.27582e-08
-7.0916e-08
-1.24006e-08
2.05583e-08
7.98246e-08
-8.84502e-08
-1.29702e-08
2.15959e-08
9.75427e-08
-1.06013e-07
-1.26405e-08
2.11108e-08
1.14573e-07
-1.22178e-07
-1.13453e-08
1.89498e-08
1.29459e-07
-1.35529e-07
-9.17627e-09
1.52457e-08
1.409e-07
-1.4493e-07
-6.34319e-09
1.0373e-08
1.47979e-07
-1.497e-07
-3.10293e-09
4.8241e-09
1.50275e-07
-1.49671e-07
2.69983e-10
-8.74088e-10
1.47874e-07
-1.45137e-07
3.49586e-09
-6.23348e-09
1.41268e-07
-1.36756e-07
6.32714e-09
-1.08392e-08
1.31245e-07
-1.254e-07
8.57586e-09
-1.44217e-08
1.18726e-07
-1.12001e-07
1.01582e-08
-1.6883e-08
1.04626e-07
-9.7431e-08
1.10943e-08
-1.82888e-08
8.97467e-08
-8.24241e-08
1.14617e-08
-1.87843e-08
7.47466e-08
-6.7544e-08
1.13958e-08
-1.85984e-08
6.01026e-08
-5.32049e-08
1.09966e-08
-1.78943e-08
4.61488e-08
-3.96649e-08
1.03905e-08
-1.68744e-08
3.3087e-08
-2.70823e-08
9.65593e-09
-1.56607e-08
2.10264e-08
-1.55253e-08
8.86401e-09
-1.43651e-08
9.99804e-09
-5.00478e-09
8.05521e-09
-1.30485e-08
-1.53082e-09
1.86127e-09
-3.30457e-10
7.14097e-10
-1.14944e-09
-1.57345e-09
2.0088e-09
1.72369e-09
-2.42126e-09
-2.51685e-09
3.21442e-09
3.35869e-09
-4.48913e-09
-4.07068e-09
5.20112e-09
5.97987e-09
-7.73435e-09
-6.30425e-09
8.05874e-09
9.98969e-09
-1.25749e-08
-9.2652e-09
1.18504e-08
1.58139e-08
-1.94321e-08
-1.29273e-08
1.65456e-08
2.38523e-08
-2.8666e-08
-1.71303e-08
2.1944e-08
3.43997e-08
-4.04843e-08
-2.15447e-08
2.76293e-08
4.7543e-08
-5.48305e-08
-2.56453e-08
3.29328e-08
6.30496e-08
-7.12869e-08
-2.87857e-08
3.7023e-08
8.02947e-08
-8.90295e-08
-3.03082e-08
3.90429e-08
9.8251e-08
-1.06854e-07
-2.96769e-08
3.82804e-08
1.15562e-07
-1.23307e-07
-2.66451e-08
3.43904e-08
1.30733e-07
-1.36929e-07
-2.13851e-08
2.7582e-08
1.42421e-07
-1.4655e-07
-1.44408e-08
1.85694e-08
1.49685e-07
-1.51472e-07
-6.55078e-09
8.33701e-09
1.52099e-07
-1.51527e-07
1.49749e-09
-2.06905e-09
1.49752e-07
-1.4702e-07
9.00668e-09
-1.17388e-08
1.43142e-07
-1.38609e-07
1.53963e-08
-1.99302e-08
1.33061e-07
-1.27168e-07
2.03181e-08
-2.62116e-08
1.20431e-07
-1.13636e-07
2.36622e-08
-3.04574e-08
1.06177e-07
-9.88953e-08
2.55391e-08
-3.2821e-08
9.11126e-08
-8.36916e-08
2.61628e-08
-3.35838e-08
7.59077e-08
-6.86014e-08
2.58555e-08
-3.31618e-08
6.10509e-08
-5.4049e-08
2.48441e-08
-3.1846e-08
4.68847e-08
-4.02998e-08
2.34074e-08
-2.99923e-08
3.36187e-08
-2.75184e-08
2.17109e-08
-2.78112e-08
2.13657e-08
-1.57761e-08
1.99081e-08
-2.54978e-08
1.01602e-08
-5.08568e-09
1.80805e-08
-2.31551e-08
-2.19065e-09
2.51844e-09
-3.27792e-10
7.09474e-10
-1.14199e-09
-2.44291e-09
2.87542e-09
1.71249e-09
-2.40555e-09
-3.91007e-09
4.60312e-09
3.33699e-09
-4.46028e-09
-6.32837e-09
7.45166e-09
5.94171e-09
-7.68537e-09
-9.80839e-09
1.15521e-08
9.927e-09
-1.24968e-08
-1.44287e-08
1.69985e-08
1.57171e-08
-1.93153e-08
-2.0155e-08
2.37532e-08
2.37123e-08
-2.85028e-08
-2.67473e-08
3.15378e-08
3.4212e-08
-4.02747e-08
-3.37043e-08
3.97671e-08
4.73139e-08
-5.45886e-08
-4.02149e-08
4.74896e-08
6.28031e-08
-7.10473e-08
-4.52638e-08
5.3508e-08
8.0078e-08
-8.88524e-08
-4.7796e-08
5.65705e-08
9.81377e-08
-1.06824e-07
-4.6922e-08
5.56087e-08
1.15643e-07
-1.23517e-07
-4.21937e-08
5.00674e-08
1.31099e-07
-1.37461e-07
-3.38529e-08
4.02152e-08
1.43141e-07
-1.47458e-07
-2.27818e-08
2.70984e-08
1.50797e-07
-1.52776e-07
-1.02095e-08
1.21887e-08
1.53601e-07
-1.53206e-07
2.56139e-09
-2.95663e-09
1.51599e-07
-1.49005e-07
1.44088e-08
-1.70027e-08
1.45245e-07
-1.40793e-07
2.44272e-08
-2.88793e-08
1.35299e-07
-1.29424e-07
3.20967e-08
-3.79714e-08
1.22675e-07
-1.1584e-07
3.72707e-08
-4.41061e-08
1.08312e-07
-1.00943e-07
4.01419e-08
-4.75111e-08
9.30498e-08
-8.55096e-08
4.10584e-08
-4.85986e-08
7.75885e-08
-7.01442e-08
4.05304e-08
-4.79747e-08
6.24427e-08
-5.52947e-08
3.89137e-08
-4.60618e-08
4.79756e-08
-4.12445e-08
3.66433e-08
-4.33745e-08
3.44113e-08
-2.81701e-08
3.3975e-08
-4.02162e-08
2.18735e-08
-1.61517e-08
3.11468e-08
-3.68686e-08
1.04023e-08
-5.20712e-09
2.82847e-08
-3.34798e-08
-2.84467e-09
3.16898e-09
-3.24308e-10
7.03007e-10
-1.13156e-09
-3.3061e-09
3.73465e-09
1.69681e-09
-2.38355e-09
-5.29319e-09
5.97993e-09
3.30658e-09
-4.41985e-09
-8.57016e-09
9.68343e-09
5.88818e-09
-7.61662e-09
-1.32886e-08
1.5017e-08
9.83894e-09
-1.2387e-08
-1.95581e-08
2.21062e-08
1.55808e-08
-1.91506e-08
-2.7338e-08
3.09078e-08
2.35147e-08
-2.82721e-08
-3.63127e-08
4.107e-08
3.39457e-08
-3.99764e-08
-4.58147e-08
5.18455e-08
4.69865e-08
-5.42413e-08
-5.47549e-08
6.20097e-08
6.24466e-08
-7.06979e-08
-6.17553e-08
7.00066e-08
7.97573e-08
-8.85845e-08
-6.5369e-08
7.41963e-08
9.79566e-08
-1.06758e-07
-6.43479e-08
7.31496e-08
1.15734e-07
-1.23788e-07
-5.80243e-08
6.60786e-08
1.31591e-07
-1.38188e-07
-4.66858e-08
5.32829e-08
1.44135e-07
-1.48719e-07
-3.15387e-08
3.61229e-08
1.52347e-07
-1.546e-07
-1.42944e-08
1.65471e-08
1.55704e-07
-1.55558e-07
3.237e-09
-3.38278e-09
1.54189e-07
-1.5179e-07
1.95063e-08
-2.19052e-08
1.48196e-07
-1.4386e-07
3.32777e-08
-3.7614e-08
1.38441e-07
-1.32593e-07
4.38336e-08
-4.96819e-08
1.25826e-07
-1.18934e-07
5.09676e-08
-5.78599e-08
1.11309e-07
-1.03817e-07
5.49369e-08
-6.24286e-08
9.57686e-08
-8.80609e-08
5.62159e-08
-6.39236e-08
7.99471e-08
-7.23087e-08
5.55084e-08
-6.31468e-08
6.43956e-08
-5.70426e-08
5.33043e-08
-6.06573e-08
4.95061e-08
-4.25695e-08
5.02003e-08
-5.71369e-08
3.55238e-08
-2.90846e-08
4.65485e-08
-5.29878e-08
2.25861e-08
-1.66793e-08
4.26758e-08
-4.85826e-08
1.07426e-08
-5.37707e-09
3.87535e-08
-4.4119e-08
-3.49132e-09
3.81127e-09
-3.19947e-10
6.94708e-10
-1.11816e-09
-4.16084e-09
4.5843e-09
1.67666e-09
-2.35528e-09
-6.66292e-09
7.34153e-09
3.26751e-09
-4.36788e-09
-1.07907e-08
1.1891e-08
5.81938e-09
-7.52822e-09
-1.67362e-08
1.84451e-08
9.72566e-09
-1.22458e-08
-2.46412e-08
2.71613e-08
1.54054e-08
-1.89384e-08
-3.44603e-08
3.79934e-08
2.32598e-08
-2.79739e-08
-4.58071e-08
5.05212e-08
3.36011e-08
-3.95897e-08
-5.78565e-08
6.38451e-08
4.65609e-08
-5.37884e-08
-6.92519e-08
7.64794e-08
6.19799e-08
-7.02377e-08
-7.82614e-08
8.65192e-08
7.93313e-08
-8.82237e-08
-8.3055e-08
9.19474e-08
9.77049e-08
-1.06653e-07
-8.2021e-08
9.09689e-08
1.15828e-07
-1.24115e-07
-7.42429e-08
8.25296e-08
1.32203e-07
-1.39104e-07
-6.00234e-08
6.69243e-08
1.45398e-07
-1.50329e-07
-4.08706e-08
4.58018e-08
1.54331e-07
-1.5694e-07
-1.89672e-08
2.15759e-08
1.58408e-07
-1.5859e-07
3.37477e-09
-3.19309e-09
1.57532e-07
-1.55391e-07
2.41838e-08
-2.63245e-08
1.52019e-07
-1.47839e-07
4.18778e-08
-4.60579e-08
1.42524e-07
-1.36715e-07
5.55126e-08
-6.13215e-08
1.2993e-07
-1.22966e-07
6.47865e-08
-7.175e-08
1.15217e-07
-1.07566e-07
6.99954e-08
-7.7646e-08
9.93155e-08
-9.13898e-08
7.1734e-08
-7.96598e-08
8.30257e-08
-7.51352e-08
7.09039e-08
-7.87945e-08
6.69464e-08
-5.93264e-08
6.81361e-08
-7.57562e-08
5.15068e-08
-4.43024e-08
6.41993e-08
-7.14037e-08
3.69785e-08
-3.02813e-08
5.95483e-08
-6.62455e-08
2.35187e-08
-1.73695e-08
5.46033e-08
-6.07525e-08
1.11876e-08
-5.59994e-09
4.9589e-08
-5.51767e-08
-4.12878e-09
4.44351e-09
-3.14727e-10
6.84721e-10
-1.10204e-09
-5.00486e-09
5.42218e-09
1.65241e-09
-2.32125e-09
-8.01551e-09
8.68434e-09
3.22046e-09
-4.30529e-09
-1.2984e-08
1.40688e-08
5.7365e-09
-7.42171e-09
-2.01426e-08
2.18279e-08
9.58915e-09
-1.20755e-08
-2.96654e-08
3.21517e-08
1.51938e-08
-1.86824e-08
-4.15053e-08
4.49939e-08
2.2952e-08
-2.76136e-08
-5.52104e-08
5.9872e-08
3.31843e-08
-3.91213e-08
-6.98095e-08
7.57465e-08
4.60447e-08
-5.32381e-08
-8.36911e-08
9.08846e-08
6.14115e-08
-6.96757e-08
-9.47808e-08
1.03045e-07
7.88089e-08
-8.77787e-08
-1.00877e-07
1.09847e-07
9.73911e-08
-1.06517e-07
-1.00002e-07
1.09128e-07
1.15936e-07
-1.24508e-07
-9.09528e-08
9.95248e-08
1.32947e-07
-1.40223e-07
-7.40039e-08
8.12791e-08
1.46944e-07
-1.52304e-07
-5.09371e-08
5.62971e-08
1.56771e-07
-1.59822e-07
-2.43951e-08
2.74462e-08
1.61746e-07
-1.62335e-07
2.81838e-09
-2.22958e-09
1.61673e-07
-1.59861e-07
2.83105e-08
-3.01222e-08
1.56775e-07
-1.528e-07
5.01423e-08
-5.41169e-08
1.47625e-07
-1.41875e-07
6.71046e-08
-7.28551e-08
1.35074e-07
-1.28026e-07
7.87546e-08
-8.58022e-08
1.20124e-07
-1.12277e-07
8.53905e-08
-9.32382e-08
1.03774e-07
-9.55762e-08
8.7715e-08
-9.59131e-08
8.6899e-08
-7.86928e-08
8.68349e-08
-9.50411e-08
7.01592e-08
-6.22044e-08
8.35351e-08
-9.149e-08
5.40294e-08
-4.64887e-08
7.87677e-08
-8.63085e-08
3.88149e-08
-3.17922e-08
7.30969e-08
-8.01196e-08
2.46963e-08
-1.82414e-08
6.70466e-08
-7.35015e-08
1.17501e-08
-5.88141e-09
6.08974e-08
-6.67661e-08
-4.75546e-09
5.06417e-09
-3.08706e-10
6.7295e-10
-1.08304e-09
-5.83602e-09
6.2461e-09
1.62381e-09
-2.28111e-09
-9.3476e-09
1.00049e-08
3.16496e-09
-4.23146e-09
-1.51448e-08
1.62113e-08
5.63872e-09
-7.29601e-09
-2.34995e-08
2.51568e-08
9.42799e-09
-1.18744e-08
-3.46187e-08
3.70651e-08
1.49438e-08
-1.83795e-08
-4.84568e-08
5.18926e-08
2.25876e-08
-2.71865e-08
-6.45033e-08
6.91022e-08
3.26893e-08
-3.85638e-08
-8.16531e-08
8.75276e-08
4.54285e-08
-5.2579e-08
-9.80572e-08
1.05208e-07
6.07274e-08
-6.89949e-08
-1.11311e-07
1.19578e-07
7.81693e-08
-8.72248e-08
-1.18859e-07
1.27914e-07
9.69865e-08
-1.06317e-07
-1.18352e-07
1.27683e-07
1.16022e-07
-1.24929e-07
-1.08257e-07
1.17165e-07
1.33783e-07
-1.41502e-07
-8.87671e-08
9.64863e-08
1.48733e-07
-1.54605e-07
-6.19024e-08
6.77747e-08
1.59628e-07
-1.63212e-07
-3.07517e-08
3.43356e-08
1.65687e-07
-1.66774e-07
1.40424e-09
-3.16654e-10
1.66601e-07
-1.65201e-07
3.17389e-08
-3.31388e-08
1.62479e-07
-1.58772e-07
5.7966e-08
-6.16729e-08
1.53788e-07
-1.48126e-07
7.85658e-08
-8.42283e-08
1.4132e-07
-1.3418e-07
9.28946e-08
-1.00034e-07
1.261e-07
-1.18016e-07
1.01198e-07
-1.09282e-07
1.0921e-07
-1.00683e-07
1.04268e-07
-1.12795e-07
9.16267e-08
-8.30388e-08
1.03429e-07
-1.12017e-07
7.40875e-08
-6.57268e-08
9.9638e-08
-1.07999e-07
5.71197e-08
-4.91688e-08
9.40442e-08
-1.01995e-07
4.10677e-08
-3.36466e-08
8.73313e-08
-9.47524e-08
2.61426e-08
-1.93124e-08
8.01346e-08
-8.69647e-08
1.24407e-08
-6.22716e-09
7.27983e-08
-7.90119e-08
-5.36958e-09
5.67143e-09
-3.01841e-10
6.59427e-10
-1.0612e-09
-6.6522e-09
7.05397e-09
1.59094e-09
-2.23496e-09
-1.06558e-08
1.12998e-08
3.10115e-09
-4.14656e-09
-1.72676e-08
1.8313e-08
5.52626e-09
-7.15143e-09
-2.67985e-08
2.84237e-08
9.24255e-09
-1.16428e-08
-3.94892e-08
4.18895e-08
1.46558e-08
-1.80304e-08
-5.52989e-08
5.86736e-08
2.21671e-08
-2.6693e-08
-7.3666e-08
7.81919e-08
3.21162e-08
-3.79168e-08
-9.33668e-08
9.91675e-08
4.47113e-08
-5.18092e-08
-1.12333e-07
1.19431e-07
5.99243e-08
-6.81902e-08
-1.27846e-07
1.36112e-07
7.7405e-08
-8.65518e-08
-1.37015e-07
1.46162e-07
9.64776e-08
-1.06038e-07
-1.37125e-07
1.46686e-07
1.16067e-07
-1.25358e-07
-1.26258e-07
1.35549e-07
1.34689e-07
-1.42922e-07
-1.04454e-07
1.12686e-07
1.50744e-07
-1.57214e-07
-7.3935e-08
8.04044e-08
1.62889e-07
-1.67101e-07
-3.82214e-08
4.2433e-08
1.7023e-07
-1.71916e-07
-1.05414e-09
2.73993e-09
1.72334e-07
-1.71442e-07
3.4298e-08
-3.51894e-08
1.69179e-07
-1.65819e-07
6.52171e-08
-6.8577e-08
1.61092e-07
-1.55561e-07
8.98314e-08
-9.53623e-08
1.48773e-07
-1.41538e-07
1.07222e-07
-1.14457e-07
1.33252e-07
-1.2489e-07
1.17499e-07
-1.25862e-07
1.15723e-07
-1.06804e-07
1.2151e-07
-1.30429e-07
9.7299e-08
-8.82588e-08
1.20822e-07
-1.29862e-07
7.88127e-08
-6.99695e-08
1.16591e-07
-1.25434e-07
6.08474e-08
-5.24057e-08
1.10181e-07
-1.18623e-07
4.37915e-08
-3.58908e-08
1.02403e-07
-1.10303e-07
2.78937e-08
-2.06096e-08
9.40114e-08
-1.01295e-07
1.32779e-08
-6.64605e-09
8.5425e-08
-9.20568e-08
-5.96964e-09
6.26379e-09
-2.94154e-10
6.44313e-10
-1.03677e-09
-7.45128e-09
7.84374e-09
1.55417e-09
-2.18333e-09
-1.19366e-08
1.25658e-08
3.02975e-09
-4.05155e-09
-1.93471e-08
2.03688e-08
5.4004e-09
-6.98958e-09
-3.00314e-08
3.16206e-08
9.03491e-09
-1.13835e-08
-4.42647e-08
4.66133e-08
1.4333e-08
-1.76389e-08
-6.2015e-08
6.5321e-08
2.1695e-08
-2.61382e-08
-8.26778e-08
8.7121e-08
3.14708e-08
-3.71868e-08
-1.04927e-07
1.10643e-07
4.39001e-08
-5.09357e-08
-1.265e-07
1.33535e-07
5.90094e-08
-6.72681e-08
-1.44375e-07
1.52634e-07
7.65213e-08
-8.57632e-08
-1.55356e-07
1.64598e-07
9.58662e-08
-1.0568e-07
-1.56371e-07
1.66185e-07
1.16071e-07
-1.25795e-07
-1.45051e-07
1.54775e-07
1.35668e-07
-1.44486e-07
-1.21203e-07
1.3002e-07
1.52984e-07
-1.60139e-07
-8.72057e-08
9.43607e-08
1.66566e-07
-1.71506e-07
-4.6996e-08
5.19355e-08
1.754e-07
-1.77795e-07
-4.76627e-09
7.16166e-09
1.78922e-07
-1.7865e-07
3.57868e-08
-3.60587e-08
1.76959e-07
-1.74046e-07
7.1728e-08
-7.46412e-08
1.69665e-07
-1.64328e-07
1.00806e-07
-1.06143e-07
1.57593e-07
-1.50264e-07
1.2174e-07
-1.29068e-07
1.41745e-07
-1.33053e-07
1.34382e-07
-1.43074e-07
1.23455e-07
-1.14072e-07
1.39571e-07
-1.48954e-07
1.04039e-07
-9.44715e-08
1.39157e-07
-1.48725e-07
8.4449e-08
-7.50418e-08
1.3455e-07
-1.43957e-07
6.5314e-08
-5.62913e-08
1.27344e-07
-1.36366e-07
4.70662e-08
-3.85918e-08
1.18479e-07
-1.26953e-07
3.00033e-08
-2.21736e-08
1.0884e-07
-1.1667e-07
1.42869e-08
-7.15065e-09
9.89295e-08
-1.06066e-07
-6.55388e-09
6.83959e-09
-2.85706e-10
6.27534e-10
-1.00964e-09
-8.23118e-09
8.61328e-09
1.5133e-09
-2.12594e-09
-1.31869e-08
1.37995e-08
2.95037e-09
-3.94591e-09
-2.13778e-08
2.23733e-08
5.26044e-09
-6.80957e-09
-3.31901e-08
3.47392e-08
8.80389e-09
-1.10948e-08
-4.89337e-08
5.12246e-08
1.39734e-08
-1.72024e-08
-6.85892e-08
7.18182e-08
2.11681e-08
-2.5518e-08
-9.15185e-08
9.58684e-08
3.07478e-08
-3.63667e-08
-1.16312e-07
1.21931e-07
4.29855e-08
-4.99471e-08
-1.40535e-07
1.47496e-07
5.79679e-08
-6.62102e-08
-1.60885e-07
1.69128e-07
7.54948e-08
-8.483e-08
-1.73887e-07
1.83222e-07
9.5117e-08
-1.05203e-07
-1.76132e-07
1.86218e-07
1.15989e-07
-1.26191e-07
-1.64732e-07
1.74935e-07
1.36668e-07
-1.46141e-07
-1.39156e-07
1.48629e-07
1.55399e-07
-1.63329e-07
-1.01891e-07
1.0982e-07
1.7061e-07
-1.76382e-07
-5.72775e-08
6.30497e-08
1.81158e-07
-1.84381e-07
-9.95554e-09
1.31786e-08
1.86348e-07
-1.86822e-07
3.59746e-08
-3.55001e-08
1.85842e-07
-1.83505e-07
7.72849e-08
-7.96219e-08
1.79593e-07
-1.74542e-07
1.1135e-07
-1.164e-07
1.6792e-07
-1.60513e-07
1.36438e-07
-1.43846e-07
1.51727e-07
-1.4264e-07
1.51953e-07
-1.6104e-07
1.32523e-07
-1.2259e-07
1.586e-07
-1.68533e-07
1.11947e-07
-1.01779e-07
1.58583e-07
-1.68751e-07
9.11046e-08
-8.10545e-08
1.53675e-07
-1.63726e-07
7.06273e-08
-6.09254e-08
1.45715e-07
-1.55417e-07
5.09797e-08
-4.18243e-08
1.35753e-07
-1.44908e-07
3.2531e-08
-2.40497e-08
1.2481e-07
-1.33292e-07
1.54982e-08
-7.75683e-09
1.1349e-07
-1.21231e-07
-7.12084e-09
7.3973e-09
-2.76463e-10
6.09137e-10
-9.79867e-10
-8.98988e-09
9.36061e-09
1.46844e-09
-2.06293e-09
-1.44033e-08
1.49978e-08
2.86322e-09
-3.82992e-09
-2.33549e-08
2.43216e-08
5.10675e-09
-6.61183e-09
-3.62669e-08
3.7772e-08
8.55004e-09
-1.07774e-08
-5.34844e-08
5.57118e-08
1.35779e-08
-1.67218e-08
-7.50059e-08
7.81498e-08
2.05872e-08
-2.48331e-08
-1.00168e-07
1.04414e-07
2.99473e-08
-3.54563e-08
-1.27497e-07
1.33006e-07
4.19665e-08
-4.8841e-08
-1.54416e-07
1.61291e-07
5.6796e-08
-6.50103e-08
-1.77358e-07
1.85572e-07
7.43153e-08
-8.37375e-08
-1.92602e-07
2.02024e-07
9.42101e-08
-1.04581e-07
-1.96445e-07
2.06815e-07
1.15791e-07
-1.26516e-07
-1.85393e-07
1.96117e-07
1.37656e-07
-1.47855e-07
-1.58456e-07
1.68654e-07
1.57959e-07
-1.66752e-07
-1.1817e-07
1.26964e-07
1.74992e-07
-1.81705e-07
-6.92787e-08
7.59919e-08
1.87488e-07
-1.91666e-07
-1.68633e-08
2.10415e-08
1.94616e-07
-1.95986e-07
3.45975e-08
-3.32271e-08
1.95883e-07
-1.94285e-07
8.16132e-08
-8.32117e-08
1.91007e-07
-1.8638e-07
1.21259e-07
-1.25886e-07
1.79971e-07
-1.72517e-07
1.51283e-07
-1.58737e-07
1.63426e-07
-1.53847e-07
1.70358e-07
-1.79937e-07
1.43078e-07
-1.32477e-07
1.78783e-07
-1.89384e-07
1.21134e-07
-1.10308e-07
1.79243e-07
-1.90068e-07
9.893e-08
-8.81727e-08
1.74123e-07
-1.84881e-07
7.69524e-08
-6.64604e-08
1.65499e-07
-1.75991e-07
5.56639e-08
-4.56954e-08
1.54451e-07
-1.6442e-07
3.55631e-08
-2.63073e-08
1.42144e-07
-1.514e-07
1.69568e-08
-8.48892e-09
1.2932e-07
-1.37788e-07
-7.66889e-09
7.93532e-09
-2.66436e-10
5.89286e-10
-9.47717e-10
-9.72538e-09
1.00838e-08
1.41996e-09
-1.99485e-09
-1.55827e-08
1.61576e-08
2.76903e-09
-3.70455e-09
-2.5273e-08
2.62086e-08
4.9406e-09
-6.39805e-09
-3.92537e-08
4.07112e-08
8.27549e-09
-1.0434e-08
-5.79055e-08
6.00641e-08
1.31496e-08
-1.6201e-08
-8.12484e-08
8.42998e-08
1.99568e-08
-2.40887e-08
-1.08604e-07
1.12736e-07
2.90755e-08
-3.44617e-08
-1.38455e-07
1.43842e-07
4.08495e-08
-4.76238e-08
-1.68117e-07
1.74892e-07
5.54998e-08
-6.36733e-08
-1.93768e-07
2.01942e-07
7.29854e-08
-8.24845e-08
-2.11487e-07
2.20986e-07
9.31396e-08
-1.03805e-07
-2.17333e-07
2.27998e-07
1.15467e-07
-1.26756e-07
-2.07119e-07
2.18408e-07
1.38623e-07
-1.49619e-07
-1.79242e-07
1.90239e-07
1.60656e-07
-1.70406e-07
-1.36225e-07
1.45975e-07
1.79711e-07
-1.87478e-07
-8.32185e-08
9.09858e-08
1.94399e-07
-1.99675e-07
-2.57504e-08
3.1026e-08
2.03751e-07
-2.06189e-07
3.1346e-08
-2.89083e-08
2.0716e-07
-2.06505e-07
8.43662e-08
-8.50207e-08
2.04087e-07
-2.00087e-07
1.3023e-07
-1.3423e-07
1.94058e-07
-1.86629e-07
1.66191e-07
-1.7362e-07
1.77184e-07
-1.66948e-07
1.89819e-07
-2.00054e-07
1.55293e-07
-1.43832e-07
2.00383e-07
-2.11844e-07
1.31686e-07
-1.20196e-07
2.01231e-07
-2.12721e-07
1.0814e-07
-9.66628e-08
1.96003e-07
-2.0748e-07
8.45575e-08
-7.31341e-08
1.86928e-07
-1.98352e-07
6.13129e-08
-5.03395e-08
1.74861e-07
-1.85834e-07
3.92119e-08
-2.90605e-08
1.61092e-07
-1.71243e-07
1.87367e-08
-9.40408e-09
1.46671e-07
-1.56004e-07
-8.19656e-09
8.45225e-09
-2.55693e-10
5.67927e-10
-9.13097e-10
-1.04358e-08
1.07809e-08
1.36774e-09
-1.92148e-09
-1.67221e-08
1.72758e-08
2.66751e-09
-3.56942e-09
-2.71276e-08
2.80295e-08
4.76149e-09
-6.16753e-09
-4.21433e-08
4.35493e-08
7.97934e-09
-1.00634e-08
-6.21858e-08
6.42699e-08
1.2687e-08
-1.56379e-08
-8.73019e-08
9.02528e-08
1.92745e-08
-2.32814e-08
-1.16806e-07
1.20813e-07
2.81273e-08
-3.33767e-08
-1.49161e-07
1.5441e-07
3.96258e-08
-4.62844e-08
-1.8161e-07
1.88268e-07
5.4065e-08
-6.21811e-08
-2.10088e-07
2.18204e-07
7.14806e-08
-8.10384e-08
-2.30517e-07
2.40074e-07
9.1864e-08
-1.02825e-07
-2.38811e-07
2.49772e-07
1.14959e-07
-1.26849e-07
-2.29992e-07
2.41883e-07
1.39501e-07
-1.51365e-07
-2.01659e-07
2.13524e-07
1.63422e-07
-1.74221e-07
-1.56237e-07
1.67036e-07
1.84698e-07
-1.93632e-07
-9.93216e-08
1.08255e-07
2.01823e-07
-2.08328e-07
-3.68978e-08
4.34026e-08
2.13716e-07
-2.17394e-07
2.5874e-08
-2.21959e-08
2.19657e-07
-2.20199e-07
8.51124e-08
-8.45703e-08
2.18946e-07
-2.15883e-07
1.37808e-07
-1.40872e-07
2.10524e-07
-2.03286e-07
1.80983e-07
-1.8822e-07
1.93444e-07
-1.82265e-07
2.10713e-07
-2.21892e-07
1.69253e-07
-1.56549e-07
2.23856e-07
-2.3656e-07
1.43472e-07
-1.31468e-07
2.24503e-07
-2.36507e-07
1.19005e-07
-1.06953e-07
2.1928e-07
-2.31332e-07
9.38605e-08
-8.1271e-08
2.10316e-07
-2.22905e-07
6.8137e-08
-5.57576e-08
1.97432e-07
-2.09811e-07
4.34988e-08
-3.24807e-08
1.81855e-07
-1.92873e-07
2.09337e-08
-1.06728e-08
1.65807e-07
-1.76068e-07
-8.7023e-09
8.9465e-09
-2.44205e-10
5.45132e-10
-8.76104e-10
-1.11192e-08
1.14502e-08
1.31189e-09
-1.84301e-09
-1.78185e-08
1.83496e-08
2.55893e-09
-3.42487e-09
-2.89137e-08
2.97797e-08
4.56988e-09
-5.92087e-09
-4.49283e-08
4.62793e-08
7.66233e-09
-9.6664e-09
-6.63147e-08
6.83187e-08
1.21912e-08
-1.50338e-08
-9.31505e-08
9.59931e-08
1.85413e-08
-2.24123e-08
-1.24754e-07
1.28625e-07
2.71038e-08
-3.22012e-08
-1.59586e-07
1.64683e-07
3.82944e-08
-4.48207e-08
-1.94863e-07
2.01389e-07
5.24881e-08
-6.05278e-08
-2.26285e-07
2.34325e-07
6.97898e-08
-7.9381e-08
-2.49653e-07
2.59244e-07
9.03558e-08
-1.01606e-07
-2.60879e-07
2.7213e-07
1.14224e-07
-1.26751e-07
-2.54088e-07
2.66614e-07
1.40245e-07
-1.53049e-07
-2.25849e-07
2.38653e-07
1.66213e-07
-1.78151e-07
-1.78393e-07
1.90331e-07
1.89905e-07
-2.00118e-07
-1.17815e-07
1.28027e-07
2.09713e-07
-2.17593e-07
-5.0577e-08
5.84566e-08
2.24462e-07
-2.29559e-07
1.783e-08
-1.27322e-08
2.33365e-07
-2.35392e-07
8.3324e-08
-8.12971e-08
2.35702e-07
-2.34032e-07
1.43306e-07
-1.44976e-07
2.29855e-07
-2.23188e-07
1.95242e-07
-2.01909e-07
2.12993e-07
-2.00363e-07
2.33715e-07
-2.46345e-07
1.84962e-07
-1.70095e-07
2.50171e-07
-2.65038e-07
1.55858e-07
-1.43895e-07
2.48602e-07
-2.60565e-07
1.31945e-07
-1.19854e-07
2.43508e-07
-2.55599e-07
1.05493e-07
-9.11204e-08
2.36261e-07
-2.50634e-07
7.60427e-08
-6.10989e-08
2.23245e-07
-2.38189e-07
4.77819e-08
-3.66414e-08
2.0413e-07
-2.1527e-07
2.34815e-08
-1.27183e-08
1.86693e-07
-1.97457e-07
-9.18476e-09
9.41676e-09
-2.31999e-10
5.2107e-10
-8.36998e-10
-1.17738e-08
1.20897e-08
1.25281e-09
-1.75998e-09
-1.88689e-08
1.93761e-08
2.44402e-09
-3.27187e-09
-3.06269e-08
3.14548e-08
4.36704e-09
-5.65973e-09
-4.76016e-08
4.88943e-08
7.32657e-09
-9.24572e-09
-7.0281e-08
7.22002e-08
1.16653e-08
-1.43924e-08
-9.87791e-08
1.01506e-07
1.7762e-08
-2.14869e-08
-1.32424e-07
1.36149e-07
2.60109e-08
-3.09417e-08
-1.69699e-07
1.7463e-07
3.68616e-08
-4.32385e-08
-2.07843e-07
2.1422e-07
5.07751e-08
-5.87186e-08
-2.42319e-07
2.50263e-07
6.7915e-08
-7.75073e-08
-2.68841e-07
2.78433e-07
8.86017e-08
-1.00128e-07
-2.83521e-07
2.95047e-07
1.13238e-07
-1.26434e-07
-2.79473e-07
2.92668e-07
1.40829e-07
-1.54646e-07
-2.51954e-07
2.65771e-07
1.69007e-07
-1.82178e-07
-2.02875e-07
2.16046e-07
1.95314e-07
-2.06916e-07
-1.38921e-07
1.50523e-07
2.18053e-07
-2.27452e-07
-6.70783e-08
7.64777e-08
2.35971e-07
-2.42657e-07
6.85368e-09
-1.67981e-10
2.48235e-07
-2.52076e-07
7.84015e-08
-7.45598e-08
2.54428e-07
-2.54798e-07
1.45721e-07
-1.45351e-07
2.52677e-07
-2.47417e-07
2.0802e-07
-2.13281e-07
2.37227e-07
-2.22291e-07
2.59994e-07
-2.74931e-07
2.02164e-07
-1.82815e-07
2.81721e-07
-3.01069e-07
1.66842e-07
-1.56288e-07
2.72054e-07
-2.82608e-07
1.4699e-07
-1.35925e-07
2.67323e-07
-2.78388e-07
1.19093e-07
-1.01122e-07
2.6647e-07
-2.8444e-07
8.3057e-08
-6.33553e-08
2.55272e-07
-2.74974e-07
4.95757e-08
-4.04091e-08
2.25725e-07
-2.34891e-07
2.53001e-08
-1.53041e-08
2.07995e-07
-2.17991e-07
-9.64243e-09
9.86156e-09
-2.19128e-10
4.9572e-10
-7.95724e-10
-1.23978e-08
1.26978e-08
1.1904e-09
-1.67226e-09
-1.98708e-08
2.03527e-08
2.3226e-09
-3.1102e-09
-3.22627e-08
3.30503e-08
4.15268e-09
-5.38367e-09
-5.01564e-08
5.13874e-08
6.97151e-09
-8.80059e-09
-7.40748e-08
7.59039e-08
1.11084e-08
-1.37126e-08
-1.04173e-07
1.06777e-07
1.69347e-08
-2.05026e-08
-1.39797e-07
1.43365e-07
2.48449e-08
-2.95926e-08
-1.79471e-07
1.84219e-07
3.53194e-08
-4.15279e-08
-2.20515e-07
2.26723e-07
4.89138e-08
-5.67384e-08
-2.58149e-07
2.65974e-07
6.58335e-08
-7.53835e-08
-2.8801e-07
2.9756e-07
8.65529e-08
-9.83274e-08
-3.06701e-07
3.18476e-07
1.11927e-07
-1.25817e-07
-3.06207e-07
3.20097e-07
1.41169e-07
-1.56073e-07
-2.80122e-07
2.95026e-07
1.71722e-07
-1.86215e-07
-2.29866e-07
2.44359e-07
2.00831e-07
-2.13926e-07
-1.62859e-07
1.75954e-07
2.26735e-07
-2.37797e-07
-8.669e-08
9.77521e-08
2.48104e-07
-2.5655e-07
-7.38072e-09
1.58269e-08
2.64081e-07
-2.70021e-07
6.97067e-08
-6.3767e-08
2.74919e-07
-2.78122e-07
1.43666e-07
-1.40463e-07
2.79335e-07
-2.76983e-07
2.17304e-07
-2.19656e-07
2.67701e-07
-2.49119e-07
2.91491e-07
-3.10073e-07
2.19939e-07
-1.91843e-07
3.24233e-07
-3.52329e-07
1.72958e-07
-1.65027e-07
2.91806e-07
-2.99737e-07
1.59712e-07
-1.4962e-07
2.887e-07
-2.98792e-07
1.28017e-07
-1.04572e-07
3.05232e-07
-3.28677e-07
8.46431e-08
-6.36459e-08
2.96722e-07
-3.17719e-07
4.94233e-08
-4.09404e-08
2.42798e-07
-2.51281e-07
2.48141e-08
-1.40642e-08
2.27678e-07
-2.38428e-07
-1.0074e-08
1.02796e-08
-2.05579e-10
4.69168e-10
-7.524e-10
-1.29896e-08
1.32729e-08
1.12482e-09
-1.58008e-09
-2.08213e-08
2.12766e-08
2.19498e-09
-2.94025e-09
-3.3817e-08
3.45623e-08
3.92733e-09
-5.09342e-09
-5.25864e-08
5.37525e-08
6.59804e-09
-8.33209e-09
-7.76861e-08
7.94201e-08
1.05217e-08
-1.29957e-08
-1.09317e-07
1.11791e-07
1.60611e-08
-1.94613e-08
-1.4685e-07
1.5025e-07
2.36075e-08
-2.8155e-08
-1.88869e-07
1.93416e-07
3.36675e-08
-3.96869e-08
-2.3284e-07
2.3886e-07
4.6902e-08
-5.45849e-08
-2.7373e-07
2.81413e-07
6.35379e-08
-7.29901e-08
-3.07069e-07
3.16521e-07
8.41749e-08
-9.61568e-08
-3.3036e-07
3.42342e-07
1.10231e-07
-1.24835e-07
-3.34343e-07
3.48947e-07
1.41201e-07
-1.57269e-07
-3.10503e-07
3.26571e-07
1.743e-07
-1.90204e-07
-2.59547e-07
2.75451e-07
2.06387e-07
-2.21067e-07
-1.89831e-07
2.04512e-07
2.3568e-07
-2.4855e-07
-1.09699e-07
1.22569e-07
2.60776e-07
-2.71073e-07
-2.51899e-08
3.54874e-08
2.8065e-07
-2.88837e-07
5.67146e-08
-4.85272e-08
2.96604e-07
-3.0306e-07
1.35609e-07
-1.29153e-07
3.08244e-07
-3.0945e-07
2.20055e-07
-2.1885e-07
3.00956e-07
-2.77566e-07
3.31039e-07
-3.54429e-07
2.38968e-07
-2.04593e-07
3.85304e-07
-4.19679e-07
1.82905e-07
-1.70442e-07
3.07925e-07
-3.20388e-07
1.55892e-07
-1.37798e-07
3.10572e-07
-3.28666e-07
1.16589e-07
-9.95951e-08
3.52122e-07
-3.69116e-07
8.57489e-08
-8.12155e-08
3.33052e-07
-3.37586e-07
6.2704e-08
-3.65577e-08
2.64846e-07
-2.90992e-07
2.54329e-08
-5.76482e-09
2.52494e-07
-2.72162e-07
-1.04782e-08
1.06696e-08
-1.91369e-10
4.41591e-10
-7.07274e-10
-1.35475e-08
1.38131e-08
1.05645e-09
-1.48396e-09
-2.17182e-08
2.21457e-08
2.06187e-09
-2.76298e-09
-3.52857e-08
3.59868e-08
3.69225e-09
-4.79061e-09
-5.48851e-08
5.59835e-08
6.20825e-09
-7.84282e-09
-8.1105e-08
8.27396e-08
9.90854e-09
-1.22456e-08
-1.14197e-07
1.16534e-07
1.51461e-08
-1.83684e-08
-1.53563e-07
1.56785e-07
2.2305e-08
-2.66352e-08
-1.97857e-07
2.02188e-07
3.19115e-08
-3.77209e-08
-2.44777e-07
2.50586e-07
4.47468e-08
-5.22677e-08
-2.89018e-07
2.96539e-07
6.1034e-08
-7.03211e-08
-3.259e-07
3.35187e-07
8.14453e-08
-9.35794e-08
-3.54409e-07
3.66543e-07
1.08103e-07
-1.23438e-07
-3.63916e-07
3.79251e-07
1.40876e-07
-1.58196e-07
-3.43255e-07
3.60574e-07
1.76711e-07
-1.94118e-07
-2.92096e-07
3.09503e-07
2.11947e-07
-2.28285e-07
-2.20014e-07
2.36352e-07
2.44833e-07
-2.59684e-07
-1.36407e-07
1.51259e-07
2.73959e-07
-2.861e-07
-4.67216e-08
5.88623e-08
2.97634e-07
-3.07875e-07
3.92301e-08
-2.89887e-08
3.17848e-07
-3.25405e-07
1.21539e-07
-1.13982e-07
3.29147e-07
-3.26218e-07
2.17779e-07
-2.20708e-07
3.10919e-07
-2.85326e-07
3.79512e-07
-4.05105e-07
2.62624e-07
-2.59961e-07
4.46106e-07
-4.4877e-07
2.51585e-07
-2.15218e-07
3.42795e-07
-3.79163e-07
1.5598e-07
-9.01202e-08
3.6283e-07
-4.2869e-07
7.34634e-08
-1.07319e-07
3.68e-07
-3.34144e-07
1.028e-07
-1.28861e-07
3.29842e-07
-3.03781e-07
9.40387e-08
-3.79238e-08
3.37989e-07
-3.94104e-07
3.74692e-08
-1.77706e-08
2.99135e-07
-3.18833e-07
-1.08537e-08
1.10302e-08
-1.76574e-10
4.13011e-10
-6.6034e-10
-1.40698e-08
1.43171e-08
9.85241e-10
-1.38384e-09
-2.25588e-08
2.29574e-08
1.92321e-09
-2.5783e-09
-3.6665e-08
3.73201e-08
3.44733e-09
-4.47507e-09
-5.70468e-08
5.80745e-08
5.80192e-09
-7.33246e-09
-8.43226e-08
8.58531e-08
9.26834e-09
-1.14617e-08
-1.188e-07
1.20993e-07
1.41885e-08
-1.72229e-08
-1.59915e-07
1.62949e-07
2.09353e-08
-2.50297e-08
-2.06402e-07
2.10496e-07
3.0045e-08
-3.56204e-08
-2.56281e-07
2.61857e-07
4.24383e-08
-4.97798e-08
-3.03971e-07
3.11313e-07
5.83097e-08
-6.73459e-08
-3.4436e-07
3.53396e-07
7.83089e-08
-9.0518e-08
-3.78725e-07
3.90934e-07
1.05446e-07
-1.21518e-07
-3.94953e-07
4.11025e-07
1.40088e-07
-1.58751e-07
-3.78552e-07
3.97215e-07
1.78864e-07
-1.97868e-07
-3.27696e-07
3.467e-07
2.17403e-07
-2.3543e-07
-2.53533e-07
2.7156e-07
2.54029e-07
-2.71098e-07
-1.67182e-07
1.84251e-07
2.8758e-07
-3.0142e-07
-7.18764e-08
8.57163e-08
3.14419e-07
-3.25475e-07
1.80803e-08
-7.02432e-09
3.34275e-07
-3.34059e-07
1.08772e-07
-1.08988e-07
3.17301e-07
-2.90509e-07
2.33399e-07
-2.60191e-07
2.48635e-07
-2.06312e-07
4.31902e-07
-4.74224e-07
2.27678e-07
-3.53725e-07
4.06783e-07
-2.80737e-07
3.50309e-07
-2.74004e-07
4.49257e-07
-5.25562e-07
2.17108e-07
-1.86079e-07
5.3376e-07
-5.64789e-07
1.4278e-07
-9.54876e-08
2.90948e-07
-3.38241e-07
7.65884e-08
-5.29574e-08
3.19473e-07
-3.43104e-07
4.76722e-08
-5.39242e-08
3.72746e-07
-3.66494e-07
3.82e-08
-2.25647e-08
3.31284e-07
-3.46919e-07
-1.11992e-08