/*--------------------------------*- C++ -*----------------------------------*\
| =========                 |                                                 |
| \\      /  F ield         | OpenFOAM: The Open Source CFD Toolbox           |
|  \\    /   O peration     | Version:  2.4.0                                 |
|   \\  /    A nd           | Web:      www.OpenFOAM.org                      |
|    \\/     M anipulation  |                                                 |
\*---------------------------------------------------------------------------*/
FoamFile
{
    version     2.0;
    format      ascii;
    class       volScalarField;
    location    "0.077";
    object      p_rgh;
}
// * * * * * * * * * * * * * * * * * * * * * * * * * * * * * * * * * * * * * //

dimensions      [1 -1 -2 0 0 0 0];

internalField   nonuniform List<scalar> 
10000
(
0.0153302
0.0153358
0.0153371
0.0153304
0.0153154
0.0152925
0.0152621
0.0152242
0.0151788
0.0151263
0.0150669
0.0150008
0.0149286
0.0148507
0.0147677
0.0146801
0.0145886
0.0144937
0.0143958
0.0142952
0.0141919
0.0140858
0.0139767
0.013864
0.0137469
0.0136247
0.0134963
0.0133608
0.0132173
0.013065
0.0129031
0.0127314
0.0125496
0.0123578
0.0121564
0.0119462
0.0117281
0.0115032
0.0112729
0.0110386
0.0108019
0.0105642
0.0103268
0.0100911
0.00985799
0.00962841
0.00940291
0.0091818
0.00896514
0.00875269
0.0153145
0.0153205
0.0153215
0.0153141
0.0152984
0.0152749
0.0152437
0.0152048
0.0151585
0.0151049
0.0150443
0.0149772
0.0149041
0.0148255
0.014742
0.0146542
0.0145628
0.0144682
0.0143709
0.0142712
0.014169
0.0140642
0.0139565
0.0138452
0.0137296
0.0136088
0.0134818
0.0133477
0.0132055
0.0130545
0.012894
0.0127237
0.0125433
0.0123531
0.0121535
0.0119452
0.0117292
0.0115065
0.0112786
0.0110468
0.0108125
0.0105772
0.0103422
0.0101086
0.00987729
0.00964913
0.00942458
0.00920391
0.00898713
0.00877403
0.0152842
0.0152901
0.0152905
0.0152822
0.0152655
0.0152407
0.0152081
0.0151678
0.01512
0.0150651
0.0150035
0.0149356
0.0148622
0.0147837
0.0147009
0.0146144
0.0145249
0.0144327
0.0143382
0.0142415
0.0141427
0.0140414
0.013937
0.013829
0.0137163
0.0135981
0.0134733
0.013341
0.0132002
0.0130502
0.0128905
0.0127207
0.0125408
0.0123511
0.0121521
0.0119445
0.0117294
0.011508
0.0112815
0.0110513
0.0108188
0.0105852
0.0103517
0.0101194
0.00988902
0.0096612
0.00943638
0.00921472
0.00899622
0.00878067
0.0152377
0.0152431
0.0152427
0.0152331
0.0152148
0.0151883
0.0151538
0.0151116
0.0150621
0.0150058
0.0149433
0.0148752
0.0148023
0.0147252
0.0146447
0.0145614
0.0144758
0.0143884
0.0142992
0.0142082
0.0141152
0.0140195
0.0139206
0.0138174
0.0137089
0.0135942
0.013472
0.0133415
0.0132017
0.013052
0.0128921
0.0127217
0.012541
0.0123504
0.0121505
0.0119423
0.011727
0.0115056
0.0112794
0.0110498
0.010818
0.0105852
0.0103522
0.0101201
0.00988932
0.00966044
0.00943373
0.00920931
0.00898717
0.00876711
0.0151752
0.0151799
0.0151783
0.0151671
0.0151468
0.0151181
0.0150813
0.0150371
0.0149858
0.0149284
0.0148654
0.0147979
0.0147266
0.0146524
0.0145759
0.0144977
0.0144183
0.0143378
0.0142561
0.014173
0.0140877
0.0139996
0.0139075
0.0138103
0.0137069
0.013596
0.0134766
0.0133476
0.0132084
0.0130583
0.0128973
0.0127253
0.0125428
0.0123503
0.0121487
0.0119391
0.0117226
0.0115005
0.011274
0.0110443
0.0108125
0.0105796
0.0103463
0.0101132
0.00988091
0.00964959
0.00941947
0.00919061
0.00896302
0.00873661
0.0150972
0.0151009
0.0150979
0.0150849
0.0150624
0.0150313
0.0149923
0.014946
0.0148934
0.0148353
0.0147727
0.0147068
0.0146386
0.0145687
0.014498
0.0144269
0.0143556
0.0142841
0.0142118
0.0141382
0.0140622
0.0139827
0.0138983
0.0138078
0.0137096
0.0136026
0.0134856
0.0133578
0.0132185
0.0130674
0.0129047
0.0127305
0.0125455
0.0123505
0.0121467
0.0119351
0.0117171
0.0114938
0.0112665
0.0110362
0.0108037
0.0105699
0.0103352
0.0101002
0.00986497
0.00962978
0.00939469
0.0091598
0.00892518
0.0086909
0.0150042
0.0150068
0.0150023
0.0149873
0.0149627
0.0149294
0.0148883
0.0148405
0.014787
0.0147292
0.0146683
0.0146054
0.0145417
0.0144781
0.014415
0.0143528
0.0142915
0.0142305
0.0141691
0.0141061
0.0140402
0.0139699
0.0138934
0.0138094
0.0137162
0.0136126
0.0134975
0.0133702
0.0132303
0.0130777
0.0129127
0.012736
0.0125482
0.0123506
0.0121443
0.0119306
0.0117108
0.0114861
0.0112574
0.0110257
0.0107917
0.0105559
0.0103186
0.0100801
0.00984042
0.00959972
0.00935809
0.00911567
0.00887268
0.00862942
0.0148969
0.0148984
0.0148923
0.0148755
0.0148489
0.0148138
0.0147712
0.0147227
0.0146695
0.0146133
0.0145554
0.0144973
0.01444
0.0143843
0.0143307
0.0142791
0.0142291
0.0141799
0.0141301
0.0140783
0.0140226
0.0139613
0.0138924
0.0138143
0.0137253
0.0136244
0.0135106
0.0133832
0.0132422
0.0130878
0.0129205
0.012741
0.0125506
0.0123503
0.0121415
0.0119256
0.0117037
0.011477
0.0112462
0.0110122
0.0107753
0.0105359
0.0102943
0.0100504
0.00980448
0.00955655
0.00930683
0.00905562
0.00880335
0.00855057
0.014776
0.0147763
0.0147688
0.0147504
0.0147224
0.0146861
0.0146431
0.014595
0.0145436
0.0144905
0.0144375
0.0143859
0.0143369
0.014291
0.0142484
0.0142087
0.0141711
0.0141341
0.0140962
0.0140553
0.0140094
0.0139562
0.0138939
0.0138207
0.0137352
0.0136361
0.0135229
0.0133951
0.0132529
0.0130967
0.0129272
0.0127453
0.0125523
0.0123495
0.0121383
0.0119198
0.0116953
0.0114657
0.0112316
0.0109936
0.010752
0.0105071
0.010259
0.0100077
0.00975358
0.00949677
0.00923768
0.00897687
0.00871502
0.00845298
0.0146427
0.0146418
0.0146331
0.0146136
0.0145848
0.0145484
0.0145062
0.0144601
0.014412
0.014364
0.0143178
0.0142747
0.0142356
0.0142011
0.0141707
0.0141437
0.0141188
0.0140941
0.0140675
0.0140367
0.0139994
0.0139532
0.0138963
0.0138269
0.0137438
0.0136461
0.0135331
0.013405
0.0132618
0.0131042
0.0129329
0.0127491
0.0125538
0.0123486
0.0121345
0.0119129
0.0116848
0.0114508
0.0112116
0.0109676
0.0107191
0.0104663
0.0102094
0.00994869
0.00968458
0.00941758
0.00914839
0.00887785
0.00860695
0.00833679
0.0144981
0.0144961
0.0144864
0.0144665
0.0144379
0.0144026
0.0143627
0.0143202
0.0142774
0.0142364
0.0141989
0.014166
0.0141385
0.0141164
0.014099
0.0140849
0.0140725
0.0140593
0.0140429
0.0140209
0.0139907
0.0139502
0.0138975
0.013831
0.0137498
0.0136532
0.0135408
0.0134128
0.0132694
0.0131111
0.0129388
0.0127533
0.012556
0.0123479
0.0121303
0.0119044
0.011671
0.0114309
0.0111844
0.010932
0.0106741
0.010411
0.0101432
0.00987123
0.00959586
0.00931799
0.00903866
0.00875904
0.00848037
0.00820391
0.0143435
0.0143405
0.0143303
0.0143107
0.0142834
0.0142506
0.0142146
0.0141777
0.0141421
0.01411
0.0140829
0.0140617
0.0140469
0.0140378
0.0140334
0.0140319
0.0140309
0.014028
0.0140204
0.0140055
0.013981
0.0139449
0.0138956
0.0138317
0.0137526
0.0136576
0.0135466
0.0134198
0.0132772
0.0131193
0.0129466
0.0127597
0.0125599
0.0123482
0.0121259
0.011894
0.0116534
0.0114048
0.0111486
0.0108853
0.0106156
0.0103401
0.0100596
0.00977507
0.00948778
0.00919901
0.00891018
0.00862272
0.00833799
0.00805725
0.0141803
0.0141765
0.0141663
0.0141479
0.0141231
0.0140944
0.014064
0.0140344
0.0140078
0.0139862
0.0139709
0.0139625
0.0139607
0.0139647
0.0139728
0.0139827
0.0139919
0.0139975
0.0139971
0.0139879
0.0139681
0.0139358
0.0138897
0.0138288
0.0137526
0.0136605
0.0135525
0.0134282
0.0132879
0.0131314
0.0129587
0.0127702
0.0125671
0.0123505
0.0121216
0.0118817
0.0116316
0.0113721
0.0111037
0.0108272
0.0105435
0.0102538
0.00995927
0.00966156
0.00936226
0.0090631
0.00876575
0.0084718
0.00818261
0.00789925
0.01401
0.0140056
0.0139959
0.0139796
0.0139587
0.0139354
0.0139122
0.0138916
0.0138755
0.0138657
0.0138631
0.0138678
0.0138791
0.0138955
0.0139148
0.0139347
0.0139523
0.0139649
0.0139702
0.0139659
0.0139502
0.0139219
0.0138799
0.0138234
0.0137518
0.0136645
0.0135611
0.0134412
0.0133045
0.0131504
0.0129779
0.0127871
0.0125793
0.0123559
0.0121182
0.0118679
0.0116059
0.0113331
0.0110502
0.0107583
0.0104588
0.0101535
0.00984415
0.00953292
0.00922186
0.00891293
0.00860797
0.00830861
0.00801601
0.00773083
0.013834
0.0138293
0.0138208
0.0138075
0.0137914
0.013775
0.0137604
0.01375
0.0137456
0.0137483
0.0137586
0.0137762
0.0137997
0.0138272
0.0138563
0.0138845
0.0139089
0.0139272
0.0139373
0.0139377
0.0139268
0.0139037
0.0138676
0.0138176
0.0137529
0.0136726
0.0135759
0.0134621
0.0133304
0.0131795
0.0130073
0.0128128
0.0125985
0.012366
0.0121168
0.0118537
0.0115776
0.0112892
0.0109896
0.0106803
0.0103634
0.0100413
0.00971646
0.0093915
0.00906883
0.0087506
0.00843858
0.00813424
0.00783849
0.00755142
0.0136537
0.013649
0.0136421
0.0136327
0.0136226
0.013614
0.0136091
0.0136098
0.0136174
0.0136327
0.0136556
0.0136851
0.0137195
0.0137565
0.0137937
0.0138284
0.0138585
0.0138819
0.013897
0.0139029
0.0138985
0.0138829
0.0138553
0.0138145
0.0137594
0.0136885
0.0136004
0.0134939
0.0133685
0.0132226
0.0130507
0.0128506
0.0126277
0.0123832
0.0121191
0.0118409
0.0115488
0.0112429
0.0109245
0.0105959
0.0102599
0.00991972
0.00957843
0.00923917
0.00890469
0.00857714
0.00825803
0.00794846
0.00764912
0.00735967
0.0134704
0.0134658
0.0134612
0.0134562
0.0134528
0.0134528
0.0134581
0.0134702
0.0134898
0.0135171
0.0135515
0.0135915
0.013635
0.0136797
0.0137233
0.0137636
0.0137987
0.0138275
0.0138489
0.0138623
0.013867
0.013862
0.0138461
0.0138177
0.0137748
0.0137154
0.0136374
0.0135393
0.0134225
0.013285
0.0131147
0.0129062
0.0126717
0.0124119
0.0121284
0.0118328
0.0115229
0.0111976
0.0108584
0.0105084
0.0101513
0.00979115
0.00943184
0.00907698
0.00872963
0.00839196
0.00806511
0.00774958
0.00744582
0.00715339
0.0132849
0.0132808
0.0132786
0.0132787
0.0132824
0.0132913
0.0133068
0.0133298
0.0133607
0.0133989
0.0134432
0.0134919
0.0135427
0.0135934
0.0136422
0.0136875
0.0137282
0.0137638
0.0137938
0.0138178
0.013835
0.0138442
0.0138434
0.0138303
0.0138023
0.0137564
0.0136898
0.0136012
0.0134985
0.0133744
0.0132089
0.0129881
0.012738
0.012459
0.0121505
0.0118341
0.011505
0.0111581
0.0107956
0.0104214
0.0100403
0.00965729
0.00927721
0.00890416
0.00854156
0.00819185
0.00785592
0.00753345
0.00722433
0.00692842
0.0130979
0.0130943
0.013095
0.0131001
0.013111
0.0131286
0.0131538
0.0131869
0.0132277
0.0132751
0.0133274
0.0133828
0.0134391
0.0134947
0.0135483
0.013599
0.0136468
0.0136915
0.0137333
0.0137716
0.0138053
0.0138324
0.0138502
0.0138555
0.0138448
0.0138144
0.0137605
0.0136829
0.0136082
0.0135053
0.0133436
0.0131045
0.0128406
0.0125353
0.0121829
0.0118448
0.0115014
0.0111315
0.0107412
0.010338
0.00992813
0.00951771
0.00911234
0.00871675
0.00833491
0.00796982
0.00762257
0.00729202
0.00697694
0.0066774
0.0129096
0.0129067
0.0129102
0.0129203
0.0129379
0.0129635
0.0129973
0.0130391
0.013088
0.0131426
0.0132009
0.0132612
0.0133218
0.0133816
0.0134404
0.0134981
0.0135553
0.0136126
0.0136698
0.0137264
0.0137803
0.013829
0.0138688
0.0138955
0.0139051
0.0138932
0.0138536
0.0137856
0.0137687
0.0137126
0.0135465
0.0132727
0.013021
0.0126624
0.0121953
0.0118784
0.0115245
0.0111255
0.0107006
0.0102609
0.00981439
0.00936887
0.00893115
0.00850682
0.00810027
0.00771519
0.00735345
0.00701358
0.00669273
0.00639021
0.0127197
0.0127176
0.0127237
0.0127384
0.0127619
0.0127943
0.0128352
0.0128839
0.0129389
0.0129985
0.0130609
0.0131246
0.0131889
0.0132533
0.0133186
0.0133857
0.0134556
0.0135291
0.0136058
0.0136844
0.0137622
0.0138357
0.0139006
0.0139523
0.0139864
0.0139978
0.0139762
0.0139097
0.0139623
0.0140248
0.014523
0.0154593
0.0149499
0.0137679
0.0124427
0.0119335
0.0115802
0.0111483
0.0106779
0.0101905
0.00969623
0.00920499
0.0087253
0.00826414
0.00782648
0.00741628
0.00703637
0.00668572
0.00635983
0.00605615
0.0125277
0.0125263
0.0125347
0.0125531
0.0125814
0.0126191
0.0126653
0.0127187
0.0127776
0.0128403
0.0129053
0.0129718
0.0130397
0.01311
0.0131841
0.0132636
0.0133499
0.0134434
0.0135432
0.0136472
0.0137519
0.0138532
0.0139468
0.0140283
0.0140932
0.0141351
0.0141403
0.0140833
0.0140277
0.0157527
0.0173157
0.0170064
0.0170922
0.017289
0.0134388
0.0122088
0.0117088
0.0112108
0.0106761
0.0101248
0.00956926
0.00902055
0.00848824
0.00798096
0.00750496
0.00706435
0.00666228
0.00629859
0.00596808
0.00566574
0.0123326
0.0123317
0.0123418
0.012363
0.0123946
0.0124358
0.0124852
0.0125411
0.0126019
0.0126661
0.0127328
0.012802
0.0128747
0.0129528
0.0130385
0.0131339
0.0132401
0.0133571
0.0134831
0.0136151
0.0137491
0.0138812
0.0140079
0.0141263
0.0142325
0.014322
0.0143818
0.0143907
0.0143257
0.0184432
0.0179363
0.0168213
0.0160357
0.014799
0.0130797
0.0123969
0.0118815
0.0112977
0.0106818
0.0100552
0.00942861
0.00881303
0.00821851
0.00765543
0.00713232
0.00665434
0.006225
0.00584488
0.00550878
0.00520957
0.0121329
0.0121323
0.0121434
0.0121662
0.0121997
0.0122424
0.0122929
0.0123494
0.0124104
0.012475
0.0125431
0.0126157
0.0126949
0.0127834
0.0128839
0.0129985
0.0131279
0.013271
0.0134252
0.013587
0.0137524
0.0139183
0.014083
0.0142452
0.0144036
0.0145554
0.0146983
0.0148454
0.0148319
0.0146098
0.0148665
0.0152358
0.0151701
0.0143025
0.0133928
0.0127614
0.0121681
0.0114128
0.0106961
0.00998024
0.00927506
0.00858601
0.00792013
0.00728901
0.00670552
0.00617897
0.00571477
0.00531402
0.00497103
0.00467629
0.011927
0.0119264
0.0119377
0.0119609
0.0119945
0.012037
0.0120867
0.0121421
0.0122022
0.0122667
0.0123367
0.0124142
0.0125022
0.012604
0.0127223
0.0128589
0.0130137
0.0131847
0.0133684
0.0135611
0.0137594
0.0139618
0.0141679
0.0143778
0.0145903
0.0148064
0.0150354
0.0152356
0.0154154
0.0157715
0.0167499
0.0159196
0.0153535
0.014675
0.013912
0.013154
0.0123639
0.011541
0.0107109
0.00989986
0.00911387
0.00834601
0.00759616
0.00687734
0.00621193
0.00561934
0.00511046
0.00468657
0.00433863
0.00405197
0.011713
0.011712
0.0117229
0.0117453
0.0117775
0.011818
0.0118654
0.0119185
0.0119771
0.0120419
0.0121149
0.0121992
0.0122985
0.0124162
0.012555
0.0127156
0.0128971
0.0130966
0.0133101
0.0135343
0.0137671
0.0140085
0.014259
0.0145192
0.0147861
0.015064
0.0153701
0.0159809
0.0173287
0.0172837
0.0158288
0.0158961
0.0156524
0.0151006
0.0143874
0.0135623
0.0126456
0.0116789
0.0107227
0.00981581
0.00895244
0.00809854
0.00724234
0.00640358
0.00562341
0.0049417
0.00437918
0.00393564
0.00359248
0.00332357
0.011489
0.0114874
0.0114971
0.0115175
0.0115471
0.0115844
0.0116284
0.0116787
0.0117359
0.0118017
0.0118793
0.0119726
0.0120855
0.0122214
0.0123823
0.0125679
0.0127763
0.0130038
0.0132469
0.0135031
0.0137721
0.0140547
0.0143515
0.0146632
0.0149825
0.0153147
0.0158304
0.0178172
0.0181375
0.0181591
0.0177223
0.0163313
0.0161918
0.0157093
0.0149789
0.0140545
0.0129756
0.0118273
0.0107201
0.00972139
0.00879677
0.00785067
0.00685082
0.00583986
0.00490037
0.00410451
0.00348408
0.00303318
0.00271665
0.00248703
0.0112532
0.0112507
0.0112586
0.0112763
0.0113023
0.0113355
0.0113757
0.0114232
0.0114797
0.011548
0.011632
0.0117361
0.0118645
0.01202
0.0122036
0.0124139
0.012648
0.0129025
0.0131744
0.0134632
0.0137698
0.0140958
0.0144409
0.0148016
0.0151679
0.0155483
0.016397
0.0188188
0.0189118
0.0177434
0.0172323
0.0172235
0.0170218
0.0165699
0.0157533
0.0146862
0.0133831
0.0120149
0.0106632
0.00959142
0.00866031
0.0076305
0.00642652
0.00516395
0.00400113
0.00306421
0.0023891
0.00195259
0.00170041
0.00155721
0.0110039
0.0110004
0.0110062
0.0110206
0.0110425
0.0110715
0.011108
0.0111534
0.0112103
0.0112826
0.0113747
0.0114914
0.0116362
0.0118114
0.0120168
0.0122501
0.0125079
0.0127873
0.013087
0.0134086
0.0137546
0.0141271
0.0145245
0.0149398
0.0153589
0.0157535
0.0162536
0.0198822
0.0198619
0.0180972
0.0182461
0.0182805
0.0181063
0.0178007
0.0168519
0.0155233
0.013891
0.0120776
0.0104634
0.00938411
0.0085886
0.00749586
0.00602201
0.00438074
0.00287484
0.00176523
0.00104925
0.000664927
0.000536205
0.00056414
0.01074
0.0107354
0.0107388
0.0107498
0.0107677
0.0107927
0.0108262
0.0108706
0.0109295
0.0110074
0.011109
0.011239
0.0114003
0.011594
0.0118188
0.0120721
0.0123504
0.0126519
0.0129779
0.013332
0.0137191
0.0141421
0.0145997
0.0150848
0.0155817
0.0160494
0.0163903
0.0170424
0.0177843
0.0187404
0.0192128
0.01947
0.0194848
0.0192167
0.0183021
0.0166872
0.0145642
0.0120557
0.00992653
0.00900755
0.00872082
0.00767884
0.00576233
0.0034213
0.00142906
8.73371e-05
-0.000633384
-0.00088121
-0.000783575
-0.000435136
0.0104604
0.0104548
0.0104561
0.010464
0.0104783
0.0105002
0.010532
0.0105769
0.0106392
0.0107239
0.0108359
0.0109789
0.0111553
0.0113649
0.0116057
0.0118745
0.0121689
0.012489
0.0128384
0.0132237
0.013652
0.0141281
0.0146528
0.0152219
0.0158239
0.0164406
0.017077
0.0178853
0.018943
0.0196345
0.0203498
0.0209116
0.0211502
0.0209563
0.0200489
0.018369
0.0155857
0.0117923
0.00857527
0.00815776
0.00929774
0.00858817
0.00594823
0.00230287
-0.000603691
-0.00223154
-0.00283366
-0.00281203
-0.00235845
-0.00145464
0.0101648
0.0101585
0.010158
0.0101634
0.0101752
0.0101954
0.0102269
0.0102738
0.010341
0.0104334
0.0105555
0.0107104
0.0108992
0.0111208
0.0113726
0.0116517
0.0119568
0.0122904
0.0126591
0.0130722
0.0135391
0.0140669
0.0146591
0.0153147
0.0160282
0.0167913
0.0175967
0.0183648
0.0196746
0.020789
0.0216702
0.022698
0.0232194
0.0234907
0.022771
0.0210155
0.0173304
0.0110777
0.00552983
0.00598701
0.0106518
0.0110882
0.00720011
0.00342614
-0.0034629
-0.00497706
-0.00512203
-0.00512324
-0.0043799
-0.00273017
0.00985337
0.00984675
0.0098452
0.00984916
0.00985979
0.00987974
0.00991271
0.00996323
0.0100362
0.0101364
0.0102675
0.0104318
0.0106292
0.0108578
0.0111147
0.0113977
0.0117072
0.0120482
0.0124304
0.0128656
0.0133657
0.0139405
0.0145974
0.0153417
0.0161773
0.017105
0.0181196
0.0192077
0.0205033
0.0254312
0.0283875
0.0264139
0.0262964
0.0271304
0.0266915
0.0253494
0.0207241
0.00981291
-0.000737489
0.00354967
0.0143563
0.016097
0.0104724
-0.000447223
-0.00716081
-0.00667038
-0.00527975
-0.00690329
-0.00658591
-0.00458321
0.0095268
0.00952042
0.00951869
0.0095225
0.0095336
0.00955513
0.00959122
0.00964652
0.00972571
0.00983294
0.00997108
0.0101412
0.0103423
0.010572
0.0108275
0.0111076
0.0114144
0.0117558
0.0121438
0.0125928
0.013117
0.0137292
0.0144417
0.0152681
0.0162262
0.0173369
0.0186213
0.0200976
0.021801
0.0250747
0.0324088
0.0334228
0.0328034
0.0321702
0.032044
0.0325491
0.0276911
0.00702068
-0.016426
-0.0102921
0.0232454
0.0517459
0.0170968
-0.00133952
-0.0107975
-0.00311314
0.0016764
-0.00651531
-0.010944
-0.00780771
0.00918632
0.00918082
0.00917998
0.00918512
0.00919841
0.00922329
0.00926394
0.00932477
0.0094099
0.0095226
0.00966473
0.00983635
0.0100358
0.0102603
0.0105077
0.0107777
0.0110746
0.0114082
0.0117927
0.0122444
0.0127794
0.0134127
0.0141611
0.0150467
0.0161019
0.0173713
0.0189084
0.0207734
0.0230113
0.0255765
0.029851
0.0337721
0.0354879
0.0339942
0.0375516
0.0428318
0.0407778
-0.000745166
-0.0681916
-0.0690089
0.0422243
0.111037
0.19193
0.0174756
-0.0281846
-0.0618165
-0.0743053
-0.0574676
0.129371
0.498336
0.00883355
0.00882968
0.00883089
0.00883889
0.00885608
0.00888587
0.00893214
0.00899867
0.00908873
0.00920457
0.00934701
0.0095153
0.00970731
0.00992047
0.0101532
0.0104066
0.0106863
0.0110036
0.011374
0.0118147
0.0123422
0.0129726
0.0137261
0.014633
0.0157403
0.0171202
0.0188613
0.0210906
0.0238643
0.0273864
0.0319166
0.0369781
0.0373077
0.0527903
0.039685
0.0582817
0.0913746
0.00251958
0.292258
-0.0554744
-0.125156
0.234423
0.516642
-0.128462
-0.396046
-1.06229
5.02049
22.4045
31.7156
34.1269
0.00847049
0.00846908
0.00847347
0.00848578
0.0085084
0.00854433
0.00859675
0.00866853
0.00876189
0.00887789
0.00901656
0.00917657
0.00935573
0.00955185
0.00976421
0.00999506
0.0102509
0.0105435
0.0108884
0.011302
0.0117992
0.0123957
0.013114
0.0139913
0.0150878
0.016492
0.0183321
0.0207651
0.0239955
0.028269
0.0337882
0.0403092
0.0465137
0.052749
0.0824556
0.114751
0.1101
0.195937
0.436136
0.717713
0.225804
2.85305
-1.43484
12.082
34.9948
36.3316
32.6558
37.9697
41.5567
41.4565
0.00809933
0.00810132
0.00810988
0.00812777
0.00815701
0.00819984
0.0082584
0.00833431
0.00842889
0.00854169
0.00867241
0.00881953
0.00898109
0.00915555
0.00934301
0.00954651
0.0097728
0.0100329
0.0103409
0.0107104
0.011153
0.0116818
0.0123171
0.0131026
0.0141026
0.0154228
0.0172295
0.0196795
0.0231148
0.0279629
0.0348352
0.0446242
0.0583118
0.0750281
0.122379
0.213396
0.197377
0.31215
0.336694
1.13068
9.87191
23.813
28.3028
37.6257
39.8836
37.9447
36.8666
38.3077
39.684
39.5584
0.00772292
0.00772841
0.00774219
0.00776668
0.00780332
0.00785329
0.00791742
0.00799598
0.0080888
0.00819513
0.00831409
0.00844441
0.00858477
0.00873436
0.00889393
0.00906679
0.00925928
0.00948036
0.00974074
0.0100497
0.0104141
0.0108436
0.0113468
0.0119748
0.0127866
0.0139546
0.0154199
0.0175896
0.0207477
0.0254697
0.0327394
0.0441596
0.0629414
0.0965082
0.131308
0.180323
0.173991
0.308338
0.507415
14.2686
27.2833
42.749
40.4798
39.1027
38.9113
38.4436
38.2121
38.6968
39.1942
39.1144
0.00734329
0.00735291
0.00737253
0.00740421
0.00744852
0.0075053
0.00757382
0.00765292
0.00774131
0.00783785
0.00794173
0.00805234
0.00816922
0.00829233
0.00842272
0.00856342
0.00871953
0.00889705
0.00910137
0.00933576
0.00960131
0.00989865
0.0102439
0.0106584
0.0111889
0.011932
0.0129695
0.0144592
0.0166818
0.0201518
0.0257733
0.0348207
0.050076
0.0767009
0.156019
0.112073
0.0728855
-1.74968
14.8871
39.4634
42.8199
41.5085
40.2117
39.4514
39.0996
38.9136
38.8814
39.0775
39.2685
39.2259
0.00696282
0.00697696
0.00700277
0.00704183
0.00709359
0.00715629
0.00722758
0.0073049
0.00738611
0.00747001
0.00755635
0.00764553
0.00773809
0.00783464
0.0079362
0.0080449
0.0081638
0.0082952
0.00843847
0.00858979
0.00874155
0.00888528
0.0092261
0.00923451
0.00939421
0.00968344
0.0100652
0.0105658
0.0112321
0.0122052
0.0139172
0.0181547
0.0321717
0.103658
0.229224
0.144352
-0.000414159
12.0342
38.9182
41.4722
41.7306
41.1158
40.2827
39.7118
39.4391
39.3575
39.38
39.4815
39.5684
39.5535
0.00658368
0.00660252
0.00663457
0.00668075
0.00673921
0.00680649
0.00687859
0.00695171
0.00702325
0.00709234
0.00715972
0.00722707
0.00729598
0.00736744
0.00744207
0.00752052
0.00760317
0.00768823
0.00776933
0.00783524
0.00787143
0.00787179
0.00781455
0.00770832
0.00756601
0.00741632
0.00711503
0.00660332
0.00560984
0.00360712
-0.00046374
-0.00945732
-0.00986673
0.00813978
0.670131
0.780586
6.4557
24.1682
40.9377
41.0037
41.1364
40.7762
40.3159
39.9874
39.8362
39.8064
39.8385
39.9006
39.9496
39.9522
0.00620777
0.00623126
0.00626928
0.00632191
0.00638586
0.00645597
0.0065267
0.00659332
0.00665314
0.00670605
0.00675417
0.00680057
0.00684779
0.00689694
0.0069478
0.00699917
0.00704837
0.00708944
0.00711093
0.00709574
0.00702587
0.00688426
0.00663348
0.00627624
0.00563608
0.0053569
0.00459837
0.00337847
0.00145618
-0.00181803
-0.00706227
-0.0159553
-0.00176705
0.112652
-0.0859424
3.52481
14.598
39.3282
40.0832
40.3408
40.498
40.469
40.3677
40.2834
40.2433
40.2403
40.2635
40.2971
40.3239
40.3328
0.00583664
0.00586453
0.00590792
0.00596593
0.00603378
0.0061047
0.00617185
0.0062299
0.00627651
0.00631276
0.00634236
0.00636978
0.00639827
0.00642874
0.00645982
0.00648826
0.00650839
0.00651045
0.00647915
0.00639409
0.00623328
0.00597851
0.00557369
0.00488705
0.00660066
0.00539759
0.00254909
0.00106669
-0.00115304
-0.00431681
-0.00878114
-0.0178242
-0.0279024
0.0461797
0.355327
12.5039
30.5004
39.4533
39.4673
39.7477
40.0084
40.2539
40.4389
40.5483
40.5971
40.6145
40.6201
40.6272
40.6345
40.6408
0.0054715
0.00550335
0.00555123
0.00561318
0.00568305
0.00575262
0.00581405
0.00586184
0.0058944
0.00591434
0.00592707
0.00593829
0.00595162
0.00596743
0.00598303
0.00599319
0.00598977
0.00596029
0.00588776
0.00575285
0.00553658
0.00522024
0.00477161
0.00416519
0.00439758
0.00518262
0.00332289
-0.000627309
-0.00282872
-0.0063557
-0.0096446
-0.0131247
-0.00893544
0.0672284
-0.510515
9.64197
39.0335
38.2728
38.7279
39.2272
39.6938
40.1411
40.5051
40.7386
40.8493
40.8812
40.8777
40.865
40.8555
40.8543
0.00511319
0.00514839
0.00519965
0.00526387
0.00533366
0.00539968
0.00545344
0.0054897
0.00550804
0.00551278
0.00551095
0.0055092
0.00551113
0.00551622
0.00552039
0.00551678
0.00549546
0.00544245
0.00534078
0.00517421
0.00492969
0.00459348
0.00414261
0.00354245
0.00277498
0.00294544
0.00195165
-0.000426259
-0.00332425
-0.00690472
-0.0128978
-0.018444
-0.0164836
-0.0165197
-1.47304
19.4076
36.1653
37.716
38.4561
39.0582
39.6188
40.1443
40.5743
40.8587
41.0002
41.0426
41.0343
41.0114
40.9903
40.9805
0.00476221
0.00480001
0.00485334
0.00491799
0.00498555
0.00504587
0.00509028
0.00511422
0.00511876
0.00510998
0.00509635
0.00508504
0.00507916
0.005077
0.00507319
0.00505972
0.00502564
0.00495664
0.00483716
0.00465491
0.00440229
0.00406851
0.00362809
0.00303923
0.00226834
0.00125113
-0.000290438
-0.00143757
-0.00319336
-0.00704856
-0.012277
-0.0207026
-0.0267394
-0.129009
2.52419
36.0943
37.3532
38.1132
38.6944
39.2215
39.7454
40.2451
40.6587
40.9369
41.0791
41.124
41.1149
41.0871
41.0605
41.0434
0.00441874
0.00445827
0.00451224
0.00457539
0.00463857
0.00469124
0.00472496
0.00473628
0.00472793
0.00470773
0.00468521
0.00466757
0.00465695
0.00465035
0.00464136
0.00462138
0.0045792
0.00450106
0.00437369
0.00418941
0.00394581
0.00363393
0.00322407
0.00266788
0.0019208
0.000909803
-0.000540511
-0.00263598
-0.00558068
-0.00878669
-0.0130942
-0.017948
-0.0228865
-0.138462
16.3203
39.9545
38.7904
38.8558
39.1411
39.5283
39.9666
40.3971
40.7543
40.9981
41.1182
41.1589
41.1495
41.1209
41.0913
41.0691
0.00408267
0.00412298
0.00417609
0.00423582
0.00429257
0.00433583
0.00435791
0.00435675
0.00433687
0.0043076
0.00427908
0.00425791
0.00424486
0.00423561
0.00422328
0.00419954
0.00415384
0.00407337
0.00394713
0.00377189
0.0035505
0.00327713
0.00292302
0.00244243
0.001795
0.00093728
-0.000205853
-0.00167043
-0.0034081
-0.00522617
-0.00679526
-0.00677889
-0.00419718
-0.0603115
28.7213
40.6561
39.6195
39.4143
39.5416
39.8301
40.1923
40.5531
40.8497
41.0482
41.1481
41.1767
41.1643
41.1357
41.1038
41.0752
0.00375365
0.00379375
0.00384447
0.00389888
0.00394731
0.00397975
0.00398961
0.00397647
0.00394666
0.00391072
0.00387887
0.00385649
0.0038425
0.00383133
0.00381617
0.00379014
0.0037446
0.00366835
0.00355224
0.00339613
0.00320671
0.00298187
0.00269768
0.00231828
0.00181811
0.00118067
0.00038808
-0.000528358
-0.00146593
-0.00213228
-0.0019395
4.78675e-05
0.00156045
0.449096
30.7216
39.9279
39.7408
39.6804
39.801
40.055
40.3728
40.6847
40.9352
41.0974
41.1753
41.1926
41.1759
41.1451
41.1104
41.078
0.00854394
0.00833813
0.00813426
0.00793118
0.00772758
0.00752208
0.00731327
0.00709976
0.00688031
0.00665387
0.00641969
0.00617735
0.00592684
0.00566868
0.00540392
0.00513421
0.00486186
0.00458929
0.00431933
0.00405478
0.00379829
0.00355212
0.00331826
0.00309824
0.00289314
0.00270347
0.0025293
0.00237024
0.00222566
0.00209489
0.00197743
0.00187302
0.00178176
0.00170397
0.00164012
0.00159061
0.0015555
0.00153427
0.00152574
0.00152803
0.00153866
0.00155479
0.00157349
0.001592
0.00160803
0.00161974
0.00162595
0.00162606
0.00162052
0.00161265
0.00856408
0.00835657
0.00815055
0.00794499
0.00773868
0.00753036
0.00731875
0.00710258
0.00688074
0.00665229
0.00641655
0.00617318
0.00592218
0.00566403
0.00539973
0.00513082
0.00485921
0.00458748
0.00431831
0.00405445
0.00379853
0.0035528
0.00331919
0.00309924
0.00289406
0.0027043
0.00253014
0.00237132
0.00222723
0.00209715
0.00198041
0.00187654
0.00178538
0.00170704
0.00164185
0.00159012
0.00155201
0.00152723
0.00151496
0.00151364
0.00152114
0.00153489
0.00155206
0.00156988
0.0015859
0.00159813
0.00160508
0.00160571
0.00160011
0.00159177
0.0085676
0.00835639
0.00814626
0.00793633
0.00772566
0.00751322
0.00729793
0.00707878
0.00685484
0.00662532
0.00638967
0.0061476
0.00589913
0.0056446
0.00538474
0.00512074
0.00485418
0.00458725
0.00432241
0.0040623
0.00380946
0.00356618
0.00333426
0.00311529
0.00291049
0.00272072
0.0025465
0.00238778
0.00224412
0.00211476
0.00199879
0.00189539
0.00180398
0.0017242
0.00165604
0.00159962
0.00155523
0.00152298
0.00150267
0.00149348
0.00149398
0.0015021
0.00151529
0.00153091
0.00154618
0.00155876
0.00156664
0.00156819
0.0015628
0.00155395
0.0085488
0.00833177
0.00811551
0.00789945
0.00768295
0.00746533
0.00724587
0.00702385
0.00679857
0.00656945
0.00633604
0.00609809
0.00585555
0.00560852
0.00535735
0.00510265
0.0048455
0.00458752
0.00433073
0.00407755
0.00383041
0.00359162
0.003363
0.00314613
0.00294233
0.00275275
0.00257829
0.00241932
0.00227568
0.00214664
0.00203113
0.00192791
0.00183584
0.00175397
0.00168175
0.00161899
0.00156598
0.00152325
0.00149132
0.00147039
0.00146003
0.00145909
0.00146548
0.00147676
0.00148995
0.00150219
0.00151078
0.00151333
0.00150853
0.00149964
0.00851121
0.0082866
0.00806262
0.00783904
0.00761565
0.00739216
0.00716827
0.0069436
0.00671773
0.00649021
0.00626066
0.00602878
0.0057944
0.00555737
0.00531756
0.0050751
0.00483029
0.00458404
0.00433783
0.00409369
0.00385403
0.00362115
0.003397
0.00318318
0.00298103
0.00279187
0.00261693
0.0024571
0.00231264
0.00218306
0.00206724
0.00196367
0.00187072
0.00178685
0.00171085
0.00164204
0.00158043
0.00152668
0.00148189
0.00144724
0.00142349
0.00141057
0.00140734
0.00141173
0.00142079
0.00143118
0.00143951
0.00144258
0.00143834
0.00142974
0.00845701
0.0082236
0.00799087
0.00775902
0.00752825
0.0072987
0.00707051
0.00684365
0.00661796
0.00639305
0.00616851
0.00594391
0.00571893
0.00549316
0.00526611
0.00503727
0.00480633
0.00457339
0.00433922
0.00410533
0.00387399
0.00364768
0.00342861
0.0032184
0.00301838
0.00282981
0.00265412
0.00249266
0.00234627
0.00221488
0.0020976
0.00199287
0.00189881
0.00181345
0.00173499
0.00166204
0.00159399
0.00153114
0.00147473
0.00142655
0.00138851
0.00136174
0.00134633
0.00134099
0.00134316
0.00134934
0.00135564
0.00135809
0.00135388
0.00134551
0.00838619
0.00814341
0.00790164
0.0076615
0.00742358
0.00718843
0.0069565
0.00672817
0.00650348
0.00628211
0.0060635
0.00584702
0.0056321
0.00541813
0.00520428
0.00498956
0.00477307
0.00455416
0.00433275
0.00410971
0.00388698
0.00366722
0.00345306
0.00324645
0.00304865
0.00286073
0.00268406
0.00252031
0.00237087
0.00223634
0.00211626
0.00200929
0.00191358
0.00182703
0.00174745
0.00167277
0.00160153
0.00153314
0.00146836
0.00140896
0.00135755
0.00131646
0.00128709
0.0012694
0.00126166
0.0012607
0.00126245
0.00126244
0.00125724
0.00124878
0.00829787
0.00804597
0.00779575
0.00754816
0.00730411
0.0070644
0.00682975
0.00660078
0.00637785
0.00616075
0.00594875
0.0057409
0.00553634