/*--------------------------------*- C++ -*----------------------------------*\
| =========                 |                                                 |
| \\      /  F ield         | OpenFOAM: The Open Source CFD Toolbox           |
|  \\    /   O peration     | Version:  2.4.0                                 |
|   \\  /    A nd           | Web:      www.OpenFOAM.org                      |
|    \\/     M anipulation  |                                                 |
\*---------------------------------------------------------------------------*/
FoamFile
{
    version     2.0;
    format      ascii;
    class       volScalarField;
    location    "0.119";
    object      p_rgh;
}
// * * * * * * * * * * * * * * * * * * * * * * * * * * * * * * * * * * * * * //

dimensions      [1 -1 -2 0 0 0 0];

internalField   nonuniform List<scalar> 
3600
(
97.6329
97.6309
97.6226
97.6365
97.6186
97.6498
97.6145
97.6712
97.6119
97.7015
97.6092
97.7403
97.6079
97.7827
97.6031
97.8179
97.587
97.8321
97.5773
97.7777
97.601
97.6566
97.4261
97.4797
97.5655
97.6555
97.7387
97.739
97.7496
97.7331
97.6295
97.6317
97.6229
97.6365
97.6178
97.6494
97.6131
97.6702
97.6116
97.7009
97.6091
97.7403
97.608
97.783
97.6033
97.8184
97.5869
97.833
97.5771
97.7782
97.6026
97.6573
97.425
97.4786
97.5649
97.6556
97.7389
97.7391
97.7497
97.7332
97.6221
97.6266
97.6192
97.6339
97.6157
97.6481
97.6118
97.6687
97.6106
97.7006
97.6082
97.7405
97.6077
97.7837
97.6035
97.8192
97.5868
97.8343
97.5769
97.779
97.6055
97.6584
97.4227
97.4763
97.5641
97.6559
97.7394
97.7394
97.7498
97.7332
97.6195
97.6226
97.6144
97.6301
97.6104
97.645
97.6072
97.6678
97.6068
97.6997
97.6068
97.7407
97.6071
97.7847
97.6038
97.8208
97.5866
97.8367
97.5767
97.7801
97.6099
97.6598
97.4191
97.4726
97.5631
97.6565
97.7402
97.7399
97.7499
97.7332
97.6173
97.6209
97.6125
97.6288
97.6096
97.6437
97.6066
97.6675
97.6051
97.7003
97.6049
97.7421
97.6063
97.7866
97.6043
97.8226
97.5864
97.8395
97.5762
97.7816
97.616
97.6616
97.4143
97.4677
97.5618
97.6573
97.7414
97.7404
97.7501
97.7333
97.6093
97.6137
97.6037
97.6227
97.5999
97.6394
97.5973
97.6653
97.5995
97.6994
97.6021
97.7423
97.6052
97.7884
97.6049
97.8252
97.5862
97.8434
97.5758
97.7833
97.6237
97.6639
97.4082
97.4614
97.5603
97.6584
97.7428
97.7412
97.7504
97.7334
97.6069
97.612
97.6023
97.6215
97.5995
97.6382
97.5981
97.6649
97.5973
97.7013
97.5986
97.7448
97.6038
97.7915
97.6057
97.8279
97.5856
97.8476
97.5749
97.7851
97.6332
97.6668
97.4007
97.4537
97.5585
97.6597
97.7446
97.7421
97.7507
97.7334
97.5951
97.6012
97.5881
97.6122
97.5825
97.6314
97.583
97.6604
97.5882
97.6998
97.5941
97.7448
97.6022
97.794
97.6068
97.8316
97.5857
97.8533
97.574
97.7875
97.6447
97.6702
97.3916
97.4444
97.5565
97.6613
97.7468
97.7431
97.7511
97.7335
97.5931
97.601
97.5885
97.6132
97.587
97.632
97.5856
97.6619
97.5854
97.7035
97.59
97.7491
97.6001
97.7985
97.6081
97.8349
97.5845
97.859
97.5723
97.7897
97.6585
97.6742
97.3811
97.4335
97.5542
97.6632
97.7493
97.7443
97.7515
97.7336
97.5743
97.5851
97.5662
97.5993
97.5601
97.6206
97.562
97.6526
97.5712
97.6989
97.5831
97.7475
97.5978
97.8018
97.6103
97.8396
97.5851
97.8665
97.5706
97.7922
97.6747
97.6791
97.3688
97.4209
97.5516
97.6655
97.7522
97.7457
97.7519
97.7336
97.5759
97.5879
97.569
97.6043
97.5673
97.6253
97.568
97.6595
97.5706
97.7067
97.5781
97.7563
97.5949
97.8083
97.6122
97.8435
97.583
97.8739
97.5675
97.7942
97.6937
97.6849
97.3547
97.4065
97.5487
97.6681
97.7554
97.7472
97.7524
97.7337
97.5464
97.5633
97.5328
97.5831
97.5252
97.6035
97.531
97.6387
97.5488
97.6936
97.568
97.7471
97.5916
97.8111
97.6163
97.849
97.5842
97.8836
97.5648
97.7965
97.7159
97.6917
97.3385
97.39
97.5456
97.6712
97.759
97.7489
97.7529
97.7338
97.5506
97.5703
97.5387
97.5951
97.5373
97.6187
97.5433
97.6596
97.5503
97.7158
97.5622
97.7698
97.5875
97.8231
97.6195
97.8532
97.5812
97.893
97.5587
97.798
97.7415
97.6996
97.3202
97.3713
97.5422
97.6749
97.7631
97.7508
97.7535
97.7339
97.5038
97.5336
97.4759
97.561
97.4717
97.5744
97.4861
97.6123
97.5188
97.6802
97.5479
97.7409
97.583
97.8191
97.6265
97.8593
97.5827
97.9053
97.5555
97.7997
97.7715
97.709
97.2996
97.3502
97.5386
97.679
97.7676
97.7528
97.7541
97.734
97.5036
97.5419
97.4861
97.5928
97.4902
97.6124
97.5067
97.6647
97.5237
97.7342
97.5411
97.788
97.5772
97.8388
97.632
97.8636
97.579
97.9172
97.5428
97.7997
97.8057
97.72
97.2762
97.3264
97.5347
97.6838
97.7726
97.755
97.7547
97.7341
97.4341
97.493
97.3753
97.5374
97.3947
97.52
97.4234
97.5623
97.4812
97.6565
97.5217
97.7329
97.571
97.8358
97.6436
97.8707
97.5806
97.9329
97.5419
97.7998
97.8456
97.7331
97.25
97.2997
97.5306
97.6893
97.7781
97.7574
97.7553
97.7342
97.3247
97.4255
97.3601
97.6078
97.4121
97.6008
97.447
97.6728
97.4895
97.762
97.5132
97.8063
97.5625
97.8585
97.6531
97.8735
97.5756
97.9482
97.5148
97.7972
97.8904
97.7487
97.2205
97.2698
97.5263
97.6956
97.7841
97.76
97.756
97.7342
98.7769
98.2897
97.1772
97.4957
97.2959
97.4035
97.3376
97.4773
97.4407
97.6277
97.4909
97.7259
97.5531
97.8574
97.6714
97.8799
97.5784
97.9683
97.5231
97.7952
97.9425
97.7674
97.1875
97.2363
97.5218
97.7028
97.7906
97.7627
97.7566
97.7343
98.2896
98.5628
97.3027
97.5508
97.2903
97.5478
97.3367
97.6686
97.4492
97.7953
97.4806
97.8165
97.54
97.8829
97.6876
97.8817
97.5691
97.9885
97.4692
97.788
97.9903
97.7895
97.1503
97.1988
97.5171
97.7109
97.7978
97.7656
97.7572
97.7344
98.0255
98.2959
97.0192
97.25
97.0932
97.157
97.2005
97.3501
97.4116
97.6181
97.4602
97.7176
97.5251
97.8867
97.7162
97.8866
97.5756
98.0145
97.49
97.7821
98.0972
97.8156
97.1089
97.1569
97.5123
97.72
97.8057
97.7687
97.7579
97.7344
97.9661
98.0921
97.091
96.9047
96.8379
97.4093
97.0802
97.6137
97.4331
97.829
97.449
97.8093
97.5054
97.9158
97.7445
97.8858
97.5607
98.042
97.4129
97.7671
98.103
97.846
97.0621
97.1099
97.5074
97.7304
97.8143
97.7719
97.7585
97.7345
97.106
97.256
96.3084
96.0813
96.6332
96.7784
96.9475
97.1825
97.4376
97.6608
97.4328
97.6917
97.4786
97.9251
97.7887
97.8876
97.5665
98.0763
97.4215
97.7547
98.2259
97.881
97.01
97.0586
97.5025
97.7421
97.8236
97.7754
97.759
97.7345
99.6043
98.9195
98.1895
96.696
96.1389
97.2559
96.7945
97.3881
97.5493
97.9109
97.4414
97.7711
97.4441
97.9678
97.8273
97.8842
97.5481
98.115
97.3431
97.729
98.2781
97.9225
96.9512
96.9976
97.4975
97.7554
97.8338
97.779
97.7596
97.7345
103.179
91.8611
96.2388
95.5798
96.2627
96.4896
96.7862
96.9047
97.619
97.8231
97.3829
97.6184
97.3907
97.9773
97.9177
97.8862
97.5497
98.1623
97.3262
97.7093
98.4283
97.9711
96.8851
96.9362
97.4933
97.7705
97.8447
97.7827
97.76
97.7345
123.104
99.9998
97.7249
96.4109
95.7098
96.8655
96.6094
96.91
97.9476
98.1317
97.4613
97.6653
97.3291
98.0447
97.9278
97.8844
97.5257
98.2138
97.2293
97.6643
98.5207
98.0289
96.8115
96.858
97.4866
97.7864
97.8563
97.7869
97.7605
97.7344
74.7155
81.0626
102.545
95.6727
97.4389
96.4858
96.7942
96.3231
98.1711
98.2448
97.2922
97.4106
97.2059
98.0721
98.0953
97.884
97.5191
98.2848
97.1797
97.6319
98.7086
98.0917
96.7258
96.7798
97.4872
97.8087
97.8702
97.7907
97.7607
97.7343
86.7699
81.3862
96.6401
93.9001
93.9176
96.0862
95.8287
95.8238
98.7909
98.7131
97.4501
97.4115
97.1223
98.1365
98.1267
97.8839
97.494
98.3504
97.0764
97.5594
98.8278
98.176
96.6407
96.6917
97.4747
97.8229
97.8817
97.795
97.7611
97.7342
32.274
104.312
105.743
101.023
94.3443
97.0677
95.5073
94.7296
99.7133
99.4048
97.1413
96.8769
96.817
98.3004
98.3748
97.8573
97.4529
98.459
96.965
97.5019
99.0777
98.2597
96.511
96.5548
97.4848
97.8612
97.9015
97.7993
97.7609
97.7339
35.3193
123.204
91.4528
96.1838
85.0553
97.8468
92.9255
93.1954
100.592
100.392
97.276
96.792
96.7814
98.2932
98.4462
97.8599
97.448
98.5471
96.8478
97.4029
99.217
98.3657
96.4356
96.5019
97.466
97.8659
97.9097
97.8024
97.7613
97.734
77.7881
67.0614
120.742
56.2166
61.1729
79.1958
66.3289
69.4752
94.1442
90.2041
80.6588
79.2692
78.7701
88.1234
84.4078
85.0466
78.005
88.0042
73.5728
81.8738
93.1291
88.2037
71.4195
73.5172
87.6305
95.2774
97.9189
97.8098
97.7605
97.7334
97.7259
97.7241
97.7199
97.7177
97.7148
97.7127
97.7105
97.7088
97.7071
97.7058
97.7045
97.7034
97.7025
97.7017
97.7009
97.7003
97.6997
97.6993
97.6984
97.6986
97.6969
97.6983
97.6946
97.6986
97.6919
97.6989
97.69
97.6983
97.6909
97.6954
97.7258
97.7241
97.7199
97.7177
97.7148
97.7127
97.7105
97.7088
97.7071
97.7057
97.7045
97.7034
97.7025
97.7017
97.7009
97.7003
97.6997
97.6993
97.6984
97.6986
97.6969
97.6983
97.6946
97.6986
97.6919
97.6989
97.6899
97.6983
97.6909
97.6954
97.7258
97.7241
97.7199
97.7177
97.7148
97.7127
97.7105
97.7088
97.7071
97.7057
97.7045
97.7034
97.7025
97.7017
97.7009
97.7003
97.6997
97.6993
97.6984
97.6986
97.6969
97.6983
97.6946
97.6986
97.6919
97.6989
97.6899
97.6984
97.6909
97.6955
97.7258
97.724
97.7199
97.7177
97.7148
97.7126
97.7105
97.7087
97.7071
97.7057
97.7045
97.7034
97.7025
97.7017
97.7009
97.7003
97.6996
97.6993
97.6984
97.6986
97.6969
97.6983
97.6946
97.6986
97.6919
97.699
97.6898
97.6984
97.6908
97.6955
97.7258
97.724
97.7199
97.7176
97.7148
97.7126
97.7105
97.7087
97.7071
97.7057
97.7045
97.7034
97.7025
97.7016
97.7009
97.7003
97.6996
97.6993
97.6984
97.6986
97.6969
97.6983
97.6947
97.6986
97.6919
97.699
97.6897
97.6985
97.6906
97.6956
97.7258
97.724
97.7199
97.7176
97.7147
97.7126
97.7105
97.7087
97.7071
97.7057
97.7044
97.7034
97.7024
97.7016
97.7009
97.7003
97.6996
97.6993
97.6984
97.6986
97.6969
97.6983
97.6947
97.6986
97.6918
97.699
97.6896
97.6986
97.6904
97.6957
97.7258
97.7239
97.7199
97.7175
97.7147
97.7125
97.7104
97.7086
97.707
97.7056
97.7044
97.7034
97.7024
97.7016
97.7009
97.7003
97.6996
97.6993
97.6984
97.6986
97.6969
97.6983
97.6947
97.6986
97.6918
97.6991
97.6894
97.6987
97.6902
97.6958
97.7259
97.7239
97.7199
97.7175
97.7147
97.7125
97.7104
97.7086
97.707
97.7056
97.7044
97.7033
97.7024
97.7016
97.7009
97.7003
97.6996
97.6993
97.6984
97.6986
97.6969
97.6983
97.6947
97.6986
97.6917
97.6991
97.6893
97.6988
97.69
97.6959
97.7259
97.7238
97.7199
97.7174
97.7146
97.7124
97.7103
97.7086
97.7069
97.7056
97.7043
97.7033
97.7024
97.7016
97.7008
97.7002
97.6996
97.6992
97.6984
97.6986
97.697
97.6983
97.6947
97.6986
97.6917
97.6992
97.6891
97.699
97.6896
97.6961
97.726
97.7237
97.7199
97.7174
97.7146
97.7124
97.7103
97.7085
97.7069
97.7055
97.7043
97.7033
97.7023
97.7015
97.7008
97.7002
97.6996
97.6992
97.6985
97.6985
97.697
97.6983
97.6947
97.6986
97.6916
97.6993
97.6888
97.6992
97.6893
97.6963
97.726
97.7237
97.7198
97.7173
97.7145
97.7123
97.7102
97.7084
97.7068
97.7055
97.7043
97.7032
97.7023
97.7015
97.7008
97.7002
97.6996
97.6992
97.6985
97.6985
97.697
97.6983
97.6948
97.6986
97.6916
97.6993
97.6886
97.6994
97.6888
97.6966
97.7261
97.7236
97.7198
97.7172
97.7145
97.7122
97.7101
97.7084
97.7068
97.7054
97.7042
97.7032
97.7023
97.7015
97.7008
97.7002
97.6996
97.6992
97.6985
97.6985
97.697
97.6983
97.6948
97.6986
97.6915
97.6994
97.6883
97.6996
97.6883
97.6969
97.7261
97.7235
97.7197
97.7171
97.7144
97.7121
97.7101
97.7083
97.7067
97.7053
97.7041
97.7031
97.7022
97.7014
97.7007
97.7002
97.6996
97.6992
97.6985
97.6985
97.6971
97.6983
97.6948
97.6987
97.6915
97.6995
97.688
97.6998
97.6878
97.6972
97.7261
97.7234
97.7197
97.717
97.7143
97.712
97.71
97.7082
97.7066
97.7053
97.7041
97.7031
97.7022
97.7014
97.7007
97.7001
97.6996
97.6992
97.6985
97.6985
97.6971
97.6983
97.6949
97.6987
97.6914
97.6995
97.6876
97.7001
97.6871
97.6976
97.7262
97.7233
97.7196
97.7169
97.7142
97.7119
97.7099
97.7081
97.7065
97.7052
97.704
97.703
97.7021
97.7014
97.7007
97.7001
97.6995
97.6992
97.6985
97.6985
97.6972
97.6983
97.6949
97.6986
97.6914
97.6996
97.6873
97.7004
97.6864
97.6981
97.7262
97.7232
97.7195
97.7168
97.7141
97.7118
97.7098
97.708
97.7065
97.7051
97.7039
97.7029
97.7021
97.7013
97.7006
97.7001
97.6995
97.6991
97.6985
97.6985
97.6972
97.6982
97.695
97.6986
97.6914
97.6997
97.6869
97.7007
97.6855
97.6987
97.7262
97.7231
97.7195
97.7167
97.714
97.7117
97.7097
97.7079
97.7064
97.705
97.7039
97.7029
97.702
97.7013
97.7006
97.7
97.6995
97.6991
97.6986
97.6985
97.6973
97.6982
97.6951
97.6986
97.6914
97.6997
97.6865
97.701
97.6845
97.6993
97.7262
97.723
97.7194
97.7166
97.7138
97.7116
97.7095
97.7078
97.7063
97.7049
97.7038
97.7028
97.7019
97.7012
97.7005
97.7
97.6995
97.6991
97.6986
97.6984
97.6974
97.6982
97.6952
97.6986
97.6914
97.6998
97.686
97.7014
97.6833
97.7001
97.7262
97.7229
97.7192
97.7164
97.7137
97.7114
97.7094
97.7077
97.7061
97.7048
97.7037
97.7027
97.7019
97.7011
97.7005
97.7
97.6995
97.6991
97.6986
97.6984
97.6975
97.6982
97.6953
97.6986
97.6914
97.6998
97.6856
97.7017
97.682
97.701
97.7262
97.7227
97.7191
97.7163
97.7136
97.7113
97.7093
97.7075
97.706
97.7047
97.7036
97.7026
97.7018
97.7011
97.7005
97.6999
97.6994
97.699
97.6986
97.6984
97.6975
97.6982
97.6955
97.6985
97.6914
97.6998
97.6851
97.7021
97.6805
97.7023
97.7261
97.7226
97.719
97.7161
97.7134
97.7111
97.7091
97.7074
97.7059
97.7046
97.7035
97.7025
97.7017
97.701
97.7004
97.6999
97.6994
97.699
97.6987
97.6984
97.6976
97.6981
97.6956
97.6985
97.6915
97.6998
97.6847
97.7024
97.6787
97.7032
97.7261
97.7224
97.7188
97.7159
97.7133
97.711
97.709
97.7073
97.7058
97.7045
97.7034
97.7025
97.7016
97.701
97.7003
97.6998
97.6994
97.699
97.6987
97.6984
97.6977
97.6981
97.6958
97.6984
97.6917
97.6998
97.6843
97.7028
97.6767
97.7055
97.726
97.7222
97.7187
97.7158
97.7131
97.7108
97.7088
97.7071
97.7056
97.7044
97.7033
97.7024
97.7016
97.7009
97.7003
97.6998
97.6994
97.699
97.6987
97.6983
97.6978
97.698
97.696
97.6983
97.6918
97.6997
97.6838
97.7031
97.6743
97.7059
97.7259
97.722
97.7185
97.7156
97.7129
97.7106
97.7086
97.707
97.7055
97.7042
97.7032
97.7023
97.7015
97.7008
97.7002
97.6997
97.6993
97.6989
97.6987
97.6983
97.6979
97.698
97.6962
97.6982
97.692
97.6996
97.6835
97.7036
97.6718
97.7104
97.7258
97.7218
97.7183
97.7154
97.7127
97.7104
97.7085
97.7068
97.7053
97.7041
97.7031
97.7022
97.7014
97.7007
97.7002
97.6997
97.6993
97.6989
97.6988
97.6983
97.698
97.698
97.6964
97.6981
97.6923
97.6994
97.6831
97.7036
97.668
97.7088
97.7256
97.7216
97.7181
97.7151
97.7125
97.7102
97.7083
97.7066
97.7052
97.704
97.7029
97.702
97.7013
97.7006
97.7001
97.6996
97.6993
97.6989
97.6988
97.6983
97.6982
97.6979
97.6967
97.698
97.6927
97.6992
97.683
97.7042
97.6655
97.7185
97.7255
97.7214
97.7179
97.7149
97.7123
97.7101
97.7081
97.7065
97.705
97.7038
97.7028
97.7019
97.7012
97.7006
97.7
97.6996
97.6992
97.6988
97.6988
97.6983
97.6983
97.6979
97.697
97.6979
97.6929
97.699
97.6825
97.7039
97.6589
97.7117
97.7252
97.7211
97.7176
97.7146
97.712
97.7097
97.7078
97.7062
97.7048
97.7036
97.7026
97.7018
97.7011
97.7005
97.6999
97.6995
97.6992
97.6988
97.6988
97.6983
97.6984
97.6979
97.6974
97.6977
97.6936
97.6986
97.6831
97.7045
97.6576
97.7306
97.7252
97.721
97.7176
97.7145
97.7119
97.7097
97.7078
97.7061
97.7048
97.7036
97.7026
97.7017
97.701
97.7004
97.6999
97.6995
97.6992
97.6988
97.6989
97.6983
97.6985
97.6978
97.6975
97.6976
97.6938
97.6985
97.6825
97.704
97.6459
97.7166
97.7246
97.7204
97.717
97.714
97.7114
97.7092
97.7073
97.7057
97.7044
97.7032
97.7023
97.7015
97.7008
97.7002
97.6998
97.6994
97.6991
97.6987
97.6989
97.6982
97.6863
97.6978
97.6384
97.6974
97.5325
97.6977
97.3555
97.7038
97.1995
97.7483
210.504
87.3972
63.3619
6.85526
3.99377
8.91707
8.34119
6.59339
13.6761
11.1484
8.9353
6.85375
6.43709
9.35614
9.95535
11.0829
8.82743
14.3054
8.52065
10.7644
15.5101
10.0952
1.21453
0.00347031
1.49612
1.90296
2.28765
1.41701
1.02749
0.584015
60.7299
-0.405887
1.34126
-0.344566
0.271408
-0.131354
0.0107879
0.0132284
-0.0321289
0.00835399
-0.0167858
0.00732461
-0.00466333
-0.00558372
-0.00464004
-0.00103717
-0.000666119
-0.00147884
0.000454753
3.94192e-05
-0.00336732
-0.000251209
0.000768795
0.00205867
0.000491479
-0.000149371
-0.000325973
-2.50978e-05
-0.000126549
4.9163e-05
49.7377
-0.948457
0.277684
-0.254711
0.0952567
-0.0344694
-0.0211658
-0.000702026
-0.029003
-0.000274873
-0.0161398
0.00529106
-0.00627705
-0.00451317
-0.00265888
-0.00129905
-0.000811168
-0.00163706
0.000122842
0.000149489
-0.00276725
-0.000397356
0.000488615
0.00240122
0.000486044
-4.81451e-05
-0.000309917
-9.0556e-06
-0.000122931
5.47296e-05
79.0471
-0.432401
0.023565
-0.15232
-0.00357036
-0.0322881
-0.0303767
-0.000438241
-0.0278837
0.00661569
-0.0151309
0.00215935
-0.00522922
-0.00358002
-0.00275662
-0.00131372
-0.000918478
-0.00107588
-0.000146424
-0.000139291
-0.00208399
4.52901e-05
0.000300679
0.00163397
0.000408264
2.31509e-05
-0.00025165
3.47479e-06
-0.000126725
5.07426e-05
70.3094
0.235431
0.0111643
0.0447719
-0.0117085
0.00247093
-0.0264848
-0.00605191
-0.021966
-0.00298054
-0.0119949
-0.00111182
-0.00370661
-0.00305341
-0.00192116
-0.00118095
-0.000833648
-0.00101731
-0.000256774
-1.53198e-05
-0.0017821
5.86451e-05
0.000249389
0.00171521
0.000327517
8.93279e-05
-0.000237286
1.76377e-05
-0.000125738
5.159e-05
51.1887
-0.555628
-0.392005
-0.176311
-0.123874
-0.0575031
-0.0489141
-0.0141954
-0.0211929
-0.00192845
-0.00912373
-0.001844
-0.00246804
-0.00231858
-0.00155843
-0.000983777
-0.000747676
-0.000673882
-0.000333285
-7.66147e-05
-0.00139003
0.000213465
0.00012032
0.00130066
0.000274749
0.000130994
-0.000199803
2.95097e-05
-0.000125376
5.07034e-05
84.6307
1.86425
-0.619907
-0.107367
-0.152134
-0.05694
-0.0473625
-0.0155205
-0.0151272
-0.00340743
-0.00562435
-0.00187158
-0.00151096
-0.00157305
-0.00107999
-0.000724593
-0.000611891
-0.000525416
-0.00033625
7.43555e-06
-0.00114049
0.000286097
9.72381e-05
0.00127173
0.000220943
0.000169193
-0.000184715
4.04169e-05
-0.000123892
5.01194e-05
81.3983
24.2199
-0.0966123
0.0988156
0.0515773
0.0364707
0.0228393
0.0123004
0.00381497
0.00223029
-0.00116276
-0.0001685
-0.000442364
-0.000775874
-0.000639156
-0.000448994
-0.000452332
-0.00033254
-0.000314736
3.91412e-05
-0.000919587
0.000338102
3.16097e-05
0.00104163
0.000177074
0.000192366
-0.000166158
4.98813e-05
-0.000121966
4.94574e-05
28.9957
3.02036
0.166915
0.0828714
0.0360485
0.0147637
0.00458456
0.00967971
0.00231686
0.00437102
0.000480327
0.00118843
0.000483057
-8.39574e-05
-0.000216424
-0.000179343
-0.00028603
-0.000173432
-0.000269182
9.59484e-05
-0.000739179
0.000374953
1.7459e-05
0.00097693
0.000140478
0.00021195
-0.00015096
5.79538e-05
-0.000119493
4.87093e-05
1.87899
0.320315
0.111036
0.0643787
0.0378888
0.019133
0.0117722
0.0113408
0.00838041
0.00524874
0.00139383
0.00169387
0.000941653
0.000370078
0.000144518
6.43958e-05
-0.000123059
-3.26172e-05
-0.00021211
0.000144996
-0.000590222
0.000396902
-7.85387e-06
0.000843359
0.000109791
0.000222392
-0.000138008
6.46388e-05
-0.000116567
4.78474e-05
0.145317
0.142181
0.117751
0.128452
0.102895
0.148021
0.181916
0.150256
0.113067
0.010269
0.00522493
0.00380661
0.002118
0.00102398
0.000539927
0.000287418
3.00613e-05
8.86738e-05
-0.000149377
0.000189927
-0.000466054
0.000408817
-1.49716e-05
0.000770402
8.42792e-05
0.000229667
-0.000126835
6.99805e-05
-0.000113225
4.6848e-05
0.0957387
0.0563374
0.0488552
0.0427556
0.0416349
0.0266196
0.0112931
0.0131881
0.0113045
0.00722528
0.00112453
0.00345862
0.00163507
0.00102443
0.000722725
0.000442826
0.000161947
0.000189367
-8.6401e-05
0.000228873
-0.000364156
0.000412504
-2.13405e-05
0.000689909
6.28238e-05
0.000232676
-0.000117062
7.40277e-05
-0.000109508
4.56934e-05
0.153846
0.287238
0.0246366
0.0206456
0.0087003
0.0164671
-0.000378871
0.0138681
0.000393179
0.00984627
0.00161231
0.00501005
0.00214874
0.0013925
0.000961957
0.00057463
0.000274906
0.000270806
-2.6817e-05
0.000261295
-0.000279017
0.00041016
-2.22307e-05
0.000624469
4.46044e-05
0.000232642
-0.000108383
7.68403e-05
-0.000105447
4.43791e-05
2.80761
0.597864
0.0203992
0.0208486
0.00794668
0.0134403
0.00536692
0.0142075
0.00105048
0.00960918
0.000830094
0.00454236
0.00201171
0.0013104
0.00108204
0.000652622
0.00036326
0.000332845
2.65686e-05
0.000286564
-0.000208921
0.000403092
-2.32814e-05
0.000566661
2.91363e-05
0.000230281
-0.000100546
7.84835e-05
-0.000101071
4.2919e-05
5.44669
0.652253
0.0646113
-0.00486034
0.032143
0.00717196
0.0048674
0.0104189
-2.98764e-05
0.0097622
-7.30023e-05
0.00515955
0.00188642
0.00141262
0.00116716
0.000699997
0.000428081
0.000377153
7.19837e-05
0.000304801
-0.000151142
0.000392245
-2.15317e-05
0.000515375
1.73294e-05
0.00022479
-9.33492e-05
7.90248e-05
-9.64067e-05
4.1301e-05
2.68199
0.0816366
0.0630298
0.0292114
0.0203346
0.0246295
0.000837356
0.0209147
-0.00261171
0.0124859
-0.000518592
0.0050598
0.00193913
0.00132934
0.00123262
0.000711525
0.000469159
0.000405087
0.000108417
0.00031604
-0.000104237
0.000378318
-1.92188e-05
0.000469118
8.04931e-06
0.00021718
-8.663e-05
7.85369e-05
-9.14745e-05
3.95293e-05
9.29425
5.11671
0.135207
-0.00813817
0.140433
0.0029614
-0.00130191
0.00817864
-0.00213847
0.00780971
-0.000366212
0.00344263
0.00192556
0.00124282
0.00120506
0.000702973
0.000486957
0.000418479
0.000135504
0.000320656
-6.66947e-05
0.000361806
-1.64808e-05
0.000426868
8.68219e-07
0.00020782
-8.026e-05
7.70944e-05
-8.62942e-05
3.76046e-05
8.70048
8.33878
6.09328
0.274546
0.247563
0.216286
-0.00137298
0.0142131
-0.00447481
0.00777076
8.60147e-05
0.00261954
0.00196402
0.00108003
0.00116936
0.000675007
0.000485525
0.000419659
0.000153484
0.000319094
-3.72957e-05
0.000343079
-1.36868e-05
0.000387775
-4.55287e-06
0.000196989
-7.41373e-05
7.47721e-05
-8.08825e-05
3.55282e-05
7.61549
8.07574
5.54993
0.455246
0.191804
0.227866
0.0215018
0.00120498
-0.00151696
0.00325426
0.00084909
0.00159784
0.00155545
0.000914053
0.00104365
0.00063076
0.000467154
0.000409823
0.000162918
0.000311852
-1.49434e-05
0.000322416
-1.1068e-05
0.000351172
-8.50077e-06
0.000184913
-6.81826e-05
7.16438e-05
-7.52554e-05
3.3303e-05
10.6818
3.40895
1.50759
0.249347
0.0198424
0.0591182
-0.000218177
0.00244693
-0.000981934
0.0016743
0.00134019
0.00120796
0.00145979
0.000764335
0.000915006
0.000577912
0.000435587
0.000391299
0.000164717
0.000299538
1.33459e-06
0.000300046
-8.78158e-06
0.000316529
-1.1219e-05
0.000171783
-6.23359e-05
6.77828e-05
-6.94293e-05
3.09343e-05
8.06545
1.11866
0.295164
0.126544
0.00444761
0.0353802
0.000603998
0.0108574
0.00156129
0.00227992
0.00134853
0.000914367
0.0010862
0.00061515
0.000747037
0.000515183
0.000392984
0.000365011
0.000159907
0.000282723
1.24262e-05
0.000276153
-6.91587e-06
0.000283412
-1.29152e-05
0.000157756
-5.65502e-05
6.32603e-05
-6.34195e-05
2.84287e-05
9.5552
0.787886
0.217528
0.176089
0.00429684
0.019831
0.00557589
0.00470115
0.00167467
0.0012342
0.000840669
0.000551842
0.000774942
0.000466219
0.00057733
0.000445923
0.000343082
0.000333045
0.00014965
0.000262043
1.91427e-05
0.000250901
-5.50663e-06
0.000251475
-1.37639e-05
0.000142968
-5.07904e-05
5.81459e-05
-5.72413e-05
2.57946e-05
5.51375
0.96923
0.361505
0.314852
0.0141439
-0.000552922
-0.00192832
-0.000120839
-0.000976687
-0.000340632
-0.000146991
2.96193e-05
0.000381549
0.000304109
0.00041511
0.00036864
0.000289238
0.000296708
0.000135129
0.000238086
2.22288e-05
0.000224443
-4.54793e-06
0.000220448
-1.3911e-05
0.000127538
-4.50323e-05
5.25085e-05
-5.09114e-05
2.30425e-05
0.34237
0.582611
0.435318
0.20239
0.0684209
-0.0131509
-0.0124467
-0.00596844
-0.00405843
-0.00195845
-0.000933205
-0.000370365
7.23569e-05
0.0001621
0.000280693
0.000292481
0.000235084
0.000257839
0.000117521
0.000211427
2.23737e-05
0.000196919
-4.00161e-06
0.000190106
-1.34784e-05
0.000111565
-3.92576e-05
4.64144e-05
-4.44457e-05
2.01838e-05
0.0377171
-0.00175004
0.0541681
-0.0122179
0.00944954
-0.0134694
-0.0125395
-0.00657424
-0.00436178
-0.00234767
-0.0012618
-0.000589042
-0.000134266
5.14357e-05
0.000175335
0.000223661
0.000183236
0.000217769
9.78628e-05
0.000182574
2.02019e-05
0.000168457
-3.80623e-06
0.000160272
-1.25674e-05
9.51405e-05
-3.34542e-05
3.99285e-05
-3.78601e-05
1.72312e-05
0.463164
-0.00721038
-0.010712
-0.0101035
-0.0115959
-0.00817679
-0.00688455
-0.00454741
-0.00341959
-0.00210267
-0.00123742
-0.000631484
-0.000232604
-1.70349e-05
9.69415e-05
0.000164979
0.000135268
0.00017753
7.70279e-05
0.000151973
1.62747e-05
0.000139188
-3.88287e-06
0.000130809
-1.12631e-05
7.83474e-05
-2.76156e-05
3.31152e-05
-3.11725e-05
1.41991e-05
0.617512
-0.000936954
-0.00549135
-0.00319392
-0.00380439
-0.00325386
-0.00330202
-0.00250295
-0.00214072
-0.00145192
-0.000954537
-0.000531125
-0.000239646
-4.9841e-05
4.19933e-05
0.000116322
9.16068e-05
0.000137652
5.5695e-05
0.000119977
1.10896e-05
0.000109225
-4.14257e-06
0.000101602
-9.63776e-06
6.12596e-05
-2.17387e-05
2.60369e-05
-2.43999e-05
1.11018e-05
0.628964
-0.00285415
-0.00201127
0.000330429
0.000444666
0.000352663
0.000181079
-0.000249212
-0.000896787
-0.000748613
-0.000597956
-0.000373274
-0.000202732
-5.54055e-05
4.0868e-06
7.61362e-05
5.19193e-05
9.82679e-05
3.44412e-05
8.68718e-05
5.05569e-06
7.86946e-05
-4.51472e-06
7.25659e-05
-7.76363e-06
4.39495e-05
-1.58287e-05
1.87562e-05
-1.75633e-05
7.95408e-06
0.317833
-0.00319561
-0.00234278
0.000727989
0.000959052
0.000827429
0.00363703
0.00037255
-0.000315602
-0.000265542
-0.000313241
-0.000209291
-0.000148563
-4.37876e-05
-2.2262e-05
4.20029e-05
1.55865e-05
5.90503e-05
1.38887e-05
5.29349e-05
-1.53495e-06
4.77411e-05
-4.98249e-06
4.36373e-05
-5.72144e-06
2.64933e-05
-9.90012e-06
1.13391e-05
-1.06907e-05
4.77131e-06
0.00160901
-0.00168404
-0.00107284
-0.000205389
0.000126615
0.00191577
0.00296965
-8.78754e-05
-0.000473339
-0.000187335
-0.000223068
-0.000101433
-9.65228e-05
-2.7616e-05
-4.31755e-05
1.07865e-05
-1.80497e-05
1.98631e-05
-4.85465e-06
1.91771e-05
-8.35815e-06
1.64739e-05
-5.50961e-06
1.47155e-05
-3.55787e-06
8.92358e-06
-3.96463e-06
3.8294e-06
-3.80311e-06
1.57764e-06
0.443605
0.371516
0.316878
0.266218
0.224834
0.188291
0.157967
0.131695
0.109816
0.0910613
0.0754004
0.0620902
0.0509719
0.0415465
0.0336678
0.0269687
0.0213191
0.0165434
0.00996427
0.00878915
-9.78767e-05
0.00299687
-0.000143453
0.00232658
-0.000224137
0.0246914
-0.000619386
0.118628
-0.00617288
0.27279
-7.71657e-05
-2.80765e-05
-7.39397e-05
-3.8262e-05
-6.79698e-05
-4.48265e-05
-6.04021e-05
-4.72099e-05
-5.37294e-05
-4.71159e-05
-4.9534e-05
-4.73429e-05
-4.90536e-05
-5.04076e-05
-5.35227e-05
-5.81251e-05
-6.39109e-05
-7.1556e-05
-8.1212e-05
-9.38736e-05
-0.000108364
-0.000128572
-0.000147691
-0.000178267
-0.00019882
-0.000209479
-0.000129699
5.50323e-05
0.000682541
0.00152349
-7.53415e-05
-2.14455e-05
-7.141e-05
-3.25307e-05
-6.48951e-05
-4.00636e-05
-5.7289e-05
-4.32908e-05
-5.08605e-05
-4.3923e-05
-4.69488e-05
-4.46789e-05
-4.67529e-05
-4.81289e-05
-5.14314e-05
-5.62006e-05
-6.2185e-05
-7.06143e-05
-7.74646e-05
-9.30345e-05
-0.000101639
-0.000125678
-0.000144353
-0.000179585
-0.000227873
-0.000328342
-0.000597115
-0.000898639
-0.00273587
-0.00412712
-7.61143e-05
-2.38915e-05
-7.22452e-05
-3.41682e-05
-6.6079e-05
-4.12987e-05
-5.84754e-05
-4.43809e-05
-5.18777e-05
-4.49268e-05
-4.78844e-05
-4.56786e-05
-4.77152e-05
-4.91296e-05
-5.23332e-05
-5.69699e-05
-6.26999e-05
-7.08287e-05
-7.93607e-05
-9.30065e-05
-0.000104938
-0.000126944
-0.000142245
-0.00017809
-0.000192991
-0.000233187
-0.000185269
-0.000109484
0.000123319
0.000541096
-7.64049e-05
-2.25083e-05
-7.21228e-05
-3.26942e-05
-6.56345e-05
-3.99233e-05
-5.78405e-05
-4.31842e-05
-5.11082e-05
-4.38583e-05
-4.6987e-05
-4.45767e-05
-4.66177e-05
-4.79504e-05
-5.12092e-05
-5.58937e-05
-6.1609e-05
-6.99949e-05
-7.74816e-05
-9.20681e-05
-0.000101382
-0.000125538
-0.000138766
-0.000179446
-0.000201825
-0.000302271
-0.00039626
-0.000678131
-0.00106905
-0.0019025
-7.65619e-05
-2.29505e-05
-7.22271e-05
-3.28144e-05
-6.57481e-05
-3.99151e-05
-5.79284e-05
-4.31733e-05
-5.11438e-05
-4.38883e-05
-4.70331e-05
-4.47144e-05
-4.67787e-05
-4.80514e-05
-5.11271e-05
-5.56073e-05
-6.10726e-05
-6.92272e-05
-7.68145e-05
-9.08778e-05
-0.000100171
-0.000123797
-0.000133887
-0.000175076
-0.000177687
-0.000249769
-0.00020246
-0.000263984
-8.96414e-05
-7.92968e-06
-7.6359e-05
-2.29458e-05
-7.20126e-05
-3.25297e-05
-6.54915e-05
-3.94974e-05
-5.7623e-05
-4.27222e-05
-5.07603e-05
-4.33988e-05
-4.65294e-05
-4.40449e-05
-4.60461e-05
-4.7291e-05
-5.0352e-05
-5.47722e-05
-6.00925e-05
-6.81146e-05
-7.5383e-05
-8.92588e-05
-9.74986e-05
-0.000121409
-0.000128496
-0.000172102
-0.000169828
-0.000267229
-0.000244411
-0.000462076
-0.000363589
-0.00084859
-7.57766e-05
-2.29065e-05
-7.14999e-05
-3.22363e-05
-6.49988e-05
-3.90551e-05
-5.71435e-05
-4.22344e-05
-5.02681e-05
-4.29057e-05
-4.60262e-05
-4.35873e-05
-4.55109e-05
-4.66491e-05
-4.95677e-05
-5.38322e-05
-5.89435e-05
-6.67567e-05
-7.36867e-05
-8.72754e-05
-9.45221e-05
-0.000118391
-0.000122344
-0.000166688
-0.000153461
-0.000242313
-0.000170718
-0.000306707
-9.62742e-05
-0.000221683
-7.48013e-05
-2.27562e-05
-7.0664e-05
-3.18456e-05
-6.42332e-05
-3.84952e-05
-5.64377e-05
-4.16058e-05
-4.9585e-05
-4.2244e-05
-4.53167e-05
-4.28297e-05
-4.47077e-05
-4.57798e-05
-4.85853e-05
-5.26986e-05
-5.75886e-05
-6.5158e-05
-7.16946e-05
-8.49535e-05
-9.11436e-05
-0.00011484
-0.000115802
-0.00016076
-0.000140132
-0.000234533
-0.000155847
-0.000334734
-0.000108451
-0.000409155
-7.34351e-05
-2.24804e-05
-6.95022e-05
-3.13394e-05
-6.31912e-05
-3.78032e-05
-5.55021e-05
-4.08299e-05
-4.87118e-05
-4.14326e-05
-4.44516e-05
-4.19615e-05
-4.37631e-05
-4.47549e-05
-4.74317e-05
-5.13796e-05
-5.60331e-05
-6.33327e-05
-6.94315e-05
-8.23238e-05
-8.74265e-05
-0.000110815
-0.00010895
-0.000153925
-0.000126584
-0.000218752
-0.000124305
-0.000279787
-3.86215e-05
-0.000238732
-7.16869e-05
-2.20793e-05
-6.80225e-05
-3.07102e-05
-6.18778e-05
-3.6973e-05
-5.43397e-05
-3.99038e-05
-4.76496e-05
-4.04678e-05
-4.34187e-05
-4.09348e-05
-4.26603e-05
-4.35711e-05
-4.61121e-05
-4.98837e-05
-5.42873e-05
-6.12966e-05
-6.69253e-05
-7.94172e-05
-8.34368e-05
-0.000106391
-0.000101967
-0.000146517
-0.000113909
-0.000204231
-0.0001029
-0.000260241
-1.80395e-05
-0.000244077
-6.95728e-05
-2.15635e-05
-6.62381e-05
-2.99565e-05
-6.03024e-05
-3.60035e-05
-5.29565e-05
-3.88282e-05
-4.64024e-05
-3.93524e-05
-4.22238e-05
-3.97589e-05
-4.14037e-05
-4.2234e-05
-4.46342e-05
-4.82202e-05
-5.23638e-05
-5.90656e-05
-6.42049e-05
-7.62634e-05
-7.92353e-05
-0.000101632
-9.49613e-05
-0.000138643
-0.000102088
-0.000189316
-8.40651e-05
-0.000232271
2.86582e-06
-0.000194061
-6.71311e-05
-2.09536e-05
-6.41656e-05
-2.90797e-05
-5.84763e-05
-3.48964e-05
-5.13603e-05