/*--------------------------------*- C++ -*----------------------------------*\
| =========                 |                                                 |
| \\      /  F ield         | OpenFOAM: The Open Source CFD Toolbox           |
|  \\    /   O peration     | Version:  2.4.0                                 |
|   \\  /    A nd           | Web:      www.OpenFOAM.org                      |
|    \\/     M anipulation  |                                                 |
\*---------------------------------------------------------------------------*/
FoamFile
{
    version     2.0;
    format      ascii;
    class       volScalarField;
    location    "0.197";
    object      p_rgh;
}
// * * * * * * * * * * * * * * * * * * * * * * * * * * * * * * * * * * * * * //

dimensions      [1 -1 -2 0 0 0 0];

internalField   nonuniform List<scalar> 
60000
(
100.12
100.123
100.131
100.144
100.161
100.182
100.209
100.24
100.275
100.316
100.361
100.411
100.467
100.527
100.593
100.663
100.739
100.821
100.908
101.001
101.099
101.204
101.314
101.431
101.553
101.682
101.818
101.959
102.108
102.263
102.424
102.592
102.767
102.948
103.136
103.33
103.531
103.738
103.95
104.168
104.391
104.619
104.851
105.087
105.326
105.568
105.811
106.054
106.297
106.539
106.777
107.011
107.239
107.459
107.67
107.869
108.054
108.224
108.375
108.504
108.61
108.688
108.737
108.752
108.73
108.669
108.564
108.412
108.208
107.951
107.635
107.258
106.816
106.305
105.722
105.066
104.332
103.519
102.625
101.649
100.59
99.4473
98.2223
96.9163
95.5314
94.0709
92.539
90.9409
89.2828
87.5721
85.8171
84.027
82.2119
80.3822
78.5485
76.7211
74.9099
73.1242
71.3703
69.6484
100.12
100.123
100.131
100.143
100.161
100.182
100.209
100.239
100.275
100.316
100.361
100.411
100.467
100.527
100.592
100.663
100.739
100.821
100.908
101.001
101.099
101.204
101.314
101.431
101.554
101.683
101.818
101.96
102.108
102.263
102.425
102.593
102.768
102.95
103.138
103.332
103.533
103.739
103.952
104.17
104.394
104.622
104.854
105.091
105.33
105.572
105.815
106.059
106.303
106.544
106.783
107.018
107.246
107.467
107.679
107.879
108.065
108.235
108.386
108.517
108.623
108.702
108.752
108.768
108.747
108.687
108.582
108.431
108.229
107.972
107.657
107.28
106.839
106.328
105.747
105.09
104.357
103.544
102.651
101.675
100.616
99.4731
98.248
96.9416
95.5563
94.0951
92.5623
90.9632
89.3039
87.5919
85.8355
84.0437
82.2267
80.3949
78.5589
76.7291
74.9149
73.1254
71.3683
69.6459
100.118
100.122
100.13
100.142
100.159
100.181
100.207
100.238
100.274
100.314
100.36
100.41
100.465
100.525
100.591
100.662
100.738
100.819
100.906
100.999
101.098
101.202
101.313
101.429
101.552
101.681
101.816
101.958
102.107
102.262
102.424
102.592
102.767
102.948
103.136
103.331
103.532
103.739
103.952
104.17
104.394
104.622
104.855
105.092
105.332
105.574
105.818
106.062
106.306
106.549
106.788
107.024
107.253
107.475
107.687
107.888
108.075
108.246
108.399
108.531
108.638
108.719
108.77
108.787
108.768
108.709
108.606
108.456
108.255
107.999
107.686
107.31
106.87
106.36
105.78
105.124
104.392
103.58
102.686
101.71
100.651
99.5087
98.2832
96.9763
95.5902
94.1281
92.5942
90.9936
89.3325
87.6184
85.8593
84.0646
82.244
80.4083
78.568
76.7334
74.9134
73.117
71.3537
69.6276
100.116
100.119
100.127
100.139
100.156
100.178
100.204
100.235
100.271
100.311
100.357
100.407
100.462
100.522
100.588
100.659
100.735
100.816
100.903
100.996
101.095
101.199
101.309
101.426
101.549
101.678
101.813
101.955
102.103
102.258
102.42
102.589
102.764
102.945
103.133
103.328
103.529
103.736
103.949
104.168
104.392
104.621
104.854
105.091
105.332
105.575
105.819
106.064
106.309
106.552
106.793
107.029
107.26
107.483
107.696
107.898
108.087
108.26
108.414
108.547
108.657
108.739
108.792
108.811
108.794
108.737
108.636
108.488
108.289
108.036
107.724
107.351
106.912
106.405
105.826
105.172
104.44
103.629
102.737
101.762
100.703
99.5601
98.3342
97.0265
95.6392
94.1753
92.6391
91.0358
89.3714
87.6533
85.8896
84.0896
82.263
80.4207
78.5736
76.7316
74.9037
73.0992
71.3291
69.5987
100.112
100.115
100.123
100.136
100.153
100.174
100.2
100.231
100.267
100.307
100.353
100.403
100.458
100.518
100.584
100.654
100.73
100.812
100.899
100.991
101.09
101.194
101.304
101.421
101.543
101.672
101.808
101.95
102.098
102.253
102.415
102.583
102.758
102.94
103.128
103.323
103.524
103.732
103.945
104.164
104.388
104.617
104.851
105.089
105.33
105.573
105.819
106.065
106.31
106.555
106.796
107.034
107.266
107.49
107.705
107.909
108.099
108.274
108.43
108.566
108.677
108.762
108.817
108.839
108.825
108.77
108.672
108.527
108.331
108.08
107.771
107.401
106.964
106.459
105.882
105.23
104.501
103.691
102.8
101.825
100.767
99.6241
98.3977
97.089
95.7001
94.234
92.6949
91.0879
89.4191
87.6957
85.9259
84.1188
82.2845
80.4337
78.5775
76.7262
74.8887
73.0749
71.2972
69.5616
100.107
100.11
100.118
100.131
100.148
100.169
100.195
100.226
100.262
100.302
100.347
100.397
100.452
100.513
100.578
100.648
100.724
100.806
100.892
100.985
101.083
101.187
101.298
101.414
101.537
101.665
101.801
101.942
102.091
102.246
102.407
102.576
102.751
102.933
103.121
103.316
103.517
103.725
103.938
104.158
104.382
104.612
104.846
105.085
105.326
105.57
105.816
106.063
106.31
106.556
106.799
107.038
107.271
107.497
107.714
107.92
108.113
108.29
108.448
108.586
108.701
108.789
108.847
108.872
108.86
108.809
108.714
108.572
108.38
108.132
107.827
107.459
107.026
106.524
105.95
105.3
104.573
103.765
102.876
101.902
100.844
99.7015
98.4746
97.1647
95.7738
94.305
92.7623
91.1506
89.4762
87.7461
85.9685
84.1525
82.3082
80.4466
78.5792
76.7165
74.8676
73.0432
71.2565
69.5148
100.101
100.104
100.112
100.124
100.141
100.163
100.189
100.22
100.255
100.296
100.341
100.391
100.446
100.506
100.571
100.641
100.717
100.798
100.885
100.977
101.075
101.179
101.289
101.406
101.528
101.657
101.792
101.933
102.082
102.237
102.398
102.566
102.742
102.923
103.112
103.307
103.508
103.716
103.93
104.149
104.374
104.605
104.839
105.078
105.321
105.566
105.813
106.061
106.309
106.556
106.8
107.041
107.276
107.504
107.723
107.932
108.127
108.306
108.468
108.609
108.727
108.818
108.879
108.908
108.9
108.853
108.762
108.624
108.436
108.192
107.891
107.527
107.098
106.599
106.028
105.382
104.657
103.852
102.964
101.992
100.935
99.7926
98.5651
97.2537
95.8605
94.3884
92.8413
91.224
89.5427
87.8044
86.0173
84.1905
82.3342
80.4597
78.5788
76.7023
74.8401
73.0035
71.2067
69.4581
100.093
100.097
100.105
100.117
100.134
100.155
100.181
100.212
100.248
100.288
100.333
100.383
100.437
100.497
100.562
100.632
100.708
100.789
100.876
100.968
101.066
101.17
101.279
101.395
101.518
101.646
101.781
101.923
102.071
102.225
102.387
102.555
102.73
102.912
103.1
103.295
103.497
103.705
103.919
104.139
104.364
104.595
104.831
105.07
105.313
105.559
105.807
106.057
106.306
106.555
106.801
107.043
107.28
107.511
107.732
107.943
108.141
108.324
108.489
108.633
108.755
108.85
108.915
108.948
108.945
108.902
108.816
108.683
108.499
108.26
107.963
107.604
107.179
106.685
106.118
105.475
104.754
103.951
103.066
102.096
101.04
99.8973
98.6692
97.3562
95.9603
94.4843
92.932
91.3081
89.6187
87.8708
86.0724
84.2328
82.3624
80.4727
78.5758
76.6832
74.8055
72.9551
71.1485
69.3906
100.085
100.088
100.096
100.108
100.125
100.147
100.173
100.203
100.239
100.279
100.323
100.373
100.428
100.488
100.552
100.622
100.698
100.779
100.865
100.957
101.054
101.158
101.268
101.383
101.505
101.634
101.768
101.91
102.058
102.212
102.374
102.542
102.717
102.898
103.087
103.282
103.484
103.692
103.906
104.126
104.352
104.584
104.82
105.06
105.304
105.551
105.8
106.051
106.302
106.552
106.8
107.045
107.284
107.517
107.742
107.955
108.157
108.343
108.511
108.66
108.785
108.885
108.955
108.992
108.994
108.956
108.876
108.748
108.569
108.336
108.044
107.69
107.27
106.781
106.219
105.58
104.863
104.064
103.181
102.213
101.158
100.016
98.787
97.4723
96.0733
94.5929
93.0346
91.4031
89.7044
87.9453
86.134
84.2797
82.3928
80.4855
78.5701
76.6588
74.7631
72.8968
71.0771
69.3108
100.075
100.079
100.086
100.099
100.115
100.137
100.163
100.193
100.228
100.268
100.313
100.363
100.417
100.476
100.541
100.611
100.686
100.767
100.853
100.944
101.042
101.145
101.254
101.37
101.491
101.62
101.754
101.895
102.043
102.197
102.358
102.526
102.701
102.883
103.071
103.266
103.468
103.676
103.891
104.112
104.338
104.57
104.807
105.048
105.293
105.541
105.792
106.044
106.296
106.548
106.798
107.045
107.287
107.523
107.751
107.968
108.172
108.362
108.535
108.688
108.818
108.922
108.998
109.041
109.048
109.016
108.941
108.819
108.646
108.419
108.134
107.786
107.372
106.888
106.331
105.697
104.984
104.189
103.309
102.343
101.29
100.148
98.9189
97.6021
96.1998
94.7144
93.1494
91.5094
89.8001
88.0284
86.2024
84.3312
82.4257
80.4981
78.5614
76.6285
74.7121
72.8274
70.9932
69.2174
100.064
100.068
100.076
100.088
100.104
100.126
100.152
100.182
100.217
100.257
100.301
100.351
100.405
100.464
100.528
100.598
100.673
100.753
100.839
100.93
101.027
101.13
101.239
101.354
101.476
101.604
101.738
101.878
102.026
102.18
102.341
102.509
102.683
102.865
103.053
103.249
103.45
103.659
103.874
104.095
104.322
104.554
104.792
105.034
105.28
105.529
105.781
106.035
106.289
106.543
106.796
107.045
107.29
107.529
107.759
107.98
108.189
108.383
108.56
108.718
108.853
108.963
109.044
109.093
109.106
109.08
109.012
108.897
108.731
108.51
108.231
107.89
107.483
107.005
106.454
105.826
105.118
104.327
103.451
102.487
101.436
100.295
99.0649
97.7461
96.34
94.8491
93.2767
91.6272
89.9061
88.1204
86.2778
84.3878
82.4611
80.5104
78.5494
76.5918
74.6514
72.7457
70.8952
69.1088
100.052
100.056
100.064
100.076
100.092
100.114
100.139
100.169
100.204
100.244
100.288
100.337
100.391
100.45
100.514
100.584
100.658
100.738
100.824
100.915
101.011
101.114
101.223
101.337
101.458
101.586
101.72
101.86
102.007
102.161
102.322
102.489
102.664
102.845
103.033
103.229
103.431
103.639
103.854
104.076
104.303
104.536
104.774
105.017
105.265
105.515
105.769
106.024
106.28
106.537
106.791
107.043
107.291
107.533
107.768
107.992
108.205
108.404
108.586
108.749
108.89
109.006
109.093
109.148
109.168
109.15
109.088
108.98
108.822
108.609
108.338
108.004
107.603
107.133
106.588
105.966
105.264
104.478
103.606
102.646
101.596
100.456
99.2253
97.9043
96.4943
94.9974
93.4169
91.757
90.023
88.2216
86.3607
84.4496
82.4991
80.5224
78.5337
76.5477
74.5799
72.65
70.781
68.9831
100.039
100.043
100.05
100.062
100.079
100.1
100.126
100.156
100.19
100.23
100.274
100.323
100.377
100.435
100.499
100.568
100.642
100.722
100.807
100.897
100.994
101.096
101.204
101.319
101.439
101.566
101.7
101.84
101.986
102.14
102.3
102.468
102.642
102.823
103.011
103.206
103.409
103.617
103.833
104.054
104.282
104.516
104.755
104.999
105.247
105.499
105.754
106.012
106.27
106.528
106.786
107.041
107.292
107.538
107.776
108.005
108.222
108.426
108.614
108.782
108.929
109.051
109.145
109.207
109.235
109.224
109.17
109.071
108.92
108.716
108.452
108.126
107.734
107.271
106.734
106.119
105.422
104.642
103.774
102.818
101.771
100.632
99.4004
98.0771
96.6629
95.1597
93.5704
91.8991
90.151
88.3326
86.4515
84.517
82.5401
80.5341
78.5141
76.4958
74.4963
72.5383
70.6483
68.8379
100.025
100.028
100.036
100.048
100.065
100.086
100.111
100.141
100.175
100.215
100.258
100.307
100.361
100.419
100.482
100.551
100.625
100.704
100.789
100.879
100.975
101.077
101.184
101.298
101.418
101.545
101.678
101.817
101.964
102.117
102.277
102.444
102.618
102.799
102.987
103.182
103.384
103.593
103.809
104.031
104.259
104.494
104.733
104.978
105.228
105.481
105.738
105.997
106.258
106.519
106.779
107.037
107.292
107.541
107.783
108.017
108.239
108.449
108.642
108.817
108.97
109.099
109.2
109.27
109.306
109.303
109.258
109.167
109.025
108.83
108.575
108.258
107.874
107.42
106.891
106.283
105.593
104.819
103.957
103.004
101.96
100.822
99.5905
98.2649
96.8462
95.3363
93.7376
92.0542
90.2908
88.4538
86.5506
84.5904
82.5842
80.5456
78.4903
76.435
74.3989
72.4083
70.4944
68.6704
100.01
100.013
100.021
100.033
100.049
100.07
100.095
100.125
100.159
100.198
100.242
100.29
100.343
100.401
100.464
100.532
100.606
100.685
100.769
100.859
100.954
101.055
101.163
101.276
101.396
101.522
101.654
101.793
101.939
102.092
102.251
102.418
102.592
102.773
102.96
103.156
103.358
103.567
103.783
104.005
104.234
104.469
104.71
104.956
105.206
105.461
105.72
105.981
106.244
106.507
106.771
107.032
107.29
107.544
107.79
108.029
108.257
108.471
108.671
108.852
109.012
109.149
109.258
109.336
109.381
109.387
109.351
109.269
109.137
108.951
108.706
108.399
108.025
107.579
107.059
106.459
105.777
105.01
104.153
103.205
102.164
101.028
99.7958
98.4679
97.0447
95.5276
93.9191
92.2226
90.4429
88.5858
86.6588
84.6705
82.6321
80.5572
78.4622
76.3648
74.2862
72.2576
70.3167
68.4774
99.9932
99.9965
100.004
100.016
100.032
100.053
100.078
100.108
100.142
100.18
100.224
100.272
100.324
100.382
100.445
100.513
100.586
100.664
100.748
100.837
100.932
101.032
101.139
101.252
101.371
101.497
101.628
101.767
101.912
102.065
102.224
102.39
102.563
102.744
102.932
103.127
103.329
103.538
103.754
103.977
104.206
104.442
104.683
104.931
105.183
105.439
105.699
105.963
106.228
106.494
106.76
107.025
107.287
107.545
107.797
108.04
108.274
108.495
108.7
108.889
109.057
109.201
109.318
109.406
109.459
109.475
109.449
109.377
109.256
109.08
108.846
108.549
108.185
107.749
107.238
106.648
105.974
105.213
104.363
103.42
102.383
101.248
100.017
98.6865
97.2586
95.7342
94.1153
92.405
90.6079
88.7294
86.7766
84.7579
82.6841
80.5692
78.4297
76.2843
74.1564
72.0829
70.11
68.2548
99.9756
99.9788
99.9863
99.9982
100.014
100.035
100.06
100.089
100.123
100.161
100.204
100.252
100.305
100.362
100.424
100.491
100.564
100.642
100.725
100.813
100.908
101.008
101.114
101.226
101.345
101.47
101.601
101.739
101.884
102.036
102.194
102.36
102.533
102.713
102.901
103.096
103.298
103.507
103.723
103.946
104.176
104.412
104.655
104.903
105.157
105.415
105.677
105.942
106.21
106.479
106.749
107.017
107.283
107.546
107.802
108.051
108.29
108.518
108.731
108.926
109.102
109.255
109.382
109.478
109.541
109.567
109.552
109.491
109.381
109.216
108.993
108.707
108.354
107.93
107.429
106.848
106.183
105.431
104.588
103.65
102.617
101.485
100.253
98.921
97.4885
95.9565
94.3267
92.6021
90.7865
88.8852
86.9048
84.8534
82.7413
80.5821
78.3931
76.1932
74.0077
71.8804
69.8695
67.9979
99.9568
99.9601
99.9675
99.9793
99.9953
100.016
100.04
100.07
100.103
100.141
100.184
100.231
100.283
100.34
100.402
100.469
100.541
100.618
100.701
100.789
100.882
100.982
101.088
101.199
101.317
101.441
101.572
101.709
101.853
102.004
102.163
102.328
102.5
102.68
102.867
103.062
103.264
103.473
103.69
103.913
104.144
104.381
104.624
104.873
105.128
105.388
105.652
105.92
106.19
106.462
106.735
107.008
107.278
107.545
107.807
108.061
108.307
108.541
108.761
108.965
109.149
109.311
109.447
109.553
109.627
109.664
109.66
109.611
109.512
109.359
109.149
108.875
108.534
108.12
107.631
107.06
106.405
105.662
104.826
103.895
102.866
101.737
100.506
99.172
97.7348
96.195
94.5541
92.8144
90.9794
89.0542
87.0446
84.9581
82.8045
80.5971
78.3529
76.0911
73.8381
71.6456
69.5892
67.701
99.937
99.9402
99.9476
99.9593
99.9752
99.9954
100.02
100.049
100.082
100.12
100.162
100.209
100.261
100.317
100.379
100.445
100.516
100.593
100.675
100.762
100.855
100.954
101.059
101.17
101.287
101.411
101.541
101.677
101.821
101.971
102.129
102.293
102.466
102.645
102.832
103.026
103.228
103.437
103.654
103.878
104.109
104.346
104.59
104.841
105.097
105.359
105.625
105.895
106.168
106.443
106.72
106.996
107.271
107.543
107.81
108.071
108.323
108.564
108.792
109.004
109.197
109.368
109.514
109.631
109.716
109.765
109.772
109.736
109.65
109.51
109.312
109.051
108.722
108.322
107.844
107.285
106.641
105.907
105.079
104.155
103.131
102.005
100.775
99.4397
97.998
96.4504
94.798
93.0427
91.1876
89.2372
87.1968
85.0732
82.8751
80.6152
78.3102
75.9783
73.6462
71.3737
69.2607
67.3562
99.9161
99.9193
99.9266
99.9382
99.954
99.974
99.9983
100.027
100.06
100.097
100.139
100.186
100.237
100.293
100.354
100.42
100.49
100.566
100.648
100.735
100.827
100.925
101.029
101.139
101.256
101.378
101.508
101.643
101.786
101.936
102.093
102.257
102.429
102.607
102.794
102.988
103.19
103.399
103.616
103.84
104.071
104.309
104.554
104.806
105.064
105.327
105.595
105.867
106.143
106.422
106.702
106.983
107.262
107.539
107.812
108.079
108.338
108.587
108.823
109.043
109.246
109.427
109.584
109.712
109.809
109.869
109.89
109.866
109.793
109.667
109.483
109.236
108.921
108.533
108.068
107.522
106.889
106.165
105.347
104.43
103.412
102.29
101.062
99.7246
98.2786
96.7232
95.059
93.2877
91.4119
89.4353
87.3628
85.2002
82.9548
80.6383
78.2666
75.856
73.4307
71.0588
68.8733
66.9533
99.8941
99.8973
99.9045
99.916
99.9316
99.9515
99.9756
100.004
100.037
100.074
100.115
100.161
100.212
100.268
100.328
100.393
100.463
100.539
100.619
100.705
100.797
100.894
100.998
101.107
101.222
101.344
101.473
101.608
101.75
101.899
102.055
102.218
102.389
102.568
102.754
102.947
103.149
103.358
103.575
103.799
104.031
104.27
104.516
104.769
105.028
105.293
105.563
105.838
106.117
106.398
106.682
106.967
107.251
107.534
107.812
108.086
108.352
108.609
108.853
109.083
109.295
109.487
109.655
109.795
109.904
109.977
110.011
110.001
109.943
109.831
109.661
109.429
109.128
108.755
108.304
107.77
107.15
106.437
105.629
104.721
103.71
102.592
101.365
100.027
98.577
97.0139
95.338
93.5504
91.6533
89.6497
87.5439
85.3407
83.0456
80.6686
78.2246
75.726
73.1913
70.6951
68.4137
66.4784
99.871
99.8742
99.8814
99.8927
99.9082
99.9279
99.9517
99.9798
100.012
100.049
100.09
100.136
100.186
100.241
100.3
100.365
100.435
100.509
100.589
100.674
100.765
100.862
100.964
101.073
101.187
101.308
101.436
101.57
101.711
101.859
102.015
102.177
102.348
102.525
102.711
102.904
103.106
103.315
103.531
103.756
103.988
104.228
104.474
104.728
104.989
105.256
105.528
105.805
106.087
106.372
106.66
106.949
107.238
107.526
107.811
108.092
108.365
108.63
108.883
109.123
109.345
109.548
109.727
109.88
110.002
110.089
110.137
110.142
110.098
110.002
109.847
109.63
109.345
108.987
108.551
108.031
107.424
106.723
105.926
105.027
104.023
102.91
101.686
100.348
98.8939
97.3233
95.6356
93.8315
91.9126
89.8814
87.7415
85.4965
83.1499
80.7091
78.1876
75.5919
72.9292
70.2761
67.8656
65.9122
99.8469
99.85
99.8572
99.8684
99.8837
99.9032
99.9268
99.9546
99.9866
100.023
100.064
100.109
100.159
100.213
100.272
100.336
100.405
100.478
100.558
100.642
100.732
100.828
100.929
101.037
101.15
101.271
101.397
101.53
101.671
101.818
101.972
102.134
102.304
102.481
102.666
102.859
103.06
103.269
103.485
103.71
103.942
104.183
104.43
104.685
104.947
105.216
105.49
105.77
106.055
106.344
106.635
106.929
107.223
107.517
107.808
108.096
108.377
108.65
108.913
109.162
109.395
109.61
109.801
109.967
110.102
110.203
110.266
110.287
110.259
110.179
110.041
109.84
109.571
109.229
108.809
108.304
107.711
107.024
106.238
105.349
104.353
103.246
102.025
100.687
99.2297
97.6518
95.9525
94.1319
92.1911
90.1318
87.9571
85.6697
83.2705
80.7635
78.1605
75.4595
72.6478
69.7944
67.2022
65.215
99.8217
99.8248
99.8319
99.843
99.8582
99.8774
99.9008
99.9283
99.9599
99.9959
100.036
100.081
100.13
100.184
100.242
100.305
100.373
100.446
100.525
100.608
100.697
100.792
100.893
100.999
101.112
101.231
101.357
101.489
101.628
101.774
101.928
102.089
102.258
102.434
102.619
102.811
103.011
103.22
103.437
103.661
103.894
104.135
104.383
104.64
104.903
105.173
105.45
105.732
106.02
106.312
106.608
106.906
107.206
107.506
107.803
108.098
108.387
108.669
108.941
109.201
109.445
109.672
109.876
110.055
110.205
110.321
110.4
110.436
110.425
110.362
110.241
110.058
109.806
109.481
109.078
108.589
108.011
107.338
106.565
105.687
104.7
103.6
102.382
101.045
99.5851
98.0003
96.2896
94.4525
92.4895
90.4021
88.1923
85.8625
83.4106
80.8363
78.1493
75.3373
72.3551
69.2465
66.3925
64.3351
99.7955
99.7986
99.8056
99.8166
99.8316
99.8506
99.8737
99.9008
99.9322
99.9677
100.007
100.052
100.1
100.153
100.211
100.273
100.341
100.413
100.49
100.573
100.661
100.755
100.854
100.96
101.072
101.19
101.314
101.445
101.583
101.729
101.881
102.041
102.209
102.385
102.569
102.76
102.96
103.169
103.385
103.61
103.843
104.084
104.334
104.591
104.855
105.127
105.406
105.691
105.982
106.278
106.578
106.881
107.186
107.492
107.796
108.098
108.396
108.687
108.969
109.239
109.495
109.734
109.951
110.145
110.309
110.441
110.536
110.59
110.596
110.551
110.448
110.284
110.05
109.744
109.357
108.886
108.324
107.666
106.907
106.041
105.064
103.971
102.759
101.423
99.9605
98.3693
96.6474
94.794
92.809
90.6933
88.4486
86.0768
83.5735
80.9326
78.1617
75.2364
72.0621
68.6265
65.3862
63.1723
99.7683
99.7713
99.7783
99.7891
99.8039
99.8227
99.8455
99.8724
99.9033
99.9383
99.9776
100.021
100.069
100.121
100.178
100.24
100.307
100.378
100.455
100.536
100.623
100.716
100.815
100.919
101.03
101.146
101.27
101.4
101.537
101.681
101.832
101.992
102.158
102.333
102.516
102.707
102.907
103.115
103.331
103.556
103.789
104.031
104.281
104.539
104.805
105.079
105.36
105.647
105.941
106.241
106.545
106.853
107.163
107.475
107.786
108.096
108.402
108.703
108.995
109.276
109.544
109.796
110.027
110.235
110.416
110.564
110.676
110.747
110.772
110.746
110.662
110.517
110.303
110.015
109.648
109.195
108.65
108.008
107.264
106.411
105.445
104.361
103.154
101.82
100.356
98.7594
97.0269
95.1574
93.1505
91.0067
88.7274
86.3145
83.7625
81.059
78.2092
75.1759
71.792
67.9438
64.138
61.6437
99.7401
99.7431
99.7499
99.7607
99.7753
99.7938
99.8163
99.8428
99.8733
99.9079
99.9467
99.9896
100.037
100.089
100.145
100.206
100.271
100.342
100.417
100.498
100.584
100.676
100.773
100.876
100.986
101.101
101.223
101.352
101.488
101.631
101.781
101.939
102.105
102.279
102.461
102.652
102.85
103.058
103.274
103.499
103.732
103.974
104.225
104.484
104.751
105.027
105.31
105.6
105.897
106.2
106.509
106.821
107.137
107.455
107.774
108.092
108.406
108.716
109.019
109.312
109.593
109.858
110.103
110.327
110.523
110.689
110.819
110.908
110.953
110.946
110.883
110.758
110.564
110.297
109.949
109.516
108.989
108.365
107.636
106.798
105.844
104.769
103.568
102.238
100.774
99.1714
97.4286
95.5434
93.5148
91.343
89.0297
86.5774
83.9801
81.2199
78.2966
75.1619
71.5607
67.2211
62.5496
59.4582
99.7109
99.7138
99.7206
99.7312
99.7456
99.7639
99.7861
99.8123
99.8423
99.8764
99.9146
99.957
100.004
100.055
100.11
100.17
100.235
100.304
100.379
100.459
100.544
100.634
100.73
100.832
100.94
101.055
101.175
101.303
101.437
101.579
101.728
101.885
102.05
102.223
102.404
102.593
102.791
102.998
103.214
103.439
103.672
103.914
104.166
104.426
104.694
104.971
105.257
105.55
105.85
106.157
106.469
106.787
107.108
107.433
107.759
108.084
108.408
108.728
109.042
109.346
109.64
109.918
110.179
110.418
110.632
110.815
110.964
111.073
111.137
111.151
111.109
111.006
110.834
110.588
110.261
109.848
109.342
108.736
108.024
107.201
106.26
105.196
104.003
102.677
101.212
99.6057
97.8534
95.9528
93.9026
91.7029
89.3562
86.8659
84.2271
81.4229
78.454
75.2708
71.4671
66.4664
60.3897
56.2662
99.6806
99.6836
99.6903
99.7007
99.715
99.733
99.7549
99.7807
99.8103
99.8439
99.8815
99.9232
99.9691
100.019
100.074
100.133
100.197
100.265
100.339
100.417
100.501
100.591
100.685
100.786
100.893
101.006
101.125
101.252
101.385
101.525
101.673
101.828
101.992
102.163
102.344
102.532
102.73
102.936
103.151
103.376
103.609
103.851
104.103
104.364
104.634
104.913
105.2
105.496
105.799
106.109
106.426
106.749
107.076
107.407
107.74
108.074
108.407
108.737
109.062
109.379
109.685
109.978
110.254
110.51
110.741
110.943
111.111
111.24
111.326
111.361
111.342
111.26
111.111
110.888
110.584
110.192
109.707
109.12
108.427
107.62
106.694
105.641
104.457
103.136
101.673
100.063
98.3018
96.3864
94.3148
92.087
89.7073
87.1809
84.5038
81.6697
78.669
75.4115
71.2405
65.6371
57.931
51.7623
99.6495
99.6524
99.659
99.6693
99.6834
99.7012
99.7227
99.7481
99.7772
99.8103
99.8473
99.8884
99.9336
99.983
100.037
100.095
100.158
100.225
100.298
100.375
100.458
100.546
100.639
100.739
100.844
100.956
101.074
101.198
101.33
101.469
101.615
101.769
101.931
102.102
102.281
102.469
102.665
102.871
103.085
103.309
103.543
103.785
104.037
104.299
104.57
104.85
105.14
105.438
105.744
106.058
106.379
106.707
107.04
107.377
107.718
108.06
108.403
108.743
109.079
109.409
109.729
110.037
110.329
110.601
110.85
111.071
111.26
111.41
111.518
111.576
111.58
111.522
111.397
111.197
110.916
110.548
110.084
109.519
108.845
108.057
107.146
106.106
104.932
103.618
102.157
100.544
98.7746
96.8449
94.752
92.4953
90.0816
87.5206
84.8088
81.9622
78.9895
75.8727
74.3104
66.2891
55.0395
45.967
99.6173
99.6202
99.6267
99.6369
99.6508
99.6683
99.6895
99.7145
99.7432
99.7757
99.8121
99.8525
99.8969
99.9455
99.9983
100.056
100.117
100.184
100.255
100.331
100.413
100.499
100.591
100.689
100.793
100.903
101.02
101.143
101.273
101.41
101.555
101.708
101.869
102.038
102.215
102.402
102.598
102.803
103.017
103.24
103.473
103.716
103.968
104.231
104.503
104.784
105.076
105.376
105.685
106.003
106.329
106.661
107
107.344
107.692
108.043
108.395
108.746
109.093
109.436
109.77
110.093
110.401
110.692
110.959
111.2
111.41
111.582
111.713
111.795
111.823
111.79
111.689
111.515
111.259
110.915
110.475
109.932
109.279
108.509
107.616
106.591
105.428
104.121
102.664
101.049
99.2725
97.3289
95.2148
92.928
90.4782
87.8844
85.1334
82.2673
79.4482
76.3436
72.5994
75.5799
51.2653
42.2029
99.5843
99.5871
99.5936
99.6036
99.6173
99.6345
99.6554
99.6799
99.7081
99.7401
99.7758
99.8155
99.8591
99.9069
99.9588
100.015
100.076
100.141
100.211
100.286
100.366
100.451
100.542
100.639
100.741
100.849
100.964
101.086
101.214
101.35
101.493
101.644
101.803
101.971
102.147
102.333
102.527
102.731
102.945
103.168
103.4
103.643
103.896
104.158
104.431
104.715
105.008
105.311
105.623
105.944
106.274
106.611
106.956
107.307
107.663
108.022
108.383
108.745
109.105
109.46
109.809
110.147
110.472
110.781
111.068
111.33
111.561
111.756
111.91
112.017
112.07
112.063
111.989
111.841
111.611
111.292
110.877
110.359
109.728
108.979
108.104
107.095
105.945
104.647
103.194
101.579
99.7962
97.8393
95.7039
93.3854
90.8943
88.2639
85.4663
82.5253
79.9308
77.369
71.7817
61.1111
72.1979
29.1789
99.5503
99.5531
99.5595
99.5694
99.5828
99.5998
99.6203
99.6444
99.6721
99.7035
99.7386
99.7775
99.8203
99.8671
99.9181
99.9733
100.033
100.097
100.166
100.239
100.318
100.402
100.491
100.586
100.687
100.794
100.907
101.026
101.153
101.287
101.428
101.578
101.735
101.902
102.077
102.261
102.454
102.657
102.87
103.092
103.324
103.567
103.819
104.082
104.356
104.641
104.936
105.241
105.556
105.881
106.215
106.557
106.908
107.265
107.629
107.997
108.368
108.74
109.112
109.481
109.844
110.199
110.541
110.868
111.175
111.458
111.712
111.931
112.11
112.243
112.323
112.343
112.296
112.175
111.973
111.681
111.293
110.799
110.193
109.466
108.61
107.618
106.483
105.195
103.749
102.135
100.347
98.377
96.2203
93.8684
91.3309
88.6539
85.7872
82.6965
80.1682
77.8697
70.2939
57.8815
53.2382
39.5889
99.5154
99.5182
99.5245
99.5342
99.5475
99.5642
99.5843
99.608
99.6351
99.6659
99.7003
99.7385
99.7805
99.8264
99.8763
99.9304
99.9888
100.052
100.119
100.191
100.269
100.351
100.439
100.532
100.631
100.736
100.847
100.965
101.09
101.222
101.362
101.509
101.665
101.83
102.003
102.186
102.378
102.58
102.792
103.013
103.245
103.487
103.739
104.003
104.277
104.563
104.859
105.167
105.485
105.813
106.151
106.498
106.855
107.219
107.59
107.967
108.348
108.731
109.115
109.498
109.876
110.247
110.607
110.954
111.281
111.586
111.864
112.107
112.312
112.472
112.579
112.627
112.609
112.517
112.344
112.081
111.72
111.253
110.672
109.969
109.135
108.162
107.042
105.767
104.328
102.717
100.924
98.9432
96.7652
94.3786
91.7894
89.0448
86.0805
82.8895
80.4664
78.519
71.8394
62.419
79.5784
48.14
99.4796
99.4824
99.4886
99.4982
99.5112
99.5276
99.5474
99.5706
99.5973
99.6274
99.6611
99.6985
99.7396
99.7845
99.8334
99.8864
99.9436
100.005
100.071
100.142
100.218
100.299
100.385
100.476
100.574
100.677
100.786
100.902
101.025
101.155
101.293
101.438
101.592
101.755
101.927
102.108
102.299
102.5
102.71
102.931
103.161
103.403
103.655
103.919
104.194
104.481
104.779
105.088
105.409
105.74
106.082
106.435
106.797
107.168
107.546
107.932
108.323
108.718
109.114
109.51
109.904
110.292
110.67
111.036
111.385
111.713
112.014
112.284
112.515
112.702
112.838
112.916
112.928
112.867
112.723
112.49
112.159
111.72
111.166
110.488
109.677
108.725
107.623
106.362
104.932
103.325
101.531
99.5391
97.3403
94.9184
92.2745
89.4458
86.3459
82.9588
79.8923
75.5681
68.7071
65.517
48.6746
7.48653
99.443
99.4457
99.4519
99.4613
99.4741
99.4902
99.5096
99.5324
99.5585
99.588
99.621
99.6575
99.6977
99.7416
99.7895
99.8413
99.8973
99.9576
100.022
100.092
100.166
100.245
100.329
100.419
100.514
100.616
100.723
100.837
100.958
101.086
101.221
101.365
101.517
101.678
101.848
102.027
102.217
102.416
102.626
102.845
103.075
103.315
103.567
103.831
104.107
104.394
104.694
105.005
105.328
105.663
106.009
106.366
106.734
107.111
107.497
107.892
108.293
108.699
109.108
109.518
109.927
110.332
110.729
111.116
111.487
111.838
112.164
112.46
112.719
112.935
113.101
113.21
113.253
113.223
113.111
112.91
112.609
112.201
111.676
111.024
110.238
109.309
108.225
106.98
105.562
103.961
102.166
100.166
97.9478
95.4911
92.7914
89.8693
86.6153
82.9917
79.3812
74.0524
66.9334
63.4299
5.82963
1.49885
99.4055
99.4082
99.4142
99.4236
99.4362
99.452
99.471
99.4933
99.5188
99.5477
99.5799
99.6156
99.6548
99.6977
99.7444
99.7951
99.8498
99.9087
99.972
100.04
100.112
100.19
100.272
100.36
100.454
100.553
100.658
100.77
100.889
101.014
101.147
101.289
101.439
101.597
101.766
101.944
102.132
102.33
102.538
102.756
102.985
103.224
103.475
103.739
104.015
104.303
104.604
104.917
105.243
105.58
105.93
106.292
106.665
107.049
107.443
107.846
108.257
108.674
109.096
109.521
109.946
110.368
110.784
111.191
111.584
111.96
112.312
112.635
112.923
113.169
113.366
113.506
113.582
113.586
113.507
113.339
113.071
112.694
112.199
111.577
110.818
109.912
108.85
107.622
106.218
104.625
102.833
100.826
98.5904
96.101
93.3453