/*--------------------------------*- C++ -*----------------------------------*\
| =========                 |                                                 |
| \\      /  F ield         | OpenFOAM: The Open Source CFD Toolbox           |
|  \\    /   O peration     | Version:  2.4.0                                 |
|   \\  /    A nd           | Web:      www.OpenFOAM.org                      |
|    \\/     M anipulation  |                                                 |
\*---------------------------------------------------------------------------*/
FoamFile
{
    version     2.0;
    format      ascii;
    class       surfaceScalarField;
    location    "0.197";
    object      phi;
}
// * * * * * * * * * * * * * * * * * * * * * * * * * * * * * * * * * * * * * //

dimensions      [0 3 -1 0 0 0 0];

internalField   nonuniform List<scalar> 
119500
(
-2.9778e-10
2.9778e-10
-6.39386e-10
3.41606e-10
-9.88997e-10
3.49612e-10
-1.34228e-09
3.53288e-10
-1.69965e-09
3.57361e-10
-2.06194e-09
3.62294e-10
-2.43016e-09
3.68221e-10
-2.80534e-09
3.75179e-10
-3.18852e-09
3.8319e-10
-3.5808e-09
3.92276e-10
-3.98325e-09
4.02455e-10
-4.39699e-09
4.13739e-10
-4.82314e-09
4.2615e-10
-5.26285e-09
4.39709e-10
-5.71728e-09
4.54434e-10
-6.18763e-09
4.70348e-10
-6.6751e-09
4.87474e-10
-7.18094e-09
5.05834e-10
-7.70639e-09
5.25452e-10
-8.25274e-09
5.46352e-10
-8.8213e-09
5.68557e-10
-9.41339e-09
5.92092e-10
-1.00304e-08
6.16977e-10
-1.06736e-08
6.43232e-10
-1.13445e-08
6.70876e-10
-1.20444e-08
6.99924e-10
-1.27748e-08
7.30386e-10
-1.35371e-08
7.62278e-10
-1.43327e-08
7.95601e-10
-1.5163e-08
8.30352e-10
-1.60295e-08
8.66522e-10
-1.69336e-08
9.041e-10
-1.78767e-08
9.43061e-10
-1.88601e-08
9.83373e-10
-1.98851e-08
1.02499e-09
-2.09529e-08
1.06787e-09
-2.20649e-08
1.11194e-09
-2.3222e-08
1.15711e-09
-2.44253e-08
1.2033e-09
-2.56757e-08
1.25039e-09
-2.69739e-08
1.29825e-09
-2.83207e-08
1.34673e-09
-2.97163e-08
1.39565e-09
-3.11611e-08
1.44482e-09
-3.26551e-08
1.49401e-09
-3.41981e-08
1.54297e-09
-3.57895e-08
1.59144e-09
-3.74286e-08
1.63909e-09
-3.91142e-08
1.6856e-09
-4.08448e-08
1.73061e-09
-4.26186e-08
1.77371e-09
-4.4433e-08
1.81448e-09
-4.62855e-08
1.85247e-09
-4.81727e-08
1.8872e-09
-5.00909e-08
1.91816e-09
-5.20357e-08
1.94482e-09
-5.40023e-08
1.96664e-09
-5.59854e-08
1.98307e-09
-5.7979e-08
1.99355e-09
-5.99765e-08
1.99751e-09
-6.19709e-08
1.99442e-09
-6.39547e-08
1.98377e-09
-6.59197e-08
1.96506e-09
-6.78576e-08
1.93788e-09
-6.97595e-08
1.90187e-09
-7.16162e-08
1.85674e-09
-7.34186e-08
1.80234e-09
-7.51572e-08
1.73862e-09
-7.68229e-08
1.6657e-09
-7.84067e-08
1.58384e-09
-7.99002e-08
1.49352e-09
-8.12957e-08
1.39546e-09
-8.25863e-08
1.29059e-09
-8.37664e-08
1.18016e-09
-8.48321e-08
1.06569e-09
-8.57812e-08
9.4905e-10
-8.66136e-08
8.32443e-10
-8.73321e-08
7.18447e-10
-8.79421e-08
6.10017e-10
-8.84526e-08
5.1049e-10
-8.88762e-08
4.23568e-10
-8.92294e-08
3.5329e-10
-8.95334e-08
3.03969e-10
-8.98135e-08
2.80118e-10
-9.00999e-08
2.86332e-10
-9.04269e-08
3.27089e-10
-9.08333e-08
4.06371e-10
-9.13606e-08
5.27284e-10
-9.20525e-08
6.9188e-10
-9.29536e-08
9.01108e-10
-9.41077e-08
1.15416e-09
-9.55553e-08
1.44756e-09
-9.73289e-08
1.77355e-09
-9.94495e-08
2.1206e-09
-1.01926e-07
2.47654e-09
-1.04755e-07
2.82871e-09
-1.07905e-07
3.15027e-09
-1.11285e-07
3.37992e-09
-1.14721e-07
3.43589e-09
3.29849e-09
-1.18019e-07
-4.51463e-10
7.49244e-10
-9.78856e-10
8.69e-10
-1.51249e-09
8.83247e-10
-2.05091e-09
8.91708e-10
-2.5957e-09
9.02151e-10
-3.14852e-09
9.15123e-10
-3.71108e-09
9.30778e-10
-4.28508e-09
9.49183e-10
-4.87228e-09
9.7039e-10
-5.47445e-09
9.94455e-10
-6.09343e-09
1.02143e-09
-6.73106e-09
1.05137e-09
-7.38924e-09
1.08433e-09
-8.06993e-09
1.1204e-09
-8.77512e-09
1.15962e-09
-9.50685e-09
1.20209e-09
-1.02673e-08
1.24787e-09
-1.10585e-08
1.29706e-09
-1.18828e-08
1.34974e-09
-1.27424e-08
1.406e-09
-1.36398e-08
1.46593e-09
-1.45773e-08
1.52963e-09
-1.55575e-08
1.59719e-09
-1.6583e-08
1.66872e-09
-1.76565e-08
1.74431e-09
-1.87806e-08
1.82405e-09
-1.99582e-08
1.90804e-09
-2.11923e-08
1.99636e-09
-2.24858e-08
2.0891e-09
-2.38418e-08
2.18634e-09
-2.52634e-08
2.28813e-09
-2.67539e-08
2.39453e-09
-2.83164e-08
2.5056e-09
-2.99544e-08
2.62135e-09
-3.16712e-08
2.74179e-09
-3.34702e-08
2.86692e-09
-3.5355e-08
2.99672e-09
-3.7329e-08
3.13111e-09
-3.93957e-08
3.27002e-09
-4.15586e-08
3.41332e-09
-4.38213e-08
3.56088e-09
-4.6187e-08
3.71248e-09
-4.86593e-08
3.86789e-09
-5.12413e-08
4.02684e-09
-5.39362e-08
4.18896e-09
-5.67472e-08
4.35388e-09
-5.96769e-08
4.52113e-09
-6.2728e-08
4.6902e-09
-6.59028e-08
4.86049e-09
-6.92036e-08
5.03133e-09
-7.26319e-08
5.20201e-09
-7.61891e-08
5.3717e-09
-7.98761e-08
5.53952e-09
-8.36935e-08
5.70451e-09
-8.76409e-08
5.86563e-09
-9.17179e-08
6.02178e-09
-9.5923e-08
6.17177e-09
-1.00254e-07
6.31438e-09
-1.04709e-07
6.44833e-09
-1.09284e-07
6.57228e-09
-1.13974e-07
6.6849e-09
-1.18775e-07
6.78486e-09
-1.23681e-07
6.87082e-09
-1.28685e-07
6.94152e-09
-1.33779e-07
6.99575e-09
-1.38954e-07
7.03242e-09
-1.44203e-07
7.05059e-09
-1.49514e-07
7.04948e-09
-1.54876e-07
7.02858e-09
-1.6028e-07
6.98761e-09
-1.65713e-07
6.92663e-09
-1.71164e-07
6.84609e-09
-1.7662e-07
6.74683e-09
-1.8207e-07
6.63018e-09
-1.87502e-07
6.49798e-09
-1.92906e-07
6.35262e-09
-1.98271e-07
6.19707e-09
-2.03587e-07
6.03491e-09
-2.08847e-07
5.87031e-09
-2.14045e-07
5.70801e-09
-2.19175e-07
5.55327e-09
-2.24233e-07
5.41177e-09
-2.29219e-07
5.28952e-09
-2.34131e-07
5.19272e-09
-2.38972e-07
5.12733e-09
-2.43744e-07
5.09845e-09
-2.48447e-07
5.10946e-09
-2.53081e-07
5.16165e-09
-2.57644e-07
5.2543e-09
-2.62127e-07
5.3844e-09
-2.66518e-07
5.54521e-09
-2.70795e-07
5.72493e-09
-2.74929e-07
5.90684e-09
-2.7888e-07
6.07249e-09
-2.82607e-07
6.20344e-09
-2.86051e-07
6.27235e-09
-2.89119e-07
6.21837e-09
-2.91672e-07
5.93301e-09
-2.93542e-07
5.30574e-09
4.33202e-09
-2.94576e-07
-4.82542e-10
1.23179e-09
-1.04595e-09
1.43241e-09
-1.61567e-09
1.45296e-09
-2.19041e-09
1.46645e-09
-2.77199e-09
1.48373e-09
-3.36227e-09
1.5054e-09
-3.96309e-09
1.5316e-09
-4.57633e-09
1.56242e-09
-5.20389e-09
1.59795e-09
-5.84772e-09
1.63828e-09
-6.50979e-09
1.68351e-09
-7.19213e-09
1.73372e-09
-7.89683e-09
1.78903e-09
-8.62601e-09
1.84958e-09
-9.38187e-09
1.91548e-09
-1.01667e-08
1.98687e-09
-1.09827e-08
2.0639e-09
-1.18323e-08
2.14673e-09
-1.27181e-08
2.23552e-09
-1.36426e-08
2.33044e-09
-1.46083e-08
2.43167e-09
-1.56181e-08
2.53938e-09
-1.66746e-08
2.65378e-09
-1.7781e-08
2.77505e-09
-1.89401e-08
2.9034e-09
-2.0155e-08
3.03901e-09
-2.14291e-08
3.18209e-09
-2.27655e-08
3.33283e-09
-2.41678e-08
3.49141e-09
-2.56395e-08
3.65803e-09
-2.71843e-08
3.83286e-09
-2.88058e-08
4.01606e-09
-3.0508e-08
4.20778e-09
-3.22948e-08
4.40815e-09
-3.41703e-08
4.61728e-09
-3.61386e-08
4.83526e-09
-3.82041e-08
5.06215e-09
-4.03709e-08
5.29797e-09
-4.26436e-08
5.54272e-09
-4.50266e-08
5.79633e-09
-4.75245e-08
6.05871e-09
-5.01417e-08
6.3297e-09
-5.28829e-08
6.60907e-09
-5.57526e-08
6.89654e-09
-5.87554e-08
7.19176e-09
-6.18958e-08
7.49426e-09
-6.51782e-08
7.80354e-09
-6.86069e-08
8.11896e-09
-7.21863e-08
8.4398e-09
-7.59202e-08
8.76522e-09
-7.98124e-08
9.09427e-09
-8.38666e-08
9.42589e-09
-8.8086e-08
9.75889e-09
-9.24734e-08
1.0092e-08
-9.70315e-08
1.04237e-08
-1.01762e-07
1.07525e-08
-1.06667e-07
1.10767e-08
-1.11747e-07
1.13945e-08
-1.17003e-07
1.1704e-08
-1.22434e-07
1.20031e-08
-1.28039e-07
1.22899e-08
-1.33816e-07
1.25621e-08
-1.39763e-07
1.28176e-08
-1.45875e-07
1.30542e-08
-1.52149e-07
1.32697e-08
-1.58579e-07
1.3462e-08
-1.65157e-07
1.3629e-08
-1.71877e-07
1.37691e-08
-1.78729e-07
1.38804e-08
-1.85703e-07
1.39616e-08
-1.92788e-07
1.40115e-08
-1.99971e-07
1.40295e-08
-2.07239e-07
1.4015e-08
-2.14577e-07
1.39684e-08
-2.21969e-07
1.38901e-08
-2.29398e-07
1.37813e-08
-2.36845e-07
1.36439e-08
-2.4429e-07
1.34799e-08
-2.51712e-07
1.32925e-08
-2.59089e-07
1.30848e-08
-2.66396e-07
1.28607e-08
-2.73609e-07
1.26244e-08
-2.807e-07
1.23806e-08
-2.87641e-07
1.21338e-08
-2.94402e-07
1.18881e-08
-3.00949e-07
1.16459e-08
-3.07247e-07
1.14075e-08
-3.13257e-07
1.11716e-08
-3.18939e-07
1.09358e-08
-3.2425e-07
1.06961e-08
-3.29149e-07
1.04437e-08
-3.33589e-07
1.01647e-08
-3.37524e-07
9.84179e-09
-3.40907e-07
9.45581e-09
-3.43684e-07
8.98039e-09
-3.45777e-07
8.36526e-09
-3.47076e-07
7.51744e-09
-3.47454e-07
6.31123e-09
-3.46803e-07
4.6545e-09
2.56787e-09
-3.45039e-07
-4.87268e-10
1.71905e-09
-1.05471e-09
1.99986e-09
-1.62906e-09
2.02731e-09
-2.20854e-09
2.04593e-09
-2.79492e-09
2.07011e-09
-3.39007e-09
2.10055e-09
-3.99587e-09
2.1374e-09
-4.61422e-09
2.18077e-09
-5.24705e-09
2.23078e-09
-5.89631e-09
2.28755e-09
-6.56402e-09
2.35122e-09
-7.25223e-09
2.42193e-09
-7.96304e-09
2.49985e-09
-8.69862e-09
2.58515e-09
-9.46117e-09
2.67803e-09
-1.0253e-08
2.77869e-09
-1.10764e-08
2.88733e-09
-1.19339e-08
3.0042e-09
-1.28279e-08
3.12954e-09
-1.37611e-08
3.26359e-09
-1.4736e-08
3.40663e-09
-1.57556e-08
3.55893e-09
-1.68226e-08
3.72077e-09
-1.794e-08
3.89245e-09
-1.91108e-08
4.07426e-09
-2.03383e-08
4.26652e-09
-2.16258e-08
4.46953e-09
-2.29765e-08
4.68359e-09
-2.43941e-08
4.909e-09
-2.58822e-08
5.14608e-09
-2.74444e-08
5.3951e-09
-2.90847e-08
5.65634e-09
-3.0807e-08
5.93007e-09
-3.26153e-08
6.21652e-09
-3.4514e-08
6.51593e-09
-3.65072e-08
6.82848e-09
-3.85994e-08
7.15433e-09
-4.0795e-08
7.49362e-09
-4.30987e-08
7.84641e-09
-4.55151e-08
8.21273e-09
-4.80489e-08
8.59254e-09
-5.0705e-08
8.98575e-09
-5.34881e-08
9.39217e-09
-5.64031e-08
9.81155e-09
-5.94549e-08
1.02435e-08
-6.26482e-08
1.06876e-08
-6.5988e-08
1.11433e-08
-6.94789e-08
1.16099e-08
-7.31255e-08
1.20865e-08
-7.69325e-08
1.25722e-08
-8.0904e-08
1.30658e-08
-8.50443e-08
1.35662e-08
-8.93572e-08
1.40718e-08
-9.38463e-08
1.45811e-08
-9.85149e-08
1.50923e-08
-1.03366e-07
1.56034e-08
-1.08402e-07
1.61124e-08
-1.13624e-07
1.66169e-08
-1.19035e-07
1.71145e-08
-1.24634e-07
1.76025e-08
-1.30422e-07
1.80782e-08
-1.36399e-07
1.85386e-08
-1.42562e-07
1.89809e-08
-1.4891e-07
1.94018e-08
-1.55438e-07
1.97984e-08
-1.62144e-07
2.01674e-08
-1.6902e-07
2.05057e-08
-1.76062e-07
2.08103e-08
-1.8326e-07
2.10784e-08
-1.90605e-07
2.13069e-08
-1.98087e-07
2.14936e-08
-2.05693e-07
2.16359e-08
-2.1341e-07
2.17318e-08
-2.21222e-07
2.17798e-08
-2.2911e-07
2.17783e-08
-2.37055e-07
2.17266e-08
-2.45035e-07
2.1624e-08
-2.53026e-07
2.14704e-08
-2.60999e-07
2.12662e-08
-2.68927e-07
2.1012e-08
-2.76775e-07
2.07089e-08
-2.84509e-07
2.03584e-08
-2.92091e-07
1.99628e-08
-2.99482e-07
1.95245e-08
-3.06639e-07
1.90453e-08
-3.13518e-07
1.85251e-08
-3.20073e-07
1.79626e-08
-3.26258e-07
1.73566e-08
-3.32029e-07
1.6707e-08
-3.37346e-07
1.60124e-08
-3.42168e-07
1.52663e-08
-3.46459e-07
1.44548e-08
-3.50174e-07
1.35573e-08
-3.53264e-07
1.25454e-08
-3.55659e-07
1.13755e-08
-3.57268e-07
9.97479e-09
-3.57986e-07
8.23527e-09
-3.57714e-07
6.03867e-09
-3.56378e-07
3.31877e-09
1.12511e-10
-3.53922e-07
-4.87087e-10
2.20614e-09
-1.05335e-09
2.56612e-09
-1.62682e-09
2.60078e-09
-2.2055e-09
2.62461e-09
-2.79108e-09
2.6557e-09
-3.38543e-09
2.6949e-09
-3.99041e-09
2.74239e-09
-4.60793e-09
2.79829e-09
-5.23991e-09
2.86276e-09
-5.88831e-09
2.93595e-09
-6.55514e-09
3.01805e-09
-7.24246e-09
3.10925e-09
-7.95236e-09
3.20975e-09
-8.68701e-09
3.3198e-09
-9.44862e-09
3.43964e-09
-1.02395e-08
3.56954e-09
-1.10619e-08
3.70978e-09
-1.19184e-08
3.86068e-09
-1.28114e-08
4.02254e-09
-1.37435e-08
4.19571e-09
-1.47174e-08
4.38053e-09
-1.57359e-08
4.57739e-09
-1.68017e-08
4.78665e-09
-1.7918e-08
5.00872e-09
-1.90878e-08
5.244e-09
-2.03141e-08
5.49289e-09
-2.16004e-08
5.75582e-09
-2.295e-08
6.0332e-09
-2.43665e-08
6.32545e-09
-2.58534e-08
6.63298e-09
-2.74145e-08
6.9562e-09
-2.90536e-08
7.2955e-09
-3.07748e-08
7.65126e-09
-3.25821e-08
8.02383e-09
-3.44798e-08
8.41355e-09
-3.6472e-08
8.82073e-09
-3.85633e-08
9.24561e-09
-4.07581e-08
9.68843e-09
-4.3061e-08
1.01494e-08
-4.54768e-08
1.06285e-08
-4.80101e-08
1.11258e-08
-5.06658e-08
1.16414e-08
-5.34486e-08
1.2175e-08
-5.63635e-08
1.27265e-08
-5.94154e-08
1.32954e-08
-6.26091e-08
1.38813e-08
-6.59494e-08
1.44836e-08
-6.94411e-08
1.51016e-08
-7.30888e-08
1.57342e-08
-7.68972e-08
1.63805e-08
-8.08704e-08
1.70391e-08
-8.50128e-08
1.77085e-08
-8.93281e-08
1.83871e-08
-9.38201e-08
1.90731e-08
-9.8492e-08
1.97642e-08
-1.03347e-07
2.04582e-08
-1.08387e-07
2.11524e-08
-1.13614e-07
2.18442e-08
-1.1903e-07
2.25304e-08
-1.24635e-07
2.32078e-08
-1.3043e-07
2.3873e-08
-1.36414e-07
2.45224e-08
-1.42585e-07
2.51521e-08
-1.48942e-07
2.57582e-08
-1.5548e-07
2.63366e-08
-1.62196e-07
2.68831e-08
-1.69084e-07
2.73936e-08
-1.76137e-07
2.78637e-08
-1.83348e-07
2.82894e-08
-1.90707e-07
2.86663e-08
-1.98204e-07
2.89906e-08
-2.05827e-07
2.92582e-08
-2.1356e-07
2.94655e-08
-2.2139e-07
2.96089e-08
-2.29296e-07
2.96851e-08
-2.37261e-07
2.96911e-08
-2.45261e-07
2.9624e-08
-2.53272e-07
2.94814e-08
-2.61267e-07
2.9261e-08
-2.69216e-07
2.89609e-08
-2.77086e-07
2.85797e-08
-2.84845e-07
2.81167e-08
-2.92454e-07
2.75719e-08
-2.99876e-07
2.69463e-08
-3.0707e-07
2.62397e-08
-3.13995e-07
2.54505e-08
-3.20609e-07
2.45763e-08
-3.26869e-07
2.36162e-08
-3.32734e-07
2.25721e-08
-3.38166e-07
2.14445e-08
-3.43126e-07
2.02268e-08
-3.47572e-07
1.89006e-08
-3.51451e-07
1.74359e-08
-3.54696e-07
1.57907e-08
-3.57226e-07
1.39054e-08
-3.58944e-07
1.16929e-08
-3.59749e-07
9.04012e-09
-3.59548e-07
5.83747e-09
-3.58263e-07
2.03458e-09
-2.32272e-09
-3.55828e-07
-4.85774e-10
2.69191e-09
-1.04991e-09
3.13025e-09
-1.62141e-09
3.17228e-09
-2.19816e-09
3.20136e-09
-2.7818e-09
3.23934e-09
-3.37418e-09
3.28728e-09
-3.97717e-09
3.34537e-09
-4.59266e-09
3.41378e-09
-5.22256e-09
3.49267e-09
-5.86885e-09
3.58224e-09
-6.53352e-09
3.68272e-09
-7.21863e-09
3.79435e-09
-7.92626e-09
3.91738e-09
-8.65857e-09
4.05211e-09
-9.41778e-09
4.19885e-09
-1.02062e-08
4.35792e-09
-1.10261e-08
4.52968e-09
-1.18799e-08
4.71452e-09
-1.27702e-08
4.91282e-09
-1.36995e-08
5.12502e-09
-1.46705e-08
5.35154e-09
-1.5686e-08
5.59286e-09
-1.67488e-08
5.84945e-09
-1.78618e-08
6.1218e-09
-1.90283e-08
6.41042e-09
-2.02512e-08
6.71584e-09
-2.1534e-08
7.03858e-09
-2.288e-08
7.37917e-09
-2.42926e-08
7.73814e-09
-2.57757e-08
8.11602e-09
-2.73328e-08
8.51332e-09
-2.89679e-08
8.93057e-09
-3.06849e-08
9.36825e-09
-3.24879e-08
9.82684e-09
-3.43811e-08
1.03068e-08
-3.63688e-08
1.08085e-08
-3.84555e-08
1.13323e-08
-4.06456e-08
1.18785e-08
-4.29438e-08
1.24475e-08
-4.53546e-08
1.30394e-08
-4.7883e-08
1.36542e-08
-5.05337e-08
1.42921e-08
-5.33115e-08
1.49528e-08
-5.62213e-08
1.56363e-08
-5.9268e-08
1.63421e-08
-6.24565e-08
1.70698e-08
-6.57917e-08
1.78187e-08
-6.92782e-08
1.85881e-08
-7.29207e-08
1.93767e-08
-7.67238e-08
2.01836e-08
-8.06918e-08
2.10071e-08
-8.48289e-08
2.18456e-08
-8.91389e-08
2.26972e-08
-9.36255e-08
2.35597e-08
-9.82919e-08
2.44306e-08
-1.03141e-07
2.53073e-08
-1.08175e-07
2.61866e-08
-1.13396e-07
2.70653e-08
-1.18806e-07
2.79398e-08
-1.24404e-07
2.88062e-08
-1.30191e-07
2.96603e-08
-1.36167e-07
3.04978e-08
-1.42329e-07
3.13139e-08
-1.48674e-07
3.2104e-08
-1.552e-07
3.28628e-08
-1.61902e-07
3.35851e-08
-1.68775e-07
3.42657e-08
-1.7581e-07
3.48991e-08
-1.83e-07
3.54797e-08
-1.90336e-07
3.60022e-08
-1.97806e-07
3.6461e-08
-2.05399e-07
3.68506e-08
-2.13099e-07
3.71658e-08
-2.20892e-07
3.74013e-08
-2.28758e-07
3.7552e-08
-2.3668e-07
3.76131e-08
-2.44636e-07
3.75797e-08
-2.52602e-07
3.74473e-08
-2.60553e-07
3.72117e-08
-2.68461e-07
3.68688e-08
-2.76296e-07
3.64154e-08
-2.84028e-07
3.58487e-08
-2.91624e-07
3.51674e-08
-2.99048e-07
3.43708e-08
-3.06266e-07
3.34571e-08
-3.13238e-07
3.24227e-08
-3.19925e-07
3.1263e-08
-3.26284e-07
2.9976e-08
-3.32275e-07
2.8563e-08
-3.37856e-07
2.70247e-08
-3.42981e-07
2.5352e-08
-3.47601e-07
2.35207e-08
-3.51657e-07
2.14915e-08
-3.55076e-07
1.92105e-08
-3.57776e-07
1.66053e-08
-3.59662e-07
1.35783e-08
-3.60633e-07
1.00113e-08
-3.60592e-07
5.79696e-09
-3.5945e-07
8.92251e-10
-4.65188e-09
-3.57121e-07
-4.83904e-10
3.17582e-09
-1.0455e-09
3.69185e-09
-1.61451e-09
3.74129e-09
-2.18877e-09
3.77562e-09
-2.76992e-09
3.82049e-09
-3.35979e-09
3.87715e-09
-3.96022e-09
3.94581e-09
-4.5731e-09
4.02666e-09
-5.20036e-09
4.11992e-09
-5.84395e-09
4.22583e-09
-6.50586e-09
4.34463e-09
-7.18813e-09
4.47662e-09
-7.89286e-09
4.62212e-09
-8.62219e-09
4.78145e-09
-9.37834e-09
4.955e-09
-1.01636e-08
5.14315e-09
-1.09802e-08
5.34634e-09
-1.18307e-08
5.56501e-09
-1.27175e-08
5.79965e-09
-1.36433e-08
6.05076e-09
-1.46106e-08
6.31887e-09
-1.56223e-08
6.60452e-09
-1.66811e-08
6.90831e-09
-1.77902e-08
7.23082e-09
-1.89524e-08
7.57267e-09
-2.0171e-08
7.93448e-09
-2.14493e-08
8.31689e-09
-2.27907e-08
8.72055e-09
-2.41987e-08
9.1461e-09
-2.56769e-08
9.59419e-09
-2.7229e-08
1.00655e-08
-2.88589e-08
1.05605e-08
-3.05707e-08
1.108e-08
-3.23683e-08
1.16245e-08
-3.4256e-08
1.21945e-08
-3.62382e-08
1.27906e-08
-3.83192e-08
1.34133e-08
-4.05036e-08
1.40629e-08
-4.27959e-08
1.47399e-08
-4.52009e-08
1.54444e-08
-4.77234e-08
1.61767e-08
-5.03681e-08
1.69368e-08
-5.31401e-08
1.77248e-08
-5.60441e-08
1.85403e-08
-5.9085e-08
1.93831e-08
-6.22679e-08
2.02527e-08
-6.55976e-08
2.11484e-08
-6.90787e-08
2.20692e-08
-7.27162e-08
2.30142e-08
-7.65144e-08
2.39818e-08
-8.04779e-08
2.49705e-08
-8.46108e-08
2.59785e-08
-8.8917e-08
2.70034e-08
-9.34003e-08
2.80429e-08
-9.80638e-08
2.90941e-08
-1.0291e-07
3.0154e-08
-1.07943e-07
3.12189e-08
-1.13162e-07
3.2285e-08
-1.18571e-07
3.33483e-08
-1.24169e-07
3.44041e-08
-1.29956e-07
3.54477e-08
-1.35932e-07
3.64737e-08
-1.42095e-07
3.74768e-08
-1.48442e-07
3.8451e-08
-1.5497e-07
3.93904e-08
-1.61673e-07
4.02887e-08
-1.68547e-07
4.11393e-08
-1.75583e-07
4.19356e-08
-1.82775e-07
4.26708e-08
-1.9011e-07
4.33381e-08
-1.9758e-07
4.39305e-08
-2.0517e-07
4.44411e-08
-2.12868e-07
4.4863e-08
-2.20656e-07
4.51894e-08
-2.28517e-07
4.54135e-08
-2.36433e-07
4.55287e-08
-2.44382e-07
4.55286e-08
-2.52341e-07
4.54068e-08
-2.60287e-07
4.51573e-08
-2.68193e-07
4.47744e-08
-2.7603e-07
4.42531e-08
-2.83771e-07
4.35891e-08
-2.91383e-07
4.27795e-08
-2.98834e-07
4.18221e-08
-3.0609e-07
4.07129e-08
-3.13113e-07
3.94458e-08
-3.19863e-07
3.8013e-08
-3.26297e-07
3.64104e-08
-3.32373e-07
3.46384e-08
-3.38045e-07
3.26966e-08
-3.43267e-07
3.05741e-08
-3.47988e-07
2.82419e-08
-3.5215e-07
2.56532e-08
-3.55684e-07
2.2745e-08
-3.58513e-07
1.94337e-08
-3.60545e-07
1.56106e-08
-3.6168e-07
1.11467e-08
-3.61811e-07
5.92768e-09
-3.60831e-07
-8.7925e-11
-6.84693e-09
-3.58636e-07
-4.8158e-10
3.6574e-09
-1.04022e-09
4.25049e-09
-1.60629e-09
4.30736e-09
-2.17761e-09
4.34694e-09
-2.7558e-09
4.39868e-09
-3.34266e-09
4.46401e-09
-3.94005e-09
4.54319e-09
-4.54984e-09
4.63645e-09
-5.17394e-09
4.74403e-09
-5.81431e-09
4.86619e-09
-6.47293e-09
5.00325e-09
-7.15184e-09
5.15553e-09
-7.85311e-09
5.32339e-09
-8.5789e-09
5.50724e-09
-9.3314e-09
5.7075e-09
-1.01129e-08
5.92463e-09
-1.09257e-08
6.15913e-09
-1.17722e-08
6.41152e-09
-1.26549e-08
6.68237e-09
-1.35764e-08
6.97226e-09
-1.45393e-08
7.28181e-09
-1.55465e-08
7.61166e-09
-1.66007e-08
7.9625e-09
-1.77049e-08
8.33501e-09
-1.88621e-08
8.72992e-09
-2.00756e-08
9.14797e-09
-2.13486e-08
9.5899e-09
-2.26845e-08
1.00565e-08
-2.40869e-08
1.05484e-08
-2.55592e-08
1.10666e-08
-2.71054e-08
1.16116e-08
-2.87293e-08
1.21844e-08
-3.04348e-08
1.27855e-08
-3.2226e-08
1.34157e-08
-3.41073e-08
1.40757e-08
-3.60828e-08
1.47661e-08
-3.8157e-08
1.54875e-08
-4.03346e-08
1.62404e-08
-4.262e-08
1.70253e-08
-4.50181e-08
1.78425e-08
-4.75336e-08
1.86922e-08
-5.01714e-08
1.95746e-08
-5.29364e-08
2.04898e-08
-5.58336e-08
2.14375e-08
-5.88678e-08
2.24174e-08
-6.20442e-08
2.3429e-08
-6.53675e-08
2.44717e-08
-6.88426e-08
2.55444e-08
-7.24743e-08
2.66459e-08
-7.62672e-08
2.77747e-08
-8.02258e-08
2.89291e-08
-8.43543e-08
3.0107e-08
-8.86568e-08
3.13059e-08
-9.3137e-08
3.25231e-08
-9.77982e-08
3.37554e-08
-1.02643e-07
3.49992e-08
-1.07675e-07
3.62506e-08
-1.12895e-07
3.75052e-08
-1.18305e-07
3.87584e-08
-1.23906e-07
4.00048e-08
-1.29697e-07
4.1239e-08
-1.35679e-07
4.24549e-08
-1.41848e-07
4.36461e-08
-1.48203e-07
4.48059e-08
-1.5474e-07
4.59273e-08
-1.61454e-07
4.70029e-08
-1.6834e-07
4.80249e-08
-1.75389e-07
4.89855e-08
-1.82595e-07
4.98766e-08
-1.89947e-07
5.069e-08
-1.97434e-07
5.14173e-08
-2.05043e-07
5.205e-08
-2.1276e-07
5.25797e-08
-2.20568e-07
5.29981e-08
-2.28451e-07
5.32966e-08
-2.3639e-07
5.3467e-08
-2.44362e-07
5.35012e-08
-2.52347e-07
5.33913e-08
-2.60319e-07
5.31295e-08
-2.68253e-07
5.27085e-08
-2.76122e-07
5.21216e-08
-2.83895e-07
5.13629e-08
-2.91544e-07
5.04281e-08
-2.99035e-07
4.9313e-08
-3.06334e-07
4.80117e-08
-3.13403e-07
4.65148e-08
-3.20202e-07
4.48118e-08
-3.26687e-07
4.28962e-08
-3.32817e-07
4.07678e-08
-3.38546e-07
3.84262e-08
-3.43831e-07
3.58593e-08
-3.48624e-07
3.30347e-08
-3.52871e-07
2.98998e-08
-3.56509e-07
2.63834e-08
-3.59467e-07
2.23911e-08
-3.61656e-07
1.77997e-08
-3.62973e-07
1.24637e-08
-3.63297e-07
6.25221e-09
-3.62503e-07
-8.82029e-10
-8.88451e-09
-3.60466e-07
-4.78837e-10
4.13624e-09
-1.03412e-09
4.80578e-09
-1.5968e-09
4.87005e-09
-2.16472e-09
4.91486e-09
-2.73948e-09
4.97344e-09
-3.32288e-09
5.0474e-09
-3.91675e-09
5.13706e-09
-4.52296e-09
5.24267e-09
-5.14342e-09
5.36449e-09
-5.78007e-09
5.50284e-09
-6.43488e-09
5.65807e-09
-7.10989e-09
5.83054e-09
-7.80718e-09
6.02068e-09
-8.52886e-09
6.22893e-09
-9.27714e-09
6.45578e-09
-1.00543e-08
6.70177e-09
-1.08626e-08
6.96745e-09
-1.17045e-08
7.25342e-09
-1.25825e-08
7.56033e-09
-1.3499e-08
7.88885e-09
-1.44569e-08
8.23968e-09
-1.54588e-08
8.61356e-09
-1.65076e-08
9.01127e-09
-1.76062e-08
9.43361e-09
-1.87577e-08
9.8814e-09
-1.99652e-08
1.03555e-08
-2.1232e-08
1.08567e-08
-2.25616e-08
1.1386e-08
-2.39574e-08
1.19442e-08
-2.54231e-08
1.25322e-08
-2.69623e-08
1.31509e-08
-2.85791e-08
1.38011e-08
-3.02773e-08
1.44837e-08
-3.20611e-08
1.51995e-08
-3.39348e-08
1.59494e-08
-3.59025e-08
1.67339e-08
-3.79689e-08
1.75539e-08
-4.01385e-08
1.841e-08
-4.24159e-08
1.93027e-08
-4.48058e-08
2.02324e-08
-4.73132e-08
2.11995e-08
-4.99428e-08
2.22043e-08
-5.26997e-08
2.32466e-08
-5.55888e-08
2.43266e-08
-5.86151e-08
2.54437e-08
-6.17837e-08
2.65976e-08
-6.50995e-08
2.77875e-08
-6.85675e-08
2.90123e-08
-7.21923e-08
3.02708e-08
-7.59789e-08
3.15613e-08
-7.99316e-08
3.28819e-08
-8.40549e-08
3.42303e-08
-8.83529e-08
3.56039e-08
-9.28293e-08
3.69995e-08
-9.74877e-08
3.84137e-08
-1.02331e-07
3.98425e-08
-1.07362e-07
4.12815e-08
-1.12583e-07
4.27259e-08
-1.17994e-07
4.41702e-08
-1.23598e-07
4.56086e-08
-1.29394e-07
4.70349e-08
-1.35382e-07
4.84423e-08
-1.41559e-07
4.98234e-08
-1.47924e-07
5.11707e-08
-1.54472e-07
5.24759e-08
-1.612e-07
5.37307e-08
-1.68101e-07
5.49262e-08
-1.75169e-07
5.60532e-08
-1.82395e-07
5.71024e-08
-1.89769e-07
5.8064e-08
-1.9728e-07
5.89283e-08
-2.04915e-07
5.96853e-08
-2.12661e-07
6.03251e-08
-2.205e-07
6.08375e-08
-2.28416e-07
6.12125e-08
-2.36389e-07
6.14402e-08
-2.44399e-07
6.15109e-08
-2.52422e-07
6.14147e-08
-2.60435e-07
6.11425e-08
-2.68412e-07
6.06851e-08
-2.76324e-07
6.00341e-08
-2.84143e-07
5.91821e-08
-2.91838e-07
5.81231e-08
-2.99376e-07
5.68511e-08
-3.06723e-07
5.5358e-08
-3.1384e-07
5.36316e-08
-3.20687e-07
5.16588e-08
-3.27222e-07
4.94316e-08
-3.33404e-07
4.69495e-08
-3.39191e-07
4.42131e-08
-3.44541e-07
4.12099e-08
-3.49412e-07
3.79052e-08
-3.53753e-07
3.42415e-08
-3.5751e-07
3.01403e-08
-3.60615e-07
2.54962e-08
-3.62985e-07
2.01692e-08
-3.64511e-07
1.39899e-08
-3.6506e-07
6.80086e-09
-3.64482e-07
-1.45998e-09
-1.07372e-08
-3.62629e-07
-4.75692e-10
4.61193e-09
-1.02719e-09
5.35728e-09
-1.58605e-09
5.42891e-09
-2.15012e-09
5.47893e-09
-2.721e-09
5.54431e-09
-3.30046e-09
5.62687e-09
-3.89034e-09
5.72694e-09
-4.4925e-09
5.84482e-09
-5.10883e-09
5.98082e-09
-5.74126e-09
6.13527e-09
-6.39176e-09
6.30857e-09
-7.06236e-09
6.50113e-09
-7.75511e-09
6.71343e-09
-8.47214e-09
6.94596e-09
-9.21564e-09
7.19928e-09
-9.98786e-09
7.47398e-09
-1.07911e-08
7.77069e-09
-1.16278e-08
8.09009e-09
-1.25003e-08
8.43289e-09
-1.34113e-08
8.79986e-09
-1.43634e-08
9.19178e-09
-1.53594e-08
9.6095e-09
-1.6402e-08
1.00539e-08
-1.74942e-08
1.05258e-08
-1.86391e-08
1.10263e-08
-1.98399e-08
1.15562e-08
-2.10997e-08
1.21166e-08
-2.24221e-08
1.27084e-08
-2.38104e-08
1.33326e-08
-2.52684e-08
1.39902e-08
-2.67998e-08
1.46823e-08
-2.84085e-08
1.54098e-08
-3.00984e-08
1.61737e-08
-3.18737e-08
1.69749e-08
-3.37386e-08
1.78143e-08
-3.56976e-08
1.86928e-08
-3.7755e-08
1.96113e-08
-3.99154e-08
2.05704e-08
-4.21835e-08
2.15708e-08
-4.45641e-08
2.2613e-08
-4.7062e-08
2.36975e-08
-4.96823e-08
2.48245e-08
-5.24298e-08
2.59941e-08
-5.53096e-08
2.72064e-08
-5.83268e-08
2.84609e-08
-6.14864e-08
2.97572e-08
-6.47935e-08
3.10946e-08
-6.8253e-08
3.24718e-08
-7.18699e-08
3.38876e-08
-7.56489e-08
3.53403e-08
-7.95947e-08
3.68277e-08
-8.37117e-08
3.83473e-08
-8.80042e-08
3.98963e-08
-9.2476e-08
4.14713e-08
-9.71307e-08
4.30684e-08
-1.01972e-07
4.46833e-08
-1.07001e-07
4.63111e-08
-1.12222e-07
4.79465e-08
-1.17635e-07
4.95835e-08
-1.23242e-07
5.12155e-08
-1.29043e-07
5.28357e-08
-1.35037e-07
5.44363e-08
-1.41222e-07
5.60093e-08
-1.47598e-07
5.7546e-08
-1.54159e-07
5.90373e-08
-1.60902e-07
6.04735e-08
-1.6782e-07
6.18448e-08
-1.74908e-07
6.31406e-08
-1.82156e-07
6.43503e-08
-1.89554e-07
6.54627e-08
-1.97093e-07
6.64666e-08
-2.04758e-07
6.73505e-08
-2.12536e-07
6.81029e-08
-2.2041e-07
6.8712e-08
-2.28364e-07
6.91662e-08
-2.36378e-07
6.94538e-08
-2.4443e-07
6.95633e-08
-2.52499e-07
6.94834e-08
-2.60559e-07
6.92029e-08
-2.68585e-07
6.87111e-08
-2.76549e-07
6.79978e-08
-2.84421e-07
6.7054e-08
-2.9217e-07
6.58719e-08
-2.99762e-07
6.44439e-08
-3.07164e-07
6.27596e-08
-3.14337e-07
6.08045e-08
-3.21241e-07
5.8563e-08
-3.27836e-07
5.60261e-08
-3.3408e-07
5.31942e-08
-3.39936e-07
5.00692e-08
-3.45366e-07
4.6639e-08
-3.50328e-07
4.28676e-08
-3.54781e-07
3.8694e-08
-3.58674e-07
3.40337e-08
-3.61948e-07
2.87706e-08
-3.64524e-07
2.27453e-08
-3.66291e-07
1.57568e-08
-3.671e-07
7.60935e-09
-3.66775e-07
-1.78448e-09
-1.23718e-08
-3.65141e-07
-4.7216e-10
5.08409e-09
-1.01945e-09
5.90457e-09
-1.57404e-09
5.9835e-09
-2.13382e-09
6.03871e-09
-2.70036e-09
6.11085e-09
-3.27544e-09
6.20194e-09
-3.86086e-09
6.31237e-09
-4.45849e-09
6.44245e-09
-5.0702e-09
6.59253e-09
-5.69792e-09
6.76299e-09
-6.34361e-09
6.95425e-09
-7.00926e-09
7.16679e-09
-7.69696e-09
7.40112e-09
-8.40879e-09
7.6578e-09
-9.14694e-09
7.93744e-09
-9.91365e-09
8.24069e-09
-1.07112e-08
8.56826e-09
-1.1542e-08
8.9209e-09
-1.24086e-08
9.29941e-09
-1.33133e-08
9.70462e-09
-1.4259e-08
1.01374e-08
-1.52482e-08
1.05988e-08
-1.6284e-08
1.10896e-08
-1.73691e-08
1.1611e-08
-1.85066e-08
1.21638e-08
-1.96997e-08
1.27494e-08
-2.09517e-08
1.33686e-08
-2.2266e-08
1.40226e-08
-2.3646e-08
1.47126e-08
-2.50953e-08
1.54396e-08
-2.66179e-08
1.62048e-08
-2.82175e-08
1.70094e-08
-2.98981e-08
1.78543e-08
-3.16638e-08
1.87406e-08
-3.3519e-08
1.96695e-08
-3.54679e-08
2.06418e-08
-3.75152e-08
2.16585e-08
-3.96653e-08
2.27205e-08
-4.19229e-08
2.38284e-08
-4.4293e-08
2.49831e-08
-4.67803e-08
2.61848e-08
-4.93899e-08
2.74341e-08
-5.21267e-08
2.8731e-08
-5.4996e-08
3.00756e-08
-5.80027e-08
3.14677e-08
-6.11521e-08
3.29066e-08
-6.44492e-08
3.43917e-08
-6.78991e-08
3.59217e-08
-7.15068e-08
3.74953e-08
-7.52771e-08
3.91106e-08
-7.92149e-08
4.07654e-08
-8.33246e-08
4.2457e-08
-8.76105e-08
4.41823e-08
-9.20768e-08
4.59376e-08
-9.67271e-08
4.77187e-08
-1.01565e-07
4.95209e-08
-1.06592e-07
5.13389e-08
-1.11813e-07
5.31667e-08
-1.17227e-07
5.49979e-08
-1.22837e-07
5.68253e-08
-1.28642e-07
5.86412e-08
-1.34643e-07
6.04371e-08
-1.40838e-07
6.22041e-08
-1.47225e-07
6.39325e-08
-1.538e-07
6.56122e-08
-1.60559e-07
6.72325e-08
-1.67496e-07
6.87822e-08
-1.74605e-07
7.02495e-08
-1.81877e-07
7.16224e-08
-1.89303e-07
7.28884e-08
-1.96871e-07
7.40348e-08
-2.04569e-07
7.50486e-08
-2.12383e-07
7.59166e-08
-2.20296e-07
7.66254e-08
-2.28292e-07
7.71616e-08
-2.3635e-07
7.75121e-08
-2.4445e-07
7.76633e-08
-2.52569e-07
7.76024e-08
-2.60682e-07
7.73163e-08
-2.68764e-07
7.67926e-08
-2.76785e-07
7.60193e-08
-2.84717e-07
7.49856e-08
-2.92527e-07
7.36823e-08
-3.00183e-07
7.20998e-08
-3.07649e-07
7.02259e-08
-3.14888e-07
6.80436e-08
-3.21861e-07
6.55353e-08
-3.28526e-07
6.26914e-08
-3.34846e-07
5.95138e-08
-3.40783e-07
5.60065e-08
-3.46303e-07
5.21588e-08
-3.51369e-07
4.79345e-08
-3.55946e-07
4.3271e-08
-3.59992e-07
3.80796e-08
-3.63457e-07
3.22347e-08
-3.66266e-07
2.55548e-08
-3.68309e-07
1.77994e-08
-3.69419e-07
8.71936e-09
-3.69393e-07
-1.81065e-09
-1.37483e-08
-3.68016e-07
-4.68247e-10
5.55234e-09
-1.0109e-09
6.44723e-09
-1.56079e-09
6.53339e-09
-2.11583e-09
6.59376e-09
-2.67759e-09
6.67261e-09
-3.24782e-09
6.77217e-09
-3.82833e-09
6.89288e-09
-4.42096e-09
7.03508e-09
-5.02757e-09
7.19915e-09
-5.65009e-09
7.38551e-09
-6.29045e-09
7.59462e-09
-6.95066e-09
7.827e-09
-7.63276e-09
8.08322e-09
-8.33885e-09
8.36389e-09
-9.0711e-09
8.66969e-09
-9.83173e-09
9.00132e-09
-1.0623e-08
9.35957e-09
-1.14474e-08
9.74525e-09
-1.23072e-08
1.01592e-08
-1.32051e-08
1.06025e-08
-1.41436e-08
1.1076e-08
-1.51255e-08
1.15807e-08
-1.61536e-08
1.21177e-08
-1.72308e-08
1.26882e-08
-1.83602e-08
1.32932e-08
-1.95449e-08
1.39341e-08
-2.07882e-08
1.46119e-08
-2.20934e-08
1.53279e-08
-2.34641e-08
1.60833e-08
-2.4904e-08
1.68795e-08
-2.64167e-08
1.77176e-08
-2.80062e-08
1.85988e-08
-2.96764e-08
1.95245e-08
-3.14316e-08
2.04958e-08
-3.32759e-08
2.15138e-08
-3.52137e-08
2.25797e-08
-3.72496e-08
2.36944e-08
-3.93882e-08
2.48591e-08
-4.16342e-08
2.60745e-08
-4.39925e-08
2.73413e-08
-4.64679e-08
2.86603e-08
-4.90656e-08
3.00317e-08
-5.17906e-08
3.1456e-08
-5.4648e-08
3.2933e-08
-5.7643e-08
3.44627e-08
-6.07808e-08
3.60445e-08
-6.40667e-08
3.76775e-08
-6.75057e-08
3.93607e-08
-7.1103e-08
4.10926e-08
-7.48634e-08
4.28711e-08
-7.8792e-08
4.4694e-08
-8.28933e-08
4.65583e-08
-8.71718e-08
4.84608e-08
-9.16316e-08
5.03974e-08
-9.62766e-08
5.23637e-08
-1.0111e-07
5.43545e-08
-1.06135e-07
5.63641e-08
-1.11355e-07
5.83861e-08
-1.1677e-07
6.04133e-08
-1.22383e-07
6.2438e-08
-1.28193e-07
6.44517e-08
-1.34201e-07
6.64452e-08
-1.40406e-07
6.84085e-08
-1.46804e-07
7.03312e-08
-1.53394e-07
7.2202e-08
-1.60171e-07
7.4009e-08
-1.67128e-07
7.574e-08
-1.74261e-07
7.73818e-08
-1.81559e-07
7.8921e-08
-1.89015e-07
8.03439e-08
-1.96616e-07
8.1636e-08
-2.0435e-07
8.27829e-08
-2.12203e-07
8.37697e-08
-2.20159e-07
8.45815e-08
-2.28201e-07
8.52032e-08
-2.36309e-07
8.56197e-08