/*--------------------------------*- C++ -*----------------------------------*\
| =========                 |                                                 |
| \\      /  F ield         | OpenFOAM: The Open Source CFD Toolbox           |
|  \\    /   O peration     | Version:  2.4.0                                 |
|   \\  /    A nd           | Web:      www.OpenFOAM.org                      |
|    \\/     M anipulation  |                                                 |
\*---------------------------------------------------------------------------*/
FoamFile
{
    version     2.0;
    format      ascii;
    class       volVectorField;
    location    "0.197";
    object      U;
}
// * * * * * * * * * * * * * * * * * * * * * * * * * * * * * * * * * * * * * //

dimensions      [0 1 -1 0 0 0 0];

internalField   nonuniform List<vector> 
60000
(
(-6.79032e-05 2.75566e-05 0)
(-0.000233424 2.76432e-05 0)
(-0.000406798 2.8431e-05 0)
(-0.000582589 2.87401e-05 0)
(-0.000760202 2.90506e-05 0)
(-0.000940054 2.94104e-05 0)
(-0.00112262 2.98396e-05 0)
(-0.0013084 3.03424e-05 0)
(-0.00149792 3.09203e-05 0)
(-0.00169171 3.15749e-05 0)
(-0.00189032 3.23072e-05 0)
(-0.00209429 3.31169e-05 0)
(-0.00230418 3.40051e-05 0)
(-0.00252056 3.49723e-05 0)
(-0.00274401 3.60185e-05 0)
(-0.00297512 3.71443e-05 0)
(-0.00321448 3.83501e-05 0)
(-0.00346271 3.96359e-05 0)
(-0.00372043 4.10017e-05 0)
(-0.00398827 4.24473e-05 0)
(-0.00426689 4.39724e-05 0)
(-0.00455694 4.55765e-05 0)
(-0.00485908 4.72583e-05 0)
(-0.005174 4.90161e-05 0)
(-0.0055024 5.08483e-05 0)
(-0.00584495 5.2752e-05 0)
(-0.00620238 5.4724e-05 0)
(-0.0065754 5.67614e-05 0)
(-0.0069647 5.88594e-05 0)
(-0.00737102 6.1012e-05 0)
(-0.00779506 6.3213e-05 0)
(-0.00823753 6.54551e-05 0)
(-0.00869913 6.77297e-05 0)
(-0.00918054 7.00266e-05 0)
(-0.00968242 7.23348e-05 0)
(-0.0102054 7.46415e-05 0)
(-0.0107501 7.69324e-05 0)
(-0.0113172 7.91913e-05 0)
(-0.011907 8.13999e-05 0)
(-0.0125202 8.35381e-05 0)
(-0.0131571 8.55837e-05 0)
(-0.0138181 8.75121e-05 0)
(-0.0145035 8.92963e-05 0)
(-0.0152133 9.09065e-05 0)
(-0.0159478 9.23105e-05 0)
(-0.0167068 9.34733e-05 0)
(-0.0174901 9.43571e-05 0)
(-0.0182975 9.49213e-05 0)
(-0.0191285 9.51226e-05 0)
(-0.0199823 9.49157e-05 0)
(-0.0208582 9.42524e-05 0)
(-0.0217551 9.30823e-05 0)
(-0.0226717 9.13533e-05 0)
(-0.0236065 8.90119e-05 0)
(-0.0245578 8.60037e-05 0)
(-0.0255235 8.22741e-05 0)
(-0.0265014 7.77689e-05 0)
(-0.0274889 7.24354e-05 0)
(-0.0284833 6.62233e-05 0)
(-0.0294813 5.90856e-05 0)
(-0.0304795 5.098e-05 0)
(-0.0314745 4.18709e-05 0)
(-0.0324621 3.17303e-05 0)
(-0.0334384 2.05399e-05 0)
(-0.034399 8.29237e-06 0)
(-0.0353393 -5.00692e-06 0)
(-0.0362549 -1.93377e-05 0)
(-0.0371409 -3.46623e-05 0)
(-0.0379929 -5.0924e-05 0)
(-0.0388063 -6.80456e-05 0)
(-0.0395766 -8.59268e-05 0)
(-0.0402998 -0.000104442 0)
(-0.0409723 -0.000123436 0)
(-0.0415909 -0.000142727 0)
(-0.0421533 -0.000162099 0)
(-0.0426578 -0.000181301 0)
(-0.0431038 -0.000200044 0)
(-0.0434921 -0.000217998 0)
(-0.0438245 -0.000234787 0)
(-0.0441048 -0.000249984 0)
(-0.0443381 -0.000263103 0)
(-0.0445319 -0.000273592 0)
(-0.0446955 -0.000280829 0)
(-0.0448405 -0.000284135 0)
(-0.0449807 -0.000282809 0)
(-0.0451323 -0.000276177 0)
(-0.0453137 -0.000263624 0)
(-0.0455447 -0.000244591 0)
(-0.045847 -0.000218555 0)
(-0.0462425 -0.000185 0)
(-0.0467537 -0.000143454 0)
(-0.0474018 -9.35178e-05 0)
(-0.0482052 -3.51781e-05 0)
(-0.0491769 3.08659e-05 0)
(-0.0503249 0.000103603 0)
(-0.0516529 0.000182762 0)
(-0.053155 0.000267522 0)
(-0.0547988 0.000350965 0)
(-0.05651 0.000418858 0)
(-0.058198 0.000466208 0)
(-9.91395e-05 0.000125656 0)
(-0.00035716 0.000147277 0)
(-0.000622348 0.000150424 0)
(-0.000890423 0.000151971 0)
(-0.00116111 0.000153741 0)
(-0.00143538 0.000155907 0)
(-0.0017141 0.000158513 0)
(-0.0019981 0.000161575 0)
(-0.00228826 0.000165102 0)
(-0.00258546 0.000169102 0)
(-0.0028906 0.000173586 0)
(-0.00320459 0.000178558 0)
(-0.00352838 0.00018403 0)
(-0.00386293 0.000190012 0)
(-0.00420923 0.000196513 0)
(-0.00456827 0.000203545 0)
(-0.00494112 0.000211118 0)
(-0.00532882 0.000219245 0)
(-0.00573249 0.000227939 0)
(-0.00615325 0.00023721 0)
(-0.00659227 0.000247073 0)
(-0.00705075 0.00025754 0)
(-0.00752993 0.000268624 0)
(-0.00803108 0.000280336 0)
(-0.00855553 0.000292689 0)
(-0.00910461 0.000305693 0)
(-0.00967974 0.000319358 0)
(-0.0102823 0.000333694 0)
(-0.0109139 0.000348708 0)
(-0.0115759 0.000364404 0)
(-0.0122699 0.000380785 0)
(-0.0129975 0.000397853 0)
(-0.0137603 0.000415605 0)
(-0.0145599 0.000434034 0)
(-0.0153982 0.000453132 0)
(-0.0162766 0.000472885 0)
(-0.017197 0.000493274 0)
(-0.0181612 0.000514274 0)
(-0.0191708 0.000535857 0)
(-0.0202276 0.000557984 0)
(-0.0213334 0.000580613 0)
(-0.0224898 0.00060369 0)
(-0.0236987 0.000627156 0)
(-0.0249616 0.000650939 0)
(-0.0262802 0.000674959 0)
(-0.0276559 0.000699124 0)
(-0.0290904 0.000723331 0)
(-0.0305849 0.000747465 0)
(-0.0321407 0.000771399 0)
(-0.033759 0.00079499 0)
(-0.0354406 0.000818086 0)
(-0.0371863 0.000840519 0)
(-0.0389968 0.00086211 0)
(-0.0408724 0.000882664 0)
(-0.0428131 0.000901977 0)
(-0.0448188 0.000919835 0)
(-0.046889 0.000936011 0)
(-0.0490229 0.000950273 0)
(-0.0512193 0.000962384 0)
(-0.0534767 0.000972103 0)
(-0.0557931 0.000979192 0)
(-0.0581663 0.000983421 0)
(-0.0605934 0.000984568 0)
(-0.0630713 0.00098243 0)
(-0.0655964 0.000976826 0)
(-0.0681647 0.000967606 0)
(-0.0707717 0.000954657 0)
(-0.0734126 0.000937916 0)
(-0.0760824 0.000917374 0)
(-0.0787756 0.000893089 0)
(-0.0814864 0.000865196 0)
(-0.0842091 0.000833919 0)
(-0.0869377 0.000799581 0)
(-0.0896662 0.000762614 0)
(-0.0923887 0.000723574 0)
(-0.0950997 0.000683147 0)
(-0.0977937 0.00064216 0)
(-0.100466 0.000601587 0)
(-0.103112 0.000562555 0)
(-0.105728 0.000526348 0)
(-0.108312 0.000494399 0)
(-0.110861 0.000468279 0)
(-0.113373 0.000449677 0)
(-0.115849 0.000440357 0)
(-0.118289 0.000442088 0)
(-0.120694 0.000456492 0)
(-0.123064 0.000484867 0)
(-0.1254 0.000528038 0)
(-0.127702 0.000586339 0)
(-0.129966 0.000659592 0)
(-0.132188 0.000746826 0)
(-0.13436 0.000845793 0)
(-0.136467 0.000952474 0)
(-0.138493 0.00106168 0)
(-0.140418 0.0011683 0)
(-0.142218 0.00126629 0)
(-0.143861 0.00134271 0)
(-0.145286 0.001373 0)
(-0.1464 0.00133175 0)
(-0.147119 0.00121953 0)
(-0.000105248 0.000246826 0)
(-0.000382088 0.000287003 0)
(-0.000664847 0.000291356 0)
(-0.000951044 0.000294089 0)
(-0.00123998 0.000297545 0)
(-0.0015328 0.000301862 0)
(-0.00183042 0.000307079 0)
(-0.00213378 0.000313214 0)
(-0.00244382 0.000320285 0)
(-0.0027615 0.00032831 0)
(-0.0030878 0.000337307 0)
(-0.00342373 0.000347295 0)
(-0.00377031 0.000358296 0)
(-0.00412859 0.000370334 0)
(-0.00449964 0.000383433 0)
(-0.00488459 0.00039762 0)
(-0.00528457 0.000412923 0)
(-0.00570076 0.000429372 0)
(-0.00613438 0.000446997 0)
(-0.00658668 0.000465831 0)
(-0.00705896 0.000485908 0)
(-0.00755254 0.000507261 0)
(-0.00806883 0.000529927 0)
(-0.00860924 0.000553941 0)
(-0.00917526 0.000579341 0)
(-0.00976841 0.00060616 0)
(-0.0103903 0.000634436 0)
(-0.0110425 0.000664204 0)
(-0.0117268 0.000695496 0)
(-0.0124449 0.000728344 0)
(-0.0131985 0.000762778 0)
(-0.0139896 0.000798825 0)
(-0.01482 0.000836507 0)
(-0.0156917 0.000875844 0)
(-0.0166067 0.00091685 0)
(-0.017567 0.000959533 0)
(-0.0185748 0.0010039 0)
(-0.0196323 0.00104994 0)
(-0.0207415 0.00109764 0)
(-0.0219047 0.00114698 0)
(-0.0231241 0.00119793 0)
(-0.0244021 0.00125043 0)
(-0.0257409 0.00130444 0)
(-0.0271428 0.00135987 0)
(-0.0286101 0.00141665 0)
(-0.030145 0.00147465 0)
(-0.0317498 0.00153376 0)
(-0.0334267 0.00159383 0)
(-0.0351778 0.00165469 0)
(-0.0370052 0.00171616 0)
(-0.0389108 0.00177801 0)
(-0.0408966 0.00184001 0)
(-0.0429641 0.0019019 0)
(-0.045115 0.00196339 0)
(-0.0473506 0.00202417 0)
(-0.0496721 0.0020839 0)
(-0.0520804 0.00214222 0)
(-0.0545761 0.00219874 0)
(-0.0571595 0.00225306 0)
(-0.0598308 0.00230477 0)
(-0.0625895 0.00235342 0)
(-0.065435 0.00239858 0)
(-0.0683661 0.0024398 0)
(-0.0713812 0.00247666 0)
(-0.0744782 0.00250874 0)
(-0.0776547 0.00253562 0)
(-0.0809075 0.00255696 0)
(-0.084233 0.00257243 0)
(-0.0876271 0.00258177 0)
(-0.091085 0.00258479 0)
(-0.0946014 0.00258139 0)
(-0.0981704 0.00257155 0)
(-0.101785 0.00255539 0)
(-0.105439 0.00253313 0)
(-0.109125 0.00250516 0)
(-0.112833 0.00247198 0)
(-0.116555 0.00243429 0)
(-0.120281 0.0023929 0)
(-0.124001 0.00234881 0)
(-0.127705 0.00230314 0)
(-0.13138 0.00225714 0)
(-0.135015 0.00221213 0)
(-0.138595 0.00216953 0)
(-0.142108 0.00213074 0)
(-0.145539 0.00209707 0)
(-0.148872 0.00206945 0)
(-0.15209 0.00204822 0)
(-0.155173 0.00203318 0)
(-0.158102 0.00202358 0)
(-0.160857 0.00201809 0)
(-0.163416 0.00201427 0)
(-0.165758 0.00200835 0)
(-0.167858 0.00199592 0)
(-0.169693 0.00197292 0)
(-0.17124 0.00193525 0)
(-0.172468 0.00187444 0)
(-0.173333 0.00177068 0)
(-0.17377 0.00159244 0)
(-0.173699 0.00131252 0)
(-0.173073 0.000931479 0)
(-0.000106329 0.000368745 0)
(-0.00038561 0.000428952 0)
(-0.000670338 0.000434937 0)
(-0.000958918 0.000438945 0)
(-0.00125023 0.000444128 0)
(-0.00154546 0.00045064 0)
(-0.00184555 0.000458519 0)
(-0.00215143 0.000467792 0)
(-0.00246406 0.000478482 0)
(-0.00278441 0.000490617 0)
(-0.00311348 0.000504225 0)
(-0.00345228 0.000519338 0)
(-0.00380184 0.000535989 0)
(-0.00416324 0.000554216 0)
(-0.00453757 0.000574059 0)
(-0.00492595 0.00059556 0)
(-0.00532953 0.000618765 0)
(-0.00574952 0.000643722 0)
(-0.00618715 0.000670482 0)
(-0.00664368 0.000699098 0)
(-0.00712043 0.000729624 0)
(-0.00761877 0.000762119 0)
(-0.00814009 0.000796641 0)
(-0.00868586 0.000833253 0)
(-0.00925758 0.000872015 0)
(-0.00985681 0.00091299 0)
(-0.0104852 0.000956241 0)
(-0.0111443 0.00100183 0)
(-0.011836 0.00104982 0)
(-0.0125619 0.00110027 0)
(-0.013324 0.00115324 0)
(-0.0141241 0.00120879 0)
(-0.0149642 0.00126696 0)
(-0.0158463 0.0013278 0)
(-0.0167725 0.00139135 0)
(-0.0177448 0.00145765 0)
(-0.0187655 0.00152673 0)
(-0.0198368 0.0015986 0)
(-0.0209609 0.00167328 0)
(-0.0221402 0.00175076 0)
(-0.023377 0.00183101 0)
(-0.0246736 0.00191402 0)
(-0.0260326 0.00199973 0)
(-0.0274562 0.00208806 0)
(-0.028947 0.00217894 0)
(-0.0305074 0.00227225 0)
(-0.0321397 0.00236784 0)
(-0.0338465 0.00246557 0)
(-0.0356299 0.00256522 0)
(-0.0374923 0.00266658 0)
(-0.039436 0.00276939 0)
(-0.041463 0.00287335 0)
(-0.0435754 0.00297814 0)
(-0.045775 0.00308339 0)
(-0.0480636 0.00318871 0)
(-0.0504427 0.00329364 0)
(-0.0529136 0.00339772 0)
(-0.0554775 0.00350043 0)
(-0.0581351 0.00360122 0)
(-0.0608871 0.00369951 0)
(-0.0637337 0.0037947 0)
(-0.0666747 0.00388614 0)
(-0.0697095 0.00397319 0)
(-0.0728374 0.00405519 0)
(-0.0760567 0.00413148 0)
(-0.0793657 0.00420139 0)
(-0.0827619 0.00426428 0)
(-0.0862422 0.00431954 0)
(-0.0898032 0.0043666 0)
(-0.0934404 0.00440492 0)
(-0.0971489 0.00443406 0)
(-0.100923 0.00445362 0)
(-0.104756 0.00446333 0)
(-0.108641 0.00446298 0)
(-0.112568 0.0044525 0)
(-0.11653 0.00443194 0)
(-0.120515 0.00440147 0)
(-0.124512 0.00436138 0)
(-0.128507 0.0043121 0)
(-0.132487 0.00425415 0)
(-0.136436 0.00418817 0)
(-0.140337 0.0041149 0)
(-0.144173 0.00403521 0)
(-0.147922 0.00394996 0)
(-0.151566 0.00385986 0)
(-0.155082 0.00376513 0)
(-0.158448 0.00366558 0)
(-0.16164 0.0035608 0)
(-0.164636 0.00345039 0)
(-0.167414 0.00333361 0)
(-0.169954 0.00320867 0)
(-0.172239 0.00307243 0)
(-0.174246 0.0029208 0)
(-0.175955 0.00274831 0)
(-0.177334 0.00254596 0)
(-0.178347 0.00229718 0)
(-0.178946 0.00197564 0)
(-0.179071 0.00155097 0)
(-0.178659 0.00100453 0)
(-0.177684 0.000343383 0)
(-0.000106382 0.000490689 0)
(-0.000385291 0.000570802 0)
(-0.000669403 0.000578559 0)
(-0.000957596 0.000583864 0)
(-0.00124851 0.000590773 0)
(-0.00154334 0.00059948 0)
(-0.00184302 0.000610023 0)
(-0.00214849 0.000622434 0)
(-0.0024607 0.000636745 0)
(-0.00278062 0.000652993 0)
(-0.00310925 0.000671216 0)
(-0.00344761 0.000691456 0)
(-0.00379673 0.000713763 0)
(-0.00415767 0.000738185 0)
(-0.00453152 0.000764778 0)
(-0.00491942 0.0007936 0)
(-0.00532252 0.000824716 0)
(-0.00574201 0.00085819 0)
(-0.00617913 0.000894095 0)
(-0.00663514 0.000932502 0)
(-0.00711136 0.000973491 0)
(-0.00760916 0.00101714 0)
(-0.00812994 0.00106353 0)
(-0.00867515 0.00111276 0)
(-0.00924631 0.0011649 0)
(-0.00984497 0.00122005 0)
(-0.0104727 0.0012783 0)
(-0.0111313 0.00133974 0)
(-0.0118224 0.00140446 0)
(-0.0125478 0.00147254 0)
(-0.0133093 0.00154408 0)
(-0.0141088 0.00161916 0)
(-0.0149484 0.00169786 0)
(-0.0158299 0.00178025 0)
(-0.0167556 0.0018664 0)
(-0.0177274 0.00195638 0)
(-0.0187477 0.00205024 0)
(-0.0198185 0.00214801 0)
(-0.0209422 0.00224974 0)
(-0.0221211 0.00235544 0)
(-0.0233576 0.0024651 0)
(-0.024654 0.00257872 0)
(-0.0260128 0.00269624 0)
(-0.0274364 0.00281761 0)
(-0.0289272 0.00294274 0)
(-0.0304877 0.00307151 0)
(-0.0321202 0.00320377 0)
(-0.0338273 0.00333936 0)
(-0.0356112 0.00347803 0)
(-0.0374743 0.00361954 0)
(-0.0394187 0.00376359 0)
(-0.0414467 0.00390984 0)
(-0.0435602 0.0040579 0)
(-0.0457611 0.00420732 0)
(-0.0480513 0.00435764 0)
(-0.0504321 0.0045083 0)
(-0.0529051 0.00465873 0)
(-0.0554713 0.00480829 0)
(-0.0581315 0.00495629 0)
(-0.0608864 0.00510201 0)
(-0.0637361 0.00524466 0)
(-0.0666805 0.00538344 0)
(-0.0697192 0.00551748 0)
(-0.0728513 0.00564593 0)
(-0.0760752 0.00576787 0)
(-0.0793892 0.00588239 0)
(-0.0827908 0.00598859 0)
(-0.086277 0.00608554 0)
(-0.0898442 0.00617237 0)
(-0.0934882 0.0062482 0)
(-0.0972039 0.00631221 0)
(-0.100986 0.00636361 0)
(-0.104827 0.00640168 0)
(-0.10872 0.00642576 0)
(-0.112657 0.00643526 0)
(-0.116628 0.00642966 0)
(-0.120623 0.00640855 0)
(-0.12463 0.00637157 0)
(-0.128635 0.00631844 0)
(-0.132626 0.00624899 0)
(-0.136586 0.00616312 0)
(-0.140499 0.00606092 0)
(-0.144347 0.00594264 0)
(-0.148111 0.00580864 0)
(-0.151771 0.00565912 0)
(-0.155308 0.00549387 0)
(-0.158699 0.00531243 0)
(-0.161924 0.00511464 0)
(-0.164962 0.00490084 0)
(-0.167792 0.00467111 0)
(-0.170396 0.00442395 0)
(-0.172755 0.00415549 0)
(-0.174844 0.00385947 0)
(-0.176634 0.00352717 0)
(-0.178087 0.00314566 0)
(-0.179161 0.00269483 0)
(-0.179808 0.00214699 0)
(-0.179973 0.00147367 0)
(-0.179592 0.000660152 0)
(-0.178635 -0.000283666 0)
(-0.000106157 0.000612317 0)
(-0.000384141 0.000712132 0)
(-0.000667176 0.000721717 0)
(-0.000954409 0.00072833 0)
(-0.00124435 0.000736965 0)
(-0.00153821 0.00074786 0)
(-0.0018369 0.000761059 0)
(-0.00214136 0.000776599 0)
(-0.00245254 0.000794522 0)
(-0.00277142 0.000814871 0)
(-0.00309899 0.000837696 0)
(-0.00343625 0.000863053 0)
(-0.00378424 0.000890999 0)
(-0.00414403 0.000921601 0)
(-0.0045167 0.000954927 0)
(-0.00490338 0.000991054 0)
(-0.00530523 0.00103006 0)
(-0.00572342 0.00107203 0)
(-0.0061592 0.00111706 0)
(-0.00661384 0.00116524 0)
(-0.00708864 0.00121666 0)
(-0.00758496 0.00127144 0)
(-0.00810421 0.00132968 0)
(-0.00864785 0.00139149 0)
(-0.00921738 0.00145699 0)
(-0.00981436 0.00152629 0)
(-0.0104404 0.00159951 0)
(-0.0110972 0.00167676 0)
(-0.0117864 0.00175818 0)
(-0.0125099 0.00184387 0)
(-0.0132694 0.00193394 0)
(-0.014067 0.00202852 0)
(-0.0149045 0.00212772 0)
(-0.0157839 0.00223163 0)
(-0.0167073 0.00234035 0)
(-0.0176769 0.00245397 0)
(-0.0186949 0.00257257 0)
(-0.0197634 0.00269622 0)
(-0.0208847 0.00282497 0)
(-0.0220612 0.00295886 0)
(-0.0232953 0.0030979 0)
(-0.0245892 0.00324209 0)
(-0.0259455 0.0033914 0)
(-0.0273665 0.00354578 0)
(-0.0288548 0.00370513 0)
(-0.0304127 0.00386934 0)
(-0.0320427 0.00403826 0)
(-0.0337471 0.00421167 0)
(-0.0355284 0.00438934 0)
(-0.0373889 0.00457098 0)
(-0.0393307 0.00475625 0)
(-0.0413561 0.00494474 0)
(-0.0434669 0.00513602 0)
(-0.0456652 0.00532957 0)
(-0.0479527 0.00552482 0)
(-0.0503308 0.00572114 0)
(-0.0528009 0.00591783 0)
(-0.0553641 0.00611413 0)
(-0.0580212 0.0063092 0)
(-0.0607727 0.00650217 0)
(-0.0636188 0.00669208 0)
(-0.0665593 0.00687793 0)
(-0.0695935 0.00705867 0)
(-0.0727206 0.00723319 0)
(-0.0759388 0.00740035 0)
(-0.0792464 0.00755899 0)
(-0.0826406 0.00770791 0)
(-0.0861184 0.0078459 0)
(-0.089676 0.00797175 0)
(-0.0933089 0.00808427 0)
(-0.0970122 0.00818224 0)
(-0.10078 0.00826452 0)
(-0.104605 0.00832996 0)
(-0.108481 0.00837745 0)
(-0.112398 0.00840594 0)
(-0.116349 0.00841442 0)
(-0.120322 0.00840193 0)
(-0.124306 0.00836756 0)
(-0.128289 0.00831048 0)
(-0.132258 0.00822993 0)
(-0.136199 0.00812526 0)
(-0.140096 0.00799604 0)
(-0.143933 0.00784212 0)
(-0.147694 0.00766347 0)
(-0.15136 0.00745991 0)
(-0.154914 0.00723083 0)
(-0.158335 0.00697541 0)
(-0.161603 0.0066934 0)
(-0.164698 0.00638531 0)
(-0.167597 0.00605138 0)
(-0.17028 0.00568972 0)
(-0.172725 0.00529507 0)
(-0.174903 0.00485865 0)
(-0.176781 0.00436825 0)
(-0.178321 0.00380703 0)
(-0.179479 0.00315177 0)
(-0.18021 0.00237389 0)
(-0.180458 0.00144692 0)
(-0.180153 0.00035946 0)
(-0.179258 -0.000876617 0)
(-0.000105788 0.000733539 0)
(-0.000382589 0.000852862 0)
(-0.000664338 0.000864298 0)
(-0.000950336 0.000872223 0)
(-0.00123904 0.000882582 0)
(-0.00153164 0.000895658 0)
(-0.00182906 0.000911504 0)
(-0.00213223 0.000930164 0)
(-0.0024421 0.000951686 0)
(-0.00275965 0.000976124 0)
(-0.00308584 0.00100354 0)
(-0.00342171 0.001034 0)
(-0.00376827 0.00106757 0)
(-0.00412659 0.00110433 0)
(-0.00449775 0.00114437 0)
(-0.00488288 0.00118778 0)
(-0.00528312 0.00123465 0)
(-0.00569967 0.0012851 0)
(-0.00613375 0.00133922 0)
(-0.00658662 0.00139715 0)
(-0.00705961 0.00145898 0)
(-0.00755406 0.00152486 0)
(-0.00807139 0.00159492 0)
(-0.00861303 0.00166929 0)
(-0.00918049 0.00174811 0)
(-0.00977534 0.00183152 0)
(-0.0103992 0.00191968 0)
(-0.0110537 0.00201272 0)
(-0.0117406 0.0021108 0)
(-0.0124617 0.00221406 0)
(-0.0132188 0.00232264 0)
(-0.0140138 0.0024367 0)
(-0.0148487 0.00255636 0)
(-0.0157254 0.00268175 0)
(-0.0166462 0.00281301 0)
(-0.017613 0.00295025 0)
(-0.0186281 0.00309358 0)
(-0.0196938 0.00324308 0)
(-0.0208122 0.00339884 0)
(-0.0219858 0.0035609 0)
(-0.0232169 0.00372931 0)
(-0.0245079 0.00390407 0)
(-0.0258612 0.00408517 0)
(-0.0272793 0.00427255 0)
(-0.0287647 0.00446614 0)
(-0.0303197 0.00466581 0)
(-0.0319469 0.00487139 0)
(-0.0336487 0.00508266 0)
(-0.0354274 0.00529936 0)
(-0.0372854 0.00552117 0)
(-0.0392249 0.00574769 0)
(-0.041248 0.00597848 0)
(-0.0433569 0.00621304 0)
(-0.0455534 0.00645076 0)
(-0.0478393 0.00669101 0)
(-0.0502161 0.00693303 0)
(-0.0526851 0.00717602 0)
(-0.0552475 0.00741909 0)
(-0.057904 0.00766126 0)
(-0.0606552 0.00790148 0)
(-0.0635013 0.00813862 0)
(-0.066442 0.0083715 0)
(-0.0694767 0.00859883 0)
(-0.0726043 0.00881929 0)
(-0.0758233 0.00903149 0)
(-0.0791316 0.009234 0)
(-0.0825266 0.00942532 0)
(-0.0860051 0.00960396 0)
(-0.0895632 0.00976837 0)
(-0.0931964 0.00991702 0)
(-0.0968994 0.0100484 0)
(-0.100666 0.0101608 0)
(-0.10449 0.0102529 0)
(-0.108364 0.0103231 0)
(-0.112279 0.0103699 0)
(-0.116227 0.0103919 0)
(-0.120196 0.0103876 0)
(-0.124177 0.0103557 0)
(-0.128157 0.010295 0)
(-0.132124 0.0102041 0)
(-0.136065 0.010082 0)
(-0.139964 0.00992791 0)
(-0.143807 0.00974122 0)
(-0.147578 0.00952158 0)
(-0.151261 0.00926834 0)
(-0.154837 0.00898024 0)
(-0.158287 0.00865583 0)
(-0.16159 0.00829432 0)
(-0.164724 0.00789597 0)
(-0.167668 0.00746077 0)
(-0.170398 0.00698614 0)
(-0.172893 0.00646536 0)
(-0.175122 0.00588757 0)
(-0.177055 0.00523807 0)
(-0.178655 0.00449739 0)
(-0.179882 0.00363988 0)
(-0.180692 0.00263503 0)
(-0.181025 0.00145559 0)
(-0.180805 9.05864e-05 0)
(-0.179985 -0.00144529 0)
(-0.000105308 0.000854238 0)
(-0.000380701 0.000992907 0)
(-0.000660964 0.0010062 0)
(-0.000945494 0.00101544 0)
(-0.00123272 0.00102752 0)
(-0.00152383 0.00104277 0)
(-0.00181974 0.00106125 0)
(-0.00212138 0.00108302 0)
(-0.00242969 0.00110812 0)
(-0.00274564 0.00113664 0)
(-0.00307021 0.00116862 0)
(-0.00340441 0.00120416 0)
(-0.00374926 0.00124334 0)
(-0.00410583 0.00128624 0)
(-0.0044752 0.00133297 0)
(-0.00485847 0.00138364 0)
(-0.00525681 0.00143836 0)
(-0.0056714 0.00149725 0)
(-0.00610345 0.00156045 0)
(-0.00655424 0.00162808 0)
(-0.00702507 0.0017003 0)
(-0.0075173 0.00177725 0)
(-0.00803232 0.00185908 0)
(-0.00857159 0.00194597 0)
(-0.0091366 0.00203808 0)
(-0.00972892 0.00213558 0)
(-0.0103502 0.00223863 0)
(-0.011002 0.00234743 0)
(-0.0116861 0.00246213 0)
(-0.0124043 0.00258292 0)
(-0.0131585 0.00270998 0)
(-0.0139505 0.00284347 0)
(-0.0147823 0.00298356 0)
(-0.0156559 0.00313042 0)
(-0.0165734 0.00328419 0)
(-0.0175369 0.00344503 0)
(-0.0185487 0.00361305 0)
(-0.019611 0.00378839 0)
(-0.020726 0.00397113 0)
(-0.0218961 0.00416136 0)
(-0.0231237 0.00435913 0)
(-0.0244112 0.00456446 0)
(-0.0257611 0.00477736 0)
(-0.0271758 0.00499778 0)
(-0.0286577 0.00522563 0)
(-0.0302095 0.0054608 0)
(-0.0318334 0.00570309 0)
(-0.0335321 0.00595229 0)
(-0.0353079 0.00620809 0)
(-0.0371631 0.00647015 0)
(-0.0391 0.00673803 0)
(-0.0411209 0.00701124 0)
(-0.0432277 0.0072892 0)
(-0.0454225 0.00757126 0)
(-0.0477071 0.00785666 0)
(-0.0500829 0.00814457 0)
(-0.0525514 0.00843406 0)
(-0.0551138 0.0087241 0)
(-0.0577708 0.00901358 0)
(-0.0605231 0.00930129 0)
(-0.0633708 0.00958592 0)
(-0.0663138 0.00986607 0)
(-0.0693514 0.0101403 0)
(-0.0724826 0.0104069 0)
(-0.0757059 0.0106644 0)
(-0.0790192 0.010911 0)
(-0.0824199 0.0111449 0)
(-0.0859047 0.0113644 0)
(-0.0894699 0.0115675 0)
(-0.0931107 0.0117525 0)
(-0.0968221 0.0119173 0)
(-0.100598 0.0120601 0)
(-0.104432 0.0121789 0)
(-0.108315 0.0122718 0)
(-0.112241 0.012337 0)
(-0.116199 0.0123725 0)
(-0.12018 0.0123766 0)
(-0.124173 0.0123475 0)
(-0.128166 0.0122834 0)
(-0.132147 0.0121828 0)
(-0.136102 0.0120441 0)
(-0.140018 0.0118661 0)
(-0.143878 0.0116479 0)
(-0.147668 0.0113887 0)
(-0.151372 0.0110873 0)
(-0.15497 0.0107417 0)
(-0.158443 0.0103497 0)
(-0.161771 0.00990978 0)
(-0.164932 0.00942207 0)
(-0.167903 0.00888641 0)
(-0.170664 0.00829986 0)
(-0.173192 0.00765472 0)
(-0.17546 0.00693855 0)
(-0.17744 0.00613447 0)
(-0.179097 0.00522029 0)
(-0.180395 0.00416716 0)
(-0.181291 0.00294117 0)
(-0.18172 0.0015121 0)
(-0.181597 -0.000132247 0)
(-0.180864 -0.00197446 0)
(-0.00010473 0.000974304 0)
(-0.000378494 0.00113216 0)
(-0.000657066 0.00114731 0)
(-0.000939901 0.00115786 0)
(-0.00122542 0.00117165 0)
(-0.00151481 0.00118907 0)
(-0.00180897 0.00121017 0)
(-0.00210883 0.00123504 0)
(-0.00241534 0.00126371 0)
(-0.00272945 0.00129628 0)
(-0.00305214 0.00133282 0)
(-0.00338441 0.00137342 0)
(-0.0037273 0.00141818 0)
(-0.00408184 0.0014672 0)
(-0.00444913 0.00152059 0)
(-0.00483027 0.00157849 0)
(-0.0052264 0.00164102 0)
(-0.00563872 0.00170833 0)
(-0.00606843 0.00178056 0)
(-0.0065168 0.00185787 0)
(-0.00698514 0.00194043 0)
(-0.00747478 0.00202841 0)
(-0.00798714 0.00212199 0)
(-0.00852365 0.00222136 0)
(-0.00908582 0.00232671 0)
(-0.0096752 0.00243824 0)
(-0.0102934 0.00255616 0)
(-0.0109421 0.00268066 0)
(-0.011623 0.00281195 0)
(-0.0123379 0.00295023 0)
(-0.0130886 0.00309572 0)
(-0.0138771 0.0032486 0)
(-0.0147053 0.00340909 0)
(-0.0155753 0.00357736 0)
(-0.016489 0.00375361 0)
(-0.0174488 0.003938 0)
(-0.0184566 0.0041307 0)
(-0.0195149 0.00433184 0)
(-0.0206259 0.00454156 0)
(-0.021792 0.00475994 0)
(-0.0230155 0.00498706 0)
(-0.024299 0.00522298 0)
(-0.0256447 0.00546768 0)
(-0.0270554 0.00572115 0)
(-0.0285333 0.0059833 0)
(-0.0300812 0.006254 0)
(-0.0317013 0.00653307 0)
(-0.0333963 0.00682026 0)
(-0.0351686 0.00711526 0)
(-0.0370205 0.00741767 0)
(-0.0389543 0.00772704 0)
(-0.0409724 0.00804281 0)
(-0.0430768 0.00836435 0)
(-0.0452696 0.00869092 0)
(-0.0475524 0.00902169 0)
(-0.0499271 0.00935571 0)
(-0.052395 0.00969196 0)
(-0.0549572 0.0100293 0)
(-0.0576148 0.0103664 0)
(-0.0603683 0.0107019 0)
(-0.063218 0.0110344 0)
(-0.0661636 0.0113622 0)
(-0.0692048 0.0116836 0)
(-0.0723405 0.0119968 0)
(-0.0755691 0.0123 0)
(-0.0788888 0.0125912 0)
(-0.0822968 0.0128682 0)
(-0.08579 0.013129 0)
(-0.0893645 0.0133714 0)
(-0.0930159 0.0135931 0)
(-0.0967388 0.0137918 0)
(-0.100527 0.0139653 0)
(-0.104375 0.0141113 0)
(-0.108273 0.0142275 0)
(-0.112215 0.0143115 0)
(-0.11619 0.0143611 0)
(-0.120189 0.014374 0)
(-0.124201 0.014348 0)
(-0.128214 0.0142811 0)
(-0.132216 0.0141711 0)
(-0.136192 0.0140162 0)
(-0.14013 0.0138147 0)
(-0.144014 0.0135654 0)
(-0.147827 0.0132669 0)
(-0.151554 0.0129175 0)
(-0.155176 0.0125145 0)
(-0.158673 0.0120549 0)
(-0.162026 0.0115369 0)
(-0.165212 0.0109603 0)
(-0.16821 0.0103252 0)
(-0.171001 0.00962849 0)
(-0.173564 0.00886165 0)
(-0.175875 0.00801096 0)
(-0.177908 0.0070576 0)
(-0.179631 0.00597663 0)
(-0.181012 0.00473534 0)
(-0.182006 0.00329474 0)
(-0.182546 0.00161925 0)
(-0.182534 -0.000306101 0)
(-0.181903 -0.00246229 0)
(-0.000104062 0.00109363 0)
(-0.000375977 0.00127053 0)
(-0.000652647 0.00128752 0)
(-0.000933564 0.00129938 0)
(-0.00121715 0.00131487 0)
(-0.00150459 0.00133444 0)
(-0.00179677 0.00135816 0)
(-0.00209462 0.0013861 0)
(-0.00239908 0.00141833 0)
(-0.0027111 0.00145494 0)
(-0.00303166 0.00149601 0)
(-0.00336175 0.00154165 0)
(-0.0037024 0.00159196 0)
(-0.00405465 0.00164706 0)
(-0.00441958 0.00170709 0)
(-0.00479829 0.00177219 0)
(-0.00519193 0.00184249 0)
(-0.00560167 0.00191818 0)
(-0.00602872 0.0019994 0)
(-0.00647435 0.00208635 0)
(-0.00693985 0.00217921 0)
(-0.00742656 0.00227817 0)
(-0.00793589 0.00238345 0)
(-0.00846927 0.00249525 0)
(-0.00902821 0.0026138 0)
(-0.00961425 0.00273932 0)
(-0.010229 0.00287204 0)
(-0.0108741 0.00301219 0)
(-0.0115514 0.00316001 0)
(-0.0122625 0.00331574 0)
(-0.0130094 0.0034796 0)
(-0.0137939 0.00365183 0)
(-0.014618 0.00383267 0)
(-0.0154837 0.00402232 0)
(-0.0163932 0.004221 0)
(-0.0173485 0.00442891 0)
(-0.0183519 0.00464624 0)
(-0.0194056 0.00487316 0)
(-0.020512 0.00510982 0)
(-0.0216735 0.00535634 0)
(-0.0228923 0.00561281 0)
(-0.024171 0.0058793 0)
(-0.0255121 0.00615582 0)
(-0.0269181 0.00644236 0)
(-0.0283914 0.00673883 0)
(-0.0299347 0.00704512 0)
(-0.0315504 0.00736103 0)
(-0.0332411 0.00768629 0)
(-0.0350093 0.00802058 0)
(-0.0368573 0.00836347 0)
(-0.0387876 0.00871446 0)
(-0.0408023 0.00907295 0)
(-0.0429038 0.00943824 0)
(-0.045094 0.00980954 0)
(-0.0473748 0.0101859 0)
(-0.0497479 0.0105663 0)
(-0.0522148 0.0109496 0)
(-0.0547767 0.0113345 0)
(-0.0574347 0.0117196 0)
(-0.0601893 0.0121033 0)
(-0.0630409 0.012484 0)
(-0.0659894 0.0128599 0)
(-0.0690343 0.013229 0)
(-0.0721747 0.0135893 0)
(-0.0754092 0.0139388 0)
(-0.0787358 0.014275 0)
(-0.0821518 0.0145956 0)
(-0.0856543 0.0148983 0)
(-0.0892392 0.0151805 0)
(-0.0929023 0.0154395 0)
(-0.0966382 0.0156729 0)
(-0.100441 0.0158778 0)
(-0.104304 0.0160516 0)
(-0.108219 0.0161915 0)
(-0.112179 0.016295 0)
(-0.116174 0.0163591 0)
(-0.120194 0.0163814 0)
(-0.124228 0.0163592 0)
(-0.128264 0.0162899 0)
(-0.13229 0.016171 0)
(-0.136292 0.0160003 0)
(-0.140255 0.0157757 0)
(-0.144165 0.0154953 0)
(-0.148006 0.0151577 0)
(-0.15176 0.0147604 0)
(-0.15541 0.0143 0)
(-0.158936 0.0137731 0)
(-0.162317 0.0131773 0)
(-0.165533 0.0125128 0)
(-0.168565 0.0117797 0)
(-0.171393 0.010975 0)
(-0.173998 0.0100898 0)
(-0.176359 0.00910924 0)
(-0.178452 0.00801282 0)
(-0.180252 0.00677288 0)
(-0.181726 0.00535214 0)
(-0.182834 0.00370475 0)
(-0.183501 0.00178717 0)
(-0.18362 -0.00042083 0)
(-0.183108 -0.00289985 0)
(-0.000103307 0.00121213 0)
(-0.000373157 0.00140789 0)
(-0.000647712 0.00142672 0)
(-0.000926489 0.00143987 0)
(-0.00120792 0.00145707 0)
(-0.00149318 0.00147878 0)
(-0.00178315 0.00150509 0)
(-0.00207875 0.00153609 0)
(-0.00238093 0.00157186 0)
(-0.00269062 0.00161248 0)
(-0.00300879 0.00165805 0)
(-0.00333645 0.0017087 0)
(-0.0036746 0.00176453 0)
(-0.00402428 0.00182569 0)
(-0.00438658 0.00189232 0)
(-0.00476258 0.00196458 0)
(-0.00515342 0.00204262 0)
(-0.00556028 0.00212664 0)
(-0.00598436 0.00221681 0)
(-0.00642692 0.00231335 0)
(-0.00688924 0.00241646 0)
(-0.00737268 0.00252635 0)
(-0.00787862 0.00264327 0)
(-0.00840849 0.00276745 0)
(-0.00896381 0.00289914 0)
(-0.0095461 0.00303859 0)
(-0.010157 0.00318606 0)
(-0.0107981 0.00334181 0)
(-0.0114713 0.0035061 0)
(-0.0121781 0.00367921 0)
(-0.0129206 0.00386139 0)
(-0.0137006 0.00405292 0)
(-0.0145201 0.00425404 0)
(-0.0153811 0.00446501 0)
(-0.0162858 0.00468608 0)
(-0.0172362 0.00491746 0)
(-0.0182345 0.00515939 0)
(-0.0192832 0.00541204 0)
(-0.0203844 0.00567562 0)
(-0.0215405 0.00595024 0)
(-0.0227541 0.00623605 0)
(-0.0240275 0.00653311 0)
(-0.0253632 0.00684145 0)
(-0.0267639 0.00716108 0)
(-0.028232 0.00749192 0)
(-0.0297701 0.00783384 0)
(-0.0313808 0.00818664 0)
(-0.0330666 0.00855006 0)
(-0.03483 0.00892374 0)
(-0.0366735 0.00930723 0)
(-0.0385996 0.0097 0)
(-0.0406105 0.0101014 0)
(-0.0427085 0.0105106 0)
(-0.0448957 0.0109269 0)
(-0.047174 0.0113491 0)
(-0.0495452 0.0117762 0)
(-0.0520108 0.0122068 0)
(-0.0545721 0.0126397 0)
(-0.0572303 0.0130731 0)
(-0.0599859 0.0135054 0)
(-0.0628394 0.0139348 0)
(-0.0657909 0.0143592 0)
(-0.0688397 0.0147766 0)
(-0.0719852 0.0151846 0)
(-0.0752259 0.0155808 0)
(-0.0785599 0.0159627 0)
(-0.0819847 0.0163276 0)
(-0.0854972 0.0166728 0)
(-0.0890936 0.0169954 0)
(-0.0927694 0.0172925 0)
(-0.0965195 0.017561 0)
(-0.100338 0.017798 0)
(-0.104218 0.0180003 0)
(-0.108152 0.0181648 0)
(-0.112132 0.0182884 0)
(-0.116149 0.0183679 0)
(-0.120191 0.0184002 0)
(-0.12425 0.0183823 0)
(-0.128312 0.0183113 0)
(-0.132365 0.0181841 0)
(-0.136395 0.017998 0)
(-0.140388 0.0177506 0)
(-0.144328 0.0174397 0)
(-0.1482 0.0170632 0)
(-0.151986 0.0166182 0)
(-0.155669 0.0161008 0)
(-0.159228 0.0155069 0)
(-0.162644 0.014834 0)
(-0.165896 0.0140826 0)
(-0.168967 0.0132531 0)
(-0.171837 0.0123429 0)
(-0.17449 0.0113427 0)
(-0.176908 0.0102371 0)
(-0.17907 0.00900423 0)
(-0.180954 0.00761398 0)
(-0.182535 0.0060238 0)
(-0.183771 0.00417899 0)
(-0.184586 0.00202465 0)
(-0.184857 -0.000467795 0)
(-0.184485 -0.00327828 0)
(-0.000102469 0.00132969 0)
(-0.000370039 0.00154415 0)
(-0.000642265 0.00156479 0)
(-0.000918681 0.00157924 0)
(-0.00119773 0.00159812 0)
(-0.00148058 0.00162196 0)
(-0.00176812 0.00165085 0)
(-0.00206124 0.00168489 0)
(-0.00236089 0.00172417 0)
(-0.00266801 0.00176878 0)
(-0.00298355 0.00181883 0)
(-0.00330852 0.00187445 0)
(-0.00364391 0.00193578 0)
(-0.00399076 0.00200296 0)
(-0.00435014 0.00207615 0)
(-0.00472315 0.00215552 0)
(-0.0051109 0.00224126 0)
(-0.00551458 0.00233356 0)
(-0.00593537 0.00243264 0)