/*--------------------------------*- C++ -*----------------------------------*\
| =========                 |                                                 |
| \\      /  F ield         | OpenFOAM: The Open Source CFD Toolbox           |
|  \\    /   O peration     | Version:  2.4.0                                 |
|   \\  /    A nd           | Web:      www.OpenFOAM.org                      |
|    \\/     M anipulation  |                                                 |
\*---------------------------------------------------------------------------*/
FoamFile
{
    version     2.0;
    format      ascii;
    class       volScalarField;
    location    "0.113";
    object      alpha.water;
}
// * * * * * * * * * * * * * * * * * * * * * * * * * * * * * * * * * * * * * //

dimensions      [0 0 0 0 0 0 0];

internalField   nonuniform List<scalar> 
10000
(
1.12628e-74
6.84541e-72
2.47308e-70
2.82263e-70
6.58085e-67
7.93668e-64
5.7357e-61
2.77719e-58
9.69485e-56
2.57311e-53
5.42548e-51
9.47468e-49
1.42411e-46
1.88433e-44
2.173e-42
2.09461e-40
1.6069e-38
1.00065e-36
5.18616e-35
2.30883e-33
8.01891e-32
2.07151e-30
3.93066e-29
5.47413e-28
5.61928e-27
4.22621e-26
2.30014e-25
9.07253e-25
2.80655e-24
5.01531e-24
5.54163e-24
3.9402e-24
1.81321e-24
5.31929e-25
9.62259e-26
1.02641e-26
6.0485e-28
1.75227e-29
2.36194e-31
2.55583e-33
2.7747e-35
2.94977e-37
2.42172e-39
1.40872e-41
5.90782e-44
1.96671e-46
5.92689e-49
1.49702e-51
3.22545e-54
1.55639e-52
2.50947e-70
2.42393e-67
1.3421e-64
2.37513e-61
1.9443e-58
9.08568e-56
2.74493e-53
5.81486e-51
9.14333e-49
1.11328e-46
1.08529e-44
8.71176e-43
5.9012e-41
3.44335e-39
1.75422e-37
7.82488e-36
3.03469e-34
1.01577e-32
3.00595e-31
8.10323e-30
1.83692e-28
3.3183e-27
4.67386e-26
5.10043e-25
4.30182e-24
2.77612e-23
1.35292e-22
5.0083e-22
1.51669e-21
2.71665e-21
3.08924e-21
2.32744e-21
1.17133e-21
3.89595e-22
8.34607e-23
1.10851e-23
8.69739e-25
3.71136e-26
8.65459e-28
1.97239e-29
4.63846e-31
1.11496e-32
3.00774e-34
8.83321e-36
2.30564e-37
4.40261e-39
4.98241e-41
2.58966e-43
1.72572e-44
8.386e-43
3.8728e-66
1.88691e-62
4.37857e-59
4.07209e-56
1.98331e-53
5.89038e-51
1.17532e-48
1.68449e-46
1.82077e-44
1.54054e-42
1.05104e-40
5.92801e-39
2.82485e-37
1.15926e-35
4.16039e-34
1.31805e-32
3.69472e-31
9.14829e-30
2.01682e-28
4.05391e-27
7.05028e-26
1.00897e-24
1.16014e-23
1.06719e-22
7.80314e-22
4.48257e-21
2.00288e-20
7.06316e-20
2.12334e-19
3.82533e-19
4.47395e-19
3.55978e-19
1.94784e-19
7.27283e-20
1.81581e-20
2.93179e-21
2.94525e-22
1.73356e-23
6.16363e-25
2.36009e-26
1.01772e-27
5.28378e-29
3.06323e-30
1.65302e-31
7.09439e-33
2.05308e-34
3.20736e-36
1.89149e-38
7.04965e-39
2.28505e-37
4.48894e-62
2.66123e-58
3.98297e-55
2.5754e-52
9.15913e-50
2.05003e-47
3.14889e-45
3.52593e-43
3.00931e-41
2.02614e-39
1.10638e-37
5.01524e-36
1.92622e-34
6.38308e-33
1.85311e-31
4.76424e-30
1.09002e-28
2.21973e-27
4.03909e-26
6.69242e-25
9.70302e-24
1.17312e-22
1.15944e-21
9.34179e-21
6.08874e-20
3.17477e-19
1.31696e-18
4.4574e-18
1.34085e-17
2.43046e-17
2.91624e-17
2.44088e-17
1.44391e-17
6.00552e-18
1.72802e-18
3.33524e-19
4.18326e-20
3.25837e-21
1.6373e-22
9.39642e-24
6.47211e-25
5.32931e-26
4.47688e-27
3.25883e-28
1.86909e-29
7.22886e-31
1.43864e-32
8.83671e-35
7.6251e-35
1.9151e-33
1.02115e-58
4.61769e-55
5.29864e-52
2.71003e-49
7.79761e-47
1.43566e-44
1.83642e-42
1.72828e-40
1.24841e-38
7.15209e-37
3.33676e-35
1.29636e-33
4.2769e-32
1.21929e-30
3.04871e-29
6.75937e-28
1.3364e-26
2.35834e-25
3.72365e-24
5.3477e-23
6.73667e-22
7.10914e-21
6.20487e-20
4.46527e-19
2.63068e-18
1.25747e-17
4.87648e-17
1.58982e-16
4.80236e-16
8.7355e-16
1.07107e-15
9.38848e-16
5.97003e-16
2.74672e-16
9.01515e-17
2.05228e-17
3.15511e-18
3.16539e-19
2.14069e-20
1.70476e-21
1.64431e-22
1.80724e-23
1.93424e-24
1.7501e-25
1.22584e-26
5.95216e-28
1.50189e-29
1.02307e-31
1.15415e-31
2.43678e-30
6.02702e-56
2.24758e-52
2.1606e-49
9.38136e-47
2.31691e-44
3.69433e-42
4.12188e-40
3.40273e-38
2.16567e-36
1.09697e-34
4.53701e-33
1.56568e-31
4.59415e-30
1.16566e-28
2.59449e-27
5.12053e-26
9.0134e-25
1.41662e-23
1.9911e-22
2.54062e-21
2.84155e-20
2.6659e-19
2.08247e-18
1.35104e-17
7.24105e-17
3.18744e-16
1.1591e-15
3.6468e-15
1.10579e-14
2.00789e-14
2.50281e-14
2.28586e-14
1.5539e-14
7.8502e-15
2.91053e-15
7.7251e-16
1.43357e-16
1.80858e-17
1.5818e-18
1.63245e-19
2.01991e-20
2.73486e-21
3.50661e-22
3.81454e-23
3.19132e-24
1.86838e-25
5.91538e-27
4.92302e-29
4.91526e-29
9.17062e-28
1.47281e-53
4.80855e-50
4.06824e-47
1.56326e-44
3.43474e-42
4.89529e-40
4.90152e-38
3.64319e-36
2.09316e-34
9.59023e-33
3.59293e-31
1.12409e-29
2.99128e-28
6.8814e-27
1.38774e-25
2.47914e-24
3.94594e-23
5.60141e-22
7.09755e-21
8.14178e-20
8.16998e-19
6.87571e-18
4.83516e-17
2.8383e-16
1.3869e-15
5.62987e-15
1.92132e-14
5.84043e-14
1.77013e-13
3.18453e-13
4.0105e-13
3.79653e-13
2.74265e-13
1.50998e-13
6.26746e-14
1.91983e-14
4.24124e-15
6.58448e-16
7.22383e-17
9.16523e-18
1.37709e-18
2.20844e-19
3.30858e-20
4.19294e-21
4.13622e-22
2.86702e-23
1.12773e-24
1.27009e-26
8.4871e-27
1.44756e-25
2.01338e-51
5.94314e-48
4.5505e-45
1.58555e-42
3.16615e-40
4.11041e-38
3.75661e-36
2.55299e-34
1.34291e-32
5.63819e-31
1.93649e-29
5.55395e-28
1.35409e-26
2.85104e-25
5.25468e-24
8.56521e-23
1.24178e-21
1.60274e-20
1.84169e-19
1.90881e-18
1.72552e-17
1.30708e-16
8.28844e-16
4.40412e-15
1.96148e-14
7.33982e-14
2.35089e-13
6.91048e-13
2.07547e-12
3.66543e-12
4.63155e-12
4.52096e-12
3.44911e-12
2.05445e-12
9.46585e-13
3.31357e-13
8.6117e-14
1.62113e-14
2.20444e-15
3.29304e-16
5.78863e-17
1.06907e-17
1.84093e-18
2.68272e-19
3.06763e-20
2.51962e-21
1.2207e-22
1.97993e-24
7.37604e-25
1.17897e-23
1.87561e-49
5.08741e-46
3.57742e-43
1.14517e-40
2.1025e-38
2.5119e-36
2.11448e-34
1.3245e-32
6.42446e-31
2.48744e-29
7.87609e-28
2.08082e-26
4.66722e-25
9.02471e-24
1.5244e-22
2.27233e-21
3.00637e-20
3.5334e-19
3.68612e-18
3.4528e-17
2.81376e-16
1.91904e-15
1.09658e-14
5.26715e-14
2.13467e-13
7.35465e-13
2.21161e-12
6.29152e-12
1.84724e-11
3.17005e-11
3.98921e-11
3.99629e-11
3.19976e-11
2.04782e-11
1.03886e-11
4.11696e-12
1.247e-12
2.81616e-13
4.72695e-14
8.04031e-15
1.61304e-15
3.36941e-16
6.56644e-17
1.09596e-17
1.4419e-18
1.38741e-19
8.20017e-21
1.91018e-22
3.71006e-23
5.64739e-22
1.36715e-47
3.42657e-44
2.22492e-41
6.57527e-39
1.11462e-36
1.22984e-34
9.5636e-33
5.53483e-31
2.48019e-29
8.86787e-28
2.59083e-26
6.30746e-25
1.30131e-23
2.30923e-22
3.57056e-21
4.85962e-20
5.85662e-19
6.2559e-18
5.91451e-17
4.99268e-16
3.66245e-15
2.24581e-14
1.15437e-13
5.00167e-13
1.84065e-12
5.83117e-12
1.648e-11
4.53573e-11
1.27865e-10
2.11019e-10
2.625e-10
2.68949e-10
2.24611e-10
1.53388e-10
8.50147e-11
3.78231e-11
1.32398e-11
3.55834e-12
7.31771e-13
1.388e-13
3.13149e-14
7.31706e-15
1.59818e-15
3.02648e-16
4.57867e-17
5.09351e-18
3.70225e-19
1.17589e-20
1.19348e-21
1.73889e-20
8.61517e-46
1.99164e-42
1.19254e-39
3.24932e-37
5.07814e-35
5.16598e-33
3.70401e-31
1.97642e-29
8.16329e-28
2.68867e-26
7.22825e-25
1.61671e-23
3.0577e-22
4.96093e-21
6.99266e-20
8.65144e-19
9.45488e-18
9.1391e-17
7.79804e-16
5.90742e-15
3.88973e-14
2.13967e-13
9.87203e-13
3.85036e-12
1.28407e-11
3.73672e-11
9.93593e-11
2.63564e-10
6.99325e-10
1.0991e-09
1.34261e-09
1.40513e-09
1.21693e-09
8.79764e-10
5.28997e-10
2.62405e-10
1.05302e-10
3.34646e-11
8.35328e-12
1.74964e-12
4.39571e-13
1.14066e-13
2.77509e-14
5.91318e-15
1.03017e-15
1.32684e-16
1.15245e-17
4.88594e-19
2.66326e-20
3.65832e-19
5.00518e-44
1.0614e-40
5.83121e-38
1.45754e-35
2.08936e-33
1.94949e-31
1.28201e-29
6.2736e-28
2.37576e-26
7.17002e-25
1.76442e-23
3.60635e-22
6.21857e-21
9.17166e-20
1.1714e-18
1.30915e-17
1.28925e-16
1.12098e-15
8.5858e-15
5.80718e-14
3.41926e-13
1.68278e-12
6.95464e-12
2.43765e-11
7.35712e-11
1.96552e-10
4.91492e-10
1.2452e-09
3.05105e-09
4.53004e-09
5.40755e-09
5.79231e-09
5.17946e-09
3.92442e-09
2.53908e-09
1.39771e-09
6.39329e-10
2.38675e-10
7.17058e-11
1.7236e-11
4.6357e-12
1.32224e-12
3.56621e-13
8.50695e-14
1.69129e-14
2.5531e-15
2.59551e-16
1.45459e-17
4.94578e-19
5.46479e-18
2.72241e-42
5.27307e-39
2.64701e-36
6.04254e-34
7.90635e-32
6.73026e-30
4.03624e-28
1.80061e-26
6.21359e-25
1.70778e-23
3.82346e-22
7.09881e-21
1.10937e-19
1.47838e-18
1.70004e-17
1.7048e-16
1.50252e-15
1.16734e-14
7.97607e-14
4.78906e-13
2.51068e-12
1.10248e-11
4.07366e-11
1.28176e-10
3.49919e-10
8.57816e-10
2.00986e-09
4.79338e-09
1.06665e-08
1.49081e-08
1.73555e-08
1.91423e-08
1.76382e-08
1.38356e-08
9.49378e-09
5.81442e-09
3.00513e-09
1.31498e-09
4.711e-10
1.37338e-10
3.81595e-11
1.18038e-11
3.50426e-12
9.31032e-13
2.09509e-13
3.70987e-14
4.46218e-15
3.17058e-16
1.00523e-17
5.96463e-17
1.34304e-40
2.37241e-37
1.08678e-34
2.26261e-32
2.69758e-30
2.09031e-28
1.14003e-26
4.62083e-25
1.44752e-23
3.60826e-22
7.31838e-21
1.22905e-19
1.73351e-18
2.07861e-17
2.14245e-16
1.91768e-15
1.50326e-14
1.03665e-13
6.28089e-13
3.33271e-12
1.54877e-11
6.05401e-11
1.99711e-10
5.63776e-10
1.39206e-09
3.12694e-09
6.811e-09
1.50197e-08
2.99901e-08
3.95776e-08
4.50634e-08
5.13689e-08
4.86808e-08
3.96975e-08
2.77723e-08
1.9273e-08
1.10401e-08
5.67704e-09
2.41525e-09
8.5115e-10
2.47728e-10
8.25629e-11
2.68733e-11
7.9199e-12
2.00526e-12
4.09876e-13
6.02809e-14
5.12686e-15
1.98496e-16
4.85818e-16
5.75547e-39
9.26287e-36
3.87081e-33
7.35002e-31
7.98662e-29
5.63478e-27
2.79485e-25
1.02898e-23
2.92423e-22
6.60441e-21
1.21203e-19
1.83876e-18
2.33779e-17
2.51925e-16
2.32423e-15
1.85316e-14
1.28788e-13
7.84787e-13
4.19705e-12
1.96308e-11
8.05157e-11
2.79832e-10
8.23776e-10
2.0864e-09
4.65785e-09
9.55462e-09
1.91293e-08
3.83453e-08
6.84495e-08
8.6272e-08
9.65207e-08
1.08816e-07
1.05035e-07
1.00333e-07
6.32919e-08
5.13934e-08
3.1736e-08
1.9327e-08
9.78973e-09
4.12211e-09
1.41116e-09
4.70748e-10
1.65221e-10
5.36618e-11
1.51965e-11
3.5481e-12
6.26237e-13
6.74963e-14
3.41766e-15
2.99376e-15
2.08205e-37
3.04628e-34
1.15946e-31
2.00615e-29
1.98597e-27
1.27571e-25
5.75564e-24
1.92535e-22
4.96526e-21
1.01631e-19
1.68806e-18
2.31444e-17
2.65448e-16
2.57396e-15
2.12913e-14
1.5148e-13
9.34352e-13
5.0305e-12
2.37198e-11
9.78054e-11
3.53028e-10
1.09163e-09
2.87143e-09
6.53265e-09
1.31794e-08
2.45604e-08
4.46632e-08
8.05836e-08
1.29936e-07
1.58702e-07
1.30831e-07
1.22902e-07
1.19407e-07
2.59287e-07
1.14312e-07
9.97186e-08
6.97326e-08
5.16955e-08
3.11912e-08
1.56834e-08
6.5456e-09
2.24351e-09
8.39536e-10
2.9751e-10
9.35433e-11
2.47355e-11
5.11531e-12
7.16146e-13
4.55477e-14
1.44893e-14
6.27153e-36
8.31939e-33
2.87784e-30
4.53046e-28
4.08232e-26
2.38671e-24
9.79536e-23
2.97799e-21
6.97163e-20
1.29365e-18
1.94519e-17
2.41089e-16
2.49572e-15
2.18007e-14
1.6202e-13
1.03174e-12
5.66825e-12
2.70472e-11
1.12666e-10
4.10158e-10
1.30462e-09
3.59877e-09
8.48875e-09
1.74063e-08
3.177e-08
5.35913e-08
8.79971e-08
1.43452e-07
2.11749e-07
1.92609e-07
1.46704e-06
4.22291e-06
4.09471e-06
6.623e-07
2.3325e-07
2.37853e-07
1.03936e-07
1.0723e-07
7.64718e-08
4.61515e-08
2.34748e-08
9.44006e-09
3.61382e-09
1.38042e-09
4.78726e-10
1.42216e-10
3.3952e-11
5.84834e-12
5.43156e-13
6.21021e-14
1.54419e-34
1.85381e-31
5.81996e-29
8.32958e-27
6.83062e-25
3.63584e-23
1.35837e-21
3.75696e-20
7.99291e-19
1.34604e-17
1.83408e-16
2.05676e-15
1.92358e-14
1.51585e-13
1.01452e-12
5.80338e-12
2.85345e-11
1.21288e-10
4.48182e-10
1.44518e-09
4.069e-09
1.00388e-08
2.13608e-08
3.9727e-08
6.5896e-08
1.00701e-07
1.49612e-07
2.19074e-07
2.28243e-07
3.47666e-06
1.09272e-05
1.10536e-05
1.10545e-05
8.40709e-06
1.0605e-06
1.59104e-07
1.62548e-07
1.71104e-07
1.41481e-07
1.02012e-07
6.34655e-08
3.24245e-08
1.34287e-08
5.52125e-09
2.08914e-09
6.89237e-10
1.8718e-10
3.83317e-11
4.90569e-12
3.1237e-13
3.0892e-33
3.35152e-30
9.5371e-28
1.23984e-25
9.24935e-24
4.48297e-22
1.52561e-20
3.84273e-19
7.44007e-18
1.13894e-16
1.40864e-15
1.43154e-14
1.21135e-13
8.62408e-13
5.2072e-12
2.68291e-11
1.18544e-10
4.51338e-10
1.48872e-09
4.27775e-09
1.07471e-08
2.37658e-08
4.59594e-08
7.80425e-08
1.17414e-07
1.58122e-07
2.03863e-07
2.16144e-07
2.81959e-06
1.10599e-05
1.10594e-05
1.10594e-05
1.10567e-05
9.88665e-06
1.57711e-06
1.69972e-07
1.82013e-07
2.18393e-07
2.00612e-07
1.6807e-07
1.25855e-07
8.05303e-08
4.01698e-08
1.83043e-08
7.64911e-09
2.80788e-09
8.61916e-10
2.05837e-10
3.33312e-11
2.57421e-12
4.99447e-32
4.8947e-29
1.26183e-26
1.48965e-24
1.0111e-22
4.46504e-21
1.38569e-19
3.18389e-18
5.62179e-17
7.84174e-16
8.82555e-15
8.14755e-14
6.25106e-13
4.02769e-12
2.19748e-11
1.02181e-10
4.07002e-10
1.39497e-09
4.13472e-09
1.06653e-08
2.41102e-08
4.80371e-08
8.50727e-08
1.32963e-07
1.82072e-07
1.71299e-07
1.99157e-07
2.19439e-07
3.24946e-06
9.667e-06
1.10443e-05
1.01422e-05
4.5389e-06
2.59929e-07
2.60365e-07
4.00089e-07
1.86914e-07
2.422e-07
2.3506e-07
2.17546e-07
1.87801e-07
1.44883e-07
9.36076e-08
4.91953e-08
2.3149e-08
9.52639e-09
3.30262e-09
9.0956e-10
1.78719e-10
1.92138e-11
6.5281e-31
5.79125e-28
1.35476e-25
1.45424e-23
8.99002e-22
3.62068e-20
1.02574e-18
2.1526e-17
3.47151e-16
4.4205e-15
4.53691e-14
3.81366e-13
2.65924e-12
1.55415e-11
7.6777e-11
3.22842e-10
1.1622e-09
3.60005e-09
9.64722e-09
2.25195e-08
4.62194e-08
8.43981e-08
1.42232e-07
2.44833e-07
5.62256e-07
2.63639e-06
2.92896e-06
7.59862e-07
2.56401e-07
2.5649e-07
2.58819e-07
2.58612e-07
2.58542e-07
2.58492e-07
2.55455e-07
2.1984e-07
2.04635e-07
2.51278e-07
2.51231e-07
2.43942e-07
2.28699e-07
2.00744e-07
1.56946e-07
9.96686e-08
5.46853e-08
2.58036e-08
1.02235e-08
3.24854e-09
7.59616e-10
1.07756e-10
6.85888e-30
5.53164e-27
1.17911e-24
1.1552e-22
6.52606e-21
2.40409e-19
6.23388e-18
1.19787e-16
1.76894e-15
2.06189e-14
1.93551e-13
1.48606e-12
9.44751e-12
5.02313e-11
2.25243e-10
8.58071e-10
2.79549e-09
7.83779e-09
1.90351e-08
4.03495e-08
7.54867e-08
1.28059e-07
1.88499e-07
5.87953e-07
6.44555e-06
8.19287e-06
7.80402e-06
3.70508e-07
2.57751e-07
2.68969e-07
2.7937e-07
2.88131e-07
2.89077e-07
2.77757e-07
2.71683e-07
2.60825e-07
4.46389e-07
2.54785e-07
2.59959e-07
2.56771e-07
2.49738e-07
2.35917e-07
2.08207e-07
1.58355e-07
1.02019e-07
5.58103e-08
2.54802e-08
9.35444e-09
2.57277e-09
4.55227e-10
5.78547e-29
4.26486e-26
8.33244e-24
7.49514e-22
3.89133e-20
1.31804e-18
3.1428e-17
5.55258e-16
7.53679e-15
8.07023e-14
6.95336e-13
4.89413e-12
2.84744e-11
1.38252e-10
5.64712e-10
1.95467e-09
5.77328e-09
1.46524e-08
3.21881e-08
6.17153e-08
1.04998e-07
1.69593e-07
2.22424e-07
5.4408e-06
8.20339e-06
8.20599e-06
6.69659e-06
2.65675e-07
2.67792e-07
3.0514e-07
3.32635e-07
3.34183e-07
3.18151e-07
2.79569e-07
2.73283e-07
2.70434e-07
2.67372e-07
2.673e-07
2.64555e-07
2.62254e-07
2.58344e-07
2.54264e-07
2.4013e-07
2.1045e-07
1.57033e-07
9.9294e-08
5.22061e-08
2.20827e-08
7.06925e-09
1.508e-09
3.91748e-28
2.65383e-25
4.78244e-23
3.97719e-21
1.91153e-19
5.99667e-18
1.32413e-16
2.16509e-15
2.71729e-14
2.68738e-13
2.136e-12
1.385e-11
7.4116e-11
3.30366e-10
1.23618e-09
3.91099e-09
1.05398e-08
2.44015e-08
4.90544e-08
8.69521e-08
1.405e-07
2.20277e-07
4.54804e-07
6.94723e-06
8.20445e-06
7.86059e-06
1.07895e-06
2.68102e-07
2.97604e-07
3.30394e-07
3.62706e-07
4.03211e-07
3.22649e-07
2.74549e-07
2.74626e-07
2.73937e-07
2.70818e-07
2.68803e-07
2.64233e-07
2.60838e-07
2.55796e-07
2.61006e-07
2.54745e-07
2.40526e-07
2.03831e-07
1.4804e-07
8.9454e-08
4.34646e-08
1.60589e-08
4.03433e-09
2.13381e-27
1.337e-24
2.23734e-22
1.7324e-20
7.76598e-19
2.27427e-17
4.68826e-16
7.15232e-15
8.36606e-14
7.70024e-13
5.68681e-12
3.42049e-11
1.69505e-10
6.98462e-10
2.41167e-09
7.02818e-09
1.74221e-08
3.70886e-08
6.8639e-08
1.12063e-07
1.64225e-07
2.24849e-07
2.40779e-07
4.16963e-06
8.19584e-06
1.69738e-06
2.86559e-07
2.90435e-07
2.99967e-07
3.08702e-07
3.3752e-07
2.79619e-07
2.81294e-07
2.76333e-07
2.77134e-07
2.77061e-07
2.70168e-07
2.67319e-07
2.5965e-07
2.53221e-07
2.39186e-07
2.89834e-07
2.52706e-07
2.49202e-07
2.32556e-07
1.90904e-07
1.31531e-07
7.29732e-08
3.08392e-08
8.95487e-09
9.26996e-27
5.4384e-24
8.54229e-22
6.21902e-20
2.62419e-18
7.23826e-17
1.40546e-15
2.01852e-14
2.2203e-13
1.91876e-12
1.328e-11
7.47075e-11
3.45597e-10
1.32709e-09
4.26432e-09
1.15561e-08
2.66542e-08
5.3028e-08
9.30211e-08
1.49055e-07
2.27712e-07
3.3373e-07
4.53007e-07
4.45346e-07
3.77391e-07
3.81526e-07
3.12121e-07
2.89197e-07
2.91263e-07
2.85943e-07
2.75688e-07
2.78863e-07
2.77384e-07
2.79366e-07
2.80588e-07
2.76631e-07
2.69388e-07
2.67721e-07
2.55626e-07
2.4348e-07
2.28012e-07
2.52875e-07
2.37929e-07
2.35897e-07
2.36636e-07
2.16348e-07
1.68733e-07
1.0633e-07
5.10048e-08
1.68635e-08
3.12431e-26
1.75161e-23
2.62949e-21
1.82854e-19
7.36401e-18
1.93677e-16
3.58188e-15
4.89349e-14
5.11236e-13
4.1886e-12
2.74276e-11
1.45656e-10
6.34645e-10
2.29055e-09
6.90467e-09
1.75202e-08
3.77417e-08
6.9761e-08
1.12252e-07
1.60221e-07
2.06776e-07
2.43662e-07
2.62758e-07
2.70282e-07
2.83458e-07
2.98914e-07
3.07707e-07
3.02677e-07
2.87411e-07
2.82529e-07
2.76142e-07
2.785e-07
2.8031e-07
2.83811e-07
2.8605e-07
2.71366e-07
2.77548e-07
2.75743e-07
2.64744e-07
2.32137e-07
2.21819e-07
2.18376e-07
2.15028e-07
2.13086e-07
2.18129e-07
1.96195e-07
1.43451e-07
1.27577e-07
7.22758e-08
2.72282e-08
7.90782e-26
4.34679e-23
6.38463e-21
4.3325e-19
1.69766e-17
4.33128e-16
7.74734e-15
1.02068e-13
1.02535e-12
8.05498e-12
5.04305e-11
2.5533e-10
1.05766e-09
3.61933e-09
1.03193e-08
2.4715e-08
5.01599e-08
8.72007e-08
1.31896e-07
1.78235e-07
2.25891e-07
2.88494e-07
3.82897e-07
4.6881e-07
4.92839e-07
6.59602e-07
6.02723e-07
3.26325e-07
2.742e-07
2.76153e-07
2.79653e-07
2.82557e-07
2.83728e-07
2.89199e-07
2.96656e-07
2.75165e-07
2.82829e-07
2.88267e-07
2.66164e-07
2.42511e-07
3.31131e-07
2.23679e-07
2.14627e-07
2.06788e-07
2.03024e-07
2.77233e-07
2.80817e-07
1.19769e-07
9.06413e-08
3.86545e-08
1.46108e-25
8.10493e-23
1.19585e-20
8.11352e-19
3.16379e-17
7.99473e-16
1.40968e-14
1.82224e-13
1.78791e-12
1.36575e-11
8.27901e-11
4.04191e-10
1.60821e-09
5.26716e-09
1.43286e-08
3.26675e-08
6.30477e-08
1.04322e-07
1.50701e-07
1.95318e-07
2.35756e-07
2.76413e-07
2.83767e-07
1.99614e-06
1.3389e-05
1.45738e-05
5.62118e-07
2.73335e-07
2.75675e-07
2.81232e-07
2.8531e-07
2.88712e-07
2.87029e-07
2.9485e-07
3.04816e-07
3.0319e-07
3.07327e-07
1.90181e-06
3.67684e-07
2.08266e-06
5.16312e-07
2.27406e-07
2.17875e-07
2.15434e-07
2.01922e-07
2.29922e-07
2.83816e-07
1.60103e-07
1.07494e-07
4.90648e-08
1.91895e-25
1.11095e-22
1.69534e-20
1.18065e-18
4.69357e-17
1.2015e-15
2.133e-14
2.75925e-13
2.69301e-12
2.03414e-11
1.21217e-10
5.78475e-10
2.23775e-09
7.09005e-09
1.85782e-08
4.06688e-08
7.52643e-08
1.19613e-07
1.66883e-07
2.10655e-07
2.48583e-07
2.55078e-07
1.17696e-06
1.33753e-05
1.62302e-05
1.62318e-05
6.44037e-06
2.73347e-07
2.80558e-07
2.91194e-07
2.88083e-07
2.91476e-07
2.88197e-07
2.98758e-07
3.18871e-07
4.05058e-06
1.81391e-05
4.22167e-05
2.73874e-05
1.08692e-05
3.5134e-07
2.40526e-07
2.27386e-07
2.21193e-07
2.32512e-07
2.38814e-07
2.34041e-07
1.44535e-07
1.12856e-07
5.61958e-08
1.73139e-25
1.09172e-22
1.78341e-20
1.31283e-18
5.46186e-17
1.45082e-15
2.65208e-14
3.50684e-13
3.47355e-12
2.64373e-11
1.57611e-10
7.47137e-10
2.85097e-09
8.8518e-09
2.25957e-08
4.79614e-08
8.5839e-08
1.3198e-07
1.78825e-07
2.20795e-07
2.63057e-07
2.68047e-07
4.1724e-06
1.62303e-05
1.62352e-05
1.62378e-05
6.54735e-06
2.73488e-07
2.92872e-07
2.96532e-07
2.96739e-07
3.04132e-07
2.96195e-07
3.07406e-07
1.11546e-06
9.22471e-06
5.32248e-05
5.32424e-05
5.32204e-05
2.72516e-05
6.09292e-07
2.78109e-07
2.6231e-07
2.5459e-07
9.84586e-07
4.6871e-07
1.673e-07
1.50916e-07
1.14023e-07
5.95428e-08
1.01849e-25
7.42311e-23
1.35566e-20
1.09205e-18
4.89704e-17
1.38576e-15
2.67238e-14
3.6954e-13
3.79618e-12
2.97208e-11
1.80766e-10
8.66936e-10
3.31897e-09
1.02547e-08
2.58515e-08
5.38378e-08
9.41011e-08
1.41039e-07
1.86642e-07
2.26323e-07
2.62082e-07
2.69084e-07
1.66284e-06
1.44765e-05
1.6231e-05
1.48041e-05
5.66924e-07
2.7473e-07
2.97268e-07
6.36538e-07
8.507e-07
2.10716e-06
3.19263e-07
4.02466e-07
2.02878e-06
4.17588e-06
5.06559e-05
5.32206e-05
5.32429e-05
3.50066e-05
1.85696e-06
4.69006e-07
5.76537e-07
6.35633e-07
9.59845e-06
4.04375e-06
1.58235e-07
1.89161e-07
1.07422e-07
5.86833e-08
3.58313e-26
3.31286e-23
7.17351e-21
6.59938e-19
3.30081e-17
1.02484e-15
2.14138e-14
3.17491e-13
3.46396e-12
2.85409e-11
1.81013e-10
8.96775e-10
3.51258e-09
1.09971e-08
2.78294e-08
5.76828e-08
9.96371e-08
1.46869e-07
1.90731e-07
2.27034e-07
2.59162e-07
2.91943e-07
3.51818e-07
4.37135e-06
8.78801e-06
3.38866e-06
2.88718e-07
2.86549e-07
2.98894e-07
2.74445e-06
1.61682e-05
2.07895e-05
3.80233e-06
7.72868e-07
8.9812e-07
9.29845e-07
1.06409e-05
5.03542e-05
3.63344e-05
2.1616e-05
1.46116e-05
3.16331e-06
3.60949e-06
1.33467e-05
3.64366e-05
4.40407e-06
9.28405e-08
1.31063e-07
9.22382e-08
5.33705e-08
6.77568e-27
9.10105e-24
2.5189e-21
2.789e-19
1.61989e-17
5.70397e-16
1.3296e-14
2.17186e-13
2.58319e-12
2.29749e-11
1.55747e-10
8.16339e-10
3.34682e-09
1.08461e-08
2.8094e-08
5.89603e-08
1.02109e-07
1.49687e-07
1.92174e-07
2.25132e-07
2.51127e-07
2.77539e-07
3.12408e-07
3.10729e-07
3.28232e-07
3.10047e-07
3.02839e-07
2.96414e-07
3.15022e-07
7.49117e-06
2.26852e-05
2.26895e-05
2.04941e-05
1.3272e-06
9.24583e-07
1.13272e-06
1.59131e-06
7.0336e-06
1.15004e-05
2.13463e-05
0.000198365
4.27519e-05
0.000128094
6.11787e-05
5.9408e-05
9.02807e-07
5.34886e-08
4.07991e-08
4.39581e-08
2.67641e-08
7.33537e-28
1.77168e-24
6.72213e-22
9.15075e-20
6.20876e-18
2.48166e-16
6.46272e-15
1.17049e-13
1.53752e-12
1.50843e-11
1.12347e-10
6.4036e-10
2.82233e-09
9.71132e-09
2.6359e-08
5.7191e-08
1.01062e-07
1.49377e-07
1.91455e-07
2.22211e-07
2.43932e-07
2.62116e-07
2.8138e-07
3.012e-07
3.1288e-07
3.00442e-07
2.99057e-07
3.00504e-07
3.19006e-07
7.16944e-06
2.26982e-05
2.26403e-05
2.25262e-05
5.76973e-06
1.02964e-06
9.0742e-06
1.49967e-05
3.72084e-05
7.28066e-05
0.000127708
0.000217458
0.000382608
0.000258257
7.82978e-07
4.02239e-07
2.95483e-08
2.07772e-08
1.71124e-08
1.56052e-08
1.52741e-08
6.2717e-29
3.06632e-25
1.62069e-22
2.73729e-20
2.18052e-18
9.92649e-17
2.89012e-15
5.77332e-14
8.28166e-13
8.81312e-12
7.09485e-11
4.3705e-10
2.08139e-09
7.72175e-09
2.25473e-08
5.19952e-08
9.58788e-08
1.45406e-07
1.88418e-07
2.18556e-07
2.37868e-07
2.519e-07
2.64594e-07
2.76304e-07
2.83707e-07
2.8408e-07
2.87997e-07
2.9272e-07
3.02274e-07
4.32069e-07
1.1501e-05
2.22135e-05
1.52182e-05
4.25801e-06
1.40304e-06
1.26911e-05
7.41645e-05
0.000119597
0.000420298
0.000752416
0.00121265
0.000526879
0.00616875
0.0300945
0.0731996
0.210004
0.380763
0.526174
0.612484
0.655284
4.29649e-30
4.56323e-26
3.44185e-23
7.30524e-21
6.87935e-19
3.5798e-17
1.16807e-15
2.58118e-14
4.06158e-13
4.70917e-12
4.11306e-11
2.74594e-10
1.41631e-09
5.66674e-09
1.77417e-08
4.36987e-08
8.55512e-08
1.36e-07
1.81881e-07
2.13709e-07
2.32504e-07
2.44538e-07
2.54276e-07
2.6279e-07
2.68714e-07
2.71446e-07
2.76189e-07
2.92801e-07
2.95811e-07
3.01912e-07
3.02186e-07
3.23227e-07
5.16452e-07
2.06786e-06
2.57841e-06
1.26085e-05
9.9836e-05
0.000333366
0.000860486
0.000994899
0.00362567
0.0816575
0.21829
0.501968
0.802516
0.948443
0.997398
0.999802
1
1
2.5464e-31
6.09875e-27
6.6291e-24
1.77604e-21
1.98165e-19
1.17981e-17
4.31311e-16
1.0536e-14
1.8177e-13
2.2967e-12
2.17694e-11
1.57436e-10
8.79388e-10
3.80768e-09
1.28752e-08
3.41361e-08
7.16508e-08
1.20918e-07
1.69248e-07
2.04973e-07
2.26183e-07
2.38531e-07
2.47215e-07
2.54359e-07
2.60191e-07
2.69807e-07
3.29608e-07
2.81031e-07
2.92142e-07
2.96465e-07
2.98881e-07
3.05772e-07
3.4323e-07
6.18215e-06
3.30441e-05
4.5792e-05
0.000318976
0.00137168
0.00128971
0.00404845
0.20514
0.499724
0.811887
0.986385
0.999837
1
1
1
1
1
1.36967e-32
7.44256e-28
1.16872e-24
3.95578e-22
5.2315e-20
3.56304e-18
1.4582e-16
3.93343e-15
7.43143e-14
1.02245e-12
1.05118e-11
8.23032e-11
4.97738e-10
2.33511e-09
8.54818e-09
2.45043e-08
5.5539e-08
1.00701e-07
1.49947e-07
1.90447e-07
2.16633e-07
2.31744e-07
2.41173e-07
2.48108e-07
2.54113e-07
2.60578e-07
2.71258e-07
2.78463e-07
2.80868e-07
3.16763e-07
2.99514e-07
3.14511e-07
3.93895e-07
8.85672e-06
0.000106984
0.000386266
0.000849058
0.00115186
0.0127197
0.302567
0.693005
0.948585
0.999446
0.999888
1
1
1
1
1
1
6.64828e-34
8.21554e-29
1.86767e-25
7.99466e-23
1.25392e-20
9.77096e-19
4.47519e-17
1.3324e-15
2.75503e-14
4.12619e-13
4.60157e-12
3.9012e-11
2.55414e-10
1.29906e-09
5.15541e-09
1.60233e-08
3.94074e-08
7.74201e-08
1.24165e-07
1.68137e-07
2.00779e-07
2.21465e-07
2.24183e-07
2.32767e-07
2.48112e-07
2.55341e-07
2.63638e-07
2.72094e-07
2.72854e-07
2.8062e-07
2.85558e-07
3.05468e-07
6.90022e-07
6.07655e-06
0.000197896
0.00130388
0.00115186
0.00364224
0.337111
0.798321
0.986322
0.999883
0.999966
0.999995
1
1
1
1
1
1
2.83835e-35
8.0517e-30
2.66036e-26
1.44344e-23
2.68884e-21
2.39925e-19
1.2303e-17
4.04429e-16
9.15389e-15
1.49297e-13
1.80732e-12
1.66034e-11
1.17706e-10
6.49398e-10
2.79802e-09
9.44986e-09
2.53033e-08
5.41731e-08
9.44279e-08
1.38132e-07
1.76093e-07
1.68589e-07
3.27228e-07
3.27786e-07
2.43774e-07
2.50401e-07
2.54508e-07
2.55318e-07
4.05848e-07
2.8059e-07
2.98035e-07
2.9576e-07
1.88877e-06
0.000110115
0.000196258
0.000546338
0.00916703
0.306407
0.798617
0.999945
0.999983
0.999993
0.999998
1
1
1
1
1
1
1
1.03941e-36
6.86883e-31
3.31682e-27
2.28834e-24
5.07354e-22
5.19156e-20
2.98384e-18
1.084e-16
2.68808e-15
4.77899e-14
6.28711e-13
6.26585e-12
4.81391e-11
2.88384e-10
1.35124e-09
4.96896e-09
1.45222e-08
3.40132e-08
6.48431e-08
1.03435e-07
1.42633e-07
1.57787e-07
1.74983e-07
1.99005e-07
2.33949e-07
2.36201e-07
2.36454e-07
2.38394e-07
2.50279e-07
2.75415e-07
2.8642e-07
2.86583e-07
1.1625e-05
0.000234159
0.000219652
0.00156565
0.196898
0.703008
0.991711
0.999983
0.999992
0.999999
1
1
1
1
1
1
1
1
3.19215e-38
4.99501e-32
3.54727e-28
3.12357e-25
8.26395e-23
9.71607e-21
6.26917e-19
2.52081e-17
6.85849e-16
1.33111e-14
1.9061e-13
2.06417e-12
1.72154e-11
1.1217e-10
5.72675e-10
2.2978e-09
7.3464e-09
1.88771e-08
3.95284e-08
6.9188e-08
1.04164e-07
1.30323e-07
1.57107e-07
1.91596e-07
1.96251e-07
1.88329e-07
3.48695e-07
3.59922e-07
2.5769e-07
2.84268e-07
2.92655e-07
3.29177e-07
0.000163363
0.000117466
0.00126914
0.0760012
0.508301
0.948823
0.999917
0.999996
0.999999
1
1
1
1
1
1
1
1
1
8.02275e-40
3.01945e-33
3.17415e-29
3.58169e-26
1.13405e-23
1.53551e-21
1.11456e-19
4.97006e-18
1.48659e-16
3.1561e-15
4.92971e-14
5.81407e-13
5.27826e-12
3.75023e-11
2.09158e-10
9.18075e-10
3.21932e-09
9.09897e-09
2.0995e-08
4.04947e-08
6.69794e-08
9.40203e-08
1.2214e-07
1.54596e-07
1.61797e-07
1.51413e-07
3.6088e-07
3.62311e-07
2.42315e-07
3.15042e-07
3.26545e-07
4.23994e-07
8.10914e-08
-6.12649e-08
0.00115233
0.244348
0.820566
0.999656
0.999983
0.999999
1
1
1
1
1
1
1
1
1
1
1.59783e-41
1.46662e-34
2.29684e-30
3.33525e-27
1.26786e-24
1.98228e-22
1.62263e-20
8.04398e-19
2.65187e-17
6.17534e-16
1.05517e-14
1.35973e-13
1.34906e-12
1.0492e-11
6.41571e-11
3.09192e-10
1.1933e-09
3.72124e-09
9.49072e-09
2.02414e-08
3.69509e-08
5.7896e-08
8.24718e-08
1.10629e-07
1.26748e-07
1.42627e-07
1.63868e-07
1.91841e-07
1.9726e-07
1.55488e-07
3.89575e-07
2.48096e-06
3.61678e-08
-1.06613e-05
0.010735
0.530002
0.993407
0.999908
0.999996
1
1
1
1
1
1
1
1
1
1
1
2.40645e-43
5.44134e-36
1.27732e-31
2.39766e-28
1.09825e-25
1.98896e-23
1.84154e-21
1.018e-19
3.71123e-18
9.51369e-17
1.78551e-15
2.52575e-14
2.75425e-13
2.35785e-12
1.58946e-11
8.4561e-11
3.6105e-10
1.24785e-09
3.53185e-09
8.36106e-09
1.69162e-08
2.95417e-08
4.64053e-08
6.71907e-08
8.58437e-08
1.03357e-07
1.25794e-07
1.43304e-07
1.49721e-07
1.37223e-07
2.05015e-07
1.84505e-07
4.55022e-08
9.18835e-15
0.0829943
0.83479
1
1
1
1
1
1
1
1
1
1
1
1
1
1
2.54313e-45
1.41508e-37
5.00909e-33
1.22185e-29
6.7748e-27
1.42703e-24
1.50037e-22
9.28645e-21
3.76083e-19
1.06684e-17
2.21254e-16
3.46042e-15
4.18263e-14
3.9758e-13
2.98055e-12
1.76581e-11
8.41056e-11
3.24537e-10
1.02596e-09
2.71141e-09
6.11246e-09
1.19176e-08
2.07281e-08
3.27769e-08
4.65453e-08
6.09107e-08
7.63689e-08
9.04122e-08
9.98407e-08
1.04145e-07
8.97284e-08
8.40524e-08
3.44212e-08
7.07067e-10
0.249932
0.971675
1
1
1
1
1
1
1
1
1
1
1
1
1
1
1.62515e-47
2.16059e-39
1.15336e-34
3.68857e-31
2.49709e-28
6.16443e-26
7.41221e-24
5.17342e-22
2.34592e-20
7.43251e-19
1.72223e-17
3.01734e-16
4.10406e-15
4.40128e-14
3.72989e-13
2.50132e-12
1.3499e-11
5.89804e-11
2.10873e-10
6.28969e-10
1.59507e-09
3.49398e-09
6.77204e-09
1.18017e-08
1.85387e-08
2.65722e-08
3.54354e-08
4.39718e-08
5.04074e-08
5.28512e-08
4.69847e-08
3.5725e-08
5.34462e-09
4.20425e-16
0.442618
1
1
1
1
1
1
1
1
1
1
1
1
1
1
1
5.06455e-50
1.59475e-41
1.87084e-36
1.04663e-32
9.78864e-30
2.81595e-27
3.52122e-25
2.38324e-23
1.01474e-21
3.03404e-20
6.88348e-19
1.2456e-17
1.84686e-16
2.24705e-15
2.21523e-14
1.74992e-13
1.1171e-12
5.75417e-12
2.41187e-11
8.37574e-11
2.45288e-10
6.16135e-10
1.35382e-09
2.6395e-09
4.60219e-09
7.22858e-09
1.0289e-08
1.31658e-08
1.47995e-08
1.37598e-08
1.14438e-08
9.04182e-09
-4.26704e-08
-6.76943e-09
0.598077
1
1
1
1
1
1
1
1
1
1
1
1
1
1
1
1.9689e-49
7.19029e-40
1.2763e-34
6.92388e-31
5.75735e-28
1.44086e-25
1.54034e-23
8.63148e-22
2.89396e-20
6.35283e-19
9.73713e-18
1.0913e-16
9.28694e-16
6.19123e-15
3.32578e-14
1.47998e-13
5.57929e-13
1.82651e-12
5.32316e-12
1.41273e-11
3.47502e-11
7.97165e-11
1.70257e-10
3.36171e-10
6.0825e-10
9.9876e-10
1.47462e-09
1.92339e-09
2.16646e-09
2.27688e-09
2.58978e-09
2.88082e-09
-1.1907e-07
-1.08982e-08
0.69278
1
1
1
1
1
1
1
1
1
1
1
1
1
1
1
1.63323e-50
1.42874e-48
1.08206e-46
7.27324e-45
4.39524e-43
2.40011e-41
1.18631e-39
5.31122e-38
2.15819e-36
8.03404e-35
2.82009e-33
9.82689e-32
3.49343e-30
1.18684e-28
2.25053e-27
2.1144e-26
1.14408e-25
3.97493e-25
9.4019e-25
1.57315e-24
1.91444e-24
1.72834e-24
1.17343e-24
6.05183e-25
2.38745e-25
7.21637e-26
1.66613e-26
2.92715e-27
3.89533e-28
3.89346e-29
2.90276e-30
1.60789e-31
6.60128e-33
2.00523e-34
4.52366e-36
7.58656e-38
9.48748e-40
8.90568e-42
6.35839e-44
3.43955e-46
1.40648e-48
4.28195e-51
9.93679e-54
1.81007e-56
2.48989e-59
2.64832e-62
2.18902e-65
1.29037e-68
4.43058e-72
5.21207e-76
3.33237e-41
1.09339e-39
3.06108e-38
7.48951e-37
1.62788e-35
3.17858e-34
5.62209e-33
9.06948e-32
1.34236e-30
1.83488e-29
2.34484e-28
2.8768e-27
3.52616e-26
4.35322e-25
4.19628e-24
2.54469e-23
1.02238e-22
2.86731e-22
5.80729e-22
8.7079e-22
9.85455e-22
8.53792e-22
5.71839e-22
2.97905e-22
1.21088e-22
3.8363e-23
9.42587e-24
1.78419e-24
2.58256e-25
2.83206e-26
2.33495e-27
1.43964e-28