/*--------------------------------*- C++ -*----------------------------------*\
| =========                 |                                                 |
| \\      /  F ield         | OpenFOAM: The Open Source CFD Toolbox           |
|  \\    /   O peration     | Version:  2.4.0                                 |
|   \\  /    A nd           | Web:      www.OpenFOAM.org                      |
|    \\/     M anipulation  |                                                 |
\*---------------------------------------------------------------------------*/
FoamFile
{
    version     2.0;
    format      ascii;
    class       volScalarField;
    location    "0.084";
    object      p;
}
// * * * * * * * * * * * * * * * * * * * * * * * * * * * * * * * * * * * * * //

dimensions      [1 -1 -2 0 0 0 0];

internalField   nonuniform List<scalar> 
3600
(
102.548
103.955
105.388
106.005
105.771
104.584
102.477
99.5312
96.0193
92.3335
88.9766
85.7005
83.8065
81.138
81.0647
80.212
81.0329
82.6912
84.0038
86.3163
83.3325
78.882
79.8659
84.2498
85.0547
83.5682
83.4435
84.2229
84.6337
85.3536
99.2855
100.696
102.133
102.752
102.519
101.333
99.2259
96.2778
92.7572
89.0617
85.6973
82.4133
80.5046
77.8255
77.6713
76.8303
77.6479
79.2696
80.5506
82.7906
79.416
74.1091
74.5743
78.3991
79.9246
79.4059
78.5889
78.96
80.1102
81.0898
96.0163
97.4354
98.881
99.5048
99.2765
98.0934
95.9876
93.0348
89.4968
85.7825
82.4012
79.1049
77.1674
74.4873
74.1835
73.3193
74.1613
75.6724
76.678
78.8049
75.2233
67.7517
68.2472
72.6215
74.9929
75.0411
74.8226
75.1469
75.6734
77.1658
92.7409
94.1734
95.6325
96.2645
96.0431
94.8653
92.7626
89.8032
86.2388
82.4958
79.0883
75.7742
73.7973
71.1201
70.6775
69.7477
70.5438
71.9701
72.6589
74.5115
69.9971
62.3968
63.0275
68.4632
71.0202
71.7361
71.5463
71.9231
72.1322
72.4721
89.4591
90.9098
92.3874
93.0309
92.8193
91.649
89.5511
86.5834
82.9831
79.2018
75.7585
72.4203
70.3909
67.7152
67.2143
66.1146
66.8861
68.1288
68.6762
69.3225
64.6601
58.313
59.0183
65.7984
68.0612
68.8651
69.2009
69.7957
70.1409
70.5379
86.1709
87.6448
89.1459
89.804
89.605
88.4447
86.3534
83.3759
79.7294
75.9003
72.4114
69.0422
66.9431
64.2404
63.7495
62.4359
63.1467
64.1751
64.7119
64.8177
60.8857
55.4628
57.1763
63.4625
65.814
66.3811
67.0099
67.8645
68.2927
68.6804
82.8762
84.3783
85.908
86.5839
86.4004
85.2523
83.1696
80.1813
76.4778
72.5914
69.0471
65.6399
63.453
60.6752
60.189
58.6949
59.3897
60.1494
60.5385
60.7375
57.8824
54.4208
55.9553
61.7228
63.784
64.0204
64.678
65.7471
66.2389
66.5788
79.5749
81.1102
82.6736
83.3705
83.2053
82.0718
79.9999
77.0004
73.228
69.2751
65.6658
62.2147
59.9235
57.0554
56.4943
54.8779
55.2474
56.1143
56.3488
56.8203
55.5071
53.6781
55.2019
59.4443
61.0455
61.1732
61.9997
63.6267
64.7559
64.7586
76.2668
77.8406
79.4429
80.1639
80.0198
78.9033
76.8445
73.834
69.9797
65.9515
62.2677
58.7673
56.359
53.4559
52.6849
50.9776
50.8305
52.043
52.3262
53.2114
53.0507
52.6622
54.0113
56.7052
58.017
58.1433
59.9317
62.0413
63.1626
62.6758
72.9518
74.5693
76.2159
76.964
76.8438
75.7467
73.7037
70.6834
66.7324
62.6208
58.8532
55.2946
52.76
49.8561
48.7526
47.0473
46.5948
47.9001
48.4141
49.4475
50.1354
50.672
51.7833
53.9394
55.4655
56.7226
58.2345
60.1146
61.1333
61.381
69.6298
71.2963
72.9925
73.7709
73.6775
72.6021
70.5777
67.5554
63.4794
59.2831
55.4221
51.7938
49.1267
46.1967
44.7026
43.042
42.5261
43.6482
44.4789
45.5976
46.8113
47.7835
49.0656
51.1141
52.9866
55.1317
57.4105
58.4521
58.0423
57.9908
66.3004
68.0216
69.7728
70.5846
70.5207
69.4695
67.4666
64.4481
60.224
55.939
51.9739
48.2638
45.4628
42.4714
40.6166
38.8592
38.1448
39.2959
40.3446
41.6657
43.299
44.881
46.2694
47.5386
49.4741
51.8656
53.6463
54.8118
55.2294
55.4443
62.9634
64.7451
66.557
67.4051
67.3735
66.3488
64.3705
61.3636
56.965
52.5892
48.508
44.7044
41.7682
38.7004
36.5002
34.4902
33.6323
34.7226
35.9393
37.7499
39.8691
42.1087
44.2374
45.4233
46.1454
48.2527
50.0568
51.5901
52.4385
52.6109
59.6187
61.4667
63.3449
64.2325
64.2359
63.24
61.2895
58.3051
53.7005
49.2346
45.0236
41.113
38.05
34.8923
32.3823
30.0076
28.5507
29.7988
31.1747
33.4697
36.6038
39.3457
41.4592
42.0819
42.0633
44.1271
47.4335
49.7967
50.0864
49.8083
56.2659
58.1863
60.1368
61.0666
61.1079
60.143
58.2235
55.2762
50.4282
45.8767
41.5197
37.4889
34.3049
31.0904
28.248
25.3291
23.013
23.6852
25.4003
28.7957
32.2281
35.522
38.7259
40.001
37.9691
39.2133
42.2233
44.7638
45.6533
45.9109
52.9047
54.9039
56.9326
57.9077
57.9893
57.0579
55.1721
52.2815
47.1449
42.5171
37.9948
33.8283
30.5522
27.2771
24.0668
20.1075
17.2426
17.8199
19.672
24.1703
29.0192
32.3849
34.7051
36.3434
36.653
37.2056
38.0397
39.5944
41.2463
42.2018
49.5348
51.6193
53.7324
54.7556
54.8803
53.9845
52.1348
49.3265
43.8468
39.1581
34.4463
30.1328
26.8107
23.4671
19.8034
14.7304
11.8069
12.7188
15.5653
20.2738
24.7208
27.7211
29.4023
31.3264
33.7815
35.5427
35.8362
37.0631
39.2806
40.7434
46.1558
48.3325
50.5364
51.6105
51.7809
50.9228
49.1109
46.418
40.5288
35.8024
30.872
26.4053
23.0631
19.6751
15.7061
9.07751
5.66088
6.45378
8.59169
15.6227
21.9143
23.3325
24.2977
26.9043
30.2369
32.7887
34.0335
35.4195
37.3413
38.6562
42.7674
45.0434
47.3446
48.4723
48.6909
47.8726
46.099
43.5646
37.1843
32.4535
27.271
22.6479
19.2987
15.9384
11.7591
2.80275
-1.89476
0.633733
2.30441
10.6889
18.0695
19.7937
20.9755
23.702
28.2167
30.9294
32.0657
32.8589
34.1051
35.054
39.3691
41.7518
44.1571
45.3411
45.6104
44.8339
43.0975
40.7765
33.8044
29.1158
23.6428
18.8505
15.5402
12.2978
7.8638
-3.79176
-9.31719
-8.97879
-5.44263
6.42658
12.4121
9.87135
12.7429
20.5236
27.0912
29.4757
29.7735
30.1348
30.7841
31.309
35.9605
38.4577
40.9742
42.217
42.5394
41.8067
40.1041
38.0667
30.377
25.7955
19.9839
14.9988
11.7685
8.77602
4.52345
-6.32833
-9.1044
-3.80187
-7.76913
6.50777
12.9854
2.29314
9.95696
15.6588
21.7407
25.4002
26.7343
27.7805
28.2284
28.5169
32.5411
35.1608
37.796
39.0997
39.4777
38.791
37.1155
35.4508
26.8917
22.495
16.2872
11.0914
7.93451
5.49167
2.30983
-0.780724
-0.527742
-2.88307
-7.71363
3.08495
8.65327
16.4493
15.2315
10.5094
16.6089
21.167
23.7509
25.6163
26.0077
26.1612
29.1104
31.8612
34.6227
35.9895
36.4253
35.7867
34.1277
32.9468
23.3379
19.2167
12.5552
7.12936
4.04064
2.16948
0.152795
0.00903894
0.30016
-0.586516
-3.96462
0.689533
4.32542
4.19498
4.467
6.01734
10.4362
16.9678
21.4479
23.529
23.8296
23.8995
25.6679
28.5586
31.4546
32.8863
33.3823
32.794
31.1354
30.5757
19.6978
15.9717
8.8155
3.09117
0.632753
0.0619899
0.00218603
-0.0535003
0.201278
0.14583
-1.98725
-7.52699
-1.39788
4.02728
1.8336
1.02267
2.77694
13.1529
18.995
21.0513
21.5751
21.7894
22.2129
25.2528
28.2918
29.7902
30.3484
29.8132
28.1319
28.3599
16.0246
12.689
5.06701
-0.455546
-0.181561
-0.00283144
-0.0078225
-0.0561925
0.168244
-0.239301
-1.48826
-10.5709
-3.43201
1.38736
-1.69055
-3.6541
-0.651601
9.99097
16.5202
18.8631
19.7973
20.0721
18.745
21.9444
25.1347
26.7011
27.3235
26.8451
25.1094
26.324
12.2569
9.3717
0.485172
-0.959563
-0.0797324
-0.000111693
-0.027571
-0.0689104
0.117807
-0.331701
-0.736696
-3.42389
-7.39771
-0.944132
-3.16104
-5.07895
0.80389
7.82378
14.6465
17.1176
18.7318
18.9144
15.2627
18.6299
21.9836
23.6191
24.3078
23.8903
22.0575
24.4908
8.34235
5.78532
-2.58143
-0.145831
-0.0826396
-0.0057004
-0.0406424
-0.091146
0.0584624
-0.367149
-0.434474
-0.716157
-11.5842
-1.10478
-4.39523
-6.63079
2.91165
7.00899
13.6832
15.8874
17.6065
17.7652
11.7675
15.325
18.8384
20.5444
21.3004
20.9503
18.9641
22.8918
4.15054
0.698957
-0.714524
-0.136952
-0.0929245
-0.0133107
-0.0530918
-0.0877294
0.0129781
-0.274755
-0.416679
-1.07912
-5.24374
-1.34633
-3.72659
-2.17599
2.67395
9.44128
14.3812
15.9189
17.0808
17.3426
8.25609
11.9716
15.7011
17.4764
18.2992
18.0276
15.8172
21.5275
-0.74889
-1.72435
-0.319664
-0.166123
-0.103655
-0.0298211
-0.0638127
-0.0832567
-0.0150641
-0.181481
-0.302165
-0.516356
-0.683199
-3.23169
0.613468
4.21371
6.62339
12.9869
15.6869
16.9381
17.6631
17.6556
4.6972
8.72537
12.5638
14.4169
15.3139
15.1253
12.5987
21.2265
-6.23509
-0.306355
-0.277291
-0.154332
-0.107514
-0.0458227
-0.0726612
-0.0785936
-0.033048
-0.115974
-0.207772
-0.0690404
-0.277736
-5.34305
3.64972
9.04271
12.5356
16.5171
17.408
18.3114
18.4352
18.2517
85.3356
84.5899
84.1063
83.2574
83.3582
84.9033
84.1499
79.6825
78.6411
83.0563
85.9933
83.6521
82.3327
80.696
79.9234
80.814
81.0103
83.6935
85.6794
88.9604
92.3385
96.0232
99.5361
102.477
104.579
105.762
105.993
105.377
103.955
102.553
81.0459
80.0219
78.8265
78.3808
79.1885
79.7699
78.291
74.4096
73.8674
79.1182
82.4563
80.1951
78.9088
77.3087
76.5415
77.4208
77.7041
80.3927
82.3933
85.6816
89.067
92.7612
96.2827
99.2259
101.329
102.51
102.739
102.121
100.696
99.2902
77.166
75.617
75.044
74.6312
74.8536
74.8745
72.5311
68.1158
67.5338
74.9065
78.4655
76.3251
75.3052
73.8207
73.0296
73.9344
74.3691
77.0573
79.0871
82.3867
85.7886
89.5011
93.0399
95.9875
98.0886
99.267
99.4921
98.8692
97.4352
96.0211
72.4324
72.0812
71.8298
71.4354
71.5812
70.9473
68.3995
62.9121
62.1837
69.7066
74.1731
72.3094
71.5958
70.1957
69.4572
70.4297
71.0064
73.6894
75.7597
79.0755
82.5031
86.2434
89.8085
92.7625
94.8605
96.0337
96.2517
95.6205
94.1731
92.7457
70.5416
70.1413
69.8071
69.15
68.7157
67.948
65.6774
58.9011
58.1096
64.3859
69.0073
68.3276
67.7436
66.5324
65.8221
66.9667
67.6064
70.2857
72.4101
75.7478
79.2106
82.988
86.589
89.5511
91.6442
92.8098
93.018
92.3753
90.9096
89.4641
68.6849
68.2868
67.8453
66.9473
66.2604
65.6925
63.3818
57.0692
55.2673
60.6078
64.4845
64.3655
63.7763
62.7822
62.1395
63.4964
64.1365
66.8411
69.0375
72.4035
75.911
79.7348
83.382
86.3535
88.4399
89.5955
89.791
89.1336
87.6447
86.176
66.5758
66.215
65.6897
64.589
63.8472
63.5754
61.6135
55.8191
54.2317
57.6036
60.396
60.175
59.7362
59.0154
58.3939
59.9263
60.5767
63.355
65.6417
69.0426
72.6044
76.4836
80.1879
83.1698
85.2475
86.3908
86.5706
85.8954
84.3782
82.8815
64.7397
64.7182
63.5415
61.9313
61.0809
60.8321
59.2426
54.9865
53.4481
55.2026
56.4739
55.973
55.6805
54.8606
54.5719
56.221
56.9652
59.8315
62.2243
65.6652
69.2908
73.2342
77.0076
80.0002
82.067
83.1956
83.357
82.6608
81.1102
79.5805
62.6317
63.0871
61.891
59.8207
58.0623
57.8569
56.5008
53.7518
52.3899
52.7221
52.8562
51.9491
51.5879
50.4312
50.665
52.4092
53.3802
56.2752
58.7859
62.2716
65.9702
69.9862
73.842
76.8449
78.8985
80.01
80.1501
79.4298
77.8406
76.2727
61.4093
61.123
59.9722
58.0523
56.4933
55.2217
53.694
51.4792
50.3573
49.7901
49.0901
48.0364
47.44
46.1941
46.7215
48.4789
49.8007
52.6867
55.3233
58.8621
62.6428
66.7389
70.6924
73.7041
75.742
76.834
76.9499
76.2024
74.5694
72.958
57.9673
57.9695
58.3473
57.3155
54.9588
52.7595
50.8288
48.7166
47.4424
46.4334
45.2463
44.1137
43.1733
42.1127
42.6968
44.4313
46.1635
49.0655
51.8334
55.4365
59.3089
63.4887
67.5629
70.5782
72.5974
73.6676
73.7565
72.9786
71.2965
69.6363
55.436
55.1685
54.6901
53.498
51.6577
49.158
47.1699
45.8572
44.5047
42.9108
41.3057
39.9727
38.7837
37.6837
38.486
40.3546
42.459
45.4155
48.3151
51.9941
55.969
60.2363
64.4538
67.4671
69.4648
70.5107
70.5698
69.7585
68.0219
66.3073
52.6219
52.2935
51.4342
49.8845
48.0214
45.7936
45.0538
43.8563
41.7154
39.4507
37.385
35.5614
34.1417
33.17
34.0871
36.2542
38.7098
41.7373
44.7682
48.5343
52.6238
56.9803
61.3675
64.3712
66.3442
67.3634
67.3899
66.5422
64.7454
62.9708
49.818
49.9847
49.6763
47.2966
43.9039
41.7866
41.6683
41.0003
38.9303
36.2301
33.1192
30.7575
29.1815
28.0716
29.5738
32.1487
34.9297
38.0387
41.1906
45.056
49.2741
53.7189
58.3067
61.2903
63.2355
64.2256
64.2167
63.3296
61.4672
59.6265
45.8767
45.5448
44.5871
42.0148
39.007
37.7529
39.3031
38.2488
35.0418
31.7386
28.4186
25.0177
23.0418
22.5504
24.8145
28.0298
31.1742
34.3161
37.582
41.558
45.9214
50.4498
55.2751
58.2245
60.1386
61.0974
61.0504
60.1208
58.1869
56.2742
42.1508
41.14
39.4723
37.8502
37.0007
36.4889
35.936
34.1458
31.8823
28.7609
24.0095
19.3862
17.1527
16.7991
19.5592
23.8673
27.4295
30.5843
33.9392
38.0384
42.5674
47.1699
52.2771
55.1734
57.0536
57.9788
57.8909
56.9159
54.9046
52.9136
40.6137
39.0618
36.839
35.5325
35.2185
33.5401
31.0346
28.7948
26.9121
24.4213
20.1965
15.2671
11.8113
11.4444
14.1839
19.6239
23.6978
26.8536
30.2643
34.4942
39.2144
43.8753
49.3182
52.1367
53.9803
54.8697
54.7382
53.715
51.6202
49.5443
38.5146
37.098
35.1346
33.692
32.3738
29.7878
26.2949
23.2803
22.4508
22.2402
15.6768
8.52552
5.65279
5.29525
8.5499
15.5432
19.988
23.1072
26.5612
30.9227
35.8653
40.561
46.4049
49.1135
50.9188
51.77
51.5924
50.5182
48.3336
46.166
34.9347
33.9176
32.5737
31.6946
30.4232
27.4782
23.0311
19.9806
18.4407
18.6131
10.7778
2.44276
-1.04573
-2.17018
2.37256
11.6172
16.355
19.3436
22.8324
27.3225
32.5237
37.2205
43.5454
46.1027
47.8689
48.6799
48.4535
47.3255
45.0447
42.7783
31.262
30.6309
29.8931
29.3779
28.9017
26.2207
19.498
10.7645
6.64801
13.6151
8.0547
-4.58142
-10.2398
-9.15776
-4.42411
7.74658
12.8524
15.5909
19.0672
23.6925
29.1943
33.845
40.7499
43.1027
44.8305
45.5993
45.3216
44.1371
41.7533
39.3808
28.4918
28.0845
27.6284
26.4782
25.001
21.1557
14.8084
7.13125
2.02194
8.72108
3.33909
-5.62732
-2.58456
-9.7264
-7.30352
4.47859
9.4734
11.8296
15.2501
20.0286
25.8838
30.4223
38.031
40.1112
41.8036
42.528
42.1966
40.9532
38.4593
35.9731
26.1176
25.8584
25.4645
23.5906
20.8901
16.0905
9.67455
13.8986
15.3232
8.6238
0.327773
-6.39656
-4.23435
-2.08764
-0.567499
2.50095
6.32097
8.01874
11.3774
16.3224
22.5952
26.9424
35.4037
37.1254
38.7882
39.4662
39.0785
37.7739
35.1627
32.5546
23.8431
23.6396
23.2906
21.2147
16.728
10.259
5.55428
3.57361
1.33102
3.51496
-1.15181
-7.62063
-0.877686
0.0797836
0.205697
0.420621
3.10947
4.11942
7.45403
12.5738
19.3318
23.3946
32.886
34.1411
35.7843
36.4137
35.9674
34.5994
31.8633
29.1249
21.6842
21.3855
20.6975
18.6025
12.9181
2.78889
1.92173
0.698339
1.07282
-3.38906
-6.75021
-4.90709
-0.0386678
0.0592449
0.183403
0.113871
0.248716
0.514638
3.47347
8.80965
16.1043
19.7613
30.4983
31.1536
32.792
33.3704
32.8632
31.4299
28.561
25.6835
19.9466
19.3574
18.4108
16.0052
9.63456
-0.760576
-2.66369
-3.00284
-1.6786
-7.78154
-8.72906
-2.32931
-0.0125546
4.74003e-05
0.139677
0.0793932
0.144092
-0.120124
-0.0706801
5.03743
12.8358
16.1015
28.2626
28.1561
29.8116
30.3363
29.766
28.2657
25.2554
22.2296
18.7662
18.4601
16.7173
14.1038
6.97716
1.18499
-4.94445
-4.23349
-3.94002
-10.5404
-2.73178
-0.207322
0.0297757
-0.00153597
0.104554
0.0538194
0.123445
0.038449
-0.818625
0.523089
9.54093
12.3485
26.2032
25.1413
26.8438
27.3111
26.6758
25.107
21.9473
18.763
17.5362
17.3051
15.4805
13.1814
6.24616
2.92386
-7.10719
-5.42396
-3.87214
-11.6241
0.156116
0.402363
0.0666186
0.0271563
0.0761224
0.0242826
0.0998825
0.0308347
-0.0667817
-2.35487
5.97974
8.45016
24.3425
22.0991
23.8892
24.2955
23.5927
21.9542
18.6331
15.282
17.2685
16.788
15.5139
13.6564
8.44909
2.15612
-2.75376
-3.65603
-4.38695
-4.9028
0.000603325
0.0934489
0.07487
0.0499541
0.0550166
-0.00219753
0.0809298
0.0137913
-0.0698036
-0.644716
0.822199
4.27691
22.7115
19.0179
20.9491
21.2875
20.5168
18.8071
15.3287
11.7882
17.5848
17.3382
16.4305
14.9699
11.7928
5.71759
3.66171
-0.686727
-8.75324
-0.186202
0.12678
0.0860213
0.0809212
0.0593857
0.0420253
-0.0208924
0.0590511
0.000805465
-0.0935254
-0.244944
-1.65224
-0.613492
21.3104
15.8862
18.0259
18.2866
17.4475
15.6678
11.9752
8.27828
18.173
18.0915
17.7555
16.6544
15.2632
10.9083
8.28214
5.5975
-7.23009
0.108992
0.173854
0.112689
0.0823374
0.0627254
0.0366189
-0.0266761
0.0399814
-0.00745071
-0.0848851
-0.205198
-0.231069
-6.10696
20.9345
12.6868
15.1225
15.3006
14.3865
12.5284
8.73001
4.72089
2.14399
6.14087
10.2263
12.1207
13.0704
12.9579
10.1122
15.5754
-0.675811
-0.198723
-0.260787
-0.160462
-0.113137
-0.0560049
-0.0846655
-0.0733073
-0.0523272
-0.0908831
-0.151048
-0.0191237
-0.115853
-4.19406
-4.31864
9.86191
16.4836
17.7657
18.5337
19.0817
18.9375
18.8592
0.604806
4.41598
8.58916
10.5174
11.5044
11.4413
8.21969
18.4089
-2.78837
-0.19218
-0.24979
-0.165257
-0.117211
-0.0633386
-0.0896984
-0.0756446
-0.064443
-0.0839169
-0.143287
0.339605
-0.0938915
-1.71913
-11.8087
11.5069
18.6554
18.4132
18.9156
19.3781
19.3187
19.3284
0.00864499
3.19986
6.80601
8.7751
9.79677
9.78791
5.65064
5.40434
-0.150457
-0.19165
-0.245372
-0.168471
-0.121599
-0.0741962
-0.0950634
-0.0794608
-0.0761159
-0.0879556
-0.146308
-0.026824
-0.119851
-0.452429
-9.9361
13.2567
19.4726
19.4199
19.4299
19.2292
19.3213
19.2629
-0.247834
1.90613
4.84491
6.85885
7.88021
7.98533
3.41121
-0.574636
-0.140544
-0.176502
-0.235304
-0.169254
-0.126084
-0.0822936
-0.100655
-0.0831812
-0.0883454
-0.100849
-0.169221
-0.00762893
-0.120985
0.0200727
-5.45293
7.16931
19.8097
19.8494
19.965
19.2163
19.1832
19.1486
-0.171114
0.756006
2.94476
4.82878
5.75845
5.90959
0.097534
0.76775
-0.100585
-0.184181
-0.226554
-0.168815
-0.130458
-0.0907006
-0.106539
-0.0879185
-0.100979
-0.111721
-0.185331
-0.0302392
-0.0616678
-0.370654
1.24492
2.17124
21.2293
20.0329
20.7765
19.2948
19.0758
18.8363
-0.124743
0.113263
1.34134
2.71291
3.35994
3.11945
0.511329
0.621559
-0.0828392
-0.179732
-0.219859
-0.167992
-0.134924
-0.0992702
-0.112748
-0.0936262
-0.113439
-0.132044
-0.192476
-0.102297
0.0339826
0.202715
-0.700973
0.717144
20.6682
19.6954
21.4125
19.2612
18.7988
18.2511
-0.110664
-0.0786182
0.225301
0.748954
0.943241
0.55292
-0.0851417
-0.100328
-0.0962717
-0.16869
-0.214796
-0.167284
-0.139577
-0.107979
-0.119266
-0.100385
-0.126731
-0.139828
-0.215994
-0.192334
0.249
-0.0280254
-0.34818
-0.683339
3.89706
19.614
21.739
19.4799
18.1613
17.4998
-0.113417
-0.112042
-0.139184
-0.104622
-0.0772435
-0.103438
-0.0792235
-0.106893
-0.0988882
-0.164425
-0.210254
-0.167078
-0.144297
-0.11686
-0.126083
-0.108375
-0.138975
-0.157038
-0.241928
-0.231316
0.0457982
-0.116704
-0.192296
-0.47167
-0.283858
5.91104
13.0744
18.1694
15.758
15.988
-0.116473
-0.115013
-0.149035
-0.138929
-0.1122
-0.108865
-0.0905503
-0.115158
-0.105451
-0.161124
-0.205874
-0.167462
-0.149409
-0.124626
-0.13351
-0.11913
-0.149042
-0.191048
-0.260833
-0.257543
-0.177287
-0.291936
-0.331099
-0.432427
-0.279553
-0.414147
0.160416
0.744573
1.47579
2.38688
-0.119846
-0.118166
-0.152355
-0.142793
-0.11515
-0.113756
-0.0974948
-0.122399
-0.111657
-0.158433
-0.201937
-0.168446
-0.154596
-0.122862
-0.133616
-0.128046
-0.160704
-0.169165
-0.261941
-0.248724
-0.312188
-0.358483
-0.378814
-0.372941
-0.286705
-0.281436
-0.253158
-0.22228
-0.198046
-0.187729
-0.123493
-0.121422
-0.156003
-0.147334
-0.118735
-0.118076
-0.105225
-0.127914
-0.118465
-0.156986
-0.198434
-0.170032
-0.159348
-0.146026
-0.149337
-0.142168
-0.179351
-0.139956
-0.249923
-0.208941
-0.288437
-0.414932
-0.364557
-0.322642
-0.26697
-0.235688
-0.222333
-0.208632
-0.194126
-0.189023
-0.127505
-0.125022
-0.160252
-0.152391
-0.122983
-0.122389
-0.113135
-0.13256
-0.125655
-0.156511
-0.195441
-0.172222
-0.16408
-0.155255
-0.161264
-0.163511
-0.184556
-0.15697
-0.237135
-0.213709
-0.275018
-0.349994
-0.336132
-0.290006
-0.236312
-0.210717
-0.204709
-0.200999
-0.1956
-0.19261
-0.131862
-0.129429
-0.16459
-0.157701
-0.127844
-0.126967
-0.121066
-0.136848
-0.133116
-0.157151
-0.193062
-0.174981
-0.169145
-0.163859
-0.169919
-0.172885
-0.192037
-0.184458
-0.242585
-0.253207
-0.267312
-0.298641
-0.306371
-0.283873
-0.238513
-0.205976
-0.191774
-0.185719
-0.181541
-0.180924
-0.136634
-0.134212
-0.168649
-0.162873
-0.133232
-0.131906
-0.128934
-0.141296
-0.140714
-0.158915
-0.191364
-0.178278
-0.174558
-0.17243
-0.179085
-0.185155
-0.206956
-0.205669
-0.251391
-0.271321
-0.263649
-0.287066
-0.309658
-0.301062
-0.259726
-0.21531
-0.185881
-0.169834
-0.161718
-0.159376
-0.141816
-0.139404
-0.172266
-0.167609
-0.139059
-0.137286
-0.136775
-0.146066
-0.148313
-0.161793
-0.190427
-0.182041
-0.180297
-0.180921
-0.188549
-0.198966
-0.215097
-0.234521
-0.258986
-0.279242
-0.281892
-0.305902
-0.334396
-0.332756
-0.293812
-0.239563
-0.195945
-0.169684
-0.157714
-0.154594
-0.147384
-0.145039
-0.175443
-0.171745
-0.145308
-0.143159
-0.144658
-0.151269
-0.155814
-0.165721
-0.190308
-0.186229
-0.186266
-0.189135
-0.197815
-0.209133
-0.229185
-0.248502
-0.266624
-0.283633
-0.309643
-0.342873
-0.373052
-0.373971
-0.336566
-0.278769
-0.229396
-0.198899
-0.18464
-0.180071
-0.153328
-0.151154
-0.178302
-0.175454
-0.151931
-0.149554
-0.152596
-0.156995
-0.163161
-0.17062
-0.191125
-0.190734
-0.192371
-0.197007
-0.206591
-0.220353
-0.24108
-0.262861
-0.276716
-0.306914
-0.350378
-0.386372
-0.414564
-0.412933
-0.375155
-0.32075
-0.2755
-0.246988
-0.232343
-0.226697
-0.159678
-0.157661
-0.181253
-0.17906
-0.158914
-0.156493
-0.160612
-0.163298
-0.170401
-0.176376
-0.193007
-0.195444
-0.198509
-0.204446
-0.214687
-0.229717
-0.249872
-0.273981
-0.291893
-0.337923
-0.383496
-0.417873
-0.442801
-0.430571
-0.397499
-0.349798
-0.312001
-0.28849
-0.275797
-0.270461
-0.16646
-0.164604
-0.184669
-0.182982
-0.166268
-0.163987
-0.168735
-0.170169
-0.177652
-0.182842
-0.196022
-0.200324
-0.204575
-0.211332
-0.221864
-0.237016
-0.256976
-0.281822
-0.311795
-0.352327
-0.392128
-0.42365
-0.44029
-0.429691
-0.39547
-0.356848
-0.326079
-0.307312
-0.300625
-0.294382
-0.173723
-0.172045
-0.188781
-0.187538
-0.174023
-0.172042
-0.177013
-0.177598
-0.185051
-0.189801
-0.200163
-0.205445
-0.210499
-0.217564
-0.227815
-0.242049
-0.260298
-0.282533
-0.309826
-0.344533
-0.376989
-0.396225
-0.399544
-0.387475
-0.361302
-0.333729
-0.31244
-0.300896
-0.296383
-0.294712
-0.181524
-0.180038
-0.193749
-0.192918
-0.182227
-0.180658
-0.185509
-0.185608
-0.192677
-0.197132
-0.205376
-0.21093
-0.216308
-0.223163
-0.232474
-0.244771
-0.259949
-0.277758
-0.298897
-0.322665
-0.341306
-0.349231
-0.343173
-0.328839
-0.31183
-0.297425
-0.286929
-0.281191
-0.27863
-0.277553
-0.189918
-0.188631
-0.199675
-0.19922
-0.190936
-0.189834
-0.194307
-0.194231
-0.200627
-0.204851
-0.211489
-0.216801
-0.222024
-0.22824
-0.236063
-0.245709
-0.256938
-0.269313
-0.282694
-0.295706
-0.303934
-0.304345
-0.297261
-0.283271
-0.273619
-0.265418
-0.260174
-0.257491
-0.256148
-0.255462
-0.198961
-0.197873
-0.206614
-0.206483
-0.200217
-0.199576
-0.203509
-0.203492
-0.209022
-0.212974
-0.218343
-0.223117
-0.227824
-0.233049
-0.239061
-0.245841
-0.253022
-0.260017
-0.266233
-0.270615
-0.27182
-0.268906
-0.262741
-0.254723
-0.247196
-0.242558
-0.239498
-0.237765
-0.236694
-0.235738
-0.208715
-0.207817
-0.214609
-0.214734
-0.210138
-0.209904
-0.213226
-0.213399
-0.217981
-0.221562
-0.225891
-0.229929
-0.233829
-0.237853
-0.242062
-0.246239
-0.249974
-0.252783
-0.254124
-0.25369
-0.251087
-0.246784
-0.241635
-0.236515
-0.231428
-0.228668
-0.226682
-0.22534
-0.224388
-0.223555
-0.219245
-0.218526
-0.223697
-0.224004
-0.220771
-0.220856
-0.223569
-0.22396
-0.227604
-0.230686
-0.234109
-0.23733
-0.240342
-0.243181
-0.245757
-0.247844
-0.249157
-0.249421
-0.24854
-0.246259
-0.242829
-0.238767
-0.234712
-0.23106
-0.227803
-0.224972
-0.224146
-0.222878
-0.221823
-0.221301
-0.230622
-0.230068
-0.23393
-0.234326
-0.23219
-0.232491
-0.234646
-0.235192
-0.237971
-0.240472
-0.243077
-0.245468
-0.247573
-0.24934
-0.250654
-0.251356
-0.251297
-0.250482
-0.248794
-0.246366
-0.243453
-0.240398
-0.237527
-0.235053
-0.233037
-0.231424
-0.230145
-0.229145
-0.228389
-0.227872
-0.242921
-0.24251
-0.245265
-0.245736
-0.244469
-0.244892
-0.246557
-0.247147
-0.249165
-0.251039
-0.252877
-0.254485
-0.255785
-0.256705
-0.257167
-0.257111
-0.256503
-0.255348
-0.253731
-0.251788
-0.249698
-0.247646
-0.245777
-0.244168
-0.242839
-0.241763
-0.240904
-0.240238
-0.239735
-0.239366
-0.256225
-0.255953
-0.257785
-0.258286
-0.257696
-0.258161
-0.259398
-0.259921
-0.261266
-0.262504
-0.263637
-0.264553
-0.265194
-0.265515
-0.265488
-0.265109
-0.264418
-0.263426
-0.262223
-0.260912
-0.259592
-0.258349
-0.25724
-0.25629
-0.255501
-0.254859
-0.254346
-0.253942
-0.253631
-0.253396
-0.270622
-0.270472
-0.271529
-0.272026
-0.271967
-0.272414
-0.273268
-0.273634
-0.274366
-0.274982
-0.275473
-0.275798
-0.27594
-0.275897
-0.275671
-0.275285
-0.274764
-0.274126
-0.273421
-0.272701
-0.272011
-0.271381
-0.270828
-0.270356
-0.269963
-0.26964
-0.269378
-0.269169
-0.269004
-0.268874
-0.286207
-0.286169
-0.28653
-0.287013
-0.287402
-0.287787
-0.288282
-0.288428
-0.288577
-0.288586
-0.288488
-0.288309
-0.28808
-0.287836
-0.287594
-0.287406
-0.287234
-0.287036
-0.286833
-0.286639
-0.286463
-0.286308
-0.286175
-0.286064
-0.285971
-0.285893
-0.285829
-0.285775
-0.285731
-0.285693
19.0083
18.5806
18.4325
17.6244
16.5743
14.2952
8.97032
1.21614
-4.37984
0.150252
0.175141
0.109285
0.077355
0.0602171
0.0357625
-0.0251312
0.0275242
-0.0161338
-0.0903027
-0.19031
-0.141792
-0.637112
15.5477
10.2182
12.9537
13.0569
12.0893
10.189
6.14573
2.1689
19.2472
18.9148
18.6658
17.9048
17.1917
16.1906
9.67533
-10.0591
-0.495505
0.244396
0.254336
0.101762
0.0712951
0.0565524
0.0352511
-0.0234756
0.0192412
-0.022459
-0.0951013
-0.179937
-0.137138
-2.76403
17.9906
8.34737
11.4362
11.4907
10.4851
8.55045
4.42146
0.629746
19.1475
18.6647
18.4452
18.2888
18.2414
17.1208
9.49341
-15.7107
0.753213
0.288921
0.150236
0.0947566
0.0621913
0.0510723
0.0341008
-0.0222252
0.0106605
-0.0292049
-0.0986947
-0.176184
-0.137151
-0.0946935
4.7792
5.81949
9.78094
9.78266
8.7419
6.76689
3.21153
0.0297054
18.9982
18.7064
18.4721
18.7075
18.8042
17.9337
5.64188
-6.48335
0.713344
0.296296
0.159093
0.0883006
0.0595687
0.0713295
0.0599885
-0.0219025
0.00192649
-0.0357547
-0.100075
-0.166914
-0.121739
-0.0718991
-0.747504
3.58444
7.97511
7.86716
6.82528
4.8067
1.90884
-0.240017
18.6912
18.5593
18.4931
19.4428
19.1193
19.9522
-1.26816
-2.17895
0.435011
0.279783
0.136347
0.111001
0.0528926
0.0387433
0.00637592
-0.0224098
0.00122017
-0.0421793
-0.100432
-0.158759
-0.129062
-0.0300016
0.809056
-0.0577256
5.90022
5.74643
4.79503
2.90845
0.746515
-0.166382
18.1153
18.2177
18.3535
20.0101
19.0948
21.296
-1.81944
-1.19828
-0.318662
0.209429
0.106466
0.0784924
0.0730001
0.0562382
0.00183991
-0.0282936
-0.0256394
-0.0496773
-0.100512
-0.153006
-0.125008
-0.0127643
0.723909
0.569487
3.12317
3.34643
2.68146
1.31028
0.107792
-0.122548
17.3022
17.5951
18.2267
20.0275
18.8319
7.43852
-0.516306
-0.610736
0.545901
0.520627
0.0447456
0.0554148
0.0289603
0.00901595
-0.0066206
-0.0304204
-0.034696
-0.0567113
-0.100814
-0.149066
-0.113357
-0.0311554
-0.0840267
-0.0694877
0.5632
0.938766
0.735124
0.211818
-0.0790457
-0.109638
15.627
15.3111
16.1634
11.5368
5.15963
-0.316024
-0.653285
-0.495369
-0.584012
-0.0207674
-0.020994
0.00715248
0.0171435
0.000510443
-0.0170383
-0.0362128
-0.0439292
-0.0638693
-0.101683
-0.145788
-0.109483
-0.0379132
-0.0885004
-0.0621691
-0.0879526
-0.0668204
-0.0982248
-0.136633
-0.109829
-0.112383
2.19654
1.41227
0.600872
0.0347753
-0.324441
-0.351853
-0.481063
-0.534876
-0.640652
-0.360377
-0.0796974
-0.0716011
-0.0135932
-0.039095
-0.0328311
-0.0442039
-0.0537658
-0.0713273
-0.103204
-0.142841
-0.106888
-0.0486609
-0.0947359
-0.0731103
-0.093283
-0.0994584
-0.12968
-0.145058
-0.112743
-0.11542
-0.191148
-0.209059
-0.232606
-0.245812
-0.263503
-0.306511
-0.38049
-0.451339
-0.501391
-0.343543
-0.15369
-0.120517
-0.0533804
-0.0549961
-0.044091
-0.0523433
-0.0641597
-0.0791182
-0.105448
-0.140526
-0.105168
-0.0586427
-0.100397
-0.079494
-0.0982393
-0.102408
-0.133608
-0.148334
-0.115918
-0.118785
-0.19212
-0.202995
-0.219891
-0.235191
-0.254812
-0.285558
-0.337424
-0.377287
-0.390038
-0.310132
-0.201441
-0.142621
-0.0900741
-0.0748458
-0.0622801
-0.0597351
-0.0752033
-0.0872604
-0.108475
-0.138843
-0.104945
-0.0688884
-0.104441
-0.0869488
-0.102625
-0.105994
-0.138253
-0.151982
-0.119177
-0.122415
-0.195571
-0.204916
-0.215254
-0.225652
-0.241337
-0.272861
-0.32095
-0.349682
-0.338156
-0.27792
-0.236379
-0.165306
-0.114348
-0.0910059
-0.0834099
-0.0855334
-0.0865116
-0.095755
-0.112329
-0.137882
-0.105923
-0.0791789
-0.107817
-0.0946923
-0.107057
-0.11025
-0.143473
-0.15624
-0.122735
-0.126412
-0.184106
-0.191306
-0.201674
-0.215169
-0.23829
-0.277979
-0.326664
-0.351574
-0.336996
-0.292255
-0.25404
-0.192502
-0.133466
-0.113428
-0.0994123
-0.0989721
-0.0982734
-0.104613
-0.117013
-0.137742
-0.108225
-0.0894468
-0.111237
-0.102467
-0.111713
-0.115176
-0.148973
-0.160543
-0.12704
-0.130752
-0.16257
-0.170936
-0.185117
-0.207913
-0.244508
-0.296017
-0.345204
-0.366338
-0.354267
-0.317978
-0.268698
-0.217838
-0.170434
-0.137938
-0.118863
-0.113249
-0.110408
-0.113824
-0.12253
-0.138478
-0.111836
-0.0995684
-0.1152
-0.110229
-0.116754
-0.120665
-0.154358
-0.164544
-0.131867
-0.135522
-0.15692
-0.164667
-0.181405
-0.212865
-0.26238
-0.324037
-0.373045
-0.390193
-0.375276
-0.335669
-0.289628
-0.239253
-0.180261
-0.149182
-0.138134
-0.128096
-0.122882
-0.123352
-0.128812
-0.140151
-0.11673
-0.10948
-0.119811
-0.118058
-0.12228
-0.126649
-0.159339
-0.168108
-0.137086
-0.140723
-0.180772
-0.187366
-0.204213
-0.238568
-0.293716
-0.360158
-0.408793
-0.422543
-0.405837
-0.367698
-0.313873
-0.262269
-0.226264
-0.184177
-0.153743
-0.143153
-0.135257
-0.133143
-0.135797
-0.142791
-0.122825
-0.119149
-0.12515
-0.126032
-0.128349
-0.13311
-0.163733
-0.171281
-0.142717
-0.146329
-0.226717
-0.229182
-0.247646
-0.279539
-0.330484
-0.39358
-0.441093
-0.453861
-0.434918
-0.398323
-0.340927
-0.286359
-0.242322
-0.204137
-0.177061
-0.157613
-0.14742
-0.143105
-0.143354
-0.146474
-0.130027
-0.128579
-0.131281
-0.134174
-0.134999
-0.140019
-0.16768
-0.174159
-0.148808
-0.15232
-0.270434
-0.274029
-0.286637
-0.315735
-0.357502
-0.411162
-0.455061
-0.469751
-0.452383
-0.414955
-0.361533
-0.304793
-0.256928
-0.219374
-0.191382
-0.171116
-0.159188
-0.153119
-0.151332
-0.151297
-0.13821
-0.13784
-0.138264
-0.14252
-0.142258
-0.147357
-0.171503
-0.17713
-0.155283
-0.158718
-0.295238
-0.299278
-0.308299
-0.327814
-0.359719
-0.400331
-0.437907
-0.454712
-0.444499
-0.413427
-0.36335
-0.307724
-0.264845
-0.230273
-0.203212
-0.183147
-0.170365
-0.163067
-0.159616
-0.157325
-0.147232
-0.147123
-0.146047
-0.151108
-0.150153
-0.155131
-0.175638
-0.180578
-0.162198
-0.16555
-0.294898
-0.297598
-0.302908
-0.313137
-0.333421
-0.358282
-0.385266
-0.402572
-0.401636
-0.382003
-0.346147
-0.301253
-0.266562
-0.236494
-0.21217
-0.193511
-0.180786
-0.172856
-0.168211
-0.164542
-0.156867
-0.156595
-0.15461
-0.159993