/*--------------------------------*- C++ -*----------------------------------*\
| =========                 |                                                 |
| \\      /  F ield         | OpenFOAM: The Open Source CFD Toolbox           |
|  \\    /   O peration     | Version:  2.4.0                                 |
|   \\  /    A nd           | Web:      www.OpenFOAM.org                      |
|    \\/     M anipulation  |                                                 |
\*---------------------------------------------------------------------------*/
FoamFile
{
    version     2.0;
    format      ascii;
    class       surfaceScalarField;
    location    "0.084";
    object      phiAlpha;
}
// * * * * * * * * * * * * * * * * * * * * * * * * * * * * * * * * * * * * * //

dimensions      [0 3 -1 0 0 0 0];

internalField   nonuniform List<scalar> 
7080
(
-2.50375e-08
2.50375e-08
-4.10819e-08
1.60444e-08
-4.68892e-08
5.80729e-09
-4.56537e-08
-1.23549e-09
-3.66315e-08
-9.0222e-09
-1.95334e-08
-1.7098e-08
4.94857e-09
-2.4482e-08
3.53718e-08
-3.04232e-08
7.03409e-08
-3.49692e-08
1.05645e-07
-3.53037e-08
1.39671e-07
-3.40268e-08
1.69151e-07
-2.94794e-08
1.9767e-07
-2.85194e-08
1.98097e-07
-4.26725e-10
2.32765e-07
-3.46683e-08
1.70385e-07
6.23798e-08
1.55067e-07
1.53185e-08
1.16136e-07
3.89311e-08
7.12901e-09
1.09007e-07
-1.14197e-07
1.21112e-07
-2.65425e-07
1.50122e-07
-3.39645e-07
7.34281e-08
-2.86993e-07
-5.16395e-08
-1.19631e-07
-1.67925e-07
5.05756e-08
-1.70715e-07
1.68885e-07
-1.19459e-07
1.93711e-07
-2.69418e-08
1.47117e-07
4.65924e-08
8.24153e-08
6.47017e-08
8.14816e-08
9.33254e-10
-3.38615e-08
5.8899e-08
-5.74148e-08
3.95977e-08
-6.91537e-08
1.75462e-08
-7.24974e-08
2.10823e-09
-6.59421e-08
-1.55776e-08
-4.84617e-08
-3.45784e-08
-2.03253e-08
-5.26185e-08
1.71831e-08
-6.79316e-08
6.21531e-08
-7.99392e-08
1.09667e-07
-8.28175e-08
1.55694e-07
-8.00542e-08
1.99802e-07
-7.35875e-08
2.37707e-07
-6.64244e-08
2.51566e-07
-1.42854e-08
3.03115e-07
-8.62176e-08
2.45623e-07
1.19872e-07
2.36133e-07
2.48087e-08
2.26704e-07
4.836e-08
1.14178e-07
2.21532e-07
-7.97993e-08
3.14745e-07
-2.78046e-07
3.45033e-07
-3.7351e-07
1.68911e-07
-2.99202e-07
-1.25907e-07
-1.72458e-07
-2.93994e-07
-6.01251e-08
-2.82536e-07
2.87675e-08
-2.08281e-07
6.86662e-08
-6.68573e-08
6.99182e-08
4.51246e-08
5.55892e-08
7.90305e-08
1.41227e-07
-4.15665e-09
-3.52894e-08
9.41883e-08
-6.01946e-08
6.4503e-08
-7.32511e-08
3.06027e-08
-7.79217e-08
6.77887e-09
-7.2508e-08
-2.09913e-08
-5.58144e-08
-5.12719e-08
-2.80001e-08
-8.04328e-08
9.6962e-09
-1.05628e-07
5.51961e-08
-1.25439e-07
1.03433e-07
-1.31055e-07
1.5005e-07
-1.26671e-07
1.95722e-07
-1.19259e-07
2.30394e-07
-1.01096e-07
2.57455e-07
-4.1347e-08
2.95085e-07
-1.23848e-07
2.6606e-07
1.48897e-07
2.60578e-07
3.02911e-08
2.47021e-07
6.19167e-08
1.59319e-07
3.09235e-07
4.93994e-09
4.68746e-07
-1.55193e-07
5.04715e-07
-2.47666e-07
2.61403e-07
-2.00225e-07
-1.73333e-07
-1.40307e-07
-3.53781e-07
-8.03963e-08
-3.4221e-07
-2.69739e-08
-2.61855e-07
1.45256e-08
-1.08374e-07
3.82148e-08
2.14355e-08
3.2892e-08
8.48906e-08
1.75482e-07
1.14612e-09
-3.55858e-08
1.29774e-07
-6.07493e-08
8.96664e-08
-7.40605e-08
4.39139e-08
-7.90582e-08
1.17766e-08
-7.39753e-08
-2.60743e-08
-5.75426e-08
-6.77046e-08
-2.98517e-08
-1.08124e-07
7.89309e-09
-1.43373e-07
5.37038e-08
-1.7125e-07
1.02254e-07
-1.79605e-07
1.49054e-07
-1.7347e-07
1.96637e-07
-1.66843e-07
2.24758e-07
-1.29217e-07
2.69684e-07
-8.62732e-08
2.79092e-07
-1.33256e-07
2.78232e-07
1.49758e-07
2.83214e-07
2.53084e-08
2.49367e-07
9.57641e-08
1.86783e-07
3.71818e-07
6.52368e-08
5.89921e-07
-3.86085e-08
6.10932e-07
-7.81855e-08
3.01e-07
-8.01126e-08
-1.71417e-07
-7.01889e-08
-3.64027e-07
-7.85093e-08
-3.34878e-07
-8.60368e-08
-2.54628e-07
-5.74497e-08
-1.37003e-07
-3.2747e-08
-3.26724e-09
-1.70578e-08
6.92216e-08
1.56166e-07
3.37719e-09
-3.5746e-08
1.6552e-07
-6.10095e-08
1.1493e-07
-7.43909e-08
5.72954e-08
-7.95392e-08
1.69249e-08
-7.4643e-08
-3.09705e-08
-5.83778e-08
-8.39697e-08
-3.07811e-08
-1.3572e-07
6.99025e-09
-1.81144e-07
5.30617e-08
-2.17321e-07
1.01851e-07
-2.28395e-07
1.48907e-07
-2.20526e-07
1.98226e-07
-2.16162e-07
2.20778e-07
-1.5177e-07
2.79747e-07
-1.45242e-07
2.51594e-07
-1.05103e-07
2.78307e-07
1.23045e-07
2.84678e-07
1.89373e-08
2.28713e-07
1.51729e-07
2.38379e-07
3.62152e-07
1.69929e-07
6.60062e-07
9.64187e-08
6.87419e-07
5.55161e-08
3.41973e-07
9.45689e-09
-1.25414e-07
-6.4706e-08
-2.90098e-07
-1.10283e-07
-2.89305e-07
-1.17128e-07
-2.48286e-07
-8.96675e-08
-1.64519e-07
-6.56355e-08
-2.72991e-08
-5.33656e-08
5.69517e-08
1.02203e-07
5.97512e-10
-3.59168e-08
2.01437e-07
-6.12724e-08
1.40286e-07
-7.47022e-08
7.07251e-08
-7.99985e-08
2.22212e-08
-7.53044e-08
-3.56647e-08
-5.92379e-08
-1.00036e-07
-3.1778e-08
-1.6318e-07
6.03628e-09
-2.18958e-07
5.23271e-08
-2.63612e-07
1.01322e-07
-2.77389e-07
1.48888e-07
-2.68092e-07
1.99321e-07
-2.66594e-07
2.20741e-07
-1.7319e-07
2.86041e-07
-2.10542e-07
2.39125e-07
-5.8187e-08
2.73412e-07
8.87579e-08
2.99139e-07
-6.78975e-09
2.47232e-07
2.03637e-07
3.00659e-07
3.08724e-07
2.72758e-07
6.88382e-07
2.57982e-07
7.02199e-07
2.26468e-07
3.73442e-07
1.17841e-07
-1.6844e-08
-2.78734e-08
-1.44269e-07
-1.23713e-07
-1.9347e-07
-1.4527e-07
-2.26717e-07
-1.04961e-07
-2.04817e-07
-5.85435e-08
-7.37164e-08
-4.72474e-08
4.56556e-08
5.77984e-08
-2.84229e-09
-3.61188e-08
2.37556e-07
-6.15805e-08
1.65747e-07
-7.50623e-08
8.42069e-08
-8.05334e-08
2.76923e-08
-7.60823e-08
-4.01157e-08
-6.02614e-08
-1.15857e-07
-3.29798e-08
-1.90462e-07
4.84168e-09
-2.5678e-07
5.1419e-08
-3.10189e-07
1.00625e-07
-3.26596e-07
1.49055e-07
-3.16522e-07
1.99558e-07
-3.17097e-07
2.26521e-07
-2.00153e-07
2.91537e-07
-2.75558e-07
2.56405e-07
-2.30555e-08
2.71994e-07
7.31698e-08
3.33973e-07
-6.87693e-08
2.63709e-07
2.73901e-07
3.0776e-07
2.64673e-07
3.75061e-07
6.21081e-07
3.7446e-07
7.028e-07
3.4305e-07
4.04515e-07
2.82128e-07
4.40379e-08
1.31112e-07
6.71e-09
-5.91502e-08
-3.1003e-09
-1.39406e-07
-1.46421e-07
-1.3605e-07
-2.08125e-07
-6.60665e-08
-1.437e-07
-3.00691e-08
9.65819e-09
2.90561e-08
-1.32685e-09
-3.63549e-08
2.73911e-07
-6.19394e-08
1.91332e-07
-7.54796e-08
9.77471e-08
-8.11563e-08
3.33691e-08
-7.69934e-08
-4.42787e-08
-6.14663e-08
-1.31384e-07
-3.44037e-08
-2.17524e-07
3.42024e-09
-2.94604e-07
5.03348e-08
-3.57104e-07
9.9751e-08
-3.76012e-07
1.49402e-07
-3.66173e-07
1.98292e-07
-3.65987e-07
2.40123e-07
-2.41984e-07
2.8611e-07
-3.21545e-07
3.0424e-07
-4.11854e-08
2.84514e-07
9.28956e-08
3.47086e-07
-1.31341e-07
2.92794e-07
3.28193e-07
2.72022e-07
2.85445e-07
3.93676e-07
4.99427e-07
4.69114e-07
6.27362e-07
4.40978e-07
4.32569e-07
3.41839e-07
1.43169e-07
2.27901e-07
1.20757e-07
9.66739e-08
1.28226e-07
-3.64899e-08
-1.32516e-08
-1.19753e-07
-1.24916e-07
-8.23473e-08
-1.81017e-07
-2.05137e-08
-5.21755e-08
1.04092e-08
-1.86671e-09
-3.66258e-08
3.10536e-07
-6.23497e-08
2.17056e-07
-7.59543e-08
1.11352e-07
-8.18683e-08
3.92831e-08
-7.8039e-08
-4.8108e-08
-6.28551e-08
-1.46568e-07
-3.60554e-08
-2.44324e-07
1.76709e-09
-3.32426e-07
4.90607e-08
-4.04397e-07
9.87107e-08
-4.25662e-07
1.4964e-07
-4.17102e-07
1.96652e-07
-4.12999e-07
2.53908e-07
-2.9924e-07
2.65654e-07
-3.33291e-07
3.29514e-07
-1.05046e-07
3.31437e-07
9.09728e-08
3.56504e-07
-1.56408e-07
3.75942e-07
3.08755e-07
2.9109e-07
3.70296e-07
3.39083e-07
4.51435e-07
4.39088e-07
5.27356e-07
4.39745e-07
4.31913e-07
3.61138e-07
2.21786e-07
2.95341e-07
1.86572e-07
2.60011e-07
1.63564e-07
1.63468e-07
8.3292e-08
5.88068e-08
-2.03698e-08
-1.4888e-08
-1.07366e-07
-5.9549e-09
-6.10858e-08
5.40826e-09
-9.53981e-10
-3.69321e-08
3.47469e-07
-6.28116e-08
2.42935e-07
-7.64851e-08
1.25025e-07
-8.26684e-08
4.54664e-08
-7.92189e-08
-5.15575e-08
-6.44293e-08
-1.61358e-07
-3.79398e-08
-2.70814e-07
-2.73684e-10
-3.70092e-07
4.75849e-08
-4.52256e-07
9.75102e-08
-4.75587e-07
1.49367e-07
-4.68959e-07
1.97459e-07
-4.61091e-07
2.56931e-07
-3.58712e-07
2.59936e-07
-3.36296e-07
3.38376e-07
-1.83485e-07
3.85047e-07
4.43016e-08
3.41896e-07
-1.13257e-07
3.79131e-07
2.7152e-07
3.17402e-07
4.32026e-07
2.71738e-07
4.97098e-07
3.27115e-07
4.71979e-07
3.6714e-07
3.91888e-07
3.57138e-07
2.31789e-07
3.29395e-07
2.14314e-07
2.85143e-07
2.07817e-07
2.58947e-07
1.09488e-07
2.21945e-07
1.6632e-08
1.2134e-07
-6.82038e-09
4.63072e-08
1.39478e-08
5.25052e-08
-7.85381e-10
-3.72741e-08
3.84743e-07
-6.33249e-08
2.68986e-07
-7.70704e-08
1.38771e-07
-8.35554e-08
5.19514e-08
-8.05324e-08
-5.45805e-08
-6.61902e-08
-1.757e-07
-4.00609e-08
-2.96943e-07
-2.45844e-09
-4.07695e-07
4.58971e-08
-5.00612e-07
9.61236e-08
-5.25814e-07
1.48721e-07
-5.21557e-07
2.00176e-07
-5.12545e-07
2.51974e-07
-4.1051e-07
2.80953e-07
-3.65275e-07
3.54504e-07
-2.57036e-07
3.91859e-07
6.94667e-09
3.35854e-07
-5.72521e-08
3.56212e-07
2.51162e-07
3.38514e-07
4.49723e-07
3.04597e-07
5.31016e-07
3.15884e-07
4.60692e-07
3.15996e-07
3.91776e-07
3.15412e-07
2.32372e-07
3.5303e-07
1.76696e-07
3.57811e-07
2.03036e-07
2.70633e-07
1.96666e-07
1.29363e-07
1.57816e-07
2.61569e-08
9.63284e-08
1.7253e-10
3.99475e-08
4.84205e-08
4.25781e-09
-3.76523e-08
4.22395e-07
-6.38897e-08
2.95224e-07
-7.77082e-08
1.52589e-07
-8.45277e-08
5.87709e-08
-8.19789e-08
-5.71294e-08
-6.8139e-08
-1.8954e-07
-4.24245e-08
-3.22658e-07
-4.86309e-09
-4.45256e-07
4.39886e-08
-5.49463e-07
9.45036e-08
-5.76329e-07
1.48112e-07
-5.75166e-07
2.0189e-07
-5.66323e-07
2.48885e-07
-4.57504e-07
3.05271e-07
-4.21662e-07
3.48869e-07
-3.00634e-07
3.80744e-07
-2.49285e-08
3.68769e-07
-4.52776e-08
3.57979e-07
2.61952e-07
3.61841e-07
4.45861e-07
3.52592e-07
5.40265e-07
3.40255e-07
4.7303e-07
3.85015e-07
3.47016e-07
3.99013e-07
2.18373e-07
3.45267e-07
2.30443e-07
2.52269e-07
2.96034e-07
1.59549e-07
2.89386e-07
9.34464e-08
2.23888e-07
4.99087e-08
1.39809e-07
1.6144e-08
7.36948e-08
6.84904e-08
-3.92478e-09
-3.80674e-08
4.60462e-07
-6.45059e-08
3.21662e-07
-7.83963e-08
1.6648e-07
-8.55841e-08
6.59588e-08
-8.35572e-08
-5.91563e-08
-7.02768e-08
-2.0282e-07
-4.50379e-08
-3.47897e-07
-7.50211e-09
-4.82792e-07
4.18458e-08
-5.98811e-07
9.26433e-08
-6.27126e-07
1.4761e-07
-6.30132e-07
2.01458e-07
-6.20172e-07
2.54912e-07
-5.10958e-07
3.07463e-07
-4.74212e-07
3.49043e-07
-3.42215e-07
3.7804e-07
-5.39251e-08
3.92631e-07
-5.98687e-08
4.07079e-07
2.47504e-07
4.01834e-07
4.51106e-07
4.09826e-07
5.32273e-07
4.25542e-07
4.57314e-07
3.69797e-07
4.02762e-07
2.3308e-07
3.5509e-07
1.57117e-07
3.06406e-07
1.50115e-07
3.03035e-07
1.80281e-07
2.5922e-07
1.66622e-07
2.37556e-07
1.08792e-07
1.97582e-07
4.35051e-08
1.39014e-07
1.14801e-07
-2.7922e-09
-3.852e-08
4.98982e-07
-6.51735e-08
3.48316e-07
-7.91315e-08
1.80438e-07
-8.67219e-08
7.35492e-08
-8.5267e-08
-6.06112e-08
-7.26055e-08
-2.15481e-07
-4.79087e-08
-3.72593e-07
-1.03784e-08
-5.20322e-07
3.94535e-08
-6.48643e-07
9.05751e-08
-6.78248e-07
1.46889e-07
-6.86447e-07
2.00661e-07
-6.73943e-07
2.58817e-07
-5.69115e-07
3.06413e-07
-5.21808e-07
3.23675e-07
-3.59477e-07
3.94074e-07
-1.24324e-07
4.68559e-07
-1.34354e-07
5.08914e-07
2.07149e-07
5.2654e-07
4.33481e-07
5.26545e-07
5.32268e-07
4.22981e-07
5.60878e-07
3.18598e-07
5.07145e-07
3.25587e-07
3.48101e-07
3.69517e-07
2.62476e-07
3.82386e-07
2.90166e-07
3.06876e-07
3.3473e-07
1.69246e-07
3.75186e-07
6.65899e-08
3.00182e-07
1.87197e-08
1.86968e-07
1.32444e-07
1.08302e-09
-3.90109e-08
5.37993e-07
-6.58925e-08
3.75197e-07
-7.991e-08
1.94455e-07
-8.79394e-08
8.15786e-08
-8.7106e-08
-6.14447e-08
-7.51261e-08
-2.27461e-07
-5.10469e-08
-3.96673e-07
-1.34925e-08
-5.57877e-07
3.67968e-08
-6.98932e-07
8.83172e-08
-7.29768e-07
1.45826e-07
-7.43955e-07
1.98376e-07
-7.26493e-07
2.6352e-07
-6.34259e-07
2.74474e-07
-5.32762e-07
3.28224e-07
-4.13227e-07
4.74684e-07
-2.70784e-07
5.3803e-07
-1.977e-07
5.81489e-07
1.63689e-07
5.28011e-07
4.86959e-07
4.47748e-07
6.1253e-07
3.82395e-07
6.26232e-07
2.993e-07
5.90239e-07
1.37182e-07
5.10219e-07
-1.08584e-09
4.00744e-07
-4.88015e-08
3.37881e-07
-1.00791e-07
3.8672e-07
-1.16503e-07
3.90912e-07
-8.19971e-08
2.65828e-07
-3.87968e-08
1.43794e-07
9.38742e-08
-2.25386e-10
-3.9541e-08
5.77534e-07
-6.66627e-08
4.02319e-07
-8.07262e-08
2.08519e-07
-8.92337e-08
9.00861e-08
-8.90736e-08
-6.16048e-08
-7.78396e-08
-2.38695e-07
-5.44632e-08
-4.20049e-07
-1.68419e-08
-5.95498e-07
3.38578e-08
-7.49632e-07
8.59056e-08
-7.81816e-07
1.43638e-07
-8.01687e-07
1.97193e-07
-7.80048e-07
2.49521e-07
-6.86588e-07
2.60394e-07
-5.43635e-07
3.54632e-07
-5.07464e-07
5.19384e-07
-4.35536e-07
4.78089e-07
-1.56405e-07
3.89807e-07
2.51971e-07
3.59924e-07
5.16842e-07
3.26087e-07
6.46367e-07
2.42215e-07
7.10103e-07
1.63941e-07
6.68513e-07
4.27486e-08
6.31412e-07
-7.25774e-08
5.1607e-07
-1.37244e-07
4.02548e-07
-1.4708e-07
3.96557e-07
-9.17292e-08
3.35572e-07
-3.48059e-08
2.08904e-07
-1.04105e-08
1.19398e-07
8.71752e-08
-3.72022e-09
-4.01111e-08
6.17645e-07
-6.74843e-08
4.29692e-07
-8.15724e-08
2.22607e-07
-9.06034e-08
9.9117e-08
-9.11676e-08
-6.10405e-08
-8.07468e-08
-2.49116e-07
-5.81698e-08
-4.42626e-07
-2.04235e-08
-6.33244e-07
3.06119e-08
-8.00667e-07
8.32567e-08
-8.34461e-07
1.40171e-07
-8.58601e-07
1.9405e-07
-8.33928e-07
2.20468e-07
-7.13006e-07
2.92772e-07
-6.15938e-07
3.77307e-07
-5.91999e-07
4.14384e-07
-4.72614e-07
3.73758e-07
-1.15779e-07
3.67332e-07
2.58397e-07
3.64967e-07
5.19207e-07
3.9931e-07
6.12024e-07
4.12704e-07
6.9671e-07
4.2266e-07
6.58557e-07
4.49977e-07
6.04094e-07
4.15407e-07
5.5064e-07
3.12906e-07
5.0505e-07
2.45208e-07
4.64255e-07
2.14674e-07
3.66103e-07
1.65991e-07
2.57584e-07
8.76054e-08
1.97783e-07
1.80546e-07
-5.78343e-09
-4.07224e-08
6.58368e-07
-6.83573e-08
4.57327e-07
-8.24465e-08
2.36696e-07
-9.20468e-08
1.08717e-07
-9.33855e-08
-5.97018e-08
-8.38482e-08
-2.58654e-07
-6.21809e-08
-4.64293e-07
-2.42338e-08
-6.71191e-07
2.7013e-08
-8.51914e-07
8.01582e-08
-8.87606e-07
1.3581e-07
-9.14253e-07
1.85931e-07
-8.84049e-07
2.06453e-07
-7.33528e-07
3.09071e-07
-7.18556e-07
3.42647e-07
-6.25575e-07
3.76006e-07
-5.05973e-07
5.41878e-07
-2.81651e-07
5.68279e-07
2.31995e-07
3.97093e-07
6.90394e-07
3.16863e-07
6.92254e-07
2.87445e-07
7.26128e-07
1.32276e-07
8.13726e-07
7.72807e-08
6.5909e-07
1.47817e-07
4.80103e-07
2.1922e-07
4.33647e-07
2.65572e-07
4.17899e-07
2.72846e-07
3.58826e-07
2.10708e-07
3.19721e-07
1.07798e-07
3.00693e-07
2.9363e-07
-5.29492e-09
-4.13761e-08
6.99744e-07
-6.92816e-08
4.85233e-07
-8.33516e-08
2.50766e-07
-9.35611e-08
1.18927e-07
-9.57262e-08
-5.75366e-08
-8.71441e-08
-2.67236e-07
-6.65138e-08
-4.84924e-07
-2.82682e-08
-7.09437e-07
2.29932e-08
-9.03176e-07
7.64375e-08
-9.4105e-07
1.31504e-07
-9.69319e-07
1.74957e-07
-9.27502e-07
2.26435e-07
-7.85006e-07
2.80789e-07
-7.72911e-07
3.51775e-07
-6.9656e-07
5.18669e-07
-6.72866e-07
5.64209e-07
-3.27201e-07
4.41485e-07
3.54718e-07
3.42816e-07
7.89063e-07
4.42701e-07
5.92368e-07
6.4478e-07
5.24049e-07
4.84711e-07
9.73795e-07
2.27973e-07
9.15827e-07
1.05351e-07
6.02725e-07
1.14779e-07
4.24219e-07
1.42108e-07
3.90567e-07
1.61069e-07
3.39867e-07
1.41905e-07
3.38885e-07
7.3202e-08
3.69338e-07
3.65549e-07
1.27341e-09
-4.20734e-08
7.41817e-07
-7.02575e-08
5.13417e-07
-8.42906e-08
2.64799e-07
-9.51443e-08
1.29781e-07
-9.81864e-08
-5.44945e-08
-9.06335e-08
-2.74788e-07
-7.11882e-08
-5.04369e-07
-3.25178e-08
-7.48107e-07
1.84628e-08
-9.54156e-07
7.22879e-08
-9.94875e-07
1.28397e-07
-1.02543e-06
1.67361e-07
-9.66466e-07
2.35964e-07
-8.53609e-07
2.46812e-07
-7.83759e-07
4.04302e-07
-8.54043e-07
4.61623e-07
-7.15068e-07
3.82087e-07
-2.22234e-07
5.524e-07
9.85359e-08
7.247e-07
5.03689e-07
6.77153e-07
5.63544e-07
7.30402e-07
4.53029e-07
8.63798e-07
8.40398e-07
8.28396e-07
9.5123e-07
5.13271e-07
9.17851e-07
2.39839e-07
6.9765e-07
9.74995e-08
5.32907e-07
6.02182e-08
3.7715e-07
5.75815e-08
3.41297e-07
2.96707e-08
3.97197e-07
3.90102e-07
5.13672e-09
-4.28157e-08
7.84633e-07
-7.1285e-08
5.41886e-07
-8.52696e-08
2.78784e-07
-9.67939e-08
1.41305e-07
-1.00763e-07
-5.05256e-08
-9.43162e-08
-2.81235e-07
-7.62283e-08
-5.22457e-07
-3.69588e-08
-7.87377e-07
1.34399e-08
-1.00455e-06
6.82612e-08
-1.0497e-06
1.26272e-07
-1.08344e-06
1.64139e-07
-1.00433e-06
2.13083e-07
-9.02553e-07
2.84538e-07
-8.55206e-07
2.87003e-07
-8.56258e-07
2.42212e-07
-3.61906e-07
5.59004e-08
-2.53518e-09
-3.16722e-07
1.67765e-07
-2.14581e-07
2.78968e-07
-2.08559e-07
5.14928e-07
-6.78338e-08
2.59385e-07
3.49676e-07
3.91397e-07
6.26049e-07
6.5892e-07
5.19295e-07
1.0246e-06
2.88631e-07
9.28314e-07
1.24123e-07
6.97414e-07
4.75321e-08
4.53739e-07
2.30828e-08
3.65673e-07
8.93442e-09
4.1139e-07
3.94241e-07
4.79802e-09
-4.36047e-08
8.28238e-07
-7.23644e-08
5.70646e-07
-8.62914e-08
2.92711e-07
-9.8507e-08
1.5352e-07
-1.03452e-07
-4.55806e-08
-9.81897e-08
-2.86497e-07
-8.16591e-08
-5.38987e-07
-4.155e-08
-8.27486e-07
8.6274e-09
-1.05473e-06
6.44019e-08
-1.10547e-06
1.21757e-07
-1.14079e-06
1.55577e-07
-1.03815e-06
1.95831e-07
-9.42799e-07
2.33638e-07
-8.92737e-07
3.07105e-07
-4.43187e-07
2.3673e-08
-1.91463e-08
-6.50633e-09
1.02864e-08
-2.40615e-07
7.77904e-08
-3.16584e-07
1.51598e-07
-2.83972e-07
4.5241e-07
-1.84079e-07
1.64285e-07
-1.08184e-07
3.17574e-07
2.77231e-07
2.62095e-07
4.78021e-07
8.23874e-07
3.52796e-07
1.05354e-06
2.10674e-07
8.39534e-07
9.90461e-08
5.65368e-07
3.0759e-08
4.33887e-07
7.00332e-09
4.35212e-07
3.9775e-07
3.49519e-09
-4.44419e-08
8.72679e-07
-7.34958e-08
5.99699e-07
-8.73507e-08
3.06566e-07
-1.00281e-07
1.66451e-07
-1.0625e-07
-3.96121e-08
-1.02253e-07
-2.90494e-07
-8.75081e-08
-5.53732e-07
-4.6235e-08
-8.68759e-07
4.10925e-09
-1.10508e-06
5.8678e-08
-1.16004e-06
1.08503e-07
-1.19062e-06
1.40928e-07
-1.07057e-06
1.80951e-07
-9.82551e-07
1.83389e-07
-3.46547e-07
2.00965e-08
-1.29299e-08
1.72449e-09
-5.64115e-10
1.15766e-08
8.99877e-10
-3.96781e-08
-1.0455e-08
-2.5162e-07
1.68535e-08
-1.02415e-07
2.04768e-07
7.7889e-08
-2.90403e-08
1.26764e-07
2.79513e-07
2.37526e-07
1.60328e-07
3.97234e-07
6.47299e-07
3.7361e-07
1.07573e-06
2.73355e-07
9.39787e-07
1.44607e-07
6.94118e-07
5.19141e-08
5.26507e-07
1.53201e-08
4.71763e-07
4.12492e-07
4.32207e-10
-4.53292e-08
9.18009e-07
-7.46792e-08
6.29049e-07
-8.8442e-08
3.20328e-07
-1.0211e-07
1.80118e-07
-1.09151e-07
-3.25709e-08
-1.06501e-07
-2.93144e-07
-9.3806e-08
-5.66427e-07
-5.09768e-08
-9.11588e-07
-1.7012e-09
-1.15435e-06
4.50124e-08
-1.20675e-06
8.0639e-08
-1.22625e-06
1.20466e-07
-1.11022e-06
6.32439e-08
-2.84443e-07
1.31484e-08
-8.97786e-09
6.25414e-10
-3.42144e-10
7.65984e-11
-1.32367e-11
7.43447e-10
4.15418e-10
-1.5644e-08
6.16e-09
-1.39162e-07
-1.66552e-08
-2.2681e-07
5.89743e-08
-1.66465e-07
-1.46642e-07
5.69065e-08
5.515e-08
9.57215e-08
1.21778e-07
2.02904e-07
5.39295e-07
2.92661e-07
9.8651e-07
2.28659e-07
1.00379e-06
1.35772e-07
7.87007e-07
6.16652e-08
6.00894e-07
2.27305e-08
5.10657e-07
4.36058e-07
-9.63837e-10
-4.62699e-08
9.64278e-07
-7.59161e-08
6.58696e-07
-8.95622e-08
3.33974e-07
-1.03994e-07
1.9455e-07
-1.12155e-07
-2.44098e-08
-1.10933e-07
-2.94365e-07
-1.00579e-07
-5.76782e-07
-5.57649e-08
-9.56402e-07
-1.19589e-08
-1.19816e-06
1.09878e-08
-1.2297e-06
3.57009e-08
-1.25095e-06
4.80068e-08
-4.43945e-07
8.76197e-09
-1.58015e-08
3.38115e-10
-4.80078e-10
3.05306e-11
-3.38773e-11
1.83988e-11
-2.81873e-12
-3.02579e-09
1.98072e-09
-1.41103e-10
2.44891e-09
5.29825e-09
-2.50805e-08
-2.93964e-07
3.2447e-08
-3.85188e-07
-2.26194e-07
-1.5427e-07
-1.76309e-07
-3.34169e-08
1.49181e-09
6.9128e-08
4.35919e-07
1.76986e-07
8.58313e-07
1.60793e-07
1.01884e-06
1.23981e-07
8.23821e-07
7.33391e-08
6.51546e-07
2.79399e-08
5.53957e-07
4.65505e-07
-1.44648e-09
-4.72364e-08
1.01151e-06
-7.72003e-08
6.8866e-07
-9.07004e-08
3.47475e-07
-1.05914e-07
2.09764e-07
-1.15235e-07
-1.50894e-08
-1.15521e-07
-2.94079e-07
-1.07854e-07
-5.84449e-07
-6.07856e-08
-1.00347e-06
-3.60053e-08
-1.22294e-06
-3.5068e-08
-1.23064e-06
1.00639e-07
-9.93637e-07
1.34203e-08
-7.34114e-08
3.54235e-10
-2.79639e-09
2.90089e-11
-1.61992e-10
7.66778e-12
-1.45445e-11
4.38165e-12
-1.05476e-12
-9.8795e-12
1.2562e-10
-3.40585e-10
1.07077e-09
-2.39558e-08
-7.64314e-10
-2.03823e-07
-2.80809e-08
-3.86301e-07
-3.57132e-07
-2.62574e-07
-3.00108e-07
-1.34149e-07
-1.24793e-07
-8.0701e-08
3.90678e-07
-1.09264e-09
7.85433e-07
2.5646e-08
9.92086e-07
3.27818e-08
8.16684e-07
3.51535e-08
6.49179e-07
9.09814e-09
5.80004e-07
4.78335e-07
-3.74772e-09
-4.86999e-08
1.06021e-06
-7.85734e-08
7.18533e-07
-9.18901e-08
3.60791e-07
-1.07921e-07
2.25796e-07
-1.18433e-07
-4.57793e-09
-1.20302e-07
-2.9221e-07
-1.15689e-07
-5.89061e-07
-6.75837e-08
-1.05158e-06
-9.09415e-08
-1.19958e-06
-3.00256e-08
-1.31573e-06
6.97363e-08
-5.37757e-07
2.25655e-09
-1.08586e-08
1.27529e-10
-7.3313e-10
1.54167e-11
-5.2016e-11
3.88155e-12
-4.64542e-12
1.36077e-12
4.90112e-14
6.60733e-11
5.71666e-11
6.03136e-10
3.829e-10
7.99625e-10
-1.11948e-10
-2.55187e-08
2.06995e-09
-3.78364e-07
-2.2055e-07
-3.65756e-07
-3.12372e-07
-2.64846e-07
-2.25535e-07
-2.10626e-07
3.47433e-07
-1.62059e-07
7.44335e-07
-9.09632e-08
9.20589e-07
-4.75e-08
7.73224e-07
-2.9316e-08
6.31e-07
-1.46383e-08
5.6534e-07
4.67591e-07
-5.29989e-09
-4.50314e-08
1.10525e-06
-7.975e-08
7.53252e-07
-9.27618e-08
3.73803e-07
-1.09668e-07
2.42702e-07
-1.21564e-07
7.31746e-09
-1.25211e-07
-2.88563e-07
-1.24423e-07
-5.89849e-07
-8.3679e-08
-1.09232e-06
-1.3045e-07
-1.15279e-06
3.92444e-07
-1.10914e-06
1.15204e-08
-3.64341e-08
7.74157e-10
-4.90536e-11
4.40343e-11
-1.76939e-12
-2.53954e-12
-3.85887e-12
2.59676e-12
-1.39997e-11
2.52397e-13
9.79777e-13
2.30215e-11
3.32826e-11
2.24028e-10
1.47635e-10
1.40619e-09
3.44362e-11
1.65347e-08
9.78895e-09
-4.19219e-07
-7.3562e-08
-5.51388e-07
-4.37124e-07
-4.17777e-07
-3.59041e-07
-3.01853e-07
2.33891e-07
-2.27992e-07
6.76344e-07
-1.31884e-07
8.2382e-07
-7.51172e-08
7.16462e-07
-4.9453e-08
6.03442e-07
-1.61062e-08
5.32015e-07
4.5071e-07
7.88755e-10
-8.54276e-08
1.19067e-06
-8.18677e-08
7.49692e-07
-9.63877e-08
3.88323e-07
-1.13582e-07
2.59897e-07
-1.25675e-07
1.94101e-08
-1.30701e-07
-2.83537e-07
-1.36667e-07
-5.83883e-07
-1.4676e-07
-1.08222e-06
1.26679e-07
-1.42548e-06
3.33181e-08
-1.75716e-07
2.38772e-11
-3.03971e-09
1.14708e-12
-2.37217e-11
1.14571e-12
-1.65489e-12
1.77451e-12
-9.50687e-13
7.59449e-12
-5.30973e-11
-5.40312e-13
7.70096e-12
2.87885e-11
9.58161e-11
1.06064e-10
4.97858e-11
1.1418e-10
2.90738e-11
9.77469e-09
3.08279e-09
-1.1735e-07
5.70707e-09
-3.48887e-07
-3.46373e-07
-5.60873e-07
-1.46999e-07
-3.85003e-07
5.80307e-08
-3.09977e-07
6.01354e-07
-1.91494e-07
7.05246e-07
-1.0735e-07
6.31493e-07
-5.55969e-08
5.51625e-07
-1.5547e-08
4.92012e-07
4.3056e-07
4.62301e-09
1.14126e-07
1.07655e-06
-8.87146e-08
9.52532e-07
-8.6467e-08
3.86076e-07
-1.08622e-07
2.82052e-07
-1.26483e-07
3.72708e-08
-1.38937e-07
-2.71083e-07
-1.6751e-07
-5.55311e-07
-2.47258e-07
-9.37977e-07
9.83536e-08
-4.03814e-07
1.93913e-09
-8.15282e-09
1.46665e-11
-1.09378e-09
1.0669e-12
-1.28001e-11
7.46038e-13
-8.54918e-13
2.15135e-12
-1.22915e-11
6.04216e-12
-2.60136e-11
-1.32621e-12
4.27533e-11
6.3135e-11
3.82288e-11
6.57477e-11
2.63234e-11
1.89531e-10
3.18873e-10
2.26635e-09
1.17798e-09
8.51516e-09
-1.3033e-10
-5.71303e-07
8.98297e-08
-6.37751e-07
-8.0546e-08
-3.98506e-07
-1.81206e-07
-2.85477e-07
4.88333e-07
-1.84534e-07
6.04625e-07
-1.193e-07
5.66172e-07
-6.34171e-08
4.95799e-07
-1.78395e-08
4.46456e-07
4.0046e-09
4.09548e-07
-8.39957e-08
8.49285e-08
-1.48573e-07
6.45764e-08
-1.96785e-07
4.82112e-08
-1.74584e-07
-2.43572e-08
-5.63535e-08
-1.19369e-07
1.13496e-07
-1.70327e-07
2.83865e-07
-1.70897e-07
3.38767e-07
-5.39186e-08
2.65736e-07
7.21883e-08
1.13844e-07
1.50799e-07
-7.75249e-09
1.21384e-07
-1.16346e-07
1.08593e-07
-1.54745e-07
3.8399e-08
-1.69977e-07
1.5232e-08
-2.31935e-07
6.19577e-08
-1.97946e-07
-3.39891e-08
-1.96843e-07
-1.10304e-09
-1.68861e-07
-2.79813e-08
-1.39182e-07
-2.96788e-08
-1.05362e-07
-3.38204e-08
-7.00485e-08
-3.53135e-08
-3.52167e-08
-3.48317e-08
-4.79411e-09
-3.04226e-08
1.96307e-08
-2.44248e-08
3.66478e-08
-1.7017e-08
4.56007e-08
-8.95298e-09
4.67957e-08
-1.19496e-09
4.09806e-08
5.81512e-09
2.50062e-08
1.59744e-08
2.50062e-08
-6.04118e-08
1.41183e-07
-7.15948e-08
7.57594e-08
-7.07039e-08
4.70685e-08
-3.23113e-08
-6.27775e-08
5.54756e-08
-2.07072e-07
1.65937e-07
-2.80267e-07
2.9432e-07
-2.98623e-07
3.70631e-07
-1.30215e-07
2.75972e-07
1.66865e-07
7.80208e-08
3.4547e-07
-1.15203e-07
3.14265e-07
-2.26526e-07
2.19916e-07
-2.35753e-07
4.7626e-08
-2.45183e-07
2.46623e-08
-3.0212e-07
1.18895e-07
-2.51416e-07
-8.46931e-08
-2.36737e-07
-1.57824e-08
-1.99462e-07
-6.5256e-08
-1.55148e-07
-7.39933e-08
-1.09328e-07
-7.964e-08
-6.18198e-08
-8.28217e-08
-1.69807e-08
-7.96708e-08
2.05042e-08
-6.79076e-08
4.85499e-08
-5.24705e-08
6.59294e-08
-3.43965e-08
7.24078e-08
-1.54315e-08
6.90321e-08
2.18081e-09
5.72967e-08
1.75505e-08
3.38288e-08
3.94423e-08
5.8835e-08
-3.08512e-08
1.75691e-07
-3.78343e-08
8.32261e-08
-1.49387e-08
2.41731e-08
2.79999e-08
-1.05744e-07
8.09945e-08
-2.60224e-07
1.38312e-07
-3.37248e-07
1.97093e-07
-3.57263e-07
2.44814e-07
-1.77927e-07
1.52914e-07
2.5878e-07
-4.91859e-09
5.02874e-07
-1.59064e-07
4.68029e-07
-2.4654e-07
3.07392e-07
-2.59941e-07
6.10273e-08
-2.6545e-07
3.0171e-08
-2.93728e-07
1.47172e-07
-2.5731e-07
-1.2111e-07
-2.29375e-07
-4.37179e-08
-1.95375e-07
-9.92555e-08
-1.49501e-07
-1.19867e-07
-1.03087e-07
-1.26055e-07
-5.48563e-08
-1.31052e-07
-9.443e-09
-1.25084e-07
2.81819e-08
-1.05532e-07
5.59018e-08
-8.01903e-08
7.24908e-08
-5.09856e-08
7.78263e-08
-2.07669e-08
7.31254e-08
6.88177e-09
6.00745e-08
3.06014e-08
3.52568e-08
6.426e-08
9.40918e-08
2.23133e-08
1.57907e-07
3.48637e-08
7.07332e-08
5.9176e-08
-1.39084e-10
8.88995e-08
-1.3549e-07
8.17875e-08
-2.53503e-07
7.13388e-08
-3.27735e-07
7.97172e-08
-3.65878e-07
7.64844e-08
-1.7471e-07
3.71653e-08
2.98116e-07
-6.6164e-08
6.08547e-07
-1.87415e-07
5.88904e-07
-2.48283e-07
3.6826e-07
-2.82598e-07
9.53428e-08
-2.77242e-07
2.48143e-08
-2.77362e-07
1.47292e-07
-2.69472e-07
-1.29e-07
-2.23736e-07
-8.94539e-08
-1.96281e-07
-1.2671e-07
-1.48509e-07
-1.6764e-07
-1.01913e-07
-1.72651e-07
-5.33604e-08
-1.79604e-07
-7.65786e-09
-1.70787e-07
3.0036e-08
-1.43226e-07
5.76312e-08
-1.07786e-07
7.39572e-08
-6.73116e-08
7.89613e-08
-2.57711e-08
7.39332e-08
1.19099e-08
6.0628e-08
4.39066e-08
3.55532e-08
8.93348e-08
1.29645e-07
5.37537e-08
1.04751e-07
6.49016e-08
5.95854e-08
9.06656e-08
-2.59031e-08
1.18924e-07
-1.63749e-07
1.12287e-07
-2.47336e-07
6.69919e-08
-2.82657e-07
-9.51513e-09
-2.89659e-07
-5.68733e-08
-1.27402e-07
-9.81639e-08
3.39473e-07
-1.70838e-07
6.84224e-07
-2.39782e-07
6.59377e-07
-2.27462e-07
3.5594e-07
-2.82662e-07
1.50543e-07
-2.77154e-07
1.93065e-08
-2.49503e-07
1.19641e-07
-2.79498e-07
-9.90051e-08
-2.19812e-07
-1.4914e-07
-1.97864e-07
-1.48657e-07
-1.48369e-07
-2.17135e-07
-1.01512e-07
-2.19507e-07
-5.27223e-08
-2.28394e-07
-6.75738e-09
-2.16752e-07
3.09669e-08
-1.80951e-07
5.84673e-08
-1.35286e-07
7.46239e-08
-8.34682e-08
7.94409e-08
-3.05881e-08
7.42621e-08
1.70886e-08
6.08871e-08
5.72816e-08
3.57135e-08
1.14508e-07
1.65359e-07
4.29686e-08
5.89402e-08
5.59335e-08
4.66205e-08
1.04888e-07
-7.48578e-08
1.45403e-07
-2.04251e-07
1.23627e-07
-2.25547e-07
3.01774e-08
-1.89194e-07
-1.17529e-07
-1.4184e-07
-2.28512e-07
-1.64698e-08
-2.59855e-07
3.70758e-07
-2.73552e-07
6.97925e-07
-3.01024e-07
6.87352e-07
-2.46322e-07
3.01237e-07
-2.98453e-07
2.02674e-07
-2.72278e-07
-6.86816e-09
-2.37706e-07
8.50689e-08
-2.85849e-07
-5.08624e-08
-2.19917e-07
-2.15072e-07
-1.98952e-07
-1.69623e-07
-1.48356e-07
-2.67731e-07
-1.00985e-07
-2.66878e-07
-5.19869e-08
-2.77393e-07
-5.76417e-09
-2.62974e-07
3.19654e-08
-2.1868e-07
5.9328e-08
-1.62648e-07
7.52839e-08
-9.94241e-08
7.98984e-08
-3.52026e-08
7.45716e-08
2.24154e-08
6.11487e-08
7.07045e-08
3.58845e-08
1.39773e-07
2.01243e-07
2.78606e-08
2.97528e-08
6.498e-08
9.50111e-09
1.35028e-07
-1.44906e-07
1.39206e-07
-2.08386e-07
6.05647e-08
-1.46856e-07
-1.27818e-07
-7.09261e-10
-2.82527e-07
1.28307e-08
-3.43961e-07
4.49215e-08
-3.74421e-07
4.00893e-07
-3.75861e-07
6.99364e-07
-3.08697e-07
6.20188e-07
-2.62755e-07
2.55295e-07
-3.32212e-07
2.72132e-07
-2.71467e-07
-6.7613e-08
-2.55904e-07
6.95056e-08
-2.91537e-07
-1.52295e-08
-2.25877e-07
-2.80731e-07
-1.99177e-07
-1.96324e-07
-1.48526e-07
-3.18382e-07
-1.00293e-07
-3.15111e-07
-5.10838e-08
-3.26602e-07
-4.5699e-09
-3.09488e-07
3.31685e-08
-2.56419e-07
6.03521e-08
-1.89832e-07
7.60602e-08
-1.15132e-07
8.04311e-08
-3.95735e-08
7.49295e-08
2.7917e-08
6.14552e-08
8.41787e-08
3.60867e-08
1.65141e-07
2.3733e-07
1.76152e-08
1.02708e-08
8.11002e-08
-5.39839e-08
1.17306e-07
-1.81021e-07
3.21267e-08
-1.23268e-07
-1.02987e-07
-1.17249e-08
-2.3351e-07
1.29912e-07
-3.43258e-07
1.22686e-07
-4.40975e-07
1.42641e-07
-4.69474e-07
4.2932e-07
-3.93968e-07
6.23858e-07
-2.73187e-07
4.99407e-07
-2.93415e-07
2.75523e-07
-3.45034e-07
3.23751e-07
-2.84059e-07
-1.28589e-07
-3.04213e-07
8.96597e-08
-2.86161e-07
-3.32813e-08
-2.39622e-07
-3.2727e-07
-1.97887e-07
-2.38058e-07
-1.48869e-07
-3.674e-07
-9.94267e-08
-3.64553e-07
-5.00013e-08
-3.76028e-07
-3.13712e-09
-3.56352e-07
3.45936e-08
-2.94149e-07
6.15576e-08
-2.16796e-07
7.6969e-08
-1.30544e-07
8.10516e-08
-4.36561e-08
7.53443e-08
3.36244e-08
6.18122e-08
9.77108e-08
3.63231e-08
1.9063e-07
2.73653e-07
6.27673e-09
3.0401e-09
1.80941e-08
-6.57761e-08
-5.58148e-08
-1.0716e-07
-1.61455e-07
-1.77002e-08
-2.58805e-07
8.55878e-08
-2.97099e-07
1.68214e-07
-3.62109e-07
1.87715e-07
-4.38047e-07
2.1859e-07
-4.39456e-07
4.30728e-07
-3.41051e-07
5.25454e-07
-2.91819e-07
4.50175e-07
-3.75521e-07
3.59226e-07
-3.53717e-07
3.01946e-07
-3.30756e-07
-1.51549e-07
-3.28887e-07
8.77906e-08
-2.65458e-07
-9.67102e-08
-2.53354e-07
-3.39374e-07
-1.96232e-07
-2.95181e-07
-1.49092e-07
-4.1454e-07
-9.83867e-08
-4.15258e-07
-4.87345e-08
-4.2568e-07
-1.45654e-09
-4.0363e-07
3.6246e-08
-3.31852e-07
6.29472e-08
-2.43497e-07
7.80121e-08
-1.45608e-07
8.17607e-08
-4.74047e-08
7.5816e-08
3.9569e-08
6.22203e-08
1.11306e-07
3.65944e-08
2.16256e-07
3.10247e-07
-4.83555e-08
5.06163e-08
-1.27452e-07
1.33194e-08
-2.25793e-07
-8.88215e-09
-2.59535e-07
1.6041e-08
-2.84443e-07
1.10496e-07
-3.29079e-07
2.1285e-07
-3.58469e-07
2.17105e-07
-3.65857e-07
2.25978e-07
-3.2676e-07
3.91631e-07
-2.72746e-07
4.7144e-07
-3.16267e-07
4.93695e-07
-3.75417e-07
4.18376e-07
-3.35844e-07