/*--------------------------------*- C++ -*----------------------------------*\
| =========                 |                                                 |
| \\      /  F ield         | OpenFOAM: The Open Source CFD Toolbox           |
|  \\    /   O peration     | Version:  2.4.0                                 |
|   \\  /    A nd           | Web:      www.OpenFOAM.org                      |
|    \\/     M anipulation  |                                                 |
\*---------------------------------------------------------------------------*/
FoamFile
{
    version     2.0;
    format      ascii;
    class       volVectorField;
    location    "0.084";
    object      U;
}
// * * * * * * * * * * * * * * * * * * * * * * * * * * * * * * * * * * * * * //

dimensions      [0 1 -1 0 0 0 0];

internalField   nonuniform List<vector> 
3600
(
(-0.00391615 0.000204517 0)
(-0.0103755 0.000118745 0)
(-0.0135758 2.14893e-05 0)
(-0.0141689 -5.69377e-05 0)
(-0.0127696 -0.000152641 0)
(-0.00888813 -0.000266292 0)
(-0.00268335 -0.000383548 0)
(0.00556754 -0.000489966 0)
(0.0154653 -0.000586973 0)
(0.0260468 -0.000608768 0)
(0.0374095 -0.00063307 0)
(0.0443551 -0.000507586 0)
(0.0596072 -0.000632228 0)
(0.0545768 0.000321654 0)
(0.0683302 -0.000642726 0)
(0.0659756 0.00293912 0)
(0.039919 0.000558535 0)
(0.0532027 0.00498753 0)
(0.0156894 0.00608613 0)
(-0.00889077 0.00272848 0)
(-0.0613754 0.00695242 0)
(-0.107508 0.00409336 0)
(-0.0925302 -0.000931415 0)
(-0.0689959 -0.0166635 0)
(-0.00645409 -0.0232451 0)
(0.0324476 -0.0196457 0)
(0.0615883 -0.0047345 0)
(0.0585009 0.0129858 0)
(0.0365389 0.0190856 0)
(0.0186282 0.0189873 0)
(-0.00523583 0.00080076 0)
(-0.0141855 0.000590477 0)
(-0.0194042 0.000261962 0)
(-0.021593 -1.3597e-05 0)
(-0.0213203 -0.000388686 0)
(-0.0178013 -0.000873408 0)
(-0.0110302 -0.00142647 0)
(-0.00117017 -0.0020015 0)
(0.0113019 -0.00257453 0)
(0.0252356 -0.00292242 0)
(0.0405266 -0.00312747 0)
(0.050715 -0.00311603 0)
(0.0717694 -0.00325311 0)
(0.0662176 -0.000356621 0)
(0.0889898 -0.00529527 0)
(0.0870478 0.00844102 0)
(0.0646561 0.00254318 0)
(0.07766 0.00380869 0)
(0.0595979 0.0212944 0)
(0.0168589 0.0305908 0)
(-0.0641913 0.0372412 0)
(-0.113642 0.0209438 0)
(-0.10497 -0.0208694 0)
(-0.0635697 -0.0585823 0)
(-0.0390129 -0.0612983 0)
(-0.00223806 -0.0461804 0)
(0.015663 -0.0123177 0)
(0.0260768 0.0144199 0)
(0.0196653 0.0233118 0)
(0.0165026 0.0405023 0)
(-0.00544382 0.00149197 0)
(-0.0148096 0.00112122 0)
(-0.0204243 0.000568178 0)
(-0.0230173 0.000106397 0)
(-0.023129 -0.000552039 0)
(-0.0199092 -0.00141746 0)
(-0.0133109 -0.00242528 0)
(-0.0034749 -0.00349621 0)
(0.00911856 -0.00457066 0)
(0.0232625 -0.00526388 0)
(0.0387529 -0.00563165 0)
(0.0491669 -0.00579703 0)
(0.0707971 -0.00568541 0)
(0.0631351 -0.00170614 0)
(0.0950671 -0.00938459 0)
(0.0772368 0.0129992 0)
(0.0856536 0.00300263 0)
(0.0732183 0.00669797 0)
(0.0743354 0.0319279 0)
(0.0305054 0.0584607 0)
(-0.0247164 0.0688225 0)
(-0.0770043 0.0310082 0)
(-0.0680018 -0.0318489 0)
(-0.0427581 -0.0724992 0)
(-0.0388777 -0.0761061 0)
(-0.0136289 -0.0647362 0)
(-0.00585656 -0.0273627 0)
(0.0146481 0.012292 0)
(0.00788682 0.0316797 0)
(0.0133696 0.0666767 0)
(-0.0054872 0.00218708 0)
(-0.0149373 0.00166337 0)
(-0.0206239 0.000883532 0)
(-0.0233029 0.000232865 0)
(-0.0235189 -0.00071093 0)
(-0.0203914 -0.00196333 0)
(-0.0138542 -0.00343647 0)
(-0.00403616 -0.00501626 0)
(0.00861222 -0.00660465 0)
(0.0228607 -0.00764983 0)
(0.0384378 -0.00818111 0)
(0.048922 -0.00861459 0)
(0.0715025 -0.00778788 0)
(0.0594223 -0.00424403 0)
(0.1054 -0.0114263 0)
(0.0591154 0.0146137 0)
(0.10876 0.00323369 0)
(0.0664373 0.00761375 0)
(0.0801255 0.0435784 0)
(0.0423126 0.0697556 0)
(-0.00295995 0.0804566 0)
(-0.0248815 0.0555604 0)
(-0.0206283 -0.0322037 0)
(-0.0214067 -0.0766375 0)
(-0.0229684 -0.0801739 0)
(-0.028001 -0.0666041 0)
(-0.0268549 -0.0348895 0)
(-0.00857303 0.00114772 0)
(-0.0114295 0.0289325 0)
(0.00214566 0.073063 0)
(-0.00551153 0.00288453 0)
(-0.0150036 0.00220832 0)
(-0.0207102 0.00120133 0)
(-0.0234174 0.000364342 0)
(-0.0236882 -0.000862224 0)
(-0.0206152 -0.00250258 0)
(-0.0141192 -0.00444342 0)
(-0.00432223 -0.00653694 0)
(0.0083672 -0.0086487 0)
(0.0227038 -0.0100458 0)
(0.038339 -0.0107343 0)
(0.0489771 -0.0115505 0)
(0.0723049 -0.00940781 0)
(0.056505 -0.00822517 0)
(0.113931 -0.0101258 0)
(0.0356944 0.0132058 0)
(0.130508 0.00255826 0)
(0.0454835 0.013299 0)
(0.0898298 0.0493978 0)
(0.0630912 0.0889657 0)
(0.0354372 0.107621 0)
(0.0141925 0.0459486 0)
(0.0184361 -0.0360282 0)
(-0.00954751 -0.0702681 0)
(-0.0328164 -0.0718062 0)
(-0.0380484 -0.0631557 0)
(-0.0349858 -0.0405185 0)
(-0.0182799 -0.00296854 0)
(-0.0224975 0.022242 0)
(-0.00815764 0.0522187 0)
(-0.00553783 0.00358475 0)
(-0.0150734 0.002755 0)
(-0.0207943 0.00152014 0)
(-0.023524 0.000499269 0)
(-0.0238517 -0.00100898 0)
(-0.0208396 -0.00303671 0)
(-0.0143955 -0.00544753 0)
(-0.00463522 -0.00806071 0)
(0.00808835 -0.0107051 0)
(0.0225186 -0.0124547 0)
(0.0381944 -0.0133108 0)
(0.0491662 -0.0145852 0)
(0.0726923 -0.0107991 0)
(0.0561503 -0.0130781 0)
(0.118086 -0.00668855 0)
(0.0246453 0.00993458 0)
(0.137871 0.00148743 0)
(0.0452734 0.0207422 0)
(0.101644 0.0430942 0)
(0.0879633 0.0967009 0)
(0.0691383 0.104991 0)
(0.070555 0.0707729 0)
(0.0681181 -0.00654329 0)
(0.0145589 -0.0478009 0)
(-0.0315317 -0.0600721 0)
(-0.0467949 -0.0637805 0)
(-0.0426115 -0.052808 0)
(-0.019236 -0.0140434 0)
(-0.0178921 0.0181103 0)
(-0.00958693 0.028264 0)
(-0.00556899 0.00428861 0)
(-0.0151557 0.00330374 0)
(-0.0208921 0.00184006 0)
(-0.0236473 0.000638393 0)
(-0.0240427 -0.00114874 0)
(-0.0211046 -0.00356358 0)
(-0.014726 -0.00644581 0)
(-0.00501398 -0.00958566 0)
(0.00774858 -0.0127728 0)
(0.022291 -0.0148735 0)
(0.0379954 -0.0159247 0)
(0.0495348 -0.0176654 0)
(0.0724249 -0.0122727 0)
(0.0596725 -0.0185162 0)
(0.118277 -0.00268645 0)
(0.033974 0.00671844 0)
(0.128983 -0.00216766 0)
(0.0720256 0.0255726 0)
(0.0843572 0.0320275 0)
(0.1067 0.093322 0)
(0.109375 0.115502 0)
(0.101382 0.0639606 0)
(0.103392 0.000975818 0)
(0.0806659 -0.00897005 0)
(-0.00077528 -0.0250237 0)
(-0.0362904 -0.04937 0)
(-0.0472464 -0.0627526 0)
(-0.0314033 -0.0344805 0)
(-0.0114733 0.0104627 0)
(-0.00607232 0.0136712 0)
(-0.00560545 0.00499681 0)
(-0.0152519 0.00385496 0)
(-0.0210058 0.00216127 0)
(-0.0237904 0.000782546 0)
(-0.0242659 -0.00128055 0)
(-0.0214157 -0.00408185 0)
(-0.0151158 -0.00743713 0)
(-0.00546288 -0.0111114 0)
(0.00734598 -0.0148547 0)
(0.0220178 -0.017303 0)
(0.0377389 -0.0185977 0)
(0.0500846 -0.0206836 0)
(0.071094 -0.0144263 0)
(0.0686681 -0.0230825 0)
(0.107009 -0.00119836 0)
(0.0712013 0.00735149 0)
(0.101881 -0.0119431 0)
(0.105606 0.0367978 0)
(0.0675743 0.0321641 0)
(0.0998105 0.079221 0)
(0.128803 0.106566 0)
(0.13911 0.0781682 0)
(0.128769 0.0177013 0)
(0.0910781 0.0107614 0)
(0.045279 0.0230121 0)
(0.010465 -0.0286802 0)
(-0.0301199 -0.061443 0)
(-0.0364155 -0.0597747 0)
(-0.0118929 -0.00365287 0)
(-0.00278704 0.00934564 0)
(-0.00564732 0.00571001 0)
(-0.0153623 0.00440903 0)
(-0.0211356 0.00248394 0)
(-0.0239534 0.000932563 0)
(-0.0245214 -0.00140358 0)
(-0.0217735 -0.0045903 0)
(-0.0155663 -0.00841991 0)
(-0.00598348 -0.0126377 0)
(0.00688025 -0.0169516 0)
(0.0216954 -0.0197438 0)
(0.0374401 -0.0213435 0)
(0.0506318 -0.0235382 0)
(0.069464 -0.0179055 0)
(0.078202 -0.0244595 0)
(0.0862465 -0.0053317 0)
(0.104631 0.0103719 0)
(0.0966372 -0.0161148 0)
(0.119274 0.0354544 0)
(0.101034 0.040261 0)
(0.0801098 0.063083 0)
(0.117546 0.0870074 0)
(0.137459 0.0733452 0)
(0.129263 0.035871 0)
(0.0986707 0.0360115 0)
(0.0765233 0.0324026 0)
(0.0703451 0.0203435 0)
(0.0348802 -0.0070987 0)
(0.00534837 -0.0509185 0)
(-0.0112794 -0.0325794 0)
(0.0055131 -0.00393425 0)
(-0.00569469 0.0064289 0)
(-0.0154869 0.0049663 0)
(-0.0212812 0.00280818 0)
(-0.0241361 0.00108929 0)
(-0.0248093 -0.00151618 0)
(-0.022178 -0.00508599 0)
(-0.016078 -0.00939239 0)
(-0.00657711 -0.014163 0)
(0.00635072 -0.0190677 0)
(0.0213196 -0.0221967 0)
(0.0371227 -0.0241512 0)
(0.0509111 -0.0263604 0)
(0.0694397 -0.0220986 0)
(0.080335 -0.0243712 0)
(0.0804588 -0.0116472 0)
(0.115523 0.00716214 0)
(0.115566 -0.0147012 0)
(0.0959135 0.0349353 0)
(0.124447 0.054007 0)
(0.0727177 0.0599652 0)
(0.0880255 0.0743632 0)
(0.102801 0.0708253 0)
(0.115635 0.0441888 0)
(0.106104 0.0431533 0)
(0.0890152 0.0468099 0)
(0.0809062 0.026766 0)
(0.0754357 -0.00562232 0)
(0.0625569 -0.0174111 0)
(0.0166609 -0.0090259 0)
(0.00922005 0.00865232 0)
(-0.00574765 0.00715418 0)
(-0.015626 0.00552712 0)
(-0.0214425 0.00313409 0)
(-0.024338 0.00125359 0)
(-0.0251291 -0.00161677 0)
(-0.0226294 -0.00556776 0)
(-0.0166517 -0.0103529 0)
(-0.00724581 -0.0156852 0)
(0.00575677 -0.021208 0)
(0.0208876 -0.0246634 0)
(0.0367794 -0.026999 0)
(0.0509981 -0.0293697 0)
(0.0706826 -0.0258766 0)
(0.0768805 -0.0252774 0)
(0.0949581 -0.0191675 0)
(0.112553 0.00203753 0)
(0.1207 -0.00609933 0)
(0.0876067 0.0275712 0)
(0.11951 0.0555724 0)
(0.0876941 0.0766077 0)
(0.0934818 0.0684119 0)
(0.0912181 0.0593967 0)
(0.0951198 0.0418018 0)
(0.0963124 0.0469648 0)
(0.111181 0.0535874 0)
(0.108218 0.0341867 0)
(0.0630606 0.0174691 0)
(0.0175862 0.0136119 0)
(-0.00240959 0.0162461 0)
(0.00262285 0.0259181 0)
(-0.00580629 0.00788658 0)
(-0.0157797 0.00609182 0)
(-0.0216194 0.00346172 0)
(-0.0245586 0.00142631 0)
(-0.0254806 -0.00170484 0)
(-0.0231275 -0.00603515 0)
(-0.0172879 -0.0112997 0)
(-0.00799175 -0.0172058 0)
(0.00509782 -0.023371 0)
(0.0203985 -0.0271454 0)
(0.0363864 -0.029891 0)
(0.051144 -0.0325878 0)
(0.0712997 -0.0289513 0)
(0.0750503 -0.0291721 0)
(0.109993 -0.0231262 0)
(0.0967508 -0.000113706 0)
(0.126345 -0.00530539 0)
(0.101361 0.0302714 0)
(0.107467 0.0568757 0)
(0.111306 0.0719503 0)
(0.0986659 0.0727846 0)
(0.101843 0.0752755 0)
(0.12445 0.0427338 0)
(0.114103 0.0208008 0)
(0.0952457 0.0343149 0)
(0.0640455 0.0589079 0)
(0.0355266 0.0631642 0)
(0.0217628 0.0412114 0)
(0.00795438 0.013336 0)
(0.0011928 0.0145922 0)
(-0.00587074 0.0086268 0)
(-0.0159482 0.00666074 0)
(-0.0218116 0.00379104 0)
(-0.0247975 0.00160834 0)
(-0.0258633 -0.00177754 0)
(-0.0236724 -0.0064843 0)
(-0.0179876 -0.0122313 0)
(-0.00881689 -0.0187261 0)
(0.00437347 -0.0255542 0)
(0.0198491 -0.0296421 0)
(0.0359388 -0.0328518 0)
(0.05139 -0.0358402 0)
(0.0705765 -0.0323028 0)
(0.0796797 -0.033315 0)
(0.106521 -0.0267523 0)
(0.100953 -0.00380678 0)
(0.120046 -0.00207718 0)
(0.119995 0.0298129 0)
(0.117047 0.0563735 0)
(0.124575 0.08062 0)
(0.119368 0.074919 0)
(0.133108 0.0463915 0)
(0.0942864 0.0447567 0)
(0.0479826 0.0822318 0)
(0.0420366 0.108263 0)
(0.0495696 0.0934133 0)
(0.056694 0.065207 0)
(0.0456386 0.0476604 0)
(0.0202719 0.0361595 0)
(0.00494972 0.0357534 0)
(-0.00594113 0.00937558 0)
(-0.0161318 0.00723417 0)
(-0.0220189 0.00412201 0)
(-0.0250539 0.00180059 0)
(-0.0262769 -0.00183439 0)
(-0.0242642 -0.00691399 0)
(-0.0187521 -0.0131443 0)
(-0.00972294 -0.0202478 0)
(0.00358306 -0.0277592 0)
(0.0192344 -0.0321543 0)
(0.035452 -0.0358881 0)
(0.0515102 -0.0390986 0)
(0.0698327 -0.0359805 0)
(0.0830557 -0.0376188 0)
(0.102596 -0.0288388 0)
(0.0938084 -0.00469619 0)
(0.133505 -0.00988614 0)
(0.151347 0.0292254 0)
(0.145132 0.0570245 0)
(0.166302 0.065795 0)
(0.154683 0.0704458 0)
(0.105511 0.090061 0)
(0.090805 0.0813221 0)
(0.0975637 0.0366059 0)
(0.117708 0.0265827 0)
(0.118311 0.0454313 0)
(0.077713 0.0802643 0)
(0.0327807 0.0866116 0)
(0.00855703 0.0652357 0)
(0.00266348 0.0538443 0)
(-0.0060176 0.0101337 0)
(-0.0163307 0.00781241 0)
(-0.022241 0.00445447 0)
(-0.0253272 0.00200398 0)
(-0.0267209 -0.00187352 0)
(-0.0249024 -0.00732275 0)
(-0.0195825 -0.0140347 0)
(-0.0107123 -0.0217723 0)
(0.00272608 -0.0299839 0)
(0.018551 -0.0346856 0)
(0.0349217 -0.0389955 0)
(0.0514387 -0.042299 0)
(0.0684036 -0.0403616 0)
(0.0877601 -0.0396174 0)
(0.0799274 -0.0301882 0)
(0.118113 -0.0156331 0)
(0.156053 -0.0180011 0)
(0.166409 0.0141494 0)
(0.177339 0.0472577 0)
(0.144865 0.0785722 0)
(0.125274 0.0917772 0)
(0.1079 0.0794749 0)
(0.0828245 0.0573012 0)
(0.00759598 0.0810359 0)
(-0.00447341 0.0985334 0)
(-0.0168926 0.111392 0)
(-0.0335847 0.117644 0)
(-0.030221 0.0922019 0)
(-0.0185666 0.0590704 0)
(-0.00539397 0.0442994 0)
(-0.00610031 0.0109018 0)
(-0.0165453 0.00839573 0)
(-0.0224777 0.00478815 0)
(-0.0256166 0.00221954 0)
(-0.0271948 -0.00189273 0)
(-0.025587 -0.00770821 0)
(-0.0204803 -0.0149013 0)
(-0.0117865 -0.0233014 0)
(0.00180174 -0.0322261 0)
(0.0177954 -0.0372414 0)
(0.0343524 -0.0421464 0)
(0.0506865 -0.0454956 0)
(0.0683956 -0.0447934 0)
(0.080656 -0.0391479 0)
(0.0789747 -0.0372509 0)
(0.133095 -0.0351422 0)
(0.168212 -0.0207331 0)
(0.121182 0.0235042 0)
(0.109082 0.0713721 0)
(0.111973 0.093236 0)
(0.0862032 0.109847 0)
(0.0558685 0.128415 0)
(0.0422239 0.128769 0)
(-0.0158675 0.0924569 0)
(-0.0343457 0.0707659 0)
(-0.05427 0.0976585 0)
(-0.0420564 0.100867 0)
(-0.0181028 0.0697928 0)
(-0.00562685 0.0399773 0)
(-0.00194201 0.0280602 0)
(-0.00618944 0.0116809 0)
(-0.0167759 0.0089844 0)
(-0.0227286 0.00512264 0)
(-0.0259213 0.00244834 0)
(-0.0276979 -0.00189353 0)
(-0.0263177 -0.00806847 0)
(-0.0214473 -0.0157414 0)
(-0.0129475 -0.0248382 0)
(0.000808195 -0.0344822 0)
(0.0169628 -0.0398285 0)
(0.0336735 -0.0452864 0)
(0.0492383 -0.0488124 0)
(0.0681347 -0.0471679 0)
(0.0651284 -0.0418122 0)
(0.111868 -0.0478406 0)
(0.116222 -0.0416301 0)
(0.125315 -0.00731898 0)
(0.0963799 0.0385527 0)
(0.117012 0.0692751 0)
(0.104935 0.0899092 0)
(0.128852 0.095703 0)
(0.118035 0.0890395 0)
(0.136139 0.100489 0)
(0.132008 0.111592 0)
(0.116404 0.10418 0)
(0.0709481 0.107835 0)
(0.0623718 0.100824 0)
(0.0606633 0.0716107 0)
(0.0431834 0.0501786 0)
(0.0131396 0.0448731 0)
(-0.00628518 0.0124715 0)
(-0.0170228 0.00957863 0)
(-0.0229933 0.00545739 0)
(-0.0262406 0.00269163 0)
(-0.0282297 -0.00187104 0)
(-0.0270938 -0.00840153 0)
(-0.0224854 -0.01655 0)
(-0.0141965 -0.0263859 0)
(-0.000258376 -0.036747 0)
(0.0160408 -0.0424475 0)
(0.0327543 -0.0483633 0)
(0.0475092 -0.052013 0)
(0.0652923 -0.0480265 0)
(0.0602912 -0.0502087 0)
(0.126243 -0.0498634 0)
(0.0824855 -0.0407285 0)
(0.135417 -0.0140216 0)
(0.179051 0.0160436 0)
(0.153474 0.0514774 0)
(0.0964871 0.0809262 0)
(0.0990003 0.131071 0)
(0.0618298 0.143999 0)
(0.019616 0.132881 0)
(0.0301028 0.114558 0)
(0.0615638 0.119728 0)
(0.0737514 0.126244 0)
(0.0804242 0.108244 0)
(0.0786627 0.0897934 0)
(0.0544735 0.083101 0)
(0.0160586 0.0877161 0)
(-0.00638776 0.0132747 0)
(-0.0172865 0.0101787 0)
(-0.0232715 0.00579187 0)
(-0.0265732 0.00295056 0)
(-0.0287897 -0.00182394 0)
(-0.0279152 -0.00870517 0)
(-0.023597 -0.0173227 0)
(-0.0155351 -0.027948 0)
(-0.00140344 -0.0390142 0)
(0.0150122 -0.0450875 0)
(0.031502 -0.0513659 0)
(0.0461791 -0.0547627 0)
(0.0602736 -0.0502782 0)
(0.0767147 -0.0569887 0)
(0.0966196 -0.0517142 0)
(0.110634 -0.0538586 0)
(0.193224 -0.0433522 0)
(0.143294 0.0446254 0)
(0.110666 0.131978 0)
(0.101064 0.105742 0)
(0.161049 0.0855251 0)
(0.194926 0.147252 0)
(0.0943811 0.129359 0)
(0.0395022 0.100077 0)
(0.021016 0.0935209 0)
(0.0414846 0.0967528 0)
(0.0425738 0.0966942 0)
(0.0524373 0.107109 0)
(0.0386991 0.119198 0)
(0.0104677 0.130345 0)
(-0.00649742 0.0140912 0)
(-0.0175674 0.0107846 0)
(-0.0235627 0.0061256 0)
(-0.0269182 0.00322609 0)
(-0.029377 -0.00175287 0)
(-0.0287807 -0.00897489 0)
(-0.0247846 -0.0180545 0)
(-0.0169646 -0.029532 0)
(-0.00263358 -0.0412697 0)
(0.013862 -0.0477392 0)
(0.0300438 -0.0543564 0)
(0.0456732 -0.0571163 0)
(0.0564258 -0.0548779 0)
(0.0859645 -0.0572886 0)
(0.0701152 -0.066316 0)
(0.164783 -0.0641073 0)
(0.126371 -0.0235891 0)
(0.116045 0.01917 0)
(0.238859 0.0503519 0)
(0.247568 0.068064 0)
(0.166694 0.0689543 0)
(0.243671 0.154284 0)
(0.288829 0.185295 0)
(0.213082 0.142114 0)
(0.103275 0.099812 0)
(0.04177 0.102214 0)
(0.0156899 0.095371 0)
(0.0205207 0.10757 0)
(0.0171507 0.138785 0)
(0.0035114 0.152833 0)
(-0.00661441 0.0149219 0)
(-0.0178662 0.0113967 0)
(-0.0238665 0.00645824 0)
(-0.0272744 0.00351911 0)
(-0.0299909 -0.00165535 0)
(-0.0296895 -0.00920936 0)
(-0.0260521 -0.0187391 0)
(-0.0184859 -0.0311428 0)
(-0.00395394 -0.0434996 0)
(0.0126064 -0.0504158 0)
(0.0286783 -0.0574364 0)
(0.0455428 -0.0594595 0)
(0.0547465 -0.0590319 0)
(0.0736794 -0.0601989 0)
(0.10519 -0.0739194 0)
(0.0735364 -0.076727 0)
(0.254966 -0.0429699 0)
(-0.122595 0.0312195 0)
(-0.153418 0.117632 0)
(0.0119099 0.100611 0)
(-0.131774 0.0637338 0)
(0.0733464 0.127392 0)
(0.162947 0.197018 0)
(0.200798 0.221437 0)
(0.127827 0.201014 0)
(0.0537678 0.157473 0)
(0.0194025 0.113802 0)
(0.00828927 0.107051 0)
(0.0052851 0.14025 0)
(0.000400919 0.152709 0)
(-0.00673903 0.0157678 0)
(-0.0181834 0.0120151 0)
(-0.0241823 0.00678944 0)
(-0.0276406 0.00383001 0)
(-0.0306305 -0.00153164 0)
(-0.0306404 -0.00940756 0)
(-0.0274031 -0.0193692 0)
(-0.0200992 -0.0327905 0)
(-0.00536569 -0.0457072 0)
(0.0113041 -0.0531505 0)
(0.0273316 -0.0606782 0)
(0.0440146 -0.0618135 0)
(0.0508486 -0.0617714 0)
(0.0670627 -0.065918 0)
(0.0838788 -0.0720115 0)
(0.327069 -0.136178 0)
(0.226794 0.0744611 0)
(-0.234953 0.111374 0)
(-0.112147 0.0170653 0)
(-0.120981 0.0888805 0)
(-0.0918173 0.045375 0)
(-0.0488207 0.0400219 0)
(-0.0143189 0.0639816 0)
(0.158628 0.217058 0)
(0.136511 0.234947 0)
(0.0837964 0.200384 0)
(0.0444172 0.144026 0)
(0.0133273 0.119468 0)
(0.00293382 0.143794 0)
(0.000575398 0.151948 0)
(-0.00687159 0.0166295 0)
(-0.0185196 0.0126396 0)
(-0.0245095 0.00711929 0)
(-0.0280156 0.00416021 0)
(-0.031295 -0.00137462 0)
(-0.0316317 -0.00956346 0)
(-0.0288426 -0.0199359 0)
(-0.0218047 -0.0344915 0)
(-0.0068605 -0.04791 0)
(0.00996107 -0.0559511 0)
(0.0247313 -0.0638384 0)
(0.0386711 -0.0636351 0)
(0.0467165 -0.0646689 0)
(0.0641809 -0.0683436 0)
(0.18641 -0.150276 0)
(-0.0325087 -0.14218 0)
(0.863054 0.145926 0)
(-0.129414 0.197582 0)
(-0.13203 0.0661876 0)
(-0.0776177 0.0672323 0)
(-0.00912754 -0.00128324 0)
(0.0484682 0.0599475 0)
(0.034167 0.039131 0)
(0.0999416 0.142984 0)
(0.132082 0.237919 0)
(0.107611 0.227389 0)
(0.062692 0.176041 0)
(0.0215775 0.14818 0)
(0.00640127 0.156023 0)
(0.00251673 0.155612 0)
(-0.00701241 0.0175093 0)
(-0.0188753 0.0132724 0)
(-0.0248476 0.00744583 0)
(-0.0283975 0.00450742 0)
(-0.0319829 -0.00119192 0)
(-0.0326613 -0.00968712 0)
(-0.0303757 -0.0204376 0)
(-0.0236046 -0.036257 0)
(-0.00843231 -0.0501093 0)
(0.00825564 -0.0586046 0)
(0.0176036 -0.0659524 0)
(0.0290979 -0.0651049 0)
(0.0452966 -0.0688674 0)
(0.0467337 -0.103442 0)
(0.166054 -0.0949991 0)
(0.476896 -0.264764 0)
(0.599366 0.188765 0)
(-0.432823 0.267411 0)
(-0.163783 0.00975255 0)
(-0.078661 0.0237634 0)
(-0.101657 -0.0102197 0)
(0.00138574 0.0310092 0)
(0.0339167 0.0171304 0)
(0.0206457 0.120282 0)
(0.104962 0.251994 0)
(0.089916 0.251807 0)
(0.0530341 0.209808 0)
(0.0240507 0.175299 0)
(0.00961563 0.169473 0)
(0.00431365 0.163855 0)
(-0.00716269 0.0184023 0)
(-0.0192517 0.0139003 0)
(-0.0251963 0.00777432 0)
(-0.0287859 0.00488131 0)
(-0.0326951 -0.000961062 0)
(-0.0337282 -0.00973797 0)
(-0.0320104 -0.0208305 0)
(-0.0254981 -0.0381003 0)
(-0.0100887 -0.0522255 0)
(0.0046185 -0.0604234 0)
(0.000710083 -0.0660645 0)
(0.0222313 -0.0688123 0)
(0.0340757 -0.0762084 0)
(0.196193 -0.10584 0)
(0.481507 -0.280598 0)
(0.337439 -0.124622 0)
(0.0190767 0.423782 0)
(-0.653292 0.703362 0)
(-0.0451323 -0.390362 0)
(-0.11782 0.0219427 0)
(-0.138959 -0.0289568 0)
(-0.0800935 -0.012948 0)
(-0.0126034 0.0294047 0)
(-0.0136305 0.107759 0)
(0.0609479 0.225183 0)
(0.0607037 0.256252 0)
(0.0439884 0.231319 0)
(0.0271505 0.197652 0)
(0.0140922 0.184895 0)
(0.00426378 0.174425 0)
(-0.00730449 0.0193363 0)
(-0.0196479 0.0145949 0)
(-0.0255532 0.00808483 0)
(-0.0291764 0.0052584 0)
(-0.0334249 -0.000750299 0)
(-0.0348227 -0.00981705 0)
(-0.0337484 -0.0212191 0)
(-0.0274838 -0.0400931 0)
(-0.011949 -0.0538613 0)
(-0.00722223 -0.0603238 0)
(-0.0168067 -0.0684922 0)
(0.0995159 -0.0802195 0)
(0.298547 -0.111841 0)
(0.408931 -0.207 0)
(0.409311 -0.20101 0)
(0.335764 -0.102982 0)
(0.18017 0.446899 0)
(-0.389477 0.579771 0)
(-1.17601 0.147561 0)
(-0.161062 0.0967188 0)
(-0.124094 -0.0549895 0)
(-0.0995345 -0.0469473 0)
(-0.0620693 -0.0283096 0)
(-0.0321475 0.09028 0)
(-0.00971037 0.192476 0)
(0.0158765 0.263759 0)
(0.00572922 0.235481 0)
(0.0141565 0.208675 0)
(0.00703672 0.201797 0)
(0.000308261 0.185328 0)
(-0.00773554 0.0202046 0)
(-0.0200748 0.0149944 0)
(-0.0259296 0.00843714 0)
(-0.0295815 0.00569227 0)
(-0.0341872 -0.000392938 0)
(-0.0359561 -0.00968806 0)
(-0.035611 -0.0212926 0)
(-0.0295654 -0.0420456 0)
(-0.0149848 -0.0536911 0)
(-0.0411379 -0.0601215 0)
(0.0205361 -0.101212 0)
(0.702712 -0.124571 0)
(0.644189 -0.112378 0)
(0.51521 -0.169265 0)
(0.266982 -0.203146 0)
(0.216007 -0.012643 0)
(0.15732 0.532209 0)
(0.127038 0.722452 0)
(0.778069 -0.401597 0)
(-0.134461 -0.415522 0)
(-0.11453 -0.106167 0)
(-0.122026 -0.0552527 0)
(-0.106828 -0.0226564 0)
(-0.0625311 0.0733131 0)
(-0.0619063 0.183149 0)
(-0.0274734 0.256885 0)
(-0.0204963 0.231119 0)
(-0.0112158 0.202412 0)
(-0.00499484 0.206028 0)
(-0.00401099 0.186836 0)
(-0.00484948 0.021394 0)
(-0.0204963 0.0165738 0)
(-0.0262102 0.00866387 0)
(-0.0298829 0.00610659 0)
(-0.0348987 -0.000164742 0)
(-0.0370965 -0.00974673 0)
(-0.0376116 -0.0215825 0)
(-0.031894 -0.0443446 0)
(-0.0250743 -0.0501773 0)
(-0.0496557 -0.0680237 0)
(0.38011 -0.216275 0)
(0.997425 -0.146319 0)
(0.799854 -0.0915786 0)
(0.407761 -0.116242 0)
(0.176557 -0.14231 0)
(0.142863 0.0140807 0)
(0.0127268 0.479643 0)
(0.554423 0.596493 0)
(0.752598 -0.0242585 0)
(-0.302242 0.418303 0)
(-0.171151 -0.105634 0)
(-0.173231 -0.0711379 0)
(-0.142019 -0.0717958 0)
(-0.112639 0.0704414 0)
(-0.0787173 0.16409 0)
(-0.0479794 0.225578 0)
(-0.0314656 0.216142 0)
(-0.0186854 0.200565 0)
(-0.0103688 0.196716 0)
(-0.000960233 0.180548 0)
(-0.0307249 0.0218577 0)
(-0.0204164 0.0149785 0)
(-0.0274067 0.00917442 0)
(-0.0309644 0.00650783 0)
(-0.0361301 0.000272704 0)
(-0.0383208 -0.00949227 0)
(-0.0399644 -0.0212683 0)
(-0.03572 -0.0446597 0)
(-0.0616977 -0.0516409 0)
(0.152893 -0.126695 0)
(-0.0839029 -0.302788 0)
(0.0653103 -0.113475 0)
(0.305562 -0.0642183 0)
(0.204509 -0.081153 0)
(0.0477657 -0.115304 0)
(0.0788873 0.0563021 0)
(-0.0729475 0.341121 0)
(0.655974 0.49937 0)
(0.671331 0.0666906 0)
(0.31007 0.284756 0)
(-0.124062 -0.0316525 0)
(-0.0800449 -0.0657894 0)
(-0.158236 -0.0444332 0)
(-0.15458 0.0381424 0)
(-0.0905672 0.15523 0)
(-0.0796837 0.209832 0)
(-0.0432656 0.196006 0)
(-0.021214 0.18739 0)
(-0.0130065 0.183412 0)
(0.00165528 0.175535 0)
(0.106783 0.023573 0)
(-0.0291856 0.0188445 0)
(-0.023563 0.00897468 0)
(-0.0287705 0.0071118 0)
(-0.0352991 0.000641324 0)
(-0.0395653 -0.00934845 0)
(-0.0440184 -0.0208502 0)
(-0.044606 -0.0421414 0)
(-0.136335 -0.0718357 0)
(0.285073 -0.0842069 0)
(0.619554 -0.285018 0)
(0.213048 -0.148434 0)
(0.168002 -0.0718231 0)
(0.135573 -0.0630745 0)
(0.00814983 -0.100612 0)
(0.0516271 0.0739112 0)
(-0.0654284 0.226809 0)
(0.591724 0.367343 0)
(0.45026 0.168752 0)
(0.313075 0.505704 0)
(0.846028 0.0159469 0)
(-0.203522 -0.120847 0)
(-0.184291 -0.0191674 0)
(-0.162432 -0.0105686 0)
(-0.0902491 0.138084 0)
(-0.0806665 0.163847 0)
(-0.0410393 0.168571 0)
(-0.0285567 0.168738 0)
(-0.0116354 0.166647 0)
(0.000481704 0.163937 0)
(-0.0180797 0.0215743 0)
(-0.0380216 0.020461 0)
(-0.0580339 0.0136054 0)
(-0.0636762 -0.00431689 0)
(-0.0338003 -0.0200208 0)
(0.00469863 -0.023369 0)
(0.0675073 -0.0170573 0)
(0.0920561 -0.00118554 0)
(0.107649 0.00391032 0)
(0.0613973 0.00714042 0)
(0.00870984 0.0028004 0)
(-0.0159424 0.00609403 0)
(-0.0530633 0.00493712 0)
(-0.0399017 0.000585051 0)
(-0.0657013 0.00291524 0)
(-0.0682364 -0.000615296 0)
(-0.0544591 0.000294748 0)
(-0.0593762 -0.000615698 0)
(-0.0443059 -0.000513981 0)
(-0.0372551 -0.000627494 0)
(-0.0259641 -0.00060948 0)
(-0.015393 -0.000583867 0)
(-0.00551659 -0.000490422 0)
(0.00272356 -0.000382844 0)
(0.00890443 -0.000265171 0)
(0.0127612 -0.000151678 0)
(0.0141452 -5.63611e-05 0)
(0.0135426 2.17e-05 0)
(0.0103553 0.000118087 0)
(0.00391658 0.000204229 0)
(-0.0192279 0.0403818 0)
(-0.0197091 0.0216994 0)
(-0.0270212 0.014652 0)
(-0.016267 -0.011267 0)
(0.000896379 -0.0458583 0)
(0.0375993 -0.0610662 0)
(0.061541 -0.0595748 0)
(0.104068 -0.0215738 0)
(0.112895 0.0205985 0)
(0.063654 0.0372052 0)
(-0.0173963 0.0305407 0)
(-0.0596864 0.021125 0)
(-0.0775036 0.00376549 0)
(-0.0646743 0.00249236 0)
(-0.0866907 0.00839383 0)
(-0.0889061 -0.00521083 0)
(-0.0660654 -0.000440682 0)
(-0.0715031 -0.00319622 0)
(-0.0506583 -0.00313531 0)
(-0.0403496 -0.00311076 0)
(-0.0251388 -0.00292319 0)
(-0.0112167 -0.00256535 0)
(0.00122862 -0.00200123 0)
(0.0110709 -0.00142281 0)
(0.0178114 -0.000869179 0)
(0.0213006 -0.000385458 0)
(0.021559 -1.20774e-05 0)
(0.0193645 0.000262153 0)
(0.0141629 0.000588047 0)
(0.00523731 0.000799786 0)
(-0.0128489 0.0667644 0)
(-0.00693819 0.0313578 0)
(-0.0151398 0.0134244 0)
(0.00602394 -0.02603 0)
(0.014198 -0.0643282 0)
(0.0388877 -0.0751361 0)
(0.0417003 -0.0733786 0)
(0.0672721 -0.0328067 0)
(0.0760313 0.030737 0)
(0.0242665 0.068893 0)
(-0.0299653 0.0584021 0)
(-0.0748016 0.0317361 0)
(-0.0727332 0.00657105 0)
(-0.0857857 0.00304293 0)
(-0.0766666 0.0128729 0)
(-0.0949892 -0.00920724 0)
(-0.0629694 -0.00185012 0)
(-0.0705207 -0.00558434 0)
(-0.0491133 -0.00582939 0)
(-0.0385726 -0.005604 0)
(-0.0231652 -0.00526441 0)
(-0.00903181 -0.00455697 0)
(0.00353379 -0.00349397 0)
(0.013352 -0.00241825 0)
(0.0199184 -0.00140989 0)
(0.0231076 -0.000546824 0)
(0.0229816 0.000108758 0)
(0.0203838 0.000568265 0)
(0.0147867 0.00111692 0)
(0.00544551 0.00149036 0)
(-0.000283053 0.0734123 0)
(0.0127217 0.028442 0)
(0.00853389 0.00155795 0)
(0.027445 -0.0345436 0)
(0.029227 -0.0661781 0)
(0.0237926 -0.0787895 0)
(0.0215433 -0.0772456 0)
(0.0202542 -0.0330981 0)
(0.0241507 0.0548577 0)
(0.00276247 0.079948 0)
(-0.0426605 0.0696014 0)
(-0.0800695 0.0432922 0)
(-0.066143 0.0075696 0)
(-0.108746 0.00315884 0)
(-0.0584174 0.0144443 0)
(-0.105244 -0.0111389 0)
(-0.0592832 -0.00445227 0)
(-0.0712034 -0.00764157 0)
(-0.0488788 -0.00865955 0)
(-0.0382533 -0.00814259 0)
(-0.0227643 -0.00765053 0)
(-0.00852465 -0.0065866 0)
(0.00409506 -0.00501163 0)
(0.013896 -0.00342586 0)
(0.0204005 -0.00195216 0)
(0.023497 -0.000703394 0)
(0.0232667 0.00023606 0)
(0.020583 0.000883499 0)
(0.0149143 0.00165716 0)
(0.00548902 0.00218483 0)
(0.0085836 0.0531744 0)
(0.022248 0.0236388 0)
(0.0182086 -0.00170284 0)
(0.0355909 -0.0398664 0)
(0.038454 -0.0627536 0)
(0.0336908 -0.0699436 0)
(0.0101223 -0.0703424 0)
(-0.0190868 -0.036362 0)
(-0.0145907 0.0457725 0)
(-0.0359605 0.107137 0)
(-0.0631151 0.0888566 0)
(-0.0906344 0.048845 0)
(-0.0442007 0.0132522 0)
(-0.130552 0.00255033 0)
(-0.0348665 0.0129376 0)
(-0.113683 -0.00969265 0)
(-0.0564312 -0.00849528 0)
(-0.071979 -0.00921883 0)
(-0.0489476 -0.0116073 0)
(-0.0381505 -0.0106851 0)
(-0.0226092 -0.0100467 0)
(-0.00827898 -0.00862584 0)
(0.00438067 -0.00653041 0)
(0.0141616 -0.00442919 0)
(0.0206242 -0.00248788 0)
(0.0236658 -0.000851971 0)
(0.0233808 0.000368363 0)
(0.0206689 0.00120117 0)
(0.0149805 0.00220018 0)
(0.00551352 0.00288163 0)
(0.00801246 0.028892 0)
(0.0169824 0.0185602 0)
(0.0186843 -0.0145916 0)
(0.043126 -0.053002 0)
(0.0460234 -0.0632714 0)
(0.032416 -0.0586268 0)
(-0.0139009 -0.0474842 0)
(-0.0686778 -0.00686146 0)
(-0.0712747 0.0701858 0)
(-0.0694866 0.104671 0)
(-0.0880975 0.0966244 0)
(-0.101579 0.0421745 0)
(-0.0451672 0.0205691 0)
(-0.137471 0.00156277 0)
(-0.0243032 0.00957733 0)
(-0.117738 -0.00612637 0)
(-0.0562004 -0.0134034 0)
(-0.0723342 -0.0105751 0)
(-0.0491534 -0.0146531 0)
(-0.0380013 -0.0132513 0)
(-0.0224264 -0.0124559 0)
(-0.00799972 -0.0106784 0)
(0.00469296 -0.0080515 0)
(0.0144385 -0.00542974 0)
(0.0208484 -0.0030186 0)
(0.0238287 -0.00099606 0)
(0.0234869 0.000504122 0)
(0.0207525 0.00151984 0)
(0.0150501 0.0027449 0)
(0.00554002 0.0035812 0)
(0.00533186 0.0139527 0)
(0.0109545 0.0106715 0)
(0.0312738 -0.0347754 0)
(0.046885 -0.0628098 0)
(0.0354819 -0.0499162 0)
(0.00258604 -0.024769 0)
(-0.0801118 -0.00814533 0)
(-0.104429 0.00146913 0)
(-0.100852 0.0636521 0)
(-0.109966 0.114594 0)
(-0.106636 0.0929848 0)
(-0.0848271 0.0309733 0)
(-0.0715359 0.0255802 0)
(-0.128396 -0.00224253 0)
(-0.0342293 0.00641753 0)
(-0.117874 -0.00205787 0)
(-0.0598768 -0.0188947 0)
(-0.0720299 -0.0120259 0)
(-0.0495402 -0.0177433 0)
(-0.0377966 -0.0158545 0)
(-0.0222009 -0.0148749 0)
(-0.00765899 -0.0127432 0)
(0.00507111 -0.00957306 0)
(0.0147694 -0.00642453 0)
(0.0211131 -0.00354203 0)
(0.0240191 -0.00113384 0)
(0.0236095 0.000644071 0)
(0.0208497 0.00183961 0)
(0.0151323 0.00329165 0)
(0.00557143 0.00428442 0)
(0.00160512 0.00958065 0)
(0.0113332 -0.00395897 0)
(0.0360003 -0.0602182 0)
(0.029435 -0.0611551 0)
(-0.0126874 -0.028039 0)
(-0.0468596 0.0240894 0)
(-0.0920015 0.0121591 0)
(-0.1287 0.0174765 0)
(-0.139024 0.0771377 0)
(-0.129216 0.106306 0)
(-0.0995905 0.0794488 0)
(-0.0683935 0.0309032 0)
(-0.105352 0.0363995 0)
(-0.100905 -0.011626 0)
(-0.0719104 0.00698065 0)
(-0.106463 -0.000515173 0)
(-0.0690216 -0.0235095 0)
(-0.0706532 -0.0141677 0)
(-0.0501068 -0.0207696 0)
(-0.0375349 -0.0185166 0)
(-0.0219309 -0.017305 0)
(-0.00725546 -0.0148227 0)
(0.0055195 -0.0110954 0)
(0.0151598 -0.00741234 0)
(0.0214239 -0.0040564 0)
(0.0242414 -0.00126357 0)
(0.0237519 0.000789055 0)
(0.0209626 0.00216065 0)
(0.0152283 0.00384083 0)
(0.00560819 0.00499198 0)
(-0.00607682 -0.00434735 0)
(0.0122038 -0.0337189 0)
(-0.00457887 -0.0507449 0)
(-0.0335752 -0.00674895 0)
(-0.0702493 0.0206933 0)
(-0.0762293 0.032558 0)
(-0.0997387 0.0358153 0)
(-0.12878 0.0360619 0)
(-0.136526 0.0731631 0)
(-0.118929 0.0863607 0)
(-0.0798863 0.0627952 0)
(-0.101527 0.0390735 0)
(-0.118832 0.0348708 0)
(-0.0954828 -0.0158516 0)
(-0.105269 0.0101885 0)
(-0.0854734 -0.00469174 0)
(-0.0786065 -0.0248972 0)
(-0.068975 -0.0176416 0)
(-0.0506665 -0.0236318 0)
(-0.0372311 -0.0212508 0)
(-0.0216124 -0.0197465 0)
(-0.00678834 -0.0169179 0)
(0.00603972 -0.0126175 0)
(0.0156108 -0.00839162 0)
(0.0217812 -0.00456029 0)
(0.0244959 -0.00138422 0)
(0.0239141 0.000939908 0)
(0.0210915 0.00248314 0)