/*--------------------------------*- C++ -*----------------------------------*\
| =========                 |                                                 |
| \\      /  F ield         | OpenFOAM: The Open Source CFD Toolbox           |
|  \\    /   O peration     | Version:  2.4.0                                 |
|   \\  /    A nd           | Web:      www.OpenFOAM.org                      |
|    \\/     M anipulation  |                                                 |
\*---------------------------------------------------------------------------*/
FoamFile
{
    version     2.0;
    format      ascii;
    class       surfaceScalarField;
    location    "0.132";
    object      phiAlpha;
}
// * * * * * * * * * * * * * * * * * * * * * * * * * * * * * * * * * * * * * //

dimensions      [0 3 -1 0 0 0 0];

internalField   nonuniform List<scalar> 
114720
(
-1.40398e-09
1.97565e-09
3.2844e-09
-3.85607e-09
3.35043e-09
-3.16691e-09
2.1767e-10
-4.0119e-10
2.52915e-10
1.33529e-09
7.88178e-10
-2.37639e-09
-7.18939e-09
9.14001e-09
8.02036e-10
-2.75266e-09
-1.49755e-08
1.66683e-08
6.0913e-10
-2.30187e-09
-2.14464e-08
2.28284e-08
4.6789e-10
-1.84992e-09
-2.69687e-08
2.81641e-08
3.68991e-10
-1.56446e-09
-3.13668e-08
3.21244e-08
1.29618e-10
-8.87177e-10
-3.33598e-08
3.32661e-08
-2.73302e-10
3.66992e-10
-3.09626e-08
2.95348e-08
-8.55581e-10
2.28336e-09
-2.28371e-08
2.01079e-08
-1.37207e-09
4.10125e-09
-1.02157e-08
6.89519e-09
-1.45493e-09
4.77546e-09
3.18232e-09
-6.08097e-09
-1.07081e-09
3.96946e-09
1.38475e-08
-1.58481e-08
-6.09915e-10
2.61055e-09
2.0844e-08
-2.20571e-08
-3.07173e-10
1.52027e-09
2.49643e-08
-2.56362e-08
-1.42475e-10
8.14318e-10
2.712e-08
-2.74089e-08
-3.72739e-11
3.26128e-10
2.78229e-08
-2.78091e-08
5.22803e-11
-6.61161e-11
2.73652e-08
-2.71099e-08
1.32498e-10
-3.87796e-10
2.59956e-08
-2.55578e-08
1.98747e-10
-6.3651e-10
2.39587e-08
-2.33956e-08
2.47622e-10
-8.10755e-10
2.14876e-08
-2.08523e-08
2.77071e-10
-9.12333e-10
1.8788e-08
-1.81234e-08
2.89537e-10
-9.54135e-10
1.60188e-08
-1.53567e-08
2.88694e-10
-9.50798e-10
1.32939e-08
-1.26536e-08
2.79346e-10
-9.19671e-10
1.0683e-08
-1.00773e-08
2.64413e-10
-8.70111e-10
8.22766e-09
-7.66299e-09
2.46654e-10
-8.11327e-10
5.95046e-09
-5.43103e-09
2.27049e-10
-7.46483e-10
3.86459e-09
-3.39223e-09
2.06515e-10
-6.78871e-10
1.97194e-09
-1.54552e-09
1.86533e-10
-6.12949e-10
3.82284e-09
1.59264e-08
-1.22725e-08
-7.47676e-09
1.19817e-08
1.61016e-09
-1.20194e-08
-1.57243e-09
7.47098e-09
9.92443e-09
-4.93254e-09
-1.24629e-08
-4.76833e-09
1.20259e-08
8.27172e-09
-1.55293e-08
-1.91248e-08
1.09091e-08
2.25582e-08
-1.43425e-08
-3.24986e-08
9.58304e-09
3.5637e-08
-1.27215e-08
-4.4905e-08
8.40196e-09
4.77949e-08
-1.12919e-08
-5.58129e-08
5.66442e-09
5.80853e-08
-7.93682e-09
-6.33264e-08
2.04394e-10
6.4301e-08
-1.17896e-09
-6.42642e-08
-7.92853e-09
6.31282e-08
9.06454e-09
-5.61927e-08
-1.54908e-08
5.28728e-08
1.88107e-08
-4.02887e-08
-1.89198e-08
3.56033e-08
2.36052e-08
-2.06631e-08
-1.72139e-08
1.58204e-08
2.20565e-08
-2.03644e-09
-1.28177e-08
-2.00233e-09
1.68564e-08
1.25917e-08
-8.36125e-09
-1.54632e-08
1.12327e-08
2.25196e-08
-4.87323e-09
-2.43103e-08
6.66393e-09
2.8395e-08
-2.20317e-09
-2.93212e-08
3.12937e-09
3.10767e-08
-1.17901e-10
-3.13396e-08
3.80775e-10
3.13545e-08
1.45353e-09
-3.11376e-08
-1.67037e-09
2.99423e-08
2.55555e-09
-2.94072e-08
-3.09069e-09
2.74511e-08
3.24647e-09
-2.67287e-08
-3.96881e-09
2.43593e-08
3.60208e-09
-2.35472e-08
-4.41414e-09
2.10159e-08
3.71059e-09
-2.01818e-08
-4.54467e-09
1.76575e-08
3.65064e-09
-1.68458e-08
-4.46235e-09
1.44344e-08
3.48741e-09
-1.36714e-08
-4.2504e-09
1.14337e-08
3.26526e-09
-1.07329e-08
-3.96608e-09
8.69166e-09
3.01693e-09
-8.0562e-09
-3.6524e-09
6.21349e-09
2.75585e-09
-5.64125e-09
-3.32809e-09
3.98469e-09
2.49831e-09
-3.47007e-09
-3.01293e-09
1.98058e-09
2.24782e-09
-1.51867e-09
-2.70973e-09
4.26106e-09
3.1765e-08
-2.76982e-08
-8.32785e-09
1.44405e-08
9.54106e-10
-1.47337e-08
-6.60922e-10
1.06698e-08
1.9934e-08
-8.2098e-09
-2.23941e-08
-1.45834e-09
2.6175e-08
5.01518e-09
-2.97318e-08
-1.61307e-08
2.49163e-08
1.96715e-08
-2.84572e-08
-3.00088e-08
2.25218e-08
3.33111e-08
-2.58241e-08
-4.31661e-08
2.04372e-08
4.62719e-08
-2.3543e-08
-5.50112e-08
1.53312e-08
5.75517e-08
-1.78717e-08
-6.37507e-08
4.88639e-09
6.50943e-08
-6.23e-09
-6.64229e-08
-1.14191e-08
6.58021e-08
1.20399e-08
-6.06302e-08
-2.75699e-08
5.79338e-08
3.02663e-08
-4.73726e-08
-3.64478e-08
4.33723e-08
4.04481e-08
-3.0482e-08
-3.56172e-08
2.62651e-08
3.98341e-08
-1.41319e-08
-2.84406e-08
1.05255e-08
3.2047e-08
-9.24653e-10
-1.96705e-08
-1.72785e-09
2.2323e-08
8.36389e-09
-1.20567e-08
-1.00873e-08
1.37801e-08
1.4157e-08
-6.07698e-09
-1.51398e-08
7.05977e-09
1.72415e-08
-1.46833e-09
-1.76688e-08
1.89565e-09
1.83152e-08
1.92289e-09
-1.83398e-08
-1.89833e-09
1.79574e-08
4.2344e-09
-1.77068e-08
-4.48498e-09
1.66509e-08
5.64328e-09
-1.62291e-08
-6.06513e-09
1.478e-08
6.34879e-09
-1.42676e-08
-6.86123e-09
1.26405e-08
6.54701e-09
-1.20984e-08
-7.08912e-09
1.04541e-08
6.39981e-09
-9.92736e-09
-6.92658e-09
8.38113e-09
6.03945e-09
-7.90066e-09
-6.51992e-09
6.52708e-09
5.56437e-09
-6.11015e-09
-5.9813e-09
4.93841e-09
5.05589e-09
-4.58729e-09
-5.407e-09
3.60568e-09
4.55675e-09
-3.31112e-09
-4.85131e-09
2.48033e-09
4.09899e-09
-2.22733e-09
-4.35198e-09
1.50204e-09
3.68006e-09
-1.27783e-09
-3.90428e-09
4.39893e-09
4.83535e-08
-4.4169e-08
-8.58342e-09
1.49918e-08
-3.02719e-10
-1.5324e-08
6.34926e-10
1.13037e-08
2.97639e-08
-8.84116e-09
-3.22264e-08
-8.63929e-10
4.04227e-08
4.43639e-09
-4.39951e-08
-1.55986e-08
3.90803e-08
1.91411e-08
-4.26229e-08
-2.94596e-08
3.57452e-08
3.27687e-08
-3.90542e-08
-4.26875e-08
3.2915e-08
4.58252e-08
-3.60528e-08
-5.46798e-08
2.55795e-08
5.72745e-08
-2.81743e-08
-6.36829e-08
1.03728e-08
6.5097e-08
-1.1787e-08
-6.66701e-08
-1.37726e-08
6.61165e-08
1.43261e-08
-6.1138e-08
-3.81996e-08
5.84938e-08
4.08437e-08
-4.81159e-08
-5.2202e-08
4.41948e-08
5.61231e-08
-3.16617e-08
-5.20866e-08
2.76087e-08
5.61396e-08
-1.60887e-08
-4.24058e-08
1.27015e-08
4.5793e-08
-3.73525e-09
-2.9929e-08
1.2608e-09
3.24034e-08
4.96215e-09
-1.87697e-08
-6.59487e-09
2.04024e-08
1.0522e-08
-9.98992e-09
-1.15013e-08
1.09692e-08
1.37126e-08
-3.30022e-09
-1.42117e-08
3.79932e-09
1.51572e-08
1.61408e-09
-1.52998e-08
-1.47156e-09
1.53109e-08
4.99328e-09
-1.51942e-08
-5.10997e-09
1.45452e-08
7.09246e-09
-1.42524e-08
-7.38526e-09
1.31752e-08
8.18639e-09
-1.27755e-08
-8.58609e-09
1.14619e-08
8.53647e-09
-1.10115e-08
-8.98684e-09
9.61341e-09
8.36058e-09
-9.15629e-09
-8.81771e-09
7.79172e-09
7.84042e-09
-7.36146e-09
-8.27067e-09
6.11809e-09
7.12567e-09
-5.73751e-09
-7.50625e-09
4.66347e-09
6.35871e-09
-4.34106e-09
-6.68112e-09
3.44049e-09
5.63536e-09
-3.17069e-09
-5.90516e-09
2.41065e-09
5.01662e-09
-2.17921e-09
-5.24806e-09
1.51443e-09
4.49234e-09
-1.30813e-09
-4.69863e-09
4.51304e-09
6.53148e-08
-6.10402e-08
-8.78771e-09
1.52789e-08
-1.63619e-09
-1.56117e-08
1.96903e-09
1.15448e-08
3.96458e-08
-9.05908e-09
-4.21315e-08
-7.20909e-10
5.4749e-08
4.31623e-09
-5.83443e-08
-1.55452e-08
5.32566e-08
1.90921e-08
-5.68035e-08
-2.93784e-08
4.89824e-08
3.26879e-08
-5.22919e-08
-4.26498e-08
4.55036e-08
4.58134e-08
-4.86672e-08
-5.47696e-08
3.60423e-08
5.74236e-08
-3.86963e-08
-6.40855e-08
1.61482e-08
6.55841e-08
-1.76468e-08
-6.74553e-08
-1.59064e-08
6.69618e-08
1.63999e-08
-6.20363e-08
-4.88412e-08
5.93458e-08
5.15318e-08
-4.86836e-08
-6.80579e-08
4.46323e-08
7.21092e-08
-3.16755e-08
-6.84396e-08
2.75022e-08
7.26129e-08
-1.57213e-08
-5.59877e-08
1.22847e-08
5.94243e-08
-3.25452e-09
-3.98017e-08
7.78772e-10
4.22775e-08
5.43069e-09
-2.52865e-08
-7.06091e-09
2.69168e-08
1.10062e-08
-1.39316e-08
-1.20013e-08
1.49267e-08
1.42904e-08
-5.35489e-09
-1.4822e-08
5.88655e-09
1.5883e-08
9.66985e-10
-1.60663e-08
-7.83669e-10
1.62055e-08
5.3796e-09
-1.6131e-08
-5.45413e-09
1.56075e-08
8.18806e-09
-1.5355e-08
-8.44053e-09
1.43954e-08
9.71844e-09
-1.40321e-08
-1.00817e-08
1.28168e-08
1.02903e-08
-1.23934e-08
-1.07137e-08
1.10568e-08
1.01681e-08
-1.06115e-08
-1.06134e-08
9.25151e-09
9.57529e-09
-8.81118e-09
-1.00156e-08
7.49828e-09
8.7e-09
-7.08189e-09
-9.1164e-09
5.85949e-09
7.73481e-09
-5.47677e-09
-8.11754e-09
4.3626e-09
6.82432e-09
-4.01525e-09
-7.17167e-09
3.00475e-09
6.06103e-09
-2.68893e-09
-6.37686e-09
1.76788e-09
5.43254e-09
-1.47972e-09
-5.7207e-09
4.65281e-09
8.26756e-08
-7.82932e-08
-9.03521e-09
1.55967e-08
-2.95919e-09
-1.59228e-08
3.28532e-09
1.17881e-08
4.96324e-08
-9.27206e-09
-5.21484e-08
-5.99344e-10
6.91759e-08
4.22518e-09
-7.28017e-08
-1.55417e-08
6.74528e-08
1.90943e-08
-7.10054e-08
-2.93347e-08
6.222e-08
3.26434e-08
-6.55287e-08
-4.26568e-08
5.82034e-08
4.58515e-08
-6.13981e-08
-5.49283e-08
4.6767e-08
5.76582e-08
-4.94969e-08
-6.46508e-08
2.22943e-08
6.62533e-08
-2.38968e-08
-6.85428e-08
-1.77552e-08
6.81382e-08
1.81598e-08
-6.33148e-08
-5.96832e-08
6.057e-08
6.2428e-08
-4.95368e-08
-8.45213e-08
4.53055e-08
8.87526e-08
-3.17188e-08
-8.54125e-08
2.73495e-08
8.97818e-08
-1.50765e-08
-6.99044e-08
1.15198e-08
7.3461e-08
-2.249e-09
-4.97651e-08
-2.69887e-10
5.2284e-08
6.53854e-09
-3.18191e-08
-8.17484e-09
3.34554e-08
1.21324e-08
-1.79248e-08
-1.31334e-08
1.89259e-08
1.54501e-08
-7.50213e-09
-1.59924e-08
8.04443e-09
1.70822e-08
2.16828e-10
-1.72724e-08
-2.65573e-11
1.74255e-08
5.66553e-09
-1.73537e-08
-5.73735e-09
1.68356e-08
9.18449e-09
-1.65862e-08
-9.43391e-09
1.56363e-08
1.11569e-08
-1.52768e-08
-1.15164e-08
1.40766e-08
1.19681e-08
-1.36586e-08
-1.23861e-08
1.23344e-08
1.19423e-08
-1.18906e-08
-1.23862e-08
1.05202e-08
1.13507e-08
-1.00699e-08
-1.1801e-08
8.69995e-09
1.04117e-08
-8.25502e-09
-1.08567e-08
6.913e-09
9.34721e-09
-6.4807e-09
-9.77951e-09
5.18763e-09
8.32239e-09
-4.77439e-09
-8.73563e-09
3.5491e-09
7.44452e-09
-3.16042e-09
-7.8332e-09
2.01743e-09
6.70217e-09
-1.65839e-09
-7.06121e-09
4.82589e-09
1.00523e-07
-9.60102e-08
-9.33839e-09
1.59868e-08
-4.24694e-09
-1.63003e-08
4.56041e-09
1.20831e-08
5.97502e-08
-9.5298e-09
-6.23035e-08
-4.54788e-10
8.37287e-08
4.11766e-09
-8.73916e-08
-1.55455e-08
8.16732e-08
1.91052e-08
-8.52329e-08
-2.92823e-08
7.54527e-08
3.25895e-08
-7.87599e-08
-4.26679e-08
7.10361e-08
4.59e-08
-7.42682e-08
-5.51141e-08
5.78221e-08
5.79385e-08
-6.06465e-08
-6.53407e-08
2.88724e-08
6.7056e-08
-3.05877e-08
-6.98885e-08
-1.92081e-08
6.96e-08
1.94966e-08
-6.49253e-08
-7.07533e-08
6.21181e-08
7.35605e-08
-5.06348e-08
-1.01766e-07
4.61806e-08
1.0622e-07
-3.18067e-08
-1.0324e-07
2.71935e-08
1.07853e-07
-1.43109e-08
-8.43449e-08
1.06061e-08
8.80497e-08
-1.04306e-09
-5.99144e-08
-1.5251e-09
6.24826e-08
7.84755e-09
-3.83649e-08
-9.48228e-09
3.99996e-08
1.34227e-08
-2.19261e-08
-1.44205e-08
2.2924e-08
1.67391e-08
-9.67591e-09
-1.72837e-08
1.02205e-08
1.83724e-08
-5.38084e-10
-1.85573e-08
7.22951e-10
1.86762e-08
5.9742e-09
-1.85871e-08
-6.06333e-09
1.80058e-08
1.02142e-08
-1.77315e-08
-1.04884e-08
1.67073e-08
1.26226e-08
-1.63244e-08
-1.30056e-08
1.50569e-08
1.36632e-08
-1.46184e-08
-1.41017e-08
1.32361e-08
1.37382e-08
-1.27742e-08
-1.42001e-08
1.13488e-08
1.3176e-08
-1.08797e-08
-1.36451e-08
9.44605e-09
1.2227e-08
-8.97744e-09
-1.26956e-08
7.55248e-09
1.11269e-08
-7.08945e-09
-1.15899e-08
5.69323e-09
1.00375e-08
-5.24364e-09
-1.04871e-08
3.90279e-09
9.06635e-09
-3.47549e-09
-9.49365e-09
2.2158e-09
8.20343e-09
-1.81944e-09
-8.59978e-09
5.03764e-09
1.18953e-07
-1.14286e-07
-9.70525e-09
1.64513e-08
-5.47167e-09
-1.6743e-08
5.76345e-09
1.24308e-08
7.00264e-08
-9.83388e-09
-7.26233e-08
-2.81494e-10
9.84427e-08
3.98652e-09
-1.02148e-07
-1.55506e-08
9.59226e-08
1.91179e-08
-9.94899e-08
-2.92056e-08
8.86762e-08
3.25091e-08
-9.19797e-08
-4.26645e-08
8.4026e-08
4.59391e-08
-8.73006e-08
-5.52978e-08
6.92849e-08
5.82372e-08
-7.22243e-08
-6.61299e-08
3.58994e-08
6.79531e-08
-3.77226e-08
-7.14757e-08
-2.01529e-08
7.13331e-08
2.02955e-08
-6.6865e-08
-8.20829e-08
6.39894e-08
8.49585e-08
-5.19685e-08
-1.19972e-07
4.7244e-08
1.24696e-07
-3.19042e-08
-1.22118e-07
2.69954e-08
1.27027e-07
-1.33831e-08
-9.94169e-08
9.50357e-09
1.03296e-07
3.94264e-10
-7.0264e-08
-3.01327e-09
7.2883e-08
9.37057e-09
-4.48883e-08
-1.09924e-08
4.65101e-08
1.48847e-08
-2.59053e-08
-1.58734e-08
2.6894e-08
1.81893e-08
-1.18576e-08
-1.87371e-08
1.24053e-08
1.98252e-08
-1.26643e-09
-2.00027e-08
1.44388e-09
2.00676e-08
6.36827e-09
-1.99517e-08
-6.48417e-09
1.92661e-08
1.13662e-08
-1.89526e-08
-1.16797e-08
1.78003e-08
1.42137e-08
-1.73744e-08
-1.46396e-08
1.59772e-08
1.54731e-08
-1.54979e-08
-1.59524e-08
1.39974e-08
1.56356e-08
-1.34994e-08
-1.61337e-08
1.19718e-08
1.50953e-08
-1.14719e-08
-1.55952e-08
9.95215e-09
1.4139e-08
-9.45778e-09
-1.46334e-08
7.96081e-09
1.30129e-08
-7.47617e-09
-1.34975e-08
6.01869e-09
1.18672e-08
-5.55041e-09
-1.23355e-08
4.15518e-09
1.08053e-08
-3.71073e-09
-1.12498e-08
2.39961e-09
9.81767e-09
-1.98664e-09
-1.02306e-08
5.29131e-09
1.38066e-07
-1.33219e-07
-1.01387e-08
1.70002e-08
-6.59109e-09
-1.72568e-08
6.84766e-09
1.28362e-08
8.04888e-08
-1.01881e-08
-8.31369e-08
-7.46445e-11
1.1334e-07
3.83313e-09
-1.17098e-07
-1.55663e-08
1.10206e-07
1.91433e-08
-1.13783e-07
-2.91117e-08
1.01884e-07
3.24102e-08
-1.05182e-07
-4.26609e-08
9.71961e-08
4.59844e-08
-1.0052e-07
-5.5489e-08
8.12455e-08
5.85694e-08
-8.43259e-08
-6.7042e-08
4.33299e-08
6.89493e-08
-4.52373e-08
-7.33451e-08
-2.04667e-08
7.33801e-08
2.04317e-08
-6.91931e-08
-9.36929e-08
6.62458e-08
9.66401e-08
-5.35837e-08
-1.3934e-07
4.85341e-08
1.4439e-07
-3.20128e-08
-1.42268e-07
2.67478e-08
1.47533e-07
-1.22667e-08
-1.15234e-07
8.18163e-09
1.19319e-07
2.09691e-09
-8.08215e-08
-4.76984e-09
8.34944e-08
1.11332e-08
-5.13383e-08
-1.27256e-08
5.29307e-08
1.65299e-08
-2.98404e-08
-1.75043e-08
3.08148e-08
1.98251e-08
-1.40607e-08
-2.03829e-08
1.46186e-08
2.14892e-08
-1.96767e-09
-2.1662e-08
2.14047e-09
2.16692e-08
6.87916e-09
-2.15206e-08
-7.0277e-09
2.07033e-08
1.26928e-08
-2.03393e-08
-1.30568e-08
1.90209e-08
1.59978e-08
-1.8539e-08
-1.64797e-08
1.69723e-08
1.74681e-08
-1.6439e-08
-1.80014e-08
1.47827e-08
1.76966e-08
-1.42371e-08
-1.82423e-08
1.25766e-08
1.71513e-08
-1.20378e-08
-1.76901e-08
1.04144e-08
1.61589e-08
-9.8913e-09
-1.6682e-08
8.32175e-09
1.49805e-08
-7.81805e-09
-1.54842e-08
6.31443e-09
1.37595e-08
-5.83418e-09
-1.42398e-08
4.40844e-09
1.25979e-08
-3.955e-09
-1.30513e-08
2.61653e-09
1.14851e-08
-2.19392e-09
-1.19077e-08
5.5914e-09
1.5796e-07
-1.52908e-07
-1.06431e-08
1.76378e-08
-7.54321e-09
-1.78405e-08
7.74587e-09
1.32998e-08
9.11675e-08
-1.05924e-08
-9.38748e-08
1.45448e-10
1.28438e-07
3.65769e-09
-1.32241e-07
-1.5597e-08
1.24532e-07
1.9187e-08
-1.28122e-07
-2.8996e-08
1.15068e-07
3.22882e-08
-1.18361e-07
-4.26557e-08
1.10572e-07
4.60358e-08
-1.13952e-07
-5.56754e-08
9.38151e-08
5.89283e-08
-9.70681e-08
-6.80772e-08
5.10296e-08
7.00172e-08
-5.29695e-08
-7.55193e-08
-2.00249e-08
7.57606e-08
1.97836e-08
-7.19564e-08
-1.05588e-07
6.89394e-08
1.08605e-07
-5.5515e-08
-1.60096e-07
5.00818e-08
1.65529e-07
-3.21225e-08
-1.63943e-07
2.64324e-08
1.69633e-07
-1.0928e-08
-1.31922e-07
6.60317e-09
1.36247e-07
4.10549e-09
-9.1592e-08
-6.83127e-09
9.43178e-08
1.31532e-08
-5.76359e-08
-1.46905e-08
5.91733e-08
1.83463e-08
-3.37094e-08
-1.93003e-08
3.46634e-08
2.16453e-08
-1.63211e-08
-2.2226e-08
1.69019e-08
2.3387e-08
-2.6599e-09
-2.35625e-08
2.83538e-09
2.3514e-08
7.52843e-09
-2.33276e-08
-7.71488e-09
2.23511e-08
1.42375e-08
-2.19257e-08
-1.46629e-08
2.04063e-08
1.80229e-08
-1.9857e-08
-1.85722e-08
1.80884e-08
1.96935e-08
-1.74916e-08
-2.02902e-08
1.56532e-08
1.99599e-08
-1.50524e-08
-2.05607e-08
1.32398e-08
1.9371e-08
-1.2657e-08
-1.99538e-08
1.09187e-08
1.82974e-08
-1.03645e-08
-1.88516e-08
8.72001e-09
1.70229e-08
-8.19801e-09
-1.75449e-08
6.65419e-09
1.56949e-08
-6.16498e-09
-1.61841e-08
4.71963e-09
1.44205e-08
-4.26111e-09
-1.4879e-08
2.90487e-09
1.31873e-08
-2.47493e-09
-1.36173e-08
5.94355e-09
1.7873e-07
-1.7345e-07
-1.12232e-08
1.83602e-08
-8.24516e-09
-1.84848e-08
8.36974e-09
1.38171e-08
1.02094e-07
-1.1043e-08
-1.04868e-07
4.05192e-10
1.43738e-07
3.45804e-09
-1.47601e-07
-1.56429e-08
1.38915e-07
1.92497e-08
-1.42522e-07
-2.88423e-08
1.28224e-07
3.21257e-08
-1.31507e-07
-4.26328e-08
1.24186e-07
4.60779e-08
-1.27631e-07
-5.58228e-08
1.07127e-07
5.92833e-08
-1.10587e-07
-6.92104e-08
5.87366e-08
7.10909e-08
-6.06171e-08
-7.80033e-08
-1.87284e-08
7.84664e-08
1.82653e-08
-7.51882e-08
-1.17751e-07
7.21103e-08
1.20829e-07
-5.77832e-08
-1.82469e-07
5.1911e-08
1.88341e-07
-3.22092e-08
-1.8743e-07
2.60168e-08
1.93622e-07
-9.32304e-09
-1.49623e-07
4.7222e-09
1.54224e-07
6.46398e-09
-1.02571e-07
-9.23991e-09
1.05347e-07
1.54475e-08
-6.36567e-08
-1.68879e-08
6.50971e-08
2.02998e-08
-3.74852e-08
-2.12254e-08
3.84107e-08
2.36314e-08
-1.87033e-08
-2.42575e-08
1.93295e-08
2.55347e-08
-3.37894e-09
-2.57249e-08
3.56914e-09
2.56277e-08
8.33799e-09
-2.53971e-08
-8.56858e-09
2.42269e-08
1.60475e-08
-2.37256e-08
-1.65487e-08
2.19633e-08
2.03355e-08
-2.13344e-08
-2.09644e-08
1.9331e-08
2.21865e-08
-1.86615e-08
-2.28559e-08
1.66167e-08
2.24537e-08
-1.5954e-08
-2.31164e-08
1.39719e-08
2.17734e-08
-1.33404e-08
-2.24049e-08
1.14759e-08
2.05635e-08
-1.08881e-08
-2.11514e-08
9.165e-09
1.91379e-08
-8.625e-09
-1.96779e-08
7.0482e-09
1.76603e-08
-6.55453e-09
-1.8154e-08
5.10925e-09
1.62547e-08
-4.65333e-09
-1.67106e-08
3.30514e-09
1.49115e-08
-2.87521e-09
-1.53414e-08
6.35493e-09
2.00466e-07
-1.94937e-07
-1.18842e-08
1.9175e-08
-8.59128e-09
-1.91913e-08
8.60763e-09
1.4393e-08
1.13301e-07
-1.15433e-08
-1.16151e-07
6.9734e-10
1.59292e-07
3.23494e-09
-1.63224e-07
-1.5717e-08
1.53378e-07
1.9349e-08
-1.5701e-07
-2.86528e-08
1.41345e-07
3.19274e-08
-1.44619e-07
-4.26065e-08
1.3808e-07
4.61309e-08
-1.41605e-07
-5.59363e-08
1.21323e-07
5.96395e-08
-1.25026e-07
-7.04653e-08
6.60013e-08
7.21338e-08
-6.76698e-08
-8.08745e-08
-1.65545e-08
8.15426e-08
1.58864e-08
-7.89829e-08
-1.30126e-07
7.58758e-08
1.33234e-07
-6.04755e-08
-2.0669e-07
5.40966e-08
2.13069e-07
-3.22695e-08
-2.13063e-07
2.54804e-08
2.19852e-07
-7.40819e-09
-1.6849e-07
2.4895e-09
1.73409e-07
9.23037e-09
-1.13749e-07
-1.20558e-08
1.16574e-07
1.80513e-08
-6.91991e-08
-1.93275e-08
7.04753e-08
2.23477e-08
-4.1135e-08
-2.32365e-08
4.20238e-08
2.5773e-08
-2.13179e-08
-2.64824e-08
2.20273e-08
2.7977e-08
-4.18465e-09
-2.82021e-08
4.40976e-09
2.80651e-08
9.33834e-09
-2.77796e-08
-9.62379e-09
2.63636e-08
1.81875e-08
-2.57679e-08
-1.87833e-08
2.37081e-08
2.29887e-08
-2.29836e-08
-2.37133e-08
2.07076e-08
2.4986e-08
-1.99544e-08
-2.57392e-08
1.76739e-08
2.5207e-08
-1.6941e-08
-2.59399e-08
1.47667e-08
2.438e-08
-1.40798e-08
-2.50669e-08
1.20706e-08
2.2971e-08
-1.14438e-08
-2.35977e-08
9.63004e-09
2.13262e-08
-9.07031e-09
-2.18859e-08
7.46729e-09
1.96326e-08
-6.97684e-09
-2.0123e-08
5.57662e-09
1.80502e-08
-5.14535e-09
-1.84814e-08
3.88437e-09
1.66032e-08
-3.48089e-09
-1.70067e-08
6.83477e-09
2.23258e-07
-2.17457e-07
-1.26365e-08
2.00806e-08
-8.45728e-09
-1.99583e-08
8.33502e-09
1.50262e-08
1.24826e-07
-1.20915e-08
-1.2776e-07
1.0217e-09
1.7513e-07
2.98456e-09
-1.79136e-07
-1.58264e-08
1.67959e-07
1.94971e-08
-1.7163e-07
-2.84133e-08
1.54431e-07
3.16804e-08
-1.57699e-07
-4.25708e-08
1.52323e-07
4.61968e-08
-1.55949e-07
-5.59913e-08
1.36535e-07
5.99662e-08
-1.4051e-07
-7.18381e-08
7.20762e-08
7.30388e-08
-7.32769e-08
-8.42134e-08
-1.36728e-08
8.49845e-08
1.29017e-08
-8.34112e-08
-1.42477e-07
8.03909e-08
1.45497e-07
-6.37413e-08
-2.33136e-07
5.66873e-08
2.4019e-07
-3.22749e-08
-2.41249e-07
2.47746e-08
2.4875e-07
-5.12731e-09
-1.88696e-07
-1.56976e-10
1.9398e-07
1.24718e-08
-1.2513e-07
-1.53525e-08
1.2801e-07
2.10105e-08
-7.39323e-08
-2.2008e-08
7.49299e-08
2.44018e-08
-4.46261e-08
-2.52467e-08
4.54709e-08
2.80389e-08
-2.43481e-08
-2.88927e-08
2.52019e-08
3.07653e-08
-5.17121e-09
-3.10555e-08
5.46143e-09
3.08893e-08
1.0582e-08
-3.0531e-08
-1.09403e-08
2.8789e-08
2.07428e-08
-2.80716e-08
-2.14601e-08
2.56448e-08
2.605e-08
-2.48067e-08
-2.68882e-08
2.22081e-08
2.81394e-08
-2.13592e-08
-2.89883e-08
1.88116e-08
2.82547e-08
-1.79995e-08
-2.90668e-08
1.5604e-08
2.72217e-08
-1.48523e-08
-2.79735e-08
1.26687e-08
2.55477e-08
-1.1993e-08
-2.62234e-08
1.0056e-08
2.36055e-08
-9.4652e-09
-2.41963e-08
7.79968e-09
2.15945e-08
-7.30038e-09
-2.20938e-08
5.91046e-09
1.97289e-08
-5.49375e-09
-2.01456e-08
4.29947e-09
1.81564e-08
-3.92096e-09
-1.85349e-08
7.39501e-09
2.47204e-07
-2.41103e-07
-1.34958e-08
2.1077e-08
-7.73139e-09
-2.07929e-08
7.44729e-09
1.57167e-08
1.36704e-07
-1.2687e-08
-1.39734e-07
1.37914e-09
1.91274e-07
2.70821e-09
-1.95362e-07
-1.59835e-08
1.82724e-07
1.97144e-08
-1.86455e-07
-2.81089e-08
1.67495e-07
3.13738e-08
-1.70759e-07
-4.25245e-08
1.6702e-07
4.62888e-08
-1.70784e-07
-5.59406e-08
1.5291e-07
6.02732e-08
-1.57243e-07
-7.33721e-08
7.56915e-08
7.36531e-08
-7.59725e-08
-8.81743e-08
-1.07365e-08
8.87625e-08
1.01484e-08
-8.87107e-08
-1.54286e-07
8.5854e-08
1.57142e-07
-6.78128e-08
-2.62791e-07
5.97059e-08
2.70898e-07
-3.21561e-08
-2.72471e-07
2.38165e-08
2.8081e-07
-2.41896e-09
-2.1044e-07
-3.28042e-09
2.16139e-07
1.62691e-08
-1.36759e-07
-1.92285e-08
1.39718e-07
2.44019e-08
-7.72875e-08
-2.49231e-08
7.78087e-08
2.6318e-08
-4.79376e-08
-2.71181e-08
4.87377e-08
3.03852e-08
-2.80903e-08
-3.14825e-08
2.91876e-08
3.39863e-08
-6.48169e-09
-3.43884e-08
6.88381e-09
3.41973e-08
1.21603e-08
-3.37328e-08
-1.26248e-08
3.15328e-08
2.38397e-08
-3.06539e-08
-2.47187e-08
2.7766e-08
2.95991e-08
-2.67921e-08
-3.0573e-08
2.3824e-08
3.16946e-08
-2.28664e-08
-3.26523e-08
2.00172e-08
3.16366e-08
-1.91142e-08
-3.25396e-08
1.64649e-08
3.03394e-08
-1.56369e-08
-3.11674e-08
1.32406e-08
2.83408e-08
-1.25017e-08
-2.90797e-08
1.03886e-08
2.6044e-08
-9.7434e-09
-2.66892e-08
7.89826e-09
2.36833e-08
-7.32632e-09
-2.42553e-08
5.62369e-09
2.15555e-08
-5.0676e-09
-2.21116e-08
3.37201e-09
1.98394e-08
-2.83316e-09
-2.03783e-08
8.04503e-09
2.72417e-07
-2.65987e-07
-1.44749e-08
2.21645e-08
-6.33284e-09
-2.17029e-08
5.87125e-09
1.64644e-08
1.48978e-07
-1.3329e-08
-1.52114e-07
1.77073e-09
2.07746e-07
2.39987e-09
-2.11916e-07
-1.62042e-08
1.97776e-07
2.00294e-08
-2.01602e-07
-2.77201e-08
1.80563e-07
3.09939e-08
-1.83837e-07
-4.24664e-08
1.82352e-07
4.64293e-08
-1.86315e-07
-5.55865e-08
1.7133e-07
6.08605e-08
-1.76604e-07
-7.56529e-08
7.42846e-08
7.37875e-08
-7.24192e-08
-9.28001e-08
-9.20825e-09
9.27595e-08
9.24888e-09
-9.52687e-08
-1.65697e-07
9.24299e-08
1.68536e-07
-7.27027e-08
-2.97226e-07
6.32595e-08
3.06669e-07
-3.1769e-08
-3.07259e-07
2.24847e-08
3.16544e-07
8.07002e-10
-2.33911e-07
-6.93164e-09
2.40036e-07
2.07119e-08
-1.48776e-07
-2.38109e-08
1.51875e-07
2.838e-08
-7.83021e-08
-2.81057e-08
7.80278e-08
2.78644e-08
-5.10804e-08
-2.86318e-08
5.18478e-08
3.27504e-08
-3.30172e-08
-3.42456e-08
3.45124e-08
3.77792e-08
-8.34105e-09
-3.83682e-08
8.9301e-09
3.81355e-08
1.42485e-08
-3.74986e-08
-1.48854e-08
3.46152e-08
2.76641e-08
-3.35161e-08
-2.87632e-08
3.00514e-08
3.37256e-08
-2.89191e-08
-3.48579e-08
2.55363e-08
3.57012e-08
-2.44596e-08
-3.67779e-08
2.12795e-08
3.53963e-08
-2.02762e-08
-3.63996e-08
1.73382e-08
3.37814e-08
-1.64207e-08
-3.46989e-08
1.37678e-08
3.14081e-08
-1.29511e-08
-3.22248e-08
1.06257e-08
2.87156e-08
-9.92127e-09
-2.942e-08
7.93714e-09
2.6056e-08
-7.33621e-09
-2.66569e-08
5.60962e-09
2.39081e-08
-5.06752e-09
-2.44502e-08
3.42035e-09
2.22097e-08
-2.85682e-09
-2.27733e-08
8.79685e-09
2.99034e-07
-2.9224e-07
-1.55908e-08
2.33464e-08
-4.20532e-09
-2.26947e-08
3.5536e-09
1.72711e-08
1.61693e-07
-1.40178e-08
-1.64946e-07
2.1979e-09
2.2455e-07
2.05676e-09
-2.28805e-07
-1.65125e-08
2.13276e-07
2.04827e-08
-2.17246e-07
-2.72235e-08
1.93694e-07
3.05267e-08
-1.96998e-07
-4.24e-08
1.98606e-07
4.66544e-08
-2.0286e-07
-5.49896e-08
1.94808e-07
6.16035e-08
-2.01422e-07
-8.11121e-08
5.99301e-08
7.4391e-08
-5.32089e-08
-9.6069e-08
-1.00456e-08
9.60192e-08
1.00954e-08
-1.02832e-07
-1.76315e-07
1.00791e-07
1.78357e-07
-7.86664e-08
-3.36695e-07
6.81129e-08
3.47249e-07
-3.10098e-08
-3.46011e-07
2.06331e-08
3.56387e-07
4.68198e-09
-2.59134e-07
-1.12327e-08
2.65685e-07
2.58856e-08
-1.61509e-07
-2.92326e-08
1.64856e-07
3.33129e-08
-7.53491e-08
-3.15948e-08
7.3631e-08
2.85746e-08
-5.41931e-08
-2.94208e-08
5.50393e-08
3.5056e-08
-3.98559e-08
-3.71805e-08
4.19804e-08
4.23709e-08
-1.11181e-08
-4.32769e-08
1.20241e-08
4.29399e-08
1.71992e-08
-4.19936e-08
-1.81455e-08
3.80269e-08
3.24852e-08
-3.66247e-08
-3.38873e-08
3.24558e-08
3.85153e-08
-3.11475e-08
-3.98236e-08
2.73238e-08
4.0194e-08
-2.61228e-08
-4.1395e-08
2.25945e-08
3.95693e-08
-2.14834e-08
-4.06804e-08
1.82241e-08
3.76021e-08
-1.7203e-08
-3.86231e-08
1.42378e-08
3.48155e-08
-1.33213e-08
-3.5732e-08
1.07111e-08
3.16356e-08
-9.92613e-09
-3.24206e-08
7.77747e-09
2.84295e-08
-7.16332e-09
-2.90436e-08
5.5903e-09
2.57216e-08
-5.17937e-09
-2.61325e-08
4.22101e-09
2.38742e-08
-3.92612e-09
-2.41691e-08
9.66943e-09
3.27211e-07
-3.20012e-07
-1.68693e-08
2.46181e-08
-1.29808e-09
-2.37629e-08
4.42863e-10
1.81316e-08
1.74895e-07
-1.47488e-08
-1.78278e-07
2.66122e-09
2.41684e-07
1.67333e-09
-2.46019e-07
-1.69352e-08
2.2945e-07
2.11183e-08
-2.33633e-07
-2.6576e-08
2.06987e-07
2.99424e-08
-2.10354e-07
-4.23129e-08
2.16211e-07
4.69966e-08
-2.20894e-07
-5.50719e-08
2.1924e-07
5.92857e-08
-2.23454e-07
-8.24731e-08
3.26514e-08
7.90206e-08
-2.91989e-08
-9.27278e-08
-6.4618e-09
9.58231e-08
3.36681e-09
-1.0868e-07
-1.80087e-07
1.11105e-07
1.77663e-07
-8.71499e-08
-3.81242e-07
7.49491e-08
3.93442e-07
-3.00248e-08
-3.88289e-07
1.79719e-08
4.00342e-07
9.34828e-09
-2.85881e-07
-1.62113e-08
2.92744e-07
3.17858e-08
-1.75447e-07
-3.55005e-08
1.79161e-07
3.95735e-08
-6.45193e-08
-3.43293e-08
5.92751e-08
2.74344e-08
-5.82009e-08
-2.8883e-08
5.96494e-08
3.71883e-08
-4.96612e-08
-4.02604e-08
5.27333e-08
4.81168e-08
-1.54864e-08
-4.95891e-08
1.69587e-08
4.89559e-08
2.17638e-08
-4.74e-08
-2.33197e-08
4.16527e-08
3.86704e-08
-3.98442e-08
-4.04789e-08
3.48802e-08
4.4015e-08
-3.33973e-08
-4.54979e-08
2.91511e-08
4.518e-08
-2.78309e-08
-4.65002e-08
2.396e-08
4.41786e-08
-2.2739e-08
-4.53996e-08
1.9138e-08
4.18568e-08
-1.80012e-08
-4.29937e-08
1.46621e-08
3.86683e-08
-1.36148e-08
-3.97156e-08
1.05708e-08
3.49844e-08
-9.63084e-09
-3.59243e-08
6.96625e-09
3.11304e-08
-6.169e-09
-3.19277e-08
3.96585e-09
2.78147e-08
-3.30179e-09
-2.84788e-08
1.22473e-09
2.52993e-08
-4.4731e-10
-2.60767e-08
1.06792e-08
3.57113e-07
-3.49466e-07
-1.83257e-08
2.59793e-08
2.44574e-09
-2.49054e-08
-3.51966e-09
1.90438e-08
1.88635e-07
-1.55193e-08
-1.92159e-07
3.16101e-09
2.59126e-07
1.24049e-09
-2.63527e-07
-1.75155e-08
2.46606e-07
2.20037e-08
-2.51094e-07
-2.57291e-08
2.20607e-07
2.92121e-08
-2.2409e-07
-4.21971e-08
2.35846e-07
4.75434e-08
-2.41192e-07
-5.44297e-08
2.3016e-07
5.56921e-08
-2.31422e-07
-6.73651e-08
3.99618e-08
7.81321e-08
-5.0728e-08
-8.40272e-08
1.11818e-08
8.98214e-08
-1.69752e-08
-1.08798e-07
-1.53181e-07
1.23314e-07
1.38666e-07
-9.35053e-08
-4.31799e-07
7.9696e-08
4.45609e-07
-2.83047e-08
-4.34194e-07
1.65143e-08
4.45984e-07
1.46521e-08
-3.13683e-07
-2.16796e-08
3.2071e-07
3.83036e-08
-1.90784e-07
-4.21943e-08
1.94675e-07
3.60241e-08
-3.21562e-08
-2.40178e-08
2.01499e-08
2.32029e-08
-6.63228e-08
-2.64947e-08
6.96146e-08
3.9024e-08
-6.3831e-08
-4.34378e-08
6.82448e-08
5.55202e-08
-2.27029e-08
-5.79784e-08
2.51611e-08
5.64211e-08
2.95832e-08
-5.36222e-08
-3.23822e-08
4.51333e-08
4.66127e-08
-4.28516e-08
-4.88944e-08
3.71818e-08
5.01679e-08
-3.55661e-08
-5.17836e-08
3.09914e-08
5.06177e-08
-2.95719e-08
-5.20372e-08
2.5394e-08
4.92221e-08
-2.40685e-08
-5.05476e-08
2.01281e-08
4.65845e-08
-1.88715e-08
-4.78411e-08
1.51299e-08
4.30783e-08
-1.3935e-08
-4.42732e-08
1.03667e-08
3.9047e-08
-9.22237e-09
-4.01913e-08
5.78871e-09
3.47396e-08
-4.68338e-09
-3.58449e-08
1.3739e-09
3.08417e-08
-3.11032e-10
-3.19046e-08
-2.84554e-09
2.86639e-08
3.74775e-09
-2.95661e-08
1.18568e-08
3.88913e-07
-3.80776e-07
-1.99938e-08
2.74356e-08
7.08975e-09
-2.61261e-08
-8.39917e-09
2.00084e-08
2.02961e-07
-1.63304e-08
-2.06639e-07
3.69736e-09
2.76817e-07
7.54628e-10
-2.81269e-07
-1.83205e-08
2.65168e-07
2.32476e-08
-2.70095e-07
-2.46234e-08
2.34807e-07
2.83057e-08
-2.3849e-07
-4.20543e-08
2.58656e-07
4.84447e-08
-2.65047e-07
-5.21531e-08
2.38629e-07
5.65891e-08
-2.43065e-07
-6.81612e-08
9.67176e-08
8.47033e-08
-1.1326e-07
-7.21648e-08
3.39683e-08
7.75947e-08
-3.93983e-08
-1.07479e-07
-7.8712e-08
1.32936e-07
5.32555e-08
-1.06256e-07
-5.05078e-07
7.76239e-08
5.3371e-07
-2.21748e-08
-4.81703e-07
1.12145e-08
4.92663e-07
1.96266e-08
-3.42511e-07
-2.72193e-08
3.50104e-07
4.50331e-08
-2.04997e-07
-4.77646e-08
2.07728e-07
1.08019e-08
1.48226e-08
-1.35647e-09
-2.4268e-08
1.66461e-08
-8.38089e-08
-2.28306e-08
8.99934e-08
4.04505e-08
-8.3981e-08
-4.65908e-08
9.01213e-08
6.45424e-08
-3.45158e-08
-6.83173e-08
3.82907e-08
6.33255e-08
4.37616e-08
-5.84081e-08
-4.8679e-08
4.76061e-08
5.62596e-08
-4.51262e-08
-5.87395e-08
3.92491e-08
5.6722e-08
-3.75975e-08
-5.83735e-08
3.28571e-08
5.6411e-08
-3.13676e-08
-5.79004e-08
2.69402e-08
5.46675e-08
-2.55223e-08
-5.60854e-08
2.12687e-08
5.17839e-08
-1.98995e-08
-5.31531e-08
1.57819e-08
4.8068e-08
-1.44523e-08
-4.93975e-08
1.04308e-08
4.38942e-08
-9.12211e-09
-4.52028e-08
5.12538e-09
3.95409e-08
-3.81276e-09
-4.08535e-08
-1.86254e-10
3.55617e-08
1.47503e-09
-3.68505e-08
-5.18361e-09
3.24934e-08
6.27889e-09
-3.35887e-08
1.32368e-08
4.22782e-07
-4.14111e-07
-2.19075e-08
2.89809e-08
1.27008e-08
-2.74195e-08
-1.42623e-08
2.10153e-08
2.17912e-07
-1.71775e-08
-2.2175e-07
4.26741e-09
2.94667e-07
2.00256e-10
-2.99135e-07
-1.94441e-08
2.8576e-07
2.50117e-08
-2.91328e-07
-2.31626e-08
2.49979e-07
2.71731e-08
-2.53989e-07
-4.19977e-08
2.86223e-07
4.9673e-08
-2.93898e-07
-5.02299e-08
2.56788e-07
5.19985e-08
-2.58556e-07
-8.97361e-08
1.48325e-07
9.24372e-08
-1.51026e-07
-5.00025e-08
5.74041e-08
5.68758e-08
-6.42775e-08
-1.27632e-07
4.06381e-08
1.57395e-07
-7.04018e-08
-1.31869e-07
-6.42454e-07
8.22384e-08
6.92085e-07
-9.37503e-09
-5.29077e-07
1.146e-09
5.37306e-07
2.36215e-08
-3.72406e-07
-3.23266e-08
3.81111e-07
5.1991e-08
-2.12045e-07
-5.21407e-08
2.12194e-07
8.93505e-09
2.95295e-08
-1.25832e-08
-2.58813e-08
1.30512e-08
-1.10788e-07
-1.99446e-08
1.17681e-07
4.12761e-08
-1.11302e-07
-4.92009e-08
1.19226e-07