/*--------------------------------*- C++ -*----------------------------------*\
| =========                 |                                                 |
| \\      /  F ield         | OpenFOAM: The Open Source CFD Toolbox           |
|  \\    /   O peration     | Version:  2.4.0                                 |
|   \\  /    A nd           | Web:      www.OpenFOAM.org                      |
|    \\/     M anipulation  |                                                 |
\*---------------------------------------------------------------------------*/
FoamFile
{
    version     2.0;
    format      ascii;
    class       volVectorField;
    location    "0.044";
    object      U;
}
// * * * * * * * * * * * * * * * * * * * * * * * * * * * * * * * * * * * * * //

dimensions      [0 1 -1 0 0 0 0];

internalField   nonuniform List<vector> 
57600
(
(-0.000405482 3.08822e-05 0)
(-0.000926701 1.14875e-05 0)
(-0.00173076 1.43571e-05 0)
(-0.00263472 1.71158e-05 0)
(-0.00354799 1.65006e-05 0)
(-0.00423583 8.21258e-06 0)
(-0.00435387 -1.35661e-05 0)
(-0.00347368 -5.58077e-05 0)
(-0.0011608 -0.000121245 0)
(0.00287616 -0.000205935 0)
(0.00860722 -0.000291765 0)
(0.0156072 -0.000361247 0)
(0.023172 -0.000399346 0)
(0.0304984 -0.000396323 0)
(0.0368535 -0.000348204 0)
(0.0417153 -0.000260749 0)
(0.0448387 -0.000143536 0)
(0.046192 -3.94986e-06 0)
(0.0458629 0.000151928 0)
(0.0440325 0.000315329 0)
(0.0409661 0.000472646 0)
(0.0369833 0.000611424 0)
(0.0324123 0.000723747 0)
(0.027551 0.000807192 0)
(0.0226492 0.000863983 0)
(0.0178997 0.000898128 0)
(0.0134391 0.000914694 0)
(0.00934921 0.000918124 0)
(0.00566212 0.000913186 0)
(0.00236781 0.000903772 0)
(-0.000515688 0.000121424 0)
(-0.00183914 9.64787e-05 0)
(-0.00332434 0.00012296 0)
(-0.00512372 0.000153608 0)
(-0.00714539 0.000163052 0)
(-0.00910582 0.000124477 0)
(-0.0105816 5.47949e-06 0)
(-0.0110557 -0.000226544 0)
(-0.0100079 -0.00058701 0)
(-0.00704354 -0.00105335 0)
(-0.00207297 -0.00155237 0)
(0.00457484 -0.00198552 0)
(0.0122216 -0.00225835 0)
(0.0200264 -0.0023052 0)
(0.0271921 -0.00210483 0)
(0.0331271 -0.0016861 0)
(0.0374939 -0.00109298 0)
(0.040137 -0.000354945 0)
(0.0410244 0.000496715 0)
(0.040255 0.00140753 0)
(0.0380523 0.0023114 0)
(0.03472 0.00315107 0)
(0.0305899 0.00388476 0)
(0.0259853 0.00448242 0)
(0.0212017 0.00492345 0)
(0.0164972 0.005198 0)
(0.0120703 0.00531582 0)
(0.00804885 0.00531116 0)
(0.00448175 0.00523563 0)
(0.00134985 0.00514114 0)
(-0.000524589 0.000219498 0)
(-0.00190539 0.000196874 0)
(-0.00346542 0.00025728 0)
(-0.00538783 0.000332918 0)
(-0.00760531 0.000377838 0)
(-0.00986154 0.000343818 0)
(-0.0117604 0.000172668 0)
(-0.0128056 -0.000195342 0)
(-0.0124766 -0.000795684 0)
(-0.0103351 -0.001606 0)
(-0.00619671 -0.00251244 0)
(-0.000280391 -0.00334236 0)
(0.00682409 -0.00392314 0)
(0.0143189 -0.00412474 0)
(0.0214065 -0.00389867 0)
(0.0274647 -0.0032816 0)
(0.0321114 -0.00233826 0)
(0.0351419 -0.00110865 0)
(0.0364769 0.00035659 0)
(0.0361749 0.00195679 0)
(0.0344364 0.00357048 0)
(0.0315533 0.00508954 0)
(0.0278527 0.00643122 0)
(0.023655 0.00753325 0)
(0.019249 0.00834993 0)
(0.0148862 0.00885487 0)
(0.0107671 0.00905674 0)
(0.0070387 0.00901238 0)
(0.00377461 0.00882152 0)
(0.000968687 0.00859462 0)
(-0.000526047 0.000318666 0)
(-0.00190373 0.000298396 0)
(-0.00346375 0.000393792 0)
(-0.00539175 0.000516627 0)
(-0.00762395 0.000600709 0)
(-0.00990876 0.000577063 0)
(-0.011856 0.000362254 0)
(-0.0129735 -0.000130766 0)
(-0.0127386 -0.000959492 0)
(-0.0106966 -0.00210674 0)
(-0.00663245 -0.0034229 0)
(-0.000737709 -0.00466343 0)
(0.00641217 -0.00557381 0)
(0.0140165 -0.00595591 0)
(0.0212543 -0.00572725 0)
(0.0274779 -0.00493255 0)
(0.0323013 -0.00365805 0)
(0.0355223 -0.00195249 0)
(0.0370396 0.000120439 0)
(0.0368809 0.00241489 0)
(0.0352297 0.00474915 0)
(0.0323737 0.0069624 0)
(0.0286384 0.00893125 0)
(0.0243405 0.010564 0)
(0.0197639 0.0117917 0)
(0.0151632 0.0125638 0)
(0.010766 0.0128652 0)
(0.00678233 0.0127464 0)
(0.00336676 0.0123473 0)
(0.000559477 0.0118715 0)
(-0.000527691 0.000418847 0)
(-0.00189739 0.000399675 0)
(-0.00345258 0.00053015 0)
(-0.00538003 0.00070069 0)
(-0.00761887 0.000824809 0)
(-0.00992133 0.000813108 0)
(-0.0119025 0.000557113 0)
(-0.0130733 -5.78266e-05 0)
(-0.0129086 -0.00111234 0)
(-0.0109372 -0.00259749 0)
(-0.00691338 -0.00432965 0)
(-0.00100398 -0.00599211 0)
(0.00622874 -0.00724742 0)
(0.0139807 -0.00782498 0)
(0.0214061 -0.00760405 0)
(0.0278288 -0.00663803 0)
(0.0328655 -0.00504485 0)
(0.0363283 -0.00287573 0)
(0.0380859 -0.0001932 0)
(0.0381159 0.00281406 0)
(0.0365767 0.00589828 0)
(0.0337497 0.00884364 0)
(0.0299584 0.0114878 0)
(0.0255135 0.0137147 0)
(0.0206875 0.0154359 0)
(0.015721 0.0165701 0)
(0.0108498 0.0170428 0)
(0.00635922 0.0168268 0)
(0.00257193 0.0160427 0)
(-0.000291444 0.0150322 0)
(-0.00052985 0.00052038 0)
(-0.00188897 0.000500549 0)
(-0.00343774 0.000666177 0)
(-0.00536401 0.000884979 0)
(-0.00761048 0.0010501 0)
(-0.00993422 0.00105209 0)
(-0.0119568 0.000757721 0)
(-0.0131934 2.43865e-05 0)
(-0.0131168 -0.0012528 0)
(-0.0112365 -0.00307704 0)
(-0.00726737 -0.00523287 0)
(-0.00134491 -0.00733101 0)
(0.00598713 -0.00894985 0)
(0.0139228 -0.00974163 0)
(0.0215845 -0.00954066 0)
(0.0282571 -0.00841213 0)
(0.0335594 -0.00651758 0)
(0.0373353 -0.00390638 0)
(0.0394139 -0.000612898 0)
(0.0396985 0.00313155 0)
(0.0383151 0.00700379 0)
(0.03554 0.0107294 0)
(0.0316976 0.0141089 0)
(0.0270964 0.0170085 0)
(0.021993 0.0193345 0)
(0.0165849 0.0209912 0)
(0.0110429 0.0218295 0)
(0.0056445 0.0216235 0)
(0.000953952 0.0202227 0)
(-0.0022268 0.0179888 0)
(-0.000532623 0.00062366 0)
(-0.00187845 0.000600883 0)
(-0.0034193 0.000801777 0)
(-0.00534382 0.00106951 0)
(-0.00759904 0.00127681 0)
(-0.00994782 0.00129462 0)
(-0.0120197 0.00096532 0)
(-0.0133352 0.000117982 0)
(-0.013366 -0.00137772 0)
(-0.0115993 -0.00354211 0)
(-0.00770203 -0.00613076 0)
(-0.00176986 -0.00868138 0)
(0.00567691 -0.0106873 0)
(0.0138334 -0.0117171 0)
(0.0217833 -0.0115519 0)
(0.0287556 -0.0102694 0)
(0.0343714 -0.00809564 0)
(0.0385347 -0.00507591 0)
(0.0410285 -0.00117273 0)
(0.0416437 0.00334039 0)
(0.0404671 0.00804723 0)
(0.0377748 0.0126097 0)
(0.0338983 0.0167914 0)
(0.0291539 0.0204466 0)
(0.0237923 0.0234981 0)
(0.0179586 0.0258934 0)
(0.0116509 0.0274984 0)
(0.00481732 0.0278703 0)
(-0.0021494 0.0260076 0)
(-0.00711911 0.0209673 0)
(-0.000536124 0.000729149 0)
(-0.00186577 0.000700524 0)
(-0.0033972 0.000936847 0)
(-0.00531936 0.0012543 0)
(-0.00758438 0.00150515 0)
(-0.00996182 0.00154128 0)
(-0.0120907 0.00118114 0)
(-0.0134981 0.000225068 0)
(-0.0136558 -0.00148378 0)
(-0.0120268 -0.00398913 0)
(-0.00821967 -0.00702115 0)
(-0.00228331 -0.010044 0)
(0.00529204 -0.0124652 0)
(0.0137066 -0.0137634 0)
(0.0219994 -0.0136526 0)
(0.0293214 -0.0122222 0)
(0.0352877 -0.00979657 0)
(0.0399158 -0.00642091 0)
(0.0429385 -0.00191248 0)
(0.0439719 0.00340968 0)
(0.0430613 0.00900606 0)
(0.0404906 0.0144698 0)
(0.0366066 0.0195235 0)
(0.0317476 0.0240095 0)
(0.0261948 0.0278766 0)
(0.0201061 0.0311869 0)
(0.013342 0.0340728 0)
(0.00517759 0.0364787 0)
(-0.00585181 0.0366672 0)
(-0.0129172 0.023598 0)
(-0.000540484 0.000837404 0)
(-0.00185084 0.000799297 0)
(-0.0033714 0.00107128 0)
(-0.00529056 0.00143936 0)
(-0.00756631 0.0017353 0)
(-0.00997584 0.00179261 0)
(-0.0121692 0.00140638 0)
(-0.0136812 0.000347736 0)
(-0.0139854 -0.00156751 0)
(-0.0125199 -0.00441423 0)
(-0.00882334 -0.00790151 0)
(-0.00289084 -0.0114194 0)
(0.00482494 -0.014289 0)
(0.0135354 -0.0158921 0)
(0.02223 -0.015859 0)
(0.0299527 -0.0142826 0)
(0.0362896 -0.0116324 0)
(0.0414602 -0.00798515 0)
(0.0451577 -0.00287988 0)
(0.0467081 0.00330487 0)
(0.0461307 0.00985365 0)
(0.0437279 0.0162907 0)
(0.0398667 0.0222891 0)
(0.034922 0.0276698 0)
(0.0292424 0.032374 0)
(0.0231537 0.0365571 0)
(0.0167663 0.0407429 0)
(0.00972349 0.0460104 0)
(0.00239768 0.0481669 0)
(0.00988033 0.00425992 0)
(-0.000545838 0.0009491 0)
(-0.00183357 0.000897005 0)
(-0.00334183 0.00120497 0)
(-0.00525729 0.00162468 0)
(-0.00754461 0.00196748 0)
(-0.00998945 0.00204917 0)
(-0.0122544 0.00164223 0)
(-0.0138836 0.00048805 0)
(-0.0143543 -0.0016253 0)
(-0.0130796 -0.00481326 0)
(-0.00951639 -0.00876912 0)
(-0.00359792 -0.0128072 0)
(0.00426659 -0.016164 0)
(0.0133106 -0.0181162 0)
(0.0224724 -0.0181889 0)
(0.0306513 -0.0164593 0)
(0.0373518 -0.0136057 0)
(0.043136 -0.00982724 0)
(0.0477072 -0.00413325 0)
(0.0498823 0.00298924 0)
(0.0497123 0.010558 0)
(0.0475309 0.018052 0)
(0.0437236 0.0250712 0)
(0.0387093 0.0314179 0)
(0.032875 0.0369398 0)
(0.0268382 0.0416907 0)
(0.0212589 0.046227 0)
(0.0170532 0.0512545 0)
(0.0173739 0.0460256 0)
(0.026008 -0.0120339 0)
(-0.000552331 0.00106505 0)
(-0.00181386 0.000993412 0)
(-0.00330841 0.0013378 0)
(-0.00521948 0.00181027 0)
(-0.00751902 0.00220183 0)
(-0.0100022 0.00231143 0)
(-0.0123455 0.00188985 0)
(-0.014104 0.000647992 0)
(-0.0147612 -0.00165337 0)
(-0.013707 -0.00518166 0)
(-0.0103023 -0.00962063 0)
(-0.00441152 -0.0142067 0)
(0.0036068 -0.0180946 0)
(0.0130215 -0.0204494 0)
(0.0227238 -0.0206628 0)
(0.0314261 -0.0187599 0)
(0.0384413 -0.0156991 0)
(0.0448838 -0.0120285 0)
(0.0506276 -0.00574334 0)
(0.0535267 0.0024265 0)
(0.0538479 0.0110794 0)
(0.0519547 0.0197346 0)
(0.0482265 0.0278474 0)
(0.0431834 0.0352801 0)
(0.0370016 0.0416915 0)
(0.0306583 0.046696 0)
(0.0252123 0.0506931 0)
(0.0215683 0.0534462 0)
(0.0211474 0.0414479 0)
(0.0186415 -0.0105349 0)
(-0.000560115 0.00118626 0)
(-0.00179162 0.00108825 0)
(-0.00327109 0.00146967 0)
(-0.00517697 0.0019961 0)
(-0.00748931 0.00243853 0)
(-0.0100135 0.00257987 0)
(-0.0124417 0.00215034 0)
(-0.0143411 0.000829469 0)
(-0.0152049 -0.00164769 0)
(-0.0144036 -0.00551445 0)
(-0.0111849 -0.0104522 0)
(-0.00533918 -0.0156163 0)
(0.0028333 -0.0200845 0)
(0.0126543 -0.0229056 0)
(0.0229803 -0.0233063 0)
(0.0322978 -0.021195 0)
(0.0395219 -0.0178554 0)
(0.0465866 -0.0147227 0)
(0.0540028 -0.00779006 0)
(0.0576699 0.00159034 0)
(0.0585909 0.0113606 0)
(0.0571134 0.0213293 0)
(0.0534545 0.0305594 0)
(0.0486859 0.0392809 0)
(0.041781 0.0469979 0)
(0.0344565 0.0521151 0)
(0.0282849 0.0553252 0)
(0.0230464 0.0569458 0)
(0.0184221 0.0451857 0)
(0.0041751 0.0114252 0)
(-0.000569334 0.00131397 0)
(-0.00176673 0.00118121 0)
(-0.00322975 0.00160045 0)
(-0.00512963 0.00218217 0)
(-0.00745517 0.0026777 0)
(-0.0100229 0.00285492 0)
(-0.012542 0.00242483 0)
(-0.0145937 0.00103429 0)
(-0.0156835 -0.00160401 0)
(-0.0151705 -0.00580615 0)
(-0.0121684 -0.0112595 0)
(-0.00638881 -0.0170332 0)
(0.00193214 -0.0221365 0)
(0.0121918 -0.0254996 0)
(0.0232357 -0.0261505 0)
(0.0333043 -0.0237855 0)
(0.0405756 -0.0199443 0)
(0.0479784 -0.0181651 0)
(0.0580185 -0.010339 0)
(0.0623311 0.000476811 0)
(0.0641261 0.0112749 0)
(0.0634365 0.0229044 0)
(0.0589344 0.0331899 0)
(0.0548847 0.0432771 0)
(0.0470231 0.0535064 0)
(0.0384722 0.0582918 0)
(0.0314907 0.0616124 0)
(0.0261055 0.0626334 0)
(0.0190822 0.0559063 0)
(-3.34329e-05 0.0404874 0)
(-0.000580118 0.00144969 0)
(-0.00173905 0.00127193 0)
(-0.00318434 0.00173002 0)
(-0.00507733 0.00236844 0)
(-0.00741628 0.00291947 0)
(-0.0100297 0.00313692 0)
(-0.0126453 0.00271436 0)
(-0.01486 0.00126404 0)
(-0.0161949 -0.00151789 0)
(-0.0160093 -0.0060507 0)
(-0.0132571 -0.0120379 0)
(-0.00756894 -0.0184536 0)
(0.00088767 -0.0242518 0)
(0.011613 -0.028246 0)
(0.0234794 -0.0292335 0)
(0.0345043 -0.0265797 0)
(0.0416612 -0.0217144 0)
(0.0483704 -0.0229403 0)
(0.0631007 -0.01335 0)
(0.067648 -0.000965425 0)
(0.0715085 0.0104152 0)
(0.0715146 0.0257998 0)
(0.0614937 0.0372611 0)
(0.0576371 0.0485545 0)
(0.0378844 0.0621424 0)
(0.0188931 0.0636523 0)
(0.0138065 0.0651694 0)
(0.0161006 0.069735 0)
(0.0139768 0.069993 0)
(0.00131601 0.0659862 0)
(-0.00059258 0.00159529 0)
(-0.00170845 0.00136 0)
(-0.00313474 0.00185826 0)
(-0.00501993 0.00255487 0)
(-0.00737235 0.00316393 0)
(-0.0100332 0.00342621 0)
(-0.0127503 0.00302 0)
(-0.0151383 0.00152012 0)
(-0.0167362 -0.00138435 0)
(-0.0169216 -0.00624143 0)
(-0.0144554 -0.0127822 0)
(-0.00888812 -0.0198727 0)
(-0.000317912 -0.0264297 0)
(0.0108918 -0.031159 0)
(0.0236916 -0.0326014 0)
(0.0359725 -0.0296835 0)
(0.0430794 -0.0228081 0)
(0.0457006 -0.0307184 0)
(0.0702877 -0.0163901 0)
(0.0744553 -0.00315329 0)
(0.0825264 0.0078833 0)
(0.0827766 0.0300564 0)
(0.118782 0.0359673 0)
(0.0705838 0.0631284 0)
(0.06589 0.0786808 0)
(0.0153945 0.0649305 0)
(0.00901532 0.0569093 0)
(0.0140574 0.0637851 0)
(0.015323 0.0742408 0)
(0.00329459 0.0812154 0)
(-0.000606795 0.00175307 0)
(-0.00167476 0.00144496 0)
(-0.00308085 0.00198503 0)
(-0.00495728 0.00274144 0)
(-0.00732298 0.00341116 0)
(-0.0100328 0.00372304 0)
(-0.0128558 0.00334277 0)
(-0.0154268 0.0018036 0)
(-0.0173038 -0.00119832 0)
(-0.0179094 -0.00637097 0)
(-0.0157678 -0.0134868 0)
(-0.0103557 -0.0212838 0)
(-0.00170446 -0.0286669 0)
(0.00999612 -0.034251 0)
(0.0238401 -0.0363057 0)
(0.0377706 -0.0332864 0)
(0.0456839 -0.0231963 0)
(0.0406938 -0.0477979 0)
(0.0818528 -0.0176959 0)
(0.0828874 -0.0063865 0)
(0.0857276 0.00414296 0)
(0.214348 -0.00741532 0)
(0.247791 -0.00821523 0)
(0.218378 0.0949933 0)
(0.158286 0.118351 0)
(0.127567 0.0972361 0)
(0.0911559 0.0790428 0)
(0.0530924 0.0801853 0)
(0.0245231 0.0976794 0)
(0.00336174 0.11216 0)
(-0.000622778 0.00192585 0)
(-0.0016378 0.00152627 0)
(-0.0030226 0.00211019 0)
(-0.00488921 0.00292808 0)
(-0.00726781 0.00366123 0)
(-0.0100279 0.00402761 0)
(-0.0129603 0.00368373 0)
(-0.0157239 0.00211512 0)
(-0.0178927 -0.000954123 0)
(-0.0189748 -0.00643103 0)
(-0.0171988 -0.0141457 0)
(-0.01198 -0.0226787 0)
(-0.00329337 -0.0309567 0)
(0.00888839 -0.0375315 0)
(0.0238776 -0.0403968 0)
(0.0398784 -0.0376249 0)
(0.0510037 -0.0253663 0)
(0.108659 -0.0935094 0)
(0.0977018 -0.0105437 0)
(0.072654 -0.00733833 0)
(0.150463 -0.0816813 0)
(0.412338 -0.0285176 0)
(0.368159 0.0254048 0)
(0.279313 0.159515 0)
(0.192606 0.160184 0)
(0.14217 0.128856 0)
(0.103885 0.118793 0)
(0.0687804 0.115486 0)
(0.0379159 0.128932 0)
(0.0125195 0.140276 0)
(-0.000640468 0.00211705 0)
(-0.0015974 0.00160333 0)
(-0.00295984 0.0022336 0)
(-0.00481558 0.00311475 0)
(-0.00720648 0.00391417 0)
(-0.0100176 0.00434004 0)
(-0.013062 0.00404394 0)
(-0.0160278 0.00245478 0)
(-0.0184969 -0.000645752 0)
(-0.0201209 -0.00641253 0)
(-0.0187526 -0.0147532 0)
(-0.0137692 -0.0240477 0)
(-0.00510775 -0.0332891 0)
(0.00752435 -0.041006 0)
(0.0237391 -0.044916 0)
(0.0420471 -0.0428462 0)
(0.0735402 -0.0349058 0)
(0.189201 -0.116432 0)
(0.0758341 0.0147298 0)
(0.109583 -0.0243541 0)
(0.427723 -0.206825 0)
(0.364249 -0.0103719 0)
(0.311029 0.0793663 0)
(0.236397 0.220778 0)
(0.174412 0.209496 0)
(0.1254 0.165536 0)
(0.0874684 0.149464 0)
(0.0579904 0.147416 0)
(0.0342495 0.158274 0)
(0.0146629 0.167745 0)
(-0.000659698 0.00233087 0)
(-0.00155334 0.00167548 0)
(-0.00289248 0.00235509 0)
(-0.00473622 0.00330139 0)
(-0.00713855 0.00417002 0)
(-0.0100014 0.00466039 0)
(-0.0131591 0.00442451 0)
(-0.0163374 0.00282188 0)
(-0.0191082 -0.000266501 0)
(-0.0213516 -0.00630524 0)
(-0.0204336 -0.0153035 0)
(-0.0157299 -0.0253787 0)
(-0.00717126 -0.035649 0)
(0.00585181 -0.0446732 0)
(0.0233483 -0.049888 0)
(0.0436998 -0.0491548 0)
(0.0758656 -0.0104531 0)
(0.0996343 -0.0730846 0)
(-0.0941304 0.0627189 0)
(0.337366 -0.230231 0)
(0.237823 -0.0925168 0)
(0.190237 -0.000614756 0)
(0.169988 0.113618 0)
(0.146297 0.24759 0)
(0.133895 0.239553 0)
(0.10137 0.199886 0)
(0.0687418 0.180208 0)
(0.045204 0.170719 0)
(0.0259417 0.178572 0)
(0.0124456 0.186145 0)
(-0.000680167 0.00257208 0)
(-0.00150539 0.00174196 0)
(-0.00282043 0.0024745 0)
(-0.004651 0.00348793 0)
(-0.00706356 0.00442879 0)
(-0.00997851 0.00498864 0)
(-0.013249 0.00482663 0)
(-0.0166519 0.00321473 0)
(-0.0197157 0.00019089 0)
(-0.0226721 -0.00609777 0)
(-0.0222452 -0.0157915 0)
(-0.017867 -0.0266578 0)
(-0.00950823 -0.0380157 0)
(0.00381424 -0.0485221 0)
(0.0226178 -0.0553363 0)
(0.0456849 -0.056199 0)
(0.0137804 -0.0502894 0)
(-0.117721 0.0733784 0)
(0.456886 -0.277253 0)
(0.192258 -0.106378 0)
(0.0457595 -0.0523229 0)
(0.028023 0.00480644 0)
(0.0393955 0.119642 0)
(0.0631376 0.237777 0)
(0.0816964 0.248138 0)
(0.0659133 0.225917 0)
(0.0408785 0.203677 0)
(0.0246477 0.189033 0)
(0.0144198 0.191848 0)
(0.0112979 0.194891 0)
(-0.000701392 0.00284816 0)
(-0.00145332 0.00180195 0)
(-0.00274356 0.00259165 0)
(-0.00455977 0.00367433 0)
(-0.00698111 0.00469049 0)
(-0.00994843 0.00532472 0)
(-0.0133289 0.00525154 0)
(-0.0169718 0.00363027 0)
(-0.0203049 0.000734294 0)
(-0.0240901 -0.00577751 0)
(-0.0241907 -0.0162135 0)
(-0.0201828 -0.0278689 0)
(-0.0121426 -0.0403625 0)
(0.00134736 -0.0525335 0)
(0.0214529 -0.0613201 0)
(0.0451057 -0.0625522 0)
(0.184434 -0.153806 0)
(0.32437 -0.17768 0)
(0.308922 -0.0713986 0)
(0.00573872 -0.0312411 0)
(-0.0127868 -0.0355331 0)
(-0.0589725 -0.00327189 0)
(-0.0526526 0.105767 0)
(-0.0139743 0.210387 0)
(0.0148119 0.2434 0)
(0.0179693 0.237847 0)
(0.0127905 0.21739 0)
(0.00487849 0.199173 0)
(0.002456 0.194806 0)
(0.00453605 0.193493 0)
(-0.00072222 0.00317183 0)
(-0.00139689 0.00185456 0)
(-0.00266178 0.00270633 0)
(-0.00446241 0.00386059 0)
(-0.00689067 0.00495516 0)
(-0.00991069 0.00566853 0)
(-0.0133947 0.00570054 0)
(-0.0172996 0.00406364 0)
(-0.0208557 0.00137201 0)
(-0.025616 -0.00533049 0)
(-0.0262728 -0.0165677 0)
(-0.0226757 -0.0289937 0)
(-0.0150972 -0.0426555 0)
(-0.0016165 -0.0566731 0)
(0.0196959 -0.0679631 0)
(0.0534908 -0.0593404 0)
(-0.10023 -0.00867471 0)
(0.094912 -0.320074 0)
(-0.101875 0.0749866 0)
(-0.0920421 -0.0107886 0)
(-0.117138 -0.0277552 0)
(-0.125628 0.0085704 0)
(-0.124312 0.0904837 0)
(-0.0904067 0.182931 0)
(-0.0562353 0.227471 0)
(-0.0339217 0.231521 0)
(-0.0215897 0.212297 0)
(-0.0123414 0.203081 0)
(-0.00699733 0.191159 0)
(0.000595153 0.185821 0)
(-0.000740813 0.00355383 0)
(-0.00133588 0.00189886 0)
(-0.00257499 0.00281835 0)
(-0.00435881 0.00404675 0)
(-0.00679178 0.00522286 0)
(-0.009865 0.00601997 0)
(-0.0134411 0.00617476 0)
(-0.0176404 0.00450742 0)
(-0.0213399 0.00211164 0)
(-0.0272645 -0.00474102 0)
(-0.0284933 -0.0168551 0)
(-0.025339 -0.0300118 0)
(-0.0183926 -0.0448535 0)
(-0.00514271 -0.0608784 0)
(0.0171274 -0.0754172 0)
(0.00792918 -0.0706079 0)
(0.251031 -0.0341343 0)
(-0.16889 -0.11744 0)
(-0.187386 0.0356546 0)
(-0.151034 -0.00589302 0)
(-0.171056 -0.0139127 0)
(-0.17983 0.0127814 0)
(-0.179085 0.0795216 0)
(-0.150661 0.157008 0)
(-0.111488 0.2016 0)
(-0.075834 0.209906 0)
(-0.0459659 0.196507 0)
(-0.0268352 0.191687 0)
(-0.0146436 0.1799 0)
(-0.00307392 0.173332 0)
(-0.000754707 0.0040086 0)
(-0.00127009 0.00193388 0)
(-0.00248305 0.00292749 0)
(-0.00424889 0.00423298 0)
(-0.00668391 0.00549375 0)
(-0.00981132 0.00637905 0)
(-0.0134601 0.00667486 0)
(-0.0180037 0.0049507 0)
(-0.0217179 0.00295717 0)
(-0.0290555 -0.00399176 0)
(-0.0308526 -0.017081 0)
(-0.0281593 -0.0309004 0)
(-0.0220472 -0.0469074 0)
(-0.00928667 -0.0650773 0)
(0.0131557 -0.0833087 0)
(0.097802 -0.155026 0)
(0.407919 0.0678084 0)
(-0.186884 -0.0429367 0)
(-0.197397 0.0101983 0)
(-0.180694 -0.00318192 0)
(-0.194901 -0.00536998 0)
(-0.207053 0.0177012 0)
(-0.206764 0.0708529 0)
(-0.181121 0.131737 0)
(-0.139915 0.169974 0)
(-0.0985816 0.179383 0)
(-0.0672212 0.173584 0)
(-0.0436652 0.169712 0)
(-0.0230863 0.162593 0)
(-0.00718945 0.15681 0)
(-0.000760562 0.00455482 0)
(-0.00119939 0.00195869 0)
(-0.00238584 0.00303351 0)
(-0.00413261 0.00441966 0)
(-0.0065666 0.00576811 0)
(-0.0097499 0.00674594 0)
(-0.0134403 0.00720022 0)
(-0.018406 0.00537754 0)
(-0.0219311 0.0038999 0)
(-0.0310144 -0.00306358 0)
(-0.03335 -0.0172562 0)
(-0.0311142 -0.0316342 0)
(-0.0260771 -0.048759 0)
(-0.014066 -0.069196 0)
(0.00723568 -0.091965 0)
(0.117427 -0.113696 0)
(-0.308741 0.0822179 0)
(-0.190426 -0.0171331 0)
(-0.196907 0.0011931 0)
(-0.191532 -0.000994642 0)
(-0.201213 0.00156616 0)
(-0.211164 0.0221877 0)
(-0.208852 0.0628658 0)
(-0.184984 0.107728 0)
(-0.146829 0.137375 0)
(-0.107955 0.148287 0)
(-0.0757397 0.148106 0)
(-0.0497671 0.144978 0)
(-0.0280501 0.140718 0)
(-0.0102787 0.137042 0)
(-0.000753885 0.00521637 0)
(-0.00112376 0.00197243 0)
(-0.00228318 0.00313617 0)
(-0.00401 0.00460761 0)
(-0.00643947 0.00604651 0)
(-0.00968145 0.00712112 0)
(-0.0133642 0.00774729 0)
(-0.0188736 0.00576483 0)
(-0.0218908 0.0048917 0)
(-0.0331724 -0.00193591 0)
(-0.0359828 -0.017398 0)
(-0.0341689 -0.0321861 0)
(-0.0304981 -0.0503394 0)
(-0.0194779 -0.0732065 0)
(-2.57975e-05 -0.0966634 0)
(0.0741656 -0.0037661 0)
(-0.237531 -0.00536336 0)
(-0.190995 -0.0112316 0)
(-0.194343 -0.0013501 0)
(-0.193193 0.000550916 0)
(-0.198268 0.00607901 0)
(-0.202503 0.0241473 0)
(-0.196315 0.0544588 0)
(-0.17425 0.0864159 0)
(-0.141563 0.108689 0)
(-0.107403 0.119027 0)
(-0.0770698 0.121423 0)
(-0.0515499 0.120292 0)
(-0.0301059 0.117984 0)
(-0.0119674 0.11585 0)
(-0.00072874 0.00602388 0)
(-0.00104333 0.00197445 0)
(-0.00217481 0.00323519 0)
(-0.00388123 0.00479835 0)
(-0.00630236 0.00633006 0)
(-0.00960706 0.00750551 0)
(-0.0132048 0.00830643 0)
(-0.0194477 0.00607945 0)
(-0.0214536 0.00577819 0)
(-0.0355657 -0.000589964 0)
(-0.0387459 -0.0175323 0)
(-0.0372729 -0.032526 0)
(-0.0353274 -0.051565 0)
(-0.0255552 -0.0771489 0)
(-0.0160922 -0.106218 0)
(-0.409505 0.564657 0)
(-0.165954 -0.0547562 0)
(-0.187096 -0.00859242 0)
(-0.191699 -0.00165184 0)
(-0.191398 0.00117654 0)
(-0.19213 0.00766658 0)
(-0.190406 0.0228413 0)
(-0.18036 0.0452084 0)
(-0.159499 0.0678313 0)
(-0.131478 0.0842674 0)
(-0.102053 0.0930856 0)
(-0.0748771 0.0963466 0)
(-0.0510978 0.0965943 0)
(-0.0305497 0.0955724 0)
(-0.0126984 0.0943738 0)
(-0.000678408 0.00701422 0)
(-0.000958602 0.00196443 0)
(-0.00206039 0.00333029 0)
(-0.0037467 0.00499476 0)
(-0.00615556 0.00662074 0)
(-0.00952823 0.00790036 0)
(-0.0129196 0.00885626 0)
(-0.0201917 0.00627447 0)
(-0.020374 0.0061898 0)
(-0.0382351 0.000988507 0)
(-0.0416313 -0.0176938 0)
(-0.0403536 -0.0326218 0)
(-0.0405847 -0.0523318 0)
(-0.0325954 -0.081031 0)
(0.0285719 -0.116349 0)
(-0.132515 -0.096012 0)
(-0.131778 -0.0370418 0)
(-0.183136 -0.00419281 0)
(-0.189804 -0.00122593 0)
(-0.188857 0.000748176 0)
(-0.185867 0.00664253 0)
(-0.179421 0.0187438 0)
(-0.16647 0.0351382 0)
(-0.146303 0.0512293 0)
(-0.121537 0.0632609 0)
(-0.0957854 0.0703351 0)
(-0.0714735 0.073535 0)
(-0.0495633 0.0743601 0)
(-0.0301308 0.0739874 0)
(-0.0128938 0.0732616 0)
(-0.00055359 0.00809257 0)
(-0.0008732 0.00194262 0)
(-0.00194195 0.00342112 0)
(-0.00360925 0.00520169 0)
(-0.00600114 0.00692214 0)
(-0.00944696 0.00830653 0)
(-0.0124407 0.00935409 0)
(-0.0212022 0.00628421 0)
(-0.0182253 0.005592 0)
(-0.0412175 0.00282179 0)
(-0.0446263 -0.0179269 0)
(-0.0433079 -0.0324369 0)
(-0.0462911 -0.0525116 0)
(-0.0408989 -0.0848364 0)
(-0.0420917 -0.0781099 0)
(0.0883379 -0.118181 0)
(-0.136845 0.008418 0)
(-0.182312 0.00183187 0)
(-0.189185 -0.000789747 0)
(-0.186748 -0.000768878 0)
(-0.180627 0.00356161 0)
(-0.170721 0.0126361 0)
(-0.155784 0.0244666 0)
(-0.136012 0.0358997 0)
(-0.113348 0.04462 0)
(-0.0901453 0.0500333 0)
(-0.0680204 0.0527209 0)
(-0.0477138 0.0535834 0)
(-0.0293754 0.0534069 0)
(-0.0128782 0.0528387 0)
(0.00877399 0.00660288 0)
(-0.000827061 0.00191149 0)
(-0.00185921 0.00350764 0)
(-0.00350927 0.00542584 0)
(-0.00586986 0.00724023 0)
(-0.00937859 0.00872154 0)
(-0.0116631 0.0097224 0)
(-0.0226279 0.00601731 0)
(-0.0142617 0.00350021 0)
(-0.0445329 0.00490031 0)
(-0.0477132 -0.0183059 0)
(-0.0459933 -0.031926 0)
(-0.0524592 -0.051963 0)
(-0.0501856 -0.0885362 0)
(-0.0887658 -0.0646252 0)
(-0.0623283 0.136464 0)
(-0.156272 0.0304813 0)
(-0.18573 0.00746101 0)
(-0.19026 -0.000904691 0)
(-0.18561 -0.00340114 0)
(-0.176697 -0.00113122 0)
(-0.164153 0.00511319 0)
(-0.147789 0.0133691 0)
(-0.128201 0.0213534 0)
(-0.106867 0.0275321 0)
(-0.0853885 0.0314698 0)
(-0.064867 0.0334723 0)
(-0.0458552 0.034088 0)
(-0.0285067 0.0338432 0)
(-0.0127618 0.0332425 0)
(-0.000601179 0.000894091 0)
(-0.00357511 0.000885863 0)
(-0.00684191 0.000878207 0)
(-0.0104376 0.000872053 0)
(-0.0143957 0.000865415 0)
(-0.0187194 0.000852616 0)
(-0.0233546 0.000825742 0)
(-0.0281659 0.000775468 0)
(-0.0329442 0.000695113 0)
(-0.0374101 0.000583043 0)
(-0.0412451 0.00044375 0)
(-0.0441169 0.000287253 0)
(-0.0457164 0.000127061 0)
(-0.0457927 -2.47122e-05 0)
(-0.0441736 -0.000160362 0)
(-0.0407719 -0.000273944 0)
(-0.0356392 -0.000356656 0)
(-0.0290673 -0.00039821 0)
(-0.0216313 -0.000394138 0)
(-0.0141016 -0.000349574 0)
(-0.00728522 -0.000275875 0)
(-0.00185156 -0.000188347 0)
(0.00184159 -0.000107099 0)
(0.00382699 -4.45637e-05 0)
(0.00443975 -6.58572e-06 0)
(0.00413918 1.16887e-05 0)
(0.00335497 1.75759e-05 0)
(0.00241613 1.68523e-05 0)
(0.0015277 1.37438e-05 0)
(0.000717206 1.31519e-05 0)
(-0.00150611 0.00505898 0)
(-0.00442128 0.0050024 0)
(-0.0076293 0.0049772 0)
(-0.0111992 0.00497066 0)
(-0.0151798 0.00493401 0)
(-0.0195417 0.00479593 0)
(-0.0241487 0.00449712 0)
(-0.0287502 0.00401251 0)
(-0.0330281 0.00335461 0)
(-0.0366317 0.00256179 0)
(-0.0392153 0.00168558 0)
(-0.0404661 0.000785043 0)
(-0.0401405 -7.63066e-05 0)
(-0.0381021 -0.000843775 0)
(-0.0343354 -0.0014822 0)
(-0.0289401 -0.00196336 0)
(-0.0221733 -0.0022434 0)
(-0.0145397 -0.00228049 0)
(-0.00678926 -0.00207675 0)
(0.000222076 -0.00168686 0)
(0.00574301 -0.00120069 0)
(0.00932288 -0.000716408 0)
(0.010919 -0.000318746 0)
(0.0108374 -4.63525e-05 0)
(0.00957872 0.000103467 0)
(0.00768936 0.000160587 0)
(0.00563857 0.0001603 0)
(0.00375622 0.000132162 0)
(0.00219392 0.000101065 0)
(0.000847998 8.18799e-05 0)
(-0.00153583 0.00840706 0)
(-0.0040575 0.00829265 0)
(-0.00683779 0.00827406 0)
(-0.00998833 0.00832013 0)
(-0.0135842 0.00831559 0)
(-0.0175908 0.00810598 0)
(-0.0218454 0.00757352 0)
(-0.0260756 0.0066823 0)
(-0.0299527 0.00547115 0)
(-0.0331244 0.00402573 0)
(-0.0352512 0.00245119 0)
(-0.0360344 0.000860214 0)
(-0.035253 -0.000630292 0)
(-0.0328058 -0.00192031 0)
(-0.0287258 -0.00294929 0)
(-0.0231633 -0.00367912 0)
(-0.0164212 -0.00404571 0)
(-0.00903934 -0.00398877 0)
(-0.00177582 -0.00352452 0)
(0.00454404 -0.00276189 0)
(0.00924767 -0.001868 0)
(0.0119928 -0.00101851 0)
(0.0128381 -0.00034815 0)
(0.0121465 9.14032e-05 0)
(0.0104282 0.000316 0)
(0.00821303 0.000381453 0)
(0.00594379 0.000351155 0)
(0.00392254 0.000278215 0)
(0.00227604 0.000207535 0)
(0.000876882 0.000165923 0)
(-0.00181423 0.0114891 0)
(-0.00412593 0.011296 0)
(-0.00671478 0.0113535 0)
(-0.00981926 0.0115757 0)
(-0.0135553 0.0117047 0)
(-0.0178185 0.0114598 0)
(-0.0223377 0.010677 0)
(-0.026763 0.00934125 0)
(-0.030738 0.0075408 0)
(-0.0339153 0.00541684 0)
(-0.0359719 0.00312855 0)
(-0.0366262 0.000841199 0)
(-0.0356752 -0.00127541 0)
(-0.0330434 -0.00307468 0)
(-0.0287883 -0.00447593 0)
(-0.0230612 -0.00543428 0)
(-0.0161646 -0.00586545 0)
(-0.00865856 -0.00568936 0)
(-0.00132911 -0.00494139 0)
(0.0049878 -0.00378997 0)
(0.00963038 -0.0024834 0)
(0.0122816 -0.00127349 0)
(0.0130304 -0.000341245 0)
(0.0122598 0.000254212 0)
(0.0104862 0.00054437 0)
(0.00823739 0.000611665 0)
(0.00595031 0.000547183 0)
(0.00392151 0.000426906 0)
(0.00227474 0.000315175 0)
(0.000878378 0.000250184 0)
(-0.00237359 0.0142114 0)
(-0.0041749 0.0138936 0)
(-0.00634234 0.0142392 0)
(-0.00942021 0.0149398 0)
(-0.01351 0.0153842 0)
(-0.018276 0.0151179 0)
(-0.0232414 0.0140036 0)
(-0.0279646 0.0121219 0)
(-0.0320796 0.00964892 0)
(-0.0352637 0.00678957 0)
(-0.0372254 0.00375273 0)
(-0.037709 0.000749581 0)
(-0.0365352 -0.00199799 0)
(-0.0336679 -0.00429688 0)
(-0.0291998 -0.00605788 0)
(-0.0232771 -0.00723816 0)
(-0.0161898 -0.00772609 0)
(-0.00851995 -0.0074179 0)
(-0.00108543 -0.00637038 0)
(0.0052663 -0.0048174 0)
(0.00988353 -0.00309039 0)
(0.0124721 -0.00151765 0)
(0.0131499 -0.000325222 0)
(0.0123205 0.0004232 0)
(0.0105066 0.000776185 0)
(0.00823565 0.000843458 0)
(0.00593936 0.000743744 0)
(0.00390955 0.000575549 0)
(0.00226797 0.000422375 0)
(0.000878936 0.000333439 0)
(-0.00360117 0.0159862 0)
(-0.00396027 0.0154327 0)
(-0.00513673 0.0167649 0)
(-0.00838156 0.0186473 0)
(-0.0133033 0.0196439 0)
(-0.0189349 0.0192668 0)
(-0.0245256 0.017638 0)
(-0.0296055 0.0150508 0)
(-0.0338586 0.0117928 0)
(-0.0370172 0.00812723 0)
(-0.038835 0.00430047 0)
(-0.0390855 0.000558573 0)
(-0.0376142 -0.00282512 0)
(-0.0344387 -0.00560774 0)
(-0.0297037 -0.00770905 0)
(-0.0235369 -0.00910308 0)
(-0.0162095 -0.00963856 0)
(-0.00833457 -0.0091817 0)
(-0.000771889 -0.00781477 0)
(0.00561844 -0.00584483 0)
(0.0101994 -0.00368817 0)
(0.0127064 -0.00174967 0)
(0.0132948 -0.000299056 0)
(0.0123923 0.000599001 0)
(0.0105289 0.00101171 0)
(0.00823124 0.00107684 0)
(0.00592413 0.000940722 0)
(0.00389359 0.000723977 0)
(0.00225904 0.000528911 0)
(0.000879739 0.000415321 0)
(-0.00686451 0.0150021 0)
(-0.00234314 0.0138541 0)
(-0.00149999 0.0190155 0)
(-0.00616867 0.0234873 0)
(-0.0130242 0.0250162 0)
(-0.0200063 0.0241231 0)
(-0.0263503 0.0216377 0)
(-0.0317825 0.0181264 0)
(-0.0361285 0.0139517 0)
(-0.0392027 0.00940307 0)
(-0.0408135 0.00474345 0)
(-0.0407607 0.000237042 0)
(-0.038907 -0.00378831 0)
(-0.0353445 -0.0070291 0)
(-0.0302922 -0.00944422 0)
(-0.023835 -0.0110428 0)
(-0.0162148 -0.0116155 0)
(-0.00809164 -0.0109883 0)
(-0.000378282 -0.0092775 0)
(0.00605231 -0.00687128 0)
(0.0105836 -0.00427378 0)
(0.0129881 -0.00196635 0)
(0.0134667 -0.000260374 0)
(0.0124761 0.000783119 0)
(0.0105538 0.00125172 0)
(0.00822442 0.00131212 0)
(0.00590478 0.00113818 0)
(0.00387373 0.000872121 0)
(0.00224804 0.000634607 0)
(0.000880952 0.000495487 0)
(0.00644604 0.00174584 0)
(0.0215905 0.0041087 0)
(0.00867699 0.0244957 0)
(-0.00283805 0.0316144 0)
(-0.0133317 0.0322161 0)
(-0.0219269 0.0298142 0)
(-0.0289373 0.0259802 0)
(-0.0346069 0.0213056 0)
(-0.0389472 0.0160834 0)
(-0.0418499 0.0105797 0)
(-0.0431764 0.00504881 0)
(-0.0427435 -0.000249706 0)
(-0.0404085 -0.00492423 0)
(-0.0363713 -0.00858202 0)
(-0.0309599 -0.0112749 0)
(-0.0241698 -0.0130717 0)
(-0.0162013 -0.0136698 0)
(-0.00778503 -0.0128452 0)
(0.000100684 -0.0107607 0)
(0.006571 -0.00789527 0)
(0.0110375 -0.00484401 0)
(0.0133167 -0.00216431 0)
(0.0136651 -0.000206778 0)
(0.0125715 0.000977053 0)
(0.0105807 0.00149697 0)