/*--------------------------------*- C++ -*----------------------------------*\
| =========                 |                                                 |
| \\      /  F ield         | OpenFOAM: The Open Source CFD Toolbox           |
|  \\    /   O peration     | Version:  2.4.0                                 |
|   \\  /    A nd           | Web:      www.OpenFOAM.org                      |
|    \\/     M anipulation  |                                                 |
\*---------------------------------------------------------------------------*/
FoamFile
{
    version     2.0;
    format      ascii;
    class       volScalarField;
    location    "0.083";
    object      p;
}
// * * * * * * * * * * * * * * * * * * * * * * * * * * * * * * * * * * * * * //

dimensions      [1 -1 -2 0 0 0 0];

internalField   nonuniform List<scalar> 
14400
(
97.9922
100.123
100.733
103.704
104.897
103.809
101.149
97.4358
93.2088
89.1257
85.7516
83.2891
81.6674
80.774
80.5473
80.9288
81.8002
82.9954
84.3404
85.6902
86.9445
88.0468
88.9709
89.7187
90.3033
90.7431
91.06
91.2756
91.4096
91.4796
94.7316
96.863
97.4562
100.45
101.647
100.558
97.8951
94.1776
89.9436
85.8518
82.4712
80.0047
78.3794
77.4819
77.252
77.6342
78.512
79.7184
81.0767
82.4396
83.7051
84.815
85.7453
86.4971
87.0837
87.5252
87.8436
88.0601
88.1947
88.265
91.4665
93.5983
94.1508
97.2021
98.4154
97.3253
94.6572
90.9302
86.6781
82.5638
79.1662
76.6899
75.0564
74.1476
73.9057
74.2828
75.1665
76.3899
77.7728
79.163
80.4543
81.5857
82.5332
83.2979
83.8939
84.342
84.6649
84.8844
85.0209
85.0921
88.1971
90.3287
90.8153
93.9623
95.2022
94.111
91.4354
87.6931
83.4112
79.26
75.8346
73.3427
71.6966
70.7712
70.5112
70.8795
71.771
73.018
74.4354
75.8644
77.1924
78.3551
79.3269
80.1091
80.7172
81.1733
81.5012
81.7239
81.8621
81.9343
84.9232
87.0544
87.4481
90.7309
92.0076
90.9155
88.2301
84.4666
80.1429
75.9403
72.4764
69.9629
68.3003
67.3524
67.0669
67.4232
68.3227
69.6003
71.0626
72.5426
73.9197
75.1238
76.1276
76.9329
77.5564
78.0223
78.3561
78.5821
78.7222
78.7952
81.645
83.775
84.0466
87.5084
88.8317
87.7388
85.0412
81.251
76.8732
72.6043
69.0913
66.5503
64.8675
63.8907
63.5707
63.9085
64.817
66.1316
67.6497
69.1941
70.6333
71.8902
72.9351
73.77
74.414
74.8931
75.2351
75.4659
75.6085
75.6828
78.3623
80.4907
80.6073
84.2958
85.6745
84.5811
81.8691
78.047
73.6025
69.2516
65.679
63.1049
61.3986
60.3855
60.02
60.3316
61.2485
62.6066
64.1918
65.8156
67.3319
68.654
69.7495
70.6215
71.2913
71.7878
72.1409
72.3786
72.5252
72.6013
75.075
77.2014
77.1261
81.0942
82.5365
81.4424
78.7139
74.8551
70.3309
65.8819
62.2393
59.6262
57.8939
56.8364
56.4116
56.6868
57.6103
59.0185
60.6833
62.4035
64.0142
65.4158
66.5724
67.489
68.1903
68.7083
69.0757
69.3224
69.4743
69.5531
71.7832
73.9073
73.5974
77.9051
79.4177
78.3228
75.5757
71.6758
67.0588
62.4944
58.7719
56.1136
54.3539
53.2421
52.7409
52.9663
53.8938
55.3584
57.1165
58.9538
60.6794
62.1764
63.4056
64.3748
65.1132
65.6568
66.0414
66.2991
66.4575
66.5394
68.4868
70.6082
70.0151
74.73
76.3186
75.2223
72.4548
68.5107
63.7867
59.0882
55.2766
52.5662
50.7788
49.6008
49.0019
49.1597
50.0886
51.6152
53.4819
55.4617
57.327
58.9379
60.252
61.282
62.0631
62.6359
63.0403
63.3107
63.4765
63.5621
65.1856
67.3043
66.3712
71.5712
73.2398
72.141
69.3515
65.3609
60.5152
55.662
51.7534
48.9823
47.1685
45.9098
45.1868
45.2531
46.1819
47.7739
49.7673
51.9219
53.9572
55.7028
57.1149
58.214
59.043
59.6488
60.075
60.3595
60.5337
60.6233
61.8796
63.9953
62.6566
68.4309
70.1816
69.0789
66.2659
62.2204
57.2452
52.2138
48.2025
45.3589
43.5216
42.1665
41.286
41.2267
42.1569
43.8143
45.9565
48.3292
50.5713
52.4752
53.9985
55.1746
56.0565
56.6981
57.1483
57.4481
57.6316
57.7261
58.5687
60.6812
58.8605
65.3121
67.1447
66.0361
63.1984
59.0883
53.9773
48.7412
44.6248
41.6911
39.835
38.3698
37.292
37.0559
37.9901
39.7082
42.029
44.6801
47.1732
49.2605
50.9086
52.1685
53.1075
53.7875
54.2636
54.58
54.7729
54.8715
55.2528
57.362
54.9707
62.2184
64.1298
63.0125
60.1492
55.9695
50.7122
45.2402
41.022
37.9716
36.1034
34.5225
33.2089
32.7202
33.6421
35.4122
37.9586
40.9746
43.7691
46.0671
47.8516
49.1999
50.1998
50.921
51.4244
51.7586
51.9617
52.065
51.9318
54.0371
50.9724
59.1535
61.1376
60.008
57.1185
52.8652
47.45
41.7051
37.397
34.1893
32.3198
30.6355
29.0591
28.2335
29.0317
30.8545
33.7147
37.2193
40.3694
42.9026
44.8286
46.2725
47.3361
48.1006
48.6329
48.9852
49.1999
49.3102
48.6055
50.7064
46.8495
56.1225
58.1687
57.0224
54.1066
49.7759
44.1914
38.1279
33.7553
30.3286
28.4736
26.7241
24.8731
23.5899
24.0369
25.9373
29.2729
33.4304
36.9941
39.7759
41.8459
43.3933
44.5245
45.3346
45.8963
46.2675
46.4936
46.6092
45.2738
47.3695
42.5834
53.1309
55.224
54.0558
51.114
46.7017
40.937
34.4963
30.1049
26.372
24.5391
22.7721
20.6431
18.6081
18.5846
20.6019
24.6495
29.6183
33.6527
36.7026
38.9239
40.5736
41.7653
42.6192
43.215
43.6095
43.8471
43.9655
41.9365
44.026
38.1534
50.1853
52.304
51.1077
48.1408
43.6419
37.6875
30.7925
26.4577
22.301
20.4904
18.796
16.1958
13.2263
12.6391
14.711
19.8605
25.7631
30.337
33.6698
36.0387
37.7964
39.0572
39.9659
40.5983
41.0148
41.2662
41.3917
38.5935
40.6758
33.5372
47.2938
49.4095
48.1777
45.1875
40.5957
34.444
26.9902
22.8302
18.0883
16.3319
14.8623
11.4779
7.81953
6.41089
8.00947
14.9224
22.0154
27.0397
30.6654
33.2029
35.0688
36.4135
37.3839
38.0496
38.4873
38.756
38.895
35.2443
37.3193
28.7107
44.466
46.5411
45.2656
42.2552
37.5614
31.2086
23.0535
19.2438
13.6932
12.069
10.8032
6.92175
2.75244
-0.238067
0.0246149
9.95655
18.7595
23.9758
27.6704
30.4253
32.4231
33.8448
34.8659
35.5719
36.0405
36.3257
36.4735
31.8888
33.9577
23.6489
41.7136
43.699
42.3707
39.3449
34.5358
27.9852
18.9463
15.725
9.05416
7.70868
6.96378
2.42197
-3.08552
-9.85379
-11.1889
5.44046
15.7315
21.276
24.8395
27.7026
29.8211
31.3417
32.4277
33.1875
33.6897
33.9886
34.1389
28.5262
30.5936
18.3262
39.0512
40.8833
39.4924
36.4585
31.5145
24.7842
14.7168
12.315
4.10132
3.44933
3.62705
-0.98395
-0.0971023
-2.8097
-24.6388
1.72936
12.3022
18.3034
22.1257
25.0836
27.2833
28.9178
30.0895
30.9088
31.4429
31.7576
31.9112
25.1559
27.2323
12.7174
36.4971
38.0936
36.63
33.5982
28.4905
21.6375
10.6877
9.08917
-1.24749
-0.840223
0.106376
0.516934
0.101429
-0.0848238
-32.0845
-1.92403
8.96978
14.7088
19.2376
22.552
24.8742
26.6171
27.8618
28.7312
29.2988
29.6398
29.8074
21.7771
23.8824
6.79791
34.0745
35.3287
33.7828
30.7661
25.4535
18.6175
7.23282
6.13855
-6.49729
0.135388
0.169353
0.436807
-0.221548
-0.287522
-0.978274
-6.13338
6.26374
10.698
15.9792
19.9887
22.625
24.4728
25.7528
26.6544
27.2702
27.654
27.849
18.3884
20.558
0.544752
31.8136
32.5866
30.9499
27.9643
22.3879
15.7263
4.12769
2.62849
0.131261
0.0803499
0.127144
0.330888
-0.2323
-0.145931
-0.39714
-11.2629
4.31763
7.2363
12.3651
17.4142
20.4747
22.416
23.743
24.7141
25.4006
25.8327
26.0543
14.9879
17.2813
-6.064
29.754
29.8644
28.1302
25.1949
19.2753
12.8196
0.970517
-6.04697
-0.00635144
0.0394138
0.0766616
0.26493
-0.141874
-0.0216161
-0.175784
-7.62684
3.34344
4.9263
8.90754
14.7297
18.2313
20.3294
21.8186
22.9363
23.7059
24.1932
24.456
11.5733
14.0839
-13.0519
27.948
27.1577
25.3226
22.4589
16.103
9.79243
-5.6042
-0.168249
-0.00157829
0.0237103
0.0275005
0.207018
-0.118835
0.0143174
0.0192468
-2.31138
3.88058
3.99246
6.50781
12.0987
15.938
18.2832
20.0358
21.361
22.2353
22.7695
23.0505
8.14157
11.0086
-20.4577
26.4689
24.4613
22.5253
19.7563
12.86
6.65422
-9.27057
-0.137846
-0.00979651
0.0138933
0.030005
0.083449
-0.167279
0.00162376
0.0286347
-0.842349
0.289097
3.69573
5.06054
10.1234
14.0604
16.5826
18.6004
20.0731
21.0121
21.5569
21.8344
4.68908
8.11026
-28.4684
25.4433
21.7686
19.7367
17.0837
9.52838
1.85214
-0.0198216
-0.12917
-0.0146751
0.026534
0.00988625
-0.0310315
-0.0608499
-0.0217682
0.0626526
-0.0395913
-0.244569
10.6322
2.85463
8.49025
12.5252
15.2036
17.5087
19.071
20.0321
20.5498
20.7838
1.19119
5.45617
-37.2886
25.2777
19.0722
16.9552
14.4319
6.0877
0.503248
0.110694
-0.117359
0.0328582
0.00980074
-6.17836e-05
-0.0274763
-0.106445
-0.0445319
0.0939136
0.243443
0.211753
-32.1288
-3.42666
6.01857
11.2128
14.2332
16.712
18.338
19.2869
19.6718
19.8326
91.5008
91.479
91.4032
91.2573
91.0226
90.6781
90.201
89.5714
88.7702
87.7885
86.6314
85.3368
83.9772
82.6726
81.5852
80.8968
80.762
81.2787
82.5016
84.5243
87.4682
91.2968
95.5981
99.7496
103.193
105.589
106.698
106.382
104.908
103.199
88.2863
88.2644
88.1883
88.0417
87.8059
87.46
86.9818
86.3491
85.5431
84.5543
83.3884
82.0817
80.7085
79.3908
78.2936
77.6011
77.4673
77.9876
79.2145
81.241
84.1901
88.0267
92.3355
96.4926
99.9387
102.336
103.445
103.128
101.651
99.9376
85.1137
85.0914
85.0141
84.8655
84.6262
84.2752
83.7894
83.1462
82.326
81.3182
80.1291
78.7957
77.3957
76.0556
74.9448
74.2509
74.1244
74.6566
75.8934
77.9288
80.891
84.7491
89.0774
93.2478
96.6985
99.0964
100.204
99.8806
98.3928
96.6696
81.9561
81.9335
81.8553
81.7045
81.4617
81.1049
80.6099
79.9529
79.1129
78.0782
76.8559
75.4846
74.0468
72.6751
71.5452
70.8501
70.7345
71.2845
72.5362
74.5857
77.5691
81.4622
85.8226
90.0152
93.473
95.8712
96.9748
96.6402
95.1348
93.3945
78.8173
78.7946
78.7154
78.5627
78.316
77.9521
77.4456
76.7708
75.9047
74.8348
73.5683
72.1471
70.6598
69.2469
68.0921
67.3969
67.2965
67.8708
69.1425
71.2117
74.2242
78.166
82.5713
86.7951
90.2626
92.6606
93.7576
93.4068
91.8764
90.1123
75.7053
75.6821
75.6016
75.4459
75.1936
74.8201
74.2982
73.6
72.7005
71.5857
70.2634
68.779
67.2298
65.766
64.5811
63.8884
63.8084
64.4149
65.7117
67.8065
70.8559
74.8606
79.3233
83.5876
87.0672
89.4645
90.5526
90.1804
88.6176
86.823
72.6243
72.6005
72.5177
72.3573
72.097
71.7105
71.1686
70.441
69.5002
68.3301
66.9387
65.3767
63.752
62.2275
61.0067
60.3218
60.2686
60.9159
62.2431
64.3703
67.4637
71.546
76.0781
80.3929
83.8871
86.283
87.3597
86.9611
85.3584
83.5264
69.5768
69.5519
69.4657
69.299
69.0281
68.6252
68.0585
67.2953
66.3046
65.0678
63.5923
61.9356
60.2204
58.6246
57.3618
56.6932
56.6746
57.3728
58.7357
60.9032
64.0471
68.2226
72.8352
77.2112
80.7225
83.1163
84.1792
83.749
82.0989
80.2224
66.5638
66.5376
66.4474
66.2728
65.989
65.5662
64.9703
64.1649
63.1153
61.7987
60.2219
58.4502
56.627
54.9492
53.637
52.9984
53.0242
53.7848
55.1877
57.4056
60.6053
64.8902
69.6025
74.0424
77.5734
79.9641
81.011
80.5439
78.8387
76.9108
63.5874
63.5595
63.4645
63.2808
62.9818
62.5361
61.9065
61.0525
59.9343
58.5236
56.8251
54.9135
52.9617
51.191
49.8202
49.2324
49.3154
50.1513
51.5972
53.8783
57.1371
61.5493
66.3833
70.8867
74.44
76.8268
77.8553
77.3461
75.5779
73.5915
60.6495
60.6198
60.5194
60.3253
60.0096
59.5381
58.8703
57.9613
56.7646
55.244
53.3999
51.3171
49.2116
47.3366
45.8964
45.3894
45.5466
46.4728
47.9618
50.3228
53.6414
58.2
63.1704
67.745
71.3227
73.7043
74.7121
74.1557
72.3165
70.2643
57.7534
57.7212
57.6143
57.4088
57.0746
56.5748
55.865
54.8947
53.6098
51.9623
49.9449
47.6506
45.3589
43.3679
41.8475
41.461
41.7155
42.7506
44.2784
46.7416
50.116
54.8426
59.9637
64.6179
68.2215
70.5967
71.5816
70.9726
69.0543
66.9289
54.8996
54.8656
54.7527
54.535
54.1806
53.65
52.895
51.8576
50.475
48.6827
46.4606
43.9028
41.3795
39.2585
37.6534
37.4308
37.8189
38.9871
40.5432
43.1382
46.5582
51.4775
56.7637
61.5061
65.1369
67.5041
68.4638
67.797
65.7912
63.585
52.094
52.0578
51.9381
51.707
51.3309
50.7676
49.9634
48.8551
47.3672
45.4119
42.9508
40.0639
37.2385
34.9655
33.2949
33.2711
33.8532
35.1863
36.7514
39.5183
42.9641
48.1055
53.5707
58.4105
62.0691
64.4265
65.359
64.6291
62.5272
60.2326
49.3409
49.3006
49.1718
48.9268
48.5281
47.9296
47.0737
45.8884
44.2901
42.1592
39.4239
36.1308
32.882
30.4074
28.7161
28.9647
29.8097
31.3529
32.8966
35.8907
39.3277
44.7274
50.3854
55.3317
59.0183
61.3639
62.2672
61.4689
59.262
56.8711
46.6409
46.598
46.4615
46.2019
45.7797
45.1445
44.2333
42.9634
41.2463
38.9374
35.8951
32.1108
28.2382
25.4667
23.85
24.4814
25.6801
27.476
28.9685
32.2668
35.64
41.3448
47.2079
52.2707
55.9849
58.3165
59.1887
58.3167
55.9956
53.5003
43.9976
43.954
43.8116
43.5347
43.0838
42.4101
41.449
40.0999
38.2571
35.7604
32.3768
28.0266
23.2676
20.0971
18.5796
19.7601
21.4794
23.5427
24.9455
28.6603
31.8875
37.9598
44.0382
49.2283
52.9692
55.2841
56.1236
55.1727
52.7277
50.12
41.4251
41.3781
41.2257
40.932
40.4526
39.7317
38.7054
37.2733
35.3015
32.6194
28.846
23.8808
17.9341
14.1839
12.8468
14.7264
17.2608
19.6127
20.7985
25.0893
28.0492
34.5756
40.8757
46.2055
49.9712
52.2669
53.0721
52.0369
49.4582
46.7295
38.9319
38.8765
38.7086
38.3963
37.8921
37.1258
36.0233
34.4969
32.3817
29.4927
25.3548
19.7993
12.1613
7.48486
6.89537
9.39852
13.0366
15.7283
16.4858
21.5827
24.0936
31.1962
37.7192
43.2034
46.9912
49.2647
50.0344
48.9098
46.187
43.3287
36.5127
36.4528
36.2739
35.9393
35.3977
34.5873
33.4192
31.7952
29.4926
26.4286
22.3273
15.9613
5.86362
-0.482821
0.728466
4.26513
8.76143
11.8134
11.9212
18.1862
19.9737
27.827
34.5661
40.2236
44.0292
46.2776
47.0109
45.7915
42.9138
39.9171
34.1785
34.1191
33.9349
33.5798
32.9923
32.122
30.8696
29.1333
26.6996
23.6378
19.5911
12.4696
-0.746391
-13.6766
-7.19095
-1.3984
4.75622
7.94456
7.18804
14.9656
15.6362
24.4802
31.4128
37.2676
41.0848
43.3054
44.0016
42.6823
39.6383
36.4943
31.9518
31.8932
31.7023
31.3251
30.6965
29.7527
28.395
26.5437
24.0264
20.8131
16.3282
9.31407
-6.64293
-28.3613
-0.943481
-1.08263
1.19414
4.50344
2.35123
12
11.0994
21.2109
28.2547
34.3382
38.1572
40.3479
41.007
39.5825
36.3602
33.0599
29.8512
29.7866
29.5781
29.1733
28.5087
27.5011
26.055
24.0567
21.3141
17.3444
12.5669
6.61339
-9.37062
-3.1087
0.167195
0.189205
0.0648394
-0.13105
-2.86763
9.27647
6.60997
18.1848
25.0909
31.4389
35.2453
37.4051
38.0274
36.4927
33.0796
29.6135
27.8995
27.821
27.579
27.129
26.4271
25.3858
23.8917
21.6674
18.3727
13.1614
8.78764
5.16319
-14.07
-0.469423
0.00453539
0.170057
0.0668968
-0.0225122
-0.428508
6.62506
2.33908
15.5922
21.9222
28.5753
32.3473
34.4765
35.0629
33.413
29.7958
26.1545
26.11
26.0189
25.7441
25.2397
24.4628
23.3667
21.8175
19.3411
15.1661
8.83237
5.31588
3.87533
-9.4412
-0.0574223
0.00132246
0.133831
0.0479874
-0.054374
0.223423
-2.96989
-2.07915
13.4533
18.7403
25.7554
29.4604
31.5621
32.1139
30.344
26.5086
22.6826
24.5237
24.4067
24.087
23.5224
22.64
21.3958
19.6781
16.9091
11.81
5.76235
2.22924
16.5462
-2.37396
0.0552183
0.00225237
0.0724193
0.0429635
-0.0955282
0.10206
-0.174551
-9.94657
11.6705
15.5341
22.9905
26.5806
28.6615
29.1805
27.2861
23.2177
19.1974
23.1233
23.0016
22.6565
22.027
21.0003
19.5349
17.5567
14.4896
8.89023
3.7781
-1.34561
-2.8522
-1.21719
0.0406348
-0.0247676
0.0174798
-0.106383
-0.118843
0.0264068
-0.204939
-5.53429
10.2979
12.2823
20.2976
23.7024
25.7746
26.2627
24.2398
19.9224
15.6984
21.9042
21.789
21.4418
20.796
19.6849
18.0297
15.8839
12.6331
7.26397
3.14815
2.11536
0.717627
-0.441101
-0.0443443
-0.0673323
-0.0665751
-0.123574
-0.133671
-0.022705
-0.197415
-0.322655
9.41802
8.97136
17.7031
20.8182
22.9015
23.3605
21.2056
16.6224
12.1851
20.8449
20.7585
20.4574
19.8143
18.6673
16.8797
14.7626
11.4
6.23687
2.39257
-7.72596
0.175368
-0.0397445
-0.0689319
-0.11542
-0.151142
-0.153153
-0.14421
-0.0424276
-0.18732
-0.182937
-12.3521
5.60694
15.2468
17.9178
20.0425
20.4737
18.184
13.317
8.65705
19.8877
19.8185
19.652
19.0803
17.8862
15.9879
13.7358
10.4899
6.53035
-1.21855
-6.49079
-0.234917
-0.0524164
-0.0635399
-0.179009
-0.163035
-0.191408
-0.159094
-0.065815
-0.180313
-0.147793
-3.88172
2.03556
12.9846
14.9885
17.1984
17.6018
15.1752
10.0056
5.11083
-0.857137
3.38354
119.443
25.5968
16.7062
14.5224
12.1086
2.87883
-1.42569
0.0635705
-0.0348701
0.0465466
0.00504371
-0.00967621
-0.0337925
-0.0118101
-0.0182017
0.0789025
0.13821
-0.558568
-1.88795
1.86692
2.86275
9.87462
13.5125
16.1564
17.9154
18.7679
19.0218
19.209
-0.919309
2.28326
65.933
23.7248
15.3089
13.0916
10.7307
1.94024
-0.221059
0.0539029
-0.0377021
0.0331133
0.000509595
-0.0156464
-0.0336751
-0.0445201
0.0503449
0.0643277
0.0618406
-0.509383
-1.57939
13.4356
1.31193
9.41881
13.3747
16.018
17.5968
18.3829
18.7946
19.0275
-0.202874
1.26074
17.254
24.3888
13.7864
11.5383
9.1891
-10.3677
-0.0662634
0.0421701
-0.0419495
0.0940485
-0.00609262
-0.0225671
-0.0371519
-0.0489635
0.0115431
0.0461705
0.00750342
-0.527028
-0.856335
-31.2296
-2.60278
9.06335
13.283
15.9274
17.3516
18.0921
18.6026
18.8781
-0.140873
-1.32437
15.0096
0.455129
12.1288
9.8497
7.45415
-3.80019
-0.061699
0.0252885
-0.0474374
-0.0545067
-0.0148262
-0.0304468
-0.0429026
-0.0445612
0.0067992
0.026603
-0.0401335
-0.414434
-0.692715
-1.00075
3.09896
9.88067
13.568
15.9565
17.308
18.0045
18.4669
18.725
-0.138886
-1.21381
8.37228
1.11806
10.3456
7.98758
5.84114
-0.243264
-0.0590157
0.0075652
-0.0533479
-0.074653
-0.0213699
-0.039444
-0.0500063
-0.0432303
-0.000735867
0.00813537
-0.103428
-0.0305551
-0.500822
-0.682467
-21.3921
10.8285
14.3693
16.2972
17.4374
18.066
18.4583
18.6467
-0.138961
-0.180954
2.95752
-3.49134
8.40072
5.96408
-3.42674
-0.136268
-0.0575291
-0.00974871
-0.0574114
-0.0672064
0.0429655
-0.0499806
-0.0553741
-0.0452086
-0.00994783
-0.0111321
-0.135336
0.13693
-0.344567
-0.123619
-3.93117
12.8588
15.5647
16.8529
17.7095
18.2188
18.5233
18.5983
-0.128442
-0.149987
-0.0481669
-3.52715
6.22208
3.08822
0.177955
-0.128523
-0.0599324
-0.0258139
-0.0644167
-0.0563598
-0.0857015
-0.0623244
-0.062512
-0.0483674
-0.0196809
-0.0252783
-0.110681
-0.366141
-0.281214
-0.0922333
-1.74707
9.1374
16.8474
17.5572
18.2515
18.4839
18.5315
18.4226
-0.137892
-0.148484
0.0561206
-0.347948
3.58267
0.8457
-0.0174421
-0.122043
-0.0637287
-0.0402377
-0.0706321
-0.0639528
-0.0887873
-0.0745689
-0.0682943
-0.052349
-0.0290223
-0.0383769
-0.114713
-0.258525
-0.235037
-0.0863382
-0.0400026
-1.69812
17.069
18.6507
19.0826
18.8816
18.4871
18.2286
-0.140233
-0.146391
0.0614543
-0.0622506
-0.0352588
-0.105694
-0.0237561
-0.109338
-0.0678602
-0.0530923
-0.0801915
-0.0602367
-0.0930172
-0.0923533
-0.072839
-0.0573749
-0.0382947
-0.0499711
-0.109988
-0.19735
-0.214708
-0.157713
-0.203601
-0.186084
10.9996
21.0122
20.1571
19.3049
18.2454
18.0962
-0.14112
-0.145541
0.0600011
-0.067692
-0.0958933
-0.115779
-0.037919
-0.0983414
-0.0721211
-0.0646437
-0.0909932
-0.0584455
-0.0943986
-0.0884236
-0.0766822
-0.0624461
-0.0465837
-0.06026
-0.108878
-0.168636
-0.205515
-0.191587
-0.203395
-0.247807
0.0613031
6.85795
18.1857
20.2491
17.051
17.5215
-0.150975
-0.12099
0.0487947
-0.0698449
-0.0993267
-0.111299
-0.0510396
-0.09166
-0.0766378
-0.0752254
-0.103269
0.0421056
-0.0743572
-0.0945372
-0.0804307
-0.0685195
-0.0546302
-0.0707896
-0.112987
-0.164958
-0.201446
-0.20947
-0.211183
-0.214144
-0.173372
-0.253175
-0.193682
-0.156748
0.310566
1.55728
-0.148697
-0.134806
0.0338598
-0.0728889
-0.101576
-0.108347
-0.0624315
-0.0887866
-0.0813755
-0.0853031
-0.120074
-0.123872
-0.0956706
-0.101216
-0.0845428
-0.0764318
-0.0627847
-0.0819209
-0.12222
-0.173409
-0.202998
-0.217915
-0.215268
-0.219725
-0.212386
-0.222104
-0.206496
-0.193945
-0.178761
-0.173595
-0.15156
-0.132367
0.0102917
-0.0770938
-0.103894
-0.106684
-0.0721648
-0.0888336
-0.0864985
-0.0950131
-0.135214
-0.107158
-0.12523
-0.105344
-0.0904535
-0.085278
-0.0712924
-0.0745163
-0.0958843
-0.187782
-0.208141
-0.224789
-0.230449
-0.22935
-0.225228
-0.218776
-0.202426
-0.186554
-0.175222
-0.168736
-0.154159
-0.130766
-0.00735804
-0.0824017
-0.106516
-0.106168
-0.0808685
-0.0910396
-0.0919786
-0.104309
-0.141459
-0.115404
-0.133154
-0.111904
-0.0992484
-0.0988184
-0.0479898
-0.0898257
-0.113135
-0.197964
-0.214815
-0.232125
-0.240596
-0.242172
-0.237663
-0.228559
-0.207704
-0.187415
-0.174229
-0.167041
-0.156535
-0.125724
-0.0275113
-0.08862
-0.109676
-0.106968
-0.0887732
-0.0948328
-0.0977355
-0.113474
-0.149962
-0.110546
-0.131035
-0.118364
-0.110622
-0.114114
-0.0615906
-0.112465
-0.163999
-0.201299
-0.221104
-0.240579
-0.252409
-0.254991
-0.248722
-0.242805
-0.221839
-0.200199
-0.186486
-0.179396
-0.159865
-0.153773
-0.046923
-0.0956407
-0.113464
-0.109251
-0.0963435
-0.0998952
-0.103665
-0.121187
-0.152066
-0.126038
-0.139648
-0.128962
-0.123326
-0.127386
-0.134073
-0.153514
-0.178853
-0.205208
-0.226748
-0.249634
-0.263937
-0.26922
-0.267741
-0.256224
-0.23461
-0.215491
-0.203756
-0.197951
-0.163509
-0.156157
-0.0650581
-0.103397
-0.117977
-0.113109
-0.104025
-0.10602
-0.109864
-0.126763
-0.175927
-0.15121
-0.15363
-0.14279
-0.137952
-0.140057
-0.14867
-0.166209
-0.18776
-0.207883
-0.231199
-0.254405
-0.268832
-0.273365
-0.268551
-0.254381
-0.236328
-0.22196
-0.213392
-0.2093
-0.16767
-0.157123
-0.0830133
-0.111852
-0.123353
-0.118565
-0.112191
-0.113036
-0.116383
-0.130694
-0.172616
-0.174208
-0.176127
-0.163548
-0.153653
-0.153669
-0.161876
-0.176552
-0.192653
-0.208971
-0.230029
-0.249295
-0.2603
-0.261246
-0.25326
-0.239735
-0.226224
-0.216441
-0.210665
-0.207831
-0.172495
-0.159707
-0.100406
-0.121034
-0.129753
-0.12552
-0.120659
-0.120875
-0.123216
-0.13377
-0.163625
-0.193092
-0.208639
-0.18635
-0.169563
-0.166717
-0.172156
-0.182664
-0.194203
-0.206677
-0.221374
-0.233742
-0.23929
-0.236923
-0.228761
-0.218549
-0.20965
-0.203417
-0.199608
-0.197571
-0.178103
-0.164057
-0.117192
-0.130999
-0.137282
-0.133764
-0.129771
-0.129554
-0.130646
-0.136941
-0.156563
-0.212429
-0.24152
-0.211522
-0.186221
-0.177867
-0.179374
-0.185709
-0.193514
-0.201549
-0.20905
-0.214142
-0.214963
-0.211323
-0.205007
-0.19839
-0.19301
-0.189257
-0.186889
-0.185534
-0.184566
-0.169957
-0.133396
-0.141753
-0.145961
-0.143106
-0.139809
-0.139154
-0.1391
-0.141373
-0.155232
-0.227088
-0.270793
-0.234615
-0.200179
-0.18683
-0.184886
-0.187739
-0.192272
-0.196325
-0.198778
-0.199169
-0.197287
-0.193572
-0.189227
-0.185112
-0.181845
-0.179473
-0.178004
-0.177116
-0.19196
-0.177258
-0.149092
-0.15329
-0.155789
-0.153469
-0.150764
-0.149775
-0.148962
-0.149105
-0.159394
-0.232356
-0.282584
-0.247072
-0.208081
-0.19381
-0.18993
-0.190368
-0.192205
-0.193615
-0.193669
-0.1923
-0.189818
-0.186766
-0.183683
-0.181001
-0.178905
-0.177368
-0.176386
-0.175758
-0.200346
-0.185867
-0.164411
-0.165615
-0.166773
-0.164871
-0.16267
-0.16151
-0.160488
-0.160489
-0.169015
-0.222614
-0.269107
-0.244491
-0.213165
-0.199854
-0.195669
-0.19475
-0.194839
-0.194753
-0.193944
-0.192399
-0.190379
-0.188218
-0.186197
-0.184494
-0.183174
-0.182228
-0.181606
-0.181255
-0.20978
-0.195709
-0.179528
-0.178738
-0.178929
-0.177368
-0.175581
-0.174427
-0.17365
-0.174472
-0.182674
-0.216556
-0.244595
-0.232013
-0.215335
-0.206556
-0.202964
-0.201486
-0.200718
-0.199971
-0.198964
-0.197692
-0.19629
-0.194915
-0.193692
-0.19269
-0.19193
-0.1914
-0.191071
-0.19091
-0.220248
-0.206752
-0.194661
-0.192707
-0.192284
-0.19101
-0.189559
-0.188565
-0.188249
-0.189883
-0.19696
-0.213852
-0.228992
-0.227188
-0.219741
-0.214778
-0.212084
-0.210559
-0.209523
-0.208617
-0.207693
-0.206746
-0.205825
-0.204992
-0.20429
-0.203738
-0.203339
-0.203078
-0.202937
-0.202894
-0.231818
-0.218989
-0.210051
-0.207627
-0.206879
-0.205842
-0.204679
-0.203938
-0.204065
-0.2061
-0.211712
-0.221159
-0.229319
-0.230025
-0.227345
-0.224751
-0.22291
-0.221619
-0.22064
-0.219816
-0.219075
-0.218404
-0.217816
-0.217323
-0.216933
-0.216647
-0.216457
-0.21635
-0.216312
-0.216331
-0.244533
-0.232441
-0.22597
-0.223608
-0.222763
-0.221927
-0.221029
-0.220547
-0.220956
-0.222963
-0.227141
-0.232807
-0.23727
-0.238494
-0.237701
-0.236423
-0.235265
-0.234314
-0.23354
-0.232896
-0.232353
-0.2319
-0.231533
-0.231248
-0.231041
-0.230904
-0.230827
-0.230799
-0.230812
-0.230856
-0.258444
-0.247146
-0.242695
-0.240761
-0.240003
-0.239356
-0.2387
-0.238411
-0.238894
-0.240549
-0.243426
-0.24685
-0.249413
-0.250421
-0.250308
-0.249726
-0.249059
-0.248439
-0.247907
-0.247463
-0.247102
-0.246816
-0.246598
-0.24644
-0.246336
-0.246277
-0.246254
-0.246261
-0.246291
-0.246337
-0.273608
-0.26316
-0.26048
-0.25921
-0.258684
-0.25824
-0.257789
-0.257597
-0.257959
-0.25907
-0.26081
-0.262728
-0.264129
-0.26479
-0.264868
-0.264632
-0.264288
-0.263936
-0.263621
-0.263357
-0.263148
-0.262989
-0.262874
-0.262797
-0.262751
-0.26273
-0.26273
-0.262745
-0.262773
-0.262808
-0.290093
-0.280557
-0.279551
-0.279099
-0.278915
-0.2787
-0.278419
-0.278231
-0.278318
-0.278769
-0.279486
-0.280256
-0.280823
-0.281123
-0.281193
-0.281118
-0.280982
-0.280831
-0.280694
-0.280581
-0.280494
-0.280436
-0.280396
-0.280371
-0.280358
-0.280354
-0.280358
-0.280366
-0.280379
-0.280395
19.2613
19.1976
19.1059
18.6033
17.413
15.2652
12.4686
9.09805
4.48217
-40.7791
-0.275243
-0.153645
-0.0636712
-0.0505342
0.529705
-0.198188
-0.217305
-0.152029
-0.0159634
-0.175942
-0.128992
-0.10534
-4.98889
11.2356
12.3858
14.7198
15.0979
12.5506
7.09899
1.97027
19.0885
19.0058
18.7536
18.2276
17.1472
15.0853
12.124
8.24441
4.39401
0.941864
-0.255137
-0.157139
-0.0696753
-0.0449635
0.189842
-0.202051
-0.233813
-0.16715
-0.0262475
-0.17553
-0.121729
-0.0605268
-9.0869
10.3119
10.8407
13.2688
13.6312
11.0125
5.38795
0.310998
18.9389
18.8307
18.487
17.9478
16.9253
14.9804
11.8473
7.01911
2.74595
-2.33084
-0.273118
-0.155771
-0.0741414
-0.0397471
0.174096
-0.243243
-0.277393
-0.190975
-0.0282184
-0.169217
-0.114694
-0.0553061
-0.541651
9.7402
9.15214
11.7
12.0473
9.35005
3.52178
0.114006
18.7812
18.6783
18.3735
17.8768
16.8776
14.9605
11.7459
2.75406
-39.2698
-0.887597
-0.219787
-0.15477
-0.0726888
-0.0413727
0.182475
-0.249918
-0.241292
-0.205106
-0.0218071
-0.163325
-0.10738
-0.0490008
-0.0628251
2.61134
7.30165
9.9902
10.3348
7.5456
1.72914
-0.223897
18.6847
18.6238
18.3931
17.9577
17.1
15.3041
12.3313
7.66909
-0.855114
-0.460986
-0.263327
-0.155001
-0.0903983
-0.0542108
-0.0941629
-0.233652
-0.143134
-0.109945
0.135512
-0.0990157
-0.104156
-0.0493055
-0.0431352
-7.03694
5.40984
8.33151
8.42175
5.52867
0.760729
-0.0961838
18.6158
18.6272
18.4779
18.1512
17.5102
16.0017
12.8072
-12.1623
-0.0268613
-0.063002
-0.193284
-0.145893
-0.0948911
-0.0734639
-0.070696
-0.250575
-0.21465
-0.207251
-0.184286
-0.141112
-0.0783453
-0.051153
-0.0447261
0.198374
2.97977
6.03573
6.25252
3.4045
-0.330659
-0.0869355
18.431
18.538
18.6282
18.6242
18.136
16.9139
13.1074
-2.19877
-0.155246
-0.0773462
-0.139997
-0.135782
-0.0992288
-0.0766266
-0.0707676
-0.202168
-0.194527
-0.212644
-0.173656
-0.132259
-0.0944866
-0.0547053
-0.04103
0.0504499
-0.263089
3.66742
3.51273
1.17309
-0.114532
-0.0883967
18.2056
18.3287
18.8604
19.3016
19.5907
17.5163
8.46929
-0.454087
-0.14691
-0.0974707
-0.129053
-0.128564
-0.103395
-0.0822918
-0.0931685
-0.00992082
-0.182696
-0.207814
-0.16391
-0.121957
-0.0978636
-0.059967
-0.043383
0.0283029
-0.0994386
0.175318
0.278967
-0.0740437
-0.127326
-0.0901682
18.0732
18.0356
18.7802
20.4892
22.3783
15.6004
-0.693924
-0.048681
-0.142706
-0.123378
-0.128332
-0.125345
-0.107939
-0.0877886
-0.0906443
-0.145069
-0.202409
-0.197757
-0.152199
-0.136334
-0.0984232
-0.0667398
-0.048541
-0.00344455
-0.227032
-0.156818
-0.115938
-0.116302
-0.133967
-0.0929986
17.7805
16.5414
18.2099
21.7222
11.1071
0.0655381
-0.0796236
-0.128928
-0.140541
-0.135717
-0.137981
-0.127932
-0.11349
-0.0937666
-0.091777
-0.137171
-0.185537
-0.187227
-0.141878
-0.110145
-0.10533
-0.0745931
-0.0568616
-0.0326913
-0.221389
-0.160752
-0.128319
-0.117265
-0.14191
-0.103491
1.87803
0.692501
-0.0030675
-0.160664
-0.218938
-0.150722
-0.129382
-0.145791
-0.154763
-0.148672
-0.146706
-0.134705
-0.120707
-0.100447
-0.0951822
-0.132553
-0.167924
-0.178216
-0.137711
-0.132155
0.0432083
-0.0826838
-0.0674037
-0.0581192
-0.213427
-0.164758
-0.131291
-0.125815
-0.148823
-0.107386
-0.170867
-0.168741
-0.174508
-0.182974
-0.194961
-0.181487
-0.170704
-0.172798
-0.169559
-0.167532
-0.157685
-0.144468
-0.130279
-0.10823
-0.100323
-0.133466
-0.156685
-0.172353
-0.137107
-0.130656
-0.076255
-0.0904023
-0.0792303
-0.0803253
-0.205325
-0.166802
-0.135888
-0.13775
-0.157555
-0.113559
-0.165691
-0.165341
-0.168947
-0.177844
-0.193175
-0.200069
-0.201903
-0.204546
-0.199448
-0.187498
-0.171813
-0.156421
-0.14311
-0.117589
-0.105292
-0.137757
-0.1526
-0.170216
-0.143329
-0.103649
-0.100447
-0.0996668
-0.0916867
-0.100042
-0.197776
-0.166887
-0.140658
-0.142097
-0.164462
-0.122021
-0.163758
-0.163805
-0.169446
-0.185186
-0.208625
-0.224547
-0.232041
-0.233532
-0.226349
-0.209845
-0.188458
-0.169806
-0.161147
-0.116721
-0.10292
-0.152571
-0.157075
-0.171465
-0.152234
-0.132623
-0.125094
-0.109408
-0.104011
-0.116646
-0.191762
-0.169993
-0.145343
-0.146536
-0.168462
-0.129368
-0.176514
-0.177489
-0.185566
-0.205964
-0.228484
-0.253523
-0.265846
-0.267528
-0.256488
-0.234265
-0.206178
-0.183198
-0.182977
-0.125917
-0.116457
-0.159595
-0.165479
-0.176372
-0.157648
-0.122765
-0.133463
-0.119114
-0.115406
-0.130123
-0.187521
-0.171637
-0.150291
-0.151056
-0.169958
-0.136705
-0.196033
-0.197803
-0.206315
-0.226676
-0.256605
-0.282577
-0.298026
-0.299036
-0.283909
-0.25644
-0.222893
-0.195409
-0.186816
-0.155759
-0.139591
-0.17139
-0.183104
-0.183536
-0.159297
-0.141176
-0.140669
-0.128592
-0.126041
-0.14098
-0.184718
-0.173574
-0.155537
-0.155758
-0.171287
-0.144044
-0.208224
-0.210027
-0.216888
-0.232994
-0.259734
-0.288871
-0.309096
-0.311939
-0.296822
-0.268545
-0.234788
-0.206436
-0.194617
-0.183336
-0.174546
-0.179346
-0.190995
-0.195069
-0.168992
-0.14711
-0.14748
-0.137947
-0.136172
-0.150129
-0.183293
-0.176002
-0.161111
-0.160693
-0.173445
-0.151317
-0.207056
-0.2082
-0.212409
-0.2221
-0.239745
-0.263297
-0.284068
-0.292335
-0.284562
-0.263705
-0.236649
-0.213084
-0.200852
-0.192409
-0.186414
-0.189832
-0.203635
-0.205547
-0.181606
-0.152969
-0.155687
-0.147391
-0.14597
-0.158265
-0.183307
-0.17903
-0.167023
-0.165976
-0.176492
-0.158545
-0.196794
-0.197119
-0.199015
-0.203572
-0.212332
-0.225843
-0.241224
-0.252006
-0.253323
-0.244178
-0.22852
-0.213628
-0.204337
-0.19835
-0.196194
-0.201492
-0.217698
-0.22599
-0.196554
-0.161386
-0.166111
-0.15696
-0.155561
-0.165847
-0.184787
-0.182716
-0.173288
-0.171738
-0.180289
-0.165847
-0.184872
-0.184769
-0.185458
-0.187457
-0.191536
-0.198352
-0.207416
-0.216254
-0.221377
-0.220849
-0.215946
-0.209865
-0.205061
-0.201957
-0.203497
-0.211892
-0.231334
-0.240687
-0.213503
-0.181749
-0.17637
-0.166413
-0.16504
-0.17302
-0.18769
-0.187116
-0.179936
-0.17808
-0.184852
-0.173342
-0.176645
-0.176507
-0.176815
-0.177959
-0.180179