/*--------------------------------*- C++ -*----------------------------------*\
| =========                 |                                                 |
| \\      /  F ield         | OpenFOAM: The Open Source CFD Toolbox           |
|  \\    /   O peration     | Version:  2.4.0                                 |
|   \\  /    A nd           | Web:      www.OpenFOAM.org                      |
|    \\/     M anipulation  |                                                 |
\*---------------------------------------------------------------------------*/
FoamFile
{
    version     2.0;
    format      ascii;
    class       volScalarField;
    location    "0.083";
    object      p_rgh;
}
// * * * * * * * * * * * * * * * * * * * * * * * * * * * * * * * * * * * * * //

dimensions      [1 -1 -2 0 0 0 0];

internalField   nonuniform List<scalar> 
14400
(
100.437
100.938
101.547
104.519
105.712
104.624
101.964
98.2508
94.0238
89.9407
86.5665
84.1041
82.4824
81.589
81.3623
81.7437
82.6152
83.8104
85.1553
86.5052
87.7594
88.8618
89.7859
90.5336
91.1183
91.5581
91.875
92.0906
92.2246
92.2946
100.436
100.938
101.531
104.524
105.722
104.633
101.97
98.2524
94.0184
89.9266
86.546
84.0795
82.4543
81.5567
81.3269
81.709
82.5869
83.7932
85.1515
86.5144
87.7799
88.8898
89.8201
90.572
91.1585
91.6001
91.9184
92.1349
92.2695
92.3398
100.431
100.933
101.485
104.537
105.75
104.66
101.992
98.2649
94.0128
89.8985
86.5009
84.0246
82.391
81.4823
81.2404
81.6175
82.5012
83.7246
85.1075
86.4977
87.7889
88.9204
89.8679
90.6326
91.2286
91.6767
91.9996
92.2191
92.3556
92.4268
100.422
100.923
101.41
104.557
105.797
104.706
102.03
98.2877
94.0058
89.8546
86.4292
83.9373
82.2911
81.3658
81.1058
81.4741
82.3655
83.6126
85.0299
86.4589
87.787
88.9497
89.9215
90.7037
91.3118
91.7678
92.0957
92.3184
92.4567
92.5288
100.408
100.909
101.303
104.585
105.862
104.77
102.084
98.321
93.9973
89.7947
86.3308
83.8173
82.1547
81.2068
80.9213
81.2776
82.1771
83.4547
84.917
86.397
87.7741
88.9782
89.982
90.7873
91.4108
91.8767
92.2105
92.4365
92.5766
92.6496
100.389
100.889
101.161
104.623
105.946
104.853
102.156
98.3653
93.9875
89.7186
86.2056
83.6646
81.9818
81.0049
80.685
81.0228
81.9313
83.2459
84.7639
86.3084
87.7476
89.0045
90.0494
90.8843
91.5283
92.0074
92.3494
92.5801
92.7228
92.7971
100.366
100.865
100.981
104.67
106.049
104.955
102.243
98.4211
93.9766
89.6258
86.0531
83.479
81.7727
80.7597
80.3942
80.7057
81.6226
82.9808
84.566
86.1897
87.706
89.0282
90.1237
90.9957
91.6655
92.1619
92.5151
92.7528
92.8993
92.9755
100.339
100.835
100.76
104.728
106.17
105.076
102.348
98.489
93.9649
89.5159
85.8733
83.2602
81.5279
80.4704
80.0456
80.3208
81.2443
82.6525
84.3173
86.0375
87.6482
89.0497
90.2063
91.123
91.8243
92.3423
92.7097
92.9564
93.1083
93.1871
100.307
100.801
100.491
104.799
106.312
105.217
102.47
98.5697
93.9527
89.3883
85.6657
83.0075
81.2477
80.136
79.6347
79.8602
80.7877
82.2523
84.0104
85.8477
87.5732
89.0703
90.2994
91.2687
92.0071
92.5507
92.9353
93.193
93.3513
93.4333
100.27
100.762
100.169
104.884
106.472
105.376
102.609
98.6644
93.9404
89.242
85.4303
82.7199
80.9325
79.7545
79.1557
79.3135
80.2424
81.7689
83.6357
85.6155
87.4807
89.0916
90.4057
91.4358
92.2168
92.7897
93.194
93.4644
93.6303
93.7159
100.229
100.718
99.7847
104.985
106.653
105.555
102.765
98.7745
93.9288
89.0756
85.167
82.3959
80.582
79.3234
78.6004
78.6667
79.5954
81.1875
83.1808
85.3355
87.3708
89.1164
90.5285
91.6276
92.4566
93.0624
93.4886
93.7731
93.9473
94.0369
100.183
100.669
99.33
105.104
106.855
105.752
102.939
98.8939
93.9186
88.8873
84.876
82.0323
80.195
78.84
77.9595
77.9002
78.8303
80.4878
82.6299
85.0027
87.2448
89.1486
90.672
91.8481
92.7299
93.3715
93.8217
94.1216
94.305
94.3995
100.132
100.615
98.7939
105.245
107.078
105.969
103.132
99.0216
93.9106
88.6745
84.5582
81.6244
79.7683
78.3032
77.2253
76.9893
77.9234
79.6416
81.9623
84.6134
87.1065
89.1939
90.8419
92.1018
93.0409
93.7209
94.197
94.5134
94.7063
94.8049
100.076
100.555
98.1638
105.412
107.323
106.206
103.342
99.1626
93.9053
88.4333
84.2151
81.1648
79.2966
77.7157
76.4021
75.9133
76.8353
78.6054
81.1517
84.1678
86.9622
89.2603
91.0448
92.393
93.3929
94.1142
94.6176
94.9517
95.1549
95.2581
100.015
100.49
97.4255
105.607
107.591
106.461
103.572
99.3182
93.9031
88.1582
83.8501
80.6423
78.7728
77.0886
75.5121
74.6865
75.4847
77.3076
80.1677
83.6724
86.8225
89.3556
91.2817
92.7256
93.7891
94.5536
95.086
95.4382
95.653
95.7633
99.9483
100.419
96.5624
105.835
107.882
106.735
103.82
99.4888
93.9043
87.8408
83.4682
80.0416
78.1865
76.437
74.5861
73.3028
73.7498
75.6503
78.9858
83.1433
86.707
89.4888
91.5588
93.1062
94.2374
95.0475
95.6092
95.9805
96.2066
96.3221
99.8765
100.342
95.5561
106.104
108.197
107.029
104.087
99.6744
93.9098
87.4691
83.0776
79.3448
77.5118
75.7449
73.6158
71.5808
71.5574
73.5747
77.6223
82.591
86.6255
89.6753
91.8967
93.5464
94.7381
95.5919
96.1877
96.5822
96.8199
96.9383
99.7991
100.259
94.386
106.418
108.537
107.34
104.373
99.8746
93.9201
87.0251
82.6903
78.5337
76.723
75.0287
72.4284
69.4589
68.8717
70.9436
76.0931
81.9958
86.5696
89.9024
92.2713
94.0291
95.2898
96.1985
96.8309
97.2474
97.4988
97.6243
99.7159
100.168
93.0297
106.786
108.902
107.67
104.68
100.088
93.9365
86.4827
82.3227
77.5808
75.8244
74.3548
70.9705
67.312
65.9034
67.502
74.4138
81.5079
86.5323
90.1579
92.6954
94.5613
95.9061
96.8764
97.5421
97.9798
98.2486
98.3875
99.6266
100.072
91.4631
107.218
109.293
108.018
105.008
100.314
93.961
85.8058
81.9961
76.4456
74.8213
73.5556
69.6741
65.5048
62.5143
62.777
72.7039
81.5068
86.7282
90.4227
93.1777
95.1754
96.5971
97.6183
98.3242
98.7929
99.078
99.2258
99.5309
99.9699
89.6611
107.726
109.711
108.383
105.357
100.548
93.9974
84.9585
81.7372
75.0664
73.7209
72.976
68.4333
62.9204
56.1581
54.8234
71.4527
81.7352
87.2882
90.8517
93.7148
95.8333
97.3539
98.4399
99.1997
99.702
100.001
100.151
99.4282
99.8657
87.5983
108.323
110.155
108.764
105.731
100.787
94.0563
83.9889
81.5871
73.3734
72.7208
72.884
36.4281
4.55386
4.24986
44.5527
71.0015
81.5711
87.5653
91.3978
94.3557
96.5554
98.19
99.3616
100.181
100.715
101.03
101.183
99.3178
99.7643
85.2493
109.029
110.626
109.162
106.13
101.022
94.1695
83.2191
81.6211
71.2844
54.0576
3.68499
0.590059
0.183327
-0.0024546
2.42341
70.6053
81.5013
87.23
91.7606
95.0839
97.4061
99.1491
100.394
101.263
101.831
102.172
102.339
99.1989
99.6742
82.5897
109.866
111.121
109.575
106.558
101.245
94.4092
83.0242
81.9304
46.2033
0.216498
0.245439
0.51287
-0.0707336
-0.210731
1.07634
68.1293
82.0549
86.489
91.7597
95.7804
98.4168
100.265
101.545
102.446
103.062
103.446
103.641
99.07
99.6097
79.5964
110.865
111.638
110.002
107.016
101.44
94.7775
83.1792
81.4713
0.840781
0.160358
0.206483
0.410221
-0.15288
-0.0657465
-0.311148
54.9173
83.3676
86.2752
91.4167
96.4658
99.5264
101.468
102.795
103.766
104.452
104.884
105.106
98.9294
99.5928
76.2475
112.066
112.176
110.442
107.506
101.587
95.131
83.2816
9.96949
0.0793344
0.123308
0.161101
0.449396
-0.0589177
0.0619186
-0.0904224
-0.826571
85.6426
87.0866
91.2174
97.0412
100.543
102.641
104.13
105.248
106.017
106.505
106.768
98.7746
99.6553
72.5195
113.519
112.729
110.894
108.03
101.674
95.3638
77.4173
-0.0567681
0.0855379
0.113089
0.114978
0.507658
-0.0265917
0.100348
0.106516
-2.22687
83.3029
89.519
91.7695
97.67
101.509
103.855
105.607
106.932
107.807
108.341
108.622
98.6028
99.8399
68.3736
115.3
113.293
111.357
108.588
101.691
95.4854
4.33988
-0.0466658
0.0805916
0.109835
0.144276
0.383589
0.00588505
0.0909073
0.118094
-0.755563
3.79301
92.4968
93.5795
98.636
102.892
105.414
107.432
108.904
109.843
110.388
110.666
98.4102
100.201
63.6227
117.534
113.86
111.828
109.175
101.619
93.579
0.629559
-0.0351077
0.0790284
0.119803
0.102286
0.0698841
0.257434
0.0707854
0.15514
0.0554634
0.273638
100.384
94.9447
100.247
104.285
107.272
109.6
111.162
112.123
112.641
112.875
98.1721
100.807
56.1582
120.629
114.423
112.306
109.783
101.439
91.8355
0.209072
-0.0032747
0.143975
0.113925
0.0956158
0.0681812
0.215443
0.0517006
0.190632
0.33978
0.505617
6.33256
91.9242
101.289
106.221
109.529
112.063
113.689
114.638
115.023
115.184
92.3158
92.294
92.2182
92.0723
91.8375
91.4931
91.016
90.3863
89.5851
88.6034
87.4464
86.1517
84.7922
83.4876
82.4002
81.7118
81.577
82.0937
83.3166
85.3392
88.2832
92.1118
96.4131
100.565
104.008
106.404
107.513
107.197
105.723
104.014
92.3611
92.3392
92.2631
92.1166
91.8808
91.5348
91.0566
90.4239
89.618
88.6291
87.4632
86.1565
84.7833
83.4656
82.3684
81.6759
81.5422
82.0624
83.2893
85.3158
88.2649
92.1016
96.4103
100.567
104.014
106.411
107.52
107.203
105.725
104.012
92.4484
92.4261
92.3488
92.2001
91.9609
91.6098
91.1241
90.4809
89.6607
88.6528
87.4638
86.1304
84.7304
83.3903
82.2795
81.5856
81.4591
81.9913
83.2281
85.2635
88.2256
92.0838
96.412
100.583
104.033
106.431
107.539
107.215
105.728
104.004
92.5507
92.5281
92.4499
92.2991
92.0563
91.6994
91.2045
90.5475
89.7075
88.6728
87.4505
86.0792
84.6414
83.2697
82.1398
81.4447
81.3291
81.879
83.1307
85.1803
88.1637
92.0567
96.4172
100.61
104.068
106.466
107.569
107.235
105.729
103.989
92.6717
92.649
92.5698
92.4171
92.1704
91.8065
91.3
90.6252
89.7591
88.6892
87.4227
86.0015
84.5142
83.1013
81.9465
81.2513
81.1509
81.7252
82.9969
85.0661
88.0786
92.0204
96.4258
100.649
104.117
106.515
107.612
107.261
105.731
103.967
92.8195
92.7964
92.7159
92.5601
92.3078
91.9344
91.4125
90.7142
89.8148
88.7
87.3776
85.8933
84.344
82.8803
81.6954
81.0027
80.9227
81.5292
82.826
84.9208
87.9702
91.9749
96.4376
100.702
104.181
106.579
107.667
107.295
105.732
103.937
92.9984
92.9747
92.8919
92.7315
92.4711
92.0847
91.5428
90.8151
89.8743
88.7043
87.3129
85.7508
84.1261
82.6016
81.3808
80.6959
80.6427
81.29
82.6173
84.7445
87.8378
91.9202
96.4523
100.767
104.261
106.657
107.734
107.335
105.733
103.901
93.2108
93.1858
93.0997
92.933
92.6621
92.2592
91.6925
90.9293
89.9386
88.7017
87.2263
85.5696
83.8544
82.2586
80.9957
80.3272
80.3086
81.0068
82.3697
84.5372
87.6811
91.8566
96.4692
100.845
104.356
106.75
107.813
107.383
105.733
103.856
93.4577
93.4315
93.3413
93.1667
92.8829
92.46
91.8641
91.0588
90.0092
88.6926
87.1158
85.3441
83.5208
81.8431
80.5308
79.8923
79.9181
80.6786
82.0816
84.2995
87.4991
91.7841
96.4964
100.936
104.467
106.858
107.905
107.438
105.733
103.805
93.7412
93.7133
93.6182
93.4345
93.1356
92.6898
92.0602
91.2063
90.0881
88.6774
86.9789
85.0673
83.1155
81.3447
79.974
79.3861
79.4692
80.305
81.751
84.032
87.2909
91.703
96.537
101.04
104.594
106.981
108.009
107.5
105.732
103.745
94.0631
94.0334
93.9329
93.7389
93.4231
92.9517
92.2838
91.3748
90.1782
88.6576
86.8135
84.7307
82.6252
80.7502
79.31
78.803
78.9602
79.8864
81.3754
83.7364
87.055
91.6136
96.584
101.159
104.736
107.118
108.126
107.569
105.73
103.678
94.4268
94.3946
94.2878
94.0823
93.748
93.2482
92.5385
91.5681
90.2832
88.6358
86.6184
84.324
82.0323
80.0414
78.521
78.1345
78.3889
79.424
80.9518
83.415
86.7895
91.516
96.6372
101.291
104.895
107.27
108.255
107.646
105.728
103.602
94.833
94.799
94.6861
94.4684
94.1139
93.5834
92.8283
91.791
90.4083
88.616
86.394
83.8361
81.3128
79.1918
77.5868
77.3641
77.7522
78.9205
80.4765
83.0715
86.4915
91.4108
96.697
101.439
105.07
107.437
108.397
107.73
105.725
103.518
95.2872
95.251
95.1312
94.9002
94.5241
93.9608
93.1565
92.0482
90.5604
88.6051
86.144
83.2571
80.4316
78.1587
76.4881
76.4643
77.0464
78.3794
79.9446
82.7115
86.1573
91.2986
96.7639
101.604
105.262
107.62
108.552
107.822
105.72
103.426
95.794
95.7536
95.6249
95.3799
94.9811
94.3826
93.5268
92.3414
90.7432
88.6123
85.8769
82.5838
79.3351
76.8605
75.1691
75.4177
76.2627
77.806
79.3497
82.3437
85.7807
91.1804
96.8385
101.785
105.471
107.817
108.72
107.922
105.715
103.324
96.3538
96.3109
96.1745
95.9148
95.4926
94.8574
93.9462
92.6763
90.9593
88.6503
85.608
81.8237
77.9511
75.1796
73.563
74.1943
75.393
77.1889
78.6815
81.9797
85.3529
91.0577
96.9208
101.984
105.698
108.029
108.902
108.03
105.708
103.213
96.9703
96.9267
96.7843
96.5075
96.0566
95.3828
94.4217
93.0727
91.2299
88.7331
85.3496
80.9994
76.2403
73.0698
71.5524
72.7329
74.4521
76.5155
77.9183
81.6331
84.8602
90.9326
97.011
102.201
105.942
108.257
109.096
108.145
105.7
103.093
97.6578
97.6107
97.4583
97.1647
96.6852
95.9643
94.938
93.506
91.5341
88.8521
85.0786
80.1134
74.1668
70.4165
69.0795
70.9591
73.4935
75.8453
77.0311
81.3219
84.2818
90.8082
97.1084
102.438
106.204
108.5
109.305
108.27
105.691
102.962
98.4244
98.369
98.2012
97.8889
97.3846
96.6183
95.5158
93.9894
91.8742
88.9852
84.8473
79.2918
71.6537
66.9774
66.3879
68.891
72.5291
75.2209
75.9783
81.0752
83.5861
90.6887
97.2117
102.696
106.484
108.757
109.527
108.402
105.68
102.821
99.265
99.2051
99.0262
98.6916
98.15
97.3396
96.1715
94.5476
92.2449
89.1809
85.0796
78.7119
68.616
62.2695
63.4808
67.0175
71.5138
74.5658
74.6736
80.9386
82.726
90.5793
97.3185
102.976
106.782
109.03
109.763
108.544
105.666
102.669
100.191
100.131
99.9471
99.592
99.0045
98.1342
96.8818
95.1455
92.7118
89.6501
85.6011
78.4815
65.2658
52.3358
58.8178
64.6074
70.7683
73.9568
73.2003
80.9779
81.6484
90.4924
97.4251
103.28
107.097
109.318
110.014
108.695
105.65
102.507
101.224
101.165
100.974
100.597
99.9687
99.0248
97.6671
95.8158
93.2985
90.0841
85.5979
78.5861
62.629
26.3644
3.46697
10.4028
64.1382
73.773
71.6233
81.2721
80.3715
90.483
97.5268
103.61
107.429
109.62
110.279
108.855
105.632
102.332
102.383
102.318
102.11
101.705
101.041
100.033
98.5869
96.5886
93.846
89.8737
85.0987
79.1452
61.1495
-1.26101
0.241052
0.262043
0.137784
27.647
69.531
81.8084
79.1416
90.7166
97.6228
103.971
107.777
109.937
110.559
109.025
105.612
102.145
103.691
103.613
103.371
102.921
102.219
101.178
99.6835
97.4592
94.1618
88.9509
84.5793
80.9547
45.3896
-0.388314
0.0814817
0.246163
0.143004
0.0537711
0.283999
82.4167
78.1308
91.3836
97.714
104.367
108.139
110.268
110.855
109.205
105.588
101.946
105.162
105.071
104.796
104.291
103.514
102.418
100.869
98.3928
94.2178
87.8834
84.3661
82.553
-2.09902
0.0214521
0.0807126
0.213209
0.14511
0.0252652
0.306273
27.3559
76.9723
92.5046
97.7919
104.807
108.512
110.614
111.166
109.396
105.56
101.734
106.835
106.718
106.399
105.834
104.951
103.707
101.99
99.2206
94.1215
87.9089
84.5361
96.5424
-2.2644
0.13897
0.084944
0.171364
0.181703
-0.0126725
0.184853
-0.0691905
68.1275
93.982
97.8457
105.302
108.892
110.973
111.492
109.598
105.529
101.509
108.695
108.573
108.228
107.598
106.572
105.106
103.128
100.061
94.3868
89.142
84.2179
0.450095
-1.12939
0.126741
0.0613007
0.163258
-0.00292699
-0.0327579
0.112482
-0.118193
-0.325756
95.8692
97.8537
105.869
109.274
111.346
111.834
109.811
105.494
101.27
110.735
110.62
110.273
109.627
108.516
106.861
104.715
101.451
95.8167
91.9497
86.6736
1.39587
-0.339738
0.055798
0.0226098
0.0847562
-0.0342067
-0.0442198
0.0672901
-0.108228
-0.22445
97.6712
97.8026
106.534
109.649
111.733
112.192
110.037
105.454
101.016
112.936
112.85
112.549
111.905
110.758
108.971
106.656
103.203
98.0713
94.4811
13.861
0.489416
0.0758631
0.0272738
-0.0149709
0.0107952
-0.0605042
-0.0467184
0.053799
-0.0949088
-0.0904849
48.2385
97.698
107.338
110.009
112.134
112.565
110.275
105.408
100.748
115.239
115.169
115.003
114.431
113.237
111.339
108.862
105.557
101.881
94.1316
-6.21916
-0.130881
0.0446176
0.0368796
-0.0762071
0.0169038
-0.0954464
-0.0477502
0.0347734
-0.0846289
-0.0519342
1.22759
97.3862
108.336
110.34
112.549
112.953
110.526
105.357
100.462
98.1724
101.591
203.554
123.804
114.913
112.73
110.316
101.086
4.41211
0.162244
0.102576
0.147305
0.111159
0.0888508
0.0649958
0.319266
0.0918147
0.177436
0.2372
-0.451194
1.41283
100.074
101.07
108.08
111.719
114.363
116.122
116.975
117.229
117.416
8.94215
102.169
165.584
122.938
115.195
112.977
110.616
100.142
-0.106032
0.154108
0.0624945
0.139927
0.100714
0.0845566
0.0671665
0.227286
0.166056
0.164541
0.162054
-0.408175
-1.24712
104.223
101.198
109.305
113.26
115.904
117.483
118.269
118.68
118.913
0.189747
102.901
113.162
122.563
115.49
113.242
110.893
62.8693
0.0363944
0.144187
0.0600706
0.235767
0.0966082
0.079472
0.0648732
0.0530393
0.114708
0.148473
0.109546
-0.386007
-0.721738
5.28436
99.101
110.767
114.987
117.631
119.055
119.796
120.306
120.582
-0.0216585
34.728
111.753
104.124
115.8
113.517
111.121
2.91571
0.0422853
0.129282
0.056556
0.0495571
0.0891725
0.0735517
0.0610959
0.0595577
0.110834
0.130693
0.0638807
-0.126012
-0.557748
-0.780982
101.638
113.552
117.239
119.627
120.979
121.676
122.138
122.396
-0.0237887
5.12118
104.308
106.92
116.145
113.737
109.289
-0.128488
0.0471159
0.113696
0.0527831
0.0371654
0.0848418
0.0666923
0.0561309
0.0635779
0.105407
0.114269
0.00680362
0.595868
-0.380268
-0.557742
55.1598
116.631
120.171
122.099
123.239
123.868
124.26
124.449
-0.0166893
-0.0436193
100.918
98.7871
116.497
114.049
66.9153
-0.0268995
0.0509146
0.0986955
0.0510327
0.0709644
0.176098
0.0584852
0.0546324
0.0638277
0.09858
0.0973148
-0.026889
0.802136
-0.235972
-0.0154764
6.18971
120.965
123.673
124.961
125.817
126.327
126.631
126.706
0.000919098
-0.0345673
6.66749
40.2337
116.822
112.778
1.80201
-0.0176348
0.0510168
0.0851353
0.0465325
0.0915691
0.0257784
0.0494187
0.0498453
0.062596
0.0912811
0.0856908
0.000263967
-0.253204
-0.170224
0.0289212
-1.61779
115.477
127.453
128.162
128.857
129.089
129.137
129.028
-0.0172304
-0.0305659
0.173305
2.79788
113.365
43.2858
0.096208
-0.00838222
0.0499319
0.0734229
0.0432858
0.0638763
0.0254284
0.0397241
0.0460804
0.0618164
0.0847915
0.0752855
-0.00104995
-0.144633
-0.121366
0.0276905
0.075319
21.44
130.377
131.959
132.391
132.189
131.794
131.536
-0.0145585
-0.0087133
0.179079
0.0543474
6.584
0.0471496
0.0928434
0.00726812
0.0487366
0.0635044
0.0364111
0.0569959
0.0241866
0.0283984
0.045506
0.059281
0.0783024
0.0666398
0.0066154
-0.0807454
-0.0980939
-0.0411059
-0.0869566
-0.0663456
87.3054
137.248
136.392
135.54
134.48
134.331
-0.0158695
-0.00411305
0.183071
0.0520862
0.0239251
0.00413956
0.081879
0.0214338
0.0476541
0.0551315
0.0302755
0.0647464
0.0801052
0.0407569
0.0430932
0.0573293
0.0731917
0.0595155
0.0109149
-0.0488498
-0.0855822
-0.0718008
-0.0836108
-0.127872
0.180916
58.8402
130.147
139.653
136.455
136.925
-0.0218492
0.00677776
0.172012
0.0533717
0.0239467
0.0119179
0.072177
0.0315567
0.0465788
0.0479912
0.0206019
0.253329
0.136866
0.028681
0.0427859
0.0546973
0.0685866
0.0524272
0.0102298
-0.0417058
-0.0778673
-0.0860839
-0.0879573
-0.0909163
-0.0502278
-0.119709
0.0448304
4.25388
13.1799
21.6592
-0.0197485
0.00957239
0.164406
0.0540534
0.025391
0.0186094
0.0645109
0.0381558
0.0455669
0.0416394
0.00686869
0.0113077
0.116191
0.0257267
0.0423997
0.0505107
0.0641578
0.0451669
0.00472262
-0.0464664
-0.0757921
-0.090814
-0.0824479
-0.0902794
-0.0853455
-0.0948717
-0.0772545
-0.0639766
-0.0489361
-0.043889
-0.0158144
0.0374763
0.142448
0.0538815
0.0270811
0.0242915
0.0588105
0.0421417
0.0444768
0.0359623
-0.00355425
0.0323087
0.0474058
0.0256447
0.0405218
0.0471388
0.0602078
0.141428
0.131504
-0.0567656
-0.0769663
-0.0935989
-0.095915
-0.0910917
-0.0878439
-0.0875218
-0.0713935
-0.0555353
-0.0442176
-0.0377396
-0.0159764
0.0445482
0.128855
0.0529405
0.028826
0.0291747
0.0544737
0.0443026
0.0433636
0.0310808
-0.00607691
0.0438684
0.0109817
0.0234426
0.0362406
0.0365964
0.186985
0.145117
0.12182
-0.0620932
-0.0792386
-0.0961306
-0.105197
-0.103022
-0.0946771
-0.0919952
-0.072351
-0.0520715
-0.0388862
-0.0316982
-0.0139583
0.0304207
0.112558
0.0514497
0.0303932
0.0331013
0.0512965
0.0452368
0.0423341
0.0266448
-0.00683804
0.0687769
0.00904769
0.0219012
0.029456
0.0259626
0.181659
0.130706
-0.00637244
-0.0612052
-0.0807492
-0.0998337
-0.112336
-0.114919
-0.10076
-0.0977699
-0.0817679
-0.060129
-0.0464158
-0.0393256
-0.0119628
0.025649
0.0982645
0.0495468
0.0317231
0.0359362
0.048844
0.0452923
0.0415229
0.0240003
0.0209332
0.0593544
0.00556541
0.0163952
0.0218632
0.0178034
0.0111167
-0.00832445
-0.0336611
-0.0599708
-0.0809693
-0.104397
-0.118749
-0.124023
-0.121428
-0.110605
-0.0894188
-0.0703028
-0.0585677
-0.0527625
-0.00984088
0.0143376
0.0856705
0.0473318
0.032752
0.0376195
0.0467037
0.0447092
0.0408648
0.0239664
-0.0150327
0.0234499
-0.00256539
0.0107759
0.0127795
0.0107393
0.00206022
-0.0154783
-0.0370266
-0.0570196
-0.0800482
-0.103676
-0.118097
-0.122629
-0.117822
-0.103638
-0.0855552
-0.0712302
-0.0626621
-0.058571
-0.00776055
-0.000395163
0.0737147
0.0448762
0.0333752
0.0381627
0.044537
0.0436917
0.0403447
0.0279327
-0.0147999
-0.0164934
-0.00689049
-0.00663741
0.00311669
0.00314707
-0.0049697
-0.0196269
-0.0359252
-0.0522432
-0.0733008
-0.0925669
-0.103572
-0.104518
-0.0965316
-0.0829934
-0.069482
-0.0597123
-0.053936
-0.051102
-0.005828
0.00351574
0.0628169
0.0421896
0.0334702
0.0377027
0.0425638
0.0423486
0.0400071
0.0314563
0.000934204
-0.0290004
-0.0323078
-0.02266
-0.00519671
-0.00349367
-0.00883068
-0.0192345
-0.0309799
-0.0434538
-0.0581507
-0.0705186
-0.0760666
-0.0736999
-0.0655373
-0.0553251
-0.0464267
-0.0401927
-0.036384
-0.0343471
-0.00411873
0.00619754
0.0530629
0.039255
0.032973
0.0364902
0.0404833
0.0407002
0.0396082
0.0337298
0.014464
-0.0368005
-0.0496663
-0.0410787
-0.0155515
-0.00761278
-0.00911915
-0.0153266
-0.0231333
-0.0312945
-0.038795
-0.0437927
-0.0445927
-0.0410686
-0.0347524
-0.028135
-0.0227548
-0.0190022
-0.0166335
-0.0152788
-0.00266154
0.00791042
0.0444712
0.0361142
0.0319064
0.0347615
0.0380576
0.0387134
0.0387669
0.0370651
0.0240187
-0.0295352
-0.0552703
-0.056356
-0.0217923
-0.00896305
-0.00701891
-0.00987201
-0.0144028
-0.0184571
-0.0209104
-0.0213022
-0.0193085
-0.0155787
-0.0113602
-0.00724524
-0.00396347
-0.00154026
-0.000121351
0.00078164
-0.00148067
0.00885041
0.0370161
0.0328181
0.0303193
0.032639
0.0353447
0.0363336
0.0371469
0.0370922
0.0270655
-0.0250704
-0.0547127
-0.0601685
-0.0188243
-0.00770183
-0.00382159
-0.00425957
-0.00609639
-0.00750644
-0.00756078
-0.00619147
-0.00370995
-0.000645994
0.00242657
0.00510742
0.00720628
0.00879181
0.00975679
0.0103567
-0.000581636
0.00916503
0.0306205
0.0294167
0.0282583
0.0301604
0.0323621
0.0335214
0.0345441
0.0345737
0.026938
-0.00243466
-0.043135
-0.0481244
-0.0181309
-0.00482242
-0.000637329
0.000281499
0.000192239
0.000278987
0.00108779
0.00263257
0.00465289
0.00681392
0.0088349
0.010538
0.0118574
0.0128039
0.0134255
0.0137765
3.44557e-05
0.00898223
0.0251634
0.0259536
0.0257628
0.0273238
0.0291108
0.0302646
0.0310418
0.0302194
0.0233838
-0.0103439
-0.0392383
-0.0240856
-0.0106068
-0.00186436
0.00172755
0.00320544
0.00397334
0.00472063
0.00572775
0.00699905
0.00840147
0.00977637
0.0109998
0.012002
0.012762
0.0132919
0.0136203
0.0137812
0.000448273
0.00839816
0.0204893
0.0224427
0.0228655
0.0241401
0.0255907
0.0265845
0.0269006
0.0252673
0.0181899
0.00144868
-0.0121797
-0.0120377
-0.00459089
0.000372006
0.00306645
0.00459115
0.00562675
0.00653332
0.00745657
0.00840424
0.00932464
0.010158
0.0108605
0.0114117
0.0118114
0.0120722
0.0122133
0.0122559
0.000659164
0.00748315
0.0164209
0.0188456
0.0195935
0.0206302
0.0217936
0.0225338
0.0224072
0.0203723
0.0147606
0.00531347
-0.0028469
-0.00355286
-0.00087325
0.00172123
0.00356221
0.00485301
0.00583212
0.00665629
0.00739738
0.00806771
0.00865639
0.00914948
0.00953887
0.00982496
0.0100155
0.0101225
0.01016
0.0101416
0.000698353
0.00628928
0.0127603
0.0151228
0.0159674
0.0168034
0.0177016
0.0181835
0.0177747
0.0157677
0.0115894
0.00592372
0.00146116
0.000237205
0.00103014
0.0023081
0.00346594
0.00441664
0.00519069
0.00583444
0.00637727
0.00683029
0.00719763
0.0074823
0.00768932
0.00782662
0.00790402
0.00793164
0.00791904
0.00787502
0.000596469
0.00485588
0.00930689
0.0112412
0.0119991
0.0126459
0.0133022
0.0135908
0.0131081
0.0114524
0.00857574
0.0051521
0.00258842
0.00158072
0.00169339
0.00227551
0.00294278
0.00356257
0.00409505
0.0045383
0.00489945
0.00518571
0.00540399
0.00556136
0.00566551
0.00572477
0.00574724
0.00574042
0.00571099
0.00566471
0.000382034
0.00321026
0.00588964
0.00716001
0.00768626
0.00812958
0.00858078
0.0087725
0.00841073
0.00729988
0.00555963
0.00364241
0.00224135
0.00157946
0.0015016
0.00173803
0.00208197
0.00243432
0.00274943
0.00301252
0.00322185
0.00338096
0.00349593
0.00357327
0.00361925
0.00363975
0.00364002
0.00362457
0.00359729
0.00356173
8.16068e-05
0.00136844
0.00237402
0.0028261
0.00301017
0.00322486
0.00350633
0.00369449
0.00360716
0.00315662
0.00243877
0.00166918
0.00110205
0.00080258
0.000731864
0.000806776
0.000943225
0.00109378
0.00123128
0.00134454
0.00143127
0.00148926
0.00152881
0.00155375
0.00156694
0.00157081
0.00156754
0.00155894
0.00154636
0.00153055
117.468
117.405
117.313
116.81
115.62
113.472
110.675
107.305
102.689
27.7072
-0.0953566
-0.0552272
0.0348534
0.0481014
0.716797
-0.0110594
-0.11046
-0.0307348
0.104662
-0.0763368
-0.0302885
0.00346171
84.0606
109.443
110.593
112.927
113.305
110.758
105.306
100.177
118.974
118.892
118.639
118.113
117.033
114.971
112.01
108.13
104.28
10.7944
-0.147334
-0.0569414
0.0305282
0.055252
0.306835
-0.0090461
-0.128136
-0.0657764
0.0745797
-0.0652286
-0.0214658
0.0403546
7.60384
110.198
110.726
113.155
113.517
110.898
105.274
95.2833
120.643
120.535
120.191
119.652
118.629
116.684
113.551
108.723
100.053
-0.787423
-0.164308
-0.053703
0.0289729
0.06229
0.276506
-0.0484939
-0.15691
-0.086614
0.0751159
-0.0125172
-0.0126604
0.0466444
0.947083
110.946
110.856
113.404
113.751
111.054
105.226
29.7179
122.452
122.349
122.045
121.548
120.549
118.631
115.417
106.425
18.9201
-0.388533
-0.115235
-0.0500999
0.0399984
0.0627056
0.356915
-0.0523717
-0.0986414
-0.0961076
0.0887441
-0.0035943
-0.00337757
0.0549976
0.0509299
101.736
110.952
113.659
114.006
111.217
77.8235
10.8826
124.487
124.426
124.195
123.76
122.902
121.106
118.133
111.407
2.63852
-0.244361
-0.157139
-0.0488584
0.0169077
0.0632788
0.0328219
-0.0311457
-0.0260313
0.0270247
0.303494
0.0522719
0.0021559
0.0568256
0.0630838
15.5333
111.149
114.064
114.218
108.179
56.3093
1.07279
126.724
126.735
126.586
126.259
125.618
124.11
120.915
72.8182
0.126496
0.0846784
-0.0848372
-0.0374474
0.0135634
0.0439537
0.049471
-0.0644543
-0.0457871
-0.0975479
-0.0731269
0.0458874
0.0410328
0.0572912
0.063704
0.797813
109.154
114.138
114.355
100.216
15.9697
0.0242156
129.036
129.143
129.233
129.229
128.741
127.519
123.712
9.64858
-0.0367151
0.0350828
-0.0290475
-0.024833
0.0117212
0.0346333
0.0602998
-0.0837164
0.0315365
-0.100477
-0.0593182
0.05906
0.0164625
0.0562439
0.0699189
0.161747
32.7081
114.263
113.403
62.1602
0.209817
0.0241575
131.512
131.635
132.169
132.61
132.899
130.825
104.427
-0.25789
-0.0118871
0.0162025
-0.0153918
-0.0149029
0.0102823
0.0313981
0.0347692
0.176888
0.0488921
-0.0937681
-0.045306
0.0736869
0.015797
0.0536936
0.0702777
0.141956
0.602702
31.2121
41.4016
2.4468
-0.0135089
0.0278567
134.307
134.27
135.016
136.725
138.614
131.836
-0.475452
0.136284
-0.0260843
-0.00676449
-0.0117027
-0.0086567
0.00869041
0.0288088
0.0259579
-0.0280494
-0.0321633
-0.0811561
-0.0305391
0.000808046
0.0181736
0.049857
0.0680558
0.113152
-0.110434
-0.0402204
0.000663532
0.00361961
-0.0172105
0.0340071
137.184
135.945
137.614
141.126
100.034
0.270633
0.042943
-0.00919127
-0.0207515
-0.0159218
-0.0179661
-0.00814847
0.006286
0.0260087
0.0279984
-0.0173941
-0.0657562
-0.0674516
-0.0169395
0.015806
0.0146969
0.0451821
0.0629136
0.0870839
-0.101613
-0.0405301
-0.00572532
0.00267926
-0.0217138
0.0234844
23.2424
16.9016
8.02377
0.781519
-0.00925566
-0.0262477
-0.00595043
-0.0224978
-0.0297783
-0.0243294
-0.0234753
-0.0113964
0.00250977
0.0227702
0.0280345
-0.00933664
-0.0447072
-0.0549997
-0.0114545
0.0427874
0.247706
0.0405328
0.0558129
0.0650973
-0.0902106
-0.0415414
-0.000310817
0.00107455
0.0124196
0.0168616
-0.041137
-0.0388322
-0.0440053
-0.0523441
-0.0650248
-0.0536857
-0.0414667
-0.0397607
-0.0366606
-0.0404642
-0.0304378
-0.0174804
-0.00333604
0.0187121
0.0266192
-0.006524
-0.0297427
-0.0454103
-0.00975902
0.0479374
0.0521861
0.0365401
0.0477121
0.0466171
-0.0783828
-0.0397623
-0.000945806
-0.0107987
0.0086221
0.0147573
-0.0346953
-0.0343373
-0.0379086
-0.0467331
-0.0615738
-0.0627811
-0.0645669
-0.0689556
-0.068433
-0.0561474
-0.0405023
-0.0254458
-0.0121346
0.0133862
0.0414222
0.0101068
-0.0215166
-0.0392404
-0.0121289
0.0274542
0.0490954
0.0313085
0.0392886
0.0309328
-0.0668005
-0.0346772
-0.00968315
-0.0111129
0.00698646
0.00918565
-0.0284155
-0.0284623
-0.034102
-0.0498217
-0.0710212
-0.0826171
-0.0951582
-0.0981873
-0.091003
-0.0741123
-0.0527766
-0.0344632
-0.0258038
0.0836609
0.105705
0.00025654
-0.0216932
-0.0361223
-0.0168914
0.0527334
0.0114639
0.0259346
0.0313317
0.0186965
-0.0564193
-0.0346457
-0.0100011
-0.0111614
-0.0330698
0.00597465
-0.036444
-0.0374181
-0.0454951
-0.0658887
-0.0816819
-0.108574
-0.125774
-0.127458
-0.116418
-0.0941891
-0.0657029
-0.0431278
-0.0429072
0.0901292
0.0994665
0.00355753
-0.0183819
-0.0300852
-0.0175755
0.06906
0.00701283
0.0209557
0.0246637
0.00994626
-0.0474512
-0.0315671
-0.0102214
-0.0109855
-0.0298879
0.00336506
-0.0508447
-0.0526147
-0.0611262
-0.0814711
-0.111109
-0.137386
-0.152838
-0.153848
-0.138721
-0.111252
-0.0772848
-0.0502092
-0.0416276
0.047233
0.0802192
-0.0261804
-0.0378985
-0.0187368
-0.014061
0.01357
0.00451818
0.0165959
0.0191463
0.00420791
-0.0395304
-0.0283864
-0.010349
-0.0105705
-0.0260989
0.00114303
-0.0574946
-0.0592974
-0.0661589
-0.082263
-0.109003
-0.138142
-0.158356
-0.160765
-0.146093
-0.117816
-0.0839507
-0.0556202
-0.0438884
-0.0326073
-0.0238164
-0.0285799
-0.0402471
-0.0239413
-0.0179798
0.0116644
0.00324925
0.0127818
0.014557
0.000599422
-0.0325641
-0.0252735
-0.0103819
-0.00996417
-0.0227166
-0.000587953
-0.0503274
-0.0514716
-0.0556804
-0.065371
-0.0830159
-0.106569
-0.127003
-0.135055
-0.12759
-0.106977
-0.0799209
-0.0563563
-0.0441078
-0.0356806
-0.0296859
-0.032365
-0.0468984
-0.0259362
-0.0242161
0.0246971
0.00128208
0.00933685
0.0107575
-0.00153659
-0.0265787
-0.0223024
-0.0102946
-0.00924842
-0.019764
-0.00181703
-0.0335697
-0.0338945
-0.0357909
-0.0403474
-0.0491083
-0.0626193
-0.0780002
-0.0884473
-0.0900957
-0.0809548
-0.065297
-0.0504024
-0.0411128
-0.0342831
-0.0325899
-0.038085
-0.0544744
-0.0389362
-0.0320358
0.0284815
-0.000858361
0.00626294
0.0076619
-0.00262387
-0.0215634
-0.0194929
-0.0100644
-0.00851436
-0.0170662