/*--------------------------------*- C++ -*----------------------------------*\
| =========                 |                                                 |
| \\      /  F ield         | OpenFOAM: The Open Source CFD Toolbox           |
|  \\    /   O peration     | Version:  2.4.0                                 |
|   \\  /    A nd           | Web:      www.OpenFOAM.org                      |
|    \\/     M anipulation  |                                                 |
\*---------------------------------------------------------------------------*/
FoamFile
{
    version     2.0;
    format      ascii;
    class       surfaceScalarField;
    location    "0.328";
    object      phi;
}
// * * * * * * * * * * * * * * * * * * * * * * * * * * * * * * * * * * * * * //

dimensions      [0 3 -1 0 0 0 0];

internalField   nonuniform List<scalar> 
19800
(
-1.08149e-13
1.08149e-13
-4.54324e-13
3.53389e-13
-8.9589e-13
4.41411e-13
-1.299e-12
3.99742e-13
-1.60268e-12
3.01518e-13
-1.79267e-12
1.89429e-13
-1.87867e-12
8.58547e-14
-1.88153e-12
2.43389e-15
-1.82752e-12
-5.46881e-14
-1.73429e-12
-9.38565e-14
-1.62484e-12
-1.0984e-13
-1.51555e-12
-1.09463e-13
-1.41861e-12
-9.70391e-14
-1.34424e-12
-7.45194e-14
-1.2967e-12
-4.78008e-14
-1.27831e-12
-1.87352e-14
-1.29277e-12
1.41808e-14
-1.34214e-12
4.93375e-14
-1.43047e-12
8.86692e-14
-1.56387e-12
1.34116e-13
-1.75179e-12
1.8886e-13
-2.00728e-12
2.5642e-13
-2.34649e-12
3.39891e-13
-2.78775e-12
4.41544e-13
-3.34948e-12
5.6161e-13
-4.04749e-12
6.97622e-13
-4.89171e-12
8.43743e-13
-5.88283e-12
9.9069e-13
-7.00964e-12
1.12654e-12
-8.24849e-12
1.23875e-12
-9.56553e-12
1.31709e-12
-1.0922e-11
1.35669e-12
-1.22814e-11
1.35968e-12
-1.36143e-11
1.33323e-12
-1.49001e-11
1.28616e-12
-1.6128e-11
1.22795e-12
-1.72956e-11
1.1675e-12
-1.84085e-11
1.11244e-12
-1.94778e-11
1.06879e-12
-2.0519e-11
1.04081e-12
-2.15499e-11
1.03098e-12
-2.25894e-11
1.03991e-12
-2.36551e-11
1.06648e-12
-2.47624e-11
1.10805e-12
-2.59227e-11
1.16083e-12
-2.71429e-11
1.22035e-12
-2.84248e-11
1.28185e-12
-2.97652e-11
1.34057e-12
-3.11566e-11
1.39199e-12
1.432e-12
-3.25878e-11
-3.5641e-13
4.55495e-13
-1.15239e-12
1.14675e-12
-2.04416e-12
1.33535e-12
-2.80613e-12
1.16227e-12
-3.32776e-12
8.21854e-13
-3.57921e-12
4.39112e-13
-3.57943e-12
8.46251e-14
-3.37397e-12
-2.04064e-13
-3.01356e-12
-4.15853e-13
-2.55943e-12
-5.48525e-13
-2.05584e-12
-6.13783e-13
-1.54535e-12
-6.2024e-13
-1.06016e-12
-5.82603e-13
-6.22492e-13
-5.12736e-13
-2.48703e-13
-4.22226e-13
4.94733e-14
-3.17401e-13
2.64882e-13
-2.01281e-13
3.90639e-13
-7.58417e-14
4.15766e-13
6.47257e-14
3.24262e-13
2.27155e-13
9.28522e-14
4.2176e-13
-3.09802e-13
6.60139e-13
-9.22478e-13
9.52994e-13
-1.78862e-12
1.3075e-12
-2.95186e-12
1.72425e-12
-4.4495e-12
2.19456e-12
-6.30478e-12
2.69845e-12
-8.51885e-12
3.20444e-12
-1.10648e-11
3.67238e-12
-1.38858e-11
4.05991e-12
-1.69009e-11
4.33246e-12
-2.0017e-11
4.47319e-12
-2.31458e-11
4.48882e-12
-2.62154e-11
4.40316e-12
-2.91749e-11
4.2457e-12
-3.19957e-11
4.04855e-12
-3.46711e-11
3.84233e-12
-3.72127e-11
3.65354e-12
-3.96473e-11
3.5032e-12
-4.20125e-11
3.40637e-12
-4.43524e-11
3.37188e-12
-4.67134e-11
3.40234e-12
-4.91401e-11
3.49444e-12
-5.1671e-11
3.63976e-12
-5.43357e-11
3.82584e-12
-5.71528e-11
4.03745e-12
-6.01286e-11
4.25795e-12
-6.32576e-11
4.47045e-12
-6.65231e-11
4.6588e-12
4.80853e-12
-6.98984e-11
-4.4877e-13
9.0411e-13
-1.3492e-12
2.04201e-12
-2.2722e-12
2.25699e-12
-2.96101e-12
1.85091e-12
-3.29401e-12
1.15439e-12
-3.24144e-12
3.85601e-13
-2.83188e-12
-3.2597e-13
-2.12588e-12
-9.10886e-13
-1.20026e-12
-1.34202e-12
-1.30916e-13
-1.61825e-12
1.01034e-12
-1.75539e-12
2.16533e-12
-1.77572e-12
3.28694e-12
-1.70493e-12
4.34076e-12
-1.56746e-12
5.30189e-12
-1.38425e-12
6.1541e-12
-1.17023e-12
6.88625e-12
-9.33499e-13
7.48599e-12
-6.75024e-13
7.93886e-12
-3.87084e-13
8.22228e-12
-5.49834e-14
8.30335e-12
3.41814e-13
8.13751e-12
8.26696e-13
7.66923e-12
1.4215e-12
6.83554e-12
2.14104e-12
5.57233e-12
2.98716e-12
3.82362e-12
3.943e-12
1.55309e-12
4.96882e-12
-1.24378e-12
6.00124e-12
-4.52969e-12
6.95821e-12
-8.22181e-12
7.75189e-12
-1.2199e-11
8.30946e-12
-1.63211e-11
8.59522e-12
-2.04572e-11
8.62494e-12
-2.45041e-11
8.45026e-12
-2.83895e-11
8.13134e-12
-3.20744e-11
7.73362e-12
-3.5551e-11
7.31918e-12
-3.88386e-11
6.94154e-12
-4.19779e-11
6.64317e-12
-4.50251e-11
6.45463e-12
-4.8046e-11
6.39407e-12
-5.11096e-11
6.46713e-12
-5.42819e-11
6.66753e-12
-5.76203e-11
6.97843e-12
-6.11692e-11
7.37461e-12
-6.49569e-11
7.82501e-12
-6.89942e-11
8.29547e-12
-7.32744e-11
8.75128e-12
-7.77742e-11
9.15943e-12
9.49042e-12
-8.24556e-11
-4.09249e-13
1.31564e-12
-1.17441e-12
2.80455e-12
-1.85598e-12
2.93655e-12
-2.19446e-12
2.18838e-12
-2.0753e-12
1.03464e-12
-1.47925e-12
-2.11022e-13
-4.47775e-13
-1.35804e-12
9.42713e-13
-2.3019e-12
2.59973e-12
-2.99946e-12
4.42977e-12
-3.4487e-12
6.34636e-12
-3.67252e-12
8.2765e-12
-3.70664e-12
1.0162e-11
-3.59149e-12
1.19599e-11
-3.36639e-12
1.364e-11
-3.06536e-12
1.5183e-11
-2.71376e-12
1.65756e-11
-2.32598e-12
1.78051e-11
-1.90398e-12
1.88554e-11
-1.43645e-12
1.97011e-11
-8.99691e-13
2.03037e-11
-2.59982e-13
2.06091e-11
5.21723e-13
2.05482e-11
1.48257e-12
2.00403e-11
2.64892e-12
1.9001e-11
4.02653e-12
1.73533e-11
5.59089e-12
1.50428e-11
7.27941e-12
1.20556e-11
8.98841e-12
8.43402e-12
1.05794e-11
4.28571e-12
1.18996e-11
-2.24583e-13
1.28191e-11
-4.90334e-12
1.32736e-11
-9.57639e-12
1.3298e-11
-1.41169e-11
1.29912e-11
-1.84392e-11
1.24545e-11
-2.25016e-11
1.17971e-11
-2.63024e-11
1.11211e-11
-2.98728e-11
1.05132e-11
-3.32698e-11
1.00415e-11
-3.65686e-11
9.75471e-12
-3.98554e-11
9.68203e-12
-4.32198e-11
9.83233e-12
-4.6747e-11
1.0195e-11
-5.05106e-11
1.07419e-11
-5.45673e-11
1.14311e-11
-5.89534e-11
1.22109e-11
-6.36827e-11
1.30249e-11
-6.87467e-11
1.38156e-11
-7.41159e-11
1.45288e-11
1.51163e-11
-7.9742e-11
-3.06108e-13
1.62235e-12
-8.08051e-13
3.30567e-12
-1.09816e-12
3.22518e-12
-9.35689e-13
2.02475e-12
-2.23893e-13
3.22124e-13
1.03944e-12
-1.4748e-12
2.79682e-12
-3.11576e-12
4.9562e-12
-4.46159e-12
7.41044e-12
-5.45406e-12
1.00517e-11
-6.09045e-12
1.2781e-11
-6.40252e-12
1.55141e-11
-6.4407e-12
1.81844e-11
-6.26279e-12
2.0743e-11
-5.92586e-12
2.31571e-11
-5.48005e-12
2.54068e-11
-4.96366e-12
2.74805e-11
-4.3993e-12
2.93684e-11
-3.79126e-12
3.10569e-11
-3.12427e-12
3.2522e-11
-2.36419e-12
3.37234e-11
-1.46104e-12
3.46009e-11
-3.55602e-13
3.50735e-11
1.01021e-12
3.50426e-11
2.68006e-12
3.44006e-11
4.66897e-12
3.30434e-11
6.94845e-12
3.08901e-11
9.43289e-12
2.79071e-11
1.19712e-11
2.41346e-11
1.43512e-11
1.97061e-11
1.63272e-11
1.48427e-11
1.76818e-11
9.81208e-12
1.83038e-11
4.84096e-12
1.82694e-11
7.08736e-14
1.77623e-11
-4.40711e-12
1.69339e-11
-8.558e-12
1.59497e-11
-1.23951e-11
1.49599e-11
-1.59688e-11
1.40885e-11
-1.93567e-11
1.34307e-11
-2.26554e-11
1.30544e-11
-2.59727e-11
1.3e-11
-2.94187e-11
1.32787e-11
-3.30971e-11
1.38733e-11
-3.70963e-11
1.4741e-11
-4.14839e-11
1.58185e-11
-4.63017e-11
1.70287e-11
-5.15643e-11
1.82875e-11
-5.72596e-11
1.95107e-11
-6.33503e-11
2.0619e-11
2.15423e-11
-6.9777e-11
-1.78736e-13
1.8001e-12
-3.63285e-13
3.48958e-12
-1.93402e-13
3.05431e-12
5.39419e-13
1.29099e-12
1.9064e-12
-1.04552e-12
3.88827e-12
-3.45706e-12
6.40897e-12
-5.63669e-12
9.36001e-12
-7.41288e-12
1.26195e-11
-8.71388e-12
1.60662e-11
-9.53766e-12
1.95895e-11
-9.92651e-12
2.30958e-11
-9.94764e-12
2.65115e-11
-9.67896e-12
2.97838e-11
-9.1985e-12
3.28798e-11
-8.57596e-12
3.57822e-11
-7.86573e-12
3.84846e-11
-7.10117e-12
4.09844e-11
-6.29053e-12
4.32754e-11
-5.41488e-12
4.53397e-11
-4.42836e-12
4.714e-11
-3.26129e-12
4.8613e-11
-1.82851e-12
4.96672e-11
-4.38032e-14
5.01857e-11
2.16204e-12
5.00333e-11
4.82195e-12
4.90706e-11
7.91153e-12
4.71767e-11
1.13269e-11
4.4282e-11
1.48655e-11
4.04113e-11
1.82212e-11
3.5724e-11
2.10137e-11
3.052e-11
2.28853e-11
2.51856e-11
2.36384e-11
2.00192e-11
2.34367e-11
1.51566e-11
2.26264e-11
1.06848e-11
2.14075e-11
6.62042e-12
2.00158e-11
2.92389e-12
1.8658e-11
-4.8315e-13
1.74968e-11
-3.70424e-12
1.66526e-11
-6.86074e-12
1.62114e-11
-1.00842e-11
1.62237e-11
-1.35069e-11
1.67015e-11
-1.72511e-11
1.76178e-11
-2.14201e-11
1.89102e-11
-2.60901e-11
2.04888e-11
-3.13065e-11
2.22452e-11
-3.7082e-11
2.40627e-11
-4.33976e-11
2.58256e-11
-5.02054e-11
2.74258e-11
2.87687e-11
-5.74327e-11
-4.73047e-14
1.8461e-12
9.78993e-14
3.34334e-12
7.46396e-13
2.40502e-12
2.06917e-12
-3.24547e-14
4.10716e-12
-3.08399e-12
6.81662e-12
-6.16683e-12
1.01009e-11
-8.92123e-12
1.38338e-11
-1.1146e-11
1.78776e-11
-1.27581e-11
2.20974e-11
-1.37578e-11
2.63707e-11
-1.42e-11
3.05942e-11
-1.41712e-11
3.46882e-11
-1.37727e-11
3.85976e-11
-1.31073e-11
4.2291e-11
-1.22686e-11
4.5757e-11
-1.1331e-11
4.89986e-11
-1.03421e-11
5.20249e-11
-9.31648e-12
5.48425e-11
-8.23248e-12
5.74457e-11
-7.03182e-12
5.98056e-11
-5.62136e-12
6.18601e-11
-3.88296e-12
6.35095e-11
-1.69293e-12
6.46182e-11
1.05384e-12
6.50201e-11
4.4205e-12
6.45313e-11
8.40067e-12
6.29731e-11
1.28851e-11
6.02144e-11
1.76239e-11
5.62376e-11
2.21977e-11
5.12209e-11
2.60303e-11
4.55754e-11
2.85311e-11
3.98926e-11
2.93219e-11
3.45775e-11
2.87531e-11
2.97068e-11
2.74985e-11
2.53545e-11
2.57613e-11
2.15049e-11
2.38667e-11
1.80775e-11
2.20862e-11
1.49561e-11
2.06187e-11
1.20061e-11
1.96028e-11
9.07834e-12
1.91393e-11
6.0149e-12
1.92873e-11
2.65938e-12
2.00574e-11
-1.13071e-12
2.14085e-11
-5.47273e-12
2.3253e-11
-1.04506e-11
2.54673e-11
-1.61103e-11
2.7905e-11
-2.24593e-11
3.04112e-11
-2.94679e-11
3.28332e-11
-3.70739e-11
3.50308e-11
3.68823e-11
-4.5188e-11
7.67581e-14
1.76837e-12
5.43132e-13
2.87589e-12
1.6642e-12
1.28332e-12
3.56952e-12
-1.93818e-12
6.26941e-12
-5.78419e-12
9.69434e-12
-9.59206e-12
1.37257e-11
-1.29529e-11
1.82179e-11
-1.56386e-11
2.30162e-11
-1.75566e-11
2.79701e-11
-1.87118e-11
3.29438e-11
-1.91735e-11
3.78235e-11
-1.90503e-11
4.25227e-11
-1.84708e-11
4.6984e-11
-1.75675e-11
5.11795e-11
-1.6463e-11
5.51068e-11
-1.52575e-11
5.87823e-11
-1.40171e-11
6.22318e-11
-1.2766e-11
6.54812e-11
-1.14821e-11
6.8544e-11
-1.0095e-11
7.14067e-11
-8.48429e-12
7.40139e-11
-6.4901e-12
7.62612e-11
-3.93996e-12
7.79967e-11
-6.81332e-13
7.90235e-11
3.39411e-12
7.91058e-11
8.31863e-12
7.79876e-11
1.40034e-11
7.54385e-11
2.01733e-11
7.13482e-11
2.62884e-11
6.58835e-11
3.14957e-11
5.96004e-11
3.48152e-11
5.34723e-11
3.54512e-11
4.80734e-11
3.41531e-11
4.32807e-11
3.22921e-11
3.91599e-11
2.98827e-11
3.56478e-11
2.73791e-11
3.26067e-11
2.51274e-11
2.98723e-11
2.3353e-11
2.72764e-11
2.21987e-11
2.46406e-11
2.17751e-11
2.17781e-11
2.21502e-11
1.85054e-11
2.33309e-11
1.46579e-11
2.5257e-11
1.01038e-11
2.78082e-11
4.75307e-12
3.08186e-11
-1.43779e-12
3.40958e-11
-8.4663e-12
3.74389e-11
-1.62877e-11
4.06536e-11
-2.4821e-11
4.35636e-11
4.60177e-11
-3.39559e-11
1.94648e-13
1.57312e-12
9.67989e-13
2.102e-12
2.54077e-12
-2.89691e-13
5.00967e-12
-4.40719e-12
8.35337e-12
-9.12807e-12
1.24758e-11
-1.37149e-11
1.72354e-11
-1.7713e-11
2.24661e-11
-2.08696e-11
2.79938e-11
-2.30846e-11
3.36504e-11
-2.43682e-11
3.92842e-11
-2.48065e-11
4.47682e-11
-2.45332e-11
5.0007e-11
-2.37083e-11
5.49409e-11
-2.24999e-11
5.95461e-11
-2.10671e-11
6.3832e-11
-1.95427e-11
6.78326e-11
-1.80175e-11
7.15961e-11
-1.65296e-11
7.51734e-11
-1.50597e-11
7.86066e-11
-1.35284e-11
8.19068e-11
-1.17846e-11
8.50317e-11
-9.61489e-12
8.78767e-11
-6.7848e-12
9.02801e-11
-3.08445e-12
9.20213e-11
1.6533e-12
9.28146e-11
7.5258e-12
9.23117e-11
1.45071e-11
9.01337e-11
2.23524e-11
8.59912e-11
3.04323e-11
7.99569e-11
3.75315e-11
7.2729e-11
4.20444e-11
6.60228e-11
4.21583e-11
6.07152e-11
3.94611e-11
5.61208e-11
3.68865e-11
5.23627e-11
3.36406e-11
4.93223e-11
3.04192e-11
4.67866e-11
2.76629e-11
4.45334e-11
2.56061e-11
4.23641e-11
2.4368e-11
4.00723e-11
2.40671e-11
3.74393e-11
2.47838e-11
3.42509e-11
2.65202e-11
3.03177e-11
2.91913e-11
2.54927e-11
3.26341e-11
1.96819e-11
3.66299e-11
1.28476e-11
4.09299e-11
5.00692e-12
4.5279e-11
-3.77482e-12
4.94349e-11
-1.33921e-11
5.31812e-11
5.63359e-11
-2.3709e-11
3.0634e-13
1.26652e-12
1.36866e-12
1.03998e-12
3.37628e-12
-2.29699e-12
6.39091e-12
-7.42164e-12
1.03621e-11
-1.30993e-11
1.51682e-11
-1.85214e-11
2.06448e-11
-2.31901e-11
2.66039e-11
-2.68292e-11
3.28504e-11
-2.93312e-11
3.91954e-11
-3.07128e-11
4.54675e-11
-3.10777e-11
5.15227e-11
-3.05872e-11
5.72534e-11
-2.94377e-11
6.25949e-11
-2.78403e-11
6.75281e-11
-2.59996e-11
7.20764e-11
-2.40907e-11
7.62961e-11
-2.22372e-11
8.02622e-11
-2.04957e-11
8.40575e-11
-1.88551e-11
8.77632e-11
-1.7234e-11
9.14272e-11
-1.54484e-11
9.50265e-11
-1.3214e-11
9.84595e-11
-1.02176e-11
1.01566e-10
-6.19029e-12
1.0412e-10
-9.00508e-13
1.05808e-10
5.83868e-12
1.06195e-10
1.41216e-11
1.04707e-10
2.38421e-11
1.00741e-10
3.43998e-11
9.40949e-11
4.41795e-11
8.54655e-11
5.06747e-11
7.80048e-11
4.96192e-11
7.32179e-11
4.42476e-11
6.89704e-11
4.11335e-11
6.57074e-11
3.69031e-11
6.32703e-11
3.28561e-11
6.13467e-11
2.95866e-11
5.96487e-11
2.73043e-11
5.79615e-11
2.60556e-11
5.60524e-11
2.59767e-11
5.36652e-11
2.71715e-11
5.05493e-11
2.96369e-11
4.64872e-11
3.32542e-11
4.13156e-11
3.78061e-11
3.49385e-11
4.3007e-11
2.73285e-11
4.85396e-11
1.85223e-11
5.40849e-11
8.61211e-12
5.93454e-11
-2.26602e-12
6.40606e-11
6.80159e-11
-1.3944e-11
4.08791e-13
8.57881e-13
1.75261e-12
-3.02707e-13
4.18218e-12
-4.7257e-12
7.72987e-12
-1.09689e-11
1.2319e-11
-1.76886e-11
1.78044e-11
-2.40073e-11
2.3999e-11
-2.93853e-11
3.06926e-11
-3.35233e-11
3.76671e-11
-3.63059e-11
4.47095e-11
-3.77549e-11
5.16238e-11
-3.79914e-11
5.82433e-11
-3.7206e-11
6.44424e-11
-3.56362e-11
7.01473e-11
-3.35447e-11
7.53419e-11
-3.11939e-11
8.00663e-11
-2.88149e-11
8.44039e-11
-2.65746e-11
8.84606e-11
-2.45522e-11
9.23555e-11
-2.27496e-11
9.62233e-11
-2.11014e-11
1.00165e-10
-1.93895e-11
1.04179e-10
-1.72281e-11
1.08162e-10
-1.42006e-11
1.1197e-10
-9.99723e-12
1.15407e-10
-4.33656e-12
1.18178e-10
3.06928e-12
1.19812e-10
1.24887e-11
1.1956e-10
2.4097e-11
1.16345e-10
3.76166e-11
1.09304e-10
5.12212e-11
9.86744e-11
6.13043e-11
9.02268e-11
5.80663e-11
8.68237e-11
4.765e-11
8.30358e-11
4.49208e-11
8.03344e-11
3.96044e-11
7.85526e-11
3.46383e-11
7.72691e-11
3.08709e-11
7.61512e-11
2.8423e-11
7.4972e-11
2.72354e-11
7.34601e-11
2.74889e-11
7.13119e-11
2.93199e-11
6.82346e-11
3.27144e-11
6.39784e-11
3.75104e-11
5.83628e-11
4.34217e-11
5.12909e-11
5.00787e-11
4.27497e-11
5.70808e-11
3.28017e-11
6.40333e-11
2.15727e-11
7.05755e-11
9.23688e-12
7.63983e-11
8.12534e-11
-3.99834e-12
5.11212e-13
3.47288e-13
2.1281e-12
-1.91791e-12
4.97127e-12
-7.56771e-12
9.04572e-12
-1.50428e-11
1.42514e-11
-2.28943e-11
2.04217e-11
-3.01782e-11
2.73491e-11
-3.63133e-11
3.48014e-11
-4.09761e-11
4.25359e-11
-4.40406e-11
5.0312e-11
-4.55309e-11
5.79035e-11
-4.55828e-11
6.51132e-11
-4.44156e-11
7.17887e-11
-4.23116e-11
7.78391e-11
-3.9595e-11
8.32478e-11
-3.66024e-11
8.80735e-11
-3.36403e-11
9.24339e-11
-3.09344e-11
9.64687e-11
-2.85864e-11
1.00334e-10
-2.66139e-11
1.04236e-10
-2.50033e-11
1.08354e-10
-2.35069e-11
1.12702e-10
-2.15754e-11
1.17144e-10
-1.86421e-11
1.21564e-10
-1.44167e-11
1.25851e-10
-8.62268e-12
1.29805e-10
-8.82435e-13
1.33021e-10
9.27449e-12
1.34743e-10
2.23769e-11
1.33563e-10
3.87972e-11
1.27217e-10
5.75672e-11
1.13691e-10
7.48297e-11
1.04522e-10
6.72349e-11
1.0313e-10
4.90415e-11
1.00109e-10
4.7941e-11
9.772e-11
4.19945e-11
9.63244e-11
3.60352e-11
9.55893e-11
3.16073e-11
9.50543e-11
2.89589e-11
9.4375e-11
2.79152e-11
9.32341e-11
2.86298e-11
9.12754e-11
3.12783e-11
8.81628e-11
3.58265e-11
8.36138e-11
4.2059e-11
7.74259e-11
4.96092e-11
6.95017e-11
5.80028e-11
5.98454e-11
6.67374e-11
4.85509e-11
7.53287e-11
3.57851e-11
8.3343e-11
2.17689e-11
9.04166e-11
9.62656e-11
6.75861e-12
6.12887e-13
-2.64589e-13
2.49964e-12
-3.80283e-12
5.75214e-12
-1.08191e-11
1.03515e-11
-1.96417e-11
1.6178e-11
-2.87208e-11
2.30476e-11
-3.7048e-11
3.07347e-11
-4.40008e-11
3.8987e-11
-4.92287e-11
4.75369e-11
-5.25908e-11
5.61134e-11
-5.41077e-11
6.44537e-11
-5.39235e-11
7.23201e-11
-5.22823e-11
7.95204e-11
-4.95121e-11
8.59335e-11
-4.60081e-11
9.15336e-11
-4.22021e-11
9.63994e-11
-3.85055e-11
1.00695e-10
-3.52293e-11
1.04597e-10
-3.24875e-11
1.08289e-10
-3.03045e-11
1.12082e-10
-2.8796e-11
1.1627e-10
-2.76939e-11
1.20851e-10
-2.61559e-11
1.25581e-10
-2.33714e-11
1.30383e-10
-1.92178e-11
1.35311e-10
-1.35495e-11
1.40358e-10
-5.92769e-12
1.45338e-10
4.2955e-12
1.49621e-10
1.80949e-11
1.52162e-10
3.6256e-11
1.5078e-10
5.89486e-11
1.33489e-10
9.21206e-11
1.22796e-10
7.79269e-11
1.26341e-10
4.54964e-11
1.21646e-10
5.26367e-11
1.18611e-10
4.50316e-11
1.16991e-10
3.76568e-11
1.17256e-10
3.13434e-11
1.17479e-10
2.87369e-11
1.17226e-10
2.81675e-11
1.16323e-10
2.95333e-11
1.14408e-10
3.31924e-11
1.11118e-10
3.91153e-11
1.06129e-10
4.70469e-11
9.92039e-11
5.65343e-11
9.0237e-11
6.69698e-11
7.9249e-11
7.77262e-11
6.63694e-11
8.82097e-11
5.18141e-11
9.79e-11
3.58609e-11
1.06372e-10
1.13301e-10
1.88268e-11
7.1425e-13
-9.77672e-13
2.86798e-12
-5.95498e-12
6.52589e-12
-1.4476e-11
1.16489e-11
-2.47643e-11
1.81021e-11
-3.51739e-11
2.56888e-11
-4.46348e-11
3.41704e-11
-5.24825e-11
4.32778e-11
-5.83362e-11
5.27208e-11
-6.20341e-11
6.21962e-11
-6.35836e-11
7.13994e-11
-6.31271e-11
8.00401e-11
-6.09233e-11
8.78688e-11
-5.73407e-11
9.47126e-11
-5.28514e-11
1.00517e-10
-4.80058e-11
1.05377e-10
-4.33643e-11
1.09528e-10
-3.9379e-11
1.13195e-10
-3.61533e-11
1.16551e-10
-3.36596e-11
1.20077e-10
-3.23216e-11
1.24251e-10
-3.18668e-11
1.28988e-10
-3.08922e-11
1.33763e-10
-2.81454e-11
1.38528e-10
-2.39819e-11
1.43585e-10
-1.86051e-11
1.49188e-10
-1.15302e-11
1.55694e-10
-2.20979e-12
1.63213e-10
1.05757e-11
1.71616e-10
2.78527e-11
1.7781e-10
5.27541e-11
1.72862e-10
9.70678e-11
1.45276e-10
1.05513e-10
1.53254e-10
3.75198e-11
1.4373e-10
6.21614e-11
1.41432e-10
4.73309e-11
1.41926e-10
3.71645e-11
1.44877e-10
2.8393e-11
1.45324e-10
2.82906e-11
1.44891e-10
2.86008e-11
1.43736e-10
3.06873e-11
1.41479e-10
3.54488e-11
1.37741e-10
4.28523e-11
1.32112e-10
5.26748e-11
1.24254e-10
6.43931e-11
1.14026e-10
7.7198e-11
1.01458e-10
9.02952e-11
8.67175e-11
1.02952e-10
7.00783e-11
1.14541e-10
5.18872e-11
1.24564e-10
1.32651e-10
3.25368e-11
8.14178e-13
-1.79081e-12
3.22915e-12
-8.3689e-12
7.28432e-12
-1.85306e-11
1.29246e-11
-3.04042e-11
2.00056e-11
-4.22545e-11
2.83245e-11
-5.29533e-11
3.76363e-11
-6.17938e-11
4.76616e-11
-6.83614e-11
5.80925e-11
-7.2465e-11
6.85965e-11
-7.40878e-11
7.88236e-11
-7.33544e-11
8.84206e-11
-7.05202e-11
9.70588e-11
-6.59782e-11
1.04481e-10
-6.02722e-11
1.10567e-10
-5.40902e-11
1.15401e-10
-4.81969e-11
1.19314e-10
-4.3291e-11
1.22637e-10
-3.94751e-11
1.25508e-10
-3.65304e-11
1.28566e-10
-3.53784e-11
1.32713e-10
-3.60138e-11
1.37675e-10
-3.58531e-11
1.42293e-10
-3.27622e-11
1.46468e-10
-2.81569e-11
1.50713e-10
-2.28489e-11
1.55721e-10
-1.65388e-11
1.62047e-10
-8.53588e-12
1.71286e-10
1.33667e-12
1.88629e-10
1.05096e-11
2.1874e-10
2.26432e-11
2.26877e-10
8.89308e-11
2.58403e-10
7.39875e-11
1.50731e-10
1.45193e-10
1.7303e-10
3.98631e-11
1.72314e-10
4.80484e-11
1.8177e-10
2.77093e-11
1.81964e-10
2.81993e-11
1.80055e-10
3.01999e-11
1.78277e-10
3.03782e-11
1.7604e-10
3.29241e-11
1.72869e-10
3.86181e-11
1.68369e-10
4.73516e-11
1.61923e-10
5.91208e-11
1.52956e-10
7.33607e-11
1.41251e-10
8.89033e-11
1.26836e-10
1.04712e-10
1.09922e-10
1.19867e-10
9.08555e-11
1.33608e-10
7.0069e-11
1.4535e-10
1.54671e-10
4.80489e-11
9.10125e-13
-2.70024e-12
3.57429e-12
-1.10326e-11
8.00945e-12
-2.29655e-11
1.41495e-11
-3.65438e-11
2.18474e-11
-4.99517e-11
3.0902e-11
-6.2007e-11
4.10706e-11
-7.19616e-11
5.20737e-11
-7.93639e-11
6.35952e-11
-8.39863e-11
7.52812e-11
-8.57736e-11
8.67402e-11
-8.48129e-11
9.75512e-11
-8.13302e-11
1.07286e-10
-7.5712e-11
1.15562e-10
-6.85465e-11
1.22127e-10
-6.06529e-11
1.26984e-10
-5.30526e-11
1.30547e-10
-4.68528e-11
1.33262e-10
-4.21893e-11
1.35427e-10
-3.86952e-11
1.37935e-10
-3.78852e-11
1.42048e-10
-4.01264e-11
1.47502e-10
-4.13066e-11
1.52025e-10
-3.72843e-11
1.55334e-10
-3.14657e-11
1.57334e-10
-2.485e-11
1.58234e-10
-1.74383e-11
1.59643e-10
-9.94548e-12
1.62331e-10
-1.35114e-12
1.60433e-10
1.24076e-11
1.48231e-10
3.48462e-11
2.14255e-10
2.29073e-11
2.48613e-10
3.96303e-11
2.90985e-10
1.02821e-10
3.08085e-10
2.27635e-11
2.8571e-10
7.04237e-11
2.49833e-10
6.3587e-11
2.308e-10
4.72321e-11
2.22292e-10
3.8708e-11
2.17135e-10
3.55352e-11
2.12746e-10
3.73124e-11
2.0816e-10
4.32035e-11
2.02832e-10
5.26793e-11
1.9564e-10
6.63124e-11
1.85521e-10
8.34804e-11
1.72177e-10
1.02248e-10
1.55648e-10
1.21242e-10
1.3621e-10
1.39305e-10
1.14315e-10
1.55503e-10
9.05041e-11
1.6916e-10
1.79794e-10
6.53807e-11
9.98126e-13
-3.69807e-12
3.89002e-12
-1.39245e-11
8.67415e-12
-2.77494e-11
1.52794e-11
-4.31484e-11
2.35632e-11
-5.82345e-11
3.33349e-11
-7.17776e-11
4.43654e-11
-8.2991e-11
5.63875e-11
-9.13852e-11
6.90921e-11
-9.66902e-11
8.21203e-11
-9.88009e-11
9.50539e-11
-9.77453e-11
1.07412e-10
-9.36869e-11
1.18662e-10
-8.69603e-11
1.28256e-10
-7.81383e-11
1.35722e-10
-6.81176e-11
1.40819e-10
-5.81487e-11
1.44056e-10
-5.00892e-11
1.4594e-10
-4.40721e-11
1.46734e-10
-3.94885e-11
1.48559e-10
-3.971e-11
1.52848e-10
-4.44146e-11
1.58732e-10
-4.71905e-11
1.63781e-10
-4.23336e-11
1.66702e-10
-3.43863e-11
1.68958e-10
-2.71069e-11
1.66326e-10
-1.48066e-11
1.6662e-10
-1.02396e-11
1.72507e-10
-7.23747e-12
1.83819e-10
1.09607e-12
2.05084e-10
1.35824e-11
2.16969e-10
1.10231e-11
2.44292e-10
1.2308e-11
2.08257e-10
1.38857e-10
2.27502e-10
3.51925e-12
2.5007e-10
4.78559e-11
2.5349e-10
6.01667e-11
2.56042e-10
4.46797e-11
2.56982e-10
3.77678e-11
2.55352e-10
3.71643e-11
2.51006e-10
4.16583e-11
2.45806e-10
4.84026e-11
2.40458e-10
5.80272e-11
2.33174e-10
7.35978e-11
2.22092e-10
9.45631e-11
2.07028e-10
1.17312e-10
1.8813e-10
1.40141e-10
1.65777e-10
1.61658e-10
1.40571e-10
1.80708e-10
1.13218e-10
1.96512e-10
2.08556e-10
8.44552e-11
1.07328e-12
-4.77139e-12
4.15958e-12
-1.7011e-11
9.24433e-12
-3.28339e-11
1.62577e-11
-5.0161e-11
2.50692e-11
-6.70447e-11
3.55075e-11
-8.22145e-11
4.73679e-11
-9.48502e-11
6.04106e-11
-1.04427e-10
7.43533e-11
-1.10632e-10
8.88573e-11
-1.13304e-10
1.03508e-10
-1.12394e-10
1.17795e-10
-1.07972e-10
1.31099e-10
-1.00263e-10
1.42692e-10
-8.97306e-11
1.51819e-10
-7.72437e-11
1.57765e-10
-6.40934e-11
1.60738e-10
-5.30621e-11
1.61388e-10
-4.47217e-11
1.60313e-10
-3.84131e-11
1.60695e-10
-4.00911e-11
1.66802e-10
-5.05213e-11
1.72928e-10
-5.33161e-11
1.76552e-10
-4.59589e-11
1.7934e-10
-3.71743e-11
1.83629e-10
-3.13962e-11
1.82638e-10
-1.38155e-11
1.77504e-10
-5.10524e-12
1.82234e-10
-1.19673e-11
1.9136e-10
-8.02929e-12
2.02259e-10
2.68512e-12
2.1361e-10
-3.26803e-13
1.97193e-10
2.87255e-11
2.39726e-10
9.63243e-11
2.26306e-10
1.69392e-11
2.6254e-10
1.16217e-11
2.79671e-10
4.30353e-11
2.90119e-10
3.42313e-11
2.97551e-10
3.03359e-11
2.97713e-10
3.70015e-11
2.91502e-10
4.78691e-11
2.85434e-10
5.44702e-11
2.81196e-10
6.22655e-11
2.7487e-10
7.99241e-11
2.63035e-10
1.06399e-10
2.46128e-10
1.34219e-10
2.24574e-10
1.61695e-10
1.98864e-10
1.87367e-10
1.69758e-10
2.09813e-10
1.38226e-10
2.28044e-10
2.41614e-10
1.05169e-10
1.13026e-12
-5.90184e-12
4.36481e-12
-2.02457e-11
9.68291e-12
-3.81516e-11
1.70224e-11
-5.74996e-11
2.62709e-11
-7.6292e-11
3.72839e-11
-9.32262e-11
4.98903e-11
-1.07455e-10
6.38913e-11
-1.18427e-10
7.90517e-11
-1.25791e-10
9.50839e-11
-1.29334e-10
1.11622e-10
-1.28931e-10
1.28186e-10
-1.24535e-10
1.4414e-10
-1.16215e-10
1.58633e-10
-1.04224e-10
1.70574e-10
-8.91843e-11
1.78801e-10
-7.23205e-11
1.82452e-10
-5.67123e-11
1.81606e-10
-4.38756e-11
1.77524e-10
-3.433e-11
1.74305e-10
-3.68716e-11
1.82127e-10
-5.8344e-11
1.93396e-10
-6.45853e-11
1.96244e-10
-4.88066e-11
1.95408e-10
-3.63385e-11
1.93072e-10
-2.9061e-11
1.95509e-10
-1.62523e-11
1.96762e-10
-6.35759e-12
2.00668e-10
-1.58725e-11
2.08199e-10
-1.55598e-11
2.20393e-10
-9.50775e-12
2.22282e-10
-2.21505e-12
2.29335e-10
2.16737e-11
2.72148e-10
5.35116e-11
2.69735e-10
1.93525e-11
2.81926e-10
-5.69695e-13
3.14424e-10
1.05371e-11
3.32932e-10
1.5723e-11
3.43613e-10
1.96538e-11
3.41707e-10
3.89077e-11
3.3246e-10
5.71154e-11
3.26173e-10
6.07577e-11
3.25312e-10
6.31263e-11
3.21621e-10
8.36154e-11
3.08982e-10
1.19039e-10
2.89895e-10
1.53306e-10
2.65336e-10
1.86253e-10
2.35789e-10
2.16913e-10
2.02108e-10
2.43494e-10
1.65616e-10
2.64537e-10
2.79742e-10
1.27489e-10
1.16411e-12
-7.06612e-12
4.48892e-12
-2.35704e-11
9.95551e-12
-4.36177e-11
1.75149e-11
-6.50582e-11
2.70771e-11
-8.58531e-11
3.85278e-11
-1.04676e-10
5.17346e-11
-1.20661e-10
6.65465e-11
-1.33237e-10
8.27887e-11
-1.42032e-10
1.00249e-10
-1.46793e-10
1.18656e-10
-1.47337e-10
1.3764e-10
-1.43519e-10
1.5667e-10
-1.35245e-10
1.74961e-10
-1.22515e-10
1.91291e-10
-1.05515e-10
2.03849e-10
-8.48784e-11
2.10469e-10
-6.33322e-11
2.1049e-10
-4.38964e-11
2.0377e-10
-2.76089e-11
1.9406e-10
-2.71619e-11
1.9559e-10
-5.98738e-11
2.10745e-10
-7.97405e-11
2.1973e-10
-5.77907e-11
2.23146e-10
-3.97552e-11
2.18436e-10
-2.43507e-11
2.17951e-10
-1.57675e-11
2.27996e-10
-1.64023e-11
2.3093e-10
-1.88067e-11
2.35736e-10
-2.03657e-11
2.43307e-10
-1.70776e-11
2.49563e-10
-8.46953e-12
2.66349e-10
4.88873e-12
2.96452e-10
2.3409e-11
3.13258e-10
2.54639e-12
3.24742e-10
-1.20539e-11
3.48462e-10
-1.31831e-11
3.73206e-10
-9.02217e-12
3.8777e-10
5.09014e-12
3.88303e-10
3.83741e-11
3.75726e-10
6.9693e-11
3.70588e-10
6.58952e-11
3.74593e-10
5.9121e-11
3.75283e-10
8.29258e-11
3.60479e-10
1.33842e-10
3.38697e-10
1.75087e-10
3.10823e-10
2.14126e-10
2.76936e-10
2.50799e-10
2.38022e-10
2.82408e-10
1.95664e-10
3.06896e-10
3.23855e-10
1.51553e-10
1.17118e-12
-8.23736e-12
4.51979e-12
-2.69188e-11
1.00372e-11
-4.91346e-11
1.76919e-11
-7.27122e-11
2.74177e-11
-9.55781e-11
3.91299e-11
-1.16387e-10
5.27321e-11
-1.34262e-10
6.81186e-11
-1.48623e-10
8.51728e-11
-1.59085e-10
1.03761e-10
-1.65381e-10
1.23722e-10
-1.67298e-10
1.44839e-10
-1.64635e-10
1.66792e-10
-1.57199e-10
1.89087e-10
-1.44811e-10
2.10881e-10
-1.2731e-10
2.30418e-10
-1.04416e-10
2.43465e-10
-7.63792e-11
2.49176e-10
-4.96071e-11
2.4216e-10
-2.05926e-11
2.26246e-10
-1.12468e-11
2.18792e-10
-5.24192e-11
2.33186e-10
-9.41348e-11
2.52576e-10
-7.71797e-11
2.52967e-10
-4.01463e-11
2.43647e-10
-1.50303e-11
2.4281e-10
-1.49314e-11
2.51642e-10
-2.52346e-11
2.59566e-10
-2.67321e-11
2.69594e-10
-3.03932e-11
2.80182e-10
-2.7664e-11
2.90718e-10
-1.90042e-11
3.06195e-10
-1.05877e-11
3.35043e-10
-5.43792e-12
3.57497e-10
-1.99075e-11
3.77913e-10
-3.24708e-11
4.04829e-10
-4.00992e-11
4.22827e-10
-2.70201e-11
4.37348e-10
-9.43126e-12
4.44504e-10
3.12189e-11
4.3521e-10
7.89867e-11
4.24469e-10
7.66359e-11
4.34389e-10
4.9201e-11
4.38306e-10
7.90085e-11
4.17661e-10
1.54486e-10
3.93046e-10
1.99702e-10
3.61458e-10
2.45713e-10
3.22727e-10
2.8953e-10
2.77909e-10
3.27227e-10
2.28825e-10
3.5598e-10
3.74959e-10
1.77724e-10
1.15006e-12
-9.38736e-12
4.45305e-12
-3.02216e-11
9.91905e-12
-5.46002e-11
1.7537e-11
-8.03296e-11
2.72631e-11
-1.05304e-10
3.90376e-11
-1.28161e-10
5.27919e-11
-1.48016e-10
6.8453e-11
-1.64283e-10
8.59452e-11
-1.76577e-10
1.05191e-10
-1.84627e-10
1.26107e-10
-1.88214e-10
1.48593e-10
-1.87122e-10
1.72524e-10
-1.81131e-10
1.97749e-10
-1.70037e-10
2.2396e-10
-1.53522e-10
2.50784e-10
-1.3124e-10
2.75527e-10
-1.01122e-10
2.87634e-10
-6.17135e-11
2.90809e-10
-2.3768e-11
2.76615e-10
2.94816e-12
2.54683e-10
-3.04869e-11
2.63858e-10
-1.03309e-10
2.79211e-10
-9.25313e-11
2.7118e-10
-3.21149e-11
2.55338e-10
8.10582e-13
2.5633e-10
-1.59241e-11
2.67894e-10
-3.67998e-11
2.8794e-10
-4.67788e-11
3.08392e-10
-5.08449e-11
3.30391e-10
-4.96613e-11
3.5188e-10
-4.0492e-11
3.71884e-10
-3.05906e-11
3.88139e-10
-2.1693e-11
4.07813e-10
-3.95819e-11
4.29274e-10
-5.39328e-11
4.47327e-10
-5.81519e-11
4.68365e-10
-4.80579e-11
4.90432e-10
-3.1497e-11
5.12531e-10
9.12008e-12
5.15455e-10
7.60632e-11
4.86401e-10
1.05689e-10
5.00626e-10
3.49756e-11
5.04149e-10
7.54845e-11
4.81164e-10
1.7747e-10
4.52015e-10
2.28849e-10
4.17327e-10
2.80401e-10
3.73403e-10
3.33454e-10
3.22204e-10
3.78426e-10
2.661e-10
4.12086e-10
4.33889e-10
2.07171e-10
1.10217e-12
-1.04895e-11
4.29427e-12
-3.34137e-11
9.61263e-12
-5.99184e-11
1.70682e-11
-8.77849e-11
2.66372e-11
-1.14872e-10
3.82778e-11
-1.39801e-10
5.1938e-11
-1.61675e-10
6.75609e-11
-1.79905e-10
8.50882e-11
-1.94104e-10
1.04462e-10
-2.04001e-10
1.25621e-10
-2.09373e-10
1.48492e-10
-2.09995e-10
1.72998e-10
-2.05638e-10
1.99053e-10
-1.96093e-10
2.27072e-10
-1.81542e-10
2.57096e-10
-1.61264e-10
2.90364e-10
-1.3439e-10
3.17971e-10
-8.93207e-11
3.33829e-10
-3.9626e-11
3.42884e-10
-6.10602e-12
3.14377e-10
-1.97826e-12
2.94261e-10
-8.31915e-11
2.96245e-10
-9.45145e-11
2.70299e-10
-6.169e-12
2.51074e-10
2.00352e-11
2.65366e-10
-3.02169e-11
2.92406e-10
-6.38408e-11
3.22388e-10
-7.67613e-11
3.54139e-10
-8.25947e-11
3.83108e-10
-7.86303e-11
4.127e-10
-7.00827e-11
4.37198e-10
-5.50884e-11
4.44757e-10
-2.92526e-11
4.67762e-10
-6.25876e-11
4.84646e-10
-7.08164e-11
4.97492e-10
-7.09971e-11
5.09622e-10
-6.01877e-11
5.29732e-10
-5.16053e-11
5.73011e-10
-3.41582e-11
5.92886e-10
5.61873e-11
5.9317e-10
1.05404e-10
5.70561e-10
5.75839e-11
5.82947e-10
6.30975e-11
5.39905e-10
2.20511e-10
5.19756e-10
2.48998e-10
4.80534e-10
3.19623e-10
4.29716e-10
3.84273e-10
3.71799e-10
4.36344e-10
3.08487e-10
4.75399e-10
5.01172e-10
2.41205e-10
1.03199e-12
-1.15215e-11
4.05939e-12
-3.64414e-11
9.15094e-12
-6.50101e-11
1.63405e-11
-9.49743e-11
2.5621e-11
-1.24152e-10
3.6962e-11
-1.51141e-10
5.0318e-11
-1.75031e-10
6.5634e-11
-1.95221e-10
8.285e-11
-2.1132e-10
1.019e-10
-2.23051e-10
1.22699e-10
-2.30172e-10
1.45122e-10
-2.32419e-10
1.6898e-10
-2.29496e-10
1.94088e-10
-2.212e-10
2.19797e-10
-2.07252e-10
2.46517e-10
-1.87984e-10
2.80696e-10
-1.68569e-10
3.25168e-10
-1.33793e-10
3.34635e-10
-4.90926e-11
3.31813e-10
-3.28313e-12
3.15175e-10
1.46607e-11
3.22314e-10
-9.03298e-11
2.55297e-10
-2.74964e-11
2.52853e-10
-3.72499e-12
2.54466e-10
1.84213e-11
2.95383e-10
-7.11343e-11
3.39032e-10
-1.07489e-10
3.752e-10
-1.12929e-10
4.04363e-10
-1.11758e-10
4.35631e-10
-1.09898e-10
4.67909e-10
-1.0236e-10
5.01959e-10
-8.91396e-11
5.33822e-10
-6.11159e-11
5.36932e-10
-6.56985e-11
5.44467e-10
-7.83505e-11
5.48683e-10
-7.52119e-11
5.42697e-10
-5.42003e-11
5.36876e-10
-4.57833e-11
5.17922e-10
-1.52037e-11
5.68561e-10
5.5481e-12
5.81727e-10
9.22367e-11