/*--------------------------------*- C++ -*----------------------------------*\
| =========                 |                                                 |
| \\      /  F ield         | OpenFOAM: The Open Source CFD Toolbox           |
|  \\    /   O peration     | Version:  2.4.0                                 |
|   \\  /    A nd           | Web:      www.OpenFOAM.org                      |
|    \\/     M anipulation  |                                                 |
\*---------------------------------------------------------------------------*/
FoamFile
{
    version     2.0;
    format      ascii;
    class       volScalarField;
    location    "0.176";
    object      p;
}
// * * * * * * * * * * * * * * * * * * * * * * * * * * * * * * * * * * * * * //

dimensions      [1 -1 -2 0 0 0 0];

internalField   nonuniform List<scalar> 
60000
(
98.3039
98.3084
98.3177
98.3319
98.351
98.3751
98.4043
98.4387
98.4784
98.5236
98.5745
98.6312
98.694
98.7632
98.839
98.9216
99.0115
99.1089
99.2143
99.3281
99.4506
99.5824
99.724
99.8758
100.039
100.213
100.399
100.599
100.812
101.039
101.282
101.541
101.817
102.111
102.425
102.759
103.115
103.494
103.898
104.327
104.785
105.271
105.789
106.339
106.925
107.547
108.209
108.912
109.66
110.455
111.299
112.195
113.147
114.159
115.232
116.371
117.58
118.863
120.223
121.666
123.195
124.816
126.532
128.35
130.275
132.311
134.464
136.741
139.146
141.686
144.366
147.192
150.17
153.306
156.605
160.072
163.713
167.531
171.532
175.718
180.092
184.656
189.411
194.357
199.492
204.814
210.319
216.001
221.853
227.866
234.03
240.333
246.763
253.304
259.942
266.66
273.442
280.27
287.13
294.006
96.3409
96.3455
96.3548
96.3689
96.388
96.4121
96.4412
96.4756
96.5153
96.5604
96.6113
96.668
96.7308
96.7999
96.8756
96.9582
97.048
97.1454
97.2507
97.3643
97.4868
97.6185
97.7599
97.9116
98.0743
98.2484
98.4347
98.6338
98.8466
99.0739
99.3164
99.5751
99.851
100.145
100.459
100.793
101.148
101.527
101.931
102.36
102.817
103.303
103.82
104.37
104.955
105.577
106.239
106.942
107.689
108.483
109.326
110.222
111.174
112.184
113.257
114.396
115.604
116.886
118.245
119.687
121.215
122.835
124.551
126.368
128.291
130.326
132.479
134.754
137.158
139.697
142.376
145.201
148.178
151.313
154.611
158.078
161.718
165.536
169.536
173.722
178.096
182.661
187.416
192.363
197.499
202.823
208.329
214.013
219.867
225.883
232.049
238.356
244.788
251.332
257.973
264.694
271.477
278.307
285.168
292.046
94.3768
94.3813
94.3906
94.4048
94.4238
94.4479
94.477
94.5112
94.5509
94.5959
94.6467
94.7033
94.766
94.835
94.9105
94.993
95.0827
95.1799
95.285
95.3985
95.5207
95.6522
95.7934
95.9449
96.1072
96.281
96.467
96.6658
96.8783
97.1051
97.3472
97.6056
97.881
98.1747
98.4877
98.8211
99.1763
99.5545
99.9572
100.386
100.842
101.327
101.844
102.393
102.977
103.598
104.258
104.96
105.706
106.499
107.341
108.236
109.186
110.195
111.266
112.403
113.609
114.889
116.247
117.686
119.212
120.83
122.543
124.358
126.278
128.311
130.461
132.734
135.135
137.671
140.347
143.169
146.144
149.276
152.571
156.035
159.672
163.488
167.486
171.67
176.043
180.607
185.362
190.309
195.446
200.77
206.279
211.965
217.823
223.843
230.015
236.328
242.767
249.319
255.968
262.697
269.49
276.328
283.198
290.085
92.4115
92.416
92.4253
92.4394
92.4584
92.4823
92.5114
92.5456
92.5851
92.63
92.6806
92.7371
92.7996
92.8684
92.9438
93.026
93.1154
93.2124
93.3173
93.4304
93.5523
93.6834
93.8243
93.9753
94.1373
94.3106
94.4961
94.6944
94.9063
95.1325
95.374
95.6317
95.9064
96.1993
96.5114
96.844
97.1983
97.5755
97.9771
98.4046
98.8596
99.3437
99.8588
100.407
100.989
101.609
102.267
102.967
103.711
104.502
105.342
106.235
107.182
108.189
109.257
110.391
111.595
112.872
114.227
115.663
117.186
118.799
120.509
122.319
124.236
126.265
128.41
130.678
133.075
135.606
138.278
141.095
144.065
147.192
150.483
153.942
157.576
161.387
165.382
169.563
173.933
178.494
183.248
188.194
193.331
198.658
204.169
209.859
215.722
221.748
227.928
234.25
240.7
247.263
253.925
260.668
267.475
274.328
281.214
288.115
90.445
90.4495
90.4587
90.4728
90.4917
90.5156
90.5445
90.5785
90.6179
90.6627
90.7131
90.7694
90.8316
90.9002
90.9753
91.0572
91.1463
91.2429
91.3474
91.4602
91.5816
91.7123
91.8526
92.0031
92.1644
92.3372
92.522
92.7196
92.9307
93.1561
93.3967
93.6534
93.9272
94.219
94.5301
94.8615
95.2144
95.5903
95.9905
96.4165
96.8699
97.3523
97.8655
98.4114
98.992
99.6094
100.266
100.963
101.705
102.493
103.33
104.219
105.164
106.167
107.232
108.362
109.562
110.835
112.185
113.617
115.135
116.744
118.448
120.253
122.164
124.187
126.327
128.589
130.979
133.504
136.169
138.98
141.943
145.063
148.348
151.801
155.428
159.234
163.223
167.399
171.766
176.324
181.075
186.02
191.158
196.485
201.999
207.695
213.564
219.599
225.789
232.123
238.587
245.166
251.846
258.608
265.434
272.308
279.214
286.136
88.4773
88.4817
88.4909
88.5049
88.5238
88.5475
88.5763
88.6102
88.6494
88.694
88.7441
88.8001
88.8621
88.9303
89.0051
89.0867
89.1753
89.2715
89.3755
89.4877
89.6086
89.7386
89.8783
90.0282
90.1888
90.3607
90.5447
90.7413
90.9515
91.1759
91.4154
91.6709
91.9434
92.234
92.5436
92.8735
93.2248
93.599
93.9974
94.4215
94.8728
95.3531
95.864
96.4075
96.9855
97.6001
98.2536
98.9482
99.6865
100.471
101.305
102.19
103.131
104.129
105.19
106.316
107.51
108.778
110.123
111.549
113.06
114.663
116.361
118.159
120.063
122.078
124.21
126.465
128.847
131.363
134.02
136.823
139.777
142.889
146.165
149.61
153.229
157.028
161.011
165.18
169.541
174.095
178.843
183.787
188.924
194.253
199.771
205.472
211.349
217.394
223.597
229.946
236.428
243.028
249.729
256.515
263.367
270.267
277.2
284.149
86.5084
86.5128
86.522
86.5359
86.5546
86.5782
86.6068
86.6405
86.6795
86.7238
86.7737
86.8294
86.891
86.9589
87.0332
87.1143
87.2025
87.2981
87.4015
87.5131
87.6333
87.7626
87.9015
88.0505
88.2102
88.3812
88.5641
88.7597
88.9687
89.1918
89.43
89.6841
89.9551
90.244
90.552
90.88
91.2295
91.6016
91.9978
92.4196
92.8685
93.3461
93.8543
94.3948
94.9697
95.581
96.2309
96.9219
97.6562
98.4366
99.2658
100.147
101.082
102.076
103.131
104.251
105.44
106.701
108.039
109.458
110.962
112.557
114.247
116.037
117.933
119.939
122.061
124.306
126.679
129.185
131.831
134.624
137.568
140.67
143.935
147.37
150.98
154.769
158.743
162.905
167.259
171.808
176.552
181.493
186.63
191.961
197.482
203.19
209.076
215.133
221.352
227.719
234.222
240.846
247.574
254.389
261.272
268.204
275.169
282.151
84.5383
84.5427
84.5518
84.5656
84.5842
84.6077
84.6361
84.6696
84.7082
84.7523
84.8018
84.8571
84.9184
84.9858
85.0596
85.1402
85.2278
85.3227
85.4255
85.5363
85.6557
85.7842
85.9222
86.0702
86.2288
86.3987
86.5804
86.7747
86.9823
87.204
87.4406
87.6931
87.9623
88.2494
88.5553
88.8812
89.2284
89.5981
89.9918
90.4108
90.8568
91.3314
91.8363
92.3734
92.9446
93.552
94.1979
94.8844
95.6142
96.3897
97.2138
98.0892
99.0191
100.007
101.055
102.169
103.35
104.604
105.934
107.345
108.841
110.427
112.107
113.887
115.772
117.768
119.88
122.113
124.474
126.969
129.603
132.383
135.315
138.405
141.658
145.081
148.679
152.458
156.421
160.574
164.92
169.461
174.201
179.138
184.274
189.607
195.132
200.847
206.744
212.816
219.052
225.44
231.968
238.62
245.379
252.229
259.148
266.118
273.123
280.144
82.567
82.5714
82.5804
82.5941
82.6126
82.6359
82.6641
82.6973
82.7357
82.7794
82.8285
82.8834
82.9441
83.011
83.0843
83.1642
83.2512
83.3454
83.4474
83.5574
83.6759
83.8034
83.9403
84.0872
84.2446
84.4132
84.5936
84.7864
84.9924
85.2124
85.4473
85.6978
85.965
86.2499
86.5535
86.877
87.2216
87.5886
87.9793
88.3952
88.8379
89.3089
89.8101
90.3433
90.9103
91.5133
92.1544
92.836
93.5605
94.3305
95.1486
96.0178
96.9411
97.9217
98.963
100.068
101.242
102.487
103.808
105.21
106.696
108.271
109.941
111.71
113.583
115.567
117.666
119.886
122.234
124.715
127.335
130.101
133.019
136.094
139.333
142.742
146.327
150.093
154.044
158.186
162.522
167.056
171.789
176.722
181.857
187.19
192.721
198.444
204.353
210.44
216.696
223.108
229.665
236.349
243.144
250.033
256.995
264.009
271.059
278.125
80.5946
80.599
80.6079
80.6215
80.6397
80.6628
80.6908
80.7237
80.7617
80.8051
80.8538
80.9082
80.9684
81.0347
81.1073
81.1866
81.2728
81.3662
81.4672
81.5763
81.6938
81.8202
81.9559
82.1015
82.2576
82.4248
82.6036
82.7947
82.999
83.2171
83.4499
83.6983
83.9633
84.2457
84.5467
84.8675
85.2091
85.573
85.9604
86.3728
86.8118
87.2789
87.7759
88.3046
88.8669
89.4649
90.1007
90.7767
91.4952
92.2588
93.0703
93.9325
94.8484
95.8211
96.8541
97.9509
99.1151
100.351
101.662
103.052
104.527
106.091
107.748
109.505
111.365
113.335
115.419
117.625
119.958
122.423
125.028
127.777
130.679
133.738
136.961
140.354
143.924
147.674
151.612
155.741
160.066
164.59
169.315
174.244
179.376
184.711
190.246
195.978
201.9
208.004
214.282
220.722
227.31
234.031
240.867
247.801
254.81
261.875
268.976
276.094
78.621
78.6253
78.6342
78.6476
78.6657
78.6886
78.7162
78.7488
78.7865
78.8294
78.8777
78.9315
78.9911
79.0568
79.1287
79.2072
79.2925
79.3851
79.4851
79.5931
79.7095
79.8346
79.9691
80.1133
80.2679
80.4334
80.6104
80.7998
81.0021
81.2181
81.4487
81.6947
81.9571
82.2369
82.535
82.8527
83.1911
83.5515
83.9352
84.3438
84.7786
85.2413
85.7336
86.2573
86.8144
87.4068
88.0367
88.7065
89.4184
90.175
90.9791
91.8334
92.741
93.705
94.7288
95.8159
96.9698
98.1946
99.4943
100.873
102.336
103.886
105.53
107.272
109.117
111.072
113.141
115.33
117.646
120.094
122.68
125.412
128.295
131.336
134.541
137.916
141.468
145.202
149.124
153.239
157.551
162.063
166.78
171.703
176.832
182.168
187.708
193.448
199.384
205.508
211.81
218.28
224.903
231.665
238.547
245.53
252.593
259.714
266.874
274.05
76.6463
76.6506
76.6593
76.6726
76.6905
76.7131
76.7405
76.7727
76.81
76.8524
76.9001
76.9534
77.0124
77.0773
77.1485
77.2261
77.3105
77.402
77.501
77.6078
77.7229
77.8468
77.9797
78.1224
78.2753
78.4391
78.6143
78.8016
79.0017
79.2154
79.4436
79.687
79.9466
80.2233
80.5183
80.8327
81.1675
81.5241
81.9038
82.308
82.7383
83.1961
83.6833
84.2016
84.7529
85.3392
85.9626
86.6255
87.3301
88.079
88.875
89.7207
90.6192
91.5736
92.5872
93.6635
94.8062
96.0192
97.3064
98.6721
100.121
101.657
103.286
105.012
106.841
108.778
110.83
113.001
115.298
117.726
120.293
123.005
125.868
128.889
132.073
135.429
138.961
142.676
146.58
150.679
154.976
159.476
164.182
169.098
174.223
179.559
185.103
190.853
196.804
202.948
209.277
215.779
222.441
229.248
236.18
243.219
250.342
257.526
264.75
271.992
74.6704
74.6746
74.6833
74.6964
74.7141
74.7364
74.7635
74.7953
74.8321
74.874
74.9212
74.9738
75.0321
75.0963
75.1666
75.2433
75.3267
75.4171
75.5149
75.6205
75.7342
75.8566
75.988
76.129
76.2801
76.4419
76.615
76.8001
76.9979
77.2091
77.4346
77.6751
77.9317
78.2052
78.4968
78.8075
79.1384
79.4909
79.8662
80.2657
80.691
81.1436
81.6252
82.1375
82.6825
83.2621
83.8785
84.5338
85.2305
85.971
86.7581
87.5944
88.483
89.4269
90.4294
91.4941
92.6245
93.8244
95.098
96.4494
97.883
99.4036
101.016
102.725
104.536
106.455
108.487
110.638
112.914
115.322
117.867
120.557
123.397
126.395
129.558
132.891
136.402
140.096
143.98
148.06
152.34
156.826
161.521
166.427
171.548
176.883
182.432
188.192
194.158
200.324
206.681
213.219
219.923
226.778
233.766
240.865
248.054
255.308
262.604
269.918
72.6934
72.6976
72.7061
72.7191
72.7366
72.7586
72.7853
72.8167
72.853
72.8944
72.9409
72.9929
73.0504
73.1137
73.1831
73.2588
73.3411
73.4303
73.5269
73.6311
73.7434
73.8641
73.9938
74.133
74.2821
74.4419
74.6128
74.7955
74.9907
75.1992
75.4218
75.6593
75.9126
76.1826
76.4704
76.7771
77.1039
77.4518
77.8224
78.2169
78.6368
79.0837
79.5592
80.0651
80.6033
81.1757
81.7844
82.4316
83.1197
83.8512
84.6286
85.4547
86.3325
87.265
88.2556
89.3076
90.4246
91.6106
92.8693
94.2052
95.6226
97.1261
98.7205
100.411
102.203
104.101
106.112
108.241
110.495
112.88
115.401
118.067
120.883
123.857
126.994
130.303
133.79
137.461
141.323
145.382
149.644
154.113
158.794
163.691
168.806
174.14
179.692
185.461
191.443
197.632
204.02
210.595
217.345
224.253
231.3
238.467
245.728
253.058
260.433
267.827
70.7154
70.7195
70.7279
70.7406
70.7578
70.7796
70.8059
70.8368
70.8726
70.9134
70.9593
71.0105
71.0672
71.1296
71.198
71.2726
71.3538
71.4418
71.5369
71.6397
71.7503
71.8694
71.9973
72.1345
72.2816
72.439
72.6075
72.7877
72.9802
73.1858
73.4053
73.6394
73.8892
74.1555
74.4393
74.7418
75.064
75.4071
75.7725
76.1616
76.5757
77.0165
77.4855
77.9845
78.5154
79.08
79.6805
80.319
80.9978
81.7195
82.4866
83.3017
84.168
85.0883
86.0659
87.1043
88.207
89.3778
90.6206
91.9398
93.3396
94.8246
96.3998
98.0701
99.8407
101.717
103.706
105.811
108.041
110.4
112.896
115.536
118.325
121.272
124.383
127.665
131.126
134.771
138.609
142.645
146.886
151.337
156.002
160.887
165.995
171.326
176.882
182.66
188.659
194.872
201.291
207.906
214.704
221.669
228.782
236.02
243.36
250.773
258.235
265.716
68.7362
68.7402
68.7485
68.7611
68.778
68.7994
68.8253
68.8558
68.891
68.9312
68.9763
69.0267
69.0825
69.144
69.2113
69.2848
69.3647
69.4514
69.5451
69.6462
69.7552
69.8725
69.9984
70.1335
70.2784
70.4334
70.5994
70.7768
70.9664
71.1689
71.385
71.6157
71.8617
72.1239
72.4035
72.7014
73.0187
73.3568
73.7167
74.1
74.5079
74.9422
75.4042
75.8959
76.4189
76.9752
77.5669
78.1961
78.865
79.5762
80.3322
81.1357
81.9895
82.8967
83.8606
84.8843
85.9716
87.1262
88.352
89.6532
91.0342
92.4995
94.054
95.7026
97.4507
99.3038
101.268
103.348
105.551
107.884
110.352
112.963
115.724
118.642
121.723
124.977
128.408
132.026
135.837
139.848
144.065
148.495
153.144
158.015
163.113
168.441
173.999
179.786
185.801
192.039
198.491
205.149
211.999
219.024
226.207
233.523
240.947
248.451
256.007
263.583
66.756
66.7599
66.7681
66.7804
66.7971
66.8181
66.8435
66.8735
66.9082
66.9477
66.9921
67.0416
67.0965
67.1569
67.2231
67.2954
67.374
67.4592
67.5514
67.6509
67.758
67.8734
67.9972
68.1301
68.2726
68.4251
68.5883
68.7629
68.9494
69.1486
69.3612
69.588
69.83
70.088
70.363
70.6561
70.9683
71.3009
71.655
72.0321
72.4335
72.8607
73.3154
73.7992
74.3139
74.8614
75.4437
76.0629
76.7214
77.4215
78.1657
78.9567
79.7973
80.6906
81.6397
82.6479
83.7189
84.8562
86.0638
87.3459
88.7067
90.151
91.6833
93.3088
95.0328
96.8607
98.7983
100.852
103.027
105.33
107.769
110.35
113.079
115.966
119.016
122.237
125.638
129.225
133.007
136.99
141.182
145.589
150.217
155.073
160.16
165.482
171.041
176.837
182.868
189.131
195.618
202.32
209.224
216.315
223.572
230.972
238.488
246.089
253.747
261.427
64.7747
64.7786
64.7865
64.7987
64.815
64.8357
64.8607
64.8901
64.9241
64.9629
65.0065
65.0552
65.1091
65.1684
65.2334
65.3044
65.3816
65.4653
65.5558
65.6535
65.7588
65.8721
65.9938
66.1243
66.2643
66.4141
66.5745
66.7459
66.9291
67.1248
67.3337
67.5566
67.7943
68.0478
68.318
68.606
68.9128
69.2395
69.5875
69.9581
70.3525
70.7724
71.2192
71.6947
72.2006
72.7387
73.3111
73.9198
74.5671
75.2554
75.9871
76.7649
77.5916
78.4701
79.4035
80.3953
81.4488
82.5678
83.7561
85.0179
86.3574
87.7792
89.288
90.889
92.5872
94.3883
96.2979
98.3222
100.467
102.74
105.147
107.695
110.391
113.244
116.26
119.447
122.814
126.369
130.118
134.071
138.234
142.615
147.222
152.059
157.133
162.448
168.007
173.81
179.857
186.145
192.668
199.416
206.378
213.536
220.873
228.362
235.976
243.684
251.451
259.243
62.7923
62.7962
62.804
62.8159
62.8319
62.8522
62.8767
62.9055
62.9389
62.9769
63.0197
63.0674
63.1203
63.1785
63.2422
63.3119
63.3875
63.4696
63.5584
63.6543
63.7576
63.8687
63.9881
64.1161
64.2534
64.4005
64.5578
64.726
64.9058
65.0977
65.3027
65.5214
65.7547
66.0034
66.2685
66.5511
66.8521
67.1728
67.5143
67.878
68.2651
68.6772
69.1157
69.5824
70.079
70.6073
71.1692
71.7668
72.4024
73.0782
73.7967
74.5606
75.3725
76.2353
77.1523
78.1267
79.1618
80.2614
81.4293
82.6695
83.9864
85.3845
86.8684
88.4433
90.1142
91.8868
93.7668
95.7603
97.8735
100.113
102.486
104.999
107.66
110.476
113.456
116.607
119.937
123.456
127.17
131.089
135.221
139.574
144.156
148.973
154.031
159.337
164.893
170.703
176.765
183.078
189.637
196.433
203.454
210.685
218.105
225.69
233.41
241.23
249.117
257.03
60.809
60.8127
60.8204
60.8321
60.8478
60.8676
60.8916
60.9198
60.9525
60.9897
61.0316
61.0784
61.1301
61.1871
61.2496
61.3178
61.3919
61.4723
61.5593
61.6532
61.7544
61.8632
61.9802
62.1057
62.2402
62.3842
62.5384
62.7032
62.8793
63.0674
63.2682
63.4825
63.7111
63.9548
64.2147
64.4915
64.7866
65.1008
65.4355
65.7919
66.1713
66.5752
67.0051
67.4626
67.9494
68.4673
69.0182
69.6042
70.2274
70.8901
71.5947
72.3438
73.1402
73.9867
74.8863
75.8423
76.858
77.9372
79.0835
80.3011
81.5942
82.9671
84.4248
85.9721
87.6142
89.3566
91.2052
93.166
95.2454
97.4499
99.7865
102.263
104.885
107.663
110.604
113.715
117.006
120.486
124.163
128.046
132.143
136.465
141.018
145.812
150.852
156.146
161.698
167.512
173.588
179.926
186.521
193.366
200.45
207.756
215.265
222.951
230.783
238.725
246.74
254.783
58.8247
58.8283
58.8358
58.8472
58.8626
58.8819
58.9054
58.9331
58.965
59.0014
59.0424
59.0881
59.1387
59.1944
59.2555
59.3222
59.3947
59.4733
59.5584
59.6503
59.7493
59.8558
59.9702
60.0929
60.2245
60.3654
60.5162
60.6775
60.8498
61.0339
61.2304
61.4401
61.6637
61.9022
62.1565
62.4274
62.7161
63.0236
63.3512
63.7
64.0714
64.4667
64.8875
65.3353
65.8118
66.3188
66.8582
67.432
68.0422
68.6912
69.3812
70.115
70.895
71.7242
72.6056
73.5423
74.5377
75.5954
76.7192
77.9129
79.1809
80.5275
81.9574
83.4756
85.0873
86.798
88.6135
90.5397
92.5832
94.7506
97.0489
99.4854
102.068
104.804
107.703
110.772
114.021
117.459
121.095
124.938
128.999
133.286
137.808
142.575
147.594
152.873
158.419
164.234
170.323
176.685
183.317
190.212
197.36
204.745
212.347
220.14
228.091
236.164
244.315
252.498
56.8394
56.8429
56.8502
56.8614
56.8764
56.8953
56.9182
56.9452
56.9764
57.0119
57.0519
57.0965
57.1459
57.2004
57.26
57.3251
57.3959
57.4728
57.5559
57.6456
57.7423
57.8463
57.958
58.078
58.2065
58.3442
58.4915
58.649
58.8174
58.9972
59.1892
59.3941
59.6126
59.8456
60.094
60.3588
60.6409
60.9414
61.2615
61.6024
61.9653
62.3517
62.763
63.2007
63.6665
64.1621
64.6895
65.2504
65.8471
66.4817
67.1565
67.8742
68.6372
69.4483
70.3106
71.2271
72.2013
73.2365
74.3365
75.5052
76.7468
78.0658
79.4666
80.9543
82.5341
84.2113
85.9918
87.8817
89.8873
92.0155
94.2732
96.668
99.2075
101.9
104.754
107.779
110.982
114.375
117.967
121.767
125.787
130.035
134.523
139.26
144.255
149.516
155.052
160.867
166.967
173.351
180.019
186.964
194.178
201.645
209.345
217.25
225.329
233.54
241.838
250.172
54.8531
54.8566
54.8637
54.8746
54.8892
54.9076
54.9299
54.9562
54.9867
55.0213
55.0603
55.1038
55.1519
55.205
55.2632
55.3266
55.3957
55.4706
55.5516
55.6391
55.7334
55.8349
55.9439
56.0608
56.1862
56.3205
56.4642
56.6179
56.7821
56.9575
57.1448
57.3446
57.5578
57.7851
58.0275
58.2858
58.561
58.8542
59.1666
59.4992
59.8533
60.2304
60.6317
61.0589
61.5136
61.9974
62.5121
63.0597
63.6423
64.2619
64.9209
65.6217
66.3668
67.1592
68.0015
68.897
69.8489
70.8606
71.9358
73.0784
74.2925
75.5824
76.9528
78.4085
79.9547
81.5968
83.3407
85.1923
87.1581
89.2449
91.4598
93.8104
96.3045
98.9506
101.757
104.734
107.889
111.234
114.778
118.532
122.507
126.713
131.162
135.865
140.832
146.072
151.595
157.407
163.515
169.92
176.623
183.619
190.9
198.451
206.253
214.277
222.49
230.848
239.304
247.799
52.8659
52.8693
52.8763
52.8868
52.901
52.919
52.9407
52.9663
52.9959
53.0296
53.0675
53.1098
53.1567
53.2084
53.265
53.3268
53.394
53.4669
53.5458
53.631
53.7228
53.8215
53.9277
54.0416
54.1637
54.2944
54.4344
54.584
54.744
54.9148
55.0972
55.2918
55.4994
55.7209
55.9569
56.2085
56.4766
56.7622
57.0665
57.3905
57.7355
58.1028
58.4939
58.9102
59.3532
59.8247
60.3263
60.8601
61.4279
62.0319
62.6744
63.3577
64.0844
64.8571
65.6787
66.5522
67.4809
68.4681
69.5174
70.6327
71.8181
73.0777
74.4163
75.8385
77.3497
78.955
80.6604
82.4719
84.3958
86.4391
88.609
90.913
93.3591
95.9559
98.7122
101.638
104.742
108.035
111.527
115.231
119.158
123.318
127.725
132.389
137.324
142.539
148.045
153.851
159.963
166.387
173.123
180.17
187.519
195.157
203.064
211.212
219.567
228.082
236.706
245.375
50.8779
50.8812
50.8879
50.8982
50.912
50.9294
50.9505
50.9753
51.0041
51.0368
51.0736
51.1148
51.1603
51.2105
51.2655
51.3255
51.3908
51.4617
51.5383
51.6211
51.7104
51.8064
51.9095
52.0202
52.1389
52.2661
52.4021
52.5476
52.7031
52.8692
53.0465
53.2357
53.4376
53.6529
53.8824
54.127
54.3877
54.6655
54.9613
55.2765
55.612
55.9693
56.3497
56.7546
57.1856
57.6443
58.1324
58.6517
59.2043
59.7921
60.4174
61.0826
61.79
62.5423
63.3423
64.193
65.0976
66.0593
67.0817
68.1686
69.324
70.5521
71.8575
73.2449
74.7193
76.2863
77.9514
79.7209
81.601
83.5987
85.7211
87.976
90.3716
92.9163
95.6194
98.4904
101.54
104.777
108.215
111.865
115.739
119.849
124.208
128.831
133.728
138.913
144.398
150.193
156.308
162.747
169.515
176.611
184.028
191.754
199.77
208.049
216.552
225.234
234.037
242.892
48.889
48.8921
48.8987
48.9086
48.922
48.9389
48.9593
48.9834
49.0113
49.043
49.0787
49.1186
49.1627
49.2114
49.2647
49.3229
49.3863
49.455
49.5294
49.6097
49.6962
49.7894
49.8895
49.9969
50.1121
50.2355
50.3675
50.5087
50.6596
50.8207
50.9928
51.1765
51.3724
51.5813
51.8041
52.0415
52.2945
52.5641
52.8513
53.1572
53.483
53.8299
54.1992
54.5924
55.0109
55.4563
55.9304
56.4349
56.9716
57.5427
58.1502
58.7965
59.4839
60.2151
60.9928
61.8199
62.6994
63.6346
64.6291
65.6865
66.8108
68.0061
69.2769
70.6279
72.0642
73.5911
75.2142
76.9397
78.774
80.7238
82.7966
85
87.3422
89.8321
92.4788
95.2923
98.283
101.462
104.841
108.432
112.249
116.304
120.612
125.187
130.042
135.193
140.652
146.432
152.543
158.995
165.792
172.935
180.42
188.236
196.365
204.778
213.438
222.296
231.289
240.343
46.8992
46.9023
46.9086
46.9182
46.9311
46.9474
46.9672
46.9905
47.0175
47.0482
47.0827
47.1213
47.164
47.2111
47.2627
47.3191
47.3804
47.4469
47.5189
47.5967
47.6805
47.7707
47.8676
47.9717
48.0832
48.2027
48.3305
48.4673
48.6134
48.7695
48.9362
49.1141
49.3039
49.5062
49.722
49.952
50.1972
50.4584
50.7366
51.033
51.3486
51.6848
52.0427
52.4237
52.8293
53.2611
53.7206
54.2097
54.7301
55.2838
55.873
56.4998
57.1666
57.8759
58.6304
59.433
60.2866
61.1944
62.1599
63.1867
64.2787
65.4399
66.6748
67.9881
69.3846
70.8698
72.4492
74.1289
75.9152
77.8151
79.8358
81.9852
84.2714
86.7035
89.2908
92.0434
94.9722
98.0885
101.405
104.933
108.688
112.684
116.935
121.456
126.265
131.375
136.803
142.562
148.666
155.125
161.947
169.135
176.687
184.594
192.837
201.39
210.214
219.258
228.455
237.722
44.9086
44.9116
44.9177
44.9269
44.9394
44.9552
44.9743
44.9968
45.0228
45.0524
45.0858
45.123
45.1642
45.2097
45.2596
45.314
45.3732
45.4375
45.507
45.5821
45.6631
45.7503
45.8439
45.9445
46.0523
46.1678
46.2913
46.4235
46.5648
46.7157
46.8768
47.0487
47.2322
47.4278
47.6364
47.8587
48.0957
48.3482
48.6172
48.9038
49.209
49.5341
49.8802
50.2487
50.6411
51.0587
51.5033
51.9765
52.48
53.0158
53.586
54.1927
54.8382
55.525
56.2556
57.0328
57.8596
58.739
59.6746
60.6697
61.7282
62.8541
64.0519
65.3259
66.6812
68.123
69.6569
71.2889
73.0253
74.873
76.8393
78.9321
81.1596
83.5309
86.0556
88.744
91.6071
94.6566
97.9054
101.367
105.055
108.986
113.174
117.637
122.392
127.456
132.847
138.58
144.67
151.132
157.975
165.205
172.821
180.818
189.178
197.875
206.87
216.11
225.522
235.017
42.9172
42.9201
42.9259
42.9349
42.9469
42.9621
42.9804
43.0021
43.0271
43.0557
43.0878
43.1237
43.1634
43.2072
43.2552
43.3077
43.3647
43.4267
43.4937
43.5661
43.6442
43.7282
43.8186
43.9155
44.0195
44.1308
44.25
44.3775
44.5137
44.6592
44.8146
44.9804
45.1574
45.3461
45.5473
45.7617
45.9903
46.2339
46.4934
46.7699
47.0644
47.378
47.712
48.0677
48.4464
48.8495
49.2786
49.7354
50.2216
50.739
51.2897
51.8756
52.4991
53.1626
53.8685
54.6196
55.4187
56.2689
57.1735
58.1359
59.1598
60.2492
61.4084
62.6419
63.9545
65.3513
66.8379
68.4203
70.1048
71.8981
73.8076
75.8412
78.0072
80.3148
82.7736
85.3942
88.1878
91.1666
94.3436
97.7329
101.349
105.209
109.33
113.728
118.423
123.434
128.78
134.48
140.551
147.01
153.868
161.135
168.813
176.899
185.377
194.222
203.394
212.84
222.481
232.218
40.9251
40.9278
40.9335
40.942
40.9536
40.9681
40.9858
41.0066
41.0306
41.058
41.0889
41.1234
41.1615
41.2036
41.2498
41.3002
41.3551
41.4146
41.4791
41.5487
41.6238
41.7046
41.7915
41.8848
41.9848
42.0919
42.2066
42.3292
42.4603
42.6003
42.7498
42.9094
43.0796
43.2612
43.4548
43.6611
43.8811
44.1155
44.3653
44.6314
44.9149
45.2168
45.5383
45.8808
46.2454
46.6336
47.0468
47.4868
47.9551
48.4536
48.9841
49.5488
50.1497
50.7892
51.4697
52.1938
52.9644
53.7845
54.6571
55.5857
56.5739
57.6257
58.7451
59.9366
61.2049
62.5551
63.9928
65.5237
67.1541
68.8909
70.7413
72.7131
74.8148
77.0556
79.4452
81.9944
84.7146
87.6184
90.719
94.0313
97.5707
101.354
105.4
109.727
114.355
119.306
124.6
130.259
136.303
142.751
149.618
156.917
164.654
172.826
181.422
190.417
199.774
209.435
219.317
229.314
38.9322
38.9349
38.9402
38.9484
38.9595
38.9734
38.9903
39.0103
39.0333
39.0596
39.0891
39.1221
39.1587
39.199
39.2433
39.2916
39.3442
39.4013
39.4631
39.5299
39.6019
39.6795
39.7628
39.8523
39.9483
40.0511
40.1611
40.2788
40.4046
40.539
40.6825
40.8356
40.999
41.1732
41.359
41.5571
41.7682
41.9933
42.233
42.4885
42.7607
43.0506
43.3593
43.6881
44.0383
44.4112
44.8082
45.2309
45.6809
46.1599
46.6698
47.2125
47.7902
48.405
49.0594
49.7559
50.4972
51.2861
52.1259
53.0197
53.9712
54.984
56.0623
57.2105
58.4331
59.7351
61.1221
62.5996
64.174
65.852
67.6409
69.5484
71.583
73.7539
76.071
78.5451
81.1879
84.0122
87.0318
90.2617
93.7184
97.4194
101.384
105.632
110.186
115.069
120.303
125.913
131.921
138.35
145.219
152.543
160.332
168.587
177.3
186.448
195.994
205.88
216.017
226.289
36.9387
36.9412
36.9463
36.9542
36.9647
36.978
36.9942
37.0132
37.0352
37.0602
37.0885
37.12
37.1549
37.1935
37.2357
37.2819
37.3322
37.3868
37.4459
37.5098
37.5787
37.6529
37.7326
37.8182
37.9101
38.0085
38.1138
38.2264
38.3468
38.4754
38.6127
38.7592
38.9156
39.0823
39.2602
39.4498
39.6519
39.8672
40.0968
40.3413
40.6019
40.8795
41.1752
41.4901
41.8255
42.1826
42.563
42.9679
43.3991
43.8582
44.3469
44.8672
45.421
46.0105
46.6381
47.3062
48.0173
48.7744
49.5803
50.4384
51.3519
52.3248
53.3608
54.4642
55.6396
56.8919
58.2264
59.6488
61.1652
62.7822
64.5071
66.3477
68.3123
70.4103
72.6515
75.0468
77.6081
80.3485
83.282
86.4242
89.7921
93.4042
97.2804
101.443
105.914
110.719
115.885
121.436
127.399
133.8
140.661
148.002
155.837
164.17
172.997
182.298
192.038
202.157
212.563
223.127
34.9444
34.9468
34.9517
34.9592
34.9692
34.9819
34.9972
35.0153
35.0363
35.0601
35.087
35.117
35.1503
35.187
35.2272
35.2712
35.3191
35.3712
35.4275
35.4884
35.5541
35.6249
35.7009
35.7826
35.8702
35.9641
36.0645
36.172
36.2869
36.4096
36.5406
36.6804
36.8295
36.9887
37.1583
37.3392
37.5321
37.7376
37.9567
38.1901
38.4388
38.7038
38.9861
39.2867
39.607
39.9481
40.3114
40.6982
41.1102
41.5488
42.0158
42.5131
43.0425
43.6061
44.2062
44.8451
45.5253
46.2496
47.0209
47.8422
48.7168
49.6485
50.641
51.6984
52.8252
54.0262
55.3066
56.6719
58.1283
59.6822
61.3408
63.1118
65.0036
67.0254
69.1872
71.5
73.9757
76.6275
79.4699
82.5189
85.7918
89.308
93.0886
97.1564
101.537
106.256
111.342
116.824
122.732
129.094
135.937
143.285
151.157
159.561
168.499
177.952
187.888
198.25
208.937
219.81
32.9496
32.9519
32.9565
32.9636
32.9731
32.9851
32.9996
33.0168
33.0366
33.0592
33.0847
33.1132
33.1447
33.1796
33.2178
33.2595
33.305
33.3545
33.408
33.4659
33.5283
33.5955
33.6678
33.7455
33.8288
33.918
34.0136
34.1157
34.225
34.3416
34.4662
34.5992
34.741
34.8923
35.0536
35.2257
35.4091
35.6046
35.8129
36.035
36.2716
36.5237
36.7922
37.0784
37.3832
37.7079
38.0537
38.422
38.8143
39.232
39.6769
40.1506
40.655
41.1921
41.7641
42.3731
43.0217
43.7124
44.4481
45.2317
46.0664
46.9558
47.9035
48.9136
49.9905
51.1386
52.3632
53.6697
55.0641
56.5527
58.1426
59.8415
61.6576
63.6002
65.6791
67.9055
70.2913
72.8499
75.596
78.5459
81.7175
85.1307
88.8077
92.7725
97.0518
101.674
106.67
112.072
117.913
124.224
131.038
138.382
146.279
154.747
163.788
173.391
183.526
194.136
205.117
216.317
30.9541
30.9563
30.9607
30.9673
30.9763
30.9876
31.0014
31.0175
31.0363
31.0576
31.0817
31.1086
31.1384
31.1713
31.2074
31.2469
31.2899
31.3367
31.3874
31.4421
31.5012
31.5649
31.6334
31.7069
31.7858
31.8704
31.9609
32.0577
32.1612
32.2717
32.3897
32.5157
32.6501
32.7934
32.9463
33.1092
33.283
33.4682
33.6657
33.8761
34.1003
34.3393
34.5939
34.8652
35.1543
35.4622
35.7902
36.1396
36.5118
36.9082
37.3304
37.7801
38.259
38.769
39.3122
39.8907
40.5069
41.1632
41.8625
42.6074
43.4013
44.2473
45.1491
46.1107
47.1361
48.2299
49.3971
50.643
51.9734
53.3946
54.9134
56.5376
58.2752
60.1353
62.1279
64.264
66.5557
69.0163
71.6607
74.5056
77.5692
80.8721
84.4372
88.2899
92.4584
96.9733
101.868
107.177
112.937
119.184
125.954
133.28
141.192
149.711
158.847
168.595
178.928
189.792
201.079
212.624
28.9581
28.9601
28.9643
28.9705
28.979
28.9896
29.0025
29.0177
29.0353
29.0553
29.0779
29.1032
29.1313
29.1622
29.1962
29.2334
29.2739
29.318
29.3657
29.4173
29.473
29.5331
29.5977
29.6671
29.7415
29.8213
29.9067
29.998
30.0956
30.1999
30.3113
30.4301
30.5569
30.6921
30.8363
30.9901
31.154
31.3288
31.5151
31.7137
31.9253
32.1509
32.3913
32.6475
32.9204
33.2113
33.5212
33.8513
34.203
34.5777
34.9768
35.4019
35.8547
36.3371
36.8509
37.3982
37.9813
38.6026
39.2646
39.97
40.722
41.5236
42.3784
43.2902
44.2628
45.3009
46.4091
47.5926
48.8571
50.2087
51.6542
53.201
54.8572
56.6318
58.5346
60.5765
62.7696
65.1274
67.6648
70.3985
73.3473
76.5322
79.9768
83.7077
87.7546
92.1503
96.9304
102.133
107.798
113.966
120.676
127.969
135.88
144.437
153.658
163.542
174.071
185.193
196.797
208.704
26.9616
26.9635
26.9673
26.9732
26.9811
26.991
27.003
27.0172
27.0337
27.0524
27.0735
27.0972
27.1234
27.1524
27.1842
27.219
27.257
27.2983
27.3431
27.3915
27.4438
27.5001
27.5607
27.6259
27.6958
27.7707
27.8509
27.9367
28.0284
28.1263
28.2309
28.3425
28.4615
28.5885
28.7239
28.8683
29.0222
29.1864
29.3614
29.5479
29.7468
29.9587
30.1847
30.4254
30.682
30.9555
31.2469
31.5574
31.8882
32.2408
32.6163
33.0164
33.4427
33.8969
34.3807
34.8963
35.4456
36.031
36.655
37.3201
38.0292
38.7854
39.5921
40.4528
41.3715
42.3523
43.3999
44.5193
45.716
46.996
48.3658
49.8327
51.4047
53.0906
54.9001
56.844
58.9342
61.1843
63.6091
66.2255
69.0524
72.1113
75.4264
79.0254
82.9393
87.2032
91.8551
96.9364
102.49
108.562
115.196