/*--------------------------------*- C++ -*----------------------------------*\
| =========                 |                                                 |
| \\      /  F ield         | OpenFOAM: The Open Source CFD Toolbox           |
|  \\    /   O peration     | Version:  2.4.0                                 |
|   \\  /    A nd           | Web:      www.OpenFOAM.org                      |
|    \\/     M anipulation  |                                                 |
\*---------------------------------------------------------------------------*/
FoamFile
{
    version     2.0;
    format      ascii;
    class       surfaceScalarField;
    location    "0.176";
    object      phi;
}
// * * * * * * * * * * * * * * * * * * * * * * * * * * * * * * * * * * * * * //

dimensions      [0 3 -1 0 0 0 0];

internalField   nonuniform List<scalar> 
119500
(
-1.12411e-10
1.12411e-10
-2.28297e-10
1.15885e-10
-3.45547e-10
1.1725e-10
-4.6426e-10
1.18713e-10
-5.84873e-10
1.20613e-10
-7.0786e-10
1.22986e-10
-8.33716e-10
1.25856e-10
-9.62948e-10
1.29232e-10
-1.09607e-09
1.3312e-10
-1.23361e-09
1.37546e-10
-1.37613e-09
1.4252e-10
-1.52419e-09
1.48057e-10
-1.67837e-09
1.54181e-10
-1.83929e-09
1.60918e-10
-2.00758e-09
1.68289e-10
-2.1839e-09
1.7632e-10
-2.36894e-09
1.85042e-10
-2.56343e-09
1.94488e-10
-2.76812e-09
2.04693e-10
-2.98382e-09
2.15697e-10
-3.21136e-09
2.27542e-10
-3.45163e-09
2.40273e-10
-3.70557e-09
2.53939e-10
-3.97416e-09
2.68592e-10
-4.25845e-09
2.84289e-10
-4.55954e-09
3.01092e-10
-4.87861e-09
3.19064e-10
-5.21689e-09
3.38276e-10
-5.57569e-09
3.58802e-10
-5.95641e-09
3.80721e-10
-6.36052e-09
4.04114e-10
-6.7896e-09
4.29073e-10
-7.24529e-09
4.5569e-10
-7.72935e-09
4.84067e-10
-8.24366e-09
5.1431e-10
-8.7902e-09
5.46532e-10
-9.37105e-09
5.80853e-10
-9.98845e-09
6.174e-10
-1.06448e-08
6.56306e-10
-1.13425e-08
6.97715e-10
-1.20842e-08
7.41778e-10
-1.28729e-08
7.88652e-10
-1.37114e-08
8.38509e-10
-1.46029e-08
8.91524e-10
-1.55508e-08
9.47887e-10
-1.65586e-08
1.0078e-09
-1.76301e-08
1.07146e-09
-1.87692e-08
1.13909e-09
-1.99801e-08
1.21093e-09
-2.12673e-08
1.28722e-09
-2.26355e-08
1.36821e-09
-2.40897e-08
1.45416e-09
-2.5635e-08
1.54536e-09
-2.72771e-08
1.64208e-09
-2.90218e-08
1.74463e-09
-3.08751e-08
1.85332e-09
-3.28435e-08
1.96846e-09
-3.49339e-08
2.09037e-09
-3.71533e-08
2.2194e-09
-3.95092e-08
2.35588e-09
-4.20093e-08
2.50015e-09
-4.46619e-08
2.65254e-09
-4.74753e-08
2.8134e-09
-5.04583e-08
2.98305e-09
-5.36201e-08
3.1618e-09
-5.69701e-08
3.34994e-09
-6.05178e-08
3.54773e-09
-6.42732e-08
3.75541e-09
-6.82464e-08
3.97314e-09
-7.24474e-08
4.20106e-09
-7.68866e-08
4.4392e-09
-8.15741e-08
4.68752e-09
-8.652e-08
4.94587e-09
-9.1734e-08
5.21396e-09
-9.72253e-08
5.49135e-09
-1.03003e-07
5.77743e-09
-1.09074e-07
6.07138e-09
-1.15446e-07
6.37211e-09
-1.22125e-07
6.67831e-09
-1.29113e-07
6.98829e-09
-1.36413e-07
7.30008e-09
-1.44024e-07
7.61128e-09
-1.51943e-07
7.91908e-09
-1.60163e-07
8.22022e-09
-1.68674e-07
8.51093e-09
-1.77461e-07
8.78694e-09
-1.86505e-07
9.04344e-09
-1.9578e-07
9.27506e-09
-2.05256e-07
9.47587e-09
-2.14895e-07
9.63942e-09
-2.24654e-07
9.75875e-09
-2.3448e-07
9.82643e-09
-2.44315e-07
9.83466e-09
-2.5409e-07
9.77527e-09
-2.6373e-07
9.63988e-09
-2.7315e-07
9.42024e-09
-2.8226e-07
9.10914e-09
-2.90957e-07
8.69755e-09
-2.99124e-07
8.16736e-09
7.50296e-09
-3.06627e-07
-1.25781e-10
2.38192e-10
-2.56926e-10
2.47029e-10
-3.89087e-10
2.49411e-10
-5.22851e-10
2.52478e-10
-6.5873e-10
2.56493e-10
-7.97269e-10
2.61526e-10
-9.39023e-10
2.6761e-10
-1.08456e-09
2.74768e-10
-1.23446e-09
2.83023e-10
-1.38933e-09
2.92411e-10
-1.54977e-09
3.02965e-10
-1.71644e-09
3.14722e-10
-1.88998e-09
3.27727e-10
-2.0711e-09
3.4203e-10
-2.26049e-09
3.57682e-10
-2.45891e-09
3.74742e-10
-2.66714e-09
3.93274e-10
-2.886e-09
4.13349e-10
-3.11635e-09
4.35042e-10
-3.35909e-09
4.58437e-10
-3.61517e-09
4.83622e-10
-3.88559e-09
5.10694e-10
-4.17141e-09
5.39758e-10
-4.47375e-09
5.70926e-10
-4.79378e-09
6.04317e-10
-5.13275e-09
6.40064e-10
-5.49199e-09
6.78303e-10
-5.8729e-09
7.19183e-10
-6.27696e-09
7.62862e-10
-6.70574e-09
8.09508e-10
-7.16093e-09
8.59299e-10
-7.64428e-09
9.12425e-10
-8.15768e-09
9.6909e-10
-8.70312e-09
1.02951e-09
-9.28272e-09
1.09391e-09
-9.89871e-09
1.16253e-09
-1.05535e-08
1.23563e-09
-1.12496e-08
1.31348e-09
-1.19897e-08
1.39638e-09
-1.27766e-08
1.48463e-09
-1.36134e-08
1.57856e-09
-1.45032e-08
1.6785e-09
-1.54495e-08
1.78482e-09
-1.64559e-08
1.89792e-09
-1.75262e-08
2.01818e-09
-1.86645e-08
2.14606e-09
-1.9875e-08
2.28198e-09
-2.11623e-08
2.42645e-09
-2.25314e-08
2.57995e-09
-2.39872e-08
2.74303e-09
-2.55352e-08
2.91622e-09
-2.71811e-08
3.10011e-09
-2.89311e-08
3.29532e-09
-3.07915e-08
3.50246e-09
-3.27691e-08
3.72221e-09
-3.4871e-08
3.95524e-09
-3.71048e-08
4.20227e-09
-3.94784e-08
4.46402e-09
-4.20003e-08
4.74124e-09
-4.46791e-08
5.0347e-09
-4.75241e-08
5.34517e-09
-5.0545e-08
5.67342e-09
-5.37518e-08
6.02023e-09
-5.71551e-08
6.38637e-09
-6.07659e-08
6.77258e-09
-6.45955e-08
7.17956e-09
-6.86558e-08
7.60797e-09
-7.29588e-08
8.05838e-09
-7.75169e-08
8.53129e-09
-8.23429e-08
9.02707e-09
-8.74497e-08
9.54594e-09
-9.28501e-08
1.00879e-08
-9.85571e-08
1.06529e-08
-1.04583e-07
1.12403e-08
-1.10941e-07
1.18493e-08
-1.17643e-07
1.24789e-08
-1.24699e-07
1.31272e-08
-1.32119e-07
1.37922e-08
-1.39912e-07
1.44711e-08
-1.48084e-07
1.51603e-08
-1.56639e-07
1.58556e-08
-1.6558e-07
1.65517e-08
-1.74903e-07
1.72424e-08
-1.84603e-07
1.79203e-08
-1.94669e-07
1.85771e-08
-2.05085e-07
1.92028e-08
-2.15828e-07
1.97862e-08
-2.26867e-07
2.03149e-08
-2.38166e-07
2.07746e-08
-2.49677e-07
2.11499e-08
-2.61342e-07
2.14239e-08
-2.73094e-07
2.15785e-08
-2.84854e-07
2.15945e-08
-2.9653e-07
2.14516e-08
-3.08019e-07
2.11292e-08
-3.19206e-07
2.06068e-08
-3.2996e-07
1.98637e-08
-3.40139e-07
1.88757e-08
-3.49586e-07
1.76148e-08
1.60749e-08
-3.58158e-07
-1.26389e-10
3.6458e-10
-2.58153e-10
3.78793e-10
-3.9104e-10
3.82298e-10
-5.25529e-10
3.86967e-10
-6.62137e-10
3.93101e-10
-8.01403e-10
4.00792e-10
-9.43882e-10
4.10088e-10
-1.09014e-09
4.21027e-10
-1.24077e-09
4.33648e-10
-1.39636e-09
4.48001e-10
-1.55753e-09
4.64139e-10
-1.72493e-09
4.82119e-10
-1.89921e-09
5.0201e-10
-2.08107e-09
5.23886e-10
-2.27121e-09
5.47829e-10
-2.4704e-09
5.73928e-10
-2.67941e-09
6.02283e-10
-2.89906e-09
6.33002e-10
-3.13022e-09
6.66202e-10
-3.37379e-09
7.02009e-10
-3.63073e-09
7.40558e-10
-3.90203e-09
7.81999e-10
-4.18876e-09
8.2649e-10
-4.49204e-09
8.74205e-10
-4.81305e-09
9.25327e-10
-5.15305e-09
9.80057e-10
-5.51335e-09
1.0386e-09
-5.89537e-09
1.1012e-09
-6.30059e-09
1.16808e-09
-6.73058e-09
1.23951e-09
-7.18703e-09
1.31575e-09
-7.67171e-09
1.3971e-09
-8.18649e-09
1.48387e-09
-8.73338e-09
1.5764e-09
-9.31449e-09
1.67502e-09
-9.93207e-09
1.7801e-09
-1.05885e-08
1.89206e-09
-1.12863e-08
2.0113e-09
-1.20282e-08
2.13826e-09
-1.2817e-08
2.27343e-09
-1.36557e-08
2.41729e-09
-1.45476e-08
2.57038e-09
-1.5496e-08
2.73325e-09
-1.65046e-08
2.90649e-09
-1.75772e-08
3.09074e-09
-1.87178e-08
3.28665e-09
-1.99307e-08
3.49491e-09
-2.12205e-08
3.71627e-09
-2.25921e-08
3.9515e-09
-2.40504e-08
4.20141e-09
-2.56011e-08
4.46684e-09
-2.72497e-08
4.7487e-09
-2.90023e-08
5.04792e-09
-3.08653e-08
5.36548e-09
-3.28455e-08
5.70239e-09
-3.49499e-08
6.05972e-09
-3.71862e-08
6.43855e-09
-3.95622e-08
6.84002e-09
-4.20863e-08
7.26528e-09
-4.47671e-08
7.71552e-09
-4.76139e-08
8.19194e-09
-5.06362e-08
8.69575e-09
-5.38441e-08
9.22817e-09
-5.72481e-08
9.79037e-09
-6.08591e-08
1.03835e-08
-6.46883e-08
1.10088e-08
-6.87474e-08
1.16671e-08
-7.30486e-08
1.23595e-08
-7.7604e-08
1.30867e-08
-8.24263e-08
1.38494e-08
-8.75283e-08
1.46479e-08
-9.29228e-08
1.54824e-08
-9.86225e-08
1.63526e-08
-1.0464e-07
1.72579e-08
-1.10988e-07
1.81971e-08
-1.17678e-07
1.91685e-08
-1.2472e-07
2.01697e-08
-1.32125e-07
2.11974e-08
-1.39901e-07
2.22473e-08
-1.48055e-07
2.33142e-08
-1.56591e-07
2.43914e-08
-1.65511e-07
2.54712e-08
-1.74812e-07
2.65439e-08
-1.8449e-07
2.75983e-08
-1.94534e-07
2.86212e-08
-2.04929e-07
2.95975e-08
-2.15652e-07
3.05098e-08
-2.26676e-07
3.13384e-08
-2.37963e-07
3.20614e-08
-2.49467e-07
3.26545e-08
-2.61135e-07
3.30912e-08
-2.72899e-07
3.33429e-08
-2.84684e-07
3.33792e-08
-2.96401e-07
3.31683e-08
-3.07949e-07
3.26774e-08
-3.19216e-07
3.1874e-08
-3.30077e-07
3.07245e-08
-3.40392e-07
2.91911e-08
-3.50012e-07
2.72348e-08
2.48525e-08
-3.5879e-07
-1.2624e-10
4.9082e-10
-2.57691e-10
5.10244e-10
-3.90379e-10
5.14986e-10
-5.24663e-10
5.21252e-10
-6.6106e-10
5.29498e-10
-8.00106e-10
5.39838e-10
-9.42353e-10
5.52335e-10
-1.08837e-09
5.67042e-10
-1.23873e-09
5.84013e-10
-1.39405e-09
6.03313e-10
-1.55492e-09
6.25014e-10
-1.722e-09
6.49196e-10
-1.89594e-09
6.75949e-10
-2.07742e-09
7.05373e-10
-2.26718e-09
7.3758e-10
-2.46594e-09
7.7269e-10
-2.67449e-09
8.10836e-10
-2.89365e-09
8.52165e-10
-3.12429e-09
8.96833e-10
-3.36729e-09
9.45011e-10
-3.62361e-09
9.96881e-10
-3.89425e-09
1.05264e-09
-4.18028e-09
1.11252e-09
-4.4828e-09
1.17672e-09
-4.803e-09
1.24552e-09
-5.14212e-09
1.31918e-09
-5.50149e-09
1.39797e-09
-5.88251e-09
1.48222e-09
-6.28666e-09
1.57223e-09
-6.71552e-09
1.66836e-09
-7.17075e-09
1.77098e-09
-7.65412e-09
1.88048e-09
-8.16752e-09
1.99727e-09
-8.71293e-09
2.1218e-09
-9.29246e-09
2.25455e-09
-9.90835e-09
2.396e-09
-1.0563e-08
2.5467e-09
-1.12589e-08
2.7072e-09
-1.19987e-08
2.87811e-09
-1.27854e-08
3.06006e-09
-1.36218e-08
3.25371e-09
-1.45112e-08
3.4598e-09
-1.5457e-08
3.67905e-09
-1.64628e-08
3.91228e-09
-1.75324e-08
4.16033e-09
-1.86698e-08
4.42409e-09
-1.98794e-08
4.70448e-09
-2.11657e-08
5.00252e-09
-2.25334e-08
5.31924e-09
-2.39877e-08
5.65573e-09
-2.5534e-08
6.01315e-09
-2.7178e-08
6.3927e-09
-2.89258e-08
6.79564e-09
-3.07836e-08
7.2233e-09
-3.27583e-08
7.67705e-09
-3.48569e-08
8.15832e-09
-3.70869e-08
8.66859e-09
-3.94563e-08
9.20939e-09
-4.19733e-08
9.78228e-09
-4.46466e-08
1.03889e-08
-4.74855e-08
1.10308e-08
-5.04994e-08
1.17097e-08
-5.36984e-08
1.24272e-08
-5.70929e-08
1.31849e-08
-6.06939e-08
1.39845e-08
-6.45125e-08
1.48274e-08
-6.85605e-08
1.57151e-08
-7.28499e-08
1.66489e-08
-7.73929e-08
1.76298e-08
-8.22022e-08
1.86587e-08
-8.72905e-08
1.97362e-08
-9.26706e-08
2.08626e-08
-9.83555e-08
2.20374e-08
-1.04358e-07
2.326e-08
-1.10689e-07
2.45289e-08
-1.17363e-07
2.58417e-08
-1.24388e-07
2.71953e-08
-1.31776e-07
2.85852e-08
-1.39535e-07
3.00061e-08
-1.47671e-07
3.14506e-08
-1.5619e-07
3.29102e-08
-1.65093e-07
3.43742e-08
-1.74379e-07
3.58298e-08
-1.84043e-07
3.72619e-08
-1.94074e-07
3.86528e-08
-2.04459e-07
3.99822e-08
-2.15176e-07
4.12264e-08
-2.26196e-07
4.23591e-08
-2.37485e-07
4.33504e-08
-2.48998e-07
4.41674e-08
-2.60681e-07
4.47742e-08
-2.7247e-07
4.51319e-08
-2.8429e-07
4.51989e-08
-2.96053e-07
4.49319e-08
-3.07662e-07
4.42863e-08
-3.19005e-07
4.32171e-08
-3.29959e-07
4.16782e-08
-3.40386e-07
3.96178e-08
-3.50136e-07
3.69849e-08
3.37749e-08
-3.59058e-07
-1.25818e-10
6.16638e-10
-2.56799e-10
6.41226e-10
-3.89029e-10
6.47216e-10
-5.22857e-10
6.55081e-10
-6.58793e-10
6.65434e-10
-7.97368e-10
6.78413e-10
-9.39132e-10
6.94099e-10
-1.08465e-09
7.1256e-10
-1.2345e-09
7.33863e-10
-1.38928e-09
7.58092e-10
-1.5496e-09
7.85334e-10
-1.7161e-09
8.15694e-10
-1.88943e-09
8.49282e-10
-2.07028e-09
8.86226e-10
-2.25937e-09
9.26664e-10
-2.45743e-09
9.7075e-10
-2.66524e-09
1.01865e-09
-2.88362e-09
1.07055e-09
-3.11343e-09
1.12664e-09
-3.35555e-09
1.18714e-09
-3.61095e-09
1.25228e-09
-3.88061e-09
1.3223e-09
-4.16559e-09
1.39749e-09
-4.467e-09
1.47813e-09
-4.78601e-09
1.56454e-09
-5.12388e-09
1.65704e-09
-5.48191e-09
1.75601e-09
-5.86151e-09
1.86182e-09
-6.26416e-09
1.97487e-09
-6.69141e-09
2.09562e-09
-7.14494e-09
2.22451e-09
-7.6265e-09
2.36204e-09
-8.13797e-09
2.50874e-09
-8.68133e-09
2.66516e-09
-9.25868e-09
2.8319e-09
-9.87227e-09
3.00958e-09
-1.05244e-08
3.19888e-09
-1.12177e-08
3.40049e-09
-1.19548e-08
3.61518e-09
-1.27385e-08
3.84374e-09
-1.35718e-08
4.08702e-09
-1.44579e-08
4.3459e-09
-1.54002e-08
4.62134e-09
-1.64023e-08
4.91434e-09
-1.74679e-08
5.22596e-09
-1.86011e-08
5.55732e-09
-1.98062e-08
5.90961e-09
-2.10878e-08
6.28406e-09
-2.24505e-08
6.68199e-09
-2.38996e-08
7.10477e-09
-2.54403e-08
7.55387e-09
-2.70784e-08
8.03078e-09
-2.88198e-08
8.53712e-09
-3.06711e-08
9.07453e-09
-3.26388e-08
9.64476e-09
-3.47301e-08
1.02496e-08
-3.69524e-08
1.08909e-08
-3.93136e-08
1.15706e-08
-4.18221e-08
1.22907e-08
-4.44865e-08
1.30533e-08
-4.7316e-08
1.38603e-08
-5.03201e-08
1.47138e-08
-5.35089e-08
1.5616e-08
-5.68928e-08
1.65688e-08
-6.04827e-08
1.75744e-08
-6.429e-08
1.86347e-08
-6.83263e-08
1.97514e-08
-7.26036e-08
2.09262e-08
-7.71343e-08
2.21605e-08
-8.19312e-08
2.34555e-08
-8.7007e-08
2.4812e-08
-9.23747e-08
2.62302e-08
-9.80472e-08
2.77099e-08
-1.04037e-07
2.92502e-08
-1.10358e-07
3.08492e-08
-1.1702e-07
3.25041e-08
-1.24036e-07
3.42111e-08
-1.31415e-07
3.59647e-08
-1.39167e-07
3.77581e-08
-1.47299e-07
3.95825e-08
-1.55816e-07
4.14269e-08
-1.6472e-07
4.32782e-08
-1.74011e-07
4.51203e-08
-1.83683e-07
4.69344e-08
-1.93729e-07
4.86984e-08
-2.04133e-07
5.03864e-08
-2.14876e-07
5.19691e-08
-2.2593e-07
5.34131e-08
-2.3726e-07
5.46808e-08
-2.48823e-07
5.57308e-08
-2.60566e-07
5.65174e-08
-2.72426e-07
5.69913e-08
-2.84327e-07
5.71001e-08
-2.96184e-07
5.67885e-08
-3.07897e-07
5.59998e-08
-3.19357e-07
5.46765e-08
-3.30438e-07
5.27595e-08
-3.41003e-07
5.01829e-08
-3.50901e-07
4.68825e-08
4.28512e-08
-3.59977e-07
-1.25226e-10
7.41863e-10
-2.55581e-10
7.71582e-10
-3.87185e-10
7.7882e-10
-5.20382e-10
7.88278e-10
-6.55678e-10
8.0073e-10
-7.93602e-10
8.16337e-10
-9.34702e-10
8.35199e-10
-1.07954e-09
8.57396e-10
-1.22869e-09
8.83012e-10
-1.38274e-09
9.12146e-10
-1.54231e-09
9.44905e-10
-1.70803e-09
9.81412e-10
-1.88055e-09
1.0218e-09
-2.06056e-09
1.06623e-09
-2.24876e-09
1.11486e-09
-2.44589e-09
1.16788e-09
-2.65274e-09
1.22549e-09
-2.87009e-09
1.28791e-09
-3.09882e-09
1.35536e-09
-3.33981e-09
1.42813e-09
-3.59401e-09
1.50647e-09
-3.8624e-09
1.5907e-09
-4.14604e-09
1.68113e-09
-4.44602e-09
1.77812e-09
-4.76354e-09
1.88205e-09
-5.09981e-09
1.99332e-09
-5.45615e-09
2.11235e-09
-5.83396e-09
2.23962e-09
-6.2347e-09
2.37561e-09
-6.65993e-09
2.52085e-09
-7.11131e-09
2.67589e-09
-7.5906e-09
2.84133e-09
-8.09965e-09
3.01779e-09
-8.64044e-09
3.20596e-09
-9.21507e-09
3.40653e-09
-9.82576e-09
3.62027e-09
-1.04749e-08
3.84798e-09
-1.11649e-08
4.09052e-09
-1.18985e-08
4.34879e-09
-1.26785e-08
4.62375e-09
-1.35079e-08
4.91642e-09
-1.43899e-08
5.22787e-09
-1.53278e-08
5.55924e-09
-1.63252e-08
5.91174e-09
-1.73859e-08
6.28666e-09
-1.85139e-08
6.68533e-09
-1.97135e-08
7.10918e-09
-2.09891e-08
7.55971e-09
-2.23456e-08
8.0385e-09
-2.37881e-08
8.54722e-09
-2.53218e-08
9.08761e-09
-2.69526e-08
9.6615e-09
-2.86862e-08
1.02708e-08
-3.05292e-08
1.09175e-08
-3.24883e-08
1.16038e-08
-3.45704e-08
1.23317e-08
-3.67831e-08
1.31036e-08
-3.91342e-08
1.39218e-08
-4.16321e-08
1.47886e-08
-4.42853e-08
1.57065e-08
-4.71031e-08
1.66781e-08
-5.00951e-08
1.77057e-08
-5.32712e-08
1.87921e-08
-5.66419e-08
1.99396e-08
-6.02182e-08
2.11507e-08
-6.40113e-08
2.24278e-08
-6.8033e-08
2.37731e-08
-7.22954e-08
2.51886e-08
-7.6811e-08
2.66761e-08
-8.15925e-08
2.82371e-08
-8.66529e-08
2.98724e-08
-9.20053e-08
3.15826e-08
-9.76627e-08
3.33674e-08
-1.03638e-07
3.52257e-08
-1.09945e-07
3.71555e-08
-1.16594e-07
3.91536e-08
-1.23598e-07
4.12154e-08
-1.30968e-07
4.33344e-08
-1.38712e-07
4.55026e-08
-1.46839e-07
4.77095e-08
-1.55355e-07
4.99421e-08
-1.64261e-07
5.21847e-08
-1.73559e-07
5.44181e-08
-1.83244e-07
5.66198e-08
-1.93309e-07
5.87632e-08
-2.0374e-07
6.08174e-08
-2.14518e-07
6.2747e-08
-2.25617e-07
6.45116e-08
-2.37002e-07
6.60662e-08
-2.48632e-07
6.73604e-08
-2.60453e-07
6.83391e-08
-2.72404e-07
6.89425e-08
-2.84411e-07
6.91068e-08
-2.96387e-07
6.87647e-08
-3.08235e-07
6.7847e-08
-3.19842e-07
6.62837e-08
-3.31084e-07
6.4002e-08
-3.41823e-07
6.09213e-08
-3.51904e-07
5.69639e-08
5.21196e-08
-3.61173e-07
-1.2449e-10
8.66353e-10
-2.54078e-10
9.01172e-10
-3.8491e-10
9.09652e-10
-5.17325e-10
9.20694e-10
-6.51829e-10
9.35234e-10
-7.88948e-10
9.53456e-10
-9.29225e-10
9.75475e-10
-1.07322e-09
1.00139e-09
-1.2215e-09
1.03129e-09
-1.37466e-09
1.06531e-09
-1.5333e-09
1.10355e-09
-1.69806e-09
1.14617e-09
-1.86959e-09
1.19333e-09
-2.04856e-09
1.2452e-09
-2.23567e-09
1.30198e-09
-2.43167e-09
1.36388e-09
-2.63732e-09
1.43114e-09
-2.85343e-09
1.50401e-09
-3.08084e-09
1.58278e-09
-3.32045e-09
1.66773e-09
-3.57318e-09
1.7592e-09
-3.84004e-09
1.85755e-09
-4.12204e-09
1.96314e-09
-4.42031e-09
2.07639e-09
-4.736e-09
2.19774e-09
-5.07034e-09
2.32766e-09
-5.42463e-09
2.46665e-09
-5.80027e-09
2.61526e-09
-6.19871e-09
2.77405e-09
-6.6215e-09
2.94364e-09
-7.07029e-09
3.12468e-09
-7.54683e-09
3.31787e-09
-8.05297e-09
3.52393e-09
-8.59067e-09
3.74366e-09
-9.16201e-09
3.97788e-09
-9.76922e-09
4.22747e-09
-1.04146e-08
4.49339e-09
-1.11007e-08
4.77663e-09
-1.18302e-08
5.07824e-09
-1.26058e-08
5.39935e-09
-1.34305e-08
5.74113e-09
-1.43075e-08
6.10486e-09
-1.52401e-08
6.49186e-09
-1.62319e-08
6.90355e-09
-1.72867e-08
7.34142e-09
-1.84084e-08
7.80704e-09
-1.96013e-08
8.30208e-09
-2.08699e-08
8.8283e-09
-2.22189e-08
9.38754e-09
-2.36535e-08
9.98175e-09
-2.51788e-08
1.0613e-08
-2.68007e-08
1.12834e-08
-2.8525e-08
1.19951e-08
-3.03581e-08
1.27507e-08
-3.23067e-08
1.35524e-08
-3.43779e-08
1.44029e-08
-3.6579e-08
1.53047e-08
-3.89179e-08
1.62607e-08
-4.1403e-08
1.72736e-08
-4.40429e-08
1.83464e-08
-4.68466e-08
1.94818e-08
-4.98239e-08
2.0683e-08
-5.29847e-08
2.19529e-08
-5.63395e-08
2.32944e-08
-5.98993e-08
2.47104e-08
-6.36753e-08
2.62038e-08
-6.76795e-08
2.77772e-08
-7.19239e-08
2.9433e-08
-7.64212e-08
3.11734e-08
-8.11841e-08
3.3e-08
-8.62258e-08
3.49141e-08
-9.15595e-08
3.69163e-08
-9.71985e-08
3.90064e-08
-1.03156e-07
4.11834e-08
-1.09446e-07
4.34449e-08
-1.16079e-07
4.57873e-08
-1.23069e-07
4.82054e-08
-1.30427e-07
5.06919e-08
-1.38162e-07
5.32375e-08
-1.46282e-07
5.58301e-08
-1.54795e-07
5.84549e-08
-1.63704e-07
6.10936e-08
-1.7301e-07
6.3724e-08
-1.8271e-07
6.632e-08
-1.92797e-07
6.88505e-08
-2.0326e-07
7.12797e-08
-2.14079e-07
7.35662e-08
-2.2523e-07
7.56629e-08
-2.36681e-07
7.75168e-08
-2.48389e-07
7.90691e-08
-2.60305e-07
8.02548e-08
-2.72366e-07
8.10036e-08
-2.84499e-07
8.124e-08
-2.9662e-07
8.08848e-08
-3.08628e-07
7.98557e-08
-3.20414e-07
7.80695e-08
-3.31852e-07
7.54398e-08
-3.42801e-07
7.18703e-08
-3.53106e-07
6.72689e-08
6.16219e-08
-3.62608e-07
-1.2362e-10
9.89974e-10
-2.52307e-10
1.02986e-09
-3.82229e-10
1.03957e-09
-5.13726e-10
1.05219e-09
-6.47298e-10
1.06881e-09
-7.83468e-10
1.08963e-09
-9.22775e-10
1.11478e-09
-1.06577e-09
1.14439e-09
-1.21303e-09
1.17855e-09
-1.36514e-09
1.21741e-09
-1.52269e-09
1.26111e-09
-1.68632e-09
1.3098e-09
-1.85667e-09
1.36368e-09
-2.03442e-09
1.42295e-09
-2.22026e-09
1.48782e-09
-2.41492e-09
1.55854e-09
-2.61918e-09
1.63539e-09
-2.83382e-09
1.71865e-09
-3.05969e-09
1.80865e-09
-3.29767e-09
1.90571e-09
-3.54869e-09
2.01022e-09
-3.81373e-09
2.12259e-09
-4.09383e-09
2.24323e-09
-4.39007e-09
2.37263e-09
-4.70362e-09
2.51129e-09
-5.0357e-09
2.65973e-09
-5.3876e-09
2.81855e-09
-5.76069e-09
2.98835e-09
-6.15644e-09
3.16979e-09
-6.57637e-09
3.36358e-09
-7.02213e-09
3.57045e-09
-7.49546e-09
3.79119e-09
-7.99818e-09
4.02666e-09
-8.53226e-09
4.27773e-09
-9.09977e-09
4.54538e-09
-9.7029e-09
4.8306e-09
-1.0344e-08
5.13448e-09
-1.10255e-08
5.45815e-09
-1.17501e-08
5.80282e-09
-1.25205e-08
6.16977e-09
-1.33397e-08
6.56037e-09
-1.42109e-08
6.97604e-09
-1.51374e-08
7.41832e-09
-1.61226e-08
7.88882e-09
-1.71705e-08
8.38924e-09
-1.82848e-08
8.9214e-09
-1.94699e-08
9.4872e-09
-2.07303e-08
1.00886e-08
-2.20706e-08
1.07278e-08
-2.34959e-08
1.1407e-08
-2.50114e-08
1.21286e-08
-2.66229e-08
1.28949e-08
-2.83363e-08
1.37085e-08
-3.01579e-08
1.45722e-08
-3.20943e-08
1.54888e-08
-3.41526e-08
1.64612e-08
-3.63402e-08
1.74923e-08
-3.86649e-08
1.85855e-08
-4.1135e-08
1.97438e-08
-4.37592e-08
2.09705e-08
-4.65466e-08
2.22692e-08
-4.95067e-08
2.36431e-08
-5.26495e-08
2.50958e-08
-5.59857e-08
2.66306e-08
-5.95262e-08
2.82509e-08
-6.32822e-08
2.99599e-08
-6.72658e-08
3.17608e-08
-7.14891e-08
3.36563e-08
-7.59648e-08
3.56491e-08
-8.07058e-08
3.7741e-08
-8.57255e-08
3.99337e-08
-9.10372e-08
4.2228e-08
-9.66546e-08
4.46238e-08
-1.02591e-07
4.71199e-08
-1.0886e-07
4.9714e-08
-1.15475e-07
5.24021e-08
-1.22448e-07
5.51783e-08
-1.29791e-07
5.80346e-08
-1.37514e-07
6.09606e-08
-1.45627e-07
6.39428e-08
-1.54136e-07
6.69644e-08
-1.63047e-07
7.00047e-08
-1.72362e-07
7.30387e-08
-1.82079e-07
7.60366e-08
-1.92191e-07
7.89633e-08
-2.0269e-07
8.17779e-08
-2.13556e-07
8.4433e-08
-2.24768e-07
8.6875e-08
-2.36295e-07
8.90431e-08
-2.48095e-07
9.08695e-08
-2.6012e-07
9.22798e-08
-2.72309e-07
9.31927e-08
-2.84591e-07
9.35212e-08
-2.96879e-07
9.31733e-08
-3.09077e-07
9.20537e-08
-3.21073e-07
9.00652e-08
-3.3274e-07
8.71071e-08
-3.43937e-07
8.3067e-08
-3.54505e-07
7.78374e-08
7.14005e-08
-3.64284e-07
-1.22623e-10
1.1126e-09
-2.50276e-10
1.15751e-09
-3.79156e-10
1.16846e-09
-5.09601e-10
1.18264e-09
-6.42106e-10
1.20131e-09
-7.77188e-10
1.22471e-09
-9.15384e-10
1.25298e-09
-1.05724e-09
1.28625e-09
-1.20333e-09
1.32464e-09
-1.35423e-09
1.36831e-09
-1.51053e-09
1.41741e-09
-1.67287e-09
1.47214e-09
-1.84188e-09
1.53269e-09
-2.01822e-09
1.59929e-09
-2.2026e-09
1.67219e-09
-2.39573e-09
1.75168e-09
-2.59838e-09
1.83804e-09
-2.81134e-09
1.93161e-09
-3.03545e-09
2.03275e-09
-3.27157e-09
2.14183e-09
-3.52063e-09
2.25928e-09
-3.7836e-09
2.38556e-09
-4.06151e-09
2.52114e-09
-4.35544e-09
2.66656e-09
-4.66654e-09
2.82239e-09
-4.99603e-09
2.98922e-09
-5.34519e-09
3.1677e-09
-5.71537e-09
3.35854e-09
-6.10803e-09
3.56246e-09
-6.5247e-09
3.78024e-09
-6.96699e-09
4.01274e-09
-7.43664e-09
4.26084e-09
-7.93546e-09
4.52548e-09
-8.4654e-09
4.80767e-09
-9.02852e-09
5.10849e-09
-9.62698e-09
5.42907e-09
-1.02631e-08
5.77062e-09
-1.09394e-08
6.13442e-09
-1.16584e-08
6.52183e-09
-1.24229e-08
6.93429e-09
-1.32359e-08
7.37333e-09
-1.41004e-08
7.84057e-09
-1.50198e-08
8.33772e-09
-1.59976e-08
8.8666e-09
-1.70375e-08
9.42914e-09
-1.81435e-08
1.00274e-08
-1.93197e-08
1.06634e-08
-2.05706e-08
1.13395e-08
-2.19009e-08
1.20581e-08
-2.33156e-08
1.28217e-08
-2.482e-08
1.36329e-08
-2.64196e-08
1.44945e-08
-2.81205e-08
1.54094e-08
-2.99289e-08
1.63806e-08
-3.18513e-08
1.74113e-08
-3.38949e-08
1.85048e-08
-3.6067e-08
1.96644e-08
-3.83755e-08
2.08939e-08
-4.08284e-08
2.21967e-08
-4.34346e-08
2.35767e-08
-4.62032e-08
2.50377e-08
-4.91436e-08
2.65836e-08
-5.2266e-08
2.82181e-08
-5.55808e-08
2.99454e-08
-5.9099e-08
3.17691e-08
-6.28321e-08
3.3693e-08
-6.6792e-08
3.57207e-08
-7.0991e-08
3.78554e-08
-7.54419e-08
4.00999e-08
-8.01578e-08
4.24569e-08
-8.51521e-08
4.4928e-08
-9.04385e-08
4.75144e-08
-9.60308e-08
5.02161e-08
-1.01943e-07
5.30321e-08
-1.08189e-07
5.59598e-08
-1.14781e-07
5.89949e-08
-1.21734e-07
6.21312e-08
-1.2906e-07
6.53601e-08
-1.36769e-07
6.86699e-08
-1.44872e-07
7.20458e-08
-1.53377e-07
7.54693e-08
-1.6229e-07
7.89175e-08
-1.71614e-07
8.23625e-08
-1.81348e-07
8.57712e-08
-1.91489e-07
8.91044e-08
-2.02027e-07
9.23161e-08
-2.12948e-07
9.53534e-08
-2.24229e-07
9.81558e-08
-2.3584e-07
1.00655e-07
-2.47745e-07
1.02774e-07
-2.59895e-07
1.04429e-07
-2.7223e-07
1.05528e-07
-2.8468e-07
1.05972e-07
-2.97162e-07
1.05655e-07
-3.09577e-07
1.04469e-07
-3.21814e-07
1.02302e-07
-3.33745e-07
9.90387e-08
-3.45228e-07
9.45495e-08
-3.56101e-07
8.87103e-08
8.14987e-08
-3.66199e-07
-1.21499e-10
1.2341e-09
-2.4799e-10
1.28401e-09
-3.75698e-10
1.29616e-09
-5.04961e-10
1.3119e-09
-6.36265e-10
1.33262e-09
-7.70125e-10
1.35857e-09
-9.0707e-10
1.38992e-09
-1.04765e-09
1.42682e-09
-1.19242e-09
1.46941e-09
-1.34196e-09
1.51785e-09
-1.49686e-09
1.57231e-09
-1.65774e-09
1.63301e-09
-1.82523e-09
1.70018e-09
-2e-09
1.77406e-09
-2.18273e-09
1.85493e-09
-2.37415e-09
1.9431e-09
-2.575e-09
2.03889e-09
-2.78607e-09
2.14268e-09
-3.00818e-09
2.25486e-09
-3.24221e-09
2.37586e-09
-3.48906e-09
2.50614e-09
-3.74971e-09
2.6462e-09
-4.02516e-09
2.79659e-09
-4.31649e-09
2.9579e-09
-4.62484e-09
3.13074e-09
-4.95142e-09
3.31579e-09
-5.29749e-09
3.51377e-09
-5.6644e-09
3.72545e-09
-6.05359e-09
3.95165e-09
-6.46658e-09
4.19323e-09
-6.90498e-09
4.45114e-09
-7.37049e-09
4.72635e-09
-7.86492e-09
5.01991e-09
-8.39021e-09
5.33296e-09
-8.94838e-09
5.66666e-09
-9.54161e-09
6.0223e-09
-1.01722e-08
6.4012e-09
-1.08426e-08
6.80479e-09
-1.15553e-08
7.23458e-09
-1.23132e-08
7.69216e-09
-1.31191e-08
8.17925e-09
-1.39761e-08
8.69762e-09
-1.48876e-08
9.24919e-09
-1.5857e-08
9.83598e-09
-1.6888e-08
1.04601e-08
-1.79845e-08
1.11239e-08
-1.91507e-08
1.18296e-08
-2.03909e-08
1.25798e-08
-2.171e-08
1.33772e-08
-2.31128e-08
1.42245e-08
-2.46046e-08
1.51247e-08
-2.61909e-08
1.60809e-08
-2.78777e-08
1.70962e-08
-2.96712e-08
1.81741e-08
-3.1578e-08
1.93181e-08
-3.3605e-08
2.05318e-08
-3.57597e-08
2.18191e-08
-3.80498e-08
2.3184e-08
-4.04835e-08
2.46304e-08
-4.30694e-08
2.61627e-08
-4.58167e-08
2.7785e-08
-4.8735e-08
2.95018e-08
-5.18342e-08
3.13173e-08
-5.51249e-08
3.32361e-08
-5.86181e-08
3.52623e-08
-6.23253e-08
3.74002e-08
-6.62584e-08
3.96538e-08
-7.043e-08
4.20269e-08
-7.48528e-08
4.45228e-08
-7.95401e-08
4.71442e-08
-8.45056e-08
4.98935e-08
-8.97632e-08
5.2772e-08
-9.5327e-08
5.57799e-08
-1.01211e-07
5.89163e-08
-1.0743e-07
6.21787e-08
-1.13998e-07
6.55625e-08
-1.20928e-07
6.90612e-08
-1.28233e-07
7.26654e-08
-1.35926e-07
7.63627e-08
-1.44017e-07
8.0137e-08
-1.52516e-07
8.39682e-08
-1.6143e-07
8.78312e-08
-1.70763e-07
9.16956e-08
-1.80516e-07
9.55249e-08
-1.90688e-07
9.9276e-08
-2.0127e-07
1.02898e-07
-2.12249e-07
1.06333e-07
-2.23606e-07
1.09513e-07
-2.35313e-07
1.12362e-07
-2.47334e-07
1.14795e-07
-2.59623e-07
1.16718e-07
-2.72123e-07
1.18028e-07
-2.84763e-07
1.18612e-07
-2.97462e-07
1.18354e-07
-3.10122e-07
1.17129e-07
-3.22632e-07
1.14812e-07
-3.34863e-07
1.1127e-07
-3.4667e-07
1.06356e-07
-3.57889e-07
9.99293e-08
9.19607e-08
-3.68351e-07
-1.20252e-10
1.35435e-09
-2.45453e-10
1.40921e-09
-3.71861e-10
1.42257e-09
-4.99813e-10
1.43985e-09
-6.29785e-10
1.46259e-09
-7.62287e-10
1.49107e-09
-8.97846e-10
1.52548e-09
-1.037e-09
1.56598e-09
-1.18031e-09
1.61272e-09
-1.32834e-09
1.66588e-09
-1.48168e-09
1.72565e-09
-1.64094e-09
1.79228e-09
-1.80676e-09
1.86599e-09
-1.97978e-09
1.94708e-09
-2.16069e-09
2.03584e-09
-2.3502e-09
2.1326e-09
-2.54905e-09
2.23774e-09
-2.75802e-09
2.35165e-09
-2.97793e-09
2.47477e-09
-3.20964e-09
2.60756e-09
-3.45405e-09
2.75054e-09
-3.71211e-09
2.90426e-09
-3.98483e-09
3.06932e-09
-4.27328e-09
3.24634e-09
-4.57858e-09
3.43604e-09
-4.90192e-09
3.63913e-09
-5.24456e-09
3.85642e-09
-5.60785e-09
4.08874e-09
-5.9932e-09
4.337e-09
-6.40211e-09
4.60214e-09
-6.83617e-09
4.88521e-09
-7.29709e-09
5.18727e-09
-7.78666e-09
5.50948e-09
-8.30678e-09
5.85307e-09
-8.85947e-09
6.21935e-09
-9.44688e-09
6.60971e-09
-1.00713e-08
7.02561e-09
-1.07351e-08
7.46861e-09
-1.14409e-08
7.94037e-09
-1.21914e-08
8.44266e-09
-1.29895e-08
8.97734e-09
-1.38382e-08
9.54637e-09
-1.47409e-08
1.01519e-08
-1.5701e-08
1.0796e-08
-1.6722e-08
1.14812e-08
-1.7808e-08
1.22099e-08
-1.89631e-08
1.29846e-08
-2.01916e-08
1.38083e-08
-2.14982e-08
1.46838e-08
-2.28877e-08
1.56141e-08
-2.43655e-08
1.66025e-08
-2.59371e-08
1.76524e-08
-2.76082e-08
1.87674e-08
-2.93852e-08
1.99511e-08
-3.12745e-08
2.12074e-08
-3.32832e-08
2.25404e-08
-3.54185e-08
2.39544e-08
-3.76882e-08
2.54537e-08
-4.01004e-08
2.70427e-08
-4.26638e-08
2.87261e-08
-4.53875e-08
3.05087e-08
-4.82811e-08
3.23953e-08
-5.13545e-08
3.43908e-08
-5.46183e-08
3.64999e-08
-5.80836e-08
3.87276e-08
-6.17619e-08
4.10785e-08
-6.56652e-08
4.35571e-08
-6.9806e-08
4.61678e-08
-7.41974e-08
4.89142e-08
-7.88529e-08
5.17997e-08
-8.37861e-08
5.48268e-08
-8.90114e-08
5.79973e-08
-9.45431e-08
6.13116e-08
-1.00396e-07
6.47691e-08
-1.06584e-07
6.83672e-08
-1.13123e-07
7.21014e-08
-1.20027e-07
7.59648e-08
-1.27309e-07
7.99475e-08
-1.34983e-07
8.40363e-08
-1.4306e-07
8.82142e-08
-1.51551e-07
9.24593e-08
-1.60465e-07
9.67448e-08
-1.69807e-07
1.01038e-07
-1.7958e-07
1.05298e-07
-1.89784e-07
1.0948e-07
-2.00414e-07
1.13527e-07
-2.11457e-07
1.17376e-07
-2.22897e-07
1.20953e-07
-2.34708e-07
1.24173e-07
-2.46857e-07
1.26944e-07
-2.593e-07
1.29161e-07
-2.7198e-07
1.30708e-07
-2.84832e-07
1.31463e-07
-2.97772e-07
1.31294e-07
-3.10706e-07
1.30062e-07
-3.2352e-07
1.27626e-07
-3.36086e-07
1.23836e-07
-3.48256e-07
1.18527e-07
-3.59864e-07
1.11537e-07
1.02832e-07
-3.70736e-07
-1.18883e-10
1.47323e-09
-2.42669e-10
1.533e-09
-3.67649e-10
1.54756e-09
-4.94162e-10
1.56637e-09
-6.22673e-10
1.5911e-09
-7.53685e-10
1.62208e-09
-8.87721e-10
1.65952e-09
-1.02531e-09
1.70357e-09
-1.16702e-09
1.75442e-09
-1.31339e-09
1.81225e-09
-1.46502e-09
1.87729e-09
-1.62251e-09
1.94977e-09
-1.78648e-09
2.02996e-09
-1.95759e-09
2.11818e-09
-2.13649e-09
2.21474e-09
-2.32391e-09
2.32002e-09
-2.52057e-09
2.4344e-09
-2.72724e-09
2.55833e-09
-2.94473e-09
2.69226e-09
-3.17389e-09
2.83672e-09
-3.41561e-09
2.99227e-09
-3.67084e-09
3.15949e-09
-3.94057e-09
3.33904e-09
-4.22585e-09
3.53162e-09
-4.52779e-09
3.73798e-09
-4.84759e-09
3.95892e-09
-5.18647e-09
4.1953e-09
-5.54578e-09
4.44804e-09
-5.9269e-09
4.71812e-09
-6.33133e-09
5.00658e-09
-6.76065e-09
5.31452e-09
-7.21653e-09
5.64315e-09
-7.70075e-09
5.9937e-09
-8.21519e-09
6.36752e-09
-8.76186e-09
6.76603e-09
-9.34289e-09
7.19073e-09
-9.96052e-09
7.64323e-09
-1.06171e-08
8.12523e-09
-1.13153e-08
8.63854e-09
-1.20577e-08
9.18506e-09
-1.28472e-08
9.76684e-09
-1.36869e-08
1.0386e-08
-1.45799e-08
1.10449e-08
-1.55296e-08
1.17458e-08
-1.65398e-08
1.24914e-08
-1.76143e-08
1.32843e-08
-1.87571e-08
1.41275e-08
-1.99727e-08
1.50239e-08
-2.12655e-08
1.59766e-08
-2.26406e-08
1.69892e-08
-2.4103e-08
1.80649e-08
-2.56583e-08
1.92077e-08
-2.73123e-08
2.04213e-08
-2.90711e-08
2.17099e-08
-3.09412e-08
2.30776e-08
-3.29297e-08
2.45289e-08
-3.50436e-08
2.60684e-08
-3.72909e-08
2.77009e-08
-3.96795e-08
2.94313e-08
-4.22182e-08
3.12648e-08
-4.49159e-08
3.32065e-08
-4.77822e-08
3.52617e-08
-5.08272e-08
3.74357e-08
-5.40614e-08
3.97341e-08
-5.74958e-08
4.21621e-08
-6.11422e-08
4.47248e-08
-6.50125e-08
4.74275e-08
-6.91194e-08
5.02747e-08
-7.34761e-08
5.32708e-08
-7.80961e-08
5.64197e-08
-8.29935e-08
5.97242e-08
-8.81828e-08
6.31866e-08
-9.36788e-08
6.68076e-08
-9.94965e-08
7.05868e-08
-1.05651e-07
7.45219e-08
-1.12158e-07
7.86082e-08