/*--------------------------------*- C++ -*----------------------------------*\
| =========                 |                                                 |
| \\      /  F ield         | OpenFOAM: The Open Source CFD Toolbox           |
|  \\    /   O peration     | Version:  2.4.0                                 |
|   \\  /    A nd           | Web:      www.OpenFOAM.org                      |
|    \\/     M anipulation  |                                                 |
\*---------------------------------------------------------------------------*/
FoamFile
{
    version     2.0;
    format      ascii;
    class       volScalarField;
    location    "0.159";
    object      p_rgh;
}
// * * * * * * * * * * * * * * * * * * * * * * * * * * * * * * * * * * * * * //

dimensions      [1 -1 -2 0 0 0 0];

internalField   nonuniform List<scalar> 
60000
(
97.9619
97.9619
97.962
97.962
97.9621
97.9621
97.9622
97.9624
97.9625
97.9627
97.9628
97.963
97.9633
97.9635
97.9638
97.9641
97.9645
97.9649
97.9653
97.9657
97.9662
97.9667
97.9673
97.9679
97.9685
97.9692
97.97
97.9707
97.9716
97.9725
97.9734
97.9744
97.9755
97.9766
97.9778
97.979
97.9803
97.9817
97.9832
97.9847
97.9862
97.9879
97.9896
97.9914
97.9933
97.9952
97.9972
97.9993
98.0015
98.0038
98.0062
98.0086
98.0112
98.0138
98.0165
98.0194
98.0223
98.0253
98.0284
98.0317
98.035
98.0384
98.042
98.0456
98.0493
98.0531
98.0571
98.0611
98.0652
98.0695
98.0738
98.0782
98.0827
98.0874
98.0921
98.0968
98.1017
98.1067
98.1117
98.1168
98.122
98.1273
98.1326
98.138
98.1435
98.149
98.1545
98.1601
98.1657
98.1714
98.1771
98.1828
98.1885
98.1942
98.1999
98.2056
98.2112
98.2169
98.2225
98.228
97.9619
97.9619
97.962
97.962
97.9621
97.9621
97.9622
97.9624
97.9625
97.9627
97.9628
97.963
97.9633
97.9635
97.9638
97.9641
97.9645
97.9648
97.9653
97.9657
97.9662
97.9667
97.9673
97.9679
97.9685
97.9692
97.9699
97.9707
97.9716
97.9725
97.9734
97.9744
97.9755
97.9766
97.9778
97.979
97.9803
97.9817
97.9831
97.9846
97.9862
97.9879
97.9896
97.9914
97.9932
97.9952
97.9972
97.9993
98.0015
98.0038
98.0062
98.0086
98.0112
98.0138
98.0165
98.0194
98.0223
98.0253
98.0284
98.0317
98.035
98.0384
98.0419
98.0456
98.0493
98.0531
98.0571
98.0611
98.0652
98.0695
98.0738
98.0782
98.0827
98.0873
98.092
98.0968
98.1017
98.1067
98.1117
98.1168
98.122
98.1273
98.1326
98.138
98.1434
98.1489
98.1545
98.1601
98.1657
98.1714
98.1771
98.1828
98.1885
98.1942
98.1999
98.2056
98.2113
98.2169
98.2225
98.228
97.9619
97.9619
97.962
97.962
97.9621
97.9621
97.9622
97.9624
97.9625
97.9626
97.9628
97.963
97.9633
97.9635
97.9638
97.9641
97.9645
97.9648
97.9652
97.9657
97.9662
97.9667
97.9672
97.9678
97.9685
97.9692
97.9699
97.9707
97.9715
97.9724
97.9734
97.9744
97.9755
97.9766
97.9778
97.979
97.9803
97.9817
97.9831
97.9846
97.9862
97.9878
97.9896
97.9913
97.9932
97.9952
97.9972
97.9993
98.0015
98.0038
98.0061
98.0086
98.0111
98.0137
98.0165
98.0193
98.0222
98.0253
98.0284
98.0316
98.0349
98.0384
98.0419
98.0455
98.0493
98.0531
98.057
98.0611
98.0652
98.0694
98.0737
98.0782
98.0827
98.0873
98.092
98.0968
98.1017
98.1066
98.1117
98.1168
98.122
98.1272
98.1326
98.138
98.1434
98.1489
98.1545
98.1601
98.1657
98.1714
98.1771
98.1828
98.1885
98.1942
98.1999
98.2056
98.2113
98.2169
98.2225
98.228
97.9619
97.9619
97.9619
97.962
97.9621
97.9621
97.9622
97.9623
97.9625
97.9626
97.9628
97.963
97.9632
97.9635
97.9638
97.9641
97.9644
97.9648
97.9652
97.9657
97.9661
97.9667
97.9672
97.9678
97.9685
97.9691
97.9699
97.9707
97.9715
97.9724
97.9734
97.9744
97.9754
97.9765
97.9777
97.979
97.9803
97.9816
97.9831
97.9846
97.9861
97.9878
97.9895
97.9913
97.9932
97.9951
97.9971
97.9992
98.0014
98.0037
98.0061
98.0085
98.011
98.0137
98.0164
98.0192
98.0222
98.0252
98.0283
98.0315
98.0349
98.0383
98.0418
98.0455
98.0492
98.053
98.0569
98.061
98.0651
98.0693
98.0737
98.0781
98.0826
98.0872
98.0919
98.0967
98.1016
98.1066
98.1116
98.1167
98.1219
98.1272
98.1325
98.1379
98.1434
98.1489
98.1544
98.16
98.1657
98.1713
98.177
98.1827
98.1885
98.1942
98.1999
98.2056
98.2113
98.2169
98.2225
98.2281
97.9619
97.9619
97.9619
97.962
97.962
97.9621
97.9622
97.9623
97.9625
97.9626
97.9628
97.963
97.9632
97.9635
97.9638
97.9641
97.9644
97.9648
97.9652
97.9656
97.9661
97.9666
97.9672
97.9678
97.9684
97.9691
97.9698
97.9706
97.9715
97.9724
97.9733
97.9743
97.9754
97.9765
97.9777
97.9789
97.9802
97.9816
97.983
97.9845
97.9861
97.9877
97.9894
97.9912
97.9931
97.995
97.997
97.9991
98.0013
98.0036
98.006
98.0084
98.011
98.0136
98.0163
98.0192
98.0221
98.0251
98.0282
98.0314
98.0348
98.0382
98.0417
98.0454
98.0491
98.0529
98.0569
98.0609
98.065
98.0693
98.0736
98.078
98.0825
98.0871
98.0918
98.0966
98.1015
98.1065
98.1115
98.1167
98.1219
98.1271
98.1325
98.1379
98.1433
98.1488
98.1544
98.16
98.1656
98.1713
98.177
98.1827
98.1885
98.1942
98.1999
98.2056
98.2113
98.217
98.2226
98.2281
97.9619
97.9619
97.9619
97.962
97.962
97.9621
97.9622
97.9623
97.9624
97.9626
97.9628
97.963
97.9632
97.9634
97.9637
97.964
97.9644
97.9647
97.9651
97.9656
97.9661
97.9666
97.9671
97.9677
97.9684
97.969
97.9698
97.9706
97.9714
97.9723
97.9732
97.9742
97.9753
97.9764
97.9776
97.9788
97.9801
97.9815
97.9829
97.9844
97.986
97.9876
97.9893
97.9911
97.993
97.9949
97.9969
97.9991
98.0012
98.0035
98.0059
98.0083
98.0109
98.0135
98.0162
98.019
98.022
98.025
98.0281
98.0313
98.0347
98.0381
98.0416
98.0452
98.049
98.0528
98.0567
98.0608
98.0649
98.0691
98.0735
98.0779
98.0824
98.087
98.0917
98.0965
98.1014
98.1064
98.1114
98.1166
98.1218
98.127
98.1324
98.1378
98.1432
98.1488
98.1543
98.1599
98.1656
98.1713
98.177
98.1827
98.1885
98.1942
98.1999
98.2056
98.2113
98.217
98.2226
98.2282
97.9619
97.9619
97.9619
97.9619
97.962
97.9621
97.9622
97.9623
97.9624
97.9626
97.9627
97.9629
97.9632
97.9634
97.9637
97.964
97.9643
97.9647
97.9651
97.9655
97.966
97.9665
97.9671
97.9677
97.9683
97.969
97.9697
97.9705
97.9713
97.9722
97.9732
97.9742
97.9752
97.9763
97.9775
97.9787
97.98
97.9814
97.9828
97.9843
97.9859
97.9875
97.9892
97.991
97.9929
97.9948
97.9968
97.9989
98.0011
98.0034
98.0057
98.0082
98.0107
98.0133
98.0161
98.0189
98.0218
98.0248
98.028
98.0312
98.0345
98.0379
98.0415
98.0451
98.0488
98.0527
98.0566
98.0606
98.0648
98.069
98.0733
98.0778
98.0823
98.0869
98.0916
98.0964
98.1013
98.1063
98.1113
98.1164
98.1217
98.1269
98.1323
98.1377
98.1432
98.1487
98.1543
98.1599
98.1655
98.1712
98.177
98.1827
98.1884
98.1942
98.1999
98.2057
98.2114
98.2171
98.2227
98.2283
97.9618
97.9618
97.9619
97.9619
97.962
97.962
97.9621
97.9622
97.9624
97.9625
97.9627
97.9629
97.9631
97.9634
97.9636
97.9639
97.9643
97.9646
97.965
97.9655
97.9659
97.9664
97.967
97.9676
97.9682
97.9689
97.9696
97.9704
97.9712
97.9721
97.9731
97.9741
97.9751
97.9762
97.9774
97.9786
97.9799
97.9813
97.9827
97.9842
97.9858
97.9874
97.9891
97.9909
97.9927
97.9947
97.9967
97.9988
98.001
98.0032
98.0056
98.008
98.0106
98.0132
98.0159
98.0187
98.0217
98.0247
98.0278
98.031
98.0343
98.0378
98.0413
98.0449
98.0486
98.0525
98.0564
98.0605
98.0646
98.0688
98.0732
98.0776
98.0821
98.0867
98.0915
98.0963
98.1011
98.1061
98.1112
98.1163
98.1215
98.1268
98.1322
98.1376
98.1431
98.1486
98.1542
98.1598
98.1655
98.1712
98.1769
98.1827
98.1884
98.1942
98.2
98.2057
98.2114
98.2171
98.2228
98.2284
97.9618
97.9618
97.9618
97.9619
97.9619
97.962
97.9621
97.9622
97.9623
97.9625
97.9626
97.9628
97.9631
97.9633
97.9636
97.9639
97.9642
97.9646
97.965
97.9654
97.9659
97.9664
97.9669
97.9675
97.9681
97.9688
97.9695
97.9703
97.9711
97.972
97.9729
97.9739
97.975
97.9761
97.9773
97.9785
97.9798
97.9812
97.9826
97.9841
97.9856
97.9873
97.989
97.9907
97.9926
97.9945
97.9965
97.9986
98.0008
98.0031
98.0054
98.0078
98.0104
98.013
98.0157
98.0185
98.0215
98.0245
98.0276
98.0308
98.0341
98.0376
98.0411
98.0447
98.0485
98.0523
98.0562
98.0603
98.0644
98.0686
98.073
98.0774
98.0819
98.0866
98.0913
98.0961
98.101
98.106
98.111
98.1162
98.1214
98.1267
98.132
98.1375
98.143
98.1485
98.1541
98.1597
98.1654
98.1711
98.1769
98.1826
98.1884
98.1942
98.2
98.2058
98.2115
98.2172
98.2229
98.2285
97.9618
97.9618
97.9618
97.9618
97.9619
97.962
97.9621
97.9622
97.9623
97.9624
97.9626
97.9628
97.963
97.9632
97.9635
97.9638
97.9641
97.9645
97.9649
97.9653
97.9658
97.9663
97.9668
97.9674
97.968
97.9687
97.9694
97.9702
97.971
97.9719
97.9728
97.9738
97.9749
97.976
97.9771
97.9784
97.9797
97.981
97.9824
97.9839
97.9855
97.9871
97.9888
97.9906
97.9924
97.9944
97.9964
97.9984
98.0006
98.0029
98.0052
98.0076
98.0102
98.0128
98.0155
98.0183
98.0212
98.0243
98.0274
98.0306
98.0339
98.0373
98.0409
98.0445
98.0482
98.0521
98.056
98.06
98.0642
98.0684
98.0728
98.0772
98.0817
98.0864
98.0911
98.0959
98.1008
98.1058
98.1108
98.116
98.1212
98.1265
98.1319
98.1373
98.1428
98.1484
98.154
98.1596
98.1653
98.1711
98.1768
98.1826
98.1884
98.1942
98.2
98.2058
98.2116
98.2173
98.223
98.2286
97.9617
97.9617
97.9618
97.9618
97.9619
97.9619
97.962
97.9621
97.9622
97.9624
97.9625
97.9627
97.9629
97.9632
97.9634
97.9637
97.9641
97.9644
97.9648
97.9652
97.9657
97.9662
97.9667
97.9673
97.9679
97.9686
97.9693
97.9701
97.9709
97.9718
97.9727
97.9737
97.9747
97.9758
97.977
97.9782
97.9795
97.9809
97.9823
97.9838
97.9853
97.9869
97.9886
97.9904
97.9922
97.9942
97.9962
97.9982
98.0004
98.0027
98.005
98.0074
98.0099
98.0126
98.0153
98.0181
98.021
98.024
98.0271
98.0303
98.0337
98.0371
98.0406
98.0442
98.048
98.0518
98.0558
98.0598
98.0639
98.0682
98.0725
98.077
98.0815
98.0861
98.0909
98.0957
98.1006
98.1056
98.1106
98.1158
98.121
98.1263
98.1317
98.1372
98.1427
98.1483
98.1539
98.1595
98.1653
98.171
98.1768
98.1826
98.1884
98.1942
98.2
98.2059
98.2116
98.2174
98.2231
98.2288
97.9617
97.9617
97.9617
97.9618
97.9618
97.9619
97.962
97.9621
97.9622
97.9623
97.9625
97.9627
97.9629
97.9631
97.9634
97.9637
97.964
97.9643
97.9647
97.9651
97.9656
97.9661
97.9666
97.9672
97.9678
97.9684
97.9692
97.9699
97.9707
97.9716
97.9725
97.9735
97.9746
97.9757
97.9768
97.978
97.9793
97.9807
97.9821
97.9836
97.9851
97.9867
97.9884
97.9902
97.992
97.9939
97.9959
97.998
98.0002
98.0024
98.0048
98.0072
98.0097
98.0123
98.015
98.0178
98.0207
98.0237
98.0269
98.0301
98.0334
98.0368
98.0403
98.044
98.0477
98.0515
98.0555
98.0595
98.0637
98.0679
98.0723
98.0767
98.0813
98.0859
98.0906
98.0954
98.1004
98.1053
98.1104
98.1156
98.1208
98.1262
98.1315
98.137
98.1425
98.1481
98.1537
98.1594
98.1652
98.1709
98.1767
98.1825
98.1884
98.1942
98.2001
98.2059
98.2117
98.2175
98.2233
98.229
97.9617
97.9617
97.9617
97.9617
97.9618
97.9618
97.9619
97.962
97.9621
97.9623
97.9624
97.9626
97.9628
97.963
97.9633
97.9636
97.9639
97.9642
97.9646
97.965
97.9655
97.9659
97.9665
97.967
97.9676
97.9683
97.969
97.9698
97.9706
97.9715
97.9724
97.9733
97.9744
97.9755
97.9766
97.9779
97.9791
97.9805
97.9819
97.9834
97.9849
97.9865
97.9882
97.99
97.9918
97.9937
97.9957
97.9978
97.9999
98.0022
98.0045
98.0069
98.0094
98.012
98.0147
98.0175
98.0204
98.0235
98.0266
98.0298
98.0331
98.0365
98.04
98.0437
98.0474
98.0512
98.0552
98.0592
98.0634
98.0676
98.072
98.0764
98.081
98.0856
98.0904
98.0952
98.1001
98.1051
98.1102
98.1154
98.1206
98.1259
98.1313
98.1368
98.1424
98.148
98.1536
98.1593
98.1651
98.1708
98.1767
98.1825
98.1884
98.1942
98.2001
98.206
98.2118
98.2176
98.2234
98.2291
97.9616
97.9616
97.9616
97.9617
97.9617
97.9618
97.9619
97.9619
97.9621
97.9622
97.9623
97.9625
97.9627
97.9629
97.9632
97.9635
97.9638
97.9641
97.9645
97.9649
97.9653
97.9658
97.9663
97.9669
97.9675
97.9682
97.9689
97.9696
97.9704
97.9713
97.9722
97.9732
97.9742
97.9753
97.9764
97.9777
97.9789
97.9803
97.9817
97.9832
97.9847
97.9863
97.988
97.9897
97.9916
97.9935
97.9954
97.9975
97.9996
98.0019
98.0042
98.0066
98.0091
98.0117
98.0144
98.0172
98.0201
98.0231
98.0262
98.0295
98.0328
98.0362
98.0397
98.0433
98.0471
98.0509
98.0549
98.0589
98.0631
98.0673
98.0717
98.0761
98.0807
98.0853
98.0901
98.0949
98.0998
98.1048
98.1099
98.1151
98.1204
98.1257
98.1311
98.1366
98.1422
98.1478
98.1535
98.1592
98.1649
98.1707
98.1766
98.1825
98.1883
98.1942
98.2001
98.206
98.2119
98.2178
98.2236
98.2293
97.9616
97.9616
97.9616
97.9616
97.9617
97.9617
97.9618
97.9619
97.962
97.9621
97.9623
97.9624
97.9626
97.9628
97.9631
97.9634
97.9637
97.964
97.9644
97.9648
97.9652
97.9657
97.9662
97.9667
97.9673
97.968
97.9687
97.9694
97.9702
97.9711
97.972
97.973
97.974
97.9751
97.9762
97.9774
97.9787
97.98
97.9814
97.9829
97.9845
97.9861
97.9877
97.9895
97.9913
97.9932
97.9952
97.9972
97.9994
98.0016
98.0039
98.0063
98.0088
98.0114
98.0141
98.0169
98.0198
98.0228
98.0259
98.0291
98.0324
98.0358
98.0394
98.043
98.0467
98.0506
98.0545
98.0586
98.0627
98.067
98.0713
98.0758
98.0803
98.085
98.0897
98.0946
98.0995
98.1045
98.1097
98.1148
98.1201
98.1255
98.1309
98.1364
98.142
98.1476
98.1533
98.159
98.1648
98.1706
98.1765
98.1824
98.1883
98.1942
98.2002
98.2061
98.212
98.2179
98.2238
98.2296
97.9615
97.9615
97.9615
97.9616
97.9616
97.9617
97.9617
97.9618
97.9619
97.962
97.9622
97.9623
97.9625
97.9627
97.963
97.9633
97.9635
97.9639
97.9642
97.9646
97.9651
97.9655
97.966
97.9666
97.9672
97.9678
97.9685
97.9692
97.97
97.9709
97.9718
97.9728
97.9738
97.9749
97.976
97.9772
97.9785
97.9798
97.9812
97.9827
97.9842
97.9858
97.9875
97.9892
97.991
97.9929
97.9949
97.9969
97.999
98.0013
98.0036
98.006
98.0085
98.011
98.0137
98.0165
98.0194
98.0224
98.0255
98.0287
98.032
98.0355
98.039
98.0426
98.0463
98.0502
98.0541
98.0582
98.0624
98.0666
98.071
98.0754
98.08
98.0847
98.0894
98.0943
98.0992
98.1042
98.1093
98.1146
98.1198
98.1252
98.1306
98.1362
98.1417
98.1474
98.1531
98.1589
98.1647
98.1705
98.1764
98.1823
98.1883
98.1943
98.2002
98.2062
98.2121
98.218
98.2239
98.2298
97.9615
97.9615
97.9615
97.9615
97.9615
97.9616
97.9617
97.9617
97.9618
97.962
97.9621
97.9622
97.9624
97.9626
97.9629
97.9631
97.9634
97.9637
97.9641
97.9645
97.9649
97.9654
97.9659
97.9664
97.967
97.9676
97.9683
97.969
97.9698
97.9707
97.9716
97.9725
97.9735
97.9746
97.9758
97.977
97.9782
97.9795
97.9809
97.9824
97.9839
97.9855
97.9872
97.9889
97.9907
97.9926
97.9945
97.9966
97.9987
98.0009
98.0032
98.0056
98.0081
98.0107
98.0133
98.0161
98.019
98.022
98.0251
98.0283
98.0316
98.035
98.0386
98.0422
98.0459
98.0498
98.0537
98.0578
98.062
98.0662
98.0706
98.0751
98.0796
98.0843
98.089
98.0939
98.0989
98.1039
98.109
98.1142
98.1195
98.1249
98.1304
98.1359
98.1415
98.1472
98.1529
98.1587
98.1645
98.1704
98.1763
98.1823
98.1883
98.1943
98.2003
98.2063
98.2122
98.2182
98.2241
98.23
97.9614
97.9614
97.9614
97.9614
97.9615
97.9615
97.9616
97.9617
97.9617
97.9619
97.962
97.9621
97.9623
97.9625
97.9628
97.963
97.9633
97.9636
97.9639
97.9643
97.9647
97.9652
97.9657
97.9662
97.9668
97.9674
97.9681
97.9688
97.9696
97.9704
97.9713
97.9723
97.9733
97.9744
97.9755
97.9767
97.9779
97.9793
97.9807
97.9821
97.9836
97.9852
97.9869
97.9886
97.9904
97.9922
97.9942
97.9962
97.9983
98.0005
98.0028
98.0052
98.0077
98.0103
98.0129
98.0157
98.0186
98.0216
98.0247
98.0279
98.0312
98.0346
98.0381
98.0418
98.0455
98.0494
98.0533
98.0574
98.0615
98.0658
98.0702
98.0746
98.0792
98.0839
98.0887
98.0935
98.0985
98.1035
98.1087
98.1139
98.1192
98.1246
98.1301
98.1356
98.1413
98.1469
98.1527
98.1585
98.1644
98.1703
98.1762
98.1822
98.1882
98.1943
98.2003
98.2063
98.2124
98.2184
98.2243
98.2303
97.9613
97.9613
97.9614
97.9614
97.9614
97.9614
97.9615
97.9616
97.9617
97.9618
97.9619
97.962
97.9622
97.9624
97.9626
97.9629
97.9632
97.9635
97.9638
97.9642
97.9646
97.965
97.9655
97.966
97.9666
97.9672
97.9679
97.9686
97.9694
97.9702
97.9711
97.972
97.973
97.9741
97.9752
97.9764
97.9777
97.979
97.9804
97.9818
97.9833
97.9849
97.9865
97.9883
97.99
97.9919
97.9938
97.9959
97.998
98.0001
98.0024
98.0048
98.0073
98.0098
98.0125
98.0153
98.0182
98.0211
98.0242
98.0274
98.0307
98.0342
98.0377
98.0413
98.0451
98.0489
98.0529
98.0569
98.0611
98.0654
98.0697
98.0742
98.0788
98.0835
98.0883
98.0931
98.0981
98.1032
98.1083
98.1136
98.1189
98.1243
98.1298
98.1353
98.141
98.1467
98.1525
98.1583
98.1642
98.1701
98.1761
98.1821
98.1882
98.1943
98.2003
98.2064
98.2125
98.2185
98.2246
98.2305
97.9613
97.9613
97.9613
97.9613
97.9613
97.9614
97.9614
97.9615
97.9616
97.9617
97.9618
97.9619
97.9621
97.9623
97.9625
97.9627
97.963
97.9633
97.9636
97.964
97.9644
97.9648
97.9653
97.9658
97.9664
97.967
97.9676
97.9683
97.9691
97.9699
97.9708
97.9717
97.9727
97.9738
97.9749
97.9761
97.9774
97.9787
97.98
97.9815
97.983
97.9846
97.9862
97.9879
97.9897
97.9915
97.9935
97.9955
97.9975
97.9997
98.002
98.0044
98.0068
98.0094
98.012
98.0148
98.0177
98.0207
98.0238
98.0269
98.0303
98.0337
98.0372
98.0408
98.0446
98.0484
98.0524
98.0564
98.0606
98.0649
98.0693
98.0738
98.0783
98.083
98.0878
98.0927
98.0977
98.1028
98.1079
98.1132
98.1185
98.1239
98.1295
98.135
98.1407
98.1464
98.1522
98.1581
98.164
98.17
98.176
98.1821
98.1881
98.1942
98.2004
98.2065
98.2126
98.2187
98.2248
98.2308
97.9612
97.9612
97.9612
97.9612
97.9613
97.9613
97.9613
97.9614
97.9615
97.9616
97.9617
97.9618
97.962
97.9622
97.9624
97.9626
97.9629
97.9631
97.9635
97.9638
97.9642
97.9646
97.9651
97.9656
97.9661
97.9667
97.9674
97.9681
97.9688
97.9697
97.9705
97.9715
97.9724
97.9735
97.9746
97.9758
97.977
97.9784
97.9797
97.9812
97.9826
97.9842
97.9858
97.9875
97.9893
97.9911
97.993
97.995
97.9971
97.9993
98.0015
98.0039
98.0064
98.0089
98.0116
98.0143
98.0172
98.0202
98.0232
98.0264
98.0297
98.0332
98.0367
98.0403
98.0441
98.0479
98.0519
98.0559
98.0601
98.0644
98.0688
98.0733
98.0779
98.0826
98.0874
98.0923
98.0972
98.1023
98.1075
98.1128
98.1181
98.1236
98.1291
98.1347
98.1404
98.1462
98.152
98.1579
98.1638
98.1698
98.1759
98.182
98.1881
98.1942
98.2004
98.2066
98.2127
98.2189
98.225
98.2311
97.9612
97.9612
97.9612
97.9612
97.9612
97.9612
97.9613
97.9613
97.9614
97.9615
97.9616
97.9617
97.9618
97.962
97.9622
97.9624
97.9627
97.963
97.9633
97.9636
97.964
97.9644
97.9649
97.9654
97.9659
97.9665
97.9671
97.9678
97.9686
97.9694
97.9702
97.9711
97.9721
97.9732
97.9743
97.9755
97.9767
97.978
97.9794
97.9808
97.9823
97.9838
97.9855
97.9871
97.9889
97.9907
97.9926
97.9946
97.9967
97.9988
98.0011
98.0034
98.0059
98.0084
98.011
98.0138
98.0167
98.0196
98.0227
98.0259
98.0292
98.0326
98.0361
98.0398
98.0435
98.0474
98.0513
98.0554
98.0596
98.0639
98.0683
98.0728
98.0774
98.0821
98.0869
98.0918
98.0968
98.1019
98.1071
98.1124
98.1177
98.1232
98.1287
98.1344
98.1401
98.1459
98.1517
98.1576
98.1636
98.1696
98.1757
98.1819
98.188
98.1942
98.2004
98.2067
98.2129
98.2191
98.2253
98.2314
97.9611
97.9611
97.9611
97.9611
97.9611
97.9611
97.9612
97.9612
97.9613
97.9613
97.9614
97.9616
97.9617
97.9619
97.9621
97.9623
97.9625
97.9628
97.9631
97.9634
97.9638
97.9642
97.9646
97.9651
97.9656
97.9662
97.9668
97.9675
97.9683
97.9691
97.9699
97.9708
97.9718
97.9729
97.974
97.9751
97.9764
97.9777
97.979
97.9804
97.9819
97.9835
97.9851
97.9867
97.9885
97.9903
97.9922
97.9942
97.9962
97.9983
98.0006
98.0029
98.0053
98.0079
98.0105
98.0132
98.0161
98.0191
98.0221
98.0253
98.0286
98.032
98.0356
98.0392
98.0429
98.0468
98.0508
98.0549
98.059
98.0633
98.0677
98.0722
98.0768
98.0816
98.0864
98.0913
98.0963
98.1014
98.1066
98.1119
98.1173
98.1228
98.1283
98.134
98.1397
98.1455
98.1514
98.1574
98.1634
98.1695
98.1756
98.1818
98.188
98.1942
98.2005
98.2067
98.213
98.2193
98.2255
98.2318
97.961
97.961
97.961
97.961
97.961
97.961
97.9611
97.9611
97.9612
97.9612
97.9613
97.9614
97.9616
97.9617
97.9619
97.9621
97.9623
97.9626
97.9629
97.9632
97.9636
97.964
97.9644
97.9649
97.9654
97.9659
97.9666
97.9672
97.9679
97.9687
97.9696
97.9705
97.9715
97.9725
97.9736
97.9748
97.976
97.9773
97.9786
97.9801
97.9815
97.9831
97.9847
97.9863
97.9881
97.9898
97.9917
97.9937
97.9957
97.9978
98.0001
98.0024
98.0048
98.0073
98.0099
98.0127
98.0155
98.0185
98.0216
98.0247
98.028
98.0314
98.035
98.0386
98.0424
98.0462
98.0502
98.0543
98.0585
98.0628
98.0672
98.0717
98.0763
98.081
98.0858
98.0908
98.0958
98.1009
98.1061
98.1114
98.1169
98.1224
98.1279
98.1336
98.1394
98.1452
98.1511
98.1571
98.1631
98.1693
98.1754
98.1816
98.1879
98.1942
98.2005
98.2068
98.2132
98.2195
98.2258
98.2321
97.961
97.961
97.961
97.961
97.9609
97.961
97.961
97.961
97.961
97.9611
97.9612
97.9613
97.9614
97.9616
97.9617
97.9619
97.9622
97.9624
97.9627
97.963
97.9633
97.9637
97.9641
97.9646
97.9651
97.9656
97.9663
97.9669
97.9676
97.9684
97.9692
97.9701
97.9711
97.9721
97.9732
97.9744
97.9756
97.9769
97.9783
97.9797
97.9811
97.9826
97.9842
97.9859
97.9876
97.9894
97.9912
97.9932
97.9952
97.9973
97.9995
98.0018
98.0042
98.0067
98.0093
98.0121
98.0149
98.0179
98.0209
98.0241
98.0274
98.0308
98.0343
98.038
98.0417
98.0456
98.0496
98.0537
98.0579
98.0622
98.0666
98.0711
98.0757
98.0804
98.0853
98.0902
98.0953
98.1004
98.1056
98.111
98.1164
98.1219
98.1275
98.1332
98.139
98.1449
98.1508
98.1568
98.1629
98.169
98.1753
98.1815
98.1878
98.1942
98.2005
98.2069
98.2133
98.2197
98.2261
98.2324
97.9609
97.9609
97.9609
97.9609
97.9609
97.9609
97.9609
97.9609
97.9609
97.961
97.961
97.9611
97.9613
97.9614
97.9616
97.9618
97.962
97.9622
97.9625
97.9628
97.9631
97.9635
97.9639
97.9643
97.9648
97.9653
97.9659
97.9666
97.9673
97.968
97.9689
97.9698
97.9707
97.9718
97.9729
97.974
97.9752
97.9765
97.9778
97.9792
97.9807
97.9822
97.9838
97.9854
97.9871
97.9889
97.9907
97.9927
97.9947
97.9968
97.9989
98.0012
98.0036
98.0061
98.0087
98.0114
98.0143
98.0172
98.0203
98.0235
98.0268
98.0302
98.0337
98.0373
98.0411
98.0449
98.0489
98.053
98.0572
98.0615
98.066
98.0705
98.0751
98.0799
98.0847
98.0896
98.0947
98.0998
98.1051
98.1104
98.1159
98.1214
98.1271
98.1328
98.1386
98.1445
98.1505
98.1565
98.1626
98.1688
98.1751
98.1814
98.1877
98.1941
98.2005
98.207
98.2134
98.2199
98.2264
98.2328
97.9608
97.9608
97.9608
97.9608
97.9608
97.9608
97.9608
97.9608
97.9608
97.9608
97.9609
97.961
97.9611
97.9612
97.9614
97.9616
97.9618
97.962
97.9623
97.9626
97.9629
97.9632
97.9636
97.964
97.9645
97.965
97.9656
97.9662
97.9669
97.9677
97.9685
97.9694
97.9703
97.9714
97.9724
97.9736
97.9748
97.9761
97.9774
97.9788
97.9803
97.9818
97.9833
97.985
97.9866
97.9884
97.9902
97.9921
97.9941
97.9962
97.9983
98.0006
98.003
98.0055
98.0081
98.0108
98.0136
98.0166
98.0196
98.0228
98.0261
98.0295
98.033
98.0366
98.0404
98.0443
98.0483
98.0523
98.0566
98.0609
98.0653
98.0698
98.0745
98.0792
98.0841
98.089
98.0941
98.0993
98.1045
98.1099
98.1154
98.1209
98.1266
98.1323
98.1382
98.1441
98.1501
98.1562
98.1623
98.1686
98.1749
98.1812
98.1876
98.1941
98.2006
98.2071
98.2136
98.2201
98.2266
98.2331
97.9608
97.9608
97.9607
97.9607
97.9607
97.9607
97.9607
97.9607
97.9607
97.9607
97.9608
97.9608
97.9609
97.9611
97.9612
97.9614
97.9616
97.9618
97.962
97.9623
97.9626
97.963
97.9633
97.9637
97.9642
97.9647
97.9653
97.9659
97.9666
97.9673
97.9681
97.969
97.9699
97.9709
97.972
97.9732
97.9744
97.9757
97.977
97.9784
97.9798
97.9813
97.9829
97.9845
97.9861
97.9879
97.9897
97.9916
97.9935
97.9956
97.9977
98
98.0023
98.0048
98.0074
98.0101
98.0129
98.0159
98.0189
98.0221
98.0254
98.0288
98.0323
98.0359
98.0397
98.0436
98.0476
98.0517
98.0559
98.0602
98.0646
98.0692
98.0738
98.0786
98.0835
98.0884
98.0935
98.0987
98.104
98.1093
98.1148
98.1204
98.1261
98.1319
98.1377
98.1437
98.1497
98.1558
98.162
98.1683
98.1746
98.1811
98.1875
98.194
98.2006
98.2071
98.2137
98.2203
98.2269
98.2335
97.9607
97.9607
97.9607
97.9606
97.9606
97.9606
97.9605
97.9605
97.9605
97.9606
97.9606
97.9607
97.9608
97.9609
97.961
97.9612
97.9614
97.9616
97.9618
97.9621
97.9624
97.9627
97.963
97.9634
97.9639
97.9644
97.9649
97.9655
97.9662
97.9669
97.9677
97.9686
97.9695
97.9705
97.9716
97.9727
97.9739
97.9752
97.9765
97.9779
97.9794
97.9808
97.9824
97.984
97.9856
97.9873
97.9891
97.991
97.9929
97.995
97.9971
97.9993
98.0017
98.0041
98.0067
98.0094
98.0122
98.0151
98.0182
98.0213
98.0246
98.028
98.0316
98.0352
98.039
98.0428
98.0468
98.0509
98.0551
98.0595
98.0639
98.0685
98.0731
98.0779
98.0828
98.0878
98.0929
98.0981
98.1033
98.1087
98.1143
98.1199
98.1256
98.1314
98.1372
98.1432
98.1493
98.1555
98.1617
98.168
98.1744
98.1809
98.1874
98.194
98.2006
98.2072
98.2139
98.2205
98.2272
98.2339
97.9607
97.9606
97.9606
97.9606
97.9605
97.9605
97.9604
97.9604
97.9604
97.9604
97.9604
97.9605
97.9606
97.9607
97.9608
97.961
97.9612
97.9614
97.9616
97.9618
97.9621
97.9624
97.9627
97.9631
97.9635
97.964
97.9645
97.9651
97.9658
97.9665
97.9673
97.9681
97.9691
97.9701
97.9711
97.9723
97.9735
97.9748
97.9761
97.9775
97.9789
97.9804
97.9819
97.9835
97.9851
97.9868
97.9885
97.9904
97.9923
97.9943
97.9964
97.9986
98.001
98.0034
98.006
98.0086
98.0114
98.0144
98.0174
98.0206
98.0239
98.0273
98.0308
98.0344
98.0382
98.0421
98.0461
98.0502
98.0544
98.0587
98.0632
98.0678
98.0724
98.0772
98.0821
98.0871
98.0922
98.0974
98.1027
98.1081
98.1137
98.1193
98.125
98.1308
98.1368
98.1428
98.1489
98.1551
98.1614
98.1677
98.1742
98.1807
98.1872
98.1939
98.2006
98.2073
98.214
98.2208
98.2275
98.2343
97.9606
97.9606
97.9605
97.9605
97.9604
97.9604
97.9603
97.9603
97.9603
97.9603
97.9603
97.9603
97.9604
97.9605
97.9606
97.9608
97.9609
97.9611
97.9613
97.9616
97.9618
97.9621
97.9624
97.9628
97.9632
97.9636
97.9641
97.9647
97.9653
97.966
97.9668
97.9677
97.9686
97.9696
97.9707
97.9718
97.973
97.9743
97.9756
97.977
97.9784
97.9799
97.9814
97.9829
97.9845
97.9862
97.9879
97.9898
97.9916
97.9936
97.9957
97.9979
98.0002
98.0026
98.0052
98.0079
98.0107
98.0136
98.0166
98.0198
98.0231
98.0265
98.03
98.0336
98.0374
98.0413
98.0453
98.0494
98.0536
98.058
98.0624
98.067
98.0717
98.0765
98.0814
98.0864
98.0915
98.0967
98.1021
98.1075
98.113
98.1187
98.1244
98.1303
98.1362
98.1423
98.1484
98.1547
98.161
98.1674
98.1739
98.1805
98.1871
98.1938
98.2005
98.2073
98.2141
98.221
98.2278
98.2347
97.9606
97.9605
97.9605
97.9604
97.9604
97.9603
97.9602
97.9601
97.9601
97.9601
97.9601
97.9601
97.9602
97.9603
97.9604
97.9606
97.9607
97.9609
97.9611
97.9613
97.9615
97.9618
97.9621
97.9624
97.9628
97.9632
97.9637
97.9643
97.9649
97.9656
97.9664
97.9672
97.9681
97.9691
97.9702
97.9713
97.9725
97.9738
97.9751
97.9765
97.9779
97.9793
97.9808
97.9824
97.984
97.9856
97.9873
97.9891
97.991
97.9929
97.995
97.9972
97.9995
98.0019
98.0044
98.0071
98.0098
98.0128
98.0158
98.019
98.0222
98.0256
98.0292
98.0328
98.0366
98.0405
98.0445
98.0486
98.0528
98.0572
98.0617
98.0662
98.0709
98.0757
98.0806
98.0857
98.0908
98.096
98.1014
98.1068
98.1124
98.1181
98.1238
98.1297
98.1357
98.1418
98.148
98.1542
98.1606
98.1671
98.1736
98.1802
98.1869
98.1937
98.2005
98.2074
98.2143
98.2212
98.2281
98.235
97.9605
97.9605
97.9604
97.9604
97.9603
97.9602
97.9601
97.96
97.96
97.9599
97.9599
97.96
97.96
97.9601
97.9602
97.9603
97.9605
97.9607
97.9608
97.961
97.9612
97.9615
97.9618
97.9621
97.9624
97.9628
97.9633
97.9638
97.9644
97.9651
97.9659
97.9667
97.9676
97.9686
97.9697
97.9708
97.972
97.9733
97.9746
97.976
97.9774
97.9788
97.9803
97.9818
97.9834
97.985
97.9867
97.9884
97.9903
97.9922
97.9942
97.9964
97.9987
98.001
98.0036
98.0062
98.009
98.0119
98.0149
98.0181
98.0214
98.0248
98.0283
98.0319
98.0357
98.0396
98.0436
98.0477
98.052
98.0564
98.0608
98.0654
98.0701
98.0749
98.0799
98.0849
98.09
98.0953
98.1007
98.1061
98.1117
98.1174
98.1232
98.1291
98.1351
98.1413
98.1475
98.1538
98.1602
98.1667
98.1733
98.18
98.1868
98.1936
98.2005
98.2074
98.2144
98.2214
98.2284
98.2354
97.9605
97.9604
97.9604
97.9603
97.9602
97.9601
97.96
97.9599
97.9598
97.9598
97.9597
97.9598
97.9598
97.9599
97.96
97.9601
97.9603
97.9604
97.9606
97.9607
97.9609
97.9612
97.9614
97.9617
97.962
97.9624
97.9629
97.9634
97.964
97.9646
97.9654
97.9662
97.9671
97.9681
97.9692
97.9703
97.9715
97.9728
97.9741
97.9755
97.9769
97.9783
97.9798
97.9813
97.9828
97.9844
97.986
97.9878
97.9896
97.9915
97.9935
97.9956
97.9978
98.0002
98.0027
98.0054
98.0081
98.011
98.0141
98.0172
98.0205
98.0239
98.0274
98.0311
98.0348
98.0387
98.0427
98.0469
98.0511
98.0555
98.06
98.0646
98.0693
98.0741
98.0791
98.0841
98.0893
98.0945
98.0999
98.1054
98.111
98.1167
98.1226
98.1285
98.1345
98.1407
98.147
98.1533
98.1598
98.1663
98.173
98.1797
98.1866
98.1934
98.2004
98.2074
98.2145
98.2216
98.2287
98.2358
97.9605
97.9604
97.9603
97.9602
97.9601
97.96
97.9598
97.9597
97.9596
97.9596
97.9595
97.9596
97.9596
97.9597
97.9598
97.9599
97.96
97.9602
97.9603
97.9605
97.9606
97.9608
97.9611
97.9613
97.9616
97.962
97.9624
97.9629
97.9635
97.9641
97.9649
97.9657
97.9666
97.9676
97.9686
97.9698
97.971
97.9723
97.9736
97.9749
97.9763
97.9778
97.9792
97.9807
97.9822
97.9838
97.9854
97.9871
97.9888
97.9907
97.9927
97.9947
97.997
97.9993
98.0018
98.0044
98.0072
98.0101
98.0131
98.0163
98.0196
98.023
98.0265
98.0301
98.0339
98.0378
98.0418
98.046
98.0502
98.0546
98.0591
98.0637
98.0685
98.0733
98.0782
98.0833
98.0885
98.0938
98.0991
98.1047
98.1103
98.116
98.1219
98.1278
98.1339
98.1401
98.1464
98.1528
98.1593
98.1659
98.1726
98.1794
98.1863
98.1933
98.2003
98.2074
98.2146
98.2218
98.229
98.2362
97.9604
97.9604
97.9603
97.9602
97.96
97.9599
97.9597
97.9596
97.9595
97.9594
97.9593
97.9593
97.9594
97.9595
97.9595
97.9597
97.9598
97.9599
97.96
97.9602
97.9603
97.9605
97.9607
97.9609
97.9612
97.9615
97.9619
97.9624
97.963
97.9636
97.9643
97.9651
97.966
97.967
97.9681
97.9692
97.9704
97.9717
97.973
97.9744
97.9758
97.9772
97.9786
97.9801
97.9816
97.9831
97.9847
97.9863
97.9881
97.9899
97.9918
97.9939
97.9961
97.9984
98.0009
98.0035
98.0063
98.0092
98.0122
98.0153
98.0186
98.022
98.0255
98.0292
98.033
98.0369
98.0409
98.0451
98.0493
98.0537
98.0582
98.0629
98.0676
98.0724
98.0774
98.0825
98.0876
98.0929
98.0983
98.1039
98.1095
98.1153
98.1212
98.1272
98.1333
98.1395
98.1458
98.1523
98.1588
98.1655
98.1723
98.1791
98.1861
98.1931
98.2003
98.2074
98.2147
98.222
98.2293
98.2367
97.9604
97.9604
97.9603
97.9601
97.9599
97.9597
97.9596
97.9594
97.9593
97.9592
97.9591
97.9591
97.9592
97.9592
97.9593
97.9594
97.9595
97.9597
97.9598
97.9599
97.96
97.9602
97.9603
97.9605
97.9608
97.9611
97.9614
97.9619
97.9624
97.963
97.9637
97.9645
97.9654
97.9664
97.9675
97.9687
97.9699
97.9712
97.9725
97.9739
97.9753
97.9767
97.9781
97.9795
97.981
97.9825
97.984
97.9856
97.9873
97.989
97.9909
97.993
97.9951
97.9975
97.9999
98.0025
98.0053
98.0082
98.0112
98.0144
98.0176
98.021
98.0245
98.0282
98.032
98.0359
98.0399
98.0441
98.0484
98.0528
98.0573
98.0619
98.0667
98.0715
98.0765
98.0816
98.0868
98.0921
98.0975
98.1031
98.1087
98.1145
98.1204
98.1265
98.1326
98.1389
98.1452
98.1517
98.1583
98.165
98.1719