/*--------------------------------*- C++ -*----------------------------------*\
| =========                 |                                                 |
| \\      /  F ield         | OpenFOAM: The Open Source CFD Toolbox           |
|  \\    /   O peration     | Version:  2.4.0                                 |
|   \\  /    A nd           | Web:      www.OpenFOAM.org                      |
|    \\/     M anipulation  |                                                 |
\*---------------------------------------------------------------------------*/
FoamFile
{
    version     2.0;
    format      ascii;
    class       volScalarField;
    location    "0.038";
    object      p_rgh;
}
// * * * * * * * * * * * * * * * * * * * * * * * * * * * * * * * * * * * * * //

dimensions      [1 -1 -2 0 0 0 0];

internalField   nonuniform List<scalar> 
3600
(
580.941
610.738
675.951
752.836
873.684
994.941
1174.39
1349.96
1585.22
1816.43
2087.49
2353.98
2631.26
2893.04
3140.66
3364.27
3564.5
3742.67
3899.08
4031.53
4138.29
4223.02
4296.6
4371.51
4442.4
4510.78
4569.93
4628.38
4671.59
4707.09
580.007
609.634
674.707
750.988
871.577
991.394
1170.66
1343.87
1579.62
1808.15
2078.11
2337.18
2604.17
2860.76
3109.55
3341.7
3555.41
3743.99
3904.42
4036.19
4139.05
4215.17
4271.34
4331.07
4392.42
4465.19
4528
4598.76
4645.24
4677.98
578.141
607.43
672.225
747.302
867.377
984.312
1163.23
1331.69
1568.46
1792.15
2074.59
2343.17
2641.48
2913.2
3175.2
3404.89
3607.05
3779.2
3926.41
4052.72
4152.45
4229.7
4286.77
4350.65
4413.08
4471.93
4515.06
4558.77
4599.72
4627.75
575.351
604.135
668.517
741.804
861.116
973.729
1152.12
1313.33
1551.48
1765.97
2034.82
2276.66
2544.32
2792.27
3046.74
3279.16
3501.42
3699.79
3877.08
4031.49
4161.28
4268.63
4353.55
4431.86
4503.55
4561.16
4605.43
4642.06
4668.62
4690.6
571.645
599.765
663.606
734.534
852.847
959.696
1137.44
1288.83
1529.88
1736.48
2043.26
2307.57
2640.96
2923.29
3222.68
3476.81
3712.09
3908.18
4076.89
4215.41
4331.91
4426.2
4506.55
4568.57
4618.5
4652.3
4684.33
4715.44
4739.98
4761.57
567.038
594.342
657.518
725.544
842.644
942.274
1119.26
1257.86
1499.18
1682.31
1959.58
2166.24
2459.21
2682.62
2974.32
3194.13
3446.22
3645.11
3841.96
4005.87
4152.17
4275.92
4384.13
4475.47
4560.78
4633.41
4693.64
4740.79
4777.99
4805.5
561.549
587.892
650.289
714.898
830.603
921.554
1097.83
1220.9
1470.97
1649.48
1984.82
2237.63
2610.35
2907.58
3254.55
3539.52
3824.11
4053.31
4259.04
4424.8
4564.79
4672.3
4752.91
4814.19
4851.09
4892.12
4924.69
4957.66
4984.16
5006.85
555.196
580.446
641.959
702.672
816.844
897.623
1073.2
1176.67
1423.74
1550.39
1859.87
1991.76
2359.37
2506.73
2911.92
3075.03
3445.3
3606.02
3879.81
4043.33
4231.59
4355.58
4473.74
4544.28
4628.93
4700.54
4769.6
4824.15
4864.41
4897.34
548.004
572.042
632.575
688.955
801.511
870.633
1045.96
1127.63
1390.03
1526.83
1889.33
2127.45
2534.23
2866.75
3253.73
3593.24
3904.15
4195.92
4446.91
4656.94
4835.93
4987.2
5117.58
5192.55
5249.6
5315.54
5367.25
5416.1
5453.83
5483.7
539.996
562.72
622.188
673.846
784.773
840.673
1015.91
1068.12
1328.66
1362.67
1736.77
1733.78
2196.71
2250.69
2819.25
2917.02
3472.69
3622.37
4045.06
4205.59
4480.08
4600.9
4741.16
4865.79
4951.29
5020.87
5072.1
5114.31
5145.78
5169.72
531.202
552.527
610.855
657.455
766.825
808.085
984.188
1010.2
1286.77
1364.97
1751.3
1975.54
2480.56
2787.44
3203.81
3627.14
3973.66
4350.91
4655.49
4946.68
5184.4
5396.95
5565.33
5712.21
5830.52
5931.16
6008.4
6069.83
6115.76
6152.04
521.65
541.511
598.639
639.899
747.873
772.804
950.111
930.713
1215.33
1113.69
1580.92
1383.37
1948.25
1909.85
2649.27
2709.75
3428.32
3591.93
4174.63
4377.41
4775.91
4923.39
5183.24
5267.9
5385.51
5455.79
5500.95
5535.19
5555.8
5569.85
511.372
529.723
585.602
621.319
728.15
735.746
915.485
871.976
1162.72
1161.09
1564.24
1741.06
2281.95
2598.78
3063.05
3569.7
4000.93
4504.48
4906.78
5308.02
5649.44
5965.54
6189.46
6411.93
6575.06
6703.77
6803.15
6882.34
6939.89
6983.01
500.398
517.217
571.811
601.838
707.878
696.258
879.117
766.309
1083.64
801.772
1384.07
926.031
1651.87
1438.86
2348.79
2396.32
3297.58
3518.98
4300.43
4612.57
5178.93
5393.87
5783.95
5852.77
6066.41
6106.57
6167.65
6188.05
6191.99
6187.38
488.761
504.046
557.333
581.643
687.29
656.674
843.056
718.855
1019.77
916.299
1328.81
1399.46
1890
2255.82
2774.25
3366.1
3908.68
4642.29
5168.12
5791.08
6284.77
6768.96
7123.34
7444.95
7646.4
7839.59
7945.41
8033.74
8083.26
8111.56
476.493
490.265
542.229
560.851
666.581
614.614
806.014
582.575
933.935
432.515
1150.51
345.777
1417.26
775.594
1834.67
1893.24
2947.03
3240.1
4324.18
4837.85
5745.88
6055.94
6802.78
6858.82
7209.02
7197.1
7264.66
7243.18
7205.81
7151.95
463.627
475.929
526.559
539.721
645.922
575.843
769.625
560.898
858.368
637.075
1045.7
958.333
1348.11
1731.54
2260.21
3013.39
3579.61
4714.94
5302.94
6356.86
7073.04
8010.72
8546.71
9142.08
9398.4
9689.73
9727.43
9766.2
9745.42
9704.77
450.194
461.092
510.374
518.321
625.443
533.215
732.954
394.808
766.26
22.157
881.051
-401.469
850.624
-212.068
1022.96
912.61
2161.64
2471.98
4004.98
4929.83
6320.87
7249.54
8348.87
8823.2
9543.33
9365.9
9290.45
9021.64
8812.47
8585.27
436.222
445.707
493.714
497.076
605.177
500.73
696.781
413.468
677.566
336.914
738.745
403.148
655.422
954.927
1274.67
2322.42
2750.84
4475.7
4921.59
6791.61
7784.3
9684.61
10852
12328.4
13486.8
13381.6
13082.7
12698.8
12282.9
11914.6
421.748
430.315
476.603
475.831
585.167
459.572
660.717
227.528
578.431
-378.661
609.662
-1295.84
146.839
-1579.84
36.7433
-723.341
774.706
1072.57
2806.19
4153.55
6316.39
8616.06
10978.7
12527.3
17239.8
14301.1
12885.4
11580.8
10666.4
9957.52
406.738
413.632
459.057
455.398
565.259
440.693
625.052
296.159
480.901
32.7339
481.758
-266.447
-213.821
-52.8846
-164.839
1099.62
863.16
2545.18
2833.41
5478.8
6527.93
10306.9
13776.8
17404.5
31168.2
22634.2
19991.8
16607.2
14297.2
12793.5
391.404
397.963
441.043
435.139
545.397
403.99
588.614
108.77
361.597
-770.399
445.948
-2502.96
-753.197
-3634.35
-1891.12
-3528.3
-1033.83
-2256.16
-125.997
332.446
3002.31
6521.8
16249.6
12351.7
49840.8
18321.4
14940.9
9600.53
9242.36
7834.24
375.408
380.369
422.583
416.381
525.343
404.97
557.493
234.559
289.094
-232.45
481.108
-601.774
-984.628
-860.936
-1190.19
-150.345
-1642.65
-1032.24
-3021.31
-1923.35
-5293.72
-3908.75
-11016.5
-36967.9
-13284.2
-32867.1
-11335.3
-16079.6
-20288.7
-18312.3
359.332
364.122
403.451
397.762
504.719
377.987
515.98
87.689
61.4778
-1170.64
662.595
-5520.19
-2376.29
-7579.38
-6348.87
-8307.16
-3176.04
-9659.18
-1806.84
-12602.4
-9757
-21425.5
-48511.9
-45688.1
-58123.6
-61262.3
-35000.9
1579.49
-3657.68
-2670.65
342.439
345.931
384.053
381.314
483.95
400.238
508.072
274.598
63.9065
-308.291
1121.52
2457.07
1154.09
1298.66
1511.46
1230
-2205.31
-5354.52
-10097.2
-5151.75
-11607.2
-10394.5
-18561.1
-31796.4
-57323.4
-54824.4
-42403.4
-48076.8
-45244.2
-24941.3
325.831
328.988
363.216
364.444
461.11
386.535
447.676
-52.8055
-284.68
-1569.81
1418.18
-14883.6
-9090.42
-18467.3
-18994
-15869.8
-6448.97
-21051.8
7517.91
-33782
2196.77
-59497.9
-39492
-40670.6
-44384.1
-43069.1
-24547.2
-28833.4
-25511.3
-28275.1
307.932
310
343.297
350.43
439.59
435.017
514.778
1201.65
-380.482
-161.375
2811.06
13542.9
12000.2
12049.8
11613
10151.5
3667.38
-15495.5
-15146.1
9686.51
-17271.2
-3174
23545.1
31219.5
32677
9807.43
12073
17501.1
1687.24
-24145.4
291.059
291.559
319.189
334.589
412.617
413.115
361.82
-1592.9
-528.656
-827.949
2574.38
-33455.4
-23550.8
-41717.3
-44347.8
-12538.9
-12429.6
-26560
-13551.3
-45542.3
-83868.9
-124674
-61545.6
-44379.2
-31533
-25364.1
-36783.7
-73477.7
-41074.1
-22020.9
272.567
274.836
300.344
321.889
390.903
549.144
519.549
3838.45
-1829.2
-101.458
5864.54
31252.6
33332.9
31999.3
12650.5
20946.4
-3933.81
-26271.8
-24225.9
-80454
33743.5
-85576.9
-18860.9
-6424.06
5335.64
29598.5
-11042
-58457.8
-101978
-109093
254.532
228.721
267.215
305.059
356.05
434.968
388.822
-4905.99
-1075.65
1678.79
10420.8
-44567.3
-43788.3
-55912.1
-47248.7
7881.29
-9637.95
24183.8
-10760.3
4333.72
5145.02
-8559.76
-44352.2
-13819.8
-24065.1
-21448.5
50483.6
-29308.1
-41744.7
-1657.27
4734.44
4749.87
4757.27
4742.67
4729.07
4709.86
4695.05
4686.2
4689.02
4689.1
4672.5
4634.89
4581.53
4500.56
4412.03
4272.6
4145.32
3935.87
3768.49
3492.42
3290.97
2968.22
2748.25
2410.28
2190.37
1875.83
1682.78
1441.11
1314.43
1211.05
4697.67
4705.52
4700.34
4672.54
4654.38
4640.71
4641.5
4653.81
4677.59
4688.73
4677.97
4642.72
4591.57
4508.77
4420.18
4277.63
4148.11
3937.43
3768.51
3491.25
3289.42
2965.45
2745.49
2407.1
2187.34
1872.77
1679.92
1438.4
1311.88
1208.63
4647.19
4660.86
4654.02
4649.43
4652.03
4656.47
4660.9
4673.6
4698.3
4707.44
4697.69
4662.94
4614.69
4529.21
4445.34
4290.96
4167.36
3941.29
3777.36
3489.06
3286.85
2959.88
2739.94
2400.74
2181.28
1866.66
1674.2
1432.99
1306.78
1203.77
4708.64
4728.08
4740.78
4754
4762.08
4766.42
4763.13
4761.41
4761.51
4748.48
4725.13
4675.01
4619.48
4524.28
4435.67
4288.61
4156.1
3944.38
3763.54
3484.8
3280
2951.38
2731.46
2391.16
2172.15
1857.48
1665.62
1424.87
1299.14
1196.5
4782.13
4798.22
4816.09
4835.16
4855.59
4878.37
4893.64
4901.27
4900.28
4888.91
4867.21
4816.78
4763.89
4649.29
4557.52
4363.39
4235.33
3960.94
3798.75
3480.23
3277.52
2939.88
2720.13
2378.33
2159.96
1845.24
1654.17
1414.05
1288.96
1186.82
4826.54
4840.28
4852.18
4858.06
4859.07
4852.23
4844.17
4830.24
4816.85
4782.85
4757.08
4688.34
4641.27
4527.92
4449.78
4281.67
4145.33
3935.24
3749.55
3471.45
3259.5
2925.13
2705.37
2362.2
2144.62
1829.91
1639.86
1400.54
1276.25
1174.74
5027.62
5048.52
5071.43
5092.98
5119.68
5145.88
5178.64
5192.21
5201.75
5176.43
5151.28
5070.72
5003.93
4852.87
4744.82
4497.38
4345.16
4013.64
3834.09
3468.66
3261.97
2906.81
2687.98
2342.72
2126.22
1811.49
1622.68
1384.35
1261.02
1160.27
4918.5
4928.62
4937.61
4935.59
4931.21
4923.69
4928.62
4915.56
4922.67
4847.46
4842.41
4710.58
4691.77
4510.43
4466.83
4242.44
4134.73
3897.49
3715.9
3436.42
3223.42
2884.39
2665.9
2319.82
2104.5
1789.96
1602.63
1365.49
1243.3
1143.45
5506.49
5525.6
5541.38
5555.31
5573.51
5584.29
5622.71
5624.11
5662.24
5592.41
5539.32
5440.64
5330.1
5146.62
4965.15
4692.05
4485.45
4097.43
3886.19
3461.22
3236.95
2860.26
2642.31
2293.52
2079.82
1765.32
1579.73
1343.97
1223.08
1124.29
5186.02
5200.24
5207.05
5210.13
5216.57
5178.97
5218.46
5066.46
5113.93
4931.48
5004.17
4724.7
4804.47
4473.33
4503.15
4159.04
4107.36
3820.65
3643.61
3369.08
3167.8
2823.41
2611.56
2263.54
2051.52
1737.55
1553.92
1319.82
1200.41
1102.81
6180.52
6204.77
6226.15
6240.1
6249.49
6242.61
6243.75
6202.26
6188.23
6136.08
6047.06
5927.81
5751.04
5546.36
5282.46
4950.13
4667.92
4199.5
3963.6
3447.71
3198.63
2798.59
2581.72
2230.69
2020.55
1706.66
1525.39
1293.05
1175.29
1079.05
5580.17
5581.11
5592.54
5559.98
5572.06
5494.6
5499.69
5340.01
5355.15
5102.05
5154.15
4782.04
4880.36
4426.89
4488.65
4032.03
4025.18
3689.11
3512.35
3262.6
3085.97
2736.76
2540.94
2192.56
1985.46
1672.35
1493.77
1263.69
1147.75
1053.04
7012.68
7034
7059.92
7049.25
7072.21
7040.73
7035.27
6972.62
6930.97
6838.47
6717.2
6549.8
6300.53
6023.57
5676.58
5258.38
4910.63
4308.72
4064.52
3414.14
3144.93
2718.16
2505.56
2155.63
1948.27
1635.8
1459.71
1231.76
1117.82
1024.82
6176.89
6153.37
6128.77
6075.77
6032.68
5911.34
5859.84
5656.25
5621.72
5267.5
5315.48
4818.52
4910.86
4363.47
4381.95
3846.61
3838.16
3490.58
3309.19
3109.57
2971.05
2620.5
2452.3
2106.37
1906.19
1594.26
1422.27
1197.29
1085.53
994.428
8128.44
8136.91
8138.52
8125.56
8104.7
8048.05
8004.79
7913.05
7826.51
7672.83
7505.99
7240.78
6919.84
6548.16
6138.69
5596.64
5203.26
4397.34
4159.75
3341.98
3065.48
2613.69
2413.18
2069.43
1862.82
1552.45
1382.76
1160.34
1050.92
961.9
7085.85
6992.2
6900.59
6751.05
6649.58
6457.23
6343.27
6022.87
6025.62
5472.36
5649.31
4932.71
4973.95
4297.81
4190.24
3601.58
3528.47
3224.13
3036.96
2907.84
2822.87
2474.7
2345.51
2008.96
1813.63
1503.33
1339.56
1120.89
1013.98
927.305
9647.42
9584.81
9509.49
9407.58
9286.83
9135.56
9016.46
8872.47
8728.35
8449.78
8268.67
7870.74
7498.71
7021.04
6604.49
5895.63
5486.48
4415.72
4155.83
3209.26
2940.29
2479.42
2303.65
1973.59
1764.1
1456.83
1294.68
1079.07
974.823
890.661
8373.05
8139.19
7930.17
7667.9
7468.69
7157.39
7072.06
6388.03
6875.9
5662.75
6550.78
5318.26
5221.71
4279.44
3988.28
3340.93
3115.55
2900.92
2821.68
2664.14
2643.87
2302.23
2221.1
1907.02
1707.32
1398.24
1245.74
1034.77
933.387
852.079
11559.5
11229.9
10880.8
10512.9
10185.1
9819.53
9510.56
9196.4
9204.69
8680.38
9107.21
7939.28
7909.13
7261.6
6895.2
5992.89
5626.51
4296.34
3880.13
3001.25
2744.13
2315.67
2177.93
1874.55
1652.06
1350.23
1195.8
988.362
889.803
811.539
9418.14
8987.5
8673.96
8384.88
8179.99
7969.57
7890.68
7726.69
7877.89
6950.46
8185.89
6465.07
5960.06
4572.06
3864.81
3083.47
2679.62
2498.51
2503.38
2347.84
2426.7
2101.6
2079.94
1809.23
1586.07
1276.55
1140.69
939.292
844.017
769.236
11604.9
10747.5
10085.3
9523.06
9101.96
8607.29
8306.11
7857.17
8210.84
6859.56
10555.3
6156.76
8049.85
6785.84
6734.76
5648.31
5472.64
3955.41
3516.27
2718.89
2481.63
2138.39
2039.4
1786.64
1525.86
1233.8
1086.83
888.807
796.119
725.056
7120.12
7446.77
8135.38
8594.96
8853.84
9761.3
10159.4
12422.6
11390.7
10973.5
11343.6
11165.4
7772.85
5219.14
3982.9
2779.63
2340.93
1969.09
2120.82
1950.64
2144.72
1857.19
1924.23
1728.94
1447.73
1131.98
1024.4
834.886
746.057
679.331
-12400.8
-8104.25
-6297.94
-4562.37
-3019.3
-2201.19
184.16
1528.71
226.42
-484.627
1633.81
-190.792
4688.23
4988.31
5766.86
4439.82
4469.69
3263.53
2906.6
2372.4
2150.71
2003.04
1899.02
1732.62
1382.19
1108.25
967.96
781.328
693.862
631.85
-5018.76
5692.27
21872.7
17415.3
16395.1
15162.3
17154.5
25109
19804.7
16805.2
14649.8
18502.9
10754.3
6288.56
4481.57
2181.65
1844.17
1161.74
1602.17
1512.73
1770.8
1490.62
1763.69
1692.17
1285.06
956.102
898.162
722.398
639.691
583.064
-29500.7
-115.89
-13495.5
-25173.6
-22264.1
-30297.6
-274.651
-790.928
-20144.2
6866.12
-25344.2
-7843.71
-3802.77
-712.639
4235.31
1717.73
3451.57
2265.95
2073.12
2060.18
1746.19
1939.07
1774.6
1756.13
1207.2
967.51
839.077
666.995
583.043
532.697
-25581.8
-14770
-9692.45
14831.7
13304
11006.8
6540.24
4890.55
3166.79
13950.2
15861.8
12002.8
12998.9
8119.3
6031.07
287.015
1290.66
95.8982
771.259
1021.3
1349.36
1025.07
1634.03
1731.61
1083.22
762.712
764.003
603.482
524.667
481.276
-18813.8
-28800.6
-16436.8
-6301.08
-39452.6
-13793.5
-6235.54
-26840
1567.8
-327.558
-28090
9239.71
4977.87
-7851.89
2584.09
-2129.06
1933.6
751.083
1004.86
1844.81
1275.13
2067.13
1723.71
1896.88
996.853
762.84
701.57
547.009
464.218
428.521
-19552.8
-26374.5
34015.9
-11037.3
-22149.3
9307.82
-48137.7
-24829.4
-28178.6
-4769.67
4703.09
-4143.19
-6513.41
-3164.51
4727.12
864.309
-591.736
-1446.44
-754.164
997.177
799.649
236.794
1449.82
1912.36
844.603
494.042
624.239
481.363
397.818
374.899
-111848
-94270.5
-60829.7
-41612.2
-12821.6
-83403.4
-67922.2
97721.4
18025
124087
-60781
-37151
-12553.6
-1259.74
2951.61
-4067.08
-1237.19
-2548.92
-510.146
1136.79
1334.27
2328.69
2475.88
2099.99
783.472
469.552
570.94
424.269
337.455
321.232
-26073.6
-16993.4
-10079.8
13204.9
59791.7
17270.9
43674.9
25818.6
-64867.5
-103888
13575.7
-4874.01
771.124
-211.727
-2152.5
558.897
-2114.67
-2696.74
-2311.65
2787.63
-89.7536
-1242.22
-499.562
2382
557.155
186.765
471.066
360.333
237.518
266.098
234.171
107.051
252.553
296.786
335.714
548.653
560.38
1645.83
-1240.96
-313.881
3441.38
-2410.83
3404.7
-6119.05
-29747.3
6060.15
-6492.72
9357.2
3745.76
2381.13
11352.8
-4349.97
-54955.2
-12978.8
-6766.79
-28248.3
9924.58
6962.93
-31055
-22600.6
147.183
105.96
285.001
294.966
334.445
555.381
211.197
434.43
-1070.85
-620.926
1953.19
-1271.95
10366.3
-7722.27
-29847.2
5806.09
-8071.26
9370.44
13767.1
5607.56
17433.9
-5353.32
-44899.6
-10812.7
-7137.17
-15743
11090.3
-31872.4
-38529.3
-27182
25.7735
91.917
247.18
293.5
333.311
507.369
170.435
166.18
-429.78
-125.748
1316.94
-1115.36
9373.5
-9143.88
-29822.5
4142.72
-7826.84
10404.3
18629.5
9562.03
24126.1
-6113.99
-53560.1
-7409.01
-4260.76
-10298.9
17671.2
-31598.6
-38237.6
-29008.6
5.45409
52.8871
212.541
291.734
322.631
397.925
133.588
126.867
-559.733
170.245
1326.65
-433.687
9622.39
-11687.1
-30672.8
4173.07
-7955.36
8397.13
3128.13
7196.23
22801.2
-7532.53
-59001
10133.7
7012.87
3665.14
22432.6
-16294.9
-37198.4
-31166.1
1.76864
44.0944
189.617
289.859
310.881
268.37
111.267
127.774
89.6423
241.138
759.166
-212.338
8852.8
-14670.6
-32108.7
3879.09
-8308.06
6390.65
1128.61
5397.75
29685.8
-3541.28
-27076.5
31147.1
-1510.52
12502.1
23359.3
-12182.1
-34833.7
-25554
0.958225
33.9945
167.852
283.841
295.508
178.244
102.978
127.628
304.908
267.956
571.046
339.086
6115.76
-11462.7
-28553.1
-2923.31
-4646.31
5012.36
2225.76
7704.39
29162.4
-6483.78
-32363.6
13514.3
-16635.8
334.35
14813.9
-11034
-35089.1
-31933.5
0.688803
21.7469
144.686
262.23
276.993
102.204
99.7329
127.311
224.553
250.863
556.684
506.422
4979.68
-7412.52
-25571.2
-2386
-1348.67
4189.11
440.359
441.463
25026.9
-29148.2
-31616.7
-6520.93
-19898.5
480.236
3245.94
-10186.8
-28487.1
-43042.9
0.512388
13.6534
131.3
247.589
244.458
70.5313
98.4331
126.899
222.692
258.457
551.183
536.203
3789.76
-6005.2
-9497.75
-4330.98
-1854.83
124.359
-886.24
3168.15
11024.2
-29702.5
-23408.7
-7919.14
-15980
1334.56
-12758.9
-12662
-23331.5
-31862.5
0.509202
12.2465
118.79
232.661
193.728
69.2268
97.0932
126.369
222.128
252.209
547.294
515.653
4198.24
-5166.97
-15953.6
-1205.97
-797.787
-1227.27
-2021.95
812.626
-5957.11
-17526.3
-11668.9
-6311.86
-20965.2
7979.6
843.832
-4571.32
-7468.72
-18914.6
0.507511
9.48749
86.5019
203.367
212.896
68.3254
95.6939
125.73
221.259
249.713
538.618
515.636
4097.18
-3015.43
-3005.57
-987.521
-1233.82
-1412.66
-4348.29
-356.681
-4097.04
-19920
8237.31
-1197.67
-13652.2
6261.22
-8108.54
-4947.87
-1895.41
-8226.33
0.506808
3.75756
63.7767
177.327
203.802
66.1826
94.1823
124.954
219.925
245.796
526.541
510.429
3885.49
-1535.57
-2654.34
-1038.81
-983.761
-2158.93
-3382.6
-8253.18
-7573.53
-26284.2
-8438.06
-20992.5
-13212.8
-5562.24
-8190.14
22.64
-3610.92
-9185.03
0.507208
2.84337
54.8408
148.275
170.042
65.5872
92.5963
123.945
218.179
240.256
514.553
450.819
2932.74
-2111.23
-2524.52
-1049.46
-260.783
-913.838
-337.3
-13203.7
-11962.6
-28624.2
-44261
-26348.8
-25865.8
-20651
-8830.06
-4702.04
-6102.81
-9919.64
0.505895
2.98706
45.3885
134.177
159.891
64.7793
90.8314
122.623
215.607
233.851
503.664
420.864
2003.14
-1723.01
-2467.72
-1101.55
-434.005
-506.544
1949.97
15647.1
6546.58
-18692.3
-2065.8
-28559.1
-16646.6
-29022.1
-10068.1
-6177.65
-14459.3
-16155.6
0.506482
1.90771
24.9442
106.19
142.251
62.4468
88.8303
120.912
212.044
226.748
492.339
395.196
1240.81
-1018.08
-2323.5
-1168.02
-424.562
144.785
-836.614
-6218.8
-7572.38
-21024
-3220.37
-21263
-18738.9
-39626
-39879.7
3808.07
-14559.7
-16766.1
0.508793
1.68584
15.1661
85.3859
124.97
61.8536
86.621
118.796
207.553
218.976
479.876
387.75
825.166
-1145.89
-2656.13
-992.432
-355.48
311.988
2495.94
485.804
-25944.8
-23979.1
-14266.6
-19992
-21148.9
-38221.5
-56305
-19799
-16381
-16951
0.507949
1.66715
7.00982
39.457
51.9104
59.8985
84.1905
116.286
202.003
210.138
466.465
366.395
546.028
-382.985
-171.478
-744.701
-551.967
1210.49
1496.22
2093.41
-21485.5
-26034.3
1544
-7220.86
1926.85
-21633.9
-40527.9
-17549.3
-16514.5
-16585.8
0.506448
1.68511
7.25323
19.3438
25.8704
58.3076
81.5513
113.424
195.107
199.901
453.786
345.789
335.412
-157.865
-744.342
-807.706
-397.303
2098.44
2999.39
-3734.15
-7858.55
33541.1
-7905.17
28090.9
9885.29
-10315.1
-19893.6
-11527.8
-14099.5
-14399.9
0.501609
1.68011
4.9364
12.0492
25.9196
56.1915
78.6091
109.926
186.932
186.643
432.174
325.93
288.063
-58.6904
-687.572
-692.992
162.923
26.3349
2359.25
-1144.84
-1565.2
9459.61
-14138.6
15507.8
-94139.7
-16288.7
-18151.3
-33539.2
-30617.7
-12128.3
0.494894
1.67735
4.85761
11.905
25.2138
53.8825
75.3704
105.821
177.732
170.122
349.766
306.816
265.549
6.63322
-475.032
-678.512
-377.171
-393.882
-2427.17
-2464.59
-1142.27
313.295
-13081.6
13673
-63033.2
4467.03
-17516.1
-20445.1
-12683.7
-1125.46
0.484689
1.66364
4.84738
11.7089
24.6501
51.6108
71.7603
101.052
167.398
154.402
273.781
288.806
245.536
-38.6913
-253.75
-644.133
-715.85
-378.634
-610.805
-784.17
-636.887
-965.374
-8394.06
9915.46
-23495.8
23999
9089.87
389.558
3568.08
8941.66
0.470804
1.63523
4.71076
11.3671
23.5948
47.8804
67.7547
95.5614
155.886
139.599
231.812
268.835
142.392
-105.416
-297.703
-599.721
-420.583
-363.717
-654.104
-684.296
-482.019
-501.337
-102.157
7682.41
-96.0041
29185.5
14019.6
23704.8
8798.43
8537.27
0.452627
1.58908
4.58628
10.9498
22.5467
45.8468
63.2916
89.2972
143.051
125.049
203.713
195.096
15.1924
-134.463
-389.741
-426.638
-278.081
-342.57
-435.756
-344.899
-532.507
-125.515
11.7339
5118.53
4618.81
20334.4
12652.9
19001.8
3532.63
688.918
0.428572
1.52147
4.35004
10.3386
21.1122
42.1205
58.3237
82.2147
128.935
110.592
168.742
122.539
-37.2016
-120.254
-243.135
-320.021
-390.055
-276.065
-236.055
-237.871
-213.87
-159.573
-131.207
945.179
2824.74
10262.9
6681.14
7639.65
283.308
612.365
0.399123
1.42902
4.08889
9.63124
19.475
38.3237
52.7879
74.278
113.701
95.9087
131.072
62.6981
-45.657
-131.449
-220.762
-324.742
-267.771
-244.617
-214.442
-199.037
-260.486
-163.004
-147.405
-89.7718
10.5683
2195.05
2847.3
3626.81
727.946
641.005
0.361399
1.30716
3.70487
8.6752
17.4741
33.7476
46.6356
65.4448
97.6482
81.0725
99.3519
25.8343
-48.9216
-98.6805
-182.897
-166.75
-232.716
-165.471
-157.959
-157.59
-135.877
-123.69
-110.78
-91.678
-83.8951
-34.0249
608.363
1288.48
766.06
552.458
0.317111
1.15332
3.27393
7.61487
15.1643
29.0049
39.8239
55.711
80.972
66.42
74.3523
14.0188
-40.3695
-97.9083
-147.668
-206.542
-157.852
-130.173
-138.925
-131.843
-137.337
-112.467
-98.0407
-85.0694
-76.971
-9.48234
338.465
650.151
677.601
603.361
0.262094
0.962356
2.70431
6.24806
12.4604
23.4252
32.3009
45.0379
63.8501
51.9804
54.2733
11.0851
-32.665
-60.1136
-114.791
-81.9462
-115.816
-88.0625
-104.313
-98.1315
-94.2023
-84.0801
-76.9323
-67.6912
-62.5158
-53.276
-22.4178
175.082
165.102
465.575
0.200103
0.734648
2.07433
4.78418
9.39184
17.5823
24.0433
33.4087
46.308
37.583
36.6743
6.0502
-25.4893
-58.0125
-82.7412
-110.372
-90.1654
-84.3768
-79.177
-74.9951
-69.4613
-62.4349
-55.6023
-49.3731
-42.9728
-37.3794
-30.2788
-12.3316
-0.526477
75.1282
0.125055
0.466208
1.29696
2.96429
5.89653
10.8905
14.9926
20.7954
28.2668
22.9566
21.2881
3.95703
-14.5388
-22.9967
-48.4134
-26.23
-49.6926
-39.9897
-46.4688
-42.9058
-42.081
-37.4041
-33.8651
-29.1257
-24.6734
-19.4498
-13.6104
-7.94628
-1.56911
-0.850878
0.0452235
0.16302
0.466387
1.09243
2.04493
3.82275
5.14075
7.11724
9.49351
7.78211
6.70902
0.346244
-6.40763
-19.5763
-19.4791
-40.273
-23.9099
-27.0339
-20.0186
-19.1669
-15.7568
-14.0887
-11.7029
-9.92239
-7.72086
-5.89485
-3.76086
-1.76398
0.252412
2.08364
-1268.07
16454.4
-3751.99
-46975.1
-37167.7
32372.1
28236.7
-4977.23
-65980.2
-54742.2
13676.9
-7655.58
1718.26
-698.283
-641.502
2820.82
4174.38
-3640.18
-2599.86
1806.35
495.567
469.189
3565.45
2371.38
422.719
601.687
475.427
329.344
106.947
154.192
-4488.23
11903.8
-5978.89
-41179.5
-23723.2
45853.2
26092.6
-5635.28
-53511.1
-33725.5
12189.3
-7806.27
2022.3
3534.91
1490.11
2534.24
4455.78
-3564.87
-2850.56
1558.28
601.361
278.475
2090.12
2526.48
448.59
547.075
461.048
333.356
103.266
41.9638
-7633.6
12816.4
-8837.18
-39324.5
20196.1
49301.6
31084.5
4871.6
-30999.8
8485.73
10412.4
-5280.45
1674
3625.68
1777.67
2392.07
4253.29
-3527.24
-2869.35
757.683
215.957
420.351
1408.18
2407.23
443.202
580.538
450.418
319.471
102.746
4.11462
-13469.7
16665.8
-11262.6
-44084.3
6132.12
34201.2
23064.3
-8730.88
-23714.9
23421.5
9461.02
-2926.51
1177.72
3642.85
1144.07
2722.99
4358.77
-3586.16
-2987.71
218.394
126.48
294.991
419.649
2570.66
460.027
592.001
430.237
318.318
89.2309
3.96103
-15416.3
17016
-12418.1
-30017.9
3272.55
21126.2
29504
-5457.46
-32198.3
23414.8
2833.15
-1413.48
801.669
4951.3
2049.35
2780.64
3929.17
-3251.26
-2216.35
231.419
-49.2854
257.945
398.774
2490.95
558.895
591.922
411.448
292.316
69.5376
2.62904
-10084.4
-1887.9
-18786.6
-22324.9
1334.22
11243.8
41886.1
6979.72
-46660.2
22056.8
7864.86
-2269.34
-8543.79
5062.02
918.622
1926.39
3858.14
-2349.83
-1520.64
440.476
212.716
205.795
354.715
2458.29
606.098
547.2
387.947
259.477
46.8231
1.16935
-23387.9
-19280.5
-24653
-22197.2
-6626.53
-4867.33
29742.9
-2202.04
-19266.4
-7142.22
300.181
-3927.66
-2083.84
5293.1
130.768
983.906
3543.65
-1233.55
-665.359
431.692
-239.51
-87.7742
286.441
2002
579.454
512.576
350.681
201.445
34.7865
0.503398
-31283.3
-30569.5
-26737
-22197.7
-17716.4
-18025.4
10765.5
710.559
-9640.66
34729.3
3280.09
-4721.52
-2148.43
13513.1
-1946.83
291.294
1705.41
-1075.26
-701.573
419.755
-30.3305
-383.14
243.009
2186.09
564.077
464.262
303.707
159.224
26.8422
0.328451
-27724.7
-31122.6
-29857
-21911.5
-17209.9
-15170.1
-1927.16
-9727.13
-10806.9
-2377.75
5126.49
-4588.62
-2523.05
1359.26
-2511.31
-211.356
1476.51
-709.366
-702.604
346.008
-250.69
-403.154
204.879
2158.53
537.863
419.126
268.399
147.2
23.0257
0.31147
-18996.8
-30245.2
-36197.4
-21585.4
-23275.9
-16869.9
-2039.42
-13794.9
-8162.19
-5607.8
4001.74
-3832.31
-2199.9
-710.507
-2033.53
-269.923
170.749
-854.776
-801.247
116.339
-509.758
-317.082
90.769
856.406
500.627
360
211.046
111.849
17.7167
0.299226
-14259.1
-24727.8
-33338.2
-20315.3
-21687.6
-17435.6
-4308.52
-3335.56
-7195.7
-6143.93
1940.8
-4123.4
-2532.75
818.544
-2392.96
-284.734
292.322
-676.59
-240.103
-1231.73
-158.067
-262.685
14.6633
-264.841
450.387
256.919
141.817
89.1209
13.4782
0.289693
-14556.2
-19385.6
-20488.7
-19783.9
-26175.9
-17718.9
-1812.46
-12885.6
-5887.19
-6909.68
-957.315
-4212.26
-3135.99
-997.681
-1971.92
-452.889
-57.3546
-422.951
-480.124
-133.662
-146.427
-256.633
10.2418
-23.4089
350.007
143.347
107.687
66.6281
7.57469
0.277601
-15660.6
-17236.4
-25811.6
-19531.8
-17358.1
-31444.7
-14801
-14960.5
-10092
-9331.45
-1511.8
-4663.25
-2924
-233.648
-1897.64
-403.726
-92.368
-149.676
938.179
110.774
-161.067
-195.738
-0.165083
-2.36189
54.8165
73.0525
80.2098
51.726
6.01635
0.269687
-16499.5
-17544.2
-21318.7
-20261.4
-18966
-18872.7
-12858
-19141
-8846.64
-1105.54
-1542.04
-4724.79
-3573.26
-320.651
-971.332
-413.252
-190.164
31.505
-853.926
-164.357
-115.234
-139.715
-18.9913
8.41241
16.7648
38.8518
49.1076
28.2773
2.52488
0.260707
-17078.3
-17657.9
-16968.4
-19798.4
-2071.75
726.69
-20159.1
-15082.2
7487.33
-9544.74
-5570.19
-1645.44
-3199.3
657.721
-733.88
-377.738
-149.314
-55.9796
-28.8531
86.8939
-147.655
-143.543
-25.3195
8.42161
15.5624
16.6811
22.464
15.0773
2.05658
0.253203
-17230.9
-16964.6
-16893.2
-15923.9
-5702.44
5646.94
19811.9
19720.5
13799.7
3482.16
-9631.15
-5671.95
-3174.48
4255.4
-499.052
-466.943
-163.364
-39.6643
-53.6631
43.3564
-98.1039
-124.728
-22.1971
7.02972
14.0664
8.06356
4.00606
2.59821
0.754527
0.244356
-14469.9
-14671
-14049.7
-11174
-4382.97
14322.5
20502.5
10311.8
25359
4187.92
-5257.13
-1201.6
-3064.59
193.772
-641.1
-335.875
-151.177
-39.566
-61.9897
31.5632
-104.137
-109.905
-18.7022
5.81013
12.7163
7.93098
2.6064
1.43349
0.714347
0.235326
-7476.18
-8530.78
-8350.48
-4357.28
2071.94
-1650.86
-4891.89
2680.98
27118.7
2123.79
-7635.67
-5510.98
-315.027
-208.757
-678.37
14.6889
-156.874
-26.4921
-50.2498
23.0133
-89.3241
-96.385
-15.9371
4.54532
11.4263
7.72023
2.543
1.41017
0.721878
0.225181
728.206
2313.91
-597.509
1087.36
6105.55
6169.05
1216.9
277.965
14567.4
3566.06
-9522.26
-5288.02
3070.59
384.823
-1002.77
37.1634
-163.612
-20.2505
-48.3106
16.6788
-79.6462
-83.1389
-13.6544
3.31628
10.1307
7.45172
2.45092
1.37803
0.688881
0.214633
1841.65
900.139
369.039
1016.06
1600.97
1724.51
1552.86
1236.57
480.734
-17211.3
-5366.61
-45.7481
1032.14
260.137
-144.847
19.0936
-128.651
-21.8136
-45.9082
4.23625
-69.9966
-71.268
-11.7756
2.26785
8.82492
7.12041
2.34858
1.33737
0.677338
0.202699
5504.39
344.325
732.188
922.182
927.177
718.358
975.884
1602.59
-338.432
-4210.35
-3746.66
-2807.15
-1525.78
48.3007
-140.781
3.12784
-108.775
-26.3403
-41.4036
1.34819
-61.2612
-60.1896
-10.2757
1.39883
7.54434
6.7248
2.22415
1.2832
0.640725
0.19006
797.857
654.228
750.151
796.404
774.345
838.831
1026.58
1199.19
-841.881
-2215.87
-2052.65
-612.275
-556.39
-114.733
-54.0924
-34.2355
-88.7202
-25.904
-38.0497
-7.22634
-53.0898
-50.4078
-9.04668
0.712573
6.30471
6.26665
2.08297
1.21615
0.614331
0.176113
687.654
672.826
719.743
747.029
752.864
966.86
1234.31
-925.557
-523.065
-845.669
-1070.04
-475.047
-1144.61
-4.19175
-65.7867
-33.6804
-73.6767
-25.6889
-33.2477
-10.1209
-45.4948
-41.6379
-8.00506
0.202078
5.13976
5.74593
1.9217
1.13406
0.56846
0.161067
589.958
612.028
604.185
667.961
617.22
724.694
411.431
274.244
43.8995
-418.724
-659.429
-493.375
-152.372
93.4885
-122.555
-33.1282
-66.0524
-24.01
-30.1539
-13.465
-38.3925
-34.0315
-7.06848
-0.14365
4.06724
5.16468
1.74059
1.0367
0.527889
0.144708
506.146
526.654
492.601
547.186
440.652
476.565
323.784
38.2088
-123.777
-469.959
-276.939
-275.309
-111.937
-165.616
-75.8553
-36.8524
-54.8347
-24.3517
-25.5506
-14.9874
-31.6132
-27.31
-6.15886
-0.341704
3.11042
4.52497
1.53809
0.923448
0.467561
0.127018
450.52
422.999
423.781
361.498
403.541
371.925
179.417
281.366
103.149
72.3172
-445.57
-256.919
-169.7
-77.7162
-93.8026
-41.3657
-48.8921
-24.6138
-22.5047
-15.2803
-25.3179
-21.4082
-5.20797
-0.440108
2.28125
3.8286
1.31347
0.793975
0.409708
0.107828
299.604
295.1
306.609
290.911
303.422
292.194
286.868
220.742
156.282
119.601
-278.34
-235.753
-182.134
-123.393
-49.9184
-54.2753
-38.4254
-24.6441
-18.4291
-14.4676
-19.2791
-16.169
-4.16964
-0.443865
1.58495
3.0774
1.06567
0.647872
0.332621
0.0870681
275.723
227.737
232.931
224.49
218.269
216.893
161.92
147.963
151.796
54.2066
-65.2176
-146.513
-166.019
-124.103
-63.8228
-54.0367
-34.2623
-23.5357
-15.4073
-12.6318
-13.7287
-11.3771
-3.03188
-0.395435
1.01594
2.27154
0.793742
0.48475
0.253237
0.0645636
16.8653
165.39
149.148
126.981
128.103
118.06
104.389
87.4741
92.9216
95.2441
63.6156
-144.005
-143.569
-143.444
-32.6532
-56.6048
-21.6892
-21.4117