/*--------------------------------*- C++ -*----------------------------------*\
| =========                 |                                                 |
| \\      /  F ield         | OpenFOAM: The Open Source CFD Toolbox           |
|  \\    /   O peration     | Version:  2.4.0                                 |
|   \\  /    A nd           | Web:      www.OpenFOAM.org                      |
|    \\/     M anipulation  |                                                 |
\*---------------------------------------------------------------------------*/
FoamFile
{
    version     2.0;
    format      ascii;
    class       surfaceScalarField;
    location    "0.259";
    object      phi;
}
// * * * * * * * * * * * * * * * * * * * * * * * * * * * * * * * * * * * * * //

dimensions      [0 3 -1 0 0 0 0];

internalField   nonuniform List<scalar> 
19800
(
1.76242e-13
-1.76242e-13
6.52355e-13
-4.74505e-13
1.34761e-12
-6.94132e-13
2.1939e-12
-8.45756e-13
3.14098e-12
-9.46936e-13
4.14707e-12
-1.00599e-12
5.1727e-12
-1.02532e-12
6.17789e-12
-1.00463e-12
7.12149e-12
-9.43019e-13
7.96188e-12
-8.40112e-13
8.65831e-12
-6.96656e-13
9.17262e-12
-5.14992e-13
9.47378e-12
-3.02005e-13
9.53144e-12
-5.83479e-14
9.33009e-12
2.0099e-13
8.86502e-12
4.6497e-13
8.14463e-12
7.20316e-13
7.19264e-12
9.5169e-13
6.04762e-12
1.14444e-12
4.76085e-12
1.28604e-12
3.39266e-12
1.3676e-12
2.0075e-12
1.38491e-12
6.68883e-13
1.33874e-12
-5.65135e-13
1.23433e-12
-1.64518e-12
1.08022e-12
-2.53217e-12
8.86772e-13
-3.19749e-12
6.64635e-13
-3.62238e-12
4.23863e-13
-3.79749e-12
1.74016e-13
-3.72409e-12
-7.42859e-14
-3.41394e-12
-3.10727e-13
-2.89629e-12
-5.17952e-13
-2.21324e-12
-6.83243e-13
-1.41498e-12
-7.98474e-13
-5.49551e-13
-8.65743e-13
3.4276e-13
-8.92672e-13
1.23021e-12
-8.87786e-13
2.08765e-12
-8.57716e-13
2.89372e-12
-8.06299e-13
3.62867e-12
-7.35188e-13
4.27298e-12
-6.44582e-13
4.8055e-12
-5.32803e-13
5.21002e-12
-4.04729e-13
5.46951e-12
-2.59552e-13
5.56515e-12
-9.54952e-14
5.49746e-12
6.80441e-14
5.26116e-12
2.36818e-13
4.85971e-12
4.02053e-13
4.30359e-12
5.56691e-13
6.94145e-13
3.60985e-12
4.68759e-13
-6.43096e-13
1.53122e-12
-1.53543e-12
3.02678e-12
-2.18914e-12
4.84525e-12
-2.66426e-12
6.89237e-12
-2.99415e-12
9.07812e-12
-3.1915e-12
1.13094e-11
-3.25599e-12
1.34871e-11
-3.18167e-12
1.55064e-11
-2.96226e-12
1.72602e-11
-2.59449e-12
1.86426e-11
-2.08031e-12
1.95545e-11
-1.42834e-12
1.99089e-11
-6.57513e-13
1.96378e-11
2.12315e-13
1.86984e-11
1.14038e-12
1.70786e-11
2.08495e-12
1.48029e-11
2.99585e-12
1.19342e-11
3.81984e-12
8.57225e-12
4.50563e-12
4.84817e-12
5.00954e-12
9.14965e-13
5.3007e-12
-3.06448e-12
5.36473e-12
-6.92996e-12
5.20475e-12
-1.05351e-11
4.8397e-12
-1.37556e-11
4.30026e-12
-1.64935e-11
3.62339e-12
-1.86778e-11
2.84714e-12
-2.02631e-11
2.00734e-12
-2.12284e-11
1.13772e-12
-2.15773e-11
2.73525e-13
-2.13451e-11
-5.43622e-13
-2.06025e-11
-1.26105e-12
-1.94556e-11
-1.83056e-12
-1.80312e-11
-2.22344e-12
-1.64523e-11
-2.44512e-12
-1.48258e-11
-2.51948e-12
-1.324e-11
-2.4737e-12
-1.17684e-11
-2.32929e-12
-1.04754e-11
-2.09922e-12
-9.42111e-12
-1.78955e-12
-8.66286e-12
-1.40293e-12
-8.25324e-12
-9.42441e-13
-8.24283e-12
-4.14971e-13
-8.67108e-12
1.69146e-13
-9.56125e-12
7.95374e-13
-1.09333e-11
1.441e-12
-1.27814e-11
2.08576e-12
-1.50842e-11
2.70567e-12
-1.78034e-11
3.27643e-12
3.77519e-12
-2.08844e-11
6.84769e-13
-1.32674e-12
2.17962e-12
-3.03071e-12
4.23988e-12
-4.25043e-12
6.72034e-12
-5.14586e-12
9.49995e-12
-5.77458e-12
1.24583e-11
-6.15019e-12
1.5466e-11
-6.2637e-12
1.83819e-11
-6.09761e-12
2.10545e-11
-5.63549e-12
2.33273e-11
-4.86829e-12
2.50444e-11
-3.79855e-12
2.60589e-11
-2.44351e-12
2.6239e-11
-8.37696e-13
2.5485e-11
9.67166e-13
2.37293e-11
2.89728e-12
2.09532e-11
4.86234e-12
1.71917e-11
6.75829e-12
1.25374e-11
8.47464e-12
7.13867e-12
9.90477e-12
1.19095e-12
1.09577e-11
-5.07707e-12
1.15694e-11
-1.1422e-11
1.17105e-11
-1.76052e-11
1.13884e-11
-2.34097e-11
1.06442e-11
-2.86533e-11
9.54316e-12
-3.31951e-11
8.16375e-12
-3.69354e-11
6.58579e-12
-3.98128e-11
4.88317e-12
-4.17998e-11
3.12339e-12
-4.29028e-11
1.37556e-12
-4.31714e-11
-2.75701e-13
-4.27096e-11
-1.72328e-12
-4.16798e-11
-2.86057e-12
-4.02781e-11
-3.62504e-12
-3.86914e-11
-4.03119e-12
-3.70792e-11
-4.13059e-12
-3.55727e-11
-3.97892e-12
-3.42821e-11
-3.61861e-12
-3.33057e-11
-3.0745e-12
-3.27361e-11
-2.35833e-12
-3.2662e-11
-1.47654e-12
-3.31658e-11
-4.38093e-13
-3.43217e-11
7.41372e-13
-3.61877e-11
2.03567e-12
-3.88016e-11
3.4098e-12
-4.21804e-11
4.82021e-12
-4.63124e-11
6.2182e-12
-5.11588e-11
7.55239e-12
-5.66538e-11
8.77156e-12
9.82769e-12
-6.27063e-11
8.41084e-13
-2.16797e-12
2.68013e-12
-4.87193e-12
5.19397e-12
-6.76646e-12
8.19543e-12
-8.1492e-12
1.15375e-11
-9.11803e-12
1.50764e-11
-9.68982e-12
1.86562e-11
-9.84415e-12
2.21056e-11
-9.54773e-12
2.52389e-11
-8.76977e-12
2.78617e-11
-7.49209e-12
2.97783e-11
-5.71579e-12
3.08013e-11
-3.46631e-12
3.0763e-11
-7.98169e-13
2.95276e-11
2.20456e-12
2.70055e-11
5.4217e-12
2.31659e-11
8.70422e-12
1.80477e-11
1.18783e-11
1.17659e-11
1.47579e-11
4.50941e-12
1.71624e-11
-3.46864e-12
1.89369e-11
-1.18705e-11
1.99723e-11
-2.03789e-11
2.02197e-11
-2.86842e-11
1.9694e-11
-3.65085e-11
1.84681e-11
-4.36235e-11
1.66572e-11
-4.98587e-11
1.43975e-11
-5.51001e-11
1.18256e-11
-5.92817e-11
9.06329e-12
-6.2375e-11
6.21543e-12
-6.43851e-11
3.38475e-12
-6.53653e-11
7.0393e-13
-6.54439e-11
-1.64482e-12
-6.48415e-11
-3.46244e-12
-6.38329e-11
-4.6324e-12
-6.26662e-11
-5.19597e-12
-6.15406e-11
-5.25384e-12
-6.0614e-11
-4.90306e-12
-6.00189e-11
-4.21164e-12
-5.98762e-11
-3.21552e-12
-6.03035e-11
-1.92981e-12
-6.14159e-11
-3.63273e-13
-6.33223e-11
1.46895e-12
-6.6118e-11
3.53749e-12
-6.98782e-11
5.79614e-12
-7.46509e-11
8.18263e-12
-8.04523e-11
1.06216e-11
-8.72629e-11
1.30288e-11
-9.50264e-11
1.5316e-11
-1.0365e-10
1.73956e-11
1.91856e-11
-1.13008e-10
9.61195e-13
-3.13048e-12
3.08562e-12
-6.99934e-12
5.98491e-12
-9.66824e-12
9.42984e-12
-1.1596e-11
1.32473e-11
-1.29369e-11
1.72731e-11
-1.37166e-11
2.13315e-11
-1.39034e-11
2.52285e-11
-1.34458e-11
2.87527e-11
-1.2295e-11
3.16795e-11
-1.04197e-11
3.37798e-11
-7.81613e-12
3.48298e-11
-4.51531e-12
3.46238e-11
-5.9024e-13
3.29915e-11
3.8394e-12
2.98131e-11
8.60272e-12
2.50389e-11
1.34808e-11
1.87042e-11
1.8215e-11
1.09396e-11
2.25241e-11
1.97158e-12
2.61318e-11
-7.88943e-12
2.87991e-11
-1.82736e-11
3.03575e-11
-2.87864e-11
3.0733e-11
-3.90454e-11
2.99529e-11
-4.8714e-11
2.81361e-11
-5.75253e-11
2.54674e-11
-6.52922e-11
2.21631e-11
-7.19024e-11
1.84345e-11
-7.73009e-11
1.44604e-11
-8.14661e-11
1.03795e-11
-8.43951e-11
6.3129e-12
-8.61253e-11
2.43389e-12
-8.67954e-11
-9.74302e-13
-8.66955e-11
-3.56108e-12
-8.62101e-11
-5.11571e-12
-8.56515e-11
-5.75192e-12
-8.52431e-11
-5.65941e-12
-8.51502e-11
-4.9935e-12
-8.55108e-11
-3.84913e-12
-8.6458e-11
-2.2669e-12
-8.81292e-11
-2.57649e-13
-9.06641e-11
2.17225e-12
-9.41965e-11
5.00181e-12
-9.88445e-11
8.18555e-12
-1.047e-10
1.16511e-11
-1.11819e-10
1.53017e-11
-1.20219e-10
1.90215e-11
-1.29872e-10
2.2682e-11
-1.40705e-10
2.61488e-11
-1.52598e-10
2.9289e-11
3.19778e-11
-1.6539e-10
1.05868e-12
-4.19106e-12
3.42486e-12
-9.36809e-12
6.65722e-12
-1.29024e-11
1.04898e-11
-1.54299e-11
1.47262e-11
-1.71742e-11
1.91856e-11
-1.81768e-11
2.36777e-11
-1.83963e-11
2.79924e-11
-1.77615e-11
3.18986e-11
-1.62022e-11
3.51476e-11
-1.36693e-11
3.748e-11
-1.01483e-11
3.86361e-11
-5.67039e-12
3.83706e-11
-3.22987e-13
3.64708e-11
5.74126e-12
3.27782e-11
1.22974e-11
2.72126e-11
1.90481e-11
1.97954e-11
2.56336e-11
1.06659e-11
3.16547e-11
8.72472e-14
3.67115e-11
-1.15662e-11
4.04533e-11
-2.3841e-11
4.26327e-11
-3.62514e-11
4.31435e-11
-4.8331e-11
4.20322e-11
-5.96791e-11
3.94834e-11
-6.99938e-11
3.5781e-11
-7.90847e-11
3.12528e-11
-8.68628e-11
2.62112e-11
-9.33079e-11
2.09044e-11
-9.84218e-11
1.54925e-11
-1.02183e-10
1.00741e-11
-1.04579e-10
4.8293e-12
-1.05724e-10
1.72218e-13
-1.06004e-10
-3.27941e-12
-1.05985e-10
-5.13335e-12
-1.06046e-10
-5.6882e-12
-1.06409e-10
-5.29466e-12
-1.07218e-10
-4.18327e-12
-1.08598e-10
-2.46849e-12
-1.10685e-10
-1.79058e-13
-1.13635e-10
2.693e-12
-1.17615e-10
6.152e-12
-1.22786e-10
1.01729e-11
-1.29292e-10
1.46905e-11
-1.37241e-10
1.95999e-11
-1.46701e-10
2.47617e-11
-1.57691e-10
3.00107e-11
-1.70173e-10
3.5165e-11
-1.8406e-10
4.00353e-11
-1.99204e-10
4.44339e-11
4.81845e-11
-2.15411e-10
1.13973e-12
-5.33242e-12
3.70819e-12
-1.19378e-11
7.22225e-12
-1.64171e-11
1.13875e-11
-1.95954e-11
1.59904e-11
-2.17773e-11
2.08391e-11
-2.30258e-11
2.57345e-11
-2.32923e-11
3.0457e-11
-2.24848e-11
3.47621e-11
-2.05081e-11
3.83813e-11
-1.7289e-11
4.10276e-11
-1.27946e-11
4.24047e-11
-7.04705e-12
4.22217e-11
-1.3926e-13
4.02141e-11
7.74977e-12
3.61701e-11
1.63421e-11
2.99632e-11
2.52555e-11
2.15851e-11
3.4012e-11
1.11746e-11
4.20656e-11
-9.6844e-13
4.88548e-11
-1.43933e-11
5.38785e-11
-2.85408e-11
5.67804e-11
-4.2809e-11
5.74116e-11
-5.66248e-11
5.58477e-11
-6.95093e-11
5.23672e-11
-8.11244e-11
4.73953e-11
-9.12912e-11
4.14185e-11
-9.99732e-11
3.48923e-11
-1.07226e-10
2.81566e-11
-1.1311e-10
2.13761e-11
-1.17577e-10
1.45412e-11
-1.20493e-10
7.74535e-12
-1.21876e-10
1.55696e-12
-1.22248e-10
-2.90688e-12
-1.22512e-10
-4.86813e-12
-1.2311e-10
-5.08924e-12
-1.24201e-10
-4.20373e-12
-1.25867e-10
-2.51729e-12
-1.282e-10
-1.35689e-13
-1.31336e-10
2.95688e-12
-1.35454e-10
6.81028e-12
-1.40753e-10
1.14505e-11
-1.47431e-10
1.68495e-11
-1.55658e-10
2.2917e-11
-1.65565e-10
2.95071e-11
-1.77233e-10
3.64287e-11
-1.9068e-10
4.34579e-11
-2.05865e-10
5.03507e-11
-2.22683e-10
5.68537e-11
-2.40964e-10
6.27156e-11
6.76993e-11
-2.60479e-10
1.20546e-12
-6.53863e-12
3.93336e-12
-1.46655e-11
7.66975e-12
-2.01531e-11
1.21021e-11
-2.40273e-11
1.7008e-11
-2.66828e-11
2.21925e-11
-2.82102e-11
2.74553e-11
-2.85554e-11
3.25746e-11
-2.76047e-11
3.72993e-11
-2.52336e-11
4.13469e-11
-2.13375e-11
4.44054e-11
-1.58538e-11
4.61404e-11
-8.78244e-12
4.62083e-11
-2.07585e-13
4.42794e-11
9.67834e-12
4.00692e-11
2.05517e-11
3.33815e-11
3.19427e-11
2.41555e-11
4.32374e-11
1.25134e-11
5.37074e-11
-1.20877e-12
6.25768e-11
-1.64653e-11
6.9135e-11
-3.25571e-11
7.28723e-11
-4.87265e-11
7.35811e-11
-6.42571e-11
7.1378e-11
-7.85659e-11
6.66754e-11
-9.12713e-11
6.01e-11
-1.0222e-10
5.23669e-11
-1.11469e-10
4.4141e-11
-1.19215e-10
3.59025e-11
-1.25653e-10
2.78143e-11
-1.30714e-10
1.96027e-11
-1.34021e-10
1.10534e-11
-1.35321e-10
2.85686e-12
-1.35325e-10
-2.9026e-12
-1.35631e-10
-4.56177e-12
-1.36677e-10
-4.04436e-12
-1.3843e-10
-2.45112e-12
-1.40858e-10
-9.02744e-14
-1.44004e-10
3.00913e-12
-1.4801e-10
6.96168e-12
-1.53091e-10
1.18897e-11
-1.59493e-10
1.78515e-11
-1.67456e-10
2.48125e-11
-1.77188e-10
3.26484e-11
-1.88842e-10
4.11609e-11
-2.0251e-10
5.0097e-11
-2.18217e-10
5.91653e-11
-2.35917e-10
6.80509e-11
-2.55491e-10
7.6428e-11
-2.76748e-10
8.39733e-11
9.03787e-11
-2.99428e-10
1.25373e-12
-7.79214e-12
4.0901e-12
-1.75008e-11
7.97598e-12
-2.4038e-11
1.25923e-11
-2.86427e-11
1.77184e-11
-3.18082e-11
2.31654e-11
-3.36569e-11
2.87414e-11
-3.41316e-11
3.42316e-11
-3.30956e-11
3.93873e-11
-3.03903e-11
4.39191e-11
-2.58705e-11
4.74945e-11
-1.94304e-11
4.97405e-11
-1.10294e-11
5.02536e-11
-7.2169e-13
4.86226e-11
1.13084e-11
4.44651e-11
2.47082e-11
3.74821e-11
3.89248e-11
2.7526e-11
5.31928e-11
1.46751e-11
6.65579e-11
-7.0385e-13
7.79557e-11
-1.79443e-11
8.63758e-11
-3.6157e-11
9.10854e-11
-5.43708e-11
9.1795e-11
-7.16712e-11
8.86781e-11
-8.73302e-11
8.23339e-11
-1.00906e-10
7.36751e-11
-1.12282e-10
6.37431e-11
-1.21653e-10
5.35126e-11
-1.29457e-10
4.37065e-11
-1.36174e-10
3.45329e-11
-1.41778e-10
2.5207e-11
-1.45466e-10
1.47425e-11
-1.46306e-10
3.69605e-12
-1.45248e-10
-3.96087e-12
-1.45377e-10
-4.43338e-12
-1.46877e-10
-2.54436e-12
-1.49264e-10
-6.5843e-14
-1.52342e-10
2.9873e-12
-1.56113e-10
6.77882e-12
-1.60751e-10
1.15981e-11
-1.66532e-10
1.76703e-11
-1.7377e-10
2.50883e-11
-1.82758e-10
3.37999e-11
-1.9374e-10
4.36304e-11
-2.06895e-10
5.43159e-11
-2.22328e-10
6.55303e-11
-2.4007e-10
7.69069e-11
-2.60072e-10
8.8053e-11
-2.82207e-10
9.85635e-11
-3.06267e-10
1.08034e-10
1.16076e-10
-3.31964e-10
1.28024e-12
-9.0716e-12
4.16332e-12
-2.03828e-11
8.10937e-12
-2.79832e-11
1.28055e-11
-3.33381e-11
1.80441e-11
-3.70462e-11
2.36539e-11
-3.92664e-11
2.94622e-11
-3.99402e-11
3.52728e-11
-3.8907e-11
4.08504e-11
-3.59691e-11
4.59095e-11
-3.09308e-11
5.01048e-11
-2.36269e-11
5.30274e-11
-1.39528e-11
5.42081e-11
-1.90311e-12
5.31368e-11
1.2379e-11
4.93023e-11
2.8542e-11
4.22585e-11
4.59679e-11
3.1719e-11
6.37319e-11
1.76715e-11
8.06054e-11
4.97004e-13
9.51307e-11
-1.89825e-11
1.05856e-10
-3.96138e-11
1.11717e-10
-6.01324e-11
1.12314e-10
-7.93488e-11
1.07894e-10
-9.63297e-11
9.93145e-11
-1.10543e-10
8.78887e-11
-1.21913e-10
7.51134e-11
-1.30802e-10
6.24019e-11
-1.38006e-10
5.09117e-11
-1.44588e-10
4.11164e-11
-1.50748e-10
3.13676e-11
-1.55064e-10
1.90587e-11
-1.55075e-10
3.70712e-12
-1.51886e-10
-7.14977e-12
-1.51796e-10
-4.52352e-12
-1.53975e-10
-3.65579e-13
-1.57012e-10
2.97165e-12
-1.60603e-10
6.5774e-12
-1.64758e-10
1.09337e-11
-1.69741e-10
1.65809e-11
-1.75929e-10
2.38574e-11
-1.83716e-10
3.28752e-11
-1.93456e-10
4.354e-11
-2.0543e-10
5.56044e-11
-2.19838e-10
6.87229e-11
-2.36795e-10
8.2488e-11
-2.56341e-10
9.64522e-11
-2.78429e-10
1.10141e-10
-3.0293e-10
1.23065e-10
-3.29627e-10
1.34731e-10
1.44659e-10
-3.5821e-10
1.27955e-12
-1.03504e-11
4.13551e-12
-2.32385e-11
8.03451e-12
-3.18819e-11
1.2683e-11
-3.79863e-11
1.78988e-11
-4.22618e-11
2.35403e-11
-4.4908e-11
2.94664e-11
-4.58669e-11
3.55126e-11
-4.49542e-11
4.14716e-11
-4.19292e-11
4.70761e-11
-3.65361e-11
5.19815e-11
-2.85326e-11
5.57509e-11
-1.77222e-11
5.78489e-11
-4.00095e-12
5.76511e-11
1.2577e-11
5.44818e-11
3.17112e-11
4.76913e-11
5.27585e-11
3.67786e-11
7.46448e-11
2.1562e-11
9.58225e-11
2.39765e-12
1.14296e-10
-1.96913e-11
1.27946e-10
-4.31774e-11
1.35204e-10
-6.63969e-11
1.35533e-10
-8.7783e-11
1.2928e-10
-1.06113e-10
1.17644e-10
-1.20728e-10
1.02504e-10
-1.3159e-10
8.59767e-11
-1.39218e-10
7.00306e-11
-1.44777e-10
5.64719e-11
-1.50416e-10
4.67563e-11
-1.5714e-10
3.80925e-11
-1.62724e-10
2.46432e-11
-1.61742e-10
2.7257e-12
-1.54793e-10
-1.4098e-11
-1.54972e-10
-4.34244e-12
-1.58315e-10
2.97812e-12
-1.62024e-10
6.682e-12
-1.65884e-10
1.04382e-11
-1.70095e-10
1.51453e-11
-1.75093e-10
2.15792e-11
-1.81383e-10
3.01474e-11
-1.89447e-10
4.09387e-11
-1.99689e-10
5.37822e-11
-2.12418e-10
6.83325e-11
-2.27845e-10
8.41491e-11
-2.46097e-10
1.0074e-10
-2.67221e-10
1.17576e-10
-2.91184e-10
1.34103e-10
-3.17862e-10
1.49743e-10
-3.47039e-10
1.63908e-10
1.76016e-10
-3.78397e-10
1.24581e-12
-1.1596e-11
3.98861e-12
-2.59819e-11
7.71546e-12
-3.56092e-11
1.21653e-11
-4.24364e-11
1.71938e-11
-4.72907e-11
2.27008e-11
-5.04156e-11
2.85898e-11
-5.17568e-11
3.47424e-11
-5.11077e-11
4.09965e-11
-4.81839e-11
4.71225e-11
-4.2662e-11
5.27964e-11
-3.42056e-11
5.75712e-11
-2.24958e-11
6.08533e-11
-7.28191e-12
6.18953e-11
1.15358e-11
5.98229e-11
3.37841e-11
5.3714e-11
5.88678e-11
4.27495e-11
8.56099e-11
2.64455e-11
1.12127e-10
5.05217e-12
1.3569e-10
-2.01457e-11
1.53144e-10
-4.70746e-11
1.62133e-10
-7.35427e-11
1.62002e-10
-9.74733e-11
1.53211e-10
-1.17246e-10
1.37417e-10
-1.32036e-10
1.17295e-10
-1.4187e-10
9.58115e-11
-1.47421e-10
7.55823e-11
-1.49953e-10
5.90054e-11
-1.52596e-10
4.93992e-11
-1.59186e-10
4.46839e-11
-1.67622e-10
3.30799e-11
-1.66187e-10
1.29229e-12
-1.53418e-10
-2.68647e-11
-1.55179e-10
-2.57964e-12
-1.60626e-10
8.42714e-12
-1.64714e-10
1.07711e-11
-1.68234e-10
1.39597e-11
-1.72041e-10
1.89535e-11
-1.76713e-10
2.62521e-11
-1.82845e-10
3.62789e-11
-1.90971e-10
4.90646e-11
-2.01522e-10
6.43329e-11
-2.14812e-10
8.16207e-11
-2.31053e-10
1.0039e-10
-2.50384e-10
1.2007e-10
-2.72867e-10
1.40059e-10
-2.98492e-10
1.59727e-10
-3.27158e-10
1.78409e-10
-3.58666e-10
1.95416e-10
2.10053e-10
-3.92703e-10
1.17366e-12
-1.27701e-11
3.70614e-12
-2.85156e-11
7.11952e-12
-3.90235e-11
1.11978e-11
-4.65154e-11
1.58457e-11
-5.19394e-11
2.1015e-11
-5.55859e-11
2.66656e-11
-5.74083e-11
3.27398e-11
-5.71825e-11
3.91394e-11
-5.45832e-11
4.56965e-11
-4.92179e-11
5.21364e-11
-4.06438e-11
5.80317e-11
-2.83894e-11
6.27543e-11
-1.20032e-11
6.54401e-11
8.85094e-12
6.49897e-11
3.42348e-11
6.01374e-11
6.37204e-11
4.96154e-11
9.61323e-11
3.24183e-11
1.29325e-10
8.53035e-12
1.59578e-10
-2.04175e-11
1.82092e-10
-5.15285e-11
1.93244e-10
-8.1953e-11
1.92426e-10
-1.08923e-10
1.8018e-10
-1.30269e-10
1.58764e-10
-1.45004e-10
1.3203e-10
-1.53328e-10
1.04136e-10
-1.56069e-10
7.83237e-11
-1.54647e-10
5.75844e-11
-1.515e-10
4.6252e-11
-1.52092e-10
4.52766e-11
-1.65258e-10
4.6247e-11
-1.68837e-10
4.87288e-12
-1.47683e-10
-4.80163e-11
-1.55838e-10
5.57703e-12
-1.64473e-10
1.70639e-11
-1.65337e-10
1.16357e-11
-1.67173e-10
1.57971e-11
-1.70017e-10
2.17984e-11
-1.74172e-10
3.0407e-11
-1.80071e-10
4.21775e-11
-1.88189e-10
5.71823e-11
-1.98952e-10
7.50947e-11
-2.12668e-10
9.53348e-11
-2.29549e-10
1.1727e-10
-2.49748e-10
1.40268e-10
-2.73362e-10
1.63672e-10
-3.00421e-10
1.86786e-10
-3.30871e-10
2.08859e-10
-3.64551e-10
2.29096e-10
2.46675e-10
-4.01173e-10
1.05902e-12
-1.383e-11
3.27582e-12
-3.07338e-11
6.22229e-12
-4.1971e-11
9.73863e-12
-5.00327e-11
1.37873e-11
-5.59891e-11
1.83797e-11
-6.01794e-11
2.35406e-11
-6.25698e-11
2.92851e-11
-6.29269e-11
3.5597e-11
-6.08941e-11
4.23972e-11
-5.60164e-11
4.94973e-11
-4.77419e-11
5.65344e-11
-3.54249e-11
6.28916e-11
-1.83595e-11
6.76189e-11
4.1238e-12
6.93875e-11
3.2466e-11
6.65246e-11
6.6583e-11
5.71821e-11
1.05475e-10
3.95097e-11
1.46997e-10
1.28422e-11
1.86246e-10
-2.06555e-11
2.1559e-10
-5.6818e-11
2.29407e-10
-9.20321e-11
2.2764e-10
-1.226e-10
2.10748e-10
-1.45531e-10
1.81696e-10
-1.59879e-10
1.46379e-10
-1.66458e-10
1.10715e-10
-1.6623e-10
7.80962e-11
-1.60968e-10
5.23222e-11
-1.51165e-10
3.6449e-11
-1.38489e-10
3.26017e-11
-1.3678e-10
4.45386e-11
-1.55643e-10
2.37362e-11
-1.597e-10
-4.3958e-11
-1.71612e-10
1.74891e-11
-1.63774e-10
9.22617e-12
-1.58909e-10
6.77082e-12
-1.59371e-10
1.62596e-11
-1.62072e-10
2.44987e-11
-1.66508e-10
3.48425e-11
-1.72662e-10
4.83303e-11
-1.80985e-10
6.55042e-11
-1.91996e-10
8.61035e-11
-2.06054e-10
1.09392e-10
-2.23406e-10
1.34621e-10
-2.44243e-10
1.61104e-10
-2.68724e-10
1.88151e-10
-2.9695e-10
2.15012e-10
-3.28942e-10
2.4085e-10
-3.64603e-10
2.64757e-10
2.8577e-10
-4.03696e-10
9.00157e-13
-1.4731e-11
2.69273e-12
-3.25275e-11
5.01399e-12
-4.42931e-11
7.769e-12
-5.27886e-11
1.09827e-11
-5.92038e-11
1.47289e-11
-6.39264e-11
1.91001e-11
-6.69411e-11
2.41906e-11
-6.80166e-11
3.00796e-11
-6.67816e-11
3.68025e-11
-6.27376e-11
4.42993e-11
-5.52374e-11
5.23328e-11
-4.34579e-11
6.03713e-11
-2.63984e-11
6.74495e-11
-2.95516e-12
7.20433e-11
2.78713e-11
7.20342e-11
6.65913e-11
6.48473e-11
1.12661e-10
4.74761e-11
1.64368e-10
1.79869e-11
2.15735e-10
-2.1255e-11
2.54832e-10
-6.34365e-11
2.71588e-10
-1.04312e-10
2.68517e-10
-1.38789e-10
2.45226e-10
-1.62856e-10
2.05764e-10
-1.75962e-10
1.59485e-10
-1.80415e-10
1.15167e-10
-1.78726e-10
7.64069e-11
-1.72735e-10
4.63312e-11
-1.62382e-10
2.60961e-11
-1.41522e-10
1.17405e-11
-1.28534e-10
3.15509e-11
-1.21621e-10
1.68221e-11
-1.49185e-10
-1.63945e-11
-1.43823e-10
1.21252e-11
-1.35892e-10
1.29464e-12
-1.36942e-10
7.82008e-12
-1.40962e-10
2.02785e-11
-1.47279e-10
3.08139e-11
-1.53785e-10
4.13478e-11
-1.60896e-10
5.544e-11
-1.6964e-10
7.42462e-11
-1.80899e-10
9.73605e-11
-1.95167e-10
1.23659e-10
-2.12756e-10
1.52209e-10
-2.33928e-10
1.82275e-10
-2.58936e-10
2.13158e-10
-2.87989e-10
2.44065e-10
-3.21213e-10
2.74073e-10
-3.58606e-10
3.02151e-10
3.27175e-10
-4.00011e-10
6.98676e-13
-1.54304e-11
1.96296e-12
-3.37924e-11
3.50664e-12
-4.58375e-11
5.30498e-12
-5.45877e-11
7.44513e-12
-6.13445e-11
1.00596e-11
-6.65409e-11
1.3303e-11
-7.01839e-11
1.73454e-11
-7.20577e-11
2.23644e-11
-7.17994e-11
2.8526e-11
-6.88982e-11
3.59378e-11
-6.26491e-11
4.45602e-11
-5.2081e-11
5.40563e-11
-3.58957e-11
6.35723e-11
-1.24726e-11
7.14868e-11
1.99556e-11
7.52715e-11
6.28058e-11
7.14841e-11
1.16448e-10
5.49838e-11
1.80868e-10
2.30835e-11
2.47635e-10
-2.26682e-11
3.00584e-10
-7.23014e-11
3.21222e-10
-1.20465e-10
3.16682e-10
-1.57776e-10
2.82538e-10
-1.81242e-10
2.29231e-10
-1.90823e-10
1.69066e-10
-1.9219e-10
1.16536e-10
-1.89752e-10
7.39686e-11
-1.86392e-10
4.29707e-11
-1.85934e-10
2.56371e-11
-1.93978e-10
1.97835e-11
-1.54524e-10
-7.90505e-12
-1.26929e-10
-1.0774e-11
-1.46837e-10
3.5109e-12
-8.11474e-11
-5.35659e-11
-8.33263e-11
3.47173e-12
-1.03792e-10
2.82842e-11
-1.19499e-10
3.59834e-11
-1.30535e-10
4.18482e-11
-1.38983e-10
4.97947e-11
-1.46601e-10
6.30566e-11
-1.55239e-10
8.28834e-11
-1.66311e-10
1.08432e-10
-1.80406e-10
1.37753e-10
-1.97825e-10
1.69627e-10
-2.18888e-10
2.03336e-10
-2.43961e-10
2.38231e-10
-2.73394e-10
2.73497e-10
-3.07445e-10
3.08124e-10
-3.46236e-10
3.40943e-10
3.70653e-10
-3.89713e-10
4.60946e-13
-1.58917e-11
1.10669e-12
-3.44386e-11
1.7408e-12
-4.6472e-11
2.40938e-12
-5.52566e-11
3.25596e-12
-6.2191e-11
4.46034e-12
-6.77448e-11
6.2242e-12
-7.19467e-11
8.77571e-12
-7.46081e-11
1.23761e-11
-7.53991e-11
1.73159e-11
-7.38381e-11
2.38909e-11
-6.92251e-11
3.23213e-11
-6.05128e-11
4.26034e-11
-4.61793e-11
5.42211e-11
-2.40915e-11
6.56907e-11
8.48533e-12
7.40888e-11
5.44075e-11
7.57193e-11
1.14818e-10
6.22456e-11
1.94342e-10
2.67514e-11
2.8313e-10
-2.76054e-11
3.54942e-10
-8.31083e-11
3.76726e-10
-1.41677e-10
3.75252e-10
-1.82524e-10
3.23386e-10
-1.99317e-10
2.46025e-10
-1.99561e-10
1.69311e-10
-1.92945e-10
1.0992e-10
-1.83262e-10
6.4285e-11
-1.6914e-10
2.88482e-11
-1.52408e-10
8.90437e-12
-1.28891e-10
-3.73501e-12
-1.12232e-10
-2.45661e-11
-1.06007e-10
-1.70008e-11
-1.40861e-10
3.8364e-11
-1.43029e-10
-5.13996e-11
-1.24972e-10
-1.45873e-11
-1.17689e-10
2.09994e-11
-1.16832e-10
3.51256e-11
-1.21436e-10
4.64509e-11
-1.26646e-10
5.50045e-11
-1.32082e-10
6.84914e-11
-1.38959e-10
8.97607e-11
-1.48912e-10
1.18385e-10
-1.62204e-10
1.51045e-10
-1.78867e-10
1.8629e-10
-1.99207e-10
2.23676e-10
-2.23735e-10
2.62758e-10
-2.52973e-10
3.02734e-10
-2.87335e-10
3.42486e-10
-3.27085e-10
3.80693e-10
4.15857e-10
-3.7229e-10
1.95052e-13
-1.60869e-11
1.59997e-13
-3.44037e-11
-2.10128e-13
-4.61021e-11
-8.00187e-13
-5.46665e-11
-1.42055e-12
-6.15702e-11
-1.86218e-12
-6.73023e-11
-1.90174e-12
-7.19064e-11
-1.28555e-12
-7.52239e-11
2.92682e-13
-7.69776e-11
3.21019e-12
-7.67566e-11
7.91226e-12
-7.39286e-11
1.49008e-11
-6.75027e-11
2.46113e-11
-5.58908e-11
3.71426e-11
-3.66232e-11
5.17307e-11
-6.10248e-12
6.52741e-11
4.08649e-11
7.36457e-11
1.06447e-10
6.57608e-11
2.02229e-10
2.9456e-11
3.19437e-10
-3.56082e-11
4.20008e-10
-1.02586e-10
4.43706e-10
-1.68861e-10
4.41528e-10
-2.14582e-10
3.69108e-10
-2.16159e-10
2.47604e-10
-1.98181e-10
1.51334e-10
-1.79669e-10
9.14085e-11
-1.6477e-10
4.93856e-11
-1.4583e-10
9.90788e-12
-1.26325e-10
-1.06018e-11
-1.08019e-10
-2.20418e-11
-1.02354e-10
-3.02306e-11
-1.14352e-10
-5.0034e-12
-1.002e-10
2.42121e-11
-1.23824e-10
-2.77762e-11
-1.12322e-10
-2.60901e-11
-1.09033e-10
1.77098e-11
-1.06017e-10
3.21089e-11
-1.08951e-10
4.93855e-11
-1.13349e-10
5.94033e-11
-1.16357e-10
7.14991e-11
-1.20392e-10
9.3797e-11
-1.2869e-10
1.26683e-10
-1.40749e-10
1.63105e-10
-1.56058e-10
2.016e-10
-1.74937e-10
2.42553e-10
-1.98153e-10
2.85973e-10
-2.26489e-10
3.31069e-10
-2.60539e-10
3.76535e-10
-3.00699e-10
4.20851e-10
4.6232e-10
-3.47163e-10
-8.10425e-14
-1.60059e-11
-8.24476e-13
-3.36605e-11
-2.23969e-12
-4.46869e-11
-4.14924e-12
-5.27567e-11
-6.33112e-12
-5.93878e-11
-8.56857e-12
-6.50644e-11
-1.06483e-11
-6.98264e-11
-1.23364e-11
-7.35363e-11
-1.33447e-11
-7.59703e-11
-1.32945e-11
-7.68081e-11
-1.16747e-11
-7.55496e-11
-7.81183e-12
-7.13663e-11
-8.58711e-13
-6.28439e-11
1.00683e-11
-4.75495e-11
2.53999e-11
-2.14328e-11
4.44438e-11
2.18226e-11
6.15606e-11
8.93321e-11
6.39822e-11
1.99809e-10
3.51776e-11
3.48243e-10
-5.29258e-11
5.08112e-10
-1.23152e-10
5.13933e-10
-2.31554e-10
5.49932e-10
-2.40343e-10
3.77897e-10
-2.11692e-10
2.18955e-10
-1.79206e-10
1.18848e-10
-1.49779e-10
6.19816e-11
-1.27131e-10
2.67377e-11
-1.10971e-10
-6.25302e-12
-1.00978e-10
-2.05935e-11
-9.48084e-11
-2.82108e-11
-9.60149e-11
-2.90228e-11
-9.10792e-11
-9.93784e-12
-6.98841e-11
3.018e-12
-8.31921e-11
-1.44676e-11
-8.691e-11
-2.23718e-11
-7.40265e-11
4.8269e-12
-8.21941e-11
4.02772e-11
-9.25717e-11
5.97639e-11
-9.89838e-11
6.58164e-11
-9.87739e-11
7.12904e-11
-9.87722e-11
9.37965e-11
-1.05531e-10
1.33443e-10
-1.16295e-10
1.73869e-10
-1.29645e-10
2.14949e-10
-1.46134e-10
2.59041e-10
-1.6708e-10
3.06917e-10
-1.93668e-10
3.57655e-10
-2.26697e-10
4.09562e-10
-2.6663e-10
4.60783e-10
5.09453e-10
-3.13764e-10
-3.48576e-13
-1.56574e-11
-1.78135e-12
-3.22279e-11
-4.21458e-12
-4.22536e-11
-7.41603e-12
-4.9555e-11
-1.11444e-11
-5.56593e-11
-1.51951e-11
-6.10139e-11
-1.93955e-11
-6.56267e-11
-2.35785e-11
-6.93545e-11
-2.75469e-11
-7.20033e-11
-3.10311e-11
-7.3325e-11
-3.36336e-11
-7.29476e-11
-3.47429e-11
-7.02569e-11
-3.34212e-11
-6.41647e-11
-2.82435e-11
-5.27259e-11
-1.7248e-11
-3.24268e-11
1.37301e-12
3.20307e-12
2.75936e-11
6.31128e-11
5.71733e-11
1.7023e-10
4.83268e-11
3.5709e-10
-2.19936e-11
5.78433e-10
-1.58166e-10
6.50106e-10
-2.25508e-10
6.17274e-10
-1.96317e-10
3.48706e-10
-1.53346e-10
1.75984e-10
-1.14799e-10
8.03013e-11
-8.63671e-11
3.35498e-11
-6.63698e-11
6.74074e-12
-5.98579e-11
-1.2764e-11
-6.10773e-11
-1.93723e-11
-6.67185e-11
-2.25674e-11
-7.17003e-11
-2.40387e-11
-6.06448e-11
-2.09914e-11
-4.41386e-11
-1.34867e-11
-3.80669e-11
-2.05381e-11
-4.72263e-11
-1.32114e-11
-5.00549e-11
7.65645e-12
-5.84814e-11
4.87047e-11
-7.66232e-11
7.79066e-11
-8.40249e-11
7.3219e-11
-7.83969e-11
6.56634e-11
-7.38311e-11
8.92316e-11
-7.98695e-11
1.39482e-10
-8.97422e-11
1.83742e-10
-1.00158e-10
2.25364e-10
-1.12866e-10
2.71747e-10
-1.3034e-10
3.2439e-10
-1.54217e-10
3.8153e-10
-1.85473e-10
4.40818e-10
-2.24518e-10
4.99827e-10
5.56579e-10
-2.71646e-10
-5.8865e-13
-1.50689e-11
-2.64052e-12
-3.01761e-11
-5.98875e-12
-3.89054e-11
-1.03534e-11
-4.51904e-11
-1.54822e-11
-5.05309e-11
-2.11947e-11
-5.53022e-11
-2.73778e-11
-5.94449e-11
-3.39632e-11
-6.27705e-11
-4.09018e-11
-6.50659e-11
-4.81386e-11
-6.60888e-11
-5.55748e-11
-6.55114e-11
-6.30163e-11
-6.28149e-11
-7.00679e-11
-5.71122e-11
-7.59031e-11
-4.68895e-11
-7.87329e-11
-2.95959e-11
-7.6052e-11
5.22994e-13
-6.29845e-11
5.00457e-11
-3.36558e-11
1.40901e-10
1.79012e-11
3.05533e-10
-5.08461e-11
6.4718e-10
-1.20468e-10
7.19728e-10
-1.36584e-10
6.33391e-10
-8.72833e-11
2.99406e-10
-4.07371e-11
1.29438e-10
-1.62949e-11
5.58591e-11
-4.62863e-12
2.18838e-11
-1.32431e-12
3.43733e-12
-5.24662e-12
-8.83996e-12
-1.3208e-11
-1.14087e-11
-2.53832e-11
-1.03899e-11
-3.52636e-11
-1.41563e-11
-2.97821e-11
-2.64715e-11
-1.49767e-11
-2.8291e-11
-8.26653e-12
-2.72474e-11
-6.51591e-12
-1.49613e-11
-1.1946e-11
1.30871e-11
-2.42293e-11
6.09883e-11
-5.28498e-11
1.06527e-10
-6.2304e-11
8.26734e-11
-5.29101e-11
5.62698e-11
-4.46871e-11
8.10089e-11
-5.45468e-11
1.49342e-10
-6.3611e-11
1.92806e-10
-6.80699e-11
2.29823e-10
-7.48627e-11
2.78539e-10
-8.75622e-11
3.37089e-10
-1.07812e-10
4.01779e-10
-1.36583e-10
4.69588e-10
-1.74143e-10
5.37386e-10
6.03052e-10
-2.20617e-10
-7.816e-13
-1.42874e-11
-3.33504e-12
-2.76227e-11
-7.4226e-12
-3.48179e-11
-1.27221e-11
-3.98913e-11
-1.8972e-11
-4.4282e-11
-2.60145e-11
-4.82611e-11
-3.37926e-11
-5.16682e-11
-4.23346e-11
-5.42297e-11
-5.17422e-11
-5.56589e-11
-6.21899e-11
-5.56413e-11
-7.39345e-11
-5.37666e-11
-8.7361e-11
-4.93881e-11
-1.03035e-10
-4.14376e-11
-1.21734e-10
-2.81905e-11
-1.44622e-10
-6.70723e-12
-1.71635e-10
2.75355e-11
-2.01358e-10
7.97682e-11
-2.22646e-10
1.62189e-10
-2.38812e-10
3.21698e-10
-1.94507e-10
6.02874e-10
-3.5023e-12
5.28723e-10
2.9072e-11
6.00817e-10
1.12198e-10
2.1628e-10
1.12859e-10
1.28777e-10
9.75243e-11
7.11939e-11
7.92904e-11
4.01183e-11
6.17259e-11
2.10031e-11
4.46162e-11
8.27135e-12
3.22581e-11
9.50934e-13
2.11059e-11
7.63478e-13
8.30153e-12
-1.35129e-12
3.16325e-12
-2.13329e-11
5.14824e-12
-3.0276e-11
4.21166e-12
-2.63109e-11
6.20492e-12
-1.69548e-11
1.34388e-11
5.85284e-12
2.96348e-11
4.47917e-11
-2.86577e-12
1.39027e-10
-8.96646e-12
8.87737e-11
-3.21182e-11
7.94213e-11
-2.09401e-11
6.98306e-11
-3.93311e-11
1.67733e-10
-3.69889e-11
1.90463e-10
-3.11244e-11
2.23958e-10
-3.06865e-11
2.78102e-10
-3.80111e-11
3.44415e-10
-5.41708e-11
4.1794e-10
-7.99796e-11
4.95398e-10
-1.15688e-10
5.73094e-10
6.48326e-10
-1.60962e-10
-9.1283e-13
-1.33746e-11
-3.81235e-12
-2.47232e-11
-8.40506e-12
-3.02255e-11
-1.43303e-11
-3.39669e-11
-2.13116e-11
-3.73019e-11
-2.91988e-11
-4.03752e-11
-3.79647e-11
-4.29033e-11
-4.76897e-11
-4.45053e-11
-5.85538e-11
-4.47952e-11
-7.08356e-11
-4.33595e-11
-8.49301e-11
-3.96721e-11
-1.01388e-10
-3.29302e-11
-1.20991e-10
-2.18344e-11
-1.44757e-10
-4.42516e-12
-1.74024e-10
2.25596e-11
-2.09719e-10
6.32292e-11
-2.53501e-10
1.2355e-10
-2.85196e-10
1.93883e-10
-2.08295e-10
2.44797e-10
2.7866e-11
3.66714e-10
-1.60917e-11
5.72682e-10
3.93435e-10
1.91291e-10
3.03079e-10
3.06636e-10
2.46765e-10
1.85091e-10
1.91193e-10
1.26766e-10
1.46548e-10
8.47639e-11
1.11223e-10
5.63297e-11
8.37903e-11
3.57045e-11
6.50719e-11
1.96696e-11
5.02569e-11
1.55782e-11
2.93746e-11
1.95305e-11
2.30293e-11
-1.49884e-11
1.4546e-11
-2.17935e-11
5.72408e-12
-1.749e-11
2.42551e-12
-1.36573e-11
1.10038e-11
-2.7265e-12
3.60096e-11
1.9785e-11
5.53182e-11
1.19718e-10
3.37241e-11
1.10367e-10
1.89958e-11
9.41493e-11
2.16331e-12
8.6663e-11
-8.42238e-12
1.78319e-10
8.33417e-12
1.73708e-10
1.81728e-11
2.14121e-10
2.24861e-11
2.7379e-10
1.89066e-11
3.47996e-10
6.44886e-12
4.30398e-10
-1.63396e-11
5.18186e-10
-4.98329e-11
6.06588e-10
6.9202e-10
-9.3528e-11
-9.74613e-13
-1.23999e-11
-4.0428e-12
-2.16551e-11
-8.87218e-12
-2.53966e-11
-1.5067e-11
-2.77729e-11
-2.23273e-11
-3.00426e-11
-3.04896e-11
-3.22136e-11
-3.95194e-11
-3.3874e-11
-4.94893e-11
-3.45354e-11
-6.05595e-11
-3.3725e-11
-7.29559e-11
-3.09633e-11
-8.69413e-11
-2.56868e-11
-1.02737e-10
-1.71345e-11
-1.20331e-10
-4.24059e-12
-1.39182e-10
1.44249e-11
-1.57258e-10
4.06353e-11
-1.6993e-10
7.59014e-11
-1.68055e-10
1.21675e-10
-1.68634e-10
1.94462e-10
-8.66358e-11
1.628e-10
-1.07021e-11
2.90782e-10
1.30459e-10
4.31522e-10
2.00438e-10
1.21313e-10
2.49588e-10
2.57487e-10
2.40689e-10