/*--------------------------------*- C++ -*----------------------------------*\
| =========                 |                                                 |
| \\      /  F ield         | OpenFOAM: The Open Source CFD Toolbox           |
|  \\    /   O peration     | Version:  2.4.0                                 |
|   \\  /    A nd           | Web:      www.OpenFOAM.org                      |
|    \\/     M anipulation  |                                                 |
\*---------------------------------------------------------------------------*/
FoamFile
{
    version     2.0;
    format      ascii;
    class       surfaceScalarField;
    location    "0.27";
    object      phiAlpha;
}
// * * * * * * * * * * * * * * * * * * * * * * * * * * * * * * * * * * * * * //

dimensions      [0 3 -1 0 0 0 0];

internalField   nonuniform List<scalar> 
19800
(
-1.97976e-64
2.48135e-68
5.96867e-64
-1.55603e-60
1.59199e-59
-3.40272e-56
9.11768e-56
-1.15598e-52
9.1469e-53
-6.85417e-50
2.42344e-50
-1.17166e-47
2.41153e-48
-8.00192e-46
1.12732e-46
-2.66081e-44
2.8581e-45
-4.86249e-43
4.35407e-44
-5.2673e-42
4.41494e-43
-3.59859e-41
3.33493e-42
-1.60542e-40
2.03976e-41
-3.78095e-40
1.10068e-40
1.28254e-42
5.6418e-40
2.75365e-41
2.88493e-39
2.70259e-40
1.54875e-38
2.36332e-39
7.96314e-38
1.90809e-38
3.41764e-37
1.34806e-37
1.04797e-36
8.30608e-37
7.63081e-37
4.41985e-36
-7.1074e-35
2.06692e-35
-5.97951e-34
8.62073e-35
-3.204e-33
3.24016e-34
-1.35386e-32
1.0933e-33
-4.75529e-32
3.30132e-33
-1.4e-31
8.86683e-33
-3.24453e-31
2.08785e-32
-5.22706e-31
4.00811e-32
-5.86598e-31
5.52024e-32
-4.62107e-31
5.46838e-32
-2.64607e-31
3.93598e-32
-1.14974e-31
2.13241e-32
-3.97731e-32
9.02442e-33
-1.15343e-32
3.0936e-33
-2.8954e-33
8.95449e-34
-6.19998e-34
2.2465e-34
-1.08485e-34
4.80428e-35
-1.48604e-35
8.3904e-36
-1.55094e-36
1.1472e-36
-1.24464e-37
1.1955e-37
-7.88239e-39
9.57927e-39
-3.92617e-40
6.0511e-40
-1.37806e-41
2.99923e-41
-3.15824e-43
1.04357e-42
-7.27624e-45
2.35873e-44
-5.42166e-45
5.32595e-46
-3.49797e-44
3.86176e-46
-2.41394e-43
2.40587e-45
1.59017e-44
-1.42617e-42
1.47468e-64
-2.81983e-62
7.68318e-60
-4.05783e-57
1.6817e-55
-1.06968e-52
6.92809e-52
-2.69528e-49
5.06593e-49
-1.22619e-46
1.06701e-46
-1.72317e-44
8.98951e-45
-1.01892e-42
3.71174e-43
-3.04293e-41
8.55083e-42
-5.12079e-40
1.20382e-40
-5.18409e-39
1.13627e-39
-3.31669e-38
8.02477e-39
-1.38156e-37
4.62e-38
-2.94098e-37
2.40844e-37
4.3758e-39
1.21395e-36
8.36021e-38
5.94779e-36
7.73709e-37
3.02027e-35
6.35186e-36
1.45624e-34
4.77842e-35
5.71298e-34
3.05786e-34
1.62967e-33
1.71441e-33
1.40124e-33
8.43868e-33
-7.69928e-32
3.63096e-32
-6.18689e-31
1.39159e-31
-3.10035e-30
4.79927e-31
-1.21931e-29
1.4953e-30
-3.94453e-29
4.17066e-30
-1.06465e-28
1.0253e-29
-2.29857e-28
2.19986e-29
-3.66708e-28
3.90948e-29
-4.30763e-28
5.2975e-29
-3.7554e-28
5.45864e-29
-2.46519e-28
4.3255e-29
-1.25348e-28
2.67826e-29
-5.15197e-29
1.32609e-29
-1.78623e-29
5.41533e-30
-5.31133e-30
1.88327e-30
-1.34195e-30
5.63363e-31
-2.80408e-31
1.43234e-31
-4.71985e-32
3.0112e-32
-6.28702e-33
5.09944e-33
-6.68706e-34
6.83372e-34
-5.71894e-35
7.30701e-35
-3.81769e-36
6.26997e-36
-1.84484e-37
4.18523e-37
-6.11628e-39
2.01254e-38
-2.86604e-40
6.59933e-40
-4.39958e-40
3.03714e-41
-7.03502e-39
4.54374e-41
-1.07322e-37
7.02319e-40
1.02692e-38
-1.398e-36
9.85432e-62
-1.78464e-59
7.79019e-57
-3.70616e-54
2.34173e-52
-8.93889e-50
7.1765e-49
-1.61264e-46
3.9957e-46
-5.70556e-44
6.86499e-44
-6.66786e-42
4.97027e-42
-3.43634e-40
1.83087e-40
-9.24951e-39
3.86466e-39
-1.43686e-37
5.07156e-38
-1.36355e-36
4.48692e-37
-8.19894e-36
2.98379e-36
-3.18038e-35
1.6289e-35
-6.03371e-35
8.14092e-35
2.37501e-36
3.95399e-34
3.98036e-35
1.83562e-33
3.44618e-34
8.54013e-33
2.58834e-33
3.75961e-32
1.78601e-32
1.31939e-31
1.03574e-31
3.27418e-31
5.25146e-31
1.52771e-31
2.35016e-30
-1.46141e-29
9.24194e-30
-1.01091e-28
3.24863e-29
-4.5891e-28
1.03043e-28
-1.66787e-27
2.9608e-28
-5.03655e-27
7.6856e-28
-1.26641e-26
1.76816e-27
-2.59755e-26
3.53436e-27
-4.11104e-26
5.95715e-27
-4.98145e-26
7.9842e-27
-4.65772e-26
8.45712e-27
-3.37324e-26
7.16898e-27
-1.9307e-26
4.89771e-27
-9.07867e-27
2.73873e-27
-3.63123e-27
1.28625e-27
-1.25018e-27
5.19229e-28
-3.68129e-28
1.81045e-28
-9.11407e-29
5.40256e-29
-1.86839e-29
1.35562e-29
-3.13183e-30
2.81689e-30
-4.33859e-31
4.78491e-31
-4.87619e-32
6.70907e-32
-4.21924e-33
7.6113e-33
-2.66964e-34
6.61916e-34
-1.26313e-35
4.18497e-35
-4.43318e-36
1.96483e-36
-5.41054e-35
6.78924e-37
-6.238e-34
8.08962e-36
-6.12489e-33
9.02667e-35
8.50171e-34
-5.13074e-32
2.07165e-59
-4.24332e-57
4.18157e-54
-1.92213e-51
1.23505e-49
-3.27031e-47
2.74435e-46
-4.24804e-44
1.18714e-43
-1.18709e-41
1.68931e-41
-1.16656e-39
1.06143e-39
-5.27595e-38
3.51153e-38
-1.28573e-36
6.82659e-37
-1.8504e-35
8.39443e-36
-1.65201e-34
7.00086e-35
-9.38913e-34
4.38564e-34
-3.39851e-33
2.27027e-33
-5.74391e-33
1.08123e-32
4.57947e-34
4.99946e-32
6.83564e-33
2.18135e-31
5.509e-32
9.29186e-31
3.7859e-31
3.69171e-30
2.36824e-30
1.16782e-29
1.25303e-29
2.53263e-29
5.7638e-29
3.48497e-30
2.3314e-28
-1.01852e-27
8.36408e-28
-6.18209e-27
2.68964e-27
-2.56064e-26
7.84768e-27
-8.6111e-26
2.08548e-26
-2.44189e-25
5.03585e-26
-5.79787e-25
1.09007e-25
-1.14272e-24
2.05761e-25
-1.79616e-24
3.32791e-25
-2.22777e-24
4.41775e-25
-2.19081e-24
4.77301e-25
-1.71103e-24
4.24526e-25
-1.07376e-24
3.13191e-25
-5.5988e-25
1.93093e-25
-2.49783e-25
1.01234e-25
-9.65708e-26
4.58692e-26
-3.22865e-26
1.80631e-26
-9.2222e-27
6.15417e-27
-2.21933e-27
1.79195e-27
-4.46544e-28
4.39785e-28
-7.53772e-29
9.02284e-29
-1.01134e-29
1.55072e-29
-1.03418e-30
2.11142e-30
-7.73501e-32
2.17985e-31
-5.3533e-33
1.63505e-32
-1.60132e-32
1.12593e-33
-1.62071e-31
3.32226e-33
-1.40358e-30
3.28691e-32
-1.03365e-29
2.75694e-31
1.94815e-30
-6.50722e-29
2.917e-57
-7.54197e-55
1.49537e-51
-5.77931e-49
3.24361e-47
-6.39212e-45
5.25871e-44
-6.1247e-42
1.80279e-41
-1.37617e-39
2.15639e-39
-1.14938e-37
1.18717e-37
-4.59229e-36
3.55011e-36
-1.01782e-34
6.38776e-35
-1.36213e-33
7.39232e-34
-1.14843e-32
5.84495e-33
-6.20129e-32
3.45263e-32
-2.10345e-31
1.68988e-31
-3.17518e-31
7.62149e-31
4.36033e-32
3.32527e-30
5.85521e-31
1.35463e-29
4.37697e-30
5.28638e-29
2.75812e-29
1.88616e-28
1.5586e-28
5.36667e-28
7.52589e-28
1.0125e-27
3.15426e-27
-6.57682e-28
1.15463e-26
-3.71061e-26
3.76975e-26
-1.98299e-25
1.10915e-25
-7.50087e-25
2.97772e-25
-2.33592e-24
7.32439e-25
-6.21619e-24
1.64709e-24
-1.40511e-23
3.3541e-24
-2.66847e-23
6.03266e-24
-4.16394e-23
9.39778e-24
-5.2634e-23
1.23594e-23
-5.38832e-23
1.35609e-23
-4.45944e-23
1.25244e-23
-3.00791e-23
9.8191e-24
-1.6999e-23
6.56422e-24
-8.27711e-24
3.76202e-24
-3.52048e-24
1.87194e-24
-1.30881e-24
8.14496e-25
-4.20222e-25
3.0973e-25
-1.14582e-25
1.01784e-25
-2.65013e-26
2.84362e-26
-5.0689e-27
6.74078e-27
-7.663e-28
1.31949e-27
-8.80762e-29
2.0339e-28
-7.25072e-30
2.36966e-29
-1.13616e-30
1.96256e-30
-7.36066e-30
3.06694e-31
-6.10054e-29
1.963e-30
-4.29472e-28
1.59183e-29
-2.57415e-27
1.08579e-28
6.24461e-28
-1.32181e-26
3.62013e-55
-1.25375e-52
3.36523e-49
-1.03147e-46
4.86521e-45
-7.54531e-43
5.88414e-42
-5.46015e-40
1.62979e-39
-1.00164e-37
1.65955e-37
-7.17842e-36
8.07272e-36
-2.54941e-34
2.19493e-34
-5.1608e-33
3.67215e-33
-6.44448e-32
4.01627e-32
-5.14967e-31
3.02564e-31
-2.6541e-30
1.69015e-30
-8.48912e-30
7.80684e-30
-1.14857e-29
3.31266e-29
2.43984e-30
1.35066e-28
2.95702e-29
5.10899e-28
2.04516e-28
1.82342e-27
1.18254e-27
5.8381e-27
6.05312e-27
1.48433e-26
2.66908e-26
2.37324e-26
1.02016e-25
-4.7162e-26
3.39068e-25
-8.47447e-25
1.00546e-24
-3.96449e-24
2.70881e-24
-1.36553e-23
6.69351e-24
-3.93302e-23
1.52426e-23
-9.79752e-23
3.19405e-23
-2.10847e-22
6.11346e-23
-3.86645e-22
1.04962e-22
-5.97972e-22
1.58125e-22
-7.67981e-22
2.05947e-22
-8.13511e-22
2.28721e-22
-7.05595e-22
2.17828e-22
-5.03679e-22
1.79805e-22
-3.03618e-22
1.29003e-22
-1.58958e-22
7.9732e-23
-7.33601e-23
4.29047e-23
-2.98672e-23
2.03048e-23
-1.05749e-23
8.46804e-24
-3.20127e-24
3.07518e-24
-8.23621e-25
9.56964e-25
-1.72709e-25
2.5341e-25
-2.87428e-26
5.4632e-26
-3.61927e-27
9.31068e-27
-3.31184e-28
1.19283e-27
-1.20579e-28
1.10129e-28
-8.6134e-28
4.00712e-29
-6.083e-27
2.8318e-28
-3.63799e-26
1.95819e-27
-1.85444e-25
1.135e-26
5.55099e-26
-8.12689e-25
4.54739e-53
-1.87753e-50
4.72259e-47
-1.18074e-44
4.59166e-43
-5.83989e-41
4.23216e-40
-3.25287e-38
9.61721e-38
-4.93388e-36
8.42373e-36
-3.05946e-34
3.64644e-34
-9.71145e-33
9.06027e-33
-1.80231e-31
1.4151e-31
-2.10633e-30
1.46842e-30
-1.6004e-29
1.05862e-29
-7.90776e-29
5.62046e-29
-2.40382e-28
2.44772e-28
-2.93582e-28
9.72117e-28
8.89841e-29
3.67442e-27
9.75487e-28
1.28137e-26
6.21574e-27
4.17906e-26
3.30421e-26
1.19869e-25
1.53626e-25
2.70435e-25
6.20583e-25
3.4945e-25
2.16331e-24
-1.3389e-24
6.53425e-24
-1.32941e-23
1.76136e-23
-5.43075e-23
4.34201e-23
-1.69994e-22
9.88031e-23
-4.51841e-22
2.08376e-22
-1.05041e-21
4.0663e-22
-2.14357e-21
7.30398e-22
-3.79704e-21
1.19482e-21
-5.81162e-21
1.7462e-21
-7.56515e-21
2.25332e-21
-8.26329e-21
2.52449e-21
-7.45699e-21
2.46331e-21
-5.56405e-21
2.129e-21
-3.5374e-21
1.63346e-21
-1.9725e-21
1.07991e-21
-9.78179e-22
6.21718e-22
-4.30697e-22
3.16033e-22
-1.6593e-22
1.42352e-22
-5.51833e-23
5.62541e-23
-1.55579e-23
1.92715e-23
-3.56965e-24
5.61234e-24
-6.49038e-25
1.32956e-24
-8.95453e-26
2.48586e-25
-9.36282e-27
3.50185e-26
-5.61541e-27
3.70448e-27
-3.74369e-26
2.2247e-27
-2.3239e-25
1.4691e-26
-1.2235e-24
8.93525e-26
-5.50417e-24
4.56023e-25
1.96808e-24
-2.136e-23
5.40003e-51
-2.55128e-48
4.39331e-45
-9.19602e-43
2.92163e-41
-3.13904e-39
2.0874e-38
-1.36655e-36
3.93915e-36
-1.73184e-34
2.9932e-34
-9.35846e-33
1.15986e-32
-2.66779e-31
2.64473e-31
-4.5536e-30
3.86926e-30
-4.99265e-29
3.82218e-29
-3.61662e-28
2.64796e-28
-1.7203e-27
1.345e-27
-5.01458e-27
5.52848e-27
-5.5984e-27
2.04921e-26
2.26386e-27
7.13331e-26
2.25079e-26
2.27879e-25
1.31654e-25
6.76765e-25
6.42893e-25
1.7353e-24
2.72169e-24
3.44635e-24
1.01146e-23
3.32088e-24
3.22152e-23
-2.24839e-23
8.84538e-23
-1.50642e-22
2.16919e-22
-5.39282e-22
4.88946e-22
-1.53455e-21
1.0249e-21
-3.7567e-21
2.00235e-21
-8.11884e-21
3.6325e-21
-1.5635e-20
6.10476e-21
-2.66853e-20
9.4903e-21
-4.03507e-20
1.34753e-20
-5.32135e-20
1.72543e-20
-5.98703e-20
1.94538e-20
-5.58994e-20
1.92824e-20
-4.30846e-20
1.73629e-20
-2.86298e-20
1.4307e-20
-1.69037e-20
1.00602e-20
-8.95973e-21
6.14186e-21
-4.23528e-21
3.32232e-21
-1.76283e-21
1.59944e-21
-6.38105e-22
6.81645e-22
-1.96215e-22
2.54494e-22
-4.9435e-23
8.11133e-23
-9.83625e-24
2.11911e-23
-1.49673e-24
4.35397e-24
-1.76769e-25
6.78827e-25
-1.2575e-25
8.1324e-26
-7.66163e-25
5.80312e-26
-4.30964e-24
3.50594e-25
-2.05724e-23
1.93327e-24
-8.40366e-23
8.94714e-24
3.50555e-23
-2.96831e-22
6.01152e-49
-2.63877e-46
2.84618e-43
-5.09563e-41
1.3167e-39
-1.22201e-37
7.39149e-37
-4.21092e-35
1.16966e-34
-4.49816e-33
7.7641e-33
-2.13126e-31
2.70633e-31
-5.47864e-30
5.68231e-30
-8.62315e-29
7.8071e-29
-8.88585e-28
7.36119e-28
-6.1488e-27
4.91893e-27
-2.82553e-26
2.40794e-26
-7.96734e-26
9.3689e-26
-8.29876e-26
3.23916e-25
4.20367e-26
1.03493e-24
3.81307e-25
3.01199e-24
2.04149e-24
8.09961e-24
9.12744e-24
1.85607e-23
3.53306e-23
3.21163e-23
1.21243e-22
1.94871e-23
3.53507e-22
-2.53333e-22
8.83785e-22
-1.27522e-21
1.97007e-21
-4.03102e-21
4.05797e-21
-1.04469e-20
7.83749e-21
-2.355e-20
1.41778e-20
-4.71843e-20
2.38719e-20
-8.52579e-20
3.74192e-20
-1.3946e-19
5.50856e-20
-2.08118e-19
7.60472e-20
-2.7876e-19
9.71297e-20
-3.23793e-19
1.10223e-19
-3.11419e-19
1.09401e-19
-2.44141e-19
1.01837e-19
-1.68226e-19
9.15217e-20
-1.04832e-19
6.8044e-20
-5.91399e-20
4.36341e-20
-2.99508e-20
2.48814e-20
-1.34437e-20
1.27362e-20
-5.27913e-21
5.8361e-21
-1.76823e-21
2.36691e-21
-4.90069e-22
8.24988e-22
-1.07998e-22
2.38232e-22
-1.82099e-23
5.44506e-23
-2.38291e-24
9.43957e-24
-1.56996e-24
1.25601e-24
-8.70574e-24
8.31319e-25
-4.54764e-23
4.57475e-24
-2.01505e-22
2.34341e-23
-7.64256e-22
1.00663e-22
3.6607e-22
-2.50959e-21
5.20829e-47
-2.04274e-44
1.33337e-41
-2.07839e-39
4.35637e-38
-3.55712e-36
1.94311e-35
-9.80806e-34
2.59911e-33
-8.89777e-32
1.51583e-31
-3.71614e-30
4.77183e-30
-8.64444e-29
9.24961e-29
-1.25719e-27
1.19558e-27
-1.21892e-26
1.07794e-26
-8.06627e-26
6.96815e-26
-3.59039e-25
3.3095e-25
-9.86752e-25
1.22588e-24
-9.86479e-25
3.96221e-24
5.88213e-25
1.16165e-23
4.9153e-24
3.06717e-23
2.40453e-23
7.42829e-23
9.80846e-23
1.51929e-22
3.48026e-22
2.26212e-22
1.10683e-21
4.81296e-23
2.96477e-21
-2.05461e-21
6.76027e-21
-8.29192e-21
1.36871e-20
-2.3347e-20
2.57563e-20
-5.52721e-20
4.58286e-20
-1.14779e-19
7.66822e-20
-2.12829e-19
1.19502e-19
-3.59226e-19
1.73995e-19
-5.59972e-19
2.41834e-19
-8.28342e-19
3.25846e-19
-1.1381e-18
4.22033e-19
-1.37795e-18
4.86775e-19
-1.3613e-18
4.72477e-19
-1.05613e-18
4.46203e-19
-7.46192e-19
4.52294e-19
-4.88586e-19
3.50148e-19
-2.9256e-19
2.32039e-19
-1.58624e-19
1.38311e-19
-7.68316e-20
7.50616e-20
-3.27778e-20
3.70183e-20
-1.20195e-20
1.63557e-20
-3.67531e-21
6.27503e-21
-9.05659e-22
2.01071e-21
-1.71355e-22
5.16322e-22
-2.45807e-23
1.00776e-22
-1.24709e-23
1.47297e-23
-6.17071e-23
7.51553e-24
-3.05544e-22
3.69191e-23
-1.28136e-21
1.79252e-22
-4.5942e-21
7.28486e-22
2.50288e-21
-1.42611e-20
3.42597e-45
-1.18338e-42
4.64612e-40
-6.40719e-38
1.08677e-36
-7.94064e-35
3.88849e-34
-1.76866e-32
4.42605e-32
-1.37156e-30
2.27894e-30
-5.07273e-29
6.50002e-29
-1.07099e-27
1.16537e-27
-1.44133e-26
1.41852e-26
-1.31542e-25
1.22401e-25
-8.32638e-25
7.66889e-25
-3.59542e-24
3.55148e-24
-9.68981e-24
1.2632e-23
-9.60892e-24
3.83381e-23
6.33418e-24
1.03497e-22
4.94851e-23
2.47554e-22
2.21332e-22
5.37923e-22
8.21456e-22
9.81134e-22
2.67686e-21
1.23809e-21
7.90803e-21
-5.69102e-22
1.9556e-20
-1.25721e-20
4.07491e-20
-4.24507e-20
7.49351e-20
-1.07281e-19
1.28895e-19
-2.32636e-19
2.11025e-19
-4.45773e-19
3.25821e-19
-7.65394e-19
4.68389e-19
-1.20617e-18
6.30162e-19
-1.79148e-18
8.24329e-19
-2.67617e-18
1.09908e-18
-3.84761e-18
1.50579e-18
-4.93515e-18
1.81501e-18
-5.05055e-18
1.65464e-18
-3.66981e-18
1.51057e-18
-2.62621e-18
1.85172e-18
-1.78922e-18
1.44196e-18
-1.12784e-18
9.61823e-19
-6.52139e-19
5.91657e-19
-3.40926e-19
3.39361e-19
-1.584e-19
1.80745e-19
-6.39148e-20
8.75184e-20
-2.17074e-20
3.72431e-20
-6.00377e-21
1.33484e-20
-1.28867e-21
3.86656e-21
-2.05575e-22
8.58715e-22
-7.19193e-23
1.3978e-22
-2.97361e-22
4.92003e-23
-1.41977e-21
2.01918e-22
-5.73061e-21
9.44795e-22
-1.97178e-20
3.69259e-21
1.21633e-20
-5.86491e-20
1.69959e-43
-5.1919e-41
1.22978e-38
-1.52651e-36
2.0862e-35
-1.38874e-33
6.03795e-33
-2.51962e-31
5.88183e-31
-1.67972e-29
2.68461e-29
-5.52337e-28
6.95563e-28
-1.06097e-26
1.15486e-26
-1.32249e-25
1.32405e-25
-1.13578e-24
1.09326e-24
-6.87124e-24
6.64337e-24
-2.87894e-23
3.00941e-23
-7.64349e-23
1.03794e-22
-7.76689e-23
2.97806e-22
5.31276e-23
7.45657e-22
3.96278e-22
1.61998e-21
1.62746e-21
3.15652e-21
5.49033e-21
5.13949e-21
1.64554e-20
5.41618e-21
4.52047e-20
-7.21082e-21
1.03731e-19
-5.99534e-20
1.98023e-19
-1.74612e-19
3.31152e-19
-3.98496e-19
5.21529e-19
-7.93304e-19
7.84018e-19
-1.40523e-18
1.1132e-18
-2.23587e-18
1.46941e-18
-3.28974e-18
1.81055e-18
-4.67014e-18
2.19847e-18
-7.22547e-18
2.92518e-18
-1.09862e-17
4.57964e-18
-1.54632e-17
6.05883e-18
-1.82699e-17
4.93654e-18
-1.05357e-17
4.06123e-18
-7.6548e-18
6.54011e-18
-5.40631e-18
4.91636e-18
-3.53836e-18
3.21057e-18
-2.15627e-18
2.01289e-18
-1.20769e-18
1.21681e-18
-6.10143e-19
7.00592e-19
-2.71951e-19
3.73446e-19
-1.03251e-19
1.77543e-19
-3.21977e-20
7.1721e-20
-7.86346e-21
2.35361e-20
-1.429e-21
5.96011e-21
-3.48947e-22
1.10566e-21
-1.04187e-21
2.71498e-22
-4.85608e-21
8.03814e-22
-1.9151e-20
3.66714e-21
-6.40679e-20
1.39849e-20
4.47244e-20
-1.84676e-19
6.39831e-42
-1.77556e-39
2.5153e-37
-2.87496e-35
3.13254e-34
-1.94274e-32
7.38676e-32
-2.89073e-30
6.18785e-30
-1.66431e-28
2.51187e-28
-4.88089e-27
5.9234e-27
-8.54473e-26
9.1127e-26
-9.86651e-25
9.83482e-25
-7.96406e-24
7.76136e-24
-4.59591e-23
4.57101e-23
-1.86577e-22
2.02855e-22
-4.89198e-22
6.84567e-22
-5.24167e-22
1.87369e-21
3.48092e-22
4.39966e-21
2.55335e-21
8.75277e-21
9.71564e-21
1.53632e-20
2.98441e-20
2.23708e-20
8.20968e-20
1.96939e-20
2.10738e-19
-4.09516e-20
4.50735e-19
-2.27689e-19
7.90614e-19
-5.85233e-19
1.20454e-18
-1.21351e-18
1.73978e-18
-2.21999e-18
2.39916e-18
-3.62135e-18
3.119e-18
-5.27978e-18
3.74271e-18
-7.04358e-18
4.12854e-18
-9.45338e-18
4.41422e-18
-1.68478e-17
5.57345e-18
-2.57229e-17
1.1594e-17
-4.95032e-17
1.87089e-17
-9.06199e-17
1.68701e-17
-2.70472e-17
7.5696e-18
-1.86268e-17
2.20044e-17
-1.39629e-17
1.30942e-17
-9.32867e-18
8.33021e-18
-5.89336e-18
5.51316e-18
-3.48342e-18
3.5556e-18
-1.89694e-18
2.21681e-18
-9.30721e-19
1.29904e-18
-3.96426e-19
6.89119e-19
-1.4062e-19
3.14777e-19
-3.92547e-20
1.1789e-19
-8.20212e-21
3.41337e-20
-1.62537e-21
7.27156e-21
-2.81856e-21
1.44633e-21
-1.28246e-20
2.48201e-21
-5.01191e-20
1.10318e-20
-1.6497e-19
4.16068e-20
1.30656e-19
-4.65393e-19
1.87117e-40
-4.86562e-38
4.04499e-36
-4.41674e-34
3.73682e-33
-2.2316e-31
7.21948e-31
-2.73338e-29
5.21906e-29
-1.36263e-27
1.88853e-27
-3.56934e-26
4.05754e-26
-5.69673e-25
5.78173e-25
-6.08622e-24
5.86428e-24
-4.60485e-23
4.41266e-23
-2.52543e-22
2.51307e-22
-9.89784e-22
1.09213e-21
-2.5621e-21
3.63595e-21
-2.94502e-21
9.58218e-21
1.76594e-21
2.13901e-20
1.32832e-20
3.95612e-20
4.75481e-20
6.33763e-20
1.33855e-19
8.33729e-20
3.37401e-19
6.33839e-20
8.16943e-19
-1.5685e-19
1.63498e-18
-6.95962e-19
2.63257e-18
-1.6137e-18
3.65325e-18
-3.05858e-18
4.86502e-18
-5.11757e-18
6.1547e-18
-7.64539e-18
7.26988e-18
-1.03264e-17
7.87589e-18
-1.31931e-17
7.80665e-18
-1.75087e-17
7.60396e-18
-2.76551e-17
8.40959e-18
-6.20747e-17
1.69996e-17
-1.9164e-16
5.74234e-17
-4.18506e-16
5.0528e-16
-1.64159e-16
2.3928e-16
-8.06614e-17
1.25158e-16
-4.08927e-17
4.6602e-17
-2.29561e-17
2.20663e-17
-1.38672e-17
1.40315e-17
-8.32662e-18
9.19072e-18
-4.79763e-18
6.01347e-18
-2.56361e-18
3.78856e-18
-1.22037e-18
2.20695e-18
-4.93193e-19
1.13029e-18
-1.59453e-19
4.81947e-19
-3.86306e-20
1.61144e-19
-7.42793e-21
3.96586e-20
-6.32487e-21
7.62672e-21
-2.71243e-20
6.40588e-21
-1.06489e-19
2.67568e-20
-3.48901e-19
1.01098e-19
3.15151e-19
-9.72182e-19
4.34659e-39
-1.1117e-36
5.24874e-35
-5.81525e-33
3.61455e-32
-2.19238e-30
5.73372e-30
-2.20635e-28
3.58128e-28
-9.51061e-27
1.15545e-26
-2.22103e-25
2.26018e-25
-3.22365e-24
2.97699e-24
-3.17484e-23
2.82832e-23
-2.23963e-22
2.02072e-22
-1.15957e-21
1.10809e-21
-4.35651e-21
4.70301e-21
-1.10832e-20
1.54891e-20
-1.37329e-20
3.99166e-20
6.76268e-21
8.57829e-20
5.55773e-20
1.50934e-19
1.91464e-19
2.25651e-19
5.00156e-19
2.74338e-19
1.15628e-18
1.98832e-19
2.68709e-18
-4.37902e-19
5.08617e-18
-1.72471e-18
7.40414e-18
-3.68662e-18
9.34367e-18
-6.38161e-18
1.15764e-17
-9.61684e-18
1.3377e-17
-1.29051e-17
1.41518e-17
-1.58209e-17
1.36702e-17
-1.90728e-17
1.22588e-17
-2.93573e-17
1.10041e-17
-7.47672e-17
1.26897e-17
-2.03459e-16
2.38112e-17
-3.32334e-16
4.11619e-16
-1.26376e-15
8.75776e-16
-1.68042e-15
4.64076e-16
-1.28707e-16
1.11115e-15
-5.92268e-17
6.00015e-17
-3.17003e-17
3.52947e-17
-2.07435e-17
2.32043e-17
-1.40242e-17
1.70379e-17
-9.08496e-18
1.2424e-17
-5.45733e-18
8.70687e-18
-2.94531e-18
5.66539e-18
-1.3668e-18
3.27127e-18
-5.1517e-19
1.59067e-18
-1.47591e-19
6.15524e-19
-3.10333e-20
1.77949e-19
-1.32129e-20
3.7215e-20
-4.72511e-20
1.55579e-20
-1.88704e-19
5.39738e-20
-6.23019e-19
2.06685e-19
6.46912e-19
-1.73081e-18
8.29928e-38
-2.15629e-35
5.7392e-34
-6.82409e-32
2.93333e-31
-1.9281e-29
3.80481e-29
-1.59205e-27
2.04608e-27
-5.90958e-26
5.86328e-26
-1.22401e-24
1.03976e-24
-1.60617e-23
1.25939e-23
-1.44842e-22
1.11356e-22
-9.44444e-22
7.49874e-22
-4.56768e-21
3.92934e-21
-1.62542e-20
1.61909e-20
-4.01995e-20
5.26434e-20
-5.32854e-20
1.34915e-19
1.80875e-20
2.83153e-19
1.8492e-19
4.86892e-19
6.29971e-19
7.03174e-19
1.56066e-18
8.05401e-19
3.34385e-18
6.33694e-19
7.68733e-18
-8.48141e-19
1.41254e-17
-3.52097e-18
1.77041e-17
-7.14458e-18
2.0592e-17
-1.09154e-17
2.36794e-17
-1.44626e-17
2.47148e-17
-1.72189e-17
2.29059e-17
-2.02021e-17
1.99684e-17
-2.71582e-17
1.75307e-17
-5.39438e-17
1.82381e-17
-1.06743e-16
3.06284e-17
-5.41277e-17
5.91322e-17
-1.73364e-15
2.54806e-16
-1.80429e-15
7.60435e-16
-2.53087e-15
1.0004e-15
-8.17234e-16
6.53982e-18
-4.29375e-17
1.26918e-16
-2.28377e-17
5.25157e-17
-1.89348e-17
2.72301e-17
-1.57723e-17
2.20336e-17
-1.22766e-17
1.84954e-17
-8.6861e-18
1.49932e-17
-5.47229e-18
1.12782e-17
-2.96444e-18
7.51372e-18
-1.31428e-18
4.21399e-18
-4.48387e-19
1.89597e-18
-1.10753e-19
6.46472e-19
-2.9898e-20
1.57631e-19
-6.94719e-20
4.15317e-20
-2.84079e-19
9.31332e-20
-9.58499e-19
3.63386e-19
1.15674e-18
-2.68294e-18
1.31877e-36
-3.36292e-34
5.46261e-33
-6.9299e-31
2.07397e-30
-1.50146e-28
2.18875e-28
-1.02971e-26
1.00556e-26
-3.31463e-25
2.53711e-25
-6.11156e-24
4.0416e-24
-7.25464e-23
4.45847e-23
-5.97307e-22
3.62884e-22
-3.57698e-21
2.27547e-21
-1.59767e-20
1.1251e-20
-5.30663e-20
4.45111e-20
-1.25493e-19
1.41985e-19
-1.74205e-19
3.65146e-19
2.42851e-20
7.64745e-19
4.77606e-19
1.32085e-18
1.66589e-18
1.93495e-18
3.99886e-18
2.20447e-18
8.11007e-18
1.09282e-18
1.06751e-17
-9.81543e-19
3.50559e-17
-5.34914e-18
3.54298e-17
-9.5613e-18
3.79302e-17
-1.57764e-17
3.39727e-17
-1.64297e-17
3.78185e-17
-1.53148e-17
2.92633e-17
-1.90872e-17
2.8845e-17
-2.10476e-17
2.04781e-17
-2.69309e-17
1.75567e-17
-5.44798e-17
2.05025e-17
-1.29156e-16
3.63119e-17
-2.27035e-16
7.6692e-17
-8.45565e-16
1.71353e-16
-1.34866e-15
5.95766e-16
-1.1457e-16
9.29395e-18
-5.94289e-17
4.18147e-17
-2.55214e-17
5.06513e-17
-1.79495e-17
3.07084e-17
-1.57428e-17
2.60646e-17
-1.38415e-17
2.39785e-17
-1.12561e-17
2.18696e-17
-8.20157e-18
1.87864e-17
-5.17985e-18
1.43876e-17
-2.69769e-18
9.27709e-18
-1.09406e-18
4.82778e-18
-3.23734e-19
1.93214e-18
-7.69545e-20
5.59038e-19
-8.94069e-20
1.28717e-19
-3.66956e-19
1.43335e-19
-1.28717e-18
5.57602e-19
1.83286e-18
-3.67715e-18
1.64279e-35
-3.95194e-33
4.36185e-32
-5.70237e-30
1.25148e-29
-9.79538e-28
1.08097e-27
-5.68373e-26
4.24431e-26
-1.60613e-24
9.39889e-25
-2.65856e-23
1.33653e-23
-2.87293e-22
1.33031e-22
-2.17155e-21
9.84751e-22
-1.19957e-20
5.6613e-21
-4.95631e-20
2.59806e-20
-1.5324e-19
9.71674e-20
-3.43276e-19
3.00622e-19
-4.86677e-19
7.73108e-19
-8.67955e-20
1.65981e-18
9.1214e-19
2.97334e-18
3.44256e-18
4.56361e-18
8.25073e-18
3.48979e-18
1.05596e-17
7.46762e-18
5.0029e-17
6.21076e-19
6.75057e-17
-6.05867e-18
5.32587e-17
-9.27365e-18
6.18539e-17
-1.97446e-17
4.87682e-17
-1.96454e-17
4.84207e-17
-1.94273e-17
3.78341e-17
-1.29452e-17
4.94781e-17
-1.41698e-17
2.33692e-17
-1.30018e-17
1.73474e-17
-1.19487e-17
1.50393e-17
-1.87285e-17
1.57023e-17
-6.78193e-17
2.79666e-17
-1.53747e-16
1.29948e-16
-5.68398e-17
2.58479e-16
-3.3518e-17
3.18317e-17
-2.03538e-17
1.69502e-17
-1.4635e-17
2.94365e-17
-1.281e-17
2.69457e-17
-1.31774e-17
2.89877e-17
-1.34769e-17
2.98342e-17
-1.2348e-17
2.93462e-17
-1.01665e-17
2.79041e-17
-7.43367e-18
2.41285e-17
-4.53091e-18
1.76259e-17
-2.17242e-18
1.04783e-17
-7.71425e-19
4.86985e-18
-1.98243e-19
1.67011e-18
-1.0996e-19
4.11593e-19
-4.07191e-19
2.16715e-19
-1.51653e-18
7.53157e-19
2.60235e-18
-4.49717e-18
1.49747e-34
-3.36551e-32
2.71567e-31
-3.66738e-29
6.0266e-29
-5.18512e-27
4.28927e-27
-2.59522e-25
1.43747e-25
-6.5077e-24
2.77539e-24
-9.72926e-23
3.48827e-23
-9.60356e-22
3.0974e-22
-6.67656e-21
2.0607e-21
-3.40557e-20
1.07324e-20
-1.30345e-19
4.52278e-20
-3.7569e-19
1.58667e-19
-7.97792e-19
4.74836e-19
-1.1417e-18
1.23355e-18
-6.22781e-19
2.79594e-18
1.20335e-18
5.46692e-18
5.26513e-18
9.16544e-18
1.32461e-17
9.4941e-18
2.21348e-17
1.50425e-17
6.63664e-17
6.54352e-18
8.83935e-17
-4.13321e-18
6.49659e-17
-2.05474e-17
9.09928e-17
-2.31219e-17
1.64977e-16
-1.40556e-17
4.54201e-17
-8.99795e-18
3.77034e-17
-3.14788e-18
3.2131e-17
-1.86311e-18
2.80191e-17
-7.36179e-19
1.6388e-17
-3.20128e-19
1.54461e-17
-6.10524e-19
1.48487e-17
-3.69468e-18
1.68261e-17
6.24622e-21
3.85196e-17
1.63818e-17
6.44999e-17
-1.22383e-18
2.36015e-17
-2.96867e-18
1.22568e-17
-9.3936e-19
3.27802e-17
-4.35037e-18
2.82156e-17
-8.34524e-18
3.42139e-17
-1.10824e-17
3.70991e-17
-1.09868e-17
3.69049e-17
-9.94918e-18
3.74085e-17
-8.54239e-18
3.61238e-17
-6.15842e-18
2.94458e-17
-3.50118e-18
1.97405e-17
-1.49796e-18
1.05681e-17
-4.56969e-19
4.2908e-18
-1.51719e-19
1.23715e-18
-3.86442e-19
3.83954e-19
-1.55962e-18
9.0286e-19
3.32576e-18
-4.91808e-18
9.61968e-34
-2.0813e-31
1.26617e-30
-1.80697e-28
2.2154e-28
-2.16477e-26
1.29329e-26
-9.51416e-25
3.62555e-25
-2.13903e-23
5.90289e-24
-2.90486e-22
6.26225e-23
-2.62668e-21
4.67913e-22
-1.68118e-20
2.61197e-21
-7.9169e-20
1.14806e-20
-2.80305e-19
4.20421e-20
-7.50598e-19
1.3689e-19
-1.49976e-18
4.17536e-19
-2.11557e-18
1.20214e-18
-1.62362e-18
3.15714e-18
8.67543e-19
7.29317e-18
5.73539e-18
1.44621e-17
1.5286e-17
2.27258e-17
3.17419e-17
4.75604e-17
1.23318e-16
1.75747e-17
1.06815e-16
1.10805e-17
1.4634e-15
-5.22684e-18
1.08533e-16
-3.76511e-18
1.42593e-16
7.81547e-18
5.97784e-17
1.26985e-17
3.37528e-17
1.57836e-17
2.63545e-17
1.73734e-17
2.23209e-17
1.64558e-17
1.88435e-17
1.51162e-17
1.88828e-17
1.32341e-17
2.79559e-17
1.12084e-17
1.85156e-17
1.58987e-17
1.92647e-17
2.30378e-17
2.18025e-17
2.03797e-17
1.54243e-17
1.37462e-17
1.70326e-17
1.16136e-17
4.18673e-17
4.83862e-18
3.2874e-17
-2.27683e-18
4.64209e-17
-7.57388e-18
5.32719e-17
-6.76056e-18
5.05842e-17
-6.29744e-18
4.92954e-17
-7.07353e-18
4.98517e-17
-6.41189e-18
4.40154e-17
-4.38473e-18
3.26808e-17
-2.2686e-18
1.99532e-17
-8.60052e-19
9.5275e-18
-2.58037e-19
3.3243e-18
-3.18119e-19
9.04839e-19
-1.37249e-18
9.97671e-19
3.81337e-18
-4.77215e-18
4.43586e-33
-9.18703e-31
4.37507e-30
-6.6826e-28
6.01721e-28
-6.97686e-26
2.78593e-26
-2.73854e-24
6.0637e-25
-5.5846e-23
7.22633e-24
-6.94813e-22
4.89319e-23
-5.79072e-21
1.52707e-22
-3.42638e-20
-1.47387e-21
-1.49306e-19
-2.16834e-20
-4.89098e-19
-1.02339e-19
-1.21201e-18
-3.0173e-19
-2.24874e-18
-5.91273e-19
-3.00148e-18
-6.25512e-19
-2.46418e-18
4.1594e-19
2.56098e-19
4.10656e-18
4.97325e-18
1.46863e-17
1.58888e-17
4.62893e-17
4.90611e-17
1.44435e-16
1.89912e-16
8.52953e-16
2.22308e-15
1.01458e-16
3.88944e-15
1.29257e-17
2.07073e-15
3.11959e-17
8.91202e-17
4.88415e-17
4.62853e-17
4.51185e-17
2.98335e-17
4.15138e-17
2.54312e-17
3.85937e-17
2.35595e-17
3.52471e-17
2.16346e-17
4.4191e-17
2.34144e-17
3.49304e-17
2.67193e-17
2.79237e-17
3.96151e-17
3.47819e-17
1.94338e-17
3.8808e-17
1.69302e-17
3.82223e-17
1.68723e-17
3.53198e-17
2.14312e-17
3.35533e-17
3.56966e-17
2.28983e-17
5.00115e-17
1.3484e-17
8.66603e-17
6.32054e-18
1.25926e-16
7.68961e-18
1.131e-16
4.40977e-18
9.33519e-17
-2.40718e-18
7.76479e-17
-4.20069e-18
6.2452e-17
-3.57042e-18
4.81795e-17
-2.31604e-18
3.31278e-17
-1.15014e-18
1.85678e-17
-4.20216e-19
7.84165e-18
-2.58319e-19
2.39323e-18
-1.002e-18
1.21913e-18
3.93203e-18
-4.0005e-18
1.51552e-32
-2.91357e-30
1.15581e-29
-1.85269e-27
1.23293e-27
-1.73538e-25
4.15971e-26
-6.20907e-24
5.23956e-25
-1.16639e-22
-1.07982e-24
-1.34522e-21
-5.04005e-22
-1.04262e-20
-5.51499e-21
-5.74388e-20
-3.50436e-20
-2.32782e-19
-1.56792e-19
-7.06688e-19
-5.30892e-19
-1.61183e-18
-1.42022e-18
-2.71414e-18
-3.12772e-18
-3.16892e-18
-5.96896e-18
-1.89197e-18
-1.06423e-17
1.64304e-18
-1.96968e-17
8.38123e-18
-3.84744e-17
2.4022e-17
-5.30875e-17
7.99193e-17
3.66413e-17
3.29503e-16
-4.47025e-17
4.12787e-15
1.616e-15
3.4067e-15
6.74119e-16
4.18677e-15
2.50812e-16
1.30707e-16
1.41273e-16
5.97631e-17
9.92971e-17
4.16606e-17
7.5242e-17
3.35527e-17
6.14258e-17
2.89499e-17
5.37821e-17
2.60212e-17
5.61906e-17
2.75881e-17
1.24854e-16
2.92063e-17
8.28924e-17
4.67592e-17
6.82511e-17
2.72871e-17
6.48742e-17
2.13867e-17
6.08263e-17
2.44687e-17
5.89156e-17
3.11214e-17
6.15638e-17
4.57869e-17
7.74057e-17
7.70907e-17
6.69e-17
1.55825e-16
1.5453e-16
1.7351e-15
1.66032e-16
1.85545e-15
5.29793e-17
1.23602e-15
1.05937e-17
2.07321e-16
3.02741e-18
1.06562e-16
1.35206e-18
6.92781e-17
-5.81716e-20
4.99069e-17
-4.82355e-19
3.20958e-17
-3.94442e-19
1.63414e-17
-2.22488e-19
6.10296e-18
-5.82667e-19
2.09453e-18
3.79981e-18
-2.79587e-18
4.21791e-32
-6.82196e-30
2.65217e-29
-3.94054e-27
2.2925e-27
-3.40458e-25
5.50885e-26
-1.13363e-23
9.16218e-26
-1.99274e-22
-1.20151e-22
-2.15858e-21
-1.7354e-21
-1.5743e-20
-1.35794e-20
-8.16162e-20
-7.23936e-20
-3.10618e-19
-2.86529e-19
-8.80903e-19
-8.83854e-19
-1.85647e-18
-2.2084e-18
-2.81596e-18
-4.67776e-18
-2.71e-18
-8.99095e-18
-3.7275e-19
-1.75205e-17
4.87754e-18
-3.81919e-17
1.52307e-17
-9.17296e-17
3.99908e-17
-1.72953e-16
9.11712e-17
-3.07287e-17
1.3257e-16
1.67383e-15
1.83233e-15
7.11141e-17
1.74887e-15
1.17742e-15
8.64375e-16
4.3294e-16
2.04756e-16
1.78154e-16
1.24021e-16
1.33798e-16
5.844e-17
1.02086e-16
4.59498e-17
8.03408e-17
3.64702e-17
6.98315e-17
3.12782e-17
6.80915e-17
2.88081e-17
8.50483e-17
3.71894e-17
8.14331e-17
1.23555e-16
1.01212e-16
3.33399e-17
9.59287e-17
3.2527e-17
8.00078e-17
3.52652e-17
6.81002e-17
3.8159e-17
6.57885e-17
4.55146e-17
7.40406e-17
5.95594e-17
1.51996e-15
5.58192e-16
2.06433e-15
2.87531e-15
9.00938e-16
2.61343e-15
2.83152e-16
2.60693e-15
1.0912e-16
1.00373e-15
5.44598e-17
2.18896e-16
2.52287e-17
1.18954e-16
1.26251e-17
7.64087e-17
5.78461e-18
5.14261e-17
1.70581e-18
3.03647e-17
-1.14736e-20
1.39276e-17
-2.15533e-19
4.88311e-18
3.86051e-18
-1.45921e-18
1.05162e-31
-1.21844e-29
6.13194e-29
-6.60305e-27
5.09113e-27
-5.39195e-25
1.27413e-25
-1.70457e-23
7.9857e-25
-2.85196e-22
-1.11204e-22
-2.9442e-21
-1.91961e-21
-2.04813e-20
-1.48733e-20
-1.01267e-19
-7.54072e-20
-3.66996e-19
-2.78895e-19
-9.87553e-19
-7.95968e-19
-1.96094e-18
-1.8287e-18
-2.75853e-18
-3.55677e-18
-2.31901e-18
-6.3509e-18
3.49187e-19
-1.09634e-17
6.10532e-18
-1.68466e-17
1.72456e-17
-1.12102e-17
3.99572e-17
-8.54206e-18
1.11952e-16
5.01342e-16
-2.14606e-17
1.78441e-15
2.34002e-15
1.06511e-15
5.11089e-15
1.27064e-15
-1.53466e-16
3.64524e-16
4.11902e-16
1.4507e-16
1.52819e-16
1.23935e-16
5.43309e-17
1.02417e-16
4.81088e-17
8.57872e-17
4.07635e-17
7.77647e-17
3.55687e-17
7.87207e-17
3.04275e-17
9.04105e-17
2.74464e-17
1.55997e-16
7.78466e-17
1.46209e-16
5.92602e-17
1.33411e-16
5.30048e-17
1.01392e-16
5.24441e-17