/*--------------------------------*- C++ -*----------------------------------*\
| =========                 |                                                 |
| \\      /  F ield         | OpenFOAM: The Open Source CFD Toolbox           |
|  \\    /   O peration     | Version:  2.4.0                                 |
|   \\  /    A nd           | Web:      www.OpenFOAM.org                      |
|    \\/     M anipulation  |                                                 |
\*---------------------------------------------------------------------------*/
FoamFile
{
    version     2.0;
    format      ascii;
    class       surfaceScalarField;
    location    "0.139";
    object      phiAlpha;
}
// * * * * * * * * * * * * * * * * * * * * * * * * * * * * * * * * * * * * * //

dimensions      [0 3 -1 0 0 0 0];

internalField   nonuniform List<scalar> 
28560
(
1.14618e-10
4.34795e-09
-4.46256e-09
-2.73791e-09
7.72455e-09
-4.98664e-09
-1.37459e-08
1.66181e-08
-2.87218e-09
-2.20345e-08
2.38442e-08
-1.80966e-09
-2.73133e-08
2.93634e-08
-2.05005e-09
-3.40212e-08
3.6815e-08
-2.79386e-09
-4.08422e-08
4.31587e-08
-2.31647e-09
-4.40942e-08
4.3661e-08
4.33216e-10
-4.02771e-08
3.53361e-08
4.94107e-09
-2.72331e-08
1.77386e-08
9.49454e-09
-6.62987e-09
-3.31501e-09
9.94488e-09
1.29495e-08
-2.05272e-08
7.57775e-09
2.67495e-08
-3.10489e-08
4.29939e-09
3.40611e-08
-3.58706e-08
1.80946e-09
3.69045e-08
-3.72971e-08
3.92534e-10
3.7249e-08
-3.68573e-08
-3.91708e-10
3.61776e-08
-3.53267e-08
-8.50867e-10
3.42574e-08
-3.3104e-08
-1.15342e-09
3.17699e-08
-3.04087e-08
-1.36114e-09
2.88969e-08
-2.74039e-08
-1.49306e-09
2.57915e-08
-2.4235e-08
-1.5565e-09
2.25854e-08
-2.10212e-08
-1.56412e-09
1.93905e-08
-1.78661e-08
-1.52443e-09
1.62962e-08
-1.48467e-08
-1.44952e-09
1.33679e-08
-1.20125e-08
-1.35535e-09
1.06407e-08
-9.39049e-09
-1.25026e-09
8.1295e-09
-6.98381e-09
-1.14569e-09
5.83195e-09
-4.78711e-09
-1.04485e-09
3.73857e-09
-2.7889e-09
-9.49671e-10
1.83701e-09
-9.77699e-10
-8.59308e-10
-1.25793e-08
2.30704e-08
-1.04911e-08
1.01261e-08
-4.2083e-09
1.16594e-08
-1.75773e-08
-4.7722e-09
1.1349e-08
8.52768e-09
-1.51045e-08
-2.30879e-08
2.86369e-08
6.20042e-09
-1.17495e-08
-3.92347e-08
4.80596e-08
8.57039e-09
-1.73952e-08
-6.11343e-08
7.2782e-08
1.15158e-08
-2.31634e-08
-8.55521e-08
9.62715e-08
1.01316e-08
-2.0851e-08
-1.05299e-07
1.1188e-07
3.20141e-09
-9.78256e-09
-1.14292e-07
1.13522e-07
-8.54418e-09
9.31465e-09
-1.07266e-07
9.65364e-08
-2.21112e-08
3.28406e-08
-8.06557e-08
6.37211e-08
-2.67643e-08
4.36988e-08
-4.47783e-08
2.74952e-08
-2.30338e-08
4.03169e-08
-1.05611e-08
-3.61014e-09
-1.6112e-08
3.02832e-08
1.65214e-08
-2.67587e-08
-9.40816e-09
1.96454e-08
3.54864e-08
-4.20162e-08
-4.69175e-09
1.12215e-08
4.72205e-08
-5.07218e-08
-1.45275e-09
4.95407e-09
5.30998e-08
-5.42752e-08
7.73581e-10
4.0187e-10
5.45506e-08
-5.40563e-08
2.30417e-09
-2.79854e-09
5.28868e-08
-5.12873e-08
3.33111e-09
-4.9306e-09
4.92035e-08
-4.69388e-08
3.96232e-09
-6.22696e-09
4.43413e-08
-4.17379e-08
4.28363e-09
-6.88698e-09
3.89107e-08
-3.61911e-08
4.37347e-09
-7.0931e-09
3.33315e-08
-3.06489e-08
4.29039e-09
-6.97306e-09
2.78847e-08
-2.53372e-08
4.08884e-09
-6.63632e-09
2.27473e-08
-2.03857e-08
3.82384e-09
-6.18543e-09
1.8008e-08
-1.58542e-08
3.52584e-09
-5.67965e-09
1.36955e-08
-1.17457e-08
3.2284e-09
-5.17816e-09
9.79635e-09
-8.03768e-09
2.94112e-09
-4.69979e-09
6.28085e-09
-4.69579e-09
2.67053e-09
-4.25559e-09
3.11077e-09
-1.68285e-09
2.41478e-09
-3.8427e-09
-3.47586e-08
4.70687e-08
-1.23101e-08
1.60573e-08
-1.11581e-08
2.27926e-08
-2.76918e-08
2.65742e-09
4.13935e-09
2.19533e-08
-2.87501e-08
-1.64155e-08
2.24003e-08
1.76613e-08
-2.36461e-08
-3.39697e-08
4.39249e-08
2.70748e-08
-3.703e-08
-5.81078e-08
7.11178e-08
3.58532e-08
-4.88632e-08
-8.51902e-08
9.73991e-08
3.26953e-08
-4.49042e-08
-1.08107e-07
1.16572e-07
1.77386e-08
-2.62034e-08
-1.21155e-07
1.22971e-07
-8.29653e-09
6.48017e-09
-1.19892e-07
1.12415e-07
-4.14738e-08
4.89511e-08
-9.97033e-08
8.54947e-08
-5.91202e-08
7.33288e-08
-6.87938e-08
5.31241e-08
-5.69519e-08
7.26216e-08
-3.73673e-08
2.37334e-08
-4.45765e-08
5.82103e-08
-1.12017e-08
1.01307e-09
-3.02087e-08
4.03972e-08
7.89024e-09
-1.47771e-08
-1.82776e-08
2.51644e-08
2.05019e-08
-2.46286e-08
-9.03694e-09
1.31637e-08
2.77535e-08
-2.97342e-08
-2.14419e-09
4.12489e-09
3.09215e-08
-3.13516e-08
2.74051e-09
-2.3105e-09
3.11953e-08
-3.05856e-08
5.9939e-09
-6.60363e-09
2.95631e-08
-2.83204e-08
7.96103e-09
-9.20381e-09
2.67936e-08
-2.51991e-08
8.96974e-09
-1.05642e-08
2.34224e-08
-2.16833e-08
9.30029e-09
-1.10394e-08
1.98351e-08
-1.80914e-08
9.15511e-09
-1.08988e-08
1.62941e-08
-1.46455e-08
8.69419e-09
-1.03428e-08
1.29853e-08
-1.14934e-08
8.06481e-09
-9.55671e-09
1.00198e-08
-8.71551e-09
7.35777e-09
-8.66204e-09
7.44146e-09
-6.32241e-09
6.66137e-09
-7.78042e-09
5.23436e-09
-4.27798e-09
6.00879e-09
-6.96517e-09
3.34431e-09
-2.51781e-09
5.41639e-09
-6.24289e-09
1.70393e-09
-9.76801e-10
4.87888e-09
-5.606e-09
-5.97353e-08
7.26544e-08
-1.29191e-08
1.75876e-08
-1.26921e-08
3.25282e-08
-3.74237e-08
4.22884e-09
2.64114e-09
3.55837e-08
-4.24537e-08
-1.48707e-08
2.08212e-08
2.96238e-08
-3.55743e-08
-3.24128e-08
4.25269e-08
4.70869e-08
-5.7201e-08
-5.68642e-08
7.00719e-08
6.19926e-08
-7.52004e-08
-8.43859e-08
9.67969e-08
5.72406e-08
-6.96517e-08
-1.07797e-07
1.16588e-07
3.48652e-08
-4.36563e-08
-1.21437e-07
1.23797e-07
-4.33087e-09
1.97067e-09
-1.21225e-07
1.14224e-07
-5.60157e-08
6.30162e-08
-1.01961e-07
8.84437e-08
-8.69639e-08
1.00481e-07
-7.25056e-08
5.76939e-08
-8.76696e-08
1.02481e-07
-4.29119e-08
3.01696e-08
-7.12679e-08
8.40102e-08
-1.85282e-08
9.0676e-09
-5.01498e-08
5.96105e-08
-7.98077e-10
-5.58499e-09
-3.17478e-08
3.81309e-08
1.09675e-08
-1.49474e-08
-1.72044e-08
2.11843e-08
1.81056e-08
-2.02764e-08
-6.21716e-09
8.38795e-09
2.18076e-08
-2.26618e-08
1.62702e-09
-7.72808e-10
2.30405e-08
-2.29871e-08
6.87553e-09
-6.9289e-09
2.25829e-08
-2.19269e-08
1.00898e-08
-1.07458e-08
2.10135e-08
-1.99808e-08
1.18116e-08
-1.28443e-08
1.87656e-08
-1.75234e-08
1.24654e-08
-1.37076e-08
1.6157e-08
-1.48321e-08
1.23707e-08
-1.36955e-08
1.34332e-08
-1.21233e-08
1.17593e-08
-1.30691e-08
1.07823e-08
-9.56061e-09
1.08493e-08
-1.2071e-08
8.34132e-09
-7.25468e-09
9.78943e-09
-1.08761e-08
6.18966e-09
-5.25422e-09
8.73624e-09
-9.67169e-09
4.34609e-09
-3.55116e-09
7.76638e-09
-8.56132e-09
2.77943e-09
-2.10016e-09
6.92304e-09
-7.60231e-09
1.4334e-09
-8.40745e-10
6.1981e-09
-6.79076e-09
-8.58009e-08
9.91812e-08
-1.33803e-08
1.82402e-08
-1.30849e-08
4.24336e-08
-4.7589e-08
4.51411e-09
2.39614e-09
4.93439e-08
-5.62541e-08
-1.46379e-08
2.05121e-08
4.14889e-08
-4.73631e-08
-3.1945e-08
4.21536e-08
6.73616e-08
-7.75702e-08
-5.65444e-08
6.9908e-08
8.84822e-08
-1.01846e-07
-8.44231e-08
9.69788e-08
8.21317e-08
-9.46873e-08
-1.08248e-07
1.17324e-07
5.25807e-08
-6.16571e-08
-1.22331e-07
1.25177e-07
6.10746e-10
-3.45691e-09
-1.22842e-07
1.15731e-07
-7.00617e-08
7.71729e-08
-1.02997e-07
8.91509e-08
-1.14111e-07
1.27957e-07
-7.28058e-08
5.78056e-08
-1.17315e-07
1.32315e-07
-4.29574e-08
3.02637e-08
-9.66573e-08
1.09351e-07
-1.8797e-08
9.51255e-09
-6.89309e-08
7.82154e-08
-1.43488e-09
-4.80028e-09
-4.44079e-08
5.0643e-08
1.00852e-08
-1.40317e-08
-2.51447e-08
2.90912e-08
1.72232e-08
-1.94712e-08
-1.06024e-08
1.28504e-08
2.11388e-08
-2.2154e-08
-1.85971e-10
1.20122e-09
2.27199e-08
-2.28639e-08
6.84828e-09
-6.70435e-09
2.26664e-08
-2.22096e-08
1.12685e-08
-1.17253e-08
2.1498e-08
-2.06484e-08
1.37551e-08
-1.46046e-08
1.9611e-08
-1.85238e-08
1.48471e-08
-1.59343e-08
1.7303e-08
-1.60947e-08
1.49442e-08
-1.61525e-08
1.47932e-08
-1.3549e-08
1.43327e-08
-1.55769e-08
1.22458e-08
-1.10281e-08
1.32809e-08
-1.44987e-08
9.77888e-09
-8.63207e-09
1.19838e-08
-1.31306e-08
7.47273e-09
-6.42123e-09
1.06557e-08
-1.17072e-08
5.36901e-09
-4.42081e-09
9.42225e-09
-1.03704e-08
3.47585e-09
-2.6258e-09
8.35542e-09
-9.20547e-09
1.77815e-09
-1.01593e-09
7.45707e-09
-8.21929e-09
-1.12816e-07
1.26736e-07
-1.39192e-08
1.88828e-08
-1.33633e-08
5.29139e-08
-5.84334e-08
4.63608e-09
2.28086e-09
6.31691e-08
-7.0086e-08
-1.45716e-08
2.03556e-08
5.31954e-08
-5.89794e-08
-3.15158e-08
4.18368e-08
8.78314e-08
-9.81524e-08
-5.62641e-08
6.98177e-08
1.15299e-07
-1.28853e-07
-8.45694e-08
9.72954e-08
1.07325e-07
-1.20051e-07
-1.08913e-07
1.18341e-07
7.09023e-08
-8.03308e-08
-1.23542e-07
1.27066e-07
6.61667e-09
-1.01408e-08
-1.25105e-07
1.1786e-07
-8.435e-08
9.1595e-08
-1.04481e-07
9.00802e-08
-1.42064e-07
1.56464e-07
-7.29934e-08
5.74595e-08
-1.47558e-07
1.63092e-07
-4.21747e-08
2.91888e-08
-1.22169e-07
1.35155e-07
-1.76008e-08
8.24224e-09
-8.75217e-08
9.68802e-08
-1.6155e-10
-6.07238e-09
-5.68712e-08
6.31051e-08
1.13538e-08
-1.52968e-08
-3.30414e-08
3.69844e-08
1.84957e-08
-2.07523e-08
-1.51143e-08
1.73708e-08
2.24332e-08
-2.34668e-08
-2.236e-09
3.26952e-09
2.40498e-08
-2.42055e-08
6.54147e-09
-6.38576e-09
2.40241e-08
-2.35846e-08
1.21598e-08
-1.25993e-08
2.2893e-08
-2.20656e-08
1.54313e-08
-1.62587e-08
2.10551e-08
-1.99942e-08
1.69975e-08
-1.80584e-08
1.87992e-08
-1.76113e-08
1.73426e-08
-1.85306e-08
1.63242e-08
-1.50825e-08
1.68146e-08
-1.80562e-08
1.37661e-08
-1.25176e-08
1.57301e-08
-1.69787e-08
1.12142e-08
-9.99336e-09
1.43163e-08
-1.55371e-08
8.7326e-09
-7.56372e-09
1.28225e-08
-1.39914e-08
6.3688e-09
-5.27064e-09
1.14008e-08
-1.2499e-08
4.1571e-09
-3.1412e-09
1.01466e-08
-1.11625e-08
2.11733e-09
-1.19031e-09
9.07219e-09
-9.99921e-09
-1.40969e-07
1.55547e-07
-1.45785e-08
1.96749e-08
-1.36814e-08
6.41749e-08
-7.01684e-08
4.76241e-09
2.16836e-09
7.70002e-08
-8.3931e-08
-1.45102e-08
2.01426e-08
6.46992e-08
-7.03317e-08
-3.09786e-08
4.1457e-08
1.08545e-07
-1.19024e-07
-5.59248e-08
6.97156e-08
1.4252e-07
-1.5631e-07
-8.47514e-08
9.76749e-08
1.32873e-07
-1.45796e-07
-1.09737e-07
1.19572e-07
8.9957e-08
-9.97915e-08
-1.25e-07
1.29417e-07
1.40828e-08
-1.84998e-08
-1.27982e-07
1.20575e-07
-9.89157e-08
1.06322e-07
-1.06413e-07
9.13213e-08
-1.71193e-07
1.86284e-07
-7.33171e-08
5.70821e-08
-1.78957e-07
1.95192e-07
-4.12296e-08
2.78227e-08
-1.4834e-07
1.61747e-07
-1.60351e-08
6.52816e-09
-1.06308e-07
1.15815e-07
1.61087e-09
-7.84916e-09
-6.93395e-08
7.55778e-08
1.31349e-08
-1.70742e-08
-4.09336e-08
4.48729e-08
2.02494e-08
-2.2483e-08
-1.96224e-08
2.18559e-08
2.41228e-08
-2.51105e-08
-4.28016e-09
5.26793e-09
2.56425e-08
-2.57442e-08
6.24985e-09
-6.14818e-09
2.55053e-08
-2.50105e-08
1.30604e-08
-1.35552e-08
2.42643e-08
-2.33882e-08
1.71046e-08
-1.79808e-08
2.23292e-08
-2.1226e-08
1.91341e-08
-2.02373e-08
1.99894e-08
-1.87639e-08
1.97309e-08
-2.09565e-08
1.74369e-08
-1.61555e-08
1.93127e-08
-2.05941e-08
1.47932e-08
-1.34955e-08
1.8249e-08
-1.95467e-08
1.21328e-08
-1.08475e-08
1.67904e-08
-1.80757e-08
9.50986e-09
-8.26001e-09
1.52042e-08
-1.64541e-08
6.97234e-09
-5.78044e-09
1.365e-08
-1.48419e-08
4.56437e-09
-3.44918e-09
1.22357e-08
-1.33509e-08
2.32111e-09
-1.2974e-09
1.09824e-08
-1.20061e-08
-1.70507e-07
1.85881e-07
-1.5374e-08
2.06566e-08
-1.40491e-08
7.64481e-08
-8.30557e-08
4.90896e-09
2.01711e-09
9.08607e-08
-9.77868e-08
-1.44368e-08
1.98363e-08
7.58558e-08
-8.12553e-08
-3.02817e-08
4.09956e-08
1.29609e-07
-1.40323e-07
-5.55057e-08
6.95824e-08
1.70237e-07
-1.84314e-07
-8.49462e-08
9.80861e-08
1.58825e-07
-1.71965e-07
-1.10705e-07
1.20978e-07
1.09842e-07
-1.20114e-07
-1.2667e-07
1.32229e-07
2.34532e-08
-2.90115e-08
-1.31503e-07
1.23878e-07
-1.13829e-07
1.21454e-07
-1.08771e-07
9.28293e-08
-2.01778e-07
2.1772e-07
-7.37321e-08
5.6629e-08
-2.11838e-07
2.28941e-07
-4.0117e-08
2.61997e-08
-1.75397e-07
1.89314e-07
-1.41912e-08
4.5068e-09
-1.25407e-07
1.35092e-07
3.67801e-09
-9.9209e-09
-8.18203e-08
8.80632e-08
1.521e-08
-1.91258e-08
-4.88017e-08
5.27175e-08
2.2264e-08
-2.44547e-08
-2.40674e-08
2.62581e-08
2.60422e-08
-2.69651e-08
-6.22313e-09
7.14602e-09
2.74162e-08
-2.74369e-08
6.08286e-09
-6.06223e-09
2.71087e-08
-2.6529e-08
1.40904e-08
-1.46701e-08
2.5691e-08
-2.47293e-08
1.88967e-08
-1.98583e-08
2.35817e-08
-2.23972e-08
2.13777e-08
-2.25623e-08
2.10755e-08
-1.9771e-08
2.22175e-08
-2.3522e-08
1.83631e-08
-1.70065e-08
2.19095e-08
-2.32662e-08
1.55669e-08
-1.41972e-08
2.08776e-08
-2.22473e-08
1.27606e-08
-1.14068e-08
1.93941e-08
-2.07478e-08
9.99875e-09
-8.68344e-09
1.77373e-08
-1.90526e-08
7.32864e-09
-6.07455e-09
1.6067e-08
-1.73211e-08
4.79514e-09
-3.62222e-09
1.44979e-08
-1.56708e-08
2.43592e-09
-1.3594e-09
1.30595e-08
-1.4136e-08
-2.01705e-07
2.18017e-07
-1.63124e-08
2.18504e-08
-1.4457e-08
9.00385e-08
-9.74319e-08
5.07361e-09
1.85634e-09
1.04714e-07
-1.11644e-07
-1.43502e-08
1.9444e-08
8.65108e-08
-9.16046e-08
-2.94953e-08
4.04501e-08
1.51162e-07
-1.62116e-07
-5.50016e-08
6.94164e-08
1.98553e-07
-2.12968e-07
-8.51481e-08
9.85189e-08
1.85218e-07
-1.98589e-07
-1.11824e-07
1.22539e-07
1.3061e-07
-1.41325e-07
-1.28541e-07
1.35539e-07
3.52488e-08
-4.22472e-08
-1.35747e-07
1.27819e-07
-1.29218e-07
1.37145e-07
-1.11581e-07
9.46045e-08
-2.34155e-07
2.51131e-07
-7.42282e-08
5.60583e-08
-2.4655e-07
2.6472e-07
-3.87974e-08
2.42811e-08
-2.0352e-07
2.18036e-07
-1.20455e-08
2.16205e-09
-1.44873e-07
1.54757e-07
6.0523e-09
-1.22902e-08
-9.43039e-08
1.00542e-07
1.75657e-08
-2.14555e-08
-5.66208e-08
6.05106e-08
2.45493e-08
-2.66876e-08
-2.84235e-08
3.05619e-08
2.82138e-08
-2.90583e-08
-8.03108e-09
8.87559e-09
2.94162e-08
-2.93414e-08
6.08774e-09
-6.16252e-09
2.89068e-08
-2.82207e-08
1.53004e-08
-1.59865e-08
2.72736e-08
-2.62053e-08
2.0872e-08
-2.19404e-08
2.49463e-08
-2.36564e-08
2.37984e-08
-2.50882e-08
2.22266e-08
-2.08202e-08
2.48745e-08
-2.6281e-08
1.93076e-08
-1.78542e-08
2.46692e-08
-2.61226e-08
1.63153e-08
-1.48561e-08
2.36599e-08
-2.51191e-08
1.33308e-08
-1.1899e-08
2.21395e-08
-2.35713e-08
1.04153e-08
-9.03438e-09
2.03999e-08
-2.17808e-08
7.61668e-09
-6.30829e-09
1.8602e-08
-1.99104e-08
4.97679e-09
-3.75814e-09
1.68667e-08
-1.80854e-08
2.52699e-09
-1.41058e-09
1.52332e-08
-1.63496e-08
-2.34856e-07
2.5226e-07
-1.74041e-08
2.32103e-08
-1.48972e-08
1.05268e-07
-1.13581e-07
5.25485e-09
1.66552e-09
1.18554e-07
-1.25475e-07
-1.42549e-08
1.89685e-08
9.65176e-08
-1.01231e-07
-2.86496e-08
3.98265e-08
1.73183e-07
-1.8436e-07
-5.44162e-08
6.92288e-08
2.27574e-07
-2.42387e-07
-8.53651e-08
9.8997e-08
2.12086e-07
-2.25718e-07
-1.13121e-07
1.24248e-07
1.52254e-07
-1.63381e-07
-1.30618e-07
1.39425e-07
5.00993e-08
-5.89066e-08
-1.40843e-07
1.32484e-07
-1.4527e-07
1.53629e-07
-1.14899e-07
9.66732e-08
-2.68704e-07
2.86929e-07
-7.48158e-08
5.53423e-08
-2.83511e-07
3.02985e-07
-3.72395e-08
2.20325e-08
-2.32888e-07
2.48095e-07
-9.57417e-09
-4.83122e-10
-1.64746e-07
1.74803e-07
8.76057e-09
-1.49556e-08
-1.06751e-07
1.12946e-07
2.02297e-08
-2.40764e-08
-6.43775e-08
6.82241e-08
2.71149e-08
-2.92074e-08
-3.26788e-08
3.47713e-08
3.06651e-08
-3.14225e-08
-9.67509e-09
1.04325e-08
3.16711e-08
-3.14896e-08
6.28968e-09
-6.47126e-09
3.09339e-08
-3.01296e-08
1.67288e-08
-1.75331e-08
2.90545e-08
-2.78656e-08
2.30669e-08
-2.42557e-08
2.64816e-08
-2.50736e-08
2.64359e-08
-2.78438e-08
2.3521e-08
-2.20001e-08
2.77432e-08
-2.92641e-08
2.03678e-08
-1.88041e-08
2.763e-08
-2.91937e-08
1.7154e-08
-1.55936e-08
2.66277e-08
-2.81881e-08
1.39677e-08
-1.24466e-08
2.50465e-08
-2.65676e-08
1.0876e-08
-9.41931e-09
2.31983e-08
-2.4655e-08
7.92924e-09
-6.55889e-09
2.12487e-08
-2.26191e-08
5.1687e-09
-3.90001e-09
1.93278e-08
-2.05965e-08
2.62129e-09
-1.46405e-09
1.74853e-08
-1.86425e-08
-2.70273e-07
2.88937e-07
-1.86642e-08
2.47519e-08
-1.53785e-08
1.22406e-07
-1.31779e-07
5.44947e-09
1.41936e-09
1.32379e-07
-1.39248e-07
-1.41491e-08
1.83996e-08
1.05722e-07
-1.09972e-07
-2.77076e-08
3.91183e-08
1.9565e-07
-2.0706e-07
-5.37321e-08
6.90056e-08
2.5742e-07
-2.72694e-07
-8.55723e-08
9.95042e-08
2.39493e-07
-2.53425e-07
-1.14581e-07
1.26038e-07
1.74686e-07
-1.86143e-07
-1.3286e-07
1.43934e-07
6.87826e-08
-7.98566e-08
-1.46894e-07
1.37913e-07
-1.62269e-07
1.7125e-07
-1.18746e-07
9.90309e-08
-3.05866e-07
3.25581e-07
-7.54649e-08
5.44294e-08
-3.23204e-07
3.4424e-07
-3.53894e-08
1.94083e-08
-2.63678e-07
2.79659e-07
-6.74294e-09
-3.58035e-09
-1.84989e-07
1.95313e-07
1.18218e-08
-1.7941e-08
-1.19114e-07
1.25233e-07
2.31935e-08
-2.69896e-08
-7.20467e-08
7.58429e-08
2.99661e-08
-3.20119e-08
-3.68384e-08
3.88842e-08
3.34014e-08
-3.40619e-08
-1.11411e-08
1.18016e-08
3.4194e-08
-3.38888e-08
6.71359e-09
-7.01887e-09
3.31963e-08
-3.2258e-08
1.84026e-08
-1.93409e-08
3.10411e-08
-2.97206e-08
2.55087e-08
-2.68292e-08
2.82004e-08
-2.66658e-08
2.93143e-08
-3.08489e-08
2.49823e-08
-2.33385e-08
3.08457e-08
-3.24895e-08
2.1579e-08
-1.98974e-08
3.08156e-08
-3.24973e-08
1.81266e-08
-1.64562e-08
2.98022e-08
-3.14726e-08
1.47208e-08
-1.31024e-08
2.81364e-08
-2.97547e-08
1.14369e-08
-9.89713e-09
2.6152e-08
-2.76918e-08
8.32654e-09
-6.88537e-09
2.40233e-08
-2.54645e-08
5.4253e-09
-4.09342e-09
2.18948e-08
-2.32267e-08
2.75126e-09
-1.5359e-09
1.98274e-08
-2.10427e-08
-3.08297e-07
3.284e-07
-2.01039e-08
2.65e-08
-1.59173e-08
1.41738e-07
-1.52321e-07
5.6568e-09
1.1618e-09
1.46119e-07
-1.52938e-07
-1.40423e-08
1.77299e-08
1.13952e-07
-1.1764e-07
-2.66496e-08
3.83311e-08
2.18601e-07
-2.30283e-07
-5.29403e-08
6.8745e-08
2.88224e-07
-3.04029e-07
-8.57558e-08
1.00051e-07
2.67529e-07
-2.81825e-07
-1.16194e-07
1.27839e-07
1.97716e-07
-2.0936e-07
-1.35263e-07
1.49171e-07
9.22705e-08
-1.06179e-07
-1.5406e-07
1.44159e-07
-1.80646e-07
1.90547e-07
-1.23171e-07
1.01691e-07
-3.46142e-07
3.67622e-07
-7.61395e-08
5.32693e-08
-3.66158e-07
3.89028e-07
-3.31876e-08
1.63551e-08
-2.96056e-07
3.12889e-07
-3.48923e-09
-7.07175e-09
-2.05757e-07
2.16318e-07
1.52315e-08
-2.12364e-08
-1.3131e-07
1.37315e-07
2.64604e-08
-3.01968e-08
-7.96059e-08
8.33423e-08
3.31001e-08
-3.51112e-08
-4.09127e-08
4.29237e-08
3.6436e-08
-3.69911e-08
-1.24109e-08
1.2966e-08
3.69893e-08
-3.65475e-08
7.38977e-09
-7.83156e-09
3.57004e-08
-3.46111e-08
2.03522e-08
-2.14415e-08
3.32386e-08
-3.17741e-08
2.822e-08
-2.96845e-08
3.01104e-08
-2.84431e-08
3.24489e-08
-3.41162e-08
2.66222e-08
-2.48499e-08
3.41973e-08
-3.59696e-08
2.2958e-08
-2.11522e-08
3.42407e-08
-3.60466e-08
1.92527e-08
-1.74635e-08
3.3201e-08
-3.49902e-08
1.56063e-08
-1.38761e-08
3.14268e-08
-3.31569e-08
1.20982e-08
-1.04581e-08
2.92791e-08
-3.09192e-08
8.78876e-09
-7.26048e-09
2.69466e-08
-2.84749e-08
5.71557e-09
-4.30943e-09
2.45943e-08
-2.60005e-08
2.89433e-09
-1.61452e-09
2.22908e-08
-2.35706e-08
-3.49297e-07
3.71036e-07
-2.17394e-08
2.848e-08
-1.65238e-08
1.63569e-07
-1.75525e-07
5.88246e-09
8.73751e-10
1.59757e-07
-1.66513e-07
-1.39382e-08
1.69509e-08
1.21007e-07
-1.2402e-07
-2.54699e-08
3.74546e-08
2.42114e-07
-2.54099e-07
-5.2039e-08
6.84569e-08
3.2013e-07
-3.36548e-07
-8.59108e-08
1.00696e-07
2.96343e-07
-3.11128e-07
-1.17924e-07
1.29573e-07
2.21031e-07
-2.32679e-07
-1.37906e-07
1.55298e-07
1.21749e-07
-1.39142e-07
-1.62561e-07
1.51318e-07
-2.0106e-07
2.12303e-07
-1.28267e-07
1.04694e-07
-3.90105e-07
4.13678e-07
-7.68021e-08
5.18083e-08
-4.12924e-07
4.37917e-07
-3.05675e-08
1.28181e-08
-3.3017e-07
3.47919e-07
4.60977e-10
-1.10418e-08
-2.26954e-07
2.37535e-07
1.90043e-08
-2.47942e-08
-1.43269e-07
1.49059e-07
3.00201e-08
-3.37036e-08
-8.70151e-08
9.06986e-08
3.65283e-08
-3.85224e-08
-4.49283e-08
4.69224e-08
3.97928e-08
-4.02301e-08
-1.34629e-08
1.39002e-08
4.00796e-08
-3.94834e-08
8.34644e-09
-8.94265e-09
3.84601e-08
-3.71998e-08
2.26131e-08
-2.38733e-08
3.56544e-08
-3.40369e-08
3.1224e-08
-3.28414e-08
3.22202e-08
-3.0416e-08
3.58521e-08
-3.76563e-08
2.84556e-08
-2.65509e-08
3.78057e-08
-3.97104e-08
2.45168e-08
-2.25769e-08
3.79191e-08
-3.98589e-08
2.05402e-08
-1.86238e-08
3.68438e-08
-3.87602e-08
1.66372e-08
-1.47886e-08
3.49467e-08
-3.67954e-08
1.28901e-08
-1.11381e-08
3.26144e-08
-3.43664e-08
9.35389e-09
-7.71986e-09
3.00546e-08
-3.16886e-08
6.06952e-09
-4.57022e-09
2.74504e-08
-2.89497e-08
3.0655e-09
-1.70742e-09
2.48855e-08
-2.62436e-08
-3.93675e-07
4.17269e-07
-2.35934e-08
3.07096e-08
-1.71919e-08
1.88236e-07
-2.01754e-07
6.10818e-09
5.4447e-10
1.73256e-07
-1.79909e-07
-1.38335e-08
1.60471e-08
1.26648e-07
-1.28862e-07
-2.41594e-08
3.64359e-08
2.66233e-07
-2.7851e-07
-5.10049e-08
6.81253e-08
3.53304e-07
-3.70424e-07
-8.59906e-08
1.01519e-07
3.26242e-07
-3.4177e-07
-1.19545e-07
1.31136e-07
2.44281e-07
-2.55872e-07
-1.40997e-07
1.62332e-07
1.58485e-07
-1.7982e-07
-1.72545e-07
1.59432e-07
-2.24409e-07
2.37521e-07
-1.34113e-07
1.0808e-07
-4.38436e-07
4.64468e-07
-7.73694e-08
4.99803e-08
-4.64083e-07
4.91473e-07
-2.74043e-08
8.77622e-09
-3.66142e-07
3.8477e-07
4.6832e-09
-1.5541e-08
-2.48169e-07
2.59027e-07
2.29762e-08
-2.83776e-08
-1.54926e-07
1.60328e-07
3.37887e-08
-3.74811e-08
-9.41825e-08
9.78749e-08
4.02124e-08
-4.22481e-08
-4.89405e-08
5.09762e-08
4.34871e-08
-4.37925e-08
-1.42708e-08
1.45763e-08
4.34728e-08
-4.27022e-08
9.62371e-09
-1.03943e-08
4.14729e-08
-4.00141e-08
2.52285e-08
-2.66874e-08
3.82761e-08
-3.6496e-08
3.45398e-08
-3.63199e-08
3.45294e-08
-3.25903e-08
3.95283e-08
-4.14674e-08
3.04887e-08
-2.8453e-08
4.16844e-08
-4.37201e-08
2.62832e-08
-2.42091e-08
4.18616e-08
-4.39358e-08
2.20234e-08
-1.99637e-08
4.07424e-08
-4.28021e-08
1.78293e-08
-1.58451e-08
3.87082e-08
-4.06924e-08
1.38102e-08
-1.19362e-08
3.61783e-08
-3.80523e-08
1.00317e-08
-8.28978e-09
3.33771e-08
-3.51191e-08
6.52846e-09
-4.92269e-09
3.05016e-08
-3.21073e-08
3.30347e-09
-1.83593e-09
2.76541e-08
-2.91217e-08
-4.41874e-07
4.67556e-07
-2.56819e-08
3.32098e-08
-1.79111e-08
2.16133e-07
-2.31431e-07
6.28537e-09
1.659e-10
1.86504e-07
-1.92955e-07
-1.37138e-08
1.50133e-08
1.30632e-07
-1.31931e-07
-2.27188e-08
3.52439e-08
2.90917e-07
-3.03442e-07
-4.98197e-08
6.77412e-08
3.87933e-07
-4.05854e-07
-8.59774e-08
1.02621e-07
3.57813e-07
-3.74457e-07
-1.20617e-07
1.32817e-07
2.67606e-07
-2.79806e-07
-1.4504e-07
1.69655e-07
2.03006e-07
-2.27621e-07
-1.83738e-07
1.68361e-07
-2.51758e-07
2.67136e-07
-1.40829e-07
1.11969e-07
-4.91871e-07
5.20731e-07
-7.77025e-08
4.78426e-08
-5.20211e-07
5.50071e-07
-2.35811e-08
4.16162e-09
-4.04086e-07
4.23505e-07
9.42659e-09
-2.00673e-08
-2.69719e-07
2.8036e-07
2.63626e-08
-3.15992e-08
-1.66096e-07
1.71333e-07
3.74954e-08
-4.12927e-08
-1.00987e-07
1.04784e-07
4.4098e-08
-4.63268e-08
-5.30172e-08
5.5246e-08
4.75495e-08
-4.76925e-08
-1.48002e-08
1.49432e-08
4.7191e-08
-4.62152e-08
1.12629e-08
-1.22387e-08
4.47352e-08
-4.30418e-08
2.82585e-08
-2.99519e-08
4.10988e-08
-3.91511e-08
3.81797e-08
-4.01273e-08
3.70269e-08
-3.49499e-08
4.34828e-08
-4.55598e-08
3.27114e-08
-3.0538e-08
4.58224e-08
-4.79957e-08
2.82061e-08
-2.59779e-08
4.60889e-08
-4.8317e-08
2.36403e-08
-2.14407e-08
4.49342e-08
-4.71338e-08
1.91552e-08
-1.70237e-08
4.27471e-08
-4.48786e-08
1.48344e-08
-1.2818e-08
3.99915e-08
-4.20079e-08
1.07694e-08
-8.89602e-09
3.69192e-08
-3.87925e-08
7.0023e-09
-5.27694e-09
3.37695e-08
-3.54949e-08
3.53816e-09
-1.96319e-09
3.06451e-08
-3.22201e-08
-4.94378e-07
5.22407e-07
-2.80289e-08
3.60131e-08
-1.86741e-08
2.47716e-07
-2.65055e-07
6.3716e-09
-2.45457e-10
1.99261e-07
-2.05388e-07
-1.35708e-08
1.38628e-08
1.32735e-07
-1.33027e-07
-2.11562e-08
3.38795e-08
3.16073e-07
-3.28796e-07
-4.84808e-08
6.72916e-08
4.24214e-07
-4.43025e-07
-8.59707e-08
1.03767e-07
3.91724e-07
-4.0952e-07
-1.211e-07
1.35623e-07
2.92942e-07
-3.07466e-07
-1.50122e-07
1.74839e-07
2.52871e-07
-2.77588e-07
-1.93934e-07
1.77378e-07
-2.8344e-07
2.99996e-07
-1.48607e-07
1.16233e-07
-5.51278e-07
5.83652e-07
-7.7506e-08
4.56678e-08
-5.81449e-07
6.13287e-07
-1.91966e-08
-1.99076e-09
-4.43769e-07
4.64956e-07
1.52982e-08
-2.411e-08
-2.91902e-07
3.00713e-07
2.97552e-08
-3.56474e-08
-1.76296e-07
1.82189e-07
4.16199e-08
-4.53858e-08
-1.07278e-07
1.11044e-07
4.84023e-08
-5.08039e-08
-5.74004e-08
5.9802e-08
5.19939e-08
-5.19497e-08
-1.49904e-08
1.49462e-08
5.12653e-08
-5.00363e-08
1.33272e-08
-1.45563e-08
4.82424e-08
-4.6262e-08
3.17796e-08
-3.37599e-08
4.40936e-08
-4.19893e-08
4.21597e-08
-4.4264e-08
3.97453e-08
-3.75594e-08
4.7681e-08
-4.98669e-08
3.51894e-08
-3.28855e-08
5.024e-08
-5.25439e-08
3.04281e-08
-2.80741e-08
5.06085e-08
-5.29624e-08
2.55761e-08
-2.32025e-08
4.9413e-08
-5.17866e-08
2.07286e-08
-1.84208e-08
4.70995e-08
-4.94072e-08
1.60456e-08
-1.38489e-08
4.41152e-08
-4.63119e-08
1.16084e-08
-9.55789e-09
4.0754e-08
-4.28044e-08
7.4928e-09
-5.62532e-09
3.729e-08
-3.91575e-08
3.75998e-09
-2.08264e-09
3.38437e-08
-3.5521e-08
-5.51717e-07
5.82383e-07
-3.06656e-08
3.91426e-08
-1.94658e-08
2.83522e-07
-3.03199e-07
6.33869e-09
-7.37493e-10
2.11282e-07
-2.16884e-07
-1.33703e-08
1.26205e-08
1.32798e-07
-1.32048e-07
-1.94644e-08
3.2333e-08
3.41598e-07
-3.54467e-07
-4.70088e-08
6.6736e-08
4.62291e-07
-4.82018e-07
-8.60963e-08
1.04313e-07
4.27637e-07
-4.45854e-07
-1.22695e-07
1.39939e-07
3.23585e-07
-3.40829e-07
-1.53713e-07
1.72859e-07
3.0033e-07
-3.19476e-07
-1.9648e-07
1.84293e-07
-3.15459e-07
3.27646e-07
-1.56965e-07
1.20237e-07
-6.1835e-07
6.55078e-07
-7.64594e-08
4.36829e-08
-6.47299e-07
6.80076e-07
-1.51443e-08
-1.10059e-08
-4.835e-07
5.0965e-07
2.73934e-08
-3.37084e-08
-3.14234e-07
3.20549e-07
3.67436e-08
-4.23825e-08
-1.86102e-07
1.91741e-07
4.79297e-08
-5.03239e-08
-1.13442e-07
1.15836e-07
5.30432e-08
-5.57658e-08
-6.25199e-08
6.52426e-08
5.68129e-08
-5.65081e-08
-1.46897e-08
1.43849e-08
5.5712e-08
-5.41797e-08
1.58659e-08
-1.73982e-08
5.19641e-08
-4.9641e-08
3.59075e-08
-3.82306e-08
4.7231e-08
-4.49956e-08
4.64385e-08
-4.86738e-08
4.26221e-08
-4.03195e-08
5.21335e-08
-5.44361e-08
3.78507e-08
-3.54387e-08
5.48951e-08
-5.73072e-08
3.28083e-08
-3.02522e-08
5.54055e-08
-5.79616e-08
2.75504e-08
-2.5011e-08
5.42511e-08
-5.67905e-08
2.23789e-08
-1.99212e-08
5.1788e-08
-5.42457e-08
1.73851e-08
-1.50361e-08
4.85859e-08
-5.0935e-08
1.26376e-08
-1.04371e-08
4.49337e-08
-4.71342e-08
8.20971e-09
-6.18017e-09
4.11015e-08
-4.3131e-08
4.13669e-09
-2.28736e-09
3.72709e-08
-3.91202e-08
-6.1448e-07
6.48097e-07
-3.36162e-08
4.26313e-08
-2.02753e-08
3.2417e-07
-3.46526e-07
6.16089e-09
-1.37932e-09
2.22117e-07
-2.26899e-07
-1.30717e-08
1.13285e-08
1.3079e-07
-1.29046e-07
-1.76269e-08
3.0592e-08
3.67389e-07
-3.80354e-07
-4.54229e-08
6.60839e-08
5.0221e-07
-5.22871e-07
-8.61913e-08
1.04661e-07
4.64101e-07
-4.82571e-07
-1.26691e-07
1.42141e-07
3.57978e-07
-3.73428e-07
-1.50835e-07
1.57354e-07
3.33224e-07
-3.39745e-07
-1.81505e-07
1.84352e-07
-3.33774e-07
3.30927e-07
-1.63933e-07
1.24213e-07
-6.94582e-07
7.34302e-07
-7.37844e-08
3.97729e-08
-7.18701e-07
7.52712e-07
-1.44361e-08
-1.52127e-08
-5.22467e-07
5.52116e-07
3.40581e-08
-3.72883e-08
-3.36636e-07
3.39866e-07
4.12215e-08
-4.78297e-08
-1.94702e-07
2.0131e-07
5.22867e-08
-5.43882e-08
-1.18735e-07
1.20836e-07
5.81971e-08
-6.14909e-08
-6.82995e-08
7.15933e-08
6.20035e-08
-6.10677e-08
-1.36688e-08
1.27331e-08
6.04356e-08
-5.87961e-08
1.88957e-08
-2.05352e-08
5.57603e-08
-5.278e-08
4.08732e-08
-4.38535e-08
5.01664e-08
-4.80209e-08
5.09309e-08
-5.30764e-08
4.57246e-08
-4.34594e-08
5.67173e-08
-5.89825e-08
4.09222e-08
-3.83681e-08
5.9802e-08
-6.23562e-08
3.55817e-08
-3.29142e-08
6.0602e-08
-6.32695e-08
3.00877e-08
-2.73691e-08
5.94022e-08
-6.21207e-08
2.44909e-08
-2.17845e-08
5.68118e-08
-5.95182e-08
1.9007e-08
-1.64586e-08
5.33738e-08
-5.59222e-08
1.38753e-08
-1.15076e-08
4.94104e-08
-5.17781e-08
9.09655e-09
-6.87654e-09
4.52551e-08
-4.74751e-08
4.61504e-09
-2.54901e-09
4.10839e-08
-4.31499e-08
-6.83317e-07
7.20231e-07
-3.69138e-08
4.6527e-08
-2.10938e-08
3.70368e-07
-3.95801e-07
5.80988e-09
-2.24464e-09
2.3113e-07
-2.34696e-07
-1.26242e-08
1.00241e-08
1.26852e-07
-1.24252e-07
-1.56018e-08
2.86378e-08
3.93356e-07
-4.06392e-07
-4.3734e-08
6.5337e-08
5.44007e-07
-5.6561e-07
-8.60682e-08
1.06072e-07
5.01645e-07
-5.21649e-07
-1.30069e-07
1.38393e-07
3.85754e-07
-3.94078e-07
-1.38888e-07
1.28116e-07
3.37694e-07
-3.26923e-07
-1.4765e-07
1.72262e-07
-3.17337e-07
2.92725e-07
-1.66266e-07
1.29041e-07
-7.77387e-07
8.14613e-07
-6.68797e-08
2.07435e-08
-7.95599e-07
8.41735e-07
3.96147e-09
-2.32647e-08
-5.66284e-07
5.85587e-07
4.12369e-08
-4.7496e-08
-3.52503e-07
3.58762e-07
4.93525e-08
-5.66169e-08
-2.02358e-07
2.09622e-07
6.10716e-08
-6.13213e-08
-1.23122e-07
1.23371e-07
6.37687e-08
-6.6774e-08
-7.53852e-08
7.83905e-08
6.7058e-08
-6.59539e-08
-1.22557e-08
1.11517e-08
6.55027e-08
-6.30812e-08
2.27812e-08
-2.52028e-08
5.78427e-08
-5.38816e-08
4.73857e-08
-5.13468e-08
5.21255e-08
-5.07426e-08
5.4926e-08
-5.63089e-08
4.87635e-08
-4.65384e-08
6.12478e-08
-6.34729e-08
4.39657e-08
-4.14494e-08
6.48917e-08
-6.7408e-08
3.86336e-08
-3.58099e-08
6.59678e-08
-6.87915e-08
3.27066e-08
-2.97062e-08
6.49868e-08
-6.79872e-08
2.65709e-08
-2.36408e-08
6.23571e-08
-6.52872e-08
2.06191e-08
-1.78187e-08
5.85924e-08
-6.13928e-08
1.4959e-08
-1.23389e-08
5.42604e-08
-5.68804e-08
9.69422e-09
-7.29285e-09
4.97864e-08
-5.21878e-08
4.88206e-09
-2.704e-09
4.5285e-08
-4.74631e-08
-7.58939e-07
7.9954e-07
-4.06013e-08
5.08675e-08
-2.19023e-08
4.22938e-07
-4.51903e-07
5.2517e-09
-3.45246e-09
2.37459e-07
-2.39258e-07
-1.19397e-08
8.73107e-09
1.21308e-07
-1.18099e-07
-1.33023e-08
2.64308e-08
4.19466e-07
-4.32595e-07
-4.19219e-08
6.43936e-08
5.87659e-07
-6.10131e-07
-8.596e-08
1.07855e-07
5.42681e-07
-5.64576e-07
-1.28972e-07
1.28394e-07
3.98027e-07
-3.9745e-07
-1.20001e-07
9.6158e-08
3.08653e-07
-2.8481e-07
-1.0637e-07
1.46043e-07
-2.59384e-07
2.1971e-07
-1.59628e-07
1.31394e-07
-8.58762e-07
8.86996e-07
-5.88156e-08
-8.61804e-10
-8.75565e-07
9.35242e-07
2.36934e-08
-4.0761e-08
-6.08797e-07
6.25864e-07
5.1122e-08
-4.80441e-08
-3.68241e-07
3.65163e-07
5.3912e-08
-6.1531e-08
-2.13154e-07
2.20773e-07
6.27883e-08
-6.43902e-08
-1.26987e-07
1.28589e-07
7.01115e-08
-7.17693e-08
-8.11451e-08
8.28028e-08
6.91196e-08
-7.02533e-08
-1.05521e-08
1.16858e-08
7.0609e-08
-6.54449e-08
2.89829e-08
-3.41469e-08
5.81551e-08
-5.4328e-08
5.51572e-08
-5.89843e-08
5.35165e-08
-5.34098e-08
5.69681e-08
-5.70747e-08
5.25219e-08
-5.0691e-08
6.55386e-08
-6.73695e-08
4.79975e-08
-4.52083e-08
7.00167e-08
-7.28059e-08
4.19537e-08
-3.87967e-08
7.18093e-08
-7.49663e-08
3.54982e-08
-3.23701e-08
7.10598e-08
-7.41879e-08
2.90901e-08
-2.59548e-08
6.82938e-08
-7.14291e-08
2.26554e-08
-1.95532e-08
6.4338e-08
-6.74402e-08
1.63639e-08
-1.34433e-08
5.96528e-08
-6.25734e-08
1.05144e-08
-7.88292e-09
5.46922e-08
-5.73236e-08
5.27011e-09
-2.93001e-09