/*--------------------------------*- C++ -*----------------------------------*\
| =========                 |                                                 |
| \\      /  F ield         | OpenFOAM: The Open Source CFD Toolbox           |
|  \\    /   O peration     | Version:  2.4.0                                 |
|   \\  /    A nd           | Web:      www.OpenFOAM.org                      |
|    \\/     M anipulation  |                                                 |
\*---------------------------------------------------------------------------*/
FoamFile
{
    version     2.0;
    format      ascii;
    class       surfaceScalarField;
    location    "0.127";
    object      phiAlpha;
}
// * * * * * * * * * * * * * * * * * * * * * * * * * * * * * * * * * * * * * //

dimensions      [0 3 -1 0 0 0 0];

internalField   nonuniform List<scalar> 
7080
(
4.13392e-13
-4.13406e-13
1.58343e-12
-1.17145e-12
2.54557e-12
-9.66388e-13
4.43872e-12
-1.8999e-12
5.25857e-12
-8.29266e-13
9.05957e-12
-3.81504e-12
8.30948e-12
7.34643e-13
1.51815e-11
-6.88966e-12
1.02877e-11
4.87333e-12
2.18803e-11
-1.1614e-11
1.00576e-11
1.18002e-11
2.66743e-11
-1.66369e-11
7.55056e-12
1.9104e-11
2.65288e-11
-1.8993e-11
5.81587e-12
2.06958e-11
2.63362e-11
-2.05237e-11
1.2559e-11
1.376e-11
4.40702e-11
-3.15039e-11
2.82685e-11
1.57856e-11
3.87693e-11
-1.04931e-11
6.27045e-11
-2.39388e-11
-7.8833e-11
1.41532e-10
-3.47407e-10
2.68592e-10
-5.52503e-10
2.05072e-10
-4.37565e-10
-1.14918e-10
-2.14869e-10
-2.22708e-10
-5.75639e-12
-2.09115e-10
1.10457e-10
-1.16202e-10
1.29603e-10
-1.91592e-11
1.11872e-11
1.18428e-10
-2.43761e-14
-3.90673e-13
-1.224e-13
-1.07881e-12
-4.07895e-13
-6.90987e-13
-6.26121e-13
-1.69637e-12
-1.92565e-12
4.50978e-13
-1.15789e-12
-4.60869e-12
-4.56704e-12
4.11452e-12
-1.01478e-12
-1.04747e-11
-1.06935e-11
1.45167e-11
-3.31972e-12
-1.90238e-11
-2.54603e-11
3.3905e-11
-1.46206e-11
-2.75072e-11
-5.12131e-11
5.56664e-11
-3.93711e-11
-3.08512e-11
-8.22128e-11
6.35078e-11
-6.76983e-11
-3.5034e-11
-9.87792e-11
4.48116e-11
-7.26664e-11
-5.76037e-11
-9.78384e-11
4.09395e-11
-9.69298e-11
-1.13999e-11
-8.60381e-11
-3.4816e-11
-2.54816e-10
3.10283e-10
-5.18657e-10
5.3247e-10
-6.69352e-10
3.55731e-10
-4.62805e-10
-3.21446e-10
-1.59617e-10
-5.25896e-10
7.84023e-11
-4.4715e-10
2.00081e-10
-2.37856e-10
2.01146e-10
-2.02506e-11
3.88724e-11
1.73491e-10
-7.97842e-14
-3.12305e-13
-4.31921e-13
-7.31336e-13
-1.0505e-12
-8.12388e-14
-1.41006e-12
-1.34967e-12
-3.30686e-12
2.33111e-12
-3.17376e-12
-4.76439e-12
-8.82889e-12
9.74443e-12
-6.63887e-12
-1.26929e-11
-2.14635e-11
2.93112e-11
-1.63043e-11
-2.42137e-11
-4.58718e-11
6.34416e-11
-3.82768e-11
-3.51282e-11
-8.32462e-11
1.0061e-10
-7.57189e-11
-3.83912e-11
-1.25901e-10
1.13663e-10
-1.13377e-10
-4.75528e-11
-1.47422e-10
7.88308e-11
-1.17945e-10
-8.70692e-11
-1.41814e-10
6.47932e-11
-1.33405e-10
-1.98101e-11
-1.13415e-10
-5.47904e-11
-2.72155e-10
4.68996e-10
-5.27345e-10
7.87697e-10
-6.6405e-10
4.92402e-10
-4.44375e-10
-5.41105e-10
-1.3108e-10
-8.39191e-10
1.04637e-10
-6.82882e-10
2.21741e-10
-3.54937e-10
2.16323e-10
-1.48587e-11
6.83364e-11
1.8689e-10
1.67029e-13
-4.80772e-13
3.52538e-13
-9.21534e-13
1.15019e-13
1.47299e-13
2.51996e-14
-1.27284e-12
-1.7213e-12
4.06095e-12
-1.60368e-12
-4.90439e-12
-8.08592e-12
1.62023e-11
-6.57026e-12
-1.42352e-11
-2.29086e-11
4.56216e-11
-1.86957e-11
-2.84546e-11
-5.06337e-11
9.53516e-11
-4.43e-11
-4.14848e-11
-9.20044e-11
1.48292e-10
-8.52783e-11
-4.5127e-11
-1.36797e-10
1.65158e-10
-1.24262e-10
-6.00809e-11
-1.57203e-10
1.11748e-10
-1.2503e-10
-1.19233e-10
-1.47232e-10
8.6983e-11
-1.35392e-10
-3.1654e-11
-1.07244e-10
-8.29211e-11
-2.65879e-10
6.27602e-10
-5.27824e-10
1.04968e-09
-6.66736e-10
6.3128e-10
-4.41722e-10
-7.66102e-10
-1.23006e-10
-1.15791e-09
1.12498e-10
-9.18402e-10
2.2758e-10
-4.69994e-10
2.19443e-10
-6.74743e-12
1.01523e-10
1.86287e-10
1.38918e-13
-6.21197e-13
4.30715e-13
-1.21816e-12
5.71527e-13
-2.71755e-15
1.04685e-12
-1.76134e-12
-1.08331e-14
5.10186e-12
5.16062e-13
-5.45368e-12
-5.82187e-12
2.25166e-11
-3.70307e-12
-1.63791e-11
-2.15079e-11
6.34003e-11
-1.65022e-11
-3.34857e-11
-5.03566e-11
1.29181e-10
-4.36342e-11
-4.8227e-11
-9.25274e-11
1.97164e-10
-8.72925e-11
-5.0369e-11
-1.39175e-10
2.17017e-10
-1.2761e-10
-7.16377e-11
-1.59001e-10
1.43119e-10
-1.2525e-10
-1.52977e-10
-1.47171e-10
1.08895e-10
-1.33327e-10
-4.55047e-11
-9.7172e-11
-1.19057e-10
-2.5958e-10
7.89981e-10
-5.33724e-10
1.32386e-09
-6.78008e-10
7.75532e-10
-4.45741e-10
-9.98353e-10
-1.19465e-10
-1.48418e-09
1.17349e-10
-1.15523e-09
2.30973e-10
-5.83595e-10
2.20895e-10
3.30523e-12
1.36729e-10
1.8572e-10
1.26201e-13
-7.48985e-13
4.45559e-13
-1.54244e-12
3.88579e-13
4.49305e-14
1.04136e-12
-2.42728e-12
-4.87363e-13
6.61414e-12
6.57376e-13
-6.62023e-12
-6.26605e-12
2.94176e-11
-3.40962e-12
-1.92588e-11
-2.18411e-11
8.1808e-11
-1.64376e-11
-3.89116e-11
-5.15377e-11
1.64258e-10
-4.49286e-11
-5.48527e-11
-9.57401e-11
2.47958e-10
-9.02517e-11
-5.58619e-11
-1.43018e-10
2.69763e-10
-1.31228e-10
-8.34194e-11
-1.60946e-10
1.7282e-10
-1.24654e-10
-1.89265e-10
-1.46461e-10
1.30697e-10
-1.31198e-10
-6.0779e-11
-8.53801e-11
-1.64853e-10
-2.53101e-10
9.57672e-10
-5.42991e-10
1.61379e-09
-6.94026e-10
9.26536e-10
-4.52191e-10
-1.24017e-09
-1.16092e-10
-1.82028e-09
1.22624e-10
-1.39396e-09
2.34551e-10
-6.95499e-10
2.22362e-10
1.54704e-11
1.73412e-10
1.8571e-10
1.47712e-13
-8.98324e-13
6.49902e-13
-2.04949e-12
1.17494e-12
-4.8924e-13
2.69055e-12
-3.9556e-12
1.8956e-12
7.39347e-12
4.44709e-12
-9.19257e-12
-2.87043e-12
3.67147e-11
1.21805e-12
-2.33675e-11
-1.95661e-11
1.02572e-10
-1.23833e-11
-4.61131e-11
-5.04676e-11
2.02324e-10
-4.28322e-11
-6.25017e-11
-9.5118e-11
3.00228e-10
-9.20979e-11
-5.88842e-11
-1.45382e-10
3.23029e-10
-1.35531e-10
-9.32619e-11
-1.63106e-10
2.00382e-10
-1.24692e-10
-2.27679e-10
-1.47012e-10
1.53017e-10
-1.2924e-10
-7.85658e-11
-7.1227e-11
-2.22843e-10
-2.45498e-10
1.13191e-09
-5.54754e-10
1.92308e-09
-7.13881e-10
1.08563e-09
-4.60179e-10
-1.49386e-09
-1.12018e-10
-2.16844e-09
1.28973e-10
-1.63497e-09
2.3879e-10
-8.05293e-10
2.24088e-10
3.01484e-11
2.116e-10
1.85931e-10
1.11948e-13
-1.01193e-12
7.31733e-13
-2.67385e-12
1.19954e-12
-9.65567e-13
3.38689e-12
-6.15456e-12
1.85628e-12
8.91021e-12
5.11419e-12
-1.24691e-11
-3.52731e-12
4.53389e-11
1.31144e-12
-2.82226e-11
-2.0838e-11
1.24705e-10
-1.34243e-11
-5.35411e-11
-5.30617e-11
2.41946e-10
-4.58003e-11
-6.97733e-11
-1.0094e-10
3.55354e-10
-9.73139e-11
-6.25113e-11
-1.5221e-10
3.77908e-10
-1.41572e-10
-1.03892e-10
-1.66327e-10
2.25127e-10
-1.23859e-10
-2.70151e-10
-1.46322e-10
1.75484e-10
-1.26711e-10
-9.81962e-11
-5.40679e-11
-2.9546e-10
-2.36344e-10
1.31416e-09
-5.68896e-10
2.25567e-09
-7.37551e-10
1.25426e-09
-4.69581e-10
-1.76182e-09
-1.07044e-10
-2.53097e-09
1.36536e-10
-1.87857e-09
2.43765e-10
-9.125e-10
2.26092e-10
4.77987e-11
2.51489e-10
1.86232e-10
1.30695e-13
-1.1442e-12
1.0968e-12
-3.6439e-12
2.59912e-12
-2.4752e-12
6.40282e-12
-9.96791e-12
6.18761e-12
9.11427e-12
1.1743e-11
-1.80402e-11
2.54903e-12
5.45203e-11
1.04166e-11
-3.6101e-11
-1.67863e-11
1.51897e-10
-6.78714e-12
-6.35495e-11
-5.10485e-11
2.86196e-10
-4.22362e-11
-7.85929e-11
-9.92047e-11
4.1231e-10
-9.99281e-11
-6.17878e-11
-1.55347e-10
4.33312e-10
-1.47959e-10
-1.11273e-10
-1.69781e-10
2.46946e-10
-1.24131e-10
-3.15812e-10
-1.47931e-10
1.99296e-10
-1.24677e-10
-1.21476e-10
-3.3658e-11
-3.8645e-10
-2.25399e-10
1.50586e-09
-5.85459e-10
2.61576e-09
-7.65158e-10
1.43393e-09
-4.80373e-10
-2.04659e-09
-1.01062e-10
-2.91028e-09
1.45364e-10
-2.12501e-09
2.49474e-10
-1.01659e-09
2.28344e-10
6.89054e-11
2.93329e-10
1.86534e-10
3.32867e-13
-1.47847e-12
1.90846e-12
-5.22231e-12
3.30751e-12
-3.87958e-12
8.34693e-12
-1.50139e-11
6.29873e-12
1.11556e-11
1.31992e-11
-2.49513e-11
2.11622e-12
6.55969e-11
1.00563e-11
-4.4045e-11
-1.97187e-11
1.81668e-10
-1.03461e-11
-7.2925e-11
-5.60846e-11
3.31929e-10
-4.82843e-11
-8.63978e-11
-1.08959e-10
4.72974e-10
-1.08237e-10
-6.25102e-11
-1.66126e-10
4.91187e-10
-1.56949e-10
-1.20447e-10
-1.7393e-10
2.63931e-10
-1.22146e-10
-3.67613e-10
-1.46813e-10
2.23981e-10
-1.21495e-10
-1.46826e-10
-8.71168e-12
-4.99202e-10
-2.12384e-10
1.7095e-09
-6.0465e-10
3.00807e-09
-7.97034e-10
1.62629e-09
-4.92647e-10
-2.35097e-09
-9.39865e-11
-3.30894e-09
1.55532e-10
-2.37454e-09
2.55946e-10
-1.11698e-09
2.30856e-10
9.39741e-11
3.37373e-10
1.86839e-10
5.52365e-13
-2.03192e-12
2.73901e-12
-7.41015e-12
4.84605e-12
-5.98906e-12
1.20956e-11
-2.22657e-11
1.31275e-11
1.01226e-11
2.4613e-11
-3.64415e-11
1.20282e-11
7.81839e-11
2.48252e-11
-5.68365e-11
-1.27578e-11
2.19256e-10
-2.63529e-13
-8.54148e-11
-5.15872e-11
3.83251e-10
-4.16985e-11
-9.62884e-11
-1.04282e-10
5.35547e-10
-1.11181e-10
-5.56145e-11
-1.69675e-10
5.4967e-10
-1.65769e-10
-1.24357e-10
-1.79011e-10
2.77185e-10
-1.22695e-10
-4.23954e-10
-1.50238e-10
2.51548e-10
-1.20003e-10
-1.77097e-10
1.67031e-11
-6.35874e-10
-1.9711e-10
1.92328e-09
-6.26667e-10
3.43766e-09
-8.33501e-10
1.83309e-09
-5.06463e-10
-2.67799e-09
-8.57041e-11
-3.72969e-09
1.67112e-10
-2.62737e-09
2.63192e-10
-1.21304e-09
2.33616e-10
1.23529e-10
3.83872e-10
1.87145e-10
1.03768e-12
-3.0702e-12
4.71406e-12
-1.10853e-11
7.10261e-12
-8.37608e-12
1.89282e-11
-3.40877e-11
1.74589e-11
1.15986e-11
3.08921e-11
-4.98704e-11
1.32867e-11
9.58022e-11
2.30645e-11
-6.65974e-11
-1.94238e-11
2.6176e-10
-9.34368e-12
-9.54817e-11
-6.17354e-11
4.35649e-10
-5.35096e-11
-1.04514e-10
-1.20425e-10
6.02452e-10
-1.23913e-10
-5.21335e-11
-1.85787e-10
6.11536e-10
-1.78461e-10
-1.31695e-10
-1.83774e-10
2.8252e-10
-1.18475e-10
-4.89287e-10
-1.4843e-10
2.81538e-10
-1.16267e-10
-2.09304e-10
4.51277e-11
-7.97233e-10
-1.79067e-10
2.14744e-09
-6.51669e-10
3.91029e-09
-8.74856e-10
2.05626e-09
-5.21842e-10
-3.03099e-09
-7.6077e-11
-4.17546e-09
1.80169e-10
-2.88363e-09
2.71198e-10
-1.30405e-09
2.36595e-10
1.58113e-10
4.33068e-10
1.87425e-10
1.87274e-12
-4.94268e-12
8.0759e-12
-1.72843e-11
1.30277e-11
-1.33213e-11
3.16769e-11
-5.27258e-11
3.4473e-11
8.81861e-12
5.26266e-11
-6.80102e-11
2.96995e-11
1.18755e-10
4.61883e-11
-8.3055e-11
-7.78274e-12
3.15759e-10
7.71627e-12
-1.10957e-10
-5.18587e-11
4.95237e-10
-4.11981e-11
-1.1517e-10
-1.09664e-10
6.70908e-10
-1.26459e-10
-3.53505e-11
-1.895e-10
6.74569e-10
-1.90411e-10
-1.30806e-10
-1.90908e-10
2.8305e-10
-1.1932e-10
-5.6092e-10
-1.54842e-10
3.17103e-10
-1.16699e-10
-2.47495e-10
7.77415e-11
-9.91637e-10
-1.58197e-10
2.38334e-09
-6.79952e-10
4.43209e-09
-9.21601e-10
2.29788e-09
-5.38905e-10
-3.41368e-09
-6.49606e-11
-4.6494e-09
1.94808e-10
-3.14342e-09
2.79997e-10
-1.38922e-09
2.39801e-10
1.9829e-10
4.85213e-10
1.87681e-10
3.8882e-12
-8.82928e-12
1.55249e-11
-2.8913e-11
1.9844e-11
-1.76277e-11
4.90351e-11
-8.18969e-11
4.61283e-11
1.1752e-11
6.36767e-11
-8.55324e-11
3.2112e-11
1.5036e-10
3.96318e-11
-9.05293e-11
-2.2861e-11
3.78294e-10
-1.56659e-11
-1.18117e-10
-7.29521e-11
5.52544e-10
-6.29486e-11
-1.25166e-10
-1.35799e-10
7.43751e-10
-1.45114e-10
-2.60536e-11
-2.12585e-10
7.42037e-10
-2.07761e-10
-1.35665e-10
-1.9593e-10
2.71263e-10
-1.11446e-10
-6.45458e-10
-1.51994e-10
3.57703e-10
-1.13667e-10
-2.85875e-10
1.16297e-10
-1.22156e-09
-1.33601e-10
2.6332e-09
-7.11762e-10
5.01028e-09
-9.74231e-10
2.56033e-09
-5.57738e-10
-3.83016e-09
-5.21731e-11
-5.15496e-09
2.11134e-10
-3.40674e-09
2.89598e-10
-1.46767e-09
2.43221e-10
2.4465e-10
5.40561e-10
1.87897e-10
7.1688e-12
-1.59947e-11
2.63634e-11
-4.80949e-11
3.02572e-11
-2.15026e-11
7.20331e-11
-1.23644e-10
7.34607e-11
1.03602e-11
9.68616e-11
-1.08899e-10
5.6581e-11
1.90693e-10
7.63046e-11
-1.10193e-10
-4.33087e-12
4.58985e-10
9.53686e-12
-1.31937e-10
-5.12255e-11
6.13339e-10
-3.94907e-11
-1.36887e-10
-1.13415e-10
8.1767e-10
-1.46335e-10
6.8415e-12
-2.16843e-10
8.12547e-10
-2.24082e-10
-1.28475e-10
-2.05526e-10
2.52762e-10
-1.1229e-10
-7.38758e-10
-1.6296e-10
4.08433e-10
-1.18803e-10
-3.3009e-10
1.58911e-10
-1.49924e-09
-1.05675e-10
2.89775e-09
-7.47388e-10
5.65203e-09
-1.03321e-09
2.84613e-09
-5.78384e-10
-4.28498e-09
-3.74885e-11
-5.69585e-09
2.29241e-10
-3.67348e-09
2.99985e-10
-1.53839e-09
2.46818e-10
2.97801e-10
5.99339e-10
1.88063e-10
1.19793e-11
-2.79694e-11
4.81008e-11
-8.42015e-11
4.40062e-11
-1.73846e-11
1.10957e-10
-1.90562e-10
1.07963e-10
1.33957e-11
1.19791e-10
-1.20688e-10
6.23449e-11
2.48198e-10
5.66017e-11
-1.04384e-10
-3.98658e-11
5.55512e-10
-4.10487e-11
-1.30699e-10
-9.27934e-11
6.65124e-10
-7.59561e-11
-1.53704e-10
-1.54313e-10
8.96031e-10
-1.72166e-10
2.46636e-11
-2.48262e-10
8.88653e-10
-2.47263e-10
-1.29538e-10
-2.10329e-10
2.15895e-10
-9.88572e-11
-8.50304e-10
-1.58641e-10
4.68286e-10
-1.14807e-10
-3.73986e-10
2.09605e-10
-1.82361e-09
-7.26439e-11
3.17995e-09
-7.87104e-10
6.36652e-09
-1.09926e-09
3.15826e-09
-6.00996e-10
-4.78324e-09
-2.06037e-11
-6.27624e-09
2.49279e-10
-3.94338e-09
3.11193e-10
-1.60029e-09
2.50596e-10
3.58382e-10
6.61754e-10
1.88202e-10
-5.40644e-12
-2.23975e-11
6.41731e-12
-9.56582e-11
2.66794e-11
-3.76194e-11
1.59646e-10
-3.23509e-10
1.68007e-10
5.074e-12
1.82628e-10
-1.35277e-10
9.82462e-11
3.32635e-10
1.07663e-10
-1.13736e-10
-1.46093e-11
6.77842e-10
-8.5063e-12
-1.36743e-10
-4.91e-11
7.05765e-10
-3.2956e-11
-1.69817e-10
-1.12166e-10
9.75255e-10
-1.71632e-10
8.40932e-11
-2.55219e-10
9.7226e-10
-2.69999e-10
-1.14838e-10
-2.22715e-10
1.68688e-10
-9.88798e-11
-9.74221e-10
-1.76043e-10
5.45526e-10
-1.24598e-10
-4.25495e-10
2.63976e-10
-2.21214e-09
-3.65383e-11
3.48043e-09
-8.31566e-10
7.16158e-09
-1.17312e-09
3.49979e-09
-6.25696e-10
-5.33065e-09
-7.24533e-13
-6.90121e-09
2.71387e-10
-4.2155e-09
3.23231e-10
-1.65212e-09
2.54532e-10
4.27066e-10
7.28e-10
1.88307e-10
-1.37972e-11
-8.50275e-12
-4.41361e-11
-6.53646e-11
-1.63007e-11
-6.54274e-11
2.42382e-10
-5.81817e-10
2.56888e-10
-9.38237e-12
2.21758e-10
-1.00134e-10
9.23723e-11
4.62056e-10
4.51922e-11
-6.65127e-11
-9.63357e-11
8.19414e-10
-1.10218e-10
-1.22811e-10
-1.25637e-10
7.21237e-10
-8.8325e-11
-2.0709e-10
-1.74048e-10
1.06101e-09
-2.05051e-10
1.15059e-10
-2.95244e-10
1.06249e-09
-3.00444e-10
-1.0973e-10
-2.26646e-10
9.4977e-11
-7.74643e-11
-1.12349e-09
-1.70089e-10
6.38232e-10
-1.19973e-10
-4.75675e-10
3.3021e-10
-2.66228e-09
5.27249e-12
3.80532e-09
-8.80591e-10
8.04747e-09
-1.25539e-09
3.87458e-09
-6.5256e-10
-5.93347e-09
1.82811e-11
-7.57204e-09
2.9568e-10
-4.49291e-09
3.36077e-10
-1.6925e-09
2.58578e-10
5.04551e-10
7.98256e-10
1.88342e-10
2.31525e-11
-3.15573e-11
5.29192e-11
-9.47678e-11
6.34783e-11
-7.5745e-11
3.46146e-10
-8.63895e-10
3.31292e-10
5.74942e-12
3.15466e-10
-8.43371e-11
1.23868e-10
6.53651e-10
9.65257e-11
-3.91581e-11
-5.72686e-11
9.73212e-10
-6.40256e-11
-1.16022e-10
-3.91775e-11
6.96436e-10
-1.18728e-11
-2.34345e-10
-1.01285e-10
1.15047e-09
-2.02523e-10
2.16262e-10
-3.09214e-10
1.16922e-09
-3.32832e-10
-8.6217e-11
-2.4191e-10
4.14767e-12
-7.49222e-11
-1.29057e-09
-1.95963e-10
7.59358e-10
-1.38807e-10
-5.32895e-10
3.98401e-10
-3.19945e-09
6.42944e-11
4.13939e-09
-9.35626e-10
9.04742e-09
-1.34734e-09
4.28627e-09
-6.81819e-10
-6.59899e-09
4.11323e-11
-8.29499e-09
3.22359e-10
-4.77415e-09
3.49767e-10
-1.71989e-09
2.62726e-10
5.9158e-10
8.72701e-10
1.88299e-10
4.50912e-11
-7.65597e-11
1.5836e-10
-2.06834e-10
1.20972e-10
-3.77805e-11
3.68876e-10
-1.11247e-09
3.87592e-10
-1.30195e-11
2.95844e-10
7.32119e-12
3.03758e-11
9.1911e-10
-8.63339e-11
7.75255e-11
-2.30729e-10
1.11758e-09
-2.51029e-10
-9.57163e-11
-1.69751e-10
6.15194e-10
-8.77197e-11
-3.16325e-10
-1.88381e-10
1.2512e-09
-2.43675e-10
2.71524e-10
-3.57668e-10
1.28328e-09
-3.72183e-10
-7.18123e-11
-2.44289e-10
-1.23652e-10
-4.29511e-11
-1.492e-09
-1.89115e-10
9.05607e-10
-1.35305e-10
-5.86765e-10
4.84859e-10
-3.81957e-09
1.34394e-10
4.48981e-09
-9.95925e-10
1.01778e-08
-1.44929e-09
4.73962e-09
-7.13381e-10
-7.33488e-09
6.73595e-11
-9.07573e-09
3.51612e-10
-5.05841e-09
3.64304e-10
-1.73257e-09
2.66939e-10
6.88934e-10
9.51502e-10
1.88154e-10
3.97117e-11
-1.14774e-10
1.43987e-10
-3.08166e-10
2.53689e-10
-1.46704e-10
3.30051e-10
-1.18876e-09
2.10257e-10
1.06681e-10
2.16879e-10
6.59092e-13
-3.95128e-11
1.17536e-09
-1.22775e-10
1.60731e-10
-1.94233e-10
1.18901e-09
-2.05786e-10
-8.419e-11
-2.61173e-11
4.35542e-10
5.66594e-11
-3.99051e-10
-6.67958e-11
1.37474e-09
-2.37849e-10
4.42552e-10
-3.86482e-10
1.43199e-09
-4.20021e-10
-3.83845e-11
-2.61909e-10
-2.81673e-10
-3.47085e-11
-1.71929e-09
-2.25557e-10
1.09654e-09
-1.68614e-10
-6.43764e-10
5.68578e-10
-4.55673e-09
2.06859e-10
4.85149e-09
-1.06417e-09
1.14488e-08
-1.56403e-09
5.23946e-09
-7.48066e-10
-8.15084e-09
9.7501e-11
-9.92129e-09
3.83625e-10
-5.34455e-09
3.79656e-10
-1.72859e-09
2.71155e-10
7.97425e-10
1.03481e-09
1.87865e-10
1.6737e-11
-1.3155e-10
3.31352e-11
-3.27292e-10
1.61093e-10
-2.72837e-10
-1.05659e-11
-1.01676e-09
-1.27403e-10
2.23471e-10
-1.23672e-10
-3.10228e-12
-2.0795e-10
1.25964e-09
-3.87476e-10
3.40223e-10
-4.46169e-10
1.24767e-09
-4.88333e-10
-4.20671e-11
-2.12486e-10
1.59697e-10
-3.16322e-11
-5.79864e-10
-1.78518e-10
1.52173e-09
-2.88624e-10
5.52637e-10
-4.42064e-10
1.58552e-09
-4.69456e-10
-1.10993e-11
-2.62487e-10
-4.88557e-10
1.13272e-11
-1.99319e-09
-2.20222e-10
1.32816e-09
-1.69302e-10
-6.94735e-10
6.81665e-10
-5.40766e-09
3.00657e-10
5.23247e-09
-1.13855e-09
1.2888e-08
-1.6896e-09
5.79049e-09
-7.84435e-10
-9.056e-09
1.32314e-10
-1.0838e-08
4.18621e-10
-5.63086e-09
3.95834e-10
-1.70579e-09
2.75349e-10
9.17902e-10
1.12274e-09
1.87431e-10
1.05616e-10
-2.37656e-10
-7.95072e-11
-1.43642e-10
4.38122e-11
-3.98818e-10
-2.78474e-10
-6.94653e-10
-5.61266e-10
5.05938e-10
-3.72946e-10
-1.91338e-10
-1.81293e-10
1.06798e-09
-3.78599e-10
5.37525e-10
-3.15466e-10
1.18451e-09
-3.91851e-10
3.42698e-11
2.84507e-11
-2.60611e-10
2.35787e-10
-7.87176e-10
1.94347e-11
1.73817e-09
-2.78133e-10
8.50186e-10
-5.00324e-10
1.80779e-09
-5.42281e-10
3.076e-11
-2.82027e-10
-7.48735e-10
3.53166e-11
-2.31061e-09
-2.68438e-10
1.63199e-09
-2.24756e-10
-7.38461e-10
7.81903e-10
-6.41429e-09
3.95031e-10
5.6193e-09
-1.22316e-09
1.45063e-08
-1.83351e-09
6.40082e-09
-8.25851e-10
-1.00636e-08
1.72333e-10
-1.18362e-08
4.5696e-10
-5.9155e-09
4.12897e-10
-1.66172e-09
2.79489e-10
1.0513e-09
1.2154e-09
1.86838e-10
-3.75893e-10
1.35864e-10
-4.42309e-10
-7.73522e-11
-1.7558e-10
-6.6641e-10
-7.02984e-10
-1.67217e-10
-6.27522e-10
4.30483e-10
-6.66252e-10
-1.5252e-10
-3.6343e-10
7.65212e-10
-6.44184e-10
8.18302e-10
-7.67043e-10
1.30738e-09
-7.76326e-10
4.35064e-11
-1.809e-10
-8.56053e-10
1.4146e-10
-1.10952e-09
-1.43417e-10
2.02312e-09
-3.50747e-10
1.05749e-09
-5.61733e-10
2.01886e-09
-6.03794e-10
7.2734e-11
-2.80452e-10
-1.07201e-09
1.10408e-10
-2.70154e-09
-2.68684e-10
2.01114e-09
-2.35147e-10
-7.72037e-10
9.31156e-10
-7.58056e-09
5.22774e-10
6.02766e-09
-1.3153e-09
1.63443e-08
-1.98888e-09
7.07439e-09
-8.67302e-10
-1.11852e-08
2.17679e-10
-1.29212e-08
4.98699e-10
-6.19653e-09
4.30619e-10
-1.59363e-09
2.83419e-10
1.1985e-09
1.31279e-09
1.86039e-10
-5.42091e-10
6.72077e-10
-1.70226e-10
-4.49233e-10
-5.94588e-10
-2.42166e-10
-2.87436e-10
-4.74353e-10
-3.39191e-10
4.82227e-10
-3.30247e-10
-1.61443e-10
3.40894e-10
9.40965e-11
-1.60773e-10
1.31999e-09
-5.83887e-10
1.73051e-09
-7.07421e-10
1.66997e-10
1.21919e-10
-1.68541e-09
5.90684e-10
-1.57831e-09
2.01317e-10
2.41253e-09
-3.28909e-10
1.58769e-09
-6.70208e-10
2.36023e-09
-7.09449e-10
1.11902e-10
-2.97821e-10
-1.48358e-09
1.55235e-10
-3.15466e-09
-3.27744e-10
2.49417e-09
-3.23124e-10
-7.7669e-10
1.04559e-09
-8.94925e-09
6.43375e-10
6.42984e-09
-1.41907e-09
1.84068e-08
-2.16593e-09
7.82124e-09
-9.15901e-10
-1.24352e-08
2.66603e-10
-1.41037e-08
5.43864e-10
-6.47379e-09
4.49278e-10
-1.49904e-09
2.87236e-10
1.36053e-09
1.41497e-09
1.85068e-10
1.33731e-10
5.38335e-10
-7.42138e-11
-2.41893e-10
-1.05763e-09
7.41276e-10
-7.73959e-10
-7.57891e-10
-4.56029e-10
1.6427e-10
-2.09008e-10
-4.08407e-10
1.14074e-10
-2.29004e-10
-2.95607e-10
1.72967e-09
-9.1105e-10
2.34597e-09
-1.07362e-09
3.29532e-10
-1.71355e-10
-2.58768e-09
4.02474e-10
-2.15216e-09
-6.41425e-11
2.87918e-09
-4.52812e-10
1.97633e-09
-7.08699e-10
2.61619e-09
-7.56215e-10
1.59354e-10
-2.72099e-10
-1.96764e-09
2.67952e-10
-3.69476e-09
-3.40413e-10
3.10258e-09
-3.49139e-10
-7.67993e-10
1.24993e-09
-1.05483e-08
8.23261e-10
6.85648e-09
-1.53551e-09
2.07656e-08
-2.3648e-09
8.65053e-09
-9.63979e-10
-1.38361e-08
3.27829e-10
-1.53955e-08
5.95599e-10
-6.74157e-09
4.69073e-10
-1.37251e-09
2.90619e-10
1.53898e-09
1.52176e-09
1.8384e-10
4.2617e-10
1.12301e-10
-4.1768e-10
6.05105e-10
-5.51017e-10
8.72407e-10
-2.05665e-10
-1.10389e-09
1.68451e-09
-1.72674e-09
8.77781e-10
3.98404e-10
1.0247e-09
-3.75901e-10
4.23779e-10
2.33061e-09
-1.04254e-10
2.874e-09
-6.36676e-10
8.61936e-10
-2.1094e-11
-3.20325e-09
5.94789e-10
-2.76806e-09
2.71711e-10
3.20228e-09
-3.79882e-10
2.62788e-09
-7.66621e-10
3.00299e-09
-7.47102e-10
1.39784e-10
-1.46584e-10
-2.56811e-09
4.20632e-10
-4.26201e-09
-3.66781e-10
3.89002e-09
-4.57404e-10
-6.77394e-10
1.37978e-09
-1.23855e-08
9.80382e-10
7.25585e-09
-1.64377e-09
2.33897e-08
-2.56254e-09
9.5693e-09
-1.01342e-09
-1.53852e-08
3.85411e-10
-1.67943e-08
6.46832e-10
-7.003e-09
4.8904e-10
-1.21471e-09
2.94131e-10
1.73389e-09
1.63304e-09
1.82854e-10
-8.0629e-11
1.92374e-10
-7.87278e-10
1.29108e-09
-9.00885e-10
9.74773e-10
1.32215e-10
-2.13762e-09
1.12529e-09
-2.72895e-09
1.02935e-09
4.94877e-10
1.32181e-09
-6.68368e-10
7.21544e-10
2.93084e-09
-3.38196e-11
3.6293e-09
-4.4512e-10
1.27325e-09
-7.38862e-10
-2.90951e-09
4.84105e-11
-3.55536e-09
8.96085e-10
2.35461e-09
3.03356e-12
3.52088e-09
-2.06628e-11
3.02675e-09
-1.4548e-10
2.64564e-10
3.96333e-10
-3.10992e-09
9.10006e-10
-4.77568e-09
-1.65158e-10
4.9652e-09
-3.77843e-10
-4.64728e-10
1.757e-09
-1.45203e-08
1.31742e-09
7.69541e-09
-1.73049e-09
2.64376e-08
-2.78053e-09
1.06193e-08
-1.04124e-09
-1.71245e-08
4.91105e-10
-1.83267e-08
7.25918e-10
-7.23781e-09
5.19964e-10
-1.00876e-09
3.00554e-10
1.95329e-09
1.74972e-09
1.83875e-10
-5.14653e-10
7.08056e-10
-9.23152e-10
1.68366e-09
-1.76183e-09
1.79592e-09
-2.04829e-09
-1.80813e-09
-8.71457e-10
-3.74317e-09
5.43618e-10
-9.14293e-10
2.96898e-09
-3.09375e-09
2.45715e-09
3.44273e-09
1.09495e-09
4.99147e-09
6.99096e-10
1.66912e-09
-5.52393e-10
-1.65802e-09
-5.2763e-10
-3.58018e-09
5.23269e-10
1.30377e-09
1.05866e-09
2.98546e-09
2.42466e-09
1.66076e-09
2.11388e-09
5.75313e-10
2.18498e-09
-3.18105e-09
2.29052e-09
-4.88118e-09
7.47238e-10
6.50845e-09
4.1056e-11
2.41444e-10
2.23466e-09
-1.67139e-08
1.75861e-09
8.17143e-09
-1.54512e-09
2.97414e-08
-2.72259e-09
1.17968e-08
-9.00545e-10
-1.89465e-08
6.52946e-10
-1.98802e-08
8.35317e-10
-7.42019e-09
5.79394e-10
-7.52841e-10
3.3129e-10
2.2014e-09
1.87933e-09
2.01687e-10
-2.66577e-10
6.99081e-11
-7.77106e-10
2.06856e-10
-8.18422e-10
2.04253e-10
-1.54074e-09
-2.16694e-10
-2.04533e-09
-1.81321e-09
8.56711e-10
-2.0652e-09
1.77728e-09
-2.35045e-09
1.54369e-09
9.68732e-10
-1.21582e-09
3.8713e-09
-1.04078e-09
4.74429e-10
-3.7062e-10
-1.0734e-09
5.34405e-10
-2.06156e-09
1.80868e-09
-4.06862e-11
3.41341e-09
3.55383e-10
5.22585e-09
-4.07702e-10
6.1882e-09
2.72578e-10
5.04929e-09
-9.63163e-10
5.1715e-09
-2.14019e-09
3.0428e-09
3.66309e-09
1.57795e-09
9.40738e-10
3.85997e-09
-8.74174e-09
3.21593e-09
5.89196e-09
-2.9853e-10
1.51825e-08
-1.76189e-09
4.82855e-09
-1.40424e-10
-5.34154e-09
1.29757e-09
-5.49368e-09
1.26888e-09
-1.93082e-09
8.45225e-10
-8.17301e-11
4.9362e-10
2.55302e-09
3.11579e-10
2.06137e-09
1.11589e-10
6.81788e-12
1.04757e-10
6.86868e-12
9.62392e-11
8.48506e-12
8.6229e-11
1.00464e-11
7.68114e-11
9.38149e-12
6.8874e-11
7.96975e-12
6.12677e-11
7.57623e-12
5.43964e-11
6.90014e-12
4.79601e-11
6.40835e-12
4.26472e-11
5.34021e-12
3.76098e-11
5.01126e-12
3.29971e-11
4.63625e-12
2.89421e-11
4.03385e-12
2.58364e-11
3.12379e-12
2.31186e-11
2.70208e-12
2.10619e-11
2.06952e-12
1.93888e-11
1.66191e-12
1.81514e-11
1.24649e-12
1.8227e-11
-8.37905e-14
1.7834e-11
3.99733e-13
1.89379e-11
-1.11038e-12
1.93346e-11
-3.90827e-13
2.00558e-11
-7.28081e-13
2.16043e-11
-1.54115e-12
1.6444e-11
5.15115e-12
2.1437e-11
-4.98342e-12
1.36456e-12
2.00625e-11
1.45948e-11
-1.32221e-11
-1.28803e-11
2.74684e-11
-1.28754e-11
1.60268e-10
1.99897e-11
1.4756e-10
1.96458e-11
1.32784e-10
2.31963e-11
1.18023e-10
2.48713e-11
1.05651e-10
2.16915e-11
9.39158e-11
1.97625e-11
8.31156e-11
1.83218e-11
7.35689e-11
1.64999e-11
6.46067e-11
1.53192e-11
5.69759e-11
1.30192e-11
5.01053e-11
1.18371e-11
4.33205e-11
1.14605e-11
3.79506e-11
9.36888e-12
3.38151e-11
7.28858e-12
3.00878e-11
6.4039e-12
2.70738e-11
5.10418e-12
2.49815e-11
3.73593e-12
2.32482e-11
2.99462e-12
2.30576e-11
9.29996e-14
2.24417e-11
1.02744e-12
2.39807e-11
-2.66198e-12
2.4178e-11
-5.75643e-13
2.54791e-11
-2.04429e-12
2.70393e-11
-3.08533e-12
2.10782e-11
1.10941e-11
2.67684e-11
-1.06566e-11
2.38775e-12
4.44273e-11
1.81566e-11
-2.89786e-11
-1.61766e-11
6.17898e-11
-2.90473e-11
1.71141e-10
3.56873e-11
1.51737e-10
3.91182e-11
1.35944e-10
3.89262e-11
1.22922e-10
3.79553e-11
1.10323e-10
3.42305e-11
9.79585e-11
3.21828e-11
8.65357e-11
2.96919e-11
7.67009e-11
2.63859e-11
6.75439e-11
2.44267e-11
5.87441e-11
2.18654e-11
5.08934e-11
1.96449e-11
4.49114e-11
1.74802e-11
3.94318e-11
1.48152e-11
3.4961e-11
1.17873e-11
3.09842e-11
1.03563e-11
2.77483e-11
8.3599e-12
2.57094e-11
5.75734e-12
2.39087e-11
4.80955e-12
2.34442e-11
5.44217e-13
2.28553e-11
1.6278e-12
2.46107e-11
-4.42961e-12
2.47742e-11
-7.26881e-13
2.62959e-11
-3.58084e-12
2.78402e-11
-4.61388e-12
2.17838e-11
1.71327e-11
2.75221e-11
-1.63785e-11
2.52231e-12
6.94119e-11
1.85033e-11
-4.49477e-11
-1.76642e-11
9.79462e-11
-4.67069e-11
1.70512e-10
5.14115e-11
1.53689e-10
5.6008e-11
1.38335e-10
5.42191e-11
1.24464e-10
5.18864e-11
1.11073e-10
4.75637e-11
9.85088e-11
4.48004e-11
8.69278e-11
4.12221e-11
7.67665e-11
3.65965e-11
6.73873e-11
3.37583e-11
5.87963e-11
3.05008e-11
5.1217e-11
2.71831e-11
4.5011e-11
2.37222e-11
3.96175e-11
2.01769e-11
3.51291e-11
1.63023e-11
3.10621e-11
1.44002e-11
2.78545e-11
1.15863e-11
2.56978e-11
7.89747e-12
2.38698e-11
6.65114e-12
2.35711e-11
8.30218e-13
2.29247e-11
2.28522e-12
2.46504e-11
-6.1672e-12
2.48144e-11
-8.7888e-13
2.64343e-11
-5.21526e-12
2.78631e-11
-6.02732e-12
2.21902e-11
2.27885e-11
2.78784e-11
-2.20509e-11
2.54413e-12
9.47316e-11
1.90792e-11
-6.14713e-11
-1.90932e-11
1.36108e-10
-6.57957e-11
1.70033e-10
6.70485e-11
1.54187e-10
7.1919e-11
1.39039e-10
6.93082e-11
1.2477e-10
6.62125e-11
1.1102e-10
6.12582e-11
9.84145e-11
5.74574e-11
8.68298e-11
5.2758e-11
7.64686e-11
4.70051e-11
6.70525e-11
4.31288e-11
5.86816e-11
3.89142e-11
5.12007e-11
3.46248e-11
4.49847e-11
2.99725e-11
3.96948e-11
2.54366e-11
3.49637e-11
2.10586e-11
3.09272e-11
1.84147e-11
2.77763e-11
1.47551e-11
2.55692e-11
1.00887e-11
2.37544e-11
8.47886e-12
2.35241e-11
1.04841e-12
2.28566e-11
2.96325e-12
2.46281e-11
-7.95018e-12
2.47905e-11
-1.02951e-12
2.66125e-11
-7.0515e-12
2.79327e-11
-7.33247e-12
2.26656e-11
2.80389e-11
2.82642e-11
-2.76341e-11
2.56395e-12
1.20418e-10
1.96553e-11
-7.85515e-11
-2.12582e-11
1.77011e-10
-8.70495e-11
1.69949e-10
8.27603e-11
1.54291e-10
8.76399e-11
1.39041e-10
8.45016e-11
1.24637e-10
8.06714e-11
1.10736e-10
7.51069e-11
9.81722e-11
7.00699e-11
8.66259e-11
6.42572e-11
7.60781e-11
5.75986e-11
6.66726e-11
5.24904e-11
5.84544e-11
4.71732e-11
5.11166e-11
4.1925e-11
4.4975e-11
3.61469e-11
3.95998e-11
3.0783e-11
3.46897e-11
2.59928e-11
3.07232e-11
2.23603e-11
2.76219e-11
1.78734e-11
2.53963e-11
1.22992e-11
2.3619e-11
1.02685e-11
2.34186e-11
1.2372e-12
2.27275e-11
3.66451e-12
2.45865e-11
-9.82031e-12
2.47386e-11
-1.17016e-12
2.68616e-11
-9.18845e-12
2.80901e-11
-8.54631e-12
2.32957e-11
3.28171e-11
2.87571e-11
-3.30806e-11
2.62378e-12
1.46537e-10
2.03281e-11
-9.62449e-11
-2.4196e-11
2.21525e-10
-1.11241e-10
1.70009e-10
9.86345e-11
1.54282e-10
1.03428e-10
1.38793e-10
9.99358e-11
1.24288e-10
9.52304e-11
1.10352e-10
8.89916e-11
9.78575e-11
8.26116e-11
8.63762e-11
7.56931e-11
7.56922e-11
6.83265e-11
6.63089e-11
6.18314e-11
5.81651e-11
5.53561e-11
5.09974e-11
4.90567e-11
4.48472e-11
4.23283e-11
3.93621e-11
3.62406e-11
3.44247e-11
3.0953e-11
3.0526e-11
2.6239e-11
2.74376e-11
2.09779e-11
2.51943e-11
1.45282e-11
2.34469e-11
1.20276e-11
2.32741e-11
1.39887e-12
2.25643e-11
4.38414e-12
2.45357e-11
-1.18025e-11
2.4667e-11
-1.29034e-12
2.71709e-11
-1.17059e-11
2.83159e-11
-9.67693e-12
2.41063e-11
3.70108e-11
2.93809e-11
-3.83405e-11
2.71634e-12
1.73189e-10
2.11198e-11
-1.14638e-10
-2.79055e-11
2.7054e-10
-1.39142e-10
1.70073e-10
1.14747e-10
1.5419e-10
1.19371e-10
1.3845e-10
1.15623e-10
1.23845e-10
1.09887e-10
1.09921e-10
1.02866e-10
9.74372e-11
9.51413e-11
8.59531e-11
8.71335e-11
7.54643e-11
7.88576e-11
6.603e-11
7.12251e-11
5.7837e-11
6.35866e-11
5.08776e-11
5.59817e-11
4.46082e-11
4.86276e-11
3.90156e-11
4.1807e-11
3.41748e-11
3.58157e-11
3.03266e-11
3.00681e-11
2.72383e-11
2.40817e-11
2.4981e-11
1.67717e-11
2.32343e-11
1.37856e-11
2.30884e-11
1.53404e-12
2.23729e-11
5.10907e-12
2.44829e-11
-1.39228e-11
2.45864e-11
-1.38301e-12
2.75335e-11
-1.46663e-11
2.85798e-11
-1.07092e-11
2.50954e-11
4.04796e-11
3.01306e-11
-4.33614e-11
2.80023e-12
2.00506e-10
2.20059e-11
-1.33832e-10
-3.23597e-11
3.24895e-10
-1.71497e-10
1.70074e-10
1.31161e-10
1.54015e-10
1.35488e-10
1.38077e-10
1.3151e-10
1.23381e-10
1.24632e-10
1.09472e-10
1.16727e-10
9.69756e-11
1.07682e-10
8.55106e-11
9.85563e-11
7.51468e-11
8.9262e-11
6.57461e-11
8.05867e-11
5.7575e-11
7.17936e-11
5.05208e-11
6.3003e-11
4.42272e-11
5.49497e-11
3.8638e-11
4.73712e-11
3.38998e-11
4.05746e-11
3.0075e-11
3.38748e-11
2.69938e-11
2.71774e-11
2.47373e-11
1.90152e-11
2.2979e-11
1.55545e-11
2.28635e-11
1.63931e-12
2.21497e-11
5.83196e-12
2.44233e-11
-1.62066e-11
2.4497e-11
-1.44609e-12
2.79434e-11
-1.81257e-11
2.88679e-11
-1.16199e-11
2.62498e-11
4.30826e-11
3.09778e-11
-4.80753e-11
2.98136e-12
2.28489e-10
2.30624e-11
-1.53903e-10
-3.78598e-11
3.85807e-10
-2.09352e-10
1.70021e-10
1.47936e-10
1.53771e-10
1.51794e-10
1.37681e-10
1.4755e-10
1.22896e-10
1.39465e-10
1.09021e-10
1.30557e-10
9.65049e-11
1.2024e-10
8.50316e-11
1.09989e-10
7.47216e-11
9.9611e-11
6.53894e-11
8.98815e-11
5.7264e-11
7.99533e-11
5.01221e-11
7.01136e-11
4.38193e-11
6.12794e-11
3.82342e-11
5.29325e-11
3.35834e-11
4.5245e-11