/*--------------------------------*- C++ -*----------------------------------*\
| =========                 |                                                 |
| \\      /  F ield         | OpenFOAM: The Open Source CFD Toolbox           |
|  \\    /   O peration     | Version:  2.4.0                                 |
|   \\  /    A nd           | Web:      www.OpenFOAM.org                      |
|    \\/     M anipulation  |                                                 |
\*---------------------------------------------------------------------------*/
FoamFile
{
    version     2.0;
    format      ascii;
    class       surfaceScalarField;
    location    "0.111";
    object      phiAlpha;
}
// * * * * * * * * * * * * * * * * * * * * * * * * * * * * * * * * * * * * * //

dimensions      [0 3 -1 0 0 0 0];

internalField   nonuniform List<scalar> 
119500
(
-1.74084e-13
1.74084e-13
-4.39303e-13
2.65209e-13
-7.39509e-13
3.00182e-13
-1.04459e-12
3.05039e-13
-1.34492e-12
3.00272e-13
-1.63974e-12
2.94753e-13
-1.92857e-12
2.88758e-13
-2.21204e-12
2.83389e-13
-2.4903e-12
2.78181e-13
-2.76388e-12
2.735e-13
-3.03348e-12
2.69507e-13
-3.2998e-12
2.66216e-13
-3.56313e-12
2.63222e-13
-3.82316e-12
2.59917e-13
-4.07911e-12
2.55822e-13
-4.32957e-12
2.50321e-13
-4.57286e-12
2.43122e-13
-4.80684e-12
2.338e-13
-5.02903e-12
2.21997e-13
-5.236e-12
2.06786e-13
-5.42368e-12
1.87527e-13
-5.58803e-12
1.6422e-13
-5.72391e-12
1.35782e-13
-5.82639e-12
1.02404e-13
-5.89e-12
6.35381e-14
-5.90958e-12
1.94942e-14
-5.88046e-12
-2.92116e-14
-5.79694e-12
-8.3641e-14
-5.65566e-12
-1.41427e-13
-5.45405e-12
-2.01772e-13
-5.19013e-12
-2.64098e-13
-4.86262e-12
-3.27677e-13
-4.47107e-12
-3.91711e-13
-4.0165e-12
-4.54707e-13
-3.50028e-12
-5.16342e-13
-2.92469e-12
-5.75724e-13
-2.29284e-12
-6.3201e-13
-1.60906e-12
-6.83982e-13
-8.78501e-13
-7.30822e-13
-1.06995e-13
-7.71821e-13
6.99034e-13
-8.06388e-13
1.53354e-12
-8.34894e-13
2.38954e-12
-8.56403e-13
3.26072e-12
-8.71596e-13
4.1394e-12
-8.79082e-13
5.01717e-12
-8.78181e-13
5.88766e-12
-8.70911e-13
6.74483e-12
-8.57613e-13
7.58222e-12
-8.37856e-13
8.39244e-12
-8.10708e-13
9.17107e-12
-7.79102e-13
9.91396e-12
-7.43338e-13
1.06178e-11
-7.04194e-13
1.12796e-11
-6.62138e-13
1.18964e-11
-6.17043e-13
1.2468e-11
-5.71781e-13
1.29931e-11
-5.25286e-13
1.34717e-11
-4.7863e-13
1.39034e-11
-4.31756e-13
1.42899e-11
-3.8645e-13
1.46318e-11
-3.41853e-13
1.49306e-11
-2.98728e-13
1.5188e-11
-2.57301e-13
1.54063e-11
-2.18148e-13
1.55866e-11
-1.80183e-13
1.57304e-11
-1.4384e-13
1.58387e-11
-1.08284e-13
1.59117e-11
-7.30553e-14
1.59495e-11
-3.78219e-14
1.59521e-11
-2.65218e-15
1.59168e-11
3.52133e-14
1.58403e-11
7.63934e-14
1.57204e-11
1.19745e-13
1.5554e-11
1.66285e-13
1.53372e-11
2.16649e-13
1.50652e-11
2.71879e-13
1.47351e-11
3.30062e-13
1.43439e-11
3.91291e-13
1.38882e-11
4.55817e-13
1.33654e-11
5.22914e-13
1.27742e-11
5.91419e-13
1.21135e-11
6.6094e-13
1.1382e-11
7.31628e-13
1.058e-11
8.02159e-13
9.70958e-12
8.70437e-13
8.77268e-12
9.36935e-13
7.77089e-12
1.00184e-12
6.70719e-12
1.06377e-12
5.5852e-12
1.12206e-12
4.41035e-12
1.17491e-12
3.1886e-12
1.22179e-12
1.92678e-12
1.26183e-12
6.34198e-13
1.29258e-12
-6.83332e-13
1.31757e-12
-1.9966e-12
1.31337e-12
-3.35656e-12
1.36013e-12
-4.65426e-12
1.29793e-12
-5.99963e-12
1.34562e-12
-7.18013e-12
1.18074e-12
1.0578e-12
-8.23772e-12
-3.39906e-13
5.13952e-13
-8.78329e-13
8.03596e-13
-1.48009e-12
9.01879e-13
-2.09748e-12
9.2234e-13
-2.70834e-12
9.11022e-13
-3.31054e-12
8.96845e-13
-3.90385e-12
8.81941e-13
-4.48859e-12
8.68008e-13
-5.06497e-12
8.54433e-13
-5.63345e-12
8.41844e-13
-6.1948e-12
8.30709e-13
-6.74986e-12
8.21119e-13
-7.29904e-12
8.12231e-13
-7.84239e-12
8.03082e-13
-8.37953e-12
7.92737e-13
-8.90914e-12
7.79681e-13
-9.42924e-12
7.62944e-13
-9.93751e-12
7.41778e-13
-1.04308e-11
7.15018e-13
-1.09049e-11
6.80674e-13
-1.13553e-11
6.37664e-13
-1.17762e-11
5.84985e-13
-1.21609e-11
5.20408e-13
-1.25023e-11
4.43639e-13
-1.2793e-11
3.54106e-13
-1.30247e-11
2.51042e-13
-1.31901e-11
1.35952e-13
-1.32821e-11
8.11018e-15
-1.32934e-11
-1.30498e-13
-1.32193e-11
-2.76132e-13
-1.30546e-11
-4.29132e-13
-1.27956e-11
-5.8694e-13
-1.2439e-11
-7.48487e-13
-1.1983e-11
-9.10973e-13
-1.14264e-11
-1.07319e-12
-1.07692e-11
-1.23329e-12
-1.00127e-11
-1.38885e-12
-9.16069e-12
-1.53651e-12
-8.21794e-12
-1.67416e-12
-7.19043e-12
-1.79999e-12
-6.0851e-12
-1.91242e-12
-4.90868e-12
-2.01204e-12
-3.66923e-12
-2.09659e-12
-2.37519e-12
-2.16637e-12
-1.03553e-12
-2.21949e-12
3.37104e-13
-2.25158e-12
1.73595e-12
-2.27055e-12
3.1509e-12
-2.27337e-12
4.56872e-12
-2.25649e-12
5.98624e-12
-2.22902e-12
7.3887e-12
-2.1823e-12
8.7702e-12
-2.12547e-12
1.01259e-11
-2.06043e-12
1.14477e-11
-1.9843e-12
1.27283e-11
-1.89801e-12
1.39651e-11
-1.80875e-12
1.51529e-11
-1.71326e-12
1.62881e-11
-1.61391e-12
1.73676e-11
-1.51132e-12
1.839e-11
-1.40876e-12
1.93526e-11
-1.30437e-12
2.02549e-11
-1.20086e-12
2.1096e-11
-1.09832e-12
2.18762e-11
-9.9837e-13
2.25957e-11
-8.99638e-13
2.32552e-11
-8.03493e-13
2.38542e-11
-7.07356e-13
2.4392e-11
-6.11044e-13
2.48677e-11
-5.13545e-13
2.52784e-11
-4.13487e-13
2.56209e-11
-3.07479e-13
2.58901e-11
-1.92928e-13
2.60802e-11
-7.05349e-14
2.61835e-11
6.2822e-14
2.61948e-11
2.0526e-13
2.6107e-11
3.59692e-13
2.59124e-11
5.24735e-13
2.56051e-11
6.9888e-13
2.51794e-11
8.8182e-13
2.46287e-11
1.07395e-12
2.39467e-11
1.27369e-12
2.31285e-11
1.47937e-12
2.21687e-11
1.69161e-12
2.10619e-11
1.90904e-12
1.98053e-11
2.12715e-12
1.83975e-11
2.34482e-12
1.68364e-11
2.563e-12
1.51224e-11
2.77793e-12
1.32584e-11
2.98614e-12
1.12478e-11
3.18554e-12
9.09749e-12
3.37216e-12
6.81662e-12
3.54279e-12
4.41607e-12
3.69329e-12
1.90334e-12
3.83056e-12
-6.75343e-13
3.89241e-12
-3.3226e-12
4.0078e-12
-5.99355e-12
3.9693e-12
-8.6463e-12
3.99875e-12
-1.09709e-11
3.50571e-12
2.60828e-12
-1.2521e-11
-4.0381e-13
9.17738e-13
-1.05409e-12
1.45388e-12
-1.7845e-12
1.63228e-12
-2.53374e-12
1.67155e-12
-3.27886e-12
1.65612e-12
-4.01435e-12
1.6323e-12
-4.74053e-12
1.60811e-12
-5.4577e-12
1.58516e-12
-6.16621e-12
1.56295e-12
-6.8665e-12
1.54215e-12
-7.55933e-12
1.52354e-12
-8.24557e-12
1.50737e-12
-8.92575e-12
1.49241e-12
-9.60011e-12
1.47742e-12
-1.02685e-11
1.46105e-12
-1.09298e-11
1.4409e-12
-1.15822e-11
1.41528e-12
-1.22234e-11
1.3829e-12
-1.28499e-11
1.34138e-12
-1.34577e-11
1.28832e-12
-1.40421e-11
1.22195e-12
-1.45967e-11
1.13952e-12
-1.51151e-11
1.03877e-12
-1.55898e-11
9.18196e-13
-1.60126e-11
7.76792e-13
-1.63755e-11
6.13839e-13
-1.66705e-11
4.30775e-13
-1.689e-11
2.2739e-13
-1.70273e-11
6.56231e-15
-1.70752e-11
-2.28459e-13
-1.70283e-11
-4.76277e-13
-1.68821e-11
-7.33352e-13
-1.66326e-11
-9.98146e-13
-1.6277e-11
-1.26684e-12
-1.58129e-11
-1.53755e-12
-1.52397e-11
-1.80681e-12
-1.45582e-11
-2.07076e-12
-1.37705e-11
-2.32463e-12
-1.28809e-11
-2.56426e-12
-1.18944e-11
-2.78714e-12
-1.08169e-11
-2.99053e-12
-9.65467e-12
-3.17484e-12
-8.41477e-12
-3.33709e-12
-7.10645e-12
-3.47527e-12
-5.73715e-12
-3.58936e-12
-4.31722e-12
-3.67207e-12
-2.85797e-12
-3.73036e-12
-1.36799e-12
-3.76392e-12
1.41652e-13
-3.76669e-12
1.65997e-12
-3.74786e-12
3.18909e-12
-3.71189e-12
4.7096e-12
-3.64638e-12
6.21593e-12
-3.56712e-12
7.70294e-12
-3.47161e-12
9.16231e-12
-3.35766e-12
1.0589e-11
-3.23566e-12
1.19773e-11
-3.10185e-12
1.33231e-11
-2.95997e-12
1.46214e-11
-2.80987e-12
1.58708e-11
-2.65831e-12
1.70671e-11
-2.50091e-12
1.82088e-11
-2.3427e-12
1.9294e-11
-2.18364e-12
2.03204e-11
-2.02502e-12
2.12904e-11
-1.86979e-12
2.22e-11
-1.7132e-12
2.30486e-11
-1.55614e-12
2.38331e-11
-1.39554e-12
2.45532e-11
-1.23371e-12
2.52027e-11
-1.06297e-12
2.57773e-11
-8.82009e-13
2.62703e-11
-6.85945e-13
2.66739e-11
-4.74053e-13
2.69796e-11
-2.42913e-13
2.71788e-11
6.10836e-15
2.72635e-11
2.75143e-13
2.72242e-11
5.64228e-13
2.70511e-11
8.7218e-13
2.67366e-11
1.19652e-12
2.62717e-11
1.53901e-12
2.56474e-11
1.89817e-12
2.48548e-11
2.27204e-12
2.38874e-11
2.65912e-12
2.27361e-11
3.06037e-12
2.13936e-11
3.46969e-12
1.98548e-11
3.88378e-12
1.81164e-11
4.30144e-12
1.61768e-11
4.71772e-12
1.40365e-11
5.12649e-12
1.16984e-11
5.52379e-12
9.16814e-12
5.90263e-12
6.45416e-12
6.25701e-12
3.56895e-12
6.5788e-12
5.24584e-13
6.87526e-12
-2.64199e-12
7.05932e-12
-5.91588e-12
7.28199e-12
-9.25061e-12
7.30429e-12
-1.25441e-11
7.29243e-12
-1.54211e-11
6.38298e-12
4.41692e-12
-1.72295e-11
-4.38324e-13
1.35607e-12
-1.12536e-12
2.14099e-12
-1.90089e-12
2.40787e-12
-2.6986e-12
2.46932e-12
-3.49409e-12
2.45167e-12
-4.28064e-12
2.41894e-12
-5.05804e-12
2.38561e-12
-5.82643e-12
2.35369e-12
-6.58638e-12
2.32305e-12
-7.33851e-12
2.29445e-12
-8.08363e-12
2.26883e-12
-8.82254e-12
2.24646e-12
-9.55589e-12
2.22594e-12
-1.02839e-11
2.20561e-12
-1.10063e-11
2.1836e-12
-1.17222e-11
2.15685e-12
-1.24301e-11
2.12328e-12
-1.31278e-11
2.0806e-12
-1.38117e-11
2.02533e-12
-1.44781e-11
1.95474e-12
-1.5122e-11
1.86581e-12
-1.5737e-11
1.75444e-12
-1.63166e-11
1.61832e-12
-1.68534e-11
1.45494e-12
-1.73389e-11
1.26221e-12
-1.77658e-11
1.04061e-12
-1.81254e-11
7.90223e-13
-1.84102e-11
5.12029e-13
-1.86133e-11
2.09462e-13
-1.8727e-11
-1.1497e-13
-1.87459e-11
-4.57624e-13
-1.86644e-11
-8.15024e-13
-1.84787e-11
-1.18406e-12
-1.81856e-11
-1.56018e-12
-1.77829e-11
-1.94049e-12
-1.72701e-11
-2.31996e-12
-1.66479e-11
-2.69343e-12
-1.59184e-11
-3.05453e-12
-1.50843e-11
-3.39887e-12
-1.41512e-11
-3.7208e-12
-1.31231e-11
-4.01916e-12
-1.20073e-11
-4.2912e-12
-1.08105e-11
-4.53435e-12
-9.53966e-12
-4.74655e-12
-8.20572e-12
-4.92371e-12
-6.8157e-12
-5.06247e-12
-5.38038e-12
-5.16604e-12
-3.91068e-12
-5.23398e-12
-2.41332e-12
-5.26437e-12
-8.98216e-13
-5.26327e-12
6.20805e-13
-5.23119e-12
2.14916e-12
-5.175e-12
3.66557e-12
-5.0838e-12
5.16781e-12
-4.97413e-12
6.64642e-12
-4.83659e-12
8.09819e-12
-4.68782e-12
9.51567e-12
-4.51975e-12
1.08949e-11
-4.33971e-12
1.22345e-11
-4.14992e-12
1.3529e-11
-3.9533e-12
1.47755e-11
-3.74782e-12
1.59728e-11
-3.5405e-12
1.71195e-11
-3.33075e-12
1.82141e-11
-3.11992e-12
1.92544e-11
-2.9103e-12
2.02397e-11
-2.69875e-12
2.11669e-11
-2.48341e-12
2.20331e-11
-2.26175e-12
2.28345e-11
-2.03503e-12
2.35668e-11
-1.79514e-12
2.4224e-11
-1.53898e-12
2.47987e-11
-1.26047e-12
2.52836e-11
-9.58749e-13
2.56693e-11
-6.2839e-13
2.59455e-11
-2.6989e-13
2.61023e-11
1.18524e-13
2.61293e-11
5.3739e-13
2.60164e-11
9.85193e-13
2.57515e-11
1.46148e-12
2.53239e-11
1.96672e-12
2.47242e-11
2.49791e-12
2.39409e-11
3.0554e-12
2.29646e-11
3.6354e-12
2.17878e-11
4.2373e-12
2.04018e-11
4.8558e-12
1.8799e-11
5.48662e-12
1.69745e-11
6.12609e-12
1.49249e-11
6.76742e-12
1.26488e-11
7.40287e-12
1.01489e-11
8.02396e-12
7.43016e-12
8.62166e-12
4.50152e-12
9.18602e-12
1.37676e-12
9.70393e-12
-1.92467e-12
1.0177e-11
-5.39044e-12
1.05253e-11
-8.97869e-12
1.08704e-11
-1.26366e-11
1.09623e-11
-1.62497e-11
1.09056e-11
-1.94799e-11
9.61329e-12
6.52952e-12
-2.15923e-11
-4.57968e-13
1.81407e-12
-1.1612e-12
2.84438e-12
-1.9491e-12
3.1959e-12
-2.7618e-12
3.28216e-12
-3.57367e-12
3.2637e-12
-4.37755e-12
3.22302e-12
-5.17251e-12
3.18081e-12
-5.95859e-12
3.14005e-12
-6.73638e-12
3.10115e-12
-7.50666e-12
3.06505e-12
-8.27023e-12
3.03276e-12
-9.02796e-12
3.00454e-12
-9.78054e-12
2.97887e-12
-1.05283e-11
2.95369e-12
-1.12709e-11
2.92656e-12
-1.20079e-11
2.89406e-12
-1.27378e-11
2.85342e-12
-1.34586e-11
2.80147e-12
-1.41669e-11
2.7338e-12
-1.48587e-11
2.64655e-12
-1.55287e-11
2.53588e-12
-1.61709e-11
2.39667e-12
-1.67783e-11
2.22562e-12
-1.73435e-11
2.02007e-12
-1.78586e-11
1.77722e-12
-1.83153e-11
1.49717e-12
-1.87058e-11
1.18058e-12
-1.90221e-11
8.28132e-13
-1.92565e-11
4.43686e-13
-1.94022e-11
3.05031e-14
-1.9452e-11
-4.0799e-13
-1.94014e-11
-8.65841e-13
-1.92452e-11
-1.34053e-12
-1.89808e-11
-1.82487e-12
-1.86058e-11
-2.31582e-12
-1.81205e-11
-2.80567e-12
-1.75247e-11
-3.28964e-12
-1.68218e-11
-3.75789e-12
-1.60132e-11
-4.20798e-12
-1.51042e-11
-4.63026e-12
-1.40995e-11
-5.02422e-12
-1.30048e-11
-5.38627e-12
-1.18286e-11
-5.71089e-12
-1.05777e-11
-5.99783e-12
-9.26085e-12
-6.24078e-12
-7.88679e-12
-6.43676e-12
-6.46565e-12
-6.58738e-12
-5.00721e-12
-6.6926e-12
-3.51904e-12
-6.7527e-12
-2.01078e-12
-6.77169e-12
-4.91623e-13
-6.7505e-12
1.02681e-12
-6.69361e-12
2.54174e-12
-6.59897e-12
4.03809e-12
-6.4708e-12
5.51938e-12
-6.31829e-12
6.97097e-12
-6.13991e-12
8.38829e-12
-5.93766e-12
9.77091e-12
-5.72298e-12
1.11107e-11
-5.4904e-12
1.24063e-11
-5.24959e-12
1.366e-11
-5.00219e-12
1.48659e-11
-4.74704e-12
1.60238e-11
-4.48918e-12
1.71325e-11
-4.22906e-12
1.81897e-11
-3.96778e-12
1.91934e-11
-3.70262e-12
2.01404e-11
-3.43049e-12
2.10307e-11
-3.152e-12
2.18568e-11
-2.86095e-12
2.26139e-11
-2.55212e-12
2.32959e-11
-2.22065e-12
2.38975e-11
-1.86185e-12
2.44084e-11
-1.4694e-12
2.48215e-11
-1.04117e-12
2.51248e-11
-5.72943e-13
2.53079e-11
-6.43764e-14
2.53596e-11
4.85774e-13
2.52675e-11
1.07732e-12
2.50201e-11
1.70886e-12
2.46058e-11
2.38097e-12
2.40118e-11
3.09198e-12
2.3228e-11
3.83922e-12
2.22432e-11
4.62033e-12
2.10486e-11
5.43204e-12
1.9636e-11
6.26857e-12
1.79972e-11
7.1255e-12
1.61266e-11
7.99681e-12
1.40203e-11
8.87394e-12
1.16768e-11
9.74662e-12
9.09715e-12
1.0604e-11
6.28517e-12
1.1434e-11
3.24912e-12
1.22224e-11
1.62873e-15
1.29517e-11
-3.43605e-12
1.36149e-11
-7.05051e-12
1.41399e-11
-1.07952e-11
1.46152e-11
-1.46154e-11
1.47825e-11
-1.83713e-11
1.46616e-11
-2.17296e-11
1.29718e-11
8.59096e-12
-2.37909e-11
-4.68718e-13
2.28288e-12
-1.18163e-12
3.5575e-12
-1.97477e-12
3.98925e-12
-2.79103e-12
4.09865e-12
-3.60721e-12
4.08015e-12
-4.41624e-12
4.03235e-12
-5.2165e-12
3.98143e-12
-6.00783e-12
3.93177e-12
-6.79085e-12
3.8846e-12
-7.56647e-12
3.84113e-12
-8.3356e-12
3.80235e-12
-9.09918e-12
3.76858e-12
-9.85804e-12
3.73819e-12
-1.06125e-11
3.70861e-12
-1.13625e-11
3.67694e-12
-1.21077e-11
3.63965e-12
-1.28472e-11
3.59315e-12
-1.35784e-11
3.53297e-12
-1.42986e-11
3.45416e-12
-1.50034e-11
3.3515e-12
-1.56872e-11
3.21972e-12
-1.63442e-11
3.05366e-12
-1.69672e-11
2.84856e-12
-1.75484e-11
2.60111e-12
-1.80803e-11
2.30902e-12
-1.85543e-11
1.97092e-12
-1.8962e-11
1.58813e-12
-1.92959e-11
1.16178e-12
-1.95472e-11
6.94819e-13
-1.97094e-11
1.92494e-13
-1.97751e-11
-3.42514e-13
-1.9739e-11
-9.0229e-13
-1.95962e-11
-1.48359e-12
-1.93436e-11
-2.07786e-12
-1.89792e-11
-2.68057e-12
-1.8503e-11
-3.28222e-12
-1.7916e-11
-3.8771e-12
-1.72197e-11
-4.45457e-12
-1.64179e-11
-5.0102e-12
-1.55137e-11
-5.53477e-12
-1.45126e-11
-6.02562e-12
-1.34213e-11
-6.47782e-12
-1.22463e-11
-6.88605e-12
-1.0996e-11
-7.2483e-12
-9.67967e-12
-7.55725e-12
-8.30417e-12
-7.81237e-12
-6.87965e-12
-8.01198e-12
-5.41647e-12
-8.15586e-12
-3.92279e-12
-8.24646e-12
-2.40852e-12
-8.28605e-12
-8.83268e-13
-8.27586e-12
6.42789e-13
-8.21984e-12
2.16186e-12
-8.1183e-12
3.66913e-12
-7.97843e-12
5.14974e-12
-7.79937e-12
6.60572e-12
-7.59645e-12
8.02644e-12
-7.35902e-12
9.40939e-12
-7.10665e-12
1.07527e-11
-6.83445e-12
1.20521e-11
-6.54972e-12
1.33059e-11
-6.25681e-12
1.45149e-11
-5.95668e-12
1.5677e-11
-5.65177e-12
1.67909e-11
-5.34345e-12
1.78548e-11
-5.03195e-12
1.88668e-11
-4.71479e-12
1.98241e-11
-4.38786e-12
2.07233e-11
-4.05119e-12
2.15602e-11
-3.69774e-12
2.23302e-11
-3.32198e-12
2.30258e-11
-2.91607e-12
2.36411e-11
-2.47698e-12
2.41672e-11
-1.99526e-12
2.45945e-11
-1.4682e-12
2.49135e-11
-8.91709e-13
2.51123e-11
-2.63114e-13
2.5179e-11
4.19103e-13
2.51017e-11
1.15458e-12
2.48668e-11
1.94377e-12
2.44623e-11
2.78548e-12
2.38756e-11
3.67872e-12
2.3095e-11
4.61999e-12
2.21094e-11
5.60611e-12
2.09103e-11
6.6313e-12
1.94876e-11
7.69144e-12
1.78337e-11
8.77957e-12
1.59429e-11
9.88777e-12
1.38106e-11
1.10064e-11
1.14352e-11
1.21223e-11
8.81679e-12
1.32227e-11
5.9586e-12
1.42925e-11
2.8677e-12
1.53136e-11
-4.43885e-13
1.62634e-11
-3.95553e-12
1.71265e-11
-7.64872e-12
1.7833e-11
-1.14802e-11
1.84466e-11
-1.53917e-11
1.8694e-11
-1.92277e-11
1.84976e-11
-2.26351e-11
1.63794e-11
1.06574e-11
-2.47013e-11
-4.75395e-13
2.7584e-12
-1.19569e-12
4.27807e-12
-1.99271e-12
4.78655e-12
-2.80986e-12
4.9161e-12
-3.62701e-12
4.89764e-12
-4.43737e-12
4.84309e-12
-5.23894e-12
4.78342e-12
-6.0314e-12
4.7247e-12
-6.81533e-12
4.66902e-12
-7.59185e-12
4.61815e-12
-8.362e-12
4.57301e-12
-9.12674e-12
4.53383e-12
-9.88711e-12
4.49906e-12
-1.06437e-11
4.46571e-12
-1.13966e-11
4.43028e-12
-1.21459e-11
4.38928e-12
-1.28909e-11
4.33846e-12
-1.36291e-11
4.27138e-12
-1.43572e-11
4.1825e-12
-1.50715e-11
4.06592e-12
-1.57659e-11
3.91416e-12
-1.64343e-11
3.72198e-12
-1.70698e-11
3.48402e-12
-1.76642e-11
3.19532e-12
-1.82096e-11
2.85423e-12
-1.86976e-11
2.45861e-12
-1.9119e-11
2.00926e-12
-1.94659e-11
1.50849e-12
-1.973e-11
9.58613e-13
-1.99033e-11
3.65531e-13
-1.99796e-11
-2.66549e-13
-1.99519e-11
-9.30296e-13
-1.98164e-11
-1.61954e-12
-1.95688e-11
-2.32582e-12
-1.92083e-11
-3.04144e-12
-1.87335e-11
-3.75745e-12
-1.8147e-11
-4.46391e-12
-1.74491e-11
-5.15277e-12
-1.6644e-11
-5.8155e-12
-1.5736e-11
-6.44298e-12
-1.47294e-11
-7.03235e-12
-1.36313e-11
-7.57606e-12
-1.24496e-11
-8.06775e-12
-1.11911e-11
-8.50687e-12
-9.86445e-12
-8.884e-12
-8.47836e-12
-9.19853e-12
-7.04198e-12
-9.44843e-12
-5.5653e-12
-9.63261e-12
-4.05868e-12
-9.75315e-12
-2.53185e-12
-9.81298e-12
-9.94459e-13
-9.8134e-12
5.43832e-13
-9.75834e-12
2.07409e-12
-9.64885e-12
3.58745e-12
-9.49216e-12
5.07997e-12
-9.29236e-12
6.54062e-12
-9.05762e-12
7.97063e-12
-8.78963e-12
9.36009e-12
-8.49674e-12
1.0708e-11
-8.18306e-12
1.20127e-11
-7.85502e-12
1.32703e-11
-7.51508e-12
1.44836e-11
-7.17048e-12
1.56494e-11
-6.81803e-12
1.67672e-11
-6.46169e-12
1.78355e-11
-6.10044e-12
1.88524e-11
-5.73192e-12
1.98171e-11
-5.35276e-12
2.07249e-11
-4.95911e-12
2.15719e-11
-4.54481e-12
2.23522e-11
-4.10231e-12
2.30608e-11
-3.62464e-12
2.3689e-11
-3.10518e-12
2.42288e-11
-2.53497e-12
2.46718e-11
-1.91107e-12
2.50065e-11
-1.22637e-12
2.52215e-11
-4.78082e-13
2.53043e-11
3.36259e-13
2.52427e-11
1.21621e-12
2.50225e-11
2.16393e-12
2.46317e-11
3.17637e-12
2.4057e-11
4.2535e-12
2.32864e-11
5.39081e-12
2.23092e-11
6.58352e-12
2.11147e-11
7.82605e-12
1.96934e-11
9.11292e-12
1.80374e-11
1.04357e-11
1.61402e-11
1.17851e-11
1.39971e-11
1.31496e-11
1.1606e-11
1.45136e-11
8.96707e-12
1.58617e-11
6.08326e-12
1.71764e-11
2.96032e-12
1.84365e-11
-3.91884e-13
1.96156e-11
-3.95224e-12
2.06868e-11
-7.70096e-12
2.15816e-11
-1.15974e-11
2.2343e-11
-1.55816e-11
2.26784e-11
-1.94927e-11
2.24088e-11
-2.29579e-11
1.98449e-11
1.27688e-11
-2.50692e-11
-4.80712e-13
3.23927e-12
-1.20721e-12
5.00489e-12
-2.0079e-12
5.58755e-12
-2.82608e-12
5.73462e-12
-3.64385e-12
5.71578e-12
-4.45465e-12
5.6543e-12
-5.25632e-12
5.58553e-12
-6.04863e-12
5.51747e-12
-6.83203e-12
5.45289e-12
-7.60772e-12
5.39432e-12
-8.37715e-12
5.3429e-12
-9.14139e-12
5.29853e-12
-9.9015e-12
5.25962e-12
-1.06587e-11
5.22331e-12
-1.14135e-11
5.18542e-12
-1.21658e-11
5.14198e-12
-1.29154e-11
5.08831e-12
-1.36599e-11
5.01612e-12
-1.43957e-11
4.91846e-12
-1.5119e-11
4.78924e-12
-1.58241e-11
4.61927e-12
-1.65043e-11
4.40204e-12
-1.71526e-11
4.13211e-12
-1.77609e-11
3.80345e-12
-1.83205e-11
3.41349e-12
-1.88227e-11
2.96044e-12
-1.92583e-11
2.44455e-12
-1.96182e-11
1.86802e-12
-1.98947e-11
1.23478e-12
-2.00786e-11
5.49108e-13
-2.0164e-11
-1.81588e-13
-2.01436e-11
-9.51099e-13
-2.00132e-11
-1.75037e-12
-1.97687e-11
-2.5708e-12
-1.94092e-11
-3.40132e-12
-1.89334e-11
-4.23353e-12
-1.83431e-11
-5.05443e-12
-1.76403e-11
-5.85581e-12
-1.6828e-11
-6.62781e-12
-1.59106e-11
-7.36046e-12
-1.48941e-11
-8.04878e-12
-1.37843e-11
-8.68588e-12
-1.25889e-11
-9.26317e-12
-1.13164e-11
-9.77944e-12
-9.97505e-12
-1.02254e-11
-8.57433e-12
-1.05993e-11
-7.12328e-12
-1.08996e-11
-5.63194e-12
-1.11241e-11
-4.10985e-12
-1.12754e-11
-2.56735e-12
-1.13557e-11
-1.01491e-12
-1.1366e-11
5.38103e-13
-1.13116e-11
2.08084e-12
-1.11919e-11
3.60615e-12
-1.10178e-11
5.10905e-12
-1.07956e-11
6.57824e-12
-1.05272e-11
8.01671e-12
-1.02285e-11
9.41073e-12
-9.8912e-12
1.07662e-11
-9.53901e-12
1.20736e-11
-9.16286e-12
1.33378e-11
-8.77967e-12
1.45537e-11
-8.38674e-12
1.5722e-11
-7.9867e-12
1.6843e-11
-7.58294e-12
1.79165e-11
-7.17421e-12
1.89394e-11
-6.7551e-12
1.99096e-11
-6.32328e-12
2.0825e-11
-5.87485e-12
2.16808e-11
-5.40092e-12
2.24741e-11
-4.89592e-12
2.31951e-11
-4.3458e-12
2.38385e-11
-3.74883e-12
2.43948e-11
-3.09141e-12
2.48543e-11
-2.37062e-12
2.52065e-11
-1.57867e-12
2.54395e-11
-7.11193e-13
2.55409e-11
2.3477e-13
2.54972e-11
1.25994e-12
2.52948e-11
2.36631e-12
2.49205e-11
3.55081e-12
2.43615e-11
4.81261e-12
2.36054e-11
6.14719e-12
2.26408e-11
7.5483e-12
2.14565e-11
9.01058e-12
2.00428e-11
1.05268e-11
1.83917e-11
1.20869e-11
1.64962e-11
1.36807e-11
1.4351e-11
1.52949e-11
1.1953e-11
1.69116e-11
9.30147e-12
1.85131e-11
6.39891e-12
2.00788e-11
3.25057e-12
2.15847e-11
-1.3489e-13
2.30008e-11
-3.73606e-12
2.42878e-11
-7.53763e-12
2.53832e-11
-1.14973e-11
2.63028e-11
-1.55569e-11
2.67382e-11
-1.95577e-11
2.64098e-11
-2.3103e-11
2.33903e-11
1.49341e-11
-2.52681e-11
-4.85723e-13
3.72517e-12
-1.21763e-12
5.73714e-12
-2.0222e-12
6.39245e-12
-2.84229e-12
6.55505e-12
-3.66116e-12
6.53501e-12
-4.47249e-12
6.46601e-12
-5.27399e-12
6.38743e-12
-6.0656e-12
6.30948e-12
-6.84787e-12
6.23554e-12
-7.62194e-12
6.16876e-12
-8.38966e-12
6.11097e-12
-9.15261e-12
6.06183e-12
-9.91192e-12
6.01925e-12
-1.06691e-11
5.98079e-12
-1.14255e-11
5.94206e-12
-1.21812e-11
5.89793e-12
-1.29354e-11
5.84275e-12
-1.36864e-11
5.76727e-12
-1.44308e-11
5.66291e-12
-1.51639e-11
5.52236e-12
-1.58807e-11
5.33596e-12
-1.65744e-11
5.09558e-12
-1.7237e-11
4.79449e-12
-1.7861e-11
4.42705e-12
-1.84367e-11
3.9889e-12
-1.89548e-11
3.47807e-12
-1.94063e-11
2.89569e-12
-1.97811e-11
2.2424e-12
-2.0071e-11
1.52419e-12
-2.0267e-11
7.44703e-13
-2.03618e-11
-8.73085e-14
-2.03489e-11
-9.64413e-13
-2.02233e-11
-1.87643e-12
-1.99817e-11
-2.81285e-12
-1.96218e-11
-3.76152e-12
-1.91441e-11
-4.7115e-12
-1.8549e-11
-5.6497e-12
-1.78386e-11
-6.56632e-12
-1.7017e-11
-7.44933e-12
-1.60881e-11
-8.28927e-12
-1.50579e-11
-9.07892e-12
-1.3934e-11
-9.80972e-12
-1.27237e-11
-1.04735e-11
-1.14348e-11
-1.10684e-11
-1.00765e-11
-1.15838e-11
-8.65783e-12
-1.20182e-11
-7.18884e-12
-1.23688e-11
-5.67941e-12
-1.26337e-11
-4.13928e-12
-1.28158e-11
-2.5794e-12
-1.29158e-11
-1.01022e-12
-1.29355e-11
5.59021e-13
-1.28811e-11
2.11645e-12
-1.27496e-11
3.65287e-12
-1.25545e-11
5.16931e-12
-1.23123e-11
6.6509e-12
-1.2009e-11
8.09494e-12
-1.16728e-11
9.49761e-12
-1.12941e-11
1.08556e-11
-1.08972e-11
1.21678e-11
-1.04752e-11
1.34337e-11
-1.00458e-11
1.46516e-11
-9.60491e-12
1.58226e-11
-9.15791e-12
1.69474e-11
-8.70795e-12
1.80234e-11
-8.2505e-12
1.90507e-11
-7.78279e-12
2.0028e-11
-7.30101e-12
2.09527e-11
-6.79997e-12
2.18198e-11
-6.26862e-12
2.2623e-11
-5.69961e-12
2.33592e-11
-5.08249e-12
2.40172e-11
-4.40722e-12
2.45917e-11
-3.66628e-12
2.50704e-11
-2.8496e-12
2.5442e-11
-1.95051e-12
2.56962e-11
-9.6556e-13
2.58184e-11
1.12432e-13
2.57956e-11
1.28263e-12
2.56138e-11
2.5482e-12
2.52592e-11
3.90546e-12
2.47187e-11
5.35316e-12
2.39797e-11
6.8863e-12
2.303e-11
8.49811e-12
2.18593e-11
1.01814e-11
2.04568e-11
1.19293e-11
1.88137e-11
1.37301e-11
1.69226e-11
1.55718e-11
1.47788e-11
1.74386e-11
1.23775e-11
1.93128e-11
9.71692e-12
2.11734e-11
6.7985e-12
2.2997e-11
3.62664e-12
2.47563e-11
2.10998e-13
2.64164e-11
-3.43511e-12
2.79339e-11
-7.295e-12
2.92433e-11
-1.13257e-11
3.03338e-11
-1.54735e-11
3.08863e-11
-1.95816e-11
3.05181e-11
-2.32283e-11
2.70371e-11
1.71433e-11
-2.54373e-11
-4.90759e-13
4.21612e-12
-1.22761e-12
6.47433e-12
-2.03647e-12
7.20163e-12
-2.85954e-12
7.37844e-12
-3.68017e-12
7.35595e-12
-4.49234e-12
7.2785e-12
-5.29366e-12
7.18905e-12
-6.08416e-12
7.10026e-12
-6.86474e-12
7.01637e-12
-7.63677e-12
6.94102e-12
-8.40217e-12
6.87657e-12
-9.16315e-12
6.823e-12
-9.92136e-12
6.77763e-12
-1.06785e-11
6.73805e-12
-1.14362e-11
6.69998e-12
-1.21955e-11
6.65732e-12
-1.29551e-11
6.60242e-12
-1.3713e-11
6.52528e-12
-1.44669e-11
6.41671e-12
-1.52115e-11
6.26696e-12
-1.59413e-11
6.06562e-12
-1.66502e-11
5.80421e-12
-1.73295e-11
5.47352e-12
-1.79708e-11
5.068e-12
-1.85649e-11
4.58258e-12
-1.91015e-11
4.01417e-12
-1.95707e-11
3.36446e-12
-1.9963e-11
2.63423e-12
-2.0268e-11
1.82868e-12
-2.04777e-11
9.5389e-13
-2.05833e-11
1.78319e-14
-2.05788e-11
-9.69342e-13
-2.04586e-11
-1.99707e-12
-2.022e-11
-3.0518e-12
-1.98604e-11
-4.1215e-12
-1.93797e-11
-5.19235e-12
-1.87793e-11
-6.25015e-12
-1.80609e-11
-7.28475e-12
-1.72282e-11
-8.28193e-12
-1.62868e-11
-9.23056e-12
-1.52426e-11
-1.01231e-11
-1.4103e-11
-1.09493e-11
-1.28748e-11
-1.17017e-11
-1.15671e-11
-1.23763e-11
-1.01887e-11
-1.29624e-11
-8.74933e-12
-1.34578e-11
-7.25932e-12
-1.38591e-11
-5.72867e-12
-1.41646e-11
-4.16784e-12
-1.43769e-11
-2.58794e-12
-1.44959e-11
-9.998e-13
-1.45239e-11
5.86336e-13
-1.44675e-11
2.16121e-12
-1.43247e-11
3.71584e-12
-1.41093e-11
5.24143e-12
-1.3838e-11
6.73326e-12
-1.35009e-11
8.18475e-12
-1.31243e-11
9.59439e-12
-1.27037e-11
1.09563e-11
-1.22591e-11
1.22728e-11
-1.17917e-11
1.35405e-11
-1.13136e-11
1.47591e-11
-1.08235e-11
1.59331e-11
-1.03321e-11
1.7059e-11
-9.83401e-12
1.81367e-11
-9.32856e-12
1.91669e-11
-8.81345e-12
2.01507e-11
-8.28531e-12
2.10838e-11
-7.73368e-12
2.19629e-11
-7.14831e-12
2.27813e-11
-6.51868e-12
2.35325e-11
-5.8343e-12
2.42097e-11
-5.08495e-12
2.48029e-11
-4.26009e-12
2.53025e-11
-3.34958e-12
2.56982e-11
-2.34655e-12
2.59753e-11
-1.24297e-12
2.61215e-11
-3.39554e-14
2.61227e-11
1.28121e-12
2.59648e-11
2.70606e-12
2.56332e-11
4.23695e-12
2.51146e-11
5.87175e-12
2.43959e-11
7.60495e-12
2.34648e-11
9.4291e-12
2.23097e-11
1.13365e-11
2.09205e-11
1.33186e-11
1.92873e-11
1.53633e-11
1.74027e-11
1.74563e-11
1.52609e-11
1.95803e-11
1.28566e-11
2.17169e-11
1.0187e-11
2.38427e-11
7.2518e-12
2.5932e-11
4.05466e-12
2.79533e-11
6.02835e-13
2.98682e-11
-3.09174e-12
3.16287e-11
-7.01641e-12
3.31682e-11
-1.11304e-11
3.4448e-11
-1.53825e-11
3.51387e-11
-1.96203e-11
3.4756e-11
-2.33951e-11
3.0812e-11
1.94194e-11
-2.56711e-11
-4.95982e-13
4.71229e-12
-1.23768e-12
7.21636e-12
-2.05135e-12
8.01559e-12
-2.8785e-12
8.20586e-12
-3.70153e-12
8.17923e-12
-4.51473e-12
8.09194e-12
-5.31588e-12
7.9904e-12
-6.10499e-12
7.88952e-12
-6.88333e-12
7.79483e-12
-7.65284e-12
7.71061e-12
-8.41554e-12
7.63934e-12
-9.17391e-12
7.58142e-12
-9.93047e-12
7.53423e-12
-1.06875e-11
7.49513e-12
-1.14468e-11
7.45927e-12
-1.22095e-11
7.42004e-12
-1.2975e-11
7.36792e-12
-1.37409e-11
7.29117e-12
-1.45049e-11
7.18064e-12
-1.52626e-11
7.02451e-12
-1.60075e-11
6.81033e-12
-1.67331e-11
6.52957e-12
-1.74313e-11
6.17148e-12
-1.80926e-11
5.72892e-12
-1.8707e-11
5.19658e-12
-1.92647e-11
4.57146e-12
-1.97541e-11
3.85333e-12
-2.01657e-11
3.04543e-12
-2.04884e-11
2.15089e-12
-2.07132e-11
1.17823e-12
-2.08316e-11
1.35717e-13
-2.08367e-11
-9.64657e-13
-2.07233e-11
-2.11091e-12
-2.0488e-11
-3.28738e-12
-2.01288e-11
-4.48094e-12
-1.96451e-11
-5.67625e-12
-1.90385e-11
-6.85679e-12
-1.8311e-11
-8.01221e-12
-1.74669e-11
-9.12598e-12
-1.65107e-11
-1.01867e-11
-1.54498e-11
-1.1184e-11
-1.42919e-11
-1.21072e-11
-1.30438e-11
-1.295e-11
-1.17147e-11
-1.37056e-11
-1.03138e-11
-1.43636e-11
-8.85127e-12
-1.49206e-11
-7.33765e-12
-1.53729e-11
-5.78323e-12
-1.57193e-11
-4.19904e-12
-1.59613e-11
-2.59666e-12
-1.60986e-11
-9.87687e-13
-1.61331e-11
6.13802e-13
-1.60693e-11
2.21107e-12
-1.59222e-11
3.7819e-12
-1.56803e-11
5.31926e-12
-1.53755e-11
6.82407e-12
-1.50057e-11
8.28209e-12
-1.45822e-11
9.70083e-12
-1.41223e-11
1.1067e-11
-1.36251e-11
1.23867e-11
-1.31113e-11
1.36538e-11
-1.25806e-11
1.48767e-11
-1.20465e-11
1.60499e-11
-1.15055e-11
1.71742e-11
-1.09586e-11
1.82557e-11
-1.04104e-11
1.92913e-11
-9.84947e-12
2.02811e-11
-9.27562e-12
2.12229e-11
-8.67605e-12
2.21123e-11
-8.03833e-12
2.29443e-11
-7.35133e-12
2.3714e-11
-6.6047e-12
2.44116e-11
-5.78318e-12
2.5028e-11
-4.87708e-12
2.55524e-11
-3.8745e-12
2.59729e-11
-2.76754e-12
2.62766e-11
-1.54708e-12
2.64504e-11
-2.07994e-13
2.64791e-11
1.25219e-12
2.63485e-11
2.8364e-12
2.60437e-11
4.54141e-12
2.55512e-11
6.36402e-12
2.48567e-11
8.29912e-12
2.39469e-11
1.03387e-11
2.28109e-11
1.24724e-11
2.14378e-11
1.46916e-11
1.98169e-11
1.69842e-11
1.79405e-11
1.93327e-11
1.58019e-11
2.17188e-11
1.33949e-11
2.41237e-11
1.07157e-11
2.65218e-11
7.76249e-12
2.88852e-11
4.53767e-12
3.11783e-11
1.04608e-12
3.336e-11
-2.70197e-12
3.5377e-11
-6.6974e-12
3.71639e-11
-1.09061e-11
3.86569e-11
-1.52777e-11
3.95103e-11
-1.96641e-11
3.91424e-11
-2.35945e-11
3.47423e-11
2.17863e-11
-2.59614e-11
-5.01592e-13
5.21405e-12
-1.24853e-12
7.96359e-12
-2.06753e-12
8.83485e-12
-2.8997e-12
9.03826e-12
-3.72569e-12
9.00541e-12
-4.54003e-12
8.90644e-12
-5.34092e-12
8.79139e-12
-6.1285e-12
8.67716e-12
-6.90419e-12
8.57052e-12
-7.67048e-12
8.47688e-12
-8.42991e-12
8.39872e-12
-9.18517e-12
8.33664e-12
-9.93945e-12
8.28848e-12
-1.06961e-11
8.25177e-12
-1.14571e-11
8.22017e-12
-1.22233e-11
8.18617e-12
-1.29948e-11
8.1394e-12
-1.37698e-11
8.06609e-12
-1.45452e-11
7.95596e-12
-1.5317e-11
7.79617e-12
-1.6079e-11
7.57221e-12
-1.68236e-11
7.27399e-12
-1.75428e-11
6.89036e-12
-1.82267e-11
6.41255e-12
-1.8864e-11
5.83361e-12
-1.9445e-11
5.15206e-12
-1.99575e-11
4.36542e-12
-2.03903e-11
3.47791e-12
-2.07331e-11
2.49322e-12
-2.09749e-11
1.41968e-12
-2.11077e-11
2.68098e-13
-2.11237e-11
-9.4902e-13
-2.10178e-11
-2.21711e-12
-2.07867e-11
-3.5188e-12
-2.04277e-11
-4.84014e-12
-1.99409e-11
-6.16314e-12
-1.93275e-11
-7.4703e-12
-1.85899e-11
-8.74983e-12
-1.77328e-11
-9.98316e-12
-1.67609e-11
-1.11588e-11
-1.56816e-11
-1.22634e-11
-1.45027e-11
-1.32863e-11
-1.32318e-11
-1.42211e-11
-1.1879e-11
-1.50587e-11
-1.04532e-11
-1.57896e-11
-8.96477e-12
-1.64093e-11
-7.42465e-12
-1.69133e-11
-5.8436e-12
-1.73006e-11
-4.2336e-12
-1.75715e-11
-2.6064e-12
-1.7726e-11
-9.73277e-13
-1.77665e-11
6.55139e-13
-1.76979e-11
2.26725e-12
-1.75345e-11
3.85593e-12
-1.72691e-11
5.40898e-12
-1.69286e-11
6.92653e-12
-1.65233e-11
8.39791e-12
-1.60536e-11
9.82052e-12
-1.55449e-11
1.1193e-11
-1.49975e-11
1.25146e-11
-1.44329e-11
1.3786e-11
-1.38521e-11
1.5008e-11
-1.32685e-11
1.61801e-11
-1.26777e-11
1.73109e-11
-1.20896e-11
1.83955e-11
-1.14952e-11
1.94358e-11
-1.08901e-11
2.04324e-11
-1.02726e-11
2.1383e-11
-9.62718e-12
2.22852e-11
-8.94095e-12
2.31332e-11
-8.19988e-12
2.39205e-11
-7.39262e-12
2.46391e-11
-6.50235e-12
2.52799e-11
-5.51846e-12
2.58309e-11
-4.42607e-12
2.628e-11
-3.21709e-12
2.66134e-11