/*--------------------------------*- C++ -*----------------------------------*\
| =========                 |                                                 |
| \\      /  F ield         | OpenFOAM: The Open Source CFD Toolbox           |
|  \\    /   O peration     | Version:  2.4.0                                 |
|   \\  /    A nd           | Web:      www.OpenFOAM.org                      |
|    \\/     M anipulation  |                                                 |
\*---------------------------------------------------------------------------*/
FoamFile
{
    version     2.0;
    format      ascii;
    class       surfaceScalarField;
    location    "0.47";
    object      phiAlpha;
}
// * * * * * * * * * * * * * * * * * * * * * * * * * * * * * * * * * * * * * //

dimensions      [0 3 -1 0 0 0 0];

internalField   nonuniform List<scalar> 
19800
(
1.75143e-62
-3.89922e-58
-2.39413e-54
1.63566e-57
-3.30102e-51
5.14023e-54
-1.19136e-48
3.20197e-51
-1.66752e-46
7.21041e-49
-1.05374e-44
7.21841e-47
-3.34954e-43
3.528e-45
-5.84587e-42
9.13151e-44
-6.08704e-41
1.34525e-42
-4.15956e-40
1.21305e-41
-2.28767e-39
7.30864e-41
-1.1129e-38
3.5872e-40
-4.97157e-38
1.56928e-39
-2.22211e-37
6.33088e-39
-9.86835e-37
2.56006e-38
-4.46797e-36
1.02882e-37
-2.02072e-35
4.21287e-37
-8.56599e-35
1.72231e-36
-3.29929e-34
6.60107e-36
-1.1433e-33
2.30252e-35
-3.57918e-33
7.25223e-35
-1.01634e-32
2.07613e-34
-2.61126e-32
5.43827e-34
-6.03017e-32
1.30338e-33
-1.23727e-31
2.8434e-33
-2.25339e-31
5.57975e-33
-3.76885e-31
9.8109e-33
-5.6382e-31
1.58944e-32
-7.06221e-31
2.2892e-32
-6.87549e-31
2.7085e-32
-5.29231e-31
2.40382e-32
-3.21613e-31
1.59375e-32
-1.61056e-31
7.65006e-33
-6.97845e-32
2.63622e-33
-2.76547e-32
6.1027e-34
-1.05205e-32
6.30522e-35
-3.88044e-33
-1.04665e-32
-1.37565e-33
-3.60898e-33
-4.68498e-34
4.07976e-36
-1.5402e-34
4.71531e-36
-4.6098e-35
2.82787e-36
-1.22314e-35
1.20146e-36
-3.0584e-36
3.8981e-37
-8.08365e-37
1.07596e-37
-1.90095e-37
2.91118e-38
-4.29559e-38
6.60855e-39
-2.41742e-38
1.37315e-39
-5.1974e-38
6.79834e-40
-1.48457e-37
1.228e-39
2.78462e-39
-4.70898e-37
-5.35344e-53
1.83404e-56
-1.34939e-49
2.32073e-52
-6.65654e-47
2.36342e-49
-1.19459e-44
6.95765e-47
-9.86165e-43
8.65864e-45
-4.21628e-41
5.3939e-43
-1.01125e-39
1.84012e-41
-1.45659e-38
3.66447e-40
-1.35019e-37
4.51237e-39
-8.99193e-37
3.65323e-38
-4.9865e-36
2.15785e-37
-2.27945e-35
1.07255e-36
-9.47728e-35
4.42393e-36
-3.85854e-34
1.66586e-35
-1.56165e-33
6.15243e-35
-6.42942e-33
2.25927e-34
-2.63085e-32
8.43608e-34
-1.01514e-31
3.12977e-33
-3.56367e-31
1.09544e-32
-1.12643e-30
3.4947e-32
-3.2303e-30
1.00756e-31
-8.47268e-30
2.65102e-31
-2.03106e-29
6.432e-31
-4.41725e-29
1.44085e-30
-8.62279e-29
2.96157e-30
-1.49612e-28
5.52313e-30
-2.39713e-28
9.22949e-30
-3.50239e-28
1.42797e-29
-4.49882e-28
2.00318e-29
-4.75006e-28
2.42875e-29
-4.16992e-28
2.34577e-29
-3.0317e-28
1.79341e-29
-1.84699e-28
1.05659e-29
-9.71917e-29
4.69591e-30
-4.57344e-29
1.54175e-30
-1.98557e-29
3.6064e-31
-8.11016e-30
6.98255e-32
-3.15225e-30
3.28853e-32
-1.17431e-30
2.98732e-32
-4.13361e-31
2.15754e-32
-1.33568e-31
1.18049e-32
-3.89392e-32
5.05678e-33
-1.08345e-32
1.74185e-33
-2.95476e-33
5.25381e-34
-7.27605e-34
1.45325e-34
-1.79442e-34
3.44116e-35
-1.16093e-34
7.80008e-36
-2.71444e-34
4.44828e-36
-8.39528e-34
8.77428e-36
2.16904e-35
-2.89916e-33
-1.24414e-49
1.09719e-52
-1.78205e-46
5.87904e-49
-5.91935e-44
3.75187e-46
-7.76518e-42
7.82424e-44
-4.96552e-40
7.35259e-42
-1.73259e-38
3.62605e-40
-3.56289e-37
1.02484e-38
-4.61395e-36
1.76844e-37
-4.06105e-35
1.97263e-36
-2.71149e-34
1.52468e-35
-1.44123e-33
9.06466e-35
-6.19367e-33
4.33125e-34
-2.40035e-32
1.68337e-33
-8.96506e-32
5.91955e-33
-3.32827e-31
2.00873e-32
-1.25727e-30
6.77594e-32
-4.71559e-30
2.32465e-31
-1.67775e-29
7.91607e-31
-5.43307e-29
2.55834e-30
-1.58483e-28
7.53931e-30
-4.20631e-28
2.00861e-29
-1.02728e-27
4.89661e-29
-2.31222e-27
1.10696e-28
-4.76702e-27
2.32853e-28
-8.91229e-27
4.53425e-28
-1.4982e-26
8.08885e-28
-2.30117e-26
1.30769e-27
-3.31444e-26
1.93737e-27
-4.33151e-26
2.67919e-27
-4.84855e-26
3.31133e-27
-4.62983e-26
3.40693e-27
-3.78839e-26
2.8591e-27
-2.65203e-26
1.92668e-27
-1.60892e-26
1.01366e-27
-8.6669e-27
4.07921e-28
-4.2507e-27
1.26589e-28
-1.93175e-27
3.77248e-29
-8.25859e-28
1.9205e-29
-3.35219e-28
1.4581e-29
-1.27574e-28
1.002e-29
-4.46929e-29
5.55726e-30
-1.43311e-29
2.49102e-30
-4.38759e-30
9.23577e-31
-1.27218e-30
3.02321e-31
-3.35428e-31
8.81359e-32
-9.17893e-32
2.22326e-32
-6.94353e-32
5.57903e-33
-1.77918e-31
3.72033e-33
-5.80096e-31
8.06104e-33
2.11185e-32
-2.02682e-30
-3.95079e-47
6.24618e-50
-4.39443e-44
2.32111e-46
-1.18622e-41
1.15506e-43
-1.30543e-39
1.97833e-41
-7.19581e-38
1.57779e-39
-2.22359e-36
6.77709e-38
-4.1734e-35
1.7108e-36
-5.11064e-34
2.71262e-35
-4.41234e-33
2.87629e-34
-2.90276e-32
2.18948e-33
-1.47623e-31
1.2865e-32
-6.03103e-31
5.89499e-32
-2.19108e-30
2.18177e-31
-7.5609e-30
7.20103e-31
-2.58458e-29
2.25968e-30
-8.96896e-29
7.02273e-30
-3.09241e-28
2.21414e-29
-1.01795e-27
6.93279e-29
-3.06579e-27
2.07325e-28
-8.32836e-27
5.68249e-28
-2.05997e-26
1.40971e-27
-4.70904e-26
3.20148e-27
-1.00022e-25
6.76949e-27
-1.96413e-25
1.34223e-26
-3.53121e-25
2.48574e-26
-5.7607e-25
4.25746e-26
-8.55857e-25
6.67142e-26
-1.21348e-24
9.55911e-26
-1.59509e-24
1.30345e-25
-1.86072e-24
1.62676e-25
-1.88994e-24
1.75539e-25
-1.68155e-24
1.5811e-25
-1.30412e-24
1.17284e-25
-8.86495e-25
6.9524e-26
-5.35113e-25
3.2133e-26
-2.91376e-25
1.16408e-26
-1.45646e-25
4.13568e-27
-6.81377e-26
2.35098e-27
-3.00256e-26
1.8563e-27
-1.23575e-26
1.32714e-27
-4.69749e-27
7.72891e-28
-1.6532e-27
3.67813e-28
-5.51837e-28
1.47178e-28
-1.71875e-28
5.18525e-29
-4.89597e-29
1.60838e-29
-1.48506e-29
4.35481e-30
-1.26494e-29
1.20672e-30
-3.43416e-29
9.05007e-31
-1.13813e-28
2.08077e-30
5.56824e-30
-3.84903e-28
-3.84153e-45
9.12751e-48
-3.77331e-42
2.84479e-44
-9.10783e-40
1.2392e-41
-9.05722e-38
1.89766e-39
-4.56243e-36
1.37278e-37
-1.30738e-34
5.41561e-36
-2.32127e-33
1.27414e-34
-2.75673e-32
1.91976e-33
-2.35711e-31
1.98159e-32
-1.52501e-30
1.49841e-31
-7.49851e-30
8.67888e-31
-2.94787e-29
3.85152e-30
-1.01099e-28
1.37322e-29
-3.24372e-28
4.28115e-29
-1.01831e-27
1.24927e-28
-3.23219e-27
3.5647e-28
-1.0251e-26
1.02737e-27
-3.13935e-26
2.95642e-27
-8.85096e-26
8.21669e-27
-2.25196e-25
2.10566e-26
-5.22234e-25
4.88562e-26
-1.12326e-24
1.03853e-25
-2.25991e-24
2.06203e-25
-4.24009e-24
3.86369e-25
-7.34981e-24
6.81946e-25
-1.1662e-23
1.12357e-24
-1.69099e-23
1.71004e-24
-2.33736e-23
2.39221e-24
-3.06165e-23
3.18942e-24
-3.67552e-23
3.99e-24
-3.91559e-23
4.46807e-24
-3.71444e-23
4.26335e-24
-3.11926e-23
3.40821e-24
-2.3186e-23
2.20793e-24
-1.53648e-23
1.11775e-24
-9.18462e-24
4.35156e-25
-5.02966e-24
1.66675e-25
-2.56194e-24
1.08717e-25
-1.22317e-24
9.74244e-26
-5.4464e-25
7.58632e-26
-2.24496e-25
4.73312e-26
-8.62736e-26
2.40698e-26
-3.12451e-26
1.03596e-26
-1.04993e-26
3.90661e-27
-3.24331e-27
1.293e-27
-1.06669e-27
3.76565e-28
-9.27662e-28
1.12558e-28
-2.51271e-27
8.59977e-29
-8.18775e-27
1.97453e-28
5.22023e-28
-2.62212e-26
-1.64232e-43
5.29778e-46
-1.52823e-40
1.52786e-42
-3.49259e-38
6.25026e-40
-3.28682e-36
9.03959e-38
-1.56947e-34
6.19423e-36
-4.29286e-33
2.3224e-34
-7.37732e-32
5.232e-33
-8.63351e-31
7.65399e-32
-7.33815e-30
7.80696e-31
-4.65661e-29
5.88154e-30
-2.23616e-28
3.34683e-29
-8.53534e-28
1.45206e-28
-2.78069e-27
5.02878e-28
-8.31464e-27
1.48902e-27
-2.39779e-26
4.04634e-27
-6.96353e-26
1.05926e-26
-2.03373e-25
2.78837e-26
-5.80605e-25
7.37347e-26
-1.5367e-24
1.90588e-25
-3.68214e-24
4.57353e-25
-8.04832e-24
9.96669e-25
-1.6357e-23
1.99096e-24
-3.12677e-23
3.72297e-24
-5.61721e-23
6.60399e-24
-9.40187e-23
1.11189e-23
-1.45284e-22
1.76287e-23
-2.06637e-22
2.60721e-23
-2.76996e-22
3.5785e-23
-3.58151e-22
4.64549e-23
-4.37155e-22
5.78354e-23
-4.83353e-22
6.65869e-23
-4.82635e-22
6.67584e-23
-4.32565e-22
5.68219e-23
-3.46435e-22
3.95013e-23
-2.48402e-22
2.12003e-23
-1.60621e-22
8.17366e-24
-9.50341e-23
3.00024e-24
-5.23008e-23
2.35929e-24
-2.70254e-23
2.61779e-24
-1.30925e-23
2.29959e-24
-5.91913e-24
1.56412e-24
-2.50229e-24
8.61944e-25
-9.89496e-25
4.01544e-25
-3.6159e-25
1.62743e-25
-1.21883e-25
5.78001e-26
-4.24924e-26
1.81843e-26
-3.3069e-26
5.72407e-27
-8.18461e-26
3.90163e-27
-2.55028e-25
8.18995e-27
2.08047e-26
-7.68408e-25
-3.76571e-42
1.54681e-44
-3.4805e-39
4.39609e-41
-7.83653e-37
1.77526e-38
-7.20339e-35
2.52393e-36
-3.33975e-33
1.68977e-34
-8.87773e-32
6.16169e-33
-1.49646e-30
1.35209e-31
-1.74029e-29
1.94464e-30
-1.47521e-28
1.97504e-29
-9.1666e-28
1.48619e-28
-4.32158e-27
8.28843e-28
-1.60428e-26
3.53109e-27
-4.98882e-26
1.18871e-26
-1.40075e-25
3.35547e-26
-3.73427e-25
8.54543e-26
-9.94514e-25
2.06256e-25
-2.67104e-24
4.96306e-25
-7.09937e-24
1.20255e-24
-1.76962e-23
2.88269e-24
-4.01042e-23
6.48905e-24
-8.29592e-23
1.332e-23
-1.5984e-22
2.5073e-23
-2.91002e-22
4.42412e-23
-5.01349e-22
7.43636e-23
-8.11003e-22
1.19427e-22
-1.2202e-21
1.82051e-22
-1.69936e-21
2.61126e-22
-2.21474e-21
3.50653e-22
-2.80396e-21
4.44624e-22
-3.43598e-21
5.48002e-22
-3.90126e-21
6.4316e-22
-4.06328e-21
6.73117e-22
-3.85033e-21
6.06697e-22
-3.29116e-21
4.48711e-22
-2.5285e-21
2.4946e-22
-1.74769e-21
8.41669e-23
-1.10344e-21
2.14431e-23
-6.49183e-22
2.56544e-23
-3.60919e-22
4.15103e-23
-1.89797e-22
4.22749e-23
-9.39798e-23
3.14293e-23
-4.37413e-23
1.8693e-23
-1.90133e-23
9.39281e-24
-7.62845e-24
4.1021e-24
-2.81393e-24
1.5733e-24
-1.02762e-24
5.35055e-25
-6.55476e-25
1.75039e-25
-1.34482e-24
9.74266e-26
-3.95022e-24
1.69591e-25
4.08121e-25
-1.12966e-23
-5.22866e-41
2.62405e-43
-4.98602e-38
7.71835e-40
-1.14188e-35
3.20665e-37
-1.05047e-33
4.63363e-35
-4.81488e-32
3.10713e-33
-1.26237e-30
1.12192e-31
-2.11232e-29
2.4328e-30
-2.44365e-28
3.47949e-29
-2.03954e-27
3.51992e-28
-1.23897e-26
2.60948e-27
-5.70823e-26
1.42243e-26
-2.06428e-25
5.91553e-26
-6.19188e-25
1.93603e-25
-1.64894e-24
5.25604e-25
-4.10345e-24
1.26477e-24
-1.00536e-23
2.83661e-24
-2.48127e-23
6.24656e-24
-6.13371e-23
1.38298e-23
-1.44137e-22
3.06551e-23
-3.09863e-22
6.46831e-23
-6.08728e-22
1.25238e-22
-1.11505e-21
2.22586e-22
-1.93693e-21
3.7111e-22
-3.20325e-21
5.91214e-22
-5.01037e-21
9.04719e-22
-7.34001e-21
1.32308e-21
-1.00059e-20
1.83464e-21
-1.2722e-20
2.40235e-21
-1.56835e-20
2.98446e-21
-1.89968e-20
3.63487e-21
-2.18995e-20
4.30833e-21
-2.35876e-20
4.68492e-21
-2.34675e-20
4.46779e-21
-2.12882e-20
3.51831e-21
-1.7423e-20
2.00612e-21
-1.27259e-20
4.44102e-22
-8.45284e-21
-5.44909e-22
-5.25319e-21
1.03497e-22
-3.12686e-21
4.30293e-22
-1.78664e-21
5.20454e-22
-9.72207e-22
4.21331e-22
-4.99404e-22
2.68841e-22
-2.39305e-22
1.44824e-22
-1.05728e-22
6.792e-23
-4.28804e-23
2.80978e-23
-1.65933e-23
1.03535e-23
-8.65121e-24
3.55691e-24
-1.29442e-23
1.61176e-24
-3.47404e-23
2.04706e-24
4.52451e-24
-9.51435e-23
-4.72854e-40
2.82458e-42
-4.83686e-37
9.02788e-39
-1.16391e-34
4.02892e-36
-1.09704e-32
6.12739e-34
-5.05067e-31
4.21892e-32
-1.31499e-29
1.53363e-30
-2.18215e-28
3.30896e-29
-2.49311e-27
4.69931e-28
-2.00136e-26
4.6962e-27
-1.17733e-25
3.34551e-26
-5.31085e-25
1.76215e-25
-1.88439e-24
7.15046e-25
-5.50691e-24
2.28545e-24
-1.40786e-23
6.0102e-24
-3.30601e-23
1.37901e-23
-7.51325e-23
2.89623e-23
-1.70677e-22
5.86701e-23
-3.91672e-22
1.18533e-22
-8.68107e-22
2.41843e-22
-1.77502e-21
4.7746e-22
-3.3218e-21
8.72609e-22
-5.79838e-21
1.46638e-21
-9.62093e-21
2.31194e-21
-1.52752e-20
3.48904e-21
-2.30961e-20
5.07632e-21
-3.29393e-20
7.09307e-21
-4.39722e-20
9.45253e-21
-5.48741e-20
1.19933e-20
-6.55566e-20
1.46434e-20
-7.73461e-20
1.76308e-20
-8.93564e-20
2.10018e-20
-9.8561e-20
2.36526e-20
-1.02336e-19
2.39732e-20
-9.83078e-20
2.0365e-20
-8.56839e-20
1.21135e-20
-6.52708e-20
1.15336e-22
-4.46641e-20
-1.56062e-20
-2.88335e-20
-3.64557e-21
-1.83296e-20
3.20675e-21
-1.14608e-20
4.6433e-21
-6.91644e-21
4.03742e-21
-3.94984e-21
2.73556e-21
-2.0992e-21
1.56956e-21
-1.02619e-21
7.8846e-22
-4.59289e-22
3.51839e-22
-1.91421e-22
1.40691e-22
-8.79428e-23
5.15644e-23
-8.58787e-23
2.05135e-23
-1.9365e-22
1.70224e-23
3.17879e-23
-5.07581e-22
-2.9112e-39
2.0343e-41
-3.37608e-36
7.55439e-38
-8.90625e-34
3.85281e-35
-8.76618e-32
6.46303e-33
-4.04095e-30
4.67127e-31
-1.03378e-28
1.7071e-29
-1.66199e-27
3.62792e-28
-1.81056e-26
4.99374e-27
-1.39348e-25
4.74979e-26
-7.96889e-25
3.23066e-25
-3.52872e-24
1.64368e-24
-1.24041e-23
6.49261e-24
-3.56265e-23
2.03525e-23
-8.85024e-23
5.20052e-23
-1.98934e-22
1.14514e-22
-4.25052e-22
2.27214e-22
-8.95361e-22
4.26934e-22
-1.90846e-21
7.89155e-22
-3.99095e-21
1.47672e-21
-7.77785e-21
2.71969e-21
-1.39043e-20
4.68954e-21
-2.31749e-20
7.45647e-21
-3.67539e-20
1.1122e-20
-5.59898e-20
1.58896e-20
-8.17293e-20
2.19192e-20
-1.13343e-19
2.90852e-20
-1.48029e-19
3.68506e-20
-1.8113e-19
4.45797e-20
-2.10085e-19
5.29117e-20
-2.3988e-19
6.35656e-20
-2.73918e-19
7.69581e-20
-3.056e-19
8.97234e-20
-3.28984e-19
9.78002e-20
-3.35872e-19
9.27237e-20
-3.15318e-19
6.11811e-20
-2.45155e-19
-6.32673e-20
-1.6629e-19
-1.4454e-19
-1.08064e-19
-5.73157e-20
-7.38452e-20
1.92945e-20
-5.17128e-20
3.21701e-20
-3.53042e-20
2.92592e-20
-2.26793e-20
2.07302e-20
-1.34524e-20
1.2558e-20
-7.30246e-21
6.72925e-21
-3.6186e-21
3.23637e-21
-1.64895e-21
1.40749e-21
-7.40168e-22
5.59037e-22
-4.82324e-22
2.1676e-22
-7.70934e-22
1.20287e-22
1.60196e-22
-1.86578e-21
-1.30918e-38
1.06987e-40
-1.84251e-35
5.15279e-37
-5.35838e-33
3.26313e-34
-5.23312e-31
6.13935e-32
-2.29595e-29
4.46288e-30
-5.59188e-28
1.56665e-28
-8.6178e-27
3.18234e-27
-8.91472e-26
4.19093e-26
-6.64196e-25
3.75503e-25
-3.74574e-24
2.43904e-24
-1.64447e-23
1.20153e-23
-5.75599e-23
4.60399e-23
-1.65068e-22
1.40298e-22
-4.06295e-22
3.49088e-22
-8.93431e-22
7.42705e-22
-1.83334e-21
1.40658e-21
-3.63548e-21
2.47888e-21
-7.23806e-21
4.21853e-21
-1.43061e-20
7.22843e-21
-2.66296e-20
1.23723e-20
-4.55943e-20
2.00878e-20
-7.26968e-20
3.02123e-20
-1.10252e-19
4.26476e-20
-1.61006e-19
5.76935e-20
-2.26485e-19
7.53262e-20
-3.04838e-19
9.4306e-20
-3.88686e-19
1.1173e-19
-4.64206e-19
1.24337e-19
-5.22694e-19
1.38302e-19
-5.74662e-19
1.67306e-19
-6.38397e-19
2.12588e-19
-7.07602e-19
2.59039e-19
-7.80124e-19
3.09343e-19
-8.57304e-19
3.4788e-19
-9.10468e-19
2.91678e-19
-6.86417e-19
-5.80336e-19
-4.21936e-19
-9.68906e-19
-2.54567e-19
-4.20346e-19
-1.97686e-19
1.08006e-19
-1.67247e-19
1.84761e-19
-1.34644e-19
1.68691e-19
-9.87693e-20
1.22255e-19
-6.5585e-20
7.72277e-20
-3.94854e-20
4.38423e-20
-2.16287e-20
2.26513e-20
-1.08435e-20
1.07118e-20
-5.10909e-21
4.65173e-21
-2.66411e-21
1.89331e-21
-2.59236e-21
8.43845e-22
6.88539e-22
-5.12576e-21
-4.22855e-38
5.30279e-40
-6.68264e-35
3.44327e-36
-1.84493e-32
2.6765e-33
-1.61566e-30
5.14941e-31
-6.45166e-29
3.56979e-29
-1.48014e-27
1.18917e-27
-2.19185e-26
2.30785e-26
-2.25402e-25
2.87024e-25
-1.70605e-24
2.4402e-24
-9.93333e-24
1.50389e-23
-4.54579e-23
7.05908e-23
-1.66774e-22
2.59403e-22
-5.01198e-22
7.64753e-22
-1.27834e-21
1.85322e-21
-2.8648e-21
3.82901e-21
-5.85684e-21
6.98469e-21
-1.12555e-20
1.16797e-20
-2.12809e-20
1.84725e-20
-4.00741e-20
2.90312e-20
-7.16239e-20
4.60519e-20
-1.17932e-19
7.02375e-20
-1.80333e-19
9.98308e-20
-2.61889e-19
1.33465e-19
-3.66889e-19
1.71497e-19
-4.9757e-19
2.12598e-19
-6.50624e-19
2.50989e-19
-8.10498e-19
2.73751e-19
-9.35548e-19
2.61087e-19
-1.00535e-18
2.40573e-19
-1.04493e-18
2.88917e-19
-1.07474e-18
4.04796e-19
-1.12968e-18
5.48935e-19
-1.21469e-18
7.42007e-19
-1.35252e-18
1.04913e-18
-2.07853e-18
1.34938e-18
-1.28324e-18
-4.72983e-18
-4.57475e-19
-5.96669e-18
-1.25162e-19
-2.44709e-18
-2.65216e-19
6.1768e-19
-3.9165e-19
9.39647e-19
-4.05458e-19
8.14607e-19
-3.42678e-19
5.85314e-19
-2.52295e-19
3.78217e-19
-1.66447e-19
2.24637e-19
-9.98212e-20
1.23709e-19
-5.49e-20
6.33864e-20
-2.80252e-20
3.0176e-20
-1.40546e-20
1.33577e-20
-9.09253e-21
5.75529e-21
3.13987e-21
-1.18756e-20
8.80671e-42
2.32857e-39
2.64071e-37
2.14937e-35
4.8524e-34
2.02118e-32
1.44941e-31
3.83175e-30
1.29632e-29
2.50171e-28
5.06032e-28
7.96379e-27
1.02408e-26
1.45431e-25
1.16656e-25
1.66334e-24
7.96337e-25
1.30627e-23
3.16628e-24
7.56085e-23
4.19727e-24
3.35873e-22
-8.09607e-23
1.17624e-21
-5.46878e-22
3.34541e-21
-1.98575e-21
7.90064e-21
-5.40565e-21
1.59305e-20
-1.23071e-20
2.82088e-20
-2.47087e-20
4.52698e-20
-4.65208e-20
6.73403e-20
-8.56701e-20
9.76924e-20
-1.49127e-19
1.43485e-19
-2.38005e-19
2.04755e-19
-3.50129e-19
2.74073e-19
-4.87436e-19
3.469e-19
-6.56585e-19
4.25914e-19
-8.63166e-19
5.06485e-19
-1.10922e-18
5.71988e-19
-1.37331e-18
5.78836e-19
-1.53086e-18
4.26822e-19
-1.49969e-18
1.84087e-19
-1.34017e-18
1.55671e-19
-1.10982e-18
3.98311e-19
-3.7879e-19
4.45141e-19
2.2597e-20
1.06556e-18
5.25742e-21
3.31554e-18
-3.30643e-18
6.45897e-18
1.35496e-18
-2.97178e-17
4.11111e-18
-2.28927e-17
3.95208e-18
-7.38528e-18
7.81525e-19
4.04905e-18
-7.13955e-19
4.64268e-18
-1.06691e-18
3.47625e-18
-1.00149e-18
2.36203e-18
-7.85457e-19
1.51562e-18
-5.51215e-19
9.23053e-19
-3.54858e-19
5.34665e-19
-2.11931e-19
2.94583e-19
-1.18199e-19
1.5344e-19
-6.26366e-20
7.4788e-20
-3.47456e-20
3.42145e-20
1.60398e-20
-2.81817e-20
3.74526e-40
9.13583e-39
1.11138e-35
1.68434e-34
1.6421e-32
1.62276e-31
3.8428e-30
2.72211e-29
2.90107e-28
1.59136e-27
1.00572e-26
4.56366e-26
1.86419e-25
7.42558e-25
2.09287e-24
7.73424e-24
1.5573e-23
5.63213e-23
8.21708e-23
3.07003e-22
3.14548e-22
1.28793e-21
8.94954e-22
4.31657e-21
1.88136e-21
1.18647e-20
2.72122e-21
2.73156e-20
1.71887e-21
5.39089e-20
-6.07606e-21
9.3361e-20
-2.58596e-20
1.45507e-19
-6.1882e-20
2.06668e-19
-1.24821e-19
2.80578e-19
-2.23472e-19
3.8281e-19
-3.54379e-19
5.07896e-19
-5.04719e-19
6.34818e-19
-6.72332e-19
7.57641e-19
-8.73772e-19
8.95832e-19
-1.13108e-18
1.03959e-18
-1.48177e-18
1.16295e-18
-1.93092e-18
1.15874e-18
-2.16293e-18
6.42442e-19
-1.94037e-18
-3.59054e-19
-9.53021e-19
-1.26349e-18
3.57143e-19
-8.39617e-19
1.99439e-18
-1.75781e-18
7.1543e-18
6.36561e-20
1.17547e-17
4.59981e-18
5.8155e-18
1.5897e-17
3.97083e-17
-2.57346e-16
2.98774e-17
-9.44486e-17
1.86254e-17
-2.0369e-17
3.21473e-18
1.91716e-17
-1.75032e-18
1.6251e-17
-2.6632e-18
1.1233e-17
-2.4256e-18
7.42364e-18
-1.89212e-18
4.76055e-18
-1.3607e-18
2.96406e-18
-9.21497e-19
1.79372e-18
-5.93295e-19
1.05834e-18
-3.63861e-19
6.03083e-19
-2.12468e-19
3.25391e-19
-1.20892e-19
1.63576e-19
7.8001e-20
-7.64735e-20
5.89215e-39
7.02148e-38
2.03017e-34
1.57357e-33
2.27428e-31
1.17665e-30
4.28491e-29
1.60833e-28
2.81281e-27
8.20977e-27
8.54928e-26
2.05989e-25
1.42871e-24
2.99852e-24
1.48569e-23
2.85296e-23
1.05899e-22
1.94696e-22
5.42123e-22
9.9536e-22
2.08282e-21
3.97455e-21
6.19248e-21
1.27706e-20
1.46356e-20
3.39637e-20
2.79556e-20
7.64411e-20
4.34162e-20
1.48533e-19
5.40007e-20
2.53919e-19
5.01279e-20
3.89363e-19
2.29085e-20
5.3789e-19
-4.19676e-20
6.9781e-19
-1.55942e-19
8.93683e-19
-2.95238e-19
1.09887e-18
-4.23267e-19
1.26335e-18
-5.285e-19
1.40433e-18
-6.632e-19
1.60943e-18
-8.9512e-19
1.85846e-18
-1.3724e-18
2.16497e-18
-2.23033e-18
2.34151e-18
-2.71245e-18
1.14166e-18
-2.6396e-18
-1.02822e-18
-1.15372e-18
-3.35138e-18
2.56913e-18
-3.96116e-18
5.25489e-18
-2.94849e-18
1.25061e-17
-6.9439e-18
2.71923e-17
-2.1638e-17
5.01072e-17
1.52084e-17
4.90219e-16
-1.28056e-15
1.16169e-16
1.29537e-16
2.3825e-17
7.47116e-18
-5.69166e-18
6.17546e-17
-5.43075e-18
3.13846e-17
-4.63511e-18
2.18662e-17
-3.59737e-18
1.49332e-17
-2.7643e-18
1.01799e-17
-2.06855e-18
6.72254e-18
-1.49773e-18
4.33947e-18
-1.06419e-18
2.79031e-18
-7.42629e-19
1.76791e-18
-5.00384e-19
1.07033e-18
-3.21128e-19
6.01292e-19
3.11568e-19
-2.02096e-19
1.0833e-37
7.94452e-37
2.59429e-33
1.24848e-32
2.10741e-30
6.77565e-30
3.26452e-28
7.58577e-28
1.84294e-26
3.30803e-26
4.91355e-25
7.2234e-25
7.41377e-24
9.41747e-24
7.16447e-23
8.26307e-23
4.79641e-22
5.25602e-22
2.33831e-21
2.53642e-21
8.67134e-21
9.65634e-21
2.53674e-20
2.99457e-20
6.0317e-20
7.76501e-20
1.19385e-19
1.72063e-19
2.0042e-19
3.31957e-19
2.88843e-19
5.66577e-19
3.60549e-19
8.68372e-19
3.86826e-19
1.19497e-18
3.61769e-19
1.52494e-18
3.01198e-19
1.8689e-18
2.36196e-19
2.13406e-18
2.41792e-19
2.22893e-18
3.57648e-19
2.24884e-18
4.73026e-19
2.48982e-18
4.53509e-19
2.88854e-18
-2.08369e-19
3.79582e-18
-1.853e-18
4.7228e-18
-2.73357e-18
2.24616e-18
-2.79296e-18
-1.34122e-18
-2.16437e-18
-5.12935e-18
-2.26828e-18
-6.48606e-18
-2.26408e-18
-6.01494e-18
-2.47597e-17
-4.44951e-19
-2.42771e-16
1.166e-17
-4.06492e-16
8.7606e-18
-9.99314e-16
-6.08498e-16
2.21724e-16
-6.17574e-16
3.69872e-17
2.29333e-16
3.33434e-17
1.84017e-16
4.47695e-18
7.34633e-17
7.87863e-20
3.40625e-17
-8.97987e-19
2.13513e-17
-1.30865e-18
1.52141e-17
-1.23968e-18
1.06503e-17
-1.03074e-18
7.43348e-18
-8.96707e-19
5.35079e-18
-8.21584e-19
3.87246e-18
-7.28482e-19
2.68032e-18
-5.87172e-19
1.7012e-18
9.7821e-19
-4.26137e-19
1.68438e-36
8.21315e-36
2.38363e-32
7.58124e-32
1.42985e-29
3.00391e-29
1.84674e-27
2.76089e-27
8.87667e-26
1.00734e-25
2.09112e-24
1.91087e-24
2.86532e-23
2.23123e-23
2.57313e-22
1.80302e-22
1.60883e-21
1.06739e-21
7.42152e-21
4.87939e-21
2.64243e-20
1.78991e-20
7.5261e-20
5.42035e-20
1.7675e-19
1.38705e-19
3.51295e-19
3.0621e-19
6.03952e-19
5.93949e-19
9.11573e-19
1.02722e-18
1.22381e-18
1.60477e-18
1.46698e-18
2.26545e-18
1.60776e-18
2.94542e-18
1.66463e-18
3.56723e-18
1.70672e-18
3.8617e-18
1.94006e-18
3.64859e-18
2.5053e-18
3.22356e-18
3.19458e-18
3.33255e-18
3.91417e-18
3.75703e-18
3.22539e-18
6.00311e-18
-1.29328e-19
9.6823e-18
-1.29666e-18
4.03367e-18
-8.73065e-19
-2.22372e-18
-1.12558e-18
-5.90702e-18
-1.76391e-18
-6.74322e-18
-3.29455e-18
-3.10672e-18
-1.39647e-17
4.16434e-18
-1.35568e-16
1.41486e-17
-2.10729e-16
-1.66133e-17
-1.04964e-15
3.31959e-16
-1.44989e-15
-3.33842e-16
-1.19241e-16
-5.5222e-18
-2.30568e-17
4.68598e-17
-6.8823e-18
4.02904e-17
-1.56317e-18
2.81086e-17
3.45277e-19
2.19868e-17
9.30489e-19
1.75688e-17
1.42773e-18
1.29101e-17
1.56646e-18
9.77513e-18
1.10732e-18
8.07416e-18
2.83323e-19
6.82786e-18
-3.50143e-19
5.46861e-18
-6.30315e-19
3.92709e-18
2.49509e-18
-6.37685e-19
1.93447e-35
6.35788e-35
1.62397e-31
3.40934e-31
7.37193e-29
9.93986e-29
7.86874e-27
7.28533e-27
3.25213e-25
2.19514e-25
6.81751e-24
3.56059e-24
8.56519e-23
3.68976e-23
7.08505e-22
2.69513e-22
4.1433e-21
1.48954e-21
1.81239e-20
6.54718e-21
6.19097e-20
2.36143e-20
1.71207e-19
7.14361e-20
3.95296e-19
1.84577e-19
7.83054e-19
4.14823e-19
1.36299e-18
8.25649e-19
2.11602e-18
1.47717e-18
2.97385e-18
2.41146e-18
3.81441e-18
3.61251e-18
4.50018e-18
4.97513e-18
4.91756e-18
6.21432e-18
5.14298e-18
6.65146e-18
5.61748e-18
5.862e-18
6.81102e-18
4.29694e-18
7.82021e-18
4.33306e-18
1.06518e-17
3.14316e-18
1.15501e-17
6.56905e-18
2.59029e-18
2.05263e-17
3.59545e-18
4.64132e-18
5.65061e-18
-4.99895e-18
5.95786e-18
-7.24133e-18
4.92939e-18
-6.51924e-18
5.29839e-18
-3.3887e-18
1.04717e-17
4.503e-19
2.3395e-17
-4.32925e-21
3.94847e-17
-8.00408e-18
1.22687e-16
1.58587e-16
-7.02527e-17
1.24688e-16
-7.52844e-17
6.44137e-17
-4.01881e-17
1.6127e-17
-1.68256e-17
2.39349e-17
-4.39499e-18
2.05093e-17
1.92564e-18
1.8518e-17
4.81504e-18
1.67656e-17
6.57618e-18
1.25757e-17
7.00896e-18
1.05143e-17
6.04739e-18
1.03017e-17
4.10721e-18
1.03606e-17
1.89042e-18
9.642e-18
1.438e-19
7.81177e-18
5.3892e-18
-4.89282e-19
1.60841e-34
3.41388e-34
8.27057e-31
1.06656e-30
2.89517e-28
2.23817e-28
2.55658e-26
1.23257e-26
9.17828e-25
2.8461e-25
1.72846e-23
3.58173e-24
1.98586e-22
2.94612e-23
1.52149e-21
1.82066e-22
8.35889e-21
9.44988e-22
3.47371e-20
4.29467e-21
1.14017e-19
1.68922e-20
3.06308e-19
5.64143e-20
6.94786e-19
1.5973e-19
1.36885e-18
3.8899e-19
2.40513e-18
8.33017e-19
3.82318e-18
1.59971e-18
5.61438e-18
2.82544e-18
7.70513e-18
4.66628e-18
9.73154e-18
7.10583e-18
1.11389e-17
9.59865e-18
1.17986e-17
1.07176e-17
1.29174e-17
8.92711e-18
1.35669e-17
6.49759e-18
1.44013e-17
5.46579e-18
1.95051e-17
6.27613e-19
2.45439e-17
2.83353e-18
1.82102e-17
3.98262e-17
2.02502e-17
9.59999e-19
1.91383e-17
-6.75541e-18
1.70219e-17
-7.61481e-18
1.45612e-17
-5.99943e-18
1.32872e-17
-3.19394e-18
1.42019e-17
-3.55847e-19
1.55375e-17
3.05278e-19
1.03807e-17
-4.48823e-20
2.83627e-17
4.20229e-17
1.87137e-17
5.61119e-17
5.06238e-18
3.07058e-17
-2.47322e-18
1.38006e-17
-3.10266e-19
1.33184e-17
4.54013e-18
1.09437e-17
9.12434e-18
1.12085e-17
1.162e-17
1.28118e-17
1.30712e-17
1.05337e-17
1.39581e-17
9.58542e-18
1.30795e-17
1.17502e-17
1.04757e-17
1.43684e-17
6.62188e-18
1.57993e-17
2.99941e-18
1.43698e-17
1.04958e-17
9.22652e-19
9.53102e-34
1.12086e-33
3.13606e-30
1.92414e-30
8.57454e-28
2.40232e-28
6.35372e-26
5.84247e-27
2.00546e-24
-6.87002e-26
3.41993e-23
-4.73445e-24
3.60336e-22
-6.38511e-23
2.57544e-21
-4.6074e-22
1.33609e-20
-2.11156e-21
5.30059e-20
-6.49122e-21
1.67686e-19
-1.29119e-20
4.38278e-19
-1.08931e-20
9.76853e-19
2.69823e-20
1.91286e-18
1.5663e-19
3.38793e-18
4.77425e-19
5.49128e-18
1.13008e-18
8.42498e-18
2.34874e-18
1.24066e-17
4.51892e-18
1.68342e-17
8.01984e-18
2.02718e-17
1.23767e-17
2.2269e-17
1.47737e-17
2.29816e-17
1.38073e-17
2.3155e-17
9.19444e-18
1.74506e-17
1.05455e-17
1.3511e-17
8.81191e-18
1.65477e-17
3.17025e-18
5.30501e-17
7.29808e-18
4.28379e-17
8.94743e-18
3.47793e-17
-2.82672e-18
2.9781e-17
-6.48579e-18
2.49809e-17
-4.05284e-18
2.03607e-17
-3.84611e-19
1.67605e-17
2.15676e-18
1.43228e-17
2.34539e-18
9.63198e-18
4.55733e-18
1.33958e-17
1.77673e-17
1.48302e-17
2.46527e-17
1.16043e-17
1.97404e-17
9.31579e-18
1.2308e-17
1.06361e-17
9.51444e-18
1.37379e-17
6.42486e-18
1.68739e-17
7.20411e-18
1.51246e-17
1.64142e-17
1.83423e-17
7.62753e-18
2.15488e-17
7.21325e-18
2.25733e-17
1.24036e-17
2.0736e-17
1.91018e-17
1.56825e-17
2.52104e-17
9.08229e-18
2.63702e-17
1.96754e-17
5.44512e-18
3.98065e-33
1.25223e-33
8.75896e-30
-5.4357e-31
1.90143e-27
-7.96701e-28
1.20168e-25
-6.52873e-26
3.37523e-24
-1.94865e-24
5.25035e-23
-2.97488e-23
5.13507e-22
-2.74008e-22
3.45548e-21
-1.68498e-21
1.70696e-20
-7.40337e-21
6.50722e-20
-2.43416e-20
1.99413e-19
-6.19644e-20
5.0883e-19
-1.24821e-19
1.1163e-18
-1.9975e-19
2.17194e-18
-2.44048e-19
3.86812e-18
-1.77736e-19
6.34743e-18
1.35649e-19
1.01281e-17
9.34864e-19
1.57665e-17
2.75255e-18
2.32811e-17
5.81727e-18
2.97417e-17
1.17357e-17
3.32699e-17
1.5847e-17
3.16724e-17
5.22454e-17
3.60543e-17
7.58532e-18
4.91376e-17
3.06486e-17
3.06587e-17
3.4651e-17
5.45853e-17
-8.17297e-17
6.93497e-17
-4.17068e-17
5.55522e-17
1.66871e-17
4.39342e-17
-2.00332e-18
4.16532e-17
-8.36614e-18
3.49915e-17
-1.39505e-18
2.80086e-17
3.75161e-18
2.21357e-17
6.35578e-18
1.60768e-17
7.5421e-18
1.15117e-17
9.13487e-18
1.14232e-17
1.47744e-17
1.27976e-17
1.75145e-17
1.45252e-17
1.55278e-17
1.5267e-17
1.15388e-17
1.60477e-17
9.4503e-18
1.80066e-17
5.44691e-18
1.91851e-17
5.36699e-18
1.95947e-17
1.67129e-17
2.3972e-17
3.12914e-18
2.83149e-17
3.36351e-18
3.13844e-17
1.02097e-17
3.27672e-17
1.91601e-17
2.76552e-17
3.36178e-17
1.47032e-17
9.08621e-17
3.57001e-17
1.65299e-17
1.15007e-32
-1.9753e-32
1.76751e-29
-2.75084e-29
3.11802e-27
-4.20378e-27
1.71003e-25
-2.06924e-25
4.32891e-24
-4.76328e-24
6.20427e-23
-6.21304e-23
5.70013e-22
-5.17162e-22
3.65462e-21
-2.97966e-21
1.73923e-20
-1.26071e-20
6.43579e-20
-4.09963e-20
1.92648e-19
-1.06273e-19
4.83029e-19
-2.26394e-19
1.04754e-18
-4.06233e-19
2.02787e-18
-6.26555e-19
3.61967e-18
-8.39891e-19
5.95012e-18
-9.19871e-19
9.69575e-18
-7.39545e-19
1.54885e-17
6.21826e-20
2.2201e-17
2.8252e-18
3.08732e-17
5.8505e-18
4.6683e-17
2.75323e-18
7.77454e-17
2.05123e-17
5.85313e-17
3.74461e-17
5.23273e-17
3.58386e-17
1.02846e-16
5.45204e-17
2.68012e-16
-3.05954e-16
3.09565e-16
-1.68259e-16
4.60889e-17
2.20694e-16
2.12237e-17
-2.47203e-17
5.25031e-17
-1.29194e-17
4.3329e-17
5.69398e-18
3.27434e-17
1.0036e-17
2.54539e-17
1.14165e-17
1.9633e-17
1.2527e-17
1.52592e-17
1.38727e-17
1.4924e-17
1.64641e-17
1.74599e-17
1.70384e-17
2.06219e-17
1.52581e-17
2.25674e-17
1.25547e-17
2.42323e-17
1.03929e-17
2.32408e-17
8.18135e-18
2.28261e-17
7.71361e-18
3.30337e-17
5.76203e-18
3.44304e-17
2.14293e-18
3.67195e-17
1.70214e-18
4.5204e-17
5.94646e-18
5.99632e-17
1.70934e-17
8.28858e-17
4.69419e-17
5.27717e-17
1.2097e-16
4.82497e-17
3.86231e-17
2.12337e-32
-9.18806e-32
2.37617e-29
-7.72617e-29
3.49087e-27
-8.90079e-27
1.69678e-25
-3.6652e-25
3.95732e-24
-7.47497e-24
5.36143e-23
-8.94817e-23
4.73957e-22
-7.0042e-22
2.95701e-21
-3.86532e-21
1.37896e-20
-1.5907e-20
5.03035e-20
-5.1008e-20
1.49142e-19
-1.32198e-19
3.7181e-19
-2.85719e-19
8.03674e-19
-5.29454e-19
1.55213e-18
-8.62169e-19
2.75989e-18
-1.25542e-18
4.46084e-18
-1.55688e-18
7.10706e-18
-1.68847e-18
1.00947e-17
-8.15657e-19
1.35168e-17
7.96643e-19
2.62011e-17
1.69345e-18
3.3167e-17
1.02906e-17
1.66797e-17
1.15461e-17
2.01314e-17
1.74883e-17
9.04111e-17
8.6041e-17
2.68712e-15
2.92715e-16
3.45949e-15
-1.1449e-15
1.31573e-15
2.34257e-16
8.99811e-17
3.79589e-16
8.19852e-17
-1.62185e-16
6.52564e-17
-1.77444e-17
3.82489e-17
3.31319e-17
3.26061e-17
1.45605e-17
2.62469e-17
1.5373e-17
2.12565e-17
1.63052e-17
1.82867e-17
1.65505e-17
1.83917e-17
1.67221e-17
2.03805e-17
1.58851e-17
2.29514e-17
1.39068e-17
2.525e-17
1.17783e-17
2.6903e-17
1.05513e-17
2.71408e-17
9.84463e-18
2.72746e-17
9.24001e-18
3.05081e-17
3.44827e-18
3.03798e-17
2.06971e-18
3.02953e-17
8.70187e-19
3.57762e-17
-6.19649e-19
5.2294e-17
-1.13505e-18
8.6552e-17
1.16874e-17
9.85038e-17
8.52337e-17
1.49425e-15
1.06764e-15
1.67518e-32
-1.89877e-31
1.3616e-29
-1.25814e-28
1.70596e-27
-1.24255e-26
7.85431e-26
-4.6241e-25
1.84599e-24
-8.79382e-24
2.59713e-23
-1.00051e-22
2.40661e-22
-7.5471e-22
1.57108e-21
-4.05604e-21
7.61864e-21
-1.63966e-20
2.86865e-20
-5.21095e-20
8.7203e-20
-1.35044e-19
2.21576e-19
-2.94384e-19
4.85661e-19
-5.5448e-19
9.44554e-19
-9.22989e-19
1.67255e-18
-1.37412e-18
2.62722e-18
-1.6965e-18
3.71374e-18
-1.66852e-18
5.20529e-18
-1.27949e-18
1.84555e-17
-1.86077e-18
3.03706e-17
1.336e-18
5.53353e-18
1.23449e-17
9.43045e-19
1.59793e-17
2.8791e-17
1.16619e-17
2.85219e-15
-8.89021e-17
6.6373e-15
-2.65213e-15
4.40974e-15
5.61452e-16
3.06956e-15
1.13382e-15
1.31642e-15
-3.56643e-16
3.77183e-16
3.21447e-17
7.46179e-17
2.94472e-17
3.63417e-17
2.81129e-17
2.80153e-17
1.39085e-17
2.42168e-17
1.59182e-17
2.05575e-17
1.85479e-17
1.83587e-17
1.7942e-17
1.76973e-17
1.67655e-17
1.82486e-17
1.47641e-17
1.92355e-17