/*--------------------------------*- C++ -*----------------------------------*\
| =========                 |                                                 |
| \\      /  F ield         | OpenFOAM: The Open Source CFD Toolbox           |
|  \\    /   O peration     | Version:  2.4.0                                 |
|   \\  /    A nd           | Web:      www.OpenFOAM.org                      |
|    \\/     M anipulation  |                                                 |
\*---------------------------------------------------------------------------*/
FoamFile
{
    version     2.0;
    format      ascii;
    class       volVectorField;
    location    "0.086";
    object      U;
}
// * * * * * * * * * * * * * * * * * * * * * * * * * * * * * * * * * * * * * //

dimensions      [0 1 -1 0 0 0 0];

internalField   nonuniform List<vector> 
57600
(
(-0.00284484 0.000190166 0)
(-0.00591817 5.88881e-05 0)
(-0.00991967 4.67955e-05 0)
(-0.0126827 1.66213e-05 0)
(-0.0130164 -5.33163e-05 0)
(-0.00993926 -0.000119125 0)
(-0.00494797 -0.000138577 0)
(0.00046331 -0.00013618 0)
(0.00597531 -0.000128843 0)
(0.0117602 -0.000137303 0)
(0.0182133 -0.000168737 0)
(0.0249333 -0.000174681 0)
(0.030673 -0.000123325 0)
(0.0342063 -8.28951e-06 0)
(0.0347578 0.000152548 0)
(0.0323694 0.000306034 0)
(0.027882 0.000402689 0)
(0.0223896 0.000432708 0)
(0.0168242 0.000406941 0)
(0.0118324 0.000343221 0)
(0.00774532 0.00025928 0)
(0.00463756 0.000170305 0)
(0.0024266 8.45333e-05 0)
(0.000965502 6.75177e-06 0)
(9.59571e-05 -6.17322e-05 0)
(-0.000330459 -0.000120115 0)
(-0.000449778 -0.000166367 0)
(-0.000386558 -0.000196347 0)
(-0.000243739 -0.000209767 0)
(-9.2652e-05 -0.000210524 0)
(-0.00372833 0.000795018 0)
(-0.0122312 0.000558486 0)
(-0.0198508 0.000495926 0)
(-0.0261092 0.000307897 0)
(-0.028649 -0.000193297 0)
(-0.025671 -0.000714258 0)
(-0.0185766 -0.0010569 0)
(-0.00867992 -0.00136194 0)
(0.00347993 -0.00169729 0)
(0.0174126 -0.00210627 0)
(0.0326796 -0.00249602 0)
(0.0479855 -0.00257353 0)
(0.0615706 -0.0022048 0)
(0.0719602 -0.00137061 0)
(0.0782015 -0.00019194 0)
(0.0801902 0.00104174 0)
(0.0786042 0.00210256 0)
(0.0743055 0.00290647 0)
(0.0680949 0.00341319 0)
(0.0607439 0.00362455 0)
(0.0529479 0.00359619 0)
(0.0452319 0.00341025 0)
(0.0379217 0.00314224 0)
(0.0311701 0.00284662 0)
(0.0250174 0.00255942 0)
(0.0194485 0.00230902 0)
(0.014415 0.00212007 0)
(0.00986358 0.00200904 0)
(0.00574398 0.00197259 0)
(0.00201384 0.00198589 0)
(-0.0038264 0.00145872 0)
(-0.0127974 0.00116078 0)
(-0.0209231 0.00108753 0)
(-0.0278584 0.000778191 0)
(-0.031116 -0.000180066 0)
(-0.0286134 -0.00126923 0)
(-0.0216525 -0.00208894 0)
(-0.0115307 -0.00286559 0)
(0.00107943 -0.00366885 0)
(0.0154853 -0.00454988 0)
(0.0312216 -0.00535672 0)
(0.047 -0.00557802 0)
(0.0610927 -0.00499142 0)
(0.0720889 -0.0035605 0)
(0.0790598 -0.00146954 0)
(0.0819188 0.000779872 0)
(0.0814391 0.00279961 0)
(0.0785086 0.00449252 0)
(0.0738038 0.00581608 0)
(0.0678796 0.0067399 0)
(0.0612053 0.00729668 0)
(0.0541495 0.00757215 0)
(0.0469776 0.00766779 0)
(0.0398585 0.0076714 0)
(0.0328889 0.00764441 0)
(0.0261368 0.00762432 0)
(0.019662 0.00762954 0)
(0.0135427 0.00766065 0)
(0.00786315 0.0077021 0)
(0.00268073 0.00773768 0)
(-0.00385459 0.00213019 0)
(-0.0128512 0.0017753 0)
(-0.0210441 0.00169895 0)
(-0.028125 0.00128077 0)
(-0.0315624 -0.000137684 0)
(-0.0291309 -0.00180806 0)
(-0.0221951 -0.0031179 0)
(-0.0120631 -0.00438304 0)
(0.000591225 -0.00565855 0)
(0.0150204 -0.00701521 0)
(0.0308555 -0.00825197 0)
(0.0468132 -0.00862411 0)
(0.0611191 -0.00782677 0)
(0.0723329 -0.00580187 0)
(0.0794119 -0.00277567 0)
(0.0821564 0.000508766 0)
(0.0814041 0.00347185 0)
(0.078094 0.00602126 0)
(0.072917 0.00812011 0)
(0.0665054 0.00971293 0)
(0.0594299 0.0108291 0)
(0.0521236 0.0115739 0)
(0.0448647 0.012077 0)
(0.0378064 0.0124551 0)
(0.0310204 0.0127896 0)
(0.0245416 0.0131174 0)
(0.0183956 0.0134313 0)
(0.0126298 0.0136904 0)
(0.00730233 0.0138512 0)
(0.00245259 0.0139115 0)
(-0.00388365 0.00280545 0)
(-0.0128529 0.00239145 0)
(-0.0210628 0.00231476 0)
(-0.028234 0.00179651 0)
(-0.0317924 -8.79517e-05 0)
(-0.0293535 -0.00234805 0)
(-0.0224075 -0.0041461 0)
(-0.01229 -0.00590212 0)
(0.000355769 -0.00764803 0)
(0.0147409 -0.00948204 0)
(0.0306611 -0.0111758 0)
(0.0468494 -0.0117181 0)
(0.0614709 -0.0107276 0)
(0.0730617 -0.00811642 0)
(0.0804398 -0.00410949 0)
(0.0832348 0.00027158 0)
(0.0824088 0.00421421 0)
(0.0789639 0.00767551 0)
(0.0735154 0.0106243 0)
(0.0666761 0.0129449 0)
(0.0590752 0.014637 0)
(0.0512323 0.0158195 0)
(0.0435051 0.016658 0)
(0.0361113 0.0173022 0)
(0.0291676 0.0178602 0)
(0.0227322 0.0183817 0)
(0.01682 0.0188551 0)
(0.0114309 0.0192239 0)
(0.00654989 0.0194364 0)
(0.00214839 0.0194989 0)
(-0.00392092 0.0034852 0)
(-0.0128481 0.00300808 0)
(-0.0210718 0.00293352 0)
(-0.0283472 0.00232565 0)
(-0.0320525 -3.28046e-05 0)
(-0.0295968 -0.00289223 0)
(-0.0226426 -0.00517203 0)
(-0.0125563 -0.00741908 0)
(7.15722e-05 -0.00963192 0)
(0.014386 -0.0119453 0)
(0.0304095 -0.0141351 0)
(0.0468903 -0.0148747 0)
(0.0619122 -0.013718 0)
(0.0739937 -0.0105434 0)
(0.0817939 -0.00550223 0)
(0.0846661 4.37523e-05 0)
(0.0837988 0.00497277 0)
(0.0803255 0.00937026 0)
(0.074755 0.0132301 0)
(0.0676747 0.0163444 0)
(0.0597616 0.01866 0)
(0.0515826 0.020305 0)
(0.0435316 0.0214718 0)
(0.035856 0.0223376 0)
(0.0287026 0.0230327 0)
(0.0221556 0.0236238 0)
(0.0162402 0.0241171 0)
(0.0109404 0.0244751 0)
(0.00620478 0.0246653 0)
(0.00196721 0.0247027 0)
(-0.00396793 0.00417059 0)
(-0.0128405 0.00362509 0)
(-0.0210794 0.00355556 0)
(-0.0284812 0.00287154 0)
(-0.0323718 2.90744e-05 0)
(-0.0298937 -0.00344173 0)
(-0.0229325 -0.00619435 0)
(-0.0128871 -0.00893313 0)
(-0.000275227 -0.0116097 0)
(0.0139406 -0.014402 0)
(0.0300883 -0.0171394 0)
(0.0469249 -0.0181082 0)
(0.0624328 -0.0168191 0)
(0.0751168 -0.013125 0)
(0.0834881 -0.00697367 0)
(0.0864282 -0.000164768 0)
(0.0855019 0.00573424 0)
(0.0820496 0.0110783 0)
(0.0763878 0.0159073 0)
(0.0690744 0.0198659 0)
(0.0608726 0.0228326 0)
(0.0524194 0.0249481 0)
(0.0441348 0.0264406 0)
(0.0362657 0.0275165 0)
(0.0289537 0.0283236 0)
(0.0222788 0.0289442 0)
(0.0162646 0.029407 0)
(0.0108935 0.0297061 0)
(0.00611123 0.029838 0)
(0.00184763 0.0298294 0)
(-0.00402604 0.00486292 0)
(-0.0128298 0.00424237 0)
(-0.0210854 0.0041813 0)
(-0.0286362 0.00343805 0)
(-0.0327548 9.9292e-05 0)
(-0.030246 -0.00399797 0)
(-0.0232778 -0.00721183 0)
(-0.0132841 -0.0104439 0)
(-0.000681569 -0.0135808 0)
(0.013397 -0.0168472 0)
(0.0296899 -0.0201994 0)
(0.0469463 -0.0214327 0)
(0.0630298 -0.0200478 0)
(0.0764176 -0.0159223 0)
(0.0855673 -0.00854654 0)
(0.0885313 -0.000330749 0)
(0.0875038 0.00648573 0)
(0.0841481 0.0127802 0)
(0.0784186 0.018658 0)
(0.0708301 0.0235246 0)
(0.0622821 0.0271618 0)
(0.0535156 0.0297384 0)
(0.0449831 0.0315385 0)
(0.0369255 0.0328091 0)
(0.0294616 0.0337206 0)
(0.0226486 0.0343705 0)
(0.0164961 0.0348053 0)
(0.0109861 0.0350445 0)
(0.00607488 0.0351076 0)
(0.00170578 0.0350334 0)
(-0.00409686 0.00556361 0)
(-0.0128156 0.0048598 0)
(-0.0210889 0.00481103 0)
(-0.0288111 0.00402935 0)
(-0.0332045 0.000179485 0)
(-0.0306529 -0.00456281 0)
(-0.0236776 -0.00822308 0)
(-0.0137486 -0.011951 0)
(-0.00114296 -0.015544 0)
(0.0127456 -0.0192732 0)
(0.0292059 -0.0233284 0)
(0.0469452 -0.0248609 0)
(0.063705 -0.023408 0)
(0.0778651 -0.0190333 0)
(0.0881044 -0.0102497 0)
(0.0909866 -0.000404392 0)
(0.0897764 0.00720433 0)
(0.0866471 0.0144453 0)
(0.080887 0.0214908 0)
(0.0729581 0.0273539 0)
(0.063974 0.0316827 0)
(0.0548206 0.0347026 0)
(0.0459903 0.0367816 0)
(0.0377107 0.0382249 0)
(0.0300697 0.0392341 0)
(0.0230939 0.0399241 0)
(0.0167715 0.0403524 0)
(0.0110807 0.040549 0)
(0.00599273 0.040542 0)
(0.00147584 0.0403759 0)
(-0.00418236 0.00627429 0)
(-0.012797 0.00547723 0)
(-0.0210888 0.00544491 0)
(-0.0290044 0.00465002 0)
(-0.0337248 0.000271316 0)
(-0.0311133 -0.00513862 0)
(-0.0241312 -0.00922651 0)
(-0.0142823 -0.0134542 0)
(-0.00165341 -0.0174995 0)
(0.011973 -0.0216685 0)
(0.0286275 -0.0265455 0)
(0.04691 -0.0284036 0)
(0.0644677 -0.0268696 0)
(0.0794073 -0.022622 0)
(0.0912225 -0.0121228 0)
(0.093807 -0.000289833 0)
(0.0922662 0.00784442 0)
(0.089588 0.0160252 0)
(0.0838525 0.0244194 0)
(0.0754865 0.0314015 0)
(0.0659441 0.0364447 0)
(0.0563124 0.0398789 0)
(0.0471251 0.042198 0)
(0.0385854 0.0437855 0)
(0.0307407 0.0448839 0)
(0.023579 0.0456277 0)
(0.0170593 0.046081 0)
(0.0111465 0.0462689 0)
(0.00582032 0.046205 0)
(0.00108459 0.0459168 0)
(-0.00428485 0.0069967 0)
(-0.0127734 0.00609441 0)
(-0.0210841 0.00608289 0)
(-0.0292139 0.00530504 0)
(-0.0343203 0.000376512 0)
(-0.0316257 -0.00572844 0)
(-0.0246373 -0.0102202 0)
(-0.014888 -0.0149528 0)
(-0.00220359 -0.0194579 0)
(0.0110614 -0.0240149 0)
(0.0279475 -0.0298822 0)
(0.0468257 -0.0320689 0)
(0.0653281 -0.0303313 0)
(0.0810061 -0.0269551 0)
(0.0951365 -0.0142224 0)
(0.0970116 0.00019895 0)
(0.0948763 0.00830974 0)
(0.0930386 0.0174437 0)
(0.0874014 0.0274672 0)
(0.0784485 0.0357366 0)
(0.0681823 0.0415093 0)
(0.0579647 0.0453107 0)
(0.0483608 0.0478157 0)
(0.0395299 0.0495093 0)
(0.0314679 0.0506828 0)
(0.0241139 0.0514952 0)
(0.0173869 0.0520164 0)
(0.0112175 0.0522633 0)
(0.00555159 0.0522029 0)
(0.000415528 0.0517596 0)
(-0.00440706 0.00773295 0)
(-0.0127439 0.00671107 0)
(-0.0210733 0.0067247 0)
(-0.0294372 0.00599993 0)
(-0.0349969 0.000496871 0)
(-0.0321878 -0.00633611 0)
(-0.0251944 -0.0112019 0)
(-0.0155695 -0.0164456 0)
(-0.00277943 -0.021424 0)
(0.0099861 -0.0262848 0)
(0.0271651 -0.0333956 0)
(0.0466759 -0.0358634 0)
(0.0662259 -0.0336076 0)
(0.0827471 -0.0324298 0)
(0.100203 -0.0166032 0)
(0.100646 0.00144016 0)
(0.0974526 0.00839226 0)
(0.0971138 0.0185894 0)
(0.0916595 0.0306772 0)
(0.0818821 0.0404599 0)
(0.070666 0.0469557 0)
(0.0597389 0.0510433 0)
(0.0496624 0.0536592 0)
(0.0405229 0.0554049 0)
(0.0322481 0.0566293 0)
(0.0247211 0.0575194 0)
(0.0178131 0.0581564 0)
(0.0114169 0.0585678 0)
(0.00540027 0.0587913 0)
(-0.000583573 0.0587496 0)
(-0.00455227 0.0084855 0)
(-0.0127073 0.00732687 0)
(-0.0210554 0.00736982 0)
(-0.0296709 0.00674085 0)
(-0.0357616 0.000634292 0)
(-0.032797 -0.00696658 0)
(-0.0258015 -0.012169 0)
(-0.0163321 -0.0179305 0)
(-0.00336364 -0.0234108 0)
(0.00871154 -0.0284361 0)
(0.0262966 -0.0371853 0)
(0.0464504 -0.0398034 0)
(0.0667003 -0.0366437 0)
(0.084094 -0.0391842 0)
(0.106503 -0.0191777 0)
(0.104741 0.00423674 0)
(0.0998145 0.00763396 0)
(0.10201 0.019311 0)
(0.096811 0.0341293 0)
(0.0858229 0.0457212 0)
(0.07335 0.0528796 0)
(0.0615785 0.0571233 0)
(0.0509822 0.0597456 0)
(0.0415294 0.06147 0)
(0.0330691 0.0627033 0)
(0.0254192 0.0636666 0)
(0.0183927 0.0644525 0)
(0.0118609 0.0650622 0)
(0.00587289 0.0654955 0)
(0.00113422 0.0653384 0)
(-0.00472444 0.00925717 0)
(-0.0126625 0.0079414 0)
(-0.021029 0.00801735 0)
(-0.0299109 0.00753464 0)
(-0.0366228 0.000790789 0)
(-0.0334495 -0.00762602 0)
(-0.026457 -0.0131185 0)
(-0.0171827 -0.0194032 0)
(-0.00393339 -0.0254436 0)
(0.00718523 -0.0304035 0)
(0.0254035 -0.041401 0)
(0.0461634 -0.0439414 0)
(0.0659869 -0.0401326 0)
(0.0849116 -0.0458177 0)
(0.11347 -0.0218852 0)
(0.108539 0.0102491 0)
(0.102158 0.00511266 0)
(0.108036 0.0194457 0)
(0.103123 0.0379697 0)
(0.0902883 0.0517445 0)
(0.0761481 0.0593933 0)
(0.0634036 0.0635905 0)
(0.0522577 0.0660837 0)
(0.0425021 0.0676906 0)
(0.0339027 0.068864 0)
(0.0262147 0.0698702 0)
(0.0191716 0.0708377 0)
(0.0124994 0.0717372 0)
(0.00597251 0.0721136 0)
(0.000117513 0.0701357 0)
(-0.00492825 0.0100513 0)
(-0.012608 0.00855425 0)
(-0.0209928 0.00866605 0)
(-0.0301519 0.00838908 0)
(-0.0375909 0.000968555 0)
(-0.0341401 -0.00832228 0)
(-0.02716 -0.0140465 0)
(-0.0181299 -0.0208563 0)
(-0.00445833 -0.0275658 0)
(0.00532749 -0.032085 0)
(0.0246561 -0.046242 0)
(0.0458932 -0.0483806 0)
(0.0667014 -0.04512 0)
(0.0857819 -0.0502472 0)
(0.12558 -0.0255343 0)
(0.112283 0.0207211 0)
(0.101297 -0.000134701 0)
(0.115044 0.0186749 0)
(0.111002 0.0424545 0)
(0.0952382 0.05887 0)
(0.0789062 0.0666114 0)
(0.0651084 0.0704674 0)
(0.0534127 0.0726732 0)
(0.0433744 0.074044 0)
(0.0346937 0.0750527 0)
(0.0270868 0.0760201 0)
(0.0202396 0.0771623 0)
(0.0137663 0.0786347 0)
(0.00703646 0.0802928 0)
(-0.00037784 0.0778078 0)
(-0.00516931 0.010872 0)
(-0.0125422 0.00916498 0)
(-0.0209458 0.00931422 0)
(-0.0303871 0.00931293 0)
(-0.0386783 0.00117002 0)
(-0.0348624 -0.0090652 0)
(-0.0279102 -0.0149487 0)
(-0.019184 -0.0222766 0)
(-0.00489987 -0.0298512 0)
(0.00300915 -0.0333208 0)
(0.0244757 -0.0519732 0)
(0.0458407 -0.053243 0)
(0.0756615 -0.0501165 0)
(0.0704671 -0.0556985 0)
(0.142695 -0.0276879 0)
(0.122525 0.0341911 0)
(0.0904229 -0.0100007 0)
(0.125403 0.0156711 0)
(0.121503 0.0481573 0)
(0.100494 0.0676253 0)
(0.0813721 0.0746085 0)
(0.0665772 0.0777432 0)
(0.0543638 0.0795062 0)
(0.0440602 0.0805074 0)
(0.0353474 0.0812064 0)
(0.0279374 0.0819702 0)
(0.0215447 0.0830837 0)
(0.0159169 0.0848401 0)
(0.0108453 0.08742 0)
(0.00577629 0.0859521 0)
(-0.00545422 0.0117239 0)
(-0.0124631 0.00977318 0)
(-0.0208872 0.00995962 0)
(-0.0306081 0.0103161 0)
(-0.0399003 0.00139795 0)
(-0.0356074 -0.00986703 0)
(-0.0287087 -0.0158197 0)
(-0.0203564 -0.0236415 0)
(-0.00521051 -0.0324255 0)
(2.159e-05 -0.0338973 0)
(0.0259474 -0.0589265 0)
(0.0473575 -0.058514 0)
(0.0845333 -0.0542734 0)
(0.0683401 -0.0795695 0)
(0.166443 -0.0248387 0)
(0.133504 0.0516902 0)
(0.112424 -0.0224528 0)
(0.15349 0.0127512 0)
(0.136546 0.0573144 0)
(0.105351 0.0787998 0)
(0.0831593 0.0833113 0)
(0.0677085 0.085354 0)
(0.0550331 0.0865762 0)
(0.0444561 0.0870702 0)
(0.0357283 0.0872806 0)
(0.0285679 0.0876119 0)
(0.0227231 0.0883424 0)
(0.0180648 0.0896878 0)
(0.0146424 0.0917247 0)
(0.0120822 0.0913768 0)
(-0.00579077 0.012613 0)
(-0.0123685 0.0103785 0)
(-0.0208164 0.0105994 0)
(-0.0308038 0.0114098 0)
(-0.0412753 0.00165556 0)
(-0.0363639 -0.0107434 0)
(-0.029559 -0.016653 0)
(-0.021657 -0.0249149 0)
(-0.005336 -0.0355003 0)
(-0.00392743 -0.0335482 0)
(0.0318206 -0.0674297 0)
(0.0536286 -0.0611623 0)
(0.104545 -0.0588702 0)
(0.119538 -0.104474 0)
(0.20401 -0.0178574 0)
(0.149012 0.0687134 0)
(0.184506 -0.0378294 0)
(0.199537 0.0181131 0)
(0.152251 0.073502 0)
(0.107475 0.0928908 0)
(0.0838183 0.0922404 0)
(0.0685031 0.0931922 0)
(0.0553575 0.0939042 0)
(0.0444436 0.0937467 0)
(0.0356778 0.0932688 0)
(0.0287456 0.0929361 0)
(0.023357 0.0929773 0)
(0.0193655 0.0934678 0)
(0.0167538 0.094327 0)
(0.0152549 0.0939405 0)
(-0.00618817 0.0135463 0)
(-0.0122556 0.0109809 0)
(-0.0207336 0.0112302 0)
(-0.0309603 0.0126069 0)
(-0.0428256 0.00194671 0)
(-0.0371172 -0.0117136 0)
(-0.0304693 -0.0174402 0)
(-0.02309 -0.0260395 0)
(-0.00521348 -0.0394232 0)
(-0.00929827 -0.0318617 0)
(0.0416359 -0.0779136 0)
(0.048309 -0.0552862 0)
(0.126586 -0.0518833 0)
(0.174561 -0.107017 0)
(0.197571 -0.0291639 0)
(0.174334 0.0773513 0)
(0.276929 -0.0575608 0)
(0.243448 0.0381063 0)
(0.161553 0.0988241 0)
(0.106841 0.108865 0)
(0.084172 0.100523 0)
(0.0692082 0.101235 0)
(0.0552849 0.101579 0)
(0.0438934 0.100582 0)
(0.035036 0.0991908 0)
(0.0282844 0.0980031 0)
(0.0232049 0.0971902 0)
(0.0195509 0.0967078 0)
(0.0171922 0.0964213 0)
(0.0158626 0.0955147 0)
(-0.00665725 0.0145326 0)
(-0.0121215 0.0115804 0)
(-0.0206396 0.0118478 0)
(-0.03106 0.0139221 0)
(-0.0445777 0.00227613 0)
(-0.0378486 -0.0128025 0)
(-0.0314548 -0.0181711 0)
(-0.0246445 -0.0269289 0)
(-0.00475133 -0.0447472 0)
(-0.0168571 -0.0283297 0)
(0.0226194 -0.0896761 0)
(0.0191133 -0.0777038 0)
(0.0485529 -0.0459376 0)
(0.165841 -0.109643 0)
(0.110537 -0.0619936 0)
(0.192539 0.0552701 0)
(0.325858 -0.0616779 0)
(0.251626 0.0675463 0)
(0.161273 0.131081 0)
(0.105227 0.123456 0)
(0.0870948 0.108533 0)
(0.0702683 0.109976 0)
(0.0546938 0.109828 0)
(0.0425707 0.107624 0)
(0.0336391 0.105054 0)
(0.0270758 0.10287 0)
(0.0222087 0.101169 0)
(0.0186677 0.0997682 0)
(0.016314 0.0984406 0)
(0.0152116 0.0966933 0)
(-0.00721067 0.0155827 0)
(-0.0119624 0.0121777 0)
(-0.0205365 0.0124475 0)
(-0.0310799 0.0153721 0)
(-0.0465639 0.00264975 0)
(-0.0385345 -0.0140424 0)
(-0.0325431 -0.0188344 0)
(-0.026278 -0.0274585 0)
(-0.00407058 -0.0524997 0)
(-0.0278737 -0.0224619 0)
(-0.0632426 -0.103862 0)
(0.0141253 -0.116017 0)
(0.00836962 -0.0817252 0)
(0.0732622 -0.103869 0)
(0.00432864 -0.0835158 0)
(0.208014 -0.0168118 0)
(0.27783 -0.0464478 0)
(0.210529 0.0926938 0)
(0.149762 0.160663 0)
(0.103415 0.136175 0)
(0.0887833 0.115519 0)
(0.0713663 0.120389 0)
(0.0532719 0.118887 0)
(0.0403339 0.114937 0)
(0.0313517 0.110807 0)
(0.0250933 0.107521 0)
(0.0204567 0.105031 0)
(0.0168555 0.102921 0)
(0.0140707 0.100692 0)
(0.0123498 0.0967986 0)
(-0.00786326 0.0167102 0)
(-0.0117741 0.012774 0)
(-0.0204276 0.013024 0)
(-0.0309908 0.0169764 0)
(-0.0488225 0.00307514 0)
(-0.0391445 -0.0154772 0)
(-0.0337791 -0.0194194 0)
(-0.0278874 -0.0274558 0)
(-0.0108887 -0.0615003 0)
(-0.0440357 -0.0148216 0)
(-0.0655323 -0.124996 0)
(-0.0242652 -0.112718 0)
(-0.0372254 -0.0997819 0)
(-0.0492671 -0.0904982 0)
(-0.0893357 -0.10306 0)
(0.125989 -0.0661158 0)
(0.185287 -0.0349094 0)
(0.144821 0.102543 0)
(0.135199 0.177313 0)
(0.106588 0.150817 0)
(0.086892 0.120007 0)
(0.070697 0.132314 0)
(0.0502504 0.128929 0)
(0.0363463 0.122437 0)
(0.0279062 0.116217 0)
(0.0224089 0.111799 0)
(0.0181765 0.108765 0)
(0.0145758 0.106369 0)
(0.0112493 0.104159 0)
(0.00754055 0.101157 0)
(-0.00863222 0.0179325 0)
(-0.0115516 0.0133718 0)
(-0.0203181 0.013572 0)
(-0.0307549 0.0187576 0)
(-0.0513984 0.00356188 0)
(-0.0396395 -0.0171683 0)
(-0.0352358 -0.0199174 0)
(-0.029261 -0.0266912 0)
(-0.0560636 -0.0599193 0)
(-0.0626931 -0.0101622 0)
(-0.00803475 -0.105159 0)
(-0.0411643 -0.0782243 0)
(-0.0364442 -0.063549 0)
(-0.0390747 -0.0958517 0)
(0.00347693 -0.123285 0)
(-0.0197696 -0.0877632 0)
(-0.282292 -0.000970437 0)
(0.112367 0.0992559 0)
(0.124671 0.174952 0)
(0.139847 0.167096 0)
(0.0956197 0.129583 0)
(0.0677866 0.1454 0)
(0.0456884 0.140389 0)
(0.0301037 0.129788 0)
(0.023196 0.120574 0)
(0.0192814 0.11535 0)
(0.0157457 0.112229 0)
(0.0123007 0.109896 0)
(0.00909375 0.107789 0)
(0.0065611 0.104917 0)
(-0.00953742 0.0192718 0)
(-0.0112891 0.013975 0)
(-0.020216 0.0140863 0)
(-0.0303234 0.0207418 0)
(-0.0543445 0.00412221 0)
(-0.039967 -0.0192044 0)
(-0.0370271 -0.0203243 0)
(-0.0299838 -0.0248708 0)
(-0.111214 -0.0439891 0)
(-0.061911 -0.0174635 0)
(2.02873 -0.272601 0)
(0.874177 -0.019136 0)
(0.32616 -0.0242576 0)
(0.147253 -0.0988558 0)
(0.119418 -0.129547 0)
(0.0536614 0.0495571 0)
(-0.537715 -0.414027 0)
(0.0379865 0.0943565 0)
(0.142849 0.150775 0)
(0.191326 0.181639 0)
(0.112254 0.154925 0)
(0.0647474 0.16201 0)
(0.0416338 0.152639 0)
(0.0246046 0.13739 0)
(0.0183095 0.123258 0)
(0.0163462 0.117798 0)
(0.0136606 0.115323 0)
(0.0103038 0.113435 0)
(0.0068644 0.111298 0)
(0.00362674 0.10845 0)
(-0.0106017 0.0207576 0)
(-0.0109801 0.0145898 0)
(-0.0201325 0.0145637 0)
(-0.0296328 0.0229595 0)
(-0.0577209 0.00477128 0)
(-0.0400532 -0.0217184 0)
(-0.0393293 -0.0206413 0)
(-0.0292736 -0.0217723 0)
(-0.128125 -0.0266779 0)
(-0.0169058 -0.0222112 0)
(0.590488 -0.30534 0)
(0.943481 -0.00535592 0)
(0.750101 0.0984269 0)
(0.351081 -0.0673579 0)
(0.220336 -0.108525 0)
(0.196975 0.0867692 0)
(0.0210534 -0.115898 0)
(-0.201594 -0.154723 0)
(0.0678997 0.101428 0)
(0.170206 0.192651 0)
(0.111628 0.195121 0)
(0.0622037 0.180567 0)
(0.0421172 0.163783 0)
(0.0243776 0.146838 0)
(0.0160556 0.124919 0)
(0.0148316 0.119251 0)
(0.0125271 0.118164 0)
(0.00897251 0.11727 0)
(0.00480335 0.115644 0)
(0.000239682 0.114061 0)
(-0.0118508 0.0224299 0)
(-0.0106172 0.0152258 0)
(-0.0200828 0.0150042 0)
(-0.0286001 0.025446 0)
(-0.0615946 0.00552709 0)
(-0.0397887 -0.0249231 0)
(-0.0424046 -0.0208744 0)
(-0.0260547 -0.0175675 0)
(-0.0835624 -0.0219113 0)
(0.171705 -0.132594 0)
(0.334307 -0.250035 0)
(0.778737 -0.0917957 0)
(0.849301 0.186424 0)
(0.484319 0.00202073 0)
(0.303246 -0.103357 0)
(0.249445 0.0695327 0)
(0.275118 0.126276 0)
(-1.95426 -0.0656272 0)
(0.0804866 0.112197 0)
(0.0714932 0.179544 0)
(0.0802913 0.220792 0)
(0.0569759 0.192852 0)
(0.0488736 0.172463 0)
(0.0324669 0.158707 0)
(0.0197532 0.128238 0)
(0.0158777 0.120873 0)
(0.0128664 0.121217 0)
(0.00865649 0.121809 0)
(0.00342061 0.121283 0)
(-0.00226069 0.121207 0)
(-0.013313 0.0243453 0)
(-0.0101926 0.0158969 0)
(-0.0200873 0.0154115 0)
(-0.0271166 0.0282427 0)
(-0.0660373 0.00640962 0)
(-0.0390002 -0.0291599 0)
(-0.0466334 -0.0210276 0)
(-0.0203018 -0.0127722 0)
(-0.0136698 -0.0309896 0)
(0.50316 -0.155488 0)
(0.265169 -0.260154 0)
(0.590855 -0.169758 0)
(0.692344 0.208026 0)
(0.498755 0.0801028 0)
(0.294928 -0.0917907 0)
(0.14261 0.061611 0)
(0.437409 0.241801 0)
(0.67235 -0.0891689 0)
(0.00167534 0.214906 0)
(0.00527575 0.153391 0)
(0.0352328 0.217752 0)
(0.0451987 0.193434 0)
(0.0535827 0.174507 0)
(0.0457459 0.172216 0)
(0.0265877 0.135833 0)
(0.0191604 0.123863 0)
(0.0150137 0.125056 0)
(0.0096605 0.127432 0)
(0.00328096 0.12821 0)
(-0.00318775 0.129064 0)
(-0.0150226 0.0265776 0)
(-0.00969731 0.0166248 0)
(-0.0201729 0.0157935 0)
(-0.0250386 0.0313984 0)
(-0.0711202 0.00743901 0)
(-0.0373914 -0.0349625 0)
(-0.052627 -0.021002 0)
(-0.0208212 -0.00859126 0)
(0.0176923 -0.0236996 0)
(0.447783 -0.193033 0)
(0.187992 -0.283942 0)
(0.384955 -0.197695 0)
(0.435566 0.201685 0)
(0.425711 0.134521 0)
(0.283334 -0.0369439 0)
(0.179689 0.0614245 0)
(0.296042 0.188609 0)
(0.374984 0.0232768 0)
(1.18585 -0.0560937 0)
(-0.0165848 0.118328 0)
(0.0218486 0.201635 0)
(0.0346701 0.190172 0)
(0.0530595 0.164968 0)
(0.0582821 0.1847 0)
(0.0354811 0.148464 0)
(0.0247911 0.127963 0)
(0.018834 0.130109 0)
(0.0119015 0.134354 0)
(0.00445861 0.136264 0)
(-0.00264132 0.137383 0)
(-0.0170572 0.0291249 0)
(-0.00912275 0.017441 0)
(-0.0203749 0.0161621 0)
(-0.0221766 0.0349709 0)
(-0.0769034 0.00863396 0)
(-0.0344331 -0.0431382 0)
(-0.0617622 -0.0199895 0)
(-0.0599525 -0.0107015 0)
(0.0226598 -0.034586 0)
(0.18193 -0.152572 0)
(0.116737 -0.291662 0)
(0.161934 -0.213182 0)
(0.176344 0.152571 0)
(0.34339 0.14268 0)
(0.299734 0.000826303 0)
(0.171331 0.0732971 0)
(0.209117 0.137202 0)
(0.245243 0.113783 0)
(-0.442982 -0.137496 0)
(-0.277537 0.0288134 0)
(0.00807638 0.162843 0)
(0.052029 0.182955 0)
(0.0575285 0.155226 0)
(0.0680276 0.191511 0)
(0.0516313 0.164666 0)
(0.0356483 0.134862 0)
(0.024812 0.137922 0)
(0.0152457 0.142732 0)
(0.00673821 0.145349 0)
(-0.00116402 0.146288 0)
(-0.0185456 0.030853 0)
(-0.00847751 0.0183875 0)
(-0.0207438 0.0165355 0)
(-0.0182797 0.0390269 0)
(-0.0834205 0.0100104 0)
(-0.0306178 -0.0546548 0)
(-0.0758092 -0.0156704 0)
(-0.137464 -0.0274502 0)
(2.80322 -0.165636 0)
(0.0386828 -0.11002 0)
(0.0653497 -0.288333 0)
(-0.11665 -0.140485 0)
(0.0173609 0.0730095 0)
(0.32457 0.106325 0)
(0.24645 0.0416833 0)
(0.128927 0.0830885 0)
(0.14109 0.10762 0)
(0.159287 0.170606 0)
(-0.322309 0.162628 0)
(0.279965 0.337333 0)
(-0.0551412 0.120927 0)
(0.0183178 0.163974 0)
(0.0491649 0.149962 0)
(0.0615314 0.185996 0)
(0.0641831 0.177927 0)
(0.0485804 0.147662 0)
(0.0307479 0.150126 0)
(0.0184059 0.15271 0)
(0.00904214 0.155427 0)
(0.000437701 0.156029 0)
(3.38155e-05 -0.000204367 0)
(0.000133956 -0.00019462 0)
(0.000202108 -0.000180999 0)
(0.000212409 -0.000161505 0)
(0.000118308 -0.000132431 0)
(-0.000158606 -9.15851e-05 0)
(-0.000729207 -3.97206e-05 0)
(-0.00172647 2.23436e-05 0)
(-0.00330642 9.55543e-05 0)
(-0.00563381 0.000177211 0)
(-0.00885236 0.000261347 0)
(-0.0130193 0.000338332 0)
(-0.018007 0.000393973 0)
(-0.0234185 0.000410454 0)
(-0.0285778 0.000373831 0)
(-0.0325905 0.000275942 0)
(-0.0344803 0.000129988 0)
(-0.0335726 -1.66018e-05 0)
(-0.0298573 -0.000125725 0)
(-0.0239791 -0.000177265 0)
(-0.017153 -0.000170157 0)
(-0.010661 -0.000139631 0)
(-0.00489863 -0.000128262 0)
(0.000563377 -0.000136941 0)
(0.00614811 -0.000143528 0)
(0.0111513 -0.000111941 0)
(0.0135415 -3.31616e-05 0)
(0.0124035 2.81293e-05 0)
(0.00920565 5.42101e-05 0)
(0.00478996 7.32815e-05 0)
(-0.00148935 0.00202285 0)
(-0.00513891 0.00207007 0)
(-0.00917914 0.00212682 0)
(-0.0136325 0.00220488 0)
(-0.0185266 0.00232595 0)
(-0.0238997 0.00250367 0)
(-0.0298061 0.00273458 0)
(-0.0362851 0.00299998 0)
(-0.0433384 0.00326634 0)
(-0.0508654 0.00347807 0)
(-0.0585939 0.0035561 0)
(-0.0660258 0.00340836 0)
(-0.0724556 0.00296921 0)
(-0.0771072 0.00224246 0)
(-0.0792793 0.00128974 0)
(-0.0783181 0.00018159 0)
(-0.0735736 -0.000948153 0)
(-0.0648102 -0.00186786 0)
(-0.05247 -0.00242741 0)
(-0.037666 -0.0025473 0)
(-0.0221448 -0.00226163 0)
(-0.00762533 -0.00181604 0)
(0.00506411 -0.00143946 0)
(0.0157462 -0.00117268 0)
(0.0241643 -0.000876363 0)
(0.0288275 -0.000367695 0)
(0.0277483 0.000212594 0)
(0.0220474 0.000476958 0)
(0.0145864 0.000538752 0)
(0.00600214 0.000569443 0)
(-0.00216891 0.00776159 0)
(-0.00717326 0.00776676 0)
(-0.0126346 0.00773957 0)
(-0.0185226 0.00767828 0)
(-0.0247783 0.00760785 0)
(-0.0313318 0.00755966 0)
(-0.0381308 0.00754327 0)
(-0.045119 0.00753595 0)
(-0.0522216 0.00747893 0)
(-0.0592875 0.00727499 0)
(-0.0660572 0.00680411 0)
(-0.0721438 0.00595751 0)
(-0.0770495 0.0046949 0)
(-0.0802416 0.00308698 0)
(-0.0812103 0.00124587 0)
(-0.0793369 -0.000776766 0)
(-0.0738611 -0.00278663 0)
(-0.0644877 -0.00438714 0)
(-0.0516263 -0.00532722 0)
(-0.0363363 -0.00546572 0)
(-0.0203396 -0.00485411 0)
(-0.00535103 -0.00392113 0)
(0.00778621 -0.00306239 0)
(0.0187563 -0.00236937 0)
(0.0271646 -0.00162506 0)
(0.0314621 -0.000531584 0)
(0.0297056 0.000604228 0)
(0.0232855 0.00106732 0)
(0.0152768 0.00113748 0)
(0.00626383 0.00116807 0)
(-0.00207994 0.0139002 0)
(-0.00675176 0.0138263 0)
(-0.0118481 0.013665 0)
(-0.0173571 0.0133975 0)
(-0.0232505 0.0130521 0)
(-0.029496 0.0126876 0)
(-0.0360778 0.01234 0)
(-0.0429733 0.0119909 0)
(-0.0501317 0.0115616 0)
(-0.0574171 0.0109206 0)
(-0.0645658 0.00991116 0)
(-0.0711396 0.00839723 0)
(-0.0765313 0.00634582 0)
(-0.0801009 0.00388754 0)
(-0.0813292 0.00118489 0)
(-0.0796072 -0.00175234 0)
(-0.0741053 -0.0046647 0)
(-0.064581 -0.00694908 0)
(-0.0515271 -0.00827002 0)
(-0.0360348 -0.00842332 0)
(-0.0198926 -0.00747338 0)
(-0.0048566 -0.00604558 0)
(0.00829966 -0.00469772 0)
(0.0192751 -0.00356816 0)
(0.0276884 -0.00236356 0)
(0.0319467 -0.000670315 0)
(0.0300267 0.00103013 0)
(0.0234347 0.00168059 0)
(0.0153507 0.00174915 0)
(0.00629726 0.00177458 0)
(-0.00195707 0.0194558 0)
(-0.00619909 0.0193232 0)
(-0.0108594 0.0190766 0)
(-0.0159713 0.0186968 0)
(-0.0215727 0.0182116 0)
(-0.0276924 0.0176845 0)
(-0.034346 0.0171529 0)
(-0.0415063 0.0165849 0)
(-0.0490894 0.0158717 0)
(-0.0569051 0.0148423 0)
(-0.064612 0.0132948 0)
(-0.071673 0.011062 0)
(-0.0773792 0.00813378 0)
(-0.0810567 0.00474924 0)
(-0.0823019 0.00115599 0)
(-0.0805669 -0.00273316 0)
(-0.0748757 -0.00659413 0)
(-0.0650547 -0.0095674 0)
(-0.0516998 -0.0112655 0)
(-0.0359296 -0.0114197 0)
(-0.0196252 -0.0101047 0)
(-0.00459182 -0.00816821 0)
(0.00852082 -0.00632978 0)
(0.0194655 -0.00476794 0)
(0.0279095 -0.00310576 0)
(0.0322005 -0.000804939 0)
(0.0301777 0.00147069 0)
(0.0234665 0.00229993 0)
(0.0153637 0.00236176 0)
(0.00631296 0.00237906 0)
(-0.00197514 0.0246305 0)
(-0.00605271 0.0244642 0)
(-0.0105528 0.0241854 0)
(-0.0155345 0.0237841 0)
(-0.0210713 0.0232816 0)
(-0.0272236 0.0227198 0)
(-0.0340178 0.0221093 0)
(-0.0414158 0.0213902 0)
(-0.0493105 0.0204231 0)
(-0.0574825 0.019 0)
(-0.0655527 0.0168769 0)
(-0.0729196 0.0138558 0)
(-0.0787792 0.00996251 0)
(-0.0824146 0.00559655 0)
(-0.0835919 0.0011257 0)
(-0.0818317 -0.0037415 0)
(-0.0758698 -0.00860704 0)
(-0.0656576 -0.012265 0)
(-0.0519185 -0.0143318 0)
(-0.0357921 -0.0144658 0)
(-0.0192826 -0.0127473 0)
(-0.00426534 -0.0102835 0)
(0.0087821 -0.00795295 0)
(0.0196755 -0.00596711 0)
(0.0281529 -0.0038543 0)
(0.0324897 -0.000938029 0)
(0.0303424 0.00192655 0)
(0.0234893 0.00292402 0)
(0.0153721 0.00297381 0)
(0.00633123 0.00297955 0)
(-0.00210572 0.0297197 0)
(-0.00618418 0.0295217 0)
(-0.0106796 0.0292266 0)
(-0.0156602 0.0288365 0)
(-0.0212145 0.0283648 0)
(-0.0274201 0.0278215 0)
(-0.0343186 0.0271782 0)
(-0.041882 0.026342 0)
(-0.0500108 0.0251418 0)
(-0.0584859 0.023332 0)
(-0.0669065 0.020617 0)
(-0.0745923 0.0167519 0)
(-0.0805904 0.011799 0)
(-0.0840927 0.00639306 0)
(-0.0851519 0.00109567 0)
(-0.0834051 -0.00478082 0)
(-0.0770809 -0.0107336 0)
(-0.066381 -0.0150618 0)
(-0.0521759 -0.0174882 0)
(-0.0356109 -0.0175746 0)
(-0.0188489 -0.0154023 0)
(-0.00386308 -0.0123895 0)
(0.00910514 -0.00956427 0)
(0.0199336 -0.00716508 0)
(0.0284514 -0.00461064 0)
(0.0328454 -0.00106931 0)
(0.0305406 0.0024017 0)
(0.0235126 0.00355359 0)
(0.015381 0.00358506 0)
(0.00635415 0.00357479 0)
(-0.00232479 0.034863 0)
(-0.00645592 0.0346117 0)
(-0.0109816 0.0342853 0)
(-0.0159789 0.0339051 0)
(-0.0215558 0.0334782 0)
(-0.027812 0.0329795 0)
(-0.0348103 0.032337 0)
(-0.0425425 0.03142 0)
(-0.050928 0.0300223 0)
(-0.0597576 0.0278511 0)
(-0.0686069 0.0245405 0)
(-0.0766966 0.0197686 0)
(-0.0828475 0.0136234 0)
(-0.0860844 0.00709344 0)
(-0.0869606 0.00108166 0)
(-0.0853216 -0.00584711 0)
(-0.0785086 -0.0130119 0)
(-0.0672245 -0.0179772 0)
(-0.0524707 -0.0207564 0)
(-0.0353797 -0.0207593 0)
(-0.0183137 -0.0180698 0)
(-0.00338494 -0.0144839 0)
(0.00949033 -0.0111607 0)
(0.0202392 -0.00836163 0)
(0.0288066 -0.00537656 0)
(0.0332721 -0.00119851 0)
(0.0307736 0.00290078 0)
(0.023536 0.00418945 0)
(0.0153904 0.00419536 0)
(0.00638244 0.00416342 0)
(-0.00265664 0.0401006 0)
(-0.00683757 0.0397439 0)
(-0.0113584 0.0393487 0)
(-0.0163282 0.0389747 0)
(-0.0219045 0.0386168 0)
(-0.0282173 0.0381995 0)
(-0.0353436 0.0375997 0)
(-0.0432899 0.0366475 0)
(-0.0519955 0.0350986 0)
(-0.061267 0.0326027 0)
(-0.0706625 0.0286992 0)
(-0.0792804 0.0229414 0)
(-0.0856178 0.0154105 0)
(-0.0883778 0.00762119 0)
(-0.0889752 0.0011243 0)
(-0.0876363 -0.00692504 0)
(-0.0801437 -0.015491 0)
(-0.0681893 -0.0210272 0)
(-0.0528027 -0.0241638 0)
(-0.0350926 -0.024034 0)
(-0.0176637 -0.0207488 0)
(-0.00283183 -0.0165645 0)
(0.00993757 -0.0127386 0)
(0.0205902 -0.00955666 0)
(0.0292179 -0.00615413 0)
(0.033773 -0.00132549 0)
(0.0310412 0.00342889 0)
(0.0235579 0.00483224 0)
(0.0154005 0.00480466 0)