/*--------------------------------*- C++ -*----------------------------------*\
| =========                 |                                                 |
| \\      /  F ield         | OpenFOAM: The Open Source CFD Toolbox           |
|  \\    /   O peration     | Version:  2.4.0                                 |
|   \\  /    A nd           | Web:      www.OpenFOAM.org                      |
|    \\/     M anipulation  |                                                 |
\*---------------------------------------------------------------------------*/
FoamFile
{
    version     2.0;
    format      ascii;
    class       volVectorField;
    location    "0.16";
    object      U;
}
// * * * * * * * * * * * * * * * * * * * * * * * * * * * * * * * * * * * * * //

dimensions      [0 1 -1 0 0 0 0];

internalField   nonuniform List<vector> 
3600
(
(0.000826048 -0.000175087 0)
(0.00734344 -0.00028626 0)
(0.0190189 -0.000269544 0)
(0.0273339 -0.000162622 0)
(0.0331345 -0.000104454 0)
(0.0363113 0.000145664 0)
(0.034771 0.000419378 0)
(0.0266086 0.000714532 0)
(0.0191618 0.000690702 0)
(0.00459742 0.000658521 0)
(0.00295046 0.000391659 0)
(-0.00743401 0.000419867 0)
(-0.00916064 0.000362044 0)
(-0.0151583 0.000128917 0)
(-0.0226671 8.895e-05 0)
(-0.0187305 -0.00109919 0)
(-0.0180636 -0.00224842 0)
(-0.0070238 -0.00174756 0)
(-0.00620735 -0.000364975 0)
(-0.00650412 4.3193e-05 0)
(-0.0214461 0.00411258 0)
(-0.0529318 0.00723471 0)
(-0.0757332 0.00498491 0)
(-0.0687872 -0.00336616 0)
(-0.0514403 -0.00762328 0)
(-0.0382821 -0.00680816 0)
(-0.0289033 -0.00497151 0)
(-0.0198512 -0.00523792 0)
(-0.0118388 -0.00125435 0)
(-0.00538923 -0.000166653 0)
(-0.00182106 -0.000371959 0)
(0.00351178 -0.00111 0)
(0.0193952 -0.00135124 0)
(0.0319237 -0.0010498 0)
(0.0417175 -0.000938639 0)
(0.0493067 -0.000230523 0)
(0.0520084 0.000777579 0)
(0.0456809 0.0017453 0)
(0.0426177 0.00229914 0)
(0.0229159 0.0021996 0)
(0.0280462 0.00171418 0)
(0.00850639 0.00219856 0)
(0.0109695 0.00156375 0)
(0.00213988 0.00290621 0)
(-0.0157929 0.00154106 0)
(-0.00850726 -0.000453341 0)
(-0.0238069 -0.00205975 0)
(-0.0238405 -0.00297966 0)
(-0.0264822 0.000713569 0)
(-0.0361442 0.00623516 0)
(-0.0633167 0.0212209 0)
(-0.0928989 0.0235485 0)
(-0.0975886 0.00503505 0)
(-0.0855561 -0.012496 0)
(-0.0743867 -0.0181645 0)
(-0.0611891 -0.0126629 0)
(-0.0479114 -0.0106366 0)
(-0.0327664 -0.01617 0)
(-0.0194856 -0.0138961 0)
(-0.00538473 -0.0130319 0)
(-0.00305396 -0.00032103 0)
(0.00115501 -0.0018807 0)
(0.0174266 -0.00250298 0)
(0.0304317 -0.00204333 0)
(0.0408606 -0.00193846 0)
(0.0494062 -0.000842911 0)
(0.0532929 0.000890862 0)
(0.0479475 0.00239273 0)
(0.0474015 0.00367562 0)
(0.0267009 0.00328995 0)
(0.0371349 0.00264067 0)
(0.013735 0.00390306 0)
(0.0226266 0.00185588 0)
(0.0162079 0.00625114 0)
(-0.00389157 0.00307557 0)
(0.00655887 0.00134447 0)
(-0.0128216 0.00292725 0)
(-0.0249045 -0.000498642 0)
(-0.038488 0.00443849 0)
(-0.0609419 0.0175289 0)
(-0.0873838 0.0334662 0)
(-0.103203 0.0275767 0)
(-0.0966293 -0.00101677 0)
(-0.0878535 -0.0214989 0)
(-0.0752613 -0.0295968 0)
(-0.0595357 -0.0285736 0)
(-0.0409434 -0.0294594 0)
(-0.0260972 -0.0343008 0)
(-0.0177967 -0.0336312 0)
(-0.00462281 -0.0315799 0)
(-0.00347435 -0.00025021 0)
(0.000416271 -0.00265377 0)
(0.0168248 -0.00367065 0)
(0.0298518 -0.0030534 0)
(0.0403983 -0.00296106 0)
(0.0491463 -0.00148331 0)
(0.0532116 0.000978098 0)
(0.0479983 0.00297547 0)
(0.0480064 0.00507427 0)
(0.0264262 0.00415834 0)
(0.0401391 0.00370506 0)
(0.0112042 0.0052399 0)
(0.0308629 0.00111016 0)
(0.0225351 0.00926795 0)
(0.00597165 0.00428369 0)
(0.0163866 0.00275737 0)
(-0.00291477 0.00953879 0)
(-0.0255956 0.00697607 0)
(-0.0504834 0.0148324 0)
(-0.0725883 0.0282552 0)
(-0.0925699 0.0402045 0)
(-0.0899985 0.029338 0)
(-0.0730834 -0.00479583 0)
(-0.0713711 -0.0273133 0)
(-0.0625292 -0.039681 0)
(-0.0530706 -0.0485222 0)
(-0.0371849 -0.0468948 0)
(-0.0246232 -0.0416885 0)
(-0.0169114 -0.043578 0)
(-0.006238 -0.0440726 0)
(-0.00365467 -0.000141307 0)
(0.000136046 -0.00342671 0)
(0.016701 -0.00484322 0)
(0.029774 -0.00406734 0)
(0.0403974 -0.00399481 0)
(0.0493065 -0.00213518 0)
(0.0534344 0.00105885 0)
(0.0482335 0.00354893 0)
(0.0481469 0.00653447 0)
(0.0257961 0.0048469 0)
(0.0415729 0.00522863 0)
(0.00541122 0.00583669 0)
(0.0388719 -0.000303813 0)
(0.0212522 0.0117447 0)
(0.0160655 0.00517739 0)
(0.0236276 0.00381043 0)
(0.00855741 0.0171023 0)
(-0.017529 0.0170256 0)
(-0.045678 0.0242547 0)
(-0.0652459 0.0348075 0)
(-0.0777374 0.0401344 0)
(-0.06541 0.0216471 0)
(-0.0416393 -0.0123587 0)
(-0.0448964 -0.0302436 0)
(-0.044248 -0.0395736 0)
(-0.0392128 -0.0547794 0)
(-0.0335324 -0.05827 0)
(-0.0217456 -0.051447 0)
(-0.0131508 -0.0559565 0)
(-0.00628426 -0.0581067 0)
(-0.0037923 -2.70619e-05 0)
(-8.44791e-05 -0.00420439 0)
(0.0166554 -0.00602358 0)
(0.0298015 -0.00508769 0)
(0.0405016 -0.00504318 0)
(0.0496093 -0.00280079 0)
(0.0538104 0.00113382 0)
(0.0486743 0.00414542 0)
(0.0482086 0.0080523 0)
(0.0256239 0.00543727 0)
(0.0420642 0.0072578 0)
(0.000875988 0.00561926 0)
(0.0436551 -0.00178987 0)
(0.0106763 0.0139685 0)
(0.0279607 0.00421206 0)
(0.0278675 0.00438813 0)
(0.0179171 0.0237052 0)
(-0.00390229 0.0262934 0)
(-0.0285738 0.0326032 0)
(-0.0397549 0.0384944 0)
(-0.0438687 0.0390876 0)
(-0.0329838 0.0147086 0)
(-0.014316 -0.0167596 0)
(-0.0155719 -0.0279021 0)
(-0.0182193 -0.0385766 0)
(-0.0101166 -0.0595652 0)
(-0.00957623 -0.0679559 0)
(-0.00569647 -0.0613305 0)
(-0.00329494 -0.0610815 0)
(-0.00294979 -0.0626555 0)
(-0.00394106 0.000100291 0)
(-0.000334833 -0.00498688 0)
(0.0166104 -0.00721282 0)
(0.0298472 -0.00611553 0)
(0.0406337 -0.00610885 0)
(0.0499831 -0.0034838 0)
(0.0542715 0.00119795 0)
(0.0492684 0.0047815 0)
(0.0481518 0.00959447 0)
(0.0260683 0.00601186 0)
(0.0418107 0.00953081 0)
(-6.69537e-06 0.00507494 0)
(0.0437644 -0.00135649 0)
(-0.00884939 0.0147877 0)
(0.0381784 0.00126515 0)
(0.0229066 0.00607632 0)
(0.019365 0.0285175 0)
(0.00445683 0.0337084 0)
(-0.00417608 0.0402192 0)
(-0.0118527 0.0391617 0)
(-0.0104696 0.0360446 0)
(0.00536795 0.00844344 0)
(0.0162866 -0.0218678 0)
(0.0193239 -0.0317085 0)
(0.0167848 -0.0409042 0)
(0.022941 -0.0571727 0)
(0.0141774 -0.0629093 0)
(0.00705793 -0.0581051 0)
(0.0046634 -0.0566483 0)
(-0.000629334 -0.0587124 0)
(-0.00411442 0.000241788 0)
(-0.000632052 -0.00577467 0)
(0.0165557 -0.00841259 0)
(0.0298994 -0.00715233 0)
(0.0407854 -0.00719527 0)
(0.0504202 -0.00418796 0)
(0.0548156 0.00124565 0)
(0.0499959 0.00547461 0)
(0.0479514 0.0111245 0)
(0.0271889 0.00661643 0)
(0.0407065 0.0118236 0)
(0.00327791 0.00455255 0)
(0.0424236 0.00173686 0)
(-0.0241987 0.0141282 0)
(0.0373536 -0.00313291 0)
(0.00755271 0.0089488 0)
(0.0193854 0.032265 0)
(0.00636102 0.0348026 0)
(0.0265089 0.0410635 0)
(0.0274023 0.0400364 0)
(0.0243701 0.0316235 0)
(0.0416521 0.00152406 0)
(0.0498605 -0.024451 0)
(0.0544254 -0.0316021 0)
(0.047206 -0.0368808 0)
(0.0441447 -0.050489 0)
(0.0308989 -0.0527637 0)
(0.0157043 -0.0487628 0)
(0.0074425 -0.0466386 0)
(7.49891e-05 -0.0479225 0)
(-0.00431591 0.000400303 0)
(-0.000979848 -0.00656848 0)
(0.0164901 -0.00962462 0)
(0.0299566 -0.00819956 0)
(0.0409557 -0.00830582 0)
(0.05092 -0.00491738 0)
(0.0554548 0.00127296 0)
(0.0508163 0.00624792 0)
(0.0476932 0.0125843 0)
(0.0287636 0.00741987 0)
(0.0378971 0.0137786 0)
(0.0110386 0.00402645 0)
(0.0409997 0.0061092 0)
(-0.023733 0.0136695 0)
(0.0271337 -0.00520578 0)
(-0.00737713 0.00987522 0)
(0.0267784 0.0316926 0)
(0.0139485 0.0313958 0)
(0.0331221 0.0320395 0)
(0.0486289 0.0402035 0)
(0.0512594 0.0300217 0)
(0.066178 -0.0010226 0)
(0.0679313 -0.0269365 0)
(0.0748964 -0.0318588 0)
(0.0664956 -0.0306805 0)
(0.0564042 -0.0397889 0)
(0.042049 -0.0394055 0)
(0.022835 -0.0364876 0)
(0.00948739 -0.0376592 0)
(0.000793792 -0.0420011 0)
(-0.00454682 0.000578546 0)
(-0.00138017 -0.00736909 0)
(0.0164131 -0.0108507 0)
(0.0300181 -0.00925878 0)
(0.0411443 -0.00944355 0)
(0.0514832 -0.00567739 0)
(0.0561987 0.00127878 0)
(0.0516914 0.00710053 0)
(0.047598 0.0139747 0)
(0.0298776 0.00853137 0)
(0.03427 0.0150041 0)
(0.0191065 0.00357222 0)
(0.0362724 0.0105158 0)
(-0.0139483 0.0150675 0)
(0.0196737 -0.00614408 0)
(-0.00632375 0.00759622 0)
(0.0247416 0.0265456 0)
(0.0198044 0.0303286 0)
(0.0227018 0.0263257 0)
(0.0436929 0.0330211 0)
(0.0556066 0.021176 0)
(0.0702543 -0.00446462 0)
(0.0667473 -0.0287372 0)
(0.0704858 -0.0319797 0)
(0.0638719 -0.0251333 0)
(0.0534967 -0.0295856 0)
(0.0418012 -0.0245386 0)
(0.0252965 -0.0183523 0)
(0.0102307 -0.022968 0)
(0.00188209 -0.031728 0)
(-0.00480803 0.000779315 0)
(-0.00183478 -0.00817742 0)
(0.0163244 -0.0120925 0)
(0.0300833 -0.0103317 0)
(0.0413503 -0.0106116 0)
(0.052111 -0.00647397 0)
(0.0570468 0.00126829 0)
(0.0526508 0.00802964 0)
(0.0476886 0.0153616 0)
(0.0301817 0.00992121 0)
(0.0317619 0.0153962 0)
(0.0237807 0.00384688 0)
(0.0269909 0.0143684 0)
(-0.000273602 0.0160356 0)
(0.0171351 -0.00584935 0)
(-0.000222457 0.00721719 0)
(0.0137532 0.0240889 0)
(0.0206466 0.0307654 0)
(0.020932 0.0226491 0)
(0.0298303 0.0233076 0)
(0.0444791 0.010696 0)
(0.053054 -0.0074888 0)
(0.0556313 -0.0294839 0)
(0.0577042 -0.0293964 0)
(0.0538486 -0.0192614 0)
(0.0433994 -0.0202542 0)
(0.0286383 -0.0148667 0)
(0.0220527 -0.00641379 0)
(0.010984 -0.0107564 0)
(0.00244849 -0.0226923 0)
(-0.00510036 0.00100549 0)
(-0.00234564 -0.00899436 0)
(0.0162237 -0.0133518 0)
(0.0301516 -0.0114202 0)
(0.0415728 -0.0118129 0)
(0.0528047 -0.00731281 0)
(0.0580049 0.00124004 0)
(0.0537329 0.00902981 0)
(0.0478209 0.0168326 0)
(0.0300529 0.0113765 0)
(0.0312002 0.0155673 0)
(0.0242426 0.00470935 0)
(0.0209893 0.0170671 0)
(0.00996491 0.0172587 0)
(0.0172363 -0.00473697 0)
(0.0101932 0.00749156 0)
(0.00818591 0.0202569 0)
(0.018019 0.0278337 0)
(0.0273067 0.0224723 0)
(0.0298271 0.0209676 0)
(0.0420419 0.00747252 0)
(0.0471336 -0.012266 0)
(0.055771 -0.0312556 0)
(0.0482872 -0.0277116 0)
(0.042638 -0.0162157 0)
(0.0359891 -0.0101688 0)
(0.0171838 -0.00210816 0)
(0.0179298 0.00219392 0)
(0.00846624 -0.00379157 0)
(0.00288913 -0.0156152 0)
(-0.00542473 0.00126005 0)
(-0.00291498 -0.00982055 0)
(0.0161104 -0.0146303 0)
(0.0302221 -0.0125264 0)
(0.04181 -0.0130505 0)
(0.053564 -0.0082005 0)
(0.0590853 0.00118472 0)
(0.0549404 0.0101277 0)
(0.0478651 0.0183745 0)
(0.0302251 0.0129044 0)
(0.0302984 0.0157425 0)
(0.0248159 0.00599074 0)
(0.020379 0.0179762 0)
(0.01524 0.014656 0)
(0.0179962 -0.00479404 0)
(0.0161802 0.00882767 0)
(0.0139332 0.0226846 0)
(0.0151661 0.0216438 0)
(0.0308985 0.0188986 0)
(0.0368344 0.0174018 0)
(0.0441402 0.00422813 0)
(0.050076 -0.0163785 0)
(0.050181 -0.0263441 0)
(0.0397909 -0.0153999 0)
(0.0312027 -0.00945753 0)
(0.0301337 0.00290466 0)
(0.024659 0.00233371 0)
(0.0177832 0.00134332 0)
(0.000286122 0.00864852 0)
(0.00505324 -0.0126006 0)
(-0.00578213 0.0015461 0)
(-0.00354531 -0.010657 0)
(0.015984 -0.0159296 0)
(0.0302941 -0.0136525 0)
(0.0420602 -0.0143274 0)
(0.0543903 -0.00914519 0)
(0.0603009 0.00110493 0)
(0.0562439 0.011334 0)
(0.047981 0.0199971 0)
(0.0303686 0.0145115 0)
(0.0286677 0.0159748 0)
(0.0261623 0.00657553 0)
(0.0225548 0.0210558 0)
(0.0123434 0.0185013 0)
(0.019115 -0.00477928 0)
(0.00840485 0.00669332 0)
(0.0314303 0.0208749 0)
(0.0198822 0.0201078 0)
(0.0270783 0.0146807 0)
(0.037349 0.0153967 0)
(0.0428981 0.0016444 0)
(0.0433803 -0.0168483 0)
(0.0332963 -0.0249161 0)
(0.0367079 -0.0152393 0)
(0.0313856 -0.0135455 0)
(0.0258361 -0.00657597 0)
(0.0189388 0.0130782 0)
(-0.00559465 0.0269551 0)
(-0.00737861 0.00715363 0)
(0.00236007 -0.0217601 0)
(-0.00617366 0.00186682 0)
(-0.00423945 -0.0115043 0)
(0.0158438 -0.0172512 0)
(0.0303666 -0.0148008 0)
(0.0423209 -0.0156468 0)
(0.0552865 -0.0101545 0)
(0.0616495 0.000998647 0)
(0.0576855 0.0126509 0)
(0.048223 0.0216677 0)
(0.030343 0.0163417 0)
(0.0257181 0.0158078 0)
(0.0299469 0.0074324 0)
(0.0270485 0.020135 0)
(0.01357 0.0127251 0)
(0.0173102 -0.00112266 0)
(0.00973662 0.00440379 0)
(0.0366435 0.0226046 0)
(0.0245827 0.0219173 0)
(0.0248211 0.011477 0)
(0.0335411 0.00897461 0)
(0.0252933 0.000704346 0)
(0.0225198 -0.0141346 0)
(0.0152113 -0.0193838 0)
(0.0133451 -0.00951215 0)
(-0.00417859 0.000194274 0)
(-0.0163652 0.0151188 0)
(-0.0148071 0.0283815 0)
(-0.0189323 0.0276481 0)
(-0.00336363 -0.00399301 0)
(-0.0042645 -0.0244947 0)
(-0.00660047 0.00222565 0)
(-0.00500058 -0.0123635 0)
(0.0156891 -0.0185967 0)
(0.0304387 -0.0159736 0)
(0.0425904 -0.0170124 0)
(0.0562518 -0.0112373 0)
(0.0631405 0.000864705 0)
(0.0593151 0.01405 0)
(0.0486768 0.023509 0)
(0.0293823 0.0184612 0)
(0.0240241 0.0153286 0)
(0.0336105 0.00626628 0)
(0.0247451 0.0280169 0)
(-0.0166415 0.0202144 0)
(0.0147709 -0.00403855 0)
(0.0119702 -0.00213998 0)
(0.0486199 0.0180615 0)
(0.0406662 0.0227244 0)
(0.0255778 0.0133501 0)
(0.0235142 0.0160677 0)
(0.0204202 0.00558304 0)
(0.0326509 -0.0128107 0)
(0.0201324 -0.0179459 0)
(0.0168394 -0.00108642 0)
(0.00819971 0.0071374 0)
(-0.00208072 0.00937402 0)
(-0.00545749 0.0200011 0)
(-0.00417718 0.0162089 0)
(0.00161286 -0.00897353 0)
(-0.00890233 -0.0204335 0)
(-0.00706384 0.00262576 0)
(-0.00583217 -0.0132366 0)
(0.0155192 -0.0199681 0)
(0.0305091 -0.017173 0)
(0.0428668 -0.0184264 0)
(0.0572771 -0.0124036 0)
(0.0648118 0.000684808 0)
(0.0612048 0.0156038 0)
(0.0489856 0.0253564 0)
(0.028014 0.0204951 0)
(0.024653 0.0141457 0)
(0.0355275 0.00703828 0)
(0.0247401 0.0297215 0)
(0.0150329 0.014568 0)
(0.0181472 -0.00645555 0)
(0.0220849 -0.0081207 0)
(0.0420208 0.0147164 0)
(0.03229 0.0269672 0)
(0.0144731 0.0175072 0)
(0.0129416 0.0111556 0)
(0.0294163 -0.0033168 0)
(0.0311933 -0.0145691 0)
(0.00874992 -0.0117987 0)
(0.00874272 -0.000226994 0)
(0.0136224 0.0104814 0)
(0.0177641 0.0206866 0)
(0.0186469 0.024646 0)
(0.0188427 0.0212547 0)
(0.0187142 0.00671195 0)
(0.00632853 -0.000515065 0)
(-0.00756521 0.00307223 0)
(-0.00673809 -0.0141207 0)
(0.0153335 -0.021368 0)
(0.0305765 -0.0184006 0)
(0.0431492 -0.0198905 0)
(0.0583327 -0.0136691 0)
(0.0667775 0.000483887 0)
(0.0632004 0.0171478 0)
(0.0490173 0.0280055 0)
(0.0267471 0.0231695 0)
(0.0241213 0.0125699 0)
(0.0380639 0.00797725 0)
(0.00884784 0.0365762 0)
(-0.0202898 0.0198075 0)
(0.000350542 -0.00615226 0)
(0.0128583 -0.0110543 0)
(0.0328741 0.0207707 0)
(0.00516892 0.0334813 0)
(0.0310485 0.0200416 0)
(0.0181112 0.0124121 0)
(0.0254249 -0.00500835 0)
(-0.00514762 0.00118855 0)
(-0.0264455 -0.00109702 0)
(-0.0192992 -0.00205018 0)
(-0.0048249 0.000303938 0)
(0.0115721 0.0109069 0)
(0.0209361 0.01976 0)
(0.0242003 0.0150617 0)
(0.0235293 0.0106462 0)
(0.0158535 0.0151108 0)
(-0.00810619 0.00356316 0)
(-0.0077227 -0.0150109 0)
(0.0151308 -0.0227991 0)
(0.0306395 -0.0196579 0)
(0.0434344 -0.0214048 0)
(0.0593656 -0.0150591 0)
(0.0691284 0.000161017 0)
(0.0650142 0.0194351 0)
(0.0483209 0.0290665 0)
(0.0307126 0.0243191 0)
(0.0173046 0.0114232 0)
(0.0421 0.0101317 0)
(0.00983776 0.042179 0)
(-0.0210916 0.0141581 0)
(0.00410224 -0.0156789 0)
(0.0105383 -0.019531 0)
(0.0412668 0.0188168 0)
(0.0265077 0.0264827 0)
(0.0210261 0.0151849 0)
(0.0113052 0.0134175 0)
(0.0137184 0.0103409 0)
(-0.0315549 0.00981462 0)
(-0.0520854 -0.00456891 0)
(-0.0405498 -0.0129039 0)
(-0.0296123 -0.0171547 0)
(-0.0170743 -0.00149087 0)
(-0.00260665 0.012373 0)
(-0.000665241 0.0134806 0)
(0.00741749 0.0190118 0)
(0.00546667 0.0287697 0)
(-0.00868564 0.00412401 0)
(-0.00879064 -0.0159407 0)
(0.014909 -0.0242643 0)
(0.0306966 -0.0209456 0)
(0.0436956 -0.022964 0)
(0.0602893 -0.01664 0)
(0.0715025 -3.0808e-05 0)
(0.0650102 0.0203954 0)
(0.0507627 0.0333146 0)
(0.0160476 0.0302778 0)
(0.0180072 0.00725429 0)
(0.0520219 0.0113146 0)
(0.0169197 0.0490436 0)
(0.00530823 0.0200093 0)
(-0.00315049 -0.0118503 0)
(0.0109341 -0.0227296 0)
(0.0461869 0.0212533 0)
(0.0355944 0.0362334 0)
(0.0102437 0.0254822 0)
(-0.0217436 0.0166491 0)
(0.0189495 0.0176683 0)
(0.00443712 0.0360433 0)
(-0.0416573 0.00534463 0)
(-0.04404 -0.0199904 0)
(-0.0467293 -0.0234723 0)
(-0.0394429 -0.00701573 0)
(-0.026816 0.0063845 0)
(-0.0228158 0.0030789 0)
(-0.00975003 0.0107773 0)
(-0.00313981 0.0272381 0)
(-0.00933809 0.0046838 0)
(-0.00994611 -0.0168984 0)
(0.0146578 -0.0257689 0)
(0.0307436 -0.0222621 0)
(0.0438134 -0.024565 0)
(0.0608514 -0.0183974 0)
(0.0710122 -3.01229e-05 0)
(0.0608267 0.0244181 0)
(0.0453393 0.0335174 0)
(0.0488235 0.0284259 0)
(-0.011018 0.00671423 0)
(0.0616867 0.0112446 0)
(0.0384029 0.059004 0)
(-0.00164204 0.0209567 0)
(-0.0218063 -0.0170636 0)
(0.00583899 -0.0420684 0)
(0.0626418 0.011164 0)
(0.0328708 0.0412634 0)
(-0.00390405 0.0370641 0)
(-0.0109584 0.00973242 0)
(-0.0123066 -0.0072091 0)
(0.0354441 0.0434922 0)
(-0.00347276 0.024125 0)
(-0.00578255 -0.00408465 0)
(-0.0243053 -0.0204467 0)
(-0.030848 -0.0165516 0)
(-0.0282964 -0.00260184 0)
(-0.0187344 -0.00711726 0)
(-0.0176804 -0.00252324 0)
(-0.00616804 0.0102452 0)
(-0.00977283 0.00547542 0)
(-0.0111848 -0.01772 0)
(0.014324 -0.0273172 0)
(0.0307519 -0.0235983 0)
(0.0433888 -0.0261897 0)
(0.0593182 -0.0200681 0)
(0.0616178 -0.000285072 0)
(0.0439203 0.023071 0)
(0.0522502 0.0347094 0)
(-0.00450414 0.04006 0)
(0.0221806 -0.00161954 0)
(0.0446579 0.000254606 0)
(0.0266465 0.0584696 0)
(-0.0173195 0.0295485 0)
(-0.0108781 -0.0163962 0)
(-0.0149366 -0.0513939 0)
(0.035124 0.0165688 0)
(-0.0195464 0.0533677 0)
(-0.00710584 0.0400406 0)
(0.0367522 0.0206226 0)
(-0.0219353 -0.00583002 0)
(0.0287576 0.0407981 0)
(0.0142298 0.0350914 0)
(0.00881046 -0.00147046 0)
(-0.00315617 -0.0115813 0)
(-0.00680335 -0.00748372 0)
(-0.0119067 -0.00572231 0)
(-0.00457837 -0.00722981 0)
(-0.00780767 -0.00591819 0)
(-0.00501576 -0.00280435 0)
(-0.0117987 0.00585443 0)
(-0.0124546 -0.0190328 0)
(0.0136984 -0.028905 0)
(0.0305626 -0.0249178 0)
(0.0410872 -0.0276502 0)
(0.0501758 -0.020668 0)
(0.0385679 0.00341231 0)
(0.0190635 0.0295888 0)
(0.00910034 0.0406892 0)
(0.00870902 0.0387143 0)
(0.0076726 -0.00117414 0)
(-0.0872531 0.015465 0)
(0.00132492 0.0707498 0)
(-0.0445536 0.0300415 0)
(0.00692772 -0.0166787 0)
(-0.0306187 -0.0487334 0)
(-0.000337192 0.0232107 0)
(-0.0391755 0.0639655 0)
(-0.0159677 0.0135613 0)
(0.0275758 0.0235131 0)
(-0.00969477 -0.00765356 0)
(0.0068808 0.0219796 0)
(0.025349 0.0353682 0)
(0.0133405 0.00843941 0)
(-0.00289743 -0.00561615 0)
(-0.00220748 -0.00680255 0)
(0.000517838 -0.00598886 0)
(0.0036718 -0.00734839 0)
(0.000860524 -0.002944 0)
(-0.0027624 0.000400959 0)
(-0.00720614 0.00744384 0)
(-0.0135911 -0.0190681 0)
(0.012034 -0.0305423 0)
(0.0295127 -0.0261082 0)
(0.0330733 -0.0282205 0)
(0.0293636 -0.0193549 0)
(0.0168174 0.00211323 0)
(-0.00971468 0.0230237 0)
(0.0660845 0.032199 0)
(0.00305522 0.0364257 0)
(-0.0898799 0.0111021 0)
(-0.0718744 0.00466351 0)
(-0.0101428 0.064005 0)
(-0.103846 0.0261694 0)
(0.0107078 -0.0216383 0)
(-0.0105293 -0.0490792 0)
(-0.0281497 0.0209232 0)
(0.000313614 0.0581513 0)
(-0.0479371 0.00425696 0)
(0.0352926 0.0195765 0)
(-0.00183692 0.00400958 0)
(-0.0167962 0.0136473 0)
(0.0140682 0.0336522 0)
(-0.00076015 0.0172 0)
(-0.0179083 -0.000612556 0)
(-0.00285773 -0.0113969 0)
(-0.00342959 -0.010994 0)
(-0.000389485 -0.00766815 0)
(-0.00198645 0.000871597 0)
(-0.00425893 0.00668188 0)
(-0.0244491 0.00672624 0)
(-0.0137799 -0.0218649 0)
(0.00715104 -0.0321445 0)
(0.025497 -0.026844 0)
(0.0128636 -0.0270838 0)
(0.0124769 -0.0181083 0)
(0.00363627 0.0108791 0)
(-0.163686 0.0279007 0)
(-0.0692597 0.0379471 0)
(-0.0147023 0.0624544 0)
(-0.0648025 0.0119698 0)
(-0.105637 -0.000797299 0)
(-0.0183274 0.06622 0)
(-0.133321 0.0198812 0)
(-0.0293783 -0.0432534 0)
(-0.0211692 -0.0425653 0)
(-0.0380957 0.014657 0)
(0.0462708 0.0655571 0)
(-0.0102893 -8.71176e-05 0)
(0.0228442 0.00688103 0)
(-0.014035 0.0171887 0)
(-0.049015 0.0167917 0)
(-0.0139489 0.0299798 0)
(-0.0114549 0.024306 0)
(-0.0298373 -0.00353832 0)
(-0.00602083 -0.0201355 0)
(-0.0181221 -0.00961273 0)
(-0.00789734 -0.00791779 0)
(-0.0074298 0.00116681 0)
(-0.00364536 0.00849396 0)
(0.0104554 0.0101815 0)
(-0.013302 -0.0194776 0)
(-0.00537889 -0.033695 0)
(0.0142219 -0.0265705 0)
(-0.0121813 -0.0270735 0)
(0.0701951 -0.0243625 0)
(0.055382 0.0221841 0)
(-0.172528 0.0317084 0)
(-0.229652 0.0153386 0)
(-0.0205515 0.0497808 0)
(-0.00628164 0.0232274 0)
(-0.177405 -0.0029982 0)
(0.00836964 0.0755304 0)
(-0.0855618 0.0211344 0)
(-0.0543689 -0.0485949 0)
(-0.0213831 -0.0506336 0)
(-0.0641158 0.000418118 0)
(0.0342603 0.0586981 0)
(-0.0225522 0.0100411 0)
(-0.0397582 0.0235888 0)
(-0.0570041 0.0356342 0)
(-0.0787279 0.0117594 0)
(-0.00880457 0.0180369 0)
(-0.00880498 0.0273627 0)
(-0.0289301 -0.00355706 0)
(-0.0169568 -0.0212654 0)
(-0.0218548 -0.0114136 0)
(-0.00949423 -0.015335 0)
(-0.0105388 -0.00519729 0)
(-0.00225989 0.00174238 0)
(-0.0472034 0.0075468 0)
(-0.0102805 -0.0232482 0)
(-0.0311867 -0.0341271 0)
(-0.00563307 -0.0262524 0)
(0.00684327 -0.0351633 0)
(0.233575 -0.0283187 0)
(-0.296663 0.0572471 0)
(-0.184337 0.0508836 0)
(-0.241818 0.00794349 0)
(-0.110441 0.0242752 0)
(-0.0180601 0.0340711 0)
(-0.209077 -0.0034742 0)
(-0.0042306 0.0627148 0)
(-0.0288619 0.0294579 0)
(-0.0574428 -0.0498939 0)
(-0.0646023 -0.0417056 0)
(-0.110813 -0.0017943 0)
(-0.0232265 0.0475975 0)
(-0.0798443 0.0231367 0)
(-0.0837536 0.0294535 0)
(-0.0670379 0.0325823 0)
(-0.0667044 -0.0130728 0)
(-0.0168188 -0.0168344 0)
(0.00263628 0.033391 0)
(-0.0152982 0.00549019 0)
(-0.0147094 -0.0283923 0)
(-0.00987442 -0.0189129 0)
(-0.00890035 -0.0172552 0)
(-0.00806054 -0.0109262 0)
(-0.00220408 -0.00552943 0)
(0.0141374 0.0124604 0)
(-0.0149974 -0.0179991 0)
(-0.064195 -0.0331971 0)
(-0.0144162 -0.0304035 0)
(0.302459 -0.053164 0)
(-0.0484184 0.0249032 0)
(-0.488301 0.0565105 0)
(-0.203245 0.0306672 0)
(-0.234892 0.00763433 0)
(-0.188962 0.00757388 0)
(-0.080921 0.0445556 0)
(-0.211742 -0.00670579 0)
(-0.0672819 0.0358226 0)
(-0.0126189 0.0330461 0)
(-0.0613797 -0.0364991 0)
(-0.11752 -0.0329975 0)
(-0.152602 -0.00268319 0)
(-0.0680919 0.0470151 0)
(-0.10358 0.0275913 0)
(-0.0796949 0.0241757 0)
(-0.0552221 0.0235281 0)
(-0.0302768 -0.0200864 0)
(-0.0457676 -0.0189527 0)
(-0.02694 0.0319668 0)
(0.0140463 0.010242 0)
(-0.00219676 -0.0211635 0)
(-0.00368131 -0.019263 0)
(-0.00760122 -0.0155434 0)
(-0.00809223 -0.0134589 0)
(-0.00428316 -0.00909837 0)
(-0.0626605 0.00958697 0)
(-0.0188906 -0.0210069 0)
(-0.0668569 -0.0345439 0)
(0.145052 -0.0602846 0)
(0.0370089 -0.0381011 0)
(0.304786 0.0640101 0)
(-0.338334 0.0790369 0)
(-0.241363 0.000217412 0)
(-0.259407 0.00712986 0)
(-0.227805 -0.000163273 0)
(-0.167671 0.040873 0)
(-0.207449 -0.00849069 0)
(-0.129816 0.0163994 0)
(-0.042202 0.0269359 0)
(-0.0607819 -0.0251485 0)
(-0.131459 -0.0206666 0)
(-0.161525 -0.00999603 0)
(-0.0903571 0.0320119 0)
(-0.0787106 0.023708 0)
(-0.0575214 0.0141517 0)
(-0.0136839 0.0052939 0)
(0.0123609 -0.00982845 0)
(-0.0338948 -0.0196811 0)
(-0.0428476 -0.0181735 0)
(0.0204475 -0.00982166 0)
(0.0062246 -0.0154761 0)
(-0.0068805 -0.0167693 0)
(-0.00740153 -0.0174593 0)
(-0.0120351 -0.0172535 0)
(-0.00545442 -0.0160544 0)
(0.0808382 0.0151641 0)
(-0.0420556 -0.014649 0)
(0.0889628 -0.0508426 0)
(0.221193 -0.0510831 0)
(0.212407 -0.0606148 0)
(0.439645 0.0772545 0)
(-0.0124354 0.113855 0)
(-0.0735 0.0279866 0)
(-0.274708 0.00164807 0)
(-0.2314 -0.00680265 0)
(-0.213892 0.0344942 0)
(-0.207921 -0.0115263 0)
(-0.157765 -0.00123125 0)
(-0.0727558 0.0140329 0)
(-0.0565384 -0.0139411 0)
(-0.122504 -0.00607642 0)
(-0.161641 -0.00808497 0)
(-0.121637 0.0101326 0)
(-0.0766535 0.00899379 0)
(-0.0353014 0.000327617 0)
(0.0279219 -0.0165561 0)
(0.0670182 -0.00817484 0)
(0.0702218 0.0152612 0)
(0.139496 -0.00960086 0)
(-0.000828641 -0.0230088 0)
(-0.0157342 -0.00227414 0)
(-0.035436 -0.00477896 0)
(0.000595174 -0.0115285 0)
(0.00367996 -0.010643 0)
(0.0125105 -0.0174479 0)
(-0.000725051 -0.000925004 0)
(0.00824078 -0.00381903 0)
(0.0174568 -0.0049998 0)
(0.0249741 -0.00503187 0)
(0.0348623 -0.00837264 0)
(0.0517793 -0.00899936 0)
(0.0698472 -0.00309452 0)
(0.077367 0.00427699 0)
(0.0575599 0.00736883 0)
(0.0258084 0.00456096 0)
(0.00896712 0.00016314 0)
(0.00812763 -0.000360592 0)
(0.0090832 -0.00169774 0)
(0.0203609 -0.00235699 0)
(0.0217088 -0.00113192 0)
(0.0250375 0.000169957 0)
(0.0161113 0.000251616 0)
(0.00988861 0.000395027 0)
(0.00701442 0.000549799 0)
(-0.00527827 0.000495999 0)
(-0.00741871 0.000695799 0)
(-0.0210617 0.000598206 0)
(-0.0268385 0.000643921 0)
(-0.0347407 0.000403341 0)
(-0.036278 0.000159809 0)
(-0.0332608 -0.000108607 0)
(-0.0273744 -0.000158113 0)
(-0.0190654 -0.000272542 0)
(-0.0073333 -0.000285241 0)
(-0.000839663 -0.000175528 0)
(0.00452595 -0.0146751 0)
(0.0187765 -0.0180208 0)
(0.0312669 -0.0155641 0)
(0.0453039 -0.00768861 0)
(0.0581483 -0.016026 0)
(0.0718395 -0.0213335 0)
(0.0841189 -0.0119641 0)
(0.0964905 0.00323304 0)
(0.0960515 0.0217062 0)
(0.0692023 0.0219133 0)
(0.0406808 0.00715712 0)
(0.0298192 0.000912317 0)
(0.0271232 -0.00309185 0)
(0.0278316 -0.00248699 0)
(0.0127668 -0.00040527 0)
(0.0184868 0.00202093 0)
(-0.00114407 0.00331784 0)
(-0.0102984 0.0017246 0)
(-0.00946506 0.00272758 0)
(-0.0312172 0.00201898 0)
(-0.0262629 0.00222578 0)
(-0.0446406 0.00193115 0)
(-0.0458159 0.00153534 0)
(-0.0520294 0.00073956 0)
(-0.0493182 -0.000186535 0)
(-0.0419123 -0.000953566 0)
(-0.0319978 -0.00103877 0)
(-0.0194691 -0.00136166 0)
(-0.00351564 -0.00110863 0)
(0.00180109 -0.000373623 0)
(0.00599169 -0.0324987 0)
(0.0163501 -0.0341975 0)
(0.0230205 -0.0327481 0)
(0.0383028 -0.0262425 0)
(0.05787 -0.0308967 0)
(0.0719616 -0.0336289 0)
(0.0871828 -0.0219579 0)
(0.0946329 -0.0041866 0)
(0.104684 0.0232448 0)
(0.0930171 0.0330387 0)
(0.0668397 0.018866 0)
(0.0436749 0.00504631 0)
(0.0296302 -0.000684409 0)
(0.0175838 0.00245946 0)
(-0.00213694 0.00170445 0)
(0.00649088 0.00403326 0)
(-0.0153044 0.00698302 0)
(-0.0220966 0.00217107 0)
(-0.0150688 0.0048752 0)
(-0.0405399 0.00309026 0)
(-0.0300509 0.00328871 0)
(-0.0492931 0.00301229 0)
(-0.0480492 0.00205232 0)
(-0.053301 0.000835478 0)
(-0.0494283 -0.000768198 0)
(-0.041063 -0.00196542 0)
(-0.0305115 -0.00202526 0)
(-0.0175063 -0.00252049 0)
(-0.00116351 -0.00187961 0)
(0.00303215 -0.000324512 0)
(0.0039759 -0.0433422 0)
(0.0138194 -0.0412012 0)
(0.0212803 -0.0403079 0)
(0.0335202 -0.0461371 0)
(0.0504803 -0.0497531 0)
(0.0575729 -0.043132 0)
(0.0672243 -0.0276687 0)
(0.0688915 -0.00850655 0)
(0.0878602 0.0236303 0)
(0.0946105 0.0386321 0)
(0.0766048 0.0290763 0)
(0.0551629 0.015462 0)
(0.0307301 0.00690593 0)
(0.00806483 0.00920271 0)
(-0.0121175 0.00350746 0)
(-0.00312398 0.00569395 0)
(-0.0219713 0.0103819 0)
(-0.0304783 0.00154375 0)
(-0.0128662 0.0066755 0)
(-0.0437077 0.00427699 0)
(-0.0298325 0.00411404 0)
(-0.0498884 0.00410881 0)
(-0.0480424 0.00250168 0)
(-0.0531908 0.000910366 0)
(-0.0491657 -0.00137541 0)
(-0.0406064 -0.00300015 0)
(-0.0299323 -0.00302835 0)
(-0.016907 -0.00369537 0)
(-0.0004255 -0.00265294 0)
(0.00345184 -0.000254897 0)
(0.00104534 -0.0584144 0)
(0.00823185 -0.0533836 0)
(0.0166785 -0.0494571 0)
(0.028069 -0.0575456 0)
(0.0347412 -0.0558983 0)
(0.038153 -0.0421643 0)
(0.039957 -0.031893 0)
(0.0372884 -0.0164669 0)
(0.0612587 0.0145236 0)
(0.0769172 0.0370676 0)
(0.0669408 0.0345017 0)
(0.049403 0.0243081 0)
(0.0225741 0.0166127 0)
(-0.00330189 0.0169553 0)
(-0.0195265 0.00492232 0)
(-0.0127457 0.00703936 0)
(-0.0213139 0.0133512 0)
(-0.0386244 0.000240508 0)
(-0.00725514 0.00776578 0)
(-0.045329 0.00590481 0)
(-0.0293337 0.0047514 0)
(-0.0500848 0.00525535 0)
(-0.0481877 0.00293322 0)
(-0.0533753 0.000987121 0)
(-0.0493217 -0.00199242 0)
(-0.0406115 -0.00404596 0)
(-0.029854 -0.00403547 0)
(-0.0167848 -0.00487523 0)
(-0.00014475 -0.00342617 0)
(0.00363184 -0.000148409 0)
(-0.0020489 -0.0628157 0)
(-0.00258508 -0.0582784 0)
(0.000250602 -0.0595126 0)
(0.0035316 -0.0669106 0)
(0.0044466 -0.0596009 0)
(0.0107779 -0.040677 0)
(0.00974014 -0.0304703 0)
(0.00939041 -0.0215163 0)
(0.0280665 0.00722445 0)
(0.0420919 0.0351289 0)
(0.0403165 0.0371542 0)
(0.0315691 0.0319517 0)
(0.00828935 0.0254527 0)
(-0.0129932 0.0236493 0)
(-0.0242593 0.00591394 0)
(-0.0241879 0.00663016 0)
(-0.0117475 0.0161515 0)
(-0.0435865 -0.0012952 0)
(-0.00264328 0.00806656 0)
(-0.0460356 0.00804967 0)
(-0.0293529 0.00528366 0)
(-0.0502128 0.00644014 0)
(-0.0485098 0.00337348 0)
(-0.0537025 0.00107034 0)
(-0.0496216 -0.00262096 0)
(-0.0407226 -0.00510658 0)
(-0.0298806 -0.00504899 0)
(-0.0167409 -0.00606296 0)
(7.65652e-05 -0.0042042 0)
(0.0037691 -3.66286e-05 0)
(-0.00559334 -0.0577321 0)
(-0.0117357 -0.0534246 0)
(-0.0138334 -0.0565954 0)
(-0.0218518 -0.0617189 0)
(-0.0291699 -0.0575563 0)
(-0.0240595 -0.0433349 0)
(-0.0247891 -0.0345011 0)
(-0.0224405 -0.0273791 0)
(-0.0104043 -6.89315e-05 0)
(0.0086195 0.0306403 0)
(0.0120559 0.0364529 0)
(0.00764772 0.0387191 0)
(-0.00104643 0.0327654 0)
(-0.0152149 0.0284441 0)
(-0.0205416 0.00764812 0)
(-0.0348766 0.0042949 0)
(0.00709047 0.0176831 0)
(-0.0440146 -0.00112743 0)
(-0.00125094 0.00803055 0)
(-0.0460283 0.010474 0)
(-0.030047 0.00579693 0)
(-0.0502234 0.00761974 0)
(-0.0489544 0.00383349 0)
(-0.054103 0.00115558 0)
(-0.0499937 -0.00326387 0)
(-0.040863 -0.00618491 0)
(-0.0299252 -0.00607015 0)
(-0.0166977 -0.00725972 0)
(0.000328077 -0.00498707 0)
(0.00391754 8.95975e-05 0)
(-0.00690564 -0.0464279 0)
(-0.0138469 -0.0436385 0)
(-0.0217951 -0.0474012 0)
(-0.0376656 -0.0524126 0)
(-0.0488836 -0.0510225 0)
(-0.0529059 -0.0391909 0)
(-0.0586351 -0.0346926 0)
(-0.0537029 -0.0307222 0)
(-0.044897 -0.00728915 0)
(-0.0261435 0.025224 0)
(-0.026293 0.0362819 0)
(-0.0234524 0.039222 0)
(-0.0034391 0.0336713 0)
(-0.0147524 0.0320727 0)
(-0.00654543 0.0109438 0)
(-0.0353783 -7.52195e-05 0)
(0.0231506 0.0177895 0)
(-0.0427755 0.00169653 0)
(-0.00370157 0.00797236 0)
(-0.0452287 0.0130042 0)
(-0.031488 0.0063307 0)
(-0.0500991 0.00875212 0)
(-0.0494965 0.00433232 0)
(-0.0545731 0.00124223 0)
(-0.0504312 -0.00392419 0)
(-0.0410246 -0.00728437 0)
(-0.0299761 -0.00710043 0)
(-0.0166452 -0.00846727 0)
(0.000626556 -0.00577531 0)
(0.00409055 0.00022925 0)
(-0.00439951 -0.0404918 0)
(-0.0131732 -0.0350837 0)
(-0.0259108 -0.0349027 0)
(-0.0455946 -0.0393579 0)
(-0.0575247 -0.0413101 0)