/*--------------------------------*- C++ -*----------------------------------*\
| =========                 |                                                 |
| \\      /  F ield         | OpenFOAM: The Open Source CFD Toolbox           |
|  \\    /   O peration     | Version:  2.4.0                                 |
|   \\  /    A nd           | Web:      www.OpenFOAM.org                      |
|    \\/     M anipulation  |                                                 |
\*---------------------------------------------------------------------------*/
FoamFile
{
    version     2.0;
    format      ascii;
    class       volScalarField;
    location    "0.132";
    object      p;
}
// * * * * * * * * * * * * * * * * * * * * * * * * * * * * * * * * * * * * * //

dimensions      [1 -1 -2 0 0 0 0];

internalField   nonuniform List<scalar> 
14400
(
105.508
105.465
101.314
96.9131
92.6879
89.1961
86.2004
83.9054
82.8593
83.4825
85.8429
89.3283
92.9591
96.0383
98.3618
100.037
101.237
102.109
102.755
103.239
103.606
103.882
104.09
104.245
104.358
104.438
104.494
104.531
104.554
104.566
102.261
102.212
98.0511
93.6526
89.4221
85.9267
82.9266
80.6262
79.5738
80.1924
82.5606
86.0655
89.7199
92.8099
95.1314
96.7998
97.9929
98.859
99.4989
99.9785
100.341
100.615
100.82
100.973
101.084
101.164
101.219
101.255
101.278
101.29
99.021
98.9717
94.7938
90.3924
86.1519
82.6506
79.6395
77.3234
76.2491
76.8403
79.2086
82.7527
86.4638
89.5906
91.9248
93.5924
94.7785
95.6353
96.2656
96.7364
97.0909
97.3583
97.5588
97.7075
97.8159
97.8931
97.9466
97.9819
98.0036
98.0149
95.7874
95.745
91.5424
87.1298
82.8761
79.3665
76.3377
73.9966
72.8886
73.4338
75.7942
79.3945
83.1937
86.3827
88.7426
90.4148
91.5942
92.4399
93.0571
93.5153
93.8585
94.1164
94.3094
94.4524
94.5566
94.631
94.6825
94.7166
94.7376
94.7485
92.5602
92.5321
88.2968
83.8624
79.5948
76.0742
73.0211
70.6455
69.4925
69.9734
72.3182
75.9924
79.9121
83.1864
85.582
87.2614
88.4334
89.2656
89.8673
90.3102
90.6399
90.8866
91.0708
91.2073
91.3069
91.3782
91.4278
91.4607
91.481
91.4916
89.3393
89.3331
85.0566
80.59
76.308
72.7738
69.6894
67.2697
66.0605
66.4564
68.7761
72.5431
76.6192
80.0028
82.4426
84.1298
85.2931
86.1093
86.6931
87.1185
87.433
87.6673
87.8418
87.9711
88.0658
88.1339
88.1814
88.213
88.2325
88.2427
86.1242
86.148
81.8214
77.3278
73.0159
69.4656
66.3427
63.8688
62.5928
62.8796
65.1619
69.0413
73.315
76.8336
79.3253
81.0204
82.1729
82.9705
83.5337
83.9396
84.2372
84.4577
84.6217
84.7432
84.8325
84.8968
84.942
84.9721
84.9907
85.0003
82.9143
82.9773
78.5908
74.0823
69.7186
66.1498
62.9812
60.4424
59.0894
59.2395
61.468
65.4805
69.9996
73.6812
76.2314
77.9344
79.0732
79.849
80.3889
80.7729
81.0517
81.2572
81.4096
81.5227
81.6059
81.6661
81.7084
81.7367
81.7541
81.763
79.7091
79.8211
75.3645
70.8458
66.4165
62.8266
59.6048
56.9897
55.5504
55.5314
57.6846
61.8516
66.6733
70.5482
73.1625
74.8721
75.9935
76.7443
77.2577
77.6174
77.8755
78.0645
78.2044
78.3083
78.3848
78.4403
78.4794
78.5055
78.5215
78.5296
76.5076
76.68
72.1423
67.6155
63.1095
59.4962
56.2136
53.5101
51.9756
51.7498
53.8
58.1432
63.3367
67.4383
70.1213
71.8342
72.934
73.6559
74.1395
74.4719
74.7073
74.8783
75.0046
75.0984
75.1678
75.2182
75.2537
75.2773
75.2917
75.2989
73.3089
73.5544
68.9244
64.3903
59.7963
56.1593
52.8078
50.0027
48.3647
47.8888
49.8001
54.3403
59.9915
64.3554
67.1074
68.8212
69.8943
70.5831
71.0331
71.3353
71.5454
71.6967
71.8084
71.8916
71.9533
71.9983
72.0299
72.0509
72.0636
72.0698
70.1119
70.4448
65.7103
61.1706
56.4756
52.8159
49.3876
46.4663
44.7163
43.9411
45.6675
50.4232
56.641
61.3038
64.1291
65.8337
66.8736
67.5246
67.937
68.2055
68.3878
68.5178
68.6139
68.6858
68.7395
68.7786
68.8062
68.8245
68.8354
68.8406
66.915
67.3516
62.4999
57.9585
53.1462
49.4667
45.9533
42.9001
41.028
39.8991
41.3814
46.3679
53.2903
58.2901
61.1865
62.8718
63.871
64.4791
64.8497
65.0807
65.2322
65.3391
65.4186
65.4788
65.5241
65.5574
65.5809
65.5964
65.6054
65.6095
63.7165
64.2756
59.293
54.7588
49.8076
46.1123
42.5052
39.3029
37.2953
35.7539
36.9166
42.144
49.9447
55.321
58.279
59.9357
60.8851
61.445
61.769
61.9584
62.0758
62.1578
62.2199
62.2681
62.305
62.3325
62.3518
62.3645
62.3718
62.3748
60.5144
61.2175
56.0894
51.5597
46.4592
42.7533
39.0436
35.6732
33.5116
31.4963
32.2439
37.7117
46.6144
52.4042
55.4108
57.0247
57.914
58.4199
58.6926
58.8355
58.9152
58.9707
59.0148
59.0508
59.0794
59.1011
59.1166
59.1266
59.1321
59.1341
57.3062
58.1784
52.8887
48.3485
43.0999
39.3905
35.5693
32.0089
29.6731
27.122
27.332
33.0227
43.3165
49.5489
52.5828
54.1362
54.955
55.4009
55.6178
55.7086
55.7466
55.7739
55.7997
55.8236
55.8443
55.8607
55.8726
55.8801
55.8839
55.8847
54.0889
55.1589
49.6906
45.128
39.7279
36.0249
32.0831
28.3066
25.798
22.6512
22.142
28.01
40.0733
46.7712
49.7958
51.2677
52.0056
52.3838
52.5416
52.5738
52.5652
52.5634
52.571
52.5833
52.5964
52.6079
52.6166
52.622
52.6244
52.6242
50.8591
52.1593
46.4943
41.8983
36.342
32.6576
28.586
24.5654
21.9539
18.1809
16.6254
22.5611
36.8952
44.1109
47.0679
48.4234
49.0596
49.3636
49.4696
49.4256
49.3655
49.3344
49.3244
49.3256
49.332
49.3394
49.3453
49.3489
49.3503
49.3496
47.6126
49.1797
43.2988
38.659
32.9378
29.2903
25.0794
20.7926
18.2417
13.9242
10.7458
16.5159
33.8072
41.5239
44.386
45.5865
46.1097
46.336
46.3604
46.2576
46.1421
46.0827
46.055
46.0455
46.0462
46.0507
46.0548
46.0572
46.0577
46.0563
44.3444
46.2199
40.1025
35.4091
29.497
25.9241
21.5646
17.0001
14.7009
10.075
4.49725
9.74543
30.8842
39.1006
41.7562
42.7834
43.1478
43.3049
43.2612
43.0712
42.8957
42.8059
42.7594
42.7389
42.7344
42.737
42.7409
42.743
42.7425
42.74
41.0488
43.279
36.9025
32.1468
26.0177
22.5607
18.0439
13.1944
11.2719
6.65758
-2.0602
2.22162
28.0602
36.6837
39.1441
39.9748
40.1728
40.2771
40.1405
39.8573
39.6233
39.4976
39.4283
39.3974
39.3901
39.3934
39.3985
39.4014
39.4009
39.3979
37.7184
40.3556
33.6947
28.8701
22.4944
19.2021
14.5206
9.39431
7.8887
3.60279
-9.04491
-6.87602
25.0762
34.4686
36.5779
37.17
37.1883
37.2611
36.9145
36.5623
36.3153
36.1485
36.0502
36.0082
36.0033
36.0111
36.0196
36.0251
36.027
36.0251
34.345
37.4474
30.4717
25.5772
18.9194
15.8523
11.0034
5.67598
4.51518
0.71466
-11.8059
-6.11644
22.5333
32.2004
33.9931
34.387
34.2082
34.2139
33.5007
33.1712
32.97
32.7465
32.6146
32.5631
32.5656
32.5829
32.5989
32.6095
32.6139
32.6126
30.9188
34.5502
27.218
22.2691
15.2822
12.518
7.51392
2.1834
1.17794
0.141473
0.0789522
-17.6661
18.7494
29.724
31.3651
31.6321
31.1556
31.1273
30.0672
29.7353
29.5807
29.2646
29.095
29.0447
29.0682
29.1046
29.134
29.1507
29.1559
29.1531
27.4274
31.6583
23.8992
18.9524
11.5787
9.21626
4.1282
-0.24331
-0.0227451
0.132375
-0.075743
-14.1161
17.1038
27.4091
28.8239
28.8773
28.0455
28.0469
26.7139
26.1976
26.1446
25.6816
25.4533
25.4229
25.4904
25.5615
25.6143
25.6436
25.6523
25.6485
23.8567
28.7636
20.4911
15.6169
7.82028
5.98568
0.424607
-0.100921
-0.0339364
0.0949604
-0.13252
-4.39862
14.985
25.4582
26.3092
26.1136
24.866
25.2053
23.2477
22.5037
22.6337
21.9784
21.6758
21.6764
21.8077
21.9325
22.0271
22.0845
22.1078
22.1083
20.1905
25.8565
16.9465
12.2411
3.94566
2.7006
-0.0912268
-0.108175
-0.0502391
0.0415819
-0.0931845
-0.125479
14.5401
23.3606
23.8743
23.592
21.6041
22.6963
19.7508
18.8885
19.0628
18.1249
17.7676
17.8093
18.0214
18.2248
18.3841
18.4859
18.5343
18.5437
16.4071
22.9365
13.3291
8.80397
-0.251721
-0.620684
-0.0869303
-0.113682
-0.0679227
-0.00447591
-0.0803155
-0.769093
12.3285
21.0713
20.7047
20.6663
18.065
19.2386
15.3287
15.0209
15.3688
13.9993
13.7233
13.8677
14.1689
14.4796
14.721
14.8713
14.9428
14.9571
12.4875
19.9943
13.6538
5.18469
-5.94415
0.0515879
-0.0960925
-0.119435
-0.0838729
-0.0352445
-0.0810959
-0.804429
8.53349
18.1224
16.6421
17.4664
14.0435
15.0826
11.8373
11.2082
11.025
9.77641
9.5875
9.85698
10.2821
10.7383
11.0711
11.2578
11.3329
11.3357
8.44794
18.1818
14.053
1.66848
-1.82154
0.0199584
-0.0995216
-0.131295
-0.0968432
-0.0559323
-0.0902933
-0.609441
-5.85524
14.4242
12.3549
15.1451
11.2963
9.79234
8.32687
7.59107
6.56542
6.31843
5.23972
5.61443
6.32934
7.03323
7.47785
7.67373
7.71355
7.6768
104.57
104.567
104.555
104.531
104.491
104.431
104.344
104.223
104.056
103.832
103.535
103.14
102.616
101.91
100.943
99.5893
97.6768
95.0235
91.6124
87.8486
84.694
83.0322
83.1834
85.0087
88.1376
92.0608
96.2121
100.215
103.539
105.911
101.294
101.29
101.279
101.255
101.216
101.157
101.071
100.951
100.786
100.565
100.271
99.8807
99.3617
98.6623
97.7018
96.3558
94.4491
91.7934
88.365
84.5848
81.4056
79.7423
79.8993
81.7308
84.8663
88.7954
92.9498
96.9539
100.279
102.657
98.0186
98.0157
98.0042
97.9815
97.9438
97.8863
97.8029
97.6859
97.5256
97.3099
97.0225
96.6407
96.1312
95.4419
94.4908
93.1512
91.2421
88.5647
85.0862
81.2551
78.0479
76.4
76.5808
78.4321
81.5849
85.5282
89.6896
93.6965
97.025
99.41
94.7521
94.7492
94.738
94.7159
94.6795
94.624
94.5437
94.4312
94.2771
94.0695
93.7923
93.4226
92.9263
92.2504
91.3103
89.9755
88.0561
85.3389
81.7798
77.8684
74.6288
73.0107
73.2289
75.1113
78.2919
82.2581
86.4311
90.4442
93.7758
96.171
91.4949
91.492
91.481
91.4595
91.4241
91.3707
91.2937
91.1862
91.0392
90.8412
90.576
90.2208
89.7407
89.0808
88.1541
86.8244
84.8904
82.1181
78.4487
74.4263
71.1486
69.5747
69.8437
71.7682
74.9871
78.9853
83.1743
87.1967
90.5315
92.9399
88.2458
88.2428
88.232
88.2111
88.1768
88.1255
88.0519
87.9498
87.8105
87.6229
87.3713
87.0325
86.571
85.9302
85.0196
83.6965
81.7451
78.9035
75.0919
70.9249
67.6036
66.0908
66.4247
68.4028
71.6706
75.7099
79.9194
83.9537
87.2921
89.7167
85.0032
85.0001
84.9896
84.9693
84.9364
84.8873
84.8176
84.7213
84.5904
84.4142
84.1775
83.857
83.4166
82.7979
81.9066
80.5924
78.6219
75.6968
71.7074
67.3582
63.9889
62.5577
62.9717
65.015
68.3424
72.4322
76.6666
80.7154
84.0575
86.5014
81.7656
81.7625
81.7523
81.7329
81.7016
81.6552
81.5897
81.4998
81.378
81.2143
80.9938
80.6938
80.2772
79.6838
78.8153
77.5126
75.523
72.5004
68.2927
63.7177
60.299
58.974
59.4846
61.6048
65.0025
69.1525
73.4162
77.4819
80.8277
83.294
78.5318
78.5287
78.519
78.5006
78.4712
78.4279
78.3671
78.284
78.172
78.0218
77.8192
77.5417
77.1518
76.5873
75.7458
74.4582
72.4509
69.3173
64.8448
59.9927
56.5267
55.3377
55.9631
58.1721
61.6508
65.8712
70.1684
74.253
77.6023
80.0946
75.3007
75.2977
75.2884
75.2713
75.244
75.2041
75.1483
75.0726
74.9711
74.8355
74.6524
74.3998
74.0398
73.508
72.698
71.431
69.4092
66.1513
61.3603
56.1689
52.6638
51.648
52.4073
54.7167
58.2872
62.5887
66.9233
71.0287
74.3814
76.9032
72.0711
72.068
72.0594
72.0435
72.0185
71.9821
71.9317
71.8638
71.7735
71.6535
71.4918
71.2668
70.9401
70.4452
69.6718
68.4325
66.3989
63.0072
57.8359
52.2278
48.7006
47.9005
48.8177
51.2384
54.9115
59.3056
63.6815
67.8092
71.1648
73.7197
68.8414
68.8383
68.8302
68.8156
68.7929
68.7602
68.7154
68.6556
68.577
68.4739
68.3354
68.1408
67.8512
67.3976
66.6666
65.4634
63.4241
59.8908
54.2667
48.1458
44.6258
44.0932
45.1951
47.7364
51.5233
56.0224
60.4428
64.5942
67.9522
70.5443
65.6099
65.6067
65.5991
65.5858
65.5654
65.5365
65.4972
65.4458
65.3795
65.2941
65.1808
65.0199
64.7714
64.364
63.6813
62.5247
60.4911
56.8096
50.647
43.8913
40.4275
40.2226
41.541
44.2101
48.1222
52.7398
57.2076
61.3837
64.7433
67.3769
62.3746
62.3714
62.3642
62.3521
62.3339
62.3086
62.2749
62.2319
62.1782
62.1116
62.0255
61.9019
61.699
61.3425
60.7145
59.6177
57.601
53.7754
46.9697
39.4209
36.0934
36.2837
37.8576
40.6586
44.7079
49.4587
53.9761
58.1775
61.5379
64.2177
59.1333
59.1299
59.1231
59.112
59.096
59.074
59.0457
59.0111
58.9701
58.923
58.8662
58.784
58.6315
58.3309
57.7639
56.7442
54.7628
50.7979
43.2247
34.6773
31.6124
32.2697
34.1472
37.0807
41.2799
46.1795
50.7479
54.9754
58.3356
61.0664
55.8833
55.8798
55.8733
55.8632
55.8489
55.83
55.8067
55.7801
55.7518
55.7246
55.6991
55.663
55.5663
55.3266
54.826
53.905
51.9861
47.884
39.3974
29.5849
26.9778
28.1755
30.4133
33.4754
37.838
42.9028
47.5228
51.7769
55.136
57.9232
52.6223
52.6185
52.6121
52.6025
52.5895
52.5733
52.5547
52.5358
52.5198
52.5125
52.52
52.5358
52.5005
52.3254
51.8967
51.094
49.2653
45.0592
35.4779
24.0451
22.1941
24.0164
26.6598
29.8414
34.3821
39.6287
44.3003
48.5814
51.9386
54.7881
49.3471
49.3427
49.3358
49.3264
49.3145
49.3004
49.2857
49.2738
49.2695
49.2817
49.3234
49.3993
49.4308
49.3214
48.971
48.3203
46.6381
42.3109
31.4985
17.9274
17.2906
19.8714
22.891
26.1755
30.9123
36.3571
41.0793
45.398
48.7429
51.6609
46.0532
46.0482
46.0409
46.0313
46.0197
46.0069
45.9953
45.9899
45.9973
46.0281
46.1031
46.2497
46.3566
46.311
46.036
45.5629
44.0975
39.6246
27.5245
11.0647
12.3317
15.9119
19.1131
22.4736
27.4293
33.0873
37.8581
42.2225
45.5481
48.5415
42.7361
42.7308
42.7233
42.713
42.7005
42.6877
42.6787
42.6798
42.6995
42.7503
42.8597
43.0877
43.2842
43.289
43.09
42.8343
41.551
37.0748
23.6119
3.28164
7.38713
12.2998
15.332
18.7346
23.9337
29.8182
34.6348
39.053
42.3535
45.4295
39.3933
39.387
39.3781
39.3662
39.3519
39.3375
39.3288
39.3355
39.3699
39.4472
39.5923
39.9026
40.2095
40.258
40.1113
40.0708
39.0605
34.6744
20.0203
-5.44477
2.49509
9.09359
11.547
14.9646
20.4264
26.5478
31.4075
35.8884
39.158
42.3244
36.0199
36.0113
35.9987
35.983
35.9652
35.9475
35.9351
35.9455
36.0003
36.1085
36.2814
36.6334
37.115
37.2358
37.0983
37.3343
36.6886
32.4091
16.8183
-14.4159
-2.40153
6.11803
7.75378
11.1864
16.9089
23.2735
28.1735
32.7276
35.9606
39.2257
32.6064
32.5953
32.5789
32.5582
32.5342
32.5088
32.4883
32.4987
32.5773
32.7167
32.9125
33.2167
33.9244
34.2127
34.0424
34.5922
34.2344
30.1386
13.9775
9.23352
-3.86834
3.22412
3.99614
7.45931
13.3835
19.9918
24.9293
29.5696
32.7602
36.1324
29.1451
29.1322
29.1136
29.0883
29.0555
29.0159
28.9764
28.9741
29.0761
29.2529
29.505
29.7255
30.7355
31.1044
30.8716
31.8591
31.6575
27.5005
12.4439
-9.89199
-0.109577
0.0874644
0.380347
3.84999
9.85351
16.6986
21.6689
26.4129
29.5553
33.0432
25.638
25.622
25.5984
25.5643
25.5162
25.4532
25.3785
25.3366
25.4516
25.7011
26
25.951
27.5234
27.9486
27.5848
29.1179
28.9535
25.2502
9.56888
-0.895848
-0.0878362
0.0857327
0.0325465
-0.146942
6.3354
13.389
18.385
23.2557
26.3442
29.9563
22.0951
22.0708
22.0327
21.9766
21.8997
21.8015
21.6777
21.583
21.6719
22.0237
22.3593
21.7258
24.7936
24.9325
24.1327
26.4006
26.3707
23.2067
13.6896
0.233821
-0.0777285
0.0687737
0.0256251
-0.933461
2.81927
10.052
15.0698
20.0958
23.1251
26.8696
18.5271
18.4886
18.4256
18.3354
18.2155
18.0682
17.88
17.7469
17.7617
18.2266
18.6182
16.7458
20.8695
21.4701
19.9488
23.9373
24.0475
21.0364
9.09679
0.177804
-0.0525963
0.0343045
0.00190486
-0.13744
-3.64855
6.66083
11.719
16.93
19.896
23.78
14.933
14.8777
14.789
14.6647
14.4984
14.292
14.0434
13.85
13.7703
14.3348
14.7892
12.6606
16.5242
17.2875
16.0802
20.8786
20.9978
20.7245
-4.08309
0.157761
-0.0220994
0.00400715
-0.0157484
-0.114465
-0.343186
3.02729
8.33928
13.7535
16.6544
20.6814
11.2963
11.2264
11.1238
10.9813
10.7815
10.5098
10.1964
9.88557
9.63882
10.0727
10.7292
10.0263
12.97
14.0251
12.8172
17.4416
18.3815
21.9728
-14.2944
0.16137
-0.000500551
-0.01592
-0.0292393
-0.103198
-0.0497564
-4.61864
4.90124
10.5614
13.3979
17.5715
7.61139
7.53403
7.44328
7.31743
7.10172
6.73994
6.28502
5.90943
5.71601
5.17731
6.12375
8.64964
9.51182
11.1304
9.82577
14.3827
14.4583
24.7764
-1.53815
0.201141
0.00914732
-0.0278114
-0.0396284
-0.097372
-0.0563333
-0.0497799
1.28155
7.35135
10.1204
14.4506
6.0436
14.8436
11.1064
13.5232
-0.207118
-0.00324398
-0.0992789
-0.134131
-0.105083
-0.0699589
-0.102998
-0.701362
-14.8873
10.9435
10.1294
13.1589
10.1744
4.56489
4.76619
5.42688
3.75832
2.10842
1.01647
1.57337
2.75828
3.86436
4.44963
4.61706
4.57262
4.4602
4.31217
13.8487
9.41202
-9.19309
-0.182137
-0.0149154
-0.0992961
-0.134845
-0.108938
-0.0770633
-0.11222
-0.78953
-0.276939
7.38608
8.71837
12.1609
9.4017
1.60672
2.98633
3.91355
2.34909
-0.221903
-1.57411
-1.04549
0.56212
2.03778
2.73185
2.86059
2.73867
2.55747
2.70577
12.1188
8.11366
-10.8645
-0.176579
-0.0265083
-0.0998326
-0.135144
-0.112381
-0.0838197
-0.121792
-0.800119
-0.199525
-4.38173
7.35591
10.9343
10.4035
0.0691892
0.67179
1.8865
0.432989
-2.78038
-3.84487
-2.36255
-0.889903
0.258442
0.950623
0.983412
0.768308
0.498536
1.33816
10.3508
6.56338
-1.72744
-0.168098
-0.0375805
-0.100776
-0.135098
-0.115399
-0.0901429
-0.135061
3.51183
-0.457882
-0.900143
6.79
9.5485
9.33891
1.77492
-2.53752
-0.97967
-0.211873
-0.148646
-0.150835
-0.142416
-0.130276
-0.121456
-0.117808
-0.115815
-0.114737
-0.113314
-0.0344788
8.77828
4.15491
0.0494276
-0.159935
-0.0482847
-0.102139
-0.13485
-0.11815
-0.0962916
-0.133884
0.374161
-0.448498
-0.377971
1.71273
8.12549
8.33831
-0.644357
-0.164051
-0.169036
-0.149426
-0.154403
-0.154326
-0.144551
-0.133032
-0.124776
-0.119067
-0.117149
-0.116342
-0.115565
-0.76789
7.5542
2.06186
-0.0655793
-0.151726
-0.0585935
-0.103903
-0.134464
-0.120735
-0.102326
-0.128386
0.361118
-0.529383
-0.444272
-0.256926
-0.145183
-0.125889
-0.147865
-0.165267
-0.171107
-0.1558
-0.156439
-0.158036
-0.147491
-0.135169
-0.119756
-0.118828
-0.117672
-0.117488
-0.117449
-0.206197
6.02151
0.0789709
-0.0519208
-0.143928
-0.0684463
-0.106168
-0.134212
-0.12336
-0.108168
-0.127725
0.343033
-0.475403
-0.452411
-0.276364
-0.152083
-0.132382
-0.146557
-0.165418
-0.1716
-0.162877
-0.154356
-0.155828
-0.149745
-0.13492
-0.122556
-0.118317
-0.117843
-0.118793
-0.119959
-0.120121
1.28225
0.105516
-0.045126
-0.136189
-0.0777395
-0.108781
-0.134256
-0.126171
-0.113695
-0.135143
0.117931
-0.556805
-0.459634
-0.27509
-0.155016
-0.166254
-0.125685
-0.149266
-0.076951
-0.0947145
-0.145895
-0.153292
-0.149232
-0.134719
-0.122222
-0.118063
-0.118247
-0.120873
-0.123821
-0.122359
0.158586
0.208822
-0.0444036
-0.129646
-0.086328
-0.111682
-0.134715
-0.129235
-0.11881
-0.140371
0.0185884
-0.573259
-0.459657
-0.259984
-0.162817
-0.169218
-0.185478
-0.189408
-0.179572
-0.14162
-0.0660802
-0.143819
-0.148639
-0.132567
-0.121369
-0.118541
-0.120575
-0.117074
-0.128086
-0.129431
-0.0107212
0.137456
-0.0469821
-0.124643
-0.0941641
-0.11487
-0.135629
-0.132537
-0.123311
-0.137057
-0.0705585
-0.571178
-0.514274
-0.327069
-0.176709
-0.176125
-0.185071
-0.188828
-0.182433
-0.164603
-0.178603
-0.202765
-0.1108
-0.128267
-0.121755
-0.119834
-0.124343
-0.129079
-0.129665
-0.13309
-0.106825
0.0733135
-0.0514804
-0.121513
-0.101304
-0.11834
-0.13701
-0.136051
-0.12755
-0.127147
-0.105368
-0.536397
-0.492455
-0.355637
-0.19206
-0.185072
-0.18558
-0.191284
-0.184377
-0.179387
-0.180439
-0.174076
-0.162094
-0.127697
-0.124113
-0.12346
-0.119999
-0.127023
-0.125379
-0.136478
-0.111683
0.040663
-0.0582439
-0.120258
-0.107892
-0.12211
-0.138806
-0.137454
-0.131983
-0.122587
-0.110153
-0.474612
-0.467622
-0.31199
-0.198952
-0.174761
-0.164244
-0.19337
-0.195714
-0.192101
-0.190295
-0.18611
-0.155162
-0.145849
-0.121324
-0.136024
-0.130324
-0.126845
-0.117589
-0.141709
-0.117573
-0.0144961
-0.066682
-0.120721
-0.114119
-0.126187
-0.141049
-0.143905
-0.135305
-0.128196
-0.140844
-0.399027
-0.407634
-0.291383
-0.203725
-0.209256
-0.20194
-0.203977
-0.204481
-0.203729
-0.201268
-0.197229
-0.185872
-0.15874
-0.131986
-0.152298
-0.14245
-0.129761
-0.121866
-0.146751
-0.123661
-0.0284786
-0.0751372
-0.122685
-0.120174
-0.130585
-0.14387
-0.146776
-0.142827
-0.139613
-0.178465
-0.332342
-0.343633
-0.277272
-0.21917
-0.212875
-0.209143
-0.211867
-0.213671
-0.214667
-0.212221
-0.206726
-0.195234
-0.168563
-0.137346
-0.171594
-0.159261
-0.145096
-0.134812
-0.152443
-0.12904
-0.0149101
-0.08464
-0.125948
-0.126226
-0.135315
-0.146927
-0.151901
-0.148954
-0.152536
-0.189198
-0.28929
-0.291257
-0.254016
-0.219579
-0.215158
-0.215511
-0.217863
-0.222416
-0.224815
-0.224506
-0.2224
-0.221796
-0.224087
-0.208722
-0.197021
-0.176144
-0.159861
-0.147552
-0.158791
-0.134076
-0.0264089
-0.0961102
-0.130347
-0.132415
-0.140413
-0.15025
-0.156073
-0.156068
-0.163772
-0.206185
-0.259561
-0.242223
-0.243364
-0.214889
-0.216189
-0.220548
-0.226262
-0.230987
-0.23455
-0.237641
-0.238951
-0.237183
-0.242683
-0.226705
-0.2076
-0.187892
-0.170333
-0.155219
-0.165818
-0.140253
-0.0357296
-0.107485
-0.135814
-0.138865
-0.145874
-0.153094
-0.16149
-0.164682
-0.173121
-0.223702
-0.146978
-0.124523
-0.199968
-0.207441
-0.216489
-0.224958
-0.232528
-0.238789
-0.244166
-0.248558
-0.251607
-0.253025
-0.24392
-0.236013
-0.218456
-0.198823
-0.180801
-0.165958
-0.173275
-0.147998
-0.0406541
-0.118829
-0.142361
-0.14567
-0.151662
-0.155581
-0.168457
-0.175686
-0.181164
-0.20698
-0.220223
-0.14154
-0.178189
-0.201255
-0.217254
-0.229673
-0.239341
-0.246828
-0.252908
-0.258047
-0.261452
-0.261092
-0.25518
-0.241533
-0.227496
-0.209351
-0.191672
-0.175929
-0.180978
-0.158187
-0.0456996
-0.131274
-0.150031
-0.152921
-0.157781
-0.158008
-0.164123
-0.190256
-0.189901
-0.195509
-0.175986
-0.133689
-0.169319
-0.198359
-0.219448
-0.235545
-0.247378
-0.255696
-0.261798
-0.266988
-0.270773
-0.270577
-0.264907
-0.253373
-0.239669
-0.223363
-0.207411
-0.192657
-0.1889
-0.17153
-0.0410791
-0.145825
-0.158852
-0.160696
-0.164403
-0.167476
-0.186533
-0.210619
-0.201248
-0.189834
-0.159274
-0.14046
-0.170458
-0.199465
-0.223864
-0.243579
-0.25757
-0.265985
-0.271033
-0.275231
-0.27898
-0.280092
-0.276522
-0.267873
-0.25551
-0.241566
-0.229272
-0.222061
-0.197077
-0.188727
-0.0314196
-0.16483
-0.168781
-0.169069
-0.171837
-0.173504
-0.19765
-0.227782
-0.212528
-0.190753
-0.164442
-0.15688
-0.177897
-0.204198
-0.231044
-0.255152
-0.271537
-0.27931
-0.281764
-0.283213
-0.284002
-0.284913
-0.282618
-0.275623
-0.265194
-0.253319
-0.242201
-0.233208
-0.205352
-0.21266
-0.0238076
-0.191777
-0.17954
-0.178077
-0.180322
-0.181475
-0.20757
-0.240191
-0.224458
-0.197237
-0.177682
-0.174109
-0.188295
-0.211337
-0.241056
-0.271298
-0.290269
-0.296375
-0.295914
-0.294248
-0.293198
-0.291506
-0.287798
-0.281751
-0.273687
-0.263893
-0.253434
-0.243592
-0.213356
-0.235209
0.0282908
-0.22053
-0.190376
-0.187745
-0.189523
-0.191716
-0.214177
-0.248325
-0.233776
-0.205876
-0.19203
-0.189783
-0.198969
-0.218548
-0.251272
-0.289846
-0.311765
-0.314195
-0.309857
-0.30644
-0.304911
-0.304909
-0.304293
-0.298668
-0.290383
-0.278459
-0.269559
-0.259182
-0.221277
-0.232781
-0.163011
-0.219317
-0.200694
-0.198132
-0.199477
-0.202506
-0.216201
-0.244378
-0.235001
-0.213843
-0.204624
-0.202769
-0.208124
-0.222473
-0.250572
-0.290119
-0.311901
-0.319192
-0.315419
-0.31268
-0.311351
-0.307034
-0.304169
-0.300076
-0.296758
-0.294412
-0.291157
-0.288034
-0.229761
-0.230479
-0.186493
-0.219772
-0.211169
-0.209343
-0.210397
-0.212803
-0.221186
-0.238621
-0.232893
-0.221383
-0.215495
-0.213593
-0.215791
-0.224289
-0.237094
-0.272352
-0.291299
-0.298655
-0.299651
-0.300946
-0.290105
-0.27955
-0.303965
-0.304256
-0.30752
-0.313512
-0.31738
-0.319092
-0.239265
-0.234112
-0.198922
-0.225558
-0.222473
-0.221506
-0.222359
-0.22428
-0.229075
-0.235956
-0.234948
-0.229755
-0.226054
-0.223973
-0.223024
-0.2238
-0.145132
-0.135573
-0.212306
-0.242532
-0.25037
-0.201936
-0.254108
-0.212565
-0.255619
-0.265346
-0.262742
-0.311318
-0.32116
-0.32768
-0.250021
-0.241981
-0.21617
-0.235345
-0.235034
-0.234687
-0.235383
-0.236869
-0.239592
-0.242541
-0.242412
-0.239986
-0.237675
-0.236128
-0.235706
-0.238202
-0.24861
-0.255461
-0.245378
-0.239649
-0.245554
-0.256661
-0.263284
-0.259505
-0.273342
-0.278358
-0.286656
-0.295288
-0.304307
-0.311626
-0.262136
-0.252953
-0.235858
-0.24816
-0.248964
-0.24894
-0.249488
-0.250575
-0.252167
-0.253535
-0.253463
-0.252206
-0.250802
-0.249831
-0.249694
-0.250826
-0.252764
-0.252715
-0.248734
-0.247289
-0.250764
-0.253476
-0.258085
-0.261065
-0.266047
-0.273674
-0.281467
-0.290541
-0.29493
-0.298585
-0.275644
-0.26638
-0.256472
-0.263359
-0.264276
-0.26436
-0.26473
-0.265433
-0.2663
-0.266913
-0.266851
-0.266212
-0.265402
-0.264766
-0.264505
-0.264606
-0.264721
-0.264287
-0.263406
-0.263173
-0.264222
-0.266216
-0.268168
-0.270092
-0.272355
-0.274994
-0.277761
-0.280368
-0.28257
-0.284239
-0.290526
-0.28181
-0.277729
-0.280522
-0.281031
-0.281051
-0.281193
-0.281517
-0.281855
-0.282052
-0.282042
-0.281813
-0.281452
-0.281096
-0.280842
-0.280688
-0.280553
-0.280385
-0.280269
-0.280383
-0.280797
-0.281432
-0.282147
-0.282872
-0.28361
-0.284351
-0.285062
-0.285714
-0.286287
-0.286771
4.35629
4.28062
4.23474
4.17193
3.9632
3.45566
2.71809
2.32749
1.53069
0.3636
2.78842
6.8344
7.04237
8.86512
6.49121
12.4491
10.8615
28.4896
2.17699
0.19143
0.00939758
-0.0332984
-0.0470444
-0.095289
-0.0655021
-0.183345
-2.33066
4.49322
7.22321
11.7394
2.42711
2.35741
2.36445
2.37455
2.18925
1.54175
0.512197
0.0971145
-1.18826
-2.59755
0.941309
5.69734
5.69367
7.57312
4.25148
11.0138
9.01844
38.3346
0.164291
0.173956
0.00607426
-0.0348395
-0.0508007
-0.0945505
-0.0698168
-0.153243
-0.267065
2.89241
5.51893
10.0864
0.380032
0.324831
0.405178
0.38873
0.333372
-0.0405467
-0.635776
-0.752865
-2.57198
-5.67662
-1.55027
4.58553
4.86072
5.80045
2.14286
10.1646
9.83382
-0.0496944
0.0512325
0.148529
0.000552721
-0.0335873
-0.0541077
-0.0939511
-0.0758178
-0.149202
-0.159128
1.41161
3.69327
8.24383
-0.112158
-0.111266
-0.110358
-0.109228
-0.107411
-0.103239
-0.0956928
-0.0920535
-0.0885519
-0.0722081
-0.144135
1.76288
3.2457
4.16934
-0.176683
11.1608
4.0236
0.00919246
-0.213928
0.11788
0.00874118
-0.044986
-0.0580869
-0.0935494
-0.0802582
-0.14362
-0.143305
-0.692014
1.75222
6.26137
-0.114726
-0.113914
-0.113028
-0.111778
-0.109663
-0.105849
-0.0997736
-0.0959835
-0.0907398
-0.079807
-0.0841119
-0.10594
-0.123173
-0.0643921
-0.943042
7.38245
-0.349806
-0.226106
-0.221685
0.0680379
0.0375808
-0.0446953
-0.0617284
-0.0934605
-0.0847277
-0.140393
-0.14726
-0.223409
-0.707864
4.32921
-0.117148
-0.116622
-0.115843
-0.114683
-0.112633
-0.10919
-0.104122
-0.0997155
-0.0933639
-0.0849043
-0.0905116
-0.1085
-0.121478
-0.122183
-0.120593
-0.192333
-0.333406
-0.286893
-0.245808
0.212171
0.158861
-0.0397883
-0.06564
-0.0937849
-0.0891798
-0.138606
-0.147654
-0.202732
-2.06855
2.10367
-0.120103
-0.119746
-0.118946
-0.118028
-0.116274
-0.113178
-0.109057
-0.104556
-0.0979329
-0.0908756
-0.0969167
-0.111681
-0.125664
-0.125109
-0.127871
-0.191979
-0.326486
-0.318055
-0.261369
0.215836
0.0212834
-0.0508133
-0.0697617
-0.0946101
-0.0936071
-0.137629
-0.147986
-0.195098
0.152391
-0.0341887
-0.123852
-0.123037
-0.122127
-0.121962
-0.120864
-0.117546
-0.114005
-0.109667
-0.104072
-0.0946283
-0.101264
-0.114809
-0.131563
-0.128526
-0.126998
-0.197473
-0.30982
-0.334457
-0.258174
0.138763
-0.00111517
-0.0543418
-0.0742103
-0.0960065
-0.0980285
-0.137232
-0.148387
-0.188498
-0.0423707
-0.0785364
-0.126964
-0.124955
-0.124113
-0.126026
-0.126756
-0.122265
-0.118612
-0.114788
-0.110257
-0.104249
-0.108288
-0.114571
-0.133413
-0.131324
-0.131245
-0.196748
-0.331363
-0.352705
-0.23649
0.0432025
-0.0183681
-0.0601919
-0.079012
-0.0980264
-0.102458
-0.137326
-0.14866
-0.181354
-0.0534165
-0.101999
-0.128434
-0.125909
-0.125655
-0.131819
-0.136601
-0.12728
-0.122686
-0.119353
-0.115658
-0.113632
-0.112027
-0.125293
-0.144824
-0.143469
-0.132534
-0.217297
-0.331461
-0.371875
-0.192508
-0.00211905
-0.0369178
-0.0669423
-0.0838362
-0.100695
-0.106916
-0.137851
-0.149001
-0.174453
-0.0368543
-0.117
-0.122798
-0.121458
-0.123778
-0.0538897
-0.13127
-0.12921
-0.125846
-0.124563
-0.120279
-0.117355
-0.122926
-0.123287
-0.147643
-0.143515
-0.148168
-0.229343
-0.335727
-0.396407
-0.209862
-0.0628341
-0.0581184
-0.0756257
-0.0904815
-0.103991
-0.111434
-0.138793
-0.149555
-0.168691
-0.0954027
-0.120421
-0.122614
-0.107855
-0.106395
-0.0857437
-0.111112
-0.125155
-0.130571
-0.130784
-0.124592
-0.120024
-0.119296
-0.124309
-0.127313
-0.151625
-0.163333
-0.231051
-0.337039
-0.418255
-0.221289
-0.12719
-0.0777668
-0.0862407
-0.0963665
-0.107894
-0.116049
-0.140154
-0.150413
-0.164328
-0.105605
-0.138992
-0.113717
-0.109928
-0.120995
-0.0928126
-0.104471
-0.120599
-0.145304
-0.142819
-0.128608
-0.119707
-0.120609
-0.12082
-0.13031
-0.164288
-0.181719
-0.224907
-0.328125
-0.417132
-0.236524
-0.138317
-0.0964482
-0.0996542
-0.103687
-0.112404
-0.120809
-0.141946
-0.15166
-0.16146
-0.115608
-0.141628
-0.10284
-0.126784
-0.126332
-0.0856751
-0.0988368
-0.0845096
0.29708
-0.0827169
-0.116215
-0.11577
-0.127716
-0.129191
-0.110589
-0.179158
-0.191021
-0.217825
-0.307975
-0.388937
-0.240372
-0.15414
-0.110204
-0.113276
-0.10799
-0.117445
-0.125772
-0.144195
-0.153357
-0.160092
-0.123536
-0.14464
-0.138079
-0.128809
-0.119474
-0.113605
-0.124897
-0.124577
-0.168377
-0.0919067
-0.0266943
-0.125723
-0.145849
-0.148146
-0.156858
-0.18054
-0.190896
-0.224394
-0.278189
-0.340188
-0.234395
-0.166501
-0.127378
-0.12101
-0.11808
-0.12294
-0.131001
-0.146945
-0.155565
-0.160167
-0.131209
-0.148013
-0.141597
-0.127263
-0.111205
-0.0987331
-0.0963268
-0.0982507
-0.117255
-0.0153773
0.14752
0.00628934
-0.175225
-0.170911
-0.14665
-0.174926
-0.184969
-0.225064
-0.251141
-0.256898
-0.21998
-0.181448
-0.14067
-0.128147
-0.124775
-0.128886
-0.136561
-0.150268
-0.158338
-0.161563
-0.138798
-0.151847
-0.153658
-0.139646
-0.123288
-0.105694
-0.0981348
-0.0851788
-0.0590398
-0.109416
0.0113332
-0.155083
-0.199653
-0.1679
-0.0956773
-0.175304
-0.182933
-0.200108
-0.178892
-0.179685
-0.180543
-0.184649
-0.151761
-0.135184
-0.131652
-0.135292
-0.142503
-0.154249
-0.16173
-0.164135
-0.146499
-0.15621
-0.161647
-0.117273
-0.139778
-0.132836
-0.120087
-0.111252
-0.109377
0.134042
-0.124828
-0.184763
-0.146746
-0.144787
-0.155516
-0.18818
-0.182933
-0.183428
-0.142922
-0.0902916
-0.185317
-0.186755
-0.159402
-0.141615
-0.138753
-0.142158
-0.148863
-0.158946
-0.16579
-0.167741
-0.154351
-0.161158
-0.164542
-0.150254
-0.145155
-0.152575
-0.148433
-0.149294
-0.165755
-0.0715293
-0.105585
-0.0244933
-0.176129
-0.195827
-0.207279
-0.193193
-0.182865
-0.174111
-0.154912
-0.150254
-0.134347
-0.191763
-0.163672
-0.147869
-0.145883
-0.149478
-0.155682
-0.164372
-0.170556
-0.172267
-0.162318
-0.166736
-0.181151
-0.201185
-0.186841
-0.176325
-0.170849
-0.169449
-0.169308
-0.169304
-0.170832
-0.188003
-0.175245
-0.184228
-0.194567
-0.19099
-0.184286
-0.174007
-0.157308
-0.148638
-0.148856
-0.181715
-0.166849
-0.153435
-0.154033
-0.157256
-0.163009
-0.170529
-0.176061
-0.177636
-0.17039
-0.172986
-0.225724
-0.216322
-0.20503
-0.194302