/*--------------------------------*- C++ -*----------------------------------*\
| =========                 |                                                 |
| \\      /  F ield         | OpenFOAM: The Open Source CFD Toolbox           |
|  \\    /   O peration     | Version:  2.4.0                                 |
|   \\  /    A nd           | Web:      www.OpenFOAM.org                      |
|    \\/     M anipulation  |                                                 |
\*---------------------------------------------------------------------------*/
FoamFile
{
    version     2.0;
    format      ascii;
    class       surfaceScalarField;
    location    "0.468";
    object      phiAlpha;
}
// * * * * * * * * * * * * * * * * * * * * * * * * * * * * * * * * * * * * * //

dimensions      [0 3 -1 0 0 0 0];

internalField   nonuniform List<scalar> 
19800
(
-5.7984e-59
2.93298e-62
-2.42632e-54
1.56536e-57
-3.12766e-51
4.70291e-54
-1.10398e-48
2.88842e-51
-1.52965e-46
6.47499e-49
-9.61706e-45
6.4828e-47
-3.04913e-43
3.17537e-45
-5.31487e-42
8.24098e-44
-5.53083e-41
1.2168e-42
-3.77785e-40
1.09877e-41
-2.07703e-39
6.623e-41
-1.0101e-38
3.24997e-40
-4.51029e-38
1.42093e-39
-2.01499e-37
5.72794e-39
-8.94405e-37
2.31498e-38
-4.04789e-36
9.3033e-38
-1.83057e-35
3.81372e-37
-7.7618e-35
1.56356e-36
-2.99139e-34
6.02334e-36
-1.03771e-33
2.1178e-35
-3.25386e-33
6.74668e-35
-9.26058e-33
1.96084e-34
-2.38645e-32
5.23365e-34
-5.5319e-32
1.28195e-33
-1.14022e-31
2.86353e-33
-2.08757e-31
5.75611e-33
-3.51235e-31
1.03578e-32
-5.28917e-31
1.71455e-32
-6.67173e-31
2.51951e-32
-6.54209e-31
3.04137e-32
-5.07196e-31
2.76128e-32
-3.10389e-31
1.88726e-32
-1.56485e-31
9.50223e-33
-6.82413e-32
3.57914e-33
-2.72098e-32
1.01945e-33
-1.04104e-32
2.2391e-34
-3.86231e-33
4.56061e-35
-1.37724e-33
1.71117e-35
-4.71575e-34
1.15129e-35
-1.55805e-34
7.09166e-36
-4.68352e-35
3.53876e-36
-1.24711e-35
1.38851e-36
-3.12672e-36
4.31845e-37
-8.28061e-37
1.16158e-37
-1.9498e-37
3.08873e-38
-4.40693e-38
6.92288e-39
-2.47443e-38
1.42315e-39
-5.31339e-38
6.96482e-40
-1.51647e-37
1.24554e-39
2.79529e-39
-4.79947e-37
-5.07506e-53
1.83475e-56
-1.23657e-49
2.12161e-52
-6.01915e-47
2.11664e-49
-1.07326e-44
6.18492e-47
-8.83385e-43
7.68554e-45
-3.77298e-41
4.79598e-43
-9.04962e-40
1.64133e-41
-1.30422e-38
3.27968e-40
-1.20967e-37
4.05007e-39
-8.05903e-37
3.28503e-38
-4.47143e-36
1.94183e-37
-2.0444e-35
9.65489e-37
-8.49924e-35
3.98133e-36
-3.45966e-34
1.49844e-35
-1.39977e-33
5.53252e-35
-5.76206e-33
2.03217e-34
-2.35847e-32
7.59927e-34
-9.10741e-32
2.82896e-33
-3.20105e-31
9.96e-33
-1.01348e-30
3.20551e-32
-2.91273e-30
9.35415e-32
-7.66153e-30
2.49996e-31
-1.84326e-29
6.18222e-31
-4.02658e-29
1.41552e-30
-7.90127e-29
2.97889e-30
-1.37886e-28
5.68999e-30
-2.22358e-28
9.72885e-30
-3.27195e-28
1.53792e-29
-4.23503e-28
2.20161e-29
-4.50617e-28
2.72386e-29
-3.98631e-28
2.68987e-29
-2.9199e-28
2.11548e-29
-1.79156e-28
1.29932e-29
-9.49091e-29
6.19442e-30
-4.49435e-29
2.32694e-30
-1.963e-29
7.24005e-31
-8.06412e-30
2.23529e-31
-3.15157e-30
9.33959e-32
-1.1801e-30
5.21711e-32
-4.17344e-31
2.92577e-32
-1.35398e-31
1.42289e-32
-3.95997e-32
5.7347e-33
-1.10448e-32
1.9065e-33
-3.01746e-33
5.62043e-34
-7.43827e-34
1.52998e-34
-1.83227e-34
3.57863e-35
-1.17658e-34
8.01591e-36
-2.7404e-34
4.49507e-36
-8.45595e-34
8.75202e-36
2.13632e-35
-2.90923e-33
-1.12387e-49
1.02172e-52
-1.59077e-46
5.27043e-49
-5.25648e-44
3.32259e-46
-6.87962e-42
6.89905e-44
-4.3967e-40
6.48348e-42
-1.53487e-38
3.20566e-40
-3.15971e-37
9.09357e-39
-4.09696e-36
1.57501e-37
-3.60982e-35
1.76225e-36
-2.4127e-34
1.36479e-35
-1.28374e-33
8.12406e-35
-5.51985e-33
3.88469e-34
-2.13961e-32
1.50986e-33
-7.99106e-32
5.30813e-33
-2.9661e-31
1.80111e-32
-1.12047e-30
6.07832e-32
-4.2046e-30
2.0889e-31
-1.4976e-29
7.13981e-31
-4.85728e-29
2.32208e-30
-1.41969e-28
6.90656e-30
-3.77739e-28
1.86308e-29
-9.25437e-28
4.61447e-29
-2.09119e-27
1.06338e-28
-4.33186e-27
2.28636e-28
-8.14381e-27
4.5583e-28
-1.37747e-26
8.32877e-28
-2.12981e-26
1.37781e-27
-3.09013e-26
2.08533e-27
-4.07049e-26
2.94235e-27
-4.59318e-26
3.7097e-27
-4.42102e-26
3.89945e-27
-3.64561e-26
3.35986e-27
-2.5709e-26
2.35038e-27
-1.57046e-26
1.31304e-27
-8.514e-27
5.87786e-28
-4.20084e-27
2.21247e-28
-1.91995e-27
8.26286e-29
-8.25223e-28
3.87271e-29
-3.36641e-28
2.2431e-29
-1.28695e-28
1.29429e-29
-4.52595e-29
6.54572e-30
-1.45566e-29
2.78779e-30
-4.4668e-30
1.00194e-30
-1.29728e-30
3.2127e-31
-3.42332e-31
9.22814e-32
-9.34177e-32
2.30055e-32
-6.97873e-32
5.69761e-33
-1.77809e-31
3.71763e-33
-5.78216e-31
7.93642e-33
2.05194e-32
-2.01426e-30
-3.50422e-47
5.66522e-50
-3.8717e-44
2.05718e-46
-1.04242e-41
1.01541e-43
-1.1464e-39
1.73477e-41
-6.32237e-38
1.38492e-39
-1.95606e-36
5.96715e-38
-3.67702e-35
1.51234e-36
-4.51002e-34
2.40728e-35
-3.89952e-33
2.56065e-34
-2.56943e-32
1.95358e-33
-1.30855e-31
1.1498e-32
-5.35063e-31
5.27418e-32
-1.94482e-30
1.95266e-31
-6.71234e-30
6.44509e-31
-2.29446e-29
2.02272e-30
-7.96345e-29
6.29022e-30
-2.74747e-28
1.98693e-29
-9.05564e-28
6.24548e-29
-2.73221e-27
1.8799e-28
-7.43853e-27
5.20149e-28
-1.84479e-26
1.30681e-27
-4.23109e-26
3.01569e-27
-9.02373e-26
6.50068e-27
-1.78075e-25
1.31758e-26
-3.21997e-25
2.49862e-26
-5.28685e-25
4.38407e-26
-7.90764e-25
7.03162e-26
-1.12955e-24
1.02928e-25
-1.49679e-24
1.43171e-25
-1.76059e-24
1.82173e-25
-1.80293e-24
2.00632e-25
-1.61695e-24
1.8519e-25
-1.2635e-24
1.42116e-25
-8.64911e-25
8.88671e-26
-5.25459e-25
4.50735e-26
-2.87829e-25
1.92243e-26
-1.44677e-25
8.10913e-27
-6.80428e-26
4.24403e-27
-3.01322e-26
2.68654e-27
-1.24566e-26
1.66131e-27
-4.75303e-27
8.94369e-28
-1.67766e-27
4.07067e-28
-5.6124e-28
1.5844e-28
-1.75076e-28
5.47856e-29
-4.99025e-29
1.67621e-29
-1.50706e-29
4.48758e-30
-1.26233e-29
1.22587e-30
-3.40483e-29
8.95985e-31
-1.12631e-28
2.02817e-30
5.36078e-30
-3.80324e-28
-3.37303e-45
8.16321e-48
-3.29722e-42
2.50214e-44
-7.94621e-40
1.08357e-41
-7.90192e-38
1.65707e-39
-3.98423e-36
1.2007e-37
-1.14342e-34
4.75317e-36
-2.03376e-33
1.12294e-34
-2.41966e-32
1.69871e-33
-2.07269e-31
1.7592e-32
-1.34365e-30
1.33361e-31
-6.61807e-30
7.73996e-31
-2.60493e-29
3.4394e-30
-8.94087e-29
1.22709e-29
-2.87001e-28
3.82683e-29
-9.01175e-28
1.11712e-28
-2.86122e-27
3.19014e-28
-9.08072e-27
9.21204e-28
-2.7848e-26
2.66114e-27
-7.86649e-26
7.44438e-27
-2.00612e-25
1.92601e-26
-4.66504e-25
4.52607e-26
-1.00676e-24
9.77715e-26
-2.03392e-24
1.97932e-25
-3.8352e-24
3.79201e-25
-6.68701e-24
6.85586e-25
-1.06807e-23
1.15769e-24
-1.55946e-23
1.80439e-24
-2.17179e-23
2.57968e-24
-2.86799e-23
3.50811e-24
-3.47252e-23
4.47141e-24
-3.73067e-23
5.10448e-24
-3.56815e-23
4.98172e-24
-3.01969e-23
4.10757e-24
-2.2606e-23
2.79423e-24
-1.5077e-23
1.54336e-24
-9.06562e-24
7.07055e-25
-4.99176e-24
3.22483e-25
-2.55596e-24
1.90042e-25
-1.22637e-24
1.363e-25
-5.4852e-25
9.28006e-26
-2.26948e-25
5.39651e-26
-8.74719e-26
2.63768e-26
-3.17484e-26
1.1075e-26
-1.06844e-26
4.10625e-27
-3.30205e-27
1.342e-27
-1.0804e-27
3.8668e-28
-9.21404e-28
1.13904e-28
-2.4778e-27
8.46062e-29
-8.06709e-27
1.91166e-28
4.99826e-28
-2.5827e-26
-1.4318e-43
4.69657e-46
-1.32661e-40
1.33637e-42
-3.02788e-38
5.44217e-40
-2.84983e-36
7.86603e-38
-1.36217e-34
5.40125e-36
-3.73156e-33
2.03255e-34
-6.42435e-32
4.59859e-33
-7.53307e-31
6.75471e-32
-6.41674e-30
6.91347e-31
-4.08116e-29
5.22322e-30
-1.96381e-28
2.97897e-29
-7.50804e-28
1.29452e-28
-2.44894e-27
4.48764e-28
-7.32894e-27
1.32963e-27
-2.11459e-26
3.61549e-27
-6.1439e-26
9.47355e-27
-1.7957e-25
2.49862e-26
-5.13383e-25
6.63183e-26
-1.36146e-24
1.72517e-25
-3.26995e-24
4.17915e-25
-7.16709e-24
9.22386e-25
-1.46147e-23
1.87262e-24
-2.80524e-23
3.57105e-24
-5.06486e-23
6.47939e-24
-8.52754e-23
1.11817e-23
-1.3266e-22
1.81843e-23
-1.90047e-22
2.75656e-23
-2.56702e-22
3.86986e-23
-3.34649e-22
5.12481e-23
-4.12067e-22
6.4963e-23
-4.59628e-22
7.61451e-23
-4.62877e-22
7.79223e-23
-4.18197e-22
6.82045e-23
-3.3737e-22
4.96066e-23
-2.43457e-22
2.90215e-23
-1.5832e-22
1.35316e-23
-9.41703e-23
6.31247e-24
-5.20943e-23
4.23583e-24
-2.70546e-23
3.59335e-24
-1.31673e-23
2.7608e-24
-5.97616e-24
1.76002e-24
-2.53406e-24
9.36047e-25
-1.00428e-24
4.26535e-25
-3.67532e-25
1.70251e-25
-1.23943e-25
5.97685e-26
-4.30123e-26
1.86169e-26
-3.28103e-26
5.78146e-27
-8.04673e-26
3.83081e-27
-2.50629e-25
7.90093e-27
1.98666e-26
-7.55453e-25
-3.26035e-42
1.36271e-44
-2.99917e-39
3.82783e-41
-6.74218e-37
1.53999e-38
-6.19664e-35
2.18909e-36
-2.8752e-33
1.46904e-34
-7.65333e-32
5.37727e-33
-1.29236e-30
1.18508e-31
-1.50613e-29
1.71149e-30
-1.28e-28
1.74455e-29
-7.97414e-28
1.31694e-28
-3.76869e-27
7.36272e-28
-1.40205e-26
3.14259e-27
-4.36753e-26
1.05933e-26
-1.22801e-25
2.99304e-26
-3.2769e-25
7.62914e-26
-8.73393e-25
1.84338e-25
-2.34782e-24
4.44408e-25
-6.24934e-24
1.08056e-24
-1.56083e-23
2.60607e-24
-3.54555e-23
5.92065e-24
-7.35421e-23
1.23075e-23
-1.42159e-22
2.35463e-23
-2.59861e-22
4.23829e-23
-4.49927e-22
7.29142e-23
-7.32141e-22
1.20141e-22
-1.10905e-21
1.88093e-22
-1.55613e-21
2.7693e-22
-2.044e-21
3.80888e-22
-2.60956e-21
4.92987e-22
-3.22692e-21
6.18322e-22
-3.69786e-21
7.37668e-22
-3.88638e-21
7.86164e-22
-3.71407e-21
7.26283e-22
-3.19874e-21
5.5984e-22
-2.47314e-21
3.39842e-22
-1.71858e-21
1.49622e-22
-1.09043e-21
6.46236e-23
-6.4479e-22
5.20686e-23
-3.60356e-22
5.64116e-23
-1.90439e-22
4.99053e-23
-9.46918e-23
3.49352e-23
-4.42148e-23
2.01295e-23
-1.92636e-23
9.91812e-24
-7.74047e-24
4.27256e-24
-2.8569e-24
1.62141e-24
-1.04008e-24
5.46377e-25
-6.51757e-25
1.76692e-25
-1.32021e-24
9.58615e-26
-3.87482e-24
1.63426e-25
3.8935e-25
-1.10887e-23
-4.48409e-41
2.30003e-43
-4.25023e-38
6.69289e-40
-9.70998e-36
2.77132e-37
-8.92527e-34
4.00492e-35
-4.0919e-32
2.69217e-33
-1.07395e-30
9.75849e-32
-1.80027e-29
2.12535e-30
-2.08779e-28
3.05284e-29
-1.74783e-27
3.10043e-28
-1.06512e-26
2.30645e-27
-4.92285e-26
1.26068e-26
-1.78554e-25
5.25421e-26
-5.36977e-25
1.72242e-25
-1.43321e-24
4.68199e-25
-3.57291e-24
1.12792e-24
-8.766e-24
2.5328e-24
-2.16615e-23
5.58778e-24
-5.36316e-23
1.24106e-23
-1.26283e-22
2.76646e-23
-2.72111e-22
5.88898e-23
-5.35975e-22
1.15442e-22
-9.84889e-22
2.0854e-22
-1.71756e-21
3.54819e-22
-2.85441e-21
5.79032e-22
-4.49123e-21
9.10338e-22
-6.62483e-21
1.36988e-21
-9.10043e-21
1.95419e-21
-1.16648e-20
2.62687e-21
-1.45051e-20
3.33586e-21
-1.77363e-20
4.13328e-21
-2.06492e-20
4.97055e-21
-2.24603e-20
5.48846e-21
-2.25544e-20
5.34302e-21
-2.06266e-20
4.3619e-21
-1.69881e-20
2.71654e-21
-1.24651e-20
9.79715e-22
-8.31414e-21
2.74729e-22
-5.19176e-21
3.49618e-22
-3.10769e-21
5.81272e-22
-1.78564e-21
6.04169e-22
-9.76292e-22
4.62853e-22
-5.03313e-22
2.87213e-22
-2.41785e-22
1.52079e-22
-1.06995e-22
7.04564e-23
-4.34268e-23
2.88678e-23
-1.67788e-23
1.05483e-23
-8.63828e-24
3.58956e-24
-1.27079e-23
1.59426e-24
-3.40164e-23
1.97579e-24
4.31803e-24
-9.32245e-23
-3.99016e-40
2.46422e-42
-4.04643e-37
7.7946e-39
-9.69531e-35
3.46733e-36
-9.11764e-33
5.27398e-34
-4.19467e-31
3.64022e-32
-1.09283e-29
1.32842e-30
-1.81705e-28
2.87907e-29
-2.08268e-27
4.10736e-28
-1.67849e-26
4.12247e-27
-9.91715e-26
2.94767e-26
-4.49423e-25
1.55728e-25
-1.60193e-24
6.33502e-25
-4.70146e-24
2.02893e-24
-1.20657e-23
5.34433e-24
-2.84252e-23
1.22798e-23
-6.47674e-23
2.58263e-23
-1.47432e-22
5.24101e-23
-3.38999e-22
1.06182e-22
-7.52996e-22
2.17734e-22
-1.54326e-21
4.33415e-22
-2.89547e-21
8.01683e-22
-5.0695e-21
1.36923e-21
-8.44354e-21
2.20402e-21
-1.34706e-20
3.41091e-21
-2.04885e-20
5.10786e-21
-2.94238e-20
7.36345e-21
-3.95855e-20
1.01298e-20
-4.98127e-20
1.32448e-20
-6.00415e-20
1.65791e-20
-7.15401e-20
2.03097e-20
-8.3539e-20
2.44853e-20
-9.31673e-20
2.79046e-20
-9.77834e-20
2.87167e-20
-9.48188e-20
2.50759e-20
-8.31696e-20
1.61483e-20
-6.34905e-20
3.21837e-21
-4.35669e-20
-5.83162e-21
-2.82408e-20
8.12759e-22
-1.80687e-20
4.28966e-21
-1.13779e-20
5.29439e-21
-6.90765e-21
4.38495e-21
-3.96209e-21
2.90091e-21
-2.11188e-21
1.63978e-21
-1.03429e-21
8.1486e-22
-4.63371e-22
3.6046e-22
-1.93052e-22
1.43037e-22
-8.80968e-23
5.20104e-23
-8.45113e-23
2.04076e-23
-1.8927e-22
1.65172e-23
3.03904e-23
-4.9616e-22
-2.3807e-39
1.76598e-41
-2.72168e-36
6.48925e-38
-7.11931e-34
3.2986e-35
-6.96919e-32
5.53364e-33
-3.20369e-30
4.0089e-31
-8.19587e-29
1.47065e-29
-1.32114e-27
3.13998e-28
-1.44634e-26
4.34323e-27
-1.12047e-25
4.15028e-26
-6.45675e-25
2.8344e-25
-2.88284e-24
1.44709e-24
-1.02192e-23
5.73315e-24
-2.95873e-23
1.80179e-23
-7.40402e-23
4.61373e-23
-1.6748e-22
1.01775e-22
-3.59688e-22
2.02259e-22
-7.60634e-22
3.80688e-22
-1.62629e-21
7.05337e-22
-3.4102e-21
1.3255e-21
-6.66302e-21
2.45937e-21
-1.19418e-20
4.28939e-21
-1.99614e-20
6.93065e-21
-3.17737e-20
1.05597e-20
-4.86351e-20
1.54915e-20
-7.14222e-20
2.20469e-20
-9.97537e-20
3.02902e-20
-1.31298e-19
3.98218e-20
-1.61967e-19
4.99912e-20
-1.89482e-19
6.12071e-20
-2.18516e-19
7.48765e-20
-2.52438e-19
9.13962e-20
-2.85269e-19
1.07388e-19
-3.11301e-19
1.17984e-19
-3.21802e-19
1.13362e-19
-3.04075e-19
7.87883e-20
-2.35902e-19
-1.71501e-20
-1.59583e-19
-1.08434e-19
-1.03909e-19
-2.78659e-20
-7.16451e-20
2.51353e-20
-5.07352e-20
3.59785e-20
-3.49469e-20
3.1432e-20
-2.25847e-20
2.18337e-20
-1.34467e-20
1.30589e-20
-7.31618e-21
6.93094e-21
-3.63032e-21
3.30709e-21
-1.65503e-21
1.4282e-21
-7.41066e-22
5.63399e-22
-4.76825e-22
2.16444e-22
-7.52684e-22
1.17797e-22
1.53781e-22
-1.8183e-21
-9.94834e-39
9.23611e-41
-1.35666e-35
4.40048e-37
-3.85734e-33
2.7772e-34
-3.70454e-31
5.22265e-32
-1.60948e-29
3.80262e-30
-3.91241e-28
1.33953e-28
-6.06459e-27
2.73397e-27
-6.35099e-26
3.61959e-26
-4.81316e-25
3.25983e-25
-2.76901e-24
2.12736e-24
-1.24147e-23
1.05241e-23
-4.43593e-23
4.04769e-23
-1.29663e-22
1.23751e-22
-3.24574e-22
3.08778e-22
-7.23913e-22
6.58464e-22
-1.50238e-21
1.24937e-21
-3.00435e-21
2.20543e-21
-6.01739e-21
3.76022e-21
-1.19453e-20
6.46449e-21
-2.23093e-20
1.11351e-20
-3.83031e-20
1.82705e-20
-6.12432e-20
2.79131e-20
-9.32127e-20
4.02677e-20
-1.36797e-19
5.60295e-20
-1.93689e-19
7.56897e-20
-2.62708e-19
9.8563e-20
-3.37622e-19
1.22084e-19
-4.06019e-19
1.42908e-19
-4.60084e-19
1.66538e-19
-5.09908e-19
2.0576e-19
-5.72925e-19
2.61413e-19
-6.44375e-19
3.19267e-19
-7.24062e-19
3.80696e-19
-8.12562e-19
4.24174e-19
-8.70696e-19
3.5487e-19
-6.48878e-19
-4.39138e-19
-3.89723e-19
-8.59919e-19
-2.31969e-19
-3.21375e-19
-1.84537e-19
1.33623e-19
-1.60384e-19
2.02542e-19
-1.31335e-19
1.79388e-19
-9.7266e-20
1.27981e-19
-6.49346e-20
7.99745e-20
-3.92176e-20
4.5018e-20
-2.15244e-20
2.30923e-20
-1.08043e-20
1.08507e-20
-5.09023e-21
4.68382e-21
-2.63993e-21
1.89359e-21
-2.53402e-21
8.33896e-22
6.66438e-22
-4.97899e-21
-2.37991e-38
4.56823e-40
-3.11723e-35
2.92826e-36
-7.05918e-33
2.26268e-33
-5.03743e-31
4.33985e-31
-1.7073e-29
3.00925e-29
-3.72664e-28
1.0056e-27
-6.06654e-27
1.96149e-26
-7.50439e-26
2.45395e-25
-6.93934e-25
2.09889e-24
-4.81369e-24
1.30099e-23
-2.53249e-23
6.13928e-23
-1.03352e-22
2.26703e-22
-3.3642e-22
6.71273e-22
-9.10477e-22
1.63286e-21
-2.13129e-21
3.38424e-21
-4.49658e-21
6.18793e-21
-8.83267e-21
1.03648e-20
-1.69429e-20
1.64149e-20
-3.22007e-20
2.58539e-20
-5.7888e-20
4.12134e-20
-9.56729e-20
6.34374e-20
-1.46717e-19
9.15151e-20
-2.13824e-19
1.25085e-19
-3.01262e-19
1.65652e-19
-4.11976e-19
2.13208e-19
-5.44179e-19
2.63187e-19
-6.8428e-19
3.03071e-19
-7.93211e-19
3.12693e-19
-8.50709e-19
3.17977e-19
-8.81827e-19
3.95109e-19
-9.06545e-19
5.41561e-19
-9.60442e-19
7.20718e-19
-1.06195e-18
9.60836e-19
-1.24759e-18
1.30862e-18
-1.96798e-18
1.53949e-18
-1.1605e-18
-4.25736e-18
-3.2785e-19
-5.74618e-18
-3.18204e-20
-2.10614e-18
-2.04363e-19
7.09999e-19
-3.56559e-19
1.01015e-18
-3.85905e-19
8.586e-19
-3.31807e-19
6.09525e-19
-2.46296e-19
3.90245e-19
-1.63235e-19
2.30035e-19
-9.81899e-20
1.25861e-19
-5.41247e-20
6.41186e-20
-2.76732e-20
3.03639e-20
-1.38708e-20
1.33693e-20
-8.90679e-21
5.71816e-21
3.07404e-21
-1.15103e-20
3.68581e-41
2.00389e-39
6.4414e-37
1.81102e-35
9.98702e-34
1.68375e-32
2.74158e-31
3.174e-30
2.34893e-29
2.07094e-28
9.04348e-28
6.61466e-27
1.85637e-26
1.21518e-25
2.22381e-25
1.4e-24
1.69796e-24
1.10795e-23
8.74228e-24
6.46177e-23
3.03838e-23
2.89132e-22
6.45603e-23
1.01938e-21
3.21486e-23
2.91687e-21
-6.53315e-22
6.92504e-21
-2.83747e-21
1.40244e-20
-7.73902e-21
2.49139e-20
-1.70224e-20
4.00612e-20
-3.36932e-20
5.96455e-20
-6.38034e-20
8.6609e-20
-1.12779e-19
1.27593e-19
-1.81382e-19
1.83367e-19
-2.67748e-19
2.48704e-19
-3.74007e-19
3.21864e-19
-5.07775e-19
4.08321e-19
-6.77011e-19
5.06235e-19
-8.8666e-19
6.00839e-19
-1.11728e-18
6.47747e-19
-1.24841e-18
5.45376e-19
-1.1916e-18
3.57949e-19
-1.00249e-18
3.95556e-19
-7.38196e-19
7.12813e-19
-4.88787e-20
8.76547e-19
2.70733e-19
1.58e-18
8.03188e-20
4.47128e-18
-3.14947e-18
7.14255e-18
1.67142e-18
-2.80752e-17
4.81213e-18
-2.31092e-17
4.53427e-18
-6.6935e-18
1.15356e-18
4.40381e-18
-5.67312e-19
4.91402e-18
-9.78069e-19
3.6381e-18
-9.45709e-19
2.44904e-18
-7.50556e-19
1.55895e-18
-5.30184e-19
9.43027e-19
-3.42929e-19
5.43071e-19
-2.05644e-19
2.97708e-19
-1.15121e-19
1.54373e-19
-6.11784e-20
7.49158e-20
-3.39214e-20
3.40955e-20
1.58448e-20
-2.73023e-20
4.76111e-40
7.7082e-39
1.38668e-35
1.38642e-34
2.0238e-32
1.31739e-31
4.69402e-30
2.19399e-29
3.52235e-28
1.28117e-27
1.21738e-26
3.68855e-26
2.25738e-25
6.04631e-25
2.54604e-24
6.35695e-24
1.91379e-23
4.67666e-23
1.02796e-22
2.57573e-22
4.05301e-22
1.09154e-21
1.21193e-21
3.69364e-21
2.78827e-21
1.02426e-20
4.90385e-21
2.37656e-20
6.26595e-21
4.72056e-20
4.35083e-21
8.21435e-20
-5.67267e-21
1.28378e-19
-3.0074e-20
1.82483e-19
-7.36474e-20
2.47681e-19
-1.42493e-19
3.38168e-19
-2.33061e-19
4.50341e-19
-3.342e-19
5.68397e-19
-4.454e-19
6.93e-19
-5.87161e-19
8.49596e-19
-7.87653e-19
1.03346e-18
-1.08917e-18
1.2202e-18
-1.49665e-18
1.29636e-18
-1.70087e-18
8.72337e-19
-1.44321e-18
6.73913e-20
-4.03806e-19
-6.53136e-19
8.6706e-19
-7.68668e-20
2.44459e-18
-7.15247e-19
8.13306e-18
6.97884e-19
1.23649e-17
7.30197e-18
5.55838e-18
1.79054e-17
3.86978e-17
-2.52936e-16
3.15806e-17
-1.05177e-16
1.99394e-17
-1.83665e-17
4.13505e-18
2.0102e-17
-1.29184e-18
1.70106e-17
-2.34668e-18
1.16918e-17
-2.2056e-18
7.6691e-18
-1.74341e-18
4.88287e-18
-1.26489e-18
3.02195e-18
-8.63389e-19
1.81973e-18
-5.6041e-19
1.06926e-18
-3.46556e-19
6.07133e-19
-2.0391e-19
3.26436e-19
-1.1666e-19
1.63421e-19
7.74567e-20
-7.38103e-20
6.60745e-39
5.76081e-38
2.26574e-34
1.25219e-33
2.52808e-31
9.19627e-31
4.74684e-29
1.24438e-28
3.10753e-27
6.33666e-27
9.42765e-26
1.59683e-25
1.57446e-24
2.34632e-24
1.63865e-23
2.2605e-23
1.1712e-22
1.5646e-22
6.02603e-22
8.11754e-22
2.33404e-21
3.28933e-21
7.02565e-21
1.0719e-20
1.69178e-20
2.88817e-20
3.32657e-20
6.57579e-20
5.41875e-20
1.29013e-19
7.35334e-20
2.22192e-19
8.26668e-20
3.42322e-19
7.33137e-20
4.73657e-19
4.44038e-20
6.13976e-19
-2.40326e-21
7.84893e-19
-7.39439e-20
9.6388e-19
-1.21306e-19
1.11133e-18
-1.37394e-19
1.25732e-18
-1.84382e-19
1.50073e-18
-3.43419e-19
1.83127e-18
-7.71937e-19
2.26382e-18
-1.59328e-18
2.57999e-18
-2.07258e-18
1.53131e-18
-1.97551e-18
-3.66368e-19
-3.87416e-19
-2.59149e-18
3.16479e-18
-3.14334e-18
5.87318e-18
-2.05915e-18
1.31964e-17
-5.08371e-18
2.78465e-17
-1.45889e-17
5.03108e-17
1.96165e-17
4.71678e-16
-1.26189e-15
1.24503e-16
1.02306e-16
2.8394e-17
8.597e-18
-4.36627e-18
6.42971e-17
-4.43959e-18
3.28422e-17
-3.8295e-18
2.26434e-17
-2.9875e-18
1.53719e-17
-2.32459e-18
1.04066e-17
-1.76814e-18
6.83864e-18
-1.30404e-18
4.39893e-18
-9.46926e-19
2.82052e-18
-6.76281e-19
1.7826e-18
-4.65232e-19
1.07636e-18
-3.03284e-19
6.02502e-19
3.10552e-19
-1.92656e-19
1.15546e-37
6.25152e-37
2.76026e-33
9.43327e-33
2.23715e-30
4.98894e-30
3.45823e-28
5.49542e-28
1.9487e-26
2.38212e-26
5.18818e-25
5.22155e-25
7.82187e-24
6.88895e-24
7.55878e-23
6.15146e-23
5.0651e-22
3.9957e-22
2.47429e-21
1.97227e-21
9.20608e-21
7.68202e-21
2.70642e-20
2.43524e-20
6.48032e-20
6.44355e-20
1.29546e-19
1.45344e-19
2.20636e-19
2.84623e-19
3.24964e-19
4.91554e-19
4.19906e-19
7.59588e-19
4.77498e-19
1.0494e-18
4.95337e-19
1.33928e-18
4.98098e-19
1.63585e-18
5.20899e-19
1.85408e-18
6.38437e-19
1.91767e-18
8.82112e-19
1.94613e-18
1.12962e-18
2.25493e-18
1.2185e-18
2.79907e-18
6.16257e-19
3.93115e-18
-9.88192e-19
5.11076e-18
-1.94197e-18
2.87984e-18
-2.07654e-18
-3.66911e-19
-1.58703e-18
-3.96865e-18
-1.47373e-18
-5.22075e-18
-1.75392e-18
-3.89232e-18
-2.36077e-17
1.57948e-18
-2.41546e-16
1.83255e-17
-3.78602e-16
3.19901e-17
-9.57397e-16
-6.08446e-16
2.3604e-16
-6.99985e-16
5.46505e-17
2.34526e-16
4.0426e-17
1.90159e-16
7.77112e-18
7.56255e-17
1.97942e-18
3.49476e-17
2.75549e-19
2.17732e-17
-4.38634e-19
1.54681e-17
-5.97896e-19
1.08112e-17
-5.82457e-19
7.53537e-18
-6.0231e-19
5.41744e-18
-6.41051e-19
3.91544e-18
-6.2516e-19
2.70472e-18
-5.31139e-19
1.71088e-18
9.78481e-19
-3.96342e-19
1.74614e-36
6.0422e-36
2.46579e-32
5.25065e-32
1.4764e-29
1.99239e-29
1.90366e-27
1.77334e-27
9.13671e-26
6.35561e-26
2.14987e-24
1.20366e-24
2.94371e-23
1.42533e-23
2.64309e-22
1.18317e-22
1.6533e-21
7.25878e-22
7.63498e-21
3.45441e-21
2.72329e-20
1.32022e-20
7.77615e-20
4.15623e-20
1.8325e-19
1.10114e-19
3.65876e-19
2.50431e-19
6.32883e-19
4.97801e-19
9.63357e-19
8.77905e-19
1.30923e-18
1.39151e-18
1.59849e-18
1.98201e-18
1.80218e-18
2.58609e-18
1.94687e-18
3.12458e-18
2.10502e-18
3.34082e-18
2.48973e-18
3.06875e-18
3.23758e-18
2.6452e-18
4.12361e-18
2.85213e-18
5.01781e-18
3.5104e-18
4.33142e-18
6.18937e-18
8.57432e-19
1.03369e-17
-3.25542e-19
4.9618e-18
-5.14404e-20
-7.99981e-19
-4.15702e-19
-4.35098e-18
-1.18167e-18
-5.12656e-18
-2.81437e-18
-1.39483e-18
-1.28758e-17
5.9758e-18
-1.30921e-16
1.70101e-17
-1.75363e-16
-1.41334e-17
-9.69197e-16
3.31907e-16
-1.64339e-15
-4.55957e-16
-1.14006e-16
-8.66462e-18
-2.03935e-17
4.8563e-17
-4.74967e-18
4.11464e-17
4.1278e-19
2.86687e-17
2.31298e-18
2.23573e-17
2.57638e-18
1.78206e-17
2.76273e-18
1.31005e-17
2.60359e-18
9.93003e-18
1.87066e-18
8.20471e-18
8.10945e-19
6.93295e-18
-1.15454e-19
5.54363e-18
-4.93901e-19
3.96742e-18
2.50575e-18
-5.61297e-19
1.96549e-35
4.13497e-35
1.64608e-31
1.98783e-31
7.4584e-29
5.26539e-29
7.94853e-27
3.51807e-27
3.28086e-25
9.79716e-26
6.87126e-24
1.51399e-24
8.62831e-23
1.56619e-23
7.13706e-22
1.20339e-22
4.17569e-21
7.2864e-22
1.82831e-20
3.57357e-21
6.2541e-20
1.43522e-20
1.73269e-19
4.7682e-20
4.00952e-19
1.32968e-19
7.96417e-19
3.17294e-19
1.39086e-18
6.61323e-19
2.16831e-18
1.22576e-18
3.06407e-18
2.0548e-18
3.96004e-18
3.13554e-18
4.72271e-18
4.36646e-18
5.24059e-18
5.47094e-18
5.59041e-18
5.78631e-18
6.24023e-18
4.87903e-18
7.65727e-18
3.28715e-18
8.94098e-18
3.42052e-18
1.2135e-17
2.49596e-18
1.3022e-17
6.72975e-18
3.53814e-18
2.17784e-17
4.67014e-18
5.91309e-18
6.64224e-18
-3.05068e-18
6.76401e-18
-5.2451e-18
5.58521e-18
-4.59063e-18
5.91721e-18
-1.58434e-18
1.1484e-17
2.223e-18
2.53632e-17
1.87012e-18
4.43165e-17
-7.22384e-18
1.4266e-16
1.59525e-16
-6.62646e-17
1.21789e-16
-7.33899e-17
6.23961e-17
-3.76464e-17
1.56274e-17
-1.42122e-17
2.42269e-17
-2.00876e-18
2.08584e-17
4.52945e-18
1.87189e-17
7.04009e-18
1.69702e-17
8.43806e-18
1.27856e-17
8.52094e-18
1.07408e-17
7.22017e-18
1.054e-17
4.96575e-18
1.0588e-17
2.47661e-18
9.83227e-18
5.23049e-19
7.93093e-18
5.43644e-18
-3.26905e-19
1.60656e-34
1.65976e-34
8.23632e-31
3.77886e-31
2.8771e-28
4.92361e-29
2.53656e-26
7.15414e-28
9.09586e-25
-8.80411e-26
1.71176e-23
-2.59623e-24
1.96632e-22
-3.00688e-23
1.50704e-21
-1.92631e-22
8.28646e-21
-7.24997e-22
3.44796e-20
-1.27843e-21
1.13354e-19
1.66773e-21
3.05095e-19
1.90631e-20
6.93471e-19
8.14804e-20
1.36936e-18
2.45229e-19
2.41201e-18
5.95198e-19
3.84477e-18
1.23959e-18
5.66451e-18
2.31356e-18
7.80447e-18
3.97015e-18
9.90273e-18
6.20522e-18
1.13956e-17
8.50386e-18
1.21351e-17
9.4674e-18
1.33672e-17
7.48506e-18
1.4172e-17
4.99507e-18
1.52537e-17
4.02658e-18
2.10159e-17
-1.02129e-18
2.651e-17
2.62018e-18
2.00159e-17
4.15249e-17
2.1666e-17
2.80463e-18
2.02012e-17
-4.28473e-18
1.78238e-17
-5.12032e-18
1.5232e-17
-3.71281e-18
1.40324e-17
-1.29432e-18
1.52139e-17
9.5373e-19
1.7102e-17
1.39805e-18
1.24395e-17
5.17376e-19
3.29263e-17
4.17944e-17
2.33633e-17
5.48279e-17
8.13473e-18
2.94909e-17
-1.53027e-19
1.32031e-17
2.18868e-18
1.32278e-17
7.21362e-18
1.08042e-17
1.17592e-17
1.11647e-17
1.41278e-17
1.28808e-17
1.53491e-17
1.07378e-17
1.59503e-17
9.89641e-18
1.47403e-17
1.21502e-17
1.17755e-17
1.48141e-17
7.57287e-18
1.62217e-17
3.63931e-18
1.4694e-17
1.06537e-17
1.34414e-18
9.35557e-34
7.2736e-35
3.06598e-30
-2.23652e-30
8.36112e-28
-7.01048e-28
6.18471e-26
-4.9099e-26
1.95011e-24
-1.39565e-24
3.32446e-23
-2.09536e-23
3.50409e-22
-1.91451e-22
2.50703e-21
-1.16878e-21
1.30263e-20
-5.06675e-21
5.17808e-20
-1.62156e-20
1.64182e-19
-3.90724e-20
4.3017e-19
-7.01949e-20
9.61204e-19
-8.52779e-20
1.887e-18
-2.71798e-20
3.35069e-18
1.82668e-19
5.44493e-18
6.87522e-19
8.37841e-18
1.71344e-18
1.23778e-17
3.63337e-18
1.68409e-17
6.85797e-18
2.03146e-17
1.09762e-17
2.23133e-17
1.32236e-17
2.29629e-17
1.20837e-17
2.29056e-17
7.59136e-18
1.70918e-17
9.05823e-18
1.36379e-17
6.47959e-18
1.76055e-17
1.83887e-18
5.49349e-17
8.77158e-18
4.40469e-17
1.15086e-17
3.5661e-17
2.91097e-19
3.02985e-17
-3.18e-18
2.53816e-17
-1.28648e-18
2.08814e-17
1.4259e-18
1.74905e-17
3.27517e-18
1.53912e-17
2.99341e-18
1.09364e-17
4.75978e-18
1.53451e-17
1.75532e-17
1.71491e-17
2.39719e-17
1.39257e-17
1.88989e-17
1.16738e-17
1.1675e-17
1.33018e-17
9.0987e-18
1.65945e-17
6.07505e-18
1.98579e-17
6.9837e-18
1.79576e-17
1.6924e-17
2.11583e-17
7.82924e-18
2.42338e-17
7.64705e-18
2.50091e-17
1.30526e-17
2.28201e-17
1.99069e-17
1.72693e-17
2.61451e-17
1.02019e-17
2.71713e-17
2.01486e-17
6.21441e-18
3.82325e-33
-1.26409e-32
8.36354e-30
-2.09029e-29
1.80934e-27
-3.38935e-27
1.14127e-25
-1.709e-25
3.20341e-24
-3.97828e-24
4.9854e-23
-5.22701e-23
4.88309e-22
-4.37802e-22
3.29344e-21
-2.53753e-21
1.63162e-20
-1.07832e-20
6.24043e-20
-3.50053e-20
1.919e-19
-8.96944e-20
4.91364e-19
-1.86037e-19
1.08164e-18
-3.17628e-19
2.11139e-18
-4.47476e-19
3.77219e-18
-5.01661e-19
6.20786e-18
-3.37607e-19
9.93804e-18
2.47649e-19
1.55364e-17
1.76045e-18
2.30087e-17
4.51929e-18
2.94059e-17
1.02189e-17
3.28234e-17
1.42602e-17
3.14846e-17
4.77634e-17
3.47869e-17
6.60503e-18
4.624e-17
2.92099e-17
2.7777e-17
3.06473e-17
5.35711e-17
-1.01635e-16
6.85682e-17
-2.94996e-17
5.55098e-17
1.99297e-17
4.37409e-17
-1.30415e-19
4.11765e-17
-4.52402e-18
3.46466e-17
1.42254e-18
2.80295e-17
5.45172e-18
2.25708e-17
7.21687e-18
1.69514e-17
7.80047e-18
1.2755e-17
8.97263e-18
1.30622e-17
1.43129e-17
1.48878e-17
1.67461e-17
1.69254e-17
1.46195e-17
1.81135e-17
1.05834e-17
1.92916e-17
8.73864e-18
2.16673e-17
4.76228e-18
2.30342e-17
4.90745e-18
2.32731e-17
1.67845e-17
2.75687e-17
3.31663e-18
3.18032e-17
3.92252e-18
3.46653e-17
1.10748e-17
3.57627e-17
2.02218e-17
3.00306e-17
3.52107e-17
1.6903e-17
1.03785e-16
3.71074e-17
1.83331e-17
1.06698e-32
-6.61935e-32
1.62445e-29
-6.79633e-29
2.8513e-27
-8.47761e-27
1.5605e-25
-3.58919e-25
3.95185e-24
-7.39032e-24
5.67751e-23
-8.88768e-23
5.23703e-22
-6.98505e-22
3.37481e-21
-3.87099e-21
1.61525e-20
-1.59803e-20
6.01241e-20
-5.12667e-20
1.8102e-19
-1.32296e-19
4.56358e-19
-2.82836e-19
9.94673e-19
-5.13692e-19
1.93432e-18
-8.10734e-19
3.46706e-18
-1.13204e-18
5.72037e-18
-1.34295e-18
9.34733e-18
-1.34157e-18
1.50321e-17
-8.27728e-19
2.15946e-17
1.6012e-18
3.0184e-17
4.39298e-18
4.56989e-17
1.54381e-18
7.75578e-17
2.375e-17
5.58381e-17
3.7053e-17
4.72642e-17
3.64782e-17
9.12702e-17
5.1058e-17
2.48948e-16
-3.46533e-16
2.83199e-16
-1.1814e-16
4.29591e-17
2.32125e-16
1.94457e-17
-2.0262e-17
5.09945e-17
-8.30478e-18
4.18269e-17
8.25332e-18
3.20453e-17
1.11981e-17
2.55225e-17
1.16469e-17
2.03645e-17
1.21494e-17
1.65934e-17
1.30965e-17
1.68828e-17
1.5417e-17
2.00353e-17
1.57622e-17
2.38245e-17
1.38093e-17
2.63531e-17
1.10686e-17
2.87078e-17
9.04592e-18
2.82691e-17
6.96872e-18
2.82962e-17
6.74567e-18
3.87595e-17
5.28096e-18
4.01551e-17
2.30426e-18
4.22529e-17
2.56076e-18
5.05311e-17
7.48406e-18
6.58558e-17
1.87353e-17
9.03927e-17
4.95712e-17
5.88825e-17
1.24689e-16
5.06884e-17
4.2023e-17
1.82107e-32
-1.89222e-31
1.99693e-29
-1.42901e-28
2.90655e-27
-1.47667e-26
1.41125e-25
-5.51587e-25
3.30972e-24
-1.03848e-23
4.53036e-23
-1.16895e-22
4.05731e-22
-8.74911e-22
2.56708e-21
-4.6812e-21
1.21376e-20
-1.88805e-20
4.4848e-20
-5.98204e-20
1.34496e-19
-1.5413e-19
3.38634e-19
-3.3279e-19
7.38143e-19
-6.18674e-19
1.43565e-18
-1.01497e-18
2.56748e-18
-1.49736e-18
4.16843e-18
-1.90243e-18
6.67123e-18
-2.16444e-18
9.41339e-18
-1.43097e-18
1.26664e-17
-1.48879e-19
2.688e-17
4.06913e-19
3.19879e-17
8.28831e-18
1.49332e-17
1.04922e-17
1.82135e-17
1.72531e-17
7.9509e-17
9.25189e-17
3.09753e-15
2.58799e-16
2.95464e-15
-1.35587e-15
1.16751e-15
4.23623e-16
8.17928e-17
3.2611e-16
7.35326e-17
-1.23841e-16
6.04541e-17
-8.25903e-18
3.5935e-17
3.63418e-17
3.1366e-17
1.46269e-17
2.60324e-17
1.46389e-17
2.19062e-17
1.50854e-17
1.96742e-17
1.5037e-17
2.04914e-17
1.49986e-17
2.32074e-17
1.39889e-17
2.65208e-17
1.18887e-17
2.96017e-17
9.73169e-18
3.21088e-17
8.59776e-18
3.3187e-17
8.03686e-18
3.4085e-17
7.67868e-18
3.78465e-17
2.49514e-18
3.78097e-17
2.04345e-18
3.75655e-17
1.68444e-18
4.25597e-17
1.16656e-18
5.85417e-17
7.41199e-19
9.41755e-17
1.24141e-17
1.07057e-16
8.61072e-17
1.6935e-15
1.23691e-15
8.71133e-33
-3.45509e-31
5.82528e-30
-2.12544e-28
6.90384e-28
-1.91608e-26
3.44452e-26
-6.53673e-25
9.33545e-25
-1.15599e-23
1.50996e-23
-1.24386e-22
1.56619e-22
-9.01408e-22
1.11327e-21
-4.7142e-21
5.74942e-21
-1.87244e-20
2.26791e-20
-5.8876e-20
7.13606e-20
-1.51725e-19
1.86024e-19
-3.30114e-19
4.15505e-19
-6.22383e-19
8.19146e-19
-1.03975e-18
1.46373e-18
-1.5588e-18
2.30959e-18
-1.95072e-18
3.24323e-18
-1.9995e-18
4.54613e-18
-1.70576e-18
1.79312e-17
-2.78052e-18
2.64016e-17
-1.02265e-19
3.53947e-18
1.14553e-17
-3.51114e-18
1.54882e-17
2.24057e-17
1.22927e-17
2.70328e-15
-6.89293e-17
6.05276e-15
-2.48081e-15
3.79081e-15
4.6872e-16
4.91512e-16
8.06375e-16
1.16676e-15
-1.37829e-16
3.08915e-16
5.22371e-17
6.04663e-17
3.11106e-17
3.27116e-17
2.72861e-17
2.6561e-17
1.25763e-17
2.40025e-17
1.41644e-17
2.12818e-17
1.64796e-17
1.98694e-17
1.57141e-17
1.99185e-17
1.44438e-17
2.11664e-17
1.23681e-17
2.28733e-17
1.00406e-17