/*--------------------------------*- C++ -*----------------------------------*\
| =========                 |                                                 |
| \\      /  F ield         | OpenFOAM: The Open Source CFD Toolbox           |
|  \\    /   O peration     | Version:  2.4.0                                 |
|   \\  /    A nd           | Web:      www.OpenFOAM.org                      |
|    \\/     M anipulation  |                                                 |
\*---------------------------------------------------------------------------*/
FoamFile
{
    version     2.0;
    format      ascii;
    class       surfaceScalarField;
    location    "0.029";
    object      phi;
}
// * * * * * * * * * * * * * * * * * * * * * * * * * * * * * * * * * * * * * //

dimensions      [0 3 -1 0 0 0 0];

internalField   nonuniform List<scalar> 
7080
(
-8.06891e-09
8.06891e-09
-6.26424e-09
-1.80471e-09
-1.26845e-08
6.42026e-09
-1.70414e-08
4.35684e-09
-2.22921e-08
5.2508e-09
-2.8909e-08
6.61686e-09
-3.68369e-08
7.92791e-09
-4.83879e-08
1.15511e-08
-6.44935e-08
1.61055e-08
-8.68364e-08
2.23431e-08
-1.16791e-07
2.99542e-08
-1.55707e-07
3.89166e-08
-2.04843e-07
4.91359e-08
-2.65369e-07
6.05254e-08
-3.38376e-07
7.3007e-08
-4.24919e-07
8.65428e-08
-5.26073e-07
1.01154e-07
-6.43003e-07
1.1693e-07
-7.76888e-07
1.33885e-07
-9.28555e-07
1.51667e-07
-1.09767e-06
1.69111e-07
-1.28148e-06
1.83818e-07
-1.47364e-06
1.92155e-07
-1.66285e-06
1.8921e-07
-1.8216e-06
1.58749e-07
-1.87048e-06
4.8887e-08
-1.61543e-06
-2.55055e-07
-9.04672e-07
-7.10759e-07
-1.00758e-07
-8.03913e-07
-6.76171e-08
-3.31414e-08
-9.28587e-09
1.73548e-08
-8.17302e-09
-2.91767e-09
-1.59395e-08
1.41868e-08
-2.12927e-08
9.70997e-09
-2.76951e-08
1.16533e-08
-3.55542e-08
1.4476e-08
-4.45631e-08
1.69369e-08
-5.73163e-08
2.43045e-08
-7.4546e-08
3.33349e-08
-9.79958e-08
4.57931e-08
-1.2895e-07
6.09079e-08
-1.68663e-07
7.86298e-08
-2.18242e-07
9.87146e-08
-2.78637e-07
1.20919e-07
-3.50639e-07
1.45009e-07
-4.34914e-07
1.70817e-07
-5.32126e-07
1.98366e-07
-6.4321e-07
2.28015e-07
-7.69798e-07
2.60472e-07
-9.14801e-07
2.96671e-07
-1.08325e-06
3.3756e-07
-1.28361e-06
3.84178e-07
-1.52871e-06
4.37256e-07
-1.82414e-06
4.84639e-07
-2.10826e-06
4.42871e-07
-2.15483e-06
9.5455e-08
-1.74554e-06
-6.64348e-07
-9.27697e-07
-1.5286e-06
-2.8308e-07
-1.44853e-06
-3.12362e-07
-3.83358e-08
-9.44056e-09
2.67954e-08
-8.0846e-09
-4.27373e-09
-1.59029e-08
2.20052e-08
-2.12383e-08
1.50452e-08
-2.75481e-08
1.79632e-08
-3.53634e-08
2.22913e-08
-4.38069e-08
2.53803e-08
-5.60397e-08
3.65374e-08
-7.23057e-08
4.96007e-08
-9.4476e-08
6.79634e-08
-1.23654e-07
9.00857e-08
-1.60961e-07
1.15936e-07
-2.07311e-07
1.45065e-07
-2.63392e-07
1.77001e-07
-3.29639e-07
2.11256e-07
-4.06148e-07
2.47327e-07
-4.92769e-07
2.84987e-07
-5.89348e-07
3.24594e-07
-6.96485e-07
3.67609e-07
-8.16984e-07
4.1717e-07
-9.57713e-07
4.78289e-07
-1.13037e-06
5.56834e-07
-1.34564e-06
6.52525e-07
-1.58993e-06
7.2893e-07
-1.78458e-06
6.37527e-07
-1.7731e-06
8.39678e-08
-1.51959e-06
-9.17851e-07
-1.23647e-06
-1.81173e-06
-9.99447e-07
-1.68555e-06
-1.28107e-06
-3.07426e-08
-9.63555e-09
3.6431e-08
-7.87879e-09
-6.03057e-09
-1.5725e-08
2.98515e-08
-2.10005e-08
2.03206e-08
-2.71102e-08
2.40729e-08
-3.4827e-08
3.0008e-08
-4.23367e-08
3.28898e-08
-5.37724e-08
4.79732e-08
-6.84922e-08
6.432e-08
-8.86821e-08
8.81533e-08
-1.15135e-07
1.16538e-07
-1.48808e-07
1.49609e-07
-1.90377e-07
1.86633e-07
-2.40212e-07
2.26836e-07
-2.98335e-07
2.69378e-07
-3.64096e-07
3.13088e-07
-4.36026e-07
3.56918e-07
-5.11456e-07
4.00023e-07
-5.85995e-07
4.42148e-07
-6.527e-07
4.83875e-07
-7.01455e-07
5.27044e-07
-7.18777e-07
5.74155e-07
-6.87814e-07
6.21561e-07
-5.94406e-07
6.35523e-07
-4.35787e-07
4.78908e-07
-3.69341e-07
1.75223e-08
-4.54052e-07
-8.33141e-07
-6.60174e-07
-1.6056e-06
-7.64733e-07
-1.58099e-06
-2.04753e-06
1.72732e-09
-9.90161e-09
4.63326e-08
-7.59942e-09
-8.33282e-09
-1.54795e-08
3.77316e-08
-2.06959e-08
2.5537e-08
-2.65124e-08
2.98894e-08
-3.41521e-08
3.76477e-08
-4.03831e-08
3.91205e-08
-5.09097e-08
5.84996e-08
-6.35444e-08
7.69544e-08
-8.12189e-08
1.05828e-07
-1.04192e-07
1.39512e-07
-1.3328e-07
1.78697e-07
-1.68915e-07
2.22268e-07
-2.11172e-07
2.69094e-07
-2.59878e-07
3.18084e-07
-3.13963e-07
3.67173e-07
-3.71188e-07
4.14143e-07
-4.26859e-07
4.55693e-07
-4.7226e-07
4.87549e-07
-4.92653e-07
5.04268e-07
-4.66042e-07
5.00432e-07
-3.64002e-07
4.72115e-07
-1.57557e-07
4.15117e-07
1.65463e-07
3.12502e-07
5.32987e-07
1.11385e-07
8.40698e-07
-2.90189e-07
7.86653e-07
-7.79096e-07
7.70385e-07
-1.58934e-06
5.47682e-07
-1.35829e-06
-1.64333e-06
1.43487e-07
-1.02456e-08
5.65782e-08
-7.24581e-09
-1.13327e-08
-1.51651e-08
4.56509e-08
-2.03441e-08
3.07159e-08
-2.57472e-08
3.52923e-08
-3.33834e-08
4.52838e-08
-3.79655e-08
4.37024e-08
-4.76282e-08
6.81621e-08
-5.75893e-08
8.69151e-08
-7.23485e-08
1.20587e-07
-9.12096e-08
1.58372e-07
-1.14957e-07
2.02444e-07
-1.43798e-07
2.51108e-07
-1.77457e-07
3.02754e-07
-2.15835e-07
3.56462e-07
-2.57816e-07
4.09154e-07
-3.01989e-07
4.58316e-07
-3.45703e-07
4.99407e-07
-3.84028e-07
5.25873e-07
-4.08798e-07
5.29038e-07
-4.11558e-07
5.03193e-07
-3.83534e-07
4.44092e-07
-3.06783e-07
3.38366e-07
-1.51588e-07
1.57307e-07
1.05812e-07
-1.46015e-07
4.57215e-07
-6.41591e-07
6.69919e-07
-9.91801e-07
6.93056e-07
-1.61247e-06
5.54062e-07
-1.21929e-06
-1.29337e-06
2.041e-07
-1.0676e-08
6.72542e-08
-6.81559e-09
-1.51931e-08
-1.478e-08
5.36153e-08
-1.99656e-08
3.59015e-08
-2.483e-08
4.01566e-08
-3.25669e-08
5.30206e-08
-3.51173e-08
4.62525e-08
-4.4012e-08
7.70566e-08
-5.0739e-08
9.36418e-08
-6.23981e-08
1.32246e-07
-7.66223e-08
1.72597e-07
-9.44885e-08
2.2031e-07
-1.15934e-07
2.72554e-07
-1.40301e-07
3.27121e-07
-1.68318e-07
3.84479e-07
-1.99586e-07
4.40422e-07
-2.35106e-07
4.93836e-07
-2.76104e-07
5.40404e-07
-3.2505e-07
5.7482e-07
-3.87161e-07
5.91148e-07
-4.70732e-07
5.86764e-07
-5.84972e-07
5.58332e-07
-7.16971e-07
4.70365e-07
-7.8511e-07
2.25445e-07
-6.37352e-07
-2.93773e-07
-3.20006e-07
-9.58936e-07
6.24416e-08
-1.37425e-06
-1.41236e-07
-1.4088e-06
-1.06451e-07
-1.25408e-06
-1.38773e-06
-1.20903e-08
-1.1204e-08
7.84582e-08
-6.30404e-09
-2.0093e-08
-1.43217e-08
6.1633e-08
-1.95816e-08
4.11614e-08
-2.38184e-08
4.43932e-08
-3.17479e-08
6.095e-08
-3.19424e-08
4.64468e-08
-4.01127e-08
8.52267e-08
-4.30929e-08
9.66219e-08
-5.17022e-08
1.40855e-07
-6.08377e-08
1.81732e-07
-7.22927e-08
2.31765e-07
-8.56957e-08
2.85957e-07
-9.96108e-08
3.41035e-07
-1.15369e-07
4.00237e-07
-1.32177e-07
4.57229e-07
-1.52755e-07
5.14414e-07
-1.83564e-07
5.71213e-07
-2.34177e-07
6.25433e-07
-3.28607e-07
6.85579e-07
-4.8151e-07
7.39666e-07
-7.1093e-07
7.87752e-07
-9.89214e-07
7.48649e-07
-1.14098e-06
3.77207e-07
-9.44838e-07
-4.8991e-07
-6.69949e-07
-1.23383e-06
-3.25941e-07
-1.71826e-06
-3.60383e-07
-1.37435e-06
-6.29247e-08
-1.55154e-06
-1.33268e-06
-1.1797e-07
-1.18417e-08
9.02999e-08
-5.70675e-09
-2.62279e-08
-1.37895e-08
6.97156e-08
-1.9212e-08
4.65839e-08
-2.28092e-08
4.79904e-08
-3.09638e-08
6.91044e-08
-2.86391e-08
4.4122e-08
-3.60367e-08
9.26239e-08
-3.48129e-08
9.53982e-08
-4.04143e-08
1.46456e-07
-4.41455e-08
1.85464e-07
-4.89596e-08
2.36579e-07
-5.42296e-08
2.91227e-07
-5.77224e-08
3.44528e-07
-6.20485e-08
4.04563e-07
-6.62069e-08
4.61388e-07
-7.42497e-08
5.22457e-07
-9.32809e-08
5.90245e-07
-1.2491e-07
6.57061e-07
-1.88554e-07
7.49224e-07
-3.01204e-07
8.52315e-07
-4.82722e-07
9.69271e-07
-6.55609e-07
9.21535e-07
-6.81766e-07
4.03365e-07
-5.57655e-07
-6.14022e-07
-4.99125e-07
-1.29236e-06
-4.75468e-07
-1.74191e-06
-1.89125e-07
-1.6607e-06
3.32946e-08
-1.77396e-06
-1.27624e-06
-2.31502e-08
-1.26068e-08
1.02907e-07
-5.01339e-09
-3.38213e-08
-1.31776e-08
7.78798e-08
-1.88772e-08
5.22834e-08
-2.1904e-08
5.10171e-08
-3.02455e-08
7.74457e-08
-2.54028e-08
3.92794e-08
-3.18897e-08
9.91106e-08
-2.63043e-08
8.9813e-08
-2.87848e-08
1.48936e-07
-2.69971e-08
1.83676e-07
-2.51797e-08
2.34761e-07
-2.2022e-08
2.88069e-07
-1.39222e-08
3.36428e-07
-2.14818e-09
3.92789e-07
1.78558e-08
4.41384e-07
4.3942e-08
4.96371e-07
7.78686e-08
5.56318e-07
1.19485e-07
6.15445e-07
1.61424e-07
7.07285e-07
2.21053e-07
7.92686e-07
2.78751e-07
9.11573e-07
3.60978e-07
8.39307e-07
4.82803e-07
2.8154e-07
4.23995e-07
-5.55214e-07
2.71729e-07
-1.14009e-06
-1.21732e-08
-1.45801e-06
1.66458e-07
-1.83933e-06
3.52864e-08
-1.64278e-06
-1.2872e-06
4.62424e-08
-1.35162e-08
1.16423e-07
-4.21601e-09
-4.31215e-08
-1.24815e-08
8.61453e-08
-1.86048e-08
5.84065e-08
-2.11698e-08
5.35821e-08
-2.96316e-08
8.59073e-08
-2.23589e-08
3.20069e-08
-2.77623e-08
1.04514e-07
-1.80984e-08
8.01494e-08
-1.70323e-08
1.4787e-07
-9.96015e-09
1.76604e-07
-2.02491e-09
2.26825e-07
8.96821e-09
2.77076e-07
2.57216e-08
3.19674e-07
4.72879e-08
3.71222e-07
8.01525e-08
4.08519e-07
1.21921e-07
4.54602e-07
1.82153e-07
4.96087e-07
2.77216e-07
5.20382e-07
4.19346e-07
5.65155e-07
6.30763e-07
5.81268e-07
9.57254e-07
5.85081e-07
1.29811e-06
4.98454e-07
1.5351e-06
4.45517e-08
1.42159e-06
-4.41707e-07
1.14394e-06
-8.62441e-07
7.26513e-07
-1.04058e-06
3.86135e-07
-1.49895e-06
6.91389e-08
-1.32579e-06
-1.16838e-06
-4.96784e-08
-1.45945e-08
1.31017e-07
-3.29844e-09
-5.44176e-08
-1.16859e-08
9.45326e-08
-1.84474e-08
6.51679e-08
-2.06455e-08
5.57802e-08
-2.9178e-08
9.44396e-08
-1.9596e-08
2.24251e-08
-2.3774e-08
1.08692e-07
-1.04895e-08
6.68651e-08
-5.09339e-09
1.42473e-07
6.38618e-09
1.65125e-07
1.97814e-08
2.1343e-07
3.68361e-08
2.60021e-07
6.27049e-08
2.93805e-07
9.4639e-08
3.39288e-07
1.44261e-07
3.58897e-07
2.07033e-07
3.9183e-07
2.89618e-07
4.13501e-07
4.17067e-07
3.92932e-07
5.30764e-07
4.51458e-07
8.0273e-07
3.09302e-07
1.03483e-06
3.52982e-07
1.23583e-06
2.97455e-07
1.48472e-06
-2.04342e-07
1.29542e-06
-2.52405e-07
1.03649e-06
-6.03512e-07
7.71954e-07
-7.76047e-07
2.71804e-07
-9.988e-07
-7.36693e-09
-1.04662e-06
-1.07955e-06
-9.61924e-08
-1.58661e-08
1.46883e-07
-2.24666e-09
-6.8037e-08
-1.07719e-08
1.03058e-07
-1.84026e-08
7.27984e-08
-2.03665e-08
5.77441e-08
-2.89538e-08
1.03027e-07
-1.71841e-08
1.06555e-08
-2.01105e-08
1.11618e-07
-3.66815e-09
5.0423e-08
6.01047e-09
1.32795e-07
2.16648e-08
1.4947e-07
3.93483e-08
1.95746e-07
6.12874e-08
2.38082e-07
9.32707e-08
2.61822e-07
1.3001e-07
3.02549e-07
1.88444e-07
3.00464e-07
2.56901e-07
3.23372e-07
3.34327e-07
3.36075e-07
4.70135e-07
2.57125e-07
5.1024e-07
4.11353e-07
7.17273e-07
1.02269e-07
7.06531e-07
3.63725e-07
8.28696e-07
1.75289e-07
8.04771e-07
-1.80416e-07
6.46368e-07
-9.40033e-08
4.87911e-07
-4.45055e-07
3.61968e-07
-6.50104e-07
1.58036e-07
-7.94868e-07
-5.28906e-09
-8.83292e-07
-1.05952e-06
-2.5318e-08
-1.73644e-08
1.64248e-07
-1.03919e-09
-8.43623e-08
-9.70699e-09
1.11725e-07
-1.83528e-08
8.1444e-08
-2.03755e-08
5.97667e-08
-2.90337e-08
1.11685e-07
-1.51733e-08
-3.20481e-09
-1.70107e-08
1.13455e-07
2.90039e-09
3.05118e-08
1.55151e-08
1.2018e-07
3.56617e-08
1.29323e-07
5.70168e-08
1.74391e-07
8.26793e-08
2.12419e-07
1.17599e-07
2.26902e-07
1.55488e-07
2.6466e-07
2.13161e-07
2.42791e-07
2.62216e-07
2.74318e-07
3.53539e-07
2.44751e-07
3.82508e-07
2.28156e-07
5.26778e-07
2.67083e-07
5.58943e-07
7.01044e-08
6.41741e-07
2.80927e-07
8.43638e-07
-2.6608e-08
6.91872e-07
-2.86504e-08
7.48487e-07
-1.50618e-07
7.44288e-07
-4.40855e-07
7.06224e-07
-6.12041e-07
7.39301e-07
-8.27945e-07
3.98849e-07
-5.4284e-07
-5.44847e-07
-1.15828e-07
-1.91262e-08
1.83374e-07
4.71624e-10
-1.0396e-07
-8.45266e-09
1.2065e-07
-1.82271e-08
9.12183e-08
-2.07263e-08
6.22658e-08
-2.94839e-08
1.20442e-07
-1.36089e-08
-1.90799e-08
-1.47364e-08
1.14582e-07
1.01405e-08
5.63472e-09
2.42474e-08
1.06073e-07
4.77197e-08
1.05851e-07
7.05724e-08
1.51539e-07
9.60926e-08
1.86898e-07
1.32766e-07
1.9023e-07
1.70079e-07
2.27347e-07
2.375e-07
1.75369e-07
2.85586e-07
2.26231e-07
3.7579e-07
1.54547e-07
4.44019e-07
1.59927e-07
4.8148e-07
2.29622e-07
5.0795e-07
4.36342e-08
7.50326e-07
3.85512e-08
5.87997e-07
1.35721e-07
5.38084e-07
2.12622e-08
6.72208e-07
-2.84742e-07
9.46827e-07
-7.15474e-07
9.40695e-07
-6.05909e-07
8.72458e-07
-7.59707e-07
5.64009e-07
-2.34392e-07
2.05425e-07
-1.86262e-07
-2.11896e-08
2.04564e-07
2.3783e-09
-1.27528e-07
-6.94145e-09
1.29969e-07
-1.80352e-08
1.02312e-07
-2.14871e-08
6.57176e-08
-3.03871e-08
1.29342e-07
-1.25665e-08
-3.69006e-08
-1.34401e-08
1.15456e-07
1.6588e-08
-2.43937e-08
3.37268e-08
8.89338e-08
6.24721e-08
7.71048e-08
9.01093e-08
1.23901e-07
1.20002e-07
1.57006e-07
1.51456e-07
1.58776e-07
1.88885e-07
1.89917e-07
2.37386e-07
1.26869e-07
2.70056e-07
1.93561e-07
3.882e-07
3.64025e-08
3.43171e-07
2.04957e-07
3.2965e-07
2.43143e-07
6.20584e-07
-2.473e-07
8.45846e-07
-1.86711e-07
4.32474e-07
5.49093e-07
2.0132e-07
2.52416e-07
4.2941e-07
-5.12831e-07
7.55646e-07
-1.04171e-06
6.27602e-07
-4.77866e-07
2.12338e-07
-3.44443e-07
1.49036e-07
-1.7109e-07
3.69562e-07
-1.51015e-08
-2.3597e-08
2.2816e-07
4.4677e-09
-1.55593e-07
-5.07624e-09
1.39513e-07
-1.78184e-08
1.15054e-07
-2.27342e-08
7.06333e-08
-3.17882e-08
1.38396e-07
-1.21784e-08
-5.65106e-08
-1.37702e-08
1.17047e-07
1.93513e-08
-5.75154e-08
3.44941e-08
7.37908e-08
6.32249e-08
4.83737e-08
8.67589e-08
1.00367e-07
1.09892e-07
1.33873e-07
1.42479e-07
1.26188e-07
1.70985e-07
1.61411e-07
2.54018e-07
4.38361e-08
2.83672e-07
1.63907e-07
4.58391e-07
-1.38316e-07
4.34001e-07
2.29346e-07
5.54362e-07
1.22782e-07
9.32153e-07
-6.25091e-07
1.13968e-06
-3.94239e-07
1.06991e-06
6.18868e-07
5.7298e-07
7.49344e-07
5.74755e-07
-5.14607e-07
4.37407e-07
-9.04362e-07
5.20048e-08
-9.24636e-08
-7.94056e-08
-2.13032e-07
2.13301e-08
-2.71826e-07
3.36146e-07
5.47464e-08
-2.63986e-08
2.54559e-07
6.78206e-09
-1.88774e-07
-3.03545e-09
1.4933e-07
-1.7615e-08
1.29633e-07
-2.45661e-08
7.75844e-08
-3.37135e-08
1.47543e-07
-1.23245e-08
-7.78996e-08
-1.29779e-08
1.17701e-07
3.21662e-08
-1.0266e-07
5.45387e-08
5.14181e-08
8.99974e-08
1.29148e-08
1.25813e-07
6.45521e-08
1.52268e-07
1.07417e-07
1.69165e-07
1.09291e-07
2.04484e-07
1.26092e-07
2.16069e-07
3.22508e-08
3.07764e-07
7.22115e-08
3.00881e-07
-1.31433e-07
5.34443e-07
-4.21529e-09
7.40375e-07
-8.31501e-08
7.70717e-07
-6.55434e-07
7.62806e-07
-3.86328e-07
7.80059e-07
6.01614e-07
1.05452e-06
4.74887e-07
8.78716e-07
-3.38806e-07
5.04761e-07
-5.30407e-07
2.23003e-07
1.89295e-07
1.42948e-08
-4.32407e-09
-1.66088e-08
-2.40922e-07
4.02148e-07
-8.26107e-08
-2.96518e-08
2.84211e-07
9.34234e-09
-2.27768e-07
-1.10489e-09
1.59777e-07
-1.74429e-08
1.45971e-07
-2.70968e-08
8.72385e-08
-3.62224e-08
1.56669e-07
-1.37422e-08
-1.00379e-07
-2.17019e-08
1.2566e-07
1.71535e-08
-1.41515e-07
3.52452e-08
3.33262e-08
6.66618e-08
-1.85018e-08
8.97837e-08
4.14301e-08
1.0841e-07
8.87904e-08
1.18855e-07
9.88456e-08
1.3525e-07
1.09697e-07
1.84941e-07
-1.74407e-08
2.26082e-07
3.10706e-08
1.76896e-07
-8.2247e-08
3.09571e-07
-1.36891e-07
4.26904e-07
-2.00482e-07
1.93024e-07
-4.21554e-07
-2.75589e-08
-1.65746e-07
3.18536e-07
2.5552e-07
8.09588e-07
-1.6165e-08
3.30836e-07
1.39946e-07
-2.40324e-07
4.07527e-08
-2.27068e-07
1.76039e-07
-3.78084e-07
1.46691e-07
-3.51432e-07
-2.67574e-07
-2.43124e-08
7.50284e-08
-3.34162e-08
3.17627e-07
1.22004e-08
-2.73385e-07
1.69424e-09
1.70283e-07
-1.72992e-08
1.64965e-07
-3.04687e-08
1.00408e-07
-3.90801e-08
1.6528e-07
-1.52413e-08
-1.24218e-07
-1.50741e-08
1.25493e-07
5.1287e-08
-2.07876e-07
7.43434e-08
1.027e-08
1.26154e-07
-7.03124e-08
1.78851e-07
-1.12663e-08
1.86579e-07
8.10622e-08
1.77474e-07
1.0795e-07
1.84357e-07
1.02814e-07
1.43386e-07
2.35299e-08
1.56951e-07
1.75058e-08
8.69718e-08
-1.22679e-08
2.71745e-08
-7.70938e-08
-1.71074e-07
-2.23386e-09
-4.2399e-07
-1.68638e-07
-4.82226e-07
-1.0751e-07
-3.63421e-07
1.36715e-07
-7.19086e-07
3.395e-07
-8.59429e-07
2.80289e-07
-9.78694e-07
1.60018e-07
-8.35464e-07
3.28088e-08
-3.43957e-07
-3.44815e-07
-2.68672e-07
-3.42859e-07
-2.90558e-07
-2.42565e-09
-3.77557e-08
3.55382e-07
1.53998e-08
-3.2654e-07
5.70975e-09
1.79974e-07
-1.72049e-08
1.87879e-07
-3.49221e-08
1.18126e-07
-4.27447e-08
1.73103e-07
-1.93621e-08
-1.476e-07
-4.06005e-08
1.46731e-07
6.44972e-09
-2.54926e-07
2.87633e-08
-1.20434e-08
5.80784e-08
-9.96274e-08
7.99547e-08
-3.31424e-08
9.97957e-08
6.12213e-08
7.65259e-08
1.3122e-07
8.81283e-08
9.12117e-08
1.72824e-07
-6.11657e-08
1.46365e-07
4.3965e-08
1.53439e-07
-1.93421e-08
1.47752e-07
-7.14067e-08
1.41556e-07
3.96252e-09
-2.15993e-08
-5.48273e-09
-8.33408e-08
-4.57685e-08
-1.86791e-07
2.40165e-07
-5.99536e-08
2.12663e-07
1.65732e-07
5.46033e-08
2.53416e-07
7.23337e-08
3.49251e-07
-6.30262e-08
2.94246e-07
-2.89811e-07
1.40088e-07
-1.88701e-07
1.74063e-07
-3.24533e-07
-4.27476e-08
3.9813e-07
1.89949e-08
-3.88283e-07
1.05202e-08
1.88448e-07
-1.71857e-08
2.15585e-07
-4.07548e-08
1.41695e-07
-4.55033e-08
1.77851e-07
-2.21648e-08
-1.70939e-07
-2.42966e-08
1.48863e-07
6.95439e-08
-3.48766e-07
8.93676e-08
-3.18668e-08
1.6665e-07
-1.7691e-07
2.79601e-07
-1.46094e-07
2.47711e-07
9.31117e-08
2.04099e-07
1.74832e-07
1.82297e-07
1.13014e-07
1.06541e-07
1.45902e-08
1.55753e-07
-5.24743e-09
1.32153e-07
4.25807e-09
5.68791e-08
3.86787e-09
-6.33749e-08
1.24216e-07
-6.94444e-08
5.86804e-10
-7.22927e-08
-4.29203e-08
5.23529e-08
1.1552e-07
3.86448e-07
-1.21432e-07
3.07865e-07
1.33186e-07
2.05038e-07
1.7516e-07
2.898e-07
-1.47787e-07
2.87848e-07
-2.87859e-07
4.04561e-07
-3.05414e-07
4.15187e-07
1.63437e-07
-4.84534e-08
4.46583e-07
2.30568e-08
-4.59793e-07
1.64682e-08
1.95037e-07
-1.73046e-08
2.49358e-07
-4.8726e-08
1.73117e-07
-5.08423e-08
1.79967e-07
-3.12039e-08
-1.90577e-07
-6.89583e-08
1.86618e-07
-1.00031e-08
-4.07722e-07
1.55209e-08
-5.73905e-08
4.84116e-08
-2.09801e-07
6.45769e-08
-1.62259e-07
8.13735e-08
7.63149e-08
-2.12889e-08
2.77494e-07
4.5557e-08
4.6168e-08
2.33162e-07
-1.73015e-07
6.058e-08
1.67335e-07
6.92799e-09
5.79102e-08
8.76734e-08
-7.68775e-08
2.99393e-07
-8.7503e-08
9.79872e-07
-6.79893e-07
5.90073e-07
3.46879e-07
-2.25593e-07
9.31186e-07
-1.59569e-06
1.24867e-06
-1.84267e-06
3.8016e-07
-1.60203e-06
-6.54731e-08
-1.34406e-06
-4.0576e-07
-9.39328e-07
-6.92592e-07
-5.2924e-07
-7.15502e-07
-7.88899e-07
6.74845e-07
-5.49535e-08
5.01537e-07
2.77421e-08
-5.42488e-07
2.39406e-08
1.98839e-07
-1.75492e-08
2.90848e-07
-5.93273e-08
2.14895e-07
-4.85839e-08
1.69224e-07
-3.41161e-08
-2.05046e-07
-4.64911e-08
1.98993e-07
8.72986e-08
-5.41512e-07
8.52054e-08
-5.52971e-08
2.0947e-07
-3.34065e-07
4.59066e-07
-4.11855e-07
3.60937e-07
1.74444e-07
2.67998e-07
3.70433e-07
1.8555e-07
1.28615e-07
2.7807e-08
-1.52717e-08
2.28776e-07
-3.3634e-08
9.66997e-08
1.89986e-07
-2.39357e-07
2.5918e-07
1.79522e-07
-5.06382e-07
2.08951e-06
-2.58988e-06
1.36627e-06
1.07013e-06
-9.3651e-07
3.23396e-06
-1.72653e-06
2.03869e-06
-1.50356e-06
1.5719e-07
-1.04406e-06
-5.24977e-07
-1.11381e-06
-3.36009e-07
-9.50818e-07
-8.55584e-07
-1.06056e-06
-6.05764e-07
-1.8716e-06
2.21444e-08
-6.22444e-08
5.63781e-07
3.30782e-08
-6.37811e-07
3.31922e-08
1.98725e-07
-1.82411e-08
3.42281e-07
-7.21324e-08
2.68786e-07
-5.64043e-08
1.53495e-07
-5.68077e-08
-2.04643e-07
-1.06629e-07
2.48814e-07
-3.46617e-08
-6.1348e-07
-1.13887e-08
-7.857e-08
4.41567e-08
-3.89611e-07
7.8071e-08
-4.45769e-07
6.17969e-08
1.90718e-07
-1.97525e-07
6.29755e-07
7.47045e-08
-1.43614e-07
4.19528e-07
-3.60095e-07
3.78578e-08
3.48036e-07
3.46934e-07
-1.1909e-07
-4.20885e-08
6.48203e-07
2.06557e-07
-7.55027e-07
4.09583e-07
-2.79291e-06
-3.06684e-06
4.54655e-06
-3.21647e-06
3.38359e-06
-2.59953e-06
1.42176e-06
-1.81126e-06
-6.31077e-07
-1.00139e-06
-1.33485e-06
-7.79606e-07
-5.57798e-07
-6.35258e-07
-9.99931e-07
-1.18932e-06
-5.17034e-08
-1.03696e-06
-2.02396e-06
-7.0481e-08
6.34262e-07
3.96892e-08
-7.47981e-07
4.52455e-08
1.93168e-07
-1.89244e-08
4.06451e-07
-8.62815e-08
3.36142e-07
-4.34162e-08
1.1063e-07
-5.87466e-08
-1.89312e-07
-8.53967e-08
2.75464e-07
1.03686e-07
-8.02562e-07
2.81281e-08
-3.01214e-09
2.3136e-07
-5.92842e-07
7.88085e-07
-1.00249e-06
5.165e-07
4.62302e-07
2.85217e-07
8.61038e-07
1.69107e-07
-2.75045e-08
4.33645e-07
-6.24633e-07
7.19887e-07
6.17931e-08
-4.93499e-07
1.0943e-06
5.93587e-07
-4.38883e-07
9.35676e-07
-1.09712e-06
-6.16748e-06
4.31025e-06
-4.01386e-06
2.39293e-06
-6.016e-07
-2.86738e-08
-1.93202e-07
1.01336e-06
-8.39597e-07
1.53186e-08
-1.05731e-06
-1.11714e-06
-1.20739e-06
-4.07715e-07
-4.73758e-07
-1.73356e-06
-8.49602e-08
-4.40501e-07
-7.12203e-07
-4.09712e-07
-7.94252e-08
7.13687e-07
4.59963e-08
-8.73403e-07
5.89198e-08
1.80245e-07
-2.13846e-08
4.86755e-07
-1.03731e-07
4.18489e-07
-6.67516e-08
7.36504e-08
-8.64726e-08
-1.69591e-07
-1.33437e-07
3.22429e-07
-7.32519e-08
-8.62746e-07
-7.04795e-08
-5.78456e-09
9.56034e-08
-7.58925e-07
1.92221e-07
-1.09911e-06
1.47893e-07
5.0663e-07
-4.71841e-07
1.48077e-06
3.50076e-07
-8.49422e-07
8.38578e-07
-1.11313e-06
-1.9184e-07
1.09221e-06
1.32446e-07
7.70011e-07
1.24734e-06
-1.55378e-06
-1.79276e-07
3.29504e-07
-1.12594e-06
5.25691e-06
-1.60815e-06
2.87515e-06
-2.31085e-06
6.74028e-07
-7.92418e-07
-5.05076e-07
-8.8513e-07
1.0803e-07
-6.86752e-08
-1.93359e-06
6.72262e-07
-1.14865e-06
1.63097e-06
-2.69228e-06
1.73615e-06
-5.45677e-07
6.90058e-08
9.54941e-07
-8.94397e-08
8.03127e-07
5.72274e-08
-1.02007e-06
7.95493e-08
1.57923e-07
-2.21837e-08
5.88488e-07
-1.21206e-07
5.17512e-07
-3.40997e-08
-1.34565e-08
-1.03395e-07
-1.00295e-07
-1.16574e-07
3.35607e-07
1.36108e-07
-1.11543e-06
-1.42759e-07
2.73083e-07
-2.08107e-07
-6.93577e-07
7.70521e-07
-2.07774e-06
7.49397e-07
5.27753e-07
6.27821e-07
1.60235e-06
1.27731e-06
-1.49891e-06
1.67648e-06
-1.5123e-06
5.97385e-07
2.17131e-06
1.75022e-06
-3.82828e-07
5.29558e-07
-3.33116e-07
-1.55454e-06
2.41361e-06
7.70311e-07
2.93205e-06
-2.4846e-06
6.13006e-06
-1.54612e-06
-2.64451e-07
-1.18748e-06
-8.63721e-07
3.51938e-07
-1.43138e-06
4.79493e-07
-2.06115e-06
6.20954e-07
-1.29011e-06
2.07518e-07
-2.27884e-06
2.00016e-07
-5.38176e-07
5.90441e-07
-3.21419e-07
-1.19497e-07
9.22624e-07
6.27511e-08
-1.20232e-06
9.73418e-08
1.23332e-07
-3.07792e-08
7.16609e-07
-1.49525e-07
6.36258e-07
-7.65593e-08
-8.6422e-08
-7.81824e-08
-9.86723e-08
9.6369e-08
1.61056e-07
1.54164e-07
-1.17322e-06
2.06893e-07
2.20354e-07
-9.34153e-07
4.47469e-07
-1.7449e-07
-2.8374e-06
1.67885e-07
1.85378e-07
7.45672e-07
1.02456e-06
1.51094e-06
-2.26419e-06
-1.97851e-07
1.96494e-07
9.07871e-07
1.06558e-06
-8.8925e-08
6.13967e-07
-1.23453e-06
8.12488e-07
-3.89241e-07
1.56832e-06
1.18853e-06
1.35427e-06
6.75647e-06
5.62116e-07
7.28716e-06
-7.95135e-07
6.38437e-06
3.90644e-08
6.35693e-06
-1.40394e-06
4.21768e-06
7.81071e-08
2.71668e-06
2.10889e-07
9.06234e-07
-4.68398e-07
1.30093e-06
-9.32872e-07
-3.8887e-07
2.28024e-06
2.93715e-07
6.28909e-07
1.19448e-07
-1.02805e-06
1.31251e-07
1.11528e-07
-1.69096e-08
8.6477e-07
-1.63515e-07
7.82863e-07
1.28418e-07
-3.78354e-07
-6.04398e-07
6.34142e-07
7.58715e-08
-5.19213e-07
-2.40077e-06
1.30341e-06
-1.1849e-06
-9.9551e-07
-2.0724e-07
-5.30193e-07
-1.48367e-06
-1.56097e-06
-6.15417e-07
-6.82879e-07
1.35163e-08
3.95627e-07
-7.45608e-08
-2.17611e-06
1.36252e-07
-1.4319e-08
6.78093e-07
5.23743e-07
-6.41956e-07
1.93402e-06
1.10123e-07
6.04095e-08
4.18571e-07
1.25987e-06
1.27794e-06
4.94907e-07
2.53333e-06
-6.93271e-07
3.01843e-06
-1.28023e-06
2.97809e-06
7.93989e-08
1.50896e-06
6.51906e-08
1.58961e-06
-2.54241e-09
2.32838e-06
-5.27882e-07
2.23519e-06
-3.7521e-07
1.7097e-06
-4.07379e-07
1.5671e-06
-2.46271e-07
3.65563e-08
-6.96976e-08
8.87579e-07
-8.51023e-07
1.61266e-06
-7.25077e-07
1.86595e-06
-2.53296e-07
1.8155e-06
5.04545e-08
1.65648e-06
1.59016e-07
1.467e-06
1.89486e-07
1.27398e-06
1.93019e-07
1.0887e-06
1.8528e-07
9.17832e-07
1.70864e-07
7.64461e-07
1.53371e-07
6.29215e-07
1.35246e-07
5.11455e-07
1.17761e-07
4.1008e-07
1.01375e-07
3.23912e-07
8.6168e-08
2.51803e-07
7.21086e-08
1.92607e-07
5.9196e-08
1.45137e-07
4.74705e-08
1.08155e-07
3.69816e-08
8.03347e-08
2.78204e-08
6.03177e-08
2.0017e-08
4.65809e-08
1.37369e-08
3.74439e-08
9.13711e-09
3.12767e-08
6.16742e-09
2.62525e-08
5.02436e-09
2.14293e-08
4.82326e-09
1.68024e-08
4.62693e-09
8.94618e-09
7.85628e-09
9.93728e-09
-9.91092e-10
9.93741e-09
2.08531e-07
-3.16565e-07
8.85075e-07
-1.52757e-06
1.73091e-06
-1.57091e-06
2.14688e-06
-6.69267e-07
2.10052e-06
9.6809e-08
1.81725e-06
4.42284e-07
1.5222e-06
4.8454e-07
1.27609e-06
4.39126e-07
1.07382e-06
3.87555e-07
9.03179e-07
3.41503e-07
7.56216e-07
3.00334e-07
6.282e-07
2.63261e-07
5.16358e-07
2.29603e-07
4.19073e-07
1.9866e-07
3.35345e-07
1.69895e-07
2.6441e-07
1.43043e-07
2.05502e-07
1.18105e-07
1.57727e-07
9.52451e-08
1.20078e-07
7.46306e-08
9.13688e-08
5.65295e-08
7.0363e-08
4.10231e-08
5.55873e-08
2.85128e-08
4.53768e-08
1.93478e-08
3.81184e-08
1.3426e-08
3.19275e-08
1.12154e-08
2.59101e-08
1.08408e-08
2.024e-08
1.02971e-08
1.09694e-08
1.71271e-08
1.12255e-08
-1.24722e-09
2.1163e-08
9.54919e-07
-1.30223e-06
1.17878e-06
-1.75143e-06
1.4845e-06
-1.87663e-06
1.76021e-06
-9.44975e-07
1.78234e-06
7.46784e-08
1.58887e-06
6.35757e-07
1.34284e-06
7.30568e-07
1.12448e-06
6.57488e-07
9.48312e-07
5.63723e-07
8.04425e-07
4.8539e-07
6.81556e-07
4.23203e-07
5.72995e-07
3.71823e-07
4.7589e-07
3.26707e-07
3.89499e-07
2.85052e-07
3.13815e-07
2.45579e-07
2.48851e-07
2.08008e-07
1.94404e-07
1.72551e-07
1.49945e-07
1.39704e-07
1.14763e-07
1.09813e-07
8.78482e-08
8.34442e-08
6.81739e-08
6.06975e-08
5.43573e-08
4.23296e-08
4.48027e-08
2.89027e-08
3.79878e-08
2.02411e-08
3.19439e-08
1.72595e-08
2.59342e-08
1.68507e-08
2.02859e-08
1.59454e-08
1.08824e-08
2.65308e-08
1.14009e-08
-1.7657e-09
3.2564e-08
8.01365e-07
-2.10186e-06
7.03541e-07
-1.65361e-06
4.95007e-07
-1.66809e-06
4.27762e-07
-8.7773e-07
4.88062e-07
1.43791e-08
6.27941e-07
4.95878e-07
7.04433e-07
6.54076e-07
7.20645e-07
6.41276e-07
6.9344e-07
5.90928e-07
6.38625e-07
5.40205e-07
5.68691e-07
4.93136e-07
4.92888e-07
4.47627e-07
4.17458e-07
4.02138e-07
3.46306e-07
3.56203e-07
2.81817e-07
3.10068e-07
2.25288e-07
2.64536e-07
1.77295e-07
2.20545e-07
1.37723e-07
1.79276e-07
1.06255e-07
1.41281e-07
8.20697e-08
1.0763e-07
6.446e-08
7.83073e-08
5.2149e-08
5.46407e-08
4.36382e-08
3.74137e-08
3.75342e-08
2.63454e-08
3.17625e-08
2.30313e-08
2.5805e-08
2.28084e-08
2.02271e-08
2.15233e-08
1.06758e-08
3.60823e-08
1.1625e-08
-2.71494e-09
4.41892e-08
-2.82807e-07
-1.67557e-06
-5.26708e-07
-1.40971e-06
-6.02671e-07
-1.59213e-06
-6.94162e-07
-7.86239e-07
-4.46113e-07
-2.3367e-07
-1.18757e-07
1.68522e-07
1.74009e-07
3.6131e-07
3.61337e-07
4.53949e-07
4.51668e-07
5.00596e-07
4.72423e-07
5.19451e-07
4.49987e-07
5.15571e-07
4.04753e-07
4.9286e-07
3.50309e-07
4.56583e-07
2.9476e-07
4.11751e-07
2.42561e-07
3.62268e-07
1.9583e-07
3.11268e-07
1.55667e-07
2.60707e-07
1.22129e-07
2.12814e-07
9.53556e-08
1.68054e-07
7.46145e-08
1.28371e-07
5.96694e-08
9.32526e-08
4.9314e-08
6.49963e-08
4.21575e-08
4.45704e-08
3.69613e-08
3.15418e-08
3.15384e-08
2.84542e-08
2.56372e-08
2.87098e-08
2.01379e-08
2.70226e-08
1.03948e-08
4.58255e-08
1.19288e-08
-4.24896e-09
5.61181e-08
-2.33853e-07
-1.23762e-06
-4.68092e-07
-1.17547e-06
-4.93549e-07
-1.56667e-06
-3.83378e-07
-8.9641e-07
-1.02471e-07
-5.14577e-07
1.18252e-07
-5.22e-08
2.63322e-07
2.16239e-07
3.41044e-07
3.76227e-07
3.73464e-07
4.68177e-07
3.7495e-07
5.17964e-07
3.53801e-07
5.36721e-07
3.18905e-07
5.27756e-07
2.78436e-07
4.97052e-07
2.37133e-07
4.53054e-07
1.97765e-07
4.01636e-07
1.61741e-07
3.47292e-07
1.30466e-07
2.91982e-07
1.03741e-07
2.39538e-07
8.24849e-08
1.89311e-07
6.57129e-08
1.45143e-07
5.39666e-08
1.04999e-07
4.59791e-08
7.2984e-08
4.0425e-08
5.01247e-08
3.6311e-08
3.56561e-08
3.12966e-08
3.34687e-08
2.54495e-08
3.45572e-08
2.0015e-08
3.24571e-08
1.00383e-08
5.58024e-08
1.23181e-08
-6.52878e-09
6.84362e-08
7.63061e-08
-1.32601e-06
7.97619e-08
-1.17892e-06
-7.72343e-08
-1.40968e-06
2.64884e-07
-1.23853e-06
5.36771e-07
-7.86463e-07
6.52919e-07
-1.68348e-07
5.95173e-07
2.73986e-07
4.91616e-07
4.79784e-07
4.02187e-07
5.57606e-07
3.36084e-07
5.84067e-07
2.857e-07
5.87105e-07
2.44714e-07
5.68742e-07
2.09093e-07
5.32673e-07
1.77578e-07
4.84569e-07
1.49627e-07
4.29588e-07
1.24277e-07
3.72642e-07
1.02636e-07
3.13623e-07
8.31768e-08
2.58997e-07
6.81707e-08
2.04317e-07
5.5604e-08
1.5771e-07
4.75482e-08
1.13055e-07
4.22949e-08
7.82375e-08
3.84674e-08
5.39524e-08
3.56331e-08
3.84906e-08
3.10654e-08
3.80366e-08
2.52654e-08
4.03574e-08
1.98538e-08
3.78688e-08
9.60315e-09
6.60533e-08
1.27998e-08
-9.72549e-09
8.12361e-08
-1.0183e-07
-1.34215e-06
2.28512e-07
-1.50927e-06
1.98894e-07
-1.38006e-06
6.02556e-07
-1.64219e-06
8.77136e-07
-1.06104e-06
1.02866e-06
-3.19872e-07
8.50802e-07
4.51844e-07
5.95998e-07
7.34588e-07
3.99528e-07
7.54077e-07
2.69966e-07
7.13629e-07
1.91263e-07
6.65808e-07
1.50398e-07
6.09607e-07
1.25851e-07
5.5722e-07
1.09645e-07
5.00775e-07
9.64757e-08
4.42757e-07
8.3446e-08
3.85671e-07
7.25577e-08
3.24512e-07
6.0828e-08
2.70727e-07
5.27949e-08
2.1235e-07
4.45108e-08
1.65994e-07
4.0659e-08
1.16907e-07
3.8245e-08
8.06516e-08
3.6356e-08
5.58415e-08
3.4988e-08
3.98588e-08
3.08781e-08
4.21466e-08
2.51113e-08
4.61243e-08
1.96476e-08
4.33325e-08
9.0837e-09
7.66174e-08
1.3384e-08
-1.40259e-08
9.46202e-08
-3.99189e-08
-1.32539e-06
2.24615e-07
-1.7738e-06
4.13115e-07
-1.56856e-06
4.67013e-07
-1.69609e-06
5.55326e-07
-1.14936e-06
6.84463e-07
-4.49009e-07
6.18287e-07
5.18021e-07
4.25525e-07
9.2735e-07
2.4537e-07
9.34232e-07
1.42061e-07
8.16938e-07
8.67335e-08
7.21135e-07
6.11529e-08
6.35188e-07
4.76742e-08
5.70698e-07
4.36723e-08
5.04777e-07
4.32832e-08
4.43146e-07
4.1645e-08
3.8731e-07
4.13841e-08
3.24773e-07
3.71036e-08
2.75008e-07
3.65997e-08
2.12854e-07
3.2577e-08
1.70017e-07
3.34279e-08
1.16056e-07
3.39474e-08
8.01322e-08
3.41804e-08
5.56087e-08
3.44461e-08
3.95933e-08
3.07723e-08
4.58205e-08
2.50127e-08
5.1884e-08
1.93886e-08
4.89567e-08
8.47323e-09
8.75329e-08
1.40819e-08
-1.96346e-08
1.08702e-07
3.65636e-08
-1.31571e-06
-8.43571e-08
-1.65288e-06
5.42488e-08
-1.70717e-06
-2.82875e-07
-1.35896e-06
-4.26032e-07
-1.0062e-06
-4.477e-07
-4.27341e-07
-3.22259e-07
3.92579e-07
-2.70307e-07
8.75398e-07
-2.30555e-07
8.9448e-07
-1.8033e-07
7.66713e-07
-1.42508e-07
6.83314e-07
-1.00782e-07
5.93462e-07
-6.56596e-08
5.35576e-07
-3.73871e-08
4.76505e-07
-1.54534e-08
4.21213e-07
-1.59605e-09
3.73453e-07
9.34262e-09
3.13834e-07
1.31646e-08
2.71186e-07
1.98932e-08
2.06126e-07
2.01652e-08
1.69745e-07
2.59658e-08
1.10256e-07
2.95623e-08