/*--------------------------------*- C++ -*----------------------------------*\
| =========                 |                                                 |
| \\      /  F ield         | OpenFOAM: The Open Source CFD Toolbox           |
|  \\    /   O peration     | Version:  2.4.0                                 |
|   \\  /    A nd           | Web:      www.OpenFOAM.org                      |
|    \\/     M anipulation  |                                                 |
\*---------------------------------------------------------------------------*/
FoamFile
{
    version     2.0;
    format      ascii;
    class       surfaceScalarField;
    location    "0.029";
    object      phiAlpha;
}
// * * * * * * * * * * * * * * * * * * * * * * * * * * * * * * * * * * * * * //

dimensions      [0 3 -1 0 0 0 0];

internalField   nonuniform List<scalar> 
7080
(
-8.081e-09
8.081e-09
-6.31952e-09
-1.76152e-09
-1.28132e-08
6.4937e-09
-1.72551e-08
4.44178e-09
-2.25861e-08
5.33097e-09
-2.92692e-08
6.68308e-09
-3.72817e-08
8.01246e-09
-4.8891e-08
1.16093e-08
-6.50525e-08
1.61615e-08
-8.74384e-08
2.23859e-08
-1.1742e-07
2.9982e-08
-1.56343e-07
3.89228e-08
-2.05454e-07
4.91104e-08
-2.65907e-07
6.0453e-08
-3.38772e-07
7.28655e-08
-4.25072e-07
8.63e-08
-5.25837e-07
1.00765e-07
-6.4217e-07
1.16333e-07
-7.75169e-07
1.32999e-07
-9.25563e-07
1.50394e-07
-1.09289e-06
1.67331e-07
-1.27428e-06
1.8139e-07
-1.46322e-06
1.88937e-07
-1.64837e-06
1.85151e-07
-1.80296e-06
1.54585e-07
-1.85107e-06
4.81121e-08
-1.60401e-06
-2.47055e-07
-9.07835e-07
-6.96179e-07
-1.06312e-07
-8.01524e-07
-7.45155e-08
-3.17962e-08
-9.29727e-09
1.73783e-08
-8.22553e-09
-2.83337e-09
-1.60659e-08
1.43341e-08
-2.15048e-08
9.88054e-09
-2.79867e-08
1.18128e-08
-3.59092e-08
1.46056e-08
-4.50053e-08
1.71085e-08
-5.78134e-08
2.44174e-08
-7.50981e-08
3.34461e-08
-9.85884e-08
4.58762e-08
-1.29568e-07
6.09613e-08
-1.69286e-07
7.86407e-08
-2.1884e-07
9.86646e-08
-2.79168e-07
1.20782e-07
-3.51048e-07
1.44745e-07
-4.3512e-07
1.70372e-07
-5.32021e-07
1.97665e-07
-6.42642e-07
2.26954e-07
-7.68552e-07
2.5891e-07
-9.12572e-07
2.94414e-07
-1.07958e-06
3.3434e-07
-1.2778e-06
3.79612e-07
-1.51981e-06
4.30944e-07
-1.81175e-06
4.77096e-07
-2.09513e-06
4.37958e-07
-2.14781e-06
1.00795e-07
-1.74855e-06
-6.46311e-07
-9.31509e-07
-1.51322e-06
-2.77026e-07
-1.45601e-06
-3.13602e-07
-3.79394e-08
-9.45074e-09
2.6829e-08
-8.13414e-09
-4.15006e-09
-1.60293e-08
2.22292e-08
-2.14484e-08
1.52995e-08
-2.78401e-08
1.82045e-08
-3.5715e-08
2.24805e-08
-4.42524e-08
2.56458e-08
-5.65357e-08
3.67007e-08
-7.286e-08
4.97704e-08
-9.50726e-08
6.80888e-08
-1.24281e-07
9.01698e-08
-1.61602e-07
1.15961e-07
-2.07944e-07
1.45007e-07
-2.63991e-07
1.76828e-07
-3.30169e-07
2.10923e-07
-4.06574e-07
2.46777e-07
-4.93051e-07
2.84143e-07
-5.89451e-07
3.23354e-07
-6.96374e-07
3.65833e-07
-8.16628e-07
4.14668e-07
-9.57125e-07
4.74837e-07
-1.12975e-06
5.5224e-07
-1.34572e-06
6.4691e-07
-1.5923e-06
7.23681e-07
-1.79104e-06
6.36694e-07
-1.78239e-06
9.21468e-08
-1.52325e-06
-9.05458e-07
-1.22524e-06
-1.81123e-06
-9.8536e-07
-1.69588e-06
-1.2674e-06
-3.1561e-08
-9.64394e-09
3.64729e-08
-7.9241e-09
-5.86998e-09
-1.58514e-08
3.01565e-08
-2.12077e-08
2.06558e-08
-2.74039e-08
2.44006e-08
-3.51746e-08
3.02512e-08
-4.27888e-08
3.32599e-08
-5.42668e-08
4.81787e-08
-6.90516e-08
6.45551e-08
-8.92863e-08
8.83236e-08
-1.15777e-07
1.16661e-07
-1.49477e-07
1.49661e-07
-1.91061e-07
1.86591e-07
-2.40901e-07
2.26669e-07
-2.99022e-07
2.69044e-07
-3.6479e-07
3.12545e-07
-4.36767e-07
3.56121e-07
-5.12354e-07
3.98941e-07
-5.8731e-07
4.40789e-07
-6.54956e-07
4.82315e-07
-7.05548e-07
5.25429e-07
-7.2607e-07
5.72762e-07
-7.00196e-07
6.21037e-07
-6.13466e-07
6.36951e-07
-4.608e-07
4.84028e-07
-3.91836e-07
2.31829e-08
-4.67827e-07
-8.29467e-07
-6.71132e-07
-1.60793e-06
-7.7988e-07
-1.58714e-06
-2.04739e-06
1.05034e-10
-9.90754e-09
4.63805e-08
-7.63916e-09
-8.13843e-09
-1.56055e-08
3.81228e-08
-2.08988e-08
2.5949e-08
-2.68095e-08
3.03113e-08
-3.44952e-08
3.7937e-08
-4.08454e-08
3.96101e-08
-5.13986e-08
5.8732e-08
-6.4111e-08
7.72676e-08
-8.18318e-08
1.06044e-07
-1.04851e-07
1.3968e-07
-1.33981e-07
1.78791e-07
-1.69654e-07
2.22264e-07
-2.11953e-07
2.68968e-07
-2.60711e-07
3.17803e-07
-3.14882e-07
3.66716e-07
-3.72262e-07
4.13501e-07
-4.28223e-07
4.54903e-07
-4.74164e-07
4.8673e-07
-4.95534e-07
5.03685e-07
-4.70511e-07
5.00406e-07
-3.7058e-07
4.72831e-07
-1.66266e-07
4.16722e-07
1.55077e-07
3.15609e-07
5.22048e-07
1.17057e-07
8.2634e-07
-2.81109e-07
7.72874e-07
-7.76e-07
7.52095e-07
-1.58715e-06
5.26373e-07
-1.36141e-06
-1.66008e-06
1.39067e-07
-1.02483e-08
5.66288e-08
-7.27863e-09
-1.11082e-08
-1.52903e-08
4.61345e-08
-2.0541e-08
3.11997e-08
-2.60493e-08
3.58196e-08
-3.37218e-08
4.56094e-08
-3.84408e-08
4.43292e-08
-4.81082e-08
6.83994e-08
-5.81662e-08
8.73256e-08
-7.29691e-08
1.20847e-07
-9.18859e-08
1.58597e-07
-1.15688e-07
2.02593e-07
-1.44586e-07
2.51161e-07
-1.78319e-07
3.02701e-07
-2.16792e-07
3.56276e-07
-2.58907e-07
4.08831e-07
-3.03257e-07
4.57852e-07
-3.47179e-07
4.98825e-07
-3.85702e-07
5.25253e-07
-4.10445e-07
5.28428e-07
-4.12575e-07
5.02536e-07
-3.83126e-07
4.43382e-07
-3.04319e-07
3.37915e-07
-1.46768e-07
1.58059e-07
1.13331e-07
-1.43042e-07
4.68178e-07
-6.35957e-07
6.78805e-07
-9.86626e-07
7.07979e-07
-1.61632e-06
5.65164e-07
-1.2186e-06
-1.2993e-06
2.04387e-07
-1.06747e-08
6.73035e-08
-6.84021e-09
-1.49427e-08
-1.49035e-08
5.41978e-08
-2.01551e-08
3.64513e-08
-2.51357e-08
4.08002e-08
-3.29016e-08
5.33754e-08
-3.56046e-08
4.70321e-08
-4.44851e-08
7.728e-08
-5.13306e-08
9.41711e-08
-6.30223e-08
1.32539e-07
-7.73133e-08
1.72888e-07
-9.5246e-08
2.20526e-07
-1.16767e-07
2.72682e-07
-1.41235e-07
3.27168e-07
-1.69375e-07
3.84416e-07
-2.00799e-07
4.40256e-07
-2.3649e-07
4.93543e-07
-2.77617e-07
5.39952e-07
-3.26528e-07
5.74164e-07
-3.88239e-07
5.90139e-07
-4.70981e-07
5.85279e-07
-5.83824e-07
5.56225e-07
-7.13579e-07
4.67669e-07
-7.78888e-07
2.23368e-07
-6.29843e-07
-2.92087e-07
-3.11624e-07
-9.54176e-07
7.03929e-08
-1.36864e-06
-1.29776e-07
-1.41615e-06
-9.79872e-08
-1.25039e-06
-1.3895e-06
-7.79126e-09
-1.11977e-08
7.85012e-08
-6.31917e-09
-1.98213e-08
-1.44428e-08
6.23213e-08
-1.97625e-08
4.17711e-08
-2.41212e-08
4.51589e-08
-3.20816e-08
6.13358e-08
-3.24319e-08
4.73825e-08
-4.05831e-08
8.54312e-08
-4.37027e-08
9.72906e-08
-5.2328e-08
1.41164e-07
-6.15426e-08
1.82103e-07
-7.30766e-08
2.3206e-07
-8.6572e-08
2.86178e-07
-1.0061e-07
3.41206e-07
-1.16522e-07
4.00328e-07
-1.33535e-07
4.57269e-07
-1.54347e-07
5.14355e-07
-1.85364e-07
5.70969e-07
-2.36149e-07
6.24949e-07
-3.30535e-07
6.84526e-07
-4.83237e-07
7.3798e-07
-7.12349e-07
7.85337e-07
-9.9084e-07
7.46161e-07
-1.14298e-06
3.75509e-07
-9.46919e-07
-4.88149e-07
-6.70119e-07
-1.23098e-06
-3.20593e-07
-1.71817e-06
-3.61886e-07
-1.37486e-06
-6.63373e-08
-1.54594e-06
-1.33794e-06
-1.179e-07
-1.18295e-08
9.03307e-08
-5.71113e-09
-2.59397e-08
-1.39072e-08
7.05174e-08
-1.93834e-08
4.72473e-08
-2.31002e-08
4.88757e-08
-3.13008e-08
6.95363e-08
-2.91176e-08
4.51993e-08
-3.65114e-08
9.2825e-08
-3.54312e-08
9.62104e-08
-4.10439e-08
1.46777e-07
-4.48639e-08
1.85923e-07
-4.97624e-08
2.36959e-07
-5.51368e-08
2.91552e-07
-5.87565e-08
3.44826e-07
-6.32462e-08
4.04818e-07
-6.76684e-08
4.61692e-07
-7.60222e-08
5.22709e-07
-9.55243e-08
5.90471e-07
-1.27787e-07
6.57211e-07
-1.92594e-07
7.49333e-07
-3.06975e-07
8.52361e-07
-4.90848e-07
9.69211e-07
-6.66293e-07
9.21605e-07
-6.939e-07
4.03116e-07
-5.67148e-07
-6.14901e-07
-5.03839e-07
-1.29428e-06
-4.7334e-07
-1.74867e-06
-1.93812e-07
-1.65439e-06
3.44242e-08
-1.77417e-06
-1.278e-06
-2.55091e-08
-1.25876e-08
1.02918e-07
-5.00572e-09
-3.35215e-08
-1.32914e-08
7.88031e-08
-1.90379e-08
5.29939e-08
-2.21772e-08
5.2015e-08
-3.05908e-08
7.79499e-08
-2.58642e-08
4.04727e-08
-3.23793e-08
9.93402e-08
-2.6901e-08
9.0732e-08
-2.9424e-08
1.493e-07
-2.77242e-08
1.84223e-07
-2.59882e-08
2.35223e-07
-2.29528e-08
2.88517e-07
-1.49696e-08
3.36843e-07
-3.40828e-09
3.93256e-07
1.64514e-08
4.41832e-07
4.2185e-08
4.96975e-07
7.55838e-08
5.57072e-07
1.16235e-07
6.1656e-07
1.56711e-07
7.08857e-07
2.13759e-07
7.95314e-07
2.67726e-07
9.15243e-07
3.46691e-07
8.42641e-07
4.68353e-07
2.81453e-07
4.11576e-07
-5.58123e-07
2.61514e-07
-1.14422e-06
-2.11546e-08
-1.466e-06
1.64957e-07
-1.8405e-06
3.81004e-08
-1.64732e-06
-1.28534e-06
4.54408e-08
-1.34889e-08
1.16407e-07
-4.19501e-09
-4.28154e-08
-1.2591e-08
8.71991e-08
-1.87515e-08
5.91544e-08
-2.14244e-08
5.46878e-08
-2.99889e-08
8.65144e-08
-2.28033e-08
3.3287e-08
-2.82763e-08
1.04813e-07
-1.86552e-08
8.11109e-08
-1.77002e-08
1.48345e-07
-1.06898e-08
1.77213e-07
-2.82255e-09
2.27356e-07
8.10175e-09
2.77593e-07
2.47456e-08
3.20199e-07
4.61974e-08
3.71805e-07
7.88395e-08
4.0919e-07
1.20306e-07
4.55509e-07
1.80105e-07
4.97274e-07
2.74572e-07
5.22093e-07
4.1602e-07
5.67409e-07
6.27122e-07
5.84212e-07
9.54158e-07
5.88207e-07
1.29683e-06
4.99968e-07
1.53215e-06
4.61362e-08
1.41651e-06
-4.42486e-07
1.13738e-06
-8.65089e-07
7.1901e-07
-1.04763e-06
3.88171e-07
-1.50966e-06
7.04137e-08
-1.32956e-06
-1.16611e-06
-4.88207e-08
-1.45578e-08
1.30965e-07
-3.26289e-09
-5.41104e-08
-1.17914e-08
9.57276e-08
-1.85726e-08
6.59356e-08
-2.08828e-08
5.6998e-08
-2.95494e-08
9.5181e-08
-2.00262e-08
2.37638e-08
-2.43147e-08
1.09102e-07
-1.10146e-08
6.78108e-08
-5.81516e-09
1.43146e-07
5.67006e-09
1.65728e-07
1.90052e-08
2.14021e-07
3.59928e-08
2.60606e-07
6.17801e-08
2.94412e-07
9.36402e-08
3.39945e-07
1.43185e-07
3.59645e-07
2.05907e-07
3.92787e-07
2.88685e-07
4.14496e-07
4.16304e-07
3.94474e-07
5.3103e-07
4.52683e-07
8.04052e-07
3.1119e-07
1.03761e-06
3.54653e-07
1.24086e-06
2.96716e-07
1.49071e-06
-2.03711e-07
1.30029e-06
-2.52066e-07
1.04173e-06
-6.06532e-07
7.7402e-07
-7.79921e-07
2.71196e-07
-1.00683e-06
-8.68923e-09
-1.04967e-06
-1.07816e-06
-9.66406e-08
-1.58188e-08
1.46784e-07
-2.19565e-09
-6.77335e-08
-1.0875e-08
1.04407e-07
-1.85164e-08
7.35769e-08
-2.05873e-08
5.90689e-08
-2.93403e-08
1.03934e-07
-1.76051e-08
1.20286e-08
-2.067e-08
1.12166e-07
-4.17448e-09
5.13153e-08
5.40584e-09
1.33566e-07
2.09683e-08
1.50165e-07
3.85872e-08
1.96402e-07
6.04739e-08
2.38719e-07
9.24038e-08
2.62482e-07
1.29113e-07
3.03235e-07
1.87561e-07
3.01198e-07
2.56038e-07
3.24311e-07
3.33812e-07
3.36722e-07
4.69751e-07
2.58535e-07
5.10677e-07
4.11758e-07
7.17917e-07
1.0395e-07
7.06588e-07
3.65982e-07
8.2939e-07
1.73915e-07
8.05545e-07
-1.79866e-07
6.47627e-07
-9.41479e-08
4.88504e-07
-4.47409e-07
3.60887e-07
-6.52304e-07
1.51201e-07
-7.97148e-07
-1.09826e-08
-8.87489e-07
-1.06379e-06
-2.53452e-08
-1.73051e-08
1.64089e-07
-9.73152e-10
-8.40655e-08
-9.8101e-09
1.13244e-07
-1.84724e-08
8.22392e-08
-2.05798e-08
6.11763e-08
-2.94358e-08
1.1279e-07
-1.55921e-08
-1.8152e-09
-1.75805e-08
1.14155e-07
2.20664e-09
3.15282e-08
1.48852e-08
1.20887e-07
3.49783e-08
1.30072e-07
5.62688e-08
1.75112e-07
8.18881e-08
2.131e-07
1.16773e-07
2.27597e-07
1.5468e-07
2.65329e-07
2.12392e-07
2.43486e-07
2.61603e-07
2.751e-07
3.52872e-07
2.45453e-07
3.82177e-07
2.2923e-07
5.2634e-07
2.67595e-07
5.58573e-07
7.17164e-08
6.4252e-07
2.82036e-07
8.43782e-07
-2.73474e-08
6.91726e-07
-2.78106e-08
7.49372e-07
-1.51793e-07
7.44021e-07
-4.42059e-07
7.07822e-07
-6.16105e-07
7.3872e-07
-8.28046e-07
3.96405e-07
-5.45175e-07
-5.52525e-07
-1.14864e-07
-1.90537e-08
1.83143e-07
5.71282e-10
-1.0369e-07
-8.56083e-09
1.22376e-07
-1.83564e-08
9.20348e-08
-2.09133e-08
6.37331e-08
-2.99009e-08
1.21778e-07
-1.40296e-08
-1.76865e-08
-1.53039e-08
1.15429e-07
9.51728e-09
6.70698e-09
2.36362e-08
1.06768e-07
4.70746e-08
1.06634e-07
6.98807e-08
1.52306e-07
9.53782e-08
1.87602e-07
1.31987e-07
1.90989e-07
1.69338e-07
2.27978e-07
2.36773e-07
1.76051e-07
2.85066e-07
2.26806e-07
3.75476e-07
1.55044e-07
4.44167e-07
1.60538e-07
4.8208e-07
2.29682e-07
5.10109e-07
4.36871e-08
7.53187e-07
3.89591e-08
5.89397e-07
1.36442e-07
5.42467e-07
1.91198e-08
6.7865e-07
-2.87976e-07
9.51823e-07
-7.15232e-07
9.45633e-07
-6.09915e-07
8.79891e-07
-7.62304e-07
5.68063e-07
-2.33346e-07
2.0313e-07
-1.87591e-07
-2.11022e-08
2.04245e-07
2.53087e-09
-1.27324e-07
-7.06681e-09
1.31974e-07
-1.81664e-08
1.03134e-07
-2.16545e-08
6.72212e-08
-3.08207e-08
1.30944e-07
-1.29897e-08
-3.55176e-08
-1.40152e-08
1.16454e-07
1.59431e-08
-2.32513e-08
3.30531e-08
8.96581e-08
6.17903e-08
7.78967e-08
8.93754e-08
1.24721e-07
1.19262e-07
1.57716e-07
1.50724e-07
1.59527e-07
1.88173e-07
1.90529e-07
2.36751e-07
1.27473e-07
2.69734e-07
1.93824e-07
3.87859e-07
3.69189e-08
3.4321e-07
2.05187e-07
3.31128e-07
2.41764e-07
6.22969e-07
-2.48153e-07
8.46599e-07
-1.84671e-07
4.30878e-07
5.52163e-07
2.01316e-07
2.48682e-07
4.31948e-07
-5.18607e-07
7.58785e-07
-1.04207e-06
6.275e-07
-4.7863e-07
2.12433e-07
-3.47237e-07
1.50077e-07
-1.7099e-07
3.69698e-07
-1.64919e-08
-2.34931e-08
2.27738e-07
4.68164e-09
-1.55498e-07
-5.22764e-09
1.41883e-07
-1.79405e-08
1.15847e-07
-2.28793e-08
7.216e-08
-3.22406e-08
1.40305e-07
-1.26032e-08
-5.5155e-08
-1.432e-08
1.18171e-07
1.8834e-08
-5.64052e-08
3.39799e-08
7.45123e-08
6.26342e-08
4.92424e-08
8.60815e-08
1.01273e-07
1.09175e-07
1.34623e-07
1.41618e-07
1.27084e-07
1.70199e-07
1.61948e-07
2.53097e-07
4.45753e-08
2.82996e-07
1.63926e-07
4.57449e-07
-1.37534e-07
4.33013e-07
2.29623e-07
5.54275e-07
1.20502e-07
9.32644e-07
-6.26522e-07
1.13798e-06
-3.9001e-07
1.0644e-06
6.2575e-07
5.68188e-07
7.44889e-07
5.75067e-07
-5.25486e-07
4.40644e-07
-9.07646e-07
5.29124e-08
-9.0899e-08
-8.07269e-08
-2.13598e-07
2.05058e-08
-2.72223e-07
3.36685e-07
5.35194e-08
-2.62767e-08
2.54015e-07
7.07686e-09
-1.88852e-07
-3.1124e-09
1.52072e-07
-1.7718e-08
1.30453e-07
-2.46858e-08
7.91278e-08
-3.41889e-08
1.49808e-07
-1.27578e-08
-7.65861e-08
-1.36378e-08
1.19051e-07
3.13866e-08
-1.0143e-07
5.38775e-08
5.20215e-08
8.92858e-08
1.38342e-08
1.25093e-07
6.54668e-08
1.51612e-07
1.08104e-07
1.68545e-07
1.1015e-07
2.03706e-07
1.26787e-07
2.15335e-07
3.29466e-08
3.06786e-07
7.24745e-08
3.00235e-07
-1.30983e-07
5.33712e-07
-3.85417e-09
7.38877e-07
-8.4663e-08
7.692e-07
-6.56845e-07
7.62087e-07
-3.82897e-07
7.8219e-07
6.05647e-07
1.05816e-06
4.6892e-07
8.77987e-07
-3.45314e-07
5.04481e-07
-5.3414e-07
2.23944e-07
1.89639e-07
1.36778e-08
-3.33169e-09
-1.75442e-08
-2.41001e-07
4.02539e-07
-8.33981e-08
-2.95113e-08
2.83526e-07
9.73931e-09
-2.28102e-07
-1.12299e-09
1.62934e-07
-1.75217e-08
1.46852e-07
-2.71866e-08
8.87927e-08
-3.67241e-08
1.59346e-07
-1.4175e-08
-9.91351e-08
-2.22137e-08
1.2709e-07
1.66664e-08
-1.4031e-07
3.47881e-08
3.38998e-08
6.62206e-08
-1.75981e-08
8.9213e-08
4.24744e-08
1.0768e-07
8.96372e-08
1.17859e-07
9.99707e-08
1.34275e-07
1.10372e-07
1.83996e-07
-1.67748e-08
2.25214e-07
3.12568e-08
1.76548e-07
-8.23169e-08
3.0952e-07
-1.36827e-07
4.26006e-07
-2.01149e-07
1.9167e-07
-4.22508e-07
-2.60824e-08
-1.65144e-07
3.24795e-07
2.5477e-07
8.14324e-07
-2.06087e-08
3.30727e-07
1.38283e-07
-2.43906e-07
4.04928e-08
-2.30784e-07
1.76517e-07
-3.81711e-07
1.47596e-07
-3.55238e-07
-2.67474e-07
-2.59809e-08
7.32813e-08
-3.32579e-08
3.16784e-07
1.27035e-08
-2.74064e-07
1.6183e-09
1.7402e-07
-1.73488e-08
1.65819e-07
-3.05231e-08
1.01967e-07
-3.96219e-08
1.68445e-07
-1.56914e-08
-1.23066e-07
-1.58127e-08
1.27211e-07
5.05214e-08
-2.06644e-07
7.3731e-08
1.06904e-08
1.25316e-07
-6.91833e-08
1.77915e-07
-1.01243e-08
1.85981e-07
8.15709e-08
1.77096e-07
1.08856e-07
1.83524e-07
1.03944e-07
1.42444e-07
2.43055e-08
1.55693e-07
1.80078e-08
8.59304e-08
-1.25547e-08
2.64582e-08
-7.73543e-08
-1.70951e-07
-3.7403e-09
-4.23378e-07
-1.70081e-07
-4.80467e-07
-1.08056e-07
-3.61701e-07
1.36005e-07
-7.20138e-07
3.37829e-07
-8.59651e-07
2.77796e-07
-9.80775e-07
1.61617e-07
-8.38408e-07
3.41506e-08
-3.46284e-07
-3.44529e-07
-2.71503e-07
-3.42254e-07
-2.9042e-07
-7.06397e-09
-3.75819e-08
3.54366e-07
1.60062e-08
-3.27652e-07
5.60949e-09
1.84416e-07
-1.72174e-08
1.88646e-07
-3.49306e-08
1.1968e-07
-4.33245e-08
1.76839e-07
-1.97963e-08
-1.46594e-07
-4.11926e-08
1.48608e-07
5.85548e-09
-2.53692e-07
2.83776e-08
-1.18318e-08
5.75028e-08
-9.83084e-08
7.97811e-08
-3.24025e-08
9.92154e-08
6.21367e-08
7.54288e-08
1.32643e-07
8.6926e-08
9.24465e-08
1.71242e-07
-6.00109e-08
1.45084e-07
4.41659e-08
1.52453e-07
-1.99228e-08
1.47046e-07
-7.19477e-08
1.41041e-07
2.26414e-09
-2.30082e-08
-6.03127e-09
-8.37258e-08
-4.73381e-08
-1.86276e-07
2.38555e-07
-6.01077e-08
2.1166e-07
1.63272e-07
5.44168e-08
2.51559e-07
7.3329e-08
3.48176e-07
-6.24656e-08
2.9409e-07
-2.90443e-07
1.39519e-07
-1.87684e-07
1.78948e-07
-3.29843e-07
-4.25617e-08
3.96927e-07
1.96877e-08
-3.89901e-07
1.03783e-08
1.93726e-07
-1.7154e-08
2.16178e-07
-4.06941e-08
1.4322e-07
-4.61803e-08
1.82325e-07
-2.26533e-08
-1.70121e-07
-2.5022e-08
1.50976e-07
6.87902e-08
-3.47504e-07
8.88183e-08
-3.18598e-08
1.65714e-07
-1.75204e-07
2.78622e-07
-1.45311e-07
2.47232e-07
9.3527e-08
2.04209e-07
1.75666e-07
1.812e-07
1.15455e-07
1.05153e-07
1.60361e-08
1.53404e-07
-4.0849e-09
1.29531e-07
3.95074e-09
5.3621e-08
3.96191e-09
-6.50611e-08
1.20946e-07
-7.00437e-08
-1.04862e-09
-6.65381e-08
-5.08437e-08
5.87962e-08
1.13221e-07
3.86815e-07
-1.2289e-07
3.09641e-07
1.31615e-07
2.04664e-07
1.78306e-07
2.83484e-07
-1.41285e-07
2.77398e-07
-2.84352e-07
3.9829e-07
-3.08572e-07
4.2436e-07
1.52884e-07
-4.82613e-08
4.45189e-07
2.38063e-08
-4.61969e-07
1.62776e-08
2.01254e-07
-1.722e-08
2.49675e-07
-4.85194e-08
1.7452e-07
-5.15975e-08
1.85403e-07
-3.16087e-08
-1.9011e-07
-6.97338e-08
1.89102e-07
-1.05477e-08
-4.0669e-07
1.52398e-08
-5.76472e-08
4.80659e-08
-2.0803e-07
6.45893e-08
-1.61834e-07
8.10188e-08
7.70974e-08
-2.1901e-08
2.78586e-07
4.43681e-08
4.91861e-08
2.30563e-07
-1.70159e-07
5.77277e-08
1.6875e-07
5.16999e-09
5.65085e-08
8.67685e-08
-7.76366e-08
2.94583e-07
-9.1623e-08
8.29292e-07
-5.78894e-07
4.6116e-07
1.43175e-07
-1.72124e-07
3.58579e-07
-1.52322e-06
6.38838e-07
-1.79315e-06
2.73083e-07
-1.56799e-06
-4.50072e-08
-1.23357e-06
-3.31126e-07
-8.06323e-07
-4.60525e-07
-4.30251e-07
-4.30862e-07
-4.22878e-07
5.87818e-07
-5.47659e-08
4.99955e-07
2.85201e-08
-5.45255e-07
2.36957e-08
2.06079e-07
-1.74038e-08
2.90775e-07
-5.89599e-08
2.16076e-07
-4.96315e-08
1.76075e-07
-3.46656e-08
-2.05075e-07
-4.72234e-08
2.01659e-07
8.657e-08
-5.40484e-07
8.47572e-08
-5.58344e-08
2.08333e-07
-3.31606e-07
4.58047e-07
-4.11548e-07
3.60603e-07
1.74542e-07
2.68986e-07
3.70203e-07
1.84379e-07
1.33793e-07
2.58447e-08
-1.16243e-08
2.25697e-07
-3.11015e-08
9.05823e-08
1.91623e-07
-2.47231e-07
2.60177e-07
1.20378e-07
-4.80577e-07
4.36194e-07
-3.70778e-07
3.07998e-07
-1.27688e-08
-1.99064e-07
1.71904e-08
-2.51156e-07
2.14223e-08
-3.83988e-07
-5.23464e-09
-4.11828e-07
-1.20815e-07
-4.34949e-07
-1.08837e-07
-4.2913e-07
-3.24363e-07
-3.69994e-07
-2.96692e-07
-3.85663e-07
-1.04474e-09
-6.20849e-08
5.62039e-07
3.38722e-08
-6.41212e-07
3.28893e-08
2.07062e-07
-1.80149e-08
3.41679e-07
-7.17233e-08
2.69784e-07
-5.72843e-08
1.61636e-07
-5.71523e-08
-2.05207e-07
-1.07618e-07
2.52125e-07
-3.52261e-08
-6.12875e-07
-1.14328e-08
-7.96277e-08
4.37273e-08
-3.86766e-07
7.83065e-08
-4.46127e-07
6.19378e-08
1.9091e-07
-1.96431e-07
6.28571e-07
7.40512e-08
-1.36688e-07
4.15604e-07
-3.53177e-07
3.01819e-08
3.54315e-07
3.40883e-07
-1.19141e-07
-5.05881e-08
6.52027e-07
8.15833e-08
-3.6314e-07
-1.24047e-09
-3.27254e-08
-4.04164e-08
2.9792e-08
-2.95549e-08
1.23708e-08
-1.90131e-08
1.72168e-08
-3.51055e-08
-6.97631e-09
-1.35623e-08
-2.60685e-07
-1.40076e-08
-1.88755e-07
-9.14003e-08
-3.36454e-07
-4.82189e-07
-1.68578e-08
-3.24799e-07
-5.16729e-08
-7.03567e-08
6.32396e-07
4.05103e-08
-7.52079e-07
4.48775e-08
2.02695e-07
-1.86013e-08
4.05158e-07
-8.58618e-08
3.37045e-07
-4.43626e-08
1.20137e-07
-5.94675e-08
-1.90103e-07
-8.6086e-08
2.78744e-07
1.03062e-07
-8.02023e-07
2.7952e-08
-4.51782e-09
2.30292e-07
-5.89106e-07
7.87067e-07
-1.0029e-06
5.16692e-07
4.61285e-07
2.88747e-07
8.56516e-07
1.66609e-07
-1.455e-08
4.30126e-07
-6.16694e-07
7.16603e-07
6.7838e-08
-5.02759e-07
1.10022e-06
4.5289e-07
-4.38463e-07
2.08098e-08
-4.69543e-07
-4.25845e-08
2.98927e-08
-2.40107e-08
1.25499e-08
-2.97163e-09
-5.87229e-09
-7.499e-09
2.68352e-08
-4.72955e-08
8.50159e-10
-1.79314e-07
-2.33438e-07
-3.77922e-07
-9.4911e-08
-1.90779e-07
-5.09378e-07
-7.22395e-08
-1.06482e-07
-1.74931e-07
-1.90867e-07
-7.92598e-08
7.11656e-07
4.68611e-08
-8.782e-07
5.84886e-08
1.91067e-07
-2.08662e-08
4.84513e-07
-1.03041e-07
4.1922e-07
-6.77107e-08
8.48061e-08
-8.72051e-08
-1.70608e-07
-1.34678e-07
3.26217e-07
-7.37173e-08
-8.62984e-07
-7.06468e-08
-7.58831e-09
9.53166e-08
-7.55069e-07
1.93368e-07
-1.10095e-06
1.48498e-07
5.06156e-07
-4.61597e-07
1.46661e-06
3.49771e-07
-8.25918e-07
8.29422e-07
-1.09635e-06
-2.02856e-07
1.10012e-06
1.24523e-07
7.72784e-07
1.24235e-06
-1.55629e-06
-1.35773e-08
1.09089e-07
-9.63444e-09
2.56455e-08
-1.52625e-08
1.77871e-08
-2.81942e-07
5.5912e-08
-2.66467e-07
-1.45002e-07
-2.71271e-07
5.68596e-08
-2.74607e-08
-4.5872e-07
1.59323e-07
-2.88252e-07
3.17391e-07
-6.43143e-07
1.78643e-07
-1.35587e-07
1.66579e-08
5.46172e-08
-8.91347e-08
8.00791e-07
5.81529e-08
-1.02549e-06
7.90373e-08
1.70183e-07
-2.16546e-08
5.85205e-07
-1.20795e-07
5.1836e-07
-3.4765e-08
-1.22365e-09
-1.04169e-07
-1.01204e-07
-1.17572e-07
3.3962e-07
1.35626e-07
-1.11618e-06
-1.4313e-07
2.71168e-07
-2.02928e-07
-6.95271e-07
7.74012e-07
-2.07789e-06
7.45538e-07
5.34649e-07
6.3389e-07
1.57826e-06
1.26344e-06
-1.45547e-06
1.66859e-06
-1.50068e-06
5.96967e-07
2.17189e-06
1.75768e-06
-3.87905e-07
4.73271e-07
-2.71862e-07
-1.09259e-08
5.32375e-07
3.18043e-10
1.41523e-08
-3.19685e-08
4.9803e-08
-1.79105e-07
1.97499e-09
-2.09306e-07
-4.81621e-09
7.71743e-08
-1.63596e-07
8.41175e-08
-4.67247e-07
1.76957e-07
-3.87755e-07
8.14556e-08
-6.39888e-07
5.67808e-08
-2.31574e-07
2.61872e-07
-1.00995e-07
-1.18885e-07
9.19679e-07
6.37589e-08
-1.20813e-06
9.67711e-08
1.3717e-07
-2.97131e-08
7.11689e-07
-1.48909e-07
6.37557e-07
-7.70858e-08
-7.30474e-08
-7.99124e-08
-9.83771e-08
9.31754e-08
1.66532e-07
1.51642e-07
-1.17465e-06
2.06462e-07
2.16348e-07
-9.16452e-07
4.27643e-07
-1.68784e-07
-2.68258e-06
1.76328e-07
1.89536e-07
7.72904e-07
9.81683e-07
1.47326e-06
-2.1484e-06
-2.09628e-07
1.83904e-07
9.02646e-07
1.05972e-06
-9.82836e-08
6.13122e-07
-5.76638e-07
6.75964e-07
-1.93727e-09
4.27327e-07
4.26184e-09
7.65311e-09
4.24626e-08
1.13318e-08
2.1377e-07
-2.34372e-07
1.08496e-06
-5.16405e-08
2.77099e-06
-3.02566e-07
2.1261e-06
1.13775e-07
1.66179e-06
1.20291e-07
6.72433e-07
-3.03031e-07
1.0958e-06
-5.38675e-07
-3.08273e-07
1.71818e-06
2.91924e-07
6.27755e-07
1.16372e-07
-5.2641e-07
1.30704e-07
1.32985e-07
-1.62924e-08
8.58686e-07
-1.62094e-07
7.83359e-07
1.24577e-07
-3.59718e-07
-6.01004e-07
6.27204e-07
8.92884e-08
-5.2018e-07
-2.01339e-06
1.17705e-06
-1.08414e-06
-1.78948e-07
-9.12974e-08
-7.22279e-08
-1.1219e-06
-3.37291e-08
-3.53591e-07
-1.6365e-08
5.21571e-08
1.18823e-07
-6.94066e-08
-2.83525e-07
1.2881e-07
-1.73118e-08
6.27435e-07
3.50472e-07
-6.55906e-07
1.89859e-06
9.15187e-08
5.43726e-08
1.37121e-07
1.17095e-06
2.96739e-07
3.82003e-07
4.87454e-07
-1.1274e-08
2.23396e-06
-4.51866e-07
2.30021e-06
2.1768e-08
8.89411e-07
5.40414e-08
1.08791e-06
-2.79269e-09
2.1151e-06
-4.60414e-07
1.95506e-06
-2.78778e-07
1.51133e-06
-3.93722e-07
1.54907e-06
-2.32101e-07
4.4189e-08
-7.59852e-08
8.91171e-07
-8.46982e-07
1.60042e-06
-7.09245e-07
1.84554e-06
-2.45129e-07
1.79599e-06
4.95587e-08
1.64125e-06
1.54731e-07
1.45592e-06
1.85333e-07
1.2662e-06
1.89724e-07
1.08342e-06
1.82782e-07
9.14393e-07
1.69023e-07
7.62347e-07
1.52046e-07
6.28031e-07
1.34317e-07
5.10906e-07
1.17125e-07
4.09955e-07
1.00951e-07
3.24062e-07
8.5893e-08
2.52126e-07
7.19355e-08
1.93034e-07
5.90922e-08
1.4562e-07
4.74135e-08
1.08663e-07
3.69571e-08
8.08444e-08
2.7819e-08
6.08098e-08
2.00346e-08
4.70403e-08
1.37695e-08
3.78571e-08
9.18318e-09
3.16315e-08
6.22571e-09
2.65455e-08
5.086e-09
2.16587e-08
4.88681e-09
1.69436e-08
4.71513e-09
9.03979e-09
7.90387e-09
9.96761e-09
-9.27764e-10
9.96759e-09
2.03017e-07
-3.16942e-07
8.89729e-07
-1.53369e-06
1.73399e-06
-1.55351e-06
2.13931e-06
-6.5045e-07
2.08673e-06
1.02139e-07
1.80425e-06
4.37211e-07
1.51272e-06
4.76861e-07
1.26976e-06
4.3269e-07
1.06967e-06
3.82868e-07
9.00523e-07
3.38171e-07
7.54591e-07
2.97978e-07
6.27293e-07
2.61614e-07
5.1595e-07
2.28468e-07
4.19008e-07
1.97893e-07
3.35513e-07
1.69388e-07
2.64732e-07
1.42717e-07
2.05919e-07
1.17905e-07
1.582e-07
9.51325e-08
1.20577e-07
7.45805e-08
9.18716e-08
5.65244e-08
7.08497e-08
4.10565e-08
5.60425e-08
2.85768e-08
4.57864e-08
1.94394e-08
3.84694e-08
1.35427e-08
3.2217e-08
1.13385e-08
2.61378e-08
1.09661e-08
2.03774e-08
1.04756e-08
1.10608e-08
1.72205e-08
1.12552e-08
-1.12213e-09
2.12227e-08
9.38642e-07
-1.28715e-06
1.16661e-06
-1.76166e-06
1.48836e-06
-1.87526e-06
1.76937e-06
-9.31462e-07
1.78826e-06
8.32556e-08
1.59065e-06
6.3482e-07
1.34237e-06
7.25133e-07
1.12338e-06
6.51683e-07
9.47294e-07
5.58955e-07
8.03681e-07
4.81785e-07
6.81093e-07
4.20567e-07
5.72777e-07
3.6993e-07
4.7588e-07
3.25365e-07
3.8966e-07
2.84113e-07
3.1411e-07
2.44938e-07
2.49242e-07
2.07585e-07
1.9486e-07
1.72287e-07
1.50439e-07
1.39553e-07
1.15273e-07
1.09747e-07
8.83576e-08
8.344e-08
6.86643e-08
6.07499e-08
5.48147e-08
4.24264e-08
4.52133e-08
2.90408e-08
3.83384e-08
2.04177e-08
3.22326e-08
1.74443e-08
2.61623e-08
1.70365e-08
2.04238e-08
1.62141e-08
1.09715e-08
2.66729e-08
1.14304e-08
-1.58096e-09
3.26531e-08
8.13272e-07
-2.10031e-06
7.10496e-07
-1.65888e-06
5.06277e-07
-1.67104e-06
4.48164e-07
-8.73349e-07
5.1158e-07
1.98399e-08
6.45863e-07
5.00537e-07
7.15981e-07
6.55015e-07
7.27348e-07
6.40316e-07
6.97074e-07
5.89229e-07
6.40503e-07
5.38356e-07
5.69678e-07
4.91392e-07
4.93487e-07
4.46121e-07
4.17922e-07
4.0093e-07
3.46745e-07
3.5529e-07
2.82274e-07
3.0941e-07
2.25774e-07
2.64084e-07
1.77805e-07
2.20256e-07
1.3825e-07
1.79109e-07
1.06784e-07
1.41213e-07
8.25909e-08
1.07633e-07
6.49572e-08
7.83835e-08
5.26111e-08
5.47726e-08
4.40515e-08
3.76005e-08
3.78852e-08
2.65839e-08
3.20508e-08
2.32788e-08
2.60337e-08
2.30537e-08
2.03659e-08
2.1882e-08
1.07618e-08
3.62771e-08
1.16543e-08
-2.47346e-09
4.43075e-08
-2.67406e-07
-1.69384e-06
-5.12002e-07
-1.41429e-06
-5.91503e-07
-1.59154e-06
-6.81206e-07
-7.83646e-07
-4.35725e-07
-2.25641e-07
-1.08577e-07
1.73389e-07
1.8252e-07
3.63918e-07
3.67636e-07
4.552e-07
4.5585e-07
5.01015e-07
4.75033e-07
5.19173e-07
4.51631e-07
5.14794e-07
4.05857e-07
4.91895e-07
3.51124e-07
4.55663e-07
2.95433e-07
4.1098e-07
2.43169e-07
3.61674e-07
1.96411e-07
3.10842e-07
1.56235e-07
2.60432e-07
1.22691e-07
2.12653e-07
9.59054e-08
1.67998e-07
7.51505e-08
1.28388e-07
6.0175e-08
9.3359e-08
4.9782e-08
6.51657e-08
4.25741e-08
4.48084e-08
3.73129e-08
3.18451e-08
3.18259e-08
2.87659e-08
2.58653e-08
2.90144e-08
2.02772e-08
2.74703e-08
1.04767e-08
4.60776e-08
1.19578e-08
-3.95447e-09
5.62653e-08
-2.43797e-07
-1.24565e-06
-4.8069e-07
-1.17739e-06
-5.01962e-07
-1.57027e-06
-3.93067e-07
-8.92542e-07
-1.08271e-07
-5.10437e-07
1.14419e-07
-4.93011e-08
2.61674e-07
2.16663e-07
3.4115e-07
3.75724e-07
3.7469e-07
4.67476e-07
3.7656e-07
5.17302e-07
3.55301e-07
5.36053e-07
3.20155e-07
5.2704e-07
2.79461e-07
4.96357e-07
2.37986e-07
4.52455e-07
1.98501e-07
4.01159e-07
1.62408e-07
3.46935e-07
1.31087e-07
2.91753e-07
1.0434e-07
2.39399e-07
8.30555e-08
1.89283e-07
6.6266e-08
1.45177e-07
5.44816e-08
1.05143e-07
4.64542e-08
7.31931e-08
4.08455e-08
5.04172e-08
3.66635e-08
3.60272e-08
3.15828e-08
3.38467e-08
2.56749e-08
3.49223e-08
2.01543e-08
3.2991e-08
1.01152e-08
5.61168e-08
1.23465e-08
-6.18569e-09
6.86118e-08
7.36005e-08
-1.32705e-06
7.19607e-08
-1.17575e-06
-8.2222e-08
-1.41608e-06
2.57255e-07
-1.23202e-06
5.29622e-07
-7.82804e-07
6.47969e-07
-1.67648e-07
5.92762e-07
2.71871e-07
4.90989e-07
4.77497e-07
4.02629e-07
5.55836e-07
3.37151e-07
5.8278e-07
2.87032e-07
5.86173e-07
2.46005e-07
5.68067e-07
2.10234e-07
5.32128e-07
1.78556e-07
4.84133e-07
1.50468e-07
4.29247e-07
1.25021e-07
3.72382e-07
1.03306e-07
3.13468e-07
8.38117e-08
2.58893e-07
6.87581e-08
2.04337e-07
5.61769e-08
1.57759e-07
4.80721e-08
1.13248e-07
4.2778e-08
7.84872e-08
3.88928e-08
5.43024e-08
3.59865e-08
3.89335e-08
3.13497e-08
3.84835e-08
2.54854e-08
4.07867e-08
1.99924e-08
3.84841e-08
9.67432e-09
6.6435e-08
1.28275e-08
-9.33875e-09
8.14393e-08
-9.92963e-08
-1.34565e-06
2.27698e-07
-1.50275e-06
1.9378e-07
-1.38217e-06
6.02121e-07
-1.64036e-06
8.77749e-07
-1.05843e-06
1.02944e-06
-3.19336e-07
8.51771e-07
4.49538e-07
5.97232e-07
7.32035e-07
4.01129e-07
7.51939e-07
2.71697e-07
7.12213e-07
1.92975e-07
6.64894e-07
1.51922e-07
6.0912e-07
1.27171e-07
5.5688e-07
1.10753e-07
5.00552e-07
9.74147e-08
4.42585e-07
8.42584e-08
3.85538e-07
7.32769e-08
3.24449e-07
6.15004e-08
2.7067e-07
5.34032e-08
2.12434e-07
4.51075e-08
1.66054e-07
4.11896e-08
1.17166e-07
3.87388e-08
8.09379e-08
3.67869e-08
5.62543e-08
3.53423e-08
4.03781e-08
3.116e-08
4.26658e-08
2.53234e-08
4.66234e-08
1.97849e-08
4.40226e-08
9.14837e-09
7.70716e-08
1.34106e-08
-1.36009e-08
9.485e-08
-4.40664e-08
-1.32709e-06
2.26622e-07
-1.77344e-06
4.09071e-07
-1.56461e-06
4.71599e-07
-1.70289e-06
5.64155e-07
-1.15099e-06
6.95112e-07
-4.50293e-07
6.27398e-07
5.17252e-07
4.32217e-07
9.27216e-07
2.50092e-07
9.34063e-07
1.45378e-07
8.16927e-07
8.91177e-08
7.21154e-07
6.30124e-08
6.35226e-07
4.9129e-08
5.70763e-07
4.48584e-08
5.04822e-07
4.42796e-08
4.43164e-07
4.24901e-08
3.87328e-07
4.21439e-08
3.24796e-07
3.78118e-08
2.75002e-07
3.72374e-08
2.13008e-07
3.31973e-08
1.70094e-07
3.39685e-08
1.16395e-07
3.44539e-08
8.04526e-08
3.46169e-08
5.60912e-08
3.48013e-08
4.01937e-08
3.10515e-08
4.64156e-08
2.5215e-08
5.24599e-08
1.95239e-08
4.97139e-08
8.53073e-09
8.80648e-08
1.41072e-08
-1.91773e-08
1.08957e-07
3.29754e-08
-1.31463e-06
-8.27969e-08
-1.65766e-06
6.12366e-08
-1.70865e-06
-2.73442e-07
-1.36821e-06
-4.14228e-07
-1.0102e-06
-4.34137e-07
-4.30384e-07
-3.08899e-07
3.92013e-07
-2.60219e-07
8.78537e-07
-2.24071e-07
8.97915e-07
-1.76256e-07
7.69112e-07
-1.39775e-07
6.84674e-07
-9.89147e-08
5.94365e-07
-6.42509e-08
5.36099e-07
-3.62815e-08
4.76853e-07
-1.45258e-08
4.21408e-07
-7.62354e-10
3.73564e-07
1.01439e-08
3.13889e-07
1.38352e-08
2.7131e-07
2.05732e-08
2.0627e-07
2.07737e-08
1.69894e-07
2.6525e-08
1.10644e-07
3.00829e-08