/*--------------------------------*- C++ -*----------------------------------*\
| =========                 |                                                 |
| \\      /  F ield         | OpenFOAM: The Open Source CFD Toolbox           |
|  \\    /   O peration     | Version:  2.4.0                                 |
|   \\  /    A nd           | Web:      www.OpenFOAM.org                      |
|    \\/     M anipulation  |                                                 |
\*---------------------------------------------------------------------------*/
FoamFile
{
    version     2.0;
    format      ascii;
    class       surfaceScalarField;
    location    "0.162";
    object      phiAlpha;
}
// * * * * * * * * * * * * * * * * * * * * * * * * * * * * * * * * * * * * * //

dimensions      [0 3 -1 0 0 0 0];

internalField   nonuniform List<scalar> 
19800
(
2.29287e-74
-6.42162e-71
5.71424e-70
-1.41594e-66
1.16195e-66
-1.86373e-63
3.50167e-64
-4.2175e-61
3.43015e-62
-3.45908e-59
1.70422e-60
-1.54284e-57
6.09281e-59
-5.18588e-56
1.96531e-57
-1.6161e-54
6.72897e-56
-5.39778e-53
2.58923e-54
-1.98414e-51
1.08567e-52
-7.75004e-50
4.76891e-51
-3.07976e-48
2.08718e-49
-1.17921e-46
8.97226e-48
-4.23982e-45
3.73624e-46
-1.42704e-43
1.43364e-44
-4.37775e-42
4.68222e-43
-1.14649e-40
1.28372e-41
-2.5088e-39
3.06694e-40
-4.73472e-38
6.10757e-39
-7.51536e-37
9.90012e-38
-9.79051e-36
1.31969e-36
-1.05512e-34
1.44707e-35
-9.43311e-34
1.30183e-34
-6.98876e-33
9.53101e-34
-4.2593e-32
5.60859e-33
-2.11696e-31
2.63581e-32
-8.51998e-31
9.72584e-32
-2.71037e-30
2.6513e-31
-6.35953e-30
4.39357e-31
-9.30276e-30
4.59656e-31
-8.71588e-30
3.15941e-31
-5.34941e-30
1.46401e-31
-2.20997e-30
4.67977e-32
-6.03237e-31
1.0219e-32
-1.01082e-31
1.53542e-33
-5.80924e-33
1.75377e-34
1.18771e-36
1.51425e-35
2.89191e-37
9.39727e-37
3.10633e-38
4.32198e-38
2.13332e-39
1.47461e-39
1.01793e-40
3.76973e-41
3.53038e-42
7.25294e-43
9.13299e-44
1.03815e-44
1.77465e-45
1.07958e-46
2.58858e-47
7.71796e-49
2.79175e-49
3.29174e-51
2.13386e-51
4.91855e-54
1.11028e-53
-5.29702e-54
2.0146e-55
9.48437e-54
-7.8768e-52
1.04612e-70
-1.5022e-67
3.65338e-66
-4.19639e-63
6.95025e-63
-5.01996e-60
2.09613e-60
-1.13359e-57
2.18577e-58
-9.76881e-56
1.21138e-56
-4.77082e-54
4.95284e-55
-1.79612e-52
1.82219e-53
-6.24902e-51
6.91189e-52
-2.25596e-49
2.77047e-50
-8.46122e-48
1.14101e-48
-3.19779e-46
4.67963e-47
-1.16614e-44
1.8321e-45
-3.9328e-43
6.73175e-44
-1.20373e-41
2.32562e-42
-3.35901e-40
7.36968e-41
-8.47185e-39
2.00693e-39
-1.83531e-37
4.59348e-38
-3.324e-36
9.10997e-37
-5.16488e-35
1.52468e-35
-6.82836e-34
2.09866e-34
-7.5039e-33
2.39211e-33
-6.89721e-32
2.2627e-32
-5.33039e-31
1.77413e-31
-3.46303e-30
1.14546e-30
-1.87971e-29
6.0475e-30
-8.47843e-29
2.59963e-29
-3.15008e-28
8.91742e-29
-9.36518e-28
2.28991e-28
-2.0758e-27
3.74515e-28
-2.97876e-27
4.03914e-28
-2.83931e-27
2.96789e-28
-1.82605e-27
1.55163e-28
-8.06483e-28
5.85934e-29
-2.40102e-28
1.62716e-29
-4.24882e-29
3.36982e-30
-1.09132e-30
5.68019e-31
8.87383e-33
7.56882e-32
2.65664e-33
7.74392e-33
4.4566e-34
6.00758e-34
5.06906e-35
3.50867e-35
4.13202e-36
1.51764e-36
2.4495e-37
4.76721e-38
1.05933e-38
1.06122e-39
3.34402e-40
1.55996e-41
7.47883e-42
1.29021e-43
1.11455e-43
3.30176e-46
9.81934e-46
-2.05153e-48
3.99355e-48
-2.73114e-46
5.18962e-48
2.51163e-46
-1.61068e-44
1.41184e-67
-1.81976e-64
5.79407e-63
-4.26465e-60
9.40667e-60
-4.36744e-57
2.69811e-57
-9.43278e-55
2.88028e-55
-8.3328e-53
1.71898e-53
-4.37505e-51
7.76648e-52
-1.80119e-49
3.1473e-50
-6.79891e-48
1.2706e-48
-2.55234e-46
5.10487e-47
-9.40734e-45
1.99684e-45
-3.3215e-43
7.39025e-44
-1.08413e-41
2.51549e-42
-3.17161e-40
7.80301e-41
-8.22613e-39
2.22691e-39
-1.90995e-37
5.80542e-38
-3.98693e-36
1.31313e-36
-7.20322e-35
2.50443e-35
-1.09392e-33
4.1245e-34
-1.42253e-32
5.80423e-33
-1.58712e-31
6.80367e-32
-1.48935e-30
6.67179e-31
-1.18139e-29
5.49461e-30
-7.98133e-29
3.79768e-29
-4.59392e-28
2.19068e-28
-2.24249e-27
1.05102e-27
-9.24607e-27
4.17106e-27
-3.18219e-26
1.33646e-26
-8.84159e-26
3.24114e-26
-1.8492e-25
5.20483e-26
-2.58882e-25
5.72951e-26
-2.48736e-25
4.44508e-26
-1.66363e-25
2.52468e-26
-7.73145e-26
1.07795e-26
-2.47049e-26
3.51445e-27
-4.58465e-27
8.98189e-28
9.42459e-31
1.89139e-28
4.97328e-30
3.18929e-29
1.74431e-30
4.19437e-30
3.68165e-31
4.23134e-31
5.40965e-32
3.22657e-32
5.76278e-33
1.81206e-33
4.46781e-34
7.26483e-35
2.50348e-35
1.98931e-36
9.99918e-37
3.38843e-38
2.74485e-38
2.77115e-40
4.73999e-40
2.19695e-44
4.40636e-42
-4.84673e-43
3.94965e-44
-2.8085e-41
9.59846e-43
2.7942e-41
-9.46118e-40
1.10242e-64
-1.29721e-61
3.80109e-60
-2.17388e-57
5.16028e-57
-1.86476e-54
1.38799e-54
-3.79668e-52
1.49348e-52
-3.38216e-50
9.43806e-51
-1.87651e-48
4.59686e-49
-8.25735e-47
1.99358e-47
-3.27786e-45
8.26642e-46
-1.23527e-43
3.2334e-44
-4.35803e-42
1.17589e-42
-1.41267e-40
3.89525e-41
-4.09552e-39
1.15476e-39
-1.03959e-37
3.05568e-38
-2.30291e-36
7.31423e-37
-4.50798e-35
1.59149e-35
-7.89194e-34
3.02704e-34
-1.20349e-32
4.87856e-33
-1.55232e-31
6.77209e-32
-1.71164e-30
8.09437e-31
-1.62645e-29
8.14886e-30
-1.31281e-28
6.93116e-29
-9.04221e-28
5.01196e-28
-5.36854e-27
3.0805e-27
-2.75236e-26
1.60302e-26
-1.2152e-25
7.04805e-26
-4.59973e-25
2.59644e-25
-1.46999e-24
7.78964e-25
-3.82075e-24
1.78616e-24
-7.54615e-24
2.80571e-24
-1.02794e-23
3.12547e-24
-9.89812e-24
2.53774e-24
-6.82405e-24
1.5338e-24
-3.31124e-24
7.19563e-25
-1.12148e-24
2.64348e-25
-2.15746e-25
7.85437e-26
3.73009e-28
1.93812e-26
7.48484e-28
3.8417e-27
2.95799e-28
5.99887e-28
7.32618e-29
7.24617e-29
1.28567e-29
6.60648e-30
1.64196e-30
4.41456e-31
1.52615e-31
2.07205e-32
1.01562e-32
6.42868e-34
4.72168e-34
1.17453e-35
1.47486e-35
8.57755e-38
2.7943e-37
-3.9984e-41
2.80288e-39
-4.32233e-39
3.21701e-40
-1.50861e-37
8.38821e-39
1.67376e-37
-3.36581e-36
5.32915e-62
-5.92839e-59
1.26053e-57
-6.55846e-55
1.40529e-54
-4.692e-52
3.49943e-52
-8.93932e-50
3.7271e-50
-7.95313e-48
2.44363e-48
-4.5805e-46
1.25067e-46
-2.10113e-44
5.62381e-45
-8.47526e-43
2.31981e-43
-3.10661e-41
8.673e-42
-1.02916e-39
2.91697e-40
-3.03715e-38
8.71036e-39
-7.82557e-37
2.28437e-37
-1.73644e-35
5.27247e-36
-3.32542e-34
1.08604e-34
-5.57245e-33
2.01917e-33
-8.30456e-32
3.295e-32
-1.08231e-30
4.57385e-31
-1.19864e-29
5.44758e-30
-1.13324e-28
5.601e-29
-9.2484e-28
4.89102e-28
-6.45918e-27
3.63808e-27
-3.87985e-26
2.32586e-26
-2.03004e-25
1.27978e-25
-9.29361e-25
6.04879e-25
-3.71999e-24
2.44984e-24
-1.29432e-23
8.40336e-24
-3.84269e-23
2.36388e-23
-9.35041e-23
5.13023e-23
-1.74688e-22
7.86319e-23
-2.31364e-22
8.81332e-23
-2.22502e-22
7.42075e-23
-1.57118e-22
4.72915e-23
-7.92795e-23
2.39742e-23
-2.82501e-23
9.70362e-24
-5.64969e-24
3.24542e-24
2.85431e-26
9.07365e-25
4.72643e-26
2.04864e-25
2.0781e-26
3.67001e-26
5.86948e-27
5.11309e-27
1.1879e-27
5.39275e-28
1.76132e-28
4.14272e-29
1.89627e-29
2.20704e-30
1.45191e-30
7.59631e-32
7.68518e-32
1.47076e-33
2.70559e-33
9.07392e-36
5.79612e-35
-8.77842e-38
7.35247e-37
-5.0411e-36
4.84528e-37
-1.26945e-34
1.01805e-35
1.57345e-34
-2.12722e-33
1.5928e-59
-1.83158e-56
2.28439e-55
-1.3e-52
1.99526e-52
-7.74828e-50
4.39731e-50
-1.37002e-47
4.43063e-48
-1.20379e-45
2.86869e-46
-7.04818e-44
1.47206e-44
-3.27147e-42
6.59606e-43
-1.29614e-40
2.66421e-41
-4.52712e-39
9.67016e-40
-1.39507e-37
3.12172e-38
-3.74468e-36
8.81089e-37
-8.6239e-35
2.14682e-35
-1.68914e-33
4.5247e-34
-2.83163e-32
8.35792e-33
-4.12164e-31
1.3743e-31
-5.30008e-30
1.97674e-30
-5.96814e-29
2.41515e-29
-5.72742e-28
2.51603e-28
-4.68457e-27
2.25781e-27
-3.30689e-26
1.72843e-26
-2.00847e-25
1.13326e-25
-1.05649e-24
6.44076e-25
-4.88233e-24
3.187e-24
-1.997e-23
1.37327e-23
-7.243e-23
5.1344e-23
-2.31379e-22
1.64123e-22
-6.37281e-22
4.3321e-22
-1.45261e-21
8.91159e-22
-2.57449e-21
1.33149e-21
-3.319e-21
1.49625e-21
-3.1836e-21
1.29783e-21
-2.29182e-21
8.67654e-22
-1.20197e-21
4.69983e-22
-4.49812e-22
2.07309e-22
-9.49182e-23
7.67777e-23
9.43545e-25
2.39538e-23
1.57053e-24
6.08008e-24
7.69285e-25
1.23222e-24
2.45459e-25
1.9509e-25
5.65345e-26
2.34619e-26
9.59192e-27
2.05453e-27
1.18438e-27
1.23818e-28
1.03676e-28
4.77357e-30
6.27489e-30
1.01031e-31
2.54566e-31
5.20671e-34
6.57386e-33
-3.58886e-35
1.22669e-34
-1.48394e-33
1.82861e-34
-3.00201e-32
3.24746e-33
4.18819e-32
-4.10696e-31
2.79296e-57
-4.05499e-54
1.88961e-53
-1.82818e-50
9.30598e-51
-8.9785e-48
1.0083e-48
-1.45219e-45
1.16723e-47
-1.23164e-43
-1.96734e-43
-7.10176e-42
-1.49376e-41
-3.20996e-40
-5.73211e-40
-1.22407e-38
-1.14208e-38
-4.09065e-37
1.61771e-39
-1.18921e-35
6.13243e-37
-2.94159e-34
2.86447e-35
-6.10645e-33
8.50498e-34
-1.06211e-31
1.90763e-32
-1.56557e-30
3.47573e-31
-2.00289e-29
5.37794e-30
-2.24111e-28
7.10557e-29
-2.19628e-27
7.86532e-28
-1.83732e-26
7.3281e-27
-1.30842e-25
5.83385e-26
-8.02851e-25
3.96075e-25
-4.2552e-24
2.30943e-24
-1.967e-23
1.17341e-23
-8.04686e-23
5.23685e-23
-2.94218e-22
2.05939e-22
-9.64585e-22
7.10555e-22
-2.8194e-21
2.11414e-21
-7.18634e-21
5.23765e-21
-1.53546e-20
1.02367e-20
-2.59331e-20
1.49201e-20
-3.26438e-20
1.67837e-20
-3.12504e-20
1.49232e-20
-2.28386e-20
1.04483e-20
-1.24275e-20
6.0068e-21
-4.90652e-21
2.86777e-21
-1.11908e-21
1.16644e-21
1.63977e-23
4.04474e-22
3.13017e-23
1.15175e-22
1.72745e-23
2.63542e-23
6.24062e-24
4.73293e-24
1.63457e-24
6.4826e-25
3.16715e-25
6.50239e-26
4.49504e-26
4.49244e-27
4.53489e-27
1.98767e-28
3.182e-28
4.86448e-30
1.53402e-29
2.40812e-32
5.00545e-31
-4.61216e-33
1.29e-32
-1.59628e-31
2.49777e-32
-2.78722e-30
3.92285e-31
4.43033e-30
-3.29616e-29
1.84612e-55
-6.58826e-52
-5.33603e-49
-1.82309e-48
-3.15237e-46
-7.05755e-46
-5.3979e-44
-9.93052e-44
-5.03696e-42
-7.64633e-42
-3.12231e-40
-4.06936e-40
-1.38155e-38
-1.74566e-38
-4.55296e-37
-6.6603e-37
-1.13859e-35
-2.26103e-35
-2.16932e-34
-6.50189e-34
-3.09835e-33
-1.53101e-32
-3.07557e-32
-2.93365e-31
-1.37729e-31
-4.61753e-30
1.92441e-31
-6.06968e-29
6.68392e-30
-6.83528e-28
1.1872e-28
-6.681e-27
1.57637e-27
-5.72883e-26
1.65899e-26
-4.1922e-25
1.42482e-25
-2.60744e-24
1.02597e-24
-1.39542e-23
6.25654e-24
-6.46545e-23
3.27566e-23
-2.62625e-22
1.49752e-22
-9.52554e-22
6.04805e-22
-3.11657e-21
2.16919e-21
-9.21494e-21
6.88923e-21
-2.45277e-20
1.90323e-20
-5.76455e-20
4.42537e-20
-1.15617e-19
8.2467e-20
-1.87303e-19
1.17541e-19
-2.31334e-19
1.32416e-19
-2.21521e-19
1.20175e-19
-1.63581e-19
8.78628e-20
-9.21434e-20
5.35608e-20
-3.87118e-20
2.75922e-20
-9.78383e-21
1.22925e-20
1.572e-22
4.74875e-21
4.06571e-22
1.52322e-21
2.57618e-22
3.95475e-22
1.06398e-22
8.10247e-23
3.19132e-23
1.2723e-23
7.10158e-24
1.47453e-24
1.16493e-24
1.18904e-25
1.37029e-25
6.21128e-27
1.13176e-26
1.85951e-28
6.61673e-28
1.29499e-30
2.76631e-29
-2.44648e-31
8.8112e-31
-7.88836e-30
1.56563e-30
-1.25553e-28
2.25305e-29
2.30691e-28
-1.33896e-27
-9.55778e-50
-7.40481e-50
-2.47382e-46
-1.11418e-46
-8.43333e-44
-2.72864e-44
-1.19763e-41
-2.30693e-42
-9.89846e-40
-7.92683e-41
-5.43759e-38
-1.07968e-39
-2.13153e-36
-9.80742e-38
-6.21746e-35
-1.16813e-35
-1.3899e-33
-6.48934e-34
-2.43031e-32
-2.21549e-32
-3.36386e-31
-5.36686e-31
-3.68766e-30
-9.8249e-30
-3.13588e-29
-1.42855e-28
-1.90443e-28
-1.69921e-27
-4.56878e-28
-1.70912e-26
9.7553e-28
-1.47419e-25
2.01572e-26
-1.10359e-24
2.28443e-25
-7.08978e-24
1.90759e-24
-3.85968e-23
1.27797e-23
-1.80251e-22
7.109e-23
-7.30721e-22
3.3691e-22
-2.60782e-21
1.39514e-21
-8.36824e-21
5.12128e-21
-2.44679e-20
1.67493e-20
-6.52227e-20
4.87804e-20
-1.57415e-19
1.24647e-19
-3.39603e-19
2.72047e-19
-6.41091e-19
4.85792e-19
-1.00379e-18
6.79805e-19
-1.2242e-18
7.68598e-19
-1.17546e-18
7.08871e-19
-8.72609e-19
5.39746e-19
-5.09044e-19
3.50077e-19
-2.29921e-19
1.94265e-19
-6.55581e-20
9.48348e-20
6.77597e-22
4.09649e-20
3.61534e-21
1.49088e-20
2.7029e-21
4.43459e-21
1.29688e-21
1.04779e-21
4.51235e-22
1.90786e-22
1.16592e-22
2.58577e-23
2.23141e-23
2.48197e-24
3.10331e-24
1.57219e-25
3.06192e-25
5.97314e-27
2.18179e-26
7.43733e-29
1.15243e-27
-6.2161e-30
4.2409e-29
-2.07574e-28
5.27144e-29
-3.15878e-27
7.1466e-28
6.81849e-27
-3.1436e-26
-2.68004e-47
-5.44238e-48
-3.97879e-44
-6.11108e-46
-1.16829e-41
2.41198e-44
-1.51809e-39
6.41203e-42
-1.14013e-37
6.93711e-40
-5.59479e-36
4.14684e-38
-1.92258e-34
1.47657e-36
-4.86358e-33
2.90505e-35
-9.46117e-32
9.94956e-35
-1.467e-30
-3.9015e-31
-1.8285e-29
-1.2428e-29
-1.85891e-28
-2.32722e-28
-1.53963e-27
-3.20545e-27
-1.03259e-26
-3.51489e-26
-5.26521e-26
-3.2006e-25
-1.5741e-25
-2.46812e-24
6.70911e-26
-1.62855e-23
1.88218e-24
-9.13683e-23
1.76177e-23
-4.36758e-22
1.15337e-22
-1.78315e-21
5.98535e-22
-6.3094e-21
2.59581e-21
-1.9771e-20
9.77763e-21
-5.60514e-20
3.27103e-20
-1.46012e-19
9.77737e-20
-3.49836e-19
2.60367e-19
-7.64258e-19
6.12497e-19
-1.50712e-18
1.25553e-18
-2.69287e-18
2.15931e-18
-4.08045e-18
2.98187e-18
-4.98181e-18
3.39166e-18
-4.77937e-18
3.16572e-18
-3.5557e-18
2.51311e-18
-2.15927e-18
1.74462e-18
-1.05952e-18
1.03892e-18
-3.44384e-19
5.56822e-19
-1.00586e-20
2.69992e-19
2.25291e-20
1.1252e-19
2.07333e-20
3.88017e-20
1.18117e-20
1.071e-20
4.84716e-21
2.29109e-21
1.47449e-21
3.67791e-22
3.33014e-22
4.25578e-23
5.525e-23
3.33162e-24
6.58654e-24
1.6316e-25
5.71211e-25
3.5066e-27
3.72215e-26
-7.92818e-29
1.6104e-27
-3.20322e-27
1.0688e-27
-4.89392e-26
1.38921e-26
1.26444e-25
-4.68524e-25
-3.66739e-45
-1.89635e-46
-4.24678e-42
1.13584e-44
-1.11061e-39
6.77354e-42
-1.30116e-37
1.19485e-39
-8.70354e-36
1.03989e-37
-3.76926e-34
5.31931e-36
-1.13916e-32
1.72715e-34
-2.52436e-31
3.60362e-33
-4.27492e-30
4.3711e-32
-5.78033e-29
8.94515e-32
-6.41444e-28
-1.751e-28
-5.87796e-27
-3.93354e-27
-4.4878e-26
-5.34031e-26
-2.85782e-25
-5.48213e-25
-1.48452e-24
-4.56223e-24
-5.90339e-24
-3.17796e-23
-1.4029e-23
-1.87022e-22
3.95007e-24
-9.248e-22
1.05248e-22
-3.85772e-21
7.59763e-22
-1.38061e-20
3.80766e-21
-4.26299e-20
1.53361e-20
-1.16833e-19
5.28828e-20
-2.92442e-19
1.61527e-19
-6.77623e-19
4.41563e-19
-1.45545e-18
1.07607e-18
-2.86832e-18
2.32137e-18
-5.15234e-18
4.48116e-18
-8.83942e-18
7.40143e-18
-1.26572e-17
1.02063e-17
-1.65987e-17
1.16325e-17
-1.54629e-17
1.09698e-17
-1.14219e-17
9.14669e-18
-7.23126e-18
6.84117e-18
-3.86773e-18
4.34436e-18
-1.43894e-18
2.5588e-18
-1.9662e-19
1.3925e-18
9.68759e-20
6.69284e-19
1.18158e-19
2.70488e-19
8.21291e-20
8.833e-20
4.05068e-20
2.24983e-20
1.47359e-20
4.33243e-21
3.97856e-21
6.10026e-22
7.9386e-22
5.96734e-23
1.15302e-22
3.75934e-24
1.21141e-23
1.25039e-25
9.52453e-25
-4.02899e-28
5.00999e-26
-3.06466e-26
1.44292e-26
-4.99299e-25
1.7807e-25
1.58024e-24
-4.73856e-24
-3.34775e-43
1.30955e-46
-3.23443e-40
1.69637e-42
-7.52122e-38
7.43713e-40
-7.82552e-36
1.10971e-37
-4.63381e-34
8.35371e-36
-1.77204e-32
3.74835e-34
-4.7031e-31
1.08883e-32
-9.15694e-30
2.10683e-31
-1.36565e-28
2.67007e-30
-1.61692e-27
1.8446e-29
-1.58875e-26
-7.57179e-28
-1.30324e-25
-4.66221e-26
-9.02471e-25
-6.71611e-25
-5.2783e-24
-6.57436e-24
-2.58268e-23
-5.05155e-23
-1.02069e-22
-3.19904e-22
-2.97931e-22
-1.69009e-21
-4.72852e-22
-7.4436e-21
2.68876e-22
-2.72973e-20
3.56343e-21
-8.5176e-20
1.85531e-20
-2.29768e-19
7.06686e-20
-5.49243e-19
2.25038e-19
-1.21127e-18
6.30266e-19
-2.49877e-18
1.58032e-18
-4.81336e-18
3.53253e-18
-8.54714e-18
6.97992e-18
-1.38148e-17
1.28319e-17
-2.37572e-17
1.9751e-17
-3.0586e-17
2.90636e-17
-5.82896e-17
3.2199e-17
-4.97839e-17
3.04266e-17
-3.23232e-17
2.67958e-17
-2.01206e-17
2.15621e-17
-1.13397e-17
1.44514e-17
-4.81122e-18
9.29633e-18
-1.23143e-18
5.66284e-18
2.57423e-19
3.1532e-18
4.97139e-19
1.50527e-18
4.36949e-19
5.87471e-19
2.6412e-19
1.80304e-19
1.16748e-19
4.21533e-20
3.82048e-20
7.28994e-21
9.26173e-21
8.96894e-22
1.65139e-21
7.3003e-23
2.12381e-22
3.45017e-24
1.99579e-23
2.615e-26
1.28739e-24
-1.84358e-25
1.50661e-25
-3.51763e-24
1.59085e-24
1.40682e-23
-3.42312e-23
-2.16665e-41
3.18416e-44
-1.79106e-38
1.4233e-40
-3.67829e-36
5.17217e-38
-3.40105e-34
6.69493e-36
-1.79343e-32
4.4322e-34
-6.05739e-31
1.76564e-32
-1.41886e-29
4.56458e-31
-2.43836e-28
8.0061e-30
-3.20934e-27
9.61023e-29
-3.36333e-26
7.40142e-28
-2.91285e-25
2.19878e-27
-2.14209e-24
-3.55164e-25
-1.33616e-23
-6.38849e-24
-7.10344e-23
-6.14305e-23
-3.19683e-22
-4.41136e-22
-1.18486e-21
-2.55769e-21
-3.43513e-21
-1.22068e-20
-6.93785e-21
-4.8157e-20
-5.42243e-21
-1.56914e-19
1.05628e-20
-4.27957e-19
6.92458e-20
-1.0058e-18
2.57374e-19
-2.09495e-18
7.63715e-19
-4.06179e-18
1.97579e-18
-7.48039e-18
4.57987e-18
-1.29775e-17
9.4987e-18
-2.08557e-17
1.71718e-17
-2.93399e-17
3.12634e-17
-5.64502e-17
4.22237e-17
-6.94989e-17
8.89973e-17
-3.18161e-16
9.00271e-17
-2.49061e-16
7.5375e-17
-8.66729e-17
6.64077e-17
-5.11152e-17
5.51735e-17
-2.76353e-17
3.82857e-17
-1.30223e-17
2.64586e-17
-4.72482e-18
1.80008e-17
1.96284e-19
1.16176e-17
1.49309e-18
6.58195e-18
1.75089e-18
3.09132e-18
1.32342e-18
1.15349e-18
7.21024e-19
3.30585e-19
2.89599e-19
7.08243e-20
8.62256e-20
1.09933e-20
1.89937e-20
1.16581e-21
3.04285e-21
7.51878e-23
3.46289e-22
1.90758e-24
2.72132e-23
-6.45749e-25
1.74007e-24
-1.76418e-23
1.03562e-23
9.32876e-23
-1.83741e-22
-1.01229e-39
2.67072e-42
-7.26364e-37
7.97588e-39
-1.3239e-34
2.48649e-36
-1.09077e-32
2.83245e-34
-5.0801e-31
1.66237e-32
-1.51869e-29
5.84308e-31
-3.16268e-28
1.34413e-29
-4.85134e-27
2.13047e-28
-5.70788e-26
2.37316e-27
-5.32451e-25
1.80947e-26
-4.08656e-24
7.86829e-26
-2.68899e-23
-9.55435e-25
-1.51011e-22
-4.54087e-23
-7.27865e-22
-4.5099e-22
-2.98854e-21
-3.07107e-21
-1.01958e-20
-1.64281e-20
-2.78654e-20
-7.13246e-20
-5.70057e-20
-2.53898e-19
-7.24725e-20
-7.41477e-19
6.29538e-21
-1.79265e-18
1.93156e-19
-3.65704e-18
7.43987e-19
-6.62269e-18
2.08096e-18
-1.12637e-17
5.0192e-18
-1.85699e-17
1.08703e-17
-2.91705e-17
2.13339e-17
-4.28478e-17
3.56835e-17
-4.89287e-17
7.17015e-17
-1.16508e-16
9.06562e-17
-1.73666e-16
4.34291e-16
-2.964e-15
3.94725e-16
-1.47443e-15
1.77887e-16
8.26906e-17
1.51956e-16
-1.0688e-16
1.16997e-16
-5.83323e-17
8.06371e-17
-2.89727e-17
5.78212e-17
-1.23813e-17
4.38461e-17
-2.30213e-18
3.28232e-17
3.00548e-18
2.21059e-17
5.16316e-18
1.2516e-17
4.97597e-18
5.70199e-18
3.37733e-18
2.01776e-18
1.68292e-18
5.39931e-19
6.2233e-19
1.06285e-19
1.70938e-19
1.47052e-20
3.4477e-20
1.28508e-21
4.89123e-21
5.59744e-23
4.70504e-22
-6.0178e-25
2.77747e-23
-6.37316e-23
5.12214e-23
4.7931e-22
-7.57671e-22
-3.43298e-38
1.35443e-40
-2.16319e-35
3.12764e-37
-3.50632e-33
8.51492e-35
-2.55885e-31
8.58629e-33
-1.05883e-29
4.4514e-31
-2.82598e-28
1.39001e-29
-5.27593e-27
2.86648e-28
-7.28185e-26
4.11942e-27
-7.73211e-25
4.2337e-26
-6.51275e-24
3.08794e-25
-4.47942e-23
1.46045e-24
-2.62978e-22
2.16378e-24
-1.33408e-21
-2.31228e-22
-5.83104e-21
-2.60723e-21
-2.1794e-20
-1.71481e-20
-6.80537e-20
-8.53812e-20
-1.72497e-19
-3.40052e-19
-3.38099e-19
-1.10411e-18
-4.63874e-19
-2.93727e-18
-2.70657e-19
-6.42562e-18
3.64574e-19
-1.14317e-17
1.68656e-18
-1.79495e-17
4.52994e-18
-2.65776e-17
1.0295e-17
-3.90364e-17
2.09858e-17
-5.55397e-17
3.91302e-17
-7.49172e-17
5.90594e-17
-6.16588e-17
1.14491e-15
-9.44159e-16
3.96351e-15
-3.23094e-15
5.1942e-15
-4.45284e-15
2.49105e-15
-3.54924e-15
-6.2835e-18
-2.95735e-15
2.91974e-16
-4.11837e-16
2.06968e-16
-7.23874e-17
1.36549e-16
-5.06367e-17
9.76379e-17
-2.40138e-17
8.09143e-17
-8.31322e-18
7.02853e-17
3.48503e-18
5.60962e-17
1.09932e-17
3.81062e-17
1.37732e-17
2.11469e-17
1.17056e-17
9.26014e-18
7.281e-18
3.11106e-18
3.37205e-18
7.81101e-19
1.16626e-18
1.41078e-19
2.9871e-19
1.686e-20
5.46239e-20
1.1008e-21
6.6167e-21
1.78201e-23
4.75458e-22
-1.60836e-22
2.04695e-22
1.97613e-21
-2.46342e-21
-8.42971e-37
4.57786e-39
-4.69915e-34
8.70239e-36
-6.77954e-32
2.08899e-33
-4.41618e-30
1.86978e-31
-1.63943e-28
8.63949e-30
-3.94201e-27
2.42127e-28
-6.6547e-26
4.51383e-27
-8.33265e-25
5.9159e-26
-8.04992e-24
5.61539e-25
-6.18025e-23
3.8714e-24
-3.867e-22
1.84476e-23
-2.03609e-21
4.57845e-23
-9.36151e-21
-7.16083e-22
-3.71315e-20
-1.17498e-20
-1.2639e-19
-7.68383e-20
-3.614e-19
-3.60226e-19
-8.48524e-19
-1.33202e-18
-1.57733e-18
-4.019e-18
-2.1648e-18
-1.00541e-17
-1.72591e-18
-2.05341e-17
2.10925e-19
-3.16836e-17
2.86436e-18
-4.36592e-17
7.70019e-18
-5.6217e-17
1.67178e-17
-7.09599e-17
3.23997e-17
-9.05433e-17
5.70486e-17
-1.04571e-16
8.16547e-17
-8.00515e-17
4.40159e-15
-1.52482e-15
6.06865e-15
-5.15823e-15
5.14194e-15
-3.78462e-15
4.36673e-15
-3.02581e-15
4.52131e-15
-3.36434e-15
-3.29924e-16
-6.77661e-16
1.98425e-16
-9.82414e-17
1.83148e-16
-7.17716e-17
1.36025e-16
-3.92556e-17
1.20786e-16
-1.97222e-17
1.18122e-16
5.09935e-19
1.08867e-16
1.69887e-17
8.70566e-17
2.80821e-17
5.80691e-17
2.97527e-17
3.12254e-17
2.30218e-17
1.31215e-17
1.33446e-17
4.19332e-18
5.82027e-18
9.85156e-19
1.89824e-18
1.59487e-19
4.50483e-19
1.50962e-20
7.12468e-20
5.63041e-22
6.69443e-21
-2.30335e-22
8.36241e-22
6.7472e-21
-6.41886e-21
-1.48935e-35
1.06299e-37
-7.39838e-33
1.72116e-34
-9.57016e-31
3.67293e-32
-5.62209e-29
2.94254e-30
-1.89065e-27
1.22524e-28
-4.13378e-26
3.1127e-27
-6.3667e-25
5.29236e-26
-7.29487e-24
6.37169e-25
-6.46571e-23
5.61024e-24
-4.56354e-22
3.64711e-23
-2.62445e-21
1.70252e-22
-1.25825e-20
4.91547e-22
-5.25077e-20
-2.26149e-23
-1.896e-19
-4.02645e-20
-5.89359e-19
-2.75232e-19
-1.55237e-18
-1.23801e-18
-3.4143e-18
-4.33161e-18
-6.13345e-18
-1.25011e-17
-8.37362e-18
-3.06866e-17
-7.00541e-18
-5.68863e-17
-2.47922e-18
-7.35797e-17
2.81255e-18
-9.17028e-17
9.50869e-18
-1.1525e-16
2.0326e-17
-1.11796e-16
3.8643e-17
-1.24629e-16
5.99684e-17
-4.84472e-17
6.22683e-17
-1.32096e-16
4.50618e-15
-1.51783e-16
6.43209e-15
-2.64481e-15
5.37042e-15
-2.97776e-15
4.14248e-15
-2.05576e-15
1.36293e-15
-1.50565e-15
-2.69399e-16
-1.73307e-16
2.22147e-16
-1.09771e-16
3.51179e-16
-8.63763e-17
1.70822e-16
-7.61106e-17
1.76188e-16
-3.8576e-17
1.81285e-16
-8.6217e-18
1.76347e-16
2.03566e-17
1.56303e-16
4.42715e-17
1.20711e-16
5.69372e-17
7.78472e-17
5.37568e-17
4.03095e-17
3.85246e-17
1.62303e-17
2.10306e-17
4.91496e-18
8.69379e-18
1.05948e-18
2.66037e-18
1.43237e-19
5.61021e-19
9.02066e-21
7.06548e-20
5.09083e-23
5.43949e-21
1.96293e-20
-1.34012e-20
-1.88409e-34
1.71624e-36
-8.42445e-32
2.41924e-33
-9.87342e-30
4.63818e-31
-5.28226e-28
3.36306e-29
-1.62436e-26
1.27491e-27
-3.25886e-25
2.96421e-26
-4.61945e-24
4.63702e-25
-4.88434e-23
5.16752e-24
-4.00435e-22
4.2447e-23
-2.61926e-21
2.60599e-22
-1.39722e-20
1.17848e-21
-6.19883e-20
3.5916e-21
-2.35448e-19
4.01814e-21
-7.79088e-19
-9.99704e-20
-2.22911e-18
-7.86799e-19
-5.48086e-18
-3.49493e-18
-1.15512e-17
-1.18252e-17
-2.07454e-17
-3.3295e-17
-2.69523e-17
-8.05711e-17
-2.15525e-17
-8.57751e-17
-1.31528e-17
-1.2854e-16
-5.36856e-18
-1.16314e-16
3.47444e-18
-2.33119e-16
1.44238e-17
-1.46134e-16
3.68674e-17
-1.45636e-16
4.27268e-17
-1.50501e-16
6.19251e-17
-6.77395e-17
7.1978e-17
-1.62921e-16
1.05473e-15
-1.30808e-16
2.39289e-15
-1.07273e-16
1.81619e-15
-1.03462e-16
2.3391e-16
-1.2053e-16
2.0675e-16
-1.39543e-16
2.23289e-16
-1.32683e-16
2.31629e-16
-1.10122e-16
2.33327e-16
-8.34291e-17
2.45022e-16
-5.76856e-17
2.50552e-16
-2.14354e-17
2.48421e-16
1.91048e-17
2.33253e-16
5.72825e-17
1.99571e-16
8.65404e-17
1.48838e-16
9.65263e-17
9.24013e-17
8.33911e-17
4.59081e-17
5.58867e-17
1.75946e-17
2.88227e-17
4.94009e-18
1.12016e-17
9.19419e-19
3.09879e-18
8.82966e-20
5.24314e-19
2.32812e-21
4.64122e-20
5.00125e-20
-2.1406e-20
-1.71397e-33
1.9492e-35
-6.96403e-31
2.43456e-32
-7.46604e-29
4.23505e-30
-3.67086e-27
2.80721e-28
-1.04128e-25
9.78026e-27
-1.93302e-24
2.09958e-25
-2.54209e-23
3.04657e-24
-2.49939e-22
3.16525e-23
-1.90924e-21
2.43941e-22
-1.16566e-20
1.41851e-21
-5.81166e-20
6.18681e-21
-2.40803e-19
1.91342e-20
-8.4498e-19
3.14988e-20
-2.59165e-18
-1.5856e-19
-6.9174e-18
-1.79778e-18
-1.61254e-17
-8.06753e-18
-3.30499e-17
-2.6325e-17
-5.85142e-17
-6.9632e-17
-4.49386e-17
-1.74578e-16
-4.69688e-17
-3.4978e-17
-2.82428e-17
-4.85111e-16
-4.50134e-17
-1.1961e-16
-2.20596e-17
-3.87597e-16
-1.78067e-18
-1.58265e-16
1.5288e-17
-1.55411e-16
3.00043e-17
-1.66999e-16
3.97438e-17
-1.82102e-16
5.66607e-17
-1.78666e-16
8.40068e-17
-1.63325e-16
1.24871e-16
-1.53306e-16
1.70878e-16
-1.54716e-16
2.12054e-16
-1.70092e-16
2.40635e-16
-1.78623e-16
2.62483e-16
-1.65668e-16
2.73743e-16
-1.28376e-16
2.79618e-16
-5.13892e-17
3.05251e-16
-7.71809e-17
3.17694e-16
-3.93188e-17
3.18853e-16
1.23838e-17
3.08311e-16
6.45332e-17
2.80654e-16
1.11972e-16
2.31876e-16
1.42057e-16
1.66147e-16
1.42667e-16
9.87159e-17
1.13774e-16
4.66069e-17
7.12723e-17
1.65752e-17
3.43437e-17
4.06756e-18
1.20899e-17
5.64424e-19
2.73091e-18
2.81732e-20
3.21325e-19
1.20061e-19
-2.05517e-20
-1.13341e-32
1.58169e-34
-4.22621e-30
1.77713e-31
-4.1826e-28
2.83405e-29
-1.90642e-26
1.73365e-27
-5.02986e-25
5.60057e-26
-8.70841e-24
1.1194e-24
-1.07052e-22
1.5183e-23
-9.85811e-22
1.48078e-22
-7.06601e-21
1.07688e-21
-4.05573e-20
5.95393e-21
-1.90505e-19
2.50314e-20
-7.45022e-19
7.71847e-20
-2.46236e-18
1.47936e-19
-7.05508e-18
-4.85772e-20
-1.75676e-17
-3.08445e-18
-3.8366e-17
-1.395e-17
-7.37909e-17
-4.03578e-17
-1.35379e-16
-6.76692e-17
-2.36045e-16
-3.6623e-16
-9.92012e-16
-5.99174e-15
-1.42538e-15
-4.92418e-15
-6.58987e-16
-3.38515e-15
-3.76795e-17
-7.82445e-16
-1.32735e-17
-1.5522e-16
2.3187e-18
-1.69498e-16
1.52966e-17
-1.86699e-16
2.85621e-17
-2.0212e-16
4.94278e-17
-2.03755e-16
8.27422e-17
-2.02276e-16
1.31202e-16
-2.071e-16
1.88257e-16
-2.23245e-16
2.42609e-16
-2.42257e-16
2.85718e-16
-2.4006e-16
3.13927e-16
-2.15835e-16
3.56633e-16
-1.76882e-16
2.75769e-16
-1.71461e-16
3.50968e-16
-1.07017e-16
3.82175e-16
-6.26315e-17
3.90957e-16
-9.44518e-19
3.85141e-16
6.67045e-17
3.61568e-16
1.32893e-16
3.16848e-16
1.84882e-16
2.50513e-16
2.06711e-16
1.71199e-16
1.88396e-16
9.64606e-17
1.38509e-16
4.21895e-17
8.04866e-17
1.31584e-17
3.50517e-17
2.48666e-18
1.02298e-17
1.95289e-19
1.59598e-18
3.05757e-19
2.68971e-21
-5.54602e-32
9.36342e-34
-1.91648e-29
9.59685e-31
-1.76707e-27
1.4176e-28
-7.53238e-26
8.0791e-27
-1.86409e-24
2.44179e-25
-3.03445e-23
4.58248e-24
-3.51396e-22
5.85579e-23
-3.05291e-21
5.39973e-22
-2.06679e-20
3.72809e-21
-1.12113e-19
1.96781e-20
-4.97605e-19
7.97185e-20
-1.8357e-18
2.41864e-19
-5.69263e-18
4.93046e-19
-1.49499e-17
2.94783e-19
-3.34919e-17
-3.8454e-18
-6.22544e-17
-1.84133e-17
-7.46725e-17
-4.90115e-17
-6.85261e-17
-1.01961e-16
-3.58216e-15
-2.66691e-15
-3.07661e-15
-6.72298e-15
-2.24334e-15
-5.96213e-15
-6.8252e-16
-5.14654e-15
-2.17896e-17
-6.86855e-16
-1.05187e-17
-1.74448e-16
-1.69035e-18
-1.89535e-16
6.62096e-18
-2.06051e-16
2.10725e-17
-2.26461e-16
4.47796e-17
-2.30681e-16
8.25712e-17
-2.49519e-16
1.36133e-16
-2.65971e-16
2.05652e-16
-3.18243e-16
2.80912e-16
-3.69478e-16
3.40576e-16
-3.33598e-16
3.80425e-16
-3.14076e-16
3.93074e-16
-2.38693e-16
3.83836e-16
-1.70042e-16
4.06836e-16
-1.41428e-16
4.31966e-16
-8.82248e-17
4.55762e-16
-2.25248e-17
4.6234e-16
6.32116e-17
4.45974e-16
1.51058e-16
4.04232e-16
2.26796e-16
3.3871e-16
2.71845e-16
2.55368e-16
2.70639e-16
1.65929e-16
2.24092e-16
8.65995e-17
1.52414e-16
3.32097e-17
8.00055e-17
8.12063e-18
2.91668e-17
9.10755e-19
5.88608e-18
8.85546e-19
3.50835e-20
-2.05136e-31
4.14334e-33
-6.62832e-29
3.92367e-30
-5.73965e-27
5.42026e-28
-2.30404e-25
2.90192e-26
-5.379e-24
8.26376e-25
-8.26789e-23
1.46446e-23
-9.04217e-22
1.77027e-22
-7.41461e-21
1.54652e-21
-4.73061e-20
1.0131e-20
-2.41226e-19
5.08381e-20
-1.00289e-18
1.96564e-19
-3.45114e-18
5.75328e-19
-9.9396e-18
1.17865e-18
-2.40377e-17
1.09731e-18
-4.83155e-17
-4.04196e-18
-7.76107e-17
-2.2457e-17
-1.07983e-16
-5.82345e-17
-3.44471e-16
-9.58173e-17
-2.27586e-15
-3.73819e-15
-2.26123e-15
-6.97643e-15
-1.64906e-15
-6.81604e-15
-5.42759e-16
-2.54346e-15
-1.06946e-17
-2.02364e-16
-6.50288e-18
-1.96716e-16
-6.71062e-18
-2.06716e-16
-3.78734e-18
-2.22173e-16
9.94571e-18
-2.5167e-16
5.18836e-17
-2.77177e-16
7.54294e-17
-3.78706e-16
1.37856e-16
-3.33005e-16
2.30785e-16
-3.90181e-16
3.53784e-16
-6.51934e-16
4.14611e-16
-4.34375e-16
5.1562e-16
-8.30487e-16
5.08674e-16
-6.16253e-16
4.53211e-16
-1.37246e-16
5.2324e-16
-2.45238e-16
4.89461e-16
-1.659e-16
5.19306e-16
-5.1483e-17
5.35145e-16
5.29035e-17
5.18312e-16
1.60747e-16
4.72181e-16
2.56537e-16
4.09335e-16
3.24003e-16
3.33527e-16
3.4299e-16
2.45875e-16
3.10401e-16
1.50225e-16
2.42627e-16
6.90606e-17
1.50892e-16
2.09638e-17
6.68692e-17
3.16026e-18
1.70678e-17
2.58628e-18
1.75017e-19
-5.88785e-31
1.40864e-32
-1.79728e-28
1.24926e-29
-1.47581e-26
1.63184e-27
-5.6289e-25
8.28942e-26
-1.24981e-23
2.24425e-24
-1.82745e-22
3.78615e-23
-1.90044e-21
4.36088e-22
-1.48036e-20
3.63249e-21
-8.95808e-20
2.2705e-20
-4.32358e-19
1.08847e-19
-1.69719e-18
4.0323e-19
-5.49879e-18
1.13983e-18
-1.48512e-17
2.31487e-18
-3.34314e-17
2.53845e-18
-6.17499e-17
-3.56768e-18
-8.99677e-17
-2.69868e-17
-9.41606e-17
-8.07738e-17
-4.36633e-17
-1.75535e-16
-1.18383e-15
-4.79701e-16
-1.72973e-15
-3.041e-16
-5.48867e-16
-3.33108e-16
-1.83875e-17
-2.44877e-16
-1.13565e-17
-2.34553e-16
-1.36196e-17
-2.22864e-16
-2.25145e-17
-2.21833e-16
-2.54409e-17
-2.4229e-16
-1.0543e-17
-2.75404e-16
2.30704e-17
-3.20063e-16
7.80315e-17
-4.39844e-16
1.435e-16
-4.02664e-16
2.32227e-16
-5.0036e-16
1.48691e-15
-2.58e-15
6.81425e-15
-9.11596e-15
7.46339e-15
-7.3371e-15
5.08276e-15
-5.44686e-15
2.3768e-15
-3.93919e-15
5.32318e-16
-4.23254e-15
6.31659e-16
-1.8268e-16
5.81023e-16
-1.03049e-16
8.92596e-16
4.83707e-17
6.75173e-16
1.82298e-16
5.59602e-16
2.92363e-16
4.43944e-16
3.49326e-16
3.70972e-16
3.71995e-16
3.11101e-16
3.61233e-16
2.24013e-16
3.27248e-16
1.22366e-16
2.42161e-16
4.48707e-17
1.28783e-16
8.64974e-18
4.05222e-17
6.912e-18
6.42405e-19
-1.34174e-30
3.76826e-32
-3.91517e-28
3.17653e-29
-3.08331e-26
3.97377e-27
-1.12931e-24
1.93767e-25
-2.40867e-23
5.04126e-24
-3.38232e-22
8.17734e-23
-3.37583e-21
9.05859e-22
-2.52137e-20
7.25906e-21
-1.46109e-19
4.36724e-20
-6.74098e-19
2.01742e-19
-2.52234e-18
7.21961e-19
-7.75413e-18
1.98342e-18
-1.97646e-17
3.99134e-18
-4.21842e-17
4.85676e-18
-7.74406e-17
-1.73111e-18
-1.24228e-16
-3.17233e-17
-1.70209e-16
-9.04912e-17
-1.60082e-16
-1.53708e-16
-1.50784e-16
-4.5901e-16
-1.20639e-16
-3.03421e-16
-8.69603e-17
-3.35675e-16
-4.7046e-17
-3.2699e-16
-3.52636e-17
-2.81189e-16
-4.52666e-17
-2.62967e-16
-6.26927e-17
-2.35549e-16
-6.5694e-17
-3.30015e-16
-4.37118e-17
-2.95302e-16
-1.13188e-19
-3.74901e-16
7.65468e-17
-5.71215e-16