/*--------------------------------*- C++ -*----------------------------------*\
| =========                 |                                                 |
| \\      /  F ield         | OpenFOAM: The Open Source CFD Toolbox           |
|  \\    /   O peration     | Version:  2.4.0                                 |
|   \\  /    A nd           | Web:      www.OpenFOAM.org                      |
|    \\/     M anipulation  |                                                 |
\*---------------------------------------------------------------------------*/
FoamFile
{
    version     2.0;
    format      ascii;
    class       surfaceScalarField;
    location    "0.004";
    object      phiAlpha;
}
// * * * * * * * * * * * * * * * * * * * * * * * * * * * * * * * * * * * * * //

dimensions      [0 3 -1 0 0 0 0];

internalField   nonuniform List<scalar> 
28560
(
-1.66967e-10
3.56335e-10
-1.89368e-10
3.60099e-10
-5.82621e-10
2.22522e-10
8.79776e-10
-1.24501e-09
3.65235e-10
1.74133e-09
-2.3467e-09
6.0537e-10
3.15398e-09
-4.11501e-09
9.61031e-10
5.36416e-09
-6.81214e-09
1.44799e-09
8.64619e-09
-1.07181e-08
2.07187e-09
1.32774e-08
-1.60976e-08
2.82017e-09
1.94977e-08
-2.31539e-08
3.65626e-09
2.74558e-08
-3.19676e-08
4.51185e-09
3.71437e-08
-4.24296e-08
5.28592e-09
4.83281e-08
-5.41753e-08
5.84722e-09
6.04982e-08
-6.6555e-08
6.05685e-09
7.28675e-08
-7.86701e-08
5.80262e-09
8.44462e-08
-8.94822e-08
5.03595e-09
9.41921e-08
-9.79931e-08
3.80098e-09
1.01204e-07
-1.03435e-07
2.23015e-09
1.04887e-07
-1.05399e-07
5.12072e-10
1.05044e-07
-1.03884e-07
-1.16023e-09
1.01856e-07
-9.92276e-08
-2.62809e-09
9.5806e-08
-9.20146e-08
-3.79141e-09
8.75463e-08
-8.29329e-08
-4.61333e-09
7.77757e-08
-7.26663e-08
-5.1094e-09
6.71397e-08
-6.18176e-08
-5.32218e-09
5.61896e-08
-5.08708e-08
-5.31881e-09
4.53434e-08
-4.01937e-08
-5.14974e-09
3.49049e-08
-3.00279e-08
-4.87696e-09
2.50683e-08
-2.05304e-08
-4.53791e-09
1.59471e-08
-1.17779e-08
-4.1692e-09
7.58616e-09
-3.79601e-09
-3.79014e-09
-5.4651e-10
7.36275e-10
-1.89766e-10
4.10015e-10
-6.63358e-10
-4.74882e-10
7.28225e-10
1.00169e-09
-1.41755e-09
-7.79504e-10
1.19537e-09
1.98272e-09
-2.67208e-09
-1.29205e-09
1.98142e-09
3.59148e-09
-4.68608e-09
-2.05134e-09
3.14595e-09
6.10907e-09
-7.75886e-09
-3.09124e-09
4.74103e-09
9.84905e-09
-1.22109e-08
-4.42407e-09
6.78591e-09
1.51295e-08
-1.83468e-08
-6.02381e-09
9.24115e-09
2.22277e-08
-2.64035e-08
-7.81318e-09
1.19889e-08
3.132e-08
-3.64805e-08
-9.64704e-09
1.48076e-08
4.24061e-08
-4.84637e-08
-1.13104e-08
1.7368e-08
5.52313e-08
-6.19489e-08
-1.25228e-08
1.92404e-08
6.92236e-08
-7.62033e-08
-1.29857e-08
1.99654e-08
8.349e-08
-9.02005e-08
-1.24554e-08
1.91659e-08
9.68935e-08
-1.02741e-07
-1.08236e-08
1.66714e-08
1.08224e-07
-1.1266e-07
-8.18133e-09
1.26175e-08
1.16421e-07
-1.19046e-07
-4.81106e-09
7.43659e-09
1.20774e-07
-1.21409e-07
-1.11936e-09
1.75446e-09
1.2104e-07
-1.19733e-07
2.47559e-09
-3.78231e-09
1.1742e-07
-1.14406e-07
5.63105e-09
-8.64414e-09
1.10473e-07
-1.06108e-07
8.12993e-09
-1.24947e-08
1.00959e-07
-9.56408e-08
9.89334e-09
-1.5212e-08
8.9693e-08
-8.37996e-08
1.09561e-08
-1.68495e-08
7.74243e-08
-7.12852e-08
1.14101e-08
-1.75491e-08
6.47927e-08
-5.86581e-08
1.1401e-08
-1.75357e-08
5.22827e-08
-4.63437e-08
1.10368e-08
-1.69758e-08
4.02443e-08
-3.46211e-08
1.045e-08
-1.60732e-08
2.89018e-08
-2.36696e-08
9.72347e-09
-1.49556e-08
1.83849e-08
-1.35783e-08
8.93255e-09
-1.37391e-08
8.74537e-09
-4.37644e-09
8.12002e-09
-1.24889e-08
-9.25557e-10
1.11421e-09
-1.88652e-10
4.08222e-10
-6.60446e-10
-9.81118e-10
1.23334e-09
9.97278e-10
-1.41129e-09
-1.61055e-09
2.02456e-09
1.97395e-09
-2.66026e-09
-2.66956e-09
3.35587e-09
3.5756e-09
-4.6654e-09
-4.23857e-09
5.32838e-09
6.0822e-09
-7.72488e-09
-6.38798e-09
8.03067e-09
9.8062e-09
-1.21582e-08
-9.14381e-09
1.14959e-08
1.50651e-08
-1.827e-08
-1.24535e-08
1.56584e-08
2.21368e-08
-2.62986e-08
-1.61593e-08
2.03211e-08
3.12006e-08
-3.63485e-08
-1.99634e-08
2.51113e-08
4.22635e-08
-4.83153e-08
-2.3424e-08
2.94758e-08
5.50833e-08
-6.18099e-08
-2.59628e-08
3.26894e-08
6.91054e-08
-7.6118e-08
-2.69602e-08
3.39728e-08
8.3455e-08
-9.02296e-08
-2.59046e-08
3.26791e-08
9.70076e-08
-1.02952e-07
-2.25611e-08
2.85055e-08
1.0855e-07
-1.13108e-07
-1.71056e-08
2.16633e-08
1.17005e-07
-1.19762e-07
-1.01178e-08
1.28747e-08
1.21626e-07
-1.22383e-07
-2.44105e-09
3.19832e-09
1.22132e-07
-1.20922e-07
5.04872e-09
-6.2587e-09
1.18692e-07
-1.15739e-07
1.16326e-08
-1.45857e-08
1.11847e-07
-1.07502e-07
1.68522e-08
-2.11976e-08
1.02353e-07
-9.70161e-08
2.05392e-08
-2.58762e-08
9.10316e-08
-8.50888e-08
2.27647e-08
-2.87074e-08
7.86487e-08
-7.2438e-08
2.37191e-08
-2.99299e-08
6.58622e-08
-5.96417e-08
2.37072e-08
-2.99277e-08
5.31722e-08
-4.7141e-08
2.29541e-08
-2.89853e-08
4.09436e-08
-3.52272e-08
2.17364e-08
-2.74528e-08
2.9411e-08
-2.40885e-08
2.02264e-08
-2.55488e-08
1.87114e-08
-1.382e-08
1.85821e-08
-2.34735e-08
8.90174e-09
-4.45452e-09
1.68918e-08
-2.1339e-08
-1.30218e-09
1.4892e-09
-1.8702e-10
4.05276e-10
-6.55662e-10
-1.48472e-09
1.7351e-09
9.90026e-10
-1.40101e-09
-2.43721e-09
2.84819e-09
1.95954e-09
-2.64084e-09
-4.03989e-09
4.72118e-09
3.5495e-09
-4.6314e-09
-6.41457e-09
7.49647e-09
6.03799e-09
-7.66896e-09
-9.66808e-09
1.1299e-08
9.73564e-09
-1.20715e-08
-1.38405e-08
1.61763e-08
1.49588e-08
-1.8143e-08
-1.8854e-08
2.20382e-08
2.19862e-08
-2.61245e-08
-2.44723e-08
2.86106e-08
3.10018e-08
-3.61279e-08
-3.02494e-08
3.53755e-08
4.20238e-08
-4.80639e-08
-3.55223e-08
4.15624e-08
5.48296e-08
-6.15674e-08
-3.94211e-08
4.61589e-08
6.88926e-08
-7.59542e-08
-4.10077e-08
4.80694e-08
8.33679e-08
-9.02415e-08
-3.94987e-08
4.63722e-08
9.71522e-08
-1.03249e-07
-3.45189e-08
4.06155e-08
1.09032e-07
-1.13784e-07
-2.63089e-08
3.10606e-08
1.17898e-07
-1.20867e-07
-1.57275e-08
1.86966e-08
1.22952e-07
-1.2391e-07
-4.046e-09
5.0034e-09
1.23851e-07
-1.22801e-07
7.39626e-09
-8.44576e-09
1.20711e-07
-1.17859e-07
1.74934e-08
-2.03455e-08
1.14039e-07
-1.09729e-07
2.55273e-08
-2.98373e-08
1.04584e-07
-9.9221e-08
3.12253e-08
-3.65886e-08
9.31804e-08
-8.71606e-08
3.46852e-08
-4.0705e-08
8.06181e-08
-7.42936e-08
3.61922e-08
-4.25168e-08
6.75839e-08
-6.12267e-08
3.62099e-08
-4.25671e-08
5.46058e-08
-4.84268e-08
3.50831e-08
-4.12622e-08
4.20715e-08
-3.62051e-08
3.3237e-08
-3.91034e-08
3.02326e-08
-2.47647e-08
3.09368e-08
-3.64046e-08
1.92388e-08
-1.42106e-08
2.84263e-08
-3.34545e-08
9.15335e-09
-4.58068e-09
2.58426e-08
-3.04153e-08
-1.67524e-09
1.86015e-09
-1.84908e-10
4.0123e-10
-6.49093e-10
-1.98431e-09
2.23217e-09
9.80069e-10
-1.38688e-09
-3.25727e-09
3.66408e-09
1.93976e-09
-2.61417e-09
-5.39924e-09
6.07364e-09
3.51367e-09
-4.58471e-09
-8.57322e-09
9.64426e-09
5.97728e-09
-7.59215e-09
-1.29224e-08
1.45373e-08
9.63871e-09
-1.19522e-08
-1.85016e-08
2.08151e-08
1.48127e-08
-1.79684e-08
-2.5209e-08
2.83647e-08
2.1779e-08
-2.58848e-08
-3.27335e-08
3.68393e-08
3.07277e-08
-3.58233e-08
-4.04871e-08
4.55827e-08
4.16921e-08
-4.77151e-08
-4.75944e-08
5.36174e-08
5.44764e-08
-6.12279e-08
-5.29029e-08
5.96544e-08
6.85918e-08
-7.57186e-08
-5.51612e-08
6.2288e-08
8.32352e-08
-9.02427e-08
-5.3308e-08
6.03155e-08
9.73338e-08
-1.03638e-07
-4.68087e-08
5.31133e-08
1.09675e-07
-1.14695e-07
-3.59367e-08
4.09563e-08
1.19111e-07
-1.22375e-07
-2.18026e-08
2.50672e-08
1.2477e-07
-1.26009e-07
-6.09053e-09
7.32894e-09
1.26221e-07
-1.25399e-07
9.3904e-09
-1.02125e-08
1.23507e-07
-1.20801e-07
2.31305e-08
-2.58368e-08
1.17087e-07
-1.12831e-07
3.41224e-08
-3.83785e-08
1.07695e-07
-1.02299e-07
4.19675e-08
-4.73639e-08
9.61833e-08
-9.00583e-08
4.67735e-08
-5.28984e-08
8.33748e-08
-7.68927e-08
4.89144e-08
-5.53965e-08
6.99972e-08
-6.34491e-08
4.90125e-08
-5.55606e-08
5.66169e-08
-5.02309e-08
4.75367e-08
-5.39228e-08
4.36544e-08
-3.75778e-08
4.50667e-08
-5.11434e-08
3.13864e-08
-2.57143e-08
4.19666e-08
-4.76387e-08
1.99792e-08
-1.4759e-08
3.85715e-08
-4.37917e-08
9.50727e-09
-4.75795e-09
3.50694e-08
-3.98187e-08
-2.04385e-09
2.22613e-09
-1.82286e-10
3.96084e-10
-6.40736e-10
-2.47851e-09
2.72316e-09
9.67402e-10
-1.36891e-09
-4.06839e-09
4.4699e-09
1.91459e-09
-2.58023e-09
-6.7439e-09
7.40954e-09
3.46808e-09
-4.52531e-09
-1.07088e-08
1.1766e-08
5.90002e-09
-7.49439e-09
-1.61425e-08
1.77369e-08
9.5153e-09
-1.18004e-08
-2.31152e-08
2.54003e-08
1.46266e-08
-1.77459e-08
-3.15034e-08
3.46227e-08
2.15147e-08
-2.55787e-08
-4.09255e-08
4.49895e-08
3.03773e-08
-3.54331e-08
-5.06596e-08
5.57154e-08
4.12661e-08
-4.72657e-08
-5.96297e-08
6.56292e-08
5.40189e-08
-6.07852e-08
-6.64134e-08
7.31797e-08
6.81948e-08
-7.54009e-08
-6.94529e-08
7.6659e-08
8.30445e-08
-9.02186e-08
-6.74024e-08
7.45766e-08
9.75359e-08
-1.04103e-07
-5.95426e-08
6.611e-08
1.10462e-07
-1.15825e-07
-4.61378e-08
5.15e-08
1.20629e-07
-1.24276e-07
-2.8512e-08
3.21589e-08
1.27074e-07
-1.28681e-07
-8.74031e-09
1.03477e-08
1.29248e-07
-1.2873e-07
1.08933e-08
-1.14118e-08
1.27104e-07
-1.24595e-07
2.84516e-08
-3.09606e-08
1.21027e-07
-1.16849e-07
4.25992e-08
-4.67775e-08
1.11733e-07
-1.063e-07
5.27786e-08
-5.82117e-08
1.00093e-07
-9.38353e-08
5.90865e-08
-6.53437e-08
8.6972e-08
-8.02872e-08
6.19742e-08
-6.86591e-08
7.31515e-08
-6.6356e-08
6.22253e-08
-6.90208e-08
5.92488e-08
-5.2593e-08
6.04357e-08
-6.70916e-08
4.57278e-08
-3.93763e-08
5.73492e-08
-6.37007e-08
3.28984e-08
-2.6959e-08
5.34363e-08
-5.93756e-08
2.095e-08
-1.54779e-08
4.91303e-08
-5.46023e-08
9.97127e-09
-4.99032e-09
4.46768e-08
-4.96578e-08
-2.40692e-09
2.58609e-09
-1.79166e-10
3.89922e-10
-6.30729e-10
-2.96599e-09
3.2068e-09
9.52232e-10
-1.34739e-09
-4.86843e-09
5.26359e-09
1.88445e-09
-2.53959e-09
-8.07021e-09
8.72534e-09
3.41347e-09
-4.45414e-09
-1.28153e-08
1.3856e-08
5.80747e-09
-7.37727e-09
-1.93196e-08
2.08894e-08
9.36742e-09
-1.16184e-08
-2.76691e-08
2.992e-08
1.44034e-08
-1.7479e-08
-3.77212e-08
4.07968e-08
2.11975e-08
-2.52111e-08
-4.90296e-08
5.30432e-08
2.9956e-08
-3.49632e-08
-6.07482e-08
6.57555e-08
4.07522e-08
-4.6722e-08
-7.16151e-08
7.75849e-08
5.34635e-08
-6.0245e-08
-7.99539e-08
8.67354e-08
6.77067e-08
-7.50051e-08
-8.391e-08
9.12084e-08
8.27984e-08
-9.01709e-08
-8.18464e-08
8.9219e-08
9.77595e-08
-1.04644e-07
-7.28295e-08
7.97141e-08
1.11396e-07
-1.17177e-07
-5.70626e-08
6.28445e-08
1.22461e-07
-1.26582e-07
-3.60313e-08
4.01527e-08
1.29882e-07
-1.31953e-07
-1.21744e-08
1.42447e-08
1.32974e-07
-1.3284e-07
1.1749e-08
-1.18828e-08
1.31559e-07
-1.29308e-07
3.33489e-08
-3.56e-08
1.25934e-07
-1.21864e-07
5.0906e-08
-5.49756e-08
1.16785e-07
-1.11315e-07
6.36637e-08
-6.91336e-08
1.05e-07
-9.85837e-08
7.16775e-08
-7.80943e-08
9.15001e-08
-8.45647e-08
7.54634e-08
-8.23988e-08
7.71299e-08
-7.0025e-08
7.59631e-08
-8.3068e-08
6.25732e-08
-5.55782e-08
7.3908e-08
-8.09031e-08
4.83494e-08
-4.16514e-08
7.02163e-08
-7.69143e-08
3.48115e-08
-2.85343e-08
6.54747e-08
-7.17518e-08
2.21788e-08
-1.63882e-08
6.02253e-08
-6.60159e-08
1.05588e-08
-5.28465e-09
5.47773e-08
-6.00515e-08
-2.76357e-09
2.93916e-09
-1.75585e-10
3.82691e-10
-6.18984e-10
-3.4454e-09
3.6817e-09
9.34429e-10
-1.32213e-09
-5.65512e-09
6.04282e-09
1.84907e-09
-2.49188e-09
-9.3745e-09
1.00173e-08
3.34936e-09
-4.3706e-09
-1.48872e-08
1.59084e-08
5.6988e-09
-7.23972e-09
-2.24452e-08
2.39861e-08
9.19372e-09
-1.14045e-08
-3.21515e-08
3.43623e-08
1.41411e-08
-1.71649e-08
-4.38473e-08
4.68712e-08
2.08239e-08
-2.47776e-08
-5.70277e-08
6.09814e-08
2.94582e-08
-3.44068e-08
-7.07345e-08
7.56831e-08
4.01415e-08
-4.60732e-08
-8.35364e-08
8.94681e-08
5.27964e-08
-5.95904e-08
-9.35231e-08
1.00317e-07
6.71066e-08
-7.45061e-08
-9.85559e-08
1.05955e-07
8.24672e-08
-9.00654e-08
-9.67006e-08
1.04299e-07
9.79661e-08
-1.05219e-07
-8.67762e-08
9.40293e-08
1.12431e-07
-1.1871e-07
-6.88646e-08
7.51433e-08
1.24565e-07
-1.29258e-07
-4.45471e-08
4.924e-08
1.33169e-07
-1.35806e-07
-1.65844e-08
1.92214e-08
1.3739e-07
-1.37737e-07
1.17878e-08
-1.14413e-08
1.36891e-07
-1.34971e-07
3.76954e-08
-3.96154e-08
1.31852e-07
-1.27932e-07
5.8976e-08
-6.28959e-08
1.22914e-07
-1.17414e-07
7.4619e-08
-8.01186e-08
1.10983e-07
-1.04383e-07
8.45996e-08
-9.12001e-08
9.70394e-08
-8.98045e-08
8.94773e-08
-9.67121e-08
8.20095e-08
-7.45296e-08
9.03515e-08
-9.78314e-08
6.66579e-08
-5.92488e-08
8.8095e-08
-9.55041e-08
5.15749e-08
-4.44517e-08
8.38141e-08
-9.09373e-08
3.71671e-08
-3.04746e-08
7.8226e-08
-8.49185e-08
2.3693e-08
-1.75101e-08
7.19925e-08
-7.81754e-08
1.12828e-08
-5.64749e-09
6.54967e-08
-7.1132e-08
-3.11275e-09
3.28427e-09
-1.71521e-10
3.74412e-10
-6.05536e-10
-3.9155e-09
4.14663e-09
9.14042e-10
-1.29321e-09
-6.42643e-09
6.8056e-09
1.80856e-09
-2.43724e-09
-1.06533e-08
1.1282e-08
3.27595e-09
-4.27491e-09
-1.69189e-08
1.79178e-08
5.57431e-09
-7.08212e-09
-2.5511e-08
2.70188e-08
8.99464e-09
-1.11593e-08
-3.65508e-08
3.87154e-08
1.38401e-08
-1.68044e-08
-4.98663e-08
5.28306e-08
2.03945e-08
-2.42786e-08
-6.49016e-08
6.87856e-08
2.88841e-08
-3.37635e-08
-8.05987e-08
8.54781e-08
3.94328e-08
-4.53167e-08
-9.53774e-08
1.01261e-07
5.20133e-08
-5.88148e-08
-1.07116e-07
1.13917e-07
6.63847e-08
-7.38907e-08
-1.13408e-07
1.20914e-07
8.20337e-08
-8.9881e-08
-1.12019e-07
1.19867e-07
9.81309e-08
-1.05801e-07
-1.01485e-07
1.09156e-07
1.1354e-07
-1.20393e-07
-8.16997e-08
8.85533e-08
1.26917e-07
-1.32284e-07
-5.42571e-08
5.96249e-08
1.36924e-07
-1.40244e-07
-2.21845e-08
2.55043e-08
1.42512e-07
-1.43451e-07
1.08119e-08
-9.87216e-09
1.43148e-07
-1.41647e-07
4.13378e-08
-4.28382e-08
1.3886e-07
-1.35144e-07
6.67212e-08
-7.0437e-08
1.30224e-07
-1.2471e-07
8.56283e-08
-9.11426e-08
1.18158e-07
-1.11352e-07
9.79009e-08
-1.04707e-07
1.03709e-07
-9.61241e-08
1.04116e-07
-1.11701e-07
8.79029e-08
-7.99763e-08
1.05526e-07
-1.13452e-07
7.1602e-08
-6.3695e-08
1.03151e-07
-1.11058e-07
5.54847e-08
-4.78478e-08
9.83058e-08
-1.05943e-07
4.00257e-08
-3.28298e-08
9.1851e-08
-9.90468e-08
2.5531e-08
-1.88719e-08
8.45856e-08
-9.12446e-08
1.21621e-08
-6.08782e-09
7.69762e-08
-8.30505e-08
-3.45362e-09
3.62061e-09
-1.6699e-10
3.65175e-10
-5.90531e-10
-4.37497e-09
4.60033e-09
8.91293e-10
-1.26093e-09
-7.18012e-09
7.54975e-09
1.76334e-09
-2.37627e-09
-1.19031e-08
1.2516e-08
3.194e-09
-4.16809e-09
-1.89047e-08
1.98788e-08
5.43533e-09
-6.90614e-09
-2.85087e-08
2.99795e-08
8.77227e-09
-1.08853e-08
-4.08551e-08
4.29681e-08
1.35036e-08
-1.6401e-08
-5.57625e-08
5.86599e-08
1.99137e-08
-2.3719e-08
-7.26315e-08
7.64369e-08
2.8239e-08
-3.30389e-08
-9.03194e-08
9.51192e-08
3.86318e-08
-4.44578e-08
-1.07118e-07
1.12944e-07
5.11184e-08
-5.79211e-08
-1.20721e-07
1.27524e-07
6.55419e-08
-7.31572e-08
-1.28475e-07
1.3609e-07
8.14928e-08
-8.96092e-08
-1.27847e-07
1.35963e-07
9.82422e-08
-1.06376e-07
-1.17053e-07
1.25187e-07
1.14707e-07
-1.22215e-07
-9.57246e-08
1.03233e-07
1.29508e-07
-1.35662e-07
-6.53714e-08
7.15249e-08
1.41159e-07
-1.45292e-07
-2.92136e-08
3.33467e-08
1.48382e-07
-1.50045e-07
8.58804e-09
-6.92443e-09
1.5041e-07
-1.49437e-07
4.409e-08
-4.50623e-08
1.47077e-07
-1.43635e-07
7.40259e-08
-7.74675e-08
1.38863e-07
-1.33359e-07
9.66559e-08
-1.0216e-07
1.26689e-07
-1.19659e-07
1.11623e-07
-1.18653e-07
1.11678e-07
-1.03687e-07
1.19483e-07
-1.27473e-07
9.49675e-08
-8.65136e-08
1.21632e-07
-1.30086e-07
7.7543e-08
-6.90423e-08
1.1925e-07
-1.27751e-07
6.01903e-08
-5.19377e-08
1.13874e-07
-1.22127e-07
4.34693e-08
-3.56681e-08
1.06532e-07
-1.14333e-07
2.77467e-08
-2.05141e-08
9.81777e-08
-1.0541e-07
1.32224e-08
-6.6194e-09
8.9377e-08
-9.598e-08
-3.78517e-09
3.9472e-09
-1.62029e-10
3.54939e-10
-5.73903e-10
-4.82258e-09
5.04155e-09
8.66081e-10
-1.22515e-09
-7.91425e-09
8.27332e-09
1.71322e-09
-2.30867e-09
-1.31204e-08
1.37159e-08
3.10316e-09
-4.04966e-09
-2.08394e-08
2.17859e-08
5.28122e-09
-6.71095e-09
-3.14302e-08
3.28599e-08
8.52554e-09
-1.05811e-08
-4.5053e-08
4.71086e-08
1.31299e-08
-1.59526e-08
-6.15207e-08
6.43434e-08
1.93784e-08
-2.30951e-08
-8.01989e-08
8.39156e-08
2.75181e-08
-3.22265e-08
-9.98745e-08
1.04583e-07
3.77299e-08
-4.34855e-08
-1.18736e-07
1.24492e-07
5.00974e-08
-5.68905e-08
-1.34322e-07
1.41116e-07
6.4554e-08
-7.22755e-08
-1.43759e-07
1.51481e-07
8.08075e-08
-8.92059e-08
-1.44219e-07
1.52617e-07
9.82484e-08
-1.06887e-07
-1.33568e-07
1.42207e-07
1.15871e-07
-1.24111e-07
-1.11096e-07
1.19336e-07
1.32277e-07
-1.39333e-07
-7.81144e-08
8.51708e-08
1.45828e-07
-1.5092e-07
-3.79396e-08
4.30315e-08
1.54995e-07
-1.57522e-07
4.85076e-09
-2.32445e-09
1.5871e-07
-1.584e-07
4.57229e-08
-4.60329e-08
1.56587e-07
-1.53512e-07
8.07387e-08
-8.38142e-08
1.48959e-07
-1.43506e-07
1.07645e-07
-1.13098e-07
1.36732e-07
-1.29467e-07
1.25799e-07
-1.33064e-07
1.2111e-07
-1.12658e-07
1.35687e-07
-1.44138e-07
1.03363e-07
-9.42937e-08
1.38835e-07
-1.47904e-07
8.46222e-08
-7.54208e-08
1.36587e-07
-1.45788e-07
6.5808e-08
-5.68235e-08
1.30729e-07
-1.39713e-07
4.75856e-08
-3.90622e-08
1.22479e-07
-1.31002e-07
3.03972e-08
-2.24788e-08
1.1297e-07
-1.20889e-07
1.4491e-08
-7.25505e-09
1.02885e-07
-1.10121e-07
-4.10658e-09
4.26321e-09
-1.56625e-10
3.43734e-10
-5.55699e-10
-5.25712e-09
5.46908e-09
8.38477e-10
-1.18598e-09
-8.62673e-09
8.97423e-09
1.65834e-09
-2.23466e-09
-1.4302e-08
1.48783e-08
3.00368e-09
-3.91996e-09
-2.27176e-08
2.36339e-08
5.1124e-09
-6.49708e-09
-3.42676e-08
3.56523e-08
8.2551e-09
-1.02476e-08
-4.91334e-08
5.11259e-08
1.27197e-08
-1.546e-08
-6.7126e-08
6.98662e-08
1.87896e-08
-2.24076e-08
-8.75842e-08
9.12022e-08
2.67217e-08
-3.13262e-08
-1.09241e-07
1.13846e-07
3.67259e-08
-4.23968e-08
-1.30207e-07
1.35878e-07
4.89448e-08
-5.57147e-08
-1.47899e-07
1.54669e-07
6.34083e-08
-7.12277e-08
-1.59253e-07
1.67072e-07
7.99532e-08
-8.86398e-08
-1.6116e-07
1.69846e-07
9.81108e-08
-1.07288e-07
-1.51111e-07
1.60288e-07
1.16981e-07
-1.26028e-07
-1.2797e-07
1.37017e-07
1.35171e-07
-1.43253e-07
-9.27245e-08
1.00807e-07
1.50899e-07
-1.57112e-07
-4.86627e-08
5.48753e-08
1.62354e-07
-1.6592e-07
-6.91015e-10
4.25705e-09
1.68117e-07
-1.68631e-07
4.59536e-08
-4.54398e-08
1.67517e-07
-1.64927e-07
8.66638e-08
-8.92541e-08
1.60689e-07
-1.55346e-07
1.18505e-07
-1.23848e-07
1.48499e-07
-1.40995e-07
1.40449e-07
-1.47953e-07
1.32228e-07
-1.23258e-07
1.52842e-07
-1.61812e-07
1.13303e-07
-1.03521e-07
1.57317e-07
-1.67098e-07
9.30306e-08
-8.30049e-08
1.55385e-07
-1.65411e-07
7.24943e-08
-6.26429e-08
1.49113e-07
-1.58965e-07
5.2491e-08
-4.31088e-08
1.39937e-07
-1.49319e-07
3.35584e-08
-2.48228e-08
1.29198e-07
-1.37933e-07
1.60047e-08
-8.01393e-09
1.17718e-07
-1.25708e-07
-4.41695e-09
4.56774e-09
-1.50791e-10
3.31654e-10
-5.36071e-10
-5.67738e-09
5.88179e-09
8.08709e-10
-1.14374e-09
-9.31567e-09
9.65069e-09
1.59915e-09
-2.15483e-09
-1.54445e-08
1.60002e-08
2.89636e-09
-3.78002e-09
-2.45342e-08
2.54178e-08
4.93023e-09
-6.26624e-09
-3.70131e-08
3.83491e-08
7.9631e-09
-9.88729e-09
-5.3085e-08
5.50092e-08
1.22763e-08
-1.49269e-08
-7.25628e-08
7.52134e-08
1.81516e-08
-2.16614e-08
-9.47675e-08
9.82772e-08
2.58552e-08
-3.03437e-08
-1.18394e-07
1.22882e-07
3.56254e-08
-4.11967e-08
-1.41501e-07
1.47072e-07
4.76642e-08
-5.43949e-08
-1.61422e-07
1.68153e-07
6.21027e-08
-7.00073e-08
-1.74936e-07
1.82841e-07
7.89179e-08
-8.78922e-08
-1.78678e-07
1.87652e-07
9.78036e-08
-1.07546e-07
-1.69745e-07
1.79488e-07
1.18e-07
-1.27927e-07
-1.46495e-07
1.56422e-07
1.38153e-07
-1.47391e-07
-1.09451e-07
1.1869e-07
1.56355e-07
-1.63869e-07
-6.17154e-08
6.92302e-08
1.70484e-07
-1.7531e-07
-8.42575e-09
1.32513e-08
1.78728e-07
-1.80264e-07
4.44411e-08
-4.29056e-08
1.80038e-07
-1.78087e-07
9.15469e-08
-9.34983e-08
1.74291e-07
-1.69143e-07
1.29106e-07
-1.34254e-07
1.62271e-07
-1.54537e-07
1.55574e-07
-1.63308e-07
1.45333e-07
-1.35785e-07
1.71064e-07
-1.80612e-07
1.25077e-07
-1.1447e-07
1.77278e-07
-1.87885e-07
1.03022e-07
-9.20277e-08
1.75902e-07
-1.86896e-07
8.04562e-08
-6.95775e-08
1.69308e-07
-1.80187e-07
5.83402e-08
-4.7936e-08
1.5919e-07
-1.69595e-07
3.73306e-08
-2.76204e-08
1.47135e-07
-1.56846e-07
1.78118e-08
-8.91956e-09
1.3413e-07
-1.43023e-07
-4.71549e-09
4.86006e-09
-1.4457e-10
3.18671e-10
-5.14973e-10
-6.08223e-09
6.27853e-09
7.76708e-10
-1.09832e-09
-9.97909e-09
1.03007e-08
1.53551e-09
-2.06899e-09
-1.65449e-08
1.70784e-08
2.78097e-09
-3.62953e-09
-2.62842e-08
2.71328e-08
4.73428e-09
-6.01786e-09
-3.96593e-08
4.09429e-08
7.64879e-09
-9.49923e-09
-5.6897e-08
5.87475e-08
1.17983e-08
-1.43518e-08
-7.78162e-08
8.03697e-08
1.74623e-08
-2.08536e-08
-1.01729e-07
1.0512e-07
2.49146e-08
-2.92734e-08
-1.27307e-07
1.31666e-07
3.44207e-08
-3.98749e-08
-1.52587e-07
1.58041e-07
4.62415e-08
-5.29123e-08
-1.74856e-07
1.81526e-07
6.0612e-08
-6.85813e-08
-1.9078e-07
1.98749e-07
7.76587e-08
-8.69097e-08
-1.96766e-07
2.06017e-07
9.72607e-08
-1.07584e-07
-1.89519e-07
1.99842e-07
1.18838e-07
-1.2971e-07
-1.66814e-07
1.77686e-07
1.41122e-07
-1.51649e-07
-1.28555e-07
1.39082e-07
1.62106e-07
-1.71124e-07
-7.74695e-08
8.64876e-08
1.79352e-07
-1.85684e-07
-1.87938e-08
2.5126e-08
1.90572e-07
-1.93375e-07
4.0771e-08
-3.79673e-08
1.94281e-07
-1.93167e-07
9.50587e-08
-9.61721e-08
1.89984e-07
-1.85151e-07
1.39262e-07
-1.44095e-07
1.78333e-07
-1.70397e-07
1.71147e-07
-1.79083e-07
1.60738e-07
-1.50553e-07
1.90471e-07
-2.00656e-07
1.38992e-07
-1.27436e-07
1.9895e-07
-2.10507e-07
1.14874e-07
-1.02744e-07
1.98435e-07
-2.10566e-07
8.99223e-08
-7.78281e-08
1.91647e-07
-2.03741e-07
6.53036e-08
-5.3685e-08
1.80579e-07
-1.92198e-07
4.18244e-08
-3.09538e-08
1.6711e-07
-1.77981e-07
1.99652e-08
-9.99909e-09
1.52427e-07
-1.62394e-07
-5.00135e-09
5.1393e-09
-1.37953e-10
3.04823e-10
-4.92468e-10
-6.47062e-09
6.65826e-09
7.42567e-10
-1.04986e-09
-1.06153e-08
1.09226e-08
1.46761e-09
-1.97739e-09
-1.76002e-08
1.811e-08
2.65782e-09
-3.4689e-09
-2.79629e-08
2.8774e-08
4.52508e-09
-5.75262e-09
-4.21989e-08
4.34265e-08
7.313e-09
-9.08442e-09
-6.05591e-08
6.23305e-08
1.12871e-08
-1.37359e-08
-8.28719e-08
8.53208e-08
1.6723e-08
-1.99855e-08
-1.08448e-07
1.11711e-07
2.39011e-08
-2.8116e-08
-1.35955e-07
1.4017e-07
3.31115e-08
-3.84294e-08
-1.6343e-07
1.68748e-07
4.4672e-08
-5.12585e-08
-1.88158e-07
1.94745e-07
5.89224e-08
-6.69295e-08
-2.06742e-07
2.14749e-07
7.61462e-08
-8.5652e-08
-2.15399e-07
2.24905e-07
9.64291e-08
-1.07336e-07
-2.10459e-07
2.21366e-07
1.19415e-07
-1.31288e-07
-1.89053e-07
2.00926e-07
1.43982e-07
-1.55932e-07
-1.50304e-07
1.62254e-07
1.68071e-07
-1.78813e-07
-9.63392e-08
1.07082e-07
1.88926e-07
-1.97049e-07
-3.23124e-08
4.04346e-08
2.03717e-07
-2.08081e-07
3.44236e-08
-3.00593e-08
2.10418e-07
-2.10399e-07
9.67752e-08
-9.67942e-08
2.08054e-07
-2.03702e-07
1.48711e-07
-1.53063e-07
1.97055e-07
-1.88972e-07
1.87101e-07
-1.95185e-07
1.78854e-07
-1.67977e-07
2.11181e-07
-2.22058e-07
1.55458e-07
-1.42809e-07
2.22591e-07
-2.3524e-07
1.28951e-07
-1.15487e-07
2.23336e-07
-2.368e-07
1.0119e-07
-8.7656e-08
2.16525e-07
-2.30059e-07
7.36024e-08
-6.05393e-08
2.04507e-07
-2.17571e-07
4.71839e-08
-3.49302e-08
1.89512e-07
-2.01766e-07
2.25344e-08
-1.12871e-08
1.72972e-07
-1.84219e-07
-5.27382e-09
5.40478e-09
-1.30959e-10
2.90206e-10
-4.68706e-10
-6.84144e-09
7.01994e-09
7.06514e-10
-9.98685e-10
-1.12224e-08
1.15146e-08
1.39589e-09
-1.88064e-09
-1.86074e-08
1.90922e-08
2.52773e-09
-3.29919e-09
-2.95655e-08
3.0337e-08
4.30402e-09
-5.47225e-09
-4.46248e-08
4.5793e-08
6.9579e-09
-8.64552e-09
-6.40607e-08
6.57483e-08
1.07456e-08
-1.30831e-08
-8.77149e-08
9.00523e-08
1.59382e-08
-1.90621e-08
-1.14905e-07
1.18029e-07
2.28202e-08
-2.68773e-08
-1.44307e-07
1.48365e-07
3.17036e-08
-3.68653e-08
-1.7399e-07
1.79152e-07
4.29594e-08
-4.94347e-08
-2.0128e-07
2.07755e-07
5.70312e-08
-6.50433e-08
-2.22763e-07
2.30775e-07
7.43636e-08
-8.40922e-08
-2.34527e-07
2.44256e-07
9.52688e-08
-1.06748e-07
-2.32562e-07
2.44041e-07
1.19664e-07
-1.3258e-07
-2.13317e-07
2.26233e-07
1.46646e-07
-1.60152e-07
-1.74967e-07
1.88473e-07
1.7417e-07
-1.86878e-07
-1.18776e-07
1.31484e-07
1.99182e-07
-2.09415e-07
-4.95673e-08
5.98e-08
2.18257e-07
-2.24548e-07
2.47797e-08
-1.84885e-08
2.28674e-07
-2.3008e-07
9.61502e-08
-9.47443e-08
2.28874e-07
-2.25229e-07
1.57094e-07
-1.60739e-07
2.18923e-07
-2.10782e-07
2.03312e-07
-2.11453e-07
2.00227e-07
-1.88608e-07
2.33301e-07
-2.4492e-07
1.7501e-07
-1.61104e-07
2.48496e-07
-2.62402e-07
1.45732e-07
-1.30695e-07
2.51018e-07
-2.66055e-07
1.14648e-07
-9.94009e-08
2.44412e-07
-2.59659e-07
8.35245e-08
-6.87367e-08
2.31458e-07
-2.46246e-07
5.35949e-08
-3.96876e-08
2.1481e-07
-2.28717e-07
2.56082e-08
-1.28282e-08
1.96199e-07
-2.08979e-07
-5.53211e-09
5.65574e-09
-1.23628e-10
2.74804e-10
-4.43666e-10
-7.19371e-09
7.36257e-09
6.68514e-10
-9.44741e-10
-1.1799e-08
1.20752e-08
1.32029e-09
-1.77865e-09
-1.95639e-08
2.00222e-08
2.39056e-09
-3.12023e-09
-3.10878e-08
3.18175e-08
4.07085e-09
-5.17644e-09
-4.69303e-08
4.80359e-08
6.58309e-09
-8.18199e-09
-6.73921e-08
6.8991e-08
1.01734e-08
-1.23922e-08
-9.23312e-08
9.45501e-08
1.51064e-08
-1.80817e-08
-1.2108e-07
1.24055e-07
2.16691e-08
-2.55537e-08
-1.52337e-07
1.56222e-07
3.01915e-08
-3.51748e-08
-1.84227e-07
1.89211e-07
4.10921e-08
-4.74244e-08
-2.14162e-07
2.20495e-07
5.49149e-08
-6.28906e-08
-2.38774e-07
2.4675e-07
7.22667e-08
-8.21711e-08
-2.54078e-07
2.63983e-07
9.37013e-08
-1.0572e-07
-2.55795e-07
2.67814e-07
1.1946e-07
-1.33441e-07
-2.3968e-07
2.5366e-07
1.48947e-07
-1.64134e-07
-2.02804e-07
2.17991e-07
1.8023e-07
-1.95161e-07
-1.4527e-07
1.60202e-07
2.09996e-07
-2.22723e-07
-7.12274e-08
8.39544e-08
2.34189e-07
-2.42823e-07
1.10953e-08
-2.46143e-09
2.49206e-07
-2.5246e-07
9.24771e-08
-8.92233e-08
2.52789e-07
-2.50163e-07
1.63919e-07
-1.66545e-07
2.44443e-07
-2.36391e-07
2.19572e-07
-2.27624e-07
2.25458e-07
-2.13063e-07
2.56923e-07
-2.69318e-07
1.98264e-07
-1.82911e-07
2.77005e-07
-2.92358e-07
1.65764e-07
-1.48867e-07
2.81981e-07
-2.98879e-07
1.30737e-07
-1.13446e-07
2.75881e-07
-2.93172e-07
9.53922e-08
-7.8543e-08
2.62017e-07
-2.78866e-07
6.12656e-08
-4.53807e-08
2.43568e-07
-2.59453e-07
2.92873e-08
-1.4673e-08
2.22634e-07
-2.37248e-07
-5.77557e-09
5.89153e-09
-1.15959e-10
2.58666e-10
-4.17422e-10
-7.52648e-09
7.68523e-09
6.28677e-10
-8.88185e-10
-1.23432e-08
1.26027e-08
1.24102e-09
-1.6717e-09
-2.04669e-08
2.08976e-08
2.24673e-09
-2.93253e-09
-3.25254e-08
3.32112e-08
3.82624e-09
-4.86602e-09
-4.9109e-08
5.01488e-08
6.18959e-09
-7.69507e-09
-7.05438e-08
7.20493e-08
9.5717e-09
-1.16652e-08
-9.67071e-08
9.88006e-08
1.42296e-08
-1.70461e-08
-1.26952e-07
1.29769e-07
2.04501e-08
-2.41468e-08
-1.60014e-07
1.63711e-07
2.85763e-08
-3.33577e-08
-1.94096e-07
1.98877e-07
3.90675e-08
-4.52217e-08
-2.26743e-07
2.32897e-07
5.25624e-08
-6.04532e-08
-2.5469e-07
2.62581e-07
6.98261e-08
-7.98448e-08
-2.73953e-07
2.83972e-07
9.1663e-08
-1.04166e-07
-2.80084e-07
2.92587e-07
1.18691e-07
-1.3373e-07
-2.68173e-07
2.83213e-07
1.50723e-07
-1.67698e-07
-2.3406e-07
2.51035e-07
1.86066e-07
-2.03491e-07
-1.76346e-07
1.93771e-07
2.2123e-07
-2.36885e-07
-9.80889e-08
1.13744e-07
2.51496e-07
-2.62994e-07
-7.50396e-09
1.90027e-08
2.72231e-07
-2.77844e-07
8.48603e-08
-7.92479e-08
2.80229e-07
-2.79045e-07
1.68511e-07
-1.69695e-07
2.74261e-07
-2.66528e-07
2.35551e-07
-2.43285e-07
2.55335e-07
-2.42158e-07
2.82106e-07
-2.95283e-07
2.26032e-07
-2.09008e-07
3.08517e-07
-3.2554e-07
1.89766e-07
-1.70646e-07
3.16837e-07
-3.35958e-07
1.50019e-07
-1.30275e-07
3.11633e-07
-3.31378e-07
1.09609e-07
-9.02915e-08
2.96894e-07
-3.16212e-07
7.04577e-08
-5.2206e-08
2.76469e-07
-2.9472e-07
3.36998e-08
-1.68868e-08
2.52912e-07
-2.69725e-07
-6.00352e-09
6.11149e-09
-1.0797e-10
2.41883e-10
-3.90122e-10
-7.83882e-09
7.98706e-09
5.87225e-10
-8.29332e-10
-1.28536e-08
1.30957e-08
1.15852e-09
-1.56038e-09
-2.1314e-08
2.17158e-08
2.097e-09
-2.73713e-09
-3.38744e-08
3.45146e-08
3.57153e-09
-4.54269e-09
-5.11547e-08
5.21259e-08
5.77954e-09
-7.18737e-09
-7.35066e-08
7.49144e-08
8.94387e-09
-1.09056e-08
-1.00829e-07
1.02791e-07
1.33124e-08
-1.59607e-08
-1.32502e-07
1.35151e-07
1.9169e-08
-2.26633e-08
-1.67309e-07
1.70803e-07
2.68651e-08
-3.14207e-08
-2.03549e-07
2.08105e-07
3.68913e-08
-4.283e-08
-2.38948e-07
2.44887e-07
4.99734e-08
-5.7725e-08
-2.70409e-07
2.78161e-07
6.70264e-08
-7.70844e-08
-2.94021e-07
3.04079e-07
8.91051e-08
-1.02013e-07
-3.05305e-07
3.18213e-07
1.17253e-07
-1.33313e-07
-2.98771e-07
3.14832e-07
1.51805e-07
-1.70652e-07
-2.68938e-07
2.87785e-07
1.91477e-07
-2.11674e-07
-2.12547e-07
2.32744e-07
2.32724e-07
-2.51796e-07
-1.31045e-07
1.50117e-07
2.70149e-07
-2.85213e-07
-3.22013e-08
4.72657e-08
2.9796e-07
-3.06618e-07
7.22101e-08
-6.3552e-08
3.11725e-07
-3.12556e-07
1.69952e-07
-1.69121e-07
3.09207e-07
-3.02136e-07
2.5074e-07
-2.57811e-07
2.909e-07
-2.76987e-07
3.0884e-07
-3.22753e-07
2.5941e-07
-2.40443e-07
3.43499e-07
-3.62466e-07
2.1869e-07
-1.96868e-07
3.56361e-07
-3.78183e-07
1.732e-07
-1.50479e-07
3.52537e-07
-3.75258e-07
1.26665e-07
-1.04389e-07
3.36943e-07
-3.59219e-07
8.14991e-08
-6.04195e-08
3.14325e-07
-3.35405e-07
3.90191e-08
-1.95596e-08
2.878e-07
-3.0726e-07
-6.21537e-09
6.31508e-09
-9.97032e-11
2.24457e-10
-3.61768e-10
-8.12991e-09
8.26722e-09
5.44161e-10
-7.68184e-10
-1.33289e-08
1.35529e-08
1.07281e-09
-1.44472e-09
-2.21028e-08
2.24747e-08
1.94141e-09
-2.53402e-09
-3.51311e-08
3.57237e-08
3.30672e-09
-4.20643e-09
-5.30617e-08
5.39614e-08
5.35292e-09
-6.65885e-09
-7.62717e-08
7.75777e-08
8.28974e-09
-1.01135e-08
-1.04684e-07
1.06508e-07
1.23543e-08
-1.48249e-08
-1.37711e-07
1.40182e-07
1.78248e-08
-2.11016e-08
-1.7419e-07
1.77467e-07
2.5055e-08
-2.93596e-08
-2.12538e-07
2.16842e-07
3.45562e-08
-4.0238e-08
-2.50702e-07
2.56384e-07
4.71309e-08
-5.46813e-08
-2.8582e-07
2.9337e-07
6.38305e-08
-7.38347e-08
-3.14122e-07
3.24126e-07
8.59463e-08
-9.91479e-08
-3.31283e-07
3.44484e-07
1.1499e-07
-1.31989e-07
-3.31374e-07
3.48373e-07
1.5194e-07
-1.727e-07
-3.07585e-07
3.28345e-07
1.96136e-07
-2.19375e-07
-2.54427e-07
2.77666e-07
2.4416e-07
-2.67188e-07
-1.71097e-07
1.94125e-07
2.8999e-07
-3.09388e-07
-6.44072e-08
8.38052e-08
3.26497e-07
-3.39081e-07
5.30314e-08
-4.04477e-08
3.47752e-07
-3.51363e-07
1.67e-07
-1.63388e-07
3.50144e-07
-3.44265e-07
2.64367e-07
-2.70247e-07
3.33362e-07
-3.18871e-07
3.36984e-07
-3.51475e-07
2.99761e-07
-2.78524e-07
3.82521e-07
-4.03758e-07
2.5369e-07
-2.28491e-07
4.01588e-07
-4.26787e-07
2.01038e-07
-1.74659e-07
3.99707e-07
-4.26087e-07
1.47037e-07
-1.21248e-07
3.83179e-07
-4.08968e-07
9.47539e-08
-7.03567e-08
3.58083e-07
-3.82481e-07
4.5503e-08
-2.28382e-08
3.28241e-07
-3.50906e-07
-6.41053e-09