/*--------------------------------*- C++ -*----------------------------------*\
| =========                 |                                                 |
| \\      /  F ield         | OpenFOAM: The Open Source CFD Toolbox           |
|  \\    /   O peration     | Version:  2.4.0                                 |
|   \\  /    A nd           | Web:      www.OpenFOAM.org                      |
|    \\/     M anipulation  |                                                 |
\*---------------------------------------------------------------------------*/
FoamFile
{
    version     2.0;
    format      ascii;
    class       volVectorField;
    location    "0.31";
    object      U;
}
// * * * * * * * * * * * * * * * * * * * * * * * * * * * * * * * * * * * * * //

dimensions      [0 1 -1 0 0 0 0];

internalField   nonuniform List<vector> 
60000
(
(0.000767715 -0.000328994 0)
(0.00238134 -0.0003059 0)
(0.00393331 -0.000297996 0)
(0.00546912 -0.000297221 0)
(0.00700356 -0.00029656 0)
(0.00853777 -0.000295448 0)
(0.0100708 -0.000293997 0)
(0.0116019 -0.00029229 0)
(0.0131303 -0.000290267 0)
(0.0146553 -0.000287974 0)
(0.0161757 -0.000285353 0)
(0.0176903 -0.000282365 0)
(0.0191977 -0.000278984 0)
(0.0206961 -0.000275204 0)
(0.0221835 -0.000270964 0)
(0.023658 -0.000266278 0)
(0.0251171 -0.000261098 0)
(0.0265585 -0.000255467 0)
(0.0279796 -0.000249296 0)
(0.0293776 -0.000242652 0)
(0.03075 -0.000235497 0)
(0.0320937 -0.000227842 0)
(0.0334061 -0.000219692 0)
(0.0346841 -0.000211044 0)
(0.035925 -0.000201902 0)
(0.0371258 -0.000192264 0)
(0.0382837 -0.000182157 0)
(0.0393958 -0.000171563 0)
(0.0404594 -0.000160469 0)
(0.0414717 -0.000148935 0)
(0.0424299 -0.00013688 0)
(0.0433312 -0.000124335 0)
(0.0441729 -0.000111251 0)
(0.0449522 -9.76498e-05 0)
(0.0456665 -8.35813e-05 0)
(0.0463137 -6.90759e-05 0)
(0.0468916 -5.41252e-05 0)
(0.0473986 -3.875e-05 0)
(0.0478332 -2.29706e-05 0)
(0.0481944 -6.83091e-06 0)
(0.0484818 9.61617e-06 0)
(0.0486952 2.63624e-05 0)
(0.0488353 4.34562e-05 0)
(0.0489037 6.12588e-05 0)
(0.0488999 7.86314e-05 0)
(0.0488251 9.47879e-05 0)
(0.0486857 0.000110109 0)
(0.0484872 0.000124877 0)
(0.0482352 0.000139023 0)
(0.0479356 0.000152364 0)
(0.047595 0.000164705 0)
(0.0472205 0.000175983 0)
(0.0468201 0.000185502 0)
(0.0464029 0.000193479 0)
(0.045978 0.000199308 0)
(0.0455555 0.000203199 0)
(0.0451446 0.000205029 0)
(0.0447549 0.000204726 0)
(0.0443957 0.000202277 0)
(0.0440756 0.000197876 0)
(0.0438017 0.000191702 0)
(0.0435801 0.000184132 0)
(0.0434144 0.000175593 0)
(0.0433067 0.000166363 0)
(0.0432566 0.000156774 0)
(0.0432602 0.000145465 0)
(0.0433115 0.000135997 0)
(0.0434039 0.000128386 0)
(0.0435277 0.000122765 0)
(0.0436716 0.000119381 0)
(0.0438229 0.000118458 0)
(0.0439682 0.000120168 0)
(0.0440932 0.000124645 0)
(0.0441834 0.000132019 0)
(0.0442242 0.000142486 0)
(0.0442013 0.000154776 0)
(0.044099 0.000168248 0)
(0.0439033 0.000184029 0)
(0.043601 0.000202157 0)
(0.0431797 0.000222346 0)
(0.0426289 0.000243725 0)
(0.0419396 0.000265099 0)
(0.0411044 0.000285557 0)
(0.0401176 0.000305263 0)
(0.0389759 0.000323685 0)
(0.0376794 0.000340676 0)
(0.0362304 0.000355967 0)
(0.0346343 0.000369329 0)
(0.0328981 0.000380574 0)
(0.031031 0.000389665 0)
(0.0290431 0.000396734 0)
(0.0269453 0.000402018 0)
(0.0247482 0.000405817 0)
(0.0224623 0.000408493 0)
(0.020097 0.000410422 0)
(0.0176602 0.000412021 0)
(0.0151588 0.000413363 0)
(0.0125956 0.000415227 0)
(0.0099789 0.000415757 0)
(0.00729406 0.000420313 0)
(0.00101199 -0.00129013 0)
(0.00305424 -0.00134827 0)
(0.00491783 -0.00129337 0)
(0.00675243 -0.00128423 0)
(0.00858855 -0.00128432 0)
(0.0104319 -0.00128431 0)
(0.0122842 -0.00128371 0)
(0.0141462 -0.00128275 0)
(0.0160183 -0.00128125 0)
(0.0179011 -0.00127908 0)
(0.0197943 -0.00127613 0)
(0.0216974 -0.00127213 0)
(0.0236095 -0.00126679 0)
(0.025529 -0.00126008 0)
(0.0274543 -0.00125181 0)
(0.029383 -0.00124173 0)
(0.0313127 -0.00122969 0)
(0.0332406 -0.00121556 0)
(0.0351634 -0.00119935 0)
(0.0370776 -0.00118087 0)
(0.0389799 -0.00116 0)
(0.0408667 -0.00113679 0)
(0.042734 -0.00111119 0)
(0.0445781 -0.00108314 0)
(0.046395 -0.00105266 0)
(0.0481808 -0.00101973 0)
(0.0499316 -0.000984447 0)
(0.0516436 -0.000946771 0)
(0.0533129 -0.000906644 0)
(0.0549358 -0.000864287 0)
(0.0565087 -0.000819621 0)
(0.0580278 -0.000772613 0)
(0.0594895 -0.000723266 0)
(0.0608903 -0.000671728 0)
(0.0622268 -0.000618298 0)
(0.0634959 -0.000563144 0)
(0.0646952 -0.000506444 0)
(0.0658227 -0.000448534 0)
(0.0668769 -0.000389785 0)
(0.0678572 -0.000330597 0)
(0.0687637 -0.000271439 0)
(0.0695973 -0.00021277 0)
(0.07036 -0.000155029 0)
(0.0710544 -9.8488e-05 0)
(0.0716866 -4.4535e-05 0)
(0.0722625 5.68181e-06 0)
(0.0727858 5.17824e-05 0)
(0.0732617 9.34731e-05 0)
(0.0736979 0.000130203 0)
(0.074103 0.000161302 0)
(0.0744869 0.000186036 0)
(0.0748591 0.000203628 0)
(0.075231 0.000215417 0)
(0.0756142 0.000219999 0)
(0.0760205 0.000218313 0)
(0.0764619 0.000208806 0)
(0.0769495 0.000191237 0)
(0.077494 0.000166052 0)
(0.0781056 0.000133864 0)
(0.0787931 9.5591e-05 0)
(0.0795636 5.2411e-05 0)
(0.0804222 5.82421e-06 0)
(0.0813711 -4.24221e-05 0)
(0.0824098 -9.06055e-05 0)
(0.0835347 -0.00013704 0)
(0.0847398 -0.000181308 0)
(0.086016 -0.000219114 0)
(0.087351 -0.000248995 0)
(0.0887311 -0.000269782 0)
(0.0901408 -0.000280404 0)
(0.0915631 -0.000279999 0)
(0.0929799 -0.000267917 0)
(0.0943725 -0.000243692 0)
(0.0957216 -0.000206993 0)
(0.0970075 -0.000157613 0)
(0.0982102 -9.64867e-05 0)
(0.0993097 -2.38041e-05 0)
(0.100286 6.10433e-05 0)
(0.101118 0.000157905 0)
(0.101786 0.000266304 0)
(0.102266 0.000385664 0)
(0.102533 0.000514511 0)
(0.102569 0.000649927 0)
(0.102356 0.000791249 0)
(0.101877 0.000934941 0)
(0.101123 0.00107863 0)
(0.100086 0.00122014 0)
(0.0987615 0.00135729 0)
(0.097151 0.00148816 0)
(0.0952584 0.00161127 0)
(0.0930914 0.00172566 0)
(0.0906605 0.00183079 0)
(0.0879781 0.00192659 0)
(0.0850581 0.00201345 0)
(0.0819144 0.00209216 0)
(0.0785602 0.00216405 0)
(0.0750081 0.00223055 0)
(0.0712648 0.00229395 0)
(0.0673459 0.00235402 0)
(0.0632275 0.00241915 0)
(0.000977877 -0.00226688 0)
(0.00273426 -0.00224948 0)
(0.00426052 -0.00212271 0)
(0.00576994 -0.00210618 0)
(0.00728764 -0.00211136 0)
(0.00882101 -0.00211846 0)
(0.010374 -0.00212607 0)
(0.0119491 -0.00213424 0)
(0.0135482 -0.00214248 0)
(0.0151729 -0.00215054 0)
(0.016824 -0.00215793 0)
(0.0185022 -0.00216416 0)
(0.0202067 -0.00216874 0)
(0.0219368 -0.00217128 0)
(0.0236911 -0.00217157 0)
(0.0254679 -0.00216885 0)
(0.0272648 -0.00216301 0)
(0.0290793 -0.00215354 0)
(0.0309079 -0.00214063 0)
(0.0327476 -0.00212365 0)
(0.0345952 -0.00210248 0)
(0.036447 -0.0020772 0)
(0.0382993 -0.00204767 0)
(0.0401484 -0.00201381 0)
(0.0419905 -0.00197552 0)
(0.0438217 -0.00193289 0)
(0.0456382 -0.00188605 0)
(0.0474365 -0.00183489 0)
(0.0492126 -0.00177936 0)
(0.050963 -0.0017197 0)
(0.0526839 -0.00165614 0)
(0.0543717 -0.00158845 0)
(0.0560231 -0.00151654 0)
(0.0576345 -0.00144079 0)
(0.0592025 -0.00136166 0)
(0.0607239 -0.00127944 0)
(0.062196 -0.00119448 0)
(0.0636166 -0.00110746 0)
(0.0649841 -0.00101911 0)
(0.0662972 -0.000930153 0)
(0.0675555 -0.000841476 0)
(0.0687594 -0.000754009 0)
(0.0699101 -0.000668743 0)
(0.0710093 -0.000586907 0)
(0.0720602 -0.000509421 0)
(0.0730666 -0.000437222 0)
(0.0740333 -0.000371513 0)
(0.0749658 -0.000313535 0)
(0.0758708 -0.000264501 0)
(0.076756 -0.000225552 0)
(0.0776297 -0.00019779 0)
(0.0785019 -0.000182285 0)
(0.0793821 -0.000178026 0)
(0.0802808 -0.000186518 0)
(0.0812088 -0.00020698 0)
(0.0821767 -0.000240876 0)
(0.0831961 -0.000288307 0)
(0.0842779 -0.000348581 0)
(0.0854322 -0.000420576 0)
(0.0866683 -0.000502712 0)
(0.0879939 -0.000592848 0)
(0.0894146 -0.000688372 0)
(0.0909337 -0.000786262 0)
(0.0925518 -0.000883171 0)
(0.0942663 -0.000975713 0)
(0.0960719 -0.00105996 0)
(0.0979605 -0.00113358 0)
(0.099921 -0.00119351 0)
(0.10194 -0.00123727 0)
(0.104003 -0.00126289 0)
(0.106093 -0.00126891 0)
(0.108193 -0.00125425 0)
(0.110285 -0.00121821 0)
(0.112351 -0.00116038 0)
(0.114372 -0.00108068 0)
(0.11633 -0.000978735 0)
(0.118207 -0.000854408 0)
(0.119984 -0.000708009 0)
(0.121641 -0.000539841 0)
(0.123162 -0.000350292 0)
(0.124527 -0.000139574 0)
(0.125724 9.14758e-05 0)
(0.126734 0.000342289 0)
(0.127531 0.000607445 0)
(0.128094 0.000885776 0)
(0.128405 0.00117304 0)
(0.128448 0.00146465 0)
(0.128209 0.00175638 0)
(0.127678 0.00204416 0)
(0.126849 0.00232438 0)
(0.125719 0.00259414 0)
(0.124288 0.00285126 0)
(0.12256 0.00309439 0)
(0.120541 0.00332298 0)
(0.118239 0.00353739 0)
(0.115664 0.00373883 0)
(0.112825 0.00392917 0)
(0.10973 0.004111 0)
(0.106398 0.00428583 0)
(0.102808 0.00445919 0)
(0.000925837 -0.0031338 0)
(0.00241624 -0.00298752 0)
(0.00365737 -0.00279503 0)
(0.00489398 -0.00277615 0)
(0.0061444 -0.00278985 0)
(0.00741677 -0.00280816 0)
(0.0087163 -0.00282888 0)
(0.0100466 -0.0028516 0)
(0.0114103 -0.00287542 0)
(0.0128096 -0.0029 0)
(0.014246 -0.00292431 0)
(0.0157204 -0.00294744 0)
(0.0172324 -0.00296912 0)
(0.0187813 -0.00298782 0)
(0.0203661 -0.0030036 0)
(0.0219848 -0.00301536 0)
(0.0236352 -0.00302287 0)
(0.0253147 -0.00302519 0)
(0.0270199 -0.00302248 0)
(0.0287479 -0.00301414 0)
(0.0304955 -0.00299987 0)
(0.032259 -0.0029797 0)
(0.0340349 -0.00295346 0)
(0.0358197 -0.00292106 0)
(0.0376097 -0.00288231 0)
(0.0394011 -0.00283744 0)
(0.0411904 -0.00278646 0)
(0.0429742 -0.00272924 0)
(0.0447486 -0.00266606 0)
(0.0465097 -0.00259685 0)
(0.048254 -0.00252202 0)
(0.0499782 -0.00244123 0)
(0.0516787 -0.00235436 0)
(0.0533519 -0.00226197 0)
(0.0549943 -0.00216448 0)
(0.0566028 -0.00206247 0)
(0.0581744 -0.00195632 0)
(0.0597066 -0.001847 0)
(0.0611976 -0.0017355 0)
(0.0626456 -0.00162284 0)
(0.0640498 -0.0015102 0)
(0.0654099 -0.00139888 0)
(0.0667261 -0.00129023 0)
(0.0679997 -0.00118571 0)
(0.0692324 -0.00108674 0)
(0.070427 -0.000994909 0)
(0.0715871 -0.000911937 0)
(0.072717 -0.000839434 0)
(0.0738223 -0.000778972 0)
(0.0749093 -0.000732056 0)
(0.0759854 -0.000700024 0)
(0.0770591 -0.00068388 0)
(0.0781392 -0.000685485 0)
(0.0792354 -0.000705008 0)
(0.0803579 -0.000743694 0)
(0.0815174 -0.000801152 0)
(0.082725 -0.000877212 0)
(0.0839919 -0.000971277 0)
(0.0853287 -0.001082 0)
(0.0867452 -0.00120725 0)
(0.08825 -0.00134409 0)
(0.0898497 -0.00148883 0)
(0.0915485 -0.00163716 0)
(0.093348 -0.00178432 0)
(0.0952464 -0.00192535 0)
(0.0972395 -0.00205509 0)
(0.0993197 -0.00216934 0)
(0.101477 -0.00226395 0)
(0.103698 -0.00233547 0)
(0.105969 -0.00238115 0)
(0.108274 -0.00239896 0)
(0.110596 -0.00238748 0)
(0.11292 -0.00234581 0)
(0.115226 -0.00227348 0)
(0.117498 -0.00217029 0)
(0.119718 -0.00203602 0)
(0.121871 -0.00187071 0)
(0.123938 -0.0016747 0)
(0.125904 -0.00144826 0)
(0.127751 -0.00119183 0)
(0.129463 -0.000906324 0)
(0.131023 -0.000592914 0)
(0.132412 -0.000251902 0)
(0.133624 0.000111738 0)
(0.134642 0.000497044 0)
(0.135448 0.000900222 0)
(0.136028 0.00131597 0)
(0.136367 0.00173882 0)
(0.136453 0.00216352 0)
(0.136277 0.00258507 0)
(0.135831 0.00299895 0)
(0.13511 0.00340144 0)
(0.134112 0.00378975 0)
(0.132838 0.00416216 0)
(0.131289 0.00451797 0)
(0.12947 0.0048575 0)
(0.127389 0.0051819 0)
(0.12505 0.00549298 0)
(0.122471 0.0057923 0)
(0.119637 0.0060816 0)
(0.000896473 -0.00392994 0)
(0.00224346 -0.00362368 0)
(0.00333429 -0.00336688 0)
(0.00442643 -0.00334824 0)
(0.005536 -0.00337267 0)
(0.00667131 -0.00340471 0)
(0.00783796 -0.00344138 0)
(0.00904006 -0.0034817 0)
(0.0102806 -0.0035248 0)
(0.0115619 -0.00356935 0)
(0.0128863 -0.00361427 0)
(0.0142542 -0.00365832 0)
(0.0156656 -0.00370072 0)
(0.0171199 -0.00373968 0)
(0.0186157 -0.00377478 0)
(0.0201514 -0.00380495 0)
(0.0217245 -0.00382959 0)
(0.0233323 -0.00384749 0)
(0.0249716 -0.00385891 0)
(0.0266395 -0.00386308 0)
(0.0283327 -0.00385968 0)
(0.0300476 -0.00384863 0)
(0.0317808 -0.00382968 0)
(0.0335289 -0.00380286 0)
(0.0352884 -0.00376785 0)
(0.0370555 -0.00372493 0)
(0.0388268 -0.00367411 0)
(0.0405989 -0.00361522 0)
(0.0423677 -0.0035487 0)
(0.0441294 -0.00347421 0)
(0.0458806 -0.00339218 0)
(0.0476175 -0.00330232 0)
(0.0493364 -0.00320472 0)
(0.0510335 -0.0031 0)
(0.0527053 -0.00298829 0)
(0.0543487 -0.00287049 0)
(0.0559605 -0.00274723 0)
(0.0575378 -0.0026196 0)
(0.0590785 -0.00248881 0)
(0.060581 -0.00235616 0)
(0.0620439 -0.00222314 0)
(0.0634665 -0.00209132 0)
(0.0648489 -0.00196239 0)
(0.0661916 -0.00183815 0)
(0.0674959 -0.00172043 0)
(0.068764 -0.00161123 0)
(0.0699988 -0.00151263 0)
(0.0712039 -0.00142673 0)
(0.0723843 -0.00135558 0)
(0.0735456 -0.00130118 0)
(0.0746946 -0.00126534 0)
(0.0758391 -0.0012497 0)
(0.0769875 -0.00125608 0)
(0.0781493 -0.00128542 0)
(0.0793343 -0.00133885 0)
(0.0805533 -0.00141658 0)
(0.0818173 -0.00151852 0)
(0.0831379 -0.001644 0)
(0.084526 -0.00179142 0)
(0.0859922 -0.00195813 0)
(0.0875454 -0.00214042 0)
(0.089193 -0.00233354 0)
(0.0909398 -0.00253187 0)
(0.0927879 -0.00272917 0)
(0.094736 -0.00291892 0)
(0.0967799 -0.00309459 0)
(0.0989122 -0.00325031 0)
(0.101123 -0.00338073 0)
(0.103399 -0.00348136 0)
(0.105726 -0.00354866 0)
(0.108089 -0.00358005 0)
(0.110471 -0.00357377 0)
(0.112855 -0.0035288 0)
(0.115223 -0.00344464 0)
(0.117559 -0.00332112 0)
(0.119847 -0.00315825 0)
(0.122069 -0.00295619 0)
(0.12421 -0.00271526 0)
(0.126253 -0.0024358 0)
(0.128183 -0.0021183 0)
(0.129982 -0.0017636 0)
(0.131635 -0.0013729 0)
(0.133126 -0.000948791 0)
(0.134438 -0.000492319 0)
(0.135558 -7.99416e-06 0)
(0.136474 0.000500299 0)
(0.137174 0.00102738 0)
(0.137647 0.0015672 0)
(0.137881 0.00211367 0)
(0.137871 0.00266089 0)
(0.13761 0.00320337 0)
(0.137095 0.00373635 0)
(0.136323 0.00425605 0)
(0.135296 0.00475973 0)
(0.134015 0.00524572 0)
(0.132483 0.00571338 0)
(0.130707 0.00616286 0)
(0.128692 0.00659486 0)
(0.126453 0.00701004 0)
(0.123976 0.00740751 0)
(0.000882748 -0.00469374 0)
(0.00216477 -0.00421331 0)
(0.00318861 -0.00389287 0)
(0.00421504 -0.00387584 0)
(0.00526103 -0.00391219 0)
(0.00633462 -0.00395917 0)
(0.00744165 -0.00401319 0)
(0.00858625 -0.00407259 0)
(0.00977174 -0.0041366 0)
(0.0110009 -0.00420288 0)
(0.0122756 -0.00427019 0)
(0.0135968 -0.00433709 0)
(0.0149646 -0.00440189 0)
(0.0163782 -0.00446309 0)
(0.0178362 -0.00451943 0)
(0.019337 -0.00456979 0)
(0.0208783 -0.00461337 0)
(0.0224571 -0.00464878 0)
(0.0240701 -0.00467626 0)
(0.0257148 -0.00469476 0)
(0.0273877 -0.0047041 0)
(0.0290852 -0.00470417 0)
(0.0308041 -0.00469449 0)
(0.0325409 -0.00467521 0)
(0.0342921 -0.00464603 0)
(0.036054 -0.00460712 0)
(0.0378233 -0.00455857 0)
(0.0395963 -0.00450017 0)
(0.0413691 -0.00443217 0)
(0.0431377 -0.00435424 0)
(0.0448984 -0.00426687 0)
(0.0466474 -0.00416969 0)
(0.0483806 -0.0040631 0)
(0.0500941 -0.00394765 0)
(0.0517844 -0.00382326 0)
(0.0534481 -0.00369094 0)
(0.0550818 -0.00355194 0)
(0.0566823 -0.00340728 0)
(0.0582477 -0.00325829 0)
(0.0597758 -0.00310664 0)
(0.0612653 -0.00295412 0)
(0.0627153 -0.00280257 0)
(0.0641255 -0.00265396 0)
(0.0654963 -0.00251041 0)
(0.0668288 -0.00237415 0)
(0.0681246 -0.00224753 0)
(0.0693865 -0.00213304 0)
(0.0706179 -0.00203327 0)
(0.0718232 -0.00195076 0)
(0.0730079 -0.00188801 0)
(0.0741786 -0.00184736 0)
(0.0753428 -0.00183096 0)
(0.076509 -0.00184088 0)
(0.0776864 -0.00187867 0)
(0.0788851 -0.00194563 0)
(0.0801159 -0.00204243 0)
(0.0813902 -0.00216918 0)
(0.0827199 -0.00232521 0)
(0.0841165 -0.00250872 0)
(0.0855911 -0.0027166 0)
(0.0871535 -0.00294434 0)
(0.0888116 -0.00318611 0)
(0.0905707 -0.00343493 0)
(0.0924332 -0.00368304 0)
(0.0943982 -0.00392229 0)
(0.0964613 -0.00414456 0)
(0.098615 -0.00434241 0)
(0.100849 -0.00450918 0)
(0.103149 -0.00463931 0)
(0.105502 -0.00472848 0)
(0.107891 -0.00477355 0)
(0.110299 -0.00477249 0)
(0.112709 -0.00472416 0)
(0.115104 -0.00462808 0)
(0.117466 -0.0044842 0)
(0.119779 -0.0042927 0)
(0.122026 -0.00405388 0)
(0.124192 -0.0037681 0)
(0.12626 -0.00343574 0)
(0.128214 -0.00305729 0)
(0.130038 -0.00263352 0)
(0.131715 -0.0021657 0)
(0.133229 -0.00165598 0)
(0.134563 -0.00110652 0)
(0.135703 -0.000521903 0)
(0.136634 9.27778e-05 0)
(0.137342 0.000731663 0)
(0.137818 0.00138809 0)
(0.138053 0.00205499 0)
(0.138039 0.00272534 0)
(0.137774 0.00339265 0)
(0.137255 0.00405121 0)
(0.136482 0.00469637 0)
(0.135457 0.0053246 0)
(0.134184 0.00593348 0)
(0.132668 0.00652161 0)
(0.130914 0.00708834 0)
(0.128929 0.00763343 0)
(0.126728 0.00815664 0)
(0.124298 0.00865586 0)
(0.000876151 -0.00544373 0)
(0.00212848 -0.00478249 0)
(0.00312258 -0.00439858 0)
(0.00411899 -0.00438367 0)
(0.0051363 -0.00443265 0)
(0.00618219 -0.00449523 0)
(0.00726274 -0.00456731 0)
(0.00838207 -0.0046467 0)
(0.00954372 -0.00473225 0)
(0.0107507 -0.0048213 0)
(0.0120049 -0.0049121 0)
(0.0133073 -0.00500273 0)
(0.0146582 -0.00509116 0)
(0.0160567 -0.00517552 0)
(0.0175015 -0.00525416 0)
(0.0189907 -0.00532575 0)
(0.0205223 -0.00538916 0)
(0.0220929 -0.00544342 0)
(0.0236993 -0.00548784 0)
(0.0253391 -0.00552174 0)
(0.0270084 -0.00554464 0)
(0.0287041 -0.00555684 0)
(0.0304226 -0.00555752 0)
(0.0321605 -0.00554663 0)
(0.0339144 -0.00552462 0)
(0.0356804 -0.00549071 0)
(0.0374552 -0.00544533 0)
(0.0392353 -0.00538832 0)
(0.0410165 -0.0053197 0)
(0.0427947 -0.00523931 0)
(0.0445662 -0.00514726 0)
(0.046327 -0.00504362 0)
(0.0480725 -0.00492863 0)
(0.0497992 -0.00480263 0)
(0.0515031 -0.00466602 0)
(0.0531804 -0.00451964 0)
(0.0548277 -0.00436507 0)
(0.0564419 -0.00420344 0)
(0.0580206 -0.00403629 0)
(0.0595617 -0.00386568 0)
(0.0610636 -0.0036936 0)
(0.0625253 -0.00352216 0)
(0.0639464 -0.00335362 0)
(0.0653272 -0.00319044 0)
(0.0666684 -0.0030352 0)
(0.0679718 -0.00289061 0)
(0.0692398 -0.00275959 0)
(0.0704757 -0.00264522 0)
(0.0716838 -0.00255056 0)
(0.0728695 -0.00247861 0)
(0.0740395 -0.00243226 0)
(0.0752012 -0.00241416 0)
(0.0763632 -0.0024268 0)
(0.077535 -0.00247219 0)
(0.0787267 -0.002552 0)
(0.0799494 -0.00266731 0)
(0.0812151 -0.00281851 0)
(0.082536 -0.003005 0)
(0.0839244 -0.00322486 0)
(0.0853922 -0.00347452 0)
(0.0869501 -0.00374868 0)
(0.0886065 -0.00404037 0)
(0.0903675 -0.00434119 0)
(0.0922358 -0.00464173 0)
(0.0942105 -0.00493211 0)
(0.0962872 -0.00520251 0)
(0.098458 -0.00544385 0)
(0.100712 -0.00564809 0)
(0.103035 -0.00580857 0)
(0.105412 -0.00592017 0)
(0.107826 -0.00597925 0)
(0.11026 -0.00598353 0)
(0.112696 -0.0059318 0)
(0.115116 -0.00582367 0)
(0.117504 -0.00565924 0)
(0.119842 -0.00543887 0)
(0.122114 -0.00516303 0)
(0.124303 -0.00483213 0)
(0.126394 -0.00444658 0)
(0.128371 -0.0040068 0)
(0.130216 -0.00351348 0)
(0.131914 -0.0029678 0)
(0.133447 -0.00237179 0)
(0.134798 -0.00172819 0)
(0.135951 -0.00104164 0)
(0.13689 -0.000317927 0)
(0.137603 0.000436163 0)
(0.138076 0.00121291 0)
(0.138301 0.00200399 0)
(0.138271 0.00280109 0)
(0.137982 0.00359643 0)
(0.137434 0.00438318 0)
(0.136627 0.0051557 0)
(0.135563 0.00590966 0)
(0.134248 0.00664197 0)
(0.132686 0.00735057 0)
(0.130885 0.00803413 0)
(0.128851 0.00869176 0)
(0.126599 0.00932252 0)
(0.124114 0.00992375 0)
(0.000872152 -0.00618676 0)
(0.00210743 -0.00534156 0)
(0.00308535 -0.0048944 0)
(0.00406531 -0.0048818 0)
(0.00506727 -0.00494399 0)
(0.00609856 -0.00502266 0)
(0.00716557 -0.00511321 0)
(0.00827246 -0.00521332 0)
(0.00942293 -0.00532099 0)
(0.0106202 -0.00543354 0)
(0.011866 -0.00554862 0)
(0.0131616 -0.00566367 0)
(0.0145072 -0.0057766 0)
(0.0159019 -0.00588483 0)
(0.0173442 -0.00598652 0)
(0.0188322 -0.00608001 0)
(0.0203636 -0.00616393 0)
(0.0219352 -0.00623765 0)
(0.0235437 -0.00629944 0)
(0.0251865 -0.00634942 0)
(0.0268595 -0.00638642 0)
(0.0285595 -0.00641111 0)
(0.0302833 -0.00642267 0)
(0.032027 -0.00642083 0)
(0.0337874 -0.00640633 0)
(0.0355607 -0.00637788 0)
(0.0373435 -0.00633613 0)
(0.039132 -0.00628082 0)
(0.0409222 -0.00621196 0)
(0.04271 -0.00612942 0)
(0.0444914 -0.00603303 0)
(0.0462624 -0.00592318 0)
(0.0480183 -0.00579973 0)
(0.0497552 -0.00566319 0)
(0.0514693 -0.00551426 0)
(0.0531563 -0.00535373 0)
(0.0548127 -0.00518333 0)
(0.0564352 -0.00500438 0)
(0.0580214 -0.0048187 0)
(0.0595689 -0.00462866 0)
(0.0610761 -0.00443651 0)
(0.0625419 -0.00424461 0)
(0.0639659 -0.00405556 0)
(0.0653481 -0.0038721 0)
(0.0666893 -0.00369713 0)
(0.067991 -0.00353376 0)
(0.0692555 -0.00338537 0)
(0.070486 -0.00325552 0)
(0.0716869 -0.00314779 0)
(0.0728636 -0.00306575 0)
(0.0740227 -0.00301284 0)
(0.0751719 -0.00299225 0)
(0.0763199 -0.00300689 0)
(0.0774763 -0.00305927 0)
(0.0786516 -0.00315147 0)
(0.0798573 -0.00328501 0)
(0.0811056 -0.00346063 0)
(0.0824095 -0.00367793 0)
(0.0837822 -0.00393487 0)
(0.0852365 -0.00422748 0)
(0.086784 -0.00454964 0)
(0.0884341 -0.0048932 0)
(0.0901935 -0.00524821 0)
(0.0920653 -0.00560352 0)
(0.0940487 -0.00594734 0)
(0.0961393 -0.00626803 0)
(0.0983284 -0.00655475 0)
(0.100604 -0.00679803 0)
(0.102953 -0.00699007 0)
(0.105358 -0.00712494 0)
(0.107801 -0.00719855 0)
(0.110265 -0.0072084 0)
(0.112731 -0.00715331 0)
(0.115182 -0.00703302 0)
(0.117599 -0.00684787 0)
(0.119967 -0.00659843 0)
(0.122268 -0.00628533 0)
(0.124487 -0.00590909 0)
(0.126606 -0.00547007 0)
(0.128611 -0.00496861 0)
(0.130484 -0.00440522 0)
(0.132208 -0.00378095 0)
(0.133766 -0.00309771 0)
(0.13514 -0.00235853 0)
(0.136313 -0.00156824 0)
(0.137269 -0.000733209 0)
(0.137993 0.000138754 0)
(0.138473 0.00103873 0)
(0.138698 0.00195705 0)
(0.138663 0.00288397 0)
(0.138364 0.00381034 0)
(0.1378 0.00472813 0)
(0.136971 0.00563069 0)
(0.135882 0.00651286 0)
(0.134537 0.00737087 0)
(0.132941 0.00820206 0)
(0.131103 0.00900458 0)
(0.129027 0.00977697 0)
(0.126729 0.0105178 0)
(0.124192 0.0112239 0)
(0.000868847 -0.0069248 0)
(0.00209031 -0.00589371 0)
(0.00305575 -0.0053836 0)
(0.00402348 -0.00537372 0)
(0.00501425 -0.00544947 0)
(0.00603528 -0.00554488 0)
(0.00709306 -0.00565439 0)
(0.00819206 -0.00577582 0)
(0.00933604 -0.00590633 0)
(0.0105282 -0.00604306 0)
(0.0117706 -0.00618316 0)
(0.0130642 -0.00632332 0)
(0.0144092 -0.00646133 0)
(0.0158048 -0.00659425 0)
(0.0172492 -0.00671969 0)
(0.0187404 -0.00683566 0)
(0.0202758 -0.00694065 0)
(0.0218523 -0.00703382 0)
(0.0234663 -0.00711347 0)
(0.0251152 -0.00717962 0)
(0.0267947 -0.00723139 0)
(0.0285015 -0.00726874 0)
(0.0302325 -0.00729128 0)
(0.0319837 -0.00729882 0)
(0.0337519 -0.00729165 0)
(0.0355334 -0.00726904 0)
(0.0373244 -0.00723116 0)
(0.0391216 -0.00717777 0)
(0.0409206 -0.00710873 0)
(0.0427174 -0.0070241 0)
(0.044508 -0.00692355 0)
(0.0462881 -0.0068074 0)
(0.0480532 -0.00667536 0)
(0.049799 -0.0065282 0)
(0.0515215 -0.00636669 0)
(0.0532162 -0.0061917 0)
(0.0548794 -0.00600499 0)
(0.056508 -0.00580823 0)
(0.058099 -0.00560353 0)
(0.0596501 -0.00539346 0)
(0.0611596 -0.00518059 0)
(0.0626264 -0.00496757 0)
(0.0640498 -0.00475727 0)
(0.0654299 -0.00455276 0)
(0.0667673 -0.00435723 0)
(0.0680635 -0.0041742 0)
(0.0693204 -0.00400752 0)
(0.0705415 -0.00386121 0)
(0.0717308 -0.00373945 0)
(0.0728939 -0.0036464 0)
(0.0740375 -0.00358607 0)
(0.0751694 -0.00356218 0)
(0.0762986 -0.00357814 0)
(0.0774349 -0.00363692 0)
(0.0785889 -0.00374109 0)
(0.0797726 -0.00389264 0)
(0.0809988 -0.00409277 0)
(0.082281 -0.00434135 0)
(0.0836337 -0.00463634 0)
(0.0850705 -0.00497339 0)
(0.0866044 -0.00534556 0)
(0.0882457 -0.00574341 0)
(0.090002 -0.00615536 0)
(0.0918769 -0.00656831 0)
(0.0938698 -0.00696844 0)
(0.0959759 -0.00734208 0)
(0.098186 -0.00767654 0)
(0.100488 -0.00796079 0)
(0.102866 -0.00818586 0)
(0.105302 -0.00834504 0)
(0.107779 -0.00843381 0)
(0.110278 -0.00844954 0)
(0.112779 -0.00839116 0)
(0.115264 -0.00825865 0)
(0.117716 -0.00805263 0)
(0.120118 -0.00777395 0)
(0.122453 -0.00742345 0)
(0.124705 -0.00700172 0)
(0.126858 -0.00650911 0)
(0.128896 -0.00594577 0)
(0.130802 -0.005312 0)
(0.132558 -0.00460858 0)
(0.134147 -0.00383726 0)
(0.135549 -0.0030012 0)
(0.136748 -0.00210547 0)
(0.137725 -0.0011571 0)
(0.138466 -0.000164895 0)
(0.138958 0.000860874 0)
(0.13919 0.00190906 0)
(0.139156 0.00296838 0)
(0.138853 0.00402824 0)
(0.13828 0.00507931 0)
(0.137439 0.0061139 0)
(0.136335 0.00712607 0)
(0.134971 0.00811143 0)
(0.133355 0.00906685 0)
(0.131493 0.00999002 0)
(0.129391 0.0108791 0)
(0.127064 0.0117323 0)
(0.124494 0.0125456 0)
(0.000865486 -0.00765811 0)
(0.00207292 -0.00643931 0)
(0.00302585 -0.00586679 0)
(0.003982 -0.00586035 0)
(0.0049622 -0.00594993 0)
(0.00597372 -0.00606274 0)
(0.00702329 -0.0061919 0)
(0.00811552 -0.00633519 0)
(0.00925432 -0.0064894 0)
(0.0104429 -0.00665111 0)
(0.0116836 -0.00681702 0)
(0.0129769 -0.00698308 0)
(0.0143232 -0.00714684 0)
(0.0157215 -0.00730508 0)
(0.01717 -0.00745488 0)
(0.0186663 -0.00759375 0)
(0.0202076 -0.00772022 0)
(0.0217907 -0.00783317 0)
(0.0234119 -0.00793096 0)
(0.0250681 -0.00801339 0)
(0.0267553 -0.00808003 0)
(0.0284701 -0.00813021 0)
(0.0302093 -0.00816384 0)
(0.0319687 -0.00818078 0)
(0.0337453 -0.00818108 0)
(0.0355353 -0.00816437 0)
(0.0373351 -0.00813031 0)
(0.0391412 -0.00807912 0)
(0.0409492 -0.00801001 0)
(0.042755 -0.00792325 0)
(0.0445547 -0.00781851 0)
(0.046344 -0.00769595 0)
(0.0481181 -0.00755532 0)
(0.0498725 -0.00739735 0)
(0.0516032 -0.00722289 0)
(0.0533054 -0.00703306 0)
(0.0549751 -0.00682958 0)
(0.0566091 -0.00661444 0)
(0.0582043 -0.0063901 0)
(0.0597582 -0.00615936 0)
(0.0612691 -0.00592506 0)
(0.0627358 -0.00569017 0)
(0.0641575 -0.00545785 0)
(0.0655342 -0.00523144 0)
(0.0668664 -0.00501447 0)
(0.0681554 -0.00481083 0)
(0.0694031 -0.00462481 0)
(0.0706126 -0.004461 0)
(0.0717881 -0.00432414 0)
(0.0729352 -0.00421905 0)
(0.0740606 -0.00415034 0)
(0.0751725 -0.00412229 0)
(0.0762799 -0.00413881 0)
(0.0773928 -0.00420334 0)
(0.0785222 -0.00431897 0)
(0.0796804 -0.00448827 0)
(0.0808806 -0.00471297 0)
(0.0821374 -0.00499335 0)
(0.0834663 -0.00532749 0)
(0.0848824 -0.00571071 0)
(0.0863998 -0.00613522 0)
(0.0880304 -0.00659022 0)
(0.0897826 -0.00706234 0)
(0.0916607 -0.00753635 0)
(0.0936642 -0.00799616 0)
(0.095788 -0.00842588 0)
(0.0980222 -0.00881082 0)
(0.100353 -0.00913828 0)
(0.102765 -0.00939807 0)
(0.105238 -0.00958272 0)
(0.107754 -0.00968732 0)
(0.110291 -0.00970924 0)
(0.112832 -0.0096476 0)
(0.115357 -0.00950273 0)
(0.117848 -0.00927563 0)
(0.120288 -0.00896752 0)
(0.12266 -0.00857945 0)
(0.12495 -0.00811215 0)
(0.127141 -0.00756586 0)
(0.129216 -0.00694054 0)
(0.131159 -0.00623613 0)
(0.132952 -0.00545306 0)
(0.134577 -0.00459283 0)
(0.136013 -0.00365857 0)
(0.137241 -0.00265563 0)
(0.138245 -0.0015917 0)
(0.139007 -0.000476706 0)
(0.139514 0.000677607 0)
(0.139755 0.00185844 0)
(0.139724 0.00305283 0)
(0.139419 0.00424852 0)
(0.138839 0.00543484 0)
(0.137987 0.00660306 0)
(0.136869 0.00774648 0)
(0.135491 0.00886021 0)
(0.133857 0.00994073 0)
(0.131977 0.0109855 0)
(0.129855 0.0119922 0)
(0.127507 0.0129591 0)
(0.124913 0.0138812 0)
(0.000861757 -0.00838627 0)
(0.00205373 -0.00697769 0)
(0.00299274 -0.00634386 0)
(0.00393647 -0.00634137 0)
(0.00490539 -0.00644537 0)
(0.00590681 -0.00657607 0)
(0.00694784 -0.00672569 0)
(0.00803301 -0.00689165 0)
(0.00916657 -0.00707041 0)
(0.0103518 -0.00725798 0)
(0.0115911 -0.00745054 0)
(0.0128849 -0.00764345 0)
(0.0142331 -0.00783386 0)
(0.015635 -0.00801794 0)
(0.0170886 -0.00819263 0)
(0.0185911 -0.0083547 0)
(0.0201393 -0.00850325 0)
(0.02173 -0.00863623 0)
(0.0233593 -0.00875238 0)
(0.0250238 -0.0088513 0)
(0.0267196 -0.00893272 0)
(0.0284432 -0.00899582 0)
(0.0301913 -0.00904066 0)
(0.0319596 -0.00906709 0)
(0.0337452 -0.00907498 0)
(0.0355445 -0.00906407 0)
(0.0373535 -0.00903396 0)
(0.0391691 -0.00898492 0)
(0.0409867 -0.00891593 0)
(0.0428023 -0.00882707 0)
(0.0446117 -0.00871813 0)
(0.0464109 -0.00858901 0)
(0.0481947 -0.00843978 0)
(0.0499583 -0.0082708 0)
(0.0516977 -0.0080831 0)
(0.0534078 -0.00787796 0)
(0.0550845 -0.00765718 0)
(0.0567243 -0.00742303 0)
(0.0583239 -0.00717837 0)
(0.0598807 -0.00692624 0)
(0.061393 -0.00666977 0)
(0.0628593 -0.00641222 0)
(0.0642791 -0.00615705 0)
(0.065652 -0.00590784 0)
(0.0669784 -0.00566845 0)
(0.0682595 -0.00544313 0)
(0.0694969 -0.00523664 0)
(0.0706936 -0.00505411 0)
(0.0718538 -0.00490097 0)
(0.072983 -0.00478267 0)
(0.0740882 -0.0047045 0)
(0.0751776 -0.00467131 0)
(0.0762605 -0.0046875 0)
(0.0773472 -0.00475703 0)
(0.0784489 -0.0048835 0)
(0.0795781 -0.00507014 0)
(0.0807487 -0.00531938 0)
(0.0819763 -0.00563208 0)
(0.0832776 -0.00600657 0)
(0.0846695 -0.0064379 0)
(0.0861676 -0.00691742 0)
(0.0877853 -0.00743289 0)
(0.0895324 -0.00796893 0)
(0.0914138 -0.00850796 0)
(0.0934293 -0.00903138 0)
(0.0955731 -0.00952082 0)
(0.0978348 -0.00995939 0)
(0.100199 -0.0103326 0)
(0.102649 -0.010629 0)
(0.105164 -0.0108404 0)
(0.107723 -0.0109615 0)
(0.110305 -0.0109899 0)
(0.112889 -0.0109249 0)
(0.115458 -0.0107675 0)
(0.117992 -0.010519 0)
(0.120474 -0.0101812 0)
(0.122889 -0.0097554 0)
(0.125221 -0.00924243 0)
(0.127453 -0.00864245 0)
(0.12957 -0.00795511 0)
(0.131555 -0.00717991 0)
(0.13339 -0.00631677 0)
(0.135054 -0.0053668 0)
(0.136528 -0.00433298 0)
(0.137792 -0.00322089 0)
(0.138826 -0.00203894 0)
(0.139612 -0.000798273 0)
(0.140137 0.000487754 0)
(0.140389 0.00180443 0)
(0.140362 0.00313686 0)
(0.140054 0.004471 0)
(0.139467 0.00579471 0)
(0.138605 0.00709821 0)
(0.137473 0.0083741 0)
(0.136077 0.00961704 0)
(0.134426 0.0108233 0)
(0.132527 0.0119901 0)
(0.130386 0.0131152 0)
(0.128016 0.0141965 0)
(0.1254 0.0152285 0)
(0.000857504 -0.00910861 0)
(0.00203199 -0.00750785 0)
(0.00295527 -0.00681421 0)
(0.00388519 -0.00681612 0)
(0.00484154 -0.00693523 0)
(0.00583165 -0.00708434 0)
(0.00686314 -0.00725529 0)
(0.00794049 -0.00744504 0)
(0.00906825 -0.00764923 0)
(0.0102498 -0.00786361 0)
(0.0114876 -0.00808366 0)
(0.0127819 -0.00830467 0)
(0.0141325 -0.00852248 0)
(0.0155386 -0.00873315 0)
(0.0169981 -0.00893335 0)
(0.0185075 -0.00911917 0)
(0.0200634 -0.00929019 0)
(0.0216628 -0.00944326 0)
(0.023301 -0.0095782 0)
(0.0249747 -0.00969374 0)
(0.02668 -0.00978991 0)
(0.0284132 -0.00986594 0)
(0.030171 -0.00992209 0)
(0.031949 -0.00995822 0)
(0.0337445 -0.00997364 0)
(0.0355538 -0.00996858 0)
(0.0373729 -0.00994264 0)
(0.0391988 -0.00989562 0)
(0.041027 -0.00982681 0)
(0.0428532 -0.00973598 0)
(0.0446734 -0.00962284 0)
(0.0464832 -0.00948719 0)
(0.0482777 -0.00932918 0)
(0.0500516 -0.00914897 0)
(0.0518007 -0.00894771 0)
(0.0535197 -0.00872676 0)
(0.0552043 -0.00848809 0)
(0.0568505 -0.00823426 0)