/*--------------------------------*- C++ -*----------------------------------*\
| =========                 |                                                 |
| \\      /  F ield         | OpenFOAM: The Open Source CFD Toolbox           |
|  \\    /   O peration     | Version:  2.4.0                                 |
|   \\  /    A nd           | Web:      www.OpenFOAM.org                      |
|    \\/     M anipulation  |                                                 |
\*---------------------------------------------------------------------------*/
FoamFile
{
    version     2.0;
    format      ascii;
    class       volScalarField;
    location    "0.433";
    object      p_rgh;
}
// * * * * * * * * * * * * * * * * * * * * * * * * * * * * * * * * * * * * * //

dimensions      [1 -1 -2 0 0 0 0];

internalField   nonuniform List<scalar> 
10000
(
0.000794131
0.000793863
0.000793509
0.000793188
0.000792979
0.000792925
0.000793047
0.000793352
0.000793837
0.000794497
0.00079532
0.000796296
0.00079741
0.000798651
0.000800006
0.000801462
0.000803008
0.000804637
0.000806339
0.000808113
0.000809958
0.00081188
0.000813891
0.000816008
0.000818255
0.000820663
0.000823271
0.000826125
0.00082928
0.000832794
0.000836728
0.000841136
0.000846055
0.000851499
0.000857446
0.000863839
0.000870597
0.00087764
0.000884903
0.000892347
0.000899949
0.000907698
0.000915582
0.000923591
0.000931704
0.000939897
0.00094814
0.000956402
0.000964652
0.000972859
0.000794402
0.000794133
0.000793836
0.000793595
0.000793459
0.00079346
0.000793619
0.000793942
0.00079443
0.00079508
0.000795885
0.000796837
0.000797926
0.000799141
0.000800473
0.000801912
0.000803449
0.000805077
0.000806792
0.000808591
0.000810475
0.000812452
0.000814533
0.000816734
0.00081908
0.0008216
0.000824329
0.00082731
0.000830591
0.000834223
0.000838255
0.000842732
0.000847686
0.000853123
0.000859026
0.000865346
0.000872013
0.000878959
0.000886126
0.000893477
0.000900986
0.00090864
0.000916423
0.000924319
0.00093231
0.000940372
0.000948477
0.000956599
0.000964707
0.000972777
0.000794753
0.000794432
0.000794139
0.00079394
0.000793855
0.000793899
0.000794087
0.000794427
0.00079492
0.000795565
0.000796357
0.000797291
0.00079836
0.000799556
0.000800872
0.000802299
0.000803832
0.000805463
0.000807191
0.000809014
0.000810933
0.000812957
0.000815096
0.000817367
0.000819792
0.000822399
0.000825221
0.000828298
0.000831671
0.000835387
0.000839489
0.000844018
0.000849
0.000854445
0.000860336
0.000866629
0.000873253
0.00088014
0.000887238
0.000894512
0.00090194
0.000909506
0.000917196
0.000924991
0.000932872
0.000940816
0.000948798
0.000956793
0.000964775
0.000972719
0.000795063
0.00079467
0.000794347
0.000794157
0.000794095
0.000794164
0.000794373
0.000794726
0.000795224
0.000795868
0.000796655
0.00079758
0.000798638
0.000799824
0.000801132
0.000802555
0.000804089
0.000805728
0.000807468
0.00080931
0.000811255
0.000813311
0.000815487
0.0008178
0.00082027
0.000822925
0.000825795
0.000828916
0.00083233
0.000836079
0.000840207
0.000844756
0.000849757
0.000855226
0.000861152
0.000867484
0.000874132
0.000881017
0.000888086
0.000895312
0.000902682
0.000910181
0.000917798
0.000925516
0.000933315
0.000941173
0.000949064
0.000956965
0.00096485
0.000972697
0.000795243
0.000794792
0.000794438
0.000794246
0.000794197
0.000794282
0.000794506
0.00079487
0.000795375
0.000796021
0.000796806
0.000797727
0.00079878
0.000799963
0.000801269
0.000802694
0.000804233
0.000805881
0.000807635
0.000809492
0.000811456
0.00081353
0.000815727
0.000818059
0.000820547
0.000823217
0.000826096
0.000829221
0.00083263
0.000836366
0.000840479
0.000845018
0.000850024
0.000855531
0.000861537
0.000867985
0.000874729
0.000881663
0.000888735
0.000895934
0.000903259
0.000910707
0.000918269
0.00092593
0.000933671
0.000941467
0.000949293
0.000957125
0.000964939
0.00097271
0.000795243
0.000794761
0.00079439
0.000794201
0.000794163
0.000794263
0.0007945
0.000794874
0.000795387
0.000796036
0.000796822
0.000797742
0.000798795
0.000799978
0.000801287
0.000802719
0.000804267
0.000805927
0.000807694
0.000809566
0.000811541
0.000813625
0.000815827
0.00081816
0.000820642
0.000823297
0.000826152
0.000829241
0.0008326
0.000836276
0.000840326
0.000844815
0.000849802
0.000855353
0.000861498
0.00086817
0.000875103
0.000882142
0.000889236
0.000896414
0.0009037
0.000911105
0.000918625
0.000926248
0.000933952
0.00094171
0.000949496
0.000957284
0.000965047
0.000972764
0.000795039
0.000794554
0.000794189
0.000794012
0.000793989
0.000794105
0.000794357
0.000794742
0.000795263
0.000795917
0.000796705
0.000797627
0.000798682
0.000799869
0.000801185
0.000802627
0.000804189
0.000805865
0.000807648
0.000809532
0.000811516
0.000813601
0.000815795
0.000818111
0.000820564
0.000823176
0.000825973
0.000828985
0.000832247
0.000835804
0.000839729
0.000844108
0.000849026
0.000854612
0.000860972
0.000868054
0.000875317
0.00088252
0.000889632
0.000896773
0.000904011
0.000911374
0.000918866
0.00092647
0.000934161
0.000941909
0.000949681
0.000957449
0.000965186
0.000972868
0.000794623
0.000794165
0.000793827
0.000793675
0.000793675
0.000793811
0.000794078
0.000794477
0.000795005
0.000795665
0.000796457
0.000797381
0.000798439
0.000799632
0.000800958
0.000802415
0.000803997
0.000805696
0.000807499
0.000809398
0.000811386
0.000813465
0.000815641
0.000817922
0.000820323
0.000822861
0.000825561
0.000828451
0.000831556
0.000834913
0.000838619
0.000842787
0.000847527
0.000853093
0.000859774
0.000867631
0.000875463
0.000882896
0.000889977
0.000897029
0.000904188
0.000911507
0.000918982
0.000926592
0.0009343
0.000942066
0.000949854
0.00095763
0.000965365
0.000973036
0.000794
0.000793597
0.000793307
0.000793193
0.000793223
0.000793383
0.000793669
0.000794081
0.000794618
0.000795282
0.000796076
0.000797002
0.000798063
0.000799263
0.000800602
0.00080208
0.00080369
0.000805421
0.000807253
0.00080917
0.000811163
0.000813228
0.000815369
0.00081759
0.000819899
0.000822311
0.000824848
0.000827542
0.000830394
0.000833422
0.000836756
0.000840548
0.000844872
0.000850222
0.00085734
0.000866735
0.000875571
0.000883319
0.000890236
0.000897118
0.000904177
0.000911462
0.000918949
0.0009266
0.000934364
0.000942188
0.000950026
0.000957841
0.000965603
0.000973283
0.000793187
0.00079286
0.000792637
0.000792572
0.000792639
0.000792827
0.000793134
0.000793559
0.000794104
0.000794771
0.000795564
0.000796489
0.00079755
0.000798756
0.000800111
0.000801616
0.000803266
0.000805043
0.000806918
0.000808857
0.000810841
0.000812866
0.000814928
0.000817022
0.000819156
0.000821345
0.000823622
0.000826034
0.000828522
0.000831044
0.00083381
0.000837042
0.000840537
0.000845143
0.000852697
0.000865206
0.000875653
0.000883677
0.000890038
0.000896664
0.000903687
0.000911053
0.000918662
0.000926448
0.000934342
0.000942279
0.000950211
0.000958101
0.000965917
0.000973632
0.000792207
0.000791973
0.000791831
0.000791823
0.000791933
0.000792152
0.00079248
0.000792918
0.000793468
0.000794134
0.000794922
0.000795839
0.000796896
0.000798103
0.000799473
0.000801011
0.000802713
0.000804554
0.000806478
0.000808417
0.000810339
0.000812243
0.000814131
0.000816003
0.000817885
0.00081981
0.000821837
0.00082404
0.000826167
0.000828014
0.000829992
0.000832533
0.000834769
0.000837675
0.000845022
0.000864027
0.000876686
0.000884432
0.000889001
0.000895051
0.000902066
0.000909712
0.000917701
0.000925878
0.000934109
0.000942301
0.000950411
0.000958427
0.000966336
0.000974113
0.000791088
0.000790959
0.000790906
0.000790961
0.000791117
0.000791368
0.000791717
0.000792166
0.000792717
0.000793377
0.000794151
0.000795051
0.000796091
0.000797288
0.000798661
0.000800223
0.000801973
0.000803876
0.000805827
0.000807698
0.000809464
0.000811175
0.000812847
0.000814487
0.000816164
0.000817929
0.000819893
0.000822231
0.000824208
0.000825226
0.000826482
0.000828024
0.000828165
0.000828922
0.00083384
0.000866239
0.000882595
0.00088831
0.000888224
0.000892394
0.000898967
0.000906934
0.00091549
0.000924335
0.000933229
0.000941981
0.000950501
0.000958789
0.000966872
0.000974755
0.000789865
0.000789844
0.000789883
0.000790003
0.000790204
0.000790487
0.000790855
0.000791311
0.000791859
0.000792503
0.000793252
0.000794119
0.000795117
0.000796267
0.000797589
0.000799112
0.000800854
0.000802786
0.000804746
0.000806538
0.000808182
0.000809781
0.000811318
0.000812775
0.000814309
0.000815959
0.000817981
0.000821064
0.000823491
0.000823167
0.000823876
0.000829895
0.000823846
0.000810547
0.000823839
0.000897828
0.000914537
0.000905487
0.000888777
0.000887373
0.000894117
0.000903278
0.000912644
0.000922111
0.000931611
0.000940984
0.000950109
0.000958926
0.00096741
0.000975545
0.000788573
0.000788657
0.000788785
0.000788966
0.00078921
0.000789522
0.000789906
0.000790365
0.000790903
0.000791522
0.00079223
0.00079303
0.000793924
0.000794922
0.00079607
0.000797439
0.000799105
0.000801076
0.000803141
0.000805027
0.000806791
0.0008085
0.000809985
0.000811184
0.000812454
0.000813675
0.000815323
0.000819777
0.000824367
0.000826305
0.000831296
0.000831434
0.000818928
0.000856188
0.000788355
0.000995048
0.00100451
0.000949896
0.000880954
0.000879568
0.00089204
0.000903721
0.000912953
0.000921794
0.000930903
0.000940156
0.000949415
0.00095861
0.00096763
0.000976271
0.000787248
0.000787426
0.000787632
0.000787868
0.00078815
0.000788487
0.000788883
0.000789342
0.000789863
0.000790446
0.000791081
0.000791742
0.000792406
0.000793119
0.000794001
0.000795191
0.000796806
0.000798876
0.000801182
0.000803439
0.000805681
0.000807815
0.000809288
0.00080995
0.000810566
0.00081048
0.000810384
0.000816577
0.000824666
0.000831481
0.000842981
0.000844026
0.000830292
0.00075265
0.00066145
0.00192719
0.00159502
0.00113851
0.000970601
0.000929121
0.000924947
0.000920248
0.000920881
0.00092551
0.000932567
0.000940709
0.00094935
0.000958361
0.000967621
0.000976747
0.000785924
0.000786177
0.000786446
0.000786725
0.000787037
0.000787394
0.0007878
0.000788255
0.000788756
0.000789284
0.000789788
0.0007902
0.000790541
0.000790974
0.00079169
0.000792826
0.000794477
0.000796652
0.000799244
0.000802131
0.000805317
0.000808371
0.000810046
0.000809836
0.000809051
0.000805693
0.000802485
0.000811667
0.000824339
0.00084234
0.000863497
0.000945319
0.000914589
0.00107922
0.00337584
0.0102463
0.0104383
0.00848538
0.00144295
0.00108763
0.000970278
0.00093904
0.00092914
0.000929341
0.000934643
0.000941823
0.000949764
0.00095843
0.000967842
0.0009774
0.000784631
0.000784932
0.000785243
0.000785551
0.000785884
0.000786256
0.00078667
0.000787123
0.000787599
0.000788042
0.000788345
0.000788466
0.000788577
0.000788946
0.000789752
0.000791044
0.000792849
0.000795164
0.000798117
0.000801877
0.000806502
0.00081137
0.000814085
0.000813112
0.000810169
0.000800058
0.000786685
0.000804054
0.000821998
0.000833436
0.000850196
0.000869821
0.000907995
0.000990946
0.00198213
0.0100267
0.0106401
0.0043819
0.00112856
0.0010004
0.000959438
0.000936394
0.000924921
0.000926963
0.00093425
0.000941853
0.000949459
0.000957999
0.000968107
0.000978823
0.000783388
0.000783706
0.000784032
0.000784352
0.000784697
0.00078508
0.000785504
0.000785959
0.000786408
0.000786739
0.000786831
0.00078678
0.00078691
0.000787515
0.000788711
0.000790426
0.000792669
0.000795527
0.000799278
0.000804203
0.000810734
0.000818748
0.000823932
0.000824408
0.000832803
0.000803982
0.000748055
0.000803185
0.000834277
0.000838148
0.000843619
0.000852751
0.00084123
0.000834281
0.000840377
0.00183307
0.0017291
0.0012535
0.00107486
0.000994385
0.000959831
0.000930922
0.000916116
0.000922046
0.000932178
0.000939965
0.000946785
0.000955301
0.000967348
0.000981497
0.000782207
0.000782505
0.000782816
0.00078313
0.000783476
0.000783869
0.000784307
0.000784774
0.000785199
0.000785429
0.000785406
0.000785393
0.000785788
0.000786863
0.000788667
0.000791055
0.000794203
0.000798535
0.000804144
0.000811007
0.000820922
0.000835053
0.000837743
0.00084404
0.000832057
0.00083877
0.00202306
0.000849484
0.000856695
0.000847768
0.000841514
0.000850484
0.000838433
0.000818131
0.000833492
0.00100398
0.00103186
0.00094414
0.000868559
0.000882577
0.000894888
0.000898219
0.000906391
0.000920647
0.000930712
0.000936084
0.000940583
0.000949033
0.000964899
0.000986813
0.000781084
0.000781324
0.000781588
0.000781877
0.000782216
0.000782617
0.000783078
0.000783571
0.000783993
0.000784185
0.0007842
0.000784408
0.000785209
0.000786827
0.000789261
0.000792311
0.000796404
0.000802722
0.000811381
0.000822094
0.000843722
0.000861577
0.000867729
0.000855979
0.000890036
0.000983819
0.0011813
0.000965017
0.00087303
0.000851039
0.000842526
0.000837067
0.000844001
0.000861525
0.000871762
0.000909669
0.000925695
0.00091259
0.00090422
0.00090835
0.00091454
0.000909283
0.000902759
0.000919333
0.000929248
0.000929749
0.000928891
0.000935108
0.000958579
0.000999368
0.00078
0.000780143
0.000780331
0.000780577
0.000780901
0.00078131
0.000781803
0.00078234
0.000782801
0.000783054
0.000783244
0.000783783
0.00078503
0.000787131
0.000790082
0.000793444
0.00079795
0.000805659
0.000816964
0.000825991
0.000840917
0.000869201
0.000875529
0.00101945
0.000967094
0.00102541
0.000992853
0.000876467
0.000843966
0.000848512
0.000846008
0.000838238
0.000834647
0.000841062
0.000865881
0.000907743
0.0009189
0.000909438
0.000896043
0.000893822
0.000897947
0.000928187
0.00175128
0.000928537
0.000935733
0.000927653
0.000912559
0.00090439
0.000949432
0.00104846
0.000778921
0.000778933
0.000779016
0.000779203
0.000779504
0.000779923
0.000780456
0.000781061
0.000781614
0.000782022
0.000782481
0.000783394
0.000785071
0.000787607
0.000791039
0.000794692
0.000799784
0.000808428
0.000820955
0.000807622
0.000786472
0.00220325
0.000956117
0.000849129
0.0010008
0.00124959
0.00154312
0.000781191
0.000887834
0.000847421
0.00084745
0.000842314
0.000834722
0.000837058
0.000847551
0.00086765
0.000881738
0.000890136
0.000900019
0.00090517
0.000899891
0.000920352
0.000960399
0.000925757
0.000914403
0.00092294
0.000930699
0.000938768
0.00097452
0.00132615
0.000777797
0.00077765
0.000777607
0.000777722
0.000777993
0.000778421
0.000779002
0.000779695
0.00078039
0.000781021
0.000781792
0.00078308
0.000785165
0.00078818
0.000792238
0.000796866
0.000803823
0.000814638
0.000823058
0.000844698
0.00111119
0.000998166
0.00113282
0.000846228
0.00649344
0.010629
0.0104992
0.00368858
0.000971504
0.000880999
0.000826442
0.000824939
0.000825984
0.000831522
0.000841428
0.000856395
0.000871381
0.00088431
0.000896725
0.000907233
0.000917677
0.00092307
0.000928095
0.000926941
0.000923465
0.000938165
0.000931691
0.000813921
0.00185288
0.00690495
0.000776569
0.000776243
0.000776059
0.00077609
0.000776326
0.000776762
0.000777394
0.00077819
0.000779057
0.000779946
0.000781035
0.000782666
0.000785119
0.000788599
0.000793332
0.000799179
0.000808277
0.000817255
0.000833049
0.00146094
0.000872083
0.000951274
0.00105495
0.00249953
0.0104322
0.0106302
0.0105525
0.00969409
0.00133477
0.00089868
0.00123363
0.000809024
0.00082039
0.000825171
0.000836481
0.000847799
0.000859331
0.000870298
0.000880626
0.00088781
0.000891165
0.00091789
0.000952133
0.000961857
0.000949438
0.000973665
0.0010536
0.00132552
0.00645423
0.0070968
0.000775169
0.000774655
0.000774321
0.000774264
0.00077446
0.0007749
0.000775582
0.000776482
0.000777532
0.000778684
0.000780075
0.000782001
0.000784744
0.000788558
0.000794058
0.000801179
0.000809983
0.000821104
0.000912306
0.000840714
0.000854995
0.000912722
0.000970635
0.0029183
0.0105398
0.0105985
0.0106491
0.00956148
0.00134333
0.000870741
0.000808886
0.000825158
0.000832394
0.000831625
0.000834449
0.000845027
0.000857884
0.000871027
0.000883607
0.000899187
0.000919432
0.00110582
0.00106164
0.00099405
0.00097129
0.000962287
0.0009618
0.000873166
0.00241675
0.00707867
0.000773528
0.000772827
0.000772342
0.000772195
0.000772349
0.000772789
0.000773514
0.000774511
0.000775732
0.000777132
0.000778793
0.000780952
0.000783855
0.00078787
0.000793866
0.000800542
0.000808721
0.00084602
0.000830761
0.000839355
0.000892511
0.000876008
0.000856697
0.000789278
0.00656803
0.0105901
0.0105088
0.00366412
0.000934232
0.000913251
0.00088038
0.000889094
0.000876219
0.000841488
0.00083473
0.00083982
0.00085647
0.000873163
0.000884543
0.000891966
0.000903953
0.000902374
0.000905472
0.000927922
0.00094424
0.000971153
0.000953597
0.000906291
0.000879983
0.0014242
0.000771578
0.0007707
0.000770071
0.000769837
0.000769949
0.000770385
0.000771144
0.000772223
0.000773591
0.000775208
0.000777106
0.00077944
0.00078242
0.000786607
0.000791854
0.000797729
0.0008138
0.000814904
0.000818322
0.000836101
0.000888583
0.000862543
0.000839532
0.000809693
0.00105591
0.00117453
0.00147104
0.000757245
0.00085002
0.00087421
0.00091204
0.000935333
0.000933265
0.00155854
0.000828904
0.000846294
0.000853748
0.000875049
0.000906168
0.000897332
0.000891584
0.000897321
0.000900176
0.000913169
0.00095105
0.0010609
0.00111405
0.00113517
0.00100218
0.000882792
0.000769256
0.000768219
0.000767462
0.000767149
0.000767221
0.00076765
0.000768435
0.000769577
0.000771061
0.000772858
0.00077496
0.000777451
0.000780512
0.000784381
0.000789231
0.000795855
0.000802107
0.000808803
0.000815253
0.000817422
0.00113968
0.000852023
0.000850345
0.000854139
0.000925172
0.000977207
0.000966254
0.000836694
0.000824606
0.000859278
0.000879255
0.00161503
0.000865394
0.000867372
0.000844831
0.000852138
0.000856466
0.000869214
0.00170669
0.000905221
0.00090233
0.000894993
0.000882652
0.000856613
0.000883376
0.00115637
0.00122592
0.00128455
0.000925038
0.000877688
0.000766509
0.00076534
0.000764474
0.000764093
0.000764129
0.000764551
0.000765355
0.000766544
0.000768115
0.000770049
0.000772329
0.000774978
0.000778097
0.000781821
0.000786313
0.000791746
0.000798644
0.000804878
0.000809641
0.00082116
0.000820612
0.000835627
0.000859023
0.000902437
0.000902012
0.000922839
0.000933569
0.000851024
0.000846411
0.000846415
0.000834802
0.000806187
0.0010473
0.000858139
0.000848436
0.000848769
0.000856884
0.000880917
0.000861147
0.000891115
0.000908238
0.000905046
0.000881966
0.000785669
0.000503386
0.00203609
0.00138958
0.00280899
0.000785231
0.00059061
0.000763297
0.000762024
0.000761072
0.000760638
0.000760646
0.000761062
0.000761881
0.000763104
0.000764735
0.000766767
0.000769187
0.000771986
0.000775194
0.000778878
0.000783143
0.000788165
0.000794041
0.000800163
0.000805371
0.000813549
0.000818592
0.000832285
0.000844526
0.000859338
0.000877339
0.00103677
0.000874326
0.000879963
0.000877717
0.000819967
0.000822207
0.000815253
0.0008217
0.000838762
0.000844251
0.000845658
0.00085204
0.000858614
0.000868707
0.000891739
0.000918364
0.000949929
0.000994099
0.000978165
0.00152513
0.016495
0.018833
0.0182647
0.00676767
0.000406529
0.000759587
0.000758243
0.000757232
0.00075676
0.00075675
0.000757163
0.000757994
0.000759244
0.000760916
0.000763013
0.000765531
0.000768461
0.000771795
0.000775545
0.000779743
0.000784441
0.000789864
0.000796043
0.000803714
0.000808976
0.000815669
0.000824654
0.000838309
0.000840414
0.000849201
0.000852571
0.000860699
0.000867516
0.000813606
0.000815144
0.000819062
0.000818538
0.00082131
0.00082801
0.0008325
0.000836642
0.000842843
0.000852409
0.000867659
0.000892027
0.000927056
0.000975152
0.00106498
0.0012399
0.0146911
0.0189695
0.0188833
0.0188866
0.0191821
0.00305767
0.000755363
0.000753978
0.000752935
0.000752443
0.000752425
0.00075284
0.000753682
0.000754953
0.000756654
0.000758792
0.000761372
0.000764392
0.000767847
0.000771721
0.000776004
0.000780721
0.000786045
0.00079215
0.000798707
0.000804017
0.000810438
0.000818056
0.000825701
0.000831062
0.00083664
0.000839649
0.000843408
0.000828557
0.00081849
0.000817189
0.000817145
0.000816264
0.000817723
0.000819721
0.000822669
0.000826622
0.000832803
0.000841927
0.000855311
0.000878424
0.00091409
0.000970152
0.00106412
0.0012309
0.00559356
0.0187422
0.0189774
0.0191173
0.0133659
0.00130775
0.000750615
0.000749221
0.00074817
0.000747675
0.000747659
0.000748082
0.000748938
0.000750226
0.000751949
0.000754113
0.000756725
0.000759795
0.000763324
0.000767305
0.000771722
0.000776574
0.000781937
0.000787834
0.000793974
0.000800261
0.000806482
0.000813082
0.00081872
0.000823686
0.00082799
0.000829831
0.000829905
0.000824766
0.000819827
0.000816346
0.000814849
0.000813423
0.000812656
0.000812645
0.000813255
0.000815112
0.000819092
0.00082555
0.0008355
0.000851358
0.00087651
0.000916465
0.000979785
0.00114835
0.00401945
0.0179185
0.0192042
0.0188925
0.0122674
0.00147087
0.000745345
0.000743969
0.000742933
0.000742452
0.000742449
0.000742887
0.000743758
0.000745062
0.000746801
0.000748979
0.000751606
0.00075469
0.000758238
0.000762249
0.000766714
0.000771618
0.000776956
0.000782686
0.000788685
0.000794828
0.000801068
0.000807429
0.000813268
0.000818387
0.000822578
0.000825095
0.000825554
0.000823849
0.000820858
0.000818233
0.000815432
0.000812094
0.000808603
0.000805214
0.000802798
0.000801614
0.000802489
0.000805613
0.000809142
0.000814401
0.00082136
0.000829063
0.000810361
0.00067045
0.000175371
0.00184733
0.0066442
0.00516619
0.000570517
0.000536417
0.000739562
0.000738227
0.000737227
0.000736774
0.000736794
0.000737252
0.000738141
0.000739461
0.000741212
0.000743398
0.000746025
0.000749098
0.000752615
0.000756566
0.000760929
0.000765678
0.000770784
0.000776209
0.000781871
0.000787654
0.000793611
0.000799568
0.000805301
0.000810474
0.00081474
0.000817599
0.000819097
0.00081944
0.000818588
0.000817071
0.000814745
0.000811303
0.000806739
0.000800692
0.000793983
0.000787594
0.000783932
0.000783789
0.000785391
0.000787561
0.000781531
0.000777779
0.000743551
0.000659676
0.000561923
0.000722828
0.0007503
0.000760746
0.000659573
0.000638012
0.000733281
0.000732006
0.000731059
0.000730645
0.000730697
0.000731181
0.000732092
0.000733428
0.000735189
0.000737379
0.000739999
0.000743046
0.000746504
0.000750351
0.000754565
0.00075913
0.000764033
0.000769249
0.000774721
0.00078038
0.000786136
0.000791859
0.000797309
0.000802261
0.000806517
0.000809947
0.000812418
0.000813348
0.000812872
0.000811085
0.000807846
0.000803053
0.000796991
0.000789132
0.000782198
0.00077467
0.00076845
0.000764056
0.000761542
0.000757812
0.000749101
0.00073748
0.000715779
0.000680705
0.000654238
0.000697681
0.000706088
0.000715202
0.000690886
0.000691595
0.00072652
0.000725319
0.000724437
0.000724074
0.000724165
0.00072468
0.000725615
0.000726969
0.000728742
0.000730934
0.000733543
0.000736553
0.000739937
0.000743674
0.000747763
0.000752215
0.000757031
0.000762193
0.000767652
0.000773335
0.000779155
0.00078499
0.000790664
0.000796001
0.000800853
0.000805065
0.00080842
0.000810534
0.000811066
0.000809729
0.00080606
0.000799684
0.000790531
0.000775398
0.000761735
0.000748545
0.00074244
0.000741567
0.000741097
0.000737403
0.000730128
0.000719824
0.00070624
0.000689771
0.000676456
0.000696432
0.000700038
0.000708443
0.000700101
0.000702202
0.000719299
0.000718182
0.000717376
0.000717069
0.000717206
0.000717757
0.000718719
0.000720093
0.000721878
0.000724073
0.000726666
0.000729625
0.000732923
0.000736561
0.000740573
0.00074499
0.00074982
0.000755043
0.000760611
0.000766458
0.0007725
0.000778632
0.000784725
0.000790645
0.000796271
0.000801474
0.000806055
0.000809614
0.000811605
0.000811535
0.000808675
0.000802001
0.000791561
0.000766055
0.000746137
0.000722475
0.00071147
0.000708456
0.000709467
0.000711147
0.000711074
0.000707746
0.000700203
0.000690543
0.000683685
0.000692222
0.000695996
0.000702317
0.000707388
0.000720359
0.00071164
0.000710613
0.000709888
0.000709643
0.000709829
0.000710419
0.000711412
0.000712808
0.000714607
0.000716802
0.000719368
0.000722261
0.00072547
0.00072904
0.000733031
0.000737485
0.000742408
0.000747773
0.000753535
0.000759634
0.000765996
0.000772537
0.000779161
0.000785774
0.000792294
0.000798645
0.00080469
0.000810081
0.000814192
0.000816681
0.000817354
0.000816316
0.000805147
0.000760507
0.000733753
0.000692145
0.000676516
0.000676119
0.000680293
0.00068421
0.000686634
0.000688065
0.00068893
0.000689123
0.000688637
0.000692789
0.000695529
0.000699795
0.000703775
0.000708896
0.000703564
0.000702628
0.000701987
0.000701807
0.000702045
0.000702677
0.000703702
0.000705121
0.000706934
0.000709123
0.000711645
0.000714459
0.000717597
0.00072114
0.000725169
0.00072972
0.00073479
0.000740351
0.000746359
0.000752761
0.000759498
0.000766505
0.000773719
0.00078108
0.000788555
0.000796135
0.000803786
0.000811407
0.000818623
0.000824976
0.000833099
0.000838362
0.000841298
0.000772764
0.00072626
0.000644371
0.000624198
0.000637257
0.000651075
0.000660176
0.000666368
0.000670423
0.0006727
0.000674551
0.000678712
0.000686254
0.00069296
0.000697366
0.000700287
0.000704783
0.000695088
0.000694245
0.000693687
0.000693574
0.000693864
0.000694539
0.000695597
0.00069704
0.000698864
0.000701036
0.000703496
0.000706232
0.000709329
0.000712896
0.000717009
0.000721695
0.000726946
0.000732731
0.000739009
0.000745738
0.00075287
0.000760364
0.000768183
0.00077629
0.000784709
0.000793529
0.000802764
0.000812585
0.00082314
0.000834155
0.000853029
0.000874797
0.000938882
0.000824403
0.000742255
0.000554209
0.00055041
0.000598212
0.000624591
0.000638636
0.000648766
0.000655942
0.000660822
0.000664724
0.000668911
0.000674324
0.000680739
0.000688941
0.000696944
0.000701995
0.00068623
0.000685477
0.000685003
0.000684956
0.000685299
0.000686015
0.000687106
0.000688573
0.000690402
0.000692539
0.000694925
0.000697601
0.000700699
0.000704329
0.000708555
0.000713396
0.000718837
0.00072485
0.000731399
0.000738449
0.000745969
0.000753941
0.000762345
0.000771137
0.000780432
0.000790507
0.000801475
0.000812914
0.000826778
0.000844098
0.000868455
0.00121947
0.00600125
0.00837989
0.00433454
0.000410099
0.000510094
0.000579267
0.000605919
0.000621713
0.000634707
0.000644101
0.000650718
0.000655956
0.000660638
0.00066575
0.00067126
0.000677277
0.00068422
0.000693573
0.000677005
0.000676339
0.000675946
0.000675963
0.000676358
0.000677117
0.000678239
0.000679726
0.000681549
0.000683633
0.000685947
0.000688594
0.00069173
0.00069545
0.000699799
0.000704791
0.000710409
0.000716628
0.000723418
0.000730753
0.000738617
0.000747018
0.000755949
0.000765313
0.000775415
0.000786624
0.000797462
0.000810553
0.000842312
0.000849778
0.000867801
0.00687534
0.0119893
0.0129707
0.0124096
0.0035972
0.000635931
0.000608314
0.000609274
0.000615205
0.000625799
0.000634985
0.000642095
0.000648153
0.000652921
0.000657778
0.000662807
0.00066796
0.000673371
0.000679395
0.000667427
0.000666844
0.000666529
0.000666608
0.000667054
0.000667852
0.000669005
0.000670506
0.00067231
0.000674329
0.000676586
0.000679238
0.00068244
0.000686257
0.000690721
0.000695839
0.000701597
0.000707968
0.000714926
0.00072245
0.000730536
0.000739226
0.000748565
0.000758312
0.000768959
0.000780843
0.000792006
0.00080424
0.000817106
0.000834317
0.000840878
0.0114806
0.0127089
0.0129012
0.013049
0.0045934
0.000672884
0.000612472
0.000598339
0.000607749
0.000618753
0.000627534
0.000634494
0.000641736
0.000645402
0.0006501
0.000654729
0.000659051
0.000663326
0.000667857
0.000657506
0.000657003
0.000656762
0.000656902
0.000657396
0.000658232
0.000659412
0.000660921
0.00066269
0.000664643
0.000666869
0.000669557
0.000672836
0.000676744
0.000681298
0.000686499
0.000692328
0.000698754
0.000705739
0.00071326
0.00072133
0.000730038
0.000739541
0.00074918
0.000759627
0.000774164
0.00078743
0.000806205
0.000830703
0.000869279
0.000913605
0.00471692
0.0114578
0.0130132
0.0123136
0.0026692
0.000569946
0.000579406
0.00058601
0.000596238
0.00061443
0.000626723
0.000632028
0.000636314
0.000640655
0.000643154
0.000646922
0.000650468
0.000653501
0.000656568
0.000647252
0.000646826
0.000646657
0.000646855
0.000647394
0.000648266
0.00064947
0.000650978
0.000652703
0.000654601
0.000656823
0.000659566
0.000662922
0.000666901
0.000671506
0.000676724
0.000682522
0.000688852
0.000695664
0.000702934
0.000710697
0.000719106
0.000728453
0.000737212
0.000746866
0.000769851
0.000774994
0.00079903
0.000814242
0.000843691
0.000899808
0.00100881
0.00361372
0.00666577
0.00243995
0.000198157
0.000459593
0.000532092
0.000562526
0.000590903
0.00061606
0.000622083
0.000626972
0.000631249
0.000632493
0.000634785
0.000639045
0.000641897
0.000643826
0.000645537
0.000636675
0.000636323
0.000636224
0.000636477
0.000637061
0.000637966
0.000639189
0.000640688
0.000642365
0.000644228
0.000646471
0.000649277
0.000652697
0.000656715
0.000661313
0.000666459
0.000672098
0.000678171
0.000684634
0.00069149
0.000698797
0.000706734
0.000715746
0.000724489
0.000733473
0.000765332
0.00075885
0.000776433
0.000791262
0.00081464
0.000845612
0.000870955
0.00086243
0.000780338
0.000643888
0.00047327
0.000497281
0.000541241
0.000571615
0.000591922
0.000976622
0.000623225
0.00064951
0.000835319
0.000618205
0.000626271
0.000629702
0.000633039
0.000635966
0.000635793
0.000625782
0.000625503
0.000625472
0.000625779
0.000626406
0.000627343
0.000628582
0.000630064
0.000631699
0.000633551
0.000635833
0.000638697
0.000642156
0.000646166
0.000650687
0.000655661
0.000661029
0.000666744
0.000672795
0.000679215
0.000686068
0.000693534
0.000701726
0.00071082
0.000720862
0.000731146
0.000740218
0.000752038
0.000766251
0.000779414
0.000791999
0.000798612
0.000789042
0.000706918
0.000646337
0.000565119
0.000553674
0.000564273
0.000577299
0.00063881
0.000583096
0.000605584
0.000620715
0.000613533
0.000618914
0.0006151
0.000627065
0.000644112
0.000625478
0.000627093
0.000614582
0.000614375
0.000614411
0.000614772
0.000615441
0.000616408
0.000617659
0.000619122
0.000620729
0.000622592
0.000624921
0.000627828
0.000631288
0.000635235
0.000639604
0.000644332
0.000649377
0.000654725
0.00066039
0.000666406
0.000672815
0.000679721
0.000687236
0.000695102
0.000703586
0.000712226
0.000723182
0.000731985
0.000740655
0.000746339
0.000750145
0.000748621
0.000735329
0.000684506
0.000645137
0.000602768
0.000584378
0.000579011
0.000599406
0.00058304
0.000586648
0.000595067
0.000605422
0.000611944
0.000605069
0.000602934
0.000840272
0.000613107
0.000613643
0.000615633
0.000603082
0.000602948
0.000603052
0.000603467
0.000604177
0.000605173
0.000606434
0.000607881
0.000609478
0.000611371
0.000613743
0.000616666
0.000620084
0.00062391
0.000628076
0.000632532
0.000637269
0.000642291