/*--------------------------------*- C++ -*----------------------------------*\
| =========                 |                                                 |
| \\      /  F ield         | OpenFOAM: The Open Source CFD Toolbox           |
|  \\    /   O peration     | Version:  2.4.0                                 |
|   \\  /    A nd           | Web:      www.OpenFOAM.org                      |
|    \\/     M anipulation  |                                                 |
\*---------------------------------------------------------------------------*/
FoamFile
{
    version     2.0;
    format      ascii;
    class       surfaceScalarField;
    location    "0.086";
    object      phi;
}
// * * * * * * * * * * * * * * * * * * * * * * * * * * * * * * * * * * * * * //

dimensions      [0 3 -1 0 0 0 0];

internalField   nonuniform List<scalar> 
19800
(
-6.51596e-13
6.51596e-13
-1.95601e-12
1.30517e-12
-3.40107e-12
1.44533e-12
-4.70244e-12
1.30132e-12
-5.7681e-12
1.06571e-12
-6.58794e-12
8.20211e-13
-7.1738e-12
5.86464e-13
-7.53964e-12
3.66432e-13
-7.67297e-12
1.3375e-13
-7.57497e-12
-9.76745e-14
-7.21091e-12
-3.6362e-13
-6.54654e-12
-6.63668e-13
-5.54218e-12
-1.00355e-12
-4.15697e-12
-1.3847e-12
-2.35058e-12
-1.80656e-12
-8.61135e-14
-2.26544e-12
2.66863e-12
-2.75626e-12
5.93836e-12
-3.27136e-12
9.73853e-12
-3.80153e-12
1.40734e-11
-4.33583e-12
1.89345e-11
-4.86157e-12
2.42986e-11
-5.36423e-12
3.01263e-11
-5.82749e-12
3.63603e-11
-6.23339e-12
4.2924e-11
-6.56275e-12
4.97209e-11
-6.79588e-12
5.66353e-11
-6.91339e-12
6.35334e-11
-6.89733e-12
7.02663e-11
-6.73236e-12
7.66737e-11
-6.40701e-12
8.25888e-11
-5.91481e-12
8.78446e-11
-5.25526e-12
9.22795e-11
-4.43428e-12
9.57443e-11
-3.46404e-12
9.81074e-11
-2.36235e-12
9.92595e-11
-1.15144e-12
9.91159e-11
1.44108e-13
9.76214e-11
1.49498e-12
9.4747e-11
2.87487e-12
9.04922e-11
4.25504e-12
8.48843e-11
5.60792e-12
7.7977e-11
6.90694e-12
6.98492e-11
8.12723e-12
6.06034e-11
9.24558e-12
5.03631e-11
1.02407e-11
3.92693e-11
1.10943e-11
2.74793e-11
1.17908e-11
1.51634e-11
1.2317e-11
2.49921e-12
1.26639e-11
1.28264e-11
-1.0328e-11
-1.1994e-12
1.85125e-12
-3.39544e-12
3.50133e-12
-5.66844e-12
3.71842e-12
-7.54718e-12
3.18031e-12
-8.8606e-12
2.37973e-12
-9.57683e-12
1.53734e-12
-9.71022e-12
7.20742e-13
-9.26928e-12
-7.3896e-14
-8.25101e-12
-8.84091e-13
-6.60234e-12
-1.74575e-12
-4.2634e-12
-2.70156e-12
-1.14806e-12
-3.77781e-12
2.83946e-12
-4.9903e-12
7.7984e-12
-6.34394e-12
1.38245e-11
-7.83422e-12
2.10048e-11
-9.44822e-12
2.94117e-11
-1.11659e-11
3.90985e-11
-1.29603e-11
5.0094e-11
-1.47983e-11
6.23982e-11
-1.66406e-11
7.59782e-11
-1.84415e-11
9.07634e-11
-2.01491e-11
1.06642e-10
-2.17051e-11
1.23456e-10
-2.30464e-11
1.41001e-10
-2.41057e-11
1.5902e-10
-2.48141e-11
1.77213e-10
-2.51041e-11
1.95229e-10
-2.49131e-11
2.12685e-10
-2.41875e-11
2.29166e-10
-2.28871e-11
2.44242e-10
-2.09892e-11
2.57479e-10
-1.8492e-11
2.68462e-10
-1.54158e-11
2.76802e-10
-1.18029e-11
2.82157e-10
-7.71538e-12
2.84238e-10
-3.23111e-12
2.82823e-10
1.55984e-12
2.7776e-10
6.5591e-12
2.68969e-10
1.16661e-11
2.56445e-10
1.6778e-11
2.40259e-10
2.17933e-11
2.20553e-10
2.66129e-11
1.97537e-10
3.11427e-11
1.71488e-10
3.52948e-11
1.42742e-10
3.89885e-11
1.11685e-10
4.2153e-11
7.87471e-11
4.47291e-11
4.43959e-11
4.66688e-11
9.12212e-12
4.7937e-11
4.85137e-11
-2.65678e-11
-1.29091e-12
3.14243e-12
-3.48903e-12
5.69885e-12
-5.5761e-12
5.8051e-12
-7.04545e-12
4.64972e-12
-7.70682e-12
3.04153e-12
-7.51817e-12
1.34915e-12
-6.48406e-12
-3.13227e-13
-4.60407e-12
-1.95406e-12
-1.85116e-12
-3.63707e-12
1.84535e-12
-5.44177e-12
6.58485e-12
-7.43989e-12
1.24923e-11
-9.68387e-12
1.97067e-11
-1.22039e-11
2.83712e-11
-1.50088e-11
3.86236e-11
-1.8088e-11
5.05875e-11
-2.14141e-11
6.43646e-11
-2.49447e-11
8.0027e-11
-2.86237e-11
9.761e-11
-3.23818e-11
1.17106e-10
-3.61365e-11
1.38456e-10
-3.97926e-11
1.61549e-10
-4.32416e-11
1.86206e-10
-4.63631e-11
2.12187e-10
-4.90263e-11
2.39175e-10
-5.10931e-11
2.66785e-10
-5.24221e-11
2.94557e-10
-5.28748e-11
3.21967e-10
-5.23224e-11
3.48435e-10
-5.06544e-11
3.73336e-10
-4.77876e-11
3.96022e-10
-4.36744e-11
4.15841e-10
-3.83098e-11
4.32162e-10
-3.17349e-11
4.44397e-10
-2.4036e-11
4.52024e-10
-1.53403e-11
4.54601e-10
-5.80721e-12
4.51785e-10
4.37638e-12
4.43335e-10
1.50088e-11
4.29121e-10
2.58799e-11
4.09125e-10
3.67736e-11
3.83443e-10
4.74749e-11
3.52283e-10
5.77726e-11
3.15963e-10
6.74634e-11
2.74903e-10
7.63563e-11
2.29617e-10
8.4276e-11
1.80705e-10
9.10669e-11
1.28836e-10
9.65978e-11
7.47407e-11
1.00764e-10
1.91904e-11
1.03487e-10
1.04722e-10
-3.70198e-11
-1.15092e-12
4.29314e-12
-2.95896e-12
7.50618e-12
-4.4424e-12
7.28823e-12
-5.11625e-12
5.3237e-12
-4.80066e-12
2.7262e-12
-3.45065e-12
-8.86139e-16
-1.0614e-12
-2.70296e-12
2.38337e-12
-5.39943e-12
6.93659e-12
-8.19044e-12
1.26932e-11
-1.11977e-11
1.97857e-11
-1.45311e-11
2.83746e-11
-1.82714e-11
3.86356e-11
-2.24645e-11
5.07484e-11
-2.71223e-11
6.4885e-11
-3.2226e-11
8.1199e-11
-3.77295e-11
9.98157e-11
-4.35623e-11
1.20823e-10
-4.96312e-11
1.44262e-10
-5.5821e-11
1.7012e-10
-6.19947e-11
1.9832e-10
-6.79937e-11
2.28715e-10
-7.36383e-11
2.61081e-10
-7.87291e-11
2.95104e-10
-8.30498e-11
3.30385e-10
-8.63722e-11
3.66427e-10
-8.84625e-11
4.02644e-10
-8.90905e-11
4.38364e-10
-8.80413e-11
4.72839e-10
-8.51293e-11
5.05265e-10
-8.0213e-11
5.34802e-10
-7.32096e-11
5.60601e-10
-6.41075e-11
5.8184e-10
-5.29717e-11
5.97749e-10
-3.99432e-11
6.07642e-10
-2.52311e-11
6.10934e-10
-9.09899e-12
6.07165e-10
8.14565e-12
5.96004e-10
2.6169e-11
5.77263e-10
4.46198e-11
5.509e-10
6.31368e-11
5.17018e-10
8.13565e-11
4.75872e-10
9.89194e-11
4.27861e-10
1.15476e-10
3.73524e-10
1.30695e-10
3.13531e-10
1.4427e-10
2.48671e-10
1.55929e-10
1.7983e-10
1.65439e-10
1.07979e-10
1.72614e-10
3.41499e-11
1.77316e-10
1.79461e-10
-4.0591e-11
-9.54798e-13
5.24742e-12
-2.2804e-12
8.83164e-12
-3.07976e-12
8.08785e-12
-2.91813e-12
5.16252e-12
-1.63722e-12
1.44552e-12
8.04612e-13
-2.44299e-12
4.4218e-12
-6.32081e-12
9.25059e-12
-1.02288e-11
1.53689e-11
-1.43087e-11
2.29012e-11
-1.87292e-11
3.20124e-11
-2.36413e-11
4.28965e-11
-2.91549e-11
5.57633e-11
-3.53317e-11
7.08258e-11
-4.21859e-11
8.82867e-11
-4.96883e-11
1.08327e-10
-5.77709e-11
1.31095e-10
-6.63304e-11
1.56694e-10
-7.52307e-11
1.85176e-10
-8.43033e-11
2.16529e-10
-9.33478e-11
2.50666e-10
-1.02132e-10
2.8742e-10
-1.10394e-10
3.2653e-10
-1.1784e-10
3.67637e-10
-1.24156e-10
4.10271e-10
-1.29005e-10
4.53853e-10
-1.32043e-10
4.97691e-10
-1.32928e-10
5.40988e-10
-1.31338e-10
5.82851e-10
-1.26992e-10
6.22311e-10
-1.19672e-10
6.58352e-10
-1.09249e-10
6.89941e-10
-9.56948e-11
7.16072e-10
-7.91006e-11
7.35801e-10
-5.96702e-11
7.4828e-10
-3.77096e-11
7.52788e-10
-1.36065e-11
7.48743e-10
1.21897e-11
7.35724e-10
3.91882e-11
7.13472e-10
6.68712e-11
6.81905e-10
9.47039e-11
6.41118e-10
1.22143e-10
5.9139e-10
1.48648e-10
5.33183e-10
1.73685e-10
4.67133e-10
1.96746e-10
3.94049e-10
2.17356e-10
3.14888e-10
2.3509e-10
2.30744e-10
2.49584e-10
1.42814e-10
2.60543e-10
5.23798e-11
2.6775e-10
2.71069e-10
-3.92286e-11
-7.84973e-13
6.03214e-12
-1.69043e-12
9.73788e-12
-1.90894e-12
8.30733e-12
-1.05796e-12
4.31233e-12
9.95018e-13
-6.07102e-13
4.28524e-12
-5.73334e-12
8.83786e-12
-1.08738e-11
1.47092e-11
-1.61003e-11
2.2004e-11
-2.16034e-11
3.08775e-11
-2.76024e-11
4.15272e-11
-3.42908e-11
5.41804e-11
-4.18087e-11
6.90803e-11
-5.02329e-11
8.64717e-11
-5.9579e-11
1.06588e-10
-6.98056e-11
1.29637e-10
-8.08205e-11
1.55791e-10
-9.24847e-11
1.85175e-10
-1.04615e-10
2.17855e-10
-1.16984e-10
2.53828e-10
-1.29322e-10
2.9301e-10
-1.41316e-10
3.35228e-10
-1.52612e-10
3.80201e-10
-1.62814e-10
4.2754e-10
-1.71495e-10
4.7673e-10
-1.78195e-10
5.27128e-10
-1.8244e-10
5.77958e-10
-1.83757e-10
6.28315e-10
-1.81694e-10
6.77176e-10
-1.75852e-10
7.23419e-10
-1.65915e-10
7.65856e-10
-1.51684e-10
8.03271e-10
-1.33109e-10
8.34474e-10
-1.10303e-10
8.58346e-10
-8.3541e-11
8.73879e-10
-5.32423e-11
8.8021e-10
-1.99376e-11
8.76638e-10
1.57612e-11
8.6264e-10
5.31865e-11
8.37878e-10
9.16328e-11
8.02213e-10
1.30368e-10
7.55714e-10
1.68643e-10
6.98663e-10
2.05699e-10
6.31563e-10
2.40786e-10
5.55136e-10
2.73175e-10
4.70308e-10
3.02185e-10
3.78201e-10
3.27198e-10
2.80102e-10
3.47684e-10
1.77435e-10
3.63209e-10
7.17271e-11
3.73456e-10
3.78224e-10
-3.54285e-11
-6.75426e-13
6.70799e-12
-1.2989e-12
1.03628e-11
-1.12857e-12
8.13825e-12
1.71226e-13
3.0135e-12
2.70934e-12
-3.1446e-12
6.51716e-12
-9.54085e-12
1.16302e-11
-1.59868e-11
1.81256e-11
-2.25957e-11
2.61355e-11
-2.96134e-11
3.58461e-11
-3.73134e-11
4.7488e-11
-4.59336e-11
6.13218e-11
-5.56439e-11
7.76238e-11
-6.65366e-11
9.66709e-11
-7.86275e-11
1.18727e-10
-9.18626e-11
1.4403e-10
-1.06124e-10
1.72779e-10
-1.21234e-10
2.05125e-10
-1.36961e-10
2.41158e-10
-1.53016e-10
2.80892e-10
-1.69056e-10
3.2426e-10
-1.84684e-10
3.71094e-10
-1.99446e-10
4.21116e-10
-2.12837e-10
4.73923e-10
-2.24303e-10
5.28977e-10
-2.33249e-10
5.85591e-10
-2.39054e-10
6.42926e-10
-2.4109e-10
6.99984e-10
-2.38752e-10
7.55624e-10
-2.31491e-10
8.08575e-10
-2.18864e-10
8.57472e-10
-2.0058e-10
9.00912e-10
-1.76548e-10
9.37512e-10
-1.46902e-10
9.65971e-10
-1.11999e-10
9.85116e-10
-7.23873e-11
9.93942e-10
-2.87632e-11
9.91623e-10
1.80796e-11
9.77528e-10
6.72815e-11
9.51226e-10
1.17934e-10
9.12503e-10
1.6909e-10
8.61379e-10
2.19767e-10
7.98119e-10
2.6896e-10
7.23248e-10
3.15658e-10
6.37551e-10
3.58873e-10
5.42069e-10
3.97669e-10
4.38075e-10
4.31193e-10
3.27052e-10
4.58706e-10
2.10652e-10
4.79608e-10
9.06558e-11
4.93451e-10
4.99956e-10
-3.10772e-11
-6.34815e-13
7.34378e-12
-1.14024e-12
1.08696e-11
-8.11196e-13
7.8102e-12
6.55383e-13
1.54784e-12
3.35175e-12
-5.84003e-12
7.30851e-12
-1.34968e-11
1.2573e-11
-2.12508e-11
1.92436e-11
-2.92664e-11
2.74802e-11
-3.78505e-11
3.75e-11
-4.73342e-11
4.95663e-11
-5.80011e-11
6.39731e-11
-7.0052e-11
8.10296e-11
-8.35943e-11
1.01045e-10
-9.86445e-11
1.24317e-10
-1.15135e-10
1.51114e-10
-1.32921e-10
1.81669e-10
-1.51789e-10
2.16164e-10
-1.71455e-10
2.54718e-10
-1.9157e-10
2.97379e-10
-2.11717e-10
3.44105e-10
-2.3141e-10
3.94753e-10
-2.50095e-10
4.49065e-10
-2.6715e-10
5.06646e-10
-2.81886e-10
5.66957e-10
-2.9356e-10
6.29289e-10
-3.01386e-10
6.92756e-10
-3.04557e-10
7.56287e-10
-3.02283e-10
8.18629e-10
-2.93832e-10
8.78362e-10
-2.78596e-10
9.33939e-10
-2.56156e-10
9.8375e-10
-2.26358e-10
1.0262e-09
-1.89355e-10
1.0598e-09
-1.45598e-10
1.08321e-09
-9.57915e-11
1.09527e-09
-4.08212e-11
1.09503e-09
1.83184e-11
1.08174e-09
8.05669e-11
1.05487e-09
1.44806e-10
1.0141e-09
2.09861e-10
9.59366e-10
2.74497e-10
8.90901e-10
3.37425e-10
8.09225e-10
3.97336e-10
7.15171e-10
4.52928e-10
6.09881e-10
5.02959e-10
4.94784e-10
5.4629e-10
3.71561e-10
5.81929e-10
2.42101e-10
6.09066e-10
1.08453e-10
6.27099e-10
6.3565e-10
-2.72435e-11
-6.61227e-13
8.00595e-12
-1.21319e-12
1.14219e-11
-9.6094e-13
7.55838e-12
3.82334e-13
2.05433e-13
2.90136e-12
-8.35784e-12
6.63083e-12
-1.72252e-11
1.16323e-11
-2.62518e-11
1.80263e-11
-3.56608e-11
2.60004e-11
-4.58254e-11
3.58026e-11
-5.71373e-11
4.77284e-11
-6.99275e-11
6.21045e-11
-8.44286e-11
7.92732e-11
-1.00764e-10
9.95778e-11
-1.1895e-10
1.23349e-10
-1.38906e-10
1.50892e-10
-1.60464e-10
1.82475e-10
-1.83372e-10
2.1832e-10
-2.07298e-10
2.58585e-10
-2.31835e-10
3.0336e-10
-2.56491e-10
3.52644e-10
-2.80696e-10
4.06339e-10
-3.03791e-10
4.64222e-10
-3.25035e-10
5.25934e-10
-3.436e-10
5.90955e-10
-3.58581e-10
6.58578e-10
-3.69009e-10
7.27895e-10
-3.73874e-10
7.97777e-10
-3.72164e-10
8.66867e-10
-3.62922e-10
9.33595e-10
-3.45323e-10
9.96214e-10
-3.18774e-10
1.05288e-09
-2.83025e-10
1.10178e-09
-2.38247e-10
1.14119e-09
-1.85008e-10
1.16959e-09
-1.24199e-10
1.18571e-09
-5.69337e-11
1.18845e-09
1.55762e-11
1.17694e-09
9.20709e-11
1.15052e-09
1.7123e-10
1.10873e-09
2.51651e-10
1.0514e-09
3.31826e-10
9.78672e-10
4.10151e-10
8.91045e-10
4.84964e-10
7.89383e-10
5.54591e-10
6.74921e-10
6.17421e-10
5.49245e-10
6.71966e-10
4.14247e-10
7.16925e-10
2.72074e-10
7.51237e-10
1.25061e-10
7.74111e-10
7.85052e-10
-2.43429e-11
-7.47299e-13
8.75356e-12
-1.50026e-12
1.21742e-11
-1.55055e-12
7.60864e-12
-6.11756e-13
-7.32499e-13
1.40268e-12
-1.0371e-11
4.53712e-12
-2.03587e-11
8.87044e-12
-3.0585e-11
1.45467e-11
-4.13375e-11
2.1781e-11
-5.30601e-11
3.08516e-11
-6.62078e-11
4.2085e-11
-8.11607e-11
5.58403e-11
-9.81839e-11
7.24929e-11
-1.17417e-10
9.24203e-11
-1.38878e-10
1.15989e-10
-1.62475e-10
1.43542e-10
-1.88017e-10
1.7539e-10
-2.15218e-10
2.11796e-10
-2.43704e-10
2.52971e-10
-2.73009e-10
2.99056e-10
-3.02577e-10
3.50111e-10
-3.31751e-10
4.06094e-10
-3.59776e-10
4.66847e-10
-3.85789e-10
5.32066e-10
-4.0882e-10
6.01278e-10
-4.27794e-10
6.73808e-10
-4.4154e-10
7.48748e-10
-4.48814e-10
8.24929e-10
-4.48344e-10
9.00907e-10
-4.38898e-10
9.74959e-10
-4.19373e-10
1.04512e-09
-3.88929e-10
1.10927e-09
-3.47174e-10
1.16532e-09
-2.94297e-10
1.21132e-09
-2.31017e-10
1.24559e-09
-1.58462e-10
1.26668e-09
-7.80289e-11
1.27342e-09
8.838e-12
1.26479e-09
1.00703e-10
1.23994e-09
1.96076e-10
1.19825e-09
2.9334e-10
1.13938e-09
3.90701e-10
1.06333e-09
4.86197e-10
9.70544e-10
5.77749e-10
8.61897e-10
6.63239e-10
7.38713e-10
7.40603e-10
6.02744e-10
8.07933e-10
4.56115e-10
8.63553e-10
3.01254e-10
9.06094e-10
1.40821e-10
9.34544e-10
9.48265e-10
-2.2392e-11
-8.86791e-13
9.63988e-12
-1.98095e-12
1.32671e-11
-2.54341e-12
8.17101e-12
-2.27537e-12
-9.99724e-13
-1.07787e-12
-1.15676e-11
1.10883e-12
-2.25451e-11
4.38412e-12
-3.38606e-11
8.91685e-12
-4.58705e-11
1.49496e-11
-5.90926e-11
2.27897e-11
-7.40471e-11
3.27942e-11
-9.11645e-11
4.53534e-11
-1.10743e-10
6.08754e-11
-1.32939e-10
7.97717e-11
-1.57775e-10
1.02445e-10
-1.85149e-10
1.2928e-10
-2.14851e-10
1.60629e-10
-2.46566e-10
1.96809e-10
-2.79883e-10
2.38086e-10
-3.14287e-10
2.84668e-10
-3.4916e-10
3.36688e-10
-3.83772e-10
3.94185e-10
-4.17273e-10
4.57084e-10
-4.48688e-10
5.25169e-10
-4.76904e-10
5.98043e-10
-5.00669e-10
6.75092e-10
-5.1859e-10
7.55436e-10
-5.29159e-10
8.37892e-10
-5.30798e-10
9.20947e-10
-5.21951e-10
1.00273e-09
-5.01154e-10
1.08103e-09
-4.67227e-10
1.15341e-09
-4.19552e-10
1.21746e-09
-3.58346e-10
1.27097e-09
-2.84534e-10
1.31206e-09
-1.99549e-10
1.3392e-09
-1.05166e-10
1.35111e-09
-3.07185e-12
1.34662e-09
1.05186e-10
1.32468e-09
2.18021e-10
1.28438e-09
3.33637e-10
1.22514e-09
4.49941e-10
1.14678e-09
5.64558e-10
1.04962e-09
6.7491e-10
9.34523e-10
7.78331e-10
8.02913e-10
8.72212e-10
6.56719e-10
9.54124e-10
4.98331e-10
1.02194e-09
3.305e-10
1.07392e-09
1.56252e-10
1.10879e-09
1.12575e-09
-2.12292e-11
-1.07238e-12
1.07113e-11
-2.63621e-12
1.48299e-11
-3.90617e-12
9.44104e-12
-4.55825e-12
-3.47098e-13
-4.47379e-12
-1.16518e-11
-3.57143e-12
-2.34477e-11
-1.72804e-12
-3.57044e-11
1.25106e-12
-4.88494e-11
5.63561e-12
-6.34764e-11
1.17611e-11
-8.01718e-11
2.00136e-11
-9.94169e-11
3.08135e-11
-1.21544e-10
4.46002e-11
-1.46727e-10
6.18186e-11
-1.74993e-10
8.29074e-11
-2.06237e-10
1.08291e-10
-2.40233e-10
1.3837e-10
-2.76646e-10
1.73516e-10
-3.1503e-10
2.14062e-10
-3.54835e-10
2.60292e-10
-3.95391e-10
3.12428e-10
-4.35907e-10
3.7061e-10
-4.75454e-10
4.34874e-10
-5.12953e-10
5.05121e-10
-5.47152e-10
5.81067e-10
-5.76616e-10
6.62192e-10
-5.99715e-10
7.47674e-10
-6.1464e-10
8.36336e-10
-6.19459e-10
9.26634e-10
-6.12247e-10
1.01658e-09
-5.91097e-10
1.10369e-09
-5.54343e-10
1.18515e-09
-5.01007e-10
1.25816e-09
-4.31357e-10
1.32022e-09
-3.46596e-10
1.36923e-09
-2.48554e-10
1.40363e-09
-1.39564e-10
1.42211e-09
-2.15508e-11
1.42332e-09
1.03967e-10
1.4059e-09
2.35447e-10
1.36856e-09
3.70977e-10
1.31035e-09
5.08151e-10
1.23081e-09
6.44096e-10
1.1301e-09
7.75617e-10
1.00905e-09
8.99376e-10
8.69183e-10
1.01208e-09
7.12629e-10
1.11068e-09
5.42088e-10
1.19248e-09
3.60696e-10
1.25531e-09
1.719e-10
1.29759e-09
1.31831e-09
-2.06625e-11
-1.30003e-12
1.20104e-11
-3.45164e-12
1.6981e-11
-5.61091e-12
1.16004e-11
-7.41827e-12
1.46025e-12
-8.7264e-12
-1.03442e-11
-9.42852e-12
-2.27463e-11
-9.37504e-12
-3.57581e-11
-8.34474e-12
-4.98792e-11
-6.041e-12
-6.57794e-11
-2.10125e-12
-8.41115e-11
3.88807e-12
-1.05407e-10
1.23752e-11
-1.30032e-10
2.38284e-11
-1.58181e-10
3.87232e-11
-1.89888e-10
5.75328e-11
-2.25046e-10
8.07214e-11
-2.63422e-10
1.08738e-10
-3.04663e-10
1.42014e-10
-3.48307e-10
1.80951e-10
-3.93773e-10
2.25921e-10
-4.40361e-10
2.7725e-10
-4.87234e-10
3.352e-10
-5.33404e-10
3.9995e-10
-5.77702e-10
4.7155e-10
-6.18753e-10
5.4987e-10
-6.54937e-10
6.34519e-10
-6.84365e-10
7.24756e-10
-7.04877e-10
8.19427e-10
-7.14129e-10
9.17008e-10
-7.09828e-10
1.01547e-09
-6.89554e-10
1.11209e-09
-6.50965e-10
1.20354e-09
-5.92457e-10
1.28659e-09
-5.14413e-10
1.3584e-09
-4.18401e-10
1.41656e-09
-3.06715e-10
1.45964e-09
-1.82641e-10
1.48639e-09
-4.83031e-11
1.49526e-09
9.50936e-11
1.4844e-09
2.46306e-10
1.45197e-09
4.03407e-10
1.3965e-09
5.63627e-10
1.31712e-09
7.23472e-10
1.21378e-09
8.7896e-10
1.08725e-09
1.0259e-09
9.3916e-10
1.16017e-09
7.71905e-10
1.27793e-09
5.88552e-10
1.37583e-09
3.92689e-10
1.45118e-09
1.88269e-10
1.502e-09
1.52713e-09
-2.05458e-11
-1.5666e-12
1.35765e-11
-4.41586e-12
1.98302e-11
-7.63406e-12
1.48185e-11
-1.08166e-11
4.64219e-12
-1.37822e-11
-7.37967e-12
-1.63931e-11
-2.01361e-11
-1.84716e-11
-3.36796e-11
-1.97694e-11
-4.8581e-11
-1.99636e-11
-6.55851e-11
-1.86665e-11
-8.54095e-11
-1.54396e-11
-1.08636e-10
-9.80989e-12
-1.35663e-10
-1.28377e-12
-1.66708e-10
1.06418e-11
-2.01813e-10
2.64712e-11
-2.40876e-10
4.67064e-11
-2.83658e-10
7.18435e-11
-3.29802e-10
1.02371e-10
-3.78835e-10
1.38767e-10
-4.30169e-10
1.81495e-10
-4.83088e-10
2.30998e-10
-5.36737e-10
2.87686e-10
-5.90091e-10
3.51906e-10
-6.41923e-10
4.23903e-10
-6.90752e-10
5.03746e-10
-7.34781e-10
5.91213e-10
-7.71833e-10
6.85657e-10
-7.99322e-10
7.85911e-10
-8.14384e-10
8.90537e-10
-8.14454e-10
9.97626e-10
-7.96642e-10
1.10435e-09
-7.57694e-10
1.20674e-09
-6.94841e-10
1.30106e-09
-6.08737e-10
1.38404e-09
-5.01379e-10
1.45276e-09
-3.75437e-10
1.50618e-09
-2.3606e-10
1.54335e-09
-8.54669e-11
1.56239e-09
7.60456e-11
1.56074e-09
2.47964e-10
1.53569e-09
4.28453e-10
1.48504e-09
6.14274e-10
1.40742e-09
8.01096e-10
1.30246e-09
9.83917e-10
1.1709e-09
1.15747e-09
1.0145e-09
1.31657e-09
8.35984e-10
1.45644e-09
6.38868e-10
1.57295e-09
4.27289e-10
1.66276e-09
2.05805e-10
1.72349e-09
1.75374e-09
-2.08076e-11
-1.86988e-12
1.54463e-11
-5.51892e-12
2.34792e-11
-9.95411e-12
1.92532e-11
-1.47171e-11
9.40412e-12
-1.95877e-11
-2.51004e-12
-2.43941e-11
-1.53302e-11
-2.89285e-11
-2.91451e-11
-3.29154e-11
-4.45941e-11
-3.60071e-11
-6.24941e-11
-3.77925e-11
-8.36255e-11
-3.78117e-11
-1.08618e-10
-3.55713e-11
-1.37904e-10
-3.0557e-11
-1.71722e-10
-2.22432e-11
-2.10127e-10
-1.00982e-11
-2.53021e-10
6.41355e-12
-3.0017e-10
2.78305e-11
-3.51219e-10
5.4696e-11
-4.05701e-10
8.75609e-11
-4.63034e-10
1.26986e-10
-5.22514e-10
1.73543e-10
-5.83294e-10
2.27802e-10
-6.44352e-10
2.90319e-10
-7.04441e-10
3.6158e-10
-7.62013e-10
4.41913e-10
-8.15114e-10
5.31324e-10
-8.61245e-10
6.29263e-10
-8.97262e-10
7.34397e-10
-9.19519e-10
8.45367e-10
-9.25424e-10
9.6069e-10
-9.11966e-10
1.07786e-09
-8.74864e-10
1.19201e-09
-8.08996e-10
1.29897e-09
-7.15696e-10
1.39496e-09
-5.97369e-10
1.47584e-09
-4.5631e-10
1.54159e-09
-3.01813e-10
1.59194e-09
-1.35813e-10
1.62448e-09
4.35029e-11
1.63543e-09
2.37012e-10
1.62087e-09
4.4301e-10
1.5776e-09
6.57547e-10
1.50358e-09
8.7512e-10
1.39812e-09
1.08937e-09
1.26192e-09
1.29367e-09
1.09696e-09
1.48154e-09
9.06357e-10
1.64705e-09
6.94199e-10
1.7851e-09
4.65287e-10
1.89167e-09
2.24899e-10
1.96388e-09
2.00009e-09
-2.14537e-11
-2.20768e-12
1.76539e-11
-6.75008e-12
2.80214e-11
-1.25465e-11
2.5049e-11
-1.90792e-11
1.59358e-11
-2.60833e-11
4.49318e-12
-3.33505e-11
-8.06345e-12
-4.06422e-11
-2.18537e-11
-4.76561e-11
-3.75807e-11
-5.40214e-11
-5.61298e-11
-5.93069e-11
-7.83411e-11
-6.30355e-11
-1.0489e-10
-6.46978e-11
-1.36243e-10
-6.37636e-11
-1.72656e-10
-5.96896e-11
-2.14201e-10
-5.19235e-11
-2.60787e-10
-3.99036e-11
-3.1219e-10
-2.30563e-11
-3.68067e-10
-7.89233e-13
-4.27969e-10
2.75165e-11
-4.91341e-10
6.25156e-11
-5.57515e-10
1.04909e-10
-6.25689e-10
1.55447e-10
-6.94891e-10
2.14922e-10
-7.63916e-10
2.84124e-10
-8.31216e-10
3.63732e-10
-8.94724e-10
4.54082e-10
-9.51597e-10
5.54752e-10
-9.97932e-10
6.63922e-10
-1.02869e-09
7.79952e-10
-1.04145e-09
9.02118e-10
-1.03413e-09
1.02943e-09
-1.00218e-09
1.1558e-09
-9.35366e-10
1.27685e-09
-8.36742e-10
1.38839e-09
-7.08908e-10
1.48315e-09
-5.51076e-10
1.56374e-09
-3.82401e-10
1.63099e-09
-2.03061e-10
1.68147e-09
-6.97637e-12
1.70941e-09
2.09075e-10
1.70914e-09
4.43277e-10
1.67621e-09
6.90477e-10
1.60784e-09
9.4349e-10
1.50303e-09
1.19419e-09
1.36247e-09
1.43422e-09
1.18846e-09
1.65555e-09
9.84628e-10
1.85087e-09
7.55768e-10
2.01397e-09
5.07483e-10
2.13995e-09
2.45913e-10
2.22545e-09
2.26857e-09
-2.2563e-11
-2.57716e-12
2.0231e-11
-8.09653e-12
3.35407e-11
-1.53833e-11
3.23352e-11
-2.38546e-11
2.44063e-11
-3.31967e-11
1.38345e-11
-4.31639e-11
1.90307e-12
-5.34859e-11
-1.15325e-11
-6.38348e-11
-2.72326e-11
-7.38194e-11
-4.61461e-11
-8.29925e-11
-6.91688e-11
-9.08639e-11
-9.70193e-11
-9.69129e-11
-1.30194e-10
-1.00599e-10
-1.68971e-10
-1.01366e-10
-2.13434e-10
-9.8647e-11
-2.63506e-10
-9.18623e-11
-3.18975e-10
-8.04116e-11
-3.79518e-10
-6.36651e-11
-4.44716e-10
-4.09482e-11
-5.1406e-10
-1.15217e-11
-5.86943e-10
2.54403e-11
-6.62652e-10
7.08715e-11
-7.40323e-10
1.2583e-10
-8.18876e-10
1.91485e-10
-8.96872e-10
2.69011e-10
-9.72251e-10
3.59277e-10
-1.04186e-09
4.62114e-10
-1.10077e-09
5.74827e-10
-1.1414e-09
6.94452e-10
-1.16108e-09
8.2046e-10
-1.16014e-09
9.56216e-10
-1.13794e-09
1.09393e-09
-1.07308e-09
1.23038e-09
-9.73193e-10
1.36048e-09
-8.39004e-10
1.47133e-09
-6.61928e-10
1.57024e-09
-4.81303e-10
1.65966e-09
-2.92481e-10
1.73404e-09
-8.13617e-11
1.78447e-09
1.58654e-10
1.80291e-09
4.24839e-10
1.78356e-09
7.09822e-10
1.72296e-09
1.0041e-09
1.61983e-09
1.29732e-09
1.47498e-09
1.57906e-09
1.29112e-09
1.83942e-09
1.07254e-09
2.06945e-09
8.2487e-10
2.26164e-09
5.54693e-10
2.41013e-09
2.69176e-10
2.51097e-09
2.56204e-09
-2.42894e-11
-2.97439e-12
2.32054e-11
-9.54211e-12
4.01085e-11
-1.84291e-11
4.12219e-11
-2.89833e-11
3.49597e-11
-4.08396e-11
2.56897e-11
-5.37126e-11
1.47749e-11
-6.73017e-11
2.05562e-12
-8.12557e-11
-1.32793e-11
-9.51665e-11
-3.2236e-11
-1.08575e-10
-5.57614e-11
-1.20981e-10
-8.46136e-11
-1.31859e-10
-1.19317e-10
-1.4066e-10
-1.6017e-10
-1.46822e-10
-2.07272e-10
-1.49769e-10
-2.60558e-10
-1.48908e-10
-3.19836e-10
-1.43621e-10
-3.84806e-10
-1.33251e-10
-4.55088e-10
-1.17083e-10
-5.30229e-10
-9.43137e-11
-6.09712e-10
-6.40163e-11
-6.92949e-10
-2.50836e-11
-7.79256e-10
2.38314e-11
-8.67792e-10
8.43593e-11
-9.574e-10
1.58374e-10
-1.04627e-09
2.47687e-10
-1.13117e-09
3.52947e-10
-1.20603e-09
4.6992e-10
-1.25837e-09
5.92076e-10
-1.28324e-09
7.18872e-10
-1.28694e-09
8.5793e-10
-1.27699e-09
1.00203e-09
-1.21718e-09
1.15223e-09
-1.12339e-09
1.30483e-09
-9.91598e-10
1.43564e-09
-7.92743e-10
1.55759e-09
-6.03255e-10
1.6779e-09
-4.12783e-10
1.78467e-09
-1.88127e-10
1.86396e-09
7.93641e-11
1.90569e-09
3.83109e-10
1.90307e-09
7.12437e-10
1.85214e-09
1.05503e-09
1.75149e-09
1.39797e-09
1.60212e-09
1.72842e-09
1.40724e-09
2.0343e-09
1.17194e-09
2.30476e-09
9.02855e-10
2.53072e-09
6.07739e-10
2.70525e-09
2.94967e-10
2.82374e-09
2.88388e-09
-2.68778e-11
-3.3941e-12
2.65996e-11
-1.10667e-11
4.77816e-11
-2.16409e-11
5.17961e-11
-3.43923e-11
4.77101e-11
-4.89027e-11
4.01987e-11
-6.4847e-11
3.07179e-11
-8.18959e-11
1.91036e-11
-9.96787e-11
4.50284e-12
-1.17774e-10
-1.41418e-11
-1.35714e-10
-3.78225e-11
-1.52995e-10
-6.73338e-11
-1.69086e-10
-1.03227e-10
-1.83437e-10
-1.4582e-10
-1.95479e-10
-1.95229e-10
-2.04631e-10
-2.51406e-10
-2.10288e-10
-3.14179e-10
-2.11818e-10
-3.83276e-10
-2.08546e-10
-4.5836e-10
-1.99732e-10
-5.39043e-10
-1.84533e-10
-6.2491e-10
-1.61951e-10
-7.15532e-10
-1.30741e-10
-8.10467e-10
-8.92864e-11
-9.09247e-10
-3.54258e-11
-1.01126e-09
3.36616e-11
-1.11535e-09
1.21288e-10
-1.2188e-09
2.3035e-10
-1.31509e-09
3.58968e-10
-1.38699e-09
4.84688e-10
-1.40895e-09
6.02582e-10
-1.40483e-09
7.44288e-10
-1.4187e-09
8.81043e-10
-1.35394e-09
1.0177e-09
-1.26005e-09
1.2153e-09
-1.1892e-09
1.36163e-09
-9.39066e-10
1.52043e-09
-7.62063e-10
1.6899e-09
-5.82247e-10
1.83925e-09
-3.3748e-10
1.95324e-09
-3.46238e-11
2.022e-09
3.14352e-10
2.03858e-09
6.95859e-10
1.99875e-09
1.09486e-09
1.90102e-09
1.49569e-09
1.74656e-09
1.88288e-09
1.5391e-09
2.24176e-09
1.28465e-09
2.55921e-09
9.91049e-10
2.82432e-09
6.67398e-10
3.0289e-09
3.23499e-10
3.16764e-09
3.23806e-09
-3.06768e-11
-3.82958e-12
3.04296e-11
-1.26456e-11
5.65985e-11
-2.49663e-11
6.41166e-11
-3.9993e-11
6.27356e-11
-5.72543e-11
5.74585e-11
-7.63869e-11
4.98496e-11
-9.70361e-11
3.97523e-11
-1.18815e-10
2.62809e-11
-1.41293e-10
8.33562e-12
-1.64e-10
-1.51173e-11
-1.86429e-10
-4.49054e-11
-2.08049e-10
-8.16073e-11
-2.28306e-10
-1.25563e-10
-2.46626e-10
-1.76909e-10
-2.62414e-10
-2.35619e-10
-2.7505e-10
-3.01543e-10
-2.83883e-10
-3.74443e-10
-2.88218e-10
-4.54024e-10
-2.87296e-10
-5.39963e-10
-2.80257e-10
-6.31948e-10
-2.66072e-10
-7.29717e-10
-2.43421e-10
-8.33118e-10
-2.10485e-10
-9.42182e-10
-1.64617e-10
-1.05713e-09
-1.01911e-10
-1.17806e-09
-1.70052e-11
-1.30371e-09
9.60947e-11
-1.42819e-09
2.41881e-10
-1.53278e-09
4.12958e-10
-1.58003e-09
5.01243e-10
-1.49312e-09
5.9696e-10
-1.51442e-09
7.12727e-10
-1.46971e-09
8.74165e-10
-1.42148e-09
1.01759e-09
-1.33262e-09
1.21565e-09
-1.13712e-09
1.48172e-09
-1.02814e-09
1.71379e-09
-8.1432e-10
1.90863e-09
-5.32318e-10
2.05901e-09
-1.85005e-10
2.15625e-09
2.17119e-10
2.19327e-09
6.58834e-10
2.16544e-09
1.12268e-09
2.07084e-09
1.59029e-09
1.91054e-09
2.04318e-09
1.68869e-09
2.4636e-09
1.41231e-09
2.83559e-09
1.09062e-09
3.14601e-09
7.34333e-10
3.38519e-09
3.54889e-10
3.54708e-09
3.62908e-09
-3.61327e-11
-4.27265e-12
3.47028e-11
-1.42493e-11
6.65757e-11
-2.83425e-11
7.82094e-11
-4.56802e-11
8.00723e-11
-6.57386e-11
7.75161e-11
-8.812e-11
7.22307e-11
-1.12448e-10
6.40802e-11
-1.38325e-10
5.2157e-11
-1.65316e-10
3.5326e-11
-1.92952e-10
1.25174e-11
-2.20728e-10
-1.71297e-11
-2.48111e-10
-5.42235e-11
-2.74542e-10
-9.91319e-11
-2.99431e-10
-1.5202e-10
-3.2216e-10
-2.12891e-10
-3.42074e-10
-2.81629e-10
-3.58482e-10
-3.58034e-10
-3.70649e-10
-4.41855e-10
-3.77785e-10
-5.32826e-10
-3.79014e-10
-6.30719e-10
-3.7331e-10
-7.35421e-10
-3.59355e-10
-8.47072e-10
-3.35268e-10
-9.66269e-10
-2.98072e-10
-1.09432e-09
-2.42833e-10
-1.2333e-09
-1.6177e-10
-1.38477e-09
-4.5176e-11
-1.54478e-09
1.21415e-10
-1.69937e-09
3.80485e-10
-1.8391e-09
6.22228e-10
-1.73486e-09
7.57768e-10
-1.64996e-09
7.47092e-10
-1.45903e-09
7.39831e-10
-1.41422e-09
9.33768e-10
-1.52656e-09
1.25729e-09
-1.46065e-09
1.52679e-09
-1.29763e-09
1.7802e-09
-1.06773e-09
2.00507e-09
-7.5719e-10
2.18568e-09
-3.65615e-10
2.30957e-09
9.3226e-11
2.36744e-09
6.00964e-10
2.35261e-09
1.13751e-09
2.26173e-09
1.68117e-09
2.09516e-09
2.20976e-09
1.85724e-09
2.70153e-09
1.55603e-09
3.1368e-09
1.20242e-09
3.49962e-09
8.09006e-10
3.7786e-09
3.89152e-10
3.96694e-09
4.06197e-09
-4.37417e-11
-4.71349e-12
3.94169e-11
-1.58426e-11
7.77051e-11
-3.16965e-11
9.40627e-11
-5.13315e-11
9.97069e-11
-7.41758e-11
1.00361e-10
-9.98015e-11
9.78569e-11
-1.27816e-10
9.20954e-11
-1.57818e-10
8.21581e-11
-1.89374e-10
6.68818e-11
-2.22021e-10
4.51634e-11
-2.55258e-10
1.61077e-11
-2.88551e-10
-2.09295e-11
-3.21328e-10
-6.63553e-11
-3.52971e-10
-1.20378e-10
-3.82813e-10
-1.83049e-10
-4.10135e-10
-2.54307e-10
-4.34163e-10
-3.34005e-10
-4.54073e-10
-4.21944e-10
-4.68994e-10
-5.17906e-10
-4.78e-10
-6.21714e-10
-4.80072e-10
-7.33348e-10
-4.73975e-10
-8.53169e-10
-4.57976e-10
-9.82268e-10
-4.29278e-10
-1.12302e-09
-3.82685e-10
-1.27989e-09
-3.0938e-10
-1.45807e-09
-2.04841e-10
-1.64932e-09
-7.11122e-11
-1.8331e-09
1.34839e-10
-2.04505e-09
4.51885e-10
-2.0519e-09
7.11626e-10
-1.9097e-09
8.05665e-10
-1.55307e-09
9.3561e-10
-1.54417e-09
1.05107e-09
-1.64202e-09
1.27815e-09
-1.68773e-09
1.57248e-09
-1.59197e-09
1.8548e-09
-1.35004e-09
2.10874e-09
-1.01113e-09
2.3201e-09
-5.76979e-10
2.47309e-09
-5.97591e-11
2.55502e-09
5.19032e-10
2.55633e-09
1.1362e-09
2.47153e-09
1.76597e-09
2.29953e-09
2.38175e-09
2.04458e-09
2.95648e-09
1.71597e-09
3.4654e-09
1.32667e-09
3.88892e-09
8.91562e-10
4.21371e-09
4.26226e-10
4.43227e-09
4.54211e-09
-5.39061e-11
-5.1406e-12
4.45579e-11
-1.73852e-11
8.99496e-11
-3.49441e-11
1.11621e-10
-5.68078e-11
1.21571e-10
-8.23616e-11
1.25915e-10
-1.11154e-10
1.2665e-10
-1.42785e-10
1.23726e-10
-1.76855e-10
1.16227e-10
-2.12942e-10
1.02968e-10
-2.50592e-10
8.28146e-11
-2.89316e-10
5.48322e-11
-3.28576e-10
1.8331e-11
-3.67779e-10
-2.7153e-11
-4.06261e-10
-8.18964e-11
-4.43277e-10
-1.46033e-10
-4.77997e-10
-2.19588e-10
-5.09498e-10
-3.02505e-10
-5.36781e-10
-3.94662e-10
-5.58793e-10
-4.95895e-10
-5.7446e-10
-6.06047e-10
-5.82693e-10
-7.25115e-10
-5.82289e-10
-8.53572e-10
-5.71614e-10
-9.92943e-10
-5.48029e-10
-1.1466e-09
-5.06219e-10
-1.3217e-09
-4.27865e-10
-1.53643e-09
-2.96099e-10
-1.78109e-09
-2.12481e-10
-1.91672e-09
-1.41192e-11
-2.24342e-09
1.22443e-10
-2.18847e-09
2.55838e-10
-2.04309e-09
5.59971e-10
-1.8572e-09
8.43064e-10
-1.82726e-09
1.10174e-09
-1.9007e-09
1.35657e-09
-1.94255e-09
1.62949e-09
-1.86489e-09
1.92147e-09
-1.64202e-09
2.20069e-09
-1.29035e-09
2.44432e-09
-8.20606e-10
2.63169e-09
-2.4713e-10
2.74373e-09
4.06994e-10
2.7674e-09
1.11254e-09
2.69398e-09
1.83939e-09
2.51979e-09
2.55594e-09
2.24843e-09
3.22784e-09
1.8908e-09
3.82304e-09
1.46264e-09
4.31708e-09
9.81701e-10
4.69464e-09
4.66081e-10
4.94789e-09
5.0748e-09
-6.66098e-11
-5.54082e-12
5.00988e-11
-1.88313e-11
1.0324e-10
-3.79915e-11
1.30782e-10
-6.19536e-11
1.45534e-10
-9.00683e-11
1.54031e-10
-1.21869e-10
1.58451e-10
-1.56957e-10
1.58814e-10
-1.94946e-10
1.54216e-10
-2.35434e-10
1.43456e-10
-2.77989e-10
1.2537e-10
-3.22134e-10
9.89775e-11
-3.67331e-10
6.35272e-11
-4.12958e-10
1.84744e-11
-4.58291e-10
-3.65634e-11
-5.02476e-10
-1.01848e-10
-5.44513e-10
-1.77551e-10
-5.8325e-10
-2.63769e-10
-6.17395e-10
-3.60518e-10
-6.45567e-10
-4.67724e-10
-6.66372e-10
-5.85242e-10
-6.78511e-10
-7.12976e-10
-6.80825e-10
-8.51257e-10
-6.72004e-10
-1.00176e-09
-6.49726e-10
-1.16888e-09
-6.11301e-10
-1.36012e-09
-5.46474e-10
-1.60125e-09
-3.84951e-10
-1.94261e-09
-1.96779e-10
-2.10489e-09
-2.41597e-10