/*--------------------------------*- C++ -*----------------------------------*\
| =========                 |                                                 |
| \\      /  F ield         | OpenFOAM: The Open Source CFD Toolbox           |
|  \\    /   O peration     | Version:  2.4.0                                 |
|   \\  /    A nd           | Web:      www.OpenFOAM.org                      |
|    \\/     M anipulation  |                                                 |
\*---------------------------------------------------------------------------*/
FoamFile
{
    version     2.0;
    format      ascii;
    class       volScalarField;
    location    "0.029";
    object      p;
}
// * * * * * * * * * * * * * * * * * * * * * * * * * * * * * * * * * * * * * //

dimensions      [1 -1 -2 0 0 0 0];

internalField   nonuniform List<scalar> 
14400
(
95.589
97.3242
97.5515
97.8627
98.2121
98.5185
98.6709
98.5352
97.919
96.5967
94.41
91.3357
87.4908
83.0722
78.3254
73.4852
68.7531
64.2873
60.1998
56.5597
53.3989
50.7186
48.5013
46.7148
45.3187
44.2656
43.5141
43.0109
42.7074
42.5611
92.3286
94.0641
94.2915
94.603
94.9531
95.2607
95.4151
95.2828
94.6715
93.3554
91.1746
88.1047
84.2603
79.8409
75.091
70.246
65.5075
61.0338
56.9368
53.2861
50.112
47.4176
45.1851
43.3832
41.9731
40.9153
40.1492
39.6352
39.3254
39.1761
89.0677
90.8034
91.0309
91.3427
91.694
92.0042
92.1627
92.0383
91.4403
90.1402
87.9746
84.916
81.0753
76.6549
71.8978
67.0401
62.2842
57.7888
53.6662
49.9867
46.7814
44.0532
41.7847
39.9457
38.4997
37.4055
36.6148
36.0815
35.7589
35.6032
85.8062
87.542
87.7695
88.0818
88.4349
88.7488
88.9138
88.8021
88.2251
86.9511
84.8107
81.7705
77.9383
73.5162
68.7471
63.8683
59.0831
54.5511
50.3863
46.6603
43.4054
40.6242
38.2991
36.4008
34.896
33.7469
32.9113
32.3446
32.0003
31.8338
82.5441
84.28
84.5075
84.8203
85.1758
85.4948
85.6683
85.5738
85.0258
83.7883
81.683
78.6689
74.8493
70.4252
65.64
60.7317
55.9051
51.3219
47.0982
43.3082
39.986
37.1334
34.7316
32.7517
31.1632
29.935
29.0322
28.4146
28.0373
27.854
79.2816
81.0172
81.2447
81.5582
81.9165
82.2419
82.4262
82.3532
81.8423
80.6514
78.5916
75.6117
71.809
67.3831
62.5774
57.6313
52.7517
48.1026
43.8033
39.9323
36.5259
33.5851
31.0878
29.0033
27.3038
25.9666
24.9679
24.2763
23.8504
23.6426
76.0184
77.7539
77.9813
78.2954
78.6571
78.9901
79.1871
79.14
78.674
77.5404
75.5369
72.5993
68.8183
64.391
59.5609
54.569
49.6248
44.8953
40.5037
36.5345
33.0285
29.9847
27.3757
25.1648
23.3237
21.8397
20.7065
19.9083
19.4116
19.1679
72.7546
74.4899
74.7171
75.032
75.3976
75.7395
75.951
75.9338
75.5208
74.4554
72.5191
69.6326
65.8781
61.4501
56.5919
51.5467
46.5267
41.7023
37.2015
33.117
29.497
26.3389
23.6062
21.2505
19.2352
17.5561
16.2334
15.2803
14.6793
14.383
69.4904
71.2252
71.4522
71.7679
72.1378
72.4898
72.7174
72.7341
72.3821
71.3958
69.5384
66.7122
62.9895
58.5619
53.6725
48.5665
43.4599
38.5263
33.8986
29.6809
25.934
22.6546
19.793
17.2828
15.0622
13.1257
11.5329
10.3487
9.5916
9.21778
66.2256
67.9599
68.1866
68.5031
68.8778
69.241
69.4862
69.5402
69.2574
68.3617
66.5952
63.8389
60.1538
55.7282
50.8049
45.6313
40.4275
35.3705
30.5974
26.2264
22.3405
18.9385
15.9515
13.2947
10.8502
8.57764
6.59333
5.04972
4.05052
3.56495
62.9603
64.694
64.9203
65.2375
65.6174
65.9931
66.257
66.3515
66.146
65.3528
63.6899
61.0137
57.3726
52.951
47.9916
42.7439
37.433
32.2388
27.3004
22.7519
18.714
15.1962
12.0934
9.32916
6.68298
3.97764
1.42792
-0.720632
-2.11629
-2.73497
59.6946
61.4275
61.6532
61.9711
62.3566
62.7459
63.0295
63.1673
63.0471
62.3686
60.8229
58.2377
54.6474
50.2324
45.2352
39.9076
34.4799
29.1355
24.0104
19.2526
15.0442
11.4341
8.2105
5.42736
2.72453
-0.568755
-3.81675
-7.14646
-9.33404
-9.93303
56.4283
58.1604
58.3854
58.7039
59.0952
59.4994
59.8032
59.9866
59.9598
59.4087
57.9946
55.5121
51.9798
47.5748
42.5391
37.1259
31.5724
26.0658
20.7318
15.72
11.305
7.67247
4.22918
1.58103
-0.652237
-5.21726
-9.01793
-12.106
-5.1423
-2.82644
53.1615
54.8927
55.1169
55.4359
55.8332
56.2536
56.5778
56.8086
56.8833
56.4726
55.2057
52.8383
49.372
44.981
39.9065
34.4028
28.7144
23.0355
17.4716
12.1396
7.43634
3.98777
-0.151235
-2.36357
-6.92844
-2.0433
0.150278
0.206478
0.216802
0.215347
49.8944
51.6243
51.8476
52.1669
52.5705
53.0083
53.3528
53.632
53.8162
53.5597
52.4565
50.2175
46.8257
42.4534
37.341
31.7422
25.9097
20.051
14.2397
8.4799
3.31045
0.596652
-4.93041
-2.41414
0.120581
0.212645
0.171262
0.18667
0.194185
0.199763
46.6268
48.3554
48.5775
48.897
49.3069
49.7634
50.1277
50.4556
50.7575
50.6693
49.7477
47.6514
44.343
39.9951
34.8467
29.1488
23.1613
17.1192
11.0412
4.6132
-1.1744
-1.9405
0.153895
0.159449
0.146447
0.156362
0.158988
0.170071
0.176288
0.182157
43.3587
45.086
45.3067
45.6261
46.0424
46.519
46.9021
47.2779
47.7058
47.8005
47.0802
45.1417
41.9263
37.609
32.4281
26.6279
20.4707
14.251
7.84316
0.413746
-3.81051
0.0653216
0.140876
0.136294
0.135456
0.151562
0.151197
0.158555
0.162869
0.164312
40.0904
41.8159
42.0351
42.3541
42.7766
43.275
43.6755
44.0974
44.6593
44.9522
44.4545
42.6901
39.5777
35.2983
30.0898
24.1853
17.8367
11.4715
4.61295
-4.10159
-0.0298059
0.139259
0.131495
0.144972
0.122736
0.137455
0.143934
0.149326
0.152322
0.153737
36.8216
38.5454
38.7627
39.081
39.5096
40.0313
40.4473
40.9122
41.6164
42.1231
41.8718
40.2988
37.2993
33.0659
27.837
21.8288
15.2572
8.84668
2.10796
-6.47798
0.0738404
0.126152
0.120411
0.132375
0.119376
0.131633
0.137587
0.14132
0.143423
0.145874
33.5526
35.2743
35.4896
35.8068
36.241
36.7879
37.217
37.7203
38.5753
39.3116
39.3331
37.97
35.0933
30.9146
25.6753
19.568
12.7429
6.6814
-8.49255
0.041989
0.0862367
0.111471
0.111686
0.112919
0.118794
0.126551
0.131137
0.133886
0.137004
0.136297
30.2833
32.0027
32.2157
32.5314
32.9707
33.5446
33.984
34.5192
35.5338
36.5156
36.8399
35.7062
32.9616
28.8471
23.6106
17.4137
10.3766
5.23503
-0.738138
0.0658097
0.0834771
0.102595
0.10714
0.110551
0.115918
0.121219
0.124858
0.126865
0.127983
0.128905
27.0138
28.7306
28.941
29.2547
29.6985
30.3013
30.7476
31.3064
32.4897
33.7328
34.3936
33.5104
30.9058
26.8652
21.6484
15.3778
8.28861
2.27793
-0.589834
0.0274246
0.0836381
0.0964762
0.102323
0.106811
0.111503
0.115517
0.118328
0.120126
0.12123
0.121841
23.744
25.4581
25.6655
25.9768
26.4241
27.0576
27.5072
28.079
29.4406
30.9599
31.9965
31.3857
28.9271
24.9705
19.7914
13.469
6.60642
-12.2504
0.183055
0.0259945
0.0795206
0.0914414
0.0975954
0.10225
0.106361
0.10965
0.112023
0.113612
0.11459
0.115088
20.4742
22.185
22.3892
22.6975
23.1471
23.8128
24.2618
24.8334
26.3841
28.1929
29.6511
29.336
27.026
23.163
18.0346
11.7056
4.18625
0.582817
0.0514303
0.0407117
0.0733303
0.0870948
0.0930243
0.097375
0.100943
0.103728
0.105776
0.10718
0.108051
0.108483
17.2043
18.9116
19.1122
19.4169
19.8673
20.566
21.0103
21.5659
23.3175
25.4266
27.3607
27.3657
25.202
21.4423
16.3884
10.2026
7.82685
-0.185282
0.173954
0.0588497
0.07341
0.083557
0.0885778
0.0923557
0.0953891
0.0977551
0.0995223
0.100753
0.101518
0.101893
13.9343
15.6377
15.8344
16.1349
16.5844
17.3155
17.7512
18.2724
20.2384
22.6542
25.1296
25.4801
23.4533
19.8066
14.7997
8.8213
-6.01085
0.11195
0.023051
0.0724509
0.076148
0.0804851
0.084134
0.0872062
0.0897198
0.09171
0.0932195
0.094279
0.0949372
0.0952563
10.6644
12.3634
12.5557
12.8515
13.2978
14.0585
14.482
14.9479
17.1444
19.8667
22.9635
23.6856
21.7754
18.2591
13.2815
7.47
-4.97323
0.130328
0.105496
0.0814576
0.0760694
0.0771836
0.0795201
0.0818766
0.083907
0.0855573
0.0868282
0.0877252
0.0882806
0.0885459
7.39456
9.08878
9.27627
9.56662
10.0072
10.7908
11.1983
11.5874
14.0334
17.0517
20.8704
21.989
20.1575
16.7762
11.8239
7.12807
-1.6501
0.092497
0.127075
0.0830862
0.0742266
0.0733342
0.0745878
0.0763017
0.0779049
0.0792536
0.0803095
0.0810599
0.0815232
0.0817401
4.12592
5.81384
5.99608
6.28041
6.71206
7.50592
7.89196
8.18524
10.9038
14.1936
18.8606
20.3993
18.595
15.3927
10.3688
6.0956
-0.171595
0.0856019
0.11781
0.0807661
0.0709069
0.0687744
0.0692282
0.0704182
0.0716626
0.072754
0.0736244
0.074248
0.0746313
0.074807
0.874658
2.53848
2.71489
2.99265
3.41161
4.19391
4.54678
4.73435
7.75495
11.273
16.9476
18.9297
17.0673
14.0598
8.88992
7.07443
0.277767
0.0843163
0.102191
0.0755415
0.0660817
0.0633898
0.0633575
0.064168
0.0651316
0.0660178
0.066738
0.0672551
0.0675699
0.0677133
42.5351
42.6178
42.8387
43.2376
43.8597
44.7586
45.9792
47.5673
49.5675
52.0159
54.938
58.3421
62.2123
66.4982
71.1091
75.9099
80.721
85.3228
89.4753
92.9436
95.5707
97.2999
98.225
98.5528
98.5132
98.2819
97.9717
97.6619
97.4064
97.241
39.1495
39.234
39.4594
39.8667
40.5027
41.4082
42.6402
44.2434
46.2592
48.7223
51.6579
55.0742
58.9544
63.2491
67.8671
72.6734
77.4884
82.0921
86.2435
89.7104
92.3319
94.0556
94.9752
95.2983
95.256
95.0233
94.7123
94.4021
94.1464
93.9809
35.5754
35.6635
35.8984
36.3218
36.9795
37.9175
39.1845
40.8245
42.8771
45.3754
48.3437
51.7902
55.6976
60.0161
64.6535
69.4748
74.2995
78.9074
83.0566
86.5166
89.1248
90.8323
91.7368
92.049
92.0006
91.765
91.4526
91.1417
90.8858
90.7201
31.8039
31.8981
32.149
32.5998
33.2967
34.2853
35.6098
37.3095
39.4205
41.9738
44.9936
48.4883
52.4403
56.7984
61.4687
66.315
71.156
75.7705
79.916
83.3628
85.949
87.6301
88.5101
88.805
88.7471
88.5071
88.1925
87.8807
87.6246
87.4586
27.8211
27.9246
28.2
28.6927
29.449
30.5117
31.9186
33.7018
35.8925
38.5199
41.6093
45.1698
49.1838
53.5972
58.3137
63.1952
68.0588
72.6821
76.822
80.2495
82.8046
84.4488
85.2951
85.5661
85.4955
85.2496
84.9321
84.6191
84.3628
84.1964
23.6051
23.7225
24.0339
24.5878
25.4297
26.5963
28.1149
30.007
32.298
35.0173
38.1929
41.8365
45.9294
50.4139
55.1898
60.1165
65.0088
69.6429
73.7749
77.1769
79.6915
81.2883
82.0913
82.3321
82.2455
81.9923
81.6713
81.3569
81.1003
80.9335
19.1238
19.2614
19.6254
20.268
21.2319
22.5416
24.2067
26.2338
28.6438
31.4701
34.7469
38.4901
42.6792
47.2507
52.0989
57.0803
62.0071
66.6537
70.7754
74.1453
76.6099
78.1484
78.8986
79.1027
78.9971
78.7353
78.4101
78.0941
77.8372
77.6699
14.3295
14.4968
14.938
15.7106
16.8495
18.3557
20.2085
22.3954
24.9387
27.8832
31.2739
35.1327
39.4356
44.1098
49.0432
54.0885
59.0554
63.7159
67.8244
71.1554
73.56
75.0288
75.7164
75.8777
75.7502
75.4785
75.1485
74.8307
74.5735
74.4055
9.15085
9.36179
9.91749
10.8852
12.2802
14.0573
16.145
18.5101
21.1925
24.261
27.7752
31.7659
36.2011
40.9941
46.025
51.1432
56.1553
60.8305
64.9227
68.2076
70.5416
71.9291
72.5443
72.6566
72.5045
72.2219
71.8865
71.5666
71.3091
71.1404
3.48027
3.75179
4.47885
5.75371
7.53459
9.68779
12.0578
14.6015
17.4153
20.607
24.2509
28.391
32.9786
37.9068
43.0473
48.2468
53.3088
57.9992
62.0713
65.3024
67.5549
68.8489
69.3816
69.439
69.2599
68.9653
68.624
68.3019
68.0441
67.8746
-2.83951
-2.50632
-1.53378
0.277708
2.6555
5.33226
8.01314
10.6944
13.6145
16.9223
20.6977
25.0088
29.7719
34.8519
40.1132
45.402
50.5176
55.2236
59.2715
62.4406
64.6
65.7878
66.2278
66.2244
66.0161
65.7089
65.361
65.0365
64.7785
64.608
-10.0256
-9.69705
-8.54458
-5.4877
-2.24584
1.16897
4.10657
6.80194
9.79031
13.2028
17.1067
21.6192
26.5851
31.8333
37.2262
42.6117
47.785
52.5055
56.5245
59.6229
61.6769
62.7451
63.0819
63.0121
62.7729
62.4523
62.0974
61.7705
61.5122
61.3405
-2.32588
-3.39599
-9.18216
-11.7275
-6.78834
-2.31235
0.419232
2.90885
5.94348
9.43285
13.4603
18.2231
23.4237
28.856
34.3901
39.8794
45.1131
49.8469
53.8318
56.8502
58.7857
59.72
59.9431
59.8015
59.5301
59.1956
58.8332
58.5037
58.2453
58.0722
0.21244
0.213065
0.21971
0.136016
0.159954
-5.43786
-4.95262
-0.951839
2.16268
5.55643
9.73173
14.8244
20.2941
25.9249
31.6087
37.2087
42.5051
47.2499
51.1948
54.1235
55.9263
56.7118
56.8106
56.5919
56.2875
55.9388
55.5685
55.2364
54.9778
54.8032
0.199222
0.194061
0.192921
0.176656
0.163361
0.169162
0.110007
-5.85618
-1.17282
1.35235
5.89545
11.4381
17.2032
23.045
28.886
34.6031
39.9639
44.7169
48.6153
51.4437
53.0988
53.7195
53.6829
53.3825
53.0447
52.6817
52.303
51.9682
51.7097
51.5332
0.187667
0.177369
0.173872
0.164633
0.152784
0.157957
0.143334
0.174799
-0.428531
-3.88359
1.80348
8.10655
14.1546
20.2203
26.2259
32.0673
37.4928
42.2501
46.095
48.8121
50.3033
50.742
50.5591
50.1724
49.8015
49.4243
49.0368
48.6993
48.4409
48.2624
0.164533
0.164111
0.161297
0.155348
0.149388
0.147062
0.130639
0.139226
0.147704
-2.11002
-2.31929
4.9765
11.1424
17.4523
23.6325
29.6059
35.0955
39.8521
43.6357
46.2299
47.5396
47.7781
47.4376
46.9607
46.5578
46.1665
45.7698
45.4297
45.1716
44.9906
0.154311
0.153593
0.151371
0.147119
0.140421
0.131296
0.137092
0.146661
0.138814
0.180087
-6.71251
1.61666
8.14622
14.7327
21.1107
27.224
32.7757
37.5251
41.2393
43.6984
44.8079
44.8259
44.3169
43.7462
43.3131
42.9083
42.5019
42.1593
41.9016
41.7179
0.146205
0.149425
0.142909
0.139826
0.134986
0.126573
0.116041
0.144363
0.125542
0.108592
-0.0534841
-7.75067
5.11991
12.0205
18.6685
24.9278
30.537
35.2718
38.9078
41.2195
42.108
41.8838
41.1955
40.5279
40.0673
39.6495
39.2331
38.888
38.631
38.4441
0.137569
0.141889
0.135182
0.132791
0.129176
0.123067
0.114871
0.111639
0.113904
0.105116
0.0693377
-3.85798
1.19037
9.16542
16.3203
22.7248
28.3834
33.0943
36.6431
38.7951
39.4401
38.9497
38.0715
37.3044
36.8202
36.3902
35.9633
35.616
35.3599
35.1693
0.12921
0.128861
0.127685
0.126096
0.123274
0.118887
0.113121
0.108946
0.106825
0.0997821
0.0911086
0.113316
-10.8476
5.90779
14.0878
20.6239
26.3184
30.9946
34.4472
36.4272
36.804
36.0208
34.943
34.0742
33.5718
33.1301
32.6924
32.3431
32.0882
31.8934
0.121979
0.121651
0.120806
0.119369
0.117135
0.113848
0.109519
0.105244
0.101484
0.0965153
0.0931405
0.0797096
-3.53348
3.66064
11.9738
18.6346
24.3453
28.9744
32.3219
34.1185
34.1997
33.094
31.8082
30.8357
30.3219
29.8694
29.4203
29.0694
28.8159
28.6164
0.115182
0.114901
0.114182
0.11294
0.111055
0.108401
0.104914
0.100942
0.0968124
0.0926091
0.0809953
0.275635
-2.87674
4.5148
9.9487
16.7542
22.466
27.0346
30.2689
31.8722
31.6274
30.1653
28.665
27.5872
27.0707
26.608
26.1469
25.7948
25.5431
25.3381
0.108554
0.108297
0.107664
0.106585
0.10498
0.102769
0.0998796
0.0963727
0.0924068
0.0882045
0.0711427
0.0326059
0.319993
-20.6189
7.82797
15.0439
20.6787
25.1754
28.2892
29.6921
29.0873
27.23
25.5115
24.3262
23.8185
23.3456
22.8721
22.5193
22.2698
22.0586
0.101949
0.101717
0.10116
0.100227
0.0988634
0.0970116
0.0946116
0.0916405
0.0881652
0.0840712
0.0783488
0.00683848
0.113749
-6.33173
6.51571
13.5267
18.9826
23.3959
26.3834
27.5828
26.5796
24.282
22.3461
21.0498
20.5656
20.0821
19.5958
19.243
18.9961
18.7777
0.0952989
0.0950945
0.0946139
0.0938188
0.0926693
0.0911275
0.0891543
0.0867321
0.0839737
0.0811399
0.0793341
0.0544532
0.110683
0.404157
4.56992
12.0042
17.3681
21.6944
24.5512
25.5505
24.1053
21.3135
19.1676
17.7542
17.313
16.8175
16.3178
15.9657
15.7219
15.4954
0.088577
0.0884013
0.0879948
0.0873248
0.0863631
0.0850886
0.0834864
0.0815811
0.0795854
0.0780912
0.0779479
0.071771
0.120134
-0.305041
2.88077
10.2578
15.8444
20.0658
22.7899
23.603
21.6653
18.3145
15.975
14.4343
14.062
13.5513
13.038
12.6875
12.4474
12.2115
0.0817613
0.0816139
0.0812752
0.0807129
0.0799073
0.0788557
0.0775663
0.0761103
0.0747992
0.0744553
0.0765757
0.0788107
0.1088
-0.208792
3.83619
9.11388
14.3855
18.4953
21.0924
21.7511
19.2607
15.2716
12.7674
11.0829
10.8142
10.2831
9.75613
9.40845
9.17261
8.92602
0.0748222
0.0747016
0.0744205
0.0739446
0.0732606
0.0723843
0.0713491
0.0702578
0.0694791
0.0699582
0.0737209
0.0842463
0.0923844
-0.0618133
-8.6075
7.49258
13.0328
16.9921
19.4501
20.0095
16.8923
12.1667
9.54325
7.69079
7.57183
7.01257
6.47201
6.12854
5.89764
5.63883
0.0677273
0.0676298
0.067393
0.0669817
0.0663854
0.0656342
0.0647896
0.0639726
0.063541
0.0644426
0.0687312
0.079861
0.0801516
0.0066614
-6.59932
5.3557
11.7356
15.5231
17.8446
18.3958
14.5597
8.97503
6.2997
4.24569
4.33743
3.7386
3.18519
2.84759
2.62236
2.34752
-0.102001
0.0108246
0.0879593
0.23085
0.525978
1.25608
1.56234
1.66286
4.97994
8.64139
15.367
17.7572
15.7349
12.9589
7.84111
4.721
0.13645
0.0776609
0.0896537
0.0692534
0.0606358
0.0578737
0.057641
0.0582345
0.0590266
0.0597862
0.060405
0.0608424
0.0611074
0.0612333
-0.101866
-0.0919454
-0.0818414
-0.063697
-0.0180211
0.055777
-0.18304
-0.165631
3.34059
7.05968
14.4837
17.123
14.9469
12.3239
7.3723
-14.0664
0.148232
0.0774078
0.0819624
0.0646906
0.0567814
0.0541561
0.0538814
0.0544033
0.0551469
0.0558606
0.0564254
0.0568171
0.0570607
0.0571862
-0.103823
-0.0937824
-0.0836567
-0.065507
-0.0196872
0.0935957
-0.111381
-1.73165
1.55615
5.30934
13.5693
16.4827
14.0737
11.6538
7.11091
-35.125
0.182863
0.0757661
0.0731107
0.0591763
0.0522959
0.0498961
0.0496071
0.0501177
0.0508564
0.0515356
0.0520501
0.0524046
0.0526333
0.052757
-0.105713
-0.0957763
-0.0856446
-0.0675498
-0.0221723
0.32285
-0.543641
-0.998432
-0.0435812
3.37172
12.6308
15.8547
13.0996
10.9211
7.35941
-27.7958
0.170551
0.0699766
0.0631827
0.052648
0.0471
0.045025
0.044787
0.0453498
0.0461109
0.0467683
0.04725
0.0475825
0.0477988
0.0479139
-0.107787
-0.0979373
-0.0878195
-0.0698663
-0.0258735
0.0789839
-0.490105
-0.698982
-1.3366
0.935032
11.6784
15.2308
11.9873
10.1371
7.90686
2.40132
0.0906143
0.0620728
0.0525703
0.0449808
0.0410237
0.0394482
0.039382
0.0400458
0.0408425
0.0414999
0.0419756
0.0423014
0.0425067
0.0426089
-0.110046
-0.100275
-0.0901992
-0.0724836
-0.0305049
0.0501455
-0.441284
-0.393642
-2.03937
0.231496
10.7175
14.8182
10.6894
9.27976
7.61798
-2.29184
0.0381638
0.0517226
0.0419703
0.03627
0.0339567
0.0330961
0.0333444
0.0341441
0.0349923
0.03568
0.0361776
0.0365114
0.0367113
0.0368024
-0.112499
-0.102807
-0.0928031
-0.0754307
-0.0360807
0.0221543
-0.410041
-0.397539
-0.446302
-3.24031
8.54055
14.7987
9.12155
8.33089
6.49693
-0.914305
0.0223988
0.0396558
0.0304574
0.026492
0.0258316
0.0258775
0.0265806
0.0275637
0.0284965
0.0292469
0.0297913
0.0301495
0.0303552
0.0304417
-0.115171
-0.105554
-0.095657
-0.0787462
-0.0425564
-0.00444286
-0.373569
-0.393514
-0.332673
-4.3905
5.1755
13.4283
6.75149
7.27823
1.65525
-0.120244
0.00568289
0.0259422
0.0161963
0.0149612
0.0164233
0.0176603
0.018975
0.0202275
0.0212989
0.0221447
0.0227581
0.0231594
0.0233855
0.0234762
-0.118084
-0.108537
-0.0987847
-0.082469
-0.0499161
-0.0294474
-0.347196
-0.393998
-0.316284
-0.243447
-4.93835
12.2057
4.12793
6.04407
-8.42577
0.153634
-0.00823167
0.00532958
-0.0018616
0.00110379
0.00543962
0.00828372
0.0104045
0.0120536
0.0133385
0.0143169
0.015021
0.0154832
0.0157444
0.0158483
-0.121255
-0.111778
-0.102217
-0.0866431
-0.0580958
-0.0524039
-0.32703
-0.392336
-0.307601
-0.192435
-10.6566
10.0721
2.21566
4.54149
1.81972
0.159684
-0.0178016
-0.0269473
-0.0257112
-0.014935
-0.0071619
-0.00237798
0.000771757
0.0029739
0.00456453
0.00572168
0.0065392
0.00707687
0.0073848
0.00750915
-0.124707
-0.1153
-0.105979
-0.0912952
-0.0670208
-0.0733118
-0.309938
-0.386823
-0.300362
-0.207474
-1.82114
8.96208
-1.84517
3.1988
-1.4665
0.131846
-0.0267382
-0.0115426
-0.0549078
-0.0336091
-0.0215114
-0.0144246
-0.00998805
-0.0070596
-0.00505978
-0.00367016
-0.00271454
-0.00208976
-0.00172819
-0.00157944
-0.128465
-0.119129
-0.110104
-0.0964585
-0.0765847
-0.0922116
-0.294084
-0.374567
-0.293939
-0.221882
-0.0740158
1.07961
-5.82848
1.5062
-4.81024
0.0986764
-0.0721191
-0.11948
-0.0845868
-0.055036
-0.0377986
-0.0278976
-0.0218724
-0.018043
-0.0155331
-0.0138568
-0.012738
-0.0120172
-0.0115998
-0.011426
-0.132553
-0.123292
-0.114621
-0.102154
-0.0866848
-0.10919
-0.277828
-0.357858
-0.288046
-0.233285
-0.149908
-10.1132
-6.68687
1.5441
-0.971519
0.0508205
-0.161969
-0.17303
-0.122031
-0.0800316
-0.0560887
-0.0426742
-0.0347579
-0.0298834
-0.026787
-0.0247829
-0.0234822
-0.0226611
-0.0221904
-0.0219952
-0.137003
-0.127821
-0.119567
-0.108404
-0.0972021
-0.124397
-0.263712
-0.336286
-0.282549
-0.239462
-0.182601
-5.6467
-3.4388
7.39715
-0.279085
-0.0502468
-0.252186
-0.257476
-0.173164
-0.109224
-0.0759741
-0.0583341
-0.0483367
-0.0423621
-0.0386607
-0.0363218
-0.0348391
-0.0339234
-0.0334087
-0.0332008
-0.141842
-0.132745
-0.124973
-0.11522
-0.108031
-0.137993
-0.251695
-0.315311
-0.27746
-0.24237
-0.179789
-0.501229
4.40282
21.8113
-0.332484
-0.158409
-0.354754
-0.366749
-0.235034
-0.140529
-0.0960403
-0.0739845
-0.0620264
-0.0550782
-0.0508601
-0.048242
-0.0466131
-0.045628
-0.0450884
-0.0448813
-0.147104
-0.1381
-0.130874
-0.122608
-0.119062
-0.150174
-0.24286
-0.297495
-0.272622
-0.243698
-0.195741
-0.217905
8.52613
34.8633
-0.0983096
-0.186533
-0.418508
-0.474006
-0.292455
-0.168457
-0.113474
-0.0881613
-0.0749579
-0.0674583
-0.0629708
-0.0602196
-0.0585325
-0.0575322
-0.0570015
-0.0568147
-0.152825
-0.14392
-0.137302
-0.130563
-0.13021
-0.161157
-0.236775
-0.283182
-0.268117
-0.244748
-0.21017
-0.275195
-0.278349
3.12359
0.119844
-0.191826
-0.433982
-0.513012
-0.298776
-0.181034
-0.124213
-0.0990356
-0.0861343
-0.0788649
-0.074535
-0.071894
-0.0702911
-0.0693603
-0.0688878
-0.0687469
-0.15904
-0.150244
-0.144287
-0.139071
-0.141393
-0.171167
-0.232908
-0.271966
-0.264163
-0.246244
-0.22657
-0.272716
-0.285826
-0.448198
-0.0459762
-0.395544
-0.384259
-0.422534
-0.265627
-0.169489
-0.125687
-0.10548
-0.0949292
-0.0888754
-0.0852265
-0.0829918
-0.0816453
-0.0808842
-0.0805261
-0.0804582
-0.165788
-0.157111
-0.151858
-0.148115
-0.152563
-0.180431
-0.230825
-0.263452
-0.260809
-0.248102
-0.238751
-0.270579
-0.298317
-0.336166
-0.185494
-0.446799
-0.234552
-0.27322
-0.199214
-0.14626
-0.121144
-0.108751
-0.101832
-0.0976743
-0.0950958
-0.0935002
-0.0925498
-0.0920398
-0.0918395
-0.0918631
-0.173113
-0.164561
-0.160039
-0.15767
-0.163683
-0.189166
-0.230231
-0.25732
-0.258142
-0.24994
-0.246144
-0.265349
-0.283183
-0.272818
-0.222455
-0.283807
-0.0640913
-0.148868
-0.141856
-0.126609
-0.117437
-0.111892
-0.108361
-0.1061
-0.104655
-0.10376
-0.10325
-0.103017
-0.102984
-0.103098
-0.181061
-0.172637
-0.168855
-0.167719
-0.174758
-0.197587
-0.230937
-0.253306
-0.256269
-0.251545
-0.250118
-0.259882
-0.266048
-0.251082
-0.210451
-0.144915
-0.0924616
-0.115709
-0.120021
-0.119989
-0.118496
-0.117115
-0.116014
-0.115223
-0.1147
-0.114392
-0.114256
-0.114255
-0.114359
-0.11454
-0.189681
-0.181382
-0.178327
-0.178244
-0.185812
-0.205874
-0.232825
-0.251188
-0.255281
-0.252935
-0.252033
-0.255276
-0.253447
-0.236752
-0.201407
-0.143388
-0.111475
-0.117422
-0.122384
-0.124805
-0.125722
-0.126003
-0.126052
-0.126045
-0.126052
-0.126097
-0.12619
-0.12633
-0.126508
-0.126712
-0.199026
-0.190841
-0.188477
-0.189237
-0.196894
-0.214193
-0.235829
-0.25078
-0.255246
-0.2543
-0.253064
-0.252062
-0.245736
-0.228885
-0.200585
-0.163324
-0.141045
-0.136639
-0.136868
-0.137675
-0.138283
-0.138667
-0.13892
-0.139109
-0.13927
-0.139427
-0.13959
-0.139764
-0.139945
-0.140129
-0.20915
-0.201059
-0.199326
-0.200701
-0.208073
-0.222695
-0.239901
-0.251929
-0.25623
-0.25594
-0.254142
-0.250674
-0.242477
-0.227268
-0.205849
-0.182556
-0.166368
-0.158995
-0.156098
-0.154997
-0.154582
-0.15444
-0.15442
-0.15446
-0.154536
-0.154636
-0.154753
-0.154879
-0.155008
-0.155137
-0.220118
-0.212086
-0.210903
-0.212657
-0.219436
-0.231518
-0.245013
-0.254522
-0.258311
-0.258201
-0.255959
-0.251377
-0.243034
-0.230344
-0.214683
-0.199223
-0.187538
-0.180418
-0.176457
-0.174286
-0.173079
-0.172399
-0.172018
-0.171815
-0.171721
-0.171698
-0.171716
-0.171757
-0.171809
-0.171873
-0.231994
-0.223975
-0.223243
-0.225143
-0.231087
-0.240788
-0.251153
-0.258481
-0.261569
-0.261399
-0.25899
-0.254263
-0.246786
-0.236777
-0.225506
-0.214876
-0.206437
-0.200555
-0.196725
-0.194294
-0.192755
-0.19178
-0.191164
-0.190778
-0.190543
-0.190407
-0.190331
-0.190292
-0.190278
-0.190291
-0.244851
-0.236787
-0.236396
-0.238223
-0.243146
-0.250625
-0.25832
-0.263751
-0.266084
-0.265847
-0.263518
-0.259291
-0.253197
-0.245705
-0.237764
-0.230439
-0.224452
-0.219978
-0.216811
-0.214632
-0.213152
-0.212152
-0.211479
-0.211028
-0.210728
-0.21053
-0.210399
-0.210314
-0.210266
-0.21025
-0.258768
-0.25059
-0.25043
-0.251981
-0.255741
-0.26114
-0.26652
-0.270293
-0.271899
-0.271587
-0.269666
-0.266347
-0.261854
-0.256638
-0.251318
-0.246474
-0.242452
-0.239337
-0.237031
-0.235374
-0.234201
-0.233377
-0.232801
-0.232399
-0.232119
-0.231924
-0.231788
-0.231698
-0.231643
-0.23162
-0.273833
-0.265472
-0.265436
-0.266539
-0.269022
-0.272439
-0.27576
-0.278065
-0.279017
-0.27874
-0.277433
-0.275265
-0.272453
-0.269309
-0.266186
-0.263372
-0.26103
-0.259192
-0.25781
-0.256798
-0.256071
-0.255552
-0.255184
-0.254923
-0.254736
-0.254603
-0.25451
-0.254447
-0.25441
-0.254392
-0.290142
-0.281534
-0.281539
-0.282051
-0.283153
-0.284627
-0.286032
-0.286995
-0.287372
-0.287226
-0.286703
-0.285841
-0.284755
-0.283577
-0.28244
-0.281445
-0.28064
-0.280032
-0.279595
-0.279293
-0.279092
-0.278961
-0.278877
-0.278822
-0.278786
-0.278761
-0.278745
-0.278735
-0.27873
-0.278728
0.0612528
0.0611727
0.0609645
0.0605939
0.060045
0.0593498
0.0585984
0.0579332
0.0576416
0.0585372
0.0624532
0.0711343
0.0693911
0.0207226
0.67207
2.71187
10.7345
14.2577
16.4395
17.1035
12.5427
6.07639
3.43996
1.16986
1.51319
0.865205
0.358695
0.155301
0.0453199
-0.0557643
0.0572118
0.057138
0.0569405
0.0565901
0.0560635
0.0553747
0.0546217
0.0539924
0.0537564
0.0545714
0.0581127
0.0654585
0.0632015
0.0347307
-3.4268
-0.026448
10.1841
13.5148
15.6084
16.3989
11.366
4.32011
1.75112
-0.660797
-0.0136728
0.0551919
-0.0329801
-0.0702949
-0.0859064
-0.0973024
0.0527831
0.0527094
0.052517
0.0521831
0.0516808
0.0510016
0.0502233
0.0495694
0.0493644
0.0501303
0.0532562
0.0594878
0.0575626
0.0611293
-0.293623
-4.24043
9.62334
12.7052
14.6921
15.6818
10.096
2.36243
-0.0828884
-0.758213
-0.190695
0.0628875
-0.0344256
-0.0720791
-0.0877229
-0.0991028
0.0479346
0.0478597
0.0476711
0.0473473
0.0468598
0.046186
0.0453741
0.0446466
0.0444003
0.0451012
0.0477427
0.0529068
0.0525512
0.070146
0.483755
0.477182
9.01187
11.807
13.6726
14.966
8.73738
0.185735
-1.20224
-0.261709
-0.208961
0.0443353
-0.0365804
-0.074072
-0.0897015
-0.100933
0.0426211
0.0425443
0.0423581
0.0420359
0.0415458
0.0408609
0.0400101
0.0391883
0.0388117
0.0393389
0.041393
0.0456592
0.0475552
0.0660725
-0.173495
10.8099
8.39869
10.8118
12.5263
14.3501
7.20521
-1.75447
-1.39426
-0.16834
-0.218632
0.0451838
-0.0399413
-0.076303
-0.0918565
-0.102891
0.0368054
0.0367239
0.0365342
0.0362021
0.0356895
0.0349692
0.0340649
0.0331398
0.0325565
0.0327319
0.0341035
0.0375918
0.0402787
0.0533399
0.0653445
3.16149
7.62499
9.68454
11.0943
13.7912
7.59814
-3.51369
-0.2717
-0.172822
-0.236242
0.0128324
-0.0454634
-0.0787995
-0.0942032
-0.10503
0.0304364
0.0303451
0.0301412
0.0297839
0.0292289
0.0284474
0.0274626
0.0264072
0.0255446
0.0251783
0.0257392
0.027719
0.0292643
0.0413501
0.077996
2.56827
6.52053
8.36761
9.68201
12.7016
2.45117
-2.68165
-0.142597
-0.176685
-0.244468
-0.0408918
-0.0507202
-0.0815849
-0.0967615
-0.107365
0.0234643
0.0233568
0.0231249
0.0227245
0.0221069
0.0212397
0.0201377
0.0188914
0.0176454
0.0165289
0.0158598
0.0151791
0.0154953
0.0267828
0.0570046
-0.364798
5.16284
6.75113
9.56202
10.5742
-3.2221
-0.42289
-0.163123
-0.186061
-0.239174
-0.0734145
-0.0561626
-0.084698
-0.0995529
-0.109914
0.0158315
0.0157017
0.0154282
0.0149663
0.0142657
0.0132869
0.0120207
0.0104915
0.00871142
0.00659839
0.00410547
0.000349817
-0.00167058
0.00231106
-5.71321e-05
-3.26554
3.9074
4.54142
8.46056
6.92642
-4.495
-0.268658
-0.172057
-0.194931
-0.227621
-0.0824112
-0.0622924
-0.0881709
-0.1026
-0.112701
0.00748866
0.00733158
0.00700558
0.00646637
0.00566253
0.00454132
0.0030508
0.00112504
-0.00137284
-0.00474863
-0.0094007
-0.0164268
-0.0263247
-0.0263754
-0.0101432
-1.5869
3.7109
0.79107
6.60101
-4.30386
-0.481051
-0.275319
-0.181995
-0.203066
-0.217078
-0.0885486
-0.0691201
-0.0920438
-0.105929
-0.115746
-0.00160314
-0.00179079
-0.00217647
-0.00280472
-0.00373175
-0.00503295
-0.00681971
-0.00926707
-0.012684
-0.0176526
-0.0250172
-0.0364012
-0.0563698
-0.0563068
-0.0446157
-0.154632
1.58404
-2.66331
4.81694
-17.8706
-0.282191
-0.269566
-0.191952
-0.206014
-0.209692
-0.0951609
-0.0765951
-0.0963414
-0.109566
-0.119075
-0.0114532
-0.0116735
-0.0121228
-0.0128478
-0.0139167
-0.0154388
-0.0175963
-0.0206874
-0.0252245
-0.0321692
-0.0432123
-0.061398
-0.0747197
-0.114554
-0.0794958
0.268709
-5.06453
-4.81951
1.3443
-4.39477
-0.291188
-0.268438
-0.200744
-0.202662
-0.205235
-0.103522
-0.0846321
-0.101096
-0.113541
-0.122712
-0.0220278
-0.0222809
-0.0227938
-0.0236192
-0.024845
-0.0266225
-0.0292107
-0.0330411
-0.0388668
-0.0481398
-0.063801
-0.0914036
-0.147784
-0.222908
-0.134377
0.287996
-5.46949
-3.99476
-1.08114
-0.493401
-0.270716
-0.267152
-0.20792
-0.206259
-0.202451
-0.113045
-0.0931422
-0.106328
-0.117882
-0.126683
-0.0332431
-0.0335272
-0.0340991
-0.0350228
-0.0364099
-0.0384558
-0.041496
-0.0460966
-0.0532785
-0.0650798
-0.0859712
-0.125609
-0.202816
-0.30479
-0.194795
0.0588894
4.80994
1.35955
4.3722
-0.185697
-0.259271
-0.264302
-0.214271
-0.203945
-0.20018
-0.12303
-0.102029
-0.112061
-0.122624
-0.131019
-0.0449391
-0.0452515
-0.0458735
-0.0468831
-0.0484148
-0.0507024
-0.0541453
-0.0594275
-0.0678223
-0.0819736
-0.108019
-0.161369
-0.269655
-0.39474
-0.274571
0.0113111
12.0085
10.4741
-4.43246
-0.200914
-0.248834
-0.259673
-0.21946
-0.202674
-0.198534
-0.132988
-0.11122
-0.11831
-0.127799
-0.135751
-0.0568954
-0.0572328
-0.0578897
-0.0589563
-0.0605841
-0.06303
-0.0667291
-0.0724322
-0.0815696
-0.0971935
-0.126748
-0.19138
-0.325059
-0.469345
-0.326267
0.13142
6.99008
18.2481
-0.629206
-0.234271
-0.243585
-0.254037
-0.223371
-0.203141
-0.19761
-0.142608
-0.120645
-0.125088
-0.13344
-0.14091
-0.0688594
-0.0692165
-0.0698857
-0.0709625
-0.0726033
-0.0750646
-0.0787739
-0.0844596
-0.0935245
-0.108958
-0.138295
-0.202009
-0.344284
-0.504344
-0.342192
0.244072
0.190409
0.190604
-0.335556
-0.267132
-0.243324
-0.2489
-0.226073
-0.205087
-0.197497
-0.151783
-0.130269
-0.132401
-0.139583
-0.146532
-0.0806102
-0.0809788
-0.0816315
-0.0826597
-0.0842077
-0.086504
-0.0899136
-0.0950527
-0.103067
-0.116315
-0.140401
-0.189753
-0.299179
-0.387215
-0.372364
-0.24466
-0.243084
-0.276882
-0.294355
-0.268911
-0.245847
-0.24531
-0.22798
-0.208052
-0.198286
-0.160534
-0.140059
-0.140254
-0.146261
-0.152653
-0.0920568
-0.0924253
-0.0930311
-0.093951
-0.0953025
-0.0972624
-0.100103
-0.10426
-0.11051