/*--------------------------------*- C++ -*----------------------------------*\
| =========                 |                                                 |
| \\      /  F ield         | OpenFOAM: The Open Source CFD Toolbox           |
|  \\    /   O peration     | Version:  2.4.0                                 |
|   \\  /    A nd           | Web:      www.OpenFOAM.org                      |
|    \\/     M anipulation  |                                                 |
\*---------------------------------------------------------------------------*/
FoamFile
{
    version     2.0;
    format      ascii;
    class       volScalarField;
    location    "0.248";
    object      alpha.water;
}
// * * * * * * * * * * * * * * * * * * * * * * * * * * * * * * * * * * * * * //

dimensions      [0 0 0 0 0 0 0];

internalField   nonuniform List<scalar> 
10000
(
7.81215e-56
5.95639e-52
2.04521e-48
3.63552e-45
2.37321e-42
5.3962e-40
5.31113e-38
2.71043e-36
8.15684e-35
1.59203e-33
2.20551e-32
2.36005e-31
2.03667e-30
1.43672e-29
8.73665e-29
5.03059e-28
3.11508e-27
1.97732e-26
1.17782e-25
6.43967e-25
3.1674e-24
1.41626e-23
5.81128e-23
2.20213e-22
7.64278e-22
2.41031e-21
6.7853e-21
1.66296e-20
3.29692e-20
4.56172e-20
4.36334e-20
2.89812e-20
1.38042e-20
4.90966e-21
1.36281e-21
3.10308e-22
6.08791e-23
1.01923e-23
1.3828e-24
1.42523e-25
1.05746e-26
5.51897e-28
2.04542e-29
6.04814e-31
9.3541e-33
8.24468e-35
6.92166e-37
6.32553e-39
5.7609e-39
2.52694e-37
2.15935e-52
1.54612e-48
5.64618e-45
1.01545e-41
5.58461e-39
1.05447e-36
8.88169e-35
3.9982e-33
1.08586e-31
1.94115e-30
2.48171e-29
2.45627e-28
1.97035e-27
1.30986e-26
7.5277e-26
4.06063e-25
2.35792e-24
1.39375e-23
7.48846e-23
3.70342e-22
1.6733e-21
6.83561e-21
2.56225e-20
8.87431e-20
2.84396e-19
8.32981e-19
2.18267e-18
5.00043e-18
9.40088e-18
1.31855e-17
1.35649e-17
1.02882e-17
5.84959e-18
2.56275e-18
9.01842e-19
2.66329e-19
6.73756e-20
1.44773e-20
2.55111e-21
3.54911e-22
3.83511e-23
3.27491e-24
2.33647e-25
1.38381e-26
6.67885e-28
2.44118e-29
6.51973e-31
3.25736e-31
6.74304e-30
1.20563e-28
7.04246e-50
6.97526e-46
4.412e-42
8.05296e-39
3.51017e-36
5.42178e-34
3.9004e-32
1.54936e-30
3.80045e-29
6.22971e-28
7.35783e-27
6.7536e-26
5.05755e-25
3.16385e-24
1.70971e-23
8.72494e-23
4.66203e-22
2.53277e-21
1.23178e-20
5.49353e-20
2.24968e-19
8.36652e-19
2.86563e-18
9.11256e-18
2.69475e-17
7.37731e-17
1.82488e-16
3.96715e-16
7.21411e-16
1.02101e-15
1.1093e-15
9.25296e-16
5.9711e-16
3.04625e-16
1.2778e-16
4.57547e-17
1.41508e-17
3.75344e-18
8.38064e-19
1.55531e-19
2.38099e-20
3.06815e-21
3.32144e-22
2.81566e-23
1.7727e-24
7.92346e-26
4.33552e-27
3.3458e-26
4.66353e-25
5.44681e-24
9.91485e-48
2.08135e-43
2.07395e-39
2.89531e-36
9.81432e-34
1.24777e-31
7.70672e-30
2.71206e-28
6.02575e-27
9.07807e-26
9.92166e-25
8.44511e-24
5.88697e-23
3.44984e-22
1.75281e-21
8.43311e-21
4.14864e-20
2.04771e-19
9.09142e-19
3.67823e-18
1.35975e-17
4.60157e-17
1.44006e-16
4.21463e-16
1.15487e-15
2.94886e-15
6.91081e-15
1.43446e-14
2.54105e-14
3.62207e-14
4.09471e-14
3.66988e-14
2.60894e-14
1.49447e-14
7.14466e-15
2.93642e-15
1.05094e-15
3.2658e-16
8.722e-17
1.98018e-17
3.77896e-18
6.19082e-19
8.15609e-20
8.19031e-21
5.92224e-22
2.90882e-23
8.03972e-24
9.32081e-23
9.90324e-22
8.59475e-21
1.14498e-45
6.44843e-41
5.49629e-37
5.66586e-34
1.51325e-31
1.59923e-29
8.54153e-28
2.67593e-26
5.40499e-25
7.50608e-24
7.60862e-23
6.00882e-22
3.89076e-21
2.1243e-20
1.01307e-19
4.57369e-19
2.07856e-18
9.28946e-18
3.76983e-17
1.39113e-16
4.65257e-16
1.43225e-15
4.10587e-15
1.10752e-14
2.8176e-14
6.72244e-14
1.48853e-13
2.96207e-13
5.11361e-13
7.32089e-13
8.5442e-13
8.10306e-13
6.21619e-13
3.90011e-13
2.05831e-13
9.39907e-14
3.76688e-14
1.32595e-14
4.05987e-15
1.06065e-15
2.37382e-16
4.4684e-17
6.67984e-18
7.54023e-19
5.99552e-20
3.29225e-21
3.40199e-21
3.50525e-20
2.98722e-19
2.08015e-18
1.4261e-43
1.42251e-38
8.82107e-35
6.78405e-32
1.44766e-29
1.28601e-27
5.98505e-26
1.67774e-24
3.09248e-23
3.97181e-22
3.74552e-21
2.74873e-20
1.65248e-19
8.37614e-19
3.72729e-18
1.57188e-17
6.60407e-17
2.68176e-16
9.95883e-16
3.35622e-15
1.01984e-14
2.8564e-14
7.51392e-14
1.87227e-13
4.42775e-13
9.88931e-13
2.06439e-12
3.93533e-12
6.61341e-12
9.4731e-12
1.13562e-11
1.1287e-11
9.21805e-12
6.22258e-12
3.55269e-12
1.76409e-12
7.74445e-13
3.0165e-13
1.02738e-13
3.00956e-14
7.58713e-15
1.57572e-15
2.60102e-16
3.23975e-17
2.81711e-18
1.85991e-19
3.92659e-19
3.47429e-18
2.50439e-17
1.47951e-16
1.70964e-41
2.13952e-36
9.20703e-33
5.36009e-30
9.27675e-28
6.99892e-26
2.85728e-24
7.19962e-23
1.21531e-21
1.4483e-20
1.27504e-19
8.72025e-19
4.86885e-18
2.28644e-17
9.44195e-17
3.69768e-16
1.4366e-15
5.32211e-15
1.81443e-14
5.58462e-14
1.54496e-13
3.94352e-13
9.52915e-13
2.19739e-12
4.83986e-12
1.01259e-11
1.99054e-11
3.61937e-11
5.90974e-11
8.43905e-11
1.03408e-10
1.07174e-10
9.23807e-11
6.6165e-11
4.02816e-11
2.14642e-11
1.01799e-11
4.30568e-12
1.60288e-12
5.19195e-13
1.44184e-13
3.2798e-14
5.91164e-15
8.07907e-16
7.74345e-17
6.2772e-18
1.69547e-17
1.32556e-16
8.42114e-16
4.38899e-15
1.89421e-39
2.22216e-34
6.59041e-31
2.9538e-28
4.20063e-26
2.71486e-24
9.77773e-23
2.22327e-21
3.44735e-20
3.82344e-19
3.15358e-18
2.01768e-17
1.04821e-16
4.55892e-16
1.73946e-15
6.29088e-15
2.2536e-14
7.64151e-14
2.40169e-13
6.76135e-13
1.70468e-12
3.97388e-12
8.82356e-12
1.88526e-11
3.8759e-11
7.59852e-11
1.40406e-10
2.42526e-10
3.83088e-10
5.43333e-10
6.78553e-10
7.31017e-10
6.60884e-10
4.96888e-10
3.18852e-10
1.80447e-10
9.16718e-11
4.17122e-11
1.6823e-11
5.95399e-12
1.80756e-12
4.52158e-13
8.9346e-14
1.34224e-14
1.43226e-15
1.33344e-16
3.45697e-16
2.46058e-15
1.42169e-14
6.73355e-14
1.99576e-37
1.62973e-32
3.38056e-29
1.18324e-26
1.39746e-24
7.79299e-23
2.48797e-21
5.12138e-20
7.31225e-19
7.56644e-18
5.86599e-17
3.52622e-16
1.71057e-15
6.90046e-15
2.42633e-14
8.06105e-14
2.65063e-13
8.24979e-13
2.40058e-12
6.19258e-12
1.42534e-11
3.03634e-11
6.19352e-11
1.22757e-10
2.35887e-10
4.33807e-10
7.53277e-10
1.23155e-09
1.87008e-09
2.62499e-09
3.3385e-09
3.73472e-09
3.52778e-09
2.75333e-09
1.84136e-09
1.0993e-09
5.93973e-10
2.89699e-10
1.26239e-10
4.86006e-11
1.6116e-11
4.44559e-12
9.76637e-13
1.62568e-13
1.94294e-14
1.93831e-15
3.92183e-15
2.60103e-14
1.40187e-13
6.1755e-13
1.77759e-35
8.72096e-31
1.28434e-27
3.55514e-25
3.51831e-23
1.70333e-21
4.83995e-20
9.0421e-19
1.19084e-17
1.15167e-16
8.41455e-16
4.77279e-15
2.17221e-14
8.15723e-14
2.64272e-13
8.02788e-13
2.41111e-12
6.89501e-12
1.86444e-11
4.42072e-11
9.31194e-11
1.81204e-10
3.39547e-10
6.2463e-10
1.12292e-09
1.9381e-09
3.16255e-09
4.89007e-09
7.09385e-09
9.87641e-09
1.28682e-08
1.50155e-08
1.47918e-08
1.17846e-08
8.07876e-09
5.03821e-09
2.88139e-09
1.50432e-09
7.08738e-10
2.97269e-10
1.08262e-10
3.30545e-11
8.14668e-12
1.53054e-12
2.0616e-13
2.1545e-14
2.79732e-14
1.752e-13
8.99848e-13
3.75724e-12
1.26839e-33
3.49831e-29
3.70952e-26
8.21114e-24
6.86178e-22
2.89947e-20
7.35771e-19
1.24996e-17
1.52e-16
1.37514e-15
9.48572e-15
5.09539e-14
2.18724e-13
7.68757e-13
2.30078e-12
6.37144e-12
1.73992e-11
4.5725e-11
1.15128e-10
2.51917e-10
4.87175e-10
8.65856e-10
1.49142e-09
2.54472e-09
4.27481e-09
6.92501e-09
1.06231e-08
1.55773e-08
2.15522e-08
3.04291e-08
4.13822e-08
5.0743e-08
5.22192e-08
4.13527e-08
2.83389e-08
1.81529e-08
1.08808e-08
6.06149e-09
3.0927e-09
1.4189e-09
5.70885e-10
1.94353e-10
5.38712e-11
1.15727e-11
1.78933e-12
2.00987e-13
1.39487e-13
8.16887e-13
4.07496e-12
1.63897e-11
7.00413e-32
1.07422e-27
8.31726e-25
1.48697e-22
1.05649e-20
3.915e-19
8.89877e-18
1.37672e-16
1.54637e-15
1.30874e-14
8.52861e-14
4.34968e-13
1.76979e-12
5.85842e-12
1.62921e-11
4.11209e-11
1.0176e-10
2.45617e-10
5.75991e-10
1.1675e-09
2.08121e-09
3.38121e-09
5.36402e-09
8.4685e-09
1.32533e-08
2.01237e-08
2.89729e-08
4.02539e-08
5.2891e-08
7.97797e-08
1.14836e-07
1.45146e-07
1.65359e-07
1.21673e-07
8.27482e-08
5.3822e-08
3.34007e-08
1.97031e-08
1.08389e-08
5.43615e-09
2.42655e-09
9.26925e-10
2.90406e-10
7.13866e-11
1.29008e-11
1.62228e-12
5.5334e-13
2.80793e-12
1.38419e-11
5.44079e-11
2.9635e-30
2.56803e-26
1.47272e-23
2.1462e-21
1.30458e-19
4.25823e-18
8.69323e-17
1.22613e-15
1.27192e-14
1.00614e-13
6.19052e-13
3.00061e-12
1.1616e-11
3.64498e-11
9.4968e-11
2.1926e-10
4.91049e-10
1.08345e-09
2.37351e-09
4.47443e-09
7.37846e-09
1.09767e-08
1.60605e-08
2.34221e-08
3.40316e-08
4.80848e-08
6.43556e-08
8.22172e-08
9.1276e-08
1.89454e-07
2.64492e-07
3.47771e-07
6.86009e-07
3.07525e-07
1.82772e-07
1.2817e-07
8.49555e-08
5.3291e-08
3.13742e-08
1.70661e-08
8.4052e-09
3.60455e-09
1.28779e-09
3.6313e-10
7.65786e-11
1.12362e-11
2.12972e-12
7.48381e-12
3.69967e-11
1.44074e-10
9.64434e-29
4.85417e-25
2.09024e-22
2.50411e-20
1.30974e-18
3.7813e-17
6.95147e-16
8.9468e-15
8.56611e-14
6.32298e-13
3.66622e-12
1.68746e-11
6.22621e-11
1.86156e-10
4.58387e-10
9.76354e-10
1.98414e-09
3.97983e-09
8.1931e-09
1.44367e-08
2.20002e-08
2.99226e-08
4.0608e-08
5.48047e-08
7.32523e-08
9.48889e-08
1.16562e-07
1.39072e-07
1.71903e-07
2.46302e-07
4.87664e-07
1.96692e-06
4.1235e-06
1.86816e-06
7.65818e-07
3.78903e-07
2.18964e-07
1.32516e-07
7.90143e-08
4.5125e-08
2.39988e-08
1.14279e-08
4.63681e-09
1.51697e-09
3.73481e-10
6.48919e-11
9.36811e-12
1.62182e-11
8.07481e-11
3.15916e-10
2.42535e-27
7.37461e-24
2.41341e-21
2.39414e-19
1.08301e-17
2.77631e-16
4.60754e-15
5.41516e-14
4.78071e-13
3.28504e-12
1.78928e-11
7.79826e-11
2.74003e-10
7.82315e-10
1.83441e-09
3.65436e-09
6.78704e-09
1.23236e-08
2.41755e-08
4.02749e-08
5.57682e-08
6.91029e-08
8.81778e-08
1.10008e-07
1.32949e-07
1.54204e-07
1.70794e-07
1.79959e-07
1.93769e-07
3.50117e-07
1.80603e-06
1.04797e-05
1.50215e-05
9.07247e-06
1.44462e-06
6.26272e-07
3.43951e-07
2.23348e-07
1.46837e-07
9.24923e-08
5.43987e-08
2.89906e-08
1.33883e-08
5.08166e-09
1.48462e-09
3.07186e-10
4.47079e-11
3.06741e-11
1.48011e-10
5.90658e-10
4.97459e-26
9.21011e-23
2.31509e-20
1.90982e-18
7.49855e-17
1.7117e-15
2.56895e-14
2.75731e-13
2.24057e-12
1.42829e-11
7.27322e-11
2.98661e-10
9.95474e-10
2.70999e-09
6.07268e-09
1.14763e-08
1.97687e-08
3.24676e-08
6.2687e-08
1.01988e-07
1.19658e-07
1.37724e-07
1.68355e-07
1.91014e-07
2.02916e-07
2.06921e-07
2.1173e-07
2.15803e-07
2.83954e-07
1.00617e-06
5.64711e-06
1.50214e-05
1.50199e-05
1.49029e-05
4.53038e-06
7.75042e-07
3.30632e-07
2.4379e-07
1.88133e-07
1.38561e-07
9.42993e-08
5.78396e-08
3.07934e-08
1.36167e-08
4.71697e-09
1.18588e-09
1.99345e-10
5.84787e-11
2.32688e-10
9.62825e-10
8.74735e-25
1.01504e-21
1.95129e-19
1.33496e-17
4.54013e-16
9.20549e-15
1.24607e-13
1.21678e-12
9.04859e-12
5.30906e-11
2.50343e-10
9.5942e-10
3.00997e-09
7.76494e-09
1.66054e-08
3.00183e-08
4.86889e-08
7.27677e-08
6.48063e-08
2.36839e-07
2.13334e-07
2.41024e-07
1.82284e-07
2.87854e-07
2.56125e-07
2.09876e-07
2.40818e-07
2.4208e-07
2.52291e-07
3.64378e-07
1.46305e-06
1.0439e-05
1.46523e-05
8.80242e-06
1.37522e-06
8.57007e-07
3.87455e-07
2.67838e-07
2.19197e-07
1.80008e-07
1.38676e-07
9.67831e-08
5.8942e-08
3.00871e-08
1.22432e-08
3.70555e-09
7.6436e-10
1.40032e-10
3.19479e-10
1.38988e-09
1.24443e-23
9.7007e-21
1.45491e-18
8.33973e-17
2.46972e-15
4.46228e-14
5.45649e-13
4.84756e-12
3.28969e-11
1.76385e-10
7.61245e-10
2.67683e-09
7.74295e-09
1.85783e-08
3.74847e-08
6.48237e-08
1.0022e-07
7.87386e-08
4.04563e-07
3.74127e-07
2.45526e-07
3.39921e-07
5.65672e-07
3.45167e-07
3.27749e-07
5.738e-07
2.42862e-07
2.71868e-07
2.73195e-07
2.83103e-07
4.07167e-07
1.7321e-06
3.02131e-06
1.79638e-06
6.34578e-07
4.25247e-07
3.11011e-07
2.70118e-07
2.46212e-07
2.20548e-07
1.86357e-07
1.43783e-07
9.80722e-08
5.67846e-08
2.66884e-08
9.59526e-09
2.42036e-09
4.28644e-10
3.97282e-10
1.79126e-09
1.35989e-22
7.63777e-20
9.18228e-18
4.4759e-16
1.16544e-14
1.8892e-13
2.09747e-12
1.70177e-11
1.05653e-10
5.18095e-10
2.04461e-09
6.57765e-09
1.7431e-08
3.84363e-08
7.16561e-08
1.16083e-07
1.72014e-07
1.91459e-07
3.33119e-07
3.57782e-07
3.80908e-07
3.62272e-07
7.51401e-07
4.71442e-07
3.70424e-07
3.54148e-07
6.71882e-07
2.72883e-07
2.93196e-07
2.9954e-07
3.10652e-07
4.71055e-07
7.94161e-07
5.58923e-07
3.51822e-07
2.90494e-07
2.81376e-07
2.75088e-07
2.7213e-07
2.58928e-07
2.312e-07
1.92588e-07
1.44531e-07
9.35504e-08
5.0041e-08
2.10191e-08
6.42426e-09
1.32975e-09
5.20685e-10
2.05659e-09
1.1012e-21
4.76512e-19
4.76652e-17
2.0178e-15
4.68219e-14
6.86983e-13
6.9673e-12
5.18592e-11
2.9557e-10
1.32879e-09
4.80167e-09
1.41279e-08
3.42158e-08
6.90622e-08
1.18626e-07
1.79409e-07
2.4737e-07
3.07013e-07
8.4374e-07
2.467e-06
9.58929e-06
1.56779e-06
6.17371e-07
5.91831e-07
3.94057e-07
3.41914e-07
3.12117e-07
3.05542e-07
3.19079e-07
3.35296e-07
3.36581e-07
3.41578e-07
3.70525e-07
3.5463e-07
3.27388e-07
6.10596e-07
2.93172e-07
3.14649e-07
3.49637e-07
3.47504e-07
2.90833e-07
2.4009e-07
1.92172e-07
1.36815e-07
8.22627e-08
3.97507e-08
1.45198e-08
3.68716e-09
8.99651e-10
2.16603e-09
6.64582e-21
2.33436e-18
2.00054e-16
7.48686e-15
1.56484e-13
2.0912e-12
1.94438e-11
1.33106e-10
6.98035e-10
2.88434e-09
9.57253e-09
2.58532e-08
5.7476e-08
1.06805e-07
1.70499e-07
2.45738e-07
3.51537e-07
6.11733e-07
1.5995e-06
1.0797e-05
1.07923e-05
1.06464e-05
7.42323e-07
5.44647e-07
4.15784e-07
3.60189e-07
3.3502e-07
3.21661e-07
3.5157e-07
3.97612e-07
3.81471e-07
3.99937e-07
3.9187e-07
3.91062e-07
3.82945e-07
4.10249e-07
3.7942e-07
5.12716e-07
7.71518e-07
7.05819e-07
5.60281e-07
3.40109e-07
2.4713e-07
1.82668e-07
1.20731e-07
6.62421e-08
2.84134e-08
8.85661e-09
2.07078e-09
2.19662e-09
2.92386e-20
8.74574e-18
6.59741e-16
2.2184e-14
4.22236e-13
5.18256e-12
4.44847e-11
2.81853e-10
1.36896e-09
5.23717e-09
1.60878e-08
4.0226e-08
8.28937e-08
1.43455e-07
2.16439e-07
3.03782e-07
4.23731e-07
6.35428e-07
1.28665e-06
9.29248e-06
9.72974e-06
6.21257e-06
7.14827e-07
5.99701e-07
4.67057e-07
3.87808e-07
3.47107e-07
3.31339e-07
3.78245e-07
4.59753e-07
5.76271e-07
5.11166e-07
4.86999e-07
4.92099e-07
5.14996e-07
5.58329e-07
7.03784e-07
8.8823e-07
4.84479e-06
5.92426e-06
2.05516e-06
8.66995e-07
4.12067e-07
2.46771e-07
1.63575e-07
9.90375e-08
4.90953e-08
1.84928e-08
5.05306e-09
2.50273e-09
9.39616e-20
2.48893e-17
1.69712e-15
5.23388e-14
9.21701e-13
1.05251e-11
8.43124e-11
4.99291e-10
2.26708e-09
8.10251e-09
2.32345e-08
5.42193e-08
1.04358e-07
1.69326e-07
2.41637e-07
3.25849e-07
4.54997e-07
7.2684e-07
1.38994e-06
3.00554e-06
5.30074e-06
1.94566e-06
1.02404e-06
5.33956e-07
4.70521e-07
3.94478e-07
3.46589e-07
3.36435e-07
3.47028e-07
4.86156e-07
5.11655e-07
6.11134e-07
5.9572e-07
5.40832e-07
5.07062e-07
5.03273e-07
5.06505e-07
6.98597e-06
1.14852e-05
1.14909e-05
1.10131e-05
1.95856e-06
8.16662e-07
3.83299e-07
2.21017e-07
1.3713e-07
7.62721e-08
3.40522e-08
1.13807e-08
3.84682e-09
2.25622e-19
5.48774e-17
3.4755e-15
1.00315e-13
1.66142e-12
1.78954e-11
1.35457e-10
7.58583e-10
3.25721e-09
1.09985e-08
2.97519e-08
6.54674e-08
1.19263e-07
1.86015e-07
2.67915e-07
4.02251e-07
6.86369e-07
1.33669e-06
3.14019e-06
1.8668e-05
1.5374e-05
8.32226e-06
1.05289e-06
1.13565e-06
3.94933e-07
3.57077e-07
3.32137e-07
3.32823e-07
3.51016e-07
3.5176e-07
1.6958e-06
7.21129e-07
7.3167e-07
6.09469e-07
5.31066e-07
5.44765e-07
6.55443e-07
7.97074e-06
1.14865e-05
1.14913e-05
1.1463e-05
4.47389e-06
7.25357e-07
4.59035e-07
2.68801e-07
1.7468e-07
1.07979e-07
5.62051e-08
2.28936e-08
7.65318e-09
4.16304e-19
9.59646e-17
5.78377e-15
1.59312e-13
2.52257e-12
2.59988e-11
1.8837e-10
1.00963e-09
4.14587e-09
1.33714e-08
3.45184e-08
7.25422e-08
1.2688e-07
1.92641e-07
2.78036e-07
4.49848e-07
9.39763e-07
2.38281e-06
2.14477e-05
2.63424e-05
2.63416e-05
2.63243e-05
5.43456e-06
9.18523e-07
3.78665e-07
3.30403e-07
3.23581e-07
3.23536e-07
3.72358e-07
4.84801e-07
5.18109e-07
9.72261e-07
9.17639e-07
6.09806e-07
5.38542e-07
7.44459e-07
9.3006e-07
1.46555e-06
8.176e-06
1.12242e-05
1.03964e-05
4.514e-06
6.39536e-07
4.28422e-07
2.90762e-07
2.09462e-07
1.43433e-07
8.53141e-08
4.14509e-08
1.6096e-08
6.03922e-19
1.35435e-16
7.94138e-15
2.12556e-13
3.26628e-12
3.2636e-11
2.28958e-10
1.18683e-09
4.70937e-09
1.46745e-08
3.66371e-08
7.47522e-08
1.28049e-07
1.93384e-07
2.84595e-07
4.7997e-07
1.01904e-06
2.27492e-06
2.47208e-05
2.634e-05
2.63424e-05
2.6344e-05
1.17694e-05
3.84988e-07
3.224e-07
3.20492e-07
3.20866e-07
6.09346e-07
3.82334e-07
4.86267e-07
7.82213e-07
1.24187e-06
2.24797e-06
4.89917e-07
4.72063e-07
5.06909e-07
5.70184e-07
8.53264e-07
1.15083e-06
1.97777e-06
9.83648e-07
1.15076e-06
2.22588e-06
7.97795e-07
4.1772e-07
2.74993e-07
1.9243e-07
1.24851e-07
6.97118e-08
3.20763e-08
6.99545e-19
1.56278e-16
9.092e-15
2.40693e-13
3.64675e-12
3.58249e-11
2.46567e-10
1.25196e-09
4.86278e-09
1.48402e-08
3.63703e-08
7.31493e-08
1.24186e-07
1.8673e-07
2.74034e-07
4.67933e-07
1.1424e-06
3.86063e-06
2.40063e-05
2.63451e-05
2.63403e-05
2.63279e-05
1.17044e-05
3.50187e-07
3.19844e-07
3.29056e-07
3.42904e-07
3.52892e-07
3.96124e-07
4.56633e-07
5.67216e-07
6.32272e-07
4.44314e-07
5.63094e-07
3.81318e-07
3.90062e-07
3.93848e-07
4.53355e-07
5.37986e-07
7.43372e-07
6.25725e-07
6.98564e-07
9.26817e-07
7.74591e-07
5.57772e-07
3.85476e-07
2.70763e-07
1.83537e-07
1.1281e-07
5.98059e-08
6.53211e-19
1.48669e-16
8.74893e-15
2.33016e-13
3.5366e-12
3.46763e-11
2.37494e-10
1.19759e-09
4.61584e-09
1.39879e-08
3.41211e-08
6.85338e-08
1.16297e-07
1.72194e-07
2.31861e-07
2.98858e-07
4.00376e-07
6.26816e-07
8.76955e-06
2.40568e-05
2.49842e-05
1.67787e-05
1.47896e-06
3.37686e-07
3.34602e-07
3.58401e-07
3.91155e-07
4.09912e-07
4.15612e-07
4.241e-07
4.45281e-07
4.62459e-07
4.42931e-07
3.77819e-07
3.76889e-07
3.7874e-07
3.71636e-07
3.89221e-07
3.88374e-07
4.05379e-07
4.02825e-07
3.47336e-07
1.08203e-06
1.33222e-06
8.85913e-07
5.2319e-07
2.13406e-07
1.92903e-07
1.48854e-07
9.59902e-08
4.93872e-19
1.17106e-16
7.10739e-15
1.93787e-13
2.99455e-12
2.97702e-11
2.06063e-10
1.04775e-09
4.06773e-09
1.24232e-08
3.06022e-08
6.22736e-08
1.07446e-07
1.61959e-07
2.20242e-07
2.7736e-07
3.28776e-07
3.83254e-07
6.62653e-07
2.78318e-06
8.56295e-07
1.49812e-06
6.18201e-07
3.42948e-07
3.70815e-07
3.61548e-07
4.75852e-07
4.89492e-07
4.58452e-07
4.35478e-07
4.46252e-07
4.63396e-07
4.01043e-07
3.84574e-07
3.5087e-07
7.04708e-07
3.67639e-07
4.26774e-07
3.70688e-07
3.67407e-07
3.57298e-07
3.36469e-07
2.98172e-07
7.26666e-07
2.43905e-06
2.45084e-06
2.45039e-06
5.60262e-07
1.18073e-07
1.02376e-07
3.01744e-19
7.63076e-17
4.87378e-15
1.3854e-13
2.21687e-12
2.27093e-11
1.61405e-10
8.40528e-10
3.3365e-09
1.04114e-08
2.62157e-08
5.45866e-08
9.63477e-08
1.47546e-07
1.99027e-07
2.36873e-07
2.4053e-07
6.63001e-07
3.69428e-07
5.9826e-07
4.77466e-07
5.2431e-07
3.82237e-07
3.79714e-07
4.2484e-07
5.95947e-07
4.77261e-07
6.05511e-07
5.74997e-07
6.5757e-07
5.00069e-07
6.86123e-07
4.50884e-07
3.96043e-07
3.46983e-07
3.47459e-07
3.6573e-07
3.67664e-07
5.8384e-07
4.23692e-07
3.98682e-07
3.48144e-07
3.11279e-07
2.88895e-07
2.79996e-07
4.78862e-07
1.93817e-06
1.93684e-06
1.71962e-06
1.54601e-07
1.47663e-19
4.07816e-17
2.80412e-15
8.4793e-14
1.43089e-12
1.53651e-11
1.14013e-10
6.18253e-10
2.5509e-09
8.26328e-09
2.15898e-08
4.66323e-08
8.53571e-08
1.35564e-07
1.90226e-07
2.38169e-07
2.68672e-07
2.72518e-07
5.95914e-07
3.25954e-07
3.31736e-07
3.43596e-07
3.46473e-07
4.17689e-07
4.83595e-07
4.89082e-07
1.23411e-06
7.42416e-07
2.02127e-06
5.8882e-06
7.19003e-06
3.21752e-06
4.59598e-07
4.37607e-07
3.63193e-07
3.69959e-07
3.84533e-07
3.96026e-07
4.53271e-07
6.12039e-07
5.23825e-07
4.29076e-07
3.66025e-07
3.30594e-07
3.07216e-07
3.14416e-07
3.23415e-07
6.99e-07
1.71872e-06
1.36097e-06
5.78853e-20
1.78774e-17
1.34954e-15
4.42665e-14
8.02805e-13
9.20394e-12
7.25904e-11
4.17218e-10
1.82138e-09
6.23184e-09
1.71481e-08
3.88777e-08
7.43084e-08
1.22391e-07
1.77101e-07
2.2847e-07
2.65794e-07
2.83927e-07
2.86809e-07
3.12671e-07
3.18691e-07
3.20945e-07
7.45241e-07
4.13233e-07
5.13511e-07
5.6781e-07
6.5292e-07
3.56259e-06
3.34292e-05
4.23982e-05
4.23711e-05
3.94862e-05
1.02515e-05
6.34197e-07
3.92991e-07
4.06815e-07
4.332e-07
4.41726e-07
4.9976e-07
7.90176e-07
6.48209e-07
4.97737e-07
4.14505e-07
3.80948e-07
3.49236e-07
3.18661e-07
3.04271e-07
3.34615e-07
5.60182e-07
1.36312e-06
1.81604e-20
6.39937e-18
5.42589e-16
1.96939e-14
3.91151e-13
4.87561e-12
4.15914e-11
2.5754e-10
1.20777e-09
4.42988e-09
1.30381e-08
3.14727e-08
6.35695e-08
1.09388e-07
1.62794e-07
2.13045e-07
2.51096e-07
2.72684e-07
2.77151e-07
3.06064e-07
3.11903e-07
3.20502e-07
3.29563e-07
4.04323e-07
4.60657e-07
3.78032e-07
1.18476e-06
3.04463e-05
4.25037e-05
4.25028e-05
4.24988e-05
4.24987e-05
3.92255e-05
4.48947e-06
5.09889e-07
4.594e-07
4.83577e-07
4.44551e-07
4.79752e-07
1.00904e-06
6.73922e-07
4.69329e-07
4.09987e-07
3.7729e-07
3.46525e-07
3.25399e-07
3.26768e-07
3.0337e-07
3.24277e-07
5.15614e-07
4.55033e-21
1.85976e-18
1.80154e-16
7.36019e-15
1.62864e-13
2.24619e-12
2.10976e-11
1.43261e-10
7.33781e-10
2.92797e-09
9.33299e-09
2.42584e-08
5.23448e-08
9.50315e-08
1.46385e-07
1.93171e-07
2.24918e-07
2.26196e-07
7.55683e-07
2.76946e-07
3.09582e-07
3.13968e-07
3.18873e-07
3.19382e-07
6.32851e-07
3.47857e-07
3.48666e-07
3.14165e-05
4.25036e-05
4.25008e-05
4.22574e-05
4.24966e-05
4.24987e-05
5.75965e-06
4.97742e-07
4.89166e-07
4.92826e-07
5.61925e-07
4.84553e-07
4.91197e-07
5.89479e-07
4.85026e-07
3.85779e-06
8.39324e-06
7.90194e-06
2.92168e-06
3.36582e-07
3.58146e-07
3.09435e-07
3.11502e-07
8.93887e-22
4.38382e-19
4.96871e-17
2.3279e-15
5.82469e-14
8.99262e-13
9.39376e-12
7.07003e-11
4.00662e-10
1.76304e-09
6.15951e-09
1.74294e-08
4.07346e-08
7.99832e-08
1.3331e-07
1.88904e-07
2.29471e-07
2.4995e-07
2.56871e-07
2.64035e-07
2.64742e-07
4.0531e-07
3.23217e-07
3.24101e-07
3.28137e-07
3.31991e-07
5.34501e-07
3.5584e-05
4.25068e-05
4.25034e-05
4.24997e-05
4.24992e-05
4.24978e-05
9.13557e-06
4.63093e-07
4.72057e-07
1.02922e-06
5.04545e-07
5.86959e-07
5.13899e-07
6.43541e-07
1.98252e-05
3.96111e-05
4.33015e-05
4.33017e-05
3.5979e-05
9.98737e-06
5.49396e-07
3.82897e-07
3.14615e-07
1.29523e-22
8.04879e-20
1.11876e-17
6.22959e-16
1.80718e-14
3.17609e-13
3.73157e-12
3.12838e-11
1.95807e-10
9.47716e-10
3.63623e-09
1.12692e-08
2.86872e-08
6.12285e-08
1.10963e-07
1.70608e-07
2.22279e-07
2.53458e-07
2.54079e-07
7.9182e-07
2.79046e-07
2.72878e-07
3.75648e-07
3.44443e-07
3.5931e-07
3.85577e-07
3.85754e-07
1.57685e-05
4.25072e-05
4.25069e-05
4.25026e-05
4.25023e-05
3.38442e-05
2.818e-06
5.48144e-07
5.09799e-07
4.99975e-07
5.0303e-07
5.121e-07
5.21041e-07
1.45284e-05
4.33013e-05
4.33014e-05
4.33016e-05
4.33014e-05
4.32992e-05
3.91165e-05
9.04211e-06
2.85929e-07
2.78775e-07
1.40455e-23
1.18977e-20
2.15765e-18
1.4991e-16
5.21227e-15
1.05856e-13
1.39478e-12
1.28183e-11
8.68751e-11
4.54166e-10
1.88731e-09
6.36706e-09
1.77944e-08
4.17719e-08
8.33847e-08
1.41935e-07
2.03289e-07
2.47334e-07
2.69526e-07
2.7556e-07
3.09091e-07
2.74061e-07
2.746e-07
3.09085e-07
3.39719e-07
3.7801e-07
4.00757e-07
4.08115e-07
1.51264e-05
3.22032e-05
3.45579e-05
2.99196e-05
7.17674e-06
5.59083e-07
4.78575e-07
4.79088e-07
4.88672e-07
6.63466e-07
5.17254e-07
1.91948e-06
3.89447e-05
4.33013e-05
4.33016e-05
4.33017e-05
4.33012e-05
4.32471e-05
2.74866e-05
1.17648e-05
3.81557e-07
2.69827e-07
1.15467e-24
1.4551e-21
3.78564e-19
3.51555e-17
1.51399e-15
3.58646e-14
5.28642e-13
5.2858e-12
3.82551e-11
2.10918e-10
9.18951e-10
3.276e-09
9.78029e-09
2.48029e-08
5.44046e-08
1.03518e-07
1.67061e-07
2.22127e-07
2.23946e-07
4.3294e-07
2.7698e-07
2.8179e-07
2.8785e-07
3.04015e-07
3.30964e-07
3.80844e-07
4.68842e-07
4.95364e-07
5.35627e-07
1.04492e-06
7.40336e-07
6.51282e-07
4.48828e-07
4.36922e-07
4.02645e-07
7.01092e-07
4.91206e-07
5.03585e-07
5.23758e-07
3.75841e-06
4.33023e-05
4.3301e-05
4.32781e-05
4.14749e-05
3.11247e-05
1.14065e-05
5.6488e-07
5.62249e-07
1.57526e-06
1.49153e-06
7.35435e-26
1.60194e-22
6.84597e-20
8.95739e-18
4.80788e-16
1.31896e-14
2.15339e-13
2.3193e-12
1.77371e-11
1.01863e-10
4.58717e-10
1.68603e-09
5.20216e-09
1.37986e-08
3.19453e-08
6.54185e-08
1.17994e-07
1.80418e-07
2.26072e-07
2.33574e-07
2.67591e-07
2.79155e-07
2.83946e-07
2.94008e-07
3.16116e-07
3.70753e-07
4.89712e-07
5.58511e-07
1.68306e-06
9.54595e-07
7.26132e-07
5.47946e-07
4.6174e-07
4.26115e-07
4.00483e-07
4.09818e-07
1.05221e-06
2.1413e-06
9.69413e-07
2.53185e-06
3.20113e-05
4.19801e-05
9.37792e-06
1.99306e-06
5.63349e-07
5.62115e-07
5.61748e-07
5.61768e-07
1.57438e-06
1.59569e-06
3.94919e-27
1.66701e-23
1.26609e-20
2.36254e-18
1.57868e-16
4.97689e-15
8.8866e-14
1.01561e-12
8.1033e-12
4.81073e-11
2.23096e-10
8.42902e-10
2.67574e-09
7.3295e-09
1.76505e-08
3.78928e-08
7.30742e-08
1.24191e-07
1.79971e-07
2.24161e-07
2.55896e-07
2.71735e-07
2.74413e-07
2.84378e-07
2.97687e-07
3.41683e-07
3.94778e-07
6.74597e-07
1.20529e-06
9.2313e-07
6.3556e-07
4.88158e-07
5.53343e-07
3.65021e-07
3.5768e-07
6.24761e-07
1.33015e-05
1.37381e-05
1.23243e-06
3.37059e-06
1.35304e-05
3.68636e-06
6.1864e-07
5.89787e-07
5.73481e-07
5.64963e-07
5.65726e-07
5.64309e-07
6.43716e-07
5.28145e-07
1.55219e-28
1.56139e-24
2.56468e-21
6.50151e-19
5.06658e-17
1.75402e-15
3.33638e-14
3.99729e-13
3.31069e-12
2.03168e-11
9.73909e-11
3.80301e-10
1.25032e-09
3.55246e-09
8.90388e-09
1.99658e-08
4.05634e-08
7.43847e-08
1.20518e-07
1.70451e-07
2.14355e-07
2.44979e-07
2.25763e-07
6.22246e-07
2.60201e-07
2.96065e-07
3.57036e-07
5.09994e-07
5.2874e-07
4.93702e-07
4.25864e-07
4.10452e-07
3.65682e-07
3.57739e-07
3.56099e-07
7.4034e-06
1.57344e-05
1.57431e-05
4.30857e-06
8.83469e-06
1.84126e-05
3.19847e-06
6.31184e-07
6.3733e-07
5.96134e-07
5.79908e-07
5.78094e-07
5.73147e-07
6.42014e-07
5.48973e-07
2.88295e-30
1.83988e-25
5.1026e-22
1.60202e-19
1.41636e-17
5.33821e-16
1.08094e-14
1.35841e-13
1.16919e-12
7.41569e-12
3.66932e-11
1.48375e-10
5.07865e-10
1.50876e-09
3.96791e-09
9.35515e-09
2.00347e-08
3.91418e-08
6.9191e-08
1.09168e-07
1.5348e-07
1.94194e-07
2.24273e-07
2.12116e-07
2.43724e-07
2.7151e-07
3.11983e-07
4.30536e-07
4.73849e-07
4.27414e-07
3.78595e-07
3.6321e-07
3.63175e-07
3.58598e-07
3.56098e-07
1.25122e-05
1.57449e-05
1.56709e-05
5.80529e-06
3.04026e-05
6.09751e-05
4.07522e-05
6.5714e-07
1.36225e-05
3.80778e-06
4.49943e-06
1.32993e-05
1.04305e-05
2.18936e-06
7.96719e-06
3.68681e-32
2.14702e-26
8.60418e-23
3.28247e-20
3.28066e-18
1.34965e-16
2.91368e-15
3.83205e-14
3.41204e-13
2.23357e-12
1.14381e-11
4.80239e-11
1.71406e-10
5.35426e-10
1.4902e-09
3.74377e-09
8.55623e-09
1.78907e-08
3.42426e-08
5.95319e-08
9.33498e-08
1.32066e-07
1.69949e-07
2.02193e-07
2.28302e-07
2.49747e-07
2.85364e-07
3.64601e-07
3.98349e-07
3.74128e-07
3.52855e-07
3.66597e-07
3.87594e-07
3.78841e-07
3.5613e-07
7.76465e-06
1.57169e-05
1.148e-05
8.83448e-06
5.13968e-05
7.73262e-05
6.10771e-05
3.47217e-06
2.81635e-05
9.20937e-06
1.14615e-05
4.44293e-05
4.2143e-05
2.46413e-05
3.27702e-05
6.30227e-34
2.08e-27
1.1549e-23
5.32416e-21
6.09179e-19
2.76633e-17
6.36383e-16
8.74662e-15
8.05669e-14
5.41926e-13
2.84713e-12
1.23331e-11
4.5952e-11
1.51066e-10
4.47535e-10
1.20925e-09
2.99793e-09
6.83209e-09
1.43076e-08
2.74606e-08
4.80399e-08
7.63344e-08
1.10376e-07
1.46451e-07
1.81007e-07
2.08941e-07
2.51539e-07
3.21825e-07
3.57715e-07
3.49013e-07
3.45631e-07
3.82003e-07
4.30738e-07
4.17766e-07
3.56768e-07
2.83838e-06
1.36277e-05
2.53562e-06
2.313e-05
7.50865e-05
7.87551e-05
4.85453e-05
3.51715e-05
3.04594e-05
9.3679e-06
2.44148e-05
4.75585e-05
5.13337e-05
2.4431e-05
3.91011e-05
1.69799e-35
1.57195e-28
1.20072e-24
6.74126e-22
9.15331e-20
4.93951e-18
1.34784e-16
2.11044e-15
2.08263e-14
1.42021e-13
7.27969e-13
3.02387e-12
1.08308e-11
3.51387e-11
1.0622e-10
3.02715e-10
8.13985e-10
2.04949e-09
4.79801e-09
1.03559e-08
2.04831e-08
3.6968e-08
6.07868e-08
9.1278e-08
1.2619e-07
1.61315e-07
1.94322e-07
2.59359e-07
3.0813e-07
3.31114e-07
3.52369e-07
4.32047e-07
4.98632e-07
4.48588e-07
5.60954e-07
2.30429e-06
2.95997e-06
5.5847e-07
1.47365e-05
3.54088e-05
7.99846e-05
8.16631e-05
8.16637e-05
2.64204e-05
1.13926e-05
3.28926e-05
5.46404e-05
5.67687e-05
0.000159626
0.000172131
4.457e-37
9.05452e-30
1.1373e-25
1.85567e-22
7.2953e-20
7.54669e-18
2.79508e-16
4.78959e-15
4.57496e-14
2.78977e-13
1.20113e-12
3.94503e-12
1.05207e-11
2.40122e-11
4.98157e-11
1.01319e-10
2.18033e-10
5.11012e-10
1.25453e-09
3.03594e-09
6.92015e-09
1.45217e-08
2.77652e-08
4.81887e-08
7.6311e-08
1.10877e-07
1.33417e-07
1.20414e-07
4.71096e-07
3.89892e-07
3.88012e-07
5.21869e-07
5.46045e-07
4.63174e-07
5.09305e-07
5.91447e-07
5.61679e-07
5.55614e-07
1.72235e-05
4.79014e-05
8.16608e-05
8.16644e-05
8.16637e-05
3.44477e-05
1.13961e-05
3.3763e-05
0.00016643
0.000166274
0.000146047
0.000110696
9.28392e-39
2.2543e-30
4.80139e-25
1.78639e-21
6.77341e-19
5.93217e-17
1.87141e-15
2.8016e-14
2.39666e-13
1.33574e-12
5.33294e-12
1.63594e-11
4.0625e-11
8.44076e-11
1.5066e-10
2.35715e-10
3.30514e-10
4.3328e-10
5.85307e-10
9.49515e-10
1.95565e-09
4.50967e-09
1.01689e-08
2.10836e-08
3.94985e-08
6.69338e-08
9.81918e-08
1.18544e-07
2.18471e-07
3.42573e-07
4.17456e-07
5.70347e-07
7.80891e-07
4.14231e-07
4.7151e-07
5.18612e-07
5.64684e-07
5.57616e-07
1.31418e-05
2.31971e-05
8.16434e-05
8.16637e-05
8.1674e-05
4.9579e-05
1.2296e-05
1.4776e-05
2.9793e-05
4.72571e-05
0.000329699
0.0176971
3.93792e-39
5.14527e-29
7.51825e-24
1.92394e-20
5.50386e-18
3.87936e-16
1.03297e-14
1.35452e-13
1.04539e-12
5.38286e-12
2.02417e-11
5.94143e-11
1.43068e-10
2.91253e-10
5.14797e-10
8.03981e-10
1.12129e-09
1.40556e-09
1.59118e-09
1.64691e-09
1.65163e-09
1.94622e-09
3.38972e-09
7.66616e-09
1.72273e-08
3.49302e-08
6.16553e-08
9.24744e-08
1.39929e-07
3.0835e-07
4.15764e-07
5.52676e-07
5.24456e-07
4.13397e-07
4.40312e-07
4.56253e-07
4.69611e-07
3.97454e-06
6.74641e-06
7.06669e-06
4.87979e-05
8.16671e-05
8.16799e-05
4.91965e-05
6.85233e-05
7.74966e-05
4.43392e-05
7.07598e-05
0.0540442
0.282286
2.17353e-37
1.06864e-27
9.09493e-23
1.61651e-19
3.53664e-17
2.03019e-15
4.60912e-14
5.33796e-13
3.74037e-12
1.78713e-11
6.34439e-11
1.78258e-10
4.15664e-10
8.26846e-10
1.44357e-09
2.25454e-09
3.18568e-09
4.09957e-09
4.81959e-09
5.16931e-09
5.02641e-09
4.41475e-09
3.71871e-09
4.03716e-09
7.22043e-09
1.60828e-08
3.36494e-08
6.09087e-08
9.76749e-08
1.20221e-07
5.73543e-07
4.71926e-07
4.6753e-07
4.03811e-07
4.27738e-07
4.40685e-07
4.54436e-07
3.06637e-06
5.77854e-06
8.13552e-06
5.66752e-06
3.20326e-05
3.49873e-05
6.57207e-05
0.000121174
8.15232e-05
7.09935e-05
0.090468
0.449914
0.832947
9.87749e-36
1.72413e-26