/*--------------------------------*- C++ -*----------------------------------*\
| =========                 |                                                 |
| \\      /  F ield         | OpenFOAM: The Open Source CFD Toolbox           |
|  \\    /   O peration     | Version:  2.4.0                                 |
|   \\  /    A nd           | Web:      www.OpenFOAM.org                      |
|    \\/     M anipulation  |                                                 |
\*---------------------------------------------------------------------------*/
FoamFile
{
    version     2.0;
    format      ascii;
    class       volScalarField;
    location    "0.061";
    object      p;
}
// * * * * * * * * * * * * * * * * * * * * * * * * * * * * * * * * * * * * * //

dimensions      [1 -1 -2 0 0 0 0];

internalField   nonuniform List<scalar> 
14400
(
98.0777
100.642
102.474
105.06
107.907
110.445
112.318
113.351
113.553
113.024
111.922
110.35
108.364
106.095
103.783
101.682
99.9709
98.7264
97.9248
97.4832
97.2978
97.2729
97.3348
97.4328
97.5361
97.6281
97.7015
97.7547
97.7891
97.8076
94.8128
97.38
99.2112
101.799
104.649
107.189
109.062
110.092
110.289
109.755
108.65
107.079
105.092
102.819
100.501
98.3937
96.6784
95.4318
94.6327
94.1974
94.0204
94.0045
94.0744
94.179
94.2873
94.3828
94.4586
94.5133
94.5487
94.5676
91.5424
94.1123
95.9417
98.5332
101.391
103.937
105.814
106.842
107.033
106.49
105.38
103.81
101.823
99.5424
97.2097
95.0839
93.3504
92.0888
91.2806
90.843
90.6688
90.6584
90.7344
90.8445
90.9571
91.0558
91.1338
91.1899
91.2262
91.2457
88.2664
90.8391
92.6653
95.263
98.1331
100.691
102.576
103.604
103.786
103.229
102.11
100.544
98.5569
96.2637
93.9074
91.7523
89.9885
88.7002
87.8729
87.4254
87.249
87.241
87.3212
87.4352
87.5508
87.6514
87.7305
87.7874
87.824
87.8438
84.9848
87.5602
89.382
91.988
94.8749
97.4494
99.3473
100.376
100.547
99.9712
98.8412
97.2796
95.2937
92.9826
90.5926
88.3958
86.5877
85.2593
84.4015
83.9364
83.7536
83.7468
83.8314
83.9504
84.0699
84.1732
84.2541
84.3119
84.3492
84.3694
81.6978
84.2756
86.0917
88.7081
91.6165
94.2131
96.1283
97.1588
97.3162
96.717
95.5722
94.0177
92.0336
89.6988
87.2645
85.0122
83.1445
81.7608
80.8594
80.3678
80.1747
80.1685
80.2591
80.3853
80.5111
80.6191
80.7032
80.7632
80.8019
80.8229
78.4051
80.9852
82.7942
85.4232
88.3577
90.9818
92.919
93.953
94.0944
93.4655
92.3021
90.7577
88.777
86.4123
83.9219
81.5997
79.6553
78.1991
77.239
76.7112
76.5036
76.4985
76.5981
76.7351
76.8705
76.9859
77.0752
77.1387
77.1795
77.2017
75.107
77.6891
79.4896
82.1333
85.0985
87.7556
89.7198
90.7586
90.8814
90.2154
89.0296
87.4994
85.5245
83.1229
80.5637
78.1559
76.1153
74.567
73.5303
72.955
72.729
72.727
72.8404
72.9936
73.1433
73.2695
73.3664
73.4351
73.4788
73.5025
71.8033
74.3869
76.1778
78.838
81.8385
84.5344
86.5307
87.5756
87.6772
86.966
85.753
84.2427
82.2766
79.8306
77.1885
74.678
72.5188
70.8549
69.7199
69.0839
68.8358
68.8413
68.9761
69.1533
69.3237
69.4653
69.573
69.6486
69.6959
69.7216
68.4941
71.0787
72.8586
75.5374
78.5775
81.3182
83.3518
84.4043
84.4819
83.7167
82.4703
80.9873
79.0347
76.5351
73.7945
71.1631
68.8588
67.0504
65.7906
65.0779
64.8046
64.825
64.9931
65.2053
65.4056
65.5684
65.6902
65.7751
65.8283
65.8582
65.1793
67.7644
69.532
72.2312
75.3151
78.1071
80.1835
81.2449
81.2958
80.4664
79.1791
77.7333
75.7999
73.2366
70.3798
67.6077
65.1265
63.1374
61.7197
60.9105
60.6099
60.6577
60.8763
61.1396
61.3822
61.5748
61.7159
61.8134
61.8755
61.9084
61.859
64.4438
66.1979
68.9191
72.0507
74.9008
77.0259
78.0975
78.1188
77.2138
75.8761
74.4807
72.5742
69.9348
66.9416
64.0065
61.3113
59.093
57.4771
56.5459
56.2184
56.314
56.6077
56.9452
57.2453
57.48
57.6487
57.7623
57.829
57.8625
58.5333
61.117
62.856
65.601
68.7837
71.6994
73.8792
74.9625
74.9515
73.9574
72.5577
71.23
69.3601
66.6299
63.4766
60.3507
57.3994
54.8853
53.0231
51.9352
51.5865
51.761
52.1675
52.6107
52.9903
53.2832
53.485
53.6138
53.6961
53.7401
55.202
57.784
59.5063
62.2767
65.5134
68.5029
70.7437
71.8401
71.794
70.696
69.2193
67.9829
66.1609
63.3217
59.9812
56.6261
53.3708
50.4646
48.3063
47.0108
46.6564
46.956
47.5311
48.1235
48.6226
48.9818
49.229
49.3833
49.4752
49.5268
51.8653
54.4446
56.1483
58.9458
62.2388
65.3109
67.6197
68.7304
68.6468
67.4278
65.8554
64.7417
62.9805
60.0097
56.453
52.8152
49.2006
45.7484
43.2564
41.6833
41.3499
41.8552
42.6758
43.4621
44.1186
44.587
44.8837
45.0702
45.1715
45.2236
48.5231
51.0989
52.7818
55.6079
58.9585
62.1234
64.5073
65.6336
65.5107
64.1518
62.4597
61.51
59.8243
56.6934
52.8932
48.931
44.8221
40.5874
37.7571
35.837
35.59
36.4181
37.5844
38.6621
39.4967
40.077
40.4415
40.6589
40.8026
40.8802
45.1754
47.7468
49.4065
52.2628
55.6712
58.9401
61.4069
62.5498
62.3863
60.8551
59.0248
58.2938
56.6985
53.371
49.2966
45.0433
40.2132
34.7835
31.611
29.2277
29.2432
30.5104
32.1487
33.5808
34.7148
35.5008
35.9258
36.1765
36.3674
36.4866
41.8225
44.3883
46.0217
48.9097
52.375
55.7605
58.3187
59.4789
59.2746
57.543
55.5411
55.1014
53.611
50.0407
45.6655
41.1175
35.6632
28.8851
23.9582
21.377
22.1369
23.9706
26.2848
28.2985
29.903
30.9004
31.4009
31.657
31.8505
31.9811
38.4641
41.0232
42.6271
45.5483
49.0676
52.5842
55.243
56.4206
56.1765
54.2133
51.9968
51.9447
50.5729
46.6961
42.0371
37.146
31.5917
21.6903
12.3086
11.5454
13.4168
16.0742
19.4292
22.7139
24.8664
26.1748
26.8339
27.1273
27.2913
27.3852
35.1004
37.6516
39.2223
42.178
45.7466
49.4106
52.18
53.3745
53.0931
50.8633
48.3766
48.8378
47.5961
43.3265
38.3384
33.2721
26.2643
13.938
2.37862
0.733555
3.36229
6.88562
11.8118
16.7201
19.6854
21.3183
22.2044
22.6533
22.8206
22.8941
31.7314
34.2731
35.8065
38.7982
42.4086
46.2388
49.1297
50.3395
50.0253
47.4902
44.6583
45.796
44.6921
39.9059
34.7557
29.2785
19.9615
6.81515
-8.69366
-5.88486
-5.798
-4.37386
3.67712
10.7966
14.7284
16.7
17.7732
18.2593
18.3857
18.4692
28.3572
30.8878
32.3794
35.4081
39.0504
43.0675
46.0923
47.3143
46.9739
44.0918
40.8069
42.8354
41.8711
36.3509
31.0068
25.1115
14.7261
4.1697
-11.8004
-1.97751
0.0181795
-1.65062
-5.81279
5.15865
9.94083
12.15
13.6183
13.847
13.8885
14.0593
24.9777
27.4957
28.9399
32.0077
35.6682
39.8953
43.0679
44.2968
43.9396
40.6656
36.7689
39.9712
39.1441
32.5089
27.3224
21.0157
13.3299
-0.761022
-0.0473948
0.158076
0.0946454
0.0518272
-0.0112674
0.0650593
-0.677624
2.9156
9.21031
9.04632
9.27136
10.0853
21.5932
24.0966
25.4871
28.5977
32.2584
36.7207
40.0563
41.2846
40.9221
37.2091
32.4698
37.1803
36.4991
28.6992
23.839
16.218
9.90198
-3.46197
0.109018
0.100544
0.0644481
0.027694
0.00310875
-0.0060851
-0.00764977
-0.0096474
0.00766893
0.0309529
0.0491765
0.0449598
18.2036
20.6908
22.0204
25.1807
28.8181
33.5422
37.0583
38.2744
37.9199
33.7196
27.8275
34.3793
33.8728
24.9021
18.4716
11.4758
-3.78606
-0.00366711
0.0322239
0.0447478
0.0297588
0.00447612
-0.0119424
-0.0175729
-0.01474
-0.00284173
0.0120553
0.0259953
0.0341636
0.0373832
14.809
17.2787
18.5398
21.7618
25.3457
30.3592
34.075
35.2627
34.9295
30.1878
22.8795
31.6974
31.1951
20.4738
13.553
8.05333
-1.12688
-0.112994
-0.0515201
0.00128922
0.00137505
-0.0156488
-0.0277554
-0.0313389
-0.0248963
-0.00928178
0.00802655
0.022128
0.0307277
0.0344265
11.4096
13.8608
15.0456
18.3478
21.841
27.1727
31.1083
32.245
31.939
26.4573
17.7335
29.0777
28.3846
15.7901
9.43365
-1.86895
-0.308011
-0.195769
-0.103561
-0.0305707
-0.0224327
-0.0328424
-0.0432243
-0.0479686
-0.0415752
-0.0243964
-0.00456963
0.0112888
0.0209983
0.0253911
8.00563
10.438
11.5388
14.9478
18.3042
23.9859
28.161
29.2153
28.9081
22.1049
11.4847
26.315
25.3829
10.8121
4.11822
-0.431017
-0.259836
-0.20357
-0.116593
-0.053403
-0.0428331
-0.0477
-0.0568892
-0.0644816
-0.0600453
-0.0436118
-0.023367
-0.0064167
0.00436484
0.00944275
4.59965
7.01143
8.02193
11.5723
14.7362
20.8018
25.2374
26.1653
25.7899
17.0175
5.64576
23.486
21.8624
7.48947
-0.619455
-0.155005
-0.186207
-0.165701
-0.117287
-0.0705007
-0.0606357
-0.0569564
-0.0669974
-0.0794457
-0.076058
-0.0611767
-0.0423945
-0.0261098
-0.0153793
-0.0101923
1.23236
3.58228
4.49739
8.23311
11.1366
17.623
22.3456
23.0811
22.5791
11.6567
0.0960101
21.1742
19.9919
-2.67048
-0.338185
-0.13227
-0.146532
-0.152783
-0.118229
-0.083711
-0.0745308
-0.0652882
-0.0727638
-0.0819646
-0.0867939
-0.073643
-0.0572869
-0.0429005
-0.0331721
-0.0284018
97.8136
97.8084
97.7895
97.7535
97.6979
97.622
97.5291
97.4294
97.3442
97.3112
97.3893
97.6602
98.2228
99.1731
100.572
102.405
104.558
106.825
108.955
110.753
112.117
112.959
113.123
112.469
110.959
108.686
105.934
103.206
101.025
99.6684
94.5737
94.5684
94.5489
94.5119
94.4546
94.376
94.2791
94.1738
94.0815
94.0401
94.1094
94.3726
94.9303
95.8799
97.2814
99.1192
101.279
103.55
105.683
107.48
108.846
109.694
109.862
109.211
107.703
105.429
102.675
99.9442
97.7626
96.4062
91.252
91.2466
91.2268
91.189
91.1303
91.0496
90.9495
90.8399
90.7422
90.6953
90.7604
91.0229
91.5854
92.5457
93.9621
95.8166
97.9916
100.275
102.413
104.21
105.579
106.435
106.611
105.963
104.453
102.174
99.4127
96.6767
94.4946
93.1385
87.8503
87.8451
87.8255
87.7879
87.729
87.6475
87.5459
87.4338
87.3329
87.2832
87.3483
87.6163
88.1919
89.1731
90.6151
92.4965
94.6966
96.9988
99.1442
100.94
102.313
103.182
103.37
102.726
101.21
98.9207
96.1475
93.4033
91.2208
89.8653
84.3763
84.3714
84.352
84.3144
84.2551
84.1725
84.0688
83.9535
83.8491
83.7974
83.8652
84.1445
84.7424
85.756
87.236
89.1564
91.3924
93.7214
95.8775
97.671
99.0488
99.9358
100.139
99.4986
97.975
95.6696
92.8793
90.1239
87.941
86.5865
80.8302
80.8255
80.8059
80.7676
80.7069
80.6217
80.5141
80.3937
80.2842
80.2303
80.3033
80.6003
81.2309
82.2904
83.8222
85.7943
88.0782
90.4428
92.6127
94.4021
95.7863
96.6958
96.9198
96.2824
94.7469
92.4206
89.6081
86.8384
84.6554
83.3021
77.2096
77.205
77.1848
77.1449
77.0813
76.9916
76.8774
76.7488
76.6314
76.5739
76.6542
76.9758
77.6511
78.7719
80.3706
82.4085
84.753
87.163
89.35
91.1328
92.5245
93.4622
93.7113
93.077
91.5261
89.1736
86.3338
83.5466
81.3638
80.012
73.511
73.5064
73.4853
73.4428
73.3744
73.2775
73.1531
73.0118
72.8818
72.8178
72.9066
73.2606
73.9947
75.1953
76.8775
78.9963
81.416
83.8821
86.09
87.8621
89.2624
90.2353
90.5141
89.8826
88.3127
85.9287
83.0563
80.2485
78.0663
76.7164
69.7308
69.726
69.7035
69.6574
69.5819
69.4743
69.3346
69.1738
69.024
68.948
69.0454
69.4407
70.2505
71.5538
73.338
75.5544
78.0656
80.6004
82.833
84.5889
85.9985
87.0144
87.3281
86.6993
85.1068
82.6855
79.7754
76.9438
74.7628
73.4151
65.8689
65.8622
65.8359
65.7838
65.6989
65.5763
65.4139
65.2242
65.0438
64.947
65.0511
65.4983
66.4041
67.8393
69.7463
72.079
74.7006
77.3181
79.58
81.3119
82.7316
83.7993
84.1539
83.5272
81.9082
79.4442
76.4911
73.6322
71.4534
70.108
61.92
61.9126
61.8821
61.82
61.7222
61.5777
61.3825
61.1506
60.9232
60.7914
60.8975
61.4095
62.4361
64.0415
66.0957
68.5656
71.3191
74.0357
76.332
78.0293
79.4601
80.5895
80.9916
80.3667
78.7171
76.2046
73.2031
70.3138
68.1381
66.7953
57.8745
57.8677
57.8363
57.7664
57.6478
57.4717
57.2301
56.9373
56.6393
56.4507
56.5497
57.1428
58.3197
60.1475
62.379
65.009
67.9189
70.7529
73.0905
74.7387
76.1816
77.3847
77.8417
77.2177
75.5335
72.9665
69.9112
66.9879
64.8168
63.4767
53.7537
53.7426
53.6969
53.6132
53.4751
53.255
52.9469
52.566
52.1651
51.8867
51.9621
52.6555
54.0176
56.1407
58.5913
61.4054
64.4985
67.471
69.8582
71.4373
72.894
74.1844
74.7046
74.0804
72.3576
69.7298
66.6152
63.6543
61.4895
60.1523
49.5431
49.5259
49.4732
49.3764
49.2008
48.9301
48.5356
48.0194
47.4678
47.052
47.0736
47.8873
49.4773
51.9981
54.732
57.752
61.0563
64.191
66.6382
68.1213
69.5943
70.9884
71.5808
70.9551
69.1893
66.4943
63.315
60.3128
58.1564
56.8219
45.2391
45.223
45.1677
45.0486
44.8376
44.4871
43.9664
43.2782
42.511
41.8925
41.8006
42.7451
44.6312
47.68
50.8029
54.0475
57.5902
60.9118
63.4345
64.7857
66.2786
67.7962
68.4708
67.8418
66.0288
63.2598
60.0102
56.9627
54.8175
53.4855
40.9002
40.8702
40.7783
40.6195
40.3698
39.9224
39.2721
38.3339
37.2391
36.3192
36.0167
37.0836
39.4273
43.073
46.8121
50.2912
54.0975
57.6335
60.2529
61.4234
62.9426
64.6079
65.3754
64.7407
62.8761
60.0259
56.7008
53.6037
51.4728
50.1429
36.5152
36.4606
36.3154
36.1206
35.8244
35.2756
34.3211
33.0665
31.5815
30.1903
29.6098
30.6255
33.8678
38.0134
42.7975
46.4702
50.5753
54.3548
57.0999
58.0248
59.5821
61.4232
62.2954
61.6518
59.7314
56.7926
53.3865
50.2351
48.1225
46.794
32.0133
31.9479
31.7903
31.6
31.2731
30.5777
29.2895
27.4884
25.3419
23.381
22.185
22.5431
27.6557
32.9644
38.49
42.5769
47.0185
51.0719
53.9847
54.5759
56.1894
58.2418
59.2316
58.575
56.5948
53.5592
50.067
46.8563
44.7666
43.4385
27.4019
27.3695
27.2433
27.0649
26.6354
25.7048
24.0372
21.2852
17.9453
14.8479
13.017
11.4818
18.6747
27.6346
34.0875
38.5671
43.4166
47.7798
50.9184
51.0578
52.7562
55.064
56.1849
55.5102
53.4666
50.3256
46.7422
43.4665
41.4055
40.0764
22.9
22.8689
22.7697
22.5186
21.883
20.6991
18.504
14.5413
9.21209
5.00486
2.88759
1.05093
9.69554
20.731
29.6913
34.5674
39.7722
44.468
47.915
47.4465
49.2729
51.8898
53.1564
52.4572
50.3472
47.0911
43.412
40.0651
38.0394
36.7072
18.5029
18.4574
18.3506
18.0932
17.3521
15.9273
13.1505
7.63072
-0.631567
-6.61502
-3.84463
-7.76712
1.16444
14.6055
24.8278
30.502
36.0026
41.122
44.9928
43.7143
45.7267
48.7194
50.1471
49.4156
47.2369
43.8552
40.0763
36.6509
34.6686
33.3307
14.1025
13.9076
13.8153
13.8281
13.2029
11.2007
7.96994
-0.738356
-4.76362
-0.361195
-0.192562
-7.49725
-3.65897
10.0076
20.582
27.0178
32.2361
37.7151
42.1756
39.8291
42.1019
45.553
47.1582
46.3846
44.1363
40.6172
36.7348
33.223
31.2936
29.9465
10.2474
9.47902
8.86027
9.29097
7.78168
-0.961198
-0.205406
-0.00981525
0.0369038
0.0558219
0.108407
0.110305
-3.37504
8.49576
16.597
22.809
28.5619
34.1962
39.4955
35.7448
38.377
42.3905
44.1909
43.3636
41.0464
37.3763
33.3876
29.7803
27.9149
26.554
0.0437166
0.0475011
0.0383824
0.0165532
-0.01227
-0.00786324
-0.026148
-0.0129979
-0.00158298
0.032053
0.0624752
0.073834
0.114628
0.210319
11.3676
18.6011
24.5581
30.5024
37.0067
31.3877
34.5219
39.2314
41.2466
40.3509
37.9679
34.1313
30.0344
26.3215
24.5329
23.1528
0.0375816
0.0353116
0.0287558
0.0161994
-0.0011353
-0.0154885
-0.027703
-0.0289184
-0.0219367
-0.00192198
0.0128306
0.000759413
-0.125806
-1.36103
3.73549
14.6296
20.7335
26.3896
34.7794
26.6718
30.5139
36.0749
38.3267
37.3446
34.9017
30.8807
26.675
22.8454
21.1486
19.742
0.0347626
0.0320968
0.0251471
0.0124884
-0.00525493
-0.0242217
-0.0387729
-0.0440961
-0.0411913
-0.0288612
-0.0254399
-0.0681401
-0.166105
-0.36191
-7.09704
11.1422
16.7069
21.7654
32.7787
21.6256
26.4189
32.9156
35.4326
34.3422
31.849
27.6222
23.3092
19.3505
17.7627
16.321
0.0258595
0.0227901
0.0150157
0.00112997
-0.0186546
-0.0401358
-0.0556251
-0.0605344
-0.0577849
-0.0511133
-0.0552598
-0.112444
-0.250321
-0.353361
-0.730355
6.9153
11.4382
16.1327
30.9283
16.4691
22.301
29.7162
32.5655
31.3396
28.8103
24.3525
19.9365
15.8351
14.3764
12.8887
0.0100519
0.00656407
-0.00210068
-0.0171129
-0.0377774
-0.059243
-0.073682
-0.0759275
-0.0720878
-0.0701415
-0.0787824
-0.134484
-0.251629
-0.28652
-0.236684
-1.68028
4.78988
7.81595
29.0398
11.6695
17.3499
26.3931
29.7237
28.3316
25.786
21.0678
16.5567
12.2973
10.9908
9.44413
-0.00957358
-0.0131871
-0.0219946
-0.036792
-0.0564967
-0.0763379
-0.0898342
-0.088894
-0.0839817
-0.087026
-0.0972178
-0.14348
-0.229372
-0.235407
-0.216315
-0.285291
-7.17748
-3.11605
28.1909
8.11683
10.5779
22.9046
26.8938
25.3106
22.7763
17.7632
13.1696
8.73518
7.60768
5.98599
-0.0278943
-0.0313839
-0.0396774
-0.0532121
-0.0708215
-0.0885376
-0.101487
-0.0945143
-0.087438
-0.0952778
-0.111608
-0.148946
-0.20886
-0.210162
-0.199657
-0.410316
0.0846057
-18.1857
30.823
2.97572
3.30525
19.3447
24.0544
22.2661
19.7805
14.4326
9.77481
5.14596
4.22879
2.51245
-0.124603
0.574208
1.37546
5.34779
7.95581
14.8448
19.8512
20.3299
19.6905
7.09365
-6.68239
18.5931
16.1241
-0.931764
-0.418962
-0.178928
-0.140799
-0.147153
-0.120184
-0.0926152
-0.0826056
-0.0757146
-0.0779733
-0.0905644
-0.0896625
-0.0789026
-0.0651987
-0.0529121
-0.0444314
-0.0402235
-0.121566
-0.625984
-0.486866
7.30646
6.07559
13.2169
18.4071
18.6852
17.9551
4.56973
-6.9584
16.56
-12.0581
-0.422607
-0.451548
-0.216402
-0.146765
-0.146073
-0.121666
-0.0969961
-0.0866125
-0.0829565
-0.0849093
-0.0908062
-0.0893907
-0.0799901
-0.0676935
-0.0567086
-0.048996
-0.0451483
-0.123337
-0.647856
-0.224164
1.79215
4.07589
11.4608
16.8666
16.8697
16.0304
2.0547
-0.351445
6.33128
8.51279
-0.389177
-0.458753
-0.251625
-0.155235
-0.146228
-0.123443
-0.101133
-0.0904059
-0.0862244
-0.0869474
-0.0900813
-0.0883476
-0.0799812
-0.0691591
-0.0593207
-0.0523929
-0.0489484
-0.124483
0.401447
-0.193783
0.552732
5.72944
9.65881
15.2434
14.9767
13.883
-10.1123
0.101151
-0.597535
-0.280295
-0.3591
-0.449631
-0.278076
-0.165182
-0.147578
-0.125485
-0.10498
-0.0939815
-0.0890433
-0.0884179
-0.0891399
-0.0865616
-0.0790066
-0.0693716
-0.0606157
-0.0544209
-0.0513706
-0.124726
-0.0133494
-0.198539
-0.494017
1.61889
7.69052
13.3915
12.6733
11.1343
-2.95432
-0.035151
-0.350811
-0.17296
-0.350522
-0.426388
-0.291501
-0.175391
-0.149893
-0.127772
-0.108551
-0.0972541
-0.0913774
-0.0893002
-0.0879782
-0.0842559
-0.077145
-0.0685042
-0.0606927
-0.055168
-0.052487
-0.12489
-0.0271384
-0.205648
-0.143317
0.23801
5.39932
10.4138
10.3079
9.31408
-0.651789
-0.145159
-0.347235
-0.311885
-0.336791
-0.399682
-0.295823
-0.184737
-0.152897
-0.130251
-0.111848
-0.100274
-0.0936717
-0.0900923
-0.0863731
-0.0817675
-0.0747985
-0.0668924
-0.0599189
-0.0550533
-0.0527393
-0.124874
-0.0402569
-0.217666
-0.142097
-0.342123
2.88064
7.24197
7.78397
-1.82431
-0.41767
-0.329344
-0.337394
-0.326887
-0.338254
-0.377389
-0.293139
-0.192679
-0.156289
-0.132846
-0.114863
-0.1029
-0.0953899
-0.0905273
-0.0849097
-0.0794937
-0.0725938
-0.0652037
-0.0590069
-0.054816
-0.0528677
-0.125782
-0.0528647
-0.230783
-0.142762
-0.11935
0.973804
3.17841
3.73361
0.332053
-0.330194
-0.433835
-0.326864
-0.311919
-0.33266
-0.362847
-0.27991
-0.199245
-0.159795
-0.135464
-0.117569
-0.105194
-0.0968616
-0.090744
-0.0847224
-0.0783021
-0.071366
-0.0645194
-0.0589364
-0.0554586
-0.0539338
-0.126402
-0.0660366
-0.238174
-0.140731
-0.128089
-0.0836116
-0.0862055
-0.0908746
0.0195046
-0.244484
-0.41781
-0.291327
-0.2971
-0.329831
-0.346925
-0.283035
-0.203731
-0.163244
-0.13802
-0.119951
-0.107178
-0.0982241
-0.0913092
-0.0848647
-0.0785047
-0.0720438
-0.0648052
-0.0595056
-0.0558374
-0.055712
-0.12762
-0.0568505
-0.308557
-0.137659
-0.136281
-0.0936634
-0.0978392
-0.0997877
-0.0336147
-0.282177
-0.176446
-0.25265
-0.286396
-0.332657
-0.348995
-0.277763
-0.207006
-0.16662
-0.140492
-0.122008
-0.108861
-0.0996085
-0.0924465
-0.0860656
-0.0801042
-0.0746729
-0.0701208
-0.0661561
-0.0635331
-0.0623906
-0.129578
-0.0509119
-0.313708
-0.143502
-0.147634
-0.106994
-0.100981
-0.109023
-0.0694832
-0.247656
-0.0610851
-0.216
-0.279932
-0.335675
-0.347603
-0.274165
-0.210137
-0.170236
-0.143001
-0.123811
-0.110258
-0.101144
-0.0943498
-0.0885635
-0.083368
-0.0787914
-0.0749635
-0.0719924
-0.0701382
-0.0694319
-0.132082
-0.100211
-0.317179
-0.146508
-0.15272
-0.115181
-0.109104
-0.116953
-0.0952248
-0.221984
-0.0550747
-0.193812
-0.277268
-0.333174
-0.34221
-0.272268
-0.214674
-0.1749
-0.145954
-0.125575
-0.111438
-0.103002
-0.0972241
-0.0925102
-0.0883431
-0.0847135
-0.0817399
-0.0795516
-0.078249
-0.0778003
-0.135044
-0.111824
-0.310896
-0.149732
-0.156257
-0.122789
-0.114184
-0.122915
-0.112962
-0.200575
-0.0838918
-0.184838
-0.283234
-0.34423
-0.332576
-0.267473
-0.221919
-0.182
-0.150269
-0.127777
-0.112558
-0.105477
-0.101357
-0.0980709
-0.0950379
-0.0923156
-0.0900767
-0.0884545
-0.0875029
-0.087184
-0.138665
-0.116081
-0.300913
-0.154485
-0.159065
-0.130064
-0.119685
-0.126779
-0.125357
-0.184952
-0.111687
-0.183722
-0.267151
-0.353959
-0.358659
-0.278397
-0.231203
-0.193345
-0.153829
-0.126062
-0.113997
-0.10919
-0.107268
-0.105535
-0.103513
-0.10149
-0.0997602
-0.0984897
-0.0977306
-0.0974537
-0.142967
-0.125082
-0.280269
-0.159989
-0.161905
-0.136839
-0.125415
-0.130047
-0.133762
-0.174842
-0.132766
-0.186161
-0.312123
-0.359902
-0.349026
-0.285535
-0.244734
-0.208956
-0.17436
-0.12537
-0.115741
-0.11538
-0.115954
-0.115389
-0.113903
-0.112182
-0.110658
-0.109519
-0.108808
-0.108496
-0.147933
-0.13446
-0.260579
-0.165609
-0.165216
-0.143237
-0.131558
-0.134009
-0.139817
-0.168317
-0.146626
-0.189059
-0.305339
-0.338079
-0.343025
-0.296252
-0.26267
-0.22899
-0.204096
-0.1148
-0.122999
-0.12599
-0.129191
-0.128227
-0.126271
-0.124267
-0.122597
-0.121371
-0.120581
-0.12017
-0.153548
-0.143996
-0.243799
-0.171333
-0.169164
-0.149605
-0.138273
-0.139064
-0.14485
-0.164768
-0.15532
-0.188486
-0.271866
-0.315516
-0.325464
-0.311115
-0.274628
-0.222992
-0.199009
-0.14566
-0.137674
-0.142694
-0.147624
-0.144074
-0.140228
-0.137346
-0.135241
-0.133773
-0.132824
-0.132284
-0.159793
-0.153643
-0.231315
-0.177205
-0.173773
-0.156182
-0.145585
-0.145143
-0.149709
-0.162989
-0.159456
-0.180862
-0.258182
-0.286139
-0.313084
-0.329175
-0.291199
-0.256344
-0.235619
-0.189949
-0.158176
-0.150458
-0.168016
-0.159986
-0.154321
-0.150577
-0.14803
-0.146317
-0.145215
-0.144566
-0.166657
-0.163245
-0.222694
-0.183258
-0.179005
-0.163126
-0.153452
-0.152065
-0.154908
-0.162743
-0.160782
-0.175042
-0.218123
-0.262412
-0.300489
-0.338502
-0.310237
-0.266051
-0.241337
-0.220754
-0.188925
-0.188001
-0.182113
-0.172711
-0.166918
-0.162991
-0.160322
-0.158536
-0.157386
-0.156697
-0.174135
-0.172741
-0.217418
-0.189538
-0.184783
-0.170536
-0.161823
-0.159687
-0.160854
-0.164341
-0.161773
-0.166576
-0.187324
-0.239604
-0.28736
-0.309618
-0.298089
-0.265663
-0.241052
-0.228602
-0.213599
-0.201487
-0.190855
-0.183129
-0.177833
-0.174235
-0.171792
-0.170152
-0.169088
-0.168442
-0.182231
-0.182132
-0.215137
-0.196104
-0.191047
-0.178481
-0.170677
-0.167972
-0.16774
-0.168161
-0.16442
-0.162219
-0.168687
-0.219948
-0.277427
-0.284559
-0.282853
-0.253508
-0.233175
-0.222301
-0.212641
-0.204338
-0.197086
-0.191452
-0.187406
-0.184563
-0.182585
-0.181232
-0.180338
-0.179783
-0.190964
-0.191479
-0.215531
-0.203025
-0.197809
-0.186997
-0.180035
-0.176944
-0.175654
-0.17419
-0.169766
-0.164787
-0.16321
-0.206241
-0.258749
-0.270513
-0.260218
-0.241882
-0.22878
-0.220142
-0.213489
-0.207864
-0.203166
-0.19945
-0.196641
-0.194571
-0.193077
-0.192025
-0.191312
-0.190856
-0.200368
-0.200901
-0.218249
-0.210378
-0.205178
-0.196114
-0.189947
-0.186668
-0.184691
-0.18232
-0.178089
-0.173525
-0.174159
-0.199533
-0.239051
-0.249513
-0.245864
-0.236792
-0.228714
-0.222562
-0.217776
-0.213874
-0.210682
-0.208133
-0.206152
-0.204648
-0.203534
-0.20273
-0.20217
-0.201798
-0.210487
-0.210561
-0.222963
-0.218239
-0.213301
-0.20587
-0.200488
-0.197227
-0.194924
-0.192363
-0.189018
-0.18646
-0.189231
-0.206053
-0.227944
-0.237901
-0.238808
-0.235509
-0.231289
-0.227434
-0.224157
-0.221424
-0.219181
-0.217376
-0.215954
-0.214856
-0.214026
-0.213415
-0.212976
-0.212674
-0.221383
-0.220639
-0.229421
-0.226717
-0.2223
-0.216337
-0.211746
-0.208689
-0.206375
-0.204084
-0.201876
-0.201228
-0.204985
-0.215602
-0.228467
-0.235933
-0.238263
-0.23761
-0.235715
-0.233575
-0.231536
-0.229739
-0.22822
-0.226972
-0.225972
-0.225186
-0.224579
-0.224121
-0.223781
-0.223536
-0.233124
-0.231316
-0.237451
-0.235962
-0.232267
-0.227601
-0.223816
-0.221118
-0.219028
-0.21722
-0.216022
-0.216549
-0.220188
-0.22712
-0.23481
-0.239903
-0.242201
-0.242592
-0.241963
-0.240921
-0.239781
-0.238697
-0.237737
-0.236923
-0.236252
-0.235711
-0.235283
-0.23495
-0.234693
-0.2345
-0.245789
-0.242748
-0.246935
-0.246145
-0.24327
-0.239761
-0.236794
-0.234572
-0.232852
-0.231558
-0.231058
-0.232046
-0.23501
-0.239529
-0.244205
-0.247522
-0.249355
-0.250034
-0.249996
-0.24959
-0.249029
-0.248438
-0.247881
-0.247387
-0.246966
-0.246614
-0.246327
-0.246094
-0.245908
-0.24576
-0.259463
-0.255067
-0.257799
-0.2574
-0.25537
-0.252917
-0.250778
-0.249113
-0.247826
-0.246967
-0.246838
-0.247799
-0.24992
-0.252755
-0.255543
-0.257652
-0.258947
-0.259578
-0.259753
-0.259661
-0.259431
-0.259146
-0.258853
-0.258578
-0.258333
-0.25812
-0.257939
-0.257787
-0.25766
-0.257554
-0.274243
-0.26839
-0.26999
-0.269826
-0.268628
-0.267176
-0.265875
-0.264815
-0.263973
-0.263434
-0.263411
-0.26407
-0.265354
-0.266959
-0.268501
-0.269706
-0.270499
-0.270941
-0.271127
-0.271151
-0.27108
-0.270962
-0.270827
-0.270691
-0.270564
-0.270449
-0.270347
-0.270258
-0.270181
-0.270114
-0.290229
-0.28282
-0.283478
-0.283484
-0.283107
-0.282641
-0.282203
-0.281787
-0.28138
-0.281058
-0.280959
-0.281171
-0.281654
-0.282273
-0.282875
-0.283358
-0.28369
-0.283887
-0.283984
-0.284012
-0.283998
-0.283962
-0.283915
-0.283865
-0.283816
-0.28377
-0.283729
-0.283692
-0.283659
-0.28363
-0.039859
-0.0431641
-0.0507666
-0.0628134
-0.0781632
-0.093408
-0.103381
-0.0935811
-0.0940297
-0.108012
-0.120936
-0.152595
-0.199019
-0.206814
-0.219366
-0.525948
-0.304714
11.8127
33.3365
-3.01133
-2.82596
16.4255
21.5618
19.5674
17.1667
11.4865
6.79452
1.97597
1.27328
-0.434026
-0.0448779
-0.0480562
-0.0552168
-0.0663805
-0.0803968
-0.0941351
-0.102097
-0.101258
-0.0979628
-0.11262
-0.125204
-0.154435
-0.195593
-0.209262
-0.243427
-0.554353
-0.338891
1.82356
32.0878
-7.21004
-4.86963
14.8876
20.1051
17.9635
15.634
9.74087
5.0397
0.275397
0.0595889
-0.492347
-0.0487888
-0.051814
-0.0584945
-0.0687678
-0.0815329
-0.0940166
-0.101728
-0.103536
-0.106604
-0.115639
-0.129061
-0.156186
-0.193223
-0.213271
-0.267877
-0.560445
-0.346766
0.0436581
38.2813
-1.74487
-9.06558
13.455
18.5396
16.2068
13.9763
7.83805
3.33953
0.498715
0.442377
-0.439753
-0.051321
-0.0541914
-0.0604131
-0.0698784
-0.0815493
-0.0930197
-0.10088
-0.104365
-0.108949
-0.118294
-0.132434
-0.157792
-0.191821
-0.21795
-0.288341
-0.550422
-0.353997
-0.0771451
10.5131
0.668777
0.452944
13.3953
16.8742
14.303
12.1499
6.22401
3.12007
0.136514
-0.0431738
-0.365484
-0.0525337
-0.0552474
-0.0610347
-0.0697754
-0.0805103
-0.0912553
-0.099566
-0.104758
-0.110708
-0.120672
-0.135303
-0.159228
-0.191121
-0.222469
-0.302813
-0.528939
-0.351458
-0.182388
3.12528
-0.240535
-0.121926
9.55734
15.115
12.1591
10.9553
3.59813
0.235051
-0.161929
-0.048649
-0.278546
-0.0528708
-0.055408
-0.0607324
-0.0687644
-0.0787058
-0.0889534
-0.0979578
-0.104713
-0.111819
-0.122303
-0.137647
-0.160452
-0.190833
-0.226056
-0.309351
-0.496239
-0.341375
-0.21102
0.0323053
-0.294094
-0.227436
-5.23373
13.2609
9.76575
8.6699
1.25721
-0.420117
-0.198757
-0.0540693
-0.300912
-0.0530775
-0.0554247
-0.0602354
-0.0675048
-0.0767397
-0.0865208
-0.096171
-0.104304
-0.112873
-0.124177
-0.139457
-0.161384
-0.190655
-0.228189
-0.308622
-0.460868
-0.319078
-0.210965
0.00254204
-0.258413
-0.35898
-0.334013
10.0219
6.99318
6.0679
-0.233928
-0.0967995
-0.201437
-0.0588069
-0.357541
-0.0542436
-0.0563894
-0.0606313
-0.0669566
-0.0754309
-0.0840146
-0.0951374
-0.103968
-0.113609
-0.12533
-0.140739
-0.161938
-0.190304
-0.228656
-0.302421
-0.425228
-0.300087
-0.200491
-0.0142108
0.34658
-0.46993
-0.13228
1.22752
3.65127
2.52401
-0.125776
-0.0956321
-0.205133
-0.068567
-0.343523
-0.0564524
-0.0582315
-0.0619814
-0.06806
-0.0757891
-0.0849373
-0.0944809
-0.103972
-0.114155
-0.126173
-0.141507
-0.162034
-0.189579
-0.227524
-0.292729
-0.38597
-0.27956
-0.187812
-0.0222112
0.200605
-1.20162
-0.126924
-0.084819
-0.14985
-0.125536
-0.144571
-0.0975917
-0.209926
-0.0803245
-0.334265
-0.0625619
-0.0639585
-0.0671653
-0.0722372
-0.0785428
-0.0862354
-0.095082
-0.104519
-0.11479
-0.126767
-0.141775
-0.161608
-0.188398
-0.225066
-0.281168
-0.356274
-0.258427
-0.174188
-0.0302935
0.259529
-1.04135
-0.117981
-0.111547
-0.156526
-0.130881
-0.144868
-0.0989115
-0.191027
-0.0937484
-0.32344
-0.0696889
-0.0708961
-0.0733813
-0.0773039
-0.0825747
-0.089194
-0.097052
-0.105859
-0.115695
-0.127205
-0.141585
-0.160668
-0.186851
-0.2218
-0.268912
-0.322607
-0.234401
-0.167773
-0.0378772
0.182033
-0.681182
-0.139987
-0.128601
-0.160847
-0.136191
-0.146352
-0.107518
-0.215193
-0.11574
-0.30604
-0.0780665
-0.0790444
-0.0809645
-0.0840029
-0.0882403
-0.093718
-0.100398
-0.108158
-0.117067
-0.127646
-0.141055
-0.159312
-0.185284
-0.218685
-0.259246
-0.291789
-0.217683
-0.166614
-0.0476817
0.0966206
-0.448748
-0.147767
-0.143638
-0.165116
-0.140441
-0.148191
-0.10667
-0.213806
-0.133409
-0.288277
-0.0874019
-0.0881587
-0.0896245
-0.0919562
-0.0952712
-0.0996398
-0.105074
-0.11154
-0.119132
-0.128342
-0.140421
-0.157838
-0.184536
-0.216962
-0.252024
-0.268983
-0.218969
-0.162305
-0.0625891
0.0335513
-0.324525
-0.153864
-0.15495
-0.168511
-0.145178
-0.151474
-0.137094
-0.21125
-0.148069
-0.27289
-0.0975872
-0.0981297
-0.0992082
-0.100953
-0.103474
-0.106841
-0.111076
-0.116164
-0.122192
-0.129684
-0.140149
-0.15704
-0.186285
-0.218239
-0.248795
-0.25515
-0.216201
-0.151269
-0.0815127
-0.0159235
-0.249775
-0.159028
-0.162178
-0.171159
-0.150323
-0.155153
-0.144327
-0.207279
-0.162021
-0.259662
-0.108517
-0.108859
-0.109613
-0.110883
-0.11276
-0.115299
-0.118495
-0.122289
-0.12668
-0.132257
-0.14123
-0.159035
-0.193098
-0.224504
-0.252097
-0.25012
-0.203696
-0.145277
-0.1066
-0.0547706
-0.205648
-0.161971
-0.166971
-0.172901
-0.155647
-0.159422
-0.153257
-0.203555
-0.174323
-0.248265
-0.120064
-0.12023
-0.120732
-0.121655
-0.123074
-0.125028
-0.127486
-0.130297
-0.133217
-0.136757
-0.145679
-0.167332
-0.205021
-0.237047
-0.265173
-0.251228
-0.203707
-0.159022
-0.14051
-0.0859403
-0.180642
-0.162883
-0.170617
-0.174326
-0.161079
-0.164132
-0.160564
-0.201291
-0.184861
-0.238621
-0.132056
-0.132084
-0.132413
-0.133124
-0.134292
-0.135965
-0.138131
-0.140624
-0.142978
-0.143406
-0.126338
-0.173423
-0.186951
-0.246966
-0.289215
-0.260936
-0.22159
-0.191969
-0.155977
-0.110054
-0.167589
-0.164075
-0.173833
-0.176092
-0.166661
-0.169129
-0.167758
-0.200367
-0.193782
-0.23079
-0.144247
-0.144185
-0.144417
-0.145029
-0.146117
-0.147782
-0.150127
-0.153254
-0.156225
-0.150224
-0.149402
-0.185464
-0.219774
-0.276529
-0.325721
-0.274508
-0.23416
-0.190644
-0.164572
-0.128127
-0.162064
-0.166428
-0.176907
-0.178518
-0.172428
-0.174471
-0.174828
-0.200802
-0.201389
-0.224907
-0.156339
-0.156234
-0.156417
-0.15698
-0.15804
-0.159752
-0.16235
-0.166301
-0.171169