/*--------------------------------*- C++ -*----------------------------------*\
| =========                 |                                                 |
| \\      /  F ield         | OpenFOAM: The Open Source CFD Toolbox           |
|  \\    /   O peration     | Version:  2.4.0                                 |
|   \\  /    A nd           | Web:      www.OpenFOAM.org                      |
|    \\/     M anipulation  |                                                 |
\*---------------------------------------------------------------------------*/
FoamFile
{
    version     2.0;
    format      ascii;
    class       volScalarField;
    location    "0.142";
    object      alpha.water;
}
// * * * * * * * * * * * * * * * * * * * * * * * * * * * * * * * * * * * * * //

dimensions      [0 0 0 0 0 0 0];

internalField   nonuniform List<scalar> 
10000
(
6.51549e-65
4.69144e-61
1.07956e-58
4.88468e-57
9.44377e-56
1.13463e-54
2.55385e-53
5.75312e-52
7.4217e-51
1.34069e-48
1.85824e-46
2.02546e-44
1.78341e-42
1.30542e-40
8.21103e-39
5.8739e-37
4.29482e-35
2.84869e-33
1.29798e-31
4.02102e-30
9.34507e-29
1.67699e-27
2.30742e-26
2.46175e-25
2.05083e-24
1.33121e-23
6.75924e-23
2.72283e-22
8.50018e-22
1.58784e-21
1.88619e-21
1.48716e-21
7.92548e-22
2.88353e-22
7.16857e-23
1.21296e-23
1.37446e-24
1.02845e-25
4.87477e-27
1.55571e-28
3.9213e-30
7.92382e-32
1.33347e-33
1.95858e-35
2.55019e-37
2.83786e-39
2.58222e-41
1.80437e-43
3.27524e-45
4.70724e-44
6.71024e-61
3.44269e-57
8.70611e-55
5.49241e-53
1.72321e-51
4.79485e-50
1.89047e-48
3.1968e-46
4.02832e-44
3.84529e-42
2.84698e-40
1.68375e-38
8.15823e-37
3.30196e-35
1.1308e-33
3.31361e-32
8.5566e-31
2.14777e-29
5.32089e-28
1.06145e-26
1.69651e-25
2.20002e-24
2.29951e-23
1.94034e-22
1.3308e-21
7.35702e-21
3.30447e-20
1.21468e-19
3.4955e-19
6.28663e-19
7.48056e-19
6.12489e-19
3.50366e-19
1.41484e-19
4.0428e-20
8.18173e-21
1.15937e-21
1.14328e-22
7.73445e-24
3.67239e-25
1.40178e-26
4.32082e-28
1.10301e-29
2.39822e-31
4.48573e-33
7.03804e-35
8.77962e-37
8.13275e-39
1.02024e-40
1.07866e-39
2.05961e-57
8.0307e-54
2.30991e-51
2.1261e-49
1.25131e-47
1.1443e-45
1.63469e-43
1.77102e-41
1.41419e-39
8.69973e-38
4.2457e-36
1.68775e-34
5.57595e-33
1.55485e-31
3.70316e-30
7.6044e-29
1.36076e-27
2.20681e-26
3.53134e-25
5.02108e-24
6.02653e-23
6.07923e-22
5.12336e-21
3.59668e-20
2.10028e-19
1.01574e-18
4.11736e-18
1.39622e-17
3.7383e-17
6.47826e-17
7.68611e-17
6.47797e-17
3.92045e-17
1.72228e-17
5.50541e-18
1.28321e-18
2.15274e-19
2.57901e-20
2.18743e-21
1.31715e-22
6.4057e-24
2.55669e-25
8.65682e-27
2.56364e-28
6.67295e-30
1.48091e-31
2.64592e-33
3.51702e-35
2.62837e-36
1.0105e-34
3.12898e-54
9.68906e-51
3.25767e-48
4.52675e-46
5.98563e-44
8.81184e-42
9.43513e-40
7.22797e-38
4.16973e-36
1.88536e-34
6.88214e-33
2.07409e-31
5.25092e-30
1.13203e-28
2.10085e-27
3.38617e-26
4.78268e-25
6.03572e-24
7.25108e-23
8.09059e-22
7.83192e-21
6.51548e-20
4.63278e-19
2.8018e-18
1.43352e-17
6.21e-17
2.29954e-16
7.22402e-16
1.80344e-15
3.01083e-15
3.55086e-15
3.06502e-15
1.94587e-15
9.19949e-16
3.24539e-16
8.55891e-17
1.66142e-17
2.34166e-18
2.37245e-19
1.71741e-20
9.9864e-22
4.85663e-23
2.07744e-24
8.13526e-26
2.92729e-27
9.38117e-29
2.47418e-30
4.59438e-32
3.04778e-32
9.97039e-31
2.84327e-51
7.27687e-48
2.9052e-45
6.07461e-43
1.06166e-40
1.27199e-38
1.03702e-36
6.16277e-35
2.80401e-33
1.01259e-31
2.98152e-30
7.30631e-29
1.51408e-27
2.68713e-26
4.12626e-25
5.52901e-24
6.51665e-23
6.84035e-22
6.67922e-21
6.17513e-20
5.03729e-19
3.58379e-18
2.21159e-17
1.17773e-16
5.38524e-16
2.12384e-15
7.25894e-15
2.11529e-14
4.91827e-14
7.89518e-14
9.23405e-14
8.13574e-14
5.38672e-14
2.72178e-14
1.05183e-14
3.1143e-15
6.92825e-16
1.13372e-16
1.34678e-17
1.15025e-18
7.78087e-20
4.51718e-21
2.41245e-22
1.24489e-23
6.17092e-25
2.79163e-26
9.68032e-28
2.13126e-29
5.03731e-29
1.38142e-27
1.66131e-48
3.64308e-45
1.66252e-42
4.01641e-40
6.05415e-38
5.80069e-36
3.84887e-34
1.88505e-32
7.13531e-31
2.15953e-29
5.36112e-28
1.11321e-26
1.96308e-25
2.97571e-24
3.91571e-23
4.50991e-22
4.58055e-21
4.14348e-20
3.43479e-19
2.70696e-18
1.90904e-17
1.18671e-16
6.46737e-16
3.07705e-15
1.27387e-14
4.61456e-14
1.46224e-13
3.95778e-13
8.56178e-13
1.31797e-12
1.52525e-12
1.36837e-12
9.40598e-13
5.05612e-13
2.13062e-13
7.06027e-14
1.79632e-14
3.40569e-15
4.72091e-16
4.73793e-17
3.69194e-18
2.54341e-19
1.69037e-20
1.13769e-21
7.57055e-23
4.43618e-24
1.80093e-25
4.45399e-27
2.2339e-26
5.09692e-25
6.01942e-46
1.17313e-42
5.32512e-40
1.17697e-37
1.48156e-35
1.19307e-33
6.7174e-32
2.81174e-30
9.14613e-29
2.38923e-27
5.13806e-26
9.27051e-25
1.42431e-23
1.88547e-22
2.17131e-21
2.19276e-20
1.9559e-19
1.55405e-18
1.12207e-17
7.67679e-17
4.75455e-16
2.61534e-15
1.27244e-14
5.45996e-14
2.0627e-13
6.89236e-13
2.02554e-12
5.08524e-12
1.02364e-11
1.50921e-11
1.72391e-11
1.57124e-11
1.11746e-11
6.36949e-12
2.91624e-12
1.08163e-12
3.15092e-13
6.95248e-14
1.12892e-14
1.33314e-15
1.19874e-16
9.75976e-18
7.98965e-19
6.8445e-20
5.79832e-21
4.10998e-22
1.86755e-23
5.15263e-25
3.71641e-24
7.19728e-23
1.3282e-43
2.25466e-40
9.45351e-38
1.81959e-35
1.96971e-33
1.37391e-31
6.73651e-30
2.46556e-28
7.03479e-27
1.61597e-25
3.06224e-24
4.87729e-23
6.62496e-22
7.76411e-21
7.92513e-20
7.10161e-19
5.62582e-18
3.97055e-17
2.53574e-16
1.52226e-15
8.35595e-15
4.09877e-14
1.79186e-13
6.97285e-13
2.41322e-12
7.44413e-12
2.02523e-11
4.70556e-11
8.81467e-11
1.24504e-10
1.40192e-10
1.29453e-10
9.49693e-11
5.73528e-11
2.83852e-11
1.18172e-11
3.9507e-12
1.02207e-12
1.96208e-13
2.74538e-14
2.85711e-15
2.73357e-16
2.71099e-17
2.85792e-18
2.945e-19
2.44299e-20
1.24669e-21
3.71863e-23
2.8395e-22
4.84464e-21
1.83394e-41
2.74052e-38
1.03252e-35
1.73847e-33
1.6542e-31
1.0183e-29
4.41958e-28
1.43498e-26
3.63815e-25
7.43568e-24
1.25498e-22
1.78184e-21
2.15915e-20
2.25874e-19
2.05909e-18
1.64856e-17
1.16724e-16
7.36259e-16
4.19042e-15
2.22488e-14
1.08793e-13
4.77837e-13
1.8831e-12
6.66117e-12
2.11351e-11
6.00937e-11
1.5091e-10
3.23877e-10
5.65157e-10
7.65807e-10
8.50468e-10
7.92596e-10
5.98563e-10
3.83984e-10
2.0363e-10
9.56008e-11
3.67549e-11
1.12463e-11
2.58291e-12
4.32597e-13
5.27822e-14
5.85389e-15
6.8558e-16
8.60072e-17
1.04638e-17
1.00764e-18
5.91967e-20
1.85351e-21
1.14247e-20
1.79177e-19
1.70012e-39
2.27288e-36
7.64096e-34
1.14237e-31
9.68291e-30
5.32181e-28
2.06546e-26
6.0034e-25
1.3635e-23
2.49763e-22
3.77945e-21
4.81232e-20
5.23041e-19
4.90812e-18
4.01337e-17
2.88197e-16
1.83002e-15
1.03494e-14
5.27068e-14
2.48726e-13
1.08591e-12
4.27588e-12
1.51974e-11
4.88499e-11
1.41863e-10
3.70668e-10
8.56586e-10
1.69649e-09
2.76452e-09
3.60549e-09
3.95803e-09
3.70515e-09
2.8792e-09
1.97586e-09
1.1061e-09
5.88715e-10
2.6019e-10
9.48789e-11
2.6382e-11
5.36014e-12
7.82341e-13
9.85984e-14
1.32724e-14
1.92538e-15
2.712e-16
3.04176e-17
2.12412e-18
7.19194e-20
2.66898e-19
4.01563e-18
1.14321e-37
1.37612e-34
4.13459e-32
5.53867e-30
4.21535e-28
2.08312e-26
7.27531e-25
1.90364e-23
3.89262e-22
6.41932e-21
8.74385e-20
1.00198e-18
9.79867e-18
8.27055e-17
6.08059e-16
3.92424e-15
2.23854e-14
1.13671e-13
5.19067e-13
2.18374e-12
8.51128e-12
3.00252e-11
9.6093e-11
2.79975e-10
7.41714e-10
1.7744e-09
3.7638e-09
6.88196e-09
1.05221e-08
1.3311e-08
1.45035e-08
1.35122e-08
1.08832e-08
8.04996e-09
4.6478e-09
2.81241e-09
1.42225e-09
6.21245e-10
2.11103e-10
5.28531e-11
9.39893e-12
1.34476e-12
2.03238e-13
3.31254e-14
5.31343e-15
6.96276e-16
5.91674e-17
2.36924e-18
3.86835e-18
5.83721e-17
5.88946e-36
6.37257e-33
1.71935e-30
2.07398e-28
1.42373e-26
6.35242e-25
2.00407e-23
4.73705e-22
8.74856e-21
1.30254e-19
1.6011e-18
1.65489e-17
1.45892e-16
1.1094e-15
7.34331e-15
4.26355e-14
2.1864e-13
9.97305e-13
4.08511e-12
1.53453e-11
5.33382e-11
1.68194e-10
4.83161e-10
1.27108e-09
3.05917e-09
6.67631e-09
1.29758e-08
2.19499e-08
3.18065e-08
3.98893e-08
4.33418e-08
3.90913e-08
3.34644e-08
2.65321e-08
1.53583e-08
1.05039e-08
6.03151e-09
3.16127e-09
1.3179e-09
4.12167e-10
9.14454e-11
1.51767e-11
2.55229e-12
4.56454e-13
8.18171e-14
1.24248e-14
1.30283e-15
6.82403e-17
3.65075e-17
5.77275e-16
2.40153e-34
2.33342e-31
5.66992e-29
6.17596e-27
3.83453e-25
1.5488e-23
4.42476e-22
9.47029e-21
1.58303e-19
2.13196e-18
2.36882e-17
2.21152e-16
1.75965e-15
1.2067e-14
7.19657e-14
3.76104e-13
1.73431e-12
7.10571e-12
2.61029e-11
8.7605e-11
2.71131e-10
7.61918e-10
1.95665e-09
4.62694e-09
1.00744e-08
1.99929e-08
3.5572e-08
5.60305e-08
7.93713e-08
1.01032e-07
1.09103e-07
9.06789e-08
8.61136e-08
7.08615e-08
3.99696e-08
3.03773e-08
1.97595e-08
1.23954e-08
6.31835e-09
2.48302e-09
7.02421e-10
1.40596e-10
2.66127e-11
5.18024e-12
1.02095e-12
1.77488e-13
2.27238e-14
1.62655e-15
2.5067e-16
4.02578e-15
7.86621e-33
6.86365e-30
1.5051e-27
1.48357e-25
8.34933e-24
3.05964e-22
7.93299e-21
1.54068e-19
2.33564e-18
2.85055e-17
2.86764e-16
2.42167e-15
1.74127e-14
1.07801e-13
5.79801e-13
2.72951e-12
1.13229e-11
4.1672e-11
1.37248e-10
4.11605e-10
1.13254e-09
2.82725e-09
6.46469e-09
1.36848e-08
2.68587e-08
4.83523e-08
7.90033e-08
1.19758e-07
1.86942e-07
1.2749e-07
1.37948e-07
1.68094e-07
1.86786e-07
1.50405e-07
7.96167e-08
6.59216e-08
4.95741e-08
3.69615e-08
2.27885e-08
1.12124e-08
4.09953e-09
1.04953e-09
2.27996e-10
4.87107e-11
1.04752e-11
2.05321e-12
3.14934e-13
3.03168e-14
2.00206e-15
2.02986e-14
2.06525e-31
1.62131e-28
3.21645e-26
2.87623e-24
1.47098e-22
4.90315e-21
1.15675e-19
2.04379e-18
2.81716e-17
3.12361e-16
2.85203e-15
2.18372e-14
1.42217e-13
7.96608e-13
3.87194e-12
1.64502e-11
6.14848e-11
2.03476e-10
6.01126e-10
1.6117e-09
3.93918e-09
8.71416e-09
1.76839e-08
3.34076e-08
5.89712e-08
9.65865e-08
1.49712e-07
2.35386e-07
6.68382e-07
3.07053e-06
2.73035e-06
2.03858e-07
3.64969e-07
2.59028e-07
1.17659e-07
1.0333e-07
9.48626e-08
8.32007e-08
6.09202e-08
3.70325e-08
1.75233e-08
5.96678e-09
1.57403e-09
3.86142e-10
9.15978e-11
1.99472e-11
3.56085e-12
4.38448e-13
2.85121e-14
7.557e-14
4.27998e-30
3.03475e-27
5.46728e-25
4.4524e-23
2.07741e-21
6.32373e-20
1.36297e-18
2.19974e-17
2.76819e-16
2.79976e-15
2.32942e-14
1.62343e-13
9.6123e-13
4.88924e-12
2.1551e-11
8.29025e-11
2.80005e-10
8.35272e-10
2.21746e-09
5.3222e-09
1.15579e-08
2.26308e-08
4.06848e-08
6.84939e-08
1.0884e-07
1.6502e-07
2.30531e-07
1.26839e-06
9.32125e-06
1.16442e-05
1.16428e-05
5.68266e-06
6.24766e-07
1.98202e-07
1.70518e-07
1.18079e-07
1.40257e-07
1.43121e-07
1.20967e-07
8.85941e-08
5.33214e-08
2.42224e-08
8.20116e-09
2.42882e-09
6.57883e-10
1.60568e-10
3.28486e-11
4.97091e-12
4.34174e-13
2.16705e-13
6.90438e-29
4.44085e-26
7.29643e-24
5.43553e-22
2.3245e-20
6.49317e-19
1.28494e-17
1.90408e-16
2.19904e-15
2.03954e-14
1.55447e-13
9.91253e-13
5.36361e-12
2.48997e-11
1.00031e-10
3.50122e-10
1.07362e-09
2.89918e-09
6.94104e-09
1.49475e-08
2.89003e-08
5.01439e-08
7.99006e-08
1.19705e-07
1.69059e-07
2.23994e-07
2.6164e-07
7.27552e-06
1.16529e-05
1.16471e-05
1.16437e-05
1.15871e-05
1.54743e-06
1.94784e-07
2.02395e-07
3.571e-07
1.72828e-07
1.97047e-07
1.84254e-07
1.56175e-07
1.15389e-07
6.87036e-08
3.08633e-08
1.1505e-08
3.72156e-09
1.04965e-09
2.47316e-10
4.46637e-11
5.17497e-12
6.34261e-13
8.5888e-28
5.03435e-25
7.5779e-23
5.18804e-21
2.0433e-19
5.26372e-18
9.61317e-17
1.31491e-15
1.40136e-14
1.19862e-13
8.41729e-13
4.94025e-12
2.4575e-11
1.04753e-10
3.85874e-10
1.2363e-09
3.46212e-09
8.51054e-09
1.84691e-08
3.58667e-08
6.23388e-08
9.71636e-08
1.39479e-07
1.89325e-07
2.43176e-07
2.90917e-07
3.05065e-07
5.92627e-06
1.16554e-05
1.16563e-05
1.09839e-05
3.10367e-06
2.15968e-07
2.1732e-07
2.31654e-07
2.37874e-07
2.26534e-07
2.3571e-07
2.30805e-07
2.14413e-07
1.84048e-07
1.37125e-07
8.12899e-08
3.88133e-08
1.54614e-08
5.20769e-09
1.44657e-09
3.11745e-10
4.5882e-11
3.77559e-12
8.21147e-27
4.40736e-24
6.1056e-22
3.85912e-20
1.40625e-18
3.35654e-17
5.68447e-16
7.21234e-15
7.12904e-14
5.6527e-13
3.67726e-12
1.99754e-11
9.18788e-11
3.61767e-10
1.22965e-09
3.63067e-09
9.35518e-09
2.1124e-08
4.20782e-08
7.54128e-08
1.2349e-07
1.8626e-07
2.49298e-07
2.91559e-07
3.15574e-07
2.88756e-07
4.57639e-07
2.77117e-07
2.52341e-06
4.16694e-06
5.90164e-07
2.5769e-07
2.5991e-07
2.61615e-07
2.63501e-07
2.45504e-07
2.46507e-07
2.61477e-07
2.59678e-07
2.50641e-07
2.33657e-07
2.02647e-07
1.50941e-07
9.11494e-08
4.50292e-08
1.84246e-08
6.14926e-09
1.59887e-09
2.93476e-10
2.9955e-11
6.05933e-26
2.99372e-23
3.8356e-21
2.24882e-19
7.61692e-18
1.69217e-16
2.66946e-15
3.15595e-14
2.90658e-13
2.14666e-12
1.30005e-11
6.57057e-11
2.81025e-10
1.02849e-09
3.24917e-09
8.92448e-09
2.14622e-08
4.56361e-08
8.72728e-08
1.53805e-07
2.48752e-07
5.40876e-07
7.04541e-07
4.75784e-07
3.24676e-07
2.73795e-07
2.69249e-07
2.70291e-07
2.69407e-07
2.69468e-07
2.72603e-07
2.7574e-07
2.7731e-07
2.77711e-07
2.73543e-07
4.90671e-07
2.53887e-07
2.7909e-07
2.80681e-07
2.72916e-07
2.61487e-07
2.44142e-07
2.11953e-07
1.56248e-07
9.47517e-08
4.71615e-08
1.9016e-08
5.98525e-09
1.35611e-09
1.81576e-10
3.48505e-25
1.59433e-22
1.89958e-20
1.0385e-18
3.28572e-17
6.82622e-16
1.00764e-14
1.11494e-13
9.61029e-13
6.64191e-12
3.76394e-11
1.78038e-10
7.1308e-10
2.44645e-09
7.25565e-09
1.87355e-08
4.23837e-08
8.43621e-08
1.44508e-07
1.56774e-07
2.05036e-06
7.90473e-06
8.26797e-06
1.00733e-06
2.54331e-07
2.62604e-07
2.74804e-07
2.79857e-07
2.7449e-07
2.87765e-07
2.87746e-07
2.87131e-07
2.85728e-07
2.85477e-07
2.83917e-07
2.63468e-07
2.61754e-07
2.92795e-07
3.05849e-07
2.96096e-07
2.81986e-07
2.67106e-07
2.48213e-07
2.10755e-07
1.5223e-07
9.08134e-08
4.38875e-08
1.66078e-08
4.58431e-09
7.80191e-10
1.58582e-24
6.76334e-22
7.54141e-20
3.86701e-18
1.149e-16
2.24287e-15
3.11039e-14
3.23127e-13
2.61216e-12
1.69064e-11
8.95536e-11
3.95063e-10
1.47196e-09
4.68559e-09
1.2868e-08
3.0748e-08
6.40212e-08
1.1228e-07
1.2327e-07
2.33434e-06
8.57678e-06
8.57742e-06
8.54492e-06
1.26091e-06
2.54909e-07
2.72107e-07
2.85841e-07
2.84604e-07
3.92792e-07
2.88185e-07
2.91561e-07
2.91647e-07
2.91824e-07
2.96827e-07
3.00312e-07
2.81651e-07
5.43851e-07
2.9883e-07
3.08688e-07
2.99452e-07
2.89832e-07
2.89961e-07
2.69189e-07
2.45027e-07
2.01411e-07
1.40409e-07
8.00765e-08
3.59719e-08
1.19061e-08
2.49534e-09
5.80445e-24
2.3267e-21
2.44666e-19
1.18524e-17
3.32956e-16
6.14455e-15
8.0505e-14
7.89196e-13
6.01054e-12
3.65786e-11
1.81794e-10
7.50734e-10
2.61248e-09
7.75073e-09
1.97933e-08
4.37886e-08
8.39515e-08
1.40166e-07
1.5376e-07
4.62346e-06
8.57814e-06
8.57897e-06
5.26078e-06
2.61291e-07
2.66485e-07
2.84409e-07
2.96231e-07
3.00081e-07
2.94213e-07
2.93273e-07
4.09566e-07
2.95802e-07
3.03481e-07
3.14405e-07
3.21228e-07
3.29044e-07
3.34239e-07
3.1166e-07
3.76229e-06
3.59645e-06
4.14874e-07
3.01662e-07
2.94892e-07
2.67716e-07
2.35822e-07
1.85436e-07
1.22203e-07
6.41583e-08
2.50495e-08
6.29505e-09
1.73363e-23
6.59691e-21
6.60416e-19
3.0497e-17
8.16902e-16
1.43679e-14
1.79206e-13
1.66966e-12
1.20611e-11
6.94582e-11
3.25848e-10
1.26692e-09
4.14072e-09
1.15132e-08
2.75274e-08
5.71632e-08
1.03577e-07
1.59761e-07
1.70103e-07
1.92696e-06
8.44976e-06
6.75016e-06
2.74864e-07
2.74856e-07
2.867e-07
2.98585e-07
3.063e-07
3.04686e-07
3.0139e-07
3.05535e-07
3.06664e-07
3.56592e-07
3.31133e-07
3.49275e-07
3.38169e-07
3.29182e-07
9.28889e-07
1.89902e-05
4.78739e-05
4.78812e-05
2.11042e-05
4.90955e-07
2.97526e-07
2.89477e-07
2.60722e-07
2.20919e-07
1.63468e-07
9.84303e-08
4.45932e-08
1.3131e-08
4.26162e-23
1.55831e-20
1.50211e-18
6.68326e-17
1.72441e-15
2.91872e-14
3.49808e-13
3.12563e-12
2.16041e-11
1.18748e-10
5.30347e-10
1.95824e-09
6.06475e-09
1.5953e-08
3.60668e-08
7.1014e-08
1.23449e-07
1.88632e-07
2.77173e-07
1.17718e-06
1.27259e-06
4.99985e-07
3.28167e-07
3.08142e-07
3.10642e-07
3.22404e-07
3.28761e-07
3.07796e-07
3.08662e-07
3.22665e-07
3.14968e-07
3.32007e-07
3.7517e-07
3.61651e-07
3.82991e-07
3.29466e-07
5.98182e-06
5.24639e-05
5.24564e-05
5.24399e-05
5.24403e-05
1.76504e-05
2.76857e-07
2.64097e-07
2.57511e-07
2.42679e-07
1.98172e-07
1.34214e-07
6.94126e-08
2.34806e-08
8.64915e-23
3.08331e-20
2.89976e-18
1.25841e-16
3.16399e-15
5.21098e-14
6.06586e-13
5.25305e-12
3.51086e-11
1.86153e-10
8.0012e-10
2.83722e-09
8.42361e-09
2.12106e-08
4.58305e-08
8.59823e-08
1.41865e-07
2.08094e-07
2.71701e-07
3.14747e-07
3.1701e-07
3.1952e-07
3.14251e-07
3.24079e-07
3.20625e-07
3.28223e-07
3.35232e-07
3.98537e-07
3.13795e-07
3.42642e-07
8.39025e-07
3.58386e-06
5.23638e-06
4.14931e-06
4.77306e-07
3.31636e-07
4.05538e-06
4.70631e-05
5.24388e-05
5.24402e-05
5.24406e-05
3.20535e-05
5.14372e-07
2.76045e-07
3.607e-07
2.4173e-07
2.1816e-07
1.66305e-07
9.70306e-08
3.70305e-08
1.44463e-22
5.10821e-20
4.75886e-18
2.04213e-16
5.06674e-15
8.21602e-14
9.3933e-13
7.96869e-12
5.20305e-11
2.68773e-10
1.12244e-09
3.85706e-09
1.10693e-08
2.687e-08
5.57632e-08
9.9774e-08
1.5471e-07
2.08073e-07
2.43138e-07
2.56215e-07
3.15438e-07
3.27022e-07
3.42073e-07
3.34053e-07
8.4852e-07
3.19057e-06
1.71406e-06
3.54465e-07
3.49791e-07
3.80216e-07
4.80953e-06
7.5174e-06
7.51633e-06
7.5153e-06
4.38454e-06
3.59852e-07
3.74153e-07
4.56809e-06
4.38526e-05
5.24347e-05
4.42455e-05
8.30503e-06
2.83969e-07
2.73568e-07
2.70278e-07
2.49957e-07
2.33118e-07
1.91725e-07
1.23938e-07
5.24982e-08
1.96528e-22
7.04452e-20
6.61919e-18
2.85279e-16
7.08227e-15
1.14511e-13
1.30098e-12
1.09307e-11
7.04468e-11
3.57977e-10
1.4657e-09
4.92218e-09
1.37634e-08
3.24515e-08
6.5134e-08
1.11759e-07
1.63399e-07
2.02346e-07
2.12148e-07
4.73239e-07
3.05056e-07
3.29804e-07
3.36901e-07
1.27812e-06
1.40642e-05
2.09186e-05
1.5121e-05
5.68347e-07
3.45839e-07
4.44515e-07
5.25088e-06
7.51738e-06
7.51616e-06
7.51489e-06
7.50694e-06
2.1984e-06
4.93027e-07
5.31286e-07
5.58936e-07
6.27689e-06
2.82422e-06
2.98364e-07
3.54287e-07
2.66382e-07
2.56936e-07
2.07721e-07
1.99556e-07
1.96855e-07
1.44272e-07
6.76732e-08
2.13553e-22
7.98662e-20
7.7402e-18
3.41257e-16
8.61158e-15
1.40784e-13
1.60969e-12
1.35515e-11
8.71438e-11
4.40005e-10
1.78273e-09
5.90088e-09
1.62056e-08
3.74265e-08
7.34879e-08
1.2358e-07
1.7899e-07
2.27859e-07
2.71102e-07
2.999e-07
3.04641e-07
3.18362e-07
4.74196e-07
1.26197e-05
2.09275e-05
2.09246e-05
2.09224e-05
3.52164e-06
3.43042e-07
3.51456e-07
1.04524e-06
6.4236e-06
7.51457e-06
7.48284e-06
7.50264e-06
7.3775e-06
5.49852e-06
3.06349e-06
5.39378e-07
2.77811e-07
2.74571e-07
2.72861e-07
2.65565e-07
2.59838e-07
2.27231e-07
3.00696e-07
3.34675e-07
1.72961e-07
1.55319e-07
8.06189e-08
1.79946e-22
7.29878e-20
7.50589e-18
3.46148e-16
9.04362e-15
1.51871e-13
1.77223e-12
1.51413e-11
9.82962e-11
4.98542e-10
2.01897e-09
6.64782e-09
1.80828e-08
4.12373e-08
7.996e-08
1.33724e-07
1.96627e-07
2.61965e-07
2.75767e-07
9.92074e-07
8.05178e-06
8.82415e-06
7.33484e-07
1.47241e-05
2.09287e-05
2.09236e-05
1.60881e-05
3.31148e-07
3.40627e-07
8.69218e-07
3.62723e-06
4.36921e-06
4.27923e-06
1.22336e-06
3.70036e-06
5.89286e-06
6.22764e-06
6.2277e-06
5.08218e-06
5.47531e-07
2.78011e-07
2.76718e-07
2.96271e-07
2.61998e-07
2.26016e-07
2.96557e-07
3.3471e-07
1.99019e-07
1.6676e-07
9.06675e-08
1.12788e-22
5.23094e-20
5.91902e-18
2.93397e-16
8.11076e-15
1.42489e-13
1.72415e-12
1.51631e-11
1.00675e-10
5.19084e-10
2.1247e-09
7.0311e-09
1.91187e-08
4.33904e-08
8.35536e-08
1.39198e-07
2.06414e-07
2.8477e-07
2.98201e-07
7.32845e-06
1.63978e-05
1.63916e-05
9.79746e-06
4.55459e-06
2.09314e-05
1.94472e-05
1.88224e-06
3.31443e-07
3.44027e-07
2.95341e-06
5.70647e-06
4.90274e-06
3.23252e-07
3.2234e-07
3.21934e-07
1.24374e-06
4.03549e-06
3.38564e-06
2.68806e-06
9.23088e-06
8.10095e-06
4.69387e-06
1.11585e-06
2.32359e-07
2.2586e-07
2.23149e-07
3.04503e-07
2.4544e-07
1.53e-07
9.81021e-08
4.94811e-23
2.83238e-20
3.69787e-18
2.03741e-16
6.11555e-15
1.14801e-13
1.46684e-12
1.34945e-11
9.2981e-11
4.93965e-10
2.0692e-09
6.96162e-09
1.9122e-08
4.35753e-08
8.38382e-08
1.3908e-07
2.01554e-07
2.1136e-07
1.85591e-06
1.63981e-05
1.63971e-05
1.64002e-05
1.42916e-05
4.82781e-07
4.84076e-06
2.66259e-06
3.09262e-07
3.33548e-07
3.45516e-07
2.75074e-06
5.11914e-06
1.5063e-06
3.30527e-07
3.22739e-07
3.21919e-07
3.21995e-07
3.22153e-07
3.23325e-07
3.24454e-07
1.53967e-05
3.3296e-05
2.83444e-05
4.7325e-07
2.35715e-07
2.23156e-07
2.2041e-07
2.5102e-07
2.57971e-07
1.73548e-07
1.02399e-07
1.37039e-23
1.09833e-20
1.76798e-18
1.12986e-16
3.79842e-15
7.80893e-14
1.07571e-12
1.05434e-11
7.66529e-11
4.26066e-10
1.85283e-09
6.42266e-09
1.80413e-08
4.1737e-08
8.09552e-08
1.34676e-07
1.98919e-07
2.60995e-07
1.17289e-06
1.46311e-05
1.64004e-05
1.64023e-05
6.31572e-06
3.09672e-07
3.06841e-07
3.03963e-07
3.09218e-07
3.22532e-07
3.5487e-07
3.16536e-07
3.09065e-07
3.13521e-07
4.56238e-07
3.31627e-07
3.22416e-07
3.22144e-07
3.2311e-07
3.27985e-07
3.33238e-07
1.41835e-05
3.35837e-05
1.6616e-05
8.74512e-07
7.10658e-07
2.29643e-06
2.27615e-07
2.56908e-07
2.02251e-07
1.72832e-07
1.02949e-07
2.0963e-24
2.88854e-21
6.25391e-19
4.8745e-17
1.90012e-15
4.39399e-14
6.6747e-13
7.11412e-12
5.56048e-11
3.29076e-10
1.51038e-09
5.47948e-09
1.59739e-08
3.80273e-08
7.52552e-08
1.26554e-07
1.86426e-07
2.50898e-07
2.86124e-07
5.2584e-06
1.57176e-05
1.02714e-05
3.31378e-07
3.32487e-07
3.9717e-07
3.04048e-07
3.09581e-07
3.14025e-07
3.25983e-07
3.03385e-07
3.05306e-07
4.82489e-07
1.9106e-06
1.27483e-06
3.23005e-07
3.25272e-07
3.35091e-07
6.87252e-07
4.72371e-07
3.25149e-06
3.49952e-05
5.61051e-05
9.15351e-06
4.39521e-06
8.1562e-06
3.42529e-06
6.50705e-08
5.0968e-08
4.30403e-08
4.01009e-08
2.17948e-25
6.13491e-22
1.88467e-19
1.83484e-17
8.38884e-16
2.19391e-14
3.68446e-13
4.27844e-12
3.60671e-11
2.28607e-10
1.11735e-09
4.29435e-09
1.31833e-08
3.27784e-08
6.71505e-08
1.15769e-07
1.72597e-07
2.30266e-07
2.81808e-07
3.19247e-07
1.73729e-06
1.24613e-06
3.27734e-07
3.24263e-07
3.12582e-07
3.05919e-07
3.07514e-07
3.07586e-07
3.0061e-07
3.08432e-07
3.20689e-07
1.48781e-06
1.90982e-06
1.90052e-06
3.25811e-07
3.39883e-07
3.73613e-07
8.29802e-06
1.40333e-05
5.04968e-06
1.736e-05
0.000260601
0.000103025
6.8187e-07
1.35859e-06
3.74663e-07
8.26089e-08
6.19362e-08
1.78647e-08
3.72739e-08
2.19919e-26
1.36991e-22
5.88102e-20
7.05313e-18
3.74349e-16
1.0985e-14
2.02611e-13
2.54668e-12
2.29994e-11
1.54938e-10
7.99932e-10
3.23183e-09
1.03987e-08
2.69955e-08
5.74617e-08
1.0239e-07
1.56819e-07
2.12579e-07
2.64759e-07
3.24141e-07
3.32441e-07
3.45522e-07
3.30815e-07
3.15199e-07
3.06924e-07
3.01648e-07
3.03076e-07
3.01577e-07
3.00525e-07
3.08958e-07
3.11371e-07
1.24225e-06
1.91195e-06
7.97748e-07
3.33283e-07
8.8687e-07
6.71944e-06
8.86934e-06
9.81899e-06
0.000155967
0.000626852
0.00161195
0.000702194
-1.63132e-06
8.56169e-07
8.03994e-07
2.16515e-07
0.000141612
0.0195465
0.0388745
2.16901e-27
2.93157e-23
1.76452e-20
2.61102e-18
1.6096e-16
5.30028e-15
1.07348e-13
1.45983e-12
1.41173e-11
1.01057e-10
5.5126e-10
2.344e-09
7.91353e-09
2.1482e-08
4.76319e-08
8.79838e-08
1.38701e-07
1.92163e-07
2.44016e-07
2.98754e-07
3.32843e-07
3.35805e-07
3.23262e-07
3.06682e-07
2.9816e-07
2.95941e-07
3.0259e-07
2.96378e-07
2.98278e-07
2.99533e-07
3.01357e-07
3.04061e-07
7.57288e-07
3.97338e-07
3.60687e-07
2.77121e-06
3.03237e-05
0.000110684
0.000230432
0.000589458
0.000620457
0.000675684
0.0235613
0.0697826
0.136284
0.304447
0.50676
0.674498
0.756232
0.79251
1.8456e-28
5.63878e-24
4.85158e-21
8.95346e-19
6.45412e-17
2.39616e-15
5.34753e-14
7.8896e-13
8.18946e-12
6.24406e-11
3.60746e-10
1.61794e-09
5.74124e-09
1.63354e-08
3.78616e-08
7.28602e-08
1.19094e-07
1.70102e-07
2.19673e-07
2.68229e-07
3.07442e-07
3.18336e-07
3.12457e-07
2.99422e-07
2.9172e-07
2.91034e-07
3.88252e-07
2.91175e-07
2.96994e-07
2.95533e-07
2.99736e-07
3.0068e-07
3.06151e-07
4.30083e-07
4.87141e-07
7.64969e-06
8.29525e-05
0.000138619
0.000272594
0.00039322
0.000646827
0.104083
0.308455
0.592705
0.847179
0.981662
1
1
1
1
1.32994e-29
9.59351e-25
1.20313e-21
2.80212e-19
2.38108e-17
1.0025e-15
2.47622e-14
3.97782e-13
4.44509e-12
3.6192e-11
2.21993e-10
1.05251e-09
3.93364e-09
1.17618e-08
2.85954e-08
5.75993e-08
9.82451e-08
1.45728e-07
1.93525e-07
2.38169e-07
2.75753e-07
2.95947e-07
2.99154e-07
2.91915e-07
2.85903e-07
2.832e-07
2.81472e-07
2.91929e-07
3.00045e-07
2.93399e-07
2.97684e-07
3.04393e-07
1.5611e-06
2.75141e-06
2.78079e-06
8.43003e-06
0.000156736
0.000194365
0.000344542
0.0098083
0.284053
0.601343
0.876239
0.99506
1
1
1
1
1
1
8.24137e-31
1.44809e-25
2.68778e-22
7.9807e-20
8.05315e-18
3.86624e-16
1.06139e-14
1.86264e-13
2.2467e-12
1.9577e-11
1.27725e-10
6.41256e-10
2.5287e-09
7.96214e-09
2.03592e-08
4.30778e-08
7.70468e-08
1.19436e-07
1.64641e-07
2.07502e-07
2.44295e-07
2.69619e-07
2.81506e-07
2.78609e-07
2.78334e-07
2.78163e-07
2.80728e-07
2.90186e-07
3.06489e-07
2.86412e-07
2.92421e-07
3.05987e-07
4.53543e-06
2.89096e-06
3.02376e-06
0.000102738
0.000569401
0.000497807
0.00123123
0.396029
0.806407
0.980621
0.999866
0.999983
1
1
1
1
1
1
4.48407e-32
1.95662e-26
5.43273e-23
2.07252e-20
2.49814e-18
1.37365e-16
4.20541e-15
8.08324e-14
1.05446e-12
9.84795e-12
6.8418e-11
3.64084e-10
1.51644e-09
5.03427e-09
1.35605e-08
3.02097e-08
5.68484e-08
9.25439e-08
1.33401e-07
1.74376e-07
2.11261e-07
2.40205e-07
2.18943e-07
4.56874e-07
2.91069e-07
2.81222e-07
2.75576e-07
2.77404e-07
3.51872e-07
2.67236e-07
2.78154e-07
2.84193e-07
3.60495e-06
4.11339e-05
2.74785e-05
0.000435982
0.000453358
0.0126278
0.423878
0.888058
0.999676
0.999955
0.999993
0.999999
1
1
1
1
1
1
2.1822e-33
2.38741e-27
9.983e-24
4.91911e-21
7.11208e-19
4.49314e-17
1.53754e-15
3.24215e-14
4.57912e-13
4.58687e-12
3.39459e-11
1.91492e-10
8.42652e-10
2.95056e-09
8.37839e-09
1.9677e-08
3.90405e-08
6.6962e-08
1.01478e-07
1.38817e-07
1.7496e-07
2.06338e-07
2.09747e-07
2.07044e-07
2.61453e-07
2.68975e-07
2.67485e-07
2.67193e-07
2.55513e-07
2.58448e-07
2.63538e-07
2.89904e-07
9.79693e-07
0.000128384
0.000536468
0.000453361
0.000657469
0.341484
0.838607
0.999676
0.999944
0.999996
1
1
1
1
1
1
1
1
9.60457e-35
2.6415e-28
1.66951e-24
1.06605e-21
1.85346e-19
1.3478e-17
5.16149e-16
1.19484e-14
1.82762e-13
1.96347e-12
1.54743e-11
9.24897e-11
4.29859e-10
1.58725e-09
4.75175e-09
1.17708e-08
2.46516e-08
4.46419e-08
7.1382e-08
1.0281e-07
1.35925e-07
1.6758e-07
1.85318e-07
1.96907e-07
2.27745e-07
2.45104e-07
2.34873e-07
4.27372e-07
2.46457e-07
2.4324e-07
2.47751e-07
2.89842e-07
8.30093e-07
0.000249978
0.000837523
0.000657475
0.199751
0.661264
0.996484
0.999958
0.999995
0.999999
1
1
1
1
1
1
1
1
3.81872e-36
2.63866e-29
2.52556e-25
2.09382e-22
4.38368e-20
3.67236e-18
1.5745e-16
4.00126e-15
6.62615e-14
7.63068e-13
6.39963e-12
4.04955e-11
1.98656e-10
7.73168e-10
2.43962e-09
6.37469e-09
1.40995e-08
2.69905e-08
4.56422e-08
6.94902e-08
9.69475e-08
1.25821e-07
1.49794e-07
1.68956e-07
1.93494e-07
2.14498e-07
2.17196e-07
2.04942e-07
2.41068e-07
2.31045e-07
2.31602e-07
2.70147e-07
8.50439e-07
1.0878e-05
0.000144966
0.0602476
0.402658
0.926929
0.999852
0.99999
0.999999
1
1
1
1
1
1
1
1
1
1.35046e-37
2.3444e-30
3.40356e-26
3.66875e-23
9.25718e-21
8.93729e-19
4.28965e-17
1.19622e-15
2.14331e-14
2.6436e-13
2.3572e-12
1.57769e-11
8.16296e-11
3.34667e-10
1.11252e-09
3.0657e-09
7.16183e-09
1.45017e-08
2.59724e-08
4.19109e-08
6.19605e-08
8.51262e-08
1.08546e-07
1.30641e-07
1.54071e-07
1.76802e-07
1.90844e-07
1.96292e-07
2.12373e-07
2.12587e-07
2.2456e-07
2.18245e-07
4.22732e-08
-3.81103e-08
4.42462e-05
0.139184
0.709088
0.999667
0.999978
0.999998
1
1
1
1
1
1
1
1
1
1
4.12953e-39
1.80604e-31
3.98589e-27
5.5948e-24
1.70275e-21
1.89494e-19
1.01792e-17
3.11289e-16
6.02931e-15
7.95674e-14
7.53474e-13
5.32851e-12
2.90503e-11
1.25357e-10
4.38703e-10
1.27416e-09
3.14287e-09
6.73222e-09
1.27801e-08
2.18959e-08
3.44076e-08
5.02698e-08
6.86096e-08
8.84363e-08
1.09918e-07
1.32376e-07
1.52264e-07
1.6709e-07
1.81793e-07
1.38793e-07
3.18718e-07
2.17468e-07
2.81419e-08
2.46671e-08
2.39436e-08
0.310674
0.926766
1
0.999999
1
1
1
1
1
1
1
1
1
1
1
1.05063e-40
1.16431e-32
3.91879e-28
7.17659e-25
2.63685e-22
3.38299e-20
2.03282e-18
6.81031e-17
1.42404e-15
2.00754e-14
2.01556e-13
1.50353e-12
8.62271e-12
3.90996e-11
1.43828e-10
4.39641e-10
1.14361e-09
2.5895e-09
5.21e-09
9.48577e-09
1.58794e-08
2.47659e-08
3.6259e-08
5.02647e-08
6.68066e-08
8.56775e-08
1.05497e-07
1.2411e-07
1.41124e-07
1.30608e-07
1.72284e-07
2.32772e-07
1.32268e-07
2.35359e-08
-6.23097e-08
0.529393
0.999696
1
1
1
1
1
1
1
1
1
1
1
1
1
2.11646e-42
5.99171e-34
3.08801e-29
7.39446e-26
3.28265e-23
4.85375e-21
3.2584e-19
1.19348e-17
2.68713e-16
4.03433e-15
4.27985e-14
3.35553e-13
2.01667e-12
9.57223e-12
3.68665e-11
1.18144e-10
3.22931e-10
7.70644e-10
1.63992e-09
3.17062e-09
5.66034e-09
9.4551e-09
1.49101e-08
2.23664e-08
3.21751e-08
4.45941e-08
5.94026e-08
7.55822e-08
9.17334e-08
9.7878e-08
9.75295e-08
8.68191e-08
7.24675e-08
2.13756e-08
6.14913e-09
0.742985
1
1
1
1
1
1
1
1
1
1
1
1
1
1
3.15097e-44
2.30179e-35
1.82547e-30
5.72869e-27
3.07342e-24
5.22919e-22
3.90947e-20
1.55846e-18
3.7565e-17
5.96539e-16
6.63498e-15
5.42065e-14
3.382e-13
1.66355e-12
6.63774e-12
2.20616e-11
6.26958e-11
1.56143e-10
3.48542e-10
7.11482e-10
1.35149e-09
2.42296e-09
4.14085e-09
6.79315e-09
1.07498e-08
1.64279e-08
2.41341e-08
3.37707e-08
4.45718e-08
5.31947e-08
5.65631e-08
5.4809e-08
4.57804e-08
1.99205e-08
0.0347599
0.87795
1
1
1
1
1
1
1
1
1
1
1
1
1
1
3.10789e-46
5.93891e-37
7.31199e-32
3.0204e-28
1.95842e-25
3.81898e-23
3.15464e-21
1.35307e-19
3.4403e-18
5.67603e-17
6.48195e-16
5.39087e-15
3.41452e-14
1.70129e-13
6.87248e-13
2.33537e-12
6.93996e-12
1.8428e-11
4.46741e-11
1.00664e-10
2.12878e-10
4.24821e-10
8.03853e-10
1.44918e-09
2.50457e-09
4.16952e-09
6.68053e-09
1.02085e-08
1.46325e-08
1.89946e-08
2.13998e-08
2.0887e-08
2.17033e-08
1.99205e-08
0.0975957
0.944529
1
1
1
1
1
1
1
1
1
1
1
1
1
1
1.00157e-42
2.99591e-41
1.10716e-39
4.08159e-38
1.39365e-36
4.00374e-35
1.01745e-33
2.24645e-32
4.35856e-31
7.80932e-30
1.51265e-28
3.22612e-27
6.54387e-26
8.06283e-25
6.14833e-24
3.13777e-23
1.11111e-22
2.85918e-22
5.5156e-22
8.14846e-22
9.37313e-22
8.49179e-22
6.08678e-22
3.44449e-22
1.52925e-22
5.27891e-23
1.39907e-23
2.81176e-24
4.24344e-25
4.74007e-26
3.8624e-27
2.27988e-28
9.75906e-30
2.9321e-31
6.6224e-33
1.2055e-34
1.93124e-36
2.72013e-38
3.33414e-40
3.40917e-42
2.82677e-44
1.84791e-46
9.20307e-49
3.34641e-51
8.36099e-54
1.30802e-56
1.17778e-59
2.19858e-60
1.6225e-62
6.79331e-66
3.00032e-38
1.20967e-36
4.77862e-35
1.51245e-33
3.79957e-32
8.33597e-31
1.60425e-29
2.59259e-28
3.70166e-27
4.99245e-26
6.68936e-25
8.97933e-24
1.11225e-22
9.10106e-22
5.12027e-21
2.0569e-20
6.05189e-20
1.34949e-19