/*--------------------------------*- C++ -*----------------------------------*\
| =========                 |                                                 |
| \\      /  F ield         | OpenFOAM: The Open Source CFD Toolbox           |
|  \\    /   O peration     | Version:  2.4.0                                 |
|   \\  /    A nd           | Web:      www.OpenFOAM.org                      |
|    \\/     M anipulation  |                                                 |
\*---------------------------------------------------------------------------*/
FoamFile
{
    version     2.0;
    format      ascii;
    class       surfaceScalarField;
    location    "0.332";
    object      phi;
}
// * * * * * * * * * * * * * * * * * * * * * * * * * * * * * * * * * * * * * //

dimensions      [0 3 -1 0 0 0 0];

internalField   nonuniform List<scalar> 
119500
(
3.79638e-09
-3.79638e-09
8.75732e-09
-4.96093e-09
1.35806e-08
-4.82327e-09
1.82566e-08
-4.67597e-09
2.28899e-08
-4.63335e-09
2.75068e-08
-4.61689e-09
3.21023e-08
-4.5955e-09
3.66695e-08
-4.56716e-09
4.12024e-08
-4.53295e-09
4.56949e-08
-4.49245e-09
5.01397e-08
-4.4448e-09
5.45287e-08
-4.38901e-09
5.88529e-08
-4.32426e-09
6.31029e-08
-4.25e-09
6.72688e-08
-4.1659e-09
7.13409e-08
-4.0721e-09
7.53101e-08
-3.96916e-09
7.91682e-08
-3.85806e-09
8.29084e-08
-3.74023e-09
8.65257e-08
-3.61727e-09
9.00166e-08
-3.4909e-09
9.33793e-08
-3.36273e-09
9.66136e-08
-3.23426e-09
9.97203e-08
-3.10671e-09
1.02701e-07
-2.98092e-09
1.05558e-07
-2.8573e-09
1.08294e-07
-2.73592e-09
1.10911e-07
-2.61649e-09
1.13409e-07
-2.49837e-09
1.1579e-07
-2.38071e-09
1.18052e-07
-2.26246e-09
1.20195e-07
-2.14245e-09
1.22214e-07
-2.01941e-09
1.24106e-07
-1.89212e-09
1.25866e-07
-1.75941e-09
1.27486e-07
-1.62038e-09
1.28961e-07
-1.4744e-09
1.30282e-07
-1.32129e-09
1.31443e-07
-1.16129e-09
1.32438e-07
-9.95072e-10
1.33262e-07
-8.23747e-10
1.33911e-07
-6.48807e-10
1.34383e-07
-4.71798e-10
1.34677e-07
-2.94643e-10
1.34794e-07
-1.16553e-10
1.34727e-07
6.68705e-11
1.34479e-07
2.48073e-10
1.34068e-07
4.10862e-10
1.33512e-07
5.56448e-10
1.3282e-07
6.91221e-10
1.32001e-07
8.19139e-10
1.3106e-07
9.40702e-10
1.30003e-07
1.05731e-09
1.28832e-07
1.17081e-09
1.27549e-07
1.28353e-09
1.26151e-07
1.39788e-09
1.24635e-07
1.51619e-09
1.22995e-07
1.64024e-09
1.21223e-07
1.77111e-09
1.19314e-07
1.90907e-09
1.17261e-07
2.05354e-09
1.15058e-07
2.20326e-09
1.12701e-07
2.35651e-09
1.1019e-07
2.51138e-09
1.07524e-07
2.66607e-09
1.04704e-07
2.81915e-09
1.01735e-07
2.9698e-09
9.86167e-08
3.11792e-09
9.53526e-08
3.26416e-09
9.19428e-08
3.40982e-09
8.83861e-08
3.55665e-09
8.46795e-08
3.70657e-09
8.08183e-08
3.86125e-09
7.67966e-08
4.02169e-09
7.26088e-08
4.18779e-09
6.82508e-08
4.35804e-09
6.37213e-08
4.52949e-09
5.90234e-08
4.6979e-09
5.41651e-08
4.85831e-09
4.91594e-08
5.00565e-09
4.40242e-08
5.13527e-09
3.87807e-08
5.24342e-09
3.34532e-08
5.3276e-09
2.80666e-08
5.38652e-09
2.26466e-08
5.41999e-09
1.72181e-08
5.42854e-09
1.18049e-08
5.41316e-09
6.43007e-09
5.37488e-09
1.11597e-09
5.3141e-09
-4.11523e-09
5.2312e-09
-9.26185e-09
5.14662e-09
-1.42959e-08
5.03409e-09
-1.92068e-08
4.9109e-09
-2.39767e-08
4.76986e-09
-2.86017e-08
4.62501e-09
-3.30687e-08
4.46697e-09
-3.73678e-08
4.29915e-09
-4.14927e-08
4.12487e-09
-4.54364e-08
3.94375e-09
3.76873e-09
-4.92052e-08
5.99158e-09
-9.78797e-09
1.3639e-08
-1.26083e-08
2.09939e-08
-1.21783e-08
2.81167e-08
-1.17987e-08
3.51742e-08
-1.16908e-08
4.22154e-08
-1.16581e-08
4.92409e-08
-1.1621e-08
5.62436e-08
-1.15699e-08
6.32172e-08
-1.15066e-08
7.01552e-08
-1.14304e-08
7.70498e-08
-1.13394e-08
8.38921e-08
-1.12313e-08
9.06717e-08
-1.11039e-08
9.73776e-08
-1.09558e-08
1.03998e-07
-1.07861e-08
1.1052e-07
-1.05946e-08
1.16933e-07
-1.03823e-08
1.23226e-07
-1.0151e-08
1.2939e-07
-9.90352e-09
1.35416e-07
-9.64307e-09
1.41298e-07
-9.37316e-09
1.47032e-07
-9.09727e-09
1.52617e-07
-8.81859e-09
1.5805e-07
-8.53975e-09
1.63331e-07
-8.2626e-09
1.68462e-07
-7.98813e-09
1.73443e-07
-7.71655e-09
1.78274e-07
-7.44724e-09
1.82954e-07
-7.1789e-09
1.87483e-07
-6.90967e-09
1.91858e-07
-6.63725e-09
1.96074e-07
-6.35901e-09
2.00127e-07
-6.07211e-09
2.04009e-07
-5.77367e-09
2.0771e-07
-5.46093e-09
2.11221e-07
-5.1315e-09
2.1453e-07
-4.78354e-09
2.17625e-07
-4.41608e-09
2.20493e-07
-4.02914e-09
2.23122e-07
-3.62377e-09
2.255e-07
-3.20213e-09
2.27619e-07
-2.76733e-09
2.2947e-07
-2.32324e-09
2.3105e-07
-1.87428e-09
2.32358e-07
-1.42505e-09
2.33405e-07
-9.79762e-10
2.34198e-07
-5.4536e-10
2.34735e-07
-1.25731e-10
2.35013e-07
2.78831e-10
2.35038e-07
6.65804e-10
2.34825e-07
1.03184e-09
2.34387e-07
1.37852e-09
2.33736e-07
1.70839e-09
2.32882e-07
2.02527e-09
2.31832e-07
2.33374e-09
2.30591e-07
2.63903e-09
2.2916e-07
2.94638e-09
2.2754e-07
3.26019e-09
2.25728e-07
3.5834e-09
2.2372e-07
3.91721e-09
2.21513e-07
4.26085e-09
2.19104e-07
4.61181e-09
2.16494e-07
4.96624e-09
2.13686e-07
5.31964e-09
2.10685e-07
5.6676e-09
2.07497e-07
6.00656e-09
2.04133e-07
6.33441e-09
2.006e-07
6.65093e-09
1.96906e-07
6.95788e-09
1.93057e-07
7.25884e-09
1.89055e-07
7.55877e-09
1.84898e-07
7.86336e-09
1.80581e-07
8.17807e-09
1.76096e-07
8.50726e-09
1.7143e-07
8.85312e-09
1.66573e-07
9.21524e-09
1.61512e-07
9.59014e-09
1.56238e-07
9.97182e-09
1.50744e-07
1.03527e-08
1.45025e-07
1.07249e-08
1.39079e-07
1.10809e-08
1.32908e-07
1.14146e-08
1.26514e-07
1.17218e-08
1.199e-07
1.19999e-08
1.13073e-07
1.22476e-08
1.06037e-07
1.24641e-08
9.88017e-08
1.26487e-08
9.13762e-08
1.28005e-08
8.37723e-08
1.2918e-08
7.60024e-08
1.3001e-08
6.80932e-08
1.30558e-08
6.00567e-08
1.30706e-08
5.19174e-08
1.30502e-08
4.36936e-08
1.29937e-08
3.54127e-08
1.29059e-08
2.70943e-08
1.27854e-08
1.8761e-08
1.26324e-08
1.04335e-08
1.24524e-08
2.13277e-09
1.22445e-08
1.20316e-08
-6.13013e-09
6.31231e-09
-1.61003e-08
1.41822e-08
-2.04782e-08
2.16909e-08
-1.96869e-08
2.89643e-08
-1.90722e-08
3.61812e-08
-1.89077e-08
4.33912e-08
-1.88682e-08
5.05968e-08
-1.88266e-08
5.77932e-08
-1.87662e-08
6.49756e-08
-1.8689e-08
7.21389e-08
-1.85938e-08
7.92766e-08
-1.84771e-08
8.63804e-08
-1.83351e-08
9.3441e-08
-1.81644e-08
1.00447e-07
-1.79623e-08
1.07388e-07
-1.7727e-08
1.14252e-07
-1.74579e-08
1.21026e-07
-1.71563e-08
1.27699e-07
-1.68247e-08
1.34263e-07
-1.64671e-08
1.40708e-07
-1.60884e-08
1.47029e-07
-1.5694e-08
1.53221e-07
-1.52891e-08
1.59281e-07
-1.48787e-08
1.65208e-07
-1.4467e-08
1.71002e-07
-1.40568e-08
1.76664e-07
-1.36498e-08
1.82194e-07
-1.32465e-08
1.87593e-07
-1.28459e-08
1.9286e-07
-1.24462e-08
1.97995e-07
-1.20446e-08
2.02995e-07
-1.16376e-08
2.07857e-07
-1.12209e-08
2.12575e-07
-1.07903e-08
2.17143e-07
-1.03412e-08
2.21551e-07
-9.86912e-09
2.2579e-07
-9.37012e-09
2.29847e-07
-8.84095e-09
2.33711e-07
-8.27955e-09
2.37367e-07
-7.68531e-09
2.40802e-07
-7.05933e-09
2.44005e-07
-6.40443e-09
2.46962e-07
-5.72508e-09
2.49666e-07
-5.02719e-09
2.5211e-07
-4.31776e-09
2.54289e-07
-3.60437e-09
2.56205e-07
-2.89525e-09
2.57859e-07
-2.19966e-09
2.59261e-07
-1.52783e-09
2.60424e-07
-8.84373e-10
2.61356e-07
-2.65827e-10
2.62057e-07
3.30764e-10
2.62532e-07
9.03334e-10
2.6279e-07
1.45045e-09
2.62838e-07
1.97697e-09
2.62683e-07
2.48856e-09
2.6233e-07
2.99244e-09
2.6178e-07
3.49616e-09
2.61034e-07
4.00645e-09
2.60089e-07
4.5283e-09
2.58942e-07
5.06413e-09
2.5759e-07
5.61334e-09
2.56029e-07
6.17226e-09
2.54261e-07
6.73483e-09
2.52287e-07
7.2935e-09
2.50114e-07
7.84058e-09
2.47751e-07
8.36945e-09
2.4521e-07
8.87579e-09
2.42502e-07
9.35826e-09
2.39641e-07
9.81898e-09
2.36637e-07
1.02631e-08
2.33497e-07
1.06986e-08
2.30226e-07
1.11346e-08
2.26823e-07
1.15805e-08
2.23286e-07
1.20442e-08
2.19609e-07
1.25306e-08
2.15784e-07
1.30406e-08
2.11803e-07
1.35707e-08
2.07661e-07
1.41139e-08
2.03353e-07
1.4661e-08
1.98875e-07
1.52027e-08
1.94225e-07
1.57306e-08
1.894e-07
1.62393e-08
1.84396e-07
1.6726e-08
1.79206e-07
1.71907e-08
1.73819e-07
1.76342e-08
1.68225e-07
1.80582e-08
1.6241e-07
1.84634e-08
1.56361e-07
1.88492e-08
1.50065e-07
1.9214e-08
1.43511e-07
1.95558e-08
1.36692e-07
1.98742e-08
1.29602e-07
2.01608e-08
1.22239e-07
2.04135e-08
1.14603e-07
2.06291e-08
1.06702e-07
2.08067e-08
9.85454e-08
2.09425e-08
9.01445e-08
2.10333e-08
8.15168e-08
2.10801e-08
7.26822e-08
2.1079e-08
2.10412e-08
6.36727e-08
6.23739e-09
-2.23377e-08
1.38482e-08
-2.8089e-08
2.10696e-08
-2.69083e-08
2.80728e-08
-2.60753e-08
3.50347e-08
-2.58696e-08
4.19995e-08
-2.5833e-08
4.8969e-08
-2.5796e-08
5.59397e-08
-2.57369e-08
6.29083e-08
-2.56576e-08
6.98705e-08
-2.55559e-08
7.68202e-08
-2.54268e-08
8.37496e-08
-2.52646e-08
9.06496e-08
-2.50644e-08
9.75092e-08
-2.48219e-08
1.04317e-07
-2.45345e-08
1.1106e-07
-2.42012e-08
1.17727e-07
-2.38233e-08
1.24306e-07
-2.34041e-08
1.30788e-07
-2.29489e-08
1.37164e-07
-2.24645e-08
1.43428e-07
-2.1958e-08
1.49576e-07
-2.14369e-08
1.55605e-07
-2.0908e-08
1.61515e-07
-2.0377e-08
1.67306e-07
-1.98479e-08
1.7298e-07
-1.93231e-08
1.78536e-07
-1.88033e-08
1.83978e-07
-1.82874e-08
1.89304e-07
-1.77729e-08
1.94516e-07
-1.7256e-08
1.9961e-07
-1.67319e-08
2.04584e-07
-1.61951e-08
2.09433e-07
-1.56394e-08
2.14151e-07
-1.50587e-08
2.18729e-07
-1.44469e-08
2.23157e-07
-1.37983e-08
2.27424e-07
-1.31084e-08
2.31519e-07
-1.23739e-08
2.35427e-07
-1.15936e-08
2.39136e-07
-1.07685e-08
2.42634e-07
-9.90205e-09
2.45909e-07
-8.99997e-09
2.48952e-07
-8.07012e-09
2.51756e-07
-7.12195e-09
2.54318e-07
-6.166e-09
2.56636e-07
-5.21354e-09
2.58712e-07
-4.27621e-09
2.6055e-07
-3.36534e-09
2.62154e-07
-2.48818e-09
2.63535e-07
-1.64706e-09
2.64707e-07
-8.41671e-10
2.65679e-07
-6.8802e-11
2.66457e-07
6.7267e-10
2.67045e-07
1.38917e-09
2.67447e-07
2.08664e-09
2.67665e-07
2.77455e-09
2.67698e-07
3.46277e-09
2.67544e-07
4.16035e-09
2.67198e-07
4.87423e-09
2.66654e-07
5.60809e-09
2.65906e-07
6.36143e-09
2.64949e-07
7.12945e-09
2.6378e-07
7.90358e-09
2.62401e-07
8.67287e-09
2.60816e-07
9.42565e-09
2.59034e-07
1.01515e-08
2.57067e-07
1.08429e-08
2.54929e-07
1.14964e-08
2.52634e-07
1.21137e-08
2.50196e-07
1.27008e-08
2.47627e-07
1.32676e-08
2.44935e-07
1.38266e-08
2.42125e-07
1.43906e-08
2.39199e-07
1.49705e-08
2.36156e-07
1.55735e-08
2.32995e-07
1.62012e-08
2.29717e-07
1.68493e-08
2.26322e-07
1.75088e-08
2.22815e-07
1.81683e-08
2.19201e-07
1.88159e-08
2.15489e-07
1.94429e-08
2.11684e-07
2.00445e-08
2.07789e-07
2.06209e-08
2.03804e-07
2.11759e-08
1.99722e-07
2.17157e-08
1.95534e-07
2.22466e-08
1.91224e-07
2.27738e-08
1.86773e-07
2.33003e-08
1.82159e-07
2.38274e-08
1.77361e-07
2.43544e-08
1.72355e-07
2.48802e-08
1.67116e-07
2.5399e-08
1.61623e-07
2.59065e-08
1.55854e-07
2.63982e-08
1.49792e-07
2.68693e-08
1.43421e-07
2.73132e-08
1.36732e-07
2.77221e-08
1.29723e-07
2.80894e-08
1.22397e-07
2.84051e-08
2.86573e-08
1.14781e-07
6.16805e-09
-2.85057e-08
1.3582e-08
-3.5503e-08
2.05915e-08
-3.39179e-08
2.73965e-08
-3.28803e-08
3.41721e-08
-3.26453e-08
4.0958e-08
-3.26188e-08
4.77547e-08
-3.25927e-08
5.45593e-08
-3.25415e-08
6.1369e-08
-3.24673e-08
6.81797e-08
-3.23667e-08
7.49857e-08
-3.22328e-08
8.17793e-08
-3.20582e-08
8.85508e-08
-3.18359e-08
9.52891e-08
-3.15602e-08
1.01982e-07
-3.12272e-08
1.08616e-07
-3.08355e-08
1.15179e-07
-3.03865e-08
1.2166e-07
-2.98844e-08
1.28047e-07
-2.9336e-08
1.34332e-07
-2.87499e-08
1.4051e-07
-2.81357e-08
1.46576e-07
-2.75029e-08
1.52528e-07
-2.68604e-08
1.58367e-07
-2.62155e-08
1.64092e-07
-2.55735e-08
1.69707e-07
-2.49375e-08
1.75212e-07
-2.43086e-08
1.8061e-07
-2.36851e-08
1.85901e-07
-2.30641e-08
1.91086e-07
-2.24406e-08
1.96162e-07
-2.18086e-08
2.01128e-07
-2.11607e-08
2.05978e-07
-2.04893e-08
2.10705e-07
-1.97864e-08
2.15303e-07
-1.90441e-08
2.19759e-07
-1.82552e-08
2.24065e-07
-1.74136e-08
2.28206e-07
-1.65151e-08
2.3217e-07
-1.55579e-08
2.35945e-07
-1.45429e-08
2.39517e-07
-1.34741e-08
2.42876e-07
-1.23589e-08
2.46012e-07
-1.12069e-08
2.48921e-07
-1.00304e-08
2.51597e-07
-8.84266e-09
2.54042e-07
-7.65796e-09
2.56256e-07
-6.49032e-09
2.58243e-07
-5.35265e-09
2.60009e-07
-4.25436e-09
2.61563e-07
-3.20018e-09
2.62912e-07
-2.19113e-09
2.64069e-07
-1.22577e-09
2.65042e-07
-3.00714e-10
2.65839e-07
5.92571e-10
2.66462e-07
1.46346e-09
2.66913e-07
2.3239e-09
2.67189e-07
3.18657e-09
2.67286e-07
4.06335e-09
2.67197e-07
4.96352e-09
2.66913e-07
5.89211e-09
2.66425e-07
6.84875e-09
2.65728e-07
7.82726e-09
2.64815e-07
8.81628e-09
2.63687e-07
9.80093e-09
2.62347e-07
1.07651e-08
2.60805e-07
1.16938e-08
2.59072e-07
1.25759e-08
2.57163e-07
1.34054e-08
2.55094e-07
1.41828e-08
2.5288e-07
1.49147e-08
2.50534e-07
1.56133e-08
2.48067e-07
1.62938e-08
2.45485e-07
1.69727e-08
2.42792e-07
1.76641e-08
2.39988e-07
1.83771e-08
2.37075e-07
1.91137e-08
2.34056e-07
1.98684e-08
2.30936e-07
2.06289e-08
2.27724e-07
2.13801e-08
2.24433e-07
2.21071e-08
2.21077e-07
2.27993e-08
2.17669e-07
2.34522e-08
2.14221e-07
2.40687e-08
2.1074e-07
2.46569e-08
2.07228e-07
2.52281e-08
2.0368e-07
2.5794e-08
2.0009e-07
2.63645e-08
1.96443e-07
2.69471e-08
1.92724e-07
2.75462e-08
1.88914e-07
2.8164e-08
1.84994e-07
2.88011e-08
1.80938e-07
2.94547e-08
1.76722e-07
3.0122e-08
1.72321e-07
3.07993e-08
1.67709e-07
3.14819e-08
1.62859e-07
3.21627e-08
1.57749e-07
3.28318e-08
1.52362e-07
3.34772e-08
1.46683e-07
3.40834e-08
3.46201e-08
1.40721e-07
6.14564e-09
-3.46514e-08
1.34671e-08
-4.28244e-08
2.03743e-08
-4.08251e-08
2.70843e-08
-3.95902e-08
3.3772e-08
-3.9333e-08
4.04751e-08
-3.93219e-08
4.7193e-08
-3.93106e-08
5.39228e-08
-3.92713e-08
6.06619e-08
-3.92064e-08
6.74067e-08
-3.91114e-08
7.41513e-08
-3.89774e-08
8.08879e-08
-3.87948e-08
8.76065e-08
-3.85545e-08
9.42955e-08
-3.82492e-08
1.00942e-07
-3.78735e-08
1.07532e-07
-3.74255e-08
1.14052e-07
-3.69067e-08
1.2049e-07
-3.63223e-08
1.26835e-07
-3.56808e-08
1.33078e-07
-3.49931e-08
1.39213e-07
-3.42711e-08
1.45237e-07
-3.35268e-08
1.51148e-07
-3.27714e-08
1.56947e-07
-3.20138e-08
1.62634e-07
-3.12608e-08
1.68213e-07
-3.05163e-08
1.73685e-07
-2.97812e-08
1.79054e-07
-2.90539e-08
1.84321e-07
-2.83305e-08
1.89485e-07
-2.76048e-08
1.94546e-07
-2.68693e-08
1.995e-07
-2.61152e-08
2.04343e-07
-2.53327e-08
2.09069e-07
-2.4512e-08
2.13668e-07
-2.36434e-08
2.18131e-07
-2.27179e-08
2.22445e-07
-2.17281e-08
2.26599e-07
-2.06686e-08
2.30578e-07
-1.95368e-08
2.34369e-07
-1.83338e-08
2.37959e-07
-1.70644e-08
2.41337e-07
-1.57373e-08
2.44495e-07
-1.43646e-08
2.47426e-07
-1.29612e-08
2.50127e-07
-1.15436e-08
2.52598e-07
-1.0129e-08
2.54842e-07
-8.73423e-09
2.56863e-07
-7.3741e-09
2.58669e-07
-6.06004e-09
2.60267e-07
-4.79868e-09
2.61669e-07
-3.59227e-09
2.62882e-07
-2.43944e-09
2.63917e-07
-1.33534e-09
2.6478e-07
-2.70485e-10
2.65476e-07
7.6766e-10
2.66005e-07
1.79454e-09
2.66365e-07
2.82622e-09
2.66551e-07
3.87793e-09
2.66553e-07
4.96167e-09
2.66361e-07
6.08415e-09
2.65964e-07
7.24515e-09
2.65355e-07
8.4369e-09
2.64526e-07
9.64486e-09
2.63477e-07
1.08497e-08
2.62212e-07
1.20301e-08
2.6074e-07
1.31662e-08
2.59073e-07
1.42426e-08
2.57228e-07
1.52505e-08
2.55222e-07
1.6189e-08
2.53071e-07
1.70656e-08
2.5079e-07
1.78946e-08
2.48388e-07
1.86949e-08
2.45874e-07
1.9487e-08
2.43249e-07
2.02887e-08
2.40515e-07
2.11116e-08
2.37671e-07
2.1958e-08
2.34719e-07
2.28202e-08
2.31665e-07
2.36824e-08
2.28521e-07
2.45245e-08
2.25301e-07
2.53273e-08
2.22023e-07
2.60775e-08
2.18704e-07
2.67708e-08
2.1536e-07
2.74126e-08
2.12002e-07
2.80154e-08
2.08634e-07
2.8596e-08
2.05257e-07
2.91713e-08
2.01865e-07
2.9756e-08
1.98451e-07
3.03609e-08
1.95004e-07
3.09935e-08
1.9151e-07
3.16578e-08
1.87955e-07
3.23559e-08
1.84323e-07
3.30871e-08
1.80595e-07
3.38505e-08
1.7675e-07
3.46438e-08
1.72768e-07
3.54637e-08
1.68627e-07
3.63039e-08
1.64304e-07
3.71549e-08
1.59779e-07
3.8002e-08
1.55036e-07
3.88267e-08
3.95911e-08
1.50065e-07
6.14802e-09
-4.07994e-08
1.34332e-08
-5.01096e-08
2.02976e-08
-4.76895e-08
2.69685e-08
-4.62611e-08
3.36215e-08
-4.59861e-08
4.02932e-08
-4.59936e-08
4.69827e-08
-4.60002e-08
5.3687e-08
-4.59756e-08
6.04038e-08
-4.59232e-08
6.71295e-08
-4.58371e-08
7.38585e-08
-4.57064e-08
8.05828e-08
-4.5519e-08
8.7292e-08
-4.52638e-08
9.39739e-08
-4.49311e-08
1.00615e-07
-4.45142e-08
1.072e-07
-4.40104e-08
1.13714e-07
-4.34214e-08
1.20146e-07
-4.27536e-08
1.26482e-07
-4.20174e-08
1.32715e-07
-4.1226e-08
1.38838e-07
-4.03941e-08
1.44848e-07
-3.95367e-08
1.50744e-07
-3.8667e-08
1.56526e-07
-3.77962e-08
1.62198e-07
-3.69323e-08
1.67761e-07
-3.608e-08
1.7322e-07
-3.52403e-08
1.78578e-07
-3.44113e-08
1.83835e-07
-3.35879e-08
1.88993e-07
-3.27631e-08
1.94051e-07
-3.19274e-08
1.99007e-07
-3.10702e-08
2.03854e-07
-3.01799e-08
2.08586e-07
-2.92446e-08
2.13196e-07
-2.82525e-08
2.17671e-07
-2.71929e-08
2.21999e-07
-2.60566e-08
2.26167e-07
-2.4837e-08
2.30162e-07
-2.35309e-08
2.33967e-07
-2.21393e-08
2.3757e-07
-2.06678e-08
2.4096e-07
-1.91268e-08
2.44126e-07
-1.75309e-08
2.47063e-07
-1.5898e-08
2.49767e-07
-1.4248e-08
2.5224e-07
-1.26014e-08
2.54483e-07
-1.0978e-08
2.56504e-07
-9.39504e-09
2.5831e-07
-7.86604e-09
2.59911e-07
-6.39939e-09
2.61317e-07
-4.99842e-09
2.6254e-07
-3.66165e-09
2.63587e-07
-2.3829e-09
2.64467e-07
-1.15082e-09
2.65185e-07
4.99661e-11
2.65741e-07
1.23869e-09
2.66132e-07
2.43529e-09
2.66351e-07
3.65879e-09
2.66388e-07
4.9245e-09
2.66231e-07
6.24108e-09
2.65868e-07
7.60856e-09
2.65287e-07
9.0174e-09
2.64483e-07
1.04493e-08
2.63453e-07
1.18799e-08
2.62201e-07
1.32819e-08
2.60737e-07
1.46299e-08
2.59076e-07
1.59035e-08
2.57236e-07
1.70908e-08
2.55235e-07
1.81898e-08
2.53092e-07
1.92087e-08
2.50822e-07
2.01647e-08
2.48436e-07
2.10811e-08
2.4594e-07
2.19831e-08
2.43335e-07
2.28934e-08
2.4062e-07
2.38265e-08
2.37793e-07
2.47852e-08
2.34854e-07
2.57596e-08
2.31808e-07
2.67288e-08
2.28665e-07
2.76667e-08
2.25444e-07
2.85487e-08
2.22163e-07
2.9358e-08
2.18844e-07
3.00902e-08
2.15503e-07
3.07533e-08
2.12153e-07
3.13655e-08
2.08799e-07
3.19497e-08
2.05442e-07
3.25285e-08
2.02077e-07
3.31214e-08
1.98695e-07
3.37426e-08
1.95287e-07
3.44017e-08
1.91841e-07
3.51042e-08
1.88343e-07
3.5853e-08
1.84782e-07
3.66487e-08
1.81141e-07
3.74909e-08
1.77407e-07
3.83786e-08
1.73561e-07
3.93091e-08
1.69588e-07
4.02773e-08
1.65469e-07
4.12732e-08
1.6119e-07
4.22816e-08
1.56735e-07
4.32813e-08
4.42333e-08
1.52093e-07
6.15879e-09
-4.69582e-08
1.34295e-08
-5.73803e-08
2.02752e-08
-5.45352e-08
2.69302e-08
-5.29161e-08
3.35705e-08
-5.26264e-08
4.02321e-08
-5.26552e-08
4.69139e-08
-5.2682e-08
5.36133e-08
-5.2675e-08
6.03281e-08
-5.2638e-08
6.7055e-08
-5.25641e-08
7.37886e-08
-5.244e-08
8.05207e-08
-5.22511e-08
8.72405e-08
-5.19836e-08
9.39349e-08
-5.16255e-08
1.00589e-07
-5.11685e-08
1.07188e-07
-5.06089e-08
1.13715e-07
-4.99486e-08
1.20157e-07
-4.91953e-08
1.26501e-07
-4.83614e-08
1.32738e-07
-4.74631e-08
1.38862e-07
-4.65182e-08
1.44869e-07
-4.55445e-08
1.50761e-07
-4.45583e-08
1.56537e-07
-4.35727e-08
1.62202e-07
-4.25972e-08
1.67759e-07
-4.16371e-08
1.73213e-07
-4.06938e-08
1.78566e-07
-3.97646e-08
1.83822e-07
-3.88437e-08
1.88981e-07
-3.79223e-08
1.94043e-07
-3.69894e-08
1.99005e-07
-3.60324e-08
2.03863e-07
-3.50375e-08
2.08609e-07
-3.39906e-08
2.13234e-07
-3.28779e-08
2.17728e-07
-3.16864e-08
2.22076e-07
-3.04052e-08
2.26266e-07
-2.90263e-08
2.3028e-07
-2.75456e-08
2.34105e-07
-2.5964e-08
2.37725e-07
-2.4288e-08
2.41128e-07
-2.25296e-08
2.44304e-07
-2.07063e-08
2.47245e-07
-1.88394e-08
2.49949e-07
-1.69524e-08
2.52417e-07
-1.50695e-08
2.54653e-07
-1.32139e-08
2.56664e-07
-1.14056e-08
2.58458e-07
-9.66035e-09
2.60047e-07
-7.98838e-09
2.61443e-07
-6.39402e-09
2.62657e-07
-4.87567e-09
2.637e-07
-3.42586e-09
2.6458e-07
-2.03105e-09
2.65302e-07
-6.72405e-10
2.65868e-07
6.72728e-10
2.66274e-07
2.02976e-09
2.66511e-07
3.4214e-09
2.66569e-07
4.86722e-09
2.66431e-07
6.37817e-09
2.66085e-07
7.95469e-09
2.65518e-07
9.58525e-09
2.6472e-07
1.12473e-08
2.63689e-07
1.29102e-08
2.62431e-07
1.45402e-08
2.60956e-07
1.61051e-08
2.5928e-07
1.75791e-08
2.57424e-07
1.89467e-08
2.55409e-07
2.02045e-08
2.53256e-07
2.13621e-08
2.50981e-07
2.24399e-08
2.48595e-07
2.34666e-08
2.46105e-07
2.44736e-08
2.43509e-07
2.54893e-08
2.40803e-07
2.65323e-08
2.37982e-07
2.76063e-08
2.35043e-07
2.86982e-08
2.31991e-07
2.97812e-08
2.28836e-07
3.08217e-08
2.25597e-07
3.17876e-08
2.22297e-07
3.26579e-08
2.1896e-07
3.34275e-08
2.15605e-07
3.41086e-08
2.12244e-07
3.47256e-08
2.08885e-07
3.53087e-08
2.05526e-07
3.58876e-08
2.02161e-07
3.64865e-08
1.9878e-07
3.71234e-08
1.95372e-07
3.78096e-08
1.91925e-07
3.85521e-08
1.88423e-07
3.93541e-08
1.84855e-07
4.02169e-08
1.81205e-07
4.11407e-08
1.77459e-07
4.21251e-08
1.736e-07
4.31681e-08
1.69612e-07
4.42649e-08
1.6548e-07
4.54052e-08
1.61189e-07
4.65726e-08
1.56728e-07
4.77431e-08
4.88773e-08
1.52084e-07
6.17131e-09
-5.31295e-08
1.34339e-08
-6.46429e-08
2.0269e-08
-6.13703e-08
2.69166e-08
-5.95638e-08
3.35522e-08
-5.92619e-08
4.02112e-08
-5.93142e-08
4.6893e-08
-5.93637e-08
5.35951e-08
-5.93771e-08
6.0316e-08
-5.93589e-08
6.70525e-08
-5.93006e-08
7.37993e-08
-5.91868e-08
8.05482e-08
-5.9e-08
8.72879e-08
-5.87232e-08
9.40044e-08
-5.83421e-08
1.00682e-07
-5.7846e-08
1.07303e-07
-5.72302e-08
1.13851e-07
-5.64969e-08
1.20311e-07
-5.5655e-08
1.2667e-07
-5.47198e-08
1.32917e-07
-5.37103e-08
1.39047e-07
-5.26481e-08
1.45057e-07
-5.15545e-08
1.50947e-07
-5.04486e-08
1.5672e-07
-4.9346e-08
1.62381e-07
-4.82576e-08
1.67933e-07
-4.71896e-08
1.73383e-07
-4.61433e-08
1.78734e-07
-4.51156e-08
1.83989e-07
-4.40994e-08
1.89151e-07
-4.30843e-08
1.9422e-07
-4.20575e-08
1.99191e-07
-4.10041e-08
2.04062e-07
-3.99083e-08
2.08825e-07
-3.87533e-08
2.1347e-07
-3.75231e-08
2.17986e-07
-3.62025e-08
2.22359e-07
-3.47784e-08
2.26574e-07
-3.32411e-08
2.30614e-07
-3.15855e-08
2.34462e-07
-2.98122e-08
2.38103e-07
-2.79286e-08
2.41522e-07
-2.59486e-08
2.44708e-07
-2.38928e-08
2.47655e-07
-2.1786e-08
2.50358e-07
-1.96561e-08
2.5282e-07
-1.75315e-08
2.55045e-07
-1.54389e-08
2.57041e-07
-1.34016e-08
2.58819e-07
-1.14378e-08
2.6039e-07
-9.55963e-09
2.61769e-07
-7.77249e-09
2.62968e-07
-6.07468e-09
2.63999e-07
-4.45738e-09
2.64873e-07
-2.90461e-09
2.65594e-07
-1.39384e-09
2.66165e-07
1.01527e-10
2.66582e-07
1.61336e-09
2.66834e-07
3.16872e-09
2.66909e-07
4.79207e-09
2.6679e-07
6.4975e-09
2.66459e-07
8.28602e-09
2.659e-07
1.01438e-08
2.65104e-07
1.20433e-08
2.64068e-07
1.39468e-08
2.62795e-07
1.58125e-08
2.613e-07
1.76006e-08
2.596e-07
1.92788e-08
2.57719e-07
2.08276e-08
2.55682e-07
2.22422e-08
2.5351e-07
2.35335e-08
2.51223e-07
2.47265e-08
2.48834e-07
2.58561e-08
2.46346e-07
2.69613e-08
2.43758e-07
2.8078e-08
2.4106e-07
2.92301e-08
2.38244e-07
3.04224e-08
2.35303e-07
3.16384e-08
2.32241e-07
3.28437e-08
2.29068e-07
3.39946e-08
2.25806e-07
3.505e-08
2.22481e-07
3.59827e-08
2.19121e-07
3.67876e-08
2.15748e-07
3.74811e-08
2.12378e-07
3.80959e-08
2.09016e-07
3.86712e-08
2.05658e-07
3.92446e-08
2.02299e-07
3.98462e-08
1.98925e-07
4.04968e-08
1.95525e-07
4.12101e-08
1.92083e-07
4.19936e-08
1.88586e-07
4.28511e-08
1.85019e-07
4.37842e-08
1.81366e-07
4.47939e-08
1.7761e-07
4.58806e-08
1.73735e-07
4.70434e-08
1.69722e-07
4.82778e-08
1.65554e-07
4.95737e-08
1.61213e-07
5.09132e-08
1.56687e-07
5.22693e-08
5.36003e-08
1.51964e-07
6.18369e-09
-5.93132e-08
1.34387e-08
-7.18979e-08
2.0265e-08
-6.81966e-08
2.69081e-08
-6.62068e-08
3.35416e-08
-6.58954e-08
4.02007e-08
-6.59733e-08
4.68849e-08
-6.6048e-08
5.35926e-08
-6.60848e-08
6.03226e-08
-6.60889e-08
6.70724e-08
-6.60504e-08
7.38368e-08
-6.59512e-08
8.06074e-08
-6.57706e-08
8.73724e-08
-6.54882e-08
9.41168e-08
-6.50865e-08
1.00823e-07
-6.45525e-08
1.07473e-07
-6.38801e-08
1.14048e-07
-6.30716e-08
1.2053e-07
-6.21376e-08
1.26907e-07
-6.10962e-08
1.33167e-07
-5.99703e-08
1.39304e-07
-5.87857e-08
1.45317e-07
-5.75674e-08
1.51207e-07
-5.63382e-08
1.56977e-07
-5.51158e-08
1.62632e-07
-5.39131e-08
1.6818e-07
-5.27369e-08
1.73625e-07
-5.15885e-08
1.78973e-07
-5.0464e-08
1.84229e-07
-4.9355e-08
1.89394e-07
-4.82495e-08
1.94469e-07
-4.71324e-08
1.99452e-07
-4.59868e-08
2.04337e-07
-4.4794e-08
2.09119e-07
-4.35351e-08
2.13787e-07
-4.21911e-08
2.18329e-07
-4.07445e-08
2.2273e-07
-3.91798e-08
2.26975e-07
-3.74853e-08
2.31044e-07
-3.56546e-08
2.34919e-07
-3.36878e-08
2.38584e-07
-3.1593e-08
2.42022e-07
-2.93865e-08
2.45221e-07
-2.70919e-08
2.48173e-07
-2.47386e-08
2.50876e-07
-2.23589e-08
2.53331e-07
-1.9986e-08
2.55542e-07
-1.76507e-08
2.57521e-07
-1.53798e-08
2.59277e-07
-1.31945e-08
2.60827e-07
-1.11089e-08
2.62184e-07
-9.12952e-09
2.63363e-07
-7.25452e-09
2.6438e-07
-5.47378e-09
2.65244e-07
-3.76865e-09
2.65963e-07
-2.11267e-09
2.66538e-07
-4.7353e-10
2.66966e-07
1.18531e-09
2.67235e-07
2.89921e-09
2.67331e-07
4.69675e-09
2.67232e-07
6.59665e-09
2.66917e-07
8.60058e-09
2.66369e-07
1.06922e-08
2.65574e-07
1.28381e-08
2.64528e-07
1.49922e-08
2.63238e-07
1.71032e-08
2.61716e-07
1.91221e-08
2.59986e-07
2.10094e-08
2.58073e-07
2.27406e-08
2.56005e-07
2.43094e-08
2.5381e-07
2.57287e-08
2.51508e-07
2.70284e-08
2.49113e-07
2.82514e-08
2.46628e-07
2.94462e-08
2.44048e-07
3.06581e-08
2.4136e-07
3.1918e-08
2.3855e-07
3.32326e-08
2.35607e-07
3.45809e-08
2.32532e-07
3.5919e-08
2.29336e-07
3.71905e-08
2.26044e-07
3.8342e-08
2.22688e-07
3.93389e-08
2.193e-07
4.0175e-08
2.15908e-07
4.08733e-08
2.12528e-07
4.14764e-08
2.09164e-07
4.20349e-08
2.05813e-07
4.25955e-08
2.02465e-07
4.31944e-08
1.99106e-07
4.38558e-08
1.95722e-07
4.45945e-08
1.92297e-07
4.54187e-08
1.88816e-07
4.63322e-08
1.85263e-07
4.73367e-08
1.81623e-07
4.84339e-08
1.77878e-07
4.96257e-08
1.74009e-07
5.09126e-08
1.69995e-07
5.22917e-08
1.65816e-07
5.37531e-08
1.61451e-07
5.52781e-08
1.56883e-07
5.68367e-08
5.83835e-08
1.521e-07
6.19566e-09
-6.55088e-08
1.34416e-08
-7.91439e-08
2.02588e-08
-7.50138e-08
2.68977e-08
-7.28457e-08
3.35299e-08
-7.25277e-08
4.01897e-08
-7.2633e-08
4.68771e-08
-7.27354e-08
5.35912e-08
-7.27989e-08
6.03318e-08
-7.28295e-08
6.70969e-08
-7.28155e-08
7.38816e-08
-7.27359e-08
8.06774e-08
-7.25664e-08
8.74719e-08
-7.22827e-08
9.42489e-08
-7.18635e-08
1.00989e-07
-7.1293e-08
1.07673e-07
-7.05634e-08
1.14278e-07
-6.96772e-08
1.20788e-07
-6.86467e-08
1.27185e-07
-6.74935e-08
1.3346e-07
-6.62451e-08
1.39606e-07
-6.49318e-08
1.45622e-07
-6.35834e-08
1.5151e-07
-6.22263e-08
1.57275e-07
-6.08811e-08
1.62924e-07
-5.95624e-08
1.68465e-07
-5.82776e-08
1.73904e-07
-5.7028e-08
1.79249e-07
-5.58088e-08
1.84504e-07
-5.461e-08
1.89673e-07
-5.34178e-08
1.94755e-07
-5.22147e-08
1.99749e-07
-5.09813e-08
2.04652e-07
-4.96964e-08
2.09455e-07
-4.83381e-08
2.14148e-07
-4.68848e-08
2.1872e-07
-4.53159e-08
2.23154e-07
-4.36135e-08
2.27432e-07
-4.17633e-08
2.31534e-07
-3.97573e-08
2.35441e-07
-3.75949e-08
2.39133e-07
-3.52851e-08
2.42593e-07
-3.28462e-08
2.45807e-07
-3.03057e-08
2.48766e-07
-2.76978e-08
2.51468e-07
-2.50603e-08
2.53913e-07
-2.24314e-08
2.56109e-07
-1.98468e-08
2.58066e-07
-1.73372e-08
2.59799e-07
-1.4927e-08
2.61322e-07
-1.26324e-08
2.62654e-07
-1.04611e-08
2.63811e-07
-8.41154e-09
2.64809e-07
-6.47202e-09
2.65662e-07
-4.62108e-09
2.66377e-07
-2.82777e-09
2.66957e-07
-1.05368e-09
2.67398e-07
7.43829e-10
2.67688e-07
2.60934e-09
2.67808e-07
4.57706e-09
2.67733e-07
6.67111e-09
2.6744e-07
8.89452e-09
2.66904e-07
1.1228e-08
2.66111e-07
1.36312e-08
2.65055e-07
1.60481e-08
2.63742e-07
1.8416e-08
2.62189e-07
2.06752e-08
2.60421e-07
2.27775e-08
2.58469e-07
2.46928e-08
2.56365e-07
2.64129e-08
2.54141e-07
2.79529e-08
2.5182e-07
2.93492e-08
2.49418e-07
3.06538e-08
2.46937e-07
3.19271e-08
2.44368e-07
3.32267e-08
2.41694e-07
3.45928e-08
2.38892e-07
3.60343e-08
2.35947e-07
3.75255e-08
2.32856e-07
3.901e-08
2.29632e-07
4.0415e-08
2.26302e-07
4.16714e-08
2.22907e-07
4.27341e-08
2.19486e-07
4.35964e-08
2.1607e-07
4.42891e-08
2.12678e-07
4.48682e-08
2.09315e-07
4.53982e-08
2.05973e-07
4.59369e-08
2.02641e-07
4.6527e-08
1.99301e-07
4.71953e-08
1.95938e-07
4.79574e-08
1.92536e-07
4.88214e-08
1.89077e-07
4.97905e-08
1.85548e-07
5.08662e-08
1.81931e-07
5.2051e-08
1.78208e-07
5.33485e-08
1.74359e-07
5.47616e-08
1.70361e-07
5.62892e-08
1.66191e-07
5.7923e-08
1.61826e-07
5.96437e-08
1.57244e-07
6.14189e-08
6.31988e-08
1.52428e-07
6.20729e-09
-7.17161e-08
1.3442e-08
-8.63785e-08
2.02488e-08
-8.18206e-08
2.68832e-08
-7.94801e-08
3.35139e-08
-7.91584e-08
4.01741e-08
-7.92932e-08
4.68645e-08
-7.94258e-08
5.35854e-08
-7.95198e-08
6.03374e-08
-7.95814e-08
6.71192e-08
-7.95973e-08
7.39265e-08
-7.95432e-08
8.07507e-08
-7.93906e-08
8.75788e-08
-7.91108e-08
9.43933e-08
-7.8678e-08
1.01173e-07
-7.80728e-08
1.07895e-07
-7.72854e-08
1.14536e-07
-7.63184e-08
1.21076e-07
-7.51861e-08
1.27497e-07
-7.39145e-08
1.33788e-07
-7.2536e-08
1.39943e-07
-7.10868e-08
1.45961e-07
-6.96019e-08
1.51847e-07
-6.81117e-08
1.57606e-07
-6.66402e-08
1.63247e-07
-6.52035e-08
1.68779e-07
-6.38099e-08
1.74211e-07
-6.24603e-08
1.79551e-07
-6.11488e-08
1.84805e-07
-5.98637e-08
1.89976e-07
-5.85889e-08
1.95066e-07
-5.73047e-08
2.00074e-07
-5.59888e-08
2.04994e-07
-5.46171e-08
2.09821e-07
-5.31649e-08
2.14544e-07
-5.16073e-08
2.19148e-07
-4.99206e-08
2.23619e-07
-4.80838e-08
2.27935e-07
-4.60798e-08
2.32076e-07
-4.38985e-08
2.3602e-07
-4.15384e-08
2.39744e-07
-3.90089e-08
2.43229e-07
-3.6331e-08
2.46459e-07
-3.35362e-08
2.49426e-07
-3.06645e-08
2.52125e-07
-2.77598e-08
2.5456e-07
-2.48661e-08
2.56738e-07
-2.20246e-08
2.58671e-07
-1.92704e-08
2.60375e-07
-1.66311e-08
2.61869e-07
-1.41256e-08
2.63171e-07
-1.17631e-08
2.64301e-07
-9.54182e-09
2.65278e-07
-7.44893e-09
2.66116e-07
-5.4598e-09
2.66827e-07
-3.5386e-09
2.67414e-07
-1.64011e-09
2.67871e-07
2.86302e-10
2.68186e-07
2.29447e-09
2.68336e-07
4.42748e-09
2.68292e-07
6.71505e-09
2.68024e-07
9.16262e-09
2.67504e-07
1.17477e-08
2.66714e-07
1.44214e-08
2.65646e-07
1.71159e-08
2.64307e-07
1.97549e-08
2.62716e-07
2.2266e-08
2.60903e-07
2.45906e-08
2.58904e-07
2.6692e-08
2.56757e-07
2.85599e-08
2.54498e-07
3.02122e-08
2.52154e-07
3.16923e-08
2.49744e-07
3.3064e-08
2.47269e-07
3.44021e-08
2.44716e-07
3.57797e-08
2.4206e-07
3.72492e-08
2.3927e-07
3.88238e-08
2.36325e-07
4.04713e-08
2.33215e-07
4.21197e-08
2.29955e-07
4.36752e-08
2.26579e-07
4.50475e-08
2.23135e-07
4.61782e-08
2.19672e-07
4.70594e-08
2.16227e-07
4.77331e-08
2.12823e-07
4.82726e-08
2.09462e-07
4.87597e-08
2.06133e-07
4.92656e-08
2.0282e-07
4.98399e-08
1.99504e-07
5.0511e-08
1.96167e-07
5.12944e-08
1.92791e-07
5.21973e-08
1.8936e-07
5.32215e-08
1.85859e-07
5.4368e-08
1.8227e-07
5.56398e-08
1.78576e-07
5.70425e-08
1.74755e-07
5.85822e-08
1.70784e-07
6.0261e-08
1.66634e-07
6.20725e-08
1.6228e-07
6.39976e-08