/*--------------------------------*- C++ -*----------------------------------*\
| =========                 |                                                 |
| \\      /  F ield         | OpenFOAM: The Open Source CFD Toolbox           |
|  \\    /   O peration     | Version:  2.4.0                                 |
|   \\  /    A nd           | Web:      www.OpenFOAM.org                      |
|    \\/     M anipulation  |                                                 |
\*---------------------------------------------------------------------------*/
FoamFile
{
    version     2.0;
    format      ascii;
    class       volScalarField;
    location    "0.294";
    object      alpha.water;
}
// * * * * * * * * * * * * * * * * * * * * * * * * * * * * * * * * * * * * * //

dimensions      [0 0 0 0 0 0 0];

internalField   nonuniform List<scalar> 
60000
(
1
1
1
1
1
1
1
1
1
1
1
1
1
1
1
1
1
1
1
1
1
1
1
1
1
1
1
1
1
1
1
1
1
1
1
1
1
1
1
1
1
1
1
1
1
1
1
1
1
1
1
1
1
1
1
1
1
1
1
1
1
1
1
1
1
1
1
1
1
1
1
1
1
1
1
1
1
1
1
1
1
1
1
1
1
1
1
1
1
1
1
1
1
1
1
1
1
1
1
1
1
1
1
1
1
1
1
1
1
1
1
1
1
1
1
1
1
1
1
1
1
1
1
1
1
1
1
1
1
1
1
1
1
1
1
1
1
1
1
1
1
1
1
1
1
1
1
1
1
1
1
1
1
1
1
1
1
1
1
1
1
1
1
1
1
1
1
1
1
1
1
1
1
1
1
1
1
1
1
1
1
1
1
1
1
1
1
1
1
1
1
1
1
1
1
1
1
1
1
1
1
1
1
1
1
1
1
1
1
1
1
1
1
1
1
1
1
1
1
1
1
1
1
1
1
1
1
1
1
1
1
1
1
1
1
1
1
1
1
1
1
1
1
1
1
1
1
1
1
1
1
1
1
1
1
1
1
1
1
1
1
1
1
1
1
1
1
1
1
1
1
1
1
1
1
1
1
1
1
1
1
1
1
1
1
1
1
1
1
1
1
1
1
1
1
1
1
1
1
1
1
1
1
1
1
1
1
1
1
1
1
1
1
1
1
1
1
1
1
1
1
1
1
1
1
1
1
1
1
1
1
1
1
1
1
1
1
1
1
1
1
1
1
1
1
1
1
1
1
1
1
1
1
1
1
1
1
1
1
1
1
1
1
1
1
1
1
1
1
1
1
1
1
1
1
1
1
1
1
1
1
1
1
1
1
1
1
1
1
1
1
1
1
1
1
1
1
1
1
1
1
1
1
1
1
1
1
1
1
1
1
1
1
1
1
1
1
1
1
1
1
1
1
1
1
1
1
1
1
1
1
1
1
1
1
1
1
1
1
1
1
1
1
1
1
1
1
1
1
1
1
1
1
1
1
1
1
1
1
1
1
1
1
1
1
1
1
1
1
1
1
1
1
1
1
1
1
1
1
1
1
1
1
1
1
1
1
1
1
1
1
1
1
1
1
1
1
1
1
1
1
1
1
1
1
1
1
1
1
1
1
1
1
1
1
1
1
1
1
1
1
1
1
1
1
1
1
1
1
1
1
1
1
1
1
1
1
1
1
1
1
1
1
1
1
1
1
1
1
1
1
1
1
1
1
1
1
1
1
1
1
1
1
1
1
1
1
1
1
1
1
1
1
1
1
1
1
1
1
1
1
1
1
1
1
1
1
1
1
1
1
1
1
1
1
1
1
1
1
1
1
1
1
1
1
1
1
1
1
1
1
1
1
1
1
1
1
1
1
1
1
1
1
1
1
1
1
1
1
1
1
1
1
1
1
1
1
1
1
1
1
1
1
1
1
1
1
1
1
1
1
1
1
1
1
1
1
1
1
1
1
1
1
1
1
1
1
1
1
1
1
1
1
1
1
1
1
1
1
1
1
1
1
1
1
1
1
1
1
1
1
1
1
1
1
1
1
1
1
1
1
1
1
1
1
1
1
1
1
1
1
1
1
1
1
1
1
1
1
1
1
1
1
1
1
1
1
1
1
1
1
1
1
1
1
1
1
1
1
1
1
1
1
1
1
1
1
1
1
1
1
1
1
1
1
1
1
1
1
1
1
1
1
1
1
1
1
1
1
1
1
1
1
1
1
1
1
1
1
1
1
1
1
1
1
1
1
1
1
1
1
1
1
1
1
1
1
1
1
1
1
1
1
1
1
1
1
1
1
1
1
1
1
1
1
1
1
1
1
1
1
1
1
1
1
1
1
1
1
1
1
1
1
1
1
1
1
1
1
1
1
1
1
1
1
1
1
1
1
1
1
1
1
1
1
1
1
1
1
1
1
1
1
1
1
1
1
1
1
1
1
1
1
1
1
1
1
1
1
1
1
1
1
1
1
1
1
1
1
1
1
1
1
1
1
1
1
1
1
1
1
1
1
1
1
1
1
1
1
1
1
1
1
1
1
1
1
1
1
1
1
1
1
1
1
1
1
1
1
1
1
1
1
1
1
1
1
1
1
1
1
1
1
1
1
1
1
1
1
1
1
1
1
1
1
1
1
1
1
1
1
1
1
1
1
1
1
1
1
1
1
1
1
1
1
1
1
1
1
1
1
1
1
1
1
1
1
1
1
1
1
1
1
1
1
1
1
1
1
1
1
1
1
1
1
1
1
1
1
1
1
1
1
1
1
1
1
1
1
1
1
1
1
1
1
1
1
1
1
1
1
1
1
1
1
1
1
1
1
1
1
1
1
1
1
1
1
1
1
1
1
1
1
1
1
1
1
1
1
1
1
1
1
1
1
1
1
1
1
1
1
1
1
1
1
1
1
1
1
1
1
1
1
1
1
1
1
1
1
1
1
1
1
1
1
1
1
1
1
1
1
1
1
1
1
1
1
1
1
1
1
1
1
1
1
1
1
1
1
1
1
1
1
1
1
1
1
1
1
1
1
1
1
1
1
1
1
1
1
1
1
1
1
1
1
1
1
1
1
1
1
1
1
1
1
1
1
1
1
1
1
1
1
1
1
1
1
1
1
1
1
1
1
1
1
1
1
1
1
1
1
1
1
1
1
1
1
1
1
1
1
1
1
1
1
1
1
1
1
1
1
1
1
1
1
1
1
1
1
1
1
1
1
1
1
1
1
1
1
1
1
1
1
1
1
1
1
1
1
1
1
1
1
1
1
1
1
1
1
1
1
1
1
1
1
1
1
1
1
1
1
1
1
1
1
1
1
1
1
1
1
1
1
1
1
1
1
1
1
1
1
1
1
1
1
1
1
1
1
1
1
1
1
1
1
1
1
1
1
1
1
1
1
1
1
1
1
1
1
1
1
1
1
1
1
1
1
1
1
1
1
1
1
1
1
1
1
1
1
1
1
1
1
1
1
1
1
1
1
1
1
1
1
1
1
1
1
1
1
1
1
1
1
1
1
1
1
1
1
1
1
1
1
1
1
1
1
1
1
1
1
1
1
1
1
1
1
1
1
1
1
1
1
1
1
1
1
1
1
1
1
1
1
1
1
1
1
1
1
1
1
1
1
1
1
1
1
1
1
1
1
1
1
1
1
1
1
1
1
1
1
1
1
1
1
1
1
1
1
1
1
1
1
1
1
1
1
1
1
1
1
1
1
1
1
1
1
1
1
1
1
1
1
1
1
1
1
1
1
1
1
1
1
1
1
1
1
1
1
1
1
1
1
1
1
1
1
1
1
1
1
1
1
1
1
1
1
1
1
1
1
1
1
1
1
1
1
1
1
1
1
1
1
1
1
1
1
1
1
1
1
1
1
1
1
1
1
1
1
1
1
1
1
1
1
1
1
1
1
1
1
1
1
1
1
1
1
1
1
1
1
1
1
1
1
1
1
1
1
1
1
1
1
1
1
1
1
1
1
1
1
1
1
1
1
1
1
1
1
1
1
1
1
1
1
1
1
1
1
1
1
1
1
1
1
1
1
1
1
1
1
1
1
1
1
1
1
1
1
1
1
1
1
1
1
1
1
1
1
1
1
1
1
1
1
1
1
1
1
1
1
1
1
1
1
1
1
1
1
1
1
1
1
1
1
1
1
1
1
1
1
1
1
1
1
1
1
1
1
1
1
1
1
1
1
1
1
1
1
1
1
1
1
1
1
1
1
1
1
1
1
1
1
1
1
1
1
1
1
1
1
1
1
1
1
1
1
1
1
1
1
1
1
1
1
1
1
1
1
1
1
1
1
1
1
1
1
1
1
1
1
1
1
1
1
1
1
1
1
1
1
1
1
1
1
1
1
1
1
1
1
1
1
1
1
1
1
1
1
1
1
1
1
1
1
1
1
1
1
1
1
1
1
1
1
1
1
1
1
1
1
1
1
1
1
1
1
1
1
1
1
1
1
1
1
1
1
1
1
1
1
1
1
1
1
1
1
1
1
1
1
1
1
1
1
1
1
1
1
1
1
1
1
1
1
1
1
1
1
1
1
1
1
1
1
1
1
1
1
1
1
1
1
1
1
1
1
1
1
1
1
1
1
1
1
1
1
1
1
1
1
1
1
1
1
1
1
1
1
1
1
1
1
1
1
1
1
1
1
1
1
1
1
1
1
1
1
1
1
1
1
1
1
1
1
1
1
1
1
1
1
1
1
1
1
1
1
1
1
1
1
1
1
1
1
1
1
1
1
1
1
1
1
1
1
1
1
1
1
1
1
1
1
1
1
1
1
1
1
1
1
1
1
1
1
1
1
1
1
1
1
1
1
1
1
1
1
1
1
1
1
1
1
1
1
1
1
1
1
1
1
1
1
1
1
1
1
1
1
1
1
1
1
1
1
1
1
1
1
1
1
1
1
1
1
1
1
1
1
1
1
1
1
1
1
1
1
1
1
1
1
1
1
1
1
1
1
1
1
1
1
1
1
1
1
1
1
1
1
1
1
1
1
1
1
1
1
1
1
1
1
1
1
1
1
1
1
1
1
1
1
1
1
1
1
1
1
1
1
1
1
1
1
1
1
1
1
1
1
1
1
1
1
1
1
1
1
1
1
1
1
1
1
1
1
1
1
1
1
1
1
1
1
1
1
1
1
1
1
1
1
1
1
1
1
1
1
1
1
1
1
1
1
1
1
1
1
1
1
1
1
1
1
1
1
1
1
1
1
1
1
1
1
1
1
1
1
1
1
1
1
1
1
1
1
1
1
1
1
1
1
1
1
1
1
1
1
1
1
1
1
1
1
1
1
1
1
1
1
1
1
1
1
1
1
1
1
1
1
1
1
1
1
1
1
1
1
1
1
1
1
1
1
1
1
1
1
1
1
1
1
1
1
1
1
1
1
1
1
1
1
1
1
1
1
1
1
1
1
1
1
1
1
1
1
1
1
1
1
1
1
1
1
1
1
1
1
1
1
1
1
1
1
1
1
1
1
1
1
1
1
1
1
1
1
1
1
1
1
1
1
1
1
1
1
1
1
1
1
1
1
1
1
1
1
1
1
1
1
1
1
1
1
1
1
1
1
1
1
1
1
1
1
1
1
1
1
1
1
1
1
1
1
1
1
1
1
1
1
1
1
1
1
1
1
1
1
1
1
1
1
1
1
1
1
1
1
1
1
1
1
1
1
1
1
1
1
1
1
1
1
1
1
1
1
1
1
1
1
1
1
1
1
1
1
1
1
1
1
1
1
1
1
1
1
1
1
1
1
1
1
1
1
1
1
1
1
1
1
1
1
1
1
1
1
1
1
1
1
1
1
1
1
1
1
1
1
1
1
1
1
1
1
1
1
1
1
1
1
1
1
1
1
1
1
1
1
1
1
1
1
1
1
1
1
1
1
1
1
1
1
1
1
1
1
1
1
1
1
1
1
1
1
1
1
1
1
1
1
1
1
1
1
1
1
1
1
1
1
1
1
1
1
1
1
1
1
1
1
1
1
1
1
1
1
1
1
1
1
1
1
1
1
1
1
1
1
1
1
1
1
1
1
1
1
1
1
1
1
1
1
1
1
1
1
1
1
1
1
1
1
1
1
1
1
1
1
1
1
1
1
1
1
1
1
1
1
1
1
1
1
1
1
1
1
1
1
1
1
1
1
1
1
1
1
1
1
1
1
1
1
1
1
1
1
1
1
1
1
1
1
1
1
1
1
1
1
1
1
1
1
1
1
1
1
1
1
1
1
1
1
1
1
1
1
1
1
1
1
1
1
1
1
1
1
1
1
1
1
1
1
1
1
1
1
1
1
1
1
1
1
1
1
1
1
1
1
1
1
1
1
1
1
1
1
1
1
1
1
1
1
1
1
1
1
1
1
1
1
1
1
1
1
1
1
1
1
1
1
1
1
1
1
1
1
1
1
1
1
1
1
1
1
1
1
1
1
1
1
1
1
1
1
1
1
1
1
1
1
1
1
1
1
1
1
1
1
1
1
1
1
1
1
1
1
1
1
1
1
1
1
1
1
1
1
1
1
1
1
1
1
1
1
1
1
1
1
1
1
1
1
1
1
1
1
1
1
1
1
1
1
1
1
1
1
1
1
1
1
1
1
1
1
1
1
1
1
1
1
1
1
1
1
1
1
1
1
1
1
1
1
1
1
1
1
1
1
1
1
1
1
1
1
1
1
1
1
1
1
1
1
1
1
1
1
1
1
1
1
1
1
1
1
1
1
1
1
1
1
1
1
1
1
1
1
1
1
1
1
1
1
1
1
1
1
1
1
1
1
1
1
1
1
1
1
1
1
1
1
1
1
1
1
1
1
1
1
1
1
1
1
1
1
1
1
1
1
1
1
1
1
1
1
1
1
1
1
1
1
1
1
1
1
1
1
1
1
1
1
1
1
1
1
1
1
1
1
1
1
1
1
1
1
1
1
1
1
1
1
1
1
1
1
1
1
1
1
1
1
1
1
1
1
1
1
1
1
1
1
1
1
1
1
1
1
1
1
1
1
1
1
1
1
1
1
1
1
1
1
1
1
1
1
1
1
1
1
1
1
1
1
1
1
1
1
1
1
1
1
1
1
1
1
1
1
1
1
1
1
1
1
1
1
1
1
1
1
1
1
1
1
1
1
1
1
1
1
1
1
1
1
1
1
1
1
1
1
1
1
1
1
1
1
1
1
1
1
1
1
1
1
1
1
1
1
1
1
1
1
1
1
1
1
1
1
1
1
1
1
1
1
1
1
1
1
1
1
1
1
1
1
1
1
1
1
1
1
1
1
1
1
1
1
1
1
1
1
1
1
1
1
1
1
1
1
1
1
1
1
1
1
1
1
1
1
1
1
1
1
1
1
1
1
1
1
1
1
1
1
1
1
1
1
1
1
1
1
1
1
1
1
1
1
1
1
1
1
1
1
1
1
1
1
1
1
1
1
1
1
1
1
1
1
1
1
1
1
1
1
1
1
1
1
1
1
1
1
1
1
1
1
1
1
1
1
1
1
1
1
1
1
1
1
1
1
1
1
1
1
1
1
1
1
1
1
1
1
1
1
1
1
1
1
1
1
1
1
1
1
1
1
1
1
1
1
1
1
1
1
1
1
1
1
1
1
1
1
1
1
1
1
1
1
1
1
1
1
1
1
1
1
1
1
1
1
1
1
1
1
1
1
1
1
1
1
1
1
1
1
1
1
1
1
1
1
1
1
1
1
1
1
1
1
1
1
1
1
1
1
1
1
1
1
1
1
1
1
1
1
1
1
1
1
1
1
1
1
1
1
1
1
1
1
1
1
1
1
1
1
1
1
1
1
1
1
1
1
1
1
1
1
1
1
1
1
1
1
1
1
1
1
1
1
1
1
1
1
1
1
1
1
1
1
1
1
1
1
1
1
1
1
1
1
1
1
1
1
1
1
1
1
1
1
1
1
1
1
1
1
1
1
1
1
1
1
1
1
1
1
1
1
1
1
1
1
1
1
1
1
1
1
1
1
1
1
1
1
1
1
1
1
1
1
1
1
1
1
1
1
1
1
1
1
1
1
1
1
1
1
1
1
1
1
1
1
1
1
1
1
1
1
1
1
1
1
1
1
1
1
1
1
1
1
1
1
1
1
1
1
1
1
1
0.999999
0.999999
0.999996
0.999994
1
0.999997
0.999998
1
1
1
1
1
1
1
1
1
1
1
1
1
1
1
1
1
1
1
1
1
1
1
1
1
1
1
1
1
1
1
1
1
1
1
1
1
1
1
1
1
1
1
1
1
1
1
1
1
1
1
1
1
1
1
1
1
1
1
1
1
1
1
1
1
1
1
1
1
1
1
1
1
1
1
1
1
1
1
1
1
1
1
0.999999
0.999999
0.999998
0.999997
0.999997
0.999995
0.999994
0.999991
0.999977
0.999956
0.99994
0.998529
0.968387
0.903618
0.820788
0.749763
0.68684
0.684588
0.710299
0.785799
0.919492
1
0.999999
0.999991
0.999997
0.999999
1
1
1
1
1
1
1
1
1
1
1
1
1
1
1
1
1
1
1
1
1
1
1
1
1
1
1
1
1
1
1
1
1
1
1
1
1
1
1
1
1
1
1
1
1
1
1
1
1
1
1
1
1
1
1
1
1
0.999999
0.999999
0.999999
0.999999
0.999999
0.999999
0.999999
0.999999
0.999999
0.999999
0.999999
0.999999
0.999998
0.999997
0.999997
0.999993
0.999987
0.999978
0.99996
0.999935
0.999901
0.999863
0.999825
0.999751
0.991374
0.951687
0.864913
0.736221
0.549075
0.344217
0.194295
0.102063
0.0581237
0.0379009
0.0392906
0.0460542
0.0674743
0.134574
0.289212
0.519763
0.80028
0.965693
0.999223
0.999993
0.999999
1
1
1
1
1
1
1
1
1
1
1
1
1
1
1
1
1
1
1
1
1
1
1
1
1
1
1
1
1
1
1
1
1
1
1
1
1
1
1
1
1
1
1
1
1
1
1
1
1
1
1
1
0.999999
0.999998
0.999994
0.999988
0.999982
0.999978
0.999976
0.999977
0.999979
0.999982
0.999985
0.999987
0.999986
0.999983
0.999974
0.999953
0.999908
0.999839
0.99975
0.998865
0.987309
0.96082
0.921228
0.871653
0.807591
0.724984
0.607565
0.458233
0.285676
0.14232
0.0120584
2.69647e-07
1.51045e-07
9.80049e-08
7.26982e-08
6.38793e-08
6.215e-08
-1.02631e-06
3.88337e-06
1.57921e-05
4.20293e-05
0.000138634
0.025076
0.126319
0.333671
0.630582
0.882538
0.980551
1
1
1
1
1
1
1
1
1
1
1
1
1
1
1
1
1
1
1
1
1
1
1
1
1
1
1
1
1
1
1
1
1
1
1
1
1
1
1
1
1
1
1
1
1
1
1
1
1
1
1
0.999997
0.999987
0.999958
0.99988
0.999762
0.99965
0.999563
0.999525
0.99953
0.999559
0.999588
0.999613
0.999619
0.999235
0.995835
0.983189
0.952927
0.897274
0.812944
0.702879
0.56218
0.423294
0.307438
0.218278
0.149776
0.0904255
0.0323685
3.8381e-07
4.91395e-07
6.07488e-07
6.11865e-07
2.94821e-07
1.47113e-07
9.64624e-08
7.26364e-08
6.39546e-08
6.30817e-08
6.26102e-08
5.45111e-08
2.60332e-07
-4.17016e-07
7.90806e-07
5.97223e-06
1.63301e-05
2.63305e-05
0.0108617
0.0440012
0.149056
0.348032
1
1
1
1
1
1
1
1
1
1
1
1
1
1
1
1
1
1
1
1
1
1
1
1
1
1
1
1
1
1
1
1
1
1
1
1
1
1
1
1
1
1
1
1
1
1
1
1
1
1
0.999994
0.999936
0.99971
0.985873
0.92933
0.853659
0.789268
0.741035
0.712195
0.698408
0.691623
0.684611
0.670694
0.643192
0.585798
0.498968
0.393498
0.280659
0.174524
0.0876593
0.017221
2.76144e-08
2.95473e-08
3.6142e-08
5.31979e-08
1.25322e-07
2.36388e-07
2.82107e-07
3.17426e-07
3.98566e-07
4.97063e-07
6.07641e-07
6.85317e-07
5.89056e-07
7.19754e-07
1.05093e-06
9.92044e-07
5.88658e-07
8.56549e-08
1.23923e-07
8.73139e-08
5.57403e-08
1.07072e-07
6.53829e-09
5.57738e-07
8.5983e-07
2.31119e-06
1.96861e-06
4.0036e-07
5.38087e-08
1
1
1
1
1
1
1
1
1
1
1
1
1
1
1
1
1
1
1
1
1
1
1
1
1
1
1
1
1
1
1
1
1
1
1
1
1
1
1
1
1
1
1
1
1
1
1
1
1
0.999983
0.999817
0.927706
0.703974
0.427177
0.243762
0.137265
0.0835182
0.0545313
0.0399339
0.0327851
0.0285903
0.0242396
0.0174204
0.00533217
3.57459e-09
1.67818e-08
4.13798e-08
4.3203e-08
3.18307e-08
2.88457e-08
2.84946e-08
2.83068e-08
2.84716e-08
2.99686e-08
3.61668e-08
5.32825e-08
1.25465e-07
1.08838e-06
2.08483e-06
2.59659e-06
2.35178e-06
1.99165e-06
1.97502e-06
2.10321e-06
2.53223e-06
2.49252e-06
2.45113e-06
2.42136e-06
1.45345e-06
1.03292e-07
4.52213e-08
2.70401e-08
2.6589e-08
3.73304e-08
5.87774e-08
5.09676e-08
8.00462e-08
5.78932e-08
5.08586e-07
5.22744e-08
1
1
1
1
1
1
1
1
1
1
1
1
1
1
1
1
1
1
1
1
1
1
1
1
1
1
1
1
1
1
1
1
1
1
1
1
1
1
1
1
1
1
1
1
1
1
1
1
0.999977
0.967239
0.667286
0.230209
0.0285119
7.35482e-07
1.80673e-07
7.81246e-08
7.47932e-09
1.52177e-09
1.06689e-09
1.0032e-09
9.91457e-10
9.91457e-10
9.91457e-10
1.00303e-09
1.38029e-09
3.58499e-09
1.68251e-08
3.28103e-08
3.28436e-08
3.08678e-08
2.8882e-08
2.8702e-08
2.94262e-08
3.59778e-08
2.40493e-07
2.50342e-06
4.24039e-06
5.61336e-06
5.61491e-06
5.58686e-06
5.19594e-06
3.93685e-06
3.75207e-06
3.5804e-06
2.66123e-06
1.04512e-06
4.90869e-07
6.38766e-07
6.37295e-07
2.39059e-07
2.69166e-08
2.23061e-08
2.11825e-08
2.14967e-08
2.22911e-08
2.22565e-08
2.24409e-08
2.3623e-08
6.54768e-08
7.56227e-08
1
1
1
1
1
1
1
1
1
1
1
1
1
1
1
1
1
1
1
1
1
1
1
1
1
1
1
1
1
1
1
1
1
1
1
1
1
1
1
1
1
1
1
1
1
1
0.999999
0.999973
0.882275
0.328923
0.0070064
5.81309e-06
7.20359e-07
1.80425e-07
1.28724e-07
8.47818e-08
3.4195e-08
4.37963e-08
3.99436e-09
1.14116e-09
1.15534e-09
1.23368e-09
1.07668e-09
1.25702e-09
3.00585e-09
1.39156e-08
3.9914e-08
4.38934e-08
3.51204e-08
3.28527e-08
3.07975e-08
3.42341e-08
1.06984e-06
4.92568e-06
9.08746e-06
8.88671e-06
8.29001e-06
5.62588e-06
2.89241e-06
1.19984e-07
9.19567e-08
1.45244e-07
1.87889e-07
1.15451e-06
1.31255e-06
6.38105e-07
1.41864e-07
9.24084e-08
7.09512e-08
8.86733e-08
3.45325e-08
2.10012e-08
2.06838e-08
2.06593e-08
2.07035e-08
2.06977e-08
2.06783e-08
2.22234e-08
3.77431e-08
3.84934e-07
1
1
1
1
1
1
1
1
1
1
1
1
1
1
1
1
1
1
1
1
1
1
1
1
1
1
1
1
1
1
1
1
1
1
1
1
1
1
1
1
1
1
1
1
1
1
0.999972
0.786578
0.155413
7.29777e-05
7.66498e-05
0.000264139
7.42594e-05
2.99384e-06
1.9074e-07
1.22876e-06
1.25569e-06
3.57595e-07
4.98612e-09
1.92144e-09
1.45282e-09
1.33862e-09
1.44316e-09
5.4246e-09
8.01331e-08
6.2385e-06
1.1248e-05
5.05956e-06
4.47684e-07
1.00117e-07
4.66031e-07
4.9239e-06
1.18124e-05
1.18492e-05
1.1838e-05
5.83459e-06
3.49806e-08
3.10867e-08
3.05649e-08
3.06683e-08
3.13918e-08
3.20424e-07
2.17866e-06
7.34336e-06
8.45557e-06
6.20219e-06
1.35611e-06
5.23886e-08
2.91142e-08
2.24669e-08
2.1128e-08
2.07114e-08
2.05903e-08
2.05672e-08
2.05616e-08
2.05482e-08
2.05293e-08
2.06545e-08
3.55404e-07
4.55006e-07
1
1
1
1
1
1
1
1
1
1
1
1
1
1
1
1
1
1
1
1
1
1
1
1
1
1
1
1
1
1
1
1
1
1
1
1
1
1
1
1
1
1
1
1
1
0.999723
0.741573
0.128496
7.15152e-05
7.15515e-05
0.000119513
0.00166099
5.12929e-06
3.85961e-06
9.06714e-06
1.17728e-05
6.89422e-06
1.3355e-07
1.77547e-08
1.20316e-07
6.46924e-09
1.75854e-09
4.42434e-09
1.27684e-06
1.4533e-05
2.58676e-05
2.58676e-05
2.56349e-05
1.56141e-05
1.39051e-05
1.50951e-05
1.50466e-05
1.40964e-05
8.12903e-06
1.3845e-07
3.52542e-08
3.13695e-08
3.06175e-08
3.03251e-08
3.0165e-08
7.82245e-07
6.71267e-06
8.44289e-06
8.45552e-06
8.45957e-06
8.45792e-06
5.01461e-06
1.09222e-07
2.50386e-08
2.13661e-08
2.07124e-08
2.05828e-08
2.05566e-08
2.05462e-08
2.05351e-08
2.05231e-08
2.05209e-08
4.45082e-07
5.12607e-07
2.11775e-07
1
1
1
1
1
1
1
1
1
1
1
1
1
1
1
1
1
1
1
1
1
1
1
1
1
1
1
1
1
1
1
1
1
1
1
1
1
1
1
1
1
1
1
1
0.999065
0.729379
0.120052
7.14549e-05
7.15294e-05
7.1593e-05
7.16021e-05
0.00165484
5.53215e-06
4.08999e-06
1.18931e-05
1.18931e-05
5.14002e-06
3.35422e-07
7.07083e-07
1.89122e-06
6.33352e-07
4.60306e-09
1.3468e-06
2.04382e-05
2.58394e-05
2.58603e-05
2.5875e-05
2.58603e-05
2.57336e-05
2.53471e-05
2.08666e-05
8.34758e-06
2.65233e-06
2.43325e-06
2.17558e-06
1.11441e-07
3.14471e-08
3.03497e-08
3.00358e-08
2.96071e-08
4.84397e-06
8.08453e-06
8.29855e-06
8.42968e-06
8.4564e-06
7.72812e-06
2.74955e-06
5.737e-08
2.25677e-08
2.08788e-08
2.05954e-08
2.05499e-08
2.05437e-08
2.05407e-08
2.05224e-08
2.05297e-08
8.11076e-07
9.60101e-07
2.77079e-07
6.7944e-09
1
1
1
1
1
1
1
1
1
1
1
1
1
1
1
1
1
1
1
1
1
1
1
1
1
1
1
1
1
1
1
1
1
1
1
1
1
1
1
1
1
1
1
0.99825
0.731056
0.118694
7.16549e-05
7.15547e-05
7.15899e-05
7.16183e-05
7.30526e-05
0.0016876
1.79533e-05
4.79409e-06
1.10694e-05
5.69865e-06
2.17347e-07
8.62103e-07
2.22702e-06
2.22816e-06
1.86262e-06
2.2215e-08
4.5018e-06
2.49255e-05
2.57145e-05
2.58395e-05
2.57068e-05
2.0467e-05
1.09905e-05
3.15018e-06
8.53822e-07
8.56325e-07
5.43968e-06
1.82357e-05
1.95264e-05
2.09594e-06
3.17931e-08
3.00744e-08
2.96056e-08
2.89599e-08
4.79927e-07
5.33041e-06
6.07644e-06
3.78083e-06
1.91809e-06
4.38928e-07
2.12297e-07
6.02477e-08
2.15423e-08
2.09605e-08
2.08773e-08
2.44771e-08
2.0569e-08
2.04775e-08
2.0515e-08
1.06592e-06
1.50671e-06
6.93646e-07
9.65704e-09
6.27903e-09
1
1
1
1
1
1
1
1
1
1
1
1
1
1
1
1
1
1
1
1
1
1
1
1
1
1
1
1
1
1
1
1
1
1
1
1
1
1
1
1
1
1
0.998054
0.739657
0.137212
7.18031e-05
7.1693e-05
7.16597e-05
7.16183e-05
7.15121e-05
0.000195795
0.00172108
0.000577657
8.66163e-05
7.84018e-07
3.56448e-08
1.66635e-07
2.22727e-06
2.22914e-06
2.23008e-06
2.23112e-06
3.09197e-07
1.22335e-06
3.35609e-06
8.84748e-06
8.50304e-06
3.76892e-06
7.35404e-07
7.3459e-07
7.35421e-07
8.60505e-07
9.76495e-06
2.02528e-05
2.02703e-05
2.0298e-05
9.17114e-06
4.01894e-08
2.96134e-08
2.82632e-08
2.87119e-08
2.58187e-08
2.56848e-08
2.55913e-08
2.55861e-08
2.55912e-08
2.55684e-08
2.42454e-08
2.25055e-08
2.1212e-08
2.10843e-08
2.62247e-08
2.95033e-08
2.08039e-08
2.04728e-08
5.9535e-07
1.7064e-06
1.29428e-06
9.14188e-08
6.248e-09
6.19897e-09
1
1
1
1
1
1
1
1
1
1
1
1
1
1
1
1
1
1
1
1
1
1
1
1
1
1
1
1
1
1
1
1
1
1
1
1
1
1
1
1
1
0.999872
0.768789
0.152385
4.71447e-05
6.82231e-05
7.17125e-05
7.17179e-05
7.15214e-05
7.12405e-05
0.00094778
0.00172108
0.0012005
0.000494317
3.56446e-08
3.5642e-08
4.34123e-07
2.22363e-06
2.22913e-06
2.22817e-06
2.23244e-06
4.80798e-07
1.45154e-07
1.42807e-07
1.53702e-07
2.42509e-07
6.15432e-07
7.35517e-07
7.35518e-07
2.37357e-06
1.4785e-05
2.02305e-05
2.02663e-05
2.02953e-05
2.03762e-05
2.04312e-05
3.91298e-07
2.9413e-08
2.63974e-08
2.58345e-08
2.57236e-08
2.56695e-08
2.56278e-08
2.55927e-08
2.55914e-08
3.80811e-08
2.39871e-08
2.1534e-08
2.12452e-08
2.12028e-08
3.18317e-08
2.84528e-08
2.10278e-08
8.87639e-08
1.71087e-06
1.70015e-06
3.52705e-07
1.92864e-07
1.15256e-07
6.14934e-09
1
1
1
1
1
1
1
1
1
1
1
1
1
1
1
1
1
1
1
1
1
1
1
1
1
1
1
1
1
1
1
1
1
1
1
1
1
1
1
1
0.99999
0.806563
0.165927
1.11542e-06
3.78372e-05
0.000112609
8.20783e-05
7.16492e-05
7.141e-05
7.12156e-05
0.000664432
0.00166729
0.000701251
0.000502408
5.84016e-08
3.56875e-08
8.42477e-08
1.29751e-06
2.23181e-06
2.22862e-06
2.23632e-06
1.99534e-07
1.42866e-07
1.52195e-07
3.14182e-06
1.07842e-05
1.3612e-05
1.35598e-05
1.31039e-05
1.89894e-05
2.01407e-05
2.02207e-05
2.02315e-05
2.02634e-05
2.02954e-05
2.03718e-05
1.15112e-05
4.70402e-08
2.9259e-08
2.63642e-08
2.58188e-08
2.57242e-08
2.56767e-08
2.56506e-08
3.66096e-08
5.8485e-08
5.83832e-08
3.06011e-08
3.25732e-08
3.22121e-08
2.58979e-08
2.1235e-08
2.11858e-08
1.6238e-06
1.71085e-06
7.86729e-07
2.84803e-07
2.93209e-07
1.88726e-07
6.14842e-09
1
1
1
1
1
1
1
1
1
1
1
1
1
1
1
1
1
1
1
1
1
1
1
1
1
1
1
1
1
1
1
1
1
1
1
1
1
1
1
0.999986
0.828052
0.192254
1.12726e-06
1.06608e-06
3.29702e-05
0.000180833
0.00010361
7.17847e-05
7.16486e-05
0.00050613
0.000914648
0.00128006
0.000160876
7.39561e-06
5.88523e-06
2.55644e-07
8.0874e-09
8.03592e-09
9.38895e-07
1.23297e-06
6.27122e-07
1.3976e-07
3.24154e-07
7.55574e-06
1.96173e-05
1.9617e-05
1.96193e-05
1.96204e-05
1.9618e-05
1.95885e-05
1.94767e-05
1.72251e-05
1.74373e-05
2.01736e-05
2.02487e-05
2.02725e-05
2.01324e-05
2.52101e-06
4.55023e-08
2.91017e-08
2.62885e-08
2.58155e-08
2.57386e-08
2.58212e-08
4.04381e-08
5.82678e-08
5.83011e-08
5.81187e-08
3.44956e-08
2.72482e-08
2.50644e-08
2.18166e-08
8.79325e-07
1.68794e-06
1.13195e-06
2.61479e-07
2.96398e-07
2.93814e-07
3.61799e-08
6.15237e-09
1
1
1
1
1
1
1
1
1
1
1
1
1
1
1
1
1
1
1
1
1
1
1
1
1
1
1
1
1
1
1
1
1
1
1
1
1
0.999999
0.999972
0.834028
0.226082
3.16663e-06
2.43798e-06
9.46638e-07
9.6663e-07
0.000179104
0.000109
7.23272e-05
7.19381e-05
0.00371133
0.00336427
0.00252997
0.00012268
2.73213e-05
3.88388e-05
4.25688e-06
8.09384e-09
8.01932e-09
8.01581e-09
8.01594e-09
8.02961e-09
6.74611e-08
9.87434e-07
1.87565e-05
1.96146e-05
1.96165e-05
1.9617e-05
1.96175e-05
1.95908e-05
1.1624e-05
1.57749e-06
8.6927e-09
8.97561e-09
4.35029e-06
1.46698e-05
2.01452e-05
1.98322e-05
1.67322e-05
4.44698e-07
4.27237e-08
2.72828e-08
2.6144e-08
2.58769e-08
2.63115e-08
2.76806e-08
2.85308e-08
3.09135e-08
2.94416e-08
2.93423e-08
2.76599e-08
2.69211e-08
5.3633e-07
1.2476e-06
1.02499e-06
3.82415e-08
1.93849e-07
2.93812e-07
1.48989e-07
6.60825e-09
6.2014e-09
1
1
1
1
1
1
1
1
1
1
1
1
1
1
1
1
1
1
1
1
1
1
1
1
1
1
1
1
1
1
1
1
1
1
1
1
0.999997
0.999209
0.796453
0.29853
0.00221444
9.08676e-06
1.32457e-06
8.34071e-07
9.15297e-07
0.000132993
0.000246592
7.36868e-05
8.79071e-05
0.0044627
0.00408058
0.00366067
0.000210635
3.23489e-05
4.08511e-05
8.15659e-06
8.06779e-09
8.01562e-09
8.01567e-09
8.01646e-09
8.03694e-09
8.21422e-09
1.8484e-07
7.867e-06
1.96057e-05
1.96144e-05
1.96099e-05
1.84395e-05
4.13818e-06
8.66061e-09
8.66061e-09
8.66142e-09
8.67667e-09
8.9439e-09
1.53068e-08
8.20214e-06
1.95355e-05
1.88085e-05
1.18041e-05
4.88293e-07
4.48328e-08
2.76142e-08
2.62681e-08
5.35271e-08
8.09091e-08
2.85381e-08
2.87942e-08
2.9014e-08
2.92772e-08
2.93335e-08
7.04514e-07
1.24763e-06
1.24183e-06
3.22875e-08
1.62399e-08
5.72936e-08
1.66161e-07
7.26604e-09
7.07837e-09
6.69123e-09
1
1
1
1
1
1
1
1
1
1
1
1
0.999998
0.999996
0.99881
0.999927
1
1
1
1
1
1
1
1
1
1
1
1
1
1
1
1
1
1
1
0.999994
0.997291
0.776749
0.328717
0.00530828
1.32614e-06
7.783e-07
7.78523e-07
7.76682e-07
8.33813e-07
8.95215e-05
0.000246679
7.67523e-05
0.000952513
0.00458656
0.00355994
0.00170151
9.81411e-05
1.67789e-05
2.19579e-05
6.52455e-06
8.01539e-09
8.01601e-09
8.01978e-09
8.02257e-09
8.03181e-09
8.07791e-09
8.36515e-09
1.47177e-08
1.08113e-05
1.95946e-05
1.68953e-05
1.30781e-06
8.66262e-09
8.66067e-09
8.66345e-09
8.67956e-09
8.71255e-09
8.77074e-09
9.11824e-09
1.52815e-08
4.44948e-06
1.77434e-05
1.74207e-05
1.0839e-05
1.08534e-06
4.60163e-08
2.96986e-08
1.19002e-07
2.07486e-07
1.40298e-07
2.91245e-08
1.83869e-07
7.68059e-07
1.04097e-06
1.14213e-06
1.1752e-06
2.52804e-07
1.60789e-08
1.58595e-08
1.49986e-08
1.30277e-08
7.21974e-09
7.17675e-09
7.85943e-09
1
1
1
1
1
1
1
1
1
1
1
1
0.999042
0.983709
0.966163
0.997078
1
1
1
1
1
1
1
1
1
1
1
1
1
1
1
1
1
1
0.999989
0.999859
0.748335
0.390388
0.0124422
2.30239e-06
7.76544e-07
7.65225e-07
7.73174e-07
7.76587e-07
8.3201e-07
0.000212771
0.000240214
8.22955e-05
0.00250155
0.00463444
0.004597
0.00156335
4.80932e-05
4.52188e-06
8.71511e-07
7.3683e-07
9.98674e-09
8.0222e-09
8.03407e-09
8.03996e-09
8.04742e-09
8.05467e-09
8.09449e-09
8.16373e-09
1.59523e-07
3.59527e-06
1.52133e-06
8.66676e-09
8.66258e-09
8.73648e-09
8.88187e-09
9.10975e-09
8.79706e-09
8.98471e-09
9.12499e-09
9.52846e-09
1.55618e-08
2.74206e-06
1.54446e-05
1.54012e-05
1.08966e-05
1.62766e-06
5.42883e-08
1.01449e-07
2.04752e-07
6.09833e-07
7.52836e-07
9.65825e-07
1.10155e-06
1.10159e-06
1.1004e-06
2.28155e-07
1.60842e-08
1.58465e-08
1.5939e-08
1.59621e-08
1.90513e-07
1.20812e-08
7.24258e-09
1.47232e-08
1
1
1
1
1
1
1
1
1
1
1
0.999998
0.989237
0.956525
0.956537
0.992524
1
1
1
1
1
1
1
1
1
1
1
1
1
1
1
1
1
0.999995
0.999748
0.718657
0.295616
0.04125
8.05243e-06
8.42138e-07
7.2611e-07
7.60696e-07
7.68907e-07
7.73234e-07
5.34436e-05
0.000255181
9.45854e-05
8.84284e-05
0.00290401
0.00465077
0.00440963
0.000579863
0.00052337
0.000268906
1.80946e-06
8.06504e-09
8.04186e-09
8.04145e-09
8.05152e-09
8.0631e-09
8.06189e-09
8.06962e-09
8.07179e-09
8.08162e-09
8.10115e-09
8.17795e-09
8.42702e-09
8.67706e-09
8.69741e-09
8.75601e-09
1.07325e-08
1.3933e-08
1.14404e-08
9.49438e-09
9.54717e-09
9.81832e-09
1.04387e-08
1.62296e-08
1.11929e-06
1.07539e-05
1.13607e-05
1.1225e-05
3.12465e-06
4.9266e-07
2.86544e-07
1.33228e-06
1.53168e-06
1.53169e-06
5.02005e-07
5.40518e-07
1.13227e-07
5.10474e-08
2.8217e-08
1.60607e-08
2.39357e-06
1.43613e-06
8.91938e-09
9.48157e-09
1.27105e-08
1.27749e-08
1
1
0.999994
0.999998
1
1
1
1
1
1
1
0.999385
0.980675
0.980541
0.956525
0.990616
1
1
1
1
1
1
1
1
1
1
1
1
1
1
1
1
0.999997
0.999868
0.703319
0.129932
0.000102443
9.27759e-06
1.20096e-06
7.13835e-07
6.73934e-07
7.61139e-07
7.02762e-06
7.78595e-07
5.45922e-05
0.00118965
0.000635624
9.05042e-05
0.00375325
0.00465077
0.00431252
0.000470045
0.000581346
0.000550648
8.06173e-09
8.06497e-09
8.0527e-09
8.05516e-09
8.07056e-09
8.09283e-09
8.10313e-09
8.13186e-09
8.11339e-09
8.19608e-09
8.24018e-09
8.47638e-09
8.94131e-09
8.98123e-09
8.82146e-09
8.84794e-09
1.0649e-08
1.39528e-08
1.39729e-08
9.93492e-09
1.04436e-08
1.05461e-08
1.32344e-08
1.78244e-08
2.67829e-08
6.59929e-08
7.79225e-06
1.0794e-05
1.0091e-05
7.53076e-06
2.77482e-06
1.84158e-06
1.00389e-06
6.17448e-07
2.12235e-07
1.9762e-07
1.3932e-07
7.35676e-08
1.14321e-05
2.04678e-05
1.95992e-05
3.38139e-06
7.4472e-09
7.17405e-09
6.89882e-09
6.5388e-09
1
0.999996
0.999992
0.999994
1
1
1
1
1
1
0.999988
0.997314
0.995973
0.997063
0.956562
0.987485
1
1
1
1
1
1
1
1
1
1
1
1
1
1
1
0.999998
0.999933
0.779652
0.0736692
7.58628e-05
9.33079e-06
1.4813e-06
1.01731e-06
9.27504e-07
6.59908e-07
8.27686e-07
1.04754e-05
3.47799e-06
0.000940904
0.00118965
0.000904354
7.7105e-05
0.0037954
0.00465077
0.00423122
0.000339485
0.000581941
0.000572686
8.08589e-09
8.07293e-09
8.10648e-09
8.12189e-09
8.0938e-09
8.10771e-09
8.17728e-09
8.16323e-09
8.21205e-09
8.55221e-09
9.87797e-09
1.71206e-07
3.78285e-07
1.61563e-07
1.00375e-08
9.04882e-09
1.27359e-08
1.37439e-08
1.16286e-08
1.01036e-08
1.71623e-08
5.08672e-08
1.73807e-08
2.68008e-08
7.20544e-08
1.44821e-07
1.85702e-07
4.4167e-06
7.76533e-06
7.90629e-06
7.90632e-06
4.91775e-07
2.44877e-07
2.47012e-07
2.26388e-07
2.11879e-07
1.12126e-05
2.01618e-05
2.19357e-05
2.15414e-05
1.73e-05
7.75704e-09
7.5536e-09
7.346e-09
7.07176e-09
6.68742e-09
1
0.999992
0.999992
0.999998
1
1
1
1
1
1
0.999774
0.998089
0.998967
0.997159
0.973404
0.970038
1
1
1
1
1
1
1
1
1
1
1
1
1
1
0.999999
0.999968
0.886013
0.0998001
8.08455e-05
1.92281e-05
1.51329e-05
1.48111e-05
1.47897e-05
7.67271e-06
6.43837e-07
6.55341e-07
2.83293e-06
0.00024918
0.0011816
0.00118965
0.000509032
5.94769e-05
0.00360578
0.0046436
0.00328767
0.000176223
0.000581346
0.000315013
8.53406e-09
8.116e-09
8.30653e-09
8.55819e-09
8.20636e-09
8.13622e-09
8.20217e-09
8.31208e-09
8.96525e-09
1.31263e-07
2.0634e-06
4.73829e-06
5.72145e-06
4.37402e-06
1.10215e-06
1.09614e-08
1.34562e-08
1.08829e-08
1.0814e-08
1.04696e-08
1.12927e-08
1.99011e-07
4.43399e-07
7.70056e-08
1.98137e-07
1.85726e-07
1.50952e-07
1.17938e-07
6.55932e-08
1.44545e-06
1.00846e-07
1.81602e-07
1.80179e-07
8.09696e-07
1.18994e-05
2.19996e-05
2.22946e-05
2.21702e-05
2.20464e-05
1.84644e-05
1.04494e-06
8.63085e-09
7.79644e-09
7.54925e-09
4.33833e-07
3.08187e-06
1
0.999996
0.999992
1
1
1
1
1
1
1
0.999899
0.999076
0.998978
0.998834
0.998565
0.969976
0.999836
1
1
1
1
1
1
1
1
1
1
1
1
1
0.999986
0.970748
0.187032
9.00004e-05
3.39425e-05
3.92199e-05
6.32436e-05
8.19823e-05
3.13712e-05
9.18772e-07
6.41996e-07
6.41813e-07
6.55158e-07
0.000185015
0.000652184
0.000801269
0.000197248
5.27628e-05
0.00268157
0.00462491
0.00158151
0.000117329
0.000580399
0.000157312
1.70668e-08
8.59636e-09
5.64588e-08
8.33568e-07
9.79257e-09
8.6439e-09
8.41455e-09
9.67245e-09
5.2001e-07
4.27182e-06
6.32229e-06
6.32154e-06
6.32191e-06
6.32177e-06
6.31912e-06
1.23008e-06
1.12097e-08
1.09001e-08
1.10247e-08
1.1269e-08
1.53194e-08
3.04705e-08
3.37557e-06
9.6954e-06
1.18781e-05
4.39168e-06
1.64564e-07
6.56253e-08
4.47768e-08
4.06661e-08
3.82264e-08
3.8554e-08
5.6151e-08
1.48245e-06
1.93312e-05
2.22973e-05
2.23061e-05
2.23049e-05
1.19542e-05
7.85899e-07
1.65176e-08
1.47703e-08
8.68672e-09
1.345e-07
3.34051e-06
3.58048e-06
1
0.999999
0.999999
1
1
1
1
1
1
1
0.999873
0.99919
0.999707
0.997715
0.974645
0.970123
0.997803
1
1
1
1
1
1
1
1
1
1
1
1
0.999995
0.998007
0.389817
9.01533e-05
2.77792e-05
3.1962e-05
4.15183e-05
0.000101925
9.06001e-05
4.35445e-06
6.42002e-07
6.41825e-07
6.41269e-07
6.73608e-07
6.76732e-07
1.05963e-06
8.85819e-06
4.08634e-05
5.15689e-05
0.00202615
0.00331393
6.63389e-05
2.98157e-05
0.000547541
0.000349263
8.6501e-06
3.6035e-07
7.61676e-06
1.37681e-05
5.77732e-06
1.74593e-07
9.96242e-09
8.36914e-07
5.29446e-06
6.3205e-06
6.32154e-06
6.31995e-06
6.31979e-06
6.31407e-06
6.28218e-06
3.24472e-06
1.12709e-08
1.19158e-08
8.66268e-08
1.05561e-07
2.61351e-08
4.45749e-08
5.5699e-06
2.17911e-05
2.17829e-05
2.19521e-05
1.13901e-05
2.97725e-06
6.1282e-08
3.7913e-08
3.6339e-08
3.39314e-08
3.79074e-08
9.47368e-07
4.49165e-06
9.92833e-06
1.13057e-05
6.01151e-06
1.84644e-07
3.28229e-08
2.46515e-08
1.64687e-08
1.73941e-07
3.30979e-06
3.60174e-06
3.60032e-06
0.999978
1
1
1
1
0.999999
0.999987
1
1
1
0.999791
0.998477
0.999714
0.997279
0.963804
0.970485
1
1
1
1
1
1
1
1
1
1
1
1
0.999998
0.999926
0.665939
0.000316087
2.74323e-05
1.2e-05
2.95286e-05
9.92992e-05
0.000102143
3.87189e-05
6.42447e-07
6.41957e-07
6.41547e-07
6.41221e-07
6.41601e-07
6.6858e-07
2.47405e-06
7.45354e-05
5.20025e-05
5.27628e-05
0.00186734
0.0011732
2.82808e-06
2.42901e-06
0.000114077
0.000435237
3.24529e-05
3.68908e-06
1.57613e-05
1.57585e-05
1.57276e-05
5.70407e-07
4.88208e-08
3.76212e-06
6.31794e-06
6.31973e-06
6.3198e-06
6.31763e-06
6.30337e-06
4.81958e-06
1.41168e-06
1.30123e-08
4.38734e-08
1.35828e-07
3.28555e-07
3.27932e-07
1.61211e-07
8.16759e-08
2.64816e-06
1.92085e-05
2.18911e-05
2.19267e-05
2.18911e-05
2.18355e-05
8.65984e-06
1.44804e-06
3.38677e-08
3.35208e-08
3.74506e-08
6.27983e-08
3.86191e-08
6.34178e-08
3.2778e-07
8.29694e-07
2.32122e-06
2.44649e-06
1.8294e-06
2.1779e-06
3.3652e-06
3.59994e-06
3.60173e-06
7.24081e-07
0.808908
0.955814
1
1
1
0.999999
0.999984
0.999999
1
1
0.999857
0.998477
0.999738
0.998576
0.963804
0.967148
1
1
1
1
1
1
1
1
1
1
1
1
0.999982
0.926253
0.0501226
3.29008e-05
6.59416e-06
4.34034e-06
5.00575e-05
0.000102765
0.000102507
5.82181e-05
6.41925e-07
6.41531e-07
6.41017e-07
6.40667e-07
6.39933e-07
2.15784e-06
0.000121701
0.00555525
0.00040983
6.97912e-05
0.00190139
0.000825906
2.0329e-06
1.96085e-06
9.79395e-05
0.000438403
1.80189e-05
6.75035e-06
1.57569e-05
1.57529e-05
1.03004e-05
1.23656e-07
1.02635e-07
4.12731e-06
6.31475e-06
6.31765e-06
6.31437e-06
4.07303e-06
5.22234e-07
9.51749e-09
9.5224e-09
9.84947e-09
9.91457e-08
3.29607e-07
3.29172e-07
3.28477e-07
3.27026e-07
8.58067e-08
1.12469e-08
1.55638e-06
1.85838e-05
2.18912e-05
2.18355e-05
2.1766e-05
2.171e-05
1.6929e-05
3.35172e-08
3.35165e-08
3.35069e-08
3.35421e-08
3.40535e-08
3.8557e-08
1.5719e-07
2.97651e-06
3.94551e-06
3.97927e-06
3.94554e-06
3.88652e-06
3.8462e-06
3.11521e-06
8.95142e-07
5.75691e-07
0.0657209
0.180676
0.661457
0.979672
1
0.999171
0.999998
0.999999
1
1
0.999392
0.998477
0.999792
0.996877
0.963804
0.969769
1
1
1
1
1
1
1
1
1
1
1
0.999996
0.994475
0.298624
5.64971e-05
6.52908e-06
3.75084e-06
4.22375e-06
0.000102595
0.000102765
0.000102765
5.99125e-05
6.41744e-07
6.41175e-07
6.40963e-07
6.39855e-07
6.39829e-07
9.93918e-07
0.001219
0.00972249
0.0059974
0.000555417
0.00165871
0.000242938
1.95467e-06
1.94865e-06
0.000331599
0.000438402
1.00963e-05
8.99577e-06
1.57535e-05
1.14642e-05
4.11685e-08
4.11481e-08
4.18737e-08
7.40967e-07
4.66614e-06
6.18469e-06
2.37251e-06
9.50252e-09
9.50321e-09