/*--------------------------------*- C++ -*----------------------------------*\
| =========                 |                                                 |
| \\      /  F ield         | OpenFOAM: The Open Source CFD Toolbox           |
|  \\    /   O peration     | Version:  2.4.0                                 |
|   \\  /    A nd           | Web:      www.OpenFOAM.org                      |
|    \\/     M anipulation  |                                                 |
\*---------------------------------------------------------------------------*/
FoamFile
{
    version     2.0;
    format      ascii;
    class       surfaceScalarField;
    location    "0.43";
    object      phi;
}
// * * * * * * * * * * * * * * * * * * * * * * * * * * * * * * * * * * * * * //

dimensions      [0 3 -1 0 0 0 0];

internalField   nonuniform List<scalar> 
19800
(
1.48819e-14
-1.48819e-14
-3.00759e-14
4.49921e-14
-1.49137e-13
1.19068e-13
-3.3162e-13
1.82502e-13
-5.60618e-13
2.29002e-13
-8.19672e-13
2.59031e-13
-1.09481e-12
2.75116e-13
-1.37504e-12
2.80232e-13
-1.65219e-12
2.77164e-13
-1.92048e-12
2.68293e-13
-2.17606e-12
2.55577e-13
-2.41667e-12
2.40605e-13
-2.64135e-12
2.24682e-13
-2.85027e-12
2.08927e-13
-3.04463e-12
1.94363e-13
-3.2266e-12
1.81973e-13
-3.39933e-12
1.72735e-13
-3.56695e-12
1.67612e-13
-3.73447e-12
1.6752e-13
-3.90772e-12
1.7326e-13
-4.09319e-12
1.85472e-13
-4.29778e-12
2.04595e-13
-4.52865e-12
2.30871e-13
-4.793e-12
2.6435e-13
-5.09788e-12
3.04871e-13
-5.44989e-12
3.52008e-13
-5.8548e-12
4.04914e-13
-6.31687e-12
4.62068e-13
-6.83778e-12
5.20921e-13
-7.41533e-12
5.77563e-13
-8.04198e-12
6.26674e-13
-8.70406e-12
6.62098e-13
-9.38217e-12
6.78116e-13
-1.00535e-11
6.71315e-13
-1.06963e-11
6.42789e-13
-1.12954e-11
5.99128e-13
-1.1846e-11
5.50622e-13
-1.23518e-11
5.05802e-13
-1.28201e-11
4.68247e-13
-1.32567e-11
4.36597e-13
-1.36635e-11
4.0684e-13
-1.40381e-11
3.74605e-13
-1.43748e-11
3.36642e-13
-1.46661e-11
2.91345e-13
-1.49048e-11
2.38678e-13
-1.50846e-11
1.79845e-13
-1.52014e-11
1.16824e-13
-1.52533e-11
5.18923e-14
-1.52406e-11
-1.27451e-14
-7.51426e-14
-1.51654e-11
-4.59193e-14
3.09686e-14
-2.36942e-13
2.35957e-13
-5.85179e-13
4.67241e-13
-1.06954e-12
6.66844e-13
-1.65746e-12
8.16962e-13
-2.31489e-12
9.1649e-13
-3.01105e-12
9.71283e-13
-3.72045e-12
9.89604e-13
-4.42318e-12
9.79874e-13
-5.1046e-12
9.49707e-13
-5.75465e-12
9.05646e-13
-6.36726e-12
8.53226e-13
-6.93974e-12
7.97164e-13
-7.47241e-12
7.41597e-13
-7.96835e-12
6.9031e-13
-8.43328e-12
6.4691e-13
-8.87547e-12
6.14921e-13
-9.30562e-12
5.97763e-13
-9.73671e-12
5.9862e-13
-1.01837e-11
6.2024e-13
-1.0663e-11
6.64748e-13
-1.11919e-11
7.33535e-13
-1.17883e-11
8.27254e-13
-1.24698e-11
9.45848e-13
-1.32534e-11
1.08852e-12
-1.4155e-11
1.25356e-12
-1.51879e-11
1.43786e-12
-1.63619e-11
1.63611e-12
-1.76807e-11
1.83966e-12
-1.91385e-11
2.03547e-12
-2.07178e-11
2.20595e-12
-2.23864e-11
2.33074e-12
-2.40992e-11
2.39085e-12
-2.58026e-11
2.37473e-12
-2.74455e-11
2.28568e-12
-2.89916e-11
2.14527e-12
-3.04285e-11
1.98748e-12
-3.1763e-11
1.8403e-12
-3.30099e-11
1.71522e-12
-3.41808e-11
1.60745e-12
-3.52776e-11
1.50366e-12
-3.62925e-11
1.38946e-12
-3.721e-11
1.2542e-12
-3.80113e-11
1.09267e-12
-3.86776e-11
9.04933e-13
-3.91928e-11
6.95069e-13
-3.95457e-11
4.69709e-13
-3.97303e-11
2.36582e-13
-3.97463e-11
3.26973e-15
-2.23546e-13
-3.95979e-11
-1.21094e-13
1.52069e-13
-4.69843e-13
5.84732e-13
-1.02694e-12
1.02433e-12
-1.75906e-12
1.39893e-12
-2.62413e-12
1.68201e-12
-3.5786e-12
1.87098e-12
-4.58242e-12
1.97512e-12
-5.60153e-12
2.00871e-12
-6.6087e-12
1.98703e-12
-7.58347e-12
1.92447e-12
-8.51162e-12
1.8338e-12
-9.3845e-12
1.72611e-12
-1.01984e-11
1.61103e-12
-1.09539e-11
1.49713e-12
-1.16559e-11
1.3923e-12
-1.2313e-11
1.30403e-12
-1.29377e-11
1.23961e-12
-1.3546e-11
1.20606e-12
-1.41572e-11
1.20984e-12
-1.47934e-11
1.25646e-12
-1.54787e-11
1.35003e-12
-1.62382e-11
1.49308e-12
-1.70975e-11
1.68655e-12
-1.80816e-11
1.92994e-12
-1.92144e-11
2.22132e-12
-2.0518e-11
2.55712e-12
-2.20114e-11
2.93129e-12
-2.37091e-11
3.3338e-12
-2.56176e-11
3.74826e-12
-2.77316e-11
4.14949e-12
-3.00283e-11
4.5026e-12
-3.24638e-11
4.76625e-12
-3.49734e-11
4.90047e-12
-3.74777e-11
4.87902e-12
-3.98981e-11
4.70608e-12
-4.21786e-11
4.42584e-12
-4.43027e-11
4.11153e-12
-4.62845e-11
3.82209e-12
-4.81487e-11
3.57944e-12
-4.9912e-11
3.37074e-12
-5.15751e-11
3.16677e-12
-5.31234e-11
2.93777e-12
-5.45318e-11
2.6626e-12
-5.57707e-11
2.33157e-12
-5.68113e-11
1.94557e-12
-5.76296e-11
1.51333e-12
-5.82083e-11
1.04843e-12
-5.85382e-11
5.66523e-13
-5.86179e-11
8.29999e-14
-3.88779e-13
-5.84527e-11
-1.84312e-13
3.36356e-13
-6.65435e-13
1.06588e-12
-1.39079e-12
1.74972e-12
-2.3108e-12
2.31893e-12
-3.37445e-12
2.74564e-12
-4.53195e-12
3.02847e-12
-5.73806e-12
3.18124e-12
-6.95417e-12
3.22482e-12
-8.1492e-12
3.18206e-12
-9.29968e-12
3.07495e-12
-1.03893e-11
2.92344e-12
-1.14084e-11
2.74517e-12
-1.2353e-11
2.5557e-12
-1.32249e-11
2.36896e-12
-1.40304e-11
2.19784e-12
-1.4781e-11
2.05459e-12
-1.54925e-11
1.95114e-12
-1.61854e-11
1.89898e-12
-1.68843e-11
1.90866e-12
-1.76168e-11
1.989e-12
-1.84131e-11
2.14631e-12
-1.93041e-11
2.38411e-12
-2.03208e-11
2.70321e-12
-2.14929e-11
3.10204e-12
-2.28486e-11
3.57704e-12
-2.4414e-11
4.12255e-12
-2.62126e-11
4.72993e-12
-2.8264e-11
5.38516e-12
-3.05805e-11
6.06482e-12
-3.31618e-11
6.73076e-12
-3.59862e-11
7.32705e-12
-3.90039e-11
7.78391e-12
-4.21331e-11
8.02967e-12
-4.52652e-11
8.01115e-12
-4.82866e-11
7.72748e-12
-5.11158e-11
7.255e-12
-5.37374e-11
6.73314e-12
-5.61844e-11
6.26908e-12
-5.85009e-11
5.89591e-12
-6.0712e-11
5.58194e-12
-6.28164e-11
5.27113e-12
-6.47901e-11
4.91146e-12
-6.65963e-11
4.46887e-12
-6.81944e-11
3.92967e-12
-6.95463e-11
3.29746e-12
-7.0621e-11
2.58804e-12
-7.13969e-11
1.82436e-12
-7.18626e-11
1.03223e-12
-7.20165e-11
2.36842e-13
-5.40109e-13
-7.18651e-11
-2.27607e-13
5.63942e-13
-8.00488e-13
1.63874e-12
-1.63936e-12
2.58862e-12
-2.67916e-12
3.35876e-12
-3.86039e-12
3.92686e-12
-5.12848e-12
4.29654e-12
-6.43517e-12
4.48792e-12
-7.73981e-12
4.52946e-12
-9.00993e-12
4.45218e-12
-1.02213e-11
4.28628e-12
-1.13573e-11
4.05951e-12
-1.24088e-11
3.79668e-12
-1.3373e-11
3.51985e-12
-1.42529e-11
3.24885e-12
-1.50571e-11
3.00202e-12
-1.57994e-11
2.7969e-12
-1.64989e-11
2.65062e-12
-1.71797e-11
2.57982e-12
-1.78708e-11
2.5998e-12
-1.8605e-11
2.72312e-12
-1.94169e-11
2.9583e-12
-2.03421e-11
3.30927e-12
-2.14147e-11
3.77578e-12
-2.26668e-11
4.3542e-12
-2.41283e-11
5.03849e-12
-2.58266e-11
5.8209e-12
-2.77881e-11
6.69141e-12
-3.00378e-11
7.63488e-12
-3.25977e-11
8.6247e-12
-3.54791e-11
9.61217e-12
-3.867e-11
1.0518e-11
-4.21216e-11
1.12355e-11
-4.57376e-11
1.16456e-11
-4.93714e-11
1.16449e-11
-5.28553e-11
1.12114e-11
-5.60661e-11
1.04658e-11
-5.89994e-11
9.66646e-12
-6.17284e-11
8.99804e-12
-6.43334e-11
8.50088e-12
-6.68525e-11
8.10109e-12
-6.92786e-11
7.69726e-12
-7.15735e-11
7.20639e-12
-7.36852e-11
6.58058e-12
-7.55605e-11
5.80491e-12
-7.71525e-11
4.88948e-12
-7.8425e-11
3.86059e-12
-7.9354e-11
2.7533e-12
-7.99275e-11
1.60577e-12
-8.01454e-11
4.54696e-13
-6.68539e-13
-8.00169e-11
-2.50114e-13
8.14073e-13
-8.69547e-13
2.25815e-12
-1.76154e-12
3.48061e-12
-2.84916e-12
4.4464e-12
-4.06606e-12
5.14377e-12
-5.35405e-12
5.58453e-12
-6.66326e-12
5.79711e-12
-7.95255e-12
5.81874e-12
-9.18976e-12
5.68939e-12
-1.03515e-11
5.44805e-12
-1.14228e-11
5.13077e-12
-1.23961e-11
4.77e-12
-1.32709e-11
4.3946e-12
-1.40525e-11
4.03047e-12
-1.4752e-11
3.70151e-12
-1.53858e-11
3.43063e-12
-1.59756e-11
3.24047e-12
-1.65492e-11
3.15337e-12
-1.71395e-11
3.19009e-12
-1.77837e-11
3.3674e-12
-1.85212e-11
3.69577e-12
-1.93905e-11
4.17855e-12
-2.04275e-11
4.81279e-12
-2.16642e-11
5.5909e-12
-2.31284e-11
6.50269e-12
-2.48453e-11
7.5378e-12
-2.68406e-11
8.68672e-12
-2.9144e-11
9.93836e-12
-3.17909e-11
1.12716e-11
-3.48136e-11
1.26349e-11
-3.8222e-11
1.39264e-11
-4.19811e-11
1.49945e-11
-4.59867e-11
1.56513e-11
-5.00419e-11
1.57001e-11
-5.38887e-11
1.50582e-11
-5.7326e-11
1.39031e-11
-6.03799e-11
1.27204e-11
-6.32033e-11
1.18215e-11
-6.59402e-11
1.12377e-11
-6.86428e-11
1.08038e-11
-7.12884e-11
1.03428e-11
-7.38139e-11
9.73198e-12
-7.61465e-11
8.91318e-12
-7.82191e-11
7.87744e-12
-7.99774e-11
6.64783e-12
-8.13826e-11
5.26573e-12
-8.24105e-11
3.78125e-12
-8.30516e-11
2.24683e-12
-8.3309e-11
7.12131e-13
-7.80597e-13
-8.31969e-11
-2.53482e-13
1.06758e-12
-8.75529e-13
2.8802e-12
-1.76084e-12
4.3659e-12
-2.82545e-12
5.511e-12
-3.99849e-12
6.31681e-12
-5.21958e-12
6.80562e-12
-6.43827e-12
7.0158e-12
-7.61403e-12
6.9945e-12
-8.71619e-12
6.79155e-12
-9.72359e-12
6.45545e-12
-1.0624e-11
6.03118e-12
-1.14132e-11
5.55919e-12
-1.2094e-11
5.07534e-12
-1.2675e-11
4.61152e-12
-1.31704e-11
4.19685e-12
-1.35991e-11
3.85932e-12
-1.39856e-11
3.62704e-12
-1.43608e-11
3.52857e-12
-1.47619e-11
3.59113e-12
-1.52309e-11
3.83648e-12
-1.58119e-11
4.27669e-12
-1.65462e-11
4.9129e-12
-1.74703e-11
5.73691e-12
-1.86132e-11
6.73384e-12
-1.99963e-11
7.88578e-12
-2.1636e-11
9.17753e-12
-2.35506e-11
1.06013e-11
-2.577e-11
1.21577e-11
-2.83454e-11
1.38471e-11
-3.13426e-11
1.5632e-11
-3.48112e-11
1.7395e-11
-3.87529e-11
1.89363e-11
-4.30778e-11
1.99763e-11
-4.75257e-11
2.01479e-11
-5.16841e-11
1.92166e-11
-5.51935e-11
1.74125e-11
-5.81547e-11
1.56816e-11
-6.08752e-11
1.4542e-11
-6.36045e-11
1.3967e-11
-6.63984e-11
1.35977e-11
-6.91933e-11
1.31377e-11
-7.18834e-11
1.24221e-11
-7.43675e-11
1.13973e-11
-7.6565e-11
1.00749e-11
-7.84179e-11
8.50078e-12
-7.98887e-11
6.73654e-12
-8.09573e-11
4.84977e-12
-8.16188e-11
2.90836e-12
-8.18828e-11
9.76107e-13
-8.92768e-13
-8.17706e-11
-2.40246e-13
1.30784e-12
-8.25245e-13
3.46522e-12
-1.6487e-12
5.18935e-12
-2.62433e-12
6.48662e-12
-3.67947e-12
7.37195e-12
-4.75297e-12
7.87912e-12
-5.79471e-12
8.05754e-12
-6.76553e-12
7.96532e-12
-7.63709e-12
7.6631e-12
-8.3915e-12
7.20985e-12
-9.02056e-12
6.66023e-12
-9.52468e-12
6.0633e-12
-9.91142e-12
5.46207e-12
-1.0194e-11
4.89409e-12
-1.03902e-11
4.39303e-12
-1.05219e-11
3.99105e-12
-1.06162e-11
3.72128e-12
-1.07066e-11
3.61902e-12
-1.08351e-11
3.71961e-12
-1.105e-11
4.05135e-12
-1.1401e-11
4.62777e-12
-1.19337e-11
5.44554e-12
-1.26843e-11
6.48753e-12
-1.36766e-11
7.72624e-12
-1.49198e-11
9.12897e-12
-1.64116e-11
1.06694e-11
-1.81496e-11
1.23393e-11
-2.01514e-11
1.41595e-11
-2.24838e-11
1.61794e-11
-2.52604e-11
1.84086e-11
-2.85944e-11
2.0729e-11
-3.25625e-11
2.29044e-11
-3.71456e-11
2.45593e-11
-4.20215e-11
2.50238e-11
-4.65123e-11
2.37074e-11
-4.99193e-11
2.08195e-11
-5.25221e-11
1.82844e-11
-5.49253e-11
1.69453e-11
-5.75461e-11
1.65877e-11
-6.03984e-11
1.645e-11
-6.33247e-11
1.6064e-11
-6.61479e-11
1.52453e-11
-6.87338e-11
1.39832e-11
-7.09939e-11
1.2335e-11
-7.28744e-11
1.03813e-11
-7.43458e-11
8.20798e-12
-7.53963e-11
5.90031e-12
-7.60293e-11
3.54132e-12
-7.62627e-11
1.20955e-12
-1.02721e-12
-7.61283e-11
-2.1318e-13
1.52101e-12
-7.27153e-13
3.97921e-12
-1.44053e-12
5.90273e-12
-2.2688e-12
7.31488e-12
-3.13991e-12
8.24305e-12
-3.99324e-12
8.73245e-12
-4.77968e-12
8.84398e-12
-5.46189e-12
8.64753e-12
-6.0144e-12
8.21562e-12
-6.42338e-12
7.61882e-12
-6.68583e-12
6.92267e-12
-6.80824e-12
6.1857e-12
-6.80465e-12
5.45846e-12
-6.69434e-12
4.78378e-12
-6.49998e-12
4.19867e-12
-6.24676e-12
3.73784e-12
-5.96362e-12
3.43814e-12
-5.68664e-12
3.34205e-12
-5.4629e-12
3.49587e-12
-5.34921e-12
3.93768e-12
-5.40432e-12
4.68289e-12
-5.67986e-12
5.7211e-12
-6.21414e-12
7.02182e-12
-7.0251e-12
8.53722e-12
-8.10317e-12
1.02071e-11
-9.41324e-12
1.19794e-11
-1.09086e-11
1.38347e-11
-1.25672e-11
1.5818e-11
-1.44624e-11
1.80747e-11
-1.67737e-11
2.07199e-11
-1.97017e-11
2.3657e-11
-2.34488e-11
2.66514e-11
-2.81956e-11
2.93062e-11
-3.36165e-11
3.04447e-11
-3.85876e-11
2.86786e-11
-4.16519e-11
2.38838e-11
-4.35273e-11
2.01598e-11
-4.5381e-11
1.8799e-11
-4.78803e-11
1.9087e-11
-5.08638e-11
1.94335e-11
-5.39788e-11
1.91791e-11
-5.69439e-11
1.82103e-11
-5.95997e-11
1.6639e-11
-6.18679e-11
1.46032e-11
-6.37138e-11
1.22272e-11
-6.51252e-11
9.61941e-12
-6.61032e-11
6.87829e-12
-6.66608e-11
4.09897e-12
-6.68265e-11
1.37524e-12
-1.20849e-12
-6.66452e-11
-1.75082e-13
1.69608e-12
-5.90419e-13
4.39454e-12
-1.15391e-12
6.46622e-12
-1.78589e-12
7.94686e-12
-2.41676e-12
8.87392e-12
-2.9873e-12
9.30298e-12
-3.44967e-12
9.30635e-12
-3.76842e-12
8.96628e-12
-3.9211e-12
8.36829e-12
-3.8984e-12
7.5961e-12
-3.70353e-12
6.72779e-12
-3.35068e-12
5.83285e-12
-2.86244e-12
4.9702e-12
-2.26641e-12
4.18774e-12
-1.59194e-12
3.5242e-12
-8.68194e-13
3.0141e-12
-1.25311e-13
2.69526e-12
5.99648e-13
2.61709e-12
1.25413e-12
2.84139e-12
1.7695e-12
3.42231e-12
2.07338e-12
4.37902e-12
2.10278e-12
5.69171e-12
1.81161e-12
7.313e-12
1.18323e-12
9.16561e-12
2.49774e-13
1.11405e-11
-9.03108e-13
1.31323e-11
-2.14575e-12
1.50773e-11
-3.3593e-12
1.70316e-11
-4.59964e-12
1.9315e-11
-6.13377e-12
2.2254e-11
-8.26409e-12
2.57873e-11
-1.13529e-11
2.97403e-11
-1.60285e-11
3.39818e-11
-2.22017e-11
3.66178e-11
-2.80464e-11
3.45233e-11
-3.03581e-11
2.61956e-11
-3.0972e-11
2.07736e-11
-3.20518e-11
1.98788e-11
-3.46133e-11
2.16485e-11
-3.79737e-11
2.27939e-11
-4.14276e-11
2.2633e-11
-4.45738e-11
2.13565e-11
-4.72719e-11
1.9337e-11
-4.94936e-11
1.68248e-11
-5.12461e-11
1.39797e-11
-5.25445e-11
1.09178e-11
-5.34046e-11
7.73838e-12
-5.38478e-11
4.54225e-12
-5.39124e-11
1.43979e-12
-1.46087e-12
-5.366e-11
-1.28775e-13
1.82485e-12
-4.24706e-13
4.69045e-12
-8.07987e-13
6.8495e-12
-1.2058e-12
8.34467e-12
-1.552e-12
9.22012e-12
-1.78898e-12
9.53995e-12
-1.86988e-12
9.38725e-12
-1.7606e-12
8.85699e-12
-1.44128e-12
8.04896e-12
-9.07125e-13
7.06194e-12
-1.6827e-13
5.98893e-12
7.51771e-13
4.91281e-12
1.81931e-12
3.90267e-12
2.99523e-12
3.01183e-12
4.24044e-12
2.27899e-12
5.52005e-12
1.7345e-12
6.80362e-12
1.4117e-12
8.05632e-12
1.36439e-12
9.22124e-12
1.67647e-12
1.02145e-11
2.42907e-12
1.09441e-11
3.64944e-12
1.13277e-11
5.30812e-12
1.12977e-11
7.343e-12
1.08225e-11
9.64078e-12
9.95151e-12
1.20115e-11
8.83481e-12
1.4249e-11
7.7427e-12
1.61694e-11
7.00794e-12
1.77664e-11
6.64712e-12
1.96758e-11
6.2705e-12
2.26306e-11
5.49729e-12
2.65605e-11
3.81762e-12
3.14199e-11
-2.36052e-13
3.80355e-11
-7.28774e-12
4.36695e-11
-1.48822e-11
4.21177e-11
-1.56379e-11
2.69513e-11
-1.42717e-11
1.94074e-11
-1.44799e-11
2.0087e-11
-1.76919e-11
2.48606e-11
-2.19381e-11
2.70401e-11
-2.59666e-11
2.66614e-11
-2.9319e-11
2.4709e-11
-3.20002e-11
2.20182e-11
-3.41051e-11
1.89298e-11
-3.57084e-11
1.5583e-11
-3.68552e-11
1.20646e-11
-3.75702e-11
8.45348e-12
-3.78754e-11
4.84745e-12
-3.7814e-11
1.37833e-12
-1.80621e-12
-3.74686e-11
-7.71768e-14
1.90203e-12
-2.40297e-13
4.85355e-12
-4.23575e-13
7.03276e-12
-5.61903e-13
8.48299e-12
-5.92692e-13
9.2509e-12
-4.5938e-13
9.40663e-12
-1.15043e-13
9.0429e-12
4.74385e-13
8.26756e-12
1.32744e-12
7.1959e-12
2.4452e-12
5.94417e-12
3.81058e-12
4.62354e-12
5.38941e-12
3.33398e-12
7.13401e-12
2.15808e-12
8.98943e-12
1.15641e-12
1.09017e-11
3.6671e-13
1.2826e-11
-1.89792e-13
1.47313e-11
-4.93573e-13
1.65901e-11
-4.94426e-13
1.83461e-11
-7.95038e-14
1.98992e-11
8.76005e-13
2.11332e-11
2.41539e-12
2.19361e-11
4.50521e-12
2.21934e-11
7.08573e-12
2.18224e-11
1.00118e-11
2.08642e-11
1.29698e-11
1.95214e-11
1.55918e-11
1.82662e-11
1.74247e-11
1.78738e-11
1.81587e-11
1.85779e-11
1.89717e-11
1.97271e-11
2.14814e-11
2.11016e-11
2.51861e-11
2.21536e-11
3.03679e-11
1.99032e-11
4.02859e-11
1.2304e-11
5.12688e-11
1.76148e-12
5.26602e-11
3.49171e-12
2.52211e-11
7.71072e-12
1.51884e-11
7.95392e-12
1.98438e-11
2.84884e-12
2.99656e-11
-3.15364e-12
3.30426e-11
-7.97257e-12
3.14803e-11
-1.1428e-11
2.81644e-11
-1.39493e-11
2.45396e-11
-1.5843e-11
2.08235e-11
-1.7252e-11
1.6992e-11
-1.82368e-11
1.30495e-11
-1.88132e-11
9.02988e-12
-1.89836e-11
5.01782e-12
-1.87848e-11
1.17959e-12
-2.26332e-12
-1.83277e-11
-2.33916e-14
1.92542e-12
-4.83007e-14
4.87845e-12
-2.34098e-14
7.00786e-12
1.0888e-13
8.35069e-12
4.08424e-13
8.95135e-12
9.32133e-13
8.88291e-12
1.7289e-12
8.24613e-12
2.83498e-12
7.16147e-12
4.26995e-12
5.76093e-12
6.03325e-12
4.18087e-12
8.10207e-12
2.55473e-12
1.04313e-11
1.00476e-12
1.29567e-11
-3.67344e-13
1.56024e-11
-1.48921e-12
1.82917e-11
-2.32262e-12
2.09609e-11
-2.85894e-12
2.35727e-11
-3.10544e-12
2.61115e-11
-3.03323e-12
2.85311e-11
-2.4991e-12
3.07241e-11
-1.31699e-12
3.25568e-11
5.82681e-13
3.38816e-11
3.18049e-12
3.4499e-11
6.46834e-12
3.42103e-11
1.03005e-11
3.29903e-11
1.41898e-11
3.1005e-11
1.75771e-11
2.89209e-11
1.95087e-11
2.83252e-11
1.87544e-11
3.01611e-11
1.71358e-11
3.32202e-11
1.84224e-11
3.69098e-11
2.14964e-11
4.32617e-11
2.4016e-11
4.62563e-11
3.72913e-11
3.76038e-11
5.99212e-11
2.224e-11
6.8024e-11
2.98207e-11
1.76404e-11
3.70021e-11
8.00701e-12
3.61546e-11
2.06912e-11
2.62759e-11
3.98443e-11
1.73314e-11
4.19871e-11
1.20634e-11
3.67483e-11
9.02417e-12
3.12036e-11
6.94556e-12
2.66182e-11
5.33828e-12
2.24307e-11
4.09644e-12
1.82338e-11
3.20789e-12
1.3938e-11
2.70108e-12
9.53669e-12
2.61991e-12
5.099e-12
2.95046e-12
8.49046e-13
-2.85253e-12
3.53967e-12
2.92177e-14
1.89619e-12
1.3925e-13
4.76842e-12
3.67706e-13
6.77939e-12
7.65902e-13
7.95248e-12
1.39261e-12
8.32464e-12
2.30721e-12
7.9683e-12
3.56325e-12
6.99008e-12
5.20244e-12
5.52227e-12
7.24902e-12
3.71434e-12
9.70464e-12
1.72525e-12
1.25441e-11
-2.84695e-13
1.57132e-11
-2.16437e-12
1.91307e-11
-3.78484e-12
2.26949e-11
-5.05344e-12
2.62968e-11
-5.92452e-12
2.9837e-11
-6.39906e-12
3.32547e-11
-6.52318e-12
3.65401e-11
-6.31866e-12
3.96695e-11
-5.62843e-12
4.25593e-11
-4.20686e-12
4.50931e-11
-1.95106e-12
4.70991e-11
1.17451e-12
4.82476e-11
5.3198e-12
4.81282e-11
1.04199e-11
4.65675e-11
1.57505e-11
4.34634e-11
2.06812e-11
3.94695e-11
2.35026e-11
3.73851e-11
2.08389e-11
3.93649e-11
1.5156e-11
4.57526e-11
1.20348e-11
5.20407e-11
1.52083e-11
6.26186e-11
1.34381e-11
7.70217e-11
2.28882e-11
7.94052e-11
5.75377e-11
5.21337e-11
9.52955e-11
7.0587e-11
-8.12906e-13
7.22498e-11
6.34423e-12
6.71806e-11
2.57604e-11
4.63244e-11
6.07005e-11
3.72806e-11
5.10309e-11
3.41313e-11
3.98976e-11
3.27058e-11
3.26291e-11
3.12742e-11
2.80498e-11
2.97919e-11
2.3913e-11
2.84921e-11
1.95336e-11
2.74809e-11
1.49493e-11
2.6852e-11
1.01656e-11
2.67365e-11
5.21446e-12
2.71769e-11
4.08649e-13
-3.61854e-12
2.79429e-11
7.70465e-14
1.81914e-12
3.09462e-13
4.536e-12
7.23155e-13
6.3657e-12
1.36522e-12
7.31041e-12
2.2956e-12
7.39425e-12
3.57879e-12
6.6851e-12
5.27621e-12
5.29265e-12
7.43906e-12
3.35943e-12
1.01013e-11
1.05213e-12
1.32725e-11
-1.44594e-12
1.69313e-11
-3.94349e-12
2.10203e-11
-6.2534e-12
2.54447e-11
-8.20928e-12
3.00755e-11
-9.68419e-12
3.47605e-11
-1.06095e-11
3.93429e-11
-1.09815e-11
4.37065e-11
-1.08868e-11
4.78176e-11
-1.04297e-11
5.16733e-11
-9.48419e-12
5.52612e-11
-7.79474e-12
5.85585e-11
-5.24842e-12
6.14325e-11
-1.69944e-12
6.33998e-11
3.35249e-12
6.37303e-11
1.00894e-11
6.20496e-11
1.74312e-11
5.75326e-11
2.51983e-11
5.03249e-11
3.07103e-11
4.52439e-11
2.59199e-11
4.41547e-11
1.62452e-11
5.01749e-11
6.01455e-12
6.36168e-11
1.76645e-12
7.30463e-11
4.00855e-12
9.20314e-11
3.90311e-12
1.36199e-10
1.33702e-11
1.20787e-10
1.10708e-10
1.40233e-10
-2.0259e-11
9.25247e-11
5.40525e-11
7.29946e-11
4.52904e-11
6.11925e-11
7.25026e-11
6.26927e-11
4.95307e-11
6.34337e-11
3.91566e-11
6.25078e-11
3.3555e-11
6.02842e-11
3.02734e-11
5.79308e-11
2.62664e-11
5.60128e-11
2.14517e-11
5.45151e-11
1.6447e-11
5.34709e-11
1.12098e-11
5.31216e-11
5.56376e-12
5.3647e-11
-1.16808e-13
-4.68302e-12
5.47115e-11
1.16325e-13
1.70281e-12
4.4901e-13
4.20331e-12
1.01536e-12
5.79935e-12
1.86097e-12
6.4648e-12
3.04948e-12
6.20573e-12
4.65323e-12
5.08135e-12
6.74478e-12
3.2011e-12
9.38909e-12
7.15114e-13
1.26356e-11
-2.19433e-12
1.65094e-11
-5.3198e-12
2.10026e-11
-8.43663e-12
2.60649e-11
-1.13158e-11
3.15977e-11
-1.37421e-11
3.74497e-11
-1.55361e-11
4.34226e-11
-1.65824e-11
4.92839e-11
-1.68428e-11
5.48149e-11
-1.64178e-11
5.98935e-11
-1.55083e-11
6.45006e-11
-1.40912e-11
6.87111e-11
-1.20052e-11
7.2693e-11
-9.23032e-12
7.65108e-11
-5.51726e-12
7.95942e-11
2.69056e-13
8.08548e-11
8.8289e-12
7.98884e-11
1.83975e-11
7.40121e-11
3.10746e-11
6.26293e-11
4.20931e-11
5.41332e-11
3.4416e-11
4.90775e-11
2.1301e-11
4.81551e-11
6.93688e-12
5.02881e-11
-3.66539e-13
5.08644e-11
3.43222e-12
4.00809e-11
1.46866e-11
2.13099e-11
3.21412e-11
1.12632e-10
1.9385e-11
8.73725e-11
5.00097e-12
1.45751e-10
-4.3259e-12
1.42871e-10
4.81706e-11
1.32786e-10
8.25875e-11
1.1695e-10
6.53668e-11
1.06653e-10
4.94537e-11
9.88135e-11
4.13941e-11
9.25385e-11
3.65484e-11
8.84027e-11
3.04022e-11
8.57865e-11
2.40678e-11
8.37612e-11
1.84723e-11
8.21117e-11
1.28594e-11
8.13286e-11
6.34688e-12
8.19807e-11
-7.68972e-13
-6.35597e-12
8.36537e-11
1.4335e-13
1.55946e-12
5.44874e-13
3.80178e-12
1.21736e-12
5.12686e-12
2.20795e-12
5.47421e-12
3.58642e-12
4.82726e-12
5.43513e-12
3.23264e-12
7.84035e-12
7.95876e-13
1.08843e-11
-2.32889e-12
1.46373e-11
-5.94731e-12
1.91481e-11
-9.83058e-12
2.44331e-11
-1.37216e-11
3.04646e-11
-1.73473e-11
3.71579e-11
-2.04353e-11
4.43578e-11
-2.2736e-11
5.18332e-11
-2.40578e-11
5.92706e-11
-2.42802e-11
6.63043e-11
-2.34515e-11
7.26288e-11
-2.18329e-11
7.81148e-11
-1.95772e-11
8.28425e-11
-1.67329e-11
8.72054e-11
-1.35932e-11
9.16826e-11
-9.99445e-12
9.57605e-11
-3.80884e-12
9.83636e-11
6.22573e-12
9.96435e-11
1.71176e-11
9.38965e-11
3.68215e-11
7.66199e-11
5.93697e-11
6.63725e-11
4.46634e-11
6.15866e-11
2.60869e-11
5.63001e-11
1.22234e-11
5.29834e-11
2.95018e-12
4.93823e-11
7.03334e-12
4.55657e-11
1.85032e-11
4.95196e-11
2.81872e-11
1.0317e-10
-3.42655e-11
6.02234e-11
4.79477e-11
6.22169e-11
-6.31947e-12
1.07266e-10
3.12161e-12
1.20939e-10
6.89142e-11
1.25779e-10
6.05272e-11
1.25127e-10
5.01055e-11
1.22334e-10
4.41867e-11
1.19313e-10
3.95698e-11
1.17554e-10
3.21608e-11
1.16377e-10
2.5245e-11
1.14589e-10
2.02609e-11
1.12282e-10
1.51661e-11
1.10761e-10
7.86806e-12
1.11615e-10
-1.62281e-12
-9.27961e-12
1.14538e-10
1.54797e-13
1.40467e-12
5.85453e-13
3.37112e-12
1.30509e-12
4.40721e-12
2.36547e-12
4.41383e-12
3.84434e-12
3.34838e-12
5.83523e-12
1.24175e-12
8.43907e-12
-1.80797e-12
1.17569e-11
-5.64674e-12
1.58827e-11
-1.00731e-11
2.08942e-11
-1.48421e-11
2.68428e-11
-1.96702e-11
3.37397e-11
-2.42442e-11
4.15385e-11
-2.82341e-11
5.01131e-11
-3.13106e-11
5.92369e-11
-3.31815e-11
6.85466e-11
-3.35899e-11
7.75308e-11
-3.24357e-11
8.5606e-11
-2.99082e-11
9.23496e-11
-2.63208e-11
9.76401e-11
-2.20233e-11
1.01978e-10
-1.79307e-11
1.06296e-10
-1.43128e-11
1.10388e-10
-7.90072e-12
1.12585e-10
4.02843e-12
1.18414e-10
1.12886e-11
1.18824e-10
3.64114e-11
9.06453e-11
8.75486e-11
8.3841e-11
5.14677e-11
8.11531e-11
2.87748e-11
7.70596e-11
1.6317e-11
7.32206e-11
6.78909e-12
7.69679e-11
3.28603e-12
9.44e-11
1.07114e-12
1.34378e-10
-1.17907e-11
1.34783e-10
-3.46707e-11
1.33591e-10
4.91399e-11
7.18212e-11
5.54503e-11
4.61533e-11
2.87895e-11
9.37732e-11
2.12943e-11
1.16574e-10
3.77267e-11
1.32487e-10
3.41925e-11
1.41961e-10
3.47128e-11
1.4532e-10
3.62099e-11
1.47941e-10
2.95398e-11
1.48904e-10
2.42826e-11
1.47258e-10
2.19071e-11
1.43674e-10
1.87497e-11
1.40669e-10
1.08729e-11
1.41707e-10
-2.66017e-12
-1.46734e-11
1.471e-10
1.4811e-13
1.25656e-12
5.619e-13
2.95732e-12
1.26014e-12
3.70896e-12
2.30203e-12
3.37193e-12
3.77428e-12
1.87613e-12
5.78122e-12
-7.65186e-13
8.43714e-12
-4.46387e-12
1.18601e-11
-9.0697e-12
1.61661e-11
-1.43791e-11
2.14622e-11
-2.01383e-11
2.78383e-11
-2.60462e-11
3.53548e-11
-3.17607e-11
4.40248e-11
-3.69042e-11
5.37896e-11
-4.10754e-11
6.44864e-11
-4.38783e-11
7.5791e-11
-4.48945e-11
8.71547e-11
-4.37994e-11
9.7717e-11
-4.04704e-11
1.06503e-10
-3.51067e-11
1.1297e-10
-2.84904e-11
1.17215e-10
-2.21757e-11
1.21457e-10
-1.85549e-11
1.21793e-10
-8.2362e-12
1.21369e-10
4.45236e-12
1.29953e-10
2.70434e-12
1.39136e-10
2.72281e-11
1.07613e-10
1.19072e-10
1.13882e-10
4.51985e-11
1.05785e-10
3.68718e-11
9.84131e-11
2.36889e-11
9.52706e-11
9.93157e-12
9.97822e-11
-1.22559e-12
1.11536e-10
-1.06828e-11
1.18474e-10
-1.87282e-11
1.00847e-10
-1.70436e-11
1.17707e-10
3.22795e-11
1.29487e-10
4.36706e-11
1.29012e-10
2.92648e-11
1.28912e-10
2.13936e-11
1.45515e-10
2.11243e-11
1.59518e-10
2.01889e-11
1.70793e-10
2.34386e-11
1.7715e-10
2.98525e-11
1.80211e-10
2.64786e-11
1.82415e-10
2.20786e-11
1.80673e-10
2.36494e-11
1.75433e-10
2.39899e-11
1.70137e-10
1.61685e-11
1.71296e-10
-3.81948e-12
-2.45806e-11
1.81204e-10
1.219e-13
1.13465e-12
4.69473e-13
2.60973e-12
1.07259e-12
3.10583e-12
2.00027e-12
2.44424e-12
3.34827e-12
5.28131e-13
5.2298e-12
-2.6467e-12
7.76878e-12
-7.00285e-12
1.1095e-11
-1.23959e-11
1.53396e-11
-1.86238e-11
2.06313e-11
-2.54299e-11
2.70906e-11
-3.25055e-11
3.48213e-11
-3.94915e-11
4.38985e-11
-4.59813e-11
5.435e-11
-5.15268e-11
6.61266e-11
-5.56549e-11
7.90573e-11
-5.78253e-11
9.27459e-11
-5.7488e-11
1.06388e-10
-5.41122e-11
1.18403e-10
-4.71222e-11
1.2725e-10
-3.73369e-11
1.33672e-10
-2.85976e-11
1.35438e-10
-2.03209e-11
1.322e-10
-4.9981e-12
1.17748e-10
1.89039e-11
1.05092e-10
1.53599e-11
1.01054e-10
3.12667e-11
1.70659e-10
4.94668e-11
1.41637e-10
7.42206e-11
1.20367e-10
5.81421e-11
1.11744e-10
3.23117e-11
1.08679e-10
1.29959e-11
1.08861e-10
-1.40691e-12
1.1105e-10
-1.28717e-11
1.12872e-10
-2.0551e-11
1.11396e-10
-1.55673e-11
1.28851e-10
1.48244e-11
1.48198e-10
2.43242e-11
1.59945e-10
1.75169e-11
1.69453e-10
1.18856e-11
1.80767e-10
9.81104e-12
1.94749e-10
6.20674e-12
2.04878e-10
1.33092e-11
2.04097e-10
3.06331e-11
2.10166e-10
2.041e-11
2.15552e-10
1.66926e-11
2.15534e-10
2.36679e-11
2.09673e-10
2.98506e-11
2.00819e-10
2.50224e-11
2.00699e-10
-3.69956e-12
-4.14163e-11
2.17535e-10
7.62595e-14
1.05838e-12
3.08613e-13
2.37735e-12
7.43242e-13
2.67119e-12
1.46097e-12
1.72651e-12
2.56591e-12
-5.76802e-13
4.17714e-12
-4.25793e-12
6.42287e-12
-9.24857e-12
9.43634e-12
-1.54093e-11
1.33529e-11
-2.25404e-11
1.83076e-11
-3.03846e-11
2.44318e-11
-3.86297e-11
3.18481e-11
-4.69078e-11
4.06661e-11
-5.47992e-11
5.09772e-11
-6.1838e-11
6.28426e-11
-6.75202e-11
7.62753e-11
-7.1258e-11
9.11603e-11
-7.2373e-11
1.07014e-10
-6.99657e-11
1.24115e-10
-6.42236e-11
1.37351e-10
-5.05729e-11
1.46283e-10
-3.75298e-11
1.48509e-10
-2.25464e-11
1.49156e-10
-5.64524e-12
1.27019e-10
4.10411e-11
9.66155e-11
4.57631e-11
1.09425e-10
1.84576e-11
1.24933e-10
3.39582e-11
1.08617e-10
9.05372e-11
1.05552e-10
6.12064e-11
1.10394e-10
2.74697e-11
1.13482e-10
9.90868e-12
1.16167e-10
-4.09168e-12
1.18897e-10
-1.56025e-11
1.20434e-10
-2.2088e-11
1.24283e-10
-1.94158e-11
1.43829e-10
-4.72178e-12
1.66471e-10
1.68192e-12
1.85404e-10
-1.41613e-12
1.99195e-10
-1.90527e-12
2.09586e-10
-5.80109e-13
2.19155e-10
-3.36186e-12
2.27504e-10
4.95993e-12
2.3067e-10
2.74673e-11
2.41585e-10
9.49535e-12
2.49603e-10
8.6743e-12
2.53096e-10
2.01754e-11
2.50363e-10
3.2583e-11
2.35705e-10
3.96808e-11
2.30055e-10
1.95047e-12
-6.83985e-11
2.57037e-10
1.29463e-14
1.04542e-12
8.54303e-14
2.30483e-12
2.84719e-13
2.47188e-12
7.0498e-13
1.30625e-12
1.45778e-12
-1.32959e-12
2.66483e-12
-5.46498e-12
4.45281e-12
-1.10365e-11
6.94968e-12
-1.79062e-11
1.02822e-11
-2.58729e-11
1.45735e-11
-3.4676e-11
1.99401e-11
-4.39963e-11
2.64887e-11
-5.34564e-11
3.43157e-11
-6.26262e-11
4.35131e-11
-7.10354e-11
5.41561e-11
-7.81632e-11
6.62897e-11
-8.33917e-11
7.98558e-11
-8.5939e-11
9.53411e-11
-8.5451e-11
1.09067e-10
-7.79491e-11
1.28819e-10
-7.03257e-11
1.62922e-10
-7.16328e-11
1.73818e-10
-3.34419e-11
1.39894e-10
2.82785e-11
1.09021e-10
7.19141e-11
9.96034e-11
5.5181e-11
6.35141e-11
5.45469e-11
6.48991e-11
3.25733e-11
6.3582e-11
9.18543e-11
1.02676e-10
2.21123e-11
1.15409e-10
1.47371e-11
1.17952e-10
7.36493e-12
1.23131e-10
-9.26985e-12
1.30534e-10
-2.30058e-11
1.38054e-10
-2.9608e-11
1.48487e-10
-2.98487e-11
1.67889e-10
-2.4124e-11
1.90751e-10
-2.11805e-11
2.10239e-10
-2.09039e-11
2.2667e-10
-1.83363e-11
2.39436e-10
-1.33458e-11
2.43613e-10
-7.53944e-12
2.48892e-10
-3.18441e-13
2.69535e-10
6.82423e-12
2.72836e-10
6.19458e-12
2.75352e-10
6.15819e-12
2.86257e-10
9.27039e-12
2.97144e-10
2.16959e-11
3.00945e-10
3.58792e-11
2.73617e-10
2.92793e-11
-9.91353e-11
3.04353e-10
-6.48583e-14
1.11026e-12
-1.88581e-13
2.42853e-12
-2.79126e-13
2.56242e-12
-2.27597e-13
1.25473e-12
8.43952e-14
-1.64158e-12
7.78691e-13
-6.15927e-12
1.97592e-12
-1.22338e-11
3.79187e-12
-1.97222e-11
6.33446e-12
-2.84155e-11
9.70054e-12
-3.80421e-11
1.39714e-11
-4.82671e-11
1.92083e-11
-5.86934e-11
2.54501e-11
-6.8868e-11
3.27088e-11
-7.8294e-11
4.09217e-11
-8.63761e-11
4.98727e-11
-9.23427e-11
5.94383e-11
-9.55046e-11
6.57954e-11
-9.18081e-11
7.27245e-11
-8.48782e-11
8.71466e-11
-8.47478e-11
8.02818e-11
-6.47679e-11
5.58615e-11
-9.02162e-12
4.20937e-11
4.20462e-11
4.30058e-11
7.1002e-11
8.31954e-11
1.49914e-11
9.34428e-11
4.42995e-11
1.0077e-10
2.52459e-11
1.29026e-10
6.35984e-11
1.17066e-10
3.40725e-11
1.20813e-10
1.09902e-11
1.20004e-10
8.17347e-12
1.32611e-10
-2.18767e-11
1.44714e-10
-3.51088e-11
1.56631e-10
-4.15249e-11
1.70787e-10
-4.40049e-11
1.90098e-10
-4.34343e-11
2.11419e-10
-4.2502e-11
2.31531e-10
-4.10155e-11
2.49467e-10
-3.62726e-11
2.63634e-10
-2.75123e-11
2.7125e-10
-1.51557e-11
2.7693e-10
-5.99859e-12
2.87651e-10
-3.89715e-12
2.90839e-10
3.00684e-12
2.94472e-10
2.52508e-12
3.08139e-10
-4.39624e-12
3.39995e-10
-1.016e-11
3.74636e-10
1.23807e-12
3.89348e-10
1.45669e-11
-5.98835e-11
3.50096e-10
-1.52524e-13
1.26277e-12
-4.9756e-13
2.77355e-12
-9.15424e-13
2.98027e-12
-1.28126e-12
1.62057e-12
-1.4698e-12
-1.45302e-12
-1.36006e-12
-6.269e-12
-8.3937e-13
-1.27545e-11
1.92952e-13
-2.07545e-11
1.82206e-12
-3.00446e-11
4.11349e-12
-4.03335e-11
7.1077e-12
-5.12614e-11
1.08136e-11
-6.23993e-11
1.51996e-11
-7.3254e-11
2.01728e-11
-8.32672e-11
2.55519e-11
-9.17552e-11
3.10312e-11
-9.78221e-11
3.45752e-11
-9.90486e-11
3.8886e-11
-9.61189e-11
4.7756e-11
-9.37483e-11
4.52678e-11
-8.22595e-11
2.8596e-11
-4.80961e-11
2.43282e-11
-4.75382e-12
3.56909e-11
3.06835e-11
7.66793e-11
3.00135e-11
5.23951e-11
3.92757e-11
4.41654e-11
5.25292e-11
1.86202e-11
5.07911e-11
4.92422e-11
3.29763e-11
6.87622e-11
1.45525e-11
7.96741e-11
7.8356e-14
1.15418e-10
-2.75705e-11
1.41468e-10
-4.79267e-11
1.60715e-10
-5.43556e-11
1.74739e-10
-5.55491e-11
1.8954e-10
-5.88061e-11
2.06278e-10
-6.01724e-11
2.24538e-10
-6.07613e-11
2.42639e-10
-5.91174e-11
2.60027e-10
-5.36606e-11
2.72655e-10
-4.014e-11
2.8403e-10
-2.65308e-11