/*--------------------------------*- C++ -*----------------------------------*\
| =========                 |                                                 |
| \\      /  F ield         | OpenFOAM: The Open Source CFD Toolbox           |
|  \\    /   O peration     | Version:  2.4.0                                 |
|   \\  /    A nd           | Web:      www.OpenFOAM.org                      |
|    \\/     M anipulation  |                                                 |
\*---------------------------------------------------------------------------*/
FoamFile
{
    version     2.0;
    format      ascii;
    class       surfaceScalarField;
    location    "0.122";
    object      phi;
}
// * * * * * * * * * * * * * * * * * * * * * * * * * * * * * * * * * * * * * //

dimensions      [0 3 -1 0 0 0 0];

internalField   nonuniform List<scalar> 
19800
(
-1.00185e-13
1.00185e-13
-6.93721e-13
6.01714e-13
-1.83367e-12
1.1487e-12
-3.41915e-12
1.5853e-12
-5.35306e-12
1.9311e-12
-7.57522e-12
2.22086e-12
-1.00334e-11
2.45865e-12
-1.26661e-11
2.6337e-12
-1.53997e-11
2.73443e-12
-1.81532e-11
2.75385e-12
-2.08434e-11
2.69008e-12
-2.33889e-11
2.54525e-12
-2.57134e-11
2.32422e-12
-2.77469e-11
2.03369e-12
-2.94275e-11
1.68138e-12
-3.07018e-11
1.27568e-12
-3.15256e-11
8.25358e-13
-3.18636e-11
3.39335e-13
-3.16877e-11
-1.75142e-13
-3.09802e-11
-7.07631e-13
-2.97301e-11
-1.25082e-12
-2.79349e-11
-1.79649e-12
-2.56005e-11
-2.3357e-12
-2.27429e-11
-2.85848e-12
-1.93903e-11
-3.35287e-12
-1.55853e-11
-3.80439e-12
-1.13881e-11
-4.19624e-12
-6.87671e-12
-4.51034e-12
-2.14628e-12
-4.72977e-12
2.69563e-12
-4.84195e-12
7.53436e-12
-4.83943e-12
1.22601e-11
-4.72686e-12
1.67743e-11
-4.5154e-12
2.09944e-11
-4.22112e-12
2.48541e-11
-3.86035e-12
2.82997e-11
-3.44585e-12
3.12847e-11
-2.98502e-12
3.37653e-11
-2.48046e-12
3.56976e-11
-1.93233e-12
3.70383e-11
-1.34097e-12
3.77447e-11
-7.071e-13
3.77748e-11
-3.13646e-14
3.71146e-11
6.5894e-13
3.57448e-11
1.36864e-12
3.36703e-11
2.07352e-12
3.09146e-11
2.75527e-12
2.75213e-11
3.39393e-12
2.35516e-11
3.97017e-12
1.90847e-11
4.46703e-12
4.86978e-12
1.4215e-11
-5.75392e-13
6.70405e-13
-2.32305e-12
2.3381e-12
-5.22911e-12
4.05671e-12
-9.08264e-12
5.44286e-12
-1.37256e-11
6.57585e-12
-1.90406e-11
7.53616e-12
-2.49052e-11
8.32354e-12
-3.11677e-11
8.89701e-12
-3.76464e-11
9.214e-12
-4.41397e-11
9.24758e-12
-5.04385e-11
8.98887e-12
-5.63367e-11
8.44349e-12
-6.1639e-11
7.62714e-12
-6.61661e-11
6.56226e-12
-6.97583e-11
5.27575e-12
-7.22778e-11
3.7975e-12
-7.36099e-11
2.15947e-12
-7.36646e-11
3.94968e-13
-7.23754e-11
-1.46455e-12
-6.97002e-11
-3.38409e-12
-6.56211e-11
-5.33196e-12
-6.01442e-11
-7.2754e-12
-5.33013e-11
-9.18003e-12
-4.51524e-11
-1.10077e-11
-3.57906e-11
-1.2714e-11
-2.53474e-11
-1.42461e-11
-1.3998e-11
-1.55441e-11
-1.96316e-12
-1.65445e-11
1.04944e-11
-1.71877e-11
2.30787e-11
-1.74276e-11
3.54852e-11
-1.72479e-11
4.74166e-11
-1.66603e-11
5.86049e-11
-1.57051e-11
6.88213e-11
-1.44384e-11
7.78773e-11
-1.29165e-11
8.56156e-11
-1.11841e-11
9.18985e-11
-9.26773e-12
9.65962e-11
-7.17829e-12
9.95811e-11
-4.91826e-12
1.0073e-10
-2.49099e-12
9.99277e-11
9.30628e-14
9.7083e-11
2.8112e-12
9.21211e-11
5.61871e-12
8.50233e-11
8.46532e-12
7.58133e-11
1.12832e-11
6.45705e-11
1.39979e-11
5.14332e-11
1.65318e-11
3.65959e-11
1.88085e-11
2.0304e-11
2.07587e-11
2.2323e-11
2.85002e-12
-1.09495e-12
1.77411e-12
-3.97647e-12
5.2156e-12
-8.39695e-12
8.47519e-12
-1.40921e-11
1.11388e-11
-2.08711e-11
1.33566e-11
-2.85814e-11
1.5248e-11
-3.70503e-11
1.67937e-11
-4.60588e-11
1.79065e-11
-5.53433e-11
1.84994e-11
-6.46109e-11
1.85158e-11
-7.35562e-11
1.79346e-11
-8.18763e-11
1.67642e-11
-8.92826e-11
1.50342e-11
-9.55084e-11
1.27893e-11
-1.00315e-10
1.00843e-11
-1.03498e-10
6.98144e-12
-1.04885e-10
3.54793e-12
-1.04343e-10
-1.46278e-13
-1.01778e-10
-4.03048e-12
-9.71297e-11
-8.03336e-12
-9.03789e-11
-1.20846e-11
-8.15426e-11
-1.61135e-11
-7.0677e-11
-2.00468e-11
-5.78815e-11
-2.38035e-11
-4.33048e-11
-2.72901e-11
-2.71536e-11
-3.03964e-11
-9.70162e-12
-3.29956e-11
8.70772e-12
-3.49541e-11
2.76637e-11
-3.61447e-11
4.67087e-11
-3.6474e-11
6.53627e-11
-3.59031e-11
8.31611e-11
-3.44595e-11
9.9684e-11
-3.22282e-11
1.14572e-10
-2.93264e-11
1.27528e-10
-2.58718e-11
1.383e-10
-2.19558e-11
1.46663e-10
-1.76314e-11
1.52404e-10
-1.29199e-11
1.55312e-10
-7.82716e-12
1.55182e-10
-2.36218e-12
1.51827e-10
3.44638e-12
1.45097e-10
9.54068e-12
1.34885e-10
1.58284e-11
1.21163e-10
2.21862e-11
1.03982e-10
2.84643e-11
8.34841e-11
3.44961e-11
5.99077e-11
4.01086e-11
3.35852e-11
4.51321e-11
4.9333e-12
4.94109e-11
5.28108e-11
-2.5555e-11
-1.52425e-12
3.30359e-12
-5.36433e-12
9.05814e-12
-1.11094e-11
1.42199e-11
-1.84089e-11
1.84385e-11
-2.70273e-11
2.19761e-11
-3.67732e-11
2.49953e-11
-4.74271e-11
2.74489e-11
-5.87135e-11
2.9194e-11
-7.03031e-11
3.00899e-11
-8.1831e-11
3.00445e-11
-9.29165e-11
2.9021e-11
-1.03181e-10
2.70296e-11
-1.12263e-10
2.41162e-11
-1.19825e-10
2.03521e-11
-1.25567e-10
1.5827e-11
-1.29229e-10
1.06441e-11
-1.30595e-10
4.91541e-12
-1.295e-10
-1.24104e-12
-1.25825e-10
-7.70529e-12
-1.19503e-10
-1.4357e-11
-1.10512e-10
-2.10774e-11
-9.88783e-11
-2.77484e-11
-8.46775e-11
-3.42484e-11
-6.80363e-11
-4.04449e-11
-4.91421e-11
-4.61841e-11
-2.82557e-11
-5.12828e-11
-5.72446e-12
-5.55273e-11
1.80066e-11
-5.86859e-11
4.24002e-11
-6.05392e-11
6.68463e-11
-6.09207e-11
9.07035e-11
-5.97604e-11
1.13351e-10
-5.71066e-11
1.34232e-10
-5.31091e-11
1.52879e-10
-4.79727e-11
1.68908e-10
-4.19005e-11
1.81995e-10
-3.50428e-11
1.91844e-10
-2.74803e-11
1.98161e-10
-1.9238e-11
2.00652e-10
-1.03183e-11
1.99024e-10
-7.3509e-13
1.93008e-10
9.46133e-12
1.82384e-10
2.0163e-11
1.67008e-10
3.12041e-11
1.46831e-10
4.2362e-11
1.21926e-10
5.33691e-11
9.24944e-11
6.39284e-11
5.88715e-11
7.37322e-11
2.15243e-11
8.248e-11
-1.89605e-11
8.9896e-11
9.57399e-11
-6.18901e-11
-1.88866e-12
5.19279e-12
-6.61457e-12
1.37876e-11
-1.36281e-11
2.12347e-11
-2.24857e-11
2.72965e-11
-3.28888e-11
3.23796e-11
-4.45933e-11
3.67003e-11
-5.73288e-11
4.0185e-11
-7.07657e-11
4.26315e-11
-8.45176e-11
4.38428e-11
-9.81599e-11
4.3688e-11
-1.11251e-10
4.21131e-11
-1.23351e-10
3.91305e-11
-1.34039e-10
3.48038e-11
-1.42921e-10
2.92346e-11
-1.49647e-10
2.25527e-11
-1.53911e-10
1.49089e-11
-1.55463e-10
6.4687e-12
-1.5411e-10
-2.59293e-12
-1.49719e-10
-1.20972e-11
-1.42212e-10
-2.18651e-11
-1.31569e-10
-3.17215e-11
-1.17823e-10
-4.14952e-11
-1.01058e-10
-5.1013e-11
-8.14159e-11
-6.00876e-11
-5.90999e-11
-6.85004e-11
-3.43983e-11
-7.5985e-11
-7.7056e-12
-8.22207e-11
2.04577e-11
-8.68498e-11
4.94406e-11
-8.95223e-11
7.8487e-11
-8.99668e-11
1.06793e-10
-8.80656e-11
1.33584e-10
-8.3897e-11
1.58181e-10
-7.77059e-11
1.80032e-10
-6.98235e-11
1.98701e-10
-6.05697e-11
2.13824e-10
-5.01658e-11
2.25053e-10
-3.87098e-11
2.32025e-10
-2.62104e-11
2.34353e-10
-1.26466e-11
2.31643e-10
1.97465e-12
2.23525e-10
1.75784e-11
2.09691e-10
3.3997e-11
1.89928e-10
5.09657e-11
1.64159e-10
6.81309e-11
1.32459e-10
8.50694e-11
9.50764e-11
1.01313e-10
5.24328e-11
1.16376e-10
5.12344e-12
1.2979e-10
-4.60993e-11
1.41119e-10
1.49986e-10
-1.00346e-10
-2.23641e-12
7.42846e-12
-7.85438e-12
1.94076e-11
-1.61737e-11
2.95552e-11
-2.66522e-11
3.77751e-11
-3.89144e-11
4.46413e-11
-5.26524e-11
5.04375e-11
-6.7538e-11
5.50702e-11
-8.31873e-11
5.8281e-11
-9.91611e-11
5.98176e-11
-1.14982e-10
5.95107e-11
-1.30158e-10
5.72895e-11
-1.44196e-10
5.31692e-11
-1.56625e-10
4.72327e-11
-1.67006e-10
3.96147e-11
-1.74942e-10
3.04892e-11
-1.80092e-10
2.00601e-11
-1.82175e-10
8.55339e-12
-1.80977e-10
-3.79051e-12
-1.76349e-10
-1.67249e-11
-1.6821e-10
-3.00041e-11
-1.56541e-10
-4.33912e-11
-1.41377e-10
-5.66591e-11
-1.22805e-10
-6.95848e-11
-1.00962e-10
-8.19306e-11
-7.60463e-11
-9.3417e-11
-4.83408e-11
-1.03691e-10
-1.82533e-11
-1.12309e-10
1.36453e-11
-1.18748e-10
4.66031e-11
-1.2248e-10
7.97121e-11
-1.23075e-10
1.11989e-10
-1.20342e-10
1.42495e-10
-1.14404e-10
1.7044e-10
-1.0565e-10
1.95214e-10
-9.45985e-11
2.16378e-10
-8.17329e-11
2.33568e-10
-6.7356e-11
2.46413e-10
-5.15552e-11
2.54484e-10
-3.42806e-11
2.57287e-10
-1.54496e-11
2.54301e-10
4.96043e-12
2.45024e-10
2.68546e-11
2.29028e-10
4.99931e-11
2.06008e-10
7.39864e-11
1.75825e-10
9.83142e-11
1.3854e-10
1.22355e-10
9.44295e-11
1.45423e-10
4.39938e-11
1.66812e-10
-1.20511e-11
1.85834e-10
-7.279e-11
2.01858e-10
2.14333e-10
-1.37137e-10
-2.58838e-12
1.00167e-11
-9.13069e-12
2.59502e-11
-1.88202e-11
3.9245e-11
-3.10112e-11
4.99655e-11
-4.5243e-11
5.88716e-11
-6.11356e-11
6.63285e-11
-7.82988e-11
7.22325e-11
-9.62933e-11
7.6276e-11
-1.14629e-10
7.81552e-11
-1.32782e-10
7.76653e-11
-1.50212e-10
7.47204e-11
-1.66382e-10
6.93398e-11
-1.80777e-10
6.1627e-11
-1.92913e-10
5.17516e-11
-2.02358e-10
3.99348e-11
-2.08735e-10
2.64384e-11
-2.11736e-10
1.15555e-11
-2.11126e-10
-4.39988e-12
-2.06746e-10
-2.11044e-11
-1.98512e-10
-3.82378e-11
-1.86407e-10
-5.54956e-11
-1.7047e-10
-7.25954e-11
-1.50784e-10
-8.92707e-11
-1.27468e-10
-1.05247e-10
-1.00686e-10
-1.202e-10
-7.06792e-11
-1.33698e-10
-3.78269e-11
-1.45161e-10
-2.71475e-12
-1.5386e-10
3.38166e-11
-1.59011e-10
7.06874e-11
-1.59947e-10
1.06695e-10
-1.5635e-10
1.40711e-10
-1.48421e-10
1.7183e-10
-1.36771e-10
1.99429e-10
-1.22198e-10
2.23123e-10
-1.05427e-10
2.42615e-10
-8.68477e-11
2.57538e-10
-6.64777e-11
2.67389e-10
-4.41319e-11
2.71543e-10
-1.96038e-11
2.69311e-10
7.19295e-12
2.60015e-10
3.61509e-11
2.43066e-10
6.69424e-11
2.18031e-10
9.90227e-11
1.84683e-10
1.31663e-10
1.43044e-10
1.63994e-10
9.34066e-11
1.95061e-10
3.63378e-11
2.23881e-10
-2.7327e-11
2.49499e-10
-9.65074e-11
2.71038e-10
2.87741e-10
-1.69915e-10
-2.94708e-12
1.29642e-11
-1.0442e-11
3.3445e-11
-2.15568e-11
5.03592e-11
-3.55401e-11
6.39475e-11
-5.18415e-11
7.51711e-11
-7.00052e-11
8.44907e-11
-8.95765e-11
9.18037e-11
-1.10061e-10
9.67618e-11
-1.3092e-10
9.90162e-11
-1.51583e-10
9.83308e-11
-1.71468e-10
9.46069e-11
-1.89998e-10
8.78692e-11
-2.06613e-10
7.82428e-11
-2.20794e-10
6.59329e-11
-2.32068e-10
5.12098e-11
-2.40026e-10
3.43973e-11
-2.44332e-10
1.58616e-11
-2.44729e-10
-4.00144e-12
-2.4105e-10
-2.47821e-11
-2.33212e-10
-4.60754e-11
-2.21204e-10
-6.75026e-11
-2.05073e-10
-8.87255e-11
-1.84899e-10
-1.09445e-10
-1.60771e-10
-1.29375e-10
-1.32795e-10
-1.48177e-10
-1.01122e-10
-1.65371e-10
-6.60434e-11
-1.80239e-10
-2.81099e-11
-1.91793e-10
1.1767e-11
-1.98888e-10
5.23036e-11
-2.00485e-10
9.20024e-11
-1.96051e-10
1.29493e-10
-1.85913e-10
1.63753e-10
-1.71032e-10
1.94187e-10
-1.52631e-10
2.20566e-10
-1.31805e-10
2.42744e-10
-1.09026e-10
2.6039e-10
-8.41229e-11
2.72905e-10
-5.66471e-11
2.79478e-10
-2.61773e-11
2.79193e-10
7.47951e-12
2.71139e-10
4.42058e-11
2.54518e-10
8.35633e-11
2.28729e-10
1.24812e-10
1.93429e-10
1.66963e-10
1.48581e-10
2.08842e-10
9.44772e-11
2.49164e-10
3.17495e-11
2.86609e-10
-3.8645e-11
3.19894e-10
-1.15451e-10
3.47844e-10
3.69453e-10
-1.97164e-10
-3.30913e-12
1.62737e-11
-1.17737e-11
4.19098e-11
-2.43505e-11
6.29355e-11
-4.01839e-11
7.97797e-11
-5.86331e-11
9.3619e-11
-7.91655e-11
1.05023e-10
-1.01262e-10
1.13902e-10
-1.24375e-10
1.19876e-10
-1.47917e-10
1.22561e-10
-1.71276e-10
1.21692e-10
-1.9383e-10
1.17161e-10
-2.1496e-10
1.09e-10
-2.3407e-10
9.73532e-11
-2.506e-10
8.24626e-11
-2.64038e-10
6.46479e-11
-2.73937e-10
4.4297e-11
-2.79929e-10
2.18545e-11
-2.81737e-10
-2.1927e-12
-2.7918e-10
-2.73374e-11
-2.72179e-10
-5.30752e-11
-2.6074e-10
-7.89408e-11
-2.44929e-10
-1.04536e-10
-2.24834e-10
-1.29541e-10
-2.00517e-10
-1.53692e-10
-1.71999e-10
-1.76695e-10
-1.39287e-10
-1.98083e-10
-1.02502e-10
-2.17024e-10
-6.20748e-11
-2.32221e-10
-1.89473e-11
-2.42017e-10
2.53416e-11
-2.44775e-10
6.88685e-11
-2.39579e-10
1.09937e-10
-2.26983e-10
1.47396e-10
-2.08492e-10
1.80737e-10
-1.85972e-10
2.1004e-10
-1.61109e-10
2.35444e-10
-1.34431e-10
2.56666e-10
-1.05345e-10
2.72956e-10
-7.29378e-11
2.83229e-10
-3.64494e-11
2.86252e-10
4.45766e-12
2.80815e-10
4.96426e-11
2.6586e-10
9.85187e-11
2.40576e-10
1.50096e-10
2.04477e-10
2.03062e-10
1.57448e-10
2.55871e-10
9.97748e-11
3.06837e-10
3.21527e-11
3.54231e-10
-4.43296e-11
3.96376e-10
-1.28225e-10
4.31739e-10
4.59014e-10
-2.17787e-10
-3.67176e-12
1.99459e-11
-1.3115e-11
5.1354e-11
-2.71771e-11
7.69976e-11
-4.49015e-11
9.75036e-11
-6.55591e-11
1.14276e-10
-8.85426e-11
1.28007e-10
-1.13271e-10
1.38632e-10
-1.39143e-10
1.45751e-10
-1.65528e-10
1.48948e-10
-1.91774e-10
1.47939e-10
-2.17219e-10
1.42607e-10
-2.41209e-10
1.3299e-10
-2.63108e-10
1.19252e-10
-2.82313e-10
1.01667e-10
-2.9827e-10
8.06044e-11
-3.10488e-10
5.65151e-11
-3.18559e-10
2.99256e-11
-3.22173e-10
1.42257e-12
-3.21134e-10
-2.83745e-11
-3.15367e-10
-5.88409e-11
-3.04905e-10
-8.94019e-11
-2.89858e-10
-1.19583e-10
-2.70349e-10
-1.49051e-10
-2.46437e-10
-1.77604e-10
-2.18048e-10
-2.05084e-10
-1.84983e-10
-2.31149e-10
-1.47072e-10
-2.54935e-10
-1.04493e-10
-2.74801e-10
-5.81266e-11
-2.88385e-10
-9.83031e-12
-2.93073e-10
3.78199e-11
-2.87231e-10
8.26825e-11
-2.71846e-10
1.23465e-10
-2.49275e-10
1.59807e-10
-2.22315e-10
1.92353e-10
-1.93655e-10
2.21726e-10
-1.63805e-10
2.47667e-10
-1.31288e-10
2.69148e-10
-9.44181e-11
2.84661e-10
-5.19624e-11
2.92551e-10
-3.43184e-12
2.91233e-10
5.09605e-11
2.79336e-10
1.10416e-10
2.5581e-10
1.73622e-10
2.20002e-10
2.3887e-10
1.71706e-10
3.04167e-10
1.11198e-10
3.67344e-10
3.92413e-11
4.26186e-10
-4.29276e-11
4.78545e-10
-1.33645e-10
5.22457e-10
5.56255e-10
-2.30887e-10
-4.03467e-12
2.39813e-11
-1.4463e-11
6.17836e-11
-3.00274e-11
9.25625e-11
-4.9675e-11
1.17151e-10
-7.25922e-11
1.37194e-10
-9.81006e-11
1.53517e-10
-1.2556e-10
1.66093e-10
-1.54321e-10
1.74514e-10
-1.83712e-10
1.7834e-10
-2.13043e-10
1.77271e-10
-2.4162e-10
1.71184e-10
-2.6875e-10
1.60119e-10
-2.93759e-10
1.44259e-10
-3.15999e-10
1.23906e-10
-3.34865e-10
9.94694e-11
-3.49811e-10
7.14617e-11
-3.60375e-10
4.04905e-11
-3.662e-10
7.24901e-12
-3.6706e-10
-2.75136e-11
-3.62877e-10
-6.30228e-11
-3.53724e-10
-9.85555e-11
-3.39785e-10
-1.33523e-10
-3.21277e-10
-1.67559e-10
-2.98315e-10
-2.00567e-10
-2.70758e-10
-2.32642e-10
-2.38139e-10
-2.63769e-10
-1.9984e-10
-2.93234e-10
-1.55567e-10
-3.19074e-10
-1.05945e-10
-3.38007e-10
-5.32114e-11
-3.45808e-10
-1.01742e-12
-3.39426e-10
4.79364e-11
-3.20801e-10
9.22191e-11
-2.93558e-10
1.31641e-10
-2.61739e-10
1.67851e-10
-2.29866e-10
2.02264e-10
-1.98219e-10
2.34497e-10
-1.63521e-10
2.62987e-10
-1.22909e-10
2.85595e-10
-7.45704e-11
3.0012e-10
-1.79565e-11
3.04534e-10
4.65472e-11
2.97124e-10
1.17826e-10
2.76582e-10
1.94163e-10
2.42077e-10
2.73375e-10
1.93305e-10
3.52938e-10
1.30531e-10
4.30118e-10
5.45961e-11
5.0212e-10
-3.30955e-11
5.66236e-10
-1.30628e-10
6.19989e-10
6.61283e-10
-2.35657e-10
-4.39926e-12
2.83815e-11
-1.58199e-11
7.32053e-11
-3.29023e-11
1.09645e-10
-5.4502e-11
1.38752e-10
-7.97255e-11
1.62419e-10
-1.07828e-10
1.81621e-10
-1.38116e-10
1.96382e-10
-1.69896e-10
2.06294e-10
-2.02459e-10
2.10904e-10
-2.35086e-10
2.09898e-10
-2.67049e-10
2.03147e-10
-2.97625e-10
1.90694e-10
-3.26098e-10
1.72731e-10
-3.51772e-10
1.49579e-10
-3.73983e-10
1.2168e-10
-3.92116e-10
8.95949e-11
-4.05631e-10
5.40069e-11
-4.14098e-10
1.5717e-11
-4.1723e-10
-2.438e-11
-4.1493e-10
-6.53223e-11
-4.07308e-10
-1.06177e-10
-3.94667e-10
-1.46165e-10
-3.77404e-10
-1.84823e-10
-3.55813e-10
-2.22159e-10
-3.29782e-10
-2.58673e-10
-2.98548e-10
-2.95003e-10
-2.60848e-10
-3.30933e-10
-2.15588e-10
-3.64334e-10
-1.6275e-10
-3.90846e-10
-1.04951e-10
-4.03607e-10
-4.77524e-11
-3.96625e-10
5.59147e-12
-3.74145e-10
5.36202e-11
-3.41588e-10
9.61178e-11
-3.04238e-10
1.36631e-10
-2.70381e-10
1.77721e-10
-2.3931e-10
2.1846e-10
-2.04261e-10
2.56299e-10
-1.60748e-10
2.88182e-10
-1.06453e-10
3.11269e-10
-4.10424e-11
3.23075e-10
3.47427e-11
3.21551e-10
1.19349e-10
3.05138e-10
2.10575e-10
2.72827e-10
3.05686e-10
2.24216e-10
4.01549e-10
1.59556e-10
4.94778e-10
7.97787e-11
5.81897e-10
-1.3521e-11
6.59534e-10
-1.18134e-10
7.24602e-10
7.74485e-10
-2.31337e-10
-4.76731e-12
3.31495e-11
-1.7189e-11
8.56273e-11
-3.5805e-11
1.28262e-10
-5.93833e-11
1.6233e-10
-8.69563e-11
1.89992e-10
-1.17718e-10
2.12383e-10
-1.50927e-10
2.29591e-10
-1.85853e-10
2.41219e-10
-2.21758e-10
2.46808e-10
-2.57897e-10
2.46036e-10
-2.93517e-10
2.38767e-10
-3.27866e-10
2.25043e-10
-3.6019e-10
2.05055e-10
-3.89742e-10
1.79131e-10
-4.15789e-10
1.47727e-10
-4.3763e-10
1.11436e-10
-4.54618e-10
7.09967e-11
-4.66206e-10
2.7306e-11
-4.72001e-10
-1.85838e-11
-4.71834e-10
-6.54895e-11
-4.6583e-10
-1.12182e-10
-4.54438e-10
-1.57557e-10
-4.38358e-10
-2.00904e-10
-4.18272e-10
-2.42246e-10
-3.94322e-10
-2.82622e-10
-3.65498e-10
-3.23826e-10
-3.29697e-10
-3.66735e-10
-2.84577e-10
-4.09453e-10
-2.28708e-10
-4.46716e-10
-1.64956e-10
-4.67359e-10
-1.02515e-10
-4.59067e-10
-4.47356e-11
-4.31925e-10
7.37707e-12
-3.93701e-10
5.28591e-11
-3.49721e-10
9.8811e-11
-3.16335e-10
1.49244e-10
-2.89745e-10
2.01651e-10
-2.56669e-10
2.51768e-10
-2.10864e-10
2.95337e-10
-1.50021e-10
3.28924e-10
-7.46284e-11
3.4968e-10
1.39864e-11
3.55288e-10
1.13741e-10
3.43971e-10
2.2189e-10
3.14555e-10
3.351e-10
2.66533e-10
4.4957e-10
2.00141e-10
5.6117e-10
1.16402e-10
6.65636e-10
1.71309e-11
7.58805e-10
-9.51241e-11
8.36857e-10
8.96552e-10
-2.17192e-10
-5.13976e-12
3.82895e-11
-1.85709e-11
9.90584e-11
-3.87339e-11
1.48425e-10
-6.43129e-11
1.87909e-10
-9.42712e-11
2.1995e-10
-1.27749e-10
2.4586e-10
-1.63963e-10
2.65804e-10
-2.02154e-10
2.79409e-10
-2.41564e-10
2.86218e-10
-2.81429e-10
2.85902e-10
-3.20982e-10
2.78321e-10
-3.59446e-10
2.63507e-10
-3.96035e-10
2.41644e-10
-4.29951e-10
2.13047e-10
-4.60386e-10
1.78163e-10
-4.86534e-10
1.37584e-10
-5.07608e-10
9.20716e-11
-5.22887e-10
4.25863e-11
-5.31793e-10
-9.67738e-12
-5.33992e-10
-6.32906e-11
-5.29545e-10
-1.16629e-10
-5.19035e-10
-1.68068e-10
-5.03586e-10
-2.16354e-10
-4.84594e-10
-2.61237e-10
-4.62871e-10
-3.04344e-10
-4.37334e-10
-3.49362e-10
-4.04921e-10
-3.99147e-10
-3.61699e-10
-4.52675e-10
-3.03288e-10
-5.05127e-10
-2.32107e-10
-5.38541e-10
-1.65248e-10
-5.25925e-10
-1.03959e-10
-4.93215e-10
-4.74979e-11
-4.50163e-10
1.26867e-12
-3.98489e-10
5.47898e-11
-3.69858e-10
1.19322e-10
-3.54279e-10
1.87813e-10
-3.25159e-10
2.53575e-10
-2.76624e-10
3.11147e-10
-2.07592e-10
3.56881e-10
-1.20362e-10
3.87807e-10
-1.69408e-11
4.01458e-10
1.00089e-10
3.95903e-10
2.27443e-10
3.69806e-10
3.61196e-10
3.22537e-10
4.96837e-10
2.54292e-10
6.29415e-10
1.6618e-10
7.53749e-10
6.02548e-11
8.6473e-10
-6.05405e-11
9.57651e-10
1.02852e-09
-1.92505e-10
-5.51584e-12
4.38052e-11
-1.99615e-11
1.13504e-10
-4.16781e-11
1.70141e-10
-6.92694e-11
2.155e-10
-1.01636e-10
2.52316e-10
-1.37869e-10
2.82092e-10
-1.77155e-10
3.05089e-10
-2.18712e-10
3.20967e-10
-2.61772e-10
3.29279e-10
-3.05565e-10
3.29697e-10
-3.49317e-10
3.22074e-10
-3.92238e-10
3.0643e-10
-4.33518e-10
2.82925e-10
-4.72316e-10
2.51845e-10
-5.07749e-10
2.13596e-10
-5.38892e-10
1.68728e-10
-5.64785e-10
1.17966e-10
-5.84471e-10
6.22735e-11
-5.97077e-10
2.92817e-12
-6.01953e-10
-5.84139e-11
-5.98924e-10
-1.19659e-10
-5.8858e-10
-1.78414e-10
-5.72534e-10
-2.32399e-10
-5.53332e-10
-2.8044e-10
-5.33146e-10
-3.24529e-10
-5.11012e-10
-3.71496e-10
-4.8283e-10
-4.2733e-10
-4.43739e-10
-4.91766e-10
-3.8409e-10
-5.64776e-10
-3.03925e-10
-6.18706e-10
-2.35383e-10
-5.94467e-10
-1.73674e-10
-5.54924e-10
-1.14071e-10
-5.09768e-10
-6.0721e-11
-4.51841e-10
6.59251e-12
-4.37173e-10
9.35447e-11
-4.41231e-10
1.8363e-10
-4.15245e-10
2.68029e-10
-3.61023e-10
3.41107e-10
-2.80669e-10
3.99878e-10
-1.79134e-10
4.41539e-10
-5.86024e-11
4.6362e-10
7.8007e-11
4.64066e-10
2.26995e-10
4.41361e-10
3.839e-10
3.94696e-10
5.43501e-10
3.2417e-10
6.99941e-10
2.30944e-10
8.46975e-10
1.17322e-10
9.78351e-10
-1.32965e-11
1.08827e-09
1.1718e-09
-1.56583e-10
-5.89275e-12
4.96978e-11
-2.13503e-11
1.28963e-10
-4.46143e-11
1.93406e-10
-7.42122e-11
2.45099e-10
-1.08987e-10
2.8709e-10
-1.47991e-10
3.21096e-10
-1.90385e-10
3.47484e-10
-2.35379e-10
3.65963e-10
-2.82204e-10
3.76105e-10
-3.30094e-10
3.7759e-10
-3.78281e-10
3.70264e-10
-4.25979e-10
3.54129e-10
-4.72366e-10
3.29314e-10
-5.16571e-10
2.96051e-10
-5.57649e-10
2.54674e-10
-5.9456e-10
2.05638e-10
-6.26152e-10
1.49559e-10
-6.51176e-10
8.72977e-11
-6.68339e-10
2.00919e-11
-6.76474e-10
-5.02793e-11
-6.74859e-10
-1.21274e-10
-6.6376e-10
-1.89513e-10
-6.45147e-10
-2.51012e-10
-6.23215e-10
-3.02372e-10
-6.02603e-10
-3.45141e-10
-5.82281e-10
-3.91818e-10
-5.55956e-10
-4.53655e-10
-5.20979e-10
-5.26745e-10
-4.62423e-10
-6.23332e-10
-3.71304e-10
-7.09825e-10
-3.11785e-10
-6.53987e-10
-2.64628e-10
-6.02081e-10
-1.90436e-10
-5.83961e-10
-1.45769e-10
-4.96509e-10
-3.57099e-11
-5.47233e-10
8.42612e-11
-5.61203e-10
2.00058e-10
-5.31043e-10
3.03583e-10
-4.64549e-10
3.91913e-10
-3.68998e-10
4.63322e-10
-2.50544e-10
5.15344e-10
-1.10626e-10
5.45558e-10
4.77915e-11
5.51754e-10
2.20797e-10
5.32141e-10
4.03512e-10
4.85616e-10
5.90026e-10
4.12067e-10
7.7349e-10
3.12639e-10
9.46401e-10
1.89882e-10
1.10111e-09
4.77174e-11
1.23043e-09
1.32829e-09
-1.08769e-10
-6.26566e-12
5.5964e-11
-2.27201e-11
1.45419e-10
-4.75061e-11
2.18194e-10
-7.9079e-11
2.76672e-10
-1.16231e-10
3.24242e-10
-1.57984e-10
3.62849e-10
-2.03483e-10
3.92985e-10
-2.5194e-10
4.14422e-10
-3.02594e-10
4.26762e-10
-3.54699e-10
4.29698e-10
-4.07505e-10
4.23073e-10
-4.60245e-10
4.0687e-10
-5.12106e-10
3.81176e-10
-5.62212e-10
3.46156e-10
-6.09578e-10
3.0204e-10
-6.53077e-10
2.49137e-10
-6.91386e-10
1.87867e-10
-7.22943e-10
1.18855e-10
-7.4595e-10
4.3099e-11
-7.58491e-10
-3.77383e-11
-7.58872e-10
-1.20895e-10
-7.464e-10
-2.01985e-10
-7.22801e-10
-2.74611e-10
-6.94395e-10
-3.30777e-10
-6.70239e-10
-3.69298e-10
-6.48123e-10
-4.13934e-10
-6.14834e-10
-4.86945e-10
-5.68835e-10
-5.72744e-10
-5.24953e-10
-6.67214e-10
-4.06682e-10
-8.28096e-10
-3.94951e-10
-6.65717e-10
-3.84604e-10
-6.12428e-10
-3.32709e-10
-6.35856e-10
-2.13279e-10
-6.1594e-10
-3.59156e-11
-7.24599e-10
1.1522e-10
-7.12339e-10
2.51003e-10
-6.66827e-10
3.69588e-10
-5.83134e-10
4.70473e-10
-4.69883e-10
5.52513e-10
-3.32583e-10
6.13477e-10
-1.71592e-10
6.50845e-10
1.04227e-11
6.62114e-10
2.09527e-10
6.45016e-10
4.20611e-10
5.97926e-10
6.37115e-10
5.20347e-10
8.51068e-10
4.13296e-10
1.05345e-09
2.79543e-10
1.23486e-09
1.23615e-10
1.38636e-09
1.50039e-09
-4.84825e-11
-6.62794e-12
6.25933e-11
-2.40471e-11
1.62841e-10
-5.03034e-11
2.44452e-10
-8.37859e-11
3.10156e-10
-1.23244e-10
3.63701e-10
-1.67676e-10
4.07283e-10
-2.16224e-10
4.41535e-10
-2.68109e-10
4.66307e-10
-3.22591e-10
4.81247e-10
-3.78954e-10
4.86063e-10
-4.36482e-10
4.80603e-10
-4.9444e-10
4.64829e-10
-5.52048e-10
4.38785e-10
-6.08449e-10
4.02557e-10
-6.62664e-10
3.56255e-10
-7.13532e-10
3.00005e-10
-7.59626e-10
2.33962e-10
-7.99147e-10
1.58376e-10
-8.29807e-10
7.37594e-11
-8.48812e-10
-1.87348e-11
-8.53056e-10
-1.16652e-10
-8.39971e-10
-2.15071e-10
-8.0965e-10
-3.04933e-10
-7.70484e-10
-3.69943e-10
-7.40318e-10
-3.99464e-10
-7.10844e-10
-4.43409e-10
-6.55099e-10
-5.4269e-10
-5.58219e-10
-6.69625e-10
-4.29631e-10
-7.95801e-10
-3.49253e-10
-9.08473e-10
-3.33611e-10
-6.81359e-10
-4.11221e-10
-5.34818e-10
-3.55839e-10
-6.91239e-10
-9.71441e-11
-8.74637e-10
4.98957e-11
-8.71641e-10
2.07233e-10
-8.69679e-10
3.48168e-10
-8.07762e-10
4.73181e-10
-7.08147e-10
5.81581e-10
-5.78283e-10
6.71067e-10
-4.2207e-10
7.38965e-10
-2.39489e-10
7.82228e-10
-3.28405e-11
7.97755e-10
1.94001e-10
7.82525e-10
4.3584e-10
7.34114e-10
6.85524e-10
6.51358e-10
9.33822e-10
5.34977e-10
1.16983e-09
3.87936e-10
1.3819e-09
2.1547e-10
1.55883e-09
1.69112e-09
2.47339e-11
-6.97144e-12
6.95664e-11
-2.53015e-11
1.81173e-10
-5.29438e-11
2.72096e-10
-8.82287e-11
3.45442e-10
-1.29871e-10
4.05344e-10
-1.76856e-10
4.54268e-10
-2.2833e-10
4.9301e-10
-2.83534e-10
5.21512e-10
-3.4176e-10
5.39474e-10
-4.02332e-10
5.46636e-10
-4.64577e-10
5.42849e-10
-5.27805e-10
5.28059e-10
-5.91285e-10
5.02264e-10
-6.54203e-10
4.65474e-10
-7.15626e-10
4.17678e-10
-7.74435e-10
3.58815e-10
-8.29226e-10
2.88754e-10
-8.7815e-10
2.073e-10
-9.18663e-10
1.14272e-10
-9.47231e-10
9.83252e-12
-9.59189e-10
-1.04695e-10
-9.49188e-10
-2.25073e-10
-9.13534e-10
-3.40586e-10
-8.63395e-10
-4.20082e-10
-8.31937e-10
-4.30922e-10
-8.01308e-10
-4.74038e-10
-7.21997e-10
-6.22001e-10
-6.00794e-10
-7.90827e-10
-3.62042e-10
-1.03455e-09
-2.49584e-10
-1.02093e-09
-2.21557e-10
-7.09384e-10
-1.93804e-10
-5.62572e-10
-1.27294e-10
-7.5775e-10
3.21481e-12
-1.00515e-09
1.82208e-10
-1.05064e-09
3.3689e-10
-1.02436e-09
4.80095e-10
-9.50967e-10
6.10376e-10
-8.38426e-10
7.23824e-10
-6.91732e-10
8.18927e-10
-5.17174e-10
8.92499e-10
-3.1306e-10
9.40888e-10
-8.12296e-11
9.60231e-10
1.74657e-10
9.4655e-10
4.49519e-10
8.96309e-10
7.35766e-10
8.07308e-10
1.02282e-09
6.79714e-10
1.29742e-09
5.16661e-10
1.54495e-09
3.24269e-10
1.75122e-09
1.90424e-09
1.11152e-10
-7.28662e-12
7.68544e-11
-2.64483e-11
2.00336e-10
-5.53542e-11
3.01002e-10
-9.22854e-11
3.82373e-10
-1.35932e-10
4.48991e-10
-1.85276e-10
5.03612e-10
-2.39479e-10
5.47212e-10
-2.97809e-10
5.79842e-10
-3.596e-10
6.01266e-10
-4.24223e-10
6.11259e-10
-4.91054e-10
6.0968e-10
-5.59454e-10
5.96459e-10
-6.28737e-10
5.71548e-10
-6.98144e-10
5.34881e-10
-7.66803e-10
4.86338e-10
-8.33691e-10
4.25703e-10
-8.97556e-10
3.5262e-10
-9.56779e-10
2.66522e-10
-1.00906e-09
1.66552e-10
-1.05075e-09
5.15184e-11
-1.07595e-09
-7.94909e-11
-1.0763e-09
-2.24726e-10
-1.03975e-09
-3.77133e-10
-9.84579e-10
-4.75253e-10
-9.57086e-10
-4.58415e-10
-9.50094e-10
-4.8103e-10
-8.59042e-10
-7.13053e-10
-6.88112e-10
-9.61756e-10
-6.18414e-10
-1.10425e-09
-5.61967e-10
-1.07738e-09
-3.61525e-10
-9.09826e-10
-9.97928e-11
-8.24305e-10
9.08632e-11
-9.48408e-10
2.08113e-10
-1.1224e-09
3.48691e-10
-1.19121e-09
4.96721e-10
-1.17239e-09
6.41422e-10
-1.09567e-09
7.74598e-10
-9.71603e-10
8.92855e-10
-8.09987e-10
9.9328e-10
-6.17598e-10
1.0724e-09
-3.9218e-10
1.12597e-09
-1.34804e-10
1.14951e-09
1.51118e-10
1.13794e-09
4.61087e-10
1.08608e-09
7.87627e-10
9.90142e-10
1.11876e-09
8.49429e-10
1.43814e-09
6.67237e-10
1.72714e-09
4.50849e-10
1.96761e-09
2.1443e-09
2.10788e-10
-7.56274e-12
8.4418e-11
-2.74483e-11
2.20222e-10
-5.74524e-11
3.31006e-10
-9.58193e-11
4.2074e-10
-1.41226e-10
4.94398e-10
-1.92661e-10
5.55046e-10
-2.4931e-10
6.0386e-10
-3.10481e-10
6.41013e-10
-3.75557e-10
6.66343e-10
-4.4396e-10
6.79662e-10
-5.15117e-10
6.80838e-10
-5.88432e-10
6.69775e-10
-6.63252e-10
6.46368e-10
-7.38838e-10
6.10468e-10
-8.14342e-10
5.61844e-10
-8.888e-10
5.00162e-10
-9.61124e-10
4.24944e-10
-1.0301e-09
3.35494e-10
-1.0943e-09
2.30751e-10
-1.15147e-09
1.08691e-10
-1.19676e-09
-3.42022e-11
-1.22212e-09
-1.99364e-10
-1.20278e-09
-3.96473e-10
-1.12058e-09
-5.57453e-10
-1.21161e-09
-3.67383e-10
-1.19683e-09
-4.95809e-10
-1.03036e-09
-8.7952e-10
-9.15286e-10
-1.07683e-09
-8.14176e-10
-1.20536e-09
-6.71942e-10
-1.21961e-09
-4.28481e-10
-1.15329e-09
-1.25319e-10
-1.12747e-09
1.35242e-10
-1.20897e-09
3.30966e-10
-1.31812e-09
5.04245e-10
-1.36449e-09
6.70635e-10
-1.33878e-09
8.2138e-10
-1.24641e-09
9.58446e-10
-1.10867e-09
1.08224e-09
-9.33777e-10
1.18871e-09
-7.24077e-10
1.2743e-09
-4.77765e-10
1.33415e-09
-1.9466e-10
1.36354e-09
1.21729e-10
1.35606e-09
4.68577e-10
1.30407e-09
8.39616e-10
1.20135e-09
1.22148e-09
1.04583e-09
1.59365e-09
8.41018e-10
1.93196e-09
5.95814e-10
2.21281e-09
2.4168e-09
3.23313e-10
-7.78805e-12
9.22062e-11
-2.82588e-11
2.40693e-10
-5.91496e-11
3.61897e-10
-9.86819e-11
4.60273e-10
-1.45533e-10
5.41249e-10
-1.9871e-10
6.08223e-10
-2.57435e-10
6.62585e-10
-3.21066e-10
7.04644e-10
-3.89043e-10
7.34319e-10
-4.60845e-10
7.51464e-10
-5.35951e-10
7.55945e-10
-6.13797e-10
7.47621e-10
-6.9373e-10
7.26302e-10
-7.7497e-10
6.91709e-10
-8.56575e-10
6.4345e-10
-9.37434e-10
5.81022e-10
-1.0163e-09
5.03807e-10
-1.09188e-09
4.11073e-10
-1.16309e-09
3.01962e-10
-1.22975e-09
1.75354e-10
-1.28957e-09
2.56169e-11
-1.3355e-09
-1.53428e-10
-1.3859e-09
-3.46074e-10
-1.37497e-09
-5.68381e-10
-1.27167e-09
-4.70685e-10
-1.16703e-09
-6.00447e-10
-1.09843e-09
-9.48122e-10
-1.00017e-09
-1.17509e-09
-8.82237e-10
-1.3233e-09
-7.0785e-10
-1.394e-09
-4.47724e-10
-1.41341e-09
-1.3996e-10
-1.43523e-09
1.546e-10
-1.50353e-09
4.08889e-10
-1.57241e-09
6.31768e-10
-1.58737e-09
8.27162e-10
-1.53418e-09
1.00144e-09
-1.4207e-09
1.15098e-09
-1.25821e-09
1.28199e-09
-1.06479e-09
1.39625e-09
-8.38337e-10
1.49027e-09
-5.71782e-10
1.55851e-09
-2.629e-10
1.59695e-09
8.32845e-11
1.5977e-09
4.67828e-10
1.54932e-09
8.87996e-10
1.44158e-09
1.32923e-09
1.27021e-09
1.76502e-09
1.03905e-09
2.16311e-09
7.59406e-10
2.49246e-09
2.72828e-09
4.47932e-10
-7.95015e-12
1.00156e-10
-2.8835e-11
2.61578e-10
-6.03519e-11
3.93415e-10
-1.00717e-10
5.00638e-10
-1.48621e-10
5.89154e-10
-2.03107e-10
6.62709e-10
-2.63445e-10
7.22923e-10
-3.29054e-10
7.70253e-10
-3.99444e-10
8.0471e-10
-4.74164e-10
8.26184e-10
-5.5275e-10
8.34531e-10
-6.34668e-10
8.2954e-10
-7.19248e-10
8.10884e-10
-8.0561e-10
7.78072e-10
-8.92582e-10
7.30423e-10
-9.78621e-10
6.67062e-10
-1.06173e-09
5.86915e-10
-1.13935e-09
4.88687e-10
-1.20815e-09
3.7077e-10
-1.2637e-09
2.309e-10
-1.30263e-09
6.45508e-11
-1.31191e-09
-1.44147e-10
-1.19819e-09
-4.59797e-10
-1.24983e-09
-5.16742e-10
-1.23566e-09
-4.84854e-10
-1.15626e-09
-6.79846e-10
-1.11397e-09
-9.90415e-10
-1.03742e-09
-1.25163e-09
-9.11043e-10
-1.44968e-09
-7.22364e-10
-1.58268e-09
-4.63154e-10
-1.67263e-09
-1.50415e-10
-1.74797e-09
1.70424e-10
-1.82437e-09
4.7184e-10
-1.87383e-09
7.45052e-10
-1.86058e-09
9.83672e-10
-1.7728e-09
1.18123e-09
-1.61825e-09
1.34181e-09
-1.41879e-09
1.48058e-09
-1.20356e-09
1.60356e-09
-9.61311e-10
1.70789e-09
-6.76118e-10
1.78645e-09
-3.41455e-10
1.8392e-09
3.05382e-11
1.85598e-09
4.51047e-10
1.81874e-09
9.25232e-10
1.71041e-09
1.43756e-09
1.52325e-09
1.95218e-09
1.26186e-09
2.42449e-09
9.41297e-10
2.81302e-09
3.08635e-09
5.83221e-10
-8.03637e-12
1.08193e-10
-2.91312e-11
2.82674e-10
-6.0963e-11
4.25248e-10
-1.01761e-10
5.41438e-10
-1.50252e-10
6.37645e-10
-2.05523e-10
7.17981e-10
-2.6691e-10
7.8431e-10
-3.3391e-10
8.37253e-10
-4.06119e-10
8.76919e-10
-4.83175e-10
9.0324e-10
-5.64695e-10
9.16051e-10
-6.50205e-10
9.1505e-10
-7.39047e-10
8.99726e-10
-8.30267e-10
8.69292e-10
-9.2248e-10
8.22637e-10
-1.01371e-09
7.58289e-10
-1.10119e-09
6.74398e-10
-1.18117e-09
5.68662e-10
-1.24846e-09
4.38063e-10
-1.29649e-09
2.78937e-10
-1.31969e-09
8.77444e-11
-1.31904e-09