/*--------------------------------*- C++ -*----------------------------------*\
| =========                 |                                                 |
| \\      /  F ield         | OpenFOAM: The Open Source CFD Toolbox           |
|  \\    /   O peration     | Version:  2.4.0                                 |
|   \\  /    A nd           | Web:      www.OpenFOAM.org                      |
|    \\/     M anipulation  |                                                 |
\*---------------------------------------------------------------------------*/
FoamFile
{
    version     2.0;
    format      ascii;
    class       volVectorField;
    location    "0.271";
    object      U;
}
// * * * * * * * * * * * * * * * * * * * * * * * * * * * * * * * * * * * * * //

dimensions      [0 1 -1 0 0 0 0];

internalField   nonuniform List<vector> 
60000
(
(-0.000317517 0.000111528 0)
(-0.00125331 0.000117998 0)
(-0.0022612 0.000121238 0)
(-0.00326905 0.00011927 0)
(-0.00426505 0.000116275 0)
(-0.00524605 0.000112467 0)
(-0.00620824 0.000107993 0)
(-0.00714789 0.000102908 0)
(-0.0080612 9.72775e-05 0)
(-0.00894438 9.11401e-05 0)
(-0.00979363 8.45541e-05 0)
(-0.0106053 7.75786e-05 0)
(-0.0113758 7.02565e-05 0)
(-0.0121017 6.26561e-05 0)
(-0.0127797 5.47858e-05 0)
(-0.0134067 4.66616e-05 0)
(-0.0139797 3.83041e-05 0)
(-0.0144956 2.97046e-05 0)
(-0.0149516 2.08669e-05 0)
(-0.0153451 1.17682e-05 0)
(-0.015673 2.38104e-06 0)
(-0.0159327 -7.35315e-06 0)
(-0.0161211 -1.75039e-05 0)
(-0.0162354 -2.8256e-05 0)
(-0.0162732 -4.00913e-05 0)
(-0.0162301 -5.01717e-05 0)
(-0.0161017 -6.13179e-05 0)
(-0.0158854 -7.31123e-05 0)
(-0.0155777 -8.59789e-05 0)
(-0.0151747 -9.96518e-05 0)
(-0.0146728 -0.000113921 0)
(-0.014069 -0.000128687 0)
(-0.0133609 -0.000143814 0)
(-0.012546 -0.000159322 0)
(-0.0116217 -0.000175133 0)
(-0.0105863 -0.000191143 0)
(-0.0094386 -0.00020723 0)
(-0.00817822 -0.000223251 0)
(-0.00680544 -0.000239043 0)
(-0.00532143 -0.000254448 0)
(-0.00372817 -0.000269304 0)
(-0.00202847 -0.000283487 0)
(-0.000226675 -0.000297004 0)
(0.00167388 -0.000308854 0)
(0.00366829 -0.000320177 0)
(0.0057503 -0.000330079 0)
(0.00791499 -0.000338831 0)
(0.0101552 -0.000346679 0)
(0.012466 -0.000352288 0)
(0.0148419 -0.000356998 0)
(0.017277 -0.00036106 0)
(0.0197657 -0.000364344 0)
(0.0223024 -0.00036668 0)
(0.0248828 -0.000368244 0)
(0.0275022 -0.000368974 0)
(0.030156 -0.000369119 0)
(0.03284 -0.00036862 0)
(0.0355495 -0.000367498 0)
(0.0382798 -0.000365806 0)
(0.0410259 -0.000363462 0)
(0.0437826 -0.000360355 0)
(0.0465441 -0.000356401 0)
(0.0493042 -0.000351507 0)
(0.052056 -0.000345552 0)
(0.0547921 -0.000338427 0)
(0.0575046 -0.000330006 0)
(0.0601849 -0.000320166 0)
(0.0628238 -0.000308789 0)
(0.0654116 -0.000295749 0)
(0.0679378 -0.00028092 0)
(0.0703916 -0.000264182 0)
(0.0727616 -0.000245427 0)
(0.0750359 -0.000224576 0)
(0.0772023 -0.000201576 0)
(0.0792485 -0.000176415 0)
(0.0811624 -0.000149145 0)
(0.082932 -0.000119908 0)
(0.0845466 -8.89495e-05 0)
(0.0859968 -5.66373e-05 0)
(0.087275 -2.34696e-05 0)
(0.0883766 9.9345e-06 0)
(0.0893002 4.28468e-05 0)
(0.0900482 7.44658e-05 0)
(0.0906272 0.000103963 0)
(0.0910485 0.000130552 0)
(0.0913274 0.000153576 0)
(0.0914832 0.000172641 0)
(0.0915389 0.000187797 0)
(0.091518 0.000197505 0)
(0.0914438 0.000201924 0)
(0.0913397 0.000202659 0)
(0.091226 0.00020053 0)
(0.0911181 0.00019591 0)
(0.0910273 0.000189282 0)
(0.0909615 0.00018102 0)
(0.090925 0.000171601 0)
(0.0909181 0.000161176 0)
(0.0909361 0.00015331 0)
(0.0909721 0.000150287 0)
(0.0910008 0.000156172 0)
(-0.00060928 0.000703179 0)
(-0.00253074 0.000906604 0)
(-0.00455028 0.000929697 0)
(-0.00656717 0.00092368 0)
(-0.00856476 0.000913054 0)
(-0.0105399 0.000899157 0)
(-0.012487 0.000882084 0)
(-0.0144 0.000861729 0)
(-0.0162728 0.000838016 0)
(-0.0180992 0.000810871 0)
(-0.0198727 0.000780311 0)
(-0.0215868 0.000746394 0)
(-0.0232351 0.000709201 0)
(-0.0248111 0.000668857 0)
(-0.0263087 0.000625426 0)
(-0.0277215 0.000579028 0)
(-0.0290436 0.000529783 0)
(-0.0302692 0.000477788 0)
(-0.0313928 0.000423144 0)
(-0.0324089 0.000365892 0)
(-0.0333121 0.000306047 0)
(-0.0340971 0.000243578 0)
(-0.0347588 0.000178433 0)
(-0.0352919 0.000110457 0)
(-0.0356906 3.94814e-05 0)
(-0.0359503 -3.22697e-05 0)
(-0.0360654 -0.000107631 0)
(-0.036029 -0.000187416 0)
(-0.0358361 -0.000270751 0)
(-0.0354804 -0.000357447 0)
(-0.0349562 -0.000446869 0)
(-0.0342585 -0.000538403 0)
(-0.0333839 -0.000631924 0)
(-0.0323288 -0.000727489 0)
(-0.0310896 -0.00082476 0)
(-0.029664 -0.000923264 0)
(-0.0280501 -0.00102247 0)
(-0.0262474 -0.00112177 0)
(-0.0242562 -0.0012205 0)
(-0.0220781 -0.00131798 0)
(-0.0197156 -0.00141353 0)
(-0.0171727 -0.00150655 0)
(-0.0144546 -0.00159656 0)
(-0.0115665 -0.00168185 0)
(-0.00851524 -0.00176367 0)
(-0.00530838 -0.00184062 0)
(-0.00195357 -0.00191292 0)
(0.00154042 -0.00198058 0)
(0.00516616 -0.00204186 0)
(0.0089147 -0.00209886 0)
(0.0127787 -0.00215114 0)
(0.0167493 -0.00219945 0)
(0.0208187 -0.00224322 0)
(0.0249796 -0.00228293 0)
(0.0292248 -0.00231849 0)
(0.0335468 -0.00235033 0)
(0.0379387 -0.00237809 0)
(0.0423932 -0.00240169 0)
(0.0469028 -0.00242115 0)
(0.0514596 -0.00243621 0)
(0.0560556 -0.00244648 0)
(0.0606824 -0.0024516 0)
(0.0653307 -0.00245115 0)
(0.0699908 -0.00244467 0)
(0.0746524 -0.00243169 0)
(0.0793045 -0.00241172 0)
(0.0839355 -0.00238429 0)
(0.0885331 -0.00234895 0)
(0.0930843 -0.0023052 0)
(0.0975754 -0.0022526 0)
(0.101992 -0.0021907 0)
(0.106319 -0.0021191 0)
(0.110542 -0.0020375 0)
(0.114643 -0.0019457 0)
(0.118606 -0.00184366 0)
(0.122415 -0.00173155 0)
(0.126054 -0.00160986 0)
(0.129506 -0.00147948 0)
(0.132758 -0.00134174 0)
(0.135797 -0.00119848 0)
(0.138614 -0.00105207 0)
(0.141202 -0.00090537 0)
(0.14356 -0.000761674 0)
(0.145693 -0.000624551 0)
(0.147609 -0.000497646 0)
(0.149323 -0.000384416 0)
(0.150858 -0.000287767 0)
(0.15224 -0.000209683 0)
(0.153498 -0.000152394 0)
(0.154666 -0.000115499 0)
(0.155774 -9.65033e-05 0)
(0.15685 -9.21956e-05 0)
(0.157917 -9.90665e-05 0)
(0.158992 -0.000113504 0)
(0.160082 -0.000132349 0)
(0.161189 -0.000153 0)
(0.162312 -0.00017344 0)
(0.163443 -0.000188844 0)
(0.164574 -0.000195049 0)
(0.165688 -0.000184459 0)
(-0.00073914 0.00161943 0)
(-0.00310148 0.00206523 0)
(-0.0055538 0.0021019 0)
(-0.00800441 0.00208786 0)
(-0.0104311 0.0020655 0)
(-0.012831 0.00203678 0)
(-0.0151973 0.00200173 0)
(-0.0175237 0.00196012 0)
(-0.0198031 0.0019118 0)
(-0.022029 0.00185666 0)
(-0.0241943 0.00179471 0)
(-0.0262922 0.00172598 0)
(-0.0283157 0.00165058 0)
(-0.0302579 0.00156865 0)
(-0.0321121 0.00148034 0)
(-0.0338716 0.00138585 0)
(-0.03553 0.00128538 0)
(-0.037081 0.00117911 0)
(-0.0385183 0.0010672 0)
(-0.0398359 0.000949751 0)
(-0.0410276 0.00082681 0)
(-0.0420873 0.000698379 0)
(-0.043009 0.000564441 0)
(-0.0437865 0.000425043 0)
(-0.0444133 0.000280397 0)
(-0.0448833 0.00012957 0)
(-0.0451916 -2.7412e-05 0)
(-0.0453314 -0.00019179 0)
(-0.0452955 -0.00036237 0)
(-0.0450784 -0.00053926 0)
(-0.0446738 -0.000721701 0)
(-0.0440749 -0.000908831 0)
(-0.0432765 -0.00110016 0)
(-0.0422747 -0.00129539 0)
(-0.0410657 -0.00149389 0)
(-0.039647 -0.00169472 0)
(-0.038017 -0.00189681 0)
(-0.0361751 -0.00209898 0)
(-0.0341223 -0.00229998 0)
(-0.0318604 -0.00249851 0)
(-0.0293928 -0.00269327 0)
(-0.0267241 -0.00288303 0)
(-0.0238601 -0.00306665 0)
(-0.0208073 -0.00324265 0)
(-0.0175733 -0.0034109 0)
(-0.0141666 -0.0035704 0)
(-0.010596 -0.00372088 0)
(-0.00687096 -0.00386214 0)
(-0.00300043 -0.00399357 0)
(0.00100625 -0.00411602 0)
(0.00514042 -0.00422885 0)
(0.00939247 -0.00433339 0)
(0.0137536 -0.00442958 0)
(0.018216 -0.00451771 0)
(0.0227713 -0.00459811 0)
(0.027412 -0.00467089 0)
(0.0321305 -0.00473588 0)
(0.0369187 -0.00479298 0)
(0.0417688 -0.00484195 0)
(0.0466728 -0.00488245 0)
(0.0516226 -0.00491398 0)
(0.0566093 -0.00493597 0)
(0.0616239 -0.00494775 0)
(0.0666566 -0.00494859 0)
(0.0716975 -0.0049377 0)
(0.0767357 -0.00491432 0)
(0.08176 -0.00487766 0)
(0.0867585 -0.00482694 0)
(0.0917187 -0.00476135 0)
(0.0966275 -0.00468008 0)
(0.101471 -0.00458236 0)
(0.106235 -0.00446746 0)
(0.110904 -0.00433475 0)
(0.115463 -0.00418375 0)
(0.119895 -0.00401424 0)
(0.124184 -0.00382631 0)
(0.128312 -0.00362058 0)
(0.132265 -0.00339827 0)
(0.136025 -0.00316136 0)
(0.13958 -0.00291273 0)
(0.142917 -0.00265615 0)
(0.146027 -0.00239635 0)
(0.148907 -0.00213889 0)
(0.151555 -0.00189001 0)
(0.153979 -0.00165628 0)
(0.156189 -0.00144427 0)
(0.158204 -0.00125999 0)
(0.160046 -0.00110839 0)
(0.161746 -0.000992015 0)
(0.163335 -0.000911335 0)
(0.164846 -0.000864353 0)
(0.166309 -0.000846265 0)
(0.167749 -0.000850187 0)
(0.169183 -0.000868563 0)
(0.170621 -0.000894139 0)
(0.172063 -0.000920558 0)
(0.173503 -0.000942136 0)
(0.174933 -0.000954413 0)
(0.176345 -0.000952739 0)
(0.177721 -0.000929697 0)
(-0.000789411 0.00261983 0)
(-0.00331015 0.00333432 0)
(-0.00591538 0.00338653 0)
(-0.00852279 0.00336427 0)
(-0.0111058 0.00332954 0)
(-0.013662 0.0032852 0)
(-0.0161846 0.00323128 0)
(-0.0186672 0.00316744 0)
(-0.0211028 0.00309348 0)
(-0.0234847 0.00300926 0)
(-0.0258059 0.00291478 0)
(-0.0280593 0.00281007 0)
(-0.030238 0.00269524 0)
(-0.0323351 0.00257047 0)
(-0.0343435 0.00243595 0)
(-0.0362566 0.00229194 0)
(-0.0380678 0.0021387 0)
(-0.0397703 0.00197645 0)
(-0.0413578 0.00180539 0)
(-0.0428237 0.0016256 0)
(-0.0441615 0.00143713 0)
(-0.0453645 0.00123994 0)
(-0.0464262 0.00103396 0)
(-0.0473398 0.000819084 0)
(-0.0480981 0.000595249 0)
(-0.0486943 0.000361914 0)
(-0.0491217 0.000119343 0)
(-0.0493736 -0.000132364 0)
(-0.0494431 -0.000394115 0)
(-0.049324 -0.000665284 0)
(-0.0490097 -0.000945564 0)
(-0.0484937 -0.00123381 0)
(-0.0477698 -0.00152893 0)
(-0.0468332 -0.00182994 0)
(-0.0456803 -0.00213578 0)
(-0.0443085 -0.00244504 0)
(-0.042716 -0.00275607 0)
(-0.0409027 -0.00306706 0)
(-0.0388695 -0.0033761 0)
(-0.0366188 -0.00368123 0)
(-0.0341544 -0.00398049 0)
(-0.0314814 -0.00427202 0)
(-0.028606 -0.00455407 0)
(-0.0255355 -0.00482494 0)
(-0.0222782 -0.00508368 0)
(-0.0188431 -0.00532922 0)
(-0.0152398 -0.005561 0)
(-0.0114781 -0.00577864 0)
(-0.00756789 -0.00598186 0)
(-0.00351894 -0.00617116 0)
(0.000659433 -0.00634667 0)
(0.00495726 -0.00650851 0)
(0.00936522 -0.00665817 0)
(0.0138752 -0.00679532 0)
(0.0184784 -0.00692061 0)
(0.0231669 -0.00703409 0)
(0.0279329 -0.00713604 0)
(0.0327681 -0.0072262 0)
(0.0376644 -0.00730404 0)
(0.0426136 -0.0073692 0)
(0.0476075 -0.00742108 0)
(0.0526371 -0.0074589 0)
(0.0576932 -0.00748175 0)
(0.062766 -0.00748871 0)
(0.0678455 -0.00747873 0)
(0.0729209 -0.00745077 0)
(0.077981 -0.00740378 0)
(0.083014 -0.00733666 0)
(0.0880077 -0.00724834 0)
(0.0929491 -0.0071377 0)
(0.0978246 -0.00700363 0)
(0.10262 -0.00684508 0)
(0.107321 -0.00666111 0)
(0.111911 -0.00645095 0)
(0.116375 -0.00621412 0)
(0.120696 -0.00595062 0)
(0.124857 -0.00566107 0)
(0.128843 -0.00534695 0)
(0.132637 -0.00501077 0)
(0.136225 -0.00465628 0)
(0.139594 -0.00428854 0)
(0.142735 -0.00391397 0)
(0.145643 -0.0035403 0)
(0.148317 -0.00317628 0)
(0.15076 -0.00283138 0)
(0.152983 -0.00251518 0)
(0.155004 -0.00223673 0)
(0.156844 -0.0020036 0)
(0.158532 -0.00182061 0)
(0.160098 -0.0016894 0)
(0.161574 -0.00160765 0)
(0.162989 -0.00156856 0)
(0.164368 -0.00156187 0)
(0.165724 -0.00157571 0)
(0.167064 -0.00159861 0)
(0.168386 -0.00162073 0)
(0.169683 -0.00163434 0)
(0.170944 -0.00163379 0)
(0.172163 -0.00161439 0)
(0.173321 -0.00156983 0)
(-0.000808138 0.00365292 0)
(-0.00338143 0.00464037 0)
(-0.00603618 0.00470984 0)
(-0.00869723 0.00468024 0)
(-0.0113347 0.00463387 0)
(-0.0139472 0.00457474 0)
(-0.0165277 0.00450284 0)
(-0.01907 0.00441771 0)
(-0.0215673 0.00431905 0)
(-0.0240126 0.00420668 0)
(-0.026399 0.00408054 0)
(-0.0287192 0.00394064 0)
(-0.0309662 0.00378711 0)
(-0.0331328 0.00362014 0)
(-0.0352121 0.00343999 0)
(-0.0371969 0.00324695 0)
(-0.0390805 0.00304132 0)
(-0.0408561 0.00282334 0)
(-0.0425169 0.00259321 0)
(-0.0440561 0.00235102 0)
(-0.0454668 0.00209675 0)
(-0.046742 0.00183035 0)
(-0.0478748 0.00155167 0)
(-0.0488579 0.00126054 0)
(-0.0496838 0.000956783 0)
(-0.0503453 0.000640081 0)
(-0.0508347 0.000310508 0)
(-0.0511448 -3.18272e-05 0)
(-0.0512687 -0.000387591 0)
(-0.0511991 -0.000756084 0)
(-0.0509297 -0.00113689 0)
(-0.0504541 -0.00152886 0)
(-0.0497662 -0.00193055 0)
(-0.0488608 -0.00234036 0)
(-0.0477339 -0.00275664 0)
(-0.0463828 -0.00317741 0)
(-0.0448057 -0.00360042 0)
(-0.0430026 -0.00402319 0)
(-0.0409745 -0.00444312 0)
(-0.038724 -0.00485752 0)
(-0.0362552 -0.00526376 0)
(-0.0335735 -0.0056593 0)
(-0.0306856 -0.00604182 0)
(-0.0275992 -0.00640922 0)
(-0.0243232 -0.00675995 0)
(-0.0208669 -0.00709271 0)
(-0.0172404 -0.00740671 0)
(-0.0134542 -0.00770146 0)
(-0.00951839 -0.00797678 0)
(-0.00544335 -0.00823309 0)
(-0.00123845 -0.00847078 0)
(0.00308567 -0.0086905 0)
(0.00751947 -0.00889296 0)
(0.0120549 -0.00907875 0)
(0.0166828 -0.00924842 0)
(0.0213952 -0.00940218 0)
(0.0261839 -0.00954047 0)
(0.0310409 -0.00966292 0)
(0.0359577 -0.00976892 0)
(0.0409262 -0.00985805 0)
(0.0459378 -0.00992954 0)
(0.0509837 -0.0099824 0)
(0.0560544 -0.0100155 0)
(0.0611402 -0.0100277 0)
(0.0662307 -0.0100178 0)
(0.0713152 -0.0099844 0)
(0.0763824 -0.0099262 0)
(0.0814205 -0.00984186 0)
(0.086417 -0.00972999 0)
(0.0913589 -0.0095892 0)
(0.0962327 -0.00941805 0)
(0.101024 -0.00921518 0)
(0.105718 -0.00897931 0)
(0.110299 -0.00870936 0)
(0.114751 -0.0084046 0)
(0.119057 -0.00806485 0)
(0.1232 -0.00769073 0)
(0.127164 -0.00728389 0)
(0.130931 -0.00684734 0)
(0.134487 -0.00638564 0)
(0.137819 -0.00590508 0)
(0.140917 -0.0054138 0)
(0.143775 -0.00492161 0)
(0.146392 -0.00443982 0)
(0.14877 -0.00398074 0)
(0.150922 -0.00355704 0)
(0.152862 -0.00318081 0)
(0.154615 -0.00286234 0)
(0.156208 -0.00260866 0)
(0.157673 -0.00242233 0)
(0.159041 -0.00230036 0)
(0.160341 -0.00223375 0)
(0.161594 -0.00220852 0)
(0.162813 -0.00220819 0)
(0.164001 -0.00221697 0)
(0.16515 -0.00222198 0)
(0.166252 -0.00221409 0)
(0.167295 -0.00218732 0)
(0.168273 -0.00213725 0)
(0.169166 -0.00205959 0)
(-0.000817208 0.00469973 0)
(-0.00341194 0.00596012 0)
(-0.00608616 0.00604787 0)
(-0.0087695 0.0060117 0)
(-0.0114299 0.00595439 0)
(-0.0140668 0.00588125 0)
(-0.016673 0.00579219 0)
(-0.0192424 0.00568659 0)
(-0.021768 0.00556407 0)
(-0.024243 0.00542432 0)
(-0.0266601 0.00526724 0)
(-0.0290122 0.0050928 0)
(-0.0312919 0.00490114 0)
(-0.033492 0.00469248 0)
(-0.0356053 0.00446711 0)
(-0.0376247 0.00422537 0)
(-0.0395432 0.00396759 0)
(-0.0413539 0.00369403 0)
(-0.0430499 0.00340487 0)
(-0.0446242 0.00310019 0)
(-0.0460698 0.00277994 0)
(-0.0473796 0.00244399 0)
(-0.0485463 0.00209212 0)
(-0.0495625 0.00172408 0)
(-0.0504207 0.00133961 0)
(-0.051113 0.00093842 0)
(-0.0516319 0.000520447 0)
(-0.0519694 8.56671e-05 0)
(-0.0521183 -0.000365605 0)
(-0.0520711 -0.00083324 0)
(-0.0518212 -0.00131631 0)
(-0.0513621 -0.00181368 0)
(-0.0506879 -0.0023236 0)
(-0.0497932 -0.00284406 0)
(-0.0486737 -0.00337274 0)
(-0.0473265 -0.00390708 0)
(-0.04575 -0.00444412 0)
(-0.0439439 -0.0049807 0)
(-0.0419093 -0.00551346 0)
(-0.0396492 -0.006039 0)
(-0.0371676 -0.00655393 0)
(-0.0344703 -0.00705506 0)
(-0.0315642 -0.00753944 0)
(-0.0284576 -0.00800448 0)
(-0.0251596 -0.00844814 0)
(-0.0216801 -0.00886883 0)
(-0.0180295 -0.00926553 0)
(-0.0142185 -0.00963769 0)
(-0.0102578 -0.0099852 0)
(-0.006158 -0.0103085 0)
(-0.00192888 -0.010608 0)
(0.00241907 -0.0108855 0)
(0.00687618 -0.0111403 0)
(0.0114341 -0.0113744 0)
(0.0160837 -0.0115881 0)
(0.0208171 -0.0117819 0)
(0.0256262 -0.0119561 0)
(0.030503 -0.0121105 0)
(0.0354392 -0.0122444 0)
(0.0404265 -0.0123571 0)
(0.0454565 -0.0124479 0)
(0.0505204 -0.0125154 0)
(0.0556087 -0.0125584 0)
(0.0607116 -0.0125754 0)
(0.0658189 -0.012565 0)
(0.0709197 -0.0125256 0)
(0.0760028 -0.0124556 0)
(0.0810563 -0.0123534 0)
(0.0860676 -0.0122173 0)
(0.0910239 -0.0120456 0)
(0.0959114 -0.0118366 0)
(0.100716 -0.0115885 0)
(0.105422 -0.0112997 0)
(0.110014 -0.0109688 0)
(0.114476 -0.0105948 0)
(0.118789 -0.0101772 0)
(0.122938 -0.00971664 0)
(0.126903 -0.00921485 0)
(0.130669 -0.00867529 0)
(0.134218 -0.00810333 0)
(0.137537 -0.00750653 0)
(0.140615 -0.00689471 0)
(0.143446 -0.00627987 0)
(0.146026 -0.00567595 0)
(0.14836 -0.00509824 0)
(0.150457 -0.00456261 0)
(0.152336 -0.00408439 0)
(0.154019 -0.00367683 0)
(0.155536 -0.00334924 0)
(0.156921 -0.00310514 0)
(0.158207 -0.00294071 0)
(0.159426 -0.00284427 0)
(0.160597 -0.00279735 0)
(0.161733 -0.00277822 0)
(0.162832 -0.00276646 0)
(0.163885 -0.00274634 0)
(0.164878 -0.0027078 0)
(0.165799 -0.00264527 0)
(0.166641 -0.00255508 0)
(0.167383 -0.00243576 0)
(-0.000823487 0.00575427 0)
(-0.00343158 0.00728687 0)
(-0.00611774 0.00739345 0)
(-0.00881469 0.00735116 0)
(-0.011489 0.00728338 0)
(-0.0141407 0.00719668 0)
(-0.0167625 0.0070909 0)
(-0.019348 0.0069653 0)
(-0.0218906 0.00681933 0)
(-0.0243831 0.00665258 0)
(-0.0268181 0.00646487 0)
(-0.0291885 0.00625615 0)
(-0.0314868 0.00602656 0)
(-0.0337056 0.00577636 0)
(-0.0358377 0.00550587 0)
(-0.037876 0.00521549 0)
(-0.0398133 0.00490558 0)
(-0.0416428 0.00457641 0)
(-0.0433575 0.00422817 0)
(-0.0449504 0.00386091 0)
(-0.0464145 0.00347453 0)
(-0.0477426 0.00306884 0)
(-0.0489275 0.00264354 0)
(-0.0499615 0.00219829 0)
(-0.0508371 0.00173274 0)
(-0.0515463 0.00124658 0)
(-0.0520814 0.000739701 0)
(-0.0524343 0.000212149 0)
(-0.0525973 -0.000335732 0)
(-0.0525629 -0.000903509 0)
(-0.052324 -0.00149013 0)
(-0.0518739 -0.00209416 0)
(-0.0512066 -0.0027136 0)
(-0.0503166 -0.00334599 0)
(-0.0491996 -0.00398848 0)
(-0.0478524 -0.00463781 0)
(-0.0462734 -0.00529035 0)
(-0.044462 -0.0059422 0)
(-0.0424197 -0.00658923 0)
(-0.0401491 -0.00722725 0)
(-0.0376547 -0.00785215 0)
(-0.0349424 -0.00846 0)
(-0.0320195 -0.00904721 0)
(-0.0288945 -0.00961066 0)
(-0.0255768 -0.0101479 0)
(-0.0220767 -0.0106569 0)
(-0.0184051 -0.0111365 0)
(-0.014573 -0.0115862 0)
(-0.0105914 -0.0120058 0)
(-0.00647103 -0.0123959 0)
(-0.00222217 -0.0127572 0)
(0.00214498 -0.0130915 0)
(0.00662066 -0.0133986 0)
(0.0111962 -0.0136806 0)
(0.015863 -0.0139381 0)
(0.020613 -0.0141715 0)
(0.0254383 -0.0143815 0)
(0.0303313 -0.0145676 0)
(0.0352836 -0.0147292 0)
(0.0402871 -0.0148655 0)
(0.0453336 -0.0149754 0)
(0.0504142 -0.0150575 0)
(0.0555197 -0.0151104 0)
(0.0606403 -0.0151322 0)
(0.0657657 -0.0151214 0)
(0.0708852 -0.015076 0)
(0.0759875 -0.0149943 0)
(0.0810607 -0.0148743 0)
(0.0860924 -0.014714 0)
(0.0910696 -0.0145115 0)
(0.0959786 -0.0142646 0)
(0.100805 -0.0139713 0)
(0.105534 -0.0136295 0)
(0.110149 -0.0132375 0)
(0.114633 -0.0127938 0)
(0.118969 -0.0122977 0)
(0.123138 -0.0117496 0)
(0.127122 -0.0111514 0)
(0.130903 -0.0105068 0)
(0.134464 -0.00982213 0)
(0.137789 -0.00910603 0)
(0.140866 -0.00837008 0)
(0.143688 -0.00762857 0)
(0.14625 -0.00689816 0)
(0.148557 -0.0061973 0)
(0.150617 -0.00554534 0)
(0.152449 -0.00496118 0)
(0.154078 -0.0044614 0)
(0.155536 -0.004058 0)
(0.15686 -0.00375577 0)
(0.158087 -0.0035501 0)
(0.159252 -0.00342599 0)
(0.160379 -0.00335961 0)
(0.161478 -0.00332304 0)
(0.162544 -0.00329048 0)
(0.163566 -0.00324317 0)
(0.164525 -0.0031704 0)
(0.165407 -0.00306773 0)
(0.166202 -0.0029327 0)
(0.16689 -0.00276692 0)
(-0.000828934 0.00681484 0)
(-0.00344838 0.00861898 0)
(-0.00614495 0.00874469 0)
(-0.00885336 0.00869654 0)
(-0.0115393 0.00861857 0)
(-0.0142033 0.00851859 0)
(-0.0168378 0.00839637 0)
(-0.0194366 0.008251 0)
(-0.0219928 0.00808176 0)
(-0.0244991 0.00788815 0)
(-0.0269483 0.00766991 0)
(-0.0293328 0.00742696 0)
(-0.0316452 0.00715945 0)
(-0.0338781 0.00686767 0)
(-0.0360241 0.00655202 0)
(-0.0380761 0.00621293 0)
(-0.0400271 0.00585081 0)
(-0.04187 0.00546597 0)
(-0.0435981 0.0050586 0)
(-0.0452044 0.00462872 0)
(-0.0466819 0.00417618 0)
(-0.0480234 0.00370072 0)
(-0.0492217 0.00320193 0)
(-0.0502692 0.00267938 0)
(-0.0511582 0.00213263 0)
(-0.0518808 0.00156133 0)
(-0.052429 0.000965297 0)
(-0.0527946 0.000344608 0)
(-0.0529697 -0.000300345 0)
(-0.0529466 -0.000968877 0)
(-0.0527177 -0.00165978 0)
(-0.0522762 -0.00237134 0)
(-0.0516158 -0.00310125 0)
(-0.0507309 -0.00384659 0)
(-0.049617 -0.00460396 0)
(-0.0482708 -0.00536943 0)
(-0.0466902 -0.00613869 0)
(-0.0448749 -0.00690702 0)
(-0.0428262 -0.00766954 0)
(-0.0405468 -0.00842123 0)
(-0.0380413 -0.00915718 0)
(-0.0353157 -0.00987272 0)
(-0.0323776 -0.0105636 0)
(-0.0292358 -0.0112261 0)
(-0.0259002 -0.0118573 0)
(-0.0223814 -0.012455 0)
(-0.0186907 -0.0130176 0)
(-0.0148394 -0.0135447 0)
(-0.0108388 -0.0140363 0)
(-0.00670003 -0.0144929 0)
(-0.00243352 -0.0149157 0)
(0.00195065 -0.0153064 0)
(0.00644263 -0.0156654 0)
(0.0110336 -0.015995 0)
(0.0157155 -0.0162959 0)
(0.02048 -0.0165688 0)
(0.0253198 -0.0168144 0)
(0.0302274 -0.0170322 0)
(0.0351946 -0.0172216 0)
(0.0402133 -0.0173815 0)
(0.0452756 -0.0175109 0)
(0.0503728 -0.0176079 0)
(0.0554956 -0.0176709 0)
(0.0606343 -0.017698 0)
(0.0657787 -0.0176871 0)
(0.0709182 -0.0176361 0)
(0.0760413 -0.0175431 0)
(0.0811364 -0.0174056 0)
(0.086191 -0.0172216 0)
(0.0911922 -0.0169887 0)
(0.0961263 -0.0167044 0)
(0.100979 -0.0163663 0)
(0.105735 -0.0159719 0)
(0.110378 -0.0155189 0)
(0.11489 -0.0150056 0)
(0.119255 -0.0144307 0)
(0.123452 -0.0137945 0)
(0.127462 -0.0130987 0)
(0.131267 -0.0123475 0)
(0.134847 -0.0115477 0)
(0.138185 -0.0107092 0)
(0.141269 -0.00984547 0)
(0.144089 -0.008973 0)
(0.14664 -0.00811134 0)
(0.148924 -0.00728233 0)
(0.150952 -0.00650911 0)
(0.152741 -0.00581459 0)
(0.154317 -0.00521931 0)
(0.155718 -0.00473851 0)
(0.156982 -0.00437878 0)
(0.158155 -0.00413486 0)
(0.159276 -0.00398793 0)
(0.160372 -0.00390773 0)
(0.161454 -0.0038588 0)
(0.162515 -0.00380891 0)
(0.163537 -0.00373574 0)
(0.164499 -0.0036283 0)
(0.165382 -0.00348403 0)
(0.166177 -0.00330207 0)
(0.166859 -0.00308696 0)
(-0.000834255 0.00788105 0)
(-0.00346492 0.00995631 0)
(-0.00617216 0.0101013 0)
(-0.00889204 0.0100475 0)
(-0.0115896 0.00995963 0)
(-0.0142659 0.0098466 0)
(-0.0169133 0.00970816 0)
(-0.0195253 0.00954319 0)
(-0.0220951 0.00935081 0)
(-0.0246153 0.00913043 0)
(-0.0270784 0.00888168 0)
(-0.0294769 0.00860447 0)
(-0.0318031 0.00829898 0)
(-0.0340497 0.00796555 0)
(-0.0362091 0.00760464 0)
(-0.0382744 0.00721674 0)
(-0.0402384 0.00680234 0)
(-0.0420943 0.00636178 0)
(-0.0438353 0.00589525 0)
(-0.0454544 0.00540276 0)
(-0.0469449 0.0048841 0)
(-0.0482996 0.00433892 0)
(-0.0495112 0.0037667 0)
(-0.0505722 0.00316691 0)
(-0.0514749 0.002539 0)
(-0.0522113 0.00188252 0)
(-0.0527732 0.00119725 0)
(-0.0531524 0.000483239 0)
(-0.0533406 -0.000259067 0)
(-0.05333 -0.00102881 0)
(-0.0531126 -0.0018246 0)
(-0.0526813 -0.00264443 0)
(-0.0520295 -0.00348564 0)
(-0.0511513 -0.00434488 0)
(-0.0500421 -0.00521818 0)
(-0.0486982 -0.00610095 0)
(-0.0471175 -0.00698813 0)
(-0.0452994 -0.00787422 0)
(-0.0432452 -0.00875349 0)
(-0.0409576 -0.00962008 0)
(-0.0384412 -0.0104682 0)
(-0.0357024 -0.0112925 0)
(-0.032749 -0.012088 0)
(-0.0295901 -0.0128503 0)
(-0.026236 -0.013576 0)
(-0.0226978 -0.0142626 0)
(-0.0189872 -0.0149084 0)
(-0.015116 -0.0155129 0)
(-0.0110957 -0.0160761 0)
(-0.00693775 -0.016599 0)
(-0.00265289 -0.0170829 0)
(0.00174895 -0.0175295 0)
(0.00625775 -0.0179401 0)
(0.0108647 -0.0183169 0)
(0.0155622 -0.0186611 0)
(0.0203419 -0.0189735 0)
(0.0251968 -0.0192546 0)
(0.0301197 -0.0195041 0)
(0.0351025 -0.0197215 0)
(0.0401376 -0.0199055 0)
(0.0452169 -0.0200546 0)
(0.050332 -0.0201669 0)
(0.0554737 -0.0202405 0)
(0.0606324 -0.0202733 0)
(0.0657979 -0.0202628 0)
(0.0709594 -0.0202068 0)
(0.0761059 -0.020103 0)
(0.0812255 -0.0199487 0)
(0.0863058 -0.0197416 0)
(0.091334 -0.0194788 0)
(0.0962964 -0.0191578 0)
(0.101179 -0.0187755 0)
(0.105966 -0.018329 0)
(0.110641 -0.0178156 0)
(0.115186 -0.0172328 0)
(0.119584 -0.0165791 0)
(0.123814 -0.0158542 0)
(0.127855 -0.0150598 0)
(0.131688 -0.0142001 0)
(0.135292 -0.0132827 0)
(0.138649 -0.0123186 0)
(0.141743 -0.011323 0)
(0.144563 -0.0103148 0)
(0.147104 -0.00931656 0)
(0.149366 -0.00835366 0)
(0.151358 -0.00745344 0)
(0.153099 -0.00664339 0)
(0.154618 -0.0059487 0)
(0.155953 -0.00538872 0)
(0.157152 -0.00497258 0)
(0.158265 -0.00469463 0)
(0.159339 -0.0045318 0)
(0.160406 -0.00444598 0)
(0.161479 -0.00439223 0)
(0.162546 -0.00433035 0)
(0.163583 -0.00423408 0)
(0.164563 -0.00409276 0)
(0.165463 -0.00390661 0)
(0.166274 -0.00367667 0)
(0.166969 -0.00340982 0)
(-0.000839768 0.00895301 0)
(-0.00348228 0.0112992 0)
(-0.00620114 0.0114637 0)
(-0.00893336 0.0114045 0)
(-0.0116435 0.0113069 0)
(-0.0143333 0.0111811 0)
(-0.0169945 0.0110267 0)
(-0.0196211 0.0108423 0)
(-0.0222057 0.0106269 0)
(-0.0247411 0.0103799 0)
(-0.0272194 0.0101006 0)
(-0.0296331 0.00978914 0)
(-0.0319745 0.00944558 0)
(-0.0342359 0.00907039 0)
(-0.03641 0.0086641 0)
(-0.0384897 0.00822729 0)
(-0.0404679 0.00776052 0)
(-0.0423378 0.00726419 0)
(-0.0440927 0.0067385 0)
(-0.0457259 0.00618345 0)
(-0.0472305 0.00559876 0)
(-0.0485996 0.00498396 0)
(-0.0498259 0.00433845 0)
(-0.050902 0.00366154 0)
(-0.05182 0.00295255 0)
(-0.0525718 0.00221094 0)
(-0.0531492 0.00143639 0)
(-0.0535437 0.000628929 0)
(-0.053747 -0.00021097 0)
(-0.0537506 -0.00108233 0)
(-0.0535466 -0.00198357 0)
(-0.0531274 -0.0029124 0)
(-0.0524859 -0.0038658 0)
(-0.0516161 -0.00483997 0)
(-0.0505129 -0.00583034 0)
(-0.0491724 -0.00683169 0)
(-0.0475923 -0.00783816 0)
(-0.0457718 -0.00884344 0)
(-0.043712 -0.00984091 0)
(-0.0414158 -0.0108238 0)
(-0.0388878 -0.0117855 0)
(-0.0361346 -0.0127198 0)
(-0.0331642 -0.0136208 0)
(-0.0299863 -0.0144838 0)
(-0.0266117 -0.0153046 0)
(-0.0230519 -0.0160806 0)
(-0.0193191 -0.0168097 0)
(-0.0154256 -0.0174915 0)
(-0.0113833 -0.0181262 0)
(-0.00720408 -0.0187149 0)
(-0.00289875 -0.0192594 0)
(0.00152263 -0.0197617 0)
(0.00605006 -0.0202235 0)
(0.0106748 -0.0206471 0)
(0.0153893 -0.0210342 0)
(0.0201859 -0.021386 0)
(0.0250576 -0.0217027 0)
(0.0299974 -0.0219841 0)
(0.0349977 -0.0222298 0)
(0.0400509 -0.0224382 0)
(0.0451493 -0.0226074 0)
(0.0502844 -0.0227356 0)
(0.0554473 -0.0228204 0)
(0.0606284 -0.0228594 0)
(0.0658175 -0.02285 0)
(0.0710039 -0.0227896 0)
(0.0761766 -0.0226755 0)
(0.0813236 -0.0225051 0)
(0.0864328 -0.0222755 0)
(0.0914913 -0.0219836 0)
(0.0964856 -0.0216265 0)
(0.101401 -0.0212007 0)
(0.106223 -0.0207028 0)
(0.110935 -0.0201295 0)
(0.115518 -0.0194777 0)
(0.119954 -0.0187451 0)
(0.124222 -0.0179311 0)
(0.1283 -0.017037 0)
(0.132166 -0.016067 0)
(0.135798 -0.0150292 0)
(0.139177 -0.0139359 0)
(0.142284 -0.0128039 0)
(0.145107 -0.0116545 0)
(0.147637 -0.0105134 0)
(0.149874 -0.00940995 0)
(0.151827 -0.00837592 0)
(0.153514 -0.00744407 0)
(0.154966 -0.00664512 0)
(0.156225 -0.00600363 0)
(0.157346 -0.00553229 0)
(0.158388 -0.00522565 0)
(0.159408 -0.00505583 0)
(0.160445 -0.00497494 0)
(0.161511 -0.00492596 0)
(0.162591 -0.00485871 0)
(0.163651 -0.0047426 0)
(0.164657 -0.00456826 0)
(0.165582 -0.00434004 0)
(0.166417 -0.00406128 0)
(0.167131 -0.00374002 0)
(-0.000845623 0.0100311 0)
(-0.00350092 0.0126481 0)
(-0.00623257 0.0128324 0)
(-0.00897835 0.0127679 0)
(-0.0117024 0.012661 0)
(-0.014407 0.0125228 0)
(-0.0170837 0.0123526 0)
(-0.0197264 0.0121491 0)
(-0.0223276 0.011911 0)
(-0.0248798 0.0116373 0)
(-0.0273752 0.0113276 0)
(-0.029806 0.0109818 0)
(-0.0321642 0.0106001 0)
(-0.0344422 0.010183 0)
(-0.0366326 0.00973117 0)
(-0.0387282 0.00924532 0)
(-0.0407222 0.00872609 0)
(-0.0426076 0.00817395 0)
(-0.0443781 0.00758912 0)
(-0.0460269 0.00697157 0)
(-0.0475474 0.00632095 0)
(-0.0489326 0.0056367 0)
(-0.0501754 0.00491806 0)
(-0.0512683 0.00416419 0)
(-0.0522035 0.00337426 0)
(-0.0529727 0.00254759 0)
(-0.0535676 0.00168375 0)
(-0.0539796 0.000782707 0)
(-0.0541999 -0.000155074 0)
(-0.0542198 -0.00112844 0)
(-0.0540311 -0.00213572 0)
(-0.0536257 -0.00317433 0)
(-0.0529963 -0.0042409 0)
(-0.0521363 -0.00533114 0)
(-0.0510402 -0.0064399 0)
(-0.049704 -0.00756127 0)
(-0.0481248 -0.0086886 0)
(-0.0463019 -0.00981472 0)
(-0.044236 -0.0109321 0)
(-0.0419302 -0.0120329 0)
(-0.0393891 -0.0131098 0)
(-0.0366196 -0.0141554 0)
(-0.0336301 -0.0151633 0)
(-0.0304308 -0.0161278 0)
(-0.0270329 -0.0170445 0)
(-0.0234486 -0.0179102 0)
(-0.0196907 -0.0187229 0)
(-0.0157719 -0.0194819 0)
(-0.0117049 -0.0201878 0)
(-0.00750164 -0.020842 0)
(-0.00317336 -0.0214466 0)
(0.00126988 -0.0220039 0)
(0.0058181 -0.0225164 0)
(0.0104626 -0.0229864 0)
(0.015196 -0.0234163 0)
(0.0200112 -0.0238072 0)
(0.0249015 -0.0241597 0)
(0.02986 -0.0244733 0)
(0.0348796 -0.0247475 0)
(0.039953 -0.0249806 0)
(0.0450725 -0.0251706 0)
(0.05023 -0.0253153 0)
(0.0554165 -0.0254118 0)
(0.0606226 -0.0254577 0)
(0.0658379 -0.02545 0)
(0.0710521 -0.0253858 0)
(0.0762538 -0.0252622 0)
(0.0814315 -0.0250763 0)
(0.0865728 -0.024825 0)
(0.0916651 -0.0245049 0)
(0.0966949 -0.0241125 0)
(0.101648 -0.0236441 0)
(0.106509 -0.0230956 0)
(0.111261 -0.0224631 0)
(0.115887 -0.0217427 0)
(0.120366 -0.0209315 0)
(0.124677 -0.0200279 0)
(0.128797 -0.0190329 0)
(0.132702 -0.0179507 0)
(0.136368 -0.0167896 0)
(0.139773 -0.015563 0)
(0.142896 -0.0142893 0)
(0.145723 -0.0129926 0)
(0.148243 -0.0117015 0)
(0.150455 -0.0104496 0)
(0.152363 -0.00927362 0)
(0.153989 -0.00821234 0)
(0.155363 -0.00730306 0)
(0.156533 -0.00657695 0)
(0.157562 -0.00605169 0)
(0.158521 -0.00572284 0)
(0.159477 -0.00555714 0)
(0.160481 -0.00549438 0)
(0.161543 -0.00546202 0)
(0.162642 -0.0053973 0)
(0.163733 -0.00526479 0)
(0.164771 -0.00505777 0)
(0.165726 -0.00478688 0)
(0.166589 -0.00445851 0)
(0.167328 -0.00408008 0)
(-0.000851887 0.0111157 0)
(-0.00352095 0.0140036 0)
(-0.00626659 0.0142079 0)
(-0.00902721 0.0141386 0)
(-0.0117665 0.0140227 0)
(-0.0144875 0.0138724 0)
(-0.0171814 0.0136869 0)
(-0.0198419 0.0134645 0)
(-0.0224616 0.0132038 0)
(-0.0250326 0.0129036 0)
(-0.027547 0.0125635 0)
(-0.0299967 0.0121833 0)
(-0.0323736 0.0117633 0)
(-0.0346701 0.0113042 0)
(-0.0368785 0.0108067 0)
(-0.0389919 0.0102717 0)
(-0.0410032 0.00969989 0)
(-0.0429059 0.00909188 0)
(-0.0446935 0.00844793 0)
(-0.0463596 0.00776796 0)
(-0.0478976 0.00705156 0)
(-0.0493007 0.00629804 0)
(-0.0505618 0.00550648 0)
(-0.0516735 0.00467584 0)
(-0.0526279 0.00380514 0)
(-0.0534167 0.0028935 0)
(-0.0540313 0.00194038 0)
(-0.0544628 0.000945645 0)
(-0.0547022 -9.0269e-05 0)
(-0.0547406 -0.00116612 0)