/*--------------------------------*- C++ -*----------------------------------*\
| =========                 |                                                 |
| \\      /  F ield         | OpenFOAM: The Open Source CFD Toolbox           |
|  \\    /   O peration     | Version:  2.4.0                                 |
|   \\  /    A nd           | Web:      www.OpenFOAM.org                      |
|    \\/     M anipulation  |                                                 |
\*---------------------------------------------------------------------------*/
FoamFile
{
    version     2.0;
    format      ascii;
    class       surfaceScalarField;
    location    "0.058";
    object      phiAlpha;
}
// * * * * * * * * * * * * * * * * * * * * * * * * * * * * * * * * * * * * * //

dimensions      [0 3 -1 0 0 0 0];

internalField   nonuniform List<scalar> 
28560
(
-1.7657e-09
4.53581e-09
-2.77011e-09
3.75917e-09
-5.46151e-09
1.70234e-09
7.30875e-09
-9.2518e-09
1.94305e-09
1.10013e-08
-1.29497e-08
1.94839e-09
1.4907e-08
-1.65099e-08
1.60298e-09
1.76852e-08
-1.80467e-08
3.61429e-10
1.74119e-08
-1.56527e-08
-1.75918e-09
1.25184e-08
-8.30494e-09
-4.21348e-09
2.64524e-09
3.70003e-09
-6.34526e-09
-1.12085e-08
1.89799e-08
-7.77148e-09
-2.75168e-08
3.57479e-08
-8.23113e-09
-4.4376e-08
5.23827e-08
-8.0067e-09
-6.04531e-08
6.7604e-08
-7.15086e-09
-7.4426e-08
8.006e-08
-5.63396e-09
-8.49738e-08
8.85559e-08
-3.58214e-09
-9.1121e-08
9.23919e-08
-1.27098e-09
-9.25276e-08
9.15658e-08
9.61711e-10
-8.95202e-08
8.67263e-08
2.79392e-09
-8.30547e-08
7.90224e-08
4.03235e-09
-7.43644e-08
6.96945e-08
4.66996e-09
-6.46444e-08
5.98259e-08
4.81852e-09
-5.48198e-08
5.01951e-08
4.62473e-09
-4.55115e-08
4.12683e-08
4.2432e-09
-3.70376e-08
3.32544e-08
3.78317e-09
-2.95132e-08
2.61852e-08
3.32803e-09
-2.29086e-08
1.99983e-08
2.91031e-09
-1.71315e-08
1.4581e-08
2.55056e-09
-1.2064e-08
9.81687e-09
2.24717e-09
-7.59155e-09
5.59673e-09
1.99483e-09
-3.61178e-09
1.82842e-09
1.78336e-09
-7.58418e-09
1.07112e-08
-3.12701e-09
6.50008e-09
-9.55484e-09
-4.44591e-09
7.50067e-09
1.28944e-08
-1.63658e-08
-5.0314e-09
8.50285e-09
1.97862e-08
-2.35958e-08
-5.25366e-09
9.06333e-09
2.76887e-08
-3.13446e-08
-4.64907e-09
8.30494e-09
3.45132e-08
-3.63724e-08
-1.64024e-09
3.49945e-09
3.66687e-08
-3.49737e-08
3.81852e-09
-5.51347e-09
3.09297e-08
-2.48785e-08
1.03074e-08
-1.63586e-08
1.63247e-08
-6.35757e-09
1.60999e-08
-2.6067e-08
-5.65762e-09
1.80805e-08
1.97826e-08
-3.22055e-08
-3.18284e-08
4.51572e-08
2.10647e-08
-3.43935e-08
-5.91728e-08
7.22255e-08
2.05534e-08
-3.36061e-08
-8.55074e-08
9.74316e-08
1.85295e-08
-3.04538e-08
-1.09074e-07
1.1904e-07
1.49925e-08
-2.49581e-08
-1.28227e-07
1.35556e-07
1.02316e-08
-1.75602e-08
-1.4171e-07
1.46007e-07
4.83906e-09
-9.13569e-09
-1.48894e-07
1.5012e-07
-4.90513e-10
-7.35538e-10
-1.49897e-07
1.48361e-07
-5.04902e-09
6.58514e-09
-1.45501e-07
1.41756e-07
-8.39907e-09
1.21444e-08
-1.36895e-07
1.31561e-07
-1.04607e-08
1.57952e-08
-1.25339e-07
1.18982e-07
-1.14315e-08
1.77879e-08
-1.11949e-07
1.05042e-07
-1.15708e-08
1.84777e-08
-9.76334e-08
9.05361e-08
-1.11724e-08
1.82698e-08
-8.30721e-08
7.60502e-08
-1.04565e-08
1.74784e-08
-6.87682e-08
6.19986e-08
-9.61221e-09
1.63818e-08
-5.5058e-08
4.86648e-08
-8.72956e-09
1.51227e-08
-4.21596e-08
3.62067e-08
-7.88643e-09
1.38393e-08
-3.01883e-08
2.47083e-08
-7.10469e-09
1.25847e-08
-1.91932e-08
1.41907e-08
-6.39796e-09
1.14004e-08
-9.17019e-09
4.63724e-09
-5.75901e-09
1.0292e-08
-1.38587e-08
1.70087e-08
-3.15e-09
6.72258e-09
-9.89654e-09
-1.06491e-08
1.3823e-08
1.33793e-08
-1.70359e-08
-1.21095e-08
1.5766e-08
2.06519e-08
-2.47279e-08
-1.30651e-08
1.71411e-08
2.91504e-08
-3.31738e-08
-1.22197e-08
1.62431e-08
3.67772e-08
-3.90766e-08
-5.65932e-09
7.95874e-09
3.98449e-08
-3.85806e-08
6.92092e-09
-8.18526e-09
3.49589e-08
-2.92673e-08
2.21723e-08
-2.78638e-08
2.10507e-08
-1.13696e-08
3.58409e-08
-4.55219e-08
-4.42296e-10
1.25732e-08
4.44396e-08
-5.65704e-08
-2.60358e-08
3.90658e-08
4.75192e-08
-6.05492e-08
-5.27823e-08
6.55719e-08
4.64889e-08
-5.92785e-08
-7.859e-08
9.03093e-08
4.22444e-08
-5.39637e-08
-1.01773e-07
1.11613e-07
3.48469e-08
-4.46869e-08
-1.20716e-07
1.28006e-07
2.48842e-08
-3.21744e-08
-1.34169e-07
1.38508e-07
1.34952e-08
-1.78341e-08
-1.4147e-07
1.42798e-07
2.09316e-09
-3.42116e-09
-1.42704e-07
1.41314e-07
-7.93436e-09
9.32503e-09
-1.38615e-07
1.35055e-07
-1.56612e-08
1.9222e-08
-1.30404e-07
1.25296e-07
-2.08825e-08
2.59902e-08
-1.19338e-07
1.13255e-07
-2.38768e-08
2.99595e-08
-1.06531e-07
9.99384e-08
-2.51212e-08
3.17133e-08
-9.28783e-08
8.61223e-08
-2.51235e-08
3.18795e-08
-7.90261e-08
7.23542e-08
-2.42872e-08
3.0959e-08
-6.54399e-08
5.90121e-08
-2.29752e-08
2.9403e-08
-5.24212e-08
4.63476e-08
-2.13746e-08
2.74482e-08
-4.01642e-08
3.45026e-08
-1.96813e-08
2.5343e-08
-2.87752e-08
2.35573e-08
-1.79771e-08
2.3195e-08
-1.83039e-08
1.35363e-08
-1.63326e-08
2.11002e-08
-8.75038e-09
4.42689e-09
-1.47674e-08
1.90909e-08
-2.01555e-08
2.32968e-08
-3.14133e-09
6.7365e-09
-9.91201e-09
-1.70011e-08
2.01766e-08
1.33946e-08
-1.70882e-08
-1.94448e-08
2.31384e-08
2.06897e-08
-2.48152e-08
-2.12491e-08
2.53746e-08
2.93003e-08
-3.34089e-08
-2.03175e-08
2.4426e-08
3.71263e-08
-3.95483e-08
-1.03294e-08
1.27515e-08
4.04538e-08
-3.93082e-08
9.37919e-09
-1.05248e-08
3.57961e-08
-3.01821e-08
3.35059e-08
-3.91198e-08
2.2016e-08
-1.2346e-08
5.51857e-08
-6.48558e-08
5.63332e-10
1.16405e-08
6.87332e-08
-8.0937e-08
-2.51247e-08
3.81929e-08
7.35743e-08
-8.66425e-08
-5.1934e-08
6.47548e-08
7.20717e-08
-8.48925e-08
-7.78401e-08
8.96516e-08
6.57056e-08
-7.75171e-08
-1.01234e-07
1.11215e-07
5.45706e-08
-6.4551e-08
-1.20476e-07
1.2792e-07
3.95134e-08
-4.69573e-08
-1.34242e-07
1.38706e-07
2.2202e-08
-2.66655e-08
-1.41786e-07
1.43164e-07
4.7422e-09
-6.12041e-09
-1.43084e-07
1.41648e-07
-1.07611e-08
1.2197e-08
-1.38859e-07
1.3516e-07
-2.28656e-08
2.65642e-08
-1.30339e-07
1.25045e-07
-3.11993e-08
3.64929e-08
-1.18883e-07
1.12611e-07
-3.61338e-08
4.24058e-08
-1.05698e-07
9.89486e-08
-3.83699e-08
4.51196e-08
-9.17445e-08
8.48883e-08
-3.86617e-08
4.55179e-08
-7.77182e-08
7.10126e-08
-3.76151e-08
4.43207e-08
-6.40954e-08
5.76979e-08
-3.57801e-08
4.21776e-08
-5.11679e-08
4.51745e-08
-3.34432e-08
3.94366e-08
-3.90969e-08
3.35505e-08
-3.0909e-08
3.64554e-08
-2.79563e-08
2.28716e-08
-2.83095e-08
3.33943e-08
-1.77615e-08
1.31307e-08
-2.57661e-08
3.03969e-08
-8.48668e-09
4.29425e-09
-2.33178e-08
2.75103e-08
-2.6432e-08
2.95595e-08
-3.12748e-09
6.7319e-09
-9.89564e-09
-2.3347e-08
2.65107e-08
1.3359e-08
-1.7082e-08
-2.68458e-08
3.05688e-08
2.0633e-08
-2.47909e-08
-2.95148e-08
3.36727e-08
2.93158e-08
-3.349e-08
-2.85661e-08
3.27402e-08
3.7303e-08
-3.9831e-08
-1.52237e-08
1.77517e-08
4.08582e-08
-3.98143e-08
1.16224e-08
-1.26664e-08
3.63936e-08
-3.08367e-08
4.47066e-08
-5.02635e-08
2.2695e-08
-1.30011e-08
7.45364e-08
-8.42303e-08
1.16824e-09
1.11203e-08
9.31762e-08
-1.05465e-07
-2.46992e-08
3.7839e-08
9.97297e-08
-1.12869e-07
-5.16693e-08
6.46097e-08
9.77697e-08
-1.1071e-07
-7.78439e-08
8.98391e-08
8.94132e-08
-1.01408e-07
-1.0166e-07
1.11891e-07
7.4646e-08
-8.48777e-08
-1.21444e-07
1.29188e-07
5.4538e-08
-6.2282e-08
-1.35823e-07
1.40579e-07
3.1261e-08
-3.60173e-08
-1.43926e-07
1.45521e-07
7.59229e-09
-9.18702e-09
-1.45598e-07
1.44241e-07
-1.36019e-08
1.49585e-08
-1.41471e-07
1.37734e-07
-3.0293e-08
3.403e-08
-1.32826e-07
1.2741e-07
-4.18494e-08
4.72653e-08
-1.21096e-07
1.1466e-07
-4.87626e-08
5.51993e-08
-1.0756e-07
1.00625e-07
-5.19577e-08
5.88928e-08
-9.32333e-08
8.61982e-08
-5.24626e-08
5.94977e-08
-7.88512e-08
7.19897e-08
-5.10986e-08
5.79601e-08
-6.49234e-08
5.83963e-08
-4.8631e-08
5.51581e-08
-5.17484e-08
4.56574e-08
-4.54668e-08
5.15578e-08
-3.94899e-08
3.38706e-08
-4.20263e-08
4.76456e-08
-2.82105e-08
2.30714e-08
-3.84937e-08
4.36328e-08
-1.7912e-08
1.32399e-08
-3.50358e-08
3.97079e-08
-8.5566e-09
4.33103e-09
-3.17074e-08
3.59329e-08
-3.26781e-08
3.57874e-08
-3.10936e-09
6.724e-09
-9.8718e-09
-2.96668e-08
3.28146e-08
1.33083e-08
-1.70671e-08
-3.43089e-08
3.80678e-08
2.05502e-08
-2.47467e-08
-3.78498e-08
4.20462e-08
2.93183e-08
-3.35725e-08
-3.69524e-08
4.12066e-08
3.75045e-08
-4.01651e-08
-2.03425e-08
2.30032e-08
4.13468e-08
-4.04316e-08
1.36494e-08
-1.45647e-08
3.71286e-08
-3.16459e-08
5.57858e-08
-6.12685e-08
2.35374e-08
-1.38138e-08
9.39382e-08
-1.03662e-07
1.90726e-09
1.04973e-08
1.17811e-07
-1.30215e-07
-2.41868e-08
3.74274e-08
1.26058e-07
-1.39298e-07
-5.13674e-08
6.44353e-08
1.23717e-07
-1.36785e-07
-7.78624e-08
9.00891e-08
1.13514e-07
-1.2574e-07
-1.02208e-07
1.12765e-07
9.52636e-08
-1.05821e-07
-1.227e-07
1.30825e-07
7.02037e-08
-7.83294e-08
-1.37872e-07
1.43026e-07
4.09598e-08
-4.61139e-08
-1.46736e-07
1.48633e-07
1.09223e-08
-1.28193e-08
-1.48943e-07
1.47716e-07
-1.62552e-08
1.74831e-08
-1.44995e-07
1.41246e-07
-3.77755e-08
4.15247e-08
-1.36259e-07
1.30724e-07
-5.27312e-08
5.82655e-08
-1.24242e-07
1.17627e-07
-6.17209e-08
6.83361e-08
-1.10327e-07
1.03194e-07
-6.59221e-08
7.30554e-08
-9.55796e-08
8.83349e-08
-6.66296e-08
7.38744e-08
-8.07731e-08
7.37137e-08
-6.49147e-08
7.19742e-08
-6.64504e-08
5.97469e-08
-6.17662e-08
6.84697e-08
-5.29236e-08
4.66786e-08
-5.7721e-08
6.3966e-08
-4.03606e-08
3.46079e-08
-5.33265e-08
5.90793e-08
-2.88181e-08
2.35646e-08
-4.88249e-08
5.40785e-08
-1.82922e-08
1.35193e-08
-4.44259e-08
4.91989e-08
-8.73687e-09
4.4224e-09
-4.01999e-08
4.45144e-08
-3.88865e-08
4.19738e-08
-3.08734e-09
6.71511e-09
-9.84427e-09
-3.59537e-08
3.90828e-08
1.32469e-08
-1.70495e-08
-4.18477e-08
4.56503e-08
2.04497e-08
-2.4693e-08
-4.62648e-08
5.05081e-08
2.93203e-08
-3.36724e-08
-4.55077e-08
4.98598e-08
3.77507e-08
-4.05748e-08
-2.57416e-08
2.85657e-08
4.19484e-08
-4.11917e-08
1.54046e-08
-1.61613e-08
3.80347e-08
-3.26442e-08
6.67076e-08
-7.20981e-08
2.45783e-08
-1.48163e-08
1.13404e-07
-1.23166e-07
2.81008e-09
9.72575e-09
1.42683e-07
-1.55219e-07
-2.3565e-08
3.69346e-08
1.52586e-07
-1.65956e-07
-5.09898e-08
6.42146e-08
1.49922e-07
-1.63147e-07
-7.78665e-08
9.03767e-08
1.38103e-07
-1.50613e-07
-1.02857e-07
1.13811e-07
1.1657e-07
-1.27524e-07
-1.24209e-07
1.32822e-07
8.66893e-08
-9.53029e-08
-1.40366e-07
1.46036e-07
5.1513e-08
-5.71827e-08
-1.50202e-07
1.52498e-07
1.49024e-08
-1.7198e-08
-1.53113e-07
1.52061e-07
-1.86355e-08
1.96874e-08
-1.49417e-07
1.45642e-07
-4.52919e-08
4.90668e-08
-1.4055e-07
1.34872e-07
-6.38752e-08
6.95538e-08
-1.28194e-07
1.21362e-07
-7.50528e-08
8.18855e-08
-1.13808e-07
1.06419e-07
-8.03135e-08
8.77026e-08
-9.85279e-08
9.10258e-08
-8.12414e-08
8.87434e-08
-8.31934e-08
7.58873e-08
-7.91503e-08
8.64564e-08
-6.83739e-08
6.14485e-08
-7.52788e-08
8.22042e-08
-5.4405e-08
4.7967e-08
-7.03036e-08
7.67416e-08
-4.14575e-08
3.55361e-08
-6.49108e-08
7.08322e-08
-2.95832e-08
2.4186e-08
-5.94015e-08
6.47987e-08
-1.87685e-08
1.38655e-08
-5.4031e-08
5.8934e-08
-8.95773e-09
4.53434e-09
-4.88849e-08
5.33083e-08
-4.50488e-08
4.81103e-08
-3.06153e-09
6.70407e-09
-9.81159e-09
-4.22013e-08
4.53089e-08
1.31725e-08
-1.70254e-08
-4.94769e-08
5.33298e-08
2.03275e-08
-2.46244e-08
-5.47774e-08
5.90744e-08
2.93153e-08
-3.37822e-08
-5.4267e-08
5.87339e-08
3.80344e-08
-4.10527e-08
-3.14829e-08
3.45012e-08
4.2657e-08
-4.20895e-08
1.68269e-08
-1.73944e-08
3.9109e-08
-3.3831e-08
7.74346e-08
-8.27126e-08
2.58195e-08
-1.60116e-08
1.32949e-07
-1.42757e-07
3.88228e-09
8.82063e-09
1.67841e-07
-1.80544e-07
-2.28405e-08
3.63354e-08
1.79374e-07
-1.92869e-07
-5.05372e-08
6.39218e-08
1.76462e-07
-1.89847e-07
-7.78307e-08
9.06681e-08
1.63281e-07
-1.76118e-07
-1.0357e-07
1.14996e-07
1.38706e-07
-1.50132e-07
-1.25935e-07
1.35127e-07
1.04192e-07
-1.13384e-07
-1.43283e-07
1.49588e-07
6.31495e-08
-6.94545e-08
-1.54312e-07
1.57128e-07
1.97362e-08
-2.25519e-08
-1.58147e-07
1.57305e-07
-2.06366e-08
2.14787e-08
-1.54746e-07
1.50946e-07
-5.28529e-08
5.66523e-08
-1.45737e-07
1.39867e-07
-7.53266e-08
8.11969e-08
-1.32947e-07
1.2585e-07
-8.88423e-08
9.59388e-08
-1.17991e-07
1.10289e-07
-9.5237e-08
1.02939e-07
-1.02064e-07
9.42373e-08
-9.64013e-08
1.04228e-07
-8.60712e-08
7.84586e-08
-9.39081e-08
1.01521e-07
-7.06415e-08
6.34419e-08
-8.92594e-08
9.64589e-08
-5.61322e-08
4.94592e-08
-8.32918e-08
8.99649e-08
-4.27126e-08
3.6576e-08
-7.6839e-08
8.29756e-08
-3.04264e-08
2.48624e-08
-7.02805e-08
7.58444e-08
-1.92706e-08
1.42077e-08
-6.3893e-08
6.89559e-08
-9.15875e-09
4.63213e-09
-5.78085e-08
6.23352e-08
-5.11573e-08
5.41888e-08
-3.03152e-09
6.69098e-09
-9.77432e-09
-4.84047e-08
5.14881e-08
1.30857e-08
-1.69939e-08
-5.72101e-08
6.11183e-08
2.01836e-08
-2.45402e-08
-6.34004e-08
6.77571e-08
2.93013e-08
-3.38998e-08
-6.32647e-08
6.78632e-08
3.83537e-08
-4.15972e-08
-3.76282e-08
4.08718e-08
4.34732e-08
-4.31258e-08
1.78558e-08
-1.82032e-08
4.03541e-08
-3.52107e-08
8.79263e-08
-9.30697e-08
2.72681e-08
-1.74061e-08
1.52591e-07
-1.62453e-07
5.12826e-09
7.78157e-09
1.93349e-07
-2.06259e-07
-2.1985e-08
3.56378e-08
2.06435e-07
-2.20087e-07
-4.99715e-08
6.35472e-08
2.03329e-07
-2.16905e-07
-7.77346e-08
9.09448e-08
1.89137e-07
-2.02347e-07
-1.04329e-07
1.16294e-07
1.61818e-07
-1.73782e-07
-1.27857e-07
1.37728e-07
1.22904e-07
-1.32775e-07
-1.46588e-07
1.537e-07
7.61396e-08
-8.32514e-08
-1.59071e-07
1.62581e-07
2.56877e-08
-2.91973e-08
-1.64106e-07
1.63512e-07
-2.21995e-08
2.27927e-08
-1.61069e-07
1.57237e-07
-6.04669e-08
6.42991e-08
-1.51865e-07
1.45761e-07
-8.71737e-08
9.32773e-08
-1.38551e-07
1.31144e-07
-1.03182e-07
1.10589e-07
-1.22919e-07
1.1484e-07
-1.10814e-07
1.18893e-07
-1.06204e-07
9.79857e-08
-1.12243e-07
1.20461e-07
-8.94064e-08
8.14238e-08
-1.0931e-07
1.17293e-07
-7.32423e-08
6.57096e-08
-1.0381e-07
1.11343e-07
-5.80774e-08
5.11258e-08
-9.67691e-08
1.03721e-07
-4.40919e-08
3.76382e-08
-8.91519e-08
9.56056e-08
-3.11117e-08
2.52676e-08
-8.14868e-08
8.73309e-08
-1.9508e-08
1.43335e-08
-7.40589e-08
7.92335e-08
-9.18096e-09
4.61488e-09
-6.7021e-08
7.15871e-08
-5.72036e-08
6.02006e-08
-2.99701e-09
6.67738e-09
-9.73509e-09
-5.4559e-08
5.76167e-08
1.29895e-08
-1.69567e-08
-6.50558e-08
6.9023e-08
2.00217e-08
-2.4443e-08
-7.21459e-08
7.65672e-08
2.92812e-08
-3.40284e-08
-7.25341e-08
7.72813e-08
3.87134e-08
-4.22142e-08
-4.424e-08
4.77409e-08
4.44057e-08
-4.43097e-08
1.84289e-08
-1.85249e-08
4.1781e-08
-3.67951e-08
9.81376e-08
-1.03123e-07
2.89374e-08
-1.90109e-08
1.72347e-07
-1.82273e-07
6.5544e-09
6.58628e-09
2.19283e-07
-2.32424e-07
-2.10353e-08
3.48469e-08
2.33808e-07
-2.4762e-07
-4.93182e-08
6.30703e-08
2.30566e-07
-2.44318e-07
-7.75808e-08
9.12021e-08
2.15761e-07
-2.29382e-07
-1.05129e-07
1.17703e-07
1.86042e-07
-1.98616e-07
-1.29971e-07
1.40631e-07
1.43026e-07
-1.53686e-07
-1.50278e-07
1.58416e-07
9.08443e-08
-9.89823e-08
-1.64497e-07
1.68967e-07
3.31466e-08
-3.76162e-08
-1.71115e-07
1.70822e-07
-2.32387e-08
2.35309e-08
-1.68496e-07
1.64619e-07
-6.81622e-08
7.20389e-08
-1.59039e-07
1.52641e-07
-9.95112e-08
1.05909e-07
-1.45087e-07
1.37325e-07
-1.18167e-07
1.25928e-07
-1.28675e-07
1.20137e-07
-1.27178e-07
1.35716e-07
-1.11009e-07
1.02317e-07
-1.28914e-07
1.37606e-07
-9.32078e-08
8.47878e-08
-1.25502e-07
1.33922e-07
-7.6191e-08
6.82648e-08
-1.19052e-07
1.26978e-07
-6.02344e-08
5.29543e-08
-1.10819e-07
1.18099e-07
-4.56895e-08
3.88725e-08
-1.01888e-07
1.08705e-07
-3.16888e-08
2.53758e-08
-9.29396e-08
9.92526e-08
-1.95542e-08
1.44857e-08
-8.46765e-08
8.9745e-08
-9.35267e-09
4.71175e-09
-7.65503e-08
8.11913e-08
-6.31791e-08
6.61374e-08
-2.95831e-09
6.66215e-09
-9.69267e-09
-6.06606e-08
6.36911e-08
1.2883e-08
-1.69093e-08
-7.30196e-08
7.70458e-08
1.9839e-08
-2.43268e-08
-8.10214e-08
8.55092e-08
2.92471e-08
-3.41593e-08
-8.21086e-08
8.70208e-08
3.91042e-08
-4.28941e-08
-5.13821e-08
5.51719e-08
4.54477e-08
-4.56346e-08
1.84834e-08
-1.82965e-08
4.33858e-08
-3.85842e-08
1.0802e-07
-1.12822e-07
3.08326e-08
-2.08323e-08
1.92235e-07
-2.02235e-07
8.16692e-09
5.26333e-09
2.45709e-07
-2.59139e-07
-1.99827e-08
3.39488e-08
2.61502e-07
-2.75468e-07
-4.85535e-08
6.24763e-08
2.58156e-07
-2.72079e-07
-7.73057e-08
9.13935e-08
2.43236e-07
-2.57324e-07
-1.05926e-07
1.19179e-07
2.11519e-07
-2.24773e-07
-1.3222e-07
1.43775e-07
1.64781e-07
-1.76336e-07
-1.54293e-07
1.63724e-07
1.07723e-07
-1.17154e-07
-1.7052e-07
1.76361e-07
4.27071e-08
-4.85482e-08
-1.79265e-07
1.79304e-07
-2.3661e-08
2.36221e-08
-1.77141e-07
1.73185e-07
-7.59622e-08
7.99177e-08
-1.67305e-07
1.60524e-07
-1.12489e-07
1.19271e-07
-1.52594e-07
1.44456e-07
-1.33876e-07
1.42015e-07
-1.35323e-07
1.2621e-07
-1.44481e-07
1.53594e-07
-1.16529e-07
1.07248e-07
-1.46592e-07
1.55872e-07
-9.74646e-08
8.84797e-08
-1.42648e-07
1.51632e-07
-7.93621e-08
7.10312e-08
-1.35145e-07
1.43476e-07
-6.26226e-08
5.50348e-08
-1.25573e-07
1.33161e-07
-4.74309e-08
4.06163e-08
-1.15336e-07
1.2215e-07
-3.39965e-08
2.81274e-08
-1.05158e-07
1.11027e-07
-2.21384e-08
1.6541e-08
-9.54485e-08
1.01046e-07
-1.07998e-08
5.50495e-09
-8.60728e-08
9.13676e-08
-6.90743e-08
7.19892e-08
-2.9149e-09
6.64574e-09
-9.64742e-09
-6.67078e-08
6.97095e-08
1.2768e-08
-1.68501e-08
-8.11007e-08
8.51828e-08
1.96358e-08
-2.41886e-08
-9.00301e-08
9.45829e-08
2.9196e-08
-3.42892e-08
-9.20218e-08
9.7115e-08
3.95234e-08
-4.36335e-08
-5.9118e-08
6.32281e-08
4.66003e-08
-4.71013e-08
1.79566e-08
-1.74556e-08
4.51724e-08
-4.05847e-08
1.17521e-07
-1.22108e-07
3.29653e-08
-2.28813e-08
2.12276e-07
-2.2236e-07
9.97398e-09
3.79441e-09
2.72729e-07
-2.86497e-07
-1.88463e-08
3.29657e-08
2.89524e-07
-3.03643e-07
-4.76653e-08
6.17348e-08
2.8607e-07
-3.0014e-07
-7.69025e-08
9.14951e-08
2.71661e-07
-2.86253e-07
-1.06686e-07
1.20681e-07
2.38388e-07
-2.52384e-07
-1.34567e-07
1.47109e-07
1.88376e-07
-2.00917e-07
-1.58568e-07
1.69619e-07
1.27353e-07
-1.38403e-07
-1.77063e-07
1.84908e-07
5.52989e-08
-6.31434e-08
-1.88708e-07
1.891e-07
-2.3407e-08
2.30146e-08
-1.87137e-07
1.83087e-07
-8.39194e-08
8.79691e-08
-1.76732e-07
1.69442e-07
-1.26298e-07
1.33587e-07
-1.61126e-07
1.52662e-07
-1.5036e-07
1.58825e-07
-1.42989e-07
1.33159e-07
-1.62909e-07
1.72738e-07
-1.22785e-07
1.12781e-07
-1.65488e-07
1.75492e-07
-1.0251e-07
9.24503e-08
-1.60821e-07
1.7088e-07
-8.21216e-08
7.32704e-08
-1.52247e-07
1.61098e-07
-6.46925e-08
5.676e-08
-1.41179e-07
1.49111e-07
-4.87143e-08
4.14218e-08
-1.2926e-07
1.36552e-07
-3.38184e-08
2.69626e-08
-1.17512e-07
1.24368e-07
-2.04709e-08
1.48845e-08
-1.06461e-07
1.12047e-07
-9.42564e-09
4.70109e-09
-9.62264e-08
1.00951e-07
-7.48806e-08
7.77466e-08
-2.86603e-09
6.62954e-09
-9.60109e-09
-7.26961e-08
7.56677e-08
1.26482e-08
-1.67804e-08
-8.9291e-08
9.34232e-08
1.94166e-08
-2.40293e-08
-9.91669e-08
1.0378e-07
2.91299e-08
-3.44207e-08
-1.02305e-07
1.07596e-07
3.99749e-08
-4.44368e-08
-6.75106e-08
7.19725e-08
4.78736e-08
-4.87194e-08
1.67859e-08
-1.59402e-08
4.71531e-08
-4.28118e-08
1.26578e-07
-1.30919e-07
3.53554e-08
-2.51756e-08
2.32491e-07
-2.42671e-07
1.19867e-08
2.16129e-09
3.00443e-07
-3.14591e-07
-1.76082e-08
3.19124e-08
3.17852e-07
-3.32156e-07
-4.66512e-08
6.08297e-08
3.14259e-07
-3.28438e-07
-7.63441e-08
9.14924e-08
3.01108e-07
-3.16257e-07
-1.074e-07
1.22205e-07
2.66773e-07
-2.81578e-07
-1.36999e-07
1.50581e-07
2.13977e-07
-2.27559e-07
-1.63113e-07
1.76068e-07
1.50375e-07
-1.6333e-07
-1.8413e-07
1.9481e-07
7.22969e-08
-8.29768e-08
-1.99727e-07
2.00437e-07
-2.24442e-08
2.17342e-08
-1.98736e-07
1.94558e-07
-9.20879e-08
9.62656e-08
-1.87363e-07
1.79433e-07
-1.41233e-07
1.49163e-07
-1.70804e-07
1.62131e-07
-1.67569e-07
1.76242e-07
-1.51956e-07
1.41283e-07
-1.82828e-07
1.93501e-07
-1.29678e-07
1.18801e-07
-1.85933e-07
1.9681e-07
-1.0823e-07
9.74744e-08
-1.80359e-07
1.91115e-07
-8.60763e-08
7.60963e-08
-1.70378e-07
1.80358e-07
-6.66621e-08
5.81973e-08
-1.57748e-07
1.66213e-07
-4.98946e-08
4.30147e-08
-1.44056e-07
1.50936e-07
-3.67116e-08
3.07785e-08
-1.306e-07
1.36533e-07
-2.43114e-08
1.81341e-08
-1.17932e-07
1.24109e-07
-1.18493e-08
6.06756e-09
-1.06172e-07
1.11953e-07
-8.05866e-08
8.3399e-08
-2.81244e-09
6.61278e-09
-9.55162e-09
-7.86235e-08
8.15623e-08
1.25235e-08
-1.66956e-08
-9.75765e-08
1.01749e-07
1.91787e-08
-2.38398e-08
-1.08418e-07
1.13079e-07
2.90394e-08
-3.45434e-08
-1.12991e-07
1.18495e-07
4.04485e-08
-4.52908e-08
-7.66207e-08
8.1463e-08
4.92606e-08
-5.04809e-08
1.49109e-08
-1.36906e-08
4.93242e-08
-4.52666e-08
1.35123e-07
-1.39181e-07
3.80133e-08
-2.77271e-08
2.52902e-07
-2.63188e-07
1.42151e-08
3.9442e-10
3.28957e-07
-3.43567e-07
-1.63194e-08
3.07607e-08
3.46514e-07
-3.60955e-07
-4.54915e-08
5.97113e-08
3.42632e-07
-3.56852e-07
-7.55757e-08
9.13319e-08
3.31694e-07
-3.47451e-07
-1.08016e-07
1.23692e-07
2.96808e-07
-3.12484e-07
-1.39455e-07
1.54053e-07
2.41656e-07
-2.56254e-07
-1.6789e-07
1.82854e-07
1.77297e-07
-1.92261e-07
-1.91776e-07
2.06159e-07
9.54026e-08
-1.09786e-07
-2.12779e-07
2.13455e-07
-2.09667e-08
2.02917e-08
-2.1224e-07
2.079e-07
-1.00529e-07
1.0487e-07
-1.98953e-07
1.90515e-07
-1.57603e-07
1.66041e-07
-1.81906e-07
1.73175e-07
-1.8501e-07
1.93741e-07
-1.62251e-07
1.5054e-07
-2.04656e-07
2.16367e-07
-1.38482e-07
1.26079e-07
-2.07991e-07
2.20394e-07
-1.1232e-07
1.01967e-07
-2.02915e-07
2.13268e-07
-9.25332e-08
8.17442e-08
-1.90153e-07
2.00942e-07
-7.00223e-08
6.01902e-08
-1.74834e-07
1.84666e-07
-5.11449e-08
4.27797e-08
-1.58373e-07
1.66738e-07
-3.39574e-08
2.63758e-08
-1.42474e-07
1.50056e-07
-1.96674e-08
1.42073e-08
-1.30047e-07
1.35507e-07
-9.05464e-09
4.58491e-09
-1.17665e-07
1.22135e-07
-8.61823e-08
8.89349e-08
-2.7526e-09
6.59591e-09
-9.49798e-09
-8.44831e-08
8.73852e-08
1.23946e-08
-1.65935e-08
-1.05936e-07
1.10135e-07
1.89235e-08
-2.36141e-08
-1.17758e-07
1.22449e-07
2.89209e-08
-3.46531e-08
-1.24111e-07
1.29844e-07
4.09403e-08
-4.61879e-08
-8.65055e-08
9.17531e-08
5.07636e-08
-5.23855e-08
1.22727e-08
-1.06508e-08
5.16893e-08
-4.79588e-08
1.43081e-07
-1.46811e-07
4.09578e-08
-3.05543e-08
2.73532e-07
-2.83935e-07
1.6671e-08
-1.50804e-09
3.58436e-07
-3.73599e-07
-1.49913e-08
2.95648e-08
3.75455e-07
-3.90029e-07
-4.41738e-08
5.83313e-08
3.71041e-07
-3.85198e-07
-7.45489e-08
9.09751e-08
3.63528e-07
-3.79954e-07
-1.08501e-07
1.25114e-07
3.28619e-07
-3.45232e-07
-1.41895e-07
1.57372e-07
2.71305e-07
-2.86781e-07
-1.72945e-07
1.89495e-07
2.0813e-07
-2.2468e-07
-2.00285e-07
2.19309e-07
1.26343e-07
-1.45367e-07
-2.28649e-07
2.28281e-07
-1.99594e-08
2.03279e-08
-2.28331e-07
2.2346e-07
-1.09583e-07
1.14455e-07
-2.11771e-07
2.02263e-07
-1.74938e-07
1.84446e-07
-1.95046e-07
1.89535e-07
-2.01792e-07
2.07303e-07
-1.75616e-07
1.59548e-07
-2.28394e-07
2.44462e-07
-1.45115e-07
1.35491e-07
-2.33791e-07
2.43414e-07
-1.22031e-07
1.07269e-07
-2.24146e-07
2.38908e-07
-9.31761e-08
8.17191e-08
-2.12654e-07
2.24111e-07
-7.10233e-08
6.11907e-08
-1.94511e-07
2.04343e-07
-5.12532e-08
4.31034e-08
-1.75505e-07
1.83655e-07
-3.55537e-08
2.82724e-08
-1.57973e-07
1.65254e-07
-2.11124e-08
1.50716e-08
-1.4061e-07
1.46651e-07
-9.36083e-09
4.62915e-09
-1.26132e-07
1.30863e-07
-9.16553e-08
9.43419e-08
-2.68663e-09
6.5807e-09
-9.44106e-09
-9.02675e-08
9.31279e-08
1.22653e-08
-1.64749e-08
-1.14342e-07
1.18551e-07
1.86565e-08
-2.33491e-08
-1.27145e-07
1.31837e-07
2.87747e-08
-3.4751e-08
-1.35696e-07
1.41672e-07
4.14538e-08
-4.71317e-08
-9.72126e-08
1.02891e-07
5.23938e-08
-5.44423e-08
8.81859e-09
-6.77011e-09
5.42613e-08
-5.09066e-08
1.50361e-07
-1.53715e-07
4.42178e-08
-3.3686e-08
2.94402e-07
-3.04934e-07
1.93732e-08
-3.52909e-09
3.89087e-07
-4.04931e-07
-1.36618e-08
2.83283e-08
4.04648e-07
-4.19315e-07
-4.26906e-08
5.66514e-08
3.99267e-07
-4.13228e-07
-7.32197e-08
9.03989e-08
3.96741e-07
-4.1392e-07
-1.08842e-07
1.26482e-07
3.62349e-07
-3.79989e-07
-1.44271e-07
1.60475e-07
3.02601e-07
-3.18806e-07
-1.7822e-07
1.94405e-07
2.41443e-07
-2.57629e-07
-2.11302e-07
2.36465e-07
1.67316e-07
-1.92479e-07
-2.46786e-07
2.43412e-07
-2.20757e-08
2.54492e-08
-2.50194e-07
2.43176e-07
-1.19929e-07
1.26948e-07
-2.28412e-07
2.22325e-07
-1.92248e-07
1.98335e-07
-2.15939e-07
2.07459e-07
-2.16613e-07
2.25093e-07
-1.98496e-07
1.8465e-07
-2.53621e-07
2.67466e-07
-1.6387e-07
1.40807e-07
-2.60015e-07
2.83078e-07
-1.19681e-07
1.10012e-07
-2.55933e-07
2.65603e-07
-9.89906e-08
8.70542e-08
-2.34795e-07
2.46731e-07
-7.37127e-08
6.19776e-08
-2.13775e-07
2.25511e-07
-5.19091e-08
4.61191e-08
-1.90098e-07
1.95888e-07
-4.2339e-08
3.86229e-08
-1.71181e-07
1.74897e-07
-3.24696e-08
2.50671e-08
-1.54175e-07
1.61577e-07
-1.64901e-08
8.46294e-09
-1.37487e-07
1.45514e-07
-9.69933e-08
9.96073e-08
-2.61401e-09
6.56646e-09
-9.37718e-09
-9.59641e-08
9.87748e-08
1.21338e-08
-1.63338e-08
-1.22759e-07
1.26959e-07
1.83781e-08
-2.30321e-08
-1.36516e-07
1.4117e-07
2.85915e-08
-3.48262e-08
-1.47776e-07
1.5401e-07
4.19769e-08
-4.8114e-08
-1.08794e-07
1.14931e-07
5.41447e-08
-5.664e-08
4.50057e-09
-2.00529e-09
5.70346e-08
-5.41127e-08
1.56861e-07
-1.59783e-07
4.78119e-08
-3.71445e-08
3.15532e-07
-3.26199e-07
2.23396e-08
-5.6783e-09
4.21164e-07
-4.37825e-07
-1.23562e-08
2.70997e-08
4.34024e-07
-4.48768e-07
-4.1018e-08
5.45908e-08
4.27015e-07
-4.40588e-07
-7.15069e-08
8.95507e-08
4.3152e-07
-4.49564e-07
-1.08998e-07
1.27814e-07
3.98194e-07
-4.1701e-07
-1.46325e-07
1.64213e-07
3.35597e-07
-3.53484e-07
-1.80972e-07
1.96166e-07
2.72594e-07
-2.87789e-07
-2.32356e-07
2.51577e-07
2.18885e-07
-2.38105e-07
-2.51022e-07
2.60934e-07
-2.76903e-08
1.77781e-08
-2.91827e-07
2.85111e-07
-1.33789e-07
1.40506e-07
-2.74783e-07
2.70149e-07
-2.0428e-07
2.08914e-07
-2.53839e-07
2.31565e-07
-2.34486e-07
2.5676e-07
-2.15319e-07
2.02809e-07
-2.91695e-07
3.04204e-07
-1.84333e-07
1.67043e-07
-3.0149e-07
3.1878e-07
-1.46774e-07
1.28073e-07
-2.76171e-07
2.94872e-07
-1.10634e-07
9.44567e-08
-2.62435e-07
2.78613e-07
-7.34096e-08
5.96367e-08
-2.39458e-07
2.53231e-07
-4.84111e-08
4.30174e-08
-2.02118e-07
2.07512e-07
-3.70233e-08
3.3079e-08
-1.79189e-07
1.83133e-07
-2.68326e-08
2.05619e-08
-1.68939e-07
1.7521e-07
-1.32122e-08
6.73364e-09
-1.53021e-07
1.595e-07
-1.02182e-07
1.04716e-07
-2.53393e-09
6.55404e-09
-9.30593e-09
-1.01558e-07
1.04309e-07
1.20007e-08
-1.61654e-08
-1.31145e-07
1.3531e-07
1.80956e-08
-2.26539e-08
-1.45785e-07
1.50343e-07
2.8366e-08
-3.4873e-08
-1.6038e-07
1.66887e-07
4.25035e-08
-4.91358e-08
-1.21311e-07
1.27943e-07
5.60184e-08
-5.89744e-08
-7.18819e-10
3.67484e-09
6.00096e-08
-5.75865e-08
1.62464e-07
-1.64888e-07
5.17682e-08
-4.09623e-08
3.36936e-07
-3.47742e-07
2.55955e-08
-7.95144e-09
4.54955e-07
-4.726e-07
-1.11327e-08
2.59228e-08
4.63539e-07
-4.78329e-07
-3.91351e-08
5.20711e-08
4.53877e-07
-4.66813e-07
-6.93262e-08
8.83918e-08
4.68085e-07
-4.8715e-07
-1.08915e-07
1.28992e-07
4.36463e-07
-4.5654e-07
-1.48518e-07
1.67833e-07
3.72719e-07
-3.92033e-07
-1.79817e-07
2.05688e-07
3.078e-07
-3.33671e-07
-2.54219e-07
2.1589e-07
2.32809e-07
-1.94479e-07
-2.4436e-07
3.34139e-07
2.79534e-08
-1.17732e-07
-3.79589e-07
3.60223e-07
-1.48065e-07
1.6743e-07
-3.45717e-07
3.34585e-07
-2.26941e-07
2.38074e-07
-3.17405e-07
2.84936e-07
-2.64701e-07
2.97171e-07
-2.46587e-07
2.22167e-07
-3.29406e-07
3.53826e-07
-1.95132e-07
1.72776e-07
-3.47175e-07
3.69531e-07
-1.44024e-07
1.22765e-07
-3.17109e-07
3.38368e-07
-1.01186e-07
8.20524e-08
-2.99182e-07
3.18316e-07
-6.55045e-08
5.38656e-08
-2.69051e-07
2.8069e-07
-4.15031e-08
3.41568e-08
-2.15771e-07
2.23117e-07
-2.59709e-08
2.15379e-08
-1.88308e-07
1.92741e-07
-1.73102e-08
1.39722e-08
-1.80915e-07
1.84253e-07
-8.95532e-09
4.88125e-09
-1.65218e-07
1.69292e-07
-1.07207e-07
1.09653e-07
-2.44574e-09
6.5453e-09
-9.22777e-09
-1.07028e-07
1.09711e-07
1.1869e-08
-1.59657e-08
-1.39445e-07
1.43542e-07
1.7826e-08
-2.22086e-08
-1.54826e-07
1.59208e-07
2.80984e-08
-3.48922e-08
-1.73536e-07
1.80329e-07
4.30324e-08
-5.02065e-08
-1.3484e-07
1.42014e-07
5.80258e-08
-6.14502e-08
-6.86486e-09
1.02892e-08
6.31969e-08
-6.13483e-08
1.67033e-07
-1.68882e-07
5.61292e-08
-4.51872e-08
3.58618e-07
-3.6956e-07
2.91786e-08
-1.03473e-08
4.9081e-07
-5.09642e-07
-1.00679e-08
2.48854e-08
4.93133e-07
-5.07951e-07
-3.70123e-08
4.89998e-08
4.79319e-07
-4.91306e-07
-6.65819e-08
8.68511e-08
5.0678e-07
-5.2705e-07
-1.08631e-07
1.30048e-07
4.77228e-07
-4.98645e-07
-1.52007e-07
1.65227e-07
4.08593e-07
-4.21813e-07
-1.94739e-07
1.97002e-07
3.53786e-07
-3.56049e-07
-2.26297e-07
2.70198e-07
1.68121e-07
-2.12022e-07
-3.49255e-07
3.77483e-07
2.16713e-07
-2.44641e-07
-3.51131e-07
3.74578e-07
-1.89189e-07
1.65731e-07
-3.51681e-07
2.857e-07
-2.71184e-07
3.37165e-07
-2.36658e-07
2.14364e-07
-3.44993e-07
3.67288e-07
-2.01468e-07
1.89013e-07
-3.67136e-07
3.79592e-07
-1.60873e-07
1.5428e-07
-3.93616e-07
4.00209e-07
-1.29393e-07
1.15728e-07
-3.65932e-07
3.79596e-07
-9.82992e-08
7.84103e-08
-3.29296e-07
3.49185e-07
-7.22795e-08
6.16568e-08
-2.93302e-07
3.03925e-07
-4.68672e-08
3.65518e-08
-2.34865e-07
2.4518e-07
-2.34292e-08
1.60089e-08
-2.00034e-07
2.07454e-07
-9.36792e-09
5.57516e-09
-1.88128e-07
1.91921e-07
-2.64229e-09
1.81458e-09
-1.70951e-07
1.71778e-07
-1.12051e-07
1.144e-07
-2.34896e-09
6.54003e-09
-9.14138e-09
-1.12354e-07
1.14955e-07
1.17372e-08
-1.57192e-08
-1.47588e-07
1.5157e-07
1.75771e-08
-2.16799e-08
-1.63464e-07
1.67567e-07
2.77778e-08
-3.48723e-08
-1.87271e-07
1.94366e-07
4.35433e-08
-5.13201e-08
-1.4948e-07
1.57257e-07
6.01572e-08
-6.40491e-08
-1.39473e-08
1.78392e-08
6.65821e-08
-6.53926e-08
1.70412e-07
-1.71602e-07
6.09234e-08
-4.98612e-08
3.80564e-07
-3.91626e-07
3.3125e-08
-1.28616e-08
5.29154e-07
-5.49417e-07
-9.27245e-09
2.41031e-08
5.22768e-07
-5.37599e-07
-3.46047e-08
4.52389e-08
5.02671e-07
-5.13306e-07
-6.31245e-08
8.49183e-08
5.48036e-07
-5.6983e-07
-1.08043e-07
1.31344e-07
5.21011e-07
-5.44311e-07
-1.53827e-07
1.72999e-07
4.36787e-07
-4.55959e-07
-1.78104e-07
2.10895e-07
3.55488e-07
-3.88278e-07
-2.75869e-07
3.29512e-07
3.06262e-07
-3.59904e-07
-3.44994e-07
2.50579e-07
2.0277e-07
-1.1456e-07
-1.34705e-07
1.50291e-07
-1.91369e-07
1.66527e-07
-1.76123e-07
1.52675e-07
-3.32388e-07
1.87752e-07
-1.49286e-07
1.47678e-07
-3.70813e-07
1.32858e-07
-1.68539e-07
1.73226e-07
-3.97913e-07
2.33477e-07
-1.63202e-07
1.567e-07
-4.23102e-07
4.29604e-07
-1.43264e-07
1.27676e-07
-3.97212e-07
4.12801e-07
-1.25017e-07
1.05805e-07
-3.54658e-07
3.7387e-07
-1.02203e-07
8.55435e-08
-3.11661e-07
3.2832e-07
-7.0256e-08
6.09291e-08
-2.61373e-07
2.707e-07
-4.24795e-08
3.285e-08
-2.19931e-07
2.29561e-07
-2.09567e-08
1.49684e-08
-1.97266e-07
2.03254e-07
-1.1885e-08
7.09308e-09
-1.73558e-07