/*--------------------------------*- C++ -*----------------------------------*\
| =========                 |                                                 |
| \\      /  F ield         | OpenFOAM: The Open Source CFD Toolbox           |
|  \\    /   O peration     | Version:  2.4.0                                 |
|   \\  /    A nd           | Web:      www.OpenFOAM.org                      |
|    \\/     M anipulation  |                                                 |
\*---------------------------------------------------------------------------*/
FoamFile
{
    version     2.0;
    format      ascii;
    class       volVectorField;
    location    "0.177";
    object      U;
}
// * * * * * * * * * * * * * * * * * * * * * * * * * * * * * * * * * * * * * //

dimensions      [0 1 -1 0 0 0 0];

internalField   nonuniform List<vector> 
3600
(
(0.00350398 -0.000291127 0)
(0.0131947 -0.000276627 0)
(0.0238203 -0.000153212 0)
(0.0287139 3.48195e-07 0)
(0.0302792 0.000160839 0)
(0.0271158 0.000441354 0)
(0.020313 0.00049946 0)
(0.0101241 0.000494392 0)
(0.00582565 0.000323429 0)
(-0.00332589 0.000177517 0)
(-0.00136454 -6.61532e-06 0)
(-0.00723106 0.000172116 0)
(-0.00838991 7.56213e-05 0)
(-0.0109743 -0.000197101 0)
(-0.0159938 -6.60513e-05 0)
(-0.0114973 -0.00123047 0)
(-0.00569191 -0.00224774 0)
(0.00580828 -0.00080444 0)
(0.00451481 -0.000338054 0)
(0.00120482 0.00020979 0)
(-0.0224127 0.00582158 0)
(-0.0618065 0.00811444 0)
(-0.0636232 0.000427868 0)
(-0.0523072 -0.00232694 0)
(-0.0511022 -0.00025261 0)
(-0.0454177 -0.00151444 0)
(-0.035432 -0.0035826 0)
(-0.0234656 -0.00426674 0)
(-0.0140225 -0.00238511 0)
(-0.00561289 -0.00293464 0)
(0.00189928 -0.000879653 0)
(0.0123496 -0.0012521 0)
(0.0286017 -0.00108183 0)
(0.038168 -0.000551633 0)
(0.0437094 -4.2278e-05 0)
(0.0441584 0.000919261 0)
(0.0404097 0.00144037 0)
(0.029504 0.00158382 0)
(0.0280759 0.00155559 0)
(0.0117696 0.00110708 0)
(0.0192457 0.000616685 0)
(0.0046273 0.00145123 0)
(0.00608081 0.000954207 0)
(-0.00020646 0.00169151 0)
(-0.0143958 0.000742719 0)
(-0.00690352 -0.00198616 0)
(-0.0147954 -0.00432456 0)
(-0.00799056 -0.00289997 0)
(-0.00913112 0.00225284 0)
(-0.0304614 0.0132062 0)
(-0.0730143 0.0273383 0)
(-0.103006 0.0146934 0)
(-0.0890449 -0.00633662 0)
(-0.0826444 -0.00569489 0)
(-0.0698814 -0.00499588 0)
(-0.0554845 -0.010981 0)
(-0.040393 -0.0185102 0)
(-0.0276144 -0.0191475 0)
(-0.0169632 -0.0165453 0)
(-0.00515999 -0.0169361 0)
(0.000710881 -0.00127959 0)
(0.0102905 -0.00223386 0)
(0.0273427 -0.00214764 0)
(0.0377128 -0.00126623 0)
(0.0441591 -0.000468355 0)
(0.0458676 0.00111882 0)
(0.043731 0.00211736 0)
(0.0336362 0.00230874 0)
(0.0352261 0.0025975 0)
(0.0167843 0.00181753 0)
(0.0297061 0.00100777 0)
(0.0110468 0.00283291 0)
(0.0177608 0.00128945 0)
(0.0137173 0.0044357 0)
(-0.00379855 0.00197094 0)
(0.00588498 -0.00108763 0)
(-0.00918893 -0.00207521 0)
(-0.0163222 -0.00270066 0)
(-0.0258058 0.00895816 0)
(-0.0550978 0.0290765 0)
(-0.0930006 0.039972 0)
(-0.102203 0.0150437 0)
(-0.0821195 -0.0139317 0)
(-0.0820139 -0.0161056 0)
(-0.0637756 -0.0198723 0)
(-0.0483978 -0.0276861 0)
(-0.0314648 -0.0322137 0)
(-0.0227861 -0.027697 0)
(-0.0154824 -0.0307655 0)
(-0.0058068 -0.0308835 0)
(0.00027289 -0.00164664 0)
(0.00957415 -0.00322073 0)
(0.0268131 -0.00323141 0)
(0.0372417 -0.00199907 0)
(0.0438494 -0.000913245 0)
(0.0457546 0.00128376 0)
(0.043863 0.00276705 0)
(0.0339399 0.00291925 0)
(0.0366643 0.00366239 0)
(0.016925 0.00228346 0)
(0.0337427 0.00140265 0)
(0.0098706 0.00393194 0)
(0.0259165 0.000593809 0)
(0.0222925 0.00686663 0)
(0.00565638 0.00306055 0)
(0.0153863 0.000144509 0)
(-0.00350737 0.00341964 0)
(-0.0235008 0.00308626 0)
(-0.0412194 0.0191648 0)
(-0.0628062 0.0428799 0)
(-0.0878279 0.0478857 0)
(-0.0803099 0.012518 0)
(-0.0670457 -0.0182361 0)
(-0.0728107 -0.0227988 0)
(-0.0577363 -0.0315499 0)
(-0.0437585 -0.043426 0)
(-0.0333579 -0.0458034 0)
(-0.0209217 -0.03608 0)
(-0.0114063 -0.0390433 0)
(-0.0064651 -0.0412169 0)
(0.000110817 -0.00198409 0)
(0.00935634 -0.00420897 0)
(0.0267572 -0.00432079 0)
(0.0372326 -0.00273706 0)
(0.0439282 -0.00136547 0)
(0.0458702 0.00144811 0)
(0.0438779 0.00341669 0)
(0.0339327 0.00348456 0)
(0.0368717 0.00478588 0)
(0.0161312 0.00254762 0)
(0.0355853 0.00218269 0)
(0.00431752 0.00442287 0)
(0.0336419 -0.00109738 0)
(0.0249928 0.00888578 0)
(0.0143897 0.00414904 0)
(0.0232496 0.00192293 0)
(0.00434668 0.0114886 0)
(-0.0236144 0.0117059 0)
(-0.0468705 0.0269451 0)
(-0.0569965 0.0480197 0)
(-0.0639152 0.0496935 0)
(-0.0488404 0.0103826 0)
(-0.0400433 -0.0181183 0)
(-0.0380776 -0.0268549 0)
(-0.0284713 -0.0371815 0)
(-0.0166521 -0.051677 0)
(-0.0166455 -0.0558737 0)
(-0.0106808 -0.0513809 0)
(-0.00486137 -0.0448656 0)
(-0.00486286 -0.0459438 0)
(1.38265e-05 -0.00231813 0)
(0.00922674 -0.00520305 0)
(0.0268032 -0.00541856 0)
(0.0373618 -0.00348333 0)
(0.0441542 -0.00182472 0)
(0.0461424 0.00162433 0)
(0.0439813 0.00407718 0)
(0.0340546 0.00404464 0)
(0.0368122 0.00597181 0)
(0.0156683 0.00268575 0)
(0.0362853 0.00349016 0)
(-0.00103827 0.00414351 0)
(0.0388717 -0.00356692 0)
(0.0196283 0.0106248 0)
(0.0241559 0.00419783 0)
(0.029304 0.0029101 0)
(0.0154118 0.0195514 0)
(-0.0128318 0.0208329 0)
(-0.0351988 0.0328124 0)
(-0.0395049 0.0471444 0)
(-0.0386109 0.0452612 0)
(-0.0242625 0.00542992 0)
(-0.0138255 -0.025492 0)
(0.000137605 -0.0341497 0)
(0.0100065 -0.0417905 0)
(0.0153803 -0.0494498 0)
(0.00731094 -0.0496159 0)
(9.46834e-05 -0.0502252 0)
(-0.00178906 -0.0435136 0)
(-0.00392957 -0.0422493 0)
(-8.09054e-05 -0.00264502 0)
(0.0090866 -0.00620306 0)
(0.0268685 -0.00652645 0)
(0.0375344 -0.0042405 0)
(0.0444414 -0.00229295 0)
(0.0464932 0.00181261 0)
(0.0441182 0.00474778 0)
(0.0342962 0.00461642 0)
(0.0365844 0.00718608 0)
(0.0158286 0.00278369 0)
(0.0363111 0.00510856 0)
(-0.00265804 0.00343038 0)
(0.0393612 -0.00462598 0)
(0.00261904 0.0115324 0)
(0.033999 0.00251105 0)
(0.0295533 0.00366391 0)
(0.0232524 0.025696 0)
(0.00220681 0.0301367 0)
(-0.0232634 0.0371488 0)
(-0.0223695 0.0442946 0)
(-0.0140323 0.0402023 0)
(0.00526013 0.000338585 0)
(0.0153781 -0.0341797 0)
(0.0256955 -0.0447407 0)
(0.0342148 -0.0469812 0)
(0.0346591 -0.0455442 0)
(0.0282708 -0.040454 0)
(0.0148553 -0.0383009 0)
(0.0037621 -0.0372362 0)
(-0.00202794 -0.0371225 0)
(-0.000189574 -0.00296406 0)
(0.00891776 -0.00720969 0)
(0.0269427 -0.00764645 0)
(0.0377369 -0.00501105 0)
(0.0447798 -0.0027726 0)
(0.0469084 0.00201773 0)
(0.044274 0.00542673 0)
(0.0346352 0.00521033 0)
(0.0361633 0.00839373 0)
(0.0166884 0.00286442 0)
(0.0358628 0.0067272 0)
(0.000149801 0.00291611 0)
(0.0369149 -0.0030823 0)
(-0.0160417 0.0110196 0)
(0.036071 -0.00214171 0)
(0.0195044 0.00519417 0)
(0.0222628 0.0298829 0)
(0.0104905 0.0373944 0)
(0.00022695 0.0435944 0)
(0.00156227 0.0407949 0)
(0.0114702 0.0309856 0)
(0.0368831 -0.00791302 0)
(0.043027 -0.0380122 0)
(0.0439875 -0.0501351 0)
(0.0445082 -0.0478283 0)
(0.0399163 -0.0415048 0)
(0.0343218 -0.0340051 0)
(0.0243076 -0.0270326 0)
(0.0112551 -0.0250689 0)
(0.00186393 -0.0269017 0)
(-0.000316197 -0.00327296 0)
(0.00871653 -0.00822379 0)
(0.0270245 -0.0087805 0)
(0.0379683 -0.00579758 0)
(0.0451707 -0.00326577 0)
(0.0473858 0.00224258 0)
(0.044456 0.006113 0)
(0.0350301 0.00584468 0)
(0.0355644 0.00953714 0)
(0.018186 0.00302617 0)
(0.0341425 0.00800488 0)
(0.00693682 0.00271361 0)
(0.0355403 0.000152606 0)
(-0.0212641 0.0098659 0)
(0.0281079 -0.00546432 0)
(0.00262623 0.0067055 0)
(0.0245639 0.0321674 0)
(0.0124958 0.0387201 0)
(0.0257686 0.042678 0)
(0.0363659 0.0390165 0)
(0.0424848 0.023566 0)
(0.0622152 -0.0112748 0)
(0.0606072 -0.036588 0)
(0.0530354 -0.0486185 0)
(0.0473991 -0.0447874 0)
(0.0405442 -0.036237 0)
(0.0330226 -0.0265525 0)
(0.0243466 -0.0162724 0)
(0.0130861 -0.013269 0)
(0.00388864 -0.0169319 0)
(-0.000461982 -0.00357016 0)
(0.00848097 -0.00924638 0)
(0.0271134 -0.00993042 0)
(0.0382284 -0.00660307 0)
(0.0456163 -0.00377424 0)
(0.0479262 0.00248761 0)
(0.0446749 0.00681031 0)
(0.0354136 0.00652046 0)
(0.034988 0.0105873 0)
(0.0195465 0.00339985 0)
(0.0309968 0.00867228 0)
(0.0148861 0.00245026 0)
(0.0337079 0.00400411 0)
(-0.0158766 0.0105925 0)
(0.0215726 -0.00701241 0)
(-0.00282097 0.00460785 0)
(0.0300797 0.028907 0)
(0.0188247 0.0360848 0)
(0.0329319 0.0342969 0)
(0.0541131 0.0337728 0)
(0.0598602 0.0179967 0)
(0.0699611 -0.0115185 0)
(0.0620411 -0.0323298 0)
(0.0518453 -0.043019 0)
(0.0430075 -0.0381733 0)
(0.0358299 -0.0288511 0)
(0.0258386 -0.0192644 0)
(0.0188906 -0.00655726 0)
(0.00995314 -0.00247888 0)
(0.00306515 -0.00663843 0)
(-0.000627465 -0.00385437 0)
(0.0082093 -0.0102785 0)
(0.0272089 -0.0110976 0)
(0.0385176 -0.00743117 0)
(0.0461189 -0.00430012 0)
(0.0485329 0.00275747 0)
(0.044926 0.00752803 0)
(0.0357774 0.00722895 0)
(0.0345816 0.0115755 0)
(0.0201138 0.00405717 0)
(0.0278696 0.0085063 0)
(0.0208923 0.0025072 0)
(0.0281296 0.00748371 0)
(-0.00519479 0.0110896 0)
(0.0199489 -0.00754003 0)
(0.00285862 0.0023291 0)
(0.0274357 0.0262329 0)
(0.0253659 0.0350341 0)
(0.0312919 0.0272017 0)
(0.0478548 0.0254806 0)
(0.0558423 0.0119612 0)
(0.0552319 -0.0100544 0)
(0.0514494 -0.0299018 0)
(0.0477296 -0.0381363 0)
(0.0379811 -0.0327839 0)
(0.0329501 -0.0209813 0)
(0.0197176 -0.0103644 0)
(0.0129165 0.000558872 0)
(0.00702214 0.00429424 0)
(0.00281076 -0.000801044 0)
(-0.000813097 -0.00412353 0)
(0.00789952 -0.0113213 0)
(0.0273102 -0.0122829 0)
(0.0388361 -0.00828645 0)
(0.0466814 -0.00484551 0)
(0.0492087 0.00305297 0)
(0.0452016 0.00827359 0)
(0.0361594 0.00794625 0)
(0.0343128 0.0126049 0)
(0.0198736 0.00483272 0)
(0.0266767 0.00784566 0)
(0.0231709 0.00313069 0)
(0.0214591 0.0103649 0)
(0.00557513 0.0122296 0)
(0.0207024 -0.00763541 0)
(0.0142762 0.000820724 0)
(0.0200504 0.0222032 0)
(0.026625 0.0339894 0)
(0.0322466 0.0248416 0)
(0.038641 0.0210938 0)
(0.0480821 0.0109781 0)
(0.0484245 -0.00820301 0)
(0.0519973 -0.0289877 0)
(0.0505783 -0.0320288 0)
(0.0374525 -0.0265226 0)
(0.0311439 -0.0141885 0)
(0.0146561 -0.00111154 0)
(0.00958961 0.0079661 0)
(0.0060242 0.00784848 0)
(0.00293499 0.00194248 0)
(-0.00101936 -0.00437501 0)
(0.00754938 -0.0123756 0)
(0.0274161 -0.0134875 0)
(0.0391836 -0.00917344 0)
(0.0473061 -0.00541272 0)
(0.0499554 0.00338091 0)
(0.0455003 0.00904425 0)
(0.0365979 0.00867776 0)
(0.0339742 0.0137033 0)
(0.019595 0.00565806 0)
(0.0261937 0.00696269 0)
(0.0243987 0.0046089 0)
(0.0175413 0.0110848 0)
(0.0139478 0.00949538 0)
(0.0219259 -0.00864541 0)
(0.0223221 0.00143012 0)
(0.0166049 0.0235899 0)
(0.0205282 0.0297698 0)
(0.0336758 0.0224128 0)
(0.0387546 0.0179049 0)
(0.0444108 0.00850286 0)
(0.052542 -0.0109601 0)
(0.0470521 -0.0292582 0)
(0.0432894 -0.0251979 0)
(0.0320366 -0.0166735 0)
(0.0255223 0.000767236 0)
(0.0177139 0.0101406 0)
(0.0137889 0.00893662 0)
(0.00384503 0.0126655 0)
(0.00407038 0.00448167 0)
(-0.0012468 -0.00460713 0)
(0.00715625 -0.0134425 0)
(0.0275251 -0.0147142 0)
(0.0395599 -0.0100954 0)
(0.0479969 -0.00600419 0)
(0.0507754 0.00374536 0)
(0.0458287 0.00984513 0)
(0.0370619 0.0094177 0)
(0.0336007 0.0149085 0)
(0.0193223 0.00648144 0)
(0.0255023 0.00608596 0)
(0.0256786 0.00589882 0)
(0.0164075 0.0132892 0)
(0.0142349 0.010877 0)
(0.0238317 -0.00926632 0)
(0.0174668 0.000586347 0)
(0.0259218 0.0234917 0)
(0.0211935 0.0256798 0)
(0.0317289 0.0183217 0)
(0.038057 0.0167237 0)
(0.0436554 0.00589088 0)
(0.0489786 -0.0101862 0)
(0.0357509 -0.0237385 0)
(0.0329614 -0.0226725 0)
(0.0275388 -0.0161899 0)
(0.0224976 -0.00460496 0)
(0.0204534 0.00913938 0)
(0.00551353 0.0220505 0)
(-0.00308413 0.0183748 0)
(0.00543098 -0.0012467 0)
(-0.00149599 -0.0048178 0)
(0.00671715 -0.0145228 0)
(0.0276359 -0.0159667 0)
(0.039965 -0.0110547 0)
(0.0487571 -0.00662281 0)
(0.0516744 0.0041473 0)
(0.046175 0.0106728 0)
(0.0375594 0.0101888 0)
(0.033224 0.0161445 0)
(0.0191179 0.00735184 0)
(0.0234065 0.00482518 0)
(0.0285135 0.00776476 0)
(0.019619 0.0124596 0)
(0.0186103 0.00663689 0)
(0.0234524 -0.00662861 0)
(0.017744 -0.00066503 0)
(0.034297 0.0248488 0)
(0.0216862 0.0254624 0)
(0.0274514 0.0152667 0)
(0.0379724 0.0112606 0)
(0.0359628 0.00270259 0)
(0.0354803 -0.00883282 0)
(0.0284334 -0.0183748 0)
(0.0200577 -0.0148986 0)
(0.00321097 -0.00677167 0)
(-0.0063046 0.00951845 0)
(-0.00648476 0.0262397 0)
(-0.0139952 0.0304568 0)
(-0.00456371 0.00927823 0)
(0.000342278 -0.0077664 0)
(-0.00176758 -0.00500387 0)
(0.00622856 -0.0156184 0)
(0.0277472 -0.017249 0)
(0.0403985 -0.0120538 0)
(0.0495929 -0.00727192 0)
(0.0526521 0.00459156 0)
(0.0465312 0.0115474 0)
(0.0380883 0.0108818 0)
(0.033075 0.0176397 0)
(0.0182284 0.00852159 0)
(0.021542 0.00301269 0)
(0.0323736 0.00837349 0)
(0.0182349 0.0159863 0)
(-0.00592571 0.00800384 0)
(0.0225643 -0.00923575 0)
(0.0202104 -0.00496885 0)
(0.0443124 0.0256236 0)
(0.0331824 0.0276713 0)
(0.0337704 0.0128201 0)
(0.0361614 0.0142485 0)
(0.0258873 0.0065039 0)
(0.0404921 -0.00668039 0)
(0.0333206 -0.0140491 0)
(0.0243667 -0.00505064 0)
(0.010933 0.00258907 0)
(-0.00469443 0.00679467 0)
(-0.00963411 0.0216151 0)
(-0.0116735 0.0222972 0)
(-0.00496326 0.000499886 0)
(-0.0106337 -0.00909465 0)
(-0.00206231 -0.00516522 0)
(0.00568655 -0.0167297 0)
(0.0278576 -0.018565 0)
(0.0408599 -0.0130958 0)
(0.0505133 -0.00795447 0)
(0.0536946 0.00509109 0)
(0.0468822 0.0124102 0)
(0.0387794 0.011746 0)
(0.0329309 0.0189703 0)
(0.0166676 0.00921535 0)
(0.022241 0.00183898 0)
(0.0352162 0.00968053 0)
(0.0221472 0.0193644 0)
(0.0109641 0.00539127 0)
(0.0225257 -0.0108394 0)
(0.0293776 -0.00982019 0)
(0.0475958 0.0207333 0)
(0.0511464 0.02592 0)
(0.0295981 0.0153199 0)
(0.0212145 0.0152325 0)
(0.0271647 -0.000403338 0)
(0.0375137 -0.0127174 0)
(0.0200433 -0.00863213 0)
(0.0133324 0.000727182 0)
(0.0148786 0.0125387 0)
(0.0102666 0.0222911 0)
(0.00362938 0.0271031 0)
(0.00341357 0.0247906 0)
(0.00419311 0.0103678 0)
(-0.00553159 0.000923602 0)
(-0.00238094 -0.00529409 0)
(0.0050869 -0.0178531 0)
(0.0279637 -0.0199186 0)
(0.0413486 -0.0141849 0)
(0.051528 -0.00867137 0)
(0.0547489 0.00563994 0)
(0.0473156 0.0133954 0)
(0.0395192 0.0119758 0)
(0.0335096 0.021366 0)
(0.0129324 0.0110532 0)
(0.0226568 -0.00255878 0)
(0.0388271 0.0109752 0)
(0.01281 0.0221818 0)
(-0.00635035 0.00695689 0)
(0.0140333 -0.0129481 0)
(0.0251863 -0.014088 0)
(0.0437362 0.0233114 0)
(0.0270118 0.0329184 0)
(0.0292139 0.0228566 0)
(0.0195933 0.0180137 0)
(0.0281197 -0.00418707 0)
(0.0107684 -7.63459e-05 0)
(-0.0117595 0.00237503 0)
(-0.00899245 -0.000219774 0)
(0.00125574 0.00635941 0)
(0.0124949 0.0208941 0)
(0.0140204 0.0273842 0)
(0.017508 0.0238082 0)
(0.0175024 0.0146481 0)
(0.0104479 0.0129781 0)
(-0.00272444 -0.00539267 0)
(0.0044257 -0.0189969 0)
(0.0280531 -0.0213133 0)
(0.041865 -0.015326 0)
(0.0526152 -0.00942215 0)
(0.0557395 0.00627986 0)
(0.0478331 0.0141607 0)
(0.0408768 0.0135847 0)
(0.0302558 0.0230996 0)
(0.0195116 0.0103933 0)
(0.0184852 -0.00365953 0)
(0.0425702 0.0141669 0)
(0.00592082 0.0287074 0)
(-0.0181415 0.00302896 0)
(0.0172292 -0.0205488 0)
(0.0240599 -0.0203838 0)
(0.0437706 0.0226681 0)
(0.0158901 0.0312407 0)
(0.0277838 0.0186466 0)
(0.0252012 0.0177537 0)
(0.0140896 0.00348656 0)
(-0.0223589 0.00866213 0)
(-0.0322604 0.00410856 0)
(-0.0246316 -0.00778399 0)
(-0.0194335 -0.00563337 0)
(-0.0044387 0.0119481 0)
(0.00451943 0.0206743 0)
(0.0105494 0.0191187 0)
(0.0148073 0.0195704 0)
(0.010882 0.0237433 0)
(-0.00309353 -0.00543873 0)
(0.00370548 -0.0201767 0)
(0.0280746 -0.0227541 0)
(0.0424067 -0.0165237 0)
(0.0536328 -0.0101993 0)
(0.0564991 0.00693404 0)
(0.0487573 0.0151616 0)
(0.0406122 0.0124945 0)
(0.0363645 0.0252781 0)
(-0.000717013 0.013793 0)
(0.0132371 -0.00979102 0)
(0.0498391 0.0155503 0)
(-0.0063979 0.0322885 0)
(-0.00145203 0.00311844 0)
(0.0120542 -0.0214687 0)
(0.0172216 -0.0235458 0)
(0.0405239 0.0305198 0)
(0.00930234 0.0341683 0)
(0.0238161 0.0193251 0)
(-0.000918452 0.024697 0)
(0.0253057 0.0207127 0)
(-0.0179891 0.0246207 0)
(-0.0385623 0.00377934 0)
(-0.0330113 -0.0128481 0)
(-0.036078 -0.0114835 0)
(-0.022976 0.0036167 0)
(-0.0129241 0.0134127 0)
(-0.00702782 0.0113631 0)
(0.00197756 0.0183842 0)
(0.00286892 0.0292809 0)
(-0.00349397 -0.00552596 0)
(0.00295427 -0.0213517 0)
(0.0278368 -0.0242451 0)
(0.0429295 -0.0177754 0)
(0.0540799 -0.0110276 0)
(0.0566263 0.00764067 0)
(0.0482456 0.0162265 0)
(0.0422509 0.015857 0)
(0.0212738 0.0303155 0)
(0.0267325 0.0134034 0)
(-0.000332621 -0.0130084 0)
(0.0614826 0.0238423 0)
(-0.00149402 0.0415308 0)
(0.00158424 -0.00224752 0)
(0.0225321 -0.0254067 0)
(0.00623 -0.033875 0)
(0.0457856 0.0279584 0)
(0.0323667 0.037992 0)
(0.0215985 0.0232764 0)
(-0.0180395 0.0193574 0)
(0.00780461 0.00978322 0)
(0.0122334 0.0397405 0)
(-0.0108773 0.0150348 0)
(-0.0105195 -0.00718314 0)
(-0.0232154 -0.0148274 0)
(-0.0240004 -0.00516087 0)
(-0.0185579 0.00512918 0)
(-0.0128835 0.002859 0)
(-0.0101472 0.0113044 0)
(-0.00300086 0.0242323 0)
(-0.00384107 -0.0053148 0)
(0.0022871 -0.0225382 0)
(0.0267362 -0.0257817 0)
(0.0431726 -0.0190602 0)
(0.0526333 -0.0118954 0)
(0.053985 0.00831499 0)
(0.0441308 0.0161548 0)
(0.0319267 0.0130323 0)
(0.0482196 0.0279352 0)
(0.0125498 0.0163424 0)
(0.0205573 -0.0216369 0)
(0.06734 0.0148204 0)
(0.0179255 0.0439866 0)
(-0.00944131 -0.00258565 0)
(0.0499894 -0.0234553 0)
(0.0165996 -0.0310824 0)
(0.0393627 0.0237839 0)
(0.0387879 0.0374145 0)
(0.014176 0.0373964 0)
(0.0183231 0.0293659 0)
(-0.0119584 0.00353304 0)
(0.0346122 0.0422217 0)
(0.0106177 0.0232458 0)
(0.00862962 -0.00362976 0)
(-0.00261395 -0.00616154 0)
(-0.00619759 -0.00129664 0)
(-0.00832639 0.00242128 0)
(-0.00522769 0.00259278 0)
(-0.00882326 0.00615036 0)
(-0.00465449 0.0125465 0)
(-0.00487021 -0.00566883 0)
(0.00199222 -0.0236646 0)
(0.0232439 -0.0273466 0)
(0.0421809 -0.0203077 0)
(0.0464643 -0.0124799 0)
(0.0442139 0.00974182 0)
(0.0262405 0.019912 0)
(0.0140217 0.015962 0)
(0.00368251 0.0356938 0)
(-0.0136187 0.0197459 0)
(-0.00910967 -0.0224529 0)
(-0.0416423 0.0302348 0)
(-0.00603627 0.052058 0)
(-0.0383562 -0.0127246 0)
(0.0571048 -0.0280684 0)
(0.0345436 -0.0271331 0)
(0.02426 0.0236907 0)
(0.0136024 0.0481479 0)
(0.0049968 0.0353438 0)
(0.0339918 0.0339608 0)
(-0.00629546 5.99169e-05 0)
(0.0281552 0.0307194 0)
(0.0229056 0.0294497 0)
(0.0185307 0.00256134 0)
(0.00216871 -0.00245341 0)
(0.00227009 -0.000294117 0)
(0.00233317 0.00364851 0)
(0.00239965 0.0046785 0)
(-0.00157483 0.00885206 0)
(-0.00397952 0.0122477 0)
(-0.002622 -0.0049429 0)
(0.00253308 -0.0243752 0)
(0.0145047 -0.0289051 0)
(0.0376047 -0.0213043 0)
(0.0331443 -0.0118481 0)
(0.0266503 0.0110118 0)
(0.0114177 0.0186413 0)
(0.00628189 0.0151523 0)
(0.0122002 0.0323985 0)
(0.00684856 0.0181665 0)
(-0.058907 -0.016522 0)
(-0.0371359 0.020083 0)
(-0.00104599 0.0517803 0)
(-0.0922887 -0.0195017 0)
(0.036855 -0.0439561 0)
(0.0261867 -0.0211923 0)
(-0.00979579 0.0327888 0)
(-0.0407938 0.047974 0)
(-0.0261134 0.0246431 0)
(0.0355967 0.0394054 0)
(0.00898397 0.00586297 0)
(0.013916 0.0180442 0)
(0.029964 0.0317882 0)
(0.0144433 0.0119569 0)
(-0.00299615 0.00486063 0)
(0.00303941 -0.00132665 0)
(0.000437137 0.00259483 0)
(0.000876102 0.00683604 0)
(-0.00178561 0.0134634 0)
(-0.00541247 0.0171451 0)
(-0.0126587 -0.0059225 0)
(0.00387369 -0.0256814 0)
(-0.00237609 -0.0302566 0)
(0.0267029 -0.0219243 0)
(0.0206037 -0.0108438 0)
(0.0177962 0.012891 0)
(-0.0400414 0.0238002 0)
(-0.096346 0.0132629 0)
(0.0450328 0.0347784 0)
(-0.0297591 0.0265234 0)
(-0.066926 -0.0197571 0)
(-0.0648799 0.0166273 0)
(-0.0316086 0.0570823 0)
(-0.11068 -0.0301566 0)
(-0.00719856 -0.064633 0)
(-0.0133661 -0.0127515 0)
(-0.0251083 0.046608 0)
(-0.0618429 0.0421116 0)
(-0.0139913 -0.00128729 0)
(0.0397949 0.0213084 0)
(0.0198653 0.0092736 0)
(-0.00388855 0.0205983 0)
(0.0150041 0.0309072 0)
(0.00148299 0.0203311 0)
(-0.0106803 0.00573722 0)
(-0.00232216 -0.00332513 0)
(-0.00970444 0.00535924 0)
(-0.00441082 0.00739057 0)
(-0.00482461 0.016111 0)
(-0.00422752 0.0214323 0)
(0.00831631 -0.00438588 0)
(0.00370474 -0.0236663 0)
(-0.0250317 -0.030696 0)
(0.0130204 -0.0238348 0)
(0.0338191 -0.0149341 0)
(0.00869894 0.0167667 0)
(-0.0962594 0.0309483 0)
(-0.175476 0.00144346 0)
(-0.0184769 0.0294251 0)
(-0.021379 0.0380363 0)
(-0.0654979 -0.0109551 0)
(-0.130068 0.0181088 0)
(-0.0577602 0.061255 0)
(-0.0696065 -0.0368253 0)
(-0.0456189 -0.067302 0)
(-0.0469678 -0.0164008 0)
(-0.0355061 0.0514649 0)
(-0.0139038 0.043088 0)
(-0.010515 -0.0128834 0)
(0.00653829 0.0237572 0)
(-0.0267023 0.0257267 0)
(-0.029417 0.0196465 0)
(0.0180944 0.0349123 0)
(-0.0041339 0.0315402 0)
(-0.0118604 0.007896 0)
(-0.00977435 -0.000418462 0)
(-0.0118628 0.00424402 0)
(-0.00607493 0.00375402 0)
(-0.0064256 0.0134377 0)
(-0.00179118 0.0191311 0)
(-0.0273474 -0.00663819 0)
(-0.00202664 -0.0249386 0)
(-0.0370165 -0.0304895 0)
(0.0149174 -0.0287814 0)
(-0.0433062 -0.00982984 0)
(-0.225899 0.0328849 0)
(-0.141986 0.0415915 0)
(-0.145303 -0.00142359 0)
(-0.132932 0.0155016 0)
(0.0110747 0.0360924 0)
(-0.076734 0.000838098 0)
(-0.168892 0.0162415 0)
(-0.0104354 0.0577929 0)
(-0.0324193 -0.0329207 0)
(-0.071305 -0.0609029 0)
(-0.106433 -0.0129415 0)
(-0.0636056 0.0415736 0)
(0.000504668 0.0311683 0)
(-0.0622279 -0.00545724 0)
(-0.0282461 0.0303198 0)
(-0.0406921 0.02127 0)
(-0.0185751 -0.00463953 0)
(0.00908328 0.0136536 0)
(0.0127609 0.0341076 0)
(-0.00201055 0.0105341 0)
(-0.00171099 -0.00628244 0)
(-0.00772145 -0.000402741 0)
(-0.0064218 0.00218705 0)
(-0.00690735 0.00853799 0)
(-0.00193988 0.012607 0)
(0.00814002 -0.00236028 0)
(-0.0221186 -0.0199368 0)
(0.00842373 -0.0331279 0)
(-0.0579318 -0.0220256 0)
(-0.655419 0.0187982 0)
(-0.282222 0.0223939 0)
(-0.192848 0.027425 0)
(-0.182144 -7.30967e-05 0)
(-0.196267 0.00545346 0)
(-0.0326684 0.0271177 0)
(-0.077941 0.0158855 0)
(-0.183795 0.00194346 0)
(0.0437763 0.0363232 0)
(-0.0203195 -0.0205525 0)
(-0.0824004 -0.0462468 0)
(-0.142455 -0.0176558 0)
(-0.0805173 0.0240857 0)
(-0.0116658 0.0300222 0)
(-0.0751829 -0.00156829 0)
(-0.0271456 0.0226431 0)
(-0.0283696 0.0156833 0)
(-0.000355345 -0.00456698 0)
(-0.0281267 0.0142515 0)
(0.0120834 0.0456709 0)
(0.0205738 0.0220152 0)
(0.0170954 0.00832827 0)
(0.00103821 0.00749284 0)
(-0.00489661 0.00621653 0)
(-0.00738788 0.00786082 0)
(-0.00390886 0.00951316 0)
(-0.0429127 -0.00668102 0)
(-0.036827 -0.0292611 0)
(0.234395 -0.0346525 0)
(0.424608 0.0276985 0)
(-0.361239 0.0245995 0)
(-0.208858 -0.0260936 0)
(-0.241838 0.0201163 0)
(-0.227979 6.70414e-05 0)
(-0.219645 -0.00380132 0)
(-0.111938 0.0167348 0)
(-0.0748253 0.0252161 0)
(-0.169555 -0.00632686 0)
(-0.00323114 0.0176567 0)
(-0.0192185 -0.0084687 0)
(-0.063916 -0.0318865 0)
(-0.141709 -0.01562 0)
(-0.106122 -0.00180847 0)
(-0.0176705 0.027881 0)
(-0.0521159 0.0019178 0)
(-0.0190951 0.00928102 0)
(0.00199522 0.00476059 0)
(0.0273727 0.00239958 0)
(-0.0119576 -0.000432213 0)
(0.00932375 0.0051255 0)
(0.0289339 0.00140248 0)
(0.0188827 0.00979581 0)
(0.0131063 0.0147582 0)
(0.00985569 0.00913467 0)
(0.000680162 0.00595383 0)
(-0.000983279 0.00456316 0)
(0.0324198 0.00352936 0)
(-0.018034 -0.034351 0)
(0.0247362 -0.0665606 0)
(0.538152 0.0408538 0)
(-0.0408043 0.0660476 0)
(-0.141303 0.00253717 0)
(-0.255583 0.0270259 0)
(-0.246546 -0.00253751 0)
(-0.226304 -0.0105489 0)
(-0.164245 0.00484692 0)
(-0.0988463 0.0241303 0)
(-0.15802 -0.00887263 0)
(-0.0922925 0.00139459 0)
(-0.0291561 -0.00837621 0)
(-0.0607436 -0.0126862 0)
(-0.142569 -0.00841675 0)
(-0.120924 -0.0122669 0)
(-0.0520938 0.0110547 0)
(-0.0195526 -0.000158282 0)
(0.0213941 -0.00144562 0)
(0.0390993 -0.0109494 0)
(0.0417677 0.00599853 0)
(0.0136782 0.0186912 0)
(0.0871571 0.0113228 0)
(0.0745056 0.0167861 0)
(0.0350729 0.0197588 0)
(0.0359418 0.0166939 0)
(0.0409377 0.0196762 0)
(0.0377316 0.018645 0)
(0.0284498 0.0140571 0)
(0.00226045 -0.00299256 0)
(0.010422 -0.00310714 0)
(0.0215815 -0.00546681 0)
(0.0331191 -0.00210243 0)
(0.0395005 -0.0017797 0)
(0.0460227 -0.00190856 0)
(0.0527729 -0.00466562 0)
(0.0686597 -0.0018801 0)
(0.0727057 0.00836016 0)
(0.0314403 0.00674371 0)
(0.00281618 0.00077933 0)
(-0.00193175 -0.000157462 0)
(-0.00409923 -0.000622479 0)
(0.00755794 -0.00231669 0)
(0.0140048 -0.00129248 0)
(0.0187529 -9.30981e-05 0)
(0.0128531 -0.000120427 0)
(0.00987239 7.64389e-05 0)
(0.00794923 0.000257036 0)
(0.000386044 0.000176044 0)
(9.88692e-05 0.000338904 0)
(-0.0102736 0.00030573 0)
(-0.0125121 0.000407264 0)
(-0.0209782 0.000392957 0)
(-0.0266657 0.000415684 0)
(-0.029779 0.000153024 0)
(-0.0283038 1.90921e-05 0)
(-0.0236963 -0.0001496 0)
(-0.0131227 -0.000272343 0)
(-0.00354857 -0.000291298 0)
(0.00390812 -0.0173323 0)
(0.0156722 -0.0165768 0)
(0.0253532 -0.0225687 0)
(0.0378721 -0.0131505 0)
(0.0530139 -0.00915374 0)
(0.0659871 -0.00846912 0)
(0.0822956 -0.0116611 0)
(0.0894273 -0.01142 0)
(0.10582 0.0141633 0)
(0.0790767 0.0285957 0)
(0.0361989 0.015129 0)
(0.0133896 0.00309101 0)
(0.0111101 -0.0027817 0)
(0.01898 -0.00476957 0)
(0.0115875 -0.00213523 0)
(0.0182934 0.000887862 0)
(0.00278808 0.00203659 0)
(-0.00442104 0.00112989 0)
(-0.00458906 0.00191233 0)
(-0.0214715 0.00121151 0)
(-0.0162368 0.00158822 0)
(-0.0333572 0.00136227 0)
(-0.0318948 0.00122766 0)
(-0.0410697 0.00109916 0)
(-0.0436291 0.000851536 0)
(-0.0432135 -6.4078e-05 0)
(-0.0377406 -0.000491997 0)
(-0.0284903 -0.00107056 0)
(-0.0122774 -0.00123925 0)
(-0.00195565 -0.00087969 0)
(0.00279477 -0.0310417 0)
(0.0115376 -0.0280007 0)
(0.0166071 -0.0282638 0)
(0.0256379 -0.0285348 0)
(0.0468763 -0.0268939 0)
(0.0601713 -0.0229876 0)
(0.0760617 -0.0223506 0)
(0.0773458 -0.019904 0)
(0.0979486 0.0140635 0)
(0.0935693 0.0388066 0)
(0.0621155 0.0299886 0)
(0.0337168 0.0106773 0)
(0.0221959 -0.00231914 0)
(0.0150374 -0.00276406 0)
(-0.000569477 -0.00104328 0)
(0.00769948 0.00248283 0)
(-0.011157 0.00513519 0)
(-0.0163403 0.00176583 0)
(-0.0117407 0.0037164 0)
(-0.032355 0.00190915 0)
(-0.0213816 0.00262068 0)
(-0.0404069 0.00219495 0)
(-0.0358801 0.00167711 0)
(-0.044319 0.00154163 0)
(-0.0453285 0.00101923 0)
(-0.0436639 -0.000505053 0)
(-0.0372948 -0.00116424 0)
(-0.0272398 -0.00212931 0)
(-0.0102235 -0.00221329 0)
(-0.000769905 -0.00128012 0)
(-0.000178639 -0.0401719 0)
(0.00475333 -0.0358172 0)
(0.0150338 -0.0367226 0)
(0.0266358 -0.0459692 0)
(0.0377797 -0.0429653 0)
(0.0509317 -0.0328443 0)
(0.0626828 -0.0273664 0)
(0.05821 -0.0246538 0)
(0.0733603 0.0115245 0)
(0.0853478 0.0439365 0)
(0.0678547 0.0419194 0)
(0.0473254 0.0208064 0)
(0.0300173 0.00381855 0)
(0.0103647 0.00287705 0)
(-0.0098853 0.000639643 0)
(-0.00159889 0.00392281 0)
(-0.0201804 0.00798641 0)
(-0.0246901 0.00135796 0)
(-0.0113091 0.00525745 0)
(-0.0365786 0.00257087 0)
(-0.0215917 0.00339213 0)
(-0.0418665 0.00304109 0)
(-0.0361369 0.00200953 0)
(-0.0444007 0.00195668 0)
(-0.0451801 0.00115607 0)
(-0.0433456 -0.00096234 0)
(-0.036821 -0.00185424 0)
(-0.0267158 -0.00320586 0)
(-0.00950891 -0.0031926 0)
(-0.000333292 -0.00164718 0)
(-0.00429058 -0.0446075 0)
(-0.00365672 -0.0440829 0)
(0.00238608 -0.0510496 0)
(0.00655055 -0.0539579 0)
(0.00689775 -0.048165 0)
(0.0155216 -0.0368897 0)
(0.0248845 -0.0309732 0)
(0.0292555 -0.0265441 0)
(0.0419977 0.00712899 0)
(0.0599084 0.0421119 0)
(0.058417 0.0448532 0)
(0.0502495 0.0273129 0)
(0.0298491 0.0118694 0)
(0.0029303 0.0110874 0)
(-0.0178496 0.00303168 0)
(-0.00993142 0.00538801 0)
(-0.0238608 0.0104982 0)
(-0.0325563 3.98158e-05 0)
(-0.00626318 0.00620607 0)
(-0.0385628 0.00356112 0)
(-0.0209209 0.00396074 0)
(-0.0422442 0.00393603 0)
(-0.0361164 0.00228851 0)
(-0.0443689 0.00236907 0)
(-0.0452418 0.00129418 0)
(-0.0434115 -0.00142421 0)
(-0.0368065 -0.0025487 0)
(-0.0266659 -0.00428797 0)
(-0.00929243 -0.00417349 0)
(-0.000172403 -0.00198543 0)
(-0.00656665 -0.0410539 0)
(-0.00784692 -0.0428708 0)
(-0.0112974 -0.0476799 0)
(-0.0217089 -0.0473503 0)
(-0.026594 -0.0460595 0)
(-0.0208035 -0.0422999 0)
(-0.00891059 -0.0398284 0)
(0.00364036 -0.0350983 0)
(0.0176871 -0.00119997 0)
(0.0377957 0.0356285 0)
(0.0407313 0.0433401 0)
(0.0380225 0.0321201 0)
(0.0182216 0.0201341 0)
(-0.00836853 0.0191636 0)
(-0.024508 0.00463786 0)
(-0.019113 0.00594373 0)
(-0.0206519 0.0128232 0)
(-0.0381192 -0.00224958 0)
(-0.000841796 0.00641318 0)
(-0.0393824 0.0050788 0)
(-0.0206391 0.00441253 0)
(-0.0424166 0.00487833 0)
(-0.0362261 0.00254653 0)
(-0.0444127 0.00278717 0)
(-0.0454466 0.00144622 0)
(-0.0436204 -0.00188961 0)
(-0.03693 -0.00325033 0)
(-0.026719 -0.0053784 0)
(-0.0091645 -0.00516049 0)
(-7.67679e-05 -0.00232026 0)
(-0.00775797 -0.036111 0)
(-0.0141487 -0.0353589 0)
(-0.026215 -0.0356419 0)
(-0.0374534 -0.0394878 0)
(-0.0407163 -0.0450485 0)
(-0.040389 -0.0482455 0)
(-0.0316444 -0.0510958 0)
(-0.0237748 -0.043033 0)
(-0.0136505 -0.00948903 0)
(0.0118665 0.0290345 0)
(0.0211981 0.0397199 0)
(0.0247824 0.035484 0)
(0.00236099 0.0286693 0)
(-0.0174156 0.0254591 0)
(-0.026215 0.00574232 0)
(-0.0292018 0.00500563 0)
(-0.00626302 0.0144233 0)
(-0.0393184 -0.00365006 0)
(0.00169596 0.00613377 0)
(-0.0394659 0.00696531 0)
(-0.0210421 0.00484228 0)
(-0.0424478 0.00582582 0)
(-0.0364519 0.00279564 0)
(-0.044474 0.00320742 0)
(-0.0457156 0.00161589 0)
(-0.0438874 -0.00235974 0)
(-0.0370965 -0.00396153 0)
(-0.0267928 -0.00647901 0)
(-0.0090263 -0.00615374 0)
(1.64566e-05 -0.00264713 0)
(-0.00545077 -0.0253815 0)
(-0.0153395 -0.0232139 0)
(-0.0275605 -0.0262495 0)
(-0.0367474 -0.0340213 0)
(-0.0416967 -0.0407772 0)
(-0.0465768 -0.0487802 0)
(-0.0464055 -0.0554946 0)
(-0.0477813 -0.0449514 0)
(-0.0445622 -0.0179417 0)
(-0.0165889 0.0186774 0)
(-0.00610769 0.035657 0)
(0.000319625 0.0406184 0)
(-0.00727946 0.0350347 0)
(-0.0173345 0.0294516 0)
(-0.0187671 0.00764679 0)
(-0.0329528 0.000870615 0)
(0.0129673 0.0148918 0)
(-0.0372065 -0.00262779 0)
(0.000453361 0.00585823 0)
(-0.0390909 0.00899294 0)
(-0.0222139 0.0052769 0)
(-0.0423119 0.00673879 0)
(-0.0367682 0.0030475 0)
(-0.044537 0.00362719 0)
(-0.0460334 0.00180707 0)
(-0.0442026 -0.00283584 0)
(-0.0372925 -0.00468455 0)
(-0.0268771 -0.00759193 0)
(-0.0088598 -0.00715398 0)
(0.000123424 -0.00296655 0)
(-0.00283528 -0.0155006 0)
(-0.0118075 -0.011531 0)
(-0.0231724 -0.0156035 0)
(-0.0317129 -0.0265994 0)
(-0.0375508 -0.0364434 0)
(-0.0444109 -0.0454308 0)