/*--------------------------------*- C++ -*----------------------------------*\
| =========                 |                                                 |
| \\      /  F ield         | OpenFOAM: The Open Source CFD Toolbox           |
|  \\    /   O peration     | Version:  2.4.0                                 |
|   \\  /    A nd           | Web:      www.OpenFOAM.org                      |
|    \\/     M anipulation  |                                                 |
\*---------------------------------------------------------------------------*/
FoamFile
{
    version     2.0;
    format      ascii;
    class       volScalarField;
    location    "0.334";
    object      p;
}
// * * * * * * * * * * * * * * * * * * * * * * * * * * * * * * * * * * * * * //

dimensions      [1 -1 -2 0 0 0 0];

internalField   nonuniform List<scalar> 
60000
(
131.585
131.555
131.453
131.287
131.062
130.777
130.432
130.029
129.568
129.049
128.472
127.84
127.153
126.412
125.619
124.777
123.888
122.955
121.981
120.969
119.924
118.848
117.746
116.622
115.478
114.32
113.149
111.97
110.783
109.593
108.401
107.208
106.017
104.829
103.643
102.463
101.287
100.118
98.9552
97.7993
96.6511
95.511
94.3795
93.2571
92.1443
91.0414
89.9486
88.8665
87.7956
86.7363
85.689
84.6542
83.6325
82.6246
81.6311
80.6531
79.6915
78.7475
77.822
76.9164
76.0316
75.169
74.3297
73.5152
72.7267
71.9663
71.2358
70.5378
69.8752
69.2512
68.6693
68.1334
67.6472
67.2146
66.8391
66.5242
66.2731
66.0885
65.9734
65.9305
65.9624
66.0715
66.2602
66.5302
66.8826
67.3174
67.8339
68.43
69.103
69.8489
70.663
71.5409
72.4774
73.4671
74.5047
75.5848
76.7021
77.8513
79.0265
80.2227
129.621
129.593
129.491
129.325
129.1
128.815
128.47
128.067
127.606
127.086
126.51
125.877
125.19
124.449
123.656
122.814
121.925
120.991
120.016
119.004
117.958
116.881
115.779
114.654
113.51
112.351
111.181
110.001
108.814
107.624
106.431
105.239
104.048
102.859
101.674
100.494
99.3183
98.1491
96.9864
95.8308
94.6828
93.543
92.4118
91.2897
90.1771
89.0745
87.9821
86.9003
85.8298
84.7709
83.724
82.6895
81.668
80.6602
79.6668
78.6888
77.7272
76.7831
75.8576
74.9519
74.0672
73.2046
72.3653
71.5506
70.7621
70.0014
69.2707
68.5723
67.9092
67.2845
66.702
66.1654
65.6785
65.2453
64.8693
64.5539
64.3024
64.1175
64.0022
63.959
63.9907
64.0997
64.2884
64.5586
64.9112
65.3466
65.8637
66.4607
67.1348
67.8817
68.6971
69.5763
70.514
71.5049
72.5436
73.6247
74.743
75.893
77.0698
78.2668
127.667
127.639
127.537
127.371
127.145
126.86
126.516
126.113
125.651
125.131
124.555
123.922
123.234
122.492
121.699
120.856
119.966
119.031
118.055
117.042
115.994
114.917
113.813
112.687
111.542
110.383
109.211
108.03
106.843
105.652
104.46
103.267
102.075
100.887
99.7017
98.5212
97.3461
96.177
95.0144
93.859
92.7112
91.5716
90.4407
89.3188
88.2065
87.1042
86.0122
84.9307
83.8603
82.8015
81.7548
80.7203
79.6988
78.6908
77.6972
76.7188
75.7568
74.8122
73.8862
72.9799
72.0946
71.2315
70.3916
69.5763
68.7871
68.0255
67.2937
66.594
65.9294
65.3031
64.7188
64.1802
63.6915
63.2563
62.8786
62.5615
62.3084
62.1222
62.0055
61.9611
61.9917
62.0999
62.2879
62.5578
62.9107
63.3467
63.865
64.4635
65.1394
65.8886
66.7064
67.588
68.5283
69.5217
70.5629
71.6465
72.7673
73.9199
75.0991
76.2988
125.722
125.693
125.59
125.424
125.199
124.914
124.569
124.166
123.704
123.184
122.607
121.973
121.285
120.542
119.748
118.904
118.012
117.076
116.098
115.083
114.033
112.954
111.848
110.721
109.574
108.413
107.24
106.058
104.87
103.678
102.485
101.291
100.1
98.9108
97.7257
96.5452
95.3702
94.2012
93.0388
91.8835
90.736
89.5966
88.4659
87.3443
86.2323
85.1302
84.0385
82.9574
81.8873
80.8287
79.7819
78.7473
77.7255
76.7172
75.723
74.7439
73.7811
72.8356
71.9086
71.0014
70.1151
69.2509
68.4099
67.5934
66.8028
66.0396
65.3059
64.604
63.9369
63.3078
62.7204
62.1787
61.6868
61.2485
60.8677
60.5479
60.2921
60.1033
59.9843
59.9377
59.9663
60.0728
60.2596
60.5288
60.8817
61.3185
61.8383
62.4391
63.1177
63.8701
64.6915
65.5768
66.5207
67.5179
68.5629
69.6503
70.7749
71.9314
73.1146
74.3185
123.785
123.755
123.652
123.486
123.26
122.975
122.63
122.226
121.764
121.244
120.666
120.032
119.342
118.599
117.803
116.957
116.063
115.125
114.145
113.127
112.075
110.993
109.885
108.754
107.605
106.442
105.267
104.083
102.894
101.701
100.507
99.3129
98.1207
96.9315
95.7462
94.5658
93.3908
92.2219
91.0598
89.9048
88.7575
87.6184
86.488
85.3668
84.2551
83.1534
82.062
80.9812
79.9114
78.8529
77.8061
76.7714
75.7492
74.7402
73.7452
72.7652
71.8012
70.8545
69.9262
69.0176
68.13
67.2643
66.4219
65.6037
64.8112
64.0458
63.3094
62.6044
61.9337
61.3007
60.7092
60.1632
59.6669
59.2244
58.8396
58.5159
58.2566
58.0644
57.9421
57.8925
57.9182
58.0222
58.2072
58.4753
58.8281
59.2658
59.7875
60.3911
61.0733
61.8298
62.6557
63.5458
64.4945
65.4964
66.5462
67.6383
68.7677
69.9291
71.1174
72.3269
121.856
121.826
121.723
121.556
121.33
121.044
120.699
120.295
119.832
119.311
118.733
118.098
117.407
116.662
115.864
115.016
114.12
113.179
112.196
111.174
110.119
109.034
107.922
106.788
105.636
104.47
103.293
102.107
100.916
99.7213
98.5258
97.331
96.1382
94.9486
93.7631
92.5826
91.4078
90.2391
89.0772
87.9226
86.7756
85.6369
84.5069
83.3861
82.2748
81.1735
80.0824
79.002
77.9325
76.8741
75.8273
74.7923
73.7696
72.7598
71.7638
70.7825
69.8171
68.8689
67.939
67.0287
66.1394
65.272
64.4277
63.6075
62.8125
62.0443
61.3045
60.5956
59.9205
59.2825
58.6857
58.1342
57.6324
57.1846
56.7947
56.4663
56.2025
56.0061
55.8798
55.8263
55.8484
55.9493
56.1317
56.3984
56.7509
57.1897
57.7138
58.3211
59.0078
59.7696
60.6012
61.4972
62.4519
63.4597
64.5152
65.6131
66.7482
67.9155
69.11
70.3262
119.936
119.906
119.802
119.635
119.408
119.123
118.777
118.372
117.909
117.387
116.808
116.171
115.479
114.732
113.932
113.081
112.182
111.237
110.251
109.225
108.166
107.076
105.96
104.823
103.667
102.497
101.316
100.128
98.9346
97.7384
96.5415
95.3456
94.152
92.9619
91.7762
90.5957
89.421
88.2526
87.091
85.9367
84.7902
83.6519
82.5224
81.402
80.2911
79.1903
78.0997
77.0197
75.9504
74.8922
73.8453
72.81
71.7867
70.776
69.7787
68.796
67.8289
66.8787
65.9469
65.0347
64.1433
63.2739
62.4274
61.6048
60.807
60.0354
59.2916
58.5779
57.8973
57.2533
56.65
56.0918
55.5834
55.1291
54.7332
54.3991
54.13
53.9286
53.7975
53.7393
53.757
53.8538
54.0331
54.2979
54.65
55.0901
55.6172
56.229
56.9215
57.6898
58.5285
59.4318
60.3938
61.4088
62.4713
63.576
64.7179
65.8921
67.0939
68.3179
118.025
117.994
117.889
117.722
117.496
117.209
116.863
116.458
115.994
115.471
114.89
114.252
113.558
112.809
112.007
111.153
110.25
109.301
108.31
107.279
106.215
105.12
103.999
102.857
101.697
100.523
99.3387
98.1471
96.9509
95.7525
94.5539
93.3566
92.1621
90.9714
89.7854
88.6049
87.4302
86.2621
85.1009
83.9471
82.8011
81.6633
80.5342
79.4144
78.3041
77.2037
76.1137
75.0341
73.9652
72.9072
71.8602
70.8245
69.8004
68.7887
67.79
66.8054
65.8363
64.884
63.9499
63.0354
62.1418
61.27
60.4211
59.5957
58.7946
58.0191
57.2706
56.5513
55.8643
55.2131
54.602
54.0359
53.5196
53.0578
52.6548
52.3142
52.039
51.8319
51.6951
51.6314
51.6437
51.7356
51.9111
52.1733
52.5249
52.9666
53.4974
54.1146
54.814
55.5903
56.4376
57.3496
58.3203
59.3439
60.4146
61.5274
62.6772
63.8595
65.0695
66.3025
116.122
116.091
115.986
115.818
115.591
115.304
114.958
114.552
114.086
113.563
112.981
112.341
111.645
110.893
110.088
109.23
108.323
107.369
106.373
105.337
104.267
103.166
102.039
100.891
99.7261
98.5474
97.3588
96.1636
94.9643
93.7633
92.5627
91.3639
90.1683
88.977
87.7906
86.61
85.4355
84.2677
83.1069
81.9536
80.8081
79.6709
78.5424
77.4232
76.3135
75.2138
74.1243
73.0453
71.9768
70.919
69.8719
68.8358
67.8109
66.7979
65.7975
64.8109
63.8394
62.8846
61.9479
61.0308
60.1346
59.2603
58.4087
57.5802
56.7756
55.9956
55.2418
54.5161
53.8215
53.1619
52.5419
51.9666
51.4411
50.9706
50.5594
50.2114
49.9294
49.7157
49.5726
49.5024
49.5084
49.5945
49.7651
50.0243
50.3751
50.8186
51.3537
51.9775
52.6852
53.4709
54.3283
55.2506
56.2315
57.2649
58.3451
59.4671
60.626
61.8173
63.0368
64.2797
114.228
114.197
114.091
113.923
113.696
113.408
113.061
112.654
112.188
111.662
111.079
110.438
109.739
108.985
108.176
107.314
106.402
105.443
104.44
103.398
102.321
101.213
100.08
98.9257
97.7545
96.5703
95.3769
94.1774
92.9746
91.7707
90.5678
89.3673
88.1705
86.9784
85.7917
84.611
83.4367
82.2693
81.109
79.9562
78.8114
77.6748
76.547
75.4283
74.3194
73.2204
72.1316
71.0532
69.9852
68.9277
67.8806
66.844
65.8183
64.8038
63.8015
62.8125
61.8383
60.8805
59.9409
59.0209
58.1219
57.2448
56.3902
55.5585
54.75
53.9652
53.2053
52.4723
51.7692
51.1001
50.4697
49.8837
49.3477
48.8672
48.4468
48.0905
47.8009
47.5802
47.4299
47.3524
47.351
47.43
47.5948
47.8502
48.1999
48.6455
49.1858
49.8173
50.5347
51.3315
52.2006
53.1348
54.1274
55.172
56.263
57.3952
58.5642
59.7656
60.9954
62.2493
112.343
112.311
112.205
112.037
111.809
111.52
111.172
110.764
110.297
109.77
109.185
108.542
107.841
107.083
106.27
105.404
104.486
103.521
102.511
101.462
100.377
99.2621
98.1214
96.9599
95.7819
94.5916
93.3928
92.1885
90.9817
89.7746
88.5691
87.3667
86.1686
84.9756
83.7886
82.6078
81.4338
80.2667
79.107
77.9549
76.8107
75.6748
74.5477
73.4299
72.3217
71.2235
70.1355
69.0579
67.9905
66.9334
65.8863
64.8493
63.8225
62.8065
61.802
60.8103
59.833
58.8718
57.9288
57.0056
56.1035
55.2234
54.3658
53.5307
52.718
51.928
51.1615
50.4204
49.7076
49.0276
48.3854
47.7873
47.2393
46.7475
46.3169
45.9514
45.6537
45.4251
45.267
45.1813
45.1713
45.242
45.3996
45.6503
45.9986
46.4465
46.9928
47.6334
48.3622
49.1719
50.0545
51.0023
52.0081
53.0653
54.1682
55.3117
56.4917
57.704
58.9451
60.2108
110.466
110.435
110.328
110.159
109.93
109.641
109.292
108.883
108.415
107.887
107.3
106.654
105.95
105.189
104.372
103.5
102.577
101.604
100.587
99.5296
98.4363
97.3126
96.1634
94.9938
93.8083
92.6111
91.4062
90.1967
88.9854
87.7747
86.5663
85.3619
84.1623
82.9685
81.781
80.6003
79.4265
78.26
77.1009
75.9495
74.806
73.671
72.5447
71.4276
70.3203
69.223
68.136
67.0593
65.9927
64.9361
63.8891
62.8517
61.8238
60.806
59.799
58.8042
57.8234
56.8585
55.9117
54.9849
54.0794
53.1963
52.3355
51.4969
50.6799
49.8843
49.1107
48.3605
47.637
46.9446
46.2891
45.6771
45.1156
44.6112
44.1693
43.7939
43.4873
43.2506
43.084
42.9891
42.9691
43.0299
43.1788
43.4236
43.7701
44.2207
44.774
45.4252
46.1673
46.9918
47.8899
48.8532
49.8737
50.9449
52.0609
53.2168
54.4086
55.6326
56.8856
58.164
108.599
108.567
108.46
108.291
108.061
107.771
107.421
107.011
106.541
106.011
105.422
104.774
104.067
103.303
102.481
101.603
100.673
99.6931
98.6674
97.6005
96.4978
95.3644
94.2059
93.0272
91.8334
90.6286
89.417
88.2016
86.9855
85.7708
84.5595
83.3527
82.1516
80.9569
79.7691
78.5883
77.4149
76.249
75.0906
73.94
72.7974
71.6631
70.5377
69.4216
68.3153
67.219
66.1331
65.0574
63.9918
62.9359
61.8891
60.8513
59.8224
58.8026
57.7928
56.7945
55.8096
54.8405
53.8894
52.9586
52.0496
51.1633
50.2994
49.4573
48.636
47.8346
47.0532
46.2932
45.5577
44.8515
44.1809
43.5533
42.9765
42.458
42.0036
41.6176
41.3018
41.0565
40.881
40.7759
40.7445
40.7934
40.9318
41.1693
41.5133
41.9669
42.5285
43.1922
43.9497
44.7913
45.707
46.6876
47.7246
48.8111
49.9413
51.1105
52.3149
53.5512
54.8168
56.1086
106.741
106.708
106.601
106.431
106.2
105.909
105.558
105.146
104.675
104.144
103.553
102.902
102.192
101.424
100.597
99.7133
98.7756
97.7871
96.7519
95.675
94.5616
93.4177
92.2487
91.0601
89.857
88.644
87.4249
86.2032
84.9818
83.7629
82.5482
81.339
80.1363
78.9407
77.7524
76.5718
75.3988
74.2335
73.076
71.9263
70.7846
69.6513
68.5268
67.4117
66.3065
65.2114
64.1268
63.0524
61.9879
60.9329
59.8865
58.8485
57.8183
56.7964
55.7835
54.7812
53.7918
52.8177
51.8619
50.9267
50.014
49.1244
48.2575
47.4121
46.5865
45.7791
44.9896
44.2189
43.4701
42.7484
42.0608
41.4156
40.8217
40.2874
39.8194
39.4221
39.097
38.843
38.6582
38.542
38.4974
38.5321
38.6575
38.886
39.2268
39.6839
40.2552
40.9335
41.709
42.5701
43.5058
44.5057
45.561
46.6643
47.8098
48.9931
50.2106
51.4598
52.7385
54.0442
104.891
104.858
104.751
104.58
104.349
104.057
103.704
103.291
102.818
102.285
101.692
101.039
100.325
99.5523
98.7201
97.83
96.8844
95.8866
94.841
93.7529
92.6279
91.4722
90.2917
89.0923
87.8791
86.6569
85.4297
84.2012
82.974
81.7505
80.5323
79.3206
78.1162
76.9196
75.731
74.5506
73.3781
72.2136
71.057
69.9083
68.7676
67.6353
66.5119
65.3979
64.2938
63.2002
62.117
61.0441
59.9811
58.9272
57.8815
56.8432
55.8119
54.7877
53.7713
52.7644
51.7697
50.7902
49.829
48.8891
47.9723
47.0795
46.2098
45.3614
44.5318
43.7185
42.9204
42.1381
41.3746
40.6356
39.9289
39.2639
38.6508
38.099
37.6162
37.2071
36.8725
36.6101
36.4159
36.2877
36.228
36.2456
36.3551
36.5723
36.909
37.3701
37.9529
38.6484
39.4446
40.3282
41.2865
42.308
43.3833
44.5048
45.6666
46.8647
48.096
49.3584
50.6505
51.9704
103.051
103.018
102.909
102.738
102.506
102.212
101.858
101.444
100.969
100.434
99.8388
99.1829
98.4663
97.6889
96.851
95.9538
94.9996
93.9917
92.9347
91.8343
90.6965
89.5279
88.3349
87.1235
85.8993
84.6671
83.4313
82.1952
80.9619
79.7335
78.5115
77.2971
76.091
74.8935
73.7047
72.5244
71.3526
70.189
69.0335
67.8859
66.7463
65.6152
64.4928
63.38
62.2773
61.1851
60.1036
59.0326
57.9713
56.9189
55.8741
54.8359
53.8034
52.7766
51.7563
50.7444
49.7437
48.7578
47.7906
46.8454
45.9245
45.0285
44.1564
43.3055
42.4722
41.6532
40.8462
40.0514
39.2719
38.5136
37.7854
37.0981
36.4633
35.892
35.3932
34.9718
34.6282
34.358
34.1548
34.0138
33.9365
33.9336
34.0233
34.2262
34.5576
35.0236
35.6201
36.3359
37.1563
38.0656
39.0493
40.0949
41.1921
42.3331
43.5123
44.7257
45.9711
47.2468
48.5524
49.8867
101.22
101.186
101.077
100.905
100.672
100.377
100.022
99.6055
99.1289
98.5919
97.9942
97.3356
96.6155
95.8335
94.9897
94.085
93.1215
92.1026
91.0332
89.9192
88.7674
87.5847
86.378
85.1536
83.9174
82.6744
81.4291
80.1851
78.9452
77.7115
76.4856
75.2685
74.0606
72.8622
71.6732
70.4933
69.3223
68.1597
67.0054
65.859
64.7207
63.5907
62.4695
61.3579
60.2567
59.1662
58.0867
57.0178
55.9587
54.9081
53.8646
52.8267
51.7932
50.7637
49.739
48.7212
47.7136
46.7205
45.7464
44.7953
43.87
42.9712
42.0972
41.2446
40.4083
39.5838
38.7678
37.9598
37.1626
36.3829
35.6305
34.918
34.2588
33.6658
33.1495
32.7155
32.3636
32.0869
31.8755
31.7211
31.6236
31.5956
31.6607
31.8456
32.1703
32.6421
33.2552
33.9951
34.8437
35.7824
36.7947
37.8668
38.9879
40.1498
41.3472
42.5765
43.8361
45.1252
46.4441
47.7926
99.3982
99.3643
99.2544
99.0813
98.8469
98.5509
98.1937
97.7757
97.2972
96.758
96.1581
95.4967
94.7731
93.9864
93.1365
92.2238
91.2503
90.2195
89.1365
88.0078
86.8407
85.6426
84.4208
83.1823
81.9331
80.6785
79.4231
78.1704
76.9235
75.6843
74.4543
73.2343
72.0247
70.8255
69.6363
68.457
67.2869
66.1255
64.9725
63.8275
62.6905
61.5617
60.4418
59.3316
58.2318
57.1433
56.066
54.9997
53.9432
52.8951
51.8533
50.816
49.7815
48.7492
47.7197
46.6952
45.6796
44.6781
43.6961
42.7385
41.8087
40.9073
40.0322
39.1788
38.3406
37.5113
36.6862
35.8641
35.0476
34.2439
33.4644
32.7233
32.0365
31.4192
30.8838
30.4373
30.0783
29.7973
29.5792
29.4111
29.2902
29.2314
29.2654
29.4275
29.7438
30.2229
30.8562
31.6249
32.5064
33.4787
34.5231
35.6246
36.7715
37.9557
39.1721
40.4176
41.6914
42.9935
44.3253
45.6876
97.5859
97.5516
97.4409
97.2668
97.0311
96.7335
96.3745
95.9546
95.474
94.9327
94.3304
93.6662
92.9391
92.1478
91.2915
90.3704
89.3863
88.3425
87.2448
86.1
84.9161
83.7012
82.4632
81.2094
79.9461
78.679
77.4127
76.1509
74.8965
73.6516
72.4173
71.1944
69.983
68.783
67.594
66.4153
65.2462
64.0863
62.9348
61.7913
60.6557
59.5282
58.4095
57.3007
56.2026
55.1162
54.0416
52.9782
51.925
50.8798
49.8404
48.8042
47.7689
46.7336
45.6987
44.6665
43.6417
42.6305
41.6394
40.6745
39.7399
38.8364
37.9612
37.1084
36.2696
35.4364
34.6025
33.7654
32.9278
32.0975
31.2874
30.5139
29.7958
29.151
28.5948
28.1357
27.7716
27.4893
27.2675
27.0859
26.9379
26.8409
26.8353
26.9683
27.2742
27.7627
28.421
29.2243
30.1444
31.155
32.2355
33.3692
34.5439
35.7517
36.9876
38.2494
39.5372
40.8518
42.1957
43.5709
95.7832
95.7483
95.6368
95.4616
95.2245
94.9252
94.5642
94.1421
93.6593
93.1158
92.5112
91.8443
91.1138
90.3178
89.4551
88.5252
87.5297
86.4721
85.3583
84.1959
82.9938
81.7606
80.505
79.2345
77.9561
76.6755
75.3976
74.1261
72.8639
71.6129
70.3742
69.1484
67.9353
66.7347
65.5459
64.368
63.2003
62.0419
60.892
59.7502
58.6161
57.49
56.3726
55.2651
54.1688
53.0847
52.0131
50.9533
49.9039
48.8625
47.8262
46.7917
45.756
44.7176
43.6765
42.6356
41.6001
40.5774
39.5758
38.6027
37.663
36.7579
35.884
35.0335
34.1959
33.3602
32.5178
31.6652
30.8045
29.9445
29.0997
28.2895
27.5356
26.8596
26.2804
25.8089
25.4427
25.1637
24.9424
24.7485
24.569
24.424
24.3676
24.4634
24.7565
25.2575
25.947
26.7923
27.7575
28.812
29.9327
31.1017
32.3063
33.5387
34.7947
36.0727
37.3739
38.7003
40.0552
41.442
93.9901
93.9546
93.8422
93.6659
93.4272
93.126
92.7628
92.3384
91.8533
91.3074
90.7004
90.031
89.2972
88.4967
87.6275
86.6886
85.681
84.6084
83.4771
82.2956
81.0735
79.8205
78.5457
77.2574
75.9628
74.6678
73.3775
72.0956
70.8252
69.5678
68.3247
67.0959
65.8813
64.6802
63.4918
62.3149
61.1487
59.9921
58.8442
57.7041
56.5716
55.4468
54.3306
53.2246
52.1302
51.0486
49.9804
48.9248
47.8801
46.8434
45.8111
44.779
43.7434
42.7018
41.654
40.6029
39.5548
38.5186
37.5047
36.5221
35.5771
34.6712
33.8002
32.9544
32.1204
31.2839
30.4339
29.565
28.6791
27.7859
26.902
26.0498
25.2549
24.5432
23.9383
23.4547
23.0901
22.8208
22.6066
22.4031
22.1869
21.9812
21.8588
21.9067
22.1844
22.7024
23.4316
24.328
25.3462
26.4504
27.6161
28.8236
30.06
31.3182
32.5944
33.8883
35.2021
36.5391
37.9035
39.3
92.2067
92.1706
92.0574
91.8797
91.6393
91.3359
90.9704
90.5435
90.0558
89.5075
88.8982
88.2263
87.4895
86.6847
85.809
84.8608
83.8405
82.7517
81.6015
80.3991
79.1553
77.8808
76.5853
75.2777
73.9656
72.6553
71.3518
70.0591
68.7799
67.5161
66.2683
65.0367
63.8207
62.6193
61.4314
60.2559
59.0914
57.9368
56.7909
55.6529
54.522
53.3986
52.2835
51.1788
50.0863
49.0076
47.9432
46.8925
45.8534
44.8225
43.7954
42.7668
41.7319
40.6871
39.6317
38.5689
37.506
36.4539
35.4253
34.4317
33.4811
32.5752
31.7093
30.8712
30.0438
29.2091
28.3526
27.4668
26.5534
25.6231
24.6948
23.7947
22.9525
22.1992
21.565
21.0698
20.7117
20.4612
20.2638
20.0555
19.7967
19.5131
19.3041
19.2901
19.5498
20.0916
20.8717
21.8308
22.9112
24.0718
25.2874
26.5366
27.8066
29.0914
30.3878
31.6968
33.0225
34.3686
35.7405
37.1441
90.4332
90.3965
90.2823
90.1032
89.8609
89.5552
89.187
88.7573
88.2668
87.716
87.1044
86.4303
85.6908
84.8821
84.0001
83.0423
82.0086
80.9025
79.7315
78.5064
77.239
75.9411
74.6233
73.2951
71.9643
70.6375
69.32
68.0159
66.7277
65.4572
64.2048
62.9704
61.7531
60.5517
59.3647
58.1906
57.0281
55.8758
54.7323
53.5963
52.4672
51.345
50.231
49.1274
48.0369
46.9612
45.9012
44.8561
43.8237
42.8
41.7796
40.7558
39.7225
38.6746
37.6108
36.5343
35.4538
34.3827
33.3366
32.3302
31.3734
30.4688
29.6106
28.784
27.9672
27.1374
26.2759
25.373
24.4294
23.4575
22.4789
21.5239
20.627
19.8249
19.1567
18.6499
18.3047
18.085
17.9186
17.7139
17.4059
17.0212
16.6973
16.6029
16.8423
17.4179
18.2643
19.301
20.4538
21.6779
22.9487
24.2427
25.548
26.8601
28.1762
29.4994
30.8356
32.1894
33.5663
34.9735
88.6698
88.6325
88.5172
88.3366
88.0922
87.7839
87.4128
86.9799
86.4865
85.933
85.3191
84.643
83.9013
83.089
82.201
81.2337
80.1859
79.061
77.8676
76.6176
75.3245
74.0013
72.6595
71.309
69.9583
68.614
67.2818
65.9655
64.668
63.3906
62.1337
60.8966
59.6783
58.4771
57.2912
56.119
54.9587
53.8089
52.6679
51.5343
50.4069
49.2858
48.1726
47.07
45.9814
44.909
43.8539
42.8154
41.791
40.7761
39.7641
38.7469
37.7163
36.6657
35.5926
34.5001
33.3987
32.3047
31.2378
30.216
29.2523
28.3502
27.5031
26.6926
25.8915
25.0708
24.2067
23.2862
22.3097
21.2912
20.2554
19.2374
18.2769
17.4168
16.7081
16.1893
15.8648
15.6919
15.577
15.3899
15.0257
14.5077
14.0296
13.8302
14.048
14.6722
15.6061
16.7395
17.9759
19.271
20.6028
21.9442
23.2865
24.6263
25.9611
27.2969
28.6423
30.0021
31.3813
32.7875
86.9166
86.8786
86.7622
86.58
86.3333
86.0222
85.6478
85.2114
84.7146
84.1582
83.542
82.8642
82.1208
81.3057
80.4122
79.4353
78.3728
77.2278
76.0098
74.7326
73.4116
72.061
70.6933
69.3191
67.9471
66.5843
65.2364
63.9075
62.6002
61.3158
60.0544
58.815
57.5959
56.3952
55.2108
54.0406
52.8829
51.7359
50.5977
49.4665
48.3409
47.2208
46.108
45.0062
43.9193
42.8504
41.8008
40.7699
39.7549
38.7507
37.7494
36.7409
35.7148
34.662
33.5785
32.4674
31.3409
30.2193
29.1269
28.0868
27.1153
26.2174
25.3855
24.5971
23.818
23.0117
22.1479
21.2098
20.1971
19.1264
18.0254
16.9355
15.901
14.9707
14.2126
13.6804
13.3857
13.2811
13.2476
13.1013
12.674
11.9773
11.2885
10.9512
11.1485
11.8436
12.895
14.1493
15.4804
16.8543
18.2528
19.6437
21.0246
22.3922
23.7438
25.0904
26.4436
27.8079
29.1861
30.5853
85.1738
85.1351
85.0175
84.8335
84.5844
84.2702
83.8921
83.4519
82.9513
82.3916
81.7732
81.094
80.3496
79.5324
78.634
77.6478
76.5701
75.4034
74.1584
72.8515
71.5
70.1199
68.7245
67.3248
65.9301
64.5477
63.1833
61.8411
60.5238
59.2324
57.9666
56.7251
55.5056
54.3058
53.1232
51.9555
50.8006
49.6566
48.5214
47.3929
46.2691
45.1495
44.0367
42.9351
41.8499
40.7847
39.7412
38.7189
37.7152
36.724
35.736
34.7391
33.7196
32.6656
31.5706
30.4376
29.281
28.1258
27.0025
25.9401
24.9594
24.0676
23.2559
22.4969
21.7481
20.9631
20.1034
19.1477
18.095
16.9657
15.7907
14.6187
13.498
12.4815
11.6617
11.1133
10.859
10.8502
10.9408
10.8723
10.3769
9.43658
8.45473
7.93415
8.11561
8.91504
10.1282
11.5353
12.9713
14.4325
15.9029
17.3441
18.7656
20.1604
21.526
22.8809
24.2406
25.6084
26.9823
28.3666
83.4415
83.4021
83.2833
83.0975
82.8458
82.5281
82.146
81.7013
81.1964
80.6331
80.0123
79.332
78.5874
77.7692
76.8668
75.8718
74.7782
73.5881
72.3137
70.9741
69.5895
68.1775
66.7523
65.3256
63.9068
62.5035
61.1217
59.7657
58.4381
57.1396
55.8697
54.6264
53.407
52.2086
51.0282
49.8632
48.7115
47.5708
46.4389
45.3133
44.1911
43.0717
41.9581
40.8562
39.7724
38.711
37.6742
36.6618
35.6711
34.6957
33.7246
32.7428
31.7329
30.6789
29.5714
28.4126
27.2196
26.0233
24.8622
23.773
22.781
21.8971
21.1119
20.3916
19.6832
18.9284
18.0778
17.105
16.0077
14.8126
13.5524
12.2871
11.0664
9.94244
9.04437
8.47417
8.27179
8.39479
8.67164
8.73981
8.17406
6.8935
5.49954
4.7389
4.91972
5.87341
7.31199
8.90828
10.4527
12.0107
13.5572
15.0484
16.5141
17.934
19.3089
20.6691
22.0343
23.4061
24.7729
26.132
81.7198
81.6798
81.5599
81.3721
81.1176
80.7962
80.4096
79.9599
79.45
78.8825
78.2591
77.5779
76.8342
76.0162
75.1109
74.1078
72.9981
71.7826
70.4757
69.1001
67.6796
66.2333
64.7764
63.3209
61.8765
60.4511
59.051
57.6806
56.3424
55.0369
53.7632
52.5186
51.2999
50.1033
48.9256
47.7637
46.6153
45.4782
44.3499
43.2273
42.1066
40.9868
39.8715
38.7685
37.6857
36.6283
35.5988
34.5975
33.6221
32.6656
31.7154
30.7534
29.7571
28.7053
27.5841
26.3948
25.1576
23.9108
22.7031
21.5809
20.5753
19.7013
18.9503
18.2799
17.6247
16.9118
16.0763
15.0865
13.9385
12.6712
11.3141
9.94334
8.60655
7.34511
6.34697
5.74618
5.60325
5.89481
6.43713
6.72486
6.09511
4.34221
2.37189
1.30247
1.50945
2.68531
4.44941
6.28212
7.9324
9.6015
11.2209
12.7598
14.2749
15.7157
17.0939
18.4553
19.8255
21.2045
22.5629
23.8832
80.009
79.9684
79.8473
79.6576
79.4002
79.0748
78.6831
78.2277
77.712
77.1395
76.5132
75.8315
75.0896
74.2734
73.3664
72.3564
71.2304
69.9875
68.6445
67.2294
65.7699
64.2869
62.7961
61.31
59.8385
58.3898
56.9704
55.5849
54.2359
52.9236
51.6465
50.4012
49.1837
47.9897
46.8152
45.6568
44.512
43.3787
42.2542
41.1347
40.0153
38.8942
37.776
36.6709
35.5887
34.5354
33.5138
32.5249
31.5669
30.633
29.7091
28.7727
27.7953
26.7485
25.6127
24.3873
23.0962
21.7872
20.5219
19.3592
18.3379
17.4744
16.767
16.1605
15.575
14.9187
14.1067
13.1022
11.8932
10.5434
9.07224
7.58693
6.12328
4.68373
3.55514
2.90544
2.817
3.3108
4.23488
4.88097
4.22236
1.82358
-0.92833
-2.35052
-2.05868
-0.605603
1.60283
3.68418
5.40004
7.2115
8.89368
10.487
12.0591
13.5084
14.8811
16.2384
17.6143
19.0092
20.3604
21.6239
78.3092
78.2681
78.1459
77.9542
77.6938
77.3641
76.9669
76.5049
75.9825
75.404
74.7742
74.0919
73.3532
72.5406
71.6334
70.6182
69.4761
68.2031
66.8201
65.3614
63.8596
62.3374
60.8108
59.2923
57.7921
56.3187
54.879
53.4778
52.1178
50.799
49.5189
48.2737
47.0584
45.8676
44.6967
43.5422
42.4013
41.2719
40.1515
39.0353
37.9169
36.7931
35.6704
34.562
33.48
32.4309
31.4178
30.4424
29.5042
28.5972
27.7057
26.8025
25.8512
24.8136
23.6624
22.3941
21.0369
19.6508
18.314
17.1013
16.0593
15.2088
14.5558
14.0291
13.5346
12.9551
12.1747
11.1585
9.87653
8.44154
6.8317
5.21828
3.61686
1.93871
0.651653
-0.0630381
-0.111738
0.603625
2.03812
3.18202
2.50648
-0.752396
-4.4982
-6.39639
-6.10839
-4.20204
-1.20502
1.17046
2.87277
4.88692
6.54788
8.22336
9.87301
11.316
12.6747
14.0163
15.3983
16.8274
18.1787
19.3606
76.6205
76.5791
76.4558
76.2623
75.9988
75.6646
75.2613
74.7919
74.2615
73.6757
73.0414
72.3584
71.6244
70.8174
69.9114
68.8934
67.7358
66.4301
65.0021
63.4952
61.948
60.3842
58.8197
57.2671
55.7365
54.2369
52.7758
51.3584
49.9872
48.6621
47.3799
46.1357
44.9234
43.7367
42.5703
41.4199
40.283
39.1577
38.0415
36.9288
35.8106
34.6825
33.553
32.4399
31.3578
30.3133
29.309
28.348
27.432
26.5566
25.7051
24.8449
23.9292
22.9068
21.7397
20.4202
18.9817
17.4996
16.0738
14.7998
13.7317
12.8957
12.3144
11.8889
11.5127
11.0361
10.2962
9.27121
7.88664
6.37167
4.59232
2.85951
1.14024
-0.880402
-2.29582
-2.9577
-2.58761
-1.07244
0.520635
0.82675
0.307277
-0.541722
-1.07632
-1.83148
-2.8208
-4.54736
-3.41166
-1.41629
0.21872
2.7281
4.18635
6.01964
7.72994
9.12323
10.4688
11.78
13.1742
14.6726
16.0382
17.1034
74.943
74.9014
74.7773
74.5821
74.3156
73.9768
73.5668
73.089
72.5492
71.9543
71.3142
70.6299
69.9021
69.1033
68.1995
67.1821
66.0102
64.6685
63.1898
61.6297
60.0339
58.4265
56.8222
55.2336
53.6709
52.1436
50.6598
49.2254
47.8431
46.5121
45.2287
43.9866
42.7786
41.597
40.4357
39.2899
38.1571
37.0358
35.9239
34.8147
33.696
32.5611
31.4219
30.3024
29.2202
28.1808
27.1857
26.2394
25.3475
24.5089
23.7069
22.9024
22.0349
21.036
19.8529
18.4721
16.9331
15.3309
13.7937
12.4456
11.3464
10.5247
10.0365
9.72905
9.50538
9.16945
8.48404
7.47013
5.92272
4.34603
2.34038
0.528807
-1.47932
-3.93938
-3.35936
-1.33706
-0.313883
0.10206
0.235823
0.133632
0.116066
0.117203
0.110696
0.121632
0.130754
0.106587
-0.251317
-2.59373
-3.19166
0.441801
1.42512
3.87451
5.69028
6.96321
8.28825
9.50338
10.9246
12.5638
13.9733
14.8705
73.2768
73.2353
73.1106
72.914
72.6447
72.3012
71.8841
71.3967
70.8458
70.2396
69.5917
68.9048
68.1849
67.397
66.4957
65.4838
64.2999
62.9184
61.3819
59.7631
58.116
56.4633
54.8175
53.1911
51.5945
50.0376
48.5298
47.0777
45.6841
44.348
43.0644
41.826
40.6236
39.4484
38.293
37.1522
36.0236
34.906
33.7984
32.6926
31.572
30.4268
29.274
28.1464
27.0649
26.0317
25.0458
24.1138
23.2471
22.4506
21.7095
20.9773
20.175
19.211
18.0126
16.5582
14.8941
13.1414
11.4656
10.0313
8.89317
8.08935
7.73419
7.56631
7.53805
7.38157
6.74209
5.77473
3.95472
2.40027
-0.457129
-2.8882
-1.96335
-0.144922
0.199287
0.165529
0.156758
0.137094
0.115781
0.0997618
0.0966934
0.101345
0.107737
0.117643
0.125748
0.133341
0.145247
0.150523
-0.0549093
-2.15625
-2.96365
1.74836
3.66309
4.77153
6.18529
7.14151
8.63095
10.5322
12.0342
12.6905
71.6219
71.5807
71.4557
71.2582
70.9866
70.6384
70.2139
69.7157
69.1517
68.5313
67.873
67.1813
66.4708
65.6972
64.7966
63.7973
62.6052
61.179
59.5762
57.8927
56.1927
54.4936
52.805
51.139
49.5064
47.9179
46.3845
44.9138
43.5091
42.1686
40.8864
39.6532
38.4582
37.2908
36.1423
35.0071
33.8824
32.7683
31.6645
30.5617
29.4371
28.2764
27.1047
25.9678
24.889
23.8643
22.8875
21.968
21.126
20.3769
19.7105
19.0719
18.3577
17.4444
16.2333
14.6903
12.8692
10.9264
9.07685
7.54865
6.36846
5.50229
5.35801
5.3496
5.59014
5.67946
5.05884
4.27409
1.22116
-1.37178
-1.33347
0.0911532
0.187565
0.187438
0.185625
0.167301
0.152445
0.130823
0.108594
0.0930351
0.0935806
0.100165
0.105965
0.113573
0.122892
0.131155
0.145086
0.153486
0.154641
0.156371
-0.281319
-1.82361
-0.458725
2.48572
4.22626
4.5142
6.23189
8.62284
10.3074
10.6142
69.9783
69.9377
69.8129
69.6151
69.3417
68.9893
68.5571
68.047
67.4676
66.8293
66.1568
65.4565
64.7573
64.0034
63.0984
62.1193
60.9256
59.4487
57.7687
56.0147
54.2619
52.5166
50.7839
49.0767
47.4057
45.7833
44.2225
42.7323
41.3164
39.9726
38.6935
37.4677
36.2822
35.1244
33.984
32.8547
31.7339
30.6225
29.5217
28.4206
27.2879
26.1037
24.9059
23.7595
22.689
21.677
20.7091
19.7982
18.9779
18.2802
17.7055
17.1887
16.5928
15.753
14.5337
12.8836
10.8637
8.68101
6.60726
4.95548
3.7105
2.77297
2.96588
3.06245
3.66527
4.15768
2.48455
0.163399
-0.918287
0.138379
0.19229
0.192558
0.190671
0.185869
0.180568
0.164385
0.145015
0.118776
0.0917099
0.0784417
0.0840672
0.0945735
0.100447
0.105937
0.114382
0.127861
0.145797
0.151513
0.154149
0.157256
0.165418
0.143011
-0.740336
-1.30888
2.02468
1.42901
3.66774
6.9118
8.94235
8.71458
68.346
68.3063
68.1822
67.985
67.7107
67.3548
66.9149
66.3917
65.7944
65.1337
64.4417
63.7269
63.0398
62.3129
61.392
60.4433
59.2579
57.722
55.9521
54.1231
52.3212
50.5315
48.7541
47.0037
45.2916
43.6324
42.0419
40.5312
39.1044
37.7586
36.4847
35.2689
34.0955
32.9493
31.8185
30.6958
29.5788
28.4689
27.369
26.2661
25.1178
23.8975
22.6641
21.5108
20.4595
19.4688
18.5098
17.6004
16.7942
16.1495
15.687
15.3302
14.8944
14.1603
12.94
11.1585
8.88416
6.40278
4.03704
2.27417
0.809256
-0.401295
0.588511
0.550118
0.113821
-0.283021
-0.202873
0.198252
0.182756
0.192567
0.192624
0.190812
0.188459
0.182618
0.175611
0.160043
0.137173
0.104929
0.0724192
0.0585453
0.0714327
0.0880556
0.0941875
0.0959203
0.102821
0.119367
0.138595
0.147649
0.152431
0.15583
0.159081
0.157882
0.170284
0.121019
-1.82122
-3.68794
0.611308
5.35503
8.20832
7.20138
66.7246
66.6862
66.5636
66.368
66.0941
65.7356
65.2885
64.7514
64.1335
63.445
62.7264
61.9874
61.3118
60.6167
59.6504
58.7529
57.5892
55.9802
54.1096
52.208
50.3677
48.5378
46.7153
44.9198
43.1633
41.4637
39.8409
38.3084
36.871
35.5249
34.2589
33.0563
31.8979
30.7659
29.6463
28.5313
27.418
26.3077
25.2051
24.0945
22.9184
21.6436
20.3623
19.2082
18.195
17.2396
16.2902
15.3706
14.5633
13.9682
13.6418
13.5001
13.2815
12.6954
11.4843
9.54562
6.93932
4.08245
1.30083
-0.395533
-1.76043
-4.21678
-2.84304
-1.15317
0.198049
0.208775