/*--------------------------------*- C++ -*----------------------------------*\
| =========                 |                                                 |
| \\      /  F ield         | OpenFOAM: The Open Source CFD Toolbox           |
|  \\    /   O peration     | Version:  2.4.0                                 |
|   \\  /    A nd           | Web:      www.OpenFOAM.org                      |
|    \\/     M anipulation  |                                                 |
\*---------------------------------------------------------------------------*/
FoamFile
{
    version     2.0;
    format      ascii;
    class       surfaceScalarField;
    location    "0.158";
    object      phiAlpha;
}
// * * * * * * * * * * * * * * * * * * * * * * * * * * * * * * * * * * * * * //

dimensions      [0 3 -1 0 0 0 0];

internalField   nonuniform List<scalar> 
119500
(
-8.25762e-13
8.25762e-13
-1.82028e-12
9.95028e-13
-2.88436e-12
1.06453e-12
-3.93658e-12
1.05265e-12
-4.97062e-12
1.03445e-12
-5.97858e-12
1.00835e-12
-6.95864e-12
9.80421e-13
-7.90841e-12
9.50098e-13
-8.82561e-12
9.1749e-13
-9.70985e-12
8.84495e-13
-1.05624e-11
8.52791e-13
-1.13862e-11
8.2393e-13
-1.2185e-11
7.98894e-13
-1.29638e-11
7.7884e-13
-1.37282e-11
7.64459e-13
-1.44847e-11
7.56496e-13
-1.52404e-11
7.55626e-13
-1.60031e-11
7.62602e-13
-1.67806e-11
7.77417e-13
-1.75813e-11
8.00432e-13
-1.84128e-11
8.31296e-13
-1.92824e-11
8.69364e-13
-2.01968e-11
9.14182e-13
-2.11613e-11
9.64145e-13
-2.21803e-11
1.01875e-12
-2.32573e-11
1.07668e-12
-2.43946e-11
1.13711e-12
-2.55935e-11
1.19867e-12
-2.68541e-11
1.2604e-12
-2.81756e-11
1.32126e-12
-2.95555e-11
1.37969e-12
-3.09905e-11
1.43485e-12
-3.24784e-11
1.48763e-12
-3.40155e-11
1.53688e-12
-3.55987e-11
1.58294e-12
-3.72239e-11
1.62497e-12
-3.88875e-11
1.66345e-12
-4.05878e-11
1.70002e-12
-4.23211e-11
1.73311e-12
-4.40849e-11
1.76351e-12
-4.58793e-11
1.79412e-12
-4.77029e-11
1.82335e-12
-4.95557e-11
1.85254e-12
-5.14375e-11
1.88149e-12
-5.33484e-11
1.91057e-12
-5.529e-11
1.94133e-12
-5.72612e-11
1.97079e-12
-5.92623e-11
2.00073e-12
-6.12945e-11
2.03182e-12
-6.33578e-11
2.06282e-12
-6.54515e-11
2.0932e-12
-6.75756e-11
2.12353e-12
-6.97283e-11
2.15224e-12
-7.19073e-11
2.17854e-12
-7.41097e-11
2.20193e-12
-7.63311e-11
2.2211e-12
-7.85673e-11
2.23594e-12
-8.0814e-11
2.2464e-12
-8.30653e-11
2.25113e-12
-8.53148e-11
2.24919e-12
-8.75555e-11
2.24043e-12
-8.97798e-11
2.22395e-12
-9.19799e-11
2.19975e-12
-9.41471e-11
2.16685e-12
-9.62725e-11
2.12501e-12
-9.8347e-11
2.07412e-12
-1.00362e-10
2.01441e-12
-1.02308e-10
1.94546e-12
-1.04175e-10
1.86696e-12
-1.05955e-10
1.77941e-12
-1.07639e-10
1.6838e-12
-1.09221e-10
1.58103e-12
-1.10692e-10
1.47083e-12
-1.12046e-10
1.35268e-12
-1.13274e-10
1.22827e-12
-1.14374e-10
1.0985e-12
-1.15337e-10
9.62862e-13
-1.1616e-10
8.22274e-13
-1.16838e-10
6.7762e-13
-1.1737e-10
5.31038e-13
-1.17751e-10
3.80631e-13
-1.1798e-10
2.28493e-13
-1.18054e-10
7.27602e-14
-1.17968e-10
-8.56464e-14
-1.17725e-10
-2.44576e-13
-1.17321e-10
-4.04607e-13
-1.16756e-10
-5.65082e-13
-1.16033e-10
-7.24058e-13
-1.15151e-10
-8.8245e-13
-1.14111e-10
-1.04074e-12
-1.12913e-10
-1.19865e-12
-1.11557e-10
-1.35631e-12
-1.10041e-10
-1.51623e-12
-1.08366e-10
-1.67492e-12
-1.06522e-10
-1.84482e-12
-1.04522e-10
-2.00028e-12
-1.02347e-10
-2.1755e-12
-1.00011e-10
-2.33593e-12
-9.7392e-11
-2.61972e-12
-2.87694e-12
-9.45153e-11
-1.25623e-12
2.08253e-12
-2.93075e-12
2.6704e-12
-4.66854e-12
2.80309e-12
-6.41035e-12
2.79518e-12
-8.11134e-12
2.73612e-12
-9.7625e-12
2.66014e-12
-1.13559e-11
2.57443e-12
-1.28863e-11
2.48098e-12
-1.43497e-11
2.38132e-12
-1.57438e-11
2.27892e-12
-1.70681e-11
2.17733e-12
-1.83235e-11
2.07953e-12
-1.95127e-11
1.98826e-12
-2.06406e-11
1.90676e-12
-2.1714e-11
1.83782e-12
-2.27407e-11
1.78318e-12
-2.37306e-11
1.74531e-12
-2.46939e-11
1.72565e-12
-2.56415e-11
1.72472e-12
-2.65846e-11
1.74321e-12
-2.75341e-11
1.78035e-12
-2.85003e-11
1.83505e-12
-2.94929e-11
1.90634e-12
-3.05207e-11
1.99148e-12
-3.1591e-11
2.08869e-12
-3.27108e-11
2.19605e-12
-3.38849e-11
2.31084e-12
-3.51175e-11
2.43084e-12
-3.64113e-11
2.55389e-12
-3.77677e-11
2.67737e-12
-3.91886e-11
2.80021e-12
-4.06728e-11
2.9187e-12
-4.22199e-11
3.03428e-12
-4.38277e-11
3.14431e-12
-4.54939e-11
3.24875e-12
-4.7214e-11
3.34457e-12
-4.89858e-11
3.43488e-12
-5.08072e-11
3.52097e-12
-5.26774e-11
3.6029e-12
-5.45948e-11
3.68048e-12
-5.65585e-11
3.75733e-12
-5.85675e-11
3.8319e-12
-6.06223e-11
3.90682e-12
-6.27227e-11
3.98125e-12
-6.48676e-11
4.05488e-12
-6.70598e-11
4.13293e-12
-6.92992e-11
4.20945e-12
-7.15883e-11
4.28908e-12
-7.393e-11
4.37264e-12
-7.63249e-11
4.4569e-12
-7.87728e-11
4.54021e-12
-8.12725e-11
4.62237e-12
-8.38219e-11
4.70082e-12
-8.64207e-11
4.77665e-12
-8.90649e-11
4.84555e-12
-9.17523e-11
4.90805e-12
-9.44799e-11
4.96307e-12
-9.72426e-11
5.00858e-12
-1.00035e-10
5.04272e-12
-1.0285e-10
5.06372e-12
-1.05681e-10
5.0709e-12
-1.08519e-10
5.06161e-12
-1.11356e-10
5.03577e-12
-1.14181e-10
4.99107e-12
-1.16983e-10
4.92613e-12
-1.1975e-10
4.8409e-12
-1.22472e-10
4.73521e-12
-1.25135e-10
4.6081e-12
-1.27728e-10
4.45876e-12
-1.30238e-10
4.28822e-12
-1.32653e-10
4.09804e-12
-1.34963e-10
3.88993e-12
-1.37157e-10
3.66406e-12
-1.39226e-10
3.41994e-12
-1.4116e-10
3.16162e-12
-1.42953e-10
2.88964e-12
-1.44595e-10
2.60396e-12
-1.46079e-10
2.30513e-12
-1.47397e-10
1.995e-12
-1.48544e-10
1.6766e-12
-1.49513e-10
1.34871e-12
-1.50301e-10
1.01529e-12
-1.50906e-10
6.7695e-13
-1.51326e-10
3.33015e-13
-1.51559e-10
-1.24214e-14
-1.51607e-10
-3.58374e-13
-1.51468e-10
-7.04722e-13
-1.51146e-10
-1.04742e-12
-1.5064e-10
-1.38989e-12
-1.4995e-10
-1.73116e-12
-1.49077e-10
-2.0729e-12
-1.48018e-10
-2.41548e-12
-1.46773e-10
-2.76272e-12
-1.45337e-10
-3.11137e-12
-1.43701e-10
-3.48166e-12
-1.41866e-10
-3.83558e-12
-1.39793e-10
-4.24878e-12
-1.37425e-10
-4.70478e-12
-1.34538e-10
-5.50709e-12
-6.71197e-12
-1.30703e-10
-1.41345e-12
3.49644e-12
-3.346e-12
4.60363e-12
-5.35234e-12
4.81003e-12
-7.3647e-12
4.8081e-12
-9.33896e-12
4.71093e-12
-1.12566e-11
4.57833e-12
-1.31081e-11
4.42633e-12
-1.48868e-11
4.26008e-12
-1.65882e-11
4.08313e-12
-1.82093e-11
3.90031e-12
-1.97485e-11
3.71686e-12
-2.12065e-11
3.53773e-12
-2.25855e-11
3.36736e-12
-2.38893e-11
3.21062e-12
-2.51239e-11
3.07243e-12
-2.62966e-11
2.95592e-12
-2.74164e-11
2.86505e-12
-2.84934e-11
2.80244e-12
-2.9538e-11
2.76917e-12
-3.05614e-11
2.76644e-12
-3.15746e-11
2.79325e-12
-3.2588e-11
2.84818e-12
-3.36113e-11
2.92945e-12
-3.46536e-11
3.0335e-12
-3.57227e-11
3.15751e-12
-3.68258e-11
3.29895e-12
-3.79681e-11
3.45285e-12
-3.91547e-11
3.61718e-12
-4.03891e-11
3.78806e-12
-4.16741e-11
3.96209e-12
-4.3011e-11
4.13686e-12
-4.44009e-11
4.30825e-12
-4.5843e-11
4.47606e-12
-4.73358e-11
4.63682e-12
-4.88775e-11
4.79016e-12
-5.04666e-11
4.93338e-12
-5.21015e-11
5.06955e-12
-5.37805e-11
5.19969e-12
-5.5502e-11
5.32401e-12
-5.72657e-11
5.44383e-12
-5.90725e-11
5.56375e-12
-6.09209e-11
5.67994e-12
-6.28134e-11
5.79883e-12
-6.47501e-11
5.91745e-12
-6.67313e-11
6.03558e-12
-6.87603e-11
6.16138e-12
-7.08394e-11
6.28795e-12
-7.29704e-11
6.41949e-12
-7.5157e-11
6.55858e-12
-7.73994e-11
6.69874e-12
-7.96979e-11
6.8381e-12
-8.20528e-11
6.9766e-12
-8.44635e-11
7.11101e-12
-8.6929e-11
7.24171e-12
-8.94491e-11
7.36516e-12
-9.20202e-11
7.47879e-12
-9.46403e-11
7.58276e-12
-9.7306e-11
7.67375e-12
-1.00012e-10
7.74805e-12
-1.02752e-10
7.80343e-12
-1.05521e-10
7.83909e-12
-1.0831e-10
7.85024e-12
-1.11112e-10
7.83652e-12
-1.13916e-10
7.7947e-12
-1.16712e-10
7.72212e-12
-1.1949e-10
7.61837e-12
-1.22239e-10
7.48321e-12
-1.24946e-10
7.31477e-12
-1.276e-10
7.1118e-12
-1.30189e-10
6.87596e-12
-1.32701e-10
6.60939e-12
-1.35126e-10
6.3143e-12
-1.37455e-10
5.99195e-12
-1.39679e-10
5.64259e-12
-1.41789e-10
5.27023e-12
-1.43776e-10
4.87543e-12
-1.45632e-10
4.45964e-12
-1.47352e-10
4.02356e-12
-1.48927e-10
3.56958e-12
-1.50352e-10
3.1006e-12
-1.51625e-10
2.62047e-12
-1.52738e-10
2.12773e-12
-1.53693e-10
1.63036e-12
-1.54487e-10
1.12585e-12
-1.55121e-10
6.20526e-13
-1.55596e-10
1.15493e-13
-1.55914e-10
-3.87648e-13
-1.56075e-10
-8.87094e-13
-1.56079e-10
-1.38641e-12
-1.55926e-10
-1.88484e-12
-1.55616e-10
-2.38443e-12
-1.55145e-10
-2.88701e-12
-1.54511e-10
-3.39746e-12
-1.5371e-10
-3.91326e-12
-1.52733e-10
-4.45956e-12
-1.51565e-10
-5.00322e-12
-1.50157e-10
-5.65729e-12
-1.48399e-10
-6.46353e-12
-1.4595e-10
-7.95632e-12
-1.03827e-11
-1.4228e-10
-1.52447e-12
5.02129e-12
-3.53042e-12
6.61012e-12
-5.66426e-12
6.94434e-12
-7.7954e-12
6.9397e-12
-9.88983e-12
6.80579e-12
-1.19274e-11
6.61629e-12
-1.38971e-11
6.39641e-12
-1.57916e-11
6.15495e-12
-1.76057e-11
5.89763e-12
-1.93359e-11
5.63084e-12
-2.09805e-11
5.36167e-12
-2.25399e-11
5.09736e-12
-2.40166e-11
4.84419e-12
-2.54142e-11
4.60836e-12
-2.67383e-11
4.39667e-12
-2.79965e-11
4.21417e-12
-2.91972e-11
4.06575e-12
-3.03501e-11
3.95538e-12
-3.14657e-11
3.88472e-12
-3.25546e-11
3.85523e-12
-3.36275e-11
3.86613e-12
-3.46948e-11
3.91539e-12
-3.57659e-11
4.00053e-12
-3.68501e-11
4.11758e-12
-3.79552e-11
4.26253e-12
-3.9088e-11
4.43166e-12
-4.02549e-11
4.61955e-12
-4.14602e-11
4.82231e-12
-4.27076e-11
5.03528e-12
-4.39994e-11
5.25373e-12
-4.53367e-11
5.4739e-12
-4.67202e-11
5.6915e-12
-4.81487e-11
5.90439e-12
-4.96214e-11
6.10924e-12
-5.11359e-11
6.30452e-12
-5.26913e-11
6.48859e-12
-5.42856e-11
6.66365e-12
-5.59177e-11
6.83156e-12
-5.75862e-11
6.99235e-12
-5.92927e-11
7.14996e-12
-6.10339e-11
7.30464e-12
-6.28113e-11
7.45696e-12
-6.46272e-11
7.61435e-12
-6.64808e-11
7.77058e-12
-6.83764e-11
7.93064e-12
-7.03149e-11
8.09942e-12
-7.23002e-11
8.27278e-12
-7.43346e-11
8.4534e-12
-7.64186e-11
8.6421e-12
-7.85538e-11
8.83355e-12
-8.07432e-11
9.02716e-12
-8.2987e-11
9.21999e-12
-8.52857e-11
9.40937e-12
-8.76391e-11
9.59474e-12
-9.00465e-11
9.77222e-12
-9.25062e-11
9.93803e-12
-9.50157e-11
1.00918e-11
-9.7572e-11
1.02296e-11
-1.00171e-10
1.03462e-11
-1.02808e-10
1.04395e-11
-1.05473e-10
1.05038e-11
-1.08163e-10
1.05397e-11
-1.10868e-10
1.05413e-11
-1.1358e-10
1.05061e-11
-1.16289e-10
1.04306e-11
-1.18985e-10
1.0314e-11
-1.21658e-10
1.01552e-11
-1.24296e-10
9.95182e-12
-1.26888e-10
9.70288e-12
-1.29423e-10
9.41042e-12
-1.31891e-10
9.07697e-12
-1.34283e-10
8.70517e-12
-1.36589e-10
8.29632e-12
-1.38801e-10
7.85335e-12
-1.4091e-10
7.37847e-12
-1.42909e-10
6.87369e-12
-1.44792e-10
6.34138e-12
-1.46553e-10
5.78347e-12
-1.48186e-10
5.20236e-12
-1.49689e-10
4.60226e-12
-1.51056e-10
3.9868e-12
-1.52288e-10
3.358e-12
-1.53381e-10
2.72296e-12
-1.54338e-10
2.08113e-12
-1.55158e-10
1.43961e-12
-1.55843e-10
7.99743e-13
-1.56397e-10
1.65628e-13
-1.56821e-10
-4.6408e-13
-1.57117e-10
-1.09139e-12
-1.57284e-10
-1.71921e-12
-1.5732e-10
-2.34867e-12
-1.57225e-10
-2.98314e-12
-1.56994e-10
-3.62914e-12
-1.56621e-10
-4.28725e-12
-1.56094e-10
-4.98689e-12
-1.55389e-10
-5.70813e-12
-1.54453e-10
-6.5942e-12
-1.53138e-10
-7.77847e-12
-1.51084e-10
-1.00116e-11
-1.37383e-11
-1.47728e-10
-1.56512e-12
6.58671e-12
-3.63299e-12
8.67841e-12
-5.81868e-12
9.13041e-12
-8.00542e-12
9.12681e-12
-1.01561e-11
8.95679e-12
-1.22497e-11
8.71027e-12
-1.42747e-11
8.42178e-12
-1.62233e-11
8.10382e-12
-1.80897e-11
7.76434e-12
-1.98702e-11
7.4117e-12
-2.15631e-11
7.05483e-12
-2.31686e-11
6.70307e-12
-2.46891e-11
6.36487e-12
-2.61286e-11
6.04806e-12
-2.74927e-11
5.76093e-12
-2.87891e-11
5.51072e-12
-3.00267e-11
5.30343e-12
-3.12149e-11
5.14374e-12
-3.23645e-11
5.0344e-12
-3.34859e-11
4.97674e-12
-3.45901e-11
4.97052e-12
-3.56878e-11
5.0132e-12
-3.67884e-11
5.10123e-12
-3.79014e-11
5.23065e-12
-3.90349e-11
5.39602e-12
-4.01957e-11
5.59242e-12
-4.13901e-11
5.81392e-12
-4.26226e-11
6.05468e-12
-4.38962e-11
6.30885e-12
-4.52135e-11
6.57085e-12
-4.65745e-11
6.83473e-12
-4.79801e-11
7.09692e-12
-4.94282e-11
7.3524e-12
-5.09182e-11
7.59903e-12
-5.24473e-11
7.83349e-12
-5.40147e-11
8.05592e-12
-5.56179e-11
8.26669e-12
-5.72562e-11
8.46979e-12
-5.89275e-11
8.66346e-12
-6.06324e-11
8.85465e-12
-6.23702e-11
9.0421e-12
-6.41401e-11
9.22654e-12
-6.59442e-11
9.41803e-12
-6.77832e-11
9.60917e-12
-6.96593e-11
9.80637e-12
-7.15754e-11
1.00151e-11
-7.35339e-11
1.02308e-11
-7.55381e-11
1.04573e-11
-7.75883e-11
1.0692e-11
-7.9687e-11
1.0932e-11
-8.18364e-11
1.11763e-11
-8.40379e-11
1.14213e-11
-8.62925e-11
1.16638e-11
-8.86008e-11
1.19027e-11
-9.09615e-11
1.21326e-11
-9.33739e-11
1.23499e-11
-9.58357e-11
1.25531e-11
-9.83439e-11
1.27372e-11
-1.00894e-10
1.28958e-11
-1.03481e-10
1.30257e-11
-1.06099e-10
1.31212e-11
-1.08739e-10
1.31794e-11
-1.11395e-10
1.31963e-11
-1.14057e-10
1.31677e-11
-1.16717e-10
1.30897e-11
-1.19364e-10
1.29608e-11
-1.21989e-10
1.27792e-11
-1.2458e-10
1.25419e-11
-1.27127e-10
1.22491e-11
-1.2962e-10
1.19031e-11
-1.32051e-10
1.15062e-11
-1.34408e-10
1.10611e-11
-1.36683e-10
1.05702e-11
-1.38867e-10
1.00366e-11
-1.40953e-10
9.46396e-12
-1.42934e-10
8.85386e-12
-1.44805e-10
8.21141e-12
-1.46561e-10
7.53785e-12
-1.48198e-10
6.83824e-12
-1.4971e-10
6.11358e-12
-1.51099e-10
5.37516e-12
-1.52366e-10
4.62346e-12
-1.53506e-10
3.86265e-12
-1.54522e-10
3.09568e-12
-1.55414e-10
2.33079e-12
-1.56188e-10
1.57277e-12
-1.56845e-10
8.21166e-13
-1.57387e-10
7.70089e-14
-1.57817e-10
-6.6233e-13
-1.58137e-10
-1.39979e-12
-1.58348e-10
-2.13905e-12
-1.58448e-10
-2.88436e-12
-1.58432e-10
-3.64559e-12
-1.5829e-10
-4.42913e-12
-1.5801e-10
-5.26752e-12
-1.57561e-10
-6.1579e-12
-1.56882e-10
-7.27397e-12
-1.55801e-10
-8.85931e-12
-1.53929e-10
-1.18845e-11
-1.71057e-11
-1.50562e-10
-1.58832e-12
8.17526e-12
-3.69332e-12
1.07837e-11
-5.91107e-12
1.13484e-11
-8.1264e-12
1.13424e-11
-1.03056e-11
1.11363e-11
-1.24275e-11
1.08324e-11
-1.44799e-11
1.04745e-11
-1.64545e-11
1.00786e-11
-1.8345e-11
9.65508e-12
-2.01475e-11
9.21443e-12
-2.18601e-11
8.76772e-12
-2.34831e-11
8.32632e-12
-2.50189e-11
7.90091e-12
-2.64719e-11
7.50122e-12
-2.78477e-11
7.137e-12
-2.91543e-11
6.81751e-12
-3.04007e-11
6.55014e-12
-3.1597e-11
6.34025e-12
-3.2754e-11
6.1917e-12
-3.38829e-11
6.10586e-12
-3.49944e-11
6.08225e-12
-3.60999e-11
6.11896e-12
-3.72093e-11
6.21086e-12
-3.83318e-11
6.35333e-12
-3.94764e-11
6.54073e-12
-4.06498e-11
6.76589e-12
-4.18583e-11
7.02235e-12
-4.31064e-11
7.30281e-12
-4.43968e-11
7.59916e-12
-4.57319e-11
7.90582e-12
-4.71115e-11
8.21422e-12
-4.85356e-11
8.52095e-12
-5.00025e-11
8.81924e-12
-5.15105e-11
9.10694e-12
-5.30573e-11
9.38025e-12
-5.46414e-11
9.6399e-12
-5.62609e-11
9.88615e-12
-5.79136e-11
1.01223e-11
-5.95988e-11
1.03486e-11
-6.13155e-11
1.05711e-11
-6.30627e-11
1.07891e-11
-6.48419e-11
1.10054e-11
-6.66521e-11
1.1228e-11
-6.84943e-11
1.1451e-11
-7.03732e-11
1.1685e-11
-7.22887e-11
1.19303e-11
-7.42447e-11
1.21866e-11
-7.62437e-11
1.24561e-11
-7.82873e-11
1.27355e-11
-8.03777e-11
1.30222e-11
-8.25173e-11
1.33158e-11
-8.47078e-11
1.36117e-11
-8.69508e-11
1.39065e-11
-8.92466e-11
1.41983e-11
-9.15953e-11
1.44809e-11
-9.39957e-11
1.47498e-11
-9.64454e-11
1.50023e-11
-9.89419e-11
1.52331e-11
-1.0148e-10
1.54335e-11
-1.04055e-10
1.56001e-11
-1.06661e-10
1.57265e-11
-1.09289e-10
1.58066e-11
-1.11931e-10
1.58383e-11
-1.1458e-10
1.58156e-11
-1.17225e-10
1.57347e-11
-1.19858e-10
1.55931e-11
-1.22468e-10
1.53883e-11
-1.25045e-10
1.51176e-11
-1.27578e-10
1.47815e-11
-1.30059e-10
1.43825e-11
-1.32476e-10
1.39226e-11
-1.34821e-10
1.34049e-11
-1.37084e-10
1.28326e-11
-1.39258e-10
1.22094e-11
-1.41335e-10
1.15399e-11
-1.43308e-10
1.08257e-11
-1.45172e-10
1.00746e-11
-1.46923e-10
9.28773e-12
-1.48557e-10
8.47148e-12
-1.50073e-10
7.62801e-12
-1.51468e-10
6.76985e-12
-1.52744e-10
5.89825e-12
-1.539e-10
5.0171e-12
-1.54939e-10
4.13356e-12
-1.55861e-10
3.25237e-12
-1.56671e-10
2.38114e-12
-1.57371e-10
1.5207e-12
-1.57965e-10
6.6978e-13
-1.58456e-10
-1.72542e-13
-1.58847e-10
-1.00977e-12
-1.5914e-10
-1.84693e-12
-1.59334e-10
-2.69145e-12
-1.59423e-10
-3.55696e-12
-1.59398e-10
-4.45459e-12
-1.59244e-10
-5.42231e-12
-1.58927e-10
-6.47508e-12
-1.58381e-10
-7.82055e-12
-1.57418e-10
-9.82255e-12
-1.55624e-10
-1.36795e-11
-2.04708e-11
-1.5226e-10
-1.60754e-12
9.78296e-12
-3.74005e-12
1.29165e-11
-5.98179e-12
1.35904e-11
-8.21803e-12
1.35789e-11
-1.04168e-11
1.33353e-11
-1.2557e-11
1.29728e-11
-1.46261e-11
1.25437e-11
-1.66153e-11
1.2068e-11
-1.8518e-11
1.1558e-11
-2.03301e-11
1.10268e-11
-2.20498e-11
1.04876e-11
-2.36772e-11
9.95393e-12
-2.52147e-11
9.43868e-12
-2.66668e-11
8.9536e-12
-2.80396e-11
8.51005e-12
-2.93412e-11
8.11947e-12
-3.05817e-11
7.79088e-12
-3.1771e-11
7.52993e-12
-3.29205e-11
7.34151e-12
-3.40419e-11
7.2276e-12
-3.51466e-11
7.18734e-12
-3.62457e-11
7.21838e-12
-3.73503e-11
7.31574e-12
-3.84698e-11
7.47302e-12
-3.96131e-11
7.68418e-12
-4.07877e-11
7.94057e-12
-4.19992e-11
8.23387e-12
-4.32524e-11
8.55601e-12
-4.455e-11
8.89679e-12
-4.58935e-11
9.24918e-12
-4.72834e-11
9.60415e-12
-4.87183e-11
9.95579e-12
-5.0197e-11
1.02979e-11
-5.17167e-11
1.06265e-11
-5.32758e-11
1.09394e-11
-5.48712e-11
1.12352e-11
-5.65025e-11
1.15173e-11
-5.81659e-11
1.17855e-11
-5.98611e-11
1.20437e-11
-6.15871e-11
1.22969e-11
-6.33424e-11
1.25442e-11
-6.51282e-11
1.27909e-11
-6.69441e-11
1.30437e-11
-6.87915e-11
1.32981e-11
-7.06734e-11
1.35667e-11
-7.25912e-11
1.38478e-11
-7.45472e-11
1.41424e-11
-7.65447e-11
1.44535e-11
-7.85864e-11
1.4777e-11
-8.06748e-11
1.51106e-11
-8.28123e-11
1.54531e-11
-8.50005e-11
1.57998e-11
-8.72415e-11
1.61473e-11
-8.9536e-11
1.64925e-11
-9.18838e-11
1.68283e-11
-9.42845e-11
1.71499e-11
-9.67355e-11
1.74528e-11
-9.92334e-11
1.77305e-11
-1.01774e-10
1.79738e-11
-1.04352e-10
1.81776e-11
-1.06961e-10
1.83346e-11
-1.09593e-10
1.8438e-11
-1.12239e-10
1.84843e-11
-1.14892e-10
1.84677e-11
-1.17542e-10
1.83841e-11
-1.2018e-10
1.82301e-11
-1.22795e-10
1.80027e-11
-1.25377e-10
1.76987e-11
-1.27915e-10
1.73187e-11
-1.304e-10
1.6866e-11
-1.3282e-10
1.63426e-11
-1.35168e-10
1.57518e-11
-1.37435e-10
1.5098e-11
-1.39611e-10
1.43849e-11
-1.41689e-10
1.36168e-11
-1.43665e-10
1.28007e-11
-1.45531e-10
1.19395e-11
-1.47283e-10
1.1039e-11
-1.48918e-10
1.01054e-11
-1.50438e-10
9.14653e-12
-1.51837e-10
8.16822e-12
-1.53117e-10
7.17655e-12
-1.54279e-10
6.17811e-12
-1.55325e-10
5.17868e-12
-1.56258e-10
4.18501e-12
-1.57083e-10
3.2051e-12
-1.57803e-10
2.23943e-12
-1.58421e-10
1.28598e-12
-1.58939e-10
3.44944e-13
-1.59362e-10
-5.88056e-13
-1.59691e-10
-1.51801e-12
-1.59928e-10
-2.45514e-12
-1.60069e-10
-3.41693e-12
-1.60104e-10
-4.42005e-12
-1.60018e-10
-5.5086e-12
-1.59777e-10
-6.71675e-12
-1.59311e-10
-8.28721e-12
-1.58425e-10
-1.07094e-11
-1.56688e-10
-1.54168e-11
-2.38039e-11
-1.53356e-10
-1.62715e-12
1.14102e-11
-3.78472e-12
1.50742e-11
-6.04883e-12
1.58546e-11
-8.30558e-12
1.58357e-11
-1.0523e-11
1.55528e-11
-1.26798e-11
1.51298e-11
-1.47629e-11
1.4627e-11
-1.67633e-11
1.40685e-11
-1.86741e-11
1.34689e-11
-2.0491e-11
1.28438e-11
-2.22123e-11
1.2209e-11
-2.3838e-11
1.15799e-11
-2.53706e-11
1.09715e-11
-2.68148e-11
1.03981e-11
-2.81772e-11
9.87281e-12
-2.94664e-11
9.40902e-12
-3.06929e-11
9.01766e-12
-3.18674e-11
8.7048e-12
-3.30012e-11
8.47572e-12
-3.41068e-11
8.33359e-12
-3.51966e-11
8.27742e-12
-3.62817e-11
8.30384e-12
-3.73739e-11
8.40815e-12
-3.84833e-11
8.5826e-12
-3.96185e-11
8.81956e-12
-4.07874e-11
9.10961e-12
-4.1996e-11
9.44251e-12
-4.32481e-11
9.80814e-12
-4.45475e-11
1.01961e-11
-4.58941e-11
1.05958e-11
-4.7289e-11
1.09991e-11
-4.87301e-11
1.13968e-11
-5.02158e-11
1.17835e-11
-5.17429e-11
1.21536e-11
-5.33097e-11
1.25061e-11
-5.49131e-11
1.28385e-11
-5.65514e-11
1.31554e-11
-5.82218e-11
1.34558e-11
-5.9923e-11
1.37447e-11
-6.16533e-11
1.4027e-11
-6.34128e-11
1.43036e-11
-6.52018e-11
1.45797e-11
-6.70189e-11
1.48606e-11
-6.8868e-11
1.51471e-11
-7.07493e-11
1.54479e-11
-7.26663e-11
1.57647e-11
-7.46219e-11
1.60979e-11
-7.66179e-11
1.64493e-11
-7.86574e-11
1.68164e-11
-8.07437e-11
1.71967e-11
-8.2879e-11
1.75882e-11
-8.50664e-11
1.79869e-11
-8.73075e-11
1.83882e-11
-8.96033e-11
1.8788e-11
-9.19536e-11
1.91781e-11
-9.43578e-11
1.95537e-11
-9.68142e-11
1.99087e-11
-9.93179e-11
2.02337e-11
-1.01866e-10
2.05217e-11
-1.04454e-10
2.07646e-11
-1.07072e-10
2.09523e-11
-1.09715e-10
2.10804e-11
-1.12374e-10
2.11424e-11
-1.1504e-10
2.1133e-11
-1.17704e-10
2.10468e-11
-1.20355e-10
2.0881e-11
-1.22984e-10
2.0631e-11
-1.2558e-10
2.02929e-11
-1.2813e-10
1.98685e-11
-1.30627e-10
1.93618e-11
-1.3306e-10
1.87746e-11
-1.35419e-10
1.81103e-11
-1.37696e-10
1.73741e-11
-1.39882e-10
1.65702e-11
-1.4197e-10
1.57037e-11
-1.43953e-10
1.47821e-11
-1.45825e-10
1.38109e-11
-1.47582e-10
1.27954e-11
-1.49223e-10
1.17451e-11
-1.50745e-10
1.06672e-11
-1.52147e-10
9.56948e-12
-1.53429e-10
8.45719e-12
-1.54592e-10
7.34007e-12
-1.55639e-10
6.22495e-12
-1.56576e-10
5.12068e-12
-1.57404e-10
4.03234e-12
-1.58128e-10
2.96181e-12
-1.58753e-10
1.91048e-12
-1.59282e-10
8.72995e-13
-1.59719e-10
-1.52019e-13
-1.60066e-10
-1.17148e-12
-1.60325e-10
-2.19694e-12
-1.60493e-10
-3.24946e-12
-1.60563e-10
-4.35091e-12
-1.6052e-10
-5.55221e-12
-1.60331e-10
-6.90604e-12
-1.59927e-10
-8.6916e-12
-1.59111e-10
-1.1526e-11
-1.57435e-10
-1.70933e-11
-2.70962e-11
-1.54144e-10
-1.64895e-12
1.30592e-11
-3.83201e-12
1.72574e-11
-6.11985e-12
1.81426e-11
-8.39953e-12
1.81155e-11
-1.06371e-11
1.77904e-11
-1.28115e-11
1.73042e-11
-1.49091e-11
1.67246e-11
-1.69204e-11
1.60798e-11
-1.88385e-11
1.5387e-11
-2.06588e-11
1.46642e-11
-2.23795e-11
1.39298e-11
-2.4001e-11
1.32015e-11
-2.55255e-11
1.24962e-11
-2.69581e-11
1.18309e-11
-2.83063e-11
1.12213e-11
-2.9579e-11
1.06821e-11
-3.07867e-11
1.02257e-11
-3.19413e-11
9.85967e-12
-3.30547e-11
9.58947e-12
-3.41395e-11
9.41871e-12
-3.52091e-11
9.34732e-12
-3.62757e-11
9.37068e-12
-3.73508e-11
9.48344e-12
-3.84456e-11
9.67755e-12
-3.95691e-11
9.94321e-12
-4.07286e-11
1.02692e-11
-4.1931e-11
1.06449e-11
-4.31795e-11
1.10567e-11
-4.44775e-11
1.14942e-11
-4.58255e-11
1.19438e-11
-4.72229e-11
1.23965e-11
-4.86682e-11
1.28421e-11
-5.01586e-11
1.32739e-11
-5.16919e-11
1.36868e-11
-5.32643e-11
1.40783e-11
-5.4874e-11
1.4448e-11
-5.65178e-11
1.4799e-11
-5.8193e-11
1.51309e-11
-5.98978e-11
1.54494e-11
-6.16305e-11
1.57596e-11
-6.33912e-11
1.60642e-11
-6.51798e-11
1.63682e-11
-6.69964e-11
1.66772e-11
-6.88436e-11
1.69941e-11
-7.07233e-11
1.73276e-11
-7.26377e-11
1.76789e-11
-7.45904e-11
1.80505e-11
-7.65835e-11
1.84422e-11
-7.86199e-11
1.88526e-11
-8.0703e-11
1.92796e-11
-8.28362e-11
1.97211e-11
-8.50222e-11
2.01726e-11
-8.72634e-11
2.06289e-11
-8.95608e-11
2.1085e-11
-9.19142e-11
2.15312e-11
-9.43232e-11
2.19623e-11
-9.67855e-11
2.23706e-11
-9.9299e-11
2.27467e-11
-1.01858e-10
2.30805e-11
-1.04458e-10
2.33635e-11
-1.07091e-10
2.35848e-11
-1.09749e-10
2.37381e-11
-1.12424e-10
2.38173e-11
-1.15108e-10
2.3816e-11
-1.17791e-10
2.37289e-11
-1.20462e-10
2.35507e-11
-1.23108e-10
2.32767e-11
-1.2572e-10
2.2904e-11
-1.28289e-10
2.24359e-11
-1.30803e-10
2.1875e-11
-1.33252e-10
2.12235e-11
-1.35628e-10
2.0485e-11
-1.37919e-10
1.96649e-11
-1.40119e-10
1.8769e-11
-1.42219e-10
1.78027e-11
-1.44212e-10
1.67744e-11
-1.46092e-10
1.56899e-11
-1.47858e-10
1.45606e-11
-1.49504e-10
1.33905e-11
-1.51029e-10
1.21912e-11
-1.52433e-10
1.09716e-11
-1.53716e-10
9.73983e-12
-1.5488e-10
8.50205e-12
-1.55926e-10
7.27082e-12
-1.5686e-10
6.05363e-12
-1.57687e-10
4.85775e-12
-1.58409e-10
3.68332e-12
-1.59032e-10
2.53245e-12
-1.59561e-10
1.40147e-12
-1.60002e-10
2.87903e-13
-1.60357e-10
-8.17009e-13
-1.60629e-10
-1.92566e-12
-1.60816e-10
-3.06279e-12
-1.60913e-10
-4.25423e-12
-1.60908e-10
-5.55835e-12
-1.60769e-10
-7.04557e-12
-1.60428e-10
-9.03385e-12
-1.59684e-10
-1.22701e-11
-1.58074e-10
-1.87033e-11
-3.03798e-11
-1.54791e-10
-1.67364e-12
1.47329e-11
-3.88414e-12
1.94679e-11
-6.19831e-12
2.04568e-11
-8.5044e-12
2.04216e-11
-1.07651e-11
2.00511e-11
-1.29592e-11
1.94983e-11
-1.50728e-11
1.88381e-11
-1.70959e-11
1.8103e-11
-1.90216e-11
1.73128e-11
-2.08452e-11
1.64878e-11
-2.25645e-11
1.56493e-11
-2.41803e-11
1.48174e-11
-2.5695e-11
1.40111e-11
-2.71138e-11
1.32499e-11
-2.84448e-11
1.25526e-11
-2.9698e-11
1.19355e-11
-3.08837e-11
1.14118e-11
-3.20143e-11
1.09905e-11
-3.31034e-11
1.06788e-11
-3.41639e-11
1.04794e-11
-3.52094e-11
1.0393e-11
-3.62537e-11
1.04151e-11
-3.73086e-11
1.05385e-11
-3.83855e-11
1.07545e-11
-3.94943e-11
1.10522e-11
-4.06425e-11
1.14174e-11
-4.18364e-11
1.18389e-11
-4.30804e-11
1.23008e-11
-4.4376e-11
1.27898e-11
-4.57244e-11
1.32922e-11
-4.71237e-11
1.37958e-11
-4.85727e-11
1.4291e-11
-5.00677e-11
1.47687e-11
-5.16066e-11
1.52255e-11
-5.3185e-11
1.56564e-11
-5.48004e-11
1.60633e-11
-5.6449e-11
1.64473e-11
-5.81278e-11
1.68094e-11
-5.98351e-11
1.71565e-11
-6.15684e-11
1.74927e-11
-6.33283e-11
1.7824e-11
-6.51161e-11
1.81559e-11
-6.69316e-11
1.84926e-11
-6.8777e-11
1.88394e-11
-7.06535e-11
1.9204e-11
-7.25639e-11
1.95891e-11
-7.45121e-11
1.99984e-11
-7.65005e-11
2.04303e-11
-7.85325e-11
2.08843e-11
-8.06119e-11
2.13587e-11
-8.27425e-11
2.18514e-11
-8.49269e-11
2.23566e-11
-8.7168e-11
2.28697e-11
-8.94673e-11
2.33839e-11
-9.18245e-11
2.3888e-11
-9.42396e-11
2.4377e-11
-9.67103e-11
2.4841e-11
-9.92341e-11
2.52701e-11
-1.01806e-10
2.56519e-11
-1.0442e-10
2.59774e-11
-1.0707e-10
2.62344e-11
-1.09748e-10
2.64147e-11
-1.12444e-10
2.65123e-11
-1.1515e-10
2.65212e-11
-1.17856e-10
2.64342e-11
-1.20549e-10
2.62429e-11
-1.23216e-10
2.59436e-11
-1.2585e-10
2.55365e-11
-1.28439e-10
2.50246e-11
-1.30974e-10
2.44087e-11
-1.33443e-10
2.36919e-11
-1.35837e-10
2.28783e-11
-1.38146e-10
2.19733e-11
-1.40361e-10
2.09835e-11
-1.42475e-10
1.99159e-11
-1.44481e-10
1.87797e-11
-1.46374e-10
1.75813e-11
-1.48147e-10
1.6333e-11
-1.49799e-10
1.50418e-11
-1.51329e-10
1.37201e-11
-1.52735e-10
1.23764e-11
-1.54017e-10
1.10205e-11
-1.55179e-10
9.66285e-12
-1.56223e-10
8.31375e-12
-1.57153e-10
6.98295e-12
-1.57974e-10
5.67814e-12
-1.5869e-10
4.399e-12
-1.59308e-10
3.14942e-12
-1.59834e-10
1.92669e-12
-1.60274e-10
7.27368e-13
-1.60634e-10
-4.57945e-13
-1.60916e-10
-1.64453e-12
-1.61121e-10
-2.85836e-12
-1.61245e-10
-4.13043e-12
-1.61279e-10
-5.52519e-12
-1.61195e-10
-7.1304e-12
-1.60924e-10
-9.3052e-12
-1.60267e-10
-1.29275e-11
-1.58734e-10
-2.02365e-11
-3.36407e-11
-1.55474e-10
-1.70146e-12
1.64344e-11
-3.94262e-12
2.17092e-11
-6.28621e-12
2.28004e-11
-8.62255e-12
2.2758e-11
-1.09095e-11
2.23381e-11
-1.31259e-11
2.17148e-11
-1.52575e-11
2.09697e-11
-1.72939e-11
2.01394e-11
-1.92281e-11
1.92469e-11
-2.10553e-11
1.8315e-11
-2.27731e-11
1.73672e-11
-2.43821e-11
1.64265e-11
-2.58853e-11
1.55145e-11
-2.72886e-11
1.46534e-11
-2.86002e-11
1.38643e-11
-2.98306e-11
1.31661e-11
-3.09913e-11
1.25726e-11
-3.20948e-11
1.20942e-11
-3.31556e-11
1.17397e-11
-3.41883e-11
1.15121e-11
-3.52064e-11
1.14112e-11
-3.62247e-11
1.14335e-11
-3.72564e-11
1.15702e-11
-3.83129e-11
1.18112e-11
-3.94046e-11
1.21439e-11
-4.05399e-11
1.25529e-11
-4.17242e-11
1.30232e-11
-4.29624e-11
1.3539e-11
-4.42554e-11
1.40828e-11
-4.56036e-11
1.46403e-11
-4.70053e-11
1.51974e-11
-4.84579e-11
1.57435e-11
-4.99583e-11
1.62689e-11
-5.15029e-11
1.67698e-11
-5.30874e-11
1.72407e-11
-5.47082e-11
1.76838e-11
-5.63614e-11
1.81001e-11
-5.80434e-11
1.84912e-11
-5.97522e-11
1.88651e-11
-6.14867e-11
1.9227e-11
-6.3247e-11
1.95841e-11
-6.50338e-11
1.99425e-11
-6.68469e-11
2.03057e-11
-6.86885e-11
2.06809e-11
-7.05607e-11
2.1076e-11
-7.24662e-11
2.14945e-11
-7.44088e-11
2.19408e-11
-7.63915e-11
2.24128e-11
-7.84183e-11
2.29108e-11
-8.04934e-11
2.34334e-11
-8.26208e-11
2.39784e-11
-8.48041e-11
2.45395e-11
-8.70452e-11
2.51104e-11
-8.93463e-11
2.56845e-11
-9.17084e-11
2.62496e-11
-9.41303e-11
2.67985e-11
-9.66106e-11
2.73209e-11
-9.91466e-11
2.78056e-11
-1.01733e-10
2.82382e-11
-1.04365e-10
2.86086e-11
-1.07035e-10
2.89036e-11
-1.09734e-10
2.91136e-11
-1.12455e-10
2.9232e-11
-1.15186e-10
2.92521e-11
-1.17917e-10
2.91643e-11
-1.20634e-10
2.89592e-11
-1.23327e-10
2.86355e-11
-1.25986e-10
2.81949e-11
-1.286e-10
2.76385e-11
-1.31159e-10
2.69667e-11
-1.33651e-10
2.6183e-11
-1.36066e-10
2.52927e-11
-1.38394e-10
2.43013e-11
-1.40628e-10
2.32162e-11
-1.42758e-10
2.20454e-11
-1.44779e-10
2.07994e-11
-1.46682e-10
1.94841e-11
-1.48466e-10
1.81154e-11
-1.50125e-10
1.67006e-11
-1.51659e-10
1.52528e-11
-1.53065e-10
1.37819e-11
-1.54348e-10
1.23016e-11
-1.55506e-10
1.08204e-11
-1.56545e-10
9.35227e-12
-1.57469e-10
7.90602e-12
-1.58283e-10
6.491e-12
-1.58991e-10
5.10667e-12
-1.59602e-10
3.75942e-12
-1.60123e-10
2.44685e-12
-1.60561e-10
1.16522e-12
-1.60924e-10
-9.60822e-14
-1.61215e-10
-1.35401e-12
-1.61437e-10
-2.63658e-12
-1.6159e-10
-3.97818e-12
-1.61668e-10
-5.4487e-12
-1.61644e-10
-7.15475e-12
-1.61454e-10
-9.49536e-12
-1.60897e-10
-1.34849e-11
-1.59456e-10
-2.16778e-11
-3.68638e-11
-1.56233e-10
-1.73265e-12
1.81671e-11
-4.0087e-12
2.39853e-11
-6.38517e-12
2.5177e-11
-8.75549e-12
2.51284e-11
-1.1072e-11
2.46547e-11
-1.33134e-11
2.39562e-11
-1.54653e-11
2.31216e-11
-1.75169e-11
2.2191e-11
-1.94607e-11
2.11907e-11
-2.12919e-11
2.01462e-11
-2.30082e-11
1.90835e-11
-2.46096e-11
1.8028e-11
-2.60999e-11
1.70049e-11
-2.74857e-11
1.60392e-11
-2.87756e-11
1.51543e-11
-2.99802e-11
1.43709e-11
-3.11123e-11
1.37048e-11
-3.21855e-11
1.31674e-11
-3.32146e-11
1.27688e-11
-3.42153e-11
1.25128e-11
-3.52028e-11
1.23986e-11
-3.6192e-11
1.24228e-11
-3.71972e-11
1.25754e-11
-3.82311e-11
1.28452e-11
-3.93034e-11
1.32162e-11
-4.04238e-11
1.36732e-11
-4.15976e-11
1.4197e-11
-4.28288e-11
1.47702e-11
-4.4119e-11
1.53729e-11
-4.5467e-11
1.59883e-11
-4.68714e-11
1.66017e-11
-4.83284e-11
1.72003e-11
-4.98347e-11
1.7775e-11
-5.13862e-11
1.8321e-11
-5.29779e-11
1.88322e-11
-5.46052e-11
1.93107e-11
-5.62642e-11
1.97589e-11
-5.79517e-11
2.01785e-11
-5.96646e-11
2.05777e-11
-6.14009e-11
2.09631e-11
-6.31602e-11
2.13433e-11
-6.49446e-11
2.17267e-11
-6.67532e-11
2.21142e-11
-6.85896e-11
2.2517e-11
-7.04557e-11
2.29419e-11
-7.23544e-11
2.3393e-11
-7.42898e-11
2.38759e-11
-7.62657e-11
2.43884e-11
-7.82865e-11
2.49314e-11
-8.03567e-11
2.55032e-11
-8.24803e-11
2.61016e-11
-8.46613e-11
2.67201e-11
-8.69027e-11
2.73514e-11
-8.9206e-11
2.79874e-11
-9.15728e-11
2.86159e-11
-9.40023e-11
2.92276e-11
-9.64946e-11
2.98127e-11
-9.90427e-11
3.03533e-11
-1.01645e-10
3.08403e-11
-1.04296e-10
3.12585e-11
-1.06987e-10
3.15941e-11
-1.09709e-10
3.18356e-11
-1.12455e-10
3.19769e-11
-1.15209e-10
3.20059e-11
-1.17964e-10
3.19185e-11
-1.2071e-10
3.17041e-11
-1.23433e-10
3.13587e-11
-1.26123e-10
3.0884e-11
-1.28767e-10
3.02819e-11
-1.31354e-10