/*--------------------------------*- C++ -*----------------------------------*\
| =========                 |                                                 |
| \\      /  F ield         | OpenFOAM: The Open Source CFD Toolbox           |
|  \\    /   O peration     | Version:  2.4.0                                 |
|   \\  /    A nd           | Web:      www.OpenFOAM.org                      |
|    \\/     M anipulation  |                                                 |
\*---------------------------------------------------------------------------*/
FoamFile
{
    version     2.0;
    format      ascii;
    class       volScalarField;
    location    "0.074";
    object      p;
}
// * * * * * * * * * * * * * * * * * * * * * * * * * * * * * * * * * * * * * //

dimensions      [1 -1 -2 0 0 0 0];

internalField   nonuniform List<scalar> 
3600
(
100.941
102.194
103.906
105.229
106.001
105.986
105.081
103.333
100.894
97.9404
94.8485
91.7866
89.4693
86.2076
85.8859
83.164
84.0673
84.5623
85.0419
86.6055
81.0013
76.4334
78.5852
84.2354
86.3812
86.3066
85.9133
85.9561
86.7239
86.7983
97.6782
98.9332
100.648
101.974
102.748
102.736
101.831
100.083
97.635
94.6752
91.5728
88.5033
86.1767
82.9163
82.5236
79.7989
80.6213
81.149
81.3348
83.0833
76.2047
70.6953
72.6321
77.9165
80.2652
80.1451
79.2532
79.8569
80.9522
81.6059
94.4093
95.6692
97.3909
98.7219
99.5018
99.4949
98.5934
96.8455
94.3848
91.4103
88.287
85.2041
82.8586
79.6029
79.1161
76.3407
77.0858
77.4984
77.3711
78.0668
70.2287
64.2377
65.8975
71.8306
75.0748
76.0939
75.962
75.7882
76.1079
77.0419
91.1346
92.402
94.134
95.4736
96.2631
96.2649
95.3688
93.621
91.1444
88.1464
84.9913
81.889
79.5153
76.2686
75.6959
72.8725
73.4338
73.6391
73.1788
72.5602
64.4506
58.6291
60.838
67.4952
71.7329
73.1215
73.1993
73.3882
73.8019
74.2087
87.854
89.1316
90.8776
92.2289
93.0317
93.0457
92.1575
90.4102
87.9139
84.8837
81.6851
78.5577
76.1445
72.909
72.278
69.3672
69.9634
69.4832
68.9861
67.6759
60.4783
55.3482
58.3492
65.973
69.4274
70.6408
70.5465
71.0411
71.3716
71.6653
84.5676
85.8581
87.6217
88.9878
89.8074
89.8373
88.9595
87.2132
84.6935
81.6221
78.3676
75.2097
72.7436
69.5136
68.8125
65.7997
66.3596
65.4297
64.804
63.585
57.6746
55.1759
58.5536
65.1228
67.0609
67.8014
67.8946
68.7046
68.8215
69.2884
81.2753
82.5813
84.3662
85.7502
86.5904
86.6398
85.7752
84.0304
81.4834
78.3619
75.0383
71.8446
69.3113
66.0743
65.2619
62.1423
62.6502
61.4283
60.1594
59.5518
56.0911
54.8103
57.9483
63.3363
65.0661
65.1286
65.5975
66.2995
66.5338
66.9958
77.977
79.3014
81.1112
82.5161
83.3806
83.4531
82.6044
80.8624
78.2841
75.1031
71.6962
68.4615
65.8473
62.6057
61.6271
58.4721
58.5285
57.2607
55.5102
55.7137
54.0385
53.4391
56.3472
60.1426
61.9281
62.3814
63.507
64.6518
65.1648
65.1913
74.6727
76.0181
77.8566
79.2855
80.178
80.2772
79.4475
77.7095
75.0973
71.8443
68.3403
65.0593
62.3539
59.1403
57.946
54.8132
54.0127
52.8052
51.2872
51.8775
51.1762
51.2721
53.353
56.6872
58.3125
59.8083
62.4985
63.7348
64.307
63.7747
71.3621
72.7316
74.6023
76.0583
76.9826
77.1123
76.3045
74.5725
71.9222
68.5872
64.9695
61.6351
58.8355
55.6732
54.2006
51.1178
49.7593
48.8443
47.1095
47.4774
47.7222
47.9979
50.0369
53.3636
55.9679
58.4936
60.8449
62.1076
62.3448
61.9639
68.0453
69.4417
71.3484
72.8345
73.7943
73.9583
73.1757
71.4519
68.7594
65.332
61.5823
58.1861
55.2955
52.1737
50.3622
47.3814
45.7122
45.0597
42.694
42.8696
43.559
44.449
46.469
49.6575
53.2183
56.3932
58.2672
59.0055
58.6842
58.8628
64.7222
66.1485
68.0948
69.614
70.6132
70.8152
70.0611
68.3486
65.6096
62.0789
58.1767
54.7108
51.7357
48.6312
46.5116
43.5595
41.4552
40.6271
37.9349
38.1157
39.0665
40.569
43.1263
46.1593
49.2131
52.2913
54.5827
56.3442
56.8579
57.0072
61.3924
62.8518
64.8414
66.3968
67.4392
67.683
66.9611
65.2633
62.4735
58.8282
54.7503
51.2078
48.154
45.0557
42.6631
39.6669
36.8485
35.433
32.8402
32.833
34.2733
36.379
39.5204
42.809
45.9107
48.8643
50.9644
52.7061
53.5165
53.8462
58.056
59.5516
61.5882
63.1827
64.2723
64.5617
63.8757
62.197
59.3521
55.5802
51.3006
47.6749
44.5537
41.4423
38.8598
35.7002
31.6593
29.6318
27.2955
27.1818
28.9622
31.6593
35.0399
38.8279
41.4975
43.4464
46.0174
49.1671
50.8256
51.3979
54.7127
56.2478
58.3352
59.9718
61.1125
61.4514
60.8052
59.1509
56.2464
52.3349
47.8249
44.1103
40.9327
37.8216
35.0546
31.6142
26.4495
23.4926
21.7289
21.2435
22.9708
27.202
32.4105
36.297
37.8908
39.2622
42.5497
46.5532
49.122
50.0574
51.3624
52.9405
55.0823
56.7637
57.9598
58.352
57.7497
56.1261
53.1575
49.0922
44.3207
40.5108
37.2955
34.1948
31.2587
27.368
21.9997
18.4158
15.7025
14.518
16.4769
20.1632
24.554
29.7024
33.7835
37.544
41.0855
44.0154
46.2423
47.0351
48.0049
49.6295
51.8293
53.5585
54.8141
55.2634
54.7093
53.1239
50.0869
45.8516
40.785
36.8752
33.6488
30.5417
27.4386
23.3547
17.4756
13.1731
8.62781
5.7275
7.2178
13.5161
19.4823
23.4515
28.517
33.7075
36.8215
38.9803
41.0355
41.8883
44.6399
46.3147
48.5764
50.3559
51.6754
52.1855
51.6841
50.146
47.0362
42.613
37.2143
33.2035
29.9979
26.8887
23.6968
19.425
12.8097
6.04645
-0.327543
-5.02615
-3.86571
2.73701
13.2962
21.8522
27.2051
31.2933
33.8377
36.1098
36.8961
37.4102
41.2672
42.9962
45.3235
47.1557
48.5438
49.1183
48.6742
47.1938
44.0074
39.3766
33.6048
29.496
26.3285
23.2647
20.0814
15.2736
8.27292
-2.02078
-10.067
-17.2103
-5.25849
1.86787
0.575303
10.5772
21.1618
28.0872
31.5555
33.7798
34.3139
34.2463
37.8865
39.6739
42.0706
43.9578
45.4192
46.0616
45.6795
44.2693
41.003
36.1437
29.9523
25.7504
22.6354
19.6598
16.3672
11.8964
3.1481
-9.34005
-14.0847
-4.40025
-9.4806
-3.15654
-0.953327
0.798497
11.7185
21.4287
27.0315
29.7583
31.2654
31.0365
34.4977
36.3476
38.8175
40.7619
42.3016
43.0153
42.6998
41.3745
38.0259
32.917
26.2526
21.9556
18.9271
16.0588
12.8323
8.7358
-0.581248
-3.18216
-7.09131
-10.9543
-12.3959
-2.39225
-2.67845
-0.0892788
4.24654
15.002
21.9709
25.0511
26.9168
27.2236
31.1004
33.0174
35.5642
37.5678
39.191
39.979
39.735
38.5115
35.0797
29.7062
22.4936
18.0919
15.1822
12.4599
9.36545
4.65614
-0.558733
0.601464
0.632532
-2.35134
-12.699
-0.876876
-1.73562
2.34353
1.69572
11.2817
18.005
20.9956
22.6454
22.9243
27.6943
29.6832
32.3108
34.3753
36.0873
36.9529
36.7846
35.6826
32.1679
26.4683
18.7175
14.1511
11.392
8.91648
5.31568
1.47005
0.144007
0.506329
0.59756
-0.123611
-11.8914
-8.79082
-1.56572
-4.09875
1.98679
8.46599
14.7314
17.8015
19.4024
19.9035
24.2791
26.345
29.0569
31.1843
32.9905
33.9363
33.8481
32.8909
29.2951
23.2048
14.9238
10.1369
7.60933
5.30944
1.72958
0.135574
0.166442
0.4591
0.518408
0.279313
-0.314062
-16.3147
-2.68558
-4.05769
-0.35211
6.36015
12.23
15.3262
17.2928
17.738
20.8544
23.0026
25.8027
27.9945
29.9007
30.9294
30.9247
30.1382
26.4665
19.9164
11.1049
6.00332
3.79053
2.07782
0.176539
0.157331
0.152736
0.325082
0.435765
0.375331
-0.549697
-7.23253
-1.32344
-2.66812
-0.688134
5.38105
11.0429
14.1974
16.5463
16.7152
17.4199
19.6562
22.548
24.8057
26.8178
27.9299
28.0132
27.4289
23.6915
16.5923
7.26729
1.61897
0.127672
0.218743
0.142426
0.10888
0.146321
0.266627
0.359069
0.305233
0.32969
0.0387724
-1.8883
0.88
1.96015
6.87891
11.3206
14.6065
16.5988
16.8754
13.975
16.3048
19.2927
21.6177
23.7418
24.9402
25.1125
24.7657
20.9693
13.24
3.47274
-2.99375
-0.379144
0.0924145
0.119478
0.0965839
0.108586
0.20292
0.26753
0.304734
0.272472
-1.86245
0.838147
6.4006
6.88887
10.8429
13.2651
15.6633
16.6593
17.2022
10.5206
12.9545
16.0366
18.4303
20.6729
21.9572
22.2198
22.1501
18.3199
9.8541
-1.34036
-2.97507
0.0614947
0.0808451
0.102939
0.07955
0.102171
0.155955
0.182946
0.236708
0.096102
-0.403946
-1.39205
14.591
12.1418
14.2463
15.79
16.6749
17.0402
17.543
7.0509
9.57087
12.78
15.2428
17.6105
18.9815
19.333
19.5923
15.7871
6.11698
-6.86109
-0.47992
0.0469598
0.0647862
0.0838826
0.0668162
0.075418
0.103663
0.0911723
0.132176
0.0152998
-0.536672
-1.70611
15.9727
14.762
15.399
17.1129
17.168
17.4586
17.7409
3.57209
6.27273
9.5208
12.0557
14.5569
16.0164
16.4494
17.0949
13.1946
-1.22753
-3.08882
-0.215406
0.024879
0.0504713
0.0654473
0.0480794
0.0379637
0.0428061
0.00721381
0.0136007
-0.128663
-0.416052
-2.59699
1.46665
14.7937
14.4517
16.7846
17.1424
17.6167
17.6715
86.7985
86.6115
85.7625
85.7016
86.0417
86.1754
84.0747
78.361
76.1833
80.6842
86.2263
84.6911
84.2091
83.7295
82.8954
85.6259
86.0461
89.317
91.6933
94.7783
97.897
100.864
103.316
105.063
105.966
105.979
105.211
103.895
102.194
100.942
81.5604
80.9308
79.7923
79.0401
79.9131
80.087
77.774
72.4001
70.429
75.8847
82.7371
80.9806
80.7953
80.2812
79.5313
82.2633
82.7559
86.0246
88.4106
91.5029
94.6321
97.6056
100.067
101.813
102.715
102.726
101.955
100.637
98.9332
97.6793
76.9438
75.9425
75.6447
75.7465
75.868
74.8978
71.6945
65.674
63.9963
69.911
77.6843
77.0171
77.1372
76.7434
76.0748
78.8557
79.4448
82.707
85.1127
88.2177
91.3679
94.3564
96.8288
98.5757
99.4747
99.4802
98.7035
97.38
95.6692
94.4104
74.1951
73.75
73.2626
72.9729
72.9038
71.583
67.385
60.6155
58.3798
64.1478
72.149
72.8123
73.2711
73.0821
72.6093
75.4347
76.1136
79.3643
81.7994
84.9228
88.1051
91.117
93.6045
95.3512
96.2447
96.2415
95.4551
94.1231
92.4021
91.1357
71.664
71.3266
70.898
70.3387
70.4203
69.4041
65.8773
58.1425
55.1018
60.1724
67.2404
68.6162
69.0997
69.6085
69.1057
72.0149
72.7578
75.9943
78.4705
81.6176
84.8436
87.8877
90.3938
92.1401
93.0255
93.0099
92.2102
90.8667
89.1319
87.8553
69.2881
68.8782
68.5138
67.7426
67.6149
66.8921
65.03
58.3687
54.9076
57.3792
63.1121
64.4152
65.0394
65.9897
65.5392
68.5449
69.3668
72.5945
75.1255
78.3015
81.5836
84.6687
87.1972
88.9424
89.8171
89.7855
88.9689
87.6107
85.8585
84.569
66.9984
66.5332
66.2076
65.4346
64.8672
64.7697
63.197
57.7179
54.5034
55.7554
59.0441
59.7445
61.0276
62.2656
61.8843
64.9888
65.9326
69.1639
71.7637
74.9739
78.3252
81.4602
84.015
85.7582
86.6194
86.5683
85.7311
84.3553
82.5819
81.2768
65.1525
65.074
64.4856
63.302
62.1101
61.552
59.8668
56.0458
53.0884
53.6524
55.1855
55.0855
56.8545
58.1295
58.2178
61.3495
62.4704
65.7026
68.3844
71.6338
75.0685
78.2627
80.8477
82.5878
83.4327
83.3582
82.4968
81.1002
79.3021
77.9786
63.7276
64.1588
63.5025
62.1763
59.5758
58.0342
56.3755
52.9846
50.8558
50.7277
51.3088
50.8357
52.3952
53.6026
54.5642
57.6681
59.0133
62.2132
64.986
68.2803
71.813
75.0771
77.6957
79.4312
80.2568
80.1553
79.2659
77.8456
76.0191
74.6744
61.9626
62.3337
61.9824
60.6762
58.2393
55.643
53.0126
49.6154
47.5333
47.1871
46.8693
46.624
48.4272
49.3408
50.8723
53.9257
55.5561
58.7005
61.5658
64.9123
68.5594
71.9034
74.5596
76.2886
77.0917
76.9596
76.0384
74.5913
72.7329
71.364
58.8405
58.6423
58.8702
58.0883
56.1627
52.9186
49.2762
45.9797
43.927
42.963
42.1927
42.174
44.6227
45.2521
47.1442
50.0919
52.0664
55.1679
58.1208
61.5281
65.3079
68.7422
71.4401
73.1602
73.9376
73.771
72.8142
71.3374
69.4433
68.0474
57.0338
56.8765
56.2859
54.4148
52.0281
48.8325
45.7184
42.6284
39.9794
38.4096
37.3797
37.3593
40.1318
40.9554
43.3273
46.2541
48.5318
51.6172
54.6495
58.126
62.0588
65.5942
68.3378
70.0461
70.7944
70.5894
69.5933
68.0837
66.1504
64.7245
53.8476
53.4907
52.6212
50.8096
48.5674
45.555
42.382
39.016
35.7562
33.526
31.9951
32.1759
34.8552
36.3296
39.4433
42.4287
44.9617
48.0463
51.1512
54.7035
58.8123
62.4601
65.2538
66.9465
67.6621
67.415
66.3756
64.8303
62.854
61.395
51.345
50.7795
49.137
46.0048
43.0373
41.0484
38.2872
34.5004
31.007
28.1021
26.188
26.5366
29.0301
31.18
35.4738
38.6472
41.3519
44.4588
47.6238
51.2582
55.5686
59.3408
62.1889
63.8617
64.5407
64.2476
63.1611
61.5771
59.5542
58.0588
49.9679
48.9607
46.3955
42.3955
38.9706
37.4201
35.6779
31.8637
26.5804
21.989
20.0338
20.9321
22.8036
26.0365
31.3691
34.8699
37.7366
40.8523
44.065
47.7873
52.3279
56.2373
59.1441
60.7917
61.4301
61.0872
59.9495
58.3241
56.2509
54.7158
46.9502
45.9737
43.744
40.9295
37.4225
33.4726
29.2839
24.2555
19.4502
15.2625
13.0687
14.827
17.8157
21.5585
27.1165
31.1161
34.1212
37.2293
40.4718
44.2882
49.0899
53.1508
56.1208
57.7368
58.3305
57.9338
56.7408
55.0711
52.944
51.3658
41.8469
40.8506
38.6939
36.6376
33.5553
28.2926
23.1029
19.0151
12.8701
5.90854
3.7359
7.59561
11.9899
16.9669
23.1586
27.3438
30.482
33.5956
36.8432
40.7576
45.8543
50.0827
53.1202
54.697
55.2416
54.7874
53.5349
51.8182
49.6335
48.0086
37.3606
36.6769
35.8712
33.5476
31.0313
27.0023
21.6785
12.9433
1.96608
-5.42064
-7.8308
-1.57296
4.69862
12.4015
19.3242
23.6345
26.8421
29.9549
33.1794
37.1918
42.621
47.0346
50.1438
51.6724
52.1635
51.6479
50.3315
48.5653
46.3192
44.644
34.2264
33.7953
33.4596
31.0535
27.7091
21.0802
10.5479
0.135159
0.0294437
-6.21045
-20.9655
-11.2995
-3.61375
7.98613
15.2779
20.0339
23.2319
26.2934
29.4809
33.5867
39.3904
44.0085
47.1933
48.6631
49.096
48.5154
47.1306
45.3124
43.0013
41.2717
31.0909
30.8629
29.3791
26.62
21.0478
11.709
1.13303
-1.56981
-3.87723
-9.00562
-9.45831
-14.91
-10.6013
3.13932
12.0368
16.3396
19.6462
22.6075
25.7461
29.9383
36.1634
41.0068
44.2705
45.669
46.039
45.3898
43.9317
42.0595
39.6795
37.8916
27.1337
26.7972
24.8901
21.6769
14.7097
4.15642
0.670568
-2.26022
-2.81392
-10.0691
-16.6796
-7.71504
-3.37419
-0.384881
9.01108
12.8153
16.0689
18.9045
21.9639
26.2423
32.9433
38.0325
41.3773
42.69
42.9924
42.2711
40.7349
38.8065
36.3539
34.5032
22.8483
22.5498
20.8781
17.7974
10.9752
1.46887
2.91729
-1.80709
-0.589576
-11.8211
-1.97892
0.0753203
-0.133452
-0.185774
5.05609
9.32458
12.5005
15.1593
18.1153
22.4854
29.7406
35.0891
38.5159
39.7258
39.9558
39.1592
37.5398
35.5533
33.0243
31.1064
19.8529
19.348
17.7081
14.6266
8.17072
1.58611
-4.16474
-0.955125
-7.34177
-14.6109
-2.54613
0.255154
0.425412
0.211269
1.39916
5.22442
8.99836
11.3596
14.1938
18.7118
26.5106
32.1798
35.6887
36.776
36.9292
36.0541
34.3462
32.2999
29.6908
27.7009
17.6855
17.2779
15.3746
12.193
5.9452
-0.300011
-4.03359
-3.01183
-10.0203
-3.43898
0.0254457
0.203495
0.334748
0.144111
0.119747
1.72643
5.43603
7.55706
10.2041
14.9206
23.2545
29.3094
32.8986
33.8402
33.912
32.9558
31.154
29.0462
26.3532
24.2863
16.9745
16.5073
14.2707
10.9303
4.94571
-1.67569
-3.62248
-3.51449
-9.64671
-0.287423
0.0540561
0.152845
0.19036
0.0890553
0.121868
0.13358
2.12144
3.70724
6.10096
11.1045
19.9728
26.4828
30.1476
30.9174
30.9044
29.8643
27.9629
25.7922
23.0116
20.8623
16.8984
16.5449
14.446
11.0408
6.38354
0.782464
-0.513157
-2.61013
-1.77329
-0.0678927
0.138305
0.130879
0.104286
0.0973619
0.0593975
0.0892967
0.0828886
-0.0639134
1.75835
7.27027
16.6543
23.7092
27.4398
28.0065
27.9046
26.7795
24.7727
22.5376
19.666
17.4285
17.2497
16.4876
15.5135
13.098
10.5894
6.22924
4.94127
-1.48249
-3.44666
-0.294239
0.113061
0.0834767
0.0194214
0.025846
0.0378494
0.0645498
0.00277698
-0.473192
-2.75032
3.48279
13.3065
20.9877
24.7784
25.1063
24.9143
23.7016
21.5832
19.2826
16.3153
13.9844
17.5952
17.0189
16.6478
15.8531
14.1794
11.5358
12.6249
-5.6767
-2.0684
-0.14407
-0.0110599
0.0188059
-0.0139721
0.0247222
0.0207436
0.0469286
0.00262008
-0.00690218
-2.68692
-1.29352
9.92619
18.3382
22.1647
22.2141
21.9309
20.6304
18.3943
16.0267
12.9658
10.5309
17.8064
17.5693
17.2014
17.2912
15.3838
14.5261
14.0245
-0.890505
-1.24863
-0.0699551
-0.0987181
-0.044624
-0.0359306
-0.00570657
0.0102202
0.0300847
-0.00388395
-0.0135008
-0.448998
-6.8693
6.19158
15.8044
19.6089
19.3277
18.9547
17.5655
15.2051
12.7705
9.58274
7.06207
17.7652
17.9495
17.4844
16.9473
14.5043
14.4719
0.674495
-2.6128
-0.173921
-0.153972
-0.136548
-0.0994693
-0.0607771
-0.0320417
-0.00483108
0.0149097
-0.0121555
-0.0299699
-0.203109
-3.17351
-1.1792
13.2079
17.1138
16.4446
15.9891
14.5093
12.0161
9.51165
6.28588
3.58425
0.984182
3.65256
7.08065
9.65816
12.264
13.789
14.2784
15.2423
10.9344
-6.51971
-0.271811
-0.175635
0.0158873
0.0405779
0.051629
0.0345019
0.01486
0.00214357
-0.0411761
-0.0482948
-0.200922
-0.514291
-0.985948
-0.534097
7.61585
12.7324
16.2749
17.7366
17.3689
17.3876
0.0930714
2.25126
5.35679
7.98265
10.6628
12.236
12.7611
13.9667
9.25092
-6.14707
0.126766
-0.149027
0.00920835
0.033814
0.0423479
0.0233279
-0.00278617
-0.0255764
-0.0692163
-0.0823673
-0.236601
-0.387002
-0.397806
-0.370863
0.299546
9.36059
17.2865
18.4969
16.9947
17.1643
-0.160995
1.43046
3.70506
6.18614
8.92521
10.5448
11.1005
12.5577
9.51482
-1.8297
0.119751
-0.137875
0.00131308
0.0264757
0.0315653
0.0110642
-0.0239008
-0.0550755
-0.0957867
-0.114761
-0.242869
-0.295934
-0.367216
-0.268614
-0.265683
0.957057
7.36901
11.8606
14.8855
16.2415
-0.139096
0.653416
2.14678
4.33687
7.07733
8.71838
9.24867
10.5769
1.19454
1.22472
0.122595
-0.130472
-0.00921542
0.018094
0.0197701
-0.00214048
-0.042079
-0.0838719
-0.12322
-0.146388
-0.225781
-0.237257
-0.268969
-0.223749
-0.243632
-0.223197
-0.0844198
0.15407
1.01794
1.88149
-0.101165
0.0528896
0.813115
2.5494
5.07603
6.63552
7.144
8.71825
-1.86253
-0.316066
0.103387
-0.118951
-0.0178155
0.00776109
0.00720158
-0.0149223
-0.0608892
-0.112749
-0.150139
-0.173462
-0.202138
-0.211691
-0.220033
-0.202847
-0.216391
-0.176188
-0.151674
-0.120309
-0.111993
-0.106677
-0.102495
-0.0947517
0.0777177
1.08419
2.95204
4.22003
4.65611
3.58164
-1.26524
-0.274154
0.0991836
-0.110714
-0.025535
0.00141376
-0.00585271
-0.0280483
-0.0798497
-0.140193
-0.171601
-0.191407
-0.188647
-0.203047
-0.202698
-0.185829
-0.182764
-0.157784
-0.142252
-0.11901
-0.10569
-0.097793
-0.105458
-0.0998325
-0.124005
0.145787
0.938745
1.5239
1.46084
0.177004
0.0951487
-0.217157
0.0586487
-0.105998
-0.033725
-0.0151312
-0.0181418
-0.0413922
-0.0982133
-0.16391
-0.189983
-0.203731
-0.188953
-0.204745
-0.20226
-0.177121
-0.160976
-0.142274
-0.130478
-0.115321
-0.104192
-0.0972857
-0.108704
-0.102627
-0.148146
-0.160997
-0.0651027
-0.0229057
-0.0905218
-0.20819
-0.324787
-0.215765
0.0316911
-0.10129
-0.0429907
-0.0268595
-0.0307055
-0.0546013
-0.114899
-0.182762
-0.206004
-0.211795
-0.202108
-0.212044
-0.207879
-0.174849
-0.147935
-0.128155
-0.117212
-0.105838
-0.0969243
-0.0912566
-0.11216
-0.105407
-0.150999
-0.172212
-0.136981
-0.15495
-0.178545
-0.207334
-0.29628
-0.21282
0.00782618
-0.0991199
-0.0527208
-0.0388409
-0.0433848
-0.0674164
-0.129214
-0.196781
-0.220186
-0.223257
-0.217748
-0.225862
-0.223761
-0.178736
-0.134711
-0.116415
-0.103547
-0.0936898
-0.0864257
-0.0819413
-0.115943
-0.110091
-0.155644
-0.176336
-0.140679
-0.157799
-0.181892
-0.213663
-0.2729
-0.211781
-0.0185899
-0.0976596
-0.0626715
-0.0508877
-0.0557359
-0.0795622
-0.140756
-0.206317
-0.230716
-0.234248
-0.231157
-0.243656
-0.242291
-0.18789
-0.133256
-0.109134
-0.0930957
-0.0831279
-0.0768134
-0.0733497
-0.120028
-0.113478
-0.159876
-0.180669
-0.145251
-0.161127
-0.184871
-0.215204
-0.253982
-0.209678
-0.0421862
-0.0976556
-0.0725551
-0.0627264
-0.0677491
-0.0909914
-0.148311
-0.208365
-0.23689
-0.240874
-0.237214
-0.258888
-0.253287
-0.199405
-0.144936
-0.110444
-0.0900859
-0.0788047
-0.0725644
-0.0696583
-0.124468
-0.118507
-0.164783
-0.18512
-0.150454
-0.16473
-0.187423
-0.215841
-0.237492
-0.206585
-0.0648824
-0.0993672
-0.0823183
-0.0715727
-0.0779213
-0.102908
-0.153561
-0.201985
-0.23528
-0.243894
-0.239457
-0.267635
-0.257205
-0.211156
-0.157162
-0.11874
-0.0959692
-0.0834723
-0.0768165
-0.0740675
-0.129254
-0.123287
-0.169828
-0.189427
-0.156129
-0.168567
-0.189584
-0.215014
-0.224393
-0.203147
-0.0855216
-0.102688
-0.0917069
-0.0839703
-0.0894262
-0.113509
-0.159656
-0.185373
-0.222455
-0.237041
-0.23834
-0.268944
-0.261228
-0.218744
-0.16902
-0.131668
-0.109153
-0.096358
-0.089535
-0.0867996
-0.134391
-0.128653
-0.17452
-0.193239
-0.161971
-0.172534
-0.191569
-0.21334
-0.214542
-0.199375
-0.103695
-0.108052
-0.100766
-0.0969761
-0.101593
-0.122849
-0.159472
-0.202382
-0.201572
-0.225012
-0.233091
-0.254862
-0.249265
-0.211565
-0.173846
-0.143774
-0.124629
-0.113242
-0.107027
-0.104514
-0.139884
-0.134621
-0.178553
-0.196343
-0.167758
-0.176621
-0.19361
-0.211259
-0.207649
-0.195652
-0.119659
-0.115201
-0.109845
-0.107209
-0.113308
-0.131131
-0.158419
-0.188065
-0.198614
-0.202267
-0.218676
-0.230703
-0.221521
-0.19712
-0.17056
-0.150672
-0.13713
-0.128624
-0.123783
-0.121815
-0.145733
-0.141164
-0.181772
-0.198715
-0.173459
-0.180824
-0.195854
-0.209274
-0.20333
-0.192439
-0.133651
-0.123571
-0.118883
-0.117054
-0.12306
-0.138144
-0.157393
-0.177344
-0.195606
-0.181062
-0.193951
-0.20676
-0.197215
-0.181229
-0.165113
-0.153404
-0.144776
-0.139201
-0.135873
-0.134655
-0.151945
-0.148253
-0.184446
-0.200612
-0.179128
-0.185241
-0.198355
-0.207847
-0.201062
-0.19013
-0.145763
-0.132663
-0.127964
-0.126585
-0.132028
-0.145037
-0.153617
-0.171989
-0.184202
-0.190054
-0.173892
-0.1936
-0.185139
-0.172958
-0.162523
-0.154036
-0.148509
-0.144601
-0.142446
-0.141793
-0.158542
-0.155788
-0.187144
-0.202524
-0.18484
-0.189927
-0.201139
-0.20731
-0.200451
-0.189138
-0.156217
-0.142084
-0.137028
-0.135673
-0.139717
-0.148742
-0.157225
-0.166916
-0.176416
-0.182913
-0.172923
-0.173775
-0.176994
-0.168274
-0.16008
-0.153129
-0.148731
-0.145094
-0.143291
-0.142833
-0.165556
-0.163723
-0.190319
-0.204832
-0.190684
-0.194925
-0.204282
-0.207798
-0.201377
-0.189592
-0.165273
-0.15164
-0.146141
-0.144429
-0.146891
-0.152753
-0.15971
-0.162128
-0.169843
-0.172188
-0.174045
-0.154298
-0.167709
-0.162374
-0.155389
-0.149436
-0.144375
-0.140728
-0.138584
-0.137823
-0.173025
-0.172047
-0.19422
-0.207761
-0.196743
-0.200272
-0.207867
-0.209332
-0.203297
-0.191879
-0.173539
-0.161131
-0.155322
-0.153027
-0.153895
-0.156958
-0.160787
-0.163545
-0.164547
-0.16574
-0.165611
-0.1627
-0.156279
-0.15218
-0.145711
-0.1403
-0.133591
-0.130486
-0.128851
-0.127713
-0.181006
-0.180782
-0.198986
-0.211449
-0.203103
-0.206012
-0.211984
-0.211936
-0.206292
-0.195675
-0.181504
-0.170644
-0.164738
-0.161745
-0.161024
-0.161773
-0.162896
-0.163426
-0.162947
-0.161475
-0.159128
-0.154579
-0.148722
-0.142348
-0.136458
-0.13111
-0.126254
-0.123138
-0.121485
-0.120909
-0.189549
-0.189967
-0.204685
-0.215969
-0.209851
-0.212207
-0.216734
-0.215646
-0.210391
-0.200885
-0.18963
-0.180301
-0.174417
-0.170804
-0.168831
-0.167762
-0.166746
-0.165349
-0.163404
-0.160751
-0.157253
-0.152351
-0.14668
-0.140976
-0.135928
-0.131807
-0.128419
-0.12566
-0.124879
-0.124433
-0.198714
-0.199648
-0.211352
-0.221373
-0.217072
-0.218933
-0.222221
-0.220492
-0.215652
-0.207366
-0.19819
-0.190238
-0.184603
-0.180651
-0.177768
-0.175378
-0.173038
-0.170492
-0.167667
-0.164508
-0.160861
-0.15659
-0.152063
-0.147777
-0.144091
-0.141212
-0.139137
-0.137766
-0.136909
-0.136511
-0.208564
-0.209872
-0.21901
-0.227709
-0.224851
-0.226279
-0.228548
-0.226499
-0.222108
-0.215057
-0.207484
-0.200719
-0.195409
-0.191275
-0.187908
-0.1849
-0.181946
-0.178936
-0.175853
-0.172693
-0.169439
-0.166082
-0.16281
-0.159867
-0.157412
-0.155522
-0.154178
-0.153308
-0.152825
-0.152661
-0.219167
-0.220685
-0.227686
-0.235024
-0.233276
-0.234341
-0.235812
-0.233696
-0.229807
-0.223925
-0.217666
-0.211919
-0.207107
-0.203099
-0.199631
-0.196446
-0.193396
-0.190445
-0.187557
-0.184771
-0.182112
-0.179613
-0.177352
-0.17542
-0.173865
-0.172696
-0.171884
-0.171377
-0.17112
-0.171059
-0.230594
-0.232148
-0.237402
-0.243364
-0.242439
-0.243214
-0.244102
-0.242115
-0.238793
-0.233996
-0.228905
-0.224112
-0.219896
-0.216225
-0.212962
-0.209981
-0.207208
-0.204602
-0.202172
-0.199939
-0.197924
-0.196148
-0.194633
-0.193398
-0.19244
-0.191741
-0.191271
-0.190992
-0.190868
-0.190863
-0.242905
-0.244374
-0.248166
-0.252774
-0.252431
-0.252995
-0.253498
-0.251798
-0.249101
-0.245329
-0.241301
-0.237425
-0.233911
-0.230777
-0.227974
-0.225442
-0.223142
-0.221056
-0.219187
-0.21754
-0.216118
-0.214922
-0.213947
-0.213181
-0.212607
-0.212202
-0.211941
-0.211795
-0.211742
-0.21176
-0.256211
-0.257433
-0.259992
-0.263297
-0.263344
-0.26377
-0.264065
-0.26279
-0.26075
-0.257983
-0.25499
-0.252059
-0.24935
-0.246909
-0.244732
-0.242805
-0.241087
-0.239585
-0.238285
-0.237182
-0.236263
-0.235519
-0.234932
-0.234486
-0.234162
-0.23394
-0.233804
-0.233734
-0.233717
-0.23374
-0.270608
-0.271434
-0.272919
-0.274963
-0.275261
-0.275612
-0.275844
-0.275084
-0.273792
-0.272022
-0.270067
-0.26812
-0.266302
-0.264666
-0.263227
-0.261991
-0.260941
-0.260046
-0.259296
-0.258678
-0.25818
-0.257787
-0.257486
-0.257262
-0.257104
-0.256998
-0.256936
-0.256908
-0.256905
-0.256923
-0.286196
-0.286501
-0.286973
-0.287783
-0.288249
-0.288568
-0.288851
-0.288685
-0.288222
-0.287492
-0.286628
-0.285734
-0.284894
-0.284157
-0.283537
-0.283083
-0.282754
-0.282479
-0.282255
-0.282078
-0.28194
-0.281836
-0.281759
-0.281705
-0.281668
-0.281646
-0.281634
-0.281631
-0.281634
-0.281641
17.5788
17.8874
18.3389
16.66
12.4169
6.04695
-0.386046
-0.874679
-0.396099
-0.238829
-0.146506
-0.130605
-0.0832124
-0.0502721
-0.0162145
0.00366422
-0.0179227
-0.0357254
-0.170378
-0.28252
-6.52311
10.929
15.2627
14.2736
13.7613
12.2141
9.61707
7.07188
3.66593
0.997074
17.4263
17.6697
19.3384
17.794
8.30992
0.0157429
-0.056575
-0.207584
-0.304258
-0.287443
-0.162183
-0.148361
-0.100536
-0.0643796
-0.0225326
-0.00460752
-0.0219653
-0.0398416
-0.147671
0.124201
-6.19566
9.26212
13.9886
12.7564
12.208
10.6113
7.94048
5.3483
2.26593
0.104468
16.6837
15.8377
12.629
7.04233
0.654453
-0.246376
-0.0460782
-0.223847
-0.212746
-0.295008
-0.193851
-0.165249
-0.119241
-0.0784903
-0.0330174
-0.013266
-0.0266698
-0.0453024
-0.139389
0.115456
-1.72708
9.48182
12.5828
11.0971
10.5166
8.87234
6.14439
3.69868
1.44374
-0.152978
2.00155
1.06736
0.218704
-0.067591
-0.157328
-0.178015
-0.0691027
-0.14115
-0.16946
-0.267927
-0.219143
-0.182159
-0.124805
-0.091305
-0.0450223
-0.0217764
-0.0327302
-0.0536759
-0.134468
0.116346
1.25135
1.22231
10.602
9.24564
8.68768
7.02198
4.29598
2.1413
0.668073
-0.138491
-0.10328
-0.100185
-0.0974698
-0.112539
-0.125134
-0.140143
-0.0861003
-0.115841
-0.163403
-0.237533
-0.230475
-0.169605
-0.144776
-0.103944
-0.0562917
-0.0321178
-0.0398162
-0.0604349
-0.124579
0.0955835
-0.327963
-1.88606
8.74389
7.14271
6.60585
5.0189
2.50555
0.803647
0.0546924
-0.102275
-0.0942822
-0.0943917
-0.0972666
-0.107169
-0.11164
-0.116742
-0.0985173
-0.129506
-0.173396
-0.222823
-0.246276
-0.206464
-0.167491
-0.117467
-0.068162
-0.0443182
-0.0477519
-0.0662242
-0.118143
0.0902965
-0.287589
-1.28664
3.56819
4.66251
4.19596
2.89868
1.04507
0.0681572
-0.0951619
-0.1036
-0.0939374
-0.093546
-0.0957024
-0.100632
-0.102506
-0.108319
-0.115222
-0.149715
-0.190502
-0.228312
-0.247005
-0.212594
-0.184231
-0.133512
-0.085443
-0.049666
-0.0563504
-0.0723975
-0.115332
0.0485988
-0.230183
0.116596
0.190653
1.46824
1.50934
0.908911
0.127805
-0.1293
-0.100454
-0.106545
-0.08836
-0.0877572
-0.0892884
-0.0926038
-0.0958801
-0.107627
-0.131661
-0.175577
-0.21453
-0.243466
-0.255608
-0.222977
-0.200341
-0.146812
-0.0917823
-0.0791515
-0.0606789
-0.0793797
-0.112132
0.0208568
-0.227639
-0.325692
-0.214616
-0.0929992
-0.0281402
-0.069416
-0.163617
-0.151812
-0.103227
-0.109762
-0.0797894
-0.0795993
-0.0813466
-0.0851905
-0.0921628
-0.111816
-0.153115
-0.206743
-0.240782
-0.261798
-0.270089
-0.237229
-0.218481
-0.155658
-0.103091
-0.0882974
-0.0788655
-0.0866179
-0.111492
-0.00376513
-0.224403
-0.297993
-0.213168
-0.182865
-0.1587
-0.136952
-0.173867
-0.15466
-0.105941
-0.113182
-0.0721542
-0.0729746
-0.075971
-0.0819679
-0.0940986
-0.121527
-0.172052
-0.232616
-0.262875
-0.276935
-0.283166
-0.248379
-0.223954
-0.164319
-0.117342
-0.0984728
-0.0883936
-0.0943049
-0.111435
-0.0306518
-0.223043
-0.275364
-0.219473
-0.186237
-0.161553
-0.140672
-0.17803
-0.159127
-0.110677
-0.116935
-0.0693219
-0.0715029
-0.0766682
-0.0860183
-0.103537
-0.136839
-0.190055
-0.249423
-0.277397
-0.282309
-0.290442
-0.254807
-0.226726
-0.177775
-0.129589
-0.108504
-0.0980528
-0.101937
-0.112542
-0.0546899
-0.220713
-0.257246
-0.220922
-0.18923
-0.164876
-0.145268
-0.182491
-0.163419
-0.113864
-0.120985
-0.0742119
-0.0773792
-0.084441
-0.0968163
-0.117999
-0.153773
-0.205147
-0.257958
-0.28362
-0.28007
-0.2917
-0.258537
-0.223421
-0.182177
-0.138871
-0.116707
-0.107624
-0.109608
-0.115064
-0.0775978
-0.217409
-0.241502
-0.221455
-0.191787
-0.168461
-0.150524
-0.187097
-0.168351
-0.119046
-0.1254
-0.0870116
-0.090332
-0.0980433
-0.11153
-0.133374
-0.167488
-0.214318
-0.260242
-0.283206
-0.273873
-0.279691
-0.244896
-0.220586
-0.183428
-0.14632
-0.119717
-0.116627
-0.117185
-0.118907
-0.0982975
-0.213774
-0.229082
-0.220527
-0.193942
-0.172236
-0.156277
-0.191597
-0.173391
-0.123794
-0.130167
-0.104767
-0.107891
-0.115171
-0.127231
-0.146493
-0.174943
-0.214436
-0.248804
-0.270721
-0.262825
-0.259824
-0.234143
-0.218574
-0.184068
-0.153899
-0.136511
-0.125094
-0.124714
-0.124494
-0.116445
-0.209825
-0.219836
-0.218744
-0.195906
-0.176101
-0.162225
-0.195565
-0.178017
-0.129125
-0.135292
-0.122192
-0.12503
-0.128832
-0.137063
-0.155012
-0.177102
-0.203462
-0.232014
-0.25004
-0.241306
-0.238083
-0.233742
-0.211798
-0.183488
-0.159629
-0.142787
-0.133092
-0.132205
-0.131546
-0.132307
-0.20593
-0.213446
-0.216557
-0.197914
-0.180073
-0.168151
-0.198767
-0.181913
-0.135055
-0.140776
-0.135122
-0.137287
-0.13951
-0.146578
-0.157947
-0.172861
-0.191925
-0.208332
-0.227501
-0.215519
-0.217175
-0.221107
-0.204421
-0.182317
-0.163303
-0.149072
-0.140758
-0.139613
-0.139531
-0.146118
-0.202537
-0.209493
-0.21448
-0.200112
-0.184189
-0.174004
-0.201169
-0.184938
-0.141566
-0.146615
-0.142419
-0.144658
-0.147941
-0.152684
-0.160456
-0.172946
-0.187836
-0.198786
-0.211913
-0.202642
-0.209646
-0.210184
-0.197842
-0.180129
-0.167621
-0.154924
-0.148056
-0.147076
-0.148034
-0.157969
-0.20004
-0.207411
-0.212978
-0.202551
-0.188508
-0.179865
-0.20302
-0.187379
-0.148628
-0.152812
-0.14358
-0.14567
-0.149302
-0.154801
-0.162361
-0.171208
-0.180939
-0.191941
-0.200176
-0.202472
-0.202768
-0.198104
-0.190026
-0.177561
-0.169842
-0.160217
-0.155068
-0.154557
-0.156691
-0.16808
-0.198855
-0.206779
-0.212367
-0.205256
-0.193074
-0.185798
-0.204834
-0.18983
-0.156145
-0.159387
-0.13833
-0.140117
-0.143348
-0.148375
-0.155089
-0.162917
-0.17128
-0.179009
-0.179646
-0.19037
-0.18756
-0.188923
-0.181458
-0.178786
-0.171581
-0.165081
-0.161821
-0.162099
-0.165342
-0.176668
-0.199238
-0.207411
-0.212758
-0.208303
-0.197936
-0.19186
-0.207016
-0.192756
-0.164068
-0.166376
-0.128025
-0.129637
-0.131718
-0.137178
-0.143282
-0.150457
-0.158351
-0.164537
-0.167696
-0.177432
-0.178719