/*--------------------------------*- C++ -*----------------------------------*\
| =========                 |                                                 |
| \\      /  F ield         | OpenFOAM: The Open Source CFD Toolbox           |
|  \\    /   O peration     | Version:  2.4.0                                 |
|   \\  /    A nd           | Web:      www.OpenFOAM.org                      |
|    \\/     M anipulation  |                                                 |
\*---------------------------------------------------------------------------*/
FoamFile
{
    version     2.0;
    format      ascii;
    class       volScalarField;
    location    "0.058";
    object      p_rgh;
}
// * * * * * * * * * * * * * * * * * * * * * * * * * * * * * * * * * * * * * //

dimensions      [1 -1 -2 0 0 0 0];

internalField   nonuniform List<scalar> 
3600
(
100.652
101.6
103.182
105.035
106.981
108.851
110.428
111.512
111.916
111.548
110.407
108.665
106.625
104.458
102.856
100.73
101.375
100.83
103.759
96.9523
88.1992
93.4974
100.282
110.083
109.728
107.327
106.841
109.834
112.828
114.051
100.649
101.597
103.181
105.034
106.981
108.853
110.432
111.518
111.924
111.553
110.408
108.655
106.602
104.416
102.791
100.604
101.024
100.162
102.31
94.9108
85.7283
87.8216
95.0644
104.588
105.897
103.248
104.367
107.462
110.115
111.524
100.641
101.59
103.176
105.031
106.98
108.856
110.441
111.534
111.945
111.571
110.419
108.644
106.567
104.347
102.694
100.405
100.703
99.1424
101.148
93.4547
83.0045
84.9017
91.6902
101.661
103.224
103.347
105.415
107.541
109.188
110.185
100.63
101.579
103.168
105.025
106.978
108.86
110.455
111.559
111.979
111.605
110.439
108.635
106.524
104.255
102.569
100.157
100.455
98.0259
100.372
92.0734
80.8314
82.7741
89.9783
99.9549
103.351
104.893
106.336
107.546
109.084
110.168
100.613
101.564
103.157
105.017
106.974
108.867
110.475
111.595
112.028
111.656
110.47
108.629
106.471
104.141
102.406
99.8774
100.235
96.8379
100.034
91.7649
81.895
83.5155
91.0989
99.4804
105.335
107.136
107.389
107.621
108.286
109.241
100.593
101.545
103.143
105.006
106.969
108.874
110.5
111.64
112.092
111.723
110.513
108.627
106.41
104.009
102.195
99.5681
99.7742
96.0163
99.1422
92.8078
85.2034
87.0337
93.6625
100.837
105.826
108.05
109.014
108.762
108.682
109.455
100.568
101.522
103.126
104.993
106.963
108.883
110.53
111.696
112.171
111.806
110.568
108.627
106.338
103.857
101.931
99.2088
99.1746
95.3104
97.6921
93.6049
87.3237
89.0776
95.0267
102.604
107.73
108.561
109.97
110.111
110.488
111.212
100.538
101.494
103.106
104.977
106.955
108.894
110.565
111.763
112.266
111.907
110.636
108.631
106.257
103.686
101.61
98.8038
98.4119
94.454
94.7953
93.4652
88.4405
89.6337
94.2274
102.44
111.629
115.514
114.349
113.675
113.462
113.478
100.505
101.462
103.082
104.958
106.946
108.905
110.605
111.839
112.376
112.026
110.718
108.638
106.165
103.496
101.24
98.4124
97.458
93.4909
91.5587
91.5217
87.8722
89.2761
93.5547
101.171
110.061
115.943
116.479
116.199
115.606
115.169
100.466
101.426
103.056
104.937
106.935
108.918
110.65
111.925
112.501
112.163
110.813
108.648
106.063
103.284
100.838
98.0481
96.4166
93.0407
89.9564
89.6587
86.5341
88.0516
91.9615
98.6731
107.991
113.642
115.687
116.152
115.791
115.103
100.424
101.386
103.027
104.914
106.922
108.931
110.7
112.021
112.643
112.319
110.924
108.662
105.951
103.046
100.413
97.6358
95.2762
92.6995
89.2673
88.5121
85.143
85.6242
88.6584
95.4165
105.378
110.992
113.539
114.362
114.208
113.989
100.377
101.342
102.994
104.887
106.907
108.944
110.754
112.127
112.802
112.495
111.05
108.68
105.828
102.779
99.9796
97.1
94.2543
91.7436
87.7489
86.9933
82.1196
80.8451
83.6593
90.8931
101.512
108.176
111.037
112.06
112.149
113.128
100.325
101.293
102.959
104.858
106.89
108.959
110.812
112.242
112.977
112.692
111.193
108.701
105.691
102.486
99.5258
96.5599
93.2914
90.3178
86.2401
82.3979
76.968
72.8002
75.8714
84.8552
96.6803
104.417
107.689
109.654
110.564
111.993
100.269
101.239
102.92
104.826
106.87
108.973
110.873
112.367
113.17
112.911
111.354
108.726
105.538
102.165
99.0532
95.9988
92.4265
88.5205
85.0225
76.078
68.5833
61.0301
62.162
74.241
90.4312
99.9468
104.224
106.656
108.134
109.304
100.209
101.182
102.879
104.791
106.848
108.987
110.939
112.501
113.38
113.152
111.534
108.755
105.367
101.814
98.5462
95.4786
91.6198
87.1708
82.105
70.2847
58.6729
41.1955
41.8795
61.6152
81.2068
92.0245
97.7731
101.485
104.018
105.573
100.144
101.119
102.835
104.753
106.823
109
111.006
112.643
113.609
113.418
111.734
108.787
105.174
101.428
98.0033
94.9662
90.7676
86.6919
77.1806
64.601
45.3748
8.67388
17.0115
53.4043
72.4847
81.4537
89.6742
96.0072
99.6825
101.168
100.075
101.052
102.788
104.711
106.794
109.013
111.077
112.794
113.856
113.709
111.96
108.818
104.952
101
97.4431
94.4601
89.8738
86.6563
73.9109
61.6603
14.6898
-3.44791
9.71275
49.3859
66.4165
75.3166
85.4379
92.1558
95.7254
96.9928
100.001
100.98
102.738
104.667
106.762
109.025
111.149
112.952
114.122
114.026
112.212
108.852
104.698
100.519
96.8883
93.9802
89.6077
86.5079
74.2565
63.425
0.415451
2.09987
7.6517
44.5118
68.6591
75.8521
84.4885
89.8049
92.7654
94.2864
99.9222
100.904
102.686
104.619
106.725
109.035
111.223
113.117
114.407
114.372
112.491
108.888
104.408
99.9861
96.359
93.3621
90.226
85.5716
75.8947
29.8674
-0.877195
0.6348
0.952588
18.4421
67.5904
78.076
84.6872
89.3276
91.4999
92.2925
99.8393
100.822
102.63
104.568
106.685
109.043
111.297
113.289
114.711
114.747
112.802
108.929
104.073
99.4021
95.8001
92.445
91.0091
83.8947
77.2828
5.01685
-0.462985
0.461705
0.272202
0.52921
27.6604
74.3617
86.781
90.8271
92.0021
91.1389
99.7518
100.736
102.573
104.513
106.64
109.049
111.372
113.466
115.035
115.153
113.146
108.98
103.684
98.7696
95.1426
91.3899
91.133
82.8467
36.2299
2.03979
-0.0376215
0.434353
0.113905
0.106444
0.908226
23.7811
66.9046
85.2465
91.5434
91.3734
99.6598
100.644
102.513
104.454
106.589
109.052
111.445
113.647
115.378
115.591
113.526
109.049
103.212
98.077
94.3412
90.519
90.2627
82.3698
6.91823
-0.301529
-0.0845339
0.123914
0.0754928
0.111821
0.151705
0.220807
8.79472
22.1737
33.7689
39.1671
99.5632
100.547
102.451
104.391
106.534
109.052
111.516
113.831
115.74
116.062
113.952
109.175
102.63
97.3983
93.4831
89.8405
89.2078
41.835
0.435309
-0.199808
-0.132439
0.0184122
0.0393962
0.0665551
0.0411536
0.0552354
0.231904
0.362238
0.58196
0.939565
99.4621
100.444
102.387
104.324
106.472
109.049
111.585
114.016
116.12
116.569
114.422
109.336
101.841
96.6919
92.4665
88.8618
88.7629
5.08695
-0.0388737
-0.0912444
0.0131312
0.0377307
0.0331123
0.0340976
0.0285207
0.0265682
0.0775311
0.118147
0.184938
0.269846
99.3564
100.336
102.321
104.253
106.404
109.042
111.649
114.203
116.518
117.108
114.942
109.576
100.867
96.0184
91.377
86.8557
42.0991
0.355603
-0.0754998
-0.0734022
0.0107899
0.040281
0.0368599
0.0292945
0.028948
0.0207296
0.0390102
0.0669792
0.103105
0.138356
99.2462
100.222
102.254
104.177
106.33
109.03
111.709
114.381
116.931
117.69
115.549
109.995
99.6713
95.5863
90.1695
66.9432
2.06497
0.141201
-0.0497765
0.0205143
0.0483962
0.0342166
0.0333137
0.0253786
0.0227336
0.0161906
0.0269329
0.0450082
0.0636061
0.07823
99.1313
100.102
102.185
104.096
106.248
109.014
111.763
114.561
117.363
118.316
116.194
110.466
97.8023
95.1898
81.497
7.14678
-0.140072
0.00862632
-0.056016
0.0016644
0.123625
0.0437906
0.023638
0.0165686
0.012746
0.00856189
0.015473
0.0271684
0.0385809
0.0459928
99.012
99.9763
102.116
104.011
106.159
108.992
111.81
114.729
117.801
118.95
116.843
111.137
95.4054
94.6269
24.7341
-0.0885696
-0.148213
-0.0662666
-0.0654069
-0.0380998
0.0925815
0.0237613
0.0102856
0.00678378
0.00195138
-0.00206228
0.00204039
0.010675
0.0188001
0.0233323
98.8863
99.8416
102.046
103.918
106.061
108.964
111.849
114.882
118.246
119.656
117.673
112.412
92.4671
63.0686
0.333209
-0.110687
-0.171492
-0.15426
-0.110123
-0.0409076
0.0664894
0.0246994
-0.000967399
-0.00214007
-0.00853615
-0.0126374
-0.010442
-0.00336269
0.00296054
0.00597374
98.7616
99.7209
101.976
103.821
105.957
108.931
111.881
115.025
118.724
120.439
118.503
113.78
76.3499
0.508514
-0.221266
-0.154013
-0.204401
-0.20855
-0.157165
-0.0828067
0.0226721
0.0394508
-0.0101918
-0.00994583
0.000700226
-0.0196177
-0.0209681
-0.014377
-0.0087225
-0.00624417
114.044
112.817
109.822
106.926
107.301
109.679
110.021
100.26
93.5301
88.1624
96.9273
103.722
100.802
101.354
100.702
102.828
104.421
106.581
108.616
110.357
111.504
111.878
111.48
110.402
108.833
106.973
105.035
103.188
101.608
100.66
111.477
110.006
107.351
104.279
103.194
105.839
104.53
95.0633
87.8101
85.7107
94.8965
102.273
100.135
101.004
100.577
102.763
104.379
106.557
108.605
110.358
111.51
111.887
111.487
110.407
108.835
106.973
105.034
103.186
101.605
100.657
110.206
109.172
107.542
105.4
103.293
103.181
101.592
91.7257
84.9173
82.9916
93.4648
101.112
99.1191
100.683
100.379
102.665
104.31
106.522
108.594
110.368
111.527
111.907
111.503
110.416
108.838
106.971
105.031
103.181
101.598
100.65
110.042
108.914
107.43
106.189
104.805
103.278
99.8804
90.0382
82.8086
80.8527
92.1073
100.348
98.0078
100.436
100.134
102.54
104.218
106.478
108.585
110.388
111.561
111.942
111.528
110.43
108.843
106.969
105.025
103.174
101.587
100.638
109.207
108.22
107.566
107.287
106.971
105.23
99.3942
91.1368
83.5302
81.9031
91.7929
100.018
96.8264
100.216
99.8569
102.377
104.106
106.425
108.578
110.419
111.612
111.991
111.564
110.449
108.849
106.965
105.017
103.163
101.572
100.622
109.467
108.791
108.803
108.864
107.891
105.763
100.787
93.6628
87.0106
85.2122
92.8399
99.1131
96.0181
99.7524
99.5509
102.166
103.974
106.362
108.574
110.461
111.678
112.055
111.61
110.474
108.857
106.96
105.006
103.149
101.553
100.601
111.213
110.513
110.129
110.061
108.778
107.707
102.597
95.0863
89.0599
87.3296
93.6336
97.6541
95.3216
99.1495
99.1953
101.9
103.822
106.29
108.574
110.516
111.762
112.134
111.666
110.505
108.866
106.954
104.993
103.132
101.53
100.576
113.417
113.392
113.73
114.404
115.48
111.507
102.32
94.1844
89.5834
88.4485
93.4892
94.72
94.4669
98.3836
98.7948
101.579
103.652
106.207
108.576
110.583
111.862
112.229
111.733
110.54
108.876
106.947
104.977
103.112
101.502
100.547
115.159
115.642
116.382
116.556
115.882
109.779
100.963
93.4642
89.1721
87.8423
91.5245
91.4786
93.5078
97.4265
98.4087
101.208
103.463
106.113
108.581
110.663
111.981
112.339
111.809
110.58
108.887
106.938
104.959
103.089
101.471
100.513
115.018
115.77
116.214
115.581
113.451
107.671
98.4352
91.8459
87.8951
86.4689
89.6797
89.9053
93.0676
96.3845
98.0501
100.805
103.253
106.009
108.59
110.758
112.118
112.465
111.896
110.625
108.9
106.927
104.938
103.063
101.435
100.475
113.954
114.101
114.2
113.279
110.71
105.123
95.1632
88.5418
85.4211
85.0693
88.7242
89.2034
92.7382
95.2427
97.6427
100.381
103.017
105.894
108.601
110.867
112.274
112.608
111.992
110.674
108.913
106.914
104.915
103.034
101.395
100.432
113.152
112.313
112.001
110.785
107.952
101.256
90.6947
83.4882
80.6332
82.0906
87.1788
87.6788
91.7927
94.2236
97.1131
99.9474
102.752
105.767
108.615
110.992
112.45
112.767
112.099
110.729
108.926
106.899
104.889
103.002
101.351
100.385
111.909
110.687
109.753
107.736
104.397
96.5495
84.6662
75.7013
72.6711
77.0398
82.54
86.1882
90.3647
93.2688
96.5828
99.4933
102.461
105.626
108.633
111.133
112.647
112.943
112.215
110.787
108.94
106.882
104.86
102.967
101.302
100.334
109.304
108.2
106.763
104.372
99.9798
90.2336
73.9914
61.9406
60.9386
68.8058
76.157
84.9684
88.5834
92.413
96.0364
99.0195
102.143
105.468
108.654
111.291
112.866
113.136
112.34
110.848
108.954
106.863
104.828
102.929
101.249
100.278
105.703
104.395
101.609
97.7733
91.8742
80.943
61.2416
41.6616
41.2281
58.9951
70.3437
82.1061
87.2398
91.6009
95.5292
98.5109
101.795
105.291
108.679
111.469
113.107
113.348
112.475
110.913
108.968
106.841
104.793
102.888
101.191
100.217
101.295
100.041
96.3142
89.6143
81.1537
72.2481
53.0658
16.5406
8.49548
45.7725
64.7281
77.1758
86.7406
90.7166
95.0265
97.9682
101.412
105.089
108.705
111.667
113.373
113.578
112.618
110.981
108.981
106.816
104.755
102.844
101.129
100.152
97.2462
95.6178
92.4082
85.2454
75.2736
66.2968
49.2077
9.20183
-3.71858
15.2356
61.9481
73.8277
86.6583
89.7863
94.5346
97.4132
100.987
104.858
108.731
111.89
113.665
113.826
112.77
111.051
108.994
106.787
104.714
102.798
101.062
100.083
94.2552
92.3888
89.2604
84.0285
76.1851
69.3135
45.7666
7.63324
1.87837
0.377028
63.6313
74.0087
86.4509
89.545
94.0761
96.8701
100.509
104.593
108.758
112.14
113.983
114.094
112.929
111.123
109.005
106.755
104.67
102.749
100.99
100.009
91.5324
90.8902
88.0671
84.2238
78.102
69.7583
19.396
0.901692
0.474512
-0.988959
28.1685
75.2451
85.4435
90.2415
93.4853
96.3574
99.9816
104.289
108.786
112.417
114.33
114.381
113.095
111.197
109.014
106.72
104.622
102.697
100.914
99.9305
90.763
91.4268
90.2069
86.791
75.6873
30.3706
0.567667
0.235282
0.419693
-0.419934
4.63126
76.0761
83.7063
91.0951
92.5859
95.8193
99.4042
103.935
108.819
112.725
114.707
114.687
113.268
111.271
109.022
106.679
104.572
102.642
100.832
99.8476
91.4866
90.7386
85.3093
67.4717
26.2231
1.1389
0.0716724
0.111795
0.424132
-0.0506394
1.39141
32.2299
82.7177
91.1671
91.5544
95.1842
98.7793
103.522
108.861
113.067
115.115
115.013
113.447
111.344
109.027
106.635
104.517
102.586
100.746
99.76
39.9063
33.0784
22.7786
9.56014
0.306185
0.172786
0.0918951
0.0810699
0.161413
-0.0629969
-0.228193
6.12659
82.416
90.1936
90.7229
94.4019
98.0924
103.02
108.92
113.445
115.556
115.359
113.629
111.417
109.029
106.585
104.459
102.527
100.654
99.6679
0.986167
0.573057
0.392596
0.242259
0.0714914
0.0455091
0.0569906
0.0432451
0.0596995
-0.113237
-0.173764
0.482669
39.7291
89.1992
90.0932
93.5789
97.4221
102.403
109.032
113.87
116.031
115.724
113.815
111.487
109.028
106.53
104.397
102.466
100.558
99.5713
0.273139
0.182682
0.116869
0.0696544
0.0253913
0.0218417
0.0242747
0.0281576
0.0535501
-0.00827901
-0.0990829
-0.0734577
4.89827
88.9622
89.1583
92.619
96.7288
101.572
109.175
114.339
116.542
116.109
114.003
111.554
109.024
106.469
104.331
102.403
100.455
99.4701
0.138944
0.101759
0.0639377
0.0322906
0.0142431
0.0187517
0.0163424
0.0259024
0.0383926
-0.0164566
-0.0770458
-0.0990782
0.400339
41.2457
87.1934
91.5828
96.0626
100.546
109.393
114.859
117.086
116.51
114.192
111.617
109.015
106.402
104.26
102.338
100.347
99.3643
0.0784296
0.063199
0.0436647
0.0233477
0.0102395
0.0132877
0.0120787
0.0204813
0.0272012
0.0180661
-0.0399032
-0.0534575
0.13932
2.41301
68.1443
90.4122
95.6298
99.2862
109.785
115.468
117.675
116.928
114.373
111.675
109.002
106.328
104.185
102.272
100.233
99.2539
0.0460901
0.0379895
0.0255925
0.0118874
0.00250232
0.00403341
0.00425452
0.0124434
0.0238243
0.0603031
-0.00999161
-0.0581726
0.00235445
-0.189146
8.02754
82.3634
95.2293
97.3366
110.224
116.118
118.309
117.365
114.555
111.727
108.984
106.248
104.105
102.205
100.114
99.1389
0.0230947
0.0176783
0.00817935
-0.00243038
-0.00885341
-0.00690628
-0.00412322
0.00265669
0.0137604
0.102955
-0.030513
-0.0588969
-0.066882
-0.179488
-0.132245
26.3434
94.6297
94.8345
110.859
116.775
118.952
117.808
114.726
111.771
108.96
106.16
104.02
102.137
99.9879
99.0195
0.005601
0.001358
-0.00652112
-0.0152667
-0.0200283
-0.0172497
-0.0118798
-0.0103116
0.00824897
0.0830485
-0.0635129
-0.114356
-0.152057
-0.192777
-0.128196
0.628155
64.4035
91.7543
112.092
117.618
119.669
118.259
114.882
111.806
108.93
106.063
103.928
102.068
99.8534
98.8935
-0.00669212
-0.010432
-0.0173647
-0.0256322
-0.0294486
-0.0269716
-0.0204812
-0.0221812
0.0102463
-0.0110262
-0.0917741
-0.168266
-0.208183
-0.220852
-0.17601
-0.263767
0.516736
74.7674
113.403
118.471
120.465
118.743
115.028
111.834
108.894
105.96
103.832
101.999
99.7332
98.7686
58.4341
81.7146
101.921
103.744
105.87
108.898
111.896
115.119
119.069
120.946
119.11
114.652
9.76588
0.20877
-0.171981
-0.14131
-0.211383
-0.245829
-0.19064
-0.11042
-0.0248066
0.0280271
-0.0224373
-0.0182125
0.0309549
-0.0264808
-0.0266859
-0.0193924
-0.0142194
-0.0119053
8.26937
15.3164
62.4921
95.1593
105.81
108.873
111.904
115.173
119.29
121.26
119.54
117.646
0.0896108
0.18924
-0.130639
-0.140945
-0.218362
-0.268471
-0.21366
-0.126188
-0.0481638
0.0223999
-0.014288
-0.025592
0.0295528
-0.0294173
-0.0303482
-0.0218502
-0.0167656
-0.0144933
8.34362
22.769
33.9678
60.676
86.5041
103.556
110.859
115.225
119.518
121.617
119.708
119.003
1.05807
0.152084
-0.10494
-0.136588
-0.21895
-0.287579
-0.236055
-0.139185
-0.0739184
0.0186098
0.00318667
-0.0323436
0.0179012
-0.0257321
-0.0289506
-0.0224273
-0.0178813
-0.015796
0.0329377
4.65308
39.7365
66.5378
86.9784
102.665
109.796
115.884
120.173
122.232
119.785
96.1281
0.680882
0.12326
-0.0838006
-0.131892
-0.222608
-0.299458
-0.253054
-0.151407
-0.0891142
0.0123752
-0.0450658
-0.0378664
0.00910082
-0.0229585
-0.0257451
-0.0212966
-0.0175527
-0.0151887
0.0347414
0.0518017
4.17025
19.7411
56.4351
94.5828
108.855
116.113
120.07
123.125
119.302
36.9204
0.104928
0.106164
-0.0577696
-0.123707
-0.222666
-0.303457
-0.266025
-0.162044
-0.101807
0.00922153
-0.0370584
-0.0339152
0.0166728
-0.0165285
-0.0240426
-0.0196489
-0.0161495
-0.0143785
0.0337011
0.0521776
0.0254659
1.39466
18.3777
62.6872
100.44
116.466
120.212
123.951
119.01
5.84775
-0.0440908
0.0660281
-0.0420299
-0.105776
-0.222064
-0.323688
-0.280882
-0.176744
-0.110375
0.00131236
-0.0396086
-0.0349958
0.0180999
0.0157223
-0.0190802
-0.016772
-0.0132721
-0.0115729
0.0467507
0.0510815
0.025876
-0.0280564
1.99751
19.8798
65.288
108.424
119.917
123.851
77.3821
3.64979
-0.0129014
0.0158655
-0.027347
-0.0950895
-0.222844
-0.328069
-0.285478
-0.184422
-0.11671
-0.0216003
-0.0448061
-0.0397689
0.0183744
0.0164102
-0.0126467
-0.012652
-0.00912767
-0.00760556
0.0540536
0.0483071
0.0255497
-0.0599171
-0.0579979
0.0765723
14.073
65.6607
108.02
97.4341
1.16937
0.378936
0.0534361
0.0293976
-0.0196053
-0.0878254
-0.216108
-0.321842
-0.28213
-0.187104
-0.12013
-0.0737604
-0.0502051
-0.0391426
0.00920998
0.0166547
0.00398632
-0.00813581
-0.00435102
-0.00303853
0.0492235
0.0464244
0.0254295
-0.0594254
-0.059392
-0.0148954
-0.0395149
7.37017
31.3632
26.2126
0.361328
0.354546
0.0393154
0.0503587
0.00467408
-0.079221
-0.206497
-0.303633
-0.267652
-0.18252
-0.119979
-0.0766655
-0.050729
-0.0377269
-0.0128401
0.0179644
0.030485
0.0162115
0.00505601
0.00555147
0.0265193
0.0442167
0.0240549
-0.0618409
-0.0615425
-0.0157728
-0.0414745
-0.0706245
-0.130153
-0.449942
0.301896
0.316198
0.0807344
0.0471367
0.014046
-0.0697839
-0.191747
-0.274121
-0.240941
-0.167555
-0.111501
-0.0718647
-0.0473866
-0.033625
-0.0198599
0.0178058
0.0328134
0.0432536
0.0461291
0.0413002
0.0247599
0.0416497
0.0186376
-0.0648059
-0.0638019
-0.0168057
-0.0412291
-0.0718734
-0.129221
-0.343274
0.236978
0.271721
0.0882825
0.0524737
-0.00225617
-0.0573463
-0.160598
-0.234755
-0.20457
-0.14393
-0.0966244
-0.0624902
-0.0411041
-0.028333
-0.0178543
-0.0072061
0.01077
0.0240433
0.0315965
0.0350271
0.0231895
0.0390611
0.0147863
-0.066633
-0.0653212
-0.0180834
-0.0414157
-0.0719575
-0.122165
-0.268086
0.181726
0.231025
0.0831367
0.0553596
0.00679967
-0.0415689
-0.121145
-0.181371
-0.162067
-0.107924
-0.0711897
-0.0489411
-0.0324583
-0.0212067
-0.0121398
-0.00503603
0.000407058
0.00459402
0.00868648
0.0107998
0.0217365
0.036407
0.0134907
-0.0651021
-0.0654847
-0.0195739
-0.0415353
-0.0708556
-0.11293
-0.204112
0.137223
0.195231
0.0846954
0.056698
0.0149095
-0.0232983
-0.0830056
-0.105535
-0.0973595
-0.0696989
-0.0529039
-0.0332924
-0.0221154
-0.0129781
-0.00565014
0.000324581
0.00485243
0.00795553
0.0102873
0.0114486
0.0203552
0.0335758
0.0122871
-0.0616415
-0.0639317
-0.0211523
-0.0413076
-0.0681948
-0.101878
-0.152162
0.10196
0.164606
0.0784531
0.0563352
0.0166909
-0.012762
-0.0503054
-0.0750875
-0.0719275
-0.0524958
-0.0329991
-0.0188069
-0.0116061
-0.00477222
0.000765988
0.00552929
0.00909007
0.0115936
0.0132638
0.0141033
0.0189392
0.0306055
0.0111558
-0.0566292
-0.0607414
-0.0226709
-0.0405903
-0.064123
-0.0897319
-0.110937
0.075617
0.134697
0.0756692
0.05578
0.0235784
-0.00273782
0.00579094
-0.0385054
-0.0427141
-0.03277
-0.0171855
-0.00710147
-0.00241027
0.00234321
0.00655328
0.0101965
0.0129409
0.0149018
0.0161445
0.0167549
0.0174844
0.0275701
0.0100686
-0.0507914
-0.0563734
-0.0240081
-0.039363
-0.0592141
-0.0772538
-0.0791916
0.0566122
0.1094
0.0707977
0.0537587
0.0289416
0.0104849
0.0281472
0.0270925
0.0156392
0.0171624
0.0100258
0.00102423
0.00441941
0.00793928
0.0113083
0.0141884
0.0163654
0.017907
0.0188628
0.0193266
0.0159842
0.0245683
0.00906884
-0.0448578
-0.0514316
-0.0249741
-0.0376743
-0.0538149
-0.0650654
-0.0554537
0.0424212
0.0871929
0.0654942
0.0511472
0.0324644
0.0164068
0.0117007
0.0189237
0.0325136
0.0436794
0.0516821
0.0253353
0.0094177
0.0123124
0.0150997
0.017439
0.019197
0.0204203
0.021167
0.0215245
0.0144604
0.0216548
0.00808586
-0.039188
-0.0463247
-0.025459
-0.0355779
-0.0481072
-0.0537096
-0.0382077
0.0323543
0.0683686
0.0594836
0.0489295
0.035072
0.0230453
0.0148489
0.00855912
0.00553611
0.0266505
0.0602419
0.0291604
0.0128034
0.0158154
0.0182227
0.0201173
0.0215136
0.0224677
0.023044
0.0233165
0.0129303
0.0188607
0.00706181
-0.0339428
-0.0412867
-0.0254035
-0.033136
-0.0422779
-0.0434813
-0.0256471
0.0252903
0.0538969
0.0525367
0.0455397
0.0361092
0.0273454
0.0203981
0.0148977
0.0108451
0.00980549
0.0162411
0.0158389
0.0166628
0.0192859
0.0212409
0.0226819
0.0237175
0.0244144
0.0248321
0.0250265
0.011414
0.0162173
0.00597506
-0.029149
-0.0364425
-0.0247884
-0.0304223
-0.0365302
-0.0345524
-0.0168965
0.0201617
0.0426469
0.0453303
0.0417052
0.0357095
0.029349
0.0241646
0.0200506
0.0171261
0.0161102
0.017295
0.0193531
0.0215581
0.0230927
0.0243111
0.0252168
0.0258702
0.0263091
0.0265689
0.0266831
0.00993281
0.0137488
0.00484292
-0.0248108
-0.0318553
-0.0236358
-0.0275156
-0.031027
-0.0270086
-0.0108197
0.0163228
0.0340689
0.0388122
0.0374966
0.0337265
0.0298401
0.0264258
0.0236563
0.0219247
0.0215693
0.0223491
0.0235484
0.024846
0.0258013
0.0265142
0.0270397
0.0274121
0.0276555
0.0277908
0.0278381
0.00850677
0.0114755
0.00370313
-0.0209231
-0.0275542
-0.0220067
-0.0244885
-0.0259037
-0.0207794
-0.00666377
0.0134338
0.0273889
0.032733
0.0333683
0.0318193
0.0294806
0.0271924
0.0255361
0.0246215
0.0245415
0.0250542
0.0257391
0.02644
0.0269857
0.0273917
0.027686
0.0278851
0.0280047
0.0280588
0.0280602
0.00715472
0.00940481
0.00261412
-0.0174622
-0.0235435
-0.0199883
-0.0214047
-0.0212564
-0.0157564
-0.00390218
0.0111575
0.0221962
0.0275133
0.0290849
0.0287029
0.0276317
0.0265705
0.0257318
0.0253183
0.0253464
0.025658
0.0260488
0.0264294
0.0267322
0.0269558
0.0271109
0.0272068
0.0272532
0.0272595
0.027234
0.00589169
0.00752393
0.00166079
-0.0143893
-0.0198116
-0.0176783
-0.0183206
-0.0171382
-0.0117857
-0.00206786
0.0092466
0.0178774
0.0227584
0.0248991
0.0254751
0.025294
0.0248951
0.0245795
0.0244534
0.0245228
0.024713
0.0249323
0.0251361
0.0252969
0.0254113
0.0254835
0.0255188
0.0255235
0.0255036
0.0254645
0.00472856
0.00584551
0.00088496
-0.0116559
-0.0163381
-0.015173
-0.0152917
-0.0135645
-0.0087008
-0.000941675
0.00759027
0.0143612
0.0186323
0.0209153
0.0219396
0.0222897
0.0223682
0.0223808
0.022417
0.0225079
0.0226311
0.0227541
0.0228591
0.0229369
0.0229862
0.0230096
0.0230104
0.0229928
0.0229604
0.0229167
0.00367092
0.00438179
0.0003048
-0.00920727
-0.0130981
-0.0125585
-0.0123739
-0.0105013
-0.00634594
-0.000318883
0.00605579
0.011259
0.0148146
0.0169732
0.0181784
0.0188146
0.0191425
0.0193299
0.019478
0.0195951
0.019692
0.0197675
0.0198214
0.0198543
0.0198681
0.0198656
0.0198494
0.0198223
0.0197866
0.0197447
0.00271742
0.00312955
-7.19107e-05
-0.00700005
-0.0100602
-0.0099035
-0.00960329
-0.00789119
-0.00457643
-8.13199e-05
0.0045722
0.00847171
0.0113032
0.0131791
0.0143501
0.0150564
0.0154821
0.0157457
0.0159203
0.0160361
0.0161131
0.0161615
0.0161881
0.0161978
0.0161941
0.0161801
0.016158
0.0161298
0.016097
0.0160611
0.00185918
0.00207133
-0.000251692
-0.00492869
-0.00718062
-0.00724871
-0.00698753
-0.00566026
-0.00326497
-0.000142738
0.00306642
0.00582062
0.00791804
0.00939624
0.0103865
0.0110298
0.0114411
0.0117022
0.0118684
0.01197
0.0120286
0.0120588
0.0120701
0.0120685
0.012058
0.0120414
0.0120205
0.0119966
0.0119706
0.0119434
0.00107795
0.00117302
-0.000248568
-0.00294322
-0.00440219
-0.00459805
-0.00449801
-0.00371427
-0.00229192
-0.000441183
0.0014895
0.00320066
0.00456595
0.00557977
0.00629468
0.00677949
0.00709768
0.00729952
0.00742246
0.00749041
0.00752245
0.00753467
0.00753485
0.00752789
0.00751659
0.00750273
0.00748735
0.00747108
0.00745433
0.00743737
0.000336441
0.000361501
-9.70605e-05
-0.000977326
-0.00163593
-0.00190285
-0.00205363
-0.00192886
-0.00153996
-0.000935858
-0.000227331
0.000470127
0.00108586
0.0015858
0.0019643
0.00223319
0.00241342
0.00252817
0.00259782
0.00261826
0.00261278
0.00260525
0.00259697
0.0025884
0.00257994
0.00257187
0.00256429
0.0025572
0.00255061
0.0025445
-0.0124438
-0.0157585
-0.0230103
-0.0313376
-0.0365253
-0.0134158
-0.0240393
-0.0268397
0.0495561
-0.0216649
-0.118406
-0.199082
-0.242261
-0.224003
-0.1697
-0.203058
0.149932
8.07212
114.212
119.111
120.985
119.092
115.125
111.846
108.859
105.874
103.756
101.945
81.7629
58.4583
-0.0151007
-0.018502
-0.0255173
-0.0340147
-0.0396216
0.00579248
-0.0264243
-0.0307316
0.0425707
0.046263
-0.134499
-0.219195
-0.262413
-0.229197
-0.169784
-0.156732
0.136122
-0.278927
117.491
119.568
121.307
119.317
115.18
111.852
108.832
105.815
94.9723
62.5519
15.3605
8.29124
-0.0163308
-0.019706
-0.026289
-0.034916
-0.0415082
0.00743711
-0.0295704
-0.0210144
0.032627
-0.0428899
-0.141783
-0.237368
-0.27779
-0.228601
-0.166052
-0.128812
0.101497
0.845335
117.685
119.77
121.671
119.548
115.234
110.805
103.47
86.5549
60.7277
34.0418
22.849
8.37369
-0.015767
-0.0193198
-0.0252498
-0.032816
-0.0356501
-0.00130649
-0.0353086
-0.0297586
0.0167179
-0.0837469
-0.148463
-0.251231
-0.288683
-0.228572
-0.159234
-0.107366
0.0780353
0.496063
94.2875
119.912
122.292
120.215
115.879
109.734
102.675
87.2504
67.0162
40.4221
4.93986
0.0414596
-0.0147784
-0.0174689
-0.0227823
-0.0291686
-0.0324232
-0.0035495
-0.0388081
-0.0491319
0.00078374
-0.0950645
-0.155997
-0.2611
-0.299721
-0.225837
-0.148961
-0.0837137
0.066077
0.0976123
37.8081
119.463
123.199
120.107
116.113
108.769
94.3833
56.4581
19.7628
4.25397
0.052765
0.0433063
-0.0118496
-0.0144385
-0.0196258
-0.0258251
-0.0262318
-0.00153639
-0.0409168
-0.0521764
0.000719101
-0.10765
-0.16296
-0.261276
-0.307739
-0.222105
-0.137004
-0.05817
0.0363652
-0.041543
5.93708
118.792
124.06
120.257
116.445
100.109
62.103
18.031
1.36196
0.0265861
0.0531604
0.0421769
-0.00786309
-0.0100304
-0.0150222
-0.0209542
0.00322248
-0.00152838
-0.0425831
-0.0521707
-0.000802631
-0.11376
-0.168093
-0.268954
-0.316031
-0.218198
-0.119988
-0.0415844
-0.00875941
-0.040713
3.74948
79.4971
124.058
119.966
108.271
64.3709
19.1059
1.89112
-0.0255014
0.0271383
0.0520672
0.0561784
-0.00350411
-0.00466516
-0.00904894
-0.00549905
0.00968606
-0.000375801
-0.0368779
-0.0469896
-0.0125843
-0.0597284
-0.169245
-0.264376
-0.313591
-0.211539
-0.110275
-0.0307954
0.00653016
0.020214
0.319277
1.75669
98.4419
108.164
65.4018
13.5842
0.0434749
-0.0532423
-0.0604509
0.0268345
0.0490188
0.0580217
0.0051838
0.00427243
0.0113422
0.0218724
0.0145209
-0.0132824
-0.0341373
-0.0450936
-0.0566234
-0.0516259
-0.154167
-0.254037
-0.301578
-0.200522
-0.0994356
-0.0172734
0.0318581
0.00275065
0.295502
0.358484
26.7795
31.6656
7.44618
-0.0299235
-0.00486639
-0.0547137
-0.0600434
0.0270861
0.0471644
0.0447483
0.0363403
0.0411102
0.0374316
0.0315812
0.0217106
-0.0192484
-0.031422
-0.0430943
-0.0657589
-0.0540734
-0.0992861
-0.230087
-0.27945
-0.185613
-0.0877484
-0.0106079
0.030553
0.0464582
0.268932
0.284386
-0.368227
-0.104094
-0.055547
-0.0318293
-0.00580662
-0.0569974
-0.062363
0.0257114
0.044988
0.0252212
0.0337334
0.0342283
0.0303215
0.0153784
-0.00402707
-0.0174772
-0.0263969
-0.0374666
-0.059506
-0.0568533
-0.0775258
-0.138354
-0.231169
-0.164359
-0.0754296
-0.0125178
0.0364073
0.0574529
0.231908
0.222974
-0.277646
-0.103402
-0.0568085
-0.0315413
-0.00691635
-0.0594258
-0.0654125
0.0190937
0.0423592
0.0237893
0.0133174
0.010224
0.00627119
0.000774449
-0.00483735
-0.0115602
-0.0195849
-0.0296423
-0.0477087
-0.0741264
-0.0716319
-0.117661
-0.188573
-0.136094
-0.0601114
-0.00753966
0.0390545
0.0527874
0.199499
0.1709
-0.214705
-0.0973244
-0.0570683
-0.0317542
-0.00833848
-0.0611442
-0.0670898
0.015066
0.0397317
0.0223537
0.0116956
0.0107712
0.00857278
0.00530703
0.000949131
-0.00477854
-0.0115465
-0.0197219
-0.0313801
-0.0528621
-0.0768188
-0.118091
-0.13909
-0.099645
-0.0390807
0.00196877
0.0408294
0.0582764
0.170084
0.129306
-0.161574
-0.0893972
-0.0562898
-0.031955
-0.0100597
-0.0615181
-0.065433
0.0137458
0.0370231
0.0210151
0.0142532
0.0136237
0.0121143
0.00970418
0.00634123
0.00181562
-0.00339085
-0.00920775
-0.0157225
-0.0312392
-0.0499694
-0.075976
-0.0867163
-0.0593656
-0.0202803
0.00634898
0.0414528
0.0549525
0.144279
0.0967068
-0.118882
-0.0800565
-0.0541084
-0.0318585
-0.0119467
-0.0601618
-0.0618119
0.0125578
0.0341249
0.0197258
0.016851
0.0164246
0.0153621
0.0135672
0.0110274
0.00757316
0.00372122
-0.000777802
-0.00440423
-0.0136072
-0.0290631
-0.0453171
-0.0473711
-0.0240825
-0.00976483
0.00998407
0.0406973
0.0553373
0.118678
0.0720737
-0.0852662
-0.0699457
-0.0506701
-0.0313521
-0.013814
-0.0571364
-0.0566052
0.0115069
0.0310817
0.0183965
0.0194003
0.0190899
0.0182955
0.0169133
0.0149129
0.0121582
0.00907714
0.00552265
0.0030276
0.0168003
0.024328
0.0233564
0.025526
-0.00727832
-0.00541577
0.0147971
0.038814
0.0530512
0.0967683
0.054405
-0.0596237
-0.0596977
-0.0465521
-0.0304015
-0.015569
-0.0528643
-0.0505446
0.0105585
0.0279778
0.0170249
0.0215812
0.021343
0.0207247
0.0196282
0.017996
0.015714
0.0130403
0.00985665
0.0242453
0.0542888
0.0466181
0.0116663
-0.00701632
-0.00815754
0.00248222
0.0186972
0.0370225
0.0503406
0.0773035
0.0411624
-0.0406428
-0.0498081
-0.0420684
-0.0290681
-0.0170094
-0.0479721
-0.0443601
0.00970738
0.0249172
0.0156052
0.0233574
0.0231709
0.0226862
0.0218178
0.0204895
0.0185901
0.0161292
0.0126818
0.0218651