/*--------------------------------*- C++ -*----------------------------------*\
| =========                 |                                                 |
| \\      /  F ield         | OpenFOAM: The Open Source CFD Toolbox           |
|  \\    /   O peration     | Version:  2.4.0                                 |
|   \\  /    A nd           | Web:      www.OpenFOAM.org                      |
|    \\/     M anipulation  |                                                 |
\*---------------------------------------------------------------------------*/
FoamFile
{
    version     2.0;
    format      ascii;
    class       surfaceScalarField;
    location    "0.057";
    object      phi;
}
// * * * * * * * * * * * * * * * * * * * * * * * * * * * * * * * * * * * * * //

dimensions      [0 3 -1 0 0 0 0];

internalField   nonuniform List<scalar> 
7080
(
-1.12406e-08
1.12406e-08
-2.2002e-08
1.07615e-08
-3.18892e-08
9.88714e-09
-4.05871e-08
8.69792e-09
-4.67394e-08
6.1523e-09
-4.83975e-08
1.65816e-09
-4.31008e-08
-5.29673e-09
-2.86099e-08
-1.44909e-08
-3.34092e-09
-2.5269e-08
3.15706e-08
-3.49115e-08
7.46349e-08
-4.30643e-08
1.221e-07
-4.74654e-08
1.7001e-07
-4.79098e-08
2.13163e-07
-4.31525e-08
2.5711e-07
-4.39479e-08
2.67324e-07
-1.02135e-08
3.21837e-07
-5.4513e-08
1.89151e-07
1.32686e-07
-1.06736e-07
2.95887e-07
-3.32167e-07
2.2543e-07
-3.70792e-07
3.86254e-08
-3.51565e-07
-1.9227e-08
-1.68283e-07
-1.83282e-07
2.04807e-07
-3.7309e-07
3.84913e-07
-1.80106e-07
4.27784e-07
-4.28716e-08
3.75295e-07
5.24893e-08
2.5393e-07
1.21365e-07
1.20605e-07
1.33326e-07
1.2175e-07
-1.14544e-09
-1.40814e-08
2.5322e-08
-2.79387e-08
2.46188e-08
-4.133e-08
2.32784e-08
-5.3901e-08
2.1269e-08
-6.4005e-08
1.62562e-08
-6.943e-08
7.08322e-09
-6.72945e-08
-7.43232e-09
-5.48743e-08
-2.69112e-08
-3.02602e-08
-4.98831e-08
7.09634e-09
-7.2268e-08
5.29798e-08
-8.89478e-08
1.04301e-07
-9.87861e-08
1.56053e-07
-9.96623e-08
2.02073e-07
-8.91724e-08
2.46099e-07
-8.79746e-08
2.62207e-07
-2.63212e-08
3.0638e-07
-9.86856e-08
2.39906e-07
1.9916e-07
-8.13524e-10
5.36606e-07
-2.6888e-07
4.93497e-07
-3.67977e-07
1.37723e-07
-2.59414e-07
-1.27791e-07
-6.49374e-08
-3.77758e-07
1.16016e-07
-5.54044e-07
2.52004e-07
-3.16094e-07
2.53822e-07
-4.46895e-08
1.97658e-07
1.08654e-07
1.27688e-07
1.91334e-07
4.44199e-08
2.16594e-07
1.68821e-07
-2.65071e-09
-1.44202e-08
3.97421e-08
-2.86951e-08
3.88937e-08
-4.26425e-08
3.72259e-08
-5.59503e-08
3.45767e-08
-6.69916e-08
2.72975e-08
-7.35624e-08
1.36541e-08
-7.27672e-08
-8.22756e-09
-6.18026e-08
-3.78758e-08
-3.86373e-08
-7.30485e-08
-2.56706e-09
-1.08338e-07
4.2291e-08
-1.33806e-07
9.23161e-08
-1.48811e-07
1.4222e-07
-1.49567e-07
1.86113e-07
-1.33065e-07
2.24633e-07
-1.26495e-07
2.41915e-07
-4.36033e-08
2.55094e-07
-1.11864e-07
2.52829e-07
2.01425e-07
1.52025e-07
6.3741e-07
-5.19068e-08
6.97429e-07
-9.58525e-08
1.81669e-07
-2.76339e-08
-1.96009e-07
5.82582e-08
-4.6365e-07
6.20436e-08
-5.57829e-07
7.90679e-08
-3.33119e-07
1.01453e-07
-6.70741e-08
9.42629e-08
1.15844e-07
7.85051e-08
2.07092e-07
3.80073e-08
2.57092e-07
2.00309e-07
6.5188e-09
-1.44469e-08
5.4189e-08
-2.87721e-08
5.32189e-08
-4.28036e-08
5.12575e-08
-5.6257e-08
4.80301e-08
-6.75386e-08
3.85791e-08
-7.44518e-08
2.05673e-08
-7.41007e-08
-8.57868e-09
-6.36295e-08
-4.83471e-08
-4.08695e-08
-9.58084e-08
-5.05441e-09
-1.44153e-07
3.99231e-08
-1.78783e-07
9.01659e-08
-1.99054e-07
1.40151e-07
-1.99552e-07
1.84947e-07
-1.77861e-07
2.20123e-07
-1.61671e-07
2.47354e-07
-7.08346e-08
2.36212e-07
-1.00723e-07
2.65782e-07
1.71856e-07
3.52494e-07
5.50697e-07
2.66239e-07
7.83683e-07
1.6507e-07
2.82838e-07
7.14953e-08
-1.02435e-07
6.90541e-08
-4.61209e-07
1.05168e-07
-5.93943e-07
6.09933e-08
-2.88944e-07
5.57096e-08
-6.17904e-08
1.09052e-07
6.25011e-08
1.21477e-07
1.94667e-07
8.76084e-08
2.90961e-07
3.01268e-07
-1.33501e-08
-1.44336e-08
6.86226e-08
-2.87629e-08
6.75483e-08
-4.2816e-08
6.53106e-08
-5.63361e-08
6.15502e-08
-6.77688e-08
5.00118e-08
-7.49249e-08
2.77234e-08
-7.49213e-08
-8.58231e-09
-6.48574e-08
-5.8411e-08
-4.24205e-08
-1.18245e-07
-6.71952e-09
-1.79854e-07
3.84619e-08
-2.23965e-07
8.92429e-08
-2.49835e-07
1.3992e-07
-2.50228e-07
1.86432e-07
-2.24373e-07
2.19371e-07
-1.9461e-07
2.59777e-07
-1.1124e-07
2.32338e-07
-7.3285e-08
2.81533e-07
1.22661e-07
4.7091e-07
3.61321e-07
4.96708e-07
7.57885e-07
4.60342e-07
3.19204e-07
3.681e-07
-1.01929e-08
2.1935e-07
-3.12459e-07
1.10213e-07
-4.84805e-07
7.89962e-08
-2.57728e-07
3.84884e-08
-2.12825e-08
4.68041e-08
5.41854e-08
6.88888e-08
1.72583e-07
5.72483e-08
3.02601e-07
3.51215e-07
7.30096e-09
-1.44114e-08
8.3034e-08
-2.87389e-08
8.18758e-08
-4.28082e-08
7.93798e-08
-5.63959e-08
7.51379e-08
-6.79966e-08
6.16126e-08
-7.54307e-08
3.51574e-08
-7.58352e-08
-8.1778e-09
-6.62648e-08
-6.79814e-08
-4.42318e-08
-1.40278e-07
-8.66679e-09
-2.15419e-07
3.67697e-08
-2.69401e-07
8.82342e-08
-3.013e-07
1.39815e-07
-3.01809e-07
1.88376e-07
-2.72934e-07
2.20602e-07
-2.26837e-07
2.73535e-07
-1.64173e-07
2.6158e-07
-6.13299e-08
2.78099e-07
1.06142e-07
5.02217e-07
1.37202e-07
5.95638e-07
6.64464e-07
5.70296e-07
3.44547e-07
4.67675e-07
9.24278e-08
3.40943e-07
-1.85726e-07
2.33408e-07
-3.7727e-07
2.04913e-07
-2.29233e-07
9.64699e-08
8.71605e-08
1.091e-08
1.39745e-07
1.43574e-08
1.69135e-07
8.19562e-09
3.08763e-07
3.62281e-07
-2.87047e-09
-1.43835e-08
9.74175e-08
-2.87075e-08
9.61998e-08
-4.27938e-08
9.34661e-08
-5.64595e-08
8.88036e-08
-6.82591e-08
7.34121e-08
-7.60236e-08
4.29219e-08
-7.6919e-08
-7.28243e-09
-6.79499e-08
-7.69505e-08
-4.64168e-08
-1.61812e-07
-1.10151e-08
-2.50821e-07
3.4708e-08
-3.15124e-07
8.69738e-08
-3.53566e-07
1.39761e-07
-3.54596e-07
1.90245e-07
-3.23419e-07
2.23306e-07
-2.59897e-07
2.8682e-07
-2.27687e-07
2.75875e-07
-5.03849e-08
2.67397e-07
1.14619e-07
5.06489e-07
-1.01889e-07
6.3298e-07
5.37972e-07
5.94712e-07
3.82815e-07
4.94458e-07
1.92682e-07
3.03344e-07
5.38788e-09
1.25147e-07
-1.99073e-07
4.03874e-08
-1.44474e-07
-2.33966e-08
1.50945e-07
-8.25912e-08
1.9894e-07
-8.02897e-08
1.66834e-07
-4.71234e-08
2.75597e-07
3.19491e-07
-4.33263e-09
-1.43501e-08
1.11768e-07
-2.86692e-08
1.10519e-07
-4.27738e-08
1.07571e-07
-5.65282e-08
1.02558e-07
-6.85583e-08
8.54422e-08
-7.67069e-08
5.10705e-08
-7.81786e-08
-5.8107e-09
-6.99243e-08
-8.52047e-08
-4.89928e-08
-1.82743e-07
-1.37869e-08
-2.86027e-07
3.228e-08
-3.61191e-07
8.54443e-08
-4.0673e-07
1.39712e-07
-4.08864e-07
1.9166e-07
-3.75367e-07
2.30044e-07
-2.98282e-07
2.94996e-07
-2.92639e-07
3.19898e-07
-7.52874e-08
2.53842e-07
1.80675e-07
4.83119e-07
-3.31166e-07
7.081e-07
3.12992e-07
6.67642e-07
4.23272e-07
6.02319e-07
2.58005e-07
4.88785e-07
1.18922e-07
2.81469e-07
8.24345e-09
1.29459e-07
7.53586e-09
4.56234e-08
2.34781e-07
-3.39371e-08
2.78501e-07
-8.77248e-08
2.20622e-07
-6.25661e-08
2.50438e-07
2.53611e-07
3.31343e-09
-1.43111e-08
1.26079e-07
-2.8624e-08
1.24832e-07
-4.27475e-08
1.21694e-07
-5.66002e-08
1.16411e-07
-6.88924e-08
9.77343e-08
-7.74779e-08
5.96561e-08
-7.96126e-08
-3.67601e-09
-7.21913e-08
-9.2626e-08
-5.19694e-08
-2.02965e-07
-1.69964e-08
-3.21e-07
2.94307e-08
-4.07618e-07
8.3614e-08
-4.60913e-07
1.39625e-07
-4.64874e-07
1.91941e-07
-4.27683e-07
2.42512e-07
-3.48853e-07
2.86e-07
-3.36126e-07
3.56017e-07
-1.45305e-07
3.74012e-07
1.6268e-07
4.85946e-07
-4.431e-07
7.08476e-07
9.0462e-08
7.26555e-07
4.05193e-07
6.91346e-07
2.93214e-07
6.57297e-07
1.5297e-07
5.43531e-07
1.22009e-07
3.9604e-07
1.55028e-07
3.02635e-07
3.28185e-07
1.76585e-07
4.0455e-07
3.87376e-08
3.58469e-07
6.51908e-09
2.82657e-07
2.45388e-07
1.47427e-08
-1.42664e-08
1.40345e-07
-2.85715e-08
1.39137e-07
-4.27143e-08
1.35837e-07
-5.66737e-08
1.3037e-07
-6.92587e-08
1.10319e-07
-7.83328e-08
6.87303e-08
-8.12175e-08
-7.91319e-10
-7.4753e-08
-9.90905e-08
-5.53565e-08
-2.22362e-07
-2.06617e-08
-3.55695e-07
2.61677e-08
-4.54448e-07
8.144e-08
-5.16186e-07
1.39453e-07
-5.22887e-07
1.92066e-07
-4.80297e-07
2.54449e-07
-4.11236e-07
2.67174e-07
-3.48851e-07
3.62497e-07
-2.40628e-07
5.02329e-07
2.28488e-08
4.48103e-07
-3.88874e-07
4.86653e-07
5.19116e-08
6.05045e-07
2.86801e-07
6.8775e-07
2.10509e-07
6.67643e-07
1.73078e-07
5.86633e-07
2.03019e-07
4.76638e-07
2.65022e-07
3.68253e-07
4.36571e-07
2.17755e-07
5.55048e-07
6.52094e-08
5.11015e-07
-1.03561e-08
3.58222e-07
2.43541e-07
-8.50897e-09
-1.42158e-08
1.54561e-07
-2.85117e-08
1.53433e-07
-4.26733e-08
1.49999e-07
-5.67463e-08
1.44443e-07
-6.96543e-08
1.23227e-07
-7.92665e-08
7.83425e-08
-8.299e-08
2.93214e-09
-7.76121e-08
-1.04468e-07
-5.91661e-08
-2.40808e-07
-2.48015e-08
-3.9006e-07
2.24478e-08
-5.01697e-07
7.90063e-08
-5.72744e-07
1.38799e-07
-5.8268e-07
1.93209e-07
-5.34707e-07
2.58834e-07
-4.76862e-07
2.62966e-07
-3.52983e-07
3.80534e-07
-3.58196e-07
5.19956e-07
-1.16573e-07
4.08285e-07
-2.77203e-07
4.73173e-07
-1.29764e-08
6.17398e-07
1.42577e-07
7.18093e-07
1.09814e-07
7.12005e-07
1.79165e-07
6.3786e-07
2.77164e-07
4.64392e-07
4.3849e-07
3.25514e-07
5.75449e-07
2.09252e-07
6.7131e-07
1.1053e-07
6.09737e-07
4.04216e-08
4.2833e-07
2.91424e-07
-7.46174e-09
-1.41594e-08
1.6872e-07
-2.84443e-08
1.67718e-07
-4.26239e-08
1.64178e-07
-5.68152e-08
1.58634e-07
-7.0076e-08
1.36488e-07
-8.02731e-08
8.85396e-08
-8.4926e-08
7.58505e-09
-8.07707e-08
-1.08624e-07
-6.34102e-08
-2.58168e-07
-2.94382e-08
-4.24032e-07
1.82396e-08
-5.49375e-07
7.61752e-08
-6.3068e-07
1.37877e-07
-6.44382e-07
1.95702e-07
-5.92532e-07
2.54189e-07
-5.35349e-07
3.01089e-07
-3.99883e-07
3.58405e-07
-4.15512e-07
4.86536e-07
-2.44705e-07
4.62183e-07
-2.5285e-07
6.41649e-07
-1.92442e-07
7.54478e-07
2.97474e-08
8.52186e-07
1.21058e-08
8.26806e-07
2.04546e-07
6.6241e-07
4.4156e-07
4.41354e-07
6.59545e-07
2.72356e-07
7.44448e-07
2.11516e-07
7.3215e-07
1.7271e-07
6.48543e-07
1.04247e-07
4.96794e-07
3.95279e-07
3.91618e-10
-1.40969e-08
1.82817e-07
-2.83692e-08
1.8199e-07
-4.25671e-08
1.78376e-07
-5.68774e-08
1.72945e-07
-7.052e-08
1.50131e-07
-8.13468e-08
9.93664e-08
-8.702e-08
1.32582e-08
-8.42322e-08
-1.11411e-07
-6.81029e-08
-2.74297e-07
-3.45976e-08
-4.57537e-07
1.35365e-08
-5.97509e-07
7.29664e-08
-6.9011e-07
1.36734e-07
-7.0815e-07
1.97405e-07
-6.53202e-07
2.52338e-07
-5.90282e-07
3.13848e-07
-4.61392e-07
3.69149e-07
-4.70813e-07
3.97335e-07
-2.7289e-07
4.89635e-07
-3.4515e-07
8.11457e-07
-5.14265e-07
9.36741e-07
-9.55367e-08
9.88606e-07
-3.97592e-08
8.69412e-07
3.23741e-07
6.01723e-07
7.09249e-07
4.53286e-07
8.07982e-07
3.54338e-07
8.43396e-07
2.69502e-07
8.16986e-07
2.02735e-07
7.1531e-07
1.10992e-07
5.88536e-07
5.09771e-07
-3.50025e-09
-1.40281e-08
1.96845e-07
-2.8286e-08
1.96248e-07
-4.25031e-08
1.92593e-07
-5.69292e-08
1.87371e-07
-7.09825e-08
1.64184e-07
-8.24803e-08
1.10864e-07
-8.92641e-08
2.00419e-08
-8.79981e-08
-1.12677e-07
-7.32601e-08
-2.89035e-07
-4.03094e-08
-4.90488e-07
8.3368e-09
-6.46155e-07
6.93054e-08
-7.51078e-07
1.35387e-07
-7.74232e-07
1.98466e-07
-7.16281e-07
2.51978e-07
-6.43794e-07
3.22318e-07
-5.31733e-07
3.60083e-07
-5.08578e-07
3.78841e-07
-2.91649e-07
6.18792e-07
-5.851e-07
8.29164e-07
-7.24637e-07
1.00749e-06
-2.73862e-07
1.07403e-06
-1.06299e-07
9.14531e-07
4.8324e-07
7.45141e-07
8.78638e-07
6.26071e-07
9.27052e-07
4.50156e-07
1.01931e-06
3.10235e-07
9.56907e-07
1.87966e-07
8.37579e-07
9.16383e-08
6.84864e-07
5.99377e-07
2.03225e-09
-1.3953e-08
2.10798e-07
-2.81944e-08
2.10489e-07
-4.24317e-08
2.0683e-07
-5.69666e-08
2.01906e-07
-7.14592e-08
1.78677e-07
-8.36654e-08
1.23071e-07
-9.16513e-08
2.80278e-08
-9.20714e-08
-1.12257e-07
-7.88969e-08
-3.0221e-07
-4.66072e-08
-5.22777e-07
2.47344e-09
-6.95236e-07
6.52272e-08
-8.13832e-07
1.33869e-07
-8.42873e-07
1.98701e-07
-7.81113e-07
2.52608e-07
-6.97701e-07
3.29032e-07
-6.08157e-07
3.22996e-07
-5.02541e-07
4.26224e-07
-3.94877e-07
7.70907e-07
-9.29784e-07
8.23813e-07
-7.77543e-07
9.95444e-07
-4.45492e-07
1.10121e-06
-2.1207e-07
8.50955e-07
7.335e-07
6.3255e-07
1.09704e-06
4.96919e-07
1.06268e-06
3.85416e-07
1.13082e-06
2.86057e-07
1.05627e-06
1.77654e-07
9.45982e-07
8.70819e-08
7.75436e-07
6.85416e-07
1.04266e-09
-1.38714e-08
2.2467e-07
-2.80943e-08
2.24712e-07
-4.23525e-08
2.21089e-07
-5.69871e-08
2.1654e-07
-7.19456e-08
1.93635e-07
-8.4892e-08
1.36017e-07
-9.41704e-08
3.73062e-08
-9.64528e-08
-1.09975e-07
-8.50312e-08
-3.13632e-07
-5.3535e-08
-5.54274e-07
-4.431e-09
-7.4434e-07
6.05644e-08
-8.78827e-07
1.3184e-07
-9.14149e-07
1.97643e-07
-8.46916e-07
2.54292e-07
-7.5435e-07
3.30275e-07
-6.84141e-07
2.7619e-07
-4.48456e-07
4.56011e-07
-5.74698e-07
7.54633e-07
-1.22841e-06
7.70607e-07
-7.93517e-07
1.12719e-06
-8.02079e-07
1.07968e-06
-1.64557e-07
5.38807e-07
1.27437e-06
3.11917e-07
1.32393e-06
2.33892e-07
1.14071e-06
2.09721e-07
1.15499e-06
1.79694e-07
1.08629e-06
1.10163e-07
1.01551e-06
4.53284e-08
8.4027e-07
7.33513e-07
-2.7683e-09
-1.37832e-08
2.38453e-07
-2.79854e-08
2.38914e-07
-4.22649e-08
2.35368e-07
-5.69903e-08
2.31266e-07
-7.24371e-08
2.09082e-07
-8.61489e-08
1.49729e-07
-9.68095e-08
4.79668e-08
-1.01143e-07
-1.05641e-07
-9.16798e-08
-3.23095e-07
-6.1124e-08
-5.84829e-07
-1.18533e-08
-7.93611e-07
5.50872e-08
-9.45768e-07
1.28364e-07
-9.87426e-07
1.93369e-07
-9.11921e-07
2.55561e-07
-8.16542e-07
3.28541e-07
-7.57121e-07
3.17058e-07
-4.36972e-07
5.23232e-07
-7.80872e-07
6.14468e-07
-1.31964e-06
6.10584e-07
-7.89633e-07
1.38075e-06
-1.57225e-06
4.869e-07
7.29298e-07
-1.47622e-07
1.90889e-06
-1.23334e-08
1.18864e-06
-3.01448e-08
1.15852e-06
-3.34048e-08
1.15825e-06
-6.89787e-09
1.05979e-06
1.40083e-09
1.00721e-06
-1.25992e-08
8.5427e-07
7.2898e-07
-8.06673e-09
-1.36881e-08
2.52141e-07
-2.78677e-08
2.53094e-07
-4.21681e-08
2.49668e-07
-5.69747e-08
2.46072e-07
-7.29289e-08
2.25036e-07
-8.74224e-08
1.64222e-07
-9.95498e-08
6.00942e-08
-1.0614e-07
-9.90511e-08
-9.88609e-08
-3.30374e-07
-6.94148e-08
-6.14276e-07
-2.00616e-08
-8.42964e-07
4.81707e-08
-1.014e-06
1.21348e-07
-1.0606e-06
1.82028e-07
-9.72601e-07
2.52195e-07
-8.86709e-07
3.05643e-07
-8.10569e-07
4.13791e-07
-5.45121e-07
6.19156e-07
-9.86236e-07
5.3985e-07
-1.24034e-06
6.46278e-07
-8.96061e-07
1.69861e-06
-2.62458e-06
1.36874e-06
1.05917e-06
-1.27427e-07
3.40506e-06
-2.52367e-07
1.31358e-06
-1.73301e-07
1.07945e-06
-1.59338e-07
1.14428e-06
-1.26121e-07
1.02657e-06
-5.58862e-08
9.3698e-07
-4.50421e-08
8.43426e-07
6.92046e-07
-8.10803e-09
-1.35857e-08
2.65727e-07
-2.7741e-08
2.67249e-07
-4.20615e-08
2.63989e-07
-5.69384e-08
2.60949e-07
-7.34163e-08
2.41514e-07
-8.86968e-08
1.79503e-07
-1.02367e-07
7.37642e-08
-1.11439e-07
-8.99792e-08
-1.06596e-07
-3.35217e-07
-7.84637e-08
-6.42408e-07
-2.93701e-08
-8.92057e-07
3.80543e-08
-1.08142e-06
1.07317e-07
-1.12987e-06
1.61098e-07
-1.02638e-06
2.36297e-07
-9.61907e-07
2.7699e-07
-8.51262e-07
4.64703e-07
-7.32833e-07
6.33207e-07
-1.15474e-06
4.28413e-07
-1.03554e-06
1.08725e-06
-1.55489e-06
1.36984e-07
-1.67432e-06
2.67254e-07
9.28904e-07
4.85056e-07
3.18726e-06
-2.43502e-07
2.04214e-06
-1.88848e-07
1.0248e-06
-1.26518e-07
1.08195e-06
-1.05097e-07
1.00515e-06
-5.09199e-08
8.82803e-07
-2.01221e-08
8.12628e-07
6.59705e-07
1.22195e-08
-1.34754e-08
2.79202e-07
-2.7605e-08
2.81379e-07
-4.19438e-08
2.78328e-07
-5.68793e-08
2.75885e-07
-7.38951e-08
2.5853e-07
-8.99526e-08
1.9556e-07
-1.05219e-07
8.90306e-08
-1.17052e-07
-7.81466e-08
-1.14912e-07
-3.37356e-07
-8.83686e-08
-6.68951e-07
-4.03638e-08
-9.40062e-07
2.28387e-08
-1.14463e-06
8.50806e-08
-1.19211e-06
1.36406e-07
-1.07771e-06
2.10911e-07
-1.03641e-06
2.65287e-07
-9.05639e-07
4.45299e-07
-9.12845e-07
5.33475e-07
-1.24292e-06
5.92386e-07
-1.09445e-06
1.11456e-07
-1.07396e-06
-1.8666e-07
-1.3762e-06
9.93401e-07
-2.51166e-07
9.01688e-07
3.27897e-06
4.65096e-07
2.47873e-06
-2.19066e-07
1.70896e-06
-6.44752e-08
9.27361e-07
-4.8466e-08
9.89139e-07
-3.44636e-08
8.688e-07
3.62307e-09
7.74542e-07
6.50596e-07
1.27314e-08
-1.33566e-08
2.92559e-07
-2.74597e-08
2.95482e-07
-4.18137e-08
2.92682e-07
-5.67952e-08
2.90866e-07
-7.43641e-08
2.76099e-07
-9.11695e-08
2.12366e-07
-1.08108e-07
1.05969e-07
-1.22979e-07
-6.32754e-08
-1.23824e-07
-3.36512e-07
-9.9273e-08
-6.93502e-07
-5.38426e-08
-9.85493e-07
4.31534e-09
-1.20279e-06
6.22924e-08
-1.25008e-06
1.24723e-07
-1.14014e-06
1.86299e-07
-1.09799e-06
2.86007e-07
-1.00535e-06
3.5468e-07
-9.81518e-07
3.97974e-07
-1.28621e-06
5.92423e-07
-1.2889e-06
6.54236e-07
-1.13578e-06
1.75535e-07
-8.97498e-07
2.58198e-07
-3.33829e-07
8.72199e-07
2.66497e-06
8.63194e-07
2.48774e-06
3.97836e-07
2.17432e-06
1.52992e-07
1.17221e-06
2.92192e-08
1.11291e-06
6.60899e-10
8.97359e-07
2.51498e-08
7.50053e-07
6.6767e-07
8.07612e-09
-1.32284e-08
3.05787e-07
-2.73051e-08
3.09558e-07
-4.16693e-08
3.07046e-07
-5.66837e-08
3.05881e-07
-7.48248e-08
2.9424e-07
-9.23577e-08
2.29899e-07
-1.1104e-07
1.24651e-07
-1.29239e-07
-4.50763e-08
-1.33413e-07
-3.32338e-07
-1.11488e-07
-7.15427e-07
-7.00579e-08
-1.02692e-06
-1.45613e-08
-1.25828e-06
5.30969e-08
-1.31774e-06
1.26125e-07
-1.21317e-06
1.68927e-07
-1.14079e-06
2.7999e-07
-1.11641e-06
2.70087e-07
-9.71616e-07
2.84095e-07
-1.30022e-06
2.45753e-06
-3.46234e-06
2.48816e-06
-1.16641e-06
1.38137e-06
2.09291e-07
3.55868e-07
6.91682e-07
6.98151e-07
2.32269e-06
8.97182e-07
2.2887e-06
8.13124e-07
2.25838e-06
5.11601e-07
1.47373e-06
3.43033e-07
1.28148e-06
2.03427e-07
1.03696e-06
1.13814e-07
8.39665e-07
7.86428e-07
-4.94389e-09
-1.30897e-08
3.18877e-07
-2.71417e-08
3.2361e-07
-4.15084e-08
3.21413e-07
-5.65425e-08
3.20915e-07
-7.52785e-08
3.12976e-07
-9.35231e-08
2.48143e-07
-1.14022e-07
1.4515e-07
-1.35801e-07
-2.32967e-08
-1.43597e-07
-3.24542e-07
-1.24807e-07
-7.34217e-07
-8.67097e-08
-1.06502e-06
-2.4677e-08
-1.32031e-06
6.25458e-08
-1.40497e-06
1.14215e-07
-1.26484e-06
1.58567e-07
-1.18514e-06
2.10749e-07
-1.16859e-06
3.37039e-07
-1.09791e-06
6.47345e-07
-1.61052e-06
-4.74961e-07
-2.34003e-06
-3.4478e-07
-1.29659e-06
1.99876e-08
-1.55474e-07
-7.30809e-08
7.84745e-07
4.37548e-07
1.81206e-06
7.21179e-07
2.00507e-06
9.39528e-07
2.04003e-06
7.72542e-07
1.64072e-06
6.64076e-07
1.38995e-06
5.02123e-07
1.19892e-06
2.41985e-07
1.0998e-06
1.04141e-06
-1.29977e-08
-1.29395e-08
3.31816e-07
-2.69701e-08
3.37641e-07
-4.13279e-08
3.35771e-07
-5.63689e-08
3.35956e-07
-7.57224e-08
3.32329e-07
-9.46405e-08
2.67061e-07
-1.17014e-07
1.67523e-07
-1.42733e-07
2.42232e-09
-1.54739e-07
-3.12536e-07
-1.39835e-07
-7.49121e-07
-1.03381e-07
-1.10147e-06
-3.42666e-08
-1.38943e-06
5.99544e-08
-1.49919e-06
7.40941e-08
-1.27898e-06
1.58348e-07
-1.2694e-06
1.33498e-07
-1.14374e-06
3.59893e-07
-1.3243e-06
1.19969e-06
-2.45032e-06
8.44519e-07
-1.98485e-06
3.84503e-07
-8.36578e-07
1.37523e-07
9.15045e-08
-2.91091e-08
9.51368e-07
2.74892e-07
1.50806e-06
5.73378e-07
1.70659e-06
8.6043e-07
1.75299e-06
8.31346e-07
1.6698e-06
6.74785e-07
1.54651e-06
4.4922e-07
1.42449e-06
2.03516e-07
1.34551e-06
1.25653e-06
-1.16039e-08
-1.27766e-08
3.44593e-07
-2.67916e-08
3.51656e-07
-4.11253e-08
3.50104e-07
-5.61622e-08
3.50993e-07
-7.616e-08
3.52327e-07
-9.57046e-08
2.86606e-07
-1.2004e-07
1.91858e-07
-1.4987e-07
3.22517e-08
-1.65914e-07
-2.96492e-07
-1.53881e-07
-7.61154e-07
-1.16958e-07
-1.1384e-06
-4.97219e-08
-1.45667e-06
3.94321e-08
-1.58834e-06
6.64794e-08
-1.30602e-06
1.5205e-07
-1.35497e-06
1.07093e-07
-1.09878e-06
4.19106e-07
-1.63631e-06
1.90654e-06
-3.93776e-06
8.96902e-07
-9.75218e-07
5.73758e-07
-5.13439e-07
4.79345e-07
1.8591e-07
2.40129e-07
1.19058e-06
2.92687e-07
1.45551e-06
4.83801e-07
1.51548e-06
6.95217e-07
1.54157e-06
7.09278e-07
1.65575e-06
5.8016e-07
1.67563e-06
3.83863e-07
1.62078e-06
1.78278e-07
1.55109e-06
1.44623e-06
-1.1417e-08
-1.25996e-08
3.57193e-07
-2.66071e-08
3.65663e-07
-4.08946e-08
3.64392e-07
-5.59136e-08
3.66012e-07
-7.65728e-08
3.72986e-07
-9.66493e-08
3.06682e-07
-1.2299e-07
2.18199e-07
-1.57603e-07
6.6865e-08
-1.79297e-07
-2.74797e-07
-1.71663e-07
-7.68788e-07
-1.36922e-07
-1.17314e-06
-7.45935e-08
-1.51899e-06
3.09434e-08
-1.69388e-06
9.09798e-08
-1.36606e-06
5.76749e-08
-1.32166e-06
4.49583e-07
-1.49069e-06
3.14536e-07
-1.50127e-06
-5.26286e-07
-3.09694e-06
-7.29066e-07
-7.72441e-07
-6.24143e-08
-1.1801e-06
2.83494e-07
-1.59999e-07
1.96641e-07
1.27745e-06
2.6592e-07
1.38623e-06
3.94732e-07
1.38666e-06
5.18401e-07
1.41791e-06
5.4391e-07
1.63024e-06
4.59449e-07
1.76009e-06
3.09793e-07
1.77044e-06
1.47264e-07
1.71362e-06
1.59909e-06
-5.60214e-09
-1.24108e-08
3.69603e-07
-2.64215e-08
3.79674e-07
-4.06394e-08
3.7861e-07
-5.56424e-08
3.81015e-07
-7.70017e-08
3.94346e-07
-9.75376e-08
3.27218e-07
-1.25906e-07
2.46568e-07
-1.64801e-07
1.0576e-07
-1.88633e-07
-2.50966e-07
-1.80522e-07
-7.769e-07
-1.4823e-07
-1.20543e-06
-7.72889e-08
-1.58993e-06
7.16805e-08
-1.84285e-06
8.59281e-08
-1.38031e-06
1.01461e-07
-1.33719e-06
5.71304e-07
-1.96054e-06
1.88359e-06
-2.81356e-06
2.75739e-06
-3.97073e-06
2.41712e-06
-4.32166e-07
6.61775e-07
5.75249e-07
2.97021e-07
2.04759e-07
3.68808e-07
1.20566e-06
3.23422e-07
1.43161e-06
3.48353e-07
1.36173e-06
3.90617e-07
1.37564e-06
4.02292e-07
1.61857e-06
3.47055e-07
1.81533e-06
2.39989e-07
1.87751e-06
1.20699e-07
1.83292e-06
1.71489e-06
4.9052e-09
-1.22363e-08
3.8184e-07
-2.62213e-08
3.93659e-07
-4.03206e-08
3.92709e-07
-5.5261e-08
3.95955e-07
-7.72958e-08
4.1638e-07
-9.81814e-08
3.48104e-07
-1.28617e-07
2.77003e-07
-1.73221e-07
1.50364e-07
-2.07836e-07
-2.1635e-07
-2.16064e-07
-7.68672e-07
-1.8673e-07
-1.23476e-06
-9.03407e-08
-1.68632e-06
7.73864e-08
-2.01057e-06
7.66452e-09
-1.31059e-06
4.30548e-07
-1.76008e-06
1.89826e-06
-3.42825e-06
2.66554e-06
-3.58083e-06
1.34124e-06
-2.64644e-06
7.89432e-07
1.19645e-07
3.33998e-07
1.03068e-06
-1.4058e-07
6.79337e-07
2.12617e-07
8.52461e-07
2.93674e-07
1.35056e-06
3.18474e-07
1.33693e-06
2.73454e-07
1.42066e-06
2.67795e-07
1.62423e-06
2.37549e-07
1.84557e-06
1.71968e-07
1.94309e-06
9.38655e-08
1.91102e-06
1.79267e-06
1.60787e-08
-1.27737e-08
3.94613e-07
-2.62641e-08
4.0715e-07
-4.0456e-08
4.06901e-07
-5.56198e-08
4.11119e-07
-7.82627e-08
4.39023e-07
-9.87932e-08
3.68634e-07
-1.3137e-07
3.0958e-07
-1.84099e-07
2.03093e-07
-2.1925e-07
-1.81199e-07
-2.05723e-07
-7.82199e-07
-1.51757e-07
-1.28873e-06
-4.82999e-08
-1.78978e-06
1.30451e-07
-2.18932e-06
5.08899e-07
-1.68903e-06
2.18438e-06
-3.43556e-06
2.45685e-06
-3.70072e-06
2.92232e-06
-4.04631e-06
2.19271e-06
-1.91682e-06
1.10846e-06
1.20389e-06
4.73423e-07
1.66572e-06
3.78896e-07
7.73863e-07
4.90995e-07
7.40358e-07
3.92936e-07
1.44862e-06
3.7834e-07
1.35153e-06
2.22724e-07
1.57628e-06
1.69098e-07
1.67785e-06
1.46078e-07
1.8686e-06
1.1137e-07
1.9778e-06
6.89766e-08
1.95341e-06
1.83546e-06
2.61905e-08
1.00152e-08
3.84598e-07
-1.85186e-08
4.35683e-07
-3.16382e-08
4.20021e-07
-4.69093e-08
4.2639e-07
-7.32519e-08
4.65366e-07
-9.92914e-08
3.94674e-07
-1.3511e-07
3.45398e-07
-1.8268e-07
2.50663e-07
-2.14131e-07
-1.49748e-07
-2.31738e-07
-7.64592e-07
-2.50388e-07
-1.27008e-06
-2.32374e-07
-1.8078e-06
-1.36837e-08
-2.40801e-06
2.08413e-06
-3.78685e-06
2.38757e-06
-3.739e-06
2.46411e-06
-3.77726e-06
2.13821e-06
-3.72041e-06
1.62335e-06
-1.40196e-06
1.10112e-06
1.72612e-06
7.43862e-07
2.02297e-06
5.16558e-07
1.00117e-06
4.11058e-07
8.45855e-07
3.32475e-07
1.5272e-06
1.8747e-07
1.49654e-06
9.24475e-08
1.6713e-06
4.10244e-08
1.72928e-06
4.07257e-08
1.8689e-06
4.39349e-08
1.97459e-06
3.89774e-08
1.95837e-06
3.22454e-08
1.84219e-06
-1.21728e-07
1.20583e-07
-2.53924e-07
1.32196e-07
-3.75695e-07
1.21771e-07
-4.28167e-07
5.24721e-08
-3.85437e-07
-4.27294e-08
-2.05644e-07
-1.79794e-07
1.66989e-07
-3.72632e-07
3.49144e-07
-1.82155e-07
3.69341e-07
-2.01975e-08
3.31658e-07
3.76834e-08
1.06481e-07
2.25177e-07
-1.89056e-07
2.95537e-07
-3.21574e-07
1.32518e-07
-2.66882e-07
-5.46923e-08
-2.56717e-07
-1.01646e-08
-2.12796e-07
-4.39211e-08
-1.69684e-07
-4.31118e-08
-1.21833e-07
-4.7852e-08
-7.44145e-08
-4.74181e-08
-3.14068e-08
-4.30077e-08
3.46159e-09
-3.48684e-08
2.86667e-08
-2.52051e-08
4.30892e-08
-1.44226e-08
4.83327e-08
-5.2434e-09
4.66674e-08
1.66529e-09
4.05368e-08
6.13051e-09
3.18849e-08
8.65189e-09
2.20085e-08
9.87645e-09
1.1252e-08
1.07565e-08
1.1252e-08
-5.00379e-08
1.6797e-07
-1.32863e-07
2.15022e-07
-2.01613e-07
1.9052e-07
-2.57043e-07
1.07902e-07
-2.545e-07
-4.52717e-08
-1.17712e-07
-3.16582e-07
6.31206e-08
-5.53465e-07
2.57848e-07
-3.76883e-07
3.66778e-07
-1.29127e-07
2.67875e-07
1.36586e-07
1.18664e-10
4.92934e-07
-2.39911e-07
5.35566e-07
-3.06105e-07
1.98712e-07
-2.61809e-07
-9.89877e-08
-2.45686e-07
-2.62884e-08
-2.01688e-07
-8.79188e-08
-1.55705e-07
-8.90952e-08
-1.04011e-07
-9.95456e-08
-5.27398e-08
-9.86893e-08
-6.92046e-09
-8.8827e-08
3.03818e-08
-7.21706e-08
5.49257e-08
-4.9749e-08
6.72687e-08
-2.67656e-08
6.9347e-08
-7.32172e-09
6.39183e-08
7.09394e-09
5.38409e-08
1.6208e-08
4.13255e-08
2.11673e-08
2.79455e-08
2.32564e-08
1.4094e-08
2.46081e-08
2.5346e-08
-3.04999e-08
2.04989e-07
-7.64507e-08
2.60972e-07
-9.33109e-08
2.0738e-07
-1.0261e-07
1.17201e-07
-8.09864e-08
-6.68949e-08
-6.40306e-08
-3.33537e-07
-6.07921e-08
-5.56704e-07
2.50792e-08
-4.62754e-07
9.35777e-08
-1.97626e-07
4.97328e-08
1.80431e-07
-1.53013e-07
6.9568e-07
-2.52698e-07
6.35251e-07
-2.54769e-07
2.00783e-07
-2.4161e-07
-1.12146e-07
-2.24209e-07
-4.36897e-08
-1.85734e-07
-1.26394e-07
-1.41869e-07
-1.32959e-07
-9.20248e-08
-1.4939e-07
-4.2047e-08
-1.48667e-07
2.75633e-09
-1.3363e-07
3.8761e-08
-1.08175e-07
6.18543e-08
-7.28424e-08
7.27399e-08
-3.76512e-08
7.34768e-08
-8.05856e-09
6.69028e-08
1.36679e-08
5.58889e-08
2.72219e-08
4.26381e-08
3.4418e-08
2.8702e-08
3.71925e-08
1.44328e-08
3.88772e-08
3.97788e-08
-1.05729e-07
2.97367e-07
-1.32419e-07
2.87663e-07
-1.15666e-07
1.90628e-07
-6.07847e-08
6.23192e-08
-6.46219e-08
-6.30576e-08
-1.06748e-07
-2.91411e-07
-7.124e-08
-5.92212e-07
-7.21689e-08
-4.61825e-07
-1.65198e-07
-1.04596e-07
-2.67388e-07
2.82621e-07
-3.53659e-07
7.81951e-07
-2.65519e-07
5.4711e-07
-2.35798e-07
1.71063e-07
-2.47091e-07
-1.00853e-07
-2.19672e-07
-7.11093e-08
-1.84572e-07
-1.61494e-07
-1.39798e-07
-1.77734e-07
-8.98763e-08
-1.99312e-07
-3.96791e-08
-1.98864e-07
5.24192e-09
-1.78551e-07
4.09944e-08
-1.43928e-07
6.36816e-08
-9.55296e-08
7.40727e-08
-4.80422e-08
7.43643e-08
-8.35023e-09
6.74482e-08
2.0584e-08
5.61952e-08
3.8475e-08
4.27998e-08
4.78134e-08
2.87793e-08
5.12129e-08
1.44597e-08
5.3197e-08
5.42384e-08
-4.76179e-08
3.52286e-07
-5.91905e-08
2.99236e-07
-3.96446e-08
1.71082e-07
-3.62425e-08
5.89172e-08
-7.99611e-08
-1.9339e-08
-1.13431e-07
-2.57941e-07
-2.19763e-07
-4.8588e-07
-3.65575e-07
-3.16014e-07
-4.59544e-07
-1.06273e-08
-4.97721e-07
3.20798e-07
-4.71521e-07
7.55752e-07
-2.81071e-07
3.5666e-07
-2.3189e-07
1.21882e-07
-2.59499e-07
-7.32445e-08
-2.18892e-07
-1.11716e-07
-1.86057e-07
-1.9433e-07
-1.39562e-07
-2.24229e-07
-8.89511e-08
-2.49922e-07
-3.82179e-08
-2.49597e-07
6.906e-09
-2.23675e-07
4.25459e-08
-1.79568e-07
6.49094e-08
-1.17893e-07
7.48919e-08
-5.80247e-08
7.48349e-08
-8.2933e-09
6.76767e-08
2.77422e-08
5.6274e-08
4.98777e-08
4.2813e-08
6.12743e-08
2.87707e-08
6.52552e-08
1.44465e-08
6.75212e-08
6.86849e-08
-1.16474e-08
3.61063e-07
-2.15863e-08
3.09175e-07
-1.92355e-08
1.68731e-07
-9.32029e-08
1.32885e-07
-1.96614e-07
8.40722e-08
-2.27936e-07
-2.26619e-07
-3.41158e-07
-3.72658e-07
-4.6729e-07
-1.89881e-07
-5.71243e-07
9.33257e-08
-5.9679e-07
3.46345e-07
-5.02196e-07
6.61158e-07
-2.77078e-07
1.31541e-07
-2.61452e-07
1.06256e-07
-2.73175e-07
-6.1521e-08
-2.20111e-07
-1.6478e-07
-1.87998e-07
-2.26442e-07
-1.39452e-07
-2.72775e-07
-8.79464e-08
-3.01428e-07
-3.65259e-08
-3.01018e-07
8.85211e-09
-2.69053e-07
4.43575e-08
-2.15073e-07
6.63164e-08
-1.39852e-07
7.5804e-08
-6.75123e-08
7.53375e-08
-7.82677e-09
6.79022e-08
3.51775e-08
5.63334e-08
6.14465e-08
4.28063e-08
7.48015e-08
2.87474e-08
7.93141e-08
1.44245e-08
8.18442e-08
8.31094e-08
3.77037e-08
3.19027e-07
7.18642e-08
2.75014e-07
8.01649e-08
1.6043e-07
2.5921e-08
1.87128e-07
-3.44103e-08
1.44404e-07
-1.17802e-07
-1.43227e-07
-2.99419e-07
-1.91041e-07
-4.95448e-07
6.14779e-09
-5.95773e-07
1.9365e-07
-6.33623e-07
3.84196e-07
-5.04918e-07
5.32453e-07
-2.66359e-07
-1.07018e-07
-2.75833e-07
1.1573e-07
-2.86385e-07
-5.09697e-08
-2.22805e-07
-2.2836e-07
-1.89864e-07
-2.59382e-07
-1.39392e-07
-3.23248e-07
-8.66887e-08
-3.54131e-07
-3.44658e-08
-3.53241e-07
1.11994e-08
-3.14719e-07
4.65431e-08
-2.50417e-07
6.80011e-08
-1.6131e-07
7.68856e-08
-7.63967e-08
7.59264e-08
-6.86756e-09
6.81619e-08
4.2942e-08
5.63967e-08
7.32116e-08
4.27934e-08
8.84048e-08
2.87167e-08
9.33908e-08
1.43968e-08
9.61642e-08
9.75061e-08
6.6895e-08
2.55445e-07
8.81405e-08
2.53769e-07
3.39933e-08
2.14578e-07
-4.94725e-08
2.70594e-07
-1.35809e-07
2.3074e-07
-2.86194e-07
7.15812e-09
-4.88742e-07
1.15058e-08
-6.02679e-07
1.20085e-07
-6.67647e-07
2.58619e-07
-7.07249e-07
4.23797e-07
-4.82363e-07
3.07567e-07
-2.52853e-07
-3.36528e-07
-3.1953e-07
1.82407e-07
-2.94512e-07
-7.59874e-08
-2.29521e-07
-2.93352e-07
-1.91278e-07
-2.97625e-07
-1.39331e-07
-3.75195e-07
-8.51636e-08
-4.08298e-07
-3.20387e-08
-4.06365e-07
1.397e-08
-3.60727e-07
4.91198e-08
-2.85566e-07
6.99753e-08
-1.82166e-07
7.81426e-08
-8.45641e-08
7.6605e-08
-5.32995e-09
6.84578e-08
5.10893e-08
5.6465e-08
8.52044e-08
4.27752e-08
1.02095e-07
2.86794e-08
1.07487e-07
1.43636e-08
1.1048e-07
1.1187e-07
1.40472e-08
2.56141e-07
-2.68214e-08
2.94637e-07
-1.72753e-07
3.60509e-07
-3.08508e-07
4.0635e-07
-4.02104e-07
3.24336e-07
-5.46674e-07
1.51729e-07
-6.58267e-07
1.23099e-07
-6.92146e-07
1.53965e-07
-7.24226e-07
2.90698e-07
-7.08763e-07
4.08334e-07
-4.85623e-07
8.44275e-08
-3.74742e-07
-4.4741e-07
-3.55093e-07
1.62759e-07
-2.8539e-07
-1.45691e-07
-2.41967e-07
-3.36774e-07
-1.91561e-07
-3.48031e-07
-1.39239e-07
-4.27517e-07
-8.33385e-08
-4.64199e-07
-2.91949e-08
-4.60509e-07
1.71783e-08
-4.07101e-07
5.20971e-08
-3.20485e-07
7.22421e-08
-2.02311e-07
7.95738e-08
-9.18957e-08
7.73706e-08
-3.12674e-09
6.8788e-08
5.96718e-08
5.65367e-08
9.74557e-08
4.27512e-08
1.1588e-07
2.86352e-08
1.21603e-07
1.43248e-08
1.2479e-07
1.26194e-07
-4.46882e-10
2.48079e-07
-6.9063e-08
3.63254e-07
-2.24441e-07
5.15887e-07
-3.78227e-07
5.60136e-07
-4.87003e-07
4.33111e-07
-5.92296e-07
2.57022e-07
-6.69937e-07
2.00739e-07
-6.85334e-07
1.69361e-07
-6.00748e-07
2.06112e-07
-4.84796e-07
2.92383e-07
-4.4784e-07
4.74709e-08
-5.0229e-07
-3.92959e-07
-3.61834e-07
2.23023e-08
-2.66323e-07
-2.41202e-07
-2.53837e-07