/*--------------------------------*- C++ -*----------------------------------*\
| =========                 |                                                 |
| \\      /  F ield         | OpenFOAM: The Open Source CFD Toolbox           |
|  \\    /   O peration     | Version:  2.4.0                                 |
|   \\  /    A nd           | Web:      www.OpenFOAM.org                      |
|    \\/     M anipulation  |                                                 |
\*---------------------------------------------------------------------------*/
FoamFile
{
    version     2.0;
    format      ascii;
    class       volScalarField;
    location    "0.004";
    object      p;
}
// * * * * * * * * * * * * * * * * * * * * * * * * * * * * * * * * * * * * * //

dimensions      [1 -1 -2 0 0 0 0];

internalField   nonuniform List<scalar> 
57600
(
95.9835
96.916
97.2734
97.9461
99.074
100.835
103.424
107.038
111.84
117.923
125.282
133.788
143.186
153.125
163.211
173.068
182.386
190.937
198.58
205.244
210.917
215.63
219.448
222.461
224.771
226.483
227.7
228.517
229.015
229.267
92.7229
93.7191
94.1421
94.9098
96.1723
98.113
100.931
104.815
109.916
116.308
123.957
132.705
142.27
152.287
162.36
172.123
181.283
189.636
197.055
203.487
208.93
213.425
217.044
219.881
222.04
223.626
224.74
225.473
225.906
226.108
89.4614
90.4571
90.8782
91.6426
92.8997
94.8322
97.6382
101.507
106.59
112.961
120.592
129.326
138.889
148.916
159.013
168.81
178.01
186.402
193.86
200.326
205.8
210.321
213.962
216.817
218.99
220.586
221.708
222.446
222.882
223.085
86.199
87.1937
87.6119
88.3709
89.6193
91.5384
94.3255
98.1695
103.221
109.559
117.158
125.87
135.427
145.47
155.604
165.457
174.722
183.183
190.707
197.233
202.76
207.326
211.005
213.89
216.086
217.7
218.834
219.581
220.022
220.228
82.9358
83.9289
84.343
85.0947
86.331
88.2317
90.9926
94.8019
99.8112
106.102
113.656
122.336
131.882
141.946
152.132
162.061
171.42
179.978
187.595
194.207
199.807
204.437
208.169
211.097
213.326
214.965
216.117
216.876
217.324
217.533
79.6717
80.6629
81.0718
81.8141
83.035
84.9122
87.6398
91.4048
96.3595
102.59
110.086
118.722
128.254
138.341
148.592
158.62
168.098
176.782
184.521
191.243
196.94
201.652
205.451
208.434
210.706
212.377
213.552
214.326
214.783
214.996
76.4068
77.3955
77.7982
78.529
79.7313
81.58
84.2671
87.9782
92.8665
99.0228
106.447
115.028
124.539
134.653
144.981
155.129
164.754
173.593
181.481
188.338
194.154
198.965
202.847
205.896
208.221
209.931
211.133
211.926
212.394
212.612
73.1411
74.1268
74.5221
75.2397
76.42
78.2354
80.875
84.5227
89.3326
95.4007
102.739
111.253
120.735
130.876
141.293
151.583
161.381
170.405
178.471
185.488
191.442
196.371
200.35
203.477
205.862
207.618
208.853
209.668
210.149
210.373
69.8746
70.8569
71.2438
71.9461
73.1013
74.8786
77.4637
81.0386
85.7581
91.7241
98.9606
107.394
116.839
127.007
137.522
147.974
157.974
167.213
175.484
182.686
188.799
193.861
197.949
201.164
203.619
205.427
206.7
207.54
208.036
208.268
66.6072
67.5857
67.9632
68.6483
69.7754
71.5097
74.0335
77.5263
82.1434
87.9929
95.1124
103.45
112.847
123.039
133.661
144.294
154.524
164.008
172.514
179.924
186.214
191.424
195.633
198.946
201.477
203.344
204.659
205.527
206.04
206.279
63.3391
64.3133
64.6804
65.3465
66.4423
68.1291
70.5849
73.9863
78.4892
84.2077
91.1938
99.4187
108.755
118.965
129.701
140.533
151.021
160.783
169.552
177.193
183.677
189.045
193.384
196.802
199.416
201.346
202.707
203.606
204.139
204.387
60.0703
61.0398
61.3955
62.0407
63.1024
64.7372
67.1184
70.4194
74.7961
80.3688
87.2044
95.2991
104.559
114.778
125.631
136.681
147.456
157.526
166.588
174.481
181.171
186.706
191.18
194.706
197.408
199.405
200.816
201.749
202.301
202.559
56.8007
57.7651
58.1084
58.7311
59.7556
61.334
63.6343
66.826
71.0648
76.4767
83.1437
91.0885
100.253
110.47
121.439
132.723
143.813
154.227
163.608
171.771
178.676
184.381
188.989
192.624
195.413
197.479
198.942
199.911
200.486
200.753
53.5303
54.4893
54.8193
55.4178
56.4025
57.9202
60.1333
63.2071
67.2962
72.5321
79.0118
86.7852
95.8325
106.032
117.113
128.644
140.078
150.869
160.599
169.046
176.168
182.035
186.769
190.505
193.379
195.514
197.03
198.037
198.635
198.913
50.2594
51.2125
51.5284
52.101
53.0432
54.496
56.6159
59.5633
63.4911
68.5357
74.8088
82.3873
91.2925
101.452
112.637
124.426
136.232
147.435
157.542
166.284
173.614
179.625
184.464
188.286
191.232
193.431
195
196.046
196.669
196.959
46.9878
47.9347
48.2355
48.7807
49.6779
51.0619
53.0828
55.8955
59.6506
64.4885
70.5346
77.8929
86.6273
96.7197
107.994
120.046
132.253
143.906
154.416
163.456
170.973
177.093
182
185.875
188.872
191.123
192.741
193.828
194.478
194.781
43.7155
44.6559
44.9409
45.4573
46.3069
47.6183
49.5347
52.2047
55.7759
60.3917
66.1898
73.3006
81.8314
91.8238
103.164
115.48
128.114
140.258
151.198
160.528
168.192
174.36
179.273
183.149
186.16
188.439
190.097
191.223
191.902
192.219
40.4427
41.3762
41.6446
42.1307
42.9305
44.1657
45.9722
48.4918
51.8681
56.2464
61.7751
68.6092
76.8994
86.7513
98.1261
110.698
123.785
136.461
147.858
157.459
165.2
171.321
176.146
179.94
182.899
185.168
186.849
188.014
188.727
189.06
37.1692
38.0956
38.3467
38.8011
39.5489
40.7045
42.396
44.7579
47.9287
52.0541
57.2914
63.8179
71.8262
81.4893
92.8554
105.667
119.227
132.481
144.361
154.198
161.908
167.837
172.43
176.018
178.824
181.01
182.684
183.89
184.648
185.004
33.8953
34.8143
35.0474
35.469
36.1627
37.2355
38.8072
41.0043
43.9594
47.8168
52.7405
58.9268
66.6077
76.0248
87.326
100.347
114.395
128.275
140.668
150.683
158.201
163.718
167.87
171.073
173.568
175.547
177.15
178.396
179.217
179.602
30.6209
31.5323
31.7468
32.1343
32.7721
33.759
35.2065
37.2322
39.9617
43.5363
48.1241
53.9363
61.2402
70.3447
81.5089
94.6915
109.232
123.791
136.73
146.842
153.927
158.703
162.114
164.694
166.647
168.194
169.582
170.875
171.797
172.191
27.3459
28.2496
28.4448
28.7973
29.3773
30.2756
31.5946
33.4427
35.9372
39.2148
43.4444
48.8477
55.7212
64.4365
75.3732
88.6473
103.671
118.962
132.489
142.587
148.888
152.423
154.669
156.331
157.434
158.18
158.955
160.357
161.505
161.693
24.0705
24.9663
25.1418
25.4582
25.9789
26.7859
27.9727
29.6375
31.8881
34.8549
38.7044
43.6633
50.0499
58.2895
68.8866
82.153
97.625
113.702
127.876
137.816
142.824
144.355
144.806
145.244
145.147
144.717
143.546
145.302
147.549
146.036
20.7947
21.6824
21.8376
22.1172
22.5771
23.2906
24.3416
25.8177
27.8163
30.4591
33.9073
38.3863
44.227
51.8949
62.0156
75.1385
90.99
107.898
122.8
132.414
135.432
133.745
131.402
130.389
128.719
127.657
122.184
132.97
131.664
125.092
17.5183
18.398
18.5326
18.7744
19.1722
19.7901
20.7022
21.9849
23.7239
26.0304
29.057
33.021
38.2555
45.2477
54.7275
67.5254
83.6367
101.397
117.14
126.24
126.252
119.541
112.719
110.015
106.956
104.852
100.514
110.504
108.048
107.484
14.2416
15.1132
15.2268
15.4303
15.7649
16.2853
17.0557
18.1408
19.6134
21.5724
24.1584
27.5733
32.1415
38.3476
46.992
59.228
75.4081
93.9839
110.726
119.128
114.749
100.276
86.7016
81.1625
74.9291
72.6973
67.8483
70.7066
75.9379
78.6676
10.9645
11.8282
11.9204
12.085
12.3554
12.7768
13.4031
14.287
15.4871
17.0881
19.2164
22.0497
25.8928
31.2006
38.7838
50.1526
66.1175
85.3618
103.315
110.856
99.9581
73.0404
51.4143
40.3849
28.8459
25.7796
27.162
30.4808
35.0604
39.1474
7.68703
8.54278
8.61344
8.73863
8.94413
9.26509
9.74534
10.4249
11.3475
12.5813
14.2369
16.4579
19.5197
23.8215
30.0866
40.1945
55.5572
75.1051
94.5685
101.187
79.7368
25.5513
-22.1955
-0.58417
-0.593079
-0.539719
-0.53227
-0.484954
-0.436126
-0.373032
4.40913
5.25719
5.30606
5.39152
5.53145
5.75094
6.08358
6.5564
7.19716
8.05587
9.22674
10.8062
13.0333
16.2346
20.8993
29.2146
43.5278
62.6372
83.6904
90.1039
55.4231
-53.3609
-0.805531
-0.681599
-0.643335
-0.618656
-0.584968
-0.530231
-0.495047
-0.484408
1.13081
1.97157
1.99852
2.04405
2.118
2.23518
2.41901
2.68314
3.03872
3.51567
4.19423
5.10194
6.44542
8.47694
11.253
16.9499
29.8988
46.974
69.7518
77.1467
31.5447
-0.606893
-0.786604
-0.729569
-0.697347
-0.677507
-0.651502
-0.615712
-0.587249
-0.573555
229.331
229.235
228.938
228.38
227.485
226.168
224.331
221.872
218.682
214.664
209.731
203.824
196.92
189.044
180.283
170.798
160.837
150.732
140.87
131.643
123.383
116.319
110.546
106.044
102.696
100.329
98.743
97.7437
97.1598
96.8627
226.132
225.99
225.631
224.993
223.996
222.552
220.562
217.921
214.523
210.27
205.084
198.913
191.745
183.619
174.641
164.995
154.951
144.864
135.128
126.124
118.16
111.429
105.996
101.809
98.7349
96.5907
95.1756
94.2991
93.7995
93.5626
223.11
222.966
222.606
221.963
220.959
219.506
217.503
214.845
211.426
207.148
201.933
195.728
188.523
180.357
171.339
161.656
151.586
141.485
131.747
122.754
114.808
108.097
102.683
98.5129
95.4514
93.3163
91.9073
91.0345
90.5371
90.3012
220.253
220.108
219.743
219.092
218.077
216.608
214.583
211.897
208.443
204.122
198.856
192.593
185.323
177.089
168.003
158.261
148.148
138.024
128.288
119.313
111.397
104.72
99.338
95.1943
92.1534
90.0329
88.6337
87.767
87.2732
87.0389
217.558
217.411
217.04
216.379
215.349
213.856
211.801
209.075
205.571
201.19
195.853
189.507
182.145
173.813
164.632
154.807
144.634
134.482
124.748
115.801
107.928
101.298
95.9601
91.8533
88.8408
86.7406
85.3549
84.4966
84.0076
83.7757
215.022
214.872
214.494
213.82
212.768
211.247
209.152
206.375
202.807
198.348
192.918
186.466
178.985
170.527
161.223
151.291
141.043
130.856
121.127
112.217
104.4
97.8313
92.5498
88.4902
85.5138
83.4394
82.071
81.2234
80.7406
80.5116
212.639
212.485
212.098
211.407
210.331
208.774
206.631
203.792
200.146
195.593
190.05
183.467
175.839
167.226
157.77
147.709
137.37
127.142
117.423
108.561
100.813
94.3195
89.1072
85.105
82.1726
80.1295
78.7819
77.9473
77.472
77.2465
210.401
210.242
209.844
209.135
208.029
206.43
204.231
201.319
197.583
192.918
187.243
180.505
172.703
163.904
154.268
144.054
133.611
123.34
113.635
104.833
97.1675
90.7633
85.6327
81.6982
78.8173
76.8109
75.4878
74.6684
74.2019
73.9805
208.296
208.132
207.722
206.99
205.85
204.204
201.94
198.947
195.107
190.317
184.491
177.575
169.571
160.557
150.712
140.322
129.76
119.443
109.761
101.03
93.4637
87.1632
82.1268
78.27
75.4483
73.4839
72.1889
71.3869
70.9304
70.7137
206.309
206.139
205.714
204.958
203.78
202.081
199.746
196.662
192.709
187.78
181.785
174.669
166.436
157.175
147.091
136.502
125.812
115.449
105.798
97.1539
89.7014
83.5193
78.5899
74.8208
72.0657
70.1485
68.885
68.1027
67.6574
67.446
204.417
204.241
203.8
203.016
201.797
200.039
197.628
194.446
190.373
185.294
179.116
171.778
163.288
153.75
143.397
132.588
121.759
111.353
101.745
93.2025
85.8809
79.8324
75.0226
71.351
68.6698
66.805
65.5765
64.8158
64.383
64.1775
202.59
202.406
201.948
201.134
199.87
198.051
195.56
192.277
188.078
182.843
176.47
168.893
160.119
150.27
139.618
128.567
117.592
107.149
97.5982
89.1757
82.0025
76.1031
71.4255
67.8612
65.2611
63.4537
62.2634
61.5266
61.1073
60.9081
200.785
200.594
200.117
199.271
197.96
196.077
193.505
190.121
185.797
180.406
173.833
166
156.916
146.723
135.74
124.427
113.302
102.832
93.3553
85.0727
78.0665
72.332
67.7992
64.3518
61.8397
60.0946
58.9458
58.2347
57.8302
57.6379
198.945
198.746
198.248
197.368
196.008
194.062
191.412
187.935
183.496
177.957
171.184
163.085
153.664
143.093
131.747
120.154
108.878
98.3946
89.014
80.8931
74.0735
68.52
64.1447
60.8236
58.4063
56.7282
55.6239
54.9407
54.5518
54.3671
196.993
196.783
196.263
195.346
193.937
191.931
189.214
185.66
181.126
175.459
168.499
160.128
150.347
139.362
127.62
115.732
104.31
93.8314
84.5713
76.6365
70.0241
64.6681
60.4627
57.2772
54.9612
53.3547
52.298
51.6444
51.2723
51.0955
194.815
194.593
194.047
193.092
191.637
189.583
186.817
183.216
178.626
172.869
165.748
157.109
146.946
135.508
123.338
111.141
99.5834
89.1353
80.0247
72.3025
65.9191
60.7771
56.7541
53.713
51.5048
49.9743
48.968
48.3458
47.9915
47.8232
192.252
192.016
191.442
190.449
188.954
186.871
184.094
180.497
175.911
170.127
162.894
154.003
143.435
131.505
118.874
106.361
94.6852
84.2993
75.3721
67.8915
61.7595
56.8483
53.0199
50.1321
48.0378
46.5874
45.6344
45.0453
44.7097
44.5502
189.092
188.837
188.229
187.195
185.673
183.596
180.868
177.354
172.868
167.156
159.891
150.78
139.789
127.323
114.198
101.367
89.6003
79.3164
70.6113
63.4037
57.5466
52.883
49.2612
46.5351
44.5605
43.1944
42.2971
41.7427
41.4268
41.2765
185.032
184.748
184.091
183.014
181.49
179.483
176.899
173.59
169.344
163.855
156.679
147.402
135.972
122.924
109.274
96.132
84.3129
74.18
65.7408
58.8398
53.2817
48.8826
45.4791
42.9229
41.0736
39.7954
38.9564
38.4383
38.1428
38.0022
179.618
179.291
178.568
177.447
175.976
174.154
171.867
168.935
165.134
160.091
153.188
143.828
131.945
118.261
104.058
90.6261
78.807
68.884
60.7598
54.2013
48.9668
44.8489
41.6751
39.2964
37.5778
36.3911
35.6127
35.1322
34.858
34.7275
172.171
171.794
170.991
169.826
168.529
167.103
165.343
163.021
159.947
155.688
149.333
140.008
127.656
113.278
98.5021
84.8153
73.0659
63.4231
55.6682
49.4897
44.6038
40.7836
37.8503
35.6566
34.0735
32.9817
32.2661
31.8246
31.5724
31.4522
161.521
161.233
160.395
159.132
158.343
157.68
156.766
155.335
153.377
150.41
145.005
135.884
123.042
107.905
92.5455
78.6626
67.0732
57.7928
50.4665
44.7071
40.1949
36.6884
34.0061
32.0042
30.5615
29.5676
28.9168
28.5154
28.286
28.1763
144.917
146.248
145.568
143.54
144.559
145.09
145.404
145.13
144.829
143.941
140.084
131.385
118.021
102.053
86.1197
72.1283
60.8139
51.9907
45.1566
39.8566
35.7428
32.5655
30.1443
28.3406
27.0423
26.1493
25.5651
25.2049
24.9989
24.9001
113.734
131.54
132.192
119.936
127.296
128.305
130.28
131.247
133.43
135.857
134.419
126.424
112.483
95.6111
79.1437
65.1699
54.2745
46.0162
39.7415
34.9414
31.2505
28.4172
26.2661
24.6666
23.5168
22.7271
22.2111
21.8932
21.7111
21.6234
115.157
109.858
114.657
97.2372
104.739
106.178
109.775
111.822
117.937
125.695
127.829
120.883
106.279
88.4363
71.5249
57.744
47.4451
39.8713
34.2255
29.9657
26.7211
24.2456
22.3734
20.9833
19.9854
19.3014
18.8552
18.5804
18.4227
18.3463
79.6857
78.3986
72.611
66.0023
71.2316
73.5876
80.6542
84.6849
96.6796
112.485
120.087
114.605
99.1964
80.3515
63.1595
49.808
40.3212
33.5615
28.6148
24.9345
22.1582
20.0535
18.4679
17.2921
16.4491
15.8729
15.4977
15.2667
15.1339
15.069
39.9091
36.8647
31.9888
28.0665
26.5408
27.5101
37.2909
47.5044
66.523
95.0402
110.889
107.376
90.9339
71.1343
53.9333
41.3223
32.9047
27.0952
22.9168
19.8531
17.5657
15.8435
14.5515
13.594
12.9085
12.4418
12.1388
11.9523
11.8448
11.7915
-0.348196
-0.415177
-0.472175
-0.523386
-0.525864
-0.584131
-0.600751
-14.5101
7.65163
69.1347
100.078
98.9679
81.0454
60.5139
43.724
32.2564
25.2068
20.4841
17.1407
14.7278
12.9474
11.6183
10.6258
9.89007
9.3643
9.00864
8.77867
8.63721
8.55525
8.5136
-0.482823
-0.481263
-0.518511
-0.575157
-0.606824
-0.633836
-0.663222
-0.782995
-0.19481
40.2758
88.1787
88.6088
68.887
48.1755
32.3906
22.6006
17.2502
13.7419
11.2982
9.56567
8.30778
7.38074
6.69282
6.18164
5.81729
5.57389
5.41771
5.32166
5.26547
5.23555
-0.570962
-0.58051
-0.605237
-0.639631
-0.667465
-0.686966
-0.711294
-0.760619
-0.654802
11.0921
73.6247
75.9091
53.2422
33.677
19.729
12.4125
9.07717
6.88101
5.40509
4.37493
3.65086
3.1338
2.75448
2.46999
2.26837
2.13821
2.05631
2.00592
1.97563
1.95741
-0.0975825
-0.0901587
-0.083232
-0.0752835
-0.0658756
-0.0547781
-0.0417153
-0.0223942
0.00920932
0.0400942
0.116359
0.37257
1.00655
2.0581
3.10047
5.44155
17.7451
31.5585
54.4809
65.3217
24.4451
-0.610122
-0.754967
-0.753791
-0.72725
-0.705233
-0.681947
-0.65555
-0.634458
-0.622515
-0.0992465
-0.0918666
-0.0849566
-0.0770508
-0.0677319
-0.0567948
-0.0442915
-0.0296634
-0.0122705
0.00855261
0.0347726
0.0682328
0.111485
0.127474
-1.89627
-3.1481
9.08034
20.2571
42.0199
57.3847
9.02283
-0.727125
-0.775346
-0.774625
-0.74843
-0.723523
-0.700236
-0.67753
-0.660722
-0.65071
-0.101054
-0.0937275
-0.0868362
-0.0789621
-0.0696943
-0.0588343
-0.0463908
-0.031822
-0.0145679
0.00608657
0.0319689
0.0654765
0.109015
0.126511
-0.44112
0.232753
0.989112
4.51366
24.4126
48.8183
5.83321
-0.838888
-0.821424
-0.806496
-0.775126
-0.74637
-0.721979
-0.701143
-0.68686
-0.678392
-0.10302
-0.0957366
-0.088864
-0.0810185
-0.0717991
-0.0610156
-0.0486407
-0.0341631
-0.0170686
0.00337963
0.0287868
0.0620212
0.106486
0.143632
-0.567592
0.230084
0.272771
-7.86481
-3.63822
40.0162
1.22514
-0.925298
-0.896308
-0.852459
-0.808476
-0.773293
-0.746206
-0.725613
-0.711942
-0.704676
-0.10516
-0.0979146
-0.0910629
-0.0832477
-0.0740789
-0.0633751
-0.0510823
-0.0367215
-0.0198049
0.00040948
0.0254097
0.0582578
0.103142
0.159672
-0.824295
0.204449
0.283371
0.205967
-11.2304
27.3206
26.4446
-1.06648
-1.01225
-0.915131
-0.848548
-0.803078
-0.771872
-0.750127
-0.73588
-0.728604
-0.107487
-0.100275
-0.0934486
-0.0856689
-0.0765586
-0.0659438
-0.0537518
-0.0395315
-0.0228258
-0.0028947
0.0216142
0.0537009
0.0977302
0.151653
-0.995739
0.157946
0.277255
0.212749
0.87834
14.6086
-19.9077
-1.53309
-1.20155
-0.995482
-0.893302
-0.83354
-0.796122
-0.771948
-0.756711
-0.749369
-0.110018
-0.102833
-0.0960356
-0.088297
-0.0792529
-0.0687368
-0.0566668
-0.0426203
-0.0261694
-0.00659188
0.0173195
0.0482643
0.08959
0.119281
-0.891734
0.121176
0.266818
0.197766
-0.705294
-2.80372
-4.41799
-2.48951
-1.48413
-1.08373
-0.937044
-0.861403
-0.816867
-0.789771
-0.773853
-0.766679
-0.112769
-0.105605
-0.0988428
-0.0911522
-0.0821829
-0.0717784
-0.059853
-0.0460171
-0.0298734
-0.010736
0.0124404
0.0418502
0.0786428
0.0827612
-0.542922
0.105959
0.260109
0.205088
-0.20886
-23.3668
-3.01095
-3.44385
-1.7167
-1.1538
-0.971062
-0.882636
-0.832237
-0.80221
-0.784499
-0.775917
-0.11576
-0.108612
-0.101892
-0.0942585
-0.0853749
-0.0750994
-0.0633431
-0.0497564
-0.0339787
-0.0153823
0.00688215
0.0343471
0.0653971
0.0531945
-0.26646
0.103619
0.261942
0.341158
-0.5707
-8.39886
-2.31056
-3.06842
-1.69295
-1.17376
-0.984492
-0.891201
-0.837898
-0.806014
-0.787085
-0.777575
-0.119009
-0.111872
-0.105202
-0.097636
-0.0888523
-0.0787249
-0.0671639
-0.0538675
-0.038521
-0.0205794
0.000569227
0.0256751
0.0505411
0.0312636
-0.128754
0.101511
0.273602
1.08793
-88.2391
22.7799
-2.80048
-2.05914
-1.4915
-1.13549
-0.970903
-0.882889
-0.831461
-0.800883
-0.783315
-0.774753
-0.122537
-0.115408
-0.108796
-0.10131
-0.0926423
-0.082683
-0.0713496
-0.0583902
-0.0435471
-0.0263852
-0.00655893
0.0158642
0.03476
0.0148789
-0.0634184
0.0911398
0.284253
78.6119
-45.7207
-0.976277
-1.96467
-1.55042
-1.27733
-1.05873
-0.932719
-0.858709
-0.813895
-0.786894
-0.77142
-0.763909
-0.126365
-0.119244
-0.112702
-0.105309
-0.0967773
-0.0870084
-0.0759377
-0.0633654
-0.0491056
-0.0328577
-0.0145608
0.0049529
0.0185658
0.00142817
-0.0350807
0.0686074
0.211225
4.70969
-0.736361
-1.17929
-1.27884
-1.24867
-1.09663
-0.965623
-0.877445
-0.820898
-0.78491
-0.76262
-0.749665
-0.743302
-0.130518
-0.123406
-0.116945
-0.109663
-0.101289
-0.0917399
-0.0809711
-0.0688374
-0.0552401
-0.0400377
-0.0234711
-0.00700958
0.00219925
-0.0113609
-0.0282226
0.033705
0.0806514
-0.250098
-0.952603
-1.00101
-1.02614
-1.02085
-0.94515
-0.869627
-0.812298
-0.772463
-0.745788
-0.72875
-0.718631
-0.713566
-0.135025
-0.12792
-0.121555
-0.114399
-0.106205
-0.0969035
-0.0864784
-0.0748504
-0.0620018
-0.0479716
-0.0332991
-0.0199335
-0.0142646
-0.0250331
-0.0348894
-0.00807094
-0.0249028
-0.302873
-0.719956
-0.8087
-0.848827
-0.85095
-0.817799
-0.777583
-0.743283
-0.717563
-0.699463
-0.687505
-0.680206
-0.676456
-0.139911
-0.132818
-0.126565
-0.119555
-0.111565
-0.102544
-0.0925073
-0.0814526
-0.0694459
-0.0567155
-0.0440543
-0.0337092
-0.0309375
-0.0403154
-0.0500657
-0.0500696
-0.0991757
-0.293909
-0.540998
-0.656013
-0.706788
-0.720625
-0.711163
-0.693109
-0.675081
-0.660307
-0.649309
-0.64173
-0.636951
-0.634408
-0.145209
-0.138134
-0.132015
-0.125174
-0.117419
-0.108716
-0.0991163
-0.0886979
-0.0776267
-0.0663128
-0.0557524
-0.0482898
-0.0480136
-0.0573793
-0.0701481
-0.0879896
-0.147852
-0.284554
-0.442472
-0.543522
-0.596171
-0.61834
-0.622459
-0.617979
-0.61088
-0.603997
-0.598384
-0.59426
-0.591546
-0.590021
-0.150953
-0.143905
-0.137943
-0.131298
-0.123808
-0.115463
-0.106353
-0.0966339
-0.0865867
-0.0767809
-0.0683668
-0.0635921
-0.0656014
-0.07594
-0.0924279
-0.120169
-0.17922
-0.27808
-0.385126
-0.464441
-0.512565
-0.538082
-0.549362
-0.552824
-0.552584
-0.550999
-0.549149
-0.547549
-0.546394
-0.54566
-0.157179
-0.150167
-0.144386
-0.137966
-0.130772
-0.122829
-0.114261
-0.105304
-0.0963493
-0.0880973
-0.0817978
-0.0794843
-0.0836025
-0.0953788
-0.114882
-0.146685
-0.199848
-0.273393
-0.349151
-0.409532
-0.450477
-0.4756
-0.489903
-0.497442
-0.501167
-0.502803
-0.503375
-0.50348
-0.503383
-0.503196
-0.163927
-0.156961
-0.151386
-0.145221
-0.138358
-0.130857
-0.122884
-0.114749
-0.106935
-0.100239
-0.095939
-0.0958231
-0.101786
-0.11494
-0.136133
-0.168217
-0.214009
-0.269853
-0.325252
-0.371101
-0.404645
-0.427388
-0.442044
-0.451214
-0.456824
-0.460188
-0.462181
-0.463294
-0.463827
-0.463982
-0.171241
-0.164336
-0.158997
-0.15312
-0.146628
-0.13961
-0.132283
-0.125017
-0.118372
-0.113201
-0.110738
-0.112513
-0.119982
-0.134089
-0.155599
-0.185666
-0.224148
-0.267224
-0.308704
-0.343774
-0.370767
-0.390292
-0.403882
-0.413127
-0.419332
-0.423439
-0.426069
-0.427657
-0.428516
-0.428872
-0.179167
-0.172342
-0.167274
-0.161722
-0.155641
-0.149152
-0.142514
-0.13615
-0.130675
-0.126952
-0.126125
-0.129448
-0.138007
-0.152473
-0.173181
-0.200083
-0.231875
-0.265447
-0.297068
-0.324089
-0.345557
-0.361791
-0.373689
-0.382231
-0.388248
-0.392376
-0.395113
-0.396838
-0.397828
-0.398282
-0.187757
-0.181034
-0.176275
-0.171088
-0.165463
-0.159543
-0.153629
-0.148182
-0.143842
-0.141448
-0.142005
-0.146499
-0.155677
-0.169878
-0.188993
-0.212318
-0.238279
-0.264568
-0.288912
-0.309827
-0.326807
-0.34005
-0.350078
-0.357487
-0.362834
-0.366595
-0.369157
-0.370816
-0.3718
-0.372279
-0.197066
-0.190473
-0.186063
-0.181286
-0.176158
-0.170847
-0.165681
-0.161144
-0.15787
-0.156636
-0.158286
-0.163545
-0.172856
-0.186247
-0.203284
-0.223016
-0.244005
-0.264615
-0.283451
-0.299674
-0.313014
-0.323596
-0.331754
-0.337892
-0.342408
-0.345644
-0.347889
-0.349368
-0.350262
-0.350715
-0.207152
-0.200718
-0.196705
-0.192384
-0.187796
-0.183126
-0.178718
-0.175056
-0.172743
-0.172464
-0.174885
-0.180496
-0.18948
-0.201636
-0.216359
-0.232694
-0.249477
-0.265576
-0.280128
-0.29265
-0.303004
-0.311301
-0.317775
-0.322711
-0.32639
-0.329056
-0.330925
-0.332171
-0.332937
-0.333337
-0.218083
-0.21184
-0.208272
-0.204457
-0.200449
-0.196448
-0.192792
-0.189946
-0.188455
-0.188892
-0.191749
-0.197315
-0.205575
-0.216195
-0.228532
-0.24175
-0.254967
-0.267413
-0.278553
-0.288118
-0.296048
-0.30244
-0.307466
-0.31133
-0.31423
-0.316347
-0.317843
-0.318849
-0.319475
-0.319809
-0.229924
-0.223911
-0.220841
-0.217581
-0.214195
-0.21088
-0.207955
-0.205841
-0.205007
-0.205902
-0.208863
-0.21402
-0.221239
-0.230132
-0.240114
-0.250514
-0.260695
-0.270144
-0.278533
-0.285712
-0.291671
-0.296487
-0.300289
-0.303223
-0.305437
-0.307061
-0.308214
-0.308994
-0.309485
-0.309753
-0.242753
-0.237011
-0.234496
-0.231842
-0.229116
-0.226498
-0.224271
-0.222788
-0.222428
-0.223521
-0.226272
-0.230708
-0.236641
-0.243703
-0.251419
-0.259283
-0.266857
-0.273809
-0.279941
-0.285171
-0.289509
-0.29302
-0.295796
-0.297944
-0.29957
-0.300767
-0.30162
-0.302201
-0.30257
-0.302776
-0.25665
-0.251221
-0.24932
-0.247325
-0.245297
-0.243383
-0.241811
-0.240851
-0.24078
-0.241821
-0.244084
-0.247538
-0.252003
-0.257185
-0.262734
-0.268301
-0.2736
-0.278427
-0.282665
-0.286271
-0.28926
-0.291679
-0.293593
-0.295076
-0.296201
-0.297031
-0.297624
-0.29803
-0.29829
-0.298437
-0.271704
-0.266631
-0.265405
-0.264125
-0.262834
-0.261633
-0.260675
-0.260135
-0.260186
-0.260956
-0.262491
-0.264752
-0.267609
-0.270877
-0.274336
-0.277777
-0.281035
-0.283992
-0.286583
-0.288789
-0.290618
-0.2921
-0.293274
-0.294186
-0.294879
-0.29539
-0.295757
-0.296008
-0.296168
-0.296259
-0.288005
-0.283333
-0.282846
-0.282339
-0.28183
-0.281362
-0.280994
-0.280799
-0.280842
-0.281169
-0.281792
-0.28269
-0.283817
-0.285119
-0.286506
-0.287901
-0.289235
-0.290458
-0.291539
-0.292467
-0.293242
-0.293873
-0.294376
-0.294769
-0.295067
-0.295287
-0.295444
-0.295551
-0.295618
-0.295656
-0.620541
-0.628935
-0.646995
-0.67178
-0.694961
-0.715515
-0.739445
-0.751938
-0.648446
17.8022
60.514
62.1286
37.1523
20.001
8.03757
3.87918
2.30918
1.19886
0.546691
0.134105
-0.00694222
0.007266
-0.0256108
-0.0453833
-0.0577772
-0.0677923
-0.0763698
-0.0835496
-0.0898293
-0.0955048
-0.649176
-0.655691
-0.669984
-0.690749
-0.71293
-0.735604
-0.760572
-0.769724
-0.73071
-11.4441
53.7804
51.0324
25.6126
9.71018
-0.3564
-1.86825
0.0669957
0.0933457
0.0522546
0.0236571
-0.000863724
-0.0198129
-0.0353987
-0.0485368
-0.0598443
-0.069675
-0.0781481
-0.0852778
-0.0915367
-0.0972102
-0.676591
-0.682127
-0.694173
-0.712725
-0.735124
-0.760841
-0.790129
-0.8073
-0.808885
-26.6029
47.2584
35.4642
11.2955
-2.2276
0.239207
-0.451822
0.0658287
0.0920111
0.0500031
0.0207394
-0.00334663
-0.0221502
-0.0375994
-0.0506675
-0.0618936
-0.0716439
-0.0800622
-0.0871603
-0.0933977
-0.0990653
-0.703112
-0.70759
-0.718588
-0.736792
-0.760738
-0.791637
-0.831034
-0.867105
-0.887795
-1.86626
42.4676
14.6455
-1.95053
0.231409
0.213751
-0.626157
0.0909319
0.0906044
0.0467957
0.0174417
-0.00609818
-0.0246917
-0.0399859
-0.0529551
-0.0640817
-0.0737533
-0.0821193
-0.0891905
-0.0954072
-0.101066
-0.727272
-0.731505
-0.742714
-0.761826
-0.788714
-0.827723
-0.885029
-0.962973
-1.03641
2.92794
36.7828
2.56502
-0.183839
0.234032
0.206324
-0.928433
0.115278
0.0880757
0.043193
0.013945
-0.00914111
-0.0274621
-0.0425828
-0.0554282
-0.06645
-0.0760403
-0.0843508
-0.0913931
-0.0975868
-0.103232
-0.748121
-0.75242
-0.764106
-0.784896
-0.816684
-0.86726
-0.951597
-1.10931
-1.39214
-1.42828
29.0871
-65.7228
0.0496278
0.222374
0.177911
-1.07287
0.104519
0.0827065
0.0387966
0.00997482
-0.0125311
-0.0305134
-0.0454266
-0.058123
-0.0690302
-0.0785294
-0.0867766
-0.0937835
-0.0999498
-0.105575
-0.765471
-0.769645
-0.781653
-0.804245
-0.841786
-0.905379
-1.02333
-1.29912
-2.06262
-2.34641
15.4537
-2.89073
0.0743081
0.216165
0.14543
-0.911205
0.0656972
0.0737018
0.0334093
0.00550068
-0.0163113
-0.0338879
-0.0485476
-0.061061
-0.0718359
-0.0812334
-0.0894098
-0.0963762
-0.10251
-0.108112
-0.774484
-0.779817
-0.793541
-0.818363
-0.860792
-0.934917
-1.0815
-1.47371
-2.88366
-2.47807
-3.78145
0.445783
-0.0116779
0.217376
0.123949
-0.547223
0.0286967
0.0613002
0.0268856
0.000449941
-0.0205319
-0.037625
-0.0519753
-0.0642683
-0.0748904
-0.0841745
-0.0922707
-0.0991904
-0.105286
-0.110858
-0.775975
-0.781979
-0.796719
-0.823049
-0.868102
-0.946574
-1.10151
-1.50224
-2.63261
-2.05832
8.71265
-64.4264
0.225552
0.22728
0.11298
-0.276604
0.00481479
0.0464585
0.0191367
-0.0052806
-0.0252506
-0.0417665
-0.0557439
-0.0677786
-0.0782247
-0.0873797
-0.0953834
-0.102247
-0.108296
-0.113832
-0.773242
-0.778381
-0.791636
-0.816455
-0.859858
-0.934446
-1.07262
-1.37204
-2.0746
-1.62787
-4.32314
-65.4951
13.877
0.241275
0.104563
-0.142432
-0.0103829
0.0302464
0.010146
-0.0117745
-0.0305184
-0.0463495
-0.059884
-0.0716198
-0.0818636
-0.0908712
-0.0987679
-0.105566
-0.11156
-0.117054
-0.762487
-0.76675
-0.778083
-0.799629
-0.837193
-0.900216
-1.00783
-1.19983
-1.51652
-1.71209
-0.85978
-18.0946
125.186
0.263996
0.0887404
-0.0799995
-0.0208201
0.0135837
-2.51223e-05
-0.0190787
-0.0363942
-0.0514204
-0.0644363
-0.0758263
-0.0858343
-0.0946745
-0.102448
-0.109168
-0.1151
-0.120545
-0.741982
-0.745347
-0.754539
-0.772028
-0.801895
-0.850157
-0.92639
-1.04391
-1.19529
-1.28655
-1.10064
-0.823743
2.8831
0.156454
0.0561795
-0.0546912
-0.0297455
-0.00299009
-0.0112948
-0.02724
-0.0429374
-0.0570258
-0.0694392
-0.0804309
-0.0901714
-0.0988219
-0.106455
-0.113083
-0.118943
-0.124327
-0.712386
-0.714801
-0.721689
-0.734794
-0.756662
-0.790605
-0.840781
-0.910121
-0.987722
-1.02089
-0.976779
-0.869796
-0.917516
-0.0148686
0.00840146
-0.0509787
-0.0394586
-0.0193463
-0.0235309
-0.0363061
-0.0501923
-0.0632031
-0.0749321
-0.0854758
-0.0949143
-0.103346
-0.110818
-0.117335
-0.123112
-0.128425
-0.675451
-0.676983
-0.681666
-0.690619
-0.705271
-0.727089
-0.75746
-0.795489
-0.832136
-0.841951
-0.806884
-0.735408
-0.491837
-0.113906
-0.0429215
-0.0605007
-0.0511961
-0.0355736
-0.0365976
-0.0462761
-0.0581975
-0.0699958
-0.0809586
-0.0909948
-0.100086
-0.108272
-0.115561
-0.121952
-0.127634
-0.132865
-0.633601
-0.634401
-0.637199
-0.642621
-0.651377
-0.663851
-0.679995
-0.697862
-0.710754
-0.705078
-0.666055
-0.58156
-0.391918
-0.171591
-0.0889191
-0.0776198
-0.0652865
-0.0518843
-0.0503782
-0.0571211
-0.0669926
-0.0774576
-0.0875679
-0.0970323
-0.105729
-0.113638
-0.120723
-0.126969
-0.132541
-0.137676
-0.58942
-0.589671
-0.591001
-0.593696
-0.597974
-0.603752
-0.61027
-0.615549
-0.614747
-0.599475
-0.558762
-0.47995
-0.34702
-0.204495
-0.126337
-0.0983787
-0.0815234
-0.0685016
-0.0648242
-0.0688369
-0.0766082
-0.0856406
-0.0948132
-0.103641
-0.111898
-0.119494
-0.126346
-0.132426
-0.137869
-0.142893
-0.545256
-0.545146
-0.545422
-0.546185
-0.547371
-0.548608
-0.549076
-0.546916
-0.538806
-0.519141
-0.480712
-0.415785
-0.322158
-0.223576
-0.155492
-0.120131
-0.0993331
-0.0855103
-0.0798723
-0.0813695
-0.0870463
-0.0945814
-0.102735
-0.110862
-0.118636
-0.125879
-0.132471
-0.138361
-0.143654
-0.14855
-0.50296
-0.502672
-0.502299
-0.501798
-0.501031
-0.499542
-0.496473
-0.490441
-0.479001
-0.458669
-0.424919
-0.373887
-0.306437
-0.235065
-0.17804
-0.141186
-0.117839
-0.102779
-0.0953807
-0.0946204
-0.0982746
-0.10429
-0.111364
-0.118737
-0.12598
-0.132832
-0.139135
-0.144808
-0.14993
-0.154681
-0.46388
-0.463535
-0.462852
-0.461673
-0.459786
-0.456839
-0.452106
-0.444455
-0.432277
-0.413297
-0.384969
-0.345393
-0.295637
-0.242352
-0.195441
-0.160389
-0.136134
-0.120068
-0.111186
-0.10848
-0.110257
-0.114774
-0.120736
-0.127307
-0.133971
-0.140397
-0.14638
-0.151811
-0.156739
-0.161325
-0.428868
-0.428529
-0.427741
-0.42632
-0.424003
-0.420447
-0.415155
-0.407333
-0.395829
-0.37923
-0.356041
-0.325336
-0.2879
-0.247265
-0.208976
-0.177408
-0.153709
-0.137198
-0.12719
-0.12287