/*--------------------------------*- C++ -*----------------------------------*\
| =========                 |                                                 |
| \\      /  F ield         | OpenFOAM: The Open Source CFD Toolbox           |
|  \\    /   O peration     | Version:  2.4.0                                 |
|   \\  /    A nd           | Web:      www.OpenFOAM.org                      |
|    \\/     M anipulation  |                                                 |
\*---------------------------------------------------------------------------*/
FoamFile
{
    version     2.0;
    format      ascii;
    class       surfaceScalarField;
    location    "0.004";
    object      phiAlpha;
}
// * * * * * * * * * * * * * * * * * * * * * * * * * * * * * * * * * * * * * //

dimensions      [0 3 -1 0 0 0 0];

internalField   nonuniform List<scalar> 
114720
(
-8.44676e-11
5.07087e-11
1.37321e-10
-1.03562e-10
2.13071e-10
-2.74723e-10
-4.19111e-11
1.03563e-10
5.22784e-10
-6.23751e-10
-6.8634e-11
1.69601e-10
1.03929e-09
-1.208e-09
-1.14639e-10
2.83341e-10
1.88888e-09
-2.15909e-09
-1.83524e-10
4.53741e-10
3.22035e-09
-3.63079e-09
-2.78515e-10
6.88956e-10
5.19924e-09
-5.79073e-09
-4.00855e-10
9.92339e-10
7.99238e-09
-8.8025e-09
-5.48041e-10
1.35815e-09
1.17424e-08
-1.27981e-08
-7.12401e-10
1.7681e-09
1.65326e-08
-1.78406e-08
-8.79639e-10
2.18761e-09
2.23437e-08
-2.38787e-08
-1.02775e-09
2.56278e-09
2.90111e-08
-3.07082e-08
-1.13002e-09
2.82717e-09
3.6197e-08
-3.79494e-08
-1.15924e-09
2.91162e-09
4.34011e-08
-4.50696e-08
-1.09579e-09
2.76426e-09
5.00183e-08
-5.14525e-08
-9.34842e-10
2.36909e-09
5.54403e-08
-5.65068e-08
-6.89354e-10
1.75589e-09
5.91727e-08
-5.97804e-08
-3.87686e-10
9.95338e-10
6.09226e-08
-6.10366e-08
-6.5669e-11
1.79744e-10
6.06349e-08
-6.02756e-08
2.42276e-10
-6.01519e-10
5.84685e-08
-5.76995e-08
5.09427e-10
-1.27838e-09
5.47341e-08
-5.36444e-08
7.19586e-10
-1.80931e-09
4.98187e-08
-4.85053e-08
8.67428e-10
-2.18085e-09
4.41205e-08
-4.26742e-08
9.56221e-10
-2.40252e-09
3.79964e-08
-3.64961e-08
9.9328e-10
-2.49359e-09
3.1745e-08
-3.02484e-08
9.92133e-10
-2.48872e-09
2.55888e-08
-2.41418e-08
9.60377e-10
-2.40742e-09
1.96873e-08
-1.83179e-08
9.09691e-10
-2.27914e-09
1.41406e-08
-1.28664e-08
8.46953e-10
-2.12114e-09
9.00537e-09
-7.83527e-09
7.78089e-10
-1.94819e-09
4.30227e-09
-3.23733e-09
7.08328e-10
-1.77326e-09
5.08943e-11
3.49717e-10
-2.96668e-10
-1.03943e-10
2.89949e-10
-3.41668e-10
-3.64426e-10
4.16146e-10
6.58322e-10
-5.69259e-10
-7.82395e-10
6.93332e-10
1.27499e-09
-9.43867e-10
-1.48074e-09
1.14961e-09
2.279e-09
-1.49281e-09
-2.60445e-09
1.81827e-09
3.83294e-09
-2.23812e-09
-4.32102e-09
2.72619e-09
6.11444e-09
-3.18545e-09
-6.8094e-09
3.88041e-09
9.29756e-09
-4.31147e-09
-1.02388e-08
5.25266e-09
1.35241e-08
-5.55267e-09
-1.47374e-08
6.7659e-09
1.88647e-08
-6.79144e-09
-2.03505e-08
8.27722e-09
2.52706e-08
-7.86434e-09
-2.69941e-08
9.58781e-09
3.25323e-08
-8.56234e-09
-3.44129e-08
1.04429e-08
4.02526e-08
-8.68306e-09
-4.21649e-08
1.05953e-08
4.7868e-08
-8.08558e-09
-4.96542e-08
9.87183e-09
5.47183e-08
-6.7458e-09
-5.6214e-08
8.24149e-09
6.01635e-08
-4.7808e-09
-6.12286e-08
5.84591e-09
6.37084e-08
-2.42557e-09
-6.42544e-08
2.97157e-09
6.50902e-08
3.22808e-11
-6.50926e-08
-2.98906e-11
6.43043e-08
2.327e-09
-6.37984e-08
-2.83294e-09
6.15671e-08
4.26407e-09
-6.06318e-08
-5.19943e-09
5.72415e-08
5.73996e-09
-5.59791e-08
-7.00231e-09
5.17541e-08
6.73393e-09
-5.02716e-08
-8.21644e-09
4.55271e-08
7.28996e-09
-4.39216e-08
-8.89549e-09
3.89309e-08
7.48037e-09
-3.72832e-08
-9.12808e-09
3.22625e-08
7.39297e-09
-3.06341e-08
-9.02138e-09
2.57465e-08
7.10411e-09
-2.41818e-08
-8.66883e-09
1.95338e-08
6.69195e-09
-1.806e-08
-8.16574e-09
1.37196e-08
6.20479e-09
-1.23531e-08
-7.57135e-09
8.35433e-09
5.69107e-09
-7.10103e-09
-6.94438e-09
3.45126e-09
5.16246e-09
-2.31441e-09
-6.29931e-09
5.06165e-11
5.61212e-10
-5.0845e-10
-1.03378e-10
2.88563e-10
-6.39071e-10
-3.62682e-10
7.1319e-10
6.55156e-10
-1.06477e-09
-7.78628e-10
1.18824e-09
1.26885e-09
-1.76555e-09
-1.4736e-09
1.9703e-09
2.26803e-09
-2.79259e-09
-2.59193e-09
3.11649e-09
3.81461e-09
-4.1874e-09
-4.30039e-09
4.67319e-09
6.08556e-09
-5.96113e-09
-6.77738e-09
6.65295e-09
9.25472e-09
-8.07106e-09
-1.0192e-08
9.00833e-09
1.34647e-08
-1.04e-08
-1.46737e-08
1.16089e-08
1.87886e-08
-1.27299e-08
-2.02708e-08
1.42121e-08
2.51833e-08
-1.47569e-08
-2.69057e-08
1.64794e-08
3.24476e-08
-1.60901e-08
-3.43322e-08
1.79747e-08
4.0195e-08
-1.63474e-08
-4.21188e-08
1.82712e-08
4.78707e-08
-1.52578e-08
-4.96775e-08
1.70646e-08
5.48179e-08
-1.2767e-08
-5.63426e-08
1.42917e-08
6.03903e-08
-9.0868e-09
-6.14899e-08
1.01864e-08
6.40778e-08
-4.6561e-09
-6.4659e-08
5.23732e-09
6.55973e-08
-1.81356e-11
-6.56307e-08
5.14745e-11
6.49255e-08
4.32078e-09
-6.44423e-08
-4.80396e-09
6.22652e-08
7.98902e-09
-6.13424e-08
-8.91187e-09
5.79737e-08
1.0787e-08
-5.67132e-08
-1.20475e-08
5.24791e-08
1.2674e-08
-5.09891e-08
-1.4164e-08
4.62099e-08
1.37318e-08
-4.45895e-08
-1.53522e-08
3.95451e-08
1.40974e-08
-3.78775e-08
-1.5765e-08
3.27907e-08
1.39369e-08
-3.11394e-08
-1.55883e-08
2.61794e-08
1.33949e-08
-2.45905e-08
-1.49838e-08
1.98683e-08
1.26193e-08
-1.83702e-08
-1.41174e-08
1.39572e-08
1.17015e-08
-1.25675e-08
-1.30912e-08
8.49987e-09
1.07331e-08
-7.22488e-09
-1.20081e-08
3.51176e-09
9.73624e-09
-2.35504e-09
-1.0893e-08
5.02015e-11
7.71204e-10
-7.18874e-10
-1.02531e-10
2.86422e-10
-9.34734e-10
-3.59985e-10
1.0083e-09
6.50263e-10
-1.55736e-09
-7.72805e-10
1.6799e-09
1.25935e-09
-2.58241e-09
-1.46257e-09
2.78563e-09
2.25108e-09
-4.08482e-09
-2.57258e-09
4.40632e-09
3.78626e-09
-6.12557e-09
-4.2685e-09
6.60782e-09
6.04088e-09
-8.72159e-09
-6.72786e-09
9.40857e-09
9.18844e-09
-1.18116e-08
-1.01196e-08
1.27428e-08
1.33727e-08
-1.52265e-08
-1.4575e-08
1.64289e-08
1.86707e-08
-1.86509e-08
-2.01474e-08
2.01276e-08
2.50478e-08
-2.16442e-08
-2.67685e-08
2.3365e-08
3.23159e-08
-2.36368e-08
-3.42067e-08
2.55275e-08
4.01052e-08
-2.40673e-08
-4.20469e-08
2.6009e-08
4.78752e-08
-2.25296e-08
-4.97142e-08
2.43686e-08
5.49745e-08
-1.89289e-08
-5.65449e-08
2.04993e-08
6.07476e-08
-1.35604e-08
-6.19017e-08
1.47146e-08
6.4661e-08
-7.05823e-09
-6.52981e-08
7.6954e-09
6.63998e-08
-2.19782e-10
-6.64826e-08
3.0253e-10
6.59102e-08
6.20319e-09
-6.54635e-08
-6.6499e-09
6.33734e-08
1.16527e-08
-6.24706e-08
-1.25555e-08
5.91374e-08
1.58245e-08
-5.78802e-08
-1.70817e-08
5.36323e-08
1.865e-08
-5.21306e-08
-2.01518e-08
4.72967e-08
2.02457e-08
-4.56528e-08
-2.18895e-08
4.05231e-08
2.08114e-08
-3.88238e-08
-2.25106e-08
3.3632e-08
2.05926e-08
-3.19442e-08
-2.22804e-08
2.6869e-08
1.98036e-08
-2.52415e-08
-2.1431e-08
2.04011e-08
1.86645e-08
-1.88646e-08
-2.0201e-08
1.43359e-08
1.73113e-08
-1.29092e-08
-1.87381e-08
8.73232e-09
1.58809e-08
-7.42258e-09
-1.71906e-08
3.60798e-09
1.44068e-08
-2.41952e-09
-1.55953e-08
4.96534e-11
9.79122e-10
-9.27362e-10
-1.01413e-10
2.8345e-10
-1.22786e-09
-3.5624e-10
1.30064e-09
6.4347e-10
-2.0457e-09
-7.64723e-10
2.16695e-09
1.24617e-09
-3.39226e-09
-1.44726e-09
3.59335e-09
2.22755e-09
-5.36606e-09
-2.54571e-09
5.68422e-09
3.74689e-09
-8.04756e-09
-4.22422e-09
8.52489e-09
5.97881e-09
-1.14599e-08
-6.65903e-09
1.21401e-08
9.09622e-09
-1.55243e-08
-1.00189e-08
1.64471e-08
1.32443e-08
-2.00226e-08
-1.44373e-08
2.12156e-08
1.85055e-08
-2.45462e-08
-1.99741e-08
2.60148e-08
2.48563e-08
-2.85232e-08
-2.65741e-08
3.02411e-08
3.21266e-08
-3.12103e-08
-3.40248e-08
3.31085e-08
3.9969e-08
-3.18676e-08
-4.19342e-08
3.38328e-08
4.78636e-08
-2.99468e-08
-4.97457e-08
3.18289e-08
5.51674e-08
-2.52981e-08
-5.67997e-08
2.69305e-08
6.12138e-08
-1.82824e-08
-6.24426e-08
1.95112e-08
6.54377e-08
-9.71613e-09
-6.61523e-08
1.04307e-08
6.74809e-08
-6.47993e-10
-6.76327e-08
7.99763e-10
6.72468e-08
7.91751e-09
-6.68517e-08
-8.31263e-09
6.48856e-08
1.52231e-08
-6.40119e-08
-1.60968e-08
6.07315e-08
2.08454e-08
-5.94801e-08
-2.20969e-08
5.52168e-08
2.46783e-08
-5.37e-08
-2.61951e-08
4.87931e-08
2.68657e-08
-4.71176e-08
-2.85412e-08
4.1872e-08
2.76692e-08
-4.01296e-08
-2.94116e-08
3.47939e-08
2.74145e-08
-3.30559e-08
-2.91524e-08
2.78221e-08
2.63881e-08
-2.61416e-08
-2.80686e-08
2.11382e-08
2.48853e-08
-1.95485e-08
-2.6475e-08
1.48602e-08
2.30902e-08
-1.33823e-08
-2.4568e-08
9.05375e-09
2.1187e-08
-7.69614e-09
-2.25446e-08
3.7413e-09
1.92224e-08
-2.50897e-09
-2.04547e-08
4.89773e-11
1.18442e-09
-1.13336e-09
-1.00033e-10
2.79749e-10
-1.51761e-09
-3.51574e-10
1.58944e-09
6.35007e-10
-2.52843e-09
-7.54655e-10
2.64808e-09
1.22974e-09
-4.19285e-09
-1.42818e-09
4.39128e-09
2.19823e-09
-6.63276e-09
-2.51223e-09
6.94677e-09
3.69783e-09
-9.94813e-09
-4.16902e-09
1.04193e-08
5.90144e-09
-1.41687e-08
-6.57322e-09
1.48405e-08
8.98121e-09
-1.92001e-08
-9.89333e-09
2.01123e-08
1.30841e-08
-2.4778e-08
-1.42654e-08
2.59593e-08
1.8299e-08
-3.04063e-08
-1.97574e-08
3.18647e-08
2.46161e-08
-3.53893e-08
-2.63301e-08
3.71033e-08
3.1888e-08
-3.88166e-08
-3.37952e-08
4.07239e-08
3.97956e-08
-3.97708e-08
-4.17899e-08
4.17652e-08
4.78457e-08
-3.75533e-08
-4.97819e-08
3.94896e-08
5.54077e-08
-3.19404e-08
-5.71187e-08
3.36513e-08
6.18026e-08
-2.33347e-08
-6.31271e-08
2.46593e-08
6.64262e-08
-1.27174e-08
-6.7241e-08
1.35322e-08
6.8865e-08
-1.38337e-09
-6.9107e-08
1.62543e-09
6.89662e-08
9.40117e-09
-6.86393e-08
-9.72802e-09
6.68389e-08
1.86626e-08
-6.60046e-08
-1.94969e-08
6.27975e-08
2.58393e-08
-6.1555e-08
-2.70818e-08
5.72756e-08
3.07725e-08
-5.57403e-08
-3.23078e-08
5.07416e-08
3.36257e-08
-4.90258e-08
-3.53415e-08
4.36314e-08
3.47188e-08
-4.18332e-08
-3.6517e-08
3.63112e-08
3.44593e-08
-3.45082e-08
-3.62622e-08
2.9068e-08
3.32089e-08
-2.73183e-08
-3.49586e-08
2.21023e-08
3.13431e-08
-2.04432e-08
-3.30022e-08
1.5546e-08
2.90971e-08
-1.40013e-08
-3.06419e-08
9.4746e-09
2.67068e-08
-8.05431e-09
-2.81271e-08
3.91568e-09
2.42336e-08
-2.626e-09
-2.55233e-08
4.81573e-11
1.38652e-09
-1.33632e-09
-9.83615e-11
2.75326e-10
-1.80323e-09
-3.46001e-10
1.8739e-09
6.24893e-10
-3.00425e-09
-7.42625e-10
3.12198e-09
1.21011e-09
-4.98201e-09
-1.40538e-09
5.17728e-09
2.16318e-09
-7.88156e-09
-2.47221e-09
8.19059e-09
3.63918e-09
-1.18223e-08
-4.10304e-09
1.22861e-08
5.80891e-09
-1.68412e-08
-6.4706e-09
1.75029e-08
8.84356e-09
-2.28302e-08
-9.74296e-09
2.37296e-08
1.2892e-08
-2.94827e-08
-1.40592e-08
3.06499e-08
1.80508e-08
-3.6222e-08
-1.94967e-08
3.7668e-08
2.43262e-08
-4.22376e-08
-2.60349e-08
4.39463e-08
3.15974e-08
-4.64604e-08
-3.35147e-08
4.83777e-08
3.958e-08
-4.77981e-08
-4.16086e-08
4.98266e-08
4.78141e-08
-4.53921e-08
-4.9815e-08
4.73931e-08
5.56865e-08
-3.89219e-08
-5.74928e-08
4.07282e-08
6.25059e-08
-2.88025e-08
-6.3948e-08
3.02447e-08
6.76227e-08
-1.61554e-08
-6.8562e-08
1.70948e-08
7.05555e-08
-2.51398e-09
-7.09111e-08
2.86958e-09
7.10813e-08
1.0584e-08
-7.08417e-08
-1.08236e-08
6.92553e-08
2.19269e-08
-6.84726e-08
-2.27097e-08
6.53649e-08
3.07908e-08
-6.41359e-08
-3.20198e-08
5.98433e-08
3.69446e-08
-5.82869e-08
-3.8501e-08
5.31786e-08
4.05598e-08
-5.14138e-08
-4.23247e-08
4.58367e-08
4.20106e-08
-4.39696e-08
-4.38777e-08
3.82162e-08
4.17875e-08
-3.63322e-08
-4.36715e-08
3.06342e-08
4.03318e-08
-2.87979e-08
-4.2168e-08
2.33152e-08
3.81042e-08
-2.1569e-08
-3.98504e-08
1.64094e-08
3.53967e-08
-1.47805e-08
-3.70256e-08
1.00045e-08
3.2501e-08
-8.50527e-09
-3.40002e-08
4.1355e-09
2.94961e-08
-2.77337e-09
-3.08582e-08
4.72125e-11
1.58492e-09
-1.53569e-09
-9.64386e-11
2.70095e-10
-2.08393e-09
-3.39411e-10
2.15324e-09
6.12932e-10
-3.47188e-09
-7.28397e-10
3.58735e-09
1.1869e-09
-5.75763e-09
-1.37842e-09
5.94915e-09
2.12173e-09
-9.10909e-09
-2.42488e-09
9.41224e-09
3.56979e-09
-1.3665e-08
-4.02496e-09
1.41202e-08
5.69935e-09
-1.94705e-08
-6.34907e-09
2.01203e-08
8.68036e-09
-2.64056e-08
-9.56458e-09
2.72898e-08
1.26637e-08
-3.41265e-08
-1.38138e-08
3.52766e-08
1.77542e-08
-4.19834e-08
-1.91847e-08
4.34139e-08
2.39766e-08
-4.90617e-08
-2.56778e-08
5.07629e-08
3.12404e-08
-5.41442e-08
-3.31675e-08
5.60713e-08
3.93021e-08
-5.59676e-08
-4.13684e-08
5.80339e-08
4.77426e-08
-5.35037e-08
-4.98174e-08
5.55785e-08
5.59726e-08
-4.63085e-08
-5.78901e-08
4.8226e-08
6.32907e-08
-3.47735e-08
-6.48725e-08
3.63554e-08
6.8997e-08
-2.01299e-08
-7.00868e-08
2.12196e-08
7.25301e-08
-4.13725e-09
-7.30253e-08
4.63248e-09
7.35808e-08
1.13857e-08
-7.34505e-08
-1.15159e-08
7.21358e-08
2.49628e-08
-7.14199e-08
-2.56787e-08
6.84459e-08
3.5678e-08
-6.72376e-08
-3.68862e-08
6.29408e-08
4.3203e-08
-6.13623e-08
-4.47815e-08
5.61303e-08
4.7702e-08
-5.43085e-08
-4.95238e-08
4.85159e-08
4.95976e-08
-4.65667e-08
-5.15467e-08
4.0536e-08
4.94643e-08
-3.85544e-08
-5.1446e-08
3.25446e-08
4.78279e-08
-3.06033e-08
-4.97691e-08
2.47965e-08
4.52416e-08
-2.29442e-08
-4.70939e-08
1.74647e-08
4.20599e-08
-1.57331e-08
-4.37915e-08
1.06525e-08
3.86366e-08
-9.05686e-09
-4.02323e-08
4.40423e-09
3.50717e-08
-2.95373e-09
-3.65222e-08
4.61398e-11
1.77908e-09
-1.73096e-09
-9.42578e-11
2.64169e-10
-2.35894e-09
-3.31947e-10
2.42671e-09
5.99381e-10
-3.93001e-09
-7.12279e-10
4.04291e-09
1.1606e-09
-6.51754e-09
-1.34787e-09
6.70482e-09
2.07476e-09
-1.0312e-08
-2.37124e-09
1.06084e-08
3.49114e-09
-1.54714e-08
-3.93645e-09
1.59167e-08
5.57511e-09
-2.20496e-08
-6.21122e-09
2.26857e-08
8.49509e-09
-2.99173e-08
-9.362e-09
3.07842e-08
1.2404e-08
-3.86985e-08
-1.35345e-08
3.9829e-08
1.74156e-08
-4.76793e-08
-1.88279e-08
4.90917e-08
2.35746e-08
-5.58531e-08
-2.52663e-08
5.75448e-08
3.08249e-08
-6.18673e-08
-3.27615e-08
6.38039e-08
3.89694e-08
-6.42937e-08
-4.10767e-08
6.6401e-08
4.76377e-08
-6.19248e-08
-4.97953e-08
6.40825e-08
5.62725e-08
-5.41646e-08
-5.83173e-08
5.62094e-08
6.41662e-08
-4.13383e-08
-6.59111e-08
4.30832e-08
7.05654e-08
-2.47479e-08
-7.18339e-08
2.60164e-08
7.48164e-08
-6.3615e-09
-7.54803e-08
7.02542e-09
7.65064e-08
1.17127e-08
-7.6511e-08
-1.17081e-08
7.55363e-08
2.77049e-08
-7.49057e-08
-2.83355e-08
7.21077e-08
4.04699e-08
-7.09292e-08
-4.16483e-08
6.66418e-08
4.95509e-08
-6.5041e-08
-5.11517e-08
5.96718e-08
5.50849e-08
-5.77847e-08
-5.6972e-08
5.1741e-08
5.75348e-08
-4.96952e-08
-5.95806e-08
4.33353e-08
5.75598e-08
-4.12372e-08
-5.96579e-08
3.4854e-08
5.57753e-08
-3.27866e-08
-5.78427e-08
2.65895e-08
5.28358e-08
-2.46092e-08
-5.4816e-08
1.87431e-08
4.91656e-08
-1.68873e-08
-5.10213e-08
1.1438e-08
4.51882e-08
-9.72535e-09
-4.69008e-08
4.73002e-09
4.10289e-08
-3.17216e-09
-4.25868e-08
4.49414e-11
1.96849e-09
-1.92161e-09
-9.18245e-11
2.57564e-10
-2.62752e-09
-3.23625e-10
2.69358e-09
5.84273e-10
-4.37741e-09
-6.94307e-10
4.48744e-09
1.13127e-09
-7.25971e-09
-1.31381e-09
7.44225e-09
2.02238e-09
-1.14869e-08
-2.31141e-09
1.1776e-08
3.4034e-09
-1.72365e-08
-3.83771e-09
1.76708e-08
5.43644e-09
-2.45717e-08
-6.05731e-09
2.51925e-08
8.28804e-09
-3.33564e-08
-9.1355e-09
3.42039e-08
1.2113e-08
-4.3188e-08
-1.32213e-08
4.42963e-08
1.70346e-08
-5.32982e-08
-1.8426e-08
5.46896e-08
2.31189e-08
-6.26022e-08
-2.47984e-08
6.42817e-08
3.0347e-08
-6.96267e-08
-3.2292e-08
7.15717e-08
3.85739e-08
-7.27872e-08
-4.07245e-08
7.49377e-08
4.74868e-08
-7.06891e-08
-4.97352e-08
7.29375e-08
5.65699e-08
-6.25536e-08
-5.87578e-08
6.47415e-08
6.51163e-08
-4.85909e-08
-6.70484e-08
5.05231e-08
7.23175e-08
-3.0126e-08
-7.37955e-08
3.1604e-08
7.74165e-08
-9.30897e-09
-7.82823e-08
1.01748e-08
7.9877e-08
1.14566e-08
-8.00469e-08
-1.12867e-08
7.9494e-08
3.00734e-08
-7.89713e-08
-3.05961e-08
7.64036e-08
4.51245e-08
-7.52675e-08
-4.62606e-08
7.1011e-08
5.59859e-08
-6.93897e-08
-5.76072e-08
6.38733e-08
6.27407e-08
-6.1913e-08
-6.4701e-08
5.55816e-08
6.58813e-08
-5.34236e-08
-6.80393e-08
4.66787e-08
6.61512e-08
-4.44434e-08
-6.83865e-08
3.76184e-08
6.42616e-08
-3.54012e-08
-6.64788e-08
2.8739e-08
6.09778e-08
-2.66058e-08
-6.3111e-08
2.02773e-08
5.68036e-08
-1.82727e-08
-5.88081e-08
1.23811e-08
5.22412e-08
-1.05282e-08
-5.4094e-08
5.12124e-09
4.74463e-08
-3.43455e-09
-4.9133e-08
4.36201e-11
2.15265e-09
-2.10713e-09
-8.91456e-11
2.50204e-10
-2.88894e-09
-3.14354e-10
2.95309e-09
5.67437e-10
-4.81286e-09
-6.74281e-10
4.9197e-09
1.09858e-09
-7.98212e-09
-1.27585e-09
8.15939e-09
1.96399e-09
-1.26309e-08
-2.24473e-09
1.29116e-08
3.30558e-09
-1.89556e-08
-3.72761e-09
1.93777e-08
5.2817e-09
-2.70301e-08
-5.88553e-09
2.76339e-08
8.05663e-09
-3.67141e-08
-8.8822e-09
3.75397e-08
1.17869e-08
-4.75839e-08
-1.28698e-08
4.86669e-08
1.6605e-08
-5.88278e-08
-1.79717e-08
6.01946e-08
2.25996e-08
-6.92973e-08
-2.42632e-08
7.09609e-08
2.97915e-08
-7.74158e-08
-3.17421e-08
7.93664e-08
3.80934e-08
-8.1454e-08
-4.02872e-08
8.36478e-08
4.72588e-08
-7.98254e-08
-4.96036e-08
8.21701e-08
5.68253e-08
-7.15365e-08
-5.91705e-08
7.38817e-08
6.6097e-08
-5.66287e-08
-6.82406e-08
5.87722e-08
7.42127e-08
-3.63907e-08
-7.5933e-08
3.81111e-08
8.03014e-08
-1.31186e-08
-8.14064e-08
1.42236e-08
8.36832e-08
1.04875e-08
-8.40536e-08
-1.01172e-08
8.40216e-08
3.19697e-08
-8.3635e-08
-3.23563e-08
8.13673e-08
4.95858e-08
-8.02906e-08
-5.06625e-08
7.60986e-08
6.24965e-08
-7.44616e-08
-6.41336e-08
6.87951e-08
7.06994e-08
-6.67551e-08
-7.27394e-08
6.01016e-08
7.46996e-08
-5.78159e-08
-7.69853e-08
5.06275e-08
7.53238e-08
-4.8233e-08
-7.77184e-08
4.08919e-08
7.33852e-08
-3.84989e-08
-7.57782e-08
3.12893e-08
6.97717e-08
-2.89757e-08
-7.20853e-08
2.20999e-08
6.50769e-08
-1.99189e-08
-6.72579e-08
1.35023e-08
5.98935e-08
-1.14828e-08
-6.1913e-08
5.5865e-09
5.44144e-08
-3.7466e-09
-5.62543e-08
4.21787e-11
2.33109e-09
-2.28704e-09
-8.62286e-11
2.42203e-10
-3.14248e-09
-3.04274e-10
3.20455e-09
5.49131e-10
-5.23514e-09
-6.52505e-10
5.33852e-09
1.06304e-09
-8.68276e-09
-1.23457e-09
8.85429e-09
1.9005e-09
-1.37405e-08
-2.17221e-09
1.40123e-08
3.19915e-09
-2.06241e-08
-3.6078e-09
2.10327e-08
5.11323e-09
-2.94181e-08
-5.69846e-09
3.00033e-08
7.80433e-09
-3.99811e-08
-8.60588e-09
4.07827e-08
1.14302e-08
-5.18748e-08
-1.24851e-08
5.29297e-08
1.61328e-08
-6.42542e-08
-1.74717e-08
6.55931e-08
2.20236e-08
-7.5924e-08
-2.36678e-08
7.75682e-08
2.91651e-08
-8.52236e-08
-3.11182e-08
8.71767e-08
3.75324e-08
-9.02939e-08
-3.97688e-08
9.25303e-08
4.69548e-08
-8.93554e-08
-4.94008e-08
9.18013e-08
5.70369e-08
-8.11702e-08
-5.95531e-08
8.36865e-08
6.71071e-08
-6.55504e-08
-6.94874e-08
6.79307e-08
7.62574e-08
-4.36787e-08
-7.82564e-08
4.56778e-08
8.34948e-08
-1.79474e-08
-8.48817e-08
1.93343e-08
8.79727e-08
8.65511e-09
-8.85859e-08
-8.0419e-09
8.9194e-08
3.32722e-08
-8.8978e-08
-3.34881e-08
8.70979e-08
5.37785e-08
-8.61026e-08
-5.47738e-08
8.20204e-08
6.90601e-08
-8.03753e-08
-7.07053e-08
7.45605e-08
7.89865e-08
-7.24348e-08
-8.11121e-08
6.5423e-08
8.40549e-08
-6.29923e-08
-8.64855e-08
5.52944e-08
8.51711e-08
-5.27153e-08
-8.77503e-08
4.47723e-08
8.32567e-08
-4.21731e-08
-8.58559e-08
3.43188e-08
7.93355e-08
-3.17919e-08
-8.18624e-08
2.4268e-08
7.41042e-08
-2.18777e-08
-7.64945e-08
1.48372e-08
6.82588e-08
-1.26193e-08
-7.04767e-08
6.14049e-09
6.20381e-08
-4.11805e-09
-6.40606e-08
4.06195e-11
2.50334e-09
-2.46088e-09
-8.30816e-11
2.33552e-10
-3.38746e-09
-2.93374e-10
3.44728e-09
5.29334e-10
-5.64313e-09
-6.28954e-10
5.74275e-09
1.0246e-09
-9.35976e-09
-1.18992e-09
9.52508e-09
1.83181e-09
-1.4813e-08
-2.09374e-09
1.5075e-08
3.08398e-09
-2.22374e-08
-3.47812e-09
2.26315e-08
4.93078e-09
-3.17293e-08
-5.49579e-09
3.22944e-08
7.53063e-09
-4.31489e-08
-8.30596e-09
4.39242e-08
1.10421e-08
-5.60491e-08
-1.2066e-08
5.7073e-08
1.56161e-08
-6.95636e-08
-1.69233e-08
7.08707e-08
2.13868e-08
-8.24667e-08
-2.30071e-08
8.40869e-08
2.84596e-08
-9.30355e-08
-3.0411e-08
9.49869e-08
3.68764e-08
-9.93012e-08
-3.91527e-08
1.01578e-07
4.65515e-08
-9.92948e-08
-4.9101e-08
1.01844e-07
5.7172e-08
-9.15071e-08
-5.98714e-08
9.42065e-08
6.81088e-08
-7.54574e-08
-7.07512e-08
7.80997e-08
7.84178e-08
-5.21393e-08
-8.07345e-08
5.4456e-08
8.69788e-08
-2.39749e-08
-8.86961e-08
2.56923e-08
9.27547e-08
5.77747e-09
-9.36609e-08
-4.87123e-09
9.50529e-08
3.38304e-08
-9.50506e-08
-3.38327e-08
9.3669e-08
5.76046e-08
-9.27841e-08
-5.84896e-08
8.88749e-08
7.56395e-08
-8.72339e-08
-7.72805e-08
8.12829e-08
8.76231e-08
-7.90677e-08
-8.98384e-08
7.16634e-08
9.40165e-08
-6.907e-08
-9.66099e-08
6.0792e-08
9.5798e-08
-5.80003e-08
-9.85897e-08
4.9359e-08
9.40036e-08
-4.65192e-08
-9.68434e-08
3.7909e-08
8.98074e-08
-3.5131e-08
-9.25854e-08
2.68419e-08
8.40247e-08
-2.42038e-08
-8.66628e-08
1.64236e-08
7.74714e-08
-1.39703e-08
-7.99247e-08
6.79926e-09
7.04421e-08
-4.55983e-09
-7.26815e-08
3.89499e-11
2.66897e-09
-2.6282e-09
-7.97235e-11
2.24276e-10
-3.62319e-09
-2.81685e-10
3.68059e-09
5.08101e-10
-6.03567e-09
-6.03694e-10
6.13127e-09
9.83368e-10
-1.00112e-08
-1.14203e-09
1.01699e-08
1.75811e-09
-1.58453e-08
-2.00956e-09
1.60967e-08
2.96037e-09
-2.3791e-08
-3.33893e-09
2.41695e-08
4.7348e-09
-3.39573e-08
-5.27803e-09
3.45005e-08
7.23615e-09
-4.62083e-08
-7.98306e-09
4.69552e-08
1.06232e-08
-6.00948e-08
-1.16131e-08
6.10848e-08
1.5055e-08
-7.47402e-08
-1.63266e-08
7.60117e-08
2.0688e-08
-8.89063e-08
-2.22794e-08
9.04978e-08
2.76707e-08
-1.00832e-07
-2.96146e-08
1.02776e-07
3.6115e-08
-1.08462e-07
-3.84267e-08
1.10774e-07
4.60295e-08
-1.09649e-07
-4.86826e-08
1.12302e-07
5.72015e-08
-1.02592e-07
-6.00938e-08
1.05484e-07
6.90663e-08
-8.64496e-08
-7.19955e-08
8.93788e-08
8.06609e-08
-6.19324e-08
-8.33372e-08
6.46087e-08
9.07378e-08
-3.14047e-08
-9.28408e-08
3.35077e-08
9.80458e-08
1.64571e-09
-9.93036e-08
-3.87925e-10
1.01655e-07
3.3459e-08
-1.01918e-07
-3.31953e-08
1.01175e-07
6.09361e-08
-1.00438e-07
-6.16732e-08
9.67877e-08
8.21771e-08
-9.51689e-08
-8.37959e-08
8.91067e-08
9.66211e-08
-8.68003e-08
-9.89274e-08
7.89727e-08
1.04656e-07
-7.61986e-08
-1.0743e-07
6.72642e-08
1.0732e-07
-6.42291e-08
-1.10355e-07
5.47808e-08
1.0577e-07
-5.16608e-08
-1.0889e-07
4.21656e-08
1.01347e-07
-3.90925e-08
-1.0442e-07
2.99002e-08
9.5002e-08
-2.69688e-08
-9.79335e-08
1.8311e-08
8.76896e-08
-1.55778e-08
-9.04228e-08
7.58317e-09
7.97734e-08
-5.08541e-09
-8.22711e-08
3.71626e-11
2.82758e-09
-2.7886e-09
-7.61444e-11
2.144e-10
-3.84902e-09
-2.69238e-10
3.90386e-09
4.85489e-10
-6.41171e-09
-5.76793e-10
6.50301e-09
9.39455e-10
-1.06353e-08
-1.09101e-09
1.07869e-08
1.67961e-09
-1.68346e-08
-1.91988e-09
1.70748e-08
2.82864e-09
-2.52806e-08
-3.19057e-09
2.56426e-08
4.52577e-09
-3.60958e-08
-5.04569e-09
3.66157e-08
6.92153e-09
-4.91508e-08
-7.63784e-09
4.98671e-08
1.01741e-08
-6.40001e-08
-1.1127e-08
6.4953e-08
1.44499e-08
-7.97681e-08
-1.56816e-08
8.09998e-08
1.99261e-08
-9.52224e-08
-2.14831e-08
9.67794e-08
2.67941e-08
-1.08589e-07
-2.87237e-08
1.10518e-07
3.52375e-08
-1.17754e-07
-3.75779e-08
1.20095e-07
4.53683e-08
-1.20414e-07
-4.81219e-08
1.23168e-07
5.70923e-08
-1.14459e-07
-6.01843e-08
1.17551e-07
6.99368e-08
-9.86256e-08
-7.31766e-08
1.01865e-07
8.2945e-08
-7.32298e-08
-8.60254e-08
7.63102e-08
9.47481e-08
-4.04683e-08
-9.72992e-08
4.30195e-08
1.03858e-07
-3.99454e-09
-1.05538e-07
5.67499e-09
1.09059e-07
3.19302e-08
-1.09654e-07
-3.13355e-08
1.09726e-07
6.36074e-08
-1.09185e-07
-6.41483e-08
1.05907e-07
8.85901e-08
-1.04336e-07
-9.0161e-08
9.82048e-08
1.05981e-07
-9.58097e-08
-1.08376e-07
8.75334e-08
1.16045e-07
-8.45605e-08
-1.19018e-07
7.48885e-08
1.19865e-07
-7.1576e-08
-1.23178e-07
6.11978e-08
1.18723e-07
-5.77524e-08
-1.22169e-07
4.72224e-08
1.14143e-07
-4.38021e-08
-1.17564e-07
3.35431e-08
1.07231e-07
-3.02639e-08
-1.1051e-07
2.05629e-08
9.91042e-08
-1.74963e-08
-1.02171e-07
8.51908e-09
9.02102e-08
-5.71275e-09
-9.30166e-08
3.52598e-11
2.9788e-09
-2.9417e-09
-7.2356e-11
2.03976e-10
-4.06435e-09
-2.56099e-10
4.11647e-09
4.61614e-10
-6.77021e-09
-5.48389e-10
6.85698e-09
8.93086e-10
-1.12304e-08
-1.03715e-09
1.13745e-08
1.5967e-09
-1.77781e-08
-1.82516e-09
1.80065e-08
2.68946e-09
-2.67023e-08
-3.0338e-09
2.70466e-08
4.30473e-09
-3.81389e-08
-4.79993e-09
3.86341e-08
6.58825e-09
-5.19678e-08
-7.27193e-09
5.26514e-08
9.69683e-09
-6.77528e-08
-1.06098e-08
6.86657e-08
1.38027e-08
-8.46303e-08
-1.49904e-08
8.5818e-08
1.91026e-08
-1.01392e-07
-2.06192e-08
1.02908e-07
2.58287e-08
-1.16277e-07
-2.77362e-08
1.18184e-07
3.42374e-08
-1.27149e-07
-3.65976e-08
1.29509e-07
4.4551e-08
-1.31572e-07
-4.7399e-08
1.3442e-07
5.68142e-08
-1.27131e-07
-6.01095e-08
1.30427e-07
7.06785e-08
-1.12078e-07
-7.42511e-08
1.1565e-07
8.52271e-08
-8.62133e-08
-8.87588e-08
8.9745e-08
9.89858e-08
-5.14279e-08
-1.02056e-07
5.44981e-08
1.10209e-07
-1.14501e-08
-1.12397e-07
1.36379e-08
1.17343e-07
2.89609e-08
-1.18349e-07
-2.79543e-08
1.19458e-07
6.54053e-08
-1.19175e-07
-6.56879e-08
1.1642e-07
9.47617e-08
-1.14932e-07
-9.62495e-08
1.08797e-07
1.15686e-07
-1.0632e-07
-1.18163e-07
9.75777e-08
1.28256e-07
-9.43883e-08
-1.31445e-07
8.38925e-08
1.33576e-07
-8.02649e-08
-1.37203e-07
6.88182e-08
1.33054e-07
-6.49952e-08
-1.36877e-07
5.32551e-08
1.28417e-07
-4.94261e-08
-1.32246e-07
3.79041e-08
1.20946e-07
-3.42113e-08
-1.24639e-07
2.32645e-08
1.11946e-07
-1.97988e-08
-1.15412e-07
9.64266e-09
1.0197e-07
-6.46579e-09
-1.05147e-07
3.32552e-11
3.1223e-09
-3.08716e-09
-6.8396e-11
1.92984e-10
-4.26857e-09
-2.42241e-10
4.31783e-09
4.36431e-10
-7.11019e-09
-5.18428e-10
7.19218e-09
8.44169e-10
-1.17949e-08
-9.80316e-10
1.1931e-08
1.50922e-09
-1.86733e-08
-1.7252e-09
1.88893e-08
2.54253e-09
-2.80519e-08
-2.86828e-09
2.83777e-08
4.07119e-09
-4.00806e-08
-4.54019e-09
4.05496e-08
6.23548e-09
-5.46507e-08
-6.88435e-09
5.52996e-08
9.18984e-09
-7.13406e-08
-1.00597e-08
7.22105e-08
1.31109e-08
-8.93091e-08
-1.42499e-08
9.04481e-08
1.82124e-08
-1.07389e-07
-1.96818e-08
1.08858e-07
2.47647e-08
-1.23862e-07
-2.66405e-08
1.25737e-07
3.30957e-08
-1.36605e-07
-3.54639e-08
1.38973e-07
4.3544e-08
-1.43093e-07
-4.64755e-08
1.46024e-07
5.63128e-08
-1.40615e-07
-5.98095e-08
1.44111e-07
7.12156e-08
-1.26888e-07
-7.5139e-08
1.30812e-07
8.74205e-08
-1.01072e-07
-9.1451e-08
1.05102e-07
1.03377e-07
-6.4578e-08
-1.07045e-07
6.82459e-08
1.17068e-07
-2.10745e-08
-1.19862e-07
2.38675e-08
1.26543e-07
2.42032e-08
-1.2806e-07
-2.26856e-08
1.30483e-07
6.6056e-08
-1.30538e-07
-6.60007e-08
1.28504e-07
1.00532e-07
-1.27148e-07
-1.01888e-07
1.21104e-07
1.25697e-07
-1.18561e-07
-1.28241e-07
1.0935e-07
1.41355e-07
-1.05928e-07
-1.44776e-07
9.45237e-08
1.48604e-07
-9.05416e-08
-1.52586e-07
7.78763e-08
1.48978e-07
-7.36179e-08
-1.53236e-07
6.04688e-08
1.44427e-07
-5.61598e-08
-1.48736e-07
4.31438e-08
1.36427e-07
-3.89583e-08
-1.40613e-07
2.65209e-08
1.26499e-07
-2.25753e-08
-1.30445e-07
1.09986e-08
1.1532e-07
-7.37438e-09
-1.18944e-07
3.11327e-11
3.25778e-09
-3.22467e-09
-6.42428e-11
1.81458e-10
-4.46113e-09
-2.27707e-10
4.50738e-09
4.10015e-10
-7.43072e-09
-4.86999e-10
7.5077e-09
7.92851e-10
-1.23271e-08
-9.20697e-10
1.2455e-08
1.41743e-09
-1.95177e-08
-1.62031e-09
1.97206e-08
2.38831e-09
-2.93258e-08
-2.6945e-09
2.9632e-08
3.82583e-09
-4.19156e-08
-4.26719e-09
4.23569e-08
5.86417e-09
-5.71914e-08
-6.47615e-09
5.78034e-08
8.65436e-09
-7.47515e-08
-9.47793e-09
7.5575e-08
1.23756e-08
-9.37863e-08
-1.34612e-08
9.48719e-08
1.72557e-08
-1.13187e-07
-1.86705e-08
1.14602e-07
2.35994e-08
-1.31304e-07
-2.54326e-08
1.33137e-07
3.18029e-08
-1.46072e-07
-3.41645e-08
1.48434e-07
4.23241e-08
-1.54926e-07
-4.53238e-08
1.57926e-07
5.55439e-08
-1.54895e-07
-5.92339e-08
1.58585e-07
7.14798e-08
-1.43124e-07
-7.57667e-08
1.47411e-07
8.94419e-08
-1.17998e-07
-9.40185e-08
1.22575e-07
1.07849e-07
-8.0248e-08
-1.12201e-07
8.46007e-08
1.24413e-07
-3.32898e-08
-1.27928e-07
3.68047e-08
1.36717e-07
1.72268e-08
-1.38866e-07
-1.50775e-08
1.42953e-07
6.52107e-08
-1.43448e-07
-6.47152e-08
1.42392e-07
1.05685e-07
-1.41232e-07
-1.06845e-07
1.35416e-07
1.35943e-07
-1.3283e-07
-1.38529e-07
1.23166e-07
1.55402e-07
-1.19501e-07
-1.59067e-07
1.07104e-07
1.65111e-07
-1.02727e-07
-1.69489e-07
8.86825e-08
1.66739e-07
-8.3925e-08
-1.71496e-07
6.91429e-08
1.62478e-07
-6.42716e-08
-1.6735e-07
4.94876e-08
1.54018e-07
-4.47139e-08
-1.58792e-07
3.04826e-08
1.43117e-07
-2.59561e-08
-1.47643e-07
1.26516e-08
1.306e-07
-8.48162e-09
-1.3477e-07
2.89033e-11
3.38502e-09
-3.35399e-09
-5.99351e-11
1.69475e-10
-4.64149e-09
-2.12594e-10
4.68461e-09
3.82541e-10
-7.73091e-09
-4.54309e-10
7.80268e-09
7.3947e-10
-1.28257e-08
-8.58679e-10
1.29449e-08
1.32193e-09
-2.0309e-08
-1.51117e-09
2.04982e-08
2.22778e-09
-3.05204e-08
-2.5136e-09
3.08062e-08
3.57022e-09
-4.36382e-08
-3.98272e-09
4.40507e-08
5.47669e-09
-5.95819e-08
-6.04988e-09
6.01551e-08
8.09367e-09
-7.79731e-08
-8.86806e-09
7.87475e-08
1.1601e-08
-9.80431e-08
-1.26284e-08
9.90705e-08
1.62371e-08
-1.18756e-07
-1.759e-08
1.20109e-07
2.23362e-08
-1.3856e-07
-2.41153e-08
1.40339e-07
3.03577e-08
-1.5549e-07
-3.26961e-08
1.57829e-07
4.08782e-08
-1.67006e-07
-4.39264e-08
1.70054e-07
5.44733e-08
-1.6993e-07
-5.83423e-08
1.73799e-07
7.14101e-08
-1.60827e-07
-7.60672e-08
1.65484e-07
9.12107e-08
-1.3718e-07
-9.63793e-08
1.42349e-07
1.1233e-07
-9.88005e-08
-1.17464e-07
1.03934e-07
1.32228e-07
-4.8594e-08
-1.36603e-07
5.29689e-08
1.47953e-07
7.50247e-09
-1.50887e-07
-4.56847e-09
1.57073e-07
6.24226e-08
-1.58139e-07
-6.13573e-08
1.58394e-07
1.09931e-07
-1.57516e-07
-1.10809e-07
1.52111e-07
1.46311e-07
-1.49518e-07
-1.48904e-07
1.39439e-07
1.7044e-07
-1.35521e-07
-1.74358e-07
1.22051e-07
1.83263e-07
-1.17238e-07
-1.88077e-07
1.01647e-07
1.86598e-07
-9.63239e-08
-1.91922e-07
7.96646e-08
1.82918e-07
-7.41379e-08
-1.88445e-07
5.72636e-08
1.74132e-07
-5.17845e-08
-1.79611e-07
3.53768e-08
1.62246e-07
-3.01381e-08
-1.67485e-07
1.4701e-08
1.48249e-07
-9.85409e-09
-1.53096e-07
2.65636e-11
3.50387e-09
-3.47495e-09
-5.54872e-11
1.57045e-10
-4.80914e-09
-1.96915e-10
4.84901e-09
3.54032e-10
-8.00993e-09
-4.20388e-10
8.07629e-09
6.84072e-10
-1.32892e-08
-7.94315e-10
1.33994e-08
1.2228e-09
-2.10449e-08
-1.39788e-09
2.12199e-08
2.06108e-09
-3.16321e-08
-2.3257e-09
3.18967e-08
3.30456e-09
-4.52435e-08
-3.68696e-09
4.56259e-08
5.07328e-09
-6.18143e-08
-5.60581e-09
6.23468e-08
7.50798e-09
-8.09935e-08
-8.23025e-09
8.17158e-08
1.0787e-08
-1.0206e-07
-1.17515e-08
1.03025e-07
1.51555e-08
-1.24065e-07
-1.64384e-08
1.25348e-07
2.0971e-08
-1.4558e-07
-2.2683e-08
1.47292e-07
2.87483e-08
-1.64787e-07
-3.1044e-08
1.67083e-07
3.91784e-08
-1.79242e-07
-4.22495e-08
1.82313e-07
5.30442e-08
-1.85649e-07
-5.70687e-08
1.89673e-07
7.091e-08
-1.80009e-07
-7.59335e-08
1.85032e-07
9.25929e-08
-1.58792e-07
-9.83936e-08
1.64593e-07
1.1668e-07
-1.20629e-07
-1.22698e-07