/*--------------------------------*- C++ -*----------------------------------*\
| =========                 |                                                 |
| \\      /  F ield         | OpenFOAM: The Open Source CFD Toolbox           |
|  \\    /   O peration     | Version:  2.4.0                                 |
|   \\  /    A nd           | Web:      www.OpenFOAM.org                      |
|    \\/     M anipulation  |                                                 |
\*---------------------------------------------------------------------------*/
FoamFile
{
    version     2.0;
    format      ascii;
    class       surfaceScalarField;
    location    "0.061";
    object      phi;
}
// * * * * * * * * * * * * * * * * * * * * * * * * * * * * * * * * * * * * * //

dimensions      [0 3 -1 0 0 0 0];

internalField   nonuniform List<scalar> 
19800
(
-5.31102e-13
5.31102e-13
-1.15545e-12
6.31716e-13
-1.70375e-12
5.36941e-13
-2.14633e-12
4.36362e-13
-2.47538e-12
3.29224e-13
-2.68991e-12
2.16432e-13
-2.7574e-12
6.85238e-14
-2.64525e-12
-1.11992e-13
-2.3216e-12
-3.23796e-13
-1.75583e-12
-5.65991e-13
-9.18233e-13
-8.37893e-13
2.20503e-13
-1.13901e-12
1.68922e-12
-1.46896e-12
3.51592e-12
-1.82714e-12
5.72719e-12
-2.21228e-12
8.34742e-12
-2.62192e-12
1.13975e-11
-3.05202e-12
1.48929e-11
-3.49685e-12
1.88415e-11
-3.94912e-12
2.32419e-11
-4.39993e-12
2.80812e-11
-4.83872e-12
3.33345e-11
-5.25307e-12
3.89628e-11
-5.62869e-12
4.49121e-11
-5.9498e-12
5.11118e-11
-6.19974e-12
5.74742e-11
-6.36175e-12
6.38948e-11
-6.41967e-12
7.02539e-11
-6.35855e-12
7.64192e-11
-6.16526e-12
8.22485e-11
-5.82942e-12
8.7593e-11
-5.34428e-12
9.23017e-11
-4.70765e-12
9.62254e-11
-3.92227e-12
9.92222e-11
-2.99581e-12
1.01163e-10
-1.94049e-12
1.01935e-10
-7.72761e-13
1.01447e-10
4.87617e-13
9.963e-11
1.81646e-12
9.64431e-11
3.18753e-12
9.18719e-11
4.57196e-12
8.59321e-11
5.93985e-12
7.86705e-11
7.26089e-12
7.01646e-11
8.50483e-12
6.05204e-11
9.6427e-12
4.98711e-11
1.06478e-11
3.83753e-11
1.14954e-11
2.62112e-11
1.21639e-11
1.35733e-11
1.26371e-11
6.6971e-13
1.29035e-11
1.29549e-11
-1.22844e-11
-6.53751e-13
1.17664e-12
-1.31008e-12
1.30536e-12
-1.74779e-12
9.80313e-13
-1.93767e-12
6.23306e-13
-1.86183e-12
2.4959e-13
-1.45691e-12
-1.89759e-13
-6.54182e-13
-7.33702e-13
6.27626e-13
-1.39328e-12
2.47084e-12
-2.16727e-12
4.95568e-12
-3.0516e-12
8.16012e-12
-4.04303e-12
1.21601e-11
-5.13955e-12
1.70297e-11
-6.33933e-12
2.28402e-11
-7.63922e-12
2.96587e-11
-9.03324e-12
3.75454e-11
-1.05114e-11
4.65504e-11
-1.20589e-11
5.67085e-11
-1.36555e-11
6.8035e-11
-1.52751e-11
8.05211e-11
-1.68853e-11
9.41294e-11
-1.84469e-11
1.0879e-10
-1.99142e-11
1.24397e-10
-2.1236e-11
1.40804e-10
-2.23565e-11
1.57822e-10
-2.3217e-11
1.7522e-10
-2.37583e-11
1.92724e-10
-2.39224e-11
2.10021e-10
-2.36554e-11
2.26766e-10
-2.29105e-11
2.42588e-10
-2.16514e-11
2.57101e-10
-1.98551e-11
2.69909e-10
-1.75141e-11
2.80625e-10
-1.46375e-11
2.88881e-10
-1.12517e-11
2.94339e-10
-7.3991e-12
2.96704e-10
-3.13845e-12
2.95734e-10
1.45819e-12
2.91247e-10
6.30355e-12
2.83131e-10
1.13035e-11
2.71349e-10
1.63542e-11
2.55939e-10
2.13475e-11
2.37025e-10
2.61732e-11
2.14806e-10
3.07214e-11
1.89563e-10
3.48851e-11
1.61644e-10
3.85652e-11
1.31465e-10
4.16727e-11
9.94979e-11
4.41308e-11
6.62557e-11
4.58789e-11
3.22838e-11
4.68747e-11
4.70933e-11
-1.8537e-12
-5.49806e-13
1.71508e-12
-9.64064e-13
1.71704e-12
-1.05185e-12
1.07028e-12
-7.89933e-13
3.61565e-13
-1.34871e-13
-4.07069e-13
1.00329e-12
-1.32961e-12
2.73716e-12
-2.46863e-12
5.18851e-12
-3.84519e-12
8.47943e-12
-5.4585e-12
1.27293e-11
-7.30155e-12
1.80546e-11
-9.3681e-12
2.4569e-11
-1.16536e-11
3.23831e-11
-1.41536e-11
4.16035e-11
-1.68604e-11
5.233e-11
-1.9761e-11
6.46519e-11
-2.28344e-11
7.86425e-11
-2.60499e-11
9.4353e-11
-2.93659e-11
1.11806e-10
-3.27279e-11
1.30989e-10
-3.60681e-11
1.51847e-10
-3.93049e-11
1.74276e-10
-4.23437e-11
1.98119e-10
-4.50786e-11
2.23158e-10
-4.73944e-11
2.49112e-10
-4.917e-11
2.75636e-10
-5.0282e-11
3.02323e-10
-5.06098e-11
3.28708e-10
-5.0041e-11
3.54276e-10
-4.84786e-11
3.78471e-10
-4.58469e-11
4.00715e-10
-4.20973e-11
4.20414e-10
-3.72129e-11
4.36988e-10
-3.12105e-11
4.49879e-10
-2.41422e-11
4.58574e-10
-1.6095e-11
4.62625e-10
-7.18898e-12
4.61656e-10
2.42631e-12
4.55385e-10
1.25734e-11
4.43631e-10
2.30556e-11
4.26325e-10
3.36579e-11
4.03518e-10
4.41537e-11
3.7538e-10
5.43104e-11
3.42205e-10
6.38957e-11
3.04406e-10
7.26841e-11
2.62505e-10
8.04647e-11
2.17126e-10
8.70487e-11
1.68981e-10
9.22745e-11
1.18848e-10
9.60123e-11
6.75525e-11
9.81704e-11
9.8697e-11
1.59497e-11
-4.3549e-13
2.14982e-12
-6.37612e-13
1.91209e-12
-4.30001e-13
8.60594e-13
2.05745e-13
-2.74899e-13
1.33014e-12
-1.53261e-12
3.05817e-12
-3.05921e-12
5.53466e-12
-4.94642e-12
8.91439e-12
-7.22546e-12
1.33522e-11
-9.89601e-12
1.89999e-11
-1.29484e-11
2.60061e-11
-1.63734e-11
3.45169e-11
-2.01636e-11
4.46747e-11
-2.43109e-11
5.66169e-11
-2.88022e-11
7.04719e-11
-3.36158e-11
8.6355e-11
-3.87172e-11
1.04361e-10
-4.4056e-11
1.24559e-10
-4.95635e-11
1.4698e-10
-5.51494e-11
1.71613e-10
-6.07016e-11
1.98394e-10
-6.60854e-11
2.27196e-10
-7.11449e-11
2.57823e-10
-7.57048e-11
2.90004e-10
-7.95746e-11
3.23386e-10
-8.25527e-11
3.57537e-10
-8.44332e-11
3.91941e-10
-8.50144e-11
4.26008e-10
-8.41086e-11
4.59081e-10
-8.15527e-11
4.90453e-10
-7.72187e-11
5.19379e-10
-7.10229e-11
5.45099e-10
-6.29331e-11
5.66864e-10
-5.29739e-11
5.83951e-10
-4.12286e-11
5.95694e-10
-2.78384e-11
6.01503e-10
-1.29992e-11
6.00883e-10
3.04343e-12
5.93456e-10
1.99977e-11
5.78972e-10
3.75375e-11
5.57324e-10
5.53047e-11
5.28558e-10
7.29196e-11
4.92879e-10
8.99902e-11
4.5065e-10
1.06124e-10
4.02392e-10
1.2094e-10
3.48776e-10
1.3408e-10
2.90601e-10
1.45221e-10
2.28788e-10
1.54086e-10
1.64346e-10
1.60454e-10
9.83503e-11
1.64167e-10
1.65135e-10
3.19138e-11
-3.6843e-13
2.52056e-12
-4.19492e-13
1.95946e-12
-9.53165e-15
4.48095e-13
8.84099e-13
-1.17001e-12
2.33721e-12
-2.987e-12
4.48593e-12
-5.2091e-12
7.49986e-12
-7.96091e-12
1.15604e-11
-1.12856e-11
1.68498e-11
-1.51843e-11
2.35484e-11
-1.96456e-11
3.18339e-11
-2.46577e-11
4.18817e-11
-3.02106e-11
5.38642e-11
-3.62923e-11
6.79474e-11
-4.28843e-11
8.42878e-11
-4.9955e-11
1.03026e-10
-5.74547e-11
1.24281e-10
-6.53107e-11
1.48139e-10
-7.34225e-11
1.74649e-10
-8.1659e-11
2.03804e-10
-8.98567e-11
2.35539e-10
-9.78193e-11
2.69714e-10
-1.05319e-10
3.06109e-10
-1.12099e-10
3.44413e-10
-1.17879e-10
3.8422e-10
-1.2236e-10
4.25024e-10
-1.25238e-10
4.6622e-10
-1.26211e-10
5.07112e-10
-1.25001e-10
5.4692e-10
-1.21361e-10
5.84797e-10
-1.15097e-10
6.19853e-10
-1.06079e-10
6.51174e-10
-9.42529e-11
6.77851e-10
-7.96501e-11
6.9901e-10
-6.23874e-11
7.13838e-10
-4.26677e-11
7.21611e-10
-2.07742e-11
7.21716e-10
2.93541e-12
7.13675e-10
2.80355e-11
6.97166e-10
5.40456e-11
6.72034e-10
8.04367e-11
6.38309e-10
1.06645e-10
5.96216e-10
1.32084e-10
5.46174e-10
1.56166e-10
4.88796e-10
1.78317e-10
4.24881e-10
1.97993e-10
3.55394e-10
2.14705e-10
2.81446e-10
2.28032e-10
2.04267e-10
2.37634e-10
1.25167e-10
2.43268e-10
2.44798e-10
4.55051e-11
-3.3193e-13
2.85335e-12
-2.99132e-13
1.92726e-12
2.22657e-13
-7.43881e-14
1.26165e-12
-2.21011e-12
2.90752e-12
-4.6339e-12
5.314e-12
-7.61598e-12
8.67093e-12
-1.13172e-11
1.3182e-11
-1.57952e-11
1.90538e-11
-2.10546e-11
2.64926e-11
-2.70834e-11
3.57039e-11
-3.38684e-11
4.68918e-11
-4.13977e-11
6.02576e-11
-4.96569e-11
7.59967e-11
-5.86217e-11
9.42942e-11
-6.82511e-11
1.15319e-10
-7.8479e-11
1.39216e-10
-8.92082e-11
1.66097e-10
-1.00304e-10
1.96029e-10
-1.1159e-10
2.29021e-10
-1.22848e-10
2.65014e-10
-1.33811e-10
3.03866e-10
-1.44171e-10
3.45346e-10
-1.53579e-10
3.89116e-10
-1.6165e-10
4.34728e-10
-1.67974e-10
4.81619e-10
-1.72129e-10
5.29108e-10
-1.737e-10
5.76401e-10
-1.72294e-10
6.22605e-10
-1.67566e-10
6.66744e-10
-1.59236e-10
7.07782e-10
-1.47117e-10
7.44655e-10
-1.31125e-10
7.76299e-10
-1.11294e-10
8.01686e-10
-8.77747e-11
8.19856e-10
-6.08387e-11
8.29946e-10
-3.08665e-11
8.3122e-10
1.65859e-12
8.23096e-10
3.61583e-11
8.05164e-10
7.19768e-11
7.77213e-10
1.08388e-10
7.39245e-10
1.44613e-10
6.91489e-10
1.7984e-10
6.34409e-10
2.13246e-10
5.68701e-10
2.44023e-10
4.95284e-10
2.71408e-10
4.15283e-10
2.94704e-10
3.3e-10
3.13313e-10
2.40882e-10
3.26752e-10
1.49479e-10
3.34673e-10
3.36877e-10
5.74006e-11
-3.21501e-13
3.1748e-12
-2.73613e-13
1.88212e-12
2.63231e-13
-6.10305e-13
1.32572e-12
-3.27288e-12
3.01693e-12
-6.32541e-12
5.50626e-12
-1.01047e-11
9.00119e-12
-1.48105e-11
1.37254e-11
-2.05174e-11
1.99082e-11
-2.7236e-11
2.7781e-11
-3.49557e-11
3.75764e-11
-4.36638e-11
4.95273e-11
-5.33482e-11
6.38648e-11
-6.39932e-11
8.08151e-11
-7.55704e-11
1.00595e-10
-8.80295e-11
1.23404e-10
-1.01288e-10
1.49421e-10
-1.15225e-10
1.78785e-10
-1.29668e-10
2.11591e-10
-1.44396e-10
2.47872e-10
-1.59128e-10
2.87587e-10
-1.73524e-10
3.30603e-10
-1.87188e-10
3.76688e-10
-1.99665e-10
4.25493e-10
-2.10456e-10
4.76542e-10
-2.19023e-10
5.29223e-10
-2.24811e-10
5.8279e-10
-2.27266e-10
6.36358e-10
-2.25863e-10
6.88926e-10
-2.20133e-10
7.39385e-10
-2.09695e-10
7.86555e-10
-1.94286e-10
8.29213e-10
-1.73782e-10
8.66132e-10
-1.48213e-10
8.96124e-10
-1.17768e-10
9.18073e-10
-8.27888e-11
9.30969e-10
-4.37645e-11
9.33942e-10
-1.31598e-12
9.2629e-10
4.38093e-11
9.07506e-10
9.07609e-11
8.77303e-10
1.38591e-10
8.35641e-10
1.86276e-10
7.8274e-10
2.32741e-10
7.19097e-10
2.76889e-10
6.45484e-10
3.17636e-10
5.62938e-10
3.53952e-10
4.72746e-10
3.84895e-10
3.76408e-10
4.09649e-10
2.75602e-10
4.27557e-10
1.72131e-10
4.38143e-10
4.41134e-10
6.78743e-11
-3.41386e-13
3.51684e-12
-3.58132e-13
1.90159e-12
7.80432e-14
-1.04528e-12
1.01818e-12
-4.21276e-12
2.58019e-12
-7.88689e-12
4.94875e-12
-1.24717e-11
8.34815e-12
-1.82076e-11
1.30214e-11
-2.51887e-11
1.92199e-11
-3.34338e-11
2.72002e-11
-4.29362e-11
3.72221e-11
-5.36861e-11
4.95479e-11
-6.56738e-11
6.44403e-11
-7.88844e-11
8.21585e-11
-9.32874e-11
1.02954e-10
-1.08825e-10
1.27065e-10
-1.25399e-10
1.54705e-10
-1.42864e-10
1.86052e-10
-1.61014e-10
2.21236e-10
-1.79579e-10
2.60323e-10
-1.98214e-10
3.03302e-10
-2.16503e-10
3.50065e-10
-2.33951e-10
4.00391e-10
-2.49992e-10
4.53932e-10
-2.63998e-10
5.10197e-10
-2.75288e-10
5.6854e-10
-2.83154e-10
6.28155e-10
-2.8688e-10
6.88075e-10
-2.85781e-10
7.47185e-10
-2.79242e-10
8.04244e-10
-2.66753e-10
8.57912e-10
-2.47954e-10
9.06797e-10
-2.22668e-10
9.49499e-10
-1.90916e-10
9.84652e-10
-1.52922e-10
1.01097e-09
-1.0911e-10
1.02729e-09
-6.00832e-11
1.03259e-09
-6.61161e-12
1.02602e-09
5.0375e-11
1.00697e-09
1.09813e-10
9.75049e-10
1.7051e-10
9.3016e-10
2.31165e-10
8.72497e-10
2.90404e-10
8.02578e-10
3.46808e-10
7.21241e-10
3.98971e-10
6.29647e-10
4.45544e-10
5.29251e-10
4.85289e-10
4.21768e-10
5.1713e-10
3.09126e-10
5.40197e-10
1.9341e-10
5.53859e-10
5.57748e-10
7.67962e-11
-3.95826e-13
3.91413e-12
-5.74873e-13
2.08213e-12
-3.78587e-13
-1.24102e-12
2.64836e-13
-4.85578e-12
1.49125e-12
-9.11214e-12
3.50194e-12
-1.44802e-11
6.53859e-12
-2.12419e-11
1.08639e-11
-2.95123e-11
1.67517e-11
-3.93211e-11
2.44838e-11
-5.06686e-11
3.43478e-11
-6.35505e-11
4.66369e-11
-7.79626e-11
6.16469e-11
-9.38937e-11
7.96738e-11
-1.11313e-10
1.01009e-10
-1.30159e-10
1.25931e-10
-1.5032e-10
1.54697e-10
-1.7163e-10
1.87531e-10
-1.93848e-10
2.24609e-10
-2.16657e-10
2.66043e-10
-2.39648e-10
3.11861e-10
-2.62322e-10
3.61994e-10
-2.84085e-10
4.16251e-10
-3.0425e-10
4.74299e-10
-3.22047e-10
5.35647e-10
-3.36636e-10
5.99626e-10
-3.47132e-10
6.65381e-10
-3.52633e-10
7.31865e-10
-3.52264e-10
7.97852e-10
-3.45227e-10
8.61952e-10
-3.30853e-10
9.22656e-10
-3.08659e-10
9.78383e-10
-2.78396e-10
1.02754e-09
-2.4007e-10
1.06856e-09
-1.93946e-10
1.09998e-09
-1.40533e-10
1.12045e-09
-8.05592e-11
1.1288e-09
-1.4953e-11
1.12401e-09
5.51631e-11
1.10532e-09
1.28497e-10
1.07224e-09
2.03591e-10
1.02457e-09
2.78838e-10
9.62457e-10
3.52516e-10
8.86425e-10
4.22839e-10
7.97379e-10
4.88016e-10
6.96601e-10
5.4632e-10
5.85729e-10
5.96158e-10
4.66715e-10
6.36141e-10
3.41772e-10
6.65139e-10
2.133e-10
6.8233e-10
6.87235e-10
8.3814e-11
-4.99756e-13
4.41519e-12
-9.45863e-13
2.52831e-12
-1.14746e-12
-1.03958e-12
-9.99914e-13
-5.00285e-12
-3.43304e-13
-9.76726e-12
1.04323e-12
-1.58645e-11
3.4205e-12
-2.36169e-11
7.07187e-12
-3.31622e-11
1.22944e-11
-4.4543e-11
1.93953e-11
-5.77695e-11
2.86913e-11
-7.28466e-11
4.05075e-11
-8.97786e-11
5.51756e-11
-1.08561e-10
7.30314e-11
-1.29169e-10
9.44094e-11
-1.51536e-10
1.19636e-10
-1.75546e-10
1.49019e-10
-2.01012e-10
1.82835e-10
-2.27664e-10
2.21316e-10
-2.55138e-10
2.64632e-10
-2.82964e-10
3.12868e-10
-3.10558e-10
3.66006e-10
-3.37223e-10
4.239e-10
-3.62144e-10
4.86252e-10
-3.84399e-10
5.52588e-10
-4.02972e-10
6.22233e-10
-4.16776e-10
6.94295e-10
-4.24694e-10
7.67653e-10
-4.25621e-10
8.40963e-10
-4.18536e-10
9.12678e-10
-4.02569e-10
9.81097e-10
-3.77079e-10
1.04442e-09
-3.41723e-10
1.10083e-09
-2.96487e-10
1.14857e-09
-2.41682e-10
1.18595e-09
-1.77915e-10
1.21144e-09
-1.0605e-10
1.22367e-09
-2.71786e-11
1.22145e-09
5.73804e-11
1.20385e-09
1.46097e-10
1.17021e-09
2.37231e-10
1.12021e-09
3.28834e-10
1.05394e-09
4.18793e-10
9.71883e-10
5.04892e-10
8.75014e-10
5.84885e-10
7.64738e-10
6.56594e-10
6.42896e-10
7.17998e-10
5.11709e-10
7.67327e-10
3.73711e-10
8.03136e-10
2.31669e-10
8.24371e-10
8.30413e-10
8.84895e-11
-6.46981e-13
5.06255e-12
-1.48226e-12
3.36286e-12
-2.25602e-12
-2.66127e-13
-2.82144e-12
-4.43684e-12
-2.98854e-12
-9.59868e-12
-2.51301e-12
-1.63381e-11
-1.11256e-12
-2.50153e-11
1.51821e-12
-3.57913e-11
5.70008e-12
-4.87239e-11
1.17668e-11
-6.38358e-11
2.00648e-11
-8.11445e-11
3.09528e-11
-1.00667e-10
4.48007e-11
-1.22409e-10
6.19869e-11
-1.46354e-10
8.28934e-11
-1.72442e-10
1.07899e-10
-2.00551e-10
1.37368e-10
-2.30482e-10
1.71642e-10
-2.61938e-10
2.11017e-10
-2.94514e-10
2.55732e-10
-3.27679e-10
3.05943e-10
-3.60769e-10
3.61701e-10
-3.92981e-10
4.22926e-10
-4.23368e-10
4.89372e-10
-4.50846e-10
5.60605e-10
-4.74205e-10
6.35963e-10
-4.92136e-10
7.14534e-10
-5.03266e-10
7.95134e-10
-5.06221e-10
8.76299e-10
-4.99701e-10
9.56309e-10
-4.8258e-10
1.03324e-09
-4.54012e-10
1.10505e-09
-4.13532e-10
1.16966e-09
-3.611e-10
1.22507e-09
-2.97093e-10
1.26939e-09
-2.22237e-10
1.30088e-09
-1.3754e-10
1.31796e-09
-4.42563e-11
1.31923e-09
5.61055e-11
1.30355e-09
1.61778e-10
1.27005e-09
2.70726e-10
1.21826e-09
3.80631e-10
1.14811e-09
4.88933e-10
1.06009e-09
5.92913e-10
9.55189e-10
6.89786e-10
8.3495e-10
7.76831e-10
7.01439e-10
8.51508e-10
5.57184e-10
9.11581e-10
4.05097e-10
9.55222e-10
2.48371e-10
9.81094e-10
9.88407e-10
9.0375e-11
-8.44297e-13
5.90644e-12
-2.19159e-12
4.70942e-12
-3.71811e-12
1.26032e-12
-5.22266e-12
-2.93176e-12
-6.47773e-12
-8.34255e-12
-7.21087e-12
-1.56035e-11
-7.11567e-12
-2.51088e-11
-5.86354e-12
-3.70418e-11
-3.10908e-12
-5.1477e-11
1.50855e-12
-6.84528e-11
8.36641e-12
-8.80022e-11
1.78582e-11
-1.10158e-10
3.03937e-11
-1.34944e-10
4.63964e-11
-1.62356e-10
6.62996e-11
-1.92344e-10
9.0539e-11
-2.2479e-10
1.19544e-10
-2.59487e-10
1.53724e-10
-2.96119e-10
1.93453e-10
-3.34243e-10
2.39051e-10
-3.73276e-10
2.90758e-10
-4.12475e-10
3.48712e-10
-4.50934e-10
4.12915e-10
-4.87571e-10
4.83203e-10
-5.21134e-10
5.59203e-10
-5.50207e-10
6.40297e-10
-5.73232e-10
7.25576e-10
-5.88547e-10
8.13808e-10
-5.94453e-10
9.03414e-10
-5.89308e-10
9.92484e-10
-5.7165e-10
1.07883e-09
-5.40361e-10
1.16011e-09
-4.94814e-10
1.23396e-09
-4.34955e-10
1.29813e-09
-3.61256e-10
1.35049e-09
-2.74596e-10
1.38909e-09
-1.76145e-10
1.41214e-09
-6.73055e-11
1.41799e-09
5.02524e-11
1.40523e-09
1.74538e-10
1.37273e-09
3.03226e-10
1.31977e-09
4.33591e-10
1.24613e-09
5.6257e-10
1.1522e-09
6.86848e-10
1.03898e-09
8.02998e-10
9.0818e-10
9.07635e-10
7.62101e-10
9.97586e-10
6.03634e-10
1.07005e-09
4.36132e-10
1.12272e-09
2.63298e-10
1.15393e-09
1.16266e-09
8.90442e-11
-1.0904e-12
6.99628e-12
-3.07367e-12
6.69239e-12
-5.53472e-12
3.72138e-12
-8.20595e-12
-2.60464e-13
-1.08144e-11
-5.73381e-12
-1.30553e-11
-1.33619e-11
-1.45957e-11
-2.35671e-11
-1.50824e-11
-3.65535e-11
-1.41449e-11
-5.24133e-11
-1.13947e-11
-7.12022e-11
-6.42377e-12
-9.29726e-11
1.19724e-12
-1.17779e-10
1.19191e-11
-1.45665e-10
2.62128e-11
-1.76648e-10
4.45655e-11
-2.10696e-10
6.74746e-11
-2.47699e-10
9.54385e-11
-2.87451e-10
1.28944e-10
-3.29625e-10
1.6845e-10
-3.7375e-10
2.14368e-10
-4.19193e-10
2.67037e-10
-4.65143e-10
3.26696e-10
-5.10592e-10
3.93454e-10
-5.54329e-10
4.6725e-10
-5.94932e-10
5.47808e-10
-6.30769e-10
6.34587e-10
-6.60013e-10
7.26717e-10
-6.80679e-10
8.22949e-10
-6.90686e-10
9.21602e-10
-6.87961e-10
1.02056e-09
-6.70604e-10
1.11731e-09
-6.37117e-10
1.20916e-09
-5.86661e-10
1.29339e-09
-5.19187e-10
1.36747e-09
-4.35335e-10
1.42907e-09
-3.36198e-10
1.47604e-09
-2.23122e-10
1.50636e-09
-9.76267e-11
1.5181e-09
3.85182e-11
1.50949e-09
1.83144e-10
1.47906e-09
3.33654e-10
1.42576e-09
4.8689e-10
1.34912e-09
6.39208e-10
1.24938e-09
7.86591e-10
1.12755e-09
9.24827e-10
9.85461e-10
1.04972e-09
8.25722e-10
1.15732e-09
6.51638e-10
1.24413e-09
4.67091e-10
1.30727e-09
2.76388e-10
1.34463e-09
1.35495e-09
8.4096e-11
-1.38347e-12
8.37948e-12
-4.1232e-12
9.432e-12
-7.69555e-12
7.29332e-12
-1.1755e-11
3.79817e-12
-1.59758e-11
-1.51367e-12
-2.00166e-11
-9.3211e-12
-2.35162e-11
-2.00668e-11
-2.60957e-11
-3.39727e-11
-2.73594e-11
-5.11484e-11
-2.68914e-11
-7.16693e-11
-2.42525e-11
-9.56105e-11
-1.89778e-11
-1.23052e-10
-1.05748e-11
-1.54066e-10
1.47548e-12
-1.88697e-10
1.77168e-11
-2.26935e-10
3.87115e-11
-2.68692e-10
6.50316e-11
-3.13771e-10
9.72468e-11
-3.61841e-10
1.35908e-10
-4.12412e-10
1.81526e-10
-4.64811e-10
2.3455e-10
-5.18166e-10
2.95338e-10
-5.7138e-10
3.64123e-10
-6.23116e-10
4.40976e-10
-6.71788e-10
5.25752e-10
-7.15548e-10
6.1803e-10
-7.52294e-10
7.17037e-10
-7.79687e-10
8.21554e-10
-7.95204e-10
9.29836e-10
-7.96243e-10
1.03954e-09
-7.80305e-10
1.14777e-09
-7.45347e-10
1.25134e-09
-6.90237e-10
1.34715e-09
-6.14991e-10
1.43236e-09
-5.20548e-10
1.50449e-09
-4.08326e-10
1.56123e-09
-2.7987e-10
1.60035e-09
-1.3674e-10
1.61955e-09
1.93143e-11
1.61665e-09
1.86041e-10
1.58969e-09
3.60619e-10
1.53715e-09
5.39426e-10
1.45821e-09
7.18148e-10
1.35288e-09
8.91921e-10
1.22213e-09
1.05557e-09
1.06795e-09
1.20391e-09
8.93259e-10
1.33201e-09
7.01881e-10
1.43551e-09
4.98326e-10
1.51082e-09
2.87632e-10
1.55532e-09
1.56743e-09
7.51487e-11
-1.72078e-12
1.01002e-11
-5.33062e-12
1.30414e-11
-1.0181e-11
1.21426e-11
-1.58383e-11
9.45374e-12
-2.19168e-11
4.56342e-12
-2.80358e-11
-3.20273e-12
-3.38038e-11
-1.42986e-11
-3.88166e-11
-2.89592e-11
-4.26532e-11
-4.73109e-11
-4.48712e-11
-6.94502e-11
-4.50017e-11
-9.54785e-11
-4.25447e-11
-1.25507e-10
-3.69668e-11
-1.59641e-10
-2.76998e-11
-1.97961e-10
-1.41424e-11
-2.4049e-10
4.33424e-12
-2.87169e-10
2.83797e-11
-3.37818e-10
5.86505e-11
-3.92113e-10
9.5794e-11
-4.49556e-10
1.40429e-10
-5.09446e-10
1.9312e-10
-5.70858e-10
2.54356e-10
-6.32615e-10
3.2451e-10
-6.93272e-10
4.03809e-10
-7.51089e-10
4.92277e-10
-8.04018e-10
5.89668e-10
-8.49686e-10
6.95376e-10
-8.85394e-10
8.08304e-10
-9.08133e-10
9.26714e-10
-9.14652e-10
1.04804e-09
-9.01629e-10
1.16888e-09
-8.66186e-10
1.2854e-09
-8.06757e-10
1.39397e-09
-7.23563e-10
1.49152e-09
-6.18102e-10
1.5755e-09
-4.92303e-10
1.64356e-09
-3.47934e-10
1.69326e-09
-1.8644e-10
1.7219e-09
-9.32767e-12
1.7267e-09
1.81244e-10
1.70503e-09
3.82289e-10
1.65476e-09
5.89703e-10
1.57452e-09
7.98381e-10
1.46401e-09
1.00243e-09
1.32411e-09
1.19548e-09
1.15693e-09
1.37109e-09
9.65809e-10
1.52313e-09
7.55164e-10
1.64615e-09
5.30277e-10
1.73571e-09
2.97067e-10
1.78853e-09
1.80267e-09
6.18304e-11
-2.09877e-12
1.21988e-11
-6.6826e-12
1.76242e-11
-1.29641e-11
1.84223e-11
-2.04099e-11
1.68975e-11
-2.85725e-11
1.27244e-11
-3.70271e-11
5.25099e-12
-4.53519e-11
-5.97385e-12
-5.31176e-11
-2.11932e-11
-5.98799e-11
-4.05481e-11
-6.51715e-11
-6.41577e-11
-6.84955e-11
-9.2153e-11
-6.9319e-11
-1.24681e-10
-6.70685e-11
-1.61888e-10
-6.11277e-11
-2.03898e-10
-5.08377e-11
-2.50779e-10
-3.55006e-11
-3.02506e-10
-1.43884e-11
-3.58932e-10
1.3245e-11
-4.19748e-10
4.81468e-11
-4.84459e-10
9.10453e-11
-5.52345e-10
1.42627e-10
-6.22441e-10
2.03514e-10
-6.93503e-10
2.7423e-10
-7.63989e-10
3.55174e-10
-8.32033e-10
4.4657e-10
-8.95412e-10
5.48406e-10
-9.51522e-10
6.6034e-10
-9.97329e-10
7.81537e-10
-1.02933e-09
9.10415e-10
-1.04353e-09
1.04423e-09
-1.03544e-09
1.17887e-09
-1.00083e-09
1.30954e-09
-9.37435e-10
1.43198e-09
-8.46002e-10
1.54295e-09
-7.29077e-10
1.64006e-09
-5.89408e-10
1.72113e-09
-4.29001e-10
1.78356e-09
-2.48868e-10
1.82411e-09
-4.98838e-11
1.83919e-09
1.66171e-10
1.82525e-09
3.96232e-10
1.77927e-09
6.35684e-10
1.69917e-09
8.7847e-10
1.58418e-09
1.11742e-09
1.43498e-09
1.34467e-09
1.25386e-09
1.5522e-09
1.04463e-09
1.73236e-09
8.12425e-10
1.87836e-09
5.63478e-10
1.98466e-09
3.04781e-10
2.04723e-09
2.06368e-09
4.37705e-11
-2.51229e-12
1.47106e-11
-8.16178e-12
2.32724e-11
-1.60085e-11
2.62673e-11
-2.54136e-11
2.63008e-11
-3.58604e-11
2.31699e-11
-4.68809e-11
1.62708e-11
-5.80232e-11
5.1681e-12
-6.88348e-11
-1.0382e-11
-7.88502e-11
-3.05331e-11
-8.75806e-11
-5.54273e-11
-9.4504e-11
-8.52284e-11
-9.90575e-11
-1.20125e-10
-1.0063e-10
-1.60313e-10
-9.8559e-11
-2.05968e-10
-9.21278e-11
-2.5721e-10
-8.057e-11
-3.14065e-10
-6.30771e-11
-3.76426e-10
-3.88123e-11
-4.44014e-10
-6.92789e-12
-5.16344e-10
3.34149e-11
-5.92689e-10
8.30238e-11
-6.7205e-10
1.42651e-10
-7.5313e-10
2.1297e-10
-8.34307e-10
2.94549e-10
-9.1361e-10
3.87829e-10
-9.88693e-10
4.93088e-10
-1.05678e-09
6.10359e-10
-1.1146e-09
7.39267e-10
-1.15824e-09
8.78675e-10
-1.18294e-09
1.0258e-09
-1.18257e-09
1.17552e-09
-1.15055e-09
1.32146e-09
-1.08338e-09
1.45857e-09
-9.83113e-10
1.58372e-09
-8.54232e-10
1.69508e-09
-7.00766e-10
1.791e-09
-5.24918e-10
1.86878e-09
-3.26648e-10
1.92442e-09
-1.05527e-10
1.95316e-09
1.3744e-10
1.95017e-09
3.99219e-10
1.91124e-09
6.74614e-10
1.8333e-09
9.56406e-10
1.7149e-09
1.23582e-09
1.55647e-09
1.50311e-09
1.36043e-09
1.74823e-09
1.13118e-09
1.96161e-09
8.74767e-10
2.13477e-09
5.98577e-10
2.26085e-09
3.10919e-10
2.33489e-09
2.35399e-09
2.06102e-11
-2.95634e-12
1.76663e-11
-9.74771e-12
3.00628e-11
-1.92723e-11
3.57908e-11
-3.07793e-11
3.78066e-11
-4.36805e-11
3.60704e-11
-5.74642e-11
3.00541e-11
-7.16509e-11
1.93541e-11
-8.57679e-11
3.73376e-12
-9.93326e-11
-1.69698e-11
-1.11839e-10
-4.29219e-11
-1.22744e-10
-7.43225e-11
-1.3146e-10
-1.11407e-10
-1.37342e-10
-1.54429e-10
-1.39683e-10
-2.03627e-10
-1.3771e-10
-2.59184e-10
-1.30588e-10
-3.21187e-10
-1.17429e-10
-3.89585e-10
-9.73045e-11
-4.64138e-10
-6.92634e-11
-5.44385e-10
-3.23565e-11
-6.29596e-10
1.43401e-11
-7.18747e-10
7.16991e-11
-8.10489e-10
1.40524e-10
-9.0313e-10
2.21536e-10
-9.94622e-10
3.15382e-10
-1.08254e-09
4.22641e-10
-1.16404e-09
5.43824e-10
-1.23578e-09
6.79268e-10
-1.29368e-09
8.28808e-10
-1.33248e-09
9.90019e-10
-1.34378e-09
1.15617e-09
-1.31671e-09
1.31814e-09
-1.24534e-09
1.47005e-09
-1.13502e-09
1.60951e-09
-9.93691e-10
1.73595e-09
-8.27209e-10
1.84883e-09
-6.37797e-10
1.94532e-09
-4.23139e-10
2.02021e-09
-1.80418e-10
2.06705e-09
9.06056e-11
2.07927e-09
3.86992e-10
2.05107e-09
7.0282e-10
1.97805e-09
1.02942e-09
1.85786e-09
1.35602e-09
1.6905e-09
1.67046e-09
1.47858e-09
1.96015e-09
1.22717e-09
2.21301e-09
9.43493e-10
2.41845e-09
6.36367e-10
2.56797e-09
3.15716e-10
2.65554e-09
2.67768e-09
-7.97499e-12
-3.42368e-12
2.10897e-11
-1.14162e-11
3.80548e-11
-2.27059e-11
4.70798e-11
-3.64254e-11
5.15258e-11
-5.19149e-11
5.15599e-11
-6.86205e-11
4.67595e-11
-8.60381e-11
3.67706e-11
-1.0368e-10
2.13738e-11
-1.21052e-10
4.00338e-13
-1.37637e-10
-2.63381e-11
-1.52879e-10
-5.90808e-11
-1.66169e-10
-9.81171e-11
-1.76834e-10
-1.43765e-10
-1.84126e-10
-1.96336e-10
-1.8722e-10
-2.56091e-10
-1.85213e-10
-3.23193e-10
-1.77136e-10
-3.9766e-10
-1.61966e-10
-4.79307e-10
-1.38647e-10
-5.67704e-10
-1.06115e-10
-6.62128e-10
-6.33327e-11
-7.61529e-10
-9.31989e-12
-8.64501e-10
5.68273e-11
-9.69278e-10
1.35941e-10
-1.07374e-09
2.28815e-10
-1.17541e-09
3.36287e-10
-1.27151e-09
4.59359e-10
-1.35885e-09
5.99307e-10
-1.43363e-09
7.57776e-10
-1.49095e-09
9.33708e-10
-1.51972e-09
1.11775e-09
-1.50075e-09
1.29545e-09
-1.42304e-09
1.46085e-09
-1.30042e-09
1.6137e-09
-1.14655e-09
1.7558e-09
-9.69302e-10
1.88838e-09
-7.70377e-10
2.00816e-09
-5.4292e-10
2.10786e-09
-2.80117e-10
2.17861e-09
1.98492e-11
2.21159e-09
3.54018e-10
2.19893e-09
7.15478e-10
2.13456e-09
1.09379e-09
2.01487e-09
1.47571e-09
1.83928e-09
1.84606e-09
1.61054e-09
2.18889e-09
1.3346e-09
2.48895e-09
1.02014e-09
2.73291e-09
6.77813e-10
2.9103e-09
3.19518e-10
3.01383e-09
3.03944e-09
-4.22488e-11
-3.90658e-12
2.49962e-11
-1.31396e-11
4.72873e-11
-2.62517e-11
6.01915e-11
-4.22577e-11
6.75321e-11
-6.04274e-11
6.973e-11
-8.01685e-11
6.65004e-11
-1.00957e-10
5.75579e-11
-1.22297e-10
4.27114e-11
-1.43691e-10
2.17921e-11
-1.64617e-10
-5.41204e-12
-1.84516e-10
-3.91823e-11
-2.02765e-10
-7.98677e-11
-2.18672e-10
-1.2786e-10
-2.31453e-10
-1.83556e-10
-2.40234e-10
-2.47308e-10
-2.4405e-10
-3.19376e-10
-2.41847e-10
-3.9986e-10
-2.32503e-10
-4.88649e-10
-2.14848e-10
-5.85359e-10
-1.87697e-10
-6.89279e-10
-1.49893e-10
-7.99331e-10
-1.0035e-10
-9.14044e-10
-3.80824e-11
-1.03155e-09
3.77891e-11
-1.14961e-09
1.281e-10
-1.26572e-09
2.33799e-10
-1.37721e-09
3.56248e-10
-1.4813e-09
4.97648e-10
-1.57503e-09
6.62429e-10
-1.65573e-09
8.53179e-10
-1.71047e-09
1.05665e-09
-1.70422e-09
1.24684e-09
-1.61322e-09
1.42156e-09
-1.47515e-09
1.58575e-09
-1.31074e-09
1.74433e-09
-1.12788e-09
1.90096e-09
-9.27001e-10
2.05075e-09
-6.9272e-10
2.18275e-09
-4.1211e-10
2.28485e-09
-8.22515e-11
2.34555e-09
2.93312e-10
2.35463e-09
7.06405e-10
2.30384e-09
1.14458e-09
2.18789e-09
1.59166e-09
2.00529e-09
2.02866e-09
1.75888e-09
2.4353e-09
1.45575e-09
2.79208e-09
1.10649e-09
3.08217e-09
7.24064e-10
3.29272e-09
3.2282e-10
3.41507e-09
3.44462e-09
-8.23547e-11
-4.39644e-12
2.93926e-11
-1.48863e-11
5.77762e-11
-2.98443e-11
7.5149e-11
-4.81689e-11
8.58572e-11
-6.90628e-11
9.06247e-11
-9.19007e-11
8.93382e-11
-1.16147e-10
8.18027e-11
-1.41304e-10
6.78671e-11
-1.6688e-10
4.73683e-11
-1.92365e-10
2.00728e-11
-2.172e-10
-1.43464e-11
-2.40766e-10
-5.63029e-11
-2.62355e-10
-1.06272e-10
-2.81162e-10
-1.64748e-10
-2.96272e-10
-2.32196e-10
-3.06658e-10
-3.08988e-10
-3.11183e-10
-3.95333e-10
-3.08618e-10
-4.91214e-10
-2.97664e-10
-5.96312e-10
-2.76997e-10
-7.09944e-10
-2.45319e-10
-8.3101e-10
-2.01414e-10
-9.57951e-10
-1.4421e-10
-1.08876e-09
-7.28066e-11
-1.22102e-09
1.3557e-11
-1.35209e-09
1.15707e-10
-1.47936e-09
2.34955e-10
-1.60055e-09
3.73847e-10
-1.71392e-09
5.40521e-10
-1.8224e-09
7.44586e-10
-1.91453e-09
9.66762e-10
-1.9264e-09
1.16051e-09
-1.80697e-09
1.33575e-09
-1.65038e-09
1.50781e-09
-1.4828e-09
1.68629e-09
-1.30636e-09
1.87541e-09
-1.11613e-09
2.06564e-09
-8.82945e-10
2.23954e-09
-5.8601e-10
2.3819e-09
-2.24617e-10
2.47874e-09
1.96474e-10
2.51723e-09
6.67919e-10
2.48647e-09
1.17534e-09
2.37878e-09
1.69934e-09
2.19118e-09
2.21625e-09
1.92646e-09
2.70002e-09
1.59319e-09
3.12535e-09
1.2045e-09
3.47086e-09
7.76404e-10
3.72081e-09
3.26252e-10
3.86523e-09
3.89915e-09
-1.2828e-10
-4.88353e-12
3.42757e-11
-1.66206e-11
6.95117e-11
-3.34097e-11
9.19376e-11
-5.40372e-11
1.06485e-10
-7.7645e-11
1.14233e-10
-1.03582e-10
1.15275e-10
-1.3131e-10
1.0953e-10
-1.60342e-10
9.68988e-11
-1.90204e-10
7.72316e-11
-2.20406e-10
5.02761e-11
-2.50412e-10
1.56598e-11
-2.79613e-10
-2.71026e-11
-3.07306e-10
-7.85782e-11
-3.32676e-10
-1.39376e-10
-3.54781e-10
-2.1009e-10
-3.72541e-10
-2.91227e-10
-3.84737e-10
-3.83137e-10
-3.90026e-10
-4.85924e-10
-3.86965e-10
-5.99371e-10
-3.74058e-10
-7.22851e-10
-3.49814e-10
-8.55255e-10
-3.12829e-10
-9.94939e-10
-2.61878e-10
-1.13971e-09
-1.96003e-10
-1.28689e-09
-1.14529e-10
-1.43356e-09
-1.69013e-11
-1.57699e-09
9.7681e-11
-1.71513e-09
2.29986e-10
-1.84622e-09
3.91025e-10
-1.98344e-09
6.0579e-10
-2.12929e-09
8.43899e-10
-2.16451e-09
1.01157e-09
-1.97464e-09
1.1711e-09
-1.80991e-09
1.35321e-09
-1.66491e-09
1.56038e-09
-1.51352e-09
1.80237e-09
-1.35812e-09
2.04694e-09
-1.12752e-09
2.27287e-09
-8.11942e-10
2.46481e-09
-4.16564e-10
2.6071e-09
5.41871e-11
2.68429e-09
5.90731e-10
2.68202e-09
1.17762e-09
2.58895e-09
1.79241e-09
2.39957e-09
2.40564e-09
2.11625e-09
2.98333e-09
1.74953e-09
3.49208e-09
1.31612e-09
3.90427e-09
8.36106e-10
4.20083e-09
3.30534e-10
4.3708e-09
4.40946e-09
-1.79777e-10
-5.35681e-12
3.96315e-11
-1.83024e-11
8.24554e-11
-3.6865e-11
1.105e-10
-5.97267e-11
1.29348e-10
-8.59772e-11
1.40485e-10
-1.1495e-10
1.44248e-10
-1.46113e-10
1.40694e-10
-1.79006e-10
1.29793e-10
-2.13187e-10
1.11414e-10
-2.48202e-10
8.52924e-11
-2.83552e-10
5.101e-11
-3.18662e-10
8.00786e-12
-3.52854e-10
-4.43845e-11
-3.85324e-10
-1.06904e-10
-4.15122e-10
-1.80291e-10
-4.4113e-10
-2.6522e-10
-4.6206e-10
-3.62208e-10
-4.76455e-10
-4.71528e-10
-4.82714e-10
-5.9311e-10
-4.79131e-10
-7.26435e-10
-4.63953e-10
-8.70434e-10
-4.35483e-10
-1.02341e-09
-3.92196e-10
-1.183e-09
-3.32884e-10
-1.3462e-09
-2.56792e-10
-1.50965e-09
-1.63562e-10
-1.67022e-09
-5.25952e-11
-1.82609e-09
7.67482e-11
-1.97556e-09
2.14009e-10
-2.1207e-09
4.19976e-10
-2.33526e-09
6.91203e-10
-2.43574e-09
7.67341e-10
-2.05078e-09
8.66768e-10
-1.90934e-09
1.06514e-09
-1.86329e-09
1.37109e-09
-1.81947e-09
1.68779e-09
-1.67482e-09
1.99349e-09
-1.43322e-09
2.2776e-09
-1.09605e-09
2.52638e-09
-6.65347e-10
2.72346e-09
-1.42888e-10
2.8505e-09
4.63688e-10
2.88803e-09
1.14008e-09
2.81878e-09
1.86166e-09
2.63269e-09
2.59173e-09
2.33105e-09
3.28497e-09
1.92714e-09
3.89599e-09
1.44292e-09
4.38849e-09
9.04108e-10
4.73963e-09
3.36347e-10
4.93856e-09
4.98205e-09
-2.36235e-10
-5.80381e-12
4.54339e-11
-1.98872e-11
9.65372e-11
-4.01189e-11
1.30732e-10
-6.50874e-11
1.54317e-10
-9.38411e-11
1.69239e-10
-1.2571e-10
1.76117e-10
-1.60185e-10
1.7517e-10
-1.96843e-10
1.66452e-10
-2.35294e-10
1.49866e-10
-2.75139e-10
1.25137e-10
-3.15937e-10
9.18077e-11
-3.5717e-10
4.92433e-11
-3.98216e-10
-3.33604e-12
-4.38312e-10
-6.68068e-11
-4.76527e-10
-1.42077e-10
-5.11737e-10
-2.3001e-10
-5.42609e-10
-3.31335e-10
-5.67592e-10
-4.46544e-10
-5.84927e-10
-5.75776e-10
-5.92669e-10
-7.18693e-10
-5.88747e-10
-8.74355e-10
-5.71048e-10
-1.04111e-09
-5.37538e-10
-1.2165e-09
-4.86421e-10
-1.39732e-09
-4.16322e-10
-1.57975e-09
-3.26442e-10
-1.76009e-09
-2.16419e-10
-1.93611e-09
-8.36629e-11
-2.10832e-09
7.32793e-11
-2.27764e-09