/*--------------------------------*- C++ -*----------------------------------*\
| =========                 |                                                 |
| \\      /  F ield         | OpenFOAM: The Open Source CFD Toolbox           |
|  \\    /   O peration     | Version:  2.4.0                                 |
|   \\  /    A nd           | Web:      www.OpenFOAM.org                      |
|    \\/     M anipulation  |                                                 |
\*---------------------------------------------------------------------------*/
FoamFile
{
    version     2.0;
    format      ascii;
    class       volScalarField;
    location    "0.17";
    object      p;
}
// * * * * * * * * * * * * * * * * * * * * * * * * * * * * * * * * * * * * * //

dimensions      [1 -1 -2 0 0 0 0];

internalField   nonuniform List<scalar> 
57600
(
50.3057
60.3897
72.9056
78.7851
80.5489
80.8061
81.2783
83.729
88.2528
92.581
95.2752
96.3145
96.1527
95.2618
94.0163
92.6723
91.3879
90.2505
89.2978
88.5342
87.9434
87.4997
87.1757
86.9462
86.7901
86.6905
86.6339
86.6096
86.6092
86.6261
46.9551
60.3383
71.6705
76.2298
77.423
77.5776
78.3491
81.4246
86.1659
90.1822
92.4416
93.135
92.7472
91.7332
90.4376
89.0897
87.8283
86.7277
85.8169
85.0941
84.5398
84.127
83.8282
83.6187
83.4782
83.3908
83.3434
83.3261
83.3308
83.3514
43.5288
57.0937
68.4721
73.0069
74.1768
74.3063
75.0182
78.0841
82.9042
86.9809
89.2596
89.9453
89.5416
88.5109
87.1988
85.8336
84.5555
83.4402
82.518
81.7876
81.2291
80.8146
80.5156
80.3068
80.1674
80.0811
80.0349
80.0185
80.0241
80.0453
40.0258
53.8615
65.3082
69.8041
70.9379
71.0289
71.6466
74.692
79.6315
83.8045
86.1181
86.7973
86.3711
85.3153
83.9771
82.5846
81.2794
80.1402
79.1997
78.457
77.8917
77.4742
77.1748
76.967
76.8293
76.7449
76.7005
76.6857
76.6927
76.7149
36.4444
50.644
62.1789
66.6212
67.7063
67.7463
68.2339
71.2479
76.3518
80.6554
83.016
83.6887
83.2344
82.1455
80.772
79.3421
77.9997
76.8278
75.8618
75.1022
74.5274
74.1061
73.8063
73.6
73.4646
73.3827
73.3405
73.3278
73.3364
73.3601
32.7813
47.4446
59.085
63.4581
64.4817
64.4595
64.7785
67.7465
73.0649
77.535
79.9543
80.6193
80.1298
78.9993
77.5812
76.1044
74.7153
73.5017
72.5033
71.7222
71.1354
70.7094
70.4095
70.2054
70.0731
69.9941
69.9545
69.9439
69.9544
69.9798
29.0324
44.2682
56.0273
60.3146
61.2638
61.1702
61.2782
64.1813
69.7707
74.4451
76.9347
77.5897
77.057
75.8755
74.4039
72.871
71.4256
70.1609
69.1226
68.3149
67.714
67.2829
66.9834
66.7825
66.6541
66.5786
66.5419
66.5336
66.5462
66.5735
25.1925
41.1215
53.0071
57.1905
58.0525
57.8804
57.7307
60.5437
66.4691
71.3879
73.9593
74.6013
74.0163
72.7743
71.2402
69.642
68.1302
66.8044
65.7178
64.8784
64.261
63.8248
63.5269
63.3307
63.2075
63.1365
63.1031
63.0972
63.1117
63.1409
21.2551
38.013
50.0259
54.0858
54.8473
54.5929
54.1339
56.8225
63.1606
68.366
71.0308
71.6557
71.0084
69.6959
68.0907
66.418
64.8293
63.431
62.2868
61.4097
60.7736
60.3327
60.0384
59.8492
59.7333
59.6683
59.6391
59.6356
59.6514
59.6822
17.2116
34.9553
47.0858
50.9999
51.6477
51.3109
50.4852
53.0035
59.8456
65.3824
68.1517
68.7547
68.0339
66.6407
64.9556
63.1994
61.5227
60.0391
58.8264
57.905
57.248
56.8036
56.5158
56.3369
56.2314
56.1748
56.1512
56.1504
56.1664
56.1962
13.0503
31.9588
44.1892
47.9326
48.4529
48.0384
46.7827
49.0682
56.5255
62.4407
65.3256
65.9006
65.0937
63.609
61.8355
59.987
58.2106
56.6271
55.3332
54.3598
53.6797
53.2338
52.9567
52.7928
52.7018
52.657
52.6414
52.6444
52.6598
52.684
8.75835
29.0346
41.3387
44.8836
45.2618
44.7803
43.025
44.9913
53.2022
59.5448
62.5562
63.0959
62.1886
60.6012
58.7308
56.7816
54.8938
53.1934
51.8032
50.7684
50.0628
49.6186
49.3581
49.2153
49.1442
49.1153
49.1109
49.12
49.1364
49.1587
4.3191
26.1968
38.5373
41.8524
42.0727
41.5423
39.2121
40.7372
49.8787
56.699
59.8473
60.3433
59.3193
57.617
55.6418
53.5838
51.5732
49.7361
48.2314
47.1235
46.3897
45.9521
45.7161
45.6025
45.5577
45.5497
45.5601
45.5784
45.5987
45.6202
-0.292927
23.4635
35.7884
38.8388
38.8838
38.3317
35.3452
36.252
46.5589
53.9084
57.2019
57.6461
56.4867
54.6565
52.5686
50.3945
48.2506
46.2533
44.6126
43.416
42.6507
42.227
42.0268
41.9526
41.9418
41.9594
41.9876
42.0175
42.0457
42.075
-5.10998
20.861
33.0954
35.8426
35.6918
35.1568
31.4317
31.4531
43.2478
51.1778
54.6264
55.0078
53.6912
51.719
49.5112
47.2137
44.9279
42.7426
40.9408
39.6341
38.833
38.4339
38.2851
38.2638
38.296
38.3437
38.3908
38.432
38.4667
38.4966
-10.1754
18.4215
30.4617
32.8638
32.4928
32.0282
27.5021
26.2634
39.9483
48.5125
52.1249
52.4321
50.933
48.8033
46.4688
44.0406
41.6048
39.1986
37.2095
35.7623
34.9185
34.5607
34.4859
34.5354
34.6216
34.7046
34.7714
34.8224
34.8618
34.8937
-15.5495
16.1823
27.8917
29.9028
29.2809
28.9597
23.5784
20.5868
36.6549
45.9203
49.7023
49.9233
48.2115
45.9073
43.4402
40.8735
38.2707
35.6006
33.4112
31.7799
30.8823
30.5924
30.6252
30.7686
30.9227
31.0473
31.1355
31.1958
31.2391
31.273
-21.3177
14.1836
25.3906
26.9609
26.0479
25.9698
19.6808
14.0772
33.3581
43.4146
47.3629
47.4853
45.5252
43.027
40.4223
37.7113
34.8866
31.9317
29.5396
27.6595
26.6867
26.5102
26.7023
26.968
27.2057
27.3812
27.4944
27.5653
27.6124
27.6474
-27.595
12.4641
22.9661
24.0399
22.7825
23.0844
15.8665
6.25895
30.0656
41.0178
45.1096
45.1222
42.8699
40.1555
37.4067
34.5575
31.4024
28.303
25.6022
23.3646
22.2742
22.2939
22.7305
23.1491
23.4835
23.722
23.8666
23.9495
23.9984
24.0297
-34.5279
11.0545
20.6296
21.1432
19.4688
20.3431
12.2351
-3.10622
26.7916
38.742
42.9435
42.8369
40.2379
37.2804
34.3801
31.4245
27.8431
24.8023
21.6185
18.8553
17.563
17.9304
18.7552
19.3605
19.7894
20.0906
20.2677
20.3605
20.4053
20.4242
-42.2994
9.96879
18.3974
18.2742
16.0935
17.814
9.13942
-13.6366
23.5457
36.5278
40.8647
40.6306
37.6137
34.3806
31.3787
28.3388
24.3166
21.37
17.6167
14.1044
12.4242
13.3765
14.8287
15.6705
16.1745
16.505
16.7028
16.8035
16.8386
16.8341
-51.139
9.19232
16.2804
15.4361
12.6905
15.6155
7.28502
-24.1634
20.3479
34.3077
38.8741
38.5011
34.9702
31.422
28.5361
25.3219
20.9355
18.0215
13.6389
9.05305
6.31739
8.33888
10.9872
12.1066
12.643
12.9606
13.1719
13.2902
13.312
13.2643
-61.3151
8.66789
14.2742
12.6346
9.34024
13.9266
6.78867
-28.4575
17.5484
32.0654
36.9774
36.4407
32.2573
28.3512
25.8561
22.3996
17.7862
14.8179
9.79646
3.63926
-1.66753
2.3033
7.43896
8.73336
9.18092
9.43045
9.67635
9.85732
9.86845
9.73479
-73.1252
8.28947
12.3684
9.85518
6.37229
12.832
-18.6381
-8.60704
15.4759
29.7883
35.1829
34.4321
29.366
25.0516
23.3191
19.659
14.9383
11.8083
6.15935
-1.56093
-9.52904
-3.66175
4.52051
5.44474
5.81204
5.82227
6.18911
6.59658
6.62368
6.32832
-86.9758
7.92493
10.5561
7.06608
3.60434
12.0487
-0.00348385
-1.19972
13.8101
27.4199
33.4735
32.4457
26.0293
21.236
21.0652
17.1524
12.4178
9.03238
2.83383
-6.34939
-17.1761
-10.0361
3.01489
1.41691
2.99917
1.59323
2.64327
3.7803
3.79786
3.39374
-103.159
7.51074
8.83653
4.2029
1.41146
4.01041
-0.0552385
-0.315132
11.6586
24.7556
31.7806
30.4384
22.084
16.6771
19.0342
14.8147
10.124
6.54011
-0.0256022
-10.7078
0.0184761
-0.177139
0.0303387
-0.0298182
-0.0259475
-0.0123495
-0.00273084
-0.000602815
0.000374854
0.00385026
-114.093
6.73713
7.22811
1.13163
-0.420781
-0.305814
-0.11669
-0.0828561
8.85555
21.9339
29.9973
28.3458
18.8093
12.9185
17.1565
12.5782
7.89883
4.38519
-4.39782
-0.104523
-0.0469866
0.0875623
-0.0581865
-0.0349937
-0.0255946
-0.0144009
-0.00665266
-0.00214767
0.000664097
0.00310542
-99.3333
4.83407
5.79505
-3.60329
-0.187124
-0.260096
-0.169853
-0.392197
4.2628
18.6624
28.0889
26.0481
15.9037
11.6052
15.3766
10.5462
5.79006
4.49848
-0.506721
-0.185846
-0.127939
-0.105512
-0.081599
-0.0479762
-0.0288339
-0.0162411
-0.00780315
-0.0024632
0.000529738
0.00354885
-79.9752
4.43475
4.41828
-0.011912
-0.201744
-0.228176
-0.208763
-0.928081
-7.70802
18.4041
26.1367
23.4646
11.3562
12.8346
13.3064
8.74156
3.911
-4.25963
-0.51691
-0.246139
-0.188567
-0.124794
-0.0956036
-0.0615686
-0.0348248
-0.0184426
-0.00826458
-0.001552
-7.54153e-05
0.00190153
-58.9598
2.38424
6.05109
-0.0398855
-0.208688
-0.214055
-0.235038
-0.916895
-30.9346
13.9772
23.1562
20.8288
5.41929
13.4401
10.4024
7.5484
3.53337
1.35745
-0.476174
0.0106844
-0.215485
-0.138547
-0.111797
-0.0745451
-0.0434493
-0.0233133
-0.0116449
-0.000157848
0.0126795
0.0142784
86.6555
86.6987
86.7622
86.8515
86.973
87.1349
87.347
87.6217
87.9742
88.4223
88.9866
89.6881
90.5438
91.5605
92.7239
93.9905
95.2795
96.4555
97.2918
97.4493
96.4851
93.9305
89.8204
85.7674
84.098
85.1461
88.2051
92.3606
96.52
99.8297
83.3844
83.4325
83.5023
83.5992
83.7303
83.904
84.131
84.4242
84.7998
85.2765
85.8755
86.6174
87.5176
88.5786
89.7789
91.0657
92.3471
93.4682
94.1741
94.098
92.7712
89.7612
85.404
81.7685
80.8558
82.4999
85.9592
90.2156
94.2621
97.2189
80.0789
80.1275
80.1976
80.2949
80.426
80.5997
80.8268
81.1204
81.4969
81.9757
82.5781
83.3255
84.2338
85.3055
86.5187
87.8191
89.114
90.249
90.9686
90.9034
89.5741
86.528
82.0942
78.4208
77.5431
79.2137
82.689
86.9539
91.0042
93.9695
76.7493
76.7987
76.8693
76.9667
77.098
77.2716
77.4988
77.7931
78.1713
78.6534
79.2614
80.0175
80.9388
82.0287
83.264
84.5877
85.9043
87.0582
87.7951
87.7422
86.4039
83.3003
78.7513
75.0224
74.2001
75.9122
79.4138
83.6925
87.7498
90.7308
73.3957
73.446
73.5174
73.6152
73.7466
73.9202
74.1476
74.4429
74.8235
75.3101
75.9259
76.6941
77.6335
78.7487
80.0149
81.371
82.7168
83.8943
84.6516
84.613
83.2625
80.0824
75.3768
71.572
70.8272
72.5954
76.1333
80.4312
84.4988
87.503
70.0169
70.0686
70.141
70.2396
70.3713
70.5451
70.7729
71.0695
71.4533
71.9457
72.5713
73.3549
74.3174
75.4648
76.7703
78.1662
79.5476
80.7545
81.537
81.5163
80.1515
76.8756
71.968
68.0664
67.4252
69.2636
72.8476
77.17
81.251
84.2861
66.6123
66.6657
66.7396
66.8392
66.9714
67.1456
67.3741
67.6724
68.06
68.5594
69.1967
69.9987
70.9892
72.1765
73.5295
74.9719
76.3949
77.6374
78.451
78.4528
77.0723
73.6809
68.5212
64.5014
63.9947
65.9169
69.5564
73.9088
78.0062
81.0802
63.1819
63.2372
63.3126
63.4133
63.5464
63.7212
63.9505
64.2509
64.6428
65.1503
65.801
66.6245
67.6478
68.8831
70.2929
71.7882
73.2582
74.5427
75.394
75.4238
74.0267
70.4992
65.0316
60.8719
60.5371
62.5558
66.2599
70.6474
74.7642
77.8851
59.7254
59.7832
59.8593
59.961
60.0955
60.2711
60.5014
60.8041
61.2009
61.7174
62.3832
63.2306
64.2915
65.5837
67.0609
68.6151
70.1378
71.4707
72.3663
72.4303
71.0167
67.3321
61.4933
57.1717
57.0542
59.1808
62.958
67.386
71.5245
74.7009
56.2411
56.3049
56.3767
56.4799
56.6174
56.7944
57.0259
57.331
57.733
58.2592
58.9414
59.8152
60.9178
62.2773
63.8341
65.4525
67.0334
68.4214
69.3683
69.4739
68.0447
64.1813
57.8986
53.3932
53.5485
55.7922
59.6504
64.1244
68.2867
71.5273
52.7157
52.9966
52.8803
52.9683
53.1113
53.2905
53.5233
53.8308
54.238
54.7744
55.4742
56.3763
57.5239
58.9624
60.6133
62.2997
63.9449
65.3951
66.4004
66.556
65.1134
61.0487
54.2374
49.5274
50.0232
52.3903
56.337
60.8624
65.0501
68.3646
49.1949
49.255
49.3265
49.4316
49.5768
49.7589
49.9928
50.3023
50.7149
51.2616
51.9797
52.9119
54.1058
55.6361
57.3995
59.155
60.8721
62.3922
63.4632
63.6784
62.2261
57.9366
50.4967
45.5629
46.483
48.9758
53.0173
57.6
61.8143
65.2129
45.6922
45.7044
45.7673
45.8676
46.0123
46.1973
46.4329
46.7448
47.1625
47.7189
48.4555
49.4198
50.6586
52.2922
54.192
56.0149
57.8143
59.4129
60.557
60.8434
59.3857
54.8471
46.6589
41.485
42.9335
45.5485
49.6904
54.3369
58.5783
62.0701
42.0981
42.1353
42.1908
42.2781
42.4146
42.6022
42.8422
43.1579
43.58
44.1446
44.8993
45.8984
47.1772
48.9121
50.9858
52.8736
54.7717
56.4582
57.6824
58.0537
56.5955
51.7826
42.7002
37.273
39.3831
42.1091
46.3558
51.0733
55.3415
58.9358
38.5236
38.5536
38.5928
38.653
38.7731
38.9746
39.2218
39.542
39.967
40.5365
41.3073
42.3457
43.6573
45.4304
47.7593
49.7216
51.7444
53.5288
54.8395
55.3116
53.8576
48.7448
38.5872
32.8971
35.842
38.6574
43.0119
47.809
52.1026
55.8101
34.9221
34.9507
34.971
34.9497
35.027
35.3281
35.5799
35.8993
36.3232
36.8917
37.6741
38.7586
40.104
41.6945
44.4425
46.5468
48.7344
50.6262
52.0281
52.62
51.1727
45.7332
34.2845
28.3458
32.3235
35.1935
39.6569
44.5439
48.8607
52.6903
31.3041
31.3405
31.4013
34.2093
34.5924
31.7131
31.923
32.2311
32.6483
33.2066
33.9915
35.1288
36.5608
37.8277
40.8699
43.339
45.7458
47.7521
49.2475
49.9823
48.5458
42.7439
29.7753
23.607
28.8489
31.718
36.2883
41.278
45.6144
49.5714
27.6784
27.7149
27.7713
27.8303
27.8611
28.0491
28.2392
28.5354
28.9425
29.4768
30.2472
31.4432
33.0723
34.3993
36.8734
40.1018
42.7858
44.9088
46.496
47.402
45.9909
39.7731
25.0669
18.5163
25.4444
28.232
32.9027
38.0112
42.3618
46.4515
24.0539
24.0798
24.116
24.1697
24.2344
24.3438
24.5198
24.8099
25.2088
25.6983
26.4229
27.6851
29.5697
31.1616
32.5692
36.87
39.8654
42.0988
43.7701
44.8831
43.5142
36.8338
20.173
12.9363
22.1354
24.7395
29.4947
34.743
39.1006
43.3278
20.4319
20.4375
20.4475
20.4673
20.5085
20.6169
20.7512
21.056
21.4573
21.8685
22.4902
23.8283
25.9972
27.7858
28.4899
33.7128
36.9988
39.3251
41.0637
42.43
41.1092
33.9564
15.1956
6.72527
18.9701
21.2499
26.0553
31.4723
35.8277
40.1965
16.8126
16.7877
16.7692
16.7612
16.7685
16.8662
17.4966
17.2796
17.7007
17.9871
18.396
19.8379
22.3812
24.3185
25.1474
30.7
34.2008
36.5906
38.3661
40.0468
38.7687
31.1761
10.3681
-0.110709
15.9882
17.7849
22.5685
28.1969
32.5384
37.0522
13.1875
13.113
13.0706
13.0675
13.0686
13.0398
13.2154
13.4684
13.9484
14.0603
14.0203
15.6757
18.7296
20.9688
22.5885
27.8479
31.4857
33.8987
35.6587
37.7363
36.4921
28.5232
5.95811
-7.41199
13.1698
14.3839
19.0196
24.9126
29.2256
33.8867
9.53605
9.35586
9.28957
9.35852
9.40715
9.30204
9.28575
9.56921
10.2311
9.99015
9.10912
11.281
15.0267
17.7894
20.4507
25.089
28.8668
31.2538
32.9125
35.4974
34.2701
25.9833
2.46362
-11.309
10.3583
11.0911
15.4335
21.613
25.8779
30.6887
5.82641
5.37022
5.28106
5.63133
5.88402
5.47485
5.19434
5.45985
6.61927
5.48019
3.57583
6.54181
11.2611
14.7123
18.1729
22.3166
26.3613
28.6638
30.0834
33.3198
32.0868
23.5718
3.54615
0.238728
7.11054
7.93353
11.8914
18.2876
22.477
27.441
2.00405
0.691855
0.65786
1.96023
3.07798
1.43727
0.770134
0.676172
3.15806
1.65524
-1.66451
1.62376
7.45117
11.7133
15.5118
19.5365
23.9959
26.144
27.0986
31.1743
29.8879
22.5138
-3.06495
0.585274
0.253863
5.21545
8.6432
14.9219
19.0077
24.1184
0.0106079
0.0115341
0.0103669
0.00199092
-0.0344667
-0.0607219
-0.338468
-4.41251
0.533881
0.881825
-7.41909
-3.77343
3.80691
8.83655
12.6628
16.985
21.8012
23.7281
23.8321
29.0067
27.5587
18.854
-14.055
0.322112
-0.2467
-5.57366
5.75389
11.5008
15.4666
20.6818
0.00563893
0.00590127
0.00410176
-0.000763211
-0.00445916
-0.00189638
-0.0017742
-0.00617861
-0.0301471
-0.0396975
-0.0654313
-11.5912
0.821394
6.20232
9.69399
14.7878
19.7851
21.4851
20.1001
26.7286
25.2734
16.1991
-17.7725
0.20993
-0.189024
-0.150811
3.2738
8.03818
11.8466
17.0664
0.00973469
0.0101509
0.00395733
0.000280954
-0.00259823
0.0030686
-0.00386757
-0.0107338
-0.0309259
-0.0673187
-0.0993076
-0.130364
1.23242
3.86172
6.38433
12.6572
17.9253
19.5538
15.7164
24.2211
23.1422
13.8473
0.358886
0.156499
-0.162091
-0.173588
-3.47167
4.63106
8.11104
13.1285
0.0265938
0.0070291
0.00211144
-0.00570263
-0.0103347
-0.00785301
-0.0113209
-0.0181279
-0.0534051
-0.126519
-0.1676
-0.188605
-0.0125101
1.76778
2.81012
10.3022
16.1796
18.0014
11.7652
21.2156
20.7321
8.9603
0.202031
0.106932
-0.149695
-0.179334
-0.0984357
1.49592
4.26331
8.56407
0.00186441
0.00219815
0.00668128
0.0907636
-0.0279556
-0.0221481
-0.0200646
-0.0321709
-0.0836145
-0.174285
-0.18789
-0.121833
-0.0961273
-25.3367
-2.17097
7.70313
14.4497
15.6644
9.54399
17.6863
16.82
-0.564914
0.257096
0.0510266
-0.143142
-0.176716
-0.0945735
-0.0636255
0.195893
3.26521
-49.5774
1.27186
-11.4941
-0.0562681
-0.20903
-0.209126
-0.237609
-0.887751
-81.7999
13.7853
19.1788
18.8724
2.25034
11.4804
7.43724
7.32918
0.773542
4.91443
-0.269032
0.0319035
-0.196854
-0.147526
-0.124385
-0.0828991
-0.0519667
-0.0299476
-0.0189353
-0.00361114
-3.3188e-05
0.0591449
-21.428
2.41614
-0.23966
-0.0647612
-0.207324
-0.207124
-0.239993
-0.942661
255.128
18.856
17.0484
18.1601
1.13969
8.49892
4.68298
11.0739
0.443157
2.12955
-0.181544
-0.174097
-0.182615
-0.150016
-0.129554
-0.0847203
-0.0588595
-0.035459
-0.0240661
-0.0167724
-0.00221649
10.8442
-11.1775
0.423344
-0.0478873
-0.0732081
-0.204404
-0.205378
-0.229685
-1.09758
35.8643
19.1769
15.1446
17.7592
0.882049
5.28673
2.99465
-0.150552
0.340466
1.08903
-0.156151
-0.142257
-0.168621
-0.150585
-0.13233
-0.0956484
-0.0650511
-0.0424707
-0.0291938
-0.0238998
-0.0324803
10.6423
-0.717694
0.260594
-0.0582127
-0.0813573
-0.200624
-0.203718
-0.234035
-1.29905
-15.0405
12.6379
12.9354
16.8751
1.12879
2.52621
-8.57774
0.144468
0.185479
0.116264
-0.122217
-0.138055
-0.15756
-0.150272
-0.136523
-0.106281
-0.0778012
-0.0502954
-0.0322866
-0.0359204
-0.0398643
-0.0243273
0.98453
0.373447
-0.0658242
-0.0889601
-0.196308
-0.201892
-0.229723
-1.57729
6.42423
11.0459
11.2033
15.1215
0.843192
1.06029
0.0496863
0.111944
0.051653
0.0796635
-0.0988148
-0.133191
-0.150451
-0.150168
-0.142284
-0.114655
-0.0833917
-0.0587174
-0.0320596
-0.0409409
-0.0441027
-0.0505413
-0.0642124
-0.0563003
-0.072881
-0.0958957
-0.19176
-0.199761
-0.229512
-0.499523
-0.156802
14.5032
9.90796
14.9231
-0.283329
-0.555255
0.0510508
0.0937145
-0.0139704
0.0428514
-0.0828787
-0.12664
-0.151013
-0.0883316
-0.152836
-0.122191
-0.0905575
-0.0661631
-0.0532586
-0.0484014
-0.0513212
-0.0575328
-0.0746653
-0.0573972
-0.0800149
-0.102095
-0.187259
-0.197271
-0.225643
0.102133
0.0137438
21.673
6.83042
18.3677
-11.043
0.0490185
0.0447006
0.0788162
-0.0109955
-0.0062039
-0.0737731
-0.116633
-0.14047
-0.0816426
-0.1424
-0.132724
-0.0980268
-0.0738306
-0.0622742
-0.0579614
-0.0594019
-0.062795
-0.0834998
-0.0654794
-0.0875968
-0.107736
-0.183011
-0.194434
-0.222382
0.700963
-0.328607
-14.8199
4.2373
20.2845
-0.224629
0.00702302
0.0390012
0.0251974
-0.0144471
0.0145274
-0.0700417
-0.10759
-0.124248
-0.137082
-0.139438
-0.132331
-0.10424
-0.0838705
-0.0717423
-0.0681953
-0.0677459
-0.0691148
-0.0927186
-0.0739004
-0.0949009
-0.112999
-0.179159
-0.191155
-0.212913
0.100076
-0.539254
-0.565813
5.34057
21.4134
0.0116695
-0.00594274
0.0219878
0.0160947
-0.0355181
-0.0448445
-0.0681422
-0.0999658
-0.117702
-0.131195
-0.136203
-0.127925
-0.108065
-0.0931768
-0.0833146
-0.0792773
-0.077993
-0.0777012
-0.103128
-0.085025
-0.101833
-0.118031
-0.175774
-0.187394
-0.204316
0.245708
-0.922625
-0.440745
-0.136308
-0.218599
0.00287583
-0.0440923
0.0123384
0.0088099
-0.0334148
-0.0583094
-0.0699187
-0.0937461
-0.111881
-0.123918
-0.129404
-0.123436
-0.11102
-0.0730946
-0.0953677
-0.0913656
-0.0896263
-0.0884402
-0.113565
-0.100481
-0.108334
-0.122981
-0.172822
-0.183237
-0.201965
0.00216774
-1.28317
-0.302565
-0.165665
-0.18677
-0.125063
-0.0597826
0.0571072
0.000847709
-0.0375606
-0.0488553
-0.0684444
-0.087875
-0.105685
-0.116722
-0.121944
-0.121061
-0.116689
-0.109002
-0.106058
-0.10452
-0.103021
-0.10139
-0.122348
-0.107542
-0.114455
-0.127892
-0.170291
-0.178791
-0.185412
0.0056202
-1.13665
-0.386843
-0.168956
-0.1836
-0.144983
-0.0756577
-0.0197376
-0.00573238
-0.0432611
-0.0566899
-0.0641623
-0.0832305
-0.100609
-0.110559
-0.115447
-0.118651
-0.119101
-0.119
-0.118915
-0.118914
-0.117465
-0.115195
-0.129477
-0.121839
-0.120263
-0.132746
-0.168227
-0.174141
-0.166337
-0.00326234
-0.704127
-0.34716
-0.185094
-0.149099
-0.149175
-0.0873646
-0.0347873
-0.0313836
-0.0528505
-0.0580946
-0.0606558
-0.0753053
-0.0912197
-0.103443
-0.113747
-0.117668
-0.123327
-0.128775
-0.130935
-0.116376
-0.130541
-0.128043
-0.135393
-0.120361
-0.125903
-0.137565
-0.166684
-0.16949
-0.14552
0.0354358
-0.427297
-0.325
-0.197849
-0.145547
-0.155805
-0.113624
-0.0466443
-0.0538532
-0.067146
-0.061847
-0.0593116
-0.0188296
-0.054643
0.0772046
-0.113662
-0.117635
-0.127226
-0.134739
-0.142975
-0.14253
-0.141533
-0.138935
-0.139824
-0.126475
-0.13156
-0.14238
-0.165723
-0.165109
-0.122841
0.0603902
-0.192374
-0.322437
-0.164661
-0.12776
-0.152111
-0.13236
-0.0930065
-0.0828709
-0.0891427
-0.0718746
-0.0629313
-0.0691449
-0.0790098
-0.0900041
-0.0983317
-0.113964
-0.128804
-0.140024
-0.146919
-0.149406
-0.149762
-0.145527
-0.144094
-0.129966
-0.137394
-0.147235
-0.165385
-0.161384
-0.117269
0.0467436
-0.061328
-0.292074
-0.23095
-0.1306
-0.108313
-0.149616
-0.142821
-0.116682
-0.106512
-0.0909038
-0.071707
-0.0723049
-0.0762828
-0.0839707
-0.0958545
-0.110496
-0.125857
-0.137346
-0.143424
-0.14677
-0.145042
-0.140475
-0.14854
-0.134576
-0.143533
-0.152232
-0.165742
-0.158695
-0.110683
0.0176335
-0.0255952
-0.258316
-0.387375
-0.125962
-0.183518
-0.172583
-0.174933
-0.146785
-0.12433
-0.108315
-0.0767755
-0.080777
-0.0846895
-0.0871435
-0.098555
-0.110501
-0.123107
-0.133129
-0.139117
-0.141248
-0.141217
-0.139694
-0.155142
-0.141066
-0.150063
-0.15748
-0.166916
-0.157377
-0.110611
-0.0160008
-0.0406989
-0.184422
-0.362695
-0.0561689
-0.189176
-0.21702
-0.210398
-0.180227
-0.145146
-0.117519
-0.0907676
-0.100099
-0.100008
-0.103685
-0.107741
-0.11493
-0.123662
-0.130103
-0.135623
-0.135379
-0.135163
-0.134279
-0.161182
-0.14754
-0.157085
-0.163098
-0.169028
-0.157729
-0.115393
-0.0451361
-0.0603631
-0.12025
-0.201391
-0.0642071
-0.20133
-0.2574
-0.262382
-0.222799
-0.175968
-0.140992
-0.0982836
-0.122757
-0.113298
-0.119282
-0.119936
-0.122522
-0.125941
-0.127927
-0.126328
-0.125639
-0.131142
-0.130107
-0.167928
-0.155496
-0.164696
-0.169215
-0.172205
-0.159992
-0.123357
-0.0729327
-0.0844711
0.26317
-0.20145
-0.144854
-0.221299
-0.287906
-0.307421
-0.268174
-0.211709
-0.170856
-0.152765
-0.142086
-0.136149
-0.132837
-0.130884
-0.131266
-0.131618
-0.13072
-0.130789
-0.131489
-0.130317
-0.128793
-0.176117
-0.164499
-0.173001
-0.175954
-0.176576
-0.164331
-0.133898
-0.0988092
-0.108944
-0.0958975
-0.199485
-0.213014
-0.236893
-0.303309
-0.333298
-0.300371
-0.239742
-0.194235
-0.169677
-0.157724
-0.15045
-0.145734
-0.142524
-0.0756758
-0.0791585
-0.136904
-0.137233
-0.13594
-0.133769
-0.129218
-0.185085
-0.174563
-0.182112
-0.183447
-0.182282
-0.170796
-0.147203
-0.123177
-0.132939
-0.119787
-0.190688
-0.19781
-0.241475
-0.300762
-0.333156
-0.306542
-0.250312
-0.206338
-0.183409
-0.170476
-0.16292
-0.158117
-0.155313
-0.154754
-0.153032
-0.149597
-0.147332
-0.144899
-0.142072
-0.138826
-0.197867
-0.186808
-0.192116
-0.191813
-0.189442
-0.179324
-0.162263
-0.147376
-0.15983
-0.170654
-0.197387
-0.210521
-0.22928
-0.28664
-0.303982
-0.283923
-0.240427
-0.206206
-0.186426
-0.176565
-0.172549
-0.169088
-0.166591
-0.16446
-0.162264
-0.160076
-0.157978
-0.155902
-0.153764
-0.15157
-0.217183
-0.203562
-0.203023
-0.201162
-0.198141
-0.189937
-0.179166
-0.172197
-0.196188
-0.206971
-0.215375
-0.226782
-0.247332
-0.270932
-0.204546
-0.253033
-0.224382
-0.201179
-0.188109
-0.181645
-0.180405
-0.179979
-0.178385
-0.176947
-0.175166
-0.173257
-0.171382
-0.169611
-0.168
-0.166519
-0.250722
-0.233269
-0.214663
-0.211606
-0.208432
-0.202397
-0.197812
-0.197183
-0.251276
-0.256177
-0.239404
-0.240619
-0.248471
-0.255434
-0.248107
-0.238593
-0.220764
-0.205956
-0.193807
-0.189302
-0.188604
-0.184643
-0.195018
-0.195091
-0.194202
-0.192772
-0.191166
-0.189607
-0.18829
-0.187336
-0.262168
-0.262615
-0.226666
-0.223234
-0.220303
-0.216441
-0.217555
-0.229295
-0.319861
-0.322965
-0.265775
-0.252959
-0.252882
-0.211582
-0.245043
-0.239511
-0.219728
-0.21565
-0.213193
-0.212926
-0.211151
-0.214555
-0.217859
-0.220273
-0.221215
-0.221294
-0.219625
-0.218646
-0.217141
-0.215933
-0.25029
-0.247608
-0.239004
-0.236114
-0.233708
-0.231876
-0.235416
-0.26109
-0.350909
-0.349091
-0.285992
-0.264331
-0.258967
-0.244901
-0.251942
-0.249929
-0.239149
-0.235301
-0.239257
-0.206081
-0.223747
-0.231376
-0.246047
-0.252787
-0.254376
-0.251934
-0.252644
-0.251424
-0.250096
-0.249172
-0.255858
-0.251358
-0.252359
-0.250299
-0.24857
-0.248209
-0.253677
-0.274086
-0.322677
-0.318031
-0.295061
-0.276284
-0.269735
-0.265584
-0.26238
-0.261506
-0.259894
-0.248437
-0.253202
-0.254734
-0.260459
-0.26805
-0.268571
-0.283947
-0.280455
-0.277142
-0.274705
-0.273895
-0.274821
-0.279215
-0.269675
-0.264603
-0.267115
-0.265876
-0.264834
-0.265172
-0.269429
-0.28194
-0.285319
-0.296524
-0.297752
-0.290246
-0.285025
-0.280946
-0.278255
-0.277243
-0.276166
-0.278898
-0.27873
-0.278947
-0.278304
-0.27814
-0.278393
-0.278862
-0.278921
-0.279415
-0.279997
-0.282605
-0.284658
-0.28202
-0.287276
-0.282222
-0.283439
-0.282954
-0.282542
-0.282828
-0.284587
-0.288455
-0.295049
-0.301006
-0.308884
-0.308796
-0.30459
-0.300009
-0.296592
-0.294751
-0.29438
-0.294984
-0.295378
-0.294672
-0.2932
-0.291274
-0.289367
-0.287779
-0.286846
-0.286611
-0.284689
-0.284685
-0.285763
-0.286552
-0.0289819
-0.0137398
0.0288066
-0.0501313
-0.0574465
-0.0338745
-0.0304871
-0.0451933
-0.10185
-0.18085
-0.192575
-0.188564
0.0995659
-0.0986422
-6.39343
4.85962
12.373
12.207
7.12942
15.4205
15.3368
-12.1508
0.335881
0.0226251
-0.139375
-0.172976
-0.105014
-0.0349816
-0.367429
-1.41611
-0.118192
-0.0423344
2.51809
-0.138869
-0.068582
-0.0370695
-0.037169
-0.0524463
-0.108932
-0.183696
-0.199966
-0.175955
-0.043129
-0.0722206
-32.7384
1.49569
10.7058
9.63841
4.58501
14.124
17.8455
-28.263
0.261367
-0.0104542
-0.1375
-0.170501
-0.110691
-0.0187265
0.103894
-2.2502
-0.130764
-0.0798269
3.40739
-0.0752027
-0.0731954
-0.0323311
-0.0441846
-0.0583892
-0.111789
-0.178959
-0.200627
-0.163183
-0.0654783
-0.0632676
0.0401895
-4.95715
10.7142
7.59438
1.96825
12.5152
20.4734
-38.2292
0.216297
-0.0452989
-0.135874
-0.167995
-0.115572
-0.0104364
0.0582388
3.19507
-0.0808929
-0.0830379
-0.0903181
-0.081001
-0.0948231
0.314851
-0.0536189
-0.0629808
-0.110849
-0.166555
-0.191449
-0.153152
-0.0790764
-0.0522763
-0.068528
-27.9909
8.61048
6.23696
-0.138566
11.1439
19.7427
-2.79933
0.156715
-0.0612734
-0.134565
-0.165513
-0.119356
-0.0112158
0.0253913
0.101749
-0.065201
-0.0736201
-0.0756779
-0.0749947
-0.0783206
0.0387959
-0.0581414
-0.0673251
-0.106055
-0.158002
-0.175584
-0.141436
-0.0840349
-0.0571114
-0.12015
-0.287685
9.41291
5.65972
-1.22545
8.81154
16.7317
-0.421516
0.114665
-0.0624867
-0.133675
-0.16309
-0.122078
-0.018436
0.00108109
0.0649559
-0.0642155
-0.0690199
-0.0711555
-0.0714369
-0.065341
-0.0425376
-0.0606853
-0.0719308
-0.0996486
-0.139721
-0.154589
-0.129435
-0.0875658
-0.0732191
-0.136466
-0.196919
-0.25865
4.90944
-3.09658
5.99307
12.8631
-0.382342
0.0645096
-0.0682733
-0.133272
-0.160844
-0.124079
-0.0291288
-0.0178311
0.0286978
-0.0661308
-0.0687684
-0.0703992
-0.0706189
-0.0671607
-0.0453167
-0.0525761
-0.0753526
-0.0929827
-0.120549
-0.131809
-0.117076
-0.0863903
-0.050381
-0.137148
-0.196031
0.24445
0.0163851
-5.0261
4.29145
11.5488
-0.314281
-0.0222804
-0.0795683
-0.133369
-0.158883
-0.125736
-0.0413106
-0.0318294
0.00440849
-0.0706961
-0.0720689
-0.073121
-0.0723436
-0.069047
-0.0638751
-0.0729026
-0.0778177
-0.0876616
-0.104573
-0.112223
-0.105597
-0.0898301
-0.0609784
-0.0997218
-0.174373
0.304628
0.00357623
-0.116689
2.18314
-0.451415
-0.380792
-0.0694567
-0.0933027
-0.133992
-0.157275
-0.127432
-0.0538957
-0.0444099
-0.0182674
-0.0778691
-0.0628511
-0.0662857
-0.0773594
-0.075204
-0.0731162
-0.0766991
-0.079807
-0.0846968
-0.0945822
-0.0985698
-0.0964422
-0.0932476
-0.0718549
-0.0990695
-0.0540179
0.218079
-0.0449342
-0.250981
-0.352284
-0.422904
-0.373886
-0.110874
-0.105224
-0.135168
-0.156092
-0.129393
-0.0663708
-0.0564345
-0.03871
-0.0873768
-0.0856806
-0.0869566
-0.0852816
-0.0826609
-0.0809255
-0.0821157
-0.0835357
-0.080295
-0.0889187
-0.0936244
-0.0574066
-0.093367
-0.084109
-0.0971511
-0.129093
-0.0770518
-0.0639436
-0.230592
-0.341978
-0.479678
-0.420002
-0.159476
-0.115649
-0.13693
-0.155403
-0.131702
-0.078596
-0.0667017
-0.0565507
-0.0996669
-0.097719
-0.0959017
-0.0942646
-0.0897555
-0.0879215
-0.0873227
-0.0874172
-0.089174
-0.091204
-0.0933769
-0.0548482
-0.0941707
-0.0951861
-0.106299
-0.140835
-0.134903
-0.0802935
-0.215919
-0.335393
-0.42495
-0.456988
-0.209993
-0.124985
-0.139324
-0.155257
-0.134373
-0.090929
-0.0760622
-0.0717328
-0.112105
-0.109347
-0.105773
-0.10168
-0.0973887
-0.0766732
-0.0927179
-0.0914015
-0.0912191
-0.092436
-0.0871399
-0.0904877
-0.0972652
-0.104979
-0.120388
-0.151709
-0.142259
0.106245
-0.210353
-0.333849
-0.518067
-0.573933
-0.201553
-0.130718
-0.142362
-0.155682
-0.137396
-0.102512
-0.0846692
-0.0844622
-0.124726
-0.120996
-0.116548
-0.111026
-0.103775
-0.0831322
-0.099613
-0.0924111
-0.0927677
-0.0953344
-0.0978923
-0.085175
-0.0748566
-0.112213
-0.130606
-0.153296
-0.150309
0.00271007
-0.241084
-0.339343
-0.559987
-0.534547
-0.188045
-0.136653
-0.146048
-0.156707
-0.140744
-0.112532
-0.0927744
-0.0951857
-0.135384
-0.130966
-0.124344
-0.120156
-0.114196
-0.108758
-0.103371
-0.0969626
-0.0941024
-0.0973083
-0.102498
-0.0828835
-0.0833149
-0.118793
-0.143495
-0.161282
-0.167762
0.0476107
-0.268495
-0.35525
-0.544547
-0.584362
-0.1799
-0.14414
-0.150359
-0.158368
-0.144406
-0.120896
-0.10068
-0.10452
-0.141432
-0.135921
-0.132579
-0.128271
-0.121531
-0.11339
-0.107654
-0.0979431
-0.0934749
-0.0998061
-0.106321
-0.112125
-0.112345
-0.118484
-0.159141
-0.173141
-0.19077
-0.064969
-0.298887
-0.381316
-0.601816
-0.552123
-0.170065
-0.152728
-0.155252
-0.160702
-0.148401
-0.128168
-0.108639
-0.113072
-0.141782
-0.139372
-0.136439
-0.133805
-0.127177
-0.11886
-0.111801
-0.10277
-0.100743
-0.105937
-0.111265
-0.118916
-0.127559
-0.101329
-0.157486
-0.185195
-0.206777
-0.156427
-0.291141
-0.362332
-0.518856
-0.484628
-0.167728
-0.161605
-0.16069
-0.163746
-0.152776
-0.134943
-0.116799
-0.121369
-0.137144
-0.13462
-0.135951
-0.137238
-0.126845
-0.113794
-0.0866038
1.43822
-0.0916711
-0.115907
-0.116001
-0.122466
-0.131873
-0.150299
-0.158427
-0.19402
-0.211815
-0.202198
-0.308121
-0.342283
-0.450561
-0.391567
-0.203555
-0.170317
-0.166651
-0.167541
-0.157606
-0.141632
-0.125321
-0.129797
-0.13295
-0.130928
-0.120221
-0.101864
-0.0899212
-0.0898023
-0.0905767
-0.10811
-0.119735
-0.116531
-0.118156
-0.125022
-0.134659
-0.151282
-0.165091
-0.199965
-0.215672
-0.19251
-0.0281617
-0.30348
-0.412076
-0.252444
-0.20726
-0.178676
-0.17312
-0.172118
-0.162976
-0.148544
-0.134226
-0.138539
-0.128098
-0.124788
-0.119768
-0.113948
-0.111835
-0.116871