/*--------------------------------*- C++ -*----------------------------------*\
| =========                 |                                                 |
| \\      /  F ield         | OpenFOAM: The Open Source CFD Toolbox           |
|  \\    /   O peration     | Version:  2.4.0                                 |
|   \\  /    A nd           | Web:      www.OpenFOAM.org                      |
|    \\/     M anipulation  |                                                 |
\*---------------------------------------------------------------------------*/
FoamFile
{
    version     2.0;
    format      ascii;
    class       volScalarField;
    location    "0.075";
    object      alpha.water;
}
// * * * * * * * * * * * * * * * * * * * * * * * * * * * * * * * * * * * * * //

dimensions      [0 0 0 0 0 0 0];

internalField   nonuniform List<scalar> 
3600
(
1
1
1
1
1
1
1
1
1
1
1
1
1
1
1
1
1
1
0.999902
0.987599
0.984972
0.991488
0.999962
0.993118
0.990428
0.984388
0.979224
0.979223
0.979223
0.985543
1
1
1
1
1
1
1
1
1
1
1
1
1
1
1
1
1
1
0.999996
0.984913
0.984938
0.999964
0.999963
0.999962
0.999639
0.999634
0.998478
0.98823
0.983791
0.992396
1
1
1
1
1
1
1
1
1
1
1
1
1
1
1
1
1
1
1
0.987636
0.991334
0.999964
0.999964
0.999309
0.997288
0.998451
0.999979
0.999822
0.999314
0.999868
1
1
1
1
1
1
1
1
1
1
1
1
1
1
1
1
1
1
1
0.996907
0.999842
0.999964
0.99953
0.999365
0.996562
0.996563
0.999842
1
1
1
1
1
1
1
1
1
1
1
1
1
1
1
1
1
1
1
1
1
1
1
0.999985
0.999263
0.998572
0.999298
0.997203
0.996562
0.999141
1
1
1
1
1
1
1
1
1
1
1
1
1
1
1
1
1
1
1
1
1
1
1
0.999502
0.998534
0.998537
0.999623
0.999927
0.997023
0.999313
1
1
1
1
1
1
1
1
1
1
1
1
1
1
1
1
1
1
1
1
1
1
1
0.999761
0.998556
0.998627
0.999729
0.999931
0.999891
1
1
1
1
1
1
1
1
1
1
1
1
1
1
1
1
1
1
1
1
1
1
1
1
0.999998
0.999751
0.999835
0.99997
0.999988
0.999375
0.999444
1
1
1
1
1
1
1
1
1
1
1
1
1
1
1
1
1
1
1
1
1
1
1
1
1
1
1
1
0.999446
0.998836
0.999701
1
1
1
1
1
1
1
1
1
1
1
1
1
1
1
1
1
1
1
1
1
1
1
1
1
1
1
1
0.998916
0.998852
0.999888
1
1
1
1
1
1
1
1
1
1
1
1
1
1
1
1
1
1
1
1
1
1
1
1
1
1
1
0.998911
0.998764
0.999934
1
1
1
1
1
1
1
1
1
1
1
1
1
1
1
1
1
1
1
1
1
1
1
1
1
1
1
0.999543
0.998763
0.999649
1
1
1
1
1
1
1
1
1
1
1
1
1
1
1
1
1
1
1
1
1
1
1
1
1
1
1
1
0.999203
0.999757
0.999998
1
1
1
1
1
1
1
1
1
1
1
1
1
1
1
1
1
1
1
1
1
1
1
1
1
1
0.999999
0.999988
0.999885
0.999977
1
1
1
1
1
1
1
1
1
1
1
1
1
1
1
1
1
1
1
1
1
1
1
1
0.999998
0.999973
0.99999
0.999991
0.999903
0.999893
1
1
1
1
1
1
1
1
1
1
1
1
1
1
1
1
1
1
1
1
1
1
1
1
0.99998
0.99997
0.999971
0.999991
0.999716
0.999837
1
1
1
1
1
1
1
1
1
1
1
1
1
1
1
1
1
1
1
1
1
1
1
1
0.999982
0.99997
0.999971
0.999989
0.999655
0.999867
1
1
1
1
1
1
1
1
1
1
1
1
1
1
1
1
1
1
1
0.994267
1
1
1
1
0.999999
0.999997
0.999987
0.997858
0.999853
0.999872
1
1
1
1
1
1
1
1
1
1
1
1
1
1
1
1
0.999999
0.999972
0.958137
0.897305
0.87379
0.916993
0.992953
1
0.999999
0.999997
0.999989
0.99774
0.99881
0.999771
1
1
1
1
1
1
1
1
1
1
1
1
1
1
1
1
0.999961
0.78901
0.440889
0.557809
0.767851
0.810422
0.919315
0.999919
0.999994
0.999996
0.999996
0.998314
0.996252
0.999564
1
1
1
1
1
1
1
1
1
1
1
1
1
1
1
0.999982
0.766175
0.158627
0.25337
0.561476
0.835971
0.924309
0.939591
0.964921
0.999142
0.999995
0.999995
0.999298
0.996223
0.999652
1
1
1
1
1
1
1
1
1
1
1
1
1
1
0.999985
0.905562
0.148305
0.000612201
0.00900226
0.148028
0.631771
0.971238
0.997263
0.958674
0.991412
0.999991
0.999994
0.998987
0.99622
0.999304
1
1
1
1
1
1
1
1
1
1
1
1
1
0.999989
0.963849
0.213116
0.000375033
0.000124595
0.000326355
0.0389808
0.507579
0.94176
0.999918
0.970049
0.976683
0.999249
0.999991
0.996521
0.996218
0.99626
1
1
1
1
1
1
1
1
1
1
1
1
0.999995
0.971431
0.345597
0.000180534
1.64929e-05
2.0592e-05
6.19891e-05
0.000337257
0.117811
0.862672
0.999933
0.998867
0.986562
0.999078
0.999982
0.996218
0.996218
0.996218
1
1
1
1
1
1
1
1
1
1
1
0.999999
0.983416
0.343596
3.93554e-05
-1.59945e-06
8.67547e-06
1.0109e-05
1.87915e-05
6.26258e-05
0.072344
0.643389
0.999964
0.999997
0.999525
0.999093
0.999979
0.997164
0.996218
0.996547
1
1
1
1
1
1
1
1
1
1
1
0.999911
0.398763
4.11005e-05
5.9258e-06
5.91888e-06
7.954e-06
8.69683e-06
1.01095e-05
0.0013913
0.0010662
0.17015
0.997381
0.999999
0.999997
0.999788
0.999986
0.999059
0.996218
0.999328
1
1
1
1
1
1
1
1
1
1
0.999996
0.615585
5.56589e-05
7.12312e-06
5.3846e-06
5.91244e-06
3.15903e-05
3.5824e-05
1.9345e-05
0.000109231
0.000240432
0.15142
0.885031
0.999999
0.999999
0.999998
0.999993
0.999498
0.996585
0.999996
1
1
1
1
1
1
1
1
1
0.999999
0.951691
0.0428726
8.73914e-05
6.91604e-06
4.72645e-06
5.39184e-06
5.88883e-05
6.72816e-05
2.21273e-05
2.08062e-05
0.00194006
0.00134854
0.500583
0.999999
0.999999
0.999999
0.999992
0.999884
0.999717
0.999999
1
1
1
1
1
1
1
1
1
0.999979
0.392939
0.00546074
6.71975e-06
6.30054e-07
4.06525e-06
2.51864e-05
2.29047e-05
6.9081e-05
2.41281e-05
2.47926e-05
6.71563e-05
0.000157072
0.33408
0.999999
0.999999
0.999999
0.999997
0.999999
0.999999
0.999999
1
1
1
1
1
1
1
1
0.998828
0.899449
0.0230378
6.41768e-06
9.63255e-07
1.09362e-06
3.10524e-06
7.56898e-05
6.33704e-05
7.34102e-05
6.50262e-05
4.16161e-05
4.43347e-05
0.00947517
0.0152817
0.76311
0.999999
0.999999
0.999999
0.999999
0.999999
0.999999
0.985808
0.979292
0.979292
0.979294
0.98458
0.99076
0.993361
0.99996
0.991471
0.985021
0.987769
0.999843
1
1
1
1
1
1
1
1
1
1
1
1
1
1
1
1
1
1
0.99249
0.982975
0.987499
0.998674
0.999578
0.999556
0.99996
0.99996
0.999961
0.984988
0.984964
0.999994
1
1
1
1
1
1
1
1
1
1
1
1
1
1
1
1
1
1
0.99974
0.999054
0.999663
0.999987
0.998522
0.997217
0.999313
0.999961
0.999961
0.991518
0.987529
1
1
1
1
1
1
1
1
1
1
1
1
1
1
1
1
1
1
1
1
1
1
0.999898
0.996473
0.996473
0.999382
0.999541
0.999961
0.999852
0.996805
1
1
1
1
1
1
1
1
1
1
1
1
1
1
1
1
1
1
1
1
1
1
0.999341
0.996473
0.996838
0.99935
0.998605
0.999213
0.99998
1
1
1
1
1
1
1
1
1
1
1
1
1
1
1
1
1
1
1
1
1
1
1
0.999466
0.997174
0.999772
0.999618
0.998554
0.998552
0.99945
1
1
1
1
1
1
1
1
1
1
1
1
1
1
1
1
1
1
1
1
1
1
1
1
0.999892
0.999963
0.999753
0.998672
0.998571
0.999754
1
1
1
1
1
1
1
1
1
1
1
1
1
1
1
1
1
1
1
1
1
1
1
0.999458
0.999364
0.999997
0.999969
0.999847
0.999766
0.999999
1
1
1
1
1
1
1
1
1
1
1
1
1
1
1
1
1
1
1
1
1
1
0.999732
0.998873
0.999435
1
1
1
1
1
1
1
1
1
1
1
1
1
1
1
1
1
1
1
1
1
1
1
1
1
1
0.999874
0.998855
0.998963
1
1
1
1
1
1
1
1
1
1
1
1
1
1
1
1
1
1
1
1
1
1
1
1
1
1
1
0.999947
0.99882
0.998957
1
1
1
1
1
1
1
1
1
1
1
1
1
1
1
1
1
1
1
1
1
1
1
1
1
1
1
0.99967
0.99882
0.999568
1
1
1
1
1
1
1
1
1
1
1
1
1
1
1
1
1
1
1
1
1
1
1
1
1
1
0.999998
0.999786
0.99931
1
1
1
1
1
1
1
1
1
1
1
1
1
1
1
1
1
1
1
1
1
1
1
1
1
1
1
0.999994
0.999916
0.999993
0.999999
1
1
1
1
1
1
1
1
1
1
1
1
1
1
1
1
1
1
1
1
1
1
1
1
1
1
0.999954
0.999974
0.999992
0.999987
0.999968
0.999999
1
1
1
1
1
1
1
1
1
1
1
1
1
1
1
1
1
1
1
1
1
1
1
1
0.999856
0.999868
0.999992
0.999968
0.999964
0.999981
1
1
1
1
1
1
1
1
1
1
1
1
1
1
1
1
1
1
1
1
1
1
1
1
0.999861
0.999776
0.999991
0.999964
0.999964
0.999977
1
1
1
1
1
1
1
1
1
1
1
1
1
1
1
1
1
1
1
1
1
1
1
1
0.999872
0.999872
0.998027
0.999975
0.999994
0.999998
1
1
1
1
0.993948
1
1
1
1
1
1
1
1
1
1
1
1
1
1
1
1
1
1
1
0.999807
0.999292
0.997701
0.999979
0.999996
0.999999
1
0.995651
0.919209
0.873471
0.896216
0.954861
0.999968
0.999999
1
1
1
1
1
1
1
1
1
1
1
1
1
1
1
1
0.999694
0.996438
0.998083
0.999995
0.999995
0.999993
0.999926
0.924166
0.817803
0.764443
0.576085
0.424256
0.768108
0.99996
1
1
1
1
1
1
1
1
1
1
1
1
1
1
1
1
0.999686
0.996247
0.999288
0.999994
0.999994
0.999263
0.963238
0.934611
0.918804
0.833048
0.529739
0.220253
0.147752
0.765866
0.999983
1
1
1
1
1
1
1
1
1
1
1
1
1
1
1
0.99821
0.996233
0.999251
0.999993
0.99999
0.990899
0.956231
0.995645
0.967783
0.687266
0.176122
0.00833666
0.0105549
0.150942
0.90528
0.999986
1
1
1
1
1
1
1
1
1
1
1
1
1
1
0.996233
0.99623
0.996913
0.99999
0.999205
0.97727
0.970537
0.99998
0.950622
0.529727
0.0681665
0.000547593
9.72291e-05
0.000394586
0.216983
0.965967
0.99999
1
1
1
1
1
1
1
1
1
1
1
1
1
0.996224
0.996229
0.99623
0.99998
0.999024
0.98535
0.999182
0.999989
0.909944
0.14697
0.000921401
0.000107987
1.82053e-05
1.48289e-05
0.000192734
0.352699
0.975816
0.999996
1
1
1
1
1
1
1
1
1
1
1
1
0.997497
0.996229
0.996979
0.999976
0.999
0.998644
0.999992
0.999991
0.655876
0.053185
7.27705e-05
1.58792e-05
7.33919e-06
4.94021e-06
-8.02962e-07
3.85026e-05
0.360835
0.985963
0.999999
1
1
1
1
1
1
1
1
1
1
1
0.999897
0.996229
0.998927
0.999987
0.999669
0.999996
0.999999
0.999996
0.218721
7.63523e-05
1.88339e-05
6.99149e-06
6.06054e-06
5.84536e-06
1.27066e-06
1.42713e-06
3.88342e-05
0.411131
0.99997
1
1
1
1
1
1
1
1
1
1
1
0.999998
0.996885
0.999563
0.999995
0.999998
0.999999
0.999999
0.874819
0.150538
0.000324783
1.15452e-05
9.23482e-06
9.35007e-06
1.22834e-05
1.27529e-06
1.16128e-06
2.09849e-06
3.99208e-05
0.622497
0.999996
1
1
1
1
1
1
1
1
1
1
0.999998
0.99983
0.99994
0.999994
0.999999
0.999999
0.999999
0.574375
0.00194734
0.00256611
9.14314e-05
1.15702e-05
3.78501e-05
2.7461e-05
1.16655e-06
4.16907e-07
3.73159e-06
7.63617e-05
0.0427715
0.95044
0.999999
1
1
1
1
1
1
1
1
1
0.999999
0.999999
0.999999
0.999998
0.999999
0.999999
0.996054
0.305835
0.00020491
0.000104072
4.32704e-05
1.34423e-05
3.75967e-05
1.36235e-06
8.27159e-07
1.50055e-07
-3.38623e-07
6.10907e-06
0.00567532
0.390479
0.999979
1
1
1
1
1
1
1
1
1
0.999999
0.999999
0.999999
0.999999
0.999999
0.999999
0.716165
0.0175958
0.00895361
2.62472e-05
1.82485e-05
2.4409e-05
4.99865e-05
5.64324e-05
5.28571e-06
1.39968e-07
1.47023e-07
1.06915e-08
5.77374e-06
0.0238645
0.899827
0.99884
1
1
1
1
1
1
1
1
0.996235
1
1
1
1
1
1
1
0.983686
0.230539
0.00177928
5.35945e-06
9.77443e-07
9.94835e-07
6.97543e-05
7.56898e-05
7.56905e-05
7.4505e-05
7.30935e-05
4.5479e-05
4.13363e-05
0.005215
0.000382561
0.25766
0.999999
0.999999
0.999999
0.999999
0.999999
0.999999
0.362747
0.812798
1
1
1
1
1
0.999999
0.988657
0.0331136
6.65773e-05
2.58878e-06
4.9929e-07
9.62553e-07
7.50792e-05
7.56902e-05
7.56388e-05
5.67113e-05
7.01105e-05
3.96131e-05
4.39069e-05
0.000208989
0.000312671
0.000905397
0.655682
0.999999
0.999999
0.999999
0.999999
0.999999
0.150745
0.452883
0.864268
0.982157
0.997676
0.998509
0.999562
0.999976
0.995133
0.0441898
2.03553e-06
-2.54408e-06
3.88039e-10
8.7937e-07
7.44317e-05
6.42039e-05
1.67603e-05
4.29958e-05
6.92756e-05
3.77643e-05
3.00029e-05
2.68236e-05
0.000130575
0.000375155
0.0756416
0.58198
0.995123
0.999999
0.999999
0.999999
0.053808
0.420915
0.735061
0.90994
0.9728
0.988857
0.99613
0.993272
0.500862
3.90993e-06
3.22411e-08
-4.9345e-09
2.59218e-12
1.47842e-06
7.39717e-05
1.08218e-07
8.6328e-08
1.05793e-05
6.86198e-05
6.12761e-05
3.68884e-05
2.68236e-05
0.0001711
0.000642641
5.59394e-05
0.00881366
0.39509
0.605582
0.713964
0.736879
0.00281644
0.135695
0.52961
0.802446
0.953926
0.988618
0.995898
0.851971
0.0374724
3.05379e-05
-2.97646e-07
-2.7024e-09
-1.50753e-09
1.58607e-05
2.67908e-05
5.17176e-07
7.98953e-08
8.63346e-08
6.812e-05
6.71805e-05
3.91542e-05
4.25154e-05
5.91262e-05
5.27092e-05
2.80561e-05
0.00153645
0.0018496
0.0192947
0.0453484
0.0530953
5.4272e-05
0.00814455
0.18404
0.562329
0.872406
0.973501
0.981615
0.64631
0.0330091
1.66613e-06
-1.51954e-06
-3.49515e-09
1.26917e-08
1.62894e-05
7.90136e-08
7.88977e-08
7.88298e-08
5.00405e-07
1.87785e-05
6.63619e-05
6.21921e-05
2.10979e-05
1.30799e-05
9.0736e-06
1.04006e-05
0.000123553
8.9674e-05
0.000102139
0.000129872
0.000122041
5.34032e-05
9.97104e-05
0.0190442
0.199887
0.526499
0.677041
0.540753
0.0510594
0.000658787
-3.24702e-07
-1.55132e-08
-5.48172e-10
7.43105e-08
4.34434e-06
7.84419e-08
7.88202e-08
7.8952e-08
8.20438e-08
8.35557e-08
6.08188e-05
7.9017e-05
1.86567e-05
9.08534e-06
6.92222e-06
6.16897e-06
5.82988e-06
1.00008e-05
6.95544e-06
6.85258e-06
5.94269e-06
6.25746e-06
2.10256e-06
6.79422e-07
0.00705694
0.0459157
0.073669
0.0331827
4.81e-11
4.64892e-11
3.01098e-11
1.3572e-11
5.02339e-09
4.03304e-08
4.21361e-08
4.58367e-08
6.90565e-08
8.4675e-08
8.30233e-08
9.37919e-08
5.7093e-06
8.20218e-05
8.27788e-05
3.34215e-05
6.16559e-06
5.82984e-06
4.62192e-06
3.05769e-06
1.82332e-06
1.43936e-06
1.36838e-06
3.67926e-07
2.0224e-06
5.5084e-09
3.26604e-14
-5.83798e-11
-1.16963e-10
-2.07667e-10
1.46927e-10
1.94097e-09
8.02933e-10
9.93561e-11
1.73638e-08
6.95831e-08
4.58301e-08
7.75623e-08
8.47295e-08
1.93182e-07
9.37964e-08
5.45814e-07
6.68235e-07
8.43508e-05
8.59387e-05
8.58848e-05
6.08288e-05
1.92698e-05
2.79815e-06
1.81464e-06
1.3799e-06
1.20321e-06
1.18509e-06
5.38619e-07
8.07298e-06
2.99757e-06
5.3198e-06
-1.12855e-10
-3.31254e-10
-5.68722e-10
2.30157e-10
3.23932e-09
8.78493e-10
6.48949e-11
1.90946e-08
5.21497e-07
7.7656e-08
8.16692e-06
1.95034e-07
2.7783e-05
3.05358e-06
5.30362e-06
1.18828e-06
6.70555e-05
8.49577e-05
8.60263e-05
8.64301e-05
8.78675e-05
3.04493e-05
1.54324e-06
1.20221e-06
1.18505e-06
1.18088e-06
1.32365e-07
1.13545e-05
1.48927e-05
1.69478e-06
-5.48839e-11
-3.80023e-10
-7.17119e-10
3.2659e-10
2.61248e-09
3.42355e-11
4.73974e-11
6.23539e-11
5.39156e-07
2.24074e-05
9.59195e-05
2.52004e-05
9.52529e-05
0.00012145
1.86972e-06
1.85857e-06
7.65255e-06
8.54873e-05
8.52005e-05
8.53454e-05
8.70362e-05
8.55341e-05
8.28889e-06
1.22184e-06
1.20326e-06
1.41398e-06
3.50389e-08
6.62632e-06
1.59873e-05
4.35706e-12
1.98777e-11
-1.08593e-10
-2.8896e-10
4.17151e-10
6.85894e-11
2.06774e-11
3.65272e-11
4.73894e-11
6.84053e-08
5.93152e-05
0.000111803
0.000107297
0.000154667
0.000227248
1.39324e-05
1.21637e-06
1.15828e-06
3.88531e-05
8.50884e-05
8.56754e-05
8.56754e-05
6.34428e-05
4.87638e-06
1.24653e-06
1.22788e-06
1.56488e-06
1.96294e-09
3.47305e-06
1.60156e-05
4.35707e-12
4.39258e-11
7.41455e-11
1.55488e-10
2.19998e-10
1.17194e-11
4.92194e-12
6.15047e-11
6.26788e-11
4.31392e-10
3.06089e-05
0.000111926
0.000111781
7.86789e-05
0.000227945
0.000217296
1.15826e-06
1.0954e-06
1.15581e-06
8.45482e-05
8.49198e-05
6.6189e-05
1.03632e-05
1.98927e-06
1.27564e-06
1.50585e-06
1.56295e-06
5.19848e-11
1.27479e-06
1.60078e-05
4.67571e-12
3.87271e-11
3.58381e-11
4.45259e-11
2.71793e-11
5.21184e-12
1.98203e-12
2.85672e-11
3.96044e-11
7.06577e-11
8.83059e-07
0.000103227
0.000111574
7.78883e-05
0.000130855
0.000317757
8.31023e-05
1.03859e-06
9.63342e-07
3.22507e-05
7.39285e-05
1.21526e-05
1.397e-06
1.20753e-06
1.18466e-06
1.18144e-06
1.19431e-06
1.29516e-11
1.22634e-07
1.21874e-05
5.11741e-12
2.91012e-11
1.87388e-11
1.70139e-11
7.80519e-12
2.08644e-12
8.70294e-13
8.94025e-12
3.30766e-11
4.4336e-11
3.04934e-10
8.26109e-06
0.000111354
7.78327e-05
9.80778e-05
0.000317757
0.000309355
2.39528e-05
3.41616e-07
6.40113e-07
1.45658e-05
7.22576e-06
1.21503e-06
1.18441e-06
1.18171e-06
1.1759e-06
1.17585e-06
1.04399e-11
1.25434e-11
3.01504e-07
2.54461e-09
3.55176e-11
8.75556e-12
5.66156e-12
3.35309e-12
1.12561e-12
4.62905e-13
5.66828e-12
5.36398e-11
3.92021e-11
2.38715e-10
7.38775e-06
8.72921e-05
9.72413e-05
6.64479e-05
0.00020003
0.00031588
0.000241086
2.52391e-07
1.26393e-07
3.8338e-07
9.03241e-06
1.21567e-06
1.21147e-06
1.8936e-06
2.08053e-06
1.97767e-06
6.79432e-12
9.98761e-12
1.7191e-11
1.7707e-10
1.74745e-11
3.69567e-12
1.54e-12
1.07269e-12
4.32308e-13
1.67136e-13
1.53365e-12
1.21898e-11
2.46901e-11
3.63353e-11
5.42922e-10
1.10458e-05
9.80067e-05
6.68506e-05
7.0065e-05
0.000309417
0.000272342
3.03854e-05
9.36565e-08
4.17692e-07
6.21374e-06
1.47876e-06
2.09262e-06
2.51839e-06
2.56135e-06
2.64478e-06
3.97652e-12
8.20839e-12
1.06577e-11
4.76787e-11
9.45346e-12
1.4372e-12
3.50538e-13
2.25582e-13
1.06789e-13
4.72911e-14
5.60074e-13
7.138e-12
5.9805e-11
5.55298e-11
5.0934e-10
8.47455e-06
9.45592e-05
8.52831e-05
1.86489e-05
0.000126219
0.00027166
0.000125683
8.1641e-08
6.97303e-08
9.65143e-07
2.46451e-06
1.13726e-06
8.22335e-07
1.54448e-06
1.65631e-06
1.33875e-12
2.28505e-12
4.9906e-11
2.45198e-11
4.54199e-12
5.1183e-13
7.14341e-14
3.36355e-14
1.46299e-14
1.00069e-14
2.07197e-13
2.59464e-12
1.86014e-11
2.76427e-11
6.16321e-11
2.92759e-09
2.39618e-05
7.7971e-05
1.24252e-05
1.27957e-05
0.000138327
0.000143309
2.37651e-05
4.02691e-08
5.35882e-07
4.05701e-06
6.8197e-07
6.68157e-07
6.3287e-07
6.2839e-07
3.76432e-13
5.73225e-13
2.412e-11
9.35355e-12
1.5944e-12
1.50759e-13
1.37754e-14
3.52936e-15
1.38136e-15
2.00864e-15
6.00283e-14
8.96441e-13
8.56284e-12
5.82209e-11
3.4752e-11
9.24444e-11
2.46922e-06
1.73748e-05
1.78304e-05
1.45016e-06
1.15477e-05
4.81808e-05
1.61271e-05
2.76875e-08
4.11656e-08
5.79294e-06
1.14179e-05
4.74e-06
6.28376e-07
6.27542e-07
5.85532e-14
1.06911e-13
8.94963e-12
2.46246e-12
3.83962e-13
3.2401e-14
2.2998e-15
2.72316e-16
7.99e-17
3.95411e-16
1.51966e-14
2.33698e-13
1.85354e-12
8.55659e-12
2.7692e-11
3.52467e-11
1.01212e-10
2.66026e-07
2.828e-06
1.09137e-06
1.66598e-08
8.6368e-09
1.02136e-06
8.39275e-09
4.79129e-07
1.3242e-05
1.71467e-05
1.73125e-05
1.37318e-05
1.27397e-05
5.8947e-15
1.34702e-14
2.2821e-12
4.32285e-13
6.02156e-14
4.60537e-15
2.77889e-16
1.66103e-17
2.67277e-18
5.4049e-17
2.32304e-15
4.6733e-14
5.64347e-13
4.24249e-12
1.98858e-11
5.88957e-11
6.69043e-11
2.77297e-09
1.3545e-07
4.4618e-07
1.23691e-08
8.18245e-10
5.73145e-10
9.67744e-10
8.39546e-09
7.00083e-06
1.73125e-05
1.73125e-05
1.73125e-05
1.41008e-05
3.82381e-16
1.09283e-15
3.95172e-13
4.90694e-14
5.83882e-15
4.00844e-16
2.10355e-17
8.15151e-19
6.94283e-20
5.685e-18
2.78372e-16
6.53923e-15
9.11188e-14
8.22963e-13
5.08145e-12
2.2333e-11
7.4234e-11
1.68192e-10
1.04009e-10
4.52046e-09
3.31962e-08
6.7177e-10
2.48624e-10
2.12058e-10
5.60923e-09
4.57745e-07
2.72067e-06
4.63068e-06
2.61294e-06
1.21178e-06
1.59704e-17
5.46763e-17
4.53327e-14
3.4777e-15
3.27986e-16
1.96826e-17
8.91842e-19
2.6667e-20
1.83914e-21
2.42384e-19
1.4161e-17
4.28702e-16
7.90776e-15
9.53205e-14
7.77278e-13
4.42066e-12
1.79958e-11
5.31592e-11
9.11395e-11
1.5877e-10
2.7507e-09
4.27169e-10
2.22993e-10
1.71193e-10
7.51057e-10
2.2303e-10
7.71613e-10
1.2434e-09
8.47127e-10
5.19915e-10
4.27554e-19
1.60671e-18
3.29904e-15
1.48254e-16
9.70783e-18
4.82798e-19
1.85238e-20
4.42098e-22
3.78221e-23
6.24258e-21
4.2952e-19
1.58728e-17
3.65344e-16
5.65937e-15
6.16689e-14
4.84852e-13
2.79832e-12
1.22019e-11
3.60772e-11
8.36435e-11
1.32931e-10
2.02285e-10
7.62095e-11
7.36626e-11
8.17902e-11
6.11742e-11
1.18195e-10
1.24859e-10
1.57801e-10
1.24601e-10
7.30391e-21
2.56543e-20
1.42747e-16
3.80551e-18
1.41026e-19
5.01347e-21
1.53269e-22
2.86236e-24
3.36221e-25
6.77098e-23
5.9234e-21
2.89083e-19
8.95921e-18
1.89828e-16
2.87317e-15
3.20232e-14
2.69319e-13
1.61174e-12
6.09203e-12
1.66057e-11
3.62613e-11
4.70166e-11
2.04029e-11
1.56172e-11
2.3766e-11
4.10155e-11
8.11014e-11
6.71111e-11
1.44392e-10
1.02788e-10
7.912e-23
1.94888e-22
3.31366e-18
5.69661e-20
1.02206e-21
1.73122e-23
3.20556e-25
4.25086e-27
1.36888e-27
3.3588e-25
3.93647e-23
2.63355e-21
1.14004e-19
3.43465e-18
7.54115e-17
1.24581e-15
1.59256e-14
1.28513e-13
6.16914e-13
1.95695e-12
4.53815e-12
6.64804e-12
3.6893e-12
2.21091e-12
3.17294e-12
4.42347e-12
7.73151e-12
1.07812e-11
1.23504e-11
1.14179e-11
5.44365e-25
4.79654e-25
3.3648e-20
4.1864e-22
4.61446e-24
3.53381e-26
2.19652e-28
2.07817e-30
2.58677e-30
5.55775e-28
9.64992e-26
9.75137e-24
6.46468e-22
3.02011e-20
1.04242e-18
2.75921e-17
5.73424e-16
6.36357e-15
3.93762e-14
1.49352e-13
3.8e-13
6.19416e-13
4.32809e-13
2.15839e-13
2.95117e-13
3.71297e-13
5.19188e-13
6.98344e-13
8.58824e-13
9.04466e-13
2.4353e-27
1.13007e-27
7.64704e-23
8.52271e-25
6.72481e-27
3.40233e-29
1.56761e-31
9.7674e-33
6.76395e-33
1.68122e-31
5.14526e-29
9.39834e-27
1.14023e-24
9.89355e-23
6.49375e-21
3.40678e-19
1.23376e-17
1.98411e-16
1.62933e-15
7.60468e-15
2.20337e-14
3.98544e-14
3.36976e-14
1.49725e-14
1.97165e-14
2.32976e-14
2.80741e-14
3.45519e-14
4.40078e-14
4.82445e-14
7.84881e-30
3.76151e-30
3.51259e-26
2.00488e-28
7.25397e-31
2.56228e-33
1.59871e-34
4.93444e-35
2.62031e-35
4.93988e-36
4.99166e-34
3.16373e-31
1.34291e-28
4.09515e-26
9.49066e-24
1.76654e-21
1.4956e-19
3.93261e-18
4.52608e-17
2.69014e-16
9.17523e-16
1.86137e-15
1.84572e-15
7.733e-16
9.86668e-16
1.12632e-15
1.19497e-15
1.32309e-15
1.66029e-15
1.81787e-15
0.999999
0.999999
0.999999
0.999999
0.999999
0.99835
0.213879
0.000284817
0.00533002
2.18819e-05
2.22551e-05
2.58542e-05
9.95174e-05
0.000167896
0.000154472
1.34273e-07
1.19459e-07
9.90983e-08
4.22804e-06
0.00164149
0.232479
0.98381
1
1
1
1
1
1
1
0.99664
0.999999
0.999999
0.999999
0.999999
0.999999
0.564167
0.000605814
0.000259026
0.000187221
2.21513e-05
2.17164e-05
2.20708e-05
0.000116147
0.000167915
0.000167685
9.73293e-08
5.14876e-08
-1.99978e-08
2.3713e-06
6.57905e-05
0.0330288
0.988747
0.999999
1
1
1
1
1
0.812078
0.363803
0.999999
0.999999
0.999999
0.984834
0.534856
0.0518792
0.000229659
0.000201641
2.20773e-05
2.17054e-05
2.16282e-05
2.16282e-05
0.000155279
0.000167942
0.000167912
3.68378e-08
1.98815e-08
1.324e-08
-2.69222e-06
2.17326e-06
0.0442576
0.995947
0.999977
0.999621
0.998527
0.997442
0.981035
0.862268
0.454414
0.153074
0.737657
0.694109
0.588377
0.349079
0.00469246
3.59807e-05
0.000133028
0.00013821
2.18088e-05
2.17401e-05
2.17164e-05
2.95802e-05
0.000168027
0.000167964
0.000168055
4.29073e-07
1.592e-08
1.5914e-08
1.01966e-08
5.36812e-08
3.89787e-06
0.508614
0.993498
0.996077
0.988953
0.97281
0.90938
0.736087
0.427136
0.0565565
0.0533263
0.0383835
0.0159052
0.00101253
0.000916743
1.47074e-05
2.07473e-05
3.04888e-05
2.53326e-05
2.17247e-05
0.000121033
0.000157292
0.000169147
0.000168197
0.000169325
4.12612e-05
1.65274e-08
1.59097e-08
8.8289e-09
-2.63858e-07
3.04788e-05
0.0379653
0.85409
0.995886
0.988378
0.953728
0.802269
0.5308
0.136894
0.00275965
0.000122052
0.000112595
9.49124e-05
7.14744e-05
4.2655e-05
9.68983e-06
1.13083e-05
1.7968e-05
5.8059e-05
7.85529e-05
8.49342e-05
0.00015829
6.61154e-05
0.000168298
7.63949e-05
0.000105083
4.08327e-06
9.76724e-08
-2.07997e-09
-1.53614e-06
1.21632e-06
0.0331658
0.653425
0.982332
0.972828
0.868919
0.556838
0.181256
0.00791471
5.08274e-05
6.01096e-06
6.31352e-06
6.65388e-06
8.0979e-06
5.5948e-06
7.05946e-06
9.1516e-06
3.01972e-05
6.01412e-05
4.66594e-05
7.2657e-06
2.46197e-05
1.94506e-05
0.00012569
6.94544e-06
9.16316e-05
2.95046e-05
4.13633e-07
-1.16267e-11
-1.62452e-08
-2.42871e-07
0.00103329
0.0554129
0.544757
0.673223
0.517864
0.19241
0.0178451
9.09028e-05
5.00073e-05
1.37038e-06
1.41158e-06
1.47862e-06
2.06921e-06
4.26947e-06
1.21364e-05
3.78697e-05
3.77257e-05
2.99195e-05
5.72202e-06
5.18078e-06
5.39924e-06
1.64549e-05
0.000200316
6.31995e-06
1.3798e-06
2.86582e-05
9.35015e-07
4.25408e-11
1.36295e-11
3.60869e-11
7.22553e-11
1.5279e-10
0.0340569
0.0727693
0.0433216
0.00619823
6.15184e-07
2.86907e-06
4.2709e-06
1.18092e-06
1.17862e-06
1.15499e-06
1.33831e-06
4.227e-06
3.38086e-05
3.76394e-05
3.77257e-05
4.52644e-06
4.00024e-06
4.77857e-06
8.31231e-06
7.67701e-05
0.000203677
7.90777e-06
1.37308e-07
1.52269e-06
7.99805e-07
5.71489e-09
2.17179e-10
6.5601e-10
2.75845e-09
1.45318e-09
1.7836e-13
2.22613e-20
-1.18223e-12
3.11195e-14
5.89201e-09
2.55428e-06
5.02945e-07
1.1793e-06
1.1556e-06
1.1225e-06
1.14721e-06
2.71069e-06
3.06924e-05
3.75531e-05
3.12371e-05
2.72012e-06
3.46487e-06
5.7797e-06
1.95893e-05
0.000208014
0.000206517
5.87503e-05
2.56567e-08
1.30269e-09
7.44462e-10
1.86319e-08
4.45029e-10
6.54944e-10
4.51379e-09
4.51234e-09
3.99728e-10
6.72348e-11
3.28593e-12
4.45708e-06
2.34511e-06
8.81344e-06
7.14222e-07
1.5068e-06
1.28539e-06
1.11608e-06
1.11965e-06
1.72879e-06
6.40681e-06
1.45611e-05
3.22231e-06
2.45224e-06
9.23313e-06
1.07717e-05
1.15098e-05
0.000208655
8.3337e-05
9.99752e-05
1.34728e-05
1.0585e-06
1.66077e-10
1.52364e-10
1.49357e-10
7.62209e-11
2.94167e-09
3.33693e-09
3.25795e-10
1.13897e-10
3.28795e-12
9.05244e-07
1.44533e-05
1.33526e-05
2.08661e-07
1.5608e-06
1.34894e-06
1.11658e-06
1.11736e-06
1.13141e-06
1.19704e-06
1.40719e-06
1.56831e-06
2.32852e-06
1.01874e-05
1.0135e-05
0.000129838
0.000210861
7.32487e-05
0.000100402
7.50285e-05
3.18716e-06
1.09594e-10
7.84296e-11
6.38906e-11
3.50625e-11
3.48186e-12
5.11593e-12
2.10475e-10
1.15371e-10
3.52911e-11
9.5297e-12
1.67598e-05
7.68682e-06
5.306e-08
1.56386e-06
1.12341e-06
1.11632e-06
1.11658e-06
1.1203e-06
1.14455e-06
1.25355e-06
1.4591e-06
5.03864e-06
8.19064e-06
5.41824e-05
0.000274692
0.000212135
7.2018e-05
9.92576e-05
8.61832e-05
2.99547e-06
8.07447e-11
5.04999e-11
3.95543e-11
9.36673e-12
3.4776e-12
1.25586e-11
1.12036e-10
7.6818e-11
4.51488e-11
9.5297e-12
1.67931e-05
3.97713e-06
3.70479e-09
1.13635e-06
1.11631e-06
1.11647e-06
1.11646e-06
1.11752e-06
1.12125e-06
1.14373e-06
2.03998e-05
1.50173e-05
8.43353e-06
0.00022882
0.000274761
7.92466e-05
7.09761e-05
7.35855e-05
5.1016e-07
1.87432e-07
1.83245e-10
5.13625e-11
2.08794e-11
2.82388e-12
3.19013e-12
1.36897e-11
5.01627e-11
4.10611e-11
3.8746e-11
1.00124e-11
1.67851e-05
1.48741e-06
6.31566e-11
1.16248e-06
1.27538e-06
1.34923e-06
7.99506e-06
1.12122e-06
1.13495e-06
1.41824e-05
3.30371e-05
2.97643e-05
0.000134819
0.000279147
0.000276723
7.92127e-05
7.04478e-05
4.06381e-05
3.32893e-08
5.30287e-11
4.74506e-11
2.86427e-11
9.11184e-12
9.78543e-13
2.21562e-12
8.01182e-12
1.85418e-11
2.14874e-11
3.09304e-11
1.06449e-11
1.35563e-05
1.58508e-07
1.30507e-11
1.81511e-06
4.46801e-06
4.21516e-05
5.55523e-05
4.5081e-05
4.4315e-05
5.46226e-05
2.2946e-05
3.38677e-05
0.000279147
0.000279147
0.000199843
7.95091e-05
8.8226e-05
1.8737e-05
6.79039e-10
7.21655e-11
7.74473e-11
1.65818e-11
3.09465e-12
4.36885e-13
1.14049e-12
3.35469e-12
6.16105e-12
9.82417e-12
3.93267e-11
3.46795e-09
4.75593e-07
1.25734e-11
1.0408e-11
2.69888e-06
4.81524e-06
5.26737e-05
5.5551e-05
5.55553e-05
5.52616e-05
5.48855e-05
3.8916e-06
4.47693e-06
0.000202091
0.000265514
7.11234e-05
7.0433e-05
8.82699e-05
2.89527e-05
1.23568e-09
3.62637e-11
1.91012e-11
9.00015e-12
8.90908e-13
1.49441e-13
4.30564e-13
1.05251e-12
1.66403e-12
4.04071e-12
1.85353e-11
2.08948e-10
2.00728e-11
9.84502e-12
6.65791e-12
1.06789e-06
2.73023e-06
1.51436e-05
3.85928e-05
4.79349e-05
3.78414e-05
1.2982e-05
2.75818e-06
1.20731e-05
0.000115263
5.13343e-05
1.75191e-05
7.81033e-05
8.8226e-05
1.26291e-05
7.15913e-10
5.15994e-11
4.17147e-11
7.38829e-12
5.18674e-13
4.55754e-14
1.05373e-13
2.16638e-13
3.74487e-13
1.52295e-12
9.76185e-12
4.98494e-11
1.15295e-11
9.18031e-12
3.83308e-12
6.27412e-07
6.57085e-07
7.48097e-07
2.66608e-06
2.64844e-06
1.06563e-06
1.08267e-07
2.0502e-05
7.15629e-05
8.9976e-05
1.23467e-05
1.50892e-05
7.72349e-05
4.11777e-05
3.69931e-07
9.19083e-11
3.00378e-11
2.65945e-11
3.00677e-12
2.06601e-13
9.11314e-15
1.37053e-14
3.21861e-14
7.5429e-14
5.29914e-13
4.6399e-12
2.5021e-11
5.715e-11
2.58568e-12
1.34327e-12
6.28376e-07
1.47224e-06
8.90525e-06
3.29213e-06
2.30879e-07
1.0828e-07
7.21715e-08
2.08759e-05
7.43229e-05
4.51382e-05
1.67206e-06
1.70245e-05
2.48673e-05
5.03243e-06
2.7656e-11
1.39135e-11
1.41721e-11
8.98971e-12
1.01742e-12
6.08955e-14
1.78013e-15
1.2775e-15
3.39198e-15
1.45126e-14
1.55352e-13
1.62862e-12
9.57926e-12
2.68485e-11
6.4691e-13
3.56943e-13
1.24717e-05
1.49039e-05
1.62872e-05
1.59397e-05
4.76532e-06
5.85242e-08
6.1428e-08
3.4079e-06
9.60709e-06
1.90339e-06
9.06392e-07
1.55107e-06
6.05464e-10
2.31896e-11
1.30896e-11
8.66892e-12
5.56746e-12
1.30155e-12
1.6031e-13
9.9305e-15
2.44986e-16
7.30743e-17
2.7093e-16
2.45412e-15
3.37819e-14
3.96958e-13
2.57129e-12
1.02503e-11
1.22613e-13
5.5133e-14
1.45422e-05
1.62858e-05
1.62654e-05
1.54927e-05
3.26635e-06
2.83951e-08
5.72466e-08
1.22361e-09
1.75065e-09
9.59949e-09
2.2547e-07
7.53353e-08
3.1393e-09
5.70922e-11
6.13851e-11
1.9873e-11
4.08634e-12
5.17576e-13
4.04102e-14
1.88074e-15
4.04701e-17
2.42606e-18
1.77074e-17
3.03326e-16
4.90539e-15
6.36193e-14
4.65581e-13
2.70061e-12
1.58651e-14
5.50189e-15
1.35923e-06
2.82226e-06
4.01894e-06
2.18683e-06
5.20748e-07
1.6712e-08
2.64972e-09
1.47246e-10
2.72702e-10
1.54801e-08
1.12337e-10
1.23478e-10
2.1753e-10
7.31635e-11
2.08134e-11
4.65108e-12
7.39239e-13
7.93956e-14
5.45312e-15
2.19668e-16
4.18072e-18
5.95657e-20
9.3352e-19
2.36109e-17
4.38811e-16
6.35443e-15
5.50969e-14
4.82377e-13
1.32952e-15
3.53931e-16
5.66337e-10
8.97893e-10
1.14944e-09
6.79919e-10
2.23865e-10
2.43185e-09
1.76882e-10
1.0747e-10
2.92671e-10
5.97661e-10
8.12211e-11
1.14871e-10
5.40353e-11
1.77206e-11
4.24805e-12
7.27277e-13
8.64971e-14
6.91469e-15
3.58645e-16
1.1241e-17
1.80404e-19
1.4828e-21
3.19522e-20
1.03359e-18
2.22531e-17
3.70472e-16
4.11435e-15
5.70304e-14
6.9207e-17
1.46477e-17
1.284e-10
1.57507e-10
1.31671e-10
1.1205e-10
6.31096e-11
4.91653e-11
8.25259e-11
8.88036e-11
1.59188e-10
1.29849e-10
6.68775e-11
3.37221e-11
1.17651e-11
2.6663e-12
4.51402e-13
5.59714e-14
4.99525e-15
3.12203e-16
1.30554e-17
3.37645e-19
4.64733e-21
2.89786e-23
5.5545e-22
2.24758e-20
5.7425e-19
1.16776e-17
1.88625e-16
4.27754e-15
2.12228e-18
3.88686e-19
1.06919e-10
1.42135e-10
7.74232e-11
8.87719e-11
4.32017e-11
2.48017e-11
1.87188e-11
2.28844e-11
3.83986e-11
2.89528e-11
1.44562e-11
5.69335e-12
1.51008e-12
2.45029e-13
2.8367e-14
2.47831e-15
1.59566e-16
7.32956e-18
2.29394e-19
4.53193e-21
4.95484e-23
2.50435e-25
3.87625e-24
2.01275e-22
6.51794e-21
1.87621e-19
5.23531e-18
1.90824e-16
3.55163e-20
6.58691e-21
1.13204e-11
1.18593e-11
1.05263e-11
7.72241e-12
4.93687e-12
3.46098e-12
2.5669e-12
3.78658e-12
5.73202e-12
3.87192e-12
1.76412e-12
5.67251e-13
1.16036e-13
1.38512e-14
1.05426e-15
6.20617e-17
2.75255e-18
8.89654e-20
1.99757e-21
2.89092e-23
2.37398e-25
1.03006e-27
6.74619e-27
4.95608e-25
2.62568e-23
1.52728e-21
8.30623e-20
4.56517e-18
2.85056e-22
7.09296e-23
8.80589e-13
8.18066e-13
6.94291e-13
5.47177e-13
4.17615e-13
3.19079e-13
2.36319e-13
4.20705e-13
5.53962e-13
3.3485e-13
1.34004e-13
3.50676e-14
5.50302e-15
4.74598e-16
2.21327e-17
8.15698e-19
2.30039e-20
4.79223e-22
7.02776e-24
6.74282e-26
3.74943e-28
2.5346e-30
3.04438e-30
3.641e-28
5.68383e-26
7.21538e-24
6.32948e-22
4.7584e-20
7.64615e-25
4.83928e-25
4.67826e-14
4.15644e-14
3.50053e-14
2.97898e-14
2.5401e-14
2.06178e-14
1.53282e-14
3.17651e-14
3.59999e-14
1.93844e-14
6.64907e-15
1.3938e-15
1.63582e-16
9.65979e-18
2.50908e-19
4.71882e-21
7.04218e-23
7.91966e-25
6.35397e-27
3.37604e-29
1.08024e-31
9.39295e-33
1.32746e-32
2.62435e-31
5.82431e-29
1.11128e-26
1.34695e-24
1.11866e-22
1.03222e-27
2.15678e-27
1.76443e-15
1.54909e-15
1.3425e-15
1.24229e-15
1.16738e-15
9.88526e-16
7.39509e-16
1.70405e-15
1.66315e-15
7.8951e-16
2.26907e-16
3.70306e-17
3.07474e-18
1.09452e-19
1.15399e-21
6.05386e-24
2.53399e-26
8.06428e-29
1.84844e-31
2.84209e-34
6.21199e-36
3.77771e-35