/*--------------------------------*- C++ -*----------------------------------*\
| =========                 |                                                 |
| \\      /  F ield         | OpenFOAM: The Open Source CFD Toolbox           |
|  \\    /   O peration     | Version:  2.4.0                                 |
|   \\  /    A nd           | Web:      www.OpenFOAM.org                      |
|    \\/     M anipulation  |                                                 |
\*---------------------------------------------------------------------------*/
FoamFile
{
    version     2.0;
    format      ascii;
    class       volScalarField;
    location    "0.095";
    object      alpha.water;
}
// * * * * * * * * * * * * * * * * * * * * * * * * * * * * * * * * * * * * * //

dimensions      [0 0 0 0 0 0 0];

internalField   nonuniform List<scalar> 
60000
(
1
1
1
1
1
1
1
1
1
1
1
1
1
1
1
1
1
1
1
1
1
1
1
1
1
1
1
1
1
1
1
1
1
1
1
1
1
1
1
1
1
1
1
1
1
1
1
1
1
1
1
1
1
1
1
1
1
1
1
1
1
1
1
1
1
1
1
1
1
1
1
1
1
1
1
1
1
1
1
1
1
1
1
1
1
1
1
1
1
1
1
1
1
1
1
1
1
1
1
1
1
1
1
1
1
1
1
1
1
1
1
1
1
1
1
1
1
1
1
1
1
1
1
1
1
1
1
1
1
1
1
1
1
1
1
1
1
1
1
1
1
1
1
1
1
1
1
1
1
1
1
1
1
1
1
1
1
1
1
1
1
1
1
1
1
1
1
1
1
1
1
1
1
1
1
1
1
1
1
1
1
1
1
1
1
1
1
1
1
1
1
1
1
1
1
1
1
1
1
1
1
1
1
1
1
1
1
1
1
1
1
1
1
1
1
1
1
1
1
1
1
1
1
1
1
1
1
1
1
1
1
1
1
1
1
1
1
1
1
1
1
1
1
1
1
1
1
1
1
1
1
1
1
1
1
1
1
1
1
1
1
1
1
1
1
1
1
1
1
1
1
1
1
1
1
1
1
1
1
1
1
1
1
1
1
1
1
1
1
1
1
1
1
1
1
1
1
1
1
1
1
1
1
1
1
1
1
1
1
1
1
1
1
1
1
1
1
1
1
1
1
1
1
1
1
1
1
1
1
1
1
1
1
1
1
1
1
1
1
1
1
1
1
1
1
1
1
1
1
1
1
1
1
1
1
1
1
1
1
1
1
1
1
1
1
1
1
1
1
1
1
1
1
1
1
1
1
1
1
1
1
1
1
1
1
1
1
1
1
1
1
1
1
1
1
1
1
1
1
1
1
1
1
1
1
1
1
1
1
1
1
1
1
1
1
1
1
1
1
1
1
1
1
1
1
1
1
1
1
1
1
1
1
1
1
1
1
1
1
1
1
1
1
1
1
1
1
1
1
1
1
1
1
1
1
1
1
1
1
1
1
1
1
1
1
1
1
1
1
1
1
1
1
1
1
1
1
1
1
1
1
1
1
1
1
1
1
1
1
1
1
1
1
1
1
1
1
1
1
1
1
1
1
1
1
1
1
1
1
1
1
1
1
1
1
1
1
1
1
1
1
1
1
1
1
1
1
1
1
1
1
1
1
1
1
1
1
1
1
1
1
1
1
1
1
1
1
1
1
1
1
1
1
1
1
1
1
1
1
1
1
1
1
1
1
1
1
1
1
1
1
1
1
1
1
1
1
1
1
1
1
1
1
1
1
1
1
1
1
1
1
1
1
1
1
1
1
1
1
1
1
1
1
1
1
1
1
1
1
1
1
1
1
1
1
1
1
1
1
1
1
1
1
1
1
1
1
1
1
1
1
1
1
1
1
1
1
1
1
1
1
1
1
1
1
1
1
1
1
1
1
1
1
1
1
1
1
1
1
1
1
1
1
1
1
1
1
1
1
1
1
1
1
1
1
1
1
1
1
1
1
1
1
1
1
1
1
1
1
1
1
1
1
1
1
1
1
1
1
1
1
1
1
1
1
1
1
1
1
1
1
1
1
1
1
1
1
1
1
1
1
1
1
1
1
1
1
1
1
1
1
1
1
1
1
1
1
1
1
1
1
1
1
1
1
1
1
1
1
1
1
1
1
1
1
1
1
1
1
1
1
1
1
1
1
1
1
1
1
1
1
1
1
1
1
1
1
1
1
1
1
1
1
1
1
1
1
1
1
1
1
1
1
1
1
1
1
1
1
1
1
1
1
1
1
1
1
1
1
1
1
1
1
1
1
1
1
1
1
1
1
1
1
1
1
1
1
1
1
1
1
1
1
1
1
1
1
1
1
1
1
1
1
1
1
1
1
1
1
1
1
1
1
1
1
1
1
1
1
1
1
1
1
1
1
1
1
1
1
1
1
1
1
1
1
1
1
1
1
1
1
1
1
1
1
1
1
1
1
1
1
1
1
1
1
1
1
1
1
1
1
1
1
1
1
1
1
1
1
1
1
1
1
1
1
1
1
1
1
1
1
1
1
1
1
1
1
1
1
1
1
1
1
1
1
1
1
1
1
1
1
1
1
1
1
1
1
1
1
1
1
1
1
1
1
1
1
1
1
1
1
1
1
1
1
1
1
1
1
1
1
1
1
1
1
1
1
1
1
1
1
1
1
1
1
1
1
1
1
1
1
1
1
1
1
1
1
1
1
1
1
1
1
1
1
1
1
1
1
1
1
1
1
1
1
1
1
1
1
1
1
1
1
1
1
1
1
1
1
1
1
1
1
1
1
1
1
1
1
1
1
1
1
1
1
1
1
1
1
1
1
1
1
1
1
1
1
1
1
1
1
1
1
1
1
1
1
1
1
1
1
1
1
1
1
1
1
1
1
1
1
1
1
1
1
1
1
1
1
1
1
1
1
1
1
1
1
1
1
1
1
1
1
1
1
1
1
1
1
1
1
1
1
1
1
1
1
1
1
1
1
1
1
1
1
1
1
1
1
1
1
1
1
1
1
1
1
1
1
1
1
1
1
1
1
1
1
1
1
1
1
1
1
1
1
1
1
1
1
1
1
1
1
1
1
1
1
1
1
1
1
1
1
1
1
1
1
1
1
1
1
1
1
1
1
1
1
1
1
1
1
1
1
1
1
1
1
1
1
1
1
1
1
1
1
1
1
1
1
1
1
1
1
1
1
1
1
1
1
1
1
1
1
1
1
1
1
1
1
1
1
1
1
1
1
1
1
1
1
1
1
1
1
1
1
1
1
1
1
1
1
1
1
1
1
1
1
1
1
1
1
1
1
1
1
1
1
1
1
1
1
1
1
1
1
1
1
1
1
1
1
1
1
1
1
1
1
1
1
1
1
1
1
1
1
1
1
1
1
1
1
1
1
1
1
1
1
1
1
1
1
1
1
1
1
1
1
1
1
1
1
1
1
1
1
1
1
1
1
1
1
1
1
1
1
1
1
1
1
1
1
1
1
1
1
1
1
1
1
1
1
1
1
1
1
1
1
1
1
1
1
1
1
1
1
1
1
1
1
1
1
1
1
1
1
1
1
1
1
1
1
1
1
1
1
1
1
1
1
1
1
1
1
1
1
1
1
1
1
1
1
1
1
1
1
1
1
1
1
1
1
1
1
1
1
1
1
1
1
1
1
1
1
1
1
1
1
1
1
1
1
1
1
1
1
1
1
1
1
1
1
1
1
1
1
1
1
1
1
1
1
1
1
1
1
1
1
1
1
1
1
1
1
1
1
1
1
1
1
1
1
1
1
1
1
1
1
1
1
1
1
1
1
1
1
1
1
1
1
1
1
1
1
1
1
1
1
1
1
1
1
1
1
1
1
1
1
1
1
1
1
1
1
1
1
1
1
1
1
1
1
1
1
1
1
1
1
1
1
1
1
1
1
1
1
1
1
1
1
1
1
1
1
1
1
1
1
1
1
1
1
1
1
1
1
1
1
1
1
1
1
1
1
1
1
1
1
1
1
1
1
1
1
1
1
1
1
1
1
1
1
1
1
1
1
1
1
1
1
1
1
1
1
1
1
1
1
1
1
1
1
1
1
1
1
1
1
1
1
1
1
1
1
1
1
1
1
1
1
1
1
1
1
1
1
1
1
1
1
1
1
1
1
1
1
1
1
1
1
1
1
1
1
1
1
1
1
1
1
1
1
1
1
1
1
1
1
1
1
1
1
1
1
1
1
1
1
1
1
1
1
1
1
1
1
1
1
1
1
1
1
1
1
1
1
1
1
1
1
1
1
1
1
1
1
1
1
1
1
1
1
1
1
1
1
1
1
1
1
1
1
1
1
1
1
1
1
1
1
1
1
1
1
1
1
1
1
1
1
1
1
1
1
1
1
1
1
1
1
1
1
1
1
1
1
1
1
1
1
1
1
1
1
1
1
1
1
1
1
1
1
1
1
1
1
1
1
1
1
1
1
1
1
1
1
1
1
1
1
1
1
1
1
1
1
1
1
1
1
1
1
1
1
1
1
1
1
1
1
1
1
1
1
1
1
1
1
1
1
1
1
1
1
1
1
1
1
1
1
1
1
1
1
1
1
1
1
1
1
1
1
1
1
1
1
1
1
1
1
1
1
1
1
1
1
1
1
1
1
1
1
1
1
1
1
1
1
1
1
1
1
1
1
1
1
1
1
1
1
1
1
1
1
1
1
1
1
1
1
1
1
1
1
1
1
1
1
1
1
1
1
1
1
1
1
1
1
1
1
1
1
1
1
1
1
1
1
1
1
1
1
1
1
1
1
1
1
1
1
1
1
1
1
1
1
1
1
1
1
1
1
1
1
1
1
1
1
1
1
1
1
1
1
1
1
1
1
1
1
1
1
1
1
1
1
1
1
1
1
1
1
1
1
1
1
1
1
1
1
1
1
1
1
1
1
1
1
1
1
1
1
1
1
1
1
1
1
1
1
1
1
1
1
1
1
1
1
1
1
1
1
1
1
1
1
1
1
1
1
1
1
1
1
1
1
1
1
1
1
1
1
1
1
1
1
1
1
1
1
1
1
1
1
1
1
1
1
1
1
1
1
1
1
1
1
1
1
1
1
1
1
1
1
1
1
1
1
1
1
1
1
1
1
1
1
1
1
1
1
1
1
1
1
1
1
1
1
1
1
1
1
1
1
1
1
1
1
1
1
1
1
1
1
1
1
1
1
1
1
1
1
1
1
1
1
1
1
1
1
1
1
1
1
1
1
1
1
1
1
1
1
1
1
1
1
1
1
1
1
1
1
1
1
1
1
1
1
1
1
1
1
1
1
1
1
1
1
1
1
1
1
1
1
1
1
1
1
1
1
1
1
1
1
1
1
1
1
1
1
1
1
1
1
1
1
1
1
1
1
1
1
1
1
1
1
1
1
1
1
1
1
1
1
1
1
1
1
1
1
1
1
1
1
1
1
1
1
1
1
1
1
1
1
1
1
1
1
1
1
1
1
1
1
1
1
1
1
1
1
1
1
1
1
1
1
1
1
1
1
1
1
1
1
1
1
1
1
1
1
1
1
1
1
1
1
1
1
1
1
1
1
1
1
1
1
1
1
1
1
1
1
1
1
1
1
1
1
1
1
1
1
1
1
1
1
1
1
1
1
1
1
1
1
1
1
1
1
1
1
1
1
1
1
1
1
1
1
1
1
1
1
1
1
1
1
1
1
1
1
1
1
1
1
1
1
1
1
1
1
1
1
1
1
1
1
1
1
1
1
1
1
1
1
1
1
1
1
1
1
1
1
1
1
1
1
1
1
1
1
1
1
1
1
1
1
1
1
1
1
1
1
1
1
1
1
1
1
1
1
1
1
1
1
1
1
1
1
1
1
1
1
1
1
1
1
1
1
1
1
1
1
1
1
1
1
1
1
1
1
1
1
1
1
1
1
1
1
1
1
1
1
1
1
1
1
1
1
1
1
1
1
1
1
1
1
1
1
1
1
1
1
1
1
1
1
1
1
1
1
1
1
1
1
1
1
1
1
1
1
1
1
1
1
1
1
1
1
1
1
1
1
1
1
1
1
1
1
1
1
1
1
1
1
1
1
1
1
1
1
1
1
1
1
1
1
1
1
1
1
1
1
1
1
1
1
1
1
1
1
1
1
1
1
1
1
1
1
1
1
1
1
1
1
1
1
1
1
1
1
1
1
1
1
1
1
1
1
1
1
1
1
1
1
1
1
1
1
1
1
1
1
1
1
1
1
1
1
1
1
1
1
1
1
1
1
1
1
1
1
1
1
1
1
1
1
1
1
1
1
1
1
1
1
1
1
1
1
1
1
1
1
1
1
1
1
1
1
1
1
1
1
1
1
1
1
1
1
1
1
1
1
1
1
1
1
1
1
1
1
1
1
1
1
1
1
1
1
1
1
1
1
1
1
1
1
1
1
1
1
1
1
1
1
1
1
1
1
1
1
1
1
1
1
1
1
1
1
1
1
1
1
1
1
1
1
1
1
1
1
1
1
1
1
1
1
1
1
1
1
1
1
1
1
1
1
1
1
1
1
1
1
1
1
1
1
1
1
1
1
1
1
1
1
1
1
1
1
1
1
1
1
1
1
1
1
1
1
1
1
1
1
1
1
1
1
1
1
1
1
1
1
1
1
1
1
1
1
1
1
1
1
1
1
1
1
1
1
1
1
1
1
1
1
1
1
1
1
1
1
1
1
1
1
1
1
1
1
1
1
1
1
1
1
1
1
1
1
1
1
1
1
1
1
1
1
1
1
1
1
1
1
1
1
1
1
1
1
1
1
1
1
1
1
1
1
1
1
1
1
1
1
1
1
1
1
1
1
1
1
1
1
1
1
1
1
1
1
1
1
1
1
1
1
1
1
1
1
1
1
1
1
1
1
1
1
1
1
1
1
1
1
1
1
1
1
1
1
1
1
1
1
1
1
1
1
1
1
1
1
1
1
1
1
1
1
1
1
1
1
1
1
1
1
1
1
1
1
1
1
1
1
1
1
1
1
1
1
1
1
1
1
1
1
1
1
1
1
1
1
1
1
1
1
1
1
1
1
1
1
1
1
1
1
1
1
1
1
1
1
1
1
1
1
1
1
1
1
1
1
1
1
1
1
1
1
1
1
1
1
1
1
1
1
1
1
1
1
1
1
1
1
1
1
1
1
1
1
1
1
1
1
1
1
1
1
1
1
1
1
1
1
1
1
1
1
1
1
1
1
1
1
1
1
1
1
1
1
1
1
1
1
1
1
1
1
1
1
1
1
1
1
1
1
1
1
1
1
1
1
1
1
1
1
1
1
1
1
1
1
1
1
1
1
1
1
1
1
1
1
1
1
1
1
1
1
1
1
1
1
1
1
1
1
1
1
1
1
1
1
1
1
1
1
1
1
1
1
1
1
1
1
1
1
1
1
1
1
1
1
1
1
1
1
1
1
1
1
1
1
1
1
1
1
1
1
1
1
1
1
1
1
1
1
1
1
1
1
1
1
1
1
1
1
1
1
1
1
1
1
1
1
1
1
1
1
1
1
1
1
1
1
1
1
1
1
1
1
1
1
1
1
1
1
1
1
1
1
1
1
1
1
1
1
1
1
1
1
1
1
1
1
1
1
1
1
1
1
1
1
1
1
1
1
1
1
1
1
1
1
1
1
1
1
1
1
1
1
1
1
1
1
1
1
1
1
1
1
1
1
1
1
1
1
1
1
1
1
1
1
1
1
1
1
1
1
1
1
1
1
1
1
1
1
1
1
1
1
1
1
1
1
1
1
1
1
1
1
1
1
1
1
1
1
1
1
1
1
1
1
1
1
1
1
1
1
1
1
1
1
1
1
1
1
1
1
1
1
1
1
1
1
1
1
1
1
1
1
1
1
1
1
1
1
1
1
1
1
1
1
1
1
1
1
1
1
1
1
1
1
1
1
1
1
1
1
1
1
1
1
1
1
1
1
1
1
1
1
1
1
1
1
1
1
1
1
1
1
1
1
1
1
1
1
1
1
1
1
1
1
1
1
1
1
1
1
1
1
1
1
1
1
1
1
1
1
1
1
1
1
1
1
1
1
1
1
1
1
1
1
1
1
1
1
1
1
1
1
1
1
1
1
1
1
1
1
1
1
1
1
1
1
1
1
1
1
1
1
1
1
1
1
1
1
1
1
1
1
1
1
1
1
1
1
1
1
1
1
1
1
1
1
1
1
1
1
1
1
1
1
1
1
1
1
1
1
1
1
1
1
1
1
1
1
1
1
1
1
1
1
1
1
1
1
1
1
1
1
1
1
1
1
1
1
1
1
1
1
1
1
1
1
1
1
1
1
1
1
1
1
1
1
1
1
1
1
1
1
1
1
1
1
1
1
1
1
1
1
1
1
1
1
1
1
1
1
1
1
1
1
1
1
1
1
1
1
1
1
1
1
1
1
1
1
1
1
1
1
1
1
1
1
1
1
1
1
1
1
1
1
1
1
1
1
1
1
1
1
1
1
1
1
1
1
1
1
1
1
1
1
1
1
1
1
1
1
1
1
1
1
1
1
1
1
1
1
1
1
1
1
1
1
1
1
1
1
1
1
1
1
1
1
1
1
1
1
1
1
1
1
1
1
1
1
1
1
1
1
1
1
1
1
1
1
1
1
1
1
1
1
1
1
1
1
1
1
1
1
1
1
1
1
1
1
1
1
1
1
1
1
1
1
1
1
1
1
1
1
1
1
1
1
1
1
1
1
1
1
1
1
1
1
1
1
1
1
1
1
1
1
1
1
1
1
1
1
1
1
1
1
1
1
1
1
1
1
1
1
1
1
1
1
1
1
1
1
1
1
1
1
1
1
1
1
1
1
1
1
1
1
1
1
1
1
1
1
1
1
1
1
1
1
1
1
1
1
1
1
1
1
1
1
1
1
1
1
1
1
1
1
1
1
1
1
1
1
1
1
1
1
1
1
1
1
1
1
1
1
1
1
1
1
1
1
1
1
1
1
1
1
1
1
1
1
1
1
1
1
1
1
1
1
1
1
1
1
1
1
1
1
1
1
1
1
1
1
1
1
1
1
1
1
1
1
1
1
1
1
1
1
1
1
1
1
1
1
1
1
1
1
1
1
1
1
1
1
1
1
1
1
1
1
1
1
1
1
1
1
1
1
1
1
1
1
1
1
1
1
1
1
1
1
1
1
1
1
1
1
1
1
1
1
1
1
1
1
1
1
1
1
1
1
1
1
1
1
1
1
1
1
1
1
1
1
1
1
1
1
1
1
1
1
1
1
1
1
1
1
1
1
1
1
1
1
1
1
1
1
1
1
1
1
1
1
1
1
1
1
1
1
1
1
1
1
1
1
1
1
1
1
1
1
1
1
1
1
1
1
1
1
1
1
1
1
1
1
1
1
1
1
1
1
1
1
1
1
1
1
1
1
1
1
1
1
1
1
1
1
1
1
1
1
1
1
1
1
1
1
1
1
1
1
1
1
1
1
1
1
1
1
1
1
1
1
1
1
1
1
1
1
1
1
1
1
1
1
1
1
1
1
1
1
1
1
1
1
1
1
1
1
1
1
1
1
1
1
1
1
1
1
1
1
1
1
1
1
1
1
1
1
1
1
1
1
1
1
1
1
1
1
1
1
1
1
1
1
1
1
1
1
1
1
1
1
1
1
1
1
1
1
1
1
1
1
1
1
1
1
1
1
1
1
1
1
1
1
1
1
1
1
1
1
1
1
1
1
1
1
1
1
1
1
1
1
1
1
1
1
1
1
1
1
1
1
1
1
1
1
1
1
1
1
1
1
1
1
1
1
1
1
1
1
1
1
1
1
1
1
1
1
1
1
1
1
1
1
1
1
1
1
1
1
1
1
1
1
1
1
1
1
1
1
1
1
1
1
1
1
1
1
1
1
1
1
1
1
1
1
1
1
1
1
1
1
1
1
1
1
1
1
1
1
1
1
1
1
1
1
1
1
1
1
1
1
1
1
1
1
1
1
1
1
1
1
1
1
1
1
1
1
1
1
1
1
1
1
1
1
1
1
1
1
1
1
1
1
1
1
1
1
1
1
1
1
1
1
1
1
1
1
1
1
1
1
1
1
1
1
1
1
1
1
1
1
1
1
1
1
1
1
1
1
1
1
1
1
1
1
1
1
1
1
1
1
1
1
1
1
1
1
1
1
1
1
1
1
1
1
1
1
1
1
1
1
1
1
1
1
1
1
1
1
1
1
1
1
1
1
1
1
1
1
1
1
1
1
1
1
1
1
1
1
1
1
1
1
1
1
1
1
1
1
1
1
1
1
1
1
1
1
1
1
1
1
1
1
1
1
1
1
1
1
1
1
1
1
1
1
1
1
1
1
1
1
1
1
1
1
1
1
1
1
1
1
1
1
1
1
1
1
1
1
1
1
1
1
1
1
1
1
1
1
1
1
1
1
1
1
1
1
1
1
1
1
1
1
1
1
1
1
1
1
1
1
1
1
1
1
1
1
1
1
1
1
1
1
1
1
1
1
1
1
1
1
1
1
1
1
1
1
1
1
1
1
1
1
1
1
1
1
1
1
1
1
1
1
1
1
1
1
1
1
1
1
1
1
1
1
1
1
1
1
1
1
1
1
1
1
1
1
1
1
1
1
1
1
1
1
1
1
1
1
1
1
1
1
1
1
1
1
1
1
1
1
1
1
1
1
1
1
1
1
1
1
1
1
1
1
1
1
1
1
1
1
1
1
1
1
1
1
1
1
1
1
1
1
1
1
1
1
1
1
1
1
1
1
1
1
1
1
1
1
1
1
1
1
1
1
1
1
1
1
1
1
1
1
1
1
1
1
1
1
1
1
1
1
1
1
1
1
1
1
1
1
1
1
1
1
1
1
1
1
1
1
1
1
1
1
1
1
1
1
1
1
1
1
1
1
1
1
1
1
1
1
1
1
1
1
1
1
1
1
1
1
1
1
1
1
1
1
1
1
1
1
1
1
1
1
1
1
1
1
1
1
1
1
1
1
1
1
1
1
1
1
1
1
1
1
1
1
1
1
1
1
1
1
1
1
1
1
1
1
1
1
1
1
1
1
1
1
1
1
1
1
1
1
1
1
1
1
1
1
1
1
1
1
1
1
1
1
1
1
1
1
1
1
1
1
1
1
1
1
1
1
1
1
1
1
1
1
1
1
1
1
1
1
1
1
1
1
1
1
1
1
1
1
1
1
1
1
1
1
1
1
1
1
1
1
1
1
1
1
1
1
1
1
1
1
1
1
1
1
1
1
1
1
1
1
1
1
1
1
1
1
1
1
1
1
1
1
1
1
1
1
1
1
1
1
1
1
1
1
1
1
1
1
1
1
1
1
1
1
1
1
1
1
1
1
1
1
1
1
1
1
1
1
1
1
1
1
1
1
1
1
1
1
1
1
1
1
1
1
1
1
1
1
1
1
1
1
1
1
1
1
1
1
1
1
1
1
1
1
1
1
1
1
1
1
1
1
1
1
1
1
1
1
1
1
1
1
1
1
1
1
1
1
1
1
1
1
1
1
1
1
1
1
1
1
1
1
1
1
1
1
1
0.999995
0.999965
0.999956
0.999975
1
1
1
1
1
1
1
1
1
1
0.999999
0.99998
0.999936
0.99988
0.999815
0.999759
0.99972
0.999701
0.999702
0.999715
0.999738
0.999775
0.999824
0.999883
0.999948
1
1
1
1
1
1
1
1
1
1
0.999994
0.999945
0.999853
0.999722
0.999559
0.99938
0.999192
0.999004
0.998823
0.998638
0.998456
0.998273
0.998083
0.997883
0.997671
0.997444
0.997208
0.996965
0.996718
0.996471
0.996227
0.996001
0.995808
0.995652
0.995532
0.995453
0.995412
0.9954
0.995404
0.995413
0.995421
0.995425
0.995413
0.995375
0.995311
0.995223
0.99511
0.994974
0.994818
0.994647
0.994479
0.994319
0.994178
0.994052
0.993961
0.993902
0.993897
0.993936
0.994034
0.994198
0.994398
0.994672
0.994927
0.995317
0.995605
0.995835
0.995895
0.00140739
0.00139061
0.00135893
0.00131622
0.00127279
0.00125166
0.00122518
0.00119154
0.00117737
0.0012159
0.00128279
0.00137514
0.00148346
0.00159882
0.00170889
0.00180094
0.00186395
0.00189103
0.00187488
0.00183502
0.00178801
0.00174059
0.00169284
0.00164944
0.00161379
0.00158666
0.00158221
0.00161098
0.00167267
0.00177609
0.00191472
0.00208084
0.00226807
0.00247526
0.00272589
0.002964
0.00318221
0.00338072
0.00356294
0.00372323
0.00385862
0.00396127
0.00401717
0.00402123
0.00400254
0.00396845
0.00392043
0.00386079
0.00379489
0.00372623
0.00365849
0.00359676
0.00354925
0.00350911
0.00347256
0.00343555
0.00339628
0.00335173
0.00329913
0.00323712
0.00316587
0.00308935
0.00301604
0.0029544
0.0029033
0.0028583
0.00282492
0.0028073
0.00280263
0.00281058
0.00282805
0.0028584
0.00289903
0.00293479
0.0029591
0.00297533
0.00297886
0.00296849
0.00293957
0.00289364
0.00283301
0.00276268
0.00268427
0.00259269
0.00249015
0.00237452
0.00225833
0.00213227
0.00200347
0.00185959
0.0017109
0.0015534
0.00137374
0.00120417
0.00100097
0.000854438
0.000606575
0.000486113
0.000451903
0.000603049
1.00843e-10
9.93524e-11
9.74134e-11
9.28799e-11
2.56014e-12
2.56014e-12
2.56069e-12
9.35534e-11
9.36306e-11
9.42407e-11
9.71173e-11
1.02357e-10
1.08546e-10
1.13825e-10
1.18344e-10
1.21453e-10
1.22891e-10
1.08727e-10
1.39576e-11
1.39576e-11
1.39576e-11
1.39577e-11
1.39577e-11
1.39577e-11
1.39578e-11
4.64739e-11
1.11901e-10
1.12031e-10
1.15247e-10
1.23386e-10
1.37377e-10
1.57298e-10
1.83189e-10
2.15217e-10
2.47859e-10
2.74217e-10
2.96371e-10
3.15248e-10
3.31621e-10
3.44467e-10
3.53854e-10
3.21787e-10
1.44229e-10
4.19846e-11
4.19846e-11
4.19855e-11
4.19877e-11
4.1991e-11
4.19952e-11
4.19997e-11
4.20042e-11
4.20083e-11
4.20116e-11
4.20146e-11
4.20175e-11
4.20206e-11
4.20242e-11
4.20285e-11
4.20337e-11
4.20398e-11
4.20466e-11
4.2054e-11
4.20615e-11
4.20689e-11
4.2076e-11
4.20827e-11
4.20884e-11
4.20928e-11
4.20958e-11
4.21483e-11
1.30107e-10
4.12183e-10
4.65005e-10
1.98681e-10
7.55263e-11
2.58996e-11
2.58996e-11
2.59011e-11
2.59047e-11
2.59104e-11
2.59179e-11
2.59137e-11
2.59036e-11
2.58926e-11
2.58817e-11
2.58711e-11
2.58612e-11
2.58525e-11
2.58449e-11
2.58398e-11
2.5836e-11
2.58348e-11
2.58348e-11
2.58433e-11
1.14357e-10
2.73077e-11
1.13349e-10
2.77205e-10
1.90697e-10
1.466e-10
1.62366e-11
1.42376e-11
1.1461e-11
9.61017e-12
9.23329e-12
8.9689e-12
8.23465e-12
7.19157e-12
7.37268e-12
9.03352e-12
1.24603e-11
1.79597e-11
2.42506e-11
2.9527e-11
3.38882e-11
3.66439e-11
3.71764e-11
3.58807e-11
3.40482e-11
3.23634e-11
3.09315e-11
2.96853e-11
2.86497e-11
2.77322e-11
2.70073e-11
2.59772e-11
2.56183e-11
2.67533e-11
3.05661e-11
3.9025e-11
5.31727e-11
7.31834e-11
9.92857e-11
1.31355e-10
1.63808e-10
1.90142e-10
2.12305e-10
2.31163e-10
2.4746e-10
2.60178e-10
2.6936e-10
2.74397e-10
2.76225e-10
2.77443e-10
2.78501e-10
2.79641e-10
2.80942e-10
2.83628e-10
2.88865e-10
2.95893e-10
3.04233e-10
3.07228e-10
3.03222e-10
3.01228e-10
3.09619e-10
3.22454e-10
3.30703e-10
3.34984e-10
3.38816e-10
3.42675e-10
3.47244e-10
3.5325e-10
3.61627e-10
3.6916e-10
3.76768e-10
3.84287e-10
3.92696e-10
4.01551e-10
4.10326e-10
4.1977e-10
4.28787e-10
4.39156e-10
4.48497e-10
4.59668e-10
4.69481e-10
4.79707e-10
4.9225e-10
5.00097e-10
5.16394e-10
5.18135e-10
5.41174e-10
5.31655e-10
5.63549e-10
5.35945e-10
5.78739e-10
5.28204e-10
5.8048e-10
5.0473e-10
5.61545e-10
4.64998e-10
5.16969e-10
4.09127e-10
4.41742e-10
3.4274e-10
3.48116e-10
2.77706e-10
2.57865e-10
1.90909e-10
1.05272e-10
6.13328e-11
1.0304e-14
1.19268e-14
9.46783e-15
8.31569e-15
7.34912e-15
6.35961e-15
5.80935e-15
5.54061e-15
5.95211e-15
6.55217e-15
7.67974e-15
9.956e-15
1.37322e-14
1.78834e-14
2.25728e-14
2.71802e-14
2.97301e-14
3.00671e-14
2.88886e-14
2.68406e-14
2.43179e-14
2.22592e-14
2.0749e-14
1.95294e-14
1.87081e-14
1.78717e-14
1.8539e-14
2.0649e-14
2.4564e-14
3.1156e-14
4.24079e-14
6.04342e-14
8.79675e-14
1.2701e-13
1.77626e-13
2.32737e-13
2.89407e-13
3.44411e-13
3.97056e-13
4.44134e-13
4.83529e-13
5.10931e-13
5.22739e-13
5.18783e-13
5.1149e-13
5.03334e-13
4.95572e-13
4.91449e-13
4.95525e-13
5.06005e-13
5.2427e-13
5.31246e-13
5.17789e-13
5.09053e-13
5.27386e-13
5.57885e-13
5.74229e-13
5.80201e-13
5.87596e-13
5.97277e-13
6.06217e-13
6.14045e-13
6.26203e-13
6.39453e-13
6.56751e-13
6.69761e-13
6.86246e-13
7.01546e-13
7.19322e-13
7.35015e-13
7.52356e-13
7.68141e-13
7.88229e-13
8.06555e-13
8.26393e-13
8.39749e-13
8.66667e-13
8.7093e-13
9.05911e-13
8.93042e-13
9.43493e-13
9.07996e-13
9.74991e-13
9.04593e-13
9.8841e-13
8.78136e-13
9.7325e-13
8.20187e-13
9.17406e-13
7.38394e-13
8.33965e-13
6.57836e-13
7.64331e-13
6.61726e-13
9.3723e-13
1.24009e-12
2.44796e-12
2.78474e-12
2.3585e-12
9.82353e-13
2.37202e-17
1.26317e-17
8.71165e-18
7.24561e-18
5.89104e-18
4.85459e-18
4.47839e-18
4.34439e-18
4.76658e-18
5.23919e-18
5.87654e-18
6.95478e-18
9.10089e-18
1.15602e-17
1.46273e-17
1.82009e-17
2.0227e-17
2.0741e-17
2.04201e-17
1.95432e-17
1.78621e-17
1.59723e-17
1.43178e-17
1.29833e-17
1.22904e-17
1.14434e-17
1.18828e-17
1.35192e-17
1.66619e-17
2.17784e-17
3.02939e-17
4.44388e-17
6.75481e-17
1.03151e-16
1.54719e-16
2.19867e-16
2.96449e-16
3.7931e-16
4.65351e-16
5.4783e-16
6.20775e-16
6.74357e-16
7.00531e-16
6.93196e-16
6.66385e-16
6.40242e-16
6.16888e-16
6.01665e-16
6.01001e-16
6.11348e-16
6.34433e-16
6.39657e-16
6.11543e-16
5.90525e-16
6.10494e-16
6.50401e-16
6.70202e-16
6.76055e-16
6.86255e-16
6.99974e-16
7.10996e-16
7.17842e-16
7.31826e-16
7.46049e-16
7.69569e-16
7.84573e-16
8.07038e-16
8.242e-16
8.49286e-16
8.6668e-16
8.90837e-16
9.066e-16
9.2938e-16
9.43258e-16
9.68576e-16
9.75964e-16
1.01537e-15
1.01487e-15
1.07171e-15
1.04962e-15
1.12623e-15
1.07137e-15
1.16578e-15
1.06757e-15
1.18084e-15
1.0423e-15
1.1665e-15
9.87496e-16
1.12066e-15
9.35108e-16
1.10354e-15
9.71965e-16
1.31888e-15
1.61235e-15
3.94298e-15
9.35958e-15
2.8614e-14
4.58735e-14
5.17497e-14
1.59555e-14
9.50951e-20
1.47377e-20
8.25883e-21
6.53312e-21
4.92848e-21
3.86991e-21
3.57268e-21
3.49218e-21
3.88884e-21
4.33183e-21
4.84736e-21
5.52799e-21
6.96055e-21
8.44792e-21
1.02751e-20
1.26315e-20
1.36769e-20
1.37652e-20
1.36937e-20
1.35735e-20
1.2757e-20
1.17694e-20
1.09492e-20
1.02891e-20
1.0016e-20
8.9492e-21
8.90449e-21
9.71725e-21
1.15895e-20
1.47864e-20
2.03047e-20
3.0049e-20
4.68244e-20
7.41648e-20
1.16731e-19
1.76046e-19
2.53095e-19
3.4441e-19
4.46693e-19
5.51284e-19
6.49042e-19
7.2522e-19
7.67626e-19
7.66095e-19
7.20812e-19
6.68836e-19
6.25826e-19
5.96317e-19
5.85939e-19
5.89407e-19
6.08666e-19
6.0837e-19
5.68212e-19
5.35652e-19
5.47929e-19
5.83091e-19
5.99829e-19
6.03478e-19
6.13684e-19
6.2668e-19
6.37195e-19
6.42106e-19
6.55209e-19
6.66293e-19
6.90211e-19
7.04038e-19
7.27966e-19
7.43183e-19
7.71202e-19
7.87045e-19
8.15248e-19
8.29083e-19
8.5669e-19
8.68103e-19
8.98633e-19
9.02814e-19
9.4925e-19
9.46972e-19
1.01365e-18
9.92787e-19
1.08113e-18
1.03104e-18
1.13756e-18
1.05062e-18
1.17856e-18
1.06227e-18
1.20952e-18
1.06858e-18
1.25328e-18
1.14644e-18
1.47817e-18
1.60005e-18
2.85158e-18
6.06216e-18
2.60377e-17
9.43928e-17
3.8293e-16
8.21051e-16
1.0634e-15
2.18628e-16
3.83048e-22
1.87289e-23
7.7887e-24
5.96259e-24
4.22934e-24
3.16981e-24
2.90574e-24
2.84852e-24
3.21734e-24
3.64042e-24
4.10545e-24
4.62143e-24
5.72043e-24
6.72899e-24
7.87443e-24
9.42391e-24
9.73803e-24
9.36367e-24
9.21017e-24
9.38965e-24
9.05139e-24
8.64768e-24
8.41043e-24
8.26218e-24
8.3834e-24
7.38503e-24
7.24987e-24
7.71544e-24
8.84027e-24
1.06823e-23
1.38721e-23
1.99031e-23
3.08098e-23
4.9388e-23
7.98806e-23
1.25512e-22
1.89536e-22
2.71395e-22
3.69596e-22
4.76262e-22
5.81511e-22
6.68422e-22
7.22146e-22
7.29445e-22
6.87166e-22
6.11346e-22
5.47666e-22
5.04168e-22
4.82256e-22
4.75232e-22
4.83883e-22
4.76771e-22
4.34874e-22
3.99214e-22
4.01166e-22
4.22872e-22
4.32216e-22
4.32706e-22
4.39922e-22
4.48747e-22
4.57097e-22
4.59715e-22
4.70415e-22
4.77483e-22
4.97173e-22
5.07845e-22
5.2902e-22
5.40941e-22
5.67187e-22
5.8037e-22
6.08251e-22
6.20829e-22
6.50141e-22
6.61372e-22
6.94331e-22
6.99978e-22
7.47984e-22
7.51193e-22
8.18699e-22
8.11244e-22
9.01161e-22
8.74423e-22
9.84306e-22
9.34827e-22
1.0736e-21
1.01249e-21
1.19155e-21
1.13542e-21
1.41779e-21
1.48891e-21
2.22091e-21
3.23938e-21
8.9927e-21
3.53717e-20
2.13288e-19
1.08519e-18
5.43512e-18
1.45551e-17
1.98157e-17
2.44976e-18
1.40068e-24
2.60473e-26
7.26753e-27
5.44385e-27
3.67114e-27
2.63537e-27
2.38733e-27
2.3405e-27
2.67948e-27
3.07975e-27
3.51024e-27
3.93815e-27
4.84425e-27
5.60088e-27
6.3894e-27
7.46997e-27
7.37308e-27
6.70231e-27
6.40139e-27
6.63527e-27
6.50526e-27
6.41268e-27
6.51704e-27
6.6946e-27
7.08585e-27
6.19928e-27
6.09161e-27
6.44728e-27
7.22713e-27
8.33437e-27
1.01149e-26
1.36569e-26
2.02857e-26
3.19064e-26
5.16933e-26
8.28798e-26
1.29313e-25
1.92475e-25
2.72933e-25
3.6518e-25
4.60883e-25
5.44207e-25
6.00119e-25
6.14431e-25
5.82218e-25
5.13885e-25
4.33205e-25
3.78843e-25
3.47753e-25
3.31692e-25
3.29368e-25
3.17351e-25
2.81896e-25
2.51764e-25
2.47484e-25
2.56521e-25
2.59081e-25
2.57227e-25
2.60819e-25
2.65295e-25
2.70532e-25
2.71874e-25
2.79116e-25
2.8332e-25
2.96926e-25
3.04624e-25
3.20748e-25
3.29548e-25
3.5045e-25
3.61029e-25
3.84915e-25
3.96579e-25
4.23747e-25
4.35697e-25
4.67293e-25
4.76852e-25
5.21059e-25
5.32627e-25
5.94789e-25
6.03795e-25
6.88382e-25
6.90096e-25
7.98587e-25
7.93906e-25
9.44447e-25
9.51937e-25
1.18059e-24
1.24651e-24
1.7141e-24
2.15497e-24
3.98985e-24
9.00587e-24
4.29625e-23
2.48295e-22
1.92182e-21
1.27989e-20
7.61637e-20
2.4033e-19
3.30396e-19
2.21014e-20
4.49913e-27
3.93301e-29
6.7284e-30
4.95449e-30
3.20095e-30
2.20858e-30
1.97184e-30
1.92985e-30
2.23719e-30
2.61035e-30
3.00978e-30
3.38109e-30
4.15377e-30
4.75894e-30
5.34813e-30
6.15355e-30
5.86352e-30
5.06025e-30
4.65358e-30
4.85201e-30
4.79256e-30
4.84304e-30
5.12168e-30
5.48263e-30
6.03303e-30
5.2488e-30
5.18435e-30
5.5053e-30
6.12079e-30
6.85052e-30
7.86469e-30
9.94612e-30
1.38858e-29
2.08365e-29
3.28891e-29
5.25333e-29
8.30771e-29
1.267e-28
1.8517e-28
2.55395e-28
3.31554e-28
4.01e-28
4.50721e-28
4.67767e-28
4.46459e-28
3.9486e-28
3.28004e-28
2.65035e-28
2.28452e-28
2.07315e-28
1.98069e-28
1.84659e-28
1.59049e-28
1.37742e-28
1.32049e-28
1.33807e-28
1.33015e-28
1.30549e-28
1.31667e-28
1.33356e-28
1.36092e-28
1.36701e-28
1.41021e-28
1.43442e-28
1.51732e-28
1.56708e-28
1.67541e-28
1.73841e-28
1.88283e-28
1.96626e-28
2.1434e-28
2.24466e-28
2.46305e-28
2.58169e-28
2.848e-28
2.97415e-28
3.34347e-28
3.51571e-28
4.04931e-28
4.26076e-28
5.02231e-28
5.2732e-28
6.33335e-28
6.68509e-28
8.35207e-28
9.16182e-28
1.22314e-27
1.46669e-27
2.3046e-27
3.64948e-27
9.39327e-27
3.66616e-26
2.41876e-25
1.85703e-24
1.79637e-23
1.49763e-22
1.03076e-21
3.67219e-21
4.82468e-21
1.58055e-22
1.25045e-29
6.4499e-32
6.20586e-33
4.49385e-33
2.79566e-33
1.85942e-33
1.63384e-33
1.59447e-33
1.86974e-33
2.21289e-33
2.58185e-33
2.91181e-33
3.58196e-33
4.08464e-33
4.55084e-33
5.18312e-33
4.8206e-33
3.99232e-33
3.53682e-33
3.68304e-33
3.63791e-33
3.74279e-33
4.09444e-33
4.54284e-33
5.16978e-33
4.47179e-33
4.44096e-33
4.74368e-33
5.2637e-33
5.78498e-33
6.38414e-33
7.64874e-33
1.00229e-32
1.41353e-32
2.12442e-32
3.29958e-32
5.17727e-32
7.95629e-32
1.184e-31
1.66863e-31
2.21439e-31
2.73181e-31
3.12178e-31
3.28069e-31
3.15481e-31
2.79991e-31
2.32537e-31
1.85051e-31
1.44183e-31
1.20816e-31
1.08976e-31
9.70226e-32
8.05175e-32
6.72995e-32
6.26076e-32
6.17558e-32
6.02316e-32
5.82393e-32
5.83075e-32
5.86772e-32
5.99195e-32
6.02505e-32
6.25616e-32
6.39845e-32
6.8506e-32
7.15317e-32
7.79559e-32
8.21697e-32
9.10492e-32
9.70545e-32
1.08725e-31
1.16673e-31
1.32183e-31
1.42589e-31
1.6274e-31
1.75666e-31
2.04456e-31
2.23183e-31
2.66703e-31
2.94114e-31
3.60827e-31
4.01337e-31
5.05106e-31
5.73933e-31
7.63825e-31
9.26681e-31
1.3632e-30
1.90664e-30
3.58045e-30
7.76348e-30
3.1704e-29
1.72415e-28
1.43778e-27
1.43405e-26
1.70423e-25
1.72224e-24
1.35114e-23
5.12466e-23
6.06784e-23
8.79415e-25
2.99391e-32
1.17204e-34
5.72507e-36
4.0655e-36
2.44363e-36
1.5704e-36
1.3571e-36
1.31964e-36
1.56385e-36
1.87604e-36
2.21494e-36
2.51188e-36
3.09867e-36
3.52608e-36
3.90911e-36
4.42321e-36
4.04863e-36
3.25324e-36
2.79109e-36
2.89308e-36
2.84491e-36
2.96262e-36
3.33147e-36
3.80793e-36
4.45544e-36
3.8301e-36
3.82018e-36
4.10403e-36
4.55413e-36
4.94471e-36
5.306e-36
6.10676e-36
7.58739e-36
1.00557e-35
1.42217e-35
2.10664e-35
3.21179e-35
4.88408e-35
7.29913e-35
1.04031e-34
1.40077e-34
1.75347e-34
2.03017e-34
2.15635e-34
2.08798e-34
1.86044e-34
1.54651e-34
1.22835e-34
9.47197e-35
7.09774e-35
5.71246e-35
4.76273e-35
3.76561e-35
3.02385e-35
2.71336e-35
2.59352e-35
2.47447e-35
2.3508e-35
2.33295e-35
2.32986e-35
2.38235e-35
2.40034e-35
2.5159e-35
2.59547e-35
2.82151e-35
2.99201e-35
3.33753e-35
3.59596e-35
4.09597e-35
4.48311e-35
5.18991e-35
5.74852e-35
6.753e-35
7.55792e-35
8.96907e-35
1.00865e-34
1.2224e-34
1.39646e-34
1.74135e-34
2.02868e-34
2.61159e-34
3.10627e-34
4.14219e-34
5.12235e-34
7.3765e-34
1.00677e-33
1.67509e-33
2.82881e-33
6.81559e-33
2.27681e-32
1.22883e-31
8.43754e-31
8.84101e-30
1.12722e-28
1.62059e-27
1.92204e-26
1.62366e-25
6.33723e-25
6.50321e-25
3.73219e-27
6.19401e-35
2.38745e-37
5.3102e-39
3.67214e-39
2.13754e-39
1.32986e-39
1.12998e-39
1.09435e-39
1.30957e-39
1.59141e-39
1.90121e-39
2.17028e-39
2.68724e-39
3.05635e-39
3.37905e-39
3.80686e-39
3.44824e-39
2.71205e-39
2.26801e-39
2.33807e-39
2.28462e-39
2.39785e-39
2.75563e-39
3.22589e-39
3.85885e-39
3.29604e-39
3.29684e-39
3.55793e-39
3.94865e-39
4.24715e-39
4.4615e-39
4.9845e-39
5.94354e-39
7.46716e-39
9.93801e-39
1.38968e-38
2.02466e-38
2.99339e-38
4.42663e-38
6.30679e-38
8.54209e-38
1.07825e-37
1.25941e-37
1.34849e-37
1.31309e-37
1.17436e-37
9.77281e-38
7.7531e-38
5.94479e-38
4.39405e-38
3.20643e-38
2.2773e-38
1.68245e-38
1.28779e-38
1.10614e-38
1.01842e-38
9.47998e-39
8.84455e-39
8.68992e-39
8.60345e-39
8.82061e-39
8.91264e-39
9.4473e-39
9.87277e-39
1.09334e-38
1.18284e-38
1.35378e-38
1.49958e-38
1.76375e-38
1.99199e-38
2.3947e-38
2.7519e-38
3.36587e-38
3.92936e-38
4.87334e-38
5.74293e-38
7.2777e-38
8.76916e-38
1.14629e-37
1.42111e-37
1.93369e-37
2.47963e-37
3.5428e-37
4.82644e-37
7.65095e-37
1.19955e-36
2.33894e-36
5.07809e-36
1.72244e-35
7.5646e-35
4.91112e-34
4.22459e-33
5.54864e-32
8.84429e-31
1.49008e-29
1.97882e-28
1.76062e-27
6.89249e-27
5.90939e-27
1.23531e-29
1.11617e-37
5.284e-40
5.00925e-42
3.31465e-42
1.87173e-42
1.12919e-42
9.43413e-43
9.09762e-43
1.09865e-42
1.35182e-42
1.63405e-42
1.87885e-42
2.3364e-42
2.65875e-42
2.93549e-42
3.29713e-42
2.96608e-42
2.29783e-42
1.88402e-42
1.93232e-42
1.87575e-42
1.9785e-42
2.31227e-42
2.758e-42
3.35607e-42
2.84834e-42
2.85299e-42
3.08832e-42
3.42557e-42
3.65413e-42
3.77194e-42
4.11777e-42
4.75764e-42
5.72664e-42
7.22433e-42
9.52946e-42
1.31446e-41
1.86273e-41
2.68708e-41
3.7802e-41
5.10068e-41
6.44587e-41
7.55645e-41
8.12967e-41
7.9455e-41
7.12667e-41
5.93491e-41
4.70301e-41
3.58844e-41
2.62306e-41
1.8815e-41
1.2348e-41
7.4934e-42
5.34879e-42
4.3724e-42
3.85016e-42
3.48572e-42
3.18664e-42
3.0936e-42
3.03931e-42
3.12377e-42
3.17245e-42
3.4074e-42
3.61761e-42
4.0915e-42
4.53646e-42
5.33833e-42
6.10649e-42
7.4312e-42
8.70428e-42
1.08738e-41
1.30498e-41
1.6644e-41
2.03863e-41
2.64504e-41
3.29053e-41
4.37483e-41
5.58921e-41
7.70902e-41
1.02363e-40
1.48391e-40
2.06985e-40
3.20786e-40
4.88028e-40
8.71e-40
1.61538e-39
3.89739e-39
1.13656e-38
4.91359e-38
2.56238e-37
1.99067e-36
2.14053e-35
3.48527e-34
6.71703e-33
1.28199e-31
1.85533e-30
1.70887e-29
6.56875e-29
4.55173e-29
3.49037e-32
1.77089e-40
1.19827e-42
4.9494e-45
2.99233e-45
1.64133e-45
9.61578e-46
7.90102e-46
7.58592e-46
9.24037e-46
1.1508e-45
1.4074e-45
1.63073e-45
2.03733e-45
2.32131e-45
2.56177e-45
2.87097e-45
2.57098e-45
1.97048e-45
1.59129e-45
1.6249e-45
1.5678e-45
1.65882e-45
1.96373e-45
2.37621e-45
2.92891e-45
2.47048e-45
2.47483e-45
2.68317e-45
2.9718e-45
3.14516e-45
3.19717e-45
3.42383e-45
3.85777e-45
4.48839e-45
5.41709e-45
6.77781e-45
8.83763e-45
1.19021e-44
1.65529e-44
2.27227e-44
3.02349e-44
3.79469e-44
4.43852e-44
4.77934e-44
4.67666e-44
4.20125e-44
3.49797e-44
2.76771e-44
2.10229e-44
1.52103e-44
1.07726e-44
6.93813e-45
3.94825e-45
2.25827e-45
1.7223e-45
1.43659e-45
1.2594e-45
1.12598e-45
1.07875e-45
1.05231e-45
1.08313e-45
1.1085e-45
1.20709e-45
1.30608e-45
1.50858e-45
1.71946e-45
2.08392e-45
2.46727e-45
3.1095e-45
3.79692e-45
4.92785e-45
6.20248e-45
8.25915e-45
1.06452e-44
1.45059e-44
1.90984e-44
2.68089e-44
3.64933e-44
5.34197e-44
7.64389e-44
1.19242e-43
1.82696e-43
3.11841e-43
5.39185e-43
1.11234e-42
2.54418e-42
7.71687e-42
2.85202e-41
1.4192e-40
8.72075e-40
8.10914e-39
1.08153e-37
2.13923e-36
4.82104e-35
1.01713e-33
1.57163e-32
1.47633e-31
5.46788e-31
2.96336e-31
7.80907e-35
2.50337e-43
2.65193e-45
5.45144e-48
2.70349e-48
1.44195e-48
8.21446e-49
6.64036e-49
6.34782e-49
7.79643e-49
9.8252e-49
1.21565e-48
1.41985e-48
1.78257e-48
2.03456e-48
2.24566e-48
2.51237e-48
2.24306e-48
1.70591e-48
1.3615e-48
1.38503e-48
1.32926e-48
1.4091e-48
1.68438e-48
2.06039e-48
2.56354e-48
2.14963e-48
2.15145e-48
2.33312e-48
2.57789e-48
2.70704e-48
2.71361e-48
2.85725e-48
3.15219e-48
3.56738e-48
4.15295e-48
4.96718e-48
6.14687e-48
7.84925e-48
1.04455e-47
1.38539e-47
1.80003e-47
2.22485e-47
2.57954e-47
2.76749e-47
2.70307e-47
2.4277e-47
2.0181e-47
1.59319e-47
1.20489e-47
8.63278e-48
6.04546e-48
3.84118e-48
2.16072e-48
1.15161e-48
6.96243e-49
5.43279e-49
4.56907e-49
3.98779e-49
3.76263e-49
3.63769e-49
3.75222e-49
3.87371e-49
4.26916e-49
4.7136e-49
5.56155e-49
6.53077e-49
8.15402e-49
1.00105e-48
1.3072e-48
1.66512e-48
2.25162e-48
2.97056e-48
4.14466e-48
5.63336e-48
8.08115e-48
1.13118e-47
1.68125e-47
2.4526e-47
3.83941e-47
5.96534e-47
1.0116e-46
1.72202e-46
3.29174e-46
6.62597e-46
1.63388e-45
4.55474e-45
1.7027e-44
7.20128e-44
4.09659e-43
2.95884e-42
3.28455e-41
5.36039e-40
1.25738e-38
3.22418e-37
7.37326e-36
1.19622e-34
1.13095e-33
3.96532e-33
1.6273e-33
1.36621e-37
3.19087e-46
5.58002e-48
7.24711e-51
2.4459e-51
1.26961e-51
7.0417e-52
5.60264e-52
5.33306e-52
6.60269e-52
8.41818e-52
1.0537e-51
1.24082e-51
1.56567e-51
1.79068e-51
1.9776e-51
2.20935e-51
1.96856e-51
1.48871e-51
1.17713e-51
1.19351e-51
1.14013e-51
1.20987e-51
1.4567e-51
1.79616e-51
2.24941e-51
1.87578e-51
1.87409e-51
2.03048e-51
2.2362e-51
2.32986e-51
2.30522e-51
2.38998e-51
2.58809e-51
2.86093e-51
3.23237e-51
3.72306e-51
4.4009e-51
5.3418e-51
6.78317e-51
8.63469e-51
1.08639e-50
1.31166e-50
1.49712e-50
1.59239e-50
1.54704e-50
1.38603e-50
1.14825e-50
9.0348e-51
6.80251e-51
4.82748e-51
3.34567e-51
2.10019e-51
1.17561e-51
6.2057e-52
3.40665e-52
2.13248e-52
1.69714e-52
1.43688e-52
1.33135e-52
1.27407e-52
1.31528e-52
1.36758e-52
1.52471e-52
1.71967e-52
2.07114e-52
2.50161e-52
3.21679e-52
4.10194e-52
5.5442e-52
7.38743e-52
1.04104e-51
1.44383e-51
2.10952e-51
3.03716e-51