/*--------------------------------*- C++ -*----------------------------------*\
| =========                 |                                                 |
| \\      /  F ield         | OpenFOAM: The Open Source CFD Toolbox           |
|  \\    /   O peration     | Version:  2.4.0                                 |
|   \\  /    A nd           | Web:      www.OpenFOAM.org                      |
|    \\/     M anipulation  |                                                 |
\*---------------------------------------------------------------------------*/
FoamFile
{
    version     2.0;
    format      ascii;
    class       volVectorField;
    location    "0.068";
    object      U;
}
// * * * * * * * * * * * * * * * * * * * * * * * * * * * * * * * * * * * * * //

dimensions      [0 1 -1 0 0 0 0];

internalField   nonuniform List<vector> 
57600
(
(-0.00158371 0.000116126 0)
(-0.00366779 4.64063e-05 0)
(-0.00700028 5.99913e-05 0)
(-0.0108255 7.26132e-05 0)
(-0.0147032 6.6703e-05 0)
(-0.0173162 2.26142e-05 0)
(-0.0170799 -5.62905e-05 0)
(-0.0131221 -0.000161186 0)
(-0.00514048 -0.000293919 0)
(0.00637532 -0.000422825 0)
(0.0198759 -0.000505361 0)
(0.0334533 -0.000519768 0)
(0.0455223 -0.000464272 0)
(0.0549927 -0.00034409 0)
(0.0611267 -0.00016234 0)
(0.0635298 6.07962e-05 0)
(0.0623456 0.000288875 0)
(0.058266 0.000476866 0)
(0.0522982 0.000603281 0)
(0.0454392 0.000667482 0)
(0.0384626 0.000681024 0)
(0.0318695 0.000658251 0)
(0.0259294 0.00061269 0)
(0.0207367 0.000556228 0)
(0.0162763 0.000498959 0)
(0.0124657 0.000448844 0)
(0.00919172 0.000412 0)
(0.00633738 0.00039079 0)
(0.00380487 0.000383285 0)
(0.0015255 0.000384691 0)
(-0.00194537 0.000447543 0)
(-0.00684501 0.000379829 0)
(-0.0123233 0.000478854 0)
(-0.0187085 0.000583893 0)
(-0.0251725 0.000538021 0)
(-0.0294622 0.000174216 0)
(-0.0288924 -0.000519276 0)
(-0.0219853 -0.0014633 0)
(-0.00868647 -0.00252806 0)
(0.00949291 -0.00343918 0)
(0.0299943 -0.00398802 0)
(0.0503374 -0.00411072 0)
(0.0686822 -0.0038254 0)
(0.083818 -0.00314166 0)
(0.0949018 -0.0020489 0)
(0.101417 -0.000622919 0)
(0.103338 0.000953142 0)
(0.101152 0.00246256 0)
(0.0957087 0.00373956 0)
(0.0879906 0.0047114 0)
(0.0789048 0.00538539 0)
(0.0691624 0.00581084 0)
(0.0592636 0.00604971 0)
(0.0495397 0.00615992 0)
(0.0402032 0.00619303 0)
(0.0313944 0.0061901 0)
(0.0231961 0.00618005 0)
(0.0156625 0.00617548 0)
(0.008815 0.00617573 0)
(0.00263899 0.00617444 0)
(-0.00198043 0.000802385 0)
(-0.00705714 0.000753255 0)
(-0.0127427 0.000960076 0)
(-0.0194398 0.00118812 0)
(-0.0263502 0.0011323 0)
(-0.0311809 0.00044634 0)
(-0.0311217 -0.00091861 0)
(-0.0246119 -0.00278566 0)
(-0.0115631 -0.00486623 0)
(0.00648833 -0.00663473 0)
(0.0269288 -0.0077164 0)
(0.0472424 -0.00801013 0)
(0.0655713 -0.00755993 0)
(0.0807084 -0.00638821 0)
(0.0918016 -0.00446699 0)
(0.0983173 -0.00190927 0)
(0.100242 0.000982995 0)
(0.0981128 0.00384438 0)
(0.0928256 0.00637906 0)
(0.0853777 0.00843803 0)
(0.0766545 0.0100122 0)
(0.0673267 0.0111757 0)
(0.0578444 0.0120267 0)
(0.0484902 0.0126504 0)
(0.0394428 0.0131095 0)
(0.0308358 0.0134419 0)
(0.0227692 0.0136647 0)
(0.0153272 0.0137834 0)
(0.00855788 0.0138123 0)
(0.00246126 0.0137795 0)
(-0.00198826 0.00116037 0)
(-0.00705952 0.00113099 0)
(-0.0127571 0.00144895 0)
(-0.0194996 0.00180766 0)
(-0.0265199 0.00175298 0)
(-0.031523 0.000751925 0)
(-0.03163 -0.00128571 0)
(-0.0252477 -0.00408337 0)
(-0.012234 -0.0071954 0)
(0.00589377 -0.00983456 0)
(0.0264774 -0.0114564 0)
(0.0469589 -0.0119231 0)
(0.0654635 -0.0113086 0)
(0.080802 -0.00964984 0)
(0.0921061 -0.00688653 0)
(0.0987538 -0.00316003 0)
(0.100642 0.00110018 0)
(0.0982675 0.00535818 0)
(0.0925611 0.00917055 0)
(0.0846041 0.0123035 0)
(0.0753762 0.0147336 0)
(0.0656246 0.0165653 0)
(0.0558546 0.0179415 0)
(0.0463786 0.0189843 0)
(0.0373825 0.0197755 0)
(0.0289827 0.0203555 0)
(0.0212414 0.0207375 0)
(0.0141892 0.020929 0)
(0.00782173 0.0209603 0)
(0.0021069 0.020884 0)
(-0.00199611 0.00152022 0)
(-0.00703725 0.00150833 0)
(-0.0127222 0.00193806 0)
(-0.0194794 0.00243148 0)
(-0.0265788 0.00238557 0)
(-0.0317309 0.00107403 0)
(-0.0319869 -0.00163688 0)
(-0.0257343 -0.00536964 0)
(-0.0127575 -0.00952988 0)
(0.00547241 -0.0130573 0)
(0.0262506 -0.0152315 0)
(0.0469714 -0.0158791 0)
(0.0657421 -0.0151117 0)
(0.0814159 -0.0129878 0)
(0.0931304 -0.00939387 0)
(0.100164 -0.00447811 0)
(0.102304 0.0012037 0)
(0.0999824 0.00693347 0)
(0.0941345 0.0120971 0)
(0.0859023 0.0163569 0)
(0.0763425 0.0196663 0)
(0.0662608 0.0221602 0)
(0.0561963 0.0240277 0)
(0.0464788 0.0254303 0)
(0.0373021 0.0264746 0)
(0.0287826 0.0272155 0)
(0.0209735 0.0276785 0)
(0.0138933 0.0278862 0)
(0.0075283 0.027885 0)
(0.00184235 0.0277424 0)
(-0.00200645 0.00188244 0)
(-0.00700702 0.0018846 0)
(-0.0126737 0.00242646 0)
(-0.0194458 0.00305914 0)
(-0.0266408 0.00303121 0)
(-0.0319806 0.00141513 0)
(-0.0324253 -0.00196885 0)
(-0.0263423 -0.00664047 0)
(-0.0134181 -0.01187 0)
(0.00494026 -0.0163089 0)
(0.0259648 -0.019052 0)
(0.046989 -0.0198915 0)
(0.0660926 -0.0189874 0)
(0.0821907 -0.016433 0)
(0.0944435 -0.0120335 0)
(0.102 -0.0059165 0)
(0.104505 0.0012378 0)
(0.102307 0.00851558 0)
(0.0963473 0.0151061 0)
(0.0878493 0.0205449 0)
(0.0779727 0.0247561 0)
(0.0675932 0.0279143 0)
(0.0572729 0.0302663 0)
(0.0473347 0.0320208 0)
(0.037953 0.0333135 0)
(0.0292258 0.0342149 0)
(0.0211989 0.0347595 0)
(0.0138995 0.0349756 0)
(0.00733951 0.0349159 0)
(0.00151018 0.0346615 0)
(-0.00201986 0.00224775 0)
(-0.00696957 0.00225943 0)
(-0.0126136 0.00291388 0)
(-0.0194024 0.0036914 0)
(-0.0267128 0.00369308 0)
(-0.0322841 0.00178009 0)
(-0.0329601 -0.00227672 0)
(-0.0270882 -0.00789138 0)
(-0.0142321 -0.0142171 0)
(0.00428468 -0.0195963 0)
(0.0256097 -0.0229292 0)
(0.0470029 -0.0239737 0)
(0.0665021 -0.0229509 0)
(0.083108 -0.0200127 0)
(0.096031 -0.014844 0)
(0.104254 -0.00751364 0)
(0.107236 0.00117454 0)
(0.105214 0.0100962 0)
(0.0991212 0.0182095 0)
(0.0902881 0.024889 0)
(0.0800148 0.0300217 0)
(0.0692743 0.033836 0)
(0.0586587 0.0366587 0)
(0.048475 0.0387623 0)
(0.0388638 0.0403202 0)
(0.0298883 0.0414197 0)
(0.0215717 0.0420928 0)
(0.0139459 0.0423496 0)
(0.00705919 0.0422203 0)
(0.000964819 0.0417834 0)
(-0.00203694 0.00261699 0)
(-0.00692475 0.00263246 0)
(-0.0125416 0.00340003 0)
(-0.0193486 0.00432902 0)
(-0.0267935 0.00437445 0)
(-0.032642 0.00217394 0)
(-0.0335915 -0.00255556 0)
(-0.0279747 -0.00911747 0)
(-0.015205 -0.0165723 0)
(0.00350133 -0.0229269 0)
(0.0251817 -0.0268743 0)
(0.0470112 -0.0281384 0)
(0.0669629 -0.0270155 0)
(0.0841531 -0.023754 0)
(0.097888 -0.0178674 0)
(0.106937 -0.00931226 0)
(0.110528 0.000982723 0)
(0.108743 0.0116697 0)
(0.102491 0.0214314 0)
(0.0932299 0.0294328 0)
(0.0824505 0.0355086 0)
(0.071261 0.0399614 0)
(0.0602939 0.0432294 0)
(0.0498337 0.0456716 0)
(0.0399758 0.0475131 0)
(0.0307332 0.048865 0)
(0.0220807 0.0497541 0)
(0.0140201 0.0501456 0)
(0.00661896 0.0499917 0)
(2.54713e-05 0.0492953 0)
(-0.00205842 0.00299114 0)
(-0.00687231 0.0030033 0)
(-0.0124574 0.00388455 0)
(-0.0192835 0.00497267 0)
(-0.0268813 0.00507861 0)
(-0.0330543 0.0026019 0)
(-0.0343188 -0.00280053 0)
(-0.0290045 -0.0103132 0)
(-0.0163431 -0.0189368 0)
(0.00258574 -0.0263069 0)
(0.0246765 -0.0308989 0)
(0.0470122 -0.0323985 0)
(0.0674661 -0.0311917 0)
(0.0853062 -0.0276851 0)
(0.100007 -0.0211517 0)
(0.110064 -0.0113602 0)
(0.114417 0.000624146 0)
(0.112952 0.013228 0)
(0.10651 0.024803 0)
(0.0967004 0.0342327 0)
(0.0852757 0.0412745 0)
(0.0735325 0.0463326 0)
(0.0621577 0.0500026 0)
(0.0514019 0.052758 0)
(0.0413059 0.0548908 0)
(0.0318213 0.0565549 0)
(0.0228409 0.0577934 0)
(0.0142662 0.0585298 0)
(0.00608302 0.0585813 0)
(-0.00164147 0.0577221 0)
(-0.00208516 0.00337142 0)
(-0.00681193 0.00337153 0)
(-0.0123606 0.00436708 0)
(-0.019206 0.00562301 0)
(-0.0269739 0.00580889 0)
(-0.0335214 0.00306934 0)
(-0.0351415 -0.0030068 0)
(-0.0301806 -0.0114723 0)
(-0.0176545 -0.0213117 0)
(0.00153287 -0.0297467 0)
(0.0240892 -0.0350152 0)
(0.0470047 -0.0367672 0)
(0.0680031 -0.0354864 0)
(0.0865418 -0.031835 0)
(0.102378 -0.0247582 0)
(0.113648 -0.013709 0)
(0.118948 5.19116e-05 0)
(0.117912 0.0147593 0)
(0.111244 0.0283639 0)
(0.100733 0.0393612 0)
(0.0884811 0.0473928 0)
(0.076057 0.0529969 0)
(0.0642204 0.0569974 0)
(0.053165 0.0600176 0)
(0.0428679 0.0624231 0)
(0.0332286 0.0644326 0)
(0.0240524 0.0661701 0)
(0.0150479 0.067609 0)
(0.00590272 0.0683797 0)
(-0.00251596 0.0671787 0)
(-0.00211818 0.00375924 0)
(-0.00674332 0.00373668 0)
(-0.0122509 0.00484716 0)
(-0.019115 0.00628058 0)
(-0.0270687 0.00656861 0)
(-0.0340437 0.00358182 0)
(-0.0360582 -0.00316967 0)
(-0.0315067 -0.0125877 0)
(-0.0191485 -0.023698 0)
(0.000336642 -0.0332543 0)
(0.0234135 -0.0392357 0)
(0.0469892 -0.0412583 0)
(0.0685651 -0.039901 0)
(0.0878264 -0.0362322 0)
(0.104987 -0.0287787 0)
(0.117703 -0.0164077 0)
(0.124166 -0.000793741 0)
(0.123713 0.0162445 0)
(0.116787 0.0321654 0)
(0.105368 0.0449138 0)
(0.0920464 0.0539591 0)
(0.0787808 0.0600066 0)
(0.0664344 0.0642258 0)
(0.0550885 0.0674341 0)
(0.0446423 0.0700518 0)
(0.0349863 0.0723592 0)
(0.025922 0.0746294 0)
(0.0170454 0.077149 0)
(0.00749411 0.0798849 0)
(-0.00238015 0.0754199 0)
(-0.00215866 0.00415637 0)
(-0.00666607 0.00409823 0)
(-0.0121277 0.00532426 0)
(-0.0190092 0.00694581 0)
(-0.0271626 0.00736112 0)
(-0.034622 0.00414518 0)
(-0.0370673 -0.00328471 0)
(-0.0329864 -0.0136509 0)
(-0.0208364 -0.0260962 0)
(-0.00100822 -0.0368374 0)
(0.0226416 -0.0435733 0)
(0.0469677 -0.0458869 0)
(0.0691453 -0.0444291 0)
(0.0891161 -0.0408982 0)
(0.107834 -0.033376 0)
(0.122223 -0.0194837 0)
(0.130104 -0.00199796 0)
(0.130464 0.0176524 0)
(0.123261 0.0362777 0)
(0.110664 0.0510158 0)
(0.0959332 0.0611066 0)
(0.0816159 0.0674172 0)
(0.0687336 0.0716874 0)
(0.0571202 0.0749885 0)
(0.0465582 0.0777191 0)
(0.0369914 0.0801545 0)
(0.028375 0.0826671 0)
(0.0206093 0.0858322 0)
(0.0134987 0.0901399 0)
(0.00640358 0.0864142 0)
(-0.00220797 0.00456495 0)
(-0.00657977 0.00445565 0)
(-0.0119908 0.00579779 0)
(-0.0188874 0.0076191 0)
(-0.0272518 0.00818973 0)
(-0.0352574 0.00476562 0)
(-0.0381663 -0.00334799 0)
(-0.0346241 -0.0146523 0)
(-0.022732 -0.0285071 0)
(-0.00250586 -0.0405061 0)
(0.0217635 -0.0480419 0)
(0.0469447 -0.0506708 0)
(0.0697417 -0.049055 0)
(0.0903468 -0.0458284 0)
(0.110997 -0.0388433 0)
(0.127122 -0.0229125 0)
(0.13675 -0.00369138 0)
(0.138289 0.0189305 0)
(0.130841 0.0408094 0)
(0.116703 0.0578262 0)
(0.100073 0.0690351 0)
(0.0844131 0.0752801 0)
(0.0710369 0.0793553 0)
(0.059206 0.0826684 0)
(0.0485054 0.0854177 0)
(0.0389835 0.0877415 0)
(0.0308144 0.0899493 0)
(0.024282 0.0924955 0)
(0.0199208 0.0956329 0)
(0.0176431 0.0924041 0)
(-0.0022677 0.0049876 0)
(-0.0064839 0.00480826 0)
(-0.0118395 0.00626699 0)
(-0.018748 0.00830071 0)
(-0.027332 0.00905763 0)
(-0.0359521 0.00544972 0)
(-0.0393517 -0.00335621 0)
(-0.0364242 -0.0155808 0)
(-0.0248516 -0.0309306 0)
(-0.0041581 -0.0442691 0)
(0.0207659 -0.0526554 0)
(0.0469277 -0.0556313 0)
(0.0703602 -0.0537504 0)
(0.0913971 -0.0509423 0)
(0.114857 -0.0455956 0)
(0.132095 -0.0265962 0)
(0.144013 -0.0061273 0)
(0.147272 0.019982 0)
(0.13976 0.0459724 0)
(0.123628 0.0655198 0)
(0.104345 0.0780833 0)
(0.0869053 0.0836091 0)
(0.0732701 0.087136 0)
(0.0613313 0.0904748 0)
(0.0503888 0.0932287 0)
(0.0406765 0.0952678 0)
(0.0325289 0.0967579 0)
(0.0263203 0.097871 0)
(0.0225637 0.0984358 0)
(0.0213814 0.0937926 0)
(-0.00233969 0.00542752 0)
(-0.00637792 0.00515539 0)
(-0.0116734 0.006731 0)
(-0.0185897 0.00899091 0)
(-0.0273979 0.00996787 0)
(-0.0367091 0.00620464 0)
(-0.0406188 -0.00330728 0)
(-0.0383918 -0.0164235 0)
(-0.0272156 -0.033366 0)
(-0.00596317 -0.0481393 0)
(0.0196306 -0.0574284 0)
(0.046928 -0.0607955 0)
(0.0710232 -0.0584765 0)
(0.0919535 -0.0560405 0)
(0.11947 -0.0537798 0)
(0.135785 -0.0302622 0)
(0.151817 -0.00964386 0)
(0.157597 0.0205422 0)
(0.150284 0.0522969 0)
(0.13178 0.0741735 0)
(0.108515 0.0889369 0)
(0.0885761 0.0922734 0)
(0.0754346 0.0947951 0)
(0.0635896 0.0984341 0)
(0.0521938 0.101333 0)
(0.0419285 0.103066 0)
(0.0332308 0.103769 0)
(0.0263222 0.103504 0)
(0.0213412 0.101906 0)
(0.0186221 0.0944377 0)
(-0.00242603 0.0058887 0)
(-0.0062612 0.00549624 0)
(-0.011492 0.00718876 0)
(-0.0184111 0.00968995 0)
(-0.0274431 0.0109232 0)
(-0.0375328 0.00703819 0)
(-0.0419612 -0.00320074 0)
(-0.0405326 -0.0171655 0)
(-0.0298493 -0.0358109 0)
(-0.00791004 -0.0521338 0)
(0.0183319 -0.0623761 0)
(0.0469613 -0.0661972 0)
(0.0717817 -0.0631902 0)
(0.0913248 -0.0609511 0)
(0.117674 -0.0630554 0)
(0.139277 -0.036281 0)
(0.15626 -0.0132075 0)
(0.172798 0.0201321 0)
(0.162293 0.0611896 0)
(0.142168 0.0832696 0)
(0.112043 0.103213 0)
(0.0883423 0.100616 0)
(0.0778328 0.101837 0)
(0.0662639 0.106663 0)
(0.0539932 0.110011 0)
(0.0427602 0.111508 0)
(0.0330665 0.111584 0)
(0.0249307 0.110457 0)
(0.0180942 0.107904 0)
(0.0123451 0.0993184 0)
(-0.00252914 0.00637603 0)
(-0.00613302 0.00582993 0)
(-0.0112947 0.00763897 0)
(-0.018211 0.0103981 0)
(-0.0274602 0.011926 0)
(-0.0384295 0.00795887 0)
(-0.04337 -0.00303862 0)
(-0.0428529 -0.0177904 0)
(-0.0327842 -0.0382596 0)
(-0.00997309 -0.0562733 0)
(0.016832 -0.0675145 0)
(0.0470487 -0.0718754 0)
(0.0727303 -0.0678591 0)
(0.0878119 -0.0657086 0)
(0.124282 -0.0765461 0)
(0.157671 -0.0525174 0)
(0.169107 -0.0230992 0)
(0.192549 0.024634 0)
(0.172841 0.0725268 0)
(0.157619 0.0906736 0)
(0.118891 0.125047 0)
(0.0873618 0.106685 0)
(0.0817002 0.107531 0)
(0.0699153 0.115596 0)
(0.0558802 0.119657 0)
(0.0432389 0.120882 0)
(0.0323805 0.1205 0)
(0.0228863 0.118978 0)
(0.0145415 0.116012 0)
(0.00767136 0.106951 0)
(-0.00265175 0.00689558 0)
(-0.0059926 0.00615547 0)
(-0.011081 0.00807997 0)
(-0.0179882 0.0111158 0)
(-0.02744 0.0129777 0)
(-0.0394083 0.00897613 0)
(-0.0448332 -0.00282636 0)
(-0.0453608 -0.0182801 0)
(-0.0360609 -0.0407007 0)
(-0.0121008 -0.0605831 0)
(0.0150766 -0.0728656 0)
(0.0472185 -0.0778701 0)
(0.0740206 -0.072487 0)
(0.0806303 -0.0718647 0)
(0.129453 -0.0822241 0)
(0.155019 -0.0610341 0)
(0.198563 -0.0406017 0)
(0.20227 0.039218 0)
(0.191122 0.0746423 0)
(0.188289 0.0969788 0)
(0.143443 0.153271 0)
(0.106034 0.114364 0)
(0.0921949 0.113567 0)
(0.0752603 0.126497 0)
(0.0577461 0.130799 0)
(0.0435195 0.131379 0)
(0.0315772 0.130552 0)
(0.020961 0.128827 0)
(0.0111894 0.125834 0)
(0.00186954 0.117941 0)
(-0.00279697 0.00745493 0)
(-0.00583905 0.00647178 0)
(-0.0108506 0.00850966 0)
(-0.0177418 0.0118439 0)
(-0.0273716 0.0140785 0)
(-0.0404825 0.0101004 0)
(-0.046335 -0.00257407 0)
(-0.0480666 -0.0186154 0)
(-0.0397314 -0.0431111 0)
(-0.0141878 -0.0650928 0)
(0.0129873 -0.078466 0)
(0.0475103 -0.084207 0)
(0.0757783 -0.0771488 0)
(0.0750766 -0.0756806 0)
(0.13104 -0.0863547 0)
(0.154492 -0.0499571 0)
(0.229075 -0.0564825 0)
(0.227681 0.0473247 0)
(0.216979 0.0673682 0)
(0.215473 0.106603 0)
(0.179 0.183139 0)
(0.142025 0.123142 0)
(0.114811 0.129004 0)
(0.081887 0.142137 0)
(0.0589629 0.143984 0)
(0.0430325 0.14255 0)
(0.0305235 0.141516 0)
(0.0188928 0.139927 0)
(0.00821988 0.137374 0)
(-0.00219951 0.131735 0)
(-0.00296828 0.00806347 0)
(-0.00567143 0.00677764 0)
(-0.0106029 0.00892523 0)
(-0.0174715 0.0125838 0)
(-0.0272417 0.0152269 0)
(-0.0416705 0.0113431 0)
(-0.0478538 -0.0022976 0)
(-0.0509852 -0.0187767 0)
(-0.0438623 -0.0454472 0)
(-0.016044 -0.0698331 0)
(0.0104539 -0.084391 0)
(0.0479753 -0.0908717 0)
(0.0777922 -0.0821792 0)
(0.0669835 -0.066596 0)
(0.179385 -0.117969 0)
(0.169705 -0.0480594 0)
(0.252612 -0.0761548 0)
(0.227451 0.0485559 0)
(0.251025 0.0682841 0)
(0.194616 0.109083 0)
(0.198468 0.200019 0)
(0.172677 0.135193 0)
(0.137405 0.15799 0)
(0.0869685 0.164876 0)
(0.0578259 0.159475 0)
(0.0404668 0.154305 0)
(0.0285158 0.152417 0)
(0.0177317 0.1517 0)
(0.00689829 0.149295 0)
(-0.00310575 0.144935 0)
(-0.00316959 0.00873297 0)
(-0.00548866 0.00707176 0)
(-0.0103376 0.00932294 0)
(-0.0171773 0.0133379 0)
(-0.0270343 0.0164181 0)
(-0.0429987 0.0127174 0)
(-0.0493617 -0.00202005 0)
(-0.0541388 -0.0187452 0)
(-0.048539 -0.0476268 0)
(-0.0173288 -0.0748226 0)
(0.00733556 -0.0908033 0)
(0.0486603 -0.097754 0)
(0.0786194 -0.0884933 0)
(0.0400582 -0.0477305 0)
(0.196354 -0.134456 0)
(0.210524 -0.0916172 0)
(0.261907 -0.0964777 0)
(0.272397 0.0387901 0)
(0.269104 0.0794842 0)
(0.204626 0.144762 0)
(0.188345 0.18579 0)
(0.213547 0.158417 0)
(0.133992 0.198087 0)
(0.0821929 0.192579 0)
(0.0529164 0.17649 0)
(0.0343056 0.166114 0)
(0.0256389 0.160498 0)
(0.0182136 0.162352 0)
(0.00789244 0.161228 0)
(-0.00274375 0.157675 0)
(-0.00340521 0.0094783 0)
(-0.0052896 0.00735275 0)
(-0.0100544 0.00969757 0)
(-0.0168603 0.0141095 0)
(-0.02673 0.0176431 0)
(-0.0445043 0.0142387 0)
(-0.050822 -0.00177146 0)
(-0.0575621 -0.0185039 0)
(-0.0538667 -0.0495005 0)
(-0.0174434 -0.0800566 0)
(0.00349061 -0.0980297 0)
(0.0495443 -0.104505 0)
(0.0753451 -0.0989573 0)
(0.0893862 -0.0576102 0)
(0.219344 -0.122188 0)
(0.261571 -0.130729 0)
(0.166174 -0.0745305 0)
(0.137162 0.0301048 0)
(0.146236 0.0850433 0)
(0.203419 0.165258 0)
(0.182178 0.17439 0)
(0.141695 0.1897 0)
(0.0966376 0.228628 0)
(0.0710078 0.215163 0)
(0.0452659 0.192567 0)
(0.0271718 0.178086 0)
(0.0184335 0.164676 0)
(0.0152322 0.170033 0)
(0.00783804 0.173303 0)
(-0.00223625 0.170766 0)
(-0.00367996 0.0103182 0)
(-0.00507305 0.00761914 0)
(-0.00975328 0.0100418 0)
(-0.016523 0.0149037 0)
(-0.026306 0.0188859 0)
(-0.0462387 0.0159275 0)
(-0.0521866 -0.00159142 0)
(-0.0613088 -0.0180379 0)
(-0.0599664 -0.0508 0)
(-0.0153707 -0.0855082 0)
(-0.00120292 -0.106761 0)
(0.0503106 -0.110177 0)
(0.0850322 -0.123542 0)
(0.175479 -0.10397 0)
(0.210262 -0.0916771 0)
(0.191419 -0.109565 0)
(0.0133751 -0.00783185 0)
(0.100568 0.0121644 0)
(0.0645292 0.0652766 0)
(0.133038 0.14586 0)
(0.115586 0.193552 0)
(0.0567115 0.202803 0)
(0.0511194 0.233711 0)
(0.0421146 0.226474 0)
(0.0337247 0.209404 0)
(0.0205945 0.192509 0)
(0.00663525 0.169002 0)
(0.00429619 0.171461 0)
(0.00320714 0.181455 0)
(-0.00274286 0.181831 0)
(-0.00399907 0.0112766 0)
(-0.00483781 0.00786949 0)
(-0.00943422 0.0103458 0)
(-0.0161697 0.0157261 0)
(-0.0257358 0.0201214 0)
(-0.0482719 0.0178131 0)
(-0.0533935 -0.00152988 0)
(-0.0654644 -0.017337 0)
(-0.066962 -0.0510584 0)
(-0.00957851 -0.0911661 0)
(-0.00687556 -0.118174 0)
(0.0491125 -0.114243 0)
(0.166301 -0.183659 0)
(0.263911 -0.175654 0)
(0.166366 -0.0783145 0)
(-0.0469391 -0.0298488 0)
(0.523028 -0.133949 0)
(0.657683 0.059085 0)
(0.455521 0.123532 0)
(0.302105 0.156925 0)
(0.140498 0.248859 0)
(0.0340794 0.221851 0)
(0.0239895 0.225291 0)
(0.0204127 0.220812 0)
(0.0195269 0.217422 0)
(0.0121137 0.200583 0)
(0.00478244 0.177853 0)
(0.00118242 0.172088 0)
(-0.000633508 0.183331 0)
(-0.00265225 0.186869 0)
(-0.00436822 0.0123843 0)
(-0.00458277 0.0081024 0)
(-0.00909735 0.0105975 0)
(-0.0158075 0.0165816 0)
(-0.0249911 0.0213111 0)
(-0.0506964 0.0199394 0)
(-0.0543616 -0.0016555 0)
(-0.0701634 -0.0163995 0)
(-0.0749528 -0.0494857 0)
(0.000217033 -0.0972214 0)
(-0.0139293 -0.134029 0)
(0.042115 -0.124508 0)
(0.233536 -0.254148 0)
(0.30115 -0.216209 0)
(-0.00791917 -0.0411668 0)
(0.344932 -0.179011 0)
(0.422861 -0.125538 0)
(0.387558 0.046819 0)
(0.464991 0.160636 0)
(0.46746 0.200778 0)
(0.394929 0.327931 0)
(0.208811 0.295653 0)
(-0.0030228 0.235158 0)
(-0.0249573 0.193232 0)
(0.00186211 0.176131 0)
(0.0297021 0.196826 0)
(0.0225547 0.194931 0)
(0.0017932 0.179932 0)
(-0.00249758 0.184181 0)
(-0.00133928 0.187672 0)
(-0.00479346 0.013681 0)
(-0.00430702 0.00831665 0)
(-0.00874273 0.0107845 0)
(-0.015448 0.0174698 0)
(-0.0240464 0.0224009 0)
(-0.0536304 0.0223708 0)
(-0.0549797 -0.0020773 0)
(-0.0756209 -0.015239 0)
(-0.0839954 -0.0447884 0)
(-0.0146691 -0.105976 0)
(-0.0294787 -0.158061 0)
(0.0397067 -0.146683 0)
(0.13899 -0.300915 0)
(0.204195 -0.189387 0)
(0.0135981 -0.0608215 0)
(0.613519 -0.243972 0)
(0.116742 -0.0507201 0)
(0.115211 0.0265534 0)
(0.227023 0.116888 0)
(0.3199 0.182974 0)
(0.396595 0.358638 0)
(0.364269 0.408648 0)
(0.2066 0.398967 0)
(0.0289425 0.339678 0)
(-0.187186 0.120112 0)
(-0.029607 0.0413084 0)
(-0.0739099 0.176877 0)
(-0.00331351 0.207547 0)
(-0.0164014 0.175136 0)
(0.00640554 0.194128 0)
(-0.00528151 0.0152178 0)
(-0.00401014 0.00851144 0)
(-0.00836992 0.0108977 0)
(-0.0151085 0.0183783 0)
(-0.0228842 0.0233162 0)
(-0.0572239 0.0251967 0)
(-0.0550799 -0.00298226 0)
(-0.0821925 -0.0138971 0)
(-0.0942057 -0.0347657 0)
(-0.144793 -0.134441 0)
(-0.0929516 -0.202022 0)
(0.0462635 -0.168175 0)
(0.0211076 -0.278797 0)
(-0.0232027 -0.0671757 0)
(0.855114 -0.336501 0)
(0.185092 -0.0977005 0)
(-0.0301254 -0.0136757 0)
(-0.00919775 0.0111633 0)
(0.0748239 0.0680295 0)
(0.155942 0.14405 0)
(0.266276 0.311176 0)
(0.353068 0.425932 0)
(0.336843 0.469863 0)
(0.264971 0.406315 0)
(0.138505 0.264369 0)
(-0.0015712 0.149728 0)
(0.0112354 0.122081 0)
(-0.0541248 0.2015 0)
(0.0124492 0.0675769 0)
(-0.0190208 0.215802 0)
(-0.0058512 0.0170433 0)
(-0.00369282 0.00868662 0)
(-0.00797817 0.0109361 0)
(-0.0148136 0.0192764 0)
(-0.0214967 0.0239511 0)
(-0.0616699 0.0285335 0)
(-0.054386 -0.00473785 0)
(-0.0904777 -0.0124516 0)
(-0.105902 -0.0158855 0)
(-0.235472 -0.195818 0)
(-0.0741269 -0.260599 0)
(0.0352565 -0.190336 0)
(0.0770358 -0.242438 0)
(0.331795 -0.268989 0)
(0.124921 -0.147166 0)
(-0.0487973 -0.046116 0)
(-0.089176 -0.01055 0)
(-0.0629485 -0.00407909 0)
(-0.00318804 0.0341427 0)
(0.0614839 0.110381 0)
(0.149899 0.250116 0)
(0.259392 0.385143 0)
(0.326614 0.47137 0)
(0.323816 0.451698 0)
(0.246208 0.352912 0)
(0.143977 0.247424 0)
(0.0755022 0.185594 0)
(0.0370971 0.174435 0)
(0.0117291 0.162968 0)
(-0.014001 0.177104 0)
(-0.00656882 0.0189075 0)
(-0.00336124 0.00884311 0)
(-0.00756991 0.0109129 0)
(-0.0145913 0.0201143 0)
(-0.019882 0.0241257 0)
(-0.0672301 0.0325221 0)
(-0.0524003 -0.00817318 0)
(-0.101648 -0.0108676 0)
(-0.12157 0.0104259 0)
(-0.24895 -0.20064 0)
(-0.0163054 -0.274491 0)
(-0.00523299 -0.224426 0)
(0.184901 -0.217936 0)
(0.583381 -0.197067 0)
(-0.0690656 -0.145936 0)
(-0.119459 -0.0346848 0)
(-0.115736 -0.0153447 0)
(-0.0995408 -0.0160322 0)
(-0.0582817 0.00892609 0)
(-0.000493069 0.080858 0)
(0.0699688 0.202472 0)
(0.163262 0.329813 0)
(0.248265 0.436948 0)
(0.282568 0.465942 0)
(0.247464 0.413338 0)
(0.176732 0.318291 0)
(0.107375 0.24299 0)
(0.0534852 0.212336 0)
(0.0107351 0.205412 0)
(-0.02684 0.211129 0)
(0.00609026 0.0180733 0)
(-0.00306568 0.00898404 0)
(-0.00717274 0.0108709 0)
(-0.014472 0.0208523 0)
(-0.0180503 0.0235703 0)
(-0.0742725 0.0373189 0)
(-0.0481164 -0.0146236 0)
(-0.119476 -0.00707661 0)
(-0.152958 0.0228184 0)
(-0.151665 -0.169856 0)
(-0.1382 -0.226709 0)
(0.0782058 -0.254857 0)
(-0.124352 -0.166045 0)
(-0.554198 0.0320823 0)
(-0.249272 -0.210241 0)
(-0.126487 -0.0311607 0)
(-0.132794 -0.0168555 0)
(-0.131086 -0.0222943 0)
(-0.109585 -0.0103779 0)
(-0.0615454 0.0548119 0)
(-0.00913251 0.167345 0)
(0.0740663 0.278764 0)
(0.149111 0.396377 0)
(0.190195 0.459567 0)
(0.184955 0.445184 0)
(0.146869 0.370419 0)
(0.094905 0.298334 0)
(0.0443516 0.262743 0)
(-0.000262571 0.253914 0)
(-0.0409998 0.260687 0)
(-0.00056392 0.000389433 0)
(-0.00269284 0.000395338 0)
(-0.00506328 0.000401194 0)
(-0.00769766 0.000408268 0)
(-0.0106347 0.000421056 0)
(-0.0139443 0.000445485 0)
(-0.0177351 0.00048411 0)
(-0.0221318 0.000535121 0)
(-0.027244 0.000590508 0)
(-0.0331032 0.000638036 0)
(-0.0396064 0.000661889 0)
(-0.0464489 0.000645999 0)
(-0.0530691 0.000575025 0)
(-0.0586342 0.000439059 0)
(-0.0621146 0.00024224 0)
(-0.0625198 1.0962e-05 0)
(-0.0592282 -0.000209039 0)
(-0.0522513 -0.000375736 0)
(-0.0421905 -0.000472931 0)
(-0.0299377 -0.000504982 0)
(-0.0166442 -0.000471995 0)
(-0.00384827 -0.00038118 0)
(0.00677286 -0.000260179 0)
(0.013968 -0.000141939 0)
(0.017266 -4.30404e-05 0)
(0.0168479 3.3374e-05 0)
(0.0137969 6.99953e-05 0)
(0.00982527 7.12183e-05 0)
(0.00607419 5.79987e-05 0)
(0.00280107 5.08201e-05 0)
(-0.00311708 0.0061669 0)
(-0.00906281 0.00614682 0)
(-0.0155908 0.00610953 0)
(-0.0227245 0.00605707 0)
(-0.0304676 0.00600094 0)
(-0.0387945 0.00595385 0)
(-0.0476569 0.0059094 0)
(-0.0569516 0.00583406 0)
(-0.0665095 0.00566917 0)
(-0.0760429 0.00534388 0)
(-0.0851114 0.00478783 0)
(-0.0930745 0.00394149 0)
(-0.0990837 0.0027827 0)
(-0.102164 0.00135576 0)
(-0.101386 -0.000205928 0)
(-0.0961011 -0.00169672 0)
(-0.086161 -0.00289475 0)
(-0.0720347 -0.00365904 0)
(-0.0546256 -0.00399582 0)
(-0.0350684 -0.00394868 0)
(-0.0149149 -0.00351549 0)
(0.00371447 -0.00273797 0)
(0.0184447 -0.00176094 0)
(0.0273787 -0.000794922 0)
(0.0298229 -6.70083e-06 0)
(0.0266537 0.000475235 0)
(0.0204509 0.000596098 0)
(0.013858 0.000515211 0)
(0.00813167 0.000391373 0)
(0.00312375 0.000317233 0)
(-0.00320604 0.0137111 0)
(-0.00904033 0.0136116 0)
(-0.0154246 0.0134701 0)
(-0.0223825 0.0132718 0)
(-0.0299193 0.0130063 0)
(-0.0380033 0.0126731 0)
(-0.0465732 0.0122629 0)
(-0.0555185 0.0117384 0)
(-0.0646833 0.0110278 0)
(-0.0738161 0.010037 0)
(-0.0825219 0.00866263 0)
(-0.090203 0.00681563 0)
(-0.0960397 0.00447508 0)
(-0.0990555 0.00173805 0)
(-0.0982816 -0.00115205 0)
(-0.0930086 -0.00384248 0)
(-0.0830543 -0.00596003 0)
(-0.0689068 -0.00727448 0)
(-0.0515036 -0.00781484 0)
(-0.0319784 -0.00765951 0)
(-0.0118909 -0.0067934 0)
(0.00661362 -0.00528055 0)
(0.0211281 -0.00337022 0)
(0.0297166 -0.00146002 0)
(0.0316851 9.77981e-05 0)
(0.0279703 0.00102174 0)
(0.0212855 0.0012214 0)
(0.0143459 0.0010356 0)
(0.00839119 0.00078029 0)
(0.0032205 0.000630849 0)
(-0.00319538 0.0207468 0)
(-0.0086457 0.0205604 0)
(-0.0146054 0.0203165 0)
(-0.0211184 0.0200025 0)
(-0.0282415 0.0195972 0)
(-0.036015 0.0190789 0)
(-0.0444399 0.0184165 0)
(-0.0534363 0.0175532 0)
(-0.0628437 0.0163946 0)
(-0.0723754 0.0148152 0)
(-0.0815777 0.0126719 0)
(-0.0897787 0.00984399 0)
(-0.0960707 0.00631039 0)
(-0.0993932 0.00222514 0)
(-0.0987267 -0.00204492 0)
(-0.0933685 -0.00598199 0)
(-0.0832014 -0.00904351 0)
(-0.0688228 -0.010908 0)
(-0.0512391 -0.0116464 0)
(-0.0315587 -0.0113803 0)
(-0.0113378 -0.0100746 0)
(0.007248 -0.00781627 0)
(0.0217624 -0.00496017 0)
(0.0302621 -0.00209601 0)
(0.0320804 0.000235675 0)
(0.0281839 0.00159779 0)
(0.0213664 0.00186467 0)
(0.0143673 0.0015653 0)
(0.00839746 0.00117341 0)
(0.00322689 0.00094618 0)
(-0.00340631 0.0275178 0)
(-0.00877446 0.0272306 0)
(-0.0146246 0.0268872 0)
(-0.0210265 0.0264964 0)
(-0.0280801 0.026034 0)
(-0.0358674 0.0254419 0)
(-0.0444096 0.0246379 0)
(-0.0536218 0.0235209 0)
(-0.0633199 0.0219641 0)
(-0.0731866 0.0198098 0)
(-0.0827318 0.0168797 0)
(-0.0912332 0.013025 0)
(-0.0977166 0.00823082 0)
(-0.101059 0.00272387 0)
(-0.100216 -0.00298767 0)
(-0.0945137 -0.00820713 0)
(-0.0839114 -0.0122157 0)
(-0.069144 -0.0146042 0)
(-0.0512851 -0.0155201 0)
(-0.0313823 -0.0151347 0)
(-0.0109765 -0.0133787 0)
(0.00772061 -0.0103608 0)
(0.0222441 -0.00654504 0)
(0.0306576 -0.00271882 0)
(0.0323403 0.00038999 0)
(0.0282814 0.00218848 0)
(0.0213591 0.00251387 0)
(0.0143322 0.00209607 0)
(0.00837464 0.00156524 0)
(0.0032255 0.00125881 0)
(-0.00381694 0.0342937 0)
(-0.00919744 0.0338533 0)
(-0.0150045 0.0333888 0)
(-0.0213607 0.0329502 0)
(-0.0284314 0.032494 0)
(-0.0363247 0.0318931 0)
(-0.0450493 0.0309939 0)
(-0.0544977 0.0296489 0)
(-0.0644723 0.0277027 0)
(-0.0746484 0.0249698 0)
(-0.084519 0.0212326 0)
(-0.0933114 0.0163067 0)
(-0.0999669 0.0101846 0)
(-0.103277 0.00318172 0)
(-0.102165 -0.00403107 0)
(-0.095992 -0.0105652 0)
(-0.0848125 -0.0155146 0)
(-0.0695432 -0.0183845 0)
(-0.0513432 -0.0194483 0)
(-0.0311608 -0.0189329 0)
(-0.0105208 -0.0167114 0)
(0.00831571 -0.0129157 0)
(0.0228472 -0.00812269 0)
(0.0311469 -0.00332542 0)
(0.0326564 0.00056345 0)
(0.0283915 0.00279576 0)
(0.0213405 0.00316881 0)
(0.0142826 0.00262709 0)
(0.0083435 0.00195475 0)
(0.00322358 0.00156744 0)
(-0.00450969 0.0411493 0)
(-0.00987619 0.0404206 0)
(-0.0155217 0.0397802 0)
(-0.0217344 0.0393628 0)
(-0.0288216 0.0390232 0)
(-0.0368867 0.0384879 0)
(-0.0458727 0.0375241 0)
(-0.0556265 0.0359592 0)
(-0.0659388 0.0336263 0)
(-0.0764905 0.0303138 0)
(-0.0867627 0.0257518 0)
(-0.0959182 0.0197039 0)
(-0.102781 0.0121706 0)
(-0.106035 0.00357845 0)
(-0.104568 -0.00520796 0)
(-0.097796 -0.0130954 0)
(-0.085887 -0.0189757 0)
(-0.0700025 -0.0222671 0)
(-0.0514038 -0.0234425 0)
(-0.0308844 -0.0227857 0)
(-0.00995868 -0.0200798 0)
(0.0090478 -0.0154837 0)
(0.0235877 -0.00969101 0)
(0.0317454 -0.0039115 0)
(0.033042 0.000760923 0)
(0.0285224 0.00342385 0)
(0.0213149 0.00383067 0)
(0.0142208 0.00315828 0)
(0.00830523 0.00234133 0)
(0.00322183 0.00187099 0)
(-0.00576966 0.0481333 0)
(-0.0110217 0.0467214 0)
(-0.0160775 0.0457986 0)
(-0.0219068 0.0456663 0)
(-0.0290612 0.0456829 0)
(-0.037435 0.0453085 0)
(-0.0468039 0.0442936 0)
(-0.0569549 0.0425001 0)
(-0.0676831 0.0397771 0)
(-0.0786954 0.0358857 0)
(-0.0894692 0.0304799 0)
(-0.0990813 0.0232455 0)
(-0.106199 0.0141923 0)
(-0.109365 0.00389287 0)
(-0.107443 -0.00655442 0)
(-0.099931 -0.0158407 0)
(-0.0871226 -0.0226378 0)
(-0.0705065 -0.0262682 0)
(-0.0514633 -0.0275127 0)
(-0.0305504 -0.026704 0)
(-0.00928613 -0.0234905 0)
(0.00992096 -0.018067 0)
(0.0244687 -0.0112477 0)
(0.0324541 -0.00447263 0)
(0.0334983 0.000987463 0)
(0.028673 0.00407721 0)
(0.0212813 0.00450057 0)
(0.0141465 0.00368959 0)
(0.00825989 0.00272435 0)
(0.0032207 0.0021683 0)
(-0.00888127 0.0555961 0)
(-0.0139194 0.0519635 0)
(-0.0162411 0.0506708 0)
(-0.0213912 0.0519084 0)
(-0.0289902 0.0526664 0)
(-0.0379479 0.0524894 0)
(-0.0478526 0.0513811 0)
(-0.0584891 0.0493221 0)
(-0.0697026 0.0461992 0)
(-0.081263 0.041737 0)
(-0.0926581 0.0354701 0)
(-0.102844 0.0269676 0)
(-0.110271 0.0162528 0)
(-0.113308 0.00409888 0)
(-0.110812 -0.00811092 0)
(-0.102405 -0.0188497 0)
(-0.0885031 -0.0265458 0)
(-0.0710355 -0.0304004 0)
(-0.0515194 -0.0316677 0)
(-0.0301555 -0.0306995 0)
(-0.0084985 -0.0269501 0)
(0.01094 -0.0206683 0)
(0.0254934 -0.0127902 0)
(0.0332737 -0.00500422 0)
(0.0340256 0.00124815 0)
(0.0288416 0.00476045 0)
(0.0212386 0.00517956 0)
(0.0140594 0.00422092 0)
(0.00820747 0.00310319 0)
(0.00322071 0.0024581 0)
(-0.00528799 0.0628447 0)
(-0.00629959 0.0550648 0)
(-0.0103297 0.0545423 0)
(-0.0194329 0.0590888 0)