/*--------------------------------*- C++ -*----------------------------------*\
| =========                 |                                                 |
| \\      /  F ield         | OpenFOAM: The Open Source CFD Toolbox           |
|  \\    /   O peration     | Version:  2.4.0                                 |
|   \\  /    A nd           | Web:      www.OpenFOAM.org                      |
|    \\/     M anipulation  |                                                 |
\*---------------------------------------------------------------------------*/
FoamFile
{
    version     2.0;
    format      ascii;
    class       surfaceScalarField;
    location    "0.045";
    object      phiAlpha;
}
// * * * * * * * * * * * * * * * * * * * * * * * * * * * * * * * * * * * * * //

dimensions      [0 3 -1 0 0 0 0];

internalField   nonuniform List<scalar> 
7080
(
-3.2013e-13
3.2008e-13
-1.96474e-12
1.64478e-12
-5.92999e-12
3.96615e-12
-1.27274e-11
6.79876e-12
-2.27616e-11
1.00367e-11
-3.80204e-11
1.52634e-11
-5.76727e-11
1.96548e-11
-8.72562e-11
2.95836e-11
-1.20105e-10
3.28516e-11
-1.71484e-10
5.13773e-11
-2.1967e-10
4.81844e-11
-2.97197e-10
7.75207e-11
-3.5324e-10
5.6047e-11
-4.36046e-10
8.28019e-11
-4.56682e-10
2.06329e-11
-4.62266e-10
5.58064e-12
-3.53473e-10
-1.08793e-10
-2.28247e-10
-1.25232e-10
-7.10468e-11
-1.57202e-10
3.68225e-11
-1.0787e-10
9.86573e-11
-6.18363e-11
1.26963e-10
-2.8306e-11
1.21678e-10
5.28351e-12
1.09596e-10
1.20813e-11
8.63915e-11
2.32032e-11
6.6537e-11
1.98539e-11
4.6661e-11
1.98748e-11
3.15154e-11
1.51454e-11
1.95462e-11
1.19686e-11
8.69141e-12
1.08548e-11
-9.74709e-13
1.29504e-12
-4.29993e-12
4.97104e-12
-1.06111e-11
1.02798e-11
-2.09145e-11
1.71054e-11
-3.56593e-11
2.47865e-11
-5.68553e-11
3.64674e-11
-8.32746e-11
4.60775e-11
-1.21003e-10
6.73123e-11
-1.62325e-10
7.41768e-11
-2.23739e-10
1.1279e-10
-2.79273e-10
1.03716e-10
-3.65255e-10
1.63493e-10
-4.20432e-10
1.11229e-10
-5.01386e-10
1.63749e-10
-5.04259e-10
2.34996e-11
-4.88451e-10
-1.02316e-11
-3.46611e-10
-2.50635e-10
-1.92705e-10
-2.79145e-10
-1.81429e-11
-3.31766e-10
1.00171e-10
-2.26184e-10
1.60422e-10
-1.2209e-10
1.82801e-10
-5.06867e-11
1.67138e-10
2.09449e-11
1.45818e-10
3.34e-11
1.13009e-10
5.60092e-11
8.56311e-11
4.72313e-11
5.94065e-11
4.60974e-11
3.96384e-11
3.49136e-11
2.46722e-11
2.69339e-11
1.92494e-11
1.41144e-11
-9.98342e-13
2.29366e-12
-4.4024e-12
8.37591e-12
-1.06435e-11
1.65229e-11
-2.06926e-11
2.71568e-11
-3.51192e-11
3.92171e-11
-5.61362e-11
5.7491e-11
-8.24632e-11
7.24076e-11
-1.20416e-10
1.05264e-10
-1.61864e-10
1.15626e-10
-2.2387e-10
1.74792e-10
-2.794e-10
1.59241e-10
-3.6625e-10
2.50333e-10
-4.21262e-10
1.66244e-10
-5.02526e-10
2.45005e-10
-5.03951e-10
2.49197e-11
-4.84452e-10
-2.97356e-11
-3.36198e-10
-3.9889e-10
-1.76023e-10
-4.39325e-10
-1.1519e-12
-5.0664e-10
1.1708e-10
-3.44416e-10
1.7398e-10
-1.78992e-10
1.92926e-10
-6.96346e-11
1.74438e-10
3.94305e-11
1.50905e-10
5.69316e-11
1.16494e-10
9.04179e-11
8.79405e-11
7.57843e-11
6.0882e-11
7.31541e-11
4.04395e-11
5.53561e-11
2.52376e-11
4.2135e-11
2.80011e-11
1.64861e-11
-7.95709e-13
3.08958e-12
-3.83893e-12
1.14196e-11
-9.83334e-12
2.25186e-11
-1.97219e-11
3.70469e-11
-3.40616e-11
5.35594e-11
-5.52413e-11
7.86758e-11
-8.17952e-11
9.89627e-11
-1.20455e-10
1.43921e-10
-1.623e-10
1.57472e-10
-2.2573e-10
2.38218e-10
-2.82151e-10
2.15658e-10
-3.71683e-10
3.39854e-10
-4.28749e-10
2.23312e-10
-5.13007e-10
3.29255e-10
-5.15658e-10
2.75657e-11
-4.93572e-10
-5.1827e-11
-3.37957e-10
-5.54507e-10
-1.69835e-10
-6.07453e-10
8.32025e-12
-6.84799e-10
1.25421e-10
-4.61515e-10
1.79475e-10
-2.33049e-10
1.96095e-10
-8.62565e-11
1.75995e-10
5.95282e-11
1.51586e-10
8.13401e-11
1.16772e-10
1.25229e-10
8.79648e-11
1.04591e-10
6.08411e-11
1.00276e-10
4.04272e-11
7.57701e-11
2.50539e-11
5.75073e-11
3.82441e-11
1.48111e-11
-8.58104e-13
3.94781e-12
-3.97674e-12
1.45384e-11
-1.00775e-11
2.862e-11
-2.01843e-11
4.71542e-11
-3.47111e-11
6.80878e-11
-5.63213e-11
1.0029e-10
-8.31839e-11
1.25825e-10
-1.22828e-10
1.83562e-10
-1.65246e-10
1.99889e-10
-2.30777e-10
3.03743e-10
-2.88535e-10
2.7341e-10
-3.81947e-10
4.33255e-10
-4.41988e-10
2.83355e-10
-5.30546e-10
4.17805e-10
-5.35009e-10
3.2023e-11
-5.09368e-10
-7.74735e-11
-3.43316e-10
-7.2056e-10
-1.64017e-10
-7.86758e-10
1.83512e-11
-8.6717e-10
1.34685e-10
-5.77848e-10
1.85142e-10
-2.83508e-10
1.98954e-10
-1.0007e-10
1.77023e-10
8.14572e-11
1.51718e-10
1.06644e-10
1.16596e-10
1.60349e-10
8.76764e-11
1.3351e-10
6.05892e-11
1.27361e-10
4.0239e-11
9.61204e-11
2.49022e-11
7.28432e-11
4.8756e-11
1.43905e-11
-9.15855e-13
4.86367e-12
-4.17083e-12
1.77931e-11
-1.04546e-11
3.49037e-11
-2.08735e-11
5.75726e-11
-3.57061e-11
8.29208e-11
-5.7958e-11
1.22544e-10
-8.52217e-11
1.53087e-10
-1.26136e-10
2.24471e-10
-1.69277e-10
2.43027e-10
-2.37499e-10
3.71959e-10
-2.96957e-10
3.3286e-10
-3.95346e-10
5.3163e-10
-4.59293e-10
3.47303e-10
-5.53404e-10
5.11907e-10
-5.60316e-10
3.89282e-11
-5.29945e-10
-1.0785e-10
-3.50142e-10
-9.00365e-10
-1.56347e-10
-9.80557e-10
3.10344e-11
-1.05455e-09
1.4631e-10
-6.93123e-10
1.9209e-10
-3.2929e-10
2.02344e-10
-1.10326e-10
1.78158e-10
1.05642e-10
1.51773e-10
1.33028e-10
1.16299e-10
1.95821e-10
8.72739e-11
1.62534e-10
6.02508e-11
1.54383e-10
3.99767e-11
1.16395e-10
2.47327e-11
8.80863e-11
5.92141e-11
1.42747e-11
-9.63906e-13
5.82744e-12
-4.35463e-12
2.11831e-11
-1.08493e-11
4.13974e-11
-2.16586e-11
6.83801e-11
-3.6859e-11
9.812e-11
-5.9922e-11
1.45608e-10
-8.76922e-11
1.80854e-10
-1.30163e-10
2.66935e-10
-1.74145e-10
2.87004e-10
-2.45651e-10
4.43455e-10
-3.07174e-10
3.94374e-10
-4.11678e-10
6.36119e-10
-4.80598e-10
4.16224e-10
-5.81644e-10
6.12942e-10
-5.91823e-10
4.91005e-11
-5.55448e-10
-1.44231e-10
-3.58184e-10
-1.09763e-09
-1.46271e-10
-1.19248e-09
4.68721e-11
-1.2477e-09
1.60552e-10
-8.06801e-10
2.00439e-10
-3.6918e-10
2.0633e-10
-1.16218e-10
1.79452e-10
1.32518e-10
1.51799e-10
1.6068e-10
1.15922e-10
2.31696e-10
8.67813e-11
1.91674e-10
5.9841e-11
1.81321e-10
3.96585e-11
1.36577e-10
2.45306e-11
1.03214e-10
6.96062e-11
1.41386e-11
-1.12632e-12
6.95347e-12
-4.72702e-12
2.47824e-11
-1.13868e-11
4.80555e-11
-2.26518e-11
7.96426e-11
-3.82467e-11
1.13713e-10
-6.2265e-11
1.69627e-10
-9.05277e-11
2.09111e-10
-1.34838e-10
3.11235e-10
-1.7977e-10
3.31929e-10
-2.55139e-10
5.18813e-10
-3.1911e-10
4.58334e-10
-4.30917e-10
7.47907e-10
-5.06092e-10
4.91398e-10
-6.15642e-10
7.2248e-10
-6.30188e-10
6.36388e-11
-5.86358e-10
-1.88067e-10
-3.67365e-10
-1.31663e-09
-1.33302e-10
-1.42654e-09
6.62617e-11
-1.44727e-09
1.7755e-10
-9.18087e-10
2.10187e-10
-4.01819e-10
2.10874e-10
-1.16906e-10
1.80883e-10
1.62507e-10
1.51786e-10
1.89777e-10
1.15461e-10
2.68018e-10
8.61975e-11
2.20937e-10
5.93598e-11
2.08157e-10
3.92859e-11
1.56651e-10
2.42924e-11
1.18206e-10
7.9898e-11
1.40009e-11
-1.18517e-12
8.13824e-12
-5.02167e-12
2.86174e-11
-1.19564e-11
5.4988e-11
-2.38091e-11
9.14918e-11
-3.98767e-11
1.29777e-10
-6.49436e-11
1.94692e-10
-9.36964e-11
2.37858e-10
-1.40136e-10
3.57663e-10
-1.86053e-10
3.77839e-10
-2.65862e-10
5.98608e-10
-3.32663e-10
5.25122e-10
-4.53012e-10
8.68237e-10
-5.3597e-10
5.74355e-10
-6.55787e-10
8.42283e-10
-6.76133e-10
8.39765e-11
-6.23233e-10
-2.40974e-10
-3.7756e-10
-1.5623e-09
-1.16832e-10
-1.68728e-09
8.96532e-11
-1.65376e-09
1.97429e-10
-1.02586e-09
2.2129e-10
-4.25682e-10
2.15894e-10
-1.11512e-10
1.82394e-10
1.96005e-10
1.51701e-10
2.20469e-10
1.14899e-10
3.04818e-10
8.55126e-11
2.50323e-10
5.88009e-11
2.34867e-10
3.88555e-11
1.76597e-10
2.4015e-11
1.33046e-10
9.00887e-11
1.38245e-11
-1.22103e-12
9.35875e-12
-5.28677e-12
3.2681e-11
-1.25665e-11
6.22648e-11
-2.53376e-11
1.04257e-10
-4.18164e-11
1.4625e-10
-6.83799e-11
2.21253e-10
-9.74049e-11
2.66875e-10
-1.46106e-10
4.06351e-10
-1.93011e-10
4.24735e-10
-2.77719e-10
6.83301e-10
-3.47751e-10
5.95139e-10
-4.77936e-10
9.98401e-10
-5.7055e-10
6.66967e-10
-7.02692e-10
9.7441e-10
-7.30718e-10
1.11994e-10
-6.66884e-10
-3.04815e-10
-3.88678e-10
-1.84051e-09
-9.61218e-11
-1.97984e-09
1.17598e-10
-1.86748e-09
2.20357e-10
-1.12862e-09
2.33728e-10
-4.39055e-10
2.21338e-10
-9.91221e-11
1.8396e-10
2.33382e-10
1.51539e-10
2.52889e-10
1.1424e-10
3.42115e-10
8.47319e-11
2.7983e-10
5.8169e-11
2.61429e-10
3.83713e-11
1.96394e-10
2.37001e-11
1.47716e-10
1.00166e-10
1.36233e-11
-1.39427e-12
1.07524e-11
-6.14973e-12
3.74339e-11
-1.43675e-11
7.04785e-11
-2.81247e-11
1.18009e-10
-4.46843e-11
1.62804e-10
-7.12458e-11
2.47811e-10
-1.00583e-10
2.96202e-10
-1.52226e-10
4.57977e-10
-2.00112e-10
4.72608e-10
-2.90514e-10
7.73684e-10
-3.64221e-10
6.68831e-10
-5.05608e-10
1.13977e-09
-6.10154e-10
7.71509e-10
-7.56986e-10
1.12123e-09
-7.95122e-10
1.50119e-10
-7.18245e-10
-3.817e-10
-4.00551e-10
-2.15821e-09
-7.0231e-11
-2.31016e-09
1.50746e-10
-2.08846e-09
2.46496e-10
-1.22436e-09
2.47446e-10
-4.40007e-10
2.27116e-10
-7.87922e-11
1.85527e-10
2.7497e-10
1.51277e-10
2.87139e-10
1.13474e-10
3.79915e-10
8.3853e-11
3.09451e-10
5.74632e-11
2.87817e-10
3.78331e-11
2.16025e-10
2.33478e-11
1.62201e-10
1.10117e-10
1.33967e-11
-1.40747e-12
1.21591e-11
-6.21889e-12
4.22421e-11
-1.40829e-11
7.83381e-11
-2.90965e-11
1.33017e-10
-4.50274e-11
1.78728e-10
-7.56902e-11
2.7847e-10
-1.05345e-10
3.25844e-10
-1.60094e-10
5.12707e-10
-2.09013e-10
5.21514e-10
-3.04151e-10
8.68803e-10
-3.82035e-10
7.46696e-10
-5.35772e-10
1.29348e-09
-6.55046e-10
8.9078e-10
-8.19308e-10
1.28547e-09
-8.70793e-10
2.01592e-10
-7.78424e-10
-4.74077e-10
-4.12932e-10
-2.5237e-09
-3.79319e-11
-2.68516e-09
1.8984e-10
-2.31624e-09
2.75988e-10
-1.31051e-09
2.6234e-10
-4.26361e-10
2.33101e-10
-4.95534e-11
1.87019e-10
3.21051e-10
1.50875e-10
3.23282e-10
1.12584e-10
4.18204e-10
8.28658e-11
3.39169e-10
5.66776e-11
3.14004e-10
3.72377e-11
2.35464e-10
2.29565e-11
1.76482e-10
1.19928e-10
1.31451e-11
-1.78418e-12
1.39424e-11
-8.76954e-12
4.92238e-11
-1.87267e-11
8.82911e-11
-3.37009e-11
1.47984e-10
-5.02814e-11
1.95301e-10
-7.7697e-11
3.05879e-10
-1.08282e-10
3.56416e-10
-1.65704e-10
5.7011e-10
-2.14367e-10
5.70163e-10
-3.1807e-10
9.72484e-10
-4.00587e-10
8.29194e-10
-5.68204e-10
1.46107e-09
-7.05587e-10
1.02816e-09
-8.90475e-10
1.47034e-09
-9.59424e-10
2.70529e-10
-8.48857e-10
-5.84652e-10
-4.2557e-10
-2.94699e-09
2.36737e-12
-3.1131e-09
2.35788e-10
-2.54966e-09
3.09008e-10
-1.38372e-09
2.78317e-10
-3.95672e-10
2.39188e-10
-1.04248e-11
1.88387e-10
3.71852e-10
1.5032e-10
3.61349e-10
1.1157e-10
4.56952e-10
8.17758e-11
3.68963e-10
5.58169e-11
3.39961e-10
3.65888e-11
2.54693e-10
2.25289e-11
1.90541e-10
1.29592e-10
1.28655e-11
-2.08671e-12
1.60282e-11
-7.47845e-12
5.46113e-11
-1.27966e-11
9.36034e-11
-3.41249e-11
1.69303e-10
-4.84246e-11
2.09589e-10
-8.6163e-11
3.43609e-10
-1.14967e-10
3.85206e-10
-1.75765e-10
6.30887e-10
-2.27121e-10
6.21502e-10
-3.33177e-10
1.07852e-09
-4.2149e-10
9.17486e-10
-6.00936e-10
1.64048e-09
-7.62088e-10
1.18931e-09
-9.71098e-10
1.67933e-09
-1.06346e-09
3.62882e-10
-9.31431e-10
-7.16694e-10
-4.38211e-10
-3.44021e-09
4.84434e-11
-3.59976e-09
2.89592e-10
-2.79082e-09
3.45721e-10
-1.43985e-09
2.95223e-10
-3.45176e-10
2.45236e-10
3.95617e-11
1.89557e-10
4.2753e-10
1.49583e-10
4.01323e-10
1.10424e-10
4.9611e-10
8.05805e-11
3.98805e-10
5.48806e-11
3.6566e-10
3.58865e-11
2.73687e-10
2.2066e-11
2.04361e-10
1.39103e-10
1.25552e-11
-1.76351e-12
1.77908e-11
-1.61099e-11
6.89533e-11
-3.27431e-11
1.1023e-10
-4.59434e-11
1.82493e-10
-6.03882e-11
2.24025e-10
-8.33991e-11
3.66613e-10
-1.14318e-10
4.16108e-10
-1.79499e-10
6.96044e-10
-2.28131e-10
6.70116e-10
-3.45513e-10
1.19588e-09
-4.38934e-10
1.01088e-09
-6.34722e-10
1.83624e-09
-8.24219e-10
1.3788e-09
-1.06058e-09
1.91567e-09
-1.18478e-09
4.87067e-10
-1.02792e-09
-8.7356e-10
-4.50293e-10
-4.01785e-09
1.06458e-10
-4.15651e-09
3.52451e-10
-3.03682e-09
3.86252e-10
-1.47364e-09
3.12832e-10
-2.71757e-10
2.51042e-10
1.01353e-10
1.90433e-10
4.88137e-10
1.48622e-10
4.43134e-10
1.09125e-10
5.35605e-10
7.92708e-11
4.28659e-10
5.38636e-11
3.91066e-10
3.51279e-11
2.92423e-10
2.15668e-11
2.17921e-10
1.48449e-10
1.22212e-11
-8.6722e-12
2.64607e-11
-1.85078e-11
7.87823e-11
-9.2871e-12
1.01002e-10
-4.68256e-11
2.2002e-10
-5.52602e-11
2.32449e-10
-9.84589e-11
4.09808e-10
-1.2643e-10
4.44061e-10
-1.91017e-10
7.60606e-10
-2.46613e-10
7.25692e-10
-3.62493e-10
1.31173e-09
-4.65325e-10
1.11369e-09
-6.70679e-10
2.04156e-09
-8.93786e-10
1.6019e-09
-1.16362e-09
2.18548e-09
-1.3279e-09
6.51327e-10
-1.14167e-09
-1.0598e-09
-4.61431e-10
-4.69809e-09
1.78356e-10
-4.7963e-09
4.25795e-10
-3.28426e-09
4.30745e-10
-1.47859e-09
3.30898e-10
-1.71912e-10
2.56433e-10
1.75818e-10
1.9095e-10
5.5362e-10
1.4742e-10
4.86662e-10
1.07675e-10
5.75348e-10
7.78526e-11
4.58482e-10
5.27712e-11
4.16146e-10
3.43167e-11
3.10877e-10
2.10343e-11
2.31203e-10
1.57609e-10
1.18741e-11
4.44242e-12
2.20176e-11
-3.3239e-11
1.16459e-10
-7.73827e-11
1.45137e-10
-6.20056e-11
2.04631e-10
-6.36205e-11
2.34056e-10
-7.61036e-11
4.22282e-10
-1.10827e-10
4.78766e-10
-1.95735e-10
8.45484e-10
-2.42379e-10
7.72314e-10
-3.67293e-10
1.43661e-09
-4.77039e-10
1.22342e-09
-7.0573e-10
2.27022e-09
-9.66155e-10
1.86233e-09
-1.28106e-09
2.50036e-09
-1.49435e-09
8.64608e-10
-1.27492e-09
-1.27924e-09
-4.70668e-10
-5.50234e-09
2.69809e-10
-5.53677e-09
5.11324e-10
-3.52579e-09
4.79264e-10
-1.44652e-09
3.49074e-10
-4.17229e-11
2.61176e-10
2.63716e-10
1.91015e-10
6.23781e-10
1.45949e-10
5.31728e-10
1.06065e-10
6.15231e-10
7.63239e-11
4.88223e-10
5.16032e-11
4.40865e-10
3.34534e-11
3.29027e-10
2.0469e-11
2.44187e-10
1.66562e-10
1.15156e-11
-3.37072e-11
5.57204e-11
-9.33116e-11
1.76047e-10
-3.30202e-11
8.48387e-11
-8.73628e-11
2.58957e-10
-8.50986e-11
2.31778e-10
-1.0954e-10
4.46719e-10
-1.47622e-10
5.16828e-10
-2.02192e-10
9.00026e-10
-2.70865e-10
8.40961e-10
-3.86307e-10
1.55203e-09
-5.16952e-10
1.35403e-09
-7.45542e-10
2.49877e-09
-1.05227e-09
2.16905e-09
-1.4173e-09
2.86536e-09
-1.69278e-09
1.14008e-09
-1.43352e-09
-1.53852e-09
-4.77982e-10
-6.45788e-09
3.81137e-10
-6.39588e-09
6.10825e-10
-3.75548e-09
5.31647e-10
-1.36733e-09
3.66876e-10
1.23047e-10
2.64977e-10
3.65616e-10
1.90515e-10
6.98242e-10
1.44168e-10
5.78074e-10
1.04277e-10
6.5512e-10
7.4676e-11
5.17824e-10
5.0355e-11
4.65185e-10
3.25356e-11
3.46846e-10
1.98692e-11
2.56853e-10
1.75289e-10
1.1143e-11
-1.25923e-11
6.8307e-11
-2.18457e-11
1.85301e-10
-9.99841e-11
1.62971e-10
7.02519e-12
1.51928e-10
2.08962e-11
2.17888e-10
-3.57508e-11
5.03349e-10
-7.5525e-11
5.56562e-10
-2.2408e-10
1.04855e-09
-2.61494e-10
8.78357e-10
-3.75734e-10
1.66624e-09
-4.96332e-10
1.4746e-09
-7.64943e-10
2.76735e-09
-1.12609e-09
2.5302e-09
-1.56652e-09
3.30577e-09
-1.92216e-09
1.4957e-09
-1.61949e-09
-1.8412e-09
-4.80548e-10
-7.59682e-09
5.17347e-10
-7.39377e-09
7.27047e-10
-3.96519e-09
5.87868e-10
-1.22815e-09
3.83743e-10
3.27172e-10
2.67538e-10
4.81821e-10
1.89368e-10
7.76412e-10
1.42066e-10
6.25376e-10
1.02315e-10
6.9487e-10
7.29139e-11
5.47224e-10
4.90309e-11
4.89067e-10
3.15673e-11
3.6431e-10
1.92369e-11
2.69183e-10
1.83771e-10
1.07548e-11
-2.49397e-11
9.32449e-11
-2.08601e-10
3.68867e-10
-2.67187e-10
2.21332e-10
-1.14661e-10
-6.05006e-13
-1.44065e-10
2.47295e-10
-1.31304e-10
4.90612e-10
-2.12832e-10
6.38079e-10
-2.19283e-10
1.05494e-09
-3.13794e-10
9.72852e-10
-4.05107e-10
1.75752e-09
-5.66478e-10
1.63594e-09
-8.20408e-10
3.02125e-09
-1.23366e-09
2.94345e-09
-1.74631e-09
3.81839e-09
-2.20036e-09
1.94974e-09
-1.84322e-09
-2.19836e-09
-4.79552e-10
-8.96049e-09
6.81781e-10
-8.55509e-09
8.6106e-10
-4.14449e-09
6.47209e-10
-1.01429e-09
3.98837e-10
5.75544e-10
2.68515e-10
6.12143e-10
1.87474e-10
8.57453e-10
1.39622e-10
6.73228e-10
1.00172e-10
7.34319e-10
7.10364e-11
5.76359e-10
4.76309e-11
5.12472e-10
3.05491e-11
3.81392e-10
1.85719e-11
2.8116e-10
1.91994e-10
1.0349e-11
6.38538e-11
2.9409e-11
1.15144e-10
3.17581e-10
5.05761e-10
-1.69716e-10
4.98414e-10
7.21069e-12
3.6755e-10
3.78273e-10
2.95096e-10
5.63061e-10
-5.83694e-11
9.91534e-10
-2.75091e-10
1.27168e-09
-3.23293e-10
1.02105e-09
-3.57404e-10
1.79161e-09
-4.79692e-10
1.7582e-09
-7.90066e-10
3.33159e-09
-1.29e-09
3.44338e-09
-1.9303e-09
4.45866e-09
-2.52222e-09
2.54164e-09
-2.10763e-09
-2.61297e-09
-4.65573e-10
-1.06025e-08
8.87195e-10
-9.90785e-09
1.01996e-09
-4.27726e-09
7.10336e-10
-7.04658e-10
4.11243e-10
8.74636e-10
2.67515e-10
7.55872e-10
1.84721e-10
9.40247e-10
1.36806e-10
7.21143e-10
9.7838e-11
7.73285e-10
6.90373e-11
6.0516e-10
4.61512e-11
5.35357e-10
2.94792e-11
3.98064e-10
1.78728e-11
2.92766e-10
1.99946e-10
9.92073e-12
4.7509e-11
-1.81021e-11
3.04993e-10
6.01283e-11
3.57722e-10
-2.21322e-10
-1.00678e-10
4.66234e-10
-4.3726e-10
7.14869e-10
-1.52818e-10
2.78684e-10
1.20759e-10
7.18013e-10
-2.14988e-10
1.60744e-09
-3.47139e-10
1.15321e-09
-4.19457e-10
1.86392e-09
-5.99493e-10
1.93822e-09
-8.90708e-10
3.62276e-09
-1.42519e-09
3.97786e-09
-2.17031e-09
5.20376e-09
-2.91303e-09
3.28434e-09
-2.42389e-09
-3.10212e-09
-4.46997e-10
-1.25794e-08
1.12997e-09
-1.14848e-08
1.19741e-09
-4.34472e-09
7.72397e-10
-2.79631e-10
4.17473e-10
1.22956e-09
2.64076e-10
9.09269e-10
1.81033e-10
1.02329e-09
1.3362e-10
7.68555e-10
9.53216e-11
8.11583e-10
6.6924e-11
6.33557e-10
4.45965e-11
5.57684e-10
2.83615e-11
4.14299e-10
1.71441e-11
3.03983e-10
2.07612e-10
9.478e-12
-4.21998e-13
-1.7684e-11
2.30523e-10
-1.71039e-10
4.13641e-10
-4.05471e-10
4.70161e-10
4.1087e-10
9.70987e-11
1.08792e-09
-1.02312e-10
4.78133e-10
-5.44822e-10
1.16053e-09
-8.64288e-10
1.92684e-09
-5.22994e-10
8.11924e-10
-2.63214e-10
1.60412e-09
-3.68688e-10
2.0437e-09
-7.45066e-10
3.99913e-09
-1.4362e-09
4.66898e-09
-2.39505e-09
6.16258e-09
-3.38535e-09
4.27462e-09
-2.81405e-09
-3.67343e-09
-4.04717e-10
-1.49888e-08
1.44105e-09
-1.33305e-08
1.41782e-09
-4.3215e-09
8.42443e-10
2.95752e-10
4.20625e-10
1.65138e-09
2.57844e-10
1.07205e-09
1.76361e-10
1.10477e-09
1.30065e-10
8.14851e-10
9.2626e-11
8.49021e-10
6.46987e-11
6.61484e-10
4.2968e-11
5.79414e-10
2.71964e-11
4.30071e-10
1.63834e-11
3.14795e-10
2.14983e-10
9.01252e-12
-1.52174e-10
1.34736e-10
-3.78008e-10
5.73075e-11
-3.75767e-10
-4.08743e-10
-2.89827e-10
3.23223e-10
2.90366e-10
5.0598e-10
1.03677e-10
6.64792e-10
1.26528e-10
1.13768e-09
3.0245e-10
1.75092e-09
-6.6438e-10
1.77877e-09
-3.37066e-10
1.27676e-09
-5.92372e-10
2.29897e-09
-9.49093e-10
4.35583e-09
-1.59848e-09
5.31839e-09
-2.6925e-09
7.25657e-09
-3.9206e-09
5.5027e-09
-3.25717e-09
-4.33687e-09
-3.57709e-10
-1.78882e-08
1.79886e-09
-1.54871e-08
1.64895e-09
-4.1716e-09
8.96941e-10
1.04777e-09
4.157e-10
2.13262e-09
2.48022e-10
1.23973e-09
1.70613e-10
1.18218e-09
1.26117e-10
8.59347e-10
8.97335e-11
8.85404e-10
6.23474e-11
6.8887e-10
4.12558e-11
6.00505e-10
2.5979e-11
4.45347e-10
1.55947e-11
3.25179e-10
2.22037e-10
8.54081e-12
-1.74843e-10
3.09557e-10
-5.37935e-10
4.2212e-10
-4.1678e-10
-5.28979e-10
-3.53024e-10
2.55394e-10
-4.72838e-10
6.25045e-10
-9.7554e-10
1.16756e-09
-9.23833e-10
1.08598e-09
-1.59123e-10
9.86207e-10
-3.03968e-10
1.92361e-09
-6.25107e-11
1.03525e-09
5.72874e-11
2.17914e-09
-5.32136e-10
4.94521e-09
-1.53098e-09
6.31725e-09
-3.01672e-09
8.74228e-09
-4.66794e-09
7.15391e-09
-3.86053e-09
-5.14429e-09
-2.72006e-10
-2.14767e-08
2.26815e-09
-1.80272e-08
1.95677e-09
-3.86024e-09
9.73318e-10
2.03123e-09
4.07484e-10
2.69845e-09
2.34717e-10
1.41249e-09
1.63872e-10
1.25303e-09
1.21894e-10
9.01325e-10
8.6721e-11
9.20576e-10
5.99288e-11
7.15662e-10
3.95002e-11
6.20933e-10
2.47353e-11
4.60112e-10
1.47846e-11
3.3513e-10
2.28774e-10
8.04696e-12
5.99614e-11
2.49612e-10
-1.21827e-10
6.04484e-10
1.32311e-10
-7.84088e-10
4.97079e-10
-1.07934e-10
-8.39202e-10
1.96059e-09
-1.73805e-09
2.06657e-09
-1.36623e-09
7.14156e-10
-1.19027e-09
8.10202e-10
-4.87252e-10
1.22059e-09
-4.61244e-10
1.00921e-09
-4.88986e-10
2.20685e-09
-1.03348e-09
5.48963e-09
-1.69609e-09
6.97993e-09
-3.27898e-09
1.03251e-08
-5.3754e-09
9.25031e-09
-4.45773e-09
-6.06196e-09
-1.65598e-10
-2.57689e-08
2.80177e-09
-2.09945e-08
2.25831e-09
-3.3168e-09
1.00371e-09
3.28584e-09
3.77919e-10
3.32424e-09
2.15632e-10
1.57478e-09
1.55912e-10
1.31275e-09
1.17196e-10
9.40041e-10
8.34123e-11
9.54359e-10
5.72897e-11
7.41785e-10
3.7591e-11
6.40631e-10
2.33915e-11
4.74312e-10
1.39184e-11
3.44603e-10
2.35154e-10
7.53853e-12
1.77062e-10
7.25763e-11
6.34481e-11
7.16594e-10
-2.75094e-10
-4.46512e-10
8.46499e-11
-4.68478e-10
-2.30358e-10
2.27515e-09
-6.8013e-11
1.90394e-09
-1.75839e-11
6.63727e-10
1.30356e-09
-5.10879e-10
9.08368e-10
1.61576e-09
3.44811e-10
1.57275e-09
1.19633e-09
1.35531e-09
6.76278e-11
6.61826e-09
-1.5176e-09
8.56521e-09
-3.76277e-09
1.25703e-08
-6.52449e-09
1.2012e-08
-5.39615e-09
-7.19029e-09
-2.91759e-11
-3.11358e-08
3.48301e-09
-2.45066e-08
2.66943e-09
-2.50324e-09
1.08064e-09
4.87465e-09
3.54492e-10
4.05039e-09
1.94965e-10
1.73431e-09
1.47437e-10
1.36028e-09
1.1267e-10
9.74808e-10
8.02887e-11
9.8674e-10
5.48294e-11
7.67244e-10
3.58139e-11
6.59646e-10
2.21449e-11
4.87981e-10
1.31053e-11
3.53642e-10
2.41213e-10
7.04668e-12
-3.51833e-10
4.24338e-10
-8.61593e-10
1.22627e-09
-8.31208e-10
-4.76891e-10
-8.58029e-11
-1.21608e-09
3.93615e-10
1.79536e-09
8.10465e-10
1.48726e-09
-1.02146e-09
2.49567e-09
-8.83037e-10
-6.49467e-10
-1.01001e-09
1.74276e-09
-3.39084e-11
5.96637e-10
-6.28753e-10
1.95012e-09
-4.68388e-10
6.45785e-09
-9.94226e-10
9.09111e-09
-3.47015e-09
1.50462e-08
-6.98236e-09
1.55242e-08
-5.84945e-09
-8.3232e-09
2.61526e-10
-3.72468e-08
4.32998e-09
-2.8575e-08
3.10863e-09
-1.28192e-09
1.06854e-09
6.91475e-09
2.77486e-10
4.84144e-09
1.60941e-10
1.85085e-09
1.37711e-10
1.38351e-09
1.0778e-10
1.00474e-09
7.67925e-11
1.01773e-09
5.19808e-11
7.92055e-10
3.37316e-11
6.77895e-10
2.06719e-11
5.01041e-10
1.21527e-11
3.62161e-10
2.46885e-10
6.48092e-12
2.48294e-10
4.96652e-11
2.55711e-10
8.92297e-10
5.66161e-11
-2.19737e-10
-9.76615e-10
-1.72501e-10
4.83855e-10
3.34868e-10
1.97601e-09
-4.73965e-12
3.97396e-09
4.97681e-10
3.00812e-09
3.16457e-10
2.9168e-09
1.83407e-09
3.33983e-09
1.73786e-10
-1.43216e-09
6.72215e-09
-5.67977e-09
1.07051e-08
-3.8146e-09
5.9676e-09
-3.37298e-09
1.07334e-08
-6.25373e-09
9.4139e-09
-5.95231e-09
-4.88208e-09
1.07433e-09
-4.18564e-08
5.27466e-09
-3.27753e-08
3.57545e-09
4.17269e-10
1.12825e-09
9.36195e-09
2.53928e-10
5.71576e-09
1.49552e-10
1.95522e-09
1.38466e-10
1.39459e-09
1.1063e-10
1.03257e-09
7.88696e-11
1.04949e-09
5.3111e-11
8.17814e-10
3.42695e-11
6.96737e-10
2.08571e-11
5.14453e-10
1.21914e-11
3.70827e-10
2.52691e-10
6.38566e-12
4.2604e-10
-4.12315e-10
1.15488e-09
-2.94531e-11
6.65629e-10
8.12669e-11
-3.12673e-09
2.02147e-09
-6.26159e-10
-1.31288e-09
3.50068e-09
-1.72465e-09
4.25032e-09
1.21106e-10
3.80791e-09
7.58928e-10
4.29757e-09
9.87122e-10
3.46151e-09
6.80161e-10
4.67939e-09
3.54825e-09
1.33552e-08
-2.781e-10
1.93205e-08
-8.00321e-10
6.21573e-09
6.84874e-09
-1.1604e-09
-9.45713e-10
-2.39273e-09
-7.95922e-11
4.78541e-09
-1.71431e-08
7.14282e-09
-2.01286e-08
4.36026e-09
3.19979e-09
1.18433e-09
1.25379e-08
2.21289e-10
6.6788e-09
1.98509e-10
1.978e-09
2.10278e-10
1.38282e-09
1.72184e-10
1.07067e-09
1.22714e-10
1.09896e-09
8.35985e-11
8.56929e-10
5.36845e-11
7.2665e-10
3.29379e-11
5.35199e-10
1.89913e-11
3.84773e-10
1.01873e-11
2.61494e-10
9.40283e-12
1.45154e-12
8.81834e-12
5.84711e-13
7.83582e-12
9.82039e-13
6.05439e-12
1.7815e-12
4.631e-12
1.42315e-12
3.85415e-12
7.76852e-13
3.1757e-12
6.78349e-13
2.59183e-12
5.83867e-13
2.05119e-12
5.40592e-13
1.78964e-12
2.6155e-13
1.54251e-12
2.47104e-13
1.16146e-12
3.81047e-13
8.45654e-13
3.15792e-13
6.94347e-13
1.51293e-13
5.55719e-13
1.38607e-13
5.05438e-13
5.02567e-14
3.52849e-13
1.52558e-13
2.77654e-13
7.5159e-14
3.60877e-13
-8.32637e-14
2.73022e-13
8.78117e-14
2.04175e-13
6.88006e-14
1.89518e-13
1.46091e-14
1.42322e-13
4.7148e-14
1.35149e-13
7.12329e-15
1.54686e-13
-1.95858e-14
1.04581e-13
5.00562e-14
-3.55781e-14
1.4011e-13
1.17441e-13
-1.53067e-13
1.49785e-13
-3.23913e-14
1.49737e-13
1.19207e-11
3.64426e-12
1.07012e-11
1.8045e-12
8.62164e-12
3.06092e-12
6.41078e-12
3.99243e-12
5.38312e-12
2.45048e-12
4.43331e-12
1.72666e-12
3.62629e-12
1.48523e-12
3.04417e-12
1.16598e-12
2.4592e-12
1.12551e-12
2.1487e-12
5.72029e-13
1.8396e-12
5.56173e-13
1.22103e-12
9.99603e-13
9.10527e-13
6.26257e-13
8.55427e-13
2.06355e-13
6.9814e-13
2.95844e-13
5.63243e-13
1.85095e-13
4.74544e-13
2.41189e-13
3.90079e-13
1.59548e-13
3.46762e-13
-4.00297e-14
3.18954e-13
1.15531e-13
2.70887e-13
1.16776e-13
2.40596e-13
4.48068e-14
2.35549e-13
5.21016e-14
2.40947e-13
1.63073e-15
1.8908e-13
3.21879e-14
1.71046e-13
6.79974e-14
7.15746e-14
2.39488e-13
7.07509e-14
-1.52335e-13
-2.7219e-14
6.54897e-14
1.22474e-13
1.35439e-11
6.58554e-12
8.94028e-12
6.40842e-12
6.78755e-12
5.21302e-12
6.15188e-12
4.62816e-12
5.41321e-12
3.18885e-12
4.45603e-12
2.68384e-12
3.64219e-12
2.29894e-12
3.17402e-12
1.63414e-12
2.7007e-12
1.59877e-12
1.95407e-12
1.31864e-12
1.34915e-12
1.16107e-12
1.21909e-12
1.12964e-12
1.06047e-12
7.84843e-13
9.00719e-13
3.66073e-13
7.17703e-13
4.78811e-13
5.39754e-13
3.6299e-13
5.25723e-13
2.55156e-13
4.37189e-13
2.48009e-13
2.38158e-13
1.58923e-13
2.46503e-13
1.07103e-13
2.93429e-13
6.97644e-14
2.60982e-13
7.71661e-14
3.01252e-13
1.17435e-14
3.25289e-13
-2.2495e-14
1.83805e-13
1.73583e-13
1.82259e-13
6.94561e-14
8.31894e-14
3.38471e-13
-4.69064e-14
-2.23251e-14
-1.5225e-13
1.70749e-13
-2.98174e-14
1.22313e-11
9.16453e-12
9.5835e-12
9.05645e-12
7.91202e-12
6.8839e-12
6.63683e-12
5.90341e-12
5.5078e-12
4.3176e-12
4.47371e-12
3.71792e-12
3.63775e-12
3.13479e-12
3.02716e-12
2.24472e-12
2.4888e-12
2.13708e-12
1.91861e-12
1.88882e-12
1.48901e-12
1.59063e-12
1.2569e-12
1.36174e-12
1.07718e-12
9.64533e-13
9.44943e-13
4.98273e-13
7.42494e-13
6.81215e-13
5.93682e-13
5.11748e-13
5.13435e-13
3.35342e-13
4.12105e-13
3.4927e-13
3.33357e-13
2.37596e-13
3.02104e-13
1.38278e-13
2.838e-13
8.7986e-14
2.57875e-13
1.03008e-13
2.4783e-13
2.17033e-14
2.37781e-13
-1.253e-14
1.92014e-13
2.19265e-13
1.92637e-13
6.87505e-14
9.41092e-14
4.36916e-13
7.67526e-14
-5.05057e-15
-5.84294e-14
3.05852e-13
-8.82871e-14
1.19285e-11
1.16257e-11
9.71734e-12
1.12679e-11
8.12422e-12
8.47644e-12
6.69865e-12
7.32903e-12
5.46509e-12
5.55089e-12
4.44284e-12
4.74016e-12
3.62492e-12
3.9526e-12
2.95073e-12
2.9189e-12
2.40156e-12
2.68619e-12
1.9272e-12
2.36317e-12
1.52501e-12
1.99279e-12
1.27931e-12
1.60743e-12
1.13924e-12
1.10457e-12
9.30007e-13
7.07473e-13
7.21141e-13
8.90036e-13
5.9382e-13
6.39018e-13
4.95916e-13
4.33186e-13
4.00224e-13
4.44896e-13
3.43012e-13
2.94736e-13
3.07276e-13
1.73937e-13
2.76361e-13
1.18822e-13
2.56389e-13
1.22898e-13
2.35659e-13
4.23515e-14
2.08675e-13
1.43722e-14
1.88111e-13
2.39748e-13
1.91138e-13
6.56432e-14
1.07544e-13
5.20429e-13
1.29133e-13
-2.67184e-14
-5.43571e-14
4.89266e-13
-1.42683e-13
1.18541e-11
1.40456e-11
9.6736e-12
1.34486e-11
8.04989e-12
1.00996e-11
6.65636e-12
8.7226e-12
5.39433e-12
6.81267e-12
4.40297e-12
5.73151e-12
3.60588e-12
4.74958e-12
2.8701e-12
3.65466e-12
2.32889e-12
3.22736e-12
1.90218e-12
2.78988e-12
1.54552e-12
2.34942e-12
1.33831e-12
1.81463e-12
1.15801e-12
1.28484e-12
8.77975e-13
9.87476e-13
6.98257e-13
1.06971e-12
5.8673e-13
7.50495e-13
4.88456e-13
5.31401e-13
4.14208e-13
5.19079e-13
3.52762e-13
3.56111e-13
3.06825e-13
2.19799e-13
2.72614e-13
1.52956e-13
2.53651e-13
1.41781e-13
2.35577e-13
6.03462e-14
2.04489e-13
4.53796e-14
1.86176e-13
2.57981e-13
1.88378e-13
6.33631e-14
1.32584e-13
5.76146e-13
1.59724e-13
-5.39351e-14
-9.90578e-14
7.47973e-13
-2.41779e-13
1.17584e-11
1.6425e-11
9.63461e-12
1.55726e-11
7.94385e-12
1.17898e-11
6.54778e-12
1.01187e-11
5.30106e-12
8.05915e-12
4.35882e-12
6.67373e-12
3.58151e-12
5.52679e-12
2.79839e-12
4.43777e-12
2.26453e-12
3.76117e-12
1.86848e-12
3.18591e-12
1.57108e-12
2.6468e-12
1.35737e-12
2.02832e-12
1.13406e-12
1.50812e-12
8.45755e-13
1.27575e-12
6.88582e-13
1.22684e-12
5.75217e-13
8.63811e-13
4.70264e-13
6.36296e-13
4.1061e-13
5.78668e-13
3.53594e-13
4.13057e-13
2.997e-13
2.73619e-13
2.60737e-13
1.91843e-13
2.42586e-13
1.59854e-13
2.34543e-13
6.83114e-14
2.12845e-13
6.69991e-14
2.06108e-13
2.6464e-13
2.05242e-13
6.41529e-14
1.67687e-13
6.13624e-13
2.05023e-13
-9.13461e-14
-1.3868e-13
1.0916e-12
-3.80497e-13
1.16502e-11
1.87749e-11
9.54807e-12
1.7675e-11
7.80644e-12
1.3531e-11
6.42212e-12
1.1503e-11
5.20566e-12
9.27538e-12
4.27442e-12
7.60495e-12
3.51792e-12
6.2832e-12
2.81918e-12
5.13649e-12
2.25998e-12
4.32033e-12
1.83495e-12
3.61093e-12
1.61038e-12
2.87135e-12
1.35545e-12
2.28323e-12
1.08565e-12
1.7779e-12
8.34233e-13
1.52713e-12
6.9797e-13
1.36306e-12
5.83306e-13
9.78426e-13
4.77187e-13
7.42358e-13
4.16713e-13
6.39078e-13
3.58266e-13
4.71436e-13
3.02314e-13
3.29498e-13
2.60787e-13
2.33295e-13
2.38597e-13
1.81967e-13
2.34412e-13
7.24205e-14
2.18291e-13
8.30424e-14
2.24062e-13
2.58792e-13
2.19583e-13
6.85568e-14
1.46559e-13
6.86574e-13
2.07611e-13
-1.52472e-13
-9.16509e-14
1.3908e-12
-4.72185e-13
1.14978e-11
2.11008e-11
9.44168e-12
1.97312e-11
7.68496e-12
1.52872e-11
6.30828e-12
1.28797e-11
5.11879e-12
1.04646e-11
4.19788e-12
8.52584e-12
3.45598e-12
7.02501e-12
2.8088e-12
5.78366e-12
2.2649e-12
4.86418e-12
1.84468e-12
4.03114e-12
1.57693e-12
3.13908e-12
1.29812e-12
2.56202e-12
1.03576e-12
2.04022e-12
8.19009e-13
1.74385e-12
6.85568e-13
1.49646e-12
5.73964e-13
1.08998e-12
4.69875e-13
8.4639e-13
4.02604e-13
7.06286e-13
3.47172e-13
5.26799e-13
2.94557e-13
3.82041e-13
2.5484e-13
2.72938e-13
2.31984e-13
2.04747e-13
2.31723e-13
7.26059e-14
2.23416e-13
9.12739e-14
2.49205e-13
2.32928e-13
2.41091e-13
7.65966e-14
1.52714e-13
7.74878e-13
2.57846e-13
-2.57676e-13
-4.53953e-14
1.69397e-12
-5.17616e-13
1.1315e-11
2.34085e-11
9.30373e-12
2.17427e-11
7.55902e-12
1.70315e-11
6.19604e-12
1.42427e-11
5.04161e-12
1.16189e-11
4.13278e-12
9.43465e-12
3.39705e-12
7.76065e-12
2.7706e-12
6.41009e-12
2.24941e-12
5.38534e-12
1.84244e-12
4.4381e-12
1.53335e-12
3.44814e-12
1.25411e-12
2.84124e-12
9.98187e-13
2.29612e-12
8.10412e-13
1.9316e-12
6.72009e-13
1.63482e-12
5.68118e-13
1.19382e-12
4.75012e-13
9.3944e-13
4.04698e-13
7.76538e-13
3.51261e-13
5.80168e-13
2.99276e-13
4.33955e-13
2.6135e-13
3.10791e-13
2.35142e-13
2.3088e-13
2.29086e-13
7.85877e-14
2.23824e-13
9.64608e-14
2.39009e-13
2.1767e-13
2.27493e-13
8.80401e-14
1.2962e-13
8.7268e-13
1.89912e-13
-3.18039e-13
-1.0077e-13
1.98459e-12
-6.18421e-13
1.11062e-11
2.56983e-11