/*--------------------------------*- C++ -*----------------------------------*\
| =========                 |                                                 |
| \\      /  F ield         | OpenFOAM: The Open Source CFD Toolbox           |
|  \\    /   O peration     | Version:  2.4.0                                 |
|   \\  /    A nd           | Web:      www.OpenFOAM.org                      |
|    \\/     M anipulation  |                                                 |
\*---------------------------------------------------------------------------*/
FoamFile
{
    version     2.0;
    format      ascii;
    class       volScalarField;
    location    "0.168";
    object      p;
}
// * * * * * * * * * * * * * * * * * * * * * * * * * * * * * * * * * * * * * //

dimensions      [1 -1 -2 0 0 0 0];

internalField   nonuniform List<scalar> 
60000
(
96.7852
96.7852
96.7851
96.785
96.7849
96.7847
96.7845
96.7842
96.784
96.7837
96.7834
96.783
96.7827
96.7823
96.7819
96.7815
96.7811
96.7807
96.7802
96.7798
96.7794
96.7789
96.7785
96.778
96.7776
96.7772
96.7767
96.7763
96.7759
96.7755
96.7751
96.7748
96.7744
96.7741
96.7738
96.7735
96.7733
96.7731
96.7729
96.7728
96.7727
96.7727
96.7727
96.7728
96.7729
96.7732
96.7735
96.7739
96.7743
96.7749
96.7756
96.7764
96.7773
96.7784
96.7795
96.7809
96.7823
96.784
96.7858
96.7878
96.7899
96.7923
96.7949
96.7978
96.8008
96.8042
96.8078
96.8116
96.8158
96.8203
96.8252
96.8304
96.836
96.8419
96.8483
96.8552
96.8625
96.8703
96.8786
96.8874
96.8968
96.9069
96.9175
96.9288
96.9407
96.9534
96.9668
96.9809
96.9959
97.0116
97.0282
97.0456
97.0639
97.0831
97.1031
97.1241
97.146
97.1688
97.1925
97.2171
94.8232
94.8232
94.8231
94.823
94.8229
94.8227
94.8225
94.8223
94.822
94.8217
94.8214
94.8211
94.8207
94.8203
94.8199
94.8195
94.8191
94.8187
94.8183
94.8178
94.8174
94.8169
94.8165
94.816
94.8156
94.8152
94.8147
94.8143
94.8139
94.8135
94.8131
94.8128
94.8124
94.8121
94.8118
94.8115
94.8113
94.8111
94.8109
94.8108
94.8107
94.8106
94.8107
94.8108
94.8109
94.8111
94.8115
94.8118
94.8123
94.8129
94.8136
94.8144
94.8153
94.8163
94.8175
94.8188
94.8203
94.8219
94.8237
94.8257
94.8279
94.8303
94.8329
94.8357
94.8388
94.8421
94.8457
94.8496
94.8538
94.8583
94.8631
94.8683
94.8739
94.8799
94.8862
94.8931
94.9004
94.9082
94.9165
94.9253
94.9347
94.9447
94.9553
94.9666
94.9786
94.9912
95.0046
95.0188
95.0337
95.0494
95.066
95.0834
95.1017
95.1209
95.1409
95.1619
95.1838
95.2066
95.2303
95.2549
92.8612
92.8612
92.8611
92.861
92.8609
92.8607
92.8605
92.8603
92.86
92.8597
92.8594
92.8591
92.8587
92.8583
92.8579
92.8575
92.8571
92.8567
92.8563
92.8558
92.8554
92.8549
92.8545
92.854
92.8536
92.8532
92.8527
92.8523
92.8519
92.8515
92.8511
92.8508
92.8504
92.8501
92.8498
92.8495
92.8493
92.8491
92.8489
92.8487
92.8487
92.8486
92.8487
92.8487
92.8489
92.8491
92.8494
92.8498
92.8503
92.8509
92.8516
92.8523
92.8533
92.8543
92.8555
92.8568
92.8582
92.8599
92.8617
92.8637
92.8658
92.8682
92.8708
92.8736
92.8767
92.88
92.8836
92.8875
92.8916
92.8961
92.901
92.9061
92.9117
92.9177
92.924
92.9309
92.9382
92.9459
92.9542
92.963
92.9724
92.9824
92.993
93.0043
93.0163
93.0289
93.0423
93.0564
93.0713
93.087
93.1036
93.121
93.1393
93.1584
93.1785
93.1995
93.2214
93.2442
93.2678
93.2924
90.8993
90.8992
90.8992
90.899
90.8989
90.8987
90.8985
90.8983
90.898
90.8977
90.8974
90.8971
90.8967
90.8963
90.896
90.8955
90.8951
90.8947
90.8943
90.8938
90.8934
90.8929
90.8925
90.892
90.8916
90.8912
90.8907
90.8903
90.8899
90.8895
90.8891
90.8888
90.8884
90.8881
90.8878
90.8875
90.8872
90.887
90.8869
90.8867
90.8866
90.8866
90.8866
90.8867
90.8869
90.8871
90.8874
90.8878
90.8882
90.8888
90.8895
90.8903
90.8912
90.8922
90.8934
90.8947
90.8961
90.8978
90.8996
90.9015
90.9037
90.9061
90.9086
90.9115
90.9145
90.9178
90.9214
90.9253
90.9294
90.9339
90.9387
90.9439
90.9494
90.9554
90.9617
90.9685
90.9758
90.9836
90.9918
91.0006
91.01
91.02
91.0306
91.0418
91.0538
91.0664
91.0797
91.0938
91.1087
91.1244
91.141
91.1584
91.1766
91.1958
91.2158
91.2368
91.2587
91.2815
91.3052
91.3298
88.9373
88.9373
88.9372
88.9371
88.9369
88.9368
88.9366
88.9363
88.9361
88.9358
88.9354
88.9351
88.9347
88.9344
88.934
88.9336
88.9331
88.9327
88.9323
88.9318
88.9314
88.9309
88.9305
88.93
88.9296
88.9292
88.9287
88.9283
88.9279
88.9275
88.9271
88.9267
88.9264
88.9261
88.9258
88.9255
88.9252
88.925
88.9248
88.9247
88.9246
88.9246
88.9246
88.9246
88.9248
88.925
88.9253
88.9257
88.9262
88.9267
88.9274
88.9282
88.9291
88.9301
88.9312
88.9325
88.934
88.9356
88.9374
88.9394
88.9415
88.9439
88.9464
88.9492
88.9523
88.9556
88.9591
88.963
88.9671
88.9716
88.9764
88.9815
88.9871
88.993
88.9993
89.0061
89.0133
89.0211
89.0293
89.0381
89.0475
89.0574
89.068
89.0792
89.0911
89.1037
89.117
89.1311
89.146
89.1616
89.1782
89.1955
89.2138
89.2329
89.253
89.2739
89.2958
89.3186
89.3423
89.3669
86.9754
86.9753
86.9752
86.9751
86.975
86.9748
86.9746
86.9744
86.9741
86.9738
86.9735
86.9731
86.9728
86.9724
86.972
86.9716
86.9712
86.9707
86.9703
86.9698
86.9694
86.9689
86.9685
86.968
86.9676
86.9672
86.9667
86.9663
86.9659
86.9655
86.9651
86.9647
86.9644
86.964
86.9637
86.9634
86.9632
86.963
86.9628
86.9626
86.9625
86.9625
86.9625
86.9626
86.9627
86.9629
86.9632
86.9636
86.964
86.9646
86.9653
86.966
86.9669
86.9679
86.9691
86.9704
86.9718
86.9734
86.9752
86.9771
86.9793
86.9816
86.9842
86.987
86.99
86.9932
86.9968
87.0006
87.0047
87.0092
87.014
87.0191
87.0246
87.0305
87.0368
87.0435
87.0508
87.0585
87.0667
87.0754
87.0847
87.0947
87.1052
87.1164
87.1282
87.1408
87.1541
87.1681
87.183
87.1986
87.2151
87.2325
87.2507
87.2698
87.2899
87.3108
87.3327
87.3555
87.3792
87.4039
85.0134
85.0134
85.0133
85.0132
85.013
85.0129
85.0126
85.0124
85.0121
85.0118
85.0115
85.0112
85.0108
85.0104
85.01
85.0096
85.0092
85.0087
85.0083
85.0078
85.0074
85.0069
85.0065
85.006
85.0056
85.0052
85.0047
85.0043
85.0039
85.0035
85.0031
85.0027
85.0023
85.002
85.0017
85.0014
85.0011
85.0009
85.0007
85.0006
85.0005
85.0004
85.0004
85.0005
85.0006
85.0008
85.0011
85.0015
85.0019
85.0025
85.0031
85.0039
85.0048
85.0058
85.0069
85.0082
85.0096
85.0112
85.0129
85.0149
85.017
85.0193
85.0218
85.0246
85.0276
85.0309
85.0344
85.0382
85.0423
85.0467
85.0514
85.0565
85.062
85.0679
85.0742
85.0809
85.0881
85.0957
85.1039
85.1126
85.1219
85.1317
85.1422
85.1534
85.1652
85.1777
85.191
85.205
85.2198
85.2354
85.2519
85.2692
85.2874
85.3065
85.3265
85.3475
85.3693
85.3922
85.4159
85.4406
83.0515
83.0514
83.0514
83.0512
83.0511
83.0509
83.0507
83.0505
83.0502
83.0499
83.0496
83.0492
83.0488
83.0484
83.048
83.0476
83.0472
83.0468
83.0463
83.0459
83.0454
83.0449
83.0445
83.044
83.0436
83.0432
83.0427
83.0423
83.0419
83.0415
83.0411
83.0407
83.0403
83.04
83.0397
83.0394
83.0391
83.0389
83.0387
83.0385
83.0384
83.0383
83.0383
83.0384
83.0385
83.0387
83.039
83.0393
83.0398
83.0403
83.0409
83.0417
83.0425
83.0435
83.0447
83.0459
83.0473
83.0489
83.0506
83.0525
83.0547
83.057
83.0595
83.0622
83.0652
83.0684
83.0719
83.0757
83.0797
83.0841
83.0888
83.0939
83.0993
83.1052
83.1114
83.1181
83.1252
83.1328
83.141
83.1496
83.1589
83.1687
83.1791
83.1902
83.202
83.2145
83.2277
83.2416
83.2564
83.272
83.2884
83.3057
83.3238
83.3429
83.3629
83.3839
83.4058
83.4286
83.4524
83.4771
81.0895
81.0895
81.0894
81.0893
81.0892
81.089
81.0888
81.0885
81.0882
81.0879
81.0876
81.0872
81.0869
81.0865
81.0861
81.0856
81.0852
81.0848
81.0843
81.0839
81.0834
81.083
81.0825
81.082
81.0816
81.0811
81.0807
81.0803
81.0799
81.0794
81.079
81.0787
81.0783
81.0779
81.0776
81.0773
81.077
81.0768
81.0766
81.0764
81.0763
81.0762
81.0762
81.0763
81.0764
81.0766
81.0768
81.0772
81.0776
81.0781
81.0787
81.0795
81.0803
81.0813
81.0824
81.0836
81.085
81.0866
81.0883
81.0902
81.0923
81.0945
81.097
81.0998
81.1027
81.1059
81.1094
81.1131
81.1171
81.1215
81.1262
81.1312
81.1366
81.1424
81.1486
81.1552
81.1623
81.1698
81.1779
81.1865
81.1957
81.2055
81.2159
81.2269
81.2386
81.251
81.2642
81.2781
81.2928
81.3083
81.3247
81.342
81.3601
81.3791
81.3991
81.4201
81.4419
81.4648
81.4886
81.5133
79.1276
79.1276
79.1275
79.1274
79.1272
79.1271
79.1268
79.1266
79.1263
79.126
79.1257
79.1253
79.1249
79.1245
79.1241
79.1237
79.1232
79.1228
79.1223
79.1219
79.1214
79.121
79.1205
79.12
79.1196
79.1191
79.1187
79.1183
79.1178
79.1174
79.117
79.1166
79.1162
79.1159
79.1156
79.1152
79.115
79.1147
79.1145
79.1143
79.1142
79.1141
79.1141
79.1141
79.1142
79.1144
79.1146
79.115
79.1154
79.1159
79.1165
79.1172
79.1181
79.119
79.1201
79.1213
79.1227
79.1242
79.1259
79.1278
79.1298
79.1321
79.1345
79.1372
79.1401
79.1433
79.1467
79.1504
79.1544
79.1587
79.1634
79.1684
79.1737
79.1794
79.1856
79.1922
79.1992
79.2067
79.2147
79.2233
79.2324
79.2421
79.2524
79.2634
79.2751
79.2874
79.3005
79.3144
79.329
79.3445
79.3608
79.378
79.3961
79.4151
79.4351
79.456
79.4779
79.5007
79.5246
79.5493
77.1657
77.1657
77.1656
77.1655
77.1653
77.1651
77.1649
77.1647
77.1644
77.1641
77.1637
77.1633
77.163
77.1626
77.1621
77.1617
77.1613
77.1608
77.1603
77.1599
77.1594
77.159
77.1585
77.158
77.1576
77.1571
77.1567
77.1562
77.1558
77.1554
77.155
77.1546
77.1542
77.1538
77.1535
77.1532
77.1529
77.1526
77.1524
77.1522
77.1521
77.152
77.152
77.152
77.1521
77.1522
77.1524
77.1528
77.1532
77.1536
77.1542
77.1549
77.1558
77.1567
77.1578
77.159
77.1603
77.1618
77.1635
77.1653
77.1674
77.1696
77.172
77.1747
77.1775
77.1807
77.1841
77.1877
77.1917
77.1959
77.2005
77.2054
77.2107
77.2164
77.2225
77.229
77.236
77.2435
77.2514
77.2599
77.2689
77.2786
77.2888
77.2997
77.3113
77.3236
77.3366
77.3504
77.365
77.3804
77.3967
77.4138
77.4319
77.4509
77.4708
77.4917
77.5136
77.5364
77.5603
77.5851
75.2038
75.2038
75.2037
75.2036
75.2034
75.2032
75.203
75.2027
75.2024
75.2021
75.2018
75.2014
75.201
75.2006
75.2002
75.1997
75.1993
75.1988
75.1984
75.1979
75.1974
75.197
75.1965
75.196
75.1956
75.1951
75.1947
75.1942
75.1938
75.1934
75.1929
75.1925
75.1921
75.1918
75.1914
75.1911
75.1908
75.1905
75.1903
75.1901
75.19
75.1898
75.1898
75.1898
75.1899
75.19
75.1902
75.1905
75.1909
75.1914
75.192
75.1926
75.1934
75.1943
75.1954
75.1966
75.1979
75.1994
75.201
75.2028
75.2048
75.207
75.2094
75.212
75.2149
75.218
75.2213
75.2249
75.2288
75.233
75.2376
75.2424
75.2477
75.2533
75.2593
75.2658
75.2727
75.2801
75.288
75.2964
75.3053
75.3149
75.3251
75.3359
75.3474
75.3596
75.3726
75.3863
75.4008
75.4161
75.4323
75.4494
75.4674
75.4864
75.5063
75.5272
75.549
75.5719
75.5958
75.6207
73.2419
73.2419
73.2418
73.2417
73.2415
73.2413
73.2411
73.2408
73.2405
73.2402
73.2399
73.2395
73.2391
73.2387
73.2382
73.2378
73.2373
73.2369
73.2364
73.2359
73.2354
73.235
73.2345
73.234
73.2336
73.2331
73.2326
73.2322
73.2318
73.2313
73.2309
73.2305
73.2301
73.2297
73.2294
73.229
73.2287
73.2284
73.2282
73.228
73.2278
73.2277
73.2276
73.2276
73.2277
73.2278
73.228
73.2283
73.2286
73.2291
73.2296
73.2303
73.2311
73.232
73.233
73.2341
73.2354
73.2369
73.2385
73.2403
73.2422
73.2444
73.2468
73.2493
73.2521
73.2552
73.2585
73.262
73.2659
73.2701
73.2745
73.2794
73.2845
73.2901
73.296
73.3024
73.3093
73.3166
73.3244
73.3327
73.3416
73.3511
73.3612
73.3719
73.3833
73.3954
73.4083
73.4219
73.4364
73.4516
73.4678
73.4848
73.5027
73.5216
73.5415
73.5624
73.5842
73.6071
73.631
73.656
71.2801
71.28
71.2799
71.2798
71.2796
71.2794
71.2792
71.2789
71.2786
71.2783
71.2779
71.2775
71.2771
71.2767
71.2763
71.2758
71.2753
71.2749
71.2744
71.2739
71.2734
71.273
71.2725
71.272
71.2715
71.2711
71.2706
71.2702
71.2697
71.2693
71.2689
71.2684
71.268
71.2676
71.2673
71.2669
71.2666
71.2663
71.2661
71.2658
71.2657
71.2655
71.2654
71.2654
71.2655
71.2656
71.2657
71.266
71.2663
71.2668
71.2673
71.2679
71.2687
71.2696
71.2705
71.2717
71.2729
71.2744
71.2759
71.2777
71.2796
71.2817
71.2841
71.2866
71.2893
71.2923
71.2956
71.2991
71.3029
71.307
71.3114
71.3162
71.3213
71.3268
71.3326
71.339
71.3457
71.3529
71.3607
71.3689
71.3777
71.3871
71.3971
71.4077
71.4191
71.4311
71.4439
71.4574
71.4717
71.4869
71.503
71.5199
71.5378
71.5567
71.5765
71.5973
71.6192
71.6421
71.666
71.691
69.3182
69.3181
69.3181
69.3179
69.3178
69.3176
69.3173
69.317
69.3167
69.3164
69.316
69.3156
69.3152
69.3148
69.3143
69.3139
69.3134
69.3129
69.3124
69.3119
69.3114
69.311
69.3105
69.31
69.3095
69.3091
69.3086
69.3081
69.3077
69.3072
69.3068
69.3064
69.306
69.3056
69.3052
69.3048
69.3045
69.3042
69.3039
69.3037
69.3035
69.3033
69.3032
69.3032
69.3032
69.3033
69.3035
69.3037
69.304
69.3044
69.3049
69.3056
69.3063
69.3071
69.3081
69.3092
69.3104
69.3118
69.3133
69.3151
69.3169
69.319
69.3213
69.3238
69.3265
69.3294
69.3326
69.3361
69.3398
69.3439
69.3482
69.3529
69.3579
69.3633
69.3691
69.3754
69.382
69.3892
69.3968
69.405
69.4137
69.423
69.4329
69.4434
69.4546
69.4665
69.4792
69.4927
69.5069
69.522
69.538
69.5549
69.5727
69.5915
69.6112
69.632
69.6539
69.6768
69.7007
69.7258
67.3563
67.3563
67.3562
67.3561
67.3559
67.3557
67.3554
67.3551
67.3548
67.3545
67.3541
67.3537
67.3533
67.3528
67.3524
67.3519
67.3514
67.3509
67.3504
67.3499
67.3495
67.349
67.3485
67.348
67.3475
67.347
67.3466
67.3461
67.3457
67.3452
67.3448
67.3443
67.3439
67.3435
67.3431
67.3427
67.3424
67.3421
67.3418
67.3415
67.3413
67.3412
67.341
67.341
67.341
67.341
67.3412
67.3414
67.3417
67.3421
67.3426
67.3431
67.3438
67.3446
67.3456
67.3466
67.3478
67.3492
67.3507
67.3524
67.3542
67.3563
67.3585
67.3609
67.3636
67.3665
67.3696
67.373
67.3767
67.3806
67.3849
67.3895
67.3945
67.3998
67.4055
67.4117
67.4182
67.4253
67.4328
67.4409
67.4495
67.4587
67.4685
67.4789
67.49
67.5018
67.5144
67.5277
67.5419
67.5569
67.5727
67.5895
67.6073
67.626
67.6457
67.6665
67.6883
67.7112
67.7352
67.7603
65.3945
65.3944
65.3943
65.3942
65.394
65.3938
65.3936
65.3933
65.3929
65.3926
65.3922
65.3918
65.3913
65.3909
65.3904
65.3899
65.3895
65.389
65.3885
65.388
65.3875
65.387
65.3865
65.386
65.3855
65.385
65.3845
65.3841
65.3836
65.3832
65.3827
65.3823
65.3818
65.3814
65.381
65.3806
65.3803
65.3799
65.3796
65.3794
65.3791
65.3789
65.3788
65.3787
65.3787
65.3788
65.3789
65.3791
65.3793
65.3797
65.3801
65.3807
65.3814
65.3821
65.383
65.3841
65.3852
65.3866
65.388
65.3896
65.3915
65.3934
65.3956
65.398
65.4006
65.4034
65.4065
65.4098
65.4135
65.4173
65.4216
65.4261
65.431
65.4362
65.4418
65.4479
65.4543
65.4613
65.4687
65.4767
65.4851
65.4942
65.5039
65.5142
65.5252
65.5369
65.5493
65.5626
65.5766
65.5915
65.6073
65.624
65.6416
65.6603
65.6799
65.7007
65.7224
65.7453
65.7694
65.7945
63.4326
63.4326
63.4325
63.4324
63.4322
63.432
63.4317
63.4314
63.4311
63.4307
63.4303
63.4299
63.4294
63.429
63.4285
63.428
63.4275
63.427
63.4265
63.426
63.4255
63.425
63.4245
63.424
63.4235
63.423
63.4225
63.422
63.4216
63.4211
63.4207
63.4202
63.4198
63.4193
63.4189
63.4185
63.4181
63.4178
63.4175
63.4172
63.4169
63.4167
63.4166
63.4165
63.4164
63.4164
63.4165
63.4167
63.4169
63.4173
63.4177
63.4182
63.4189
63.4196
63.4205
63.4215
63.4226
63.4239
63.4253
63.4269
63.4286
63.4306
63.4327
63.435
63.4376
63.4403
63.4434
63.4466
63.4502
63.454
63.4581
63.4625
63.4673
63.4725
63.478
63.484
63.4903
63.4972
63.5045
63.5123
63.5207
63.5296
63.5392
63.5494
63.5602
63.5718
63.5841
63.5972
63.6111
63.6259
63.6416
63.6582
63.6757
63.6943
63.7139
63.7346
63.7563
63.7792
63.8033
63.8285
61.4708
61.4708
61.4707
61.4705
61.4704
61.4701
61.4699
61.4695
61.4692
61.4688
61.4684
61.468
61.4675
61.467
61.4665
61.466
61.4655
61.465
61.4645
61.464
61.4635
61.463
61.4625
61.462
61.4615
61.461
61.4605
61.46
61.4595
61.4591
61.4586
61.4581
61.4577
61.4572
61.4568
61.4564
61.456
61.4556
61.4553
61.455
61.4547
61.4545
61.4543
61.4542
61.4541
61.4541
61.4542
61.4543
61.4545
61.4549
61.4552
61.4557
61.4563
61.4571
61.4579
61.4588
61.4599
61.4612
61.4625
61.4641
61.4658
61.4677
61.4697
61.472
61.4745
61.4772
61.4801
61.4833
61.4868
61.4905
61.4946
61.4989
61.5036
61.5087
61.5141
61.5199
61.5262
61.5329
61.5401
61.5478
61.5561
61.5649
61.5743
61.5844
61.5951
61.6065
61.6187
61.6317
61.6455
61.6601
61.6756
61.6921
61.7096
61.7281
61.7476
61.7682
61.7899
61.8128
61.8369
61.8621
59.509
59.509
59.5089
59.5087
59.5085
59.5083
59.508
59.5077
59.5073
59.507
59.5065
59.5061
59.5056
59.5051
59.5046
59.5041
59.5036
59.503
59.5025
59.502
59.5015
59.5009
59.5004
59.4999
59.4994
59.4989
59.4985
59.498
59.4975
59.497
59.4965
59.4961
59.4956
59.4952
59.4947
59.4943
59.4939
59.4935
59.4931
59.4928
59.4925
59.4923
59.4921
59.4919
59.4918
59.4918
59.4918
59.4919
59.4921
59.4924
59.4928
59.4932
59.4938
59.4945
59.4953
59.4962
59.4972
59.4984
59.4997
59.5012
59.5029
59.5047
59.5067
59.5089
59.5114
59.514
59.5169
59.52
59.5234
59.527
59.531
59.5352
59.5398
59.5448
59.5501
59.5558
59.5619
59.5685
59.5756
59.5832
59.5913
59.6
59.6093
59.6192
59.6298
59.6411
59.6531
59.6659
59.6796
59.6941
59.7095
59.7258
59.7432
59.7616
59.781
59.8015
59.8232
59.8461
59.8702
59.8955
57.5472
57.5472
57.5471
57.5469
57.5467
57.5465
57.5462
57.5459
57.5455
57.5451
57.5447
57.5442
57.5437
57.5432
57.5427
57.5421
57.5416
57.5411
57.5405
57.54
57.5395
57.5389
57.5384
57.5379
57.5374
57.5369
57.5364
57.5359
57.5354
57.535
57.5345
57.534
57.5335
57.5331
57.5326
57.5322
57.5317
57.5313
57.5309
57.5306
57.5303
57.53
57.5298
57.5296
57.5295
57.5294
57.5294
57.5295
57.5297
57.5299
57.5302
57.5307
57.5312
57.5318
57.5326
57.5335
57.5345
57.5356
57.5369
57.5383
57.5399
57.5417
57.5437
57.5458
57.5482
57.5507
57.5535
57.5566
57.5598
57.5634
57.5673
57.5714
57.5759
57.5807
57.586
57.5916
57.5976
57.604
57.611
57.6184
57.6264
57.6349
57.6441
57.6538
57.6643
57.6754
57.6873
57.7
57.7134
57.7278
57.7431
57.7593
57.7765
57.7948
57.8141
57.8346
57.8563
57.8791
57.9032
57.9285
55.5854
55.5854
55.5853
55.5851
55.5849
55.5847
55.5844
55.584
55.5837
55.5832
55.5828
55.5823
55.5818
55.5813
55.5807
55.5802
55.5796
55.5791
55.5785
55.578
55.5775
55.5769
55.5764
55.5759
55.5754
55.5749
55.5744
55.5739
55.5734
55.5729
55.5724
55.5719
55.5714
55.571
55.5705
55.57
55.5696
55.5692
55.5688
55.5684
55.568
55.5677
55.5675
55.5673
55.5671
55.5671
55.567
55.5671
55.5672
55.5674
55.5677
55.5681
55.5686
55.5692
55.5699
55.5707
55.5717
55.5728
55.574
55.5754
55.5769
55.5787
55.5806
55.5826
55.5849
55.5874
55.5901
55.5931
55.5963
55.5997
55.6035
55.6075
55.6119
55.6167
55.6217
55.6272
55.6331
55.6394
55.6462
55.6535
55.6613
55.6697
55.6787
55.6883
55.6986
55.7096
55.7213
55.7338
55.7471
55.7613
55.7764
55.7925
55.8096
55.8278
55.847
55.8674
55.889
55.9118
55.9359
55.9612
53.6237
53.6236
53.6235
53.6233
53.6231
53.6229
53.6226
53.6222
53.6218
53.6214
53.6209
53.6204
53.6199
53.6194
53.6188
53.6182
53.6177
53.6171
53.6166
53.616
53.6155
53.6149
53.6144
53.6139
53.6134
53.6129
53.6124
53.6119
53.6114
53.6109
53.6104
53.6099
53.6094
53.6089
53.6084
53.6079
53.6074
53.607
53.6066
53.6062
53.6058
53.6055
53.6052
53.605
53.6048
53.6047
53.6046
53.6046
53.6047
53.6049
53.6052
53.6055
53.606
53.6065
53.6072
53.608
53.6089
53.6099
53.6111
53.6124
53.6139
53.6156
53.6174
53.6194
53.6216
53.624
53.6267
53.6295
53.6326
53.636
53.6396
53.6436
53.6479
53.6525
53.6574
53.6628
53.6685
53.6747
53.6814
53.6885
53.6962
53.7044
53.7132
53.7226
53.7327
53.7435
53.7551
53.7674
53.7806
53.7946
53.8096
53.8255
53.8424
53.8605
53.8796
53.8999
53.9214
53.9441
53.9682
53.9936
51.6619
51.6618
51.6617
51.6616
51.6613
51.6611
51.6608
51.6604
51.66
51.6596
51.6591
51.6586
51.658
51.6575
51.6569
51.6563
51.6557
51.6551
51.6546
51.654
51.6535
51.6529
51.6524
51.6519
51.6513
51.6508
51.6503
51.6498
51.6493
51.6488
51.6483
51.6478
51.6473
51.6468
51.6463
51.6458
51.6453
51.6448
51.6444
51.6439
51.6435
51.6432
51.6429
51.6426
51.6424
51.6423
51.6422
51.6422
51.6422
51.6424
51.6426
51.6429
51.6433
51.6438
51.6444
51.6452
51.646
51.647
51.6481
51.6494
51.6508
51.6524
51.6542
51.6561
51.6583
51.6606
51.6631
51.6659
51.6689
51.6722
51.6757
51.6796
51.6837
51.6882
51.693
51.6982
51.7038
51.7099
51.7164
51.7233
51.7308
51.7389
51.7475
51.7568
51.7667
51.7773
51.7887
51.8008
51.8138
51.8277
51.8424
51.8582
51.875
51.8929
51.9119
51.9321
51.9535
51.9762
52.0002
52.0257
49.7001
49.7001
49.7
49.6998
49.6996
49.6993
49.699
49.6986
49.6982
49.6977
49.6972
49.6967
49.6961
49.6956
49.695
49.6944
49.6938
49.6932
49.6926
49.692
49.6914
49.6909
49.6904
49.6898
49.6893
49.6888
49.6883
49.6878
49.6873
49.6868
49.6862
49.6857
49.6852
49.6847
49.6841
49.6836
49.6831
49.6826
49.6821
49.6817
49.6813
49.6809
49.6805
49.6803
49.68
49.6798
49.6797
49.6797
49.6797
49.6798
49.68
49.6802
49.6806
49.6811
49.6817
49.6823
49.6831
49.6841
49.6852
49.6864
49.6877
49.6893
49.6909
49.6928
49.6949
49.6971
49.6996
49.7022
49.7051
49.7083
49.7117
49.7155
49.7195
49.7238
49.7285
49.7336
49.739
49.7449
49.7512
49.7581
49.7654
49.7732
49.7817
49.7908
49.8005
49.8109
49.8221
49.834
49.8468
49.8605
49.8751
49.8907
49.9073
49.925
49.9439
49.9639
49.9852
50.0079
50.0319
50.0574
47.7384
47.7383
47.7382
47.7381
47.7378
47.7375
47.7372
47.7368
47.7364
47.7359
47.7354
47.7348
47.7343
47.7337
47.733
47.7324
47.7318
47.7312
47.7306
47.73
47.7294
47.7289
47.7283
47.7278
47.7273
47.7268
47.7263
47.7257
47.7252
47.7247
47.7242
47.7236
47.7231
47.7226
47.722
47.7215
47.7209
47.7204
47.7199
47.7194
47.719
47.7186
47.7182
47.7179
47.7176
47.7174
47.7172
47.7172
47.7171
47.7172
47.7174
47.7176
47.7179
47.7183
47.7188
47.7195
47.7202
47.7211
47.7221
47.7233
47.7246
47.726
47.7277
47.7294
47.7314
47.7336
47.7359
47.7385
47.7413
47.7444
47.7477
47.7513
47.7552
47.7594
47.7639
47.7688
47.7741
47.7798
47.786
47.7926
47.7998
47.8075
47.8157
47.8246
47.8341
47.8443
47.8553
47.867
47.8796
47.8931
47.9075
47.9229
47.9393
47.9568
47.9755
47.9955
48.0167
48.0393
48.0632
48.0887
45.7767
45.7766
45.7765
45.7763
45.7761
45.7758
45.7755
45.7751
45.7746
45.7741
45.7736
45.773
45.7724
45.7718
45.7711
45.7705
45.7698
45.7692
45.7686
45.768
45.7674
45.7668
45.7663
45.7658
45.7652
45.7647
45.7642
45.7637
45.7632
45.7627
45.7621
45.7616
45.761
45.7605
45.7599
45.7593
45.7588
45.7582
45.7577
45.7572
45.7567
45.7563
45.7559
45.7555
45.7552
45.7549
45.7548
45.7546
45.7546
45.7546
45.7547
45.7549
45.7552
45.7555
45.756
45.7566
45.7573
45.7581
45.7591
45.7602
45.7614
45.7628
45.7643
45.766
45.7679
45.77
45.7722
45.7747
45.7774
45.7803
45.7835
45.787
45.7908
45.7948
45.7992
45.804
45.8091
45.8147
45.8206
45.8271
45.834
45.8415
45.8496
45.8582
45.8676
45.8776
45.8883
45.8998
45.9122
45.9254
45.9396
45.9548
45.971
45.9884
46.0069
46.0267
46.0478
46.0703
46.0942
46.1196
43.815
43.8149
43.8148
43.8146
43.8144
43.8141
43.8137
43.8133
43.8128
43.8123
43.8117
43.8111
43.8105
43.8099
43.8092
43.8085
43.8079
43.8072
43.8066
43.806
43.8054
43.8048
43.8043
43.8037
43.8032
43.8027
43.8022
43.8017
43.8011
43.8006
43.8001
43.7995
43.7989
43.7984
43.7978
43.7972
43.7966
43.796
43.7955
43.7949
43.7944
43.7939
43.7935
43.7931
43.7928
43.7925
43.7923
43.7921
43.792
43.792
43.792
43.7922
43.7924
43.7927
43.7932
43.7937
43.7943
43.7951
43.796
43.797
43.7982
43.7995
43.8009
43.8026
43.8044
43.8063
43.8085
43.8109
43.8135
43.8163
43.8193
43.8227
43.8263
43.8302
43.8344
43.839
43.844
43.8494
43.8552
43.8614
43.8682
43.8755
43.8833
43.8917
43.9008
43.9106
43.9211
43.9324
43.9445
43.9575
43.9715
43.9865
44.0025
44.0196
44.038
44.0576
44.0786
44.1009
44.1248
44.1502
41.8533
41.8532
41.8531
41.8529
41.8527
41.8524
41.852
41.8515
41.8511
41.8505
41.8499
41.8493
41.8486
41.848
41.8473
41.8466
41.8459
41.8452
41.8446
41.844
41.8434
41.8428
41.8422
41.8417
41.8412
41.8407
41.8401
41.8396
41.8391
41.8386
41.838
41.8374
41.8369
41.8363
41.8357
41.835
41.8344
41.8338
41.8332
41.8327
41.8321
41.8316
41.8311
41.8307
41.8303
41.83
41.8297
41.8295
41.8294
41.8293
41.8294
41.8294
41.8296
41.8299
41.8303
41.8307
41.8313
41.832
41.8329
41.8338
41.8349
41.8361
41.8375
41.8391
41.8408
41.8427
41.8447
41.847
41.8494
41.8521
41.8551
41.8583
41.8617
41.8655
41.8696
41.874
41.8788
41.884
41.8896
41.8956
41.9022
41.9092
41.9169
41.9251
41.9339
41.9435
41.9537
41.9648
41.9767
41.9894
42.0031
42.0179
42.0337
42.0506
42.0687
42.0882
42.109
42.1312
42.155
42.1803
39.8916
39.8916
39.8914
39.8912
39.891
39.8907
39.8903
39.8898
39.8893
39.8887
39.8881
39.8875
39.8868
39.8861
39.8854
39.8846
39.8839
39.8832
39.8826
39.8819
39.8813
39.8808
39.8802
39.8797
39.8791
39.8786
39.8781
39.8776
39.8771
39.8765
39.876
39.8754
39.8748
39.8742
39.8735
39.8729
39.8723
39.8716
39.871
39.8704
39.8698
39.8692
39.8687
39.8683
39.8679
39.8675
39.8672
39.867
39.8668
39.8667
39.8666
39.8667
39.8668
39.867
39.8674
39.8678
39.8683
39.8689
39.8697
39.8706
39.8716
39.8728
39.8741
39.8755
39.8771
39.8789
39.8809
39.883
39.8854
39.8879
39.8907
39.8938
39.8971
39.9007
39.9046
39.9089
39.9135
39.9185
39.9239
39.9297
39.9361
39.9429
39.9503
39.9583
39.9669
39.9762
39.9862
39.997
40.0086
40.0211
40.0345
40.049
40.0645
40.0812
40.0992
40.1184
40.139
40.1611
40.1848
40.21
37.93
37.9299
37.9298
37.9296
37.9293
37.929
37.9286
37.9281
37.9276
37.927
37.9263
37.9256
37.9249
37.9242
37.9234
37.9227
37.922
37.9212
37.9206
37.9199
37.9193
37.9187
37.9182
37.9176
37.9171
37.9166
37.9161
37.9156
37.915
37.9145
37.9139
37.9133
37.9127
37.9121
37.9114
37.9108
37.9101
37.9094
37.9087
37.9081
37.9075
37.9069
37.9063
37.9058
37.9054
37.905
37.9046
37.9044
37.9042
37.904
37.9039
37.9039
37.904
37.9042
37.9044
37.9048
37.9052
37.9058
37.9065
37.9073
37.9083
37.9094
37.9106
37.912
37.9135
37.9152
37.917
37.919
37.9213
37.9237
37.9263
37.9292
37.9324
37.9358
37.9396
37.9437
37.9481
37.9529
37.9581
37.9637
37.9698
37.9764
37.9836
37.9913
37.9996
38.0087
38.0184
38.0289
38.0403
38.0525
38.0657
38.0799
38.0951
38.1116
38.1293
38.1483
38.1687
38.1906
38.2141
38.2393
35.9683
35.9683
35.9681
35.9679
35.9676
35.9673
35.9669
35.9664
35.9658
35.9652
35.9646
35.9638
35.9631
35.9623
35.9615
35.9607
35.96
35.9592
35.9585
35.9579
35.9572
35.9567
35.9561
35.9556
35.9551
35.9545
35.954
35.9535
35.953
35.9524
35.9519
35.9513
35.9506
35.95
35.9493
35.9486
35.9479
35.9472
35.9465
35.9458
35.9451
35.9445
35.9439
35.9434
35.9429
35.9425
35.9421
35.9418
35.9415
35.9413
35.9412
35.9411
35.9411
35.9413
35.9415
35.9417
35.9421
35.9427
35.9433
35.944
35.9449
35.9459
35.9471
35.9483
35.9498
35.9513
35.9531
35.955
35.9571
35.9594
35.9619
35.9646
35.9676
35.9709
35.9745
35.9783
35.9826
35.9872
35.9921
35.9976
36.0034
36.0098
36.0167
36.0241
36.0322
36.041
36.0504
36.0607
36.0717
36.0837
36.0966
36.1105
36.1255
36.1416
36.159
36.1778
36.198
36.2197
36.2431
36.2682
34.0067
34.0066
34.0065
34.0063
34.006
34.0056
34.0052
34.0047
34.0041
34.0035
34.0028
34.002
34.0012
34.0004
33.9996
33.9988
33.998
33.9972
33.9965
33.9958
33.9952
33.9946
33.994
33.9935
33.993
33.9925
33.992
33.9915
33.991
33.9904
33.9898
33.9892
33.9886
33.9879
33.9872
33.9865
33.9857
33.985
33.9842
33.9835
33.9828
33.9821
33.9815
33.9809
33.9804
33.9799
33.9795
33.9791
33.9788
33.9786
33.9784
33.9783
33.9783
33.9783
33.9785
33.9787
33.979
33.9795
33.98
33.9807
33.9815
33.9824
33.9835
33.9847
33.986
33.9875
33.9891
33.9909
33.9928
33.995
33.9974
33.9999
34.0028
34.0059
34.0093
34.013
34.017
34.0214
34.0261
34.0313
34.0369
34.043
34.0497
34.0569
34.0647
34.0731
34.0823
34.0922
34.103
34.1146
34.1272
34.1408
34.1555
34.1713
34.1885
34.207
34.2269
34.2484
34.2716
34.2966
32.0451
32.045
32.0449
32.0447
32.0444
32.044
32.0436
32.043
32.0424
32.0418
32.041
32.0402
32.0394
32.0385
32.0377
32.0368
32.036
32.0352
32.0344
32.0338
32.0331
32.0325
32.032
32.0315
32.031
32.0305
32.03
32.0295
32.029
32.0284
32.0278
32.0272
32.0265
32.0258
32.0251
32.0243
32.0236
32.0228
32.022
32.0212
32.0205
32.0197
32.0191
32.0185
32.0179
32.0174
32.0169
32.0165
32.0162
32.0159
32.0156
32.0155
32.0154
32.0154
32.0155
32.0156
32.0159
32.0163
32.0168
32.0174
32.0181
32.0189
32.0199
32.021
32.0222
32.0236
32.0251
32.0267
32.0286
32.0306
32.0328
32.0352
32.0379
32.0408
32.044
32.0475
32.0513
32.0554
32.06
32.0649
32.0703
32.0761
32.0825
32.0894
32.0969
32.1051
32.1139
32.1236
32.134
32.1453
32.1576
32.1708
32.1852
32.2008
32.2176
32.2358
32.2555
32.2767
32.2997
32.3245
30.0835
30.0834
30.0833
30.0831
30.0828
30.0824
30.0819
30.0814
30.0808
30.0801
30.0793
30.0784
30.0776
30.0767
30.0757
30.0748
30.074
30.0732
30.0724
30.0717
30.071
30.0704
30.0699
30.0694
30.0689
30.0684
30.068
30.0675
30.0669
30.0664
30.0658
30.0652
30.0645
30.0638
30.063
30.0622
30.0614
30.0605
30.0597
30.0589
30.0581
30.0573
30.0566
30.056
30.0554
30.0548
30.0543
30.0539
30.0535
30.0531
30.0528
30.0526
30.0525
30.0524
30.0524
30.0525
30.0527
30.053
30.0535
30.054
30.0546
30.0554
30.0563
30.0573
30.0584
30.0597
30.061
30.0626
30.0643
30.0661
30.0682
30.0704
30.0729
30.0756
30.0786
30.0819
30.0855
30.0895
30.0937
30.0984
30.1035
30.1091
30.1152
30.1218
30.129
30.1369
30.1454
30.1547
30.1648
30.1758
30.1877
30.2006
30.2146
30.2298
30.2463
30.2642
30.2836
30.3046
30.3273
30.3519
28.1219
28.1219
28.1217
28.1215
28.1212
28.1208
28.1203
28.1198
28.1191
28.1184
28.1176
28.1167
28.1157
28.1148
28.1138
28.1129
28.112
28.1111
28.1103
28.1096
28.1089
28.1084
28.1078
28.1073
28.1069
28.1064
28.1059
28.1055
28.1049
28.1044
28.1038
28.1031
28.1024
28.1017
28.1009
28.1001
28.0992
28.0983
28.0975
28.0966
28.0957
28.0949
28.0942
28.0935
28.0928
28.0922
28.0917
28.0912
28.0907
28.0904
28.09
28.0898
28.0895
28.0894
28.0894
28.0894
28.0895
28.0898
28.0901
28.0906
28.0911
28.0918
28.0926
28.0935
28.0946
28.0957
28.0969
28.0983
28.0999
28.1016
28.1035
28.1056
28.1079
28.1104
28.1132
28.1163
28.1197
28.1234
28.1274
28.1318
28.1367
28.142
28.1478
28.1541
28.161
28.1685
28.1767
28.1856
28.1954
28.206
28.2175
28.2301
28.2438
28.2586
28.2748
28.2923
28.3113
28.332
28.3545
28.3788
26.1604
26.1603
26.1602
26.1599
26.1596
26.1593
26.1588
26.1582
26.1575
26.1567
26.1558
26.1549
26.1539
26.1529
26.1519
26.1509
26.1499
26.149
26.1482
26.1475
26.1468
26.1462
26.1457
26.1453
26.1448
26.1444
26.1439
26.1435
26.1429
26.1424
26.1418
26.1411
26.1404
26.1396
26.1388
26.138
26.137
26.1361
26.1352
26.1343
26.1334
26.1325
26.1317
26.131
26.1303
26.1296
26.129
26.1285
26.128
26.1276
26.1272
26.1269
26.1266
26.1264
26.1263
26.1262
26.1263
26.1265
26.1268
26.1271
26.1276
26.1282
26.1289
26.1298
26.1307
26.1317
26.1328
26.1341
26.1355
26.137
26.1387
26.1407
26.1428
26.1451
26.1477
26.1506
26.1537
26.1572
26.161
26.1651
26.1697
26.1747
26.1802
26.1862
26.1928
26.1999
26.2078
26.2164
26.2258
26.236
26.2471
26.2593
26.2726
26.2871