/*--------------------------------*- C++ -*----------------------------------*\
| =========                 |                                                 |
| \\      /  F ield         | OpenFOAM: The Open Source CFD Toolbox           |
|  \\    /   O peration     | Version:  2.4.0                                 |
|   \\  /    A nd           | Web:      www.OpenFOAM.org                      |
|    \\/     M anipulation  |                                                 |
\*---------------------------------------------------------------------------*/
FoamFile
{
    version     2.0;
    format      ascii;
    class       surfaceScalarField;
    location    "0.168";
    object      phi;
}
// * * * * * * * * * * * * * * * * * * * * * * * * * * * * * * * * * * * * * //

dimensions      [0 3 -1 0 0 0 0];

internalField   nonuniform List<scalar> 
119500
(
-2.0045e-13
2.0045e-13
-6.30034e-13
4.29321e-13
-1.16059e-12
5.30331e-13
-1.71046e-12
5.49641e-13
-2.28153e-12
5.70837e-13
-2.87331e-12
5.91538e-13
-3.49152e-12
6.17971e-13
-4.14087e-12
6.49164e-13
-4.82459e-12
6.83607e-13
-5.5468e-12
7.22173e-13
-6.31238e-12
7.65594e-13
-7.12666e-12
8.14284e-13
-7.99473e-12
8.68042e-13
-8.92181e-12
9.2705e-13
-9.91294e-12
9.91113e-13
-1.09729e-11
1.06002e-12
-1.21065e-11
1.13378e-12
-1.33188e-11
1.21246e-12
-1.46144e-11
1.29573e-12
-1.59981e-11
1.38383e-12
-1.74742e-11
1.47625e-12
-1.90467e-11
1.5725e-12
-2.07193e-11
1.67265e-12
-2.24948e-11
1.77559e-12
-2.43761e-11
1.88146e-12
-2.63657e-11
1.98987e-12
-2.84659e-11
2.10044e-12
-3.06788e-11
2.2131e-12
-3.3006e-11
2.32739e-12
-3.54492e-11
2.44319e-12
-3.80093e-11
2.56005e-12
-4.06875e-11
2.6781e-12
-4.34857e-11
2.7981e-12
-4.64055e-11
2.91982e-12
-4.94494e-11
3.04391e-12
-5.26191e-11
3.16975e-12
-5.59174e-11
3.29843e-12
-5.93481e-11
3.43081e-12
-6.29145e-11
3.56642e-12
-6.66203e-11
3.70581e-12
-7.04712e-11
3.8509e-12
-7.44718e-11
4.0005e-12
-7.86281e-11
4.15598e-12
-8.29449e-11
4.31645e-12
-8.74275e-11
4.48221e-12
-9.20823e-11
4.65441e-12
-9.69121e-11
4.82935e-12
-1.01921e-10
5.00891e-12
-1.07115e-10
5.19335e-12
-1.12496e-10
5.38079e-12
-1.18068e-10
5.57078e-12
-1.23832e-10
5.7637e-12
-1.2979e-10
5.95753e-12
-1.35942e-10
6.15193e-12
-1.42288e-10
6.34601e-12
-1.48828e-10
6.53921e-12
-1.5556e-10
6.73185e-12
-1.62484e-10
6.92369e-12
-1.69599e-10
7.11433e-12
-1.76903e-10
7.30343e-12
-1.84394e-10
7.4909e-12
-1.92071e-10
7.6767e-12
-1.99933e-10
7.86124e-12
-2.07977e-10
8.04395e-12
-2.16202e-10
8.2248e-12
-2.24606e-10
8.40406e-12
-2.33188e-10
8.58185e-12
-2.41945e-10
8.75772e-12
-2.50876e-10
8.93121e-12
-2.59979e-10
9.10241e-12
-2.6925e-10
9.27182e-12
-2.78689e-10
9.43956e-12
-2.88294e-10
9.60445e-12
-2.98058e-10
9.76483e-12
-3.07979e-10
9.92098e-12
-3.18051e-10
1.00722e-11
-3.28267e-10
1.02167e-11
-3.3862e-10
1.03535e-11
-3.49102e-10
1.04814e-11
-3.59701e-10
1.06e-11
-3.70405e-10
1.07046e-11
-3.81198e-10
1.07928e-11
-3.92061e-10
1.08632e-11
-4.02973e-10
1.09125e-11
-4.13909e-10
1.09368e-11
-4.24842e-10
1.09323e-11
-4.35738e-10
1.08964e-11
-4.46565e-10
1.08269e-11
-4.57282e-10
1.07177e-11
-4.67846e-10
1.05633e-11
-4.78205e-10
1.03595e-11
-4.88306e-10
1.01001e-11
-4.98083e-10
9.77714e-12
-5.07472e-10
9.38927e-12
-5.16393e-10
8.92069e-12
-5.24779e-10
8.38533e-12
-5.3253e-10
7.75104e-12
-5.39564e-10
7.03371e-12
-5.45673e-10
6.10928e-12
5.09251e-12
-5.50766e-10
-7.35774e-13
9.35955e-13
-2.00891e-12
1.702e-12
-3.3865e-12
1.90751e-12
-4.80645e-12
1.96917e-12
-6.23105e-12
1.99502e-12
-7.66141e-12
2.02151e-12
-9.09871e-12
2.05496e-12
-1.05456e-11
2.09586e-12
-1.20055e-11
2.14337e-12
-1.34822e-11
2.19886e-12
-1.49804e-11
2.26381e-12
-1.65052e-11
2.33902e-12
-1.80622e-11
2.425e-12
-1.96582e-11
2.52307e-12
-2.13011e-11
2.63418e-12
-2.29992e-11
2.75834e-12
-2.47618e-11
2.89671e-12
-2.65983e-11
3.04925e-12
-2.85179e-11
3.21549e-12
-3.05298e-11
3.39592e-12
-3.26428e-11
3.58933e-12
-3.4865e-11
3.79481e-12
-3.72041e-11
4.01203e-12
-3.9667e-11
4.23884e-12
-4.22596e-11
4.47442e-12
-4.49878e-11
4.71847e-12
-4.78558e-11
4.96876e-12
-5.0868e-11
5.22544e-12
-5.40281e-11
5.48753e-12
-5.73391e-11
5.75407e-12
-6.08043e-11
6.02519e-12
-6.44259e-11
6.29955e-12
-6.82064e-11
6.57867e-12
-7.2148e-11
6.86148e-12
-7.6253e-11
7.14898e-12
-8.05227e-11
7.43954e-12
-8.49605e-11
7.73637e-12
-8.95703e-11
8.04079e-12
-9.43574e-11
8.35352e-12
-9.93265e-11
8.67477e-12
-1.04484e-10
9.00792e-12
-1.09835e-10
9.35094e-12
-1.15386e-10
9.70686e-12
-1.21144e-10
1.00741e-11
-1.27115e-10
1.04516e-11
-1.33305e-10
1.08438e-11
-1.3972e-10
1.12437e-11
-1.46367e-10
1.16554e-11
-1.53254e-10
1.20788e-11
-1.60383e-10
1.25095e-11
-1.67758e-10
1.29452e-11
-1.7538e-10
1.33851e-11
-1.83249e-10
1.38257e-11
-1.91366e-10
1.4268e-11
-1.99728e-10
1.47082e-11
-2.08336e-10
1.51461e-11
-2.17187e-10
1.55819e-11
-2.26278e-10
1.60141e-11
-2.35606e-10
1.64416e-11
-2.45167e-10
1.68636e-11
-2.54956e-10
1.72797e-11
-2.64969e-10
1.76891e-11
-2.75201e-10
1.80924e-11
-2.85645e-10
1.84882e-11
-2.96296e-10
1.88756e-11
-3.07147e-10
1.92552e-11
-3.18192e-10
1.9627e-11
-3.29424e-10
1.99897e-11
-3.40835e-10
2.03424e-11
-3.52417e-10
2.06853e-11
-3.64164e-10
2.1019e-11
-3.76067e-10
2.13437e-11
-3.8812e-10
2.16575e-11
-4.00313e-10
2.1958e-11
-4.12638e-10
2.22462e-11
-4.25085e-10
2.252e-11
-4.37643e-10
2.27756e-11
-4.50298e-10
2.30094e-11
-4.63036e-10
2.32193e-11
-4.75838e-10
2.34029e-11
-4.88686e-10
2.35533e-11
-5.01559e-10
2.36664e-11
-5.14435e-10
2.37394e-11
-5.27287e-10
2.37647e-11
-5.40085e-10
2.37355e-11
-5.52797e-10
2.36442e-11
-5.65386e-10
2.34858e-11
-5.77811e-10
2.32521e-11
-5.90026e-10
2.29321e-11
-6.01975e-10
2.25122e-11
-6.13603e-10
2.19872e-11
-6.24839e-10
2.13368e-11
-6.35615e-10
2.05525e-11
-6.45849e-10
1.96233e-11
-6.55451e-10
1.85219e-11
-6.6433e-10
1.72641e-11
-6.72355e-10
1.57756e-11
-6.79359e-10
1.40379e-11
-6.85021e-10
1.17703e-11
8.91132e-12
-6.8884e-10
-9.44791e-13
1.88052e-12
-2.55394e-12
3.31077e-12
-4.27427e-12
3.62749e-12
-6.03851e-12
3.73305e-12
-7.80961e-12
3.76576e-12
-9.57794e-12
3.78949e-12
-1.13424e-11
3.8191e-12
-1.31043e-11
3.85764e-12
-1.48666e-11
3.90561e-12
-1.66326e-11
3.96477e-12
-1.84061e-11
4.03727e-12
-2.01919e-11
4.12484e-12
-2.19957e-11
4.22877e-12
-2.38237e-11
4.35107e-12
-2.56834e-11
4.494e-12
-2.75831e-11
4.65823e-12
-2.95319e-11
4.84575e-12
-3.15396e-11
5.05714e-12
-3.36161e-11
5.29218e-12
-3.57713e-11
5.55132e-12
-3.80148e-11
5.83288e-12
-4.03554e-11
6.13565e-12
-4.28016e-11
6.4585e-12
-4.5361e-11
6.79853e-12
-4.80405e-11
7.15425e-12
-5.08467e-11
7.52495e-12
-5.37846e-11
7.90683e-12
-5.68598e-11
8.30066e-12
-6.00767e-11
8.70442e-12
-6.34395e-11
9.11683e-12
-6.6952e-11
9.53769e-12
-7.06174e-11
9.96491e-12
-7.44387e-11
1.04001e-11
-7.84184e-11
1.08412e-11
-8.25591e-11
1.12898e-11
-8.68641e-11
1.17447e-11
-9.13374e-11
1.22097e-11
-9.59829e-11
1.26864e-11
-1.00806e-10
1.31766e-11
-1.05812e-10
1.36809e-11
-1.11009e-10
1.42046e-11
-1.16402e-10
1.47432e-11
-1.21999e-10
1.53031e-11
-1.27806e-10
1.58812e-11
-1.33831e-10
1.64754e-11
-1.40081e-10
1.70935e-11
-1.46565e-10
1.77266e-11
-1.53288e-10
1.8378e-11
-1.60259e-10
1.90487e-11
-1.6748e-10
1.97303e-11
-1.74956e-10
2.04197e-11
-1.82687e-10
2.11157e-11
-1.90675e-10
2.18138e-11
-1.98922e-10
2.2514e-11
-2.07426e-10
2.32124e-11
-2.16187e-10
2.39067e-11
-2.25204e-10
2.45977e-11
-2.34474e-10
2.5283e-11
-2.43993e-10
2.596e-11
-2.53757e-10
2.66277e-11
-2.63764e-10
2.72858e-11
-2.74007e-10
2.79319e-11
-2.84482e-10
2.85669e-11
-2.95183e-10
2.91887e-11
-3.06103e-10
2.97958e-11
-3.17236e-10
3.03884e-11
-3.28576e-10
3.09664e-11
-3.40113e-10
3.15278e-11
-3.51842e-10
3.2071e-11
-3.63753e-10
3.25966e-11
-3.75838e-10
3.31052e-11
-3.88091e-10
3.35966e-11
-4.00502e-10
3.40693e-11
-4.13064e-10
3.45205e-11
-4.25767e-10
3.495e-11
-4.38601e-10
3.53541e-11
-4.51553e-10
3.57283e-11
-4.6461e-10
3.60674e-11
-4.77758e-10
3.63676e-11
-4.90978e-10
3.66236e-11
-5.04254e-10
3.68295e-11
-5.17563e-10
3.69754e-11
-5.30882e-10
3.70591e-11
-5.44186e-10
3.70687e-11
-5.57446e-10
3.69959e-11
-5.70631e-10
3.68294e-11
-5.83705e-10
3.65595e-11
-5.96624e-10
3.6172e-11
-6.09342e-10
3.56499e-11
-6.21805e-10
3.4975e-11
-6.33951e-10
3.41326e-11
-6.45715e-10
3.31005e-11
-6.57022e-10
3.18595e-11
-6.67791e-10
3.03925e-11
-6.77931e-10
2.86618e-11
-6.87338e-10
2.66708e-11
-6.95865e-10
2.43021e-11
-7.03294e-10
2.14667e-11
-7.0919e-10
1.76662e-11
1.26571e-11
-7.12936e-10
-1.07084e-12
2.95116e-12
-2.76675e-12
5.00633e-12
-4.63487e-12
5.49529e-12
-6.53651e-12
5.63435e-12
-8.44605e-12
5.67495e-12
-1.03521e-11
5.69519e-12
-1.22521e-11
5.71878e-12
-1.41464e-11
5.75182e-12
-1.60372e-11
5.79631e-12
-1.79272e-11
5.8547e-12
-1.98199e-11
5.92991e-12
-2.17202e-11
6.02502e-12
-2.36336e-11
6.14222e-12
-2.55664e-11
6.28386e-12
-2.75256e-11
6.45331e-12
-2.95196e-11
6.65242e-12
-3.15571e-11
6.88341e-12
-3.36474e-11
7.14771e-12
-3.58004e-11
7.4453e-12
-3.80251e-11
7.77625e-12
-4.03312e-11
8.13919e-12
-4.27275e-11
8.53213e-12
-4.52221e-11
8.95335e-12
-4.7823e-11
9.39967e-12
-5.05374e-11
9.86883e-12
-5.33713e-11
1.03591e-11
-5.63314e-11
1.0867e-11
-5.94225e-11
1.13918e-11
-6.26494e-11
1.19313e-11
-6.6016e-11
1.24834e-11
-6.95256e-11
1.30474e-11
-7.31819e-11
1.36213e-11
-7.69874e-11
1.42056e-11
-8.09453e-11
1.47991e-11
-8.50579e-11
1.54025e-11
-8.93294e-11
1.60162e-11
-9.37633e-11
1.66436e-11
-9.83646e-11
1.72877e-11
-1.03138e-10
1.795e-11
-1.08091e-10
1.86342e-11
-1.13229e-10
1.93418e-11
-1.18559e-10
2.00726e-11
-1.24089e-10
2.08327e-11
-1.29825e-10
2.16169e-11
-1.35777e-10
2.24275e-11
-1.41953e-10
2.32687e-11
-1.48361e-10
2.41338e-11
-1.55008e-10
2.5024e-11
-1.61898e-10
2.59379e-11
-1.69036e-10
2.68679e-11
-1.76428e-10
2.78112e-11
-1.84076e-10
2.87633e-11
-1.91983e-10
2.97197e-11
-2.00148e-10
3.06793e-11
-2.08574e-10
3.16373e-11
-2.17258e-10
3.25905e-11
-2.262e-10
3.35392e-11
-2.35398e-10
3.44802e-11
-2.44849e-10
3.54101e-11
-2.54549e-10
3.63277e-11
-2.64494e-10
3.723e-11
-2.7468e-10
3.81177e-11
-2.85102e-10
3.89887e-11
-2.95755e-10
3.98413e-11
-3.06633e-10
4.06736e-11
-3.1773e-10
4.14856e-11
-3.2904e-10
4.22764e-11
-3.40556e-10
4.30435e-11
-3.5227e-10
4.37853e-11
-3.64175e-10
4.45027e-11
-3.76266e-10
4.5196e-11
-3.88534e-10
4.58648e-11
-4.00971e-10
4.65068e-11
-4.1357e-10
4.71203e-11
-4.26322e-10
4.77027e-11
-4.39217e-10
4.82496e-11
-4.52244e-10
4.8756e-11
-4.65392e-10
4.92157e-11
-4.78646e-10
4.96225e-11
-4.91991e-10
4.99693e-11
-5.0541e-10
5.02481e-11
-5.18883e-10
5.04487e-11
-5.32388e-10
5.05645e-11
-5.459e-10
5.05816e-11
-5.59393e-10
5.04887e-11
-5.72835e-10
5.02712e-11
-5.8619e-10
4.99154e-11
-5.99419e-10
4.94005e-11
-6.12473e-10
4.87043e-11
-6.253e-10
4.78018e-11
-6.37839e-10
4.6671e-11
-6.50023e-10
4.52849e-11
-6.61779e-10
4.36146e-11
-6.73022e-10
4.16355e-11
-6.83657e-10
3.92971e-11
-6.93573e-10
3.65867e-11
-7.02614e-10
3.33425e-11
-7.10527e-10
2.93796e-11
-7.16841e-10
2.39794e-11
1.6721e-11
-7.20905e-10
-1.10838e-12
4.05936e-12
-2.8646e-12
6.76222e-12
-4.78426e-12
7.41465e-12
-6.74202e-12
7.59177e-12
-8.70873e-12
7.6413e-12
-1.06723e-11
7.65839e-12
-1.26295e-11
7.67574e-12
-1.45804e-11
7.70253e-12
-1.65266e-11
7.74232e-12
-1.84705e-11
7.79855e-12
-2.04156e-11
7.87498e-12
-2.23665e-11
7.97582e-12
-2.43287e-11
8.10444e-12
-2.63087e-11
8.26386e-12
-2.83134e-11
8.45811e-12
-3.03513e-11
8.69049e-12
-3.24312e-11
8.96348e-12
-3.45621e-11
9.27876e-12
-3.67534e-11
9.63685e-12
-3.90146e-11
1.00376e-11
-4.1355e-11
1.04799e-11
-4.37836e-11
1.09611e-11
-4.63086e-11
1.14786e-11
-4.89381e-11
1.20293e-11
-5.16792e-11
1.261e-11
-5.45381e-11
1.32181e-11
-5.75214e-11
1.38504e-11
-6.06339e-11
1.45042e-11
-6.38798e-11
1.51772e-11
-6.72632e-11
1.5867e-11
-7.07868e-11
1.6571e-11
-7.44543e-11
1.72889e-11
-7.82674e-11
1.80189e-11
-8.22297e-11
1.87614e-11
-8.63432e-11
1.95161e-11
-9.06123e-11
2.02853e-11
-9.50402e-11
2.10715e-11
-9.96324e-11
2.188e-11
-1.04393e-10
2.27105e-11
-1.0933e-10
2.35706e-11
-1.14448e-10
2.44598e-11
-1.19754e-10
2.53788e-11
-1.25257e-10
2.63355e-11
-1.30964e-10
2.73234e-11
-1.36884e-10
2.83467e-11
-1.43025e-10
2.94083e-11
-1.49394e-10
3.0502e-11
-1.55999e-10
3.16284e-11
-1.62845e-10
3.2783e-11
-1.69937e-10
3.39594e-11
-1.7728e-10
3.51541e-11
-1.84878e-10
3.63609e-11
-1.92733e-10
3.75746e-11
-2.00848e-10
3.8793e-11
-2.09221e-10
4.00099e-11
-2.17853e-10
4.12219e-11
-2.26742e-10
4.24281e-11
-2.35888e-10
4.36249e-11
-2.45286e-10
4.48075e-11
-2.54933e-10
4.59745e-11
-2.64826e-10
4.71227e-11
-2.7496e-10
4.82509e-11
-2.8533e-10
4.93581e-11
-2.95931e-10
5.04421e-11
-3.06758e-10
5.15007e-11
-3.17806e-10
5.25333e-11
-3.29068e-10
5.35386e-11
-3.40538e-10
5.45135e-11
-3.52209e-10
5.54572e-11
-3.64077e-10
5.6371e-11
-3.76135e-10
5.7254e-11
-3.88375e-10
5.81053e-11
-4.0079e-10
5.89228e-11
-4.13373e-10
5.97041e-11
-4.26116e-10
6.04461e-11
-4.39009e-10
6.11433e-11
-4.52043e-10
6.17908e-11
-4.65207e-10
6.23804e-11
-4.78489e-10
6.2905e-11
-4.91873e-10
6.33531e-11
-5.05345e-10
6.372e-11
-5.18888e-10
6.39921e-11
-5.3248e-10
6.41565e-11
-5.46096e-10
6.41979e-11
-5.5971e-10
6.41027e-11
-5.73293e-10
6.38545e-11
-5.86809e-10
6.34319e-11
-6.00219e-10
6.28105e-11
-6.13477e-10
6.19621e-11
-6.26532e-10
6.08568e-11
-6.39325e-10
5.9464e-11
-6.51791e-10
5.77502e-11
-6.63853e-10
5.56769e-11
-6.75425e-10
5.32079e-11
-6.86411e-10
5.02822e-11
-6.96687e-10
4.68633e-11
-7.06096e-10
4.27509e-11
-7.14355e-10
3.76381e-11
-7.20962e-10
3.0586e-11
2.08925e-11
-7.25134e-10
-1.12026e-12
5.17945e-12
-2.90428e-12
8.54591e-12
-4.84757e-12
9.35761e-12
-6.82596e-12
9.56981e-12
-8.81416e-12
9.62913e-12
-1.07998e-11
9.64365e-12
-1.27792e-11
9.65486e-12
-1.4752e-11
9.67516e-12
-1.67193e-11
9.70947e-12
-1.86834e-11
9.76252e-12
-2.06477e-11
9.8392e-12
-2.26166e-11
9.94468e-12
-2.45958e-11
1.00836e-11
-2.65918e-11
1.02599e-11
-2.86118e-11
1.04782e-11
-3.0664e-11
1.07429e-11
-3.27575e-11
1.10571e-11
-3.49013e-11
1.14227e-11
-3.71051e-11
1.18409e-11
-3.93786e-11
1.23114e-11
-4.17309e-11
1.28325e-11
-4.41716e-11
1.3402e-11
-4.67089e-11
1.40161e-11
-4.93507e-11
1.46712e-11
-5.21047e-11
1.53641e-11
-5.49771e-11
1.60905e-11
-5.7974e-11
1.68472e-11
-6.11005e-11
1.76308e-11
-6.43601e-11
1.8437e-11
-6.77573e-11
1.92643e-11
-7.12941e-11
2.0108e-11
-7.49737e-11
2.09687e-11
-7.87982e-11
2.18434e-11
-8.27701e-11
2.27333e-11
-8.68919e-11
2.36379e-11
-9.11674e-11
2.45608e-11
-9.56007e-11
2.55047e-11
-1.00196e-10
2.64749e-11
-1.04958e-10
2.7473e-11
-1.09894e-10
2.85065e-11
-1.1501e-10
2.9575e-11
-1.20313e-10
3.06816e-11
-1.2581e-10
3.1832e-11
-1.31508e-10
3.30211e-11
-1.37418e-10
3.42564e-11
-1.43546e-10
3.55359e-11
-1.49902e-10
3.68568e-11
-1.56492e-10
3.82177e-11
-1.63322e-10
3.96122e-11
-1.70397e-10
4.10341e-11
-1.77722e-10
4.24789e-11
-1.85301e-10
4.39395e-11
-1.93137e-10
4.54101e-11
-2.01232e-10
4.68869e-11
-2.09585e-10
4.83629e-11
-2.18198e-10
4.98339e-11
-2.27068e-10
5.12976e-11
-2.36194e-10
5.275e-11
-2.45572e-10
5.4185e-11
-2.55199e-10
5.56009e-11
-2.65071e-10
5.69941e-11
-2.75182e-10
5.8362e-11
-2.85529e-10
5.97047e-11
-2.96107e-10
6.10193e-11
-3.0691e-10
6.23038e-11
-3.17933e-10
6.35569e-11
-3.29171e-10
6.47768e-11
-3.40619e-10
6.59607e-11
-3.52269e-10
6.71079e-11
-3.64117e-10
6.82195e-11
-3.76157e-10
6.92939e-11
-3.88381e-10
7.033e-11
-4.00783e-10
7.13255e-11
-4.13356e-10
7.22776e-11
-4.26091e-10
7.31827e-11
-4.38982e-10
7.40345e-11
-4.52018e-10
7.4828e-11
-4.6519e-10
7.55529e-11
-4.78486e-10
7.62008e-11
-4.91892e-10
7.67598e-11
-5.05396e-10
7.72234e-11
-5.18979e-10
7.75755e-11
-5.32622e-10
7.77993e-11
-5.46302e-10
7.78782e-11
-5.59993e-10
7.77941e-11
-5.73666e-10
7.75278e-11
-5.87287e-10
7.70533e-11
-6.00817e-10
7.63402e-11
-6.14211e-10
7.5356e-11
-6.2742e-10
7.40656e-11
-6.40386e-10
7.24307e-11
-6.53045e-10
7.04089e-11
-6.6532e-10
6.79518e-11
-6.77124e-10
6.50115e-11
-6.88358e-10
6.15161e-11
-6.98897e-10
5.74028e-11
-7.08575e-10
5.24282e-11
-7.17093e-10
4.61558e-11
-7.23919e-10
3.74117e-11
2.52086e-11
-7.28236e-10
-1.12335e-12
6.30264e-12
-2.92018e-12
1.03424e-11
-4.87377e-12
1.13109e-11
-6.86002e-12
1.15557e-11
-8.85557e-12
1.16243e-11
-1.08484e-11
1.16361e-11
-1.28346e-11
1.16408e-11
-1.48138e-11
1.16541e-11
-1.67865e-11
1.1682e-11
-1.87549e-11
1.17308e-11
-2.07224e-11
1.18066e-11
-2.26934e-11
1.19156e-11
-2.46735e-11
1.20636e-11
-2.66692e-11
1.22556e-11
-2.86878e-11
1.24968e-11
-3.07377e-11
1.2793e-11
-3.28286e-11
1.31481e-11
-3.49695e-11
1.35639e-11
-3.71702e-11
1.40419e-11
-3.94409e-11
1.45824e-11
-4.17909e-11
1.51828e-11
-4.42295e-11
1.58408e-11
-4.67658e-11
1.65525e-11
-4.94077e-11
1.7313e-11
-5.21628e-11
1.81191e-11
-5.50378e-11
1.89654e-11
-5.80381e-11
1.98474e-11
-6.11688e-11
2.07616e-11
-6.44339e-11
2.17022e-11
-6.78363e-11
2.26669e-11
-7.13794e-11
2.36513e-11
-7.50646e-11
2.46541e-11
-7.88946e-11
2.56735e-11
-8.2871e-11
2.67097e-11
-8.69972e-11
2.7764e-11
-9.12753e-11
2.88389e-11
-9.5711e-11
2.99404e-11
-1.00307e-10
3.10705e-11
-1.05069e-10
3.22353e-11
-1.10004e-10
3.34412e-11
-1.15117e-10
3.46877e-11
-1.20416e-10
3.59805e-11
-1.25908e-10
3.73236e-11
-1.31601e-10
3.87137e-11
-1.37505e-10
4.01595e-11
-1.43627e-10
4.16569e-11
-1.49974e-10
4.32037e-11
-1.56556e-10
4.47982e-11
-1.63377e-10
4.64328e-11
-1.70444e-10
4.81006e-11
-1.77761e-10
4.9796e-11
-1.85333e-10
5.1511e-11
-1.93162e-10
5.32391e-11
-2.01251e-10
5.4975e-11
-2.09599e-10
5.67107e-11
-2.18208e-10
5.84414e-11
-2.27074e-10
6.01632e-11
-2.36195e-10
6.1871e-11
-2.45569e-10
6.35585e-11
-2.55192e-10
6.52231e-11
-2.65059e-10
6.68607e-11
-2.75166e-10
6.84685e-11
-2.85508e-10
7.00462e-11
-2.9608e-10
7.15912e-11
-3.06878e-10
7.31016e-11
-3.17897e-10
7.45755e-11
-3.2913e-10
7.60106e-11
-3.40573e-10
7.74039e-11
-3.5222e-10
7.87546e-11
-3.64064e-10
8.00641e-11
-3.761e-10
8.13306e-11
-3.88322e-10
8.25524e-11
-4.00723e-10
8.37276e-11
-4.13298e-10
8.48526e-11
-4.26037e-10
8.59225e-11
-4.38934e-10
8.69325e-11
-4.51979e-10
8.78743e-11
-4.65164e-10
8.87383e-11
-4.78477e-10
8.9514e-11
-4.91908e-10
9.01908e-11
-5.05441e-10
9.07563e-11
-5.19059e-10
9.1194e-11
-5.32745e-10
9.14852e-11
-5.46477e-10
9.16099e-11
-5.6023e-10
9.15476e-11
-5.73977e-10
9.12748e-11
-5.87684e-10
9.07601e-11
-6.01311e-10
8.99677e-11
-6.14816e-10
8.88607e-11
-6.28149e-10
8.73981e-11
-6.41253e-10
8.55355e-11
-6.54066e-10
8.32219e-11
-6.66513e-10
8.03983e-11
-6.78506e-10
7.70052e-11
-6.89948e-10
7.29575e-11
-7.00711e-10
6.8166e-11
-7.10624e-10
6.23413e-11
-7.19381e-10
5.49122e-11
-7.26434e-10
4.4464e-11
2.97258e-11
-7.30952e-10
-1.12314e-12
7.42559e-12
-2.92631e-12
1.21452e-11
-4.88443e-12
1.32686e-11
-6.87444e-12
1.35453e-11
-8.87286e-12
1.36223e-11
-1.08678e-11
1.36306e-11
-1.2855e-11
1.36278e-11
-1.48339e-11
1.36327e-11
-1.6805e-11
1.36529e-11
-1.87704e-11
1.36961e-11
-2.07335e-11
1.37696e-11
-2.26986e-11
1.38807e-11
-2.46711e-11
1.40362e-11
-2.6658e-11
1.42425e-11
-2.86667e-11
1.45056e-11
-3.0706e-11
1.48323e-11
-3.27855e-11
1.52279e-11
-3.49151e-11
1.56936e-11
-3.71041e-11
1.62313e-11
-3.93633e-11
1.68419e-11
-4.17026e-11
1.75224e-11
-4.41313e-11
1.82697e-11
-4.66587e-11
1.908e-11
-4.92934e-11
1.99476e-11
-5.20425e-11
2.08681e-11
-5.49128e-11
2.18357e-11
-5.79101e-11
2.28448e-11
-6.10385e-11
2.38902e-11
-6.43028e-11
2.49668e-11
-6.77048e-11
2.60692e-11
-7.1248e-11
2.71948e-11
-7.49334e-11
2.83397e-11
-7.87635e-11
2.95035e-11
-8.27393e-11
3.06854e-11
-8.68643e-11
3.18889e-11
-9.11407e-11
3.31153e-11
-9.55731e-11
3.43728e-11
-1.00165e-10
3.56625e-11
-1.04923e-10
3.69926e-11
-1.0985e-10
3.8369e-11
-1.14956e-10
3.97933e-11
-1.20247e-10
4.12712e-11
-1.2573e-10
4.28059e-11
-1.31414e-10
4.43975e-11
-1.37308e-10
4.60525e-11
-1.4342e-10
4.77684e-11
-1.49759e-10
4.95419e-11
-1.56331e-10
5.137e-11
-1.63144e-10
5.32451e-11
-1.70203e-10
5.51596e-11
-1.77515e-10
5.71068e-11
-1.85082e-10
5.90779e-11
-1.92909e-10
6.1065e-11
-2.00996e-10
6.30616e-11
-2.09344e-10
6.5058e-11
-2.17952e-10
6.70492e-11
-2.2682e-10
6.90302e-11
-2.35943e-10
7.09937e-11
-2.45319e-10
7.29347e-11
-2.54946e-10
7.48487e-11
-2.64816e-10
7.67304e-11
-2.74926e-10
7.85785e-11
-2.85272e-10
8.03914e-11
-2.95848e-10
8.21672e-11
-3.0665e-10
8.39033e-11
-3.17673e-10
8.55982e-11
-3.28911e-10
8.72486e-11
-3.40358e-10
8.88508e-11
-3.52008e-10
9.04051e-11
-3.63857e-10
9.1913e-11
-3.75898e-10
9.33725e-11
-3.88126e-10
9.47813e-11
-4.00535e-10
9.61375e-11
-4.13118e-10
9.74368e-11
-4.25869e-10
9.86736e-11
-4.38778e-10
9.98428e-11
-4.51839e-10
1.00936e-10
-4.65043e-10
1.01942e-10
-4.78379e-10
1.0285e-10
-4.91835e-10
1.03648e-10
-5.054e-10
1.04321e-10
-5.19056e-10
1.0485e-10
-5.32784e-10
1.05214e-10
-5.46567e-10
1.05393e-10
-5.6038e-10
1.05361e-10
-5.74196e-10
1.05091e-10
-5.87981e-10
1.04546e-10
-6.01701e-10
1.03687e-10
-6.1531e-10
1.0247e-10
-6.2876e-10
1.00849e-10
-6.41996e-10
9.8772e-11
-6.54956e-10
9.61814e-11
-6.67566e-10
9.3008e-11
-6.79741e-10
8.91801e-11
-6.91382e-10
8.45988e-11
-7.02365e-10
7.91491e-11
-7.12518e-10
7.24938e-11
-7.21531e-10
6.39245e-11
-7.28837e-10
5.17699e-11
3.44877e-11
-7.336e-10
-1.12176e-12
8.54715e-12
-2.9283e-12
1.39513e-11
-4.88882e-12
1.52287e-11
-6.8818e-12
1.55379e-11
-8.8817e-12
1.56219e-11
-1.08768e-11
1.56254e-11
-1.28628e-11
1.56135e-11
-1.48389e-11
1.56085e-11
-1.68054e-11
1.56192e-11
-1.87643e-11
1.56548e-11
-2.07192e-11
1.57244e-11
-2.26745e-11
1.5836e-11
-2.46355e-11
1.59971e-11
-2.6609e-11
1.62161e-11
-2.86033e-11
1.65001e-11
-3.06275e-11
1.68566e-11
-3.26908e-11
1.72914e-11
-3.48038e-11
1.78068e-11
-3.69765e-11
1.84043e-11
-3.92191e-11
1.90848e-11
-4.15426e-11
1.98462e-11
-4.39568e-11
2.0684e-11
-4.64707e-11
2.1594e-11
-4.90936e-11
2.25704e-11
-5.18328e-11
2.36072e-11
-5.46944e-11
2.46973e-11
-5.76849e-11
2.58354e-11
-6.08079e-11
2.70134e-11
-6.40676e-11
2.82269e-11
-6.74664e-11
2.94682e-11
-7.10062e-11
3.07348e-11
-7.46887e-11
3.20223e-11
-7.85151e-11
3.33299e-11
-8.24877e-11
3.46579e-11
-8.66077e-11
3.60089e-11
-9.08793e-11
3.73868e-11
-9.53052e-11
3.87986e-11
-9.98896e-11
4.02468e-11
-1.04638e-10
4.17405e-11
-1.09555e-10
4.3286e-11
-1.14649e-10
4.48871e-11
-1.19926e-10
4.65488e-11
-1.25396e-10
4.8275e-11
-1.31067e-10
5.00678e-11
-1.36948e-10
5.19328e-11
-1.43047e-10
5.38671e-11
-1.49374e-10
5.58683e-11
-1.55936e-10
5.79311e-11
-1.62739e-10
6.00477e-11
-1.6979e-10
6.22103e-11
-1.77095e-10
6.44111e-11
-1.84657e-10
6.66401e-11
-1.92481e-10
6.88881e-11
-2.00567e-10
7.11472e-11
-2.08916e-10
7.34061e-11
-2.17527e-10
7.56593e-11
-2.26397e-10
7.79003e-11
-2.35526e-10
8.01218e-11
-2.44908e-10
8.23167e-11
-2.54541e-10
8.44806e-11
-2.64419e-10
8.66077e-11
-2.74536e-10
8.8696e-11
-2.8489e-10
9.07445e-11
-2.95475e-10
9.27516e-11
-3.06286e-10
9.47143e-11
-3.17317e-10
9.66293e-11
-3.28562e-10
9.84936e-11
-3.40016e-10
1.00304e-10
-3.51674e-10
1.02064e-10
-3.63531e-10
1.03771e-10
-3.75582e-10
1.05424e-10
-3.87821e-10
1.07021e-10
-4.00242e-10
1.08559e-10
-4.12838e-10
1.10034e-10
-4.25604e-10
1.1144e-10
-4.3853e-10
1.1277e-10
-4.5161e-10
1.14016e-10
-4.64837e-10
1.15169e-10
-4.78199e-10
1.16212e-10
-4.91686e-10
1.17135e-10
-5.05284e-10
1.1792e-10
-5.18981e-10
1.18546e-10
-5.32757e-10
1.1899e-10
-5.46594e-10
1.1923e-10
-5.6047e-10
1.19237e-10
-5.74357e-10
1.18978e-10
-5.88225e-10
1.18413e-10
-6.02036e-10
1.17498e-10
-6.15751e-10
1.16184e-10
-6.29322e-10
1.1442e-10
-6.42695e-10
1.12145e-10
-6.55808e-10
1.09295e-10
-6.6859e-10
1.0579e-10
-6.80958e-10
1.01548e-10
-6.92814e-10
9.64547e-11
-7.04036e-10
9.03708e-11
-7.14451e-10
8.29087e-11
-7.23746e-10
7.32184e-11
-7.31338e-10
5.9362e-11
3.94909e-11
-7.36342e-10
-1.12004e-12
9.66696e-12
-2.92868e-12
1.57595e-11
-4.89101e-12
1.71906e-11
-6.88742e-12
1.75339e-11
-8.88878e-12
1.76229e-11
-1.08837e-11
1.762e-11
-1.28676e-11
1.75972e-11
-1.48395e-11
1.75801e-11
-1.68e-11
1.75795e-11
-1.87509e-11
1.76056e-11
-2.06955e-11
1.7669e-11
-2.26386e-11
1.7779e-11
-2.45855e-11
1.7944e-11
-2.6543e-11
1.81736e-11
-2.85199e-11
1.84772e-11
-3.05258e-11
1.88626e-11
-3.25698e-11
1.93357e-11
-3.46626e-11
1.98998e-11
-3.68153e-11
2.05573e-11
-3.90383e-11
2.13081e-11
-4.13425e-11
2.21505e-11
-4.37388e-11
2.30803e-11
-4.62363e-11
2.40915e-11
-4.88442e-11
2.51783e-11
-5.15706e-11
2.63335e-11
-5.44215e-11
2.75483e-11
-5.74027e-11
2.88169e-11
-6.05188e-11
3.01299e-11
-6.37722e-11
3.14807e-11
-6.7166e-11
3.28623e-11
-7.07009e-11
3.42698e-11
-7.43788e-11
3.57002e-11
-7.81999e-11
3.7151e-11
-8.21671e-11
3.86251e-11
-8.6281e-11
4.01227e-11
-9.05452e-11
4.1651e-11
-9.4962e-11
4.32153e-11
-9.95357e-11
4.48204e-11
-1.04271e-10
4.64761e-11
-1.09174e-10
4.81883e-11
-1.14252e-10
4.99648e-11
-1.19514e-10
5.18106e-11
-1.24968e-10
5.37288e-11
-1.30623e-10
5.57227e-11
-1.36488e-10
5.77973e-11
-1.42572e-10
5.99505e-11
-1.48884e-10
6.21801e-11
-1.55433e-10
6.44789e-11
-1.62224e-10
6.68387e-11
-1.69266e-10
6.92514e-11
-1.76563e-10
7.1708e-11
-1.84121e-10
7.4197e-11
-1.91942e-10
7.67085e-11
-2.00027e-10
7.92323e-11
-2.08377e-10
8.17558e-11
-2.16992e-10
8.42729e-11
-2.25867e-10
8.67757e-11
-2.35002e-10
8.92561e-11
-2.44392e-10
9.17063e-11
-2.54033e-10
9.41213e-11
-2.63921e-10
9.64947e-11
-2.74049e-10
9.88239e-11
-2.84414e-10
1.01108e-10
-2.9501e-10
1.03348e-10
-3.05833e-10
1.05537e-10
-3.16875e-10
1.07671e-10
-3.2813e-10
1.09748e-10
-3.39593e-10
1.11768e-10
-3.51262e-10
1.13733e-10
-3.63131e-10
1.1564e-10
-3.75194e-10
1.17488e-10
-3.87446e-10
1.19274e-10
-3.9988e-10
1.20995e-10
-4.12492e-10
1.22647e-10
-4.25275e-10
1.24223e-10
-4.38222e-10
1.25718e-10
-4.51325e-10
1.2712e-10
-4.64576e-10
1.2842e-10
-4.77967e-10
1.29603e-10
-4.91488e-10
1.30656e-10
-5.05125e-10
1.31557e-10
-5.18865e-10
1.32286e-10
-5.32692e-10
1.32818e-10
-5.46589e-10
1.33127e-10
-5.60533e-10
1.3318e-10
-5.74497e-10
1.32943e-10
-5.88453e-10
1.32368e-10
-6.02364e-10
1.3141e-10
-6.16193e-10
1.30013e-10
-6.29894e-10
1.28121e-10
-6.43415e-10
1.25667e-10
-6.56696e-10
1.22576e-10
-6.69667e-10
1.1876e-10
-6.82247e-10
1.14128e-10
-6.94341e-10
1.08549e-10
-7.0583e-10
1.01859e-10
-7.1654e-10
9.36191e-11
-7.26157e-10
8.28346e-11
-7.34071e-10
6.72753e-11
4.47709e-11
-7.39351e-10
-1.11824e-12
1.07849e-11
-2.929e-12
1.75697e-11
-4.89311e-12
1.91543e-11
-6.89382e-12
1.95342e-11
-8.89705e-12
1.96258e-11
-1.08917e-11
1.96143e-11
-1.28733e-11
1.95785e-11
-1.48405e-11
1.9547e-11
-1.6794e-11
1.95328e-11
-1.87358e-11
1.95473e-11
-2.0669e-11
1.9602e-11
-2.2598e-11
1.97079e-11
-2.45286e-11
1.98748e-11
-2.64682e-11
2.01133e-11
-2.84254e-11
2.04344e-11
-3.041e-11
2.08474e-11
-3.24321e-11
2.1358e-11
-3.4502e-11
2.19699e-11
-3.66315e-11
2.2687e-11
-3.8832e-11
2.35088e-11
-4.11141e-11
2.44328e-11
-4.34894e-11
2.54556e-11
-4.5968e-11
2.65701e-11
-4.85589e-11
2.77692e-11
-5.127e-11
2.90448e-11
-5.41087e-11
3.03872e-11
-5.70793e-11
3.17878e-11
-6.0187e-11
3.3238e-11
-6.34335e-11
3.47275e-11
-6.68209e-11
3.625e-11
-7.03502e-11
3.77992e-11
-7.40222e-11
3.93722e-11
-7.78378e-11
4.09665e-11
-8.17981e-11
4.25853e-11
-8.59045e-11
4.42291e-11
-9.01593e-11
4.59057e-11
-9.4565e-11
4.7621e-11
-9.91254e-11
4.93806e-11
-1.03845e-10
5.1196e-11
-1.08732e-10
5.30748e-11
-1.13793e-10
5.50257e-11
-1.19037e-10
5.70545e-11
-1.24473e-10
5.91637e-11
-1.30109e-10
6.13584e-11
-1.35955e-10
6.36431e-11
-1.42021e-10
6.60161e-11
-1.48317e-10
6.84749e-11
-1.54849e-10
7.10112e-11
-1.61627e-10
7.36164e-11
-1.68658e-10
7.62817e-11
-1.75948e-10
7.89969e-11
-1.835e-10
8.1749e-11
-1.91318e-10
8.45261e-11
-1.99404e-10
8.73169e-11
-2.07756e-10
9.01079e-11
-2.16375e-10
9.2891e-11
-2.25257e-10
9.56573e-11
-2.344e-10
9.83985e-11
-2.43799e-10
1.01105e-10
-2.53451e-10
1.03772e-10
-2.6335e-10
1.06393e-10
-2.73491e-10
1.08964e-10
-2.83869e-10
1.11486e-10
-2.94479e-10
1.13957e-10
-3.05314e-10
1.16372e-10
-3.16368e-10
1.18724e-10
-3.27634e-10
1.21015e-10
-3.39111e-10
1.23246e-10
-3.50794e-10
1.25416e-10
-3.62676e-10
1.27523e-10
-3.74753e-10
1.29565e-10
-3.8702e-10
1.31541e-10
-3.9947e-10
1.33446e-10
-4.12099e-10
1.35276e-10
-4.24901e-10
1.37025e-10
-4.3787e-10
1.38687e-10
-4.50998e-10
1.40248e-10
-4.64277e-10
1.417e-10
-4.77701e-10
1.43027e-10
-4.91257e-10
1.44213e-10
-5.04936e-10
1.45236e-10
-5.18724e-10
1.46075e-10
-5.32607e-10
1.46702e-10
-5.46568e-10
1.47087e-10
-5.60584e-10
1.47197e-10
-5.74632e-10
1.46991e-10
-5.88682e-10
1.46419e-10
-6.02703e-10
1.4543e-10
-6.16657e-10
1.43967e-10
-6.30501e-10
1.41965e-10
-6.44184e-10
1.3935e-10
-6.57649e-10
1.3604e-10
-6.70827e-10
1.31939e-10
-6.83641e-10
1.26942e-10
-6.96e-10
1.20907e-10
-7.07785e-10
1.13644e-10
-7.18827e-10
1.04661e-10
-7.28805e-10
9.28132e-11
-7.37083e-10
7.55522e-11
5.03731e-11
-7.42685e-10
-1.11652e-12
1.19012e-11
-2.93036e-12
1.9383e-11
-4.89661e-12
2.11201e-11
-6.90231e-12
2.15395e-11
-8.90792e-12
2.1631e-11
-1.09024e-11
2.16085e-11
-1.28816e-11
2.15574e-11
-1.4844e-11
2.15091e-11
-1.67901e-11
2.14786e-11
-1.87219e-11
2.14789e-11
-2.06424e-11
2.15225e-11
-2.25558e-11
2.16213e-11
-2.44684e-11
2.17874e-11
-2.63879e-11
2.2033e-11
-2.83233e-11
2.23699e-11
-3.02841e-11
2.28083e-11
-3.22811e-11
2.33552e-11
-3.43256e-11
2.40145e-11
-3.64291e-11
2.47906e-11
-3.86038e-11
2.56836e-11
-4.08614e-11
2.66904e-11
-4.32132e-11
2.78075e-11
-4.56702e-11
2.90271e-11
-4.82421e-11
3.03412e-11
-5.09364e-11
3.17393e-11
-5.37609e-11
3.3212e-11
-5.67201e-11
3.47474e-11
-5.98179e-11
3.63361e-11
-6.30566e-11
3.79666e-11
-6.6437e-11
3.96306e-11
-6.99603e-11
4.13225e-11
-7.3626e-11
4.30379e-11
-7.74352e-11
4.47757e-11
-8.13884e-11
4.65386e-11
-8.54868e-11
4.83274e-11
-8.97315e-11
5.01504e-11
-9.41256e-11
5.20151e-11
-9.86733e-11
5.39282e-11
-1.03379e-10
5.59014e-11
-1.08248e-10
5.79439e-11
-1.13289e-10
6.00664e-11
-1.18512e-10
6.22769e-11
-1.23924e-10
6.45761e-11
-1.29538e-10
6.69717e-11
-1.35362e-10
6.94669e-11
-1.41407e-10
7.20603e-11
-1.47682e-10
7.47498e-11
-1.54197e-10
7.75258e-11
-1.60961e-10
8.03793e-11
-1.6798e-10
8.33001e-11
-1.7526e-10
8.62767e-11
-1.82806e-10
8.92949e-11
-1.90622e-10
9.23409e-11
-1.98707e-10
9.54016e-11
-2.07062e-10
9.84626e-11
-2.15686e-10
1.01514e-10
-2.24576e-10
1.04547e-10
-2.33727e-10
1.07549e-10
-2.43137e-10
1.10515e-10
-2.528e-10
1.13435e-10
-2.62711e-10
1.16304e-10
-2.72865e-10
1.19118e-10
-2.83256e-10
1.21876e-10
-2.93876e-10
1.24577e-10
-3.04722e-10
1.27218e-10
-3.1579e-10
1.29792e-10
-3.27074e-10
1.32299e-10
-3.38567e-10
1.3474e-10
-3.50266e-10
1.37115e-10
-3.62165e-10
1.39423e-10
-3.74259e-10
1.4166e-10
-3.86543e-10
1.43825e-10
-3.99012e-10
1.45916e-10
-4.11661e-10
1.47926e-10
-4.24484e-10
1.49849e-10
-4.37476e-10
1.51679e-10
-4.50631e-10
1.53404e-10