/*--------------------------------*- C++ -*----------------------------------*\
| =========                 |                                                 |
| \\      /  F ield         | OpenFOAM: The Open Source CFD Toolbox           |
|  \\    /   O peration     | Version:  2.4.0                                 |
|   \\  /    A nd           | Web:      www.OpenFOAM.org                      |
|    \\/     M anipulation  |                                                 |
\*---------------------------------------------------------------------------*/
FoamFile
{
    version     2.0;
    format      ascii;
    class       surfaceScalarField;
    location    "0.045";
    object      phi;
}
// * * * * * * * * * * * * * * * * * * * * * * * * * * * * * * * * * * * * * //

dimensions      [0 3 -1 0 0 0 0];

internalField   nonuniform List<scalar> 
28560
(
-7.25522e-10
1.87355e-09
-1.14803e-09
1.6079e-09
-2.39844e-09
7.90542e-10
3.32404e-09
-4.31013e-09
9.86096e-10
5.48076e-09
-6.71505e-09
1.23429e-09
8.09423e-09
-9.38195e-09
1.28772e-09
1.0551e-08
-1.12767e-08
7.25683e-10
1.14349e-08
-1.08327e-08
-6.02212e-10
9.27858e-09
-6.83811e-09
-2.44048e-09
3.24008e-09
1.11558e-09
-4.35566e-09
-6.43467e-09
1.21192e-08
-5.6845e-09
-1.85474e-08
2.48584e-08
-6.31109e-09
-3.15682e-08
3.78549e-08
-6.28668e-09
-4.42516e-08
5.00419e-08
-5.79028e-09
-5.57604e-08
6.07601e-08
-4.99971e-09
-6.55166e-08
6.94898e-08
-3.97323e-09
-7.30495e-08
7.58161e-08
-2.76655e-09
-7.80371e-08
7.94895e-08
-1.4524e-09
-8.03137e-08
8.04375e-08
-1.23778e-10
-7.98971e-08
7.87586e-08
1.13859e-09
-7.69602e-08
7.47393e-08
2.22091e-09
-7.19145e-08
6.88351e-08
3.07941e-09
-6.52512e-08
6.15936e-08
3.65762e-09
-5.75429e-08
5.35671e-08
3.97582e-09
-4.9309e-08
4.52456e-08
4.0634e-09
-4.09868e-08
3.69967e-08
3.99011e-09
-3.28837e-08
2.90798e-08
3.80389e-09
-2.51994e-08
2.16427e-08
3.55676e-09
-1.80437e-08
1.47643e-08
3.27941e-09
-1.14637e-08
8.46871e-09
2.99501e-09
-5.46304e-09
2.74787e-09
2.71517e-09
-3.15112e-09
4.46619e-09
-1.31508e-09
2.81174e-09
-4.24343e-09
-2.06523e-09
3.49691e-09
5.92559e-09
-7.74199e-09
-2.58621e-09
4.40261e-09
9.92642e-09
-1.22698e-08
-3.26811e-09
5.61145e-09
1.4972e-08
-1.76514e-08
-3.53957e-09
6.21894e-09
2.03895e-08
-2.26367e-08
-2.42401e-09
4.67123e-09
2.43425e-08
-2.50636e-08
5.20134e-10
2.00945e-10
2.4656e-08
-2.29924e-08
4.77871e-09
-6.44228e-09
1.98438e-08
-1.55636e-08
9.30409e-09
-1.35843e-08
9.84658e-09
-3.51289e-09
1.26814e-08
-1.90151e-08
-3.85564e-09
1.12012e-08
1.42517e-08
-2.15972e-08
-1.91416e-08
2.66884e-08
1.44048e-08
-2.19516e-08
-3.45641e-08
4.1824e-08
1.34835e-08
-2.07433e-08
-4.91913e-08
5.58247e-08
1.18658e-08
-1.84992e-08
-6.23649e-08
6.8069e-08
9.6837e-09
-1.53877e-08
-7.34859e-08
7.80036e-08
7.09057e-09
-1.16083e-08
-8.20348e-08
8.51537e-08
4.16791e-09
-7.28675e-09
-8.76344e-08
8.92037e-08
1.16394e-09
-2.7332e-09
-9.00401e-08
9.00389e-08
-1.75892e-09
1.76013e-09
-8.92399e-08
8.7755e-08
-4.33525e-09
5.82014e-09
-8.54904e-08
8.27341e-08
-6.44175e-09
9.19805e-09
-7.92841e-08
7.55547e-08
-7.94634e-09
1.16757e-08
-7.12584e-08
6.68841e-08
-8.85789e-09
1.32321e-08
-6.20601e-08
5.73391e-08
-9.22874e-09
1.39498e-08
-5.22845e-08
4.74596e-08
-9.19891e-09
1.40238e-08
-4.2401e-08
3.76589e-08
-8.87548e-09
1.36175e-08
-3.27609e-08
2.82243e-08
-8.37489e-09
1.29115e-08
-2.35928e-08
1.93434e-08
-7.77183e-09
1.20213e-08
-1.50411e-08
1.11221e-08
-7.12724e-09
1.10462e-08
-7.17675e-09
3.60824e-09
-6.47301e-09
1.00415e-08
-5.78968e-09
7.11246e-09
-1.32279e-09
2.91667e-09
-4.40671e-09
-4.97614e-09
6.46618e-09
6.16548e-09
-8.07307e-09
-6.29044e-09
8.19802e-09
1.03787e-08
-1.2868e-08
-8.06624e-09
1.05556e-08
1.57637e-08
-1.86725e-08
-9.06846e-09
1.19773e-08
2.17059e-08
-2.42858e-08
-7.15942e-09
9.73934e-09
2.63964e-08
-2.75513e-08
-1.23374e-09
2.3887e-09
2.76475e-08
-2.64985e-08
7.73473e-09
-8.88378e-09
2.39211e-08
-2.02038e-08
1.74527e-08
-2.117e-08
1.51018e-08
-9.37176e-09
2.49002e-08
-3.06303e-08
2.67322e-09
4.06231e-09
2.84877e-08
-3.52232e-08
-1.13479e-08
1.83085e-08
2.90687e-08
-3.60294e-08
-2.55798e-08
3.23561e-08
2.76405e-08
-3.44168e-08
-3.92868e-08
4.56038e-08
2.48841e-08
-3.12011e-08
-5.192e-08
5.75211e-08
2.09911e-08
-2.65922e-08
-6.29362e-08
6.75494e-08
1.61463e-08
-2.07595e-08
-7.1755e-08
7.51247e-08
1.05527e-08
-1.39225e-08
-7.79253e-08
7.98499e-08
4.54242e-09
-6.46702e-09
-8.10663e-08
8.14814e-08
-1.46147e-09
1.04638e-09
-8.1109e-08
8.00581e-08
-6.99825e-09
8.04918e-09
-7.82458e-08
7.5916e-08
-1.16175e-08
1.39474e-08
-7.29071e-08
6.95952e-08
-1.50689e-08
1.83808e-08
-6.57335e-08
6.17661e-08
-1.72761e-08
2.12434e-08
-5.73649e-08
5.30365e-08
-1.83538e-08
2.26823e-08
-4.83897e-08
4.39418e-08
-1.8553e-08
2.30009e-08
-3.92728e-08
3.48896e-08
-1.80802e-08
2.24634e-08
-3.0358e-08
2.6158e-08
-1.71877e-08
2.13877e-08
-2.18682e-08
1.79315e-08
-1.60304e-08
1.99671e-08
-1.39453e-08
1.03127e-08
-1.47462e-08
1.83788e-08
-6.65585e-09
3.34661e-09
-1.34129e-08
1.67221e-08
-8.432e-09
9.7472e-09
-1.31521e-09
2.91833e-09
-4.40501e-09
-7.95606e-09
9.44274e-09
6.16336e-09
-8.0722e-09
-1.01094e-08
1.20182e-08
1.03826e-08
-1.2883e-08
-1.30546e-08
1.5555e-08
1.58004e-08
-1.87453e-08
-1.49083e-08
1.78532e-08
2.18344e-08
-2.44819e-08
-1.23592e-08
1.50067e-08
2.66761e-08
-2.79194e-08
-3.59662e-09
4.84001e-09
2.81142e-08
-2.70553e-08
9.97657e-09
-1.10355e-08
2.45618e-08
-2.09048e-08
2.4842e-08
-2.8499e-08
1.58474e-08
-1.01418e-08
3.6329e-08
-4.20346e-08
3.46206e-09
3.28182e-09
4.19296e-08
-4.86734e-08
-1.05442e-08
1.7464e-08
4.29645e-08
-4.98843e-08
-2.47247e-08
3.15041e-08
4.11729e-08
-4.79523e-08
-3.84515e-08
4.48263e-08
3.75314e-08
-4.39063e-08
-5.12194e-08
5.69189e-08
3.2237e-08
-3.79365e-08
-6.24626e-08
6.71973e-08
2.54183e-08
-3.0153e-08
-7.16026e-08
7.51175e-08
1.73471e-08
-2.0862e-08
-7.81207e-08
8.02307e-08
8.48032e-09
-1.05904e-08
-8.16536e-08
8.22249e-08
-5.49597e-10
-2.1733e-11
-8.2024e-08
8.10899e-08
-9.04518e-09
9.97928e-09
-7.93784e-08
7.7117e-08
-1.62411e-08
1.85025e-08
-7.41464e-08
7.08479e-08
-2.16753e-08
2.49738e-08
-6.69533e-08
6.29473e-08
-2.52179e-08
2.92239e-08
-5.848e-08
5.40813e-08
-2.70261e-08
3.14247e-08
-4.93453e-08
4.48171e-08
-2.74728e-08
3.2001e-08
-4.00591e-08
3.55862e-08
-2.68702e-08
3.1343e-08
-3.09665e-08
2.66833e-08
-2.5609e-08
2.98922e-08
-2.23091e-08
1.82929e-08
-2.39237e-08
2.79399e-08
-1.42259e-08
1.05196e-08
-2.20296e-08
2.5736e-08
-6.7884e-09
3.4121e-09
-2.00475e-08
2.34238e-08
-1.10576e-08
1.23619e-08
-1.30434e-09
2.91129e-09
-4.38767e-09
-1.09249e-08
1.24013e-08
6.13788e-09
-8.03931e-09
-1.39229e-08
1.58243e-08
1.03437e-08
-1.2844e-08
-1.80547e-08
2.05549e-08
1.57708e-08
-1.87408e-08
-2.08105e-08
2.37805e-08
2.18756e-08
-2.45807e-08
-1.76814e-08
2.03864e-08
2.68459e-08
-2.81634e-08
-6.1183e-09
7.43588e-09
2.84385e-08
-2.74461e-08
1.20626e-08
-1.3055e-08
2.50034e-08
-2.13639e-08
3.21469e-08
-3.57863e-08
1.62924e-08
-1.05459e-08
4.7758e-08
-5.35045e-08
3.81023e-09
2.95643e-09
5.54124e-08
-6.21791e-08
-1.02755e-08
1.72681e-08
5.68412e-08
-6.38338e-08
-2.45687e-08
3.13972e-08
5.47549e-08
-6.15834e-08
-3.84205e-08
4.48669e-08
5.03109e-08
-5.67573e-08
-5.13542e-08
5.71883e-08
4.36974e-08
-4.95315e-08
-6.28907e-08
6.77997e-08
3.49696e-08
-3.98785e-08
-7.24046e-08
7.61475e-08
2.4477e-08
-2.822e-08
-7.93859e-08
8.17369e-08
1.28117e-08
-1.51626e-08
-8.34175e-08
8.42196e-08
6.82584e-10
-1.48474e-09
-8.42398e-08
8.34731e-08
-1.08345e-08
1.16013e-08
-8.19128e-08
7.9741e-08
-2.07236e-08
2.28954e-08
-7.68102e-08
7.34945e-08
-2.82707e-08
3.15865e-08
-6.95572e-08
6.54552e-08
-3.32802e-08
3.73822e-08
-6.08589e-08
5.63146e-08
-3.58914e-08
4.04356e-08
-5.14122e-08
4.67046e-08
-3.66112e-08
4.13188e-08
-4.17635e-08
3.71135e-08
-3.58924e-08
4.05424e-08
-3.23011e-08
2.78402e-08
-3.42577e-08
3.87185e-08
-2.32802e-08
1.90916e-08
-3.20345e-08
3.6223e-08
-1.4849e-08
1.09807e-08
-2.95156e-08
3.33839e-08
-7.08505e-09
3.55973e-09
-2.68677e-08
3.0393e-08
-1.36595e-08
1.495e-08
-1.2905e-09
2.90154e-09
-4.3643e-09
-1.38711e-08
1.53339e-08
6.10357e-09
-7.99475e-09
-1.77215e-08
1.96127e-08
1.02905e-08
-1.27891e-08
-2.30553e-08
2.55539e-08
1.57261e-08
-1.87262e-08
-2.67647e-08
2.97648e-08
2.19174e-08
-2.46939e-08
-2.31255e-08
2.5902e-08
2.70477e-08
-2.84581e-08
-8.79743e-09
1.02078e-08
2.88343e-08
-2.79259e-08
1.40081e-08
-1.49166e-08
2.55469e-08
-2.19288e-08
3.94158e-08
-4.30339e-08
1.68359e-08
-1.10337e-08
5.92774e-08
-6.50796e-08
4.22218e-09
2.61868e-09
6.90082e-08
-7.5849e-08
-1.00039e-08
1.70378e-08
7.08591e-08
-7.78931e-08
-2.44009e-08
3.12838e-08
6.8439e-08
-7.53219e-08
-3.83834e-08
4.49252e-08
6.32494e-08
-6.97912e-08
-5.15551e-08
5.7516e-08
5.5419e-08
-6.13799e-08
-6.34187e-08
6.85437e-08
4.48902e-08
-5.00153e-08
-7.34039e-08
7.74235e-08
3.20951e-08
-3.61147e-08
-8.09726e-08
8.36353e-08
1.76617e-08
-2.03245e-08
-8.56465e-08
8.6781e-08
2.43695e-09
-3.57147e-09
-8.71037e-08
8.65895e-08
-1.22306e-08
1.27448e-08
-8.52113e-08
8.31654e-08
-2.50092e-08
2.70551e-08
-8.03135e-08
7.70098e-08
-3.48964e-08
3.82e-08
-7.29947e-08
6.87711e-08
-4.15326e-08
4.57562e-08
-6.4005e-08
5.92638e-08
-4.50694e-08
4.98106e-08
-5.41366e-08
4.92048e-08
-4.61241e-08
5.10559e-08
-4.40144e-08
3.91291e-08
-4.53037e-08
5.01889e-08
-3.40703e-08
2.93721e-08
-4.32905e-08
4.79887e-08
-2.45701e-08
2.01537e-08
-4.05189e-08
4.49353e-08
-1.56772e-08
1.15937e-08
-3.73526e-08
4.14361e-08
-7.48018e-09
3.75655e-09
-3.40119e-08
3.77355e-08
-1.62327e-08
1.75065e-08
-1.27372e-09
2.88993e-09
-4.33626e-09
-1.6789e-08
1.82353e-08
6.06211e-09
-7.94088e-09
-2.14975e-08
2.33762e-08
1.02258e-08
-1.27223e-08
-2.80515e-08
3.05481e-08
1.56706e-08
-1.87068e-08
-3.27824e-08
3.58186e-08
2.19667e-08
-2.48306e-08
-2.87203e-08
3.15841e-08
2.72926e-08
-2.88167e-08
-1.16722e-08
1.31963e-08
2.93178e-08
-2.85133e-08
1.57757e-08
-1.65802e-08
2.62149e-08
-2.26238e-08
4.66395e-08
-5.02306e-08
1.75031e-08
-1.16304e-08
7.09154e-08
-7.67881e-08
4.72262e-09
2.23217e-09
8.27275e-08
-8.96823e-08
-9.66391e-09
1.67644e-08
8.4941e-08
-9.20414e-08
-2.41836e-08
3.11328e-08
8.22354e-08
-8.91847e-08
-3.83188e-08
4.49646e-08
7.63862e-08
-8.3032e-08
-5.17519e-08
5.79097e-08
6.74417e-08
-7.35995e-08
-6.40134e-08
6.94184e-08
5.52819e-08
-6.06869e-08
-7.45767e-08
7.89281e-08
4.02937e-08
-4.46451e-08
-8.28449e-08
8.59228e-08
2.31617e-08
-2.62396e-08
-8.83818e-08
8.99069e-08
4.87055e-09
-6.39566e-09
-9.06122e-08
9.04409e-08
-1.31194e-08
1.32908e-08
-8.93483e-08
8.74876e-08
-2.90126e-08
3.08732e-08
-8.4734e-08
8.14351e-08
-4.15146e-08
4.48135e-08
-7.73345e-08
7.29706e-08
-5.00483e-08
5.44121e-08
-6.79766e-08
6.29832e-08
-5.46695e-08
5.96629e-08
-5.75552e-08
5.23346e-08
-5.61254e-08
6.1346e-08
-4.68307e-08
4.16562e-08
-5.52152e-08
6.03896e-08
-3.62888e-08
3.13023e-08
-5.28236e-08
5.78101e-08
-2.61962e-08
2.14968e-08
-4.94854e-08
5.41847e-08
-1.67265e-08
1.23712e-08
-4.56472e-08
5.00024e-08
-7.98122e-09
4.00621e-09
-4.1578e-08
4.55531e-08
-1.87707e-08
2.00249e-08
-1.25413e-09
2.87591e-09
-4.30266e-09
-1.96721e-08
2.10988e-08
6.0124e-09
-7.87612e-09
-2.5248e-08
2.71117e-08
1.01477e-08
-1.26404e-08
-3.30431e-08
3.55358e-08
1.56007e-08
-1.8678e-08
-3.88745e-08
4.19518e-08
2.20187e-08
-2.49855e-08
-3.44974e-08
3.74641e-08
2.7575e-08
-2.92338e-08
-1.47852e-08
1.6444e-08
2.98846e-08
-2.92056e-08
1.73248e-08
-1.80037e-08
2.70063e-08
-2.34499e-08
5.38053e-08
-5.73617e-08
1.8296e-08
-1.23371e-08
8.27014e-08
-8.86603e-08
5.31236e-09
1.75038e-09
9.66551e-08
-1.03718e-07
-9.29597e-09
1.6437e-08
9.91942e-08
-1.06335e-07
-2.39196e-08
3.09343e-08
9.61665e-08
-1.03181e-07
-3.82124e-08
4.49857e-08
8.97434e-08
-9.65167e-08
-5.19337e-08
5.82967e-08
7.98568e-08
-8.62198e-08
-6.46825e-08
7.03711e-08
6.62229e-08
-7.19115e-08
-7.5887e-08
8.06251e-08
4.91826e-08
-5.39207e-08
-8.5008e-08
8.85607e-08
2.95525e-08
-3.31051e-08
-9.15455e-08
9.35879e-08
8.16547e-09
-1.02079e-08
-9.48236e-08
9.50642e-08
-1.32804e-08
1.30398e-08
-9.4344e-08
9.27374e-08
-3.26128e-08
3.42194e-08
-9.01463e-08
8.6882e-08
-4.8091e-08
5.13553e-08
-8.27102e-08
7.81522e-08
-5.88749e-08
6.34329e-08
-7.28675e-08
6.75349e-08
-6.48155e-08
7.01481e-08
-6.17277e-08
5.61358e-08
-6.67432e-08
7.2335e-08
-5.0256e-08
4.47269e-08
-6.57367e-08
7.12659e-08
-3.89997e-08
3.36676e-08
-6.29587e-08
6.82908e-08
-2.82e-08
2.31529e-08
-5.90507e-08
6.40979e-08
-1.80213e-08
1.33301e-08
-5.45155e-08
5.92067e-08
-8.5989e-09
4.31383e-09
-4.96755e-08
5.39606e-08
-2.12682e-08
2.24996e-08
-1.23147e-09
2.85958e-09
-4.26369e-09
-2.25148e-08
2.39189e-08
5.95456e-09
-7.80052e-09
-2.89668e-08
3.08128e-08
1.00556e-08
-1.25432e-08
-3.80258e-08
4.05133e-08
1.55153e-08
-1.86382e-08
-4.50513e-08
4.81742e-08
2.20719e-08
-2.51573e-08
-4.04883e-08
4.35736e-08
2.78938e-08
-2.97084e-08
-1.8178e-08
1.99926e-08
3.05355e-08
-3.00049e-08
1.86115e-08
-1.9142e-08
2.79258e-08
-2.44126e-08
6.08977e-08
-6.44109e-08
1.92197e-08
-1.3157e-08
9.46688e-08
-1.00731e-07
5.99175e-09
1.20003e-09
1.10807e-07
-1.17999e-07
-8.8228e-09
1.60701e-08
1.13537e-07
-1.20784e-07
-2.36006e-08
3.06841e-08
1.10232e-07
-1.17315e-07
-3.80552e-08
4.49546e-08
1.03352e-07
-1.10252e-07
-5.20855e-08
5.8673e-08
9.26969e-08
-9.92844e-08
-6.53589e-08
7.13841e-08
7.77636e-08
-8.37888e-08
-7.7305e-08
8.24886e-08
5.88737e-08
-6.40573e-08
-8.73834e-08
9.14957e-08
3.69325e-08
-4.10448e-08
-9.51634e-08
9.78459e-08
1.25544e-08
-1.5237e-08
-9.97178e-08
1.00509e-07
-1.25304e-08
1.17391e-08
-1.00282e-07
9.90284e-08
-3.56544e-08
3.69079e-08
-9.66842e-08
9.35029e-08
-5.45698e-08
5.77511e-08
-8.92659e-08
8.44795e-08
-6.80993e-08
7.28858e-08
-7.88016e-08
7.30136e-08
-7.56871e-08
8.14751e-08
-6.66938e-08
6.06362e-08
-7.81408e-08
8.41984e-08
-5.43031e-08
4.83769e-08
-7.69868e-08
8.29129e-08
-4.22454e-08
3.6534e-08
-7.38084e-08
7.95199e-08
-3.0651e-08
2.5182e-08
-6.93392e-08
7.48081e-08
-1.95817e-08
1.44658e-08
-6.40898e-08
6.92058e-08
-9.32373e-09
4.67616e-09
-5.84335e-08
6.30811e-08
-2.37186e-08
2.49242e-08
-1.20569e-09
2.84155e-09
-4.22009e-09
-2.53107e-08
2.66893e-08
5.88946e-09
-7.71538e-09
-3.26492e-08
3.44751e-08
9.95139e-09
-1.24321e-08
-4.29979e-08
4.54786e-08
1.54161e-08
-1.85891e-08
-5.1322e-08
5.44951e-08
2.21287e-08
-2.53493e-08
-4.67246e-08
4.99452e-08
2.82527e-08
-3.02449e-08
-2.18934e-08
2.38855e-08
3.12765e-08
-3.09187e-08
1.95892e-08
-1.9947e-08
2.89834e-08
-2.55234e-08
6.7899e-08
-7.1359e-08
2.02842e-08
-1.40962e-08
1.06854e-07
-1.13042e-07
6.76216e-09
5.84507e-10
1.25228e-07
-1.32574e-07
-8.31339e-09
1.56272e-08
1.28055e-07
-1.35369e-07
-2.32541e-08
3.03841e-08
1.24432e-07
-1.31562e-07
-3.78455e-08
4.48741e-08
1.17214e-07
-1.24242e-07
-5.22001e-08
5.90357e-08
1.0599e-07
-1.12826e-07
-6.60355e-08
7.24457e-08
8.99977e-08
-9.64078e-08
-7.88101e-08
8.45043e-08
6.94884e-08
-7.51826e-08
-8.99388e-08
9.47684e-08
4.55043e-08
-5.03339e-08
-9.91748e-08
1.02666e-07
1.82721e-08
-2.17633e-08
-1.05347e-07
1.06856e-07
-1.05882e-08
9.07962e-09
-1.07263e-07
1.06494e-07
-3.79351e-08
3.8704e-08
-1.04539e-07
1.0153e-07
-6.08396e-08
6.38484e-08
-9.72767e-08
9.22161e-08
-7.78051e-08
8.28657e-08
-8.59885e-08
7.95378e-08
-8.75605e-08
9.40112e-08
-7.24989e-08
6.58213e-08
-9.05457e-08
9.72233e-08
-5.89716e-08
5.26211e-08
-8.90302e-08
9.53807e-08
-4.60621e-08
3.99943e-08
-8.54451e-08
9.15129e-08
-3.36961e-08
2.76694e-08
-8.04654e-08
8.6492e-08
-2.13658e-08
1.56303e-08
-7.45242e-08
8.02597e-08
-9.99327e-09
4.99405e-09
-6.8024e-08
7.30232e-08
-2.61162e-08
2.7293e-08
-1.17687e-09
2.82146e-09
-4.17136e-09
-2.80537e-08
2.94036e-08
5.8163e-09
-7.61924e-09
-3.62899e-08
3.80929e-08
9.83273e-09
-1.23046e-08
-4.7955e-08
5.04268e-08
1.52987e-08
-1.85257e-08
-5.76943e-08
6.09213e-08
2.21832e-08
-2.55554e-08
-5.32394e-08
5.66116e-08
2.86454e-08
-3.08365e-08
-2.59744e-08
2.81655e-08
3.21028e-08
-3.19442e-08
2.02087e-08
-2.03672e-08
3.01806e-08
-2.6786e-08
7.47878e-08
-7.81825e-08
2.14938e-08
-1.51565e-08
1.19301e-07
-1.25638e-07
7.62235e-09
-1.46524e-10
1.39961e-07
-1.47436e-07
-7.75567e-09
1.51493e-08
1.4272e-07
-1.50114e-07
-2.28108e-08
3.00147e-08
1.38741e-07
-1.45945e-07
-3.75693e-08
4.47304e-08
1.31335e-07
-1.38496e-07
-5.22452e-08
5.93415e-08
1.1979e-07
-1.26887e-07
-6.67021e-08
7.352e-08
1.02997e-07
-1.09815e-07
-8.03464e-08
8.66246e-08
8.11581e-08
-8.74362e-08
-9.25804e-08
9.8256e-08
5.5564e-08
-6.12395e-08
-1.0359e-07
1.08027e-07
2.56727e-08
-3.01096e-08
-1.11697e-07
1.14133e-07
-7.14714e-09
4.71135e-09
-1.15366e-07
1.15253e-07
-3.91683e-08
3.92812e-08
-1.13908e-07
1.11232e-07
-6.67123e-08
6.93886e-08
-1.07104e-07
1.01772e-07
-8.80739e-08
9.34059e-08
-9.47055e-08
8.72505e-08
-1.00913e-07
1.08368e-07
-7.90709e-08
7.15707e-08
-1.04282e-07
1.11782e-07
-6.42139e-08
5.74265e-08
-1.01796e-07
1.08584e-07
-5.03377e-08
4.34427e-08
-9.77418e-08
1.04637e-07
-3.62549e-08
2.98933e-08
-9.27221e-08
9.90836e-08
-2.32346e-08
1.65898e-08
-8.60127e-08
9.26575e-08
-9.87581e-09
4.55045e-09
-7.86722e-08
8.39976e-08
-2.84541e-08
2.95989e-08
-1.1448e-09
2.79946e-09
-4.11753e-09
-3.07383e-08
3.20563e-08
5.73489e-09
-7.51225e-09
-3.98832e-08
4.16606e-08
9.69935e-09
-1.21596e-08
-5.28932e-08
5.53535e-08
1.51615e-08
-1.84456e-08
-6.41767e-08
6.74608e-08
2.22331e-08
-2.57737e-08
-6.00659e-08
6.36064e-08
2.90699e-08
-3.14813e-08
-3.04642e-08
3.28756e-08
3.30149e-08
-3.30835e-08
2.04157e-08
-2.03471e-08
3.15242e-08
-2.82101e-08
8.1539e-08
-8.48532e-08
2.28578e-08
-1.63433e-08
1.32061e-07
-1.38575e-07
8.56885e-09
-8.86541e-10
1.55011e-07
-1.62694e-07
-7.15582e-09
1.46279e-08
1.57522e-07
-1.64994e-07
-2.23274e-08
2.95794e-08
1.5318e-07
-1.60432e-07
-3.72045e-08
4.44803e-08
1.45712e-07
-1.52988e-07
-5.21987e-08
5.95648e-08
1.34118e-07
-1.41484e-07
-6.72891e-08
7.4573e-08
1.16857e-07
-1.24141e-07
-8.18802e-08
8.88197e-08
9.40376e-08
-1.00977e-07
-9.51654e-08
1.01916e-07
6.74174e-08
-7.41677e-08
-1.08268e-07
1.13894e-07
3.51015e-08
-4.07278e-08
-1.18785e-07
1.22402e-07
-1.72663e-09
-1.89046e-09
-1.24663e-07
1.25437e-07
-3.89786e-08
3.82044e-08
-1.25117e-07
1.22966e-07
-7.18394e-08
7.39895e-08
-1.19347e-07
1.13978e-07
-9.88125e-08
1.04181e-07
-1.05566e-07
9.65227e-08
-1.16557e-07
1.25601e-07
-8.62939e-08
7.7917e-08
-1.19815e-07
1.28191e-07
-7.02679e-08
6.35099e-08
-1.15084e-07
1.21842e-07
-5.55571e-08
4.50321e-08
-1.09006e-07
1.19531e-07
-3.46962e-08
2.92547e-08
-1.07252e-07
1.12694e-07
-2.43218e-08
1.77113e-08
-9.95021e-08
1.06113e-07
-1.00381e-08
4.31638e-09
-9.06965e-08
9.64182e-08
-3.07266e-08
3.18358e-08
-1.1092e-09
2.77621e-09
-4.05954e-09
-3.33573e-08
3.46406e-08
5.64644e-09
-7.39546e-09
-4.34244e-08
4.51734e-08
9.55282e-09
-1.1999e-08
-5.78073e-08
6.02535e-08
1.50057e-08
-1.83499e-08
-7.07746e-08
7.41188e-08
2.22805e-08
-2.6007e-08
-6.7238e-08
7.09645e-08
2.95296e-08
-3.21826e-08
-3.54054e-08
3.80583e-08
3.40194e-08
-3.43452e-08
2.01538e-08
-1.9828e-08
3.30286e-08
-2.98126e-08
8.81209e-08
-9.13369e-08
2.43918e-08
-1.76654e-08
1.45191e-07
-1.51918e-07
9.60184e-09
-1.67674e-09
1.70493e-07
-1.78418e-07
-6.5222e-09
1.40723e-08
1.72471e-07
-1.80021e-07
-2.17919e-08
2.90774e-08
1.67678e-07
-1.74964e-07
-3.67574e-08
4.41408e-08
1.6031e-07
-1.67693e-07
-5.20444e-08
5.96832e-08
1.48987e-07
-1.56626e-07
-6.77992e-08
7.55897e-08
1.31666e-07
-1.39456e-07
-8.33637e-08
9.11353e-08
1.08318e-07
-1.1609e-07
-9.7512e-08
1.05781e-07
8.16206e-08
-8.98898e-08
-1.13143e-07
1.20251e-07
4.7032e-08
-5.41398e-08
-1.26711e-07
1.3191e-07
6.24094e-09
-1.14402e-08
-1.3542e-07
1.37449e-07
-3.68631e-08
3.48337e-08
-1.38678e-07
1.37288e-07
-7.58028e-08
7.71929e-08
-1.34598e-07
1.30272e-07
-1.09158e-07
1.13484e-07
-1.19858e-07
1.08251e-07
-1.35655e-07
1.47262e-07
-9.45328e-08
8.65714e-08
-1.36839e-07
1.448e-07
-7.90869e-08
7.42806e-08
-1.28563e-07
1.33369e-07
-7.08704e-08
6.8447e-08
-1.24266e-07
1.26689e-07
-6.21979e-08
5.21774e-08
-1.22808e-07
1.32828e-07
-4.08067e-08
3.03915e-08
-1.1488e-07
1.25295e-07
-1.95489e-08
9.62655e-09
-1.02955e-07
1.12877e-07
-3.2926e-08
3.39963e-08
-1.07036e-09
2.75147e-09
-3.99687e-09
-3.59056e-08
3.7151e-08
5.54983e-09
-7.26797e-09
-4.6907e-08
4.86252e-08
9.39077e-09
-1.18197e-08
-6.26911e-08
6.512e-08
1.48262e-08
-1.82321e-08
-7.74935e-08
8.08994e-08
2.23189e-08
-2.62485e-08
-7.479e-08
7.87195e-08
3.0017e-08
-3.29313e-08
-4.08392e-08
4.37535e-08
3.51111e-08
-3.5725e-08
1.93624e-08
-1.87484e-08
3.46974e-08
-3.16023e-08
9.44954e-08
-9.75904e-08
2.61054e-08
-1.91271e-08
1.58764e-07
-1.65742e-07
1.07176e-08
-2.5087e-09
1.86479e-07
-1.94688e-07
-5.86343e-09
1.34845e-08
1.87562e-07
-1.95183e-07
-2.11985e-08
2.84933e-08
1.82238e-07
-1.89533e-07
-3.62079e-08
4.36776e-08
1.75121e-07
-1.8259e-07
-5.1746e-08
5.96565e-08
1.64395e-07
-1.72305e-07
-6.81532e-08
7.65179e-08
1.47525e-07
-1.5589e-07
-8.47636e-08
9.35293e-08
1.24336e-07
-1.33102e-07
-9.94155e-08
1.09756e-07
9.9115e-08
-1.09455e-07
-1.18136e-07
1.2727e-07
6.21597e-08
-7.12935e-08
-1.36046e-07
1.43588e-07
1.76678e-08
-2.52103e-08
-1.48532e-07
1.52901e-07
-3.18551e-08
2.74856e-08
-1.56215e-07
1.55285e-07
-7.851e-08
7.94402e-08
-1.53102e-07
1.53333e-07
-1.16483e-07
1.16252e-07
-1.38454e-07
1.19366e-07
-1.59713e-07
1.78801e-07
-1.05518e-07
9.68417e-08
-1.54361e-07
1.63038e-07
-8.98065e-08
8.18025e-08
-1.36981e-07
1.44985e-07
-6.67178e-08
5.15841e-08
-1.3107e-07
1.46204e-07
-4.08784e-08
3.38571e-08
-1.44083e-07
1.51104e-07
-2.67275e-08
2.05347e-08
-1.35426e-07
1.41619e-07
-1.37345e-08
7.36754e-09
-1.2134e-07
1.27707e-07
-3.50459e-08
3.60736e-08
-1.02768e-09
2.72543e-09
-3.92965e-09
-3.83761e-08
3.95803e-08
5.44509e-09
-7.12945e-09
-5.0327e-08
5.20114e-08
9.21307e-09
-1.16211e-08
-6.75391e-08
6.99472e-08
1.46212e-08
-1.80892e-08
-8.43363e-08
8.78043e-08
2.23459e-08
-2.6496e-08
-8.27573e-08
8.69075e-08
3.05299e-08
-3.37231e-08
-4.68055e-08
4.99988e-08
3.62896e-08
-3.72247e-08
1.79779e-08
-1.70428e-08
3.6542e-08
-3.35952e-08
1.00615e-07
-1.03562e-07
2.80156e-08
-2.07375e-08
1.72864e-07
-1.80142e-07
1.19126e-08
-3.36899e-09
2.03057e-07
-2.11601e-07
-5.19432e-09
1.28563e-08
2.02776e-07
-2.10438e-07
-2.05439e-08
2.78163e-08
1.96806e-07
-2.04078e-07
-3.55439e-08
4.30729e-08
1.90093e-07
-1.97622e-07
-5.12742e-08
5.94464e-08
1.80313e-07
-1.88486e-07
-6.83082e-08
7.73024e-08
1.64561e-07
-1.73556e-07
-8.61454e-08
9.60209e-08
1.42418e-07
-1.52294e-07
-1.00779e-07
1.13782e-07
1.21076e-07
-1.3408e-07
-1.23817e-07
1.36352e-07
8.18473e-08
-9.43823e-08
-1.49152e-07
1.59885e-07
3.43717e-08
-4.5105e-08
-1.66227e-07
1.75196e-07
-2.07209e-08
1.17523e-08
-1.76883e-07
1.85323e-07
-7.88373e-08
7.03969e-08
-1.81418e-07
1.60141e-07
-1.19265e-07
1.40542e-07
-1.54045e-07
1.47574e-07
-1.98053e-07
2.04524e-07
-1.56378e-07
1.45416e-07
-1.67817e-07
1.78779e-07
-1.17059e-07
9.13307e-08
-1.62732e-07
1.88461e-07
-7.00985e-08
5.43613e-08
-1.63841e-07
1.79579e-07
-4.20228e-08
3.26275e-08
-1.56156e-07
1.65551e-07
-2.64232e-08
1.93513e-08
-1.45925e-07
1.52997e-07
-1.23627e-08
6.06673e-09
-1.33233e-07
1.39529e-07
-3.70786e-08
3.80598e-08
-9.81266e-10
2.69897e-09
-3.85905e-09
-4.07632e-08
4.19232e-08
5.33336e-09
-6.98153e-09
-5.36778e-08
5.5326e-08
9.02085e-09
-1.14046e-08
-7.23435e-08
7.47273e-08
1.43904e-08
-1.79208e-08
-9.13039e-08
9.48343e-08
2.23626e-08
-2.67528e-08
-9.11752e-08
9.55655e-08
3.10712e-08
-3.45586e-08
-5.33375e-08
5.6825e-08
3.7562e-08
-3.88507e-08
1.59348e-08
-1.46462e-08
3.85816e-08
-3.5817e-08
1.06423e-07
-1.09187e-07
3.01474e-08
-2.25111e-08
1.87592e-07
-1.95228e-07
1.31839e-08
-4.24145e-09
2.20336e-07
-2.29278e-07
-4.53364e-09
1.22129e-08
2.18067e-07
-2.25746e-07
-1.98323e-08
2.70488e-08
2.11313e-07
-2.1853e-07
-3.47636e-08
4.23179e-08
2.05179e-07
-2.12734e-07
-5.06098e-08
5.8997e-08
1.96729e-07
-2.05116e-07
-6.82145e-08
7.78513e-08
1.82866e-07
-1.92503e-07
-8.76972e-08
9.8722e-08
1.6275e-07
-1.73775e-07
-1.02184e-07
1.18922e-07
1.48617e-07
-1.65355e-07
-1.35032e-07
1.53051e-07
1.09638e-07
-1.27658e-07
-1.68871e-07
1.78462e-07
5.61662e-08
-6.5757e-08
-1.83778e-07
1.88041e-07
-3.72668e-09
-5.36585e-10
-1.95003e-07
2.02312e-07
-6.48332e-08
5.75247e-08
-2.33251e-07
2.58177e-07
-1.40634e-07
1.15708e-07
-2.47494e-07
2.10235e-07
-2.22719e-07
2.59978e-07
-1.92759e-07
2.14761e-07
-1.99005e-07
1.77004e-07
-1.54738e-07
1.45866e-07
-2.00928e-07
2.09801e-07
-9.49608e-08
8.887e-08
-1.90885e-07
1.96976e-07
-5.74525e-08
6.06588e-08
-1.72432e-07
1.69225e-07
-3.86744e-08
3.12409e-08
-1.60913e-07
1.68347e-07
-1.70151e-08
8.23698e-09
-1.47275e-07
1.56053e-07
-3.90166e-08
3.99475e-08
-9.30879e-10
2.67184e-09
-3.78436e-09
-4.30598e-08
4.41723e-08
5.21354e-09
-6.823e-09
-5.69551e-08
5.85646e-08
8.81227e-09
-1.11676e-08
-7.70973e-08
7.94526e-08
1.41289e-08
-1.77197e-08
-9.83949e-08
1.01986e-07
2.23618e-08
-2.70124e-08
-1.00083e-07
1.04734e-07
3.16334e-08
-3.54242e-08
-6.04631e-08
6.42539e-08
3.89223e-08
-4.05947e-08
1.31694e-08
-1.14971e-08
4.08244e-08
-3.82843e-08
1.11845e-07
-1.14386e-07
3.25213e-08
-2.44575e-08
2.03068e-07
-2.11132e-07
1.45227e-08
-5.10176e-09
2.38448e-07
-2.47869e-07
-3.90572e-09
1.15533e-08
2.33389e-07
-2.41036e-07
-1.90612e-08
2.61877e-08
2.25709e-07
-2.32835e-07
-3.38786e-08
4.14242e-08
2.20289e-07
-2.27834e-07
-4.97291e-08
5.82346e-08
2.13559e-07
-2.22065e-07
-6.77728e-08
7.7958e-08
2.02387e-07
-2.12572e-07
-8.97435e-08
1.01037e-07
1.85261e-07
-1.96554e-07
-1.08284e-07
1.43018e-07
1.87258e-07
-2.21993e-07
-1.69727e-07
1.71443e-07
1.44017e-07
-1.45733e-07
-1.73582e-07
1.68958e-07
7.04007e-08
-6.57771e-08
-1.47904e-07
1.55678e-07
-4.56659e-09
-3.2067e-09
-2.53815e-07
6.09083e-07
2.21158e-08
-3.77384e-07
-5.3719e-07
6.28683e-07
-2.37038e-07
1.45545e-07
-5.54874e-07
6.56882e-07
-3.3643e-07
2.34421e-07
-5.67952e-07
4.67009e-07
-2.02246e-07
3.03189e-07
-4.15686e-07
3.6274e-07
-2.47507e-07
3.00453e-07
-3.29295e-07
2.89784e-07
-2.27124e-07
2.66635e-07
-2.50081e-07
2.07275e-07
-2.12447e-07
2.55254e-07
-1.62929e-07
1.21738e-07
-2.07708e-07
2.48899e-07
-7.57228e-08
3.4924e-08
-1.92163e-07
2.32962e-07
-4.08515e-08
4.17278e-08
-8.76272e-10
2.64449e-09
-3.7062e-09
-4.526e-08
4.63217e-08
5.08578e-09
-6.65415e-09
-6.01538e-08
6.17222e-08
8.58687e-09
-1.09099e-08
-8.17923e-08
8.41153e-08
1.38333e-08
-1.74814e-08
-1.05606e-07
1.09254e-07
2.23401e-08
-2.72733e-08
-1.09523e-07
1.14456e-07
3.22142e-08
-3.63104e-08
-6.81979e-08
7.22941e-08
4.03702e-08
-4.24502e-08
9.62381e-09
-7.54381e-09
4.32869e-08
-4.10244e-08
1.16794e-07
-1.19057e-07
3.51674e-08
-2.65934e-08
2.1944e-07
-2.28014e-07
1.59198e-08
-5.91944e-09
2.57566e-07
-2.67566e-07
-3.34563e-09
1.09098e-08
2.48643e-07
-2.56208e-07
-1.82316e-08
2.52572e-08
2.3987e-07
-2.46896e-07
-3.27751e-08
4.02698e-08
2.35355e-07
-2.42849e-07
-4.85606e-08
5.71699e-08
2.30641e-07
-2.3925e-07
-6.68522e-08
7.75221e-08
2.2292e-07
-2.3359e-07
-9.20728e-08
9.46035e-08
2.05421e-07
-2.07952e-07
-1.4206e-07
2.16047e-07
2.78503e-07
-3.52491e-07
-2.06272e-07
1.33827e-07
1.1597e-07
-4.3525e-08
-8.42048e-08
6.27318e-08
2.19939e-08
-5.2097e-10
-2.29693e-07
5.18439e-07
1.48588e-07
-4.37333e-07
-6.75253e-07
6.16629e-07
5.04439e-07
-4.45815e-07
-6.5175e-07
6.67612e-07
-1.87836e-07
1.71975e-07
-6.03648e-07
5.27768e-07
-3.29674e-07
4.05554e-07
-4.71623e-07
4.28009e-07
-3.62406e-07
4.0602e-07
-3.91204e-07
3.66244e-07
-3.45568e-07
3.70528e-07
-3.23336e-07
2.80136e-07
-3.10955e-07
3.54156e-07
-2.36608e-07
1.9441e-07
-2.98789e-07
3.40986e-07
-1.51586e-07
1.11533e-07
-2.90023e-07
3.30076e-07
-6.98611e-08
3.10439e-08
-2.73486e-07
3.12303e-07
-4.25752e-08
4.33924e-08
-8.17211e-10
2.61772e-09
-3.62528e-09
-4.73569e-08
4.83645e-08
4.95085e-09
-6.4765e-09
-6.32694e-08
6.47951e-08
8.34592e-09
-1.06329e-08
-8.64208e-08
8.87078e-08
1.3503e-08
-1.72041e-08
-1.12929e-07
1.16631e-07
2.22974e-08
-2.75389e-08
-1.1954e-07
1.24782e-07
3.28172e-08
-3.72103e-08
-7.65408e-08
8.09339e-08
4.19126e-08
-4.4412e-08
5.25387e-09
-2.75449e-09
4.59964e-08
-4.40763e-08
1.21157e-07
-1.23077e-07
3.81298e-08
-2.8944e-08
2.3688e-07
-2.46066e-07
1.73663e-08
-6.65974e-09
2.77902e-07
-2.88609e-07
-2.87278e-09
1.03028e-08
2.63709e-07
-2.71139e-07
-1.73465e-08
2.41463e-08
2.53795e-07
-2.60595e-07
-3.15677e-08
3.90005e-08
2.50312e-07
-2.57744e-07
-4.71497e-08
5.57942e-08
2.47884e-07
-2.56529e-07
-6.52418e-08
7.77904e-08
2.44924e-07
-2.57473e-07
-8.60129e-08
1.17388e-07
2.09187e-07
-2.40562e-07
-2.01437e-07
1.91813e-07
4.12961e-07
-4.03336e-07
-1.18387e-07
3.2369e-08
-6.19537e-08
1.47972e-07
-9.89827e-08
4.22686e-07
1.42409e-07
-4.66113e-07
-5.99611e-07
6.25512e-07
5.54609e-07
-5.80509e-07
-5.90279e-07
4.64855e-07
3.86593e-07
-2.61169e-07
-3.76985e-07
3.49018e-07
-1.48496e-07
1.76463e-07
-3.25464e-07
3.08179e-07
-4.41389e-07
4.58674e-07
-3.02239e-07
3.00222e-07
-4.31429e-07
4.33446e-07
-2.90488e-07
2.49613e-07
-3.88585e-07
4.2946e-07
-2.11899e-07
1.93672e-07
-3.93693e-07
4.1192e-07
-1.69e-07
1.42261e-07
-3.78485e-07
4.05224e-07
-1.11755e-07
8.17551e-08
-3.66651e-07
3.9665e-07
-5.00552e-08
2.04638e-08
-3.47559e-07
3.7715e-07
-4.41784e-08
4.49319e-08
-7.53496e-10
2.59161e-09
-3.54156e-09
-4.93435e-08
5.02935e-08
4.80794e-09
-6.2892e-09
-6.62989e-08
6.77802e-08
8.08763e-09
-1.03346e-08
-9.09752e-08
9.32222e-08
1.31317e-08
-1.68789e-08
-1.20355e-07
1.24103e-07
2.22254e-08
-2.78038e-08
-1.30187e-07
1.35766e-07
3.3435e-08
-3.81051e-08
-8.54685e-08
9.01386e-08
4.3541e-08
-4.64517e-08
4.84477e-11
2.8622e-09
4.89674e-08
-4.74709e-08
1.24797e-07
-1.26293e-07
4.14487e-08
-3.15311e-08
2.55601e-07
-2.65518e-07
1.88443e-08
-7.27517e-09
2.99724e-07
-3.11294e-07
-2.56084e-09
9.75149e-09
2.78457e-07
-2.85648e-07
-1.64173e-08
2.29935e-08
2.67296e-07
-2.73873e-07
-3.02138e-08
3.75172e-08
2.65114e-07
-2.72418e-07
-4.54505e-08
5.40505e-08
2.65166e-07
-2.73766e-07
-6.37594e-08
7.74464e-08
2.71102e-07
-2.84789e-07
-6.93116e-08
1.56388e-07
3.21574e-07
-4.08651e-07
-1.82915e-07
7.70822e-09
2.43182e-07
-6.79754e-08
-1.65288e-08
3.99337e-07
6.35855e-08
-4.46393e-07
-9.15278e-07
1.17057e-06
8.68592e-07
-1.12388e-06
-1.0775e-06
8.28476e-07
4.86285e-07
-2.37263e-07
-5.77911e-07
3.85577e-07
9.16972e-08
1.00636e-07
-2.44075e-07
1.68849e-07
-2.38787e-07
3.14013e-07
-1.29879e-07
1.20811e-07
-4.70304e-07
4.79372e-07
-1.33734e-07
1.30053e-07
-4.31846e-07
4.35527e-07
-9.9893e-08
7.55372e-08
-4.67284e-07
4.9164e-07
-8.55035e-08
8.34399e-08
-4.20924e-07
4.22987e-07
-7.63108e-08
6.53792e-08
-4.22014e-07
4.32945e-07
-5.10115e-08
3.61324e-08
-4.18942e-07
4.33821e-07
-2.02511e-08
5.51203e-09