/*--------------------------------*- C++ -*----------------------------------*\
| =========                 |                                                 |
| \\      /  F ield         | OpenFOAM: The Open Source CFD Toolbox           |
|  \\    /   O peration     | Version:  2.4.0                                 |
|   \\  /    A nd           | Web:      www.OpenFOAM.org                      |
|    \\/     M anipulation  |                                                 |
\*---------------------------------------------------------------------------*/
FoamFile
{
    version     2.0;
    format      ascii;
    class       volScalarField;
    location    "0.076";
    object      p;
}
// * * * * * * * * * * * * * * * * * * * * * * * * * * * * * * * * * * * * * //

dimensions      [1 -1 -2 0 0 0 0];

internalField   nonuniform List<scalar> 
10000
(
-0.0265191
-0.0265262
-0.0265418
-0.0265659
-0.0265986
-0.0266396
-0.0266888
-0.026746
-0.0268112
-0.0268846
-0.026966
-0.0270556
-0.0271534
-0.0272595
-0.027374
-0.0274968
-0.0276281
-0.027768
-0.0279166
-0.0280737
-0.0282395
-0.028414
-0.0285971
-0.0287888
-0.0289889
-0.0291972
-0.0294135
-0.0296374
-0.0298685
-0.0301063
-0.0303501
-0.030599
-0.0308524
-0.031109
-0.031368
-0.0316283
-0.0318886
-0.0321479
-0.032405
-0.0326589
-0.0329084
-0.0331525
-0.0333905
-0.0336214
-0.0338447
-0.0340596
-0.0342658
-0.0344629
-0.0346506
-0.0348288
-0.0265094
-0.0265168
-0.0265323
-0.0265565
-0.0265891
-0.02663
-0.0266792
-0.0267366
-0.0268021
-0.0268759
-0.0269579
-0.0270481
-0.0271467
-0.0272536
-0.0273689
-0.0274927
-0.027625
-0.027766
-0.0279156
-0.0280738
-0.0282407
-0.0284162
-0.0286002
-0.0287927
-0.0289935
-0.0292023
-0.029419
-0.029643
-0.0298739
-0.0301113
-0.0303543
-0.0306023
-0.0308543
-0.0311095
-0.0313666
-0.0316248
-0.0318829
-0.0321399
-0.0323946
-0.0326459
-0.032893
-0.0331347
-0.0333704
-0.0335992
-0.0338206
-0.0340339
-0.0342388
-0.0344349
-0.034622
-0.0348001
-0.0264881
-0.0264955
-0.026511
-0.0265351
-0.0265677
-0.0266087
-0.026658
-0.0267156
-0.0267814
-0.0268556
-0.0269381
-0.0270289
-0.0271282
-0.0272359
-0.0273521
-0.0274768
-0.0276101
-0.0277521
-0.0279027
-0.0280619
-0.0282298
-0.0284063
-0.0285913
-0.0287847
-0.0289863
-0.0291958
-0.029413
-0.0296375
-0.0298687
-0.0301061
-0.030349
-0.0305966
-0.0308481
-0.0311024
-0.0313585
-0.0316155
-0.0318722
-0.0321276
-0.0323806
-0.0326303
-0.0328755
-0.0331155
-0.0333495
-0.0335767
-0.0337966
-0.0340087
-0.0342125
-0.0344079
-0.0345947
-0.0347727
-0.026453
-0.0264606
-0.0264761
-0.0265002
-0.0265329
-0.0265739
-0.0266234
-0.0266812
-0.0267474
-0.0268219
-0.0269049
-0.0269963
-0.0270961
-0.0272045
-0.0273214
-0.0274469
-0.027581
-0.0277238
-0.0278753
-0.0280355
-0.0282043
-0.0283816
-0.0285675
-0.0287618
-0.0289643
-0.0291748
-0.0293928
-0.0296181
-0.02985
-0.0300881
-0.0303316
-0.0305798
-0.0308316
-0.0310861
-0.0313424
-0.0315993
-0.0318558
-0.0321108
-0.0323633
-0.0326124
-0.0328569
-0.0330962
-0.0333293
-0.0335557
-0.0337748
-0.0339862
-0.0341895
-0.0343846
-0.0345712
-0.0347494
-0.0264043
-0.026412
-0.0264277
-0.0264519
-0.0264846
-0.0265258
-0.0265755
-0.0266336
-0.0267
-0.0267749
-0.0268583
-0.0269502
-0.0270506
-0.0271595
-0.027277
-0.0274032
-0.027538
-0.0276816
-0.0278338
-0.0279948
-0.0281644
-0.0283427
-0.0285295
-0.0287248
-0.0289284
-0.0291399
-0.0293592
-0.0295856
-0.0298189
-0.0300583
-0.0303031
-0.0305525
-0.0308057
-0.0310614
-0.0313188
-0.0315766
-0.031834
-0.0320897
-0.0323428
-0.0325923
-0.0328371
-0.0330764
-0.0333095
-0.0335357
-0.0337546
-0.0339658
-0.0341689
-0.0343639
-0.0345507
-0.0347293
-0.0263422
-0.02635
-0.0263659
-0.0263902
-0.0264231
-0.0264645
-0.0265144
-0.0265727
-0.0266394
-0.0267147
-0.0267985
-0.0268908
-0.0269916
-0.0271011
-0.0272191
-0.0273459
-0.0274813
-0.0276255
-0.0277785
-0.0279402
-0.0281107
-0.0282898
-0.0284777
-0.0286741
-0.0288788
-0.0290918
-0.0293125
-0.0295406
-0.0297757
-0.030017
-0.0302639
-0.0305155
-0.0307708
-0.0310287
-0.0312882
-0.0315481
-0.0318074
-0.0320649
-0.0323195
-0.0325703
-0.0328161
-0.0330563
-0.0332901
-0.0335167
-0.0337359
-0.0339473
-0.0341506
-0.0343458
-0.0345328
-0.0347119
-0.0262668
-0.0262748
-0.0262907
-0.0263153
-0.0263483
-0.0263899
-0.02644
-0.0264986
-0.0265656
-0.0266412
-0.0267253
-0.026818
-0.0269193
-0.0270292
-0.0271477
-0.0272749
-0.0274109
-0.0275557
-0.0277092
-0.0278717
-0.0280429
-0.028223
-0.0284119
-0.0286095
-0.0288158
-0.0290303
-0.029253
-0.0294832
-0.0297207
-0.0299646
-0.0302143
-0.0304689
-0.0307274
-0.0309885
-0.0312512
-0.0315143
-0.0317765
-0.0320368
-0.032294
-0.032547
-0.0327948
-0.0330367
-0.0332717
-0.0334994
-0.0337193
-0.0339311
-0.0341348
-0.0343304
-0.0345179
-0.0346975
-0.026178
-0.0261862
-0.0262023
-0.026227
-0.0262603
-0.0263021
-0.0263524
-0.0264112
-0.0264786
-0.0265544
-0.0266389
-0.0267319
-0.0268335
-0.0269437
-0.0270626
-0.0271902
-0.0273266
-0.0274719
-0.027626
-0.0277891
-0.0279611
-0.0281422
-0.0283322
-0.0285312
-0.0287391
-0.0289556
-0.0291805
-0.0294134
-0.0296538
-0.0299011
-0.0301546
-0.0304131
-0.0306758
-0.0309412
-0.0312083
-0.0314756
-0.031742
-0.0320061
-0.0322669
-0.0325232
-0.0327739
-0.0330181
-0.0332551
-0.0334843
-0.0337053
-0.0339179
-0.0341222
-0.0343181
-0.034506
-0.0346861
-0.026076
-0.0260843
-0.0261006
-0.0261255
-0.026159
-0.026201
-0.0262516
-0.0263107
-0.0263783
-0.0264544
-0.0265391
-0.0266323
-0.0267342
-0.0268447
-0.0269638
-0.0270918
-0.0272285
-0.0273742
-0.0275288
-0.0276924
-0.0278652
-0.0280473
-0.0282385
-0.0284391
-0.0286488
-0.0288675
-0.0290951
-0.0293312
-0.0295753
-0.0298268
-0.0300848
-0.0303484
-0.0306164
-0.0308874
-0.0311601
-0.0314329
-0.0317046
-0.0319739
-0.0322394
-0.0324999
-0.0327543
-0.0330017
-0.0332413
-0.0334724
-0.0336948
-0.0339083
-0.0341131
-0.0343093
-0.0344974
-0.0346779
-0.0259605
-0.0259691
-0.0259856
-0.0260108
-0.0260445
-0.0260868
-0.0261377
-0.026197
-0.0262648
-0.0263411
-0.026426
-0.0265194
-0.0266214
-0.026732
-0.0268514
-0.0269795
-0.0271165
-0.0272624
-0.0274174
-0.0275816
-0.0277552
-0.0279382
-0.0281307
-0.0283329
-0.0285447
-0.0287661
-0.0289969
-0.0292367
-0.0294852
-0.0297417
-0.0300054
-0.0302752
-0.0305498
-0.0308277
-0.0311074
-0.0313871
-0.0316655
-0.031941
-0.0322124
-0.0324783
-0.0327374
-0.0329887
-0.0332313
-0.0334648
-0.0336887
-0.0339031
-0.0341082
-0.0343045
-0.0344924
-0.0346728
-0.0258318
-0.0258407
-0.0258575
-0.025883
-0.025917
-0.0259596
-0.0260106
-0.0260702
-0.0261382
-0.0262147
-0.0262996
-0.0263931
-0.0264951
-0.0266058
-0.0267252
-0.0268533
-0.0269904
-0.0271365
-0.0272918
-0.0274565
-0.0276308
-0.0278148
-0.0280087
-0.0282127
-0.0284269
-0.0286512
-0.0288856
-0.0291298
-0.0293835
-0.029646
-0.0299166
-0.0301939
-0.0304766
-0.030763
-0.0310512
-0.0313394
-0.0316259
-0.0319091
-0.0321876
-0.0324599
-0.0327246
-0.0329805
-0.0332268
-0.0334628
-0.0336883
-0.0339034
-0.0341084
-0.0343041
-0.0344913
-0.0346709
-0.0256899
-0.0256991
-0.0257163
-0.0257421
-0.0257764
-0.0258193
-0.0258706
-0.0259303
-0.0259984
-0.026075
-0.02616
-0.0262534
-0.0263554
-0.026466
-0.0265852
-0.0267133
-0.0268503
-0.0269965
-0.027152
-0.0273171
-0.027492
-0.027677
-0.0278724
-0.0280784
-0.0282952
-0.0285228
-0.0287613
-0.0290106
-0.0292703
-0.02954
-0.0298187
-0.0301052
-0.0303977
-0.0306943
-0.0309928
-0.0312912
-0.0315874
-0.0318798
-0.0321668
-0.0324466
-0.0327178
-0.0329791
-0.0332294
-0.033468
-0.0336949
-0.0339102
-0.0341144
-0.0343087
-0.0344941
-0.034672
-0.0255347
-0.0255444
-0.0255621
-0.0255883
-0.0256229
-0.025666
-0.0257175
-0.0257774
-0.0258456
-0.0259221
-0.0260071
-0.0261004
-0.0262021
-0.0263125
-0.0264315
-0.0265594
-0.0266962
-0.0268423
-0.0269979
-0.0271632
-0.0273388
-0.0275248
-0.0277218
-0.0279299
-0.0281495
-0.0283809
-0.0286241
-0.0288792
-0.0291459
-0.0294238
-0.0297122
-0.0300098
-0.0303143
-0.0306231
-0.030934
-0.0312444
-0.031552
-0.0318551
-0.0321519
-0.0324405
-0.0327192
-0.0329864
-0.033241
-0.0334823
-0.0337101
-0.0339249
-0.0341274
-0.034319
-0.0345013
-0.034676
-0.0253665
-0.0253768
-0.025395
-0.0254216
-0.0254566
-0.0254999
-0.0255516
-0.0256115
-0.0256797
-0.0257561
-0.0258409
-0.0259339
-0.0260354
-0.0261454
-0.0262641
-0.0263916
-0.0265281
-0.0266739
-0.0268294
-0.026995
-0.0271711
-0.0273582
-0.0275567
-0.0277671
-0.0279899
-0.0282254
-0.028474
-0.0287356
-0.0290103
-0.0292977
-0.0295978
-0.0299089
-0.0302277
-0.0305511
-0.0308765
-0.0312009
-0.0315217
-0.0318371
-0.0321451
-0.0324437
-0.0327308
-0.0330046
-0.0332638
-0.0335075
-0.0337357
-0.0339489
-0.0341483
-0.0343356
-0.034513
-0.0346827
-0.0251855
-0.0251964
-0.0252151
-0.0252422
-0.0252775
-0.0253211
-0.0253728
-0.0254328
-0.0255009
-0.0255771
-0.0256615
-0.0257541
-0.0258551
-0.0259647
-0.0260828
-0.0262098
-0.0263459
-0.0264914
-0.0266467
-0.0268124
-0.026989
-0.0271771
-0.0273773
-0.0275903
-0.0278165
-0.0280567
-0.0283113
-0.0285804
-0.028864
-0.0291623
-0.029476
-0.0298036
-0.0301397
-0.0304803
-0.0308227
-0.0311629
-0.0314984
-0.0318274
-0.032148
-0.0324578
-0.0327543
-0.0330353
-0.0332993
-0.0335452
-0.0337731
-0.0339835
-0.0341782
-0.0343593
-0.0345297
-0.0346924
-0.0249917
-0.0250033
-0.0250227
-0.0250502
-0.0250859
-0.0251296
-0.0251815
-0.0252413
-0.0253092
-0.025385
-0.025469
-0.0255611
-0.0256615
-0.0257703
-0.0258878
-0.0260141
-0.0261496
-0.0262947
-0.0264499
-0.0266156
-0.0267927
-0.0269818
-0.0271838
-0.0273995
-0.0276296
-0.0278751
-0.0281364
-0.028414
-0.0287076
-0.0290175
-0.029347
-0.0296955
-0.0300522
-0.0304126
-0.0307746
-0.0311322
-0.0314834
-0.0318271
-0.0321614
-0.0324835
-0.0327904
-0.0330795
-0.0333485
-0.0335965
-0.0338233
-0.0340298
-0.0342181
-0.0343912
-0.0345524
-0.0347058
-0.0247853
-0.0247978
-0.0248179
-0.0248459
-0.0248818
-0.0249258
-0.0249776
-0.0250372
-0.0251047
-0.0251801
-0.0252634
-0.0253548
-0.0254544
-0.0255624
-0.025679
-0.0258045
-0.0259393
-0.0260839
-0.0262388
-0.0264046
-0.0265822
-0.0267725
-0.0269765
-0.0271952
-0.0274297
-0.027681
-0.0279502
-0.0282377
-0.0285414
-0.0288621
-0.0292092
-0.0295851
-0.0299668
-0.0303493
-0.0307338
-0.0311097
-0.0314769
-0.0318358
-0.0321845
-0.0325201
-0.0328386
-0.0331366
-0.0334114
-0.0336614
-0.0338866
-0.0340882
-0.0342688
-0.0344319
-0.0345821
-0.0347241
-0.0245667
-0.0245801
-0.0246009
-0.0246294
-0.0246656
-0.0247096
-0.0247613
-0.0248207
-0.0248877
-0.0249625
-0.025045
-0.0251355
-0.0252341
-0.025341
-0.0254566
-0.0255811
-0.0257151
-0.025859
-0.0260136
-0.0261796
-0.0263579
-0.0265496
-0.0267558
-0.0269779
-0.0272173
-0.0274754
-0.0277537
-0.0280525
-0.0283638
-0.0286928
-0.0290575
-0.0294718
-0.0298841
-0.0302888
-0.0306991
-0.0310938
-0.0314762
-0.0318504
-0.0322145
-0.0325648
-0.0328964
-0.0332047
-0.0334862
-0.0337388
-0.0339624
-0.0341585
-0.0343303
-0.0344823
-0.0346201
-0.0347495
-0.0243361
-0.0243503
-0.024372
-0.0244009
-0.0244373
-0.0244813
-0.0245328
-0.0245917
-0.0246582
-0.0247322
-0.0248138
-0.0249032
-0.0250006
-0.0251063
-0.0252207
-0.0253441
-0.0254771
-0.0256203
-0.0257746
-0.0259407
-0.0261199
-0.0263133
-0.0265223
-0.0267484
-0.0269934
-0.0272593
-0.0275483
-0.0278596
-0.028169
-0.0285021
-0.0288872
-0.0293525
-0.0297993
-0.0302297
-0.0306736
-0.031085
-0.031475
-0.0318632
-0.0322446
-0.0326121
-0.0329592
-0.03328
-0.0335701
-0.0338268
-0.0340494
-0.0342401
-0.0344028
-0.0345431
-0.0346679
-0.0347841
-0.0240937
-0.0241089
-0.0241313
-0.0241606
-0.0241972
-0.024241
-0.0242922
-0.0243506
-0.0244164
-0.0244895
-0.02457
-0.0246581
-0.0247541
-0.0248585
-0.0249715
-0.0250937
-0.0252257
-0.0253682
-0.0255221
-0.0256886
-0.0258689
-0.0260642
-0.0262764
-0.0265073
-0.0267588
-0.0270334
-0.0273352
-0.0276631
-0.0279452
-0.0282643
-0.0286721
-0.0292379
-0.029703
-0.030154
-0.0306779
-0.0310685
-0.0314578
-0.0318617
-0.0322642
-0.0326535
-0.0330208
-0.0333586
-0.0336606
-0.0339237
-0.034147
-0.0343329
-0.0344866
-0.0346153
-0.0347272
-0.0348307
-0.0238398
-0.023856
-0.023879
-0.0239087
-0.0239453
-0.023989
-0.0240396
-0.0240974
-0.0241623
-0.0242343
-0.0243136
-0.0244003
-0.0244949
-0.0245977
-0.0247093
-0.0248302
-0.0249611
-0.025103
-0.0252569
-0.0254239
-0.0256056
-0.0258035
-0.0260194
-0.0262555
-0.0265139
-0.026797
-0.0271126
-0.0274683
-0.0277125
-0.0279464
-0.0278404
-0.0275519
-0.0283227
-0.0294892
-0.0305609
-0.0310362
-0.0314086
-0.0318302
-0.0322606
-0.0326792
-0.0330749
-0.0334367
-0.0337567
-0.0340305
-0.0342571
-0.0344394
-0.0345844
-0.0347012
-0.0348005
-0.0348923
-0.0235748
-0.0235918
-0.0236156
-0.0236455
-0.023682
-0.0237253
-0.0237754
-0.0238324
-0.0238962
-0.023967
-0.0240449
-0.0241301
-0.0242231
-0.0243242
-0.0244342
-0.0245538
-0.0246837
-0.0248252
-0.0249793
-0.0251475
-0.0253313
-0.0255324
-0.0257527
-0.0259942
-0.0262586
-0.0265487
-0.0268731
-0.0272535
-0.0276254
-0.0265809
-0.0252644
-0.0253661
-0.0254441
-0.0253012
-0.0297241
-0.0308065
-0.031284
-0.0317482
-0.0322205
-0.0326823
-0.0331183
-0.0335149
-0.033862
-0.0341534
-0.0343872
-0.0345672
-0.0347027
-0.0348065
-0.0348924
-0.0349727
-0.0232989
-0.0233169
-0.0233411
-0.0233712
-0.0234076
-0.0234504
-0.0234997
-0.0235556
-0.0236182
-0.0236876
-0.0237639
-0.0238476
-0.0239388
-0.0240382
-0.0241466
-0.0242649
-0.0243941
-0.0245354
-0.0246904
-0.0248604
-0.0250473
-0.0252528
-0.0254783
-0.0257243
-0.0259918
-0.0262802
-0.0265954
-0.0269503
-0.0273465
-0.0236539
-0.024519
-0.0256349
-0.0262558
-0.0275762
-0.0298165
-0.0306091
-0.0310945
-0.0316164
-0.0321469
-0.0326662
-0.0331573
-0.0336024
-0.0339882
-0.0343064
-0.0345529
-0.0347314
-0.0348547
-0.0349413
-0.0350104
-0.0350777
-0.0230126
-0.0230313
-0.0230561
-0.0230862
-0.0231222
-0.0231643
-0.0232127
-0.0232674
-0.0233285
-0.0233963
-0.0234709
-0.0235527
-0.0236422
-0.0237398
-0.0238466
-0.0239638
-0.0240925
-0.0242342
-0.0243907
-0.0245638
-0.0247555
-0.0249671
-0.0251989
-0.02545
-0.0257182
-0.0259975
-0.0262787
-0.0265145
-0.026945
-0.0275427
-0.0276039
-0.027224
-0.0276092
-0.0286274
-0.0296288
-0.0302347
-0.0307683
-0.0314241
-0.0320387
-0.0326402
-0.0332068
-0.0337178
-0.0341572
-0.0345136
-0.0347792
-0.0349559
-0.0350605
-0.0351208
-0.0351654
-0.0352152
-0.0227162
-0.0227356
-0.0227607
-0.0227906
-0.0228261
-0.0228674
-0.0229146
-0.0229679
-0.0230273
-0.0230933
-0.023166
-0.0232458
-0.0233333
-0.0234293
-0.0235346
-0.0236507
-0.0237792
-0.023922
-0.0240811
-0.0242588
-0.0244572
-0.0246774
-0.024919
-0.0251802
-0.0254566
-0.0257369
-0.0259897
-0.0262015
-0.0263031
-0.0257946
-0.025753
-0.0269776
-0.0276341
-0.0283762
-0.0291435
-0.0298285
-0.0305006
-0.0311946
-0.0319101
-0.03262
-0.0332888
-0.0338875
-0.0343985
-0.0348084
-0.0351013
-0.0352736
-0.0353464
-0.0353625
-0.0353679
-0.0353932
-0.0224101
-0.02243
-0.0224552
-0.0224849
-0.0225196
-0.0225598
-0.0226056
-0.0226572
-0.0227148
-0.0227786
-0.0228491
-0.0229268
-0.0230123
-0.0231065
-0.0232105
-0.0233258
-0.0234545
-0.023599
-0.0237618
-0.0239458
-0.024153
-0.0243848
-0.0246411
-0.0249198
-0.025218
-0.0255218
-0.0257988
-0.0258917
-0.0254669
-0.0255098
-0.0272399
-0.0272222
-0.0275258
-0.0280952
-0.0287374
-0.0294077
-0.0301307
-0.0309219
-0.0317646
-0.032619
-0.0334247
-0.0341378
-0.0347432
-0.0352283
-0.0355636
-0.0357272
-0.0357439
-0.0356817
-0.0356201
-0.0356105
-0.0220947
-0.0221149
-0.0221401
-0.0221692
-0.022203
-0.0222419
-0.022286
-0.0223356
-0.022391
-0.0224525
-0.0225206
-0.0225959
-0.0226792
-0.0227715
-0.0228742
-0.022989
-0.0231183
-0.0232651
-0.0234327
-0.0236241
-0.0238419
-0.0240879
-0.0243629
-0.0246641
-0.0249914
-0.0253294
-0.0256055
-0.0246345
-0.0246658
-0.0249425
-0.0247508
-0.0270837
-0.0272746
-0.0277093
-0.0282602
-0.0289115
-0.0296822
-0.0305826
-0.0315909
-0.0326433
-0.033632
-0.0344895
-0.0352175
-0.035817
-0.0362227
-0.0363742
-0.036291
-0.0360849
-0.035901
-0.0358369
-0.0217703
-0.0217907
-0.0218155
-0.0218439
-0.0218764
-0.0219137
-0.0219559
-0.0220033
-0.0220562
-0.0221151
-0.0221805
-0.0222531
-0.0223339
-0.0224242
-0.0225255
-0.02264
-0.0227704
-0.02292
-0.0230927
-0.0232922
-0.0235217
-0.0237838
-0.0240805
-0.0244109
-0.0247765
-0.0251554
-0.0253393
-0.0234271
-0.0241164
-0.0251429
-0.026189
-0.0265989
-0.0268271
-0.0271787
-0.0276576
-0.0282849
-0.0290977
-0.0300899
-0.0313577
-0.0326919
-0.0339262
-0.0349546
-0.0358397
-0.0366217
-0.0371637
-0.0373038
-0.0370405
-0.0365634
-0.0361476
-0.03599
-0.0214374
-0.0214576
-0.0214819
-0.0215092
-0.0215403
-0.0215756
-0.0216156
-0.0216605
-0.0217106
-0.0217665
-0.0218289
-0.0218985
-0.0219766
-0.0220645
-0.0221642
-0.0222783
-0.0224098
-0.0225626
-0.0227406
-0.0229481
-0.0231891
-0.0234673
-0.0237854
-0.0241445
-0.0245459
-0.0249892
-0.0254029
-0.0228712
-0.0232066
-0.0255935
-0.0258459
-0.0260961
-0.026311
-0.0263903
-0.0268639
-0.0274738
-0.0283043
-0.029467
-0.0309971
-0.0327589
-0.0343388
-0.0355482
-0.0366074
-0.0376843
-0.0385365
-0.0386734
-0.0380808
-0.0370823
-0.0362243
-0.0359148
-0.0210963
-0.0211162
-0.0211396
-0.0211655
-0.0211948
-0.021228
-0.0212654
-0.0213074
-0.0213544
-0.021407
-0.0214659
-0.0215322
-0.0216071
-0.0216923
-0.0217901
-0.0219034
-0.0220358
-0.0221915
-0.0223746
-0.0225895
-0.0228408
-0.0231329
-0.0234686
-0.0238492
-0.0242741
-0.0247578
-0.0253681
-0.0255633
-0.0251344
-0.0255025
-0.0255962
-0.0256782
-0.0257033
-0.0256302
-0.0258358
-0.0263971
-0.0271751
-0.0284499
-0.0303856
-0.0328649
-0.0349749
-0.036316
-0.037502
-0.0391482
-0.0405698
-0.0407943
-0.0395849
-0.0375618
-0.0358577
-0.0353406
-0.0207475
-0.0207666
-0.0207888
-0.0208131
-0.0208403
-0.020871
-0.0209055
-0.0209442
-0.0209877
-0.0210366
-0.0210917
-0.0211541
-0.0212254
-0.0213075
-0.0214029
-0.0215149
-0.0216476
-0.0218054
-0.0219928
-0.0222141
-0.022474
-0.0227766
-0.0231242
-0.0235155
-0.0239467
-0.0244128
-0.0248886
-0.0252002
-0.0251226
-0.0253
-0.0254104
-0.0253289
-0.0251467
-0.0248637
-0.0247574
-0.0249673
-0.0255307
-0.0268069
-0.0292869
-0.0330872
-0.0361537
-0.0373263
-0.038304
-0.0408183
-0.0437978
-0.0443046
-0.0419311
-0.0378411
-0.0344565
-0.0337517
-0.0203914
-0.0204094
-0.0204301
-0.0204524
-0.0204771
-0.0205049
-0.0205362
-0.0205713
-0.0206108
-0.0206555
-0.0207064
-0.0207645
-0.0208316
-0.0209099
-0.0210022
-0.0211122
-0.0212443
-0.0214032
-0.0215935
-0.02182
-0.0220872
-0.0223988
-0.0227567
-0.0231593
-0.0236017
-0.0240744
-0.0245539
-0.0250083
-0.0255084
-0.0255584
-0.0253581
-0.0250787
-0.0246998
-0.0239724
-0.0233273
-0.0230034
-0.0231283
-0.0241071
-0.0272363
-0.0338162
-0.0384546
-0.0384347
-0.038109
-0.0420334
-0.0483607
-0.0499191
-0.0454804
-0.037249
-0.0306232
-0.0299982
-0.0200282
-0.0200449
-0.0200637
-0.0200837
-0.0201056
-0.0201302
-0.0201578
-0.0201888
-0.020224
-0.0202641
-0.0203101
-0.0203634
-0.0204257
-0.0204995
-0.0205879
-0.0206949
-0.0208252
-0.0209838
-0.0211754
-0.0214052
-0.0216779
-0.0219971
-0.0223639
-0.0227769
-0.023232
-0.0237222
-0.024238
-0.0247879
-0.0251824
-0.0230866
-0.0237425
-0.0249806
-0.0244048
-0.0229228
-0.0214918
-0.0203386
-0.0195764
-0.0194814
-0.0229569
-0.033842
-0.0429001
-0.0388165
-0.0356822
-0.0175781
-0.0529821
-0.0573538
-0.0505879
-0.0344888
-0.0217024
-0.0218089
-0.0196585
-0.0196734
-0.01969
-0.0197073
-0.0197261
-0.0197471
-0.0197707
-0.0197973
-0.0198277
-0.0198627
-0.0199033
-0.019951
-0.0200078
-0.0200762
-0.0201597
-0.0202625
-0.0203897
-0.0205462
-0.0207372
-0.0209679
-0.0212434
-0.0215673
-0.0219405
-0.0223604
-0.0228218
-0.0233171
-0.0238385
-0.0243746
-0.0248338
-0.0244468
-0.0164887
-0.0174699
-0.0211037
-0.0215018
-0.01937
-0.0171154
-0.0147162
-0.0121024
-0.0114067
-0.0291807
-0.0510298
-0.0297656
-0.0383516
-0.027256
-0.051953
-0.0670344
-0.05924
-0.0271733
-0.00139473
-0.00412598
-0.0192825
-0.0192953
-0.0193094
-0.0193237
-0.0193391
-0.0193561
-0.0193752
-0.0193971
-0.0194222
-0.0194515
-0.0194861
-0.0195276
-0.019578
-0.0196401
-0.0197175
-0.0198146
-0.0199369
-0.0200895
-0.0202775
-0.0205064
-0.0207814
-0.0211067
-0.0214839
-0.0219107
-0.0223816
-0.0228906
-0.0234316
-0.0239876
-0.024521
-0.0250387
-0.0224314
-0.0187929
-0.0214695
-0.0236795
-0.0170713
-0.0142974
-0.0097635
-0.00367907
0.00625428
-0.00401972
0.0228014
0.00464665
-0.0206359
0.0235115
-0.0726926
-0.160544
-0.150147
-0.0505535
0.0354449
0.0230674
-0.0189006
-0.0189111
-0.0189222
-0.0189332
-0.0189448
-0.0189576
-0.018972
-0.0189886
-0.0190079
-0.019031
-0.019059
-0.0190935
-0.0191366
-0.0191913
-0.0192612
-0.019351
-0.0194664
-0.0196126
-0.0197949
-0.0200188
-0.02029
-0.0206135
-0.020992
-0.0214245
-0.0219073
-0.0224374
-0.0230141
-0.0236157
-0.0242888
-0.0249268
-0.0254626
-0.0267886
-0.0275944
-0.0176031
-0.0181684
-0.00436605
-0.00492859
0.0131934
0.0274179
-0.026601
0.0949499
-0.0522099
-0.188642
-0.257137
-0.912774
4.91441
13.6796
11.0183
4.77088
7.54269
-0.0185131
-0.018521
-0.0185289
-0.0185364
-0.018544
-0.0185522
-0.0185615
-0.0185723
-0.0185855
-0.0186019
-0.0186225
-0.0186492
-0.0186841
-0.0187302
-0.0187911
-0.0188717
-0.0189778
-0.0191149
-0.0192883
-0.0195039
-0.0197679
-0.020086
-0.0204615
-0.0208951
-0.0213878
-0.0219423
-0.0225703
-0.0232981
-0.0241483
-0.0251568
-0.0263176
-0.0274744
-0.0290171
-0.0298179
-0.0110665
0.0206059
0.0592683
0.0849813
0.108294
0.0828
1.30971
6.97251
10.9593
4.77144
19.7986
42.5355
43.8628
31.175
21.5337
22.905
-0.0181205
-0.0181255
-0.01813
-0.0181337
-0.018137
-0.0181403
-0.0181442
-0.018149
-0.0181556
-0.0181646
-0.0181774
-0.0181955
-0.0182211
-0.0182572
-0.0183077
-0.0183771
-0.0184713
-0.0185963
-0.0187574
-0.0189605
-0.0192123
-0.019519
-0.0198858
-0.0203118
-0.0208031
-0.0213669
-0.0220104
-0.0228308
-0.0238627
-0.025225
-0.0270882
-0.0297057
-0.0337688
-0.0406207
-0.000975637
0.0242444
0.0601584
0.0703377
0.403956
1.68671
11.8985
26.2458
39.6954
37.8057
35.1389
38.2975
37.9672
33.2732
29.3607
29.3875
-0.017723
-0.0177249
-0.0177259
-0.0177256
-0.0177243
-0.0177226
-0.0177207
-0.0177192
-0.0177187
-0.0177199
-0.0177241
-0.0177329
-0.0177485
-0.0177734
-0.0178119
-0.0178682
-0.0179479
-0.0180574
-0.0182024
-0.0183888
-0.0186226
-0.0189088
-0.0192603
-0.0196659
-0.0201337
-0.0206129
-0.0213002
-0.022095
-0.0231463
-0.0246444
-0.0269553
-0.0305488
-0.0358922
-0.058353
0.0870958
0.0486029
0.11662
0.00460599
5.91386
22.609
29.6704
41.8101
41.8715
38.9368
37.5368
37.5152
36.7267
34.6466
32.9032
32.6806
-0.0173211
-0.0173198
-0.0173171
-0.0173126
-0.0173066
-0.0172995
-0.0172916
-0.0172833
-0.0172753
-0.0172683
-0.0172633
-0.017262
-0.0172664
-0.0172792
-0.0173041
-0.0173454
-0.0174084
-0.0174994
-0.0176247
-0.0177902
-0.0180012
-0.0182647
-0.0185789
-0.0189472
-0.0193716
-0.0198302
-0.0203622
-0.0210029
-0.021811
-0.0229044
-0.0246087
-0.0269307
-0.0283092
-0.0374865
0.0511664
0.125137
0.215151
2.18699
31.2974
52.1366
46.4974
43.06
41.3524
39.444
38.2678
37.6357
36.8526
35.7537
34.8715
34.6431
-0.0169151
-0.0169106
-0.016904
-0.0168952
-0.0168843
-0.0168717
-0.0168575
-0.0168422
-0.0168263
-0.0168105
-0.0167957
-0.0167834
-0.0167756
-0.0167749
-0.0167847
-0.0168091
-0.0168531
-0.0169226
-0.0170245
-0.0171648
-0.0173506
-0.0175919
-0.017707
-0.0181568
-0.0185393
-0.0188887
-0.0192485
-0.0196483
-0.0201012
-0.0206755
-0.021546
-0.0231305
-0.0189245
-0.0105419
-0.0910405
-0.288283
4.68996
20.1615
44.3519
47.6234
45.526
43.1334
41.3472
39.7823
38.7369
38.0245
37.3628
36.6846
36.1695
35.9887
-0.0165056
-0.0164978
-0.0164874
-0.0164743
-0.0164584
-0.0164401
-0.0164195
-0.0163969
-0.0163728
-0.0163477
-0.0163225
-0.0162985
-0.0162776
-0.0162621
-0.0162551
-0.0162605
-0.0162828
-0.0163277
-0.0164018
-0.0165124
-0.0166671
-0.0168659
-0.0171307
-0.0174421
-0.017662
-0.01783
-0.0180269
-0.0181655
-0.018254
-0.018312
-0.0182625
-0.0179886
-0.0162434
0.00624151
0.0439872
1.93337
21.7199
35.304
46.9637
45.7464
44.3865
42.635
41.1721
39.98
39.1214
38.4819
37.942
37.4728
37.1349
36.9974
-0.016093
-0.0160821
-0.0160679
-0.0160505
-0.0160297
-0.0160057
-0.0159786
-0.0159486
-0.0159161
-0.0158815
-0.0158454
-0.0158092
-0.0157743
-0.0157429
-0.0157178
-0.0157023
-0.0157007
-0.0157179
-0.0157605
-0.0158366
-0.0159534
-0.0161185
-0.0163496
-0.0166558
-0.0168195
-0.0167716
-0.016695
-0.0166609
-0.0164099
-0.0158372
-0.0146177
-0.0118917
-0.00637284
0.072215
0.192198
5.14179
24.7448
44.9651
44.492
43.7625
42.8727
41.8507
40.8996
40.0871
39.4357
38.9079
38.4702
38.1171
37.8726
37.7671
-0.0156781
-0.0156642
-0.0156463
-0.0156248
-0.0155992
-0.0155695
-0.0155359
-0.0154985
-0.0154575
-0.0154132
-0.0153662
-0.0153173
-0.015268
-0.01522
-0.0151757
-0.015138
-0.0151105
-0.0150976
-0.015105
-0.0151406
-0.0152125
-0.0153322
-0.015517
-0.0158967
-0.0124636
-0.0135869
-0.0154328
-0.0152958
-0.014955
-0.0143568
-0.0130985
-0.0113883
-0.00481705
0.0351773
0.133142
10.9931
35.3257
42.7698
42.3584
41.9487
41.4703
41.0049
40.5427
40.081
39.6382
39.2334
38.8836
38.6051
38.4153
38.3313
-0.0152615
-0.0152448
-0.0152235
-0.015198
-0.0151677
-0.0151326
-0.0150927
-0.015048
-0.0149987
-0.0149447
-0.0148867
-0.0148252
-0.0147613
-0.0146964
-0.0146325
-0.0145719
-0.0145173
-0.0144725
-0.0144415
-0.0144296
-0.0144428
-0.0144848
-0.0145593
-0.0146285
-0.0131819
-0.011941
-0.01244
-0.0143522
-0.0137697
-0.0137343
-0.0135587
-0.0134919
-0.0106448
0.00841204
0.00171122
21.6327
42.4642
40.7466
40.4219
40.3158
40.2626
40.2268
40.1376
39.9576
39.7043
39.4222
39.1553
38.9352
38.7835
38.7144
-0.0148438
-0.0148246
-0.0148002
-0.014771
-0.0147363
-0.014696
-0.0146501
-0.0145985
-0.014541
-0.0144778
-0.014409
-0.0143351
-0.0142569
-0.0141754
-0.0140921
-0.0140087
-0.0139275
-0.0138511
-0.0137822
-0.0137238
-0.0136783
-0.0136443
-0.0136098
-0.0135347
-0.0133396
-0.0120569
-0.0115203
-0.0117239
-0.0119776
-0.0126699
-0.0137268
-0.0130464
-0.00584256
0.0109131
-1.19998
26.1621
37.8103
38.1151
38.6107
38.988
39.3075
39.5717
39.731
39.7528
39.6534
39.4824
39.2929
39.1267
39.0073
38.9502
-0.0144259
-0.0144045
-0.0143773
-0.0143447
-0.0143059
-0.0142609
-0.0142094
-0.0141512
-0.0140862
-0.0140143
-0.0139353
-0.0138496
-0.0137577
-0.0136603
-0.0135585
-0.0134538
-0.0133476
-0.013242
-0.0131391
-0.0130406
-0.0129473
-0.0128573
-0.012761
-0.0126409
-0.012479
-0.0123601
-0.0124848
-0.0114288
-0.0105128
-0.010618
-0.0103182
-0.0103574
-0.001855
-0.038528
-1.60725
26.9033
33.7883
36.1253
37.2831
38.0286
38.5994
39.0512
39.3634
39.5173
39.5306
39.4508
39.3308
39.2129
39.1254
39.0798
-0.0140084
-0.0139852
-0.0139556
-0.01392
-0.0138777
-0.0138284
-0.0137718
-0.0137078
-0.0136359
-0.0135559
-0.0134676
-0.013371
-0.0132665
-0.0131545
-0.0130358
-0.0129117
-0.0127834
-0.0126525
-0.0125208
-0.0123898
-0.0122601
-0.0121308
-0.0119983
-0.0118589
-0.0117146
-0.011628
-0.011699
-0.0120076
-0.0127584
-0.0131989
-0.0140912
-0.014527
-0.010266
-0.0986627
5.55568
30.6604
33.6235
35.3829
36.5451
37.4126
38.1089
38.6635
39.0617
39.2959
39.3838
39.3733
39.3112
39.2373
39.1763
39.142
-0.0135921
-0.0135674
-0.0135358
-0.0134978
-0.0134525
-0.0133995
-0.0133385
-0.0132693
-0.0131913
-0.0131043
-0.0130077
-0.0129015
-0.0127858
-0.0126609
-0.0125276
-0.0123868
-0.0122398
-0.0120882
-0.0119338
-0.011778
-0.0116214
-0.0114634
-0.0113023
-0.0111373
-0.0109743
-0.010846
-0.0108011
-0.0108462
-0.0110032
-0.0113114
-0.0120343
-0.0130604
-0.0160672
-0.0942603
17.9419
35.3886
34.6408
35.2858
36.1787
37.0374
37.7855
38.3929
38.8372
39.116
39.2527
39.2901
39.27
39.2312
39.1931
39.1681
-0.0131776
-0.0131519
-0.0131189
-0.0130789
-0.0130311
-0.0129751
-0.0129105
-0.0128369
-0.0127539
-0.0126608
-0.0125573
-0.012443
-0.0123179
-0.0121822
-0.0120367
-0.0118825
-0.0117209
-0.0115538
-0.0113831
-0.0112101
-0.0110356
-0.0108585
-0.0106762
-0.0104855
-0.0102852
-0.0100819
-0.00987745
-0.00962279
-0.0092506
-0.008618
-0.00767535
-0.00637033
-0.00546947
-0.0254011
20.7214
35.1371
34.3786
34.9676
35.8857
36.7886
37.5821
38.2234
38.6932
38.9958
39.159
39.2246
39.2329
39.2164
39.194
39.1769
-0.0349975
-0.0351566
-0.0353062
-0.0354463
-0.0355771
-0.0356987
-0.0358112
-0.035915
-0.0360101
-0.0360967
-0.0361751
-0.0362455
-0.036308
-0.0363629
-0.0364104
-0.0364507
-0.0364839
-0.0365105
-0.0365304
-0.0365441
-0.0365517
-0.0365535
-0.0365496
-0.0365405
-0.0365264
-0.0365076
-0.0364844
-0.0364571
-0.0364263
-0.0363923
-0.0363554
-0.0363163
-0.0362753
-0.036233
-0.0361899
-0.0361466
-0.0361035
-0.0360612
-0.0360202
-0.0359809
-0.0359438
-0.0359093
-0.0358777
-0.0358496
-0.0358251
-0.0358048
-0.0357887
-0.035777
-0.0357696
-0.0357656
-0.034969
-0.0351287
-0.0352794
-0.035421
-0.0355537
-0.0356775
-0.0357926
-0.0358991
-0.0359972
-0.036087
-0.0361686
-0.0362422
-0.036308
-0.036366
-0.0364163
-0.0364593
-0.0364949
-0.0365236
-0.0365453
-0.0365604
-0.036569
-0.0365715
-0.0365681
-0.036559
-0.0365447
-0.0365253
-0.0365014
-0.0364732
-0.0364413
-0.0364061
-0.0363679
-0.0363275
-0.0362852
-0.0362416
-0.0361972
-0.0361526
-0.0361083
-0.0360648
-0.0360227
-0.0359824
-0.0359444
-0.0359091
-0.0358769
-0.0358483
-0.0358233
-0.0358025
-0.0357859
-0.0357738
-0.035766
-0.035762
-0.0349419
-0.0351025
-0.0352544
-0.0353976
-0.0355323
-0.0356586
-0.0357764
-0.0358859
-0.0359873
-0.0360805
-0.0361656
-0.0362428
-0.0363121
-0.0363734
-0.036427
-0.0364729
-0.0365113
-0.0365422
-0.036566
-0.0365827
-0.0365925
-0.0365957
-0.0365926
-0.0365835
-0.0365688
-0.0365487
-0.0365238
-0.0364944
-0.036461
-0.0364242
-0.0363844
-0.0363421
-0.036298
-0.0362526
-0.0362063
-0.0361599
-0.0361138
-0.0360687
-0.0360249
-0.0359832
-0.0359438
-0.0359073
-0.0358741
-0.0358444
-0.0358186
-0.0357971
-0.0357799
-0.0357672
-0.0357591
-0.0357552
-0.0349192
-0.0350807
-0.0352339
-0.0353789
-0.0355157
-0.0356443
-0.0357649
-0.0358776
-0.0359822
-0.036079
-0.0361677
-0.0362486
-0.0363214
-0.0363862
-0.0364432
-0.0364922
-0.0365333
-0.0365667
-0.0365925
-0.0366108
-0.0366218
-0.0366257
-0.0366229
-0.0366137
-0.0365984
-0.0365773
-0.0365511
-0.0365202
-0.036485
-0.0364462
-0.0364042
-0.0363597
-0.0363132
-0.0362654
-0.0362168
-0.0361681
-0.0361198
-0.0360724
-0.0360266
-0.0359828
-0.0359416
-0.0359034
-0.0358686
-0.0358376
-0.0358106
-0.035788
-0.03577
-0.0357567
-0.0357483
-0.0357444
-0.0348998
-0.0350623
-0.0352169
-0.0353637
-0.0355027
-0.0356339
-0.0357575
-0.0358734
-0.0359816
-0.0360821
-0.0361747
-0.0362594
-0.0363361
-0.0364047
-0.0364653
-0.0365176
-0.0365618
-0.0365977
-0.0366257
-0.0366457
-0.0366579
-0.0366625
-0.0366599
-0.0366503
-0.0366342
-0.036612
-0.0365842
-0.0365513
-0.0365138
-0.0364725
-0.0364279
-0.0363805
-0.0363312