/*--------------------------------*- C++ -*----------------------------------*\
| =========                 |                                                 |
| \\      /  F ield         | OpenFOAM: The Open Source CFD Toolbox           |
|  \\    /   O peration     | Version:  2.4.0                                 |
|   \\  /    A nd           | Web:      www.OpenFOAM.org                      |
|    \\/     M anipulation  |                                                 |
\*---------------------------------------------------------------------------*/
FoamFile
{
    version     2.0;
    format      ascii;
    class       surfaceScalarField;
    location    "0.014";
    object      phiAlpha;
}
// * * * * * * * * * * * * * * * * * * * * * * * * * * * * * * * * * * * * * //

dimensions      [0 3 -1 0 0 0 0];

internalField   nonuniform List<scalar> 
119500
(
3.47868e-13
-3.47868e-13
3.10117e-13
3.81649e-14
2.25276e-13
8.52018e-14
1.42591e-13
8.30462e-14
7.20562e-14
7.08986e-14
-3.71646e-15
7.61383e-14
-8.03273e-14
7.69785e-14
-1.56356e-13
7.63982e-14
-2.277e-13
7.17155e-14
-2.93597e-13
6.62715e-14
-3.56062e-13
6.28403e-14
-4.19827e-13
6.41437e-14
-4.88847e-13
6.94003e-14
-5.64e-13
7.55354e-14
-6.43611e-13
7.99953e-14
-7.24796e-13
8.1572e-14
-8.04622e-13
8.02154e-14
-8.82486e-13
7.82554e-14
-9.60068e-13
7.7975e-14
-1.04079e-12
8.1116e-14
-1.12774e-12
8.73479e-14
-1.22264e-12
9.52993e-14
-1.32546e-12
1.03214e-13
-1.43361e-12
1.08553e-13
-1.54319e-12
1.09982e-13
-1.6496e-12
1.0681e-13
-1.74936e-12
1.00163e-13
-1.8408e-12
9.18419e-14
-1.92504e-12
8.46433e-14
-2.00641e-12
8.17621e-14
-2.09212e-12
8.61136e-14
-2.19007e-12
9.83379e-14
-2.3054e-12
1.1573e-13
-2.43859e-12
1.33582e-13
-2.58451e-12
1.46305e-13
-2.7346e-12
1.50477e-13
-2.88421e-12
1.49991e-13
-3.03799e-12
1.54152e-13
-3.20881e-12
1.71191e-13
-3.40929e-12
2.00851e-13
-3.64526e-12
2.36333e-13
-3.91535e-12
2.70451e-13
-4.21485e-12
2.99858e-13
-4.54224e-12
3.27734e-13
-4.90456e-12
3.62667e-13
-5.31463e-12
4.10408e-13
-5.78532e-12
4.71018e-13
-6.32622e-12
5.41225e-13
-6.93917e-12
6.13272e-13
-7.61984e-12
6.80979e-13
-8.35975e-12
7.40214e-13
-9.1502e-12
7.90754e-13
-9.984e-12
8.34089e-13
-1.08561e-11
8.72414e-13
-1.17641e-11
9.08233e-13
-1.27072e-11
9.43384e-13
-1.36866e-11
9.79663e-13
-1.47052e-11
1.01882e-12
-1.57673e-11
1.06234e-12
-1.68788e-11
1.11176e-12
-1.80463e-11
1.16767e-12
-1.92754e-11
1.22931e-12
-2.05704e-11
1.2952e-12
-2.19326e-11
1.36236e-12
-2.33595e-11
1.42704e-12
-2.48456e-11
1.48622e-12
-2.63835e-11
1.53803e-12
-2.79655e-11
1.5821e-12
-2.95856e-11
1.62022e-12
-3.12413e-11
1.65577e-12
-3.29339e-11
1.69272e-12
-3.46687e-11
1.73484e-12
-3.64534e-11
1.78481e-12
-3.82961e-11
1.8427e-12
-4.02019e-11
1.90585e-12
-4.21721e-11
1.97024e-12
-4.42036e-11
2.03151e-12
-4.62891e-11
2.08556e-12
-4.84193e-11
2.13014e-12
-5.0585e-11
2.16575e-12
-5.27801e-11
2.19507e-12
-5.50023e-11
2.22223e-12
-5.72537e-11
2.25136e-12
-5.95392e-11
2.28551e-12
-6.1865e-11
2.32585e-12
-6.42361e-11
2.37106e-12
-6.66549e-11
2.4188e-12
-6.91209e-11
2.46599e-12
-7.16304e-11
2.5096e-12
-7.4177e-11
2.54656e-12
-7.67499e-11
2.57301e-12
-7.93344e-11
2.5845e-12
-8.19107e-11
2.57633e-12
-8.44555e-11
2.5449e-12
-8.69432e-11
2.48774e-12
-8.93538e-11
2.41077e-12
-9.15889e-11
2.2352e-12
-9.44976e-11
2.90883e-12
-9.47428e-11
2.45317e-13
1.86984e-12
-9.66125e-11
3.1959e-13
-6.67038e-13
2.69008e-13
8.94663e-14
1.79036e-13
1.75833e-13
9.10894e-14
1.71654e-13
3.14842e-15
1.59505e-13
-8.27718e-14
1.62727e-13
-1.69536e-13
1.64415e-13
-2.55769e-13
1.63307e-13
-3.41154e-13
1.5778e-13
-4.25945e-13
1.51746e-13
-5.09939e-13
1.47522e-13
-5.9473e-13
1.49626e-13
-6.81108e-13
1.56474e-13
-7.69365e-13
1.64492e-13
-8.5968e-13
1.71014e-13
-9.51705e-13
1.74304e-13
-1.04517e-12
1.74389e-13
-1.1401e-12
1.73901e-13
-1.23688e-12
1.75478e-13
-1.33691e-12
1.81865e-13
-1.44062e-12
1.91778e-13
-1.54859e-12
2.03999e-13
-1.6615e-12
2.16853e-13
-1.7791e-12
2.26872e-13
-1.90048e-12
2.32095e-13
-2.02572e-12
2.32775e-13
-2.15417e-12
2.29344e-13
-2.2859e-12
2.24301e-13
-2.42185e-12
2.21316e-13
-2.56335e-12
2.23985e-13
-2.71301e-12
2.36491e-13
-2.87286e-12
2.58903e-13
-3.04491e-12
2.88483e-13
-3.22899e-12
3.18364e-13
-3.42405e-12
3.42066e-13
-3.62874e-12
3.55855e-13
-3.84328e-12
3.65214e-13
-4.07141e-12
3.82964e-13
-4.31831e-12
4.18765e-13
-4.58617e-12
4.69365e-13
-4.87579e-12
5.26608e-13
-5.18728e-12
5.82581e-13
-5.52121e-12
6.34423e-13
-5.88014e-12
6.87287e-13
-6.26687e-12
7.50004e-13
-6.68539e-12
8.29534e-13
-7.13863e-12
9.24849e-13
-7.62833e-12
1.0315e-12
-8.1566e-12
1.14211e-12
-8.72443e-12
1.24937e-12
-9.33073e-12
1.34705e-12
-9.97492e-12
1.43546e-12
-1.06567e-11
1.51638e-12
-1.1376e-11
1.59221e-12
-1.21334e-11
1.66611e-12
-1.29299e-11
1.74034e-12
-1.3767e-11
1.81722e-12
-1.4647e-11
1.8992e-12
-1.55725e-11
1.98824e-12
-1.65464e-11
2.08607e-12
-1.7572e-11
2.1936e-12
-1.86525e-11
2.3101e-12
-1.97904e-11
2.43347e-12
-2.09879e-11
2.56009e-12
-2.22462e-11
2.68564e-12
-2.35661e-11
2.80638e-12
-2.49479e-11
2.91997e-12
-2.63916e-11
3.02606e-12
-2.7898e-11
3.12673e-12
-2.94682e-11
3.22609e-12
-3.11045e-11
3.32921e-12
-3.28104e-11
3.44085e-12
-3.45895e-11
3.56399e-12
-3.64452e-11
3.69842e-12
-3.83802e-11
3.84089e-12
-4.03962e-11
3.98627e-12
-4.24935e-11
4.1289e-12
-4.46714e-11
4.26346e-12
-4.69281e-11
4.38685e-12
-4.92617e-11
4.49935e-12
-5.16706e-11
4.60393e-12
-5.41536e-11
4.70528e-12
-5.67103e-11
4.80805e-12
-5.93403e-11
4.91548e-12
-6.20428e-11
5.02838e-12
-6.48165e-11
5.14478e-12
-6.76588e-11
5.26116e-12
-7.05656e-11
5.37283e-12
-7.35306e-11
5.47459e-12
-7.65447e-11
5.56077e-12
-7.95959e-11
5.62433e-12
-8.26685e-11
5.65719e-12
-8.57427e-11
5.65073e-12
-8.87944e-11
5.59672e-12
-9.17933e-11
5.48677e-12
-9.46992e-11
5.31688e-12
-9.75011e-11
5.03734e-12
-9.99666e-11
5.37459e-12
-1.02443e-10
2.72175e-12
3.38352e-12
-1.03956e-10
2.92202e-13
-9.58879e-13
2.2724e-13
1.55051e-13
1.38586e-13
2.65056e-13
5.55081e-14
2.55302e-13
-3.07506e-14
2.46336e-13
-1.13032e-13
2.45585e-13
-1.94845e-13
2.46807e-13
-2.76292e-13
2.45337e-13
-3.59136e-13
2.41209e-13
-4.43686e-13
2.36885e-13
-5.28731e-13
2.33158e-13
-6.13947e-13
2.35438e-13
-6.98476e-13
2.41602e-13
-7.82473e-13
2.4909e-13
-8.67218e-13
2.56364e-13
-9.53686e-13
2.61381e-13
-1.04291e-12
2.64226e-13
-1.13523e-12
2.66835e-13
-1.23047e-12
2.71334e-13
-1.32848e-12
2.80501e-13
-1.4286e-12
2.92514e-13
-1.53107e-12
3.07102e-13
-1.63668e-12
3.23084e-13
-1.74615e-12
3.36973e-13
-1.86063e-12
3.47199e-13
-1.9818e-12
3.54574e-13
-2.11048e-12
3.58649e-13
-2.2473e-12
3.61743e-13
-2.39274e-12
3.67385e-13
-2.54691e-12
3.78776e-13
-2.70892e-12
3.99118e-13
-2.87829e-12
4.28895e-13
-3.05606e-12
4.66855e-13
-3.24252e-12
5.05435e-13
-3.439e-12
5.39144e-13
-3.6477e-12
5.65157e-13
-3.87038e-12
5.8848e-13
-4.10809e-12
6.21258e-13
-4.36134e-12
6.72601e-13
-4.62852e-12
7.37107e-13
-4.90917e-12
8.07829e-13
-5.20435e-12
8.78315e-13
-5.51699e-12
9.47608e-13
-5.84972e-12
1.02056e-12
-6.20256e-12
1.10337e-12
-6.57528e-12
1.20278e-12
-6.96753e-12
1.31761e-12
-7.37848e-12
1.44295e-12
-7.80915e-12
1.57326e-12
-8.2618e-12
1.7025e-12
-8.73951e-12
1.82522e-12
-9.24512e-12
1.94152e-12
-9.78106e-12
2.05277e-12
-1.03496e-11
2.1612e-12
-1.09526e-11
2.26949e-12
-1.15917e-11
2.37987e-12
-1.22687e-11
2.49455e-12
-1.2985e-11
2.61588e-12
-1.37422e-11
2.7458e-12
-1.45418e-11
2.88597e-12
-1.53851e-11
3.03726e-12
-1.62738e-11
3.19908e-12
-1.72096e-11
3.36957e-12
-1.81948e-11
3.54555e-12
-1.92324e-11
3.7234e-12
-2.03257e-11
3.89985e-12
-2.14782e-11
4.07272e-12
-2.26936e-11
4.24162e-12
-2.3975e-11
4.40826e-12
-2.53252e-11
4.57637e-12
-2.67466e-11
4.75073e-12
-2.82413e-11
4.93566e-12
-2.98107e-11
5.13349e-12
-3.1456e-11
5.34376e-12
-3.31785e-11
5.56346e-12
-3.49801e-11
5.78792e-12
-3.68627e-11
6.01147e-12
-3.88281e-11
6.22885e-12
-4.0878e-11
6.43685e-12
-4.30139e-11
6.63522e-12
-4.52361e-11
6.82617e-12
-4.75442e-11
7.01332e-12
-4.99365e-11
7.20034e-12
-5.24102e-11
7.38927e-12
-5.49617e-11
7.57985e-12
-5.75869e-11
7.77e-12
-6.02815e-11
7.95586e-12
-6.30408e-11
8.1321e-12
-6.58583e-11
8.29221e-12
-6.87258e-11
8.42835e-12
-7.16327e-11
8.53128e-12
-7.45655e-11
8.59005e-12
-7.75075e-11
8.59284e-12
-8.04384e-11
8.52782e-12
-8.33307e-11
8.37918e-12
-8.61449e-11
8.13126e-12
-8.88536e-11
7.74619e-12
-9.11287e-11
7.64992e-12
-9.38403e-11
5.43364e-12
4.67831e-12
-9.51348e-11
2.6495e-13
-1.2235e-12
2.0983e-13
2.10754e-13
1.26249e-13
3.49169e-13
4.54182e-14
3.36667e-13
-3.77555e-14
3.30047e-13
-1.18548e-13
3.26916e-13
-1.99572e-13
3.28373e-13
-2.80295e-13
3.26605e-13
-3.6221e-13
3.23671e-13
-4.45246e-13
3.20472e-13
-5.28857e-13
3.17322e-13
-6.1286e-13
3.19998e-13
-6.96472e-13
3.25774e-13
-7.79818e-13
3.32999e-13
-8.64083e-13
3.41196e-13
-9.49793e-13
3.4766e-13
-1.03795e-12
3.52954e-13
-1.12892e-12
3.58383e-13
-1.22263e-12
3.65625e-13
-1.31885e-12
3.77301e-13
-1.4173e-12
3.91543e-13
-1.51824e-12
4.08621e-13
-1.62223e-12
4.27661e-13
-1.72984e-12
4.45168e-13
-1.8426e-12
4.60543e-13
-1.9621e-12
4.74663e-13
-2.08989e-12
4.8703e-13
-2.22657e-12
4.99004e-13
-2.37268e-12
5.14082e-13
-2.52821e-12
5.34887e-13
-2.69115e-12
5.62639e-13
-2.86051e-12
5.98834e-13
-3.03694e-12
6.43853e-13
-3.22217e-12
6.9124e-13
-3.41752e-12
7.35057e-13
-3.62575e-12
7.73947e-13
-3.84816e-12
8.11441e-13
-4.08486e-12
8.58511e-13
-4.33565e-12
9.23928e-13
-4.59986e-12
1.00186e-12
-4.87636e-12
1.08485e-12
-5.16639e-12
1.16887e-12
-5.47216e-12
1.25389e-12
-5.79603e-12
1.34493e-12
-6.13871e-12
1.44655e-12
-6.49878e-12
1.56334e-12
-6.87611e-12
1.69542e-12
-7.26965e-12
1.83696e-12
-7.68003e-12
1.98411e-12
-8.10967e-12
2.1326e-12
-8.56174e-12
2.27773e-12
-9.0394e-12
2.41961e-12
-9.54563e-12
2.55942e-12
-1.00828e-11
2.6988e-12
-1.06531e-11
2.84018e-12
-1.12584e-11
2.98557e-12
-1.19004e-11
3.13683e-12
-1.25804e-11
3.29624e-12
-1.32999e-11
3.46569e-12
-1.40603e-11
3.64666e-12
-1.48628e-11
3.84003e-12
-1.57089e-11
4.04547e-12
-1.66006e-11
4.26148e-12
-1.75401e-11
4.48533e-12
-1.85306e-11
4.7141e-12
-1.95756e-11
4.94512e-12
-2.06791e-11
5.17637e-12
-2.18447e-11
5.40739e-12
-2.3076e-11
5.63973e-12
-2.43762e-11
5.87666e-12
-2.57478e-11
6.12241e-12
-2.71927e-11
6.3807e-12
-2.87124e-11
6.65327e-12
-3.0308e-11
6.93945e-12
-3.1981e-11
7.23647e-12
-3.3733e-11
7.53997e-12
-3.5566e-11
7.84449e-12
-3.7482e-11
8.1449e-12
-3.94832e-11
8.43805e-12
-4.15713e-11
8.72334e-12
-4.37471e-11
9.00202e-12
-4.60103e-11
9.27649e-12
-4.83591e-11
9.54921e-12
-5.07908e-11
9.82094e-12
-5.33013e-11
1.00904e-11
-5.58865e-11
1.03552e-11
-5.85419e-11
1.06114e-11
-6.12627e-11
1.08529e-11
-6.40425e-11
1.10721e-11
-6.68737e-11
1.12596e-11
-6.97467e-11
1.14043e-11
-7.26493e-11
1.14928e-11
-7.55659e-11
1.15096e-11
-7.84767e-11
1.14388e-11
-8.13551e-11
1.12577e-11
-8.41628e-11
1.09391e-11
-8.68649e-11
1.04486e-11
-8.92141e-11
9.99924e-12
-9.18275e-11
8.0473e-12
6.00626e-12
-9.31552e-11
2.55023e-13
-1.4782e-12
2.01315e-13
2.65019e-13
1.2243e-13
4.28566e-13
4.25907e-14
4.1702e-13
-3.92481e-14
4.12401e-13
-1.19774e-13
4.0796e-13
-2.00371e-13
4.09491e-13
-2.80976e-13
4.07732e-13
-3.6265e-13
4.05871e-13
-4.44961e-13
4.03311e-13
-5.28338e-13
4.0123e-13
-6.11859e-13
4.04052e-13
-6.95043e-13
4.09496e-13
-7.78232e-13
4.16727e-13
-8.62511e-13
4.26017e-13
-9.47919e-13
4.33613e-13
-1.03574e-12
4.41324e-13
-1.12624e-12
4.49435e-13
-1.21928e-12
4.59217e-13
-1.31479e-12
4.73366e-13
-1.41256e-12
4.89878e-13
-1.51287e-12
5.09484e-13
-1.61636e-12
5.31718e-13
-1.72348e-12
5.52849e-13
-1.83567e-12
5.73293e-13
-1.95481e-12
5.94363e-13
-2.08225e-12
6.15034e-13
-2.21894e-12
6.3626e-13
-2.36534e-12
6.61043e-13
-2.52061e-12
6.90714e-13
-2.68294e-12
7.25522e-13
-2.85084e-12
7.67287e-13
-3.02475e-12
8.18321e-13
-3.20807e-12
8.75105e-13
-3.40283e-12
9.30365e-13
-3.61092e-12
9.82569e-13
-3.83337e-12
1.03443e-12
-4.06913e-12
1.0948e-12
-4.31767e-12
1.17299e-12
-4.57893e-12
1.26364e-12
-4.85269e-12
1.35912e-12
-5.14047e-12
1.45716e-12
-5.44406e-12
1.55798e-12
-5.76501e-12
1.66636e-12
-6.1044e-12
1.78642e-12
-6.46098e-12
1.9204e-12
-6.83387e-12
2.06878e-12
-7.22346e-12
2.227e-12
-7.63073e-12
2.39182e-12
-8.05726e-12
2.55957e-12
-8.50629e-12
2.72719e-12
-8.98062e-12
2.89436e-12
-9.48292e-12
3.06211e-12
-1.00157e-11
3.23201e-12
-1.05811e-11
3.40589e-12
-1.11807e-11
3.58558e-12
-1.18165e-11
3.77295e-12
-1.24899e-11
3.96997e-12
-1.32023e-11
4.17848e-12
-1.39554e-11
4.39999e-12
-1.47504e-11
4.63536e-12
-1.55891e-11
4.88441e-12
-1.64733e-11
5.14597e-12
-1.74057e-11
5.41792e-12
-1.83892e-11
5.69789e-12
-1.94274e-11
5.98348e-12
-2.05237e-11
6.27284e-12
-2.16817e-11
6.56558e-12
-2.29051e-11
6.86322e-12
-2.4197e-11
7.16875e-12
-2.55602e-11
7.48574e-12
-2.69967e-11
7.81726e-12
-2.8508e-11
8.16465e-12
-3.00956e-11
8.52713e-12
-3.17611e-11
8.90204e-12
-3.35061e-11
9.28502e-12
-3.53324e-11
9.67079e-12
-3.7242e-11
1.00545e-11
-3.9237e-11
1.04331e-11
-4.13191e-11
1.08055e-11
-4.34893e-11
1.11722e-11
-4.57475e-11
1.15347e-11
-4.80919e-11
1.18937e-11
-5.05197e-11
1.22488e-11
-5.30273e-11
1.2598e-11
-5.56105e-11
1.29385e-11
-5.82648e-11
1.32658e-11
-6.09853e-11
1.35734e-11
-6.37659e-11
1.38528e-11
-6.65999e-11
1.40937e-11
-6.94788e-11
1.42833e-11
-7.23918e-11
1.44059e-11
-7.53249e-11
1.44428e-11
-7.82583e-11
1.43724e-11
-8.11644e-11
1.41639e-11
-8.40091e-11
1.3784e-11
-8.67519e-11
1.31915e-11
-8.92182e-11
1.24658e-11
-9.17722e-11
1.06016e-11
7.4195e-12
-9.31852e-11
2.42188e-13
-1.72009e-12
1.92655e-13
3.1509e-13
1.18797e-13
5.02918e-13
4.02636e-14
4.96048e-13
-4.00994e-14
4.93261e-13
-1.20394e-13
4.88754e-13
-2.00842e-13
4.9044e-13
-2.8156e-13
4.88953e-13
-3.63063e-13
4.87879e-13
-4.44759e-13
4.85516e-13
-5.27564e-13
4.84544e-13
-6.10502e-13
4.87503e-13
-6.93337e-13
4.92846e-13
-7.76528e-13
5.00437e-13
-8.60867e-13
5.10877e-13
-9.46043e-13
5.19314e-13
-1.03345e-12
5.29259e-13
-1.1233e-12
5.39813e-13
-1.2154e-12
5.51851e-13
-1.31002e-12
5.68518e-13
-1.40721e-12
5.87608e-13
-1.50723e-12
6.10034e-13
-1.61082e-12
6.35845e-13
-1.71832e-12
6.60894e-13
-1.83061e-12
6.86123e-13
-1.9495e-12
7.13793e-13
-2.07633e-12
7.42408e-13
-2.21204e-12
7.72504e-13
-2.35745e-12
8.06997e-13
-2.51155e-12
8.45347e-13
-2.67259e-12
8.87099e-13
-2.83922e-12
9.34449e-13
-3.01166e-12
9.91291e-13
-3.19374e-12
1.05772e-12
-3.38797e-12
1.12512e-12
-3.59555e-12
1.19067e-12
-3.81722e-12
1.25661e-12
-4.05192e-12
1.33001e-12
-4.29795e-12
1.41952e-12
-4.55633e-12
1.52252e-12
-4.82769e-12
1.63098e-12
-5.11318e-12
1.74314e-12
-5.415e-12
1.86029e-12
-5.73374e-12
1.98558e-12
-6.06996e-12
2.1231e-12
-6.42348e-12
2.27439e-12
-6.79386e-12
2.43962e-12
-7.18172e-12
2.6153e-12
-7.5878e-12
2.79834e-12
-8.01371e-12
2.98591e-12
-8.46215e-12
3.17604e-12
-8.93583e-12
3.36845e-12
-9.43717e-12
3.56385e-12
-9.96857e-12
3.76379e-12
-1.0532e-11
3.96968e-12
-1.11293e-11
4.18327e-12
-1.17624e-11
4.40636e-12
-1.24327e-11
4.64062e-12
-1.31418e-11
4.88793e-12
-1.38915e-11
5.1499e-12
-1.46831e-11
5.42728e-12
-1.55185e-11
5.7201e-12
-1.63998e-11
6.02754e-12
-1.73296e-11
6.34795e-12
-1.83108e-11
6.67931e-12
-1.93467e-11
7.0195e-12
-2.04405e-11
7.36684e-12
-2.15958e-11
7.72106e-12
-2.28162e-11
8.08379e-12
-2.41051e-11
8.45772e-12
-2.5465e-11
8.84579e-12
-2.68981e-11
9.25053e-12
-2.84064e-11
9.67298e-12
-2.99913e-11
1.01122e-11
-3.16546e-11
1.05654e-11
-3.33978e-11
1.10283e-11
-3.52227e-11
1.14957e-11
-3.71314e-11
1.19632e-11
-3.91258e-11
1.24276e-11
-4.12078e-11
1.28876e-11
-4.33784e-11
1.33428e-11
-4.56373e-11
1.37937e-11
-4.79831e-11
1.42395e-11
-5.0413e-11
1.46787e-11
-5.29236e-11
1.51087e-11
-5.5511e-11
1.55259e-11
-5.81705e-11
1.59254e-11
-6.08974e-11
1.63003e-11
-6.36862e-11
1.66418e-11
-6.65312e-11
1.69387e-11
-6.94249e-11
1.71771e-11
-7.2358e-11
1.7339e-11
-7.53174e-11
1.74023e-11
-7.82839e-11
1.73391e-11
-8.12329e-11
1.71131e-11
-8.41314e-11
1.66827e-11
-8.69358e-11
1.59962e-11
-8.95216e-11
1.50517e-11
-9.20762e-11
1.31564e-11
8.92996e-12
-9.35864e-11
2.30416e-13
-1.95021e-12
1.85453e-13
3.60569e-13
1.15893e-13
5.72951e-13
3.84059e-14
5.7401e-13
-4.08218e-14
5.72965e-13
-1.20804e-13
5.69214e-13
-2.01071e-13
5.71185e-13
-2.81833e-13
5.70197e-13
-3.63155e-13
5.69686e-13
-4.44457e-13
5.67303e-13
-5.26755e-13
5.6733e-13
-6.09211e-13
5.7045e-13
-6.91765e-13
5.75893e-13
-7.74966e-13
5.84133e-13
-8.58963e-13
5.95372e-13
-9.43761e-13
6.04612e-13
-1.03061e-12
6.16615e-13
-1.11956e-12
6.29264e-13
-1.21054e-12
6.43333e-13
-1.30433e-12
6.62823e-13
-1.40087e-12
6.84657e-13
-1.50066e-12
7.10342e-13
-1.60443e-12
7.40124e-13
-1.71225e-12
7.69237e-13
-1.82479e-12
7.99173e-13
-1.94354e-12
8.33061e-13
-2.06956e-12
8.68949e-13
-2.20375e-12
9.07208e-13
-2.34726e-12
9.51024e-13
-2.49987e-12
9.98468e-13
-2.65964e-12
1.04738e-12
-2.82523e-12
1.10055e-12
-2.99662e-12
1.1632e-12
-3.17747e-12
1.23907e-12
-3.37084e-12
1.319e-12
-3.57753e-12
1.39787e-12
-3.7979e-12
1.47748e-12
-4.03109e-12
1.56369e-12
-4.27502e-12
1.66394e-12
-4.53033e-12
1.77832e-12
-4.79918e-12
1.90031e-12
-5.08238e-12
2.02681e-12
-5.38187e-12
2.16024e-12
-5.69832e-12
2.30249e-12
-6.03182e-12
2.45705e-12
-6.38273e-12
2.62575e-12
-6.75075e-12
2.80807e-12
-7.13637e-12
3.00135e-12
-7.54077e-12
3.20317e-12
-7.96553e-12
3.41108e-12
-8.41308e-12
3.624e-12
-8.88585e-12
3.84161e-12
-9.38607e-12
4.06445e-12
-9.91591e-12
4.294e-12
-1.04774e-11
4.53155e-12
-1.10723e-11
4.77854e-12
-1.17025e-11
5.03683e-12
-1.23696e-11
5.30808e-12
-1.30754e-11
5.59404e-12
-1.38215e-11
5.89629e-12
-1.46096e-11
6.2157e-12
-1.54418e-11
6.55249e-12
-1.63201e-11
6.90613e-12
-1.72471e-11
7.27521e-12
-1.82256e-11
7.65798e-12
-1.92586e-11
8.0527e-12
-2.03495e-11
8.45799e-12
-2.1502e-11
8.87372e-12
-2.27195e-11
9.30144e-12
-2.40052e-11
9.74354e-12
-2.53619e-11
1.02026e-11
-2.67919e-11
1.06807e-11
-2.82972e-11
1.11784e-11
-2.98796e-11
1.16946e-11
-3.15406e-11
1.22265e-11
-3.3282e-11
1.27697e-11
-3.51055e-11
1.33194e-11
-3.70134e-11
1.38712e-11
-3.90077e-11
1.4422e-11
-4.10903e-11
1.49702e-11
-4.3262e-11
1.55146e-11
-4.55226e-11
1.60543e-11
-4.78706e-11
1.65875e-11
-5.03035e-11
1.71117e-11
-5.28182e-11
1.76235e-11
-5.54108e-11
1.81185e-11
-5.80768e-11
1.85915e-11
-6.08118e-11
1.90354e-11
-6.36113e-11
1.94414e-11
-6.64702e-11
1.97978e-11
-6.93826e-11
2.00896e-11
-7.23399e-11
2.02965e-11
-7.53303e-11
2.03928e-11
-7.8337e-11
2.03459e-11
-8.13379e-11
2.01141e-11
-8.43021e-11
1.96471e-11
-8.71867e-11
1.88809e-11
-8.98964e-11
1.77617e-11
-9.25035e-11
1.57637e-11
1.05482e-11
-9.41215e-11
2.23202e-13
-2.17313e-12
1.81238e-13
4.03026e-13
1.14188e-13
6.40454e-13
3.75114e-14
6.51139e-13
-4.10759e-14
6.52006e-13
-1.20874e-13
6.49468e-13
-2.01109e-13
6.51877e-13
-2.81956e-13
6.51502e-13
-3.63069e-13
6.51258e-13
-4.44108e-13
6.48804e-13
-5.25938e-13
6.49624e-13
-6.07935e-13
6.52911e-13
-6.90215e-13
6.58641e-13
-7.73248e-13
6.67636e-13
-8.56649e-13
6.79246e-13
-9.40867e-13
6.89305e-13
-1.02707e-12
7.03291e-13
-1.11486e-12
7.17536e-13
-1.2048e-12
7.33754e-13
-1.29804e-12
7.56553e-13
-1.39399e-12
7.81088e-13
-1.49345e-12
8.10292e-13
-1.59694e-12
8.44094e-13
-1.70448e-12
8.77266e-13
-1.81728e-12
9.12466e-13
-1.93617e-12
9.52445e-13
-2.06146e-12
9.94725e-13
-2.19378e-12
1.04002e-12
-2.33453e-12
1.09226e-12
-2.48485e-12
1.14929e-12
-2.64357e-12
1.20659e-12
-2.80869e-12
1.26616e-12
-2.97956e-12
1.33455e-12
-3.15903e-12
1.41902e-12
-3.35116e-12
1.51161e-12
-3.55652e-12
1.60371e-12
-3.77529e-12
1.69672e-12
-4.00647e-12
1.79535e-12
-4.24816e-12
1.90609e-12
-4.50104e-12
2.03165e-12
-4.7673e-12
2.16703e-12
-5.04833e-12
2.3083e-12
-5.3456e-12
2.45795e-12
-5.65945e-12
2.61679e-12
-5.99021e-12
2.78824e-12
-6.33827e-12
2.97424e-12
-6.70346e-12
3.17369e-12
-7.08663e-12
3.38493e-12
-7.48901e-12
3.60596e-12
-7.91218e-12
3.83466e-12
-8.35829e-12
4.07051e-12
-8.82951e-12
4.31321e-12
-9.32792e-12
4.56324e-12
-9.85566e-12
4.82212e-12
-1.04147e-11
5.09093e-12
-1.10068e-11
5.37099e-12
-1.16338e-11
5.66415e-12
-1.22975e-11
5.97208e-12
-1.29996e-11
6.29645e-12
-1.37418e-11
6.63886e-12
-1.45261e-11
7.00028e-12
-1.53545e-11
7.38114e-12
-1.62293e-11
7.7811e-12
-1.71527e-11
8.19891e-12
-1.81276e-11
8.63308e-12
-1.9157e-11
9.08226e-12
-2.02442e-11
9.54546e-12
-2.1393e-11
1.00227e-11
-2.26067e-11
1.05153e-11
-2.38885e-11
1.10255e-11
-2.52413e-11
1.15556e-11
-2.66677e-11
1.21072e-11
-2.81697e-11
1.26805e-11
-2.9749e-11
1.32741e-11
-3.14073e-11
1.3885e-11
-3.31463e-11
1.45089e-11
-3.49681e-11
1.51413e-11
-3.68749e-11
1.57781e-11
-3.8869e-11
1.64162e-11
-4.09521e-11
1.70534e-11
-4.31252e-11
1.76877e-11
-4.53878e-11
1.8317e-11
-4.77385e-11
1.89384e-11
-5.01752e-11
1.95485e-11
-5.26946e-11
2.0143e-11
-5.52929e-11
2.0717e-11
-5.79661e-11
2.12648e-11
-6.07104e-11
2.17797e-11
-6.35219e-11
2.2253e-11
-6.63967e-11
2.26728e-11
-6.93296e-11
2.30227e-11
-7.23138e-11
2.32808e-11
-7.53395e-11
2.34187e-11
-7.83928e-11
2.33994e-11
-8.14548e-11
2.31763e-11
-8.44968e-11
2.26892e-11
-8.74769e-11
2.18612e-11
-9.03216e-11
2.06066e-11
-9.30337e-11
1.8476e-11
1.22981e-11
-9.47833e-11
2.22299e-13
-2.39516e-12
1.8138e-13
4.44413e-13
1.14708e-13
7.07556e-13
3.82778e-14
7.27998e-13
-4.02632e-14
7.30977e-13
-1.20421e-13
7.30057e-13
-2.00923e-13
7.32811e-13
-2.81932e-13
7.32944e-13
-3.62719e-13
7.32478e-13
-4.43673e-13
7.30193e-13
-5.25106e-13
7.31494e-13
-6.06684e-13
7.34928e-13
-6.88633e-13
7.41031e-13
-7.71223e-13
7.50668e-13
-8.53987e-13
7.62455e-13
-9.37429e-13
7.73194e-13
-1.02288e-12
7.89194e-13
-1.10943e-12
8.04539e-13
-1.19845e-12
8.23227e-13
-1.29093e-12
8.49487e-13
-1.38599e-12
8.76604e-13
-1.48465e-12
9.09405e-13
-1.58808e-12
9.47985e-13
-1.69589e-12
9.85539e-13
-1.80848e-12
1.02552e-12
-1.92708e-12
1.07151e-12
-2.05148e-12
1.11959e-12
-2.18187e-12
1.17088e-12
-2.31961e-12
1.23046e-12
-2.46703e-12
1.29718e-12
-2.62396e-12
1.36399e-12
-2.78934e-12
1.432e-12
-2.96023e-12
1.5059e-12
-3.13853e-12
1.59777e-12
-3.32907e-12
1.70261e-12
-3.53259e-12
1.80768e-12
-3.74923e-12
1.91382e-12
-3.9783e-12
2.02486e-12
-4.21758e-12
2.14582e-12
-4.46809e-12
2.28261e-12
-4.73205e-12
2.43142e-12
-5.01091e-12
2.58759e-12
-5.30556e-12
2.75304e-12
-5.61674e-12
2.9284e-12
-5.94483e-12
3.11674e-12
-6.28975e-12
3.31958e-12
-6.65218e-12
3.53653e-12
-7.03285e-12
3.766e-12
-7.43282e-12
4.00633e-12
-7.85384e-12
4.25606e-12
-8.29774e-12
4.51478e-12
-8.76659e-12
4.78244e-12
-9.26257e-12
5.05958e-12
-9.78759e-12
5.34748e-12
-1.03436e-11
5.64726e-12
-1.09324e-11
5.96019e-12
-1.15559e-11
6.28795e-12
-1.22158e-11
6.63224e-12
-1.29138e-11
6.99483e-12
-1.3652e-11
7.37727e-12
-1.44321e-11
7.78065e-12
-1.52562e-11
8.20553e-12
-1.61266e-11
8.65172e-12
-1.70457e-11
9.11831e-12
-1.80164e-11
9.60398e-12
-1.90414e-11
1.01075e-11
-2.0124e-11
1.06283e-11
-2.1268e-11
1.11668e-11
-2.24769e-11
1.17244e-11
-2.37541e-11
1.23029e-11
-2.51026e-11
1.29042e-11
-2.65248e-11
1.35295e-11
-2.80228e-11
1.41786e-11
-2.95985e-11
1.48499e-11
-3.12535e-11
1.55401e-11
-3.29897e-11
1.62452e-11
-3.48093e-11
1.6961e-11
-3.67146e-11
1.76835e-11
-3.87083e-11
1.84099e-11
-4.07919e-11
1.91372e-11
-4.29665e-11
1.98624e-11
-4.52317e-11
2.05822e-11
-4.75859e-11
2.12927e-11
-5.00267e-11
2.19894e-11
-5.25511e-11
2.26675e-11
-5.51555e-11
2.33215e-11
-5.78364e-11
2.39459e-11
-6.05907e-11
2.45341e-11
-6.34154e-11
2.50779e-11
-6.63077e-11
2.55652e-11
-6.92635e-11
2.59786e-11
-7.22777e-11
2.62952e-11
-7.53432e-11
2.64843e-11
-7.84494e-11
2.65057e-11
-8.15795e-11
2.63066e-11
-8.4708e-11
2.58179e-11
-8.77974e-11
2.49509e-11
-9.0793e-11
2.36024e-11
-9.3664e-11
2.13473e-11
1.42184e-11
-9.5584e-11
2.2761e-13
-2.62251e-12
1.85402e-13
4.87062e-13
1.16733e-13
7.7663e-13
3.98518e-14
8.05285e-13
-3.89188e-14
8.10152e-13
-1.19727e-13
8.1127e-13
-2.0068e-13
8.14169e-13
-2.81893e-13
8.14563e-13
-3.62249e-13
8.13241e-13
-4.43285e-13
8.11638e-13
-5.24322e-13
8.1294e-13
-6.05528e-13
8.16544e-13
-6.87047e-13
8.22963e-13
-7.68915e-13
8.3295e-13
-8.51017e-13
8.44972e-13
-9.33581e-13
8.56175e-13
-1.01816e-12
8.74196e-13
-1.10366e-12
8.90457e-13
-1.19172e-12
9.11711e-13
-1.28323e-12
9.41417e-13
-1.37732e-12
9.71126e-13
-1.47505e-12
1.00757e-12
-1.57799e-12
1.05135e-12
-1.68571e-12
1.0937e-12
-1.79778e-12
1.13801e-12
-1.91576e-12
1.18992e-12
-2.03939e-12
1.24365e-12
-2.16806e-12
1.29999e-12
-2.30308e-12
1.36592e-12
-2.44792e-12
1.44245e-12
-2.60283e-12
1.51934e-12
-2.76731e-12
1.59691e-12
-2.93857e-12
1.6776e-12
-3.11637e-12
1.776e-12
-3.30446e-12
1.89113e-12
-3.50581e-12
2.00946e-12
-3.71972e-12
2.12815e-12
-3.94598e-12
2.25155e-12
-4.18301e-12
2.38327e-12
-4.43099e-12
2.53101e-12
-4.69216e-12
2.693e-12
-4.96857e-12
2.86442e-12
-5.26069e-12
3.04557e-12
-5.56926e-12
3.23737e-12
-5.89431e-12
3.4422e-12
-6.23614e-12
3.6618e-12
-6.59552e-12
3.8963e-12
-6.97325e-12
4.14412e-12
-7.37052e-12
4.40398e-12
-7.78898e-12
4.67489e-12
-8.23032e-12
4.95649e-12
-8.6965e-12
5.24897e-12
-9.18959e-12
5.55303e-12
-9.71147e-12
5.86971e-12
-1.0264e-11
6.20015e-12
-1.08491e-11
6.54563e-12
-1.14686e-11
6.90772e-12
-1.21242e-11
7.28814e-12
-1.28178e-11
7.68871e-12
-1.35513e-11
8.11105e-12
-1.43266e-11
8.55629e-12
-1.51459e-11
9.02502e-12
-1.60112e-11
9.51732e-12
-1.69253e-11
1.00326e-11
-1.78908e-11
1.05697e-11
-1.89106e-11
1.11274e-11
-1.99879e-11
1.17058e-11
-2.11266e-11
1.23057e-11
-2.23302e-11
1.29282e-11
-2.36022e-11
1.35751e-11
-2.49456e-11
1.42478e-11
-2.63629e-11
1.4947e-11
-2.78563e-11
1.56721e-11
-2.94275e-11
1.64213e-11
-3.10785e-11
1.71912e-11
-3.28114e-11
1.79782e-11
-3.46284e-11
1.87781e-11
-3.65323e-11
1.95876e-11
-3.85256e-11
2.04033e-11
-4.061e-11
2.12218e-11
-4.27864e-11
2.20389e-11
-4.50543e-11
2.28502e-11
-4.7412e-11
2.36505e-11
-4.9857e-11
2.44346e-11
-5.23864e-11
2.51971e-11
-5.49972e-11
2.59324e-11
-5.76865e-11
2.66353e-11
-6.04517e-11
2.72995e-11
-6.32909e-11
2.79173e-11
-6.62023e-11
2.84767e-11
-6.91832e-11
2.89598e-11
-7.22306e-11
2.93428e-11
-7.53396e-11
2.95936e-11
-7.85024e-11
2.96687e-11
-8.17053e-11
2.95098e-11
-8.49272e-11
2.904e-11
-8.81385e-11
2.81624e-11
-9.13015e-11
2.67656e-11
-9.43771e-11
2.44231e-11
1.63475e-11
-9.65059e-11
2.3657e-13
-2.85884e-12
1.91979e-13
5.32069e-13
1.20244e-13
8.48746e-13
4.23663e-14
8.83541e-13
-3.70113e-14
8.89909e-13
-1.18648e-13
8.93285e-13
-2.00068e-13
8.95968e-13
-2.81367e-13
8.96241e-13
-3.61527e-13
8.9378e-13
-4.42549e-13
8.93039e-13
-5.23159e-13
8.93931e-13
-6.04091e-13
8.97858e-13
-6.85115e-13
9.04368e-13
-7.66265e-13
9.14485e-13
-8.47716e-13
9.26809e-13
-9.29585e-13
9.38431e-13
-1.01351e-12
9.58513e-13
-1.0983e-12
9.75631e-13
-1.1855e-12
9.99309e-13
-1.27574e-12
1.03205e-12
-1.36842e-12
1.0642e-12
-1.46494e-12
1.10448e-12
-1.56674e-12
1.15355e-12
-1.67353e-12
1.20089e-12
-1.78489e-12
1.24978e-12
-1.90213e-12
1.30757e-12
-2.02507e-12
1.36698e-12
-2.15248e-12
1.42781e-12
-2.28526e-12
1.4991e-12
-2.42752e-12
1.58512e-12
-2.58047e-12
1.67269e-12
-2.74332e-12
1.76017e-12
-2.91451e-12
1.8492e-12
-3.09221e-12
1.95411e-12
-3.27748e-12
2.07681e-12
-3.47596e-12
2.20834e-12
-3.68687e-12
2.33946e-12
-3.90983e-12
2.47492e-12
-4.14437e-12
2.6182e-12
-4.38986e-12
2.7769e-12
-4.64867e-12
2.95221e-12
-4.92264e-12
3.13877e-12
-5.21197e-12
3.33529e-12
-5.51727e-12
3.54306e-12
-5.83899e-12
3.7643e-12
-6.17757e-12
4.00076e-12
-6.53362e-12
4.25273e-12
-6.90809e-12
4.51896e-12
-7.30229e-12
4.79854e-12
-7.71778e-12
5.09074e-12
-8.15619e-12
5.39525e-12
-8.61938e-12
5.71251e-12
-9.10924e-12
6.04323e-12
-9.62756e-12
6.38836e-12
-1.01762e-11
6.74912e-12
-1.07571e-11
7.12683e-12
-1.13721e-11
7.52303e-12
-1.20231e-11
7.93942e-12
-1.27118e-11
8.37776e-12
-1.34402e-11
8.83971e-12
-1.42102e-11
9.32655e-12
-1.5024e-11
9.83905e-12
-1.58838e-11
1.03774e-11
-1.67921e-11
1.09411e-11
-1.77515e-11
1.15294e-11
-1.87653e-11
1.21414e-11
-1.98367e-11
1.27775e-11
-2.09694e-11
1.34386e-11
-2.21671e-11
1.41261e-11
-2.34331e-11
1.48413e-11
-2.47705e-11
1.55854e-11
-2.61821e-11
1.63587e-11
-2.76699e-11
1.71601e-11
-2.9236e-11
1.79875e-11
-3.08823e-11
1.88378e-11
-3.26113e-11
1.97073e-11
-3.44256e-11
2.05926e-11
-3.63281e-11
2.14903e-11
-3.83213e-11
2.23966e-11
-4.04066e-11
2.33073e-11
-4.25848e-11
2.42173e-11
-4.48552e-11
2.51208e-11
-4.72163e-11
2.60118e-11
-4.96658e-11
2.68842e-11
-5.22007e-11
2.77322e-11
-5.48186e-11
2.85505e-11
-5.7517e-11
2.93338e-11
-6.0294e-11
3.00766e-11
-6.31483e-11
3.07718e-11
-6.60796e-11
3.14081e-11
-6.90871e-11
3.19674e-11
-7.21692e-11
3.24252e-11
-7.53236e-11
3.27481e-11
-7.8545e-11
3.28903e-11
-8.18239e-11
3.27888e-11
-8.51451e-11
3.23614e-11
-8.84889e-11
3.15064e-11
-9.18311e-11
3.0108e-11
-9.51381e-11
2.77303e-11
1.87064e-11
-9.74967e-11
2.47259e-13
-3.10588e-12
1.99814e-13
5.79902e-13
1.2461e-13
9.24304e-13
4.50484e-14
9.63456e-13
-3.53637e-14
9.70673e-13
-1.17839e-13
9.76111e-13
-2.00036e-13
9.78516e-13
-2.81437e-13
9.77993e-13
-3.61946e-13
9.7464e-13
-4.42795e-13
9.7424e-13
-5.22752e-13
9.7424e-13
-6.032e-13
9.78658e-13
-6.83325e-13
9.84847e-13
-7.63583e-13
9.95097e-13
-8.43854e-13
1.00743e-12
-9.2456e-13
1.01949e-12
-1.00733e-12
1.04164e-12
-1.09056e-12
1.05922e-12
-1.17685e-12
1.08596e-12
-1.26663e-12
1.1222e-12
-1.35844e-12
1.15637e-12
-1.45406e-12
1.20046e-12
-1.55464e-12
1.2545e-12
-1.65991e-12
1.30653e-12
-1.77038e-12
1.36062e-12
-1.88685e-12
1.42441e-12
-2.00885e-12
1.48936e-12
-2.13519e-12
1.55452e-12
-2.26669e-12
1.63097e-12
-2.40615e-12
1.72497e-12
-2.55721e-12
1.82411e-12
-2.71794e-12
1.92127e-12
-2.88794e-12
2.01958e-12
-3.06445e-12
2.131e-12
-3.2481e-12
2.26083e-12
-3.44356e-12
2.40419e-12
-3.65138e-12
2.54765e-12
-3.87131e-12
2.69523e-12
-4.10336e-12
2.85063e-12
-4.34658e-12
3.02049e-12
-4.60275e-12
3.20875e-12
-4.87367e-12
3.41006e-12
-5.15981e-12
3.6218e-12
-5.46182e-12
3.84543e-12
-5.78013e-12
4.08297e-12
-6.11509e-12
4.33608e-12
-6.46758e-12
4.60558e-12
-6.8386e-12
4.89033e-12
-7.22938e-12
5.18967e-12
-7.64149e-12
5.50319e-12
-8.07648e-12
5.83058e-12
-8.53612e-12
6.17249e-12
-9.02226e-12
6.52969e-12
-9.53655e-12
6.90298e-12
-1.00808e-11
7.29366e-12
-1.06569e-11
7.7033e-12
-1.1267e-11
8.13339e-12
-1.19128e-11
8.58554e-12
-1.25962e-11
9.06142e-12
-1.33189e-11
9.56271e-12
-1.4083e-11
1.00909e-11
-1.48907e-11
1.0647e-11
-1.57443e-11
1.12312e-11
-1.66461e-11
1.18432e-11
-1.7599e-11
1.24824e-11
-1.8606e-11
1.31486e-11
-1.96706e-11
1.38423e-11
-2.07965e-11
1.45646e-11
-2.19872e-11
1.5317e-11
-2.32464e-11
1.61007e-11
-2.45771e-11
1.69163e-11
-2.5982e-11
1.77638e-11
-2.74635e-11
1.86418e-11
-2.90236e-11
1.95478e-11
-3.06647e-11
2.0479e-11
-3.23893e-11
2.14321e-11