/*--------------------------------*- C++ -*----------------------------------*\
| =========                 |                                                 |
| \\      /  F ield         | OpenFOAM: The Open Source CFD Toolbox           |
|  \\    /   O peration     | Version:  2.4.0                                 |
|   \\  /    A nd           | Web:      www.OpenFOAM.org                      |
|    \\/     M anipulation  |                                                 |
\*---------------------------------------------------------------------------*/
FoamFile
{
    version     2.0;
    format      ascii;
    class       volVectorField;
    location    "0.281";
    object      U;
}
// * * * * * * * * * * * * * * * * * * * * * * * * * * * * * * * * * * * * * //

dimensions      [0 1 -1 0 0 0 0];

internalField   nonuniform List<vector> 
10000
(
(-2.0472e-06 2.00064e-06 0)
(-4.76521e-07 1.32141e-07 0)
(8.02495e-06 -1.36119e-06 0)
(2.03306e-05 -2.10088e-06 0)
(3.47611e-05 -2.44818e-06 0)
(5.01147e-05 -2.59813e-06 0)
(6.57581e-05 -2.63274e-06 0)
(8.12683e-05 -2.59209e-06 0)
(9.63091e-05 -2.4923e-06 0)
(0.000110583 -2.33776e-06 0)
(0.000123818 -2.12954e-06 0)
(0.000135775 -1.87095e-06 0)
(0.000146268 -1.57116e-06 0)
(0.000155176 -1.24653e-06 0)
(0.000162469 -9.19889e-07 0)
(0.000168219 -6.1812e-07 0)
(0.000172603 -3.68975e-07 0)
(0.000175897 -1.97891e-07 0)
(0.000178461 -1.24056e-07 0)
(0.000180709 -1.57184e-07 0)
(0.000183076 -2.9587e-07 0)
(0.000185978 -5.29351e-07 0)
(0.000189775 -8.36439e-07 0)
(0.000194749 -1.18873e-06 0)
(0.000201077 -1.55639e-06 0)
(0.000208827 -1.91226e-06 0)
(0.000217961 -2.23458e-06 0)
(0.000228348 -2.5086e-06 0)
(0.000239787 -2.72676e-06 0)
(0.000252023 -2.88711e-06 0)
(0.000264773 -2.99082e-06 0)
(0.000277738 -3.042e-06 0)
(0.000290641 -3.05129e-06 0)
(0.000303273 -3.04069e-06 0)
(0.000315546 -3.03769e-06 0)
(0.000327484 -3.05593e-06 0)
(0.000339165 -3.09455e-06 0)
(0.000350662 -3.14191e-06 0)
(0.000362007 -3.1818e-06 0)
(0.000373174 -3.19902e-06 0)
(0.000384083 -3.1833e-06 0)
(0.000394617 -3.13073e-06 0)
(0.000404642 -3.04369e-06 0)
(0.000414029 -2.92946e-06 0)
(0.000422667 -2.79804e-06 0)
(0.000430473 -2.65963e-06 0)
(0.0004374 -2.52236e-06 0)
(0.000443441 -2.39065e-06 0)
(0.000448633 -2.26785e-06 0)
(0.000453039 -2.16721e-06 0)
(-4.05342e-07 8.13712e-07 0)
(1.16828e-05 -1.22977e-05 0)
(3.65535e-05 -2.18588e-05 0)
(6.89942e-05 -2.71603e-05 0)
(0.00010559 -2.98564e-05 0)
(0.000144144 -3.1006e-05 0)
(0.000183267 -3.11499e-05 0)
(0.000221919 -3.05503e-05 0)
(0.000259244 -2.93337e-05 0)
(0.000294501 -2.75689e-05 0)
(0.000327036 -2.53146e-05 0)
(0.00035629 -2.26472e-05 0)
(0.000381824 -1.9676e-05 0)
(0.000403353 -1.65462e-05 0)
(0.000420781 -1.3434e-05 0)
(0.000434229 -1.05345e-05 0)
(0.000444053 -8.0458e-06 0)
(0.000450843 -6.14992e-06 0)
(0.000455403 -4.992e-06 0)
(0.000458698 -4.66023e-06 0)
(0.000461789 -5.16979e-06 0)
(0.000465742 -6.46842e-06 0)
(0.000471536 -8.43188e-06 0)
(0.000479977 -1.08781e-05 0)
(0.000491629 -1.35926e-05 0)
(0.000506772 -1.63524e-05 0)
(0.000525391 -1.89496e-05 0)
(0.000547204 -2.12109e-05 0)
(0.000571703 -2.30078e-05 0)
(0.000598216 -2.42569e-05 0)
(0.000625964 -2.49165e-05 0)
(0.000654125 -2.49953e-05 0)
(0.00068192 -2.45816e-05 0)
(0.000708756 -2.38657e-05 0)
(0.000734363 -2.30884e-05 0)
(0.000758776 -2.24131e-05 0)
(0.000782192 -2.1896e-05 0)
(0.000804833 -2.14985e-05 0)
(0.000826833 -2.11241e-05 0)
(0.000848188 -2.06589e-05 0)
(0.000868747 -2.00039e-05 0)
(0.000888239 -1.90953e-05 0)
(0.000906318 -1.79109e-05 0)
(0.000922613 -1.64688e-05 0)
(0.000936786 -1.48185e-05 0)
(0.000948571 -1.3031e-05 0)
(0.00095782 -1.11884e-05 0)
(0.000964523 -9.37637e-06 0)
(0.00096882 -7.68253e-06 0)
(0.000971011 -6.20148e-06 0)
(9.75514e-07 -6.86163e-06 0)
(2.09599e-05 -3.72817e-05 0)
(5.66753e-05 -5.77312e-05 0)
(0.000101679 -6.93955e-05 0)
(0.00015169 -7.55152e-05 0)
(0.000204069 -7.81111e-05 0)
(0.000257025 -7.82551e-05 0)
(0.000309125 -7.64946e-05 0)
(0.000359141 -7.31165e-05 0)
(0.000405984 -6.83027e-05 0)
(0.000448681 -6.22238e-05 0)
(0.000486398 -5.50949e-05 0)
(0.000518476 -4.72038e-05 0)
(0.000544485 -3.8918e-05 0)
(0.000564273 -3.06746e-05 0)
(0.000578008 -2.29563e-05 0)
(0.000586206 -1.62559e-05 0)
(0.000589731 -1.10318e-05 0)
(0.000589764 -7.65928e-06 0)
(0.000587739 -6.38262e-06 0)
(0.000585224 -7.26294e-06 0)
(0.000583801 -1.0198e-05 0)
(0.000584934 -1.48992e-05 0)
(0.00058983 -2.09251e-05 0)
(0.000599335 -2.77398e-05 0)
(0.000613879 -3.47673e-05 0)
(0.000633455 -4.14557e-05 0)
(0.000657661 -4.73315e-05 0)
(0.000685765 -5.20315e-05 0)
(0.000716804 -5.53088e-05 0)
(0.000749661 -5.70252e-05 0)
(0.000783128 -5.71758e-05 0)
(0.00081602 -5.5967e-05 0)
(0.000847404 -5.38916e-05 0)
(0.000876869 -5.15943e-05 0)
(0.000904496 -4.9518e-05 0)
(0.000930587 -4.7831e-05 0)
(0.000955456 -4.64584e-05 0)
(0.000979273 -4.51714e-05 0)
(0.001002 -4.36869e-05 0)
(0.00102338 -4.17496e-05 0)
(0.001043 -3.91845e-05 0)
(0.00106035 -3.59202e-05 0)
(0.00107489 -3.19894e-05 0)
(0.00108617 -2.75143e-05 0)
(0.00109383 -2.26862e-05 0)
(0.00109773 -1.77419e-05 0)
(0.00109792 -1.2944e-05 0)
(0.00109469 -8.56185e-06 0)
(0.00108855 -4.85517e-06 0)
(1.73349e-06 -1.83947e-05 0)
(2.63706e-05 -6.97593e-05 0)
(6.86714e-05 -0.00010284 0)
(0.000121255 -0.000121754 0)
(0.000179207 -0.000131733 0)
(0.00023959 -0.000135853 0)
(0.000300371 -0.000135738 0)
(0.000359863 -0.00013223 0)
(0.000416574 -0.000125785 0)
(0.000469144 -0.000116715 0)
(0.000516339 -0.00010533 0)
(0.000557083 -9.2026e-05 0)
(0.000590515 -7.73267e-05 0)
(0.000616055 -6.18965e-05 0)
(0.000633479 -4.65226e-05 0)
(0.000642972 -3.20756e-05 0)
(0.00064517 -1.94492e-05 0)
(0.000641164 -9.48135e-06 0)
(0.000632465 -2.86507e-06 0)
(0.000620932 -6.06041e-08 0)
(0.000608598 -1.24519e-06 0)
(0.000597511 -6.22752e-06 0)
(0.000589586 -1.44961e-05 0)
(0.000586389 -2.5257e-05 0)
(0.000589012 -3.75346e-05 0)
(0.000598002 -5.02666e-05 0)
(0.000613335 -6.24275e-05 0)
(0.000634476 -7.31351e-05 0)
(0.000660486 -8.17148e-05 0)
(0.000690158 -8.77053e-05 0)
(0.000722104 -9.08248e-05 0)
(0.000754776 -9.10042e-05 0)
(0.000786545 -8.85644e-05 0)
(0.000816062 -8.44441e-05 0)
(0.000842821 -7.99479e-05 0)
(0.000867086 -7.59128e-05 0)
(0.000889366 -7.2629e-05 0)
(0.000910108 -6.9929e-05 0)
(0.000929519 -6.73706e-05 0)
(0.000947495 -6.44244e-05 0)
(0.000963653 -6.06228e-05 0)
(0.000977409 -5.5653e-05 0)
(0.000988078 -4.93963e-05 0)
(0.000994985 -4.19268e-05 0)
(0.000997558 -3.34859e-05 0)
(0.000995406 -2.44452e-05 0)
(0.000988385 -1.52638e-05 0)
(0.000976633 -6.45337e-06 0)
(0.000960582 1.45819e-06 0)
(0.000940959 7.96373e-06 0)
(2.11939e-06 -3.19948e-05 0)
(2.94159e-05 -0.000106524 0)
(7.57616e-05 -0.000153339 0)
(0.000133099 -0.000179956 0)
(0.000196014 -0.000193902 0)
(0.000261316 -0.000199421 0)
(0.000326775 -0.000198705 0)
(0.000390517 -0.000192883 0)
(0.000450847 -0.000182576 0)
(0.000506185 -0.000168222 0)
(0.00055507 -0.000150278 0)
(0.000596203 -0.00012934 0)
(0.000628521 -0.000106202 0)
(0.000651279 -8.18774e-05 0)
(0.000664145 -5.75738e-05 0)
(0.000667279 -3.46377e-05 0)
(0.000661391 -1.44651e-05 0)
(0.000647762 1.61839e-06 0)
(0.000628211 1.24963e-05 0)
(0.000604976 1.74092e-05 0)
(0.000580582 1.60528e-05 0)
(0.000557601 8.69348e-06 0)
(0.00053839 -3.88049e-06 0)
(0.000524878 -2.04414e-05 0)
(0.0005184 -3.94244e-05 0)
(0.000519604 -5.91437e-05 0)
(0.000528408 -7.79699e-05 0)
(0.000544094 -9.4515e-05 0)
(0.000565477 -0.000107744 0)
(0.000591122 -0.000116967 0)
(0.000619429 -0.000121715 0)
(0.000648534 -0.000121741 0)
(0.000676214 -0.000117386 0)
(0.000700463 -0.000110233 0)
(0.000720745 -0.000102711 0)
(0.000737786 -9.617e-05 0)
(0.000752473 -9.09736e-05 0)
(0.000765469 -8.67406e-05 0)
(0.000777018 -8.26877e-05 0)
(0.000786916 -7.79392e-05 0)
(0.000794594 -7.17565e-05 0)
(0.000799249 -6.36711e-05 0)
(0.000799987 -5.35316e-05 0)
(0.00079596 -4.14927e-05 0)
(0.000786472 -2.79695e-05 0)
(0.000771078 -1.35741e-05 0)
(0.000749638 9.40731e-07 0)
(0.000722359 1.4743e-05 0)
(0.000689811 2.6977e-05 0)
(0.000652929 3.68238e-05 0)
(2.31644e-06 -4.67571e-05 0)
(3.12133e-05 -0.000145892 0)
(8.01821e-05 -0.000207288 0)
(0.000140714 -0.000241967 0)
(0.000207014 -0.000259935 0)
(0.000275667 -0.000266697 0)
(0.000344272 -0.00026505 0)
(0.000410795 -0.000256407 0)
(0.000473367 -0.00024154 0)
(0.000530218 -0.000221002 0)
(0.000579675 -0.000195388 0)
(0.000620218 -0.000165498 0)
(0.000650564 -0.000132415 0)
(0.000669769 -9.75385e-05 0)
(0.000677346 -6.25566e-05 0)
(0.000673375 -2.93769e-05 0)
(0.000658586 -5.48124e-09 0)
(0.00063441 2.36186e-05 0)
(0.000602955 3.98321e-05 0)
(0.000566903 4.74681e-05 0)
(0.000529306 4.60685e-05 0)
(0.000493294 3.5956e-05 0)
(0.00046174 1.82553e-05 0)
(0.000437011 -5.23929e-06 0)
(0.000420718 -3.22449e-05 0)
(0.000413572 -6.02712e-05 0)
(0.00041538 -8.69309e-05 0)
(0.000425151 -0.000110231 0)
(0.000441367 -0.000128765 0)
(0.000462365 -0.000141672 0)
(0.000486466 -0.000148271 0)
(0.000511592 -0.000147901 0)
(0.000534646 -0.000140599 0)
(0.000552407 -0.000128884 0)
(0.000564411 -0.000117265 0)
(0.000572395 -0.000107685 0)
(0.000577855 -0.000100407 0)
(0.000581728 -9.46137e-05 0)
(0.000584256 -8.89871e-05 0)
(0.000585055 -8.21778e-05 0)
(0.000583282 -7.31162e-05 0)
(0.000577836 -6.11725e-05 0)
(0.000567557 -4.6195e-05 0)
(0.000551383 -2.84703e-05 0)
(0.000528477 -8.6473e-06 0)
(0.000498314 1.23523e-05 0)
(0.000460745 3.34156e-05 0)
(0.000416035 5.33236e-05 0)
(0.000364881 7.08264e-05 0)
(0.000308419 8.47219e-05 0)
(2.4262e-06 -6.22338e-05 0)
(3.2382e-05 -0.000186978 0)
(8.31952e-05 -0.000263643 0)
(0.000146067 -0.000306724 0)
(0.00021492 -0.000328799 0)
(0.000286153 -0.000336704 0)
(0.000357218 -0.000333869 0)
(0.000425942 -0.000321996 0)
(0.000490305 -0.000301994 0)
(0.000548358 -0.000274506 0)
(0.000598222 -0.000240248 0)
(0.000638144 -0.000200207 0)
(0.000666587 -0.000155754 0)
(0.000682358 -0.000108696 0)
(0.000684746 -6.12512e-05 0)
(0.000673671 -1.59747e-05 0)
(0.000649813 2.43959e-05 0)
(0.000614702 5.71568e-05 0)
(0.000570736 7.99365e-05 0)
(0.000521085 9.10226e-05 0)
(0.000469432 8.96809e-05 0)
(0.000419592 7.63173e-05 0)
(0.000375087 5.2473e-05 0)
(0.000338786 2.06633e-05 0)
(0.000312625 -1.59277e-05 0)
(0.000297403 -5.37905e-05 0)
(0.000292731 -8.9568e-05 0)
(0.000297185 -0.000120534 0)
(0.00030874 -0.000144953 0)
(0.000325489 -0.000162008 0)
(0.000345983 -0.000170888 0)
(0.000368308 -0.000170062 0)
(0.000388056 -0.000158359 0)
(0.000399523 -0.000139638 0)
(0.00040255 -0.000122601 0)
(0.000401003 -0.000109607 0)
(0.000397203 -0.000100375 0)
(0.000392314 -9.32702e-05 0)
(0.000386448 -8.61805e-05 0)
(0.000378895 -7.71364e-05 0)
(0.000368409 -6.4687e-05 0)
(0.000353503 -4.80588e-05 0)
(0.000332688 -2.71533e-05 0)
(0.000304658 -2.45889e-06 0)
(0.000268411 2.50703e-05 0)
(0.000223327 5.4133e-05 0)
(0.000169231 8.31928e-05 0)
(0.000106429 0.000110574 0)
(3.57271e-05 0.000134557 0)
(-4.15541e-05 0.000153471 0)
(2.4978e-06 -7.82204e-05 0)
(3.32416e-05 -0.000229319 0)
(8.54632e-05 -0.000321826 0)
(0.00015019 -0.000373644 0)
(0.000221142 -0.000399962 0)
(0.000294581 -0.000408998 0)
(0.000367845 -0.000404833 0)
(0.00043865 -0.00038946 0)
(0.000504844 -0.0003639 0)
(0.000564314 -0.000328858 0)
(0.000614976 -0.00028513 0)
(0.000654819 -0.000233855 0)
(0.000682009 -0.000176669 0)
(0.000695029 -0.000115784 0)
(0.000692847 -5.3989e-05 0)
(0.000675115 5.42948e-06 0)
(0.000642354 5.88543e-05 0)
(0.000596115 0.000102633 0)
(0.000539073 0.000133454 0)
(0.000474959 0.000148847 0)
(0.000408251 0.000147681 0)
(0.000343639 0.000130438 0)
(0.000285458 9.91804e-05 0)
(0.000237227 5.73056e-05 0)
(0.00020129 9.17184e-06 0)
(0.000178547 -4.04064e-05 0)
(0.000168335 -8.67977e-05 0)
(0.000168559 -0.000126339 0)
(0.000176318 -0.000157067 0)
(0.000189354 -0.000178763 0)
(0.000207057 -0.000190886 0)
(0.0002288 -0.000190317 0)
(0.000248293 -0.000172286 0)
(0.000254497 -0.000142468 0)
(0.000248142 -0.000118612 0)
(0.000237568 -0.000102326 0)
(0.000225843 -9.17797e-05 0)
(0.000214042 -8.39768e-05 0)
(0.000201863 -7.57154e-05 0)
(0.000188058 -6.42846e-05 0)
(0.000170832 -4.78461e-05 0)
(0.000148226 -2.55424e-05 0)
(0.000118387 2.58545e-06 0)
(7.9752e-05 3.5761e-05 0)
(3.11492e-05 7.26475e-05 0)
(-2.81398e-05 0.000111499 0)
(-9.83335e-05 0.000150289 0)
(-0.000179111 0.000186817 0)
(-0.000269582 0.000218813 0)
(-0.000368262 0.000244054 0)
(2.55389e-06 -9.46187e-05 0)
(3.39413e-05 -0.000272657 0)
(8.72954e-05 -0.000381487 0)
(0.000153559 -0.000442369 0)
(0.00022632 -0.000473128 0)
(0.000301761 -0.000483387 0)
(0.000377151 -0.000477897 0)
(0.000450132 -0.000458924 0)
(0.000518453 -0.000427577 0)
(0.000579857 -0.000384574 0)
(0.000632054 -0.00033073 0)
(0.000672754 -0.000267275 0)
(0.000699769 -0.000196057 0)
(0.000711161 -0.000119668 0)
(0.000705448 -4.14816e-05 0)
(0.000681851 3.44e-05 0)
(0.000640576 0.000103326 0)
(0.00058307 0.000160447 0)
(0.000512229 0.000201192 0)
(0.000432452 0.000222011 0)
(0.000349246 0.000221192 0)
(0.000268445 0.000199289 0)
(0.000195425 0.000159019 0)
(0.000134532 0.000104892 0)
(8.86501e-05 4.27309e-05 0)
(5.88511e-05 -2.09427e-05 0)
(4.41301e-05 -7.97648e-05 0)
(4.13895e-05 -0.000128735 0)
(4.61545e-05 -0.00016575 0)
(5.53387e-05 -0.000192421 0)
(7.00965e-05 -0.000209737 0)
(9.39775e-05 -0.000212149 0)
(0.000118445 -0.000185445 0)
(0.000120798 -0.000137148 0)
(0.00010413 -0.00010567 0)
(8.61495e-05 -8.73846e-05 0)
(6.94335e-05 -7.6915e-05 0)
(5.40951e-05 -6.93805e-05 0)
(3.89936e-05 -6.02987e-05 0)
(2.21026e-05 -4.61982e-05 0)
(9.66277e-07 -2.49323e-05 0)
(-2.68826e-05 4.31896e-06 0)
(-6.3643e-05 4.12529e-05 0)
(-0.000111102 8.47069e-05 0)
(-0.000170572 0.000132889 0)
(-0.000242863 0.000183555 0)
(-0.00032825 0.000234135 0)
(-0.000426434 0.000281841 0)
(-0.000536492 0.000323774 0)
(-0.00065682 0.000357051 0)
(2.60395e-06 -0.000111375 0)
(3.45328e-05 -0.000316805 0)
(8.87923e-05 -0.000442361 0)
(0.000156317 -0.000512627 0)
(0.000230631 -0.000548084 0)
(0.000307908 -0.000559779 0)
(0.000385403 -0.000553133 0)
(0.000460737 -0.000530671 0)
(0.000531604 -0.000493544 0)
(0.000595639 -0.000442419 0)
(0.000650358 -0.000378048 0)
(0.000693174 -0.000301655 0)
(0.000721479 -0.000215208 0)
(0.0007328 -0.000121612 0)
(0.000725036 -2.48096e-05 0)
(0.000696768 7.02221e-05 0)
(0.000647648 0.000157637 0)
(0.000578789 0.00023108 0)
(0.000493199 0.00028427 0)
(0.000396065 0.000312075 0)
(0.000294277 0.000311912 0)
(0.000195196 0.000284428 0)
(0.000105518 0.000233191 0)
(3.06148e-05 0.000164098 0)
(-2.59137e-05 8.47793e-05 0)
(-6.26823e-05 3.94184e-06 0)
(-8.10021e-05 -6.96485e-05 0)
(-8.53069e-05 -0.000128798 0)
(-8.28508e-05 -0.000170953 0)
(-7.89719e-05 -0.000202057 0)
(-7.00142e-05 -0.000228285 0)
(-4.17952e-05 -0.000240421 0)
(-3.92418e-06 -0.000203021 0)
(-4.09048e-06 -0.000121991 0)
(-3.33123e-05 -8.46495e-05 0)
(-5.48695e-05 -6.79564e-05 0)
(-7.12566e-05 -5.97666e-05 0)
(-8.49992e-05 -5.35633e-05 0)
(-9.84392e-05 -4.37547e-05 0)
(-0.000114474 -2.62902e-05 0)
(-0.000136204 1.09491e-06 0)
(-0.000166523 3.89945e-05 0)
(-0.000207872 8.66974e-05 0)
(-0.000262165 0.00014256 0)
(-0.000330794 0.000204284 0)
(-0.000414647 0.000269098 0)
(-0.000514084 0.00033386 0)
(-0.000628881 0.000395153 0)
(-0.000758152 0.000449371 0)
(-0.000900245 0.00049287 0)
(2.65081e-06 -0.000128442 0)
(3.50111e-05 -0.000361581 0)
(8.99302e-05 -0.000504179 0)
(0.000158406 -0.000584137 0)
(0.000233977 -0.000624609 0)
(0.00031288 -0.000638081 0)
(0.000392429 -0.000630638 0)
(0.000470291 -0.000605041 0)
(0.000544172 -0.000562429 0)
(0.000611648 -0.000503335 0)
(0.000670077 -0.000428337 0)
(0.000716569 -0.00033852 0)
(0.00074804 -0.00023583 0)
(0.000761353 -0.000123354 0)
(0.000753581 -5.52615e-06 0)
(0.000722388 0.000111784 0)
(0.000666538 0.000221378 0)
(0.000586446 0.000315061 0)
(0.000484963 0.00038419 0)
(0.000368208 0.000421226 0)
(0.000244998 0.000422273 0)
(0.000124765 0.000388166 0)
(1.58539e-05 0.000323638 0)
(-7.51518e-05 0.000236304 0)
(-0.000143762 0.000135958 0)
(-0.000188095 3.40038e-05 0)
(-0.000209529 -5.75807e-05 0)
(-0.000213773 -0.000127839 0)
(-0.000212342 -0.000171748 0)
(-0.000216473 -0.000203296 0)
(-0.000220541 -0.000243469 0)
(-0.000188979 -0.000282888 0)
(-0.000126296 -0.000234729 0)
(-0.000127547 -9.20801e-05 0)
(-0.000172337 -5.8316e-05 0)
(-0.000188912 -5.02078e-05 0)
(-0.000196204 -4.65713e-05 0)
(-0.000201466 -4.21207e-05 0)
(-0.000207838 -3.08245e-05 0)
(-0.000218788 -8.46151e-06 0)
(-0.000237789 2.70533e-05 0)
(-0.000267919 7.58662e-05 0)
(-0.000311645 0.000136721 0)
(-0.000370851 0.000207439 0)
(-0.000446928 0.000285218 0)
(-0.000540827 0.000366781 0)
(-0.000653039 0.000448431 0)
(-0.000783508 0.000526098 0)
(-0.000931487 0.000595414 0)
(-0.00109539 0.000651859 0)
(2.69216e-06 -0.00014576 0)
(3.53357e-05 -0.000406769 0)
(9.06104e-05 -0.000566625 0)
(0.000159651 -0.00065656 0)
(0.000236094 -0.000702419 0)
(0.000316322 -0.000718138 0)
(0.00039779 -0.000710465 0)
(0.000478294 -0.000682361 0)
(0.000555638 -0.0006349 0)
(0.000627423 -0.000568386 0)
(0.00069091 -0.000483082 0)
(0.000742932 -0.000379754 0)
(0.000779893 -0.000260116 0)
(0.000797866 -0.000127228 0)
(0.000792865 1.4153e-05 0)
(0.000761293 0.000157333 0)
(0.000700589 0.000293672 0)
(0.000609879 0.00041282 0)
(0.000491313 0.000502837 0)
(0.000352073 0.000552367 0)
(0.000203781 0.000555514 0)
(5.87561e-05 0.000513616 0)
(-7.26718e-05 0.000433111 0)
(-0.000182601 0.000323726 0)
(-0.000265547 0.000197764 0)
(-0.000319045 6.98053e-05 0)
(-0.000344275 -4.43784e-05 0)
(-0.000347007 -0.000128276 0)
(-0.000342027 -0.000169239 0)
(-0.000353262 -0.000188059 0)
(-0.000384695 -0.000242674 0)
(-0.000361453 -0.0003481 0)
(-0.000265367 -0.000298032 0)
(-0.000264976 -3.94214e-05 0)
(-0.000321607 -3.5352e-05 0)
(-0.000316039 -4.56169e-05 0)
(-0.000301584 -4.61107e-05 0)
(-0.000290733 -4.17473e-05 0)
(-0.00028496 -2.65336e-05 0)
(-0.000287292 3.52543e-06 0)
(-0.000300988 5.00795e-05 0)
(-0.000328922 0.000112655 0)
(-0.0003733 0.000189394 0)
(-0.000435798 0.000277618 0)
(-0.00051773 0.000374111 0)
(-0.000620137 0.00047519 0)
(-0.000743732 0.000576675 0)
(-0.000888759 0.000673864 0)
(-0.00105477 0.00076158 0)
(-0.0012404 0.000834315 0)
(2.72071e-06 -0.000163235 0)
(3.54428e-05 -0.000452096 0)
(9.06903e-05 -0.000629306 0)
(0.000159809 -0.000729461 0)
(0.000236622 -0.000781123 0)
(0.000317748 -0.000799688 0)
(0.000400867 -0.000792562 0)
(0.000484008 -0.000762886 0)
(0.000565178 -0.000711611 0)
(0.000642118 -0.000638708 0)
(0.000712099 -0.00054397 0)
(0.000771757 -0.000427616 0)
(0.000816992 -0.000290833 0)
(0.000842993 -0.000136331 0)
(0.000844472 3.1107e-05 0)
(0.000816173 0.000204162 0)
(0.000753684 0.000372789 0)
(0.000653954 0.000524376 0)
(0.00051736 0.000642425 0)
(0.000352198 0.000709157 0)
(0.000174342 0.000715651 0)
(2.04207e-07 0.000664606 0)
(-0.000157497 0.000565101 0)
(-0.000289526 0.000429321 0)
(-0.000389408 0.000272472 0)
(-0.000454398 0.00011296 0)
(-0.000486287 -2.95428e-05 0)
(-0.000489319 -0.000133166 0)
(-0.000472463 -0.000174266 0)
(-0.000472027 -0.000157317 0)
(-0.000539084 -0.000192598 0)
(-0.000562764 -0.000423815 0)
(-0.000468214 -0.000391894 0)
(-0.000459042 5.31935e-05 0)
(-0.00048709 -3.9907e-05 0)
(-0.000428588 -7.71638e-05 0)
(-0.000375644 -7.11634e-05 0)
(-0.0003424 -5.97977e-05 0)
(-0.000321958 -3.50789e-05 0)
(-0.000314573 7.10828e-06 0)
(-0.000322235 6.83956e-05 0)
(-0.000347224 0.000147919 0)
(-0.00039133 0.000243347 0)
(-0.000455938 0.000351666 0)
(-0.000542292 0.000469455 0)
(-0.000651613 0.000592816 0)
(-0.000784996 0.00071722 0)
(-0.000943184 0.0008374 0)
(-0.00112625 0.000947336 0)
(-0.00133325 0.00104041 0)
(2.72455e-06 -0.000180732 0)
(3.52555e-05 -0.000497222 0)
(9.00055e-05 -0.000691737 0)
(0.000158604 -0.000802297 0)
(0.000235156 -0.000860199 0)
(0.000316595 -0.000882318 0)
(0.000400923 -0.000876721 0)
(0.000486504 -0.00084672 0)
(0.000571678 -0.000793102 0)
(0.000654474 -0.000715417 0)
(0.000732338 -0.000612817 0)
(0.000801865 -0.000484703 0)
(0.000858558 -0.000331355 0)
(0.000896693 -0.000154656 0)
(0.000909465 4.10621e-05 0)
(0.00088951 0.000248234 0)
(0.000830024 0.000455599 0)
(0.000724564 0.000648773 0)
(0.000569765 0.000805299 0)
(0.000374721 0.000896102 0)
(0.000161917 0.000907385 0)
(-4.6128e-05 0.000845266 0)
(-0.000233641 0.000723322 0)
(-0.000390209 0.000556309 0)
(-0.000508938 0.000362818 0)
(-0.000588039 0.000166452 0)
(-0.000633024 -9.69162e-06 0)
(-0.000644885 -0.000144631 0)
(-0.000610108 -0.000214731 0)
(-0.000545166 -0.000162523 0)
(-0.000576486 -8.30901e-05 0)
(-0.000707409 -0.000398598 0)
(-0.000789303 -0.000423906 0)
(-0.000740409 2.90708e-05 0)
(-0.000599085 -0.0001382 0)
(-0.000462442 -0.00017383 0)
(-0.000374515 -0.000127758 0)
(-0.000329908 -9.51499e-05 0)
(-0.000304032 -5.41274e-05 0)
(-0.000292677 4.00908e-06 0)
(-0.000297283 8.28157e-05 0)
(-0.000320509 0.000181696 0)
(-0.000364378 0.000297994 0)
(-0.000430319 0.000428475 0)
(-0.000519704 0.000569747 0)
(-0.00063414 0.000717942 0)
(-0.000775344 0.000868369 0)
(-0.000944826 0.00101528 0)
(-0.00114346 0.0011518 0)
(-0.001371 0.00127006 0)
(2.68866e-06 -0.000198069 0)
(3.46943e-05 -0.000541739 0)
(8.83926e-05 -0.000753344 0)
(0.000155766 -0.0008744 0)
(0.000231291 -0.000938972 0)
(0.000312284 -0.000965426 0)
(0.000397154 -0.00096251 0)
(0.000484702 -0.000933722 0)
(0.000573737 -0.000879678 0)
(0.000662758 -0.00079945 0)
(0.000749616 -0.0006914 0)
(0.00083113 -0.000553824 0)
(0.000902659 -0.000385617 0)
(0.000957699 -0.000187178 0)
(0.000987796 3.83596e-05 0)
(0.000982953 0.000283808 0)
(0.000933431 0.000536962 0)
(0.000827901 0.000783287 0)
(0.000656595 0.000993123 0)
(0.000427562 0.00111896 0)
(0.000173026 0.00113622 0)
(-7.42444e-05 0.00105916 0)
(-0.00029328 0.000909678 0)
(-0.00047326 0.000706741 0)
(-0.000609133 0.000471205 0)
(-0.000703029 0.000236761 0)
(-0.000773628 3.3392e-05 0)
(-0.000828967 -0.000138672 0)
(-0.000842462 -0.000280156 0)
(-0.000754785 -0.000286912 0)
(-0.000654345 7.27559e-05 0)
(-0.000757585 -0.000179927 0)
(-0.000863181 -0.000432919 0)
(-0.000676038 -4.37195e-05 0)
(-0.000426887 -0.000324929 0)
(-0.000311682 -0.000291839 0)
(-0.000262321 -0.000185472 0)
(-0.000239809 -0.000126801 0)
(-0.000226183 -7.12115e-05 0)
(-0.000219642 9.6754e-07 0)
(-0.000225198 9.66477e-05 0)
(-0.000248211 0.000215241 0)
(-0.000291995 0.000353249 0)
(-0.000358393 0.000506999 0)
(-0.000449109 0.000673261 0)
(-0.00056638 0.000848445 0)
(-0.000712826 0.0010279 0)
(-0.000891031 0.00120552 0)
(-0.00110299 0.00137352 0)
(-0.0013495 0.00152265 0)
(2.59773e-06 -0.000215018 0)
(3.36907e-05 -0.000585173 0)
(8.57154e-05 -0.000813465 0)
(0.000151071 -0.00094499 0)
(0.000224679 -0.00101661 0)
(0.000304288 -0.00104819 0)
(0.00038877 -0.00104921 0)
(0.000477448 -0.00102339 0)
(0.000569722 -0.000971224 0)
(0.000664749 -0.000891313 0)
(0.000761072 -0.00078115 0)
(0.000856132 -0.00063768 0)
(0.000945624 -0.000457893 0)
(0.0010227 -0.000239826 0)
(0.00107738 1.57726e-05 0)
(0.00109639 0.000303241 0)
(0.00106636 0.000609459 0)
(0.000968287 0.00092392 0)
(0.000783635 0.00120579 0)
(0.000518563 0.00138306 0)
(0.000215016 0.00140951 0)
(-8.05858e-05 0.00131054 0)
(-0.000330247 0.00111875 0)
(-0.000522385 0.000876946 0)
(-0.000663873 0.000596368 0)
(-0.000763489 0.000331447 0)
(-0.000850737 0.000127461 0)
(-0.000956529 -2.67527e-05 0)
(-0.00113625 -0.000143422 0)
(-0.00138367 -0.000214926 0)
(-0.00114429 -0.000285643 0)
(-0.000692886 -0.000211929 0)
(-0.000768107 -0.000425069 0)
(-0.000291911 -0.000587589 0)
(0.000193251 -0.000402647 0)
(-1.78759e-05 -0.000251941 0)
(-9.12785e-05 -0.000163428 0)
(-0.000108299 -0.000121062 0)
(-0.000109416 -7.28633e-05 0)
(-0.000107103 3.04346e-06 0)
(-0.000111966 0.000111476 0)
(-0.000133043 0.000248634 0)
(-0.000175194 0.000408255 0)
(-0.000240195 0.000585555 0)
(-0.000329747 0.000777639 0)
(-0.000446783 0.000981528 0)
(-0.000595062 0.00119286 0)
(-0.000778516 0.00140532 0)
(-0.0010006 0.00161021 0)
(-0.00126349 0.00179671 0)
(2.43965e-06 -0.000231322 0)
(3.22022e-05 -0.000627005 0)
(8.18959e-05 -0.000871374 0)
(0.000144393 -0.00101319 0)
(0.000215105 -0.00109211 0)
(0.00029223 -0.00112955 0)
(0.000375123 -0.00113574 0)
(0.00046366 -0.00111473 0)
(0.000557909 -0.00106698 0)
(0.000657842 -0.000990728 0)
(0.000762978 -0.000882659 0)
(0.000871874 -0.000738272 0)
(0.000981329 -0.000552241 0)
(0.00108511 -0.00031924 0)
(0.00117247 -3.58469e-05 0)
(0.00122658 0.000296155 0)
(0.00123052 0.000661185 0)
(0.00115447 0.00106344 0)
(0.000960725 0.00144577 0)
(0.00065449 0.00169258 0)
(0.00029735 0.00173182 0)
(-6.10188e-05 0.00161269 0)
(-0.000352288 0.00134193 0)
(-0.000533253 0.00104074 0)
(-0.000636573 0.000709428 0)
(-0.000694939 0.000412807 0)
(-0.000730953 0.000199765 0)
(-0.000729169 4.18743e-05 0)
(-0.00067992 -4.07884e-05 0)
(-0.000559815 -0.000172086 0)
(-0.00051228 -0.000652022 0)
(-0.000623474 -0.000306097 0)
(-0.000651215 -0.000454048 0)
(-0.000539456 -0.00114932 0)
(-0.000361382 -0.000514551 0)
(-0.000184103 -0.00025092 0)
(-7.58205e-05 -0.000176988 0)
(-1.51274e-05 -0.000133663 0)
(1.34984e-05 -8.29622e-05 0)
(2.93746e-05 -8.4066e-07 0)
(3.55284e-05 0.000121061 0)
(2.24566e-05 0.000278099 0)
(-1.47653e-05 0.000460245 0)
(-7.56388e-05 0.000661305 0)
(-0.000160681 0.000879595 0)
(-0.000273513 0.00111352 0)
(-0.000419306 0.00135939 0)
(-0.000603567 0.00161087 0)
(-0.000831467 0.00185847 0)
(-0.00110687 0.00208954 0)
(2.20893e-06 -0.000246714 0)
(3.02272e-05 -0.000666694 0)
(7.69457e-05 -0.000926323 0)
(0.000135756 -0.00107807 0)
(0.000202571 -0.0011644 0)
(0.000276016 -0.00120826 0)
(0.000355885 -0.00122068 0)
(0.000442572 -0.00120617 0)
(0.000536797 -0.00116532 0)
(0.000639398 -0.00109622 0)
(0.000751053 -0.000994978 0)
(0.000871872 -0.000855861 0)
(0.00100064 -0.000671196 0)
(0.00113328 -0.000431532 0)
(0.00126035 -0.000127113 0)
(0.00136259 0.000248873 0)
(0.00141614 0.000677618 0)
(0.00137963 0.00118859 0)
(0.00119626 0.001709 0)
(0.000850589 0.00205744 0)
(0.000427687 0.0021026 0)
(-6.23745e-06 0.00198655 0)
(-0.000358574 0.00158838 0)
(-0.000525049 0.00116283 0)
(-0.000532652 0.00073896 0)
(-0.000487981 0.000427122 0)
(-0.000460181 0.000195855 0)
(-0.000389049 -5.07872e-05 0)
(-0.000250295 -0.00018781 0)
(-0.000116726 -0.000339406 0)
(-0.000152036 -0.000494499 0)
(-0.000226903 -0.000210595 0)
(-0.000212528 -0.00051002 0)
(-0.000250893 -0.00112586 0)
(-0.000178179 -0.000742573 0)
(-7.89565e-06 -0.000407579 0)
(9.72848e-05 -0.000289409 0)
(0.000162049 -0.000192978 0)
(0.000186426 -0.000109088 0)
(0.000204298 -1.76017e-05 0)
(0.000224635 0.000118852 0)
(0.000223193 0.00029929 0)
(0.000191809 0.000506444 0)
(0.000136579 0.000731204 0)
(5.94941e-05 0.000975212 0)
(-4.44221e-05 0.00123993 0)
(-0.000182579 0.00152274 0)
(-0.000362357 0.00181729 0)
(-0.000590669 0.00211354 0)
(-0.000873319 0.00239686 0)
(1.90916e-06 -0.000260943 0)
(2.78162e-05 -0.000703731 0)
(7.09949e-05 -0.000977606 0)
(0.000125388 -0.00113874 0)
(0.000187385 -0.00123236 0)
(0.000255966 -0.0012829 0)
(0.000331267 -0.00130229 0)
(0.000414066 -0.00129555 0)
(0.000505594 -0.00126364 0)
(0.000607427 -0.00120476 0)
(0.000721353 -0.0011149 0)
(0.000849172 -0.000987656 0)
(0.000992231 -0.000813632 0)
(0.0011502 -0.000579456 0)
(0.00131832 -0.000267634 0)
(0.00148226 0.000142192 0)
(0.00160784 0.000641189 0)
(0.00163342 0.00128417 0)
(0.00148626 0.00197923 0)
(0.00112255 0.00247875 0)
(0.000597993 0.00254614 0)
(9.02611e-05 0.00240943 0)
(-0.0002913 0.00188786 0)
(-0.000440069 0.00122717 0)
(-0.000361437 0.000668522 0)
(-0.000216558 0.000338521 0)
(-6.48676e-05 0.0001069 0)
(6.46953e-05 -0.000172014 0)
(0.000168917 -0.00031888 0)
(0.000248672 -0.000405917 0)
(0.000252506 -0.000414576 0)
(0.000319523 -0.000292173 0)
(0.000450781 -0.000526183 0)
(0.000364615 -0.000994559 0)
(0.000276307 -0.000854994 0)
(0.00039195 -0.000549751 0)
(0.00046907 -0.000346769 0)
(0.000443369 -0.000211239 0)
(0.000407605 -0.000110355 0)
(0.0004185 -4.24743e-05 0)
(0.000463912 0.000100693 0)
(0.000477809 0.000310351 0)
(0.000448466 0.00054759 0)
(0.00039776 0.000793743 0)
(0.00033198 0.00106043 0)
(0.000242517 0.00135546 0)
(0.000117996 0.00167734 0)
(-5.13392e-05 0.00201877 0)
(-0.000273819 0.00236934 0)
(-0.000557064 0.00271271 0)
(1.55431e-06 -0.000273808 0)
(2.50782e-05 -0.000737689 0)
(6.43084e-05 -0.00102464 0)
(0.000113754 -0.00119444 0)
(0.000170224 -0.00129498 0)
(0.000232948 -0.00135214 0)
(0.000302243 -0.00137871 0)
(0.000379052 -0.00138033 0)
(0.000464828 -0.00135844 0)
(0.000561509 -0.00131171 0)
(0.000671565 -0.00123649 0)
(0.000798073 -0.0011266 0)
(0.000944737 -0.000972294 0)
(0.00111568 -0.00075825 0)
(0.00131396 -0.000460893 0)
(0.00153666 -4.56063e-05 0)
(0.00175883 0.000509914 0)
(0.00191765 0.00129302 0)
(0.0018868 0.0022294 0)
(0.0015112 0.00300527 0)
(0.000776868 0.00316466 0)
(8.42779e-06 0.002929 0)
(-0.000289806 0.00207468 0)
(-0.000141701 0.00114127 0)
(9.70014e-05 0.000495456 0)
(0.000331551 0.00013958 0)
(0.000550334 -7.64373e-05 0)
(0.000701582 -0.000283979 0)
(0.000764646 -0.000383594 0)
(0.000786497 -0.000448181 0)
(0.00080831 -0.0004432 0)
(0.0009145 -0.000456881 0)
(0.00105328 -0.000591401 0)
(0.00103912 -0.000852439 0)
(0.000929606 -0.00081683 0)
(0.000875001 -0.000601627 0)
(0.000839695 -0.000317219 0)
(0.000744405 -0.000153651 0)
(0.000652826 -7.47021e-05 0)
(0.000674813 -8.91667e-05 0)
(0.000767613 5.16448e-05 0)
(0.000798445 0.000313787 0)
(0.000756437 0.000591604 0)
(0.000705985 0.000848459 0)
(0.000656654 0.00113 0)
(0.000588946 0.00145362 0)
(0.000484964 0.00181669 0)
(0.000332393 0.00220895 0)
(0.00012228 0.0026189 0)
(-0.000153933 0.00302952 0)
(1.16787e-06 -0.000285186 0)
(2.21772e-05 -0.000768295 0)
(5.7282e-05 -0.00106706 0)
(0.000101557 -0.00124468 0)
(0.000152151 -0.00135154 0)
(0.000208426 -0.00141488 0)
(0.000270694 -0.00144827 0)
(0.000339793 -0.00145791 0)
(0.000416988 -0.0014458 0)
(0.000503975 -0.00141115 0)
(0.000603001 -0.00135104 0)
(0.000717062 -0.00126027 0)
(0.000850263 -0.0011303 0)
(0.00100866 -0.000947139 0)
(0.00120148 -0.000687017 0)
(0.00144235 -0.000308851 0)
(0.00173335 0.00024689 0)
(0.0020527 0.00111249 0)
(0.00227427 0.00233007 0)
(0.00214826 0.00355021 0)
(0.00116697 0.00422886 0)