/*--------------------------------*- C++ -*----------------------------------*\
| =========                 |                                                 |
| \\      /  F ield         | OpenFOAM: The Open Source CFD Toolbox           |
|  \\    /   O peration     | Version:  2.4.0                                 |
|   \\  /    A nd           | Web:      www.OpenFOAM.org                      |
|    \\/     M anipulation  |                                                 |
\*---------------------------------------------------------------------------*/
FoamFile
{
    version     2.0;
    format      ascii;
    class       volScalarField;
    location    "0.066";
    object      alpha.water;
}
// * * * * * * * * * * * * * * * * * * * * * * * * * * * * * * * * * * * * * //

dimensions      [0 0 0 0 0 0 0];

internalField   nonuniform List<scalar> 
57600
(
1
1
1
1
1
1
1
1
1
1
1
1
1
1
1
1
1
1
1
1
1
1
1
1
1
1
1
1
1
1
1
1
1
1
1
1
1
1
1
1
1
1
1
1
1
1
1
1
1
1
1
1
1
1
1
1
1
1
1
1
1
1
1
1
1
1
1
1
1
1
1
1
1
1
1
1
1
1
1
1
1
1
1
1
1
1
1
1
1
1
1
1
1
1
1
1
1
1
1
1
1
1
1
1
1
1
1
1
1
1
1
1
1
1
1
1
1
1
1
1
1
1
1
1
1
1
1
1
1
1
1
1
1
1
1
1
1
1
1
1
1
1
1
1
1
1
1
1
1
1
1
1
1
1
1
1
1
1
1
1
1
1
1
1
1
1
1
1
1
1
1
1
1
1
1
1
1
1
1
1
1
1
1
1
1
1
1
1
1
1
1
1
1
1
1
1
1
1
1
1
1
1
1
1
1
1
1
1
1
1
1
1
1
1
1
1
1
1
1
1
1
1
1
1
1
1
1
1
1
1
1
1
1
1
1
1
1
1
1
1
1
1
1
1
1
1
1
1
1
1
1
1
1
1
1
1
1
1
1
1
1
1
1
1
1
1
1
1
1
1
1
1
1
1
1
1
1
1
1
1
1
1
1
1
1
1
1
1
1
1
1
1
1
1
1
1
1
1
1
1
1
1
1
1
1
1
1
1
1
1
1
1
1
1
1
1
1
1
1
1
1
1
1
1
1
1
1
1
1
0.999829
1
1
1
1
1
1
1
1
1
1
1
1
1
1
1
1
1
1
1
1
1
1
1
1
1
1
1
1
1
1
1
1
1
1
1
1
1
1
1
1
1
1
1
1
1
1
1
1
1
1
1
1
1
1
1
1
1
1
1
1
1
1
1
1
1
1
1
1
1
1
1
1
1
1
1
1
1
1
1
1
1
1
1
1
1
1
1
1
1
1
1
1
1
1
1
1
1
1
1
1
1
1
1
1
1
1
1
1
1
1
1
1
1
1
1
1
1
1
1
1
1
1
1
1
1
1
1
1
1
1
1
1
1
1
1
1
1
1
1
1
1
1
1
1
1
1
1
1
1
1
1
1
1
1
1
1
1
1
1
1
1
1
1
1
1
1
1
1
1
1
1
1
1
1
1
1
1
1
1
1
1
1
1
1
1
1
1
1
1
1
1
1
1
1
1
1
1
1
1
1
1
1
1
1
1
1
1
1
1
1
1
1
1
1
1
1
1
1
1
1
1
1
1
1
1
1
1
1
1
1
0.999999
1
1
1
1
1
1
1
1
1
1
1
1
1
1
1
1
1
1
1
1
1
1
1
1
1
1
1
1
1
1
0.997131
1
1
1
1
1
1
1
1
1
1
1
1
1
1
1
1
1
1
1
1
1
1
1
0.999771
0.999563
0.999994
1
0.999995
0.999999
0.998931
1
1
1
1
1
1
1
1
1
1
1
1
1
1
1
1
1
1
1
1
1
1
1
1
1
0.99976
1
1
1
1
1
1
1
1
1
1
1
1
1
1
1
1
1
1
1
1
1
1
1
1
1
1
1
1
0.990234
0.00170295
5.19378e-05
6.76679e-05
0.000271127
0.00792004
0.953215
1
1
1
1
1
1
1
1
1
1
1
1
1
1
1
1
1
1
1
1
1
1
0.998528
0.000253291
8.44176e-07
5.89324e-09
6.39491e-09
4.12224e-08
2.73134e-06
3.94174e-05
0.00296813
1
1
1
1
1
1
1
1
1
1
1
1
1
1
1
1
1
1
1
1
1
0.185112
1.73382e-07
4.11541e-09
4.79727e-09
4.97777e-09
3.84374e-08
5.60583e-09
1.45018e-08
5.02251e-07
1.51917e-05
0.00100334
0.604866
1
1
1
1
1
1
1
1
1
1
1
1
1
1
1
1
1
0.9822
9.35572e-06
2.2233e-09
7.85665e-09
9.19743e-08
4.73044e-09
6.27417e-09
4.777e-09
4.88728e-09
5.20916e-09
6.95885e-09
9.20839e-08
3.69709e-06
3.33043e-05
0.000126039
0.00025129
1
1
1
1
1
1
1
1
1
0.999999
1
1
1
0.999998
0.000128058
1.51328e-09
1.99896e-09
4.84797e-09
8.75342e-09
7.0579e-09
5.16498e-09
1.36383e-07
4.88784e-09
4.77975e-09
5.09018e-09
5.58405e-09
6.63072e-09
8.60724e-09
1.21602e-08
2.03422e-08
1
1
1
1
1
1
1
1
1
1
0.999999
1
1
0.280966
-1.46613e-08
3.33123e-08
1.88373e-09
4.37831e-09
6.01956e-09
7.50163e-09
5.82988e-09
6.49264e-09
1.37618e-07
4.77359e-09
4.72872e-09
5.24407e-09
6.14418e-09
7.62627e-09
8.40635e-09
9.34556e-09
1
1
1
1
1
1
1
1
1
0.999964
0.999892
1
1
1.57429e-09
1.27181e-09
4.49381e-10
1.9711e-09
5.81604e-07
5.91405e-09
1.78063e-06
2.34881e-06
5.96671e-09
6.15487e-09
4.80598e-09
4.64275e-09
5.00358e-09
6.27145e-09
7.24704e-09
7.81104e-09
8.52833e-09
1
1
1
1
1
1
1
1
0.999927
0.999964
0.999996
1
1
1.28235e-06
3.12629e-09
2.38244e-10
1.27916e-09
2.23939e-09
8.28879e-09
2.97818e-06
1.472e-07
4.90202e-09
6.48865e-09
4.59841e-09
4.75807e-09
1.87612e-07
7.12991e-09
6.49765e-09
5.15045e-08
8.03578e-09
1
1
1
1
1
1
1
1
1
1
1
1
1
1
1
1
1
1
1
1
1
1
1
1
1
1
1
1
1
1
1
1
1
1
1
1
1
1
1
1
1
1
1
1
1
1
1
1
1
1
1
1
1
1
1
1
1
1
1
1
1
1
1
1
1
1
1
1
1
1
1
1
1
1
1
1
1
1
1
1
1
1
1
1
1
1
1
1
1
1
1
1
1
1
1
1
1
1
1
1
1
1
1
1
1
1
1
1
1
1
1
1
1
1
1
1
1
1
1
1
1
1
1
1
1
1
1
1
1
1
1
1
1
1
1
1
1
1
1
1
1
1
1
1
1
1
1
1
1
1
1
1
1
1
1
1
1
1
1
1
1
1
1
1
1
1
1
1
1
1
1
1
1
1
1
1
1
1
1
1
1
1
1
1
1
1
1
1
1
1
1
1
1
1
1
1
1
1
1
1
1
1
1
1
1
1
1
1
1
1
1
1
1
1
1
1
1
1
1
1
1
1
1
1
1
1
1
1
1
1
1
1
1
1
1
1
1
1
1
1
1
1
1
1
1
1
1
1
1
1
1
1
1
1
1
1
1
1
1
1
1
1
1
1
1
1
1
1
1
1
0.99972
0.999226
1
1
1
1
1
1
1
1
1
1
1
1
1
1
1
1
1
1
1
1
1
1
1
1
1
1
1
1
0.999906
0.999998
0.999951
1
1
1
1
1
1
1
1
1
1
1
1
1
1
1
1
1
1
1
1
1
1
1
1
1
1
1
1
0.999975
1
1
1
1
1
1
1
1
1
1
1
1
1
1
1
1
1
1
1
1
1
1
1
1
1
1
1
1
1
1
1
1
1
1
1
1
1
1
1
1
1
1
1
1
1
1
1
1
1
1
1
1
1
1
1
1
1
1
0.999994
1
1
1
1
1
1
1
1
1
1
1
1
1
1
1
1
1
1
1
1
1
1
1
1
1
1
1
1
1
0.999999
0.976732
1
1
1
1
1
1
1
1
1
1
1
1
1
1
1
1
1
1
1
1
1
1
1
1
1
1
1
1
0.999996
0.999986
1
1
1
1
1
1
1
1
1
1
1
1
1
1
1
1
1
1
1
1
1
1
1
1
1
1
1
1
1
1
1
1
1
1
1
1
1
0.999996
1
1
1
1
1
1
1
1
1
1
1
1
1
1
1
1
1
1
1
1
1
1
1
1
1
1
1
1
0.999999
0.999993
1
1
1
1
1
1
1
1
1
1
1
1
1
1
1
1
1
1
1
1
1
1
1
1
1
1
1
1
0.999998
1
1
1
1
1
1
1
1
1
1
1
1
1
1
1
1
1
1
1
1
1
1
1
1
1
1
1
1
1
0.995661
1
1
1
1
1
1
1
1
1
1
1
1
1
1
1
1
1
1
1
1
1
1
1
1
1
1
1
1
1
0.999993
1
0.999883
0.999999
1
1
1
1
0.999995
1
1
1
1
1
1
1
1
1
1
1
1
1
1
1
1
1
1
1
1
1
1
1
1
1
1
0.998269
1
1
1
1
1
1
1
1
1
1
1
1
1
1
1
1
1
1
1
1
1
1
1
1
0.2199
0.000664348
0.000130151
2.84552e-05
1.46337e-05
0.469688
0.998404
1
1
1
1
1
1
1
1
1
1
1
1
1
1
1
1
1
1
1
1
1
0.317507
0.000329712
1.16064e-05
1.24881e-07
1.09361e-08
1.05802e-08
1.27193e-06
-4.74738e-07
0.944855
1
1
1
1
1
1
1
1
1
1
1
1
1
1
1
1
1
1
0.602647
0.00281839
3.90193e-05
1.76176e-06
5.22496e-08
6.60818e-06
4.67317e-09
5.00873e-09
2.765e-09
2.47681e-09
4.42236e-09
9.28216e-05
1
1
1
1
1
1
1
1
1
1
1
1
1
1
1
0.000268831
0.000168688
4.84557e-05
9.96898e-06
7.70838e-07
1.02723e-08
6.27397e-09
6.7245e-09
7.82791e-09
4.46226e-09
4.76183e-09
2.09304e-08
3.02481e-09
1.22617e-09
2.66751e-08
0.0352534
1
1
1
1
1
1
1
1
1
1
1
1
1
1
2.29682e-08
1.73874e-08
9.83809e-09
7.22567e-09
6.19378e-09
5.94552e-09
5.87634e-09
3.14351e-07
6.16122e-07
4.40636e-09
2.06442e-07
3.29425e-09
3.23588e-09
1.30567e-09
3.79712e-10
8.44259e-07
0.918899
1
1
1
1
1
1
1
1
1
1
1
1
1
8.23182e-09
7.1993e-09
6.40896e-09
5.8163e-09
5.5711e-09
5.80642e-09
6.62351e-07
4.92289e-07
4.95253e-09
4.91825e-09
7.52972e-09
7.59015e-07
2.96678e-09
1.01208e-09
8.0266e-11
5.74319e-05
0.00218406
1
1
1
1
1
1
1
1
1
1
1
1
1
7.27747e-09
6.4103e-09
5.84543e-09
5.45635e-09
5.68356e-09
6.6293e-07
2.54382e-07
9.85304e-09
1.20189e-08
1.17446e-08
7.26826e-09
4.66131e-09
2.60914e-09
5.04875e-10
2.46098e-11
1.18197e-05
2.38262e-05
1
1
0.999994
1
0.999939
0.999982
1
1
1
1
1
1
1
6.72051e-09
5.97693e-09
5.58852e-09
5.3349e-09
5.52889e-09
6.95714e-09
7.39321e-09
2.20862e-06
6.94187e-09
6.91431e-09
5.82815e-09
3.78234e-09
1.37636e-09
1.78239e-10
5.66727e-12
6.63933e-12
1.74911e-05
0.802385
1
0.999972
0.999999
0.999994
0.999991
1
1
1
1
1
1
1
0.00274001
1
1
1
1
1
1
0.999999
0.999962
0.999995
0.999964
1
0.967038
0.00053788
4.36716e-11
9.14556e-11
6.82687e-10
2.64709e-09
4.84948e-09
7.53265e-09
5.28887e-09
4.89022e-09
4.66238e-09
4.60952e-09
4.98731e-09
6.52516e-07
8.14567e-09
6.28759e-09
5.1769e-08
7.8455e-09
1.16267e-11
1.55544e-07
0.688518
1
1
1
1
1
0.999984
0.999997
0.999997
0.999999
0.722541
1.70541e-05
4.32782e-11
4.20033e-11
4.84491e-10
3.75155e-09
5.27438e-09
6.06497e-09
5.42047e-09
0.000151793
8.54758e-08
2.56374e-08
5.61983e-09
6.48327e-07
7.4233e-09
6.78809e-09
9.21883e-09
7.81806e-09
1.07718e-11
4.84898e-10
0.00251268
0.351673
1
1
0.999998
1
0.999987
0.992347
0.999997
0.999999
0.370003
1.47895e-05
2.66882e-11
1.49306e-11
2.51802e-10
2.3049e-09
3.90328e-06
1.91725e-08
3.09908e-08
0.000183254
5.40306e-09
5.64604e-09
6.23335e-09
8.12263e-09
6.61542e-09
6.22436e-09
8.65523e-09
7.8008e-09
7.19976e-13
2.04784e-11
9.79445e-06
0.0299086
0.97826
1
0.999765
0.999999
0.999995
0.00276369
0.998332
0.999233
0.0312272
1.69833e-05
5.35586e-05
3.98145e-12
9.15519e-11
1.22853e-09
6.50257e-09
2.19624e-06
2.97678e-08
1.28286e-07
5.37761e-09
6.12305e-09
6.82542e-09
7.15443e-09
5.93697e-09
4.96322e-08
8.26784e-09
1.66526e-08
7.25576e-15
4.08174e-11
0.000225029
8.13797e-06
0.651257
0.999953
0.999536
0.999996
0.999806
0.0016566
-2.34256e-08
3.0332e-05
3.09888e-05
9.16693e-05
0.000217197
8.18353e-13
2.51111e-11
4.76064e-10
3.17601e-09
8.69305e-06
1.08386e-08
6.6745e-09
6.11782e-09
6.59091e-09
7.29746e-09
6.81684e-09
7.74599e-06
5.63459e-09
7.09149e-09
4.23684e-08
1.42844e-17
9.93409e-11
4.69373e-06
6.72586e-06
0.000196444
0.999998
0.999512
0.999571
0.000297719
0.00149271
3.52173e-09
0.000104135
9.37807e-05
0.000121476
0.0001386
1.43216e-13
4.88354e-12
1.33553e-10
1.61839e-09
6.74701e-09
6.57219e-08
6.55685e-09
8.47913e-09
7.04794e-09
7.76423e-09
1.17539e-07
6.37367e-06
5.64016e-09
3.39458e-08
8.33461e-09
1.51796e-18
6.6514e-12
0.00031485
8.43092e-05
0.000182566
1
1
0.999984
3.51246e-05
1.42914e-06
3.84481e-08
5.11277e-05
0.000787799
1.80207e-05
0.000144506
2.78522e-14
6.4753e-13
2.68908e-11
4.86167e-10
2.7132e-09
5.07365e-09
2.63692e-06
6.80013e-09
7.08846e-09
7.17259e-09
2.08867e-06
5.26651e-09
5.30621e-09
5.42779e-08
1.02184e-08
2.45193e-18
1.05796e-12
2.81326e-06
0.000192001
3.46801e-05
0.501583
0.999986
0.000144096
1.17983e-05
6.844e-09
6.97393e-08
5.42871e-07
0.000300515
3.17527e-05
4.76285e-05
8.29526e-15
5.17933e-14
3.34944e-12
1.01065e-10
9.85462e-10
3.01894e-09
4.14149e-07
4.82056e-06
4.22124e-06
1.11455e-06
2.78782e-06
3.82315e-09
4.55109e-09
4.61908e-09
5.05802e-09
2.15276e-18
1.54838e-12
4.9144e-10
1.48286e-05
0.000357407
1.75244e-05
0.6421
0.000260651
1.4064e-05
1.59829e-10
7.43566e-10
1.98958e-08
1.37261e-05
4.1666e-05
1.85034e-05
2.81496e-15
2.17688e-15
2.21018e-13
1.13574e-11
1.97147e-10
1.12453e-09
2.45754e-09
4.14656e-09
4.11741e-09
4.94787e-09
5.18127e-09
4.66506e-09
2.33914e-08
4.20202e-06
2.23768e-06
1.59871e-18
8.73926e-13
4.31187e-10
9.61018e-06
4.75103e-05
4.4388e-06
0.000154997
0.000459965
2.44493e-05
8.89126e-11
1.2014e-09
9.58351e-10
1.28268e-05
0.000561675
-6.12696e-10
6.93222e-16
4.16626e-17
6.69995e-15
5.96379e-13
1.85155e-11
1.85593e-10
7.37385e-10
1.5678e-09
2.34023e-09
3.02778e-09
3.32969e-09
3.39102e-09
4.1819e-09
4.46072e-09
4.40656e-09
2.90885e-19
5.59262e-13
1.22254e-09
2.74744e-05
0.000259891
9.01541e-06
7.76636e-05
0.000241336
6.17767e-05
3.45918e-08
2.43221e-08
3.63858e-10
4.43123e-09
3.48642e-05
1.12274e-11
1.24809e-16
9.21131e-18
8.0194e-17
1.26785e-14
7.06924e-13
1.24679e-11
8.05698e-11
2.52888e-10
5.04734e-10
7.61226e-10
9.26705e-10
1.02149e-09
1.17147e-09
1.40112e-09
1.35694e-09
1.97396e-20
9.28033e-14
2.55619e-08
5.19965e-07
9.77665e-07
1.43853e-05
1.27903e-06
7.19708e-05
0.000103156
4.08868e-08
2.82702e-10
2.14043e-10
4.30288e-09
4.55205e-09
1.89834e-12
4.22688e-16
1.26282e-15
4.13548e-16
9.8531e-17
9.62959e-15
2.97604e-13
3.12959e-12
1.44305e-11
3.79525e-11
6.82444e-11
9.34764e-11
1.0952e-10
1.2275e-10
1.34376e-10
1.33133e-10
1.1423e-21
4.7646e-15
1.66981e-10
3.59142e-06
0.000297681
5.26637e-08
8.75496e-06
5.09902e-07
5.81646e-05
8.28921e-10
2.2273e-10
1.06608e-08
9.62066e-09
5.50023e-09
3.01273e-13
1.08125e-12
4.75874e-12
1.18543e-12
3.1879e-14
1.73428e-16
2.25314e-15
3.8487e-14
2.59654e-13
8.97871e-13
1.94027e-12
2.99429e-12
3.72161e-12
4.15008e-12
4.32603e-12
4.208e-12
9.31636e-23
2.60013e-16
1.44529e-11
1.14182e-05
4.15018e-07
1.46886e-06
4.52109e-08
5.44815e-05
5.16341e-08
1.01643e-07
1.33115e-10
8.92561e-08
1.45072e-09
5.01144e-11
2.82515e-11
3.68727e-10
5.3668e-10
1.50087e-10
1.17294e-11
2.25072e-13
1.0291e-15
1.36637e-16
1.33564e-15
6.06078e-15
1.57066e-14
2.71438e-14
3.56001e-14
3.96031e-14
3.97952e-14
3.74411e-14
9.63389e-24
1.50386e-17
9.15423e-13
4.64128e-11
1.24106e-06
1.48136e-06
4.86424e-10
1.75903e-08
2.18139e-07
8.07156e-10
7.20788e-11
3.46206e-08
9.70587e-11
7.31963e-11
3.78812e-10
9.46483e-05
2.17347e-05
1.34115e-09
4.15644e-10
3.56851e-11
7.43316e-13
3.73476e-15
8.89605e-18
1.06006e-17
3.25132e-17
6.19231e-17
8.44529e-17
9.2982e-17
8.98333e-17
8.10961e-17
5.11972e-25
1.15507e-18
4.68811e-14
4.80402e-11
2.63542e-10
3.07772e-10
2.72952e-10
2.96907e-10
1.43887e-08
8.96866e-11
5.86173e-11
2.42473e-09
0.00043577
4.67019e-10
8.76466e-05
1.71684e-07
4.5722e-08
0.000122695
1.31116e-09
7.88243e-10
7.1801e-11
1.32497e-12
6.82411e-15
2.18379e-17
7.52023e-20
3.08713e-20
4.21008e-20
4.47044e-20
4.07259e-20
3.47029e-20
1.12059e-26
5.02919e-20
2.96883e-15
1.10937e-11
1.3797e-10
1.46247e-10
9.88548e-11
1.23079e-10
1.42032e-10
1.65038e-11
7.09943e-11
6.3998e-09
1.67257e-08
1.74538e-08
2.91207e-07
0.00012903
9.22161e-05
2.58149e-09
0.000128195
1.30921e-09
1.06433e-09
8.97529e-11
1.13835e-12
8.01829e-15
4.62885e-17
2.88837e-19
2.45901e-21
3.77128e-23
3.58267e-24
2.19445e-24
1.17599e-28
8.43185e-22
9.91189e-17
1.29833e-12
2.03522e-11
2.72876e-11
1.93525e-11
2.63877e-11
1.52768e-11
8.3892e-12
7.94998e-11
1.14618e-09
2.47273e-06
1.25831e-05
2.63202e-08
2.63285e-09
1.42715e-05
2.17563e-09
1.04029e-05
7.00856e-06
1.31036e-09
9.13625e-10
4.46121e-11
5.90152e-13
6.93612e-15
8.74548e-17
1.41382e-18
3.24883e-20
1.08133e-21
4.93565e-23
7.21528e-31
6.21894e-24
1.16998e-18
4.09335e-14
5.15744e-13
2.0591e-12
2.04303e-12
2.90987e-12
9.53564e-13
2.92489e-11
2.50601e-10
5.40997e-07
6.03725e-05
1.76601e-05
2.7425e-05
1.9881e-09
6.15797e-06
2.04465e-09
2.62805e-09
5.34047e-05
0.000293541
8.17601e-10
2.75457e-10
8.68157e-12
2.09852e-13
4.93469e-15
1.18802e-16
3.17189e-18
1.01528e-19
4.06428e-21
2.70563e-33
2.57354e-26
5.90012e-21
3.35091e-16
5.4574e-15
6.29055e-14
1.13567e-13
1.59271e-13
4.37037e-14
7.54828e-11
0.000409477
6.39503e-05
3.02595e-06
2.76775e-05
2.51901e-09
9.38167e-07
1.15139e-09
3.40325e-09
1.52957e-09
1.01662e-09
8.44422e-10
6.29187e-10
2.03404e-10
1.78901e-11
8.71108e-13
2.89441e-14
7.72521e-16
1.93961e-17
5.23112e-19
1.68221e-20
5.53575e-36
6.50208e-29
1.66038e-23
9.90458e-19
3.89146e-17
9.73646e-16
2.94511e-15
4.50109e-15
5.50688e-14
1.13163e-10
0.000563397
6.42484e-06
8.07708e-06
3.13517e-08
3.85817e-05
2.63731e-07
1.32329e-08
4.32489e-09
3.3946e-10
4.29829e-10
3.44939e-10
1.65584e-10
4.73974e-11
6.94945e-12
5.20234e-13
2.24187e-14
6.60978e-16
1.59558e-17
3.70474e-19
9.37165e-21
5.17523e-39
9.0429e-32
2.77174e-26
1.55522e-21
1.52612e-19
6.80402e-18
3.329e-17
6.8794e-17
1.05587e-12
-6.10004e-11
0.000861975
0.000202535
5.13118e-06
4.27621e-08
0.000290494
3.11867e-08
1.21694e-05
2.33729e-09
2.28409e-10
1.1988e-10
1.4812e-10
6.76881e-11
1.57348e-11
2.10003e-12
1.56286e-13
6.7218e-15
1.86853e-16
3.905e-18
7.15602e-20
1.31424e-21
1.97062e-42
5.79456e-35
2.38246e-29
1.34463e-24
2.55341e-22
1.81448e-20
1.58955e-19
5.75558e-18
1.27561e-11
6.17401e-06
5.26846e-08
1.16459e-05
1.68849e-05
1.86641e-08
6.6107e-07
2.05569e-06
2.09868e-08
9.3877e-07
3.53269e-10
1.09866e-10
3.52292e-11
2.42319e-11
5.00058e-12
5.37133e-13
3.22962e-14
1.13317e-15
2.52548e-17
4.02835e-19
5.23951e-21
6.26782e-23
2.86733e-46
1.53432e-38
8.86327e-33
5.10655e-28
1.59731e-25
1.82083e-23
3.14189e-22
1.89404e-16
3.68889e-11
4.96649e-06
2.99108e-09
4.37436e-09
1.8723e-05
1.17544e-08
4.96995e-05
1.03917e-06
7.29189e-07
1.91486e-08
9.33023e-05
4.20848e-10
1.45408e-11
4.69309e-12
9.37764e-13
7.81955e-14
3.49292e-15
8.99501e-17
1.45072e-18
1.61296e-20
1.36941e-22
9.77701e-25
1.53792e-50
1.59647e-42
1.29326e-36
7.27821e-32
3.67869e-29
7.03162e-27
3.00966e-25
1.45204e-16
1.74767e-11
5.57074e-07
1.88346e-06
9.62782e-10
1.31553e-09
3.99029e-09
1.40796e-08
6.19421e-09
4.8588e-08
1.93204e-08
6.9449e-05
8.90918e-10
4.03744e-11
1.03523e-12
9.48291e-14
5.45685e-15
1.52579e-16
2.39799e-18
2.44187e-20
1.69947e-22
8.57129e-25
3.45638e-27
3.11739e-55
6.47741e-47
7.17316e-41
3.79222e-36
3.28956e-33
1.2472e-30
1.43335e-26
2.85919e-18
5.08098e-13
2.59783e-10
0.000474899
2.75515e-08
7.13326e-08
2.0908e-09
2.99807e-09
4.71175e-09
1.57711e-05
8.30478e-05
2.50955e-08
3.75542e-10
2.4113e-11
5.45086e-13
8.06944e-15
1.73287e-16
2.9081e-18
3.03857e-20
1.99404e-22
8.41608e-25
2.31588e-27
4.16936e-30
2.88668e-60
1.10967e-51
1.5923e-45
7.96453e-41
1.5276e-37
2.0015e-34
2.18351e-29
2.93075e-21
1.24664e-15
9.70474e-12
2.46692e-10
2.78748e-07
1.81975e-05
3.74254e-06
1.68738e-08
7.47525e-07
2.23806e-05
2.42003e-11
4.80301e-11
8.53793e-12
6.59715e-13
1.6579e-14
1.35556e-16
5.27568e-19
1.94314e-21
7.26884e-24
1.94795e-26
3.2304e-29
3.07414e-32
1.54124e-35
1.64201e-65
1.0971e-56
1.88416e-50
1.13094e-45
8.00768e-42
3.95375e-38
5.73715e-34
1.08379e-25
2.49174e-19
1.44321e-14
9.60619e-12
1.2796e-10
1.81424e-10
1.69145e-10
2.51694e-10
6.70667e-11
4.92547e-11
1.58885e-12
2.3791e-14
2.48379e-16
2.35767e-18
1.47593e-20
4.35474e-23
5.77201e-26
3.71788e-29
1.39146e-32
3.91573e-36
9.22368e-40
1.50911e-43
1.32378e-47
4.22685e-71
9.15957e-62
2.23787e-55
2.43684e-50
4.70541e-46
4.47264e-42
3.20109e-38
1.27561e-31
3.50949e-24
1.55261e-18
6.48882e-15
4.46334e-13
1.46584e-12
2.11861e-12
1.22454e-12
5.51328e-14
3.10309e-16
5.09767e-19
3.93223e-22
1.60221e-25
3.43194e-29
3.80072e-33
2.16985e-37
6.436e-42
1.00008e-46
8.16256e-52
3.43252e-57
7.47676e-63
3.70685e-68
1.08473e-72
3.10548e-77
5.28686e-67
2.93723e-60
5.37584e-55
1.70779e-50
2.28365e-46
1.74791e-42
1.38895e-38
2.15434e-30
1.39946e-23
3.71088e-19
1.02486e-16
8.55609e-16
1.37213e-15
6.09773e-17
1.57406e-20
5.54543e-25
6.80539e-30
4.18715e-35
1.49742e-40
3.23438e-46
4.20367e-52
3.23882e-58
1.45251e-64
3.7071e-71
5.24221e-78
3.92167e-85
1.45387e-92
3.70112e-100
9.37012e-107
6.46117e-09
5.89847e-09
5.52184e-09
5.42679e-09
5.29359e-09
6.09343e-09
7.83174e-09
1.74427e-06
7.51695e-07
8.9329e-09
5.12606e-09
2.83069e-09
7.7465e-10
6.7786e-11
1.42913e-12
4.46431e-11
0.000130316
0.165274
0.999999
0.999993
0.999999
0.999999
0.999994
1
1
1
1
1
1
0.962394
1.27238e-08
6.17129e-09
5.51859e-09
6.08359e-09
8.36656e-08
6.02353e-09
2.96602e-05
1.52152e-07
4.99529e-06
5.28071e-09
1.66879e-07
2.67132e-09
5.07209e-10
3.10706e-11
5.03764e-13
1.71431e-11
4.1025e-05
0.0587813
0.99997
0.999998
0.999985
1
0.999999
0.999991
1
1
1
1
6.45436e-06
4.78987e-11
1.0079e-08
7.92212e-09
5.94641e-08
6.54607e-09
7.1914e-08
6.00777e-09
7.52398e-06
1.17001e-08
1.10891e-08
2.0487e-06
8.01449e-08
2.20087e-09
2.86589e-10
1.20754e-11
1.43034e-13
2.2692e-11
0.00123706
0.0117698
0.999996
0.999998
0.999984
1
0.999988
0.999695
1
1
0.880981
0.00522063
1.02639e-09
4.87255e-10
7.58486e-09
6.77192e-09
4.5796e-08
3.62045e-08
5.45551e-09
5.03343e-09
7.62146e-09
8.76125e-09
8.27236e-09
9.5623e-06
4.41534e-09
1.328e-09
1.33311e-10
3.89175e-12
3.42999e-14
5.14532e-11
0.000265835
0.000212168
0.999335
0.999979
0.223842
0.999898
0.999987
0.998344
1
0.9988
0.4027
0.000839107
1.08158e-10
4.06855e-11
7.40907e-09
6.13821e-09
7.04552e-09
9.01792e-09
5.24344e-08
0.000124674
5.64268e-09
9.02671e-09
6.74737e-09
5.9076e-09
3.25857e-09
6.73156e-10
4.96439e-11
1.01246e-12
8.22352e-15
1.3352e-10
0.000269973
8.73617e-08
3.10146e-05
0.977961
-4.19018e-06
0.000464518
0.999999
0.99849
1
0.928113
1.80655e-05
3.11784e-05
9.15601e-11
7.1885e-13
7.51649e-09
8.1683e-09
7.89503e-09
7.75664e-09
7.94482e-09
0.000149508
1.75191e-08
2.03735e-06
1.67656e-06
4.24978e-09
1.73715e-09
2.67129e-10
1.43623e-11
2.06671e-13
2.42301e-15
7.87196e-07
8.35117e-08
8.70549e-08
1.44915e-11
-9.00627e-08
3.20131e-10
1.53112e-05
0.999986
0.999578
0.999664
0.0919796
6.04717e-06
0.000229005
5.91083e-11
2.269e-15
2.27836e-06
7.2928e-07
9.39584e-09
7.86392e-09
1.08149e-07
3.47252e-08
6.66956e-09
6.10649e-09
4.39619e-09
2.50291e-09
6.97958e-10
7.89624e-11
3.11673e-12
3.22811e-14
8.74672e-16
2.60193e-09
1.0771e-05
1.72008e-07
9.47648e-05
-2.0056e-09
7.96276e-09
7.11258e-05
0.923288
0.999998
0.999999
0.000235657
0.000187195
1.4429e-07
8.82405e-11
4.54108e-16
3.15228e-08
3.65646e-07
1.37956e-06
9.01469e-09
7.47049e-09
6.24329e-09
5.45678e-09
4.07663e-09
2.47113e-09
9.69469e-10
1.96822e-10
1.64627e-11
4.87469e-13
3.77959e-15
1.98185e-15
9.40438e-11
0.000143089
7.1463e-08
9.26461e-05
1.98418e-10
1.83697e-10
0.000116904
6.1228e-05
0.99678
0.999999
5.91436e-05
0.00034708
7.21399e-08
1.84083e-10
6.74795e-16
3.97345e-06
3.7277e-06
1.44365e-08
6.8373e-09
5.95338e-09
4.52472e-09
3.12769e-09
1.85868e-09
8.44108e-10
2.43507e-10
3.60715e-11
2.27699e-12
5.27542e-14
1.92225e-15
9.24213e-14
3.6944e-11
7.09926e-07
7.08689e-08
9.34115e-05
1.29604e-08
1.28858e-09
0.000291868
6.82766e-06
0.0623922
0.00534879
0.000437634
0.000157286
3.62058e-05
2.3624e-10
1.66233e-16
4.75644e-09
4.27812e-09
3.86833e-09
3.32536e-09
2.53544e-09
1.69464e-09
9.76985e-10
4.65437e-10
1.63164e-10
3.53946e-11
3.94555e-12
1.96518e-13
5.1865e-15
1.08117e-13
4.66123e-12
2.12042e-12
9.234e-06
3.61386e-06
8.00401e-08
3.55974e-10
4.05471e-07
2.90339e-06
4.18031e-07
1.48055e-05
1.43639e-05
7.52845e-05
3.35088e-05
1.28952e-06
3.99359e-11
3.97179e-17
1.35812e-09
1.22985e-09
9.57234e-10
7.25905e-10
4.88484e-10
2.86543e-10
1.41795e-10
5.61673e-11
1.57899e-11
2.67415e-12
2.36187e-13
1.06117e-14
5.93336e-14
3.36021e-12
1.12179e-10
1.78034e-11
2.4633e-05
0.000506182
5.68259e-07
3.20893e-10
8.50672e-10
9.52361e-08
3.8162e-08
1.80866e-05
2.30874e-05
5.30849e-08
1.34588e-05
2.84529e-05
6.29503e-12
3.70111e-18
1.26133e-10
1.13117e-10
8.64718e-11
5.98634e-11
3.64767e-11
1.92393e-11
8.4745e-12
2.90908e-12
6.82815e-13
9.48728e-14
7.50193e-15
2.66915e-14
1.19895e-12
4.38984e-11
7.21765e-10
2.83456e-09
0.000114038
0.000409943
1.06345e-07
2.54129e-10
1.53971e-06
8.888e-05
5.10047e-08
4.17539e-05
4.44501e-08
5.20383e-08
3.88954e-07
2.86955e-10
3.32224e-13
2.51921e-19
3.85454e-12
3.37527e-12
2.51182e-12
1.63609e-12
9.30451e-13
4.56708e-13
1.86189e-13
5.75515e-14
1.17692e-14
1.75927e-15
1.76281e-14
5.39163e-13
1.1895e-11
2.11809e-10
5.19727e-10
5.30121e-08
0.000210542
0.000159557
1.3359e-07
2.44044e-10
5.9995e-07
0.000139377
5.27015e-07
2.58284e-08
5.98706e-08
2.70265e-06
1.08105e-10
2.65254e-11
2.30968e-14
1.70552e-20
3.34095e-14
2.85503e-14
2.0807e-14
1.30668e-14
7.14073e-15
3.37867e-15
1.31973e-15
3.84317e-16
4.27747e-16
1.70897e-14
4.08763e-13
5.93274e-12
6.20787e-11
4.13009e-10
7.92575e-06
-4.42515e-08
1.93528e-05
0.000269986
7.00805e-07
1.91264e-10
6.31736e-10
2.1866e-06
4.47692e-05
3.81091e-06
4.73444e-07
8.29383e-09
2.0997e-11
3.26947e-11
1.43758e-15
8.45202e-22
7.04416e-17
5.89103e-17
4.23661e-17
2.61437e-17
1.40933e-17
6.80669e-18
1.03147e-17
3.56107e-16
1.60167e-14
4.05163e-13
4.98496e-12
3.82918e-11
2.02032e-10
3.70543e-10
7.96175e-06
1.66471e-08
0.000264004
9.45111e-06
1.98873e-07
2.30242e-06
2.3373e-10
0.000169122
3.26828e-10
9.05029e-09
5.01901e-09
1.75749e-10
1.8353e-11
4.1637e-12
4.99341e-17
4.12904e-23
2.90379e-20
2.3726e-20
1.71499e-20
1.65434e-20
1.95779e-19
7.10597e-18
2.67474e-16
9.47138e-15
2.93524e-13
4.6449e-12
3.40614e-11
1.53948e-10
5.06571e-10
1.57202e-08
2.72609e-09
2.25895e-09
3.48191e-05
6.51388e-05
1.53936e-06
7.28114e-06
8.69214e-11
9.84232e-10
3.55684e-10
4.72974e-10
1.30984e-08
7.24416e-11
3.67795e-12
1.46458e-13
1.48594e-18
1.65102e-24
2.86993e-24
2.41192e-23
6.32979e-22
2.52568e-20
1.22692e-18
5.83714e-17
2.33219e-15
7.52772e-14
1.95058e-12
2.4835e-11
1.35262e-10
4.13037e-10
9.29973e-10
1.7701e-09
1.91496e-09
7.63202e-05
2.82581e-05
9.13687e-07
3.91232e-08
3.14847e-05
2.24436e-11
2.08251e-10
1.41665e-10
8.92149e-11
8.89013e-11
1.44201e-11
4.74688e-13
3.04166e-15
3.738e-20
3.12192e-26
2.9449e-24
4.40169e-24
2.59174e-22
2.03793e-20
1.57943e-18
9.73589e-17
4.19709e-15
1.20288e-13
2.41063e-12
2.78741e-11
1.58549e-10
4.80377e-10
8.92177e-10
1.20803e-09
1.15558e-09
3.6924e-08
1.57918e-09
0.0022504
4.26102e-08
3.96275e-06
6.64045e-12
2.08794e-11
2.71243e-11
1.64429e-11
2.0105e-11
1.12296e-12
2.73097e-14
5.82806e-17
4.28657e-22
2.78267e-28
1.9111e-22
1.13736e-23
3.45103e-23
5.16609e-21
6.23017e-19
4.95022e-17
2.34173e-15
6.22395e-14
9.22423e-13
7.31236e-12
3.03767e-11
7.16757e-11
1.09676e-10
1.3813e-10
2.56465e-10
5.96047e-10
1.37953e-09
0.00328751
9.35281e-08
3.75226e-05
3.40132e-12
9.40501e-13
2.01606e-12
1.31355e-12
1.66576e-12
4.49125e-14
5.87838e-16
5.16554e-19
2.27953e-24
1.51053e-30
6.29744e-22
2.54979e-23
4.20488e-24
8.11609e-22
1.48853e-19
1.55112e-17
8.57895e-16
2.42755e-14
3.50365e-13
2.58234e-12
9.73208e-12
2.00918e-11
4.46152e-11
1.77472e-10
4.07655e-10
6.62731e-10
7.28851e-06
0.000155873
2.96934e-06
3.00735e-05
4.25006e-12
3.56539e-14
5.6705e-14
4.59415e-14
4.13649e-14
8.78592e-16
5.90437e-18
1.9921e-21
7.42961e-27
5.09929e-33
2.6862e-22
6.88324e-24
4.5849e-25
9.04818e-23
2.56764e-20
3.62689e-18
2.45842e-16
7.85234e-15
1.18753e-13
8.50579e-13
2.90615e-12
1.18197e-11
9.55874e-11
3.53028e-10
4.7303e-10
7.45173e-05
3.0236e-05
7.54398e-05
1.10486e-07
5.35512e-07
1.28609e-11
3.89964e-15
7.24093e-16
5.69036e-16
3.77058e-16
7.27239e-18
2.9911e-20
4.55796e-24
1.44896e-29
8.60057e-36
2.54787e-23
4.17291e-25
1.67963e-26
6.45384e-24
2.91858e-21
5.83797e-19
5.12807e-17
1.9813e-15
3.44417e-14
2.62289e-13
1.54636e-12
2.26725e-11
1.39559e-10
5.76472e-10
1.54024e-06
3.56864e-07
5.76711e-05
1.49912e-07
1.02539e-07
4.4555e-09
3.8222e-11
4.81976e-15
8.03792e-18
2.53593e-18
1.10283e-18
2.19141e-20
6.40352e-23
5.89622e-27
1.3271e-32
5.85911e-39
7.17771e-25
6.3413e-27
1.90847e-28
2.26015e-25
1.71499e-22
5.17747e-20
6.41462e-18
3.52326e-16
8.64978e-15
9.65025e-14
1.77228e-12
2.58022e-11
1.08896e-10
3.11743e-10
1.62614e-06
1.66801e-06
1.63529e-05
8.82886e-07
1.4611e-07
0.000922675
8.19077e-11
7.38728e-14
2.23699e-19
6.75371e-21
9.78933e-22
1.88393e-23
4.51424e-26
3.21904e-30
4.71904e-36
1.49998e-42
5.79496e-27
2.46632e-29
7.58998e-31
2.68203e-27
3.69918e-24
1.87257e-21
4.31637e-19
5.09846e-17
1.93849e-15
4.41722e-14
1.32303e-12
1.2302e-11
7.55336e-11
4.66726e-10
1.40941e-08
1.54543e-05
8.66143e-08
0.000377137
5.16925e-05
0.000266509
1.14968e-07
7.01661e-13
7.80836e-21
2.86265e-23
4.66192e-25
4.94987e-27
9.0322e-30
6.11447e-34
6.41643e-40
1.62045e-46
1.07184e-29
1.92214e-32
6.03135e-34
5.77249e-30
1.96728e-26
3.73864e-23
3.09317e-20
5.21043e-18
2.78634e-16
1.31409e-14
3.55958e-13
3.83882e-12
7.07111e-11
3.11901e-09
1.34025e-07
1.5163e-05
3.5992e-06
2.2037e-06
0.000553478
7.32702e-07
8.56617e-11
2.93053e-12
2.26916e-21
1.96906e-25
3.91639e-28
7.62892e-31
6.43666e-34
4.31601e-38
4.23754e-44
1.09584e-50
4.09329e-33
1.37382e-36
4.24736e-38
4.18241e-33
1.3703e-28
7.12516e-25
5.66729e-22
1.37454e-19
1.83401e-17
1.21697e-15
3.45055e-14
1.35689e-12
4.89286e-11
3.71329e-10
7.49956e-10
4.37302e-08
8.13906e-08
1.47151e-06
1.7926e-07
0.000414417
1.30652e-10
3.77328e-12
5.01969e-20
7.36627e-28
5.38351e-31
2.34701e-34
4.53654e-38
1.94317e-42
2.53018e-48
7.72877e-55
2.95624e-39
1.03353e-43
7.81787e-44
3.57419e-37
2.77205e-32
1.97883e-28
4.0399e-25
2.92187e-22
7.18875e-20
6.27937e-18
5.99686e-16
1.56244e-13
1.50072e-11
2.78108e-10
1.40277e-07
2.93571e-09
4.03355e-07
5.53358e-07
3.0176e-05
0.000414095
2.58843e-10
1.89802e-12
1.47358e-19
1.1116e-30
3.8854e-34
7.6688e-38
5.85054e-42
1.27757e-46
1.70549e-52
3.64643e-59
3.86333e-52
1.36335e-57
2.01563e-55
1.06072e-47
2.35587e-42
7.11274e-38
5.32971e-34
1.5368e-30
7.6994e-27
5.68961e-23
1.80225e-19
2.00605e-16
7.20919e-14
7.87908e-12
2.36068e-10
6.36313e-06
3.10748e-05
5.04683e-07
0.000105428
2.0621e-05
2.99399e-10
5.537e-14
1.65453e-20
6.50425e-34
1.16243e-37
1.17326e-41
4.71467e-46
6.46156e-51
6.34588e-57
6.314e-64
1.03813e-77
7.22676e-84
3.10603e-74
1.06369e-65
1.92471e-58
6.54461e-52
6.62961e-46
2.44499e-40
3.58881e-35
2.14107e-30
5.09973e-26
4.64344e-22
1.52681e-18
1.71477e-15
6.1627e-13
5.76398e-11
3.06725e-10
3.93132e-10
2.41185e-10
1.81419e-10
1.0487e-12
3.57663e-17
3.20086e-24
1.43534e-37
1.45657e-41
8.10913e-46
1.79722e-50
1.49309e-55
9.76598e-62
3.25822e-69
1.42416e-113
2.84168e-113
3.41228e-100
2.97685e-90
2.28093e-81
3.80517e-73
2.01852e-65
4.07616e-58
3.42868e-51
1.24067e-44
1.93348e-38
1.27654e-32
3.48224e-27
3.80479e-22
1.57798e-17
6.52795e-14
6.06707e-12
3.95434e-11
2.82408e-11
1.49267e-12
2.51189e-16
1.18588e-22
1.75813e-31
1.13193e-41
7.99174e-46
2.88798e-50
3.93236e-55
1.856e-60
7.34104e-67
4.77858e-75
1
1
1
1
1
1
1
1
1
1
1
1
1
1
1
1
1
1
1
1
1
1
1
1
1
1
1
1
1
1
1
1
1
1
1
1
1
1
1
1
1
1
1
1
1
1
1
1
1
1
1
1
1
1
1
1
1
1
1
1
1
1
1
1
1
1
1
1
1
1
1
1
1
1
1
1
1
1
1
1
1
1
1
1
1
1
1
1
1
1
1
1
1
1
1
1
1
1
1
1
1
1
1
1
1
1
1
1
1
1
1
1
1
1
1
1
1
1
1
1
1
1
1
1
1
1
1
1
1
1
1
1
1
1
1
1
1
1
1
1
1
1
1
1
1
1
1
1
1
1
1
1
1
1
1
1
1
1
1
1
1
1
1
1
1
1
1
1
1
1
1
1
1
1
1
1
1
1
1
1
1
1
1
1
1
1
1
1
1
1
1
1
1
1
1
1
1
1
1
1
1
1
1
1
1
1
1
1
1
1
1
1
1
1
1
1
1
1
1
1
1
1
1
1
1
1
1
1
1
1
1
1
1
1
1
1
1
1
1
1
1
1
1
1
1
1
1
1
1
1
1
1
1
1
1
1
1
1
1
1
1
1
1
1
1
1
1
1
1
1
1
1
1
1
1
1
1
1
1
1
1
1
1
1
1
1
1
1
1
1
1
1
1
1
1
1
1
1
1
1
1
1
1
1
1
1
1
1
1
1
1
1
1
1
1
1
1
1
1
1
1
1
1
1
1
1
1
1
1
0.999767
1
1
1
1
1
1
1
1
1
1
1
1
1
1
1
1
1
1
1
1
1
1
1
1
1
1
1
1
1
1
1
1
1
1
1
1
1
1
1
1
1
1
1
1
1
1
1
1
1
1
1
1
1
1
1
1
1
1
1
1
1
1
1
1
1
1
1
1
1
1
1
1
1
1
1
1
1
1
1
1
1
1
1
1
1
1
1
1
1
1
1
1
1
1
1
1
1
1
1
1
1
1
1
1
1
1
1
1
1
1
1
1
1
1
1
1
1
1
1
1
1
1
1
1
1
1
1
1
1
1
1
1
1
1
1
1
1
1
1
1
1
1
1
1
1
1
1
1
1
1
1
1
1
1
1
1
1
1
1
1
1
1
1
1
1
1
1
1
1
1
1
1
1
1
1
1
1
1
1
1
1
1
1
1
1
1
1
1
1
1
1
1
1
1
1
1
1
1
1
1
1
1
1
1
1
1
1
1
1
1
1
1
1
1
1
1
1
1
1
1
1
1
1
1
1
1
1
1
1
1
0.999978
1
1
1
1
1
1
1
1
1
1
1
1
1
1
1
1
1
1
1
1
1
1
1
1
1
1
1
1
1
1
0.998992
1
1
1
1
1
1
1
1
1
1
1
1
1
1
1
1
1
1
1
1
1
1
1
0.99974
1
1
1
0.999996
1
0.997288
1
1
1
1
1
1
1
1
1
1
1
1
1
1
1
1
1
1
1
1
1
1
1
1
0.999723
0.999287
1
1
1
1
1
1
1
1
1
1
1
1
1
1
1
1
1
1
1
1
1
1
1
1
1
1
1
1
0.999499
0.167457
0.000793436
0.000968086
0.021824
0.72671
1
1
1
1
1
1
1
1
1
1
1
1
1
1
1
1
1
1
1
1
1
1
1
0.997841
0.000236399
7.91707e-07
1.33112e-08
9.67723e-08
1.21378e-06
3.8918e-05
0.0010343
0.909069
1
1
1
1
1
1
1
1
1
1
1
1
1
1
1
1
1
1
1
1
1
0.0460504
1.07288e-07
4.62553e-09
5.19743e-09
5.85476e-09
1.57718e-08
3.10533e-08
2.65477e-07
2.85876e-05
0.00135783
0.642307
1
1
1
1
1
1
1
1
1
1
1
1
1
1
1
1
1
1
0.950488
-1.92301e-06
2.64923e-09
3.9485e-08
4.36989e-09
4.93473e-09
4.93944e-09
4.8908e-09
5.23351e-09
1.17135e-08
1.84218e-07
3.25806e-06
4.79344e-05
0.000484321
0.00145359
0.00291566
1
1
1
1
1
1
1
1
1
1
1
1
1
0.999997
5.91885e-05
1.4394e-09
2.61242e-09
5.41224e-09
2.01152e-08
5.95517e-09
2.80981e-08
2.01992e-08
4.83087e-09
4.92605e-09
5.38218e-09
6.25191e-09
1.29286e-08