/*--------------------------------*- C++ -*----------------------------------*\
| =========                 |                                                 |
| \\      /  F ield         | OpenFOAM: The Open Source CFD Toolbox           |
|  \\    /   O peration     | Version:  2.4.0                                 |
|   \\  /    A nd           | Web:      www.OpenFOAM.org                      |
|    \\/     M anipulation  |                                                 |
\*---------------------------------------------------------------------------*/
FoamFile
{
    version     2.0;
    format      ascii;
    class       surfaceScalarField;
    location    "0.09";
    object      phiAlpha;
}
// * * * * * * * * * * * * * * * * * * * * * * * * * * * * * * * * * * * * * //

dimensions      [0 3 -1 0 0 0 0];

internalField   nonuniform List<scalar> 
7080
(
-2.7467e-08
2.7467e-08
-4.20685e-08
1.46015e-08
-4.3672e-08
1.60352e-09
-3.72253e-08
-6.44678e-09
-2.26586e-08
-1.45667e-08
-6.66558e-10
-2.1992e-08
2.68594e-08
-2.7526e-08
5.83327e-08
-3.14733e-08
9.14006e-08
-3.30678e-08
1.23529e-07
-3.21289e-08
1.53206e-07
-2.96761e-08
1.76425e-07
-2.32195e-08
1.9985e-07
-2.34245e-08
1.87129e-07
1.27204e-08
2.13822e-07
-2.66925e-08
1.50339e-07
6.34831e-08
1.13181e-07
3.71575e-08
7.22595e-08
4.09218e-08
-1.72613e-08
8.9694e-08
-1.05373e-07
8.77845e-08
-2.24411e-07
1.18448e-07
-3.19037e-07
9.50024e-08
-2.62044e-07
-5.68253e-08
-9.55198e-08
-1.66695e-07
4.60312e-08
-1.41705e-07
1.48624e-07
-1.02537e-07
1.96699e-07
-4.9877e-08
1.61307e-07
3.36459e-08
8.11493e-08
8.01623e-08
7.91291e-08
2.02146e-09
-3.81067e-08
6.55738e-08
-6.1026e-08
3.75207e-08
-6.83709e-08
8.94849e-09
-6.56563e-08
-9.16141e-09
-5.21138e-08
-2.81092e-08
-2.78931e-08
-4.62127e-08
5.3082e-09
-6.07272e-08
4.56905e-08
-7.18556e-08
9.01368e-08
-7.7514e-08
1.35752e-07
-7.77445e-08
1.7747e-07
-7.13933e-08
2.16946e-07
-6.26958e-08
2.50084e-07
-5.65623e-08
2.49081e-07
1.3723e-08
2.98263e-07
-7.58738e-08
2.37863e-07
1.23883e-07
1.99893e-07
7.51271e-08
1.85522e-07
5.52924e-08
8.45224e-08
1.90694e-07
-1.00271e-07
2.72258e-07
-2.62783e-07
2.80542e-07
-3.3955e-07
1.71788e-07
-2.64913e-07
-1.31148e-07
-1.59464e-07
-2.72289e-07
-5.82632e-08
-2.43186e-07
2.24721e-08
-1.83271e-07
4.07431e-08
-6.81524e-08
2.60703e-08
4.8411e-08
1.36435e-08
9.26257e-08
9.56948e-08
-2.92025e-09
-3.99611e-08
1.05535e-07
-6.4498e-08
6.20576e-08
-7.32788e-08
1.77293e-08
-7.18978e-08
-1.05424e-08
-5.93545e-08
-4.06525e-08
-3.56425e-08
-6.99247e-08
-2.41403e-09
-9.39557e-08
3.8534e-08
-1.12804e-07
8.38054e-08
-1.22785e-07
1.30507e-07
-1.24446e-07
1.73005e-07
-1.13892e-07
2.15209e-07
-1.049e-07
2.43204e-07
-8.45572e-08
2.60068e-07
-3.1409e-09
3.00038e-07
-1.15844e-07
2.59622e-07
1.64299e-07
2.30552e-07
1.04198e-07
2.18336e-07
6.75082e-08
1.41753e-07
2.67277e-07
-1.59575e-10
4.13457e-07
-1.64052e-07
4.40874e-07
-2.49395e-07
2.57146e-07
-2.13855e-07
-1.66671e-07
-1.59054e-07
-3.27461e-07
-1.01902e-07
-3.00643e-07
-5.28126e-08
-2.32493e-07
-1.43886e-08
-1.06581e-07
8.86452e-09
2.51603e-08
1.37633e-08
8.87471e-08
1.10923e-07
-1.46345e-09
-4.03821e-08
1.45917e-07
-6.52375e-08
8.69129e-08
-7.42931e-08
2.67849e-08
-7.32397e-08
-1.15958e-08
-6.09811e-08
-5.29111e-08
-3.74284e-08
-9.34773e-08
-4.22669e-09
-1.27157e-07
3.69198e-08
-1.5395e-07
8.24531e-08
-1.68319e-07
1.29567e-07
-1.71559e-07
1.72046e-07
-1.56371e-07
2.17322e-07
-1.50176e-07
2.34476e-07
-1.01711e-07
2.74959e-07
-4.3624e-08
2.90498e-07
-1.31382e-07
2.66423e-07
1.88374e-07
2.60832e-07
1.09788e-07
2.33999e-07
9.43418e-08
1.84214e-07
3.17062e-07
7.31713e-08
5.23907e-07
-5.12908e-08
5.64982e-07
-1.17579e-07
3.23453e-07
-1.50463e-07
-1.33932e-07
-1.55885e-07
-3.22098e-07
-1.49707e-07
-3.068e-07
-1.28852e-07
-2.53738e-07
-7.76552e-08
-1.57776e-07
-3.30305e-08
-1.94634e-08
6.07354e-09
5.00041e-08
1.14906e-07
3.63259e-09
-4.06257e-08
1.86543e-07
-6.56012e-08
1.11888e-07
-7.47142e-08
3.5898e-08
-7.37979e-08
-1.25121e-08
-6.16837e-08
-6.50253e-08
-3.82116e-08
-1.16949e-07
-5.03865e-09
-1.6033e-07
3.62742e-08
-1.95263e-07
8.19669e-08
-2.14011e-07
1.2942e-07
-2.19012e-07
1.72057e-07
-1.99009e-07
2.19915e-07
-1.98034e-07
2.27725e-07
-1.0952e-07
2.8603e-07
-1.01929e-07
2.60581e-07
-1.05933e-07
2.60379e-07
1.88576e-07
2.74284e-07
9.58835e-08
2.15722e-07
1.52904e-07
2.08452e-07
3.24331e-07
1.54097e-07
5.77797e-07
5.96789e-08
6.59052e-07
-3.74512e-09
3.86909e-07
-8.17613e-08
-5.58234e-08
-1.54478e-07
-2.49267e-07
-1.76549e-07
-2.84806e-07
-1.58794e-07
-2.71492e-07
-1.15076e-07
-2.01493e-07
-7.33559e-08
-6.11831e-08
-4.14796e-08
1.81679e-08
7.18374e-08
2.24753e-09
-4.08891e-08
2.27432e-07
-6.59723e-08
1.36972e-07
-7.51108e-08
4.50364e-08
-7.4324e-08
-1.32989e-08
-6.23645e-08
-7.69848e-08
-3.89923e-08
-1.40322e-07
-5.88707e-09
-1.93436e-07
3.56088e-08
-2.36759e-07
8.14093e-08
-2.59812e-07
1.2918e-07
-2.66782e-07
1.72473e-07
-2.42302e-07
2.21606e-07
-2.47167e-07
2.27613e-07
-1.15527e-07
2.9248e-07
-1.66797e-07
2.40958e-07
-5.44107e-08
2.49576e-07
1.79957e-07
2.81103e-07
6.43572e-08
2.2374e-07
2.10267e-07
2.60108e-07
2.87963e-07
2.28615e-07
6.09792e-07
1.88031e-07
7.03632e-07
1.4952e-07
4.2674e-07
6.6266e-08
2.73246e-08
-5.20576e-08
-1.30988e-07
-1.43001e-07
-1.93783e-07
-1.71416e-07
-2.43064e-07
-1.38327e-07
-2.34571e-07
-8.45945e-08
-1.14915e-07
-5.83421e-08
-8.08411e-09
1.45246e-08
-1.02901e-09
-4.12017e-08
2.68633e-07
-6.64086e-08
1.62179e-07
-7.55705e-08
5.41984e-08
-7.49366e-08
-1.39329e-08
-6.31655e-08
-8.87559e-08
-3.99207e-08
-1.63566e-07
-6.91097e-09
-2.26445e-07
3.47784e-08
-2.78448e-07
8.07107e-08
-3.05744e-07
1.28804e-07
-3.14875e-07
1.73429e-07
-2.86927e-07
2.21769e-07
-2.95507e-07
2.36895e-07
-1.30654e-07
3.00261e-07
-2.30163e-07
2.57094e-07
-1.12429e-08
2.42566e-07
1.94484e-07
2.96848e-07
1.00755e-08
2.4222e-07
2.64895e-07
2.80006e-07
2.50177e-07
3.1585e-07
5.73948e-07
3.00782e-07
7.20656e-07
2.54389e-07
4.73831e-07
2.12508e-07
6.91236e-08
1.33142e-07
-5.16664e-08
-2.57125e-08
-3.48169e-08
-1.30142e-07
-1.38531e-07
-1.56017e-07
-2.08715e-07
-9.0316e-08
-1.80604e-07
-4.31942e-08
-5.52056e-08
-2.77267e-08
-9.42548e-10
-4.1568e-08
3.10201e-07
-6.69183e-08
1.87529e-07
-7.61049e-08
6.3385e-08
-7.56522e-08
-1.43856e-08
-6.41063e-08
-1.00302e-07
-4.10155e-08
-1.86657e-07
-8.1262e-09
-2.59335e-07
3.37875e-08
-3.20362e-07
7.98583e-08
-3.51815e-07
1.2829e-07
-3.63307e-07
1.74894e-07
-3.33531e-07
2.19238e-07
-3.39851e-07
2.5747e-07
-1.68885e-07
2.9656e-07
-2.69253e-07
3.02391e-07
-1.70739e-08
2.552e-07
2.41675e-07
2.96821e-07
-3.15453e-08
2.60954e-07
3.00762e-07
2.50939e-07
2.60192e-07
3.49886e-07
4.75002e-07
3.90628e-07
6.79916e-07
3.71687e-07
4.92769e-07
3.0995e-07
1.30716e-07
2.32854e-07
2.53587e-08
1.32148e-07
6.60107e-08
3.86602e-09
-1.02832e-08
-9.75935e-08
-1.07238e-07
-8.88003e-08
-1.89382e-07
-2.78459e-08
-1.1616e-07
-5.46532e-08
-9.19053e-10
-4.19895e-08
3.52191e-07
-6.75028e-08
2.13042e-07
-7.67148e-08
7.25969e-08
-7.64726e-08
-1.46278e-08
-6.51897e-08
-1.11585e-07
-4.22795e-08
-2.09567e-07
-9.53701e-09
-2.92077e-07
3.26328e-08
-3.62532e-07
7.88297e-08
-3.98012e-07
1.27706e-07
-4.12183e-07
1.76141e-07
-3.81966e-07
2.1651e-07
-3.8022e-07
2.7556e-07
-2.27935e-07
2.74254e-07
-2.67947e-07
3.1808e-07
-6.08998e-08
3.10829e-07
2.48926e-07
3.22648e-07
-4.33643e-08
3.3865e-07
2.84759e-07
2.68921e-07
3.29922e-07
3.29602e-07
4.1432e-07
4.30794e-07
5.78724e-07
4.45074e-07
4.78485e-07
3.76789e-07
1.98992e-07
2.91314e-07
1.10826e-07
2.51627e-07
1.05718e-07
1.80051e-07
6.13004e-08
9.44987e-08
-2.17296e-08
1.49058e-08
-1.09828e-07
-4.60776e-10
-1.00761e-07
-5.53204e-08
2.09035e-10
-4.24668e-08
3.94658e-07
-6.81625e-08
2.38738e-07
-7.7399e-08
8.18334e-08
-7.73972e-08
-1.46295e-08
-6.64163e-08
-1.22566e-07
-4.37138e-08
-2.3227e-07
-1.11464e-08
-3.24644e-07
3.12966e-08
-4.04975e-07
7.75998e-08
-4.44315e-07
1.27111e-07
-4.61695e-07
1.76391e-07
-4.31246e-07
2.18707e-07
-4.22535e-07
2.77801e-07
-2.87029e-07
2.68585e-07
-2.58732e-07
3.23287e-07
-1.15602e-07
3.77554e-07
1.9466e-07
3.35366e-07
-1.17663e-09
3.53427e-07
2.66698e-07
3.03526e-07
3.79823e-07
2.83962e-07
4.33884e-07
3.51237e-07
5.11448e-07
3.87347e-07
4.42376e-07
3.62157e-07
2.24182e-07
3.24271e-07
1.48712e-07
2.59758e-07
1.70231e-07
2.02285e-07
1.18774e-07
1.90834e-07
-1.02787e-08
1.40239e-07
-5.92878e-08
6.38012e-08
-2.43437e-08
7.74183e-09
7.46451e-10
-4.3001e-08
4.37659e-07
-6.88977e-08
2.64635e-07
-7.81561e-08
9.10917e-08
-7.84254e-08
-1.43601e-08
-6.77867e-08
-1.33204e-07
-4.53199e-08
-2.54737e-07
-1.29588e-08
-3.57005e-07
2.97953e-08
-4.47729e-07
7.61449e-08
-4.90664e-07
1.26438e-07
-5.11987e-07
1.7621e-07
-4.81019e-07
2.23714e-07
-4.70039e-07
2.71075e-07
-3.3439e-07
2.91461e-07
-2.79118e-07
3.49758e-07
-1.73898e-07
3.91215e-07
1.53202e-07
3.22407e-07
6.76317e-08
3.33372e-07
2.55732e-07
3.1327e-07
3.99925e-07
2.5612e-07
4.91035e-07
2.98554e-07
4.69014e-07
3.11138e-07
4.29792e-07
2.6445e-07
2.7087e-07
2.42465e-07
1.70698e-07
2.57421e-07
1.55275e-07
2.63876e-07
1.12319e-07
1.78626e-07
7.49704e-08
6.41723e-08
5.5088e-08
1.92884e-08
2.05373e-08
2.18943e-08
5.13796e-09
-4.3593e-08
4.81252e-07
-6.97089e-08
2.9075e-07
-7.89842e-08
1.00367e-07
-7.95564e-08
-1.37879e-08
-6.93016e-08
-1.43459e-07
-4.70987e-08
-2.76939e-07
-1.49772e-08
-3.89127e-07
2.81205e-08
-4.90826e-07
7.4435e-08
-5.36979e-07
1.25599e-07
-5.63151e-07
1.7649e-07
-5.3191e-07
2.26274e-07
-5.19823e-07
2.6869e-07
-3.76806e-07
3.18846e-07
-3.29274e-07
3.55328e-07
-2.10381e-07
3.73859e-07
1.34671e-07
3.38187e-07
1.03304e-07
3.22244e-07
2.71675e-07
3.11198e-07
4.10972e-07
2.90659e-07
5.11573e-07
2.65731e-07
4.93942e-07
2.6222e-07
4.33303e-07
3.21434e-07
2.11656e-07
3.60249e-07
1.31883e-07
3.40924e-07
1.74599e-07
2.46429e-07
2.06814e-07
1.13896e-07
2.07503e-07
3.1664e-08
1.37254e-07
6.5759e-09
4.56189e-08
3.0874e-08
-2.40183e-09
-4.4244e-08
5.25496e-07
-7.05965e-08
3.17103e-07
-7.98812e-08
1.09652e-07
-8.07893e-08
-1.28799e-08
-7.09615e-08
-1.53287e-07
-4.9052e-08
-2.98849e-07
-1.72041e-08
-4.20975e-07
2.62507e-08
-5.34281e-07
7.24338e-08
-5.83162e-07
1.24627e-07
-6.15344e-07
1.77139e-07
-5.84422e-07
2.25207e-07
-5.67892e-07
2.7945e-07
-4.3105e-07
3.24813e-07
-3.74636e-07
3.55395e-07
-2.40964e-07
3.65933e-07
1.24134e-07
3.43422e-07
1.25815e-07
3.32597e-07
2.825e-07
3.09e-07
4.34569e-07
2.62717e-07
5.57856e-07
2.67124e-07
4.89535e-07
3.23003e-07
3.77424e-07
2.8339e-07
2.51269e-07
1.89902e-07
2.25371e-07
8.66208e-08
2.77881e-07
2.65701e-08
2.66865e-07
3.10003e-08
2.0307e-07
4.65733e-08
1.21666e-07
2.31481e-08
6.9031e-08
5.78785e-08
-3.85165e-09
-4.49554e-08
5.70451e-07
-7.15609e-08
3.43708e-07
-8.08443e-08
1.18935e-07
-8.21225e-08
-1.16017e-08
-7.27675e-08
-1.62642e-07
-5.11816e-08
-3.20435e-07
-1.96409e-08
-4.52516e-07
2.41789e-08
-5.78101e-07
7.01405e-08
-6.29124e-07
1.23626e-07
-6.6883e-07
1.77326e-07
-6.38122e-07
2.24271e-07
-6.14836e-07
2.86968e-07
-4.93746e-07
3.26639e-07
-4.14307e-07
3.30823e-07
-2.45148e-07
3.59598e-07
9.53589e-08
3.87582e-07
9.783e-08
3.77058e-07
2.93024e-07
3.38466e-07
4.73161e-07
3.47994e-07
5.48329e-07
3.49942e-07
4.87586e-07
3.07215e-07
4.20152e-07
2.73234e-07
2.85249e-07
2.66327e-07
2.32278e-07
2.70764e-07
2.73444e-07
2.87913e-07
2.49715e-07
2.6736e-07
2.23623e-07
1.78448e-07
2.10495e-07
7.53632e-08
1.72102e-07
1.36546e-07
-3.26791e-09
-4.57286e-08
6.1618e-07
-7.26028e-08
3.70582e-07
-8.18698e-08
1.28202e-07
-8.35549e-08
-9.91663e-09
-7.47198e-08
-1.71477e-07
-5.3489e-08
-3.41666e-07
-2.22887e-08
-4.83716e-07
2.18899e-08
-6.2228e-07
6.7581e-08
-6.74815e-07
1.2265e-07
-7.23899e-07
1.76757e-07
-6.92228e-07
2.22854e-07
-6.60934e-07
2.93134e-07
-5.64026e-07
3.00711e-07
-4.21885e-07
3.18233e-07
-2.62669e-07
4.24606e-07
-1.10143e-08
4.46369e-07
7.6067e-08
4.87071e-07
2.52322e-07
4.83546e-07
4.76687e-07
4.8591e-07
5.45964e-07
4.81564e-07
4.91932e-07
4.52655e-07
4.49061e-07
4.11783e-07
3.26122e-07
3.5373e-07
2.90331e-07
3.13732e-07
3.13441e-07
2.38041e-07
3.25407e-07
1.18461e-07
3.43203e-07
2.83011e-08
3.00631e-07
1.90434e-09
1.98574e-07
1.3729e-07
1.18364e-09
-4.65652e-08
6.62745e-07
-7.37226e-08
3.9774e-07
-8.29524e-08
1.37432e-07
-8.50848e-08
-7.78424e-09
-7.68194e-08
-1.79742e-07
-5.5976e-08
-3.62509e-07
-2.51474e-08
-5.14545e-07
1.93794e-08
-6.66806e-07
6.47943e-08
-7.20229e-07
1.21756e-07
-7.80861e-07
1.74317e-07
-7.44788e-07
2.25689e-07
-7.12306e-07
2.71897e-07
-6.10235e-07
3.02067e-07
-4.52054e-07
3.58261e-07
-3.18863e-07
4.79945e-07
-1.32698e-07
4.81506e-07
7.45056e-08
4.60508e-07
2.7332e-07
4.26561e-07
5.10634e-07
3.79291e-07
5.93234e-07
2.77814e-07
5.9341e-07
1.14135e-07
6.12741e-07
-9.50435e-08
5.353e-07
-1.93467e-07
3.88754e-07
-1.6665e-07
2.86624e-07
-1.36655e-07
2.95409e-07
-1.33174e-07
3.39724e-07
-1.01791e-07
2.69315e-07
-5.02828e-08
1.47108e-07
8.63065e-08
7.015e-10
-4.7467e-08
7.10212e-07
-7.49211e-08
4.25194e-07
-8.40844e-08
1.46595e-07
-8.67111e-08
-5.15759e-09
-7.90669e-08
-1.87387e-07
-5.86445e-08
-3.82931e-07
-2.82155e-08
-5.44974e-07
1.66208e-08
-7.11643e-07
6.18244e-08
-7.65433e-07
1.20674e-07
-8.3971e-07
1.71282e-07
-7.95397e-07
2.2387e-07
-7.64893e-07
2.40059e-07
-6.26424e-07
3.37808e-07
-5.49804e-07
4.24573e-07
-4.05628e-07
4.34363e-07
-1.42488e-07
3.39012e-07
1.69857e-07
2.54221e-07
3.58111e-07
2.31974e-07
5.32881e-07
2.61107e-07
5.64101e-07
2.83627e-07
5.7089e-07
2.8679e-07
6.09578e-07
1.92455e-07
6.29634e-07
5.47762e-08
5.26434e-07
-3.9362e-08
3.80762e-07
-9.46887e-08
3.50738e-07
-8.76864e-08
3.32739e-07
-4.75257e-08
2.29154e-07
-1.87704e-08
1.18353e-07
6.82306e-08
-6.9828e-10
-4.84359e-08
7.58648e-07
-7.61989e-08
4.52957e-07
-8.52607e-08
1.55657e-07
-8.84325e-08
-1.98575e-09
-8.14628e-08
-1.94356e-07
-6.14967e-08
-4.02897e-07
-3.14907e-08
-5.7498e-07
1.35835e-08
-7.56717e-07
5.86818e-08
-8.10531e-07
1.19068e-07
-9.00096e-07
1.68844e-07
-8.45173e-07
2.12633e-07
-8.08683e-07
2.46981e-07
-6.60772e-07
3.54015e-07
-6.56837e-07
4.02705e-07
-4.54318e-07
3.80759e-07
-1.20542e-07
3.73717e-07
1.76896e-07
4.63899e-07
2.67929e-07
4.34091e-07
5.62689e-07
3.71238e-07
6.26954e-07
2.92144e-07
6.49984e-07
3.16681e-07
5.85041e-07
3.6418e-07
5.82135e-07
3.03518e-07
5.87096e-07
2.06833e-07
4.77447e-07
1.40115e-07
4.17458e-07
1.17794e-07
3.55063e-07
9.70014e-08
2.49946e-07
5.40385e-08
1.61315e-07
1.25785e-07
-3.52867e-09
-4.94741e-08
8.08122e-07
-7.7557e-08
4.8104e-07
-8.64789e-08
1.64579e-07
-9.02471e-08
1.78245e-09
-8.40087e-08
-2.00595e-07
-6.45358e-08
-4.2237e-07
-3.49697e-08
-6.04546e-07
1.02319e-08
-8.01918e-07
5.53358e-08
-8.55635e-07
1.16875e-07
-9.61635e-07
1.66993e-07
-8.95291e-07
1.98406e-07
-8.40095e-07
2.76564e-07
-7.3893e-07
3.3458e-07
-7.14854e-07
3.96584e-07
-5.16324e-07
5.15674e-07
-2.39646e-07
5.21735e-07
1.70833e-07
3.97658e-07
3.92007e-07
4.74207e-08
9.12926e-07
9.92624e-09
6.64449e-07
5.80818e-08
6.01828e-07
-3.88954e-08
6.82018e-07
-7.17229e-08
6.14963e-07
-2.23039e-08
5.37677e-07
6.21434e-08
3.93e-07
1.31474e-07
3.48127e-07
1.7242e-07
3.14116e-07
1.56426e-07
2.6594e-07
8.83749e-08
2.29366e-07
2.15889e-07
-1.73408e-09
-5.05841e-08
8.58706e-07
-7.8996e-08
5.09452e-07
-8.77365e-08
1.73319e-07
-9.21532e-08
6.19912e-09
-8.67049e-08
-2.06043e-07
-6.77645e-08
-4.41311e-07
-3.86469e-08
-6.33663e-07
6.52023e-09
-8.47086e-07
5.17532e-08
-9.00868e-07
1.14422e-07
-1.0243e-06
1.64721e-07
-9.4559e-07
1.93755e-07
-8.6913e-07
2.61899e-07
-8.07073e-07
3.25945e-07
-7.78893e-07
4.78799e-07
-6.69178e-07
5.27374e-07
-2.2664e-07
3.48624e-07
2.94405e-07
4.40949e-07
2.67033e-07
4.15888e-07
9.38467e-07
4.76144e-07
6.04192e-07
5.87363e-07
4.90609e-07
3.85447e-07
8.83935e-07
1.12708e-07
8.87702e-07
4.78615e-09
6.45598e-07
2.07463e-08
3.77039e-07
8.4973e-08
2.83899e-07
1.32509e-07
2.66579e-07
1.3115e-07
2.67299e-07
7.61188e-08
2.84396e-07
2.88633e-07
3.36896e-09
-5.17684e-08
9.10474e-07
-8.05172e-08
5.38201e-07
-8.90405e-08
1.81843e-07
-9.41488e-08
1.13074e-08
-8.95522e-08
-2.1064e-07
-7.11876e-08
-4.59675e-07
-4.25124e-08
-6.62338e-07
2.39192e-09
-8.9199e-07
4.79763e-08
-9.46453e-07
1.11638e-07
-1.08797e-06
1.59985e-07
-9.93937e-07
1.90281e-07
-8.99425e-07
2.23488e-07
-8.40271e-07
3.24575e-07
-8.79759e-07
2.13827e-07
-1.71018e-07
1.56877e-07
-6.2496e-08
7.23155e-08
2.20403e-07
2.4523e-11
2.97908e-07
3.45883e-07
5.77972e-07
3.49155e-07
5.8179e-07
3.87123e-07
4.45668e-07
6.29261e-07
6.41796e-07
6.5528e-07
8.61683e-07
4.30446e-07
8.70432e-07
2.31999e-07
5.75487e-07
1.22557e-07
3.93341e-07
8.74412e-08
3.01695e-07
8.16046e-08
2.7302e-07
4.78319e-08
3.18145e-07
3.30238e-07
6.22241e-09
-5.30298e-08
9.63504e-07
-8.21215e-08
5.67292e-07
-9.04075e-08
1.90129e-07
-9.62319e-08
1.71318e-08
-9.25515e-08
-2.1432e-07
-7.48089e-08
-4.77418e-07
-4.65456e-08
-6.90602e-07
-1.19919e-09
-9.37336e-07
4.3966e-08
-9.91618e-07
1.06174e-07
-1.15017e-06
1.47726e-07
-1.03549e-06
1.76158e-07
-9.2785e-07
2.07906e-07
-8.71776e-07
1.83642e-07
-4.42845e-07
-1.36584e-08
-2.1812e-10
-1.99392e-07
6.18167e-09
-3.77851e-07
3.66306e-08
-3.63737e-07
1.60004e-07
-3.13548e-07
4.76733e-07
-3.30821e-07
5.48299e-07
-8.50268e-08
1.72044e-07
2.53997e-07
2.93546e-07
5.42902e-07
5.61986e-07
4.89116e-07
9.24205e-07
2.90226e-07
7.74377e-07
1.11267e-07
5.72299e-07
3.19931e-08
3.80968e-07
2.5313e-08
2.79665e-07
1.65147e-08
3.26882e-07
3.40087e-07
6.66826e-09
-5.43716e-08
1.01788e-06
-8.38103e-08
5.96731e-07
-9.18319e-08
1.9815e-07
-9.84005e-08
2.37004e-08
-9.57034e-08
-2.17017e-07
-7.86346e-08
-4.94487e-07
-5.07334e-08
-7.18503e-07
-4.87019e-09
-9.83199e-07
3.86275e-08
-1.03512e-06
9.10195e-08
-1.20257e-06
1.22116e-07
-1.06658e-06
1.71907e-07
-9.77427e-07
1.4475e-07
-3.98432e-07
2.01494e-08
-9.2331e-08
1.37744e-08
2.42498e-09
1.2091e-09
2.18162e-09
-1.10944e-07
-1.34112e-09
-3.81236e-07
1.30106e-07
-4.51799e-07
4.53356e-07
-2.16852e-07
3.25843e-07
-4.31515e-08
-1.71744e-09
1.10781e-08
2.39277e-07
3.19349e-07
2.55076e-07
4.61456e-07
7.8424e-07
3.28171e-07
9.07664e-07
1.69255e-07
7.31214e-07
7.03986e-08
4.79824e-07
2.17261e-08
3.28303e-07
6.486e-09
3.42091e-07
3.40016e-07
6.56447e-09
-5.57962e-08
1.07367e-06
-8.55842e-08
6.26519e-07
-9.3306e-08
2.05872e-07
-1.0065e-07
3.10441e-08
-9.90084e-08
-2.18659e-07
-8.26714e-08
-5.10824e-07
-5.5066e-08
-7.46108e-07
-9.08037e-09
-1.02919e-06
2.69764e-08
-1.07117e-06
5.45049e-08
-1.23009e-06
8.78084e-08
-1.09987e-06
1.05416e-07
-4.34509e-07
8.97325e-08
-5.0357e-08
1.06818e-09
-3.45032e-09
9.39069e-10
3.85412e-10
-1.54627e-08
1.62962e-08
-2.63081e-07
4.64874e-09
-3.23338e-07
-2.33237e-07
-2.22715e-07
1.1545e-07
-1.6534e-07
2.40662e-07
-1.93642e-08
-1.51278e-07
1.43643e-07
8.15338e-08
2.51836e-07
1.52689e-07
3.77572e-07
6.58551e-07
3.05666e-07
9.79539e-07
1.85497e-07
8.51336e-07
8.43746e-08
5.80951e-07
2.15741e-08
3.91069e-07
2.71079e-09
3.61057e-07
3.37791e-07
4.93393e-09
-5.73197e-08
1.13099e-06
-8.74467e-08
6.56646e-07
-9.48254e-08
2.13251e-07
-1.0298e-07
3.9199e-08
-1.0247e-07
-2.19169e-07
-8.69276e-08
-5.26366e-07
-5.95375e-08
-7.73498e-07
-1.44915e-08
-1.07423e-06
-5.37317e-09
-1.08029e-06
-8.72235e-09
-1.22674e-06
1.36652e-07
-8.21379e-07
4.89282e-08
-7.74494e-08
3.19336e-09
-4.3832e-09
9.12823e-11
-3.09022e-10
1.04644e-10
1.98002e-10
-1.50128e-09
3.79318e-09
-4.62362e-09
-6.84736e-10
-1.92992e-07
-2.8898e-08
-3.06739e-07
-6.85434e-08
-2.78231e-07
1.2758e-07
-2.08952e-07
-2.20268e-07
5.24871e-08
-1.79643e-07
1.28184e-07
7.60942e-08
2.0469e-07
5.70719e-07
2.01785e-07
9.8171e-07
1.41098e-07
9.12028e-07
7.18798e-08
6.50173e-07
1.58e-08
4.47115e-07
-1.62267e-10
3.77075e-07
3.3518e-07
2.38374e-09
-5.87715e-08
1.18976e-06
-8.93891e-08
6.87264e-07
-9.63776e-08
2.20239e-07
-1.05377e-07
4.81986e-08
-1.06074e-07
-2.18472e-07
-9.1407e-08
-5.41033e-07
-6.42134e-08
-8.00692e-07
-2.53985e-08
-1.11305e-06
-7.28152e-08
-1.0327e-06
1.95783e-10
-1.29949e-06
7.35902e-08
-2.71161e-07
4.12157e-09
-7.62989e-09
3.03262e-10
-5.36126e-10
2.8091e-11
-2.54592e-11
1.35763e-10
5.37751e-11
6.04253e-10
2.94421e-10
-7.01155e-10
-1.57627e-09
-1.96953e-08
-4.85011e-09
-3.53115e-07
-3.46134e-08
-3.99715e-07
-6.75828e-08
-3.48111e-07
-2.71583e-07
-1.20107e-07
-4.07349e-07
-1.08684e-08
-3.29974e-08
7.84082e-08
4.80132e-07
1.31661e-07
9.30241e-07
1.2065e-07
9.22896e-07
8.3672e-08
6.87155e-07
3.29335e-08
4.97981e-07
9.71805e-09
4.00279e-07
3.42028e-07
2.86321e-09
-6.20859e-08
1.25185e-06
-9.14575e-08
7.16635e-07
-9.79949e-08
2.26777e-07
-1.07875e-07
5.80782e-08
-1.09858e-07
-2.16489e-07
-9.62003e-08
-5.5469e-07
-6.98193e-08
-8.27073e-07
-5.67622e-08
-1.1261e-06
-1.30653e-07
-9.49624e-07
1.92465e-07
-6.4501e-07
8.0754e-09
-1.22082e-08
5.49594e-10
-3.08438e-10
2.71889e-11
-1.6679e-11
2.50841e-12
-1.90455e-12
3.2014e-11
1.94042e-11
2.16012e-10
8.31478e-11
1.1475e-09
2.2571e-11
1.1987e-09
5.05111e-11
-6.97808e-08
9.85252e-10
-4.10332e-07
-1.78234e-07
-4.46123e-07
-3.47751e-07
-3.02266e-07
-5.50881e-07
-1.53834e-07
-1.78011e-07
-7.88735e-08
4.03765e-07
2.476e-08
8.19799e-07
4.129e-08
9.06271e-07
4.62523e-08
6.82196e-07
3.00843e-08
5.1421e-07
7.17603e-09
4.23208e-07
3.48015e-07
1.18272e-09
-5.08713e-08
1.30272e-06
-9.35412e-08
7.59305e-07
-9.93164e-08
2.32552e-07
-1.10238e-07
6.89997e-08
-1.13746e-07
-2.12981e-07
-1.01675e-07
-5.66762e-07
-8.04812e-08
-8.48266e-07
-1.23985e-07
-1.0826e-06
2.48803e-07
-1.30387e-06
9.65528e-09
-1.24901e-07
2.31184e-10
-2.88037e-09
1.029e-11
-9.04347e-11
1.20384e-12
-7.36747e-12
3.61441e-13
-1.53223e-12
4.36753e-12
1.49842e-11
4.95057e-11
3.36719e-11
1.0062e-10
5.77951e-11
5.38509e-10
-1.46744e-11
-2.10617e-10
1.06912e-09
-3.60082e-07
-4.00085e-08
-5.03962e-07
-4.07304e-07
-4.53115e-07
-6.00784e-07
-3.30619e-07
-2.95934e-07
-2.36415e-07
3.08183e-07
-1.36938e-07
7.08661e-07
-7.58825e-08
8.45216e-07
-2.35667e-08
6.29881e-07
-2.1777e-09
4.92807e-07
-9.38947e-09
4.2909e-07
3.41656e-07
-3.01481e-09
-1.27721e-07
1.43044e-06
-9.44127e-08
7.25997e-07
-1.03297e-07
2.41436e-07
-1.14293e-07
7.99961e-08
-1.18608e-07
-2.08665e-07
-1.10946e-07
-5.74425e-07
-1.14309e-07
-8.44903e-07
-1.32137e-07
-1.06451e-06
1.38477e-07
-6.29335e-07
2.49382e-09
-1.19075e-08
7.90771e-11
-5.11707e-10
5.56366e-12
-7.93318e-12
5.12887e-13
-3.18681e-12
-5.98809e-14
-1.42823e-12
1.40949e-11
3.73118e-11
1.19945e-11
3.26833e-11
1.83343e-11
3.89425e-11
1.18748e-12
7.9438e-12
6.89727e-10
3.05829e-10
-1.24944e-08
-2.62827e-09
-4.26103e-07
-1.47606e-07
-5.74157e-07
-4.51266e-07
-4.80487e-07
-3.88284e-07
-3.20662e-07
1.59063e-07
-2.60274e-07
6.52114e-07
-1.57885e-07
7.42828e-07
-8.63551e-08
5.58352e-07
-3.91068e-08
4.456e-07
-2.16162e-08
4.11069e-07
3.24275e-07
-4.22062e-09
1.4202e-07
1.28842e-06
-1.07769e-07
9.75786e-07
-9.46213e-08
2.28288e-07
-1.11084e-07
9.64589e-08
-1.23601e-07
-1.96149e-07
-1.42612e-07
-5.55413e-07
-2.86692e-07
-6.98008e-07
4.12805e-07
-1.62703e-06
9.34215e-09
-8.49659e-08
4.24526e-10
-2.83054e-09
8.49875e-12
-9.11601e-11
6.98939e-13
-6.3734e-13
-1.18126e-14
-4.11798e-12
-7.2585e-12
-2.98317e-12
1.38878e-12
3.70784e-11
4.97824e-12
2.24141e-11
6.5853e-12
2.84515e-11
3.86466e-12
1.73111e-11
3.05625e-10
5.78952e-12
-4.56285e-09
2.08194e-09
-3.31886e-07
-5.91033e-08
-6.11189e-07
-3.27356e-07
-4.87096e-07
-5.12348e-07
-3.62937e-07
3.60107e-08
-3.26496e-07
6.19483e-07
-1.94582e-07
6.10914e-07
-1.18999e-07
4.8277e-07
-6.40913e-08
3.90002e-07
-2.50391e-08
3.72088e-07
-7.10731e-10
2.9876e-07
-8.00037e-08
8.20268e-08
-1.60697e-07
8.06937e-08
-1.97615e-07
3.51112e-08
-1.51912e-07
-4.74793e-08
-4.90988e-08
-1.02709e-07
9.03375e-08
-1.39557e-07
2.58348e-07
-1.68145e-07
3.18728e-07
-6.01077e-08
2.25507e-07
9.35169e-08
1.06378e-07
1.18516e-07
1.73601e-08
8.86857e-08
-7.22302e-08
8.97629e-08
-1.13184e-07
4.09538e-08
-1.50431e-07
3.72466e-08
-2.13801e-07
6.33706e-08
-1.87743e-07
-2.60581e-08
-1.9945e-07
1.17066e-08
-1.76665e-07
-2.27845e-08
-1.52976e-07
-2.36896e-08
-1.23487e-07
-2.94887e-08
-9.1268e-08
-3.2219e-08
-5.82953e-08
-3.29728e-08
-2.67802e-08
-3.15151e-08
7.27462e-10
-2.75077e-08
2.2683e-08
-2.19555e-08
3.71998e-08
-1.45169e-08
4.35948e-08
-6.39496e-09
4.19541e-08
1.64072e-09
2.74109e-08
1.45431e-08
2.7411e-08
-1.65106e-08
9.56182e-08
-2.63967e-08
9.05669e-08
-4.14772e-08
5.02964e-08
-2.35942e-08
-6.53635e-08
5.64611e-08
-1.82777e-07
1.55809e-07
-2.39194e-07
2.61113e-07
-2.73448e-07
3.37852e-07
-1.36506e-07
2.62312e-07
1.69083e-07
9.88957e-08
2.81464e-07
-8.52345e-08
2.7249e-07
-1.8514e-07
1.89668e-07
-1.99896e-07
5.571e-08
-2.37884e-07
7.52347e-08
-2.98111e-07
1.23598e-07
-2.497e-07
-7.44696e-08
-2.49469e-07
1.14761e-08
-2.17143e-07
-5.51104e-08
-1.77169e-07
-6.36637e-08
-1.35642e-07
-7.10155e-08
-8.99546e-08
-7.79064e-08
-4.56036e-08
-7.73238e-08
-5.20432e-09
-7.19143e-08
2.7955e-08
-6.06671e-08
5.21158e-08
-4.61163e-08
6.5595e-08
-2.79961e-08
6.826e-08
-9.06001e-09
6.08859e-08
9.01489e-09
3.80439e-08
3.73851e-08
6.54549e-08
-1.47191e-08
1.08874e-07
-8.00746e-09
8.48436e-08
1.53636e-08
2.69255e-08
5.57298e-08
-1.05731e-07
1.05425e-07
-2.32632e-07
1.60767e-07
-2.94931e-07
2.13979e-07
-3.27206e-07
2.48233e-07
-1.70845e-07
1.62883e-07
2.5446e-07
4.43007e-10
4.40421e-07
-1.40986e-07
4.13172e-07
-2.17627e-07
2.6631e-07
-2.30209e-07
6.8291e-08
-2.59491e-07
1.04517e-07
-2.99507e-07
1.63614e-07
-2.60669e-07
-1.13308e-07
-2.42493e-07
-6.70013e-09
-2.15403e-07
-8.22002e-08
-1.72699e-07
-1.06367e-07
-1.30386e-07
-1.13329e-07
-8.36174e-08
-1.24675e-07
-3.84137e-08
-1.22528e-07
2.52654e-09
-1.12854e-07
3.57046e-08
-9.38452e-08
5.93529e-08
-6.97645e-08
7.18305e-08
-4.04737e-08
7.31631e-08
-1.03926e-08
6.43547e-08
1.78234e-08
3.98975e-08
6.18422e-08
1.05352e-07
-5.97467e-10
1.1465e-07
3.49838e-08
4.96881e-08
7.91067e-08
-1.71962e-08
1.29869e-07
-1.56492e-07
1.51718e-07
-2.54789e-07
1.58093e-07
-3.01316e-07
1.52006e-07
-3.21131e-07
1.16924e-07
-1.35856e-07
5.03031e-08
3.21107e-07
-7.30649e-08
5.63456e-07
-1.83329e-07
5.22876e-07
-2.32724e-07
3.15705e-07
-2.60704e-07
9.62703e-08
-2.65828e-07
1.09641e-07
-2.8954e-07
1.87327e-07
-2.75426e-07
-1.27423e-07
-2.33751e-07
-4.83753e-08
-2.17501e-07
-9.84503e-08
-1.71748e-07
-1.5212e-07
-1.29445e-07
-1.55632e-07
-8.22627e-08
-1.71857e-07
-3.68078e-08
-1.67983e-07
4.34121e-09
-1.54003e-07
3.74922e-08
-1.26996e-07
6.09797e-08
-9.32521e-08
7.31718e-08
-5.26658e-08
7.4176e-08
-1.13968e-08
6.50927e-08
2.69067e-08
4.0318e-08
8.66169e-08
1.4567e-07
4.40535e-08
7.35323e-08
7.36813e-08
2.01103e-08
1.16302e-07
-5.98163e-08
1.60348e-07
-2.00537e-07
1.76799e-07
-2.71239e-07
1.56208e-07
-2.80771e-07
8.24139e-08
-2.47305e-07
3.21695e-09
-5.65913e-08
-6.05678e-08
3.84907e-07
-1.54726e-07
6.57286e-07
-2.08776e-07
5.76458e-07
-2.13399e-07
3.20328e-07
-2.72652e-07
1.55524e-07
-2.59728e-07
9.67173e-08
-2.59022e-07
1.8662e-07
-2.86438e-07
-1.00006e-07
-2.27105e-07
-1.07708e-07
-2.20087e-07
-1.05468e-07
-1.7177e-07
-2.00437e-07
-1.29297e-07
-1.98105e-07
-8.1778e-08
-2.19376e-07
-3.61626e-08
-2.13598e-07
5.15352e-09
-1.95319e-07
3.82765e-08
-1.60119e-07
6.16828e-08
-1.16658e-07
7.37296e-08
-6.47127e-08
7.45959e-08
-1.22631e-08
6.54549e-08
3.60478e-08
4.05611e-08
1.11511e-07
1.86232e-07
5.63783e-08
1.61253e-08
8.31612e-08
-6.67216e-09
1.38656e-07
-1.15311e-07
1.72011e-07
-2.33881e-07
1.43575e-07
-2.42782e-07
5.44079e-08
-1.91537e-07
-6.59163e-08
-1.2693e-07
-1.50631e-07
2.80117e-08
-1.88524e-07
4.24117e-07
-2.28323e-07
7.00953e-07
-2.59832e-07
6.08433e-07
-2.22326e-07
2.82823e-07
-2.80655e-07
2.13852e-07
-2.49083e-07
6.51449e-08
-2.40274e-07
1.77811e-07
-2.93e-07
-4.72798e-08
-2.2726e-07
-1.73448e-07
-2.21772e-07
-1.10957e-07
-1.72198e-07
-2.5001e-07
-1.29054e-07
-2.4125e-07
-8.12203e-08
-2.67209e-07
-3.54781e-08
-2.5934e-07
6.0017e-09
-2.36799e-07
3.90582e-08
-1.93176e-07
6.23639e-08
-1.39964e-07
7.42552e-08
-7.6604e-08
7.49912e-08
-1.29992e-08
6.58243e-08
4.52148e-08
4.08238e-08
1.36511e-07
2.27055e-07
4.21477e-08
-2.69647e-08
9.06409e-08
-5.5165e-08
1.56221e-07
-1.80881e-07
1.31274e-07
-2.08971e-07
2.71738e-08
-1.38553e-07
-1.3186e-07
-3.23866e-08
-2.13302e-07
-4.5523e-08
-2.54406e-07
6.90361e-08
-3.00532e-07
4.70962e-07
-3.15977e-07
7.18424e-07
-2.78652e-07
5.71107e-07
-2.39414e-07
2.43584e-07
-2.9585e-07
2.70288e-07
-2.43229e-07
1.25248e-08
-2.57776e-07
1.92358e-07
-3.01164e-07
-3.89205e-09
-2.36865e-07
-2.37747e-07
-2.21919e-07
-1.25903e-07
-1.7316e-07
-2.98769e-07
-1.28676e-07
-2.85734e-07
-8.05221e-08
-3.15363e-07
-3.46488e-08
-3.05214e-07
7.02557e-09
-2.78473e-07
3.99877e-08
-2.26138e-07
6.31652e-08
-1.63141e-07
7.48673e-08
-8.83061e-08
7.54493e-08
-1.35812e-08
6.62584e-08
5.44058e-08
4.11356e-08
1.61634e-07
2.68191e-07
2.74162e-08
-5.52996e-08
8.95137e-08
-1.17262e-07
9.65453e-08
-1.87897e-07
-7.68212e-09
-1.04725e-07
-1.37957e-07
-8.34033e-09
-2.37242e-07
6.7024e-08
-3.10366e-07
2.75526e-08
-3.71099e-07
1.29611e-07
-3.89385e-07
4.89245e-07
-3.49087e-07
6.7813e-07
-2.50406e-07
4.72426e-07
-2.59904e-07
2.53082e-07
-2.95494e-07
3.05878e-07
-2.56502e-07
-2.64676e-08
-3.0394e-07
2.39796e-07
-2.97581e-07
-1.02514e-08
-2.57664e-07
-2.77664e-07
-2.19333e-07
-1.64233e-07
-1.74617e-07
-3.43485e-07
-1.28162e-07
-3.32189e-07
-7.96692e-08
-3.63856e-07
-3.36557e-08
-3.51227e-07
8.24079e-09
-3.2037e-07
4.10836e-08
-2.58981e-07
6.41064e-08
-1.86164e-07
7.55822e-08
-9.97819e-08
7.59818e-08
-1.39808e-08
6.67655e-08
6.36221e-08
4.15011e-08
1.86898e-07
3.09692e-07
2.32864e-09
-5.74162e-08
-1.13764e-08
-1.03526e-07
-9.10258e-08
-1.08282e-07
-1.77591e-07
-1.82055e-08
-2.50727e-07
6.48037e-08
-2.92067e-07
1.08387e-07
-3.75749e-07
1.11227e-07
-4.44683e-07
1.98534e-07
-4.30869e-07
4.75427e-07
-3.29013e-07
5.76274e-07
-2.68872e-07
4.12286e-07
-3.38245e-07
3.22455e-07
-3.21149e-07
2.88781e-07
-3.12026e-07
-3.55906e-08
-3.19176e-07
2.46946e-07
-2.7473e-07
-5.46971e-08
-2.75621e-07
-2.76773e-07
-2.16551e-07
-2.23303e-07
-1.75834e-07
-3.84202e-07
-1.27573e-07
-3.8045e-07
-7.86409e-08
-4.12789e-07
-3.24963e-08
-3.97372e-07
9.65164e-09
-3.62518e-07
4.23488e-08
-2.91678e-07
6.51902e-08
-2.09005e-07
7.64017e-08
-1.10993e-07
7.65894e-08
-1.41686e-08
6.73471e-08
7.28645e-08
4.19215e-08
2.12324e-07
3.51614e-07
-6.33207e-08
6.65877e-09
-1.43126e-07
-2.37324e-08
-1.896e-07
-6.18696e-08
-1.99211e-07
-8.59427e-09
-2.59253e-07
1.24846e-07
-3.25456e-07
1.7459e-07
-3.61118e-07
1.46889e-07
-3.83502e-07
2.20918e-07
-3.50423e-07
4.42348e-07
-2.83564e-07
5.09415e-07
-3.01485e-07
4.30207e-07
-3.48699e-07
3.6967e-07