/*--------------------------------*- C++ -*----------------------------------*\
| =========                 |                                                 |
| \\      /  F ield         | OpenFOAM: The Open Source CFD Toolbox           |
|  \\    /   O peration     | Version:  2.4.0                                 |
|   \\  /    A nd           | Web:      www.OpenFOAM.org                      |
|    \\/     M anipulation  |                                                 |
\*---------------------------------------------------------------------------*/
FoamFile
{
    version     2.0;
    format      ascii;
    class       surfaceScalarField;
    location    "0.072";
    object      phiAlpha;
}
// * * * * * * * * * * * * * * * * * * * * * * * * * * * * * * * * * * * * * //

dimensions      [0 3 -1 0 0 0 0];

internalField   nonuniform List<scalar> 
28560
(
-3.97051e-09
1.01878e-08
-6.21725e-09
8.00049e-09
-1.11999e-08
3.19936e-09
1.3727e-08
-1.55776e-08
1.85061e-09
1.5669e-08
-1.60667e-08
3.97718e-10
1.62169e-08
-1.60908e-08
-1.26086e-10
1.53044e-08
-1.38288e-08
-1.4756e-09
1.15076e-08
-8.56141e-09
-2.94615e-09
4.78692e-09
-6.28294e-10
-4.15863e-09
-4.17467e-09
9.0089e-09
-4.83423e-09
-1.41039e-08
1.89498e-08
-4.84586e-09
-2.40306e-08
2.88951e-08
-4.86451e-09
-3.41016e-08
3.90707e-08
-4.96908e-09
-4.4162e-08
4.86153e-08
-4.45332e-09
-5.26756e-08
5.5734e-08
-3.05846e-09
-5.799e-08
5.91559e-08
-1.16593e-09
-5.93509e-08
5.86003e-08
7.50523e-10
-5.69232e-08
5.45995e-08
2.32374e-09
-5.15388e-08
4.8197e-08
3.34179e-09
-4.43794e-08
4.06129e-08
3.76647e-09
-3.66258e-08
3.29291e-08
3.69669e-09
-2.92168e-08
2.59163e-08
3.30044e-09
-2.2715e-08
1.99503e-08
2.76466e-09
-1.73326e-08
1.51141e-08
2.21846e-09
-1.3044e-08
1.13114e-08
1.73259e-09
-9.70741e-09
8.37064e-09
1.33677e-09
-7.1362e-09
6.10569e-09
1.03051e-09
-5.14911e-09
4.34392e-09
8.05183e-10
-3.58847e-09
2.94332e-09
6.45149e-10
-2.32801e-09
1.79264e-09
5.35371e-10
-1.27131e-09
8.09517e-10
4.61792e-10
-1.70628e-08
2.41303e-08
-7.06746e-09
1.40215e-08
-1.99631e-08
-8.47562e-09
1.44172e-08
2.52384e-08
-2.97962e-08
-5.68005e-09
1.02379e-08
3.23159e-08
-3.51876e-08
-2.47651e-09
5.34824e-09
3.77942e-08
-3.9681e-08
-9.9718e-10
2.884e-09
4.0352e-08
-3.93374e-08
2.89611e-09
-3.91075e-09
3.63374e-08
-3.15158e-08
7.56234e-09
-1.2384e-08
2.44928e-08
-1.61091e-08
1.17159e-08
-2.00996e-08
5.85393e-09
4.89192e-09
1.43406e-08
-2.50865e-08
-1.67827e-08
2.83678e-08
1.49858e-08
-2.65709e-08
-4.07111e-08
5.25139e-08
1.51954e-08
-2.69982e-08
-6.50043e-08
7.68132e-08
1.53431e-08
-2.7152e-08
-8.89847e-08
9.99558e-08
1.39984e-08
-2.49695e-08
-1.10602e-07
1.1957e-07
1.05809e-08
-1.95498e-08
-1.27616e-07
1.33813e-07
5.8955e-09
-1.20929e-08
-1.38749e-07
1.41922e-07
9.66207e-10
-4.13919e-09
-1.43712e-07
1.44011e-07
-3.39272e-09
3.09363e-09
-1.42948e-07
1.40753e-07
-6.69168e-09
8.88694e-09
-1.37328e-07
1.3316e-07
-8.73542e-09
1.29033e-08
-1.27962e-07
1.22406e-07
-9.59406e-09
1.51502e-08
-1.16056e-07
1.0968e-07
-9.52243e-09
1.58986e-08
-1.0273e-07
9.60024e-08
-8.87808e-09
1.56055e-08
-8.88778e-08
8.21353e-08
-7.96432e-09
1.47068e-08
-7.5122e-08
6.85897e-08
-6.98287e-09
1.35152e-08
-6.18751e-08
5.56817e-08
-6.06095e-09
1.22544e-08
-4.93762e-08
4.36031e-08
-5.24151e-09
1.10145e-08
-3.77602e-08
3.24383e-08
-4.55025e-09
9.87219e-09
-2.70794e-08
2.22158e-08
-3.9782e-09
8.84173e-09
-1.73343e-08
1.29151e-08
-3.51239e-09
7.93162e-09
-8.48669e-09
4.49107e-09
-3.13005e-09
7.12567e-09
-3.12543e-08
3.8395e-08
-7.14078e-09
1.45603e-08
-2.07831e-08
-2.05706e-08
2.67933e-08
2.6374e-08
-3.12973e-08
-1.50579e-08
1.99812e-08
3.41378e-08
-3.74611e-08
-8.54174e-09
1.1865e-08
4.05886e-08
-4.30019e-08
-5.13242e-09
7.5457e-09
4.41913e-08
-4.35935e-08
4.65007e-09
-5.24784e-09
4.09212e-08
-3.62799e-08
1.71072e-08
-2.17484e-08
2.93171e-08
-2.08733e-08
2.85605e-08
-3.70043e-08
1.04715e-08
4.16048e-10
3.59775e-08
-4.68651e-08
-1.25733e-08
2.43356e-08
3.83375e-08
-5.00998e-08
-3.68373e-08
4.87661e-08
3.89539e-08
-5.08826e-08
-6.13951e-08
7.33633e-08
3.91236e-08
-5.10919e-08
-8.57243e-08
9.69034e-08
3.61306e-08
-4.73097e-08
-1.07782e-07
1.16995e-07
2.87519e-08
-3.79649e-08
-1.25313e-07
1.31808e-07
1.85918e-08
-2.50868e-08
-1.37087e-07
1.40625e-07
7.69462e-09
-1.12324e-08
-1.42854e-07
1.43617e-07
-2.32611e-09
1.56345e-09
-1.43095e-07
1.41462e-07
-1.05366e-08
1.21697e-08
-1.38659e-07
1.351e-07
-1.65157e-08
2.00749e-08
-1.30541e-07
1.2557e-07
-2.02156e-08
2.51861e-08
-1.19793e-07
1.13902e-07
-2.19103e-08
2.7801e-08
-1.07387e-07
1.0099e-07
-2.21355e-08
2.85326e-08
-9.4119e-08
8.75228e-08
-2.14305e-08
2.80267e-08
-8.05639e-08
7.39896e-08
-2.01969e-08
2.67712e-08
-6.7138e-08
6.07319e-08
-1.87395e-08
2.51455e-08
-5.41253e-08
4.80022e-08
-1.71846e-08
2.33077e-08
-4.17347e-08
3.59675e-08
-1.56569e-08
2.1424e-08
-3.01081e-08
2.47497e-08
-1.41955e-08
1.95539e-08
-1.9338e-08
1.44152e-08
-1.28369e-08
1.77597e-08
-9.46466e-09
4.98854e-09
-1.15795e-08
1.60556e-08
-4.55406e-08
5.26869e-08
-7.1463e-09
1.46244e-08
-2.08866e-08
-3.30417e-08
3.9304e-08
2.65174e-08
-3.15302e-08
-2.49559e-08
2.99687e-08
3.43083e-08
-3.77186e-08
-1.52451e-08
1.86554e-08
4.09536e-08
-4.35051e-08
-1.00421e-08
1.25936e-08
4.48309e-08
-4.43469e-08
5.7754e-09
-6.25939e-09
4.17744e-08
-3.71933e-08
2.63505e-08
-3.09317e-08
3.02634e-08
-2.18071e-08
4.54494e-08
-5.39057e-08
1.13627e-08
-3.77615e-10
5.78118e-08
-6.87969e-08
-1.17877e-08
2.35671e-08
6.18672e-08
-7.36466e-08
-3.60507e-08
4.79629e-08
6.27978e-08
-7.471e-08
-6.05986e-08
7.26334e-08
6.3086e-08
-7.51207e-08
-8.51211e-08
9.6456e-08
5.85475e-08
-6.98824e-08
-1.07494e-07
1.16862e-07
4.7229e-08
-5.65964e-08
-1.25293e-07
1.31888e-07
3.15994e-08
-3.81938e-08
-1.37206e-07
1.40736e-07
1.47317e-08
-1.82616e-08
-1.42922e-07
1.43587e-07
-8.81932e-10
2.17679e-10
-1.42902e-07
1.4107e-07
-1.39245e-08
1.57574e-08
-1.38014e-07
1.34178e-07
-2.37769e-08
2.7613e-08
-1.29303e-07
1.24026e-07
-3.02937e-08
3.55707e-08
-1.17937e-07
1.11775e-07
-3.37935e-08
3.9956e-08
-1.05012e-07
9.84255e-08
-3.49797e-08
4.1566e-08
-9.14077e-08
8.47288e-08
-3.46174e-08
4.12963e-08
-7.77405e-08
7.11933e-08
-3.32893e-08
3.98365e-08
-6.4423e-08
5.814e-08
-3.14565e-08
3.77396e-08
-5.17035e-08
4.57734e-08
-2.93109e-08
3.5241e-08
-3.97351e-08
3.42032e-08
-2.70602e-08
3.25921e-08
-2.86035e-08
2.34976e-08
-2.47804e-08
2.98863e-08
-1.83527e-08
1.36805e-08
-2.25563e-08
2.72285e-08
-8.98768e-09
4.74744e-09
-2.04152e-08
2.46555e-08
-5.98338e-08
6.69804e-08
-7.14662e-09
1.46526e-08
-2.09348e-08
-4.55764e-08
5.18586e-08
2.65787e-08
-3.16689e-08
-3.50181e-08
4.01084e-08
3.42952e-08
-3.77542e-08
-2.20892e-08
2.55481e-08
4.10507e-08
-4.37059e-08
-1.5195e-08
1.78502e-08
4.5129e-08
-4.47252e-08
6.70479e-09
-7.10863e-09
4.22268e-08
-3.76882e-08
3.54931e-08
-4.00318e-08
3.07827e-08
-2.23042e-08
6.2373e-08
-7.08515e-08
1.18068e-08
-7.45549e-10
7.98179e-08
-9.08791e-08
-1.14764e-08
2.32774e-08
8.54348e-08
-9.72357e-08
-3.57407e-08
4.76236e-08
8.66057e-08
-9.84886e-08
-6.02737e-08
7.24232e-08
8.7209e-08
-9.93585e-08
-8.51143e-08
9.67071e-08
8.1336e-08
-9.29288e-08
-1.08028e-07
1.17691e-07
6.60981e-08
-7.57614e-08
-1.26375e-07
1.3325e-07
4.49126e-08
-5.17881e-08
-1.3878e-07
1.42494e-07
2.18697e-08
-2.55836e-08
-1.44847e-07
1.45614e-07
4.82776e-10
-1.24962e-09
-1.44987e-07
1.4316e-07
-1.76062e-08
1.94329e-08
-1.40053e-07
1.36102e-07
-3.15279e-08
3.54788e-08
-1.31042e-07
1.25539e-07
-4.09779e-08
4.64807e-08
-1.19177e-07
1.12734e-07
-4.6273e-08
5.2716e-08
-1.05669e-07
9.88008e-08
-4.82999e-08
5.51676e-08
-9.15069e-08
8.45904e-08
-4.80947e-08
5.50112e-08
-7.73866e-08
7.06726e-08
-4.64591e-08
5.31732e-08
-6.37688e-08
5.73991e-08
-4.40506e-08
5.04203e-08
-5.09135e-08
4.49734e-08
-4.11551e-08
4.70952e-08
-3.89586e-08
3.34768e-08
-3.8075e-08
4.35568e-08
-2.79533e-08
2.2937e-08
-3.49225e-08
3.99388e-08
-1.78991e-08
1.33355e-08
-3.18222e-08
3.63857e-08
-8.76033e-09
4.63143e-09
-2.88175e-08
3.29464e-08
-7.41258e-08
8.12706e-08
-7.14476e-09
1.4683e-08
-2.09865e-08
-5.81509e-08
6.44544e-08
2.6644e-08
-3.18315e-08
-4.52443e-08
5.04319e-08
3.42508e-08
-3.77671e-08
-2.90346e-08
3.25508e-08
4.11349e-08
-4.39184e-08
-2.0566e-08
2.33495e-08
4.54607e-08
-4.51561e-08
7.46581e-09
-7.77047e-09
4.27532e-08
-3.82718e-08
4.45435e-08
-4.90249e-08
3.14041e-08
-2.2903e-08
7.93409e-08
-8.7842e-08
1.23421e-08
-1.18539e-09
1.01985e-07
-1.13142e-07
-1.11076e-08
2.29399e-08
1.09052e-07
-1.20884e-07
-3.53666e-08
4.72018e-08
1.10351e-07
-1.22186e-07
-5.98576e-08
7.21429e-08
1.11575e-07
-1.2386e-07
-8.50974e-08
9.7029e-08
1.0468e-07
-1.16612e-07
-1.08711e-07
1.1877e-07
8.56098e-08
-9.56681e-08
-1.27772e-07
1.35041e-07
5.8845e-08
-6.6114e-08
-1.40846e-07
1.44827e-07
2.94224e-08
-3.34039e-08
-1.47441e-07
1.48386e-07
2.09941e-09
-3.0447e-09
-1.47904e-07
1.4618e-07
-2.12158e-08
2.29403e-08
-1.43119e-07
1.39145e-07
-3.94469e-08
4.34205e-08
-1.33989e-07
1.2834e-07
-5.2057e-08
5.77063e-08
-1.21778e-07
1.15121e-07
-5.92676e-08
6.59247e-08
-1.07817e-07
1.0072e-07
-6.21524e-08
6.92496e-08
-9.3186e-08
8.60509e-08
-6.2038e-08
6.9173e-08
-7.86318e-08
7.17288e-08
-5.9981e-08
6.68839e-08
-6.46455e-08
5.81244e-08
-5.68617e-08
6.33827e-08
-5.14992e-08
4.54455e-08
-5.3085e-08
5.91387e-08
-3.93294e-08
3.37658e-08
-4.90677e-08
5.46314e-08
-2.81707e-08
2.30998e-08
-4.49704e-08
5.00412e-08
-1.80151e-08
1.34144e-08
-4.09551e-08
4.55558e-08
-8.80667e-09
4.65273e-09
-3.70779e-08
4.12318e-08
-8.8414e-08
9.55555e-08
-7.14147e-09
1.4721e-08
-2.10496e-08
-7.07706e-08
7.70993e-08
2.67261e-08
-3.20367e-08
-5.56779e-08
6.09885e-08
3.41931e-08
-3.77815e-08
-3.61011e-08
3.96895e-08
4.12364e-08
-4.41812e-08
-2.62092e-08
2.91539e-08
4.58711e-08
-4.56902e-08
8.0162e-09
-8.19715e-09
4.34066e-08
-3.89972e-08
5.34727e-08
-5.78821e-08
3.21785e-08
-2.36487e-08
9.63571e-08
-1.04887e-07
1.30066e-08
-1.72457e-09
1.24358e-07
-1.3564e-07
-1.06601e-08
2.2535e-08
1.32737e-07
-1.44612e-07
-3.49135e-08
4.66773e-08
1.33986e-07
-1.4575e-07
-5.93193e-08
7.17722e-08
1.36224e-07
-1.48677e-07
-8.50503e-08
9.74121e-08
1.28747e-07
-1.41109e-07
-1.09538e-07
1.20099e-07
1.05964e-07
-1.16524e-07
-1.2947e-07
1.3727e-07
7.36303e-08
-8.14303e-08
-1.43381e-07
1.47709e-07
3.75489e-08
-4.18768e-08
-1.50666e-07
1.51836e-07
4.09715e-09
-5.26688e-09
-1.51547e-07
1.49985e-07
-2.45936e-08
2.61553e-08
-1.47026e-07
1.43053e-07
-4.73981e-08
5.13711e-08
-1.37803e-07
1.31999e-07
-6.34321e-08
6.92367e-08
-1.25222e-07
1.18331e-07
-7.26929e-08
7.95843e-08
-1.10765e-07
1.03418e-07
-7.64677e-08
8.38146e-08
-9.56276e-08
8.82608e-08
-7.64197e-08
8.37865e-08
-8.06106e-08
7.35006e-08
-7.38862e-08
8.09962e-08
-6.62124e-08
5.95117e-08
-6.99912e-08
7.66918e-08
-5.271e-08
4.64998e-08
-6.52668e-08
7.1477e-08
-4.02282e-08
3.45213e-08
-6.02514e-08
6.59584e-08
-2.87759e-08
2.35685e-08
-5.51613e-08
6.03687e-08
-1.83547e-08
1.36478e-08
-5.02019e-08
5.49088e-08
-8.94514e-09
4.71712e-09
-4.54376e-08
4.96656e-08
-1.02695e-07
1.09832e-07
-7.13706e-09
1.47643e-08
-2.112e-08
-8.34405e-08
8.97962e-08
2.6821e-08
-3.22825e-08
-6.63704e-08
7.18319e-08
3.41122e-08
-3.77893e-08
-4.33199e-08
4.6997e-08
4.13468e-08
-4.44887e-08
-3.21925e-08
3.53344e-08
4.63554e-08
-4.63225e-08
8.30725e-09
-8.34019e-09
4.41832e-08
-3.9862e-08
6.22487e-08
-6.65699e-08
3.31065e-08
-2.45432e-08
1.13432e-07
-1.21996e-07
1.38016e-08
-2.36184e-09
1.46995e-07
-1.58435e-07
-1.01373e-08
2.20695e-08
1.56514e-07
-1.68446e-07
-3.43801e-08
4.60271e-08
1.57458e-07
-1.69105e-07
-5.86288e-08
7.12723e-08
1.61225e-07
-1.73868e-07
-8.49372e-08
9.78288e-08
1.53721e-07
-1.66613e-07
-1.1048e-07
1.21658e-07
1.27378e-07
-1.38556e-07
-1.3143e-07
1.39929e-07
8.95552e-08
-9.80543e-08
-1.46357e-07
1.51122e-07
4.64093e-08
-5.11741e-08
-1.5452e-07
1.55947e-07
6.56222e-09
-7.98969e-09
-1.55903e-07
1.54578e-07
-2.76088e-08
2.89337e-08
-1.5178e-07
1.47833e-07
-5.53342e-08
5.92815e-08
-1.42482e-07
1.36483e-07
-7.51339e-08
8.11331e-08
-1.29438e-07
1.22254e-07
-8.66122e-08
9.37961e-08
-1.14367e-07
1.06718e-07
-9.13057e-08
9.89553e-08
-9.8616e-08
9.09698e-08
-9.12857e-08
9.89319e-08
-8.3048e-08
7.56908e-08
-8.82203e-08
9.55775e-08
-6.81571e-08
6.12428e-08
-8.34972e-08
9.04115e-08
-5.42367e-08
4.78404e-08
-7.77775e-08
8.41739e-08
-4.13847e-08
3.55124e-08
-7.17241e-08
7.75965e-08
-2.95693e-08
2.41528e-08
-6.55826e-08
7.0999e-08
-1.8748e-08
1.3912e-08
-5.96782e-08
6.45141e-08
-9.10865e-09
4.79628e-09
-5.40181e-08
5.83305e-08
-1.16966e-07
1.24096e-07
-7.13038e-09
1.48126e-08
-2.11965e-08
-9.61661e-08
1.0255e-07
2.69289e-08
-3.25732e-08
-7.73807e-08
8.3025e-08
3.40045e-08
-3.77886e-08
-5.07253e-08
5.45094e-08
4.14643e-08
-4.48411e-08
-3.8589e-08
4.19658e-08
4.69137e-08
-4.70538e-08
8.28952e-09
-8.14943e-09
4.50848e-08
-4.08686e-08
7.08411e-08
-7.50574e-08
3.41929e-08
-2.55915e-08
1.30577e-07
-1.39179e-07
1.47296e-08
-3.09495e-09
1.69968e-07
-1.81602e-07
-9.54646e-09
2.15519e-08
1.80414e-07
-1.92419e-07
-3.37611e-08
4.52412e-08
1.80676e-07
-1.92156e-07
-5.77493e-08
7.06138e-08
1.8662e-07
-1.99484e-07
-8.47315e-08
9.82684e-08
1.79812e-07
-1.93349e-07
-1.11528e-07
1.23446e-07
1.50089e-07
-1.62007e-07
-1.33633e-07
1.43048e-07
1.06982e-07
-1.16398e-07
-1.49749e-07
1.55079e-07
5.62025e-08
-6.15323e-08
-1.59033e-07
1.6073e-07
9.55198e-09
-1.12489e-08
-1.60978e-07
1.59999e-07
-3.01016e-08
3.10807e-08
-1.57463e-07
1.53573e-07
-6.32047e-08
6.70944e-08
-1.48095e-07
1.4185e-07
-8.7245e-08
9.34897e-08
-1.34466e-07
1.26909e-07
-1.0115e-07
1.08707e-07
-1.18623e-07
1.106e-07
-1.06788e-07
1.1481e-07
-1.02116e-07
9.41277e-08
-1.06739e-07
1.14727e-07
-8.58771e-08
7.82355e-08
-1.0307e-07
1.10712e-07
-7.04091e-08
6.32203e-08
-9.74439e-08
1.04633e-07
-5.5955e-08
4.93549e-08
-9.0687e-08
9.72871e-08
-4.27141e-08
3.66828e-08
-8.35648e-08
8.95962e-08
-3.06191e-08
2.51321e-08
-7.63636e-08
8.18505e-08
-1.96356e-08
1.46507e-08
-6.94429e-08
7.44278e-08
-9.62885e-09
5.0673e-09
-6.27988e-08
6.73603e-08
-1.31222e-07
1.38343e-07
-7.12061e-09
1.4869e-08
-2.12821e-08
-1.08949e-07
1.15362e-07
2.70546e-08
-3.29189e-08
-8.87744e-08
9.46387e-08
3.38704e-08
-3.77826e-08
-5.83549e-08
6.22671e-08
4.15951e-08
-4.52464e-08
-4.5475e-08
4.91264e-08
4.75553e-08
-4.78934e-08
7.91373e-09
-7.5756e-09
4.61209e-08
-4.2027e-08
7.92148e-08
-8.33086e-08
3.54503e-08
-2.68049e-08
1.47802e-07
-1.56447e-07
1.57976e-08
-3.92213e-09
1.93352e-07
-2.05227e-07
-8.8969e-09
2.09951e-08
2.0447e-07
-2.16568e-07
-3.30784e-08
4.43123e-08
2.03522e-07
-2.14756e-07
-5.66595e-08
6.9768e-08
2.12467e-07
-2.25575e-07
-8.44185e-08
9.87372e-08
2.07259e-07
-2.21578e-07
-1.12695e-07
1.25475e-07
1.74342e-07
-1.87122e-07
-1.36098e-07
1.46677e-07
1.26365e-07
-1.36944e-07
-1.53557e-07
1.59629e-07
6.72094e-08
-7.32815e-08
-1.64278e-07
1.66208e-07
1.30703e-08
-1.49999e-08
-1.66801e-07
1.66337e-07
-3.18296e-08
3.2293e-08
-1.64211e-07
1.6042e-07
-7.09445e-08
7.47354e-08
-1.54773e-07
1.4821e-07
-9.98765e-08
1.06439e-07
-1.40388e-07
1.32353e-07
-1.16472e-07
1.24506e-07
-1.2357e-07
1.15076e-07
-1.23059e-07
1.31554e-07
-1.06155e-07
9.77434e-08
-1.22899e-07
1.3131e-07
-8.90583e-08
8.11124e-08
-1.18551e-07
1.26497e-07
-7.30025e-08
6.54759e-08
-1.11892e-07
1.19419e-07
-5.78387e-08
5.09521e-08
-1.04042e-07
1.10928e-07
-4.40649e-08
3.78221e-08
-9.57991e-08
1.02042e-07
-3.15477e-08
2.58422e-08
-8.75373e-08
9.32427e-08
-2.01041e-08
1.49124e-08
-7.9501e-08
8.46927e-08
-9.73346e-09
5.09543e-09
-7.18713e-08
7.65093e-08
-1.45458e-07
1.52567e-07
-7.10851e-09
1.49304e-08
-2.13717e-08
-1.21789e-07
1.2823e-07
2.71934e-08
-3.33189e-08
-1.00628e-07
1.06753e-07
3.3699e-08
-3.77617e-08
-6.62514e-08
7.03141e-08
4.17312e-08
-4.56968e-08
-5.29295e-08
5.68952e-08
4.82719e-08
-4.88337e-08
7.12876e-09
-6.56701e-09
4.72853e-08
-4.33331e-08
8.73339e-08
-9.12862e-08
3.68791e-08
-2.81871e-08
1.65115e-07
-1.73807e-07
1.70085e-08
-4.84001e-09
2.17241e-07
-2.2941e-07
-8.19795e-09
2.04163e-08
2.28723e-07
-2.40941e-07
-3.2331e-08
4.32139e-08
2.25827e-07
-2.3671e-07
-5.53032e-08
6.86799e-08
2.38815e-07
-2.52192e-07
-8.39354e-08
9.92051e-08
2.3635e-07
-2.51619e-07
-1.13961e-07
1.27697e-07
2.00369e-07
-2.14105e-07
-1.38838e-07
1.50787e-07
1.48188e-07
-1.60136e-07
-1.57781e-07
1.64765e-07
7.97891e-08
-8.67725e-08
-1.70293e-07
1.72318e-07
1.70034e-08
-1.90291e-08
-1.73289e-07
1.73636e-07
-3.24014e-08
3.20548e-08
-1.72164e-07
1.68516e-07
-7.84725e-08
8.21201e-08
-1.62624e-07
1.55639e-07
-1.13197e-07
1.20183e-07
-1.4724e-07
1.3861e-07
-1.32797e-07
1.41427e-07
-1.29188e-07
1.20141e-07
-1.403e-07
1.49346e-07
-1.10679e-07
1.01785e-07
-1.39914e-07
1.48807e-07
-9.26423e-08
8.42221e-08
-1.34722e-07
1.43142e-07
-7.57214e-08
6.80379e-08
-1.27025e-07
1.34708e-07
-6.02695e-08
5.31087e-08
-1.17881e-07
1.25042e-07
-4.58563e-08
3.93134e-08
-1.08458e-07
1.15001e-07
-3.27846e-08
2.68861e-08
-9.89742e-08
1.04873e-07
-2.09731e-08
1.56195e-08
-8.99395e-08
9.52931e-08
-1.02453e-08
5.37175e-09
-8.13423e-08
8.62158e-08
-1.59667e-07
1.6676e-07
-7.0925e-09
1.49972e-08
-2.14643e-08
-1.34685e-07
1.41152e-07
2.73461e-08
-3.37789e-08
-1.13026e-07
1.19459e-07
3.34845e-08
-3.77214e-08
-7.44608e-08
7.86976e-08
4.18701e-08
-4.61924e-08
-6.10339e-08
6.53562e-08
4.90641e-08
-4.98751e-08
5.88382e-09
-5.07286e-09
4.85792e-08
-4.479e-08
9.51598e-08
-9.8949e-08
3.84881e-08
-2.97479e-08
1.82524e-07
-1.91264e-07
1.83678e-08
-5.8458e-09
2.41747e-07
-2.54269e-07
-7.46514e-09
1.9837e-08
2.53233e-07
-2.65605e-07
-3.15341e-08
4.19299e-08
2.47371e-07
-2.57767e-07
-5.3626e-08
6.72905e-08
2.6571e-07
-2.79374e-07
-8.32405e-08
9.96677e-08
2.6744e-07
-2.83867e-07
-1.15327e-07
1.30067e-07
2.28341e-07
-2.43081e-07
-1.41937e-07
1.55321e-07
1.72807e-07
-1.86191e-07
-1.62521e-07
1.70498e-07
9.42524e-08
-1.02229e-07
-1.77187e-07
1.78948e-07
2.09903e-08
-2.2751e-08
-1.80336e-07
1.82019e-07
-3.1136e-08
2.94528e-08
-1.81567e-07
1.78087e-07
-8.57135e-08
8.91935e-08
-1.71844e-07
1.64241e-07
-1.27428e-07
1.35031e-07
-1.55108e-07
1.45715e-07
-1.50399e-07
1.59792e-07
-1.35424e-07
1.25838e-07
-1.58787e-07
1.68373e-07
-1.15665e-07
1.06201e-07
-1.57942e-07
1.67407e-07
-9.66564e-08
8.77258e-08
-1.5165e-07
1.60581e-07
-7.86512e-08
7.0533e-08
-1.42849e-07
1.50967e-07
-6.2439e-08
5.50666e-08
-1.32431e-07
1.39804e-07
-4.75741e-08
4.07239e-08
-1.21559e-07
1.28409e-07
-3.37859e-08
2.74886e-08
-1.10904e-07
1.17201e-07
-2.1217e-08
1.56323e-08
-1.00702e-07
1.06286e-07
-1.01339e-08
5.26547e-09
-9.10808e-08
9.59492e-08
-1.73842e-07
1.80914e-07
-7.0714e-09
1.50722e-08
-2.15621e-08
-1.47631e-07
1.54121e-07
2.75185e-08
-3.43107e-08
-1.26065e-07
1.32857e-07
3.32286e-08
-3.76645e-08
-8.30312e-08
8.7467e-08
4.20174e-08
-4.67416e-08
-6.98737e-08
7.45979e-08
4.99415e-08
-5.10278e-08
4.12738e-09
-3.04103e-09
5.00132e-08
-4.64088e-08
1.02649e-07
-1.06253e-07
4.02936e-08
-3.15054e-08
2.00029e-07
-2.08817e-07
1.98867e-08
-6.93769e-09
2.66995e-07
-2.79944e-07
-6.7167e-09
1.92913e-08
2.7807e-07
-2.90645e-07
-3.07029e-08
4.04404e-08
2.67859e-07
-2.77596e-07
-5.15727e-08
6.55397e-08
2.93188e-07
-3.07155e-07
-8.22874e-08
1.00143e-07
3.00968e-07
-3.18824e-07
-1.16809e-07
1.3257e-07
2.58329e-07
-2.74091e-07
-1.45529e-07
1.60134e-07
2.00241e-07
-2.14846e-07
-1.68024e-07
1.76902e-07
1.10677e-07
-1.19555e-07
-1.85249e-07
1.85858e-07
2.40954e-08
-2.47042e-08
-1.87777e-07
1.91755e-07
-2.68023e-08
2.28245e-08
-1.92849e-07
1.89472e-07
-9.26481e-08
9.60251e-08
-1.82701e-07
1.74142e-07
-1.42931e-07
1.5149e-07
-1.64071e-07
1.53876e-07
-1.69647e-07
1.79842e-07
-1.42472e-07
1.31715e-07
-1.78584e-07
1.89341e-07
-1.20932e-07
1.11188e-07
-1.77249e-07
1.86993e-07
-1.00994e-07
9.16325e-08
-1.69665e-07
1.79026e-07
-8.22424e-08
7.35921e-08
-1.5919e-07
1.6784e-07
-6.48763e-08
5.70024e-08
-1.47358e-07
1.55232e-07
-4.91428e-08
4.20716e-08
-1.35336e-07
1.42407e-07
-3.50833e-08
2.88902e-08
-1.23492e-07
1.29686e-07
-2.27224e-08
1.70557e-08
-1.12043e-07
1.17709e-07
-1.12391e-08
5.87388e-09
-1.01031e-07
1.06396e-07
-1.87973e-07
1.9502e-07
-7.0463e-09
1.51528e-08
-2.16596e-08
-1.6062e-07
1.67127e-07
2.77086e-08
-3.49147e-08
-1.39849e-07
1.47055e-07
3.29204e-08
-3.75778e-08
-9.20106e-08
9.6668e-08
4.21618e-08
-4.73359e-08
-7.95407e-08
8.47149e-08
5.08957e-08
-5.22835e-08
1.80733e-09
-4.19521e-10
5.1579e-08
-4.81849e-08
1.09755e-07
-1.13149e-07
4.23002e-08
-3.34696e-08
2.17627e-07
-2.26457e-07
2.15712e-08
-8.1123e-09
2.93136e-07
-3.06595e-07
-5.97734e-09
1.88187e-08
3.03343e-07
-3.16185e-07
-2.98697e-08
3.87013e-08
2.86913e-07
-2.95745e-07
-4.90562e-08
6.33255e-08
3.21273e-07
-3.35542e-07
-8.09921e-08
1.00634e-07
3.37519e-07
-3.57162e-07
-1.1832e-07
1.35226e-07
2.90385e-07
-3.07292e-07
-1.49677e-07
1.64563e-07
2.29785e-07
-2.44672e-07
-1.748e-07
1.8446e-07
1.2882e-07
-1.38479e-07
-1.94483e-07
1.92246e-07
2.41365e-08
-2.18994e-08
-1.95432e-07
2.03273e-07
-1.71953e-08
9.35433e-09
-2.06598e-07
2.03169e-07
-9.94146e-08
1.02844e-07
-1.95613e-07
1.8545e-07
-1.60257e-07
1.70419e-07
-1.73639e-07
1.62782e-07
-1.91234e-07
2.02091e-07
-1.51243e-07
1.39226e-07
-1.99702e-07
2.11719e-07
-1.26315e-07
1.15132e-07
-1.97916e-07
2.09099e-07
-1.0452e-07
9.50712e-08
-1.88706e-07
1.98154e-07
-8.52323e-08
7.60995e-08
-1.76557e-07
1.85689e-07
-6.71311e-08
5.91068e-08
-1.63214e-07
1.71239e-07
-5.11059e-08
4.38691e-08
-1.49501e-07
1.56738e-07
-3.65543e-08
2.98671e-08
-1.35916e-07
1.42603e-07
-2.31858e-08
1.71934e-08
-1.23484e-07
1.29477e-07
-1.12122e-08
5.81783e-09
-1.11878e-07
1.17272e-07
-2.02051e-07
2.09065e-07
-7.01468e-09
1.52395e-08
-2.17545e-08
-1.73639e-07
1.80154e-07
2.79206e-08
-3.55977e-08
-1.54489e-07
1.62167e-07
3.25559e-08
-3.74549e-08
-1.01444e-07
1.06343e-07
4.23012e-08
-4.79757e-08
-9.01326e-08
9.58071e-08
5.19277e-08
-5.36428e-08
-1.12882e-09
2.84396e-09
5.32773e-08
-5.01203e-08
1.16429e-07
-1.19586e-07
4.45201e-08
-3.56591e-08
2.35305e-07
-2.44166e-07
2.34329e-08
-9.36812e-09
3.20344e-07
-3.34409e-07
-5.26424e-09
1.84739e-08
3.29198e-07
-3.42407e-07
-2.90761e-08
3.66781e-08
3.04008e-07
-3.1161e-07
-4.59815e-08
6.05294e-08
3.49955e-07
-3.64503e-07
-7.92826e-08
1.01151e-07
3.77863e-07
-3.99731e-07
-1.19788e-07
1.38314e-07
3.24949e-07
-3.43475e-07
-1.54118e-07
1.67135e-07
2.58933e-07
-2.7195e-07
-1.84676e-07
1.94917e-07
1.48558e-07
-1.588e-07
-2.01737e-07
1.95486e-07
1.75201e-08
-1.12684e-08
-2.04575e-07
2.19199e-07
1.49207e-09
-1.61163e-08
-2.24295e-07
2.19816e-07
-1.06601e-07
1.11079e-07
-2.10627e-07
1.9891e-07
-1.80904e-07
1.92622e-07
-1.85056e-07
1.72013e-07
-2.14788e-07
2.27831e-07
-1.59375e-07
1.48075e-07
-2.24306e-07
2.35606e-07
-1.36107e-07
1.23718e-07
-2.18992e-07
2.3138e-07
-1.1049e-07
9.84633e-08
-2.08292e-07
2.20319e-07
-8.75892e-08
7.88326e-08
-1.9516e-07
2.03916e-07
-6.99058e-08
6.15294e-08
-1.79544e-07
1.87921e-07
-5.2927e-08
4.50013e-08
-1.64337e-07
1.72262e-07
-3.70619e-08
2.98455e-08
-1.49695e-07
1.56912e-07
-2.27412e-08
1.65631e-08
-1.35652e-07
1.4183e-07
-1.06308e-08
5.45471e-09
-1.22461e-07
1.27637e-07
-2.16062e-07
2.23038e-07
-6.97615e-09
1.53354e-08
-2.1848e-08
-1.8667e-07
1.93183e-07
2.8166e-08
-3.63741e-08
-1.70102e-07
1.7831e-07
3.21369e-08
-3.72926e-08
-1.11369e-07
1.16525e-07
4.24384e-08
-4.8669e-08
-1.01753e-07
1.07983e-07
5.30474e-08
-5.51166e-08
-4.73277e-09
6.802e-09
5.51168e-08
-5.2228e-08
1.22613e-07
-1.25502e-07
4.69764e-08
-3.81033e-08
2.53036e-07
-2.61909e-07
2.54903e-08
-1.0707e-08
3.48819e-07
-3.63602e-07
-4.62019e-09
1.83339e-08
3.5585e-07
-3.69563e-07
-2.8394e-08
3.43277e-08
3.18441e-07
-3.24374e-07
-4.22344e-08
5.70012e-08
3.79171e-07
-3.93938e-07
-7.71326e-08
1.01516e-07
4.22842e-07
-4.47226e-07
-1.21957e-07
1.40855e-07
3.6265e-07
-3.81548e-07
-1.59284e-07
1.68898e-07
2.83301e-07
-2.92914e-07
-1.99257e-07
2.05452e-07
1.68017e-07
-1.74212e-07
-1.9601e-07
1.96485e-07
5.48433e-09
-5.95965e-09
-2.24044e-07
2.4707e-07
3.49327e-08
-5.79589e-08
-2.51377e-07
2.43319e-07
-1.16377e-07
1.24434e-07
-2.28366e-07
2.12111e-07
-2.06408e-07
2.22664e-07
-1.96623e-07
1.83614e-07
-2.42437e-07
2.55446e-07
-1.68958e-07
1.534e-07
-2.49177e-07
2.64734e-07
-1.3794e-07
1.25631e-07
-2.44382e-07
2.56691e-07
-1.14159e-07
1.04426e-07
-2.30174e-07
2.39907e-07
-9.3939e-08
8.36108e-08
-2.13064e-07
2.23392e-07
-7.29262e-08
6.37901e-08
-1.96432e-07
2.05569e-07
-5.49142e-08
4.71535e-08
-1.79921e-07
1.87682e-07
-3.95562e-08
3.27829e-08
-1.63991e-07
1.70765e-07
-2.58745e-08
1.93619e-08
-1.48244e-07
1.54757e-07
-1.26167e-08
6.47783e-09
-1.33162e-07
1.39301e-07
-2.29993e-07
2.36923e-07
-6.93087e-09
1.54385e-08
-2.19318e-08
-1.99687e-07
2.06181e-07
2.84487e-08
-3.72475e-08
-1.86805e-07
1.95604e-07
3.16528e-08
-3.70724e-08
-1.21812e-07
1.27231e-07
4.25627e-08
-4.94077e-08
-1.14513e-07
1.21358e-07
5.42466e-08
-5.66987e-08
-9.05873e-09
1.15109e-08
5.7086e-08
-5.45031e-08
1.28243e-07
-1.30826e-07
4.96778e-08
-4.08231e-08
2.70777e-07
-2.79632e-07
2.77574e-08
-1.21286e-08
3.7879e-07
-3.94419e-07
-4.08754e-09
1.8496e-08
3.83597e-07
-3.98005e-07
-2.79185e-08
3.15994e-08
3.29265e-07
-3.32946e-07
-3.76437e-08
5.25183e-08
4.08773e-07
-4.23648e-07
-7.4424e-08
1.01666e-07
4.72934e-07
-5.00176e-07
-1.25265e-07
1.40613e-07
3.98829e-07
-4.14177e-07
-1.66491e-07
1.75366e-07
3.01195e-07
-3.1007e-07
-2.08811e-07
2.08344e-07
1.76207e-07
-1.7574e-07
-1.91379e-07
2.16812e-07
1.90152e-08
-4.44483e-08
-2.52102e-07
2.7228e-07
8.17682e-08
-1.01946e-07
-2.76522e-07
2.6843e-07
-1.34357e-07
1.42448e-07
-2.4934e-07
2.2847e-07
-2.39563e-07
2.60433e-07
-2.06948e-07
1.86949e-07
-2.71204e-07
2.91202e-07
-1.67694e-07
1.53395e-07
-2.78885e-07
2.93184e-07
-1.41743e-07
1.31812e-07
-2.69771e-07
2.79702e-07
-1.19277e-07
1.06405e-07
-2.5151e-07
2.64382e-07
-9.39286e-08
8.37912e-08
-2.34783e-07
2.4492e-07
-7.39086e-08
6.52804e-08
-2.14977e-07
2.23605e-07
-5.62168e-08
4.83003e-08
-1.95448e-07
2.03365e-07
-4.03103e-08
3.34706e-08
-1.77291e-07
1.8413e-07
-2.6696e-08
2.03848e-08
-1.6125e-07
1.67561e-07
-1.35804e-08
7.057e-09
-1.45942e-07
1.52465e-07
-2.43828e-07
2.50705e-07
-6.87686e-09
1.55493e-08
-2.20017e-08
-2.12657e-07
2.19109e-07
2.87784e-08
-3.8228e-08
-2.04721e-07
2.1417e-07
3.10967e-08
-3.67785e-08
-1.32783e-07
1.38465e-07
4.26691e-08
-5.01912e-08
-1.28533e-07
1.36055e-07
5.55263e-08
-5.83944e-08
-1.41666e-08
1.70347e-08
5.91808e-08
-5.69506e-08
1.33239e-07
-1.35469e-07
5.26422e-08
-4.38502e-08
2.88462e-07
-2.97254e-07
3.02569e-08
-1.36383e-08
4.10523e-07
-4.27142e-07
-3.70311e-09
1.90935e-08
4.12864e-07
-4.28254e-07
-2.77927e-08
2.84595e-08
3.35227e-07
-3.35894e-07
-3.19905e-08
4.68219e-08
4.38523e-07
-4.53355e-07
-7.08783e-08
1.02473e-07
5.29363e-07
-5.60958e-07
-1.26814e-07
1.4347e-07
4.29335e-07
-4.45991e-07
-1.68584e-07
1.93569e-07
3.24284e-07
-3.49268e-07
-2.18417e-07
2.19609e-07
1.75909e-07
-1.77101e-07
-2.20116e-07
2.44333e-07
7.24031e-08
-9.66201e-08
-2.62221e-07
2.62066e-07
1.13232e-07
-1.13077e-07
-2.55714e-07
2.49656e-07
-1.49266e-07
1.55323e-07
-2.41689e-07
2.34634e-07
-2.77518e-07
2.84573e-07
-2.21342e-07
2.0397e-07
-3.02224e-07
3.19596e-07
-1.83768e-07
1.6586e-07
-3.12204e-07
3.30112e-07
-1.48333e-07
1.33175e-07
-2.97864e-07
3.13022e-07
-1.18248e-07
1.06912e-07
-2.77247e-07
2.88584e-07
-9.63657e-08
8.72147e-08
-2.54168e-07
2.63319e-07
-7.80884e-08
6.90505e-08
-2.3218e-07
2.41218e-07
-5.89726e-08
4.99337e-08
-2.12055e-07
2.21094e-07
-4.06195e-08
3.2275e-08
-1.91863e-07
2.00208e-07
-2.41125e-08
1.72304e-08
-1.74164e-07
1.81046e-07
-1.08173e-08
5.43445e-09
-1.58383e-07
1.63766e-07
-2.57551e-07
2.64365e-07
-6.81347e-09
1.56712e-08
-2.2054e-08
-2.25531e-07
2.31914e-07
2.91719e-08
-3.93374e-08
-2.2397e-07
2.34135e-07
3.04658e-08
-3.63976e-08
-1.44274e-07
1.50206e-07
4.27614e-08
-5.1029e-08
-1.43942e-07
1.5221e-07
5.68975e-08
-6.02206e-08
-2.01252e-08
2.34483e-08
6.14049e-08
-5.95865e-08
1.37502e-07
-1.3932e-07
5.59008e-08
-4.72309e-08
3.05994e-07
-3.14664e-07
3.30233e-08
-1.5247e-08
4.44318e-07
-4.62094e-07
-3.53117e-09
2.03054e-08
4.44275e-07
-4.61049e-07
-2.82187e-08
2.49024e-08
3.34704e-07
-3.31388e-07
-2.49934e-08
3.95321e-08
4.68085e-07
-4.82623e-07
-6.66456e-08
1.03663e-07
5.9528e-07
-6.32298e-07
-1.26624e-07
1.44649e-07
4.63149e-07
-4.81174e-07
-1.85337e-07
2.14714e-07
3.83237e-07
-4.12614e-07
-1.96518e-07
2.18011e-07
1.82032e-07
-2.03526e-07
-2.4268e-07
2.684e-07
1.2085e-07
-1.46569e-07
-3.04622e-07
3.0869e-07
1.11999e-07
-1.16052e-07
-3.0548e-07
2.87817e-07
-1.70094e-07
1.87758e-07
-2.64157e-07
2.41302e-07
-2.91812e-07
3.14665e-07
-2.22614e-07
2.03221e-07
-3.32964e-07
3.52357e-07
-1.82374e-07
1.67511e-07
-3.48189e-07
3.63052e-07
-1.55114e-07
1.45018e-07
-3.27726e-07
3.37822e-07
-1.32102e-07
1.20467e-07
-3.00593e-07
3.12229e-07
-1.08009e-07
9.5418e-08
-2.73351e-07
2.85942e-07
-8.28458e-08
7.13594e-08
-2.51693e-07
2.63179e-07
-6.04997e-08
5.13545e-08
-2.30645e-07
2.3979e-07
-4.20428e-08
3.35181e-08
-2.09095e-07
2.1762e-07
-2.4914e-08
1.75982e-08
-1.88256e-07
1.95572e-07
-1.09137e-08
5.41761e-09
-1.68954e-07
1.7445e-07
-2.71143e-07
2.77884e-07
-6.74088e-09
1.58025e-08
-2.2077e-08
-2.38247e-07
2.44522e-07
2.96347e-08
-4.05842e-08
-2.44683e-07
2.55633e-07
2.97423e-08
-3.58974e-08
-1.56253e-07
1.62408e-07
4.28277e-08
-5.19127e-08
-1.60876e-07
1.69961e-07
5.8352e-08
-6.21736e-08
-2.70148e-08
3.08365e-08
6.37366e-08
-6.24057e-08
1.40905e-07
-1.42236e-07
5.94674e-08
-5.10003e-08
3.23243e-07
-3.3171e-07
3.60883e-08
-1.69651e-08
4.80517e-07
-4.99641e-07
-3.65262e-09
2.23095e-08
4.78693e-07
-4.9735e-07
-2.94128e-08
2.09223e-08
3.25645e-07
-3.17155e-07
-1.62888e-08
2.99831e-08
4.9683e-07
-5.10524e-07
-6.2619e-08
1.00691e-07
6.71034e-07
-7.09107e-07
-1.25978e-07
1.6821e-07
5.07897e-07
-5.5013e-07
-1.99515e-07
1.86766e-07
4.21473e-07
-4.08724e-07
-1.57483e-07
2.05932e-07
2.4635e-07
-2.94799e-07
-3.31439e-07
3.72448e-07
1.72162e-07
-2.13171e-07
-3.77546e-07
3.93259e-07
1.31212e-07
-1.46925e-07
-3.97045e-07
3.91747e-07
-2.00508e-07
2.05772e-07
-3.72442e-07
3.42792e-07
-3.49769e-07
3.79509e-07
-2.95165e-07
2.51187e-07
-3.7905e-07
4.23029e-07
-2.16222e-07
1.88922e-07
-3.85423e-07
4.12723e-07
-1.63483e-07
1.43343e-07
-3.52262e-07
3.72402e-07
-1.26247e-07
1.13554e-07
-3.24168e-07
3.36862e-07
-1.02095e-07
9.03628e-08
-2.98114e-07
3.09846e-07
-7.95612e-08
7.01454e-08
-2.73555e-07
2.82971e-07
-6.14428e-08
5.35331e-08
-2.48859e-07
2.56768e-07
-4.50353e-08
3.72569e-08
-2.25907e-07
2.33686e-07
-2.90396e-08
2.14404e-08
-2.02895e-07
2.10494e-07
-1.38122e-08
6.92324e-09
-1.80516e-07
1.87405e-07