/*--------------------------------*- C++ -*----------------------------------*\
| =========                 |                                                 |
| \\      /  F ield         | OpenFOAM: The Open Source CFD Toolbox           |
|  \\    /   O peration     | Version:  2.4.0                                 |
|   \\  /    A nd           | Web:      www.OpenFOAM.org                      |
|    \\/     M anipulation  |                                                 |
\*---------------------------------------------------------------------------*/
FoamFile
{
    version     2.0;
    format      ascii;
    class       surfaceScalarField;
    location    "0.141";
    object      phiAlpha;
}
// * * * * * * * * * * * * * * * * * * * * * * * * * * * * * * * * * * * * * //

dimensions      [0 3 -1 0 0 0 0];

internalField   nonuniform List<scalar> 
114720
(
-8.36602e-10
1.50752e-09
2.18683e-09
-2.85775e-09
1.50376e-09
-6.83979e-10
4.88874e-10
-1.30866e-09
-4.20284e-09
6.2104e-09
9.26001e-10
-2.93355e-09
-1.23892e-08
1.42157e-08
7.20974e-10
-2.5475e-09
-1.91681e-08
2.04687e-08
4.22102e-10
-1.72273e-09
-2.38632e-08
2.481e-08
2.60802e-10
-1.20762e-09
-2.75574e-08
2.82514e-08
1.40856e-10
-8.34809e-10
-2.9468e-08
2.94433e-08
-2.18531e-10
2.43257e-10
-2.77972e-08
2.66921e-08
-7.34484e-10
1.83956e-09
-2.09586e-08
1.84405e-08
-1.32384e-09
3.84194e-09
-8.79239e-09
5.45458e-09
-1.49142e-09
4.82923e-09
4.79379e-09
-7.7313e-09
-1.07616e-09
4.01368e-09
1.54191e-08
-1.73258e-08
-5.36889e-10
2.44363e-09
2.18722e-08
-2.29189e-08
-1.99028e-10
1.24575e-09
2.53324e-08
-2.58764e-08
-5.89897e-11
6.03019e-10
2.71009e-08
-2.73577e-08
-5.02589e-12
2.61892e-10
2.78114e-08
-2.78453e-08
4.02368e-11
-6.32348e-12
2.76157e-08
-2.74395e-08
9.76453e-11
-2.73874e-10
2.658e-08
-2.62195e-08
1.57877e-10
-5.18365e-10
2.48445e-08
-2.43439e-08
2.08282e-10
-7.08838e-10
2.26043e-08
-2.20134e-08
2.42994e-10
-8.33976e-10
2.00625e-08
-1.94266e-08
2.61422e-10
-8.97343e-10
1.73936e-08
-1.67482e-08
2.65868e-10
-9.11284e-10
1.47275e-08
-1.40983e-08
2.59896e-10
-8.89147e-10
1.21551e-08
-1.15567e-08
2.4753e-10
-8.45868e-10
9.72875e-09
-9.17075e-09
2.31078e-10
-7.89076e-10
7.47691e-09
-6.96271e-09
2.13075e-10
-7.27274e-10
5.41019e-09
-4.94105e-09
1.94473e-10
-6.63612e-10
3.52987e-09
-3.10508e-09
1.76145e-10
-6.00942e-10
1.82877e-09
-1.44562e-09
1.58944e-10
-5.42091e-10
3.42082e-09
1.26454e-08
-9.48726e-09
-6.57897e-09
8.36015e-09
5.80123e-09
-7.22421e-09
-6.93717e-09
-5.22659e-10
1.18518e-08
3.7941e-09
-1.51232e-08
-1.44756e-08
1.1285e-08
1.79601e-08
-1.47696e-08
-2.80222e-08
8.74122e-09
3.10188e-08
-1.17377e-08
-3.94412e-08
7.30489e-09
4.20705e-08
-9.93417e-09
-4.96101e-08
5.42718e-09
5.18148e-08
-7.63193e-09
-5.71255e-08
1.05774e-09
5.8309e-08
-2.24128e-09
-5.97201e-08
-5.643e-09
5.92942e-08
6.06893e-09
-5.46068e-08
-1.41879e-08
5.18519e-08
1.69428e-08
-4.00342e-08
-1.92687e-08
3.52951e-08
2.40079e-08
-1.95836e-08
-1.78723e-08
1.43645e-08
2.30914e-08
6.92552e-10
-1.30053e-08
-5.16055e-09
1.74733e-08
1.69443e-08
-8.24176e-09
-2.01617e-08
1.14591e-08
2.81032e-08
-4.80004e-09
-3.01275e-08
6.82436e-09
3.47924e-08
-2.38843e-09
-3.58726e-08
3.46861e-09
3.79929e-08
-4.53654e-10
-3.83381e-08
7.98893e-10
3.84889e-08
1.15178e-09
-3.82794e-08
-1.36133e-09
3.70041e-08
2.37283e-09
-3.64134e-08
-2.96359e-09
3.42134e-08
3.19073e-09
-3.33918e-08
-4.01226e-09
3.06746e-08
3.65046e-09
-2.97371e-08
-4.58797e-09
2.67992e-08
3.82884e-09
-2.58266e-08
-4.80144e-09
2.28701e-08
3.80887e-09
-2.19155e-08
-4.76348e-09
1.90707e-08
3.65789e-09
-1.81677e-08
-4.5609e-09
1.5512e-08
3.43139e-09
-1.4679e-08
-4.26441e-09
1.22525e-08
3.16681e-09
-1.14971e-08
-3.92229e-09
9.30664e-09
2.894e-09
-8.62723e-09
-3.5734e-09
6.66201e-09
2.62495e-09
-6.05286e-09
-3.2341e-09
4.29093e-09
2.37221e-09
-3.74368e-09
-2.91946e-09
2.15925e-09
2.13453e-09
-1.66753e-09
-2.62625e-09
3.98945e-09
2.68064e-08
-2.31266e-08
-7.66917e-09
1.11945e-08
9.9387e-09
-1.0262e-08
-1.08713e-08
2.76761e-09
2.49088e-08
4.82761e-10
-2.81592e-08
-1.13346e-08
2.55002e-08
1.49334e-08
-2.9099e-08
-2.54517e-08
2.11385e-08
2.86162e-08
-2.4303e-08
-3.76186e-08
1.83288e-08
4.04713e-08
-2.11814e-08
-4.87826e-08
1.48507e-08
5.12668e-08
-1.73348e-08
-5.74991e-08
6.5203e-09
5.90231e-08
-8.04433e-09
-6.16773e-08
-6.32103e-09
6.1744e-08
6.25431e-09
-5.89336e-08
-2.37693e-08
5.69064e-08
2.57964e-08
-4.75403e-08
-3.67652e-08
4.3628e-08
4.06775e-08
-3.02993e-08
-3.7776e-08
2.57626e-08
4.23127e-08
-1.23091e-08
-3.06035e-08
8.19979e-09
3.47128e-08
2.9948e-09
-2.13491e-08
-6.15527e-09
2.45096e-08
1.41898e-08
-1.32552e-08
-1.63022e-08
1.53676e-08
2.13247e-08
-7.03081e-09
-2.25455e-08
8.25152e-09
2.5174e-08
-2.15697e-09
-2.57142e-08
2.69716e-09
2.65465e-08
1.63123e-09
-2.65852e-08
-1.59257e-09
2.61274e-08
4.33765e-09
-2.58183e-08
-4.64685e-09
2.44997e-08
6.05592e-09
-2.39689e-08
-6.58668e-09
2.21305e-08
6.97723e-09
-2.14747e-08
-7.63303e-09
1.93706e-08
7.30773e-09
-1.86613e-08
-8.01706e-09
1.64788e-08
7.23086e-09
-1.57682e-08
-7.94146e-09
1.36437e-08
6.88487e-09
-1.29696e-08
-7.55895e-09
1.09986e-08
6.38247e-09
-1.03863e-08
-6.99477e-09
8.62815e-09
5.80762e-09
-8.09043e-09
-6.34534e-09
6.56252e-09
5.2335e-09
-6.09853e-09
-5.6975e-09
4.78244e-09
4.6962e-09
-4.38166e-09
-5.09698e-09
3.23691e-09
4.21985e-09
-2.88459e-09
-4.57218e-09
1.86778e-09
3.79288e-09
-1.55215e-09
-4.1085e-09
4.17695e-09
4.19534e-08
-3.81173e-08
-8.01303e-09
1.18805e-08
1.3632e-08
-1.09549e-08
-1.45577e-08
3.42658e-09
3.79235e-08
-1.62773e-10
-4.11873e-08
-1.0741e-08
3.99175e-08
1.43556e-08
-4.35321e-08
-2.49122e-08
3.37901e-08
2.8071e-08
-3.69489e-08
-3.70507e-08
2.97696e-08
3.9919e-08
-3.26378e-08
-4.83404e-08
2.48671e-08
5.08726e-08
-2.73994e-08
-5.7241e-08
1.27107e-08
5.88213e-08
-1.4291e-08
-6.17015e-08
-5.91903e-09
6.18461e-08
5.77448e-09
-5.92978e-08
-3.17088e-08
5.73386e-08
3.36679e-08
-4.81852e-08
-5.21093e-08
4.43748e-08
5.59197e-08
-3.15852e-08
-5.53542e-08
2.7308e-08
5.96315e-08
-1.48344e-08
-4.63744e-08
1.10761e-08
5.01328e-08
-8.93386e-10
-3.34929e-08
-1.98738e-09
3.63737e-08
9.40897e-09
-2.15014e-08
-1.1407e-08
2.34994e-08
1.63185e-08
-1.19553e-08
-1.75707e-08
1.32075e-08
2.04603e-08
-4.5345e-09
-2.11319e-08
5.20605e-09
2.24648e-08
1.15412e-09
-2.26909e-08
-9.28024e-10
2.28349e-08
5.2224e-09
-2.27251e-08
-5.33216e-09
2.1996e-08
7.84987e-09
-2.16481e-08
-8.19783e-09
2.03272e-08
9.31798e-09
-1.98261e-08
-9.81906e-09
1.81478e-08
9.91527e-09
-1.75625e-08
-1.05007e-08
1.5712e-08
9.89394e-09
-1.50951e-08
-1.05108e-08
1.32135e-08
9.44602e-09
-1.26053e-08
-1.00542e-08
1.07976e-08
8.73068e-09
-1.02273e-08
-9.30095e-09
8.56838e-09
7.87982e-09
-8.05477e-09
-8.39342e-09
6.58079e-09
7.02326e-09
-6.12916e-09
-7.47489e-09
4.83887e-09
6.24066e-09
-4.4433e-09
-6.63622e-09
3.30718e-09
5.57761e-09
-2.9557e-09
-5.92908e-09
1.93696e-09
5.01158e-09
-1.61944e-09
-5.32911e-09
4.3242e-09
5.75829e-08
-5.3632e-08
-8.27509e-09
1.22267e-08
1.73835e-08
-1.12642e-08
-1.83459e-08
3.61744e-09
5.10276e-08
-3.18472e-10
-5.43266e-08
-1.06575e-08
5.44028e-08
1.42906e-08
-5.80359e-08
-2.48955e-08
4.64124e-08
2.80454e-08
-4.95623e-08
-3.69741e-08
4.12541e-08
3.98502e-08
-4.41302e-08
-4.83691e-08
3.50629e-08
5.09482e-08
-3.7642e-08
-5.74391e-08
1.91141e-08
5.90777e-08
-2.07528e-08
-6.22103e-08
-5.2266e-09
6.24371e-08
4.99981e-09
-6.01348e-08
-3.95341e-08
5.81888e-08
4.14801e-08
-4.88056e-08
-6.75331e-08
4.48582e-08
7.14805e-08
-3.16636e-08
-7.25531e-08
2.72915e-08
7.69252e-08
-1.46952e-08
-6.1326e-08
1.09484e-08
6.50728e-08
-8.94784e-10
-4.4886e-08
-1.93202e-09
4.77128e-08
9.22351e-09
-2.9444e-08
-1.12013e-08
3.14218e-08
1.61349e-08
-1.70178e-08
-1.74198e-08
1.83027e-08
2.04655e-08
-7.33483e-09
-2.12005e-08
8.0698e-09
2.27429e-08
1.1973e-10
-2.30376e-08
1.74937e-10
2.33826e-08
5.54074e-09
-2.33335e-08
-5.58985e-09
2.2775e-08
9.13898e-09
-2.24776e-08
-9.43639e-09
2.12989e-08
1.1237e-08
-2.08408e-08
-1.16951e-08
1.92836e-08
1.21872e-08
-1.87342e-08
-1.27365e-08
1.69799e-08
1.23125e-08
-1.63893e-08
-1.29032e-08
1.45671e-08
1.18568e-08
-1.39704e-08
-1.24536e-08
1.21677e-08
1.10239e-08
-1.15881e-08
-1.16034e-08
9.86373e-09
9.98394e-09
-9.31639e-09
-1.05313e-08
7.70265e-09
8.91335e-09
-7.19428e-09
-9.42171e-09
5.70362e-09
7.92912e-09
-5.23556e-09
-8.39719e-09
3.86597e-09
7.09822e-09
-3.43596e-09
-7.52824e-09
2.17899e-09
6.39278e-09
-1.78543e-09
-6.78634e-09
4.50085e-09
7.37164e-08
-6.96299e-08
-8.58735e-09
1.26023e-08
2.13095e-08
-1.15856e-08
-2.23263e-08
3.78505e-09
6.429e-08
-4.39629e-10
-6.76354e-08
-1.06224e-08
6.8968e-08
1.42779e-08
-7.26235e-08
-2.49476e-08
5.89961e-08
2.80858e-08
-6.21343e-08
-3.69431e-08
5.27713e-08
3.98277e-08
-5.5656e-08
-4.847e-08
4.54647e-08
5.11088e-08
-4.81035e-08
-5.77466e-08
2.57778e-08
5.94616e-08
-2.74928e-08
-6.2927e-08
-4.16616e-09
6.32599e-08
3.83328e-09
-6.13316e-08
-4.72649e-08
5.94268e-08
4.91697e-08
-4.97805e-08
-8.35872e-08
4.56494e-08
8.77184e-08
-3.18272e-08
-9.031e-08
2.72665e-08
9.48706e-08
-1.42174e-08
-7.64535e-08
1.03671e-08
8.03038e-08
-1.14417e-10
-5.62359e-08
-2.7483e-09
5.90986e-08
1.00956e-08
-3.73678e-08
-1.20831e-08
3.93553e-08
1.70528e-08
-2.21872e-08
-1.83549e-08
2.34894e-08
2.1469e-08
-1.03176e-08
-2.22285e-08
1.10771e-08
2.38385e-08
-1.09177e-09
-2.41501e-08
1.40335e-09
2.45257e-08
5.72287e-09
-2.44804e-08
-5.76811e-09
2.39207e-08
1.03234e-08
-2.36204e-08
-1.06237e-08
2.24313e-08
1.30632e-08
-2.1971e-08
-1.35235e-08
2.04069e-08
1.43765e-08
-1.98569e-08
-1.49265e-08
1.81045e-08
1.46659e-08
-1.7515e-08
-1.52555e-08
1.56932e-08
1.42419e-08
-1.50945e-08
-1.48406e-08
1.32733e-08
1.33582e-08
-1.26822e-08
-1.39493e-08
1.09007e-08
1.22164e-08
-1.03267e-08
-1.27905e-08
8.60559e-09
1.10187e-08
-8.05397e-09
-1.15703e-08
6.41098e-09
9.8941e-09
-5.88771e-09
-1.04174e-08
4.33988e-09
8.91918e-09
-3.84989e-09
-9.40917e-09
2.41082e-09
8.06491e-09
-1.95908e-09
-8.51665e-09
4.71895e-09
9.04649e-08
-8.62133e-08
-8.97054e-09
1.30628e-08
2.54791e-08
-1.19736e-08
-2.65683e-08
3.98603e-09
7.77564e-08
-5.81031e-10
-8.11614e-08
-1.05835e-08
8.36293e-08
1.42665e-08
-8.73123e-08
-2.50218e-08
7.15276e-08
2.8145e-08
-7.46508e-08
-3.69047e-08
6.43238e-08
3.97989e-08
-6.7218e-08
-4.85965e-08
5.61264e-08
5.13097e-08
-5.88395e-08
-5.81134e-08
3.2777e-08
5.9926e-08
-3.45895e-08
-6.38043e-08
-2.65598e-09
6.42589e-08
2.20143e-09
-6.2836e-08
-5.47898e-08
6.10007e-08
5.66251e-08
-5.10385e-08
-1.00438e-07
4.66793e-08
1.04797e-07
-3.20797e-08
-1.08888e-07
2.72858e-08
1.13682e-07
-1.3667e-08
-9.20517e-08
9.68065e-09
9.6038e-08
8.51897e-10
-6.77606e-08
-3.76879e-09
7.06775e-08
1.12017e-08
-4.53365e-08
-1.32013e-08
4.73361e-08
1.81969e-08
-2.7413e-08
-1.95101e-08
2.87262e-08
2.26724e-08
-1.33819e-08
-2.34497e-08
1.41593e-08
2.51021e-08
-2.3483e-09
-2.54206e-08
2.66679e-09
2.57878e-08
5.91922e-09
-2.57306e-08
-5.97644e-09
2.5113e-08
1.15558e-08
-2.47886e-08
-1.18802e-08
2.35176e-08
1.49429e-08
-2.30286e-08
-1.54318e-08
2.13834e-08
1.66083e-08
-2.08079e-08
-1.71837e-08
1.89824e-08
1.70508e-08
-1.83706e-08
-1.76626e-08
1.64852e-08
1.66608e-08
-1.58668e-08
-1.72792e-08
1.39868e-08
1.57485e-08
-1.33763e-08
-1.6359e-08
1.15328e-08
1.45456e-08
-1.0937e-08
-1.51413e-08
9.14477e-09
1.32666e-08
-8.56823e-09
-1.38432e-08
6.84467e-09
1.20353e-08
-6.29385e-09
-1.25861e-08
4.65999e-09
1.09299e-08
-4.14141e-09
-1.14485e-08
2.61552e-09
9.92121e-09
-2.13577e-09
-1.04009e-08
4.98456e-09
1.07957e-07
-1.03507e-07
-9.43461e-09
1.36111e-08
2.9968e-08
-1.24296e-08
-3.11495e-08
4.22564e-09
9.14831e-08
-7.45516e-10
-9.49632e-08
-1.05325e-08
9.84066e-08
1.42469e-08
-1.02121e-07
-2.51096e-08
8.39915e-08
2.82127e-08
-8.70946e-08
-3.68382e-08
7.59142e-08
3.97416e-08
-7.88177e-08
-4.87274e-08
6.71084e-08
5.15306e-08
-6.99116e-08
-5.85082e-08
4.0203e-08
6.04442e-08
-4.2139e-08
-6.48196e-08
-6.44579e-10
6.54036e-08
6.05646e-11
-6.46461e-08
-6.1982e-08
6.29199e-08
6.37083e-08
-5.25668e-08
-1.1828e-07
4.79244e-08
1.22922e-07
-3.23723e-08
-1.28468e-07
2.72987e-08
1.33541e-07
-1.3012e-08
-1.08225e-07
8.86916e-09
1.12368e-07
1.97867e-09
-7.95106e-08
-4.95351e-09
8.24855e-08
1.24706e-08
-5.33482e-08
-1.44783e-08
5.5356e-08
1.94892e-08
-3.26807e-08
-2.08123e-08
3.40039e-08
2.40302e-08
-1.65231e-08
-2.48305e-08
1.73234e-08
2.65418e-08
-3.63503e-09
-2.68701e-08
3.96336e-09
2.72264e-08
6.17256e-09
-2.71521e-08
-6.24683e-09
2.64492e-08
1.29035e-08
-2.60892e-08
-1.32635e-08
2.46959e-08
1.69584e-08
-2.41646e-08
-1.74897e-08
2.23881e-08
1.89699e-08
-2.17701e-08
-1.95879e-08
1.98193e-08
1.95526e-08
-1.91684e-08
-2.02035e-08
1.71707e-08
1.91821e-08
-1.65179e-08
-1.98348e-08
1.45419e-08
1.82307e-08
-1.39031e-08
-1.88695e-08
1.19829e-08
1.69609e-08
-1.13652e-08
-1.75785e-08
9.51557e-09
1.55983e-08
-8.92305e-09
-1.61908e-08
7.15762e-09
1.42595e-08
-6.59483e-09
-1.48223e-08
4.92706e-09
1.30238e-08
-4.39762e-09
-1.35532e-08
2.83734e-09
1.18612e-08
-2.34558e-09
-1.23529e-08
5.301e-09
1.26328e-07
-1.21646e-07
-9.98346e-09
1.42546e-08
3.48558e-08
-1.29613e-08
-3.61492e-08
4.50783e-09
1.0554e-07
-9.32649e-10
-1.09115e-07
-1.04728e-08
1.13319e-07
1.4224e-08
-1.1707e-07
-2.52247e-08
9.63689e-08
2.83031e-08
-9.94473e-08
-3.6751e-08
8.75427e-08
3.9664e-08
-9.04557e-08
-4.88789e-08
7.84786e-08
5.17911e-08
-8.13909e-08
-5.89416e-08
4.81723e-08
6.10358e-08
-5.02665e-08
-6.60014e-08
1.88377e-09
6.67111e-08
-2.5935e-09
-6.68199e-08
-6.86592e-08
6.52602e-08
7.02189e-08
-5.44123e-08
-1.37354e-07
4.94187e-08
1.42347e-07
-3.27009e-08
-1.49246e-07
2.72931e-08
1.54654e-07
-1.22278e-08
-1.25058e-07
7.9064e-09
1.29379e-07
3.29302e-09
-9.15022e-08
-6.32945e-09
9.45386e-08
1.39214e-08
-6.13853e-08
-1.59312e-08
6.33951e-08
2.09418e-08
-3.79875e-08
-2.22738e-08
3.93195e-08
2.55644e-08
-1.97711e-08
-2.63985e-08
2.06053e-08
2.8203e-08
-4.97216e-09
-2.85493e-08
5.31847e-09
2.89026e-08
6.49864e-09
-2.88084e-08
-6.59278e-09
2.79996e-08
1.44084e-08
-2.75944e-08
-1.48136e-08
2.60461e-08
1.91608e-08
-2.54612e-08
-1.97456e-08
2.35193e-08
2.15192e-08
-2.28478e-08
-2.21908e-08
2.07381e-08
2.22282e-08
-2.00373e-08
-2.2929e-08
1.78962e-08
2.1856e-08
-1.71999e-08
-2.25523e-08
1.51037e-08
2.08364e-08
-1.44303e-08
-2.15099e-08
1.24209e-08
1.94662e-08
-1.17797e-08
-2.01074e-08
9.87521e-09
1.79881e-08
-9.27e-09
-1.85933e-08
7.47867e-09
1.65202e-08
-6.91069e-09
-1.70882e-08
5.23214e-09
1.5148e-08
-4.69973e-09
-1.56804e-08
3.12656e-09
1.38389e-08
-2.62855e-09
-1.43369e-08
5.67262e-09
1.45718e-07
-1.40767e-07
-1.06233e-08
1.49961e-08
4.02196e-08
-1.3572e-08
-4.16437e-08
4.83146e-09
1.20007e-07
-1.14163e-09
-1.23697e-07
-1.0404e-08
1.28385e-07
1.41972e-08
-1.32178e-07
-2.53736e-08
1.0864e-07
2.84224e-08
-1.11688e-07
-3.66358e-08
9.9209e-08
3.95584e-08
-1.02132e-07
-4.90493e-08
9.03181e-08
5.20939e-08
-9.33628e-08
-5.94022e-08
5.68384e-08
6.16998e-08
-5.9136e-08
-6.73623e-08
4.88714e-09
6.81735e-08
-5.69834e-09
-6.94058e-08
-7.45529e-08
6.80974e-08
7.58613e-08
-5.6611e-08
-1.57949e-07
5.11848e-08
1.63375e-07
-3.30508e-08
-1.7145e-07
2.72481e-08
1.77253e-07
-1.12885e-08
-1.42637e-07
6.76638e-09
1.47159e-07
4.81976e-09
-1.03743e-07
-7.91978e-09
1.06843e-07
1.55673e-08
-6.94157e-08
-1.75684e-08
7.14168e-08
2.25496e-08
-4.33255e-08
-2.38871e-08
4.46629e-08
2.7273e-08
-2.31766e-08
-2.81572e-08
2.40608e-08
3.01074e-08
-6.39881e-09
-3.04846e-08
6.77599e-09
3.08497e-08
6.90839e-09
-3.07327e-08
-7.02536e-09
2.97934e-08
1.611e-08
-2.93317e-08
-1.65716e-08
2.75944e-08
2.15932e-08
-2.6945e-08
-2.22426e-08
2.48066e-08
2.4297e-08
-2.40722e-08
-2.50315e-08
2.17777e-08
2.51154e-08
-2.10193e-08
-2.58739e-08
1.87122e-08
2.47143e-08
-1.79657e-08
-2.54608e-08
1.57312e-08
2.3588e-08
-1.5018e-08
-2.43011e-08
1.29074e-08
2.20689e-08
-1.22402e-08
-2.27361e-08
1.02787e-08
2.04263e-08
-9.66209e-09
-2.10429e-08
7.85579e-09
1.87936e-08
-7.28825e-09
-1.93611e-08
5.62132e-09
1.72737e-08
-5.09412e-09
-1.78009e-08
3.53226e-09
1.58341e-08
-3.03439e-09
-1.63319e-08
6.10459e-09
1.66281e-07
-1.61021e-07
-1.13649e-08
1.58329e-08
4.61335e-08
-1.42601e-08
-4.77064e-08
5.18987e-09
1.34956e-07
-1.37069e-09
-1.38775e-07
-1.03218e-08
1.43624e-07
1.41604e-08
-1.47463e-07
-2.5556e-08
1.20782e-07
2.85685e-08
-1.23794e-07
-3.64706e-08
1.10911e-07
3.94011e-08
-1.13842e-07
-4.92187e-08
1.02728e-07
5.24246e-08
-1.05934e-07
-5.98565e-08
6.63978e-08
6.2413e-08
-6.89542e-08
-6.89045e-08
8.2166e-09
6.97522e-08
-9.06434e-09
-7.24435e-08
-7.92687e-08
7.15119e-08
8.02003e-08
-5.91826e-08
-1.80414e-07
5.32271e-08
1.86369e-07
-3.33889e-08
-1.95327e-07
2.71275e-08
2.01589e-07
-1.01615e-08
-1.6105e-07
5.41859e-09
1.65793e-07
6.58346e-09
-1.16237e-07
-9.74596e-09
1.194e-07
1.74144e-08
-7.73873e-08
-1.93895e-08
7.93623e-08
2.42899e-08
-4.86736e-08
-2.56237e-08
5.00074e-08
2.91326e-08
-2.68151e-08
-3.00908e-08
2.77733e-08
3.22665e-08
-7.9756e-09
-3.2694e-08
8.40318e-09
3.30922e-08
7.41593e-09
-3.29476e-08
-7.5605e-09
3.18435e-08
1.80564e-08
-3.13117e-08
-1.85882e-08
2.93414e-08
2.43018e-08
-2.86151e-08
-2.50281e-08
2.62495e-08
2.73392e-08
-2.54435e-08
-2.81452e-08
2.29403e-08
2.82444e-08
-2.21167e-08
-2.90679e-08
1.96223e-08
2.77834e-08
-1.88187e-08
-2.8587e-08
1.64253e-08
2.6507e-08
-1.56661e-08
-2.72663e-08
1.34364e-08
2.47819e-08
-1.27381e-08
-2.54802e-08
1.07099e-08
2.29096e-08
-1.00813e-08
-2.35382e-08
8.27133e-09
2.10524e-08
-7.71322e-09
-2.16105e-08
6.10199e-09
1.93537e-08
-5.59907e-09
-1.98566e-08
4.11236e-09
1.78046e-08
-3.63383e-09
-1.82832e-08
6.60299e-09
1.88198e-07
-1.82582e-07
-1.22195e-08
1.67729e-08
5.26697e-08
-1.50333e-08
-5.44093e-08
5.57952e-09
1.50442e-07
-1.61878e-09
-1.54403e-07
-1.02293e-08
1.59052e-07
1.41171e-08
-1.62939e-07
-2.57922e-08
1.32771e-07
2.87628e-08
-1.35742e-07
-3.62571e-08
1.22645e-07
3.91949e-08
-1.25583e-07
-4.94014e-08
1.1584e-07
5.28099e-08
-1.19249e-07
-6.03134e-08
7.70916e-08
6.31978e-08
-7.99761e-08
-7.07106e-08
1.1506e-08
7.14464e-08
-1.22418e-08
-7.60486e-08
-8.22174e-08
7.56853e-08
8.25807e-08
-6.21961e-08
-2.05175e-07
5.55828e-08
2.11789e-07
-3.36956e-08
-2.21144e-07
2.69065e-08
2.27933e-07
-8.81866e-09
-1.80378e-07
3.83403e-09
1.85363e-07
8.61785e-09
-1.28979e-07
-1.18409e-08
1.32202e-07
1.94822e-08
-8.5222e-08
-2.14075e-08
8.71473e-08
2.6147e-08
-5.39838e-08
-2.74588e-08
5.52956e-08
3.11279e-08
-3.08e-08
-3.21968e-08
3.18689e-08
3.47214e-08
-9.795e-09
-3.52293e-08
1.03029e-08
3.56924e-08
8.04466e-09
-3.55116e-08
-8.22545e-09
3.41855e-08
2.03124e-08
-3.35625e-08
-2.09353e-08
3.13063e-08
2.7339e-08
-3.04891e-08
-2.81562e-08
2.78607e-08
3.06804e-08
-2.69735e-08
-3.15676e-08
2.42351e-08
3.16463e-08
-2.33383e-08
-3.2543e-08
2.06317e-08
3.10933e-08
-1.97625e-08
-3.19625e-08
1.71816e-08
2.96246e-08
-1.63662e-08
-3.044e-08
1.39844e-08
2.76337e-08
-1.32438e-08
-2.83743e-08
1.11144e-08
2.5451e-08
-1.04633e-08
-2.61021e-08
8.62116e-09
2.32707e-08
-8.06516e-09
-2.38267e-08
6.4953e-09
2.13155e-08
-6.0153e-09
-2.17955e-08
4.61013e-09
1.96714e-08
-4.15574e-09
-2.01257e-08
7.17492e-09
2.11669e-07
-2.05644e-07
-1.31993e-08
1.78171e-08
5.99005e-08
-1.58924e-08
-6.18252e-08
5.99545e-09
1.6651e-07
-1.88405e-09
-1.70621e-07
-1.01237e-08
1.74681e-07
1.4063e-08
-1.7862e-07
-2.60949e-08
1.44583e-07
2.90167e-08
-1.47505e-07
-3.59771e-08
1.34406e-07
3.89204e-08
-1.37349e-07
-4.95862e-08
1.29846e-07
5.32576e-08
-1.33518e-07
-6.07336e-08
8.92352e-08
6.40542e-08
-9.25558e-08
-7.28685e-08
1.39471e-08
7.31854e-08
-1.4264e-08
-8.03438e-08
-8.24741e-08
8.08606e-08
8.19572e-08
-6.57048e-08
-2.32829e-07
5.82454e-08
2.40288e-07
-3.39195e-08
-2.49172e-07
2.65378e-08
2.56554e-07
-7.22433e-09
-2.00705e-07
1.97753e-09
2.05952e-07
1.09605e-08
-1.41957e-07
-1.42393e-08
1.45236e-07
2.1786e-08
-9.28134e-08
-2.36304e-08
9.46578e-08
2.80818e-08
-5.91576e-08
-2.93335e-08
6.04093e-08
3.32117e-08
-3.53059e-08
-3.44487e-08
3.65429e-08
3.75132e-08
-1.19986e-08
-3.81474e-08
1.26329e-08
3.87174e-08
8.84011e-09
-3.84837e-08
-9.07378e-09
3.68449e-08
2.29752e-08
-3.61004e-08
-2.37198e-08
3.34871e-08
3.07634e-08
-3.25627e-08
-3.16877e-08
2.96355e-08
3.43627e-08
-2.8658e-08
-3.53401e-08
2.56604e-08
3.53528e-08
-2.46828e-08
-3.63304e-08
2.17369e-08
3.46816e-08
-2.0792e-08
-3.56265e-08
1.79883e-08
3.29864e-08
-1.71032e-08
-3.38716e-08
1.45206e-08
3.06812e-08
-1.37188e-08
-3.1483e-08
1.14152e-08
2.81258e-08
-1.07097e-08
-2.88313e-08
8.69337e-09
2.55689e-08
-8.0723e-09
-2.619e-08
6.2648e-09
2.3327e-08
-5.69683e-09
-2.38949e-08
4.04918e-09
2.15432e-08
-3.5442e-09
-2.20482e-08
7.82963e-09
2.36912e-07
-2.30421e-07
-1.43199e-08
1.89681e-08
6.7899e-08
-1.68398e-08
-7.00272e-08
6.43328e-09
1.8319e-07
-2.16449e-09
-1.87459e-07
-1.00029e-08
1.90517e-07
1.39945e-08
-1.94508e-07
-2.64847e-08
1.56189e-07
2.93502e-08
-1.59054e-07
-3.56135e-08
1.46185e-07
3.85597e-08
-1.49131e-07
-4.97635e-08
1.45034e-07
5.37956e-08
-1.49066e-07
-6.09396e-08
1.03493e-07
6.5027e-08
-1.0758e-07
-7.52866e-08
1.41051e-08
7.48336e-08
-1.36521e-08
-8.54423e-08
-7.84929e-08
8.74085e-08
7.65266e-08
-6.97363e-08
-2.64223e-07
6.11934e-08
2.72766e-07
-3.39881e-08
-2.79651e-07
2.59651e-08
2.87674e-07
-5.34567e-09
-2.22113e-07
-1.85361e-10
2.27644e-07
1.36577e-08
-1.5515e-07
-1.69858e-08
1.58478e-07
2.43485e-08
-1.00026e-07
-2.60744e-08
1.01752e-07
3.00396e-08
-6.39908e-08
-3.11531e-08
6.51044e-08
3.53107e-08
-4.06062e-08
-3.68058e-08
4.21013e-08
4.07094e-08
-1.48053e-08
-4.15419e-08
1.56378e-08
4.22772e-08
9.88867e-09
-4.19582e-08
-1.02077e-08
3.9847e-08
2.61874e-08
-3.89348e-08
-2.70995e-08
3.58741e-08
3.46415e-08
-3.48261e-08
-3.56896e-08
3.15698e-08
3.8416e-08
-3.04956e-08
-3.94902e-08
2.72195e-08
3.93938e-08
-2.61538e-08
-4.04595e-08
2.29438e-08
3.85874e-08
-2.19128e-08
-3.96184e-08
1.88471e-08
3.66505e-08
-1.78764e-08
-3.76212e-08
1.50358e-08
3.40054e-08
-1.41517e-08
-3.48895e-08
1.16088e-08
3.10567e-08
-1.08304e-08
-3.18351e-08
8.61576e-09
2.81665e-08
-7.94e-09
-2.88423e-08
6.00318e-09
2.57312e-08
-5.40118e-09
-2.63332e-08
3.57719e-09
2.37094e-08
-2.93993e-09
-2.43466e-08
8.57512e-09
2.64171e-07
-2.57152e-07
-1.55943e-08
2.02284e-08
7.67399e-08
-1.78778e-08
-7.90905e-08
6.88795e-09
2.00507e-07
-2.45789e-09
-2.04937e-07
-9.86359e-09
2.06561e-07
1.3906e-08
-2.10603e-07
-2.69903e-08
1.67556e-07
2.97904e-08
-1.70356e-07
-3.51442e-08
1.57971e-07
3.80904e-08
-1.60917e-07
-4.99211e-08
1.61873e-07
5.44583e-08
-1.6641e-07
-6.08183e-08
1.21707e-07
6.61122e-08
-1.27e-07
-7.75707e-08
1.17124e-08
7.71706e-08
-1.13123e-08
-8.99799e-08
-6.6687e-08
9.5263e-08
6.14039e-08
-7.41836e-08
-3.00182e-07
6.44657e-08
3.09899e-07
-3.38105e-08
-3.12738e-07
2.51204e-08
3.21428e-07
-3.15511e-09
-2.44698e-07
-2.6994e-09
2.50552e-07
1.67678e-08
-1.68526e-07
-2.0134e-08
1.71892e-07
2.71999e-08
-1.06705e-07
-2.87676e-08
1.08273e-07
3.19527e-08
-6.80707e-08
-3.27713e-08
6.88894e-08
3.73071e-08
-4.71322e-08
-3.92027e-08
4.90278e-08
4.44106e-08
-1.856e-08
-4.55561e-08
1.97055e-08
4.65479e-08
1.13634e-08
-4.60776e-08
-1.18336e-08
4.31998e-08
3.01662e-08
-4.205e-08
-3.13161e-08
3.8438e-08
3.90346e-08
-3.72547e-08
-4.02179e-08
3.36547e-08
4.28621e-08
-3.24812e-08
-4.40356e-08
2.89184e-08
4.37935e-08
-2.7761e-08
-4.49509e-08
2.42684e-08
4.28512e-08
-2.31426e-08
-4.39769e-08
1.97766e-08
4.06819e-08
-1.87036e-08
-4.17549e-08
1.55389e-08
3.76949e-08
-1.45458e-08
-3.86879e-08
1.16742e-08
3.42995e-08
-1.07953e-08
-3.51783e-08
8.33287e-09
3.08951e-08
-7.60576e-09
-3.16222e-08
5.6446e-09
2.79696e-08
-5.08679e-09
-2.85274e-08
3.6229e-09
2.60758e-08
-3.20538e-09
-2.64934e-08
9.42249e-09
2.93724e-07
-2.86105e-07
-1.70417e-08
2.16024e-08
8.64975e-08
-1.90112e-08
-8.90887e-08
7.3539e-09
2.18471e-07
-2.76205e-09
-2.23062e-07
-9.70206e-09
2.22802e-07
1.37911e-08
-2.26891e-07
-2.7654e-08
1.78645e-07
3.03765e-08
-1.81367e-07
-3.45443e-08
1.69753e-07
3.74891e-08
-1.72698e-07
-5.00567e-08
1.80948e-07
5.52423e-08
-1.86134e-07
-6.22454e-08
1.42273e-07
6.58693e-08
-1.45897e-07
-8.02401e-08
1.3832e-08
8.28768e-08
-1.64687e-08
-9.01116e-08
-3.61005e-08
1.0175e-07
2.44618e-08
-7.89052e-08
-3.40593e-07
6.8221e-08
3.51277e-07
-3.33318e-08
-3.48535e-07
2.39386e-08
3.57928e-07
-5.7722e-10
-2.68625e-07
-5.61362e-09
2.74816e-07
2.03625e-08
-1.82032e-07
-2.3752e-08
1.85422e-07
3.03786e-08
-1.12692e-07
-3.17473e-08
1.1406e-07
3.38162e-08
-7.05269e-08
-3.3963e-08
7.06737e-08
3.90176e-08
-5.55692e-08
-4.15439e-08
5.80955e-08
4.87699e-08
-2.38185e-08
-5.04161e-08
2.54647e-08
5.18369e-08
1.3613e-08
-5.10813e-08
-1.43686e-08
4.68588e-08
3.5236e-08
-4.53735e-08
-3.67213e-08
4.11251e-08
4.39707e-08
-3.98098e-08
-4.52859e-08
3.58842e-08
4.77013e-08
-3.46155e-08
-4.89701e-08
3.07722e-08
4.85615e-08
-2.95231e-08
-4.98105e-08
2.57411e-08
4.75031e-08
-2.45156e-08
-4.87286e-08
2.08226e-08
4.5145e-08
-1.96335e-08
-4.63341e-08
1.60775e-08
4.18724e-08
-1.49416e-08
-4.30083e-08
1.15753e-08
3.8068e-08
-1.05123e-08
-3.91309e-08
7.41201e-09
3.41238e-08
-6.44953e-09
-3.50863e-08
3.66742e-09
3.06793e-08
-2.79716e-09
-3.15496e-08
1.45508e-10
2.82321e-08
7.10789e-10
-2.90884e-08
1.03881e-08
3.25883e-07
-3.1758e-07
-1.86915e-08
2.3086e-08
9.72417e-08
-2.02382e-08
-1.0009e-07
7.82144e-09
2.37073e-07
-3.07343e-09
-2.41821e-07
-9.50983e-09
2.39216e-07
1.36357e-08
-2.43342e-07
-2.85238e-08
1.89398e-07
3.11515e-08
-1.92025e-07
-3.37658e-08
1.81533e-07
3.67138e-08
-1.84481e-07
-5.01279e-08
2.02912e-07
5.62066e-08
-2.08991e-07
-6.44419e-08
1.46512e-07
6.09813e-08
-1.43051e-07
-7.87686e-08
2.82332e-08
8.26529e-08
-3.21172e-08
-9.51077e-08
1.26074e-08
1.05443e-07
-2.29422e-08
-8.37244e-08
-3.84459e-07
7.23378e-08
3.95846e-07
-3.23646e-08
-3.87226e-07
2.22849e-08
3.97306e-07
2.46648e-09
-2.94132e-07
-9.06346e-09
3.00729e-07
2.45318e-08
-1.95608e-07
-2.79274e-08
1.99003e-07
3.38882e-08
-1.17793e-07
-3.49795e-08
1.18884e-07
3.5501e-08
-6.90188e-08
-3.39155e-08
6.74333e-08
4.01516e-08
-6.70406e-08
-4.36962e-08
7.05853e-08
5.39719e-08
-3.15008e-08
-5.64345e-08
3.39634e-08
5.86441e-08
1.73861e-08
-5.72837e-08
-1.87465e-08
5.05187e-08
4.17806e-08
-4.86394e-08
-4.36599e-08
4.38286e-08
4.93895e-08
-4.24204e-08
-5.07976e-08
3.82374e-08
5.29048e-08
-3.68863e-08
-5.4256e-08
3.27904e-08
5.36883e-08
-3.14557e-08
-5.5023e-08
2.73959e-08
5.25532e-08
-2.60724e-08
-5.38766e-08
2.20516e-08
5.00801e-08
-2.07441e-08
-5.13876e-08
1.67816e-08
4.66469e-08
-1.54941e-08
-4.79344e-08
1.1583e-08
4.26466e-08
-1.03075e-08
-4.39221e-08
6.42087e-09
3.84278e-08
-5.15197e-09
-3.96967e-08
1.31276e-09
3.46416e-08
-7.58747e-11
-3.58785e-08
-3.58764e-09
3.19208e-08
4.7038e-09
-3.30369e-08
1.14814e-08
3.61009e-07
-3.51927e-07
-2.05631e-08
2.46778e-08
1.09033e-07
-2.15612e-08
-1.1215e-07
8.28026e-09
2.56285e-07
-3.38844e-09
-2.61177e-07
-9.28447e-09
2.55751e-07
1.34241e-08
-2.5989e-07
-2.96771e-08
1.99741e-07
3.21888e-08
-2.02253e-07
-3.2753e-08
1.93352e-07
3.57268e-08
-1.96326e-07
-5.00929e-08
2.29112e-07
5.75519e-08
-2.36571e-07
-6.35863e-08
1.28843e-07
5.9801e-08
-1.25058e-07
-6.91036e-08
3.88265e-08
7.01897e-08
-3.99139e-08
-1.05577e-07
4.18769e-08
1.0802e-07
-4.43197e-08
-8.79747e-08
-4.30855e-07
7.59772e-08
4.42852e-07
-3.02323e-08
-4.28487e-07
1.97761e-08
4.38943e-07
5.85758e-09
-3.21496e-07
-1.29752e-08
3.28614e-07
2.94277e-08
-2.09168e-07
-3.28009e-08
2.12541e-07
3.76002e-08
-1.21415e-07
-3.79888e-08
1.21803e-07
3.15405e-08
-5.86378e-08
-2.81722e-08
5.52696e-08
4.03084e-08
-8.36203e-08
-4.56532e-08
8.89651e-08
6.02141e-08
-4.31437e-08
-6.39911e-08
4.69207e-08
6.72666e-08
2.46911e-08
-6.43327e-08
-2.7625e-08
5.30036e-08
4.95438e-08
-5.11365e-08
-5.1411e-08
4.64914e-08
5.50837e-08
-4.50478e-08
-5.65273e-08
4.0723e-08
5.84131e-08
-3.93057e-08
-5.98304e-08
3.49957e-08
5.91427e-08
-3.35866e-08
-6.05518e-08
2.92786e-08
5.79846e-08
-2.78658e-08
-5.93975e-08
2.35439e-08
5.54765e-08
-2.21284e-08
-5.6892e-08
1.78085e-08
5.19955e-08
-1.63954e-08
-5.34086e-08
1.2078e-08
4.79853e-08
-1.06631e-08
-4.94001e-08
6.33658e-09
4.37908e-08
-4.92043e-09
-4.52069e-08
6.35542e-10
3.99013e-08
7.40086e-10
-4.1277e-08
-4.75525e-09
3.65188e-08
5.98399e-09
-3.77476e-08
1.2722e-08
3.99532e-07
-3.89557e-07
-2.26971e-08
2.63795e-08
1.21912e-07
-2.29882e-08
-1.25303e-07
8.71976e-09
2.76048e-07
-3.70376e-09
-2.81064e-07
-9.03073e-09
2.7228e-07
1.31368e-08
-2.76386e-07
-3.1238e-08
2.0959e-07
3.36134e-08
-2.11965e-07
-3.14359e-08
2.05349e-07
3.44947e-08
-2.08408e-07
-5.0161e-08
2.617e-07
5.95025e-08
-2.71041e-07
-6.2659e-08
1.1684e-07
5.88748e-08
-1.13056e-07
-7.21889e-08
4.83993e-08
7.73999e-08
-5.36102e-08
-1.06056e-07
4.38577e-08
1.05287e-07
-4.30875e-08
-9.0975e-08
-4.81508e-07
7.68546e-08
4.95627e-07
-2.71676e-08
-4.70388e-07
1.72056e-08
4.8035e-07
9.77807e-09
-3.51123e-07
-1.7487e-08
3.58832e-07
3.52828e-08
-2.22574e-07
-3.85852e-08
2.25877e-07
4.05695e-08
-1.19072e-07
-3.72777e-08
1.1578e-07
4.47741e-09
-5.45429e-08
-9.91687e-09
5.99824e-08
3.99235e-08
-1.08417e-07
-4.75607e-08
1.16054e-07
6.74444e-08
-6.08347e-08
-7.29859e-08
6.63761e-08
7.62846e-08
4.0596e-08
-7.08012e-08
-4.60794e-08
5.33491e-08
5.60738e-08
-5.20268e-08
-5.73961e-08
4.93646e-08
6.09574e-08
-4.78264e-08
-6.24956e-08
4.33701e-08
6.41692e-08
-4.18963e-08
-6.5643e-08
3.74219e-08
6.48723e-08
-3.5955e-08
-6.63392e-08
3.14443e-08
6.37554e-08
-2.99553e-08
-6.52445e-08
2.5372e-08
6.12834e-08
-2.38629e-08
-6.27925e-08
1.92431e-08
5.78034e-08
-1.77304e-08
-5.93161e-08
1.3123e-08
5.37804e-08
-1.16228e-08
-5.52806e-08
7.0857e-09
4.95362e-08
-5.61998e-09
-5.10019e-08
1.2362e-09
4.5446e-08
1.62505e-10
-4.68447e-08
-4.27953e-09
4.15516e-08
5.56899e-09
-4.28411e-08
1.4125e-08
4.41971e-07
-4.30961e-07
-2.51355e-08
2.818e-08
1.35885e-07
-2.45199e-08
-1.39546e-07
9.12337e-09
2.96264e-07
-4.01425e-09
-3.01373e-07
-8.75415e-09
2.88557e-07
1.27382e-08
-2.92541e-07
-3.33898e-08
2.18869e-07
3.56132e-08
-2.21092e-07
-2.97034e-08
2.17845e-07
3.2971e-08
-2.21112e-07
-5.08981e-08
3.01245e-07
6.11199e-08
-3.11466e-07
-5.98685e-08
9.7197e-08
5.62234e-08
-9.35519e-08
-7.30657e-08
6.55201e-08
7.34344e-08
-6.58889e-08
-8.40301e-08
4.99213e-08
9.06973e-08
-5.6589e-08
-9.4005e-08
-5.426e-07
7.85992e-08
5.58006e-07
-2.44792e-08
-5.08438e-07
1.32263e-08
5.19691e-07
1.42021e-08
-3.8306e-07
-2.23624e-08
3.9122e-07
4.21372e-08
-2.358e-07
-4.54776e-08
2.3914e-07
4.12026e-08
-9.37796e-08
-2.89445e-08
8.15216e-08
-7.23205e-09
-9.09778e-08
-2.49407e-09
1.00704e-07
4.04201e-08
-1.42267e-07
-5.01098e-08
1.51956e-07
7.46315e-08
-8.54682e-08