/*--------------------------------*- C++ -*----------------------------------*\
| =========                 |                                                 |
| \\      /  F ield         | OpenFOAM: The Open Source CFD Toolbox           |
|  \\    /   O peration     | Version:  2.4.0                                 |
|   \\  /    A nd           | Web:      www.OpenFOAM.org                      |
|    \\/     M anipulation  |                                                 |
\*---------------------------------------------------------------------------*/
FoamFile
{
    version     2.0;
    format      ascii;
    class       volVectorField;
    location    "0.089";
    object      U;
}
// * * * * * * * * * * * * * * * * * * * * * * * * * * * * * * * * * * * * * //

dimensions      [0 1 -1 0 0 0 0];

internalField   nonuniform List<vector> 
57600
(
(-0.00309192 0.000204545 0)
(-0.00631641 5.95047e-05 0)
(-0.0102084 3.98148e-05 0)
(-0.0123987 -8.2516e-07 0)
(-0.0115191 -8.39856e-05 0)
(-0.00698322 -0.000147913 0)
(-0.000876766 -0.000161038 0)
(0.00515695 -0.000146915 0)
(0.0105712 -0.000113805 0)
(0.0153404 -8.99674e-05 0)
(0.0201755 -0.000102793 0)
(0.0251951 -0.000106107 0)
(0.0293633 -5.34298e-05 0)
(0.0314832 5.7528e-05 0)
(0.030855 0.000209201 0)
(0.0275193 0.000352628 0)
(0.0223344 0.000435648 0)
(0.016489 0.000442792 0)
(0.0109482 0.00039055 0)
(0.00628599 0.000303011 0)
(0.00271536 0.000202575 0)
(0.000210661 0.000103473 0)
(-0.00137934 1.26882e-05 0)
(-0.00224103 -6.7172e-05 0)
(-0.00255027 -0.000137333 0)
(-0.0024623 -0.000197007 0)
(-0.00211037 -0.000243992 0)
(-0.0016143 -0.000275408 0)
(-0.00107432 -0.000290327 0)
(-0.000560091 -0.00029225 0)
(-0.00409221 0.000862182 0)
(-0.0131786 0.000571749 0)
(-0.0207805 0.000454203 0)
(-0.0262879 0.000174945 0)
(-0.0270414 -0.000418725 0)
(-0.0219666 -0.000926709 0)
(-0.0133022 -0.0012029 0)
(-0.00264926 -0.00138853 0)
(0.00918678 -0.00152657 0)
(0.021707 -0.00174843 0)
(0.0350251 -0.00205468 0)
(0.0483943 -0.00211794 0)
(0.060191 -0.00173951 0)
(0.0689588 -0.000919648 0)
(0.0737927 0.000234109 0)
(0.0745121 0.00144073 0)
(0.071823 0.00240929 0)
(0.0667799 0.00303757 0)
(0.0602936 0.00333755 0)
(0.053092 0.00336016 0)
(0.0457579 0.00318195 0)
(0.0387059 0.00288595 0)
(0.0321734 0.00254154 0)
(0.0262498 0.00219407 0)
(0.0209313 0.00187167 0)
(0.0161739 0.00159556 0)
(0.0119115 0.00138626 0)
(0.00807966 0.00125976 0)
(0.00462123 0.00121361 0)
(0.00149121 0.0012228 0)
(-0.00420846 0.00158757 0)
(-0.0138423 0.00120017 0)
(-0.0220221 0.00102351 0)
(-0.0282806 0.000536978 0)
(-0.029765 -0.000612952 0)
(-0.0251214 -0.00168911 0)
(-0.0165191 -0.00238448 0)
(-0.00553903 -0.00293567 0)
(0.00686259 -0.00337448 0)
(0.019952 -0.00391195 0)
(0.0338182 -0.00456806 0)
(0.0477507 -0.00476665 0)
(0.0601591 -0.00416411 0)
(0.069657 -0.00276457 0)
(0.0754102 -0.000724088 0)
(0.0772286 0.00150082 0)
(0.0758588 0.00338633 0)
(0.0723783 0.00478155 0)
(0.0675669 0.00574025 0)
(0.0619015 0.00632857 0)
(0.0557138 0.00661595 0)
(0.0492609 0.00668726 0)
(0.0427382 0.00663128 0)
(0.0362749 0.00652312 0)
(0.0299441 0.00641425 0)
(0.0237969 0.00633396 0)
(0.0178818 0.00629598 0)
(0.0122701 0.00629965 0)
(0.00704402 0.00632851 0)
(0.00226542 0.00636224 0)
(-0.0042427 0.00232211 0)
(-0.0139145 0.00184291 0)
(-0.0221737 0.0016157 0)
(-0.0286026 0.000933759 0)
(-0.0302563 -0.000780543 0)
(-0.0256563 -0.00243864 0)
(-0.0170591 -0.00356823 0)
(-0.00603817 -0.00450414 0)
(0.0064357 -0.00524852 0)
(0.0195327 -0.00609726 0)
(0.0334631 -0.00711705 0)
(0.0475685 -0.00746334 0)
(0.0601907 -0.00664301 0)
(0.0698881 -0.00467184 0)
(0.0757648 -0.00173501 0)
(0.0774713 0.00152777 0)
(0.0757826 0.00431234 0)
(0.0719032 0.00642173 0)
(0.0666714 0.00797992 0)
(0.0606194 0.00908955 0)
(0.054144 0.00983296 0)
(0.0475399 0.0103071 0)
(0.0410013 0.0106169 0)
(0.0346351 0.0108579 0)
(0.028488 0.0110981 0)
(0.0225804 0.0113655 0)
(0.0169312 0.0116461 0)
(0.0115893 0.0118936 0)
(0.00662298 0.0120566 0)
(0.0020872 0.0121235 0)
(-0.00427802 0.00306106 0)
(-0.0139282 0.00248777 0)
(-0.0222099 0.00221353 0)
(-0.0287516 0.00134483 0)
(-0.0305077 -0.000944154 0)
(-0.0258673 -0.00319137 0)
(-0.0172413 -0.00475404 0)
(-0.00620111 -0.00607894 0)
(0.00629776 -0.00712346 0)
(0.0193237 -0.00827669 0)
(0.0332839 -0.00968865 0)
(0.0476074 -0.0102093 0)
(0.0605445 -0.00918359 0)
(0.0705825 -0.00664811 0)
(0.076778 -0.00278062 0)
(0.0785309 0.00160513 0)
(0.076654 0.00534311 0)
(0.0725272 0.00820477 0)
(0.0669875 0.0104109 0)
(0.0605222 0.0120849 0)
(0.053547 0.0132959 0)
(0.0464287 0.0141408 0)
(0.0394414 0.0147474 0)
(0.0327588 0.0152357 0)
(0.0264748 0.0156962 0)
(0.0206335 0.0161679 0)
(0.0152442 0.0166291 0)
(0.0103091 0.01701 0)
(0.00582282 0.017242 0)
(0.00176962 0.0173191 0)
(-0.00432313 0.00380517 0)
(-0.0139376 0.00313346 0)
(-0.0222383 0.00281557 0)
(-0.0289123 0.00177053 0)
(-0.0307907 -0.00110682 0)
(-0.0260911 -0.00395062 0)
(-0.0174351 -0.0059409 0)
(-0.00638371 -0.00765765 0)
(0.00614167 -0.00899469 0)
(0.0190613 -0.0104423 0)
(0.0330497 -0.0122874 0)
(0.047651 -0.01302 0)
(0.0609936 -0.0118088 0)
(0.0714625 -0.00872902 0)
(0.0781173 -0.0039003 0)
(0.0799637 0.00171337 0)
(0.0778867 0.0064447 0)
(0.0735771 0.0100594 0)
(0.0678841 0.0129415 0)
(0.0612184 0.0152325 0)
(0.053978 0.0169605 0)
(0.0465519 0.0182074 0)
(0.0392501 0.0191075 0)
(0.0322866 0.0197975 0)
(0.0257957 0.0203861 0)
(0.0198563 0.0209276 0)
(0.0144928 0.0214155 0)
(0.00969118 0.0217946 0)
(0.00540384 0.0220112 0)
(0.0015685 0.0220677 0)
(-0.00437977 0.00455577 0)
(-0.0139472 0.0037799 0)
(-0.0222686 0.00342242 0)
(-0.029105 0.00221463 0)
(-0.0311382 -0.00126852 0)
(-0.0263638 -0.00471798 0)
(-0.0176753 -0.00712822 0)
(-0.00661324 -0.00924112 0)
(0.00595428 -0.0108622 0)
(0.0187305 -0.0125877 0)
(0.0327452 -0.0149201 0)
(0.0476863 -0.0159115 0)
(0.0615341 -0.0145387 0)
(0.0725045 -0.0109494 0)
(0.0797946 -0.00512789 0)
(0.0817633 0.00186572 0)
(0.0794007 0.00762811 0)
(0.0748944 0.0119667 0)
(0.0690843 0.0155302 0)
(0.0622639 0.0184693 0)
(0.0548218 0.0207455 0)
(0.0471821 0.0224138 0)
(0.0396816 0.0236142 0)
(0.0325433 0.0244988 0)
(0.0259061 0.0251881 0)
(0.0198538 0.0257497 0)
(0.0144149 0.0261994 0)
(0.00957395 0.0265141 0)
(0.00527572 0.0266712 0)
(0.00144808 0.0266851 0)
(-0.00444942 0.00531425 0)
(-0.013957 0.00442705 0)
(-0.0223006 0.00403479 0)
(-0.029331 0.00268158 0)
(-0.0315552 -0.00142905 0)
(-0.0266868 -0.00549526 0)
(-0.0179632 -0.00831554 0)
(-0.00689182 -0.0108307 0)
(0.00574114 -0.0127269 0)
(0.018326 -0.0147046 0)
(0.0323596 -0.017595 0)
(0.0477036 -0.0188992 0)
(0.0621759 -0.0173891 0)
(0.0736755 -0.0133548 0)
(0.0818521 -0.00651095 0)
(0.0839717 0.0020892 0)
(0.0811807 0.00891846 0)
(0.076461 0.0139182 0)
(0.0705698 0.0181655 0)
(0.0636004 0.021791 0)
(0.0559364 0.0246414 0)
(0.0480683 0.026735 0)
(0.0403731 0.0282284 0)
(0.0330805 0.0292986 0)
(0.026317 0.030082 0)
(0.0201502 0.0306599 0)
(0.0145977 0.0310672 0)
(0.00964389 0.0313108 0)
(0.00524139 0.0313961 0)
(0.00132812 0.0313513 0)
(-0.00453376 0.00608219 0)
(-0.0139664 0.00507479 0)
(-0.022333 0.00465322 0)
(-0.0295901 0.00317624 0)
(-0.0320449 -0.00158836 0)
(-0.027059 -0.00628458 0)
(-0.0182987 -0.00950224 0)
(-0.00722127 -0.0124279 0)
(0.00551027 -0.0145904 0)
(0.0178404 -0.0167811 0)
(0.0318802 -0.0203232 0)
(0.0476882 -0.0219963 0)
(0.0629445 -0.0203602 0)
(0.0749068 -0.0160103 0)
(0.0843542 -0.00812317 0)
(0.0866509 0.00243126 0)
(0.0831962 0.010352 0)
(0.0782597 0.0158961 0)
(0.072356 0.0208335 0)
(0.0652426 0.0252074 0)
(0.0573094 0.0286688 0)
(0.0491578 0.0311892 0)
(0.041225 0.03296 0)
(0.0337496 0.0341997 0)
(0.0268389 0.0350722 0)
(0.0205361 0.0356755 0)
(0.0148411 0.0360588 0)
(0.00973506 0.0362459 0)
(0.0051843 0.036259 0)
(0.00114648 0.0361364 0)
(-0.00463485 0.00686132 0)
(-0.013975 0.005723 0)
(-0.0223641 0.00527815 0)
(-0.0298815 0.00370406 0)
(-0.0326115 -0.00174659 0)
(-0.0274786 -0.00708849 0)
(-0.0186817 -0.0106875 0)
(-0.00760432 -0.0140344 0)
(0.00527245 -0.0164569 0)
(0.0172641 -0.0188009 0)
(0.0312928 -0.0231228 0)
(0.0476186 -0.025212 0)
(0.0638899 -0.0234117 0)
(0.0760758 -0.0190102 0)
(0.0874062 -0.0100882 0)
(0.0898972 0.00297026 0)
(0.0853837 0.0119785 0)
(0.0802643 0.0178632 0)
(0.0744717 0.0235107 0)
(0.0672214 0.0287343 0)
(0.0589504 0.0328623 0)
(0.0504375 0.0358105 0)
(0.042208 0.0378361 0)
(0.0345078 0.0392239 0)
(0.0274195 0.0401784 0)
(0.0209549 0.0408189 0)
(0.0150894 0.0412045 0)
(0.00979537 0.0413612 0)
(0.00505004 0.0413086 0)
(0.000838394 0.0410812 0)
(-0.00475513 0.00765355 0)
(-0.0139822 0.00637145 0)
(-0.0223921 0.00590973 0)
(-0.0302046 0.00427113 0)
(-0.0332599 -0.00190406 0)
(-0.0279431 -0.00790995 0)
(-0.0191119 -0.0118703 0)
(-0.008045 -0.0156514 0)
(0.00504256 -0.0183341 0)
(0.0165841 -0.0207407 0)
(0.0305848 -0.0260265 0)
(0.0474647 -0.0285548 0)
(0.0650744 -0.0264242 0)
(0.0770294 -0.0224916 0)
(0.0912038 -0.0126237 0)
(0.093868 0.00383089 0)
(0.0876161 0.013861 0)
(0.082437 0.0197481 0)
(0.0769672 0.026159 0)
(0.0695879 0.0323986 0)
(0.0608722 0.0372708 0)
(0.0518957 0.0406428 0)
(0.0433014 0.0428888 0)
(0.0353368 0.0443941 0)
(0.0280479 0.0454185 0)
(0.0214063 0.0461083 0)
(0.0153529 0.0465308 0)
(0.00983506 0.0467053 0)
(0.00482466 0.0466174 0)
(0.000363053 0.0462508 0)
(-0.00489755 0.00846109 0)
(-0.0139873 0.00701988 0)
(-0.0224151 0.00654783 0)
(-0.0305584 0.00488433 0)
(-0.0339961 -0.00206139 0)
(-0.0284494 -0.00875249 0)
(-0.0195889 -0.0130492 0)
(-0.00854913 -0.0172797 0)
(0.00484053 -0.0202341 0)
(0.0157818 -0.0225675 0)
(0.0297511 -0.0290909 0)
(0.0471929 -0.0320533 0)
(0.0663708 -0.0292229 0)
(0.0777264 -0.0266313 0)
(0.0961468 -0.0160896 0)
(0.0988496 0.00520973 0)
(0.0896513 0.0160642 0)
(0.0847305 0.0214223 0)
(0.0799313 0.0287202 0)
(0.0724147 0.036246 0)
(0.0630881 0.0419646 0)
(0.053512 0.0457381 0)
(0.0444783 0.0481499 0)
(0.0362162 0.0497266 0)
(0.0287196 0.050799 0)
(0.0219072 0.0515461 0)
(0.0156764 0.0520476 0)
(0.00993226 0.0523301 0)
(0.00454762 0.052379 0)
(-0.000665673 0.052034 0)
(-0.00506564 0.00928651 0)
(-0.0139895 0.00766805 0)
(-0.0224306 0.00719202 0)
(-0.0309414 0.00555158 0)
(-0.0348273 -0.00221949 0)
(-0.0289932 -0.00962038 0)
(-0.020113 -0.0142227 0)
(-0.00912466 -0.0189188 0)
(0.00469146 -0.0221777 0)
(0.014829 -0.0242347 0)
(0.0288144 -0.0324002 0)
(0.0467812 -0.0358032 0)
(0.0668273 -0.031987 0)
(0.0781175 -0.0309907 0)
(0.102575 -0.0207788 0)
(0.105364 0.00742275 0)
(0.0910559 0.0185991 0)
(0.0871025 0.0226685 0)
(0.0835194 0.0311122 0)
(0.0758093 0.0403593 0)
(0.0656046 0.0470449 0)
(0.0552493 0.0511603 0)
(0.045696 0.0536496 0)
(0.0371162 0.0552283 0)
(0.0294244 0.0563111 0)
(0.0224734 0.057112 0)
(0.0161126 0.0577218 0)
(0.0102374 0.0581755 0)
(0.00479234 0.0585827 0)
(-0.000217272 0.0590211 0)
(-0.00526364 0.0101327 0)
(-0.0139879 0.00831562 0)
(-0.0224365 0.00784138 0)
(-0.0313514 0.00628192 0)
(-0.0357621 -0.00237947 0)
(-0.0295689 -0.0105186 0)
(-0.0206843 -0.015389 0)
(-0.00978208 -0.0205654 0)
(0.00462971 -0.0242008 0)
(0.0136816 -0.0256778 0)
(0.0278671 -0.0360668 0)
(0.0462627 -0.0399958 0)
(0.065855 -0.0358214 0)
(0.0800301 -0.033528 0)
(0.110596 -0.0263186 0)
(0.113813 0.0112449 0)
(0.0915433 0.0212595 0)
(0.0895553 0.0231666 0)
(0.0880026 0.0332266 0)
(0.0799222 0.0448908 0)
(0.0684073 0.0526567 0)
(0.0570427 0.0569824 0)
(0.0468929 0.0594119 0)
(0.0379902 0.0608938 0)
(0.0301384 0.061926 0)
(0.0231108 0.0627601 0)
(0.0166861 0.0634941 0)
(0.0107066 0.0640932 0)
(0.00524928 0.0643274 0)
(0.00115554 0.0628845 0)
(-0.00549661 0.0110032 0)
(-0.0139816 0.00896239 0)
(-0.0224299 0.0084945 0)
(-0.031786 0.00708595 0)
(-0.0368112 -0.00254306 0)
(-0.0301692 -0.0114534 0)
(-0.0213037 -0.0165459 0)
(-0.0105346 -0.0222114 0)
(0.00470116 -0.0263628 0)
(0.0122704 -0.0268161 0)
(0.0271737 -0.0402408 0)
(0.0458137 -0.0448414 0)
(0.0698614 -0.0415658 0)
(0.076027 -0.0321591 0)
(0.125335 -0.0334131 0)
(0.12321 0.0182604 0)
(0.0896086 0.024484 0)
(0.0910709 0.0222547 0)
(0.0938189 0.0349104 0)
(0.0849485 0.0501228 0)
(0.0714268 0.0590041 0)
(0.0587839 0.0632792 0)
(0.0479824 0.0654505 0)
(0.0387738 0.0667036 0)
(0.0308202 0.067594 0)
(0.0238145 0.0684135 0)
(0.0174503 0.0693045 0)
(0.0113872 0.070271 0)
(0.00515423 0.070888 0)
(-0.00107171 0.0691243 0)
(-0.0057706 0.0119019 0)
(-0.0139693 0.00960823 0)
(-0.0224082 0.00914931 0)
(-0.0322414 0.00797602 0)
(-0.0379869 -0.00271216 0)
(-0.0307843 -0.0124319 0)
(-0.021973 -0.0176916 0)
(-0.0113988 -0.0238408 0)
(0.00496627 -0.0287619 0)
(0.010489 -0.0275589 0)
(0.0274579 -0.0450892 0)
(0.0460723 -0.0505247 0)
(0.0819099 -0.0475069 0)
(0.0566036 -0.0262047 0)
(0.151676 -0.0390405 0)
(0.134987 0.0265931 0)
(0.0792472 0.0335833 0)
(0.0912511 0.0167975 0)
(0.102215 0.0359621 0)
(0.0911321 0.0565889 0)
(0.0744838 0.0663523 0)
(0.0603083 0.070108 0)
(0.0488534 0.0717595 0)
(0.0393816 0.0726248 0)
(0.0313989 0.0732481 0)
(0.024544 0.0739472 0)
(0.0184863 0.074938 0)
(0.0128726 0.0764206 0)
(0.00720772 0.078378 0)
(0.000869944 0.0763338 0)
(-0.00609279 0.0128338 0)
(-0.0139499 0.0102532 0)
(-0.0223687 0.00980299 0)
(-0.032713 0.00896668 0)
(-0.0393045 -0.00288916 0)
(-0.0314012 -0.0134629 0)
(-0.0226957 -0.0188239 0)
(-0.0123933 -0.0254252 0)
(0.00550418 -0.0315599 0)
(0.00818913 -0.0278057 0)
(0.0307712 -0.0508421 0)
(0.0508681 -0.0566384 0)
(0.0937741 -0.0534877 0)
(0.0756094 -0.021326 0)
(0.180235 -0.0387011 0)
(0.153394 0.0332653 0)
(0.0945307 0.0512276 0)
(0.109914 0.00482744 0)
(0.117964 0.0380227 0)
(0.0986906 0.065393 0)
(0.0771811 0.0749967 0)
(0.0613905 0.0774629 0)
(0.0493822 0.0783053 0)
(0.0397125 0.0786169 0)
(0.0317676 0.0788184 0)
(0.0251729 0.079216 0)
(0.0196366 0.0800482 0)
(0.0149583 0.0815575 0)
(0.0110592 0.0838612 0)
(0.00740121 0.0829198 0)
(-0.00647165 0.0138047 0)
(-0.0139219 0.0108977 0)
(-0.0223084 0.0104518 0)
(-0.0331945 0.0100752 0)
(-0.0407819 -0.00307678 0)
(-0.0320031 -0.0145573 0)
(-0.0234782 -0.0199418 0)
(-0.0135373 -0.0269164 0)
(0.00642084 -0.0350247 0)
(0.00517344 -0.0274071 0)
(0.0400483 -0.057908 0)
(0.0561806 -0.0574696 0)
(0.125859 -0.0579083 0)
(0.144778 -0.0448078 0)
(0.166392 -0.0601041 0)
(0.171011 0.041797 0)
(0.138607 0.0628155 0)
(0.161078 -0.00726298 0)
(0.14252 0.0465784 0)
(0.106483 0.0783896 0)
(0.0786927 0.0850792 0)
(0.0617791 0.0852077 0)
(0.0494595 0.0850235 0)
(0.039662 0.0846438 0)
(0.0317917 0.0842582 0)
(0.0254953 0.084139 0)
(0.0205082 0.084482 0)
(0.0167018 0.085417 0)
(0.0141052 0.0869279 0)
(0.0124046 0.0867066 0)
(-0.00691733 0.0148216 0)
(-0.0138835 0.0115426 0)
(-0.0222251 0.0110911 0)
(-0.0336775 0.0113223 0)
(-0.0424408 -0.00327809 0)
(-0.032568 -0.0157286 0)
(-0.0243316 -0.0210455 0)
(-0.0148445 -0.0282385 0)
(0.00787498 -0.0396112 0)
(0.00114037 -0.0261659 0)
(0.0365461 -0.0660867 0)
(0.0241577 -0.0672809 0)
(0.0958445 -0.0646049 0)
(0.161425 -0.0758315 0)
(0.109617 -0.088223 0)
(0.184045 0.0446637 0)
(0.213075 0.0508119 0)
(0.232261 -0.00379669 0)
(0.168379 0.0679247 0)
(0.110669 0.0968268 0)
(0.0778099 0.0960135 0)
(0.0613384 0.0929995 0)
(0.0490314 0.0918459 0)
(0.0391302 0.0906881 0)
(0.0313315 0.0895581 0)
(0.0253066 0.0887281 0)
(0.0207604 0.088341 0)
(0.0175201 0.0884104 0)
(0.015508 0.088819 0)
(0.0144535 0.0883945 0)
(-0.00744176 0.0158931 0)
(-0.0138331 0.0121897 0)
(-0.0221164 0.0117148 0)
(-0.034151 0.0127327 0)
(-0.0443068 -0.00349576 0)
(-0.0330665 -0.0169945 0)
(-0.0252746 -0.0221382 0)
(-0.0163115 -0.029276 0)
(0.0101165 -0.0461166 0)
(-0.00452757 -0.023887 0)
(-0.0358579 -0.0740291 0)
(0.0105706 -0.109452 0)
(-0.0157392 -0.0723016 0)
(0.120432 -0.0805155 0)
(0.0162258 -0.0940445 0)
(0.160287 0.0229389 0)
(0.288524 0.02304 0)
(0.268443 0.0184592 0)
(0.18082 0.101573 0)
(0.108966 0.119487 0)
(0.0758131 0.106588 0)
(0.0604959 0.10048 0)
(0.0481292 0.0987694 0)
(0.0380269 0.096774 0)
(0.0302612 0.094738 0)
(0.0244595 0.0930445 0)
(0.0202299 0.0918102 0)
(0.0173023 0.0909639 0)
(0.0155119 0.0903692 0)
(0.014593 0.089446 0)
(-0.00805905 0.0170297 0)
(-0.0137684 0.0128417 0)
(-0.021981 0.0123157 0)
(-0.0346003 0.0143367 0)
(-0.0464101 -0.00373212 0)
(-0.0334599 -0.0183793 0)
(-0.0263389 -0.0232294 0)
(-0.0178967 -0.0298583 0)
(0.0114171 -0.0553803 0)
(-0.0129137 -0.0211568 0)
(-0.0737729 -0.0895811 0)
(-0.0192089 -0.116501 0)
(0.00417057 -0.0933086 0)
(-0.00129271 -0.0662239 0)
(-0.0564557 -0.077029 0)
(0.125671 -0.0475331 0)
(0.29585 0.0211377 0)
(0.224432 0.0444712 0)
(0.167476 0.135893 0)
(0.100931 0.142107 0)
(0.0746852 0.115853 0)
(0.0601913 0.108133 0)
(0.0467903 0.106004 0)
(0.0362106 0.102959 0)
(0.0284451 0.0998073 0)
(0.0228712 0.0971352 0)
(0.0188859 0.0950336 0)
(0.0161096 0.0933258 0)
(0.0143807 0.0917809 0)
(0.0138135 0.0899281 0)
(-0.00878588 0.0182444 0)
(-0.0136871 0.013503 0)
(-0.0218184 0.0128856 0)
(-0.0350062 0.0161713 0)
(-0.0487863 -0.00398806 0)
(-0.0336949 -0.0199187 0)
(-0.0275758 -0.0243404 0)
(-0.0194841 -0.0297371 0)
(-0.0112108 -0.0624254 0)
(-0.0250302 -0.0208407 0)
(-0.0479801 -0.0873254 0)
(-0.0318779 -0.0950638 0)
(-0.0194785 -0.0619241 0)
(-0.0543451 -0.0478608 0)
(-0.0941769 -0.0705211 0)
(-0.745272 -0.102657 0)
(0.209422 0.0869798 0)
(0.136466 0.0487802 0)
(0.132642 0.157828 0)
(0.0918669 0.161263 0)
(0.0704601 0.122234 0)
(0.0595879 0.116428 0)
(0.0447795 0.113832 0)
(0.0335953 0.109327 0)
(0.0257788 0.10476 0)
(0.0205146 0.100981 0)
(0.0168138 0.0980845 0)
(0.0140779 0.0957107 0)
(0.0120021 0.0933835 0)
(0.0106449 0.0896159 0)
(-0.00964185 0.019554 0)
(-0.0135866 0.0141803 0)
(-0.02163 0.0134145 0)
(-0.0353432 0.0182822 0)
(-0.0514762 -0.00426143 0)
(-0.0336974 -0.0216665 0)
(-0.0290675 -0.0255109 0)
(-0.0208173 -0.0285533 0)
(-0.0742237 -0.0562017 0)
(-0.0339069 -0.0296518 0)
(0.225643 -0.0857106 0)
(0.667004 -0.0999734 0)
(0.375659 -0.0378924 0)
(0.0488275 -0.025206 0)
(-0.0138504 -0.0379662 0)
(-0.533444 0.0921662 0)
(-0.611008 -0.331331 0)
(0.0822425 0.0488802 0)
(0.0987241 0.161184 0)
(0.0863875 0.176352 0)
(0.0625334 0.125651 0)
(0.0569009 0.124154 0)
(0.0415335 0.122433 0)
(0.029386 0.115884 0)
(0.0219204 0.109417 0)
(0.0174037 0.104423 0)
(0.0142039 0.100908 0)
(0.0116277 0.0982244 0)
(0.00931278 0.0959578 0)
(0.00683053 0.0934719 0)
(-0.0106497 0.0209818 0)
(-0.013464 0.0148834 0)
(-0.0214196 0.0138917 0)
(-0.0355774 0.0207266 0)
(-0.0545258 -0.00454485 0)
(-0.0333603 -0.0237061 0)
(-0.0309428 -0.0268083 0)
(-0.0213199 -0.025844 0)
(-0.118258 -0.044251 0)
(-0.0399632 -0.0310441 0)
(0.697089 -0.135885 0)
(1.03548 -0.0354753 0)
(0.851778 0.0865246 0)
(0.282966 0.0327565 0)
(0.134444 -0.0135316 0)
(0.34941 0.149032 0)
(-0.37036 -0.121879 0)
(0.0700806 0.0108629 0)
(0.0639909 0.158566 0)
(0.10036 0.185432 0)
(0.0711022 0.133007 0)
(0.0544424 0.131685 0)
(0.0371955 0.132159 0)
(0.0231522 0.122669 0)
(0.0166808 0.113141 0)
(0.0137214 0.107083 0)
(0.0113636 0.10332 0)
(0.00912059 0.1006 0)
(0.00709885 0.0982719 0)
(0.00563825 0.0955151 0)
(-0.0118356 0.0225591 0)
(-0.0133167 0.0156267 0)
(-0.0211945 0.014306 0)
(-0.0356642 0.0235757 0)
(-0.0579852 -0.00482281 0)
(-0.0325238 -0.0261657 0)
(-0.0334001 -0.0283254 0)
(-0.0199103 -0.0213735 0)
(-0.112328 -0.0371687 0)
(0.150209 -0.0913464 0)
(0.442446 -0.195282 0)
(0.609188 -0.098169 0)
(0.907636 0.131907 0)
(0.552167 0.136139 0)
(0.285858 0.0106782 0)
(0.429043 0.0865902 0)
(0.0861375 -0.0039493 0)
(-0.0204292 -0.120108 0)
(0.0901038 0.129063 0)
(0.136191 0.182862 0)
(0.0981685 0.153195 0)
(0.0557968 0.144499 0)
(0.0327813 0.142987 0)
(0.0172105 0.130012 0)
(0.0110952 0.11543 0)
(0.0100461 0.108537 0)
(0.0087306 0.105183 0)
(0.00679379 0.102796 0)
(0.00468876 0.100395 0)
(0.00260675 0.0978509 0)
(-0.0132296 0.0243277 0)
(-0.0131426 0.0164306 0)
(-0.0209672 0.0146455 0)
(-0.0355444 0.0269194 0)
(-0.0619058 -0.0050686 0)
(-0.0309427 -0.0292358 0)
(-0.0367381 -0.0301612 0)
(-0.0154836 -0.0154535 0)
(-0.0559264 -0.0390189 0)
(1.93095 0.00321646 0)
(0.262746 -0.14357 0)
(0.563191 -0.193854 0)
(0.75938 0.0894381 0)
(0.720856 0.242792 0)
(0.409206 0.0513561 0)
(0.478504 0.043027 0)
(0.486043 0.0829895 0)
(0.10014 -0.750625 0)
(0.0175034 0.128427 0)
(0.147102 0.170425 0)
(0.116758 0.188309 0)
(0.0537419 0.165135 0)
(0.0306403 0.15363 0)
(0.0154527 0.138646 0)
(0.00777164 0.11683 0)
(0.00759442 0.108786 0)
(0.00694541 0.10658 0)
(0.00503042 0.105073 0)
(0.00241389 0.10316 0)
(-0.00076233 0.101928 0)
(-0.0148653 0.0263453 0)
(-0.0129397 0.0173246 0)
(-0.0207567 0.0148979 0)
(-0.03514 0.0308717 0)
(-0.0663373 -0.00523929 0)
(-0.0282263 -0.0331847 0)
(-0.0414256 -0.0323759 0)
(-0.0089329 -0.00837365 0)
(-0.0256891 -0.0334601 0)
(0.766389 -0.215206 0)
(0.17196 -0.142416 0)
(0.39772 -0.258938 0)
(0.551842 0.0322327 0)
(0.728247 0.309006 0)
(0.466095 0.105356 0)
(0.372825 0.0136838 0)
(0.410585 -0.00552969 0)
(0.106106 -0.191833 0)
(-0.0802452 0.0642713 0)
(0.0629994 0.139812 0)
(0.0787086 0.215727 0)
(0.0472068 0.183755 0)
(0.0335412 0.161875 0)
(0.0210164 0.14863 0)
(0.0100526 0.119425 0)
(0.00765487 0.109005 0)
(0.00653235 0.107924 0)
(0.00422621 0.107816 0)
(0.000787854 0.106969 0)
(-0.00330073 0.10721 0)
(-0.0167831 0.0286901 0)
(-0.0127067 0.0183496 0)
(-0.020591 0.0150502 0)
(-0.0343477 0.0355782 0)
(-0.071319 -0.00526978 0)
(-0.0237108 -0.0384042 0)
(-0.0485012 -0.0346808 0)
(-0.0101428 -0.00180375 0)
(-0.155208 -0.0434131 0)
(0.297143 -0.241263 0)
(0.125342 -0.154162 0)
(0.167716 -0.258015 0)
(0.283563 -0.0302306 0)
(0.596815 0.326562 0)
(0.44963 0.15835 0)
(0.353432 0.0127632 0)
(0.325034 -0.00992078 0)
(0.340638 -0.12204 0)
(0.0812812 -0.0354199 0)
(-0.0108884 0.119818 0)
(0.024649 0.210759 0)
(0.0324415 0.189608 0)
(0.037615 0.164036 0)
(0.0325729 0.159091 0)
(0.0164943 0.126072 0)
(0.0098373 0.110559 0)
(0.00785731 0.109785 0)
(0.00477559 0.111359 0)
(0.000376131 0.111863 0)
(-0.00438275 0.113011 0)
(-0.0190494 0.0313989 0)
(-0.0124451 0.0195614 0)
(-0.02051 0.0150902 0)
(-0.0330298 0.0412272 0)
(-0.0768673 -0.00506406 0)
(-0.016506 -0.0454918 0)
(-0.0608308 -0.0349863 0)
(-0.0460956 -0.00427125 0)
(0.154829 -0.375759 0)
(0.124866 -0.161843 0)
(0.0993911 -0.17253 0)
(-0.00987987 -0.261005 0)
(0.0589875 -0.078549 0)
(0.437644 0.279555 0)
(0.382441 0.196425 0)
(0.322126 0.0145528 0)
(0.292902 -0.000648747 0)
(0.190722 0.0885583 0)
(-0.165773 0.567386 0)
(0.0298157 0.0985843 0)
(-0.00980609 0.188872 0)
(0.0180715 0.184839 0)
(0.0335248 0.155971 0)
(0.0440883 0.167118 0)
(0.025505 0.138737 0)
(0.0142346 0.113454 0)
(0.0109473 0.112396 0)
(0.00670415 0.115909 0)
(0.00133914 0.117756 0)
(-0.00403433 0.119246 0)
(-0.0205152 0.0335124 0)
(-0.0121725 0.0210344 0)
(-0.0205726 0.0150093 0)
(-0.0310017 0.0480642 0)
(-0.0829549 -0.00448647 0)
(-0.013807 -0.0551746 0)
(-0.0787433 -0.0299081 0)
(-0.110175 -0.0244221 0)
(0.57273 -0.411017 0)
(0.0321211 -0.103749 0)
(0.0795462 -0.18061 0)
(-0.0306903 -0.241454 0)
(-0.0585956 -0.136358 0)
(0.27997 0.225327 0)
(0.307252 0.213445 0)
(0.278976 0.0472756 0)
(0.227982 0.00907223 0)
(0.134609 0.172802 0)
(-0.690544 0.395551 0)
(-0.17382 -0.0689443 0)
(-0.00206624 0.166759 0)
(0.0231271 0.173352 0)
(0.0395934 0.143936 0)
(0.0528678 0.16878 0)
(0.0396472 0.15497 0)
(0.0239454 0.118878 0)
(0.0167907 0.117042 0)
(0.0100756 0.121792 0)
(0.00357563 0.124681 0)
(-0.00262741 0.126138 0)
(-9.95209e-05 -0.000286828 0)
(0.000340246 -0.000277436 0)
(0.000784362 -0.000263744 0)
(0.00120833 -0.000243754 0)
(0.00156692 -0.00021399 0)
(0.00178399 -0.00017247 0)
(0.00175442 -0.00011954 0)
(0.00134791 -5.5927e-05 0)
(0.000405182 1.85572e-05 0)
(-0.00125552 0.000105152 0)
(-0.00381898 0.000199866 0)
(-0.00741905 0.000295528 0)
(-0.0120447 0.000376907 0)
(-0.0174375 0.000423521 0)
(-0.0230055 0.000411875 0)
(-0.027816 0.000329003 0)
(-0.0307926 0.000194525 0)
(-0.0312033 5.22711e-05 0)
(-0.0289396 -5.94817e-05 0)
(-0.0245965 -0.000111991 0)
(-0.0194341 -0.000106912 0)
(-0.0144648 -9.84231e-05 0)
(-0.00953063 -0.000119903 0)
(-0.00402326 -0.000150076 0)
(0.0022727 -0.000167556 0)
(0.00852878 -0.000143614 0)
(0.0124276 -6.19025e-05 0)
(0.0123016 1.58843e-05 0)
(0.00950299 4.95534e-05 0)
(0.00509785 7.52737e-05 0)
(-0.0014512 0.00125982 0)
(-0.004521 0.0013105 0)
(-0.00792523 0.00137496 0)
(-0.0116857 0.00146583 0)
(-0.0158323 0.00160463 0)
(-0.02041 0.00180368 0)
(-0.0254838 0.00206107 0)
(-0.0311127 0.00236383 0)
(-0.0373317 0.0026871 0)
(-0.0440912 0.00298534 0)
(-0.0511945 0.00319041 0)
(-0.0582502 0.00321654 0)
(-0.0646895 0.00299157 0)
(-0.0698604 0.00248286 0)
(-0.0730559 0.00168363 0)
(-0.0734344 0.000637655 0)
(-0.0702007 -0.000467799 0)
(-0.0630938 -0.00139582 0)
(-0.0524713 -0.00198823 0)
(-0.0394737 -0.00211774 0)
(-0.0258717 -0.00187638 0)
(-0.0129555 -0.00159015 0)
(-0.000932822 -0.00141391 0)
(0.0101693 -0.00128399 0)
(0.0199492 -0.00107851 0)
(0.0266903 -0.000606391 0)
(0.0276157 5.21683e-05 0)
(0.0228611 0.000425045 0)
(0.0155566 0.000535228 0)
(0.00652407 0.000609079 0)
(-0.00220998 0.00639026 0)
(-0.00682669 0.00640318 0)
(-0.0118567 0.00638836 0)
(-0.0172618 0.00634775 0)
(-0.0229788 0.00630973 0)
(-0.0289395 0.00630702 0)
(-0.0350978 0.0063515 0)
(-0.0414089 0.00642735 0)
(-0.0478129 0.00648585 0)
(-0.0541852 0.00644369 0)
(-0.0603183 0.00619916 0)
(-0.0659267 0.00566051 0)
(-0.0706751 0.00478257 0)
(-0.0742022 0.00356486 0)
(-0.076012 0.00197995 0)
(-0.0752761 4.09038e-05 0)
(-0.07112 -0.00193437 0)
(-0.063266 -0.00354985 0)
(-0.0520033 -0.00454876 0)
(-0.0384167 -0.00470066 0)
(-0.024261 -0.00416776 0)
(-0.0107883 -0.00352563 0)
(0.00179661 -0.00303098 0)
(0.0132906 -0.00259911 0)
(0.0231397 -0.00202745 0)
(0.0295745 -0.000994515 0)
(0.0298333 0.000307264 0)
(0.0242915 0.000983241 0)
(0.0163637 0.00114576 0)
(0.00683223 0.00125689 0)
(-0.0021552 0.0121185 0)
(-0.00652342 0.0120491 0)
(-0.0112748 0.0118898 0)
(-0.0163833 0.0116271 0)
(-0.0218068 0.0112989 0)
(-0.0275049 0.0109717 0)
(-0.033461 0.0106862 0)
(-0.0396592 0.0104319 0)
(-0.046062 0.0101423 0)
(-0.0525632 0.00970709 0)
(-0.0589616 0.00900107 0)
(-0.0649385 0.00792321 0)
(-0.0700849 0.00644194 0)
(-0.0739772 0.00457351 0)
(-0.0761005 0.00224144 0)
(-0.0755444 -0.00059559 0)
(-0.0713611 -0.00345161 0)
(-0.0633776 -0.00575312 0)
(-0.0519159 -0.0071615 0)
(-0.0381171 -0.00732588 0)
(-0.0238466 -0.00648489 0)
(-0.0103529 -0.0054845 0)
(0.00227125 -0.00467005 0)
(0.0137965 -0.00392153 0)
(0.0236713 -0.00297019 0)
(0.030097 -0.00136108 0)
(0.0302149 0.000597833 0)
(0.0244767 0.00156806 0)
(0.0164585 0.00177125 0)
(0.00687498 0.0019146 0)
(-0.00201242 0.0172833 0)
(-0.00591761 0.0171507 0)
(-0.0102009 0.0168951 0)
(-0.0148858 0.0165015 0)
(-0.019998 0.0160113 0)
(-0.0255559 0.015503 0)
(-0.0315712 0.0150244 0)
(-0.0380207 0.0145539 0)
(-0.0448322 0.0139987 0)
(-0.0518431 0.0132157 0)
(-0.0587683 0.0120492 0)
(-0.0651938 0.0103876 0)
(-0.0706399 0.00823798 0)
(-0.0747126 0.00567511 0)
(-0.076997 0.00256542 0)
(-0.0764882 -0.00123573 0)
(-0.0721144 -0.00501407 0)
(-0.0638727 -0.00800881 0)
(-0.052101 -0.00983221 0)
(-0.038012 -0.00998699 0)
(-0.0236287 -0.00880502 0)
(-0.0101816 -0.00744076 0)
(0.00242209 -0.00631017 0)
(0.0139455 -0.00524747 0)
(0.0238711 -0.00391898 0)
(0.0303637 -0.00172744 0)
(0.0304105 0.000903004 0)
(0.0245297 0.00216103 0)
(0.0164845 0.00239789 0)
(0.00689769 0.00257092 0)
(-0.00200021 0.0220055 0)
(-0.00569313 0.0218408 0)
(-0.00977188 0.0215532 0)
(-0.0142917 0.0211345 0)
(-0.0193182 0.0206192 0)
(-0.0249016 0.0200673 0)
(-0.0310592 0.019505 0)
(-0.0377495 0.0188863 0)
(-0.0448682 0.0180915 0)
(-0.0522122 0.0169479 0)
(-0.0594503 0.0152739 0)
(-0.0661086 0.0129596 0)
(-0.0716639 0.0100802 0)
(-0.0757874 0.00681461 0)
(-0.078215 0.00293331 0)
(-0.0777462 -0.00190756 0)
(-0.0730816 -0.00665059 0)
(-0.0645086 -0.0103386 0)
(-0.0523361 -0.0125826 0)
(-0.0378715 -0.0126937 0)
(-0.0233506 -0.0111236 0)
(-0.00997893 -0.00938841 0)
(0.00259163 -0.00794687 0)
(0.0141001 -0.00657578 0)
(0.0240832 -0.00487684 0)
(0.0306648 -0.00209732 0)
(0.0306287 0.0012232 0)
(0.0245759 0.00276115 0)
(0.0165079 0.00302393 0)
(0.00692439 0.00322385 0)
(-0.00210294 0.0265924 0)
(-0.00577225 0.0264056 0)
(-0.00982653 0.0261122 0)
(-0.0143312 0.0257133 0)
(-0.0193665 0.025232 0)
(-0.0249978 0.0246965 0)
(-0.0312533 0.0240974 0)
(-0.0380957 0.0233598 0)
(-0.0454209 0.0223373 0)
(-0.0530167 0.0208273 0)
(-0.0605183 0.0186161 0)
(-0.0673761 0.0155928 0)
(-0.0729832 0.0119288 0)
(-0.0770951 0.00798058 0)
(-0.0797207 0.00336504 0)
(-0.0793275 -0.00262703 0)
(-0.0742473 -0.00838455 0)
(-0.0652818 -0.0127612 0)
(-0.0526134 -0.0154373 0)
(-0.0376802 -0.0154575 0)
(-0.0229959 -0.0134377 0)
(-0.0097321 -0.0113252 0)
(0.00280354 -0.00957884 0)
(0.014291 -0.00790649 0)
(0.0243432 -0.00584583 0)
(0.031035 -0.00247182 0)
(0.0308934 0.00156238 0)
(0.0246269 0.00336976 0)
(0.0165348 0.00364907 0)
(0.00695764 0.00387224 0)
(-0.00228702 0.0312121 0)
(-0.00600387 0.0309896 0)
(-0.0100907 0.0306825 0)
(-0.0146168 0.0303048 0)
(-0.0196744 0.0298705 0)
(-0.0253468 0.0293743 0)
(-0.0316829 0.0287675 0)
(-0.0386645 0.0279416 0)
(-0.0462022 0.0267177 0)
(-0.0540824 0.0248528 0)
(-0.0618985 0.0220834 0)
(-0.0689893 0.0182818 0)
(-0.0745987 0.0137526 0)
(-0.0786016 0.00916567 0)
(-0.0815277 0.00390195 0)
(-0.0812801 -0.00341401 0)
(-0.0755987 -0.0102401 0)
(-0.0662006 -0.0152949 0)
(-0.0529315 -0.0184273 0)
(-0.0374283 -0.0182902 0)
(-0.0225552 -0.0157428 0)
(-0.00944464 -0.013249 0)
(0.00305884 -0.0112049 0)
(0.0145182 -0.00923996 0)
(0.0246523 -0.00682826 0)
(0.031479 -0.00285214 0)
(0.0312074 0.00192522 0)
(0.0246822 0.00398837 0)
(0.0165658 0.00427311 0)
(0.00699823 0.00451483 0)
(-0.00255918 0.0359187 0)
(-0.00633129 0.0356238 0)
(-0.0104363 0.0352737 0)
(-0.014959 0.0349071 0)
(-0.0200229 0.0345307 0)
(-0.0257384 0.0340999 0)
(-0.0321746 0.0335212 0)
(-0.0393326 0.0326474 0)
(-0.0471399 0.0312603 0)
(-0.0553833 0.0290609 0)
(-0.0636078 0.0257094 0)
(-0.0709934 0.0210297 0)
(-0.0765321 0.0155015 0)
(-0.0802455 0.0103534 0)
(-0.0836566 0.00461954 0)
(-0.0836802 -0.00429578 0)
(-0.077107 -0.0122365 0)
(-0.0672804 -0.017955 0)
(-0.0532892 -0.021596 0)
(-0.0371055 -0.021203 0)
(-0.0220166 -0.0180329 0)
(-0.00912216 -0.0151581 0)
(0.00335832 -0.0128235 0)
(0.0147799 -0.0105766 0)
(0.0250098 -0.00782669 0)
(0.0319998 -0.00323981 0)