/*--------------------------------*- C++ -*----------------------------------*\
| =========                 |                                                 |
| \\      /  F ield         | OpenFOAM: The Open Source CFD Toolbox           |
|  \\    /   O peration     | Version:  2.4.0                                 |
|   \\  /    A nd           | Web:      www.OpenFOAM.org                      |
|    \\/     M anipulation  |                                                 |
\*---------------------------------------------------------------------------*/
FoamFile
{
    version     2.0;
    format      ascii;
    class       surfaceScalarField;
    location    "0.153";
    object      phi;
}
// * * * * * * * * * * * * * * * * * * * * * * * * * * * * * * * * * * * * * //

dimensions      [0 3 -1 0 0 0 0];

internalField   nonuniform List<scalar> 
19800
(
1.81654e-13
-1.81652e-13
9.5542e-13
-7.79793e-13
2.05241e-12
-1.09716e-12
3.23805e-12
-1.18319e-12
4.37521e-12
-1.13496e-12
5.37987e-12
-1.00325e-12
6.20114e-12
-8.20636e-13
6.82458e-12
-6.23797e-13
7.27379e-12
-4.50657e-13
7.60169e-12
-3.29951e-13
7.87706e-12
-2.77089e-13
8.17091e-12
-2.94501e-13
8.54695e-12
-3.75516e-13
9.05179e-12
-5.03778e-13
9.70913e-12
-6.56676e-13
1.05221e-11
-8.13368e-13
1.14808e-11
-9.60123e-13
1.25717e-11
-1.09267e-12
1.37855e-11
-1.21514e-12
1.51219e-11
-1.33675e-12
1.65897e-11
-1.46708e-12
1.82024e-11
-1.61154e-12
1.99714e-11
-1.76813e-12
2.18976e-11
-1.92621e-12
2.39639e-11
-2.06731e-12
2.61295e-11
-2.1674e-12
2.83275e-11
-2.20009e-12
3.04663e-11
-2.14063e-12
3.24354e-11
-1.97041e-12
3.41162e-11
-1.6816e-12
3.53959e-11
-1.28003e-12
3.61791e-11
-7.83143e-13
3.63934e-11
-2.1405e-13
3.59873e-11
4.06165e-13
3.49136e-11
1.07348e-12
3.31451e-11
1.76775e-12
3.06427e-11
2.50098e-12
2.7373e-11
3.26814e-12
2.33087e-11
4.06329e-12
1.84343e-11
4.87411e-12
1.27528e-11
5.68214e-12
6.28904e-12
6.46465e-12
-9.07812e-13
7.19727e-12
-8.76409e-12
7.85614e-12
-1.71846e-11
8.42027e-12
-2.60563e-11
8.87174e-12
-3.52517e-11
9.19557e-12
-4.4634e-11
9.38247e-12
-5.40641e-11
9.42995e-12
9.34154e-12
-6.34061e-11
7.34622e-13
-9.10521e-13
2.56129e-12
-2.60663e-12
4.87545e-12
-3.41321e-12
7.27703e-12
-3.58421e-12
9.5441e-12
-3.39984e-12
1.15606e-11
-3.01805e-12
1.32829e-11
-2.54327e-12
1.47216e-11
-2.06472e-12
1.59278e-11
-1.66012e-12
1.69839e-11
-1.38875e-12
1.79919e-11
-1.28609e-12
1.90616e-11
-1.36347e-12
2.0299e-11
-1.61147e-12
2.18006e-11
-2.00439e-12
2.36497e-11
-2.50646e-12
2.59147e-11
-3.08047e-12
2.86467e-11
-3.69477e-12
3.18799e-11
-4.32787e-12
3.56338e-11
-4.96964e-12
3.99174e-11
-5.61937e-12
4.4733e-11
-6.28107e-12
5.00796e-11
-6.95689e-12
5.5951e-11
-7.63952e-12
6.23279e-11
-8.30479e-12
6.91637e-11
-8.90606e-12
7.63647e-11
-9.37195e-12
8.37714e-11
-9.60988e-12
9.11455e-11
-9.51712e-12
9.8174e-11
-9.00025e-12
1.04492e-10
-8.00019e-12
1.09725e-10
-6.51311e-12
1.13534e-10
-4.59249e-12
1.15651e-10
-2.33143e-12
1.15892e-10
1.64771e-13
1.14148e-10
2.81689e-12
1.10354e-10
5.55923e-12
1.0449e-10
8.36212e-12
9.6549e-11
1.12079e-11
8.65291e-11
1.40828e-11
7.44367e-11
1.69672e-11
6.02894e-11
1.98307e-11
4.4125e-11
2.263e-11
2.60128e-11
2.53098e-11
6.06287e-12
2.78058e-11
-1.55652e-11
3.00482e-11
-3.86581e-11
3.1965e-11
-6.29485e-11
3.34861e-11
-8.81167e-11
3.455e-11
-1.13797e-10
3.51094e-11
3.51327e-11
-1.39588e-10
1.05401e-12
-1.9647e-12
3.43277e-12
-4.98379e-12
6.30608e-12
-6.28643e-12
9.19754e-12
-6.47511e-12
1.18544e-11
-6.05549e-12
1.41449e-11
-5.30764e-12
1.60224e-11
-4.42135e-12
1.75115e-11
-3.55569e-12
1.86946e-11
-2.84553e-12
1.96978e-11
-2.39361e-12
2.06758e-11
-2.26415e-12
2.17946e-11
-2.48123e-12
2.32182e-11
-3.03355e-12
2.50971e-11
-3.88255e-12
2.75617e-11
-4.97165e-12
3.07171e-11
-6.2376e-12
3.46409e-11
-7.62068e-12
3.93845e-11
-9.07292e-12
4.49775e-11
-1.05628e-11
5.14345e-11
-1.20753e-11
5.87623e-11
-1.36073e-11
6.69641e-11
-1.51575e-11
7.60359e-11
-1.67114e-11
8.59544e-11
-1.82248e-11
9.66535e-11
-1.96078e-11
1.07995e-10
-2.07161e-11
1.19736e-10
-2.13541e-11
1.31514e-10
-2.12972e-11
1.42846e-10
-2.03334e-11
1.53167e-10
-1.83217e-11
1.61897e-10
-1.52438e-11
1.68516e-10
-1.12116e-11
1.72615e-10
-6.43017e-12
1.7391e-10
-1.1305e-12
1.72236e-10
4.48989e-12
1.67481e-10
1.03119e-11
1.59593e-10
1.6248e-11
1.48531e-10
2.22685e-11
1.34264e-10
2.83491e-11
1.16776e-10
3.4457e-11
9.60701e-11
4.05376e-11
7.21926e-11
4.65085e-11
4.5243e-11
5.22597e-11
1.53904e-11
5.76581e-11
-1.7116e-11
6.25541e-11
-5.19414e-11
6.67902e-11
-8.86661e-11
7.02104e-11
-1.26791e-10
7.26732e-11
-1.65745e-10
7.40624e-11
7.42933e-11
-2.04906e-10
1.14394e-12
-3.11125e-12
3.6543e-12
-7.49467e-12
6.57179e-12
-9.20361e-12
9.37924e-12
-9.28161e-12
1.18169e-11
-8.49192e-12
1.3758e-11
-7.24793e-12
1.5171e-11
-5.83466e-12
1.61066e-11
-4.49257e-12
1.66856e-11
-3.42603e-12
1.70826e-11
-2.79139e-12
1.75065e-11
-2.68773e-12
1.81806e-11
-3.15401e-12
1.93214e-11
-4.17294e-12
2.11277e-11
-5.68828e-12
2.37679e-11
-7.61243e-12
2.73732e-11
-9.84442e-12
3.20359e-11
-1.22853e-11
3.78131e-11
-1.48514e-11
4.47344e-11
-1.7484e-11
5.28126e-11
-2.01523e-11
6.20553e-11
-2.28484e-11
7.24711e-11
-2.5572e-11
8.40661e-11
-2.83065e-11
9.6827e-11
-3.09875e-11
1.1069e-10
-3.3474e-11
1.255e-10
-3.55286e-11
1.40963e-10
-3.68188e-11
1.56614e-10
-3.695e-11
1.71818e-10
-3.55381e-11
1.85814e-10
-3.23184e-11
1.97821e-10
-2.72512e-11
2.07146e-10
-2.05367e-11
2.13261e-10
-1.25452e-11
2.15816e-10
-3.68548e-12
2.14607e-10
5.69831e-12
2.09496e-10
1.54207e-11
2.00395e-10
2.5347e-11
1.87219e-10
3.54424e-11
1.69894e-10
4.56736e-11
1.48365e-10
5.59879e-11
1.22612e-10
6.62922e-11
9.26766e-11
7.64448e-11
5.86794e-11
8.62568e-11
2.08384e-11
9.54984e-11
-2.05204e-11
1.03912e-10
-6.49564e-11
1.11225e-10
-1.11916e-10
1.17169e-10
-1.60738e-10
1.21494e-10
-2.10673e-10
1.23995e-10
1.24517e-10
-2.60897e-10
1.09826e-12
-4.21161e-12
3.42666e-12
-9.82497e-12
5.98762e-12
-1.17644e-11
8.26017e-12
-1.15528e-11
9.99891e-12
-1.0229e-11
1.11013e-11
-8.34916e-12
1.15674e-11
-6.30054e-12
1.14898e-11
-4.41567e-12
1.10333e-11
-2.9705e-12
1.04235e-11
-2.18209e-12
9.92423e-12
-2.18803e-12
9.81386e-12
-3.04255e-12
1.03552e-11
-4.71317e-12
1.17918e-11
-7.12456e-12
1.43232e-11
-1.01445e-11
1.80995e-11
-1.36225e-11
2.32196e-11
-1.74074e-11
2.97357e-11
-2.13688e-11
3.76655e-11
-2.54137e-11
4.70091e-11
-2.94946e-11
5.7767e-11
-3.36046e-11
6.99523e-11
-3.77564e-11
8.35901e-11
-4.19449e-11
9.86983e-11
-4.60978e-11
1.15248e-10
-5.00261e-11
1.33104e-10
-5.33871e-11
1.51961e-10
-5.56766e-11
1.7128e-10
-5.62697e-11
1.9027e-10
-5.45293e-11
2.07947e-10
-4.99964e-11
2.23293e-10
-4.25977e-11
2.35424e-10
-3.26668e-11
2.43704e-10
-2.08244e-11
2.47754e-10
-7.73599e-12
2.47362e-10
6.08915e-12
2.42412e-10
2.0368e-11
2.3278e-10
3.4977e-11
2.1834e-10
4.98809e-11
1.98966e-10
6.50482e-11
1.74552e-10
8.04033e-11
1.45043e-10
9.58027e-11
1.10461e-10
1.11027e-10
7.09291e-11
1.25787e-10
2.66954e-11
1.39731e-10
-2.1858e-11
1.52465e-10
-7.4205e-11
1.63571e-10
-1.29675e-10
1.72637e-10
-1.87461e-10
1.79279e-10
-2.46641e-10
1.83173e-10
1.84079e-10
-3.06204e-10
9.657e-13
-5.17848e-12
2.86937e-12
-1.17303e-11
4.74571e-12
-1.36404e-11
6.10602e-12
-1.29115e-11
6.74001e-12
-1.08609e-11
6.58648e-12
-8.19406e-12
5.69424e-12
-5.40775e-12
4.19411e-12
-2.91595e-12
2.31946e-12
-1.09668e-12
3.46495e-13
-2.09683e-13
-1.39899e-12
-4.42438e-13
-2.59096e-12
-1.8499e-12
-2.90853e-12
-4.39493e-12
-2.07365e-12
-7.95951e-12
1.42175e-13
-1.23616e-11
3.9019e-12
-1.73843e-11
9.3009e-12
-2.28085e-11
1.63738e-11
-2.84428e-11
2.51113e-11
-3.41509e-11
3.54855e-11
-3.98675e-11
4.74786e-11
-4.55963e-11
6.11053e-11
-5.13829e-11
7.64196e-11
-5.72606e-11
9.34957e-11
-6.31761e-11
1.12379e-10
-6.89113e-11
1.33009e-10
-7.40177e-11
1.55118e-10
-7.77861e-11
1.7813e-10
-7.92822e-11
2.01088e-10
-7.74878e-11
2.22716e-10
-7.16248e-11
2.41684e-10
-6.15658e-11
2.56869e-10
-4.78507e-11
2.67538e-10
-3.14931e-11
2.73338e-10
-1.35358e-11
2.74126e-10
5.2989e-12
2.69818e-10
2.46725e-11
2.60285e-10
4.45069e-11
2.45355e-10
6.48108e-11
2.24835e-10
8.55693e-11
1.98556e-10
1.06684e-10
1.66408e-10
1.27951e-10
1.28376e-10
1.49058e-10
8.45678e-11
1.69594e-10
3.52368e-11
1.89061e-10
-1.91976e-11
2.06899e-10
-7.81392e-11
2.22512e-10
-1.40811e-10
2.35307e-10
-2.06266e-10
2.44731e-10
-2.7341e-10
2.50317e-10
2.5171e-10
-3.4104e-10
7.6925e-13
-5.94835e-12
2.04708e-12
-1.30087e-11
2.95709e-12
-1.45496e-11
3.07472e-12
-1.30271e-11
2.24047e-12
-1.00244e-11
4.48376e-13
-6.40025e-12
-2.19804e-12
-2.76075e-12
-5.48452e-12
3.70046e-13
-9.14009e-12
2.55785e-12
-1.28102e-11
3.45953e-12
-1.61174e-11
2.86456e-12
-1.86695e-11
7.02511e-13
-2.00936e-11
-2.97049e-12
-2.0067e-11
-7.98652e-12
-1.83352e-11
-1.40947e-11
-1.47269e-11
-2.09946e-11
-9.15983e-12
-2.83772e-11
-1.63248e-12
-3.59707e-11
7.79865e-12
-4.35813e-11
1.90559e-11
-5.11235e-11
3.20844e-11
-5.86243e-11
4.6892e-11
-6.61913e-11
6.3569e-11
-7.39394e-11
8.22729e-11
-8.18818e-11
1.03172e-10
-8.98117e-11
1.2635e-10
-9.71949e-11
1.51657e-10
-1.03093e-10
1.7854e-10
-1.06165e-10
2.05856e-10
-1.04804e-10
2.31916e-10
-9.7685e-11
2.54951e-10
-8.46009e-11
2.73513e-10
-6.64119e-11
2.86792e-10
-4.47718e-11
2.94555e-10
-2.13002e-11
2.96825e-10
3.02659e-12
2.93604e-10
2.78904e-11
2.84756e-10
5.33527e-11
2.70043e-10
7.95236e-11
2.49186e-10
1.06427e-10
2.2193e-10
1.33941e-10
1.8809e-10
1.61791e-10
1.47592e-10
1.89554e-10
1.00508e-10
2.16678e-10
4.7077e-11
2.42491e-10
-1.2259e-11
2.66234e-10
-7.68429e-11
2.87095e-10
-1.45795e-10
3.04257e-10
-2.18024e-10
3.1696e-10
-2.9226e-10
3.24552e-10
3.2655e-10
-3.67097e-10
5.19458e-13
-6.46812e-12
9.99543e-13
-1.34884e-11
7.01295e-13
-1.42501e-11
-7.16042e-13
-1.16077e-11
-3.33965e-12
-7.39857e-12
-7.10736e-12
-2.63101e-12
-1.18459e-11
1.9781e-12
-1.72859e-11
5.80931e-12
-2.30672e-11
8.33787e-12
-2.87713e-11
9.16263e-12
-3.39454e-11
8.03844e-12
-3.81301e-11
4.88751e-12
-4.08943e-11
-2.05952e-13
-4.18631e-11
-7.01794e-12
-4.07515e-11
-1.52073e-11
-3.73811e-11
-2.43662e-11
-3.16911e-11
-3.4068e-11
-2.37307e-11
-4.39308e-11
-1.36297e-11
-5.36813e-11
-1.54737e-12
-6.32052e-11
1.23946e-11
-7.25667e-11
2.81791e-11
-8.19773e-11
4.5934e-11
-9.16961e-11
6.59264e-11
-1.01875e-10
8.85035e-11
-1.12389e-10
1.13978e-10
-1.22669e-10
1.42439e-10
-1.31554e-10
1.73468e-10
-1.37195e-10
2.05726e-10
-1.37063e-10
2.36894e-10
-1.28853e-10
2.64577e-10
-1.12283e-10
2.86857e-10
-8.86917e-11
3.02893e-10
-6.08086e-11
3.1275e-10
-3.11587e-11
3.16761e-10
-9.87762e-13
3.1506e-10
2.95895e-11
3.07476e-10
6.09357e-11
2.93658e-10
9.33424e-11
2.73199e-10
1.26887e-10
2.45727e-10
1.61412e-10
2.10966e-10
1.96551e-10
1.68766e-10
2.31752e-10
1.19145e-10
2.66298e-10
6.23198e-11
2.99316e-10
-1.25795e-12
3.29812e-10
-7.08743e-11
3.5671e-10
-1.45544e-10
3.78927e-10
-2.24026e-10
3.95442e-10
-3.04861e-10
4.05388e-10
4.08116e-10
-3.86426e-10
2.1912e-13
-6.68732e-12
-2.3779e-13
-1.30308e-11
-1.9474e-12
-1.25391e-11
-5.1496e-12
-8.40354e-12
-9.84332e-12
-2.70286e-12
-1.58939e-11
3.42081e-12
-2.30491e-11
9.13332e-12
-3.09599e-11
1.37192e-11
-3.91907e-11
1.65675e-11
-4.72424e-11
1.72136e-11
-5.45799e-11
1.53761e-11
-6.06649e-11
1.09733e-11
-6.49911e-11
4.12111e-12
-6.71246e-11
-4.88411e-12
-6.6737e-11
-1.5595e-11
-6.36388e-11
-2.74646e-11
-5.7796e-11
-3.99105e-11
-4.93271e-11
-5.23991e-11
-3.84682e-11
-6.45397e-11
-2.55038e-11
-7.61698e-11
-1.06674e-11
-8.74043e-11
5.96607e-12
-9.86125e-11
2.45546e-11
-1.10286e-10
4.54959e-11
-1.22817e-10
6.93666e-11
-1.36259e-10
9.68084e-11
-1.50111e-10
1.28308e-10
-1.63053e-10
1.63807e-10
-1.72696e-10
2.01798e-10
-1.75055e-10
2.38938e-10
-1.65993e-10
2.71976e-10
-1.4532e-10
2.98289e-10
-1.15005e-10
3.17109e-10
-7.96296e-11
3.29113e-10
-4.31645e-11
3.3515e-10
-7.02683e-12
3.3549e-10
2.92479e-11
3.29828e-10
6.65982e-11
3.17604e-10
1.05567e-10
2.98226e-10
1.46265e-10
2.71183e-10
1.88454e-10
2.36094e-10
2.31638e-10
1.92734e-10
2.7511e-10
1.41067e-10
3.17965e-10
8.12791e-11
3.59104e-10
1.38281e-11
3.97262e-10
-6.05209e-11
4.31059e-10
-1.40677e-10
4.59083e-10
-2.2524e-10
4.80007e-10
-3.12544e-10
4.92694e-10
4.96297e-10
-4.00723e-10
-1.45663e-13
-6.5416e-12
-1.64078e-12
-1.1535e-11
-4.92568e-12
-9.25278e-12
-1.0114e-11
-3.21329e-12
-1.71208e-11
4.30566e-12
-2.57171e-11
1.20181e-11
-3.55703e-11
1.89865e-11
-4.62482e-11
2.43963e-11
-5.72306e-11
2.75492e-11
-6.79301e-11
2.79131e-11
-7.77197e-11
2.51667e-11
-8.59676e-11
1.92227e-11
-9.20773e-11
1.02323e-11
-9.55325e-11
-1.42769e-12
-9.59467e-11
-1.518e-11
-9.31048e-11
-3.03058e-11
-8.69985e-11
-4.60162e-11
-7.78318e-11
-6.15654e-11
-6.59862e-11
-7.63855e-11
-5.19301e-11
-9.0227e-11
-3.60749e-11
-1.03261e-10
-1.86029e-11
-1.16086e-10
6.58568e-13
-1.29548e-10
2.22477e-11
-1.44407e-10
4.69992e-11
-1.61011e-10
7.59604e-11
-1.79073e-10
1.10213e-10
-1.97307e-10
1.50471e-10
-2.12956e-10
1.95218e-10
-2.19802e-10
2.39289e-10
-2.10064e-10
2.78492e-10
-1.84523e-10
3.09062e-10
-1.45576e-10
3.3053e-10
-1.01098e-10
3.44731e-10
-5.73674e-11
3.53269e-10
-1.5565e-11
3.56431e-10
2.6086e-11
3.5354e-10
6.94896e-11
3.43688e-10
1.1542e-10
3.26041e-10
1.63912e-10
2.99949e-10
2.14545e-10
2.64947e-10
2.66638e-10
2.2076e-10
3.19297e-10
1.67306e-10
3.71417e-10
1.04744e-10
4.21665e-10
3.35248e-11
4.68481e-10
-4.55478e-11
5.10131e-10
-1.31281e-10
5.44816e-10
-2.22102e-10
5.70829e-10
-3.1611e-10
5.86703e-10
5.91344e-10
-4.11155e-10
-5.64771e-13
-5.97668e-12
-3.17816e-12
-8.92058e-12
-8.16357e-12
-4.26577e-12
-1.55113e-11
4.13636e-12
-2.50262e-11
1.38222e-11
-3.63919e-11
2.33847e-11
-4.91895e-11
3.1784e-11
-6.29009e-11
3.81073e-11
-7.69169e-11
4.15652e-11
-9.05549e-11
4.15519e-11
-1.03086e-10
3.76988e-11
-1.13768e-10
2.99067e-11
-1.21892e-10
1.83589e-11
-1.26836e-10
3.51805e-12
-1.28123e-10
-1.38921e-11
-1.25487e-10
-3.29413e-11
-1.1893e-10
-5.25728e-11
-1.08751e-10
-7.17442e-11
-9.55207e-11
-8.96171e-11
-7.99673e-11
-1.05782e-10
-6.27739e-11
-1.20456e-10
-4.42983e-11
-1.34563e-10
-2.4369e-11
-1.49478e-10
-2.29679e-12
-1.66479e-10
2.29964e-11
-1.86305e-10
5.29412e-11
-2.09019e-10
8.93679e-11
-2.33735e-10
1.34499e-10
-2.58088e-10
1.87252e-10
-2.72555e-10
2.3895e-10
-2.61761e-10
2.85099e-10
-2.30672e-10
3.19961e-10
-1.80438e-10
3.43773e-10
-1.2491e-10
3.6043e-10
-7.40257e-11
3.72458e-10
-2.75928e-11
3.79737e-10
1.8808e-11
3.80786e-10
6.84416e-11
3.74203e-10
1.22005e-10
3.58902e-10
1.79212e-10
3.3415e-10
2.39295e-10
2.9947e-10
3.01316e-10
2.54581e-10
3.64184e-10
1.99387e-10
4.26611e-10
1.34007e-10
4.87045e-10
5.88627e-11
5.43625e-10
-2.52231e-11
5.94216e-10
-1.1696e-10
6.36553e-10
-2.14582e-10
6.68452e-10
-3.15909e-10
6.88031e-10
6.93885e-10
-4.18449e-10
-9.88417e-13
-4.98793e-12
-4.81038e-12
-5.09719e-12
-1.16037e-11
2.52948e-12
-2.124e-11
1.37746e-11
-3.3421e-11
2.60047e-11
-4.774e-11
3.77044e-11
-6.3693e-11
4.7737e-11
-8.06761e-11
5.50904e-11
-9.79901e-11
5.88795e-11
-1.14853e-10
5.84157e-11
-1.30423e-10
5.3271e-11
-1.43835e-10
4.33206e-11
-1.54243e-10
2.87684e-11
-1.60882e-10
1.01582e-11
-1.63141e-10
-1.16318e-11
-1.60658e-10
-3.54233e-11
-1.53411e-10
-5.98209e-11
-1.41783e-10
-8.33722e-11
-1.26577e-10
-1.04825e-10
-1.0888e-10
-1.2348e-10
-8.97836e-11
-1.39553e-10
-6.99112e-11
-1.54435e-10
-4.907e-11
-1.7032e-10
-2.63619e-11
-1.89189e-10
-5.10596e-13
-2.12158e-10
3.00671e-11
-2.39598e-10
6.76555e-11
-2.71325e-10
1.17451e-10
-3.07884e-10
1.79664e-10
-3.34768e-10
2.38265e-10
-3.20361e-10
2.91645e-10
-2.84051e-10
3.30505e-10
-2.19298e-10
3.56394e-10
-1.508e-10
3.76613e-10
-9.42442e-11
3.94304e-10
-4.52845e-11
4.07797e-10
5.31677e-12
4.1434e-10
6.18992e-11
4.12026e-10
1.2432e-10
3.99618e-10
1.9162e-10
3.76434e-10
2.62477e-10
3.42098e-10
3.3565e-10
2.96409e-10
4.09872e-10
2.39284e-10
4.83735e-10
1.70791e-10
5.55537e-10
9.12837e-11
6.23131e-10
1.57031e-12
6.83928e-10
-9.69627e-11
7.35085e-10
-2.02323e-10
7.73812e-10
-3.11985e-10
7.97694e-10
8.0494e-10
-4.23039e-10
-1.46429e-12
-3.52299e-12
-6.52162e-12
-3.79622e-14
-1.51878e-11
1.11976e-11
-2.7204e-11
2.57927e-11
-4.21672e-11
4.09691e-11
-5.95823e-11
5.512e-11
-7.88638e-11
6.70186e-11
-9.93269e-11
7.55538e-11
-1.20185e-10
7.97381e-11
-1.40557e-10
7.87884e-11
-1.59485e-10
7.22004e-11
-1.75966e-10
5.98023e-11
-1.88991e-10
4.17945e-11
-1.97612e-10
1.87802e-11
-2.01028e-10
-8.21474e-12
-1.98706e-10
-3.7745e-11
-1.90525e-10
-6.80024e-11
-1.76917e-10
-9.69814e-11
-1.5894e-10
-1.22804e-10
-1.38174e-10
-1.44246e-10
-1.16334e-10
-1.61393e-10
-9.443e-11
-1.7634e-10
-7.21232e-11
-1.92627e-10
-4.80937e-11
-2.13219e-10
-2.08086e-11
-2.39445e-10
1.11762e-11
-2.71584e-10
4.89909e-11
-3.0914e-10
1.02582e-10
-3.61475e-10
1.74908e-10
-4.07094e-10
2.36387e-10
-3.81839e-10
2.9506e-10
-3.42723e-10
3.37497e-10
-2.61734e-10
3.65979e-10
-1.79283e-10
3.93536e-10
-1.21801e-10
4.21356e-10
-7.31051e-11
4.44051e-10
-1.73765e-11
4.57864e-10
4.80874e-11
4.60753e-10
1.2143e-10
4.51612e-10
2.0076e-10
4.29994e-10
2.84091e-10
3.95754e-10
3.69888e-10
3.48877e-10
4.56748e-10
2.89349e-10
5.43264e-10
2.17163e-10
6.27721e-10
1.32545e-10
7.07748e-10
3.6243e-11
7.80229e-10
-7.02659e-11
8.41593e-10
-1.84718e-10
8.88264e-10
-3.04166e-10
9.17142e-10
9.25959e-10
-4.25184e-10
-1.95468e-12
-1.56729e-12
-8.27603e-12
6.28536e-12
-1.88528e-11
2.17762e-11
-3.33017e-11
4.02428e-11
-5.11183e-11
5.87865e-11
-7.17257e-11
7.57278e-11
-9.44652e-11
8.97583e-11
-1.1858e-10
9.96685e-11
-1.43204e-10
1.04363e-10
-1.67365e-10
1.02949e-10
-1.89991e-10
9.48269e-11
-2.09935e-10
7.97466e-11
-2.26007e-10
5.78671e-11
-2.37034e-10
2.98075e-11
-2.41951e-10
-3.29583e-12
-2.39951e-10
-3.97449e-11
-2.3069e-10
-7.72634e-11
-2.14543e-10
-1.13129e-10
-1.92818e-10
-1.44529e-10
-1.67754e-10
-1.6931e-10
-1.42062e-10
-1.87085e-10
-1.17356e-10
-2.01045e-10
-9.281e-11
-2.17174e-10
-6.61113e-11
-2.39918e-10
-3.52542e-11
-2.70302e-10
1.68325e-12
-3.08522e-10
4.29073e-11
-3.50365e-10
9.70109e-11
-4.15579e-10
1.82238e-10
-4.9232e-10
2.26739e-10
-4.26339e-10
2.88865e-10
-4.04848e-10
3.32508e-10
-3.05377e-10
3.68325e-10
-2.15101e-10
4.14157e-10
-1.67634e-10
4.58667e-10
-1.17615e-10
4.93623e-10
-5.23316e-11
5.15962e-10
2.57489e-11
5.24695e-10
1.12695e-10
5.18951e-10
2.06501e-10
4.98551e-10
3.04489e-10
4.63775e-10
4.04664e-10
4.14956e-10
5.05567e-10
3.52226e-10
6.05994e-10
2.75478e-10
7.04469e-10
1.84701e-10
7.98523e-10
8.04954e-11
8.84433e-10
-3.55847e-11
9.57672e-10
-1.60956e-10
1.01363e-09
-2.9215e-10
1.04834e-09
1.05891e-09
-4.25098e-10
-2.4448e-12
8.78651e-13
-1.00367e-11
1.38788e-11
-2.25295e-11
3.42701e-11
-3.94194e-11
5.71335e-11
-6.01095e-11
7.94771e-11
-8.39507e-11
9.95693e-11
-1.10223e-10
1.16031e-10
-1.38112e-10
1.27557e-10
-1.66687e-10
1.32938e-10
-1.949e-10
1.31161e-10
-2.21578e-10
1.21505e-10
-2.45439e-10
1.03607e-10
-2.65105e-10
7.75342e-11
-2.79147e-10
4.38507e-11
-2.86166e-10
3.72545e-12
-2.84941e-10
-4.09691e-11
-2.74716e-10
-8.74888e-11
-2.55596e-10
-1.32248e-10
-2.29033e-10
-1.71091e-10
-1.98112e-10
-2.0023e-10
-1.67261e-10
-2.17936e-10
-1.3919e-10
-2.29117e-10
-1.11821e-10
-2.44543e-10
-8.05428e-11
-2.71197e-10
-4.29276e-11
-3.07918e-10
3.16505e-12
-3.54616e-10
5.74793e-11
-4.0468e-10
1.06467e-10
-4.64567e-10
2.27346e-10
-6.13197e-10
1.99587e-10
-3.98579e-10
2.57389e-10
-4.6265e-10
2.97441e-10
-3.45429e-10
3.73011e-10
-2.90673e-10
4.49541e-10
-2.44165e-10
5.1567e-10
-1.83745e-10
5.62808e-10
-9.94695e-11
5.93548e-10
-4.99258e-12
6.08714e-10
9.75268e-11
6.06217e-10
2.08995e-10
5.86253e-10
3.24452e-10
5.49812e-10
4.41106e-10
4.97855e-10
5.57525e-10
4.30813e-10
6.73036e-10
3.48392e-10
7.86888e-10
2.5014e-10
8.96774e-10
1.36349e-10
9.98222e-10
8.61381e-12
1.08541e-09
-1.30089e-10
1.15234e-09
-2.75618e-10
1.19386e-09
1.20637e-09
-4.23079e-10
-2.91929e-12
3.79883e-12
-1.17643e-11
2.27244e-11
-2.61395e-11
4.86455e-11
-4.54277e-11
7.6422e-11
-6.89507e-11
1.03001e-10
-9.60006e-11
1.2662e-10
-1.25812e-10
1.45843e-10
-1.57529e-10
1.59274e-10
-1.90181e-10
1.65588e-10
-2.22664e-10
1.63643e-10
-2.53735e-10
1.52575e-10
-2.82003e-10
1.31876e-10
-3.05925e-10
1.01458e-10
-3.23816e-10
6.17439e-11
-3.33884e-10
1.37954e-11
-3.34368e-10
-4.04842e-11
-3.23818e-10
-9.80374e-11
-3.01701e-10
-1.54365e-10
-2.6927e-10
-2.03522e-10
-2.30555e-10
-2.38945e-10
-1.9312e-10
-2.55371e-10
-1.61945e-10
-2.60291e-10
-1.32168e-10
-2.7432e-10
-9.42772e-11
-3.09088e-10
-4.48236e-11
-3.57373e-10
1.50536e-11
-4.14495e-10
9.0145e-11
-4.79773e-10
1.63974e-10
-5.38397e-10
1.59675e-10
-6.08898e-10
2.29838e-10
-4.68742e-10
1.80501e-10
-4.13312e-10
2.98468e-10
-4.63398e-10
4.14812e-10
-4.07018e-10
5.16517e-10
-3.45871e-10
6.01869e-10
-2.69096e-10
6.55471e-10
-1.53073e-10
6.95912e-10
-4.54356e-11
7.18249e-10
7.51864e-11
7.18171e-10
2.09071e-10
6.97376e-10
3.45247e-10
6.57628e-10
4.80854e-10
6.00909e-10
6.14244e-10
5.28195e-10
7.45749e-10
4.38867e-10
8.76215e-10
3.31608e-10
1.00403e-09
2.06129e-10
1.1237e-09
6.40379e-11
1.2275e-09
-9.11387e-11
1.30751e-09
-2.54351e-10
1.35708e-09
1.37164e-09
-4.19628e-10
-3.3666e-12
7.16575e-12
-1.34166e-11
3.27741e-11
-2.95947e-11
6.48234e-11
-5.11791e-11
9.80067e-11
-7.74239e-11
1.29246e-10
-1.07578e-10
1.56774e-10
-1.40847e-10
1.79113e-10
-1.76357e-10
1.94783e-10
-2.13118e-10
2.02349e-10
-2.50008e-10
2.00532e-10
-2.85749e-10
1.88316e-10
-3.18892e-10
1.6502e-10
-3.47789e-10
1.30356e-10
-3.70555e-10
8.45129e-11
-3.85039e-10
2.82807e-11
-3.88834e-10
-3.66868e-11
-3.79508e-10
-1.07363e-10
-3.55298e-10
-1.78574e-10
-3.1646e-10
-2.4236e-10
-2.67542e-10
-2.87862e-10
-2.21877e-10
-3.01035e-10
-1.89628e-10
-2.92539e-10
-1.60079e-10
-3.03869e-10
-1.15571e-10
-3.53596e-10
-5.02256e-11
-4.22721e-10
3.04106e-11
-4.95134e-10
1.18853e-10
-5.68217e-10
2.81032e-10
-7.00576e-10
2.87573e-10
-6.15438e-10
2.99139e-10
-4.80308e-10
2.92203e-10
-4.06377e-10
3.85524e-10
-5.56721e-10
5.1829e-10
-5.39784e-10
6.27768e-10
-4.55349e-10
7.05315e-10
-3.46644e-10
7.76099e-10
-2.23858e-10
8.29188e-10
-9.85273e-11
8.56743e-10
4.76291e-11
8.58807e-10
2.07005e-10
8.35693e-10
3.68361e-10
7.90615e-10
5.25931e-10
7.27241e-10
6.77617e-10
6.47477e-10
8.25513e-10
5.50086e-10
9.73605e-10
4.32156e-10
1.12196e-09
2.9241e-10
1.26345e-09
1.32507e-10
1.3874e-09
-4.31645e-11
1.48318e-09
-2.28288e-10
1.5422e-09
1.55886e-09
-4.15499e-10
-3.7751e-12
1.09406e-11
-1.49481e-11
4.39463e-11
-3.27976e-11
8.26727e-11
-5.65095e-11
1.21719e-10
-8.52851e-11
1.58023e-10
-1.18346e-10
1.89836e-10
-1.54888e-10
2.15656e-10
-1.94039e-10
2.33933e-10
-2.34817e-10
2.43126e-10
-2.76111e-10
2.41826e-10
-3.16658e-10
2.28864e-10
-3.55017e-10
2.03379e-10
-3.89529e-10
1.64871e-10
-4.18253e-10
1.13238e-10
-4.38834e-10
4.88628e-11
-4.48333e-10
-2.7186e-11
-4.43151e-10
-1.12545e-10
-4.19554e-10
-2.02171e-10
-3.75346e-10
-2.86568e-10
-3.1364e-10
-3.49568e-10
-2.58163e-10
-3.56512e-10
-2.28225e-10
-3.22476e-10
-2.0259e-10
-3.29504e-10
-1.53049e-10
-4.03139e-10
-7.43331e-11
-5.01439e-10
2.18257e-11
-5.91295e-10
1.36695e-10
-6.83088e-10
1.82363e-10
-7.46244e-10
2.47184e-10
-6.80259e-10
3.93401e-10
-6.26526e-10
5.54362e-10
-5.67338e-10
6.12663e-10
-6.15023e-10
6.86532e-10
-6.13653e-10
7.75026e-10
-5.43843e-10
8.61422e-10
-4.3304e-10
9.41078e-10
-3.03515e-10
9.95516e-10
-1.52968e-10
1.02703e-09
1.61162e-11
1.03068e-09
2.03349e-10
1.00378e-09
3.95266e-10
9.51218e-10
5.78489e-10
8.79237e-10
7.49599e-10
7.91363e-10
9.13387e-10
6.85309e-10
1.07966e-09
5.55119e-10
1.25215e-09
3.97997e-10
1.42057e-09
2.15922e-10
1.56948e-09
1.46828e-11
1.68442e-09
-1.97618e-10
1.7545e-09
1.77306e-09
-4.11826e-10
-4.13673e-12
1.50768e-11
-1.63117e-11
5.61207e-11
-3.56446e-11
1.02006e-10
-6.12434e-11
1.47319e-10
-9.22725e-11
1.89054e-10
-1.27942e-10
2.25507e-10
-1.67456e-10
2.55171e-10
-2.09961e-10
2.76437e-10
-2.54504e-10
2.87668e-10
-3.00011e-10
2.87333e-10
-3.45269e-10
2.74122e-10
-3.88903e-10
2.47014e-10
-4.29356e-10
2.05325e-10
-4.64825e-10
1.48708e-10
-4.93098e-10
7.71357e-11
-5.11192e-10
-9.09183e-12
-5.14774e-10
-1.08963e-10
-4.97652e-10
-2.19294e-10
-4.52669e-10
-3.3155e-10
-3.77774e-10
-4.24462e-10
-3.13444e-10
-4.20841e-10
-2.89985e-10
-3.45934e-10
-2.79338e-10
-3.40152e-10
-2.09501e-10
-4.72977e-10
-1.18834e-10
-5.92108e-10
-2.27309e-11
-6.874e-10
6.20993e-11
-7.67918e-10
1.33874e-10
-8.18018e-10
2.58564e-10
-8.04949e-10
4.09555e-10
-7.77518e-10
5.91193e-10
-7.48976e-10
7.27497e-10
-7.51327e-10
8.342e-10
-7.20355e-10
9.32362e-10
-6.42005e-10
1.02543e-09
-5.26113e-10
1.11251e-09
-3.90586e-10
1.18037e-09
-2.20833e-10
1.2237e-09
-2.7212e-11
1.23214e-09
1.94905e-10
1.20169e-09
4.2572e-10
1.14011e-09
6.40061e-10
1.05788e-09
8.31828e-10
9.61744e-10
1.00953e-09
8.47826e-10
1.19358e-09
7.04169e-10
1.39581e-09
5.25896e-10
1.59885e-09
3.16087e-10
1.77929e-09
8.28958e-11
1.91762e-09
-1.63061e-10
2.00046e-09
2.02038e-09
-4.10379e-10
-4.44286e-12
1.95191e-11
-1.74591e-11
6.91369e-11
-3.80294e-11
1.22577e-10
-6.52014e-11
1.74493e-10
-9.81187e-11
2.21972e-10
-1.35996e-10
2.63385e-10
-1.7806e-10
2.97234e-10
-2.23487e-10
3.21865e-10
-2.71368e-10
3.35549e-10
-3.20675e-10
3.3664e-10
-3.70246e-10
3.23693e-10
-4.18789e-10
2.95557e-10
-4.64885e-10
2.5142e-10
-5.07007e-10
1.90829e-10
-5.43472e-10
1.136e-10
-5.72098e-10
1.95342e-11
-5.89436e-10
-9.16253e-11
-5.90612e-10
-2.18118e-10
-5.57289e-10
-3.64873e-10
-4.73089e-10
-5.0866e-10
-3.99713e-10
-4.94215e-10
-4.18933e-10
-3.26713e-10
-3.7724e-10
-3.81845e-10
-2.57672e-10
-5.92547e-10
-1.54635e-10
-6.95146e-10
-5.96429e-11
-7.82393e-10
3.24549e-11
-8.60016e-10
1.32698e-10
-9.18262e-10
2.68849e-10
-9.41101e-10
4.4343e-10
-9.52099e-10
6.39459e-10
-9.45005e-10
8.14141e-10
-9.26008e-10
9.57327e-10
-8.63539e-10
1.07783e-09
-7.62503e-10
1.1876e-09
-6.35884e-10
1.28685e-09
-4.89835e-10
1.37588e-09
-3.0987e-10
1.43974e-09
-9.10678e-11
1.46052e-09
1.7412e-10
1.42793e-09
4.58313e-10
1.3562e-09
7.11787e-10
1.26231e-09
9.25726e-10
1.15958e-09
1.11225e-09
1.04124e-09
1.31192e-09
8.83385e-10
1.55367e-09
6.78997e-10
1.80323e-09
4.34161e-10
2.02412e-09
1.61047e-10
2.19073e-09
-1.26305e-10
2.28781e-09
2.30788e-09
-4.13808e-10
-4.68475e-12
2.42037e-11
-1.83426e-11
8.27952e-11
-3.98481e-11
1.44083e-10
-6.82085e-11
2.02854e-10
-1.02564e-10
2.56328e-10
-1.42149e-10
3.0297e-10
-1.86225e-10
3.41309e-10
-2.34013e-10
3.69652e-10
-2.84645e-10
3.86182e-10
-3.37131e-10
3.89126e-10
-3.90331e-10
3.76893e-10
-4.42954e-10
3.48178e-10
-4.93584e-10
3.02049e-10
-5.40773e-10
2.38017e-10
-5.83234e-10
1.5606e-10
-6.20046e-10
5.6345e-11
-6.49692e-10
-6.19801e-11
-6.69745e-10
-1.98065e-10
-6.89032e-10
-3.45584e-10
-6.27928e-10
-5.69762e-10
-6.01427e-10
-5.20715e-10
-5.36067e-10
-3.92072e-10
-3.52382e-10
-5.65532e-10
-2.48613e-10
-6.96317e-10
-1.56829e-10
-7.86931e-10
-7.40529e-11
-8.65169e-10
1.79015e-11
-9.51971e-10
1.32093e-10
-1.03245e-09
2.83707e-10
-1.09272e-09
4.76224e-10
-1.14462e-09
6.92882e-10
-1.16166e-09
9.00548e-10
-1.13367e-09
1.07131e-09
-1.0343e-09
1.20882e-09
-9.00017e-10
1.32878e-09
-7.55846e-10
1.45313e-09
-6.14184e-10
1.569e-09
-4.25733e-10
1.6679e-09
-1.8997e-10
1.71356e-09
1.28457e-10
1.67965e-09
4.92232e-10
1.59819e-09
7.93242e-10
1.49088e-09
1.03304e-09
1.38607e-09
1.21706e-09
1.27015e-09
1.42784e-09
1.09722e-09
1.72661e-09
8.59153e-10
2.0413e-09
5.69485e-10
2.31379e-09
2.46899e-10
2.51332e-09
-9.04697e-11
2.62518e-09
2.64319e-09
-4.25775e-10
-4.85228e-12
2.90561e-11
-1.89166e-11
9.68601e-11
-4.10033e-11
1.66171e-10
-7.01021e-11
2.31953e-10
-1.05367e-10
2.91593e-10
-1.46071e-10
3.43673e-10
-1.91524e-10
3.86762e-10
-2.41003e-10
4.19132e-10
-2.93691e-10
4.3887e-10
-3.48622e-10
4.44056e-10
-4.04628e-10
4.32899e-10
-4.60289e-10
4.03838e-10
-5.13881e-10
3.5564e-10
-5.63343e-10
2.87478e-10
-6.06283e-10
1.98999e-10
-6.40265e-10
9.03252e-11
-6.62238e-10
-4.00074e-11
-6.66025e-10
-1.94277e-10
-6.36078e-10
-3.75529e-10
-5.46834e-10
-6.59004e-10
-4.6194e-10
-6.05609e-10
-3.66143e-10
-4.87871e-10
-2.55528e-10
-6.76148e-10
-1.91987e-10
-7.59859e-10
-1.41371e-10
-8.37547e-10
-8.49038e-11
-9.21636e-10
-2.87702e-12
-1.034e-09
1.20401e-10
-1.15573e-09
2.89111e-10
-1.26143e-09
4.99201e-10
-1.35471e-09
7.43648e-10
-1.40611e-09
9.85526e-10
-1.37555e-09
1.17939e-09
-1.22816e-09
1.32738e-09
-1.048e-09
1.4578e-09
-8.86263e-10
1.59388e-09
-7.50266e-10
1.74702e-09
-5.78873e-10
1.90629e-09
-3.49242e-10
1.99157e-09
4.31781e-11
1.9602e-09
5.23604e-10
1.86779e-09
8.85652e-10
1.74689e-09
1.15394e-09
1.64238e-09
1.32157e-09
1.54103e-09
1.5292e-09
1.35e-09
1.91763e-09
1.06467e-09
2.32663e-09
7.17361e-10
2.6611e-09
3.35115e-10
2.89556e-09
-6.06233e-11
3.02092e-09
3.03361e-09
-4.51045e-10
-4.93376e-12
3.399e-11
-1.91388e-11
1.11066e-10
-4.14076e-11
1.8844e-10
-7.07367e-11
2.61281e-10
-1.06315e-10
3.2717e-10
-1.4747e-10
3.84827e-10
-1.93583e-10
4.32876e-10
-2.4401e-10
4.6956e-10
-2.98009e-10
4.92869e-10
-3.54666e-10
5.00713e-10
-4.12809e-10
4.91041e-10
-4.70874e-10
4.61903e-10
-5.2672e-10
4.11485e-10
-5.7735e-10
3.38107e-10
-6.18476e-10
2.40124e-10
-6.43749e-10
1.15597e-10
-6.45672e-10
-3.80849e-11
-6.16727e-10
-2.23221e-10
-5.09691e-10
-4.82563e-10
-4.39138e-10
-7.29557e-10
-3.4255e-10
-7.02196e-10
-2.41536e-10
-5.88886e-10
-2.08337e-10
-7.09348e-10
-1.73049e-10
-7.95147e-10
-1.53604e-10
-8.56991e-10
-1.23599e-10
-9.51643e-10
-5.12467e-11
-1.10635e-09
7.67449e-11
-1.28373e-09
2.68793e-10
-1.45347e-09
5.07069e-10
-1.59298e-09
7.77877e-10
-1.67692e-09
1.06219e-09
-1.65986e-09
1.27909e-09
-1.44506e-09
1.42734e-09
-1.19625e-09
1.56494e-09
-1.02387e-09
1.72824e-09
-9.13566e-10
1.91517e-09
-7.65801e-10
2.14809e-09
-5.8216e-10
2.29471e-09
-1.0343e-10
2.25655e-09
5.6176e-10
2.15438e-09
9.87827e-10
2.04978e-09
1.25854e-09
1.91431e-09
1.45704e-09
1.87424e-09
1.56927e-09
1.64051e-09
2.15137e-09
1.28288e-09
2.68427e-09
8.64979e-10
3.079e-09
4.15572e-10
3.34497e-09
-4.42341e-11
3.48073e-09
3.48465e-09
-4.95272e-10
-4.91647e-12
3.89066e-11
-1.8972e-11
1.25121e-10
-4.09864e-11
2.10454e-10
-6.99875e-11
2.90282e-10
-1.05219e-10
3.62401e-10
-1.46087e-10
4.25695e-10
-1.92068e-10
4.78857e-10
-2.42628e-10
5.2012e-10
-2.97153e-10
5.47394e-10
-3.5487e-10
5.5843e-10
-4.14738e-10
5.50909e-10
-4.75283e-10
5.22448e-10
-5.3433e-10
4.70533e-10
-5.88611e-10
3.92387e-10
-6.33265e-10
2.84778e-10
-6.61345e-10
1.43676e-10
-6.63521e-10
-3.59082e-11
-6.26045e-10
-2.60697e-10
-5.77793e-10
-5.30814e-10
-6.02699e-10
-7.04652e-10
-5.56816e-10
-7.4808e-10
-3.75536e-10
-7.70167e-10
-2.76165e-10
-8.0872e-10
-2.31966e-10
-8.39346e-10
-2.22279e-10
-8.66679e-10
-2.08511e-10
-9.65412e-10
-1.34526e-10