/*--------------------------------*- C++ -*----------------------------------*\
| =========                 |                                                 |
| \\      /  F ield         | OpenFOAM: The Open Source CFD Toolbox           |
|  \\    /   O peration     | Version:  2.4.0                                 |
|   \\  /    A nd           | Web:      www.OpenFOAM.org                      |
|    \\/     M anipulation  |                                                 |
\*---------------------------------------------------------------------------*/
FoamFile
{
    version     2.0;
    format      ascii;
    class       volVectorField;
    location    "0.237";
    object      U;
}
// * * * * * * * * * * * * * * * * * * * * * * * * * * * * * * * * * * * * * //

dimensions      [0 1 -1 0 0 0 0];

internalField   nonuniform List<vector> 
10000
(
(1.26531e-06 -1.26131e-06 0)
(4.68731e-06 -1.6681e-06 0)
(8.8328e-06 -1.86534e-06 0)
(1.40743e-05 -2.16965e-06 0)
(2.08618e-05 -2.55887e-06 0)
(2.93587e-05 -2.94012e-06 0)
(3.93734e-05 -3.24831e-06 0)
(5.0499e-05 -3.45317e-06 0)
(6.22288e-05 -3.54397e-06 0)
(7.40161e-05 -3.51842e-06 0)
(8.53053e-05 -3.37771e-06 0)
(9.55524e-05 -3.12635e-06 0)
(0.000104246 -2.77386e-06 0)
(0.000110931 -2.33676e-06 0)
(0.00011523 -1.83947e-06 0)
(0.000116878 -1.30056e-06 0)
(0.000115754 -7.4389e-07 0)
(0.000111891 -2.0825e-07 0)
(0.000105467 2.7254e-07 0)
(9.6812e-05 6.69596e-07 0)
(8.63809e-05 9.60823e-07 0)
(7.47128e-05 1.13348e-06 0)
(6.23863e-05 1.18561e-06 0)
(4.99709e-05 1.1256e-06 0)
(3.79825e-05 9.69638e-07 0)
(2.68527e-05 7.38257e-07 0)
(1.69126e-05 4.52641e-07 0)
(8.39141e-06 1.32772e-07 0)
(1.41962e-06 -2.01644e-07 0)
(-3.97614e-06 -5.27572e-07 0)
(-7.89717e-06 -8.13e-07 0)
(-1.06147e-05 -1.01495e-06 0)
(-1.25965e-05 -1.08915e-06 0)
(-1.44682e-05 -1.01166e-06 0)
(-1.68942e-05 -7.93817e-07 0)
(-2.04543e-05 -4.68496e-07 0)
(-2.5593e-05 -6.70717e-08 0)
(-3.26463e-05 3.9292e-07 0)
(-4.19018e-05 9.09311e-07 0)
(-5.36545e-05 1.4895e-06 0)
(-6.82341e-05 2.14291e-06 0)
(-8.60023e-05 2.87524e-06 0)
(-0.000107325 3.6857e-06 0)
(-0.000132537 4.56634e-06 0)
(-0.000161908 5.5021e-06 0)
(-0.000195614 6.47134e-06 0)
(-0.000233717 7.44738e-06 0)
(-0.00027615 8.40118e-06 0)
(-0.00032271 9.30468e-06 0)
(-0.000373057 1.01329e-05 0)
(1.62483e-06 -4.65344e-06 0)
(6.48404e-06 -6.66757e-06 0)
(1.28451e-05 -8.1433e-06 0)
(2.18479e-05 -1.06261e-05 0)
(3.45112e-05 -1.37906e-05 0)
(5.11284e-05 -1.69111e-05 0)
(7.12341e-05 -1.94448e-05 0)
(9.38714e-05 -2.10923e-05 0)
(0.000117819 -2.17138e-05 0)
(0.000141725 -2.12554e-05 0)
(0.000164193 -1.97157e-05 0)
(0.000183841 -1.71363e-05 0)
(0.000199367 -1.3606e-05 0)
(0.000209607 -9.2647e-06 0)
(0.000213617 -4.30675e-06 0)
(0.000210734 1.03235e-06 0)
(0.000200631 6.47582e-06 0)
(0.000183373 1.1714e-05 0)
(0.000159427 1.64443e-05 0)
(0.000129634 2.03995e-05 0)
(9.5149e-05 2.33757e-05 0)
(5.73461e-05 2.52534e-05 0)
(1.77003e-05 2.60063e-05 0)
(-2.2333e-05 2.56954e-05 0)
(-6.14274e-05 2.44526e-05 0)
(-9.84645e-05 2.24543e-05 0)
(-0.000132577 1.9896e-05 0)
(-0.000163159 1.69772e-05 0)
(-0.000189866 1.39032e-05 0)
(-0.000212623 1.09057e-05 0)
(-0.000231678 8.27495e-06 0)
(-0.000247692 6.36396e-06 0)
(-0.000261806 5.51657e-06 0)
(-0.000275548 5.92526e-06 0)
(-0.000290549 7.53972e-06 0)
(-0.000308241 1.01481e-05 0)
(-0.000329744 1.35268e-05 0)
(-0.00035594 1.75345e-05 0)
(-0.000387603 2.21338e-05 0)
(-0.000425524 2.73592e-05 0)
(-0.000470561 3.32661e-05 0)
(-0.000523631 3.9884e-05 0)
(-0.00058564 4.71871e-05 0)
(-0.000657408 5.50824e-05 0)
(-0.000739576 6.34117e-05 0)
(-0.000832543 7.19631e-05 0)
(-0.000936404 8.04886e-05 0)
(-0.00105092 8.87245e-05 0)
(-0.00117549 9.64097e-05 0)
(-0.00130919 0.000103298 0)
(1.79045e-06 -8.61151e-06 0)
(7.76454e-06 -1.29206e-05 0)
(1.6489e-05 -1.69034e-05 0)
(2.93797e-05 -2.32485e-05 0)
(4.75556e-05 -3.10612e-05 0)
(7.1224e-05 -3.8681e-05 0)
(9.96589e-05 -4.48315e-05 0)
(0.000131494 -4.87591e-05 0)
(0.000164989 -5.00735e-05 0)
(0.000198195 -4.86017e-05 0)
(0.00022908 -4.43167e-05 0)
(0.000255614 -3.73149e-05 0)
(0.000275867 -2.78201e-05 0)
(0.000288109 -1.61912e-05 0)
(0.000290919 -2.9263e-06 0)
(0.00028329 1.134e-05 0)
(0.00026472 2.58663e-05 0)
(0.000235287 3.98577e-05 0)
(0.000195676 5.25236e-05 0)
(0.000147142 6.31615e-05 0)
(9.14166e-05 7.12329e-05 0)
(3.05683e-05 7.64183e-05 0)
(-3.31814e-05 7.864e-05 0)
(-9.76432e-05 7.80515e-05 0)
(-0.000160828 7.49938e-05 0)
(-0.000221071 6.99305e-05 0)
(-0.00027709 6.33808e-05 0)
(-0.000328004 5.58752e-05 0)
(-0.000373311 4.7954e-05 0)
(-0.000412882 4.02133e-05 0)
(-0.000447026 3.33909e-05 0)
(-0.000476653 2.83918e-05 0)
(-0.000503436 2.6113e-05 0)
(-0.00052971 2.70677e-05 0)
(-0.000557964 3.11347e-05 0)
(-0.000590315 3.77772e-05 0)
(-0.000628366 4.64364e-05 0)
(-0.000673358 5.67645e-05 0)
(-0.000726413 6.86716e-05 0)
(-0.000788705 8.22431e-05 0)
(-0.000861535 9.76091e-05 0)
(-0.000946289 0.000114828 0)
(-0.00104434 0.00013381 0)
(-0.0011569 0.000154291 0)
(-0.00128493 0.000175839 0)
(-0.00142896 0.000197889 0)
(-0.00158911 0.000219786 0)
(-0.00176493 0.000240837 0)
(-0.00195547 0.000260351 0)
(-0.00215925 0.000277669 0)
(2.07259e-06 -1.35931e-05 0)
(1.01738e-05 -2.17386e-05 0)
(2.27918e-05 -2.9771e-05 0)
(4.11628e-05 -4.1514e-05 0)
(6.61846e-05 -5.54059e-05 0)
(9.78362e-05 -6.874e-05 0)
(0.00013512 -7.93983e-05 0)
(0.000176337 -8.60777e-05 0)
(0.000219352 -8.80585e-05 0)
(0.000261768 -8.4993e-05 0)
(0.00030106 -7.67988e-05 0)
(0.00033468 -6.36252e-05 0)
(0.00036018 -4.58593e-05 0)
(0.000375337 -2.41431e-05 0)
(0.0003783 6.17228e-07 0)
(0.000367728 2.72612e-05 0)
(0.000342928 5.4422e-05 0)
(0.000303959 8.0619e-05 0)
(0.000251676 0.000104377 0)
(0.000187698 0.00012438 0)
(0.00011429 0.000139613 0)
(3.41656e-05 0.000149477 0)
(-4.97635e-05 0.000153828 0)
(-0.000134641 0.000152958 0)
(-0.000217902 0.00014752 0)
(-0.000297438 0.000138393 0)
(-0.000371675 0.000126553 0)
(-0.000439563 0.000112978 0)
(-0.000500516 9.86296e-05 0)
(-0.000554336 8.454e-05 0)
(-0.000601268 7.20168e-05 0)
(-0.000642301 6.2762e-05 0)
(-0.000679581 5.85585e-05 0)
(-0.000716359 6.04479e-05 0)
(-0.000756103 6.81345e-05 0)
(-0.00080155 8.05015e-05 0)
(-0.000854563 9.64664e-05 0)
(-0.000916515 0.000115412 0)
(-0.000988698 0.000137234 0)
(-0.00107258 0.000162144 0)
(-0.00116985 0.000190409 0)
(-0.00128239 0.000222134 0)
(-0.00141203 0.000257131 0)
(-0.00156038 0.000294878 0)
(-0.00172868 0.000334545 0)
(-0.00191762 0.000375059 0)
(-0.00212728 0.000415194 0)
(-0.00235702 0.000453653 0)
(-0.00260552 0.000489138 0)
(-0.00287079 0.00052041 0)
(2.45445e-06 -2.01101e-05 0)
(1.34355e-05 -3.43014e-05 0)
(3.10265e-05 -4.8118e-05 0)
(5.59806e-05 -6.66699e-05 0)
(8.87883e-05 -8.77684e-05 0)
(0.000129127 -0.00010767 0)
(0.000175731 -0.000123401 0)
(0.000226626 -0.000133074 0)
(0.00027937 -0.000135595 0)
(0.000331222 -0.000130397 0)
(0.000379264 -0.000117306 0)
(0.00042052 -9.64998e-05 0)
(0.000452082 -6.85304e-05 0)
(0.00047127 -3.43509e-05 0)
(0.000475795 4.66015e-06 0)
(0.000463958 4.67109e-05 0)
(0.000434826 8.96624e-05 0)
(0.000388385 0.000131166 0)
(0.000325629 0.000168862 0)
(0.000248534 0.000200634 0)
(0.000159915 0.00022485 0)
(6.31603e-05 0.00024055 0)
(-3.80978e-05 0.000247517 0)
(-0.000140327 0.000246256 0)
(-0.000240415 0.000237855 0)
(-0.00033589 0.000223766 0)
(-0.000425003 0.000205564 0)
(-0.000506676 0.000184767 0)
(-0.000580349 0.000162782 0)
(-0.000645755 0.000141029 0)
(-0.000702877 0.000121404 0)
(-0.000752495 0.000106687 0)
(-0.000797169 0.000100094 0)
(-0.000841433 0.000103556 0)
(-0.000890112 0.00011635 0)
(-0.000946526 0.000136279 0)
(-0.00101249 0.000161454 0)
(-0.00108917 0.000190958 0)
(-0.00117783 0.000224799 0)
(-0.00128017 0.000263479 0)
(-0.00139833 0.000307521 0)
(-0.0015347 0.000357119 0)
(-0.00169167 0.000411949 0)
(-0.00187131 0.000471133 0)
(-0.00207516 0.000533304 0)
(-0.00230409 0.000596725 0)
(-0.0025581 0.000659427 0)
(-0.00283638 0.000719341 0)
(-0.00313722 0.000774404 0)
(-0.00345811 0.00082265 0)
(2.84833e-06 -2.84313e-05 0)
(1.68838e-05 -5.1181e-05 0)
(3.96978e-05 -7.25852e-05 0)
(7.14362e-05 -9.92755e-05 0)
(0.000112112 -0.000128553 0)
(0.000161086 -0.000155706 0)
(0.000216849 -0.000176937 0)
(0.000277201 -0.000189771 0)
(0.000339469 -0.000192717 0)
(0.000400646 -0.000184948 0)
(0.000457499 -0.000166148 0)
(0.000506677 -0.000136487 0)
(0.000544847 -9.66465e-05 0)
(0.000568861 -4.78877e-05 0)
(0.000575957 7.90595e-06 0)
(0.000564003 6.82257e-05 0)
(0.000531738 0.000130017 0)
(0.000479005 0.000189865 0)
(0.000406899 0.000244296 0)
(0.000317775 0.000290166 0)
(0.00021508 0.000325051 0)
(0.000102984 0.000347544 0)
(-1.40458e-05 0.000357362 0)
(-0.000131713 0.000355322 0)
(-0.000246328 0.000343133 0)
(-0.000355107 0.000323031 0)
(-0.000456264 0.000297384 0)
(-0.000548891 0.000268354 0)
(-0.000632671 0.000237754 0)
(-0.000707332 0.000207149 0)
(-0.000772277 0.000178826 0)
(-0.000827495 0.000156986 0)
(-0.000875803 0.000147286 0)
(-0.000923773 0.000153292 0)
(-0.000978397 0.000173258 0)
(-0.0010435 0.000202917 0)
(-0.00112025 0.000239142 0)
(-0.00120916 0.000280782 0)
(-0.00131122 0.000328254 0)
(-0.00142836 0.000382654 0)
(-0.00156328 0.000444959 0)
(-0.00171908 0.000515512 0)
(-0.00189883 0.0005938 0)
(-0.00210517 0.000678462 0)
(-0.00234 0.000767425 0)
(-0.00260435 0.000858103 0)
(-0.0028982 0.000947601 0)
(-0.0032205 0.0010329 0)
(-0.00356916 0.00111103 0)
(-0.00394115 0.00117914 0)
(3.19848e-06 -3.84978e-05 0)
(2.00313e-05 -7.22615e-05 0)
(4.76626e-05 -0.000102986 0)
(8.56453e-05 -0.000139051 0)
(0.000133537 -0.000177386 0)
(0.000190417 -0.000212402 0)
(0.000254572 -0.000239528 0)
(0.000323641 -0.00025572 0)
(0.000394789 -0.00025907 0)
(0.000464814 -0.000248453 0)
(0.000530231 -0.000223357 0)
(0.000587361 -0.000183867 0)
(0.000632456 -0.000130737 0)
(0.000661869 -6.54888e-05 0)
(0.000672286 9.49076e-06 0)
(0.000661024 9.09137e-05 0)
(0.000626358 0.000174664 0)
(0.000567867 0.000256031 0)
(0.000486691 0.000330132 0)
(0.000385615 0.000392493 0)
(0.000268855 0.000439669 0)
(0.000141562 0.000469695 0)
(9.24179e-06 0.000482231 0)
(-0.000122862 0.00047856 0)
(-0.000250385 0.000461274 0)
(-0.000370257 0.000433722 0)
(-0.000480814 0.000399354 0)
(-0.000581614 0.000361149 0)
(-0.000673019 0.000321246 0)
(-0.000755024 0.000280779 0)
(-0.000825973 0.000241741 0)
(-0.000883851 0.000210091 0)
(-0.000931225 0.000195895 0)
(-0.000978202 0.000205968 0)
(-0.00103556 0.000236182 0)
(-0.00110729 0.000278211 0)
(-0.00119278 0.000327142 0)
(-0.00129115 0.00038191 0)
(-0.00140295 0.000443953 0)
(-0.00153048 0.00051547 0)
(-0.00167727 0.000598169 0)
(-0.00184742 0.0006926 0)
(-0.00204488 0.000797967 0)
(-0.00227298 0.000912238 0)
(-0.00253407 0.00103242 0)
(-0.00282933 0.00115485 0)
(-0.00315873 0.0012755 0)
(-0.00352096 0.00139025 0)
(-0.00391354 0.00149501 0)
(-0.00433286 0.00158596 0)
(3.47824e-06 -5.00567e-05 0)
(2.2601e-05 -9.69824e-05 0)
(5.42159e-05 -0.00013856 0)
(9.73856e-05 -0.000185096 0)
(0.0001513 -0.000233279 0)
(0.000214822 -0.000276734 0)
(0.000286111 -0.000310175 0)
(0.000362713 -0.000330012 0)
(0.000441708 -0.000333914 0)
(0.00051978 -0.000320408 0)
(0.000593262 -0.000288711 0)
(0.000658195 -0.00023873 0)
(0.000710423 -0.000171181 0)
(0.000745754 -8.77526e-05 0)
(0.000760213 8.71609e-06 0)
(0.000750389 0.000114131 0)
(0.000713889 0.000223172 0)
(0.000649828 0.000329557 0)
(0.000559292 0.000426594 0)
(0.000445555 0.000508054 0)
(0.000313824 0.000569146 0)
(0.000170518 0.000607204 0)
(2.24995e-05 0.000621834 0)
(-0.000123738 0.000614993 0)
(-0.000262961 0.000590556 0)
(-0.000391803 0.000553468 0)
(-0.000508906 0.00050872 0)
(-0.000614685 0.000460454 0)
(-0.000710996 0.000411163 0)
(-0.000798919 0.000360401 0)
(-0.000875162 0.000308119 0)
(-0.000933246 0.000262063 0)
(-0.000974023 0.000240569 0)
(-0.00101408 0.000257327 0)
(-0.00107118 0.000302694 0)
(-0.00114838 0.000360314 0)
(-0.001241 0.000423058 0)
(-0.00134582 0.000490915 0)
(-0.00146296 0.000567491 0)
(-0.00159553 0.000656854 0)
(-0.00174842 0.000761768 0)
(-0.00192708 0.000882986 0)
(-0.00213664 0.00101923 0)
(-0.00238124 0.00116752 0)
(-0.00266372 0.00132365 0)
(-0.00298545 0.00148264 0)
(-0.00334632 0.00163911 0)
(-0.00374474 0.00178762 0)
(-0.00417779 0.00192285 0)
(-0.00464128 0.00203983 0)
(3.67477e-06 -6.27559e-05 0)
(2.44331e-05 -0.000124518 0)
(5.89116e-05 -0.000178165 0)
(0.000105836 -0.000236065 0)
(0.000164155 -0.000294772 0)
(0.000232615 -0.000347209 0)
(0.000309334 -0.000387434 0)
(0.000391858 -0.000411339 0)
(0.000477277 -0.000416157 0)
(0.000562257 -0.000400023 0)
(0.000643042 -0.000361788 0)
(0.00071546 -0.000301051 0)
(0.000774973 -0.000218331 0)
(0.000816803 -0.000115322 0)
(0.000836175 4.81116e-06 0)
(0.000828725 0.000137205 0)
(0.000791076 0.000275214 0)
(0.000721562 0.000410655 0)
(0.000621013 0.000534474 0)
(0.000493257 0.000638051 0)
(0.000344822 0.000714781 0)
(0.0001838 0.000761118 0)
(1.88511e-05 0.000776582 0)
(-0.000141804 0.000764086 0)
(-0.000291748 0.00072936 0)
(-0.000427258 0.00067965 0)
(-0.000547437 0.000622178 0)
(-0.000653953 0.000562949 0)
(-0.000751517 0.000505406 0)
(-0.000844291 0.000445532 0)
(-0.000927119 0.000377196 0)
(-0.00098437 0.00030875 0)
(-0.0010114 0.000274329 0)
(-0.00103694 0.000302692 0)
(-0.00109193 0.000371431 0)
(-0.00117542 0.000448341 0)
(-0.00127422 0.000524652 0)
(-0.00138196 0.000603788 0)
(-0.00149892 0.000693507 0)
(-0.00163 0.000800731 0)
(-0.00178218 0.000929519 0)
(-0.00196282 0.00108064 0)
(-0.00217845 0.00125196 0)
(-0.00243411 0.00143917 0)
(-0.00273314 0.00163649 0)
(-0.00307702 0.00183731 0)
(-0.00346553 0.00203468 0)
(-0.00389676 0.00222164 0)
(-0.00436731 0.00239151 0)
(-0.00487239 0.00253806 0)
(3.77912e-06 -7.61833e-05 0)
(2.54138e-05 -0.00015386 0)
(6.14204e-05 -0.000220379 0)
(0.000110366 -0.000290258 0)
(0.000171108 -0.000360003 0)
(0.000242393 -0.000421907 0)
(0.0003224 -0.000469428 0)
(0.000408782 -0.000497968 0)
(0.000498754 -0.000504323 0)
(0.000589091 -0.000486183 0)
(0.000676072 -0.000441929 0)
(0.000755428 -0.00037069 0)
(0.000822307 -0.000272567 0)
(0.000871328 -0.00014901 0)
(0.000896787 -3.26617e-06 0)
(0.000893072 0.000159178 0)
(0.000855385 0.0003303 0)
(0.00078075 0.000499643 0)
(0.000669353 0.000655004 0)
(0.000525632 0.000784397 0)
(0.000357946 0.000878705 0)
(0.000176598 0.000933332 0)
(-7.37178e-06 0.000947575 0)
(-0.000183294 0.000925661 0)
(-0.000343093 0.000875996 0)
(-0.000482615 0.000809118 0)
(-0.000601483 0.00073535 0)
(-0.000702638 0.00066373 0)
(-0.000795502 0.000601202 0)
(-0.000891558 0.000537427 0)
(-0.000985273 0.000451081 0)
(-0.00104381 0.000346199 0)
(-0.00104825 0.00028745 0)
(-0.00104967 0.000337317 0)
(-0.00110367 0.000443704 0)
(-0.00119754 0.000543171 0)
(-0.00130185 0.000629704 0)
(-0.00140749 0.000715442 0)
(-0.00151688 0.000815266 0)
(-0.00163836 0.000939825 0)
(-0.00178202 0.00109433 0)
(-0.00195754 0.00127902 0)
(-0.00217299 0.00149033 0)
(-0.00243433 0.00172206 0)
(-0.00274524 0.00196644 0)
(-0.00310726 0.00221493 0)
(-0.00351993 0.00245878 0)
(-0.00398099 0.00268936 0)
(-0.00448651 0.00289849 0)
(-0.00503112 0.00307854 0)
(3.78282e-06 -8.98793e-05 0)
(2.54462e-05 -0.000183856 0)
(6.14669e-05 -0.000263541 0)
(0.000110442 -0.000345663 0)
(0.000171298 -0.000426736 0)
(0.0002429 -0.000498484 0)
(0.0003236 -0.000553819 0)
(0.000411275 -0.000587691 0)
(0.0005034 -0.000596464 0)
(0.000597013 -0.000577344 0)
(0.000688607 -0.00052814 0)
(0.000773991 -0.000447319 0)
(0.000848145 -0.000334285 0)
(0.000905152 -0.000189874 0)
(0.000938277 -1.70175e-05 0)
(0.000940339 0.00017852 0)
(0.000904523 0.00038745 0)
(0.00082569 0.000596693 0)
(0.000702639 0.000789759 0)
(0.000540424 0.000949718 0)
(0.000350091 0.0010639 0)
(0.000144834 0.00112667 0)
(-6.12293e-05 0.00113667 0)
(-0.000253866 0.00109987 0)
(-0.000422683 0.0010286 0)
(-0.0005632 0.000938059 0)
(-0.000675627 0.000842439 0)
(-0.000763026 0.000754856 0)
(-0.000840532 0.000692769 0)
(-0.000934636 0.00063925 0)
(-0.00104653 0.000538139 0)
(-0.00111448 0.000371825 0)
(-0.0010872 0.000264187 0)
(-0.00105422 0.000357358 0)
(-0.0011144 0.000527258 0)
(-0.00122687 0.000648209 0)
(-0.00133411 0.000734864 0)
(-0.001429 0.000818431 0)
(-0.00152045 0.000923923 0)
(-0.00162247 0.00106545 0)
(-0.00174897 0.00124836 0)
(-0.00191211 0.00147137 0)
(-0.00212137 0.00172858 0)
(-0.00238336 0.00201129 0)
(-0.00270193 0.00230934 0)
(-0.00307849 0.00261195 0)
(-0.00351225 0.00290838 0)
(-0.00400053 0.00318824 0)
(-0.00453892 0.0034417 0)
(-0.00512143 0.00365969 0)
(3.6774e-06 -0.00010334 0)
(2.44455e-05 -0.000213227 0)
(5.88188e-05 -0.000305791 0)
(0.000105616 -0.000399991 0)
(0.000163984 -0.000492385 0)
(0.000233022 -0.000574175 0)
(0.000311361 -0.000637779 0)
(0.000397218 -0.000677748 0)
(0.00048847 -0.000690046 0)
(0.000582603 -0.000671386 0)
(0.000676553 -0.000618921 0)
(0.000766471 -0.000530265 0)
(0.000847437 -0.000403793 0)
(0.000913193 -0.000239234 0)
(0.000956 -3.85758e-05 0)
(0.000966816 0.000192784 0)
(0.000936069 0.000444748 0)
(0.0008551 0.000701488 0)
(0.000719907 0.000940568 0)
(0.000536032 0.00113742 0)
(0.000318776 0.00127423 0)
(8.49886e-05 0.00134504 0)
(-0.000147453 0.00134661 0)
(-0.000358898 0.0012872 0)
(-0.000535733 0.00118508 0)
(-0.000673918 0.00106219 0)
(-0.000774937 0.000936606 0)
(-0.000839782 0.000824712 0)
(-0.000884745 0.000765001 0)
(-0.000957656 0.000748519 0)
(-0.00109125 0.000657698 0)
(-0.0011882 0.000391003 0)
(-0.00112878 0.000181887 0)
(-0.00105791 0.000364703 0)
(-0.00114226 0.000642189 0)
(-0.00128275 0.000765798 0)
(-0.00138105 0.000831001 0)
(-0.00144892 0.000900456 0)
(-0.0015084 0.00100784 0)
(-0.00158006 0.00116771 0)
(-0.00168099 0.00138355 0)
(-0.00182519 0.00165118 0)
(-0.00202306 0.00196145 0)
(-0.00228146 0.00230255 0)
(-0.00260413 0.00266154 0)
(-0.00299213 0.00302526 0)
(-0.00344432 0.00338087 0)
(-0.00395758 0.0037161 0)
(-0.00452702 0.00401948 0)
(-0.00514617 0.00428037 0)
(3.45554e-06 -0.000116021 0)
(2.23476e-05 -0.000240592 0)
(5.33077e-05 -0.000345103 0)
(9.55571e-05 -0.000450722 0)
(0.000148603 -0.000554054 0)
(0.000211875 -0.00064581 0)
(0.000284362 -0.000717972 0)
(0.000364719 -0.000764763 0)
(0.000451363 -0.000781822 0)
(0.000542418 -0.000765414 0)
(0.000635538 -0.000712016 0)
(0.00072758 -0.000618239 0)
(0.000814155 -0.000481081 0)
(0.000889076 -0.000298553 0)
(0.000943865 -7.08123e-05 0)
(0.000967507 0.000198214 0)
(0.000946927 0.000498688 0)
(0.000867884 0.000812652 0)
(0.000720886 0.00110942 0)
(0.000511384 0.00135182 0)
(0.00026203 0.00151437 0)
(-6.03394e-06 0.00159365 0)
(-0.000270713 0.00158125 0)
(-0.000503444 0.00148838 0)
(-0.000686272 0.00134293 0)
(-0.000818046 0.00117722 0)
(-0.000903498 0.00101092 0)
(-0.000941783 0.000862148 0)
(-0.00094206 0.000792995 0)
(-0.000948251 0.000827451 0)
(-0.00105923 0.000821704 0)
(-0.00120575 0.000435467 0)
(-0.0011753 1.08312e-05 0)
(-0.00112141 0.000381598 0)
(-0.00125614 0.000815423 0)
(-0.00140169 0.000874427 0)
(-0.00144639 0.000890584 0)
(-0.00145828 0.00094073 0)
(-0.00147044 0.00105294 0)
(-0.00150305 0.00123696 0)
(-0.00157258 0.00149296 0)
(-0.00169343 0.00181324 0)
(-0.00187636 0.00218481 0)
(-0.00212813 0.00259239 0)
(-0.00245212 0.00302007 0)
(-0.00284903 0.00345223 0)
(-0.00331729 0.00387392 0)
(-0.00385345 0.00427102 0)
(-0.00445229 0.00463037 0)
(-0.00510698 0.00493972 0)
(3.11328e-06 -0.000127354 0)
(1.91262e-05 -0.000264505 0)
(4.48685e-05 -0.000379351 0)
(8.01292e-05 -0.000495179 0)
(0.000124888 -0.000608608 0)
(0.000178962 -0.00070987 0)
(0.000241745 -0.000790569 0)
(0.000312384 -0.000844701 0)
(0.000389925 -0.000867706 0)
(0.000473305 -0.000855535 0)
(0.000561182 -0.000804076 0)
(0.000651566 -0.000708905 0)
(0.000741211 -0.000565361 0)
(0.000824734 -0.000369079 0)
(0.000893592 -0.000117225 0)
(0.000935112 0.000189404 0)
(0.000932314 0.00054327 0)
(0.000862585 0.000926741 0)
(0.000705976 0.00129823 0)
(0.000465615 0.00159862 0)
(0.000177895 0.00178969 0)
(-0.000131437 0.00187916 0)
(-0.00043601 0.0018453 0)
(-0.000691366 0.00170359 0)
(-0.000874738 0.00149827 0)
(-0.000994343 0.00128021 0)
(-0.00106465 0.00106341 0)
(-0.00108302 0.000863506 0)
(-0.00104921 0.000757988 0)
(-0.000960951 0.000791353 0)
(-0.000906982 0.000920907 0)
(-0.000997 0.000575082 0)
(-0.00123631 9.08742e-05 0)
(-0.00147176 0.000501114 0)
(-0.0015709 0.00094259 0)
(-0.00154365 0.000874927 0)
(-0.0014638 0.000865453 0)
(-0.00140847 0.000921427 0)
(-0.00137828 0.00105284 0)
(-0.0013761 0.00127005 0)
(-0.00141564 0.00157415 0)
(-0.00151279 0.00195525 0)
(-0.00167956 0.00239639 0)
(-0.00192298 0.00287851 0)
(-0.00224627 0.00338259 0)
(-0.00264983 0.00389055 0)
(-0.00313187 0.00438537 0)
(-0.00368878 0.00485115 0)
(-0.00431525 0.00527301 0)
(-0.00500432 0.00563705 0)
(2.65285e-06 -0.000136767 0)
(1.48123e-05 -0.000283522 0)
(3.35883e-05 -0.000406401 0)
(5.94759e-05 -0.000530642 0)
(9.30018e-05 -0.000652797 0)
(0.000134383 -0.000762602 0)
(0.000183405 -0.000851335 0)
(0.000239689 -0.000912887 0)
(0.000302922 -0.00094269 0)
(0.000372939 -0.000936621 0)
(0.000449635 -0.000890237 0)
(0.000532641 -0.00079826 0)
(0.000620638 -0.000654309 0)
(0.000710151 -0.000451076 0)
(0.000793864 -0.000181415 0)
(0.000858517 0.00015928 0)
(0.000883757 0.000568999 0)
(0.000835533 0.00103668 0)
(0.000676074 0.00150764 0)
(0.000398089 0.00188615 0)
(6.35685e-05 0.00210532 0)
(-0.000296552 0.00221041 0)
(-0.000650493 0.00214294 0)
(-0.000923927 0.00192979 0)
(-0.00109288 0.00164182 0)
(-0.00118666 0.00136913 0)
(-0.00124428 0.00110673 0)
(-0.0012674 0.000856248 0)
(-0.00125425 0.00070536 0)
(-0.00119976 0.000693123 0)
(-0.00115442 0.000943818 0)
(-0.0011462 0.000686159 0)
(-0.00130519 0.000416253 0)
(-0.00148336 0.000630065 0)
(-0.00146499 0.000954498 0)
(-0.00137976 0.000770202 0)
(-0.00129802 0.000785391 0)
(-0.0012482 0.000872468 0)
(-0.00121342 0.00102649 0)
(-0.00119273 0.00127632 0)
(-0.00120803 0.00163079 0)
(-0.00128296 0.00207807 0)
(-0.00143335 0.00259556 0)
(-0.00166717 0.00315943 0)
(-0.00198779 0.0037471 0)
(-0.00239554 0.00433792 0)
(-0.00288867 0.00491288 0)
(-0.00346372 0.00545436 0)
(-0.00411558 0.00594579 0)
(-0.0048375 0.00637156 0)
(2.08558e-06 -0.000143717 0)
(9.51609e-06 -0.000296287 0)
(1.97565e-05 -0.00042424 0)
(3.4113e-05 -0.000554513 0)
(5.36888e-05 -0.000683442 0)
(7.9063e-05 -0.000800216 0)
(0.000110326 -0.000895817 0)
(0.000147459 -0.000964151 0)
(0.000190673 -0.00100088 0)
(0.000240626 -0.00100216 0)
(0.000298508 -0.00096368 0)
(0.000365907 -0.000879832 0)
(0.000444245 -0.000742885 0)
(0.000533431 -0.000542435 0)
(0.000629497 -0.000265719 0)
(0.000720847 0.000100203 0)
(0.000786039 0.000562993 0)
(0.000775894 0.00113241 0)
(0.000626009 0.00173582 0)
(0.000303491 0.00222489 0)
(-8.59393e-05 0.00246219 0)
(-0.000512531 0.00260542 0)
(-0.000932493 0.00247797 0)
(-0.0012042 0.00214985 0)
(-0.00131951 0.00174683 0)
(-0.00135854 0.0014373 0)
(-0.00139157 0.00115353 0)
(-0.00142776 0.000890486 0)
(-0.00148781 0.000736215 0)
(-0.00157826 0.000701453 0)
(-0.00141761 0.000748085 0)
(-0.00117719 0.00064764 0)
(-0.00129417 0.000635323 0)
(-0.00138211 0.000575169 0)
(-0.00109122 0.000722424 0)
(-0.000912145 0.000757291 0)
(-0.00100237 0.000794471 0)
(-0.00103911 0.000862206 0)
(-0.0010181 0.00100118 0)
(-0.000977711 0.00126479 0)
(-0.000963811 0.00166457 0)
(-0.00101212 0.0021811 0)
(-0.001143 0.00278085 0)
(-0.00136442 0.00343306 0)
(-0.00167928 0.00411099 0)
(-0.00208776 0.00479138 0)
(-0.0025883 0.00545343 0)
(-0.00317789 0.00607787 0)
(-0.00385203 0.00664655 0)
(-0.00460457 0.00714207 0)
(1.43445e-06 -0.000147726 0)
(3.43873e-06 -0.000301655 0)
(3.89758e-06 -0.00043115 0)
(4.99735e-06 -0.000564527 0)
(8.39539e-06 -0.000697701 0)
(1.49484e-05 -0.000819197 0)
(2.49004e-05 -0.000919677 0)
(3.83747e-05 -0.000993158 0)
(5.58208e-05 -0.00103575 0)
(7.8397e-05 -0.00104431 0)
(0.000108303 -0.00101533 0)
(0.000149012 -0.000943797 0)
(0.000205192 -0.000821758 0)
(0.00028174 -0.000636567 0)
(0.000381181 -0.0003693 0)
(0.000497999 4.86669e-06 0)
(0.000616643 0.000505551 0)
(0.00067713 0.00119136 0)
(0.000561457 0.00198664 0)
(0.000167161 0.00264328 0)
(-0.00028875 0.002837 0)
(-0.000793651 0.00310188 0)
(-0.00129863 0.0028526 0)
(-0.00152512 0.00232161 0)
(-0.00152463 0.00175527 0)
(-0.00145978 0.00145305 0)
(-0.00142268 0.00116082 0)
(-0.00138237 0.000900367 0)
(-0.00133175 0.000749828 0)
(-0.00125306 0.000694977 0)
(-0.00116873 0.000529863 0)
(-0.00110903 0.000587351 0)
(-0.00124988 0.000869709 0)
(-0.00142182 0.000503911 0)
(-0.00133697 0.00043914 0)
(-0.00118188 0.000721449 0)
(-0.00105914 0.000768241 0)
(-0.000958321 0.00082138 0)
(-0.000863156 0.000939499 0)
(-0.000764946 0.00121403 0)
(-0.00070018 0.0016622 0)
(-0.000709713 0.00225677 0)
(-0.000814955 0.00294745 0)
(-0.00101952 0.00369546 0)
(-0.00132414 0.00447022 0)
(-0.00172836 0.00524671 0)
(-0.00223111 0.00600277 0)
(-0.00283023 0.00671781 0)
(-0.00352225 0.00737217 0)
(-0.00430212 0.00794667 0)
(7.06869e-07 -0.000148468 0)
(-3.13993e-06 -0.000298788 0)
(-1.32057e-05 -0.000425874 0)
(-2.64539e-05 -0.000559001 0)
(-4.06875e-05 -0.000693382 0)
(-5.48862e-05 -0.000816697 0)
(-6.88469e-05 -0.000919193 0)
(-8.26042e-05 -0.000994984 0)
(-9.59095e-05 -0.00104076 0)
(-0.000107721 -0.00105442 0)
(-0.000115623 -0.00103397 0)
(-0.000115131 -0.000976257 0)
(-9.89162e-05 -0.000875142 0)
(-5.64015e-05 -0.000718424 0)
(2.50957e-05 -0.000483219 0)
(0.000153206 -0.000130171 0)
(0.00032402 0.000377758 0)
(0.000482606 0.00117535 0)
(0.000491377 0.0022194 0)
(4.54359e-05 0.00321249 0)
(-0.000563087 0.00324697 0)
(-0.00126402 0.00381604 0)
(-0.00180872 0.00315657 0)
(-0.00180642 0.0023532 0)
(-0.00167393 0.00166393 0)
(-0.00150018 0.00133134 0)
(-0.00132927 0.00106531 0)
(-0.00119964 0.000801383 0)
(-0.00108625 0.000651138 0)
(-0.000977084 0.000574611 0)
(-0.000881665 0.000493141 0)
(-0.000906099 0.000635345 0)
(-0.000960299 0.00101956 0)
(-0.00103114 0.000587668 0)
(-0.00106527 0.000346357 0)
(-0.000983349 0.000604306 0)
(-0.0009066 0.000643094 0)
(-0.000815753 0.000704025 0)
(-0.000688534 0.000815347 0)
(-0.000536286 0.0011031 0)
(-0.000410168 0.00160792 0)
(-0.00037381 0.00229728 0)
(-0.000451506 0.00309081 0)
(-0.000636291 0.00394223 0)
(-0.00092559 0.0048196 0)
(-0.00131892 0.00569806 0)
(-0.00181668 0.00655502 0)
(-0.00241844 0.00736878 0)
(-0.00312231 0.00811819 0)
(-0.0039248 0.00878239 0)
(-2.98134e-08 -0.000145791 0)
(-9.82164e-06 -0.000287283 0)
(-3.05807e-05 -0.000407808 0)
(-5.84331e-05 -0.000537084 0)
(-9.07056e-05 -0.000669298 0)
(-0.000126314 -0.000791036 0)
(-0.000165274 -0.000891925 0)
(-0.000208077 -0.000966014 0)
(-0.000255182 -0.00101048 0)
(-0.000306481 -0.00102433 0)
(-0.000360635 -0.00100747 0)
(-0.000414055 -0.00095973 0)
(-0.000459335 -0.000879274 0)
(-0.000483036 -0.00075911 0)
(-0.000463091 -0.000580433 0)
(-0.000366291 -0.000299975 0)
(-0.000163164 0.000146909 0)
(0.000163481 0.000961611 0)
(0.000464009 0.00228168 0)
(0.000199399 0.00389888 0)
(-0.000763356 0.00404048 0)
(-0.00173136 0.00464134 0)
(-0.00197847 0.00319612 0)
(-0.00165724 0.00214165 0)
(-0.00133874 0.00146655 0)
(-0.00112343 0.00112029 0)
(-0.000958712 0.000901552 0)
(-0.000834887 0.000668748 0)
(-0.000768882 0.000564394 0)
(-0.000749503 0.000503712 0)
(-0.00076604 0.000477036 0)
(-0.000778091 0.000682615 0)
(-0.000637948 0.000903199 0)
(-0.000526535 0.000678202 0)
(-0.000591458 0.000354187 0)
(-0.000574832 0.000516267 0)
(-0.000549325 0.000611982 0)
(-0.000573178 0.000620166 0)
(-0.000479378 0.000668127 0)
(-0.000281071 0.000931793 0)
(-8.37348e-05 0.00149445 0)
(-8.5135e-07 0.00230361 0)
(-5.67119e-05 0.00321122 0)
(-0.000220493 0.0041699 0)
(-0.000487667 0.00515264 0)
(-0.000860633 0.0061375 0)
(-0.00134338 0.00710206 0)
(-0.00193841 0.0080234 0)
(-0.00264609 0.00887848 0)
(-0.00346486 0.00964483 0)
(-7.29762e-07 -0.000139733 0)
(-1.61812e-05 -0.000267283 0)
(-4.7125e-05 -0.000377133 0)
(-8.88963e-05 -0.00049896 0)
(-0.000138387 -0.000625571 0)
(-0.000194492 -0.000742159 0)
(-0.000257523 -0.00083743 0)
(-0.000328609 -0.000905035 0)
(-0.000409279 -0.000942245 0)
(-0.000501087 -0.000948725 0)
(-0.000605151 -0.000925858 0)
(-0.00072133 -0.000876376 0)
(-0.000846735 -0.000803606 0)
(-0.000973081 -0.000709126 0)
(-0.00108245 -0.000586944 0)
(-0.00113964 -0.000409326 0)
(-0.00107935 -0.000107121 0)
(-0.000797632 0.000554268 0)
(-0.000253065 0.00201071 0)
(-0.000266798 0.00460853 0)
(-0.00126946 0.00522833 0)
(-0.00187566 0.00506911 0)
(-0.00151578 0.00284275 0)
(-0.000979406 0.00172087 0)
(-0.000629087 0.0011721 0)
(-0.000438404 0.000931926 0)
(-0.000338952 0.000772384 0)
(-0.000313316 0.000617909 0)
(-0.00035121 0.000572265 0)
(-0.000421092 0.000541374 0)
(-0.000493707 0.000514367 0)
(-0.000470732 0.000607958 0)
(-0.000285118 0.000671506 0)
(-6.63524e-05 0.000610893 0)
(-3.31521e-05 0.000441276 0)
(-0.000119676 0.000512782 0)
(-0.000222872 0.000696461 0)
(-0.000329888 0.000615501 0)
(-0.000258628 0.000494945 0)
(3.98348e-06 0.000683559 0)
(0.000279396 0.00131356 0)
(0.000399303 0.00228663 0)
(0.000353207 0.0033112 0)
(0.000215823 0.00437232 0)
(-1.59546e-05 0.00545882 0)
(-0.000353695 0.00655332 0)
(-0.000807471 0.00763262 0)
(-0.00138337 0.00867171 0)
(-0.00208454 0.00964495 0)
(-0.00291151 0.0105279 0)
(-1.34651e-06 -0.000130569 0)
(-2.18004e-05 -0.000239474 0)
(-6.17559e-05 -0.000334868 0)
(-0.000115821 -0.000445944 0)
(-0.000180455 -0.000563811 0)
(-0.000254472 -0.000671971 0)
(-0.000338392 -0.000757868 0)
(-0.000433895 -0.000814312 0)
(-0.000543545 -0.000838042 0)
(-0.000670692 -0.000828455 0)
(-0.000819421 -0.00078706 0)
(-0.000994452 -0.000717552 0)
(-0.00120078 -0.0006259 0)
(-0.0014425 -0.000520008 0)
(-0.00171999 -0.000407328 0)
(-0.002024 -0.00028595 0)
(-0.00230866 -0.000121207 0)
(-0.00242823 0.00026376 0)
(-0.00206009 0.00143578 0)
(-0.00158046 0.0049449 0)
(-0.00152372 0.00586808 0)
(-0.000944404 0.00458549 0)
(-5.30576e-05 0.00225282 0)
(0.000281743 0.00135081 0)
(0.000350658 0.000996732 0)
(0.000303615 0.000868083 0)
(0.000230049 0.000767513 0)
(0.00014307 0.000672503 0)
(5.55876e-05 0.000649567 0)
(-3.06069e-05 0.000631091 0)
(-0.000110974 0.000560335 0)
(-9.06733e-05 0.000495663 0)
(9.23079e-05 0.000441455 0)
(0.000323606 0.000429046 0)
(0.000459047 0.000459198 0)