/*--------------------------------*- C++ -*----------------------------------*\
| =========                 |                                                 |
| \\      /  F ield         | OpenFOAM: The Open Source CFD Toolbox           |
|  \\    /   O peration     | Version:  2.4.0                                 |
|   \\  /    A nd           | Web:      www.OpenFOAM.org                      |
|    \\/     M anipulation  |                                                 |
\*---------------------------------------------------------------------------*/
FoamFile
{
    version     2.0;
    format      ascii;
    class       surfaceScalarField;
    location    "0.164";
    object      phi;
}
// * * * * * * * * * * * * * * * * * * * * * * * * * * * * * * * * * * * * * //

dimensions      [0 3 -1 0 0 0 0];

internalField   nonuniform List<scalar> 
7080
(
1.80112e-08
-1.80112e-08
5.12122e-08
-3.3201e-08
8.26137e-08
-3.14015e-08
1.03207e-07
-2.05934e-08
1.16865e-07
-1.36575e-08
1.12477e-07
4.38728e-09
9.08191e-08
2.16583e-08
5.90057e-08
3.18133e-08
2.81852e-08
3.08205e-08
3.80639e-09
2.43788e-08
-1.16536e-08
1.546e-08
-3.01438e-08
1.84902e-08
-4.17319e-08
1.1588e-08
-5.78085e-08
1.60766e-08
-6.54767e-08
7.66819e-09
-5.43839e-08
-1.10929e-08
-2.85077e-08
-2.58763e-08
-1.03397e-08
-1.8168e-08
-1.27288e-08
2.38913e-09
-4.25922e-08
2.98634e-08
-1.37089e-07
9.44972e-08
-2.2646e-07
8.9371e-08
-2.36448e-07
9.98752e-09
-1.86448e-07
-4.99998e-08
-1.41332e-07
-4.5116e-08
-1.15166e-07
-2.61659e-08
-8.97356e-08
-2.54307e-08
-5.35151e-08
-3.62206e-08
-2.90667e-08
-2.44484e-08
-1.94948e-08
-9.5719e-09
8.58328e-09
-2.65945e-08
4.8645e-08
-7.32628e-08
9.51095e-08
-7.7866e-08
1.29651e-07
-5.51352e-08
1.57719e-07
-4.17256e-08
1.67136e-07
-5.02943e-09
1.54256e-07
3.45381e-08
1.29843e-07
5.62269e-08
9.72586e-08
6.34046e-08
7.20286e-08
4.96088e-08
5.38298e-08
3.36588e-08
2.6149e-08
4.6171e-08
1.53629e-08
2.23741e-08
-2.46028e-08
5.60423e-08
-4.19237e-08
2.4989e-08
-5.23402e-08
-6.76405e-10
-7.20813e-08
-6.13522e-09
-6.98575e-08
-2.03918e-08
-9.03489e-08
2.28806e-08
-1.63634e-07
1.03149e-07
-2.67714e-07
1.98577e-07
-3.26099e-07
1.47756e-07
-3.08018e-07
-8.09374e-09
-2.70705e-07
-8.73131e-08
-2.2466e-07
-9.11607e-08
-1.77555e-07
-7.32716e-08
-1.31432e-07
-7.15529e-08
-8.33492e-08
-8.43037e-08
-3.84383e-08
-6.93593e-08
-5.69233e-08
-1.00967e-09
2.47158e-09
-2.9066e-08
4.17097e-08
-1.12501e-07
8.9913e-08
-1.26069e-07
1.26636e-07
-9.18578e-08
1.57609e-07
-7.26987e-08
1.70958e-07
-1.83785e-08
1.61826e-07
4.367e-08
1.43435e-07
7.46178e-08
1.1318e-07
9.3659e-08
9.4931e-08
6.78583e-08
7.91343e-08
4.94554e-08
5.52766e-08
7.00287e-08
5.80054e-08
1.96453e-08
1.80657e-08
9.59819e-08
3.4206e-09
3.96342e-08
-1.20205e-08
1.47646e-08
-6.27459e-08
4.45902e-08
-1.01184e-07
1.80468e-08
-1.55955e-07
7.76514e-08
-2.41548e-07
1.88741e-07
-3.136e-07
2.70629e-07
-3.30627e-07
1.64784e-07
-3.07407e-07
-3.13145e-08
-2.65761e-07
-1.28959e-07
-2.20962e-07
-1.35959e-07
-1.56363e-07
-1.37871e-07
-1.00612e-07
-1.27304e-07
-7.3882e-08
-1.11033e-07
-3.76005e-08
-1.05641e-07
-9.53623e-08
8.38481e-10
4.38239e-10
-2.95043e-08
3.94919e-08
-1.51555e-07
8.79392e-08
-1.74516e-07
1.24987e-07
-1.28906e-07
1.56566e-07
-1.04278e-07
1.70594e-07
-3.24064e-08
1.6191e-07
5.23543e-08
1.44824e-07
9.17035e-08
1.14044e-07
1.24439e-07
1.00275e-07
8.16268e-08
8.04259e-08
6.93049e-08
6.62771e-08
8.41775e-08
8.29993e-08
2.92312e-09
4.70927e-08
1.31888e-07
3.49383e-08
5.17885e-08
1.94728e-08
3.023e-08
-5.37835e-08
1.17847e-07
-1.28661e-07
9.29242e-08
-2.03914e-07
1.52905e-07
-2.61307e-07
2.46134e-07
-2.79662e-07
2.88984e-07
-2.62613e-07
1.47735e-07
-2.31974e-07
-6.1953e-08
-2.20688e-07
-1.40245e-07
-2.00087e-07
-1.56561e-07
-1.51744e-07
-1.86214e-07
-9.78581e-08
-1.8119e-07
-6.95661e-08
-1.39325e-07
-3.85431e-08
-1.36664e-07
-1.27892e-07
-6.01298e-09
-2.53056e-10
-2.92512e-08
3.88874e-08
-1.90695e-07
8.75926e-08
-2.23222e-07
1.24909e-07
-1.66222e-07
1.56959e-07
-1.36328e-07
1.71296e-07
-4.67431e-08
1.62514e-07
6.11365e-08
1.45192e-07
1.09025e-07
1.12992e-07
1.5664e-07
1.01828e-07
9.2791e-08
7.2509e-08
9.86236e-08
7.14359e-08
8.52506e-08
9.51647e-08
-2.08057e-08
6.41829e-08
1.6287e-07
6.29497e-08
5.30217e-08
5.12866e-08
4.18931e-08
-2.48681e-08
1.94001e-07
-1.15765e-07
1.83821e-07
-1.93613e-07
2.30752e-07
-2.28352e-07
2.80874e-07
-2.11849e-07
2.72481e-07
-1.68014e-07
1.039e-07
-1.45054e-07
-8.49132e-08
-1.41693e-07
-1.43606e-07
-1.3702e-07
-1.61233e-07
-1.13243e-07
-2.09991e-07
-7.96758e-08
-2.14757e-07
-4.6302e-08
-1.72699e-07
-2.74241e-08
-1.55542e-07
-1.44104e-07
-1.12127e-08
-8.03349e-10
-2.84478e-08
3.8542e-08
-2.30041e-07
8.7559e-08
-2.72239e-07
1.25202e-07
-2.03866e-07
1.57818e-07
-1.68944e-07
1.72526e-07
-6.14516e-08
1.63691e-07
6.99717e-08
1.45622e-07
1.27094e-07
1.12506e-07
1.89756e-07
1.02361e-07
1.02936e-07
6.47357e-08
1.36249e-07
7.31153e-08
7.6871e-08
8.67673e-08
-3.44578e-08
6.954e-08
1.80097e-07
8.9258e-08
3.33037e-08
7.78429e-08
5.33082e-08
1.56139e-08
2.5623e-07
-6.55312e-08
2.64967e-07
-1.27255e-07
2.92476e-07
-1.38644e-07
2.92263e-07
-1.17335e-07
2.51172e-07
-7.65544e-08
6.31189e-08
-4.60853e-08
-1.15382e-07
-4.20921e-08
-1.47599e-07
-2.95139e-08
-1.73812e-07
-1.82246e-08
-2.21281e-07
-1.46353e-08
-2.18346e-07
-6.52693e-09
-1.80808e-07
-7.22317e-09
-1.54846e-07
-1.4203e-07
-9.29663e-09
-1.42345e-09
-2.70244e-08
3.81675e-08
-2.69631e-07
8.75534e-08
-3.21625e-07
1.25594e-07
-2.41906e-07
1.58886e-07
-2.02236e-07
1.74048e-07
-7.66138e-08
1.65246e-07
7.87739e-08
1.4601e-07
1.46329e-07
1.12892e-07
2.22874e-07
1.02639e-07
1.13189e-07
6.23688e-08
1.76519e-07
7.19234e-08
6.73163e-08
5.38619e-08
-1.63963e-08
5.72791e-08
1.7668e-07
9.95032e-08
-8.92048e-09
7.80963e-08
7.47151e-08
3.79443e-08
2.96382e-07
-1.05477e-08
3.13459e-07
-4.71882e-08
3.29116e-07
-4.41387e-08
2.89213e-07
-9.38875e-09
2.16422e-07
3.42295e-08
1.95006e-08
6.37945e-08
-1.44947e-07
8.28718e-08
-1.66677e-07
8.50027e-08
-1.75943e-07
6.57985e-08
-2.02077e-07
3.78741e-08
-1.90422e-07
2.1051e-08
-1.63984e-07
3.3466e-09
-1.37141e-07
-1.25523e-07
-1.31604e-08
-2.16184e-09
-2.48625e-08
3.77173e-08
-3.09511e-07
8.75351e-08
-3.71442e-07
1.26045e-07
-2.80416e-07
1.60134e-07
-2.36325e-07
1.75843e-07
-9.23223e-08
1.6713e-07
8.74868e-08
1.46268e-07
1.67191e-07
1.14222e-07
2.5492e-07
1.02718e-07
1.24693e-07
6.63392e-08
2.12898e-07
7.34956e-08
6.01598e-08
2.29796e-08
3.41196e-08
3.09818e-08
1.68678e-07
7.47071e-08
-5.26459e-08
5.38954e-08
9.55268e-08
4.00014e-08
3.10276e-07
4.70135e-08
3.06447e-07
6.93185e-08
3.06811e-07
7.69294e-08
2.81602e-07
1.11731e-07
1.81621e-07
1.43241e-07
-1.20092e-08
1.65907e-07
-1.67614e-07
1.82175e-07
-1.82944e-07
1.61902e-07
-1.5567e-07
1.26021e-07
-1.66196e-07
8.15634e-08
-1.45964e-07
3.90471e-08
-1.21468e-07
9.4292e-09
-1.07523e-07
-1.03962e-07
-1.21324e-08
-3.0296e-09
-2.18329e-08
3.71828e-08
-3.49723e-07
8.74951e-08
-4.21755e-07
1.26553e-07
-3.19474e-07
1.61562e-07
-2.71334e-07
1.77935e-07
-1.08696e-07
1.69284e-07
9.61383e-08
1.46444e-07
1.9003e-07
1.1631e-07
2.85055e-07
1.00778e-07
1.40226e-07
7.55866e-08
2.38089e-07
8.28406e-08
5.29057e-08
1.90054e-08
9.79547e-08
1.14201e-08
1.76263e-07
3.22881e-08
-7.35138e-08
4.03637e-08
8.74512e-08
6.10453e-08
2.89595e-07
8.07264e-08
2.86766e-07
1.40011e-07
2.47527e-07
1.6945e-07
2.52163e-07
2.00787e-07
1.50285e-07
2.14969e-07
-2.61911e-08
2.18341e-07
-1.70987e-07
2.20264e-07
-1.84867e-07
1.98122e-07
-1.33527e-07
1.56918e-07
-1.24992e-07
1.10247e-07
-9.92933e-08
5.96824e-08
-7.09037e-08
2.07293e-08
-6.85703e-08
-7.86085e-08
-4.62409e-09
-4.031e-09
-1.78019e-08
3.65597e-08
-3.90314e-07
8.74254e-08
-4.7262e-07
1.27121e-07
-3.59169e-07
1.6317e-07
-3.07384e-07
1.8035e-07
-1.25875e-07
1.71635e-07
1.04853e-07
1.46856e-07
2.14809e-07
1.1794e-07
3.13971e-07
9.63662e-08
1.61799e-07
8.43497e-08
2.50105e-07
8.91849e-08
4.80705e-08
2.77549e-08
1.59385e-07
1.24217e-08
1.91596e-07
2.02613e-08
-8.13535e-08
4.08553e-08
6.68571e-08
7.52048e-08
2.55245e-07
8.07572e-08
2.81213e-07
1.2647e-07
2.01814e-07
1.73398e-07
2.05235e-07
2.17932e-07
1.05751e-07
2.27204e-07
-3.54636e-08
2.15448e-07
-1.59231e-07
1.99458e-07
-1.68877e-07
1.76028e-07
-1.10097e-07
1.41883e-07
-9.08465e-08
1.028e-07
-6.02107e-08
5.88949e-08
-2.69987e-08
2.31742e-08
-3.28496e-08
-5.44429e-08
-9.91424e-10
-5.16832e-09
-1.26336e-08
3.58438e-08
-4.31326e-07
8.73158e-08
-5.24092e-07
1.27749e-07
-3.99603e-07
1.64964e-07
-3.44598e-07
1.83093e-07
-1.44004e-07
1.74214e-07
1.13732e-07
1.47642e-07
2.41381e-07
1.18402e-07
3.43211e-07
9.20183e-08
1.88183e-07
8.9108e-08
2.53016e-07
8.35379e-08
5.36405e-08
3.68913e-08
2.06031e-07
2.96484e-08
1.98839e-07
2.70931e-08
-7.87982e-08
3.3889e-08
6.00612e-08
6.44313e-08
2.24703e-07
7.82215e-08
2.67423e-07
9.61563e-08
1.83879e-07
1.34064e-07
1.67327e-07
1.69468e-07
7.0347e-08
1.83872e-07
-4.98673e-08
1.82442e-07
-1.57802e-07
1.65016e-07
-1.5145e-07
1.44718e-07
-8.97993e-08
1.0863e-07
-5.47576e-08
7.36526e-08
-2.52338e-08
4.66478e-08
5.97212e-12
2.21699e-08
-8.37174e-09
-3.39939e-08
1.72096e-09
-6.445e-09
-6.18863e-09
3.50306e-08
-4.72802e-07
8.71532e-08
-5.76215e-07
1.28438e-07
-4.40887e-07
1.66946e-07
-3.83106e-07
1.86179e-07
-1.63237e-07
1.77088e-07
1.22823e-07
1.48651e-07
2.69818e-07
1.17965e-07
3.73897e-07
9.02625e-08
2.15885e-07
8.96783e-08
2.536e-07
7.38858e-08
6.94329e-08
4.47534e-08
2.35164e-07
4.7606e-08
1.95986e-07
4.53146e-08
-7.65067e-08
3.90151e-08
6.63606e-08
4.93403e-08
2.14378e-07
8.26758e-08
2.34087e-07
9.76546e-08
1.68901e-07
1.24722e-07
1.4026e-07
1.49086e-07
4.59828e-08
1.76427e-07
-7.72086e-08
1.75139e-07
-1.56513e-07
1.41899e-07
-1.18211e-07
1.21298e-07
-6.9199e-08
8.21003e-08
-1.55596e-08
5.00294e-08
6.83707e-09
3.84827e-08
1.15527e-08
1.72516e-08
1.28592e-08
-2.51607e-08
8.4184e-09
-7.86582e-09
1.6772e-09
3.4115e-08
-5.14782e-07
8.69375e-08
-6.29037e-07
1.29187e-07
-4.83136e-07
1.69117e-07
-4.23037e-07
1.89633e-07
-1.83752e-07
1.80281e-07
1.32175e-07
1.49617e-07
3.00481e-07
1.17725e-07
4.05789e-07
8.87685e-08
2.44842e-07
8.97943e-08
2.52574e-07
7.22583e-08
8.69688e-08
5.27233e-08
2.54699e-07
5.94553e-08
1.89254e-07
5.80158e-08
-7.50672e-08
5.63552e-08
6.80212e-08
4.70964e-08
2.23637e-07
8.25866e-08
1.98597e-07
1.12688e-07
1.38799e-07
1.35097e-07
1.17851e-07
1.55813e-07
2.52665e-08
1.71866e-07
-9.32617e-08
1.53684e-07
-1.3833e-07
1.1638e-07
-8.09066e-08
9.6758e-08
-4.95772e-08
8.51795e-08
-3.98111e-09
6.20487e-08
2.99678e-08
2.65919e-08
4.70093e-08
1.06314e-08
2.88197e-08
-2.92113e-08
1.4682e-08
-9.4374e-09
1.11146e-08
3.30907e-08
-5.5731e-07
8.66808e-08
-6.82627e-07
1.29993e-07
-5.26448e-07
1.71482e-07
-4.64526e-07
1.93487e-07
-2.05757e-07
1.8374e-07
1.41921e-07
1.50715e-07
3.33507e-07
1.17623e-07
4.38881e-07
8.61467e-08
2.76318e-07
9.01191e-08
2.48602e-07
7.66621e-08
1.00426e-07
5.09304e-08
2.8043e-07
5.85478e-08
1.81637e-07
4.797e-08
-6.44894e-08
7.46647e-08
4.13266e-08
7.86325e-08
2.19669e-07
8.35686e-08
1.93661e-07
1.08492e-07
1.13876e-07
1.32848e-07
9.34951e-08
1.44073e-07
1.40413e-08
1.32211e-07
-8.13998e-08
1.15848e-07
-1.21966e-07
1.06982e-07
-7.20411e-08
9.28248e-08
-3.54199e-08
7.05557e-08
1.82879e-08
2.53811e-08
7.51424e-08
-1.81395e-08
9.05298e-08
-4.2946e-09
1.49747e-08
-4.54154e-08
1.19095e-08
-1.1166e-08
2.22806e-08
3.19509e-08
-6.00427e-07
8.63966e-08
-7.37073e-07
1.30853e-07
-5.70904e-07
1.74049e-07
-5.07723e-07
1.97746e-07
-2.29453e-07
1.87496e-07
1.52171e-07
1.52095e-07
3.68908e-07
1.17672e-07
4.73305e-07
8.08575e-08
3.13132e-07
9.22843e-08
2.37175e-07
9.0261e-08
1.02449e-07
6.19198e-08
3.08772e-07
5.98309e-08
1.83726e-07
4.76202e-08
-5.22787e-08
8.86442e-08
3.026e-10
9.46722e-08
2.13641e-07
8.52892e-08
2.03044e-07
1.00911e-07
9.8254e-08
1.02342e-07
9.20636e-08
8.91862e-08
2.71972e-08
7.52338e-08
-6.74474e-08
5.3586e-08
-1.00319e-07
1.6039e-08
-3.44941e-08
-2.69519e-08
7.57095e-09
-4.78036e-08
3.91396e-08
-5.37537e-08
8.10924e-08
-3.75051e-08
7.42812e-08
-1.37472e-08
-8.78317e-09
-4.75704e-08
-1.15923e-08
-1.3059e-08
3.53396e-08
3.06874e-08
-6.44174e-07
8.60957e-08
-7.92481e-07
1.31763e-07
-6.16571e-07
1.76818e-07
-5.52778e-07
2.0243e-07
-2.55064e-07
1.91608e-07
1.62992e-07
1.5406e-07
4.06455e-07
1.16717e-07
5.10648e-07
7.56605e-08
3.54188e-07
9.66089e-08
2.16226e-07
9.26081e-08
1.0645e-07
8.88139e-09
3.92498e-07
7.38749e-09
1.8522e-07
4.86826e-08
-9.35737e-08
1.13607e-07
-6.46216e-08
1.40514e-07
1.86733e-07
1.16408e-07
2.2715e-07
9.2402e-08
1.2226e-07
7.78996e-08
1.06566e-07
9.49384e-08
1.01584e-08
9.9618e-08
-7.2127e-08
7.02754e-08
-7.09762e-08
4.00955e-08
-4.31431e-09
7.05692e-09
4.06095e-08
-1.80651e-08
6.42615e-08
-2.22958e-08
8.53231e-08
-1.07586e-08
6.2744e-08
-2.14487e-08
1.9069e-09
-2.43363e-08
-4.46828e-08
-1.51244e-08
5.0464e-08
2.92915e-08
-6.8859e-07
8.57836e-08
-8.48973e-07
1.32719e-07
-6.63506e-07
1.79771e-07
-5.9983e-07
2.07588e-07
-2.82881e-07
1.96255e-07
1.74325e-07
1.56239e-07
4.46472e-07
1.1484e-07
5.52047e-07
7.37838e-08
3.95245e-07
1.02256e-07
1.87754e-07
9.90396e-08
1.09666e-07
5.74842e-08
4.34054e-07
5.77673e-08
1.84936e-07
7.03615e-08
-1.06168e-07
1.25974e-07
-1.20234e-07
1.32351e-07
1.80357e-07
9.16908e-08
2.6781e-07
5.40215e-08
1.5993e-07
6.90747e-08
9.15128e-08
1.03342e-07
-2.41087e-08
7.43514e-08
-4.31367e-08
3.48458e-08
-3.14707e-08
3.54078e-08
-4.8763e-09
5.07235e-08
2.52937e-08
4.85848e-08
6.64002e-08
5.01883e-08
8.37195e-08
5.16387e-08
6.12935e-08
2.64951e-08
2.70505e-08
1.96932e-08
-1.75345e-08
-1.73712e-08
6.78351e-08
2.77532e-08
-7.33714e-07
8.54621e-08
-9.06682e-07
1.33717e-07
-7.11761e-07
1.82845e-07
-6.48959e-07
2.13367e-07
-3.13403e-07
2.01405e-07
1.86286e-07
1.58296e-07
4.89581e-07
1.11725e-07
5.98619e-07
6.98392e-08
4.3713e-07
1.07953e-07
1.4964e-07
7.71494e-08
1.4047e-07
-1.62076e-08
5.27411e-07
-1.73255e-08
1.86054e-07
3.37618e-08
-1.57255e-07
9.74315e-08
-1.83904e-07
6.59179e-08
2.1187e-07
6.5582e-08
2.68145e-07
8.15768e-08
1.43935e-07
7.12508e-08
1.01839e-07
3.64168e-08
1.07253e-08
-4.06489e-08
3.3929e-08
-6.56869e-08
-6.43278e-09
-3.55709e-08
-3.49924e-08
1.6284e-08
-2.65613e-08
5.02905e-08
3.23937e-08
6.86832e-08
6.53268e-08
7.85269e-08
5.14498e-08
5.85861e-08
4.69913e-08
5.78126e-08
2.04667e-08
-1.98092e-08
8.76443e-08
2.606e-08
-7.79583e-07
8.51274e-08
-9.6575e-07
1.34741e-07
-7.61374e-07
1.85925e-07
-7.00144e-07
2.19841e-07
-3.47319e-07
2.06902e-07
1.99225e-07
1.57974e-07
5.38509e-07
1.19204e-07
6.37389e-07
6.65935e-08
4.89741e-07
1.05645e-07
1.10589e-07
7.73364e-08
1.68778e-07
-3.38186e-08
6.38566e-07
-2.0988e-08
1.73224e-07
3.65396e-08
-2.14783e-07
1.05758e-07
-2.53122e-07
9.44328e-08
2.23196e-07
7.56342e-08
2.86944e-07
6.67701e-08
1.52799e-07
4.25168e-08
1.26092e-07
-3.2034e-08
8.5276e-08
-1.28892e-07
1.30787e-07
-1.40939e-07
5.61365e-09
-1.08817e-07
-6.71145e-08
-6.45258e-08
-7.08523e-08
-2.63538e-08
-5.77834e-09
1.84092e-09
3.7132e-08
2.23443e-08
3.09464e-08
2.53257e-08
4.40099e-08
6.97139e-08
1.34244e-08
-2.2444e-08
1.10088e-07
2.41923e-08
-8.26219e-07
8.47669e-08
-1.02632e-06
1.35701e-07
-8.12308e-07
1.88764e-07
-7.53207e-07
2.26305e-07
-3.84859e-07
2.09621e-07
2.15909e-07
1.62896e-07
5.85234e-07
9.33847e-08
7.069e-07
3.86267e-08
5.44499e-07
1.2242e-07
2.67961e-08
9.53105e-08
1.95887e-07
1.05603e-08
7.23316e-07
5.55992e-10
1.83228e-07
2.5245e-08
-2.39472e-07
1.12028e-07
-3.39905e-07
1.16796e-07
2.18427e-07
7.36672e-08
3.30073e-07
-5.98969e-09
2.32456e-07
6.43905e-09
1.13663e-07
3.03267e-08
6.13883e-08
-7.7658e-08
2.38772e-07
-1.40076e-07
6.80313e-08
-1.49075e-07
-5.8115e-08
-1.29819e-07
-9.0109e-08
-9.83137e-08
-3.72832e-08
-7.22921e-08
1.11104e-08
-4.08462e-08
-4.99561e-10
-1.58652e-08
1.90289e-08
5.29386e-08
9.10047e-10
-2.53291e-08
1.35417e-07
2.21004e-08
-8.73649e-07
8.43269e-08
-1.08855e-06
1.36255e-07
-8.64236e-07
1.90431e-07
-8.07383e-07
2.27347e-07
-4.21776e-07
2.03158e-07
2.40099e-07
1.45683e-07
6.42708e-07
1.44015e-07
7.08568e-07
4.71116e-08
6.41402e-07
1.00038e-07
-2.61306e-08
1.51165e-07
1.4476e-07
3.95764e-08
8.34904e-07
-2.36407e-08
2.46445e-07
-1.06341e-08
-2.52479e-07
1.22486e-07
-4.73025e-07
1.60974e-07
1.79939e-07
6.9049e-08
4.21999e-07
-1.53735e-08
3.16878e-07
-4.15308e-08
1.39821e-07
4.45449e-08
-2.46875e-08
4.14063e-08
2.41911e-07
-2.09396e-08
1.30377e-07
-5.74917e-08
-2.15628e-08
-8.70741e-08
-6.05267e-08
-8.87788e-08
-3.55786e-08
-7.01974e-08
-7.47111e-09
-5.67897e-08
-1.39073e-08
-3.62854e-08
-1.47542e-09
2.08352e-08
-4.18197e-09
-2.80173e-08
1.63435e-07
1.96073e-08
-9.21274e-07
8.35453e-08
-1.15249e-06
1.35281e-07
-9.15972e-07
1.86154e-07
-8.58256e-07
2.09837e-07
-4.4546e-07
1.61166e-07
2.8877e-07
1.45115e-07
6.5876e-07
8.70678e-08
7.66615e-07
3.10613e-08
6.97409e-07
1.23566e-07
-1.18635e-07
1.12567e-07
1.55758e-07
1.77895e-08
9.29682e-07
-1.62409e-08
2.80476e-07
-1.17466e-08
-2.56973e-07
5.66021e-08
-5.41374e-07
5.89438e-08
1.77597e-07
-8.82054e-09
4.89763e-07
6.22537e-08
2.45804e-07
1.6898e-08
1.85176e-07
2.26922e-08
-3.04816e-08
7.84539e-08
1.86149e-07
3.47329e-08
1.74098e-07
7.47794e-09
5.69207e-09
-1.67206e-08
-3.63282e-08
-2.83657e-08
-2.39335e-08
-2.29299e-08
-1.29069e-08
-2.25261e-08
-1.43112e-08
-2.15345e-08
-2.46699e-09
7.13836e-09
-7.83765e-09
-3.30102e-08
1.96445e-07
1.61372e-08
-9.70421e-07
8.13506e-08
-1.2177e-06
1.29111e-07
-9.63732e-07
1.63361e-07
-8.92506e-07
1.54698e-07
-4.36797e-07
8.46011e-08
3.58866e-07
2.6903e-08
7.16458e-07
5.98094e-09
7.87537e-07
1.20561e-08
6.91334e-07
-1.04076e-07
-2.503e-09
-1.25487e-07
1.77169e-07
-6.13251e-08
8.65521e-07
-2.33454e-08
2.42496e-07
8.75285e-09
-2.89071e-07
-6.44277e-09
-5.26178e-07
-6.4636e-08
2.3579e-07
-9.37355e-08
5.18862e-07
3.33979e-08
1.18671e-07
2.83353e-08
1.90239e-07
9.08237e-09
-1.12287e-08
7.03256e-08
1.24906e-07
6.13182e-08
1.83106e-07
2.10338e-08
4.59765e-08
-4.54794e-09
-1.07465e-08
1.48966e-09
-2.99711e-08
8.47029e-09
-1.98875e-08
5.58087e-09
-1.14217e-08
-4.97188e-09
8.08576e-09
1.84769e-08
-1.63104e-08
-2.76907e-08
2.24136e-07
9.80981e-09
-1.00792e-06
7.41171e-08
-1.28201e-06
1.08254e-07
-9.97869e-07
1.1191e-07
-8.96162e-07
8.32458e-08
-4.08133e-07
3.93334e-09
4.38179e-07
6.75027e-08
6.52889e-07
1.00976e-07
7.54064e-07
-1.43157e-07
9.35467e-07
-2.16119e-07
7.04594e-08
-1.10373e-07
7.14229e-08
-1.8979e-07
9.44938e-07
-1.05599e-07
1.58305e-07
4.22668e-08
-4.36937e-07
-2.61617e-08
-4.5775e-07
-9.58128e-08
3.05441e-07
-1.36437e-07
5.59487e-07
-1.69103e-08
-8.56146e-10
5.23686e-08
1.2096e-07
-1.13808e-08
5.25207e-08
2.37133e-08
8.98117e-08
3.16218e-08
1.75197e-07
-1.87149e-08
9.6313e-08
-2.54839e-08
-3.97754e-09
-5.7902e-09
-4.96648e-08
-4.03503e-09
-2.16427e-08
-4.08769e-09
-1.13691e-08
-1.09769e-08
1.4975e-08
2.95448e-08
-2.20448e-08
-5.28131e-08
2.76949e-07
-3.13639e-09
-1.0576e-06
5.25609e-08
-1.33771e-06
6.29412e-08
-1.00825e-06
6.16995e-08
-8.9492e-07
3.59552e-09
-3.50029e-07
-3.11314e-07
7.53088e-07
-2.26823e-07
5.68398e-07
-5.4971e-08
5.82212e-07
-1.77486e-07
1.05798e-06
-2.7421e-07
1.67184e-07
-2.2262e-07
1.98324e-08
-3.10325e-07
1.03264e-06
-2.28814e-07
7.67938e-08
-4.8101e-08
-6.17649e-07
-6.68098e-08
-4.39041e-07
-1.73249e-08
2.55956e-07
5.08696e-09
5.37075e-07
2.94172e-08
-2.51864e-08
2.9981e-08
1.20396e-07
-7.32773e-08
1.55779e-07
-6.51279e-08
8.16623e-08
-2.80659e-08
1.38135e-07
-5.47655e-08
1.23013e-07
-5.06575e-08
-8.08553e-09
-3.63448e-08
-6.39775e-08
-3.57428e-08
-2.22447e-08
-2.33704e-08
-2.37415e-08
-1.60195e-08
7.62414e-09
2.41837e-08
-1.06584e-08
2.25535e-10
2.76723e-07
-2.94661e-08
-1.02791e-06
3.20056e-09
-1.37037e-06
9.53017e-09
-1.01458e-06
1.67037e-07
-1.05243e-06
1.30955e-07
-3.13947e-07
-3.97411e-07
1.28145e-06
-5.85532e-07
7.56518e-07
-2.81405e-07
2.78085e-07
-5.37098e-08
8.30286e-07
-3.25083e-07
4.38557e-07
-2.85809e-07
-1.94409e-08
-2.03355e-07
9.50188e-07
-2.20421e-07
9.38596e-08
-1.18306e-07
-7.19764e-07
-1.2995e-07
-4.27397e-07
-3.58623e-08
1.61869e-07
2.60489e-08
4.75164e-07
-6.81262e-08
6.89887e-08
-1.39858e-07
1.92128e-07
-1.88791e-07
2.04711e-07
-1.03263e-07
-3.86506e-09
-1.47658e-08
4.96375e-08
-5.25929e-08
1.6084e-07
-6.87958e-08
8.11736e-09
-5.72282e-08
-7.55452e-08
-4.12504e-08
-3.82225e-08
-2.99823e-08
-3.50096e-08
-1.63766e-08
-5.9815e-09
9.09308e-09
-1.28601e-09
-7.95613e-08
3.56284e-07
-7.4213e-08
-1.03325e-06
-7.37864e-08
-1.3708e-06
1.19098e-07
-1.20746e-06
4.05031e-07
-1.33836e-06
-3.39196e-07
4.3028e-07
-7.87804e-07
1.73006e-06
-6.69865e-07
6.38579e-07
-4.79288e-07
8.75075e-08
-1.6211e-07
5.13108e-07
-3.83648e-07
6.60095e-07
-2.95129e-07
-1.07959e-07
-4.46066e-08
6.99665e-07
-1.45572e-07
1.94825e-07
-2.3191e-07
-6.33426e-07
-2.80348e-07
-3.7896e-07
-1.91555e-07
7.30763e-08
-1.46423e-07
4.30032e-07
-2.24632e-07
1.47197e-07
-2.18494e-07
1.8599e-07
-1.76786e-07
1.63003e-07
-9.83878e-08
-8.22633e-08
-6.6918e-09
-4.20584e-08
-1.10461e-08
1.65194e-07
-3.59317e-08
3.30029e-08
-3.19969e-08
-7.948e-08
-2.24439e-08
-4.77754e-08
-2.3573e-08
-3.38805e-08
-1.39729e-08
-1.55816e-08
-1.6882e-09
-3.19152e-09
-3.61628e-09
3.59901e-07
-1.26077e-07
-9.10794e-07
-1.02937e-07
-1.39394e-06
7.36131e-07
-2.04653e-06
-1.56894e-08
-5.86539e-07
-1.62856e-06
2.04315e-06
-8.83681e-07
9.85181e-07
-6.9394e-07
4.48839e-07
-6.53129e-07
4.6696e-08
-3.46013e-07
2.05992e-07
-4.35621e-07
7.49703e-07
-3.80696e-07
-1.62884e-07
-6.73501e-08
3.86319e-07
-1.25706e-07
2.53182e-07
-3.30645e-07
-4.28487e-07
-4.25929e-07
-2.83676e-07
-3.26323e-07
-2.65301e-08
-2.52928e-07
3.56637e-07
-2.51388e-07
1.45657e-07
-1.89019e-07
1.23621e-07
-9.73057e-08
7.12899e-08
-1.11983e-07
-6.75856e-08
-1.00345e-07
-5.36972e-08
6.21955e-09
5.86298e-08
3.42079e-08
5.01448e-09
3.06723e-09
-4.83393e-08
-1.13216e-08
-3.33866e-08
-1.89001e-08
-2.6302e-08
-1.80412e-08
-1.64405e-08
-9.6249e-09
-1.01045e-08
-1.26611e-07
4.86511e-07
-1.08349e-07
-9.29056e-07
3.29461e-07
-1.83175e-06
5.59027e-07
-2.2761e-06
1.04594e-07
-1.32107e-07
-7.78585e-07
2.92633e-06
-8.38483e-07
1.04508e-06
-8.56909e-07
4.67265e-07
-7.8175e-07
-2.84636e-08
-5.63437e-07
-1.23206e-08
-5.31188e-07
7.17453e-07
-4.96327e-07
-1.97745e-07
-2.11272e-07
1.01265e-07
-1.44151e-07
1.86061e-07
-3.32988e-07
-2.39651e-07
-4.50945e-07
-1.65719e-07
-3.83877e-07
-9.35982e-08
-2.42526e-07
2.15287e-07
-1.79454e-07
8.2584e-08
-8.69918e-08
3.11596e-08
2.61981e-08
-4.18999e-08
-3.11538e-08
-1.02337e-08
-9.84539e-08
1.36029e-08
1.66283e-08
-5.64524e-08
6.68755e-08
-4.52327e-08
2.16936e-08
-3.15736e-09
-1.21693e-08
4.76284e-10
-3.27574e-08
-5.71375e-09
-3.33002e-08
-1.58976e-08
-2.56376e-08
-1.72873e-08
6.52237e-08
4.21288e-07
5.25341e-07
-1.38917e-06
2.58119e-06
-3.8876e-06
1.39941e-06
-1.09431e-06
6.74504e-07
5.92797e-07
1.50269e-07
3.45056e-06
-6.90798e-07
1.88614e-06
-8.98232e-07
6.74701e-07
-8.42644e-07
-8.40516e-08
-6.66851e-07
-1.88114e-07
-6.12682e-07
6.63284e-07
-5.7621e-07
-2.34217e-07
-3.22896e-07
-1.5205e-07
-1.73793e-07
3.69577e-08
-3.1326e-07
-1.00184e-07
-4.51668e-07
-2.73099e-08
-4.54076e-07
-9.11901e-08
-2.87935e-07
4.91456e-08
-1.0951e-07
-9.58412e-08
4.62916e-08
-1.24641e-07
1.80411e-07
-1.7602e-07
1.43792e-07
2.63854e-08
3.33094e-07
-1.75698e-07
4.67367e-07
-1.90725e-07
2.22136e-07
1.99998e-07
9.84785e-08
1.205e-07
4.32463e-08
5.57093e-08
-9.34889e-10
3.84677e-08
-1.44635e-08
-2.36885e-09
-1.19076e-08
-2.8192e-08
1.21273e-08
-2.16992e-08
4.46259e-08
-3.24986e-08
8.06296e-08
-3.60037e-08
9.62623e-08
-1.56327e-08
1.31155e-07
-3.48926e-08
1.89686e-07
-5.85314e-08
2.42163e-07
-5.24765e-08
2.36305e-07
5.85739e-09
1.5261e-07
8.36952e-08
5.40349e-08
9.85753e-08
2.02004e-08
3.38345e-08
1.67627e-08
3.43781e-09
3.50941e-08
-1.83314e-08
6.35065e-08
-2.84124e-08
7.48982e-08
-1.13917e-08
6.45822e-08
1.0316e-08
4.49454e-08
1.96368e-08
3.19515e-08
1.29939e-08
7.88284e-09
2.40686e-08
-1.19394e-08
1.98222e-08
-3.84138e-08
2.64743e-08
-6.46754e-08
2.62617e-08
-9.17243e-08
2.70489e-08
-1.11256e-07
1.95312e-08
-1.16494e-07
5.23852e-09
-1.02722e-07
-1.37716e-08
-8.27324e-08
-1.999e-08
-5.11089e-08
-3.16235e-08
-1.80661e-08
-3.30428e-08
-1.80661e-08
3.70841e-08
-5.97929e-08
7.86656e-08
-7.40802e-08
1.26113e-07
-8.3451e-08
1.63178e-07
-5.2698e-08
2.1453e-07
-8.62442e-08
2.65236e-07
-1.09238e-07
3.04437e-07
-9.16767e-08
3.26388e-07
-1.60937e-08
2.80374e-07
1.29709e-07
1.81288e-07
1.97661e-07
1.04487e-07
1.10636e-07
8.0772e-08
2.71524e-08
8.45377e-08
-2.20971e-08
6.73564e-08
-1.1231e-08
5.498e-08
9.84659e-10
3.24039e-08
3.28921e-08
-1.1751e-08
6.37917e-08
-2.54065e-08
2.66494e-08
-6.06973e-08
5.93594e-08
-8.29133e-08
4.20382e-08
-1.09324e-07
5.28847e-08
-1.3578e-07
5.27182e-08
-1.55011e-07
4.62796e-08
-1.65955e-07
3.04756e-08
-1.57541e-07
-3.17556e-09
-1.29295e-07
-4.20184e-08
-9.53372e-08
-5.39474e-08
-4.86116e-08
-7.83491e-08
-8.63517e-09
-7.30192e-08
-2.67013e-08
3.64763e-08
-9.54307e-08
6.38089e-08
-1.01413e-07
8.77353e-08
-1.07377e-07
1.53383e-07
-1.18346e-07
2.07804e-07
-1.40665e-07
2.58189e-07
-1.59623e-07
2.99509e-07
-1.32997e-07
3.2705e-07
-4.36346e-08
3.21838e-07
1.3492e-07
2.61197e-07
2.58303e-07
1.75807e-07
1.96026e-07
1.18959e-07
8.40007e-08
7.9876e-08
1.6986e-08
2.87871e-08
3.98578e-08
1.01003e-08
1.96714e-08
-1.01371e-08
5.31294e-08
-5.52507e-08
1.08905e-07
-5.53641e-08
2.67628e-08
-8.7319e-08
9.13142e-08
-1.06263e-07
6.09826e-08
-1.25129e-07
7.17506e-08
-1.49084e-07
7.66728e-08
-1.62412e-07
5.96078e-08
-1.69739e-07
3.78029e-08
-1.57462e-07
-1.54525e-08
-1.26299e-07
-7.31817e-08
-9.01656e-08
-9.00809e-08
-4.17017e-08
-1.26813e-07
-2.51461e-09
-1.12206e-07
-2.92159e-08
2.58316e-08
-1.27275e-07
5.43164e-08
-1.29898e-07
8.3407e-08
-1.36468e-07
1.41482e-07
-1.76421e-07
1.85416e-07
-1.846e-07
1.98225e-07
-1.72432e-07
2.15248e-07
-1.5002e-07
2.5009e-07
-7.84769e-08
2.76507e-07
1.08504e-07
2.69698e-07
2.65112e-07
2.1966e-07
2.46064e-07
1.46405e-07
1.57255e-07
7.28671e-08
9.05239e-08
-1.49352e-09
1.14218e-07
-2.19636e-08
4.01416e-08
-3.93565e-08
7.05223e-08
-8.1444e-08
1.50993e-07
-6.71765e-08
1.24952e-08
-8.96613e-08
1.13799e-07
-1.11948e-07
8.32694e-08
-1.26132e-07
8.59343e-08
-1.5044e-07
1.00981e-07
-1.6228e-07
7.14482e-08
-1.69282e-07
4.48046e-08
-1.56417e-07
-2.83172e-08
-1.2466e-07
-1.04939e-07
-8.82051e-08
-1.26536e-07
-3.94927e-08
-1.75525e-07
-4.64435e-10
-1.51235e-07
-2.96803e-08
6.91573e-09
-1.45404e-07
2.54387e-08
-1.48421e-07
5.70174e-08
-1.68047e-07
9.29816e-08
-2.12385e-07
1.14919e-07
-2.06537e-07
1.16623e-07
-1.74137e-07
1.24237e-07
-1.57633e-07
1.53405e-07
-1.07645e-07
2.05316e-07
5.65923e-08
2.28616e-07
2.41812e-07
2.02618e-07
2.72062e-07
1.31131e-07
2.28742e-07
4.42579e-08
1.77397e-07
-3.33456e-08
1.91822e-07
-4.9436e-08
5.62319e-08
-5.66596e-08
7.77458e-08
-9.54681e-08
1.89801e-07
-7.27774e-08
-1.01955e-08
-8.24946e-08
1.23516e-07
-1.13981e-07
1.14756e-07
-1.25509e-07
9.74618e-08
-1.50904e-07
1.26376e-07
-1.62582e-07
8.31266e-08
-1.69855e-07
5.20773e-08
-1.56803e-07
-4.13694e-08
-1.2459e-07
-1.37152e-07
-8.78722e-08
-1.63254e-07
-3.88923e-08
-2.24505e-07
2.15268e-10
-1.90342e-07
-2.9465e-08
-1.44795e-08
-1.40221e-07
-1.64708e-08
-1.46429e-07
-6.791e-09
-1.77727e-07
-6.07982e-09
-2.13096e-07
3.81127e-09
-2.16428e-07
1.22245e-08
-1.8255e-07
1.8025e-08
-1.63434e-07
5.79573e-08
-1.47577e-07
1.06448e-07
8.10194e-09
1.34459e-07
2.13801e-07
1.31646e-07
2.74875e-07
7.74593e-08
2.82929e-07
2.29046e-11
2.54833e-07
-6.12605e-08
2.53106e-07
-7.57752e-08
7.07466e-08
-6.29819e-08
6.49525e-08
-8.98235e-08
2.16643e-07
-7.44106e-08
-2.56085e-08
-7.49065e-08
1.24012e-07
-1.15114e-07
1.54963e-07
-1.25624e-07
1.07972e-07
-1.51449e-07
1.52201e-07
-1.63367e-07
9.50444e-08
-1.70924e-07
5.9635e-08
-1.57657e-07
-5.46371e-08
-1.24896e-07
-1.69913e-07
-8.78555e-08
-2.00294e-07
-3.85506e-08
-2.7381e-07
7.4632e-10
-2.29639e-07
-2.87187e-08
-3.08532e-08
-1.22528e-07
-4.7545e-08
-1.29738e-07
-6.57996e-08
-1.59472e-07
-9.36956e-08
-1.852e-07
-1.09351e-07
-2.00773e-07
-1.08318e-07
-1.83583e-07
-8.84899e-08
-1.83262e-07
-5.42143e-08
-1.81853e-07
-4.33779e-09
-4.17746e-08
3.80346e-08
1.71429e-07
5.01557e-08
2.62754e-07
2.12415e-08
3.11843e-07
-2.45249e-08
3.006e-07
-6.50587e-08
2.93639e-07
-8.89959e-08
9.46837e-08
-5.29588e-08
2.89154e-08
-5.93692e-08
2.23053e-07
-7.28292e-08
-1.21485e-08
-7.18248e-08
1.23008e-07
-1.16098e-07
1.99236e-07
-1.26761e-07
1.18635e-07
-1.51944e-07
1.77383e-07
-1.64428e-07
1.07528e-07
-1.72247e-07
6.74534e-08
-1.58723e-07
-6.81605e-08
-1.25302e-07
-2.03333e-07
-8.7871e-08
-2.37725e-07
-3.81802e-08
-3.23501e-07
1.35278e-09
-2.69172e-07
-2.73659e-08
-3.48443e-08
-9.98162e-08
-6.31514e-08
-1.0143e-07
-1.06189e-07
-1.16434e-07
-1.46045e-07
-1.45344e-07
-1.78437e-07
-1.68382e-07
-1.97252e-07
-1.64767e-07
-1.80284e-07
-2.00231e-07
-1.54691e-07
-2.07445e-07
-1.22323e-07
-7.41428e-08
-8.30978e-08
1.32204e-07
-6.55713e-08
2.45227e-07
-3.80046e-08
2.84277e-07
-2.7805e-08
2.904e-07
-4.30904e-08
3.08925e-07
-6.94164e-08
1.2101e-07
-2.80411e-08
-1.24599e-08
-2.67904e-08
2.21802e-07
-7.31198e-08
3.41809e-08
-7.4435e-08
1.24323e-07
-1.17081e-07
2.41883e-07
-1.29026e-07
1.3058e-07
-1.52306e-07
2.00662e-07
-1.65705e-07
1.20928e-07
-1.73799e-07
7.55481e-08
-1.59976e-07
-8.19838e-08
-1.25775e-07
-2.37535e-07
-8.7879e-08
-2.75621e-07
-3.77347e-08
-3.73645e-07
2.07913e-09
-3.08986e-07
-2.52867e-08
-2.95619e-08
-7.48784e-08
-6.87867e-08
-6.22058e-08
-1.18145e-07
-6.70757e-08
-1.6247e-07
-1.01019e-07
-1.98503e-07
-1.32348e-07
-2.17177e-07
-1.46093e-07
-2.16025e-07
-2.01383e-07
-2.12349e-07
-2.11122e-07
-2.0068e-07
-8.58108e-08
-1.6515e-07
9.66735e-08
-1.34279e-07
2.14355e-07
-7.24139e-08
2.22412e-07
-4.68581e-08
2.64844e-07
-2.65374e-08
2.88604e-07
-2.53279e-08
1.198e-07
-6.30545e-09
-3.14824e-08
-1.85993e-08
2.34096e-07
-8.00675e-08
9.56489e-08
-8.29517e-08
1.27207e-07
-1.1627e-07
2.75201e-07
-1.32313e-07
1.46623e-07
-1.52617e-07
2.20967e-07
-1.67116e-07
1.35426e-07
-1.75604e-07
8.40358e-08
-1.61417e-07
-9.61704e-08
-1.26311e-07
-2.7264e-07
-8.78715e-08
-3.14061e-07
-3.72054e-08
-4.24311e-07
2.93658e-09
-3.49128e-07
-2.23501e-08
-2.48512e-08
-5.10186e-08
-5.93384e-08
-2.77186e-08
-1.00336e-07
-2.60779e-08
-1.35391e-07
-6.59646e-08
-1.64243e-07
-1.03496e-07
-1.84361e-07
-1.25975e-07
-1.99707e-07
-1.86037e-07
-2.11616e-07
-1.99213e-07
-2.0313e-07
-9.4297e-08
-1.59755e-07
5.32986e-08
-1.16803e-07
1.71404e-07
-7.05799e-08
1.76189e-07
-6.1855e-08
2.5612e-07
-2.35829e-08
2.50332e-07