/*--------------------------------*- C++ -*----------------------------------*\
| =========                 |                                                 |
| \\      /  F ield         | OpenFOAM: The Open Source CFD Toolbox           |
|  \\    /   O peration     | Version:  2.4.0                                 |
|   \\  /    A nd           | Web:      www.OpenFOAM.org                      |
|    \\/     M anipulation  |                                                 |
\*---------------------------------------------------------------------------*/
FoamFile
{
    version     2.0;
    format      ascii;
    class       volScalarField;
    location    "0.231";
    object      p_rgh;
}
// * * * * * * * * * * * * * * * * * * * * * * * * * * * * * * * * * * * * * //

dimensions      [1 -1 -2 0 0 0 0];

internalField   nonuniform List<scalar> 
60000
(
97.6713
97.7458
97.8943
98.1138
98.3999
98.747
99.1484
99.5972
100.086
100.607
101.153
101.718
102.295
102.878
103.462
104.043
104.617
105.181
105.734
106.272
106.795
107.302
107.792
108.266
108.723
109.162
109.586
109.993
110.385
110.761
111.122
111.468
111.799
112.115
112.417
112.704
112.976
113.232
113.473
113.697
113.904
114.093
114.264
114.415
114.546
114.654
114.74
114.802
114.839
114.848
114.83
114.782
114.702
114.59
114.443
114.26
114.039
113.778
113.475
113.129
112.736
112.297
111.808
111.267
110.673
110.024
109.318
108.553
107.727
106.839
105.887
104.87
103.786
102.633
101.412
100.119
98.7552
97.3188
95.8094
94.2266
92.5701
90.84
89.037
87.1621
85.2169
83.2036
81.1251
78.9849
76.7877
74.5387
72.2438
69.9093
67.5439
65.1571
62.7552
60.3463
57.937
55.5338
53.1436
50.7727
97.6537
97.7286
97.8777
98.0983
98.3859
98.7345
99.1377
99.5884
100.079
100.602
101.15
101.716
102.295
102.879
103.464
104.046
104.621
105.186
105.739
106.278
106.801
107.308
107.799
108.272
108.729
109.169
109.592
109.999
110.391
110.767
111.127
111.473
111.804
112.121
112.422
112.709
112.981
113.237
113.478
113.702
113.909
114.098
114.269
114.42
114.55
114.659
114.745
114.807
114.843
114.853
114.835
114.787
114.707
114.595
114.448
114.265
114.044
113.783
113.48
113.133
112.741
112.301
111.812
111.271
110.677
110.028
109.322
108.557
107.731
106.843
105.89
104.873
103.789
102.636
101.414
100.121
98.7573
97.3208
95.8112
94.2282
92.5716
90.8414
89.0383
87.1632
85.2178
83.2044
81.1258
78.9853
76.7879
74.5388
72.2436
69.9086
67.5415
65.1516
62.7507
60.3437
57.9363
55.5342
53.1444
50.7742
97.6173
97.693
97.8437
98.0665
98.3568
98.7087
99.1154
99.5697
100.064
100.591
101.142
101.712
102.293
102.88
103.467
104.051
104.627
105.194
105.747
106.287
106.811
107.318
107.809
108.282
108.739
109.179
109.602
110.009
110.4
110.776
111.136
111.482
111.813
112.129
112.43
112.717
112.989
113.245
113.486
113.71
113.917
114.107
114.278
114.429
114.56
114.669
114.755
114.817
114.854
114.864
114.846
114.798
114.719
114.607
114.46
114.277
114.056
113.796
113.493
113.146
112.754
112.315
111.826
111.285
110.691
110.042
109.336
108.571
107.745
106.857
105.905
104.887
103.803
102.65
101.428
100.135
98.771
97.3346
95.8251
94.2423
92.5858
90.8559
89.0532
87.1786
85.2336
83.2208
81.1429
79.0029
76.8061
74.558
72.2638
69.9296
67.5628
65.172
62.7688
60.3588
57.9478
55.5408
53.146
50.7719
97.5616
97.6386
97.7916
98.0178
98.3123
98.6691
99.0811
99.5409
100.041
100.573
101.129
101.704
102.289
102.88
103.47
104.057
104.636
105.204
105.759
106.299
106.824
107.332
107.822
108.296
108.752
109.192
109.615
110.021
110.412
110.788
111.148
111.493
111.824
112.14
112.442
112.728
113
113.257
113.498
113.722
113.93
114.12
114.291
114.443
114.574
114.683
114.77
114.833
114.871
114.881
114.864
114.816
114.738
114.627
114.481
114.298
114.078
113.818
113.516
113.17
112.778
112.339
111.851
111.31
110.717
110.068
109.362
108.597
107.771
106.883
105.931
104.914
103.83
102.677
101.455
100.162
98.7983
97.3621
95.853
94.2706
92.6147
90.8855
89.0836
87.2101
85.266
83.2546
81.1782
79.0392
76.8438
74.5975
72.3052
69.9727
67.6068
65.2167
62.8101
60.3941
57.9749
55.5576
53.1524
50.7698
97.4864
97.565
97.7212
97.952
98.2522
98.6155
99.0348
99.502
100.009
100.549
101.112
101.693
102.284
102.88
103.475
104.065
104.646
105.217
105.774
106.315
106.841
107.349
107.84
108.313
108.769
109.209
109.631
110.037
110.428
110.803
111.162
111.508
111.838
112.154
112.456
112.743
113.015
113.272
113.513
113.738
113.946
114.136
114.308
114.461
114.593
114.703
114.791
114.855
114.893
114.905
114.888
114.842
114.765
114.655
114.51
114.328
114.109
113.85
113.549
113.204
112.813
112.375
111.887
111.348
110.755
110.106
109.401
108.637
107.811
106.924
105.972
104.955
103.87
102.718
101.496
100.204
98.8402
97.4043
95.8957
94.3139
92.6588
90.9305
89.1297
87.2573
85.3148
83.305
81.2308
79.0922
76.8983
74.6538
72.3631
70.0317
67.6662
65.2745
62.8627
60.4389
58.0098
55.5787
53.1591
50.7653
97.3911
97.4718
97.6321
97.8687
98.1762
98.548
98.9763
99.453
99.9698
100.518
101.091
101.679
102.277
102.879
103.48
104.074
104.66
105.233
105.792
106.335
106.861
107.37
107.861
108.334
108.79
109.229
109.651
110.056
110.446
110.821
111.18
111.525
111.855
112.171
112.473
112.76
113.032
113.29
113.532
113.757
113.966
114.157
114.33
114.484
114.617
114.729
114.818
114.883
114.922
114.935
114.92
114.876
114.8
114.691
114.547
114.368
114.15
113.892
113.592
113.249
112.859
112.422
111.936
111.398
110.806
110.158
109.454
108.69
107.865
106.978
106.027
105.01
103.926
102.774
101.553
100.261
98.8973
97.4619
95.9538
94.3726
92.7183
90.991
89.1913
87.3201
85.3791
83.3706
81.2974
79.1616
76.9669
74.7232
72.4333
70.1017
67.7346
65.3387
62.9202
60.4863
58.0461
55.5968
53.1618
50.754
97.2753
97.3586
97.5239
97.7677
98.0841
98.4661
98.9056
99.3939
99.9222
100.482
101.065
101.663
102.27
102.879
103.486
104.086
104.675
105.252
105.813
106.358
106.885
107.395
107.886
108.359
108.814
109.252
109.674
110.079
110.468
110.842
111.201
111.545
111.875
112.191
112.493
112.78
113.053
113.311
113.554
113.78
113.99
114.182
114.356
114.511
114.646
114.759
114.85
114.916
114.958
114.973
114.959
114.917
114.843
114.736
114.594
114.416
114.201
113.945
113.647
113.305
112.918
112.482
111.997
111.46
110.87
110.224
109.52
108.758
107.934
107.048
106.097
105.081
103.997
102.846
101.625
100.333
98.97
97.5349
96.0274
94.4469
92.7934
91.067
89.2683
87.3983
85.4584
83.4509
81.3784
79.2436
77.0482
74.8049
72.5142
70.1808
67.8105
65.4085
62.981
60.535
58.0793
55.6134
53.1563
50.7332
97.1384
97.2248
97.3961
97.6484
97.9756
98.3699
98.8226
99.3246
99.8666
100.439
101.035
101.644
102.261
102.879
103.494
104.1
104.694
105.274
105.838
106.385
106.914
107.423
107.915
108.388
108.842
109.28
109.7
110.104
110.493
110.866
111.224
111.568
111.898
112.214
112.516
112.804
113.077
113.335
113.579
113.806
114.018
114.211
114.387
114.544
114.68
114.795
114.887
114.956
115
115.017
115.006
114.965
114.894
114.789
114.65
114.475
114.261
114.008
113.712
113.373
112.987
112.554
112.071
111.536
110.948
110.303
109.601
108.84
108.017
107.132
106.182
105.167
104.084
102.933
101.712
100.421
99.0581
97.6235
96.1164
94.5366
92.8838
91.1583
89.3606
87.4915
85.5524
83.5456
81.4734
79.338
77.1421
74.898
72.6052
70.2686
67.8935
65.484
63.0455
60.5843
58.1085
55.6294
53.1413
50.7017
96.9795
97.0695
97.2479
97.5104
97.8502
98.2589
98.7272
99.2453
99.8032
100.391
101.001
101.623
102.252
102.88
103.503
104.116
104.716
105.3
105.867
106.416
106.946
107.456
107.948
108.42
108.874
109.31
109.73
110.133
110.52
110.893
111.251
111.594
111.924
112.24
112.542
112.83
113.104
113.363
113.608
113.836
114.049
114.244
114.422
114.58
114.719
114.836
114.931
115.002
115.048
115.068
115.059
115.022
114.953
114.851
114.715
114.542
114.332
114.081
113.788
113.452
113.069
112.638
112.158
111.625
111.039
110.396
109.696
108.936
108.115
107.231
106.282
105.268
104.186
103.035
101.815
100.524
99.1616
97.7275
96.2209
94.6417
92.9896
91.2649
89.468
87.5996
85.6612
83.6545
81.5821
79.4442
77.2491
75.0022
72.7062
70.3653
67.9842
65.5659
63.115
60.6362
58.1367
55.6293
53.1256
50.6579
96.7977
96.892
97.0787
97.353
97.7075
98.1329
98.6192
99.1558
99.732
100.338
100.964
101.601
102.243
102.882
103.514
104.135
104.741
105.33
105.901
106.452
106.983
107.493
107.984
108.456
108.909
109.345
109.763
110.165
110.551
110.923
111.28
111.623
111.952
112.268
112.57
112.859
113.133
113.394
113.639
113.87
114.084
114.281
114.461
114.622
114.762
114.882
114.98
115.054
115.103
115.125
115.12
115.085
115.02
114.921
114.789
114.62
114.412
114.165
113.875
113.542
113.162
112.735
112.257
111.727
111.143
110.503
109.805
109.047
108.228
107.345
106.397
105.384
104.302
103.152
101.933
100.642
99.2805
97.8468
96.3407
94.762
93.1107
91.3867
89.5905
87.7227
85.7845
83.7776
81.7048
79.5634
77.3677
75.1174
72.8172
70.4711
68.0827
65.6551
63.1905
60.6919
58.1659
55.6253
53.0918
50.5983
96.592
96.6913
96.8875
97.1756
97.547
97.9917
98.4986
99.0563
99.6534
100.279
100.923
101.577
102.233
102.886
103.528
104.157
104.77
105.364
105.938
106.491
107.024
107.535
108.025
108.496
108.948
109.382
109.799
110.2
110.585
110.955
111.311
111.654
111.983
112.299
112.601
112.89
113.166
113.427
113.674
113.906
114.123
114.322
114.504
114.667
114.811
114.934
115.034
115.111
115.164
115.19
115.188
115.157
115.095
115
114.871
114.706
114.503
114.259
113.973
113.644
113.268
112.844
112.369
111.842
111.261
110.624
109.928
109.172
108.355
107.474
106.527
105.515
104.434
103.285
102.066
100.776
99.4146
97.9813
96.4756
94.8975
93.2467
91.5234
89.7278
87.8604
85.9222
83.9146
81.8391
79.6974
77.4982
75.2437
72.9383
70.5861
68.19
65.7525
63.2737
60.7537
58.1966
55.6147
53.0392
50.5119
96.3611
96.4662
96.6735
96.9773
97.3681
97.8348
98.3653
98.9469
99.5674
100.215
100.88
101.553
102.225
102.891
103.545
104.184
104.803
105.403
105.981
106.536
107.069
107.58
108.071
108.541
108.991
109.424
109.839
110.238
110.622
110.991
111.346
111.688
112.016
112.332
112.635
112.925
113.201
113.464
113.713
113.947
114.165
114.367
114.551
114.717
114.864
114.99
115.094
115.175
115.231
115.261
115.263
115.236
115.178
115.088
114.963
114.802
114.603
114.364
114.082
113.757
113.385
112.964
112.494
111.971
111.393
110.758
110.065
109.312
108.496
107.617
106.673
105.661
104.582
103.433
102.214
100.925
99.5639
98.1309
96.6256
95.0479
93.3977
91.6749
89.8798
88.0126
86.0742
84.0656
81.9871
79.8438
77.6405
75.3808
73.0693
70.7104
68.3066
65.8592
63.3663
60.824
58.2314
55.5956
52.962
50.3813
96.1037
96.2154
96.4353
96.7572
97.1701
97.6619
98.219
98.8276
99.4745
100.147
100.835
101.528
102.218
102.899
103.566
104.214
104.841
105.446
106.028
106.585
107.12
107.631
108.12
108.589
109.038
109.468
109.882
110.279
110.661
111.029
111.383
111.724
112.052
112.368
112.671
112.961
113.239
113.503
113.754
113.99
114.211
114.415
114.603
114.772
114.922
115.051
115.159
115.244
115.304
115.338
115.345
115.322
115.269
115.184
115.064
114.907
114.713
114.479
114.202
113.881
113.514
113.098
112.631
112.112
111.538
110.907
110.217
109.466
108.653
107.776
106.833
105.822
104.744
103.596
102.378
101.089
99.7282
98.2955
96.7905
95.2131
93.5633
91.841
90.0463
88.1793
86.2403
84.2308
82.1485
80.0026
77.7943
75.5285
73.2101
70.8438
68.4323
65.9761
63.4705
60.9063
58.2736
55.5659
52.8519
50.2739
95.818
95.9373
96.1718
96.5142
96.9524
97.4726
98.0597
98.6987
99.3749
100.075
100.788
101.504
102.213
102.91
103.59
104.249
104.885
105.495
106.08
106.64
107.175
107.686
108.175
108.641
109.088
109.517
109.928
110.323
110.703
111.069
111.422
111.762
112.09
112.406
112.709
113.001
113.28
113.545
113.798
114.036
114.26
114.467
114.658
114.831
114.984
115.118
115.23
115.319
115.383
115.422
115.434
115.416
115.368
115.288
115.173
115.022
114.833
114.604
114.332
114.016
113.654
113.243
112.781
112.266
111.696
111.069
110.382
109.634
108.824
107.949
107.008
105.999
104.922
103.775
102.557
101.268
99.9075
98.4749
96.97
95.3928
93.7433
92.0214
90.2271
88.36
86.4204
84.4085
82.3243
80.1737
77.9595
75.6866
73.3602
70.9858
68.5669
66.1034
63.5885
61.0049
58.3305
55.5264
52.6933
50.086
95.5022
95.6303
95.8813
96.2473
96.7142
97.2665
97.8874
98.5603
99.2692
100
100.741
101.48
102.211
102.926
103.62
104.29
104.934
105.55
106.139
106.701
107.236
107.746
108.233
108.698
109.143
109.569
109.977
110.37
110.748
111.113
111.464
111.803
112.131
112.446
112.75
113.042
113.323
113.59
113.845
114.086
114.312
114.523
114.717
114.894
115.051
115.189
115.306
115.399
115.469
115.513
115.53
115.518
115.475
115.4
115.291
115.146
114.963
114.739
114.474
114.163
113.807
113.401
112.944
112.434
111.868
111.245
110.562
109.817
109.01
108.137
107.198
106.191
105.114
103.968
102.751
101.462
100.102
98.669
97.164
95.5869
93.9376
92.216
90.4219
88.5548
86.6142
84.6
82.5129
80.3569
78.1358
75.8545
73.5189
71.1355
68.7092
66.2407
63.7209
61.1223
58.4119
55.4971
52.495
49.8317
95.1541
95.2922
95.5622
95.9551
96.4546
97.0432
97.7021
98.4127
99.1578
99.9224
100.693
101.459
102.212
102.946
103.655
104.336
104.989
105.611
106.204
106.767
107.303
107.812
108.297
108.759
109.201
109.624
110.03
110.42
110.796
111.158
111.508
111.846
112.173
112.489
112.793
113.086
113.368
113.637
113.894
114.138
114.368
114.582
114.78
114.961
115.123
115.265
115.387
115.486
115.56
115.61
115.632
115.626
115.59
115.521
115.418
115.279
115.102
114.885
114.626
114.322
113.971
113.571
113.119
112.614
112.053
111.435
110.756
110.015
109.21
108.34
107.403
106.397
105.322
104.177
102.96
101.671
100.311
98.8776
97.3724
95.7951
94.1457
92.4243
90.6304
88.7632
86.8217
84.8051
82.714
80.5519
78.3228
76.0318
73.6852
71.2913
68.8571
66.3855
63.8654
61.2592
58.5129
55.5047
52.3176
49.5632
94.7713
94.9209
95.2126
95.6363
96.1727
96.8022
97.5036
98.2563
99.0415
99.8429
100.647
101.441
102.218
102.972
103.696
104.39
105.051
105.679
106.275
106.84
107.375
107.883
108.365
108.825
109.263
109.683
110.085
110.472
110.846
111.206
111.554
111.891
112.217
112.533
112.838
113.132
113.415
113.687
113.947
114.193
114.426
114.644
114.847
115.032
115.199
115.346
115.473
115.577
115.658
115.713
115.742
115.742
115.712
115.65
115.554
115.422
115.252
115.041
114.789
114.491
114.147
113.753
113.308
112.808
112.252
111.638
110.964
110.227
109.426
108.558
107.623
106.619
105.545
104.4
103.184
101.895
100.534
99.1006
97.5948
96.0171
94.3674
92.646
90.8522
88.985
87.0426
85.0233
82.9276
80.7585
78.5202
76.2179
73.8581
71.451
69.007
66.5322
64.0131
61.3955
58.6166
55.562
52.254
49.3927
94.3509
94.5137
94.8303
95.2891
95.8676
96.5433
97.2922
98.0917
98.921
99.7627
100.602
101.427
102.23
103.004
103.745
104.451
105.121
105.755
106.354
106.919
107.453
107.959
108.439
108.895
109.329
109.745
110.144
110.528
110.898
111.256
111.602
111.938
112.264
112.579
112.885
113.18
113.465
113.739
114.001
114.251
114.488
114.71
114.917
115.107
115.279
115.432
115.564
115.674
115.761
115.823
115.858
115.865
115.842
115.787
115.698
115.573
115.41
115.208
114.962
114.672
114.334
113.947
113.508
113.015
112.465
111.856
111.187
110.454
109.656
108.791
107.858
106.856
105.783
104.639
103.423
102.134
100.772
99.3378
97.8311
96.2526
94.6024
92.8808
91.0871
89.2197
87.2765
85.2543
83.1531
80.9762
78.7276
76.4121
74.0364
71.6123
69.1539
66.6723
64.1507
61.5125
58.6969
55.6434
52.3314
49.3596
93.8896
94.0677
94.413
94.9118
95.5382
96.2658
97.0681
97.9194
98.7973
99.6829
100.561
101.419
102.249
103.045
103.803
104.521
105.199
105.838
106.44
107.006
107.538
108.041
108.517
108.969
109.399
109.81
110.205
110.585
110.952
111.308
111.652
111.987
112.311
112.627
112.933
113.23
113.516
113.793
114.058
114.312
114.552
114.779
114.99
115.186
115.363
115.522
115.66
115.777
115.87
115.939
115.981
115.995
115.979
115.932
115.851
115.734
115.579
115.384
115.146
114.864
114.534
114.154
113.722
113.236
112.692
112.088
111.423
110.695
109.901
109.039
108.109
107.109
106.037
104.893
103.676
102.387
101.024
99.589
98.0811
96.5013
94.8502
93.1281
91.3343
89.467
87.5232
85.4977
83.3903
81.2046
78.9445
76.6141
74.219
71.7729
69.2932
66.7974
64.2661
61.5989
58.7384
55.6955
52.4625
49.4256
93.3836
93.5794
93.9577
94.5026
95.1833
95.9697
96.8316
97.7403
98.6716
99.6048
100.524
101.417
102.276
103.094
103.869
104.6
105.287
105.931
106.534
107.099
107.63
108.13
108.601
109.048
109.473
109.879
110.269
110.645
111.009
111.361
111.704
112.037
112.361
112.676
112.983
113.281
113.57
113.849
114.117
114.375
114.619
114.851
115.068
115.268
115.452
115.616
115.761
115.884
115.985
116.06
116.11
116.132
116.124
116.085
116.012
115.904
115.757
115.571
115.341
115.067
114.745
114.373
113.949
113.469
112.932
112.334
111.675
110.951
110.161
109.303
108.375
107.376
106.305
105.162
103.945
102.655
101.291
99.854
98.3443
96.7628
95.1104
93.3874
91.5934
89.7261
87.7822
85.7529
83.6385
81.4431
79.1708
76.8236
74.4059
71.9313
69.4212
66.9012
64.3523
61.6544
58.7544
55.7003
52.5374
49.4859
92.8286
93.0449
93.4614
94.0592
94.8018
95.6548
96.583
97.5555
98.5452
99.5301
100.494
101.424
102.312
103.154
103.947
104.69
105.385
106.033
106.637
107.201
107.729
108.224
108.69
109.131
109.55
109.951
110.336
110.708
111.067
111.417
111.757
112.088
112.411
112.727
113.034
113.333
113.624
113.906
114.178
114.44
114.689
114.926
115.148
115.354
115.544
115.715
115.867
115.997
116.105
116.188
116.246
116.276
116.276
116.246
116.182
116.082
115.945
115.767
115.547
115.282
114.969
114.605
114.188
113.716
113.186
112.595
111.941
111.222
110.436
109.581
108.656
107.659
106.589
105.446
104.229
102.937
101.572
100.133
98.6207
97.0369
95.3824
93.6581
91.8635
89.9961
88.053
86.0193
83.8967
81.6911
79.4061
77.0411
74.5974
72.0876
69.5358
66.9798
64.4044
61.6809
58.7547
55.6514
52.504
49.4293
92.2194
92.4598
92.9207
93.5794
94.3928
95.3208
96.3235
97.3664
98.4197
99.4605
100.471
101.44
102.36
103.226
104.036
104.791
105.493
106.145
106.75
107.311
107.835
108.324
108.784
109.219
109.632
110.026
110.405
110.772
111.127
111.473
111.811
112.14
112.463
112.778
113.086
113.387
113.681
113.966
114.241
114.507
114.761
115.003
115.231
115.444
115.64
115.818
115.977
116.115
116.23
116.322
116.388
116.426
116.436
116.414
116.36
116.27
116.142
115.974
115.763
115.507
115.203
114.849
114.441
113.976
113.454
112.869
112.222
111.508
110.726
109.875
108.952
107.957
106.888
105.745
104.527
103.234
101.867
100.425
98.9099
97.323
95.6657
93.9395
92.144
90.276
88.3352
86.2957
84.1637
81.9474
79.6504
77.2677
74.7951
72.243
69.6367
67.0298
64.4147
61.6641
58.7319
55.5757
52.4296
49.234
91.5502
91.8188
92.3313
93.0608
93.955
94.9679
96.0539
97.1743
98.2972
99.3981
100.459
101.469
102.421
103.311
104.138
104.905
105.614
106.268
106.872
107.43
107.949
108.431
108.884
109.311
109.716
110.104
110.477
110.838
111.189
111.531
111.865
112.193
112.515
112.83
113.139
113.442
113.738
114.026
114.306
114.576
114.836
115.083
115.318
115.537
115.74
115.926
116.092
116.238
116.361
116.461
116.536
116.584
116.603
116.591
116.546
116.466
116.348
116.191
115.99
115.744
115.45
115.105
114.706
114.25
113.735
113.158
112.517
111.809
111.032
110.184
109.264
108.271
107.202
106.059
104.84
103.545
102.175
100.73
99.2116
97.6208
95.9599
94.2309
92.4339
90.5642
88.628
86.5807
84.4374
82.2105
79.9036
77.5048
75.0019
72.4
69.7241
67.0474
64.3686
61.5642
58.6072
55.4217
52.4757
49.2597
90.8139
91.1158
91.6887
92.5004
93.4875
94.5967
95.7758
96.9815
98.1801
99.3452
100.46
101.512
102.496
103.411
104.255
105.033
105.747
106.403
107.005
107.559
108.07
108.545
108.989
109.407
109.804
110.184
110.55
110.905
111.251
111.589
111.921
112.247
112.568
112.883
113.193
113.498
113.796
114.088
114.372
114.647
114.912
115.166
115.407
115.633
115.844
116.037
116.211
116.365
116.497
116.606
116.69
116.748
116.777
116.775
116.74
116.671
116.564
116.417
116.228
115.992
115.709
115.374
114.984
114.538
114.031
113.462
112.827
112.125
111.353
110.509
109.591
108.6
107.532
106.388
105.168
103.871
102.498
101.049
99.5257
97.9299
96.2642
94.5314
92.7324
90.8612
88.9284
86.8716
84.7147
82.478
80.1654
77.7545
75.2214
72.563
69.7997
67.0287
64.2513
61.3509
58.3256
55.1016
52.6934
49.8348
90.0023
90.3437
90.988
91.8955
92.9891
94.2077
95.491
96.7907
98.0708
99.3049
100.475
101.572
102.589
103.528
104.389
105.176
105.895
106.55
107.149
107.696
108.2
108.666
109.1
109.508
109.896
110.267
110.625
110.974
111.314
111.649
111.977
112.301
112.621
112.936
113.247
113.554
113.855
114.151
114.439
114.72
114.991
115.251
115.499
115.733
115.951
116.152
116.335
116.497
116.639
116.757
116.851
116.918
116.957
116.966
116.943
116.885
116.789
116.654
116.476
116.252
115.979
115.655
115.275
114.838
114.341
113.779
113.152
112.456
111.689
110.849
109.934
108.944
107.877
106.733
105.511
104.211
102.834
101.381
99.852
98.2501
96.5782
94.8402
93.0384
91.1691
89.2309
87.1652
84.9912
82.7463
80.435
78.0188
75.4584
72.738
69.8668
66.9725
64.0422
60.9601
57.7439
54.4103
52.9046
50.7589
89.1056
89.4941
90.2231
91.2432
92.4602
93.8022
95.2014
96.6046
97.973
99.2801
100.509
101.65
102.701
103.663
104.54
105.335
106.057
106.711
107.304
107.844
108.338
108.793
109.216
109.613
109.99
110.352
110.702
111.043
111.378
111.708
112.033
112.355
112.674
112.989
113.302
113.61
113.915
114.214
114.508
114.794
115.071
115.338
115.594
115.835
116.061
116.271
116.463
116.634
116.785
116.913
117.017
117.094
117.145
117.165
117.153
117.107
117.023
116.9
116.734
116.522
116.261
115.948
115.58
115.153
114.664
114.112
113.492
112.802
112.041
111.205
110.293
109.305
108.238
107.093
105.868
104.566
103.184
101.726
100.19
98.581
96.9013
95.1562
93.3496
91.4777
89.5412
87.4578
85.2608
83.0103
80.7114
78.2998
75.7175
72.9299
69.9275
66.8674
63.7082
60.4184
56.899
53.3003
52.6786
31.2499
88.1123
88.5574
89.3876
90.5406
91.8996
93.3826
94.9104
96.4268
97.8903
99.2746
100.564
101.751
102.835
103.819
104.71
105.513
106.235
106.886
107.472
108.002
108.485
108.927
109.337
109.722
110.087
110.439
110.78
111.114
111.442
111.767
112.089
112.409
112.727
113.042
113.356
113.667
113.974
114.278
114.577
114.869
115.153
115.428
115.691
115.94
116.175
116.394
116.594
116.775
116.936
117.074
117.188
117.277
117.339
117.371
117.371
117.337
117.267
117.156
117.003
116.803
116.555
116.254
115.897
115.481
115.003
114.459
113.847
113.164
112.408
111.577
110.668
109.681
108.614
107.468
106.241
104.934
103.548
102.083
100.541
98.9226
97.2333
95.4788
93.6645
91.786
89.8528
87.7414
85.5138
83.2632
80.9942
78.6003
76.003
73.1473
69.9994
66.7132
63.165
59.873
56.2059
52.4168
39.2197
3.6998
87.0082
87.5218
88.474
89.7847
91.3085
92.951
94.6224
96.2614
97.8273
99.2923
100.644
101.877
102.993
103.998
104.901
105.709
106.431
107.076
107.653
108.171
108.64
109.068
109.464
109.835
110.187
110.527
110.858
111.184
111.506
111.826
112.145
112.462
112.779
113.095
113.409
113.723
114.034
114.342
114.647
114.945
115.237
115.519
115.79
116.048
116.292
116.52
116.73
116.921
117.091
117.24
117.365
117.466
117.539
117.584
117.597
117.576
117.519
117.422
117.282
117.096
116.86
116.572
116.227
115.823
115.355
114.821
114.217
113.542
112.791
111.964
111.058
110.073
109.006
107.858
106.628
105.318
103.926
102.454
100.903
99.275
97.5742
95.8074
93.981
92.0858
90.1578
87.9952
85.7289
83.4922
81.2836
78.9237
76.3204
73.403
70.0979
66.5179
62.3789
58.7931
55.4683
39.8989
8.82219
0.382606
85.7768
86.3734
87.4746
88.9726
90.6889
92.5117
94.3418
96.1137
97.7891
99.338
100.754
102.032
103.178
104.202
105.115
105.925
106.644
107.281
107.847
108.351
108.804
109.216
109.595
109.95
110.289
110.616
110.936
111.254
111.569
111.884
112.2
112.515
112.83
113.146
113.462
113.778
114.093
114.407
114.717
115.022
115.321
115.612
115.892
116.159
116.412
116.649
116.869
117.07
117.251
117.411
117.548
117.66
117.746
117.803
117.83
117.823
117.78
117.697
117.571
117.399
117.177
116.902
116.571
116.178
115.722
115.198
114.603
113.935
113.191
112.368
111.465
110.481
109.414
108.264
107.031
105.715
104.318
102.838
101.278
99.6386
97.9246
96.1418
94.2984
92.3946
90.419
88.1932
85.8768
83.6817
81.5815
79.2748
76.6788
73.7173
70.2325
66.1926
61.6506
57.9736
48.9468
11.831
0.331956
0.352845
84.3972
85.0951
86.3803
88.1026
90.0428
92.0704
94.075
95.9895
97.7831
99.4173
100.894
102.217
103.394
104.433
105.354
106.163
106.876
107.503
108.055
108.543
108.978
109.371
109.732
110.069
110.391
110.705
111.014
111.323
111.631
111.941
112.253
112.566
112.88
113.196
113.514
113.833
114.152
114.471
114.787
115.1
115.407
115.706
115.995
116.272
116.535
116.782
117.012
117.224
117.416
117.587
117.735
117.86
117.959
118.029
118.07
118.078
118.049
117.981
117.87
117.713
117.506
117.245
116.927
116.547
116.103
115.59
115.004
114.344
113.606
112.788
111.888
110.905
109.838
108.685
107.448
106.127
104.723
103.235
101.665
100.014
98.2856
96.4832
94.6155
92.6918
90.6632
88.3629
85.9895
83.857
81.905
79.6638
77.0863
74.1087
70.4147
65.7711
60.2874
53.526
23.7803
0.926501
0.479535
0.336017
82.844
83.6656
85.1816
87.1745
89.3749
91.634
93.8314
95.894
97.8183
99.5333
101.072
102.437
103.641
104.697
105.619
106.424
107.129
107.742
108.277
108.746
109.161
109.532
109.872
110.19
110.495
110.794
111.091
111.39
111.692
111.997
112.305
112.616
112.929
113.245
113.564
113.886
114.21
114.534
114.857
115.178
115.494
115.802
116.101
116.388
116.661
116.918
117.159
117.381
117.584
117.767
117.927
118.065
118.177
118.262
118.317
118.34
118.327
118.275
118.18
118.038
117.847
117.601
117.297
116.931
116.499
115.997
115.421
114.769
114.038
113.225
112.328
111.346
110.277
109.123
107.881
106.554
105.142
103.645
102.065
100.402
98.6587
96.8344
94.937
92.9852
90.9192
88.5889
86.1948
84.1239
82.316
80.108
77.5352
74.5625
70.6898
66.084
58.4592
30.3796
1.945
0.0993823
0.354594
0.315328
81.0853
82.0578
83.8695
86.1892
88.6923
91.2124
93.6205
95.8495
97.8878
99.6921
101.291
102.696
103.923
104.99
105.916
106.709
107.402
107.999
108.515
108.961
109.352
109.7
110.017
110.314
110.599
110.882
111.167
111.456
111.75
112.05
112.355
112.663
112.976
113.292
113.613
113.938
114.266
114.596
114.927
115.256
115.581
115.899
116.208
116.505
116.789
117.057
117.309
117.542
117.757
117.951
118.124
118.275
118.401
118.501
118.571
118.61
118.613
118.577
118.499
118.374
118.199
117.969
117.68
117.328
116.909
116.419
115.854
115.211
114.487
113.679
112.785
111.803
110.734
109.576
108.329
106.995
105.575
104.068
102.477
100.803
99.0447
97.1988
95.271
93.286
91.1953
88.8881
86.5658
84.5461
82.9484
80.6851
78.0705
75.0746
71.0892
66.919
48.1297
5.84694
0.533883
0.252848
0.326942
0.30866
79.0816
80.236
82.4374
85.151
88.0056
90.8184
93.4539
95.8561
98.0086
99.9009
101.557
102.998
104.244
105.317
106.238
107.023
107.698
108.275
108.767
109.188
109.553
109.874
110.165
110.438
110.703
110.968
111.239
111.519
111.806
112.101
112.402
112.709
113.02
113.337
113.659
113.987
114.32
114.657
114.996
115.334
115.668
115.997
116.317
116.625
116.92
117.2
117.462
117.707
117.933
118.14
118.326
118.49
118.631
118.746
118.832
118.887
118.907
118.889
118.828
118.72
118.562
118.349
118.076
117.739
117.334
116.857
116.303
115.669
114.952
114.149
113.258
112.277
111.206
110.045
108.793
107.451
106.021
104.504
102.902
101.215
99.4426
97.5777
95.623
93.601
91.4752
89.1872
86.9606
85.0135
83.3883
81.0534
78.4152
75.4773
71.436
62.7077
21.0042
0.49996
0.439863
0.311847
0.319934
0.30331
76.7841
78.1509
80.8833
84.0685
87.3295
90.468
93.3466
95.922
98.1912
100.167
101.876
103.347
104.606
105.68
106.593
107.365
108.017
108.57
109.035
109.428
109.763
110.054
110.316
110.563
110.804
111.051
111.308
111.578
111.859
112.149
112.447
112.752
113.062
113.379
113.703
114.035
114.373
114.716
115.063
115.411
115.756
116.096
116.428
116.748
117.054
117.345
117.619
117.875
118.113
118.332
118.531
118.71
118.865
118.996
119.099
119.171
119.209
119.209
119.167
119.077
118.937
118.741
118.485
118.165
117.774
117.31
116.768
116.144
115.434
114.637
113.748
112.768
111.696
110.53
109.271
107.921
106.481
104.953
103.337
101.637
99.8504
97.9693
95.9947
93.9408
91.7725
89.4611
87.25
85.2913
83.587
81.1281
78.6996
76.1921
71.8733
33.923
1.3835
0.250209
0.369631
0.326466
0.316282
0.299412
74.1364
75.7346
79.2129
82.9571
86.6846
90.1801
93.3151
96.0596
98.4446
100.497
102.252
103.746
105.012
106.081
106.98
107.733
108.36
108.885
109.319
109.68
109.982
110.24
110.47
110.687
110.903
111.13
111.373
111.633
111.908
112.194
112.49
112.792
113.101
113.418
113.744
114.079
114.423
114.774
115.13
115.488
115.844
116.196
116.54
116.872
117.19
117.493
117.778
118.046
118.296
118.528
118.741
118.933
119.104
119.251
119.372
119.462
119.519
119.538
119.515
119.445
119.323
119.146
118.908
118.604
118.229
117.779
117.249
116.635
115.934
115.142
114.257
113.277
112.202
111.031
109.766
108.407
106.955
105.414
103.784
102.069
100.266
98.3715
96.3849
94.315
92.1267
89.7732
87.4977
85.3956
83.5052
80.7011
78.5793
77.3861
62.2987
5.29557
0.536531
0.326651
0.356777
0.33193
0.315637
0.298195
71.0729
72.8971
77.4447
81.841
86.0968
89.9794
93.3771
96.2829
98.7777
100.899
102.691
104.2
105.466
106.522
107.401
108.129
108.729
109.219
109.618
109.944
110.209
110.43
110.625
110.809
110.998
111.204
111.432
111.683
111.953
112.236
112.529
112.829
113.137
113.454
113.781
114.12
114.469
114.829
115.194
115.564
115.932
116.297
116.653
116.998
117.329
117.643
117.941
118.221
118.483
118.727
118.953
119.161
119.348
119.512
119.651
119.76
119.836
119.875
119.872
119.822
119.721
119.563
119.344
119.058
118.7
118.264
117.747
117.144
116.451
115.665
114.782
113.803
112.725
111.549
110.276
108.907
107.443
105.887
104.242
102.509
100.69
98.7832
96.7897
94.714
92.5059
90.1335
87.7178
85.3309
83.1857
79.802
78.0062
78.0696
27.6558
0.443469
0.436691
0.362961
0.354018
0.333526
0.316907
0.29835
67.4953
69.5363
75.6147
80.7553
85.6009
89.895
93.5621
96.6091
99.1982
101.379
103.199
104.713
105.968
107.005
107.858
108.554
109.12
109.575
109.933
110.22
110.445
110.625
110.78
110.928
111.087
111.27
111.484
111.727
111.992
112.273
112.564
112.863
113.169
113.485
113.814
114.157
114.513
114.88
115.257
115.638
116.02
116.398
116.768
117.127
117.47
117.797
118.106
118.398
118.672
118.929
119.169
119.392
119.595
119.777
119.935
120.064
120.161
120.221
120.239
120.21
120.13
119.993
119.793
119.526
119.185
118.766
118.262
117.671
116.986
116.206
115.326
114.347
113.266
112.084
110.802
109.422
107.945
106.373
104.71
102.959
101.124
99.2051
97.2045
95.1186
92.8812
90.4497
87.8426
85.0303
82.4556