/*--------------------------------*- C++ -*----------------------------------*\
| =========                 |                                                 |
| \\      /  F ield         | OpenFOAM: The Open Source CFD Toolbox           |
|  \\    /   O peration     | Version:  2.4.0                                 |
|   \\  /    A nd           | Web:      www.OpenFOAM.org                      |
|    \\/     M anipulation  |                                                 |
\*---------------------------------------------------------------------------*/
FoamFile
{
    version     2.0;
    format      ascii;
    class       volVectorField;
    location    "0.15";
    object      U;
}
// * * * * * * * * * * * * * * * * * * * * * * * * * * * * * * * * * * * * * //

dimensions      [0 1 -1 0 0 0 0];

internalField   nonuniform List<vector> 
14400
(
(-0.00128653 -0.000122454 0)
(0.00631171 -0.000142807 0)
(0.0136139 -6.86804e-05 0)
(0.0201167 -2.36159e-05 0)
(0.0230131 2.39684e-05 0)
(0.0241036 7.9895e-05 0)
(0.0236345 0.000101425 0)
(0.0201277 0.000182811 0)
(0.0116346 0.000299896 0)
(-0.000313372 0.00028164 0)
(-0.0113437 0.000121849 0)
(-0.0172948 -5.56071e-05 0)
(-0.0190572 -0.000138147 0)
(-0.0185659 -0.000152266 0)
(-0.01724 -0.000138403 0)
(-0.0157001 -0.000117676 0)
(-0.0141398 -9.64014e-05 0)
(-0.0126052 -7.88574e-05 0)
(-0.011116 -6.57606e-05 0)
(-0.0096826 -5.64017e-05 0)
(-0.0083193 -4.96743e-05 0)
(-0.00703721 -4.49145e-05 0)
(-0.00584816 -4.10603e-05 0)
(-0.0047605 -3.74185e-05 0)
(-0.0037781 -3.37645e-05 0)
(-0.00289853 -3.02647e-05 0)
(-0.00211317 -2.72577e-05 0)
(-0.00141113 -2.51898e-05 0)
(-0.000781157 -2.38579e-05 0)
(-0.000214244 -2.29951e-05 0)
(-0.00345369 0.000144409 0)
(0.00177847 -0.00125348 0)
(0.0156404 -0.00086536 0)
(0.0311532 -0.000546568 0)
(0.0413868 -0.000464243 0)
(0.0501545 -0.000418389 0)
(0.0575985 -0.000251478 0)
(0.0611608 0.000557423 0)
(0.0560612 0.00207012 0)
(0.0414559 0.00341358 0)
(0.0193575 0.00342747 0)
(-0.000951832 0.00243449 0)
(-0.015325 0.00137095 0)
(-0.0240576 0.00058456 0)
(-0.0287333 6.26607e-05 0)
(-0.0305324 -0.000339904 0)
(-0.0302622 -0.000665757 0)
(-0.0286126 -0.000936767 0)
(-0.0261374 -0.00115394 0)
(-0.0232435 -0.0013229 0)
(-0.020207 -0.00144895 0)
(-0.0172052 -0.00153875 0)
(-0.0143516 -0.00159468 0)
(-0.0117133 -0.00162208 0)
(-0.00932331 -0.00162808 0)
(-0.00718721 -0.00162206 0)
(-0.0052897 -0.00161292 0)
(-0.00360424 -0.00160509 0)
(-0.00210283 -0.00160046 0)
(-0.000758184 -0.0015983 0)
(-0.0041833 0.000693315 0)
(-0.00238459 -0.0023694 0)
(0.0110962 -0.00181304 0)
(0.0280113 -0.00125813 0)
(0.0398528 -0.00135531 0)
(0.0502427 -0.00148524 0)
(0.0595239 -0.00123686 0)
(0.0655638 0.00020523 0)
(0.063841 0.00311328 0)
(0.0539298 0.00608428 0)
(0.0358964 0.00711073 0)
(0.0169231 0.00592029 0)
(0.0019423 0.00411908 0)
(-0.00819652 0.00247701 0)
(-0.0143018 0.0011884 0)
(-0.0173905 0.000115638 0)
(-0.0183079 -0.000777435 0)
(-0.0177918 -0.00149275 0)
(-0.0164201 -0.00203828 0)
(-0.0146 -0.00243938 0)
(-0.012592 -0.00272388 0)
(-0.0105625 -0.00291223 0)
(-0.00861761 -0.00301705 0)
(-0.00682934 -0.00305007 0)
(-0.0052443 -0.00302702 0)
(-0.00388368 -0.00297023 0)
(-0.00274128 -0.00290422 0)
(-0.00178975 -0.00284648 0)
(-0.000989364 -0.00280671 0)
(-0.000300696 -0.00278655 0)
(-0.00443467 0.00133522 0)
(-0.0034334 -0.00347233 0)
(0.00986078 -0.00277432 0)
(0.026939 -0.00197538 0)
(0.0390122 -0.00230258 0)
(0.0496403 -0.00262269 0)
(0.0592414 -0.00232105 0)
(0.0657119 -0.000319598 0)
(0.06444 0.0038785 0)
(0.0554923 0.00828221 0)
(0.0388873 0.0103188 0)
(0.0215444 0.00911032 0)
(0.00782881 0.00672688 0)
(-0.0016016 0.00434999 0)
(-0.0074344 0.0023784 0)
(-0.0106318 0.000738262 0)
(-0.0120253 -0.000617478 0)
(-0.0122411 -0.00168737 0)
(-0.0117102 -0.00249762 0)
(-0.0107268 -0.00309293 0)
(-0.00948707 -0.00351882 0)
(-0.00812722 -0.00380525 0)
(-0.00674077 -0.0039675 0)
(-0.00540217 -0.00401584 0)
(-0.00416977 -0.00396638 0)
(-0.00308388 -0.00384916 0)
(-0.00216062 -0.00370519 0)
(-0.00139116 -0.00357223 0)
(-0.000749167 -0.00347611 0)
(-0.00020188 -0.00342597 0)
(-0.00460976 0.00202093 0)
(-0.00374212 -0.00460063 0)
(0.00961003 -0.00374802 0)
(0.0268297 -0.00268611 0)
(0.0388988 -0.00326422 0)
(0.0495657 -0.00377368 0)
(0.0593955 -0.00342934 0)
(0.0662185 -0.000900242 0)
(0.0650514 0.00458715 0)
(0.0561776 0.0104374 0)
(0.0391228 0.0134184 0)
(0.0218354 0.0121314 0)
(0.00855368 0.00917381 0)
(-0.000462643 0.0061137 0)
(-0.00609311 0.00352605 0)
(-0.00930497 0.00141061 0)
(-0.0108957 -0.000317597 0)
(-0.0114128 -0.00168626 0)
(-0.0112073 -0.00273248 0)
(-0.0105342 -0.00351623 0)
(-0.00957315 -0.00409136 0)
(-0.00844934 -0.00449509 0)
(-0.00725294 -0.00474451 0)
(-0.00604682 -0.00484891 0)
(-0.00487831 -0.00482284 0)
(-0.00378111 -0.00469923 0)
(-0.00277579 -0.00452792 0)
(-0.00187006 -0.00436065 0)
(-0.00105978 -0.00423497 0)
(-0.00033455 -0.00416811 0)
(-0.00480686 0.0027493 0)
(-0.00398428 -0.0057694 0)
(0.00949668 -0.00473041 0)
(0.0269097 -0.00338949 0)
(0.0389031 -0.00423914 0)
(0.0495623 -0.00493744 0)
(0.0596594 -0.00456323 0)
(0.0669473 -0.00154432 0)
(0.0659138 0.00525066 0)
(0.0571545 0.0126661 0)
(0.03918 0.0166153 0)
(0.0213025 0.015165 0)
(0.00794338 0.0115794 0)
(-0.000933934 0.00783494 0)
(-0.00646096 0.00465666 0)
(-0.00964849 0.00210088 0)
(-0.0112575 2.41154e-05 0)
(-0.0118132 -0.00162778 0)
(-0.0116479 -0.00290442 0)
(-0.0110171 -0.00387297 0)
(-0.0101026 -0.00459671 0)
(-0.0090329 -0.00511883 0)
(-0.00788923 -0.00546405 0)
(-0.006722 -0.00564591 0)
(-0.00556245 -0.0056819 0)
(-0.00443002 -0.00560607 0)
(-0.00334033 -0.00546854 0)
(-0.00230797 -0.00532298 0)
(-0.00134455 -0.00521005 0)
(-0.000457651 -0.00514965 0)
(-0.00504679 0.00352933 0)
(-0.00427313 -0.00698922 0)
(0.00937958 -0.00571979 0)
(0.0270288 -0.00408251 0)
(0.0389194 -0.00523046 0)
(0.0495529 -0.00611655 0)
(0.0599693 -0.0057277 0)
(0.0678534 -0.00226783 0)
(0.0669699 0.00585106 0)
(0.0584327 0.0149903 0)
(0.0393055 0.0199722 0)
(0.0206086 0.0182794 0)
(0.00700592 0.0139975 0)
(-0.00181024 0.00953827 0)
(-0.00724783 0.00576901 0)
(-0.0103733 0.0027821 0)
(-0.011922 0.000359282 0)
(-0.0124173 -0.00157708 0)
(-0.0121912 -0.0030838 0)
(-0.011508 -0.00423426 0)
(-0.0105553 -0.00510028 0)
(-0.00946101 -0.0057353 0)
(-0.00830164 -0.00617452 0)
(-0.00712074 -0.00643982 0)
(-0.00594082 -0.00655492 0)
(-0.00477372 -0.0065548 0)
(-0.00363193 -0.00648528 0)
(-0.00253154 -0.00639477 0)
(-0.00149 -0.00632045 0)
(-0.000522623 -0.00628038 0)
(-0.00533572 0.00437223 0)
(-0.00462602 -0.00827157 0)
(0.00924251 -0.00671519 0)
(0.0271683 -0.00475951 0)
(0.038939 -0.00624349 0)
(0.0495277 -0.0073142 0)
(0.0603145 -0.00692665 0)
(0.0689482 -0.0030847 0)
(0.0682165 0.00636723 0)
(0.0600332 0.0174322 0)
(0.0394766 0.023527 0)
(0.0197958 0.0215009 0)
(0.00589362 0.0164435 0)
(-0.00286182 0.0112202 0)
(-0.00819221 0.00685508 0)
(-0.0112349 0.00344059 0)
(-0.0126913 0.000669712 0)
(-0.0130968 -0.001556 0)
(-0.0127762 -0.00329541 0)
(-0.0120058 -0.00462524 0)
(-0.0109795 -0.00563006 0)
(-0.00982243 -0.00637483 0)
(-0.00860901 -0.00690638 0)
(-0.00737921 -0.00725632 0)
(-0.0061532 -0.0074549 0)
(-0.00494345 -0.00753732 0)
(-0.00376217 -0.00754468 0)
(-0.00262513 -0.00751833 0)
(-0.00154981 -0.0074889 0)
(-0.000551601 -0.0074731 0)
(-0.00567754 0.00529023 0)
(-0.00504809 -0.00962914 0)
(0.00908468 -0.00771485 0)
(0.0273258 -0.0054143 0)
(0.0389609 -0.0072842 0)
(0.0494805 -0.00853377 0)
(0.0606836 -0.00816285 0)
(0.0702475 -0.00400684 0)
(0.0696562 0.0067728 0)
(0.0620036 0.020024 0)
(0.0396721 0.0273221 0)
(0.0188356 0.0248489 0)
(0.00460218 0.0189228 0)
(-0.00406729 0.0128857 0)
(-0.00926135 0.00790752 0)
(-0.0122093 0.00406975 0)
(-0.0135587 0.000949477 0)
(-0.0138601 -0.00157346 0)
(-0.0134256 -0.003548 0)
(-0.0125509 -0.00505685 0)
(-0.0114327 -0.00619886 0)
(-0.010195 -0.00705238 0)
(-0.00890893 -0.00767632 0)
(-0.00761244 -0.00811198 0)
(-0.00632568 -0.00839328 0)
(-0.00506501 -0.00855546 0)
(-0.00384427 -0.00863576 0)
(-0.00267846 -0.00866919 0)
(-0.00158333 -0.00868155 0)
(-0.000570956 -0.00868844 0)
(-0.00607612 0.00629655 0)
(-0.00554441 -0.0110756 0)
(0.00890613 -0.00871639 0)
(0.0275008 -0.00604039 0)
(0.0389855 -0.00835696 0)
(0.0494039 -0.00977884 0)
(0.0610604 -0.00944 0)
(0.0717659 -0.00504303 0)
(0.071291 0.00703433 0)
(0.0644051 0.0228095 0)
(0.0398717 0.0314052 0)
(0.0176983 0.0283421 0)
(0.00311278 0.0214368 0)
(-0.00543101 0.014531 0)
(-0.010451 0.00891878 0)
(-0.0132983 0.00466608 0)
(-0.0145306 0.00119614 0)
(-0.014718 -0.00163564 0)
(-0.0141536 -0.00384764 0)
(-0.0131586 -0.00553595 0)
(-0.0119359 -0.0068131 0)
(-0.0106087 -0.00777436 0)
(-0.00924273 -0.00849182 0)
(-0.00787149 -0.00901387 0)
(-0.0065185 -0.00937642 0)
(-0.00520152 -0.00961355 0)
(-0.0039366 -0.00975984 0)
(-0.0027391 -0.00984501 0)
(-0.00162189 -0.00989227 0)
(-0.000593538 -0.00991766 0)
(-0.00653619 0.00740542 0)
(-0.00611984 -0.0126261 0)
(0.00870837 -0.00971658 0)
(0.0276922 -0.00663139 0)
(0.0390151 -0.00946607 0)
(0.0492899 -0.0110533 0)
(0.0614204 -0.0107649 0)
(0.0735048 -0.00619701 0)
(0.0731237 0.00710395 0)
(0.0673139 0.0258496 0)
(0.0400491 0.0358307 0)
(0.0163524 0.0319978 0)
(0.00140672 0.0239854 0)
(-0.00695849 0.0161482 0)
(-0.0117565 0.00988071 0)
(-0.0145022 0.00522522 0)
(-0.0156102 0.00140946 0)
(-0.0156747 -0.00174737 0)
(-0.0149628 -0.00420169 0)
(-0.0138294 -0.00606895 0)
(-0.0124913 -0.00747677 0)
(-0.0110714 -0.0085436 0)
(-0.00962353 -0.00935534 0)
(-0.00817663 -0.00996456 0)
(-0.00675418 -0.0104074 0)
(-0.00537734 -0.0107151 0)
(-0.00406388 -0.0109202 0)
(-0.00282882 -0.0110506 0)
(-0.00168161 -0.0111294 0)
(-0.00062726 -0.0111728 0)
(-0.00706298 0.00863224 0)
(-0.00678207 -0.0142968 0)
(0.00849268 -0.0107114 0)
(0.0278993 -0.00718151 0)
(0.0390531 -0.0106165 0)
(0.0491297 -0.0123615 0)
(0.0617209 -0.0121499 0)
(0.0754117 -0.00746324 0)
(0.0751661 0.0069108 0)
(0.0708219 0.0292283 0)
(0.0401668 0.0406591 0)
(0.0147604 0.0358288 0)
(-0.000536877 0.0265654 0)
(-0.00865428 0.0177286 0)
(-0.0131676 0.0107873 0)
(-0.0158206 0.00574275 0)
(-0.0168007 0.00159124 0)
(-0.0167347 -0.00191547 0)
(-0.0158536 -0.00461842 0)
(-0.0145611 -0.0066624 0)
(-0.0130977 -0.00819283 0)
(-0.011584 -0.00935995 0)
(-0.0100561 -0.0102665 0)
(-0.008534 -0.0109651 0)
(-0.00704007 -0.0114885 0)
(-0.00559706 -0.0118657 0)
(-0.00422512 -0.0121256 0)
(-0.00293973 -0.0122962 0)
(-0.00175164 -0.0124019 0)
(-0.00066616 -0.0124602 0)
(-0.00766269 0.00999384 0)
(-0.00753956 -0.0161059 0)
(0.00826179 -0.0116951 0)
(0.0281197 -0.00768617 0)
(0.0391039 -0.0118128 0)
(0.0489137 -0.0137086 0)
(0.0618801 -0.0136238 0)
(0.077245 -0.00881666 0)
(0.077462 0.00637316 0)
(0.0750399 0.0330676 0)
(0.040172 0.0459544 0)
(0.0128713 0.0398432 0)
(-0.00276151 0.0291714 0)
(-0.0105355 0.0192532 0)
(-0.0146514 0.0116437 0)
(-0.0172536 0.00621221 0)
(-0.0181064 0.00174732 0)
(-0.0179036 -0.0021484 0)
(-0.0168269 -0.00510801 0)
(-0.0153476 -0.00732424 0)
(-0.0137499 -0.00896259 0)
(-0.0121458 -0.0102221 0)
(-0.010542 -0.0112238 0)
(-0.0089459 -0.0120157 0)
(-0.00738016 -0.0126219 0)
(-0.00587023 -0.0130684 0)
(-0.00443789 -0.0133835 0)
(-0.00309792 -0.0135941 0)
(-0.00185932 -0.0137227 0)
(-0.000725166 -0.0137916 0)
(-0.00834261 0.0115085 0)
(-0.0084036 -0.0180738 0)
(0.00801962 -0.0126603 0)
(0.0283522 -0.00814304 0)
(0.0391732 -0.0130599 0)
(0.0486339 -0.0151006 0)
(0.0617996 -0.0152534 0)
(0.0783442 -0.0102048 0)
(0.0801178 0.00536305 0)
(0.0800916 0.0375311 0)
(0.0399889 0.0517867 0)
(0.0105982 0.0440604 0)
(-0.00533669 0.0317868 0)
(-0.0126176 0.020696 0)
(-0.0161034 0.0124793 0)
(-0.0187959 0.00663174 0)
(-0.0195367 0.00188912 0)
(-0.0191885 -0.00245409 0)
(-0.017883 -0.00568504 0)
(-0.0161781 -0.00806379 0)
(-0.0144403 -0.00978495 0)
(-0.0127552 -0.0111263 0)
(-0.0110848 -0.012225 0)
(-0.00941559 -0.0131166 0)
(-0.00776994 -0.0138118 0)
(-0.00618239 -0.0143289 0)
(-0.00467933 -0.0146964 0)
(-0.00328009 -0.0149452 0)
(-0.00198718 -0.0151041 0)
(-0.000797095 -0.0151951 0)
(-0.00911029 0.0131964 0)
(-0.00938754 -0.0202233 0)
(0.00777007 -0.0135957 0)
(0.0285943 -0.00855288 0)
(0.039268 -0.0143642 0)
(0.0482891 -0.0165429 0)
(0.0615834 -0.0171426 0)
(0.0779845 -0.0116234 0)
(0.0833964 0.00382021 0)
(0.0860365 0.0427931 0)
(0.0394937 0.0582326 0)
(0.00769529 0.0485644 0)
(-0.00821135 0.0343673 0)
(-0.0147572 0.0220749 0)
(-0.0175443 0.013256 0)
(-0.0203631 0.00700748 0)
(-0.0211127 0.00202711 0)
(-0.0205974 -0.00284748 0)
(-0.0190209 -0.00637051 0)
(-0.0170327 -0.0088911 0)
(-0.0151583 -0.0106561 0)
(-0.0134129 -0.0120656 0)
(-0.0116868 -0.0132665 0)
(-0.0099493 -0.0142686 0)
(-0.00823227 -0.0150583 0)
(-0.00655913 -0.0156559 0)
(-0.00496544 -0.0160797 0)
(-0.0034746 -0.0163662 0)
(-0.00210527 -0.0165517 0)
(-0.000863609 -0.0166593 0)
(-0.0099746 0.0150794 0)
(-0.0105101 -0.02258 0)
(0.0075174 -0.0144857 0)
(0.0288445 -0.00892024 0)
(0.0393952 -0.0157339 0)
(0.0478826 -0.0180306 0)
(0.0617111 -0.0193208 0)
(0.0775066 -0.0133122 0)
(0.0882703 0.00196798 0)
(0.0924935 0.0488903 0)
(0.0384359 0.0653729 0)
(0.00334571 0.0535617 0)
(-0.0108758 0.0366276 0)
(-0.0177469 0.0233842 0)
(-0.0194201 0.0137734 0)
(-0.0220479 0.0072749 0)
(-0.0228421 0.00219155 0)
(-0.0221238 -0.00334725 0)
(-0.0202383 -0.0071975 0)
(-0.0178779 -0.0098175 0)
(-0.0158953 -0.0115619 0)
(-0.0141091 -0.0130276 0)
(-0.0123455 -0.0143426 0)
(-0.0105474 -0.0154691 0)
(-0.00873443 -0.0163752 0)
(-0.00697734 -0.01706 0)
(-0.00530272 -0.0175525 0)
(-0.00373189 -0.0178815 0)
(-0.00228422 -0.0180785 0)
(-0.000966081 -0.018185 0)
(-0.0109456 0.0171817 0)
(-0.0117937 -0.0251721 0)
(0.00726517 -0.015308 0)
(0.0291022 -0.00925483 0)
(0.0395608 -0.017178 0)
(0.0474007 -0.0195401 0)
(0.0622128 -0.0216342 0)
(0.0805627 -0.0155688 0)
(0.0960559 0.000347649 0)
(0.0977553 0.0554906 0)
(0.036624 0.0732063 0)
(-0.00311564 0.0589387 0)
(-0.0136216 0.0385296 0)
(-0.0200629 0.0246231 0)
(-0.0214245 0.0139884 0)
(-0.0238172 0.00748139 0)
(-0.0248517 0.00242955 0)
(-0.0237172 -0.00398376 0)
(-0.0215598 -0.00821153 0)
(-0.0186095 -0.0108515 0)
(-0.0166157 -0.0124743 0)
(-0.0148718 -0.0139989 0)
(-0.0131018 -0.0154432 0)
(-0.0112218 -0.0167292 0)
(-0.00934209 -0.0177491 0)
(-0.00747909 -0.0185287 0)
(-0.00571071 -0.0190862 0)
(-0.00407275 -0.0194636 0)
(-0.00254583 -0.0197052 0)
(-0.00111734 -0.0198462 0)
(-0.0120341 0.01953 0)
(-0.0132707 -0.0280317 0)
(0.00701705 -0.016031 0)
(0.0293696 -0.00957409 0)
(0.0397689 -0.0187064 0)
(0.0468185 -0.0210531 0)
(0.0623094 -0.024033 0)
(0.0858406 -0.0179427 0)
(0.104043 -0.000319854 0)
(0.0983378 0.0616911 0)
(0.0350437 0.0812651 0)
(-0.00689328 0.0635005 0)
(-0.020491 0.0411458 0)
(-0.0222943 0.0254278 0)
(-0.0233868 0.0140854 0)
(-0.0253673 0.0075808 0)
(-0.0271453 0.00270287 0)
(-0.0252327 -0.00475911 0)
(-0.0229332 -0.00953589 0)
(-0.0186577 -0.012013 0)
(-0.0172422 -0.0132804 0)
(-0.0156597 -0.0149389 0)
(-0.013916 -0.0165622 0)
(-0.0120407 -0.0180189 0)
(-0.0100282 -0.0192235 0)
(-0.00801162 -0.0201177 0)
(-0.00609833 -0.0207209 0)
(-0.0043224 -0.0211382 0)
(-0.00269669 -0.0214348 0)
(-0.00121623 -0.0216243 0)
(-0.013252 0.0221535 0)
(-0.0149831 -0.0312013 0)
(0.0067714 -0.0166086 0)
(0.0296556 -0.00990692 0)
(0.0400149 -0.020329 0)
(0.0461265 -0.0225461 0)
(0.0621899 -0.0267832 0)
(0.0871711 -0.0195854 0)
(0.105436 0.000905325 0)
(0.0914405 0.0660952 0)
(0.0344054 0.0887176 0)
(-0.00341485 0.0670382 0)
(-0.0240767 0.0440246 0)
(-0.0258845 0.0254544 0)
(-0.0251478 0.0143177 0)
(-0.0273812 0.00774041 0)
(-0.0293651 0.0029063 0)
(-0.026526 -0.00541578 0)
(-0.0235652 -0.0117398 0)
(-0.0175645 -0.0130353 0)
(-0.0176888 -0.0137565 0)
(-0.0166056 -0.0158311 0)
(-0.0148498 -0.017632 0)
(-0.0128182 -0.0193907 0)
(-0.0107109 -0.0207935 0)
(-0.0086187 -0.021806 0)
(-0.00656173 -0.0225072 0)
(-0.00462279 -0.0229599 0)
(-0.0028779 -0.0232389 0)
(-0.00133667 -0.0234082 0)
(-0.0146123 0.0250845 0)
(-0.0169901 -0.034733 0)
(0.00651594 -0.0169705 0)
(0.02998 -0.0103034 0)
(0.04025 -0.0220505 0)
(0.0451911 -0.0239559 0)
(0.0620337 -0.0299654 0)
(0.0797741 -0.0202833 0)
(0.0984724 0.00358463 0)
(0.0770334 0.0680281 0)
(0.0281051 0.0956579 0)
(-0.0117519 0.0694326 0)
(-0.0280469 0.0462971 0)
(-0.0308031 0.0253557 0)
(-0.0279422 0.0151926 0)
(-0.0286 0.00803888 0)
(-0.0313193 0.00257475 0)
(-0.0281927 -0.00568309 0)
(-0.0246567 -0.0150884 0)
(-0.0179509 -0.0136271 0)
(-0.0181067 -0.0136651 0)
(-0.0179798 -0.0166678 0)
(-0.0160288 -0.0187421 0)
(-0.0140018 -0.0208078 0)
(-0.0117345 -0.0224472 0)
(-0.00940294 -0.0236205 0)
(-0.00722114 -0.0244171 0)
(-0.00520894 -0.0249097 0)
(-0.00334178 -0.0251884 0)
(-0.00161244 -0.0253536 0)
(-0.016126 0.0283593 0)
(-0.0193795 -0.0386803 0)
(0.00620949 -0.0169926 0)
(0.0303867 -0.0108663 0)
(0.0402197 -0.0238609 0)
(0.043222 -0.0251304 0)
(0.0576102 -0.0329286 0)
(0.0568554 -0.0202373 0)
(0.0846548 0.0059517 0)
(0.0574832 0.0679512 0)
(0.0136641 0.103016 0)
(-0.0140354 0.0756058 0)
(-0.0299479 0.0468298 0)
(-0.0311928 0.0241733 0)
(-0.0308425 0.0158419 0)
(-0.0295822 0.00881163 0)
(-0.0314647 0.00143897 0)
(-0.0318052 -0.00487773 0)
(-0.0307908 -0.0183645 0)
(-0.0225506 -0.0152415 0)
(-0.0189091 -0.0137623 0)
(-0.0194114 -0.0173719 0)
(-0.0172017 -0.0195954 0)
(-0.0151492 -0.0223426 0)
(-0.0124991 -0.0244028 0)
(-0.0099437 -0.0255876 0)
(-0.00763513 -0.0263754 0)
(-0.00553843 -0.0269288 0)
(-0.00360586 -0.0273018 0)
(-0.00181424 -0.0275452 0)
(-0.01778 0.0320207 0)
(-0.0222906 -0.0431112 0)
(0.00568937 -0.0164038 0)
(0.0310372 -0.0118547 0)
(0.0391782 -0.0257028 0)
(0.0370693 -0.025555 0)
(0.0370748 -0.0341185 0)
(0.0165641 -0.0200619 0)
(0.0638189 0.00571098 0)
(0.028515 0.0655846 0)
(0.0162232 0.114609 0)
(-0.0226254 0.0814453 0)
(-0.0398523 0.047125 0)
(-0.0402014 0.0220575 0)
(-0.0333615 0.0163118 0)
(-0.0336408 0.00905681 0)
(-0.0296345 0.000598101 0)
(-0.0370302 -0.00277071 0)
(-0.0314901 -0.0223208 0)
(-0.0297834 -0.0169198 0)
(-0.0199459 -0.0164123 0)
(-0.021071 -0.0177661 0)
(-0.018208 -0.0200799 0)
(-0.0160653 -0.0240924 0)
(-0.0131466 -0.0265935 0)
(-0.0101738 -0.0277733 0)
(-0.0074557 -0.028531 0)
(-0.00515484 -0.0290284 0)
(-0.00329791 -0.0293415 0)
(-0.00177707 -0.0295641 0)
(-0.0194666 0.0361234 0)
(-0.0259759 -0.048103 0)
(0.00435754 -0.0146316 0)
(0.0326706 -0.0138855 0)
(0.0363314 -0.0273223 0)
(0.0190756 -0.0238797 0)
(0.00421218 -0.0330694 0)
(-0.012882 -0.0212174 0)
(0.0273146 -0.00155724 0)
(-0.00140103 0.0628861 0)
(-0.0144067 0.120829 0)
(-0.0240646 0.0863903 0)
(-0.0446433 0.0478723 0)
(-0.0393003 0.0201051 0)
(-0.0353671 0.0155033 0)
(-0.0329788 0.00817199 0)
(-0.0284105 0.001393 0)
(-0.0361138 -0.00229544 0)
(-0.022879 -0.0254309 0)
(-0.0349646 -0.0152122 0)
(-0.0222027 -0.0225754 0)
(-0.0225327 -0.0181587 0)
(-0.0191642 -0.0202512 0)
(-0.0169697 -0.0263917 0)
(-0.0132432 -0.0293054 0)
(-0.00986343 -0.0303534 0)
(-0.00706595 -0.0309198 0)
(-0.00482389 -0.0311076 0)
(-0.00313652 -0.031086 0)
(-0.00184847 -0.0311205 0)
(-0.0210279 0.0407309 0)
(-0.0309228 -0.0537525 0)
(0.00101374 -0.0109694 0)
(0.0351683 -0.0180145 0)
(0.0319327 -0.0277959 0)
(-0.0149303 -0.0201833 0)
(0.0346319 -0.0338569 0)
(-0.0539869 -0.0187314 0)
(-0.354759 0.00389696 0)
(0.0199683 0.0788096 0)
(0.00538919 0.118704 0)
(-0.039475 0.0928048 0)
(-0.0517245 0.0491877 0)
(-0.051137 0.0171333 0)
(-0.0347739 0.0125196 0)
(-0.0264485 0.00635444 0)
(-0.0303811 0.00465878 0)
(-0.0274992 -0.00723337 0)
(-0.0165044 -0.0234156 0)
(-0.0350492 -0.0115612 0)
(-0.0204933 -0.0307612 0)
(-0.0229943 -0.0176518 0)
(-0.0180591 -0.020529 0)
(-0.0151816 -0.0302539 0)
(-0.0115038 -0.0320726 0)
(-0.00927441 -0.0325395 0)
(-0.00735279 -0.0329663 0)
(-0.00553924 -0.032979 0)
(-0.00388949 -0.0327472 0)
(-0.00238701 -0.0326744 0)
(-0.0223437 0.0459015 0)
(-0.037542 -0.0601045 0)
(0.00373674 -0.00569974 0)
(0.0158489 -0.0252165 0)
(0.0221848 -0.0249757 0)
(-0.0288092 -0.0224927 0)
(0.142967 -0.0199106 0)
(-0.868883 0.0193497 0)
(-0.593059 -0.0574287 0)
(-0.200565 0.0134777 0)
(-0.0769301 0.129618 0)
(-0.0464542 0.0962033 0)
(-0.0633901 0.0494801 0)
(-0.0607986 0.0138989 0)
(-0.0333625 0.00844266 0)
(-0.0323906 0.00495583 0)
(-0.0329489 0.00655027 0)
(-0.0141211 -0.0154606 0)
(-0.0227829 -0.0195555 0)
(-0.0317668 -0.00876628 0)
(-0.00971918 -0.0388304 0)
(-0.0213106 -0.0147529 0)
(-0.0128541 -0.0227002 0)
(-0.0104884 -0.0339847 0)
(-0.00924792 -0.0333376 0)
(-0.00898829 -0.0335332 0)
(-0.00779071 -0.0343301 0)
(-0.00634435 -0.034629 0)
(-0.00475708 -0.0346223 0)
(-0.00306646 -0.0347349 0)
(-0.0229351 0.0517015 0)
(-0.0442679 -0.0671134 0)
(-0.000528986 -0.00132655 0)
(-0.0117034 -0.0324932 0)
(0.002267 -0.010563 0)
(0.424891 -0.113331 0)
(0.866451 0.092445 0)
(-0.743088 0.0227414 0)
(-0.093126 0.0184831 0)
(-0.284701 -0.0154916 0)
(0.00206757 0.135531 0)
(-0.0761307 0.0983729 0)
(-0.0637204 0.053017 0)
(-0.0655589 0.00962955 0)
(-0.0450238 0.00182851 0)
(-0.0367131 0.00496617 0)
(-0.0383897 0.00419108 0)
(0.0090146 -0.018818 0)
(-0.0285157 -0.0140482 0)
(-0.0257588 -0.00916447 0)
(-0.00646044 -0.04223 0)
(-0.0181484 -0.0120875 0)
(-0.0078795 -0.0269935 0)
(-0.00618064 -0.0344578 0)
(-0.00765911 -0.0333907 0)
(-0.00716248 -0.0342344 0)
(-0.00530166 -0.0354681 0)
(-0.00429524 -0.0358885 0)
(-0.00370395 -0.0361088 0)
(-0.00309221 -0.0365473 0)
(-0.0224412 0.0581575 0)
(-0.048973 -0.0725051 0)
(0.0100039 -0.00236645 0)
(-0.012623 -0.031959 0)
(-0.190956 -0.0160517 0)
(1.16859 -0.172136 0)
(0.81541 0.159208 0)
(-0.237363 0.0725278 0)
(-0.43981 -0.0369359 0)
(-0.302175 -0.0744012 0)
(-0.0175235 0.112903 0)
(-0.0706894 0.0937124 0)
(-0.0867956 0.0536802 0)
(-0.0651939 0.00233831 0)
(-0.0397584 -0.00167147 0)
(-0.0453597 0.00551316 0)
(-0.0436553 -0.00184711 0)
(-0.0196889 -0.0290111 0)
(-0.0326087 -0.00624597 0)
(-0.0250378 -0.0133344 0)
(-0.0231364 -0.0413283 0)
(-0.012127 -0.0141816 0)
(-0.00943293 -0.0305702 0)
(-0.00586507 -0.0337463 0)
(-0.00554512 -0.0339155 0)
(-0.00166918 -0.0359801 0)
(0.00147085 -0.0363037 0)
(0.00137918 -0.0355094 0)
(-0.000560864 -0.0352357 0)
(-0.00284418 -0.0357786 0)
(-0.0195905 0.0652422 0)
(-0.0498151 -0.0773319 0)
(0.021582 -0.0104552 0)
(0.0131174 -0.0248443 0)
(0.203466 -0.0496101 0)
(0.81815 -0.141234 0)
(0.49995 0.180224 0)
(0.133176 0.158685 0)
(-0.301877 -0.0358521 0)
(-0.29135 -0.0855447 0)
(-0.175301 0.0771785 0)
(-0.111121 0.0924146 0)
(-0.0888206 0.0555922 0)
(-0.0733232 -0.00137541 0)
(-0.041988 -0.012891 0)
(-0.0420217 0.0120632 0)
(-0.0462414 1.96827e-05 0)
(-0.075318 -0.0410058 0)
(-0.0308145 -0.000920982 0)
(-0.0233265 -0.0194779 0)
(-0.0334418 -0.0413427 0)
(-0.00363771 -0.0200262 0)
(-0.0152669 -0.0319593 0)
(-0.0126264 -0.0359066 0)
(-0.0133909 -0.0390869 0)
(-0.00195609 -0.0461542 0)
(0.00587764 -0.0430927 0)
(0.00745178 -0.0386506 0)
(0.00431982 -0.0373779 0)
(-0.000266325 -0.0382476 0)
(-0.0134833 0.0726775 0)
(-0.0616886 -0.0780481 0)
(0.0711846 -0.0192104 0)
(0.0168036 -0.00931606 0)
(0.364721 -0.135566 0)
(0.516589 -0.104022 0)
(0.199967 0.160581 0)
(0.418965 0.230134 0)
(-0.067322 -0.00382848 0)
(-0.267169 -0.0432125 0)
(-0.241198 0.0177761 0)
(-0.130579 0.1057 0)
(-0.0779531 0.05392 0)
(-0.101522 0.00465124 0)
(-0.0633577 -0.0396239 0)
(-0.0580423 0.0255265 0)
(-0.06566 0.00622935 0)
(-0.068017 -0.0634841 0)
(-0.00661502 0.0012392 0)
(-0.00137767 -0.0276016 0)
(-0.0324544 -0.0382497 0)
(-0.0256679 -0.0260423 0)
(-0.00595733 -0.0350934 0)
(0.134322 -0.0322389 0)
(0.005956 -0.122973 0)
(0.0200963 0.0112924 0)
(0.00441263 -0.0206019 0)
(-0.0074085 -0.0275618 0)
(-0.00913021 -0.027733 0)
(-0.00934252 -0.027303 0)
(-0.00371765 0.079571 0)
(-0.0478193 -0.0769298 0)
(-0.0128287 -0.0292673 0)
(-0.0965523 -0.0167352 0)
(1.47763 -0.272459 0)
(0.384784 -0.0862873 0)
(0.0693892 0.112858 0)
(0.588666 0.28093 0)
(0.155865 0.0621462 0)
(-0.479678 -0.0142081 0)
(-0.234315 -0.00964641 0)
(-0.020746 0.113261 0)
(-0.117986 0.0480557 0)
(-0.12336 0.00985203 0)
(-0.130876 -0.0448135 0)
(-0.0412179 0.0183448 0)
(-0.0695281 0.00831698 0)
(-0.0193333 -0.0642931 0)
(-0.0169001 -0.0136946 0)
(0.0268576 -0.041404 0)
(0.0417761 -0.0276408 0)
(0.125611 -0.108271 0)
(0.152601 -0.0395998 0)
(0.0449497 -0.0150651 0)
(0.0174547 -0.0236689 0)
(-0.0239752 -0.00870676 0)
(-0.0226478 -0.0207922 0)
(-0.0258055 -0.0269287 0)
(-0.0297503 -0.0270151 0)
(-0.0330348 -0.0272193 0)
(0.000309592 -2.30444e-05 0)
(0.000847815 -2.34171e-05 0)
(0.00144552 -2.43425e-05 0)
(0.00211088 -2.61926e-05 0)
(0.00285417 -2.86405e-05 0)
(0.00368616 -3.18119e-05 0)
(0.00461706 -3.52334e-05 0)
(0.00565172 -3.854e-05 0)
(0.00678858 -4.16787e-05 0)
(0.00801953 -4.51661e-05 0)
(0.00933305 -4.99894e-05 0)
(0.0107173 -5.71983e-05 0)
(0.0121613 -6.7825e-05 0)
(0.0136564 -8.28976e-05 0)
(0.015192 -0.000102502 0)
(0.0167496 -0.000124077 0)
(0.0182242 -0.000143874 0)
(0.0192601 -0.00014982 0)
(0.0188666 -0.000103033 0)
(0.0152803 2.39554e-05 0)
(0.00657583 0.000228088 0)
(-0.00602832 0.000333859 0)
(-0.0172866 0.000286564 0)
(-0.0239616 0.00015983 0)
(-0.0260038 6.38403e-05 0)
(-0.0243663 -9.8618e-06 0)
(-0.0200744 -4.19444e-05 0)
(-0.0151576 -3.12584e-05 0)
(-0.0091829 -2.99973e-05 0)
(-0.00202791 -5.87092e-05 0)
(0.000481492 -0.00159842 0)
(0.00175629 -0.00159975 0)
(0.00317791 -0.00160368 0)
(0.00477008 -0.00161078 0)
(0.00656169 -0.00162012 0)
(0.00858097 -0.00162904 0)
(0.0108504 -0.00163019 0)
(0.0133748 -0.00161431 0)
(0.0161369 -0.0015724 0)
(0.0190866 -0.00149922 0)
(0.0221383 -0.00139085 0)
(0.025153 -0.00124537 0)
(0.0279203 -0.00105802 0)
(0.03012 -0.00082328 0)
(0.0312932 -0.000532478 0)
(0.0308332 -0.000180625 0)
(0.027958 0.000254425 0)
(0.0216969 0.000883303 0)
(0.0105452 0.00186842 0)
(-0.00678391 0.00303531 0)
(-0.0291443 0.00375574 0)
(-0.0493488 0.00303751 0)
(-0.0607991 0.00167955 0)
(-0.0629764 0.00039303 0)
(-0.0579848 -0.000381783 0)
(-0.0479987 -0.00084868 0)
(-0.0352564 -0.000966238 0)
(-0.0224376 -0.000840117 0)
(-0.00956566 -0.000606856 0)
(0.00201549 -0.000439658 0)
(0.00032403 -0.00278312 0)
(0.00097025 -0.00279651 0)
(0.00171256 -0.00282802 0)
(0.00258778 -0.00287951 0)
(0.00363682 -0.00294474 0)
(0.00489476 -0.00301062 0)
(0.00638022 -0.00305447 0)
(0.00808554 -0.00305228 0)
(0.00997748 -0.00298469 0)
(0.0119975 -0.0028397 0)
(0.0140604 -0.00260659 0)
(0.01604 -0.00227387 0)
(0.0177418 -0.00181997 0)
(0.0188597 -0.0012186 0)
(0.018924 -0.000441917 0)
(0.0172904 0.000521533 0)
(0.0131424 0.00166175 0)
(0.00544494 0.00311743 0)
(-0.00690503 0.00499717 0)
(-0.0241231 0.00679685 0)
(-0.043822 0.00727931 0)
(-0.0593488 0.0051319 0)
(-0.0669413 0.0024057 0)
(-0.0661918 8.18997e-06 0)
(-0.0589544 -0.00136166 0)
(-0.0471217 -0.00213889 0)
(-0.0329491 -0.00224156 0)
(-0.0192115 -0.00190272 0)
(-0.00600172 -0.00129279 0)
(0.00482781 -0.000622309 0)
(0.000292286 -0.00341773 0)
(0.000805181 -0.00344957 0)
(0.00139933 -0.00352714 0)
(0.00210712 -0.00364795 0)
(0.00296027 -0.00379402 0)
(0.00397811 -0.00393332 0)
(0.00515811 -0.00402387 0)
(0.0064717 -0.00402926 0)
(0.00786997 -0.00392678 0)
(0.00928833 -0.00370602 0)
(0.0106467 -0.00335807 0)
(0.01184 -0.00286604 0)
(0.0127194 -0.00219717 0)
(0.0130602 -0.00130385 0)
(0.0125172 -0.000137548 0)
(0.0105742 0.00133149 0)
(0.00651374 0.00309723 0)
(-0.000744918 0.00528616 0)
(-0.0122008 0.00791272 0)
(-0.0280078 0.0101766 0)
(-0.0460673 0.0103216 0)
(-0.0603665 0.00685975 0)
(-0.0672861 0.00293714 0)
(-0.0660471 -0.00050333 0)
(-0.0584685 -0.00242319 0)
(-0.0463815 -0.00348467 0)
(-0.0320017 -0.00354669 0)
(-0.0182302 -0.00297508 0)
(-0.00502259 -0.00197315 0)
(0.00568483 -0.000712677 0)
(0.000333836 -0.0041579 0)
(0.00102241 -0.00420151 0)
(0.00179252 -0.00430488 0)
(0.0026562 -0.0044613 0)
(0.0036226 -0.00464276 0)
(0.00469021 -0.00480273 0)
(0.00584615 -0.0048878 0)
(0.00706304 -0.00485557 0)
(0.00830225 -0.00468358 0)
(0.00951062 -0.00436355 0)
(0.0106175 -0.00388814 0)
(0.0115243 -0.00323614 0)
(0.0120948 -0.00236913 0)
(0.0121298 -0.00122406 0)
(0.0113369 0.000263139 0)
(0.00928049 0.00214682 0)
(0.00531566 0.00446049 0)
(-0.00165111 0.00731748 0)
(-0.0126971 0.0106504 0)
(-0.0282176 0.0134117 0)
(-0.0464497 0.013315 0)
(-0.0610188 0.00854595 0)
(-0.0678231 0.00345172 0)
(-0.0663153 -0.00104753 0)
(-0.0585542 -0.00350567 0)
(-0.0463409 -0.0048455 0)
(-0.0318382 -0.00485866 0)
(-0.0180702 -0.00404762 0)
(-0.00480937 -0.00265505 0)
(0.00606793 -0.00078738 0)
(0.000369062 -0.00514176 0)
(0.0012174 -0.00518345 0)
(0.00214751 -0.00528032 0)
(0.00315394 -0.00542275 0)
(0.00422783 -0.00557949 0)
(0.00535634 -0.00570128 0)
(0.00652517 -0.00573387 0)
(0.00771694 -0.00563411 0)
(0.0089089 -0.00537811 0)
(0.0100624 -0.00495469 0)
(0.0111165 -0.00435167 0)
(0.0119766 -0.003543 0)
(0.0125063 -0.00248294 0)
(0.012506 -0.00109592 0)
(0.0116875 0.000690551 0)
(0.00964268 0.00296337 0)
(0.00576483 0.00579049 0)
(-0.00107608 0.00929422 0)
(-0.0120876 0.0133618 0)
(-0.0278847 0.0167064 0)
(-0.0468805 0.0164345 0)
(-0.0619514 0.0102404 0)
(-0.0685942 0.00396395 0)
(-0.0667408 -0.00162822 0)
(-0.0587699 -0.00460907 0)
(-0.0464169 -0.00621941 0)
(-0.0317783 -0.00617686 0)
(-0.0180265 -0.00512013 0)
(-0.00470195 -0.0033397 0)
(0.00643615 -0.000859509 0)
(0.000382652 -0.0062773 0)
(0.00131021 -0.00630999 0)
(0.00232074 -0.0063799 0)
(0.00340193 -0.00647818 0)
(0.0045375 -0.00657557 0)
(0.00571057 -0.00662759 0)
(0.00690764 -0.00658467 0)
(0.00811656 -0.00640577 0)
(0.00932204 -0.0060635 0)
(0.0104927 -0.0055399 0)
(0.0115728 -0.00481475 0)
(0.0124714 -0.00385375 0)
(0.0130521 -0.00260414 0)
(0.0131138 -0.000977028 0)
(0.0123609 0.00110717 0)
(0.0103952 0.00376417 0)
(0.00663413 0.0070933 0)
(-0.000123772 0.0112474 0)
(-0.0112258 0.0161076 0)
(-0.0274854 0.0201287 0)
(-0.0474694 0.0197279 0)
(-0.0631336 0.0119337 0)
(-0.0695308 0.00447433 0)
(-0.0672499 -0.00225736 0)
(-0.0590348 -0.00573793 0)
(-0.0465159 -0.0076083 0)
(-0.0317112 -0.00750207 0)
(-0.0179861 -0.00619185 0)
(-0.00458774 -0.00402761 0)
(0.00688036 -0.000930076 0)
(0.000382027 -0.00747557 0)
(0.00133869 -0.00749645 0)
(0.00238225 -0.0075354 0)
(0.00349958 -0.00758194 0)
(0.00467475 -0.0076112 0)
(0.00589094 -0.0075853 0)
(0.00713464 -0.0074611 0)
(0.00839286 -0.00719978 0)