/*--------------------------------*- C++ -*----------------------------------*\
| =========                 |                                                 |
| \\      /  F ield         | OpenFOAM: The Open Source CFD Toolbox           |
|  \\    /   O peration     | Version:  2.4.0                                 |
|   \\  /    A nd           | Web:      www.OpenFOAM.org                      |
|    \\/     M anipulation  |                                                 |
\*---------------------------------------------------------------------------*/
FoamFile
{
    version     2.0;
    format      ascii;
    class       surfaceScalarField;
    location    "0.13";
    object      phi;
}
// * * * * * * * * * * * * * * * * * * * * * * * * * * * * * * * * * * * * * //

dimensions      [0 3 -1 0 0 0 0];

internalField   nonuniform List<scalar> 
19800
(
1.23597e-13
-1.23597e-13
-2.23035e-15
1.27801e-13
-7.8734e-13
7.72566e-13
-2.27476e-12
1.48407e-12
-4.39486e-12
2.12266e-12
-7.02615e-12
2.63426e-12
-1.00409e-11
3.01637e-12
-1.33208e-11
3.28064e-12
-1.67608e-11
3.43999e-12
-2.02671e-11
3.50573e-12
-2.37555e-11
3.48736e-12
-2.71491e-11
3.39273e-12
-3.03773e-11
3.22822e-12
-3.33755e-11
2.99906e-12
-3.60844e-11
2.70995e-12
-3.84499e-11
2.36581e-12
-4.04227e-11
1.97213e-12
-4.19587e-11
1.5349e-12
-4.30199e-11
1.06015e-12
-4.35739e-11
5.53621e-13
-4.35932e-11
1.93682e-14
-4.30561e-11
-5.37084e-13
-4.19455e-11
-1.11094e-12
-4.02514e-11
-1.69456e-12
-3.79748e-11
-2.2767e-12
-3.5133e-11
-2.84118e-12
-3.17653e-11
-3.36638e-12
-2.7938e-11
-3.82612e-12
-2.37451e-11
-4.19242e-12
-1.93053e-11
-4.44033e-12
-1.47527e-11
-4.55368e-12
-1.02239e-11
-4.52969e-12
-5.84451e-12
-4.37955e-12
-1.71941e-12
-4.12459e-12
2.07082e-12
-3.7895e-12
5.46645e-12
-3.39516e-12
8.42188e-12
-2.95534e-12
1.08987e-11
-2.47686e-12
1.2861e-11
-1.96208e-12
1.42736e-11
-1.41205e-12
1.51036e-11
-8.29458e-13
1.53264e-11
-2.22525e-13
1.49188e-11
4.07494e-13
1.38834e-11
1.03521e-12
1.22332e-11
1.65031e-12
1.0001e-11
2.23264e-12
7.23991e-12
2.76183e-12
4.02232e-12
3.21818e-12
4.38423e-13
3.58397e-12
3.84449e-12
-3.40649e-12
-5.90838e-14
-6.53777e-14
-9.74758e-13
1.06581e-12
-3.38393e-12
3.18629e-12
-7.42522e-12
5.5226e-12
-1.29485e-11
7.64411e-12
-1.97002e-11
9.38696e-12
-2.73972e-11
1.07154e-11
-3.576e-11
1.16443e-11
-4.4525e-11
1.2204e-11
-5.34479e-11
1.24268e-11
-6.23042e-11
1.23424e-11
-7.08879e-11
1.19767e-11
-7.9011e-11
1.13527e-11
-8.65019e-11
1.04914e-11
-9.32048e-11
9.41321e-12
-9.89789e-11
8.13888e-12
-1.03698e-10
6.68992e-12
-1.07253e-10
5.08786e-12
-1.09546e-10
3.35342e-12
-1.10498e-10
1.50584e-12
-1.10042e-10
-4.37085e-13
-1.08122e-10
-2.45699e-12
-1.04702e-10
-4.5325e-12
-9.97612e-11
-6.63504e-12
-9.3313e-11
-8.72379e-12
-8.54109e-11
-1.07413e-11
-7.61642e-11
-1.26113e-11
-6.57477e-11
-1.42421e-11
-5.44046e-11
-1.55365e-11
-4.24384e-11
-1.64083e-11
-3.01911e-11
-1.68023e-11
-1.80118e-11
-1.67092e-11
-6.22356e-12
-1.61669e-11
4.89938e-12
-1.52464e-11
1.51406e-11
-1.40301e-11
2.43332e-11
-1.25876e-11
3.23438e-11
-1.09659e-11
3.90565e-11
-9.18914e-12
4.43625e-11
-7.26704e-12
4.81565e-11
-5.20511e-12
5.03416e-11
-3.01407e-12
5.08352e-11
-7.16243e-13
4.95898e-11
1.65265e-12
4.65865e-11
4.03872e-12
4.18578e-11
6.37995e-12
3.54872e-11
8.60444e-12
2.76129e-11
1.0637e-11
1.84267e-11
1.24045e-11
8.16921e-12
1.38405e-11
1.48897e-11
-2.87767e-12
-6.72815e-13
5.94895e-13
-3.04253e-12
3.43876e-12
-7.59083e-12
7.73872e-12
-1.43821e-11
1.23151e-11
-2.32103e-11
1.64723e-11
-3.37402e-11
1.9917e-11
-4.55904e-11
2.25658e-11
-5.83737e-11
2.44271e-11
-7.1714e-11
2.55433e-11
-8.5255e-11
2.59667e-11
-9.86624e-11
2.57497e-11
-1.11626e-10
2.49414e-11
-1.2386e-10
2.35879e-11
-1.35101e-10
2.17341e-11
-1.45113e-10
1.9425e-11
-1.53682e-10
1.67069e-11
-1.60619e-10
1.36268e-11
-1.65763e-10
1.02316e-11
-1.68975e-10
6.56626e-12
-1.70142e-10
2.67284e-12
-1.6917e-10
-1.40929e-12
-1.65987e-10
-5.6411e-12
-1.60542e-10
-9.97831e-12
-1.52814e-10
-1.43634e-11
-1.42821e-10
-1.87145e-11
-1.30645e-10
-2.29155e-11
-1.16445e-10
-2.68106e-11
-1.00478e-10
-3.02097e-11
-8.31065e-11
-3.29094e-11
-6.47889e-11
-3.47273e-11
-4.60469e-11
-3.55447e-11
-2.74159e-11
-3.53397e-11
-9.39222e-12
-3.41897e-11
7.60466e-12
-3.22427e-11
2.32423e-11
-2.96678e-11
3.72616e-11
-2.6607e-11
4.94499e-11
-2.31539e-11
5.96172e-11
-1.93555e-11
6.75814e-11
-1.52301e-11
7.3166e-11
-1.07889e-11
7.62078e-11
-6.05587e-12
7.65709e-11
-1.0798e-12
7.41667e-11
4.05675e-12
6.89662e-11
9.23986e-12
6.10135e-11
1.43339e-11
5.0437e-11
1.9182e-11
3.74517e-11
2.36225e-11
2.23579e-11
2.74978e-11
5.53293e-12
3.06647e-11
3.30023e-11
-1.25806e-11
-1.36257e-12
1.95459e-12
-5.36753e-12
7.43976e-12
-1.21727e-11
1.45446e-11
-2.17056e-11
2.18493e-11
-3.36724e-11
2.84397e-11
-4.7664e-11
3.39085e-11
-6.32249e-11
3.81261e-11
-7.98889e-11
4.10902e-11
-9.71975e-11
4.28513e-11
-1.1471e-10
4.34789e-11
-1.32006e-10
4.30474e-11
-1.48695e-10
4.16309e-11
-1.64409e-10
3.93029e-11
-1.78812e-10
3.61375e-11
-1.91598e-10
3.22115e-11
-2.02496e-10
2.76043e-11
-2.11266e-10
2.23976e-11
-2.17707e-10
1.66732e-11
-2.2165e-10
1.05099e-11
-2.22959e-10
3.98147e-12
-2.21525e-10
-2.84455e-12
-2.17263e-10
-9.90394e-12
-2.10114e-10
-1.71279e-11
-2.00048e-10
-2.44286e-11
-1.87081e-10
-3.168e-11
-1.71298e-10
-3.86973e-11
-1.52884e-10
-4.52247e-11
-1.32152e-10
-5.0942e-11
-1.09566e-10
-5.54967e-11
-8.5729e-11
-5.85651e-11
-6.13423e-11
-5.99314e-11
-3.71296e-11
-5.95519e-11
-1.37561e-11
-5.7563e-11
8.22868e-12
-5.42277e-11
2.84002e-11
-4.98396e-11
4.64325e-11
-4.46391e-11
6.20533e-11
-3.87738e-11
7.50092e-11
-3.23101e-11
8.50472e-11
-2.52671e-11
9.19158e-11
-1.76573e-11
9.5379e-11
-9.51944e-12
9.52376e-11
-9.38737e-13
9.13595e-11
7.93519e-12
8.3692e-11
1.69084e-11
7.22896e-11
2.57375e-11
5.73215e-11
3.4151e-11
3.90763e-11
4.18674e-11
1.79599e-11
4.86136e-11
-5.51595e-12
5.41404e-11
5.82379e-11
-3.07512e-11
-2.01351e-12
3.97042e-12
-7.56427e-12
1.29878e-11
-1.65295e-11
2.35093e-11
-2.86581e-11
3.39784e-11
-4.35448e-11
4.33267e-11
-6.07002e-11
5.10636e-11
-7.96003e-11
5.70256e-11
-9.97139e-11
6.12034e-11
-1.20517e-10
6.36547e-11
-1.41503e-10
6.44649e-11
-1.62185e-10
6.373e-11
-1.82103e-10
6.15498e-11
-2.00828e-10
5.80273e-11
-2.1796e-10
5.32699e-11
-2.3314e-10
4.73908e-11
-2.46044e-10
4.05099e-11
-2.56397e-10
3.27518e-11
-2.63966e-10
2.42429e-11
-2.68562e-10
1.51059e-11
-2.70036e-10
5.45457e-12
-2.68272e-10
-4.6101e-12
-2.63178e-10
-1.49983e-11
-2.54685e-10
-2.56209e-11
-2.42744e-10
-3.63679e-11
-2.27347e-10
-4.70759e-11
-2.08552e-10
-5.74912e-11
-1.86534e-10
-6.72436e-11
-1.61631e-10
-7.58463e-11
-1.34387e-10
-8.27411e-11
-1.05557e-10
-8.73959e-11
-7.60451e-11
-8.9443e-11
-4.67928e-11
-8.88044e-11
-1.8648e-11
-8.57081e-11
7.71845e-12
-8.05946e-11
3.18221e-11
-7.39433e-11
5.33062e-11
-6.61226e-11
7.18672e-11
-5.73336e-11
8.72026e-11
-4.76442e-11
9.89901e-11
-3.7054e-11
1.06895e-10
-2.55623e-11
1.10596e-10
-1.32206e-11
1.09813e-10
-1.56536e-13
1.0436e-10
1.33892e-11
9.41504e-11
2.71192e-11
7.92403e-11
4.06486e-11
5.98356e-11
5.35561e-11
3.62978e-11
6.54051e-11
9.13883e-12
7.57722e-11
-2.09933e-11
8.42729e-11
9.05826e-11
-5.33372e-11
-2.57752e-12
6.55018e-12
-9.52333e-12
1.99344e-11
-2.04785e-11
3.44647e-11
-3.50171e-11
4.85171e-11
-5.26134e-11
6.09228e-11
-7.26908e-11
7.11408e-11
-9.46566e-11
7.89913e-11
-1.17919e-10
8.44664e-11
-1.41899e-10
8.76346e-11
-1.66032e-10
8.85983e-11
-1.89778e-10
8.74751e-11
-2.1262e-10
8.43912e-11
-2.34074e-10
7.94804e-11
-2.53689e-10
7.28852e-11
-2.71058e-10
6.47601e-11
-2.85819e-10
5.52712e-11
-2.97661e-10
4.45953e-11
-3.06332e-10
3.29136e-11
-3.11629e-10
2.04035e-11
-3.13403e-10
7.22758e-12
-3.11539e-10
-6.47519e-12
-3.05944e-10
-2.05922e-11
-2.96539e-10
-3.50258e-11
-2.83242e-10
-4.96636e-11
-2.65989e-10
-6.43275e-11
-2.4477e-10
-7.871e-11
-2.19695e-10
-9.23194e-11
-1.9108e-10
-1.04461e-10
-1.59531e-10
-1.14291e-10
-1.25966e-10
-1.20961e-10
-9.15504e-11
-1.23859e-10
-5.75027e-11
-1.22852e-10
-2.4892e-11
-1.18319e-10
5.4998e-12
-1.10987e-10
3.31736e-11
-1.01617e-10
5.77966e-11
-9.07447e-11
7.90717e-11
-7.86075e-11
9.66628e-11
-6.52344e-11
1.10174e-10
-5.0565e-11
1.19171e-10
-3.45596e-11
1.23223e-10
-1.72731e-11
1.21959e-10
1.10744e-12
1.15101e-10
2.02479e-11
1.02526e-10
3.96956e-11
8.42794e-11
5.88962e-11
6.05988e-11
7.72369e-11
3.19179e-11
9.40859e-11
-1.14209e-12
1.08832e-10
-3.77909e-11
1.20922e-10
1.2989e-10
-7.70975e-11
-3.06059e-12
9.61184e-12
-1.12547e-11
2.8131e-11
-2.40322e-11
4.72431e-11
-4.08112e-11
6.52961e-11
-6.09477e-11
8.10591e-11
-8.37761e-11
9.39692e-11
-1.08633e-10
1.03849e-10
-1.34869e-10
1.10703e-10
-1.61851e-10
1.14616e-10
-1.88965e-10
1.15712e-10
-2.15621e-10
1.1413e-10
-2.41255e-10
1.10024e-10
-2.65333e-10
1.03558e-10
-2.87359e-10
9.49109e-11
-3.06881e-10
8.42824e-11
-3.235e-10
7.18913e-11
-3.3688e-10
5.79753e-11
-3.46749e-10
4.27827e-11
-3.52903e-10
2.65582e-11
-3.55201e-10
9.52508e-12
-3.53543e-10
-8.13357e-12
-3.47848e-10
-2.62866e-11
-3.38025e-10
-4.48477e-11
-3.2395e-10
-6.37379e-11
-3.05467e-10
-8.28098e-11
-2.82435e-10
-1.01741e-10
-2.54827e-10
-1.19928e-10
-2.22865e-10
-1.36424e-10
-1.87174e-10
-1.49984e-10
-1.48868e-10
-1.59268e-10
-1.0947e-10
-1.63258e-10
-7.05895e-11
-1.61733e-10
-3.35835e-11
-1.55325e-10
6.70328e-13
-1.4524e-10
3.1737e-11
-1.32683e-10
5.9392e-11
-1.18399e-10
8.33932e-11
-1.02608e-10
1.03382e-10
-8.52222e-11
1.18872e-10
-6.60553e-11
1.293e-10
-4.49883e-11
1.34095e-10
-2.20685e-11
1.32753e-10
2.44974e-12
1.24898e-10
2.81042e-11
1.10339e-10
5.42553e-11
8.91052e-11
8.01312e-11
6.14605e-11
1.04882e-10
2.79122e-11
1.27634e-10
-1.08024e-11
1.47547e-10
-5.37401e-11
1.6386e-10
1.75936e-10
-9.97865e-11
-3.48202e-12
1.30947e-11
-1.28081e-11
3.74593e-11
-2.72732e-11
6.1709e-11
-4.61616e-11
8.41845e-11
-6.87198e-11
1.03617e-10
-9.41949e-11
1.19445e-10
-1.21854e-10
1.31508e-10
-1.50989e-10
1.39837e-10
-1.80915e-10
1.44541e-10
-2.10972e-10
1.45768e-10
-2.40524e-10
1.43681e-10
-2.68961e-10
1.3846e-10
-2.95703e-10
1.30299e-10
-3.20208e-10
1.19416e-10
-3.41981e-10
1.06056e-10
-3.60586e-10
9.04962e-11
-3.75655e-10
7.30457e-11
-3.86905e-10
5.40333e-11
-3.94135e-10
3.3789e-11
-3.97225e-10
1.26147e-11
-3.96109e-10
-9.25003e-12
-3.90738e-10
-3.16579e-11
-3.81025e-10
-5.45602e-11
-3.66794e-10
-7.79672e-11
-3.47763e-10
-1.01841e-10
-3.23583e-10
-1.25921e-10
-2.93979e-10
-1.49532e-10
-2.58965e-10
-1.7144e-10
-2.19112e-10
-1.89838e-10
-1.75769e-10
-2.02611e-10
-1.30987e-10
-2.08039e-10
-8.69578e-11
-2.05762e-10
-4.5437e-11
-1.96846e-10
-7.36157e-12
-1.83316e-10
2.70394e-11
-1.67084e-10
5.77822e-11
-1.49141e-10
8.47351e-11
-1.2956e-10
1.07511e-10
-1.07998e-10
1.25497e-10
-8.40411e-11
1.37949e-10
-5.74409e-11
1.44108e-10
-2.82274e-11
1.433e-10
3.25843e-12
1.35018e-10
3.63865e-11
1.18991e-10
7.02833e-11
9.52174e-11
1.03906e-10
6.39883e-11
1.36112e-10
2.58895e-11
1.65733e-10
-1.82141e-11
1.9165e-10
-6.72093e-11
2.12854e-10
2.28504e-10
-1.19778e-10
-3.86229e-12
1.69578e-11
-1.42384e-11
4.78364e-11
-3.02963e-11
7.77671e-11
-5.12057e-11
1.05094e-10
-7.6115e-11
1.28527e-10
-1.04189e-10
1.47519e-10
-1.34627e-10
1.61946e-10
-1.66663e-10
1.71873e-10
-1.99564e-10
1.77441e-10
-2.32624e-10
1.78827e-10
-2.65162e-10
1.76218e-10
-2.96523e-10
1.69821e-10
-3.26081e-10
1.59858e-10
-3.53245e-10
1.4658e-10
-3.77472e-10
1.30282e-10
-3.98278e-10
1.11303e-10
-4.15262e-10
9.00314e-11
-4.28123e-10
6.68949e-11
-4.36666e-10
4.23331e-11
-4.40808e-10
1.67555e-11
-4.40542e-10
-9.51648e-12
-4.35888e-10
-3.63124e-11
-4.26797e-10
-6.36501e-11
-4.13057e-10
-9.17068e-11
-3.94221e-10
-1.20676e-10
-3.69645e-10
-1.50497e-10
-3.38656e-10
-1.80523e-10
-3.00871e-10
-2.09226e-10
-2.56663e-10
-2.34046e-10
-2.07657e-10
-2.51616e-10
-1.56726e-10
-2.5897e-10
-1.06954e-10
-2.55534e-10
-6.06714e-11
-2.43128e-10
-1.87869e-11
-2.25201e-10
1.89369e-11
-2.04808e-10
5.29636e-11
-1.83167e-10
8.33147e-11
-1.59911e-10
1.09532e-10
-1.34216e-10
1.30795e-10
-1.05304e-10
1.46104e-10
-7.27507e-11
1.5445e-10
-3.65733e-11
1.54943e-10
2.7659e-12
1.46919e-10
4.44112e-11
1.30006e-10
8.71972e-11
1.0417e-10
1.29743e-10
6.97304e-11
1.70552e-10
2.73643e-11
2.081e-10
-2.1918e-11
2.40932e-10
-7.68097e-11
2.67745e-10
2.87455e-10
-1.35762e-10
-4.21845e-12
2.11768e-11
-1.55926e-11
5.92105e-11
-3.31838e-11
9.53584e-11
-5.60637e-11
1.27974e-10
-8.32931e-11
1.55757e-10
-1.13961e-10
1.78188e-10
-1.47203e-10
1.95188e-10
-1.82199e-10
2.06868e-10
-2.18168e-10
2.1341e-10
-2.5436e-10
2.15019e-10
-2.90052e-10
2.11911e-10
-3.24543e-10
2.04313e-10
-3.57157e-10
1.92471e-10
-3.87246e-10
1.7667e-10
-4.14207e-10
1.57243e-10
-4.375e-10
1.34596e-10
-4.56671e-10
1.09205e-10
-4.7139e-10
8.1614e-11
-4.81464e-10
5.24072e-11
-4.86858e-10
2.21476e-11
-4.87661e-10
-8.71428e-12
-4.84018e-10
-3.99554e-11
-4.75988e-10
-7.16795e-11
-4.63365e-10
-1.04328e-10
-4.45534e-10
-1.38507e-10
-4.21454e-10
-1.74578e-10
-3.89853e-10
-2.12125e-10
-3.49665e-10
-2.49415e-10
-3.00781e-10
-2.8293e-10
-2.45111e-10
-3.07286e-10
-1.86853e-10
-3.17227e-10
-1.30485e-10
-3.11901e-10
-7.91771e-11
-2.94437e-10
-3.36033e-11
-2.70775e-10
7.41595e-12
-2.45827e-10
4.50931e-11
-2.20844e-10
7.95786e-11
-1.94396e-10
1.10216e-10
-1.64853e-10
1.35839e-10
-1.30926e-10
1.55087e-10
-9.19992e-11
1.66628e-10
-4.8114e-11
1.69313e-10
8.10466e-14
1.62295e-10
5.14301e-11
1.45094e-10
1.04399e-10
1.17643e-10
1.57195e-10
8.03042e-11
2.07891e-10
3.38613e-11
2.54543e-10
-2.05045e-11
2.95298e-10
-8.1261e-11
3.28501e-10
3.52785e-10
-1.46591e-10
-4.56265e-12
2.57396e-11
-1.69052e-11
7.15531e-11
-3.59977e-11
1.14451e-10
-6.08257e-11
1.52803e-10
-9.03725e-11
1.85305e-10
-1.23659e-10
2.11474e-10
-1.59762e-10
2.3129e-10
-1.97812e-10
2.44917e-10
-2.36983e-10
2.52582e-10
-2.76487e-10
2.54524e-10
-3.15556e-10
2.50982e-10
-3.53445e-10
2.42202e-10
-3.8942e-10
2.28447e-10
-4.22771e-10
2.1002e-10
-4.52819e-10
1.87291e-10
-4.78942e-10
1.6072e-10
-5.00612e-10
1.30876e-10
-5.17438e-10
9.84403e-11
-5.29215e-10
6.41826e-11
-5.35956e-10
2.88872e-11
-5.37888e-10
-6.78214e-12
-5.35366e-10
-4.24768e-11
-5.28671e-10
-7.83738e-11
-5.17712e-10
-1.15287e-10
-5.01734e-10
-1.54485e-10
-4.79221e-10
-1.97092e-10
-4.48077e-10
-2.4327e-10
-4.06129e-10
-2.91363e-10
-3.52231e-10
-3.36828e-10
-2.88477e-10
-3.71039e-10
-2.21299e-10
-3.84406e-10
-1.57313e-10
-3.75888e-10
-1.0089e-10
-3.5086e-10
-5.20373e-11
-3.19628e-10
-7.76549e-12
-2.90099e-10
3.42489e-11
-2.62858e-10
7.40624e-11
-2.34209e-10
1.10548e-10
-2.01339e-10
1.4198e-10
-1.62359e-10
1.66516e-10
-1.16535e-10
1.82432e-10
-6.403e-11
1.8829e-10
-5.77756e-12
1.83051e-10
5.66704e-11
1.66129e-10
1.21321e-10
1.37439e-10
1.85885e-10
9.74001e-11
2.4793e-10
4.69293e-11
3.05014e-10
-1.25893e-11
3.54817e-10
-7.93589e-11
3.95271e-10
4.24674e-10
-1.51249e-10
-4.90225e-12
3.06418e-11
-1.8198e-11
8.48497e-11
-3.87765e-11
1.35031e-10
-6.55469e-11
1.79575e-10
-9.74237e-11
2.17182e-10
-1.33368e-10
2.47418e-10
-1.72404e-10
2.70326e-10
-2.13619e-10
2.86132e-10
-2.5615e-10
2.95114e-10
-2.99171e-10
2.97546e-10
-3.41878e-10
2.9369e-10
-3.83476e-10
2.838e-10
-4.23175e-10
2.68145e-10
-4.60188e-10
2.47033e-10
-4.93743e-10
2.20846e-10
-5.23107e-10
1.90086e-10
-5.47636e-10
1.55405e-10
-5.66832e-10
1.17636e-10
-5.80431e-10
7.77807e-11
-5.88481e-10
3.69365e-11
-5.9138e-10
-3.88332e-12
-5.898e-10
-4.4056e-11
-5.84425e-10
-8.37485e-11
-5.75468e-10
-1.24243e-10
-5.62147e-10
-1.67806e-10
-5.42448e-10
-2.16793e-10
-5.13262e-10
-2.72457e-10
-4.70769e-10
-3.33856e-10
-4.11754e-10
-3.95843e-10
-3.38094e-10
-4.44699e-10
-2.60135e-10
-4.62365e-10
-1.87606e-10
-4.48416e-10
-1.26471e-10
-4.11996e-10
-7.52267e-11
-3.70872e-10
-2.7569e-11
-3.37757e-10
2.01831e-11
-3.1061e-10
6.72933e-11
-2.81319e-10
1.11691e-10
-2.45737e-10
1.50822e-10
-2.0149e-10
1.82268e-10
-1.47981e-10
2.03888e-10
-8.56505e-11
2.13958e-10
-1.58468e-11
2.11251e-10
5.93762e-11
1.95106e-10
1.37466e-10
1.65437e-10
2.15554e-10
1.22747e-10
2.90621e-10
6.81139e-11
3.59647e-10
3.164e-12
4.19767e-10
-6.99925e-11
4.68427e-10
5.03533e-10
-1.48852e-10
-5.24052e-12
3.58827e-11
-1.94809e-11
9.90915e-11
-4.15363e-11
1.57088e-10
-7.02473e-11
2.08287e-10
-1.04468e-10
2.51402e-10
-1.43108e-10
2.86057e-10
-1.85148e-10
3.12366e-10
-2.29641e-10
3.30625e-10
-2.75692e-10
3.41166e-10
-3.22447e-10
3.44302e-10
-3.69068e-10
3.40311e-10
-4.14718e-10
3.29449e-10
-4.58545e-10
3.11972e-10
-4.99681e-10
2.88168e-10
-5.3724e-10
2.58405e-10
-5.70345e-10
2.23191e-10
-5.98176e-10
1.83236e-10
-6.20059e-10
1.39518e-10
-6.35587e-10
9.33086e-11
-6.44781e-10
4.61298e-11
-6.4821e-10
-4.53453e-13
-6.4699e-10
-4.52757e-11
-6.42463e-10
-8.82755e-11
-6.3545e-10
-1.31257e-10
-6.25336e-10
-1.77921e-10
-6.09692e-10
-2.32437e-10
-5.84426e-10
-2.97724e-10
-5.43604e-10
-3.7468e-10
-4.80159e-10
-4.59288e-10
-3.94513e-10
-5.30345e-10
-3.04325e-10
-5.52552e-10
-2.23084e-10
-5.29657e-10
-1.5867e-10
-4.7641e-10
-1.06258e-10
-4.23285e-10
-5.4168e-11
-3.89847e-10
2.24718e-12
-3.67025e-10
5.9851e-11
-3.38923e-10
1.15034e-10
-3.00922e-10
1.64212e-10
-2.50668e-10
2.04431e-10
-1.882e-10
2.33185e-10
-1.14405e-10
2.48503e-10
-3.11653e-11
2.49029e-10
5.88502e-11
2.34052e-10
1.52442e-10
2.03521e-10
2.46085e-10
1.58049e-10
3.36094e-10
9.89065e-11
4.1879e-10
2.80034e-11
4.9067e-10
-5.21787e-11
5.48608e-10
5.90044e-10
-1.3869e-10
-5.57733e-12
4.14609e-11
-2.07522e-11
1.14268e-10
-4.42709e-11
1.80608e-10
-7.49124e-11
2.38928e-10
-1.11479e-10
2.87968e-10
-1.52837e-10
3.27415e-10
-1.97936e-10
3.57464e-10
-2.458e-10
3.7849e-10
-2.95517e-10
3.90883e-10
-3.4621e-10
3.94995e-10
-3.97019e-10
3.91119e-10
-4.47071e-10
3.79501e-10
-4.95463e-10
3.60364e-10
-5.4124e-10
3.33945e-10
-5.83391e-10
3.00556e-10
-6.20857e-10
2.60658e-10
-6.52583e-10
2.14962e-10
-6.7761e-10
1.64545e-10
-6.95259e-10
1.10957e-10
-7.05379e-10
5.62496e-11
-7.08641e-10
2.80851e-12
-7.06703e-10
-4.72143e-11
-7.01908e-10
-9.30705e-11
-6.96122e-10
-1.37043e-10
-6.89142e-10
-1.84901e-10
-6.78228e-10
-2.43353e-10
-6.5879e-10
-3.17162e-10
-6.23077e-10
-4.10393e-10
-5.5761e-10
-5.24754e-10
-4.59457e-10
-6.28498e-10
-3.57021e-10
-6.54989e-10
-2.69693e-10
-6.16985e-10
-2.04884e-10
-5.4122e-10
-1.5168e-10
-4.76488e-10
-9.0991e-11
-4.50536e-10
-2.00783e-11
-4.37938e-10
5.28115e-11
-4.11814e-10
1.22342e-10
-3.70454e-10
1.84216e-10
-3.12542e-10
2.35195e-10
-2.39179e-10
2.72516e-10
-1.51726e-10
2.94067e-10
-5.27153e-11
2.98427e-10
5.44896e-11
2.8489e-10
1.65979e-10
2.53468e-10
2.77508e-10
2.04901e-10
3.84662e-10
1.40679e-10
4.8301e-10
6.30377e-11
5.6831e-10
-2.51028e-11
6.36747e-10
6.85196e-10
-1.20256e-10
-5.90959e-12
4.73714e-11
-2.20004e-11
1.30359e-10
-4.69546e-11
2.05562e-10
-7.94961e-11
2.71469e-10
-1.18384e-10
3.26857e-10
-1.62454e-10
3.71485e-10
-2.10631e-10
4.05641e-10
-2.61925e-10
4.29784e-10
-3.15414e-10
4.44372e-10
-3.70215e-10
4.49795e-10
-4.25457e-10
4.46361e-10
-4.80251e-10
4.34294e-10
-5.33652e-10
4.13764e-10
-5.84633e-10
3.84926e-10
-6.32057e-10
3.4798e-10
-6.74667e-10
3.03268e-10
-7.11108e-10
2.51403e-10
-7.40022e-10
1.93459e-10
-7.60254e-10
1.31188e-10
-7.7123e-10
6.72241e-11
-7.73492e-10
5.07004e-12
-7.69251e-10
-5.14555e-11
-7.62296e-10
-1.00025e-10
-7.56145e-10
-1.43194e-10
-7.51109e-10
-1.89938e-10
-7.43887e-10
-2.50576e-10
-7.30334e-10
-3.30715e-10
-7.03198e-10
-4.3753e-10
-6.41419e-10
-5.86533e-10
-5.32709e-10
-7.37208e-10
-4.27433e-10
-7.60265e-10
-3.41028e-10
-7.03391e-10
-2.81393e-10
-6.00855e-10
-2.2268e-10
-5.352e-10
-1.39965e-10
-5.33252e-10
-4.53062e-11
-5.32598e-10
4.83413e-11
-5.05464e-10
1.3588e-10
-4.57994e-10
2.13036e-10
-3.89699e-10
2.7661e-10
-3.02753e-10
3.23801e-10
-1.98917e-10
3.52448e-10
-8.13623e-11
3.61144e-10
4.57938e-11
3.49227e-10
1.77896e-10
3.1678e-10
3.09955e-10
2.64669e-10
4.36773e-10
1.94605e-10
5.53073e-10
1.09184e-10
6.5373e-10
1.18436e-11
7.34087e-10
7.90317e-10
-9.32775e-11
-6.23147e-12
5.36033e-11
-2.32051e-11
1.47333e-10
-4.95435e-11
2.319e-10
-8.39241e-11
3.0585e-10
-1.25073e-10
3.68006e-10
-1.71803e-10
4.18215e-10
-2.23028e-10
4.56866e-10
-2.77753e-10
4.8451e-10
-3.35061e-10
5.01679e-10
-3.94076e-10
5.08811e-10
-4.53939e-10
5.06223e-10
-5.1376e-10
4.94115e-10
-5.72585e-10
4.72588e-10
-6.29343e-10
4.41683e-10
-6.82799e-10
4.01436e-10
-7.3151e-10
3.51979e-10
-7.738e-10
2.93693e-10
-8.07803e-10
2.27461e-10
-8.31649e-10
1.55033e-10
-8.4393e-10
7.95034e-11
-8.44573e-10
5.71277e-12
-8.36123e-10
-5.99059e-11
-8.24416e-10
-1.11731e-10
-8.15484e-10
-1.52127e-10
-8.09752e-10
-1.95671e-10
-8.01796e-10
-2.58532e-10
-7.88726e-10
-3.43785e-10
-7.71715e-10
-4.5454e-10
-7.24231e-10
-6.34017e-10
-6.08743e-10
-8.52697e-10
-5.32638e-10
-8.36371e-10
-4.81492e-10
-7.54538e-10
-4.13559e-10
-6.68787e-10
-3.24152e-10
-6.24607e-10
-1.93799e-10
-6.63606e-10
-6.7828e-11
-6.58571e-10
5.0182e-11
-6.23475e-10
1.58464e-10
-5.66277e-10
2.52614e-10
-4.83849e-10
3.30117e-10
-3.80256e-10
3.88177e-10
-2.56976e-10
4.24636e-10
-1.17822e-10
4.38132e-10
3.22981e-11
4.28038e-10
1.8799e-10
3.94466e-10
3.43526e-10
3.38345e-10
4.92893e-10
2.61568e-10
6.2985e-10
1.67112e-10
7.48186e-10
5.90218e-11
8.42178e-10
9.07098e-10
-5.77579e-11
-6.53467e-12
6.01378e-11
-2.4338e-11
1.65135e-10
-5.19792e-11
2.59541e-10
-8.80979e-11
3.41969e-10
-1.31398e-10
4.11306e-10
-1.80679e-10
4.67497e-10
-2.34854e-10
5.11041e-10
-2.92937e-10
5.42593e-10
-3.54026e-10
5.62769e-10
-4.17272e-10
5.72057e-10
-4.81843e-10
5.70793e-10
-5.4688e-10
5.59151e-10
-6.11452e-10
5.37159e-10
-6.74496e-10
5.04727e-10
-7.34746e-10
4.61686e-10
-7.90644e-10
4.07877e-10
-8.40246e-10
3.43295e-10
-8.81159e-10
2.68371e-10
-9.10588e-10
1.84461e-10
-9.25751e-10
9.46657e-11
-9.25068e-10
5.02962e-12
-9.10675e-10
-7.42979e-11
-8.9142e-10
-1.30986e-10
-8.77487e-10
-1.66061e-10
-8.67748e-10
-2.0541e-10
-8.49669e-10
-2.7661e-10
-8.23001e-10
-3.70452e-10
-7.84885e-10
-4.92655e-10
-7.85764e-10
-6.33139e-10
-7.70851e-10
-8.67611e-10
-7.70199e-10
-8.37024e-10
-7.27846e-10
-7.96891e-10
-5.95714e-10
-8.0092e-10
-3.9747e-10
-8.22851e-10
-2.27123e-10
-8.33953e-10
-7.59728e-11
-8.09722e-10
6.53006e-11
-7.64749e-10
1.92571e-10
-6.93548e-10
3.0355e-10
-5.94826e-10
3.95493e-10
-4.72198e-10
4.65144e-10
-3.26626e-10
5.10105e-10
-1.62783e-10
5.29017e-10
1.33861e-11
5.21238e-10
1.95769e-10
4.86747e-10
3.78016e-10
4.26367e-10
5.53273e-10
3.42063e-10
7.14154e-10
2.37187e-10
8.53062e-10
1.16507e-10
9.6286e-10
1.03762e-09
-1.40149e-11
-6.80897e-12
6.69463e-11
-2.5365e-11
1.83691e-10
-5.41912e-11
2.88367e-10
-9.18995e-11
3.79678e-10
-1.37181e-10
4.56588e-10
-1.88836e-10
5.19152e-10
-2.45784e-10
5.6799e-10
-3.07058e-10
6.03869e-10
-3.71786e-10
6.27497e-10
-4.39155e-10
6.39426e-10
-5.0838e-10
6.40017e-10
-5.78659e-10
6.29428e-10
-6.49126e-10
6.07625e-10
-7.18787e-10
5.74389e-10
-7.86442e-10
5.29342e-10
-8.5056e-10
4.71995e-10
-9.09114e-10
4.01847e-10
-9.59359e-10
3.18614e-10
-9.97603e-10
2.22705e-10
-1.01919e-09
1.1625e-10
-1.01961e-09
5.45048e-12
-9.98767e-10
-9.51376e-11
-9.69684e-10
-1.6007e-10
-9.52074e-10
-1.83671e-10
-9.38852e-10
-2.1863e-10
-8.99028e-10
-3.16434e-10
-8.36494e-10
-4.32984e-10
-7.68264e-10
-5.60885e-10
-6.34556e-10
-7.66848e-10
-6.77157e-10
-8.25011e-10
-7.22193e-10
-7.91988e-10
-7.258e-10
-7.93284e-10
-5.89397e-10
-9.37322e-10
-3.81751e-10
-1.0305e-09
-2.15774e-10
-9.9993e-10
-5.55692e-11
-9.69927e-10
9.50725e-11
-9.1539e-10
2.35925e-10
-8.344e-10
3.62412e-10
-7.21314e-10
4.68993e-10
-5.78779e-10
5.51167e-10
-4.08801e-10
6.05801e-10
-2.17417e-10
6.31407e-10
-1.22194e-11
6.27179e-10
1.99996e-10
5.92732e-10
4.12463e-10
5.28444e-10
6.17561e-10
4.36116e-10
8.06483e-10
3.19439e-10
9.69741e-10
1.84062e-10
1.09824e-09
1.1844e-09
3.72802e-11
-7.043e-12
7.3989e-11
-2.62478e-11
2.02896e-10
-5.61001e-11
3.18221e-10
-9.51958e-11
4.18774e-10
-1.42225e-10
5.03618e-10
-1.95997e-10
5.72924e-10
-2.55449e-10
6.27443e-10
-3.19644e-10
6.68065e-10
-3.87744e-10
6.95597e-10
-4.58982e-10
7.10663e-10
-5.32629e-10
7.13662e-10
-6.07956e-10
7.04753e-10
-6.84189e-10
6.83857e-10
-7.6046e-10
6.5066e-10
-8.35735e-10
6.04615e-10
-9.08694e-10
5.44952e-10
-9.77538e-10
4.7069e-10
-1.03965e-09
3.80727e-10
-1.09105e-09
2.74102e-10
-1.12542e-09
1.50623e-10
-1.13351e-09
1.354e-11
-1.10895e-09
-1.19702e-10
-1.06978e-09
-1.99234e-10
-1.05281e-09
-2.00642e-10
-1.04439e-09
-2.27052e-10
-9.84923e-10
-3.75898e-10
-8.66617e-10
-5.5129e-10
-7.00274e-10
-7.27228e-10
-6.14944e-10
-8.52178e-10
-6.18069e-10
-8.21886e-10
-5.45703e-10
-8.64354e-10
-4.55478e-10
-8.83508e-10
-3.94248e-10
-9.98552e-10
-3.12365e-10
-1.11238e-09
-1.75027e-10
-1.13727e-09
-3.01526e-11
-1.1148e-09
1.24317e-10
-1.06986e-09
2.76683e-10
-9.86767e-10
4.18455e-10
-8.63086e-10
5.41561e-10
-7.01885e-10
6.3855e-10
-5.0579e-10
7.05219e-10
-2.84086e-10
7.40096e-10
-4.70974e-11
7.42139e-10
1.97953e-10
7.10127e-10
4.44475e-10
6.43429e-10
6.8426e-10
5.43266e-10
9.06644e-10
4.13578e-10
1.09943e-09
2.61149e-10
1.25067e-09
1.35047e-09
9.50878e-11
-7.22498e-12
8.12142e-11
-2.69456e-11
2.22618e-10
-5.76212e-11
3.48897e-10
-9.78441e-11
4.58998e-10
-1.46316e-10
5.5209e-10
-2.01866e-10
6.28475e-10
-2.63459e-10
6.89037e-10
-3.30191e-10
7.34797e-10
-4.01264e-10
7.66669e-10
-4.75957e-10
7.85355e-10
-5.53596e-10
7.91299e-10
-6.33517e-10
7.84673e-10
-7.15038e-10
7.65378e-10
-7.97423e-10
7.33044e-10
-8.79846e-10
6.87037e-10
-9.61328e-10
6.26433e-10
-1.04061e-09
5.49971e-10
-1.11585e-09
4.55964e-10
-1.18402e-09
3.42274e-10
-1.23979e-09
2.06394e-10
-1.27041e-09
4.41586e-11
-1.2505e-09
-1.39609e-10
-1.2146e-09
-2.35137e-10
-1.19401e-09
-2.21225e-10
-1.23728e-09
-1.83783e-10
-1.15267e-09
-4.60513e-10
-1.03931e-09
-6.64648e-10
-9.43913e-10
-8.22623e-10
-8.82973e-10
-9.13119e-10
-7.73476e-10
-9.31381e-10
-6.75919e-10
-9.61911e-10
-5.41737e-10
-1.01769e-09
-4.2224e-10
-1.11805e-09
-3.14485e-10
-1.22013e-09
-1.84575e-10
-1.26718e-09
-3.42956e-11
-1.26508e-09
1.26362e-10
-1.23052e-09
2.92964e-10
-1.15337e-09
4.54662e-10
-1.02479e-09
5.9908e-10
-8.46304e-10
7.15181e-10
-6.21891e-10
7.97825e-10
-3.66731e-10
8.4648e-10
-9.57525e-11
8.59887e-10
1.84545e-10
8.351e-10
4.69262e-10
7.69395e-10
7.49964e-10
6.6272e-10
1.01332e-09
5.19156e-10
1.24299e-09
3.47035e-10
1.42279e-09
1.53948e-09
1.58022e-10
-7.34333e-12
8.85581e-11
-2.74169e-11
2.42692e-10
-5.86668e-11
3.80147e-10
-9.96972e-11
5.00028e-10
-1.49235e-10
6.01627e-10
-2.0614e-10
6.8538e-10
-2.69414e-10
7.52312e-10
-3.38191e-10
8.03573e-10
-4.11711e-10
8.40188e-10
-4.89296e-10
8.62938e-10
-5.70309e-10
8.72311e-10
-6.54127e-10
8.68491e-10
-7.40111e-10
8.51361e-10
-8.27588e-10
8.20521e-10
-9.1585e-10
7.75298e-10
-1.00417e-09
7.14757e-10
-1.09185e-09
6.37651e-10
-1.17813e-09
5.42237e-10
-1.2618e-09
4.25945e-10
-1.34102e-09
2.85613e-10
-1.41387e-09
1.17011e-10
-1.44481e-09
-1.08663e-10
-1.41884e-09
-2.61111e-10
-1.49652e-09
-1.43544e-10
-1.44521e-09
-2.35095e-10
-1.30986e-09
-5.95861e-10
-1.19805e-09
-7.76452e-10
-1.11344e-09
-9.07239e-10
-1.03513e-09
-9.91422e-10
-9.31642e-10
-1.03487e-09
-8.08059e-10
-1.08549e-09
-6.69264e-10
-1.15648e-09
-5.33981e-10
-1.25333e-09
-4.04598e-10
-1.34952e-09
-2.61535e-10
-1.41024e-09
-9.7483e-11
-1.42913e-09
7.68292e-11
-1.40483e-09
2.63899e-10
-1.34044e-09
4.52085e-10
-1.21297e-09
6.24377e-10
-1.0186e-09
7.65151e-10
-7.62667e-10
8.68928e-10
-4.70509e-10
9.38334e-10
-1.65159e-10
9.71689e-10
1.5119e-10
9.62509e-10
4.78441e-10
9.04026e-10
8.08445e-10
7.93777e-10
1.12357e-09
6.35893e-10
1.40088e-09
4.40973e-10
1.61771e-09
1.75605e-09
2.24402e-10
-7.38695e-12
9.59455e-11
-2.762e-11
2.62925e-10
-5.91494e-11
4.11676e-10
-1.00608e-10
5.41486e-10
-1.50763e-10
6.51782e-10
-2.08518e-10
7.43137e-10
-2.72922e-10
8.16716e-10
-3.43149e-10
8.738e-10
-4.18483e-10
9.15521e-10
-4.98277e-10
9.42731e-10
-5.81917e-10
9.5595e-10
-6.68777e-10
9.55351e-10
-7.58185e-10
9.40769e-10
-8.49393e-10
9.11727e-10
-9.41562e-10
8.67467e-10
-1.03377e-09
8.0697e-10
-1.12508e-09
7.28961e-10
-1.21456e-09
6.31716e-10
-1.30073e-09
5.12116e-10
-1.38008e-09
3.64957e-10
-1.44042e-09
1.77356e-10
-1.49039e-09
-5.86973e-11
-1.52279e-09
-2.28714e-10
-1.54356e-09
-1.22767e-10
-1.3883e-09
-3.90362e-10
-1.34127e-09
-6.42891e-10
-1.28279e-09
-8.34927e-10
-1.22639e-09
-9.63638e-10
-1.16346e-09
-1.05435e-09
-1.07468e-09
-1.12364e-09
-9.6002e-10
-1.20016e-09
-8.28406e-10
-1.2881e-09
-6.91335e-10
-1.3904e-09
-5.49999e-10
-1.49085e-09
-3.9516e-10
-1.56508e-09
-2.26335e-10
-1.59796e-09
-3.74756e-11
-1.59369e-09
1.73813e-10
-1.55173e-09
3.92431e-10
-1.43159e-09
5.99034e-10
-1.2252e-09
7.69646e-10
-9.3328e-10
8.99664e-10
-6.00527e-10
9.99848e-10
-2.65344e-10
1.06679e-09
8.42417e-11
1.08679e-09
4.58449e-10
1.04559e-09
8.49644e-10
9.3663e-10
1.23252e-09
7.64213e-10
1.57329e-09
5.42483e-10
1.83944e-09
2.00621e-09
2.92319e-10
-7.34535e-12
1.03291e-10
-2.75149e-11
2.83094e-10
-5.89837e-11
4.43144e-10
-1.00433e-10
5.82934e-10
-1.50687e-10
7.02036e-10
-2.08711e-10
8.0116e-10
-2.73605e-10
8.8161e-10
-3.44602e-10
9.44796e-10
-4.21029e-10
9.91948e-10
-5.02277e-10
1.02398e-09
-5.87744e-10
1.04142e-09
-6.76783e-10
1.04439e-09
-7.68644e-10
1.03263e-09
-8.62408e-10
1.00549e-09
-9.56927e-10
9.61985e-10
-1.05074e-09
9.00787e-10
-1.14197e-09
8.20191e-10
-1.22825e-09
7.17992e-10
-1.30604e-09
5.8991e-10
-1.36972e-09
4.28628e-10
-1.41063e-09
2.18268e-10
-1.34095e-09
-1.28374e-10
-1.35148e-09
-2.18189e-10
-1.31451e-09
-1.59737e-10
-1.35674e-09
-3.48128e-10
-1.36644e-09
-6.33194e-10
-1.36109e-09
-8.4027e-10
-1.33831e-09
-9.86418e-10
-1.29854e-09
-1.09412e-09
-1.23077e-09
-1.19142e-09
-1.13349e-09
-1.29744e-09
-1.01549e-09
-1.40609e-09
-8.84919e-10
-1.52097e-09
-7.40681e-10
-1.63509e-09
-5.78891e-10
-1.72687e-09
-4.0508e-10
-1.77177e-09
-2.16849e-10
-1.78192e-09
1.24969e-11
-1.78107e-09
2.59875e-10
-1.67897e-09
5.0484e-10
-1.47017e-09
7.07319e-10
-1.13576e-09
8.67438e-10
-7.60645e-10
1.01266e-09
-4.10566e-10
1.13435e-09
-3.74479e-11
1.20419e-09
3.88608e-10
1.19489e-09
8.5894e-10
1.09376e-09
1.33366e-09
9.06023e-10
1.76102e-09
6.51646e-10
2.09382e-09
2.29822e-09
3.59638e-10
-7.20874e-12
1.10499e-10
-2.70635e-11
3.02948e-10
-5.80891e-11
4.74169e-10
-9.90363e-11
6.23881e-10
-1.48806e-10
7.51806e-10
-2.06438e-10
8.58791e-10
-2.71106e-10
9.46278e-10
-3.42109e-10
1.0158e-09
-4.18837e-10
1.06868e-09
-5.00734e-10
1.10588e-09
-5.87233e-10
1.12792e-09
-6.77692e-10
1.13485e-09
-7.71318e-10
1.12626e-09
-8.67085e-10
1.10126e-09
-9.63628e-10
1.05853e-09
-1.05912e-09
9.96281e-10
-1.15112e-09
9.12185e-10
-1.23613e-09
8.0301e-10