/*--------------------------------*- C++ -*----------------------------------*\
| =========                 |                                                 |
| \\      /  F ield         | OpenFOAM: The Open Source CFD Toolbox           |
|  \\    /   O peration     | Version:  2.4.0                                 |
|   \\  /    A nd           | Web:      www.OpenFOAM.org                      |
|    \\/     M anipulation  |                                                 |
\*---------------------------------------------------------------------------*/
FoamFile
{
    version     2.0;
    format      ascii;
    class       volScalarField;
    location    "0.162";
    object      p;
}
// * * * * * * * * * * * * * * * * * * * * * * * * * * * * * * * * * * * * * //

dimensions      [1 -1 -2 0 0 0 0];

internalField   nonuniform List<scalar> 
57600
(
123.428
118.601
106.792
97.362
90.3513
85.4109
82.4214
81.7899
84.171
88.302
91.9732
94.2456
95.2146
95.2881
94.8554
94.1924
93.4673
92.7726
92.1526
91.6246
91.1891
90.8391
90.5639
90.3526
90.1946
90.0808
90.0029
89.9536
89.9268
89.9172
120.177
112.152
100.976
92.1806
85.6882
81.2339
78.7293
78.7932
81.8288
86.0572
89.4366
91.3609
92.0646
91.9748
91.458
90.7607
90.0301
89.3449
88.7419
88.2331
87.8167
87.4842
87.2244
87.0262
86.8793
86.7746
86.704
86.6607
86.6386
86.6325
116.945
108.871
97.6877
88.8936
82.4003
77.9435
75.4075
75.4216
78.4888
82.8004
86.2332
88.1702
88.8646
88.7598
88.2275
87.5149
86.7696
86.0712
85.4573
84.9402
84.5177
84.1809
83.9182
83.718
83.5698
83.4644
83.3935
83.35
83.3279
83.322
113.733
105.582
94.3849
85.5922
79.0968
74.6355
72.0517
71.9863
75.0976
79.5345
83.0503
85.0126
85.6983
85.5741
85.0201
84.2846
83.5162
82.7965
82.1648
81.634
81.2016
80.8577
80.5901
80.3867
80.2365
80.13
80.0586
80.0151
79.9931
79.9874
110.544
102.283
91.0669
82.2764
75.7774
71.3105
68.6627
68.4856
71.6561
76.2645
79.8908
81.8872
82.5636
82.4153
81.8331
81.0674
80.268
79.5197
78.8642
78.3149
77.869
77.5154
77.241
77.0331
76.8801
76.7719
76.6997
76.6558
76.6338
76.6281
107.382
98.9726
87.7331
78.9463
72.4421
67.9692
65.2414
64.9151
68.1604
72.9914
76.7571
78.7955
79.4591
79.2801
78.6626
77.8596
77.0225
76.2391
75.5541
74.9822
74.5195
74.1538
73.8709
73.6571
73.5
73.389
73.3151
73.2702
73.2478
73.2422
104.276
95.6487
84.3826
75.6019
69.0905
64.6122
61.7891
61.269
64.6046
69.7155
73.6512
75.739
76.385
76.1669
75.5066
74.6599
73.7787
72.9537
72.2337
71.6347
71.1521
70.772
70.4789
70.2576
70.0951
69.9802
69.9034
69.8568
69.8335
69.8278
101.219
92.3089
81.0143
72.2434
65.7225
61.2408
58.3077
57.54
60.9817
66.4378
70.5756
72.7199
73.3418
73.0754
72.3649
71.4679
70.536
69.6625
68.9015
68.2712
67.7656
67.369
67.0638
66.8338
66.6648
66.5448
66.464
66.4146
66.3899
66.384
98.2029
88.9515
77.6269
68.8712
62.3379
57.856
54.7998
53.719
57.2825
63.1595
67.5335
69.7408
70.3308
70.0057
69.237
68.2835
67.294
66.3645
65.5559
64.8898
64.3583
63.943
63.6244
63.3846
63.208
63.0821
62.9965
62.9434
62.9162
62.9098
95.2235
85.5749
74.2185
65.4855
58.9363
54.4591
51.2687
49.7945
53.4954
59.8824
64.5282
66.8047
67.3529
66.9576
66.1226
65.1062
64.0521
63.058
62.1947
61.4882
60.928
60.4922
60.1588
59.9082
59.7237
59.5917
59.5008
59.443
59.4119
59.4034
92.2794
82.1785
70.7872
62.0867
55.5171
51.0513
47.7189
45.7526
49.6057
56.6088
61.564
63.9154
64.4095
63.9307
63.021
61.9354
60.8098
59.7412
58.815
58.0637
57.4722
57.0141
56.6647
56.4029
56.2105
56.0726
55.977
55.9142
55.8772
55.8619
89.369
78.7623
67.331
58.6754
52.0799
47.6338
44.1562
41.5765
45.5951
53.3419
58.6456
61.0768
61.5023
60.9247
59.9312
58.7705
57.5664
56.4119
55.4134
54.6131
53.9881
53.5061
53.1396
52.866
52.666
52.5233
52.4241
52.3573
52.3145
52.2897
86.49
75.3264
63.8472
55.2521
48.6238
44.2073
40.5878
37.2464
41.441
50.0857
55.7782
58.2939
58.633
57.9383
56.8517
55.6103
54.321
53.067
51.9854
51.1325
50.4722
49.9649
49.58
49.2939
49.0865
48.9403
48.8396
48.7712
48.7251
48.6963
83.6403
71.8717
60.3334
51.818
45.1483
40.7724
37.0232
32.7387
37.1176
46.8452
52.9678
55.5723
55.8038
54.9707
53.781
52.4533
51.0731
49.703
48.5257
47.6176
46.9211
46.3872
45.9821
45.6821
45.4672
45.3183
45.2182
45.152
45.1077
45.1106
80.8183
68.3992
56.7866
48.3743
41.6523
37.3287
33.4743
28.0319
32.5961
43.6264
50.2208
52.9185
53.0171
52.0198
50.7167
49.2974
47.8203
46.3144
45.0277
44.0634
43.3306
42.7689
42.341
42.025
41.8011
41.6492
41.5502
41.4878
41.4498
41.4298
78.021
64.9078
53.2034
44.9228
38.1347
33.8741
29.958
23.1505
27.8478
40.4355
47.5438
50.3394
50.2759
49.0828
47.6553
46.1399
44.5571
42.8928
41.4847
40.4635
39.696
39.1061
38.6517
38.3156
38.0807
37.9248
37.8262
37.7676
37.7362
37.7234
75.244
61.3953
49.5801
41.4662
34.5945
30.4048
26.4855
18.0885
22.8526
37.2774
44.9434
47.843
47.584
46.1557
44.5918
42.9795
41.2662
39.4166
37.8903
36.809
36.0125
35.3956
34.9086
34.5464
34.298
34.1379
34.041
33.9882
33.966
33.9641
72.4799
57.8609
45.9118
38.0084
31.0302
26.9137
23.0684
12.7297
17.6129
34.149
42.4236
45.4372
44.9456
43.232
41.5166
39.8197
37.9035
35.8225
34.2333
33.0868
32.2746
31.6358
31.106
30.707
30.4426
30.2811
30.1905
30.1502
30.1446
30.1609
69.7177
54.3048
42.1934
34.5549
27.4397
23.3892
19.7153
7.09967
12.1427
31.0116
39.9831
43.1296
42.3658
40.3017
38.4099
36.6754
34.3888
32.1042
30.4994
29.2792
28.4776
27.83
27.2395
26.7836
26.5009
26.347
26.2745
26.2599
26.285
26.3326
66.9409
50.7274
38.4191
31.1146
23.8197
19.8119
16.428
1.42222
6.50061
27.8012
37.6509
40.9262
39.8507
37.3473
35.2585
33.567
30.6878
28.4332
26.6694
25.3583
24.618
23.9922
23.3103
22.759
22.4543
22.3278
22.2937
22.3226
22.3954
22.4907
64.124
47.1283
34.5827
27.6992
20.1689
16.1506
13.2551
-3.77995
1.41855
24.5153
35.4189
38.8293
37.4061
34.3374
32.1602
30.4866
26.9173
24.8532
22.7333
21.2754
20.7021
20.153
19.3232
18.62
18.285
18.2073
18.2337
18.3243
18.4642
18.6297
61.2279
43.5046
30.6785
24.3241
16.509
12.3568
10.3476
-6.36007
-0.536983
21.2985
33.3094
36.8354
35.0369
31.21
29.2533
27.3793
23.2782
21.3232
18.6962
16.9723
16.7463
16.3293
15.2445
14.3368
13.9739
13.9601
14.0658
14.2358
14.4658
14.7356
58.1924
39.8487
26.7021
21.0104
12.9396
8.35886
7.91562
2.45893
3.03048
18.2799
31.3188
34.932
32.7437
27.8352
26.4894
24.293
19.9153
17.8624
14.5617
12.1612
12.5736
12.4587
10.9775
9.79468
9.45564
9.56554
9.77035
10.0211
10.3527
10.7682
54.9249
36.1448
22.6521
17.7954
8.99798
4.07297
4.3534
0.602976
-19.5046
15.5745
29.4343
33.097
30.5158
23.8912
23.9287
21.386
16.8739
14.5126
10.2622
5.64954
7.33518
8.44273
6.49476
4.83224
4.6627
5.05735
5.36348
5.64124
6.03254
6.62741
51.2813
32.3853
18.5322
14.6992
5.77676
-0.278418
-0.327167
0.0301929
-5.20651
13.7603
27.678
31.2963
28.3181
18.438
21.4143
18.7121
14.1234
11.2977
5.89335
-2.19865
1.37442
4.18214
1.49569
-0.928695
-0.474565
0.575786
0.874321
1.06199
1.30884
2.04225
47.0406
28.6463
14.3498
11.7237
2.66907
-0.056198
-0.252903
-0.0482575
1.54944
13.1671
26.1077
29.4821
26.0862
11.9461
18.7751
16.2288
11.5366
8.22398
2.66107
-8.21496
-2.85262
0.4655
-4.58239
-7.20403
-3.96689
-2.56703
-2.00687
-2.16568
-3.38171
-3.4932
41.8696
25.3505
10.0967
8.84647
-2.0757
-0.0605953
-0.200568
-0.0575509
0.0692374
13.171
24.7337
27.5863
23.6801
8.07747
16.7628
13.8403
8.75612
5.24268
1.20561
-9.45293
-7.80768
0.0820409
0.0893274
0.153519
0.148519
0.141524
0.134263
0.127175
0.121132
0.114526
35.3227
23.887
5.59778
6.05977
-0.148062
-0.0760428
-0.16982
-0.029207
0.0475181
18.8854
23.7105
25.5522
21.1977
7.3442
15.7605
11.333
5.56214
2.05442
0.660851
0.0494423
0.102446
0.116571
0.121956
0.139227
0.138263
0.133823
0.129847
0.127086
0.115299
0.115815
26.829
25.2953
0.130393
1.27441
-0.116492
-0.0883568
-0.15126
-0.017271
0.0346275
30.7
21.8416
23.3706
18.2456
8.50333
14.4378
8.46603
1.45867
-0.914449
0.0114225
0.0334136
0.0875124
0.107381
0.119887
0.129912
0.129124
0.126797
0.120902
0.115926
0.108023
0.123684
18.375
24.924
-6.63772
-0.242736
-0.117268
-0.0971221
-0.140618
-0.0414724
-0.101902
11.4984
18.9178
20.9443
14.1574
9.41209
12.1558
4.44867
-3.52903
0.0646374
0.00234162
0.00761415
0.0430515
0.081207
0.109724
0.121298
0.11994
0.125186
0.12333
0.103576
0.0992978
0.0972112
89.9205
89.9357
89.9663
90.0167
90.0926
90.2005
90.3484
90.5458
90.8042
91.1366
91.5563
92.0742
92.6944
93.4065
94.1777
94.9439
95.5985
95.9671
95.7735
94.6449
92.2043
88.402
84.2621
81.72
81.4471
83.1399
87.0311
92.7489
98.9328
104.181
86.6389
86.6576
86.693
86.7495
86.833
86.9504
87.1103
87.3227
87.5997
87.9549
88.4013
88.949
89.599
90.3361
91.1197
91.8759
92.4839
92.7464
92.3583
90.9297
88.1102
84.0369
80.107
78.1653
78.4173
80.6449
85.1113
91.098
97.2057
101.972
83.3284
83.3474
83.3828
83.4394
83.523
83.6406
83.8011
84.0146
84.294
84.6529
85.1051
85.6611
86.3222
87.0731
87.8716
88.6423
89.264
89.539
89.1602
87.7288
84.876
80.7328
76.7543
74.8411
75.1178
77.3488
81.8315
87.8349
93.9525
98.7408
79.994
80.013
80.0484
80.1049
80.1885
80.3063
80.4675
80.6831
80.9662
81.3314
81.793
82.3624
83.0417
83.8155
84.6392
85.4335
86.074
86.3626
85.9914
84.5499
81.6435
77.3947
73.3478
71.4822
71.7959
74.0317
78.5411
84.5716
90.7056
95.53
76.6349
76.6541
76.6896
76.7462
76.8297
76.9478
77.1102
77.3286
77.6171
77.991
78.4655
79.0533
79.7575
80.5625
81.4206
82.2464
82.9108
83.2146
82.8509
81.3949
78.4174
74.0251
69.8864
68.0891
68.4518
70.6933
75.2399
81.308
87.4651
92.3394
73.2493
73.2689
73.3048
73.3617
73.4456
73.5644
73.7286
73.9509
74.2464
74.6313
75.1222
75.7329
76.4684
77.3128
78.2129
79.0765
79.7696
80.0927
79.7389
78.2659
75.1992
70.6213
66.3649
64.6617
65.086
67.3334
71.9279
78.0441
84.2308
89.1708
69.8353
69.8557
69.8924
69.9501
70.0348
70.1549
70.3217
70.549
70.853
71.2514
71.762
72.4003
73.1735
74.0655
75.0155
75.9218
76.6482
76.9957
76.656
75.1646
71.99
67.1792
62.7761
61.2004
61.699
63.9513
68.605
74.7799
81.0023
86.0212
66.3922
66.4136
66.4515
66.5102
66.5961
66.7179
66.888
67.1215
67.4359
67.8502
68.3835
69.0538
69.8714
70.8204
71.8284
72.7823
73.5463
73.9235
73.6032
72.0931
68.7915
63.6941
59.1109
57.706
58.2916
60.5469
65.2712
71.5155
77.7791
82.8871
62.9189
62.9418
62.9805
63.0405
63.128
63.2521
63.4262
63.6669
63.9934
64.426
64.9854
65.6918
66.5605
67.5773
68.6522
69.6579
70.4635
70.8761
70.5815
69.054
65.6058
60.1596
55.3571
54.1801
54.8646
57.1195
61.9265
68.251
74.5607
79.7713
59.4139
59.4393
59.4764
59.5377
59.6282
59.7553
59.9343
60.1835
60.5239
60.9773
61.5657
62.312
63.2385
64.3359
65.4871
66.548
67.3995
67.8535
67.5923
66.0504
62.4355
56.5682
51.4984
50.6248
51.4187
53.6685
58.5706
64.9864
71.3463
76.6747
55.871
55.9126
55.9296
55.9985
56.0947
56.226
56.4106
56.6695
57.0256
57.5023
58.1226
58.9119
59.902
61.0962
62.3335
63.4516
64.3536
64.8555
64.6368
63.0862
59.2843
52.9113
47.5129
47.044
47.9546
50.1932
55.2034
61.7218
68.135
73.5979
52.2672
52.5291
52.3427
52.4243
52.5272
52.6634
52.8536
53.1229
53.4967
53.9993
54.6544
55.4889
56.5463
57.8585
59.191
60.3665
61.3249
61.8823
61.7172
60.1654
56.1568
49.1788
43.3714
43.4438
44.4727
46.6929
51.8246
58.4572
64.9258
70.5415
48.694
48.7176
48.7523
48.8184
48.9241
49.0651
49.261
49.5419
49.9354
50.4665
51.1591
52.0401
53.164
54.6234
56.0596
57.289
58.3122
58.9334
58.8351
57.2932
53.0582
45.36
39.0342
39.8323
40.9727
43.1668
48.4335
55.1924
61.7173
67.5058
45.166
45.0782
45.1108
45.1766
45.2813
45.4259
45.6297
45.9246
46.3401
46.9022
47.6352
48.5639
49.7435
51.3911
52.9277
54.2139
55.3148
56.0089
55.9928
54.4772
49.9955
41.4457
34.4483
36.2204
37.4539
39.6141
45.0297
51.9275
58.5083
64.4912
41.419
41.4265
41.4559
41.5093
41.5956
41.742
41.9582
42.27
42.7091
43.3043
44.0808
45.0598
46.264
48.1536
49.7791
51.1333
52.3319
53.1084
53.1925
51.7218
46.9757
37.4301
29.5424
32.621
33.9139
36.034
41.6123
48.6621
55.297
61.4976
37.7243
37.7405
37.7765
37.8204
37.8427
38.016
38.2493
38.5775
39.0403
39.6702
40.4927
41.5279
42.6894
44.8572
46.569
48.0386
49.3639
50.2314
50.4367
49.0382
44.0057
33.3156
24.2278
29.063
30.3477
32.4255
38.1804
45.3953
52.0812
58.5248
33.9768
34.0051
34.0638
34.1787
33.7867
34.2778
34.5093
34.8454
35.3304
35.9964
36.8665
37.9644
39.0343
41.3071
43.2063
44.9229
46.4127
47.3772
47.7278
46.4363
41.0909
29.1139
18.4258
25.6488
26.7479
28.7877
34.7338
42.1265
48.859
55.5727
30.1901
30.2302
30.2869
31.6088
30.508
30.5362
30.7335
31.0664
31.573
32.2779
33.1951
34.3579
35.4934
37.355
39.5676
41.7878
43.4825
44.5442
45.0681
43.9276
38.2338
24.8319
12.1118
22.441
23.1079
25.1184
31.2742
38.8541
45.628
52.6404
26.3901
26.4531
26.5145
26.5627
26.6153
26.7351
26.9067
27.2272
27.7595
28.509
29.4691
30.6919
32.0633
33.2976
35.6521
38.6525
40.5801
41.7292
42.459
41.5263
35.4332
20.4326
5.33911
19.3481
19.4098
21.4138
27.8068
35.5768
42.3864
49.7269
22.5929
22.6967
22.7904
22.8542
22.8804
22.9177
23.0138
23.3101
23.8801
24.6846
25.6774
26.9412
28.6004
29.3494
31.7464
35.5584
37.715
38.9266
39.9014
39.2496
32.6923
15.7519
-1.90224
16.3837
15.6194
17.6646
24.3418
32.293
39.1331
46.8301
18.8015
18.971
19.1113
19.1734
19.1346
19.0747
19.0112
19.291
19.9192
20.7973
21.8048
23.0838
25.0575
25.7206
28.2909
32.557
34.8975
36.1263
37.3939
37.1126
30.0375
10.2184
-9.74669
13.7763
11.6935
13.8487
20.8966
29.0009
35.8668
43.946
15.0204
15.3049
15.5352
15.6096
15.459
15.127
15.0745
15.1209
15.829
16.8211
17.8044
19.0754
21.4857
22.6316
25.5077
29.6777
32.1388
33.3104
34.9321
35.1245
27.5275
4.10181
-17.0537
11.7677
7.5614
9.91405
17.503
25.6976
32.586
41.0681
11.2389
11.7347
12.1493
12.2759
11.9507
11.2365
10.6764
10.7033
11.5274
12.6994
13.4841
14.8253
17.9422
19.9803
23.2211
26.9019
29.4521
30.4486
32.5052
33.2824
25.2304
0.147959
-1.66137
10.3079
3.15233
5.73714
14.2492
22.3785
29.2888
38.1856
7.41205
8.31743
9.10312
9.342
8.70145
7.24862
5.93451
5.95623
6.98736
8.45044
8.47713
10.15
14.461
17.497
21.0297
24.2016
26.8599
27.4849
30.0918
31.5682
23.1014
-4.96165
0.85098
2.85223
-1.34289
1.06668
11.2028
19.0349
25.9729
35.2803
3.38242
5.15963
6.7534
7.19264
6.01287
3.1135
0.379703
0.827856
2.13988
4.14116
2.53583
4.84094
11.0968
15.0277
18.6586
21.6443
24.4051
24.3138
27.6682
29.9539
21.0851
-5.64351
0.64149
-0.242071
-0.0830242
-4.03222
8.63911
15.6523
22.636
32.323
-1.58852
1.80842
5.86695
6.58349
4.60741
-1.00048
-7.45709
-4.40087
-3.58639
0.0934367
-2.95368
-0.3494
8.02329
12.5579
16.242
19.4899
22.154
20.7598
25.2162
28.4135
19.6914
-6.29296
0.519341
-0.205247
-0.102679
-12.2365
6.76879
12.2085
19.2833
29.2666
0.108192
0.104389
0.0990437
0.0935257
0.0886762
0.0913998
0.10212
0.0976673
0.100099
-7.65878
-6.68865
-5.21043
5.70505
10.1331
13.8812
17.8407
20.1734
16.5056
22.7459
26.9239
18.7992
-6.09651
0.371894
-0.174276
-0.142217
0.00054203
5.30173
8.68192
15.943
26.036
0.112075
0.110533
0.0994302
0.0980422
0.0940089
0.0960058
0.0908944
0.0916124
0.104716
0.0940239
0.0411395
-12.0883
4.68182
7.67343
11.3949
16.4254
18.4518
11.9119
20.3399
24.8952
18.6952
-10.4546
0.229732
-0.157686
-0.155598
-0.0229492
3.74594
5.10714
12.6268
22.509
0.105297
0.0978349
0.0896894
0.0820139
0.0765499
0.0931157
0.0861198
0.0894834
0.0921668
0.054914
0.00310731
0.158063
4.42903
4.80696
8.76561
14.6303
16.3312
8.89891
18.3461
22.4936
18.1026
-0.0634595
0.0909667
-0.150204
-0.157428
-0.0432667
-7.40212
1.68114
9.3584
18.4624
0.0925674
0.0897822
0.0835089
0.0768912
0.0684296
0.47114
0.0785004
0.0776376
0.0712199
0.00925802
-0.0371732
0.0161517
-9.6423
2.58639
6.38703
12.1267
13.2115
6.65649
16.8586
18.9628
9.55804
-0.124203
-0.035043
-0.14641
-0.154736
-0.0616035
-0.0596509
-1.25855
6.23722
13.3614
16.6412
24.3623
-10.7107
-0.221999
-0.118894
-0.102451
-0.136294
-0.0277159
-0.511844
-11.1216
15.8172
18.3348
10.436
9.09855
10.488
-2.89819
-14.5031
0.0253544
0.0618937
-0.00986337
0.00824152
0.0494845
0.0945283
0.11537
0.10865
0.111507
0.0987784
0.090751
0.0879131
0.209539
16.1546
26.9001
-0.46586
-0.214738
-0.1201
-0.105345
-0.134754
-0.0456347
-0.784306
-16.1575
18.2432
16.9498
8.56318
8.75908
10.4438
-8.0924
-0.0640872
0.0410184
0.0519386
-0.0145088
-0.0063182
0.0291611
0.0818722
0.101474
0.0986341
0.121136
0.0885013
0.0794452
0.0770504
0.0930948
12.5793
27.5626
-0.116791
-0.208549
-0.121451
-0.108133
-0.125684
-0.064332
-0.811086
-28.1185
20.2279
17.49
7.6322
7.99355
8.27533
-4.10201
-0.00983329
0.0655625
0.0359979
-0.0197499
-0.00504953
0.0100114
0.0657549
0.0927348
0.0860377
0.0792037
0.0732075
0.0639557
0.0567641
0.084567
12.2673
2.71863
-0.10944
-0.202618
-0.122942
-0.11083
-0.123823
-0.0805041
-2.14075
-1.35657
23.2156
18.2004
7.58093
7.95989
6.65741
-0.128767
-0.0649395
0.0727205
0.0229522
-0.0193814
-0.00835069
-0.00383172
0.046601
0.088647
0.0733825
0.0654578
0.0567148
0.0466482
0.0350551
6.2009
-5.24258
0.0766337
-0.11106
-0.196718
-0.124539
-0.11345
-0.118362
-0.0812979
-2.19995
-7.62409
18.1115
16.8908
7.15977
10.0221
-4.86001
-0.123766
-0.0406966
-0.00263898
0.0108901
-0.0196589
-0.0234882
-0.0113061
0.0305138
0.0592756
0.0588489
0.0492553
0.0396035
0.02961
0.0149605
1.57561
-0.320053
0.00628235
-0.114654
-0.190844
-0.126303
-0.116004
-0.122223
-0.0981031
-2.12669
0.574897
16.2053
13.7532
6.67567
16.6503
0.243131
-0.0550849
-0.0574462
-0.00189904
-0.000711496
-0.019809
-0.024384
-0.0152272
0.0134535
0.0421856
0.0396066
0.0311519
0.0227206
0.0152945
0.00936661
0.0100939
-0.287759
-0.00632674
-0.117446
-0.185052
-0.128244
-0.11851
-0.117861
-0.137158
-1.75639
-0.359079
13.3037
10.3055
5.7358
-4.76447
0.212582
-0.115572
-0.0572065
-0.00469295
-0.0136938
0.023248
-0.0238184
-0.015595
-0.00135054
0.0210343
0.0193498
0.0118417
0.00733222
0.00134124
0.00184491
0.00340733
-0.272501
-0.0174843
-0.119596
-0.179444
-0.130367
-0.120981
-0.127491
-0.12287
-1.12386
-0.630571
11.0778
8.96049
5.02342
-0.239121
0.135169
-0.10637
-0.0530979
-0.0237801
0.114658
-0.0234883
-0.0457326
-0.00850955
-0.0187362
0.00300879
6.40176e-05
-0.00773992
-0.00366832
-0.0106749
-0.0102608
-0.00746707
-0.24787
-0.0340624
-0.121418
-0.174206
-0.132648
-0.123435
-0.126617
-0.105248
-0.56268
-0.495263
-20.9001
4.37062
-0.337492
-0.154799
0.021938
-0.117301
-0.0495728
-0.0392579
0.00924167
-0.0293706
-0.0447269
0.0865064
0.105283
-0.0157438
-0.0164448
-0.0238967
-0.0270468
-0.0249349
-0.0238106
-0.0198923
-0.225643
-0.056822
-0.123105
-0.169502
-0.135067
-0.125893
-0.123766
-0.11146
-0.52795
-0.0907753
-0.074015
-0.509852
-0.224539
-0.147456
-0.0716957
-0.158099
-0.0375518
-0.0163111
-0.0115338
-0.0155502
-0.0269314
-0.018915
-0.00346539
-0.0199908
-0.0278814
-0.0365561
-0.0396337
-0.0392901
-0.036644
-0.0309358
-0.208412
-0.0673369
-0.124737
-0.165432
-0.137611
-0.128387
-0.123996
-0.112655
-0.286284
-0.331897
-0.289254
-0.352785
-0.145763
-0.135156
-0.141312
-0.265259
-0.0151504
-0.0157707
-0.0145848
-0.0167443
-0.0142989
-0.00699312
-0.00928808
-0.0231183
-0.0355954
-0.0439933
-0.048031
-0.0467827
-0.035546
-0.038941
-0.19482
-0.0740871
-0.126451
-0.162194
-0.140275
-0.130962
-0.124758
-0.112271
-0.132296
0.814391
-0.350897
-0.377774
-0.0726762
-0.114378
-0.150251
-0.46887
0.0203411
-0.0163464
-0.0153495
-0.0124557
-0.00166502
-0.00532928
0.000612939
-0.0251924
-0.0381031
-0.0479893
-0.0533705
-0.0538789
-0.0522307
-0.0462989
-0.184284
-0.0809897
-0.128503
-0.159931
-0.143074
-0.133679
-0.125465
-0.112452
-0.121391
0.139615
-0.447165
-0.407183
0.00673627
-0.122668
-0.149118
-0.279814
-0.0361122
-0.0121191
-0.0181241
0.00756708
0.00412134
-0.00664257
-0.0125774
-0.0272513
-0.0388459
-0.0482025
-0.0449846
-0.0540603
-0.0522548
-0.0485778
-0.1758
-0.088664
-0.131233
-0.158754
-0.146033
-0.136603
-0.126985
-0.110488
-0.121199
-0.548037
-0.466107
-0.39278
-0.136431
-0.1195
-0.144277
-0.271579
0.00102995
-0.021189
-0.0190551
-0.00117337
-0.00647895
-0.0112421
-0.0220875
-0.0302197
-0.0398583
-0.047292
-0.0517078
-0.0528601
-0.0515479
-0.0485034
-0.169038
-0.0975661
-0.134922
-0.158707
-0.149191
-0.139794
-0.128784
-0.0998833
-0.109831
-0.023952
-0.377458
-0.35546
-0.170927
-0.133117
-0.147882
-0.158362
-0.0634282
-0.0322994
-0.0238835
-0.0157289
-0.0141601
-0.0171414
-0.0269569
-0.0310311
-0.0446366
-0.0481009
-0.0503563
-0.0511348
-0.0480376
-0.0474958
-0.165348
-0.10735
-0.139658
-0.159717
-0.152608
-0.143321
-0.131015
-0.104865
-0.0973792
0.422556
-0.283841
-0.28761
-0.181108
-0.152503
-0.14836
-0.14446
-0.0785931
-0.0499521
-0.0314796
-0.0303296
-0.0285392
-0.0300073
-0.0363146
-0.0455249
-0.0504788
-0.0507581
-0.0485019
-0.044648
-0.0421159
-0.0580693
-0.162811
-0.1168
-0.145377
-0.161741
-0.156363
-0.147262
-0.134097
-0.107924
-0.0934429
0.210367
-0.201904
-0.196783
-0.187515
-0.170781
-0.159488
-0.136639
-0.0838039
-0.0654771
-0.0518953
-0.0488378
-0.0456582
-0.045191
-0.0482959
-0.0532137
-0.0563962
-0.0553929
-0.0521668
-0.0468558
0.0421601
0.265437
-0.162752
-0.127126
-0.151964
-0.164744
-0.160547
-0.15171
-0.138165
-0.114067
-0.0957326
0.0436906
-0.113117
-0.10186
-0.196643
-0.193546
-0.177762
-0.152973
-0.0900879
-0.0855791
-0.0754316
-0.068209
-0.0638705
-0.0608904
-0.060829
-0.0630685
-0.0654309
-0.0644719
-0.0631861
-0.0636205
-0.064123
-0.0653634
-0.167215
-0.137415
-0.159332
-0.168708
-0.165265
-0.156779
-0.143244
-0.120972
-0.102883
-0.0459011
-0.071467
-0.13989
-0.214002
-0.231039
-0.208327
-0.172379
-0.133814
-0.109142
-0.0958949
-0.0876757
-0.080497
-0.0597216
-0.077088
-0.0779283
-0.0765573
-0.0710218
-0.0730619
-0.0711104
-0.0688121
-0.0660085
-0.174429
-0.150904
-0.167434
-0.173633
-0.170633
-0.162591
-0.149549
-0.130093
-0.1112
-0.086151
-0.0832616
-0.135037
-0.243774
-0.27659
-0.25372
-0.199501
-0.159584
-0.132144
-0.11646
-0.106818
-0.0988534
-0.0645226
-0.0969758
-0.0941465
-0.0914079
-0.0891453
-0.0867227
-0.0834789
-0.0805455
-0.0778735
-0.188935
-0.169615
-0.17621
-0.17953
-0.176765
-0.169279
-0.157147
-0.140291
-0.123177
-0.10697
-0.101388
-0.12852
-0.272269
-0.31486
-0.299293
-0.236722
-0.183308
-0.151781
-0.135787
-0.126338
-0.120721
-0.117158
-0.113245
-0.110057
-0.107194
-0.104424
-0.101636
-0.0988521
-0.0961849
-0.0936864
-0.217724
-0.199677
-0.185504
-0.18642
-0.183777
-0.176972
-0.166248
-0.152122
-0.137747
-0.12703
-0.143742
0.0271795
-0.274236
-0.330699
-0.322743
-0.261524
-0.201316
-0.167461
-0.152402
-0.144447
-0.139173
-0.134797
-0.130889
-0.127496
-0.124441
-0.121572
-0.118835
-0.116247
-0.113847
-0.111668
-0.246274
-0.249259
-0.19501
-0.194335
-0.191785
-0.185808
-0.176895
-0.165785
-0.155726
-0.153557
-0.174766
-0.187898
-0.271563
-0.314981
-0.310689
-0.260308
-0.206068
-0.17651
-0.165317
-0.161966
-0.158735
-0.155686
-0.152435
-0.149133
-0.145973
-0.143045
-0.14038
-0.137992
-0.135889
-0.134078
-0.224944
-0.226754
-0.204546
-0.203315
-0.200897
-0.195907
-0.188487
-0.182022
-0.178292
-0.184704
-0.203237
-0.22827
-0.264011
-0.285088
-0.274942
-0.239564
-0.203452
-0.186274
-0.177335
-0.179889
-0.181276
-0.181667
-0.180619
-0.178603
-0.17598
-0.173136
-0.170569
-0.168481
-0.166911
-0.165846
-0.220282
-0.2166
-0.214482
-0.213411
-0.21121
-0.207354
-0.203656
-0.201265
-0.206046
-0.22821
-0.234687
-0.24525
-0.259971
-0.256248
-0.254423
-0.22839
-0.208755
-0.199608
-0.199497
-0.197911
-0.209058
-0.21357
-0.216772
-0.217259
-0.216149
-0.214264
-0.212316
-0.210461
-0.209092
-0.208325
-0.226464
-0.220705
-0.225431
-0.224679
-0.222801
-0.220215
-0.219415
-0.222668
-0.251308
-0.303316
-0.273371
-0.260042
-0.258419
-0.258681
-0.251216
-0.23614
-0.226885
-0.224341
-0.229554
-0.232714
-0.241669
-0.251368
-0.252757
-0.25857
-0.25987
-0.259377
-0.259564
-0.257527
-0.255321
-0.253994
-0.238378
-0.232114
-0.237697
-0.237198
-0.235723
-0.234375
-0.236019
-0.246736
-0.294571
-0.389016
-0.318574
-0.274587
-0.264066
-0.260521
-0.258284
-0.250051
-0.246458
-0.248937
-0.241224
-0.254558
-0.272486
-0.279355
-0.28458
-0.287592
-0.289989
-0.288696
-0.284861
-0.282017
-0.285137
-0.286147
-0.2532
-0.247119
-0.251371
-0.251053
-0.250002
-0.24963
-0.252828
-0.266763
-0.303892
-0.400794
-0.336354
-0.287802
-0.274275
-0.269078
-0.208367
-0.26197
-0.261972
-0.26696
-0.245539
-0.271331
-0.233177
-0.273411
-0.289415
-0.297382
-0.304777
-0.311487
-0.312959
-0.311432
-0.310446
-0.309896
-0.269685
-0.263942
-0.266549
-0.266337
-0.26568
-0.265821
-0.269088
-0.281117
-0.296339
-0.327095
-0.326938
-0.301075
-0.290023
-0.28381
-0.280075
-0.277629
-0.279528
-0.284275
-0.286922
-0.286544
-0.286789
-0.289697
-0.295377
-0.30538
-0.331891
-0.32049
-0.315433
-0.31229
-0.310218
-0.307983
-0.287454
-0.282257
-0.283251
-0.283141
-0.282855
-0.282982
-0.284612
-0.289649
-0.293336
-0.305137
-0.320855
-0.31975
-0.311749
-0.303817
-0.297948
-0.294411
-0.293624
-0.296224
-0.300399
-0.303413
-0.30036
-0.297201
-0.296768
-0.295641
-0.295882
-0.284754
-0.298729
-0.299339
-0.299325
-0.299282
0.09316
0.0820137
0.0746843
0.0718915
0.0659478
0.068272
0.0661767
0.0646295
0.0552276
-0.0114064
-0.0560869
0.0213524
0.193093
3.81587
4.36759
10.4029
11.3913
3.64485
15.4917
16.1564
6.78453
0.743014
-0.120119
-0.144527
-0.151901
-0.0728877
-0.0534046
-0.569621
3.93931
7.99086
0.0934499
0.0736857
0.0655562
0.0689869
0.0592933
0.0597521
0.0584415
0.0559492
0.0451217
-0.016609
-0.0571189
0.0144487
0.220639
0.475912
3.40574
10.2906
8.84591
-0.200308
14.6871
15.0693
11.4192
2.70663
-0.16264
-0.143532
-0.150183
-0.078878
-0.0548621
-0.0723285
2.55552
4.292
0.0951274
0.0681092
0.0495337
0.145131
0.0475482
0.0518441
0.0503915
0.0469748
0.0342897
-0.0169434
-0.0551235
0.0132474
0.215456
0.0561612
-5.78342
7.58639
7.33111
0.256973
12.4029
14.1663
16.2722
-0.416106
-0.192254
-0.142013
-0.148453
-0.0844104
-0.0585826
-0.0820475
0.361329
0.369303
0.0231232
0.0550838
0.0537403
0.0980073
0.0420111
0.0448019
0.0424669
0.0381566
0.0269866
-0.0127733
-0.0451917
0.027404
0.14036
-0.00325742
0.356494
4.65179
6.30978
-3.06835
11.0566
14.3233
14.9417
-0.462847
-0.195829
-0.140033
-0.146767
-0.0895196
-0.0633077
-0.0902438
-0.092365
-3.1046
-0.036988
0.0362922
0.0416969
0.0417026
0.0348731
0.0382907
0.0348005
0.0294651
0.0214922
-0.00641696
-0.0298875
0.0149919
0.101393
-0.039422
0.21462
-6.59495
5.55727
-3.38138
12.481
13.2249
24.5827
-0.611988
-0.166883
-0.137909
-0.145234
-0.0942968
-0.0682876
-0.0964931
-0.102885
-3.93302
0.0161329
0.023342
0.0289053
0.0293304
0.0279782
0.0353065
0.0276632
0.0208336
0.0171728
-0.000374953
-0.013603
0.0137477
0.0620255
-0.0722286
0.349327
-0.335449
3.11701
-3.44397
15.2233
13.0616
-12.9421
-0.168529
-0.115972
-0.135575
-0.143946
-0.0988201
-0.0733536
-0.101399
-0.105706
-0.73627
0.00722543
0.01242
0.0170539
0.0181022
0.0130522
0.0272149
0.0336115
0.0122968
0.0134408
0.00320335
-0.00278012
0.00905077
0.0253882
-0.0862433
2.55332
-0.341327
-0.200411
-2.28325
15.4425
10.9579
-1.44696
-0.15789
-0.085557
-0.13336
-0.142982
-0.103191
-0.078562
-0.105672
-0.111323
-0.654297
-0.00371372
0.000972343
0.00619227
0.0151412
1.57134
-0.0031298
0.003757
0.0164713
0.0109292
0.00281312
0.00197384
0.00659094
-0.0107821
-0.0881591
0.929465
0.0163806
-0.19802
-0.247492
14.6053
7.91816
-0.720652
-0.210638
-0.0692049
-0.131454
-0.142414
-0.107496
-0.0839133
-0.109754
-0.117864
-0.556009
-0.0155841
-0.010978
-0.00613035
-0.00589211
0.394249
-0.00151313
-0.00149264
0.00360096
-0.00337058
-0.00138745
0.000896357
-0.0083572
-0.0342224
-0.0899832
1.87463
-0.0991607
-0.0381477
-0.251473
-0.306031
-0.406734
-0.79455
-0.525458
-0.0694047
-0.130734
-0.142312
-0.111814
-0.0895495
-0.114471
-0.124642
-0.47486
-0.0265281
-0.021548
-0.0171652
-0.0105869
-0.0060915
-0.00177694
-0.00490883
-0.00573358
-0.0112162
-0.00862186
-0.00494377
-0.0203422
-0.0499524
-0.107143
-0.0389319
-0.200435
-0.0815197
-0.243441
-0.312137
-0.404426
-0.628767
-0.571413
-0.0720871
-0.131112
-0.142741
-0.11622
-0.0955367
-0.119101
-0.131259
-0.408942
-0.0346681
-0.0293288
-0.0232049
-0.0156454
-0.0112116
-0.0101261
-0.0113554
-0.014154
-0.0184243
-0.0193627
0.011523
-0.0279885
-0.0596662
-0.105952
-0.128085
-0.150988
-0.0664736
-0.248765
-0.307497
-0.393957
-0.555218
-0.574636
-0.0695803
-0.13287
-0.143773
-0.120796
-0.101888
-0.123546
-0.137434
-0.354768
-0.0410405
-0.0353344
-0.0289301
-0.0229233
-0.0144512
-0.0169882
-0.0179034
-0.021398
-0.0247472
-0.0274066
-0.0272048
-0.0362207
-0.0668119
-0.095472
-0.137436
-0.162183
-0.218064
-0.248653
-0.328124
-0.385993
-0.511616
-0.510744
-0.0836454
-0.136125
-0.145471
-0.125609
-0.108605
-0.127845
-0.143143
-0.310119
-0.0438021
-0.0385566
-0.0326477
-0.0265701
-0.022598
-0.0135017
-0.0216948
-0.0253698
-0.0298938
-0.0351058
-0.0403065
-0.0468555
-0.0713174
-0.102897
-0.148951
-0.189536
-0.235686
-0.246497
-0.348471
-0.380239
-0.389205
-0.447929
-0.0953081
-0.14087
-0.147888
-0.130713
-0.115665
-0.132175
-0.148479
-0.273585
-0.0448426
-0.0400729
-0.0340505
-0.02704
-0.0224029
-0.0219821
-0.0218594
-0.0240306
-0.0349012
-0.0407974
-0.0474674
-0.0564147
-0.0723269
-0.104413
-0.145603
-0.191323
-0.234067
-0.223018
-0.32701
-0.385933
-0.288664
-0.420917
-0.123215
-0.147035
-0.151066
-0.136158
-0.12305
-0.136784
-0.15357
-0.244599
-0.0464367
-0.0412291
-0.0335055
-0.0280722
-0.022375
-0.025374
-0.028946
-0.035516
-0.041647
-0.0475681
-0.0572537
-0.0522396
-0.0764611
-0.109143
-0.150294
-0.205263
-0.242915
-0.267563
-0.324542
-0.378076
-0.296812
-0.414735
-0.153003
-0.154441
-0.155035
-0.14198
-0.130723
-0.14184
-0.158553
-0.222851
-0.0520648
-0.0453657
-0.0350048
-0.0328407
-0.0310065
-0.0322979
-0.0346484
-0.0411538
-0.0495479
-0.0525542
-0.0629314
-0.0713854
-0.0924342
-0.119658
-0.157658
-0.2156
-0.260091
-0.072924
-0.258927
-0.397131
-0.19555
-0.409587
-0.180228
-0.16277
-0.159803
-0.148207
-0.138646
-0.147467
-0.163574
-0.207664
0.174428
-0.0422572
-0.0350523
-0.0337369
-0.0530584
-0.0395734
-0.0309456
1.7908
-0.0364736
-0.0555918
-0.0674996
-0.0859709
-0.103539
-0.123335
-0.146878
-0.235819
-0.275201
-0.139675
-0.311011
-0.376665
-0.261558
-0.376246
-0.199841
-0.171605
-0.165355
-0.15486
-0.1468
-0.1537
-0.168743
-0.198049
-0.059187
-0.0517471
-0.0474822
-0.0516773
-0.00259503
-0.0380895
0.0203324
-0.0354431
-0.0447078
-0.0546538
-0.0698614
-0.0913941
-0.115367
-0.12739
-0.175752
-0.24214
-0.286609
-0.294215
-0.301693
-0.383795
-0.292808
-0.249627
-0.21217
-0.18051
-0.171647
-0.161962
-0.155166
-0.160524
-0.174148
-0.192887
-0.062996
-0.06005
-0.056964
-0.0529982
-0.0477402
-0.0438142
-0.0415729
-0.0422002
-0.0409731
-0.0559856
-0.0729139
-0.0984138
-0.129724
-0.153606
-0.190431
-0.247777
-0.29265
-0.353319