/*--------------------------------*- C++ -*----------------------------------*\
| =========                 |                                                 |
| \\      /  F ield         | OpenFOAM: The Open Source CFD Toolbox           |
|  \\    /   O peration     | Version:  2.4.0                                 |
|   \\  /    A nd           | Web:      www.OpenFOAM.org                      |
|    \\/     M anipulation  |                                                 |
\*---------------------------------------------------------------------------*/
FoamFile
{
    version     2.0;
    format      ascii;
    class       surfaceScalarField;
    location    "0.162";
    object      phi;
}
// * * * * * * * * * * * * * * * * * * * * * * * * * * * * * * * * * * * * * //

dimensions      [0 3 -1 0 0 0 0];

internalField   nonuniform List<scalar> 
114720
(
3.30714e-09
-2.58733e-09
-5.56804e-09
4.84822e-09
-1.03092e-08
1.3519e-08
1.71754e-09
-4.92733e-09
-1.98551e-08
2.1284e-08
4.40045e-10
-1.86896e-09
-2.5514e-08
2.6684e-08
3.45536e-10
-1.51545e-09
-2.93254e-08
2.97387e-08
2.17367e-11
-4.35001e-10
-2.97238e-08
2.94227e-08
-2.8737e-10
5.88481e-10
-2.78737e-08
2.70776e-08
-5.30573e-10
1.32671e-09
-2.28678e-08
2.07918e-08
-1.14409e-09
3.22003e-09
-1.17399e-08
8.32446e-09
-1.57008e-09
4.98551e-09
2.58876e-09
-5.73911e-09
-1.15043e-09
4.30079e-09
1.36432e-08
-1.54206e-08
-4.38465e-10
2.2159e-09
1.89334e-08
-1.94951e-08
4.54129e-11
5.16322e-10
2.0112e-08
-2.00574e-08
2.28946e-10
-2.83535e-10
1.95102e-08
-1.92799e-08
2.29602e-10
-4.5994e-10
1.85238e-08
-1.8288e-08
1.73962e-10
-4.09809e-10
1.75567e-08
-1.73226e-08
1.29956e-10
-3.64107e-10
1.65316e-08
-1.62572e-08
1.15359e-10
-3.89714e-10
1.53001e-08
-1.49689e-08
1.1828e-10
-4.49504e-10
1.38486e-08
-1.34748e-08
1.23511e-10
-4.97321e-10
1.22555e-08
-1.1862e-08
1.25193e-10
-5.1868e-10
1.06153e-08
-1.0223e-08
1.22139e-10
-5.14469e-10
9.00646e-09
-8.63113e-09
1.14943e-10
-4.90277e-10
7.48639e-09
-7.13848e-09
1.04679e-10
-4.52592e-10
6.0917e-09
-5.77797e-09
9.23575e-11
-4.06082e-10
4.84309e-09
-4.56514e-09
7.96966e-11
-3.57646e-10
3.74318e-09
-3.50005e-09
6.76492e-11
-3.10784e-10
2.78228e-09
-2.57001e-09
5.73529e-11
-2.69623e-10
1.94272e-09
-1.75668e-09
4.90343e-11
-2.35074e-10
1.20496e-09
-1.04079e-09
4.25414e-11
-2.06715e-10
5.51005e-10
-4.04669e-10
3.75597e-11
-1.83896e-10
-1.14114e-09
-1.17866e-08
1.06783e-08
2.24944e-09
-1.27021e-08
1.20109e-08
1.59321e-08
-1.52409e-08
-2.65433e-08
1.0384e-08
2.98894e-08
-1.37301e-08
-3.94902e-08
7.99871e-09
4.23793e-08
-1.08879e-08
-4.96166e-08
3.204e-09
5.12953e-08
-4.88266e-09
-5.46523e-08
-1.87995e-10
5.53699e-08
-5.29517e-10
-5.64942e-08
-3.60402e-09
5.64059e-08
3.69233e-09
-5.33558e-08
-1.21877e-08
5.11453e-08
1.43982e-08
-4.05241e-08
-1.96696e-08
3.59241e-08
2.42696e-08
-2.00244e-08
-1.8849e-08
1.46124e-08
2.42609e-08
1.01422e-09
-1.22956e-08
-5.57595e-09
1.68573e-08
1.72229e-08
-5.8995e-09
-2.02768e-08
8.95338e-09
2.7548e-08
-2.15293e-09
-2.93383e-08
3.94321e-09
3.33569e-08
-4.48346e-10
-3.42624e-08
1.35388e-09
3.6002e-08
4.25351e-10
-3.62766e-08
-1.50803e-10
3.63471e-08
1.14989e-09
-3.61428e-08
-1.35414e-09
3.49345e-08
1.86679e-09
-3.43769e-08
-2.42438e-09
3.23059e-08
2.41463e-09
-3.15357e-08
-3.18477e-09
2.90038e-08
2.71947e-09
-2.81365e-08
-3.58676e-09
2.54358e-08
2.81799e-09
-2.45473e-08
-3.70653e-09
2.18612e-08
2.76737e-09
-2.09983e-08
-3.63024e-09
1.84388e-08
2.61709e-09
-1.76303e-08
-3.42556e-09
1.52657e-08
2.4052e-09
-1.45284e-08
-3.14253e-09
1.23965e-08
2.16073e-09
-1.17387e-08
-2.81851e-09
9.85275e-09
1.91078e-09
-9.27519e-09
-2.48834e-09
7.6281e-09
1.6753e-09
-7.12539e-09
-2.17801e-09
5.69193e-09
1.46912e-09
-5.25374e-09
-1.90731e-09
4.00059e-09
1.29474e-09
-3.61578e-09
-1.67955e-09
2.5095e-09
1.15106e-09
-2.16749e-09
-1.49307e-09
1.17909e-09
1.02968e-09
-8.72408e-10
-1.33636e-09
-3.45742e-10
-1.46564e-08
1.40833e-08
9.18835e-10
-9.84219e-09
2.47436e-08
1.29463e-08
-2.78478e-08
-2.37241e-08
2.40972e-08
2.72047e-08
-2.75778e-08
-3.74163e-08
2.01436e-08
4.05677e-08
-2.3295e-08
-4.87277e-08
1.06428e-08
5.07294e-08
-1.26445e-08
-5.51153e-08
3.44211e-09
5.61914e-08
-4.51824e-09
-5.85343e-08
-3.00617e-09
5.89221e-08
2.61836e-09
-5.76434e-08
-1.96784e-08
5.61214e-08
2.12004e-08
-4.80669e-08
-3.63195e-08
4.44318e-08
3.99546e-08
-3.16881e-08
-3.90224e-08
2.72682e-08
4.34424e-08
-1.39157e-08
-3.0413e-08
9.7325e-09
3.45961e-08
1.96781e-09
-1.92143e-08
-5.36381e-09
2.26103e-08
1.42222e-08
-1.06783e-08
-1.66095e-08
1.30655e-08
2.23592e-08
-5.07073e-09
-2.37562e-08
6.4677e-09
2.67091e-08
-1.21458e-09
-2.72939e-08
1.79937e-09
2.81348e-08
1.69137e-09
-2.81478e-08
-1.67828e-09
2.7572e-08
3.89582e-09
-2.72211e-08
-4.24678e-09
2.57953e-08
5.28568e-09
-2.52398e-08
-5.84111e-09
2.33629e-08
5.96465e-09
-2.27063e-08
-6.62129e-09
2.06258e-08
6.14959e-09
-1.99305e-08
-6.84489e-09
1.77995e-08
6.01011e-09
-1.71063e-08
-6.7033e-09
1.50285e-08
5.65996e-09
-1.43662e-08
-6.32221e-09
1.24169e-08
5.17904e-09
-1.18061e-08
-5.78977e-09
1.00376e-08
4.62608e-09
-9.49246e-09
-5.17125e-09
7.93659e-09
4.0585e-09
-7.46371e-09
-4.53137e-09
6.12954e-09
3.5239e-09
-5.72753e-09
-3.92591e-09
4.59683e-09
3.0613e-09
-4.25603e-09
-3.4021e-09
3.29276e-09
2.68054e-09
-2.99991e-09
-2.9734e-09
2.16273e-09
2.37814e-09
-1.90465e-09
-2.63622e-09
1.15821e-09
2.13019e-09
-9.2604e-10
-2.36236e-09
-2.46593e-11
-1.66194e-08
1.61514e-08
4.92711e-10
-9.19629e-09
3.70354e-08
1.22244e-08
-4.00634e-08
-2.30386e-08
3.80287e-08
2.65252e-08
-4.15152e-08
-3.67865e-08
3.28005e-08
3.99695e-08
-3.59835e-08
-4.82073e-08
1.86619e-08
5.0208e-08
-2.06627e-08
-5.45893e-08
7.80682e-09
5.56902e-08
-8.90773e-09
-5.82205e-08
-1.26805e-09
5.87175e-08
7.71139e-10
-5.77988e-08
-2.55742e-08
5.6363e-08
2.701e-08
-4.85888e-08
-5.05421e-08
4.50607e-08
5.40702e-08
-3.29562e-08
-5.59399e-08
2.88845e-08
6.00116e-08
-1.70185e-08
-4.61214e-08
1.34044e-08
4.97355e-08
-3.36502e-09
-3.20974e-08
4.31219e-10
3.50312e-08
7.38368e-09
-1.99735e-08
-9.55791e-09
2.21477e-08
1.50323e-08
-1.07448e-08
-1.64547e-08
1.21672e-08
1.97728e-08
-3.86307e-09
-2.05531e-08
4.64331e-09
2.21499e-08
1.19359e-09
-2.24488e-08
-8.94662e-10
2.28039e-08
4.79899e-09
-2.27626e-08
-4.84028e-09
2.22485e-08
7.03906e-09
-2.19716e-08
-7.31593e-09
2.08685e-08
8.2e-09
-2.04376e-08
-8.63087e-09
1.89666e-08
8.62157e-09
-1.84458e-08
-9.1423e-09
1.67804e-08
8.54514e-09
-1.62196e-08
-9.10592e-09
1.44917e-08
8.13062e-09
-1.39276e-08
-8.69481e-09
1.22326e-08
7.49247e-09
-1.16913e-08
-8.03369e-09
1.00961e-08
6.71736e-09
-9.59551e-09
-7.2179e-09
8.14213e-09
5.89237e-09
-7.6925e-09
-6.342e-09
6.40166e-09
5.09743e-09
-6.00565e-09
-5.49344e-09
4.8727e-09
4.40612e-09
-4.52546e-09
-4.75336e-09
3.52904e-09
3.84419e-09
-3.22174e-09
-4.1515e-09
2.33336e-09
3.40952e-09
-2.05674e-09
-3.68613e-09
1.2511e-09
3.06243e-09
-9.98989e-10
-3.31454e-09
1.29472e-10
-1.82434e-08
1.78724e-08
2.41497e-10
-9.10679e-09
4.90452e-08
1.20651e-08
-5.20036e-08
-2.29378e-08
5.19806e-08
2.64274e-08
-5.54702e-08
-3.67383e-08
4.55819e-08
3.99567e-08
-4.88002e-08
-4.82798e-08
2.6648e-08
5.027e-08
-2.86382e-08
-5.45804e-08
1.22105e-08
5.5681e-08
-1.3311e-08
-5.83392e-08
8.66062e-10
5.89399e-08
-1.46671e-09
-5.83384e-08
-3.1281e-08
5.69297e-08
3.26897e-08
-4.90539e-08
-6.48153e-08
4.54079e-08
6.84613e-08
-3.29287e-08
-7.23059e-08
2.87703e-08
7.64643e-08
-1.68962e-08
-6.03285e-08
1.3383e-08
6.38417e-08
-3.92303e-09
-4.33778e-08
1.23355e-09
4.60672e-08
5.85295e-09
-2.83338e-08
-7.83354e-09
3.03144e-08
1.29665e-08
-1.63995e-08
-1.43692e-08
1.78022e-08
1.78764e-08
-7.19705e-09
-1.87808e-08
8.1014e-09
2.08486e-08
-2.95743e-10
-2.13122e-08
7.59355e-10
2.21465e-08
4.69916e-09
-2.22461e-08
-4.59959e-09
2.20991e-08
7.94777e-09
-2.19226e-08
-8.12428e-09
2.1071e-08
9.78485e-09
-2.07075e-08
-1.01483e-08
1.9409e-08
1.06052e-08
-1.89364e-08
-1.10777e-08
1.73985e-08
1.07141e-08
-1.68741e-08
-1.12385e-08
1.52457e-08
1.03306e-08
-1.47105e-08
-1.08658e-08
1.30919e-08
9.61817e-09
-1.25713e-08
-1.01388e-08
1.10223e-08
8.70218e-09
-1.05307e-08
-9.19382e-09
9.08137e-09
7.70057e-09
-8.62482e-09
-8.15711e-09
7.28584e-09
6.71998e-09
-6.86533e-09
-7.14049e-09
5.63283e-09
5.85811e-09
-5.24577e-09
-6.24517e-09
4.11118e-09
5.15137e-09
-3.75449e-09
-5.50806e-09
2.70825e-09
4.59916e-09
-2.37887e-09
-4.92854e-09
1.41301e-09
4.15163e-09
-1.10966e-09
-4.45498e-09
3.1866e-10
-1.95451e-08
1.9259e-08
-3.26176e-11
-9.09597e-09
6.0766e-08
1.19778e-08
-6.36477e-08
-2.2909e-08
6.59396e-08
2.63979e-08
-6.94285e-08
-3.67707e-08
5.85227e-08
4.00362e-08
-6.17883e-08
-4.84798e-08
3.45943e-08
5.04595e-08
-3.65741e-08
-5.46798e-08
1.66092e-08
5.57771e-08
-1.77065e-08
-5.85905e-08
3.46106e-09
5.9326e-08
-4.19654e-09
-5.91604e-08
-3.68578e-08
5.7793e-08
3.82253e-08
-4.98223e-08
-7.96151e-08
4.6027e-08
8.34104e-08
-3.30247e-08
-8.91715e-08
2.87073e-08
9.34889e-08
-1.64715e-08
-7.44632e-08
1.28919e-08
7.80428e-08
-3.41381e-09
-5.40305e-08
7.7156e-10
5.66727e-08
6.1017e-09
-3.61269e-08
-8.01457e-09
3.80398e-08
1.30297e-08
-2.20039e-08
-1.44308e-08
2.3405e-08
1.80306e-08
-1.09085e-08
-1.89868e-08
1.18648e-08
2.12282e-08
-2.25008e-09
-2.17437e-08
2.76556e-09
2.26979e-08
4.24358e-09
-2.28227e-08
-4.11871e-09
2.2716e-08
8.63405e-09
-2.25432e-08
-8.8068e-09
2.16879e-08
1.12329e-08
-2.13209e-08
-1.16e-08
2.00073e-08
1.24937e-08
-1.95291e-08
-1.29719e-08
1.79765e-08
1.28099e-08
-1.74483e-08
-1.33382e-08
1.58107e-08
1.24677e-08
-1.52733e-08
-1.30051e-08
1.36501e-08
1.16966e-08
-1.31282e-08
-1.22185e-08
1.15744e-08
1.06689e-08
-1.10801e-08
-1.11632e-08
9.61716e-09
9.53698e-09
-9.15369e-09
-1.00005e-08
7.78427e-09
8.42566e-09
-7.35062e-09
-8.85931e-09
6.06867e-09
7.4424e-09
-5.66249e-09
-7.84858e-09
4.463e-09
6.62273e-09
-4.08326e-09
-7.00247e-09
2.96284e-09
5.96494e-09
-2.60822e-09
-6.31956e-09
1.56429e-09
5.41315e-09
-1.23527e-09
-5.74217e-09
5.67336e-10
-2.0034e-08
1.99998e-08
-5.33102e-10
-9.08932e-09
7.21722e-08
1.18896e-08
-7.49725e-08
-2.28825e-08
7.98886e-08
2.6366e-08
-8.33721e-08
-3.68161e-08
7.16709e-08
4.0142e-08
-7.49968e-08
-4.87414e-08
4.24938e-08
5.07072e-08
-4.44597e-08
-5.48069e-08
2.0988e-08
5.58959e-08
-2.2077e-08
-5.88906e-08
6.64346e-09
5.97933e-08
-7.54612e-09
-6.01928e-08
-4.22543e-08
5.88759e-08
4.35712e-08
-5.0807e-08
-9.50607e-08
4.68265e-08
9.90412e-08
-3.32006e-08
-1.06706e-07
2.87011e-08
1.11205e-07
-1.6048e-08
-8.89176e-08
1.23761e-08
9.25896e-08
-2.74668e-09
-6.46101e-08
9.29224e-11
6.72639e-08
6.75226e-09
-4.37483e-08
-8.64969e-09
4.56457e-08
1.36462e-08
-2.76168e-08
-1.50541e-08
2.90248e-08
1.87069e-08
-1.47708e-08
-1.96862e-08
1.575e-08
2.19934e-08
-4.33784e-09
-2.2524e-08
4.86851e-09
2.3493e-08
3.75018e-09
-2.36118e-08
-3.63138e-09
2.34612e-08
9.35178e-09
-2.32687e-08
-9.5443e-09
2.23462e-08
1.27327e-08
-2.1956e-08
-1.31228e-08
2.05722e-08
1.44375e-08
-2.00712e-08
-1.49385e-08
1.84498e-08
1.49517e-08
-1.78994e-08
-1.5502e-08
1.61958e-08
1.46439e-08
-1.56378e-08
-1.52019e-08
1.39547e-08
1.3807e-08
-1.34146e-08
-1.4347e-08
1.18103e-08
1.26642e-08
-1.13015e-08
-1.3173e-08
9.80094e-09
1.14045e-08
-9.32755e-09
-1.18779e-08
7.9361e-09
1.01687e-08
-7.49794e-09
-1.06069e-08
6.2101e-09
9.07052e-09
-5.80448e-09
-9.47614e-09
4.61161e-09
8.14331e-09
-4.23508e-09
-8.51984e-09
3.12448e-09
7.38643e-09
-2.77229e-09
-7.73862e-09
1.73053e-09
6.73701e-09
-1.40002e-09
-7.06751e-09
8.84389e-10
-1.95702e-08
1.97794e-08
-1.09353e-09
-9.07814e-09
8.3244e-08
1.17911e-08
-8.5957e-08
-2.28441e-08
9.38045e-08
2.63137e-08
-9.72741e-08
-3.68544e-08
8.50808e-08
4.02545e-08
-8.84809e-08
-4.90468e-08
5.03299e-08
5.09932e-08
-5.22764e-08
-5.49326e-08
2.53218e-08
5.60049e-08
-2.6394e-08
-5.92031e-08
1.05435e-08
6.03056e-08
-1.1646e-08
-6.14205e-08
-4.74362e-08
6.0162e-08
4.86947e-08
-5.19887e-08
-1.11313e-07
4.77766e-08
1.15525e-07
-3.3399e-08
-1.2501e-07
2.86878e-08
1.29722e-07
-1.55702e-08
-1.03751e-07
1.17994e-08
1.07522e-07
-2.00604e-09
-7.52564e-08
-6.65513e-10
7.7928e-08
7.50105e-09
-5.13262e-08
-9.39013e-09
5.32153e-08
1.43857e-08
-3.32637e-08
-1.58046e-08
3.46825e-08
1.9517e-08
-1.8721e-08
-2.05201e-08
1.97242e-08
2.28945e-08
-6.48118e-09
-2.34404e-08
7.02714e-09
2.442e-08
3.28911e-09
-2.45295e-08
-3.17961e-09
2.43193e-08
1.01598e-08
-2.41004e-08
-1.03787e-08
2.30886e-08
1.43363e-08
-2.26684e-08
-1.47565e-08
2.11914e-08
1.64857e-08
-2.06594e-08
-1.70176e-08
1.89414e-08
1.71988e-08
-1.83589e-08
-1.77814e-08
1.65565e-08
1.69214e-08
-1.59663e-08
-1.75115e-08
1.41883e-08
1.60087e-08
-1.36187e-08
-1.65783e-08
1.19319e-08
1.47325e-08
-1.13993e-08
-1.52651e-08
9.8397e-09
1.33178e-08
-9.35218e-09
-1.38053e-08
7.93608e-09
1.19238e-08
-7.49636e-09
-1.23635e-08
6.22376e-09
1.06784e-08
-5.82935e-09
-1.10728e-08
4.68621e-09
9.62381e-09
-4.32982e-09
-9.9802e-09
3.28548e-09
8.76869e-09
-2.95461e-09
-9.09957e-09
1.96845e-09
8.04277e-09
-1.65153e-09
-8.35969e-09
1.2779e-09
-1.80557e-08
1.8541e-08
-1.76311e-09
-9.07065e-09
9.39585e-08
1.16901e-08
-9.65779e-08
-2.28025e-08
1.0765e-07
2.62469e-08
-1.11094e-07
-3.68962e-08
9.8813e-08
4.03875e-08
-1.02304e-07
-4.94195e-08
5.808e-08
5.13404e-08
-6.00009e-08
-5.50726e-08
2.95728e-08
5.61165e-08
-3.06168e-08
-5.95373e-08
1.52923e-08
6.08721e-08
-1.66271e-08
-6.28828e-08
-5.23757e-08
6.16886e-08
5.357e-08
-5.34041e-08
-1.28578e-07
4.89011e-08
1.33081e-07
-3.36176e-08
-1.44216e-07
2.86584e-08
1.49175e-07
-1.50104e-08
-1.18996e-07
1.11295e-08
1.22877e-07
-1.16598e-09
-8.59618e-08
-1.51684e-09
8.86446e-08
8.32169e-09
-5.88635e-08
-1.01959e-08
6.07377e-08
1.51856e-08
-3.89605e-08
-1.66195e-08
4.03944e-08
2.04181e-08
-2.27827e-08
-2.14566e-08
2.38213e-08
2.39328e-08
-8.69894e-09
-2.45037e-08
9.26989e-09
2.5512e-08
2.86413e-09
-2.56129e-08
-2.76322e-09
2.5331e-08
1.10825e-08
-2.50793e-08
-1.13343e-08
2.39595e-08
1.60693e-08
-2.35033e-08
-1.65254e-08
2.19161e-08
1.86669e-08
-2.13476e-08
-1.92354e-08
1.95132e-08
1.95862e-08
-1.88913e-08
-2.02081e-08
1.69674e-08
1.93398e-08
-1.63373e-08
-1.99699e-08
1.44393e-08
1.83416e-08
-1.38319e-08
-1.8949e-08
1.20379e-08
1.69075e-08
-1.14739e-08
-1.74715e-08
9.83376e-09
1.52957e-08
-9.32614e-09
-1.58033e-08
7.87237e-09
1.36867e-08
-7.42897e-09
-1.41301e-08
6.17487e-09
1.22325e-08
-5.79654e-09
-1.26108e-08
4.7319e-09
1.10022e-08
-4.40979e-09
-1.13243e-08
3.48738e-09
1.00363e-08
-3.19898e-09
-1.03247e-08
2.33218e-09
9.27118e-09
-2.04627e-09
-9.55709e-09
1.75752e-09
-1.53273e-08
1.61339e-08
-2.56416e-09
-9.07515e-09
1.04285e-07
1.15916e-08
-1.06802e-07
-2.2757e-08
1.21373e-07
2.61615e-08
-1.24777e-07
-3.69388e-08
1.12938e-07
4.05405e-08
-1.16539e-07
-4.98675e-08
6.57167e-08
5.17553e-08
-6.76045e-08
-5.52225e-08
3.36878e-08
5.6222e-08
-3.46872e-08
-5.98786e-08
2.10158e-08
6.14756e-08
-2.26129e-08
-6.46005e-08
-5.70509e-08
6.34748e-08
5.81766e-08
-5.50763e-08
-1.47111e-07
5.02089e-08
1.51978e-07
-3.38452e-08
-1.64471e-07
2.85988e-08
1.69717e-07
-1.435e-08
-1.347e-07
1.03456e-08
1.38705e-07
-2.02693e-10
-9.67033e-08
-2.48459e-09
9.93906e-08
9.22015e-09
-6.63249e-08
-1.10679e-08
6.81726e-08
1.60373e-08
-4.47236e-08
-1.74905e-08
4.61768e-08
2.14095e-08
-2.7007e-08
-2.24982e-08
2.80956e-08
2.51214e-08
-1.10354e-08
-2.57306e-08
1.16447e-08
2.67929e-08
2.47273e-09
-2.68857e-08
-2.37987e-09
2.65131e-08
1.21487e-08
-2.62195e-08
-1.24423e-08
2.49692e-08
1.79539e-08
-2.44721e-08
-1.8451e-08
2.27599e-08
2.10025e-08
-2.21494e-08
-2.1613e-08
2.01827e-08
2.21394e-08
-1.95158e-08
-2.28063e-08
1.74507e-08
2.19285e-08
-1.67735e-08
-2.26057e-08
1.47326e-08
2.08371e-08
-1.40796e-08
-2.14901e-08
1.21526e-08
1.9221e-08
-1.15482e-08
-1.98255e-08
9.79839e-09
1.73673e-08
-9.26064e-09
-1.79051e-08
7.73798e-09
1.54756e-08
-7.28097e-09
-1.59326e-08
6.01817e-09
1.37261e-08
-5.64891e-09
-1.40954e-08
4.65116e-09
1.22317e-08
-4.36397e-09
-1.25189e-08
3.58585e-09
1.11015e-08
-3.35524e-09
-1.13321e-08
2.6755e-09
1.03395e-08
-2.4445e-09
-1.05705e-08
2.3345e-09
-1.11735e-08
1.23584e-08
-3.51946e-09
-9.09987e-09
1.14179e-07
1.14978e-08
-1.16577e-07
-2.26972e-08
1.34908e-07
2.60424e-08
-1.38253e-07
-3.69657e-08
1.27533e-07
4.06977e-08
-1.31265e-07
-5.03828e-08
7.32063e-08
5.22274e-08
-7.50509e-08
-5.53585e-08
3.75929e-08
5.62908e-08
-3.85252e-08
-6.0186e-08
2.78285e-08
6.20717e-08
-2.97142e-08
-6.65726e-08
-6.14464e-08
6.55184e-08
6.25007e-08
-5.70101e-08
-1.6723e-07
5.16888e-08
1.72551e-07
-3.4055e-08
-1.85933e-07
2.84821e-08
1.91506e-07
-1.35671e-08
-1.50918e-07
9.42567e-09
1.5506e-07
9.03089e-10
-1.07435e-07
-3.58176e-09
1.10114e-07
1.01953e-08
-7.36564e-08
-1.19996e-08
7.54607e-08
1.69253e-08
-5.05698e-08
-1.84018e-08
5.20463e-08
2.24807e-08
-3.14566e-08
-2.36367e-08
3.26126e-08
2.6461e-08
-1.35497e-08
-2.7126e-08
1.42148e-08
2.82777e-08
2.11296e-09
-2.83629e-08
-2.02777e-09
2.78677e-08
1.34014e-08
-2.75183e-08
-1.37508e-08
2.61099e-08
2.00097e-08
-2.55674e-08
-2.05521e-08
2.3722e-08
2.35112e-08
-2.30666e-08
-2.41666e-08
2.09536e-08
2.48794e-08
-2.02359e-08
-2.55971e-08
1.80093e-08
2.47161e-08
-1.72779e-08
-2.54475e-08
1.50717e-08
2.35277e-08
-1.43642e-08
-2.42352e-08
1.22744e-08
2.17123e-08
-1.16184e-08
-2.23683e-08
9.71896e-09
1.95811e-08
-9.13545e-09
-2.01647e-08
7.48547e-09
1.73499e-08
-6.99124e-09
-1.78441e-08
5.62772e-09
1.52303e-08
-5.22913e-09
-1.56289e-08
4.15141e-09
1.33865e-08
-3.84178e-09
-1.36961e-08
3.01828e-09
1.19902e-08
-2.78567e-09
-1.22228e-08
2.17012e-09
1.11652e-08
-1.98943e-09
-1.13458e-08
3.02515e-09
-5.35348e-09
6.97869e-09
-4.65037e-09
-9.16112e-09
1.2357e-07
1.14199e-08
-1.25828e-07
-2.26274e-08
1.48175e-07
2.58919e-08
-1.5144e-07
-3.6986e-08
1.42684e-07
4.08717e-08
-1.4657e-07
-5.09957e-08
8.05068e-08
5.27856e-08
-8.22968e-08
-5.54962e-08
4.11872e-08
5.63313e-08
-4.20223e-08
-6.04493e-08
3.58447e-08
6.26635e-08
-3.80589e-08
-6.88578e-08
-6.55685e-08
6.78553e-08
6.65709e-08
-5.92468e-08
-1.89323e-07
5.33628e-08
1.95207e-07
-3.42399e-08
-2.08766e-07
2.8298e-08
2.14707e-07
-1.26486e-08
-1.6771e-07
8.35329e-09
1.72005e-07
2.16468e-09
-1.18127e-07
-4.82392e-09
1.20786e-07
1.12489e-08
-8.07838e-08
-1.29879e-08
8.25227e-08
1.78383e-08
-5.65171e-08
-1.93433e-08
5.80221e-08
2.36329e-08
-3.62065e-08
-2.48775e-08
3.74512e-08
2.79684e-08
-1.6321e-08
-2.87134e-08
1.7066e-08
3.00108e-08
1.78245e-09
-3.00895e-08
-1.7037e-09
2.9417e-08
1.49088e-08
-2.89881e-08
-1.53377e-08
2.73863e-08
2.22497e-08
-2.67975e-08
-2.28384e-08
2.48188e-08
2.62026e-08
-2.41167e-08
-2.69048e-08
2.18442e-08
2.7834e-08
-2.10697e-08
-2.86086e-08
1.86604e-08
2.77316e-08
-1.78674e-08
-2.85245e-08
1.54679e-08
2.64501e-08
-1.4697e-08
-2.7221e-08
1.24121e-08
2.4429e-08
-1.16918e-08
-2.51493e-08
9.5947e-09
2.20069e-08
-8.94606e-09
-2.26555e-08
7.09499e-09
1.9419e-08
-6.53386e-09
-1.99802e-08
4.96064e-09
1.69244e-08
-4.4913e-09
-1.73937e-08
3.18974e-09
1.47396e-08
-2.80345e-09
-1.51258e-08
1.71951e-09
1.30719e-08
-1.38153e-09
-1.34099e-08
2.76689e-10
1.21762e-08
1.58361e-10
-1.26113e-08
3.85108e-09
2.4041e-09
-2.66605e-10
-5.98857e-09
-9.27249e-09
1.32365e-07
1.13642e-08
-1.34457e-07
-2.25397e-08
1.61083e-07
2.56974e-08
-1.64241e-07
-3.69903e-08
1.58488e-07
4.10544e-08
-1.62552e-07
-5.1716e-08
8.75687e-08
5.34373e-08
-8.929e-08
-5.56252e-08
4.43368e-08
5.63237e-08
-4.50352e-08
-6.05938e-08
4.53278e-08
6.32719e-08
-4.80059e-08
-7.15728e-08
-6.96823e-08
7.04118e-08
7.08433e-08
-6.17811e-08
-2.13845e-07
5.52156e-08
2.20411e-07
-3.43695e-08
-2.33136e-07
2.80183e-08
2.39488e-07
-1.15728e-08
-1.85146e-07
7.10329e-09
1.89616e-07
3.60939e-09
-1.28713e-07
-6.22998e-09
1.31334e-07
1.23765e-08
-8.76074e-08
-1.40198e-08
8.92506e-08
1.87485e-08
-6.25869e-08
-2.02877e-08
6.41262e-08
2.48546e-08
-4.13482e-08
-2.62136e-08
4.27073e-08
2.96456e-08
-1.94592e-08
-3.05043e-08
2.03179e-08
3.20409e-08
1.47278e-09
-3.21177e-08
-1.39598e-09
3.11682e-08
1.67895e-08
-3.06175e-08
-1.73403e-08
2.87838e-08
2.46677e-08
-2.81563e-08
-2.52952e-08
2.6059e-08
2.90818e-08
-2.53102e-08
-2.98305e-08
2.2867e-08
3.10251e-08
-2.20293e-08
-3.18629e-08
1.9414e-08
3.10063e-08
-1.85509e-08
-3.18694e-08
1.59333e-08
2.96403e-08
-1.50897e-08
-3.0484e-08
1.25778e-08
2.74217e-08
-1.1781e-08
-2.82185e-08
9.44058e-09
2.47218e-08
-8.70814e-09
-2.54542e-08
6.58569e-09
2.17948e-08
-5.93059e-09
-2.24499e-08
4.05911e-09
1.89339e-08
-3.49047e-09
-1.95025e-08
1.89085e-09
1.63977e-08
-1.41094e-09
-1.68776e-08
7.06043e-11
1.44945e-08
3.27314e-10
-1.48924e-08
-1.34814e-09
1.37042e-08
1.60043e-09
-1.39565e-08
4.83831e-09
1.24201e-08
-9.68446e-09
-7.57395e-09
-9.45317e-09
1.40438e-07
1.13391e-08
-1.42324e-07
-2.2429e-08
1.73518e-07
2.54494e-08
-1.76539e-07
-3.69726e-08
1.75043e-07
4.12407e-08
-1.79311e-07
-5.25639e-08
9.43313e-08
5.41996e-08
-9.59669e-08
-5.5742e-08
4.68666e-08
5.62519e-08
-4.73765e-08
-6.05631e-08
5.70112e-08
6.38847e-08
-6.03328e-08
-7.49789e-08
-7.5261e-08
7.31214e-08
7.71186e-08
-6.45328e-08
-2.41297e-07
5.71249e-08
2.48705e-07
-3.44044e-08
-2.59197e-07
2.76128e-08
2.65989e-07
-1.0319e-08
-2.03317e-07
5.64759e-09
2.07989e-07
5.26486e-09
-1.39111e-07
-7.82325e-09
1.4167e-07
1.3573e-08
-9.39902e-08
-1.50794e-08
9.54967e-08
1.96193e-08
-6.88034e-08
-2.11996e-08
7.03837e-08
2.61363e-08
-4.69925e-08
-2.76413e-08
4.84975e-08
3.14876e-08
-2.31188e-08
-3.25079e-08
2.41392e-08
3.44501e-08
1.15259e-09
-3.4541e-08
-1.06167e-09
3.31318e-08
1.92652e-08
-3.23746e-08
-2.00224e-08
3.0274e-08
2.72058e-08
-2.96387e-08
-2.78411e-08
2.74616e-08
3.2144e-08
-2.66687e-08
-3.29369e-08
2.40421e-08
3.44811e-08
-2.31322e-08
-3.5391e-08
2.02838e-08
3.45737e-08
-1.93423e-08
-3.55153e-08
1.64819e-08
3.31336e-08
-1.55578e-08
-3.40577e-08
1.27949e-08
3.07347e-08
-1.1913e-08
-3.16166e-08
9.29716e-09
2.77954e-08
-8.46749e-09
-2.86251e-08
6.01573e-09
2.4593e-08
-5.23928e-09
-2.53695e-08
2.9432e-09
2.14363e-08
-2.21547e-09
-2.2164e-08
6.12304e-11
1.8608e-08
6.23886e-10
-1.92931e-08
-2.66177e-09
1.64473e-08
3.31336e-09
-1.70989e-08
-5.33465e-09
1.51751e-08
5.86493e-09
-1.57054e-08
6.01637e-09
2.50758e-08
-2.16408e-08
-9.45137e-09
-9.72461e-09
1.47613e-07
1.13536e-08
-1.49242e-07
-2.22899e-08
1.85355e-07
2.51389e-08
-1.88204e-07
-3.69254e-08
1.92451e-07
4.14224e-08
-1.96948e-07
-5.35655e-08
1.00722e-07
5.50948e-08
-1.02251e-07
-5.58429e-08
4.85424e-08
5.60934e-08
-4.8793e-08
-6.05593e-08
7.0645e-08
6.38183e-08
-7.3904e-08
-7.86669e-08
-8.26724e-08
7.76876e-08
8.36517e-08
-6.74563e-08
-2.72674e-07
5.87393e-08
2.81391e-07
-3.42626e-08
-2.87023e-07
2.70412e-08
2.94245e-07
-8.86656e-09
-2.22352e-07
3.95208e-09
2.27267e-07
7.16733e-09
-1.49218e-07
-9.63397e-09
1.51684e-07
1.4832e-08
-9.97478e-08
-1.61461e-08
1.01062e-07
2.0399e-08
-7.51956e-08
-2.20283e-08
7.68248e-08
2.74711e-08
-5.3277e-08
-2.91621e-08
5.49679e-08
3.34684e-08
-2.75183e-08
-3.47165e-08
2.87663e-08
3.73682e-08
7.16768e-10
-3.75243e-08
-5.60595e-10
3.53052e-08
2.28002e-08
-3.41502e-08
-2.39552e-08
3.17999e-08
2.96596e-08
-3.12584e-08
-3.02012e-08
2.90575e-08
3.53793e-08
-2.8222e-08
-3.62148e-08
2.53932e-08
3.82462e-08
-2.43957e-08
-3.92437e-08
2.12826e-08
3.8468e-08
-2.02538e-08
-3.94968e-08
1.71285e-08
3.69574e-08
-1.61187e-08
-3.79672e-08
1.30924e-08
3.43942e-08
-1.21226e-08
-3.53639e-08
9.22948e-09
3.12592e-08
-8.30544e-09
-3.21832e-08
5.55039e-09
2.78704e-08
-4.66824e-09
-2.87525e-08
2.02188e-09
2.45641e-08
-1.16901e-09
-2.5417e-08
-1.3972e-09
2.16062e-08
2.22283e-09
-2.24318e-08
-4.66946e-09
1.92598e-08
5.43603e-09
-2.00264e-08
-7.65445e-09
1.74202e-08
8.36532e-09
-1.81311e-08
7.42156e-09
4.08149e-08
-3.65646e-08
-1.16718e-08
-1.01076e-08
1.53679e-07
1.1423e-08
-1.54995e-07
-2.21189e-08
1.96448e-07
2.47568e-08
-1.99086e-07
-3.68438e-08
2.1081e-07
4.15921e-08
-2.15558e-07
-5.47624e-08
1.0665e-07
5.61599e-08
-1.08048e-07
-5.59288e-08
4.90558e-08
5.58348e-08
-4.89618e-08
-6.05206e-08
8.21134e-08
6.27898e-08
-8.43826e-08
-8.12541e-08
-7.86188e-08
8.64944e-08
7.33786e-08
-7.14803e-08
-3.10183e-07
6.10571e-08
3.20606e-07
-3.38444e-08
-3.16487e-07
2.62378e-08
3.24094e-07
-7.19791e-09
-2.42447e-07
1.97549e-09
2.4767e-07
9.36465e-09
-1.58904e-07
-1.17025e-08
1.61242e-07
1.61481e-08
-1.04631e-07
-1.71953e-08
1.05678e-07
2.10158e-08
-8.17961e-08
-2.27024e-08
8.34828e-08
2.88657e-08
-6.03845e-08
-3.08018e-08
6.23206e-08
3.55186e-08
-3.29479e-08
-3.70767e-08
3.4506e-08
4.09996e-08
-1.50828e-10
-4.1362e-08
5.13159e-10
3.75187e-08
2.85388e-08
-3.54544e-08
-3.06031e-08
3.32722e-08
3.13672e-08
-3.313e-08
-3.15094e-08
3.09082e-08
3.87993e-08
-3.00132e-08
-3.96943e-08
2.69518e-08
4.23976e-08
-2.58395e-08
-4.35099e-08
2.24213e-08
4.27258e-08
-2.12948e-08
-4.38523e-08
1.78847e-08
4.11292e-08
-1.67863e-08
-4.22277e-08
1.34942e-08
3.84042e-08
-1.24373e-08
-3.9461e-08
9.27873e-09
3.5084e-08
-8.27001e-09
-3.60927e-08
5.27651e-09
3.15086e-08
-4.32636e-09
-3.24588e-08
1.51621e-09
2.80494e-08
-6.26456e-10
-2.89391e-08
-1.99615e-09
2.494e-08
2.82235e-09
-2.57662e-08
-5.23267e-09
2.23489e-08
5.98222e-09
-2.30984e-08
-8.1309e-09
2.02014e-08
8.78489e-09
-2.08554e-08
9.10054e-09
6.0148e-08
-5.49464e-08
-1.43021e-08
-1.06382e-08
1.5838e-07
1.15605e-08
-1.59302e-07
-2.19027e-08
2.06626e-07
2.42808e-08
-2.09004e-07
-3.67072e-08
2.30197e-07
4.17209e-08
-2.35211e-07
-5.6191e-08
1.12005e-07
5.74245e-08
-1.13239e-07
-5.59813e-08
4.80433e-08
5.54318e-08
-4.74938e-08
-5.9755e-08
9.14658e-08
6.26689e-08
-9.43796e-08
-8.532e-08
-4.88402e-08
9.51606e-08
3.89996e-08
-7.80398e-08
-3.53383e-07
6.67861e-08
3.64637e-07
-3.32775e-08
-3.47718e-07
2.49647e-08
3.56031e-07
-5.27608e-09
-2.63901e-07
-3.36291e-10
2.69514e-07
1.19159e-08
-1.68005e-07
-1.40759e-08
1.70165e-07
1.7512e-08
-1.08305e-07
-1.81919e-08
1.08984e-07
2.13568e-08
-8.86358e-08
-2.31066e-08
9.03856e-08
3.03387e-08
-6.86157e-08
-3.26327e-08
7.09096e-08
3.7427e-08
-3.97613e-08
-3.94003e-08
4.17346e-08
4.55616e-08
-2.22587e-09
-4.64099e-08
3.07415e-09
3.89233e-08
3.92033e-08
-3.5178e-08
-4.29486e-08
3.49807e-08
3.08393e-08
-3.55618e-08
-3.02583e-08
3.31272e-08
4.2534e-08
-3.21194e-08
-4.35418e-08
2.87334e-08
4.70483e-08
-2.74868e-08
-4.82949e-08
2.36932e-08
4.73954e-08
-2.24531e-08
-4.86356e-08
1.87409e-08
4.56548e-08
-1.75552e-08
-4.68404e-08
1.4006e-08
4.27605e-08
-1.28632e-08
-4.39032e-08
9.43498e-09
3.92457e-08
-8.33987e-09
-4.03408e-08
5.11756e-09
3.53954e-08
-4.11094e-09
-3.6402e-08
1.20583e-09
3.1622e-08
-3.13107e-10
-3.25147e-08
-2.23013e-09
2.81794e-08
3.00263e-09
-2.89519e-08
-5.17546e-09
2.52203e-08
5.82647e-09
-2.58713e-08
-7.62561e-09
2.26553e-08
8.15293e-09
-2.31826e-08
1.11022e-08
8.36736e-08
-7.73621e-08
-1.74138e-08
-1.13624e-08
1.61354e-07
1.1781e-08
-1.61772e-07
-2.16308e-08
2.15678e-07
2.36887e-08
-2.17736e-07
-3.65002e-08
2.50652e-07
4.1779e-08
-2.55931e-07
-5.79378e-08
1.16639e-07
5.89576e-08
-1.17659e-07
-5.60079e-08
4.49163e-08
5.47782e-08
-4.36866e-08
-5.84415e-08
1.05829e-07
6.33409e-08
-1.10728e-07
-8.87465e-08
-6.70157e-09
1.00501e-07
-5.05304e-09
-8.72722e-08
-4.00206e-07
7.42292e-08
4.13249e-07
-3.29983e-08
-3.83625e-07
2.24484e-08
3.94175e-07
-2.96237e-09
-2.87054e-07
-3.11429e-09
2.9313e-07
1.48994e-08
-1.76305e-07
-1.68184e-08
1.78224e-07
1.89266e-08
-1.10318e-07
-1.91031e-08
1.10495e-07
2.12648e-08
-9.57259e-08
-2.30713e-08
9.75325e-08
3.19175e-08
-7.85732e-08
-3.4793e-08
8.14487e-08
3.86821e-08
-4.8493e-08
-4.12794e-08
5.10903e-08
5.09779e-08
-6.7445e-09
-5.2632e-08
8.39869e-09
4.067e-08
5.57278e-08
-3.65239e-08
-5.98739e-08
3.86401e-08
2.83559e-08
-3.88837e-08
-2.81122e-08
3.57732e-08
4.67033e-08
-3.46958e-08
-4.77807e-08
3.07306e-08
5.22265e-08
-2.93528e-08
-5.36043e-08
2.5043e-08
5.25561e-08
-2.36615e-08
-5.39376e-08
1.96262e-08
5.05179e-08
-1.83639e-08
-5.17802e-08
1.45998e-08
4.74535e-08
-1.33801e-08
-4.86732e-08
9.68161e-09
4.37633e-08
-8.49584e-09
-4.4949e-08
5.06201e-09
3.94847e-08
-4.02381e-09
-4.05229e-08
1.17614e-09
3.51243e-08
-3.54204e-10
-3.59462e-08
-1.83044e-09
3.10808e-08
2.44537e-09
-3.16957e-08
-4.04716e-09
2.75537e-08
4.48928e-09
-2.79958e-08
-5.61608e-09
2.44524e-08
5.91837e-09
-2.47547e-08
1.34936e-08
1.12113e-07
-1.04498e-07
-2.11083e-08
-1.23378e-08
1.62099e-07
1.20992e-08
-1.6186e-07
-2.12942e-08
2.23344e-07
2.29567e-08
-2.25006e-07
-3.62111e-08
2.72142e-07
4.1728e-08
-2.77659e-07
-6.01605e-08
1.20295e-07
6.08643e-08
-1.20998e-07
-5.59942e-08
3.86767e-08
5.38734e-08
-3.65559e-08
-5.68868e-08
1.2978e-07
6.45959e-08
-1.37489e-07
-8.71499e-08
4.04041e-08
9.8744e-08
-5.19981e-08
-9.82744e-08
-4.5924e-07
7.969e-08
4.77824e-07
-3.26585e-08
-4.30968e-07
1.87002e-08
4.44926e-07
3.01038e-11
-3.12078e-07
-6.51049e-09
3.18558e-07
1.84078e-08
-1.83535e-07
-2.00112e-08
1.85138e-07
2.04206e-08
-1.10058e-07
-1.99071e-08
1.09544e-07
2.0515e-08
-1.02991e-07
-2.23271e-08
1.04803e-07
3.32414e-08
-9.11934e-08
-3.67705e-08
9.47224e-08
3.85693e-08
-6.02696e-08
-4.21575e-08
6.38578e-08
5.5998e-08
-1.44464e-08
-5.81419e-08
1.65903e-08
4.40405e-08
6.81927e-08
-4.33563e-08
-6.88769e-08
4.43373e-08
3.04442e-08
-4.24439e-08
-3.23376e-08
3.88145e-08
5.1078e-08
-3.76603e-08
-5.22322e-08
3.285e-08
5.80076e-08
-3.12546e-08
-5.96029e-08
2.61167e-08
5.83657e-08
-2.45232e-08
-5.99592e-08
2.00992e-08
5.56529e-08
-1.87849e-08
-5.69672e-08
1.49514e-08
5.23988e-08
-1.37041e-08
-5.36461e-08
9.83506e-09
4.86255e-08
-8.57719e-09
-4.98834e-08
5.01378e-09
4.36187e-08
-3.99643e-09
-4.46361e-08
1.46799e-09
3.81611e-08
-8.28474e-10
-3.88006e-08
-6.32566e-10
3.31461e-08
9.75979e-10
-3.34895e-08
-1.72108e-09
2.89008e-08
1.88837e-09
-2.90681e-08
-2.24616e-09
2.53022e-08
2.32881e-09
-2.53849e-08
1.63518e-08
1.46337e-07
-1.37183e-07
-2.55051e-08
-1.36301e-08
1.59915e-07
1.2519e-08
-1.58804e-07
-2.08709e-08
2.29293e-07
2.20447e-08
-2.30467e-07
-3.58114e-08
2.94464e-07
4.14568e-08
-3.0011e-07
-6.29224e-08
1.22313e-07
6.29824e-08
-1.22373e-07
-5.57772e-08
2.89805e-08
5.29055e-08
-2.61089e-08
-5.54561e-08
1.60492e-07
6.14588e-08
-1.66495e-07
-7.94196e-08
9.59396e-08
9.85456e-08
-1.15066e-07
-1.03467e-07
-5.43791e-07
7.96057e-08
5.67653e-07
-2.9153e-08
-4.89254e-07
1.46184e-08
5.03788e-07
3.78068e-09
-3.38588e-07
-1.0677e-08
3.45484e-07
2.25221e-08
-1.89398e-07
-2.37409e-08
1.90617e-07
2.20548e-08
-1.06679e-07
-2.05957e-08
1.0522e-07
1.87628e-08
-1.10045e-07
-2.03723e-08
1.11654e-07
3.12659e-08
-1.04521e-07
-3.35714e-08
1.06827e-07
3.6715e-08
-7.63087e-08
-4.14852e-08
8.10789e-08
5.76063e-08
-2.211e-08
-5.89188e-08
2.34226e-08
4.8981e-08
6.55787e-08
-5.10622e-08