/*--------------------------------*- C++ -*----------------------------------*\
| =========                 |                                                 |
| \\      /  F ield         | OpenFOAM: The Open Source CFD Toolbox           |
|  \\    /   O peration     | Version:  2.4.0                                 |
|   \\  /    A nd           | Web:      www.OpenFOAM.org                      |
|    \\/     M anipulation  |                                                 |
\*---------------------------------------------------------------------------*/
FoamFile
{
    version     2.0;
    format      ascii;
    class       volScalarField;
    location    "0.01";
    object      alpha.water;
}
// * * * * * * * * * * * * * * * * * * * * * * * * * * * * * * * * * * * * * //

dimensions      [0 0 0 0 0 0 0];

internalField   nonuniform List<scalar> 
10000
(
8.85873e-166
4.06781e-161
7.0165e-157
6.48071e-153
3.97486e-149
1.82145e-145
6.67991e-142
2.04041e-138
5.3276e-135
1.1929e-131
2.30004e-128
3.80143e-125
5.33315e-122
6.3441e-119
6.39288e-116
5.44655e-113
3.89946e-110
2.32828e-107
1.1501e-104
4.67067e-102
1.55368e-99
4.2038e-97
9.14338e-95
1.58152e-92
2.15553e-90
2.25348e-88
1.76424e-86
1.00089e-84
4.01093e-83
1.10236e-81
1.95035e-80
2.071e-79
1.24443e-78
3.58885e-78
3.36751e-78
4.66362e-79
4.74566e-81
2.78679e-83
9.63469e-86
3.14149e-88
9.12956e-91
2.19892e-93
4.2815e-96
4.20264e-98
4.53273e-100
9.15578e-99
3.0164e-96
9.01612e-94
2.3655e-91
5.36062e-89
1.4234e-161
8.09028e-157
1.57976e-152
1.54883e-148
9.85459e-145
4.5095e-141
1.61839e-137
4.76508e-134
1.1724e-130
2.44747e-127
4.38344e-124
6.74053e-121
8.8313e-118
9.83977e-115
9.34887e-112
7.56255e-109
5.21819e-106
3.04326e-103
1.48252e-100
5.98947e-98
1.99735e-95
5.4539e-93
1.197e-90
2.09112e-88
2.85353e-86
2.96569e-84
2.28771e-82
1.2676e-80
4.90537e-79
1.28699e-77
2.17137e-76
2.26727e-75
1.3868e-74
4.13224e-74
4.63783e-74
1.1478e-74
2.25643e-76
2.65697e-78
2.36601e-80
1.61751e-82
8.45332e-85
3.36963e-87
9.97299e-90
2.24182e-92
1.68951e-92
5.16491e-90
1.28111e-87
2.55651e-85
4.12934e-83
5.43979e-81
1.04842e-157
6.3935e-153
1.29637e-148
1.30573e-144
8.28752e-141
3.76706e-137
1.31666e-133
3.69583e-130
8.56324e-127
1.6683e-123
2.77568e-120
3.96161e-117
4.81233e-114
4.9794e-111
4.40459e-108
3.33336e-105
2.17135e-102
1.20752e-99
5.66839e-97
2.23332e-94
7.34716e-92
1.99485e-89
4.37456e-87
7.64081e-85
1.0416e-82
1.08314e-80
8.34564e-79
4.6348e-77
1.78934e-75
4.64375e-74
7.78452e-73
8.12425e-72
5.16069e-71
1.75655e-70
2.95748e-70
1.25928e-70
3.52252e-72
5.59314e-74
6.0392e-76
4.66898e-78
2.58562e-80
1.03643e-82
3.30225e-85
1.304e-87
9.61423e-86
1.96193e-83
3.167e-81
4.0995e-79
4.3154e-77
3.73748e-75
4.82837e-154
2.61799e-149
5.18192e-145
5.09091e-141
3.18589e-137
1.42297e-133
4.83641e-130
1.30409e-126
2.86932e-123
5.25858e-120
8.18055e-117
1.0909e-113
1.24168e-110
1.20662e-107
1.00373e-104
7.17362e-102
4.41435e-99
2.34165e-96
1.06114e-93
4.09658e-91
1.33509e-88
3.59681e-86
7.8786e-84
1.38206e-81
1.89995e-79
2.0012e-77
1.56309e-75
8.73743e-74
3.41625e-72
8.91937e-71
1.51466e-69
1.62201e-68
1.11394e-67
4.7157e-67
1.26198e-66
8.8563e-67
3.7238e-68
6.92661e-70
7.78276e-72
5.88981e-74
3.19689e-76
1.37059e-78
5.05779e-81
1.29859e-82
2.13785e-80
3.19759e-78
3.82335e-76
3.70826e-74
2.95367e-72
1.9519e-70
1.22938e-150
6.03557e-146
1.1301e-141
1.07444e-137
6.54012e-134
2.83695e-130
9.32406e-127
2.41795e-123
5.09465e-120
8.91103e-117
1.3167e-113
1.66989e-110
1.81681e-107
1.69252e-104
1.35368e-101
9.31927e-99
5.52285e-96
2.81808e-93
1.23969e-90
4.70578e-88
1.51727e-85
4.07778e-83
8.98086e-81
1.5924e-78
2.22224e-76
2.39048e-74
1.91034e-72
1.09323e-70
4.36385e-69
1.16686e-67
2.02455e-66
2.2767e-65
1.76675e-64
1.04172e-63
3.63463e-63
4.27972e-63
3.30852e-64
6.69312e-66
7.35082e-68
5.26665e-70
2.87751e-72
1.34728e-74
5.72749e-77
4.08876e-78
6.01165e-76
7.39308e-74
7.31559e-72
5.90464e-70
3.93232e-68
2.1815e-66
1.70778e-147
8.36669e-143
1.49663e-138
1.37028e-134
8.05899e-131
3.38239e-127
1.07606e-123
2.7003e-120
5.50145e-117
9.30375e-114
1.32825e-110
1.62707e-107
1.72242e-104
1.56777e-101
1.22811e-98
8.29331e-96
4.82766e-93
2.42078e-90
1.04415e-87
3.89827e-85
1.2444e-82
3.34244e-80
7.43037e-78
1.33822e-75
1.90642e-73
2.11008e-71
1.74111e-69
1.0312e-67
4.2564e-66
1.17862e-64
2.11742e-63
2.53888e-62
2.31908e-61
1.75652e-60
7.89651e-60
1.40474e-59
2.46298e-60
5.0771e-62
5.32135e-64
3.72666e-66
2.10256e-68
1.07093e-70
4.99497e-73
3.28029e-74
4.28241e-72
4.70879e-70
4.16593e-68
3.00634e-66
1.7901e-64
8.87932e-63
1.55525e-144
8.31604e-140
1.4285e-135
1.25203e-131
7.07439e-128
2.86372e-124
8.81561e-121
2.14606e-117
4.24847e-114
6.98892e-111
9.721e-108
1.15949e-104
1.20241e-101
1.07884e-98
8.34798e-96
5.58019e-93
3.22113e-90
1.60357e-87
6.87214e-85
2.54422e-82
8.0423e-80
2.15464e-77
4.83011e-75
8.86012e-73
1.29451e-70
1.48372e-68
1.27509e-66
7.90259e-65
3.41159e-63
9.91167e-62
1.86568e-60
2.39391e-59
2.4964e-58
2.28739e-57
1.32909e-56
3.47849e-56
1.27125e-56
2.83772e-58
3.24655e-60
2.59715e-62
1.71883e-64
1.03814e-66
5.68804e-69
1.1469e-70
1.17944e-68
1.23365e-66
1.03174e-64
7.00188e-63
3.90369e-61
1.80635e-59
1.17371e-141
7.64468e-137
1.20595e-132
9.8575e-129
5.27438e-125
2.03942e-121
6.03121e-118
1.41633e-114
2.71271e-111
4.32714e-108
5.84905e-105
6.79618e-102
6.88249e-99
6.0852e-96
4.65365e-93
3.08064e-90
1.76407e-87
8.72852e-85
3.72513e-82
1.37386e-79
4.32992e-77
1.1553e-74
2.59639e-72
4.84369e-70
7.2758e-68
8.67151e-66
7.81571e-64
5.11974e-62
2.34494e-60
7.24098e-59
1.44825e-57
1.97831e-56
2.274e-55
2.41036e-54
1.77659e-53
6.4867e-53
4.6523e-53
1.35406e-54
2.13894e-56
2.36038e-58
2.07174e-60
1.56375e-62
1.02016e-64
6.84701e-67
1.65178e-65
1.72456e-63
1.42158e-61
9.41007e-60
5.07315e-58
2.25372e-56
1.02529e-138
8.75619e-134
1.09784e-129
7.80554e-126
3.82592e-122
1.38344e-118
3.87163e-115
8.67067e-112
1.5924e-108
2.44537e-105
3.1925e-102
3.59282e-99
3.52454e-96
3.04574e-93
2.28892e-90
1.49203e-87
8.43237e-85
4.1268e-82
1.74657e-79
6.40243e-77
2.00991e-74
5.34646e-72
1.19909e-69
2.25826e-67
3.48055e-65
4.31338e-63
4.0934e-61
2.8563e-59
1.40537e-57
4.6812e-56
1.01182e-54
1.45219e-53
1.77151e-52
2.08625e-51
1.8536e-50
9.02271e-50
1.204e-49
5.83543e-51
1.37175e-52
1.9803e-54
2.03921e-56
1.70499e-58
1.23311e-60
7.59534e-63
1.40956e-62
1.5289e-60
1.28546e-58
8.5366e-57
4.55593e-55
1.98184e-53
1.51847e-135
1.44703e-130
1.2498e-126
6.97178e-123
2.98489e-119
9.83532e-116
2.5599e-112
5.39449e-109
9.39061e-106
1.37307e-102
1.71185e-99
1.84413e-96
1.73609e-93
1.44945e-90
1.06057e-87
6.73836e-85
3.72151e-82
1.78433e-79
7.42251e-77
2.6838e-74
8.34398e-72
2.2015e-69
4.90838e-67
9.23192e-65
1.44828e-62
1.85572e-60
1.85278e-58
1.38229e-56
7.38028e-55
2.68271e-53
6.38981e-52
9.70666e-51
1.21245e-49
1.48009e-48
1.50475e-47
9.50948e-47
2.1147e-46
3.739e-47
1.17942e-48
1.93722e-50
2.00748e-52
1.56176e-54
1.09463e-56
6.90877e-59
8.46746e-60
9.58912e-58
8.49478e-56
5.79942e-54
3.12138e-52
1.34862e-50
3.58332e-132
2.93825e-127
1.79522e-123
7.38836e-120
2.62809e-116
7.66844e-113
1.82263e-109
3.56514e-106
5.81614e-103
8.01405e-100
9.45119e-97
9.66092e-94
8.66354e-91
6.89505e-88
4.86209e-85
2.98652e-82
1.59479e-79
7.40493e-77
2.99107e-74
1.05455e-71
3.21496e-69
8.34471e-67
1.83485e-64
3.40995e-62
5.36486e-60
7.02175e-58
7.32353e-56
5.82697e-54
3.38962e-52
1.36521e-50
3.64713e-49
6.1399e-48
7.65205e-47
8.74119e-46
9.99598e-45
8.14155e-44
2.78902e-43
1.36944e-43
5.43188e-45
1.07447e-46
1.31579e-48
1.06178e-50
6.58148e-53
4.06052e-55
5.69332e-57
4.56585e-55
4.41765e-53
3.17573e-51
1.7517e-49
7.59757e-48
9.48203e-129
6.04297e-124
2.92071e-120
9.1909e-117
2.66202e-113
6.71682e-110
1.4314e-106
2.56261e-103
3.87411e-100
4.97944e-97
5.5003e-94
5.28255e-91
4.46954e-88
3.36157e-85
2.26526e-82
1.33723e-79
6.85486e-77
3.05558e-74
1.18522e-71
4.024e-69
1.18921e-66
3.00519e-64
6.45518e-62
1.17465e-59
1.81942e-57
2.38888e-55
2.56606e-53
2.15618e-51
1.36047e-49
6.11401e-48
1.84475e-46
3.59939e-45
4.47006e-44
4.78878e-43
5.46613e-42
5.23979e-41
2.54836e-40
2.96118e-40
1.75573e-41
5.60467e-43
1.19503e-44
1.75812e-46
1.75316e-48
1.23703e-50
8.67197e-53
1.71482e-52
1.89441e-50
1.47399e-48
8.46584e-47
3.71811e-45
2.31607e-125
1.14622e-120
4.77466e-117
1.24648e-113
3.02527e-110
6.60323e-107
1.25065e-103
2.02611e-100
2.81275e-97
3.34128e-94
3.42305e-91
3.0562e-88
2.41022e-85
1.69528e-82
1.07744e-79
6.07446e-77
2.97586e-74
1.26705e-71
4.69116e-69
1.5202e-66
4.31343e-64
1.05109e-61
2.18739e-59
3.86895e-57
5.81755e-55
7.50617e-53
8.13696e-51
7.10239e-49
4.79932e-47
2.38944e-45
8.28525e-44
1.87649e-42
2.63899e-41
2.73096e-40
2.55785e-39
2.66891e-38
1.76389e-37
3.78017e-37
5.17494e-38
2.9075e-39
9.73406e-41
2.15811e-42
3.13562e-44
2.7046e-46
1.33641e-48
5.72749e-50
6.81507e-48
5.95757e-46
3.62946e-44
1.62751e-42
4.92492e-122
1.93438e-117
7.27691e-114
1.68234e-110
3.59419e-107
6.96473e-104
1.18754e-100
1.74799e-97
2.20891e-94
2.40353e-91
2.26713e-88
1.87099e-85
1.36532e-82
8.89978e-80
5.24166e-77
2.77987e-74
1.29202e-71
5.22873e-69
1.84154e-66
5.67427e-64
1.53795e-61
3.59215e-59
7.19756e-57
1.23094e-54
1.78843e-52
2.23238e-50
2.38887e-48
2.1207e-46
1.50632e-44
8.18523e-43
3.24034e-41
8.6062e-40
1.44851e-38
1.50501e-37
1.28008e-36
1.11063e-35
8.9292e-35
3.13748e-34
1.65446e-34
1.3169e-35
5.65887e-37
1.61128e-38
3.16664e-40
4.04774e-42
2.73214e-44
7.80522e-47
2.01649e-45
2.10251e-43
1.39324e-41
6.43924e-40
9.23245e-119
2.8641e-114
9.95932e-111
2.11011e-107
4.10504e-104
7.29345e-101
1.13676e-97
1.52905e-94
1.77159e-91
1.76903e-88
1.53309e-85
1.16499e-82
7.84191e-80
4.72274e-77
2.57043e-74
1.27101e-71
5.53412e-69
2.10522e-66
7.01967e-64
2.05115e-61
5.30053e-59
1.1845e-56
2.27875e-54
3.75881e-52
5.28143e-50
6.34932e-48
6.59766e-46
5.83105e-44
4.25932e-42
2.47466e-40
1.09578e-38
3.41153e-37
6.87089e-36
8.7254e-35
6.96125e-34
4.77584e-33
3.46788e-32
1.76017e-31
2.37162e-31
2.54718e-32
1.51057e-33
6.25417e-35
1.92515e-36
4.33293e-38
6.42287e-40
4.64149e-42
4.74208e-43
6.46259e-41
4.82596e-39
2.32111e-37
1.46548e-115
3.6977e-111
1.20447e-107
2.37577e-104
4.28256e-101
7.08356e-98
1.02521e-94
1.27715e-91
1.36748e-88
1.26265e-85
1.01225e-82
7.10325e-80
4.40493e-77
2.44011e-74
1.21931e-71
5.57318e-69
2.2757e-66
8.11232e-64
2.5353e-61
6.9891e-59
1.71687e-56
3.67072e-54
6.7807e-52
1.07836e-49
1.46807e-47
1.70728e-45
1.71286e-43
1.48285e-41
1.08976e-39
6.6037e-38
3.17881e-36
1.12522e-34
2.69542e-33
4.12523e-32
4.0337e-31
2.55635e-30
1.26564e-29
6.87422e-29
1.81367e-28
4.47671e-29
4.86898e-30
3.34051e-31
1.62292e-32
5.72046e-34
1.40221e-35
2.06297e-37
1.18695e-39
1.89741e-38
1.66811e-36
8.32859e-35
1.95665e-112
4.14962e-108
1.27929e-104
2.37997e-101
4.02731e-98
6.18753e-95
8.31867e-92
9.59203e-89
9.50817e-86
8.13963e-83
6.05852e-80
3.95142e-77
2.27801e-74
1.17232e-71
5.43227e-69
2.28613e-66
8.67197e-64
2.89472e-61
8.51805e-59
2.2011e-56
5.09472e-54
1.03988e-51
1.8445e-49
2.82994e-47
3.736e-45
4.22476e-43
4.10219e-41
3.44741e-39
2.50057e-37
1.53821e-35
7.77716e-34
3.01355e-32
8.16983e-31
1.47363e-29
1.74364e-28
1.35009e-27
6.47892e-27
2.25102e-26
8.0943e-26
7.75819e-26
1.21998e-26
1.07963e-27
6.64135e-29
3.01444e-30
9.98665e-32
2.22852e-33
2.65703e-35
6.17125e-36
7.10239e-34
3.68628e-32
2.20266e-109
4.03496e-105
1.1931e-101
2.10855e-98
3.34458e-95
4.79821e-92
6.00235e-89
6.42139e-86
5.88591e-83
4.66079e-80
3.22515e-77
1.96032e-74
1.05386e-71
5.04817e-69
2.17258e-66
8.47048e-64
3.00233e-61
9.43376e-59
2.59891e-56
6.31936e-54
1.37139e-51
2.64605e-49
4.49159e-47
6.64188e-45
8.49782e-43
9.35357e-41
8.82039e-39
7.16588e-37
5.05011e-35
3.07e-33
1.57162e-31
6.39198e-30
1.86755e-28
3.70707e-27
4.97218e-26
4.62452e-25
2.92306e-24
1.0457e-23
2.50842e-23
5.29713e-23
1.14143e-23
1.41198e-24
1.26159e-25
8.68826e-27
4.59374e-28
1.75986e-29
4.24692e-31
5.55813e-33
3.1569e-31
1.83872e-29
2.08909e-106
3.35655e-102
9.62759e-99
1.63285e-95
2.45504e-92
3.30485e-89
3.83407e-86
3.7866e-83
3.21477e-80
2.36065e-77
1.51296e-74
8.57877e-72
4.30952e-69
1.92905e-66
7.74481e-64
2.81018e-61
9.27286e-59
2.73857e-56
7.12727e-54
1.63683e-51
3.32791e-49
6.05255e-47
9.70681e-45
1.3759e-42
1.69991e-40
1.81493e-38
1.66155e-36
1.30089e-34
8.79087e-33
5.15021e-31
2.57622e-29
1.05368e-27
3.16811e-26
6.56844e-25
9.24201e-24
9.04497e-23
6.74555e-22
3.82811e-21
1.00938e-20
1.86968e-20
1.4438e-20
3.40973e-21
4.8052e-22
4.7888e-23
3.53507e-24
1.89588e-25
6.76737e-27
1.27698e-28
9.71376e-29
7.1546e-27
1.63363e-103
2.3464e-99
6.63751e-96
1.10195e-92
1.57266e-89
1.97902e-86
2.1335e-83
1.96141e-80
1.54878e-77
1.05969e-74
6.33835e-72
3.33563e-69
1.56542e-66
6.54656e-64
2.45243e-61
8.28504e-59
2.54562e-56
7.06755e-54
1.73808e-51
3.77172e-49
7.25653e-47
1.24316e-44
1.87844e-42
2.50933e-40
2.9675e-38
3.05033e-36
2.69384e-34
2.02276e-32
1.29558e-30
7.15056e-29
3.38214e-27
1.33444e-25
3.95702e-24
8.20994e-23
1.15992e-21
1.10556e-20
7.70825e-20
5.76755e-19
2.88906e-18
6.01216e-18
9.92e-18
2.94539e-18
5.01264e-19
6.06621e-20
5.57109e-21
3.86878e-22
1.90743e-23
5.69038e-25
3.13027e-26
2.81537e-24
1.01804e-100
1.34686e-96
3.83022e-93
6.39357e-90
8.65159e-87
1.01867e-83
1.03137e-80
8.90372e-78
6.5821e-75
4.20981e-72
2.35328e-69
1.15949e-66
5.0624e-64
1.98295e-61
6.95574e-59
2.19535e-56
6.26877e-54
1.62423e-51
3.76311e-49
7.73345e-47
1.40705e-44
2.27694e-42
3.25947e-40
4.08202e-38
4.52185e-36
4.41624e-34
3.71728e-32
2.65374e-30
1.59372e-28
8.1239e-27
3.52824e-25
1.2911e-23
3.631e-22
7.26749e-21
1.00007e-19
9.07132e-19
5.24791e-18
3.88822e-17
2.86753e-16
1.34546e-15
3.71995e-15
3.8086e-15
1.16916e-15
2.15727e-16
2.84916e-17
2.81397e-18
2.01368e-19
9.29593e-21
2.08342e-22
1.9013e-21
4.99689e-98
6.2674e-94
1.82473e-90
3.08338e-87
4.03761e-84
4.4902e-81
4.266e-78
3.4714e-75
2.42081e-72
1.45619e-69
7.62863e-67
3.51861e-64
1.44074e-61
5.26225e-59
1.73377e-56
5.14043e-54
1.37698e-51
3.3413e-49
7.30049e-47
1.41595e-44
2.43031e-42
3.7101e-40
5.00873e-38
5.92977e-36
6.1012e-34
5.51123e-32
4.34253e-30
2.90463e-28
1.61708e-26
7.48841e-25
2.91143e-23
9.53206e-22
2.45168e-20
4.58283e-19
5.9912e-18
5.14246e-17
2.41271e-16
1.45033e-15
1.17872e-14
8.84714e-14
5.23245e-13
2.10626e-12
9.1039e-13
2.15779e-13
3.54274e-14
4.313e-15
3.85805e-16
2.33536e-17
7.68563e-19
4.20563e-19
1.91641e-95
2.32947e-91
7.08274e-88
1.22107e-84
1.57487e-81
1.67606e-78
1.51013e-75
1.1559e-72
7.58605e-70
4.31109e-67
2.13396e-64
9.26812e-62
3.56739e-59
1.2256e-56
3.77553e-54
1.05348e-51
2.65403e-49
6.05258e-47
1.24784e-44
2.29798e-42
3.74396e-40
5.38296e-38
6.81371e-36
7.55994e-34
7.25292e-32
6.01122e-30
4.29389e-28
2.63374e-26
1.33986e-24
5.55998e-23
1.8953e-21
5.38306e-20
1.22366e-18
2.07382e-17
2.51846e-16
2.03758e-15
7.99411e-15
3.53605e-14
2.48854e-13
2.19227e-12
2.18865e-11
1.30016e-10
9.34159e-11
3.13918e-11
6.8889e-12
1.10154e-12
1.3019e-13
1.07255e-14
5.2268e-16
4.19961e-17
5.69416e-93
6.84824e-89
2.19317e-85
3.91054e-82
5.03075e-79
5.19588e-76
4.44113e-73
3.22632e-70
2.01476e-67
1.08732e-64
5.09842e-62
2.10019e-59
7.64678e-57
2.47932e-54
7.20865e-52
1.88636e-49
4.48408e-47
9.63515e-45
1.87066e-42
3.26124e-40
5.04214e-38
6.8598e-36
8.1719e-34
8.44496e-32
7.48077e-30
5.67905e-28
3.64157e-26
1.97726e-24
8.99973e-23
3.30299e-21
9.71834e-20
2.33745e-18
4.54882e-17
6.79446e-16
7.50083e-15
5.67884e-14
1.94396e-13
6.44071e-13
3.29141e-12
2.54826e-11
3.17223e-10
1.99136e-09
2.22196e-09
9.96879e-10
2.88202e-10
6.16921e-11
1.00067e-11
1.17061e-12
8.63147e-14
3.86165e-15
1.30366e-90
1.56149e-86
5.31176e-83
9.79402e-80
1.27995e-76
1.28756e-73
1.05936e-70
7.37757e-68
4.42477e-65
2.29998e-62
1.03829e-59
4.08501e-57
1.4124e-54
4.34565e-52
1.19672e-49
2.96434e-47
6.6162e-45
1.34216e-42
2.45577e-40
4.03646e-38
5.89682e-36
7.56033e-34
8.43459e-32
8.11662e-30
6.64521e-28
4.57031e-26
2.62198e-24
1.24561e-22
4.89381e-21
1.56107e-19
3.92174e-18
7.85541e-17
1.27316e-15
1.62941e-14
1.59885e-13
1.11896e-12
3.4403e-12
9.3488e-12
3.33231e-11
1.70742e-10
2.14645e-09
9.2605e-09
1.29413e-08
8.00414e-09
3.19894e-09
9.45666e-10
2.13199e-10
3.52984e-11
3.84808e-12
2.2342e-13
2.26288e-88
2.71221e-84
9.78213e-81
1.88441e-77
2.49673e-74
2.49574e-71
2.01123e-68
1.36207e-65
7.92763e-63
4.00291e-60
1.75827e-57
6.72984e-55
2.2486e-52
6.60244e-50
1.72734e-47
4.06373e-45
8.5996e-43
1.63683e-40
2.81623e-38
4.34572e-36
5.95802e-34
7.15361e-32
7.42286e-30
6.58709e-28
4.93629e-26
3.0765e-24
1.5732e-22
6.51762e-21
2.18632e-19
5.85981e-18
1.24328e-16
2.0549e-15
2.7201e-14
2.89981e-13
2.46512e-12
1.56403e-11
4.36033e-11
1.05978e-10
2.87978e-10
8.8708e-10
8.18084e-09
1.63714e-08
2.12403e-08
1.66225e-08
9.66423e-09
4.21175e-09
1.37859e-09
3.28254e-10
5.23225e-11
4.61833e-12
2.93061e-86
3.54064e-82
1.33891e-78
2.70533e-75
3.65316e-72
3.67181e-69
2.94608e-66
1.97304e-63
1.13191e-60
5.6319e-58
2.43894e-55
9.18974e-53
3.01332e-50
8.62868e-48
2.17055e-45
4.84437e-43
9.73294e-41
1.75441e-38
2.82472e-36
4.0609e-34
5.17778e-32
5.76517e-30
5.5148e-28
4.46907e-26
3.02945e-24
1.69133e-22
7.6598e-21
2.77454e-19
7.92769e-18
1.77399e-16
3.093e-15
4.19893e-14
4.49775e-13
3.89659e-12
2.78044e-11
1.54912e-10
3.88737e-10
8.93578e-10
2.05935e-09
4.68329e-09
3.40713e-08
3.44995e-08
3.18372e-08
2.74874e-08
1.42298e-08
8.11515e-09
3.88644e-09
1.35026e-09
3.12488e-10
4.14759e-11
2.76393e-84
3.36051e-80
1.32267e-76
2.78983e-73
3.86973e-70
3.96524e-67
3.22473e-64
2.17635e-61
1.25251e-58
6.23744e-56
2.70256e-53
1.01866e-50
3.33352e-48
9.46365e-46
2.33658e-43
5.04967e-41
9.62599e-39
1.63304e-36
2.47541e-34
3.30436e-32
3.86117e-30
3.93684e-28
3.42896e-26
2.50882e-24
1.5186e-22
7.49712e-21
2.96948e-19
9.29515e-18
2.26756e-16
4.2575e-15
6.10287e-14
6.72912e-13
5.80249e-12
4.03293e-11
2.32183e-10
1.07708e-09
2.3852e-09
5.45864e-09
1.12558e-08
2.77776e-08
2.29036e-07
4.64266e-08
4.44881e-08
4.34944e-07
2.95185e-07
1.30314e-07
4.50431e-08
1.2541e-08
2.70328e-09
3.94095e-10
1.82787e-82
2.23246e-78
9.16106e-75
2.00288e-71
2.87064e-68
3.03622e-65
2.54421e-62
1.76387e-59
1.03904e-56
5.2801e-54
2.33028e-51
8.93695e-49
2.9703e-46
8.52695e-44
2.11038e-41
4.50606e-39
8.33009e-37
1.34093e-34
1.88741e-32
2.32468e-30
2.48824e-28
2.27725e-26
1.7698e-24
1.15226e-22
6.14913e-21
2.64675e-19
9.05204e-18
2.41974e-16
4.98486e-15
7.82601e-14
9.30824e-13
8.42304e-12
5.89917e-11
3.27069e-10
1.44691e-09
5.14416e-09
9.91587e-09
2.55138e-08
4.76255e-08
4.16648e-08
1.91189e-06
1.07376e-05
1.28737e-05
4.4126e-06
1.04975e-07
1.04293e-07
4.69655e-08
1.95443e-08
7.23292e-09
2.33896e-09
8.04564e-81
9.90774e-77
4.22102e-73
9.56197e-70
1.42611e-66
1.57707e-63
1.38551e-60
1.00758e-57
6.21659e-55
3.30023e-52
1.51751e-49
6.04886e-47
2.0825e-44
6.15998e-42
1.55792e-39
3.35728e-37
6.15053e-35
9.5745e-33
1.2675e-30
1.42929e-28
1.37309e-26
1.11739e-24
7.62599e-23
4.29594e-21
1.98822e-19
7.35963e-18
2.14466e-16
4.84335e-15
8.34766e-14
1.08701e-12
1.06696e-11
7.96989e-11
4.60853e-10
2.04807e-09
6.6184e-09
1.62555e-08
2.83957e-08
9.97689e-08
2.56736e-07
2.14887e-06
2.57422e-05
2.94501e-05
2.94982e-05
9.39767e-06
7.26258e-08
5.83052e-08
4.98138e-08
2.81003e-08
1.42224e-08
6.275e-09
2.24104e-79
2.7808e-75
1.22525e-71
2.88007e-68
4.50614e-65
5.28077e-62
4.95544e-59
3.8687e-56
2.56707e-53
1.46431e-50
7.21506e-48
3.07015e-45
1.12303e-42
3.50393e-40
9.24675e-38
2.04778e-35
3.7813e-33
5.79377e-31
7.34174e-29
7.67942e-27
6.62328e-25
4.70022e-23
2.74639e-21
1.31635e-19
5.11886e-18
1.59827e-16
3.91709e-15
7.40045e-14
1.06048e-12
1.14083e-11
9.23797e-11
5.72821e-10
2.75781e-09
9.73856e-09
2.12153e-08
3.32162e-08
4.90303e-08
1.25927e-07
1.40424e-07
1.50089e-05
2.75747e-05
2.70572e-05
1.89869e-05
3.57567e-06
1.56805e-07
4.17064e-08
3.96538e-08
3.91305e-08
1.86648e-08
1.00152e-08
3.71004e-78
4.67215e-74
2.10051e-70
5.13524e-67
8.49452e-64
1.06928e-60
1.0929e-57
9.38949e-55
6.89788e-52
4.36276e-49
2.37755e-46
1.11235e-43
4.43692e-41
1.4942e-38
4.20083e-36
9.75046e-34
1.84979e-31
2.8434e-29
3.51456e-27
3.47052e-25
2.72416e-23
1.69585e-21
8.39358e-20
3.33205e-18
1.06362e-16
2.72403e-15
5.51748e-14
8.63477e-13
1.02555e-11
9.1256e-11
6.14335e-10
3.22155e-09
1.31774e-08
3.60368e-08
5.18613e-08
5.37602e-08
8.94596e-08
2.5099e-07
1.80452e-07
1.82434e-06
7.53874e-06
7.83554e-06
1.87364e-05
3.25617e-05
6.32257e-06
6.78991e-06
1.5787e-06
4.04037e-08
5.02867e-08
1.83181e-08
3.30351e-77
4.22195e-73
1.92113e-69
4.89199e-66
8.62525e-63
1.18537e-59
1.35271e-56
1.32146e-53
1.11637e-50
8.14345e-48
5.09338e-45
2.70689e-42
1.20972e-39
4.49159e-37
1.36719e-34
3.36644e-32
6.62344e-30
1.03012e-27
1.25465e-25
1.18721e-23
8.67161e-22
4.86819e-20
2.09823e-18
6.97195e-17
1.80915e-15
3.7308e-14
6.10043e-13
7.8017e-12
7.62222e-11
5.61011e-10
3.154e-09
1.41358e-08
4.86391e-08
5.20882e-08
1.85038e-07
7.71496e-08
8.43383e-08
1.00514e-07
1.01341e-07
5.57431e-06
2.86619e-05
3.79899e-05
4.69497e-05
9.96519e-05
4.29921e-06
6.80891e-06
4.55895e-06
2.65669e-09
3.86609e-08
1.33197e-08
1.33349e-76
1.72824e-72
7.9464e-69
2.09101e-65
3.93813e-62
5.98873e-59
7.86639e-56
9.17321e-53
9.48404e-50
8.53518e-47
6.52563e-44
4.14715e-41
2.1554e-38
9.04697e-36
3.03066e-33
8.00374e-31
1.6462e-28
2.60784e-26
3.15158e-24
2.88263e-22
1.98335e-20
1.02231e-18
3.94164e-17
1.13906e-15
2.48544e-14
4.1642e-13
5.47765e-12
5.58591e-11
4.35823e-10
2.57827e-09
1.15935e-08
4.20594e-08
1.01535e-07
5.05679e-06
9.93013e-06
8.30501e-08
9.25132e-08
1.0746e-07
1.08127e-07
1.16176e-05
0.00018547
0.000520873
6.15719e-05
3.21363e-05
1.68846e-06
1.76911e-06
8.39117e-07
-7.82605e-07
3.63905e-10
4.42982e-15
1.73593e-76
2.3127e-72
1.09946e-68
3.02836e-65
6.11294e-62
1.03498e-58
1.59319e-55
2.32197e-52
3.20135e-49
3.98691e-46
4.18052e-43
3.5548e-40
2.34753e-37
1.17539e-34
4.45131e-32
1.27398e-29
2.74659e-27
4.4354e-25
5.33028e-23
4.73841e-21
3.10118e-19
1.48979e-17
5.24808e-16
1.35753e-14
2.58931e-13
3.67243e-12
3.93661e-11
3.17625e-10
1.8884e-09
8.07453e-09
2.44988e-08
6.24719e-08
4.8198e-07
1.19063e-05
1.37788e-05
3.6577e-06
1.0922e-07
1.36273e-07
3.54226e-07
0.000272937
0.000893907
0.000531973
4.54378e-06
3.78593e-06
2.31808e-06
1.66426e-06
1.07266e-05
0.00972523
0.0334254
0.0455239
3.38952e-77
4.96623e-73
2.75083e-69
9.341e-66
2.40559e-62
5.22769e-59
1.00275e-55
1.69646e-52
2.71748e-49
4.71106e-46
8.53714e-43
1.25987e-39
1.28207e-36
8.92001e-34
4.19452e-31
1.34892e-28
3.04982e-26
4.94227e-24
5.80284e-22
4.95722e-20
3.0818e-18
1.39239e-16
4.56676e-15
1.08702e-13
1.8781e-12
2.35306e-11
2.12825e-10
1.37245e-09
6.11269e-09
1.8283e-08
3.71964e-08
6.52735e-08
7.76584e-08
7.06232e-07
5.74286e-06
1.47115e-05
1.86594e-05
2.79409e-05
0.000183306
0.000276507
0.00058553
0.0100791
0.083382
0.177989
0.355895
0.538801
0.687372
0.786601
0.826825
0.83796
5.0533e-79
9.49311e-75
7.48525e-71
4.10476e-67
1.84713e-63
7.10863e-60
2.57853e-56
7.8391e-53
1.85267e-49
3.32571e-46
4.90849e-43
8.35296e-40
1.90449e-36
2.80737e-33
2.1162e-30
9.1478e-28
2.32089e-25
3.71607e-23
3.95997e-21
2.92954e-19
1.55458e-17
6.04471e-16
1.73705e-14
3.68351e-13
5.72316e-12
6.44857e-11
5.1982e-10
2.95233e-09
1.16474e-08
3.27789e-08
5.36567e-08
1.00118e-07
9.68803e-08
1.03971e-07
2.14105e-07
3.06598e-05
9.24526e-05
0.000214674
0.000232366
0.000301356
0.000431588
0.308492
0.549619
0.820572
0.957543
1
1
1
1
1
3.71388e-81
7.85354e-77
6.79183e-73
4.08045e-69
2.29006e-65
1.2385e-61
6.34594e-58
2.67722e-54
1.00857e-50
5.05466e-47
1.64016e-43
3.59696e-40
6.18936e-37
1.26927e-33
3.31965e-30
3.10629e-27
1.28063e-24
2.63249e-22
3.01688e-20
2.09231e-18
9.35406e-17
2.86748e-15
6.42199e-14
1.10324e-12
1.47545e-11
1.5138e-10
1.16831e-09
6.7833e-09
3.09419e-08
1.15542e-07
9.54961e-08
2.22841e-07
1.06566e-07
1.1315e-07
6.48379e-07
6.81227e-05
0.00015092
0.000247308
0.00197415
0.0472184
0.494228
0.815908
0.987098
0.999988
1
1
1
1
1
1
1.9456e-83
4.45252e-79
4.20969e-75
3.25456e-71
2.91394e-67
2.06476e-63
1.19999e-59
6.43517e-56
3.43556e-52
2.43219e-48
9.69053e-45
2.73571e-41
7.05058e-38
1.99992e-34
4.67042e-31
1.64076e-27
2.41662e-24
1.04097e-21
1.85442e-19
1.59676e-17
7.53924e-16
2.11115e-14
3.77877e-13
4.7557e-12
4.66496e-11
3.79154e-10
2.57258e-09
1.42608e-08
6.64152e-08
2.33325e-07
1.04187e-07
2.03572e-07
1.07547e-07
1.12658e-07
3.77465e-07
8.19751e-06
0.00124292
0.00251975
0.0474746
0.663295
0.987205
0.999674
0.999986
1
1
1
1
1
1
1
8.11968e-86
2.09635e-81
2.60644e-77
3.41862e-73
3.34906e-69
2.44147e-65
1.55734e-61
1.0586e-57
7.50057e-54
6.42983e-50
3.02797e-46
1.19488e-42
4.90947e-39
1.90823e-35
3.64924e-32
7.25558e-29
2.52309e-25
7.88781e-22
4.51947e-19
8.03306e-17
5.6429e-15
1.86371e-13
3.20252e-12
3.14805e-11
2.04533e-10
1.0506e-09
5.58269e-09
3.26475e-08
5.10657e-08
2.68049e-06
1.26332e-05
1.50381e-06
1.37872e-05
6.84313e-05
0.000288588
0.000186957
0.00113361
0.0512996
0.674943
0.99991
0.999996
0.999991
1
1
1
1
1
1
1
1
2.57686e-88
7.56172e-84
2.06639e-79
3.05505e-75
2.90795e-71
2.05298e-67
1.43706e-63
1.24812e-59
1.12501e-55
1.12072e-51
6.24808e-48
3.6011e-44
2.16786e-40
1.04859e-36
2.45685e-33
6.97559e-30
1.84765e-26
2.8388e-23
6.3793e-20
1.02327e-16
2.51626e-14
1.65028e-12
3.86353e-11
4.19324e-10
2.46683e-09
9.29075e-09
4.70049e-08
2.48608e-07
2.14117e-06
2.52e-05
2.76496e-05
9.03684e-06
9.72566e-05
0.000225893
0.00132986
0.00470357
0.00320269
0.497346
0.992745
0.999996
0.999997
1
1
1
1
1
1
1
1
1
8.5939e-91
3.4228e-86
1.43393e-81
2.12701e-77
1.86902e-73
1.2358e-69
9.49868e-66
1.05303e-61
1.17889e-57
1.35326e-53
9.09235e-50
7.98892e-46
6.72371e-42
3.97063e-38
1.24186e-34
5.43466e-31
1.57972e-27
2.06484e-24
5.7195e-21
8.53946e-18
8.44846e-15
5.10019e-12
2.08899e-10
2.39725e-09
9.8193e-09
1.72652e-08
4.36758e-08
5.48682e-08
1.12324e-05
2.9097e-05
2.68313e-05
1.14589e-05
0.000146373
0.00101948
0.00103603
0.0123875
0.290147
0.84972
0.999738
0.999993
1
1
1
1
1
1
1
1
1
1
2.218e-93
1.64943e-88
8.10694e-84
1.1175e-79
8.75183e-76
5.36563e-72
4.57767e-68
6.31199e-64
8.4679e-60
1.12419e-55
9.32527e-52
1.30765e-47
1.5153e-43
1.10571e-39
4.82721e-36
3.12576e-32
1.09758e-28
1.84842e-25
6.62219e-22
9.10195e-19
1.93826e-15
1.97856e-12
1.4209e-10
2.59454e-09
1.37233e-08
2.08333e-08
3.90683e-08
5.22845e-08
1.41676e-05
2.91683e-05
1.61103e-05
1.80141e-05
6.33939e-05
0.000359212
0.000582731
0.0817137
0.598968
0.987329
0.99999
1
1
1
1
1
1
1
1
1
1
1
3.029e-96
6.86289e-91
3.61525e-86
4.43603e-82
2.97907e-78
1.63531e-74
1.52507e-70
2.58833e-66
4.09931e-62
6.10859e-58
6.40674e-54
1.50128e-49
2.43233e-45
2.26905e-41
1.45056e-37
1.35683e-33
5.87525e-30
1.40379e-26
6.8312e-23
9.57986e-20
3.3205e-16
4.49071e-13
4.68186e-11
1.16573e-09
8.61149e-09
1.68543e-08
4.21143e-08
4.78841e-07
4.66624e-06
9.55166e-06
3.0742e-06
2.67325e-05
0.000101317
0.000342189
7.83603e-05
0.161721
0.829873
0.99999
1
1
1
1
1
1
1
1
1
1
1
1
3.20248e-99
2.37898e-93
1.62042e-88
8.34299e-84
2.66946e-79
2.58968e-75
9.25884e-72
2.09772e-68
1.28194e-64
2.01874e-60
2.7116e-56
1.10178e-51
2.54284e-47
3.25063e-43
3.24904e-39
4.39046e-35
2.39798e-31
8.47716e-28
5.54027e-24
8.64928e-21
4.33194e-17
7.06182e-14
1.00487e-11
3.38523e-10
3.4882e-09
1.00707e-08
1.76986e-08
3.14991e-07
1.03749e-07
7.25343e-08
2.17099e-07
5.26719e-06
8.04431e-06
1.85487e-05
3.9068e-05
0.344696
0.961761
1
1
1
1
1
1
1
1
1
1
1
1
1
1.97939e-99
8.82734e-93
1.05896e-86
2.21738e-81
7.71027e-77
6.87392e-73
2.30065e-69
3.78561e-66
3.68399e-63
2.38991e-60
1.17194e-57
4.82802e-54
1.4936e-49
2.78648e-45
4.91448e-41
9.95491e-37
7.14529e-33
3.88906e-29
3.39352e-25
6.31602e-22
4.36431e-18
8.25493e-15
1.57771e-12
7.28182e-11
1.03961e-09
4.43684e-09
9.21822e-09
1.3693e-07
1.02084e-07
6.46821e-08
4.51521e-08
7.39083e-06
8.00032e-06
4.53504e-06
4.53472e-06
0.547701
0.999776
1
1
1
1
1
1
1
1
1
1
1
1
1
5.85193e-97
2.2594e-90
3.22006e-84
5.87181e-79
1.68966e-74
1.33655e-70
4.18692e-67
6.7943e-64
6.90351e-61
4.95829e-58
2.74097e-55
1.21126e-52
4.30536e-50
2.21154e-47
3.88952e-43
1.35136e-38
1.39291e-34
1.23856e-30
1.46701e-26
3.46563e-23
3.2893e-19
7.17708e-16
1.84708e-13
1.18801e-11
2.34918e-10
1.44793e-09
4.22765e-09
4.65457e-08
4.7535e-08
5.01768e-08
3.85324e-08
1.65737e-06
4.34601e-06
1.48941e-05
0.00142985
0.683513
1
1
1
1
1
1
1
1
1
1
1
1
1
1
1.58114e-94
6.25929e-88
8.66375e-82
1.18691e-76
2.80667e-72
1.9206e-68
5.5353e-65
8.70931e-62
8.95034e-59
6.75972e-56
4.09488e-53
2.09323e-50
9.23807e-48
3.53959e-45
1.1979e-42
4.7057e-40
1.44092e-36
2.22972e-32
3.83968e-28
1.24597e-24
1.67448e-20
4.32091e-17
1.52189e-14
1.39426e-12
3.86244e-11
3.40016e-10
1.42064e-09
1.26885e-08
2.00632e-08
2.90426e-08
3.80419e-08
3.5799e-08
5.93289e-09
1.11444e-08
0.0155496
0.755418
1
1
1
1
1
1
1
1
1
1
1
1
1
1
3.8738e-92
1.75622e-85
1.82799e-79
1.86845e-74
3.55327e-70
2.09836e-66
5.54359e-63
8.35354e-60
8.49417e-57
6.51919e-54
4.10883e-51
2.24036e-48
1.08819e-45
4.80253e-43
2.01248e-40
9.37882e-38
5.28914e-35
2.71821e-32
1.26694e-29
2.39381e-26
4.41525e-22
1.46219e-18
7.42064e-16
1.01405e-13
4.08544e-12
5.22527e-11
3.13437e-10
2.64157e-09
7.52651e-09
1.49382e-08
1.65092e-08
5.82787e-08
6.30672e-09
-2.99003e-08
0.0207394
0.799376
1
1
1
1
1
1
1
1
1
1
1
1
1
1
8.75891e-90
4.23601e-83
3.03243e-77
2.30593e-72
3.50952e-68
1.79486e-64
4.33379e-61
6.19679e-58
6.1367e-55
4.67512e-52
2.96548e-49
1.64565e-46
8.21914e-44
3.76773e-41
1.65115e-38
8.03608e-36
4.94152e-33
3.07212e-30
1.41985e-27
8.20271e-25
7.13641e-22
2.08456e-19
3.37688e-17
4.05861e-15
2.09974e-13
4.09049e-12
3.70624e-11
3.52818e-10
2.51261e-09
6.72571e-09
1.0208e-08
1.7764e-08
6.40444e-09
7.27131e-09
0.0351684
0.822035
1
1
1
1
1
1
1
1
1
1
1
1
1
1
1.04599e-86
1.74818e-84
2.49e-82
3.01189e-80
3.08057e-78
2.64603e-76
1.88831e-74
1.10134e-72
5.12008e-71
1.8258e-69
4.6957e-68
7.82226e-67
6.83951e-66
2.26625e-65
2.81856e-64
1.62546e-62
6.70794e-61
1.18015e-59
6.24943e-59
1.15727e-58
8.80453e-59
2.98694e-59
4.87318e-60
4.19746e-61
2.07927e-62
6.34573e-64
1.26864e-65
1.74218e-67
1.72601e-69
1.28922e-71
7.48919e-74
3.48145e-76
1.33515e-78
4.35773e-81
1.2402e-83
3.10932e-86
6.86351e-89
1.33126e-91
2.27014e-94
3.38488e-97
4.31605e-100
4.48181e-103
3.4859e-106
1.80421e-109
5.26236e-113
6.60755e-117
2.17211e-121
7.75097e-127
1.18522e-131
2.38211e-136
5.90224e-79
5.31512e-77
3.99413e-75
2.51219e-73
1.32297e-71
5.81689e-70
2.12109e-68
6.33858e-67
1.52288e-65
2.85435e-64
3.9795e-63
3.8237e-62
2.29359e-61
1.1988e-60
2.41843e-59
7.11753e-58
2.01701e-56
2.53718e-55
1.05829e-54
1.63837e-54
1.09115e-54
3.32922e-55
4.97139e-56