/*--------------------------------*- C++ -*----------------------------------*\
| =========                 |                                                 |
| \\      /  F ield         | OpenFOAM: The Open Source CFD Toolbox           |
|  \\    /   O peration     | Version:  2.4.0                                 |
|   \\  /    A nd           | Web:      www.OpenFOAM.org                      |
|    \\/     M anipulation  |                                                 |
\*---------------------------------------------------------------------------*/
FoamFile
{
    version     2.0;
    format      ascii;
    class       volScalarField;
    location    "0.157";
    object      alpha.water;
}
// * * * * * * * * * * * * * * * * * * * * * * * * * * * * * * * * * * * * * //

dimensions      [0 0 0 0 0 0 0];

internalField   nonuniform List<scalar> 
60000
(
1
1
1
1
1
1
1
1
1
1
1
1
1
1
1
1
1
1
1
1
1
1
1
1
1
1
1
1
1
1
1
1
1
1
1
1
1
1
1
1
1
1
1
1
1
1
1
1
1
1
1
1
1
1
1
1
1
1
1
1
1
1
1
1
1
1
1
1
1
1
1
1
1
1
1
1
1
1
1
1
1
1
1
1
1
1
1
1
1
1
1
1
1
1
1
1
1
1
1
1
1
1
1
1
1
1
1
1
1
1
1
1
1
1
1
1
1
1
1
1
1
1
1
1
1
1
1
1
1
1
1
1
1
1
1
1
1
1
1
1
1
1
1
1
1
1
1
1
1
1
1
1
1
1
1
1
1
1
1
1
1
1
1
1
1
1
1
1
1
1
1
1
1
1
1
1
1
1
1
1
1
1
1
1
1
1
1
1
1
1
1
1
1
1
1
1
1
1
1
1
1
1
1
1
1
1
1
1
1
1
1
1
1
1
1
1
1
1
1
1
1
1
1
1
1
1
1
1
1
1
1
1
1
1
1
1
1
1
1
1
1
1
1
1
1
1
1
1
1
1
1
1
1
1
1
1
1
1
1
1
1
1
1
1
1
1
1
1
1
1
1
1
1
1
1
1
1
1
1
1
1
1
1
1
1
1
1
1
1
1
1
1
1
1
1
1
1
1
1
1
1
1
1
1
1
1
1
1
1
1
1
1
1
1
1
1
1
1
1
1
1
1
1
1
1
1
1
1
1
1
1
1
1
1
1
1
1
1
1
1
1
1
1
1
1
1
1
1
1
1
1
1
1
1
1
1
1
1
1
1
1
1
1
1
1
1
1
1
1
1
1
1
1
1
1
1
1
1
1
1
1
1
1
1
1
1
1
1
1
1
1
1
1
1
1
1
1
1
1
1
1
1
1
1
1
1
1
1
1
1
1
1
1
1
1
1
1
1
1
1
1
1
1
1
1
1
1
1
1
1
1
1
1
1
1
1
1
1
1
1
1
1
1
1
1
1
1
1
1
1
1
1
1
1
1
1
1
1
1
1
1
1
1
1
1
1
1
1
1
1
1
1
1
1
1
1
1
1
1
1
1
1
1
1
1
1
1
1
1
1
1
1
1
1
1
1
1
1
1
1
1
1
1
1
1
1
1
1
1
1
1
1
1
1
1
1
1
1
1
1
1
1
1
1
1
1
1
1
1
1
1
1
1
1
1
1
1
1
1
1
1
1
1
1
1
1
1
1
1
1
1
1
1
1
1
1
1
1
1
1
1
1
1
1
1
1
1
1
1
1
1
1
1
1
1
1
1
1
1
1
1
1
1
1
1
1
1
1
1
1
1
1
1
1
1
1
1
1
1
1
1
1
1
1
1
1
1
1
1
1
1
1
1
1
1
1
1
1
1
1
1
1
1
1
1
1
1
1
1
1
1
1
1
1
1
1
1
1
1
1
1
1
1
1
1
1
1
1
1
1
1
1
1
1
1
1
1
1
1
1
1
1
1
1
1
1
1
1
1
1
1
1
1
1
1
1
1
1
1
1
1
1
1
1
1
1
1
1
1
1
1
1
1
1
1
1
1
1
1
1
1
1
1
1
1
1
1
1
1
1
1
1
1
1
1
1
1
1
1
1
1
1
1
1
1
1
1
1
1
1
1
1
1
1
1
1
1
1
1
1
1
1
1
1
1
1
1
1
1
1
1
1
1
1
1
1
1
1
1
1
1
1
1
1
1
1
1
1
1
1
1
1
1
1
1
1
1
1
1
1
1
1
1
1
1
1
1
1
1
1
1
1
1
1
1
1
1
1
1
1
1
1
1
1
1
1
1
1
1
1
1
1
1
1
1
1
1
1
1
1
1
1
1
1
1
1
1
1
1
1
1
1
1
1
1
1
1
1
1
1
1
1
1
1
1
1
1
1
1
1
1
1
1
1
1
1
1
1
1
1
1
1
1
1
1
1
1
1
1
1
1
1
1
1
1
1
1
1
1
1
1
1
1
1
1
1
1
1
1
1
1
1
1
1
1
1
1
1
1
1
1
1
1
1
1
1
1
1
1
1
1
1
1
1
1
1
1
1
1
1
1
1
1
1
1
1
1
1
1
1
1
1
1
1
1
1
1
1
1
1
1
1
1
1
1
1
1
1
1
1
1
1
1
1
1
1
1
1
1
1
1
1
1
1
1
1
1
1
1
1
1
1
1
1
1
1
1
1
1
1
1
1
1
1
1
1
1
1
1
1
1
1
1
1
1
1
1
1
1
1
1
1
1
1
1
1
1
1
1
1
1
1
1
1
1
1
1
1
1
1
1
1
1
1
1
1
1
1
1
1
1
1
1
1
1
1
1
1
1
1
1
1
1
1
1
1
1
1
1
1
1
1
1
1
1
1
1
1
1
1
1
1
1
1
1
1
1
1
1
1
1
1
1
1
1
1
1
1
1
1
1
1
1
1
1
1
1
1
1
1
1
1
1
1
1
1
1
1
1
1
1
1
1
1
1
1
1
1
1
1
1
1
1
1
1
1
1
1
1
1
1
1
1
1
1
1
1
1
1
1
1
1
1
1
1
1
1
1
1
1
1
1
1
1
1
1
1
1
1
1
1
1
1
1
1
1
1
1
1
1
1
1
1
1
1
1
1
1
1
1
1
1
1
1
1
1
1
1
1
1
1
1
1
1
1
1
1
1
1
1
1
1
1
1
1
1
1
1
1
1
1
1
1
1
1
1
1
1
1
1
1
1
1
1
1
1
1
1
1
1
1
1
1
1
1
1
1
1
1
1
1
1
1
1
1
1
1
1
1
1
1
1
1
1
1
1
1
1
1
1
1
1
1
1
1
1
1
1
1
1
1
1
1
1
1
1
1
1
1
1
1
1
1
1
1
1
1
1
1
1
1
1
1
1
1
1
1
1
1
1
1
1
1
1
1
1
1
1
1
1
1
1
1
1
1
1
1
1
1
1
1
1
1
1
1
1
1
1
1
1
1
1
1
1
1
1
1
1
1
1
1
1
1
1
1
1
1
1
1
1
1
1
1
1
1
1
1
1
1
1
1
1
1
1
1
1
1
1
1
1
1
1
1
1
1
1
1
1
1
1
1
1
1
1
1
1
1
1
1
1
1
1
1
1
1
1
1
1
1
1
1
1
1
1
1
1
1
1
1
1
1
1
1
1
1
1
1
1
1
1
1
1
1
1
1
1
1
1
1
1
1
1
1
1
1
1
1
1
1
1
1
1
1
1
1
1
1
1
1
1
1
1
1
1
1
1
1
1
1
1
1
1
1
1
1
1
1
1
1
1
1
1
1
1
1
1
1
1
1
1
1
1
1
1
1
1
1
1
1
1
1
1
1
1
1
1
1
1
1
1
1
1
1
1
1
1
1
1
1
1
1
1
1
1
1
1
1
1
1
1
1
1
1
1
1
1
1
1
1
1
1
1
1
1
1
1
1
1
1
1
1
1
1
1
1
1
1
1
1
1
1
1
1
1
1
1
1
1
1
1
1
1
1
1
1
1
1
1
1
1
1
1
1
1
1
1
1
1
1
1
1
1
1
1
1
1
1
1
1
1
1
1
1
1
1
1
1
1
1
1
1
1
1
1
1
1
1
1
1
1
1
1
1
1
1
1
1
1
1
1
1
1
1
1
1
1
1
1
1
1
1
1
1
1
1
1
1
1
1
1
1
1
1
1
1
1
1
1
1
1
1
1
1
1
1
1
1
1
1
1
1
1
1
1
1
1
1
1
1
1
1
1
1
1
1
1
1
1
1
1
1
1
1
1
1
1
1
1
1
1
1
1
1
1
1
1
1
1
1
1
1
1
1
1
1
1
1
1
1
1
1
1
1
1
1
1
1
1
1
1
1
1
1
1
1
1
1
1
1
1
1
1
1
1
1
1
1
1
1
1
1
1
1
1
1
1
1
1
1
1
1
1
1
1
1
1
1
1
1
1
1
1
1
1
1
1
1
1
1
1
1
1
1
1
1
1
1
1
1
1
1
1
1
1
1
1
1
1
1
1
1
1
1
1
1
1
1
1
1
1
1
1
1
1
1
1
1
1
1
1
1
1
1
1
1
1
1
1
1
1
1
1
1
1
1
1
1
1
1
1
1
1
1
1
1
1
1
1
1
1
1
1
1
1
1
1
1
1
1
1
1
1
1
1
1
1
1
1
1
1
1
1
1
1
1
1
1
1
1
1
1
1
1
1
1
1
1
1
1
1
1
1
1
1
1
1
1
1
1
1
1
1
1
1
1
1
1
1
1
1
1
1
1
1
1
1
1
1
1
1
1
1
1
1
1
1
1
1
1
1
1
1
1
1
1
1
1
1
1
1
1
1
1
1
1
1
1
1
1
1
1
1
1
1
1
1
1
1
1
1
1
1
1
1
1
1
1
1
1
1
1
1
1
1
1
1
1
1
1
1
1
1
1
1
1
1
1
1
1
1
1
1
1
1
1
1
1
1
1
1
1
1
1
1
1
1
1
1
1
1
1
1
1
1
1
1
1
1
1
1
1
1
1
1
1
1
1
1
1
1
1
1
1
1
1
1
1
1
1
1
1
1
1
1
1
1
1
1
1
1
1
1
1
1
1
1
1
1
1
1
1
1
1
1
1
1
1
1
1
1
1
1
1
1
1
1
1
1
1
1
1
1
1
1
1
1
1
1
1
1
1
1
1
1
1
1
1
1
1
1
1
1
1
1
1
1
1
1
1
1
1
1
1
1
1
1
1
1
1
1
1
1
1
1
1
1
1
1
1
1
1
1
1
1
1
1
1
1
1
1
1
1
1
1
1
1
1
1
1
1
1
1
1
1
1
1
1
1
1
1
1
1
1
1
1
1
1
1
1
1
1
1
1
1
1
1
1
1
1
1
1
1
1
1
1
1
1
1
1
1
1
1
1
1
1
1
1
1
1
1
1
1
1
1
1
1
1
1
1
1
1
1
1
1
1
1
1
1
1
1
1
1
1
1
1
1
1
1
1
1
1
1
1
1
1
1
1
1
1
1
1
1
1
1
1
1
1
1
1
1
1
1
1
1
1
1
1
1
1
1
1
1
1
1
1
1
1
1
1
1
1
1
1
1
1
1
1
1
1
1
1
1
1
1
1
1
1
1
1
1
1
1
1
1
1
1
1
1
1
1
1
1
1
1
1
1
1
1
1
1
1
1
1
1
1
1
1
1
1
1
1
1
1
1
1
1
1
1
1
1
1
1
1
1
1
1
1
1
1
1
1
1
1
1
1
1
1
1
1
1
1
1
1
1
1
1
1
1
1
1
1
1
1
1
1
1
1
1
1
1
1
1
1
1
1
1
1
1
1
1
1
1
1
1
1
1
1
1
1
1
1
1
1
1
1
1
1
1
1
1
1
1
1
1
1
1
1
1
1
1
1
1
1
1
1
1
1
1
1
1
1
1
1
1
1
1
1
1
1
1
1
1
1
1
1
1
1
1
1
1
1
1
1
1
1
1
1
1
1
1
1
1
1
1
1
1
1
1
1
1
1
1
1
1
1
1
1
1
1
1
1
1
1
1
1
1
1
1
1
1
1
1
1
1
1
1
1
1
1
1
1
1
1
1
1
1
1
1
1
1
1
1
1
1
1
1
1
1
1
1
1
1
1
1
1
1
1
1
1
1
1
1
1
1
1
1
1
1
1
1
1
1
1
1
1
1
1
1
1
1
1
1
1
1
1
1
1
1
1
1
1
1
1
1
1
1
1
1
1
1
1
1
1
1
1
1
1
1
1
1
1
1
1
1
1
1
1
1
1
1
1
1
1
1
1
1
1
1
1
1
1
1
1
1
1
1
1
1
1
1
1
1
1
1
1
1
1
1
1
1
1
1
1
1
1
1
1
1
1
1
1
1
1
1
1
1
1
1
1
1
1
1
1
1
1
1
1
1
1
1
1
1
1
1
1
1
1
1
1
1
1
1
1
1
1
1
1
1
1
1
1
1
1
1
1
1
1
1
1
1
1
1
1
1
1
1
1
1
1
1
1
1
1
1
1
1
1
1
1
1
1
1
1
1
1
1
1
1
1
1
1
1
1
1
1
1
1
1
1
1
1
1
1
1
1
1
1
1
1
1
1
1
1
1
1
1
1
1
1
1
1
1
1
1
1
1
1
1
1
1
1
1
1
1
1
1
1
1
1
1
1
1
1
1
1
1
1
1
1
1
1
1
1
1
1
1
1
1
1
1
1
1
1
1
1
1
1
1
1
1
1
1
1
1
1
1
1
1
1
1
1
1
1
1
1
1
1
1
1
1
1
1
1
1
1
1
1
1
1
1
1
1
1
1
1
1
1
1
1
1
1
1
1
1
1
1
1
1
1
1
1
1
1
1
1
1
1
1
1
1
1
1
1
1
1
1
1
1
1
1
1
1
1
1
1
1
1
1
1
1
1
1
1
1
1
1
1
1
1
1
1
1
1
1
1
1
1
1
1
1
1
1
1
1
1
1
1
1
1
1
1
1
1
1
1
1
1
1
1
1
1
1
1
1
1
1
1
1
1
1
1
1
1
1
1
1
1
1
1
1
1
1
1
1
1
1
1
1
1
1
1
1
1
1
1
1
1
1
1
1
1
1
1
1
1
1
1
1
1
1
1
1
1
1
1
1
1
1
1
1
1
1
1
1
1
1
1
1
1
1
1
1
1
1
1
1
1
1
1
1
1
1
1
1
1
1
1
1
1
1
1
1
1
1
1
1
1
1
1
1
1
1
1
1
1
1
1
1
1
1
1
1
1
1
1
1
1
1
1
1
1
1
1
1
1
1
1
1
1
1
1
1
1
1
1
1
1
1
1
1
1
1
1
1
1
1
1
1
1
1
1
1
1
1
1
1
1
1
1
1
1
1
1
1
1
1
1
1
1
1
1
1
1
1
1
1
1
1
1
1
1
1
1
1
1
1
1
1
1
1
1
1
1
1
1
1
1
1
1
1
1
1
1
1
1
1
1
1
1
1
1
1
1
1
1
1
1
1
1
1
1
1
1
1
1
1
1
1
1
1
1
1
1
1
1
1
1
1
1
1
1
1
1
1
1
1
1
1
1
1
1
1
1
1
1
1
1
1
1
1
1
1
1
1
1
1
1
1
1
1
1
1
1
1
1
1
1
1
1
1
1
1
1
1
1
1
1
1
1
1
1
1
1
1
1
1
1
1
1
1
1
1
1
1
1
1
1
1
1
1
1
1
1
1
1
1
1
1
1
1
1
1
1
1
1
1
1
1
1
1
1
1
1
1
1
1
1
1
1
1
1
1
1
1
1
1
1
1
1
1
1
1
1
1
1
1
1
1
1
1
1
1
1
1
1
1
1
1
1
1
1
1
1
1
1
1
1
1
1
1
1
1
1
1
1
1
1
1
1
1
1
1
1
1
1
1
1
1
1
1
1
1
1
1
1
1
1
1
1
1
1
1
1
1
1
1
1
1
1
1
1
1
1
1
1
1
1
1
1
1
1
1
1
1
1
1
1
1
1
1
1
1
1
1
1
1
1
1
1
1
1
1
1
1
1
1
1
1
1
1
1
1
1
1
1
1
1
1
1
1
1
1
1
1
1
1
1
1
1
1
1
1
1
1
1
1
1
1
1
1
1
1
1
1
1
1
1
1
1
1
1
1
1
1
1
1
1
1
1
1
1
1
1
1
1
1
1
1
1
1
1
1
1
1
1
1
1
1
1
1
1
1
1
1
1
1
1
1
1
1
1
1
1
1
1
1
1
1
1
1
1
1
1
1
1
1
1
1
1
1
1
1
1
1
1
1
1
1
1
1
1
1
1
1
1
1
1
1
1
1
1
1
1
1
1
1
1
1
1
1
1
1
1
1
1
1
1
1
1
1
1
1
1
1
1
1
1
1
1
1
1
1
1
1
1
1
1
1
1
1
1
1
1
1
1
1
1
1
1
1
1
1
1
1
1
1
1
1
1
1
1
1
1
1
1
1
1
1
1
1
1
1
1
1
1
1
1
1
1
1
1
1
1
1
1
1
1
1
1
1
1
1
1
1
1
1
1
1
1
1
1
1
1
1
1
1
1
1
1
1
1
1
1
1
1
1
1
1
1
1
1
1
1
1
1
1
1
1
1
1
1
1
1
1
1
1
1
1
1
1
1
1
1
1
1
1
1
1
1
1
1
1
1
1
1
1
1
1
1
1
1
1
1
1
1
1
1
1
1
1
1
1
1
1
1
1
1
1
1
1
1
1
1
1
1
1
1
1
1
1
1
1
1
1
1
1
1
1
1
1
1
1
1
1
1
1
1
1
1
1
1
1
1
1
1
1
1
1
1
1
1
1
1
1
1
1
1
1
1
1
1
1
1
1
1
1
1
1
1
1
1
1
1
1
1
1
1
1
1
1
1
1
1
1
1
1
1
1
1
1
1
1
1
1
1
1
1
1
1
1
1
1
1
1
1
1
1
1
1
1
1
1
1
1
1
1
1
1
1
1
1
1
1
1
1
1
1
1
1
1
1
1
1
1
1
1
1
1
1
1
1
1
1
1
1
1
1
1
1
1
1
1
1
1
1
1
1
1
1
1
1
1
1
1
1
1
1
1
1
1
1
1
1
1
1
1
1
1
1
1
1
1
1
1
1
1
1
1
1
1
1
1
1
1
1
1
1
1
1
1
1
1
1
1
1
1
1
1
1
1
1
1
1
1
1
1
1
1
1
1
1
1
1
1
1
1
1
1
1
1
1
1
1
1
1
1
1
1
1
1
1
1
1
1
1
1
1
1
1
1
1
1
1
1
1
1
1
1
1
1
1
1
1
1
1
1
1
1
1
1
1
1
1
1
1
1
1
1
1
1
1
1
1
1
1
1
1
1
1
1
1
1
1
1
1
1
1
1
1
1
1
1
1
1
1
1
1
1
1
1
1
1
1
1
1
1
1
1
1
1
1
1
1
1
1
1
1
1
1
1
1
1
1
1
1
1
1
1
1
1
1
1
1
1
1
1
1
1
1
1
1
1
1
1
1
1
1
1
1
1
1
1
1
1
1
1
1
1
1
1
1
1
1
1
1
1
1
1
1
1
1
1
1
1
1
1
1
1
1
1
1
1
1
1
1
1
1
1
1
1
1
1
1
1
1
1
1
1
1
1
1
1
1
1
1
1
1
1
1
1
1
1
1
1
1
1
1
1
1
1
1
1
1
1
1
1
1
1
1
1
1
1
1
1
1
1
1
1
1
1
1
1
1
1
1
1
1
1
1
1
1
1
1
1
1
1
1
1
1
1
1
1
1
1
1
1
1
1
1
1
1
1
1
1
1
1
1
1
1
1
1
1
1
1
1
1
1
1
1
1
1
1
1
1
1
1
1
1
1
1
1
1
1
1
1
1
1
1
1
1
1
1
1
1
1
1
1
1
1
1
1
1
1
1
1
1
1
1
1
1
1
1
1
1
1
1
1
1
1
1
1
1
1
1
1
1
1
1
1
1
1
1
1
1
1
1
1
1
1
1
1
1
1
1
1
1
1
1
1
1
1
1
1
1
1
1
1
1
1
1
1
1
1
1
1
1
1
1
1
1
1
1
1
1
1
1
1
1
1
1
1
1
1
1
1
1
1
1
1
1
1
1
1
1
1
1
1
1
1
1
1
1
1
1
1
1
1
1
1
1
1
1
1
1
1
1
1
1
1
1
1
1
1
1
1
1
1
1
1
1
1
1
1
1
1
1
1
1
1
1
1
1
1
1
1
1
1
1
1
1
1
1
1
1
1
1
1
1
1
1
1
1
1
1
1
1
1
1
1
1
1
1
1
1
1
1
1
1
1
1
1
1
1
1
1
1
1
1
1
1
1
1
1
1
1
1
1
1
1
1
1
1
1
1
1
1
1
1
1
1
1
1
1
1
1
1
1
1
1
1
1
1
1
1
1
1
1
1
1
1
1
1
1
1
1
1
1
1
1
1
1
1
1
1
1
1
1
1
1
1
1
1
1
1
1
1
1
1
1
1
1
1
1
1
1
1
1
1
1
1
1
1
1
1
1
1
1
1
1
1
1
1
1
1
1
1
1
1
1
1
1
1
1
1
1
1
1
1
1
1
1
1
1
1
1
1
1
1
1
1
1
1
1
1
1
1
1
1
1
1
1
1
1
1
1
1
1
1
1
1
1
1
1
1
1
1
1
1
1
1
1
1
1
1
1
1
1
1
1
1
1
1
1
1
1
1
1
1
1
1
1
1
1
1
1
1
1
1
1
1
1
1
1
1
1
1
1
1
1
1
1
1
1
1
1
1
1
1
1
1
1
1
1
1
1
1
1
1
1
1
1
1
1
1
1
1
1
1
1
1
1
1
1
1
1
1
1
1
1
1
1
1
1
1
1
1
1
1
1
1
1
1
1
1
1
1
1
1
1
1
1
1
1
1
1
1
1
1
1
1
1
1
1
1
1
1
1
1
1
1
1
1
1
1
1
1
1
1
1
1
1
1
1
1
1
1
1
1
1
1
1
1
1
1
1
1
1
1
1
1
1
1
1
1
1
1
1
1
1
1
1
1
1
1
1
1
1
1
1
1
1
1
1
1
1
1
1
1
1
1
1
1
1
1
1
1
1
1
1
1
1
1
1
1
1
1
1
1
1
1
1
1
1
1
1
1
1
1
1
1
1
1
1
1
1
1
1
1
1
1
1
1
1
1
1
1
1
1
1
1
1
1
1
1
1
1
1
1
1
1
1
1
1
1
1
1
1
1
1
1
1
1
1
1
1
1
1
1
1
1
1
1
1
1
1
1
1
1
1
1
1
1
1
1
1
1
1
1
1
1
1
1
1
1
1
1
1
1
1
1
1
1
1
1
1
1
1
1
1
1
1
1
1
1
1
1
1
1
1
1
1
1
1
1
1
1
1
1
1
1
1
1
1
1
1
1
1
1
1
1
1
1
1
1
1
1
1
1
1
1
1
1
1
1
1
1
1
1
1
1
1
1
1
1
1
1
1
1
1
1
1
1
1
1
1
1
1
1
1
1
1
1
1
1
1
1
1
1
1
1
1
1
1
1
1
1
1
1
1
1
1
1
1
1
1
1
1
1
1
1
1
1
1
1
1
1
1
1
1
1
1
1
0.999998
0.999955
0.999896
0.999838
0.99978
0.99972
0.999674
0.999636
0.999497
0.999295
0.999101
0.998864
0.998657
0.998434
0.998099
0.997767
0.997491
0.997277
0.997108
0.996969
0.996873
0.99682
0.996789
0.996748
0.996664
0.996562
0.996469
0.996394
0.996335
0.996287
0.996239
0.996162
0.996057
0.995953
0.995802
0.995644
0.995496
0.995355
0.995193
0.995045
0.994918
0.994803
0.994683
0.994557
0.994438
0.994337
0.994259
0.994207
0.994175
0.99415
0.994125
0.994105
0.994097
0.994103
0.994115
0.994128
0.994145
0.994164
0.994182
0.994199
0.994213
0.994223
0.994231
0.994237
0.994242
0.994249
0.99426
0.994275
0.994293
0.99431
0.994325
0.994346
0.994339
0.99433
0.994314
0.994305
0.994301
0.994316
0.994344
0.994391
0.994467
0.99455
0.994683
0.994798
0.995014
0.995136
0.995184
0.995072
0.00748028
0.0074254
0.0073127
0.00715782
0.00696794
0.00676237
0.00655262
0.00635459
0.00617688
0.00602458
0.00589714
0.00578793
0.00568991
0.00562889
0.00557054
0.00548511
0.00536609
0.00520731
0.00499672
0.00473571
0.00454251
0.00437929
0.00419007
0.00402315
0.00382169
0.00363688
0.00358453
0.00355011
0.0034979
0.00342831
0.00336456
0.00332182
0.0032926
0.00327071
0.00327017
0.00330803
0.00340464
0.0035186
0.00360679
0.00365156
0.00364172
0.00357876
0.00347282
0.00335489
0.00322651
0.00307135
0.00293832
0.00280767
0.00267068
0.00254105
0.00246405
0.00241484
0.00239015
0.00238836
0.00242211
0.0024943
0.00258395
0.00267489
0.00276194
0.00284185
0.00292035
0.00301471
0.00313128
0.00326878
0.00341806
0.00357055
0.00373247
0.00389955
0.00406112
0.00421649
0.00436092
0.00449418
0.00461649
0.00472928
0.00483095
0.00492533
0.00500642
0.00507397
0.00512378
0.00515637
0.00517037
0.00516813
0.00514661
0.00510218
0.00506924
0.00502893
0.00498098
0.00491762
0.0048398
0.0047349
0.00460913
0.00445704
0.00426973
0.00406992
0.00381469
0.00357324
0.00322849
0.00297337
0.00279071
0.00276335
3.52581e-09
4.22826e-09
5.55366e-09
4.82773e-09
4.0026e-09
3.47076e-09
3.01179e-09
2.53642e-09
2.22917e-09
2.06461e-09
2.13907e-09
2.24939e-09
1.95678e-09
1.00326e-09
1.80996e-10
7.12202e-11
5.93291e-11
5.19454e-11
4.84522e-11
4.70071e-11
4.55456e-11
4.55456e-11
4.55667e-11
5.15877e-11
2.36102e-10
6.27049e-10
6.59096e-10
6.4815e-10
6.79764e-10
7.22066e-10
7.54094e-10
7.43809e-10
7.32421e-10
7.59116e-10
8.23217e-10
8.94144e-10
9.15286e-10
8.90176e-10
8.91175e-10
8.95022e-10
9.05825e-10
9.12265e-10
9.21765e-10
8.62813e-10
7.62592e-10
7.22665e-10
6.52289e-10
5.87749e-10
5.55279e-10
5.43128e-10
5.12604e-10
5.13985e-10
5.37766e-10
5.81107e-10
6.29987e-10
6.7875e-10
7.33378e-10
7.87364e-10
8.42304e-10
8.92275e-10
9.33398e-10
9.5971e-10
9.67824e-10
9.77683e-10
1.00165e-09
1.01528e-09
1.03098e-09
1.04209e-09
1.03746e-09
1.02323e-09
1.00005e-09
9.69934e-10
9.42236e-10
9.2229e-10
8.49235e-10
7.30422e-10
7.76658e-10
8.10771e-10
7.91839e-10
7.77926e-10
7.30525e-10
6.95167e-10
7.29929e-10
7.18367e-10
5.41682e-10
2.4735e-10
1.43465e-10
1.43378e-10
1.43291e-10
1.43202e-10
1.43109e-10
1.43011e-10
1.42911e-10
1.42809e-10
1.42703e-10
1.42591e-10
1.42474e-10
1.42351e-10
1.4222e-10
1.42059e-10
3.44189e-09
4.67747e-09
6.09352e-09
5.08252e-09
4.10344e-09
3.42952e-09
3.04102e-09
2.51362e-09
2.09525e-09
1.93692e-09
2.01792e-09
2.13387e-09
1.96361e-09
1.52232e-09
1.24725e-09
1.11353e-09
1.04565e-09
9.95871e-10
1.11473e-09
1.20251e-09
8.26013e-10
5.61091e-10
4.65116e-10
3.89109e-10
4.99756e-10
6.59246e-10
5.52229e-10
5.20988e-10
5.57118e-10
6.1381e-10
6.43407e-10
6.27839e-10
6.17746e-10
6.48192e-10
7.12654e-10
7.79659e-10
7.84154e-10
7.70379e-10
7.8082e-10
7.92394e-10
8.03116e-10
8.14032e-10
8.21603e-10
7.53745e-10
6.63805e-10
6.22146e-10
5.33404e-10
4.81726e-10
4.58693e-10
4.46125e-10
4.10923e-10
4.06895e-10
4.24376e-10
4.61682e-10
5.05241e-10
5.45982e-10
5.90341e-10
6.36937e-10
6.85981e-10
7.37864e-10
7.89816e-10
8.26008e-10
8.4202e-10
8.50969e-10
8.66142e-10
8.89458e-10
9.05118e-10
9.08382e-10
9.09269e-10
9.02522e-10
8.83655e-10
8.54271e-10
8.18067e-10
7.78214e-10
6.82391e-10
6.11692e-10
6.73866e-10
6.50746e-10
6.37405e-10
6.25921e-10
5.66852e-10
6.05415e-10
5.95792e-10
5.84628e-10
5.86466e-10
5.74452e-10
5.63181e-10
5.40447e-10
5.21743e-10
4.88932e-10
4.61205e-10
4.18127e-10
3.86273e-10
3.4367e-10
3.28748e-10
3.2195e-10
3.42251e-10
3.29842e-10
3.30205e-10
3.76411e-10
2.43009e-11
5.8923e-11
9.47766e-11
1.00971e-10
8.27688e-11
7.10256e-11
6.6874e-11
5.66774e-11
4.98297e-11
5.08204e-11
5.82794e-11
6.52142e-11
6.19404e-11
5.04462e-11
4.36649e-11
3.99006e-11
3.74289e-11
3.57486e-11
3.85454e-11
3.85756e-11
2.86172e-11
2.11888e-11
1.80206e-11
1.56252e-11
1.60306e-11
1.74825e-11
1.48629e-11
1.37951e-11
1.35569e-11
1.36696e-11
1.36035e-11
1.3189e-11
1.2987e-11
1.34239e-11
1.44899e-11
1.57785e-11
1.63902e-11
1.66005e-11
1.69787e-11
1.7288e-11
1.75297e-11
1.76938e-11
1.75488e-11
1.62681e-11
1.46355e-11
1.35387e-11
1.22588e-11
1.15397e-11
1.10754e-11
1.06218e-11
9.964e-12
9.59458e-12
9.41621e-12
9.51021e-12
9.69982e-12
9.80178e-12
9.87186e-12
9.96383e-12
1.01163e-11
1.03312e-11
1.05319e-11
1.05442e-11
1.03255e-11
1.00204e-11
9.76256e-12
9.51099e-12
9.11783e-12
8.59109e-12
8.02402e-12
7.4089e-12
6.75604e-12
6.0947e-12
5.45158e-12
4.8569e-12
4.32061e-12
3.82916e-12
3.43908e-12
3.08361e-12
2.77705e-12
2.4885e-12
2.19691e-12
1.9351e-12
1.68115e-12
1.44948e-12
1.24019e-12
1.05134e-12
9.03029e-13
7.93073e-13
7.43736e-13
7.08534e-13
7.05202e-13
7.39683e-13
8.85423e-13
1.18136e-12
1.68452e-12
2.24767e-12
2.5468e-12
2.23186e-12
1.65421e-12
1.37596e-12
2.07512e-13
9.10493e-13
1.79992e-12
2.23074e-12
1.91113e-12
1.73595e-12
1.7518e-12
1.53097e-12
1.41163e-12
1.53432e-12
1.84447e-12
2.11595e-12
2.03623e-12
1.66693e-12
1.44702e-12
1.33393e-12
1.25517e-12
1.20247e-12
1.25946e-12
1.21789e-12
9.40387e-13
7.43261e-13
6.4391e-13
5.73147e-13
5.65286e-13
5.66618e-13
4.88475e-13
4.48539e-13
4.28234e-13
4.17042e-13
4.0266e-13
3.83506e-13
3.70592e-13
3.70634e-13
3.83157e-13
4.0198e-13
4.12905e-13
4.16673e-13
4.22038e-13
4.26223e-13
4.29437e-13
4.3066e-13
4.23992e-13
3.96984e-13
3.63501e-13
3.38619e-13
3.15008e-13
2.99489e-13
2.85383e-13
2.69005e-13
2.49159e-13
2.32264e-13
2.17599e-13
2.07355e-13
1.98862e-13
1.89174e-13
1.79136e-13
1.70533e-13
1.64266e-13
1.59731e-13
1.55049e-13
1.47851e-13
1.37799e-13
1.26864e-13
1.16591e-13
1.0633e-13
9.48191e-14
8.27131e-14
7.11897e-14
6.04508e-14
5.0719e-14
4.21295e-14
3.46801e-14
2.83911e-14
2.31382e-14
1.87769e-14
1.52159e-14
1.22673e-14
9.82548e-15
7.74034e-15
5.95494e-15
4.46918e-15
3.28077e-15
2.37114e-15
1.71253e-15
1.26489e-15
1.02557e-15
9.65705e-16
1.00325e-15
1.1414e-15
1.56573e-15
2.645e-15
5.15559e-15
1.01831e-14
1.85202e-14
2.87573e-14
3.56489e-14
3.25002e-14
1.98254e-14
7.26689e-15
2.16329e-15
1.69553e-14
4.02712e-14
5.58817e-14
5.05368e-14
4.90773e-14
5.25293e-14
4.69039e-14
4.46365e-14
5.04571e-14
6.23222e-14
7.25598e-14
7.00981e-14
5.70942e-14
4.95226e-14
4.59866e-14
4.35261e-14
4.18322e-14
4.28668e-14
4.06213e-14
3.23996e-14
2.67466e-14
2.34742e-14
2.12335e-14
2.06783e-14
1.99772e-14
1.724e-14
1.56482e-14
1.47318e-14
1.41007e-14
1.33433e-14
1.247e-14
1.18069e-14
1.14798e-14
1.14318e-14
1.15484e-14
1.15908e-14
1.15304e-14
1.15139e-14
1.14973e-14
1.1477e-14
1.14112e-14
1.11534e-14
1.04797e-14
9.67258e-15
9.03561e-15
8.46099e-15
8.0026e-15
7.51897e-15
6.94769e-15
6.29655e-15
5.6811e-15
5.11054e-15
4.63759e-15
4.21493e-15
3.79506e-15
3.39847e-15
3.06618e-15
2.81091e-15
2.60661e-15
2.40977e-15
2.18452e-15
1.93026e-15
1.67761e-15
1.44689e-15
1.22988e-15
1.01598e-15
8.16795e-16
6.45164e-16
5.01764e-16
3.85404e-16
2.9288e-16
2.20114e-16
1.63898e-16
1.20858e-16
8.8199e-17
6.36715e-17
4.5284e-17
3.15757e-17
2.13225e-17
1.38317e-17
8.57387e-18
5.11347e-18
2.99305e-18
1.80512e-18
1.24517e-18
1.13281e-18
1.33209e-18
1.95275e-18
3.82626e-18
9.31783e-18
2.42372e-17
6.07245e-17
1.3799e-16
2.72676e-16
4.48421e-16
5.78876e-16
5.34896e-16
2.9691e-16
5.81309e-17
2.69714e-17
3.70796e-16
1.03328e-15
1.56029e-15
1.49489e-15
1.55293e-15
1.73788e-15
1.5699e-15
1.52274e-15
1.76422e-15
2.21811e-15
2.61004e-15
2.52321e-15
2.03958e-15
1.76872e-15
1.65563e-15
1.57909e-15
1.52273e-15
1.53503e-15
1.43772e-15
1.17696e-15
9.99552e-16
8.85082e-16
8.08054e-16
7.81104e-16
7.39147e-16
6.34965e-16
5.69975e-16
5.30894e-16
5.01415e-16
4.66459e-16
4.28024e-16
3.97522e-16
3.77483e-16
3.64651e-16
3.56449e-16
3.48928e-16
3.41039e-16
3.35278e-16
3.30539e-16
3.26273e-16
3.20987e-16
3.10885e-16
2.91485e-16
2.69142e-16
2.50564e-16
2.33654e-16
2.18385e-16
2.01676e-16
1.82404e-16
1.61265e-16
1.40848e-16
1.21926e-16
1.058e-16
9.15058e-17
7.8207e-17
6.63955e-17
5.68706e-17
4.96517e-17
4.39051e-17
3.86373e-17
3.32562e-17
2.78052e-17
2.27605e-17
1.83832e-17
1.45394e-17
1.11085e-17
8.21657e-18
5.94649e-18
4.2279e-18
2.96513e-18
2.0538e-18
1.40238e-18
9.4391e-19
6.25062e-19
4.06379e-19
2.58729e-19
1.60281e-19
9.58347e-20
5.44454e-20
2.90742e-20
1.44622e-20
6.78096e-21
3.14662e-21
1.66302e-21
1.32203e-21
1.84732e-21
3.86153e-21
1.09217e-20
3.4782e-20
1.10095e-19
3.2642e-19
8.77918e-19
2.08627e-18
4.25223e-18
7.14186e-18
9.30819e-18
8.49723e-18
4.36312e-18
5.08953e-19
3.919e-19
9.24982e-18
2.97293e-17
4.77104e-17
4.84255e-17
5.3581e-17
6.18871e-17
5.61433e-17
5.50324e-17
6.47541e-17
8.24374e-17
9.78213e-17
9.45217e-17
7.57801e-17
6.57649e-17
6.21107e-17
5.97529e-17
5.78162e-17
5.75641e-17
5.35418e-17
4.47464e-17
3.87098e-17
3.44795e-17
3.16336e-17
3.03843e-17
2.83385e-17
2.41928e-17
2.14951e-17
1.98236e-17
1.84907e-17
1.69296e-17
1.52632e-17
1.39167e-17
1.29395e-17
1.21801e-17
1.157e-17
1.10528e-17
1.06012e-17
1.02533e-17
9.96866e-18
9.71549e-18
9.44185e-18
9.0449e-18
8.42763e-18
7.74404e-18
7.15172e-18
6.60295e-18
6.07808e-18
5.50746e-18
4.87102e-18
4.19592e-18
3.54801e-18
2.95863e-18
2.46009e-18
2.02953e-18
1.64929e-18
1.32903e-18
1.0813e-18
8.98871e-19
7.57476e-19
6.34089e-19
5.17715e-19
4.09093e-19
3.15001e-19
2.38005e-19
1.75025e-19
1.23607e-19
8.40664e-20
5.57138e-20
3.61832e-20
2.31374e-20
1.4575e-20
9.0145e-21
5.46324e-21
3.23326e-21
1.8616e-21
1.03792e-21
5.55122e-22
2.81502e-22
1.32664e-22
5.72378e-23
2.23036e-23
8.02376e-24
3.00421e-24
1.80237e-24
2.89558e-24
8.81458e-24
3.24528e-23
1.22737e-22
4.44714e-22
1.49859e-21
4.60906e-21
1.27079e-20
3.07448e-20
6.34445e-20
1.07253e-19
1.3952e-19
1.25065e-19
6.01532e-20
3.96095e-21
6.49798e-21
2.55721e-19
9.39829e-19
1.57449e-18
1.68876e-18
1.97692e-18
2.3326e-18
2.11479e-18
2.08287e-18
2.47376e-18
3.17795e-18
3.79729e-18
3.66587e-18
2.91509e-18
2.53381e-18
2.416e-18
2.34537e-18
2.27682e-18
2.24526e-18
2.07923e-18
1.76612e-18
1.54645e-18
1.38264e-18
1.27117e-18
1.21332e-18
1.11852e-18
9.48715e-19
8.34947e-19
7.6253e-19
7.02586e-19
6.33481e-19
5.61482e-19
5.02908e-19
4.58475e-19
4.21669e-19
3.90407e-19
3.64322e-19
3.42741e-19
3.25923e-19
3.12192e-19
3.00045e-19
2.87672e-19
2.72158e-19
2.51268e-19
2.28942e-19
2.09071e-19
1.90475e-19
1.7235e-19
1.53067e-19
1.32299e-19
1.10969e-19
9.08632e-20
7.30363e-20
5.82668e-20
4.59202e-20
3.5523e-20
2.71887e-20
2.10139e-20
1.66255e-20
1.33427e-20
1.06175e-20
8.21719e-21
6.13192e-21
4.43814e-21
3.13534e-21
2.14333e-21
1.39904e-21
8.74882e-22
5.30967e-22
3.14928e-22
1.83497e-22
1.04995e-22
5.87127e-23
3.19624e-23
1.68542e-23
8.56101e-24
4.15999e-24
1.90922e-24
8.14687e-25
3.15193e-25
1.08295e-25
3.24453e-26
8.92531e-27
3.44559e-27
5.4794e-27
2.10778e-26
9.15093e-26
3.88702e-25
1.56185e-24
5.84187e-24
2.00884e-23
6.26717e-23
1.74554e-22
4.25044e-22
8.79368e-22
1.48302e-21
1.91024e-21
1.67208e-21
7.57089e-22
2.50623e-23
1.21448e-22
7.64192e-21
3.20489e-20
5.54099e-20
6.2556e-20
7.68929e-20
9.19733e-20
8.30825e-20
8.18997e-20
9.7748e-20
1.26397e-19
1.5192e-19
1.46509e-19
1.15591e-19
1.00698e-19
9.69726e-20
9.49899e-20
9.24956e-20
9.05217e-20
8.3574e-20
7.18933e-20
6.34547e-20
5.68588e-20
5.22846e-20
4.95878e-20
4.52527e-20
3.81409e-20
3.32679e-20
3.00879e-20
2.73875e-20
2.43298e-20
2.12125e-20
1.86732e-20
1.67054e-20
1.5037e-20
1.35972e-20
1.24062e-20
1.14448e-20
1.06945e-20
1.00837e-20
9.54723e-21
9.02109e-21
8.41865e-21
7.68518e-21
6.92581e-21
6.2405e-21
5.59858e-21
4.97364e-21
4.32628e-21
3.6526e-21
2.98226e-21
2.36514e-21
1.83348e-21
1.40469e-21
1.05872e-21
7.8035e-22
5.67592e-22
4.16738e-22
3.13656e-22
2.39586e-22
1.81133e-22
1.32809e-22
9.35464e-23
6.36168e-23
4.20129e-23
2.67001e-23
1.61124e-23
9.26767e-24
5.15272e-24
2.79179e-24
1.48207e-24
7.6989e-25
3.88875e-25
1.89904e-25
8.90649e-26
3.98189e-26
1.68124e-26
6.59477e-27
2.35536e-27
7.42601e-28
2.01046e-28
4.59068e-29
1.10922e-29
1.20029e-29
4.93127e-29
2.35912e-28
1.09373e-27
4.78319e-27
1.95372e-26
7.38554e-26
2.55746e-25
8.01093e-25
2.2338e-24
5.42849e-24
1.11652e-23
1.86224e-23
2.35383e-23
1.99487e-23
8.48281e-24
1.25292e-25
2.54576e-24
2.42136e-22
1.16045e-21
2.05894e-21
2.43561e-21
3.12006e-21
3.7621e-21
3.38027e-21
3.32608e-21
3.97609e-21
5.16508e-21
6.23916e-21
6.01056e-21
4.70698e-21
4.11193e-21
3.99963e-21
3.95215e-21
3.85892e-21
3.75314e-21
3.45698e-21
3.00309e-21
2.66452e-21
2.39012e-21
2.19541e-21
2.06866e-21
1.87055e-21
1.567e-21
1.35517e-21
1.21377e-21
1.09162e-21
9.5589e-22
8.20267e-22
7.10004e-22
6.23695e-22
5.50056e-22
4.86455e-22
4.34279e-22
3.92795e-22
3.60499e-22
3.34326e-22
3.1157e-22
2.89898e-22
2.66614e-22
2.40277e-22
2.1378e-22
1.89775e-22
1.67427e-22
1.45914e-22
1.24246e-22
1.02434e-22
8.13988e-23
6.25402e-23
4.67793e-23
3.44433e-23
2.48498e-23
1.74656e-23
1.20783e-23
8.42466e-24
6.02996e-24
4.38186e-24
3.1461e-24
2.18465e-24
1.45206e-24
9.27683e-25
5.72739e-25
3.38487e-25
1.88932e-25
1.00015e-25
5.09761e-26
2.52439e-26
1.22136e-26
5.76004e-27
2.62724e-27
1.15028e-27
4.79422e-28
1.88428e-28
6.90122e-29
2.30824e-29
6.87733e-30
1.75846e-30
3.72813e-31
6.72514e-32
3.05955e-32
1.09065e-31
5.38872e-31
2.66986e-30
1.25368e-29
5.51998e-29
2.26286e-28
8.56587e-28
2.96432e-27
9.26099e-27
2.5699e-26
6.19866e-26
1.26104e-25
2.07015e-25
2.55562e-25
2.08662e-25
8.29511e-26
4.90064e-28
5.96576e-26
8.02234e-24
4.40505e-23
8.01091e-23
9.88502e-23
1.31059e-22
1.58667e-22
1.41681e-22
1.38896e-22
1.65888e-22
2.16138e-22
2.62196e-22
2.52331e-22
1.96238e-22
1.71975e-22
1.68942e-22
1.68317e-22
1.64736e-22
1.59381e-22
1.46511e-22
1.28236e-22
1.14166e-22
1.02432e-22
9.38954e-23
8.78921e-23
7.87978e-23
6.56231e-23
5.62858e-23
4.99274e-23
4.43727e-23
3.83177e-23
3.238e-23
2.75715e-23
2.3794e-23
2.05771e-23
1.78159e-23
1.55711e-23
1.3807e-23
1.24403e-23
1.13399e-23
1.03946e-23
9.51726e-24
8.61935e-24
7.65969e-24
6.71937e-24
5.8702e-24
5.08824e-24
4.3478e-24
3.6228e-24
2.91597e-24
2.25509e-24
1.67899e-24
1.21231e-24
8.58429e-25
5.93325e-25
3.97951e-25
2.61786e-25
1.73482e-25
1.18056e-25
8.15878e-26
5.56162e-26
3.65682e-26
2.29331e-26
1.37646e-26
7.94634e-27
4.36925e-27
2.25719e-27
1.10058e-27
5.14673e-28
2.33136e-28
1.02865e-28
4.40601e-29
1.8151e-29
7.12538e-30
2.63887e-30
9.1147e-31
2.89388e-31
8.24444e-32
2.04567e-32
4.23086e-33
7.04614e-34
1.31247e-34
2.28941e-34
1.10577e-33
5.56395e-33
2.78039e-32
1.30797e-31
5.75916e-31
2.35757e-30
8.89973e-30
3.067e-29
9.5265e-29
2.62323e-28
6.26283e-28
1.25672e-27
2.02432e-27
2.43113e-27
1.90038e-27
6.97449e-28
1.50575e-30
1.55202e-27
2.75266e-25
1.73589e-24
3.24081e-24
4.15447e-24
5.6663e-24
6.86823e-24
6.09326e-24
5.94396e-24
7.07855e-24
9.23798e-24
1.12468e-23
1.08131e-23
8.35554e-24
7.3479e-24
7.28813e-24
7.31694e-24
7.17533e-24
6.91047e-24
6.34068e-24
5.58163e-24
4.97978e-24
4.46601e-24
4.08273e-24
3.79629e-24
3.37603e-24
2.79547e-24
2.37857e-24
2.08968e-24
1.83562e-24
1.56387e-24
1.30207e-24
1.09119e-24
9.25553e-25
7.8538e-25
6.66227e-25
5.70326e-25
4.95752e-25
4.38348e-25
3.92516e-25
3.53675e-25
3.18475e-25
2.83857e-25
2.48514e-25
2.14732e-25
1.84474e-25
1.56998e-25
1.31478e-25
1.07177e-25
8.4209e-26
6.33793e-26
4.57403e-26
3.18953e-26
2.17333e-26
1.44015e-26
9.22443e-27
5.77534e-27
3.63688e-27
2.35279e-27
1.54609e-27
1.0005e-27
6.22854e-28
3.68572e-28
2.07868e-28
1.12253e-28
5.74579e-29
2.74948e-29
1.23595e-29
5.30832e-30
2.20165e-30
8.86641e-31
3.45172e-31
1.28508e-31
4.52548e-32
1.4899e-32
4.52399e-33
1.24534e-33
3.0218e-34
6.24152e-35
1.04388e-35
1.41655e-36
5.47272e-37
2.09622e-36
1.03686e-35
5.21271e-35
2.60281e-34
1.22207e-33
5.36525e-33
2.18776e-32
8.21771e-32
2.81448e-31
8.67538e-31
2.36616e-30
5.58123e-30
1.10247e-29
1.73827e-29
2.02363e-29
1.50393e-29
4.99515e-30
3.95343e-33
4.42493e-29
9.71782e-27
7.04931e-26
1.35523e-25
1.79863e-25
2.51056e-25
3.04086e-25
2.68053e-25
2.59971e-25
3.08226e-25
4.02461e-25
4.91436e-25
4.72056e-25
3.62625e-25
3.20066e-25
3.20407e-25
3.23934e-25
3.18159e-25
3.05167e-25
2.79497e-25
2.471e-25
2.20722e-25
1.97762e-25
1.80208e-25
1.66444e-25
1.46875e-25
1.20935e-25
1.02096e-25
8.88442e-26
7.71524e-26
6.48748e-26
5.32462e-26
4.39368e-26
3.66453e-26
3.05278e-26
2.5388e-26
2.12956e-26
1.81461e-26
1.57407e-26
1.38388e-26
1.22509e-26
1.08443e-26
9.50755e-27
8.19459e-27
6.96908e-27
5.88401e-27
4.91448e-27
4.03244e-27
3.21522e-27
2.46575e-27
1.80622e-27
1.2639e-27
8.51511e-28
5.58667e-28
3.55172e-28
2.17408e-28
1.29623e-28
7.75876e-29
4.7717e-29
2.98131e-29
1.83141e-29
1.07958e-29
6.0289e-30
3.19597e-30
1.61522e-30
7.70193e-31
3.41684e-31
1.4175e-31
5.59785e-32
2.12821e-32
7.8308e-33
2.77342e-33
9.33978e-34
2.95309e-34
8.65018e-35
2.31096e-35
5.51986e-36
1.14161e-36
1.96411e-37
2.66558e-38
3.41832e-39
3.94465e-39
1.7969e-38
8.73576e-38
4.36364e-37
2.17208e-36
1.01591e-35
4.43961e-35
1.80048e-34
6.71982e-34
2.28416e-33
6.9778e-33
1.88265e-32
4.38163e-32
8.50793e-32
1.31076e-31
1.47504e-31
1.03536e-31
3.02971e-32
8.2242e-36
1.3598e-30
3.51414e-28
2.93413e-27
5.82997e-27
7.98788e-27
1.13617e-26
1.37335e-26
1.20327e-26
1.15961e-26
1.36714e-26
1.78429e-26
2.18401e-26
2.09606e-26
1.60154e-26
1.41893e-26
1.43293e-26
1.4579e-26
1.43357e-26
1.36989e-26
1.25237e-26
1.11072e-26
9.92688e-27
8.88215e-27
8.06453e-27
7.3987e-27
6.48015e-27
5.30605e-27
4.44515e-27
3.83183e-27
3.29029e-27
2.73174e-27
2.21122e-27
1.79738e-27
1.47468e-27
1.20667e-27
9.84326e-28
8.09307e-28
6.76032e-28
5.75151e-28
4.96265e-28
4.31434e-28
3.7526e-28
3.23491e-28
2.74337e-28
2.295e-28
1.9035e-28
1.55974e-28
1.25367e-28
9.7762e-29
7.31773e-29
5.21758e-29
3.54099e-29
2.30589e-29
1.45751e-29
8.896e-30
5.2077e-30
2.95856e-30
1.68384e-30
9.84587e-31
5.84912e-31
3.41119e-31
1.90433e-31
1.00391e-31
5.00422e-32
2.36831e-32
1.05284e-32
4.33448e-33
1.6614e-33
6.04009e-34
2.10753e-34
7.09373e-35
2.28823e-35
6.97804e-36
1.98325e-36
5.17485e-37
1.21788e-37
2.52732e-38
4.46107e-39
6.40298e-40
7.13312e-41
1.21506e-41
3.06849e-41
1.38984e-40
6.56921e-40
3.24882e-39
1.60991e-38
7.49143e-38
3.25493e-37
1.31141e-36
4.85808e-36
1.63723e-35
4.9519e-35
1.32037e-34
3.02924e-34
5.77639e-34
8.68609e-34
9.43196e-34
6.22004e-34
1.55123e-34
1.33822e-38
4.43048e-32
1.29774e-29
1.24681e-28
2.5698e-28
3.62688e-28
5.23851e-28
6.3137e-28
5.50084e-28
5.26609e-28
6.16798e-28
8.03947e-28
9.85908e-28
9.45416e-28
7.18863e-28
6.39343e-28
6.50976e-28
6.66067e-28
6.55458e-28
6.24148e-28
5.6954e-28
5.06273e-28
4.52483e-28
4.04176e-28
3.65537e-28
3.33113e-28
2.89646e-28
2.35862e-28
1.96104e-28
1.67473e-28
1.42223e-28
1.16629e-28
9.31475e-29
7.46153e-29
6.02468e-29
4.8443e-29
3.87797e-29
3.12632e-29
2.56017e-29
2.13587e-29
1.80805e-29
1.54305e-29
1.31836e-29
1.11706e-29
9.31682e-30
7.66333e-30
6.24191e-30
5.01659e-30
3.94927e-30
3.01173e-30
2.20035e-30
1.52724e-30
1.00555e-30
6.33195e-31
3.85795e-31
2.26215e-31
1.26734e-31
6.86479e-32
3.71654e-32
2.06657e-32
1.16748e-32
6.46517e-33
3.419e-33
1.70206e-33
7.98198e-34