/*--------------------------------*- C++ -*----------------------------------*\
| =========                 |                                                 |
| \\      /  F ield         | OpenFOAM: The Open Source CFD Toolbox           |
|  \\    /   O peration     | Version:  2.4.0                                 |
|   \\  /    A nd           | Web:      www.OpenFOAM.org                      |
|    \\/     M anipulation  |                                                 |
\*---------------------------------------------------------------------------*/
FoamFile
{
    version     2.0;
    format      ascii;
    class       surfaceScalarField;
    location    "0.184";
    object      phiAlpha;
}
// * * * * * * * * * * * * * * * * * * * * * * * * * * * * * * * * * * * * * //

dimensions      [0 3 -1 0 0 0 0];

internalField   nonuniform List<scalar> 
7080
(
3.54545e-08
-3.54545e-08
6.88691e-08
-3.34147e-08
8.94809e-08
-2.06117e-08
9.18032e-08
-2.32229e-09
8.14581e-08
1.0345e-08
5.68564e-08
2.46017e-08
3.32257e-08
2.36307e-08
1.26343e-08
2.05914e-08
-3.57768e-09
1.6212e-08
-1.14026e-08
7.82495e-09
-1.24971e-08
1.0945e-09
-2.36447e-08
1.11476e-08
-2.89885e-08
5.34382e-09
-3.62618e-08
7.27326e-09
-3.97414e-08
3.4796e-09
-2.00364e-08
-1.97049e-08
1.45384e-08
-3.45112e-08
2.67023e-08
-1.2164e-08
1.8943e-08
7.75927e-09
-3.23524e-08
5.13316e-08
-1.34048e-07
1.02868e-07
-1.91612e-07
5.81605e-08
-1.8476e-07
-6.86594e-09
-1.88924e-07
4.15224e-09
-1.75201e-07
-1.37331e-08
-1.33588e-07
-4.24025e-08
-9.07833e-08
-4.34264e-08
-5.89961e-08
-3.20255e-08
-3.07243e-08
-2.85451e-08
-2.65245e-08
-4.44625e-09
3.45548e-08
-7.00092e-08
8.10755e-08
-7.99353e-08
1.19378e-07
-5.89144e-08
1.35473e-07
-1.84171e-08
1.36562e-07
9.2557e-09
1.19592e-07
4.15717e-08
9.80418e-08
4.51811e-08
7.75529e-08
4.10803e-08
5.4995e-08
3.87699e-08
4.22181e-08
2.06018e-08
3.66276e-08
6.68504e-09
1.53094e-08
3.24657e-08
7.34169e-09
1.33116e-08
-2.19256e-08
3.65406e-08
-3.27983e-08
1.43522e-08
-2.93532e-08
-2.31474e-08
-2.11318e-08
-4.26452e-08
-1.11052e-08
-2.21919e-08
-6.02716e-08
5.69847e-08
-1.77377e-07
1.68509e-07
-2.92006e-07
2.17993e-07
-3.0512e-07
7.17844e-08
-2.75227e-07
-3.67436e-08
-2.4968e-07
-2.15395e-08
-2.03207e-07
-6.04532e-08
-1.4708e-07
-9.85176e-08
-9.93925e-08
-9.1103e-08
-6.5288e-08
-6.61191e-08
-3.29598e-08
-6.08962e-08
-5.67934e-08
-2.70959e-09
2.93889e-08
-9.93982e-08
7.648e-08
-1.27026e-07
1.17999e-07
-1.00434e-07
1.37405e-07
-3.78227e-08
1.4248e-07
4.18076e-09
1.30504e-07
5.3548e-08
1.12923e-07
6.27622e-08
9.85307e-08
5.54722e-08
7.68947e-08
6.0406e-08
6.87556e-08
2.87408e-08
6.57801e-08
9.66052e-09
4.56022e-08
5.26436e-08
4.8309e-08
1.06048e-08
1.68743e-08
6.79754e-08
4.80121e-09
2.64254e-08
-2.96353e-09
-1.53818e-08
-3.44225e-08
-1.1235e-08
-5.84674e-08
1.70618e-09
-1.34426e-07
1.32847e-07
-2.49559e-07
2.83681e-07
-3.18023e-07
2.86546e-07
-2.97571e-07
5.13706e-08
-2.62255e-07
-7.21985e-08
-2.23018e-07
-6.06622e-08
-1.71129e-07
-1.12239e-07
-1.22668e-07
-1.46955e-07
-8.29177e-08
-1.30855e-07
-5.65583e-08
-9.24667e-08
-3.14116e-08
-8.60421e-08
-8.21246e-08
-6.08009e-09
2.7466e-08
-1.26864e-07
7.45135e-08
-1.74074e-07
1.16501e-07
-1.42421e-07
1.36353e-07
-5.76746e-08
1.42025e-07
-1.49103e-09
1.30898e-07
6.46741e-08
1.14261e-07
7.93993e-08
1.0247e-07
6.72633e-08
8.0267e-08
8.26092e-08
7.67562e-08
3.22517e-08
7.16449e-08
1.47718e-08
5.85518e-08
6.57368e-08
7.65935e-08
-7.43683e-09
4.85204e-08
9.60485e-08
3.4472e-08
4.04738e-08
1.91084e-08
-1.82336e-11
-4.19873e-08
4.98825e-08
-9.62017e-08
5.59133e-08
-1.72867e-07
2.09552e-07
-2.46322e-07
3.57173e-07
-2.66896e-07
3.07196e-07
-2.55879e-07
4.02559e-08
-2.34593e-07
-9.35721e-08
-1.84824e-07
-1.10513e-07
-1.41333e-07
-1.55807e-07
-1.13662e-07
-1.75018e-07
-8.03238e-08
-1.64349e-07
-4.39685e-08
-1.28816e-07
-2.6819e-08
-1.03184e-07
-9.73173e-08
-1.16186e-08
2.69125e-08
-1.53777e-07
7.41734e-08
-2.21335e-07
1.16487e-07
-1.84734e-07
1.36535e-07
-7.77235e-08
1.42221e-07
-7.17714e-09
1.30807e-07
7.6089e-08
1.1416e-07
9.60459e-08
1.03004e-07
7.84192e-08
7.92076e-08
1.06406e-07
7.89365e-08
3.25227e-08
6.54131e-08
2.82952e-08
6.33749e-08
6.7775e-08
9.48584e-08
-3.89204e-08
6.94529e-08
1.21454e-07
6.05704e-08
4.93563e-08
4.33165e-08
1.72356e-08
-3.79537e-08
1.31153e-07
-1.14765e-07
1.32713e-07
-1.71043e-07
2.65819e-07
-1.91058e-07
3.7704e-07
-1.77873e-07
2.93901e-07
-1.54376e-07
1.66603e-08
-1.16807e-07
-1.31457e-07
-6.6223e-08
-1.61301e-07
-3.50538e-08
-1.87172e-07
-2.48918e-08
-1.85133e-07
-2.758e-08
-1.61827e-07
-1.96383e-08
-1.36908e-07
-1.61716e-08
-1.06638e-07
-9.54856e-08
-1.79886e-08
2.66603e-08
-1.80437e-07
7.41943e-08
-2.68869e-07
1.16921e-07
-2.27461e-07
1.37239e-07
-9.80417e-08
1.42911e-07
-1.28495e-08
1.30988e-07
8.80121e-08
1.14295e-07
1.12739e-07
1.03092e-07
8.9623e-08
7.80557e-08
1.31442e-07
7.9429e-08
3.11495e-08
5.68556e-08
5.08687e-08
6.45185e-08
6.0112e-08
9.67153e-08
-7.11171e-08
7.92662e-08
1.38903e-07
8.52656e-08
4.33569e-08
7.24325e-08
3.00688e-08
-5.70314e-09
2.09288e-07
-8.46008e-08
2.11611e-07
-1.14474e-07
2.9596e-07
-1.11297e-07
3.73789e-07
-9.76365e-08
2.80167e-07
-7.07561e-08
-1.03363e-08
-2.31858e-08
-1.79036e-07
3.3127e-08
-2.17592e-07
6.15995e-08
-2.15572e-07
5.62106e-08
-1.79699e-07
2.92003e-08
-1.34878e-07
2.64723e-09
-1.10462e-07
-8.28426e-09
-9.57179e-08
-8.52057e-08
-1.85638e-08
2.6423e-08
-2.0686e-07
7.42644e-08
-3.1671e-07
1.17495e-07
-2.70691e-07
1.38155e-07
-1.18701e-07
1.43822e-07
-1.85172e-08
1.31274e-07
1.00561e-07
1.14652e-07
1.2936e-07
1.03061e-07
1.01214e-07
7.76884e-08
1.56814e-07
7.97468e-08
2.90911e-08
5.38755e-08
7.67401e-08
6.29725e-08
5.10149e-08
7.09393e-08
-7.90838e-08
7.02716e-08
1.39571e-07
1.01851e-07
1.17775e-08
9.23596e-08
3.95601e-08
3.31785e-08
2.68469e-07
-4.26737e-08
2.87463e-07
-7.02636e-08
3.24007e-07
-4.14567e-08
3.45083e-07
-8.48533e-09
2.4713e-07
2.68545e-08
-4.56642e-08
5.47447e-08
-2.06968e-07
8.45239e-08
-2.47374e-07
9.45061e-08
-2.25564e-07
9.01119e-08
-1.75121e-07
7.46824e-08
-1.19448e-07
4.28048e-08
-7.85842e-08
1.09812e-08
-6.39089e-08
-6.04112e-08
-1.38391e-08
2.614e-08
-2.33e-07
7.43351e-08
-3.64905e-07
1.18166e-07
-3.14522e-07
1.39238e-07
-1.39773e-07
1.44901e-07
-2.41808e-08
1.31602e-07
1.1386e-07
1.15159e-07
1.45803e-07
1.02859e-07
1.13515e-07
7.82207e-08
1.81452e-07
8.04854e-08
2.68264e-08
5.85391e-08
9.86863e-08
6.17892e-08
4.77648e-08
3.38161e-08
-5.11107e-08
4.44632e-08
1.28924e-07
9.19312e-08
-3.56905e-08
8.09075e-08
5.05839e-08
5.39087e-08
2.95468e-07
3.95953e-09
3.37412e-07
-1.81695e-08
3.46251e-07
1.58126e-08
3.12214e-07
8.16326e-08
1.82162e-07
1.19637e-07
-8.36357e-08
1.27995e-07
-2.15338e-07
1.2731e-07
-2.467e-07
1.14836e-07
-2.13103e-07
9.85207e-08
-1.58932e-07
8.1417e-08
-1.02344e-07
5.68493e-08
-5.4016e-08
2.58396e-08
-3.28987e-08
-3.35702e-08
-1.00826e-09
2.5798e-08
-2.58798e-07
7.43986e-08
-4.13506e-07
1.18926e-07
-3.59049e-07
1.40489e-07
-1.61336e-07
1.4614e-07
-2.98325e-08
1.31976e-07
1.28024e-07
1.15769e-07
1.6201e-07
1.02425e-07
1.26858e-07
7.95798e-08
2.04298e-07
8.02971e-08
2.61091e-08
6.82205e-08
1.10763e-07
6.83881e-08
4.75972e-08
1.96699e-08
-2.39241e-09
2.12246e-08
1.27369e-07
5.2826e-08
-6.72919e-08
5.46973e-08
4.87126e-08
5.95441e-08
2.90621e-07
5.38152e-08
3.43141e-07
7.11666e-08
3.289e-07
1.09617e-07
2.73763e-07
1.66802e-07
1.24984e-07
1.85995e-07
-1.02945e-07
1.71228e-07
-2.00583e-07
1.48103e-07
-2.23648e-07
1.23947e-07
-1.89085e-07
9.84698e-08
-1.33457e-07
7.6678e-08
-8.05517e-08
5.25181e-08
-2.98557e-08
2.75477e-08
-7.9295e-09
-1.13136e-08
5.28824e-09
2.53916e-08
-2.8419e-07
7.44509e-08
-4.62565e-07
1.19773e-07
-4.04371e-07
1.41915e-07
-1.83478e-07
1.4754e-07
-3.54568e-08
1.32412e-07
1.43152e-07
1.16396e-07
1.78026e-07
1.01958e-07
1.41296e-07
8.07633e-08
2.25492e-07
7.74446e-08
2.94278e-08
7.77722e-08
1.10435e-07
7.74823e-08
4.7887e-08
2.48387e-08
5.02513e-08
1.6868e-08
1.3534e-07
3.05521e-08
-8.0976e-08
5.21161e-08
2.71486e-08
7.47966e-08
2.67941e-07
8.34183e-08
3.34519e-07
1.36614e-07
2.75704e-07
1.864e-07
2.23977e-07
2.21323e-07
8.98337e-08
2.05865e-07
-8.76437e-08
1.73597e-07
-1.68425e-07
1.4093e-07
-1.90976e-07
1.13405e-07
-1.6156e-07
8.62214e-08
-1.06274e-07
6.09134e-08
-5.52471e-08
3.9418e-08
-8.35992e-09
2.04744e-08
1.10136e-08
4.57379e-09
4.58422e-09
2.49165e-08
-3.09106e-07
7.44882e-08
-5.12137e-07
1.20697e-07
-4.50581e-07
1.43526e-07
-2.06306e-07
1.49105e-07
-4.10362e-08
1.32907e-07
1.5935e-07
1.17029e-07
1.93904e-07
1.0173e-07
1.56596e-07
8.07639e-08
2.46458e-07
7.29852e-08
3.72064e-08
8.4271e-08
9.91497e-08
7.89405e-08
5.32175e-08
3.48877e-08
9.43041e-08
3.054e-08
1.39687e-07
3.68463e-08
-8.72823e-08
6.09226e-08
3.07233e-09
8.76544e-08
2.41209e-07
9.78993e-08
3.24274e-07
1.43785e-07
2.29819e-07
1.90762e-07
1.77e-07
2.03646e-07
7.68786e-08
1.71773e-07
-5.57713e-08
1.5693e-07
-1.53581e-07
1.34813e-07
-1.6886e-07
1.09657e-07
-1.36404e-07
8.03761e-08
-7.69952e-08
4.97029e-08
-2.45764e-08
2.84257e-08
1.29186e-08
1.57319e-08
2.37065e-08
1.30028e-08
7.30472e-09
2.43683e-08
-3.33474e-07
7.45055e-08
-5.62274e-07
1.21684e-07
-4.97759e-07
1.45327e-07
-2.29949e-07
1.50841e-07
-4.65499e-08
1.33444e-07
1.76747e-07
1.17741e-07
2.09606e-07
1.01833e-07
1.72505e-07
7.93608e-08
2.6893e-07
7.03008e-08
4.62664e-08
8.76786e-08
8.1772e-08
7.21179e-08
6.87782e-08
4.35567e-08
1.22865e-07
4.97637e-08
1.3348e-07
5.84649e-08
-9.59835e-08
6.98948e-08
-8.35759e-09
8.61546e-08
2.24949e-07
1.07046e-07
3.03382e-07
1.30468e-07
2.06397e-07
1.62919e-07
1.44546e-07
1.7355e-07
6.62587e-08
1.65383e-07
-4.76043e-08
1.64203e-07
-1.52402e-07
1.43763e-07
-1.48419e-07
1.14195e-07
-1.06836e-07
7.54312e-08
-3.82358e-08
3.88039e-08
1.20502e-08
2.34462e-08
2.82776e-08
1.49682e-08
3.21834e-08
1.77595e-08
1.02131e-08
2.37417e-08
-3.57216e-07
7.44963e-08
-6.13029e-07
1.22742e-07
-5.46005e-07
1.47328e-07
-2.54536e-07
1.52749e-07
-5.19706e-08
1.34013e-07
1.95483e-07
1.18637e-07
2.24982e-07
1.02025e-07
1.89117e-07
7.74754e-08
2.9348e-07
6.90501e-08
5.46917e-08
9.02588e-08
6.05633e-08
6.62699e-08
9.27671e-08
5.2187e-08
1.36948e-07
6.73558e-08
1.18312e-07
7.47742e-08
-1.03402e-07
7.49533e-08
-8.53661e-09
6.87735e-08
2.31129e-07
9.99333e-08
2.72223e-07
1.26687e-07
1.79643e-07
1.46623e-07
1.24611e-07
1.63591e-07
4.92903e-08
1.67228e-07
-5.12408e-08
1.47807e-07
-1.32981e-07
1.21509e-07
-1.2212e-07
9.43911e-08
-7.97187e-08
6.99526e-08
-1.37973e-08
4.82644e-08
3.37385e-08
3.01985e-08
4.63435e-08
1.63872e-08
4.59935e-08
1.70081e-08
1.7139e-08
2.30308e-08
-3.80247e-07
7.44531e-08
-6.64451e-07
1.23895e-07
-5.95447e-07
1.49538e-07
-2.80178e-07
1.54831e-07
-5.7264e-08
1.34622e-07
2.15693e-07
1.1972e-07
2.39884e-07
1.02334e-07
2.06502e-07
7.52524e-08
3.20562e-07
6.77249e-08
6.22192e-08
9.2366e-08
3.59223e-08
6.42879e-08
1.20845e-07
5.1676e-08
1.4956e-07
7.42529e-08
9.57348e-08
7.15766e-08
-1.00726e-07
7.85268e-08
-1.54868e-08
7.42365e-08
2.35419e-07
9.56106e-08
2.50849e-07
1.20486e-07
1.54768e-07
1.37794e-07
1.07302e-07
1.54812e-07
3.22728e-08
1.48142e-07
-4.45704e-08
1.20034e-07
-1.04874e-07
9.78181e-08
-9.99042e-08
8.16421e-08
-6.35417e-08
6.81454e-08
-2.99153e-10
4.58221e-08
5.60618e-08
1.30383e-08
7.91272e-08
1.06143e-08
4.84164e-08
3.03366e-09
2.45897e-08
2.22287e-08
-4.02476e-07
7.43678e-08
-7.1659e-07
1.25161e-07
-6.4624e-07
1.51968e-07
-3.06985e-07
1.57096e-07
-6.23925e-08
1.35255e-07
2.37534e-07
1.21007e-07
2.54132e-07
1.02975e-07
2.24534e-07
7.27237e-08
3.50813e-07
6.43688e-08
7.05741e-08
9.44219e-08
5.86921e-09
7.1428e-08
1.43839e-07
6.33419e-08
1.57646e-07
8.221e-08
7.68667e-08
7.20527e-08
-9.05683e-08
9.26169e-08
-3.60509e-08
8.46007e-08
2.43436e-07
8.49363e-08
2.50513e-07
1.10471e-07
1.29233e-07
1.26208e-07
9.15647e-08
1.28339e-07
3.01426e-08
1.20428e-07
-3.66598e-08
9.43706e-08
-7.88165e-08
4.96006e-08
-5.51343e-08
7.59119e-09
-2.15355e-08
-9.95121e-09
1.72417e-08
-2.4607e-08
7.07175e-08
-2.51135e-08
7.96339e-08
-9.99775e-10
2.43046e-08
-9.99332e-09
1.20275e-08
2.13275e-08
-4.23803e-07
7.42313e-08
-7.69494e-07
1.26542e-07
-6.98551e-07
1.54633e-07
-3.35076e-07
1.59545e-07
-6.73047e-08
1.35895e-07
2.61184e-07
1.22492e-07
2.67535e-07
1.04108e-07
2.42918e-07
6.92472e-08
3.85674e-07
6.05735e-08
7.92477e-08
9.87615e-08
-3.23187e-08
7.46395e-08
1.67961e-07
2.55913e-08
2.06695e-07
4.65459e-08
5.5912e-08
7.48041e-08
-1.18826e-07
1.13679e-07
-7.49261e-08
1.09214e-07
2.47901e-07
1.03069e-07
2.56659e-07
1.21678e-07
1.10624e-07
1.09017e-07
1.04225e-07
1.17972e-07
2.1188e-08
1.31211e-07
-4.98991e-08
1.0837e-07
-5.5975e-08
6.73148e-08
-1.40793e-08
1.5826e-08
2.99532e-08
-2.06244e-08
5.36886e-08
-3.31096e-08
8.31938e-08
-2.95304e-08
7.60476e-08
-2.43679e-08
1.9141e-08
-7.13672e-09
-2.7223e-08
2.03185e-08
-4.44122e-07
7.40323e-08
-8.23208e-07
1.28036e-07
-7.52555e-07
1.57556e-07
-3.64596e-07
1.62166e-07
-7.19141e-08
1.3647e-07
2.8688e-07
1.2438e-07
2.79625e-07
1.05098e-07
2.622e-07
6.44689e-08
4.26303e-07
5.97164e-08
8.40002e-08
1.05937e-07
-7.85392e-08
8.49369e-08
1.88961e-07
5.3771e-08
2.37861e-07
6.72644e-08
4.24187e-08
8.84112e-08
-1.39973e-07
1.33358e-07
-1.19873e-07
1.53018e-07
2.28241e-07
1.42202e-07
2.67475e-07
1.0406e-07
1.48766e-07
8.43364e-08
1.23949e-07
1.11909e-07
-6.38423e-09
1.04519e-07
-4.25093e-08
6.6391e-08
-1.78473e-08
5.28564e-08
-5.44634e-10
4.09127e-08
4.1897e-08
1.17511e-08
8.28554e-08
-1.25964e-09
9.62e-08
-1.10203e-09
7.58857e-08
-1.5471e-08
3.35064e-08
1.38113e-08
-3.6417e-08
1.91934e-08
-4.63315e-07
7.3749e-08
-8.77763e-07
1.29627e-07
-8.08433e-07
1.60758e-07
-3.95728e-07
1.6487e-07
-7.60257e-08
1.3704e-07
3.1471e-07
1.26597e-07
2.90067e-07
1.0818e-07
2.80617e-07
5.82298e-08
4.76254e-07
5.49475e-08
8.72825e-08
1.135e-07
-1.37092e-07
7.81392e-08
2.24322e-07
1.92373e-08
2.96762e-07
3.52017e-08
2.64543e-08
7.45372e-08
-1.79309e-07
1.25479e-07
-1.70814e-07
1.28076e-07
2.25643e-07
1.15387e-07
2.80164e-07
8.93668e-08
1.74786e-07
7.84665e-08
1.34849e-07
7.44006e-08
-2.31835e-09
1.58781e-08
1.60127e-08
-2.04183e-08
1.84494e-08
-2.67631e-09
-1.82861e-08
2.82366e-08
1.09833e-08
3.68044e-08
7.42872e-08
4.36645e-08
8.9346e-08
4.81798e-08
7.13686e-08
3.27456e-08
4.89453e-08
4.23542e-08
4.2047e-09
1.79499e-08
-4.81265e-07
7.33194e-08
-9.33133e-07
1.31263e-07
-8.66376e-07
1.64186e-07
-4.2865e-07
1.6747e-07
-7.93102e-08
1.37382e-07
3.44797e-07
1.30494e-07
2.96956e-07
1.03292e-07
3.0782e-07
6.05325e-08
5.19013e-07
5.77268e-08
9.00882e-08
1.13416e-07
-1.92781e-07
7.25833e-08
2.65155e-07
-9.53251e-09
3.78878e-07
2.51048e-08
-8.18305e-09
7.82483e-08
-2.32452e-07
1.20635e-07
-2.12669e-07
1.03057e-07
2.43333e-07
8.73557e-08
2.95866e-07
9.84101e-08
1.63732e-07
6.84738e-08
1.64786e-07
-2.77869e-09
6.89342e-08
-6.72491e-08
8.04838e-08
-7.92916e-08
3.04911e-08
-5.85452e-08
-3.90332e-08
-2.34042e-08
-2.4159e-08
9.81333e-09
4.10682e-08
3.31597e-08
6.60024e-08
4.99829e-08
5.45549e-08
4.44472e-08
5.44861e-08
6.17651e-08
2.50367e-08
1.66183e-08
-4.97883e-07
7.25457e-08
-9.8906e-07
1.32729e-07
-9.26559e-07
1.67504e-07
-4.63425e-07
1.69349e-07
-8.11554e-08
1.38196e-07
3.7595e-07
1.32335e-07
3.02817e-07
1.16605e-07
3.2355e-07
4.10651e-08
5.94553e-07
1.96197e-08
1.11534e-07
1.12873e-07
-2.86035e-07
5.91964e-08
3.18832e-07
-3.72495e-09
4.418e-07
5.09653e-08
-6.28734e-08
6.61973e-08
-2.47684e-07
1.00418e-07
-2.46999e-07
6.77352e-08
2.76199e-07
5.4304e-08
3.09297e-07
5.89912e-08
1.59044e-07
5.37823e-08
1.69994e-07
6.33555e-09
1.16381e-07
-8.70465e-08
1.73868e-07
-1.10367e-07
5.38165e-08
-1.0519e-07
-4.42113e-08
-7.83633e-08
-5.0988e-08
-4.36005e-08
6.30376e-09
-1.55505e-08
3.79484e-08
9.78574e-09
2.9217e-08
1.95255e-08
4.47435e-08
6.65019e-08
1.47859e-08
1.53379e-08
-5.13221e-07
7.08199e-08
-1.04454e-06
1.33213e-07
-9.88952e-07
1.69495e-07
-4.99708e-07
1.69111e-07
-8.07705e-08
1.36162e-07
4.08898e-07
1.38058e-07
3.00921e-07
8.85411e-08
3.73067e-07
4.94954e-08
6.33598e-07
4.09247e-08
1.20104e-07
1.14686e-07
-3.59357e-07
6.04023e-08
3.73116e-07
-1.23585e-08
5.14561e-07
9.13918e-08
-1.66624e-07
1.0415e-07
-2.60431e-07
9.11991e-08
-2.34155e-07
8.66966e-08
2.80445e-07
7.09656e-08
3.25019e-07
1.25151e-08
2.17478e-07
2.32419e-09
1.80185e-07
3.52066e-08
8.24593e-08
-1.61517e-08
2.25287e-07
-4.70921e-08
8.47568e-08
-6.3533e-08
-2.77704e-08
-7.35647e-08
-4.09567e-08
-6.04995e-08
-6.76114e-09
-4.02695e-08
1.77186e-08
-2.53125e-08
1.42618e-08
-1.17019e-08
3.11323e-08
5.34748e-08
1.32461e-09
1.45223e-08
-5.27744e-07
6.65604e-08
-1.09658e-06
1.30226e-07
-1.05262e-06
1.66896e-07
-5.36378e-07
1.61445e-07
-7.53189e-08
1.27861e-07
4.42482e-07
1.20964e-07
3.07817e-07
1.2272e-07
3.71311e-07
8.0273e-08
6.76045e-07
5.19115e-08
1.48466e-07
1.7331e-07
-4.7005e-07
1.40792e-07
4.03635e-07
-4.43185e-09
6.59523e-07
1.05126e-07
-2.76181e-07
1.73463e-07
-3.28547e-07
1.04874e-07
-1.65674e-07
9.80728e-08
2.8715e-07
9.13169e-08
3.32082e-07
4.68711e-08
2.61927e-07
-3.41821e-09
2.29633e-07
4.62181e-08
3.27892e-08
6.51023e-08
2.06402e-07
2.46601e-08
1.25199e-07
3.31562e-09
-6.42591e-09
-1.76373e-08
-2.00038e-08
-2.37229e-08
-6.75552e-10
-2.09504e-08
1.49454e-08
-2.27395e-08
1.60509e-08
-1.83238e-08
2.67203e-08
3.92427e-08
-4.08945e-09
1.43592e-08
-5.42103e-07
5.65086e-08
-1.13873e-06
1.17975e-07
-1.11408e-06
1.52891e-07
-5.71294e-07
1.35546e-07
-5.79745e-08
8.8254e-08
4.89775e-07
6.77132e-08
3.28358e-07
4.00087e-08
3.99016e-07
-1.52334e-08
7.31287e-07
-4.88207e-08
1.82911e-07
-3.97965e-08
-4.79459e-07
-3.72799e-08
3.93377e-07
-1.12203e-07
7.32947e-07
3.12505e-08
-4.19635e-07
1.92617e-07
-4.90726e-07
1.18956e-07
-9.21197e-08
9.2494e-08
3.15155e-07
8.06976e-08
3.44354e-07
8.23069e-08
2.60319e-07
3.58005e-08
2.72435e-07
3.57418e-08
3.28256e-08
8.21328e-08
1.58743e-07
6.12365e-08
1.46194e-07
3.11685e-08
2.36422e-08
9.51898e-09
1.64562e-09
8.16482e-09
6.77573e-10
7.3357e-09
1.57735e-08
-1.45546e-10
2.35294e-08
-8.6087e-09
3.51832e-08
4.10578e-08
-1.04234e-08
1.85358e-08
-5.60639e-07
3.61234e-08
-1.15632e-06
8.7718e-08
-1.16568e-06
1.20976e-07
-6.04553e-07
8.3571e-08
-2.05663e-08
4.11586e-08
5.32187e-07
4.64184e-08
3.23098e-07
9.36747e-09
4.35245e-07
-1.11427e-08
7.50246e-07
-9.25359e-08
2.66251e-07
-1.32705e-07
-4.39675e-07
-1.0515e-07
3.65412e-07
-2.06219e-07
8.33204e-07
-9.52885e-08
-5.3081e-07
9.47205e-08
-6.82155e-07
3.47247e-08
-3.2381e-08
-3.32528e-08
3.83896e-07
-3.90098e-08
3.50208e-07
4.69443e-08
1.74367e-07
7.00486e-08
2.51246e-07
3.8043e-08
6.48089e-08
7.85188e-08
1.19697e-07
7.46958e-08
1.50421e-07
3.11327e-08
6.72047e-08
8.27876e-09
2.449e-08
1.05028e-08
-1.54847e-09
7.46862e-09
1.88059e-08
1.7266e-09
2.92715e-08
-9.6784e-09
4.65879e-08
5.21723e-08
-2.07929e-08
9.23807e-09
-5.69877e-07
4.24798e-09
-1.15133e-06
3.73844e-08
-1.19881e-06
8.32304e-08
-6.50392e-07
4.61626e-08
1.24114e-08
-5.13207e-08
6.2967e-07
-1.67605e-07
4.39992e-07
-8.62181e-08
3.34027e-07
-7.4362e-10
6.63673e-07
-1.31773e-07
3.94695e-07
-1.49283e-07
-4.29842e-07
-1.28658e-07
3.51112e-07
-2.00009e-07
9.05411e-07
-1.6402e-07
-5.67051e-07
-6.27989e-08
-7.82734e-07
-8.73939e-08
-8.19752e-09
-1.81269e-07
4.77789e-07
-1.0506e-07
2.74027e-07
6.65222e-08
2.3011e-09
1.13748e-07
2.05117e-07
6.63554e-08
1.12179e-07
4.77859e-08
1.39491e-07
3.88714e-08
1.59461e-07
-2.48643e-10
1.06326e-07
-1.10535e-08
3.52965e-08
-1.36399e-08
1.03964e-09
-1.4121e-08
1.92897e-08
-9.62346e-09
2.4778e-08
-1.0871e-08
4.78352e-08
5.67655e-08
-1.54648e-08
2.79384e-08
-5.97815e-07
-3.11033e-08
-1.09229e-06
-8.94251e-09
-1.22096e-06
3.99892e-08
-2.72362e-07
-5.195e-09
4.00124e-09
-2.43918e-07
4.17239e-07
-4.30088e-07
6.175e-07
-1.76597e-07
7.00149e-08
-3.39164e-08
5.21808e-07
-1.7827e-07
5.41853e-07
-2.61365e-07
-3.46664e-07
-2.57208e-07
3.47093e-07
-1.58319e-07
8.06492e-07
-1.59549e-07
-5.6586e-07
-1.74108e-07
-7.67015e-07
-1.40467e-07
-4.24755e-08
-1.42851e-07
4.80192e-07
-6.43223e-08
1.95559e-07
2.45764e-08
-8.66126e-08
9.42928e-09
2.20273e-07
-4.74774e-08
1.70167e-07
1.94669e-09
9.00656e-08
2.26893e-08
1.38719e-07
-1.93358e-08
1.48344e-07
-3.0951e-08
4.69137e-08
-2.76294e-08
-2.28208e-09
-1.95144e-08
1.11747e-08
-1.3132e-08
1.83954e-08
-6.17478e-09
4.08783e-08
5.01037e-08
4.86639e-10
-4.35641e-08
-5.54251e-07
-5.45236e-08
-1.08133e-06
-5.69722e-09
-5.01924e-07
-3.39289e-08
-1.4997e-08
-1.95575e-07
4.32264e-09
-4.28077e-07
1.65017e-07
-3.94056e-07
5.19092e-07
-3.10795e-07
-1.86259e-08
-1.37607e-07
3.48927e-07
-1.60459e-07
5.65341e-07
-3.59767e-07
-1.47419e-07
-3.00752e-07
2.86321e-07
-1.09748e-07
6.15447e-07
-1.75791e-07
-4.9986e-07
-3.00318e-07
-6.42558e-07
-2.50114e-07
-9.27595e-08
-1.20489e-07
3.48025e-07
-1.02695e-07
1.77493e-07
-1.15628e-07
-7.38984e-08
-8.98377e-08
1.94507e-07
-6.83571e-08
1.48687e-07
2.66031e-09
1.90462e-08
4.41317e-08
9.72471e-08
1.32734e-08
1.79196e-07
-5.93857e-09
6.61232e-08
-1.71895e-08
8.9687e-09
-1.71525e-08
1.11375e-08
-1.49242e-08
1.61669e-08
-4.96103e-09
3.09149e-08
3.88229e-08
6.31985e-09
-3.30404e-08
-5.22151e-07
1.15264e-07
-1.08428e-06
-7.22671e-09
-3.05475e-08
-2.69296e-08
-7.51642e-10
-2.8706e-07
-3.0824e-08
-4.85235e-07
1.28625e-08
-5.27851e-07
4.10347e-07
-5.59049e-07
-1.80958e-08
-2.70086e-07
5.36213e-08
-1.75242e-07
4.70528e-07
-4.13469e-07
9.10948e-08
-2.06178e-07
7.76715e-08
2.1476e-08
3.84959e-07
-1.78385e-07
-3.00054e-07
-3.65705e-07
-4.55282e-07
-3.16324e-07
-1.42226e-07
-1.2132e-07
1.52425e-07
-1.1035e-07
1.66306e-07
-1.34458e-07
-4.97897e-08
-7.80557e-08
1.38105e-07
-3.64276e-08
1.07059e-07
-4.83982e-08
3.10167e-08
-9.33477e-09
5.81836e-08
4.86264e-08
1.21235e-07
5.82187e-08
5.65308e-08
3.00441e-08
3.71431e-08
2.27169e-09
3.89098e-08
-9.15109e-09
2.75896e-08
-4.93588e-09
2.66997e-08
2.90101e-08
4.87692e-09
-1.11848e-07
-3.66731e-07
3.67545e-08
-3.52239e-07
-1.40157e-09
-5.59028e-09
4.21568e-11
-2.53921e-11
-4.95527e-08
-1.73504e-09
-4.78517e-07
3.75923e-10
-6.26455e-07
2.40777e-07
-6.71797e-07
-6.91441e-08
-4.39785e-07
-1.9348e-07
-2.48814e-07
2.79589e-07
-3.65534e-07
2.07843e-07
-2.04172e-07
-8.36678e-08
1.07336e-08
1.70508e-07
-1.43386e-07
-1.45983e-07
-3.3683e-07
-2.6186e-07
-3.67543e-07
-1.04437e-07
-1.5012e-07
-5.97713e-08
-6.03139e-08
7.627e-08
-9.32851e-08
-1.2415e-08
-1.89612e-08
6.37815e-08
4.53371e-08
2.85361e-08
5.083e-09
4.48339e-08
-7.23519e-09
4.54638e-08
5.27626e-08
4.16531e-08
6.33002e-08
2.61091e-08
4.84549e-08
3.0615e-08
3.86955e-08
2.74059e-08
2.29186e-08
2.35737e-08
1.23789e-08
1.9298e-08
1.68334e-08
6.81281e-09
3.56584e-07
-3.80609e-07
5.12997e-09
-1.84306e-08
8.3752e-11
-1.59072e-10
5.378e-10
-4.21535e-11
-2.80535e-09
5.2334e-11
-1.63087e-07
-1.03622e-09
-3.2101e-07
7.07493e-09
-5.43771e-07
-3.53107e-08
-5.66069e-07
-2.64511e-07
-3.53552e-07
5.75881e-08
-3.22717e-07
1.78867e-07
-3.57822e-07
-5.62104e-08
-1.56249e-07
-2.34431e-08
-1.20209e-07
-5.87681e-08
-1.74269e-07
-2.6189e-08
-1.57426e-07
-1.12997e-08
-1.40222e-07
-2.52751e-10
-1.20041e-08
-1.86524e-10
5.44737e-09
-1.34709e-10
3.31517e-08
-1.28678e-11
2.18556e-08
1.23274e-10
2.41451e-08
1.40816e-10
3.20663e-08
-2.17226e-10
3.22388e-08
2.28711e-10
2.25641e-08
1.55709e-11
2.20809e-08
-1.46452e-10
2.12081e-08
-3.31691e-11
1.80251e-08
3.36371e-11
1.18414e-08
-3.20498e-11
6.41053e-09
-9.003e-11
2.35076e-08
-2.82039e-08
4.92285e-08
-2.59931e-08
8.79219e-08
-3.90373e-08
1.2541e-07
-3.82363e-08
1.58022e-07
-3.27329e-08
1.7199e-07
-1.4097e-08
1.85483e-07
-1.36361e-08
2.23776e-07
-3.84519e-08
1.77247e-07
4.83012e-08
6.08847e-08
1.1685e-07
-3.05472e-09
6.38636e-08
-1.83601e-08
1.53054e-08
-8.627e-09
-9.73318e-09
2.64622e-08
-3.49496e-08
4.76378e-08
-2.11652e-08
4.4408e-08
3.22979e-09
3.50041e-08
9.40388e-09
2.80025e-08
7.00164e-09
1.33093e-08
1.46932e-08
4.44757e-09
8.86174e-09
-1.22318e-08
1.66794e-08
-2.75846e-08
1.53528e-08
-4.27085e-08
1.51238e-08
-5.83146e-08
1.56061e-08
-7.89913e-08
2.06767e-08
-8.82687e-08
9.27741e-09
-8.7803e-08
-4.65629e-10
-6.81976e-08
-1.96055e-08
-3.51865e-08
-3.3011e-08
-3.51866e-08
2.5935e-08
-5.68484e-08
5.65867e-08
-5.66446e-08
9.1851e-08
-7.43015e-08
1.39152e-07
-8.55369e-08
1.9089e-07
-8.46763e-08
2.38621e-07
-6.19533e-08
2.74738e-07
-4.97299e-08
3.1826e-07
-8.18797e-08
3.14116e-07
5.28657e-08
2.05128e-07
2.26074e-07
8.20037e-08
1.87025e-07
2.43319e-08
7.30045e-08
3.26179e-08
-1.80564e-08
4.41305e-08
-4.63681e-08
4.72527e-08
-2.42576e-08
3.39222e-08
1.65603e-08
5.60556e-10
4.27655e-08
-1.15143e-08
1.90765e-08
-3.8851e-08
4.20299e-08
-5.30033e-08
2.30141e-08
-7.5862e-08
3.95381e-08
-9.52177e-08
3.47086e-08
-1.08257e-07
2.81633e-08
-1.2066e-07
2.80087e-08
-1.33696e-07
3.37127e-08
-1.31582e-07
7.16386e-09
-1.17617e-07
-1.44305e-08
-8.03876e-08
-5.68352e-08
-3.42899e-08
-7.91087e-08
-6.94765e-08
1.52313e-08
-7.81596e-08
3.67827e-08
-7.81952e-08
6.12802e-08
-9.87534e-08
1.03114e-07
-1.27289e-07
1.55529e-07
-1.37068e-07
2.09798e-07
-1.1626e-07
2.48258e-07
-8.82302e-08
2.8551e-07
-1.1953e-07
3.0527e-07
3.30773e-08
2.56847e-07
2.74631e-07
1.57824e-07
2.86061e-07
8.12349e-08
1.49608e-07
5.41267e-08
8.90392e-09
2.26705e-08
-1.49877e-08
1.14195e-08
-1.29917e-08
-3.74769e-09
3.17275e-08
-4.05318e-08
7.95496e-08
-4.35195e-08
2.20643e-08
-7.02286e-08
6.87389e-08
-8.07499e-08
3.35354e-08
-9.82464e-08
5.70345e-08
-1.1585e-07
5.23118e-08
-1.22666e-07
3.49795e-08
-1.31276e-07
3.66184e-08
-1.39505e-07
4.19425e-08
-1.33525e-07
1.18352e-09
-1.16269e-07
-3.1686e-08
-7.58223e-08
-9.72824e-08
-2.91349e-08
-1.25796e-07
-9.86113e-08
1.81267e-09
-9.15637e-08
2.44672e-08
-1.00795e-07
5.78963e-08
-1.3226e-07
8.6161e-08
-1.55703e-07
1.14373e-07
-1.65332e-07
1.52421e-07
-1.54341e-07
2.05063e-07
-1.40906e-07
2.29095e-07
-1.43595e-07
2.47874e-07
1.42615e-08
2.47335e-07
2.75226e-07
1.92654e-07
3.40754e-07
1.22342e-07
2.19933e-07
6.59114e-08
6.53233e-08
2.68015e-09
4.8265e-08
-1.84289e-08
8.11797e-09
-3.60707e-08
4.93693e-08
-6.99777e-08
1.13457e-07
-5.83038e-08
1.03905e-08
-7.79273e-08
8.83624e-08
-8.92581e-08
4.48662e-08
-1.01952e-07
6.9728e-08
-1.19773e-07
7.01329e-08
-1.23839e-07
3.90457e-08
-1.31498e-07
4.42772e-08
-1.38901e-07
4.93461e-08
-1.32446e-07
-5.27217e-09
-1.1477e-07
-4.93614e-08
-7.38786e-08
-1.38174e-07
-2.72162e-08
-1.72458e-07
-1.25828e-07
-1.74368e-08
-9.20942e-08
-1.01176e-08
-1.08095e-07
-1.06983e-08
-1.31849e-07
-1.5816e-08
-1.50902e-07
-6.78641e-09
-1.74493e-07
2.6697e-08
-1.88008e-07
7.94067e-08
-1.93782e-07
1.18269e-07
-1.8282e-07
1.52204e-07
-1.9902e-08
1.78304e-07
2.49037e-07
1.74473e-07
3.44378e-07
1.31308e-07
2.62919e-07
6.17637e-08
1.3485e-07
-1.9033e-08
1.29062e-07
-4.41828e-08
3.32678e-08
-5.80021e-08
6.31886e-08
-9.02118e-08
1.45666e-07
-6.44385e-08
-1.53828e-08
-7.29457e-08
9.68695e-08
-9.18302e-08
6.37508e-08
-1.0153e-07
7.94281e-08
-1.20691e-07
8.92934e-08
-1.23749e-07
4.21034e-08
-1.31254e-07
5.17823e-08
-1.38892e-07
5.69842e-08
-1.32579e-07
-1.15845e-08
-1.1475e-07
-6.71906e-08
-7.35652e-08
-1.79359e-07
-2.66665e-08
-2.19357e-07
-1.52494e-07
-2.81846e-08
-8.25085e-08
-4.62261e-08
-9.01404e-08
-7.81498e-08
-1.00031e-07
-9.78568e-08
-1.31165e-07
-9.36012e-08
-1.78697e-07
-6.07863e-08
-2.20761e-07
-7.94445e-09
-2.46553e-07
3.48377e-08
-2.25522e-07
7.41686e-08
-5.93118e-08
1.05793e-07
2.17325e-07
1.17765e-07
3.32304e-07
9.78698e-08
2.83579e-07
2.86633e-08
2.04058e-07
-4.9553e-08
2.07278e-07
-6.94288e-08
5.31436e-08
-7.06764e-08
6.44362e-08
-9.66782e-08
1.71668e-07
-6.60807e-08
-4.59802e-08
-6.43314e-08
9.51201e-08
-9.27008e-08
9.21203e-08
-1.01237e-07
8.79642e-08
-1.21331e-07
1.09387e-07
-1.23936e-07
4.47089e-08
-1.31248e-07
5.90941e-08
-1.39317e-07
6.50531e-08
-1.33222e-07
-1.76793e-08
-1.15181e-07
-8.52316e-08
-7.36198e-08
-2.2092e-07
-2.64194e-08
-2.66557e-07
-1.78913e-07
-3.93894e-08
-5.69732e-08
-7.0843e-08
-5.86867e-08
-9.44247e-08
-7.6449e-08
-1.06509e-07
-1.19049e-07
-1.11764e-07
-1.73338e-07
-1.04462e-07
-2.28091e-07
-8.06193e-08
-2.70426e-07
-6.13331e-08
-2.4478e-07
-1.63464e-08
-1.04216e-07
4.05224e-08
1.60776e-07
7.47799e-08
2.9901e-07
5.31484e-08
3.05736e-07
-1.52324e-08
2.72436e-07
-7.43974e-08
2.66443e-07
-8.93531e-08
6.80993e-08
-6.72728e-08
4.2356e-08
-7.78248e-08
1.8222e-07
-6.50324e-08
-5.87725e-08
-5.92496e-08
8.93371e-08
-9.32981e-08
1.26169e-07
-1.01911e-07
9.65774e-08
-1.21929e-07
1.29405e-07
-1.24361e-07
4.7141e-08
-1.31299e-07
6.60325e-08
-1.39904e-07
7.36579e-08
-1.34067e-07
-2.35163e-08
-1.15755e-07
-1.03544e-07
-7.37309e-08
-2.62944e-07
-2.61881e-08
-3.141e-07
-2.05102e-07
-2.77237e-08
-3.02587e-08
-5.69827e-08
-2.94277e-08
-8.09316e-08
-5.25001e-08
-9.96409e-08
-1.0034e-07
-1.18939e-07
-1.54155e-07
-1.35355e-07
-2.11824e-07
-1.40784e-07
-2.65027e-07
-1.4124e-07
-2.44359e-07
-1.02982e-07
-1.42491e-07
-2.73821e-08
8.53747e-08
1.16821e-08
2.60217e-07
1.61765e-09
3.15805e-07
-4.04341e-08
3.1449e-07
-7.05249e-08
2.96534e-07
-8.73058e-08
8.48801e-08
-4.42587e-08
-6.91099e-10
-4.11232e-08
1.79084e-07
-6.28819e-08
-3.70138e-08
-6.047e-08
8.69252e-08
-9.43942e-08
1.60093e-07
-1.0367e-07
1.05853e-07
-1.22418e-07
1.48153e-07
-1.2495e-07
4.96721e-08
-1.31347e-07
7.24301e-08
-1.40597e-07
8.29074e-08
-1.35069e-07
-2.90438e-08
-1.16427e-07
-1.22187e-07
-7.38507e-08
-3.0552e-07
-2.59123e-08
-3.62039e-07
-2.31014e-07
-1.63591e-08
-8.61163e-09
-4.1361e-08
-4.42581e-09
-6.65564e-08
-2.7304e-08
-8.747e-08
-7.9426e-08
-1.10209e-07
-1.31416e-07
-1.33691e-07
-1.88342e-07
-1.6091e-07
-2.37951e-07
-1.79241e-07
-2.26117e-07
-1.76988e-07
-1.44841e-07
-1.25499e-07
3.37495e-08
-8.177e-08
2.16487e-07
-4.8898e-08
2.82933e-07
-4.66161e-08
3.1221e-07
-4.53038e-08
2.95221e-07
-5.04273e-08
9.00035e-08
-1.67677e-08
-3.43506e-08
-1.8814e-08
1.81131e-07
-6.607e-08
1.02422e-08
-6.7474e-08
8.83292e-08
-9.50608e-08
1.8768e-07
-1.06632e-07
1.17425e-07
-1.22765e-07
1.64286e-07
-1.2561e-07
5.25169e-08
-1.31395e-07
7.82146e-08
-1.41382e-07
9.28952e-08
-1.3623e-07
-3.41963e-08
-1.17194e-07
-1.41222e-07
-7.39715e-08
-3.48743e-07
-2.55788e-08
-4.10431e-07
-2.56593e-07
-8.89623e-09
4.86925e-09
-2.55229e-08
1.22011e-08
-4.50365e-08
-7.78992e-09
-6.78438e-08
-5.66196e-08
-9.02867e-08
-1.08973e-07
-1.15671e-07
-1.62957e-07
-1.46235e-07
-2.07387e-07
-1.72098e-07
-2.00258e-07
-2.03963e-07
-1.13071e-07
-1.86376e-07
1.59395e-08
-1.35038e-07
1.65149e-07
-7.82219e-08
2.26117e-07
-6.21475e-08
2.96135e-07
-3.56841e-08
2.68758e-07
-1.90576e-08
7.3377e-08
-2.68279e-09
-5.07254e-08
-1.53058e-08
1.93754e-07
-7.293e-08
6.78665e-08
-7.61551e-08