/*--------------------------------*- C++ -*----------------------------------*\
| =========                 |                                                 |
| \\      /  F ield         | OpenFOAM: The Open Source CFD Toolbox           |
|  \\    /   O peration     | Version:  2.4.0                                 |
|   \\  /    A nd           | Web:      www.OpenFOAM.org                      |
|    \\/     M anipulation  |                                                 |
\*---------------------------------------------------------------------------*/
FoamFile
{
    version     2.0;
    format      ascii;
    class       volScalarField;
    location    "0.072";
    object      p;
}
// * * * * * * * * * * * * * * * * * * * * * * * * * * * * * * * * * * * * * //

dimensions      [1 -1 -2 0 0 0 0];

internalField   nonuniform List<scalar> 
3600
(
96.5342
96.5268
96.5235
96.5184
96.5134
96.5011
96.4905
96.468
96.4457
96.4091
96.371
96.3164
96.2609
96.1879
96.1172
96.0315
95.9609
95.8622
95.8215
95.8291
95.9622
96.0408
96.1493
96.1446
96.1574
96.1326
96.1194
96.1015
96.0901
96.0809
93.2752
93.2728
93.2698
93.264
93.2585
93.2466
93.2347
93.2124
93.1891
93.1526
93.1134
93.0589
93.0024
92.9296
92.8579
92.7723
92.7012
92.6011
92.559
92.5667
92.7016
92.7811
92.8902
92.8851
92.8977
92.8728
92.8596
92.8416
92.8302
92.821
90.0187
90.0181
90.0166
90.0113
90.0059
89.994
89.9813
89.9591
89.9343
89.8978
89.8569
89.8027
89.7444
89.6719
89.5986
89.5131
89.4414
89.3384
89.2938
89.3017
89.4407
89.5222
89.6315
89.626
89.6382
89.613
89.5997
89.5817
89.5703
89.5611
86.7746
86.7723
86.7704
86.7649
86.7587
86.7463
86.7321
86.7095
86.6823
86.6458
86.6022
86.5482
86.4872
86.4151
86.3393
86.254
86.1815
86.0741
86.026
86.0342
86.1794
86.264
86.3737
86.3673
86.3788
86.3533
86.3398
86.3218
86.3104
86.3013
83.5336
83.5313
83.529
83.5231
83.5158
83.5028
83.4863
83.4634
83.4327
83.3964
83.3489
83.2955
83.2307
83.1593
83.08
82.995
82.9217
82.8081
82.7552
82.7638
82.9178
83.0063
83.1166
83.1091
83.1195
83.0935
83.0799
83.0619
83.0505
83.0413
80.2975
80.295
80.2924
80.2859
80.277
80.2634
80.2437
80.2208
80.1851
80.15
80.0967
80.0447
79.9746
79.9047
79.8207
79.7362
79.6622
79.5405
79.4816
79.4905
79.6559
79.7494
79.8604
79.8512
79.8604
79.8338
79.82
79.8019
79.7905
79.7814
77.0664
77.064
77.0606
77.0536
77.0422
77.0288
77.0036
76.9822
76.9392
76.9064
76.8454
76.7965
76.7186
76.6515
76.5612
76.4776
76.4033
76.2713
76.2049
76.2141
76.3938
76.4934
76.6051
76.5939
76.6015
76.5742
76.5601
76.542
76.5306
76.5215
73.8403
73.8373
73.833
73.8257
73.8107
73.798
73.7662
73.7466
73.6954
73.665
73.5955
73.5502
73.4625
73.4002
73.3013
73.2191
73.1452
73.0006
72.9247
72.9341
73.1314
73.2382
73.3506
73.3369
73.3427
73.3146
73.3002
73.282
73.2706
73.2615
70.6196
70.6178
70.6114
70.605
70.5834
70.5732
70.5316
70.5153
70.4537
70.4259
70.3471
70.3056
70.207
70.1502
70.0411
69.9609
69.8884
69.7283
69.6444
69.6502
69.8688
69.9841
70.0972
70.0803
70.084
70.055
70.0402
70.022
70.0106
70.0016
67.4009
67.3995
67.3906
67.3847
67.3578
67.3486
67.2994
67.2842
67.214
67.1881
67.1005
67.0626
66.9524
66.9013
66.781
66.7027
66.6335
66.4545
66.3556
66.3621
66.6063
66.7313
66.8449
66.8243
66.8255
66.7954
66.7803
66.762
66.7506
66.7416
64.1959
64.1953
64.1816
64.1789
64.1404
64.1363
64.0707
64.0626
63.9765
63.9543
63.8559
63.8211
63.6989
63.6533
63.5208
63.4444
63.3811
63.1791
63.0619
63.069
63.3436
63.4799
63.5938
63.5686
63.567
63.5358
63.5203
63.5019
63.4906
63.4816
60.9837
60.9833
60.9664
60.9652
60.9175
60.916
60.8411
60.8332
60.7406
60.7169
60.6136
60.5809
60.4465
60.4063
60.2606
60.186
60.132
59.9026
59.7626
59.7704
60.0811
60.2301
60.3438
60.3134
60.3086
60.2761
60.2603
60.2418
60.2305
60.2216
57.7986
57.801
57.7727
57.7788
57.7099
57.7216
57.6197
57.6253
57.5086
57.491
57.3744
57.3432
57.1958
57.1604
57.0003
56.9276
56.8872
56.6252
56.4568
56.4656
56.819
56.9824
57.0953
57.0587
57.0503
57.0166
57.0003
56.9817
56.9705
56.9617
54.5938
54.5983
54.5601
54.5735
54.4868
54.506
54.3896
54.3966
54.2755
54.2498
54.1377
54.1054
53.9467
53.9155
53.7396
53.6688
53.6478
53.3474
53.1432
53.1538
53.5572
53.7369
53.8482
53.8044
53.792
53.7569
53.7402
53.7216
53.7104
53.7016
51.4427
51.4513
51.3936
51.4207
51.292
51.335
51.1771
51.2069
51.0516
51.0337
50.9068
50.8732
50.6997
50.6719
50.4776
50.4095
50.4149
50.07
49.8205
49.8339
50.2961
50.4942
50.6026
50.5504
50.5337
50.4972
50.48
50.4614
50.4502
50.4416
48.253
48.2742
48.1814
48.2312
48.068
48.1296
47.9443
47.9804
47.8206
47.7848
47.6789
47.6381
47.4551
47.43
47.2163
47.1497
47.1911
46.794
46.4868
46.5049
47.0361
47.2547
47.3588
47.2969
47.2754
47.2375
47.2199
47.2013
47.1901
47.1816
45.1575
45.179
45.0657
45.095
44.9033
44.975
44.7462
44.8134
44.6106
44.5767
44.4612
44.4143
44.2115
44.1889
43.948
43.8874
43.977
43.5207
43.1396
43.1653
43.7774
44.019
44.1168
44.0438
44.017
43.9776
43.9597
43.9411
43.93
43.9215
42.0357
42.1154
41.8585
41.9582
41.6707
41.8015
41.4958
41.598
41.3774
41.317
41.245
41.1835
40.9762
40.9536
40.6845
40.6289
40.7779
40.2524
39.7761
39.8134
40.5205
40.7876
40.8768
40.7909
40.7585
40.7177
40.6994
40.6808
40.6698
40.6614
39.0449
39.1127
38.8165
38.8477
38.5164
38.6381
38.3088
38.4586
38.1961
38.1064
38.0541
37.9736
37.7345
37.7136
37.4035
37.354
37.5922
36.9916
36.3916
36.4478
37.2668
37.561
37.6389
37.5384
37.4999
37.4577
37.4392
37.4206
37.4097
37.4014
36.2333
36.4722
35.5454
35.8482
35.2337
35.6184
35.0338
35.283
34.9456
34.8249
34.8489
34.7521
34.5111
34.49
34.132
34.0995
34.4334
33.7417
32.9831
33.0663
34.0148
34.3414
34.4032
34.286
34.2411
34.1976
34.1788
34.1603
34.1494
34.1413
33.5022
32.9853
32.0429
32.5957
32.0362
32.4118
31.8326
32.1802
31.8194
31.5842
31.7027
31.5643
31.2724
31.2508
30.8289
30.8031
31.2874
30.5045
29.5422
29.6664
30.7659
31.13
31.1699
31.0337
30.9819
30.9373
30.9184
30.8999
30.8892
30.8812
29.9022
29.8091
27.6637
30.0938
28.3271
29.6133
28.4073
29.0813
28.5105
28.2642
28.5387
28.3628
28.0588
28.0453
27.5371
27.5407
28.196
27.2865
26.0696
26.2447
27.5207
27.9277
27.9394
27.7814
27.7224
27.677
27.658
27.6396
27.629
27.6211
24.9582
26.3106
27.1787
27.4824
25.0482
26.1972
25.3186
26.0548
25.4922
24.9503
25.4174
25.2321
24.8192
24.8073
24.195
24.2195
25.1026
24.085
22.5491
22.7975
24.2808
24.7365
24.712
24.5289
24.4625
24.4164
24.3974
24.3792
24.3687
24.3609
23.382
24.6569
25.8895
24.0414
21.9411
23.4966
21.8965
23.1249
22.0224
21.4881
22.2854
22.0521
21.6213
21.6251
20.8617
20.9235
22.1297
20.9163
18.9896
19.3208
21.0471
21.5576
21.487
21.2758
21.2019
21.1556
21.1368
21.1188
21.1084
21.1008
19.5128
20.8296
20.5129
19.8975
18.7049
20.419
18.6964
20.5607
18.9999
18.0697
19.2028
19.0562
18.3761
18.3847
17.4522
17.549
19.0852
17.7656
15.3594
15.8038
17.821
18.3938
18.2675
18.0224
17.9408
17.8947
17.8762
17.8583
17.8482
17.8407
16.9706
17.5707
15.8151
17.389
14.6376
17.8603
15.2274
17.7888
15.5211
13.9202
16.0989
15.9479
15.1581
15.2359
14.0393
14.1908
16.3619
14.6759
11.6804
12.2551
14.6103
15.2489
15.049
14.767
14.6787
14.6335
14.6154
14.5978
14.5878
14.5805
3.94853
15.1809
10.1822
13.744
12.2639
14.5495
11.9733
16.3269
12.2442
10.4514
13.0176
13.1078
11.9175
11.9925
10.5177
10.7337
13.2796
11.5994
7.89307
8.62663
11.3928
12.1133
11.8414
11.5121
11.4161
11.3721
11.3547
11.3373
11.3275
11.3203
1.97814
12.1481
4.30043
15.0483
5.41019
11.5015
8.87459
14.5874
8.65059
5.25538
9.936
10.2939
8.51663
8.86522
6.96903
7.28231
11.0743
8.60408
4.05466
4.97237
8.23713
9.03303
8.62933
8.25103
8.15117
8.1103
8.09375
8.0767
8.06712
8.06011
43.9349
6.57083
2.83972
12.871
8.13358
7.98475
3.64636
15.002
5.31599
0.189528
7.13959
7.81565
5.46464
5.62748
3.25621
3.67687
7.79308
5.66188
0.0674621
1.21096
5.01576
5.909
5.4235
4.99373
4.88776
4.8489
4.83313
4.81631
4.80688
4.79999
96.1465
41.7083
-13.2023
26.6466
-13.1533
-6.73631
8.1971
17.8488
1.83975
-6.07861
4.85267
6.20314
2.31549
2.57831
0.129204
0.708338
6.11762
3.17265
-1.16433
-0.848278
2.21204
2.98688
2.24767
1.72204
1.6166
1.58558
1.57159
1.55527
1.54617
1.53957
96.0772
96.0756
96.0743
96.0731
96.0722
96.0714
96.0708
96.0703
96.0698
96.0695
96.0692
96.0689
96.0687
96.0685
96.0684
96.0683
96.0682
96.0681
96.068
96.068
96.0679
96.0679
96.0678
96.0678
96.0677
96.0677
96.0676
96.0677
96.0675
96.0676
92.8173
92.8157
92.8144
92.8132
92.8123
92.8116
92.8109
92.8104
92.81
92.8096
92.8093
92.8091
92.8089
92.8087
92.8085
92.8084
92.8083
92.8082
92.8082
92.8081
92.8081
92.808
92.8079
92.8079
92.8078
92.8079
92.8077
92.8078
92.8077
92.8078
89.5574
89.5559
89.5545
89.5534
89.5524
89.5517
89.5511
89.5505
89.5501
89.5497
89.5494
89.5492
89.549
89.5488
89.5487
89.5486
89.5485
89.5484
89.5483
89.5483
89.5482
89.5482
89.5481
89.5481
89.5479
89.548
89.5478
89.548
89.5478
89.5479
86.2976
86.296
86.2947
86.2935
86.2926
86.2918
86.2912
86.2907
86.2902
86.2899
86.2896
86.2893
86.2891
86.289
86.2888
86.2887
86.2886
86.2885
86.2885
86.2884
86.2883
86.2883
86.2882
86.2882
86.2881
86.2882
86.288
86.2881
86.2879
86.2881
83.0377
83.0361
83.0347
83.0336
83.0327
83.0319
83.0313
83.0308
83.0304
83.03
83.0297
83.0295
83.0293
83.0291
83.0289
83.0288
83.0287
83.0287
83.0286
83.0285
83.0285
83.0284
83.0283
83.0284
83.0282
83.0283
83.0281
83.0282
83.028
83.0282
79.7777
79.7762
79.7748
79.7737
79.7728
79.772
79.7714
79.7709
79.7705
79.7701
79.7698
79.7696
79.7694
79.7692
79.7691
79.7689
79.7689
79.7688
79.7687
79.7686
79.7686
79.7685
79.7685
79.7685
79.7683
79.7684
79.7682
79.7684
79.7682
79.7683
76.5178
76.5163
76.515
76.5138
76.5129
76.5122
76.5116
76.511
76.5106
76.5103
76.51
76.5097
76.5095
76.5094
76.5092
76.5091
76.509
76.5089
76.5089
76.5088
76.5088
76.5087
76.5086
76.5086
76.5085
76.5086
76.5084
76.5085
76.5083
76.5085
73.2579
73.2564
73.255
73.2539
73.253
73.2523
73.2517
73.2511
73.2507
73.2504
73.2501
73.2498
73.2496
73.2495
73.2493
73.2492
73.2491
73.2491
73.249
73.2489
73.2489
73.2488
73.2488
73.2488
73.2486
73.2487
73.2485
73.2487
73.2484
73.2486
69.9979
69.9964
69.9951
69.994
69.9931
69.9924
69.9917
69.9912
69.9908
69.9905
69.9902
69.99
69.9898
69.9896
69.9895
69.9893
69.9893
69.9892
69.9891
69.9891
69.989
69.989
69.9889
69.9889
69.9887
69.9888
69.9886
69.9888
69.9885
69.9887
66.738
66.7365
66.7352
66.7341
66.7332
66.7325
66.7319
66.7314
66.731
66.7306
66.7303
66.7301
66.7299
66.7298
66.7296
66.7295
66.7294
66.7293
66.7293
66.7292
66.7292
66.7291
66.7291
66.7291
66.7289
66.729
66.7288
66.729
66.7287
66.7289
63.4781
63.4766
63.4753
63.4742
63.4733
63.4726
63.472
63.4715
63.4711
63.4707
63.4704
63.4702
63.47
63.4699
63.4697
63.4696
63.4695
63.4695
63.4694
63.4693
63.4693
63.4692
63.4692
63.4692
63.469
63.4691
63.4689
63.4691
63.4688
63.469
60.2181
60.2166
60.2153
60.2142
60.2134
60.2127
60.2121
60.2116
60.2112
60.2108
60.2105
60.2103
60.2101
60.21
60.2098
60.2097
60.2097
60.2096
60.2095
60.2095
60.2094
60.2094
60.2093
60.2093
60.2092
60.2092
60.209
60.2092
60.2089
60.2092
56.9581
56.9567
56.9554
56.9543
56.9535
56.9528
56.9522
56.9517
56.9513
56.951
56.9507
56.9505
56.9503
56.9501
56.95
56.9499
56.9498
56.9497
56.9497
56.9496
56.9496
56.9495
56.9495
56.9495
56.9493
56.9494
56.9491
56.9494
56.949
56.9494
53.6981
53.6967
53.6954
53.6944
53.6935
53.6928
53.6923
53.6918
53.6914
53.6911
53.6908
53.6906
53.6904
53.6902
53.6901
53.69
53.6899
53.6899
53.6898
53.6897
53.6897
53.6897
53.6896
53.6896
53.6894
53.6895
53.6892
53.6895
53.6891
53.6895
50.4381
50.4367
50.4355
50.4344
50.4336
50.4329
50.4323
50.4319
50.4315
50.4312
50.4309
50.4307
50.4305
50.4303
50.4302
50.4301
50.43
50.43
50.4299
50.4299
50.4298
50.4298
50.4297
50.4297
50.4296
50.4296
50.4294
50.4296
50.4292
50.4296
47.1782
47.1767
47.1755
47.1745
47.1737
47.173
47.1725
47.172
47.1716
47.1713
47.171
47.1708
47.1706
47.1705
47.1704
47.1703
47.1702
47.1701
47.1701
47.17
47.17
47.1699
47.1699
47.1699
47.1697
47.1698
47.1695
47.1698
47.1693
47.1698
43.9181
43.9167
43.9155
43.9146
43.9137
43.9131
43.9125
43.9121
43.9117
43.9114
43.9111
43.9109
43.9108
43.9106
43.9105
43.9104
43.9103
43.9103
43.9102
43.9101
43.9101
43.9101
43.91
43.91
43.9099
43.9099
43.9096
43.9099
43.9093
43.91
40.6581
40.6567
40.6555
40.6546
40.6538
40.6531
40.6526
40.6521
40.6518
40.6515
40.6512
40.651
40.6509
40.6507
40.6506
40.6505
40.6504
40.6504
40.6503
40.6503
40.6502
40.6502
40.6501
40.6501
40.65
40.6501
40.6497
40.6501
40.6494
40.6502
37.3981
37.3967
37.3956
37.3946
37.3939
37.3932
37.3927
37.3923
37.3919
37.3916
37.3914
37.3912
37.391
37.3909
37.3908
37.3907
37.3906
37.3905
37.3905
37.3904
37.3904
37.3904
37.3903
37.3903
37.3902
37.3902
37.3899
37.3903
37.3895
37.3904
34.1381
34.1367
34.1356
34.1347
34.1339
34.1333
34.1327
34.1323
34.132
34.1317
34.1315
34.1313
34.1311
34.131
34.1309
34.1308
34.1307
34.1306
34.1306
34.1306
34.1305
34.1305
34.1304
34.1304
34.1303
34.1304
34.13
34.1304
34.1295
34.1306
30.878
30.8767
30.8756
30.8747
30.8739
30.8733
30.8728
30.8724
30.872
30.8718
30.8715
30.8714
30.8712
30.8711
30.871
30.8709
30.8708
30.8708
30.8707
30.8707
30.8706
30.8706
30.8705
30.8705
30.8704
30.8705
30.8701
30.8705
30.8695
30.8708
27.618
27.6167
27.6156
27.6147
27.614
27.6134
27.6129
27.6125
27.6122
27.6119
27.6117
27.6115
27.6113
27.6112
27.6111
27.611
27.611
27.6109
27.6109
27.6108
27.6108
27.6108
27.6107
27.6107
27.6106
27.6106
27.6102
27.6107
27.6095
27.611
24.3579
24.3566
24.3556
24.3547
24.354
24.3534
24.3529
24.3526
24.3522
24.352
24.3518
24.3516
24.3514
24.3513
24.3512
24.3512
24.3511
24.351
24.351
24.351
24.3509
24.3509
24.3509
24.3508
24.3507
24.3508
24.3503
24.3508
24.3495
24.3512
21.0978
21.0966
21.0956
21.0947
21.094
21.0935
21.093
21.0926
21.0923
21.0921
21.0918
21.0917
21.0915
21.0914
21.0913
21.0913
21.0912
21.0912
21.0911
21.0911
21.091
21.091
21.091
21.0909
21.0908
21.0909
21.0904
21.091
21.0894
21.0916
17.8378
17.8366
17.8356
17.8348
17.8341
17.8335
17.8331
17.8327
17.8324
17.8322
17.832
17.8318
17.8317
17.8316
17.8315
17.8314
17.8314
17.8313
17.8313
17.8312
17.8312
17.8312
17.8312
17.8311
17.831
17.8311
17.8306
17.8311
17.8294
17.8318
14.5777
14.5765
14.5755
14.5747
14.5741
14.5736
14.5731
14.5728
14.5725
14.5722
14.5721
14.5719
14.5718
14.5717
14.5716
14.5715
14.5715
14.5714
14.5714
14.5714
14.5713
14.5713
14.5713
14.5712
14.5712
14.5712
14.5707
14.5713
14.5692
14.5723
11.3176
11.3164
11.3155
11.3147
11.3141
11.3136
11.3132
11.3128
11.3125
11.3123
11.3121
11.312
11.3119
11.3118
11.3117
11.3116
11.3116
11.3115
11.3115
11.3115
11.3115
11.3114
11.3114
11.3114
11.3113
11.3113
11.3108
11.3114
11.309
11.3124
8.05745
8.05636
8.05545
8.05473
8.05412
8.05363
8.05323
8.05291
8.05264
8.05244
8.05226
8.05212
8.05201
8.05192
8.05185
8.05179
8.05174
8.0517
8.05167
8.05163
8.05163
8.05158
8.05159
8.05153
8.05151
8.05148
8.05105
8.05154
8.04888
8.05334
4.7974
4.79633
4.79545
4.79474
4.79415
4.79368
4.79328
4.79298
4.79272
4.79252
4.79235
4.79222
4.79211
4.79202
4.79195
4.7919
4.79185
4.79181
4.79179
4.79175
4.79175
4.7917
4.79172
4.79165
4.79165
4.7916
4.79116
4.79164
4.78828
4.79303
1.53712
1.53611
1.53528
1.53462
1.53406
1.53363
1.53326
1.53297
1.53274
1.53256
1.5324
1.53228
1.53218
1.53211
1.53204
1.53199
1.53195
1.53192
1.5319
1.53186
1.53188
1.53182
1.53187
1.53178
1.53191
1.53172
1.53163
1.53173
1.52878
1.53505
105.716
-5.63885
-5.4784
1.93104
-1.97706
-1.57628
3.4834
4.95693
-0.0349888
-0.367107
0.714701
0.672799
0.0262585
0.0832229
0.0824886
0.162859
0.642148
0.291719
-0.112249
-0.0861808
0.123067
0.131579
0.0831256
-0.016419
-0.0491833
-0.0713224
-0.0801311
-0.089066
-0.0937677
-0.0972501
-2.70233
-1.3396
-0.98542
-0.373109
-0.311878
-0.493038
-0.197959
-0.116454
-0.127151
-0.0850507
-0.12328
-0.103349
-0.114705
-0.107549
-0.10735
-0.108395
-0.114467
-0.112147
-0.109142
-0.0997009
-0.107232
-0.107908
-0.107047
-0.107202
-0.10704
-0.107465
-0.107478
-0.107665
-0.10773
-0.107779
14.1169
0.15924
-0.330393
-0.206417
-0.478066
-0.31403
-0.200714
-0.112127
-0.115998
-0.0888853
-0.125988
-0.106373
-0.120047
-0.109874
-0.114438
-0.114456
-0.11922
-0.120623
-0.118931
-0.107144
-0.108235
-0.11379
-0.11347
-0.113764
-0.113597
-0.114009
-0.114021
-0.114206
-0.11427
-0.114319
-1.49315
5.68771
-0.231506
0.0565039
-0.235192
-0.0769443
-0.108848
-0.125304
-0.128713
-0.108563
-0.129375
-0.112571
-0.125782
-0.118199
-0.121541
-0.121632
-0.124335
-0.124224
-0.122663
-0.116206
-0.119786
-0.120336
-0.120005
-0.120349
-0.12018
-0.12057
-0.120571
-0.120752
-0.120813
-0.120862
3.84013
6.34832
1.75867
-0.120395
-0.237083
-0.164459
-0.0982566
-0.128055
-0.12661
-0.113831
-0.131969
-0.119438
-0.130945
-0.12398
-0.127749
-0.128065
-0.129796
-0.129882
-0.128337
-0.124004
-0.124369
-0.126689
-0.126498
-0.126912
-0.126751
-0.127126
-0.127121
-0.127298
-0.127356
-0.127405
8.58817
6.54342
5.2815
1.49072
-0.178302
-0.0902882
-0.138699
-0.119527
-0.136533
-0.122851
-0.13777
-0.126915
-0.13677
-0.131174
-0.134226
-0.134554
-0.135553
-0.13567
-0.134438
-0.131364
-0.132647
-0.133291
-0.13307
-0.133486
-0.133324
-0.133683
-0.133671
-0.133844
-0.1339
-0.133948
5.91445
5.48275
4.1941
-0.111071
-0.0660519
-0.167728
-0.153052
-0.142245
-0.143216
-0.13414
-0.142877
-0.13464
-0.142223
-0.137968
-0.140452
-0.14092
-0.14152
-0.141567
-0.140483
-0.138678
-0.138616
-0.139778
-0.139622
-0.140053
-0.139897
-0.140239
-0.140224
-0.14039
-0.140444
-0.140491
9.45755
8.46737
0.371764
-0.226824
-0.0989734
-0.161083
-0.16423
-0.140299
-0.151953
-0.139862
-0.149265
-0.141894
-0.148257
-0.144868
-0.146859
-0.147259
-0.147647
-0.147712
-0.146905
-0.145605
-0.145899
-0.14641
-0.146207
-0.146622
-0.146471
-0.146795
-0.146777
-0.146937
-0.146988
-0.147035
1.33121
0.997113
1.87904
-0.195392
-0.141417
-0.151288
-0.155676
-0.148223
-0.155088
-0.147752
-0.154368
-0.149187
-0.153955
-0.15174
-0.153178
-0.153617
-0.153893
-0.153949
-0.153257
-0.15248
-0.152297
-0.152953
-0.152787
-0.153189
-0.153045
-0.153349
-0.153332
-0.153483
-0.153533
-0.153578
0.0500212
0.128971
0.5066
-0.201609
-0.162753
-0.170654
-0.161928
-0.156017
-0.160164
-0.154841
-0.160061
-0.156263
-0.160051
-0.158541
-0.159618
-0.160011
-0.160233
-0.160275
-0.159796
-0.15925
-0.159213
-0.159569
-0.159381
-0.159755
-0.15962
-0.159904
-0.159888
-0.16003
-0.160079
-0.160122
-0.0993187
-0.0993532
-0.134531
-0.165389
-0.151933
-0.159484
-0.160833
-0.160037
-0.163849
-0.161348
-0.165426
-0.163219
-0.166081
-0.16528
-0.166095
-0.166441
-0.166651
-0.166667
-0.166282
-0.165932
-0.165676
-0.166139
-0.165973
-0.16632
-0.166195
-0.166458
-0.166444
-0.166577
-0.166625
-0.166666
-0.118339
-0.107414
-0.108022
-0.131714
-0.140569
-0.152427
-0.15803
-0.161789
-0.16733
-0.167093
-0.171209
-0.17003
-0.17243
-0.171944
-0.172687
-0.172906
-0.173136
-0.173103
-0.172855
-0.172604
-0.172468
-0.172735
-0.172571
-0.172884
-0.172771
-0.173011
-0.173001
-0.173124
-0.173171
-0.17321
-0.0640754
-0.101959
-0.110563
-0.158115
-0.155924
-0.165202
-0.1689
-0.170832
-0.174636
-0.174809
-0.177598
-0.177048
-0.178983
-0.178603
-0.17937
-0.179384
-0.179681
-0.179569
-0.179424
-0.17922
-0.179053
-0.179312
-0.179168
-0.179447
-0.179347
-0.179564
-0.17956
-0.179671
-0.179718
-0.179755
0.0422112
-0.0147835
-0.0375344
-0.102314
-0.1382
-0.149331
-0.166823
-0.171032
-0.1793
-0.180866
-0.184307
-0.184043
-0.18574
-0.185305
-0.186096
-0.185897
-0.186271
-0.186059
-0.186014
-0.185834
-0.185708
-0.185893
-0.185766
-0.186008
-0.185924
-0.186117
-0.186118
-0.186218
-0.186265
-0.1863
-0.0520043
-0.0472766
-0.138812
-0.213314
-0.160469
-0.174965
-0.183282
-0.185027
-0.189698
-0.190402
-0.191868
-0.191497
-0.192664
-0.192078
-0.192846
-0.192444
-0.192882
-0.192568
-0.192617
-0.192421
-0.192336
-0.192467
-0.192363
-0.192569
-0.1925
-0.19267
-0.192676
-0.192766
-0.192812
-0.192844
12.941
0.0920701
2.10452
-0.146868
-0.403512
-0.168865
-0.246223
-0.195164
-0.205476
-0.199695
-0.200113
-0.198945
-0.199687
-0.198891
-0.199599
-0.199021
-0.199508
-0.199094
-0.199228
-0.199003
-0.198959
-0.19904
-0.19896
-0.199129
-0.199077
-0.199222
-0.199236
-0.199314
-0.199359
-0.199389
4.53771
0.498167
4.53087
0.633287
-0.268953
-0.180367
-0.217268
-0.199889
-0.207913
-0.207479
-0.20694
-0.206295
-0.206573
-0.205709
-0.206334
-0.205618
-0.206135
-0.205634
-0.205836
-0.205575
-0.205575
-0.20561
-0.205554
-0.205688
-0.205653
-0.205775
-0.205794
-0.205863
-0.205906
-0.205934
5.30492
1.8136
-0.365384
-0.029657
-0.322673
-0.2253
-0.234741
-0.223213
-0.218103
-0.216913
-0.214847
-0.213524
-0.213532
-0.2125
-0.213047
-0.212225
-0.212756
-0.212186
-0.212441
-0.212145
-0.212184
-0.212178
-0.212147
-0.212247
-0.212228
-0.212328
-0.212353
-0.212412
-0.212454
-0.212479
-0.271055
-0.240886
-0.254279
-0.259324
-0.235835
-0.230664
-0.22811
-0.225585
-0.222523
-0.222877
-0.221139
-0.220394
-0.220241
-0.219241
-0.21972
-0.218835
-0.219366
-0.218746
-0.219039
-0.218715
-0.218787
-0.218747
-0.218736
-0.218807
-0.218802
-0.218883
-0.21891
-0.218962
-0.219002
-0.219024
-0.0570801
-0.263534
-0.214911
-0.251588
-0.246872
-0.241369
-0.233044
-0.233914
-0.230002
-0.229752
-0.22842
-0.227164
-0.227035
-0.225931
-0.226359
-0.225441
-0.225961
-0.225311
-0.225628
-0.225284
-0.225383
-0.225315
-0.225321
-0.225368
-0.225374
-0.225438
-0.225467
-0.225512
-0.225549
-0.225569
-0.209138
-0.240215
-0.23751
-0.260498
-0.252809
-0.244593
-0.240508
-0.238547
-0.236722
-0.235613
-0.234819
-0.233715
-0.233632
-0.232563
-0.232954
-0.232037
-0.232538
-0.23188
-0.232208
-0.231853
-0.231971
-0.231883
-0.231901
-0.23193
-0.231943
-0.231994
-0.232024
-0.232062
-0.232096
-0.232115
-0.413077
-0.308253
-0.24502
-0.2665
-0.259424
-0.251975
-0.244141
-0.244513
-0.243726
-0.242144
-0.241515
-0.240258
-0.240177
-0.23915
-0.239508
-0.238624
-0.239098
-0.238452
-0.238779
-0.238424
-0.238553
-0.238452
-0.23848
-0.238494
-0.238511
-0.238551
-0.23858
-0.238613
-0.238644
-0.23866
1.72482
-0.230716
-0.233125
-0.244406
-0.217481
-0.257922
-0.247835
-0.252108
-0.250302
-0.248384
-0.247759
-0.246654
-0.246616
-0.24569
-0.246023
-0.245198
-0.245639
-0.245024
-0.245339
-0.244996
-0.245128
-0.245021
-0.245054
-0.245058
-0.245077
-0.245109
-0.245136
-0.245163
-0.245192
-0.245206
2.9281
1.83428
-0.208026
-0.227011
-0.208214
-0.241281
-0.249951
-0.254971
-0.254933
-0.25379
-0.253796
-0.252926
-0.252982
-0.252191
-0.252505
-0.251761
-0.252164
-0.251595
-0.25189
-0.251568
-0.251698
-0.25159
-0.251626
-0.251623
-0.251642
-0.251667
-0.251691
-0.251714
-0.251739
-0.251751
2.99702
1.32742
-0.205835
-0.218862
-0.216775
-0.254373
-0.251754
-0.257288
-0.258901
-0.25913
-0.259617
-0.259138
-0.259313
-0.258667
-0.258966
-0.258315
-0.258674
-0.258167
-0.258433
-0.258141
-0.258262
-0.25816
-0.258196
-0.258188
-0.258207
-0.258226
-0.258247
-0.258266
-0.258288
-0.258298
-0.165501
-0.138381
-0.254633
-0.228957
-0.245164
-0.262995
-0.262233
-0.264386
-0.265349
-0.265517
-0.265843
-0.26547
-0.265669
-0.26514
-0.265413
-0.264863
-0.265172
-0.264737
-0.264967
-0.264714
-0.264822
-0.26473
-0.264763
-0.264754
-0.26477
-0.264784
-0.264802
-0.264817
-0.264835
-0.264843
-0.0510527
-0.288288
-0.251241
-0.248685
-0.270071
-0.278344
-0.27435
-0.272912
-0.272393
-0.272001
-0.272197
-0.271811
-0.272043
-0.27161
-0.271851
-0.271407
-0.27166
-0.271308
-0.271495
-0.271288
-0.271377
-0.271301
-0.271329
-0.271319
-0.271333
-0.271343
-0.271357
-0.271369
-0.271383
-0.271389
9.57048
0.337383
-0.300326
-0.291862
-0.287459
-0.282328
-0.281456
-0.278827
-0.279279
-0.278071
-0.278736
-0.27812
-0.27844
-0.278084
-0.278285
-0.277949
-0.278142
-0.277878
-0.278018
-0.277863
-0.27793
-0.277872
-0.277894
-0.277885
-0.277896
-0.277902
-0.277913
-0.277921
-0.277931
-0.277935
8.86688
1.17779
-0.273145
-0.280192
-0.277843
-0.286212
-0.28254
-0.285213
-0.284284
-0.284886
-0.284732
-0.284692
-0.284805
-0.284567
-0.284714
-0.28449
-0.284617
-0.284448
-0.284536
-0.284438
-0.28448
-0.284443
-0.284457
-0.284451
-0.284457
-0.284461
-0.284468
-0.284472
-0.284478
-0.284481
4.6193
0.190658
-0.443875
-0.219801
-0.326243
-0.265875
-0.298929
-0.283191
-0.293153
-0.289036
-0.291982
-0.290636
-0.291353
-0.291007
-0.291144
-0.291029
-0.291088
-0.291017
-0.291052
-0.291013
-0.291029
-0.291014
-0.29102
-0.291017
-0.291019
-0.29102
-0.291022
-0.291024
-0.291026
-0.291027
-0.0985478
-0.0990818
-0.0995255
-0.0998728
-0.100173
-0.100402
-0.100601
-0.100752
-0.10088
-0.100979
-0.101063
-0.101126
-0.101181
-0.101222
-0.101257
-0.101284
-0.101307
-0.101326
-0.101342
-0.101357
-0.101379
-0.101384
-0.101403
-0.101406
-0.101416
-0.101414
-0.101447
-0.101344
-0.101895
-0.101714
-0.107834
-0.107833
-0.107858
-0.107858
-0.107877
-0.10788
-0.107892
-0.107897
-0.107904
-0.107909
-0.107913
-0.107916
-0.107919
-0.107921
-0.107923
-0.107925
-0.107927
-0.107929
-0.107931
-0.107934
-0.107936
-0.107941
-0.107944
-0.107954
-0.107957
-0.107975
-0.107979
-0.108012
-0.108004
-0.108092
-0.114373
-0.114373
-0.114397
-0.114399
-0.114417
-0.11442
-0.114432
-0.114437
-0.114444
-0.114449
-0.114453
-0.114456
-0.114459
-0.114461
-0.114463
-0.114465
-0.114467
-0.114469
-0.114471
-0.114473
-0.114476
-0.114481
-0.114483
-0.114493
-0.114496
-0.114516
-0.114528
-0.114581
-0.114651
-0.114936
-0.120915
-0.120916
-0.120939
-0.12094
-0.120958
-0.120961
-0.120973
-0.120978
-0.120985
-0.120989
-0.120993
-0.120997
-0.120999
-0.121002
-0.121003
-0.121005
-0.121007
-0.121009
-0.121011
-0.121013
-0.121016
-0.121021
-0.121023
-0.121033
-0.121035
-0.121053
-0.121055
-0.121091
-0.12106
-0.121181
-0.127456
-0.127457
-0.12748
-0.127482
-0.127499
-0.127502
-0.127514
-0.127518
-0.127525
-0.127529
-0.127533
-0.127537
-0.127539
-0.127541
-0.127543
-0.127545
-0.127547
-0.127549
-0.12755
-0.127553
-0.127555
-0.12756
-0.127562
-0.127572
-0.127573
-0.127591
-0.127594
-0.127638
-0.127612
-0.127764
-0.133998
-0.133999
-0.134021
-0.134023
-0.13404
-0.134043
-0.134054
-0.134058
-0.134065
-0.134069
-0.134073
-0.134076
-0.134079
-0.134081
-0.134083
-0.134085
-0.134086
-0.134088
-0.13409
-0.134092
-0.134095
-0.134099
-0.134101
-0.13411
-0.134111
-0.134128
-0.134124
-0.134158
-0.134112
-0.134204
-0.14054
-0.140542
-0.140563
-0.140565
-0.140581
-0.140584
-0.140595
-0.140599
-0.140606
-0.14061
-0.140614
-0.140617
-0.140619
-0.140621
-0.140623
-0.140625
-0.140626
-0.140628
-0.14063
-0.140632
-0.140634
-0.140639
-0.14064
-0.140649
-0.140649
-0.140665
-0.140659
-0.140693
-0.140647
-0.140736
-0.147081
-0.147084
-0.147104
-0.147106
-0.147122
-0.147124
-0.147135
-0.147139
-0.147146
-0.14715
-0.147153
-0.147157
-0.147159
-0.147161
-0.147163
-0.147164
-0.147166
-0.147168
-0.147169
-0.147172
-0.147174
-0.147178
-0.147179
-0.147187
-0.147186
-0.147201
-0.147193
-0.147222
-0.147175
-0.147237
-0.153623
-0.153626
-0.153645
-0.153647
-0.153662
-0.153665
-0.153676
-0.153679
-0.153686
-0.15369
-0.153693
-0.153696
-0.153699
-0.153701
-0.153702
-0.153704
-0.153705
-0.153707
-0.153709
-0.153711
-0.153713
-0.153717
-0.153718
-0.153725
-0.153724
-0.153737
-0.153727
-0.153753
-0.153709
-0.153761
-0.160165
-0.160168
-0.160187
-0.160189
-0.160204
-0.160206
-0.160217
-0.16022
-0.160226
-0.16023
-0.160234
-0.160237
-0.160239
-0.160241
-0.160242
-0.160244
-0.160245
-0.160247
-0.160248
-0.16025
-0.160252
-0.160256
-0.160256
-0.160264
-0.160261
-0.160274
-0.160263
-0.160285
-0.160245
-0.160285
-0.166707
-0.16671
-0.166728
-0.16673
-0.166744
-0.166747
-0.166757
-0.16676
-0.166767
-0.16677
-0.166773
-0.166776
-0.166778
-0.16678
-0.166782
-0.166783
-0.166785
-0.166786
-0.166788
-0.16679
-0.166791
-0.166795
-0.166795
-0.166802
-0.166799
-0.16681
-0.166799
-0.166818
-0.166782
-0.166814
-0.173249
-0.173252
-0.173269
-0.173272
-0.173285
-0.173288
-0.173298
-0.173301
-0.173307
-0.17331
-0.173313
-0.173316
-0.173318
-0.17332
-0.173321
-0.173323
-0.173324
-0.173325
-0.173327
-0.173329
-0.17333
-0.173333
-0.173333
-0.17334
-0.173336
-0.173347
-0.173335
-0.173352
-0.173319
-0.173345
-0.179792
-0.179795
-0.179811
-0.179814
-0.179827
-0.179829
-0.179838
-0.179841
-0.179847
-0.17985
-0.179853
-0.179856
-0.179858
-0.17986
-0.179861
-0.179863
-0.179864
-0.179865
-0.179866
-0.179868
-0.179869
-0.179872
-0.179872
-0.179878
-0.179874
-0.179884
-0.179872
-0.179886
-0.179858
-0.179878
-0.186335
-0.186338
-0.186353
-0.186355
-0.186368
-0.18637
-0.186379
-0.186382
-0.186387
-0.18639
-0.186393
-0.186396
-0.186398
-0.186399
-0.186401
-0.186402
-0.186403
-0.186404
-0.186405
-0.186407
-0.186408
-0.186411
-0.18641
-0.186416
-0.186412
-0.186421
-0.186409
-0.186422
-0.186396
-0.186413
-0.192877
-0.19288
-0.192895
-0.192897
-0.192909
-0.192911
-0.192919
-0.192922
-0.192927
-0.19293
-0.192933
-0.192935
-0.192937
-0.192939
-0.19294
-0.192941
-0.192942
-0.192943
-0.192944
-0.192946
-0.192947
-0.192949
-0.192949
-0.192954
-0.19295
-0.192957
-0.192947
-0.192957
-0.192935
-0.192949
-0.19942
-0.199423
-0.199437
-0.199439
-0.19945
-0.199452
-0.19946
-0.199463
-0.199468
-0.19947
-0.199473
-0.199475
-0.199477
-0.199479
-0.19948
-0.199481
-0.199482
-0.199483
-0.199484
-0.199485
-0.199486
-0.199488
-0.199488
-0.199492
-0.199488
-0.199495
-0.199485
-0.199494
-0.199474
-0.199486
-0.205963
-0.205966
-0.205979
-0.205981
-0.205991
-0.205993
-0.206001
-0.206003
-0.206008
-0.20601
-0.206013
-0.206015
-0.206017
-0.206018
-0.206019
-0.20602
-0.206021
-0.206022
-0.206023
-0.206024
-0.206025
-0.206027
-0.206026
-0.20603
-0.206026
-0.206032
-0.206023
-0.206031
-0.206013
-0.206023
-0.212506
-0.212509
-0.212521
-0.212522
-0.212532
-0.212534
-0.212541
-0.212543
-0.212548
-0.21255
-0.212553
-0.212554
-0.212556
-0.212557
-0.212558
-0.212559
-0.21256
-0.212561
-0.212562
-0.212563
-0.212563
-0.212565
-0.212564
-0.212568
-0.212564
-0.21257
-0.212561
-0.212568
-0.212553
-0.212561
-0.219049
-0.219052
-0.219063
-0.219065
-0.219074
-0.219076
-0.219082
-0.219084
-0.219088
-0.21909
-0.219093
-0.219094
-0.219096
-0.219097
-0.219098
-0.219099
-0.2191
-0.2191
-0.219101
-0.219102
-0.219103
-0.219104
-0.219103
-0.219107
-0.219103
-0.219108
-0.2191
-0.219106
-0.219092
-0.219099
-0.225592
-0.225595
-0.225605
-0.225607
-0.225615
-0.225617
-0.225623
-0.225624
-0.225628
-0.22563
-0.225632
-0.225634
-0.225635
-0.225636
-0.225637
-0.225638
-0.225639
-0.225639
-0.22564
-0.225641
-0.225641
-0.225643
-0.225642
-0.225645
-0.225641
-0.225646
-0.225639
-0.225644
-0.225632
-0.225638
-0.232136
-0.232138
-0.232147
-0.232149
-0.232156
-0.232158
-0.232163
-0.232165
-0.232168
-0.23217
-0.232172
-0.232173
-0.232175
-0.232176
-0.232176
-0.232177
-0.232178