/*--------------------------------*- C++ -*----------------------------------*\
| =========                 |                                                 |
| \\      /  F ield         | OpenFOAM: The Open Source CFD Toolbox           |
|  \\    /   O peration     | Version:  2.4.0                                 |
|   \\  /    A nd           | Web:      www.OpenFOAM.org                      |
|    \\/     M anipulation  |                                                 |
\*---------------------------------------------------------------------------*/
FoamFile
{
    version     2.0;
    format      ascii;
    class       surfaceScalarField;
    location    "0.163";
    object      phi;
}
// * * * * * * * * * * * * * * * * * * * * * * * * * * * * * * * * * * * * * //

dimensions      [0 3 -1 0 0 0 0];

internalField   nonuniform List<scalar> 
7080
(
1.70424e-08
-1.70424e-08
4.99154e-08
-3.2873e-08
8.17618e-08
-3.18464e-08
1.02851e-07
-2.1089e-08
1.17469e-07
-1.46184e-08
1.14463e-07
3.00657e-09
9.39434e-08
2.05192e-08
6.23239e-08
3.16195e-08
3.08633e-08
3.14606e-08
5.46687e-09
2.53964e-08
-1.08118e-08
1.62786e-08
-2.98995e-08
1.90877e-08
-4.19556e-08
1.20561e-08
-5.87776e-08
1.6822e-08
-6.68902e-08
8.11255e-09
-5.63912e-08
-1.0499e-08
-3.13413e-08
-2.50499e-08
-1.28916e-08
-1.84496e-08
-1.50039e-08
2.11221e-09
-4.30554e-08
2.80515e-08
-1.3508e-07
9.20244e-08
-2.25343e-07
9.02631e-08
-2.38723e-07
1.33804e-08
-1.89869e-07
-4.88546e-08
-1.42073e-07
-4.77959e-08
-1.13481e-07
-2.85916e-08
-8.81947e-08
-2.52866e-08
-5.2641e-08
-3.55537e-08
-2.86389e-08
-2.40022e-08
-1.89509e-08
-9.68802e-09
7.24825e-09
-2.42907e-08
4.66215e-08
-7.22462e-08
9.3314e-08
-7.85389e-08
1.28267e-07
-5.6042e-08
1.57318e-07
-4.36694e-08
1.68271e-07
-7.94657e-09
1.56885e-07
3.19049e-08
1.33125e-07
5.53799e-08
1.00182e-07
6.44037e-08
7.4453e-08
5.11252e-08
5.56109e-08
3.51205e-08
2.73914e-08
4.73071e-08
1.64173e-08
2.30301e-08
-2.42699e-08
5.75093e-08
-4.1979e-08
2.58216e-08
-5.31065e-08
6.28618e-10
-7.45094e-08
-3.64713e-09
-7.35278e-08
-1.94312e-08
-9.31511e-08
2.17355e-08
-1.63601e-07
9.85016e-08
-2.656e-07
1.94023e-07
-3.25067e-07
1.4973e-07
-3.07448e-07
-4.23883e-09
-2.71366e-07
-8.49365e-08
-2.25463e-07
-9.3699e-08
-1.79141e-07
-7.49133e-08
-1.32177e-07
-7.22506e-08
-8.38652e-08
-8.38659e-08
-3.86062e-08
-6.92612e-08
-5.65002e-08
-1.05694e-09
1.10265e-09
-2.53933e-08
3.96034e-08
-1.10747e-07
8.79606e-08
-1.26896e-07
1.25038e-07
-9.31192e-08
1.56933e-07
-7.55648e-08
1.71742e-07
-2.27557e-08
1.64074e-07
3.95728e-08
1.46283e-07
7.31712e-08
1.15696e-07
9.49902e-08
9.70409e-08
6.97808e-08
8.05905e-08
5.15708e-08
5.63491e-08
7.15486e-08
5.90498e-08
2.03292e-08
1.85277e-08
9.80314e-08
3.65651e-09
4.06927e-08
-1.20639e-08
1.63491e-08
-6.37264e-08
4.80153e-08
-1.03269e-07
2.01114e-08
-1.58048e-07
7.65144e-08
-2.42201e-07
1.82655e-07
-3.13192e-07
2.65014e-07
-3.32567e-07
1.69105e-07
-3.08e-07
-2.88056e-08
-2.6785e-07
-1.25087e-07
-2.23258e-07
-1.38291e-07
-1.58148e-07
-1.40023e-07
-1.02367e-07
-1.28032e-07
-7.40451e-08
-1.12188e-07
-3.74767e-08
-1.0583e-07
-9.52897e-08
1.31265e-09
-8.34638e-10
-2.45587e-08
3.73807e-08
-1.48962e-07
8.59748e-08
-1.7549e-07
1.23364e-07
-1.30509e-07
1.55857e-07
-1.08058e-07
1.71344e-07
-3.8242e-08
1.64136e-07
4.67806e-08
1.47583e-07
8.97238e-08
1.16447e-07
1.26127e-07
1.02241e-07
8.39873e-08
8.16305e-08
7.21808e-08
6.72265e-08
8.59526e-08
8.37758e-08
3.77979e-09
4.73172e-08
1.3449e-07
3.52278e-08
5.27821e-08
1.99263e-08
3.16507e-08
-5.34888e-08
1.2143e-07
-1.29317e-07
9.59394e-08
-2.05532e-07
1.5273e-07
-2.63983e-07
2.41106e-07
-2.82607e-07
2.83638e-07
-2.64715e-07
1.51214e-07
-2.34379e-07
-5.91424e-08
-2.20534e-07
-1.38931e-07
-2.01034e-07
-1.57791e-07
-1.5126e-07
-1.89797e-07
-9.78604e-08
-1.81432e-07
-7.01377e-08
-1.3991e-07
-3.85892e-08
-1.37378e-07
-1.28525e-07
-5.35386e-09
-1.59688e-09
-2.29619e-08
3.67649e-08
-1.87324e-07
8.56198e-08
-2.24345e-07
1.23266e-07
-1.68155e-07
1.56232e-07
-1.41023e-07
1.72054e-07
-5.40647e-08
1.64799e-07
5.4036e-08
1.47983e-07
1.0654e-07
1.15419e-07
1.58691e-07
1.0378e-07
9.56262e-08
7.36635e-08
1.02297e-07
7.2391e-08
8.72252e-08
9.54897e-08
-1.9319e-08
6.41039e-08
1.65876e-07
6.32905e-08
5.35954e-08
5.19383e-08
4.3003e-08
-2.3445e-08
1.96814e-07
-1.14378e-07
1.86872e-07
-1.9311e-07
2.31462e-07
-2.30019e-07
2.78015e-07
-2.16105e-07
2.69724e-07
-1.71129e-07
1.06238e-07
-1.45575e-07
-8.46965e-08
-1.42507e-07
-1.42e-07
-1.39463e-07
-1.60835e-07
-1.16842e-07
-2.12418e-07
-8.2902e-08
-2.15372e-07
-4.91023e-08
-1.7371e-07
-2.8649e-08
-1.57832e-07
-1.46373e-07
-1.08007e-08
-2.17575e-09
-2.07861e-08
3.64034e-08
-2.25903e-07
8.55741e-08
-2.73516e-07
1.23531e-07
-2.06113e-07
1.57062e-07
-1.74554e-07
1.73293e-07
-7.0295e-08
1.6605e-07
6.12785e-08
1.48468e-07
1.24122e-07
1.14984e-07
1.92176e-07
1.04333e-07
1.06277e-07
6.59738e-08
1.40656e-07
7.40875e-08
7.91115e-08
8.6442e-08
-3.16737e-08
6.91246e-08
1.83193e-07
8.95519e-08
3.31681e-08
7.79019e-08
5.4653e-08
1.6655e-08
2.5806e-07
-6.33472e-08
2.66874e-07
-1.25329e-07
2.93443e-07
-1.37595e-07
2.90281e-07
-1.18141e-07
2.5027e-07
-7.68034e-08
6.48998e-08
-4.87636e-08
-1.12736e-07
-4.56177e-08
-1.45146e-07
-3.39751e-08
-1.72478e-07
-2.22201e-08
-2.24174e-07
-1.59392e-08
-2.21653e-07
-7.73531e-09
-1.81914e-07
-7.76675e-09
-1.578e-07
-1.45308e-07
-8.83241e-09
-2.81923e-09
-1.79669e-08
3.60093e-08
-2.64732e-07
8.55543e-08
-3.23061e-07
1.23889e-07
-2.44447e-07
1.58094e-07
-2.08759e-07
1.74821e-07
-8.70223e-08
1.6769e-07
6.84092e-08
1.48919e-07
1.42893e-07
1.15423e-07
2.25672e-07
1.04623e-07
1.17076e-07
6.36697e-08
1.8161e-07
7.29339e-08
6.98473e-08
5.32825e-08
-1.20225e-08
5.66541e-08
1.79822e-07
9.91124e-08
-9.29017e-09
7.68595e-08
7.69059e-08
3.74378e-08
2.97482e-07
-8.03226e-09
3.12344e-07
-4.29107e-08
3.28322e-07
-4.16015e-08
2.88972e-07
-8.45649e-09
2.17125e-07
3.45173e-08
2.1926e-08
6.16563e-08
-1.39875e-07
7.83288e-08
-1.61818e-07
8.11199e-08
-1.75269e-07
6.29739e-08
-2.06028e-07
3.71633e-08
-1.95842e-07
2.16608e-08
-1.66412e-07
4.10927e-09
-1.40249e-07
-1.28852e-07
-1.23466e-08
-3.58022e-09
-1.43867e-08
3.55367e-08
-3.03848e-07
8.55202e-08
-3.73044e-07
1.24299e-07
-2.83226e-07
1.59298e-07
-2.43758e-07
1.76624e-07
-1.04348e-07
1.69675e-07
7.53583e-08
1.49249e-07
1.63318e-07
1.16806e-07
2.58115e-07
1.04668e-07
1.29213e-07
6.76471e-08
2.18631e-07
7.47426e-08
6.27518e-08
2.29457e-08
3.97743e-08
3.04293e-08
1.72338e-07
7.34804e-08
-5.23413e-08
5.24876e-08
9.78987e-08
3.95827e-08
3.10387e-07
4.91808e-08
3.02746e-07
7.44453e-08
3.03057e-07
8.08946e-08
2.82522e-07
1.1346e-07
1.8456e-07
1.44648e-07
-9.26187e-09
1.66845e-07
-1.62072e-07
1.81422e-07
-1.76395e-07
1.60175e-07
-1.54022e-07
1.24272e-07
-1.70126e-07
7.89844e-08
-1.50554e-07
3.85746e-08
-1.26002e-07
9.52695e-09
-1.11201e-07
-1.07328e-07
-1.19976e-08
-4.47082e-09
-9.91593e-09
3.49767e-08
-3.43296e-07
8.54638e-08
-4.23532e-07
1.2476e-07
-3.22522e-07
1.60673e-07
-2.79671e-07
1.78725e-07
-1.22399e-07
1.71945e-07
8.21383e-08
1.49517e-07
1.85745e-07
1.18932e-07
2.887e-07
1.02633e-07
1.45513e-07
7.6898e-08
2.44366e-07
8.42059e-08
5.5444e-08
1.95698e-08
1.0441e-07
1.12928e-08
1.80615e-07
3.12427e-08
-7.22913e-08
3.96421e-08
8.94993e-08
6.16773e-08
2.88352e-07
8.09348e-08
2.83489e-07
1.40116e-07
2.43876e-07
1.697e-07
2.52939e-07
2.01612e-07
1.52648e-07
2.1685e-07
-2.45e-08
2.22321e-07
-1.67543e-07
2.24249e-07
-1.78324e-07
2.00071e-07
-1.29844e-07
1.57381e-07
-1.27436e-07
1.09226e-07
-1.024e-07
5.81596e-08
-7.49353e-08
1.97651e-08
-7.2807e-08
-8.24324e-08
-5.13024e-09
-5.49588e-09
-4.42007e-09
3.43253e-08
-3.83117e-07
8.53778e-08
-4.74584e-07
1.25275e-07
-3.62419e-07
1.6222e-07
-3.16617e-07
1.81149e-07
-1.41328e-07
1.74433e-07
8.88539e-08
1.50041e-07
2.10137e-07
1.20573e-07
3.18169e-07
9.81855e-08
1.679e-07
8.56157e-08
2.56935e-07
9.02247e-08
5.0835e-08
2.84649e-08
1.6617e-07
1.26803e-08
1.964e-07
1.98114e-08
-7.94224e-08
3.95959e-08
6.97147e-08
7.43098e-08
2.53638e-07
7.89418e-08
2.78857e-07
1.23099e-07
1.99718e-07
1.71143e-07
2.04895e-07
2.17551e-07
1.0624e-07
2.2822e-07
-3.51689e-08
2.18555e-07
-1.57878e-07
2.0395e-07
-1.63719e-07
1.80511e-07
-1.06405e-07
1.45071e-07
-9.19953e-08
1.04484e-07
-6.18123e-08
5.89163e-08
-2.93682e-08
2.26952e-08
-3.65859e-08
-5.85185e-08
-1.21877e-09
-6.65875e-09
2.23867e-09
3.35783e-08
-4.23354e-07
8.5254e-08
-5.2626e-07
1.25844e-07
-4.03009e-07
1.63942e-07
-3.54715e-07
1.83901e-07
-1.61287e-07
1.77175e-07
9.55798e-08
1.50949e-07
2.36363e-07
1.21043e-07
3.48075e-07
9.39391e-08
1.95004e-07
9.02706e-08
2.60604e-07
8.41001e-08
5.70056e-08
3.75411e-08
2.12729e-07
3.00992e-08
2.03842e-07
2.65354e-08
-7.58587e-08
3.18483e-08
6.44018e-08
6.22554e-08
2.23231e-07
7.64402e-08
2.64672e-07
9.31609e-08
1.82998e-07
1.31332e-07
1.66725e-07
1.68548e-07
6.90228e-08
1.84295e-07
-5.09162e-08
1.84354e-07
-1.57937e-07
1.68446e-07
-1.47811e-07
1.47965e-07
-8.59237e-08
1.11021e-07
-5.5052e-08
7.56564e-08
-2.64475e-08
4.80435e-08
-1.75534e-09
2.24396e-08
-1.09821e-08
-3.75364e-08
1.45728e-09
-7.96443e-09
1.02031e-08
3.27313e-08
-4.6405e-07
8.50806e-08
-5.78609e-07
1.26466e-07
-4.44394e-07
1.65839e-07
-3.94089e-07
1.86999e-07
-1.82446e-07
1.8024e-07
1.02338e-07
1.52078e-07
2.64525e-07
1.20639e-07
3.79514e-07
9.23128e-08
2.23331e-07
9.06887e-08
2.62228e-07
7.4506e-08
7.31883e-08
4.54215e-08
2.41813e-07
4.78497e-08
2.01414e-07
4.46193e-08
-7.26284e-08
3.74269e-08
7.15941e-08
4.7456e-08
2.13202e-07
8.15191e-08
2.30609e-07
9.66693e-08
1.67848e-07
1.23641e-07
1.39753e-07
1.48659e-07
4.40046e-08
1.76632e-07
-7.88899e-08
1.74978e-07
-1.56283e-07
1.42701e-07
-1.15534e-07
1.23153e-07
-6.63759e-08
8.33732e-08
-1.52719e-08
5.15162e-08
5.4094e-09
3.97738e-08
9.98694e-09
1.75261e-08
1.12655e-08
-2.82908e-08
8.28042e-09
-9.41816e-09
1.96212e-08
3.17793e-08
-5.05247e-07
8.48484e-08
-6.31678e-07
1.2714e-07
-4.86686e-07
1.67913e-07
-4.34862e-07
1.90467e-07
-2.05e-07
1.83652e-07
1.09154e-07
1.53173e-07
2.95004e-07
1.20454e-07
4.12233e-07
9.08542e-08
2.52931e-07
9.06848e-08
2.62397e-07
7.32998e-08
9.05734e-08
5.33606e-08
2.61752e-07
5.92625e-08
1.95512e-07
5.70043e-08
-7.03702e-08
5.56338e-08
7.29646e-08
4.66608e-08
2.22175e-07
8.19961e-08
1.95273e-07
1.12456e-07
1.37388e-07
1.3501e-07
1.17199e-07
1.55648e-07
2.33671e-08
1.72014e-07
-9.52559e-08
1.53039e-07
-1.37308e-07
1.15707e-07
-7.82025e-08
9.78578e-08
-4.85263e-08
8.69431e-08
-4.35731e-09
6.32911e-08
2.90613e-08
2.65906e-08
4.66874e-08
1.04733e-08
2.73828e-08
-3.22842e-08
1.44666e-08
-1.10259e-08
3.06472e-08
3.07162e-08
-5.46989e-07
8.4564e-08
-6.85526e-07
1.27865e-07
-5.29987e-07
1.70167e-07
-4.77164e-07
1.94338e-07
-2.29171e-07
1.87361e-07
1.16131e-07
1.54421e-07
3.27943e-07
1.20415e-07
4.46239e-07
8.82056e-08
2.8514e-07
9.09259e-08
2.59677e-07
7.81574e-08
1.03342e-07
5.15447e-08
2.88365e-07
5.79764e-08
1.8908e-07
4.65665e-08
-5.89604e-08
7.43146e-08
4.52165e-08
7.90879e-08
2.17402e-07
8.30209e-08
1.9134e-07
1.08027e-07
1.12382e-07
1.3264e-07
9.25859e-08
1.43537e-07
1.24701e-08
1.31879e-07
-8.35984e-08
1.162e-07
-1.21629e-07
1.07757e-07
-6.976e-08
9.35819e-08
-3.43511e-08
7.07295e-08
1.84951e-08
2.41013e-08
7.56894e-08
-1.96852e-08
9.04738e-08
-4.93992e-09
1.26374e-08
-4.8364e-08
1.11399e-08
-1.27944e-08
4.34416e-08
2.95355e-08
-5.89319e-07
8.42394e-08
-7.4023e-07
1.28637e-07
-5.74384e-07
1.72605e-07
-5.21132e-07
1.98618e-07
-2.55184e-07
1.91405e-07
1.23344e-07
1.5598e-07
3.63369e-07
1.20522e-07
4.81697e-07
8.28864e-08
3.22775e-07
9.31249e-08
2.49438e-07
9.19774e-08
1.04489e-07
6.20776e-08
3.18265e-07
5.86165e-08
1.92541e-07
4.62352e-08
-4.65791e-08
8.78527e-08
3.599e-09
9.509e-08
2.10164e-07
8.52755e-08
2.01155e-07
9.99217e-08
9.7736e-08
1.00526e-07
9.19813e-08
8.67119e-08
2.62845e-08
7.26599e-08
-6.95465e-08
5.18843e-08
-1.00853e-07
1.4951e-08
-3.28268e-08
-2.83768e-08
8.97663e-09
-4.96667e-08
3.97848e-08
-5.46841e-08
8.07068e-08
-3.72876e-08
7.30772e-08
-1.39857e-08
-1.06646e-08
-5.00819e-08
-1.22679e-08
-1.4731e-08
5.81726e-08
2.82292e-08
-6.3228e-07
8.38857e-08
-7.95886e-07
1.2945e-07
-6.19949e-07
1.75226e-07
-5.66908e-07
2.0333e-07
-2.83287e-07
1.95856e-07
1.30818e-07
1.58133e-07
4.01092e-07
1.19619e-07
5.20211e-07
7.77693e-08
3.64625e-07
9.75057e-08
2.29702e-07
9.42241e-08
1.07771e-07
8.65361e-09
4.03835e-07
5.4793e-09
1.95715e-07
4.69781e-08
-8.80779e-08
1.13059e-07
-6.24822e-08
1.41065e-07
1.82158e-07
1.15357e-07
2.26862e-07
8.98225e-08
1.23271e-07
7.6208e-08
1.05596e-07
9.32611e-08
9.23134e-09
9.72473e-08
-7.35328e-08
6.84245e-08
-7.20306e-08
3.94706e-08
-3.87297e-09
7.54642e-09
4.09007e-08
-1.68682e-08
6.41994e-08
-2.06495e-08
8.4488e-08
-8.90847e-09
6.13361e-08
-2.02423e-08
6.69164e-10
-2.56834e-08
-4.46409e-08
-1.68439e-08
7.50166e-08
2.67888e-08
-6.75912e-07
8.35108e-08
-8.52608e-07
1.30302e-07
-6.6674e-07
1.78008e-07
-6.14614e-07
2.08529e-07
-3.13808e-07
2.00894e-07
1.38453e-07
1.6048e-07
4.41506e-07
1.17847e-07
5.62844e-07
7.59537e-08
4.06518e-07
1.03076e-07
2.0258e-07
9.99536e-08
1.10893e-07
5.82513e-08
4.45537e-07
5.8006e-08
1.95961e-07
6.90299e-08
-9.91019e-08
1.23811e-07
-1.17263e-07
1.28688e-07
1.77281e-07
8.79531e-08
2.67598e-07
5.219e-08
1.59034e-07
6.88401e-08
8.89458e-08
1.02597e-07
-2.4526e-08
7.2619e-08
-4.35544e-08
3.36325e-08
-3.30441e-08
3.51081e-08
-5.34859e-09
5.17502e-08
2.42585e-08
5.12867e-08
6.46628e-08
5.34724e-08
8.23021e-08
5.4792e-08
6.00165e-08
2.9122e-08
2.6339e-08
1.97011e-08
-1.62626e-08
-1.91424e-08
9.41589e-08
2.52044e-08
-7.20259e-07
8.31191e-08
-9.10523e-07
1.31188e-07
-7.14809e-07
1.8089e-07
-6.64317e-07
2.14371e-07
-3.47289e-07
2.06477e-07
1.46347e-07
1.62633e-07
4.8535e-07
1.15135e-07
6.10342e-07
7.21731e-08
4.4948e-07
1.08481e-07
1.66272e-07
7.73509e-08
1.42023e-07
-1.84214e-08
5.4131e-07
-2.00956e-08
1.97635e-07
3.08995e-08
-1.50097e-07
9.44208e-08
-1.80785e-07
6.31899e-08
2.08512e-07
6.47928e-08
2.65995e-07
8.16165e-08
1.4221e-07
7.10049e-08
9.95573e-08
3.45353e-08
1.19436e-08
-4.32797e-08
3.42606e-08
-6.78381e-08
-8.48569e-09
-3.72916e-08
-3.58952e-08
1.56858e-08
-2.87189e-08
5.09652e-08
2.93834e-08
6.95967e-08
6.36705e-08
7.9558e-08
5.00551e-08
5.9314e-08
4.65829e-08
5.83369e-08
2.06782e-08
-2.16362e-08
1.15795e-07
2.34637e-08
-7.65359e-07
8.27103e-08
-9.6977e-07
1.32094e-07
-7.64193e-07
1.83756e-07
-7.15979e-07
2.20938e-07
-3.84471e-07
2.12382e-07
1.54903e-07
1.62628e-07
5.35103e-07
1.22463e-07
6.50506e-07
6.82305e-08
5.03713e-07
1.05984e-07
1.28519e-07
7.92742e-08
1.68732e-07
-3.2392e-08
6.52976e-07
-2.1979e-08
1.87222e-07
3.3465e-08
-2.05541e-07
1.03687e-07
-2.51007e-07
9.6596e-08
2.15603e-07
7.67174e-08
2.85873e-07
6.41238e-08
1.54804e-07
4.13613e-08
1.2232e-07
-3.21904e-08
8.54953e-08
-1.31024e-07
1.33094e-07
-1.44322e-07
4.81225e-09
-1.11711e-07
-6.85064e-08
-6.65944e-08
-7.38355e-08
-2.82951e-08
-8.91592e-09
-2.2034e-10
3.55956e-08
2.02548e-08
2.95799e-08
2.38403e-08
4.29973e-08
6.94847e-08
1.26924e-08
-2.43313e-08
1.40126e-07
2.15483e-08
-8.11239e-07
8.22751e-08
-1.0305e-06
1.32942e-07
-8.14859e-07
1.86371e-07
-7.69408e-07
2.2748e-07
-4.2558e-07
2.15422e-07
1.66962e-07
1.67184e-07
5.83341e-07
9.77324e-08
7.19958e-07
4.17343e-08
5.59711e-07
1.23624e-07
4.66289e-08
1.00159e-07
1.92198e-07
1.50669e-08
7.38068e-07
1.11939e-09
2.01169e-07
2.29236e-08
-2.27345e-07
1.11285e-07
-3.39368e-07
1.19824e-07
2.07064e-07
7.40686e-08
3.31629e-07
-9.2601e-09
2.38132e-07
4.30312e-09
1.08757e-07
3.30219e-08
5.67765e-08
-7.45119e-08
2.40628e-07
-1.40555e-07
7.08555e-08
-1.51214e-07
-5.78477e-08
-1.32454e-07
-9.25953e-08
-1.0127e-07
-4.01006e-08
-7.54407e-08
9.7667e-09
-4.35253e-08
-2.33565e-09
-1.75545e-08
1.70265e-08
5.13181e-08
6.12023e-10
-2.72847e-08
1.67411e-07
1.94144e-08
-8.57938e-07
8.17698e-08
-1.09285e-06
1.33423e-07
-8.66513e-07
1.87875e-07
-8.2386e-07
2.28526e-07
-4.66232e-07
2.08499e-07
1.86989e-07
1.50271e-07
6.41569e-07
1.48967e-07
7.21263e-07
4.84611e-08
6.60217e-07
9.96728e-08
-4.58284e-09
1.56279e-07
1.35591e-07
4.28951e-08
8.51452e-07
-2.75412e-08
2.71606e-07
-1.31916e-08
-2.41695e-07
1.24533e-07
-4.77093e-07
1.58931e-07
1.72667e-07
6.32763e-08
4.27283e-07
-1.71643e-08
3.18573e-07
-4.21343e-08
1.33727e-07
4.47845e-08
-3.01423e-08
4.43366e-08
2.41076e-07
-1.94391e-08
1.34631e-07
-5.72101e-08
-2.00768e-08
-8.80657e-08
-6.17398e-08
-9.05634e-08
-3.76029e-08
-7.17507e-08
-9.04603e-09
-5.826e-08
-1.58265e-08
-3.73768e-08
-3.85671e-09
1.81715e-08
-4.2302e-09
-3.00399e-08
1.97451e-07
1.69077e-08
-9.04885e-07
8.09713e-08
-1.15692e-06
1.32526e-07
-9.18067e-07
1.83727e-07
-8.75061e-07
2.10803e-07
-4.93308e-07
1.65429e-07
2.32363e-07
1.46258e-07
6.6074e-07
8.52421e-08
7.82279e-07
3.00283e-08
7.15431e-07
1.23391e-07
-9.79458e-08
1.12549e-07
1.46434e-07
1.64677e-08
9.47533e-07
-2.37769e-08
3.1185e-07
-1.85905e-08
-2.46881e-07
5.3402e-08
-5.49086e-07
4.88906e-08
1.77178e-07
-1.96305e-08
4.95804e-07
6.16086e-08
2.37334e-07
1.70861e-08
1.78249e-07
2.05389e-08
-3.3595e-08
7.78268e-08
1.83788e-07
3.51514e-08
1.77307e-07
7.38233e-09
7.69224e-09
-1.70299e-08
-3.73276e-08
-2.92756e-08
-2.53573e-08
-2.35517e-08
-1.47699e-08
-2.26446e-08
-1.67337e-08
-2.15059e-08
-4.99539e-09
4.56432e-09
-7.89882e-09
-3.5192e-08
2.32643e-07
1.35256e-08
-9.53603e-07
7.8945e-08
-1.22233e-06
1.26872e-07
-9.65994e-07
1.61568e-07
-9.09757e-07
1.55473e-07
-4.87213e-07
8.69857e-08
3.0085e-07
2.94185e-08
7.18307e-07
1.19017e-08
7.99796e-07
1.4795e-08
7.12538e-07
-1.07979e-07
2.48282e-08
-1.30552e-07
1.69007e-07
-6.53738e-08
8.82354e-07
-3.2169e-08
2.78646e-07
-3.32488e-09
-2.75726e-07
-1.59208e-08
-5.3649e-07
-6.91471e-08
2.30404e-07
-9.72218e-08
5.23879e-07
3.09536e-08
1.09159e-07
2.71173e-08
1.82085e-07
6.07439e-09
-1.25521e-08
6.79053e-08
1.21957e-07
6.087e-08
1.84342e-07
1.99731e-08
4.85891e-08
-5.82118e-09
-1.15334e-08
3.52509e-10
-3.1531e-08
8.08747e-09
-2.25049e-08
5.61011e-09
-1.42563e-08
-4.77496e-09
5.38966e-09
1.61483e-08
-1.6359e-08
-2.98738e-08
2.62517e-07
7.55077e-09
-9.91027e-07
7.24298e-08
-1.28721e-06
1.07327e-07
-1.00089e-06
1.10447e-07
-9.12877e-07
8.35423e-08
-4.60308e-07
4.82339e-09
3.79569e-07
7.18535e-08
6.51277e-07
1.07115e-07
7.64534e-07
-1.48594e-07
9.68247e-07
-2.24002e-07
1.00236e-07
-1.18732e-07
6.37372e-08
-1.9634e-07
9.59962e-07
-1.13798e-07
1.96103e-07
3.21908e-08
-4.21714e-07
-3.37332e-08
-4.70566e-07
-8.50644e-08
2.81735e-07
-1.26174e-07
5.64989e-07
-1.77679e-08
7.5224e-10
5.12323e-08
1.13085e-07
-1.58136e-08
5.44938e-08
1.78396e-08
8.83034e-08
2.83225e-08
1.73859e-07
-2.1493e-08
9.84046e-08
-2.79169e-08
-5.10948e-09
-7.09169e-09
-5.23562e-08
-4.7597e-09
-2.48369e-08
-4.57026e-09
-1.44458e-08
-1.11881e-08
1.20074e-08
2.70401e-08
-2.20799e-08
-5.57657e-08
3.18283e-07
-4.11535e-09
-1.04268e-06
5.27146e-08
-1.34404e-06
6.31449e-08
-1.01132e-06
5.68593e-08
-9.06592e-07
1.14112e-08
-4.1486e-07
-3.12877e-07
7.03857e-07
-2.58229e-07
5.96629e-07
-6.9455e-08
5.7576e-07
-1.73096e-07
1.07189e-06
-2.74068e-07
2.01209e-07
-2.18602e-07
8.27096e-09
-3.06009e-07
1.04737e-06
-2.3424e-07
1.24334e-07
-5.54747e-08
-6.0048e-07
-7.20032e-08
-4.54037e-07
-5.28518e-09
2.15017e-07
1.75172e-08
5.42186e-07
2.87168e-08
-1.04473e-08
2.49058e-08
1.16896e-07
-8.07295e-08
1.60129e-07
-7.28107e-08
8.03846e-08
-3.25781e-08
1.33626e-07
-5.76506e-08
1.23477e-07
-5.31363e-08
-9.62372e-09
-3.78906e-08
-6.7602e-08
-3.7433e-08
-2.52945e-08
-2.46599e-08
-2.72189e-08
-1.68993e-08
4.24681e-09
2.1062e-08
-1.09212e-08
-1.77457e-09
3.20057e-07
-2.88133e-08
-1.01564e-06
6.01088e-09
-1.37887e-06
5.32856e-09
-1.01064e-06
1.56115e-07
-1.05738e-06
1.59604e-07
-4.18349e-07
-3.68337e-07
1.2318e-06
-6.12388e-07
8.4068e-07
-3.08658e-07
2.7203e-07
-5.07509e-08
8.1398e-07
-3.1992e-07
4.70378e-07
-2.79662e-07
-3.1987e-08
-1.91798e-07
9.59506e-07
-2.20968e-07
1.53504e-07
-1.20179e-07
-7.01269e-07
-1.29327e-07
-4.44889e-07
-3.75032e-08
1.23194e-07
2.40333e-08
4.8065e-07
-7.4686e-08
8.82719e-08
-1.47696e-07
1.89906e-07
-1.96842e-07
2.09276e-07
-1.12058e-07
-4.39972e-09
-1.84462e-08
4.00144e-08
-5.46806e-08
1.59711e-07
-7.13909e-08
7.08659e-09
-5.95926e-08
-7.94003e-08
-4.36697e-08
-4.12175e-08
-3.19859e-08
-3.89027e-08
-1.77981e-08
-9.94102e-09
5.34845e-09
-2.08455e-09
-8.32077e-08
4.03265e-07
-7.25507e-08
-1.0263e-06
-7.19145e-08
-1.3795e-06
8.55404e-08
-1.16809e-06
4.47805e-07
-1.41964e-06
-2.68937e-07
2.98394e-07
-8.13559e-07
1.77642e-06
-6.82403e-07
7.09524e-07
-5.06733e-07
9.63608e-08
-1.73379e-07
4.80626e-07
-3.79507e-07
6.76506e-07
-3.03639e-07
-1.07856e-07
-4.76434e-08
7.03511e-07
-1.43928e-07
2.49788e-07
-2.26115e-07
-6.19082e-07
-2.78303e-07
-3.92701e-07
-2.03365e-07
4.82564e-08
-1.56238e-07
4.33523e-07
-2.3305e-07
1.65084e-07
-2.28e-07
1.84855e-07
-1.85326e-07
1.66602e-07
-1.05252e-07
-8.44736e-08
-1.10776e-08
-5.41601e-08
-1.34008e-08
1.62035e-07
-3.90789e-08
3.27647e-08
-3.46854e-08
-8.37939e-08
-2.48133e-08
-5.10895e-08
-2.59733e-08
-3.77427e-08
-1.57454e-08
-2.0169e-08
-6.04158e-09
-4.35541e-09
-3.80902e-09
4.07074e-07
-1.28124e-07
-9.01981e-07
-1.06886e-07
-1.40074e-06
6.66467e-07
-1.94145e-06
3.38606e-07
-1.09178e-06
-1.31182e-06
1.94882e-06
-9.3682e-07
1.40142e-06
-6.97553e-07
4.70258e-07
-6.69665e-07
6.84724e-08
-3.62923e-07
1.73884e-07
-4.44456e-07
7.58039e-07
-4.00176e-07
-1.52136e-07
-8.35334e-08
3.86869e-07
-1.2357e-07
2.89824e-07
-3.23044e-07
-4.19608e-07
-4.27509e-07
-2.88235e-07
-3.41432e-07
-3.78204e-08
-2.64268e-07
3.56358e-07
-2.6117e-07
1.61986e-07
-1.99898e-07
1.23583e-07
-1.03234e-07
6.99384e-08
-1.15615e-07
-7.20932e-08
-1.08038e-07
-6.1737e-08
2.13864e-10
5.37829e-08
3.09035e-08
2.07504e-09
3.25229e-10
-5.32156e-08
-1.46365e-08
-3.61278e-08
-2.1885e-08
-3.04941e-08
-2.09054e-08
-2.11486e-08
-1.4756e-08
-1.21909e-08
-1.27851e-07
5.34924e-07
-1.27405e-07
-9.02426e-07
4.88522e-07
-2.01667e-06
7.12052e-07
-2.16498e-06
2.75197e-07
-6.54931e-07
-6.45328e-07
2.86934e-06
-8.45917e-07
1.602e-06
-8.64809e-07
4.89149e-07
-7.95553e-07
-7.84161e-10
-5.93397e-07
-2.82722e-08
-5.47938e-07
7.1258e-07
-5.13543e-07
-1.8653e-07
-2.30347e-07
1.03672e-07
-1.49391e-07
2.08868e-07
-3.29751e-07
-2.39248e-07
-4.54243e-07
-1.63743e-07
-3.97631e-07
-9.44324e-08
-2.54452e-07
2.13179e-07
-1.88617e-07
9.61509e-08
-9.59964e-08
3.09629e-08
2.43771e-08
-5.0435e-08
-3.28543e-08
-1.48618e-08
-1.10244e-07
1.56525e-08
3.89415e-09
-6.0355e-08
6.11149e-08
-5.51457e-08
1.59754e-08
-8.07611e-09
-1.76263e-08
-2.52617e-09
-3.246e-08
-1.56605e-08
-3.70253e-08
-1.65837e-08
-3.18713e-08
-1.99104e-08
6.66135e-08
4.68311e-07
4.67394e-07
-1.30321e-06
2.03878e-06
-3.58805e-06
1.05208e-06
-1.17828e-06
7.45636e-07
-3.48485e-07
2.98405e-07
3.31658e-06
-6.28709e-07
2.52912e-06
-8.59689e-07
7.20129e-07
-8.5812e-07
-2.35376e-09
-6.8336e-07
-2.03032e-07
-6.28657e-07
6.57877e-07
-5.9078e-07
-2.24407e-07
-3.38228e-07
-1.4888e-07
-1.82822e-07
5.3463e-08
-3.09151e-07
-1.12919e-07
-4.51636e-07
-2.12574e-08
-4.63516e-07
-8.25529e-08
-3.01942e-07
5.16051e-08
-1.27036e-07
-7.87552e-08
3.00819e-08
-1.26156e-07
1.8422e-07
-2.04574e-07
1.63845e-07
5.51325e-09
3.42184e-07
-1.62687e-07
4.26818e-07
-1.44989e-07
1.59015e-07
2.12657e-07
4.72568e-08
1.03681e-07
1.84583e-08
2.62723e-08
-8.10819e-09
1.09062e-08
-1.27338e-08
-1.19606e-08
-1.05212e-08
-3.40871e-08
1.16841e-08
-2.13721e-08
4.41477e-08
-3.24637e-08
7.8927e-08
-3.47793e-08
9.5446e-08
-1.6519e-08
1.32998e-07
-3.75521e-08
1.94247e-07
-6.12495e-08
2.43266e-07
-4.90188e-08
2.34504e-07
8.76226e-09
1.50163e-07
8.43411e-08
5.41199e-08
9.60429e-08
2.24231e-08
3.16968e-08
1.93331e-08
3.09005e-09
3.79456e-08
-1.86126e-08
6.55547e-08
-2.76091e-08
7.62647e-08
-1.071e-08
6.53712e-08
1.08935e-08
4.50051e-08
2.03662e-08
3.15679e-08
1.34372e-08
6.95073e-09
2.46171e-08
-1.35706e-08
2.05213e-08
-4.0692e-08
2.71214e-08
-6.74964e-08
2.68043e-08
-9.46891e-08
2.71927e-08
-1.13451e-07
1.87623e-08
-1.17279e-07
3.828e-09
-1.02483e-07
-1.4796e-08
-8.19172e-08
-2.05662e-08
-4.98391e-08
-3.20781e-08
-1.70908e-08
-3.27483e-08
-1.70908e-08
3.72497e-08
-5.96788e-08
7.93828e-08
-7.45969e-08
1.27035e-07
-8.24313e-08
1.64737e-07
-5.42209e-08
2.15563e-07
-8.83785e-08
2.65182e-07
-1.10868e-07
3.04446e-07
-8.8283e-08
3.25462e-07
-1.22535e-08
2.78761e-07
1.31042e-07
1.8118e-07
1.93624e-07
1.07016e-07
1.0586e-07
8.43631e-08
2.5743e-08
8.6908e-08
-2.11576e-08
6.79411e-08
-8.64219e-09
5.47923e-08
2.4388e-09
3.17545e-08
3.39313e-08
-1.30573e-08
6.51779e-08
-2.67636e-08
2.71434e-08
-6.25158e-08
6.03693e-08
-8.51764e-08
4.31819e-08
-1.11733e-07
5.36784e-08
-1.3847e-07
5.35412e-08
-1.57487e-07
4.62096e-08
-1.67321e-07
2.85962e-08
-1.57331e-07
-6.16226e-09
-1.28034e-07
-4.40929e-08
-9.35793e-08
-5.50208e-08
-4.66173e-08
-7.90401e-08
-7.29502e-09
-7.20705e-08
-2.43859e-08
3.69444e-08
-9.53106e-08
6.43511e-08
-1.02004e-07
9.00447e-08
-1.08125e-07
1.54985e-07
-1.19161e-07
2.10277e-07
-1.43671e-07
2.60626e-07
-1.61217e-07
3.02166e-07
-1.29823e-07
3.29007e-07
-3.90947e-08
3.22156e-07
1.37892e-07
2.61802e-07
2.53979e-07
1.77346e-07
1.90317e-07
1.2072e-07
8.23688e-08
8.05776e-08
1.89846e-08
2.85054e-08
4.343e-08
9.52005e-09
2.14241e-08
-1.09452e-08
5.43966e-08
-5.65616e-08
1.10794e-07
-5.65092e-08
2.7091e-08
-8.8752e-08
9.26121e-08
-1.08194e-07
6.26241e-08
-1.27123e-07
7.26075e-08
-1.51342e-07
7.77596e-08
-1.6452e-07
5.93881e-08
-1.70767e-07
3.48422e-08
-1.56978e-07
-1.99505e-08
-1.24824e-07
-7.62477e-08
-8.82494e-08
-9.15951e-08
-3.96247e-08
-1.27665e-07
-1.13728e-09
-1.10558e-07
-2.55231e-08
2.71201e-08
-1.27785e-07
5.5853e-08
-1.30737e-07
8.44974e-08
-1.3677e-07
1.41583e-07
-1.76247e-07
1.86431e-07
-1.88519e-07
1.99036e-07
-1.73822e-07
2.18262e-07
-1.4905e-07
2.5365e-07
-7.44822e-08
2.8031e-07
1.11232e-07
2.72658e-07
2.61631e-07
2.21035e-07
2.4194e-07
1.46676e-07
1.56728e-07
7.21586e-08
9.3502e-08
-2.34841e-09
1.17937e-07
-2.2543e-08
4.16187e-08
-3.99019e-08
7.17555e-08
-8.24741e-08
1.53366e-07
-6.81542e-08
1.2771e-08
-9.0793e-08
1.15251e-07
-1.13735e-07
8.55655e-08
-1.2801e-07
8.68828e-08
-1.526e-07
1.0235e-07
-1.64366e-07
7.11533e-08
-1.7029e-07
4.07663e-08
-1.55903e-07
-3.43372e-08
-1.23159e-07
-1.08991e-07
-8.62754e-08
-1.28479e-07
-3.74107e-08
-1.7653e-07
7.75541e-10
-1.48744e-07
-2.47476e-08
9.17768e-09
-1.47763e-07
2.9022e-08
-1.50581e-07
6.08998e-08
-1.68647e-07
9.78579e-08
-2.13205e-07
1.18527e-07
-2.09188e-07
1.18441e-07
-1.73735e-07
1.27027e-07
-1.57636e-07
1.56809e-07
-1.04264e-07
2.09222e-07
5.88188e-08
2.3001e-07
2.40844e-07
2.02037e-07
2.69912e-07
1.29497e-07
2.29268e-07
4.24122e-08
1.80587e-07
-3.44262e-08
1.94776e-07
-5.0062e-08
5.72545e-08
-5.68659e-08
7.85594e-08
-9.6006e-08
1.92507e-07
-7.37327e-08
-9.50235e-09
-8.35452e-08
1.25063e-07
-1.15757e-07
1.17777e-07
-1.27398e-07
9.85238e-08
-1.53075e-07
1.28027e-07
-1.64723e-07
8.28015e-08
-1.70893e-07
4.69362e-08
-1.56275e-07
-4.89556e-08
-1.23069e-07
-1.42196e-07
-8.59321e-08
-1.65617e-07
-3.67988e-08
-2.25663e-07
1.52577e-09
-1.87069e-07
-2.32218e-08
-1.27684e-08
-1.43827e-07
-1.38644e-08
-1.49485e-07
-3.96416e-09
-1.78548e-07
-1.33096e-09
-2.15838e-07
9.64024e-09
-2.2016e-07
1.80941e-08
-1.82189e-07
2.14147e-08
-1.60957e-07
5.99956e-08
-1.42845e-07
1.0725e-07
1.1564e-08
1.33579e-07
2.14515e-07
1.29976e-07
2.73515e-07
7.52507e-08
2.83994e-07
-1.16337e-09
2.57001e-07
-6.17451e-08
2.55357e-07
-7.63654e-08
7.18748e-08
-6.27612e-08
6.49552e-08
-8.95738e-08
2.19319e-07
-7.53738e-08
-2.37024e-08
-7.60474e-08
1.25737e-07
-1.16915e-07
1.58645e-07
-1.27547e-07
1.09155e-07
-1.53646e-07
1.54126e-07
-1.65575e-07
9.47303e-08
-1.71997e-07
5.33582e-08
-1.57106e-07
-6.38467e-08
-1.23347e-07
-1.75955e-07
-8.59006e-08
-2.03063e-07
-3.64403e-08
-2.75123e-07
2.09806e-09
-2.25607e-07
-2.11237e-08
-3.04293e-08
-1.25745e-07
-4.76465e-08
-1.32268e-07
-6.38194e-08
-1.62375e-07
-8.91459e-08
-1.90512e-07
-1.04437e-07
-2.04868e-07
-1.02976e-07
-1.83651e-07
-8.58862e-08
-1.78047e-07
-5.36394e-08
-1.75092e-07
-4.74238e-09
-3.73331e-08
3.6268e-08
1.73504e-07
4.66062e-08
2.63177e-07
1.88585e-08
3.11742e-07
-2.43903e-08
3.00249e-07
-6.41949e-08
2.95162e-07
-8.89066e-08
9.65865e-08
-5.23837e-08
2.84323e-08
-5.86779e-08
2.25613e-07
-7.38292e-08
-8.55106e-09
-7.30855e-08
1.24993e-07
-1.17922e-07
2.03481e-07
-1.28716e-07
1.1995e-07
-1.54172e-07
1.79583e-07
-1.66716e-07
1.07274e-07
-1.7336e-07
6.00029e-08
-1.58143e-07
-7.90639e-08
-1.23719e-07
-2.1038e-07
-8.58984e-08
-2.40884e-07
-3.60498e-08
-3.24972e-07
2.73632e-09
-2.64393e-07
-1.83874e-08
-3.46064e-08
-1.03136e-07
-6.17792e-08
-1.05095e-07
-1.03444e-07
-1.2071e-07
-1.44156e-07
-1.498e-07
-1.76679e-07
-1.72345e-07
-1.96768e-07
-1.63562e-07
-1.81539e-07
-1.93275e-07
-1.55848e-07
-2.00783e-07
-1.23293e-07
-6.98878e-08
-8.58634e-08
1.36074e-07
-6.98617e-08
2.47176e-07
-4.00233e-08
2.81903e-07
-2.74701e-08
2.87696e-07
-4.18092e-08
3.09501e-07
-6.83183e-08
1.23096e-07
-2.75143e-08
-1.23716e-08
-2.66893e-08
2.24788e-07
-7.43649e-08
3.91245e-08
-7.5803e-08
1.26431e-07
-1.18882e-07
2.4656e-07
-1.31012e-07
1.3208e-07
-1.54571e-07
2.03142e-07
-1.68085e-07
1.20788e-07
-1.74963e-07
6.68805e-08
-1.5936e-07
-9.46663e-08
-1.2415e-07
-2.4559e-07
-8.58862e-08
-2.79147e-07
-3.5581e-08
-3.75277e-07
3.49251e-09
-3.03467e-07
-1.48949e-08
-2.95063e-08
-7.87598e-08
-6.82367e-08
-6.63649e-08
-1.18136e-07
-7.08113e-08
-1.64067e-07
-1.03868e-07
-2.01811e-07
-1.34601e-07
-2.22083e-07
-1.43291e-07
-2.20294e-07
-1.95063e-07
-2.14508e-07
-2.0657e-07
-2.01227e-07
-8.31686e-08
-1.64777e-07
9.96236e-08
-1.34109e-07
2.16508e-07
-7.25868e-08
2.20381e-07
-4.755e-08
2.62659e-07
-2.58958e-08
2.87847e-07
-2.42753e-08
1.21475e-07
-6.40235e-09
-3.02446e-08
-1.93816e-08
2.37768e-07
-8.14591e-08
1.01202e-07
-8.44241e-08
1.29396e-07
-1.1797e-07
2.80106e-07
-1.34308e-07
1.48418e-07
-1.54934e-07
2.23768e-07
-1.69605e-07
1.35459e-07
-1.76826e-07
7.41008e-08
-1.60758e-07
-1.10734e-07
-1.24638e-07
-2.8171e-07
-8.58563e-08
-3.1793e-07
-3.50253e-08
-4.26108e-07
4.37939e-09
-3.42871e-07
-1.05155e-08
-2.49852e-08
-5.49935e-08
-6.01143e-08
-3.12359e-08
-1.02861e-07
-2.80644e-08
-1.39432e-07
-6.72982e-08
-1.6933e-07
-1.04703e-07
-1.89428e-07
-1.23193e-07
-2.03331e-07
-1.81161e-07
-2.13249e-07
-1.96651e-07
-2.03296e-07
-9.31217e-08
-1.57779e-07
5.41058e-08
-1.13557e-07
1.72286e-07
-6.86935e-08
1.75518e-07
-6.11598e-08
2.55126e-07
-2.26657e-08
2.49353e-07
-6.32119e-09