/*--------------------------------*- C++ -*----------------------------------*\
| =========                 |                                                 |
| \\      /  F ield         | OpenFOAM: The Open Source CFD Toolbox           |
|  \\    /   O peration     | Version:  2.4.0                                 |
|   \\  /    A nd           | Web:      www.OpenFOAM.org                      |
|    \\/     M anipulation  |                                                 |
\*---------------------------------------------------------------------------*/
FoamFile
{
    version     2.0;
    format      ascii;
    class       volScalarField;
    location    "0.096";
    object      alpha.water;
}
// * * * * * * * * * * * * * * * * * * * * * * * * * * * * * * * * * * * * * //

dimensions      [0 0 0 0 0 0 0];

internalField   nonuniform List<scalar> 
3600
(
1
1
1
1
1
1
1
1
1
1
1
1
1
1
1
1
1
1
0.999204
0.990274
0.993356
0.998466
0.996286
0.996286
0.996295
0.998729
0.999983
0.998368
0.979823
0.979225
1
1
1
1
1
1
1
1
1
1
1
1
1
1
1
1
1
1
1
0.990275
0.998856
0.999553
0.998433
0.998291
0.998359
0.999368
0.999984
0.99582
0.979225
0.979225
1
1
1
1
1
1
1
1
1
1
1
1
1
1
1
1
1
1
1
0.990346
0.999869
0.999874
0.999895
0.999904
0.999913
0.999383
0.999984
0.999026
0.980181
0.979225
1
1
1
1
1
1
1
1
1
1
1
1
1
1
1
1
1
1
1
0.991966
0.995553
0.999865
0.999611
0.999912
0.999917
0.999785
0.999985
0.999989
0.994328
0.979225
1
1
1
1
1
1
1
1
1
1
1
1
1
1
1
1
1
1
1
0.994048
0.992653
0.999849
0.999038
0.999518
0.999963
0.999985
0.999987
0.999995
0.999374
0.991658
1
1
1
1
1
1
1
1
1
1
1
1
1
1
1
1
1
1
1
0.997368
0.992653
0.997182
0.999049
0.999034
0.999297
0.999684
0.999903
0.999997
0.999997
0.999999
1
1
1
1
1
1
1
1
1
1
1
1
1
1
1
1
1
1
1
0.999963
0.992653
0.992693
0.998836
0.99913
0.99909
0.999088
0.999658
0.999906
0.999999
0.999999
1
1
1
1
1
1
1
1
1
1
1
1
1
1
1
1
1
1
1
1
0.995939
0.997227
0.999525
0.999618
0.999181
0.999668
0.999616
0.999615
0.999881
0.999999
1
1
1
1
1
1
1
1
1
1
1
1
1
1
1
1
1
1
1
1
0.999995
0.999996
0.999992
0.99999
0.999927
0.999965
0.99994
0.999605
0.999606
0.999925
1
1
1
1
1
1
1
1
1
1
1
1
1
1
1
1
1
1
1
1
1
1
1
1
1
1
1
0.999813
0.999605
0.999843
1
1
1
1
1
1
1
1
1
1
1
1
1
1
1
1
1
1
1
1
1
1
1
1
1
1
1
0.999812
0.999838
0.999975
1
1
1
1
1
1
1
1
1
1
1
1
1
1
1
1
1
1
1
1
1
1
1
1
1
1
1
0.999746
0.999531
0.999974
1
1
1
1
1
1
1
1
1
1
1
1
1
1
1
1
1
1
1
1
1
1
1
1
1
1
0.999971
0.999351
0.999351
0.999864
1
1
1
1
1
1
1
1
1
1
1
1
1
1
1
1
1
1
1
1
1
1
1
1
1
1
1
0.999721
0.999351
0.999602
1
1
1
1
1
1
1
1
1
1
1
1
1
1
1
1
1
1
1
1
1
1
1
1
1
1
1
0.999911
0.999354
0.999667
1
1
1
1
1
1
1
1
1
1
1
1
1
1
1
1
1
1
1
1
1
1
1
1
1
1
1
0.999589
0.99946
0.999943
1
1
1
1
1
1
1
1
1
1
1
1
1
1
1
1
1
1
1
1
1
1
1
1
1
0.999989
0.999894
0.999791
0.999941
0.999988
1
1
1
1
1
1
1
1
1
1
1
1
1
1
1
1
1
1
1
1
1
1
1
1
1
0.999987
0.999926
0.999999
0.999999
0.999981
1
1
1
1
1
1
1
1
1
1
1
1
1
0.999998
0.999999
1
1
1
1
1
1
1
1
1
1
0.999995
0.999996
0.999999
0.999999
0.999974
1
1
1
1
1
1
1
1
1
1
1
1
0.999998
0.999904
0.978814
0.999998
1
1
0.999921
0.999994
1
1
1
1
1
0.999999
0.999999
0.999999
0.999999
0.999966
1
1
1
1
1
1
1
1
1
1
1
0.999999
0.999931
0.769981
0.465036
0.500309
0.834288
0.911204
0.999193
1
1
1
1
1
1
0.999999
0.999999
0.999999
0.999999
0.999921
1
1
1
1
1
1
1
1
1
1
1
0.999961
0.833889
0.106114
0.054003
0.463942
0.875918
0.964888
0.999137
0.98892
0.978858
1
1
1
1
0.999999
0.999999
0.999982
0.999999
0.999893
1
1
1
1
1
1
1
1
1
1
0.999993
0.843218
0.136116
0.00269876
0.0261428
0.307371
0.647471
0.953785
0.99401
0.964669
0.964669
0.96474
0.98327
1
1
1
0.999999
0.999697
0.999883
0.999892
1
1
1
1
1
1
1
1
1
0.999999
0.922937
0.169312
0.000844922
0.00210747
0.00269876
0.0104568
0.470031
0.932915
0.989784
0.985909
0.997204
0.98105
0.979498
0.991909
0.999993
0.999999
0.999999
0.999608
0.999597
0.999895
1
1
1
1
1
1
1
1
1
0.99997
0.284795
0.00189116
0.000298249
0.00685727
0.0106162
0.00134292
0.0760048
0.742095
0.993192
0.998402
0.9984
0.9984
0.990934
0.997036
0.999983
0.999989
0.999999
0.999617
0.999597
0.999932
1
1
1
1
1
1
1
1
0.999544
0.640666
0.00612689
3.68203e-05
3.44356e-05
0.00161671
0.0117673
0.000539513
0.00186213
0.325776
0.910802
0.998401
0.998402
0.998267
0.995934
0.992444
0.998136
0.999998
0.999999
0.99962
0.999597
0.999936
1
1
1
1
1
1
1
0.999999
0.996389
0.0656946
3.18278e-05
1.58695e-05
5.65218e-06
7.05442e-05
0.0116138
0.000257603
0.000225937
0.0238597
0.642151
0.998402
0.998397
0.994994
0.981384
0.981384
0.996607
0.999997
0.999997
0.999615
0.999874
0.999782
1
1
1
1
1
1
1
0.996912
0.516334
0.0077225
2.87794e-06
3.90639e-07
9.64631e-07
5.30124e-06
0.00775151
0.000146677
1.9873e-05
3.69126e-05
0.13462
0.808523
0.998304
0.995658
0.981383
0.98144
0.998574
0.999994
0.999991
0.999615
0.999963
0.999772
1
1
1
1
1
1
0.999997
0.958144
0.0326895
2.60487e-06
3.90142e-07
2.65826e-07
3.9064e-07
1.24816e-06
0.000226441
0.000202921
1.84191e-05
2.10382e-05
4.12845e-05
0.35092
0.961188
0.998382
0.991535
0.981524
0.998716
0.999992
0.999986
0.999814
0.999964
0.999822
1
1
1
1
1
1
0.948781
0.277789
0.0024383
7.6152e-06
-9.93698e-08
5.30066e-08
7.04724e-07
7.99761e-07
8.01325e-07
6.28112e-05
1.26069e-05
1.26108e-05
0.000311415
0.0982229
0.672969
0.998758
0.996975
0.981729
0.994258
0.999992
0.999989
0.999888
0.999963
0.999953
0.979225
0.979924
0.998563
0.999981
0.998704
0.996247
0.996239
0.996239
0.998533
0.993552
0.990402
0.999224
1
1
1
1
1
1
1
1
1
1
1
1
1
1
1
1
1
1
0.979225
0.979225
0.995644
0.999982
0.999469
0.998284
0.99812
0.998407
0.999622
0.998871
0.990403
1
1
1
1
1
1
1
1
1
1
1
1
1
1
1
1
1
1
1
0.979225
0.98031
0.99903
0.999983
0.999478
0.999939
0.999933
0.99993
0.999923
0.999919
0.990472
1
1
1
1
1
1
1
1
1
1
1
1
1
1
1
1
1
1
1
0.979225
0.993807
0.999988
0.999983
0.999815
0.999942
0.999939
0.999614
0.999916
0.995464
0.992416
1
1
1
1
1
1
1
1
1
1
1
1
1
1
1
1
1
1
1
0.991221
0.999143
0.999995
0.999985
0.999983
0.999969
0.999688
0.999036
0.999883
0.992631
0.993973
1
1
1
1
1
1
1
1
1
1
1
1
1
1
1
1
1
1
1
0.999999
0.999997
0.999996
0.999924
0.999639
0.999365
0.999028
0.999046
0.997135
0.992631
0.997145
1
1
1
1
1
1
1
1
1
1
1
1
1
1
1
1
1
1
1
0.999999
0.999999
0.999907
0.999698
0.999032
0.999032
0.999037
0.998752
0.992673
0.992631
0.999962
1
1
1
1
1
1
1
1
1
1
1
1
1
1
1
1
1
1
1
0.999998
0.999873
0.999616
0.999618
0.999728
0.999201
0.999558
0.999493
0.997159
0.995936
1
1
1
1
1
1
1
1
1
1
1
1
1
1
1
1
1
1
1
1
0.999919
0.999608
0.999607
0.999926
0.999961
0.999921
0.99999
0.999992
0.999996
0.999995
1
1
1
1
1
1
1
1
1
1
1
1
1
1
1
1
1
1
1
1
0.999838
0.999607
0.999828
1
1
1
1
1
1
1
1
1
1
1
1
1
1
1
1
1
1
1
1
1
1
1
1
1
1
1
0.999975
0.999875
0.999818
1
1
1
1
1
1
1
1
1
1
1
1
1
1
1
1
1
1
1
1
1
1
1
1
1
1
1
0.999969
0.999524
0.999822
1
1
1
1
1
1
1
1
1
1
1
1
1
1
1
1
1
1
1
1
1
1
1
1
1
1
1
0.999828
0.999383
0.999383
0.99998
1
1
1
1
1
1
1
1
1
1
1
1
1
1
1
1
1
1
1
1
1
1
1
1
1
1
0.999589
0.999383
0.999751
1
1
1
1
1
1
1
1
1
1
1
1
1
1
1
1
1
1
1
1
1
1
1
1
1
1
1
0.999656
0.999387
0.99995
1
1
1
1
1
1
1
1
1
1
1
1
1
1
1
1
1
1
1
1
1
1
1
1
1
1
1
0.999941
0.999485
0.999688
1
1
1
1
1
1
1
1
1
1
1
1
1
1
1
1
1
1
1
1
1
1
1
1
1
1
1
0.999989
0.99994
0.999817
0.999932
0.999995
1
1
1
1
1
1
1
1
1
1
1
1
1
1
1
1
1
1
1
1
1
1
1
1
1
0.999989
0.999998
0.999997
0.999946
0.999992
1
1
1
1
1
1
1
1
1
1
1
1
1
1
1
1
1
1
1
1
1
1
1
1
1
0.999989
0.999998
0.999998
0.999996
0.999997
1
1
1
1
1
1
1
1
1
1
0.999996
0.999999
1
1
1
1
1
1
1
1
1
1
1
1
1
0.99999
0.999998
0.999998
0.999999
1
1
1
1
1
1
1
1
1
1
0.996933
0.956369
0.999951
0.999998
1
1
1
1
1
1
1
1
1
1
1
1
0.99999
0.999998
0.999998
0.999998
0.999999
1
1
1
1
0.986497
1
1
0.966336
0.827701
0.561183
0.389444
0.851419
0.999937
0.999999
1
1
1
1
1
1
1
1
1
1
1
0.999989
0.999991
0.999957
0.999999
0.999999
1
1
0.999996
0.975776
0.940411
0.966409
0.999931
0.945539
0.772828
0.475021
0.0967018
0.216788
0.824175
0.999963
1
1
1
1
1
1
1
1
1
1
1
0.99999
0.999991
0.999616
0.999998
0.999999
1
0.997652
0.97185
0.961639
0.972602
0.95775
0.986718
0.970504
0.727303
0.100702
0.00881555
0.0451034
0.147627
0.852811
0.999994
1
1
1
1
1
1
1
1
1
1
0.999974
0.999826
0.999615
0.999998
0.999999
0.999992
0.98839
0.971631
0.99669
0.998884
0.98471
0.987386
0.945016
0.393359
0.0558456
0.00129442
0.000171398
0.000492515
0.175156
0.926359
0.999999
1
1
1
1
1
1
1
1
1
0.999955
0.999615
0.999615
0.999998
0.999998
0.999994
0.997098
0.989418
0.998883
0.998884
0.998884
0.987524
0.750726
0.0319787
0.000583018
0.00258994
3.9244e-05
6.18939e-05
0.000460478
0.286078
0.99997
1
1
1
1
1
1
1
1
1
0.999955
0.999642
0.999588
0.999998
0.999997
0.99714
0.984965
0.997899
0.997989
0.998883
0.99887
0.935361
0.268474
0.000753182
2.23495e-05
0.000512811
7.60514e-06
1.96998e-06
2.7963e-05
0.00434499
0.644833
0.999548
1
1
1
1
1
1
1
1
0.999912
0.999901
0.999588
0.999996
0.999996
0.994119
0.978906
0.978872
0.993021
0.998869
0.998857
0.62761
0.00798095
2.23451e-05
1.69578e-05
4.62347e-06
7.84694e-07
6.64412e-07
1.76517e-06
2.72269e-05
0.0670856
0.996603
0.999999
1
1
1
1
1
1
1
0.999929
0.999943
0.999588
0.999988
0.999993
0.996722
0.978872
0.978872
0.993702
0.998755
0.885782
0.20814
0.000543865
1.457e-05
2.45192e-06
7.01036e-07
1.37165e-07
6.5089e-08
-3.55688e-07
4.14781e-06
0.00765326
0.519005
0.996921
1
1
1
1
1
1
1
0.999944
0.999944
0.999656
0.999981
0.99999
0.997044
0.978906
0.989788
0.998325
0.968267
0.507451
0.000571148
0.000286423
6.84285e-05
2.12917e-06
1.24025e-07
6.46672e-08
6.11241e-08
5.98031e-08
1.44694e-07
4.06393e-06
0.0331526
0.959153
0.999997
1
1
1
1
1
1
0.999946
0.999945
0.999851
0.999985
0.99999
0.992107
0.979075
0.996378
0.998691
0.732028
0.0979804
4.49645e-05
5.71594e-06
4.40246e-06
6.38824e-07
6.68636e-08
5.97528e-08
5.90435e-08
6.00462e-08
-1.06257e-08
7.91256e-06
0.00214871
0.279911
0.948607
1
1
1
1
1
1
1
1
1
1
1
0.999922
0.883959
0.0347612
7.13276e-05
2.1002e-06
-1.28143e-07
3.18558e-08
2.65444e-06
7.49886e-07
-1.15021e-06
2.09694e-05
8.21567e-06
3.56385e-05
4.61794e-05
0.000825837
0.350794
0.999405
0.999543
0.990192
0.994752
0.999991
0.999991
0.999832
0.997317
0.999949
1
1
1
1
1
0.994777
0.602283
0.0173582
9.17349e-06
-1.56733e-06
5.51119e-09
1.76506e-08
4.21052e-06
5.87976e-06
3.44619e-06
1.11097e-05
7.9349e-06
8.50894e-06
9.43104e-06
0.000136073
0.154814
0.972345
0.999865
0.999827
0.998958
0.999991
0.999991
0.999989
0.995881
0.998324
0.727757
0.967637
1
1
0.999988
0.939257
0.0461035
4.0371e-05
9.26199e-07
-1.11952e-07
1.90298e-10
2.34007e-09
1.66299e-06
1.66382e-05
8.43023e-06
8.12865e-06
7.90817e-06
7.88918e-06
1.87807e-05
3.22058e-05
0.0178997
0.706551
0.999932
0.999958
0.99999
0.999991
0.99999
0.99709
0.995877
0.995879
0.372341
0.852216
0.992418
0.988581
0.987138
0.801564
0.0242065
-3.8304e-06
-4.35018e-07
-4.22561e-09
5.10204e-10
6.44697e-10
1.76913e-07
1.15231e-05
1.21085e-05
1.56972e-05
7.92107e-06
7.88918e-06
7.89816e-06
1.30035e-05
0.00178917
0.369707
0.999945
0.999946
0.999968
0.999807
0.997249
0.995874
0.995874
0.995875
0.2318
0.767615
0.95149
0.967051
0.893015
0.190601
5.67521e-09
2.73345e-12
-8.84676e-08
-5.32159e-09
1.50397e-09
9.63866e-10
1.28406e-09
3.63529e-07
2.14072e-05
2.15229e-05
8.74006e-06
7.96641e-06
7.89689e-06
1.0082e-05
0.0001834
0.161211
0.972096
0.999945
0.999154
0.996016
0.995878
0.995874
0.995875
0.995875
0.0735187
0.528468
0.848403
0.875148
0.589089
3.39753e-05
2.98353e-06
3.55956e-08
-2.15751e-10
3.62005e-11
2.74052e-08
1.14728e-07
4.77097e-09
8.22344e-09
2.13401e-05
2.15004e-05
2.10662e-05
8.05682e-06
1.62284e-05
0.000124027
0.000141244
0.0267789
0.652459
0.999929
0.99927
0.995881
0.995878
0.995875
0.996033
0.99713
0.0112759
0.189689
0.417882
0.346292
0.0843779
0.0051453
8.87038e-12
2.49467e-11
-3.47508e-10
1.69642e-11
3.2021e-08
2.89917e-07
7.35236e-08
9.95324e-09
2.7438e-06
8.03255e-06
1.58376e-05
7.23733e-06
4.54782e-05
5.41915e-05
0.000133036
0.000256982
0.246515
0.999918
0.99993
0.999395
0.998296
0.998585
0.999629
0.999948
1.01552e-06
7.82428e-07
0.00659309
6.35544e-18
-8.31592e-11
-1.52664e-10
-2.67822e-11
2.5838e-13
1.52078e-11
8.35569e-11
8.9574e-11
1.4308e-07
1.3726e-06
1.17518e-08
1.17587e-08
3.04188e-07
3.03032e-06
4.65287e-06
2.95867e-05
8.1314e-05
0.000209473
0.000208283
0.0139034
0.641893
0.999928
0.999954
0.999988
0.999999
0.999999
0.999999
1.2287e-06
7.47673e-07
1.21636e-08
5.24415e-08
-8.51266e-11
-1.07083e-10
-3.9822e-12
3.45067e-11
1.26777e-11
3.23033e-11
6.83915e-11
1.37599e-10
1.45104e-06
2.60636e-05
2.47412e-07
7.80604e-05
2.85312e-05
2.74626e-05
9.75043e-06
1.20826e-05
8.88734e-06
4.45205e-05
0.000232172
0.0236761
0.706831
0.94872
0.992545
0.999999
0.999999
0.999999
1.34557e-06
7.64475e-07
1.04968e-08
2.09278e-07
-2.23742e-11
-4.8186e-11
8.54722e-12
1.73028e-11
6.52675e-12
1.91468e-11
7.90075e-11
1.03563e-10
4.06139e-09
5.72087e-05
0.00014644
0.00017822
6.53408e-05
1.15308e-05
9.31939e-06
8.77728e-06
8.8873e-06
0.000353887
0.000374173
0.000150228
0.0484353
0.266847
0.534792
0.750995
0.86214
0.887343
2.43521e-06
2.08421e-06
2.793e-11
5.36676e-09
1.49236e-11
-9.1545e-14
1.2266e-11
1.23634e-11
3.78816e-12
1.15091e-11
3.82829e-11
8.46379e-11
9.73998e-11
3.43543e-06
0.000178066
0.00017822
2.32577e-05
1.14656e-05
0.000131862
2.22019e-05
8.79149e-06
9.56833e-06
0.000518898
0.000110674
3.76271e-06
7.02966e-07
6.9489e-07
7.00518e-07
0.0360532
0.0624985
1.7057e-06
7.68687e-06
2.66275e-11
2.49294e-11
2.31299e-11
2.0844e-11
9.76574e-12
6.50946e-12
2.19192e-12
7.65399e-12
2.90163e-11
7.29036e-11
9.21986e-11
1.28871e-10
1.67457e-05
0.000157881
0.000139912
1.17822e-05
0.000206926
6.03964e-05
9.56833e-06
0.000139123
0.000532765
0.00020349
6.98174e-06
7.04224e-07
6.99131e-07
7.03975e-07
7.03015e-07
7.06692e-07
9.3379e-07
1.19771e-05
1.99127e-06
2.31261e-11
2.03601e-11
1.91231e-11
5.66837e-12
2.9277e-12
1.20429e-12
4.88468e-12
2.14938e-11
6.49545e-11
1.72204e-10
1.01363e-10
4.17941e-10
1.61373e-05
3.26569e-05
0.000123069
0.000207479
0.000204204
1.88819e-05
6.1393e-05
0.000532765
0.000393168
1.63828e-05
7.05885e-07
7.04293e-07
7.05745e-07
7.05538e-07
7.00063e-07
2.38889e-07
1.19563e-05
1.18697e-05
8.36528e-09
1.97379e-11
1.42525e-11
2.92322e-12
1.28589e-12
6.46897e-13
3.05558e-12
1.55299e-11
5.664e-11
2.02437e-10
9.21196e-11
2.98932e-07
1.62516e-07
2.02485e-07
5.36394e-05
0.000206438
0.000205868
7.98002e-05
6.1841e-05
0.000407808
0.00039392
0.00031286
7.08234e-07
7.05921e-07
7.13923e-07
7.04951e-07
6.92063e-07
3.98926e-15
4.83286e-06
1.34043e-05
3.32835e-07
7.28743e-11
1.48347e-11
1.61954e-12
5.79151e-13
3.35294e-13
1.82633e-12
1.02988e-11
3.86382e-11
9.75165e-11
9.19476e-11
1.56267e-07
1.61803e-07
8.42753e-07
3.24156e-07
3.8745e-05
0.000205436
0.000201987
6.44512e-05
7.07843e-05
0.000370378
0.000371405
0.000287629
1.23991e-05
7.12771e-07
7.11272e-07
7.06537e-07
2.30515e-15
1.01793e-11
1.34008e-05
4.61873e-07
1.88199e-11
1.47747e-11
8.45143e-13
2.3005e-13
1.58127e-13
1.0304e-12
6.71186e-12
2.98566e-11
1.00291e-10
9.1953e-11
2.6002e-07
7.68025e-06
7.21532e-06
1.01352e-07
1.02023e-07
0.000131869
0.00020158
0.00020242
8.6179e-05
0.00011259
0.000360378
0.000355941
0.000234582
4.99466e-06
7.19029e-07
7.25721e-07
1.27382e-12
3.51223e-12
7.08198e-06
2.31115e-07
1.38614e-11
9.61747e-12
3.68969e-13
7.50478e-14
6.94517e-14
5.93593e-13
4.74345e-12
2.89529e-11
1.7373e-10
9.35986e-11
1.4186e-07
7.38191e-07
5.91098e-08
7.3699e-08
8.76166e-08
6.51752e-07
0.000186978
0.00020899
0.000106342
0.000113003
0.000337805
0.000351518
0.000351149
5.62146e-05
7.2449e-07
7.41627e-07
3.39044e-12
1.27784e-10
4.31462e-10
1.17039e-11
1.16227e-11
1.1555e-12
1.0074e-13
1.96411e-14
2.97495e-14
3.49285e-13
3.57381e-12
3.24171e-11
3.11666e-10
4.11622e-09
2.67756e-11
3.99084e-11
1.71834e-10
1.97447e-06
2.0916e-06
5.19064e-07
6.30655e-08
8.32054e-05
0.000202067
0.000221298
0.00033165
0.000329187
0.000193557
2.62885e-05
9.50276e-07
7.67236e-07
1.12263e-12
7.36094e-11
4.64181e-11
3.94176e-11
5.07872e-12
4.74669e-13
3.61723e-14
4.1936e-15
9.94393e-15
1.25144e-13
1.07673e-12
5.90941e-12
2.19426e-11
2.48712e-11
2.57681e-11
1.57404e-08
1.72496e-07
9.89394e-08
7.86883e-08
6.63073e-08
4.88661e-08
6.32038e-08
0.000102436
0.000253715
0.000320329
0.000167684
2.37651e-05
9.512e-06
2.37219e-06
8.06825e-07
3.08365e-13
2.08899e-11
9.94068e-11
1.63576e-11
1.73222e-12
1.6184e-13
1.09177e-14
7.68233e-16
3.66527e-15
5.69723e-14
5.97936e-13
4.19667e-12
2.21504e-11
1.07891e-10
3.45542e-11
1.78096e-08
3.63302e-08
7.71964e-09
3.36078e-08
3.44548e-08
4.21347e-08
4.88855e-08
8.85973e-08
0.000163997
0.000290151
0.000204988
4.67353e-05
2.3987e-06
2.0338e-06
8.15752e-07
4.82435e-14
3.85404e-12
2.52242e-11
4.54927e-12
5.10352e-13
4.4129e-14
2.51602e-15
1.25881e-16
1.28341e-15
2.38068e-14
2.9622e-13
2.56951e-12
1.78263e-11
1.15354e-10
7.37079e-10
1.26122e-10
1.26868e-10
6.02166e-09
6.26653e-09
9.08639e-07
8.19352e-06
1.53742e-05
3.28665e-06
9.30697e-05
0.000255326
0.000224898
4.94343e-05
1.24991e-06
8.33538e-07
8.02033e-07
4.92102e-15
4.71248e-13
6.58024e-12
1.16559e-12
1.17053e-13
8.52477e-15
3.99138e-16
1.99106e-17
4.41518e-16
9.32723e-15
1.25357e-13
1.10787e-12
6.76341e-12
2.73093e-11
6.44026e-11
1.26097e-10
6.05599e-10
4.89001e-09
6.56601e-09
3.8225e-05
8.89001e-05
8.83778e-05
6.12393e-05
1.11675e-05
9.72748e-05
9.84398e-05
2.71382e-05
9.52478e-07
8.05446e-07
8.00486e-07
3.24178e-16
3.99305e-14
1.39391e-12
2.20492e-13
1.86501e-14
1.09574e-15
4.05546e-17
2.69102e-18
1.04227e-16
2.64911e-15
4.27351e-14
4.40174e-13
3.04493e-12
1.51336e-11
5.93123e-11
1.90208e-10
1.93118e-10
5.36196e-10
3.97261e-06
8.22786e-05
8.88736e-05
8.88569e-05
4.73862e-05
8.38301e-07
1.23647e-06
1.90033e-06
3.50969e-06
8.59454e-07
8.05015e-07
8.06689e-07
1.37585e-17
2.23703e-15
1.80878e-13
2.56676e-14
1.85437e-15
8.74246e-17
2.453e-18
2.70369e-19
1.58612e-17
5.16268e-16
1.09038e-14
1.5758e-13
1.60585e-12
1.12872e-11
5.1028e-11
6.59952e-11
1.04897e-10
1.02421e-09
1.39126e-06
6.36624e-05
8.88569e-05
8.12089e-05
8.7066e-07
7.18483e-07
8.15713e-07
1.38247e-06
8.32038e-07
8.127e-07
8.08067e-07
8.05793e-07
3.74481e-19
6.92051e-17
1.28044e-14
1.65149e-15
1.0411e-16
3.97929e-18
8.19301e-20
1.99342e-20
1.61705e-18
6.71874e-17
1.75935e-15
3.05223e-14
3.61837e-13
2.96799e-12
1.76019e-11
8.62185e-11
9.49435e-11
4.19086e-10
1.40789e-08
1.59592e-05
8.85419e-05
3.37568e-05
6.91812e-07
5.93968e-07
7.39613e-07
2.2609e-06
1.68853e-06
8.40959e-07
8.09997e-07
8.0781e-07
6.50803e-21
6.76837e-19
4.5161e-16
5.26307e-17
2.91854e-18
9.19453e-20
1.3935e-21
7.6797e-22
8.38429e-20
4.65969e-18
1.64384e-16
3.85766e-15
6.0794e-14
6.4711e-13
4.75226e-12
2.53601e-11
5.52335e-11
8.38709e-11
1.84184e-10
9.16361e-07
6.51208e-06
8.68277e-06
2.12176e-06
5.28608e-07
3.71787e-07
4.00074e-07
1.86031e-06
2.69281e-06
2.74049e-06
2.41295e-06
7.16558e-23
1.1348e-21
7.03609e-18
7.16966e-19
3.42964e-20
8.90755e-22
1.03179e-23
1.4885e-23
2.24723e-21
1.72775e-19
8.29839e-18
2.6087e-16
5.43421e-15
7.53242e-14
7.02439e-13
4.52857e-12
2.1185e-11
7.66858e-11
6.2867e-11
8.91717e-11
6.27018e-10
6.16119e-09
1.82832e-06
2.19362e-06
9.58824e-07
2.36502e-09
2.9638e-07
2.20135e-06
2.78642e-06
2.78688e-06
5.00551e-25
4.50344e-25
3.9547e-20
3.28745e-21
1.27959e-22
2.64282e-24
2.42502e-26
9.5019e-26
2.11502e-23
2.41877e-21
1.71726e-19
7.87518e-18
2.35192e-16
4.59041e-15
5.9146e-14
5.14665e-13
3.14539e-12
1.44667e-11
4.89235e-11
3.83677e-11
6.56798e-11
1.40019e-10
1.52608e-07
9.44032e-07
5.6068e-07
1.49152e-09
7.81262e-10
3.2784e-07
1.13213e-06
1.18628e-06
2.27151e-27
1.0578e-27
6.27988e-23
3.61409e-24
9.71776e-26
1.36354e-27
8.80847e-30
1.06635e-28
4.09447e-26
8.13332e-24
9.91253e-22
7.69532e-20
3.84232e-18
1.23978e-16
2.61206e-15
3.66959e-14
3.5716e-13
2.10617e-12
8.55457e-12
2.64812e-11
4.32883e-11
4.77122e-11
7.37135e-11
2.04703e-10
1.79205e-08
1.90206e-09
5.25808e-10
3.62614e-10
2.01496e-09
2.25656e-09
7.41625e-30
3.49466e-30
2.95237e-26
6.49636e-28
6.56251e-30
3.30789e-32
1.58521e-34
6.73169e-34
7.9187e-31
5.04294e-28
1.9529e-25
4.74651e-23
7.25338e-21
6.91978e-19
4.09325e-17
1.5188e-15
2.46945e-14
1.98425e-13
9.85207e-13
3.57257e-12
1.07561e-11
2.8371e-11
4.47884e-11
8.54189e-11
2.05995e-10
4.03639e-10
2.61876e-10
2.8602e-10
3.71557e-10
6.6581e-10
0.999945
0.99701
0.999813
0.999989
0.999989
0.993611
0.988238
0.999498
0.999342
0.413474
0.0247961
4.23171e-05
1.21471e-06
2.54704e-07
1.10057e-07
5.78382e-08
5.90143e-08
5.89716e-08
5.87968e-08
-1.24892e-07
2.09012e-06
7.09311e-05
0.0353466
0.882548
0.999931
1
1
1
1
1
0.996677
0.995865
0.999985
0.999989
0.999989
0.998871
0.999783
0.99987
0.967542
0.112455
0.00180305
0.000100469
1.9366e-05
1.5984e-07
1.05451e-07
6.35328e-08
5.89843e-08
5.90073e-08
2.6354e-07
1.0618e-08
-1.70359e-06
9.07983e-06
0.0187755
0.614743
0.995206
1
1
1
1
1
0.995875
0.99587
0.997362
0.999988
0.999989
0.999988
0.999952
0.999915
0.754476
0.0935405
0.000626451
2.6419e-06
1.60982e-06
1.36956e-07
1.39355e-07
3.80378e-07
1.88624e-05
4.0222e-06
4.3706e-07
1.44488e-09
-1.0364e-07
1.00946e-06
4.06082e-05
0.0492587
0.939114
0.999988
1
1
0.966278
0.725886
0.995874
0.995874
0.995874
0.997279
0.999631
0.99996
0.999934
0.999934
0.386105
0.00144015
5.41512e-05
4.34078e-05
1.36636e-07
1.36633e-07
1.36919e-07
1.39353e-07
5.98952e-05
2.58208e-05
1.93193e-09
-7.36511e-12
-5.63609e-09
-4.89154e-07
-4.0223e-06
0.0242028
0.805275
0.987352
0.988405
0.992036
0.852427
0.376852
0.995874
0.995874
0.995874
0.995876
0.995941
0.999034
0.999934
0.999916
0.252037
0.00030701
6.75665e-06
1.65188e-06
1.69055e-07
1.36586e-07
8.61005e-07
5.60713e-05
5.99003e-05
3.86178e-06
2.70511e-11
-3.30718e-09
-6.44597e-09
-8.90065e-08
-1.76875e-08
5.73956e-14
0.197395
0.89533
0.967038
0.951404
0.76851
0.23109
0.997768
0.996775
0.995905
0.995901
0.99591
0.999072
0.999916
0.753978
0.0131951
0.000413615
0.000560538
2.01482e-07
2.01578e-07
1.68553e-07
5.68857e-06
2.93254e-05
9.45901e-06
3.9324e-09
3.36622e-09
5.9463e-11
8.72322e-12
-2.01419e-10
1.37967e-08
4.82805e-06
3.03404e-05
0.588697
0.873319
0.84617
0.522693
0.0711766
0.999997
0.99987
0.999631
0.998485
0.999533
0.999954
0.999927
0.447717
0.0162881
6.73683e-05
4.63468e-05
2.05307e-07
2.01686e-07
2.06374e-07
1.00353e-05
1.18345e-07
4.2398e-08
4.16422e-08
8.64881e-09
3.31839e-10
6.65198e-11
-2.59324e-10
-2.43566e-09
2.73635e-11
0.00503526
0.0848356
0.34103
0.410169
0.182802
0.0104331
0.999999
0.999999
0.999999
0.999997
0.999981
0.99996
0.778964
0.00992706
0.000393945
4.30473e-05
1.8568e-05
2.44756e-07
1.20905e-06
8.75631e-06
1.00692e-05
1.00429e-05
3.35936e-07
2.69028e-07
1.30455e-08
6.40878e-11
4.57136e-11
1.55389e-11
1.55731e-11
1.64175e-11
1.7922e-11
2.08036e-11
2.32399e-11
0.005314
7.49266e-07
1.01986e-06
0.999999
0.999999
0.999999
0.999425
0.980608
0.838063
0.134308
0.000265317
0.000503494
0.000610607
2.88809e-07
2.43442e-07
6.71958e-07
7.88094e-06
1.00237e-05
3.84244e-05
2.4239e-06
1.08243e-07
1.62194e-10
1.69327e-10
3.5848e-11
1.19003e-11
2.4152e-11
5.49412e-11
9.29295e-11
2.52742e-11
3.81964e-08
5.32099e-09
7.19864e-07
1.26042e-06
0.893504
0.863466
0.783339
0.578485
0.350842
0.0778792
0.000265317
0.000240421
0.000393942
0.000201731
2.45785e-07
2.45789e-07
2.43413e-07
3.5939e-07
1.51174e-06
3.8498e-05
5.07274e-06
1.62815e-10
1.48498e-10
9.46101e-11
2.36842e-11
5.5577e-12
1.0617e-11
3.22522e-11
6.73428e-11
3.48282e-11
1.38191e-07
4.08597e-09
7.31156e-07
1.63156e-06
0.0640167
0.0379766
1.49055e-05
9.16396e-05
0.000162705
0.00016043
0.00038754
0.000210891
1.22047e-05
3.04785e-06
2.08071e-06
3.16203e-05
2.31342e-05
9.30422e-07
2.49653e-05
3.25859e-05
4.84791e-07
3.70983e-09
1.00155e-10
8.04471e-11
1.75427e-11
3.15765e-12
6.3916e-12
2.08024e-11
5.10937e-11
2.90429e-11
1.79416e-09
3.45264e-11
1.81132e-06
2.6804e-06
7.10032e-07
7.71442e-07
1.896e-06
0.000107959
0.00106882
0.00113852
0.000611072
1.35629e-05
1.29726e-05
1.0537e-05
2.45858e-05
0.000104043
0.00010041
3.39651e-05
6.0053e-05
3.56352e-07
9.89902e-08
2.07946e-08
8.03901e-11
6.17038e-11
1.12581e-11
1.93822e-12
3.98958e-12
1.19849e-11
3.37745e-11
2.53707e-11
3.21003e-11
3.40424e-11
7.50896e-06
2.06567e-06
7.05152e-07
7.34181e-07
1.27304e-06
6.23204e-05
0.000819405
0.00104579
1.6005e-05
1.44969e-05
1.35741e-05
1.42269e-05
8.07871e-05
0.000104041
0.000104038
3.38587e-05
3.9228e-05
6.34702e-07
5.64377e-11
5.62906e-11
1.7294e-10
4.02196e-11
6.13307e-12
1.07706e-12
2.39149e-12
6.48723e-12
2.10153e-11
2.32205e-11
2.47929e-11
1.97041e-06
1.26261e-05
1.24203e-06
6.96252e-07
8.82169e-07
4.24017e-06
0.000208974
0.00037971
8.82992e-05
1.74093e-05
1.51226e-05
4.6899e-05
7.74195e-05
5.53757e-05
6.34268e-05
4.45905e-05
2.2674e-06
2.52182e-07
5.88211e-11
6.04864e-10
9.49811e-11
2.60086e-11
8.16973e-12
1.70237e-12
4.81974e-13
1.25292e-12
3.34678e-12
1.49009e-11
2.70222e-11
3.16911e-11
1.2019e-05
1.26261e-05
4.0901e-07
7.52531e-07
9.70609e-07
2.08136e-05
5.6205e-05
5.60244e-05
6.11966e-05
0.000121537
0.000253935
0.000258983
0.000242864
3.04854e-05
2.25269e-06
8.3986e-07
6.32739e-07
5.67161e-07
6.25966e-11
2.16199e-09
1.59468e-10
2.73126e-11
6.28281e-12
1.0815e-12
2.5386e-13
5.73759e-13
1.72504e-12
1.39131e-11
1.97765e-11
1.90361e-07
1.40339e-05
7.80643e-06
1.60596e-09
7.41134e-07
8.73737e-07
1.73056e-06
6.03428e-05
0.000247103
0.000275989
0.000273526
0.000269933
0.000267617
7.88366e-05
9.67419e-06
1.29214e-05
1.40132e-05
1.3527e-05
6.21878e-06
8.47723e-11
6.45313e-09
2.26956e-10
2.47262e-11
4.86247e-12
7.32897e-13
1.27193e-13
2.24255e-13
9.04381e-13
1.43781e-11
1.81765e-11
3.64227e-07
1.40305e-05
4.08479e-08
1.76162e-13
7.69615e-07
8.49375e-07
1.14594e-05
0.00020412
0.00027575
0.000275903
0.00027575
0.000237752
6.32724e-06
4.51351e-06
4.41455e-06
3.7229e-06
1.72416e-06
1.0623e-07
5.43208e-08
1.0813e-07
5.49029e-09
8.36901e-11
1.56463e-11
3.47075e-12
4.88644e-13
6.0745e-14
7.22012e-14
4.00983e-13
9.37101e-12
1.29797e-11
2.35839e-07
6.52288e-06
2.76319e-12
3.72101e-13
8.08518e-07
8.35395e-07
5.2225e-05
0.000276774
0.000275751
0.00027575
0.000247566
4.10413e-06
8.17444e-06
9.97261e-06
1.83509e-05
8.29711e-06
1.34053e-10
1.29966e-10
1.25911e-10
1.25452e-10
3.39724e-11
2.80127e-11
9.94684e-12
2.14277e-12
2.80612e-13
2.64344e-14
1.8677e-14
1.06371e-13
1.11767e-12
9.67668e-12
9.71859e-12
1.01538e-11
6.53863e-11
3.34848e-12
8.23362e-07
9.9057e-07
4.4746e-05
0.00027514
0.000275552
0.00027504
3.45784e-05
2.16336e-06
1.18077e-05
1.85778e-05
1.86061e-05
8.27034e-06
1.4579e-10
3.94449e-10
6.21151e-10
1.92673e-10
5.66609e-11
2.02955e-11
5.71392e-12
1.07163e-12
1.24604e-13
9.52801e-15
3.98226e-15
3.81128e-14
4.70738e-13
4.66903e-12
3.26404e-11
4.43846e-11
5.67778e-11
1.13988e-12
8.10934e-07
8.05896e-07
2.0956e-05
0.000252765
0.000274941
0.000198683
1.57686e-06
1.61918e-06
1.15162e-05
1.86142e-05
4.9479e-06
2.44141e-10
1.62516e-10
1.55121e-09
1.26738e-09
3.37814e-10
7.37305e-11
1.57945e-11
2.95855e-12
4.29709e-13
4.15259e-14
2.66997e-15
7.06737e-16
1.15589e-14
1.65208e-13
1.72545e-12
1.52884e-11
8.53778e-11
2.00873e-11
2.96015e-13
8.04842e-07
8.01927e-07
1.20496e-06
0.00014281
0.000272645
7.89422e-05
1.40552e-06
1.39025e-06
7.95993e-06
1.82325e-05
3.68554e-06
6.74459e-07
2.48638e-10
1.7819e-09
1.66508e-09
5.06711e-10
1.05644e-10
1.72783e-11
2.3339e-12
2.52851e-13
1.92675e-14
9.87489e-16
1.14065e-16
2.69801e-15
4.59703e-14
5.24948e-13
4.53286e-12
2.3267e-11
4.52822e-12
4.5784e-14
8.04572e-07
7.99552e-07
7.96134e-07
1.79154e-05
0.000126813
1.91701e-05
1.39042e-06
1.37235e-06
1.94415e-06
8.66674e-06
2.13493e-05
1.14475e-05
6.83582e-08
1.19819e-09
9.93536e-10
4.26332e-10
9.83003e-11
1.52134e-11
1.79241e-12
1.65602e-13
1.08332e-14
4.66362e-16
1.95238e-17
4.38994e-16
9.18385e-15
1.25376e-13
1.23567e-12
6.6994e-12
6.40722e-13
4.61365e-15
8.05332e-07
8.02606e-07
7.97119e-07
7.93698e-07
2.68978e-06
3.19453e-06
1.37235e-06
1.36268e-06
1.35781e-06
2.7994e-06
2.1409e-05
1.70789e-05
4.64504e-07
1.35568e-10
6.85794e-11
5.47497e-11
1.4435e-11
3.15248e-12
4.81819e-13
4.75098e-14
2.89071e-15
1.08778e-16
2.64222e-18
4.6109e-17
1.22575e-15
2.06513e-14
2.41768e-13
1.48179e-12
5.91052e-14
3.00606e-16
8.0617e-07
8.05206e-07
8.03597e-07
8.07748e-07
4.57505e-06
3.06096e-06
1.36268e-06
1.35485e-06
1.3584e-06
8.22762e-06
2.12897e-05
1.34306e-05
1.61315e-07
2.01911e-10
6.29804e-11
5.96886e-11
1.08719e-11
1.61412e-12
1.70872e-13
1.23757e-14
5.89338e-16
1.75989e-17
2.80021e-19
2.90329e-18
1.0171e-16
2.1185e-15
2.89634e-14
1.98561e-13
3.47718e-15
1.26099e-17
8.04102e-07
8.05781e-07
8.05142e-07
1.717e-06
5.94726e-06
5.91682e-06
1.3777e-06
1.36203e-06
1.2199e-05
2.16401e-05
2.12192e-05
5.10419e-06
3.45947e-09
1.14451e-10
3.68228e-11
2.70628e-11
4.24447e-12
4.96718e-13
4.1057e-14
2.32273e-15
8.60596e-17
1.9745e-18
2.24217e-20
1.01994e-19
4.82316e-18
1.22757e-16
1.91725e-15
1.44631e-14
1.13905e-16
3.39503e-19
1.94245e-06
2.08369e-06
1.16293e-06
1.65395e-06
1.69989e-06
4.40911e-07
7.33355e-06
2.05853e-05
2.16401e-05
2.15722e-05
5.8164e-06
3.82365e-09
1.70958e-10
5.58324e-11
4.81506e-11
7.46132e-12
9.45852e-13
8.64089e-14
5.434e-15
2.29175e-16
6.33387e-18
1.0885e-19
9.21225e-22
1.82376e-21
1.15705e-19
3.54722e-18
6.28046e-17
5.23764e-16
1.33156e-18
5.84786e-21
2.38659e-06
2.22344e-06
9.52757e-07
1.84953e-07
4.27482e-08
8.2758e-08
8.04019e-06
2.04479e-05
1.48263e-05
2.7242e-06
1.93371e-09
1.21883e-10
5.11255e-11
4.76094e-11
8.24916e-12
1.12538e-12
1.12824e-13
7.96209e-15
3.81803e-16
1.21277e-17
2.48432e-19
3.10742e-21
1.91257e-23
1.40031e-23
1.16083e-21
4.30649e-20
8.81841e-19
8.38785e-18
3.18866e-21
6.39872e-23
4.68126e-07
4.47421e-07
2.44555e-07
7.89788e-08
3.91727e-08
1.45629e-07
1.08759e-06
1.7286e-06
4.71096e-07
5.74175e-10
6.61785e-11
3.59222e-11
3.854e-11
6.78319e-12
9.23592e-13
9.48913e-14
7.00452e-15
3.55033e-16
1.19557e-17
2.61724e-19
3.64322e-21
3.07145e-23
1.28522e-25
3.4518e-26
3.69031e-24
1.74064e-22
4.42206e-21
5.19741e-20
8.4091e-25
4.43236e-25
7.53501e-10
6.49986e-10
5.81874e-10
2.47998e-09
6.7063e-09
1.01974e-08
6.28398e-10
3.83468e-10
1.31914e-10
4.71453e-11
2.40717e-11
2.4256e-11
4.87128e-12
7.09086e-13
6.91979e-14
4.64346e-15
2.14024e-16
6.59895e-18
1.32349e-19
1.69872e-21
1.36721e-23
6.58593e-26
1.58666e-28
1.35737e-29
2.08357e-27
1.45202e-25
5.35721e-24
9.11249e-23
9.67993e-28
2.00419e-27
6.53387e-10
5.72326e-10
5.39989e-10
5.34226e-10
5.41602e-10
5.74685e-10
4.58311e-10
1.6679e-10
5.67595e-11
2.93182e-11
1.08067e-11
2.35731e-12
3.97918e-13
4.65966e-14
3.1148e-15
8.35881e-17
1.45877e-18
1.57409e-20
1.04277e-22
4.25271e-25
1.0615e-27