/*--------------------------------*- C++ -*----------------------------------*\
| =========                 |                                                 |
| \\      /  F ield         | OpenFOAM: The Open Source CFD Toolbox           |
|  \\    /   O peration     | Version:  2.4.0                                 |
|   \\  /    A nd           | Web:      www.OpenFOAM.org                      |
|    \\/     M anipulation  |                                                 |
\*---------------------------------------------------------------------------*/
FoamFile
{
    version     2.0;
    format      ascii;
    class       volScalarField;
    location    "0.285";
    object      p;
}
// * * * * * * * * * * * * * * * * * * * * * * * * * * * * * * * * * * * * * //

dimensions      [1 -1 -2 0 0 0 0];

internalField   nonuniform List<scalar> 
60000
(
156.261
156.18
156.021
155.789
155.485
155.104
154.65
154.126
153.534
152.875
152.154
151.372
150.533
149.639
148.694
147.701
146.662
145.582
144.464
143.31
142.125
140.911
139.672
138.411
137.131
135.836
134.53
133.214
131.894
130.571
129.251
127.935
126.627
125.33
124.048
122.783
121.537
120.313
119.113
117.938
116.79
115.668
114.574
113.507
112.466
111.449
110.455
109.482
108.527
107.588
106.662
105.746
104.839
103.937
103.04
102.145
101.252
100.36
99.4695
98.5807
97.6943
96.8114
95.9331
95.0609
94.1962
93.3407
92.496
91.664
90.8465
90.0455
89.2634
88.5024
87.7654
87.0551
86.3747
85.7273
85.1162
84.5447
84.0159
83.5327
83.0974
82.7123
82.3786
82.0972
81.8683
81.6909
81.5648
81.4882
81.4591
81.4756
81.5358
81.6381
81.7806
81.9616
82.1805
82.4371
82.7311
83.0632
83.4346
83.8464
154.318
154.239
154.085
153.852
153.543
153.161
152.706
152.181
151.588
150.929
150.207
149.424
148.584
147.689
146.743
145.75
144.71
143.629
142.509
141.355
140.169
138.954
137.714
136.452
135.171
133.875
132.567
131.251
129.929
128.606
127.284
125.968
124.659
123.361
122.078
120.812
119.565
118.341
117.14
115.964
114.815
113.693
112.599
111.531
110.49
109.473
108.479
107.506
106.551
105.613
104.687
103.771
102.864
101.963
101.065
100.17
99.2772
98.3853
97.4947
96.6057
95.7191
94.8359
93.9574
93.0849
92.2201
91.3644
90.5195
89.6872
88.8695
88.0683
87.2858
86.5246
85.7872
85.0765
84.3956
83.7478
83.1363
82.5645
82.0353
81.5518
81.1164
80.7313
80.3977
80.1166
79.888
79.7119
79.5867
79.511
79.4829
79.5004
79.5617
79.665
79.8087
79.9901
80.2096
80.4665
80.7606
81.0925
81.4636
81.8746
152.395
152.315
152.16
151.927
151.617
151.234
150.779
150.252
149.658
148.997
148.273
147.489
146.647
145.751
144.803
143.806
142.766
141.684
140.563
139.407
138.219
137.002
135.76
134.496
133.214
131.916
130.606
129.288
127.965
126.64
125.316
123.997
122.687
121.388
120.103
118.835
117.587
116.36
115.158
113.982
112.832
111.709
110.614
109.546
108.505
107.488
106.494
105.521
104.567
103.629
102.703
101.789
100.882
99.9806
99.0834
98.1887
97.2955
96.4035
95.5126
94.6233
93.7363
92.8527
91.9738
91.1009
90.2356
89.3795
88.5342
87.7015
86.8832
86.0815
85.2984
84.5364
83.7983
83.0867
82.405
81.7562
81.1437
80.571
80.041
79.5569
79.1211
78.7358
78.4023
78.1216
77.8938
77.7186
77.5947
77.5203
77.4936
77.5126
77.575
77.6791
77.824
78.0055
78.2251
78.4817
78.7751
79.1057
79.4751
79.8836
150.489
150.41
150.253
150.02
149.709
149.325
148.868
148.34
147.743
147.081
146.355
145.568
144.724
143.825
142.875
141.876
140.833
139.748
138.625
137.466
136.275
135.056
133.811
132.545
131.26
129.959
128.647
127.326
126
124.672
123.346
122.024
120.711
119.409
118.121
116.851
115.6
114.372
113.168
111.99
110.838
109.714
108.618
107.55
106.508
105.491
104.498
103.526
102.572
101.634
100.71
99.7958
98.8896
97.989
97.0921
96.1975
95.3044
94.4121
93.5208
92.631
91.7434
90.8591
89.9795
89.1059
88.2399
87.3831
86.5372
85.7038
84.8847
84.0821
83.2981
82.535
81.7956
81.0827
80.3994
79.7491
79.1352
78.561
78.0298
77.5447
77.1082
76.7226
76.3893
76.1092
75.8825
75.7088
75.5866
75.5144
75.49
75.5112
75.5757
75.6815
75.8258
76.0099
76.23
76.4861
76.7784
77.1072
77.474
77.8791
148.602
148.522
148.365
148.13
147.819
147.433
146.974
146.443
145.844
145.179
144.45
143.661
142.813
141.911
140.958
139.956
138.91
137.821
136.695
135.533
134.339
133.116
131.868
130.598
129.309
128.005
126.689
125.365
124.035
122.703
121.373
120.048
118.731
117.425
116.134
114.86
113.606
112.375
111.168
109.988
108.834
107.709
106.612
105.543
104.5
103.483
102.49
101.519
100.566
99.6292
98.7056
97.7925
96.8872
95.9872
95.0908
94.1965
93.3032
92.4106
91.5188
90.6282
89.7398
88.8547
87.9741
87.0997
86.2328
85.3752
84.5283
83.694
82.8741
82.0703
81.285
80.5205
79.7795
79.0648
78.3796
77.7274
77.1114
76.5353
76.0025
75.516
75.0787
74.6927
74.3597
74.0806
73.8555
73.6839
73.5644
73.4953
73.4741
73.4986
73.5661
73.6745
73.8214
74.0063
74.2268
74.4826
74.7738
75.1006
75.4645
75.8658
146.733
146.652
146.494
146.258
145.945
145.557
145.095
144.563
143.961
143.292
142.56
141.767
140.916
140.01
139.053
138.047
136.997
135.904
134.773
133.607
132.409
131.182
129.93
128.655
127.362
126.054
124.733
123.404
122.07
120.733
119.398
118.069
116.747
115.437
114.141
112.863
111.605
110.37
109.16
107.976
106.82
105.693
104.594
103.524
102.481
101.464
100.471
99.5003
98.5485
97.613
96.6907
95.7788
94.8745
93.9754
93.0795
92.1854
91.292
90.399
89.5065
88.615
87.7256
86.8393
85.9576
85.082
84.2141
83.3554
82.5076
81.6722
80.851
80.046
79.2591
78.4929
77.7498
77.0329
76.3454
75.6905
75.0721
74.4936
73.9587
73.4705
73.0321
72.6457
72.3131
72.0353
71.8123
71.6435
71.5276
71.4624
71.4455
71.4741
71.5456
71.6574
71.8072
71.9937
72.2151
72.4708
72.7608
73.0855
73.4461
73.8431
144.881
144.8
144.641
144.403
144.089
143.698
143.234
142.698
142.092
141.42
140.684
139.886
139.031
138.121
137.159
136.149
135.093
133.996
132.86
131.689
130.486
129.254
127.997
126.717
125.419
124.105
122.779
121.445
120.105
118.763
117.422
116.086
114.759
113.443
112.142
110.859
109.596
108.357
107.142
105.955
104.796
103.666
102.565
101.494
100.45
99.4331
98.4408
97.4707
96.5201
95.5859
94.6651
93.7546
92.8516
91.9535
91.0583
90.1644
89.2709
88.3773
87.4839
86.5913
85.7006
84.8129
83.9299
83.053
82.1838
81.3239
80.4748
79.6381
78.8156
78.009
77.2204
76.452
75.7066
74.987
74.2965
73.6387
73.0171
72.4357
71.8982
71.408
70.9682
70.5813
70.2492
69.9729
69.7525
69.5873
69.4758
69.4155
69.4039
69.4378
69.5142
69.6303
69.7836
69.9723
70.1949
70.4506
70.7394
71.0616
71.4185
71.8105
143.047
142.966
142.805
142.566
142.249
141.856
141.388
140.849
140.239
139.563
138.822
138.02
137.159
136.244
135.277
134.261
133.2
132.097
130.956
129.779
128.57
127.333
126.069
124.784
123.48
122.16
120.827
119.486
118.14
116.791
115.444
114.102
112.768
111.445
110.138
108.849
107.58
106.335
105.116
103.924
102.761
101.628
100.525
99.452
98.4077
97.3906
96.3987
95.4296
94.4804
93.5479
92.6288
91.72
90.8185
89.9215
89.027
88.1334
87.2397
86.3454
85.451
84.5571
83.6647
82.7755
81.8908
81.0123
80.1417
79.2803
78.4299
77.5918
76.7678
75.9594
75.1688
74.398
73.6498
72.9271
72.2332
71.5717
70.9465
70.3616
69.8209
69.3281
68.8866
68.4991
68.1676
67.8931
67.6759
67.515
67.4087
67.3545
67.3492
67.3895
67.4719
67.5931
67.7505
67.942
68.166
68.4218
68.7093
69.0287
69.3815
69.7678
141.232
141.15
140.988
140.747
140.427
140.031
139.56
139.016
138.402
137.72
136.974
136.166
135.3
134.379
133.406
132.384
131.317
130.208
129.06
127.877
126.661
125.417
124.147
122.855
121.544
120.217
118.877
117.529
116.175
114.819
113.464
112.114
110.773
109.443
108.128
106.831
105.556
104.305
103.08
101.883
100.716
99.5792
98.4737
97.3987
96.3535
95.3362
94.3449
93.3769
92.4293
91.4987
90.5817
89.6748
88.775
87.8794
86.9858
86.0925
85.1984
84.3034
83.4077
82.5122
81.6181
80.7269
79.8403
78.9601
78.0877
77.2249
76.3729
75.5333
74.7075
73.8972
73.1043
72.3309
71.5795
70.8532
70.1553
69.4895
68.86
68.271
67.7265
67.2308
66.7872
66.3989
66.068
65.7956
65.582
65.4262
65.3261
65.2791
65.2814
65.3292
65.4186
65.546
65.7082
65.9031
66.1289
66.3848
66.6708
66.9872
67.3353
67.7152
139.434
139.352
139.188
138.945
138.623
138.223
137.747
137.199
136.58
135.893
135.141
134.327
133.454
132.526
131.546
130.518
129.444
128.328
127.173
125.982
124.76
123.508
122.231
120.931
119.612
118.277
116.929
115.573
114.21
112.846
111.482
110.124
108.774
107.435
106.112
104.807
103.524
102.266
101.034
99.8318
98.6598
97.5192
96.4106
95.3335
94.2874
93.2699
92.2791
91.3125
90.3667
89.4383
88.5236
87.619
86.7212
85.8272
84.9346
84.0416
83.1472
82.2513
81.3541
80.4567
79.5605
78.6671
77.7784
76.8961
76.0219
75.1573
74.3037
73.4625
72.6349
71.8225
71.0271
70.2506
69.4957
68.7653
68.0628
67.3922
66.7577
66.1638
65.615
65.1156
64.6695
64.2801
63.9498
63.6798
63.4704
63.3205
63.2277
63.189
63.2002
63.2568
63.3545
63.4891
63.657
63.8558
64.0837
64.3398
64.6242
64.9372
65.2802
65.6531
137.656
137.572
137.407
137.161
136.835
136.432
135.952
135.398
134.773
134.08
133.322
132.501
131.621
130.686
129.699
128.662
127.581
126.457
125.294
124.096
122.865
121.605
120.32
119.012
117.684
116.34
114.984
113.618
112.246
110.872
109.499
108.131
106.771
105.423
104.09
102.776
101.485
100.218
98.9795
97.7704
96.5928
95.4477
94.3356
93.2561
92.2089
91.1911
90.2011
89.236
88.2923
87.3664
86.4544
85.5525
84.657
83.7648
82.8733
81.9807
81.086
80.189
79.2901
78.3905
77.4919
76.596
75.7048
74.8203
73.9441
73.0776
72.2223
71.3793
70.5499
69.7352
68.9371
68.1574
67.3985
66.6636
65.956
65.2798
64.6395
64.0399
63.4859
62.9823
62.5332
62.1424
61.8126
61.5453
61.3406
61.1974
61.1131
61.084
61.1055
61.1725
61.2797
61.4226
61.5972
61.8005
62.0307
62.2871
62.5698
62.8792
63.2166
63.5818
135.895
135.811
135.644
135.395
135.066
134.658
134.173
133.614
132.982
132.282
131.517
130.688
129.801
128.858
127.862
126.818
125.728
124.595
123.424
122.217
120.978
119.709
118.414
117.097
115.76
114.406
113.04
111.664
110.282
108.897
107.514
106.135
104.764
103.405
102.062
100.739
99.4373
98.1618
96.9147
95.6983
94.5145
93.3643
92.2483
91.1661
90.1179
89.0998
88.1105
87.1471
86.2059
85.283
84.3741
83.4751
82.5823
81.6922
80.8021
79.91
79.0149
78.1165
77.2157
76.3136
75.4122
74.5135
73.6196
72.7325
71.8541
70.9857
70.1286
69.2839
68.4524
67.6355
66.8345
66.0512
65.2881
64.548
63.8347
63.1522
62.5053
61.8992
61.3392
60.8305
60.3778
59.9852
59.6558
59.3913
59.1919
59.0564
58.9818
58.9639
58.9973
59.0761
59.1945
59.3469
59.529
59.7375
59.9705
60.2273
60.508
60.8135
61.1449
61.5019
134.153
134.068
133.899
133.648
133.314
132.902
132.411
131.845
131.207
130.5
129.726
128.89
127.994
127.042
126.038
124.984
123.885
122.743
121.562
120.346
119.097
117.819
116.514
115.187
113.839
112.475
111.098
109.711
108.318
106.922
105.526
104.136
102.753
101.383
100.028
98.6933
97.3815
96.096
94.8398
93.6153
92.4246
91.2688
90.1485
89.0635
88.0134
86.9953
86.0071
85.0456
84.1072
83.1876
82.2823
81.3868
80.4971
79.6094
78.7209
77.8293
76.9337
76.034
75.1309
74.226
73.3214
72.4194
71.5225
70.6327
69.7519
68.8815
68.0225
67.176
66.3426
65.5233
64.7193
63.9323
63.1645
62.4189
61.699
61.0094
60.3551
59.7415
59.1745
58.6598
58.2027
57.8079
57.4787
57.2172
57.0237
56.8968
56.8332
56.8281
56.8752
56.9677
57.0988
57.2623
57.453
57.6674
57.9035
58.1606
58.4394
58.7405
59.0656
59.4138
132.43
132.344
132.173
131.918
131.581
131.163
130.666
130.094
129.448
128.733
127.95
127.105
126.2
125.238
124.224
123.161
122.052
120.9
119.709
118.483
117.223
115.935
114.62
113.281
111.923
110.547
109.159
107.76
106.354
104.945
103.537
102.134
100.738
99.355
97.9879
96.6407
95.3171
94.0207
92.7544
91.5211
90.3227
89.1607
88.0357
86.9476
85.8956
84.8774
83.8904
82.9312
81.996
81.0801
80.1789
79.2874
78.4013
77.5164
76.6297
75.7388
74.8427
73.9413
73.0356
72.1275
71.2193
70.3137
69.4134
68.5206
67.6372
66.7647
65.904
65.0557
64.2204
63.3987
62.5917
61.8007
61.0279
60.2762
59.5492
58.8516
58.1888
57.5666
56.9915
56.4698
56.0075
55.6097
55.2805
55.0221
54.8351
54.7179
54.6668
54.6762
54.739
54.8473
54.993
55.1691
55.3696
55.5907
55.8302
56.0877
56.3642
56.6608
56.9791
57.3182
130.727
130.639
130.466
130.207
129.865
129.442
128.938
128.359
127.705
126.98
126.189
125.334
124.419
123.447
122.422
121.349
120.229
119.066
117.865
116.627
115.357
114.057
112.73
111.38
110.01
108.623
107.221
105.809
104.391
102.968
101.546
100.129
98.7193
97.322
95.9411
94.5805
93.2441
91.9356
90.6584
89.4152
88.2084
87.0396
85.9094
84.8178
83.7639
82.7457
81.7599
80.8033
79.8717
78.9602
78.0636
77.1768
76.2947
75.4131
74.5285
73.6385
72.7418
71.8386
70.93
70.0182
69.1059
68.1962
67.292
66.3959
65.5099
64.6353
63.7728
62.9229
62.0858
61.2619
60.4517
59.6566
58.8785
58.1202
57.3854
56.6789
56.0064
55.3744
54.7899
54.26
53.7914
53.39
53.0602
52.8051
52.6251
52.5188
52.4818
52.5078
52.5885
52.7148
52.8773
53.0677
53.2794
53.5079
53.7512
54.0091
54.2831
54.5748
54.8861
55.2156
129.042
128.953
128.777
128.515
128.168
127.738
127.228
126.64
125.977
125.244
124.442
123.577
122.651
121.668
120.632
119.547
118.416
117.242
116.029
114.78
113.498
112.186
110.847
109.484
108.101
106.701
105.286
103.86
102.427
100.99
99.5537
98.1209
96.6961
95.2837
93.8877
92.5125
91.1621
89.8405
88.5512
87.2974
86.0814
84.905
83.7692
82.6738
81.6178
80.5996
79.6153
78.6617
77.7341
76.8276
75.9363
75.0547
74.1773
73.2995
72.4174
71.5284
70.6312
69.7259
68.814
67.8979
66.981
66.0667
65.1583
64.2586
63.3697
62.493
61.6288
60.7775
59.9388
59.1127
58.2996
57.5003
56.7165
55.951
55.2076
54.4912
53.8079
53.1648
52.5695
52.03
51.5538
51.1477
50.817
50.565
50.3927
50.2983
50.2773
50.3221
50.4233
50.5702
50.7518
50.9586
51.1829
51.4198
51.6672
51.9254
52.1966
52.4831
52.787
53.1067
127.378
127.287
127.109
126.842
126.49
126.053
125.535
124.938
124.266
123.522
122.71
121.833
120.895
119.901
118.853
117.756
116.613
115.427
114.201
112.94
111.645
110.32
108.969
107.593
106.197
104.782
103.353
101.912
100.464
99.0117
97.559
96.1099
94.6687
93.2398
91.8276
90.4365
89.0709
87.735
86.4326
85.1671
83.9411
82.7565
81.6145
80.5148
79.4566
78.4387
77.456
76.5056
75.5827
74.6817
73.7965
72.9209
72.049
71.1756
70.2964
69.4086
68.5108
67.6032
66.6875
65.7667
64.8445
63.925
63.0118
62.1083
61.2164
60.3376
59.472
58.6195
57.7795
56.9515
56.1354
55.3319
54.5422
53.7691
53.0163
52.2889
51.5935
50.9376
50.3298
49.7791
49.2939
48.882
48.5496
48.3006
48.1365
48.0554
48.0522
48.1184
48.243
48.4135
48.617
48.8425
49.081
49.3272
49.5789
49.8373
50.1053
50.3862
50.6824
50.9921
125.733
125.641
125.459
125.188
124.83
124.386
123.86
123.254
122.571
121.816
120.992
120.103
119.153
118.146
117.086
115.976
114.819
113.62
112.382
111.107
109.8
108.462
107.096
105.707
104.296
102.866
101.422
99.9659
98.5015
97.0323
95.5624
94.0959
92.637
91.1903
89.7605
88.3523
86.9702
85.6188
84.3021
83.0239
81.787
80.5935
79.4447
78.3405
77.2801
76.2618
75.2813
74.3346
73.417
72.5223
71.644
70.7753
69.9096
69.0413
68.1656
67.2793
66.3809
65.4707
64.5507
63.6245
62.6963
61.7708
60.8524
59.9446
59.0497
58.1688
57.3021
56.4487
55.6077
54.7781
53.9594
53.1516
52.3559
51.5747
50.8116
50.0721
49.3631
48.6928
48.0707
47.5068
47.0108
46.5918
46.2567
46.0105
45.855
45.7885
45.8054
45.8959
46.0472
46.2446
46.4732
46.7198
46.9744
47.2309
47.4874
47.7456
48.0099
48.2848
48.5729
48.8726
124.108
124.015
123.83
123.554
123.189
122.738
122.202
121.586
120.892
120.126
119.289
118.387
117.424
116.404
115.33
114.206
113.036
111.823
110.571
109.283
107.961
106.609
105.229
103.825
102.399
100.954
99.4936
98.0208
96.5391
95.0521
93.5639
92.0787
90.6009
89.1352
87.6864
86.2596
84.8597
83.4915
82.1594
80.8673
79.6186
78.4154
77.2592
76.1501
75.0872
74.0686
73.0906
72.1481
71.2362
70.3487
69.4782
68.6174
67.759
66.8966
66.025
65.1405
64.2415
63.3285
62.4037
61.4712
60.5362
59.604
58.6797
57.7672
56.8692
55.9864
55.1188
54.2651
53.4236
52.5929
51.7718
50.9599
50.158
49.3682
48.5941
47.8413
47.117
46.4303
45.7918
45.2125
44.7038
44.2758
43.9369
43.693
43.5465
43.4961
43.5354
43.6534
43.8352
44.0634
44.3207
44.5914
44.8641
45.1319
45.3933
45.6511
45.9111
46.1795
46.4594
46.7491
122.504
122.409
122.22
121.939
121.568
121.108
120.563
119.935
119.23
118.451
117.601
116.685
115.708
114.673
113.585
112.447
111.263
110.035
108.769
107.466
106.13
104.763
103.368
101.948
100.506
99.045
97.5675
96.0771
94.5771
93.0713
91.5637
90.0585
88.5604
87.0742
85.6051
84.1583
82.7391
81.3527
80.0039
78.6969
77.4353
76.2216
75.0574
73.9429
72.8773
71.8583
70.8833
69.9452
69.0399
68.1604
67.2988
66.447
65.597
64.7415
63.8747
62.9925
62.093
61.1768
60.2465
59.3069
58.364
57.4242
56.4933
55.5758
54.6744
53.79
52.9219
52.0684
51.2271
50.3958
49.5728
48.7571
47.949
47.1501
46.3642
45.5967
44.8555
44.1503
43.4927
42.8956
42.3717
41.9327
41.5885
41.3462
41.2092
41.1762
41.2407
41.3899
41.6064
41.87
42.16
42.4582
42.751
43.0312
43.2976
43.5543
43.8095
44.0711
44.3428
44.6232
120.92
120.823
120.631
120.345
119.966
119.497
118.941
118.302
117.584
116.791
115.927
114.997
114.005
112.955
111.852
110.698
109.499
108.257
106.975
105.657
104.305
102.923
101.512
100.076
98.6176
97.1391
95.6438
94.1349
92.6156
91.0898
89.5615
88.0351
86.5154
85.0073
83.5164
82.0481
80.6081
79.2021
77.8351
76.512
75.2364
74.0113
72.8384
71.7181
70.6494
69.6298
68.6587
67.7253
66.8271
65.9567
65.1052
64.2637
63.4233
62.5759
61.7148
60.8354
59.9355
59.0157
58.0792
57.1315
56.1796
55.2311
54.2927
53.3696
52.4649
51.5791
50.7112
49.8585
49.0181
48.187
47.3627
46.5435
45.7292
44.921
44.1224
43.339
42.5788
41.8527
41.1735
40.5555
40.0136
39.5612
39.2098
38.9681
38.8405
38.8266
38.9191
39.1037
39.3601
39.6643
39.9918
40.321
40.6363
40.9297
41.2008
41.4558
41.7053
41.9601
42.2243
42.4974
119.358
119.259
119.063
118.77
118.383
117.905
117.338
116.687
115.955
115.148
114.269
113.323
112.315
111.249
110.129
108.96
107.745
106.486
105.189
103.855
102.487
101.089
99.6619
98.2091
96.7331
95.2367
93.7227
92.1943
90.6547
89.1078
87.5577
86.0087
84.4659
82.9344
81.4201
79.9287
78.4664
77.0392
75.6527
74.312
73.0214
71.7839
70.6016
69.4749
68.4029
67.3835
66.4144
65.4871
64.5971
63.7367
62.8967
62.067
61.2377
60.3997
59.5453
58.6694
57.7694
56.8457
55.9022
54.9451
53.9829
53.0243
52.0774
51.1482
50.24
49.3533
48.4861
47.6352
46.7967
45.9666
45.1417
44.3196
43.4993
42.6816
41.8695
41.0687
40.2876
39.5379
38.8337
38.1916
37.6283
37.1596
36.7988
36.5562
36.438
36.4446
36.5684
36.7931
37.0951
37.446
37.8165
38.181
38.5212
38.8286
39.1037
39.3557
39.5984
39.8462
40.1047
40.3739
117.817
117.716
117.515
117.217
116.821
116.332
115.754
115.089
114.343
113.52
112.625
111.663
110.638
109.555
108.418
107.232
106
104.725
103.411
102.061
100.677
99.2614
97.8173
96.347
94.853
93.3378
91.8042
90.2554
88.6945
87.1254
85.5522
83.9793
82.4119
80.8555
79.3161
77.7999
76.3136
74.8635
73.456
72.0964
70.7894
69.5386
68.346
67.2123
66.1368
65.1172
64.1506
63.2299
62.3486
61.4996
60.6725
59.8563
59.0399
58.2128
57.3665
56.4949
55.595
54.6671
53.7156
52.7478
51.7735
50.8034
49.8468
48.9109
47.9992
47.1119
46.2463
45.3983
44.5627
43.7348
42.9103
42.086
41.2601
40.4326
39.6063
38.7867
37.9826
37.2062
36.4735
35.8033
35.2148
34.7262
34.353
34.1078
33.9985
34.0269
34.1856
34.456
34.8103
35.215
35.635
36.0395
36.4074
36.7291
37.0073
37.2542
37.4883
37.728
37.9825
38.2525
116.299
116.195
115.99
115.684
115.279
114.78
114.188
113.509
112.747
111.908
110.996
110.016
108.973
107.872
106.718
105.514
104.265
102.973
101.642
100.274
98.8728
97.4401
95.9784
94.49
92.9771
91.4424
89.8885
88.3183
86.7352
85.1427
83.545
81.9469
80.3534
78.7704
77.2042
75.6615
74.1493
72.6747
71.2444
69.8644
68.5399
67.2746
66.0708
64.9295
63.8499
62.8299
61.8659
60.9523
60.0807
59.2442
58.4318
57.631
56.8293
56.0151
55.1785
54.3122
53.4127
52.4803
51.5197
50.5396
49.5514
48.5679
47.6002
46.6568
45.7415
44.8542
43.9913
43.1474
42.3161
41.4916
40.6686
39.8431
39.0121
38.175
37.3339
36.494
35.6645
34.8582
34.0928
33.3899
32.7717
32.259
31.8701
31.6197
31.5182
31.5699
31.7673
32.0894
32.5039
32.9709
33.4481
33.8985
34.2971
34.6339
34.9133
35.1519
35.3737
35.6031
35.854
36.1295
114.802
114.696
114.486
114.173
113.758
113.247
112.641
111.947
111.169
110.312
109.381
108.383
107.321
106.202
105.029
103.807
102.539
101.229
99.8801
98.4949
97.0758
95.6252
94.1452
92.638
91.1057
89.5508
87.9757
86.3833
84.7768
83.1598
81.5365
79.9116
78.2905
76.6792
75.0844
73.5132
71.9733
70.4722
69.0174
67.6154
66.2719
64.9909
63.7751
62.6254
61.5411
60.5202
59.5592
58.6529
57.7919
56.9693
56.1733
55.3902
54.6057
53.8065
52.9813
52.1217
51.2233
50.286
49.3152
48.3207
47.3164
46.3172
45.3368
44.3849
43.4661
42.5795
41.7205
40.8821
40.0567
39.2372
38.4172
37.5916
36.7564
35.9098
35.0533
34.1918
33.3344
32.4945
31.6917
30.9508
30.2977
29.7561
29.3472
29.0884
28.9932
29.069
29.3094
29.6904
30.1743
30.7136
31.2574
31.7606
32.1938
32.5461
32.8243
33.0498
33.254
33.4691
33.7161
34.0012
113.329
113.22
113.004
112.683
112.258
111.734
111.114
110.403
109.607
108.732
107.782
106.763
105.682
104.543
103.35
102.109
100.822
99.4937
98.1264
96.7229
95.2855
93.8164
92.3177
90.7911
89.2388
87.6629
86.0659
84.4504
82.8195
81.1769
79.5266
77.8735
76.2231
74.5818
72.9564
71.3548
69.785
68.2555
66.7743
65.3486
63.9846
62.6868
61.4578
60.2988
59.2093
58.1871
57.2289
56.3297
55.4806
54.6733
53.8958
53.1329
52.3681
51.5866
50.7751
49.9239
49.0273
48.085
47.1025
46.0916
45.0683
44.0507
43.0555
42.0941
41.1718
40.2869
39.4333
38.6022
37.7845
36.9717
36.1564
35.3321
34.4937
33.6382
32.7659
31.8815
30.9937
30.1162
29.2705
28.4854
27.7914
27.2152
26.7813
26.51
26.4185
26.5192
26.8073
27.2555
27.8198
28.4439
29.0655
29.63
30.1022
30.4704
30.7438
30.9498
31.1291
31.3247
31.5673
31.8665
111.878
111.767
111.546
111.216
110.78
110.242
109.606
108.878
108.063
107.167
106.197
105.158
104.056
102.895
101.683
100.421
99.1146
97.7668
96.3805
94.9582
93.502
92.014
90.4959
88.9495
87.3765
85.7791
84.1594
82.5199
80.8637
79.1942
77.5156
75.8328
74.1515
72.4781
70.8202
69.186
67.5842
66.0241
64.5144
63.0633
61.6773
60.3612
59.118
57.9488
56.853
55.829
54.8733
53.9811
53.1451
52.3544
51.5977
50.8579
50.116
49.3552
48.5601
47.7192
46.8256
45.878
44.8826
43.8524
42.8069
41.7678
40.7552
39.7831
38.8573
37.9752
37.1288
36.3071
35.4992
34.6952
33.8864
33.0653
32.2251
31.3612
30.4729
29.5644
28.6439
27.7245
26.8295
25.9933
25.2515
24.6342
24.1696
23.8808
23.7893
23.9151
24.2564
24.7814
25.4392
26.163
26.8764
27.512
28.0279
28.4113
28.6748
28.8525
28.9977
29.1679
29.406
29.7239
110.452
110.338
110.11
109.771
109.323
108.77
108.118
107.371
106.536
105.619
104.627
103.565
102.441
101.259
100.025
98.7425
97.4158
96.0481
94.6423
93.2007
91.7252
90.2178
88.6799
87.113
85.519
83.8994
82.2563
80.592
78.9094
77.2119
75.5037
73.7897
72.0756
70.3684
68.6757
67.0066
65.3704
63.7774
62.2371
60.7586
59.3489
58.0132
56.7545
55.574
54.4711
53.4442
52.4903
51.6051
50.7828
50.0105
49.277
48.5636
47.8482
47.1117
46.3363
45.5083
44.6192
43.6665
42.6563
41.6039
40.5321
39.4675
38.4345
37.4503
36.5211
35.6433
34.8062
33.9963
33.2005
32.4075
31.6075
30.7915
29.9513
29.0802
28.1759
27.2423
26.2871
25.3215
24.3699
23.4746
22.6773
22.0113
21.5093
21.197
21.1001
21.2506
21.6512
22.2645
23.0316
23.8731
24.6947
25.4125
25.976
26.3724
26.6182
26.7569
26.8571
26.995
27.2278
27.5666
109.05
108.932
108.698
108.349
107.889
107.32
106.65
105.883
105.026
104.087
103.071
101.986
100.839
99.6343
98.3776
97.0735
95.7257
94.3375
92.9116
91.4502
89.9551
88.4278
86.8698
85.2821
83.6664
82.0241
80.3568
78.6669
76.957
75.2304
73.4912
71.7443
69.9958
68.2525
66.5229
64.8164
63.1433
61.5148
59.9417
58.4337
56.9986
55.6418
54.3664
53.1733
52.062
51.0311
50.0781
49.1997
48.3905
47.6389
46.9315
46.2484
45.5636
44.8556
44.1037
43.2919
42.4092
41.4518
40.4253
39.347
38.244
37.1489
36.0917
35.0935
34.1613
33.2895
32.4644
31.669
30.8878
30.1083
29.3197
28.5115
27.6736
26.7969
25.8771
24.9181
23.9269
22.9108
21.8939
20.93
20.0685
19.3446
18.7977
18.4539
18.3435
18.5171
18.984
19.699
20.5939
21.5747
22.5236
23.335
23.949
24.3536
24.5722
24.6596
24.7036
24.8024
25.0278
25.3852
107.673
107.552
107.311
106.952
106.477
105.892
105.202
104.413
103.534
102.57
101.53
100.421
99.2485
98.02
96.7401
95.4135
94.0439
92.6347
91.1882
89.7067
88.1915
86.6442
85.0656
83.4568
81.8189
80.1532
78.4612
76.7449
75.0067
73.2499
71.4783
69.6971
67.9121
66.1307
64.3617
62.6152
60.9025
59.2359
57.6273
56.0876
54.6253
53.2459
51.9524
50.7454
49.6243
48.5878
47.6343
46.7615
45.9654
45.2368
44.5584
43.9098
43.2604
42.586
41.8623
41.0706
40.1972
39.2358
38.1911
37.0826
35.9426
34.8108
33.7248
32.7104
31.7757
30.9122
30.1022
29.3246
28.561
27.7979
27.0238
26.2267
25.3942
24.5144
23.58
22.5958
21.5687
20.4981
19.4048
18.3606
17.4243
16.6308
16.0304
15.6457
15.509
15.7014
16.2416
17.0722
18.1155
19.2607
20.3592
21.2771
21.9431
22.3505
22.5326
22.5583
22.5367
22.5905
22.8052
23.1764
106.321
106.196
105.948
105.578
105.089
104.486
103.775
102.963
102.059
101.069
100.003
98.8675
97.6698
96.4162
95.1122
93.7623
92.3704
90.9395
89.4721
87.97
86.4345
84.8667
83.2673
81.637
79.9767
78.2872
76.5698
74.8263
73.0589
71.2707
69.4655
67.6481
65.8249
64.0032
62.1922
60.4029
58.6476
56.9398
55.2931
53.7195
52.2281
50.8246
49.5116
48.2891
47.1565
46.1124
45.1561
44.2872
43.5038
42.8002
42.1542
41.5453
40.9368
40.3018
39.6119
38.8451
37.9849
37.0209
35.9562
34.8124
33.628
32.452
31.3313
30.2982
29.3616
28.5096
27.7188
26.963
26.2203
25.4771
24.7212
23.9392
23.1163
22.2369
21.2893
20.2803
19.2191
18.0902
16.9043
15.7651
14.7418
13.864
13.2024
12.7665
12.5837
12.7871
13.4062
14.3635
15.5736
16.9086
18.1824
19.2226
19.9446
20.3525
20.4939
20.4518
20.3584
20.3621
20.5627
20.9473
104.995
104.867
104.611
104.229
103.724
103.102
102.368
101.532
100.601
99.5842
98.4901
97.327
96.1023
94.8227
93.4936
92.1197
90.7047
89.2517
87.763
86.24
84.684
83.0955
81.4751
79.823
78.1398
76.4261
74.6829
72.9115
71.114
69.2933
67.453
65.598
63.7344
61.8701
60.0145
58.1793
56.3782
54.6261
52.9382
51.3282
49.8058
48.3767
47.0428
45.8033
44.6569
43.6026
42.6406
41.773
41.0016
40.3234
39.715
39.1515
38.5902
38.0016
37.3519
36.6163
35.7741
34.8098
33.7235
32.5383
31.3006
30.0708
28.9081
27.8534
26.9164
26.0799
25.3136
24.5843
23.8662
23.1463
22.4131
21.6506
20.842
19.9674
19.007
17.9721
16.8809
15.6902
14.389
13.1397
12.0186
11.0384
10.3104
9.81062
9.55123
9.75438
10.4558
11.5475
12.9388
14.4852
15.9585
17.1394
17.9272
18.3438
18.4523
18.3443
18.1731
18.1186
18.301
18.7043
103.696
103.564
103.3
102.905
102.383
101.74
100.983
100.121
99.1611
98.1147
96.991
95.7987
94.5457
93.2389
91.8838
90.4852
89.0466
87.5711
86.0607
84.5167
82.9398
81.3306
79.6889
78.0149
76.3086
74.5704
72.8007
71.0008
69.1724
67.3181
65.4414
63.5471
61.6412
59.7317
57.8287
55.9444
54.0939
52.2938
50.5616
48.9126
47.3574
45.9013
44.5451
43.2867
42.124
41.0562
40.0845
39.2144
38.4528
37.801
37.2357
36.7244
36.2175
35.6836
35.0816
34.3844
33.5671
32.6062
31.4966
30.2632
28.9614
27.666
26.4519
25.372
24.4365
23.6207
22.8852
22.1878
21.4972
20.8034
20.0969
19.3578
18.5677
17.7024
16.7274
15.6616
14.5503
13.2993
11.8522
10.4846
9.26058
8.15246
7.35921
6.77978
6.39504
6.58164
7.35827
8.58038
10.1658
11.949
13.6515
14.9953
15.8647
16.3105
16.408
16.243
15.9841
15.8569
16.0181
16.4548
102.425
102.288
102.015
101.607
101.068
100.403
99.6199
98.7284
97.7384
96.6606
95.5053
94.2822
92.9996
91.6644
90.2825
88.8584
87.3958
85.8974
84.365
82.7997
81.202
79.5718
77.9089
76.2128
74.4833
72.7201
70.9237
69.0946
67.2345
65.3456
63.4312
61.4958
59.5456
57.5885
55.6349
53.6981
51.7942
49.9423
48.1622
46.4715
44.8816
43.3973
42.0176
40.7384
39.5565
38.4708
37.4842
36.6061
35.8506
35.2263
34.7104
34.2589
33.8147
33.345
32.7993
32.1496
31.3661
30.4143
29.2807
27.9912
26.6117
25.2355
23.9575
22.848
21.9165
21.1277
20.4309
19.7707
19.1087
18.4419
17.7662
17.0528
16.2842
15.4361
14.4425
13.3359
12.2285
10.9321
9.28993
7.80318
6.46872
5.18939
4.35943
3.70208
3.11301
3.27056
4.13215
5.47466
7.23774
9.26357
11.2293
12.7699
13.7479
14.2588
14.3778
14.1602
13.7883
13.5603
13.697
14.1925
101.181
101.04
100.758
100.336
99.7774
99.0888
98.2783
97.3559
96.3331
95.2215
94.0326
92.7769
91.4632
90.0988
88.6892
87.2391
85.7519
84.2302
82.6757
81.089
79.4704
77.8194
76.1351
74.4169
72.664
70.8758
69.0521
67.1934
65.3008
63.3763
61.4228
59.4448
57.4482
55.4409
53.4337
51.4404
49.4789
47.5707
45.7387
44.0033
42.3772
40.8637
39.4595
38.1575
36.9529
35.8442
34.8357
33.9417
33.1868
32.5909
32.1314
31.7486
31.3769
30.9828
30.5026
29.9113
29.1742
28.2401
27.083
25.7275
24.2528
22.7755
21.417
20.2732
19.35
18.5966
17.9489
17.3326
16.6984
16.0584
15.4211
14.7376
13.9972
13.1878
12.1774
11.009
9.95734
8.64383
6.70701
5.08562
3.61049
2.07823
1.29293
0.571808
-0.402005
-0.257718
0.810757
2.36121
4.30596
6.52792
8.74581
10.4873
11.5823
12.2013
12.3899
12.1178
11.58
11.207
11.3204
11.9053
99.9664
99.821
99.5293
99.0924
98.5135
97.7995
96.959
96.0033
94.9449
93.797
92.5724
91.2823
89.9361
88.5413
87.1034
85.6266
84.1145
82.5693
80.9925
79.3845
77.745
76.0731
74.3677
72.6274
70.851
69.0376
67.1865
65.2976
63.3719
61.4107
59.417
57.3948
55.3497
53.2896
51.2253
49.1714
47.1475
45.1779
43.2895
41.5065
39.8425
38.2994
36.8701
35.5435
34.3122
33.174
32.1345
31.2138
30.451
29.8835
29.4898
29.1862
28.8976
28.5926
28.1877
27.6685
26.9953
26.0914
24.9114
23.4773
21.8851
20.2829
18.8235
17.6417
16.7333
16.0255
15.4427
14.8822
14.2771
13.6686
13.0913
12.4519
11.7576
11.0373
10.0192
8.73817
7.83743
6.53317
4.10985
2.3311
0.682182
-1.25171
-1.83336
-2.68559
-4.24649
-4.05609
-2.98047
-1.31813
1.01777
3.62969
6.26743
8.27472
9.45816
10.1789
10.4587
10.1075
9.31487
8.76128
8.87422
9.58666
98.7806
98.6307
98.3293
97.877
97.2766
96.5353
95.6625
94.6706
93.5737
92.3867
91.1238
89.7974
88.4175
86.9914
85.5244
84.0207
82.4832
80.9144
79.3152
77.6859
76.0257
74.3331
72.6067
70.8444
69.0447
67.2059
65.3271
63.4078
61.4482
59.4496
57.4144
55.3463
53.2507
51.1351
49.0102
46.8914
44.7997
42.7628
40.8129
38.9789
37.2759
35.7034
34.2492
32.8961
31.6334
30.4578
29.376
28.4138
27.6306
27.0895
26.7743
26.561
26.3683
26.169
25.8491
25.4194
24.8333
23.9753
22.7739
21.2475
19.5139
17.7598
16.1689
14.9412
14.0523
13.402
12.9117
12.4322
11.8642
11.3004
10.8257
10.2486
9.61803
9.07925
8.01825
6.50753
5.91357
4.65263
1.33342
-0.282246
-2.13111
-4.43898
-3.24593
-1.61509
-1.4496
-1.33622
-1.81131
-2.88803
-2.70469