/*--------------------------------*- C++ -*----------------------------------*\
| =========                 |                                                 |
| \\      /  F ield         | OpenFOAM: The Open Source CFD Toolbox           |
|  \\    /   O peration     | Version:  2.4.0                                 |
|   \\  /    A nd           | Web:      www.OpenFOAM.org                      |
|    \\/     M anipulation  |                                                 |
\*---------------------------------------------------------------------------*/
FoamFile
{
    version     2.0;
    format      ascii;
    class       surfaceScalarField;
    location    "0.224";
    object      phi;
}
// * * * * * * * * * * * * * * * * * * * * * * * * * * * * * * * * * * * * * //

dimensions      [0 3 -1 0 0 0 0];

internalField   nonuniform List<scalar> 
19800
(
3.93883e-13
-3.93883e-13
1.2438e-12
-8.50712e-13
2.50997e-12
-1.25477e-12
4.10528e-12
-1.5924e-12
5.95992e-12
-1.85723e-12
8.00601e-12
-2.04885e-12
1.0178e-11
-2.17329e-12
1.24155e-11
-2.23796e-12
1.46631e-11
-2.24807e-12
1.68691e-11
-2.20638e-12
1.89834e-11
-2.11454e-12
2.09581e-11
-1.97467e-12
2.27486e-11
-1.79044e-12
2.43165e-11
-1.5679e-12
2.56323e-11
-1.31588e-12
2.66784e-11
-1.04596e-12
2.74508e-11
-7.72169e-13
2.79622e-11
-5.11241e-13
2.82292e-11
-2.67049e-13
2.82987e-11
-6.99938e-14
2.82124e-11
8.57139e-14
2.80192e-11
1.92728e-13
2.77665e-11
2.52695e-13
2.74966e-11
2.70392e-13
2.72441e-11
2.53092e-13
2.70353e-11
2.09355e-13
2.68841e-11
1.51265e-13
2.68189e-11
6.48353e-14
2.68517e-11
-3.34399e-14
2.69839e-11
-1.32696e-13
2.72091e-11
-2.25548e-13
2.7512e-11
-3.03216e-13
2.78573e-11
-3.4577e-13
2.81969e-11
-3.40346e-13
2.84829e-11
-2.87165e-13
2.86775e-11
-1.95807e-13
2.87529e-11
-7.64761e-14
2.86864e-11
6.56973e-14
2.84536e-11
2.32346e-13
2.80236e-11
4.29919e-13
2.73585e-11
6.65117e-13
2.6416e-11
9.42527e-13
2.51511e-11
1.26502e-12
2.35228e-11
1.62834e-12
2.14979e-11
2.02492e-12
1.90539e-11
2.444e-12
1.61811e-11
2.87276e-12
1.28832e-11
3.29755e-12
9.17788e-12
3.7048e-12
4.08173e-12
5.09551e-12
7.20251e-13
-1.11316e-12
2.31829e-12
-2.46833e-12
4.79883e-12
-3.73941e-12
8.05983e-12
-4.85068e-12
1.19733e-11
-5.76877e-12
1.6403e-11
-6.4795e-12
2.12118e-11
-6.98424e-12
2.62647e-11
-7.29263e-12
3.14293e-11
-7.41346e-12
3.65739e-11
-7.35096e-12
4.15665e-11
-7.10683e-12
4.62767e-11
-6.68468e-12
5.05803e-11
-6.09418e-12
5.43665e-11
-5.35427e-12
5.75454e-11
-4.49484e-12
6.00562e-11
-3.55665e-12
6.18734e-11
-2.58934e-12
6.30087e-11
-1.64688e-12
6.35196e-11
-7.78708e-13
6.34894e-11
-4.08246e-14
6.30337e-11
5.40725e-13
6.22784e-11
9.48077e-13
6.13526e-11
1.17909e-12
6.03771e-11
1.24661e-12
5.94573e-11
1.1734e-12
5.86805e-11
9.86032e-13
5.81205e-11
7.10616e-13
5.7823e-11
3.61496e-13
5.78292e-11
-4.04405e-14
5.81603e-11
-4.64442e-13
5.88152e-11
-8.81283e-13
5.97458e-11
-1.23491e-12
6.08564e-11
-1.45798e-12
6.20174e-11
-1.50329e-12
6.3095e-11
-1.36667e-12
6.39738e-11
-1.07628e-12
6.45596e-11
-6.63406e-13
6.47678e-11
-1.43129e-13
6.45099e-11
4.89825e-13
6.36849e-11
1.25479e-12
6.21799e-11
2.17025e-12
5.98702e-11
3.25256e-12
5.66364e-11
4.49916e-12
5.23718e-11
5.89328e-12
4.69925e-11
7.40414e-12
4.04455e-11
8.99066e-12
3.27122e-11
1.06054e-11
2.38108e-11
1.21982e-11
1.37953e-11
1.37195e-11
1.5122e-11
2.75465e-12
1.08566e-12
-2.18742e-12
3.54547e-12
-4.93072e-12
7.19033e-12
-7.38844e-12
1.18919e-11
-9.55354e-12
1.74954e-11
-1.13721e-11
2.38271e-11
-1.28114e-11
3.07055e-11
-1.38634e-11
3.79467e-11
-1.45346e-11
4.53648e-11
-1.48319e-11
5.27701e-11
-1.47561e-11
5.99689e-11
-1.43054e-11
6.67673e-11
-1.34833e-11
7.29789e-11
-1.23063e-11
7.84351e-11
-1.0811e-11
8.29971e-11
-9.05736e-12
8.65688e-11
-7.12874e-12
8.91069e-11
-5.1279e-12
9.06275e-11
-3.16825e-12
9.12052e-11
-1.3572e-12
9.09755e-11
1.88009e-13
9.0105e-11
1.4107e-12
8.87857e-11
2.26714e-12
8.72137e-11
2.75101e-12
8.55724e-11
2.88794e-12
8.40202e-11
2.72544e-12
8.26852e-11
2.32064e-12
8.16677e-11
1.72771e-12
8.1039e-11
9.89824e-13
8.08647e-11
1.33435e-13
8.11572e-11
-7.57714e-13
8.19231e-11
-1.64826e-12
8.30927e-11
-2.40583e-12
8.45161e-11
-2.88274e-12
8.5986e-11
-2.97434e-12
8.72919e-11
-2.67353e-12
8.82593e-11
-2.04443e-12
8.87484e-11
-1.15333e-12
8.86327e-11
-2.81927e-14
8.77777e-11
1.34437e-12
8.60277e-11
3.00496e-12
8.31994e-11
4.99926e-12
7.91029e-11
7.35006e-12
7.3553e-11
1.00499e-11
6.63872e-11
1.30593e-11
5.74808e-11
1.63103e-11
4.67572e-11
1.97139e-11
3.41941e-11
2.31683e-11
1.98259e-11
2.65668e-11
3.74383e-12
2.98026e-11
3.27741e-11
-1.39074e-11
1.45573e-12
-3.64062e-12
4.72344e-12
-8.19406e-12
9.45767e-12
-1.2123e-11
1.54584e-11
-1.55554e-11
2.25331e-11
-1.84475e-11
3.04785e-11
-2.07572e-11
3.90829e-11
-2.2468e-11
4.81289e-11
-2.35808e-11
5.73926e-11
-2.40955e-11
6.66405e-11
-2.40039e-11
7.56304e-11
-2.32954e-11
8.41159e-11
-2.19694e-11
9.18566e-11
-2.0048e-11
9.86318e-11
-1.75873e-11
1.04257e-10
-1.46839e-11
1.08603e-10
-1.1475e-11
1.11607e-10
-8.13302e-12
1.13289e-10
-4.85071e-12
1.13745e-10
-1.81424e-12
1.13154e-10
7.78324e-13
1.11739e-10
2.82552e-12
1.09755e-10
4.24998e-12
1.07463e-10
5.04208e-12
1.05102e-10
5.24784e-12
1.02875e-10
4.95293e-12
1.00935e-10
4.26011e-12
9.93962e-11
3.26641e-12
9.83378e-11
2.04801e-12
9.78215e-11
6.49118e-13
9.78909e-11
-8.28187e-13
9.85508e-11
-2.3092e-12
9.97211e-11
-3.57699e-12
1.01192e-10
-4.35386e-12
1.02659e-10
-4.44143e-12
1.03827e-10
-3.84192e-12
1.04477e-10
-2.69539e-12
1.04453e-10
-1.12986e-12
1.03611e-10
8.12985e-13
1.01796e-10
3.15872e-12
9.88014e-11
6.0005e-12
9.43865e-11
9.41547e-12
8.82959e-11
1.3442e-11
8.02819e-11
1.80645e-11
7.01301e-11
2.32113e-11
5.76786e-11
2.87618e-11
4.2832e-11
3.45612e-11
2.55678e-11
4.04339e-11
5.94011e-12
4.61963e-11
-1.59213e-11
5.16657e-11
5.66711e-11
-3.98175e-11
1.78038e-12
-5.42318e-12
5.76774e-12
-1.21777e-11
1.14855e-11
-1.78392e-11
1.86528e-11
-2.27228e-11
2.70314e-11
-2.68266e-11
3.63886e-11
-3.01148e-11
4.64888e-11
-3.25684e-11
5.70903e-11
-3.41822e-11
6.79401e-11
-3.49453e-11
7.87703e-11
-3.48342e-11
8.92969e-11
-3.38226e-11
9.92261e-11
-3.18995e-11
1.08265e-10
-2.90886e-11
1.16141e-10
-2.54645e-11
1.22621e-10
-2.11644e-11
1.27535e-10
-1.639e-11
1.30801e-10
-1.14e-11
1.32441e-10
-6.49061e-12
1.3257e-10
-1.94344e-12
1.31424e-10
1.92349e-12
1.29285e-10
4.96304e-12
1.26484e-10
7.04929e-12
1.23352e-10
8.1729e-12
1.20187e-10
8.4125e-12
1.17228e-10
7.91121e-12
1.14648e-10
6.83973e-12
1.12558e-10
5.35663e-12
1.11027e-10
3.57913e-12
1.10099e-10
1.57641e-12
1.09857e-10
-5.87566e-13
1.10331e-10
-2.78296e-12
1.11449e-10
-4.69541e-12
1.12925e-10
-5.8288e-12
1.14306e-10
-5.82243e-12
1.15185e-10
-4.72141e-12
1.15317e-10
-2.82836e-12
1.14567e-10
-3.81424e-13
1.12808e-10
2.57175e-12
1.0989e-10
6.07676e-12
1.05556e-10
1.03356e-11
9.95075e-11
1.54654e-11
9.14175e-11
2.15329e-11
8.09717e-11
2.8511e-11
6.79012e-11
3.62825e-11
5.20078e-11
4.46566e-11
3.31791e-11
5.33918e-11
1.13968e-11
6.22183e-11
-1.32615e-11
7.08559e-11
-4.06258e-11
7.90304e-11
8.64865e-11
-7.04417e-11
2.05874e-12
-7.48347e-12
6.66777e-12
-1.67854e-11
1.32502e-11
-2.44203e-11
2.14514e-11
-3.09235e-11
3.09868e-11
-3.63621e-11
4.15953e-11
-4.07234e-11
5.30208e-11
-4.39941e-11
6.50027e-11
-4.61641e-11
7.72656e-11
-4.72082e-11
8.95121e-11
-4.70808e-11
1.01421e-10
-4.57315e-11
1.1265e-10
-4.31302e-11
1.22855e-10
-3.9294e-11
1.31701e-10
-3.43122e-11
1.38899e-10
-2.83635e-11
1.44232e-10
-2.17234e-11
1.47588e-10
-1.47557e-11
1.48982e-10
-7.88488e-12
1.48582e-10
-1.54328e-12
1.4665e-10
3.85394e-12
1.43573e-10
8.03886e-12
1.39769e-10
1.0852e-11
1.35655e-10
1.22857e-11
1.31598e-10
1.24685e-11
1.27879e-10
1.16298e-11
1.24677e-10
1.00422e-11
1.22078e-10
7.95541e-12
1.20113e-10
5.54336e-12
1.18807e-10
2.8822e-12
1.18255e-10
-3.59802e-14
1.18583e-10
-3.1097e-12
1.19774e-10
-5.88595e-12
1.21433e-10
-7.48701e-12
1.22858e-10
-7.24783e-12
1.23472e-10
-5.33615e-12
1.23039e-10
-2.39668e-12
1.21505e-10
1.15169e-12
1.18845e-10
5.23091e-12
1.14873e-10
1.00493e-11
1.09316e-10
1.58927e-11
1.01796e-10
2.29865e-11
9.18977e-11
3.14321e-11
7.9227e-11
4.11831e-11
6.34531e-11
5.20584e-11
4.43388e-11
6.37731e-11
2.17569e-11
7.59755e-11
-4.30289e-12
8.82788e-11
-3.37353e-11
1.00288e-10
-6.63271e-11
1.11621e-10
1.21924e-10
-1.01765e-10
2.29464e-12
-9.77785e-12
7.43043e-12
-2.19209e-11
1.47553e-11
-3.17443e-11
2.3855e-11
-4.00226e-11
3.44047e-11
-4.69115e-11
4.61183e-11
-5.24372e-11
5.87241e-11
-5.66e-11
7.1947e-11
-5.93871e-11
8.54944e-11
-6.07554e-11
9.90438e-11
-6.06301e-11
1.12238e-10
-5.89262e-11
1.2469e-10
-5.5582e-11
1.35991e-10
-5.05963e-11
1.45742e-10
-4.40635e-11
1.5358e-10
-3.62015e-11
1.59224e-10
-2.73672e-11
1.62519e-10
-1.80505e-11
1.63474e-10
-8.84023e-12
1.62289e-10
-3.58566e-13
1.59314e-10
6.82762e-12
1.5504e-10
1.23116e-11
1.50006e-10
1.5885e-11
1.44744e-10
1.75472e-11
1.39711e-10
1.75012e-11
1.35235e-10
1.61053e-11
1.3149e-10
1.37858e-11
1.28515e-10
1.09307e-11
1.26258e-10
7.79987e-12
1.24671e-10
4.46933e-12
1.23869e-10
7.67889e-13
1.24159e-10
-3.399e-12
1.257e-10
-7.4266e-12
1.27945e-10
-9.73255e-12
1.29737e-10
-9.04029e-12
1.30223e-10
-5.82393e-12
1.29271e-10
-1.4459e-12
1.27019e-10
3.40268e-12
1.2359e-10
8.6597e-12
1.18821e-10
1.48179e-11
1.12368e-10
2.23459e-11
1.03744e-10
3.16112e-11
9.24182e-11
4.27591e-11
7.78966e-11
5.5707e-11
5.97758e-11
7.01815e-11
3.77768e-11
8.57735e-11
1.17595e-11
1.01993e-10
-1.82737e-11
1.18311e-10
-5.21853e-11
1.34198e-10
-8.97133e-11
1.49148e-10
1.62692e-10
-1.30481e-10
2.49179e-12
-1.22686e-11
8.06329e-12
-2.74916e-11
1.60063e-11
-3.96865e-11
2.58626e-11
-4.98781e-11
3.72768e-11
-5.83254e-11
4.99454e-11
-6.51057e-11
6.35865e-11
-7.0241e-11
7.79174e-11
-7.37177e-11
9.26339e-11
-7.54714e-11
1.07394e-10
-7.53897e-11
1.21808e-10
-7.33403e-11
1.3544e-10
-6.92137e-11
1.47816e-10
-6.29728e-11
1.58454e-10
-5.47011e-11
1.669e-10
-4.46465e-11
1.72783e-10
-3.32503e-11
1.75885e-10
-2.11515e-11
1.76194e-10
-9.14905e-12
1.73948e-10
1.88732e-12
1.69613e-10
1.11614e-11
1.63823e-10
1.8101e-11
1.57276e-10
2.24315e-11
1.5066e-10
2.4163e-11
1.44555e-10
2.36049e-11
1.39354e-10
2.13053e-11
1.35218e-10
1.79201e-11
1.321e-10
1.40486e-11
1.29804e-10
1.00961e-11
1.28105e-10
6.16954e-12
1.27095e-10
1.77906e-12
1.27433e-10
-3.73658e-12
1.29715e-10
-9.70886e-12
1.332e-10
-1.32191e-11
1.35851e-10
-1.16924e-11
1.36362e-10
-6.3366e-12
1.34912e-10
3.44301e-15
1.32095e-10
6.21934e-12
1.28174e-10
1.25795e-11
1.23039e-10
1.99512e-11
1.16216e-10
2.91685e-11
1.0705e-10
4.07781e-11
9.48507e-11
5.49605e-11
7.8997e-11
7.15625e-11
5.90029e-11
9.01766e-11
3.45475e-11
1.10229e-10
5.48325e-12
1.31056e-10
-2.81688e-11
1.51961e-10
-6.62328e-11
1.72261e-10
-1.08392e-10
1.91308e-10
2.08505e-10
-1.54204e-10
2.65137e-12
-1.49189e-11
8.56521e-12
-3.34037e-11
1.69935e-11
-4.81136e-11
2.7449e-11
-6.03328e-11
3.95579e-11
-7.0434e-11
5.30089e-11
-7.85565e-11
6.75187e-11
-8.47503e-11
8.28048e-11
-8.9003e-11
9.85603e-11
-9.1226e-11
1.14431e-10
-9.126e-11
1.30002e-10
-8.89105e-11
1.44789e-10
-8.40001e-11
1.58248e-10
-7.64308e-11
1.69797e-10
-6.62497e-11
1.78865e-10
-5.37139e-11
1.8496e-10
-3.93441e-11
1.87758e-10
-2.39487e-11
1.87202e-10
-8.59349e-12
1.83578e-10
5.51171e-12
1.77498e-10
1.72409e-11
1.69795e-10
2.58046e-11
1.61375e-10
3.08515e-11
1.53139e-10
3.23978e-11
1.45844e-10
3.08982e-11
1.39972e-10
2.71751e-11
1.35669e-10
2.2222e-11
1.32768e-10
1.69501e-11
1.30843e-10
1.20215e-11
1.29296e-10
7.71813e-12
1.28053e-10
3.02214e-12
1.28348e-10
-4.03269e-12
1.31807e-10
-1.31694e-11
1.37502e-10
-1.89152e-11
1.41653e-10
-1.58439e-11
1.42209e-10
-6.89384e-12
1.4019e-10
2.02133e-12
1.36925e-10
9.48402e-12
1.32973e-10
1.65301e-11
1.28123e-10
2.47994e-11
1.21673e-10
3.56188e-11
1.12714e-10
4.97382e-11
1.00342e-10
6.73326e-11
8.37891e-11
8.8116e-11
6.24802e-11
1.11485e-10
3.60584e-11
1.3665e-10
4.37847e-12
1.62735e-10
-3.25102e-11
1.8885e-10
-7.43847e-11
2.14136e-10
-1.20868e-10
2.37792e-10
2.59084e-10
-1.71447e-10
2.77063e-12
-1.76884e-11
8.9234e-12
-3.95545e-11
1.76864e-11
-5.68753e-11
2.85576e-11
-7.12034e-11
4.11584e-11
-8.30344e-11
5.51803e-11
-9.2578e-11
7.03494e-11
-9.99185e-11
8.63946e-11
-1.05047e-10
1.03018e-10
-1.07848e-10
1.19866e-10
-1.08107e-10
1.36507e-10
-1.05551e-10
1.52418e-10
-9.99104e-11
1.66982e-10
-9.09934e-11
1.79506e-10
-7.87725e-11
1.8927e-10
-6.34762e-11
1.95607e-10
-4.56806e-11
1.98033e-10
-2.63742e-11
1.96396e-10
-6.95697e-12
1.91026e-10
1.08823e-11
1.82736e-10
2.55322e-11
1.72629e-10
3.59119e-11
1.61877e-10
4.16024e-11
1.51675e-10
4.2598e-11
1.4303e-10
3.95411e-11
1.36555e-10
3.36484e-11
1.32375e-10
2.64012e-11
1.30199e-10
1.91263e-11
1.29316e-10
1.29054e-11
1.28387e-10
8.64725e-12
1.26793e-10
4.61566e-12
1.26571e-10
-3.81242e-12
1.31568e-10
-1.81671e-11
1.40821e-10
-2.8169e-11
1.47193e-10
-2.22173e-11
1.47421e-10
-7.12231e-12
1.4453e-10
4.91109e-12
1.4107e-10
1.29432e-11
1.37786e-10
1.98129e-11
1.34154e-10
2.84306e-11
1.29057e-10
4.07154e-11
1.21229e-10
5.75659e-11
1.09508e-10
7.9053e-11
9.29638e-11
1.0466e-10
7.09439e-11
1.33505e-10
4.30715e-11
1.64523e-10
9.22098e-12
1.96586e-10
-3.05155e-11
2.28587e-10
-7.58581e-11
2.59478e-10
-1.26365e-10
2.88298e-10
3.1417e-10
-1.8145e-10
2.84308e-12
-2.05304e-11
9.11532e-12
-4.58252e-11
1.80368e-11
-6.5796e-11
2.91057e-11
-8.2272e-11
4.19513e-11
-9.58796e-11
5.62805e-11
-1.06906e-10
7.18404e-11
-1.15477e-10
8.83847e-11
-1.2159e-10
1.05639e-10
-1.25102e-10
1.23269e-10
-1.25736e-10
1.40845e-10
-1.23126e-10
1.5782e-10
-1.16884e-10
1.73513e-10
-1.06685e-10
1.87114e-10
-9.23714e-11
1.97719e-10
-7.40805e-11
2.04427e-10
-5.23877e-11
2.06496e-10
-2.84438e-11
2.03589e-10
-4.04967e-12
1.96057e-10
1.84151e-11
1.84998e-10
3.65922e-11
1.71897e-10
4.90125e-11
1.58238e-10
5.52606e-11
1.45618e-10
5.52163e-11
1.35405e-10
4.97515e-11
1.28394e-10
4.06586e-11
1.24659e-10
3.01353e-11
1.23802e-10
1.99834e-11
1.25032e-10
1.16759e-11
1.25746e-10
7.93206e-12
1.23688e-10
6.67355e-12
1.21846e-10
-1.97117e-12
1.28463e-10
-2.47842e-11
1.42853e-10
-4.25595e-11
1.5208e-10
-3.14448e-11
1.50802e-10
-5.8461e-12
1.46552e-10
9.16008e-12
1.43493e-10
1.60016e-11
1.42067e-10
2.12386e-11
1.40975e-10
2.95217e-11
1.38465e-10
4.32245e-11
1.32835e-10
6.31945e-11
1.22653e-10
8.92334e-11
1.06848e-10
1.20464e-10
8.47198e-11
1.55635e-10
5.59016e-11
1.93342e-10
2.03138e-11
2.32174e-10
-2.18899e-11
2.7079e-10
-7.03636e-11
3.07952e-10
-1.24599e-10
3.42533e-10
3.73514e-10
-1.83943e-10
2.86006e-12
-2.33895e-11
9.11313e-12
-5.20779e-11
1.79877e-11
-7.46707e-11
2.89968e-11
-9.32811e-11
4.17901e-11
-1.08673e-10
5.6102e-11
-1.21218e-10
7.17128e-11
-1.31087e-10
8.84151e-11
-1.38292e-10
1.05977e-10
-1.42663e-10
1.24103e-10
-1.43862e-10
1.42396e-10
-1.41417e-10
1.60314e-10
-1.34801e-10
1.77138e-10
-1.23508e-10
1.9195e-10
-1.07181e-10
2.03641e-10
-8.57712e-11
2.10997e-10
-5.97433e-11
2.12885e-10
-3.03309e-11
2.08594e-10
2.41422e-13
1.98444e-10
2.85653e-11
1.83958e-10
5.10785e-11
1.67182e-10
6.57878e-11
1.49899e-10
7.25418e-11
1.34277e-10
7.08376e-11
1.22214e-10
6.18128e-11
1.14734e-10
4.81385e-11
1.11767e-10
3.31025e-11
1.1269e-10
1.90598e-11
1.17122e-10
7.2439e-12
1.22122e-10
2.93251e-12
1.20718e-10
8.07748e-12
1.14751e-10
3.99603e-12
1.2203e-10
-3.20631e-11
1.43177e-10
-6.37071e-11
1.55002e-10
-4.32713e-11
1.49454e-10
-2.99329e-13
1.43723e-10
1.48904e-11
1.42866e-10
1.68582e-11
1.45369e-10
1.87354e-11
1.48572e-10
2.63173e-11
1.50054e-10
4.17406e-11
1.47728e-10
6.55185e-11
1.39949e-10
9.70118e-11
1.25563e-10
1.34851e-10
1.03873e-10
1.77325e-10
7.45701e-11
2.22645e-10
3.76501e-11
2.69093e-10
-6.65405e-12
3.15093e-10
-5.7926e-11
3.59224e-10
-1.15597e-10
4.00205e-10
4.36874e-10
-1.78957e-10
2.81277e-12
-2.62019e-11
8.88902e-12
-5.8155e-11
1.74827e-11
-8.32652e-11
2.81355e-11
-1.03934e-10
4.05296e-11
-1.21067e-10
5.44365e-11
-1.35124e-10
6.96806e-11
-1.46331e-10
8.61063e-11
-1.54718e-10
1.03542e-10
-1.601e-10
1.21761e-10
-1.6208e-10
1.40431e-10
-1.60086e-10
1.59066e-10
-1.53433e-10
1.76959e-10
-1.41399e-10
1.93124e-10
-1.23346e-10
2.06257e-10
-9.89034e-11
2.14759e-10
-6.82447e-11
2.16913e-10
-3.24847e-11
2.11312e-10
5.84289e-12
1.98064e-10
4.18132e-11
1.79371e-10
6.9771e-11
1.58174e-10
8.69841e-11
1.36382e-10
9.43323e-11
1.17028e-10
9.01917e-11
1.02824e-10
7.60163e-11
9.50296e-11
5.59333e-11
9.30499e-11
3.50821e-11
9.61764e-11
1.59334e-11
1.03808e-10
-3.87448e-13
1.15069e-10
-8.32649e-12
1.22586e-10
5.61785e-13
1.13385e-10
1.31971e-11
1.10333e-10
-2.9012e-11
1.40802e-10
-9.41776e-11
1.4818e-10
-5.06515e-11
1.34797e-10
1.30824e-11
1.32145e-10
1.7542e-11
1.38739e-10
1.02635e-11
1.48276e-10
9.19744e-12
1.57604e-10
1.69873e-11
1.64318e-10
3.50257e-11
1.66203e-10
6.36324e-11
1.61517e-10
1.01698e-10
1.49087e-10
1.4728e-10
1.28278e-10
1.98133e-10
9.88824e-11
2.52039e-10
6.10025e-11
3.06972e-10
1.49591e-11
3.61136e-10
-3.8766e-11
4.12949e-10
-9.95586e-11
4.60998e-10
5.03989e-10
-1.66675e-10
2.69418e-12
-2.88966e-11
8.42069e-12
-6.38828e-11
1.64765e-11
-9.13218e-11
2.64446e-11
-1.13902e-10
3.80493e-11
-1.32671e-10
5.11061e-11
-1.48181e-10
6.54899e-11
-1.60715e-10
8.11063e-11
-1.70335e-10
9.78598e-11
-1.76853e-10
1.15616e-10
-1.79835e-10
1.34155e-10
-1.78624e-10
1.53106e-10
-1.72383e-10
1.71864e-10
-1.60155e-10
1.89467e-10
-1.40949e-10
2.04484e-10
-1.13919e-10
2.14915e-10
-7.8676e-11
2.18248e-10
-3.58172e-11
2.11795e-10
1.22951e-11
1.94974e-10
5.86342e-11
1.71094e-10
9.36501e-11
1.44702e-10
1.13377e-10
1.17291e-10
1.21743e-10
9.34041e-11
1.14079e-10
7.69967e-11
9.24241e-11
6.93991e-11
6.35311e-11
6.85012e-11
3.59803e-11
7.3285e-11
1.11506e-11
8.30126e-11
-1.01133e-11
9.82839e-11
-2.3596e-11
1.19191e-10
-2.03447e-11
1.31709e-10
6.78815e-13
1.29732e-10
-2.70369e-11
9.93678e-11
-6.38154e-11
1.03202e-10
-5.4487e-11
1.01691e-10
1.45917e-11
1.18148e-10
1.08485e-12
1.36891e-10
-8.48142e-12
1.54328e-10
-8.24085e-12
1.69983e-10
1.33177e-12
1.82187e-10
2.28214e-11
1.88616e-10
5.72029e-11
1.87364e-10
1.02949e-10
1.77215e-10
1.57427e-10
1.576e-10
2.17745e-10
1.28436e-10
2.81201e-10
8.99507e-11
3.45457e-10
4.25522e-11
4.08534e-10
-1.32319e-11
4.68733e-10
-7.6774e-11
5.2454e-10
5.74549e-10
-1.47334e-10
2.50066e-12
-3.13982e-11
7.69646e-12
-6.90796e-11
1.49447e-11
-9.85703e-11
2.38815e-11
-1.22839e-10
3.42786e-11
-1.43068e-10
4.59983e-11
-1.59901e-10
5.89657e-11
-1.73683e-10
7.31482e-11
-1.84518e-10
8.85325e-11
-1.92237e-10
1.05096e-10
-1.96398e-10
1.22771e-10
-1.96298e-10
1.41378e-10
-1.9099e-10
1.60528e-10
-1.79305e-10
1.79449e-10
-1.59869e-10
1.96755e-10
-1.31226e-10
2.10191e-10
-9.21113e-11
2.16321e-10
-4.19477e-11
2.10223e-10
1.8393e-11
1.89626e-10
7.92304e-11
1.59064e-10
1.24212e-10
1.26613e-10
1.45828e-10
9.20265e-11
1.56331e-10
6.3064e-11
1.43042e-10
4.52564e-11
1.10232e-10
3.92887e-11
6.9499e-11
4.04005e-11
3.48694e-11
4.48112e-11
6.74159e-12
5.17258e-11
-1.70261e-11
6.19681e-11
-3.38373e-11
7.66476e-11
-3.50246e-11
7.41954e-11
3.12944e-12
8.65888e-11
-3.9432e-11
1.0309e-10
-8.0318e-11
9.64381e-11
-4.78364e-11
9.97213e-11
1.1307e-11
1.27672e-10
-2.68677e-11
1.47748e-10
-2.8559e-11
1.67156e-10
-2.76494e-11
1.86813e-10
-1.83258e-11
2.03801e-10
5.83339e-12
2.14743e-10
4.626e-11
2.17074e-10
1.00616e-10
2.09396e-10
1.65101e-10
1.91206e-10
2.35932e-10
1.62575e-10
3.0983e-10
1.23872e-10
3.8416e-10
7.55835e-11
4.56823e-10
1.82435e-11
5.26072e-10
-4.75616e-11
5.90346e-10
6.48143e-10
-1.21152e-10
2.23328e-12
-3.36322e-11
6.71971e-12
-7.35658e-11
1.2894e-11
-1.04744e-10
2.0454e-11
-1.30399e-10
2.92218e-11
-1.51836e-10
3.9102e-11
-1.69782e-10
5.00619e-11
-1.84644e-10
6.21195e-11
-1.96575e-10
7.53339e-11
-2.05451e-10
8.97944e-11
-2.10858e-10
1.05604e-10
-2.12107e-10
1.22842e-10
-2.08228e-10
1.41465e-10
-1.97929e-10
1.61117e-10
-1.79521e-10
1.80767e-10
-1.50876e-10
1.98279e-10
-1.09623e-10
2.09846e-10
-5.35148e-11
2.06653e-10
2.15857e-11
1.82795e-10
1.03089e-10
1.4347e-10
1.63538e-10
1.03092e-10
1.86206e-10
5.91297e-11
2.00294e-10
2.53171e-11
1.76854e-10
8.61987e-12
1.26929e-10
9.25094e-12
6.88685e-11
1.42221e-11
2.98997e-11
2.01081e-11
8.57184e-13
2.47268e-11
-2.16441e-11
2.56695e-11
-3.47805e-11
2.00856e-11
-2.94418e-11
7.49288e-11
-5.17149e-11
6.4243e-11
-2.87469e-11
5.59444e-11
-7.20201e-11
4.82471e-11
-4.01404e-11
1.36403e-10
-7.6851e-11
1.43793e-10
-3.42591e-11
1.58344e-10
-4.31113e-11
1.79454e-10
-4.87595e-11
2.03846e-10
-4.27179e-11
2.26686e-10
-1.70083e-11
2.4298e-10
2.99639e-11
2.49433e-10
9.41605e-11
2.44558e-10
1.69974e-10
2.28071e-10
2.52417e-10
2.00332e-10
3.37567e-10
1.61912e-10
4.2258e-10
1.13362e-10
5.05373e-10
5.51626e-11
5.84273e-10
-1.22256e-11
6.57735e-10
7.24187e-10
-8.82674e-11
1.89862e-12
-3.55309e-11
5.51219e-12
-7.71782e-11
1.03683e-11
-1.09599e-10
1.62334e-11
-1.36263e-10
2.29783e-11
-1.58581e-10
3.0541e-11
-1.77344e-10
3.89135e-11
-1.93016e-10
4.81398e-11
-2.05801e-10
5.83195e-11
-2.1563e-10
6.96204e-11
-2.22159e-10
8.22947e-11
-2.24782e-10
9.66891e-11
-2.22623e-10
1.1321e-10
-2.1445e-10
1.32168e-10
-1.9848e-10
1.53341e-10
-1.72049e-10
1.75121e-10
-1.31404e-10
1.94604e-10
-7.29976e-11
2.02174e-10
1.40159e-11
1.7468e-10
1.30584e-10
1.24148e-10
2.1407e-10
7.18113e-11
2.38542e-10
1.44017e-11
2.57703e-10
-2.28299e-11
2.14085e-10
-2.99308e-11
1.3403e-10
-1.40101e-11
5.29489e-11
-3.21325e-12
1.91039e-11
1.09407e-11
-1.32964e-11
2.42455e-11
-3.49496e-11
3.60448e-11
-4.65809e-11
5.75172e-11
-5.09147e-11
5.96817e-11
-5.38793e-11
8.60841e-11
-5.51491e-11
5.59469e-11
-4.18836e-11
6.13506e-11
-4.55456e-11
7.41755e-11
-8.96773e-11
1.1659e-10
-7.66742e-11
1.49816e-10
-7.63376e-11
1.81534e-10
-8.04778e-11
2.16252e-10
-7.74381e-11
2.48232e-10
-4.899e-11
2.717e-10
6.49393e-12
2.8309e-10
8.27695e-11
2.81357e-10
1.71705e-10
2.66835e-10
2.66938e-10
2.40425e-10
3.63976e-10
2.02977e-10
4.60028e-10
1.55062e-10
5.53289e-10
9.70003e-11
6.42337e-10
2.90015e-11
7.25735e-10
8.01851e-10
-4.86625e-11
1.50907e-12
-3.70392e-11
4.11536e-12
-7.97828e-11
7.4524e-12
-1.12935e-10
1.13601e-11
-1.4017e-10
1.57547e-11
-1.62975e-10
2.05955e-11
-1.82185e-10
2.58766e-11
-1.98296e-10
3.16312e-11
-2.11555e-10
3.7946e-11
-2.21945e-10
4.49923e-11
-2.29206e-10
5.30791e-11
-2.3287e-10
6.27288e-11
-2.32274e-10
7.47522e-11
-2.26474e-10
9.02604e-11
-2.13989e-10
1.1045e-10
-1.92239e-10
1.3524e-10
-1.56194e-10
1.62505e-10
-1.00262e-10
1.84535e-10
-8.01267e-12
1.76878e-10
1.38241e-10
8.56306e-11
3.05317e-10
3.03111e-11
2.9386e-10
-5.27459e-11
3.40758e-10
-7.97379e-11
2.41076e-10
-5.97648e-11
1.14057e-10
-3.94904e-11
3.26754e-11
-9.70219e-12
-1.0684e-11
1.37638e-11
-3.6763e-11
3.66194e-11
-5.78059e-11
5.6029e-11
-6.59904e-11
7.42161e-11
-6.91009e-11
9.14339e-11
-7.10963e-11
9.58878e-11
-5.9603e-11
9.06438e-11
-3.66405e-11
9.61979e-11
-5.11005e-11
1.06141e-10
-9.96205e-11
1.21213e-10
-9.17466e-11
1.49121e-10
-1.04246e-10
1.85249e-10
-1.16607e-10
2.28195e-10
-1.20386e-10
2.69837e-10
-9.06334e-11
3.01063e-10
-2.47331e-11
3.17295e-10
6.6537e-11
3.18396e-10
1.70604e-10
3.05807e-10
2.79527e-10
2.81204e-10
3.8858e-10
2.45702e-10
4.95531e-10
1.99731e-10
5.9926e-10
1.43249e-10
6.98819e-10
7.60274e-11
7.92956e-10
8.7996e-10
-2.08239e-12
1.08278e-12
-3.81209e-11
2.58858e-12
-8.12876e-11
4.26884e-12
-1.14615e-10
6.03969e-12
-1.41941e-10
7.8607e-12
-1.64796e-10
9.70265e-12
-1.84026e-10
1.15407e-11
-2.00133e-10
1.33591e-11
-2.13373e-10
1.51665e-11
-2.23752e-10
1.70303e-11
-2.3107e-10
1.91493e-11
-2.34989e-10
2.19806e-11
-2.35106e-10
2.64443e-11
-2.30939e-10
3.41697e-11
-2.21715e-10
4.76957e-11
-2.05765e-10
7.07195e-11
-1.79218e-10
1.03672e-10
-1.33214e-10
1.46357e-10
-5.06969e-11
1.7474e-10
1.09857e-10
1.17499e-10
3.62556e-10
-1.07638e-10
5.18995e-10
-1.81583e-10
4.14703e-10
-1.15155e-10
1.74648e-10
-6.10541e-11
5.99574e-11
-2.16179e-11
-6.76043e-12
8.54781e-12
-4.085e-11
3.63476e-11
-6.45631e-11
5.89335e-11
-8.03913e-11
7.54052e-11
-8.24607e-11
8.7527e-11
-8.12213e-11
9.73444e-11
-8.09134e-11
1.10081e-10
-7.23399e-11
1.34275e-10
-6.08353e-11
1.42471e-10
-5.92965e-11
1.37895e-10
-9.50441e-11
1.55165e-10
-1.09017e-10
1.61578e-10
-1.10661e-10
1.91482e-10
-1.46512e-10
2.4083e-10
-1.69735e-10
2.92777e-10
-1.42582e-10
3.31211e-10
-6.31671e-11
3.50737e-10
4.70109e-11
3.5343e-10
1.67911e-10
3.42495e-10
2.90464e-10
3.2042e-10
4.10656e-10
2.88373e-10
5.27579e-10
2.46318e-10
6.41315e-10
1.93511e-10
7.51624e-10
1.29017e-10
8.5745e-10
9.56894e-10
5.20852e-11
6.37302e-13
-3.87574e-11
1.00241e-12
-8.16526e-11
9.64121e-13
-1.14577e-10
5.21023e-13
-1.41498e-10
-3.20479e-13
-1.63954e-10
-1.57978e-12
-1.82766e-10
-3.30993e-12
-1.98403e-10
-5.59876e-12
-2.11083e-10
-8.56654e-12
-2.20784e-10
-1.23498e-11
-2.27286e-10
-1.7055e-11
-2.30284e-10
-2.26469e-11
-2.29514e-10
-2.87422e-11
-2.24844e-10
-3.42723e-11
-2.16186e-10
-3.70097e-11
-2.03028e-10
-3.32639e-11
-1.82963e-10
-1.66442e-11
-1.49833e-10
1.30754e-11
-8.04168e-11
3.55254e-11
8.74059e-11
1.09815e-11
3.87098e-10
-5.83117e-11
5.88287e-10
-5.10498e-11
4.07441e-10
-3.28749e-11
1.56474e-10
7.31898e-12
1.97642e-11
3.96312e-11
-3.90726e-11
6.2747e-11
-6.39656e-11
8.00033e-11
-8.18184e-11
9.11829e-11
-9.15691e-11
9.94484e-11
-9.07247e-11
1.06942e-10
-8.87147e-11
1.15109e-10
-8.90806e-11
1.34742e-10
-9.19742e-11
1.60306e-10
-8.63994e-11
1.86053e-10
-8.50436e-11
1.8098e-10
-8.9971e-11
1.72044e-10
-1.00081e-10
1.69988e-10
-1.08606e-10
1.94783e-10
-1.71308e-10
2.53631e-10
-2.28583e-10
3.16883e-10
-2.05835e-10
3.60269e-10
-1.06554e-10
3.79592e-10
2.76883e-11
3.82201e-10
1.65303e-10
3.73039e-10
2.99627e-10
3.55012e-10
4.28683e-10
3.28942e-10
5.53649e-10
2.93793e-10
6.76463e-10
2.47668e-10
7.97749e-10
1.88574e-10
9.16542e-10
1.03049e-09
1.14977e-10
1.98292e-13
-3.89556e-11
-5.68501e-13
-8.08866e-11
-2.30775e-12
-1.12838e-10
-4.93047e-12
-1.38876e-10
-8.37522e-12
-1.6051e-10
-1.264e-11
-1.78502e-10
-1.77928e-11
-1.9325e-10
-2.39816e-11
-2.04894e-10
-3.14513e-11
-2.13314e-10
-4.05614e-11
-2.18176e-10
-5.17923e-11
-2.19053e-10
-6.57094e-11
-2.15598e-10
-8.28587e-11
-2.07695e-10
-1.03456e-10
-1.95589e-10
-1.26625e-10
-1.79857e-10
-1.48645e-10
-1.60942e-10
-1.61081e-10
-1.37397e-10
-1.38247e-10
-1.03251e-10
-3.33261e-11
-1.75167e-11
2.01325e-11
3.33639e-10
-1.25695e-10
7.34115e-10
-3.03956e-11
3.12143e-10
6.76958e-11
5.83831e-11
9.60269e-11
-8.5667e-12
1.04358e-10
-4.74029e-11
1.08476e-10
-6.80824e-11
1.11968e-10
-8.53095e-11
1.16366e-10
-9.59653e-11
1.22267e-10
-9.66251e-11
1.27125e-10
-9.35742e-11
1.37796e-10
-9.97527e-11
1.56234e-10
-1.10413e-10
1.87699e-10
-1.17865e-10
2.11554e-10
-1.089e-10
2.26827e-10
-1.05245e-10
2.13055e-10
-8.63095e-11
1.97039e-10
-9.25906e-11
2.05626e-10
-1.79895e-10
2.73571e-10
-2.9653e-10
3.41395e-10
-2.7366e-10
3.81725e-10
-1.46884e-10
3.95672e-10
1.3742e-11
3.98589e-10
1.62387e-10
3.92229e-10
3.05987e-10
3.81247e-10
4.39665e-10
3.65328e-10
5.69567e-10
3.41489e-10
7.00302e-10
3.06177e-10
8.33062e-10
2.56015e-10
9.66704e-10
1.09803e-09
1.88473e-10
-2.14602e-13
-3.87415e-11
-2.05504e-12
-7.90472e-11
-5.40331e-12
-1.09491e-10
-1.00719e-11
-1.34208e-10
-1.59271e-11
-1.54656e-10
-2.29198e-11
-1.7151e-10
-3.10956e-11
-1.85074e-10
-4.06098e-11
-1.9538e-10
-5.17583e-11
-2.02164e-10
-6.50272e-11
-2.04906e-10
-8.11538e-11
-2.02927e-10
-1.01216e-10
-1.95536e-10
-1.26761e-10
-1.8215e-10
-1.59972e-10
-1.62377e-10
-2.03855e-10
-1.35973e-10
-2.62156e-10
-1.0264e-10
-3.3645e-10
-6.31032e-11
-4.16645e-10
-2.30576e-11
-4.63765e-10
2.96028e-11
-3.09819e-10
1.79693e-10
1.19103e-10
3.05194e-10
2.73514e-10
1.57732e-10
2.45979e-10
8.59182e-11
1.99127e-10
3.82857e-11
1.57822e-10
-6.0973e-12
1.3514e-10
-4.53985e-11
1.24186e-10
-7.43547e-11
1.22851e-10
-9.46314e-11
1.30683e-10
-1.04458e-10
1.38603e-10
-1.01495e-10
1.47448e-10
-1.08599e-10
1.68218e-10
-1.31184e-10
1.95566e-10
-1.45214e-10
2.27851e-10
-1.41187e-10
2.5884e-10
-1.36234e-10
2.99912e-10
-1.27381e-10
2.73438e-10
-6.61162e-11
2.49551e-10
-1.56009e-10
3.20522e-10
-3.67502e-10
3.62936e-10
-3.16074e-10
3.77077e-10
-1.61025e-10
3.9487e-10
-4.05096e-12
3.93978e-10
1.63279e-10
3.92788e-10
3.07177e-10
3.95299e-10
4.37154e-10
3.96113e-10
5.68754e-10
3.89641e-10
7.06773e-10
3.70481e-10
8.52223e-10
3.33651e-10
1.00354e-09
1.15631e-09
2.7537e-10
-5.88523e-13
-3.81537e-11
-3.4076e-12
-7.62289e-11
-8.21818e-12
-1.04681e-10
-1.47242e-11
-1.27703e-10
-2.27001e-11
-1.46681e-10
-3.20169e-11
-1.62194e-10
-4.26452e-11
-1.74446e-10
-5.46636e-11
-1.83361e-10
-6.82846e-11
-1.88543e-10
-8.38988e-11
-1.89292e-10
-1.0213e-10
-1.84696e-10
-1.23918e-10
-1.73748e-10
-1.50629e-10
-1.55438e-10
-1.84158e-10
-1.28846e-10
-2.26921e-10
-9.32091e-11
-2.8157e-10
-4.79905e-11
-3.52462e-10
7.78814e-12
-4.40445e-10
6.49256e-11
-4.52696e-10
4.18538e-11
-2.30241e-10
-4.27596e-11
1.00601e-10
-2.56466e-11
3.07364e-10
-4.90305e-11
2.38642e-10
1.5464e-10
1.74065e-10
1.02863e-10
1.38928e-10
2.904e-11
1.16269e-10
-2.27387e-11
1.04972e-10
-6.3059e-11
1.03549e-10
-9.32096e-11
1.12452e-10
-1.13361e-10
1.26666e-10
-1.15709e-10
1.30508e-10
-1.12441e-10
1.54485e-10
-1.55163e-10
1.81627e-10
-1.72357e-10
2.1691e-10
-1.7647e-10
2.73183e-10
-1.92507e-10
3.40782e-10
-1.94979e-10
4.83644e-10
-2.08979e-10
5.05813e-10
-1.78179e-10
4.26559e-10
-2.88248e-10
3.67186e-10
-2.56701e-10
3.77312e-10
-1.7115e-10
3.53093e-10
2.01682e-11
3.49407e-10
1.66965e-10
3.68588e-10
2.87996e-10
3.95108e-10
4.10636e-10
4.21557e-10
5.42307e-10
4.4007e-10
6.88259e-10
4.43443e-10
8.48848e-10
4.24999e-10
1.02198e-09
1.20177e-09
3.79541e-10
-9.15242e-13
-3.72388e-11
-4.59831e-12
-7.25462e-11
-1.06934e-11
-9.85865e-11
-1.87899e-11
-1.19608e-10
-2.8555e-11
-1.36917e-10
-3.97521e-11
-1.50997e-10
-5.22302e-11
-1.61968e-10
-6.59155e-11
-1.69675e-10
-8.08144e-11
-1.73644e-10
-9.70232e-11
-1.73084e-10
-1.14736e-10
-1.66984e-10
-1.34234e-10
-1.54249e-10
-1.55799e-10
-1.33872e-10
-1.79452e-10
-1.05192e-10
-2.04275e-10
-6.83845e-11
-2.2677e-10
-2.54955e-11
-2.37196e-10
1.82136e-11
-2.32843e-10
6.05727e-11
-1.66086e-10
-2.49022e-11
-6.59705e-11
-1.42874e-10
-1.13086e-10
2.14692e-11
-4.41998e-11
-1.17917e-10
1.97146e-11
9.07259e-11
5.63216e-11
6.62556e-11
6.14841e-11
2.38764e-11
6.04863e-11
-2.17427e-11
5.75784e-11
-6.01524e-11
5.8667e-11
-9.42981e-11
7.05597e-11
-1.25253e-10
9.78172e-11
-1.42966e-10
1.18718e-10
-1.33342e-10
1.14217e-10
-1.50662e-10
1.26393e-10
-1.84533e-10
1.53439e-10
-2.03515e-10
1.92912e-10
-2.31978e-10
2.45196e-10
-2.47264e-10
3.36781e-10
-3.00565e-10
2.9352e-10
-1.34918e-10
2.41722e-10