/*--------------------------------*- C++ -*----------------------------------*\
| =========                 |                                                 |
| \\      /  F ield         | OpenFOAM: The Open Source CFD Toolbox           |
|  \\    /   O peration     | Version:  2.4.0                                 |
|   \\  /    A nd           | Web:      www.OpenFOAM.org                      |
|    \\/     M anipulation  |                                                 |
\*---------------------------------------------------------------------------*/
FoamFile
{
    version     2.0;
    format      ascii;
    class       surfaceScalarField;
    location    "0.014";
    object      phi;
}
// * * * * * * * * * * * * * * * * * * * * * * * * * * * * * * * * * * * * * //

dimensions      [0 3 -1 0 0 0 0];

internalField   nonuniform List<scalar> 
7080
(
-1.72463e-09
1.72463e-09
-4.06027e-09
2.33569e-09
-7.66856e-09
3.60824e-09
-1.32284e-08
5.55983e-09
-2.14191e-08
8.19071e-09
-3.28923e-08
1.14732e-08
-4.82486e-08
1.53564e-08
-6.79953e-08
1.97466e-08
-9.23419e-08
2.43466e-08
-1.21052e-07
2.87102e-08
-1.53573e-07
3.25212e-08
-1.89276e-07
3.57029e-08
-2.27665e-07
3.83884e-08
-2.68571e-07
4.09069e-08
-3.12345e-07
4.37739e-08
-3.5984e-07
4.74951e-08
-4.12118e-07
5.22773e-08
-4.69579e-07
5.74615e-08
-5.30449e-07
6.08695e-08
-5.88546e-07
5.8097e-08
-6.30549e-07
4.20031e-08
-6.39208e-07
8.65948e-09
-6.04875e-07
-3.43333e-08
-5.38579e-07
-6.62961e-08
-4.65481e-07
-7.30981e-08
-3.92551e-07
-7.29301e-08
-2.94795e-07
-9.77553e-08
-1.57625e-07
-1.3717e-07
-5.0281e-08
-1.07344e-07
-5.01422e-08
-1.387e-10
-1.97455e-09
3.69914e-09
-4.65689e-09
5.0181e-09
-8.81838e-09
7.76969e-09
-1.52615e-08
1.20029e-08
-2.48086e-08
1.77379e-08
-3.82712e-08
2.49357e-08
-5.64201e-08
3.35054e-08
-7.99312e-08
4.32577e-08
-1.09159e-07
5.35749e-08
-1.43956e-07
6.35063e-08
-1.83768e-07
7.23332e-08
-2.27861e-07
7.97966e-08
-2.75508e-07
8.60356e-08
-3.2618e-07
9.15789e-08
-3.79755e-07
9.73492e-08
-4.36513e-07
1.04252e-07
-4.96774e-07
1.12538e-07
-5.59976e-07
1.20663e-07
-6.23307e-07
1.24201e-07
-6.80267e-07
1.15057e-07
-7.18354e-07
8.009e-08
-7.20576e-07
1.08821e-08
-6.75406e-07
-7.95043e-08
-5.93188e-07
-1.48514e-07
-5.07498e-07
-1.58787e-07
-4.37671e-07
-1.42758e-07
-3.37479e-07
-1.97947e-07
-1.52005e-07
-3.22644e-07
-2.79508e-08
-2.31398e-07
-7.79184e-08
-1.74701e-10
-1.97691e-09
5.67601e-09
-4.66334e-09
7.70461e-09
-8.83308e-09
1.19394e-08
-1.52931e-08
1.84629e-08
-2.48725e-08
2.73174e-08
-3.83923e-08
3.84553e-08
-5.66378e-08
5.17509e-08
-8.03113e-08
6.69312e-08
-1.09804e-07
8.30675e-08
-1.44997e-07
9.86999e-08
-1.85359e-07
1.12694e-07
-2.30152e-07
1.2459e-07
-2.78611e-07
1.34495e-07
-3.3012e-07
1.43088e-07
-3.84443e-07
1.51672e-07
-4.41757e-07
1.61566e-07
-5.02384e-07
1.73166e-07
-5.66002e-07
1.84281e-07
-6.30462e-07
1.88661e-07
-6.90879e-07
1.75474e-07
-7.36653e-07
1.25864e-07
-7.48547e-07
2.27761e-08
-7.05235e-07
-1.22816e-07
-6.1e-07
-2.43749e-07
-5.09554e-07
-2.59233e-07
-4.59117e-07
-1.93195e-07
-3.69596e-07
-2.87468e-07
-1.09686e-07
-5.82554e-07
2.23341e-08
-3.63418e-07
-5.53476e-08
-2.36642e-10
-1.96321e-09
7.63917e-09
-4.63148e-09
1.0373e-08
-8.77388e-09
1.60817e-08
-1.51938e-08
2.48829e-08
-2.47169e-08
3.68405e-08
-3.81599e-08
5.18983e-08
-5.63053e-08
6.98963e-08
-7.98641e-08
9.049e-08
-1.09245e-07
1.12449e-07
-1.44341e-07
1.33796e-07
-1.84617e-07
1.5297e-07
-2.29324e-07
1.69298e-07
-2.77661e-07
1.82831e-07
-3.2894e-07
1.94367e-07
-3.82858e-07
2.0559e-07
-4.39615e-07
2.18324e-07
-4.99835e-07
2.33385e-07
-5.64046e-07
2.48493e-07
-6.31615e-07
2.5623e-07
-7.00205e-07
2.44063e-07
-7.62418e-07
1.88077e-07
-7.94322e-07
5.46805e-08
-7.57301e-07
-1.59837e-07
-6.34227e-07
-3.66823e-07
-4.85896e-07
-4.07564e-07
-4.40489e-07
-2.38602e-07
-3.56503e-07
-3.71454e-07
-7.06106e-08
-8.68447e-07
4.47988e-08
-4.78827e-07
-1.04127e-08
-1.36102e-10
-1.94425e-09
9.58338e-09
-4.58732e-09
1.30161e-08
-8.6916e-09
2.0186e-08
-1.50553e-08
3.12466e-08
-2.44984e-08
4.62837e-08
-3.7831e-08
6.52308e-08
-5.58297e-08
8.78951e-08
-7.92141e-08
1.13874e-07
-1.08414e-07
1.41649e-07
-1.4333e-07
1.68712e-07
-1.83422e-07
1.93062e-07
-2.27923e-07
2.13798e-07
-2.75984e-07
2.30892e-07
-3.2683e-07
2.45214e-07
-3.80075e-07
2.58835e-07
-4.35945e-07
2.74193e-07
-4.95443e-07
2.92883e-07
-5.60226e-07
3.13276e-07
-6.31664e-07
3.27668e-07
-7.10613e-07
3.23012e-07
-7.95037e-07
2.72501e-07
-8.58845e-07
1.18489e-07
-8.34345e-07
-1.84338e-07
-6.56265e-07
-5.44903e-07
-4.04339e-07
-6.5949e-07
-3.46412e-07
-2.96529e-07
-2.78355e-07
-4.3951e-07
-1.14177e-07
-1.03263e-06
-4.21541e-08
-5.5085e-07
-5.27813e-08
2.14376e-10
-1.92044e-09
1.15038e-08
-4.53184e-09
1.56276e-08
-8.58816e-09
2.42422e-08
-1.4881e-08
3.75394e-08
-2.42233e-08
5.5626e-08
-3.74165e-08
7.8424e-08
-5.52292e-08
1.05708e-07
-7.83914e-08
1.37037e-07
-1.07359e-07
1.70616e-07
-1.42044e-07
2.03397e-07
-1.81899e-07
2.32917e-07
-2.26136e-07
2.58035e-07
-2.73853e-07
2.78609e-07
-3.24162e-07
2.95523e-07
-3.7656e-07
3.11233e-07
-4.31256e-07
3.28889e-07
-4.89596e-07
3.51223e-07
-5.545e-07
3.78179e-07
-6.29879e-07
4.03047e-07
-7.20531e-07
4.13664e-07
-8.32618e-07
3.84588e-07
-9.42947e-07
2.28818e-07
-9.48035e-07
-1.7925e-07
-7.01086e-07
-7.91852e-07
-3.25651e-07
-1.03493e-06
-2.37955e-07
-3.84225e-07
-2.48338e-07
-4.29127e-07
-2.52089e-07
-1.02887e-06
-2.11829e-07
-5.91111e-07
-2.65047e-07
4.36793e-10
-1.89184e-09
1.33956e-08
-4.46519e-09
1.8201e-08
-8.46384e-09
2.82408e-08
-1.46714e-08
4.3747e-08
-2.38923e-08
6.4847e-08
-3.69177e-08
9.14493e-08
-5.45054e-08
1.23296e-07
-7.73978e-08
1.59929e-07
-1.06083e-07
1.99301e-07
-1.40487e-07
2.37802e-07
-1.80056e-07
2.72485e-07
-2.2398e-07
3.01959e-07
-2.71301e-07
3.2593e-07
-3.20989e-07
3.45212e-07
-3.7238e-07
3.62623e-07
-4.25588e-07
3.82097e-07
-4.82178e-07
4.07813e-07
-5.46303e-07
4.42304e-07
-6.24986e-07
4.8173e-07
-7.27354e-07
5.16032e-07
-8.68689e-07
5.25923e-07
-1.03317e-06
3.93301e-07
-1.08292e-06
-1.29502e-07
-8.2092e-07
-1.05385e-06
-4.50856e-07
-1.40499e-06
-2.62498e-07
-5.72584e-07
-2.76741e-07
-4.14884e-07
-3.18027e-07
-9.87589e-07
-2.9084e-07
-6.18298e-07
-5.55635e-07
-2.51801e-10
-1.85853e-09
1.52541e-08
-4.38752e-09
2.07301e-08
-8.31889e-09
3.21722e-08
-1.4427e-08
4.9855e-08
-2.35062e-08
7.39262e-08
-3.63355e-08
1.04278e-07
-5.36595e-08
1.4062e-07
-7.62342e-08
1.82504e-07
-1.04586e-07
2.27653e-07
-1.38662e-07
2.71878e-07
-1.77896e-07
3.1172e-07
-2.21462e-07
3.45525e-07
-2.68344e-07
3.72811e-07
-3.17343e-07
3.94212e-07
-3.67571e-07
4.12851e-07
-4.18919e-07
4.33446e-07
-4.72865e-07
4.6176e-07
-5.34307e-07
5.03745e-07
-6.13976e-07
5.614e-07
-7.26675e-07
6.2873e-07
-8.87568e-07
6.86817e-07
-1.07708e-06
5.82818e-07
-1.13924e-06
-6.73426e-08
-9.78985e-07
-1.21411e-06
-8.06929e-07
-1.57704e-06
-4.47066e-07
-9.32447e-07
-2.23168e-07
-6.38781e-07
-2.02138e-07
-1.00862e-06
-1.75922e-07
-6.44514e-07
-7.30355e-07
-1.20112e-09
-1.82058e-09
1.70746e-08
-4.29902e-09
2.32086e-08
-8.15363e-09
3.60267e-08
-1.41482e-08
5.58496e-08
-2.30657e-08
8.28438e-08
-3.56711e-08
1.16884e-07
-5.26926e-08
1.57641e-07
-7.49013e-08
2.04712e-07
-1.0287e-07
2.55622e-07
-1.36567e-07
3.05575e-07
-1.75421e-07
3.50574e-07
-2.18588e-07
3.88692e-07
-2.65e-07
4.19223e-07
-3.13265e-07
4.42477e-07
-3.62216e-07
4.61802e-07
-4.11451e-07
4.82681e-07
-4.62268e-07
5.12577e-07
-5.19898e-07
5.61376e-07
-5.97098e-07
6.386e-07
-7.10114e-07
7.41747e-07
-8.50996e-07
8.27699e-07
-9.83599e-07
7.1542e-07
-9.81143e-07
-6.97987e-08
-9.08386e-07
-1.28687e-06
-8.72253e-07
-1.61318e-06
-5.13091e-07
-1.29161e-06
-1.74777e-07
-9.77095e-07
-1.4794e-07
-1.03546e-06
-3.40837e-08
-7.5837e-07
-7.63171e-07
-1.26807e-09
-1.77808e-09
1.88526e-08
-4.19987e-09
2.56304e-08
-7.9684e-09
3.97952e-08
-1.38356e-08
6.17167e-08
-2.25718e-08
9.15801e-08
-3.49259e-08
1.29238e-07
-5.16064e-08
1.74322e-07
-7.34002e-08
2.26506e-07
-1.00935e-07
2.83156e-07
-1.34206e-07
3.38845e-07
-1.72633e-07
3.89002e-07
-2.15362e-07
4.31421e-07
-2.61286e-07
4.65147e-07
-3.0879e-07
4.8998e-07
-3.56328e-07
5.0934e-07
-4.02848e-07
5.292e-07
-4.48317e-07
5.58046e-07
-4.95278e-07
6.08337e-07
-5.53116e-07
6.96438e-07
-6.38371e-07
8.27002e-07
-7.31237e-07
9.20565e-07
-7.3715e-07
7.21333e-07
-5.98954e-07
-2.07995e-07
-4.64076e-07
-1.42175e-06
-4.06919e-07
-1.67033e-06
-3.18046e-07
-1.38048e-06
-2.06996e-07
-1.08815e-06
-1.79941e-07
-1.06251e-06
-3.82999e-08
-9.00012e-07
-8.01114e-07
-3.56827e-10
-1.73113e-09
2.05837e-08
-4.09031e-09
2.79897e-08
-7.76361e-09
4.34685e-08
-1.34898e-08
6.7443e-08
-2.20254e-08
1.00116e-07
-3.41016e-08
1.41314e-07
-5.04025e-08
1.90623e-07
-7.1732e-08
2.47835e-07
-9.87816e-08
3.10206e-07
-1.31577e-07
3.71641e-07
-1.69533e-07
4.26958e-07
-2.11789e-07
4.73677e-07
-2.57225e-07
5.10583e-07
-3.03986e-07
5.36742e-07
-3.5016e-07
5.55514e-07
-3.94235e-07
5.73275e-07
-4.35781e-07
5.99591e-07
-4.76801e-07
6.49357e-07
-5.20578e-07
7.40214e-07
-5.61064e-07
8.67488e-07
-5.57459e-07
9.16959e-07
-4.25855e-07
5.8973e-07
-1.83748e-07
-4.50103e-07
1.50497e-08
-1.62054e-06
6.1407e-08
-1.71669e-06
5.95254e-08
-1.3786e-06
4.83852e-08
-1.07701e-06
7.38446e-11
-1.0142e-06
-1.20985e-08
-8.87839e-07
-8.13041e-07
-1.71196e-10
-1.67984e-09
2.22635e-08
-3.97059e-09
3.02805e-08
-7.5397e-09
4.70376e-08
-1.31117e-08
7.30149e-08
-2.14277e-08
1.08432e-07
-3.31998e-08
1.53086e-07
-4.90829e-08
2.06506e-07
-6.9898e-08
2.6865e-07
-9.64105e-08
3.36718e-07
-1.28683e-07
4.03914e-07
-1.66123e-07
4.64398e-07
-2.07871e-07
5.15425e-07
-2.52829e-07
5.5554e-07
-2.98877e-07
5.8279e-07
-3.43583e-07
6.0022e-07
-3.84275e-07
6.13967e-07
-4.17478e-07
6.32794e-07
-4.38453e-07
6.70332e-07
-4.38333e-07
7.40095e-07
-3.99481e-07
8.28636e-07
-2.9904e-07
8.16519e-07
-1.27004e-07
4.17694e-07
1.4161e-07
-7.18716e-07
2.73937e-07
-1.75287e-06
2.36165e-07
-1.67892e-06
2.60746e-07
-1.40318e-06
3.20241e-07
-1.1365e-06
2.33372e-07
-9.2733e-07
1.06831e-07
-7.61298e-07
-7.05825e-07
-3.85227e-10
-1.62434e-09
2.38878e-08
-3.84098e-09
3.24972e-08
-7.29713e-09
5.04937e-08
-1.27019e-08
7.84196e-08
-2.07799e-08
1.1651e-07
-3.22225e-08
1.64529e-07
-4.76499e-08
2.21933e-07
-6.78995e-08
2.889e-07
-9.38228e-08
3.62642e-07
-1.25524e-07
4.35615e-07
-1.62404e-07
5.01277e-07
-2.0361e-07
5.56632e-07
-2.4812e-07
6.0005e-07
-2.93564e-07
6.28235e-07
-3.37088e-07
6.43744e-07
-3.75432e-07
6.52311e-07
-4.03945e-07
6.61307e-07
-4.15555e-07
6.81941e-07
-3.94768e-07
7.19307e-07
-3.11362e-07
7.4523e-07
-1.34874e-07
6.40031e-07
1.07751e-07
1.75069e-07
3.71138e-07
-9.82104e-07
3.93344e-07
-1.77508e-06
3.5892e-07
-1.64449e-06
3.03721e-07
-1.34798e-06
2.78745e-07
-1.11152e-06
2.4957e-07
-8.98155e-07
1.58115e-07
-6.69843e-07
-5.48213e-07
5.02533e-10
-1.56475e-09
2.54526e-08
-3.70179e-09
3.46343e-08
-7.03644e-09
5.38283e-08
-1.22612e-08
8.36444e-08
-2.00833e-08
1.24332e-07
-3.11721e-08
1.75617e-07
-4.6106e-08
2.36867e-07
-6.5738e-08
3.08532e-07
-9.10191e-08
3.87923e-07
-1.22102e-07
4.66698e-07
-1.58376e-07
5.37551e-07
-1.99002e-07
5.97258e-07
-2.43109e-07
6.44157e-07
-2.88073e-07
6.73199e-07
-3.30584e-07
6.86254e-07
-3.66641e-07
6.88368e-07
-3.8971e-07
6.84376e-07
-3.89895e-07
6.82126e-07
-3.48833e-07
6.78245e-07
-2.35034e-07
6.31432e-07
-2.58611e-08
4.30857e-07
2.45471e-07
-9.62633e-08
4.07457e-07
-1.14409e-06
2.5663e-07
-1.62425e-06
2.37421e-07
-1.62528e-06
2.81673e-07
-1.39224e-06
1.11542e-07
-9.41394e-07
2.41258e-07
-1.02787e-06
1.51918e-07
-5.80502e-07
-4.01995e-07
5.69856e-09
-1.50123e-09
2.69538e-08
-3.55333e-09
3.66864e-08
-6.75818e-09
5.70332e-08
-1.17907e-08
8.86769e-08
-1.93395e-08
1.31881e-07
-3.00509e-08
1.86329e-07
-4.44539e-08
2.5127e-07
-6.34153e-08
3.27493e-07
-8.80004e-08
4.12508e-07
-1.18416e-07
4.97114e-07
-1.5404e-07
5.73175e-07
-1.94041e-07
6.37259e-07
-2.37804e-07
6.8792e-07
-2.82467e-07
7.17862e-07
-3.24289e-07
7.28077e-07
-3.58712e-07
7.22791e-07
-3.77458e-07
7.03122e-07
-3.68676e-07
6.73344e-07
-3.15708e-07
6.25278e-07
-1.97968e-07
5.13692e-07
-1.24294e-08
2.45319e-07
2.05529e-07
-3.14221e-07
2.25667e-07
-1.16423e-06
-1.25317e-07
-1.27327e-06
-1.07617e-07
-1.64298e-06
-4.01406e-07
-1.09845e-06
-9.16687e-08
-1.25113e-06
-1.85846e-08
-1.10095e-06
-2.32504e-08
-5.75832e-07
-4.22486e-07
-2.7566e-09
-1.43392e-09
2.83877e-08
-3.39595e-09
3.86485e-08
-6.46296e-09
6.01001e-08
-1.12913e-08
9.35052e-08
-1.85499e-08
1.39139e-07
-2.88616e-08
1.9664e-07
-4.2697e-08
2.65106e-07
-6.09329e-08
3.45729e-07
-8.47676e-08
4.36343e-07
-1.14469e-07
5.26815e-07
-1.49397e-07
6.08103e-07
-1.88717e-07
6.76579e-07
-2.32208e-07
7.3141e-07
-2.76807e-07
7.62461e-07
-3.18479e-07
7.69749e-07
-3.52847e-07
7.57159e-07
-3.71422e-07
7.21697e-07
-3.63233e-07
6.65155e-07
-3.1739e-07
5.79435e-07
-2.24877e-07
4.21179e-07
-8.91278e-08
1.0957e-07
6.05679e-08
-4.63917e-07
-5.69327e-08
-1.04673e-06
-2.50198e-07
-1.08e-06
-3.15405e-07
-1.57778e-06
-4.29513e-07
-9.84329e-07
-3.89245e-07
-1.2914e-06
-4.75106e-07
-1.01509e-06
-2.54465e-07
-7.9647e-07
-6.70954e-07
-5.99687e-09
-1.36299e-09
2.97506e-08
-3.23002e-09
4.05156e-08
-6.15141e-09
6.30215e-08
-1.07639e-08
9.81177e-08
-1.77162e-08
1.46092e-07
-2.7607e-08
2.06531e-07
-4.08386e-08
2.78337e-07
-5.82929e-08
3.63184e-07
-8.13218e-08
4.59371e-07
-1.10261e-07
5.55754e-07
-1.44448e-07
6.42291e-07
-1.83013e-07
7.15143e-07
-2.26308e-07
7.74706e-07
-2.71089e-07
8.07242e-07
-3.13005e-07
8.11665e-07
-3.48105e-07
7.92259e-07
-3.67269e-07
7.40861e-07
-3.60307e-07
6.58193e-07
-3.21605e-07
5.40732e-07
-2.60783e-07
3.60357e-07
-2.04476e-07
5.32631e-08
-1.4637e-07
-5.22023e-07
4.2413e-08
-1.23551e-06
1.97862e-06
-3.01621e-06
1.30988e-06
-9.0904e-07
7.91765e-07
-4.66215e-07
1.40152e-07
-6.39783e-07
-1.01325e-07
-7.73616e-07
-7.63679e-08
-8.21427e-07
-7.3666e-07
-1.06611e-08
-1.28861e-09
3.10392e-08
-3.05593e-09
4.22829e-08
-5.82421e-09
6.57898e-08
-1.02098e-08
1.02503e-07
-1.68401e-08
1.52722e-07
-2.62905e-08
2.15981e-07
-3.88828e-08
2.9093e-07
-5.54972e-08
3.79798e-07
-7.76639e-08
4.81538e-07
-1.05793e-07
5.83883e-07
-1.39196e-07
6.75694e-07
-1.76903e-07
7.5285e-07
-2.20083e-07
8.17887e-07
-2.65337e-07
8.52496e-07
-3.07994e-07
8.54322e-07
-3.45488e-07
8.29753e-07
-3.69489e-07
7.64861e-07
-3.71908e-07
6.60613e-07
-3.49709e-07
5.18533e-07
-3.11818e-07
3.22466e-07
-3.21937e-07
6.33821e-08
-4.21671e-07
-4.22289e-07
-2.14014e-06
4.82958e-07
-9.16806e-07
-4.23954e-06
2.46626e-07
-2.07247e-06
7.23806e-07
-9.43391e-07
6.68663e-07
-5.84641e-07
5.13017e-07
-6.17971e-07
2.5528e-07
-5.63686e-07
-4.66309e-07
-1.507e-08
-1.21095e-09
3.22501e-08
-2.87408e-09
4.39461e-08
-5.48207e-09
6.83977e-08
-9.63001e-09
1.06651e-07
-1.59234e-08
1.59015e-07
-2.49153e-08
2.24973e-07
-3.68339e-08
3.02848e-07
-5.25478e-08
3.95512e-07
-7.3795e-08
5.02785e-07
-1.01068e-07
6.11156e-07
-1.33645e-07
7.08271e-07
-1.70355e-07
7.8956e-07
-2.13487e-07
8.61019e-07
-2.59498e-07
8.98507e-07
-3.03193e-07
8.98017e-07
-3.43833e-07
8.70392e-07
-3.71412e-07
7.92441e-07
-3.75367e-07
6.64568e-07
-3.63536e-07
5.06702e-07
-3.40739e-07
2.99669e-07
-3.72331e-07
9.49739e-08
-3.86257e-07
-4.08363e-07
4.94999e-07
-3.983e-07
-4.48735e-07
-3.29581e-06
-1.95393e-07
-2.32582e-06
1.94554e-07
-1.33334e-06
4.00845e-07
-7.90934e-07
3.68904e-07
-5.8603e-07
2.0969e-07
-4.04471e-07
-2.45952e-07
-1.06674e-08
-1.13022e-09
3.33803e-08
-2.6849e-09
4.55008e-08
-5.12573e-09
7.08386e-08
-9.02581e-09
1.10551e-07
-1.49679e-08
1.64957e-07
-2.34852e-08
2.33491e-07
-3.46969e-08
3.1406e-07
-4.94468e-08
4.10262e-07
-6.97165e-08
5.23055e-07
-9.60862e-08
6.37526e-07
-1.278e-07
7.39984e-07
-1.6333e-07
8.2509e-07
-2.06494e-07
9.04183e-07
-2.53703e-07
9.45716e-07
-2.98789e-07
9.43102e-07
-3.4405e-07
9.15654e-07
-3.84464e-07
8.32854e-07
-4.12437e-07
6.92541e-07
-4.19251e-07
5.13516e-07
-3.50904e-07
2.31322e-07
-9.91793e-08
-1.56751e-07
3.86127e-07
-8.93668e-07
1.0514e-06
-1.06357e-06
-7.75749e-09
-2.23665e-06
-3.45764e-07
-1.98782e-06
-3.50845e-07
-1.32826e-06
-1.57487e-07
-9.8429e-07
-9.85539e-08
-6.44958e-07
-5.56658e-08
-4.47353e-07
-3.02369e-07
7.50389e-10
-1.0466e-09
3.44269e-08
-2.48884e-09
4.69431e-08
-4.75599e-09
7.31057e-08
-8.39845e-09
1.14194e-07
-1.39755e-08
1.70534e-07
-2.20043e-08
2.41519e-07
-3.24775e-08
3.24533e-07
-4.61966e-08
4.23981e-07
-6.54297e-08
5.42288e-07
-9.0852e-08
6.62948e-07
-1.21672e-07
7.70804e-07
-1.55769e-07
8.59187e-07
-1.98877e-07
9.47292e-07
-2.47136e-07
9.93975e-07
-2.9307e-07
9.89036e-07
-3.45832e-07
9.68416e-07
-3.99809e-07
8.86832e-07
-4.15495e-07
7.08227e-07
-4.24456e-07
5.22478e-07
-5.28992e-07
3.35857e-07
2.70398e-07
-9.5614e-07
9.30823e-07
-1.55409e-06
5.66933e-07
-6.99683e-07
-7.20262e-08
-1.59769e-06
-3.63732e-07
-1.69611e-06
-4.23398e-07
-1.2686e-06
-3.43938e-07
-1.06375e-06
-2.55643e-07
-7.33251e-07
-1.39268e-07
-5.63724e-07
-4.49674e-07
8.04199e-09
-9.60309e-10
3.53872e-08
-2.28637e-09
4.82692e-08
-4.37364e-09
7.51929e-08
-7.74924e-09
1.17569e-07
-1.29483e-08
1.75734e-07
-2.04768e-08
2.49048e-07
-3.01823e-08
3.34239e-07
-4.27994e-08
4.36598e-07
-6.09356e-08
5.60424e-07
-8.53672e-08
6.8738e-07
-1.15266e-07
8.00703e-07
-1.47665e-07
8.91586e-07
-1.91159e-07
9.90786e-07
-2.43133e-07
1.04595e-06
-2.93763e-07
1.03967e-06
-3.42896e-07
1.01755e-06
-3.65411e-07
9.09347e-07
-3.71008e-07
7.13823e-07
-4.54156e-07
6.05625e-07
-5.37378e-07
4.19079e-07
-1.57939e-07
-1.33558e-06
2.52376e-07
-1.96441e-06
1.46957e-07
-5.94262e-07
-6.20338e-08
-1.3887e-06
-4.39985e-07
-1.31816e-06
-4.97436e-07
-1.21115e-06
-4.2634e-07
-1.13485e-06
-2.91246e-07
-8.68344e-07
-1.42189e-07
-7.12786e-07
-5.97888e-07
6.0272e-09
-8.71561e-10
3.62587e-08
-2.07796e-09
4.94756e-08
-3.97955e-09
7.70945e-08
-7.07959e-09
1.20669e-07
-1.18881e-08
1.80542e-07
-1.89075e-08
2.56067e-07
-2.78193e-08
3.4315e-07
-3.92581e-08
4.48037e-07
-5.62383e-08
5.77405e-07
-7.96463e-08
7.10788e-07
-1.08587e-07
8.29644e-07
-1.38731e-07
9.21731e-07
-1.80831e-07
1.03288e-06
-2.27688e-07
1.09281e-06
-2.58582e-07
1.07056e-06
-3.09942e-07
1.06891e-06
-4.97451e-07
1.09686e-06
-6.87254e-07
9.03626e-07
-5.32655e-07
4.51026e-07
-1.25244e-07
1.16677e-08
1.35108e-07
-1.59593e-06
-6.91193e-07
-1.13811e-06
-5.55972e-07
-7.29481e-07
-5.2155e-07
-1.42313e-06
-5.59598e-07
-1.28012e-06
-3.82152e-07
-1.38859e-06
-3.22597e-07
-1.1944e-06
-2.07258e-07
-9.83677e-07
-1.00993e-07
-8.19053e-07
-7.0099e-07
2.10659e-09
-7.80582e-10
3.70393e-08
-1.86413e-09
5.05592e-08
-3.57459e-09
7.8805e-08
-6.39092e-09
1.23486e-07
-1.0797e-08
1.84948e-07
-1.73011e-08
2.62571e-07
-2.53936e-08
3.51243e-07
-3.55732e-08
4.58216e-07
-5.13309e-08
5.93162e-07
-7.36799e-08
7.33137e-07
-1.01653e-07
8.57617e-07
-1.29779e-07
9.49857e-07
-1.76503e-07
1.07961e-06
-2.51599e-07
1.1679e-06
-3.63012e-07
1.18197e-06
-5.10004e-07
1.2159e-06
-5.22423e-07
1.10927e-06
-1.93334e-07
5.74537e-07
-9.85034e-08
3.56196e-07
5.70152e-08
-1.43851e-07
1.43979e-06
-2.97871e-06
-2.41902e-07
5.43588e-07
-4.33006e-07
-5.38371e-07
-4.21776e-07
-1.43436e-06
-4.67722e-07
-1.23417e-06
-3.69422e-07
-1.48689e-06
-3.45753e-07
-1.21807e-06
-2.25868e-07
-1.10356e-06
-1.12048e-07
-9.32875e-07
-8.11419e-07
-1.61527e-09
-6.87609e-10
3.77269e-08
-1.6454e-09
5.1517e-08
-3.15971e-09
8.03193e-08
-5.68483e-09
1.26011e-07
-9.67726e-09
1.88941e-07
-1.56639e-08
2.68558e-07
-2.29123e-08
3.58491e-07
-3.17583e-08
4.67062e-07
-4.62461e-08
6.0765e-07
-6.75462e-08
7.54437e-07
-9.42632e-08
8.84334e-07
-1.17379e-07
9.72972e-07
-1.49499e-07
1.11173e-06
-1.61886e-07
1.18029e-06
-8.93235e-08
1.10941e-06
8.07752e-08
1.0458e-06
-9.64329e-09
1.19969e-06
-5.22819e-07
1.08771e-06
-5.38564e-07
3.71941e-07
-2.82212e-07
-4.00202e-07
-1.47962e-06
-1.7813e-06
-1.11578e-06
1.79754e-07
-3.00861e-07
-1.35329e-06
-4.12124e-07
-1.3231e-06
-5.10332e-07
-1.13596e-06
-4.62485e-07
-1.53474e-06
-3.63298e-07
-1.31725e-06
-2.38154e-07
-1.2287e-06
-1.17527e-07
-1.05351e-06
-9.24959e-07
-3.98372e-09
-5.92854e-10
3.83198e-08
-1.42223e-09
5.23463e-08
-2.7357e-09
8.16327e-08
-4.96241e-09
1.28237e-07
-8.52925e-09
1.92507e-07
-1.3997e-08
2.74026e-07
-2.03654e-08
3.6486e-07
-2.77806e-08
4.74478e-07
-4.08972e-08
6.20766e-07
-6.1194e-08
7.74734e-07
-8.74763e-08
9.10617e-07
-1.14083e-07
9.99579e-07
-1.91126e-07
1.18877e-06
-3.7749e-07
1.36665e-06
-6.87574e-07
1.4195e-06
-8.98092e-07
1.25632e-06
-9.19766e-07
1.22137e-06
-7.78425e-07
9.46372e-07
-2.89587e-07
-1.16896e-07
-9.80507e-08
-5.91739e-07
-1.57191e-07
-1.72216e-06
-1.38637e-07
1.612e-07
-6.96993e-07
-7.94934e-07
-6.14272e-07
-1.40583e-06
-5.23728e-07
-1.22651e-06
-3.98224e-07
-1.66024e-06
-2.52598e-07
-1.46288e-06
-1.6291e-07
-1.31839e-06
-7.82487e-08
-1.13817e-06
-9.98114e-07
-5.08991e-09
-4.96802e-10
3.88166e-08
-1.1955e-09
5.30451e-08
-2.30461e-09
8.27418e-08
-4.22844e-09
1.30161e-07
-7.36356e-09
1.95643e-07
-1.23289e-08
2.78991e-07
-1.78049e-08
3.70336e-07
-2.37625e-08
4.80435e-07
-3.55063e-08
6.3251e-07
-5.4577e-08
7.93805e-07
-7.60104e-08
9.3205e-07
-7.4768e-08
9.98336e-07
-5.25653e-08
1.16657e-06
-1.19565e-08
1.32604e-06
-1.39583e-08
1.4215e-06
-2.31264e-07
1.47363e-06
-5.15425e-07
1.50553e-06
-4.39238e-07
8.70185e-07
-7.51621e-07
1.95487e-07
5.04043e-08
-1.39376e-06
1.37654e-07
-1.8094e-06
-8.11072e-07
1.10992e-06
-8.15743e-07
-7.90262e-07
-6.30891e-07
-1.59068e-06
-3.94973e-07
-1.46243e-06
-3.3092e-07
-1.7243e-06
-2.19615e-07
-1.57419e-06
-1.28856e-07
-1.40915e-06
-5.70444e-08
-1.20998e-06
-1.05205e-06
-3.10416e-09
-3.98616e-10
3.92152e-08
-9.60272e-10
5.36067e-08
-1.85649e-09
8.36381e-08
-3.46184e-09
1.31767e-07
-6.13563e-09
1.98316e-07
-1.05752e-08
2.83431e-07
-1.50477e-08
3.74808e-07
-1.9385e-08
4.84772e-07
-2.96612e-08
6.42787e-07
-4.94267e-08
8.1357e-07
-8.29736e-08
9.65597e-07
-1.51512e-07
1.06687e-06
-3.30597e-07
1.34565e-06
-4.9597e-07
1.49142e-06
-4.43354e-07
1.36888e-06
-2.02838e-07
1.23311e-06
-1.80118e-08
1.3207e-06
-2.40296e-07
1.09247e-06
-5.34617e-07
4.89808e-07
-1.22591e-07
-1.80579e-06
-8.63759e-07
-1.06823e-06
-1.00262e-06
1.24878e-06
-3.62281e-07
-1.4306e-06
-2.93078e-07
-1.65988e-06
-1.24595e-07
-1.63092e-06
-1.36295e-07
-1.71259e-06
-9.33473e-08
-1.61714e-06
-5.29187e-08
-1.44958e-06
-2.14549e-08
-1.24145e-06
-1.0739e-06
3.98868e-10
-3.69934e-10
3.95851e-08
-7.56693e-10
5.39935e-08
-1.45951e-09
8.43409e-08
-2.78003e-09
1.33087e-07
-5.04484e-09
2.00581e-07
-9.07918e-09
2.87465e-07
-1.26455e-08
3.78375e-07
-1.5543e-08
4.8767e-07
-2.4057e-08
6.513e-07
-3.67465e-08
8.2626e-07
-2.53481e-08
9.54198e-07
5.80749e-08
9.83452e-07
7.43622e-08
1.32937e-06
-1.79664e-07
1.74544e-06
-4.98329e-07
1.68755e-06
-5.23525e-07
1.25831e-06
-3.9345e-07
1.19063e-06
-5.41648e-07
1.24067e-06
-2.24503e-07
1.72663e-07
-8.5364e-07
-1.17665e-06
-9.71376e-07
-9.5049e-07
-3.93826e-07
6.7123e-07
1.4076e-07
-1.96518e-06
2.06698e-07
-1.72582e-06
2.55335e-07
-1.67955e-06
1.72928e-07
-1.63018e-06
9.85985e-08
-1.5428e-06
4.53473e-08
-1.39633e-06
2.15264e-08
-1.21763e-06
-1.05769e-06
5.3188e-09
-1.93328e-09
4.15184e-08
-5.01088e-10
5.25613e-08
-9.08548e-10
8.47483e-08
-1.74068e-09
1.33919e-07
-3.2628e-09
2.02103e-07
-6.46276e-09
2.90665e-07
-8.40883e-09
3.80321e-07
-9.57685e-09
4.88838e-07
-1.85059e-08
6.6023e-07
-5.18484e-08
8.59602e-07
-1.37329e-07
1.03968e-06
-2.02349e-07
1.04847e-06
-8.03335e-08
1.20735e-06
-9.55836e-09
1.67467e-06
-3.03927e-07
1.98192e-06
-6.60067e-07
1.61445e-06
-7.21877e-07
1.25244e-06
-6.17893e-07
1.13668e-06
-7.16794e-07
2.71564e-07
-8.63048e-08
-1.80714e-06
-5.66236e-07
-4.70553e-07
3.73969e-07
-2.6898e-07
6.67953e-07
-2.25917e-06
5.99638e-07
-1.65751e-06
5.45825e-07
-1.62574e-06
4.06776e-07
-1.49114e-06
2.50634e-07
-1.38666e-06
1.30754e-07
-1.27645e-06
5.63839e-08
-1.14326e-06
1.04655e-08
-1.01177e-06
5.00221e-08
-5.01608e-08
1.57465e-07
-1.07443e-07
2.94915e-07
-1.37449e-07
3.92809e-07
-9.78948e-08
4.65668e-07
-7.28587e-08
5.38542e-07
-7.28737e-08
6.04681e-07
-6.61389e-08
6.39005e-07
-3.43236e-08
6.30421e-07
8.58344e-09
5.88502e-07
4.19185e-08
5.30464e-07
5.80385e-08
4.69626e-07
6.08383e-08
4.12177e-07
5.74484e-08
3.59901e-07
5.22764e-08
3.12402e-07
4.74991e-08
2.68621e-07
4.3781e-08
2.27706e-07
4.09152e-08
1.89309e-07
3.8397e-08
1.53595e-07
3.57134e-08
1.21064e-07
3.25315e-08
9.23463e-08
2.87175e-08
6.79959e-08
2.43505e-08
4.82456e-08
1.97502e-08
3.28844e-08
1.53612e-08
2.14094e-08
1.1475e-08
1.32192e-08
8.19026e-09
7.66183e-09
5.55735e-09
4.05598e-09
3.60585e-09
1.72262e-09
2.33337e-09
1.7226e-09
2.7621e-08
-7.79564e-08
1.51724e-07
-2.31546e-07
3.37681e-07
-3.23407e-07
4.38069e-07
-1.98283e-07
5.07766e-07
-1.42555e-07
5.93124e-07
-1.58232e-07
6.75161e-07
-1.48176e-07
7.20343e-07
-7.95058e-08
7.18211e-07
1.07159e-08
6.80221e-07
7.9908e-08
6.23325e-07
1.14935e-07
5.60027e-07
1.24136e-07
4.96838e-07
1.20637e-07
4.36578e-07
1.12537e-07
3.79815e-07
1.04262e-07
3.26233e-07
9.73638e-08
2.75552e-07
9.15958e-08
2.27896e-07
8.60533e-08
1.83791e-07
7.9818e-08
1.43968e-07
7.23545e-08
1.09164e-07
6.35215e-08
7.99322e-08
5.35828e-08
5.64173e-08
4.32651e-08
3.82634e-08
3.35151e-08
2.47988e-08
2.49395e-08
1.5252e-08
1.7737e-08
8.81145e-09
1.19979e-08
4.65245e-09
7.76482e-09
1.97244e-09
5.01339e-09
3.69502e-09
-2.28608e-08
-5.53322e-08
1.09147e-07
-3.63554e-07
3.69902e-07
-5.84162e-07
4.59791e-07
-2.88172e-07
5.09959e-07
-1.92723e-07
6.09846e-07
-2.58119e-07
7.04875e-07
-2.43205e-07
7.48253e-07
-1.22884e-07
7.36507e-07
2.24623e-08
6.90841e-07
1.25574e-07
6.30487e-07
1.75288e-07
5.66059e-07
1.88564e-07
5.02452e-07
1.84244e-07
4.41824e-07
1.73165e-07
3.84503e-07
1.61582e-07
3.30173e-07
1.51694e-07
2.78655e-07
1.43114e-07
2.30187e-07
1.34521e-07
1.85383e-07
1.24623e-07
1.4501e-07
1.12727e-07
1.09809e-07
9.87231e-08
8.03124e-08
8.30791e-08
5.6635e-08
6.69425e-08
3.83844e-08
5.17657e-08
2.48626e-08
3.84613e-08
1.52836e-08
2.73161e-08
8.82614e-09
1.84554e-08
4.65891e-09
1.1932e-08
1.9748e-09
7.6975e-09
5.6698e-09
-4.51619e-08
-1.03064e-08
7.01069e-08
-4.78822e-07
3.56839e-07
-8.70894e-07
4.4149e-07
-3.72823e-07
4.86472e-07
-2.37706e-07
6.33876e-07
-4.05523e-07
7.56734e-07
-3.66062e-07
7.93947e-07
-1.60098e-07
7.62264e-07
5.41449e-08
7.00183e-07
1.87655e-07
6.31654e-07
2.43818e-07
5.64113e-07
2.56106e-07
4.99907e-07
2.4845e-07
4.39684e-07
2.33388e-07
3.82919e-07
2.18347e-07
3.28992e-07
2.05621e-07
2.77704e-07
1.94402e-07
2.2936e-07
1.82866e-07
1.84641e-07
1.69342e-07
1.44354e-07
1.53014e-07
1.0925e-07
1.33827e-07
7.98652e-08
1.12464e-07
5.63025e-08
9.05052e-08
3.81519e-08
6.99164e-08
2.47069e-08
5.19063e-08
1.51843e-08
3.68387e-08
8.76694e-09
2.48727e-08
4.62706e-09
1.60719e-08
1.9611e-09
1.03635e-08
7.63089e-09
4.22434e-08
-5.23354e-08
1.14133e-07
-5.50712e-07
2.7883e-07
-1.03559e-06
3.47749e-07
-4.41741e-07
4.05049e-07
-2.95006e-07
6.55608e-07
-6.56081e-07
8.33498e-07
-5.43953e-07
8.58389e-07
-1.84988e-07
7.949e-07
1.17634e-07
7.10617e-07
2.71938e-07
6.31722e-07
3.22712e-07
5.60303e-07
3.27524e-07
4.9552e-07
3.13233e-07
4.36015e-07
2.92894e-07
3.80136e-07
2.74226e-07
3.26883e-07
2.58874e-07
2.76028e-07
2.45256e-07
2.27958e-07
2.30936e-07
1.83446e-07
2.13854e-07
1.43342e-07
1.93118e-07
1.08418e-07
1.68751e-07
7.92152e-08
1.41667e-07
5.58269e-08
1.13893e-07
3.78229e-08
8.79205e-08
2.44882e-08
6.52408e-08
1.50457e-08
4.62812e-08
8.68465e-09
3.12338e-08
4.58292e-09
2.01736e-08
1.94215e-09
1.30042e-08
9.57303e-09
2.12158e-07
-2.64057e-07
2.52655e-07
-5.91209e-07
2.49217e-07
-1.03215e-06
2.3913e-07
-4.31653e-07
3.25844e-07
-3.8172e-07
7.00137e-07
-1.03037e-06
9.47046e-07
-7.90862e-07
9.4251e-07
-1.80452e-07
8.32548e-07
2.27596e-07
7.20584e-07
3.83902e-07
6.2997e-07
4.13327e-07
5.54594e-07
4.029e-07
4.8968e-07
3.78146e-07
4.31328e-07
3.51246e-07
3.76622e-07
3.28932e-07
3.24214e-07
3.11282e-07
2.73897e-07
2.95573e-07
2.26171e-07
2.78663e-07
1.81922e-07
2.58102e-07
1.42055e-07
2.32985e-07
1.07362e-07
2.03444e-07
7.83924e-08
1.70637e-07
5.52265e-08
1.37059e-07
3.74082e-08
1.05739e-07
2.4213e-08
7.84361e-08
1.48713e-08
5.56228e-08
8.58121e-09
3.75239e-08
4.52745e-09
2.42273e-08
1.91835e-09
1.56134e-08
1.14914e-08
2.90191e-07
-5.545e-07
3.18246e-07
-6.19264e-07
2.77288e-07
-9.91195e-07
2.61833e-07
-4.16198e-07
4.49651e-07
-5.69539e-07
8.20083e-07
-1.40081e-06
1.08235e-06
-1.05313e-06
1.03304e-06
-1.31138e-07
8.68793e-07
3.91839e-07
7.27499e-07
5.25196e-07
6.25124e-07
5.15702e-07
5.46418e-07
4.81606e-07
4.82269e-07
4.42295e-07
4.25662e-07
4.07854e-07
3.72441e-07
3.82153e-07
3.21041e-07
3.62682e-07
2.71345e-07
3.4527e-07
2.24015e-07
3.25993e-07
1.80079e-07
3.02038e-07
1.40498e-07
2.72567e-07
1.06086e-07
2.37856e-07
7.73988e-08
1.99324e-07
5.45028e-08
1.59955e-07
3.69092e-08
1.23332e-07
2.38818e-08
9.14634e-08
1.46617e-08
6.4843e-08
8.45688e-09
4.37287e-08
4.46083e-09
2.82234e-08
1.88977e-09
1.81844e-08
1.33811e-08
1.73846e-07
-7.29547e-07
2.01346e-07
-6.46764e-07
2.22762e-07
-1.01261e-06
4.44988e-07
-6.38424e-07
8.05295e-07
-9.29846e-07
9.78882e-07
-1.57439e-06
1.13978e-06
-1.21403e-06
1.07755e-06
-6.89098e-08
8.87956e-07
5.81436e-07
7.26944e-07
6.86209e-07
6.14177e-07
6.28468e-07
5.34445e-07
5.61339e-07
4.72963e-07
5.03776e-07
4.18995e-07
4.61823e-07
3.67632e-07
4.33516e-07
3.17395e-07
4.12919e-07
2.68387e-07
3.94277e-07
2.21498e-07
3.72882e-07
1.77919e-07
3.45616e-07
1.38671e-07
3.11815e-07
1.04588e-07
2.71938e-07
7.62352e-08
2.27677e-07
5.3657e-08
1.82533e-07
3.63267e-08
1.40663e-07
2.34955e-08
1.04294e-07
1.44172e-08
7.39213e-08
8.31193e-09
4.9834e-08
4.38318e-09
3.21521e-08
1.85647e-09
2.07112e-08
1.52376e-08
3.20992e-08
-7.62915e-07
1.47008e-07
-7.61672e-07
1.73216e-07
-1.03882e-06
5.11466e-07
-9.76674e-07
8.72521e-07
-1.2909e-06
9.09387e-07
-1.61126e-06
9.82268e-07
-1.28691e-06
9.84716e-07
-7.13571e-08
8.51724e-07
7.14428e-07
7.10564e-07
8.27369e-07
5.9737e-07
7.41662e-07
5.20058e-07
6.38651e-07
4.62371e-07
5.61463e-07
4.11527e-07
5.12667e-07
3.62276e-07
4.82766e-07
3.13315e-07
4.6188e-07
2.65043e-07
4.42549e-07
2.18624e-07
4.19302e-07
1.75444e-07
3.88796e-07
1.36575e-07
3.50684e-07
1.02871e-07
3.05643e-07
7.49024e-08
2.55645e-07
5.26902e-08
2.04746e-07
3.56619e-08
1.57691e-07
2.30547e-08
1.16902e-07
1.41382e-08
8.28378e-08
8.14666e-09
5.58255e-08
4.2947e-09
3.60041e-08
1.81853e-09
2.31873e-08
1.70561e-08
3.80356e-08
-8.01307e-07
1.79198e-07
-9.02835e-07
2.05095e-07
-1.06471e-06
3.1722e-07
-1.0888e-06
4.0668e-07
-1.38036e-06
4.64304e-07
-1.66888e-06
5.99567e-07
-1.42217e-06
7.38198e-07
-2.09988e-07
7.31997e-07
7.2063e-07
6.38908e-07
9.20458e-07
5.53412e-07