/*--------------------------------*- C++ -*----------------------------------*\
| =========                 |                                                 |
| \\      /  F ield         | OpenFOAM: The Open Source CFD Toolbox           |
|  \\    /   O peration     | Version:  2.4.0                                 |
|   \\  /    A nd           | Web:      www.OpenFOAM.org                      |
|    \\/     M anipulation  |                                                 |
\*---------------------------------------------------------------------------*/
FoamFile
{
    version     2.0;
    format      ascii;
    class       surfaceScalarField;
    location    "0.023";
    object      phi;
}
// * * * * * * * * * * * * * * * * * * * * * * * * * * * * * * * * * * * * * //

dimensions      [0 3 -1 0 0 0 0];

internalField   nonuniform List<scalar> 
19800
(
1.43931e-13
-1.43931e-13
1.53096e-13
-4.07853e-15
8.53599e-14
6.5764e-14
8.37935e-16
8.10373e-14
-8.30823e-14
8.21575e-14
-1.79794e-13
9.63723e-14
-3.02723e-13
1.22754e-13
-4.54538e-13
1.51162e-13
-6.29744e-13
1.74208e-13
-8.18992e-13
1.88305e-13
-1.01029e-12
1.90594e-13
-1.18823e-12
1.77298e-13
-1.33179e-12
1.42659e-13
-1.41357e-12
8.0554e-14
-1.40137e-12
-1.34211e-14
-1.26139e-12
-1.40681e-13
-9.55985e-13
-3.05441e-13
-4.58922e-13
-4.96774e-13
2.64938e-13
-7.23816e-13
1.21558e-12
-9.5108e-13
2.41952e-12
-1.2045e-12
3.88722e-12
-1.46776e-12
5.62203e-12
-1.73405e-12
7.61976e-12
-1.99654e-12
9.86846e-12
-2.24786e-12
1.23489e-11
-2.4804e-12
1.5035e-11
-2.68678e-12
1.78937e-11
-2.85916e-12
2.08906e-11
-2.99653e-12
2.3986e-11
-3.09414e-12
2.71393e-11
-3.15187e-12
3.03081e-11
-3.16811e-12
3.34485e-11
-3.14058e-12
3.65127e-11
-3.06492e-12
3.94472e-11
-2.93505e-12
4.21915e-11
-2.74419e-12
4.46792e-11
-2.48679e-12
4.6841e-11
-2.16045e-12
4.86092e-11
-1.7673e-12
4.99252e-11
-1.315e-12
5.07446e-11
-8.18017e-13
5.10409e-11
-2.94815e-13
5.0824e-11
2.1839e-13
5.00661e-11
7.59826e-13
4.88065e-11
1.26054e-12
4.70829e-11
1.72265e-12
4.49309e-11
2.15083e-12
4.23897e-11
2.5403e-12
3.9503e-11
2.88582e-12
3.17898e-12
3.63247e-11
-3.72857e-13
2.21459e-13
-1.11255e-12
7.34985e-13
-1.96373e-12
9.1822e-13
-2.72342e-12
8.40187e-13
-3.36937e-12
7.266e-13
-3.93818e-12
6.63751e-13
-4.45874e-12
6.42079e-13
-4.93306e-12
6.24183e-13
-5.3373e-12
5.77045e-13
-5.63128e-12
4.80962e-13
-5.76719e-12
3.25281e-13
-5.69529e-12
1.0405e-13
-5.36725e-12
-1.86957e-13
-4.73534e-12
-5.5287e-13
-3.75514e-12
-9.94581e-13
-2.38465e-12
-1.51134e-12
-5.89571e-13
-2.10025e-12
1.66824e-12
-2.7545e-12
4.41191e-12
-3.46789e-12
7.68629e-12
-4.226e-12
1.15068e-11
-5.02506e-12
1.58922e-11
-5.85221e-12
2.0852e-11
-6.69263e-12
2.63856e-11
-7.52938e-12
3.24804e-11
-8.3429e-12
3.91106e-11
-9.11159e-12
4.62357e-11
-9.81264e-12
5.38001e-11
-1.04232e-11
6.17269e-11
-1.09218e-11
6.99217e-11
-1.1287e-11
7.82697e-11
-1.14986e-11
8.66384e-11
-1.15367e-11
9.48788e-11
-1.13816e-11
1.02828e-10
-1.10145e-11
1.10313e-10
-1.04188e-11
1.17151e-10
-9.58137e-12
1.23162e-10
-8.49577e-12
1.28169e-10
-7.16511e-12
1.32008e-10
-5.60431e-12
1.34534e-10
-3.83908e-12
1.35631e-10
-1.91306e-12
1.3522e-10
1.19748e-13
1.33229e-10
2.21016e-12
1.29684e-10
4.30592e-12
1.24606e-10
6.33835e-12
1.18069e-10
8.2578e-12
1.10196e-10
1.00227e-11
1.01143e-10
1.1593e-11
9.10979e-11
1.29309e-11
1.40017e-11
8.02762e-11
-4.93837e-13
7.13323e-13
-1.31428e-12
1.55106e-12
-2.19862e-12
1.80164e-12
-2.9423e-12
1.58419e-12
-3.53096e-12
1.31568e-12
-4.00989e-12
1.14271e-12
-4.40951e-12
1.0411e-12
-4.72406e-12
9.37643e-13
-4.91447e-12
7.6637e-13
-4.91908e-12
4.84952e-13
-4.66561e-12
7.16532e-14
-4.07902e-12
-4.82642e-13
-3.08883e-12
-1.1776e-12
-1.62152e-12
-2.02093e-12
3.84357e-13
-3.00106e-12
2.98923e-12
-4.11634e-12
6.24747e-12
-5.35824e-12
1.02096e-11
-6.71655e-12
1.49196e-11
-8.17819e-12
2.04201e-11
-9.72735e-12
2.67404e-11
-1.13462e-11
3.38995e-11
-1.30119e-11
4.19033e-11
-1.46968e-11
5.07417e-11
-1.63683e-11
6.03866e-11
-1.7989e-11
7.07905e-11
-1.95168e-11
8.18831e-11
-2.09062e-11
9.35685e-11
-2.21085e-11
1.05722e-10
-2.30741e-11
1.18189e-10
-2.37523e-11
1.30786e-10
-2.40935e-11
1.433e-10
-2.40497e-11
1.55495e-10
-2.35765e-11
1.67115e-10
-2.26345e-11
1.77889e-10
-2.11926e-11
1.8754e-10
-1.92309e-11
1.95789e-10
-1.67441e-11
2.02371e-10
-1.37457e-11
2.07039e-10
-1.02707e-11
2.09577e-10
-6.37658e-12
2.09805e-10
-2.13993e-12
2.07594e-10
2.33205e-12
2.02871e-10
6.93512e-12
1.95629e-10
1.15479e-11
1.85925e-10
1.60429e-11
1.73885e-10
2.02974e-11
1.59707e-10
2.41981e-11
1.43659e-10
2.76414e-11
1.26055e-10
3.05349e-11
3.28014e-11
1.07255e-10
-4.24487e-13
1.1389e-12
-1.14302e-12
2.26708e-12
-1.89007e-12
2.54786e-12
-2.48075e-12
2.17574e-12
-2.90955e-12
1.74587e-12
-3.22121e-12
1.45504e-12
-3.43885e-12
1.25821e-12
-3.545e-12
1.04259e-12
-3.48635e-12
7.06888e-13
-3.18589e-12
1.84659e-13
-2.55457e-12
-5.58832e-13
-1.50176e-12
-1.53488e-12
6.83079e-14
-2.74805e-12
2.23675e-12
-4.19049e-12
5.0899e-12
-5.85524e-12
8.70381e-12
-7.73053e-12
1.31488e-11
-9.80298e-12
1.84882e-11
-1.20559e-11
2.47779e-11
-1.44688e-11
3.20653e-11
-1.70167e-11
4.03861e-11
-1.9669e-11
4.97612e-11
-2.23885e-11
6.0194e-11
-2.51305e-11
7.16679e-11
-2.78429e-11
8.41429e-11
-3.04652e-11
9.75535e-11
-3.2929e-11
1.11805e-10
-3.51583e-11
1.26768e-10
-3.70713e-11
1.42277e-10
-3.8582e-11
1.5813e-10
-3.96028e-11
1.74086e-10
-4.00467e-11
1.89867e-10
-3.98303e-11
2.05168e-10
-3.88768e-11
2.19653e-10
-3.712e-11
2.3297e-10
-3.45093e-11
2.44755e-10
-3.10148e-11
2.54644e-10
-2.66326e-11
2.62288e-10
-2.13891e-11
2.67363e-10
-1.53451e-11
2.69584e-10
-8.59698e-12
2.68718e-10
-1.27418e-12
2.64595e-10
6.45573e-12
2.57124e-10
1.44083e-11
2.46294e-10
2.23779e-11
2.32189e-10
3.0148e-11
2.14984e-10
3.75017e-11
1.94948e-10
4.42319e-11
1.72439e-10
5.01496e-11
1.47885e-10
5.50891e-11
5.89154e-11
1.21771e-10
-3.51868e-13
1.49148e-12
-9.90046e-13
2.90515e-12
-1.66003e-12
3.21825e-12
-2.18869e-12
2.70576e-12
-2.57167e-12
2.13013e-12
-2.84803e-12
1.73147e-12
-3.03077e-12
1.43968e-12
-3.08982e-12
1.10006e-12
-2.95853e-12
5.74959e-13
-2.54677e-12
-2.26543e-13
-1.75256e-12
-1.3522e-12
-4.67127e-13
-2.82042e-12
1.40932e-12
-4.62597e-12
3.98172e-12
-6.76493e-12
7.34703e-12
-9.22196e-12
1.15957e-11
-1.19795e-11
1.68104e-11
-1.50174e-11
2.30659e-11
-1.83118e-11
3.04284e-11
-2.18331e-11
3.8954e-11
-2.55448e-11
4.86855e-11
-2.94025e-11
5.96489e-11
-3.33528e-11
7.185e-11
-3.73318e-11
8.52711e-11
-4.12642e-11
9.98672e-11
-4.50622e-11
1.15562e-10
-4.86255e-11
1.32245e-10
-5.18417e-11
1.49764e-10
-5.4589e-11
1.67923e-10
-5.67389e-11
1.86482e-10
-5.81592e-11
2.05155e-10
-5.87181e-11
2.23613e-10
-5.82882e-11
2.41488e-10
-5.67524e-11
2.58379e-10
-5.40104e-11
2.73856e-10
-4.99858e-11
2.87477e-10
-4.46349e-11
2.98799e-10
-3.79529e-11
3.0739e-10
-2.99799e-11
3.12851e-10
-2.08061e-11
3.14829e-10
-1.05744e-11
3.13028e-10
5.26481e-13
3.07245e-10
1.22401e-11
2.97356e-10
2.42988e-11
2.83348e-10
3.63857e-11
2.65322e-10
4.81718e-11
2.43499e-10
5.93235e-11
2.18212e-10
6.95173e-11
1.89904e-10
7.84568e-11
1.5911e-10
8.58847e-11
9.15944e-11
1.26432e-10
-3.20001e-13
1.81143e-12
-9.65237e-13
3.55126e-12
-1.67902e-12
3.93312e-12
-2.29157e-12
3.31942e-12
-2.79289e-12
2.63168e-12
-3.21161e-12
2.14899e-12
-3.54863e-12
1.77457e-12
-3.76149e-12
1.31111e-12
-3.7716e-12
5.84428e-13
-3.47753e-12
-5.2043e-13
-2.76657e-12
-2.06336e-12
-1.51316e-12
-4.07535e-12
3.84711e-13
-6.52639e-12
3.05072e-12
-9.43329e-12
6.59218e-12
-1.27645e-11
1.11108e-11
-1.64981e-11
1.67008e-11
-2.06074e-11
2.34487e-11
-2.50607e-11
3.14326e-11
-2.98188e-11
4.07199e-11
-3.48336e-11
5.13638e-11
-4.00469e-11
6.33996e-11
-4.53879e-11
7.68404e-11
-5.07717e-11
9.16733e-11
-5.60969e-11
1.07855e-10
-6.12444e-11
1.25306e-10
-6.60772e-11
1.43906e-10
-7.04418e-11
1.6349e-10
-7.41712e-11
1.83841e-10
-7.70876e-11
2.0469e-10
-7.90067e-11
2.25715e-10
-7.97428e-11
2.46542e-10
-7.91156e-11
2.66748e-10
-7.69585e-11
2.85867e-10
-7.31283e-11
3.03399e-10
-6.75159e-11
3.18822e-10
-6.00565e-11
3.31611e-10
-5.07403e-11
3.41251e-10
-3.962e-11
3.47263e-10
-2.68173e-11
3.49217e-10
-1.25274e-11
3.46752e-10
2.99229e-12
3.39611e-10
1.93799e-11
3.27641e-10
3.62687e-11
3.10818e-10
5.3208e-11
2.89256e-10
6.97311e-11
2.63216e-10
8.53628e-11
2.33095e-10
9.96394e-11
1.99418e-10
1.12134e-10
1.62826e-10
1.22479e-10
1.30379e-10
1.24044e-10
-3.32299e-13
2.14354e-12
-1.06975e-12
4.28912e-12
-1.94025e-12
4.8042e-12
-2.76961e-12
4.14891e-12
-3.53608e-12
3.39722e-12
-4.25419e-12
2.86508e-12
-4.91129e-12
2.42936e-12
-5.45286e-12
1.85099e-12
-5.78927e-12
9.20049e-13
-5.80853e-12
-5.01726e-13
-5.38546e-12
-2.48764e-12
-4.40197e-12
-5.06093e-12
-2.71661e-12
-8.21402e-12
-2.13585e-13
-1.19378e-11
3.22736e-12
-1.62059e-11
7.71933e-12
-2.09899e-11
1.33687e-11
-2.6257e-11
2.02756e-11
-3.19683e-11
2.85317e-11
-3.80755e-11
3.82185e-11
-4.45203e-11
4.94035e-11
-5.12307e-11
6.21353e-11
-5.81183e-11
7.64397e-11
-6.50752e-11
9.23144e-11
-7.19716e-11
1.09724e-10
-7.86541e-11
1.28593e-10
-8.49459e-11
1.488e-10
-9.06484e-11
1.70173e-10
-9.55434e-11
1.92484e-10
-9.9397e-11
2.15441e-10
-1.01964e-10
2.38693e-10
-1.02995e-10
2.61824e-10
-1.02246e-10
2.84357e-10
-9.94899e-11
3.05761e-10
-9.45306e-11
3.25462e-10
-8.72152e-11
3.42856e-10
-7.74494e-11
3.57329e-10
-6.52115e-11
3.68274e-10
-5.05635e-11
3.75116e-10
-3.36593e-11
3.77339e-10
-1.47503e-11
3.74516e-10
5.81591e-12
3.66309e-10
2.75855e-11
3.52533e-10
5.00433e-11
3.33147e-10
7.25942e-11
3.08272e-10
9.46054e-11
2.78202e-10
1.15432e-10
2.434e-10
1.34443e-10
2.0448e-10
1.51055e-10
1.62197e-10
1.64763e-10
1.75166e-10
1.17411e-10
-3.75147e-13
2.51848e-12
-1.26709e-12
5.18037e-12
-2.37978e-12
5.91641e-12
-3.52736e-12
5.2958e-12
-4.67117e-12
4.53979e-12
-5.80909e-12
4.00132e-12
-6.9143e-12
3.53288e-12
-7.92042e-12
2.85584e-12
-8.72768e-12
1.72645e-12
-9.21468e-12
-1.55224e-14
-9.25014e-12
-2.45318e-12
-8.69816e-12
-5.61399e-12
-7.41989e-12
-9.49306e-12
-5.28392e-12
-1.4074e-11
-2.16127e-12
-1.93284e-11
2.07274e-12
-2.52238e-11
7.53824e-12
-3.17225e-11
1.43494e-11
-3.87794e-11
2.26149e-11
-4.63403e-11
3.2433e-11
-5.43373e-11
4.3889e-11
-6.26855e-11
5.70498e-11
-7.12785e-11
7.19593e-11
-7.99846e-11
8.86319e-11
-8.86445e-11
1.07047e-10
-9.7069e-11
1.27141e-10
-1.05039e-10
1.488e-10
-1.12307e-10
1.71854e-10
-1.18597e-10
1.96068e-10
-1.23611e-10
2.21137e-10
-1.27032e-10
2.4668e-10
-1.28537e-10
2.72241e-10
-1.27805e-10
2.9729e-10
-1.24537e-10
3.21227e-10
-1.18466e-10
3.43398e-10
-1.09385e-10
3.63108e-10
-9.7158e-11
3.79639e-10
-8.17422e-11
3.9228e-10
-6.32033e-11
4.00347e-10
-4.17264e-11
4.03221e-10
-1.76244e-11
4.00377e-10
8.65946e-12
3.91408e-10
3.65545e-11
3.76067e-10
6.53831e-11
3.54284e-10
9.43769e-11
3.26181e-10
1.22708e-10
2.92086e-10
1.49527e-10
2.52527e-10
1.74003e-10
2.08224e-10
1.9536e-10
1.60063e-10
2.12925e-10
2.26166e-10
1.09064e-10
-4.31234e-13
2.94921e-12
-1.51802e-12
6.26562e-12
-2.93358e-12
7.33096e-12
-4.47274e-12
6.83441e-12
-6.07612e-12
6.14275e-12
-7.72353e-12
5.64812e-12
-9.37369e-12
5.18218e-12
-1.09487e-11
4.42991e-12
-1.2339e-11
3.1162e-12
-1.3415e-11
1.06039e-12
-1.40369e-11
-1.83083e-12
-1.40609e-11
-5.58937e-12
-1.33418e-11
-1.02117e-11
-1.17381e-11
-1.56775e-11
-9.11018e-12
-2.19562e-11
-5.32092e-12
-2.90129e-11
-2.35819e-13
-3.68072e-11
6.27691e-12
-4.52914e-11
1.43438e-11
-5.44064e-11
2.40836e-11
-6.40767e-11
3.56038e-11
-7.42057e-11
4.89946e-11
-8.46697e-11
6.4324e-11
-9.53145e-11
8.16306e-11
-1.05951e-10
1.00916e-10
-1.16355e-10
1.22139e-10
-1.26261e-10
1.45201e-10
-1.35369e-10
1.69942e-10
-1.43338e-10
1.96129e-10
-1.49796e-10
2.23444e-10
-1.54346e-10
2.51484e-10
-1.56575e-10
2.79752e-10
-1.56072e-10
3.07661e-10
-1.52445e-10
3.3454e-10
-1.45345e-10
3.59646e-10
-1.3449e-10
3.82177e-10
-1.19689e-10
4.01299e-10
-1.00864e-10
4.16172e-10
-7.80768e-11
4.25986e-10
-5.15404e-11
4.29995e-10
-2.16329e-11
4.27556e-10
1.10988e-11
4.18166e-10
4.59453e-11
4.01499e-10
8.20487e-11
3.77439e-10
1.18435e-10
3.46101e-10
1.54046e-10
3.07844e-10
1.87784e-10
2.63278e-10
2.1857e-10
2.13242e-10
2.45397e-10
1.58785e-10
2.67384e-10
2.83835e-10
1.01117e-10
-4.8893e-13
3.43723e-12
-1.79671e-12
7.57189e-12
-3.55873e-12
9.0925e-12
-5.54407e-12
8.82021e-12
-7.66998e-12
8.26934e-12
-9.89715e-12
7.8754e-12
-1.21696e-11
7.45405e-12
-1.43981e-11
6.65772e-12
-1.64642e-11
5.18236e-12
-1.82307e-11
2.82794e-12
-1.95507e-11
-5.09221e-13
-2.0274e-11
-4.86498e-12
-2.02477e-11
-1.02377e-11
-1.93207e-11
-1.66047e-11
-1.73422e-11
-2.3935e-11
-1.41618e-11
-3.21932e-11
-9.62907e-12
-4.13396e-11
-3.59401e-12
-5.13263e-11
4.09163e-12
-6.20924e-11
1.35711e-11
-7.3557e-11
2.49781e-11
-8.56134e-11
3.84321e-11
-9.81244e-11
5.40322e-11
-1.10915e-10
7.18493e-11
-1.23769e-10
9.19185e-11
-1.36425e-10
1.14228e-10
-1.48571e-10
1.38707e-10
-1.59847e-10
1.65212e-10
-1.69842e-10
1.9352e-10
-1.78102e-10
2.23307e-10
-1.84132e-10
2.54152e-10
-1.87419e-10
2.85519e-10
-1.87439e-10
3.16766e-10
-1.83691e-10
3.47141e-10
-1.7572e-10
3.75799e-10
-1.63148e-10
4.01816e-10
-1.45707e-10
4.2422e-10
-1.23269e-10
4.42021e-10
-9.58782e-11
4.54251e-10
-6.37697e-11
4.60008e-10
-2.73888e-11
4.58502e-10
1.26053e-11
4.49101e-10
5.53459e-11
4.3138e-10
9.97699e-11
4.05153e-10
1.4466e-10
3.70519e-10
1.8868e-10
3.27872e-10
2.30431e-10
2.77914e-10
2.68528e-10
2.21633e-10
3.01679e-10
1.60267e-10
3.28752e-10
3.48847e-10
9.52563e-11
-5.43969e-13
3.98021e-12
-2.09164e-12
9.11892e-12
-4.23455e-12
1.1236e-11
-6.7105e-12
1.12975e-11
-9.41158e-12
1.09714e-11
-1.22785e-11
1.07422e-11
-1.52406e-11
1.04151e-11
-1.81976e-11
9.61414e-12
-2.10231e-11
8.00855e-12
-2.35736e-11
5.37991e-12
-2.56961e-11
1.61442e-12
-2.72336e-11
-3.32751e-12
-2.80261e-11
-9.44617e-12
-2.79126e-11
-1.67193e-11
-2.67313e-11
-2.51166e-11
-2.43181e-11
-3.46063e-11
-2.05054e-11
-4.51524e-11
-1.51225e-11
-5.67101e-11
-7.99666e-12
-6.92195e-11
1.04375e-12
-8.25982e-11
1.21645e-11
-9.67344e-11
2.55201e-11
-1.1148e-10
4.12489e-11
-1.26644e-10
5.94642e-11
-1.41986e-10
8.02443e-11
-1.57206e-10
1.03618e-10
-1.71945e-10
1.29552e-10
-1.8578e-10
1.57932e-10
-1.98222e-10
1.88552e-10
-2.08722e-10
2.21097e-10
-2.16678e-10
2.5513e-10
-2.21453e-10
2.90086e-10
-2.22395e-10
3.2526e-10
-2.18866e-10
3.59815e-10
-2.10276e-10
3.9279e-10
-1.96124e-10
4.2312e-10
-1.76038e-10
4.49668e-10
-1.49818e-10
4.71261e-10
-1.17471e-10
4.86738e-10
-7.92464e-11
4.95006e-10
-3.56551e-11
4.95088e-10
1.25229e-11
4.86187e-10
6.42455e-11
4.67745e-10
1.18211e-10
4.3949e-10
1.72914e-10
4.01484e-10
2.26685e-10
3.54155e-10
2.7776e-10
2.98308e-10
3.24376e-10
2.35107e-10
3.64881e-10
1.66022e-10
3.97837e-10
4.22097e-10
9.27729e-11
-5.98922e-13
4.57852e-12
-2.40308e-12
1.09236e-11
-4.95661e-12
1.3791e-11
-7.96251e-12
1.43049e-11
-1.12863e-11
1.42954e-11
-1.48481e-11
1.43028e-11
-1.85624e-11
1.41281e-11
-2.23191e-11
1.33705e-11
-2.59849e-11
1.16751e-11
-2.94108e-11
8.80636e-12
-3.24383e-11
4.64128e-12
-3.49031e-11
-8.64613e-13
-3.66404e-11
-7.71064e-12
-3.74785e-11
-1.58821e-11
-3.72455e-11
-2.53497e-11
-3.57631e-11
-3.60891e-11
-3.28454e-11
-4.80712e-11
-2.82986e-11
-6.12584e-11
-2.19222e-11
-7.55966e-11
-1.35127e-11
-9.10072e-11
-2.86696e-12
-1.07379e-10
1.02132e-11
-1.2456e-10
2.59138e-11
-1.42346e-10
4.44003e-11
-1.60474e-10
6.58045e-11
-1.78611e-10
9.0209e-11
-1.96349e-10
1.17629e-10
-2.132e-10
1.47996e-10
-2.28589e-10
1.81136e-10
-2.41864e-10
2.16756e-10
-2.52299e-10
2.54417e-10
-2.59115e-10
2.93524e-10
-2.61502e-10
3.33314e-10
-2.58656e-10
3.72855e-10
-2.49817e-10
4.11055e-10
-2.34326e-10
4.46686e-10
-2.1167e-10
4.78413e-10
-1.81544e-10
5.04844e-10
-1.43901e-10
5.24585e-10
-9.89872e-11
5.36302e-10
-4.73721e-11
5.38791e-10
1.00339e-11
5.31042e-10
7.19936e-11
5.12322e-10
1.3693e-10
4.82237e-10
2.02998e-10
4.4079e-10
2.68131e-10
3.88429e-10
3.30122e-10
3.26072e-10
3.86735e-10
2.55093e-10
4.35862e-10
1.77256e-10
4.75674e-10
5.04718e-10
9.46336e-11
-6.60937e-13
5.23947e-12
-2.73795e-12
1.3002e-11
-5.72888e-12
1.67835e-11
-9.30106e-12
1.78776e-11
-1.32921e-11
1.82856e-11
-1.7601e-11
1.86103e-11
-2.21281e-11
1.86543e-11
-2.67543e-11
1.79969e-11
-3.13405e-11
1.62615e-11
-3.57328e-11
1.31977e-11
-3.9768e-11
8.67407e-12
-4.32763e-11
2.64124e-12
-4.60881e-11
-4.90008e-12
-4.80226e-11
-1.39477e-11
-4.88987e-11
-2.44736e-11
-4.85231e-11
-3.64656e-11
-4.66902e-11
-4.99057e-11
-4.31815e-11
-6.4768e-11
-3.77668e-11
-8.10107e-11
-3.02062e-11
-9.85665e-11
-2.02532e-11
-1.17332e-10
-7.65908e-12
-1.37156e-10
7.82005e-12
-1.57827e-10
2.64118e-11
-1.79067e-10
4.83133e-11
-2.00513e-10
7.36744e-11
-2.21711e-10
1.02578e-10
-2.42105e-10
1.3502e-10
-2.61032e-10
1.70879e-10
-2.77725e-10
2.09898e-10
-2.91319e-10
2.51652e-10
-3.00868e-10
2.95525e-10
-3.05375e-10
3.40698e-10
-3.03829e-10
3.8614e-10
-2.95259e-10
4.30612e-10
-2.78798e-10
4.72695e-10
-2.53753e-10
5.10826e-10
-2.19675e-10
5.43349e-10
-1.76424e-10
5.68586e-10
-1.24224e-10
5.8491e-10
-6.36972e-11
5.90831e-10
4.11284e-12
5.85072e-10
7.77531e-11
5.66664e-10
1.55337e-10
5.35037e-10
2.34625e-10
4.90097e-10
3.13072e-10
4.32293e-10
3.87926e-10
3.62664e-10
4.56363e-10
2.82844e-10
5.15682e-10
1.94975e-10
5.63543e-10
5.98113e-10
1.01578e-10
-7.38113e-13
5.97812e-12
-3.10437e-12
1.53701e-11
-6.55681e-12
2.02372e-11
-1.07286e-11
2.20494e-11
-1.54287e-11
2.29848e-11
-2.05346e-11
2.37158e-11
-2.59333e-11
2.40534e-11
-3.14976e-11
2.35619e-11
-3.70833e-11
2.18469e-11
-4.25329e-11
1.86454e-11
-4.76796e-11
1.38185e-11
-5.23523e-11
7.31268e-12
-5.63707e-11
-8.81612e-13
-5.95581e-11
-1.07597e-11
-6.17171e-11
-2.23149e-11
-6.26403e-11
-3.55436e-11
-6.21023e-11
-5.04447e-11
-5.98592e-11
-6.7011e-11
-5.56488e-11
-8.52202e-11
-4.91913e-11
-1.05023e-10
-4.01916e-11
-1.26332e-10
-2.83427e-11
-1.49006e-10
-1.33346e-11
-1.72837e-10
5.13389e-12
-1.97537e-10
2.73404e-11
-2.22721e-10
5.35203e-11
-2.47892e-10
8.38454e-11
-2.72431e-10
1.18396e-10
-2.95584e-10
1.57131e-10
-3.16459e-10
1.99848e-10
-3.34036e-10
2.46154e-10
-3.47175e-10
2.95433e-10
-3.54653e-10
3.46814e-10
-3.5521e-10
3.99165e-10
-3.4761e-10
4.5109e-10
-3.30723e-10
5.00954e-10
-3.03617e-10
5.46923e-10
-2.65644e-10
5.87029e-10
-2.1653e-10
6.19252e-10
-1.56446e-10
6.41606e-10
-8.60515e-11
6.52241e-10
-6.52206e-12
6.4954e-10
8.04544e-11
6.32222e-10
1.72655e-10
5.99464e-10
2.67383e-10
5.5102e-10
3.61517e-10
4.87312e-10
4.51634e-10
4.09513e-10
5.34161e-10
3.19564e-10
6.05629e-10
2.20092e-10
6.63015e-10
7.04001e-10
1.14201e-10
-8.36407e-13
6.81539e-12
-3.50722e-12
1.80428e-11
-7.44223e-12
2.41732e-11
-1.22438e-11
2.68512e-11
-1.76913e-11
2.84327e-11
-2.36413e-11
2.9667e-11
-2.99675e-11
3.03813e-11
-3.65356e-11
3.0131e-11
-4.31973e-11
2.85082e-11
-4.97932e-11
2.524e-11
-5.61562e-11
2.01809e-11
-6.2114e-11
1.32709e-11
-6.74875e-11
4.49298e-12
-7.20896e-11
-6.15705e-12
-7.5718e-11
-1.86869e-11
-7.815e-11
-3.31125e-11
-7.91409e-11
-4.94541e-11
-7.84215e-11
-6.77303e-11
-7.56958e-11
-8.79458e-11
-7.06414e-11
-1.10079e-10
-6.29095e-11
-1.34066e-10
-5.21295e-11
-1.59788e-10
-3.79162e-11
-1.87051e-10
-1.98816e-11
-2.15572e-10
2.34967e-12
-2.44953e-10
2.91199e-11
-2.74663e-10
6.07119e-11
-3.04023e-10
9.73177e-11
-3.32189e-10
1.38999e-10
-3.5814e-10
1.85644e-10
-3.8068e-10
2.3692e-10
-3.9845e-10
2.92231e-10
-4.09964e-10
3.50677e-10
-4.13656e-10
4.1103e-10
-4.07963e-10
4.71725e-10
-3.9142e-10
5.30886e-10
-3.62777e-10
5.86362e-10
-3.2112e-10
6.35814e-10
-2.65982e-10
6.7681e-10
-1.9744e-10
7.06925e-10
-1.16166e-10
7.23866e-10
-2.34637e-11
7.25584e-10
7.87367e-11
7.10388e-10
1.87851e-10
6.77103e-10
3.00666e-10
6.25239e-10
4.13379e-10
5.55149e-10
5.21724e-10
4.68136e-10
6.21175e-10
3.6651e-10
7.07253e-10
2.53504e-10
7.76018e-10
8.24509e-10
1.32995e-10
-9.57497e-13
7.77398e-12
-3.94571e-12
2.1033e-11
-8.38086e-12
2.86097e-11
-1.38382e-11
3.23098e-11
-2.00674e-11
3.46637e-11
-2.69038e-11
3.65056e-11
-3.42084e-11
3.7688e-11
-4.18409e-11
3.77644e-11
-4.9651e-11
3.63186e-11
-5.74803e-11
3.30695e-11
-6.51644e-11
2.78658e-11
-7.25331e-11
2.0641e-11
-7.94086e-11
1.13695e-11
-8.55995e-11
3.42001e-14
-9.08964e-11
-1.339e-11
-9.50659e-11
-2.89432e-11
-9.78459e-11
-4.66744e-11
-9.89422e-11
-6.66348e-11
-9.8025e-11
-8.88642e-11
-9.4727e-11
-1.13378e-10
-8.8643e-11
-1.40151e-10
-7.93325e-11
-1.69099e-10
-6.63261e-11
-2.00058e-10
-4.9136e-11
-2.32763e-10
-2.72716e-11
-2.66817e-10
-2.62492e-13
-3.01671e-10
3.23113e-11
-3.36595e-10
7.07824e-11
-3.70659e-10
1.15352e-10
-4.02709e-10
1.66037e-10
-4.31364e-10
2.22608e-10
-4.55021e-10
2.84529e-10
-4.71885e-10
3.509e-10
-4.80028e-10
4.20412e-10
-4.77476e-10
4.91326e-10
-4.62335e-10
5.61491e-10
-4.32941e-10
6.28396e-10
-3.88022e-10
6.89256e-10
-3.26843e-10
7.41146e-10
-2.49329e-10
7.81118e-10
-1.56136e-10
8.06337e-10
-4.86829e-11
8.14216e-10
7.0858e-11
8.02531e-10
1.99535e-10
7.69617e-10
3.3358e-10
7.146e-10
4.68394e-10
6.37666e-10
5.98655e-10
5.40238e-10
7.18603e-10
4.25066e-10
8.22426e-10
2.96157e-10
9.04926e-10
9.62262e-10
1.58405e-10
-1.09823e-12
8.87347e-12
-4.41303e-12
2.43499e-11
-9.36212e-12
3.35606e-11
-1.54964e-11
3.8446e-11
-2.25355e-11
4.17048e-11
-3.02936e-11
4.42654e-11
-3.86201e-11
4.60157e-11
-4.73703e-11
4.65155e-11
-5.63952e-11
4.53444e-11
-6.55409e-11
4.22162e-11
-7.46486e-11
3.69745e-11
-8.35536e-11
2.95469e-11
-9.20808e-11
1.98975e-11
-1.00039e-10
7.99371e-12
-1.07216e-10
-6.21263e-12
-1.1337e-10
-2.27888e-11
-1.18226e-10
-4.18195e-11
-1.21466e-10
-6.33962e-11
-1.22727e-10
-8.7604e-11
-1.21598e-10
-1.14508e-10
-1.17614e-10
-1.44135e-10
-1.1026e-10
-1.76453e-10
-9.89744e-11
-2.11344e-10
-8.3157e-11
-2.4858e-10
-6.21878e-11
-2.87785e-10
-3.54486e-11
-3.28409e-10
-2.3538e-12
-3.6969e-10
3.76084e-11
-4.10621e-10
8.4824e-11
-4.49924e-10
1.39491e-10
-4.8603e-10
2.01541e-10
-5.1707e-10
2.70552e-10
-5.40897e-10
3.4567e-10
-5.55146e-10
4.25529e-10
-5.57335e-10
5.08217e-10
-5.45024e-10
5.91284e-10
-5.16007e-10
6.71798e-10
-4.68533e-10
7.46458e-10
-4.01502e-10
8.11749e-10
-3.14619e-10
8.641e-10
-2.08486e-10
9.00032e-10
-8.46162e-11
9.16299e-10
5.459e-11
9.09998e-10
2.05836e-10
8.78779e-10
3.64799e-10
8.21164e-10
5.26008e-10
7.37002e-10
6.82816e-10
6.27788e-10
8.27815e-10
4.96809e-10
9.53406e-10
3.49071e-10
1.05266e-09
1.12052e-09
1.90813e-10
-1.25184e-12
1.01266e-11
-4.89802e-12
2.79982e-11
-1.03703e-11
3.90346e-11
-1.71962e-11
4.52731e-11
-2.50652e-11
4.95743e-11
-3.37705e-11
5.29709e-11
-4.3152e-11
5.53975e-11
-5.30637e-11
5.6428e-11
-6.33616e-11
5.56432e-11
-7.38994e-11
5.27547e-11
-8.45274e-11
4.76027e-11
-9.5089e-11
4.01089e-11
-1.05417e-10
3.02263e-11
-1.15325e-10
1.79035e-11
-1.24603e-10
3.06701e-12
-1.33004e-10
-1.43876e-11
-1.40247e-10
-3.45772e-11
-1.45993e-10
-5.7651e-11
-1.49849e-10
-8.37473e-11
-1.51362e-10
-1.12996e-10
-1.50005e-10
-1.45491e-10
-1.45187e-10
-1.81271e-10
-1.36247e-10
-2.20284e-10
-1.22468e-10
-2.62358e-10
-1.03086e-10
-3.07166e-10
-7.73156e-11
-3.5418e-10
-4.43739e-11
-4.02633e-10
-3.52625e-12
-4.51469e-10
4.5856e-11
-4.99307e-10
1.04218e-10
-5.44391e-10
1.71724e-10
-5.84575e-10
2.48143e-10
-6.17317e-10
3.32725e-10
-6.39729e-10
4.24097e-10
-6.48707e-10
5.2019e-10
-6.41116e-10
6.18229e-10
-6.14046e-10
7.14805e-10
-5.65108e-10
8.06011e-10
-4.92705e-10
8.87632e-10
-3.96241e-10
9.55366e-10
-2.76221e-10
1.00499e-09
-1.34236e-10
1.03246e-09
2.71161e-11
1.03403e-09
2.04259e-10
1.00643e-09
3.92408e-10
9.4721e-10
5.85225e-10
8.55601e-10
7.74428e-10
7.33057e-10
9.5036e-10
5.83519e-10
1.10294e-09
4.13305e-10
1.22287e-09
1.30337e-09
2.30451e-10
-1.41009e-12
1.15379e-11
-5.38753e-12
3.19772e-11
-1.13862e-11
4.5034e-11
-1.89096e-11
5.27959e-11
-2.76169e-11
5.82803e-11
-3.72827e-11
6.26357e-11
-4.77397e-11
6.58546e-11
-5.88446e-11
6.75335e-11
-7.04616e-11
6.72605e-11
-8.24557e-11
6.47485e-11
-9.46896e-11
5.98364e-11
-1.0702e-10
5.244e-11
-1.19291e-10
4.24999e-11
-1.3133e-10
2.99447e-11
-1.42934e-10
1.46715e-11
-1.53862e-10
-3.45876e-12
-1.63822e-10
-2.46172e-11
-1.72466e-10
-4.9006e-11
-1.79377e-10
-7.68358e-11
-1.84059e-10
-1.08314e-10
-1.8593e-10
-1.43621e-10
-1.84321e-10
-1.82881e-10
-1.78473e-10
-2.26131e-10
-1.67547e-10
-2.73284e-10
-1.50627e-10
-3.24087e-10
-1.26738e-10
-3.78072e-10
-9.48664e-11
-4.34506e-10
-5.4008e-11
-4.92328e-10
-3.22856e-12
-5.50086e-10
5.82438e-11
-6.05863e-10
1.30898e-10
-6.57229e-10
2.14788e-10
-7.01207e-10
3.09369e-10
-7.34311e-10
4.13332e-10
-7.5267e-10
5.24487e-10
-7.52269e-10
6.39727e-10
-7.29286e-10
7.55097e-10
-6.80478e-10
8.65969e-10
-6.03576e-10
9.67301e-10
-4.97573e-10
1.05393e-09
-3.62847e-10
1.12077e-09
-2.01081e-10
1.16293e-09
-1.50401e-11
1.17564e-09
1.91551e-10
1.15436e-09
4.13688e-10
1.09519e-09
6.44392e-10
9.96206e-10
8.73414e-10
8.58597e-10
1.08797e-09
6.87122e-10
1.27442e-09
4.89859e-10
1.42014e-09
1.51598e-09
2.77252e-10
-1.56527e-12
1.3104e-11
-5.8683e-12
3.6281e-11
-1.23883e-11
5.15533e-11
-2.06032e-11
6.10088e-11
-3.01436e-11
6.78186e-11
-4.07678e-11
7.32591e-11
-5.23055e-11
7.73927e-11
-6.46193e-11
7.98478e-11
-7.75851e-11
8.02259e-11
-9.10828e-11
7.82457e-11
-1.04993e-10
7.37466e-11
-1.1919e-10
6.66392e-11
-1.33539e-10
5.68516e-11
-1.47885e-10
4.42918e-11
-1.62039e-10
2.88264e-11
-1.75771e-10
1.02738e-11
-1.88793e-10
-1.15938e-11
-2.00751e-10
-3.70466e-11
-2.1121e-10
-6.6378e-11
-2.19637e-10
-9.98873e-11
-2.25403e-10
-1.37856e-10
-2.27766e-10
-1.80517e-10
-2.25877e-10
-2.2802e-10
-2.18772e-10
-2.80391e-10
-2.05373e-10
-3.37488e-10
-1.84496e-10
-3.98951e-10
-1.54872e-10
-4.64132e-10
-1.15178e-10
-5.32021e-10
-6.41115e-11
-6.01151e-10
-4.84347e-13
-6.6949e-10
7.66315e-11
-7.34345e-10
1.67712e-10
-7.92287e-10
2.7255e-10
-8.3915e-10
3.90018e-10
-8.70139e-10
5.17876e-10
-8.80125e-10
6.52682e-10
-8.64089e-10
7.89861e-10
-8.17657e-10
9.23924e-10
-7.37639e-10
1.04881e-09
-6.2246e-10
1.15833e-09
-4.72367e-10
1.24648e-09
-2.89227e-10
1.30745e-09
-7.60043e-11
1.33539e-09
1.63605e-10
1.3242e-09
4.24878e-10
1.26767e-09
7.00923e-10
1.16186e-09
9.79228e-10
1.00725e-09
1.24257e-09
8.09656e-10
1.47201e-09
5.79575e-10
1.65022e-09
1.76484e-09
3.30714e-10
-1.71115e-12
1.48156e-11
-6.32783e-12
4.08978e-11
-1.33532e-11
5.85773e-11
-2.22395e-11
6.98931e-11
-3.25911e-11
7.81693e-11
-4.41541e-11
8.48227e-11
-5.67586e-11
8.99982e-11
-7.02765e-11
9.3366e-11
-8.45991e-11
9.45481e-11
-9.9626e-11
9.32731e-11
-1.15261e-10
8.93832e-11
-1.31405e-10
8.27854e-11
-1.47948e-10
7.33971e-11
-1.64761e-10
6.11056e-11
-1.8168e-10
4.57451e-11
-1.98491e-10
2.70864e-11
-2.14921e-10
4.83761e-12
-2.30618e-10
-2.13501e-11
-2.45137e-10
-5.18604e-11
-2.57923e-10
-8.71028e-11
-2.68305e-10
-1.27475e-10
-2.75484e-10
-1.73338e-10
-2.78524e-10
-2.24981e-10
-2.76338e-10
-2.82578e-10
-2.67683e-10
-3.46143e-10
-2.5116e-10
-4.15475e-10
-2.25217e-10
-4.90075e-10
-1.88184e-10
-5.69055e-10
-1.38322e-10
-6.51012e-10
-7.39301e-11
-7.33881e-10
6.50051e-12
-8.14776e-10
1.0405e-10
-8.89836e-10
2.19043e-10
-9.54142e-10
3.50699e-10
-1.0018e-09
4.96834e-10
-1.02626e-09
6.53705e-10
-1.02096e-09
8.16044e-10
-9.79994e-10
9.77315e-10
-8.98911e-10
1.13016e-09
-7.75304e-10
1.26707e-09
-6.09279e-10
1.381e-09
-4.03157e-10
1.46537e-09
-1.60368e-10
1.51344e-09
1.15534e-10
1.51739e-09
4.20926e-10
1.46738e-09
7.5093e-10
1.356e-09
1.09061e-09
1.18226e-09
1.41631e-09
9.53269e-10
1.701e-09
6.83015e-10
1.92047e-09
2.05817e-09
3.89678e-10
-1.84286e-12
1.66586e-11
-6.75409e-12
4.5809e-11
-1.4256e-11
6.60783e-11
-2.37769e-11
7.94136e-11
-3.48992e-11
8.92925e-11
-4.73606e-11
9.72856e-11
-6.09948e-11
1.03633e-10
-7.56869e-11
1.08058e-10
-9.13476e-11
1.10209e-10
-1.07903e-10
1.0983e-10
-1.25285e-10
1.06768e-10
-1.43429e-10
1.00931e-10
-1.62258e-10
9.22268e-11
-1.81676e-10
8.05233e-11
-2.0155e-10
6.56199e-11
-2.21698e-10
4.72354e-11
-2.41868e-10
2.50079e-11
-2.61723e-10
-1.49619e-12
-2.80818e-10
-3.27666e-11
-2.98591e-10
-6.93302e-11
-3.14345e-10
-1.11721e-10
-3.27233e-10
-1.6045e-10
-3.36239e-10
-2.15974e-10
-3.40164e-10
-2.78653e-10
-3.37606e-10
-3.48702e-10
-3.26947e-10
-4.26134e-10
-3.06355e-10
-5.10667e-10
-2.73786e-10
-6.01624e-10
-2.27016e-10
-6.97782e-10
-1.6372e-10
-7.97178e-10
-8.16353e-11
-8.96862e-10
2.11472e-11
-9.92621e-10
1.45754e-10
-1.07875e-09
2.91992e-10
-1.14803e-09
4.57908e-10
-1.19218e-09
6.39537e-10
-1.20259e-09
8.3088e-10
-1.17133e-09
1.02414e-09
-1.09217e-09
1.2102e-09
-9.61366e-10
1.37967e-09
-7.7874e-10
1.52411e-09
-5.47602e-10
1.63648e-09
-2.72733e-10
1.7099e-09
4.2105e-11
1.73551e-09
3.95317e-10
1.69756e-09
7.88882e-10
1.58277e-09
1.20539e-09
1.38728e-09
1.6118e-09
1.12008e-09
1.96821e-09
8.00177e-10
2.24037e-09
2.40638e-09
4.51969e-10
-1.95619e-12
1.86151e-11
-7.13463e-12
5.0988e-11
-1.50699e-11
7.40139e-11
-2.51705e-11
8.95155e-11
-3.70019e-11
1.01126e-10
-5.0297e-11
1.10582e-10
-6.48968e-11
1.18234e-10
-8.07033e-11
1.23865e-10
-9.76525e-11
1.2716e-10
-1.15702e-10
1.27881e-10
-1.34821e-10
1.25889e-10
-1.54983e-10
1.21093e-10
-1.76153e-10
1.13397e-10
-1.98277e-10
1.02647e-10
-2.21264e-10
8.86081e-11
-2.44973e-10
7.09441e-11
-2.69185e-10
4.92196e-11
-2.93588e-10
2.2907e-11
-3.17758e-10
-8.59694e-12
-3.41138e-10
-4.59506e-11
-3.63017e-10
-8.9842e-11
-3.82511e-10
-1.40956e-10
-3.9854e-10
-1.99945e-10
-4.09803e-10
-2.6739e-10
-4.14754e-10
-3.43752e-10
-4.11581e-10
-4.29307e-10
-3.98181e-10
-5.24066e-10
-3.72137e-10
-6.27668e-10
-3.30699e-10
-7.39221e-10
-2.70813e-10
-8.57064e-10
-1.89269e-10
-9.78407e-10
-8.30368e-11
-1.09886e-09
5.01612e-11
-1.21195e-09
2.11076e-10
-1.30894e-09
3.9825e-10
-1.37935e-09
6.07669e-10
-1.41201e-09
8.32667e-10
-1.39633e-09
1.06403e-09
-1.32354e-09
1.29022e-09
-1.18756e-09
1.49879e-09
-9.87308e-10
1.67889e-09
-7.27699e-10
1.82319e-09
-4.1704e-10
1.92641e-09
-6.1112e-11
1.98162e-09
3.401e-10
1.96294e-09
8.07559e-10
1.84754e-09
1.32079e-09
1.62654e-09
1.8328e-09
1.31181e-09
2.28293e-09
9.29952e-10
2.62223e-09
2.82245e-09
5.13885e-10
-2.04685e-12
2.06625e-11
-7.456e-12
5.63983e-11
-1.57662e-11
8.23255e-11
-2.63722e-11
1.00123e-10
-3.88273e-11
1.13582e-10
-5.28638e-11
1.24619e-10
-6.8334e-11
1.33703e-10
-8.51618e-11
1.40693e-10
-1.03314e-10
1.45313e-10
-1.22786e-10
1.47354e-10
-1.4359e-10
1.46692e-10
-1.65744e-10
1.43247e-10
-1.89263e-10
1.36916e-10
-2.14145e-10
1.2753e-10
-2.40353e-10
1.14816e-10
-2.67793e-10
9.83851e-11
-2.96297e-10
7.77233e-11
-3.25593e-10
5.22037e-11
-3.55288e-10
2.10988e-11
-3.84844e-10
-1.63944e-11
-4.13552e-10
-6.11339e-11
-4.40502e-10
-1.14004e-10
-4.64564e-10
-1.75883e-10
-4.84353e-10
-2.47602e-10
-4.98205e-10
-3.29901e-10
-5.04147e-10