/*--------------------------------*- C++ -*----------------------------------*\
| =========                 |                                                 |
| \\      /  F ield         | OpenFOAM: The Open Source CFD Toolbox           |
|  \\    /   O peration     | Version:  2.4.0                                 |
|   \\  /    A nd           | Web:      www.OpenFOAM.org                      |
|    \\/     M anipulation  |                                                 |
\*---------------------------------------------------------------------------*/
FoamFile
{
    version     2.0;
    format      ascii;
    class       volScalarField;
    location    "0.191";
    object      p_rgh;
}
// * * * * * * * * * * * * * * * * * * * * * * * * * * * * * * * * * * * * * //

dimensions      [1 -1 -2 0 0 0 0];

internalField   nonuniform List<scalar> 
10000
(
-0.0170532
-0.0170509
-0.0170463
-0.0170395
-0.0170309
-0.0170206
-0.0170087
-0.016995
-0.0169797
-0.0169627
-0.0169441
-0.0169238
-0.0169018
-0.0168782
-0.0168529
-0.016826
-0.0167974
-0.016767
-0.0167349
-0.016701
-0.0166652
-0.0166273
-0.0165873
-0.0165449
-0.0164999
-0.0164521
-0.0164012
-0.0163472
-0.01629
-0.0162295
-0.0161656
-0.0160985
-0.0160283
-0.0159548
-0.0158781
-0.0157979
-0.015714
-0.0156263
-0.0155345
-0.0154386
-0.0153382
-0.0152331
-0.0151231
-0.015008
-0.0148873
-0.014761
-0.0146286
-0.0144899
-0.0143449
-0.0141932
-0.0170555
-0.0170532
-0.0170488
-0.0170424
-0.0170342
-0.0170242
-0.0170125
-0.0169991
-0.0169841
-0.0169675
-0.0169491
-0.0169292
-0.0169075
-0.0168842
-0.0168592
-0.0168325
-0.0168041
-0.0167739
-0.0167418
-0.0167079
-0.0166719
-0.0166339
-0.0165936
-0.0165508
-0.0165054
-0.0164572
-0.0164059
-0.0163514
-0.0162936
-0.0162325
-0.016168
-0.0161003
-0.0160293
-0.015955
-0.0158773
-0.0157961
-0.0157113
-0.0156226
-0.0155299
-0.015433
-0.0153317
-0.0152257
-0.0151149
-0.014999
-0.0148777
-0.0147507
-0.0146178
-0.0144788
-0.0143335
-0.0141818
-0.0170603
-0.0170576
-0.0170533
-0.0170471
-0.0170391
-0.0170294
-0.017018
-0.0170049
-0.0169902
-0.0169739
-0.0169559
-0.0169363
-0.016915
-0.016892
-0.0168673
-0.0168408
-0.0168126
-0.0167826
-0.0167506
-0.0167168
-0.0166808
-0.0166427
-0.0166023
-0.0165593
-0.0165137
-0.0164653
-0.0164137
-0.016359
-0.0163009
-0.0162395
-0.0161747
-0.0161065
-0.016035
-0.0159602
-0.015882
-0.0158003
-0.0157149
-0.0156256
-0.0155324
-0.015435
-0.0153333
-0.015227
-0.0151158
-0.0149996
-0.014878
-0.0147509
-0.0146179
-0.0144788
-0.0143336
-0.014182
-0.0170672
-0.0170643
-0.0170598
-0.0170537
-0.0170458
-0.0170363
-0.0170252
-0.0170124
-0.0169981
-0.0169821
-0.0169644
-0.0169451
-0.0169241
-0.0169014
-0.016877
-0.0168509
-0.0168229
-0.0167931
-0.0167614
-0.0167277
-0.016692
-0.016654
-0.0166137
-0.0165709
-0.0165255
-0.0164771
-0.0164257
-0.016371
-0.0163129
-0.0162514
-0.0161865
-0.0161182
-0.0160467
-0.0159718
-0.0158936
-0.0158119
-0.0157265
-0.0156374
-0.0155443
-0.0154471
-0.0153456
-0.0152395
-0.0151287
-0.0150128
-0.0148916
-0.0147647
-0.0146321
-0.0144935
-0.0143487
-0.0141976
-0.017076
-0.0170728
-0.0170682
-0.0170621
-0.0170544
-0.0170451
-0.0170342
-0.0170217
-0.0170077
-0.016992
-0.0169746
-0.0169557
-0.016935
-0.0169127
-0.0168886
-0.0168628
-0.0168352
-0.0168057
-0.0167743
-0.016741
-0.0167056
-0.016668
-0.0166281
-0.0165858
-0.0165407
-0.0164928
-0.0164418
-0.0163876
-0.0163299
-0.0162686
-0.0162038
-0.0161357
-0.0160644
-0.0159899
-0.0159122
-0.015831
-0.0157462
-0.0156577
-0.0155653
-0.0154689
-0.0153681
-0.0152629
-0.0151528
-0.0150377
-0.0149173
-0.0147912
-0.0146593
-0.0145214
-0.0143772
-0.0142267
-0.0170863
-0.0170829
-0.0170782
-0.0170722
-0.0170646
-0.0170555
-0.0170449
-0.0170328
-0.017019
-0.0170037
-0.0169867
-0.0169681
-0.0169478
-0.0169259
-0.0169022
-0.0168768
-0.0168495
-0.0168205
-0.0167895
-0.0167567
-0.0167218
-0.0166849
-0.0166457
-0.016604
-0.0165598
-0.0165127
-0.0164626
-0.0164091
-0.0163521
-0.0162913
-0.0162267
-0.016159
-0.0160883
-0.0160147
-0.015938
-0.0158578
-0.015774
-0.0156866
-0.0155954
-0.0155001
-0.0154005
-0.0152964
-0.0151875
-0.0150736
-0.0149542
-0.0148292
-0.0146982
-0.0145611
-0.0144177
-0.0142679
-0.017098
-0.0170945
-0.0170899
-0.0170839
-0.0170765
-0.0170677
-0.0170574
-0.0170455
-0.0170321
-0.0170171
-0.0170005
-0.0169823
-0.0169625
-0.0169409
-0.0169177
-0.0168927
-0.016866
-0.0168374
-0.016807
-0.0167748
-0.0167407
-0.0167046
-0.0166664
-0.0166259
-0.0165828
-0.016537
-0.0164882
-0.016436
-0.0163801
-0.01632
-0.0162557
-0.0161884
-0.0161186
-0.0160465
-0.0159712
-0.0158924
-0.0158101
-0.0157241
-0.0156343
-0.0155405
-0.0154424
-0.0153398
-0.0152323
-0.0151196
-0.0150014
-0.0148775
-0.0147474
-0.0146112
-0.0144684
-0.0143191
-0.0171111
-0.0171076
-0.017103
-0.0170972
-0.01709
-0.0170814
-0.0170714
-0.0170599
-0.0170469
-0.0170323
-0.0170161
-0.0169984
-0.016979
-0.0169579
-0.0169352
-0.0169107
-0.0168845
-0.0168566
-0.0168269
-0.0167955
-0.0167623
-0.0167273
-0.0166905
-0.0166514
-0.0166101
-0.0165661
-0.0165192
-0.0164689
-0.0164147
-0.0163555
-0.0162913
-0.0162241
-0.0161556
-0.0160855
-0.0160121
-0.0159351
-0.0158545
-0.0157701
-0.015682
-0.0155898
-0.0154933
-0.0153922
-0.015286
-0.0151746
-0.0150574
-0.0149344
-0.014805
-0.0146692
-0.0145268
-0.0143778
-0.0171255
-0.017122
-0.0171175
-0.0171119
-0.017105
-0.0170967
-0.0170871
-0.0170759
-0.0170633
-0.0170492
-0.0170335
-0.0170162
-0.0169973
-0.0169768
-0.0169546
-0.0169307
-0.0169052
-0.0168779
-0.016849
-0.0168186
-0.0167866
-0.0167531
-0.0167179
-0.0166809
-0.0166417
-0.0166002
-0.0165561
-0.0165087
-0.0164572
-0.0163993
-0.016334
-0.0162661
-0.0161992
-0.0161322
-0.0160612
-0.0159861
-0.0159072
-0.0158244
-0.0157378
-0.0156471
-0.0155521
-0.0154523
-0.0153473
-0.0152367
-0.0151202
-0.0149975
-0.0148683
-0.0147325
-0.0145899
-0.0144404
-0.017141
-0.0171377
-0.0171334
-0.017128
-0.0171214
-0.0171135
-0.0171042
-0.0170935
-0.0170814
-0.0170677
-0.0170526
-0.0170358
-0.0170175
-0.0169976
-0.0169761
-0.0169529
-0.016928
-0.0169016
-0.0168735
-0.0168441
-0.0168136
-0.0167819
-0.0167489
-0.0167143
-0.0166781
-0.01664
-0.0165997
-0.0165567
-0.0165094
-0.016453
-0.0163842
-0.0163138
-0.016249
-0.0161872
-0.0161193
-0.0160458
-0.0159679
-0.0158862
-0.0158007
-0.0157112
-0.0156172
-0.0155183
-0.0154139
-0.0153037
-0.0151871
-0.0150641
-0.0149342
-0.0147975
-0.0146538
-0.0145031
-0.0171575
-0.0171545
-0.0171505
-0.0171454
-0.0171392
-0.0171317
-0.0171228
-0.0171126
-0.017101
-0.0170879
-0.0170733
-0.0170572
-0.0170396
-0.0170204
-0.0169996
-0.0169771
-0.0169531
-0.0169275
-0.0169004
-0.0168721
-0.0168432
-0.0168137
-0.0167835
-0.0167522
-0.0167197
-0.0166859
-0.0166505
-0.0166135
-0.0165734
-0.0165176
-0.0164391
-0.0163629
-0.0163012
-0.0162501
-0.016187
-0.0161144
-0.0160365
-0.0159548
-0.0158695
-0.0157804
-0.0156868
-0.015588
-0.0154835
-0.0153727
-0.0152552
-0.0151307
-0.0149993
-0.0148606
-0.0147149
-0.014562
-0.0171751
-0.0171724
-0.0171687
-0.0171641
-0.0171583
-0.0171512
-0.0171428
-0.0171331
-0.0171221
-0.0171096
-0.0170957
-0.0170803
-0.0170634
-0.0170451
-0.0170251
-0.0170036
-0.0169805
-0.0169558
-0.0169295
-0.0169024
-0.0168754
-0.0168489
-0.0168222
-0.0167948
-0.0167665
-0.0167376
-0.016708
-0.0166797
-0.0166504
-0.0165921
-0.0164875
-0.0163991
-0.0163492
-0.0163241
-0.0162664
-0.0161918
-0.0161118
-0.0160287
-0.0159425
-0.0158526
-0.0157584
-0.0156588
-0.0155531
-0.0154408
-0.0153213
-0.0151945
-0.0150603
-0.0149188
-0.0147701
-0.0146143
-0.0171936
-0.0171913
-0.0171881
-0.0171839
-0.0171785
-0.017172
-0.0171642
-0.017155
-0.0171446
-0.0171328
-0.0171197
-0.0171051
-0.0170892
-0.0170718
-0.0170529
-0.0170325
-0.0170105
-0.0169868
-0.0169613
-0.0169351
-0.0169102
-0.0168876
-0.0168653
-0.0168421
-0.0168181
-0.0167943
-0.0167709
-0.0167554
-0.0167468
-0.0166131
-0.0165315
-0.016392
-0.0163826
-0.0164056
-0.0163565
-0.0162738
-0.0161894
-0.0161042
-0.0160164
-0.0159253
-0.0158295
-0.0157281
-0.0156203
-0.0155054
-0.015383
-0.0152529
-0.0151153
-0.0149703
-0.0148182
-0.014659
-0.0172129
-0.0172111
-0.0172084
-0.0172048
-0.0171999
-0.0171939
-0.0171867
-0.0171783
-0.0171685
-0.0171576
-0.0171453
-0.0171317
-0.0171168
-0.0171006
-0.0170829
-0.0170639
-0.0170433
-0.017021
-0.016996
-0.0169699
-0.016947
-0.0169298
-0.0169131
-0.0168941
-0.0168738
-0.0168555
-0.0168394
-0.0168319
-0.0168396
-0.0169076
-0.0157943
-0.0151933
-0.0160157
-0.0164554
-0.0164081
-0.0163378
-0.0162594
-0.0161752
-0.0160867
-0.0159945
-0.0158974
-0.0157939
-0.0156832
-0.0155649
-0.0154389
-0.0153053
-0.015164
-0.0150156
-0.0148601
-0.0146979
-0.0172331
-0.0172319
-0.0172298
-0.0172267
-0.0172224
-0.017217
-0.0172105
-0.0172027
-0.0171938
-0.0171837
-0.0171724
-0.0171599
-0.0171462
-0.0171314
-0.0171154
-0.0170982
-0.01708
-0.0170595
-0.0170337
-0.017005
-0.0169837
-0.0169746
-0.0169663
-0.0169517
-0.0169328
-0.016916
-0.0169009
-0.0168852
-0.0168944
-0.0158422
-0.0120822
-0.0121143
-0.0126357
-0.0163134
-0.0164653
-0.0163979
-0.0163151
-0.0162391
-0.0161508
-0.0160578
-0.0159595
-0.0158543
-0.015741
-0.0156194
-0.0154899
-0.0153528
-0.0152086
-0.0150575
-0.0148999
-0.0147361
-0.0172541
-0.0172535
-0.017252
-0.0172495
-0.0172459
-0.0172412
-0.0172354
-0.0172284
-0.0172204
-0.0172112
-0.017201
-0.0171898
-0.0171775
-0.0171644
-0.0171505
-0.0171362
-0.0171216
-0.0171034
-0.017072
-0.0170366
-0.0170174
-0.0170186
-0.0170232
-0.0170163
-0.0169918
-0.0169742
-0.0169574
-0.0169272
-0.0168515
-0.0145795
-0.0121123
-0.012261
-0.0120893
-0.0150233
-0.016496
-0.0164283
-0.0163799
-0.0163046
-0.0162107
-0.0161155
-0.0160155
-0.0159088
-0.0157941
-0.0156706
-0.0155387
-0.0153995
-0.0152538
-0.015102
-0.0149445
-0.0147812
-0.0172759
-0.0172759
-0.0172752
-0.0172733
-0.0172704
-0.0172664
-0.0172613
-0.0172552
-0.0172481
-0.01724
-0.017231
-0.0172212
-0.0172106
-0.0171995
-0.0171884
-0.0171775
-0.017168
-0.0171542
-0.017107
-0.0170553
-0.0170372
-0.0170672
-0.0170775
-0.0170767
-0.0170501
-0.0170463
-0.0170265
-0.0169953
-0.0169512
-0.0169032
-0.0144959
-0.0126552
-0.014114
-0.0168359
-0.0167135
-0.0162533
-0.0164771
-0.0163645
-0.0162638
-0.0161664
-0.0160651
-0.0159585
-0.0158445
-0.0157217
-0.0155903
-0.0154514
-0.0153066
-0.0151569
-0.0150022
-0.0148425
-0.0172984
-0.0172992
-0.0172991
-0.017298
-0.0172957
-0.0172925
-0.0172883
-0.0172831
-0.017277
-0.0172701
-0.0172624
-0.017254
-0.0172454
-0.0172369
-0.0172286
-0.0172199
-0.0172139
-0.0172049
-0.0171063
-0.0170241
-0.0169792
-0.0171413
-0.0171045
-0.0171445
-0.0170828
-0.0169234
-0.0171154
-0.0170799
-0.0170378
-0.0169518
-0.0168051
-0.0167887
-0.0167878
-0.0168822
-0.0167894
-0.0166509
-0.01652
-0.0164043
-0.0163025
-0.016207
-0.0161083
-0.0160059
-0.0158964
-0.0157779
-0.0156507
-0.0155158
-0.0153752
-0.0152302
-0.0150813
-0.0149279
-0.0173217
-0.0173232
-0.0173239
-0.0173234
-0.0173219
-0.0173195
-0.0173162
-0.017312
-0.017307
-0.0173013
-0.017295
-0.0172884
-0.017282
-0.0172759
-0.0172698
-0.0172622
-0.0172523
-0.0172251
-0.0170323
-0.0151755
-0.0143549
-0.0159561
-0.0171773
-0.0172101
-0.0171867
-0.0171768
-0.0167784
-0.0171705
-0.0171443
-0.0170924
-0.0170142
-0.0169681
-0.0169523
-0.0169447
-0.016856
-0.0166828
-0.0165399
-0.0164162
-0.0163228
-0.0162396
-0.0161491
-0.0160569
-0.015957
-0.0158468
-0.0157272
-0.0155999
-0.0154666
-0.0153289
-0.0151877
-0.0150423
-0.0173458
-0.017348
-0.0173494
-0.0173497
-0.0173489
-0.0173473
-0.0173449
-0.0173418
-0.017338
-0.0173336
-0.017329
-0.0173245
-0.0173205
-0.0173168
-0.0173137
-0.017311
-0.0173055
-0.0172549
-0.015267
-0.0132642
-0.0133786
-0.013424
-0.0169966
-0.0172171
-0.017257
-0.0172631
-0.0172651
-0.0172773
-0.0172722
-0.01724
-0.017195
-0.0171579
-0.0171439
-0.017109
-0.0169754
-0.0166801
-0.0165536
-0.0164014
-0.0163254
-0.0162707
-0.0161952
-0.0161209
-0.0160357
-0.015937
-0.0158272
-0.0157091
-0.0155849
-0.015456
-0.0153229
-0.0151854
-0.0173707
-0.0173735
-0.0173756
-0.0173766
-0.0173767
-0.0173759
-0.0173745
-0.0173725
-0.0173699
-0.0173671
-0.0173643
-0.017362
-0.0173604
-0.0173596
-0.017361
-0.0173678
-0.017381
-0.0174145
-0.0162406
-0.0140602
-0.0139572
-0.0159977
-0.0172136
-0.017317
-0.0173518
-0.0173803
-0.0173939
-0.0174034
-0.0174119
-0.0173876
-0.0173587
-0.0173324
-0.0173212
-0.0173106
-0.017166
-0.0169024
-0.0164965
-0.0163146
-0.016303
-0.0163076
-0.0162522
-0.016199
-0.0161385
-0.0160553
-0.0159554
-0.015846
-0.0157305
-0.0156099
-0.0154842
-0.0153528
-0.0173964
-0.0173998
-0.0174025
-0.0174042
-0.0174051
-0.0174052
-0.0174049
-0.017404
-0.0174029
-0.0174016
-0.0174006
-0.0174003
-0.0174002
-0.0174002
-0.017401
-0.0174056
-0.0174181
-0.0174267
-0.0174441
-0.0171456
-0.0169831
-0.017174
-0.0173221
-0.0174201
-0.0174699
-0.0175015
-0.0175203
-0.0175327
-0.0173666
-0.0175189
-0.0175229
-0.0174805
-0.0174883
-0.0174726
-0.0173984
-0.0169608
-0.0161912
-0.0160698
-0.0162633
-0.016374
-0.0162753
-0.0163004
-0.0162753
-0.016207
-0.0161125
-0.0160084
-0.0158989
-0.0157849
-0.0156653
-0.0155379
-0.0174229
-0.0174267
-0.0174301
-0.0174324
-0.0174341
-0.0174352
-0.017436
-0.0174364
-0.0174368
-0.0174373
-0.0174383
-0.0174398
-0.0174412
-0.0174417
-0.0174413
-0.0174407
-0.0174397
-0.0174254
-0.0173606
-0.0171422
-0.0169552
-0.0171047
-0.0173928
-0.0175423
-0.0176055
-0.0176296
-0.0176414
-0.0176653
-0.0176803
-0.0176023
-0.0176667
-0.0176346
-0.0175597
-0.0175212
-0.014011
-0.0136903
-0.0145256
-0.0148534
-0.015062
-0.0162245
-0.0162851
-0.0164653
-0.0164739
-0.0164026
-0.0162975
-0.0161907
-0.0160829
-0.0159736
-0.0158599
-0.0157364
-0.0174501
-0.0174543
-0.0174581
-0.0174611
-0.0174636
-0.0174657
-0.0174677
-0.0174697
-0.0174717
-0.0174743
-0.0174775
-0.0174813
-0.0174847
-0.017487
-0.0174879
-0.0174887
-0.017493
-0.0174914
-0.0174415
-0.0173405
-0.0173936
-0.0176685
-0.0176701
-0.0176834
-0.0177582
-0.0177624
-0.0177595
-0.0177855
-0.0178143
-0.0173131
-0.0177229
-0.0178079
-0.0177892
-0.0177795
-0.0169004
-0.0140904
-0.0141038
-0.0144505
-0.0147939
-0.0143556
-0.0150327
-0.0168229
-0.0167841
-0.0166378
-0.0165013
-0.0163822
-0.0162729
-0.0161692
-0.0160649
-0.0159503
-0.017478
-0.0174824
-0.0174866
-0.0174902
-0.0174935
-0.0174967
-0.0175001
-0.0175036
-0.0175076
-0.0175124
-0.0175183
-0.0175247
-0.0175305
-0.017535
-0.0175381
-0.0175412
-0.0175461
-0.0175443
-0.0175153
-0.0159151
-0.0133779
-0.0128968
-0.0152841
-0.0179098
-0.0179104
-0.0178845
-0.0178735
-0.0178757
-0.0179016
-0.0177497
-0.0178805
-0.0178847
-0.0179792
-0.0178957
-0.0178298
-0.0175815
-0.0178089
-0.0173221
-0.016245
-0.0149548
-0.0136443
-0.0154242
-0.0170533
-0.0168682
-0.0166924
-0.0165612
-0.0164571
-0.016368
-0.0162828
-0.0161885
-0.0175064
-0.0175109
-0.0175154
-0.0175196
-0.0175237
-0.0175281
-0.0175328
-0.0175381
-0.0175443
-0.0175516
-0.0175604
-0.0175698
-0.0175788
-0.0175866
-0.0175937
-0.0176001
-0.0176071
-0.0176058
-0.0165862
-0.0124448
-0.0121937
-0.0121019
-0.0121462
-0.0161379
-0.0180309
-0.0179706
-0.0179771
-0.0177268
-0.0179572
-0.0179445
-0.0180079
-0.0171369
-0.0170682
-0.0180733
-0.0179154
-0.0178112
-0.0176582
-0.0173813
-0.0171261
-0.0170504
-0.0175213
-0.0171772
-0.0174237
-0.0170295
-0.0168342
-0.0167113
-0.0166296
-0.0165725
-0.0165235
-0.0164655
-0.0175351
-0.0175396
-0.0175443
-0.017549
-0.017554
-0.0175596
-0.0175659
-0.0175731
-0.0175816
-0.0175917
-0.0176036
-0.0176166
-0.0176297
-0.0176427
-0.0176568
-0.0176735
-0.0176895
-0.017697
-0.0154148
-0.012069
-0.0122134
-0.0122798
-0.0120833
-0.015339
-0.0179927
-0.0180038
-0.0180309
-0.0180521
-0.0180699
-0.0181004
-0.018144
-0.0180892
-0.0179883
-0.0181716
-0.0181229
-0.0179374
-0.0177628
-0.0175395
-0.0173476
-0.0172078
-0.0170509
-0.0169461
-0.0171655
-0.0170306
-0.0168893
-0.0168126
-0.0167883
-0.0167906
-0.0168008
-0.0167984
-0.017564
-0.0175682
-0.017573
-0.0175783
-0.0175842
-0.0175911
-0.0175991
-0.0176084
-0.0176194
-0.0176324
-0.0176477
-0.0176646
-0.0176823
-0.0177007
-0.0177202
-0.0177403
-0.0177581
-0.0177477
-0.0161918
-0.0124433
-0.0123042
-0.0126457
-0.0134298
-0.0174342
-0.0178605
-0.0179747
-0.018056
-0.0181168
-0.0181643
-0.0182097
-0.0182733
-0.0183222
-0.018378
-0.0184203
-0.0183359
-0.0181222
-0.0179206
-0.0177147
-0.0175354
-0.0174018
-0.0173498
-0.0174463
-0.017335
-0.017039
-0.0169188
-0.0169088
-0.016948
-0.0170371
-0.0171301
-0.0172036
-0.0175927
-0.0175966
-0.0176014
-0.0176072
-0.017614
-0.0176223
-0.0176321
-0.0176437
-0.0176574
-0.0176735
-0.0176924
-0.0177137
-0.0177369
-0.0177625
-0.0177916
-0.017825
-0.0178661
-0.0179256
-0.017827
-0.0145691
-0.0119554
-0.0136666
-0.016879
-0.0176454
-0.0178752
-0.0180175
-0.0181171
-0.0181887
-0.0182337
-0.018273
-0.0183418
-0.0184625
-0.0186101
-0.0186494
-0.0186049
-0.0183396
-0.0180918
-0.0178549
-0.0177154
-0.0176198
-0.0167061
-0.0152452
-0.0153677
-0.0160719
-0.016855
-0.0169864
-0.0171208
-0.0173198
-0.0175248
-0.0176979
-0.0176209
-0.0176244
-0.0176292
-0.0176354
-0.0176433
-0.0176531
-0.0176648
-0.0176788
-0.0176953
-0.0177147
-0.0177372
-0.0177629
-0.0177914
-0.0178233
-0.01786
-0.017903
-0.0179556
-0.0179981
-0.018141
-0.0182122
-0.0181122
-0.0178729
-0.0177712
-0.0178643
-0.0179847
-0.0181061
-0.0182009
-0.0182647
-0.0183009
-0.0182832
-0.0183438
-0.0186001
-0.0191368
-0.0192372
-0.0191404
-0.0186117
-0.0182546
-0.0180172
-0.0178552
-0.0177664
-0.0175214
-0.0169423
-0.0157538
-0.0151959
-0.0150431
-0.0168326
-0.0173158
-0.0176542
-0.0180006
-0.0183041
-0.0176483
-0.0176513
-0.0176561
-0.0176628
-0.0176717
-0.017683
-0.0176969
-0.0177134
-0.0177328
-0.0177555
-0.0177817
-0.0178115
-0.0178445
-0.0178813
-0.0179229
-0.01797
-0.0180246
-0.0180903
-0.0178754
-0.0180792
-0.0180644
-0.0180105
-0.0179595
-0.0180238
-0.0181035
-0.0182011
-0.0182856
-0.018311
-0.0181023
-0.0182032
-0.0180888
-0.0165849
-0.00937396
-0.0105537
-0.0193731
-0.0187489
-0.0182936
-0.0181045
-0.0179841
-0.0178879
-0.0177323
-0.0174818
-0.0172678
-0.0172627
-0.0168932
-0.017045
-0.0175378
-0.0180331
-0.0185785
-0.0190566
-0.0176745
-0.0176769
-0.0176816
-0.0176889
-0.017699
-0.017712
-0.017728
-0.0177472
-0.0177698
-0.0177959
-0.0178258
-0.0178594
-0.0178965
-0.0179368
-0.0179807
-0.0180287
-0.0180815
-0.0181229
-0.0181695
-0.0181566
-0.0181551
-0.0181373
-0.0179374
-0.0181551
-0.0181955
-0.0182698
-0.0183164
-0.0175519
-0.0181407
-0.0183128
-0.0164736
-0.012648
-0.0110959
-0.00989112
-0.0135966
-0.0183054
-0.0181355
-0.0180766
-0.0180156
-0.0180507
-0.0179766
-0.0177776
-0.0174971
-0.0172008
-0.0169036
-0.0169928
-0.0175746
-0.0184306
-0.0192887
-0.0200007
-0.0176992
-0.0177009
-0.0177055
-0.0177134
-0.0177247
-0.0177395
-0.0177579
-0.01778
-0.0178059
-0.0178356
-0.0178693
-0.0179069
-0.0179479
-0.0179916
-0.0180377
-0.0180859
-0.0181345
-0.0181776
-0.0182021
-0.0182226
-0.0182385
-0.018237
-0.0182428
-0.0182505
-0.0182584
-0.0182717
-0.0182345
-0.0177544
-0.0177511
-0.0184525
-0.0154774
-0.0126394
-0.0123154
-0.0118037
-0.0168099
-0.017712
-0.0178428
-0.0180033
-0.0181459
-0.0182956
-0.0183476
-0.0181736
-0.0177683
-0.0171391
-0.0164411
-0.0164149
-0.0174916
-0.0189245
-0.0202366
-0.0212189
-0.0177219
-0.017723
-0.0177274
-0.0177359
-0.0177485
-0.0177652
-0.0177861
-0.0178113
-0.0178407
-0.0178744
-0.0179122
-0.017954
-0.0179991
-0.0180468
-0.0180961
-0.0181459
-0.0181974
-0.0182528
-0.0181227
-0.0182894
-0.0183113
-0.018329
-0.0183392
-0.0183375
-0.0181868
-0.0182737
-0.0181559
-0.0179096
-0.0176849
-0.0179894
-0.0161139
-0.0131143
-0.0136737
-0.0144596
-0.0162352
-0.0169806
-0.0175199
-0.017936
-0.0180926
-0.0186845
-0.0189211
-0.0187721
-0.0181743
-0.0170421
-0.015597
-0.0153811
-0.0173065
-0.0197084
-0.021659
-0.0228613
-0.0177422
-0.0177425
-0.0177469
-0.017756
-0.0177699
-0.0177887
-0.0178124
-0.0178409
-0.0178741
-0.0179118
-0.017954
-0.0180003
-0.0180499
-0.0181018
-0.018155
-0.0182083
-0.0182608
-0.0183073
-0.0183474
-0.0183768
-0.0183991
-0.0183595
-0.0184405
-0.0184321
-0.0183993
-0.0183172
-0.0181599
-0.0178973
-0.0174955
-0.016572
-0.0188644
-0.0131093
-0.0160281
-0.0135959
-0.0151987
-0.0164453
-0.0172372
-0.0178185
-0.0184606
-0.0170877
-0.0198131
-0.0197562
-0.018929
-0.016961
-0.013983
-0.0129419
-0.0169804
-0.0212834
-0.0240789
-0.0252419
-0.0177597
-0.0177592
-0.0177634
-0.0177732
-0.0177886
-0.0178096
-0.0178361
-0.0178681
-0.0179053
-0.0179475
-0.0179942
-0.0180453
-0.0180998
-0.0181565
-0.0182144
-0.018272
-0.0183271
-0.0183766
-0.0184209
-0.0178648
-0.0184985
-0.0185286
-0.0185503
-0.0185515
-0.0185225
-0.0184439
-0.0182973
-0.0180742
-0.0176682
-0.0166836
-0.0183698
-0.0132388
-0.0172096
-0.0128149
-0.0149257
-0.0162622
-0.0171452
-0.017811
-0.0184373
-0.0187058
-0.020528
-0.0216758
-0.0208656
-0.0173658
-0.0107105
-0.00806529
-0.0168674
-0.0243738
-0.0277634
-0.0282806
-0.0177739
-0.0177725
-0.0177765
-0.017787
-0.017804
-0.0178273
-0.0178568
-0.0178925
-0.0179339
-0.0179807
-0.0180323
-0.0180884
-0.018148
-0.0182102
-0.0182736
-0.0183369
-0.0183984
-0.0184573
-0.0185129
-0.0185744
-0.0185937
-0.018652
-0.0186876
-0.0187049
-0.0186959
-0.018653
-0.0185721
-0.0184557
-0.0184528
-0.017339
-0.0155877
-0.0145306
-0.0163979
-0.014806
-0.0153515
-0.0161385
-0.0167171
-0.0183757
-0.0181154
-0.0191866
-0.023165
-0.0245743
-0.0213577
-0.0163656
-0.00390252
0.000839766
-0.00692674
-0.0245404
-0.0306491
-0.0306278
-0.0177842
-0.0177819
-0.0177856
-0.0177968
-0.0178154
-0.0178411
-0.0178739
-0.0179134
-0.0179592
-0.0180108
-0.0180675
-0.0181288
-0.0181939
-0.0182619
-0.0183316
-0.0184019
-0.0184717
-0.0185397
-0.0186032
-0.0186725
-0.0187379
-0.0187951
-0.0188424
-0.0188789
-0.0188926
-0.0188752
-0.0188085
-0.0186893
-0.0187823
-0.0163851
-0.0142978
-0.0142376
-0.0145092
-0.0155987
-0.015772
-0.0158367
-0.017219
-0.0153221
-0.0175619
-0.0182676
-0.0235441
-0.0274172
-0.0241916
-0.032891
0.00660809
0.010628
-0.0171764
-0.0197812
-0.0294713
-0.0294037
-0.0177899
-0.0177866
-0.01779
-0.0178021
-0.0178223
-0.0178506
-0.0178866
-0.0179301
-0.0179804
-0.018037
-0.018099
-0.0181657
-0.0182365
-0.0183106
-0.0183872
-0.0184656
-0.0185449
-0.0186243
-0.0187029
-0.018782
-0.0188647
-0.0189442
-0.0190132
-0.0190703
-0.0191082
-0.019115
-0.0190401
-0.0187916
-0.0182165
-0.0174341
-0.0139167
-0.0135187
-0.0133003
-0.0152114
-0.0161365
-0.0155967
-0.015606
-0.0165463
-0.0183895
-0.0184574
-0.0208284
-0.0167794
0.0136487
0.149979
0.495496
0.11494
0.0172316
-0.0768823
-0.150104
-0.122748
-0.0177904
-0.017786
-0.0177892
-0.017802
-0.0178239
-0.0178548
-0.0178942
-0.0179417
-0.0179967
-0.0180583
-0.0181258
-0.0181981
-0.0182747
-0.0183552
-0.0184392
-0.0185262
-0.0186161
-0.0187086
-0.0188033
-0.0189004
-0.019
-0.0191019
-0.019197
-0.0192791
-0.0193549
-0.0194126
-0.0194228
-0.0190744
-0.018705
-0.0187442
-0.0134042
-0.0126171
-0.0120514
-0.0148055
-0.0157848
-0.016795
-0.0167033
-0.0154119
-0.0167182
-0.0156918
-0.012879
-0.0154796
0.11531
0.159999
0.24744
-0.195341
-0.760352
0.182305
8.10361
19.9956
-0.0177848
-0.0177793
-0.0177822
-0.0177958
-0.0178195
-0.017853
-0.0178959
-0.0179475
-0.0180071
-0.0180739
-0.0181468
-0.0182249
-0.0183076
-0.0183947
-0.0184863
-0.0185826
-0.018684
-0.0187906
-0.0189024
-0.019019
-0.0191396
-0.0192646
-0.0193888
-0.019282
-0.0196079
-0.0197278
-0.0198573
-0.0200024
-0.0174348
-0.0170718
-0.0174953
-0.0118027
-0.0122083
-0.0208156
-0.0140846
-0.0181459
-0.0150901
-0.0152124
-0.0134567
-0.0135968
-0.0194601
-0.0226502
-0.0187145
1.49483
5.06496
6.38113
17.8666
35.4627
41.2578
40.9426
-0.0177725
-0.0177658
-0.0177683
-0.0177827
-0.0178083
-0.0178444
-0.0178907
-0.0179465
-0.0180108
-0.0180827
-0.018161
-0.0182449
-0.0183339
-0.0184279
-0.0185276
-0.0186337
-0.0187472
-0.0188688
-0.0189985
-0.0191354
-0.0192778
-0.019424
-0.0195699
-0.019714
-0.0198536
-0.0199963
-0.0201482
-0.0201262
-0.0194336
-0.0198874
-0.0194112
-0.019686
-0.0197823
-0.0187141
-0.0177878
-0.0155963
-0.0149344
-0.0111989
-0.00593363
-0.0121296
-0.0201554
-0.0472826
2.97619
10.9179
20.4686
35.024
40.8525
40.9631
40.9945
40.8522
-0.0177524
-0.0177446
-0.0177468
-0.017762
-0.0177893
-0.0178282
-0.0178779
-0.0179377
-0.0180066
-0.0180836
-0.0181673
-0.0182571
-0.0183524
-0.0184535
-0.0185616
-0.0186781
-0.0188043
-0.0189414
-0.0190894
-0.019247
-0.0194116
-0.0195801
-0.0197491
-0.0199138
-0.020071
-0.0202207
-0.0203702
-0.0203024
-0.0203887
-0.0200714
-0.0197764
-0.0195412
-0.0190388
-0.0186589
-0.0156338
-0.0169083
-0.0148825
-0.00455045
0.00332707
-0.0108355
-0.0110682
3.32459
15.8493
30.7951
41.0103
41.0158
40.5503
40.5355
40.6006
40.6007
-0.0177237
-0.0177147
-0.0177167
-0.0177327
-0.0177619
-0.0178033
-0.0178564
-0.0179203
-0.0179937
-0.0180756
-0.0181646
-0.0182601
-0.0183618
-0.0184703
-0.0185872
-0.0187143
-0.0188538
-0.0190069
-0.0191735
-0.0193519
-0.0195387
-0.0197296
-0.0199196
-0.0201032
-0.0202768
-0.020433
-0.0204956
-0.020535
-0.0205021
-0.0202896
-0.0199982
-0.0197337
-0.0194068
-0.0194194
-0.0201039
-0.022212
-0.0247279
-0.0149063
0.00302614
0.0280466
3.00044
17.4053
35.9592
40.6949
40.7159
40.5448
40.3222
40.3014
40.3499
40.3801
-0.0176855
-0.0176754
-0.0176771
-0.0176939
-0.0177249
-0.017769
-0.0178254
-0.0178932
-0.017971
-0.0180576
-0.0181518
-0.0182529
-0.018361
-0.018477
-0.0186029
-0.0187411
-0.0188942
-0.0190635
-0.019249
-0.0194485
-0.0196579
-0.0198721
-0.0200854
-0.0202922
-0.0204855
-0.0206532
-0.0207643
-0.0207858
-0.0207746
-0.0205684
-0.0202699
-0.0198875
-0.0194934
-0.0195425
-0.0208003
-0.0257546
0.0315781
0.0134109
0.046265
2.08152
14.24
36.5077
39.7159
40.437
40.4226
40.3099
40.176
40.1697
40.2117
40.2331
-0.0176367
-0.0176257
-0.0176271
-0.0176449
-0.0176776
-0.0177243
-0.0177839
-0.0178554
-0.0179374
-0.0180286
-0.0181277
-0.0182343
-0.0183487
-0.0184722
-0.0186073
-0.0187569
-0.0189237
-0.0191095
-0.019314
-0.0195347
-0.0197675
-0.0200068
-0.0202471
-0.0204827
-0.0207053
-0.0209062
-0.0210761
-0.0207279
-0.0211853
-0.0210009
-0.020635
-0.0200126
-0.018883
-0.0174293
-0.015834
-0.00834391
0.0427772
-0.0157402
1.36753
8.68567
30.7884
39.9785
40.0931
40.3399
40.2765
40.1866
40.1222
40.1249
40.1536
40.162
-0.0175765
-0.0175646
-0.0175659
-0.0175846
-0.0176191
-0.0176682
-0.017731
-0.0178061
-0.0178921
-0.0179875
-0.0180913
-0.0182031
-0.0183236
-0.0184546
-0.018599
-0.01876
-0.0189407
-0.0191428
-0.0193661
-0.0196082
-0.019865
-0.0201318
-0.0204038
-0.0206763
-0.0209402
-0.0211906
-0.0213772
-0.0213013
-0.0212802
-0.021727
-0.0214077
-0.0207442
-0.0187003
-0.0159012
-0.0118192
-0.00153102
0.0477563
0.216668
4.31459
17.9071
38.7752
39.421
39.8077
40.0632
40.1126
40.1078
40.1105
40.1301
40.1508
40.1488
-0.017504
-0.0174912
-0.0174926
-0.0175121
-0.0175484
-0.0176
-0.0176657
-0.0177442
-0.0178338
-0.0179332
-0.0180413
-0.0181581
-0.0182844
-0.0184227
-0.0185762
-0.0187486
-0.018943
-0.019161
-0.0194026
-0.0196657
-0.0199472
-0.0202441
-0.0205539
-0.0208738
-0.0211996
-0.0215265
-0.0218423
-0.0221376
-0.0220497
-0.0227558
-0.0228729
-0.022803
-0.0221639
-0.0209725
-0.0191829
-0.0133032
0.0295837
0.406358
5.77154
33.6775
38.6895
39.1409
39.5036
39.7809
39.9499
40.0524
40.1183
40.1577
40.1719
40.1561
-0.0174181
-0.0174048
-0.0174062
-0.0174268
-0.0174647
-0.0175186
-0.0175871
-0.0176687
-0.0177618
-0.0178648
-0.0179769
-0.0180981
-0.0182299
-0.0183751
-0.0185373
-0.0187205
-0.0189279
-0.0191612
-0.0194201
-0.0197033
-0.0200095
-0.0203383
-0.0206904
-0.0210654
-0.0214642
-0.0218898
-0.0223464
-0.0228291
-0.0233904
-0.0240338
-0.0247601
-0.0256871
-0.0269562
-0.027679
-0.0314448
-0.0332787
-0.0301761
0.178405
19.6324
38.7164
38.7366
39.0181
39.3201
39.6131
39.8547
40.0282
40.136
40.1875
40.1948
40.1667
-0.0173181
-0.0173044
-0.0173061
-0.0173276
-0.0173672
-0.0174233
-0.0174944
-0.0175788
-0.0176749
-0.0177812
-0.0178968
-0.0180221
-0.0181589
-0.0183104
-0.0184806
-0.0186737
-0.0188931
-0.0191402
-0.0194149
-0.0197165
-0.0200456
-0.0204067
-0.0208045
-0.0212386
-0.0217134
-0.0222384
-0.0228257
-0.0234929
-0.0242871
-0.0252697
-0.026539
-0.0283497
-0.0312151
-0.0347116
-0.0409145
-0.0459977
-0.129427
2.16286
37.2099
39.4258
39.0994
39.137
39.3404
39.6021
39.8501
40.041
40.1596
40.2103
40.209
40.1716
-0.0140349
-0.0138699
-0.0136982
-0.0135201
-0.0133357
-0.0131453
-0.0129494
-0.0127484
-0.0125429
-0.0123335
-0.0121209
-0.0119059
-0.0116893
-0.0114719
-0.0112545
-0.0110379
-0.010823
-0.0106104
-0.0104009
-0.0101953
-0.00999427
-0.00979853
-0.00960878
-0.00942571
-0.00924998
-0.00908223
-0.00892305
-0.00877289
-0.00863207
-0.00850076
-0.00837898
-0.00826655
-0.00816319
-0.00806854
-0.00798219
-0.00790371
-0.00783269
-0.00776871
-0.00771143
-0.00766052
-0.0076157
-0.00757675
-0.00754346
-0.00751561
-0.00749305
-0.00747565
-0.00746331
-0.00745594
-0.00745329
-0.00745408
-0.0140235
-0.0138588
-0.0136876
-0.01351
-0.0133264
-0.0131369
-0.012942
-0.0127421
-0.0125378
-0.0123296
-0.0121183
-0.0119046
-0.0116892
-0.011473
-0.0112568
-0.0110414
-0.0108275
-0.0106161
-0.0104077
-0.0102032
-0.0100034
-0.00980876
-0.00962011
-0.00943808
-0.00926328
-0.00909633
-0.00893773
-0.00878794
-0.00864723
-0.00851577
-0.00839358
-0.00828053
-0.00817639
-0.00808081
-0.00799344
-0.0079139
-0.00784183
-0.00777682
-0.00771855
-0.00766672
-0.00762105
-0.00758132
-0.00754733
-0.00751889
-0.00749581
-0.00747795
-0.00746518
-0.00745744
-0.00745452
-0.00745528
-0.0140241
-0.0138597
-0.013689
-0.013512
-0.013329
-0.0131402
-0.012946
-0.0127468
-0.0125431
-0.0123355
-0.0121247
-0.0119114
-0.0116963
-0.0114804
-0.0112643
-0.0110489
-0.0108351
-0.0106237
-0.0104154
-0.010211
-0.0100113
-0.0098169
-0.00962849
-0.00944671
-0.00927216
-0.00910539
-0.00894691
-0.00879709
-0.00865624
-0.00852449
-0.00840186
-0.00828826
-0.00818344
-0.00808713
-0.00799898
-0.00791867
-0.00784581
-0.00778006
-0.00772109
-0.0076686
-0.00762234
-0.00758206
-0.00754755
-0.00751863
-0.00749515
-0.00747693
-0.00746384
-0.00745586
-0.00745295
-0.00745399
-0.01404
-0.0138761
-0.0137059
-0.0135294
-0.0133467
-0.0131583
-0.0129643
-0.0127652
-0.0125615
-0.0123537
-0.0121425
-0.0119286
-0.0117127
-0.0114957
-0.0112784
-0.0110618
-0.0108466
-0.0106337
-0.010424
-0.0102183
-0.0100173
-0.00982182
-0.00963243
-0.00944979
-0.00927449
-0.00910707
-0.00894802
-0.0087977
-0.00865639
-0.00852423
-0.0084012
-0.0082872
-0.00818199
-0.00808529
-0.00799677
-0.00791609
-0.00784289
-0.00777682
-0.00771754
-0.00766475
-0.0076182
-0.00757764
-0.00754286
-0.00751369
-0.00748998
-0.00747156
-0.00745834