/*--------------------------------*- C++ -*----------------------------------*\
| =========                 |                                                 |
| \\      /  F ield         | OpenFOAM: The Open Source CFD Toolbox           |
|  \\    /   O peration     | Version:  2.4.0                                 |
|   \\  /    A nd           | Web:      www.OpenFOAM.org                      |
|    \\/     M anipulation  |                                                 |
\*---------------------------------------------------------------------------*/
FoamFile
{
    version     2.0;
    format      ascii;
    class       surfaceScalarField;
    location    "0.187";
    object      phiAlpha;
}
// * * * * * * * * * * * * * * * * * * * * * * * * * * * * * * * * * * * * * //

dimensions      [0 3 -1 0 0 0 0];

internalField   nonuniform List<scalar> 
7080
(
3.7811e-08
-3.7811e-08
7.11262e-08
-3.33152e-08
8.90401e-08
-1.79138e-08
8.75837e-08
1.45632e-09
7.39481e-08
1.36357e-08
4.89776e-08
2.49705e-08
2.73873e-08
2.15904e-08
8.65948e-09
1.87278e-08
-5.70532e-09
1.43648e-08
-1.19134e-08
6.20808e-09
-1.16786e-08
-2.34749e-10
-2.23682e-08
1.06895e-08
-2.70241e-08
4.656e-09
-3.3626e-08
6.60194e-09
-3.70431e-08
3.41704e-09
-1.65534e-08
-2.04896e-08
1.90837e-08
-3.55898e-08
3.03316e-08
-1.12479e-08
2.26236e-08
7.70782e-09
-2.85362e-08
5.12391e-08
-1.27908e-07
1.00799e-07
-1.90114e-07
6.22057e-08
-1.88939e-07
-1.17547e-09
-1.98807e-07
9.87023e-09
-1.76715e-07
-2.20908e-08
-1.28735e-07
-4.9127e-08
-8.7885e-08
-4.13513e-08
-5.77376e-08
-3.02966e-08
-2.95623e-08
-2.84256e-08
-2.53997e-08
-4.38827e-09
3.83713e-08
-7.61823e-08
8.55587e-08
-8.05027e-08
1.21253e-07
-5.36083e-08
1.33146e-07
-1.04368e-08
1.30068e-07
1.67136e-08
1.1156e-07
4.3479e-08
9.13987e-08
4.17516e-08
7.17723e-08
3.83542e-08
5.04442e-08
3.56931e-08
3.95295e-08
1.71227e-08
3.54089e-08
3.88601e-09
1.4527e-08
3.15714e-08
6.96942e-09
1.22137e-08
-2.10914e-08
3.46628e-08
-3.12869e-08
1.36126e-08
-2.60102e-08
-2.57627e-08
-1.49599e-08
-4.65789e-08
-5.2166e-09
-2.09959e-08
-5.76941e-08
6.02708e-08
-1.77018e-07
1.7074e-07
-2.89594e-07
2.14237e-07
-2.99659e-07
7.28886e-08
-2.72385e-07
-2.85835e-08
-2.47551e-07
-1.51461e-08
-1.95594e-07
-7.42e-08
-1.40735e-07
-1.03968e-07
-9.43082e-08
-8.77625e-08
-6.21051e-08
-6.24851e-08
-3.23199e-08
-5.82277e-08
-5.47607e-08
-2.96482e-09
3.3429e-08
-1.09611e-07
8.14229e-08
-1.28497e-07
1.2055e-07
-9.27349e-08
1.35927e-07
-2.58141e-08
1.36941e-07
1.56998e-08
1.23506e-07
5.69142e-08
1.07278e-07
5.79795e-08
9.35481e-08
5.20838e-08
7.2861e-08
5.63802e-08
6.62853e-08
2.36984e-08
6.47766e-08
5.39476e-09
4.46871e-08
5.16609e-08
4.74765e-08
9.4244e-09
1.69884e-08
6.51509e-08
5.09261e-09
2.55084e-08
-1.34278e-09
-1.93269e-08
-3.04893e-08
-1.74931e-08
-5.447e-08
2.85108e-09
-1.35943e-07
1.41703e-07
-2.53065e-07
2.87823e-07
-3.17507e-07
2.78595e-07
-2.91779e-07
4.72933e-08
-2.56653e-07
-6.37609e-08
-2.13752e-07
-5.80264e-08
-1.61457e-07
-1.26422e-07
-1.18357e-07
-1.47093e-07
-8.04594e-08
-1.25674e-07
-5.26361e-08
-9.02938e-08
-3.00949e-08
-8.07678e-08
-7.78734e-08
-6.98144e-09
3.15409e-08
-1.41152e-07
7.95322e-08
-1.76488e-07
1.1914e-07
-1.32342e-07
1.34971e-07
-4.16451e-08
1.36578e-07
1.40925e-08
1.24127e-07
6.93657e-08
1.08974e-07
7.31326e-08
9.79032e-08
6.31542e-08
7.65945e-08
7.7689e-08
7.46325e-08
2.56604e-08
7.12186e-08
8.80869e-09
5.78338e-08
6.50458e-08
7.60081e-08
-8.74989e-09
4.88135e-08
9.23456e-08
3.44219e-08
3.99001e-08
1.96604e-08
-4.56534e-09
-3.90189e-08
4.11967e-08
-9.11014e-08
5.49285e-08
-1.71746e-07
2.223e-07
-2.4815e-07
3.64195e-07
-2.69022e-07
2.99462e-07
-2.57496e-07
3.56619e-08
-2.27376e-07
-9.39735e-08
-1.68394e-07
-1.17093e-07
-1.30318e-07
-1.64575e-07
-1.0607e-07
-1.71667e-07
-7.47862e-08
-1.57056e-07
-4.14758e-08
-1.2363e-07
-2.58314e-08
-9.64045e-08
-9.12391e-08
-1.24494e-08
3.10272e-08
-1.72179e-07
7.92618e-08
-2.24723e-07
1.19165e-07
-1.72245e-07
1.35138e-07
-5.76184e-08
1.36658e-07
1.25725e-08
1.23972e-07
8.20515e-08
1.0894e-07
8.81648e-08
9.85107e-08
7.35835e-08
7.55769e-08
1.00623e-07
7.6952e-08
2.42853e-08
6.52896e-08
2.04712e-08
6.25706e-08
6.77648e-08
9.48275e-08
-4.10068e-08
7.00811e-08
1.17092e-07
6.01892e-08
4.97921e-08
4.23076e-08
1.33163e-08
-3.804e-08
1.21544e-07
-1.12309e-07
1.2919e-07
-1.69395e-07
2.79321e-07
-1.93064e-07
3.8755e-07
-1.79525e-07
2.85903e-07
-1.532e-07
9.13775e-09
-1.08601e-07
-1.38936e-07
-5.26778e-08
-1.73153e-07
-2.071e-08
-1.96644e-07
-1.17191e-08
-1.80654e-07
-1.94449e-08
-1.49432e-07
-1.83224e-08
-1.24847e-07
-1.59095e-08
-9.88054e-08
-8.79382e-08
-1.91831e-08
3.0829e-08
-2.03008e-07
7.93758e-08
-2.73269e-07
1.19658e-07
-2.12527e-07
1.35833e-07
-7.37942e-08
1.37199e-07
1.12068e-08
1.24041e-07
9.52101e-08
1.09113e-07
1.03092e-07
9.85717e-08
8.4125e-08
7.43593e-08
1.24835e-07
7.74951e-08
2.11495e-08
5.66836e-08
4.12828e-08
6.34692e-08
6.09791e-08
9.78621e-08
-7.53996e-08
8.03033e-08
1.34651e-07
8.43939e-08
4.57016e-08
7.07784e-08
2.69319e-08
-8.59252e-09
2.00915e-07
-8.41534e-08
2.04751e-07
-1.11456e-07
3.06753e-07
-1.12272e-07
3.8834e-07
-1.01399e-07
2.75008e-07
-7.24427e-08
-1.99753e-08
-2.41593e-08
-1.87208e-07
3.23546e-08
-2.29639e-07
5.84179e-08
-2.22654e-07
5.83656e-08
-1.80597e-07
3.52014e-08
-1.26328e-07
7.03049e-09
-9.67587e-08
-6.6527e-09
-8.5148e-08
-7.64867e-08
-1.81438e-08
3.06577e-08
-2.33666e-07
7.95598e-08
-3.22171e-07
1.20308e-07
-2.53275e-07
1.36746e-07
-9.02322e-08
1.37938e-07
1.00148e-08
1.24195e-07
1.08954e-07
1.09534e-07
1.17753e-07
9.8492e-08
9.5167e-08
7.39095e-08
1.49418e-07
7.78726e-08
1.71865e-08
5.35942e-08
6.55612e-08
6.19296e-08
5.26437e-08
7.34039e-08
-8.68738e-08
7.16944e-08
1.3636e-07
1.00973e-07
1.64227e-08
9.22574e-08
3.56479e-08
3.0422e-08
2.62751e-07
-4.34774e-08
2.7865e-07
-6.21068e-08
3.2582e-07
-3.56164e-08
3.61824e-07
-8.63786e-09
2.48007e-07
2.53515e-08
-5.39514e-08
5.14326e-08
-2.13219e-07
7.49388e-08
-2.53178e-07
8.16026e-08
-2.29347e-07
7.99635e-08
-1.78799e-07
7.09016e-08
-1.17234e-07
4.52781e-08
-7.11354e-08
1.3841e-08
-5.37111e-08
-5.03349e-08
-1.23262e-08
3.04525e-08
-2.64119e-07
7.9765e-08
-3.71484e-07
1.2107e-07
-2.94581e-07
1.37828e-07
-1.0699e-07
1.38813e-07
9.02956e-09
1.24371e-07
1.23395e-07
1.10142e-07
1.31982e-07
9.82323e-08
1.07077e-07
7.43546e-08
1.73296e-07
7.87318e-08
1.28092e-08
5.82954e-08
8.59977e-08
6.07309e-08
5.02083e-08
3.59986e-08
-6.21415e-08
4.61369e-08
1.26222e-07
9.27354e-08
-3.01757e-08
8.35028e-08
4.48806e-08
5.41764e-08
2.92077e-07
-1.02496e-09
3.33852e-07
-2.03562e-08
3.45451e-07
1.72489e-08
3.25555e-07
7.9587e-08
1.86418e-07
1.16172e-07
-9.04718e-08
1.2461e-07
-2.21691e-07
1.20176e-07
-2.48775e-07
1.05801e-07
-2.15097e-07
8.81394e-08
-1.6131e-07
7.375e-08
-1.02852e-07
5.34464e-08
-5.08322e-08
2.59926e-08
-2.62575e-08
-2.55857e-08
1.24043e-09
3.02005e-08
-2.94319e-07
7.99843e-08
-4.21268e-07
1.2194e-07
-3.36536e-07
1.39078e-07
-1.24128e-07
1.39814e-07
8.29413e-09
1.24571e-07
1.38638e-07
1.10892e-07
1.45662e-07
9.77188e-08
1.20249e-07
7.56234e-08
1.95391e-07
7.87781e-08
9.65456e-09
6.79239e-08
9.68519e-08
6.71254e-08
5.10068e-08
2.0555e-08
-1.55711e-08
2.28541e-08
1.23923e-07
5.49661e-08
-6.22877e-08
5.64814e-08
4.33653e-08
6.0693e-08
2.87865e-07
4.82083e-08
3.46337e-07
5.76231e-08
3.36037e-07
9.87934e-08
2.84421e-07
1.59034e-07
1.26227e-07
1.80394e-07
-1.11913e-07
1.65328e-07
-2.06654e-07
1.40467e-07
-2.23988e-07
1.16542e-07
-1.91171e-07
9.11918e-08
-1.35964e-07
7.02018e-08
-8.18629e-08
4.87406e-08
-2.93714e-08
2.67132e-08
-4.23034e-09
-5.53227e-09
6.65725e-09
2.98966e-08
-3.24216e-07
8.02144e-08
-4.71586e-07
1.22915e-07
-3.79236e-07
1.40506e-07
-1.41719e-07
1.40936e-07
7.86393e-09
1.24811e-07
1.54764e-07
1.11699e-07
1.58773e-07
9.71221e-08
1.34826e-07
7.67307e-08
2.15783e-07
7.62005e-08
1.01847e-08
7.74043e-08
9.56482e-08
7.63195e-08
5.20916e-08
2.50921e-08
3.56564e-08
1.79761e-08
1.31039e-07
3.17189e-08
-7.60304e-08
5.18945e-08
2.31897e-08
7.38171e-08
2.65943e-07
7.97373e-08
3.40417e-07
1.27461e-07
2.88313e-07
1.78201e-07
2.33681e-07
2.16751e-07
8.7503e-08
2.00766e-07
-9.6075e-08
1.6711e-07
-1.73119e-07
1.34496e-07
-1.91376e-07
1.07514e-07
-1.64189e-07
8.14102e-08
-1.0986e-07
5.70082e-08
-5.74633e-08
3.70493e-08
-9.41273e-09
2.00074e-08
1.28111e-08
8.92182e-09
5.55077e-09
2.95367e-08
-3.53752e-07
8.04525e-08
-5.22501e-07
1.23992e-07
-4.22776e-07
1.42117e-07
-1.59844e-07
1.42181e-07
7.7993e-09
1.25089e-07
1.71856e-07
1.12544e-07
1.71318e-07
9.6709e-08
1.50661e-07
7.66416e-08
2.3585e-07
7.1899e-08
1.49274e-08
8.3992e-08
8.35552e-08
7.85562e-08
5.75275e-08
3.51992e-08
7.90135e-08
3.12261e-08
1.35012e-07
3.75226e-08
-8.23268e-08
6.19687e-08
-1.25635e-09
8.73806e-08
2.40531e-07
9.62529e-08
3.31544e-07
1.43448e-07
2.41117e-07
1.95092e-07
1.82038e-07
2.08692e-07
7.38272e-08
1.71096e-07
-5.84982e-08
1.52524e-07
-1.54546e-07
1.32228e-07
-1.7108e-07
1.07903e-07
-1.39863e-07
7.91046e-08
-8.10647e-08
4.89341e-08
-2.72953e-08
2.77891e-08
1.17332e-08
1.56192e-08
2.49802e-08
1.64912e-08
8.05223e-09
2.91167e-08
-3.82869e-07
8.06945e-08
-5.74079e-07
1.25162e-07
-4.67243e-07
1.4392e-07
-1.78602e-07
1.43551e-07
8.16854e-09
1.2539e-07
1.90017e-07
1.13497e-07
1.83211e-07
9.65874e-08
1.67571e-07
7.50897e-08
2.57348e-07
6.9257e-08
2.07601e-08
8.7697e-08
6.51152e-08
7.24155e-08
7.2809e-08
4.41021e-08
1.07327e-07
5.0479e-08
1.28635e-07
5.95694e-08
-9.14171e-08
7.27225e-08
-1.44094e-08
8.91783e-08
2.24075e-07
1.08209e-07
3.12513e-07
1.33803e-07
2.15523e-07
1.69288e-07
1.46551e-07
1.786e-07
6.45266e-08
1.64732e-07
-4.46293e-08
1.6019e-07
-1.50004e-07
1.41865e-07
-1.52754e-07
1.1433e-07
-1.12329e-07
7.6537e-08
-4.32735e-08
3.94149e-08
9.82521e-09
2.28907e-08
2.82589e-08
1.49461e-08
3.29235e-08
2.09004e-08
1.05387e-08
2.86319e-08
-4.11501e-07
8.09349e-08
-6.26382e-07
1.26431e-07
-5.1274e-07
1.45923e-07
-1.98093e-07
1.45042e-07
9.05e-09
1.25704e-07
2.09355e-07
1.14669e-07
1.94245e-07
9.65144e-08
1.85727e-07
7.29496e-08
2.80913e-07
6.81437e-08
2.5566e-08
9.05503e-08
4.27087e-08
6.63935e-08
9.69659e-08
5.28864e-08
1.20834e-07
6.87253e-08
1.12797e-07
7.63608e-08
-9.90526e-08
7.73347e-08
-1.53832e-08
7.26949e-08
2.28715e-07
1.02075e-07
2.83133e-07
1.28892e-07
1.88707e-07
1.49478e-07
1.25965e-07
1.64726e-07
4.92785e-08
1.67017e-07
-4.69205e-08
1.46218e-07
-1.29205e-07
1.19554e-07
-1.2609e-07
9.35893e-08
-8.63647e-08
6.91379e-08
-1.8822e-08
4.7359e-08
3.16042e-08
3.06526e-08
4.49653e-08
1.73206e-08
4.62543e-08
2.12486e-08
1.69726e-08
2.80766e-08
-4.39578e-07
8.11674e-08
-6.79473e-07
1.27815e-07
-5.59387e-07
1.48136e-07
-2.18414e-07
1.46651e-07
1.05351e-08
1.26038e-07
2.29967e-07
1.16067e-07
2.04216e-07
9.64699e-08
2.05324e-07
7.03251e-08
3.07057e-07
6.70597e-08
2.88314e-08
9.28051e-08
1.69634e-08
6.37939e-08
1.25977e-07
5.27909e-08
1.31837e-07
7.68686e-08
8.87189e-08
7.41244e-08
-9.63083e-08
7.86402e-08
-1.98989e-08
7.43421e-08
2.33013e-07
9.70293e-08
2.60446e-07
1.22093e-07
1.63643e-07
1.38466e-07
1.09593e-07
1.54901e-07
3.2843e-08
1.49866e-07
-4.18856e-08
1.22009e-07
-1.01347e-07
9.74298e-08
-1.01511e-07
7.98137e-08
-6.8748e-08
6.70397e-08
-6.04643e-09
4.73416e-08
5.13024e-08
1.68665e-08
7.54404e-08
1.2651e-08
5.04684e-08
8.47258e-09
2.54279e-08
2.74444e-08
-4.67022e-07
8.13853e-08
-7.33414e-07
1.29324e-07
-6.07326e-07
1.50568e-07
-2.39659e-07
1.48378e-07
1.27251e-08
1.26381e-07
2.51964e-07
1.17703e-07
2.12895e-07
9.66223e-08
2.26404e-07
6.74526e-08
3.36227e-07
6.4043e-08
3.2241e-08
9.47964e-08
-1.379e-08
6.98652e-08
1.50908e-07
6.3884e-08
1.37819e-07
8.54016e-08
6.72012e-08
7.48781e-08
-8.57847e-08
9.13929e-08
-3.64136e-08
8.32001e-08
2.41206e-07
8.51595e-08
2.58486e-07
1.10216e-07
1.38586e-07
1.27102e-07
9.27075e-08
1.31138e-07
2.88064e-08
1.24426e-07
-3.51736e-08
9.97396e-08
-7.66607e-08
5.54798e-08
-5.72515e-08
1.29285e-08
-2.62004e-08
-5.06952e-09
1.19509e-08
-1.97785e-08
6.60114e-08
-2.19149e-08
7.7577e-08
1.02548e-09
2.75297e-08
-6.02466e-09
1.55229e-08
2.67281e-08
-4.9375e-07
8.1581e-08
-7.88267e-07
1.30963e-07
-6.56707e-07
1.53236e-07
-2.61933e-07
1.5022e-07
1.57416e-08
1.2672e-07
2.75464e-07
1.19549e-07
2.20066e-07
9.72749e-08
2.48678e-07
6.40473e-08
3.69455e-07
6.06976e-08
3.55907e-08
9.91266e-08
-5.22188e-08
7.30152e-08
1.7702e-07
2.9086e-08
1.81748e-07
5.22897e-08
4.39975e-08
7.73354e-08
-1.1083e-07
1.11894e-07
-7.09726e-08
1.03149e-07
2.49952e-07
9.68762e-08
2.64759e-07
1.20799e-07
1.14663e-07
1.11549e-07
1.01958e-07
1.18975e-07
2.13799e-08
1.32426e-07
-4.86247e-08
1.12196e-07
-5.64305e-08
7.2108e-08
-1.71637e-08
1.94118e-08
2.64958e-08
-1.81829e-08
4.95416e-08
-3.19317e-08
7.97526e-08
-2.91848e-08
7.48304e-08
-2.17143e-08
2.0058e-08
-5.50865e-09
-2.22288e-08
2.59197e-08
-5.1967e-07
8.17437e-08
-8.44091e-07
1.32729e-07
-7.07693e-07
1.5616e-07
-2.85364e-07
1.52161e-07
1.974e-08
1.26983e-07
3.00643e-07
1.21797e-07
2.25252e-07
9.76269e-08
2.72848e-07
5.91736e-08
4.07908e-07
6.01624e-08
3.46018e-08
1.0631e-07
-9.83667e-08
8.27245e-08
2.00606e-07
5.45897e-08
2.09883e-07
7.0914e-08
2.76733e-08
9.01328e-08
-1.30049e-07
1.30453e-07
-1.11293e-07
1.47402e-07
2.33004e-07
1.41302e-07
2.70858e-07
1.09624e-07
1.46342e-07
8.70029e-08
1.24579e-07
1.11295e-07
-2.91252e-09
1.06512e-07
-4.3841e-08
6.98404e-08
-1.97594e-08
5.53669e-08
-2.69029e-09
4.02826e-08
4.15802e-08
8.67677e-09
8.11508e-08
-5.66737e-09
9.40919e-08
-6.16518e-09
7.53191e-08
-1.89099e-08
3.27999e-08
1.22395e-08
-3.66548e-08
2.5013e-08
-5.44683e-07
8.18479e-08
-9.00926e-07
1.34605e-07
-7.6045e-07
1.59362e-07
-3.10121e-07
1.54104e-07
2.49982e-08
1.27241e-07
3.27505e-07
1.24288e-07
2.28205e-07
1.00409e-07
2.96727e-07
5.3525e-08
4.54792e-07
5.58476e-08
3.22792e-08
1.13653e-07
-1.56172e-07
7.69623e-08
2.37296e-07
2.33236e-08
2.63522e-07
4.33763e-08
7.62062e-09
7.83418e-08
-1.65015e-07
1.23712e-07
-1.56663e-07
1.32297e-07
2.24418e-07
1.22773e-07
2.80383e-07
9.20693e-08
1.77046e-07
7.89135e-08
1.37735e-07
7.74547e-08
-1.45374e-09
2.25018e-08
1.11111e-08
-1.50975e-08
1.78401e-08
5.68513e-10
-1.83557e-08
2.8707e-08
1.3441e-08
3.40788e-08
7.57794e-08
3.84608e-08
8.97123e-08
4.21495e-08
7.16293e-08
2.75438e-08
4.74045e-08
3.90447e-08
7.41846e-10
2.40133e-08
-5.68696e-07
8.18125e-08
-9.58725e-07
1.36516e-07
-8.15153e-07
1.62782e-07
-3.36387e-07
1.55859e-07
3.19212e-08
1.2723e-07
3.56134e-07
1.28572e-07
2.26864e-07
9.43351e-08
3.30963e-07
5.41005e-08
4.95027e-07
5.81521e-08
2.82277e-08
1.1313e-07
-2.1115e-07
7.1529e-08
2.78897e-07
-3.39746e-09
3.38448e-07
3.61167e-08
-3.18935e-08
8.27024e-08
-2.116e-07
1.17699e-07
-1.91446e-07
1.09045e-07
2.33175e-07
9.4053e-08
2.95374e-07
9.95674e-08
1.71531e-07
7.07297e-08
1.66572e-07
2.29252e-09
6.69834e-08
-5.93726e-08
7.27764e-08
-7.30671e-08
3.15339e-08
-5.34076e-08
-3.80159e-08
-1.88226e-08
-2.11456e-08
1.26212e-08
4.43355e-08
3.46062e-08
6.77309e-08
5.03037e-08
5.59407e-08
4.45542e-08
5.31609e-08
5.83396e-08
2.52597e-08
2.29735e-08
-5.9167e-07
8.13736e-08
-1.01713e-06
1.38162e-07
-8.71942e-07
1.66068e-07
-3.64293e-07
1.56781e-07
4.12081e-08
1.2779e-07
3.85126e-07
1.3046e-07
2.24193e-07
1.08012e-07
3.53412e-07
3.79073e-08
5.65132e-07
2.21645e-08
4.39705e-08
1.111e-07
-3.00085e-07
5.79141e-08
3.32083e-07
2.14994e-09
3.94212e-07
6.61368e-08
-9.58803e-08
7.61597e-08
-2.21623e-07
9.90919e-08
-2.14481e-07
6.9611e-08
2.6286e-07
5.64236e-08
3.08561e-07
6.56099e-08
1.62345e-07
5.91328e-08
1.7305e-07
5.09076e-09
1.21025e-07
-8.43124e-08
1.6218e-07
-1.05543e-07
5.27679e-08
-1.0001e-07
-4.35511e-08
-7.22227e-08
-4.89343e-08
-3.69519e-08
9.06259e-09
-8.9999e-09
3.97742e-08
1.58551e-08
3.10857e-08
2.40376e-08
4.49776e-08
6.48502e-08
1.75248e-08
2.20895e-08
-6.13759e-07
7.97515e-08
-1.07479e-06
1.38484e-07
-9.30674e-07
1.67937e-07
-3.93746e-07
1.55577e-07
5.35674e-08
1.25655e-07
4.15048e-07
1.37245e-07
2.12603e-07
7.85632e-08
4.12094e-07
4.18856e-08
6.01809e-07
4.35659e-08
4.22902e-08
1.10893e-07
-3.65624e-07
4.76677e-08
3.95352e-07
-1.76748e-08
4.59555e-07
1.09013e-07
-2.22568e-07
1.27126e-07
-2.396e-07
9.18867e-08
-1.79333e-07
7.6508e-08
2.77771e-07
6.40882e-08
3.20982e-07
1.54041e-08
2.11017e-07
8.88763e-09
1.79566e-07
3.21503e-08
9.65586e-08
-2.28314e-08
2.17167e-07
-5.05736e-08
8.051e-08
-6.50031e-08
-2.91217e-08
-7.21804e-08
-4.1757e-08
-5.69579e-08
-6.15992e-09
-3.55961e-08
1.84125e-08
-1.99826e-08
1.5473e-08
-7.27564e-09
3.22695e-08
5.44846e-08
3.08903e-09
2.18248e-08
-6.35584e-07
7.50426e-08
-1.128e-06
1.34494e-07
-9.90126e-07
1.65035e-07
-4.24287e-07
1.47279e-07
7.1324e-08
1.18478e-07
4.43849e-07
1.22077e-07
2.09005e-07
1.10754e-07
4.23416e-07
7.35702e-08
6.38993e-07
4.72621e-08
6.85984e-08
1.71678e-07
-4.81264e-07
1.39354e-07
4.27676e-07
-1.76249e-08
6.16533e-07
1.08318e-07
-3.4851e-07
1.94335e-07
-3.25337e-07
1.08189e-07
-9.32789e-08
8.42874e-08
3.0144e-07
8.6158e-08
3.19146e-07
3.9823e-08
2.57354e-07
-8.12611e-09
2.27515e-07
4.37261e-08
4.4685e-08
5.97031e-08
2.01189e-07
2.11413e-08
1.19072e-07
6.7971e-10
-8.66012e-09
-1.91851e-08
-2.18922e-08
-2.40262e-08
-1.31882e-09
-2.05219e-08
1.49082e-08
-2.14841e-08
1.64355e-08
-1.65925e-08
2.73803e-08
4.08138e-08
-2.91995e-09
2.25632e-08
-6.58147e-07
6.36751e-08
-1.16912e-06
1.19885e-07
-1.04634e-06
1.50455e-07
-4.54857e-07
1.22038e-07
9.97411e-08
8.17144e-08
4.84173e-07
6.92906e-08
2.21429e-07
4.10206e-08
4.51686e-07
-5.82103e-09
6.85835e-07
-4.35693e-08
1.07183e-07
-2.15805e-08
-5.03844e-07
-1.25898e-08
4.11549e-07
-1.24599e-07
7.27835e-07
1.54857e-08
-4.88595e-07
1.95858e-07
-5.0809e-07
1.20161e-07
-1.76646e-08
9.24214e-08
3.29103e-07
9.57763e-08
3.16568e-07
7.96227e-08
2.73511e-07
2.96901e-08
2.74326e-07
3.39437e-08
4.04116e-08
7.7957e-08
1.56406e-07
5.70398e-08
1.39867e-07
2.93003e-08
1.90793e-08
9.21574e-09
-1.80756e-09
7.57643e-09
3.1968e-10
6.6873e-09
1.5796e-08
-6.10027e-10
2.37303e-08
-8.05413e-09
3.48252e-08
4.11529e-08
-8.39243e-09
2.63206e-08
-6.84468e-07
4.14346e-08
-1.18423e-06
8.66328e-08
-1.09153e-06
1.18154e-07
-4.86379e-07
7.00249e-08
1.47873e-07
3.53065e-08
5.18891e-07
5.50782e-08
2.01657e-07
6.35322e-09
4.99624e-07
-2.70676e-08
7.19255e-07
-1.00095e-07
1.82004e-07
-1.32795e-07
-4.73987e-07
-1.17503e-07
3.9375e-07
-2.09731e-07
8.18453e-07
-1.04815e-07
-5.93511e-07
8.07245e-08
-6.93631e-07
3.66931e-08
2.60969e-08
-4.55112e-09
3.72712e-07
-1.18048e-08
3.24059e-07
5.03005e-08
2.11408e-07
6.3695e-08
2.60168e-07
3.30387e-08
7.10482e-08
7.15672e-08
1.1786e-07
7.34848e-08
1.38701e-07
3.38207e-08
5.87428e-08
1.06018e-08
2.14033e-08
1.19676e-08
-1.04855e-09
9.22895e-09
1.85324e-08
3.08644e-09
2.9873e-08
-8.37869e-09
4.62903e-08
5.16028e-08
-1.88284e-08
1.83718e-08
-7.02839e-07
8.08665e-09
-1.17395e-06
3.60032e-08
-1.11945e-06
7.97562e-08
-5.30138e-07
3.25591e-08
1.54894e-07
-5.15804e-08
6.03031e-07
-1.44539e-07
2.9529e-07
-8.87383e-08
4.25319e-07
-1.83522e-08
6.46694e-07
-1.27302e-07
2.89545e-07
-1.34032e-07
-4.7314e-07
-1.20246e-07
3.85615e-07
-1.69797e-07
8.67972e-07
-1.59312e-07
-6.04149e-07
-8.30669e-08
-7.68971e-07
-9.6662e-08
3.94073e-08
-1.75116e-07
4.5121e-07
-8.90689e-08
2.38048e-07
7.00158e-08
5.17425e-08
1.18911e-07
2.1331e-07
7.62129e-08
1.13727e-07
5.49518e-08
1.41004e-07
4.38148e-08
1.50128e-07
5.13644e-09
9.74256e-08
-7.65599e-09
3.41937e-08
-1.06019e-08
1.899e-09
-1.08742e-08
1.8808e-08
-7.08405e-09
2.60873e-08
-9.38052e-09
4.85866e-08
5.73329e-08
-1.51111e-08
2.84184e-08
-7.31258e-07
-2.31645e-08
-1.12236e-06
-7.16118e-09
-1.08528e-06
2.25324e-08
-1.59339e-07
-2.92415e-08
2.01511e-08
-2.60354e-07
5.72479e-07
-4.15531e-07
4.46824e-07
-1.51033e-07
1.57531e-07
-2.77146e-08
5.24039e-07
-1.84206e-07
4.44625e-07
-2.39952e-07
-4.16365e-07
-2.25526e-07
3.72264e-07
-1.24187e-07
7.6719e-07
-1.50874e-07
-5.77485e-07
-1.78394e-07
-7.40216e-07
-1.48921e-07
8.95795e-09
-1.59125e-07
4.61458e-07
-6.69112e-08
1.45931e-07
3.50708e-08
-5.03279e-08
2.67409e-08
2.22101e-07
-3.33544e-08
1.75127e-07
6.94983e-09
1.007e-07
2.3425e-08
1.33653e-07
-1.65773e-08
1.37425e-07
-2.76649e-08
4.52852e-08
-2.44796e-08
-1.28642e-09
-1.60884e-08
1.04169e-08
-9.6029e-09
1.96016e-08
-3.62267e-09
4.26063e-08
5.23754e-08
1.33493e-09
-4.5391e-08
-6.85867e-07
-3.04673e-08
-1.13728e-06
-6.61184e-09
-2.9886e-07
-3.58235e-08
-5.39191e-09
-2.83965e-07
8.71576e-09
-3.88789e-07
2.19578e-07
-3.94648e-07
4.2515e-07
-2.69945e-07
3.05109e-08
-1.17715e-07
3.72136e-07
-1.80633e-07
5.10872e-07
-3.44222e-07
-2.53911e-07
-2.91878e-07
3.18942e-07
-1.16115e-07
5.91516e-07
-1.80605e-07
-5.13067e-07
-3.05465e-07
-6.15952e-07
-2.43768e-07
-5.34918e-08
-1.24583e-07
3.41602e-07
-1.01924e-07
1.23072e-07
-1.00668e-07
-5.1657e-08
-7.78628e-08
1.99233e-07
-6.25386e-08
1.59803e-07
7.16828e-09
3.09932e-08
4.48126e-08
9.60083e-08
1.225e-08
1.69987e-07
-5.70977e-09
6.32433e-08
-1.61603e-08
9.16399e-09
-1.48164e-08
9.07289e-09
-1.09498e-08
1.57348e-08
-1.13961e-09
3.27963e-08
4.18892e-08
9.34649e-09
-3.6106e-08
-6.49756e-07
1.60501e-07
-9.5959e-07
-9.95572e-09
-1.31228e-08
-6.41378e-08
-9.62484e-10
-3.49883e-07
-5.26202e-08
-4.78453e-07
3.84848e-08
-5.23834e-07
3.9137e-07
-5.28251e-07
1.3772e-08
-2.3616e-07
7.67648e-08
-1.77108e-07
4.51829e-07
-4.04687e-07
-2.591e-08
-1.99179e-07
1.11961e-07
1.25893e-08
3.77697e-07
-1.82898e-07
-3.17653e-07
-3.62185e-07
-4.36724e-07
-3.01403e-07
-1.14995e-07
-1.09194e-07
1.47501e-07
-1.00628e-07
1.14439e-07
-1.26114e-07
-2.61693e-08
-7.81683e-08
1.51287e-07
-4.00347e-08
1.2167e-07
-4.49802e-08
3.59387e-08
-4.62114e-09
5.56492e-08
4.70281e-08
1.18338e-07
5.57918e-08
5.44797e-08
3.12028e-08
3.37531e-08
6.75713e-09
3.35186e-08
-3.26726e-09
2.57591e-08
5.79544e-10
2.89493e-08
3.27565e-08
9.71199e-09
-5.79979e-08
-5.53422e-07
1.76304e-08
-2.70119e-07
-6.16323e-10
-3.89472e-09
-7.81461e-11
-7.45906e-10
-1.08255e-07
-2.17165e-09
-5.62777e-07
8.45163e-09
-6.46681e-07
2.64473e-07
-6.50289e-07
-4.68703e-08
-3.90332e-07
-1.83183e-07
-2.26464e-07
2.8797e-07
-3.59127e-07
1.0676e-07
-1.72147e-07
-7.50131e-08
2.88884e-08
1.75794e-07
-1.46583e-07
-1.42247e-07
-3.38425e-07
-2.28488e-07
-3.53806e-07
-8.4993e-08
-1.24015e-07
-7.12441e-08
-4.43279e-08
3.46832e-08
-9.03523e-08
1.47427e-08
-2.69074e-08
8.7842e-08
3.5594e-08
4.46695e-08
-3.84555e-09
5.30781e-08
-1.04439e-08
4.46634e-08
5.45428e-08
4.21443e-08
6.91232e-08
2.57545e-08
5.25294e-08
3.40859e-08
4.25179e-08
2.83863e-08
2.78584e-08
2.54921e-08
1.82157e-08
2.35124e-08
2.22088e-08
1.34018e-08
2.2403e-07
-2.05711e-07
3.92884e-09
-1.21381e-11
4.747e-11
-9.31577e-12
5.73785e-10
1.33831e-11
-1.79019e-08
5.62572e-11
-2.65031e-07
-1.40416e-09
-3.84855e-07
3.48914e-08
-5.56998e-07
-3.70984e-08
-5.27752e-07
-2.83364e-07
-3.21168e-07
8.02404e-08
-3.0551e-07
9.62838e-08
-3.20236e-07
-6.11109e-08
-1.28057e-07
-5.6167e-09
-1.00695e-07
-2.94228e-08
-1.4194e-07
-1.39218e-08
-1.22168e-07
-1.36471e-12
-1.03594e-07
-1.61674e-10
-5.17661e-09
-1.1683e-10
4.06237e-09
-3.86644e-11
2.72034e-08
1.21884e-09
2.33393e-08
-8.7917e-11
2.77435e-08
7.83746e-10
3.59066e-08
-2.05058e-10
3.62754e-08
2.07414e-10
2.75121e-08
-2.02739e-11
2.87802e-08
-8.684e-11
2.55939e-08
7.2775e-12
1.90433e-08
1.54366e-11
1.36244e-08
-7.11519e-11
8.95728e-09
-6.35316e-11
2.30868e-08
-2.76978e-08
4.83958e-08
-2.55531e-08
8.39161e-08
-3.5757e-08
1.23519e-07
-4.03669e-08
1.62608e-07
-3.95355e-08
1.80145e-07
-1.75788e-08
1.84055e-07
-3.95582e-09
2.18007e-07
-3.40026e-08
1.75955e-07
4.31364e-08
6.15509e-08
1.15333e-07
-5.42445e-09
6.69428e-08
-2.14054e-08
1.5981e-08
-1.32099e-08
-8.19559e-09
2.24877e-08
-3.55692e-08
4.45519e-08
-2.20526e-08
4.17749e-08
2.77699e-09
3.32829e-08
8.492e-09
2.6863e-08
6.41994e-09
1.31278e-08
1.37352e-08
5.44541e-09
7.68233e-09
-1.04211e-08
1.58666e-08
-2.49032e-08
1.44821e-08
-3.82284e-08
1.33252e-08
-5.13718e-08
1.31433e-08
-7.13483e-08
1.99765e-08
-8.33764e-08
1.20281e-08
-8.6878e-08
3.50158e-09
-7.04455e-08
-1.64324e-08
-3.74018e-08
-3.30437e-08
-3.74018e-08
2.35122e-08
-5.41743e-08
5.1768e-08
-5.38085e-08
8.63545e-08
-7.03429e-08
1.3152e-07
-8.55317e-08
1.84498e-07
-9.2512e-08
2.34657e-07
-6.79831e-08
2.69538e-07
-3.89256e-08
3.12187e-07
-7.67014e-08
3.15886e-07
3.97185e-08
2.1038e-07
2.21242e-07
8.32546e-08
1.94113e-07
1.95044e-08
7.97741e-08
2.66214e-08
-1.53472e-08
4.05185e-08
-4.94081e-08
4.56392e-08
-2.71409e-08
3.34756e-08
1.49406e-08
1.60615e-09
4.03614e-08
-1.03979e-08
1.8424e-08
-3.6849e-08
4.01863e-08
-5.01358e-08
2.09691e-08
-7.25088e-08
3.82395e-08
-9.13647e-08
3.33379e-08
-1.03294e-07
2.52542e-08
-1.13656e-07
2.35055e-08
-1.26921e-07
3.32413e-08
-1.28444e-07
1.35513e-08
-1.18928e-07
-6.01441e-09
-8.48446e-08
-5.05158e-08
-3.7953e-08
-7.99353e-08
-7.53548e-08
1.13684e-08
-7.25237e-08
3.21563e-08
-7.45907e-08
5.88736e-08
-9.70436e-08
9.64012e-08
-1.23031e-07
1.42599e-07
-1.38661e-07
1.99008e-07
-1.24345e-07
2.45359e-07
-8.52482e-08
2.81049e-07
-1.12723e-07
3.07009e-07
1.36474e-08
2.59054e-07
2.69378e-07
1.57806e-07
2.95374e-07
7.7229e-08
1.60366e-07
5.01632e-08
1.16018e-08
2.11593e-08
-2.04892e-08
1.11828e-08
-1.71515e-08
-3.28506e-09
2.94084e-08
-3.90702e-08
7.61466e-08
-4.24109e-08
2.17647e-08
-6.85442e-08
6.63195e-08
-7.8259e-08
3.06839e-08
-9.55907e-08
5.55713e-08
-1.12837e-07
5.05844e-08
-1.18629e-07
3.10463e-08
-1.25251e-07
3.01275e-08
-1.33637e-07
4.16271e-08
-1.3122e-07
1.11345e-08
-1.18254e-07
-1.89808e-08
-8.07414e-08
-8.80285e-08
-3.30235e-08
-1.27653e-07
-1.08378e-07
-1.74735e-10
-8.47651e-08
2.10951e-08
-9.58101e-08
5.17509e-08
-1.27631e-07
7.57579e-08
-1.47348e-07
9.86533e-08
-1.61804e-07
1.36195e-07
-1.62042e-07
1.97939e-07
-1.47166e-07
2.30965e-07
-1.45938e-07
2.48902e-07
-4.33072e-09
2.48238e-07
2.70061e-07
1.91955e-07
3.51673e-07
1.19275e-07
2.33061e-07
6.38599e-08
6.70047e-08
2.61223e-09
4.07688e-08
-1.81757e-08
3.63699e-09
-3.58375e-08
4.70702e-08
-6.87349e-08
1.09044e-07
-5.75493e-08
1.05791e-08
-7.69291e-08
8.56992e-08
-8.71655e-08
4.09204e-08
-9.97193e-08
6.8125e-08
-1.17191e-07
6.80558e-08
-1.20109e-07
3.3965e-08
-1.2569e-07
3.5708e-08
-1.33103e-07
4.90406e-08
-1.30223e-07
8.25426e-09
-1.16837e-07
-3.23668e-08
-7.88782e-08
-1.25987e-07
-3.11403e-08
-1.75391e-07
-1.39519e-07
-1.84645e-08
-8.54574e-08
-1.4544e-08
-9.97508e-08
-2.43431e-08
-1.18004e-07
-3.22113e-08
-1.39473e-07
-2.0784e-08
-1.73223e-07
1.47287e-08
-1.97643e-07
7.17727e-08
-2.04269e-07
1.17748e-07
-1.91902e-07
1.51549e-07
-3.85499e-08
1.78577e-07
2.43048e-07
1.73134e-07
3.56908e-07
1.29238e-07
2.76608e-07
6.24074e-08
1.33836e-07
-1.75072e-08
1.20683e-07
-4.35296e-08
2.96594e-08
-5.82059e-08
6.17464e-08
-8.94831e-08
1.40321e-07
-6.37425e-08
-1.51615e-08
-7.23368e-08
9.42935e-08
-8.98549e-08
5.84385e-08
-9.93674e-08
7.76374e-08
-1.18242e-07
8.693e-08
-1.20077e-07
3.58003e-08
-1.25405e-07
4.10359e-08
-1.32955e-07
5.6591e-08
-1.30321e-07
5.6206e-09
-1.16846e-07
-4.58422e-08
-7.86423e-08
-1.64191e-07
-3.06303e-08
-2.23403e-07
-1.70149e-07
-3.06577e-08
-7.30052e-08
-5.24737e-08
-7.7992e-08
-8.26021e-08
-8.80284e-08
-9.7455e-08
-1.24603e-07
-8.86229e-08
-1.81961e-07
-5.73814e-08
-2.28834e-07
-7.31372e-09
-2.54323e-07
3.37894e-08
-2.32995e-07
7.10515e-08
-7.57998e-08
1.01523e-07
2.12584e-07
1.10167e-07
3.48271e-07
9.64205e-08
2.9098e-07
3.18235e-08
1.98491e-07
-4.7121e-08
1.99628e-07
-6.84567e-08
5.09952e-08
-7.15346e-08
6.48243e-08
-9.72182e-08
1.66005e-07
-6.53599e-08
-4.70199e-08
-6.36752e-08
9.26088e-08
-9.07122e-08
8.54755e-08
-9.90234e-08
8.59486e-08
-1.18949e-07
1.06855e-07
-1.20302e-07
3.71534e-08
-1.25317e-07
4.60512e-08
-1.33203e-07
6.4477e-08
-1.3093e-07
3.34702e-09
-1.17324e-07
-5.9448e-08
-7.88006e-08
-2.02714e-07
-3.0437e-08
-2.71767e-07
-2.00586e-07
-3.82032e-08
-4.71282e-08
-6.70076e-08
-4.91874e-08
-8.47318e-08
-7.03042e-08
-9.20174e-08
-1.17284e-07
-9.90089e-08
-1.74972e-07
-9.59371e-08
-2.31936e-07
-7.92249e-08
-2.71068e-07
-6.2731e-08
-2.49442e-07
-2.14497e-08
-1.17069e-07
3.43095e-08
1.57128e-07
6.93711e-08
3.13212e-07
5.47817e-08
3.0625e-07
-1.17695e-08
2.65057e-07
-7.37222e-08
2.61581e-07
-8.85387e-08
6.58116e-08
-6.89966e-08
4.52822e-08
-8.02359e-08
1.77244e-07
-6.43984e-08
-6.28574e-08
-5.8334e-08
8.65444e-08
-9.12557e-08
1.18397e-07
-9.96238e-08
9.43167e-08
-1.19618e-07
1.26849e-07
-1.20787e-07
3.83226e-08
-1.25273e-07
5.05372e-08
-1.33582e-07
7.27858e-08
-1.31738e-07
1.50376e-09
-1.17959e-07
-7.32274e-08
-7.90386e-08
-2.41635e-07
-3.02716e-08
-3.20534e-07
-2.30857e-07
-2.34582e-08
-2.243e-08
-4.93503e-08
-2.32952e-08
-7.05884e-08
-4.9066e-08
-8.84088e-08
-9.94635e-08
-1.08681e-07
-1.54788e-07
-1.27784e-07
-2.12961e-07
-1.36203e-07
-2.62748e-07
-1.36681e-07
-2.49052e-07
-9.95158e-08
-1.54179e-07
-2.53726e-08
8.30427e-08
1.69472e-08
2.71948e-07
6.54315e-09
3.16726e-07
-4.03181e-08
3.1192e-07
-7.32903e-08
2.94553e-07
-8.83937e-08
8.0915e-08
-4.65399e-08
3.42849e-09
-4.38764e-08
1.74581e-07
-6.21862e-08
-4.45476e-08
-5.9394e-08
8.37522e-08
-9.23223e-08
1.51325e-07
-1.01293e-07
1.03287e-07
-1.20192e-07
1.45749e-07
-1.21466e-07
3.95959e-08
-1.25209e-07
5.42801e-08
-1.34027e-07
8.16045e-08
-1.32696e-07
1.71927e-10
-1.18706e-07
-8.72169e-08
-7.93083e-08
-2.81033e-07
-3.00736e-08
-3.69769e-07
-2.60931e-07
-1.27726e-08
-2.99985e-09
-3.52088e-08
-8.58947e-10
-5.81223e-08
-2.61519e-08
-7.80226e-08
-7.95634e-08
-1.00247e-07
-1.32564e-07
-1.2399e-07
-1.89217e-07
-1.50624e-07
-2.36162e-07
-1.70744e-07
-2.29001e-07
-1.70596e-07
-1.54404e-07
-1.16244e-07
2.86079e-08
-6.93362e-08
2.2504e-07
-4.34977e-08
2.90887e-07
-4.76821e-08
3.16106e-07
-4.82059e-08
2.95077e-07
-5.35472e-08
8.62563e-08
-1.88936e-08
-3.12251e-08
-2.00007e-08
1.75688e-07
-6.49667e-08
4.18387e-10
-6.62526e-08
8.50381e-08
-9.31078e-08
1.78181e-07
-1.04162e-07
1.14341e-07
-1.20627e-07
1.62214e-07
-1.22257e-07
4.12255e-08
-1.25127e-07
5.71501e-08
-1.34522e-07
9.09994e-08
-1.33803e-07
-5.461e-10
-1.19562e-07
-1.01459e-07
-7.96025e-08
-3.20992e-07
-2.98299e-08
-4.19541e-07
-2.90761e-07
-6.29936e-09
8.8512e-09
-2.12432e-08
1.40853e-08
-3.94603e-08
-7.93442e-09
-6.18435e-08
-5.71811e-08
-8.34984e-08
-1.10909e-07
-1.08263e-07
-1.64453e-07
-1.37831e-07
-2.06594e-07
-1.66781e-07
-2.0006e-07
-2.02945e-07
-1.18319e-07
-1.83056e-07
8.50581e-09
-1.28409e-07
1.70393e-07
-7.49095e-08
2.37388e-07
-6.10316e-08
3.02229e-07
-3.6336e-08
2.70381e-07
-2.11996e-08
7.11199e-08
-3.73029e-09
-4.86944e-08
-1.52026e-08
1.8716e-07
-7.16507e-08
5.68665e-08
-7.48403e-08