/*--------------------------------*- C++ -*----------------------------------*\
| =========                 |                                                 |
| \\      /  F ield         | OpenFOAM: The Open Source CFD Toolbox           |
|  \\    /   O peration     | Version:  2.4.0                                 |
|   \\  /    A nd           | Web:      www.OpenFOAM.org                      |
|    \\/     M anipulation  |                                                 |
\*---------------------------------------------------------------------------*/
FoamFile
{
    version     2.0;
    format      ascii;
    class       volVectorField;
    location    "0.39";
    object      U;
}
// * * * * * * * * * * * * * * * * * * * * * * * * * * * * * * * * * * * * * //

dimensions      [0 1 -1 0 0 0 0];

internalField   nonuniform List<vector> 
10000
(
(1.60982e-07 -1.60975e-07 0)
(-5.69146e-07 2.48405e-07 0)
(-3.00888e-06 6.58657e-07 0)
(-6.71207e-06 9.23088e-07 0)
(-1.11306e-05 1.04093e-06 0)
(-1.57273e-05 1.04072e-06 0)
(-2.00551e-05 9.50623e-07 0)
(-2.37653e-05 7.95576e-07 0)
(-2.66011e-05 5.96344e-07 0)
(-2.83848e-05 3.69298e-07 0)
(-2.9005e-05 1.2693e-07 0)
(-2.8404e-05 -1.21532e-07 0)
(-2.65662e-05 -3.68933e-07 0)
(-2.35093e-05 -6.09914e-07 0)
(-1.92784e-05 -8.40027e-07 0)
(-1.39431e-05 -1.05505e-06 0)
(-7.59747e-06 -1.25037e-06 0)
(-3.63508e-07 -1.41987e-06 0)
(7.60462e-06 -1.55657e-06 0)
(1.61158e-05 -1.6522e-06 0)
(2.49387e-05 -1.69769e-06 0)
(3.38011e-05 -1.68419e-06 0)
(4.23945e-05 -1.60423e-06 0)
(5.03847e-05 -1.45314e-06 0)
(5.74284e-05 -1.23057e-06 0)
(6.31973e-05 -9.4181e-07 0)
(6.74052e-05 -5.98573e-07 0)
(6.98371e-05 -2.18853e-07 0)
(7.03742e-05 1.74272e-07 0)
(6.90114e-05 5.5497e-07 0)
(6.58602e-05 8.9839e-07 0)
(6.11328e-05 1.18566e-06 0)
(5.51056e-05 1.4083e-06 0)
(4.80644e-05 1.57205e-06 0)
(4.02447e-05 1.69631e-06 0)
(3.17915e-05 1.80587e-06 0)
(2.27734e-05 1.91358e-06 0)
(1.32558e-05 2.01009e-06 0)
(3.38362e-06 2.0687e-06 0)
(-6.58184e-06 2.06221e-06 0)
(-1.62882e-05 1.97459e-06 0)
(-2.53506e-05 1.80475e-06 0)
(-3.34167e-05 1.56549e-06 0)
(-4.02167e-05 1.27928e-06 0)
(-4.55913e-05 9.71923e-07 0)
(-4.94943e-05 6.67083e-07 0)
(-5.19814e-05 3.84229e-07 0)
(-5.31888e-05 1.38059e-07 0)
(-5.33057e-05 -6.2378e-08 0)
(-5.25475e-05 -2.14551e-07 0)
(-2.4833e-07 5.6865e-07 0)
(-3.40823e-06 3.40412e-06 0)
(-1.00341e-05 6.13351e-06 0)
(-1.91686e-05 7.96549e-06 0)
(-2.96465e-05 8.77463e-06 0)
(-4.03327e-05 8.65732e-06 0)
(-5.02265e-05 7.77645e-06 0)
(-5.85053e-05 6.30624e-06 0)
(-6.45358e-05 4.40912e-06 0)
(-6.78643e-05 2.22604e-06 0)
(-6.81959e-05 -1.26098e-07 0)
(-6.53698e-05 -2.55309e-06 0)
(-5.93363e-05 -4.97957e-06 0)
(-5.0137e-05 -7.3445e-06 0)
(-3.78907e-05 -9.59544e-06 0)
(-2.27856e-05 -1.16827e-05 0)
(-5.07883e-06 -1.35546e-05 0)
(1.48974e-05 -1.51503e-05 0)
(3.6726e-05 -1.64026e-05 0)
(5.98964e-05 -1.72356e-05 0)
(8.3798e-05 -1.75702e-05 0)
(0.000107722 -1.73316e-05 0)
(0.000130873 -1.646e-05 0)
(0.000152399 -1.49227e-05 0)
(0.000171433 -1.27267e-05 0)
(0.000187151 -9.92846e-06 0)
(0.000198838 -6.63921e-06 0)
(0.000205959 -3.02262e-06 0)
(0.000208215 7.16617e-07 0)
(0.000205587 4.35431e-06 0)
(0.000198339 7.67844e-06 0)
(0.00018698 1.05285e-05 0)
(0.000172181 1.28297e-05 0)
(0.000154647 1.46171e-05 0)
(0.000134976 1.60238e-05 0)
(0.000113558 1.72143e-05 0)
(9.06057e-05 1.82674e-05 0)
(6.63292e-05 1.91081e-05 0)
(4.11386e-05 1.95416e-05 0)
(1.57237e-05 1.93677e-05 0)
(-9.01335e-06 1.84703e-05 0)
(-3.21046e-05 1.68529e-05 0)
(-5.26707e-05 1.46284e-05 0)
(-7.00395e-05 1.19845e-05 0)
(-8.38079e-05 9.13942e-06 0)
(-9.38512e-05 6.30324e-06 0)
(-0.000100296 3.65253e-06 0)
(-0.000103469 1.31732e-06 0)
(-0.000103827 -6.24235e-07 0)
(-0.000101895 -2.14536e-06 0)
(-6.61225e-07 3.0131e-06 0)
(-6.16173e-06 1.0036e-05 0)
(-1.61132e-05 1.60608e-05 0)
(-2.90607e-05 1.99926e-05 0)
(-4.34173e-05 2.15884e-05 0)
(-5.77035e-05 2.10032e-05 0)
(-7.05964e-05 1.85628e-05 0)
(-8.09796e-05 1.46489e-05 0)
(-8.79742e-05 9.6393e-06 0)
(-9.09377e-05 3.87761e-06 0)
(-8.94456e-05 -2.33988e-06 0)
(-8.32633e-05 -8.76615e-06 0)
(-7.23176e-05 -1.51986e-05 0)
(-5.66704e-05 -2.1469e-05 0)
(-3.65e-05 -2.74309e-05 0)
(-1.20913e-05 -3.29458e-05 0)
(1.61676e-05 -3.78685e-05 0)
(4.77743e-05 -4.20392e-05 0)
(8.20988e-05 -4.52777e-05 0)
(0.000118374 -4.73873e-05 0)
(0.000155687 -4.8166e-05 0)
(0.000192978 -4.7426e-05 0)
(0.000229067 -4.50203e-05 0)
(0.000262692 -4.08733e-05 0)
(0.000292571 -3.50121e-05 0)
(0.000317488 -2.75897e-05 0)
(0.000336391 -1.88974e-05 0)
(0.000348485 -9.35719e-06 0)
(0.000353324 5.07141e-07 0)
(0.000350868 1.01233e-05 0)
(0.000341496 1.89491e-05 0)
(0.000325957 2.65697e-05 0)
(0.000305255 3.27834e-05 0)
(0.000280457 3.76634e-05 0)
(0.000252468 4.15376e-05 0)
(0.000221836 4.48216e-05 0)
(0.000188787 4.77116e-05 0)
(0.000153545 5.00041e-05 0)
(0.000116686 5.11898e-05 0)
(7.92753e-05 5.07564e-05 0)
(4.27215e-05 4.84176e-05 0)
(8.5246e-06 4.41972e-05 0)
(-2.1967e-05 3.83969e-05 0)
(-4.77328e-05 3.15029e-05 0)
(-6.81654e-05 2.40765e-05 0)
(-8.30766e-05 1.66583e-05 0)
(-9.26493e-05 9.70338e-06 0)
(-9.73575e-05 3.54662e-06 0)
(-9.78702e-05 -1.61011e-06 0)
(-9.4953e-05 -5.69447e-06 0)
(-9.32605e-07 6.74085e-06 0)
(-8.04857e-06 1.92202e-05 0)
(-2.01728e-05 2.90351e-05 0)
(-3.53635e-05 3.51301e-05 0)
(-5.16874e-05 3.72621e-05 0)
(-6.74376e-05 3.56837e-05 0)
(-8.1103e-05 3.09095e-05 0)
(-9.14021e-05 2.35619e-05 0)
(-9.73162e-05 1.42756e-05 0)
(-9.8096e-05 3.64265e-06 0)
(-9.32447e-05 -7.81466e-06 0)
(-8.249e-05 -1.96524e-05 0)
(-6.57528e-05 -3.15004e-05 0)
(-4.3118e-05 -4.30475e-05 0)
(-1.48119e-05 -5.40205e-05 0)
(1.88095e-05 -6.41598e-05 0)
(5.72602e-05 -7.31947e-05 0)
(9.99123e-05 -8.08294e-05 0)
(0.000145979 -8.67309e-05 0)
(0.000194499 -9.05387e-05 0)
(0.000244321 -9.1885e-05 0)
(0.000294114 -9.04297e-05 0)
(0.000342386 -8.59086e-05 0)
(0.000387541 -7.81886e-05 0)
(0.000427953 -6.73233e-05 0)
(0.000462078 -5.35955e-05 0)
(0.00048857 -3.75372e-05 0)
(0.00050641 -1.99162e-05 0)
(0.00051501 -1.68547e-06 0)
(0.0005143 1.61083e-05 0)
(0.000504758 3.24625e-05 0)
(0.000487361 4.65992e-05 0)
(0.000463445 5.81209e-05 0)
(0.00043447 6.71529e-05 0)
(0.000401651 7.4342e-05 0)
(0.000365576 8.05531e-05 0)
(0.000326228 8.62028e-05 0)
(0.000283559 9.08649e-05 0)
(0.00023816 9.34769e-05 0)
(0.000191471 9.30089e-05 0)
(0.000145471 8.89135e-05 0)
(0.000102252 8.12585e-05 0)
(6.36637e-05 7.06365e-05 0)
(3.10751e-05 5.7972e-05 0)
(5.2842e-06 4.43135e-05 0)
(-1.34728e-05 3.06617e-05 0)
(-2.5442e-05 1.78527e-05 0)
(-3.12392e-05 6.49768e-06 0)
(-3.17235e-05 -3.0363e-06 0)
(-2.78735e-05 -1.06169e-05 0)
(-1.0619e-06 1.1221e-05 0)
(-8.94431e-06 2.98291e-05 0)
(-2.19698e-05 4.35208e-05 0)
(-3.78285e-05 5.15089e-05 0)
(-5.43273e-05 5.36819e-05 0)
(-6.96057e-05 5.04536e-05 0)
(-8.20478e-05 4.25601e-05 0)
(-9.02927e-05 3.0888e-05 0)
(-9.32624e-05 1.63517e-05 0)
(-9.01673e-05 -1.83167e-07 0)
(-8.04896e-05 -1.79431e-05 0)
(-6.39549e-05 -3.62629e-05 0)
(-4.04978e-05 -5.4583e-05 0)
(-1.02299e-05 -7.24299e-05 0)
(2.65856e-05 -8.93857e-05 0)
(6.95454e-05 -0.000105052 0)
(0.000118104 -0.000119012 0)
(0.000171557 -0.000130806 0)
(0.000229015 -0.000139919 0)
(0.000289381 -0.000145789 0)
(0.000351334 -0.000147845 0)
(0.000413329 -0.000145558 0)
(0.000473624 -0.000138514 0)
(0.000530342 -0.000126504 0)
(0.000581558 -0.000109605 0)
(0.000625435 -8.82518e-05 0)
(0.000660359 -6.32605e-05 0)
(0.000685093 -3.58128e-05 0)
(0.000698902 -7.38097e-06 0)
(0.000701662 2.0399e-05 0)
(0.000693932 4.59291e-05 0)
(0.000676916 6.79445e-05 0)
(0.000652333 8.57512e-05 0)
(0.000622151 9.95317e-05 0)
(0.000588007 0.000110461 0)
(0.000550406 0.000120245 0)
(0.000508664 0.00012974 0)
(0.000461987 0.000138132 0)
(0.000410777 0.000143361 0)
(0.00035694 0.000143535 0)
(0.000303216 0.000137719 0)
(0.000252451 0.000126074 0)
(0.000207081 0.00010963 0)
(0.000168848 8.9922e-05 0)
(0.000138731 6.8646e-05 0)
(0.000116987 4.73899e-05 0)
(0.000103283 2.74633e-05 0)
(9.68477e-05 9.81327e-06 0)
(9.66287e-05 -4.9967e-06 0)
(0.000101439 -1.67664e-05 0)
(-1.07717e-06 1.59322e-05 0)
(-8.94158e-06 4.0761e-05 0)
(-2.1649e-05 5.80819e-05 0)
(-3.6686e-05 6.74712e-05 0)
(-5.1709e-05 6.90407e-05 0)
(-6.47724e-05 6.34262e-05 0)
(-7.42164e-05 5.16207e-05 0)
(-7.86626e-05 3.47968e-05 0)
(-7.70327e-05 1.41655e-05 0)
(-6.85494e-05 -9.12011e-06 0)
(-5.27179e-05 -3.40224e-05 0)
(-2.9293e-05 -5.96453e-05 0)
(1.75813e-06 -8.52322e-05 0)
(4.02929e-05 -0.000110143 0)
(8.60216e-05 -0.000133814 0)
(0.00013852 -0.000155702 0)
(0.000197223 -0.000175236 0)
(0.0002614 -0.000191777 0)
(0.000330117 -0.000204599 0)
(0.000402202 -0.000212906 0)
(0.000476218 -0.000215884 0)
(0.000550463 -0.000212774 0)
(0.000622992 -0.000202976 0)
(0.000691682 -0.000186175 0)
(0.000754341 -0.000162464 0)
(0.000808853 -0.000132435 0)
(0.000853351 -9.72232e-05 0)
(0.000886378 -5.84761e-05 0)
(0.000907028 -1.82572e-05 0)
(0.000915074 2.10983e-05 0)
(0.000911117 5.7241e-05 0)
(0.000896566 8.82618e-05 0)
(0.000873583 0.000112982 0)
(0.000844895 0.000131582 0)
(0.000812897 0.000146091 0)
(0.000777944 0.000159836 0)
(0.000737985 0.000174579 0)
(0.000690672 0.000188813 0)
(0.000635958 0.000198617 0)
(0.000576506 0.000200661 0)
(0.000516199 0.00019348 0)
(0.000458891 0.000177455 0)
(0.000407708 0.000154284 0)
(0.000364782 0.000126352 0)
(0.000331229 9.61919e-05 0)
(0.000307284 6.61123e-05 0)
(0.000292486 3.79828e-05 0)
(0.00028588 1.31355e-05 0)
(0.000286203 -7.64797e-06 0)
(0.000292053 -2.4098e-05 0)
(-1.0059e-06 2.04411e-05 0)
(-8.19806e-06 5.10428e-05 0)
(-1.95223e-05 7.14276e-05 0)
(-3.2423e-05 8.15371e-05 0)
(-4.45202e-05 8.17493e-05 0)
(-5.3851e-05 7.29627e-05 0)
(-5.8765e-05 5.64572e-05 0)
(-5.79143e-05 3.3711e-05 0)
(-5.02657e-05 6.24456e-06 0)
(-3.50968e-05 -2.44928e-05 0)
(-1.19715e-05 -5.71953e-05 0)
(1.9297e-05 -9.07357e-05 0)
(5.8691e-05 -0.000124167 0)
(0.000106032 -0.000156692 0)
(0.000161013 -0.000187614 0)
(0.000223217 -0.000216256 0)
(0.000292101 -0.000241899 0)
(0.000366964 -0.000263712 0)
(0.000446887 -0.000280737 0)
(0.000530678 -0.00029191 0)
(0.000616843 -0.000296129 0)
(0.000703566 -0.000292358 0)
(0.000788737 -0.000279762 0)
(0.000870011 -0.000257881 0)
(0.000944939 -0.000226804 0)
(0.00101114 -0.000187286 0)
(0.0010665 -0.000140805 0)
(0.00110936 -8.95078e-05 0)
(0.00113859 -3.60898e-05 0)
(0.00115378 1.63233e-05 0)
(0.00115548 6.44437e-05 0)
(0.00114522 0.000105535 0)
(0.00112558 0.000137553 0)
(0.00110049 0.00016039 0)
(0.00107394 0.000177352 0)
(0.00104623 0.00019496 0)
(0.00101274 0.000216845 0)
(0.000968155 0.000240235 0)
(0.00091166 0.000257638 0)
(0.000847416 0.000263378 0)
(0.000781116 0.000255393 0)
(0.000717939 0.000234603 0)
(0.000661774 0.000203757 0)
(0.000615073 0.000166407 0)
(0.000579001 0.000126142 0)
(0.000553684 8.61242e-05 0)
(0.000538477 4.88527e-05 0)
(0.000532211 1.60778e-05 0)
(0.000533398 -1.11908e-05 0)
(0.000540414 -3.26193e-05 0)
(-8.72454e-07 2.44094e-05 0)
(-6.88343e-06 5.9872e-05 0)
(-1.59599e-05 8.24626e-05 0)
(-2.56388e-05 9.24388e-05 0)
(-3.36053e-05 9.04474e-05 0)
(-3.79434e-05 7.7668e-05 0)
(-3.70589e-05 5.56862e-05 0)
(-2.96744e-05 2.63007e-05 0)
(-1.48389e-05 -8.64835e-06 0)
(8.08122e-06 -4.74104e-05 0)
(3.9431e-05 -8.84123e-05 0)
(7.93122e-05 -0.000130304 0)
(0.000127637 -0.000171962 0)
(0.000184183 -0.000212461 0)
(0.000248635 -0.000250995 0)
(0.000320609 -0.000286788 0)
(0.000399631 -0.000318985 0)
(0.000485088 -0.000346569 0)
(0.00057614 -0.000368325 0)
(0.000671638 -0.000382878 0)
(0.000770074 -0.000388791 0)
(0.000869565 -0.000384691 0)
(0.000967855 -0.000369447 0)
(0.00106239 -0.000342404 0)
(0.00115045 -0.00030362 0)
(0.00122941 -0.000254022 0)
(0.00129693 -0.000195458 0)
(0.00135117 -0.000130587 0)
(0.00139078 -6.27099e-05 0)
(0.00141501 4.21859e-06 0)
(0.00142425 6.57578e-05 0)
(0.00141979 0.000118215 0)
(0.0014044 0.000157947 0)
(0.00138384 0.000183633 0)
(0.00136555 0.000200207 0)
(0.00135037 0.000220591 0)
(0.00132899 0.000252278 0)
(0.00129042 0.000290115 0)
(0.0012329 0.000319572 0)
(0.00116376 0.000331321 0)
(0.00109159 0.000323021 0)
(0.00102317 0.000296832 0)
(0.00096302 0.000257163 0)
(0.000913711 0.00020912 0)
(0.000876264 0.000157569 0)
(0.000850578 0.00010662 0)
(0.00083577 5.94364e-05 0)
(0.000830437 1.8194e-05 0)
(0.000832864 -1.58726e-05 0)
(0.000841213 -4.23785e-05 0)
(-6.9727e-07 2.7589e-05 0)
(-5.15823e-06 6.66315e-05 0)
(-1.13347e-05 9.03212e-05 0)
(-1.69571e-05 9.9159e-05 0)
(-1.98558e-05 9.40365e-05 0)
(-1.82158e-05 7.64139e-05 0)
(-1.05383e-05 4.81899e-05 0)
(4.35094e-06 1.14936e-05 0)
(2.72913e-05 -3.15078e-05 0)
(5.87979e-05 -7.87589e-05 0)
(9.90962e-05 -0.000128422 0)
(0.000148175 -0.000178937 0)
(0.000205854 -0.000229032 0)
(0.000271853 -0.000277684 0)
(0.000345851 -0.000324033 0)
(0.000427522 -0.000367247 0)
(0.00051651 -0.000406377 0)
(0.00061236 -0.000440227 0)
(0.000714382 -0.0004673 0)
(0.000821528 -0.000485861 0)
(0.000932326 -0.000494076 0)
(0.00104485 -0.000490164 0)
(0.00115672 -0.000472612 0)
(0.00126514 -0.000440507 0)
(0.00136711 -0.000393857 0)
(0.00145973 -0.00033379 0)
(0.00154053 -0.000262583 0)
(0.00160763 -0.000183408 0)
(0.00165949 -0.000100013 0)
(0.00169476 -1.70932e-05 0)
(0.00171356 5.95034e-05 0)
(0.00171636 0.000125352 0)
(0.00170498 0.000173917 0)
(0.00168766 0.000200265 0)
(0.00167933 0.000210471 0)
(0.0016832 0.000230576 0)
(0.00168114 0.000275978 0)
(0.00165156 0.000336945 0)
(0.00159197 0.000384721 0)
(0.00151662 0.000404826 0)
(0.00143856 0.000396044 0)
(0.00136598 0.000363203 0)
(0.00130351 0.00031322 0)
(0.00125337 0.000253149 0)
(0.00121616 0.000189252 0)
(0.0011914 0.000126594 0)
(0.00117798 6.89687e-05 0)
(0.00117426 1.89588e-05 0)
(0.00117836 -2.19904e-05 0)
(0.00118823 -5.34603e-05 0)
(-4.96859e-07 2.98106e-05 0)
(-3.16571e-06 7.08835e-05 0)
(-5.99649e-06 9.43732e-05 0)
(-6.97883e-06 0.000100944 0)
(-4.14458e-06 9.16938e-05 0)
(4.18126e-06 6.83493e-05 0)
(1.93732e-05 3.31211e-05 0)
(4.24785e-05 -1.15266e-05 0)
(7.42021e-05 -6.30923e-05 0)
(0.000114917 -0.000119212 0)
(0.000164703 -0.000177785 0)
(0.000223405 -0.000237056 0)
(0.000290721 -0.000295633 0)
(0.00036629 -0.000352449 0)
(0.000449777 -0.000406653 0)
(0.000540929 -0.000457436 0)
(0.000639563 -0.000503817 0)
(0.000745462 -0.000544446 0)
(0.000858175 -0.000577509 0)
(0.000976817 -0.00060084 0)
(0.00109999 -0.000612135 0)
(0.00122578 -0.000609114 0)
(0.00135162 -0.000589766 0)
(0.00147443 -0.000552828 0)
(0.00159086 -0.000498261 0)
(0.00169771 -0.000427481 0)
(0.00179248 -0.000343362 0)
(0.0018736 -0.000249623 0)
(0.00193959 -0.000150017 0)
(0.00198815 -4.96659e-05 0)
(0.00201916 4.37314e-05 0)
(0.00203138 0.000126556 0)
(0.00202267 0.000187154 0)
(0.00200342 0.000211696 0)
(0.00200445 0.000203906 0)
(0.00203591 0.000216951 0)
(0.00206293 0.000281995 0)
(0.00204401 0.000380878 0)
(0.00197789 0.000455237 0)
(0.00189375 0.000484824 0)
(0.00181048 0.000473686 0)
(0.0017363 0.000431881 0)
(0.00167458 0.000369753 0)
(0.00162642 0.00029645 0)
(0.00159168 0.000219506 0)
(0.00156951 0.000144769 0)
(0.0015586 7.65452e-05 0)
(0.00155725 1.77816e-05 0)
(0.00156344 -2.98677e-05 0)
(0.00157501 -6.59616e-05 0)
(-2.84462e-07 3.09739e-05 0)
(-1.03068e-06 7.2355e-05 0)
(-2.61803e-07 9.42138e-05 0)
(3.73895e-06 9.72987e-05 0)
(1.27074e-05 8.28694e-05 0)
(2.81563e-05 5.28961e-05 0)
(5.132e-05 9.89463e-06 0)
(8.31058e-05 -4.33331e-05 0)
(0.000124071 -0.000103944 0)
(0.00017443 -0.000169256 0)
(0.000234091 -0.000236906 0)
(0.000302726 -0.00030495 0)
(0.000379872 -0.000371907 0)
(0.000465047 -0.000436726 0)
(0.000557875 -0.000498654 0)
(0.000658178 -0.000557011 0)
(0.00076599 -0.000610892 0)
(0.000881437 -0.000658842 0)
(0.00100442 -0.000698678 0)
(0.00113429 -0.000727702 0)
(0.00126979 -0.000743048 0)
(0.00140899 -0.000741818 0)
(0.00154917 -0.000721314 0)
(0.00168674 -0.000679786 0)
(0.00181782 -0.000617189 0)
(0.0019388 -0.000535429 0)
(0.00204731 -0.000438427 0)
(0.00214287 -0.0003307 0)
(0.00222478 -0.000214926 0)
(0.00228915 -9.5855e-05 0)
(0.00233645 1.51754e-05 0)
(0.00236274 0.000121493 0)
(0.00235553 0.000202299 0)
(0.00232329 0.00022385 0)
(0.00232869 0.000176324 0)
(0.00239921 0.000168632 0)
(0.00246839 0.000262754 0)
(0.00245809 0.000426016 0)
(0.00237492 0.000536543 0)
(0.00227882 0.000572304 0)
(0.00219382 0.000553457 0)
(0.00212368 0.000499066 0)
(0.00206806 0.000423038 0)
(0.00202607 0.000335978 0)
(0.00199673 0.000246105 0)
(0.001979 0.000159638 0)
(0.00197174 8.11939e-05 0)
(0.00197342 1.40784e-05 0)
(0.00198205 -3.97869e-05 0)
(0.00199539 -7.99289e-05 0)
(-7.09293e-08 3.10372e-05 0)
(1.13838e-06 7.09213e-05 0)
(5.58612e-06 8.96477e-05 0)
(1.46885e-05 8.79743e-05 0)
(2.99417e-05 6.72751e-05 0)
(5.26922e-05 2.9738e-05 0)
(8.40333e-05 -2.18263e-05 0)
(0.000124733 -8.42758e-05 0)
(0.0001752 -0.000154415 0)
(0.000235481 -0.00022923 0)
(0.000305298 -0.000306079 0)
(0.000384117 -0.000382832 0)
(0.000471266 -0.000457943 0)
(0.000566085 -0.000530434 0)
(0.000668099 -0.000599756 0)
(0.000777168 -0.000665511 0)
(0.000893572 -0.000727036 0)
(0.0010179 -0.000782875 0)
(0.00115055 -0.000830407 0)
(0.00129124 -0.000866241 0)
(0.00143892 -0.000886844 0)
(0.00159174 -0.000888528 0)
(0.00174663 -0.000867569 0)
(0.00189924 -0.000821507 0)
(0.00204477 -0.000750382 0)
(0.00217884 -0.000656931 0)
(0.00229918 -0.000547169 0)
(0.00240785 -0.000427538 0)
(0.00250677 -0.000297335 0)
(0.00258953 -0.000158265 0)
(0.00265938 -3.35457e-05 0)
(0.00271085 0.000106878 0)
(0.00270766 0.0002293 0)
(0.00264326 0.000252337 0)
(0.00264094 0.00012432 0)
(0.00276552 6.95143e-05 0)
(0.00289197 0.000209405 0)
(0.00287852 0.000486894 0)
(0.00275856 0.000639509 0)
(0.00265081 0.000665577 0)
(0.00257484 0.000628359 0)
(0.00251976 0.00055746 0)
(0.00247841 0.000467217 0)
(0.00244792 0.000367618 0)
(0.00242713 0.000266449 0)
(0.00241549 0.000169695 0)
(0.00241264 8.20769e-05 0)
(0.00241772 7.41657e-06 0)
(0.00242889 -5.18742e-05 0)
(0.00244384 -9.52484e-05 0)
(1.34497e-07 3.00105e-05 0)
(3.24608e-06 6.65907e-05 0)
(1.12932e-05 8.06715e-05 0)
(2.54074e-05 7.29508e-05 0)
(4.68596e-05 4.48701e-05 0)
(7.68436e-05 -1.1928e-06 0)
(0.000116327 -6.21437e-05 0)
(0.000165953 -0.000134498 0)
(0.000225998 -0.000214692 0)
(0.000296348 -0.000299355 0)
(0.000376533 -0.000385541 0)
(0.000465789 -0.000470915 0)
(0.000563186 -0.000553867 0)
(0.000667806 -0.000633539 0)
(0.000778976 -0.000709699 0)
(0.0008965 -0.000782417 0)
(0.00102086 -0.000851535 0)
(0.00115321 -0.000915808 0)
(0.00129467 -0.000972107 0)
(0.00144551 -0.00101612 0)
(0.0016051 -0.00104353 0)
(0.00177181 -0.00104958 0)
(0.00194208 -0.0010289 0)
(0.00211018 -0.000977929 0)
(0.00226988 -0.000896919 0)
(0.00241505 -0.000789702 0)
(0.0025427 -0.000666454 0)
(0.00265943 -0.000539058 0)
(0.0027743 -0.000400466 0)
(0.0028774 -0.000239224 0)
(0.00297472 -0.000113387 0)
(0.00307862 5.85119e-05 0)
(0.00310151 0.000285516 0)
(0.00296707 0.000345959 0)
(0.00293671 2.69816e-05 0)
(0.00314391 -0.000117714 0)
(0.00332773 0.000124659 0)
(0.0032696 0.000606265 0)
(0.00308644 0.000776016 0)
(0.00298555 0.000749491 0)
(0.00294551 0.000681563 0)
(0.00292345 0.000594797 0)
(0.00290627 0.000494493 0)
(0.00289222 0.000386949 0)
(0.00288195 0.000278374 0)
(0.00287672 0.00017407 0)
(0.00287805 7.88875e-05 0)
(0.0028863 -2.2684e-06 0)
(0.00289975 -6.5945e-05 0)
(0.00291575 -0.000111481 0)
(3.23655e-07 2.79485e-05 0)
(5.20662e-06 5.94917e-05 0)
(1.66284e-05 6.74585e-05 0)
(3.54706e-05 5.24231e-05 0)
(6.28117e-05 1.58489e-05 0)
(9.97227e-05 -3.97249e-05 0)
(0.000147076 -0.000110934 0)
(0.000205425 -0.000193946 0)
(0.000274941 -0.000284811 0)
(0.000355383 -0.000379768 0)
(0.000446103 -0.000475524 0)
(0.0005461 -0.000569487 0)
(0.000654149 -0.000659958 0)
(0.00076899 -0.00074621 0)
(0.000889613 -0.000828415 0)
(0.00101558 -0.000907302 0)
(0.0011474 -0.00098358 0)
(0.00128677 -0.00105662 0)
(0.00143571 -0.00112281 0)
(0.00159547 -0.00117674 0)
(0.00176639 -0.00121314 0)
(0.00194744 -0.00122564 0)
(0.00213431 -0.00120612 0)
(0.00231909 -0.00114927 0)
(0.00249341 -0.0010557 0)
(0.00264751 -0.000929709 0)
(0.00277487 -0.000789008 0)
(0.00288775 -0.000658677 0)
(0.00301112 -0.000527643 0)
(0.00314333 -0.000351406 0)
(0.00326887 -0.000227178 0)
(0.0034283 -7.58677e-05 0)
(0.00357033 0.000306868 0)
(0.003422 0.000600822 0)
(0.00330865 -0.000122108 0)
(0.003513 -0.000367255 0)
(0.00366565 4.3668e-05 0)
(0.00350376 0.000859471 0)
(0.00328485 0.000907996 0)
(0.00327885 0.000773173 0)
(0.00332231 0.000683971 0)
(0.00335027 0.000596279 0)
(0.00336247 0.000498139 0)
(0.00336554 0.000391726 0)
(0.00336426 0.000281968 0)
(0.00336298 0.000173758 0)
(0.00336629 7.25169e-05 0)
(0.00337655 -1.44182e-05 0)
(0.00339163 -8.13753e-05 0)
(0.00340768 -0.000127662 0)
(4.89063e-07 2.49471e-05 0)
(6.94125e-06 4.98628e-05 0)
(2.13785e-05 5.03467e-05 0)
(4.44827e-05 2.67895e-05 0)
(7.71874e-05 -1.93667e-05 0)
(0.000120484 -8.54511e-05 0)
(0.000175193 -0.000167843 0)
(0.000241826 -0.000262362 0)
(0.000320505 -0.000364653 0)
(0.000410912 -0.000470524 0)
(0.000512268 -0.000576271 0)
(0.000623371 -0.000678977 0)
(0.000742691 -0.000776771 0)
(0.000868564 -0.000869008 0)
(0.000999482 -0.000956276 0)
(0.00113448 -0.00104009 0)
(0.00127375 -0.00112245 0)
(0.0014192 -0.00120396 0)
(0.00157379 -0.00128085 0)
(0.00174032 -0.00134681 0)
(0.00192112 -0.00139552 0)
(0.00211682 -0.00141789 0)
(0.00232229 -0.00140095 0)
(0.00252603 -0.00133668 0)
(0.00271718 -0.0012266 0)
(0.00287961 -0.00107187 0)
(0.00299787 -0.000902426 0)
(0.00308733 -0.000766669 0)
(0.00318839 -0.000662351 0)
(0.0033303 -0.00050862 0)
(0.00347233 -0.00036837 0)
(0.00361392 -0.000288719 0)
(0.00389258 4.32862e-05 0)
(0.00407141 0.000845109 0)
(0.00399866 -0.000177699 0)
(0.0038446 -0.000352352 0)
(0.00366464 5.85223e-05 0)
(0.00342203 0.00123586 0)
(0.00341942 0.000808416 0)
(0.00365803 0.000668291 0)
(0.00377679 0.000619844 0)
(0.00383511 0.000560909 0)
(0.00386458 0.00048147 0)
(0.00387678 0.000386249 0)
(0.0038781 0.000281631 0)
(0.00387503 0.00017267 0)
(0.00387615 6.54548e-05 0)
(0.00388668 -2.788e-05 0)
(0.00390281 -9.7169e-05 0)
(0.00391755 -0.000142159 0)
(6.23674e-07 2.114e-05 0)
(8.37703e-06 3.80445e-05 0)
(2.5346e-05 2.98278e-05 0)
(5.20748e-05 -3.35738e-06 0)
(8.94099e-05 -6.01319e-05 0)
(0.000138314 -0.000137723 0)
(0.00019961 -0.000232272 0)
(0.000273827 -0.000339257 0)
(0.000361105 -0.000453901 0)
(0.000461127 -0.000571544 0)
(0.000573075 -0.000688007 0)
(0.000695621 -0.000799944 0)
(0.000826993 -0.000905192 0)
(0.000965106 -0.00100304 0)
(0.00110784 -0.00109438 0)
(0.00125342 -0.0011815 0)
(0.00140115 -0.00126796 0)
(0.00155245 -0.00135641 0)
(0.00171078 -0.00144379 0)
(0.00188078 -0.00152383 0)
(0.00206817 -0.0015896 0)
(0.00227753 -0.0016277 0)
(0.00250384 -0.00161625 0)
(0.00272995 -0.00154273 0)
(0.00294249 -0.00141252 0)
(0.00311577 -0.00121292 0)
(0.00321987 -0.000993624 0)
(0.00327809 -0.000837799 0)
(0.00333009 -0.000749281 0)
(0.00339758 -0.000628515 0)
(0.00346048 -0.000453192 0)
(0.00340927 -0.000317728 0)
(0.00328734 -0.000134883 0)
(0.00378743 0.000320422 0)
(0.00406695 6.84424e-05 0)
(0.00377912 -0.000165647 0)
(0.00349238 0.000374889 0)
(0.00373229 0.000911664 0)
(0.00426644 0.000616861 0)
(0.00430123 0.000575401 0)
(0.00432827 0.000561329 0)
(0.00437032 0.000521722 0)
(0.00440528 0.000460061 0)
(0.00442172 0.000379066 0)
(0.00442123 0.000283901 0)
(0.00441051 0.000176444 0)
(0.0044047 6.08592e-05 0)
(0.00441468 -4.18825e-05 0)
(0.00443259 -0.000112536 0)
(0.00444468 -0.000152724 0)
(7.2086e-07 1.66964e-05 0)
(9.44751e-06 2.44715e-05 0)
(2.83516e-05 6.53681e-06 0)
(5.79095e-05 -3.72402e-05 0)
(9.89436e-05 -0.000105581 0)
(0.000152442 -0.000195641 0)
(0.000219284 -0.000303349 0)
(0.000300077 -0.000423854 0)
(0.000395057 -0.000551956 0)
(0.000504004 -0.000682509 0)
(0.000626176 -0.000810797 0)
(0.000760258 -0.000932945 0)
(0.000904369 -0.00104633 0)
(0.00105611 -0.00114994 0)
(0.00121277 -0.00124472 0)
(0.00137156 -0.00133346 0)
(0.00153032 -0.0014212 0)
(0.00168889 -0.00151328 0)
(0.00185008 -0.00160883 0)
(0.00201972 -0.00170345 0)
(0.00220743 -0.00179163 0)
(0.00242578 -0.00185518 0)
(0.00267346 -0.00185551 0)
(0.0029251 -0.00177081 0)
(0.00316533 -0.00162124 0)
(0.00335478 -0.00135472 0)
(0.00344049 -0.00105447 0)
(0.00348059 -0.000882789 0)
(0.00352505 -0.000786037 0)
(0.00355994 -0.000668683 0)
(0.00358987 -0.00046731 0)
(0.00359772 -0.000218995 0)
(0.00359256 -5.47345e-05 0)
(0.00371132 -0.000248443 0)
(0.00368454 0.000396391 0)
(0.00365841 -0.000365544 0)
(0.00384764 0.00049698 0)
(0.00409811 0.00028331 0)
(0.00439844 0.000463879 0)
(0.00460432 0.00049309 0)
(0.00475688 0.000485799 0)
(0.00487624 0.000459919 0)
(0.00495456 0.00042263 0)
(0.00499057 0.000366413 0)
(0.00499123 0.000291329 0)
(0.00496704 0.00019084 0)
(0.00494818 6.1569e-05 0)
(0.00495859 -5.75355e-05 0)
(0.00498165 -0.000127765 0)
(0.00498974 -0.000156449 0)
(7.74716e-07 1.18173e-05 0)
(1.00956e-05 9.66209e-06 0)
(3.02418e-05 -1.87624e-05 0)
(6.16953e-05 -7.39104e-05 0)
(0.000105317 -0.000154635 0)
(0.00016217 -0.00025805 0)
(0.000233237 -0.000379898 0)
(0.000319257 -0.000515022 0)
(0.000420625 -0.000657824 0)
(0.000537309 -0.00080267 0)
(0.000668764 -0.000944285 0)
(0.000813861 -0.00107819 0)
(0.000970829 -0.00120115 0)
(0.00113721 -0.00131158 0)
(0.0013099 -0.00141008 0)
(0.00148523 -0.00149935 0)
(0.00165924 -0.00158527 0)
(0.00182906 -0.00167589 0)
(0.00199504 -0.00177418 0)
(0.0021618 -0.00187965 0)
(0.00234068 -0.00199264 0)
(0.00255684 -0.0020961 0)
(0.00282052 -0.00211982 0)
(0.00309737 -0.00202212 0)
(0.00336723 -0.00186068 0)
(0.00357854 -0.00150917 0)
(0.00363765 -0.00106417 0)
(0.00366962 -0.000948232 0)
(0.00375318 -0.000837923 0)
(0.00380355 -0.000701593 0)
(0.00385548 -0.000519006 0)
(0.00397623 -0.000312626 0)
(0.00421281 -0.000215567 0)
(0.00444825 -0.000301572 0)
(0.00463466 0.000442011 0)
(0.0042576 -2.20982e-05 0)
(0.00384134 0.000347351 0)
(0.00408591 1.593e-05 0)
(0.00447978 0.000113756 0)
(0.00487166 0.000212737 0)
(0.00518162 0.000275533 0)
(0.00540633 0.000314635 0)
(0.00554047 0.000344546 0)
(0.00559535 0.000343251 0)
(0.00559176 0.000308909 0)
(0.0055423 0.000225608 0)
(0.00550095 7.0286e-05 0)
(0.00551623 -8.01515e-05 0)
(0.00555246 -0.000145373 0)
(0.00555442 -0.000148964 0)
(7.80663e-07 6.7298e-06 0)
(1.02787e-05 -5.79753e-06 0)
(3.0902e-05 -4.51997e-05 0)
(6.32118e-05 -0.000112273 0)
(0.000108166 -0.000206023 0)
(0.000166939 -0.000323545 0)
(0.000240648 -0.000460421 0)
(0.000330196 -0.000611225 0)
(0.000436173 -0.000769993 0)
(0.000558787 -0.000930636 0)
(0.000697776 -0.00108735 0)
(0.000852341 -0.00123503 0)
(0.00102104 -0.00136975 0)
(0.00120168 -0.00148916 0)
(0.00139124 -0.00159308 0)
(0.0015857 -0.00168341 0)
(0.00177985 -0.00176566 0)
(0.00196772 -0.00184927 0)
(0.00214512 -0.00194174 0)
(0.00231154 -0.00204719 0)
(0.00247354 -0.00217781 0)
(0.00267018 -0.00234096 0)
(0.00293539 -0.00240651 0)
(0.00324592 -0.0023103 0)
(0.00354828 -0.00211969 0)
(0.00370135 -0.00161706 0)
(0.00374674 -0.00106953 0)
(0.00385913 -0.00107544 0)
(0.00396794 -0.000915591 0)
(0.00402064 -0.000752269 0)
(0.00408995 -0.000612798 0)
(0.00421759 -0.000493781 0)
(0.00437812 -0.000453013 0)
(0.00444393 -0.000363211 0)
(0.0045761 0.000244754 0)
(0.00476939 0.000415466 0)
(0.004935 0.000228025 0)
(0.00508254 -0.000164904 0)
(0.0052142 -0.000204591 0)
(0.00546066 -0.00011899 0)
(0.00575385 -1.42678e-05 0)
(0.00601198 0.000111153 0)
(0.00615936 0.000250061 0)
(0.00621401 0.000320997 0)
(0.00620982 0.00034387 0)
(0.00613196 0.000294478 0)
(0.00606049 8.50723e-05 0)
(0.00609015 -0.000124849 0)
(0.00615158 -0.000170933 0)
(0.00614042 -0.000121212 0)
(7.36259e-07 1.67805e-06 0)
(9.97483e-06 -2.12763e-05 0)
(3.02729e-05 -7.1833e-05 0)
(6.23395e-05 -0.00015113 0)
(0.000107278 -0.000258328 0)
(0.000166401 -0.000390515 0)
(0.000240972 -0.000543136 0)
(0.000332055 -0.000710523 0)
(0.000440433 -0.000886386 0)
(0.000566547 -0.00106424 0)
(0.000710428 -0.00123779 0)
(0.00087163 -0.00140141 0)
(0.00104913 -0.00155046 0)
(0.00124124 -0.00168179 0)
(0.00144543 -0.00179425 0)
(0.00165816 -0.00188849 0)
(0.00187431 -0.00196841 0)
(0.00208639 -0.00204239 0)
(0.00228595 -0.00212066 0)
(0.00246404 -0.00220803 0)
(0.00261232 -0.00233245 0)
(0.002762 -0.00256286 0)
(0.00299537 -0.00270625 0)
(0.00329866 -0.0026133 0)
(0.00356003 -0.00233844 0)
(0.00365617 -0.00167045 0)
(0.00389117 -0.00131559 0)
(0.004136 -0.00118056 0)
(0.00411745 -0.000940062 0)
(0.00412458 -0.000797228 0)
(0.0042023 -0.000703015 0)
(0.0043222 -0.000625077 0)
(0.00445212 -0.00057341 0)
(0.00456871 -0.000421484 0)
(0.0048043 -5.81639e-05 0)
(0.00515934 7.39525e-05 0)
(0.00548389 -3.59835e-05 0)
(0.00571953 -0.000270385 0)
(0.00589416 -0.000376995 0)
(0.00610446 -0.000365793 0)
(0.0063587 -0.000284488 0)
(0.00660183 -9.43035e-05 0)
(0.00673934 0.000178001 0)
(0.00682721 0.000268259 0)
(0.00688319 0.000378731 0)
(0.00679111 0.000413162 0)
(0.00667207 0.000106294 0)
(0.00671029 -0.000211411 0)
(0.00679494 -0.000203237 0)
(0.00674535 -4.99564e-05 0)
(6.41933e-07 -3.08844e-06 0)
(9.18892e-06 -3.61295e-05 0)
(2.83652e-05 -9.76947e-05 0)
(5.90897e-05 -0.000189235 0)
(0.000102651 -0.000310052 0)
(0.000160511 -0.000457221 0)
(0.000234069 -0.000626054 0)
(0.000324528 -0.000810659 0)
(0.00043282 -0.00100445 0)
(0.000559553 -0.00120057 0)
(0.000704959 -0.00139235 0)
(0.000868832 -0.00157362 0)
(0.00105045 -0.00173918 0)
(0.0012485 -0.00188519 0)
(0.001461 -0.00200963 0)
(0.00168517 -0.00211201 0)
(0.00191718 -0.00219462 0)
(0.00215141 -0.00226354 0)
(0.0023805 -0.00232775 0)
(0.00259568 -0.00238484 0)
(0.00276633 -0.00246216 0)
(0.00283996 -0.00269803 0)
(0.00294907 -0.00298128 0)
(0.0032045 -0.0029213 0)
(0.00353865 -0.0025891 0)
(0.00374931 -0.00178439 0)
(0.0039269 -0.00163112 0)
(0.00401807 -0.00116408 0)
(0.00396709 -0.000916604 0)
(0.00403943 -0.000865489 0)
(0.00420203 -0.000830455 0)
(0.00439878 -0.00077175 0)
(0.0045935 -0.000722344 0)
(0.00479778 -0.00060791 0)
(0.00509341 -0.000405807 0)
(0.00548889 -0.000327307 0)
(0.0058753 -0.000360161 0)
(0.00617445 -0.000495033 0)
(0.00639897 -0.000575933 0)
(0.0066099 -0.000588166 0)
(0.0068505 -0.000537369 0)
(0.00709756 -0.000303019 0)
(0.00728696 9.09462e-05 0)