/*--------------------------------*- C++ -*----------------------------------*\
| =========                 |                                                 |
| \\      /  F ield         | OpenFOAM: The Open Source CFD Toolbox           |
|  \\    /   O peration     | Version:  2.4.0                                 |
|   \\  /    A nd           | Web:      www.OpenFOAM.org                      |
|    \\/     M anipulation  |                                                 |
\*---------------------------------------------------------------------------*/
FoamFile
{
    version     2.0;
    format      ascii;
    class       volScalarField;
    location    "0.064";
    object      p_rgh;
}
// * * * * * * * * * * * * * * * * * * * * * * * * * * * * * * * * * * * * * //

dimensions      [1 -1 -2 0 0 0 0];

internalField   nonuniform List<scalar> 
14400
(
101.034
102.013
103.879
106.279
108.561
110.278
111.219
111.436
111.124
110.479
109.673
108.781
107.806
106.816
105.96
105.38
105.144
105.234
105.569
106.047
106.576
107.087
107.541
107.919
108.219
108.444
108.604
108.71
108.77
108.797
101.029
102.011
103.878
106.281
108.565
110.283
111.222
111.433
111.115
110.463
109.653
108.76
107.783
106.788
105.927
105.346
105.111
105.206
105.55
106.039
106.579
107.1
107.561
107.945
108.248
108.476
108.637
108.744
108.805
108.831
101.018
102.004
103.871
106.281
108.572
110.295
111.233
111.436
111.106
110.441
109.622
108.725
107.743
106.739
105.868
105.278
105.041
105.138
105.488
105.986
106.535
107.063
107.53
107.917
108.222
108.45
108.612
108.718
108.78
108.806
101
101.991
103.859
106.28
108.581
110.314
111.252
111.445
111.097
110.411
109.577
108.676
107.688
106.669
105.781
105.178
104.935
105.033
105.389
105.895
106.451
106.984
107.452
107.839
108.141
108.366
108.525
108.629
108.69
108.716
100.977
101.973
103.841
106.277
108.593
110.341
111.281
111.461
111.088
110.373
109.519
108.613
107.616
106.576
105.664
105.042
104.789
104.886
105.247
105.76
106.323
106.859
107.327
107.71
108.008
108.228
108.383
108.484
108.542
108.567
100.948
101.949
103.818
106.273
108.609
110.375
111.319
111.482
111.08
110.328
109.448
108.536
107.527
106.46
105.515
104.866
104.598
104.691
105.055
105.575
106.144
106.683
107.149
107.528
107.82
108.034
108.183
108.28
108.336
108.36
100.912
101.919
103.789
106.267
108.627
110.417
111.367
111.511
111.071
110.275
109.363
108.445
107.422
106.318
105.332
104.648
104.357
104.442
104.807
105.334
105.908
106.449
106.913
107.287
107.571
107.778
107.921
108.014
108.067
108.09
100.871
101.884
103.754
106.26
108.647
110.467
111.424
111.546
111.063
110.212
109.262
108.339
107.3
106.151
105.111
104.381
104.059
104.133
104.495
105.028
105.609
106.152
106.614
106.981
107.257
107.456
107.592
107.679
107.728
107.75
100.823
101.844
103.714
106.252
108.67
110.526
111.491
111.588
111.054
110.14
109.144
108.219
107.161
105.956
104.85
104.061
103.697
103.753
104.108
104.648
105.236
105.784
106.244
106.605
106.872
107.06
107.187
107.268
107.313
107.333
100.769
101.799
103.667
106.242
108.694
110.592
111.569
111.638
111.046
110.057
109.008
108.086
107.005
105.732
104.545
103.682
103.26
103.29
103.63
104.178
104.778
105.333
105.795
106.15
106.407
106.583
106.699
106.771
106.812
106.832
100.709
101.748
103.614
106.232
108.721
110.667
111.657
111.694
111.037
109.964
108.852
107.938
106.833
105.476
104.191
103.234
102.735
102.727
103.041
103.602
104.219
104.788
105.255
105.607
105.853
106.016
106.119
106.182
106.217
106.231
100.643
101.692
103.554
106.22
108.749
110.751
111.756
111.759
111.029
109.857
108.673
107.779
106.646
105.186
103.782
102.708
102.106
102.041
102.311
102.893
103.538
104.13
104.613
104.967
105.202
105.35
105.437
105.486
105.513
105.525
100.571
101.631
103.486
106.207
108.777
110.843
111.867
111.832
111.019
109.737
108.469
107.61
106.444
104.858
103.312
102.084
101.354
101.198
101.397
102.016
102.708
103.34
103.855
104.221
104.446
104.576
104.645
104.678
104.692
104.698
100.492
101.565
103.412
106.193
108.806
110.945
111.99
111.913
111.009
109.603
108.236
107.433
106.227
104.49
102.775
101.339
100.456
100.146
100.242
100.924
101.689
102.39
102.969
103.355
103.58
103.681
103.723
103.735
103.741
103.747
100.407
101.496
103.329
106.179
108.834
111.057
112.125
112.003
110.997
109.453
107.97
107.253
105.999
104.078
102.166
100.446
99.3903
98.7926
98.7678
99.5486
100.425
101.246
101.948
102.375
102.582
102.662
102.671
102.657
102.646
102.645
100.315
101.422
103.237
106.165
108.861
111.179
112.273
112.102
110.984
109.287
107.666
107.075
105.759
103.614
101.487
99.4288
98.1078
96.9668
96.8682
97.8032
98.8488
99.8858
100.789
101.265
101.466
101.494
101.467
101.429
101.389
101.37
100.217
101.345
103.136
106.152
108.886
111.311
112.435
112.21
110.967
109.105
107.316
106.906
105.508
103.095
100.723
98.3636
96.6055
94.3409
94.4138
95.5485
96.8812
98.3002
99.4959
100.036
100.175
100.139
100.064
100.001
99.9773
99.9826
100.112
101.264
103.024
106.14
108.907
111.453
112.612
112.329
110.946
108.91
106.91
106.754
105.246
102.513
99.8933
97.1547
94.905
91.6
91.1817
92.5244
94.3006
96.4968
98.1208
98.6394
98.6894
98.6221
98.4975
98.3974
98.3914
98.4191
100.001
101.182
102.9
106.132
108.924
111.607
112.803
112.459
110.918
108.706
106.435
106.627
104.965
101.85
98.9855
95.8331
93.4392
88.5624
84.8884
87.0044
90.3915
94.1665
96.4872
97.0739
97.0627
96.9325
96.7391
96.6015
96.5888
96.6262
99.8829
101.098
102.763
106.127
108.935
111.771
113.01
112.599
110.88
108.473
105.872
106.532
104.65
101.087
97.9351
94.4153
90.544
82.2995
75.737
79.6304
85.1456
91.6477
94.42
95.2032
95.0105
94.7955
94.68
94.6058
94.6193
94.6843
99.758
101.014
102.612
106.129
108.939
111.948
113.233
112.752
110.827
108.213
105.191
106.474
104.268
100.155
96.9953
93.3728
86.1677
76.413
68.5739
72.1275
79.3446
88.3582
91.9137
92.586
92.0979
91.9303
92.1313
92.4019
92.596
92.7358
99.6263
100.93
102.444
106.14
108.934
112.136
113.472
112.918
110.755
107.936
104.349
106.445
103.777
98.8881
95.7456
91.8658
85.0841
71.5164
62.2616
69.5544
76.6235
85.5415
89.3671
89.0193
88.0544
88.2535
89.1854
90.0996
90.6631
90.9477
99.4875
100.849
102.256
106.165
108.918
112.337
113.729
113.098
110.655
107.646
103.284
106.434
103.125
97.3242
94.9944
89.4818
85.1622
68.3114
16.8337
27.7503
65.2001
82.8948
87.9993
84.9453
82.8885
84.0206
86.3479
88.1245
89.0862
89.5162
99.3417
100.772
102.046
106.208
108.891
112.552
114.003
113.293
110.517
107.36
101.921
106.428
102.168
95.9417
93.3032
86.9306
84.3688
12.429
0.317865
0.207769
0.624612
13.8212
57.3671
70.9439
73.6716
78.8745
83.9925
86.8866
88.2496
88.8448
99.1886
100.701
101.812
106.277
108.85
112.782
114.297
113.507
110.329
107.141
100.287
106.374
100.79
93.9197
90.3773
86.477
51.2233
0.107494
0.100269
0.0277177
0.0219891
0.0697716
0.242291
0.334293
0.594536
3.01548
12.9456
26.047
35.9784
43.3993
99.0282
100.64
101.55
106.381
108.793
113.03
114.611
113.742
110.072
107.049
98.684
106.132
99.0208
91.0605
89.4815
79.0688
0.0124692
0.00383886
-0.041035
-0.0404068
-0.0206619
0.0211635
0.0518782
0.0819099
0.129973
0.1445
0.163904
0.18306
0.196827
0.203415
98.8601
100.59
101.258
106.533
108.718
113.299
114.946
114.003
109.709
106.922
96.9918
105.694
97.1732
86.7572
77.4913
-0.0204781
-0.0192202
-0.00577862
-0.10955
-0.0802849
-0.0239976
0.0197492
0.0440865
0.0674025
0.100739
0.124287
0.140464
0.151076
0.156841
0.15907
98.6842
100.555
100.934
106.748
108.621
113.593
115.306
114.293
109.204
106.758
94.3582
104.985
95.4369
66.4646
0.197673
-0.0287306
0.00721149
0.00449386
-0.112886
-0.0835875
-0.0208488
0.0236202
0.0464003
0.0641571
0.0882755
0.112561
0.131928
0.145339
0.153057
0.156652
98.5024
100.539
100.575
107.048
108.497
113.917
115.693
114.613
108.59
107.147
93.0592
105.145
92.996
0.255481
0.178353
-0.0457496
0.00790063
0.0138667
-0.0840071
-0.0646448
-0.0130002
0.0247147
0.0417186
0.052801
0.0714213
0.0955414
0.118126
0.135196
0.145682
0.15077
98.3434
100.546
100.18
107.458
108.34
114.276
116.114
114.955
107.972
109.405
85.926
106.591
29.1497
0.233389
0.134902
-0.0591607
1.4388e-05
0.0119557
-0.0529671
-0.0420864
-0.00499005
0.0254355
0.0367442
0.0412412
0.0555387
0.0776462
0.100788
0.119775
0.132083
0.138189
108.796
108.771
108.714
108.615
108.465
108.251
107.965
107.597
107.146
106.623
106.056
105.501
105.044
104.791
104.846
105.267
106.032
107.021
108.057
108.996
109.798
110.454
110.865
110.86
110.229
108.811
106.672
104.238
102.112
100.673
108.831
108.806
108.748
108.649
108.497
108.282
107.993
107.62
107.163
106.631
106.053
105.486
105.019
104.759
104.81
105.232
106.001
106.996
108.036
108.976
109.781
110.442
110.859
110.86
110.233
108.815
106.675
104.238
102.11
100.67
108.806
108.781
108.723
108.624
108.473
108.258
107.967
107.592
107.13
106.591
106.003
105.426
104.95
104.685
104.737
105.166
105.947
106.954
108.003
108.945
109.754
110.426
110.855
110.867
110.246
108.825
106.677
104.234
102.104
100.662
108.715
108.691
108.635
108.538
108.39
108.178
107.89
107.517
107.054
106.511
105.915
105.328
104.842
104.572
104.628
105.068
105.867
106.895
107.956
108.902
109.717
110.405
110.855
110.882
110.266
108.84
106.68
104.225
102.092
100.648
108.567
108.543
108.489
108.396
108.252
108.046
107.764
107.394
106.933
106.386
105.783
105.185
104.69
104.416
104.477
104.934
105.761
106.817
107.897
108.847
109.671
110.381
110.857
110.905
110.296
108.861
106.683
104.212
102.075
100.628
108.36
108.338
108.286
108.197
108.059
107.859
107.584
107.22
106.76
106.21
105.6
104.991
104.486
104.21
104.282
104.763
105.626
106.721
107.825
108.779
109.613
110.352
110.862
110.936
110.334
108.888
106.686
104.194
102.053
100.602
108.09
108.07
108.021
107.937
107.806
107.613
107.346
106.988
106.532
105.979
105.36
104.739
104.225
103.95
104.037
104.55
105.461
106.605
107.741
108.699
109.545
110.318
110.871
110.975
110.382
108.92
106.689
104.171
102.025
100.57
107.751
107.732
107.688
107.61
107.486
107.304
107.046
106.696
106.242
105.686
105.057
104.422
103.898
103.628
103.737
104.292
105.264
106.47
107.644
108.605
109.464
110.279
110.882
111.023
110.439
108.957
106.692
104.144
101.992
100.532
107.334
107.318
107.279
107.208
107.094
106.923
106.677
106.335
105.884
105.323
104.68
104.028
103.495
103.235
103.375
103.982
105.031
106.315
107.537
108.497
109.369
110.234
110.897
111.079
110.506
109.001
106.695
104.112
101.954
100.488
106.834
106.819
106.785
106.722
106.622
106.465
106.232
105.9
105.45
104.88
104.218
103.543
103.001
102.76
102.941
103.614
104.76
106.138
107.419
108.374
109.26
110.183
110.914
111.145
110.583
109.05
106.698
104.074
101.911
100.437
106.233
106.224
106.199
106.147
106.061
105.921
105.703
105.38
104.927
104.342
103.653
102.946
102.393
102.189
102.426
103.182
104.447
105.94
107.293
108.234
109.134
110.126
110.935
111.221
110.67
109.105
106.701
104.03
101.862
100.38
105.528
105.522
105.504
105.468
105.401
105.281
105.081
104.765
104.303
103.691
102.963
102.212
101.643
101.507
101.819
102.678
104.089
105.719
107.16
108.078
108.99
110.06
110.96
111.306
110.768
109.167
106.703
103.981
101.808
100.317
104.701
104.702
104.697
104.68
104.635
104.539
104.359
104.046
103.562
102.906
102.117
101.302
100.705
100.691
101.109
102.098
103.681
105.474
107.023
107.902
108.824
109.984
110.987
111.402
110.877
109.234
106.705
103.925
101.749
100.247
103.752
103.755
103.758
103.761
103.744
103.686
103.53
103.214
102.689
101.956
101.079
100.166
99.5081
99.7189
100.289
101.438
103.22
105.202
106.886
107.706
108.635
109.899
111.018
111.509
110.997
109.307
106.706
103.862
101.684
100.171
102.649
102.66
102.679
102.708
102.732
102.703
102.581
102.278
101.665
100.8
99.8003
98.7264
97.9425
98.5535
99.3458
100.696
102.702
104.901
106.754
107.487
108.417
109.801
111.053
111.627
111.131
109.387
106.706
103.792
101.614
100.087
101.372
101.397
101.446
101.507
101.564
101.597
101.522
101.198
100.481
99.3698
98.1973
96.8664
95.85
97.0563
98.2763
99.8735
102.12
104.567
106.635
107.24
108.166
109.69
111.09
111.758
111.277
109.473
106.706
103.713
101.539
99.9968
99.993
100.004
100.031
100.1
100.204
100.303
100.313
100.022
99.1583
97.6503
96.1477
94.4659
93.1544
94.9858
97.0674
98.9515
101.469
104.193
106.536
106.964
107.876
109.562
111.132
111.902
111.436
109.565
106.704
103.625
101.459
99.8989
98.4362
98.4365
98.4394
98.5193
98.6858
98.8281
98.9118
98.7449
97.7135
95.5525
93.4156
91.1713
89.9659
92.9208
95.4941
97.8908
100.736
103.771
106.473
106.655
107.54
109.416
111.178
112.06
111.611
109.663
106.702
103.528
101.374
99.7936
96.6438
96.6434
96.6387
96.747
96.9655
97.1898
97.3692
97.2487
96.0069
92.5878
88.8437
84.6384
84.9786
90.4426
93.836
96.683
99.9085
103.293
106.463
106.309
107.15
109.244
111.228
112.232
111.801
109.767
106.698
103.419
101.283
99.6804
94.7069
94.6863
94.6593
94.7318
94.8587
95.0645
95.4657
95.3982
93.9115
89.0146
81.7319
75.9459
76.8008
86.1617
91.9877
95.5603
98.9684
102.744
106.534
105.924
106.705
109.043
111.283
112.42
112.007
109.877
106.694
103.299
101.188
99.5592
92.7791
92.7284
92.5628
92.3489
92.0986
92.0858
92.6628
93.0684
91.2335
84.9001
75.4553
69.0898
69.1153
80.8228
90.0978
94.4309
97.8108
102.118
106.726
105.493
106.189
108.804
111.344
112.624
112.232
109.993
106.688
103.165
101.088
99.4297
91.0296
90.8884
90.5134
89.7389
88.7331
87.9847
88.6176
90.2503
88.6927
82.6717
73.2618
65.643
65.6264
78.8401
88.3854
93.6256
96.7555
101.377
107.098
105
105.582
108.515
111.414
112.846
112.475
110.113
106.682
103.016
100.984
99.2914
89.6079
89.4137
88.8035
87.4428
85.1873
82.8674
83.3037
87.6781
87.4397
79.4541
43.8857
17.0041
35.0166
78.7302
86.407
92.2172
95.57
100.517
107.717
104.411
104.855
108.158
111.494
113.086
112.74
110.238
106.675
102.85
100.876
99.144
89.0199
88.8208
87.9366
85.8395
81.7281
75.779
70.8164
72.4521
44.4545
4.25841
0.307682
0.261445
0.306624
69.9514
83.9817
90.452
94.134
99.3073
108.583
103.64
103.971
107.708
111.591
113.345
113.028
110.366
106.667
102.665
100.764
98.9871
45.4097
40.7911
32.5371
20.203
7.48796
1.18055
0.494852
0.293878
0.162166
0.0606743
0.0418362
0.0936368
0.0852296
0.362407
84.4668
88.7782
93.1846
97.7503
109.559
102.573
102.953
107.122
111.71
113.622
113.341
110.496
106.659
102.459
100.649
98.8202
0.204788
0.203155
0.194984
0.179866
0.156983
0.144364
0.109395
0.0558458
0.0255383
0.0089257
-0.0204805
-0.0358527
-0.0179951
-0.00793538
8.97977
88.0781
91.1213
95.8174
110.486
101.407
102.007
106.313
111.863
113.916
113.682
110.625
106.651
102.229
100.531
98.6428
0.159626
0.159131
0.156217
0.149198
0.135922
0.116477
0.0831858
0.0456531
0.0243808
-0.00299681
-0.0596191
-0.122049
-0.07111
-0.0531473
-0.158751
15.5983
88.7282
92.6179
111.046
100.726
100.982
105.082
112.063
114.227
114.054
110.751
106.646
101.971
100.41
98.4544
0.15749
0.155953
0.151125
0.141383
0.125189
0.102296
0.07365
0.0483457
0.0273051
-0.00657345
-0.0742488
-0.147713
-0.0906117
-0.0611984
-0.139185
0.0214999
11.1372
89.1146
110.804
101.372
98.6585
103.117
112.323
114.549
114.462
110.869
106.643
101.682
100.289
98.2541
0.151898
0.149489
0.142473
0.129276
0.109092
0.0835335
0.0575695
0.0394116
0.024805
-0.00649863
-0.0683223
-0.134373
-0.0894212
-0.0687321
-0.140572
0.029279
0.147307
32.517
112.452
102.333
95.3241
100.105
112.656
114.875
114.912
110.976
106.645
101.357
100.167
98.0414
0.139514
0.13654
0.128052
0.112684
0.0907212
0.0655279
0.0424476
0.0297087
0.02105
-0.00437072
-0.0547346
-0.103818
-0.0810369
-0.0714141
-0.140207
0.0131156
0.16101
2.51738
111.785
100.954
92.0032
95.7805
113.106
115.195
115.411
111.062
106.654
100.989
100.045
97.8163
11.1143
100.581
99.8051
107.94
108.167
114.623
116.518
115.261
107.616
114.489
0.4029
46.5385
-0.0355822
0.183201
0.112182
-0.0654487
-0.00436918
0.00968071
-0.0332637
-0.0265609
0.000306116
0.0260709
0.0335267
0.0303806
0.0434899
0.0634812
0.0856513
0.104582
0.117212
0.12354
0.0528775
22.6607
83.7113
112.59
108.051
114.845
116.771
115.437
107.559
102.692
1.56657
1.00704
0.00958628
0.153494
0.100168
-0.0626831
-0.0057039
0.00848218
-0.0242389
-0.0193959
0.00779674
0.0413365
0.0459415
0.0242948
0.037645
0.0565609
0.0777919
0.0961862
0.108584
0.114836
0.0545949
0.749995
11.7313
70.3166
107.944
115.1
117.059
115.619
107.701
6.06052
1.18051
0.13001
-0.00615926
0.124547
0.0877191
-0.0561279
-0.00679168
0.00771662
-0.0160296
-0.0126681
0.00755499
0.042104
0.0472526
0.0572328
0.0334042
0.0508583
0.0707998
0.0882946
0.100167
0.106164
0.0827759
0.127999
3.04386
67.6639
110.796
115.38
117.369
115.83
107.497
8.70977
0.232365
0.0505403
-0.0118059
0.0989518
0.0722772
-0.0461265
-0.00536579
0.00755357
-0.0086677
-0.0057966
0.00770184
0.0365296
0.0381734
0.0238979
0.0316551
0.0470173
0.0652962
0.081491
0.0925265
0.0980898
0.0488294
-0.105681
-0.0261722
28.2502
105.519
115.764
117.582
116.006
105.04
0.0494107
-0.193994
0.0472274
-0.0220532
0.0769251
0.0616299
-0.0330198
-0.00266386
0.00811636
-0.00197837
0.000973972
0.0122086
0.0248266
0.0292232
0.0265326
0.0321561
0.0455273
0.0619221
0.0764968
0.0864806
0.0915527
0.0420466
-0.0900817
-0.0345955
1.41433
89.801
116.102
117.208
116.29
65.9288
0.196487
-0.164607
-0.0743785
-0.026863
0.0573898
0.0517817
-0.0200013
0.000607099
0.00940549
0.00416044
0.00763015
0.0172458
0.0267752
0.0305879
0.0298661
0.034885
0.0466855
0.0611197
0.073934
0.0827874
0.087336
0.0358136
-0.179798
-0.0413339
-0.0754549
30.085
114.872
116.772
115.999
3.27298
0.157051
-0.265194
-0.121947
-0.0303663
0.0396919
0.0509826
-0.0106101
0.00387336
0.0113397
0.00990553
0.0140321
0.0223549
0.0299658
0.0336621
0.0346727
0.0398896
0.0504833
0.0630305
0.0741556
0.0818577
0.0857846
0.0324101
-0.166218
-0.0389402
-0.0739258
-0.00465375
90.7959
106.295
39.8063
-0.20236
0.0992725
-0.22882
-0.134689
-0.0338703
0.0233697
0.0399583
-0.00466563
0.00677579
0.013771
0.0153972
0.020391
0.0278005
0.0343317
0.0400445
0.0411061
0.0468296
0.0564475
0.0673936
0.0769469
0.0835146
0.0868097
0.0263815
-0.149674
-0.0741998
-0.0703866
-0.00200081
0.489952
0.248314
-0.0950121
-0.149765
0.0592202
-0.205259
-0.122967
-0.0372251
0.00856112
0.0252628
-0.00164396
0.00914505
0.0164802
0.0207324
0.0267543
0.033766
0.0396444
0.0457054
0.0495679
0.0550198
0.0639215
0.0734042
0.0814905
0.0870749
0.0899186
0.0215424
-0.140084
-0.0854578
-0.0645314
-0.00319764
-0.0178057
-0.0460823
-0.0898372
-0.124404
0.0390234
-0.178163
-0.0887781
-0.0415533
0.0536532
0.0196106
0.000542064
0.0107957
0.0191822
0.025981
0.0332425
0.0401665
0.0460265
0.0513543
0.0578502
0.0641715
0.0715906
0.0798266
0.0866027
0.0913821
0.0939221
0.0181877
-0.09179
-0.0708692
-0.0551679
-0.0194472
-0.018882
-0.0447826
-0.0855304
-0.107142
0.0271305
-0.0081454
-0.0507803
-0.0481773
0.0366714
0.00383054
0.000803415
0.01146
0.0214347
0.0310897
0.0399205
0.0468863
0.0525689
0.0579632
0.0638581
0.071785
0.0797583
0.0863184
0.0914052
0.0951994
0.0971997
0.0146187
-0.0628866
-0.0551132
-0.0582338
-0.0239577
-0.0200702
-0.0478785
-0.0806834
-0.0933799
0.0156253
-0.0226618
-0.0112463
-0.0653083
0.0103068
-0.0153969
-0.00155759
0.0105048
0.0224661
0.0358515
0.0467881
0.0536968
0.0587341
0.0636476
0.0690967
0.075228
0.0820671
0.0874979
0.0925226
0.0964294
0.0986436
0.0117528
-0.0727785
-0.0656746
-0.0544146
-0.0268294
-0.0214085
-0.0462936
-0.0742594
-0.0822649
0.00432177
0.00327329
0.00932182
-0.0782814
-0.0239978
-0.0301585
-0.00636369
0.00702899
0.0207724
0.0397143
0.0535854
0.0601293
0.0638127
0.0675704
0.0720624
0.0771772
0.0824384
0.0873214
0.0913108
0.0940303
0.0954267
0.00918008
-0.0371871
-0.0910015
-0.0500361
-0.028492
-0.0229123
-0.0438136
-0.0665389
-0.0726905
-0.00494062
0.0152697
0.00979999
-0.0706212
-0.0668469
-0.0398788
-0.014947
-0.000214816
0.0204059
0.0479872
0.0600004
0.0650602
0.066712
0.0689027
0.0722088
0.0762745
0.0805085
0.0843822
0.0874935
0.0896423
0.0908321
0.00695885
-0.0648748
-0.0799012
-0.0464691
-0.0295548
-0.0241151
-0.0408641
-0.058226
-0.0634522
-0.0122916
0.0148859
0.00158095
-0.0110583
-0.0482087
-0.0624318
-0.0278058
-0.0106218
0.0148635
0.083517
0.0726239
0.0742064
0.0657388
0.0667054
0.069273
0.0727123
0.0762762
0.0794472
0.0819331
0.0836372
0.0846073
0.00491652
-0.0527157
-0.0889393
-0.0432738
-0.0300707
-0.0249346
-0.0375843
-0.0501679
-0.0539711
-0.0169349
0.0115162
-0.00434639
-0.048851
-0.100022
-0.0721176
-0.0449944
-0.0167326
0.0049321
0.173662
0.158567
0.10346
0.0642676
0.0600807
0.063326
0.0670032
0.0704344
0.0732831
0.0754197
0.0768567
0.077695
0.00311887
-0.0422526
-0.0762258
-0.0402483
-0.0301017
-0.0253206
-0.0342611
-0.0428123
-0.0442965
-0.0169301
0.00911029
0.00523029
-0.0594939
-0.0855115
-0.0721142
-0.0655503
0.0217276
-0.0046296
0.0261525
0.134945
0.151739
0.0499318
0.0486038
0.0552262
0.0600806
0.0638065
0.0666051
0.0686025
0.0699283
0.070718
0.00160288
-0.034301
-0.0651209
-0.037439
-0.0297115
-0.0252479
-0.0310384
-0.036235
-0.0348496
-0.0135355
0.0101263
-0.00250857
-0.0386808
-0.0730156
-0.0841721
-0.0304461
-0.036189
-0.0122681
0.0129267
0.0434862
0.154867
0.073483
0.0432071
0.0476187
0.0534429
0.0573819
0.0601317
0.0620186
0.0632486
0.0639754
0.000375921
-0.0285552
-0.055976
-0.0348635
-0.0289414
-0.0247217
-0.0279456
-0.0303362
-0.026178
-0.00811901
0.0139185
0.0129279
0.00212484
-0.0570142
-0.0888435
-0.0448494
-0.0129879
-0.0227694
-0.00259635
0.00575331
0.0758026
0.0210368
0.035386
0.0431768
0.0483258
0.0518682
0.0543127
0.05596
0.0570118
0.0576151
-0.000566435
-0.0243312
-0.0481976
-0.0324272
-0.0278128
-0.0237693
-0.0249677
-0.0250161
-0.0187047
-0.0020548
0.0188294
0.0290368
0.0135429
-0.0419068
-0.0828278
-0.0404444
-0.0547193
-0.0218571
-0.00265366
0.00680244
0.0160142
0.026436
0.0345658
0.0403656
0.0444011
0.0472128
0.0491466
0.0504334
0.0512367
0.0516772
-0.00123915
-0.02119
-0.0413949
-0.0299938
-0.0263452
-0.0224432
-0.0220801
-0.0202405
-0.0125082
0.00318272
0.0228747
0.0407318
0.0302911
-0.0343799
-0.0481028
-0.0351638
-0.0438556
-0.0141332
0.00313404
0.0133298
0.0209867
0.0279058
0.0336846
0.0378553
0.0407881
0.0428351
0.0442379
0.0451622
0.045727
0.0460208
-0.00167026
-0.0187988
-0.0353464
-0.0274877
-0.0245609
-0.0208066
-0.0192796
-0.0160289
-0.00760865
0.00697678
0.0248258
0.0415929
0.0396015
-0.0198003
-0.054172
-0.0445924
-0.0277219
-0.00658805
0.00751001
0.0164809
0.0228259
0.0278363
0.0317282
0.0346039
0.036677
0.0381451
0.0391576
0.039824
0.0402271
0.0404307
-0.00189268
-0.0166172
-0.0299303
-0.0248729
-0.0224737
-0.0189208
-0.0165794
-0.0124051
-0.00393771
0.00912455
0.0243563
0.0370453
0.0427849
0.00083803
-0.0228112
-0.0273074
-0.014038
-0.000524472
0.00939548
0.016451
0.0215379
0.0253518
0.0282345
0.0303732
0.0319367
0.0330566
0.0338354
0.0343519
0.0346675
0.0348304
-0.00194026
-0.0145235
-0.0250756
-0.0221351
-0.0201076
-0.0168425
-0.0140075
-0.00935939
-0.00140316
0.00979905
0.0219265
0.0310378
0.030036
0.0132346
-0.00711069
-0.00893272
-0.0033818
0.00378559
0.0101115
0.0151141
0.0189492
0.0218746
0.0240936
0.0257597
0.0269889
0.0278781
0.0285036
0.028925
0.0291896
0.0293346
-0.00184555
-0.0124497
-0.0207076
-0.0192644
-0.017519
-0.0146221
-0.0115972
-0.00697346
0.000181238
0.0093406
0.0184092
0.0242676
0.0230266
0.0131886
0.00365977
0.000950954
0.00280697
0.00636936
0.0102425
0.0135162
0.016211
0.0183503
0.0200128
0.0212818
0.0222328
0.0229308
0.0234299
0.0237735
0.0239969
0.0241282
-0.00163833
-0.0103703
-0.0167338
-0.016253
-0.0147828
-0.0123069
-0.00937168
-0.00508821
0.000982847
0.00811983
0.0145781
0.0181851
0.0172229
0.0122067
0.00724188
0.00530209
0.00580854
0.00758502
0.00974079
0.0117916
0.0135763
0.0150514
0.0162306
0.0171503
0.017853
0.0183786
0.0187621
0.0190332
0.0192159
0.0193305
-0.00134436
-0.00827404
-0.0130487
-0.0131084
-0.011952
-0.00994035
-0.00733668
-0.00365942
0.00119452
0.0064904
0.010914
0.0131498
0.0126158
0.0100909
0.00765312
0.00650193
0.00660179
0.00746845
0.00865278
0.00987199
0.0109883
0.0119449
0.0127313
0.0133587
0.0138472
0.0142197
0.0144979
0.0146999
0.014841
0.0149345
-0.000984435
-0.00615271
-0.00954906
-0.00985174
-0.00904658
-0.00755085
-0.00548202
-0.00261366
0.000987145
0.00468922
0.00759429
0.00900054
0.00882187
0.00768419
0.00647537
0.00589632
0.00591107
0.00634006
0.00697569
0.00766529
0.00832209
0.00890251
0.0093912
0.00978917
0.0101051
0.0103508
0.010538
0.0106774
0.0107785
0.0108493
-0.000573011
-0.00399026
-0.00613643
-0.00649041
-0.00606164
-0.00514561
-0.00377709
-0.00185847
0.000493332
0.00282689
0.0045918
0.0054497
0.00545826
0.00498846
0.00448485
0.00422798
0.00423714
0.00444638
0.00476746
0.00512628
0.0054766
0.00579282
0.0060641
0.00628896
0.00647055
0.00661425
0.00672609
0.00681147
0.00687521
0.00692152
-0.000118675
-0.00174845
-0.00270633
-0.0030009
-0.00297003
-0.00270317
-0.00216685
-0.00130481
-0.000193917
0.00092136
0.00176659
0.00219995
0.00227141
0.00214614
0.00199207
0.00190832
0.00191529
0.00199286
0.0021137
0.0022519
0.00238919
0.00251477
0.00262395
0.00271574
0.00279106
0.00285176
0.00289981
0.00293705
0.00296522
0.00298598
0.124889
0.121755
0.112894
0.0971559
0.0754736
0.0518365
0.0310352
0.0213838
0.018262
-0.00231764
-0.0436882
-0.0804346
-0.0717355
-0.0696171
-0.136977
0.00437211
0.148964
0.202713
5.55931
28.0236
49.3861
90.4674
113.661
115.455
115.899
111.114
106.673
100.628
99.9408
89.7603
0.116157
0.112999
0.104183
0.0886923
0.0676574
0.0451009
0.0254501
0.0162484
0.0172823
-0.00129437
-0.0384096
-0.0692284
-0.0661736
-0.0675366
-0.130944
0.0255559
0.139831
0.171597
0.357184
1.53218
9.16181
86.0727
114.075
115.595
116.21
111.134
106.687
100.39
38.2941
-0.549915
0.107406
0.104309
0.0957366
0.0808024
0.0607412
0.0395565
0.0212488
0.0202987
0.0347335
0.0155936
-0.0337362
-0.0588298
-0.0601312
-0.0642431
-0.11638
0.0275513
0.120266
0.141132
-0.17864
2.0819
-0.182074
78.6187
114.61
115.731
116.571
111.147
106.697
33.0033
10.2997
-0.475052
0.099197
0.0962339
0.0881284
0.0741022
0.0553865
0.0359293
0.0197173
0.0475078
0.0360072
0.0256441
-0.0285594
-0.0492047
-0.0536971
-0.0596085
-0.0992151
0.0140377
0.132326
0.113921
-0.149179
0.797947
0.214935
94.0229
115.309
115.868
116.947
111.054
87.5634
25.1281
0.628426
-0.182298
0.0925142
0.0896759
0.0821469
0.0693095
0.0522324
0.0346966
0.021688
0.0199225
0.022185
0.00352854
-0.0219792
-0.0400256
-0.0468119
-0.0538273
-0.0822092
0.00213003
0.11334
0.0911058
-0.106367
0.0280555
-0.0758713
8.02803
116.215
115.988
117.174
110.195
80.819
2.28671
0.120585
-0.236665
0.0881469
0.085453
0.0785421
0.0669786
0.051701
0.0359737
0.0245037
0.0210429
0.0167374
0.00551146
-0.0149949
-0.0311552
-0.0394965
-0.0470974
-0.0659266
-0.0132932
0.0978732
0.0696008
-0.0409128
-0.011521
-0.0894794
4.4381
115.622
116.082
116.578
108.063
30.3328
-0.0691776
0.120403
-0.232283
0.0864234
0.0839758
0.0777815
0.0674897
0.0539493
0.039821
0.0290227
0.024071
0.0192105
0.00922085
-0.00760436
-0.0224858
-0.0317958
-0.0396074
-0.0510201
-0.0112843
0.0832764
0.0559956
-0.0475246
-0.0058678
-0.123255
-0.643826
101.244
116.094
116.752
80.4524
0.888712
-0.0763719
0.116595
-0.157449
0.0872927
0.0851411
0.0797247
0.0706968
0.0587439
0.0460395
0.0356066
0.0291415
0.0240344
0.0140667
-0.000394405
-0.0139169
-0.0237774
-0.0316622
-0.0380954
-0.00852653
0.0665869
0.0474351
-0.0344199
0.0273725
-0.171453
-0.434549
0.0484023
97.3959
109.547
9.88297
-0.0483577
-0.0786211
0.130536
-0.178678
0.090324
0.0884009
0.0836564
0.0758437
0.0654369
0.0539989
0.0437867
0.0361161
0.0286795
0.0194342
0.00705176
-0.00534341
-0.0155287
-0.0235904
-0.0274959
-0.0107491
0.0618251
0.0657045
-0.0273765
0.0813673
-0.246092
-0.368823
-0.0870171
-0.0633808
-0.00726105
0.037439
-0.0338372
0.0195051
0.130726
-0.141919
0.0943177
0.0925943
0.0884094
0.0817221
0.0728088
0.0625537
0.0535301
0.0448076
0.0353642
0.0261106
0.0149149
0.00329257
-0.00715409
-0.0157192
-0.019268
-0.0114382
0.0581341
0.0433261
0.000921742
0.179016
-0.255161
-0.354548
-0.111726
-0.069718
-0.0360883
0.0220106
-0.00583296
-0.0690306
0.135066
-0.21033
0.0977104
0.0961784
0.0924622
0.0870053
0.0798103
0.0709841
0.0611492
0.0514054
0.0425693
0.0333591
0.0229982
0.0119898
0.00121307
-0.00839554
-0.0131389
-0.00706966
0.0405405
0.0377216
0.0239095
0.294304
-0.256436
-0.309315
-0.12411
-0.0732979
-0.0371051
0.0117231
-0.0400064
-0.0697908
0.116313
-0.190613
0.0991188
0.0980862
0.0950605
0.0907889
0.0844937
0.0757528
0.0669306
0.0582121
0.0495532
0.0407293
0.0311646
0.0207053
0.00937417
-0.00210139
-0.0090148
-0.00310361
0.0278818
0.0560411
0.0421706
0.31697
-0.345096
-0.265992
-0.125642
-0.0745716
-0.0376073
0.00312912
-0.0394916
-0.0686356
0.0400661
-0.16802
0.0957186
0.0950587
0.09319
0.0896274
0.0844943
0.0781849
0.0710224
0.063392
0.0556398
0.0477497
0.0391598
0.0292719
0.0169073
0.00236293
-0.00717966
-0.00173838
0.0240021
0.101958
0.0518407
0.153112
-0.341053
-0.220587
-0.119554
-0.0733483
-0.0373176
-0.00394871
-0.0275998
-0.0646515
0.0271756
-0.145692
0.0911845
0.0907537
0.0893694
0.0868217
0.0830701
0.0782588
0.0726221
0.0664917
0.0602201
0.0538475
0.0465602
0.0372248
0.022839
0.0038327
-0.00878418
-0.00456225
0.0221695
0.106429
0.0517474
0.138929
-0.191324
-0.172092
-0.107813
-0.0695133
-0.0367098
-0.0101951
-0.0321596
-0.0598998
0.0192814
-0.124694
0.0849747
0.084801
0.083944
0.0822352
0.0795908
0.0760576
0.0718208
0.0672199
0.0626889
0.058352
0.0527435
0.0434603
0.0252606
0.0006795
-0.0164286
-0.0119583
0.0174358
0.0758138
0.0425964
0.108179
-0.0829083
-0.127015
-0.0938777
-0.0641832
-0.035752
-0.0150627
-0.0376362
-0.0548435
0.0126685
-0.10535
0.0780791
0.0780825
0.0775965
0.0764695
0.0746013
0.0719915
0.0687867
0.0653464
0.0623071
0.0603729
0.0572532
0.051074
0.0271447
-0.00502416
-0.0330396
-0.0261266
0.00777903
0.0653087
0.0316969
0.0770953
-0.0365399
-0.0912842
-0.0798097
-0.0585132
-0.0345312
-0.0185906
-0.0352736
-0.0502244
0.00680169
-0.0878999
0.0711082
0.0711741
0.0708457
0.0700052
0.0685519
0.0664404
0.0637349
0.0607035
0.0578975
0.0580588
0.114545
0.140655
0.0333369
0.0383987
-0.0310669
-0.0472186
-0.0088922
0.0245272
0.0264111
0.0530885
-0.0149539
-0.0642696
-0.0666235
-0.0528382
-0.0331281
-0.0208604
-0.0330446
-0.0458274
0.00168757
-0.0728288
0.0643291
0.064381
0.0640775
0.0633173
0.0619935
0.0600075
0.0572868
0.0537995
0.0499908
0.0526437
0.13413
0.126898
0.0561062
-0.0305216
-0.0429451
-0.0716177
-0.0253914
0.00757136
0.0687775
0.0360845
-0.0036452
-0.0444676
-0.0547245