/*--------------------------------*- C++ -*----------------------------------*\
| =========                 |                                                 |
| \\      /  F ield         | OpenFOAM: The Open Source CFD Toolbox           |
|  \\    /   O peration     | Version:  2.4.0                                 |
|   \\  /    A nd           | Web:      www.OpenFOAM.org                      |
|    \\/     M anipulation  |                                                 |
\*---------------------------------------------------------------------------*/
FoamFile
{
    version     2.0;
    format      ascii;
    class       surfaceScalarField;
    location    "0.014";
    object      phiAlpha;
}
// * * * * * * * * * * * * * * * * * * * * * * * * * * * * * * * * * * * * * //

dimensions      [0 3 -1 0 0 0 0];

internalField   nonuniform List<scalar> 
114720
(
-1.0582e-10
8.67617e-11
1.9687e-10
-1.77812e-10
3.0409e-10
-3.89942e-10
-3.89163e-11
1.24768e-10
7.26751e-10
-8.60926e-10
-5.96061e-11
1.93781e-10
1.40073e-09
-1.61558e-09
-9.36312e-11
3.08476e-10
2.46438e-09
-2.79482e-09
-1.41273e-10
4.71714e-10
4.0647e-09
-4.54572e-09
-2.01221e-10
6.82248e-10
6.3396e-09
-6.99986e-09
-2.68884e-10
9.29146e-10
9.38739e-09
-1.02404e-08
-3.3581e-10
1.18878e-09
1.32294e-08
-1.42646e-08
-3.90487e-10
1.42573e-09
1.77759e-08
-1.89531e-08
-4.20865e-10
1.59802e-09
2.28108e-08
-2.40605e-08
-4.1892e-10
1.66854e-09
2.8015e-08
-2.92513e-08
-3.86078e-10
1.62237e-09
3.30284e-08
-3.41679e-08
-3.33582e-10
1.47301e-09
3.75275e-08
-3.85038e-08
-2.76437e-10
1.2527e-09
4.12685e-08
-4.20351e-08
-2.23708e-10
9.90245e-10
4.40809e-08
-4.46038e-08
-1.73561e-10
6.96426e-10
4.58359e-08
-4.60882e-08
-1.16541e-10
3.68893e-10
4.64328e-08
-4.63962e-08
-4.32736e-11
6.69858e-12
4.58205e-08
-4.54945e-08
4.65853e-11
-3.7261e-10
4.40327e-08
-4.344e-08
1.45054e-10
-7.37764e-10
4.12012e-08
-4.03868e-08
2.39311e-10
-1.05367e-09
3.75388e-08
-3.65619e-08
3.17946e-10
-1.29479e-09
3.3298e-08
-3.22199e-08
3.74665e-10
-1.45277e-09
2.87253e-08
-2.76023e-08
4.08122e-10
-1.53112e-09
2.40381e-08
-2.29133e-08
4.21641e-10
-1.54648e-09
1.94042e-08
-1.83127e-08
4.18101e-10
-1.50962e-09
1.49471e-08
-1.39112e-08
4.02812e-10
-1.43869e-09
1.07474e-08
-9.7816e-09
3.79212e-10
-1.34497e-09
6.85235e-09
-5.96434e-09
3.5073e-10
-1.23874e-09
3.28152e-09
-2.47287e-09
3.20284e-10
-1.12893e-09
9.63581e-11
5.97779e-10
-4.96624e-10
-1.97513e-10
5.44787e-10
-5.31668e-10
-6.81325e-10
6.68205e-10
1.21014e-09
-8.50473e-10
-1.42979e-09
1.07012e-09
2.28739e-09
-1.35899e-09
-2.64033e-09
1.71193e-09
3.98874e-09
-2.07486e-09
-4.53079e-09
2.61691e-09
6.54544e-09
-2.99723e-09
-7.33401e-09
3.78579e-09
1.01826e-08
-4.08826e-09
-1.12678e-08
5.17345e-09
1.50769e-08
-5.26009e-09
-1.64889e-08
6.67203e-09
2.13023e-08
-6.37298e-09
-2.30366e-08
8.10729e-09
2.87709e-08
-7.24494e-09
-3.07744e-08
9.24845e-09
3.71868e-08
-7.70341e-09
-3.93539e-08
9.87048e-09
4.60448e-08
-7.62386e-09
-4.82229e-08
9.80195e-09
5.46826e-08
-6.98415e-09
-5.66964e-08
8.99789e-09
6.23908e-08
-5.85282e-09
-6.4072e-08
7.53403e-09
6.85316e-08
-4.34562e-09
-6.97462e-08
5.56026e-09
7.26356e-08
-2.58834e-09
-7.33012e-08
3.25388e-09
7.44571e-08
-7.07747e-10
-7.45492e-08
7.99771e-10
7.39835e-08
1.16343e-09
-7.35322e-08
-1.61469e-09
7.14062e-08
2.88188e-09
-7.04848e-08
-3.80332e-09
6.70693e-08
4.32772e-09
-6.57773e-08
-5.61973e-09
6.13974e-08
5.421e-09
-5.98443e-08
-6.9741e-09
5.48306e-08
6.13958e-09
-5.31213e-08
-7.84888e-09
4.77723e-08
6.5149e-09
-4.59956e-08
-8.2916e-09
4.05542e-08
6.60379e-09
-3.87802e-08
-8.37778e-09
3.34284e-08
6.47715e-09
-3.17074e-08
-8.19821e-09
2.65766e-08
6.19438e-09
-2.49434e-08
-7.82762e-09
2.01134e-08
5.81802e-09
-1.85874e-08
-7.34394e-09
1.41063e-08
5.38514e-09
-1.26988e-08
-6.7927e-09
8.58665e-09
4.93448e-09
-7.29945e-09
-6.22168e-09
3.55426e-09
4.47397e-09
-2.38827e-09
-5.63996e-09
9.59314e-11
1.00159e-09
-9.00809e-10
-1.96709e-10
5.4373e-10
-1.07787e-09
-6.79995e-10
1.21414e-09
1.20782e-09
-1.72923e-09
-1.42708e-09
1.94848e-09
2.28323e-09
-2.77115e-09
-2.6356e-09
3.12352e-09
3.98205e-09
-4.24403e-09
-4.5234e-09
4.78538e-09
6.53593e-09
-6.1536e-09
-7.32385e-09
6.94152e-09
1.01712e-08
-8.43342e-09
-1.12563e-08
9.51852e-09
1.50671e-08
-1.09163e-08
-1.64805e-08
1.23297e-08
2.13023e-08
-1.33254e-08
-2.3041e-08
1.50641e-08
2.87956e-08
-1.52834e-08
-3.08083e-08
1.7296e-08
3.72579e-08
-1.64068e-08
-3.94402e-08
1.8589e-08
4.61871e-08
-1.63802e-08
-4.83863e-08
1.85794e-08
5.49171e-08
-1.50861e-08
-5.69556e-08
1.71246e-08
6.27275e-08
-1.26197e-08
-6.4434e-08
1.43262e-08
6.89678e-08
-9.23518e-09
-7.02056e-08
1.04729e-08
7.31601e-08
-5.26925e-09
-7.38452e-08
5.95439e-09
7.50558e-08
-1.08439e-09
-7.51638e-08
1.19239e-09
7.4641e-08
2.96718e-09
-7.42017e-08
-3.40651e-09
7.21049e-08
6.57274e-09
-7.11901e-08
-7.48754e-09
6.77855e-08
9.50719e-09
-6.64935e-08
-1.07992e-08
6.21037e-08
1.16511e-08
-6.0544e-08
-1.32108e-08
5.55008e-08
1.3e-08
-5.37791e-08
-1.47217e-08
4.83851e-08
1.36487e-08
-4.65917e-08
-1.5442e-08
4.1095e-08
1.3729e-08
-3.93016e-08
-1.55224e-08
3.38883e-08
1.33915e-08
-3.21466e-08
-1.51333e-08
2.69514e-08
1.27576e-08
-2.5297e-08
-1.44121e-08
2.04022e-08
1.19512e-08
-1.88554e-08
-1.34981e-08
1.43113e-08
1.10434e-08
-1.28836e-08
-1.24711e-08
8.71188e-09
1.01094e-08
-7.40586e-09
-1.14154e-08
3.60559e-09
9.16185e-09
-2.42236e-09
-1.03451e-08
9.52085e-11
1.40319e-09
-1.30305e-09
-1.95347e-10
5.403e-10
-1.6217e-09
-6.75681e-10
1.75708e-09
1.20014e-09
-2.60429e-09
-1.418e-09
2.82215e-09
2.26878e-09
-4.17756e-09
-2.61896e-09
4.52774e-09
3.95718e-09
-6.40487e-09
-4.49528e-09
6.94298e-09
6.49617e-09
-9.29914e-09
-7.2797e-09
1.00827e-08
1.01121e-08
-1.27664e-08
-1.11919e-08
1.38462e-08
1.49861e-08
-1.65622e-08
-1.63941e-08
1.79701e-08
2.12013e-08
-2.02748e-08
-2.29362e-08
2.20097e-08
2.86846e-08
-2.33342e-08
-3.06975e-08
2.53471e-08
3.71573e-08
-2.51452e-08
-3.93464e-08
2.73343e-08
4.61271e-08
-2.51979e-08
-4.83417e-08
2.74125e-08
5.49333e-08
-2.32733e-08
-5.69962e-08
2.53362e-08
6.28551e-08
-1.94897e-08
-6.4594e-08
2.12286e-08
6.9237e-08
-1.42387e-08
-7.05133e-08
1.5515e-08
7.35921e-08
-8.06735e-09
-7.43192e-08
8.79444e-09
7.56589e-08
-1.5737e-09
-7.58084e-08
1.7232e-09
7.54058e-08
4.67477e-09
-7.50025e-08
-5.07808e-09
7.30016e-08
1.01965e-08
-7.21125e-08
-1.10856e-08
6.87662e-08
1.4658e-08
-6.74864e-08
-1.59378e-08
6.31119e-08
1.78919e-08
-6.15504e-08
-1.94534e-08
5.64824e-08
1.99055e-08
-5.4747e-08
-2.1641e-08
4.92972e-08
2.08522e-08
-4.74817e-08
-2.26677e-08
4.19083e-08
2.09399e-08
-4.00875e-08
-2.27607e-08
3.45852e-08
2.04003e-08
-3.28131e-08
-2.21725e-08
2.75227e-08
1.9419e-08
-2.58365e-08
-2.11052e-08
2.08446e-08
1.81824e-08
-1.92659e-08
-1.97611e-08
1.46262e-08
1.67964e-08
-1.31677e-08
-1.82548e-08
8.90465e-09
1.53733e-08
-7.56965e-09
-1.67083e-08
3.68441e-09
1.39312e-08
-2.47459e-09
-1.5141e-08
9.42297e-11
1.80172e-09
-1.70243e-09
-1.93521e-10
5.35428e-10
-2.16145e-09
-6.69553e-10
2.29558e-09
1.18921e-09
-3.47293e-09
-1.4051e-09
3.68882e-09
2.24823e-09
-5.57382e-09
-2.59528e-09
5.92087e-09
3.92174e-09
-8.55069e-09
-4.4552e-09
9.08415e-09
6.43938e-09
-1.24243e-08
-7.2166e-09
1.32015e-08
1.00274e-08
-1.70747e-08
-1.10996e-08
1.81468e-08
1.48693e-08
-2.21827e-08
-1.62693e-08
2.35827e-08
2.10543e-08
-2.7206e-08
-2.27832e-08
2.89349e-08
2.85205e-08
-3.1385e-08
-3.05329e-08
3.33973e-08
3.70042e-08
-3.39142e-08
-3.92022e-08
3.61122e-08
4.60276e-08
-3.40857e-08
-4.82632e-08
3.63213e-08
5.49387e-08
-3.15725e-08
-5.70356e-08
3.36693e-08
6.30168e-08
-2.65093e-08
-6.48013e-08
2.82939e-08
6.95984e-08
-1.94205e-08
-7.09292e-08
2.07513e-08
7.41832e-08
-1.10591e-08
-7.49695e-08
1.18454e-08
7.64903e-08
-2.25365e-09
-7.6698e-08
2.4613e-09
7.64631e-08
6.21704e-09
-7.61101e-08
-6.57007e-09
7.42428e-08
1.37026e-08
-7.33895e-08
-1.45559e-08
7.01246e-08
1.97535e-08
-6.88616e-08
-2.10165e-08
6.45082e-08
2.41419e-08
-6.29439e-08
-2.57063e-08
5.78408e-08
2.68744e-08
-5.6086e-08
-2.86292e-08
5.05579e-08
2.81576e-08
-4.87115e-08
-3.0004e-08
4.30317e-08
2.82763e-08
-4.11731e-08
-3.0135e-08
3.55484e-08
2.75479e-08
-3.37345e-08
-2.93618e-08
2.83135e-08
2.62249e-08
-2.65839e-08
-2.79546e-08
2.14583e-08
2.45585e-08
-1.98359e-08
-2.61808e-08
1.50639e-08
2.269e-08
-1.35629e-08
-2.4191e-08
9.17296e-09
2.07699e-08
-7.79763e-09
-2.21452e-08
3.79397e-09
1.88224e-08
-2.54706e-09
-2.00693e-08
9.2998e-11
2.19638e-09
-2.09812e-09
-1.91259e-10
5.29301e-10
-2.69571e-09
-6.61844e-10
2.82825e-09
1.17546e-09
-4.33295e-09
-1.38887e-09
4.54636e-09
2.22235e-09
-6.95641e-09
-2.56546e-09
7.29953e-09
3.8771e-09
-1.06762e-08
-4.40471e-09
1.12038e-08
6.3678e-09
-1.55219e-08
-7.13705e-09
1.62911e-08
9.92059e-09
-2.13493e-08
-1.0983e-08
2.24116e-08
1.47217e-08
-2.77683e-08
-1.61115e-08
2.91581e-08
2.08681e-08
-3.4111e-08
-2.25894e-08
3.58323e-08
2.83121e-08
-3.94337e-08
-3.03237e-08
4.14454e-08
3.68095e-08
-4.27225e-08
-3.90187e-08
4.49317e-08
4.59017e-08
-4.3067e-08
-4.81643e-08
4.53296e-08
5.49486e-08
-4.00231e-08
-5.70895e-08
4.21639e-08
6.32298e-08
-3.37325e-08
-6.50737e-08
3.55765e-08
7.00714e-08
-2.4845e-08
-7.14731e-08
2.62467e-08
7.49547e-08
-1.43139e-08
-7.58178e-08
1.51769e-08
7.75736e-08
-3.19169e-09
-7.78566e-08
3.47463e-09
7.78401e-08
7.53571e-09
-7.75529e-08
-7.82296e-09
7.58604e-08
1.70489e-08
-7.50545e-08
-1.78549e-08
7.18977e-08
2.47737e-08
-7.06573e-08
-2.60141e-08
6.63324e-08
3.04048e-08
-6.47645e-08
-3.19727e-08
5.96148e-08
3.39303e-08
-5.78344e-08
-3.57107e-08
5.22026e-08
3.56015e-08
-5.03154e-08
-3.74886e-08
4.44964e-08
3.57816e-08
-4.25884e-08
-3.76896e-08
3.68054e-08
3.48807e-08
-3.49377e-08
-3.67484e-08
2.93487e-08
3.32237e-08
-2.75631e-08
-3.50093e-08
2.2265e-08
3.11291e-08
-2.05859e-08
-3.28081e-08
1.56415e-08
2.87739e-08
-1.40847e-08
-3.03308e-08
9.52749e-09
2.6347e-08
-8.09888e-09
-2.77757e-08
3.93828e-09
2.38799e-08
-2.64215e-09
-2.51761e-08
9.14722e-11
2.5864e-09
-2.48937e-09
-1.88501e-10
5.21929e-10
-3.22313e-09
-6.52569e-10
3.35377e-09
1.15892e-09
-5.18223e-09
-1.36933e-09
5.39264e-09
2.19121e-09
-8.32198e-09
-2.52958e-09
8.66035e-09
3.82334e-09
-1.27765e-08
-4.3439e-09
1.3297e-08
6.28152e-09
-1.85849e-08
-7.04114e-09
1.93446e-08
9.79166e-09
-2.55816e-08
-1.08422e-08
2.66321e-08
1.45431e-08
-3.33097e-08
-1.59206e-08
3.46871e-08
2.06423e-08
-4.09823e-08
-2.23541e-08
4.26941e-08
2.80585e-08
-4.74785e-08
-3.00689e-08
4.94889e-08
3.65712e-08
-5.15786e-08
-3.87938e-08
5.38011e-08
4.57463e-08
-5.21649e-08
-4.80418e-08
5.44604e-08
5.49589e-08
-4.86645e-08
-5.71538e-08
5.08594e-08
6.34893e-08
-4.12136e-08
-6.54063e-08
4.31306e-08
7.06511e-08
-3.05777e-08
-7.21402e-08
3.20668e-08
7.59028e-08
-1.79026e-08
-7.68607e-08
1.88605e-08
7.89077e-08
-4.45835e-09
-7.92844e-08
4.83507e-09
7.95409e-08
8.5665e-09
-7.93361e-08
-8.77126e-09
7.78662e-08
2.01863e-08
-7.7121e-08
-2.09315e-08
7.41052e-08
2.96928e-08
-7.2895e-08
-3.0903e-08
6.86106e-08
3.66818e-08
-6.70392e-08
-3.82531e-08
6.18325e-08
4.10982e-08
-6.00198e-08
-4.29109e-08
5.42569e-08
4.32237e-08
-5.23183e-08
-4.51622e-08
4.63246e-08
4.35018e-08
-4.43553e-08
-4.54711e-08
3.8377e-08
4.24462e-08
-3.64435e-08
-4.43797e-08
3.06495e-08
4.04646e-08
-2.87957e-08
-4.23184e-08
2.32861e-08
3.79461e-08
-2.1537e-08
-3.96952e-08
1.63778e-08
3.51021e-08
-1.47506e-08
-3.67292e-08
9.98146e-09
3.21588e-08
-8.48463e-09
-3.36557e-08
4.12224e-09
2.91547e-08
-2.76265e-09
-3.05143e-08
8.96756e-11
2.97115e-09
-2.87549e-09
-1.85334e-10
5.13147e-10
-3.74238e-09
-6.41517e-10
3.87075e-09
1.1392e-09
-6.01869e-09
-1.34605e-09
6.22553e-09
2.1541e-09
-9.66719e-09
-2.4868e-09
9.99989e-09
3.7592e-09
-1.48464e-08
-4.27133e-09
1.53585e-08
6.17845e-09
-2.16066e-08
-6.92652e-09
2.23547e-08
9.63727e-09
-2.97629e-08
-1.06735e-08
3.07992e-08
1.43286e-08
-3.87973e-08
-1.56909e-08
4.01596e-08
2.03693e-08
-4.78118e-08
-2.20689e-08
4.95115e-08
2.77484e-08
-5.55162e-08
-2.97562e-08
5.7524e-08
3.62739e-08
-6.04897e-08
-3.85108e-08
6.27265e-08
4.55411e-08
-6.14015e-08
-4.78741e-08
6.37345e-08
5.49446e-08
-5.75354e-08
-5.72024e-08
5.97932e-08
6.37667e-08
-4.90064e-08
-6.57697e-08
5.10094e-08
7.13061e-08
-3.6684e-08
-7.28987e-08
3.82766e-08
7.6995e-08
-2.18979e-08
-7.8066e-08
2.2969e-08
8.0462e-08
-6.12893e-09
-8.09518e-08
6.61879e-09
8.15398e-08
9.23927e-09
-8.14366e-08
-9.34243e-09
8.02444e-08
2.30568e-08
-7.95765e-08
-2.37248e-08
7.67446e-08
3.4476e-08
-7.55752e-08
-3.56454e-08
7.13512e-08
4.297e-08
-6.97784e-08
-4.45428e-08
6.45069e-08
4.84047e-08
-6.26555e-08
-5.02561e-08
5.67323e-08
5.10683e-08
-5.47307e-08
-5.30699e-08
4.85246e-08
5.14854e-08
-4.64815e-08
-5.35285e-08
4.0272e-08
5.02914e-08
-3.82618e-08
-5.23016e-08
3.22308e-08
4.79948e-08
-3.02982e-08
-4.99274e-08
2.45432e-08
4.50619e-08
-2.27119e-08
-4.68932e-08
1.72961e-08
4.17338e-08
-1.55835e-08
-4.34464e-08
1.05522e-08
3.8268e-08
-8.96997e-09
-3.98503e-08
4.3524e-09
3.47078e-08
-2.91209e-09
-3.61481e-08
8.75845e-11
3.35013e-09
-3.25596e-09
-1.81757e-10
5.03164e-10
-4.25211e-09
-6.2895e-10
4.3779e-09
1.11678e-09
-6.84019e-09
-1.31958e-09
7.04299e-09
2.11187e-09
-1.09886e-08
-2.43813e-09
1.13149e-08
3.68621e-09
-1.68809e-08
-4.18872e-09
1.73834e-08
6.06104e-09
-2.45797e-08
-6.79592e-09
2.53146e-08
9.46118e-09
-3.38842e-08
-1.04811e-08
3.49041e-08
1.40833e-08
-4.4221e-08
-1.54281e-08
4.55657e-08
2.0056e-08
-5.459e-08
-2.17414e-08
5.62754e-08
2.73908e-08
-6.35422e-08
-2.93948e-08
6.55462e-08
3.59281e-08
-6.94607e-08
-3.81806e-08
7.17132e-08
4.52981e-08
-7.07962e-08
-4.76737e-08
7.31718e-08
5.49196e-08
-6.66724e-08
-5.72496e-08
6.90024e-08
6.40776e-08
-5.71637e-08
-6.61801e-08
5.92661e-08
7.20544e-08
-4.32297e-08
-7.37673e-08
4.49425e-08
7.82523e-08
-2.63745e-08
-7.94556e-08
2.75778e-08
8.22613e-08
-8.28233e-09
-8.28848e-08
8.90579e-09
8.38688e-08
9.47464e-09
-8.38884e-08
-9.45497e-09
8.30369e-08
2.55898e-08
-8.24661e-08
-2.61607e-08
7.98712e-08
3.90767e-08
-7.87567e-08
-4.01912e-08
7.4621e-08
4.92601e-08
-7.30502e-08
-5.08309e-08
6.77062e-08
5.58784e-08
-6.58077e-08
-5.77769e-08
5.96866e-08
5.9187e-08
-5.76067e-08
-6.12668e-08
5.11395e-08
5.97862e-08
-4.90074e-08
-6.19182e-08
4.25264e-08
5.84608e-08
-4.04285e-08
-6.05586e-08
3.41333e-08
5.58534e-08
-3.21142e-08
-5.78725e-08
2.60881e-08
5.25237e-08
-2.41644e-08
-5.44475e-08
1.84513e-08
4.87325e-08
-1.66365e-08
-5.05473e-08
1.12819e-08
4.47514e-08
-9.59153e-09
-4.64418e-08
4.64548e-09
4.06177e-08
-3.10013e-09
-4.21631e-08
8.51809e-11
3.72297e-09
-3.63035e-09
-1.77793e-10
4.92e-10
-4.75102e-09
-6.14892e-10
4.87391e-09
1.0917e-09
-7.64472e-09
-1.28997e-09
7.84298e-09
2.06463e-09
-1.22831e-08
-2.38367e-09
1.26021e-08
3.60449e-09
-1.88751e-08
-4.09622e-09
1.93669e-08
5.92947e-09
-2.74975e-08
-6.64952e-09
2.82175e-08
9.26356e-09
-3.79367e-08
-1.0265e-08
3.89381e-08
1.38074e-08
-4.95706e-08
-1.51321e-08
5.08953e-08
1.97021e-08
-6.13074e-08
-2.13709e-08
6.29762e-08
2.69841e-08
-7.1551e-08
-2.8983e-08
7.35499e-08
3.55304e-08
-7.84955e-08
-3.77995e-08
8.07647e-08
4.50122e-08
-8.03678e-08
-4.74349e-08
8.27905e-08
5.48768e-08
-7.61116e-08
-5.7288e-08
7.85229e-08
6.44139e-08
-6.57382e-08
-6.6629e-08
6.79532e-08
7.28876e-08
-5.02812e-08
-7.47375e-08
5.21311e-08
7.96675e-08
-3.14092e-08
-8.10227e-08
3.27644e-08
8.43019e-08
-1.10023e-08
-8.50808e-08
1.17812e-08
8.65303e-08
9.18445e-09
-8.66962e-08
-9.01855e-09
8.62593e-08
2.76999e-08
-8.58095e-08
-2.81497e-08
8.35202e-08
4.34304e-08
-8.24799e-08
-4.44706e-08
7.84747e-08
5.5533e-08
-7.69125e-08
-5.70952e-08
7.1491e-08
6.3554e-08
-6.95359e-08
-6.55092e-08
6.31674e-08
6.76469e-08
-6.09887e-08
-6.98255e-08
5.4195e-08
6.84702e-08
-5.19541e-08
-7.07112e-08
4.51538e-08
6.69953e-08
-4.29584e-08
-6.91907e-08
3.63856e-08
6.40614e-08
-3.42798e-08
-6.61672e-08
2.79843e-08
6.03618e-08
-2.59664e-08
-6.23797e-08
1.99323e-08
5.61644e-08
-1.79995e-08
-5.80972e-08
1.2248e-08
5.17105e-08
-1.0418e-08
-5.35405e-08
5.03347e-09
4.69985e-08
-3.34499e-09
-4.8687e-08
8.24441e-11
4.08947e-09
-3.99845e-09
-1.73472e-10
4.79507e-10
-5.23781e-09
-5.99156e-10
5.35746e-09
1.06363e-09
-8.43029e-09
-1.25682e-09
8.62348e-09
2.01175e-09
-1.35473e-08
-2.3227e-09
1.38583e-08
3.51293e-09
-2.08242e-08
-3.99255e-09
2.13039e-08
5.78187e-09
-3.03531e-08
-6.48521e-09
3.10564e-08
9.04135e-09
-4.19115e-08
-1.00218e-08
4.28919e-08
1.34959e-08
-5.48357e-08
-1.47977e-08
5.61374e-08
1.93001e-08
-6.79537e-08
-2.09491e-08
6.96028e-08
2.6517e-08
-7.95358e-08
-2.85082e-08
8.1527e-08
3.50647e-08
-8.75961e-08
-3.73499e-08
8.98813e-08
4.46611e-08
-9.01327e-08
-4.7134e-08
9.26057e-08
5.47882e-08
-8.58874e-08
-5.72884e-08
8.83876e-08
6.47427e-08
-7.47817e-08
-6.70826e-08
7.71217e-08
7.37691e-08
-5.79053e-08
-7.57723e-08
5.99085e-08
8.12022e-08
-3.7081e-08
-8.2729e-08
3.86078e-08
8.65465e-08
-1.43777e-08
-8.75036e-08
1.53348e-08
8.94924e-08
8.27077e-09
-8.98306e-08
-7.93259e-09
8.98929e-08
2.92836e-08
-8.95934e-08
-2.95831e-08
8.76995e-08
4.74489e-08
-8.67609e-08
-4.83876e-08
8.29517e-08
6.17545e-08
-8.1411e-08
-6.32952e-08
7.59162e-08
7.14718e-08
-7.38936e-08
-7.34944e-08
6.72134e-08
7.65414e-08
-6.49072e-08
-7.88476e-08
5.76916e-08
7.76295e-08
-5.53124e-08
-8.00087e-08
4.81268e-08
7.59349e-08
-4.58231e-08
-7.82387e-08
3.89816e-08
7.2599e-08
-3.68048e-08
-7.47758e-08
3.03089e-08
6.8554e-08
-2.82195e-08
-7.06434e-08
2.19011e-08
6.40816e-08
-1.98454e-08
-6.61372e-08
1.36168e-08
5.92917e-08
-1.16002e-08
-6.13083e-08
5.58965e-09
5.4041e-08
-3.68859e-09
-5.5942e-08
7.93529e-11
4.4497e-09
-4.36023e-09
-1.68825e-10
4.65894e-10
-5.71121e-09
-5.82e-10
5.82732e-09
1.03303e-09
-9.19493e-09
-1.22069e-09
9.38259e-09
1.95409e-09
-1.47782e-08
-2.25621e-09
1.50803e-08
3.41303e-09
-2.27233e-08
-3.87942e-09
2.31897e-08
5.62066e-09
-3.31396e-08
-6.30568e-09
3.38246e-08
8.79822e-09
-4.57994e-08
-9.75557e-09
4.67568e-08
1.31542e-08
-6.00052e-08
-1.44303e-08
6.12813e-08
1.88567e-08
-7.45171e-08
-2.04831e-08
7.61436e-08
2.59977e-08
-8.7487e-08
-2.79791e-08
8.94684e-08
3.454e-08
-9.6761e-08
-3.68409e-08
9.90619e-08
4.42546e-08
-1.00104e-07
-4.6781e-08
1.02631e-07
5.46645e-08
-9.60315e-08
-5.72617e-08
9.86286e-08
6.50762e-08
-8.43444e-08
-6.75538e-08
8.68219e-08
7.47135e-08
-6.61684e-08
-7.68868e-08
6.83418e-08
8.28739e-08
-4.34703e-08
-8.45928e-08
4.51892e-08
8.90166e-08
-1.85016e-08
-9.01757e-08
1.96607e-08
9.27827e-08
6.62677e-09
-9.33211e-08
-6.08838e-09
9.39782e-08
3.02157e-08
-9.38638e-08
-3.033e-08
9.24798e-08
5.10086e-08
-9.16805e-08
-5.1808e-08
8.81663e-08
6.78613e-08
-8.6669e-08
-6.93586e-08
8.11184e-08
7.96783e-08
-7.90159e-08
-8.17809e-08
7.19322e-08
8.6007e-08
-6.94545e-08
-8.84847e-08
6.16618e-08
8.74103e-08
-5.9093e-08
-8.99791e-08
5.13951e-08
8.5336e-08
-4.896e-08
-8.77711e-08
4.18677e-08
8.1371e-08
-3.96588e-08
-8.35799e-08
3.31678e-08
7.69367e-08
-3.10898e-08
-7.90147e-08
2.47051e-08
7.24574e-08
-2.25652e-08
-7.45973e-08
1.58105e-08
6.77224e-08
-1.35317e-08
-7.00012e-08
6.51591e-09
6.21236e-08
-4.24807e-09
-6.43915e-08
7.58777e-11
4.8039e-09
-4.7159e-09
-1.63879e-10
4.51134e-10
-6.16999e-09
-5.63391e-10
6.28225e-09
9.99838e-10
-9.93676e-09
-1.1815e-09
1.01184e-08
1.89154e-09
-1.59726e-08
-2.18408e-09
1.62651e-08
3.30459e-09
-2.45677e-08
-3.75657e-09
2.50197e-08
5.44543e-09
-3.58504e-08
-6.11047e-09
3.65154e-08
8.53343e-09
-4.95917e-08
-9.46542e-09
5.05237e-08
1.27806e-08
-6.50682e-08
-1.40283e-08
6.63158e-08
1.83693e-08
-8.09856e-08
-1.99699e-08
8.25862e-08
2.54213e-08
-9.53946e-08
-2.73897e-08
9.7363e-08
3.39479e-08
-1.05987e-07
-3.62631e-08
1.08302e-07
4.37799e-08
-1.10293e-07
-4.6362e-08
1.12875e-07
5.44889e-08
-1.06575e-07
-5.71901e-08
1.09276e-07
6.53944e-08
-9.44761e-08
-6.80217e-08
9.71033e-08
7.56984e-08
-7.51374e-08
-7.80586e-08
7.74975e-08
8.46598e-08
-5.06594e-08
-8.65916e-08
5.25912e-08
9.16908e-08
-2.34704e-08
-9.30764e-08
2.4856e-08
9.63827e-08
4.1376e-09
-9.71508e-08
-3.36946e-09
9.85066e-08
3.03479e-08
-9.86179e-08
-3.02366e-08
9.78899e-08
5.39372e-08
-9.72829e-08
-5.45442e-08
9.42168e-08
7.37428e-08
-9.28022e-08
-7.51575e-08
8.72479e-08
8.82225e-08
-8.50546e-08
-9.04158e-08
7.74452e-08
9.6249e-08
-7.47308e-08
-9.89633e-08
6.61151e-08
9.80683e-08
-6.32678e-08
-1.00916e-07
5.47973e-08
9.53413e-08
-5.21636e-08
-9.79749e-08
4.47665e-08
9.01866e-08
-4.25817e-08
-9.23714e-08
3.65467e-08
8.49969e-08
-3.47077e-08
-8.68359e-08
2.90181e-08
8.09503e-08
-2.7002e-08
-8.29664e-08
1.99626e-08
7.73511e-08
-1.73248e-08
-7.99888e-08
8.44309e-09
7.21593e-08
-5.39222e-09
-7.52102e-08
7.19937e-11
5.15257e-09
-5.06588e-09
-1.5868e-10
4.35263e-10
-6.61291e-09
-5.43371e-10
6.72102e-09
9.64142e-10
-1.06539e-08
-1.13936e-09
1.08291e-08
1.82427e-09
-1.71275e-08
-2.10648e-09
1.74097e-08
3.18784e-09
-2.63527e-08
-3.62429e-09
2.67892e-08
5.25656e-09
-3.84787e-08
-5.89996e-09
3.91221e-08
8.2474e-09
-5.32791e-08
-9.15178e-09
5.41835e-08
1.23756e-08
-7.00127e-08
-1.35919e-08
7.1229e-08
1.78376e-08
-8.73455e-08
-1.94089e-08
8.89168e-08
2.4786e-08
-1.03245e-07
-2.6738e-08
1.05197e-07
3.3284e-08
-1.15267e-07
-3.56113e-08
1.17594e-07
4.32291e-08
-1.20707e-07
-4.58681e-08
1.23346e-07
5.42499e-08
-1.17544e-07
-5.70616e-08
1.20355e-07
6.56835e-08
-1.05224e-07
-6.84721e-08
1.08012e-07
7.67088e-08
-8.48776e-08
-7.9272e-08
8.74407e-08
8.65442e-08
-5.87312e-08
-8.87097e-08
6.08968e-08
9.45546e-08
-2.93824e-08
-9.61916e-08
3.10194e-08
1.00279e-07
6.85655e-10
-1.01306e-07
3.41287e-10
1.03468e-07
2.95115e-08
-1.03849e-07
-2.91299e-08
1.03957e-07
5.59938e-08
-1.03615e-07
-5.63353e-08
1.01235e-07
7.92019e-08
-9.99721e-08
-8.04647e-08
9.45364e-08
9.7137e-08
-9.22504e-08
-9.9423e-08
8.39591e-08
1.07568e-07
-8.09137e-08
-1.10613e-07
7.11068e-08
1.10035e-07
-6.784e-08
-1.13302e-07
5.80868e-08
1.06365e-07
-5.5068e-08
-1.09384e-07
4.6917e-08
9.88826e-08
-4.47279e-08
-1.01072e-07
3.97932e-08
9.14504e-08
-3.8692e-08
-9.25517e-08
3.58838e-08
8.80645e-08
-3.47722e-08
-8.91762e-08
2.9321e-08
8.83693e-08
-2.65278e-08
-9.11625e-08
1.38696e-08
8.68675e-08
-8.66006e-09
-9.2077e-08
6.76424e-11
5.49641e-09
-5.41084e-09
-1.53208e-10
4.18321e-10
-7.03878e-09
-5.21987e-10
7.14245e-09
9.26025e-10
-1.13446e-08
-1.09436e-09
1.15129e-08
1.75243e-09
-1.824e-08
-2.0236e-09
1.85112e-08
3.06306e-09
-2.8074e-08
-3.48286e-09
2.84938e-08
5.05441e-09
-4.1018e-08
-5.67456e-09
4.16381e-08
7.94059e-09
-5.68526e-08
-8.81509e-09
5.77271e-08
1.19396e-08
-7.48272e-08
-1.31214e-08
7.6009e-08
1.72613e-08
-9.35824e-08
-1.87996e-08
9.51207e-08
2.40903e-08
-1.11024e-07
-2.60217e-08
1.12955e-07
3.25437e-08
-1.24591e-07
-3.488e-08
1.26927e-07
4.25934e-08
-1.31349e-07
-4.52897e-08
1.34046e-07
5.39351e-08
-1.28963e-07
-5.68629e-08
1.31891e-07
6.59283e-08
-1.16634e-07
-6.88894e-08
1.19595e-07
7.77276e-08
-9.5454e-08
-8.05097e-08
9.82361e-08
8.8509e-08
-6.77694e-08
-9.09293e-08
7.01897e-08
9.75912e-08
-3.63382e-08
-9.95052e-08
3.82521e-08
1.04455e-07
-3.84376e-09
-1.05768e-07
5.15718e-09
1.08833e-07
2.75277e-08
-1.09528e-07
-2.68326e-08
1.1068e-07
5.68491e-08
-1.10703e-07
-5.68266e-08
1.09373e-07
8.3893e-08
-1.08383e-07
-8.48832e-08
1.03329e-07
1.06398e-07
-1.00975e-07
-1.08752e-07
9.18069e-08
1.20405e-07
-8.82851e-08
-1.23927e-07
7.6769e-08
1.23939e-07
-7.29076e-08
-1.27801e-07
6.10472e-08
1.19491e-07
-5.71869e-08
-1.23351e-07
4.63301e-08
1.08201e-07
-4.34515e-08
-1.11079e-07
3.84945e-08
9.40944e-08
-3.84354e-08
-9.41535e-08
4.2472e-08
8.88709e-08
-4.44898e-08
-8.68531e-08
5.09185e-08
9.68454e-08
-5.16814e-08
-9.60824e-08
3.19514e-08
1.14946e-07
-2.05463e-08
-1.26348e-07
6.27694e-11
5.83645e-09
-5.75173e-09
-1.47486e-10
4.00397e-10
-7.44646e-09
-4.99346e-10
7.5454e-09
8.85687e-10
-1.20072e-08
-1.04675e-09
1.21682e-08
1.6764e-09
-1.93073e-08
-1.93587e-09
1.95668e-08
2.93087e-09
-2.9727e-08
-3.333e-09
3.01291e-08
4.83999e-09
-4.34619e-08
-5.43536e-09
4.40573e-08
7.61442e-09
-6.03032e-08
-8.45691e-09
6.11457e-08
1.14743e-08
-7.94994e-08
-1.26187e-08
8.06438e-08
1.66425e-08
-9.96811e-08
-1.81438e-08
1.01182e-07
2.33351e-08
-1.18714e-07
-2.52415e-08
1.2062e-07
3.17261e-08
-1.33945e-07
-3.40673e-08
1.36286e-07
4.18685e-08
-1.4222e-07
-4.46214e-08
1.44972e-07
5.35369e-08
-1.40855e-07
-5.65862e-08
1.43904e-07
6.61201e-08
-1.2875e-07
-6.92647e-08
1.31895e-07
7.87453e-08
-1.0693e-07
-8.17622e-08
1.09947e-07
9.05448e-08
-7.78576e-08
-9.32409e-08
8.05537e-08
1.00793e-07
-4.44399e-08
-1.0301e-07
4.66567e-08
1.08901e-07
-9.55624e-09
-1.10525e-07
1.11801e-08
1.14567e-07
2.42345e-08
-1.15609e-07
-2.31929e-08
1.18013e-07
5.60683e-08
-1.18525e-07
-5.55567e-08
1.188e-07
8.72172e-08
-1.18289e-07
-8.77278e-08
1.14146e-07
1.15823e-07
-1.11811e-07
-1.18158e-07
1.01399e-07
1.35553e-07
-9.70268e-08
-1.39926e-07
8.25975e-08
1.40529e-07
-7.78977e-08
-1.45229e-07
6.24771e-08
1.37445e-07
-5.65545e-08
-1.43368e-07
3.57179e-08
1.24383e-07
-2.85082e-08
-1.31593e-07
8.19553e-09
9.75533e-08
-3.34833e-09
-1.024e-07
3.31803e-09
7.04769e-08
-1.24842e-08
-6.12819e-08
5.83662e-08
6.9972e-08
-7.71489e-08
-5.03787e-08
5.62676e-08
1.93077e-07
-3.00047e-08
-2.21447e-07
5.73262e-11
6.17405e-09
-6.08978e-09
-1.41594e-10
3.81435e-10
-7.83479e-09
-4.75375e-10
7.92873e-09
8.43009e-10
-1.26399e-08
-9.96379e-10
1.27933e-08
1.59597e-09
-2.03267e-08
-1.84303e-09
2.05738e-08
2.79087e-09
-3.13075e-08
-3.17423e-09
3.16909e-08
4.61255e-09
-4.58041e-08
-5.18152e-09
4.6373e-08
7.26761e-09
-6.3622e-08
-8.07573e-09
6.44301e-08
1.09774e-08
-8.40167e-08
-1.20812e-08
8.51205e-08
1.5977e-08
-1.05625e-07
-1.74368e-08
1.07085e-07
2.25132e-08
-1.26294e-07
-2.4389e-08
1.2817e-07
3.08184e-08
-1.4331e-07
-3.31591e-08
1.45651e-07
4.10343e-08
-1.53312e-07
-4.38411e-08
1.56119e-07
5.30276e-08
-1.53237e-07
-5.62017e-08
1.56411e-07
6.62247e-08
-1.41614e-07
-6.95624e-08
1.44952e-07
7.97224e-08
-1.19365e-07
-8.29885e-08
1.22632e-07
9.26063e-08
-8.90787e-08
-9.55984e-08
9.20709e-08
1.04114e-07
-5.37926e-08
-1.06661e-07
5.63394e-08
1.13574e-07
-1.65415e-08
-1.15528e-07
1.84962e-08
1.20573e-07
1.95387e-08
-1.21963e-07
-1.81482e-08
1.25751e-07
5.31216e-08
-1.26891e-07
-5.19817e-08
1.29592e-07
8.81625e-08
-1.29898e-07
-8.78571e-08
1.27375e-07
1.25071e-07
-1.24983e-07
-1.27462e-07
1.10806e-07
1.55862e-07
-1.04152e-07
-1.62515e-07
8.51345e-08
1.6055e-07
-8.02991e-08
-1.65386e-07
6.45915e-08
1.64987e-07
-5.77678e-08
-1.71811e-07
3.20917e-08
1.6158e-07
-2.35659e-08
-1.70106e-07
-4.18337e-09
1.32954e-07
1.03683e-08
-1.39135e-07
-3.44549e-08
5.20233e-08
4.96931e-08
-6.72543e-08
-1.13582e-07
6.5914e-09
1.27332e-07
-2.04037e-08
-1.17342e-07
2.51864e-07
7.53426e-08
-2.09743e-07
5.11952e-11
6.51103e-09
-6.42672e-09
-1.35502e-10
3.61488e-10
-8.20269e-09
-4.50133e-10
8.29133e-09
7.9811e-10
-1.32414e-08
-9.43395e-10
1.33867e-08
1.51135e-09
-2.12956e-08
-1.74535e-09
2.15296e-08
2.64343e-09
-3.28115e-08
-3.00697e-09
3.31751e-08
4.37267e-09
-4.80384e-08
-4.91364e-09
4.85794e-08
6.90091e-09
-6.68001e-08
-7.67235e-09
6.75715e-08
1.04499e-08
-8.83666e-08
-1.15096e-08
8.94264e-08
1.52651e-08
-1.11397e-07
-1.66789e-08
1.1281e-07
2.16236e-08
-1.33744e-07
-2.34624e-08
1.35583e-07
2.98161e-08
-1.52664e-07
-3.21493e-08
1.54997e-07
4.00801e-08
-1.64615e-07
-4.29368e-08
1.67472e-07
5.23908e-08
-1.66124e-07
-5.56922e-08
1.69425e-07
6.62224e-08
-1.55265e-07
-6.97622e-08
1.58805e-07
8.06362e-08
-1.3282e-07
-8.4165e-08
1.36348e-07
9.46664e-08
-1.01514e-07
-9.79738e-08
1.04822e-07
1.07526e-07
-6.4509e-08
-1.10432e-07
6.74151e-08
1.18459e-07
-2.48799e-08
-1.20765e-07
2.71862e-08
1.26779e-07
1.35038e-08
-1.28466e-07
-1.18164e-08
1.33508e-07
4.74917e-08
-1.35365e-07
-4.56349e-08
1.41543e-07
8.52695e-08
-1.42969e-07
-8.38434e-08
1.39475e-07
1.3702e-07
-1.34491e-07
-1.42003e-07
1.1233e-07
1.84036e-07
-1.074e-07
-1.88966e-07
1.07582e-07
1.71423e-07
-1.09851e-07
-1.69149e-07
1.27394e-07
1.74257e-07
-1.31762e-07
-1.54943e-07
2.39332e-08
6.2119e-08
-4.78095e-10
-4.59884e-14
5.75013e-10
-2.40658e-10
-3.40233e-10
5.40936e-12
9.31244e-14
5.95271e-13
-5.43577e-13
-3.12542e-13
1.86366e-11
2.06594e-12
-7.07036e-12
-2.28429e-11
5.57951e-14
7.56714e-13
-8.10996e-13
-1.86129e-15
4.42846e-11
6.84984e-09
-6.76481e-09
-1.2931e-10
3.40692e-10
-8.54904e-09
-4.23784e-10
8.63214e-09
7.51296e-10
-1.381e-08
-8.88159e-10
1.39469e-08
1.42313e-09
-2.22114e-08
-1.6435e-09
2.24318e-08
2.48953e-09
-3.4235e-08
-2.83233e-09
3.45778e-08
4.12193e-09
-5.01588e-08
-4.6335e-09
5.06703e-08
6.51668e-09
-6.98286e-08
-7.24937e-09
7.05613e-08
9.89483e-09
-9.2536e-08
-1.09073e-08
9.35485e-08
1.4511e-08
-1.16977e-07
-1.5874e-08
1.1834e-07
2.06703e-08
-1.41037e-07
-2.24658e-08
1.42832e-07
2.87214e-08
-1.61977e-07
-3.10395e-08
1.64295e-07
3.90046e-08
-1.76112e-07
-4.19058e-08
1.79013e-07
5.16214e-08
-1.79524e-07
-5.50521e-08
1.82954e-07
6.61076e-08
-1.6974e-07
-6.98587e-08
1.73491e-07
8.14816e-08
-1.47345e-07
-8.5286e-08
1.51149e-07
9.67172e-08
-1.1524e-07
-1.00358e-07
1.18881e-07
1.11024e-07
-7.67125e-08
-1.14323e-07
8.00115e-08
1.23584e-07
-3.46705e-08
-1.26277e-07
3.73632e-08
1.33209e-07
6.44969e-09
-1.35066e-07
-4.59275e-09
1.40592e-07
3.91521e-08
-1.4293e-07
-3.68151e-08
1.52549e-07
7.86061e-08
-1.54344e-07
-7.68109e-08
1.39816e-07
1.65953e-07
-1.28315e-07
-1.7745e-07
1.06473e-07
1.84158e-07
-8.72833e-08
-7.39828e-08
1.19141e-14
1.24378e-13
-2.27518e-14
-1.33907e-13
8.00092e-15
2.13857e-14
-8.54616e-15
-2.10546e-14
1.00187e-13
1.32984e-13
-2.09276e-12
-1.23064e-12
2.52285e-13
-2.05484e-15
4.96649e-16
-6.16879e-13
3.83426e-16
1.42479e-15
4.97652e-16
-7.92027e-16
-8.11815e-15
4.75261e-14
1.22174e-14
-1.24924e-13
-1.72824e-14
4.9859e-14
4.7677e-15
-1.2573e-13
3.64578e-11
7.19361e-09
-7.107e-09
-1.23075e-10
3.19051e-10
-8.87277e-09
-3.96322e-10
8.95004e-09
7.02583e-10
-1.43445e-08
-8.30694e-10
1.44726e-08
1.33135e-09
-2.30718e-08
-1.53751e-09
2.32779e-08
2.32922e-09
-3.5574e-08
-2.65035e-09
3.58952e-08
3.86034e-09
-5.21593e-08
-4.34108e-09
5.26401e-08
6.11482e-09
-7.26988e-08
-6.80661e-09
7.33906e-08
9.31189e-09
-9.65115e-08
-1.02739e-08
9.74735e-08
1.37132e-08
-1.22348e-07
-1.50205e-08
1.23655e-07
1.96496e-08
-1.48145e-07
-2.13945e-08
1.4989e-07
2.75261e-08
-1.71216e-07
-2.98196e-08
1.73509e-07
3.77906e-08
-1.87775e-07
-4.07288e-08
1.90713e-07
5.06935e-08
-1.93442e-07
-5.42539e-08
1.97002e-07
6.58494e-08
-1.85072e-07
-6.98202e-08
1.89042e-07
8.22234e-08
-1.6299e-07
-8.63149e-08
1.67082e-07
9.8714e-08
-1.30323e-07
-1.02704e-07
1.34313e-07
1.14551e-07
-9.05407e-08
-1.18279e-07
9.42687e-08
1.28948e-07
-4.60962e-08