/*--------------------------------*- C++ -*----------------------------------*\
| =========                 |                                                 |
| \\      /  F ield         | OpenFOAM: The Open Source CFD Toolbox           |
|  \\    /   O peration     | Version:  2.4.0                                 |
|   \\  /    A nd           | Web:      www.OpenFOAM.org                      |
|    \\/     M anipulation  |                                                 |
\*---------------------------------------------------------------------------*/
FoamFile
{
    version     2.0;
    format      ascii;
    class       volScalarField;
    location    "0.252";
    object      alpha.water;
}
// * * * * * * * * * * * * * * * * * * * * * * * * * * * * * * * * * * * * * //

dimensions      [0 0 0 0 0 0 0];

internalField   nonuniform List<scalar> 
60000
(
1
1
1
1
1
1
1
1
1
1
1
1
1
1
1
1
1
1
1
1
1
1
1
1
1
1
1
1
1
1
1
1
1
1
1
1
1
1
1
1
1
1
1
1
1
1
1
1
1
1
1
1
1
1
1
1
1
1
1
1
1
1
1
1
1
1
1
1
1
1
1
1
1
1
1
1
1
1
1
1
1
1
1
1
1
1
1
1
1
1
1
1
1
1
1
1
1
1
1
1
1
1
1
1
1
1
1
1
1
1
1
1
1
1
1
1
1
1
1
1
1
1
1
1
1
1
1
1
1
1
1
1
1
1
1
1
1
1
1
1
1
1
1
1
1
1
1
1
1
1
1
1
1
1
1
1
1
1
1
1
1
1
1
1
1
1
1
1
1
1
1
1
1
1
1
1
1
1
1
1
1
1
1
1
1
1
1
1
1
1
1
1
1
1
1
1
1
1
1
1
1
1
1
1
1
1
1
1
1
1
1
1
1
1
1
1
1
1
1
1
1
1
1
1
1
1
1
1
1
1
1
1
1
1
1
1
1
1
1
1
1
1
1
1
1
1
1
1
1
1
1
1
1
1
1
1
1
1
1
1
1
1
1
1
1
1
1
1
1
1
1
1
1
1
1
1
1
1
1
1
1
1
1
1
1
1
1
1
1
1
1
1
1
1
1
1
1
1
1
1
1
1
1
1
1
1
1
1
1
1
1
1
1
1
1
1
1
1
1
1
1
1
1
1
1
1
1
1
1
1
1
1
1
1
1
1
1
1
1
1
1
1
1
1
1
1
1
1
1
1
1
1
1
1
1
1
1
1
1
1
1
1
1
1
1
1
1
1
1
1
1
1
1
1
1
1
1
1
1
1
1
1
1
1
1
1
1
1
1
1
1
1
1
1
1
1
1
1
1
1
1
1
1
1
1
1
1
1
1
1
1
1
1
1
1
1
1
1
1
1
1
1
1
1
1
1
1
1
1
1
1
1
1
1
1
1
1
1
1
1
1
1
1
1
1
1
1
1
1
1
1
1
1
1
1
1
1
1
1
1
1
1
1
1
1
1
1
1
1
1
1
1
1
1
1
1
1
1
1
1
1
1
1
1
1
1
1
1
1
1
1
1
1
1
1
1
1
1
1
1
1
1
1
1
1
1
1
1
1
1
1
1
1
1
1
1
1
1
1
1
1
1
1
1
1
1
1
1
1
1
1
1
1
1
1
1
1
1
1
1
1
1
1
1
1
1
1
1
1
1
1
1
1
1
1
1
1
1
1
1
1
1
1
1
1
1
1
1
1
1
1
1
1
1
1
1
1
1
1
1
1
1
1
1
1
1
1
1
1
1
1
1
1
1
1
1
1
1
1
1
1
1
1
1
1
1
1
1
1
1
1
1
1
1
1
1
1
1
1
1
1
1
1
1
1
1
1
1
1
1
1
1
1
1
1
1
1
1
1
1
1
1
1
1
1
1
1
1
1
1
1
1
1
1
1
1
1
1
1
1
1
1
1
1
1
1
1
1
1
1
1
1
1
1
1
1
1
1
1
1
1
1
1
1
1
1
1
1
1
1
1
1
1
1
1
1
1
1
1
1
1
1
1
1
1
1
1
1
1
1
1
1
1
1
1
1
1
1
1
1
1
1
1
1
1
1
1
1
1
1
1
1
1
1
1
1
1
1
1
1
1
1
1
1
1
1
1
1
1
1
1
1
1
1
1
1
1
1
1
1
1
1
1
1
1
1
1
1
1
1
1
1
1
1
1
1
1
1
1
1
1
1
1
1
1
1
1
1
1
1
1
1
1
1
1
1
1
1
1
1
1
1
1
1
1
1
1
1
1
1
1
1
1
1
1
1
1
1
1
1
1
1
1
1
1
1
1
1
1
1
1
1
1
1
1
1
1
1
1
1
1
1
1
1
1
1
1
1
1
1
1
1
1
1
1
1
1
1
1
1
1
1
1
1
1
1
1
1
1
1
1
1
1
1
1
1
1
1
1
1
1
1
1
1
1
1
1
1
1
1
1
1
1
1
1
1
1
1
1
1
1
1
1
1
1
1
1
1
1
1
1
1
1
1
1
1
1
1
1
1
1
1
1
1
1
1
1
1
1
1
1
1
1
1
1
1
1
1
1
1
1
1
1
1
1
1
1
1
1
1
1
1
1
1
1
1
1
1
1
1
1
1
1
1
1
1
1
1
1
1
1
1
1
1
1
1
1
1
1
1
1
1
1
1
1
1
1
1
1
1
1
1
1
1
1
1
1
1
1
1
1
1
1
1
1
1
1
1
1
1
1
1
1
1
1
1
1
1
1
1
1
1
1
1
1
1
1
1
1
1
1
1
1
1
1
1
1
1
1
1
1
1
1
1
1
1
1
1
1
1
1
1
1
1
1
1
1
1
1
1
1
1
1
1
1
1
1
1
1
1
1
1
1
1
1
1
1
1
1
1
1
1
1
1
1
1
1
1
1
1
1
1
1
1
1
1
1
1
1
1
1
1
1
1
1
1
1
1
1
1
1
1
1
1
1
1
1
1
1
1
1
1
1
1
1
1
1
1
1
1
1
1
1
1
1
1
1
1
1
1
1
1
1
1
1
1
1
1
1
1
1
1
1
1
1
1
1
1
1
1
1
1
1
1
1
1
1
1
1
1
1
1
1
1
1
1
1
1
1
1
1
1
1
1
1
1
1
1
1
1
1
1
1
1
1
1
1
1
1
1
1
1
1
1
1
1
1
1
1
1
1
1
1
1
1
1
1
1
1
1
1
1
1
1
1
1
1
1
1
1
1
1
1
1
1
1
1
1
1
1
1
1
1
1
1
1
1
1
1
1
1
1
1
1
1
1
1
1
1
1
1
1
1
1
1
1
1
1
1
1
1
1
1
1
1
1
1
1
1
1
1
1
1
1
1
1
1
1
1
1
1
1
1
1
1
1
1
1
1
1
1
1
1
1
1
1
1
1
1
1
1
1
1
1
1
1
1
1
1
1
1
1
1
1
1
1
1
1
1
1
1
1
1
1
1
1
1
1
1
1
1
1
1
1
1
1
1
1
1
1
1
1
1
1
1
1
1
1
1
1
1
1
1
1
1
1
1
1
1
1
1
1
1
1
1
1
1
1
1
1
1
1
1
1
1
1
1
1
1
1
1
1
1
1
1
1
1
1
1
1
1
1
1
1
1
1
1
1
1
1
1
1
1
1
1
1
1
1
1
1
1
1
1
1
1
1
1
1
1
1
1
1
1
1
1
1
1
1
1
1
1
1
1
1
1
1
1
1
1
1
1
1
1
1
1
1
1
1
1
1
1
1
1
1
1
1
1
1
1
1
1
1
1
1
1
1
1
1
1
1
1
1
1
1
1
1
1
1
1
1
1
1
1
1
1
1
1
1
1
1
1
1
1
1
1
1
1
1
1
1
1
1
1
1
1
1
1
1
1
1
1
1
1
1
1
1
1
1
1
1
1
1
1
1
1
1
1
1
1
1
1
1
1
1
1
1
1
1
1
1
1
1
1
1
1
1
1
1
1
1
1
1
1
1
1
1
1
1
1
1
1
1
1
1
1
1
1
1
1
1
1
1
1
1
1
1
1
1
1
1
1
1
1
1
1
1
1
1
1
1
1
1
1
1
1
1
1
1
1
1
1
1
1
1
1
1
1
1
1
1
1
1
1
1
1
1
1
1
1
1
1
1
1
1
1
1
1
1
1
1
1
1
1
1
1
1
1
1
1
1
1
1
1
1
1
1
1
1
1
1
1
1
1
1
1
1
1
1
1
1
1
1
1
1
1
1
1
1
1
1
1
1
1
1
1
1
1
1
1
1
1
1
1
1
1
1
1
1
1
1
1
1
1
1
1
1
1
1
1
1
1
1
1
1
1
1
1
1
1
1
1
1
1
1
1
1
1
1
1
1
1
1
1
1
1
1
1
1
1
1
1
1
1
1
1
1
1
1
1
1
1
1
1
1
1
1
1
1
1
1
1
1
1
1
1
1
1
1
1
1
1
1
1
1
1
1
1
1
1
1
1
1
1
1
1
1
1
1
1
1
1
1
1
1
1
1
1
1
1
1
1
1
1
1
1
1
1
1
1
1
1
1
1
1
1
1
1
1
1
1
1
1
1
1
1
1
1
1
1
1
1
1
1
1
1
1
1
1
1
1
1
1
1
1
1
1
1
1
1
1
1
1
1
1
1
1
1
1
1
1
1
1
1
1
1
1
1
1
1
1
1
1
1
1
1
1
1
1
1
1
1
1
1
1
1
1
1
1
1
1
1
1
1
1
1
1
1
1
1
1
1
1
1
1
1
1
1
1
1
1
1
1
1
1
1
1
1
1
1
1
1
1
1
1
1
1
1
1
1
1
1
1
1
1
1
1
1
1
1
1
1
1
1
1
1
1
1
1
1
1
1
1
1
1
1
1
1
1
1
1
1
1
1
1
1
1
1
1
1
1
1
1
1
1
1
1
1
1
1
1
1
1
1
1
1
1
1
1
1
1
1
1
1
1
1
1
1
1
1
1
1
1
1
1
1
1
1
1
1
1
1
1
1
1
1
1
1
1
1
1
1
1
1
1
1
1
1
1
1
1
1
1
1
1
1
1
1
1
1
1
1
1
1
1
1
1
1
1
1
1
1
1
1
1
1
1
1
1
1
1
1
1
1
1
1
1
1
1
1
1
1
1
1
1
1
1
1
1
1
1
1
1
1
1
1
1
1
1
1
1
1
1
1
1
1
1
1
1
1
1
1
1
1
1
1
1
1
1
1
1
1
1
1
1
1
1
1
1
1
1
1
1
1
1
1
1
1
1
1
1
1
1
1
1
1
1
1
1
1
1
1
1
1
1
1
1
1
1
1
1
1
1
1
1
1
1
1
1
1
1
1
1
1
1
1
1
1
1
1
1
1
1
1
1
1
1
1
1
1
1
1
1
1
1
1
1
1
1
1
1
1
1
1
1
1
1
1
1
1
1
1
1
1
1
1
1
1
1
1
1
1
1
1
1
1
1
1
1
1
1
1
1
1
1
1
1
1
1
1
1
1
1
1
1
1
1
1
1
1
1
1
1
1
1
1
1
1
1
1
1
1
1
1
1
1
1
1
1
1
1
1
1
1
1
1
1
1
1
1
1
1
1
1
1
1
1
1
1
1
1
1
1
1
1
1
1
1
1
1
1
1
1
1
1
1
1
1
1
1
1
1
1
1
1
1
1
1
1
1
1
1
1
1
1
1
1
1
1
1
1
1
1
1
1
1
1
1
1
1
1
1
1
1
1
1
1
1
1
1
1
1
1
1
1
1
1
1
1
1
1
1
1
1
1
1
1
1
1
1
1
1
1
1
1
1
1
1
1
1
1
1
1
1
1
1
1
1
1
1
1
1
1
1
1
1
1
1
1
1
1
1
1
1
1
1
1
1
1
1
1
1
1
1
1
1
1
1
1
1
1
1
1
1
1
1
1
1
1
1
1
1
1
1
1
1
1
1
1
1
1
1
1
1
1
1
1
1
1
1
1
1
1
1
1
1
1
1
1
1
1
1
1
1
1
1
1
1
1
1
1
1
1
1
1
1
1
1
1
1
1
1
1
1
1
1
1
1
1
1
1
1
1
1
1
1
1
1
1
1
1
1
1
1
1
1
1
1
1
1
1
1
1
1
1
1
1
1
1
1
1
1
1
1
1
1
1
1
1
1
1
1
1
1
1
1
1
1
1
1
1
1
1
1
1
1
1
1
1
1
1
1
1
1
1
1
1
1
1
1
1
1
1
1
1
1
1
1
1
1
1
1
1
1
1
1
1
1
1
1
1
1
1
1
1
1
1
1
1
1
1
1
1
1
1
1
1
1
1
0.999999
0.999998
0.999999
1
1
1
1
1
1
1
1
1
1
1
1
1
1
1
1
1
1
1
1
1
1
1
1
1
1
1
1
1
1
1
1
1
1
1
1
1
1
1
1
1
1
1
1
1
1
1
1
1
1
1
1
1
1
1
1
1
1
1
1
1
1
1
1
1
1
1
1
1
1
1
1
1
1
1
1
1
1
1
1
1
1
1
1
1
1
1
1
1
1
1
1
1
1
1
1
1
1
0.999998
0.999986
0.999977
0.999979
0.999992
0.999997
0.999999
0.999999
0.999999
1
1
1
1
1
1
1
1
1
1
1
1
1
1
1
1
1
1
1
1
1
1
1
1
1
1
1
1
1
1
1
1
1
1
1
1
1
1
1
1
1
1
1
1
1
1
1
1
1
1
1
1
1
1
1
1
1
1
1
1
1
1
1
1
1
1
1
1
1
1
1
1
1
1
1
1
1
1
1
1
1
1
1
1
1
1
1
1
1
1
1
1
0.999998
0.999876
0.999855
0.999864
0.999877
0.999882
0.999877
0.99988
0.999924
0.999989
1
1
1
1
1
1
1
1
1
1
1
1
1
1
1
1
1
1
1
1
1
1
1
1
1
1
1
1
1
1
1
1
1
1
1
1
1
1
1
1
1
1
1
1
1
1
1
1
1
1
1
1
1
1
1
1
1
1
1
1
1
1
1
1
1
1
1
1
1
1
1
1
1
1
1
1
1
1
1
1
1
1
1
1
1
1
1
1
1
1
1
0.999978
0.999874
0.999816
0.999814
0.999814
0.999814
0.999814
0.999816
0.999978
1
1
1
1
1
1
1
1
1
1
1
1
1
1
1
1
1
1
1
1
1
1
1
1
1
1
1
1
1
1
1
1
1
1
1
1
1
1
1
1
1
1
1
1
1
1
1
1
1
1
1
1
1
1
1
1
1
1
1
1
1
1
1
1
1
1
1
1
1
1
1
1
1
1
1
1
1
1
1
1
1
1
1
1
1
1
1
1
1
1
1
1
1
1
0.99998
0.999882
0.999815
0.999851
0.999961
1
1
1
1
1
1
1
1
1
1
1
1
1
1
1
1
1
1
1
1
1
1
1
1
1
1
1
1
1
1
1
1
1
1
1
1
1
1
1
1
1
1
1
1
1
1
1
1
1
1
1
1
1
1
1
1
1
1
1
1
1
1
1
1
1
1
1
1
1
1
1
1
1
1
1
1
1
1
1
1
1
1
1
1
1
1
1
1
1
1
1
1
1
1
1
1
1
1
1
1
1
1
1
1
1
1
1
1
1
1
1
1
1
1
1
1
1
1
1
1
1
1
1
1
1
1
1
1
1
1
1
1
1
1
1
1
1
1
1
1
1
1
1
1
1
1
1
1
1
1
1
1
1
1
1
1
1
1
1
1
1
1
1
1
1
1
1
1
1
1
1
1
1
1
1
1
1
1
1
1
1
1
1
1
1
1
1
1
1
1
1
1
1
1
1
1
1
1
1
1
1
1
1
1
1
1
1
1
1
1
1
1
1
1
1
1
1
1
1
1
1
1
1
1
1
1
1
1
1
1
1
1
1
1
1
1
1
1
1
1
1
1
1
1
1
1
1
1
1
1
1
1
1
1
1
1
1
1
1
1
1
1
1
1
1
1
1
1
1
1
1
1
1
1
1
1
1
1
1
1
1
1
1
1
1
1
1
1
1
1
1
1
1
1
1
1
1
1
1
0.999998
0.993753
1
1
1
1
1
1
1
1
1
1
1
1
1
1
1
1
1
1
1
1
1
1
1
1
1
1
1
1
1
1
1
1
1
1
1
1
1
1
1
1
1
1
1
1
1
1
1
1
1
1
1
1
1
1
1
1
1
1
1
1
1
1
1
1
1
1
1
1
1
1
1
1
1
1
1
1
1
1
1
1
1
1
1
1
1
1
1
1
1
1
1
1
1
1
0.999999
0.999998
0.994881
0.968871
0.752807
0.360803
1
1
1
1
1
1
1
1
1
1
1
1
1
1
1
1
1
1
1
1
1
1
1
1
1
1
1
1
1
1
1
1
1
1
1
1
1
1
1
1
1
1
1
1
1
1
1
1
1
1
1
1
1
1
1
1
1
1
1
1
1
1
1
1
1
1
1
1
1
1
1
1
1
1
1
1
1
1
1
1
1
1
1
1
1
1
1
1
1
1
1
0.999996
0.999992
0.99986
0.96513
0.848348
0.555225
0.242667
0.00335453
1.57915e-07
1
1
1
1
1
1
1
1
1
1
1
1
1
1
1
1
1
1
1
1
1
1
1
1
1
1
1
1
1
1
1
1
1
1
1
1
1
1
1
1
1
1
1
1
1
1
1
1
1
1
1
1
1
1
1
1
1
1
1
1
1
1
1
1
1
1
1
1
1
1
1
1
1
1
1
1
1
1
1
1
1
1
1
1
1
1
1
1
0.999999
0.999988
0.999972
0.955875
0.849166
0.583372
0.303099
0.0584963
1.82553e-07
1.71884e-07
1.74902e-07
1.76567e-07
1
1
1
1
1
1
1
1
1
1
1
1
1
1
1
1
1
1
1
1
1
1
1
1
1
1
1
1
1
1
1
1
1
1
1
1
1
1
1
1
1
1
1
1
1
1
1
1
1
1
1
1
1
1
1
1
1
1
1
1
1
1
1
1
1
1
1
1
1
1
1
1
1
1
1
1
1
1
1
1
1
1
1
1
1
1
1
0.999994
0.999945
0.911555
0.679361
0.332595
0.0854954
1.95703e-07
1.75075e-07
1.74623e-07
1.7486e-07
1.74982e-07
1.75177e-07
1.75238e-07
1
1
1
1
1
1
1
1
1
1
1
1
1
1
1
1
1
1
1
1
1
1
1
1
1
1
1
1
1
1
1
1
1
1
1
1
1
1
1
1
1
1
1
1
1
1
1
1
1
1
1
1
1
1
1
1
1
1
1
1
1
1
1
1
1
1
1
1
1
1
1
1
1
1
1
1
1
1
1
1
1
1
1
1
1
0.999999
0.999982
0.984285
0.692422
0.257336
1.47787e-05
4.11616e-07
1.8028e-07
1.75119e-07
1.74861e-07
1.7486e-07
1.7486e-07
1.74862e-07
1.74995e-07
1.76599e-07
1
1
1
1
1
1
1
1
1
1
1
1
1
1
1
1
1
1
1
1
1
1
1
1
1
1
1
1
1
1
1
1
1
1
1
1
1
1
1
1
1
1
1
1
1
1
1
1
1
1
1
1
1
1
1
1
1
1
1
1
1
1
1
1
1
1
1
1
1
1
1
1
1
1
1
1
1
1
1
1
1
1
1
1
0.999998
0.999969
0.949115
0.479803
0.0333296
3.2719e-06
4.07837e-07
1.81309e-07
1.75667e-07
1.74919e-07
1.74877e-07
1.74861e-07
1.74868e-07
1.75006e-07
2.51462e-07
5.09807e-06
1
1
1
1
1
1
1
1
1
1
1
1
1
1
1
1
1
1
1
1
1
1
1
1
1
1
1
1
1
1
1
1
1
1
1
1
1
1
1
1
1
1
1
1
1
1
1
1
1
1
1
1
1
1
1
1
1
1
1
1
1
1
1
1
1
1
1
1
1
1
1
1
1
1
1
1
1
1
1
1
1
1
1
0.999997
0.99995
0.937164
0.388295
0.000150329
4.26471e-06
9.94386e-07
8.92947e-07
9.13916e-07
1.05789e-06
9.21613e-07
1.7489e-07
1.74895e-07
1.75193e-07
1.34515e-06
9.63856e-06
1.38274e-05
1
1
1
1
1
1
1
1
1
1
1
1
1
1
1
1
1
1
1
1
1
1
1
1
1
1
1
1
1
1
1
1
1
1
1
1
1
1
1
1
1
1
1
1
1
1
1
1
1
1
1
1
1
1
1
1
1
1
1
1
1
1
1
1
1
1
1
1
1
1
1
1
1
1
1
1
1
1
1
1
1
0.999999
0.999994
0.999916
0.924112
0.348896
0.000134212
5.00664e-06
2.51695e-06
2.47153e-06
2.44176e-06
3.82346e-06
2.53022e-06
4.23474e-07
1.75031e-07
4.24881e-07
4.48772e-06
1.34921e-05
1.38772e-05
1.38772e-05
1
1
1
1
1
1
1
1
1
1
1
1
1
1
1
1
1
1
1
1
1
1
1
1
1
1
1
1
1
1
1
1
1
1
1
1
1
1
1
1
1
1
1
1
1
1
1
1
1
1
1
1
1
1
1
1
1
1
1
1
1
1
1
1
1
1
1
1
1
1
1
1
1
1
1
1
1
1
1
1
0.999999
0.999988
0.999843
0.893989
0.303245
9.71318e-05
8.02409e-06
7.23458e-06
7.17717e-06
1.08521e-05
1.08617e-05
3.55633e-06
7.07415e-07
7.44572e-07
1.47046e-06
3.87995e-06
1.40055e-05
1.40227e-05
1.32989e-05
4.83841e-06
1
1
1
1
1
1
1
1
1
1
1
1
1
1
1
1
1
1
1
1
1
1
1
1
1
1
1
1
1
1
1
1
1
1
1
1
1
1
1
1
1
1
1
1
1
1
1
1
1
1
1
1
1
1
1
1
1
1
1
1
1
1
1
1
1
1
1
1
1
1
1
1
1
1
1
1
1
1
0.999999
0.999996
0.999976
0.999708
0.832581
0.231114
4.66781e-05
1.0479e-05
1.1043e-05
1.09693e-05
1.76365e-05
1.75397e-05
9.81421e-06
9.54951e-07
1.03993e-06
3.57369e-06
4.68587e-06
1.39503e-05
1.40227e-05
1.04174e-05
2.3309e-07
1.31311e-07
1
1
1
1
1
1
1
1
1
1
1
1
1
1
1
1
1
1
1
1
1
1
1
1
1
1
1
1
1
1
1
1
1
1
1
1
1
1
1
1
1
1
1
1
1
1
1
1
1
1
1
1
1
1
1
1
1
1
1
1
1
1
1
1
1
1
1
1
1
1
1
1
1
1
1
1
0.999999
0.999997
0.999984
0.99993
0.999482
0.737944
0.143814
1.24653e-05
9.12191e-06
1.11868e-05
1.22517e-05
1.38014e-05
1.84497e-05
1.74166e-05
9.5497e-07
9.5134e-07
2.65901e-06
5.50519e-06
1.23134e-05
1.39132e-05
9.77646e-06
7.97672e-08
7.95994e-08
1.2735e-07
1
1
1
1
1
1
1
1
1
1
1
1
1
1
1
1
1
1
1
1
1
1
1
1
1
1
1
1
1
1
1
1
1
1
1
1
1
1
1
1
1
1
1
1
1
1
1
1
1
1
1
1
1
1
1
1
1
1
1
1
1
1
1
1
1
1
1
1
1
1
1
1
1
1
1
1
0.999987
0.999944
0.999687
0.971959
0.592302
0.0594484
3.73088e-06
5.2195e-06
9.33585e-06
1.16747e-05
1.78516e-05
1.79047e-05
1.79392e-05
1.76746e-06
9.55908e-07
2.37414e-06
4.13323e-06
1.03988e-05
1.34169e-05
1.04777e-05
8.04998e-08
7.95909e-08
7.97925e-08
2.71725e-07
1
1
1
1
1
1
1
1
1
1
1
1
1
1
1
1
1
1
1
1
1
1
1
1
1
1
1
1
1
1
1
1
1
1
1
1
1
1
1
1
1
1
1
1
1
1
1
1
1
1
1
1
1
1
1
1
1
1
1
1
1
1
1
1
1
1
1
1
1
1
1
1
1
1
1
0.999997
0.999719
0.988321
0.817398
0.348965
2.21207e-06
1.29218e-06
3.40852e-06
6.57644e-06
9.3974e-06
1.44683e-05
1.7832e-05
1.41856e-05
2.2076e-06
9.33721e-07
9.42169e-07
2.41583e-06
1.06732e-05
1.26557e-05
1.03068e-05
8.12995e-08
8.03941e-08
8.32992e-08
1.26836e-07
7.19933e-08
1
1
1
1
1
1
1
1
1
1
1
1
1
1
1
1
1
1
1
1
1
1
1
1
1
1
1
1
1
1
1
1
1
1
1
1
1
1
1
1
1
1
1
1
1
1
1
1
1
1
1
1
1
1
1
1
1
1
1
1
1
1
1
1
1
1
1
1
1
1
1
1
1
1
1
0.998256
0.813284
0.436206
0.0921705
4.86721e-07
5.45347e-07
1.21207e-06
3.80057e-06
1.00497e-05
8.64862e-06
3.12003e-06
2.37211e-06
1.85147e-06
9.03432e-07
9.28531e-07
1.4357e-06
9.53997e-06
1.24897e-05
1.06464e-05
8.18697e-08
8.11596e-08
8.60436e-08
6.67944e-06
1.37737e-05
3.15448e-06
1
1
1
1
1
1
1
1
1
1
1
1
1
1
1
1
1
1
1
1
1
1
1
1
1
1
1
1
1
1
1
1
1
1
1
1
1
1
1
1
1
1
1
1
1
1
1
1
1
1
1
1
1
1
1
1
1
1
1
1
1
1
1
1
1
1
1
1
1
1
1
1
1
1
0.999559
0.54887
0.0907649
4.97239e-07
4.97239e-07
4.95865e-07
4.97545e-07
2.63961e-06
9.47958e-06
1.01001e-05
2.86429e-06
8.34016e-07
8.40432e-07
8.57019e-07
8.72167e-07
3.05936e-06
1.04223e-05
1.18979e-05
9.87409e-06
9.06417e-08
7.77982e-08
8.46094e-08
9.5008e-06
2.39562e-05
2.39824e-05
1.32671e-05
1
1
1
1
1
1
1
1
1
1
1
1
1
1
1
1
1
1
1
1
1
1
1
1
1
1
1
1
1
1
1
1
1
1
1
1
1
1
1
1
1
1
1
1
1
1
1
1
1
1
1
1
1
1
1
1
1
1
1
1
1
1
1
1
1
1
1
1
1
1
1
1
1
1
0.660972
1.20909e-05
1.55723e-06
1.07212e-06
4.95872e-07
4.97648e-07
2.79692e-06
8.71614e-06
8.77599e-06
2.9799e-06
8.34855e-07
8.34449e-07
8.34859e-07
1.01495e-06
7.39294e-06
1.14712e-05
1.14587e-05
8.37137e-06
6.0067e-08
6.15277e-08
6.65039e-08
7.39472e-06
2.39358e-05
2.39824e-05
2.30311e-05
7.69163e-06
1
1
1
1
1
1
1
1
1
1
1
1
1
1
1
1
1
1
1
1
1
1
1
1
1
1
1
1
1
1
1
1
1
1
1
1
1
1
1
1
1
1
1
1
1
1
1
1
1
1
1
1
1
1
1
1
1
1
1
1
1
1
1
1
1
1
1
1
1
1
1
1
1
0.96199
0.198991
0.000230104
5.71256e-06
5.21397e-07
4.97703e-07
2.24957e-06
8.11407e-06
8.44347e-06
3.02474e-06
8.34946e-07
8.34864e-07
8.34855e-07
8.39237e-07
6.14912e-06
1.14963e-05
1.14963e-05
4.56036e-06
5.81877e-08
5.82977e-08
6.15137e-08
5.11722e-06
2.38737e-05
2.39665e-05
2.09414e-05
1.66903e-06
2.9642e-08
1
1
1
1
1
1
1
1
0.996683
0.9873
0.999998
0.999999
1
1
1
1
1
1
1
1
1
1
1
1
1
1
1
1
1
1
1
1
1
1
1
1
1
1
1
1
1
1
1
1
1
1
1
1
1
1
1
1
1
1
1
1
1
1
1
1
1
1
1
1
1
1
1
1
1
1
1
1
1
0.562785
0.034094
2.03689e-05
9.95097e-07
4.96772e-07
8.93749e-07
6.22384e-06
6.21487e-06
1.83392e-06
8.4e-07
8.34905e-07
1.2641e-06
1.93835e-06
1.97159e-06
1.96601e-06
1.85814e-06
4.35339e-07
5.75013e-08
5.76574e-08
6.05681e-08
3.99593e-06
2.25116e-05
2.39145e-05
1.92034e-05
2.88425e-08
2.9743e-08
2.9851e-08
1
1
0.97787
0.910742
0.864046
0.867468
0.877909
0.829458
0.643487
0.582282
0.721947
0.959857
0.999999
1
1
1
1
1
1
1
1
1
1
1
1
1
1
1
1
1
1
1
1
1
1
1
1
1
1
1
1
1
1
1
1
1
1
1
1
1
1
1
1
1
1
1
1
1
1
1
1
1
1
1
1
1
1
1
1
1
1
1
0.978868
0.221068
9.17837e-05
1.27999e-06
4.63913e-07
4.9049e-07
1.18401e-06
2.58997e-06
1.87981e-06
8.5303e-07
8.40706e-07
1.59355e-06
1.62798e-06
1.45157e-06
2.84572e-07
5.63929e-08
5.64898e-08
5.69568e-08
5.72048e-08
5.98907e-08
3.86423e-06
2.08054e-05
2.27051e-05
1.81909e-05
2.8825e-08
2.85967e-08
2.88537e-08
8.19226e-07
0.509247
0.423951
0.290095
0.191078
0.145964
0.155491
0.182328
0.147411
0.0510142
0.0225591
0.0121276
0.291769
0.889747
1
1
1
1
1
1
1
1
1
1
1
1
1
1
1
1
1
1
1
1
1
1
1
1
1
1
1
1
1
1
1
1
1
1
1
1
1
1
1
1
1
1
1
1
1
1
1
1
1
1
1
1
1
1
1
1
1
1
1
0.725496
0.0791929
2.28478e-05
4.88617e-07
4.90345e-07
4.9029e-07
4.90505e-07
6.49873e-07
2.00596e-06
2.28235e-06
1.17742e-06
1.66978e-07
1.64385e-07
1.17933e-07
5.63401e-08
5.63494e-08
5.63694e-08
5.64852e-08
5.86899e-08
3.28256e-06
1.8224e-05
2.07954e-05
1.66931e-05
3.65512e-08
2.92997e-08
2.8854e-08
4.19592e-08
8.89448e-06
0.00496967
0.000839622
0.000610755
0.000575059
0.000654145
0.000273627
0.000132763
8.2808e-05
3.75549e-05
2.07056e-05
4.90305e-06
8.79627e-07
0.161419
0.808276
1
1
1
1
1
1
1
1
1
1
1
1
1
1
1
1
1
1
1
1
1
1
1
1
1
1
1
1
1
1
1
1
1
1
1
1
1
1
1
1
1
1
1
1
1
1
1
1
1
1
1
1
1
1
1
1
1
0.999995
0.347288
2.43278e-05
2.87232e-06
2.69835e-06
4.90318e-07
4.90503e-07
1.69953e-06
4.73111e-06
4.72742e-06
4.72372e-06
1.22029e-06
5.6266e-08
5.62686e-08
5.62922e-08
5.63129e-08
5.63201e-08
5.6398e-08
5.7669e-08
2.01199e-06
1.37029e-05
1.75777e-05
1.03905e-05
5.91265e-08
4.40262e-08
3.69393e-08
4.44369e-08
2.84998e-06
1.45761e-05
0.000401974
0.000634102
0.000570534
0.000495753
0.000640034
0.00011697
2.95863e-06
2.61395e-06
1.10351e-06
8.46496e-07
4.29828e-07
2.03743e-07
1.71399e-07
0.105212
0.682184
0.988219
1
1
1
1
1
1
1
1
1
1
1
1
1
1
1
1
1
1
1
1
1
1
1
1
1
1
1
1
1
1
1
1
1
1
1
1
1
1
1
1
1
1
1
1
1
1
1
1
1
1
1
1
1
1
1
0.854794
0.135041
8.81007e-07
1.77542e-06
1.834e-06
3.16093e-06
2.77122e-06
4.03009e-06
4.73177e-06
4.73112e-06
2.64349e-06
5.62658e-08
5.62657e-08
5.62659e-08
5.62678e-08
5.62806e-08
5.63639e-08
5.71629e-08
3.7521e-07
7.32649e-06
1.01084e-05
3.66872e-06
8.9369e-08
7.42054e-08
1.32257e-06
4.85427e-06
6.17786e-06
1.20761e-05
1.45705e-05
0.000393683
0.000690329
0.000585761
0.000215334
1.77682e-05
3.20052e-07
3.05022e-07
2.50223e-07
2.15397e-07
1.87686e-07
1.76417e-07
1.97245e-07
1.52742e-07
9.69483e-08
0.075893
0.577891
0.963819
1
1
1
1
1
1
1
1
1
1
1
1
1
1
1
1
1
1
1
1
1
1
1
1
1
1
1
1
1
1
1
1
1
1
1
1
1
1
1
1
1
1
1
1
1
1
1
1
1
1
1
1
1
0.999998
0.463344
0.0152143
2.03956e-06
2.44987e-06
2.32501e-06
4.75143e-06
4.75034e-06
4.74007e-06
4.72756e-06
1.72301e-06
5.62727e-08
5.62679e-08
5.62661e-08
5.62795e-08
5.6306e-08
5.63597e-08
9.18951e-08
9.42199e-07
2.91885e-06
3.47559e-06
4.44664e-07
9.76534e-08
1.02769e-07
2.27323e-06
1.12966e-05
1.21953e-05
1.21953e-05
1.07204e-05
8.68087e-06
0.000386515
0.000264243
1.76931e-05
5.13682e-07
2.39213e-07
1.86415e-07
1.73686e-07
1.67982e-07
1.67474e-07
1.67796e-07
1.67639e-07
1.66318e-07
1.61029e-07
-7.88613e-08
8.61715e-06
0.0317222
0.401446
0.890713
1
1
1
1
1
1
1
1
1
1
1
1
1
1
1
1
1
1
1
1
1
1
1
1
1
1
1
1
1
1
1
1
1
1
1
1
1
1
1
1
1
1
1
1
1
1
1
1
1
1
1
1
0.962408
0.144988
3.61609e-06
2.20399e-06
1.74811e-06
2.81687e-06
4.75143e-06
4.75223e-06
4.75042e-06
1.45475e-06
5.63097e-08
5.62923e-08
5.62715e-08
5.6308e-08
5.63511e-08
1.45169e-07
1.98552e-06
6.37214e-06
8.6217e-06
4.25037e-06
8.63673e-08
8.5963e-08
8.90329e-08
2.1727e-06
1.12402e-05
1.14606e-05
1.11702e-05
3.57997e-06
5.19452e-09
5.09531e-09
5.35231e-05
5.99591e-06
8.80937e-07
2.39113e-07
1.87239e-07
1.78118e-07
1.71615e-07
1.67326e-07
1.66469e-07
1.66194e-07
1.66133e-07
1.66108e-07
1.66107e-07
1.61035e-07
6.03943e-07
2.9785e-05
0.000802686
0.180672
0.742489
1
1
1
1
1
1
1
1
1
1
1
1
1
1
1
1
1
1
1
1
1
1
1
1
1
1
1
1
1
1
1
1
1
1
1
1
1
1
1
1
1
1
1
1
1
1
1
1
1
1
0.999998
0.541959
0.0315354
1.76036e-06
1.718e-06
1.70607e-06
2.47043e-06
4.75194e-06
4.75141e-06
2.81801e-06
5.64594e-08
5.63822e-08
5.63317e-08
5.63137e-08
1.63671e-07
2.01389e-06
7.48653e-06
1.17968e-05
1.17181e-05
9.03911e-06
2.03822e-07
8.59667e-08
8.90335e-08
1.82792e-06
1.00617e-05
1.1133e-05
8.83558e-06
3.23892e-07
5.14479e-09
5.10751e-09
5.05336e-09
0.000175201
4.24111e-05
5.94551e-06
8.72631e-07
2.27691e-07
1.74951e-07
1.67506e-07
1.66464e-07
1.66183e-07
1.66032e-07
1.66108e-07
1.66107e-07
1.66108e-07
1.65669e-07
1.55974e-07
2.68151e-06
1.58424e-05
4.74004e-05
0.0459944
0.512184
0.993298
1
1
1
1
1
1
1
1
1
1
1
1
1
1
1
1
1
1
1
1
1
1
1
1
1
1
1
1
1
1
1
1
1
1
1
1
1
1
1
1
1
1
1
1
1
1
1
1
0.999969
0.174487
2.73923e-05
8.16695e-05
1.71745e-06
1.67557e-06
1.7191e-06
4.58605e-06
4.52107e-06
3.97477e-07
5.68361e-08
5.64628e-08
5.65713e-08
2.6357e-06
9.66292e-06
1.30376e-05
1.30448e-05
1.27593e-05
4.02733e-06
1.00482e-07
9.64529e-08
8.94513e-08
1.66037e-06
8.58919e-06
1.00001e-05
7.38274e-06
5.2336e-09
5.21447e-09
5.18845e-09
5.17397e-09
5.07258e-09
0.00142253
0.000286753
6.80212e-05
7.65973e-06
8.98544e-07
2.41751e-07
1.7323e-07
1.6715e-07
1.6608e-07
1.6592e-07
8.13288e-05
0.00064503
0.000530103
2.54282e-05
2.86589e-06
9.20296e-06
1.21179e-05
7.85939e-06
1.5201e-05
0.000435297
0.246057
0.825025
1
1
1
1
1
1
1
1
1
1
1
1
1
1
1
1
1
1
1
1
1
1
1
1
1
1
1
1
1
1
1
1
1
1
1
1
1
1
1
1
1
1
1
1
1
1
1.00001
0.686309
0.0348761
3.64058e-06
1.95531e-06
1.67962e-06
1.64869e-06
2.72017e-06
3.87753e-06
2.17345e-06
7.09632e-08
5.72309e-08
3.30076e-06
1.19895e-05
1.30605e-05
1.30593e-05
1.30593e-05
9.47542e-06
7.9994e-07
1.04458e-07
1.00322e-07
5.70466e-07
4.40706e-06
8.49023e-06
8.56665e-06
5.28626e-06
5.35006e-09
5.25423e-09
5.24479e-09
5.23484e-09
5.21487e-09
5.17588e-09
0.0910328
0.00172811
0.000447595
0.000291479
5.96536e-06
7.00025e-07
2.33634e-07
1.75495e-07
1.67168e-07
1.65944e-07
7.38713e-05
0.00150722
0.00161742
0.00103673
3.94274e-05
1.23055e-05
9.24671e-06
4.4856e-06
3.0473e-06
0.000124021
0.000128671
0.0914419
0.515826
0.92199
1
1
1
1
1
1
1
1
1
1
1
1
1
1
1
1
1
1
1
1
1
1
1
1
1
1
1
1
1
1
1
1
1
1
1
1
1
1
1
1
1
1
1
1
0.999992
0.195177
4.35662e-07
1.85216e-05
3.2866e-06
3.65746e-06
1.60973e-06
1.55875e-06
2.36466e-06
5.62848e-07
5.65795e-07
9.06602e-06
1.30617e-05
1.30617e-05
1.30617e-05
1.27785e-05
4.03871e-06
8.66837e-08
8.68413e-08
2.24451e-07
3.1762e-06
8.32921e-06
9.35482e-06
9.33552e-06
4.54373e-06
6.28732e-09
5.48669e-09
5.38856e-09
5.39826e-09
5.35128e-09
5.28185e-09
5.38063e-09
0.577254
0.0702439
0.00101703
0.000477533
9.03569e-06
1.22984e-06
3.23336e-07
1.8901e-07
1.70324e-07
1.67133e-07
5.37459e-05
0.00154115
0.00163276
0.00164811
0.000484689
9.39649e-06
4.34374e-06
3.29741e-06
2.08904e-06
1.86906e-06
0.000213719
0.000213254
0.00651484
0.157436
0.530536
0.869907
1
1
1
1
1
1
1
0.999961
0.995895
0.986762
0.998682
1
0.999964
1
1
1
1
1
1
1
1
1
1
1
1
1
1
1
1
1
1
1
1
1
1
1
1
1
1
1
1
1
0.858223
0.0442698
4.15145e-07
7.6325e-07
3.9432e-06
5.06463e-06
2.02016e-06
1.45484e-06
1.41586e-06
1.40784e-06
9.69379e-06
1.30575e-05
1.30596e-05
1.30617e-05
9.18702e-06
6.37349e-07
8.6149e-08
8.61817e-08
1.00801e-06
6.75057e-06
9.38587e-06
9.39751e-06
9.36932e-06
3.65488e-06
9.51989e-09
7.05444e-09
6.55597e-09
7.11793e-09
7.29753e-09
6.37952e-09
5.664e-09
1.04386e-08
0.698786
0.527445
0.0186994
5.02857e-05
9.3161e-07
2.37452e-07
2.13472e-07
1.75862e-07
1.71797e-07
1.70029e-07
1.71277e-07
0.000874799
0.00164811
0.00164811
0.00105323
4.48129e-05
3.36351e-06
2.06676e-06
1.84071e-06
1.76771e-06
3.2055e-05
0.000332273
0.00033363
0.000137287
0.00712037
0.111437
0.405661
0.821636
0.999999
1
1
1
0.999999
0.99033
0.939025
0.925385
0.94749
1
0.999632
0.998033
0.999886
1
1
1
1
1
1
1
1
1
1
1
1
1
1
1
1
1
1
1
1
1
1
1
1
1
1
0.999996
0.313584
4.15096e-07
4.14662e-07
4.15173e-07
3.48898e-06
5.06462e-06
4.85039e-06
1.45799e-06
1.4549e-06
8.24188e-06
1.30134e-05
1.30353e-05
1.21747e-05
2.12172e-06
8.11487e-08
8.83815e-08
8.62154e-08
2.40578e-06
8.63772e-06
9.39253e-06
9.39752e-06
8.90647e-06
2.09492e-06
1.72474e-08
1.20097e-08
5.28739e-08
5.78874e-07
8.72327e-07
7.81965e-07
1.56976e-07
1.02242e-08
1.88412e-08
0.699426
0.699426
0.191325
8.21981e-07
2.50066e-07
2.23016e-07
1.86651e-07
1.71435e-07
1.71787e-07
1.71783e-07
1.71279e-07
9.73026e-05
0.00151368
0.00164811
0.00164959
0.00018235
4.13085e-06
1.79648e-06
1.733e-06
1.74499e-06
1.69309e-06
0.000146555
0.000347449
0.000130583
0.000137282
0.000291543
0.00207636
0.0799307
0.675435
0.98479
1
1
0.999279
0.957824
0.924677
0.924677
0.972836
0.999909
0.997171
0.996597
0.999059
0.999863
0.99966
1
1
1
1
1
1
1
1
1
1
1
1
1
1
1
1
1
1
1
1
1
1
1
1
0.957418
0.101068
4.05509e-07
4.1466e-07
4.14691e-07
3.50202e-06
5.06463e-06
2.07258e-06
1.46747e-06
4.87859e-06
1.29471e-05
1.29716e-05
8.78796e-06
1.57492e-07
6.49838e-08
7.42403e-08
1.53222e-07
3.77289e-06
9.3851e-06
9.39109e-06
9.394e-06
6.99424e-06
6.0809e-07
3.00292e-08
2.24814e-08
7.21884e-07
5.49277e-06
8.35668e-06
9.04445e-06
8.84584e-06
6.43645e-06
1.39462e-06
9.47337e-08
0.697586
0.694837
0.510601
2.41833e-06
1.72674e-07
1.86875e-07
1.84093e-07
1.83666e-07
1.82017e-07
1.71788e-07
1.71803e-07
1.71793e-07
0.000750133
0.00164339
0.00161559
0.000425399
5.43055e-06
1.93621e-06
1.71546e-06
1.70534e-06
1.66178e-06
4.64958e-05
0.000347449
0.00012879
0.000117521
0.000181154
0.00120617
0.0996467
0.684959
0.957836
0.989115
0.999986
0.988465
0.94376
0.94473
0.99305
0.999216
0.996863
0.996598
0.9966
0.996598
0.997295
0.998396
0.999642
1
1
1
1
1
0.999999
0.999999
1
1
1
1
1
1
1
1
1
1
1
1
1
1
0.999999
0.999987
0.516829
4.31659e-07
3.96976e-07
4.06197e-07
2.31379e-06
3.32156e-06
2.22357e-06
1.8996e-06
2.1982e-06
1.22743e-05
1.28384e-05
8.57938e-06
5.81642e-08
5.85686e-08
5.9891e-08
6.49273e-08
3.64346e-06
9.33625e-06
9.36576e-06
9.18643e-06
3.18218e-06
4.37082e-08
4.05882e-08
3.75577e-08
1.0709e-06
7.96328e-06
9.64688e-06
9.64553e-06
9.64579e-06
9.6423e-06
9.62777e-06
9.25117e-06
3.19816e-06
0.696645
0.691258
0.666625
1.52047e-05
2.18969e-08
2.06714e-07
2.69409e-07
2.68803e-07
3.38041e-07
2.64974e-07
1.72662e-07
1.76869e-07
1.88496e-07
0.00140949
0.00160722
0.000981654
2.71239e-05
2.25263e-06
1.6905e-06
1.66846e-06
1.66806e-06
2.65926e-05
0.000344957
0.000124563
5.50425e-05
0.000131741
0.00113832
0.156012
0.783779
0.992604
0.992911
0.992927
0.974472
0.974898
0.998729
0.999991
0.999923
0.999288
0.999107
0.999386
0.999484
0.999307
0.998985
0.998972
0.999226
0.999779
0.999909
0.999927
0.999983
0.999991
1
1
1
1
1
1
1
1
1
1
1
1
1
1
0.999999
0.999991
0.987007
0.205088
3.94992e-07
3.57472e-07
1.76715e-06
2.65569e-06
2.12842e-06
1.87727e-06
1.88174e-06
6.43255e-06
1.21067e-05
1.00816e-05
5.81612e-08
5.74209e-08
5.80041e-08
5.85785e-08
7.35415e-08
4.98471e-06
9.34295e-06
6.74811e-06
4.96041e-07
4.35203e-08
4.33287e-08
4.54231e-08
9.93075e-07
7.96783e-06
9.64706e-06
9.64553e-06
9.64327e-06
9.64146e-06
9.63191e-06
8.85464e-06
7.17708e-06
6.36551e-06
0.705138
0.698116
0.671665
0.000181585
-1.46584e-05
1.30153e-07
3.68056e-07
2.77064e-07
4.43535e-07
4.42326e-07
2.19704e-07
1.87322e-07
1.91766e-07
0.000165091
0.00157328
0.00151794
0.000131826
2.53143e-06
1.7445e-06
1.66825e-06
1.66809e-06
2.49319e-05
0.000340859
9.41955e-05
2.9229e-05
5.26721e-05
0.000397091
0.0861777
0.744267
0.999855
0.99923
0.988321
0.985944
0.999985
0.999992
0.999993
0.999993
0.999993
0.999993
0.999992
0.999992
0.999992
0.99985
0.9993
0.999134
0.999134
0.999134
0.999168
0.999816
1
1
1
1
1
1
1
1
1
1
1
1
1
1
0.999999
0.999991
0.999897
0.63457
0.0217045
2.38884e-07
3.17751e-07
2.65242e-06
2.65594e-06
1.87164e-06
1.87165e-06
2.9575e-06
1.11831e-05
1.11229e-05
1.04297e-06
5.74161e-08
5.74123e-08
5.74234e-08
5.97375e-08
6.37641e-07
9.10589e-07
2.68701e-07
4.30351e-08
4.28563e-08
4.30957e-08
4.57978e-08
9.28355e-07
7.19498e-06
9.63711e-06
9.64154e-06
9.64327e-06
9.63765e-06
9.62043e-06
4.84842e-06
1.95733e-07
4.44463e-08
2.38174e-07
0.667674
0.528276
0.637402
0.224649
-4.76654e-05
4.47273e-07
5.89324e-07
3.04433e-07
4.06002e-07
4.43524e-07
3.12065e-07
1.91792e-07
1.93553e-07
1.92646e-07
0.000193359
0.000632277
0.000270386
2.86177e-06
1.76308e-06
1.66943e-06
1.66806e-06
1.28388e-05
0.000330934
7.07277e-05
1.94563e-05
2.77826e-05
0.000265787
0.15352
0.866087
0.99988
0.999358
0.997465
0.999946
0.999992
0.999993
0.999993
0.999993
0.999993
0.999993
0.999993
0.999992
0.999992
0.999991
0.999896
0.999376
0.999134
0.999135
0.999194
0.999758
1
1
1
1
1
1
1
1
1
1
1
1
0.999999
0.999999
0.999991
0.999892
0.973792
0.21324
3.32212e-07
1.15934e-07
2.50386e-07
2.5265e-06
2.56797e-06
1.87165e-06
2.1413e-06
9.00864e-06
1.11442e-05
2.93369e-06
5.77307e-08
5.75706e-08
5.74477e-08
1.19705e-07
1.83421e-07
6.08939e-08
4.26796e-08
4.2664e-08
4.27868e-08
4.32628e-08
9.19979e-08
5.63508e-07
5.2158e-06
9.50784e-06
9.62527e-06
9.64244e-06
9.63118e-06
8.47208e-06
2.06175e-06
4.22931e-08
4.19779e-08
4.23364e-08
6.21538e-08
0.441127
0.416868
0.594487
0.559654
1.83719e-05
2.31827e-06
3.2029e-06
3.44526e-07
3.49444e-07
3.66312e-07
2.68639e-07
2.20995e-07
2.22856e-07
2.18799e-07
3.62798e-07
6.45601e-06
0.00014481
6.23958e-05
1.91031e-06
1.68194e-06
1.66942e-06
2.5473e-06
0.000325636
0.00024297
1.58226e-05
1.09197e-05
0.000152557
0.141877
0.871373
0.99988
0.999888
0.99998
0.999992
0.999993
0.999993
0.999993
0.999993
0.999993
0.999993
0.999992
0.999992
0.999992
0.999986
0.999985
0.999988
0.999933
0.999889
0.999995
1
1
1
1
1
1
1
1
1
1
1
0.999999
0.999996
0.999992
0.999983
0.999893
0.998664
0.548214
0.0507489
1.15754e-07
1.04108e-07
1.23822e-07
1.77072e-07
1.17185e-06
5.89643e-06
8.72755e-06
8.9469e-06
4.34416e-06
5.85853e-08
5.80741e-08
5.77189e-08
5.79778e-08
3.04272e-07
3.04058e-07
9.77339e-08
4.26678e-08
4.29284e-08
2.63499e-07
2.12112e-06
4.01331e-06
5.02617e-06
4.83294e-06
3.67767e-06
2.96244e-06
2.6481e-06
3.79318e-06
5.55736e-07
9.06628e-08
4.19888e-08
3.3809e-08
7.22819e-08
1.47471e-07
0.417021
0.417137
0.620667
0.620667
0.0320502
6.21572e-05
7.76274e-07
4.27239e-07
3.78243e-07
3.73003e-07
2.89963e-07
4.86416e-07
4.62366e-07
4.21505e-07
4.39437e-07
1.32296e-06
1.12469e-05
3.94138e-05
2.87758e-05
8.82232e-06
1.6819e-06
2.02503e-06
0.000312847
0.000305256
1.43824e-05
1.28216e-05
0.000148135
0.182638
0.9061
0.99988
0.99988
0.999903
0.999982
0.934823
0.870339
0.909281
0.941173
0.954685
0.976167
0.996391
0.999967
0.999978
0.999984
0.999989
0.999994
0.999996
0.999997
0.999998
1
1
1
1
1
1
1
1
0.999999
0.999997
0.999994
0.999983
0.999955
0.999905
0.9998
0.998794
0.754681
0.0613695
2.54978e-05
0.00143495
1.03349e-07
1.04113e-07
3.18928e-07
5.43306e-06
8.41118e-06
8.54345e-06
5.68832e-06
1.29668e-07
9.42263e-08
7.10243e-07
3.92984e-06
4.13929e-06
3.03504e-07
4.5223e-08
4.48363e-08
4.33043e-08
4.42403e-07
4.01698e-06
5.53227e-06
5.54012e-06
5.18299e-06
8.68218e-07
1.40654e-07
1.4084e-07
1.45024e-07
3.65965e-07
7.07572e-06
8.52965e-06
7.11382e-07
1.58436e-08
1.58006e-08
1.74279e-08
0.417021
0.417022
0.620667
0.472317
0.0568138
1.52593e-05
3.38485e-06
7.771e-07
4.89361e-07
4.52717e-07
1.07683e-05
6.92206e-06
1.11305e-06
4.72312e-07
4.98617e-07
6.11964e-07
1.30861e-06
2.51714e-06
1.02742e-05
1.15309e-05
4.92545e-06
2.61274e-06
0.000132278
0.000163329
1.39965e-05
9.83327e-06
0.000101415
0.157366
0.884876
0.99988
0.999857
0.986338
0.460401
0.123287
0.0656625
0.0628625
0.158684
0.259373
0.376063
0.56386
0.778057
0.93447
0.999867
0.999959
0.999989
0.999994
0.999997
0.999997
0.999999
0.999998
0.999998
0.999997
0.999996
0.999995
0.999994
0.999991
0.99998