/*--------------------------------*- C++ -*----------------------------------*\
| =========                 |                                                 |
| \\      /  F ield         | OpenFOAM: The Open Source CFD Toolbox           |
|  \\    /   O peration     | Version:  2.4.0                                 |
|   \\  /    A nd           | Web:      www.OpenFOAM.org                      |
|    \\/     M anipulation  |                                                 |
\*---------------------------------------------------------------------------*/
FoamFile
{
    version     2.0;
    format      ascii;
    class       surfaceScalarField;
    location    "0.084";
    object      phi;
}
// * * * * * * * * * * * * * * * * * * * * * * * * * * * * * * * * * * * * * //

dimensions      [0 3 -1 0 0 0 0];

internalField   nonuniform List<scalar> 
119500
(
-1.86917e-13
1.86917e-13
-3.79578e-13
1.91984e-13
-6.26221e-13
2.46069e-13
-8.76213e-13
2.49417e-13
-1.12916e-12
2.52359e-13
-1.38217e-12
2.52417e-13
-1.63377e-12
2.51004e-13
-1.88431e-12
2.4993e-13
-2.13353e-12
2.48606e-13
-2.38171e-12
2.47567e-13
-2.62913e-12
2.46792e-13
-2.87595e-12
2.462e-13
-3.12224e-12
2.45663e-13
-3.36751e-12
2.44661e-13
-3.61126e-12
2.43137e-13
-3.85274e-12
2.40867e-13
-4.0916e-12
2.3825e-13
-4.32755e-12
2.3533e-13
-4.56097e-12
2.32786e-13
-4.79176e-12
2.30144e-13
-5.01941e-12
2.26983e-13
-5.24466e-12
2.24551e-13
-5.46703e-12
2.21652e-13
-5.68662e-12
2.18834e-13
-5.90332e-12
2.1591e-13
-6.11714e-12
2.13004e-13
-6.32742e-12
2.09419e-13
-6.53451e-12
2.06219e-13
-6.73806e-12
2.02664e-13
-6.93809e-12
1.9914e-13
-7.13459e-12
1.95602e-13
-7.32634e-12
1.90843e-13
-7.51208e-12
1.84826e-13
-7.6897e-12
1.76695e-13
-7.85637e-12
1.657e-13
-8.00802e-12
1.5066e-13
-8.14015e-12
1.31092e-13
-8.24852e-12
1.07295e-13
-8.32876e-12
7.913e-14
-8.37587e-12
4.59655e-14
-8.38563e-12
8.58416e-15
-8.352e-12
-3.48341e-14
-8.26944e-12
-8.3784e-14
-8.13398e-12
-1.36697e-13
-7.94068e-12
-1.94549e-13
-7.68924e-12
-2.52704e-13
-7.37693e-12
-3.13561e-13
-7.00091e-12
-3.7727e-13
-6.56346e-12
-4.38667e-13
-6.06575e-12
-4.98909e-13
-5.50856e-12
-5.58366e-13
-4.89409e-12
-6.15622e-13
-4.22462e-12
-6.70613e-13
-3.50461e-12
-7.21142e-13
-2.7393e-12
-7.66428e-13
-1.93409e-12
-8.0633e-13
-1.09575e-12
-8.39428e-13
-2.31501e-13
-8.65321e-13
6.5155e-13
-8.84086e-13
1.54606e-12
-8.95501e-13
2.44433e-12
-8.99232e-13
3.33901e-12
-8.95595e-13
4.22306e-12
-8.84933e-13
5.0907e-12
-8.68497e-13
5.93688e-12
-8.47011e-13
6.75518e-12
-8.19108e-13
7.54206e-12
-7.87659e-13
8.29298e-12
-7.51656e-13
9.00503e-12
-7.12744e-13
9.67509e-12
-6.7069e-13
1.03008e-11
-6.26319e-13
1.08788e-11
-5.78477e-13
1.14076e-11
-5.29314e-13
1.18869e-11
-4.79771e-13
1.23155e-11
-4.29111e-13
1.26937e-11
-3.78633e-13
1.30221e-11
-3.28878e-13
1.33012e-11
-2.79579e-13
1.3533e-11
-2.323e-13
1.37183e-11
-1.85703e-13
1.38568e-11
-1.38952e-13
1.39491e-11
-9.2837e-14
1.39934e-11
-4.46792e-14
1.3989e-11
3.90745e-15
1.39312e-11
5.73296e-14
1.38185e-11
1.12264e-13
1.36477e-11
1.70324e-13
1.34144e-11
2.32898e-13
1.31141e-11
2.99874e-13
1.27432e-11
3.70537e-13
1.22979e-11
4.44934e-13
1.17754e-11
5.22203e-13
1.1175e-11
6.00182e-13
1.04922e-11
6.82734e-13
9.75364e-12
7.38563e-13
8.8589e-12
8.9484e-13
8.03667e-12
8.22429e-13
6.93072e-12
1.10622e-12
6.03153e-12
8.99525e-13
9.29783e-13
5.10216e-12
-2.22931e-13
4.09195e-13
-6.18499e-13
5.86376e-13
-1.05703e-12
6.83526e-13
-1.52117e-12
7.12475e-13
-1.97774e-12
7.0783e-13
-2.43287e-12
7.06439e-13
-2.88687e-12
7.03887e-13
-3.33999e-12
7.01921e-13
-3.79207e-12
6.99546e-13
-4.24319e-12
6.97547e-13
-4.69369e-12
6.96156e-13
-5.14435e-12
6.95727e-13
-5.59541e-12
6.95592e-13
-6.04672e-12
6.94854e-13
-6.49827e-12
6.93565e-13
-6.94957e-12
6.91046e-13
-7.39962e-12
6.87163e-13
-7.8484e-12
6.82951e-13
-8.29611e-12
6.79296e-13
-8.74208e-12
6.74881e-13
-9.18679e-12
6.70422e-13
-9.63056e-12
6.66995e-13
-1.00724e-11
6.6213e-13
-1.05127e-11
6.57607e-13
-1.09512e-11
6.52981e-13
-1.13864e-11
6.46569e-13
-1.18196e-11
6.41055e-13
-1.22499e-11
6.34889e-13
-1.26771e-11
6.28263e-13
-1.31028e-11
6.23176e-13
-1.35256e-11
6.1668e-13
-1.39467e-11
6.10232e-13
-1.43629e-11
5.99356e-13
-1.47728e-11
5.84833e-13
-1.51718e-11
5.6282e-13
-1.5555e-11
5.31885e-13
-1.59159e-11
4.90098e-13
-1.62502e-11
4.39487e-13
-1.65512e-11
3.78035e-13
-1.68142e-11
3.06899e-13
-1.70313e-11
2.23502e-13
-1.71951e-11
1.26698e-13
-1.72976e-11
1.65173e-14
-1.73291e-11
-1.0747e-13
-1.72865e-11
-2.39429e-13
-1.71654e-11
-3.75988e-13
-1.69592e-11
-5.22017e-13
-1.66641e-11
-6.74504e-13
-1.6279e-11
-8.25919e-13
-1.58003e-11
-9.7968e-13
-1.52263e-11
-1.13447e-12
-1.45569e-11
-1.28707e-12
-1.37927e-11
-1.43685e-12
-1.29366e-11
-1.57925e-12
-1.19929e-11
-1.7121e-12
-1.09669e-11
-1.83432e-12
-9.86549e-12
-1.94278e-12
-8.69666e-12
-2.03602e-12
-7.46935e-12
-2.11319e-12
-6.19346e-12
-2.17313e-12
-4.87901e-12
-2.21535e-12
-3.53636e-12
-2.23987e-12
-2.17601e-12
-2.24685e-12
-8.08009e-13
-2.23804e-12
5.57638e-13
-2.21414e-12
1.91548e-12
-2.17838e-12
3.25507e-12
-2.12861e-12
4.57001e-12
-2.06786e-12
5.85264e-12
-1.99655e-12
7.09469e-12
-1.91383e-12
8.28942e-12
-1.82205e-12
9.42868e-12
-1.71869e-12
1.05065e-11
-1.60803e-12
1.15157e-11
-1.48986e-12
1.24524e-11
-1.3667e-12
1.33126e-11
-1.23975e-12
1.40923e-11
-1.10938e-12
1.47894e-11
-9.77576e-13
1.54018e-11
-8.45583e-13
1.59265e-11
-7.11241e-13
1.63598e-11
-5.73039e-13
1.66992e-11
-4.33026e-13
1.69377e-11
-2.84002e-13
1.70699e-11
-1.29091e-13
1.70873e-11
3.91199e-14
1.69843e-11
2.14543e-13
1.67511e-11
4.02787e-13
1.63801e-11
6.03201e-13
1.5864e-11
8.15282e-13
1.51949e-11
1.0391e-12
1.43676e-11
1.27187e-12
1.33779e-11
1.51165e-12
1.22241e-11
1.75382e-12
1.09069e-11
2.00006e-12
9.44696e-12
2.1987e-12
7.80685e-12
2.53532e-12
6.09363e-12
2.53616e-12
4.24876e-12
2.95172e-12
2.64606e-12
2.50298e-12
1.85551e-12
1.72136e-12
-2.15906e-13
6.24525e-13
-6.78842e-13
1.04823e-12
-1.1965e-12
1.20021e-12
-1.72944e-12
1.24442e-12
-2.26106e-12
1.23845e-12
-2.78915e-12
1.23353e-12
-3.31637e-12
1.2301e-12
-3.84333e-12
1.22787e-12
-4.37004e-12
1.22524e-12
-4.89632e-12
1.22282e-12
-5.42243e-12
1.22126e-12
-5.94905e-12
1.22134e-12
-6.47642e-12
1.22197e-12
-7.005e-12
1.22245e-12
-7.53488e-12
1.22246e-12
-8.06584e-12
1.22101e-12
-8.59737e-12
1.2177e-12
-9.12934e-12
1.21389e-12
-9.66092e-12
1.20982e-12
-1.01922e-11
1.20512e-12
-1.0724e-11
1.20108e-12
-1.12552e-11
1.19702e-12
-1.17864e-11
1.192e-12
-1.2317e-11
1.18694e-12
-1.28467e-11
1.18137e-12
-1.33753e-11
1.17374e-12
-1.39038e-11
1.16816e-12
-1.44314e-11
1.16101e-12
-1.49592e-11
1.15459e-12
-1.54874e-11
1.14989e-12
-1.60152e-11
1.14292e-12
-1.65436e-11
1.13706e-12
-1.70694e-11
1.12359e-12
-1.75914e-11
1.10529e-12
-1.81042e-11
1.07393e-12
-1.86041e-11
1.03005e-12
-1.90846e-11
9.689e-13
-1.95408e-11
8.93932e-13
-1.99652e-11
8.00662e-13
-2.03535e-11
6.93379e-13
-2.06955e-11
5.6364e-13
-2.09854e-11
4.14713e-13
-2.1213e-11
2.42357e-13
-2.13703e-11
4.79444e-14
-2.1453e-11
-1.5856e-13
-2.14531e-11
-3.77707e-13
-2.13657e-11
-6.1127e-13
-2.11869e-11
-8.55025e-13
-2.09108e-11
-1.10382e-12
-2.05342e-11
-1.35804e-12
-2.0055e-11
-1.61535e-12
-1.94725e-11
-1.87132e-12
-1.87871e-11
-2.12395e-12
-1.80009e-11
-2.36714e-12
-1.71173e-11
-2.5974e-12
-1.61414e-11
-2.81192e-12
-1.50788e-11
-3.00697e-12
-1.39374e-11
-3.17908e-12
-1.27255e-11
-3.32665e-12
-1.14521e-11
-3.44805e-12
-1.01269e-11
-3.54205e-12
-8.76028e-12
-3.60801e-12
-7.3621e-12
-3.64648e-12
-5.94251e-12
-3.65904e-12
-4.51097e-12
-3.64706e-12
-3.07793e-12
-3.61274e-12
-1.65173e-12
-3.55607e-12
-2.42011e-13
-3.47877e-12
1.142e-12
-3.38168e-12
2.49509e-12
-3.26796e-12
3.80646e-12
-3.13441e-12
5.06502e-12
-2.97817e-12
6.26556e-12
-2.80945e-12
7.39857e-12
-2.62372e-12
8.4578e-12
-2.42675e-12
9.43686e-12
-2.21959e-12
1.03311e-11
-2.00443e-12
1.1133e-11
-1.78016e-12
1.18397e-11
-1.55297e-12
1.24441e-11
-1.31634e-12
1.29409e-11
-1.07046e-12
1.3321e-11
-8.13736e-13
1.35821e-11
-5.45773e-13
1.37085e-11
-2.56077e-13
1.36961e-11
5.09588e-14
1.35296e-11
3.80587e-13
1.31992e-11
7.32636e-13
1.26947e-11
1.10734e-12
1.20066e-11
1.50294e-12
1.11259e-11
1.91953e-12
1.00453e-11
2.35231e-12
8.76015e-12
2.79674e-12
7.27002e-12
3.24397e-12
5.57683e-12
3.69339e-12
3.68992e-12
4.08586e-12
1.67485e-12
4.55071e-12
-6.07013e-13
4.81845e-12
-2.84353e-12
5.18875e-12
-4.86632e-12
4.5264e-12
2.8577e-12
-5.86767e-12
-2.75585e-13
8.99546e-13
-7.12186e-13
1.48374e-12
-1.24304e-12
1.73006e-12
-1.79598e-12
1.79635e-12
-2.35023e-12
1.79169e-12
-2.90245e-12
1.78475e-12
-3.45386e-12
1.7805e-12
-4.00485e-12
1.77785e-12
-4.55599e-12
1.77538e-12
-5.10752e-12
1.77336e-12
-5.65986e-12
1.7726e-12
-6.21306e-12
1.77356e-12
-6.76727e-12
1.77521e-12
-7.32276e-12
1.77698e-12
-7.87938e-12
1.77813e-12
-8.43664e-12
1.7773e-12
-8.995e-12
1.77508e-12
-9.55427e-12
1.77215e-12
-1.01138e-11
1.76833e-12
-1.06742e-11
1.76442e-12
-1.12351e-11
1.76086e-12
-1.17958e-11
1.75659e-12
-1.2357e-11
1.752e-12
-1.29185e-11
1.74715e-12
-1.34796e-11
1.74111e-12
-1.40424e-11
1.73509e-12
-1.46055e-11
1.72983e-12
-1.51703e-11
1.72436e-12
-1.57376e-11
1.72044e-12
-1.63062e-11
1.71694e-12
-1.68774e-11
1.71265e-12
-1.74484e-11
1.70653e-12
-1.80195e-11
1.69311e-12
-1.85868e-11
1.67098e-12
-1.91477e-11
1.63323e-12
-1.96971e-11
1.57782e-12
-2.02307e-11
1.5009e-12
-2.07416e-11
1.40319e-12
-2.12236e-11
1.28101e-12
-2.16685e-11
1.13662e-12
-2.20689e-11
9.62356e-13
-2.24159e-11
7.60071e-13
-2.27019e-11
5.26747e-13
-2.29188e-11
2.63206e-13
-2.30588e-11
-2.0145e-14
-2.31144e-11
-3.23616e-13
-2.30798e-11
-6.47429e-13
-2.29508e-11
-9.85578e-13
-2.27219e-11
-1.33431e-12
-2.2389e-11
-1.69247e-12
-2.1951e-11
-2.0549e-12
-2.1407e-11
-2.4169e-12
-2.07582e-11
-2.77429e-12
-2.00069e-11
-3.11996e-12
-1.91567e-11
-3.44925e-12
-1.82122e-11
-3.75791e-12
-1.71798e-11
-4.04095e-12
-1.60664e-11
-4.29407e-12
-1.48801e-11
-4.51452e-12
-1.36295e-11
-4.7001e-12
-1.23239e-11
-4.84921e-12
-1.09727e-11
-4.9607e-12
-9.58587e-12
-5.03472e-12
-8.17325e-12
-5.07309e-12
-6.74486e-12
-5.07685e-12
-5.31131e-12
-5.04764e-12
-3.88208e-12
-4.98661e-12
-2.46693e-12
-4.89517e-12
-1.07517e-12
-4.77463e-12
2.82487e-13
-4.62674e-12
1.60177e-12
-4.45475e-12
2.86765e-12
-4.24505e-12
4.07703e-12
-4.01977e-12
5.21844e-12
-3.76602e-12
6.28684e-12
-3.49598e-12
7.27514e-12
-3.20866e-12
8.17502e-12
-2.90502e-12
8.98442e-12
-2.59021e-12
9.69212e-12
-2.26129e-12
1.02886e-11
-1.91335e-12
1.0774e-11
-1.55645e-12
1.11338e-11
-1.17402e-12
1.13605e-11
-7.72929e-13
1.14453e-11
-3.41241e-13
1.13759e-11
1.19947e-13
1.11441e-11
6.1213e-13
1.07358e-11
1.14071e-12
1.01398e-11
1.70316e-12
9.34367e-12
2.29894e-12
8.33852e-12
2.92464e-12
7.11589e-12
3.57498e-12
5.67108e-12
4.24164e-12
4.00345e-12
4.91175e-12
2.11492e-12
5.58213e-12
-8.67374e-15
6.2097e-12
-2.26175e-12
6.8041e-12
-4.70551e-12
7.2626e-12
-7.21118e-12
7.69488e-12
-9.53886e-12
6.85466e-12
4.15533e-12
-1.08357e-11
-2.90541e-13
1.1895e-12
-7.37681e-13
1.92973e-12
-1.26473e-12
2.25605e-12
-1.82036e-12
2.35093e-12
-2.37915e-12
2.34942e-12
-2.93739e-12
2.34194e-12
-3.4953e-12
2.33736e-12
-4.05312e-12
2.33464e-12
-4.61146e-12
2.33269e-12
-5.17058e-12
2.33146e-12
-5.7307e-12
2.33171e-12
-6.29196e-12
2.33382e-12
-6.85434e-12
2.33661e-12
-7.41777e-12
2.33943e-12
-7.98226e-12
2.34163e-12
-8.54773e-12
2.34178e-12
-9.11429e-12
2.34063e-12
-9.682e-12
2.33882e-12
-1.02507e-11
2.33592e-12
-1.082e-11
2.33263e-12
-1.13897e-11
2.32945e-12
-1.19597e-11
2.32534e-12
-1.25297e-11
2.32075e-12
-1.31001e-11
2.31624e-12
-1.36712e-11
2.31092e-12
-1.42438e-11
2.30627e-12
-1.48186e-11
2.3031e-12
-1.53961e-11
2.3004e-12
-1.59768e-11
2.29961e-12
-1.65609e-11
2.29952e-12
-1.71475e-11
2.29773e-12
-1.7736e-11
2.29346e-12
-1.83244e-11
2.2799e-12
-1.89105e-11
2.25545e-12
-1.94908e-11
2.21196e-12
-2.00618e-11
2.14722e-12
-2.06177e-11
2.05526e-12
-2.11533e-11
1.93721e-12
-2.16601e-11
1.78623e-12
-2.21304e-11
1.60542e-12
-2.25562e-11
1.38662e-12
-2.29276e-11
1.12999e-12
-2.3238e-11
8.35791e-13
-2.34789e-11
5.02619e-13
-2.36407e-11
1.40236e-13
-2.37161e-11
-2.49608e-13
-2.36996e-11
-6.65296e-13
-2.35854e-11
-1.10117e-12
-2.33679e-11
-1.55326e-12
-2.30439e-11
-2.01781e-12
-2.26121e-11
-2.48813e-12
-2.20722e-11
-2.95836e-12
-2.14259e-11
-3.42199e-12
-2.06759e-11
-3.87149e-12
-1.98257e-11
-4.30099e-12
-1.88807e-11
-4.70439e-12
-1.78473e-11
-5.07587e-12
-1.67323e-11
-5.41068e-12
-1.55435e-11
-5.70487e-12
-1.42896e-11
-5.95548e-12
-1.29796e-11
-6.16078e-12
-1.16226e-11
-6.31925e-12
-1.02284e-11
-6.43043e-12
-8.80716e-12
-6.49579e-12
-7.36931e-12
-6.51615e-12
-5.92564e-12
-6.49272e-12
-4.48636e-12
-6.42726e-12
-3.06142e-12
-6.32144e-12
-1.66079e-12
-6.17653e-12
-2.94654e-13
-5.99408e-12
1.02402e-12
-5.77458e-12
2.29916e-12
-5.52127e-12
3.51018e-12
-5.23181e-12
4.65953e-12
-4.9163e-12
5.73227e-12
-4.56956e-12
6.72377e-12
-4.20091e-12
7.62806e-12
-3.80998e-12
8.4336e-12
-3.39636e-12
9.13813e-12
-2.96636e-12
9.73586e-12
-2.51157e-12
1.02108e-11
-2.03185e-12
1.05629e-11
-1.52651e-12
1.07771e-11
-9.87397e-13
1.08442e-11
-4.08594e-13
1.07556e-11
2.08392e-13
1.04977e-11
8.699e-13
1.00589e-11
1.57943e-12
9.42724e-12
2.33491e-12
8.59084e-12
3.13547e-12
7.53888e-12
3.97677e-12
6.26212e-12
4.85194e-12
4.75528e-12
5.74872e-12
3.01501e-12
6.65225e-12
1.05343e-12
7.54395e-12
-1.12501e-12
8.38841e-12
-3.52181e-12
9.2012e-12
-6.06145e-12
9.8026e-12
-8.65384e-12
1.02877e-11
-1.10648e-11
9.26619e-12
5.40769e-12
-1.23164e-11
-2.94777e-13
1.48365e-12
-7.50715e-13
2.38445e-12
-1.27798e-12
2.7822e-12
-1.83136e-12
2.90319e-12
-2.38943e-12
2.90639e-12
-2.94832e-12
2.89973e-12
-3.50743e-12
2.89539e-12
-4.06677e-12
2.89289e-12
-4.62681e-12
2.89166e-12
-5.18789e-12
2.89148e-12
-5.75005e-12
2.89282e-12
-6.31338e-12
2.8961e-12
-6.87793e-12
2.90012e-12
-7.44346e-12
2.90393e-12
-8.00987e-12
2.90701e-12
-8.57751e-12
2.90837e-12
-9.14654e-12
2.9086e-12
-9.71664e-12
2.90784e-12
-1.02879e-11
2.90607e-12
-1.086e-11
2.90352e-12
-1.1432e-11
2.90025e-12
-1.20042e-11
2.89634e-12
-1.25765e-11
2.89179e-12
-1.31489e-11
2.88723e-12
-1.37225e-11
2.88318e-12
-1.42978e-11
2.88008e-12
-1.48755e-11
2.87931e-12
-1.54569e-11
2.88031e-12
-1.60418e-11
2.88302e-12
-1.66312e-11
2.88734e-12
-1.72241e-11
2.88904e-12
-1.78195e-11
2.88733e-12
-1.8416e-11
2.87486e-12
-1.9011e-11
2.84888e-12
-1.96016e-11
2.80095e-12
-2.01838e-11
2.72788e-12
-2.07526e-11
2.62261e-12
-2.13012e-11
2.48425e-12
-2.18227e-11
2.30635e-12
-2.23074e-11
2.08874e-12
-2.27474e-11
1.82519e-12
-2.31336e-11
1.51491e-12
-2.34572e-11
1.15803e-12
-2.37103e-11
7.54464e-13
-2.38842e-11
3.12836e-13
-2.39692e-11
-1.65866e-13
-2.39591e-11
-6.76607e-13
-2.38487e-11
-1.2129e-12
-2.36324e-11
-1.77087e-12
-2.33074e-11
-2.34415e-12
-2.28725e-11
-2.92443e-12
-2.23275e-11
-3.50478e-12
-2.16742e-11
-4.07673e-12
-2.09157e-11
-4.63149e-12
-2.00557e-11
-5.16245e-12
-1.90996e-11
-5.66198e-12
-1.80541e-11
-6.12295e-12
-1.69261e-11
-6.54017e-12
-1.57237e-11
-6.90886e-12
-1.44554e-11
-7.22529e-12
-1.31303e-11
-7.48747e-12
-1.17575e-11
-7.69359e-12
-1.03469e-11
-7.84258e-12
-8.90888e-12
-7.9353e-12
-7.45413e-12
-7.97236e-12
-5.99362e-12
-7.95467e-12
-4.53795e-12
-7.88432e-12
-3.09741e-12
-7.76334e-12
-1.68205e-12
-7.59321e-12
-3.01814e-13
-7.37558e-12
1.03283e-12
-7.11043e-12
2.31787e-12
-6.80745e-12
3.54265e-12
-6.45763e-12
4.69676e-12
-6.07136e-12
5.77866e-12
-5.6523e-12
6.77794e-12
-5.20094e-12
7.688e-12
-4.7207e-12
8.50544e-12
-4.21437e-12
9.21813e-12
-3.67955e-12
9.82004e-12
-3.11391e-12
1.03022e-11
-2.51435e-12
1.06573e-11
-1.88195e-12
1.08738e-11
-1.20409e-12
1.09466e-11
-4.81564e-13
1.08597e-11
2.95251e-13
1.06024e-11
1.12724e-12
1.01644e-11
2.01753e-12
9.53075e-12
2.96878e-12
8.68982e-12
3.97666e-12
7.63013e-12
5.03676e-12
6.34167e-12
6.14071e-12
4.81738e-12
7.27329e-12
3.05422e-12
8.41568e-12
1.05891e-12
9.53952e-12
-1.15813e-12
1.06057e-11
-3.60243e-12
1.16458e-11
-6.19804e-12
1.23986e-11
-8.84073e-12
1.29309e-11
-1.12735e-11
1.16995e-11
6.65374e-12
-1.25187e-11
-2.97111e-13
1.7801e-12
-7.58282e-13
2.84433e-12
-1.28642e-12
3.30916e-12
-1.83743e-12
3.45303e-12
-2.3939e-12
3.46169e-12
-2.95211e-12
3.45679e-12
-3.511e-12
3.45314e-12
-4.07041e-12
3.45117e-12
-4.63059e-12
3.45072e-12
-5.19197e-12
3.45173e-12
-5.75456e-12
3.4543e-12
-6.31823e-12
3.45866e-12
-6.88309e-12
3.46387e-12
-7.44907e-12
3.46881e-12
-8.01591e-12
3.47274e-12
-8.58404e-12
3.47539e-12
-9.15399e-12
3.47741e-12
-9.72506e-12
3.47775e-12
-1.0297e-11
3.47684e-12
-1.08699e-11
3.4752e-12
-1.14426e-11
3.47171e-12
-1.20151e-11
3.46757e-12
-1.25879e-11
3.46323e-12
-1.31605e-11
3.45854e-12
-1.37343e-11
3.45552e-12
-1.431e-11
3.45435e-12
-1.48881e-11
3.45594e-12
-1.54701e-11
3.46087e-12
-1.60565e-11
3.4679e-12
-1.66475e-11
3.47679e-12
-1.72434e-11
3.48351e-12
-1.78427e-11
3.48501e-12
-1.84444e-11
3.47512e-12
-1.90457e-11
3.44867e-12
-1.96445e-11
3.39816e-12
-2.02353e-11
3.31729e-12
-2.08149e-11
3.20076e-12
-2.13746e-11
3.04258e-12
-2.19079e-11
2.83835e-12
-2.2406e-11
2.58551e-12
-2.28591e-11
2.27705e-12
-2.32583e-11
1.91286e-12
-2.35955e-11
1.49399e-12
-2.38604e-11
1.01821e-12
-2.40435e-11
4.94744e-13
-2.41368e-11
-7.37967e-14
-2.41328e-11
-6.8184e-13
-2.40254e-11
-1.32154e-12
-2.38107e-11
-1.98683e-12
-2.34854e-11
-2.67085e-12
-2.30478e-11
-3.36344e-12
-2.2498e-11
-4.05598e-12
-2.18377e-11
-4.73849e-12
-2.10701e-11
-5.40056e-12
-2.01993e-11
-6.03465e-12
-1.92307e-11
-6.63207e-12
-1.81711e-11
-7.18408e-12
-1.70279e-11
-7.68493e-12
-1.5809e-11
-8.12928e-12
-1.45234e-11
-8.51247e-12
-1.31804e-11
-8.83199e-12
-1.17898e-11
-9.08581e-12
-1.03614e-11
-9.27248e-12
-8.90572e-12
-9.39241e-12
-7.43343e-12
-9.44609e-12
-5.95549e-12
-9.43401e-12
-4.48297e-12
-9.3582e-12
-3.02636e-12
-9.2213e-12
-1.59542e-12
-9.02546e-12
-1.99883e-13
-8.77239e-12
1.15162e-12
-8.46315e-12
2.44632e-12
-8.1033e-12
3.67928e-12
-7.69164e-12
4.84929e-12
-7.24232e-12
5.94317e-12
-6.74704e-12
6.95308e-12
-6.21158e-12
7.87328e-12
-5.64155e-12
8.70037e-12
-5.04202e-12
9.42233e-12
-4.40201e-12
1.00348e-11
-3.7268e-12
1.05287e-11
-3.0086e-12
1.08946e-11
-2.24818e-12
1.11255e-11
-1.4352e-12
1.12085e-11
-5.64648e-13
1.11345e-11
3.69248e-13
1.08907e-11
1.37116e-12
1.04642e-11
2.44425e-12
9.84119e-12
3.59205e-12
9.00881e-12
4.80935e-12
7.95467e-12
6.09123e-12
6.66835e-12
7.42734e-12
5.14118e-12
8.80075e-12
3.36952e-12
1.01876e-11
1.35338e-12
1.15559e-11
-8.9137e-13
1.28507e-11
-3.37285e-12
1.41276e-11
-6.01804e-12
1.50442e-11
-8.71981e-12
1.56331e-11
-1.11964e-11
1.41767e-11
7.93074e-12
-1.24727e-11
-2.98746e-13
2.07814e-12
-7.63217e-13
3.30746e-12
-1.29193e-12
3.83664e-12
-1.84123e-12
4.00111e-12
-2.39635e-12
4.01561e-12
-2.95371e-12
4.01295e-12
-3.51204e-12
4.01028e-12
-4.07123e-12
4.00917e-12
-4.63123e-12
4.00953e-12
-5.19236e-12
4.01167e-12
-5.75484e-12
4.01561e-12
-6.31845e-12
4.02108e-12
-6.88304e-12
4.02729e-12
-7.44891e-12
4.03349e-12
-8.01601e-12
4.03864e-12
-8.58449e-12
4.04266e-12
-9.1549e-12
4.04659e-12
-9.7267e-12
4.04831e-12
-1.02991e-11
4.048e-12
-1.08722e-11
4.04697e-12
-1.14452e-11
4.04351e-12
-1.20178e-11
4.03882e-12
-1.25903e-11
4.03438e-12
-1.3163e-11
4.02992e-12
-1.37363e-11
4.02745e-12
-1.43115e-11
4.02812e-12
-1.48894e-11
4.03248e-12
-1.54709e-11
4.04091e-12
-1.60577e-11
4.05333e-12
-1.66495e-11
4.0671e-12
-1.72474e-11
4.07994e-12
-1.78498e-11
4.08602e-12
-1.84562e-11
4.08005e-12
-1.90636e-11
4.05466e-12
-1.96701e-11
4.00329e-12
-2.02706e-11
3.9164e-12
-2.08603e-11
3.7892e-12
-2.14324e-11
3.61336e-12
-2.19786e-11
3.3833e-12
-2.24898e-11
3.0955e-12
-2.29576e-11
2.74357e-12
-2.33708e-11
2.32491e-12
-2.37204e-11
1.84243e-12
-2.39974e-11
1.29406e-12
-2.4192e-11
6.88163e-13
-2.42958e-11
2.87759e-14
-2.43006e-11
-6.78291e-13
-2.42001e-11
-1.42328e-12
-2.39892e-11
-2.19911e-12
-2.36647e-11
-2.99672e-12
-2.32256e-11
-3.80396e-12
-2.2672e-11
-4.61101e-12
-2.20056e-11
-5.4064e-12
-2.12294e-11
-6.1782e-12
-2.0348e-11
-6.91758e-12
-1.93669e-11
-7.61462e-12
-1.8293e-11
-8.25953e-12
-1.71339e-11
-8.84552e-12
-1.58983e-11
-9.36644e-12
-1.45951e-11
-9.81718e-12
-1.32339e-11
-1.01947e-11
-1.18247e-11
-1.04965e-11
-1.03778e-11
-1.07208e-11
-8.90356e-12
-1.0868e-11
-7.41302e-12
-1.0938e-11
-5.91744e-12
-1.09309e-11
-4.42765e-12
-1.08493e-11
-2.95386e-12
-1.06964e-11
-1.50621e-12
-1.04744e-11
-9.48139e-14
-1.0185e-11
1.26898e-12
-9.82812e-12
2.58226e-12
-9.41768e-12
3.8316e-12
-8.94201e-12
5.01082e-12
-8.42248e-12
6.11438e-12
-7.85143e-12
7.13504e-12
-7.23299e-12
8.06778e-12
-6.57495e-12
8.90293e-12
-5.87777e-12
9.63523e-12
-5.13483e-12
1.02577e-11
-4.34975e-12
1.07654e-11
-3.51663e-12
1.11457e-11
-2.62883e-12
1.13916e-11
-1.68128e-12
1.14911e-11
-6.6433e-13
1.14343e-11
4.26096e-13
1.12088e-11
1.59672e-12
1.08011e-11
2.85215e-12
1.0196e-11
4.19736e-12
9.37988e-12
5.6257e-12
8.33871e-12
7.13265e-12
7.06066e-12
8.70565e-12
5.53517e-12
1.03265e-11
3.7561e-12
1.19669e-11
1.72478e-12
1.35875e-11
-5.50601e-13
1.51264e-11
-3.07262e-12
1.665e-11
-5.77364e-12
1.77457e-11
-8.55313e-12
1.84132e-11
-1.11002e-11
1.67243e-11
9.24626e-12
-1.2415e-11
-2.99554e-13
2.37696e-12
-7.6603e-13
3.77257e-12
-1.29534e-12
4.36469e-12
-1.84357e-12
4.5481e-12
-2.39778e-12
4.56858e-12
-2.95449e-12
4.56843e-12
-3.51228e-12
4.56683e-12
-4.07113e-12
4.56678e-12
-4.63088e-12
4.56804e-12
-5.19161e-12
4.57115e-12
-5.75365e-12
4.57639e-12
-6.31703e-12
4.58319e-12
-6.88135e-12
4.59035e-12
-7.44696e-12
4.59782e-12
-8.01429e-12
4.60469e-12
-8.5834e-12
4.61049e-12
-9.15423e-12
4.61612e-12
-9.72652e-12
4.6193e-12
-1.02997e-11
4.61982e-12
-1.08729e-11
4.61887e-12
-1.14461e-11
4.61539e-12
-1.20189e-11
4.61036e-12
-1.2591e-11
4.60518e-12
-1.31634e-11
4.60097e-12
-1.37362e-11
4.59899e-12
-1.43103e-11
4.60092e-12
-1.48876e-11
4.60846e-12
-1.54685e-11
4.6205e-12
-1.6055e-11
4.63852e-12
-1.66477e-11
4.65844e-12
-1.7247e-11
4.67786e-12
-1.78527e-11
4.69037e-12
-1.84635e-11
4.68959e-12
-1.90779e-11
4.66769e-12
-1.96923e-11
4.61647e-12
-2.03036e-11
4.52643e-12
-2.09053e-11
4.38961e-12
-2.14903e-11
4.19718e-12
-2.20511e-11
3.94293e-12
-2.25778e-11
3.62093e-12
-2.30607e-11
3.22528e-12
-2.34906e-11
2.75367e-12
-2.38571e-11
2.2077e-12
-2.41495e-11
1.58524e-12
-2.43581e-11
8.95548e-13
-2.44736e-11
1.43046e-13
-2.44884e-11
-6.6481e-13
-2.43955e-11
-1.51751e-12
-2.41895e-11
-2.40656e-12
-2.38675e-11
-3.32021e-12
-2.34279e-11
-4.24504e-12
-2.28707e-11
-5.16967e-12
-2.21981e-11
-6.08057e-12
-2.14132e-11
-6.96458e-12
-2.05207e-11
-7.81161e-12
-1.95263e-11
-8.61045e-12
-1.84373e-11
-9.35005e-12
-1.72616e-11
-1.00227e-11
-1.60081e-11
-1.06214e-11
-1.4686e-11
-1.11407e-11
-1.33053e-11
-1.15769e-11
-1.18761e-11
-1.1927e-11
-1.04088e-11
-1.21894e-11
-8.91426e-12
-1.23638e-11
-7.404e-12
-1.24495e-11
-5.88888e-12
-1.24472e-11
-4.37935e-12
-1.236e-11
-2.88621e-12
-1.21907e-11
-1.42023e-12
-1.19415e-11
8.90642e-15
-1.16153e-11
1.39013e-12
-1.12104e-11
2.71111e-12
-1.07397e-11
3.97842e-12
-1.02103e-11
5.1715e-12
-9.61647e-12
6.28344e-12
-8.96421e-12
7.31925e-12
-8.26957e-12
8.26267e-12
-7.51908e-12
9.10947e-12
-6.72521e-12
9.85325e-12
-5.8792e-12
1.04893e-11
-4.9863e-12
1.10099e-11
-4.03771e-12
1.14056e-11
-3.02487e-12
1.16663e-11
-1.94224e-12
1.1787e-11
-7.8521e-13
1.17512e-11
4.61834e-13
1.15471e-11
1.80075e-12
1.11602e-11
3.2391e-12
1.05783e-11
4.77937e-12
9.7828e-12
6.42134e-12
8.75911e-12
8.15649e-12
7.49316e-12
9.97177e-12
5.97269e-12
1.18471e-11
4.18996e-12
1.37499e-11
2.14073e-12
1.5637e-11
-1.74834e-13
1.74424e-11
-2.7368e-12
1.92124e-11
-5.50323e-12
2.05126e-11
-8.37932e-12
2.12898e-11
-1.10221e-11
1.93678e-11
1.06051e-11
-1.23802e-11
-2.99427e-13
2.67563e-12
-7.66885e-13
4.23864e-12
-1.29699e-12
4.89353e-12
-1.84479e-12
5.09464e-12
-2.39848e-12
5.12102e-12
-2.95481e-12
5.1235e-12
-3.51218e-12
5.12293e-12
-4.07055e-12
5.12387e-12
-4.62992e-12
5.12611e-12
-5.1903e-12
5.13022e-12
-5.75179e-12
5.13655e-12
-6.31473e-12
5.1448e-12
-6.87888e-12
5.15316e-12
-7.44441e-12
5.162e-12
-8.01191e-12
5.17083e-12
-8.58175e-12
5.17897e-12
-9.15331e-12
5.18631e-12
-9.72597e-12
5.1906e-12
-1.02998e-11
5.19233e-12
-1.08737e-11
5.19139e-12
-1.14469e-11
5.18729e-12
-1.20199e-11
5.18202e-12
-1.25919e-11
5.1759e-12
-1.31634e-11
5.17124e-12
-1.37354e-11
5.16976e-12
-1.43085e-11
5.17281e-12
-1.48844e-11
5.18312e-12
-1.54648e-11
5.19976e-12
-1.60506e-11
5.22309e-12
-1.66439e-11
5.25055e-12
-1.72447e-11
5.2774e-12
-1.78537e-11
5.29812e-12
-1.84694e-11
5.30412e-12
-1.90912e-11
5.28832e-12
-1.97153e-11
5.23932e-12
-2.0338e-11
5.14798e-12
-2.09536e-11
5.00404e-12
-2.15543e-11
4.79669e-12
-2.21317e-11
4.51917e-12
-2.2677e-11
4.16496e-12
-2.31795e-11
3.72664e-12
-2.36292e-11
3.20205e-12
-2.40139e-11
2.59121e-12
-2.43237e-11
1.89376e-12
-2.4548e-11
1.1185e-12
-2.46772e-11
2.70918e-13
-2.47034e-11
-6.40048e-13
-2.46191e-11
-1.60322e-12
-2.4419e-11
-2.60818e-12
-2.40998e-11
-3.64097e-12
-2.36597e-11
-4.68667e-12
-2.30991e-11
-5.73183e-12
-2.24201e-11
-6.76117e-12
-2.16257e-11
-7.76047e-12
-2.07209e-11
-8.71793e-12
-1.97121e-11
-9.62073e-12
-1.86066e-11
-1.0457e-11
-1.74126e-11
-1.12181e-11
-1.61393e-11
-1.18961e-11
-1.47965e-11
-1.24848e-11
-1.33945e-11
-1.29802e-11
-1.19433e-11
-1.33794e-11
-1.04538e-11
-1.36802e-11
-8.93751e-12
-1.38812e-11
-7.40578e-12
-1.39823e-11
-5.86905e-12
-1.3985e-11
-4.33809e-12
-1.3892e-11
-2.82445e-12
-1.37054e-11
-1.33901e-12
-1.3428e-11
1.09493e-13
-1.30648e-11
1.50818e-12
-1.26101e-11
2.85246e-12
-1.2085e-11
4.12898e-12
-1.14878e-11
5.33334e-12
-1.08217e-11
6.4664e-12
-1.00981e-11
7.5116e-12
-9.31557e-12
8.46712e-12
-8.47536e-12
9.32665e-12
-7.58544e-12
1.00849e-11
-6.6381e-12
1.07354e-11
-5.6374e-12
1.12702e-11
-4.57302e-12
1.16831e-11
-3.43818e-12
1.19662e-11
-2.22566e-12
1.21064e-11
-9.25673e-13
1.2094e-11
4.74044e-13
1.19149e-11
1.9797e-12
1.15547e-11
3.59927e-12
1.09969e-11
5.33709e-12
1.02249e-11
7.19333e-12
9.22139e-12
9.16e-12
7.96977e-12
1.12235e-11
6.45626e-12
1.33608e-11
4.6686e-12
1.55378e-11
2.5967e-12
1.77093e-11
2.3442e-13
1.98051e-11
-2.36922e-12
2.18166e-11
-5.21394e-12
2.33579e-11
-8.20758e-12
2.42841e-11
-1.09775e-11
2.21384e-11
1.20305e-11
-1.24022e-11
-2.98467e-13
2.97333e-12
-7.66075e-13
4.70489e-12
-1.29712e-12
5.42333e-12
-1.8451e-12
5.64138e-12
-2.39862e-12
5.6733e-12
-2.95469e-12
5.6783e-12
-3.51176e-12
5.67872e-12
-4.06966e-12
5.68047e-12
-4.6285e-12
5.68363e-12
-5.18855e-12
5.68892e-12
-5.74962e-12
5.69627e-12
-6.31198e-12
5.70578e-12
-6.87584e-12
5.71564e-12
-7.44161e-12
5.72636e-12
-8.00944e-12
5.73726e-12
-8.57982e-12
5.74794e-12
-9.15234e-12
5.75743e-12
-9.72575e-12
5.76262e-12
-1.03001e-11
5.76534e-12
-1.08748e-11
5.76474e-12
-1.14485e-11
5.75962e-12
-1.20212e-11
5.75347e-12
-1.2593e-11
5.74652e-12
-1.31638e-11
5.74077e-12
-1.37342e-11
5.73905e-12
-1.43062e-11
5.74367e-12
-1.48803e-11
5.75607e-12
-1.54596e-11
5.77792e-12
-1.60447e-11
5.80714e-12
-1.66381e-11
5.84278e-12
-1.72405e-11
5.87873e-12
-1.78527e-11
5.9092e-12
-1.84743e-11
5.92462e-12
-1.9104e-11
5.91682e-12
-1.9739e-11
5.87324e-12
-2.03749e-11
5.78266e-12
-2.10059e-11
5.63393e-12
-2.16245e-11
5.41414e-12
-2.22219e-11
5.11537e-12
-2.27874e-11
4.72917e-12
-2.33112e-11
4.24922e-12
-2.37826e-11
3.67212e-12
-2.41887e-11
2.99594e-12
-2.45184e-11
2.22217e-12
-2.47608e-11
1.35947e-12
-2.4906e-11
4.14677e-13
-2.49454e-11
-6.02112e-13
-2.48713e-11
-1.67889e-12
-2.4678e-11
-2.80306e-12
-2.43621e-11
-3.95843e-12
-2.39221e-11
-5.1283e-12
-2.33582e-11
-6.29734e-12
-2.26721e-11
-7.44878e-12
-2.18674e-11
-8.56678e-12
-2.09493e-11
-9.63751e-12
-1.99245e-11
-1.06469e-11
-1.88006e-11
-1.15823e-11
-1.75865e-11
-1.24335e-11
-1.62917e-11
-1.31922e-11
-1.49262e-11
-1.38516e-11
-1.35003e-11
-1.44073e-11
-1.20249e-11
-1.48559e-11
-1.05113e-11
-1.51948e-11
-8.97104e-12
-1.54225e-11
-7.41526e-12
-1.55391e-11
-5.85486e-12
-1.55464e-11
-4.30077e-12
-1.54471e-11
-2.76441e-12
-1.52427e-11
-1.25731e-12
-1.49361e-11
2.0739e-13
-1.45305e-11
1.63148e-12
-1.40352e-11
2.99377e-12
-1.34482e-11
4.29027e-12
-1.27852e-11
5.51329e-12
-1.20456e-11
6.6567e-12
-1.12424e-11
7.71499e-12
-1.03747e-11
8.68486e-12
-9.44602e-12
9.55842e-12
-8.45976e-12
1.03315e-11
-7.41184e-12
1.09981e-11
-6.30463e-12
1.15515e-11
-5.12693e-12
1.19856e-11
-3.87279e-12
1.22882e-11
-2.52863e-12
1.24538e-11
-1.09166e-12
1.24703e-11
4.57346e-13
1.23203e-11
2.1294e-12
1.19889e-11
3.93048e-12
1.14613e-11
5.86451e-12
1.07167e-11
7.93779e-12
9.737e-12
1.01396e-11
8.50316e-12
1.24574e-11
6.99856e-12
1.48656e-11
5.20804e-12
1.73286e-11
3.12005e-12
1.97977e-11
7.25473e-13
2.22002e-11
-1.94888e-12
2.44916e-11
-4.88547e-12
2.62952e-11
-8.01426e-12
2.74136e-11
-1.09378e-11
2.50625e-11
1.35467e-11
-1.24533e-11
-2.96914e-13
3.2695e-12
-7.64076e-13
5.17071e-12
-1.29606e-12
5.95409e-12
-1.84466e-12
6.18876e-12
-2.39829e-12
6.2257e-12
-2.95413e-12
6.23288e-12
-3.51097e-12
6.23429e-12
-4.06859e-12
6.2368e-12
-4.62694e-12
6.24066e-12
-5.18651e-12
6.24714e-12
-5.74719e-12
6.25558e-12
-6.30906e-12
6.26626e-12
-6.8725e-12
6.27768e-12
-7.43854e-12
6.291e-12
-8.00707e-12
6.30437e-12
-8.57797e-12
6.31743e-12
-9.15125e-12
6.32931e-12
-9.72585e-12
6.33583e-12
-1.0301e-11
6.33916e-12
-1.08763e-11
6.33872e-12
-1.14508e-11
6.33279e-12
-1.20235e-11
6.32491e-12
-1.25947e-11
6.31658e-12
-1.31647e-11
6.30958e-12
-1.37334e-11
6.30661e-12
-1.43033e-11
6.31256e-12
-1.48757e-11
6.32736e-12
-1.54527e-11
6.35389e-12
-1.60369e-11
6.39031e-12
-1.66298e-11
6.43462e-12
-1.72338e-11
6.48165e-12
-1.78493e-11
6.52356e-12
-1.8477e-11
6.55124e-12
-1.91155e-11
6.55426e-12
-1.97624e-11
6.51894e-12
-2.04131e-11
6.43229e-12
-2.10618e-11
6.28146e-12
-2.17004e-11
6.05148e-12
-2.23197e-11
5.73344e-12
-2.29088e-11
5.31701e-12
-2.3457e-11
4.7961e-12
-2.39525e-11
4.16618e-12
-2.4382e-11
3.4241e-12
-2.47345e-11
2.57317e-12
-2.49977e-11
1.6212e-12
-2.5161e-11
5.7646e-13
-2.52153e-11
-5.49292e-13
-2.51526e-11
-1.7432e-12
-2.49672e-11
-2.99005e-12
-2.46556e-11
-4.27168e-12
-2.42156e-11
-5.56986e-12
-2.36476e-11
-6.8669e-12
-2.29538e-11
-8.14413e-12
-2.21376e-11
-9.38448e-12
-2.12045e-11
-1.05721e-11
-2.01617e-11
-1.16911e-11
-1.90174e-11
-1.2728e-11
-1.77806e-11
-1.36717e-11
-1.6461e-11
-1.4513e-11
-1.50691e-11
-1.52448e-11
-1.36157e-11
-1.58618e-11
-1.21124e-11
-1.63603e-11
-1.05703e-11
-1.6738e-11
-9.00091e-12
-1.69929e-11
-7.41627e-12
-1.71247e-11
-5.82805e-12
-1.71356e-11
-4.24744e-12
-1.70286e-11
-2.68566e-12
-1.68054e-11
-1.1539e-12
-1.64687e-11
3.3871e-13
-1.6024e-11