/*--------------------------------*- C++ -*----------------------------------*\
| =========                 |                                                 |
| \\      /  F ield         | OpenFOAM: The Open Source CFD Toolbox           |
|  \\    /   O peration     | Version:  2.4.0                                 |
|   \\  /    A nd           | Web:      www.OpenFOAM.org                      |
|    \\/     M anipulation  |                                                 |
\*---------------------------------------------------------------------------*/
FoamFile
{
    version     2.0;
    format      ascii;
    class       surfaceScalarField;
    location    "0.048";
    object      phiAlpha;
}
// * * * * * * * * * * * * * * * * * * * * * * * * * * * * * * * * * * * * * //

dimensions      [0 3 -1 0 0 0 0];

internalField   nonuniform List<scalar> 
19800
(
-5.60049e-119
1.74001e-123
-1.61468e-114
8.31392e-119
-1.69366e-110
9.49119e-115
-9.80803e-107
5.53013e-111
-3.41855e-103
2.04256e-107
-7.57795e-100
4.93399e-104
-1.18575e-96
7.93092e-101
-1.39057e-93
9.25119e-98
-1.31323e-90
7.93102e-95
-1.04265e-87
5.07242e-92
-7.10408e-85
2.15568e-89
-4.26572e-82
1.18605e-87
-2.18028e-79
-6.94712e-80
-9.22849e-77
-7.2109e-77
-3.13803e-74
-4.6169e-74
-8.32104e-72
-2.16095e-71
-1.6573e-69
-7.69459e-69
-2.32136e-67
-2.10864e-66
-1.90791e-65
-4.44482e-64
-6.61546e-65
-7.13129e-62
2.40362e-63
-8.64913e-60
4.56398e-61
-7.85935e-58
4.79261e-59
-5.28959e-56
3.28298e-57
-2.60781e-54
1.53584e-55
-9.34175e-53
4.95345e-54
-2.39921e-51
1.09391e-52
-4.34135e-50
1.62056e-51
-5.39587e-49
1.55601e-50
-4.43848e-48
9.26663e-50
-2.30656e-47
3.25614e-49
-7.19495e-47
6.36111e-49
-1.27107e-46
6.40588e-49
-1.18484e-46
3.00747e-49
-5.31935e-47
5.85216e-50
-1.03851e-47
4.25491e-51
-8.15422e-49
1.06461e-52
-2.43438e-50
1.39366e-54
-3.65457e-52
1.25938e-56
1.1573e-59
1.69156e-58
2.52071e-60
2.18914e-60
6.57248e-62
2.49597e-62
1.16537e-63
2.47469e-64
1.62102e-65
2.13142e-66
1.86199e-67
1.58682e-68
1.80318e-69
1.00504e-70
1.47449e-71
5.25044e-73
1.00269e-73
2.15203e-75
5.49662e-76
6.38964e-78
2.3158e-78
6.97241e-81
1.18876e-80
-1.90715e-114
1.23909e-118
-4.55692e-110
4.59145e-114
-4.16045e-106
4.2604e-110
-2.16606e-102
2.06748e-106
-6.7279e-99
6.31105e-103
-1.28705e-95
1.16275e-99
-1.63646e-92
1.19159e-96
-1.55489e-89
4.56622e-94
-1.1569e-86
-1.75799e-87
-6.77354e-84
-3.81537e-84
-3.01382e-81
-4.16578e-81
-8.47304e-79
-3.35436e-78
7.27789e-80
-2.16219e-75
5.52025e-76
-1.14428e-72
4.62014e-73
-4.99871e-70
2.46286e-70
-1.77894e-67
9.58016e-68
-5.09758e-65
2.82064e-65
-1.16593e-62
6.34261e-63
-2.10531e-60
1.08271e-60
-2.9522e-58
1.39677e-58
-3.1821e-56
1.35138e-56
-2.60588e-54
9.70068e-55
-1.59954e-52
5.11242e-53
-7.26546e-51
1.96313e-51
-2.41887e-49
5.42284e-50
-5.82299e-48
1.05976e-48
-9.97381e-47
1.42975e-47
-1.18802e-45
1.28463e-46
-9.5073e-45
7.35012e-46
-4.88798e-44
2.55031e-45
-1.53717e-43
5.08005e-45
-2.80221e-43
5.43928e-45
-2.78043e-43
2.87955e-45
-1.38492e-43
6.89447e-46
-3.15915e-44
7.07698e-47
-3.06379e-45
3.11477e-48
-1.16602e-46
9.39872e-50
-1.56595e-48
3.12031e-51
3.21749e-53
1.08222e-52
2.99405e-54
3.44045e-54
1.60522e-55
9.72806e-56
6.5951e-57
2.42828e-57
2.22951e-58
5.32534e-59
6.38166e-60
1.01607e-60
1.56081e-61
1.65463e-62
3.2448e-63
2.22848e-64
5.63233e-65
2.36657e-66
7.91847e-67
1.83964e-68
8.61685e-69
6.76729e-71
9.1527e-71
-3.23471e-111
2.85178e-115
-9.16078e-107
1.21291e-110
-1.00397e-102
1.32417e-106
-6.03583e-99
7.36725e-103
-1.84875e-95
2.27492e-99
-2.98464e-92
2.59373e-96
-2.82693e-89
-3.69459e-90
-1.50171e-86
-1.64036e-86
-6.91326e-85
-2.39584e-83
1.27238e-83
-2.34461e-80
1.86377e-80
-1.78645e-77
1.72169e-77
-1.12099e-74
1.21063e-74
-5.89808e-72
6.82783e-72
-2.61311e-69
3.14004e-69
-9.71757e-67
1.16885e-66
-2.98184e-64
3.49266e-64
-7.44768e-62
8.32272e-62
-1.50072e-59
1.56652e-59
-2.41126e-57
2.29325e-57
-3.03769e-55
2.58618e-55
-2.96924e-53
2.22191e-53
-2.22483e-51
1.43543e-51
-1.25996e-49
6.88755e-50
-5.32099e-48
2.4326e-48
-1.65851e-46
6.24302e-47
-3.76403e-45
1.14659e-45
-6.12939e-44
1.47454e-44
-7.01935e-43
1.2847e-43
-5.48011e-42
7.26572e-43
-2.79586e-41
2.54678e-42
-8.89486e-41
5.26468e-42
-1.67938e-40
6.06407e-42
-1.77971e-40
3.62617e-42
-9.84802e-41
1.0459e-42
-2.61113e-41
1.40337e-43
-3.06106e-42
8.97187e-45
-1.41177e-43
4.34097e-46
-1.06602e-45
2.31475e-47
4.3759e-49
1.20893e-48
5.10336e-50
5.76358e-50
3.90815e-51
2.45796e-51
2.36867e-52
9.3114e-53
1.20002e-53
3.1134e-54
5.1939e-55
9.08171e-56
1.93045e-56
2.26469e-57
6.11565e-58
4.67899e-59
1.62106e-59
7.64859e-61
3.49057e-61
9.21618e-63
5.84737e-63
7.13442e-65
7.2155e-65
-2.34225e-108
2.53197e-112
-8.28761e-104
1.26163e-107
-1.19738e-99
1.72243e-103
-7.57836e-96
1.19481e-99
-1.76712e-92
2.84408e-96
-1.48632e-89
-4.61434e-90
6.9346e-90
-2.6899e-86
4.03969e-86
-4.62636e-83
6.82828e-83
-4.95179e-80
7.46142e-80
-3.95964e-77
6.19511e-77
-2.5584e-74
4.16126e-74
-1.38321e-71
2.31385e-71
-6.32175e-69
1.07385e-68
-2.4458e-66
4.1594e-66
-7.9779e-64
1.32501e-63
-2.15756e-61
3.43085e-61
-4.77469e-59
7.16659e-59
-8.5818e-57
1.19491e-56
-1.23858e-54
1.56496e-54
-1.41232e-52
1.59421e-52
-1.2594e-50
1.24865e-50
-8.67834e-49
7.41778e-49
-4.55453e-47
3.29951e-47
-1.79571e-45
1.08829e-45
-5.2599e-44
2.62787e-44
-1.12906e-42
4.58191e-43
-1.75204e-41
5.66085e-42
-1.93148e-40
4.81167e-41
-1.4719e-39
2.70302e-40
-7.45419e-39
9.60568e-40
-2.3995e-38
2.06425e-39
-4.69047e-38
2.55483e-39
-5.30221e-38
1.71382e-39
-3.24929e-38
5.84229e-40
-9.94914e-39
9.78972e-41
-1.39259e-39
8.26891e-42
-7.67479e-41
5.42409e-43
-5.8416e-44
3.84564e-44
1.04582e-45
2.60848e-45
1.48589e-46
1.61332e-46
1.44682e-47
8.95493e-48
1.13014e-48
4.43069e-49
7.4336e-50
1.93964e-50
4.19486e-51
7.41696e-52
2.03705e-52
2.42599e-53
8.43877e-54
6.57942e-55
2.92659e-55
1.41456e-56
8.25383e-57
2.25208e-58
1.81535e-58
2.92209e-60
2.35506e-60
-1.40722e-105
1.77072e-109
-6.05923e-101
1.01252e-104
-1.00096e-96
1.69732e-100
-4.55035e-93
1.23417e-96
-3.07445e-90
-1.29454e-91
1.24433e-89
-1.54124e-86
5.15417e-86
-4.02234e-83
9.36503e-83
-5.34717e-80
1.0941e-79
-4.83916e-77
9.50903e-77
-3.3692e-74
6.60373e-74
-1.91666e-71
3.79458e-71
-9.16112e-69
1.826e-68
-3.70706e-66
7.38624e-66
-1.27079e-63
2.50699e-63
-3.67619e-61
7.0348e-61
-8.83603e-59
1.61328e-58
-1.74348e-56
3.00479e-56
-2.80797e-54
4.49846e-54
-3.65209e-52
5.33026e-52
-3.77833e-50
4.95127e-50
-3.07935e-48
3.56489e-48
-1.95475e-46
1.96185e-46
-9.52268e-45
8.14472e-45
-3.51145e-43
2.52423e-43
-9.68409e-42
5.76516e-42
-1.96941e-40
9.58153e-41
-2.91532e-39
1.14019e-39
-3.09397e-38
9.46816e-39
-2.29939e-37
5.2866e-38
-1.15444e-36
1.90434e-37
-3.75396e-36
4.248e-37
-7.58075e-36
5.62914e-37
-9.11284e-36
4.20564e-37
-6.15789e-36
1.67126e-37
-2.16549e-36
3.40597e-38
-3.59868e-37
3.62438e-39
-2.37777e-38
2.98624e-40
3.60766e-43
2.58844e-41
9.02046e-43
2.12762e-42
1.51836e-43
1.59457e-43
1.7779e-44
1.07492e-44
1.68004e-45
6.47349e-46
1.34176e-46
3.45394e-47
9.21171e-48
1.6102e-48
5.44532e-49
6.41885e-50
2.74514e-50
2.12079e-51
1.15782e-51
5.55557e-53
3.96957e-53
1.07921e-54
1.06147e-54
2.0794e-56
1.38322e-56
-7.91247e-103
1.12928e-106
-4.02806e-98
7.04577e-102
-5.7293e-94
1.40093e-97
-1.11714e-90
7.14358e-94
3.02141e-90
-2.63211e-87
2.24573e-86
-1.62691e-83
5.72368e-83
-3.19001e-80
8.21734e-80
-3.59425e-77
8.12964e-77
-2.85726e-74
6.14809e-74
-1.77042e-71
3.75887e-71
-9.00193e-69
1.91083e-68
-3.8478e-66
8.15184e-66
-1.39142e-63
2.92651e-63
-4.25823e-61
8.82491e-61
-1.09889e-58
2.2048e-58
-2.35787e-56
4.51588e-56
-4.16138e-54
7.54881e-54
-6.01735e-52
1.01991e-51
-7.05899e-50
1.09794e-49
-6.6276e-48
9.33283e-48
-4.93607e-46
6.19733e-46
-2.88594e-44
3.16931e-44
-1.30491e-42
1.23191e-42
-4.50143e-41
3.59856e-41
-1.16948e-39
7.79519e-40
-2.25462e-38
1.23728e-38
-3.18445e-37
1.41911e-37
-3.25099e-36
1.15074e-36
-2.35197e-35
6.37876e-36
-1.16782e-34
2.32484e-35
-3.82543e-34
5.36737e-35
-7.9533e-34
7.58067e-35
-1.01241e-33
6.26402e-35
-7.50507e-34
2.87183e-35
-3.01564e-34
7.0073e-36
-5.93534e-35
9.15874e-37
-4.74208e-36
9.05572e-38
1.32648e-40
9.22586e-39
3.8344e-40
8.85581e-40
7.53376e-41
7.74854e-41
1.02964e-41
6.10736e-42
1.13745e-42
4.3067e-43
1.06359e-43
2.69231e-44
8.5548e-45
1.47012e-45
5.9228e-46
6.85697e-47
3.4934e-47
2.647e-48
1.7214e-48
8.08898e-50
6.88412e-50
1.83012e-51
2.14358e-51
4.87974e-53
2.72716e-53
-4.77237e-100
7.77043e-104
-2.46763e-95
4.87648e-99
-2.63299e-91
9.57383e-95
7.08968e-92
1.56519e-91
3.33095e-87
-2.55506e-84
1.61604e-83
-1.00804e-80
3.36414e-80
-1.63954e-77
4.18179e-77
-1.61796e-74
3.66556e-74
-1.14877e-71
2.47934e-71
-6.4024e-69
1.36006e-68
-2.9326e-66
6.20454e-66
-1.12813e-63
2.37345e-63
-3.66558e-61
7.63216e-61
-1.00615e-58
2.05976e-58
-2.32492e-56
4.6083e-56
-4.46593e-54
8.4678e-54
-7.06412e-52
1.27446e-51
-9.17952e-50
1.55726e-49
-9.71217e-48
1.52521e-47
-8.26848e-46
1.18759e-45
-5.62023e-44
7.27959e-44
-3.02201e-42
3.46269e-42
-1.26655e-40
1.26168e-40
-4.08326e-39
3.47861e-39
-9.98804e-38
7.15662e-38
-1.82489e-36
1.08576e-36
-2.45816e-35
1.19996e-35
-2.41088e-34
9.48749e-35
-1.6937e-33
5.20917e-34
-8.29e-33
1.91536e-33
-2.72535e-32
4.55897e-33
-5.80827e-32
6.82723e-33
-7.78922e-32
6.19631e-33
-6.29713e-32
3.24954e-33
-2.87537e-32
9.4004e-34
-6.69147e-33
1.48742e-34
-6.52874e-34
1.71742e-35
4.3265e-39
2.01258e-36
9.4658e-38
2.2113e-37
2.16188e-38
2.21387e-38
3.39821e-39
1.99851e-39
4.31072e-40
1.61526e-40
4.62762e-41
1.15727e-41
4.27129e-42
7.23485e-43
3.3895e-43
3.8563e-44
2.28738e-44
1.69698e-45
1.28669e-45
5.89295e-47
5.85851e-47
1.5085e-48
2.07013e-48
5.32286e-50
2.52467e-50
-2.91779e-97
5.36565e-101
-1.43321e-92
3.19642e-96
-1.18338e-88
5.44107e-92
7.58294e-89
-4.57456e-86
1.73989e-84
-1.40383e-81
6.97693e-81
-4.28987e-78
1.27233e-77
-6.01756e-75
1.41655e-74
-5.28627e-72
1.12272e-71
-3.38276e-69
6.88711e-69
-1.706e-66
3.42544e-66
-7.07151e-64
1.41428e-63
-2.45751e-61
4.88629e-61
-7.19914e-59
1.41614e-58
-1.77771e-56
3.43803e-56
-3.68751e-54
6.91662e-54
-6.35386e-52
1.1439e-51
-9.02085e-50
1.55342e-49
-1.05403e-47
1.71848e-47
-1.00541e-45
1.53175e-45
-7.75167e-44
1.09223e-43
-4.79957e-42
6.17726e-42
-2.36786e-40
2.73189e-40
-9.17685e-39
9.32958e-39
-2.7593e-37
2.42844e-37
-6.34504e-36
4.74687e-36
-1.09743e-34
6.88439e-35
-1.4083e-33
7.32537e-34
-1.32464e-32
5.63532e-33
-9.0101e-32
3.05542e-32
-4.33039e-31
1.12917e-31
-1.42231e-30
2.75823e-31
-3.09128e-30
4.3545e-31
-4.34146e-30
4.30983e-31
-3.80181e-30
2.56513e-31
-1.96035e-30
8.73696e-32
-5.38146e-31
1.66203e-32
-6.46484e-32
2.21301e-33
-5.05528e-34
2.94033e-34
1.49826e-35
3.65926e-35
3.99253e-36
4.14911e-36
7.17648e-37
4.24312e-37
1.03634e-37
3.88426e-38
1.26399e-38
3.14873e-39
1.32316e-39
2.22303e-40
1.18833e-40
1.33464e-41
9.05285e-42
6.59297e-43
5.73187e-43
2.55875e-44
2.92739e-44
7.27234e-46
1.1551e-45
3.29431e-47
1.33489e-47
-1.73123e-94
3.60688e-98
-7.766e-90
1.93314e-93
-5.7154e-86
2.58605e-89
1.89368e-86
-4.15049e-83
5.44223e-82
-5.34653e-79
2.0047e-78
-1.35603e-75
3.33945e-75
-1.67448e-72
3.40646e-72
-1.32213e-69
2.47683e-69
-7.66772e-67
1.39228e-66
-3.51202e-64
6.32915e-64
-1.3209e-61
2.38079e-61
-4.15597e-59
7.47251e-59
-1.09978e-56
1.96199e-56
-2.44756e-54
4.30406e-54
-4.56483e-52
7.81551e-52
-7.06469e-50
1.16699e-49
-9.01241e-48
1.43295e-47
-9.47282e-46
1.43671e-45
-8.14341e-44
1.16548e-43
-5.67833e-42
7.60568e-42
-3.19596e-40
3.964e-40
-1.4425e-38
1.62777e-38
-5.1537e-37
5.20451e-37
-1.44094e-35
1.27807e-35
-3.10716e-34
2.37277e-34
-5.07738e-33
3.2883e-33
-6.19689e-32
3.3648e-32
-5.57837e-31
2.5123e-31
-3.66187e-30
1.34029e-30
-1.72056e-29
4.95672e-30
-5.61655e-29
1.23609e-29
-1.2376e-28
2.0443e-29
-1.80807e-28
2.1898e-29
-1.70194e-28
1.46743e-29
-9.83703e-29
5.84949e-30
-3.17273e-29
1.33404e-30
-4.71592e-30
2.03381e-31
-9.80938e-32
3.04672e-32
1.61523e-33
4.28017e-33
5.08234e-34
5.47883e-34
1.04579e-34
6.32293e-35
1.71608e-35
6.5236e-36
2.36934e-36
5.94689e-37
2.79846e-37
4.70698e-38
2.82607e-38
3.15622e-39
2.41207e-39
1.7335e-40
1.70436e-40
7.43669e-42
9.67126e-42
2.31598e-43
4.21595e-43
1.3169e-44
4.57999e-45
-9.49947e-92
2.26463e-95
-3.81244e-87
1.05023e-90
-2.7493e-83
1.06222e-86
-2.0553e-80
-1.80224e-80
9.55744e-80
-1.53705e-76
3.84744e-76
-3.34857e-73
6.18939e-73
-3.68507e-70
5.94855e-70
-2.63184e-67
4.03659e-67
-1.38825e-64
2.10414e-64
-5.78751e-62
8.82133e-62
-1.97773e-59
3.04524e-59
-5.63894e-57
8.73709e-57
-1.34898e-54
2.0897e-54
-2.70755e-52
4.16235e-52
-4.54322e-50
6.85052e-50
-6.31885e-48
9.26913e-48
-7.24751e-46
1.03193e-45
-6.85435e-44
9.39304e-44
-5.30872e-42
6.93853e-42
-3.3439e-40
4.14219e-40
-1.70749e-38
1.98675e-38
-7.0291e-37
7.56208e-37
-2.30694e-35
2.25963e-35
-5.9751e-34
5.22769e-34
-1.20414e-32
9.20841e-33
-1.85382e-31
1.2184e-31
-2.14692e-30
1.19729e-30
-1.84513e-29
8.65309e-30
-1.16489e-28
4.52427e-29
-5.32544e-28
1.66612e-28
-1.71774e-27
4.21736e-28
-3.81245e-27
7.25692e-28
-5.75127e-27
8.3446e-28
-5.76971e-27
6.2427e-28
-3.70597e-27
2.89374e-28
-1.39578e-27
7.90117e-29
-2.56915e-28
1.37739e-29
-9.86369e-30
2.32831e-30
1.23168e-31
3.70152e-31
4.67533e-32
5.35816e-32
1.10818e-32
6.97817e-33
2.07053e-33
8.09961e-34
3.23404e-34
8.27503e-35
4.29891e-35
7.30898e-36
4.86268e-36
5.44339e-37
4.62758e-37
3.3029e-38
3.62927e-38
1.5548e-39
2.27443e-39
5.25798e-41
1.08802e-40
3.69186e-42
1.10527e-42
-5.07444e-89
1.42522e-92
-1.64348e-84
5.50467e-88
-1.1654e-80
3.94075e-84
-2.01419e-77
-5.35474e-78
2.23034e-79
-3.67303e-74
4.06763e-74
-6.78547e-71
7.55491e-71
-6.65096e-68
7.31016e-68
-4.31006e-65
4.79464e-65
-2.07064e-62
2.3695e-62
-7.8637e-60
9.30435e-60
-2.44133e-57
2.98255e-57
-6.30528e-55
7.89608e-55
-1.36292e-52
1.73384e-52
-2.46566e-50
3.1566e-50
-3.72029e-48
4.7355e-48
-4.64822e-46
5.83509e-46
-4.79272e-44
5.91358e-44
-4.07759e-42
4.90117e-42
-2.84398e-40
3.3022e-40
-1.61656e-38
1.80432e-38
-7.47635e-37
7.95693e-37
-2.79887e-35
2.80257e-35
-8.40756e-34
7.80963e-34
-2.00857e-32
1.69882e-32
-3.76722e-31
2.83471e-31
-5.44426e-30
3.57644e-30
-5.96476e-29
3.36987e-29
-4.88049e-28
2.35108e-28
-2.95279e-27
1.19973e-27
-1.30695e-26
4.37582e-27
-4.13912e-26
1.11726e-26
-9.18795e-26
1.98562e-26
-1.41982e-25
2.42958e-26
-1.50386e-25
2.01038e-26
-1.06292e-25
1.07554e-26
-4.63587e-26
3.50927e-27
-1.05307e-26
7.0754e-28
-6.45641e-28
1.34861e-28
6.78458e-30
2.43352e-29
3.1992e-30
3.9904e-30
8.79481e-31
5.86149e-31
1.87395e-31
7.63826e-32
3.30838e-32
8.72172e-33
4.93971e-33
8.57128e-34
6.24437e-34
7.0696e-35
6.61132e-35
4.7256e-36
5.74358e-36
2.43331e-37
3.96777e-37
8.8964e-39
2.0784e-38
7.63534e-40
1.96998e-40
-2.51092e-86
8.54263e-90
-6.30996e-82
2.6791e-85
-4.09846e-78
1.40004e-81
-8.56122e-75
-1.22977e-75
-7.03702e-72
-7.34215e-72
-1.63332e-69
-1.20369e-68
3.29501e-69
-1.05002e-65
5.03995e-66
-6.08242e-63
3.68523e-63
-2.63535e-60
1.85381e-60
-9.09591e-58
7.1148e-58
-2.55648e-55
2.17934e-55
-5.96032e-53
5.43549e-53
-1.16125e-50
1.11302e-50
-1.88869e-48
1.87476e-48
-2.5561e-46
2.58877e-46
-2.86384e-44
2.92857e-44
-2.65104e-42
2.71945e-42
-2.02667e-40
2.06273e-40
-1.27172e-38
1.27216e-38
-6.51583e-37
6.37594e-37
-2.72536e-35
2.58593e-35
-9.25393e-34
8.42048e-34
-2.5355e-32
2.18378e-32
-5.56182e-31
4.45652e-31
-9.66209e-30
7.03021e-30
-1.30492e-28
8.44383e-29
-1.34747e-27
7.61615e-28
-1.04626e-26
5.11595e-27
-6.04404e-26
2.53728e-26
-2.57725e-25
9.11305e-26
-7.96041e-25
2.33145e-25
-1.75403e-24
4.2464e-25
-2.75309e-24
5.47724e-25
-3.04772e-24
4.96231e-25
-2.34446e-24
3.03653e-25
-1.17179e-24
1.17949e-25
-3.26022e-25
2.78406e-26
-3.02493e-26
5.99498e-27
2.69473e-28
1.23014e-27
1.64698e-28
2.28469e-28
5.28316e-29
3.78127e-29
1.28542e-29
5.52799e-30
2.56632e-30
7.05613e-31
4.30839e-31
7.72588e-32
6.09873e-32
7.0739e-33
7.20555e-33
5.22486e-34
6.96072e-34
2.95188e-35
5.32325e-35
1.16872e-36
3.06564e-36
1.22229e-37
2.71514e-38
-1.15634e-83
4.75262e-87
-2.30894e-79
1.22955e-82
-1.25584e-75
5.1301e-79
-2.60347e-72
-2.34634e-73
-2.60827e-69
-1.34925e-69
-1.48595e-66
-1.93963e-66
-5.14618e-64
-1.51581e-63
-9.11551e-62
-7.93289e-61
3.94786e-62
-3.10426e-58
6.27558e-59
-9.5479e-56
3.11235e-56
-2.38228e-53
1.03692e-53
-4.93012e-51
2.62455e-51
-8.5934e-49
5.2522e-49
-1.24708e-46
8.44673e-47
-1.50321e-44
1.0981e-44
-1.50366e-42
1.15968e-42
-1.24532e-40
9.99095e-41
-8.52902e-39
7.00203e-39
-4.80516e-37
3.98098e-37
-2.21547e-35
1.8393e-35
-8.36717e-34
6.878e-34
-2.5708e-32
2.07203e-32
-6.40514e-31
4.99524e-31
-1.28441e-29
9.54385e-30
-2.0561e-28
1.4202e-28
-2.58189e-27
1.62077e-27
-2.50142e-26
1.397e-26
-1.83627e-25
9.01296e-26
-1.00906e-24
4.32723e-25
-4.12549e-24
1.52139e-24
-1.23412e-23
3.87298e-24
-2.67809e-23
7.17085e-24
-4.23168e-23
9.65381e-24
-4.84378e-23
9.47173e-24
-4.00729e-23
6.5598e-24
-2.26724e-23
3.01407e-24
-7.63964e-24
8.61373e-25
-1.02219e-24
2.10404e-25
7.68766e-27
4.87269e-26
6.49373e-27
1.01809e-26
2.43337e-27
1.89315e-27
6.75967e-28
3.10815e-28
1.52979e-28
4.45232e-29
2.90147e-29
5.46228e-30
4.62845e-30
5.58795e-31
6.14574e-31
4.58952e-32
6.64871e-32
2.85977e-33
5.66508e-33
1.22915e-34
3.6047e-34
1.56322e-35
2.97882e-36
-5.14298e-81
2.59109e-84
-8.21776e-77
5.5414e-80
-3.71428e-73
1.93937e-76
-6.93287e-70
-2.97526e-71
-6.75753e-67
-2.32428e-67
-4.10232e-64
-3.06563e-64
-1.71935e-61
-2.15448e-61
-5.30034e-59
-1.01204e-58
-1.21331e-56
-3.52482e-56
-1.99122e-54
-9.61318e-54
-1.94705e-52
-2.11874e-51
3.12886e-53
-3.86691e-49
5.12871e-50
-5.87464e-47
1.41444e-47
-7.41567e-45
2.51903e-45
-7.78495e-43
3.34219e-43
-6.87968e-41
3.45875e-41
-5.05351e-39
2.85159e-39
-3.07924e-37
1.88617e-37
-1.55099e-35
1.00334e-35
-6.4144e-34
4.31815e-34
-2.18215e-32
1.49872e-32
-6.05245e-31
4.19266e-31
-1.3675e-29
9.40361e-30
-2.49691e-28
1.68026e-28
-3.66435e-27
2.35411e-27
-4.25471e-26
2.54764e-26
-3.84737e-25
2.09483e-25
-2.65868e-24
1.29532e-24
-1.38448e-23
5.99924e-24
-5.40315e-23
2.05242e-23
-1.55444e-22
5.16199e-23
-3.29517e-22
9.635e-23
-5.19386e-22
1.33987e-22
-6.07907e-22
1.40711e-22
-5.34104e-22
1.08983e-22
-3.37401e-22
5.86869e-23
-1.35721e-22
2.04483e-23
-2.50832e-23
5.67879e-24
1.406e-25
1.48324e-24
1.91788e-25
3.49006e-25
8.49498e-26
7.31633e-26
2.71242e-26
1.35569e-26
7.00385e-27
2.19164e-27
1.51061e-27
3.02938e-28
2.73248e-28
3.47945e-29
4.10015e-29
3.18992e-30
4.99046e-30
2.1972e-31
4.75437e-31
1.02453e-32
3.34969e-32
1.57929e-33
2.56331e-34
-2.16021e-78
1.34423e-81
-2.78687e-74
2.39014e-77
-1.0441e-70
7.22521e-74
-1.74132e-67
7.12544e-72
-1.5817e-64
-3.47406e-65
-9.13375e-62
-4.42847e-62
-3.71419e-59
-2.86244e-59
-1.13026e-56
-1.22362e-56
-2.66015e-54
-3.85295e-54
-4.92066e-52
-9.43354e-52
-7.20762e-50
-1.8482e-49
-8.17549e-48
-2.94894e-47
-6.73585e-46
-3.87166e-45
-3.24206e-44
-4.20044e-43
7.48185e-45
-3.7843e-41
4.68147e-42
-2.8708e-39
6.40467e-40
-1.82274e-37
5.72569e-38
-9.71057e-36
3.81657e-36
-4.33174e-34
1.97337e-34
-1.5958e-32
8.10271e-33
-4.86868e-31
2.6502e-31
-1.21514e-29
6.95045e-30
-2.48285e-28
1.45726e-28
-4.11351e-27
2.43829e-27
-5.50779e-26
3.21401e-26
-5.88042e-25
3.29312e-25
-4.93447e-24
2.57926e-24
-3.19419e-23
1.52602e-23
-1.56999e-22
6.79933e-23
-5.82583e-22
2.25052e-22
-1.60074e-21
5.55238e-22
-3.28771e-21
1.036e-21
-5.12132e-21
1.47246e-21
-6.0605e-21
1.63512e-21
-5.58203e-21
1.39777e-21
-3.87936e-21
8.71661e-22
-1.83184e-21
3.68183e-22
-4.50825e-22
1.16637e-22
1.07937e-24
3.45776e-23
4.20721e-24
9.2349e-24
2.25455e-24
2.19872e-24
8.37076e-25
4.62434e-25
2.48477e-25
8.4672e-26
6.12274e-26
1.32094e-26
1.259e-26
1.70415e-27
2.13726e-27
1.74307e-28
2.92765e-28
1.32524e-29
3.11826e-29
6.67822e-31
2.43109e-30
1.24301e-31
1.698e-32
-8.02786e-76
6.0417e-79
-8.67878e-72
9.23379e-75
-2.76703e-68
2.51007e-71
-4.03741e-65
1.29236e-68
-3.3351e-62
-3.76571e-63
-1.78043e-59
-5.30303e-60
-6.73751e-57
-3.25849e-57
-1.91282e-54
-1.28745e-54
-4.21031e-52
-3.69944e-52
-7.31478e-50
-8.18602e-50
-1.01371e-47
-1.43783e-47
-1.12431e-45
-2.03874e-45
-9.9215e-44
-2.35705e-43
-6.87337e-42
-2.23531e-41
-3.64435e-40
-1.74694e-39
-1.31626e-38
-1.133e-37
-1.6803e-37
-6.13366e-36
4.23491e-37
-2.78331e-34
4.64326e-35
-1.07149e-32
2.73372e-33
-3.45507e-31
1.15204e-31
-9.36653e-30
3.69301e-30
-2.09137e-28
9.28882e-29
-3.8498e-27
1.84422e-27
-5.76813e-26
2.90754e-26
-7.01644e-25
3.61336e-25
-6.85227e-24
3.50435e-24
-5.30395e-23
2.61213e-23
-3.1986e-22
1.47739e-22
-1.4778e-21
6.32226e-22
-5.19669e-21
2.01408e-21
-1.3547e-20
4.84071e-21
-2.67392e-20
8.9536e-21
-4.07781e-20
1.28696e-20
-4.82551e-20
1.49259e-20
-4.60009e-20
1.38866e-20
-3.46329e-20
9.88675e-21
-1.8845e-20
5.01189e-21
-5.97001e-21
1.82804e-21
-2.12854e-22
6.20956e-22
6.83208e-23
1.90472e-22
4.58877e-23
5.19269e-23
2.00836e-23
1.24371e-23
6.89171e-24
2.57736e-24
1.94111e-24
4.52377e-25
4.52683e-25
6.52823e-26
8.66444e-26
7.41918e-27
1.33143e-26
6.20181e-28
1.5816e-27
3.35878e-29
1.36204e-28
7.5297e-30
8.49434e-31
-2.45478e-73
2.19438e-76
-2.27596e-69
2.96351e-72
-6.30541e-66
7.37711e-69
-8.09145e-63
5.32705e-66
-6.05245e-60
-1.60968e-61
-2.95279e-57
-4.62566e-58
-1.02351e-54
-2.88252e-55
-2.65658e-52
-1.07623e-52
-5.32875e-50
-2.85673e-50
-8.42275e-48
-5.77188e-48
-1.06138e-45
-9.18212e-46
-1.07339e-43
-1.17148e-43
-8.73326e-42
-1.21159e-41
-5.7121e-40
-1.02268e-39
-2.99667e-38
-7.07666e-38
-1.24657e-36
-4.02941e-36
-3.98031e-35
-1.89769e-34
-8.9408e-34
-7.42513e-33
-8.30998e-33
-2.43558e-31
1.40251e-32
-6.70719e-30
1.01901e-30
-1.57645e-28
3.72083e-29
-3.10687e-27
9.58265e-28
-5.11654e-26
1.86251e-26
-6.90258e-25
2.81476e-25
-7.59794e-24
3.3254e-24
-6.75606e-23
3.06173e-23
-4.79598e-22
2.17357e-22
-2.6789e-21
1.17554e-21
-1.15842e-20
4.83102e-21
-3.8496e-20
1.47491e-20
-9.46208e-20
3.43113e-20
-1.78083e-19
6.23997e-20
-2.63368e-19
8.97911e-20
-3.08442e-19
1.07458e-19
-3.00731e-19
1.07244e-19
-2.41497e-19
8.57915e-20
-1.48471e-19
5.14522e-20
-5.85939e-20
2.19293e-20
-6.55575e-21
8.57163e-21
8.05016e-22
3.02664e-21
7.06532e-22
9.42778e-22
3.66464e-22
2.56119e-22
1.45202e-22
5.98592e-23
4.66515e-23
1.17984e-23
1.23273e-23
1.90459e-24
2.66252e-24
2.4089e-25
4.60157e-25
2.21874e-26
6.11995e-26
1.29089e-27
5.84608e-27
3.5e-28
3.16457e-29
-6.15627e-71
6.4944e-74
-4.94581e-67
7.85764e-70
-1.19329e-63
1.79498e-66
-1.3537e-60
1.44229e-63
-9.01406e-58
3.11993e-61
-3.97366e-55
-2.19685e-56
-1.24639e-52
-1.78314e-53
-2.92398e-50
-6.684e-51
-5.29204e-48
-1.68453e-48
-7.53708e-46
-3.16023e-46
-8.55509e-44
-4.60991e-44
-7.80158e-42
-5.34724e-42
-5.74315e-40
-4.99629e-40
-3.41983e-38
-3.79166e-38
-1.64705e-36
-2.35061e-36
-6.40879e-35
-1.19584e-34
-2.0019e-33
-5.01251e-33
-4.96437e-32
-1.73651e-31
-9.3676e-31
-4.98243e-30
-1.20396e-29
-1.18943e-28
-4.07617e-29
-2.39213e-27
1.7781e-28
-4.05439e-26
6.65181e-27
-5.86279e-25
1.41244e-25
-7.06423e-24
2.14577e-24
-7.00335e-23
2.46547e-23
-5.64652e-22
2.17754e-22
-3.65724e-21
1.47891e-21
-1.8813e-20
7.66835e-21
-7.5823e-20
3.03241e-20
-2.3751e-19
8.84685e-20
-5.4733e-19
1.98108e-19
-9.75325e-19
3.51452e-19
-1.38515e-18
5.01642e-19
-1.59054e-18
6.1272e-19
-1.57044e-18
6.46535e-19
-1.32504e-18
5.71254e-19
-9.0186e-19
3.98169e-19
-4.29358e-19
2.01656e-19
-8.6065e-20
9.01425e-20
6.55967e-21
3.64077e-20
8.05717e-21
1.29051e-20
4.98511e-21
3.97531e-21
2.28841e-21
1.0515e-21
8.431e-22
2.34214e-22
2.54305e-22
4.26285e-23
6.25267e-23
6.04865e-24
1.22647e-23
6.17802e-25
1.84152e-24
3.86323e-26
1.9634e-25
1.27364e-26
8.79089e-28
-1.24963e-68
1.55773e-71
-8.73591e-65
1.6956e-67
-1.82676e-61
3.5384e-64
-1.83394e-58
2.858e-61
-1.08007e-55
1.03875e-58
-4.25404e-53
9.17184e-57
-1.19832e-50
-5.56875e-52
-2.52378e-48
-2.71959e-49
-4.09709e-46
-7.05308e-47
-5.22996e-44
-1.27822e-44
-5.31986e-42
-1.75189e-42
-4.35092e-40
-1.87975e-40
-2.87837e-38
-1.60874e-38
-1.54614e-36
-1.11087e-36
-6.75768e-35
-6.23753e-35
-2.40466e-33
-2.86396e-33
-6.95208e-32
-1.07976e-31
-1.62304e-30
-3.35329e-30
-3.03087e-29
-8.6009e-29
-4.46081e-28
-1.82761e-27
-4.85259e-27
-3.22777e-26
-3.1294e-26
-4.7461e-25
8.91945e-27
-5.90787e-24
6.45087e-25
-6.2164e-23
1.18612e-23
-5.49865e-22
1.41704e-22
-4.00108e-21
1.23601e-21
-2.35429e-20
8.1385e-21
-1.10971e-19
4.07598e-20
-4.1545e-19
1.55871e-19
-1.22292e-18
4.34243e-19
-2.63003e-18
9.32467e-19
-4.41124e-18
1.60137e-18
-5.95488e-18
2.24941e-18
-6.64867e-18
2.77958e-18
-6.6031e-18
3.05856e-18
-5.7729e-18
2.9323e-18
-4.26144e-18
2.32761e-18
-2.3714e-18
1.42017e-18
-7.05427e-19
7.21411e-19
3.30423e-20
3.29798e-19
6.72705e-20
1.325e-19
5.0241e-20
4.63332e-20
2.68791e-20
1.39146e-20
1.1417e-20
3.51354e-21
3.94837e-21
7.22401e-22
1.10836e-21
1.15023e-22
2.47095e-22
1.30007e-23
4.18898e-23
8.66268e-25
4.97802e-24
3.4768e-25
1.68042e-26
-1.98974e-66
2.93916e-69
-1.21539e-62
2.88229e-65
-2.20228e-59
5.4723e-62
-1.94396e-56
4.2232e-59
-1.01884e-53
1.70915e-56
-3.55745e-51
3.81332e-54
-8.93415e-49
3.21612e-52
-1.68479e-46
-4.32261e-48
-2.44851e-44
-1.80099e-45
-2.79778e-42
-3.56698e-43
-2.54844e-40
-4.85732e-41
-1.86847e-38
-4.97447e-39
-1.1102e-36
-3.97773e-37
-5.37062e-35
-2.53396e-35
-2.12128e-33
-1.30211e-33
-6.84945e-32
-5.44279e-32
-1.80727e-30
-1.86162e-30
-3.88848e-29
-5.23231e-29
-6.79567e-28
-1.21205e-27
-9.57058e-27
-2.31872e-26
-1.06636e-25
-3.66872e-25
-9.15846e-25
-4.81077e-24
-5.35974e-24
-5.25179e-23
-9.28284e-24
-4.78946e-22
3.3082e-23
-3.69636e-21
5.65899e-22
-2.40127e-20
5.34257e-21
-1.27849e-19
3.5385e-20
-5.50206e-19
1.74404e-19
-1.91181e-18
6.51359e-19
-5.26285e-18
1.73844e-18
-1.05443e-17
3.57575e-18
-1.65314e-17
5.90157e-18
-2.10094e-17
8.10599e-18
-2.26488e-17
1.00804e-17
-2.25585e-17
1.14263e-17
-2.01858e-17
1.16778e-17
-1.58364e-17
1.03302e-17
-9.98998e-18
7.41745e-18
-3.96999e-18
4.28507e-18
5.12629e-20
2.2233e-18
4.01828e-19
1.01478e-18
3.72329e-19
4.02891e-19
2.33716e-19
1.37051e-19
1.14498e-19
3.90665e-20
4.5278e-20
9.02751e-21
1.44534e-20
1.60439e-21
3.6475e-21
1.99488e-22
6.95825e-22
1.39888e-23
9.1879e-23
6.85257e-24
1.92894e-25
-2.41045e-64
4.22311e-67
-1.29744e-60
3.74032e-63
-2.06521e-57
6.46953e-60
-1.59602e-54
4.69451e-57
-7.4325e-52
1.88114e-54
-2.32067e-49
4.76187e-52
-5.19127e-47
7.76506e-50
-8.7121e-45
6.91127e-48
-1.13357e-42
-6.25674e-45
-1.15981e-40
-5.45294e-42
-9.46419e-39
-9.03134e-40
-6.22201e-37
-9.53749e-38
-3.31973e-35
-7.40762e-36
-1.44495e-33
-4.45376e-34
-5.14879e-32
-2.12582e-32
-1.50501e-30
-8.1744e-31
-3.61104e-29
-2.55621e-29
-7.10565e-28
-6.54156e-28
-1.14369e-26
-1.37581e-26
-1.49847e-25
-2.38481e-25
-1.58626e-24
-3.4128e-24
-1.34092e-23
-4.03585e-23
-8.79465e-23
-3.94652e-22
-4.17903e-22
-3.19875e-21
-1.00701e-21
-2.1576e-20
8.35611e-22
-1.22593e-19
1.52393e-20
-5.84253e-19
1.14946e-19
-2.29228e-18
5.85974e-19
-7.43245e-18
2.18126e-18
-1.89744e-17
5.64342e-18
-3.54987e-17
1.11255e-17
-5.10949e-17
1.75551e-17
-6.07944e-17
2.34779e-17
-6.33494e-17
2.93626e-17
-6.33019e-17
3.39483e-17
-5.72905e-17
3.63701e-17
-4.68452e-17
3.50828e-17
-3.25429e-17
2.88613e-17
-1.60725e-17
1.91169e-17
-1.81587e-18
1.13117e-17
1.70478e-18
5.8727e-18
2.04906e-18
2.63473e-18
1.5157e-18
1.00679e-18
8.52316e-19
3.20958e-19
3.82526e-19
8.2639e-20
1.37838e-19
1.6274e-20
3.91446e-20
2.21047e-21
8.36888e-21
1.60606e-22
1.22384e-21
9.63153e-23
8.03665e-25
-2.21773e-62
4.59385e-65
-1.06036e-58
3.69717e-61
-1.49752e-55
5.83781e-58
-1.02753e-52
3.9479e-55
-4.23077e-50
1.51288e-52
-1.17463e-47
3.78162e-50
-2.35015e-45
6.58818e-48
-3.52981e-43
8.01167e-46
-4.09101e-41
6.18644e-44
-3.74752e-39
1.46805e-42
-2.74403e-37
-7.7524e-39
-1.62018e-35
-1.19034e-36
-7.77229e-34
-9.94629e-35
-3.04607e-32
-5.90715e-33
-9.79068e-31
-2.68496e-31
-2.58729e-29
-9.64566e-30
-5.62813e-28
-2.78658e-28
-1.00777e-26
-6.54118e-27
-1.48341e-25
-1.25584e-25
-1.78985e-24
-1.9803e-24
-1.76155e-23
-2.57151e-23
-1.40329e-22
-2.75405e-22
-8.94621e-22
-2.43454e-21
-4.46456e-21
-1.77695e-20
-1.66062e-20
-1.07181e-19
-3.69373e-20
-5.37759e-19
7.83902e-21
-2.25774e-18
2.31684e-19
-8.01539e-18
1.45455e-18
-2.47047e-17
5.68474e-18
-5.75481e-17
1.46792e-17
-9.82711e-17
2.75979e-17
-1.27191e-16
4.17017e-17
-1.40699e-16
5.46088e-17
-1.45429e-16
6.8985e-17
-1.48002e-16
8.07267e-17
-1.3336e-16
8.93442e-17
-1.11573e-16
9.2104e-17
-8.316e-17
8.45899e-17
-4.83564e-17
6.46833e-17
-1.27406e-17
4.32063e-17
4.87833e-18
2.52589e-17
8.19874e-18
1.27023e-17
7.18161e-18
5.42404e-18
4.63203e-18
1.92818e-18
2.35773e-18
5.52205e-19
9.58748e-19
1.20288e-19
3.06332e-19
1.77797e-20
7.33524e-20
1.31381e-21
1.1854e-20
9.63624e-22
-6.66704e-26
-1.55215e-60
3.7866e-63
-6.6366e-57
2.78808e-59
-8.35909e-54
4.02594e-56
-5.1267e-51
2.51864e-53
-1.88817e-48
9.05893e-51
-4.67305e-46
2.15487e-48
-8.31968e-44
3.63298e-46
-1.1149e-41
4.46138e-44
-1.1587e-39
3.96862e-42
-9.50031e-38
2.3973e-40
-6.23793e-36
7.00221e-39
-3.31591e-34
-5.2744e-36
-1.43345e-32
-8.46902e-34
-5.06773e-31
-5.63987e-32
-1.47109e-29
-2.56807e-30
-3.51576e-28
-8.84724e-29
-6.92796e-27
-2.39837e-27
-1.1261e-25
-5.21709e-26
-1.50893e-24
-9.20754e-25
-1.66394e-23
-1.32723e-23
-1.50555e-22
-1.56896e-22
-1.1126e-21
-1.52486e-21
-6.66802e-21
-1.22035e-20
-3.20566e-20
-8.0514e-20
-1.21768e-19
-4.38439e-19
-3.50255e-19
-1.97509e-18
-6.62361e-19
-7.41909e-18
-1.36615e-19
-2.38358e-17
2.11412e-18
-7.17655e-17
1.06924e-17
-1.4466e-16
2.87887e-17
-1.75421e-16
5.19238e-17
-2.67772e-16
7.56338e-17
-2.59482e-16
1.00457e-16
-2.33219e-16
1.31207e-16
-2.93585e-16
1.54226e-16
-2.56919e-16
1.74418e-16
-2.16248e-16
1.89045e-16
-1.69299e-16
1.89542e-16
-1.11272e-16
1.66359e-16
-4.42927e-17
1.24381e-16
8.24329e-18
8.12465e-17
2.383e-17
4.56659e-17
2.51228e-17
2.17677e-17
1.8674e-17
8.61335e-18
1.07897e-17
2.73294e-18
4.94005e-18
6.54042e-19
1.76659e-18
1.04029e-19
4.70168e-19
7.5654e-21
8.3104e-20
6.7535e-21
-9.61756e-25
-8.28164e-59
2.3672e-61
-3.19206e-55
1.60807e-57
-3.60119e-52
2.1317e-54
-1.97759e-49
1.22817e-51
-6.52526e-47
4.09197e-49
-1.44812e-44
9.06631e-47
-2.31276e-42
1.43489e-44
-2.7752e-40
1.67879e-42
-2.57699e-38
1.46787e-40
-1.89402e-36
9.491e-39
-1.11887e-34
4.30885e-37
-5.35091e-33
1.08813e-35
-2.09066e-31
-1.76357e-33
-6.68515e-30
-3.35844e-31
-1.75642e-28
-1.77285e-29
-3.80183e-27
-6.17977e-28
-6.79028e-26
-1.61424e-26
-1.00131e-24
-3.30455e-25
-1.21873e-23
-5.41436e-24
-1.22301e-22
-7.1813e-23
-1.00998e-21
-7.76131e-22
-6.84494e-21
-6.86251e-21
-3.79293e-20
-4.9775e-20
-1.7094e-19
-2.96818e-19
-6.21843e-19
-1.45913e-18
-1.8084e-18
-5.94157e-18
-4.15187e-18
-2.03028e-17
-7.37876e-18