/*--------------------------------*- C++ -*----------------------------------*\
| =========                 |                                                 |
| \\      /  F ield         | OpenFOAM: The Open Source CFD Toolbox           |
|  \\    /   O peration     | Version:  2.4.0                                 |
|   \\  /    A nd           | Web:      www.OpenFOAM.org                      |
|    \\/     M anipulation  |                                                 |
\*---------------------------------------------------------------------------*/
FoamFile
{
    version     2.0;
    format      ascii;
    class       volVectorField;
    location    "0.048";
    object      U;
}
// * * * * * * * * * * * * * * * * * * * * * * * * * * * * * * * * * * * * * //

dimensions      [0 1 -1 0 0 0 0];

internalField   nonuniform List<vector> 
10000
(
(-4.62212e-06 4.40556e-06 0)
(-2.07578e-05 7.86752e-06 0)
(-4.18654e-05 8.37586e-06 0)
(-6.21005e-05 7.9621e-06 0)
(-7.99192e-05 7.40022e-06 0)
(-9.50353e-05 6.90134e-06 0)
(-0.000107829 6.49764e-06 0)
(-0.000118654 6.15472e-06 0)
(-0.000127739 5.84522e-06 0)
(-0.000135158 5.54594e-06 0)
(-0.000140856 5.2498e-06 0)
(-0.000144597 4.94604e-06 0)
(-0.00014624 4.46737e-06 0)
(-0.000145633 3.93097e-06 0)
(-0.000142441 3.35857e-06 0)
(-0.000136374 2.7303e-06 0)
(-0.000127145 2.04218e-06 0)
(-0.000114469 1.29894e-06 0)
(-9.80915e-05 5.07137e-07 0)
(-7.78321e-05 -3.26519e-07 0)
(-5.35039e-05 -1.17348e-06 0)
(-2.50417e-05 -2.06576e-06 0)
(7.49198e-06 -2.96603e-06 0)
(4.40149e-05 -3.85442e-06 0)
(8.4305e-05 -4.70901e-06 0)
(0.000128003 -5.50732e-06 0)
(0.000174604 -6.22809e-06 0)
(0.000223451 -6.85012e-06 0)
(0.000273748 -7.34993e-06 0)
(0.000324564 -7.70124e-06 0)
(0.00037485 -7.87733e-06 0)
(0.00042345 -7.85522e-06 0)
(0.000469125 -7.61867e-06 0)
(0.000510589 -7.15797e-06 0)
(0.000546554 -6.46865e-06 0)
(0.000575778 -5.5521e-06 0)
(0.000597112 -4.41758e-06 0)
(0.000609536 -3.09282e-06 0)
(0.000612111 -1.66147e-06 0)
(0.000604302 4.68617e-08 0)
(0.000585804 1.81952e-06 0)
(0.0005564 3.62399e-06 0)
(0.00051627 5.4223e-06 0)
(0.000465895 7.15992e-06 0)
(0.000406016 8.78661e-06 0)
(0.000337628 1.02579e-05 0)
(0.000261978 1.15245e-05 0)
(0.000180504 1.25428e-05 0)
(9.47862e-05 1.32834e-05 0)
(6.52314e-06 1.37249e-05 0)
(-7.23243e-06 1.9376e-05 0)
(-3.42029e-05 3.55195e-05 0)
(-6.53907e-05 3.64982e-05 0)
(-9.31062e-05 3.2412e-05 0)
(-0.000114626 2.7348e-05 0)
(-0.000129665 2.26228e-05 0)
(-0.000138882 1.85162e-05 0)
(-0.000142887 1.48772e-05 0)
(-0.000142043 1.14588e-05 0)
(-0.000136419 8.02422e-06 0)
(-0.000125822 4.38924e-06 0)
(-0.000109917 4.03591e-07 0)
(-8.81272e-05 -4.16288e-06 0)
(-5.97431e-05 -9.28963e-06 0)
(-2.41359e-05 -1.50015e-05 0)
(1.93838e-05 -2.13113e-05 0)
(7.1524e-05 -2.8192e-05 0)
(0.000132924 -3.55815e-05 0)
(0.000204106 -4.33909e-05 0)
(0.000285427 -5.15046e-05 0)
(0.00037707 -5.97501e-05 0)
(0.000478977 -6.80014e-05 0)
(0.000590821 -7.60151e-05 0)
(0.000712 -8.35468e-05 0)
(0.000841577 -9.0336e-05 0)
(0.000978247 -9.6113e-05 0)
(0.00112033 -0.000100605 0)
(0.0012658 -0.000103541 0)
(0.00141225 -0.000104655 0)
(0.00155699 -0.000103705 0)
(0.00169704 -0.000100483 0)
(0.00182921 -9.48394e-05 0)
(0.00195017 -8.66917e-05 0)
(0.00205655 -7.60315e-05 0)
(0.00214502 -6.29248e-05 0)
(0.00221246 -4.75155e-05 0)
(0.002256 -3.00259e-05 0)
(0.00227313 -1.07691e-05 0)
(0.00226198 9.74711e-06 0)
(0.00222117 3.13027e-05 0)
(0.00214988 5.32374e-05 0)
(0.00204817 7.50085e-05 0)
(0.00191675 9.6077e-05 0)
(0.00175712 0.000115889 0)
(0.00157151 0.000133914 0)
(0.0013628 0.000149686 0)
(0.00113447 0.000162784 0)
(0.000890524 0.000172852 0)
(0.000635343 0.000179642 0)
(0.000373567 0.000182997 0)
(-7.27156e-06 3.86573e-05 0)
(-3.44533e-05 6.74855e-05 0)
(-6.35068e-05 6.61684e-05 0)
(-8.6465e-05 5.51816e-05 0)
(-0.000100523 4.21969e-05 0)
(-0.000105509 2.98408e-05 0)
(-0.000102168 1.87249e-05 0)
(-9.11853e-05 8.58711e-06 0)
(-7.2948e-05 -1.11612e-06 0)
(-4.74859e-05 -1.09285e-05 0)
(-1.45032e-05 -2.13096e-05 0)
(2.6538e-05 -3.26195e-05 0)
(7.6404e-05 -4.50613e-05 0)
(0.000136001 -5.88413e-05 0)
(0.00020627 -7.40498e-05 0)
(0.000288184 -9.06623e-05 0)
(0.000382692 -0.000108581 0)
(0.000490641 -0.000127636 0)
(0.000612708 -0.000147582 0)
(0.000749342 -0.000168096 0)
(0.000900718 -0.000188765 0)
(0.00106667 -0.000209113 0)
(0.00124665 -0.000228564 0)
(0.00143965 -0.000246487 0)
(0.00164418 -0.000262207 0)
(0.00185819 -0.000275017 0)
(0.0020791 -0.000284196 0)
(0.0023038 -0.000289027 0)
(0.00252865 -0.000288825 0)
(0.00274955 -0.000282977 0)
(0.00296198 -0.000270982 0)
(0.0031611 -0.000252481 0)
(0.00334189 -0.000227287 0)
(0.00349927 -0.000195403 0)
(0.00362827 -0.000157035 0)
(0.00372418 -0.000112603 0)
(0.00378273 -6.27415e-05 0)
(0.0038001 -8.28305e-06 0)
(0.00377349 4.95821e-05 0)
(0.00370091 0.000109678 0)
(0.00358116 0.000170638 0)
(0.00341435 0.00023097 0)
(0.00320164 0.000289172 0)
(0.00294539 0.000343757 0)
(0.00264903 0.000393288 0)
(0.00231706 0.000436469 0)
(0.00195486 0.00047218 0)
(0.00156861 0.000499498 0)
(0.00116508 0.000517749 0)
(0.000751453 0.000526532 0)
(-6.76575e-06 5.68855e-05 0)
(-3.05329e-05 9.54026e-05 0)
(-5.3374e-05 8.9423e-05 0)
(-6.79217e-05 6.927e-05 0)
(-7.17096e-05 4.6197e-05 0)
(-6.47537e-05 2.41272e-05 0)
(-4.78251e-05 3.98505e-06 0)
(-2.15952e-05 -1.46565e-05 0)
(1.3606e-05 -3.26768e-05 0)
(5.78432e-05 -5.09788e-05 0)
(0.000111541 -7.03365e-05 0)
(0.000175418 -9.13537e-05 0)
(0.000250421 -0.000114448 0)
(0.000337655 -0.000139907 0)
(0.000438303 -0.000167854 0)
(0.000553566 -0.000198253 0)
(0.000684595 -0.000230928 0)
(0.000832409 -0.000265563 0)
(0.000997824 -0.000301699 0)
(0.00118138 -0.000338725 0)
(0.00138327 -0.000375875 0)
(0.00160328 -0.000412243 0)
(0.00184067 -0.000446783 0)
(0.00209415 -0.000478339 0)
(0.0023618 -0.000505659 0)
(0.002641 -0.000527431 0)
(0.00292848 -0.000542308 0)
(0.00322024 -0.000548961 0)
(0.00351165 -0.000546135 0)
(0.00379743 -0.000532718 0)
(0.00407178 -0.000507799 0)
(0.0043285 -0.00047073 0)
(0.00456111 -0.000421171 0)
(0.00476308 -0.000359136 0)
(0.00492799 -0.000285029 0)
(0.00504972 -0.000199665 0)
(0.00512273 -0.000104295 0)
(0.00514198 -5.84582e-07 0)
(0.00510378 0.000109812 0)
(0.00500546 0.000224161 0)
(0.00484543 0.000339932 0)
(0.00462371 0.000454377 0)
(0.0043418 0.00056466 0)
(0.00400269 0.000667975 0)
(0.00361084 0.000761628 0)
(0.00317211 0.000843161 0)
(0.00269355 0.000910462 0)
(0.00218327 0.000961818 0)
(0.00165017 0.000995977 0)
(0.00110368 0.0010122 0)
(-6.21638e-06 7.26699e-05 0)
(-2.61056e-05 0.00011738 0)
(-4.2439e-05 0.00010457 0)
(-4.87132e-05 7.3602e-05 0)
(-4.29616e-05 3.90436e-05 0)
(-2.54374e-05 5.98174e-06 0)
(3.07362e-06 -2.44621e-05 0)
(4.19522e-05 -5.29438e-05 0)
(9.09718e-05 -8.07228e-05 0)
(0.000150331 -0.000109095 0)
(0.000220614 -0.000139176 0)
(0.000302728 -0.000171837 0)
(0.000397821 -0.000207703 0)
(0.000507212 -0.000247171 0)
(0.000632307 -0.000290409 0)
(0.000774525 -0.000337366 0)
(0.000935223 -0.000387772 0)
(0.00111561 -0.000441135 0)
(0.00131668 -0.000496735 0)
(0.0015391 -0.00055362 0)
(0.00178313 -0.000610607 0)
(0.00204857 -0.00066629 0)
(0.0023346 -0.000719053 0)
(0.00263975 -0.000767095 0)
(0.00296179 -0.000808456 0)
(0.0032977 -0.000841069 0)
(0.00364362 -0.000862818 0)
(0.00399487 -0.000871618 0)
(0.00434594 -0.000865508 0)
(0.00469055 -0.000842736 0)
(0.00502178 -0.000801867 0)
(0.00533217 -0.000741865 0)
(0.00561395 -0.000662179 0)
(0.00585919 -0.000562817 0)
(0.00606009 -0.000444404 0)
(0.00620914 -0.000308208 0)
(0.00629944 -0.000156171 0)
(0.00632525 9.11705e-06 0)
(0.0062815 0.00018481 0)
(0.0061644 0.000366868 0)
(0.00597229 0.000551229 0)
(0.00570497 0.000733515 0)
(0.00536405 0.000909186 0)
(0.00495305 0.00107375 0)
(0.0044773 0.00122293 0)
(0.00394389 0.00135277 0)
(0.00336144 0.00145991 0)
(0.00273987 0.00154161 0)
(0.00209011 0.00159588 0)
(0.00142374 0.00162154 0)
(-5.81146e-06 8.64838e-05 0)
(-2.26062e-05 0.00013416 0)
(-3.37447e-05 0.000112706 0)
(-3.35281e-05 6.97453e-05 0)
(-2.04645e-05 2.28345e-05 0)
(4.93994e-06 -2.19815e-05 0)
(4.18742e-05 -6.34999e-05 0)
(8.97987e-05 -0.000102683 0)
(0.000148608 -0.000141219 0)
(0.00021866 -0.000180824 0)
(0.000300727 -0.000222968 0)
(0.00039592 -0.000268805 0)
(0.000505607 -0.000319168 0)
(0.000631329 -0.000374586 0)
(0.000774725 -0.000435287 0)
(0.000937452 -0.000501201 0)
(0.00112111 -0.000571952 0)
(0.00132714 -0.000646852 0)
(0.00155674 -0.000724898 0)
(0.00181079 -0.000804767 0)
(0.00208971 -0.000884811 0)
(0.00239336 -0.000963066 0)
(0.00272097 -0.00103726 0)
(0.003071 -0.00110483 0)
(0.00344106 -0.00116299 0)
(0.00382782 -0.0012088 0)
(0.00422699 -0.00123921 0)
(0.0046333 -0.00125124 0)
(0.00504045 -0.00124207 0)
(0.00544129 -0.00120915 0)
(0.00582782 -0.00115037 0)
(0.00619141 -0.00106421 0)
(0.00652296 -0.00094984 0)
(0.0068132 -0.000807207 0)
(0.00705288 -0.000637145 0)
(0.00723311 -0.000441405 0)
(0.00734563 -0.00022268 0)
(0.00738331 1.5407e-05 0)
(0.00734004 0.000268337 0)
(0.00721116 0.000530789 0)
(0.00699427 0.000796852 0)
(0.00668884 0.00106016 0)
(0.00629656 0.00131413 0)
(0.00582134 0.00155219 0)
(0.00526935 0.00176811 0)
(0.00464885 0.00195615 0)
(0.00397002 0.00211135 0)
(0.00324461 0.00222972 0)
(0.0024856 0.00230836 0)
(0.0017068 0.00234556 0)
(-5.58821e-06 9.90302e-05 0)
(-2.04576e-05 0.000147224 0)
(-2.82824e-05 0.000115856 0)
(-2.39498e-05 6.01714e-05 0)
(-6.368e-06 4.51893e-07 0)
(2.37609e-05 -5.64836e-05 0)
(6.56184e-05 -0.00010946 0)
(0.000118733 -0.000159831 0)
(0.000183134 -0.000209761 0)
(0.000259359 -0.000261409 0)
(0.000348384 -0.00031662 0)
(0.000451536 -0.000376844 0)
(0.000570412 -0.000443144 0)
(0.000706793 -0.000516196 0)
(0.000862577 -0.000596301 0)
(0.00103969 -0.000683369 0)
(0.00124003 -0.000776918 0)
(0.00146531 -0.000876064 0)
(0.00171702 -0.000979514 0)
(0.00199629 -0.00108556 0)
(0.00230379 -0.00119204 0)
(0.00263959 -0.00129639 0)
(0.00300307 -0.00139558 0)
(0.00339275 -0.0014862 0)
(0.00380618 -0.00156452 0)
(0.00423986 -0.00162656 0)
(0.00468917 -0.00166823 0)
(0.00514832 -0.00168545 0)
(0.00561035 -0.00167434 0)
(0.00606724 -0.0016314 0)
(0.00650993 -0.00155371 0)
(0.00692859 -0.00143913 0)
(0.0073128 -0.00128642 0)
(0.00765181 -0.00109543 0)
(0.00793489 -0.000867162 0)
(0.00815158 -0.000603852 0)
(0.00829208 -0.00030901 0)
(0.00834792 1.25928e-05 0)
(0.0083116 0.000354498 0)
(0.00817726 0.000709951 0)
(0.0079418 0.00107087 0)
(0.00760417 0.00142856 0)
(0.00716596 0.001774 0)
(0.00663145 0.00209815 0)
(0.00600758 0.00239242 0)
(0.00530385 0.00264888 0)
(0.00453205 0.00286069 0)
(0.00370589 0.00302232 0)
(0.00284055 0.00312975 0)
(0.00195223 0.00318062 0)
(-5.53026e-06 0.000111019 0)
(-1.96384e-05 0.000158208 0)
(-2.61065e-05 0.000116281 0)
(-2.01449e-05 4.75816e-05 0)
(-9.14691e-07 -2.50531e-05 0)
(3.07457e-05 -9.41384e-05 0)
(7.4028e-05 -0.000158642 0)
(0.000128542 -0.000220377 0)
(0.000194464 -0.000282027 0)
(0.000272516 -0.000346227 0)
(0.000363883 -0.000415219 0)
(0.000470116 -0.000490779 0)
(0.00059305 -0.000574216 0)
(0.000734731 -0.000666376 0)
(0.000897347 -0.00076764 0)
(0.00108315 -0.000877915 0)
(0.00129434 -0.00099663 0)
(0.001533 -0.00112272 0)
(0.00180096 -0.00125461 0)
(0.00209971 -0.0013902 0)
(0.00243028 -0.00152678 0)
(0.00279307 -0.00166111 0)
(0.00318772 -0.00178936 0)
(0.00361295 -0.00190716 0)
(0.0040664 -0.00200972 0)
(0.0045445 -0.00209187 0)
(0.00504241 -0.00214827 0)
(0.00555392 -0.00217356 0)
(0.00607144 -0.0021626 0)
(0.00658607 -0.00211074 0)
(0.00708768 -0.00201407 0)
(0.00756518 -0.00186967 0)
(0.0080067 -0.00167579 0)
(0.00839996 -0.00143205 0)
(0.00873256 -0.00113959 0)
(0.00899235 -0.000801136 0)
(0.00916788 -0.000421098 0)
(0.00924845 -5.53919e-06 0)
(0.00922545 0.000437389 0)
(0.00909207 0.000898849 0)
(0.00884365 0.00136832 0)
(0.00847856 0.00183441 0)
(0.00799816 0.00228524 0)
(0.00740705 0.00270888 0)
(0.006713 0.00309387 0)
(0.0059268 0.0034297 0)
(0.00506201 0.00370722 0)
(0.00413451 0.00391906 0)
(0.00316196 0.00405986 0)
(0.00216318 0.0041265 0)
(-5.60458e-06 0.000123063 0)
(-1.99858e-05 0.000168681 0)
(-2.69226e-05 0.000116178 0)
(-2.17016e-05 3.46278e-05 0)
(-3.582e-06 -5.06759e-05 0)
(2.65426e-05 -0.000131656 0)
(6.79069e-05 -0.000207477 0)
(0.000120219 -0.000280475 0)
(0.000183809 -0.000353898 0)
(0.000259587 -0.00043089 0)
(0.000348943 -0.000514128 0)
(0.000453655 -0.00060574 0)
(0.000575813 -0.000707304 0)
(0.000717753 -0.000819853 0)
(0.000881985 -0.000943875 0)
(0.00107111 -0.00107931 0)
(0.00128771 -0.00122552 0)
(0.00153428 -0.00138131 0)
(0.00181307 -0.00154482 0)
(0.00212606 -0.00171353 0)
(0.00247475 -0.0018842 0)
(0.00285999 -0.00205287 0)
(0.00328186 -0.00221482 0)
(0.00373939 -0.00236465 0)
(0.00423046 -0.00249635 0)
(0.00475159 -0.00260341 0)
(0.00529782 -0.002679 0)
(0.00586257 -0.00271626 0)
(0.00643766 -0.00270857 0)
(0.00701328 -0.00264991 0)
(0.00757819 -0.00253516 0)
(0.00811991 -0.00236042 0)
(0.00862503 -0.00212328 0)
(0.00907953 -0.00182304 0)
(0.00946916 -0.0014609 0)
(0.00977984 -0.00104005 0)
(0.00999808 -0.00056584 0)
(0.0101114 -4.57771e-05 0)
(0.0101092 0.00051071 0)
(0.00998292 0.00109188 0)
(0.00972676 0.00168452 0)
(0.00933812 0.00227413 0)
(0.00881803 0.00284549 0)
(0.00817126 0.00338323 0)
(0.00740645 0.0038725 0)
(0.00653584 0.00429966 0)
(0.005575 0.00465281 0)
(0.00454227 0.00492234 0)
(0.00345813 0.00510129 0)
(0.00234443 0.0051856 0)
(-5.7769e-06 0.000135658 0)
(-2.13151e-05 0.000180063 0)
(-3.03574e-05 0.000117589 0)
(-2.80586e-05 2.37957e-05 0)
(-1.36333e-05 -7.35836e-05 0)
(1.20757e-05 -0.000165923 0)
(4.83866e-05 -0.000252581 0)
(9.51102e-05 -0.000336482 0)
(0.000152745 -0.000421479 0)
(0.00022238 -0.000511268 0)
(0.000305611 -0.00060899 0)
(0.000404449 -0.000717152 0)
(0.000521255 -0.000837627 0)
(0.000658676 -0.000971668 0)
(0.000819568 -0.00111991 0)
(0.00100691 -0.00128237 0)
(0.00122373 -0.00145841 0)
(0.00147298 -0.0016467 0)
(0.00175748 -0.00184514 0)
(0.00207978 -0.00205082 0)
(0.00244197 -0.00225995 0)
(0.00284553 -0.00246781 0)
(0.00329111 -0.00266877 0)
(0.00377825 -0.00285627 0)
(0.00430523 -0.00302294 0)
(0.0048688 -0.0031607 0)
(0.00546399 -0.00326104 0)
(0.00608396 -0.00331534 0)
(0.00671991 -0.00331523 0)
(0.00736111 -0.00325302 0)
(0.00799509 -0.00312214 0)
(0.00860788 -0.0029175 0)
(0.00918433 -0.00263586 0)
(0.00970852 -0.00227606 0)
(0.0101641 -0.00183923 0)
(0.0105349 -0.00132895 0)
(0.010805 -0.000751414 0)
(0.0109598 -0.000115482 0)
(0.0109864 0.000567353 0)
(0.0108742 0.00128284 0)
(0.0106157 0.00201456 0)
(0.0102072 0.00274441 0)
(0.00964896 0.00345317 0)
(0.00894605 0.00412139 0)
(0.00810795 0.00473016 0)
(0.00714855 0.00526205 0)
(0.00608571 0.00570185 0)
(0.00494066 0.00603726 0)
(0.00373719 0.00625936 0)
(0.00250068 0.00636302 0)
(-6.01326e-06 0.000149199 0)
(-2.34596e-05 0.000193621 0)
(-3.6063e-05 0.000122376 0)
(-3.86629e-05 1.73711e-05 0)
(-3.03247e-05 -9.11732e-05 0)
(-1.17055e-05 -0.00019398 0)
(1.66374e-05 -0.000290753 0)
(5.45939e-05 -0.000384962 0)
(0.000102855 -0.000481107 0)
(0.000162687 -0.000583471 0)
(0.000235887 -0.000695693 0)
(0.000324708 -0.000820685 0)
(0.000431792 -0.00096065 0)
(0.000560104 -0.00111711 0)
(0.000712864 -0.00129089 0)
(0.000893473 -0.00148216 0)
(0.00110544 -0.00169031 0)
(0.00135228 -0.00191395 0)
(0.00163747 -0.00215077 0)
(0.00196424 -0.00239751 0)
(0.00233545 -0.00264984 0)
(0.00275334 -0.00290231 0)
(0.0032193 -0.00314828 0)
(0.00373362 -0.00337996 0)
(0.00429516 -0.00358843 0)
(0.00490108 -0.00376386 0)
(0.00554654 -0.00389581 0)
(0.00622448 -0.00397357 0)
(0.00692553 -0.0039867 0)
(0.00763798 -0.00392551 0)
(0.00834801 -0.00378168 0)
(0.00903999 -0.0035487 0)
(0.00969684 -0.00322228 0)
(0.0103005 -0.00280062 0)
(0.0108325 -0.00228463 0)
(0.0112739 -0.00167814 0)
(0.0116066 -0.000988065 0)
(0.0118131 -0.000224625 0)
(0.0118778 0.000598583 0)
(0.0117876 0.0014645 0)
(0.0115328 0.00235312 0)
(0.0111079 0.0032421 0)
(0.0105127 0.00410753 0)
(0.00975207 0.004925 0)
(0.00883641 0.00567074 0)
(0.00778152 0.00632272 0)
(0.00660795 0.00686172 0)
(0.00534032 0.00727218 0)
(0.00400637 0.00754287 0)
(0.00263569 0.00766734 0)
(-6.2822e-06 0.000164008 0)
(-2.62768e-05 0.000210478 0)
(-4.37412e-05 0.00013222 0)
(-5.3048e-05 1.7462e-05 0)
(-5.2916e-05 -0.000100981 0)
(-4.3849e-05 -0.000213128 0)
(-2.62489e-05 -0.000319022 0)
(-1.8976e-08 -0.000422701 0)
(3.56511e-05 -0.000529338 0)
(8.22082e-05 -0.000643829 0)
(0.000141658 -0.000770333 0)
(0.000216495 -0.000912203 0)
(0.000309636 -0.00107202 0)
(0.000424368 -0.00125161 0)
(0.000564291 -0.00145211 0)
(0.000733262 -0.00167384 0)
(0.000935333 -0.00191631 0)
(0.00117468 -0.00217813 0)
(0.00145549 -0.00245687 0)
(0.00178182 -0.00274898 0)
(0.00215743 -0.00304964 0)
(0.00258552 -0.00335266 0)
(0.00306846 -0.00365038 0)
(0.00360748 -0.00393365 0)
(0.00420226 -0.0041919 0)
(0.00485056 -0.00441334 0)
(0.00554784 -0.00458526 0)
(0.00628696 -0.00469451 0)
(0.00705798 -0.00472814 0)
(0.00784817 -0.0046741 0)
(0.00864219 -0.00452194 0)
(0.00942253 -0.00426344 0)
(0.01017 -0.00389303 0)
(0.0108643 -0.00340808 0)
(0.0114844 -0.00280908 0)
(0.0120089 -0.00209986 0)
(0.0124164 -0.00128789 0)
(0.0126866 -0.000384609 0)
(0.0128004 0.000594304 0)
(0.0127416 0.00162871 0)
(0.0124975 0.00269451 0)
(0.0120607 0.0037644 0)
(0.0114295 0.00480886 0)
(0.0106087 0.00579752 0)
(0.00960964 0.00670065 0)
(0.0084503 0.00749064 0)
(0.00715444 0.0081434 0)
(0.00575073 0.00863945 0)
(0.00427162 0.00896476 0)
(0.00275183 0.00911142 0)
(-6.56683e-06 0.000180327 0)
(-2.96579e-05 0.00023162 0)
(-5.31155e-05 0.000148619 0)
(-7.07311e-05 2.59778e-05 0)
(-8.0788e-05 -0.000100746 0)
(-8.35263e-05 -0.000220873 0)
(-7.91733e-05 -0.000334628 0)
(-6.74546e-05 -0.000446701 0)
(-4.74076e-05 -0.000562941 0)
(-1.74113e-05 -0.000688866 0)
(2.47407e-05 -0.000829182 0)
(8.17723e-05 -0.000987725 0)
(0.000156862 -0.0011675 0)
(0.000253615 -0.00137074 0)
(0.000376032 -0.00159888 0)
(0.000528459 -0.00185252 0)
(0.00071554 -0.00213137 0)
(0.000942151 -0.00243413 0)
(0.0012133 -0.00275836 0)
(0.001534 -0.00310031 0)
(0.00190906 -0.00345474 0)
(0.00234284 -0.00381477 0)
(0.00283893 -0.00417171 0)
(0.00339972 -0.00451502 0)
(0.004026 -0.00483235 0)
(0.0047164 -0.00510966 0)
(0.00546691 -0.00533165 0)
(0.00627047 -0.00548227 0)
(0.00711663 -0.00554557 0)
(0.00799152 -0.00550661 0)
(0.00887812 -0.00535237 0)
(0.00975683 -0.00507258 0)
(0.0106062 -0.00466016 0)
(0.0114034 -0.00411144 0)
(0.0121248 -0.00342627 0)
(0.0127462 -0.00260815 0)
(0.0132431 -0.00166474 0)
(0.0135911 -0.000608461 0)
(0.0137674 0.000543036 0)
(0.0137515 0.00176633 0)
(0.0135272 0.00303262 0)
(0.0130839 0.00430876 0)
(0.0124181 0.00555849 0)
(0.0115341 0.00674419 0)
(0.0104444 0.00782883 0)
(0.00916941 0.00877796 0)
(0.00773681 0.00956157 0)
(0.00618012 0.0101555 0)
(0.00453751 0.0105424 0)
(0.00284994 0.0107125 0)
(-6.85431e-06 0.000198323 0)
(-3.35147e-05 0.0002579 0)
(-6.39444e-05 0.000172899 0)
(-9.12874e-05 4.46151e-05 0)
(-0.000113302 -8.84755e-05 0)
(-0.000129893 -0.000214885 0)
(-0.000141094 -0.000335018 0)
(-0.000146459 -0.000454167 0)
(-0.000144865 -0.000578864 0)
(-0.000134523 -0.000715266 0)
(-0.00011305 -0.000868659 0)
(-7.75134e-05 -0.0010434 0)
(-2.44919e-05 -0.00124298 0)
(4.99405e-05 -0.00147005 0)
(0.000150197 -0.00172647 0)
(0.000281119 -0.0020132 0)
(0.000447967 -0.00233025 0)
(0.000656371 -0.00267655 0)
(0.000912243 -0.00304977 0)
(0.00122166 -0.00344608 0)
(0.00159064 -0.00385995 0)
(0.00202491 -0.0042839 0)
(0.00252949 -0.00470828 0)
(0.00310826 -0.00512117 0)
(0.00376341 -0.00550826 0)
(0.0044948 -0.00585306 0)
(0.0052993 -0.00613721 0)
(0.00617013 -0.00634125 0)
(0.00709641 -0.00644557 0)
(0.0080631 -0.00643166 0)
(0.00905125 -0.00628336 0)
(0.0100389 -0.00598797 0)
(0.011002 -0.00553673 0)
(0.0119153 -0.00492481 0)
(0.0127526 -0.00415116 0)
(0.0134868 -0.00321853 0)
(0.0140897 -0.00213419 0)
(0.0145327 -0.00091101 0)
(0.0147879 0.00043156 0)
(0.0148295 0.00186671 0)
(0.0146362 0.0033603 0)
(0.0141936 0.00487224 0)
(0.0134954 0.0063581 0)
(0.0125451 0.00777139 0)
(0.0113563 0.00906612 0)
(0.0099523 0.0101994 0)
(0.00836553 0.0111341 0)
(0.0066354 0.0118403 0)
(0.00480701 0.0122967 0)
(0.00292898 0.0124915 0)
(-7.12666e-06 0.00021812 0)
(-3.77604e-05 0.00029005 0)
(-7.59978e-05 0.00020622 0)
(-0.000114302 7.48857e-05 0)
(-0.00014983 -6.23591e-05 0)
(-0.000182104 -0.000193098 0)
(-0.000210948 -0.00031787 0)
(-0.000235741 -0.000442529 0)
(-0.000255205 -0.000574276 0)
(-0.000267406 -0.000719918 0)
(-0.00026981 -0.000885345 0)
(-0.000259315 -0.00107548 0)
(-0.00023226 -0.00129434 0)
(-0.000184418 -0.0015451 0)
(-0.000110994 -0.00183008 0)
(-6.63514e-06 -0.00215071 0)
(0.000134549 -0.00250744 0)
(0.000318962 -0.00289959 0)
(0.000553484 -0.00332508 0)
(0.000845348 -0.00378019 0)
(0.00120193 -0.00425927 0)
(0.00163048 -0.00475441 0)
(0.00213769 -0.00525515 0)
(0.00272927 -0.00574819 0)
(0.00340923 -0.00621722 0)
(0.0041791 -0.00664299 0)
(0.00503704 -0.00700367 0)
(0.00597695 -0.00727566 0)
(0.00698773 -0.00743481 0)
(0.00805305 -0.00745813 0)
(0.00915177 -0.00732561 0)
(0.0102591 -0.00702176 0)
(0.0113482 -0.00653611 0)
(0.0123913 -0.00586274 0)
(0.0133601 -0.00499954 0)
(0.0142248 -0.00394787 0)
(0.0149533 -0.00271374 0)
(0.0155118 -0.00130958 0)
(0.0158659 0.000243872 0)
(0.0159833 0.00191643 0)
(0.015836 0.00366791 0)
(0.0154038 0.00545 0)
(0.014677 0.00720831 0)
(0.0136576 0.0088854 0)
(0.01236 0.0104242 0)
(0.0108114 0.0117716 0)
(0.00904988 0.0128812 0)
(0.00712205 0.0137166 0)
(0.00508136 0.0142517 0)
(0.00298581 0.0144724 0)
(-7.37369e-06 0.000239821 0)
(-4.23144e-05 0.000328689 0)
(-8.90453e-05 0.000249585 0)
(-0.000139356 0.000118106 0)
(-0.000189736 -2.081e-05 0)
(-0.000239287 -0.000153682 0)
(-0.000287612 -0.000281104 0)
(-0.000333921 -0.000409448 0)
(-0.000376801 -0.000546566 0)
(-0.000414209 -0.000699925 0)
(-0.000443494 -0.000876034 0)
(-0.0004614 -0.0010804 0)
(-0.000464061 -0.00131762 0)
(-0.000446977 -0.00159142 0)
(-0.000405005 -0.00190474 0)
(-0.000332337 -0.00225962 0)
(-0.000222471 -0.00265709 0)
(-6.81867e-05 -0.00309697 0)
(0.0001384 -0.00357763 0)
(0.000405713 -0.00409569 0)
(0.000742555 -0.00464566 0)
(0.00115785 -0.00521946 0)
(0.00166024 -0.005806 0)
(0.00225761 -0.00639072 0)
(0.00295624 -0.0069553 0)
(0.00375993 -0.00747752 0)
(0.00466876 -0.00793155 0)
(0.00567788 -0.00828876 0)
(0.00677633 -0.0085193 0)
(0.00794647 -0.00859445 0)
(0.0091644 -0.00848939 0)
(0.0104019 -0.00818555 0)
(0.0116289 -0.00767112 0)
(0.0128156 -0.00693955 0)
(0.0139321 -0.00598771 0)
(0.0149465 -0.00481472 0)
(0.0158231 -0.00342378 0)
(0.0165217 -0.00182541 0)
(0.0169999 -4.06131e-05 0)
(0.0172165 0.00189731 0)
(0.0171345 0.00394143 0)
(0.0167263 0.00603362 0)
(0.0159769 0.00810731 0)
(0.0148861 0.0100915 0)
(0.0134695 0.0119153 0)
(0.0117584 0.0135125 0)
(0.00979802 0.0148259 0)
(0.00764409 0.0158107 0)
(0.00535993 0.0164353 0)
(0.00301492 0.0166826 0)
(-7.58678e-06 0.000263513 0)
(-4.70928e-05 0.000374324 0)
(-0.000102851 0.000303821 0)
(-0.000166014 0.000175375 0)
(-0.000232347 3.75154e-05 0)
(-0.000300504 -9.50566e-05 0)
(-0.000369866 -0.000222898 0)
(-0.000439491 -0.000352848 0)
(-0.000507866 -0.000493387 0)
(-0.000572872 -0.000652629 0)
(-0.000631773 -0.000837707 0)
(-0.000681198 -0.00105474 0)
(-0.000717123 -0.00130893 0)
(-0.000734836 -0.00160468 0)
(-0.000728895 -0.0019456 0)
(-0.00069307 -0.00233446 0)
(-0.000620275 -0.00277302 0)
(-0.000502537 -0.00326186 0)
(-0.000331028 -0.00380003 0)
(-9.61221e-05 -0.00438478 0)
(0.000212472 -0.005011 0)
(0.000605457 -0.0056708 0)
(0.00109363 -0.00635277 0)
(0.00168738 -0.00704137 0)
(0.00239582 -0.00771638 0)
(0.00322572 -0.00835245 0)
(0.00418 -0.00891919 0)
(0.00525594 -0.0093819 0)
(0.00644334 -0.00970348 0)
(0.00772325 -0.00984773 0)
(0.00906824 -0.00978369 0)
(0.0104454 -0.00948954 0)
(0.0118211 -0.00895319 0)
(0.0131638 -0.00816873 0)
(0.0144437 -0.00713251 0)
(0.0156287 -0.00584001 0)
(0.0166792 -0.00428904 0)
(0.0175479 -0.00248561 0)
(0.0181816 -0.000449201 0)
(0.0185274 0.00178434 0)
(0.0185363 0.0041607 0)
(0.0181706 0.00660996 0)
(0.0174081 0.00905046 0)
(0.0162452 0.0113941 0)
(0.0146985 0.0135526 0)
(0.0128045 0.0154435 0)
(0.0106175 0.0169957 0)
(0.00820426 0.018154 0)
(0.0056403 0.0188807 0)
(0.0030084 0.0191554 0)
(-7.75716e-06 0.000289273 0)
(-5.20065e-05 0.000427341 0)
(-0.000117171 0.000369564 0)
(-0.000193811 0.000247554 0)
(-0.000276929 0.000113697 0)
(-0.000364723 -1.5931e-05 0)
(-0.000456359 -0.00014174 0)
(-0.000550776 -0.000270975 0)
(-0.000646394 -0.000412708 0)
(-0.000741055 -0.000575671 0)
(-0.000831975 -0.000767614 0)
(-0.000915723 -0.00099528 0)
(-0.000988185 -0.00126455 0)
(-0.0010445 -0.00158057 0)
(-0.00107901 -0.00194772 0)
(-0.00108511 -0.00236962 0)
(-0.00105522 -0.00284893 0)
(-0.000980703 -0.00338715 0)
(-0.000851857 -0.00398433 0)
(-0.000657958 -0.00463864 0)
(-0.000387321 -0.00534583 0)
(-2.73846e-05 -0.00609847 0)
(0.000434974 -0.00688524 0)
(0.0010129 -0.00769009 0)
(0.00171889 -0.00849119 0)
(0.00256357 -0.00926013 0)
(0.00355388 -0.00996148 0)
(0.00469059 -0.0105533 0)
(0.00596532 -0.0109893 0)
(0.007358 -0.0112231 0)
(0.00883638 -0.0112156 0)
(0.0103609 -0.0109418 0)
(0.0118932 -0.0103915 0)
(0.0134014 -0.00956234 0)
(0.0148588 -0.00845144 0)
(0.0162361 -0.00704811 0)
(0.0174908 -0.00534029 0)
(0.0185661 -0.00332518 0)
(0.0193952 -0.0010179 0)
(0.019909 0.0015441 0)
(0.020043 0.00429848 0)
(0.0197452 0.00716093 0)
(0.0189837 0.0100308 0)
(0.0177502 0.0127983 0)
(0.0160621 0.0153526 0)
(0.0139621 0.0175908 0)
(0.0115157 0.0194243 0)
(0.00880439 0.0207853 0)
(0.0059183 0.0216288 0)
(0.00295603 0.021931 0)
(-7.87953e-06 0.000317157 0)
(-5.69627e-05 0.00048797 0)
(-0.000131742 0.000447226 0)
(-0.000222237 0.000335233 0)
(-0.000322668 0.00020851 0)
(-0.000430792 8.4654e-05 0)
(-0.000545584 -3.64717e-05 0)
(-0.00066589 -0.000162441 0)
(-0.000790105 -0.000302858 0)
(-0.000916065 -0.000467038 0)
(-0.001041 -0.000663334 0)
(-0.00116148 -0.000899143 0)
(-0.00127339 -0.00118107 0)
(-0.0013718 -0.00151503 0)
(-0.00145089 -0.00190632 0)
(-0.0015038 -0.0023595 0)
(-0.00152256 -0.00287832 0)
(-0.00149802 -0.00346544 0)
(-0.00141977 -0.00412215 0)
(-0.00127612 -0.00484785 0)
(-0.00105408 -0.00563945 0)
(-0.000739418 -0.0064906 0)
(-0.000316787 -0.00739067 0)
(0.000230033 -0.00832353 0)
(0.000917402 -0.00926635 0)
(0.00176065 -0.0101881 0)
(0.00277224 -0.0110483 0)
(0.00395833 -0.0117966 0)
(0.00531431 -0.012375 0)
(0.00681967 -0.0127231 0)
(0.00843538 -0.0127898 0)
(0.0101116 -0.0125474 0)
(0.0118038 -0.0119921 0)
(0.0134813 -0.01113 0)
(0.0151267 -0.00996237 0)
(0.0167191 -0.00846762 0)
(0.0182141 -0.00661588 0)
(0.0195424 -0.00438875 0)
(0.0206181 -0.00179293 0)
(0.0213509 0.00113378 0)
(0.021655 0.00431997 0)
(0.0214597 0.00766355 0)
(0.0207195 0.0110397 0)
(0.0194193 0.0143103 0)
(0.0175775 0.0173357 0)
(0.0152446 0.0199866 0)
(0.0125005 0.0221526 0)
(0.00944536 0.0237505 0)
(0.00618785 0.0247273 0)
(0.00284509 0.025056 0)
(-7.95361e-06 0.000347184 0)
(-6.18612e-05 0.00055627 0)
(-0.000146272 0.00053697 0)
(-0.000250721 0.000438708 0)
(-0.000368651 0.000322383 0)
(-0.00049742 0.000207286 0)
(-0.000635845 9.36616e-05 0)
(-0.000782705 -2.62747e-05 0)
(-0.000936397 -0.000162585 0)
(-0.00109481 -0.000325131 0)
(-0.00125527 -0.000522861 0)
(-0.00141442 -0.000763838 0)
(-0.00156821 -0.00105541 0)
(-0.00171173 -0.00140436 0)
(-0.0018391 -0.00181691 0)
(-0.00194334 -0.00229876 0)
(-0.00201626 -0.00285488 0)
(-0.00204834 -0.00348931 0)
(-0.00202865 -0.00420482 0)
(-0.00194477 -0.00500232 0)
(-0.00178267 -0.00588028 0)
(-0.00152666 -0.0068338 0)
(-0.00115936 -0.00785356 0)
(-0.000661777 -0.00892439 0)
(-1.34731e-05 -0.0100234 0)
(0.000806486 -0.0111177 0)
(0.00181751 -0.0121627 0)
(0.00303384 -0.013099 0)
(0.00445791 -0.0138538 0)
(0.00607091 -0.0143468 0)
(0.00782418 -0.014508 0)
(0.00965143 -0.0143075 0)
(0.0114992 -0.0137556 0)
(0.013341 -0.0128764 0)
(0.0151789 -0.0116826 0)
(0.0170112 -0.010132 0)
(0.0187916 -0.00816337 0)
(0.0204324 -0.00573241 0)
(0.0218216 -0.00283236 0)
(0.0228394 0.000499554 0)
(0.0233729 0.00418135 0)
(0.0233262 0.00808855 0)
(0.0226349 0.0120654 0)
(0.0212746 0.0159369 0)
(0.0192649 0.0195254 0)
(0.0166671 0.0226677 0)
(0.0135796 0.0252268 0)
(0.0101267 0.0271015 0)
(0.0064406 0.0282296 0)
(0.00266006 0.0285821 0)
(-7.98213e-06 0.000379323 0)
(-6.65866e-05 0.000632115 0)
(-0.00016043 0.000638699 0)
(-0.00027862 0.000557943 0)
(-0.000413868 0.000455361 0)
(-0.000563175 0.000352116 0)
(-0.000725238 0.000248974 0)
(-0.000898806 0.000138039 0)
(-0.00108233 8.8753e-06 0)
(-0.0012738 -0.000148858 0)
(-0.0014707 -0.000344705 0)
(-0.00166987 -0.000587391 0)
(-0.00186738 -0.000885034 0)
(-0.00205844 -0.0012453 0)
(-0.00223725 -0.0016755 0)
(-0.00239682 -0.00218252 0)
(-0.00252891 -0.00277273 0)
(-0.00262382 -0.0034517 0)
(-0.00267031 -0.00422384 0)
(-0.0026555 -0.00509184 0)
(-0.00256464 -0.00605602 0)
(-0.00238103 -0.00711335 0)
(-0.00208578 -0.00825639 0)
(-0.00165752 -0.0094717 0)
(-0.00107232 -0.0107379 0)
(-0.000303782 -0.0120227 0)
(0.000675892 -0.0132786 0)
(0.00189207 -0.0144383 0)
(0.00335963 -0.0154116 0)
(0.00506706 -0.016089 0)
(0.00695238 -0.0163678 0)
(0.00892227 -0.016217 0)
(0.0109105 -0.0156742 0)
(0.0128979 -0.0147977 0)
(0.0149252 -0.0136273 0)
(0.017027 -0.0120809 0)
(0.0191519 -0.010042 0)
(0.0211831 -0.00742658 0)
(0.0229716 -0.0042093 0)
(0.0243595 -0.000426703 0)
(0.0251982 0.00382595 0)
(0.0253596 0.00839655 0)
(0.0247537 0.0130898 0)
(0.0233425 0.0176824 0)
(0.0211478 0.0219465 0)
(0.0182459 0.0256751 0)
(0.0147602 0.0286987 0)
(0.0108461 0.0308956 0)
(0.00666577 0.0321949 0)
(0.00238296 0.0325664 0)
(-7.96669e-06 0.000413494 0)
(-7.10014e-05 0.000715189 0)
(-0.000173837 0.000752031 0)
(-0.000305221 0.000692543 0)
(-0.000457201 0.000607071 0)
(-0.00062648 0.00051883 0)
(-0.000811657 0.000429267 0)
(-0.00101151 0.000330483 0)
(-0.0012246 0.000211746 0)
(-0.00144911 6.22774e-05 0)
(-0.00168274 -0.000127996 0)
(-0.00192257 -0.000368461 0)
(-0.00216494 -0.000668026 0)
(-0.00240527 -0.00103531 0)
(-0.00263795 -0.00147876 0)
(-0.00285615 -0.00200659 0)
(-0.0030517 -0.00262665 0)
(-0.0032149 -0.00334617 0)
(-0.0033344 -0.00417134 0)