/*--------------------------------*- C++ -*----------------------------------*\
| =========                 |                                                 |
| \\      /  F ield         | OpenFOAM: The Open Source CFD Toolbox           |
|  \\    /   O peration     | Version:  2.4.0                                 |
|   \\  /    A nd           | Web:      www.OpenFOAM.org                      |
|    \\/     M anipulation  |                                                 |
\*---------------------------------------------------------------------------*/
FoamFile
{
    version     2.0;
    format      ascii;
    class       volVectorField;
    location    "0.133";
    object      U;
}
// * * * * * * * * * * * * * * * * * * * * * * * * * * * * * * * * * * * * * //

dimensions      [0 1 -1 0 0 0 0];

internalField   nonuniform List<vector> 
60000
(
(-4.48805e-08 1.99592e-08 0)
(-1.91453e-07 2.20135e-08 0)
(-3.76226e-07 2.63499e-08 0)
(-5.69332e-07 2.54602e-08 0)
(-7.61897e-07 2.49942e-08 0)
(-9.50602e-07 2.41261e-08 0)
(-1.13532e-06 2.3094e-08 0)
(-1.31444e-06 2.17577e-08 0)
(-1.48626e-06 1.99583e-08 0)
(-1.64842e-06 1.77134e-08 0)
(-1.79861e-06 1.50249e-08 0)
(-1.9344e-06 1.19245e-08 0)
(-2.05332e-06 8.40764e-09 0)
(-2.15283e-06 4.49093e-09 0)
(-2.23044e-06 1.69183e-10 0)
(-2.28372e-06 -4.49969e-09 0)
(-2.31062e-06 -9.46345e-09 0)
(-2.30953e-06 -1.44884e-08 0)
(-2.27896e-06 -1.93e-08 0)
(-2.21823e-06 -2.40627e-08 0)
(-2.12749e-06 -2.8797e-08 0)
(-2.00701e-06 -3.32873e-08 0)
(-1.85758e-06 -3.73891e-08 0)
(-1.68037e-06 -4.10368e-08 0)
(-1.47697e-06 -4.41467e-08 0)
(-1.24936e-06 -4.66789e-08 0)
(-9.99882e-07 -4.85617e-08 0)
(-7.31262e-07 -4.97661e-08 0)
(-4.4646e-07 -5.02772e-08 0)
(-1.48242e-07 -5.00109e-08 0)
(1.59486e-07 -4.94544e-08 0)
(4.73266e-07 -4.7867e-08 0)
(7.9028e-07 -4.57333e-08 0)
(1.10679e-06 -4.2987e-08 0)
(1.41975e-06 -3.98737e-08 0)
(1.72561e-06 -3.5825e-08 0)
(2.02136e-06 -3.16686e-08 0)
(2.30495e-06 -2.7248e-08 0)
(2.57377e-06 -2.24654e-08 0)
(2.82544e-06 -1.75047e-08 0)
(3.0581e-06 -1.24602e-08 0)
(3.27056e-06 -7.4843e-09 0)
(3.46178e-06 -2.49667e-09 0)
(3.63106e-06 2.21843e-09 0)
(3.77869e-06 6.67522e-09 0)
(3.90457e-06 1.10161e-08 0)
(4.00912e-06 1.47811e-08 0)
(4.09376e-06 1.81751e-08 0)
(4.15929e-06 2.12407e-08 0)
(4.20645e-06 2.39658e-08 0)
(4.2364e-06 2.64156e-08 0)
(4.25023e-06 2.87751e-08 0)
(4.24928e-06 3.08396e-08 0)
(4.23439e-06 3.21545e-08 0)
(4.20575e-06 3.33481e-08 0)
(4.1639e-06 3.447e-08 0)
(4.10889e-06 3.57101e-08 0)
(4.04016e-06 3.70948e-08 0)
(3.95672e-06 3.88289e-08 0)
(3.85768e-06 4.06618e-08 0)
(3.74207e-06 4.27806e-08 0)
(3.60841e-06 4.5241e-08 0)
(3.45523e-06 4.80014e-08 0)
(3.28124e-06 5.09883e-08 0)
(3.08525e-06 5.41698e-08 0)
(2.86628e-06 5.74775e-08 0)
(2.62352e-06 6.08353e-08 0)
(2.35639e-06 6.41418e-08 0)
(2.06482e-06 6.72887e-08 0)
(1.74914e-06 7.02002e-08 0)
(1.40984e-06 7.28577e-08 0)
(1.04743e-06 7.52339e-08 0)
(6.62978e-07 7.71313e-08 0)
(2.58251e-07 7.83985e-08 0)
(-1.64939e-07 7.92314e-08 0)
(-6.05064e-07 7.96561e-08 0)
(-1.0599e-06 7.93303e-08 0)
(-1.52666e-06 7.83712e-08 0)
(-2.00309e-06 7.67743e-08 0)
(-2.48591e-06 7.51344e-08 0)
(-2.97269e-06 7.25013e-08 0)
(-3.46176e-06 6.95985e-08 0)
(-3.94967e-06 6.57801e-08 0)
(-4.43399e-06 6.18359e-08 0)
(-4.91254e-06 5.71579e-08 0)
(-5.38266e-06 5.22057e-08 0)
(-5.8425e-06 4.69287e-08 0)
(-6.2913e-06 4.1929e-08 0)
(-6.72848e-06 3.66495e-08 0)
(-7.15262e-06 3.13725e-08 0)
(-7.56261e-06 2.60686e-08 0)
(-7.95849e-06 2.10361e-08 0)
(-8.33706e-06 1.54707e-08 0)
(-8.70249e-06 1.13961e-08 0)
(-9.03904e-06 4.11953e-09 0)
(-9.37284e-06 2.48341e-09 0)
(-9.65927e-06 -5.08251e-09 0)
(-9.96223e-06 -2.48918e-09 0)
(-1.01893e-05 -1.34448e-08 0)
(-1.038e-05 -1.04445e-09 0)
(-6.82312e-08 1.01131e-07 0)
(-3.51366e-07 1.51689e-07 0)
(-7.15273e-07 1.72892e-07 0)
(-1.08917e-06 1.75307e-07 0)
(-1.4681e-06 1.7386e-07 0)
(-1.84133e-06 1.70899e-07 0)
(-2.21001e-06 1.67075e-07 0)
(-2.57128e-06 1.6197e-07 0)
(-2.92324e-06 1.55064e-07 0)
(-3.26285e-06 1.46203e-07 0)
(-3.58689e-06 1.35285e-07 0)
(-3.89177e-06 1.22231e-07 0)
(-4.17355e-06 1.06921e-07 0)
(-4.42813e-06 8.93627e-08 0)
(-4.65155e-06 6.95945e-08 0)
(-4.83996e-06 4.77476e-08 0)
(-4.98976e-06 2.41733e-08 0)
(-5.09792e-06 -5.83677e-10 0)
(-5.16171e-06 -2.58543e-08 0)
(-5.17915e-06 -5.21293e-08 0)
(-5.14895e-06 -7.87848e-08 0)
(-5.0701e-06 -1.05204e-07 0)
(-4.94227e-06 -1.31006e-07 0)
(-4.76573e-06 -1.55816e-07 0)
(-4.54123e-06 -1.79287e-07 0)
(-4.27019e-06 -2.01123e-07 0)
(-3.95462e-06 -2.20974e-07 0)
(-3.597e-06 -2.38546e-07 0)
(-3.20038e-06 -2.53616e-07 0)
(-2.76827e-06 -2.65883e-07 0)
(-2.30498e-06 -2.75854e-07 0)
(-1.8149e-06 -2.82392e-07 0)
(-1.30228e-06 -2.86097e-07 0)
(-7.71904e-07 -2.8687e-07 0)
(-2.27697e-07 -2.84857e-07 0)
(3.25047e-07 -2.80383e-07 0)
(8.8146e-07 -2.73269e-07 0)
(1.43814e-06 -2.63855e-07 0)
(1.99031e-06 -2.52086e-07 0)
(2.53331e-06 -2.38259e-07 0)
(3.06319e-06 -2.22878e-07 0)
(3.57689e-06 -2.06374e-07 0)
(4.07148e-06 -1.88657e-07 0)
(4.54412e-06 -1.70587e-07 0)
(4.99393e-06 -1.5263e-07 0)
(5.41951e-06 -1.34064e-07 0)
(5.81933e-06 -1.16429e-07 0)
(6.19362e-06 -9.94261e-08 0)
(6.5419e-06 -8.26543e-08 0)
(6.86349e-06 -6.67207e-08 0)
(7.15895e-06 -5.15045e-08 0)
(7.42932e-06 -3.69452e-08 0)
(7.67526e-06 -2.35318e-08 0)
(7.89753e-06 -1.10785e-08 0)
(8.09602e-06 1.13478e-09 0)
(8.27068e-06 1.29562e-08 0)
(8.42125e-06 2.5163e-08 0)
(8.54661e-06 3.77962e-08 0)
(8.64512e-06 5.09456e-08 0)
(8.71523e-06 6.54238e-08 0)
(8.75528e-06 8.13883e-08 0)
(8.76284e-06 9.85426e-08 0)
(8.73556e-06 1.17064e-07 0)
(8.67116e-06 1.36619e-07 0)
(8.56752e-06 1.57202e-07 0)
(8.42279e-06 1.78556e-07 0)
(8.23518e-06 2.00695e-07 0)
(8.00298e-06 2.23198e-07 0)
(7.72513e-06 2.45723e-07 0)
(7.4009e-06 2.67992e-07 0)
(7.02981e-06 2.89992e-07 0)
(6.61128e-06 3.11605e-07 0)
(6.14525e-06 3.32209e-07 0)
(5.6321e-06 3.51341e-07 0)
(5.07264e-06 3.69332e-07 0)
(4.46792e-06 3.86122e-07 0)
(3.81954e-06 4.00756e-07 0)
(3.12965e-06 4.13143e-07 0)
(2.40101e-06 4.23201e-07 0)
(1.63705e-06 4.31783e-07 0)
(8.40523e-07 4.37521e-07 0)
(1.34437e-08 4.41195e-07 0)
(-8.406e-07 4.43079e-07 0)
(-1.71942e-06 4.42962e-07 0)
(-2.62168e-06 4.40271e-07 0)
(-3.54437e-06 4.36032e-07 0)
(-4.48459e-06 4.30001e-07 0)
(-5.44109e-06 4.23988e-07 0)
(-6.41212e-06 4.16534e-07 0)
(-7.3951e-06 4.07893e-07 0)
(-8.38783e-06 3.9829e-07 0)
(-9.38888e-06 3.87847e-07 0)
(-1.03907e-05 3.75332e-07 0)
(-1.14003e-05 3.63358e-07 0)
(-1.23828e-05 3.43817e-07 0)
(-1.33958e-05 3.33345e-07 0)
(-1.43196e-05 3.06167e-07 0)
(-1.53053e-05 2.92448e-07 0)
(-1.60773e-05 2.13996e-07 0)
(-1.66713e-05 1.11408e-07 0)
(-8.13856e-08 2.19074e-07 0)
(-4.32838e-07 3.45187e-07 0)
(-8.8207e-07 3.85286e-07 0)
(-1.34366e-06 3.94823e-07 0)
(-1.8132e-06 3.92779e-07 0)
(-2.27722e-06 3.87596e-07 0)
(-2.73666e-06 3.80507e-07 0)
(-3.18815e-06 3.71131e-07 0)
(-3.62996e-06 3.58679e-07 0)
(-4.05894e-06 3.42703e-07 0)
(-4.47169e-06 3.22909e-07 0)
(-4.86443e-06 2.99025e-07 0)
(-5.23307e-06 2.7078e-07 0)
(-5.57331e-06 2.38164e-07 0)
(-5.88087e-06 2.01344e-07 0)
(-6.15159e-06 1.60465e-07 0)
(-6.38149e-06 1.16146e-07 0)
(-6.56704e-06 6.90325e-08 0)
(-6.70547e-06 1.9718e-08 0)
(-6.79425e-06 -3.14953e-08 0)
(-6.83131e-06 -8.36844e-08 0)
(-6.81538e-06 -1.3612e-07 0)
(-6.74565e-06 -1.88177e-07 0)
(-6.62193e-06 -2.39206e-07 0)
(-6.44451e-06 -2.88585e-07 0)
(-6.21441e-06 -3.35652e-07 0)
(-5.93323e-06 -3.79861e-07 0)
(-5.60308e-06 -4.20552e-07 0)
(-5.22676e-06 -4.57218e-07 0)
(-4.80755e-06 -4.8941e-07 0)
(-4.34929e-06 -5.16973e-07 0)
(-3.85613e-06 -5.39301e-07 0)
(-3.33226e-06 -5.56461e-07 0)
(-2.78216e-06 -5.6848e-07 0)
(-2.21004e-06 -5.75211e-07 0)
(-1.62079e-06 -5.78017e-07 0)
(-1.01927e-06 -5.7538e-07 0)
(-4.09488e-07 -5.67905e-07 0)
(2.03917e-07 -5.55951e-07 0)
(8.15873e-07 -5.40074e-07 0)
(1.4222e-06 -5.2026e-07 0)
(2.01971e-06 -4.97437e-07 0)
(2.60485e-06 -4.72056e-07 0)
(3.17414e-06 -4.44894e-07 0)
(3.72634e-06 -4.17472e-07 0)
(4.26006e-06 -3.88218e-07 0)
(4.77283e-06 -3.59304e-07 0)
(5.26373e-06 -3.30713e-07 0)
(5.73229e-06 -3.01727e-07 0)
(6.17789e-06 -2.73592e-07 0)
(6.60052e-06 -2.46435e-07 0)
(7.00076e-06 -2.20164e-07 0)
(7.37874e-06 -1.95341e-07 0)
(7.73456e-06 -1.70795e-07 0)
(8.06761e-06 -1.46074e-07 0)
(8.37734e-06 -1.21685e-07 0)
(8.66302e-06 -9.62546e-08 0)
(8.92293e-06 -6.96798e-08 0)
(9.15542e-06 -4.17266e-08 0)
(9.35849e-06 -1.14595e-08 0)
(9.52942e-06 2.16357e-08 0)
(9.66542e-06 5.71827e-08 0)
(9.76378e-06 9.53599e-08 0)
(9.82164e-06 1.35843e-07 0)
(9.83616e-06 1.78327e-07 0)
(9.80485e-06 2.22819e-07 0)
(9.72542e-06 2.69092e-07 0)
(9.59544e-06 3.1672e-07 0)
(9.41305e-06 3.64847e-07 0)
(9.17673e-06 4.13441e-07 0)
(8.88531e-06 4.62243e-07 0)
(8.53746e-06 5.11105e-07 0)
(8.13225e-06 5.59331e-07 0)
(7.66868e-06 6.06263e-07 0)
(7.1465e-06 6.51729e-07 0)
(6.56647e-06 6.95509e-07 0)
(5.92965e-06 7.36634e-07 0)
(5.23688e-06 7.74551e-07 0)
(4.48976e-06 8.08998e-07 0)
(3.69055e-06 8.40402e-07 0)
(2.84078e-06 8.68188e-07 0)
(1.94197e-06 8.92506e-07 0)
(9.96321e-07 9.14783e-07 0)
(5.23552e-09 9.33875e-07 0)
(-1.03065e-06 9.4979e-07 0)
(-2.11044e-06 9.62468e-07 0)
(-3.23127e-06 9.73951e-07 0)
(-4.39215e-06 9.83352e-07 0)
(-5.59257e-06 9.90591e-07 0)
(-6.82938e-06 9.95334e-07 0)
(-8.09983e-06 9.97786e-07 0)
(-9.40266e-06 9.97485e-07 0)
(-1.07288e-05 9.9291e-07 0)
(-1.20874e-05 9.86382e-07 0)
(-1.3435e-05 9.68407e-07 0)
(-1.4845e-05 9.55895e-07 0)
(-1.61541e-05 9.1378e-07 0)
(-1.75718e-05 8.6516e-07 0)
(-1.86766e-05 6.70056e-07 0)
(-1.95883e-05 3.10206e-07 0)
(-9.5123e-08 3.54312e-07 0)
(-4.77731e-07 5.60137e-07 0)
(-9.56521e-07 6.25274e-07 0)
(-1.45672e-06 6.42102e-07 0)
(-1.96523e-06 6.40485e-07 0)
(-2.46907e-06 6.33237e-07 0)
(-2.96914e-06 6.22994e-07 0)
(-3.46171e-06 6.09373e-07 0)
(-3.94496e-06 5.91342e-07 0)
(-4.4156e-06 5.68137e-07 0)
(-4.87013e-06 5.39252e-07 0)
(-5.30464e-06 5.04294e-07 0)
(-5.71502e-06 4.62859e-07 0)
(-6.09693e-06 4.14845e-07 0)
(-6.44592e-06 3.60487e-07 0)
(-6.75773e-06 3.00005e-07 0)
(-7.02834e-06 2.34118e-07 0)
(-7.25414e-06 1.63671e-07 0)
(-7.4321e-06 8.93291e-08 0)
(-7.55958e-06 1.24162e-08 0)
(-7.63446e-06 -6.62303e-08 0)
(-7.65526e-06 -1.45778e-07 0)
(-7.62106e-06 -2.25201e-07 0)
(-7.53163e-06 -3.03625e-07 0)
(-7.38724e-06 -3.80155e-07 0)
(-7.18881e-06 -4.53698e-07 0)
(-6.93798e-06 -5.23495e-07 0)
(-6.63683e-06 -5.886e-07 0)
(-6.28806e-06 -6.48168e-07 0)
(-5.89483e-06 -7.01621e-07 0)
(-5.46067e-06 -7.48406e-07 0)
(-4.98951e-06 -7.88036e-07 0)
(-4.48542e-06 -8.20343e-07 0)
(-3.95275e-06 -8.45298e-07 0)
(-3.39579e-06 -8.62943e-07 0)
(-2.81928e-06 -8.73869e-07 0)
(-2.22795e-06 -8.77377e-07 0)
(-1.62621e-06 -8.73615e-07 0)
(-1.01836e-06 -8.63241e-07 0)
(-4.08977e-07 -8.46936e-07 0)
(1.98045e-07 -8.24859e-07 0)
(7.99299e-07 -7.98092e-07 0)
(1.39094e-06 -7.66592e-07 0)
(1.9701e-06 -7.32652e-07 0)
(2.53504e-06 -6.97289e-07 0)
(3.08443e-06 -6.5918e-07 0)
(3.61639e-06 -6.20704e-07 0)
(4.1291e-06 -5.82009e-07 0)
(4.62279e-06 -5.4287e-07 0)
(5.09783e-06 -5.04479e-07 0)
(5.55348e-06 -4.67091e-07 0)
(5.98985e-06 -4.30664e-07 0)
(6.4069e-06 -3.95398e-07 0)
(6.80458e-06 -3.60428e-07 0)
(7.18205e-06 -3.2492e-07 0)
(7.53864e-06 -2.89315e-07 0)
(7.87342e-06 -2.51848e-07 0)
(8.18459e-06 -2.12313e-07 0)
(8.47018e-06 -1.69852e-07 0)
(8.7279e-06 -1.2449e-07 0)
(8.9552e-06 -7.51757e-08 0)
(9.14895e-06 -2.18535e-08 0)
(9.30627e-06 3.56011e-08 0)
(9.42415e-06 9.69764e-08 0)
(9.49927e-06 1.61668e-07 0)
(9.52837e-06 2.29937e-07 0)
(9.50883e-06 3.01295e-07 0)
(9.43789e-06 3.75185e-07 0)
(9.31315e-06 4.50477e-07 0)
(9.13245e-06 5.27247e-07 0)
(8.89399e-06 6.04996e-07 0)
(8.5961e-06 6.8345e-07 0)
(8.23762e-06 7.61858e-07 0)
(7.81746e-06 8.39501e-07 0)
(7.33484e-06 9.15716e-07 0)
(6.78969e-06 9.89938e-07 0)
(6.18248e-06 1.06128e-06 0)
(5.51333e-06 1.12902e-06 0)
(4.78291e-06 1.19271e-06 0)
(3.99242e-06 1.25255e-06 0)
(3.14256e-06 1.30828e-06 0)
(2.23415e-06 1.3601e-06 0)
(1.26831e-06 1.40869e-06 0)
(2.46075e-07 1.45396e-06 0)
(-8.32276e-07 1.4961e-06 0)
(-1.96603e-06 1.53374e-06 0)
(-3.15405e-06 1.57132e-06 0)
(-4.39646e-06 1.60507e-06 0)
(-5.69278e-06 1.63596e-06 0)
(-7.04064e-06 1.66335e-06 0)
(-8.43709e-06 1.68703e-06 0)
(-9.88139e-06 1.70606e-06 0)
(-1.13633e-05 1.7186e-06 0)
(-1.28939e-05 1.72611e-06 0)
(-1.44243e-05 1.71832e-06 0)
(-1.60356e-05 1.70969e-06 0)
(-1.75417e-05 1.65898e-06 0)
(-1.91878e-05 1.57099e-06 0)
(-2.04706e-05 1.24559e-06 0)
(-2.16242e-05 5.93827e-07 0)
(-9.86869e-08 4.9878e-07 0)
(-4.96135e-07 7.82716e-07 0)
(-9.88947e-07 8.75705e-07 0)
(-1.50335e-06 8.99952e-07 0)
(-2.02699e-06 8.99476e-07 0)
(-2.54718e-06 8.90665e-07 0)
(-3.06456e-06 8.77676e-07 0)
(-3.57515e-06 8.60119e-07 0)
(-4.07701e-06 8.36739e-07 0)
(-4.56679e-06 8.06496e-07 0)
(-5.04089e-06 7.68651e-07 0)
(-5.49524e-06 7.22683e-07 0)
(-5.92556e-06 6.68091e-07 0)
(-6.3274e-06 6.0467e-07 0)
(-6.69618e-06 5.32668e-07 0)
(-7.02751e-06 4.52474e-07 0)
(-7.31739e-06 3.64927e-07 0)
(-7.56214e-06 2.71097e-07 0)
(-7.75854e-06 1.72007e-07 0)
(-7.90393e-06 6.9077e-08 0)
(-7.99613e-06 -3.64273e-08 0)
(-8.03361e-06 -1.43526e-07 0)
(-8.0155e-06 -2.50759e-07 0)
(-7.94156e-06 -3.56924e-07 0)
(-7.81219e-06 -4.60886e-07 0)
(-7.62841e-06 -5.61225e-07 0)
(-7.39187e-06 -6.56804e-07 0)
(-7.10481e-06 -7.46528e-07 0)
(-6.76985e-06 -8.29243e-07 0)
(-6.39018e-06 -9.04165e-07 0)
(-5.96921e-06 -9.70625e-07 0)
(-5.51076e-06 -1.02787e-06 0)
(-5.0189e-06 -1.07581e-06 0)
(-4.49791e-06 -1.11408e-06 0)
(-3.95223e-06 -1.14297e-06 0)
(-3.38666e-06 -1.16245e-06 0)
(-2.80594e-06 -1.17247e-06 0)
(-2.21469e-06 -1.1728e-06 0)
(-1.6172e-06 -1.1645e-06 0)
(-1.01776e-06 -1.14772e-06 0)
(-4.20088e-07 -1.12387e-06 0)
(1.72988e-07 -1.09435e-06 0)
(7.56787e-07 -1.05716e-06 0)
(1.32822e-06 -1.0174e-06 0)
(1.88664e-06 -9.74638e-07 0)
(2.43057e-06 -9.28458e-07 0)
(2.95838e-06 -8.81639e-07 0)
(3.4684e-06 -8.3365e-07 0)
(3.96101e-06 -7.85653e-07 0)
(4.43691e-06 -7.3846e-07 0)
(4.89519e-06 -6.91984e-07 0)
(5.33597e-06 -6.46609e-07 0)
(5.75906e-06 -6.02136e-07 0)
(6.16443e-06 -5.57761e-07 0)
(6.55116e-06 -5.12743e-07 0)
(6.91854e-06 -4.66967e-07 0)
(7.26558e-06 -4.18486e-07 0)
(7.59046e-06 -3.67205e-07 0)
(7.89118e-06 -3.11912e-07 0)
(8.16544e-06 -2.52322e-07 0)
(8.41072e-06 -1.87551e-07 0)
(8.62385e-06 -1.17295e-07 0)
(8.80209e-06 -4.12271e-08 0)
(8.94224e-06 4.03966e-08 0)
(9.04065e-06 1.27077e-07 0)
(9.09376e-06 2.18842e-07 0)
(9.0986e-06 3.15329e-07 0)
(9.05216e-06 4.15511e-07 0)
(8.95174e-06 5.18556e-07 0)
(8.79471e-06 6.24113e-07 0)
(8.57893e-06 7.31631e-07 0)
(8.30261e-06 8.40509e-07 0)
(7.96448e-06 9.49932e-07 0)
(7.56347e-06 1.05909e-06 0)
(7.09874e-06 1.16717e-06 0)
(6.56996e-06 1.27322e-06 0)
(5.97715e-06 1.37636e-06 0)
(5.32001e-06 1.47579e-06 0)
(4.59881e-06 1.57097e-06 0)
(3.81419e-06 1.66189e-06 0)
(2.96633e-06 1.74848e-06 0)
(2.05561e-06 1.83095e-06 0)
(1.08253e-06 1.90957e-06 0)
(4.77272e-08 1.98451e-06 0)
(-1.04906e-06 2.05585e-06 0)
(-2.20625e-06 2.12443e-06 0)
(-3.42338e-06 2.1907e-06 0)
(-4.70171e-06 2.2537e-06 0)
(-6.04017e-06 2.31321e-06 0)
(-7.43747e-06 2.36854e-06 0)
(-8.8918e-06 2.41866e-06 0)
(-1.0403e-05 2.46254e-06 0)
(-1.19603e-05 2.49786e-06 0)
(-1.35762e-05 2.52419e-06 0)
(-1.51969e-05 2.53113e-06 0)
(-1.69087e-05 2.52951e-06 0)
(-1.85117e-05 2.47282e-06 0)
(-2.02678e-05 2.34203e-06 0)
(-2.16197e-05 1.88344e-06 0)
(-2.28452e-05 9.13022e-07 0)
(-1.00166e-07 6.46637e-07 0)
(-5.04897e-07 1.01012e-06 0)
(-1.00384e-06 1.12957e-06 0)
(-1.52331e-06 1.16141e-06 0)
(-2.05237e-06 1.16264e-06 0)
(-2.57927e-06 1.15282e-06 0)
(-3.10438e-06 1.13755e-06 0)
(-3.62357e-06 1.11645e-06 0)
(-4.1348e-06 1.08804e-06 0)
(-4.63456e-06 1.05104e-06 0)
(-5.11919e-06 1.00446e-06 0)
(-5.58442e-06 9.47599e-07 0)
(-6.02579e-06 8.79889e-07 0)
(-6.43866e-06 8.01036e-07 0)
(-6.81826e-06 7.11269e-07 0)
(-7.16005e-06 6.11203e-07 0)
(-7.45999e-06 5.01838e-07 0)
(-7.7143e-06 3.84406e-07 0)
(-7.91962e-06 2.60288e-07 0)
(-8.0733e-06 1.31076e-07 0)
(-8.1731e-06 -1.65882e-09 0)
(-8.21739e-06 -1.36516e-07 0)
(-8.20541e-06 -2.7184e-07 0)
(-8.13692e-06 -4.06024e-07 0)
(-8.01246e-06 -5.37542e-07 0)
(-7.83321e-06 -6.64834e-07 0)
(-7.60077e-06 -7.86306e-07 0)
(-7.31755e-06 -9.00661e-07 0)
(-6.98619e-06 -1.00664e-06 0)
(-6.60983e-06 -1.10304e-06 0)
(-6.19202e-06 -1.1893e-06 0)
(-5.73646e-06 -1.26424e-06 0)
(-5.24727e-06 -1.3279e-06 0)
(-4.72877e-06 -1.37959e-06 0)
(-4.18553e-06 -1.41965e-06 0)
(-3.62242e-06 -1.44772e-06 0)
(-3.04444e-06 -1.46408e-06 0)
(-2.4562e-06 -1.46841e-06 0)
(-1.86211e-06 -1.46204e-06 0)
(-1.26654e-06 -1.44499e-06 0)
(-6.72996e-07 -1.4191e-06 0)
(-8.38056e-08 -1.38622e-06 0)
(4.95689e-07 -1.34388e-06 0)
(1.06198e-06 -1.29851e-06 0)
(1.61555e-06 -1.24833e-06 0)
(2.15452e-06 -1.19444e-06 0)
(2.67802e-06 -1.13964e-06 0)
(3.18462e-06 -1.08288e-06 0)
(3.67416e-06 -1.02649e-06 0)
(4.14768e-06 -9.71013e-07 0)
(4.60428e-06 -9.1603e-07 0)
(5.04412e-06 -8.62154e-07 0)
(5.46703e-06 -8.09087e-07 0)
(5.87313e-06 -7.55858e-07 0)
(6.26136e-06 -7.01827e-07 0)
(6.63108e-06 -6.46392e-07 0)
(6.98127e-06 -5.87461e-07 0)
(7.31014e-06 -5.24941e-07 0)
(7.61577e-06 -4.57333e-07 0)
(7.89574e-06 -3.84049e-07 0)
(8.14769e-06 -3.04363e-07 0)
(8.36833e-06 -2.17676e-07 0)
(8.55497e-06 -1.23575e-07 0)
(8.7043e-06 -2.22034e-08 0)
(8.81251e-06 8.60924e-08 0)
(8.87585e-06 2.01208e-07 0)
(8.891e-06 3.22623e-07 0)
(8.85472e-06 4.49118e-07 0)
(8.76418e-06 5.79996e-07 0)
(8.61657e-06 7.14618e-07 0)
(8.40959e-06 8.52236e-07 0)
(8.14142e-06 9.91872e-07 0)
(7.81075e-06 1.13275e-06 0)
(7.41641e-06 1.27376e-06 0)
(6.95764e-06 1.41403e-06 0)
(6.43412e-06 1.5524e-06 0)
(5.84571e-06 1.68795e-06 0)
(5.19193e-06 1.8198e-06 0)
(4.47289e-06 1.94737e-06 0)
(3.68899e-06 2.07043e-06 0)
(2.84012e-06 2.18914e-06 0)
(1.92657e-06 2.30362e-06 0)
(9.48667e-07 2.41391e-06 0)
(-9.34425e-08 2.52018e-06 0)
(-1.19954e-06 2.62253e-06 0)
(-2.36879e-06 2.72343e-06 0)
(-3.60107e-06 2.82073e-06 0)
(-4.89689e-06 2.91454e-06 0)
(-6.25575e-06 3.00501e-06 0)
(-7.67704e-06 3.09073e-06 0)
(-9.15939e-06 3.17018e-06 0)
(-1.07031e-05 3.24204e-06 0)
(-1.22973e-05 3.30297e-06 0)
(-1.39561e-05 3.35098e-06 0)
(-1.56219e-05 3.37515e-06 0)
(-1.73861e-05 3.38209e-06 0)
(-1.90392e-05 3.31963e-06 0)
(-2.08523e-05 3.14182e-06 0)
(-2.22367e-05 2.54109e-06 0)
(-2.34867e-05 1.22611e-06 0)
(-1.00947e-07 7.96075e-07 0)
(-5.09552e-07 1.24005e-06 0)
(-1.01161e-06 1.38492e-06 0)
(-1.53316e-06 1.42417e-06 0)
(-2.06455e-06 1.42757e-06 0)
(-2.5951e-06 1.41732e-06 0)
(-3.12491e-06 1.40025e-06 0)
(-3.64967e-06 1.37603e-06 0)
(-4.16728e-06 1.34294e-06 0)
(-4.67411e-06 1.2995e-06 0)
(-5.16637e-06 1.24441e-06 0)
(-5.63963e-06 1.17681e-06 0)
(-6.08916e-06 1.096e-06 0)
(-6.51009e-06 1.00165e-06 0)
(-6.89748e-06 8.93951e-07 0)
(-7.24663e-06 7.73795e-07 0)
(-7.55347e-06 6.4239e-07 0)
(-7.81411e-06 5.01039e-07 0)
(-8.02492e-06 3.51494e-07 0)
(-8.18324e-06 1.95653e-07 0)
(-8.28681e-06 3.52109e-08 0)
(-8.3339e-06 -1.27799e-07 0)
(-8.32386e-06 -2.91515e-07 0)
(-8.25654e-06 -4.54096e-07 0)
(-8.13249e-06 -6.13448e-07 0)
(-7.95301e-06 -7.67903e-07 0)
(-7.7198e-06 -9.15534e-07 0)
(-7.43517e-06 -1.05468e-06 0)
(-7.10202e-06 -1.18408e-06 0)
(-6.72339e-06 -1.30215e-06 0)
(-6.30297e-06 -1.40824e-06 0)
(-5.84451e-06 -1.5011e-06 0)
(-5.35211e-06 -1.58048e-06 0)
(-4.83022e-06 -1.6457e-06 0)
(-4.28361e-06 -1.69679e-06 0)
(-3.71717e-06 -1.73352e-06 0)
(-3.1361e-06 -1.75589e-06 0)
(-2.54518e-06 -1.76419e-06 0)
(-1.94879e-06 -1.75939e-06 0)
(-1.35157e-06 -1.74188e-06 0)
(-7.57126e-07 -1.71387e-06 0)
(-1.66973e-07 -1.67682e-06 0)
(4.12338e-07 -1.62954e-06 0)
(9.77288e-07 -1.57825e-06 0)
(1.52987e-06 -1.52061e-06 0)
(2.06714e-06 -1.45915e-06 0)
(2.58902e-06 -1.39628e-06 0)
(3.09464e-06 -1.33115e-06 0)
(3.58307e-06 -1.26644e-06 0)
(4.05557e-06 -1.20273e-06 0)
(4.51133e-06 -1.13947e-06 0)
(4.95054e-06 -1.07739e-06 0)
(5.37329e-06 -1.016e-06 0)
(5.77991e-06 -9.54266e-07 0)
(6.16915e-06 -8.91472e-07 0)
(6.54056e-06 -8.26663e-07 0)
(6.89319e-06 -7.57827e-07 0)
(7.22517e-06 -6.84293e-07 0)
(7.53468e-06 -6.04793e-07 0)
(7.81922e-06 -5.18179e-07 0)
(8.07646e-06 -4.23848e-07 0)
(8.30291e-06 -3.21046e-07 0)
(8.49566e-06 -2.09126e-07 0)
(8.65131e-06 -8.81879e-08 0)
(8.76595e-06 4.15949e-08 0)
(8.83571e-06 1.80059e-07 0)
(8.85703e-06 3.26474e-07 0)
(8.82648e-06 4.79515e-07 0)
(8.74131e-06 6.38398e-07 0)
(8.59873e-06 8.02274e-07 0)
(8.39628e-06 9.70244e-07 0)
(8.13206e-06 1.14097e-06 0)
(7.80462e-06 1.31366e-06 0)
(7.4127e-06 1.4869e-06 0)
(6.95567e-06 1.65961e-06 0)
(6.43334e-06 1.83058e-06 0)
(5.84554e-06 1.99887e-06 0)
(5.19179e-06 2.1635e-06 0)
(4.47224e-06 2.32386e-06 0)
(3.68716e-06 2.47954e-06 0)
(2.83636e-06 2.63088e-06 0)
(1.9203e-06 2.77786e-06 0)
(9.3939e-07 2.92036e-06 0)
(-1.06715e-07 3.05881e-06 0)
(-1.21789e-06 3.19359e-06 0)
(-2.39343e-06 3.32628e-06 0)
(-3.63387e-06 3.45625e-06 0)
(-4.93906e-06 3.58168e-06 0)
(-6.30863e-06 3.70428e-06 0)
(-7.74247e-06 3.82134e-06 0)
(-9.23895e-06 3.93164e-06 0)
(-1.07992e-05 4.03297e-06 0)
(-1.24126e-05 4.12125e-06 0)
(-1.40953e-05 4.19303e-06 0)
(-1.5787e-05 4.2363e-06 0)
(-1.75837e-05 4.25335e-06 0)
(-1.92693e-05 4.18567e-06 0)
(-2.11217e-05 3.95909e-06 0)
(-2.25357e-05 3.2101e-06 0)
(-2.3815e-05 1.53995e-06 0)
(-1.01447e-07 9.46419e-07 0)
(-5.12225e-07 1.47133e-06 0)
(-1.01613e-06 1.64113e-06 0)
(-1.53899e-06 1.68765e-06 0)
(-2.07211e-06 1.69366e-06 0)
(-2.60557e-06 1.68354e-06 0)
(-3.13937e-06 1.66518e-06 0)
(-3.66914e-06 1.63829e-06 0)
(-4.19268e-06 1.60093e-06 0)
(-4.70619e-06 1.55136e-06 0)
(-5.20575e-06 1.48804e-06 0)
(-5.68675e-06 1.40982e-06 0)
(-6.14415e-06 1.31591e-06 0)
(-6.5728e-06 1.20596e-06 0)
(-6.9677e-06 1.08018e-06 0)
(-7.32397e-06 9.39679e-07 0)
(-7.63728e-06 7.85938e-07 0)
(-7.90363e-06 6.20302e-07 0)
(-8.11921e-06 4.44814e-07 0)
(-8.28113e-06 2.61857e-07 0)
(-8.38726e-06 7.32944e-08 0)
(-8.43585e-06 -1.18468e-07 0)
(-8.42619e-06 -3.1103e-07 0)
(-8.35837e-06 -5.02373e-07 0)
(-8.23294e-06 -6.90012e-07 0)
(-8.05115e-06 -8.71961e-07 0)
(-7.81492e-06 -1.04608e-06 0)
(-7.52648e-06 -1.2104e-06 0)
(-7.18883e-06 -1.36338e-06 0)
(-6.80515e-06 -1.50349e-06 0)
(-6.37905e-06 -1.62953e-06 0)
(-5.9145e-06 -1.74053e-06 0)
(-5.41564e-06 -1.83571e-06 0)
(-4.88705e-06 -1.91458e-06 0)
(-4.33369e-06 -1.97662e-06 0)
(-3.76064e-06 -2.022e-06 0)
(-3.17309e-06 -2.05022e-06 0)
(-2.57604e-06 -2.06226e-06 0)
(-1.97411e-06 -2.05877e-06 0)
(-1.37176e-06 -2.04054e-06 0)
(-7.73023e-07 -2.00996e-06 0)
(-1.79071e-07 -1.96835e-06 0)
(4.03146e-07 -1.91615e-06 0)
(9.69892e-07 -1.85806e-06 0)
(1.52392e-06 -1.79298e-06 0)
(2.06149e-06 -1.72375e-06 0)
(2.58297e-06 -1.65249e-06 0)
(3.08789e-06 -1.57923e-06 0)
(3.57542e-06 -1.50614e-06 0)
(4.0475e-06 -1.43406e-06 0)
(4.50308e-06 -1.36289e-06 0)
(4.9422e-06 -1.2927e-06 0)
(5.36519e-06 -1.22315e-06 0)
(5.77257e-06 -1.15311e-06 0)
(6.1632e-06 -1.08199e-06 0)
(6.53664e-06 -1.00802e-06 0)
(6.89206e-06 -9.2979e-07 0)
(7.22758e-06 -8.45481e-07 0)
(7.54132e-06 -7.54479e-07 0)
(7.83073e-06 -6.54819e-07 0)
(8.09335e-06 -5.46131e-07 0)
(8.32561e-06 -4.27306e-07 0)
(8.52438e-06 -2.97626e-07 0)
(8.6861e-06 -1.5715e-07 0)
(8.80673e-06 -5.86512e-09 0)
(8.88228e-06 1.56076e-07 0)
(8.90909e-06 3.27676e-07 0)
(8.88382e-06 5.07462e-07 0)
(8.8036e-06 6.94538e-07 0)
(8.66539e-06 8.87913e-07 0)
(8.46651e-06 1.08655e-06 0)
(8.20507e-06 1.28877e-06 0)
(7.87963e-06 1.49362e-06 0)
(7.48901e-06 1.69944e-06 0)
(7.03267e-06 1.90492e-06 0)
(6.51032e-06 2.10876e-06 0)
(5.92189e-06 2.31006e-06 0)
(5.26716e-06 2.50767e-06 0)
(4.5464e-06 2.70101e-06 0)
(3.75967e-06 2.88958e-06 0)
(2.90685e-06 3.07372e-06 0)
(1.98871e-06 3.25325e-06 0)
(1.00579e-06 3.42808e-06 0)
(-4.28142e-08 3.59891e-06 0)
(-1.15677e-06 3.76676e-06 0)
(-2.33517e-06 3.93158e-06 0)
(-3.57945e-06 4.09384e-06 0)
(-4.88886e-06 4.25273e-06 0)
(-6.26358e-06 4.40748e-06 0)
(-7.70458e-06 4.55666e-06 0)
(-9.20964e-06 4.6986e-06 0)
(-1.07802e-05 4.83047e-06 0)
(-1.2406e-05 4.94744e-06 0)
(-1.41053e-05 5.0448e-06 0)
(-1.58154e-05 5.10912e-06 0)
(-1.76378e-05 5.13837e-06 0)
(-1.93513e-05 5.06746e-06 0)
(-2.12409e-05 4.79336e-06 0)
(-2.26917e-05 3.89327e-06 0)
(-2.40045e-05 1.86253e-06 0)
(-1.01855e-07 1.09735e-06 0)
(-5.13781e-07 1.70329e-06 0)
(-1.01873e-06 1.89797e-06 0)
(-1.54287e-06 1.95187e-06 0)
(-2.07794e-06 1.96088e-06 0)
(-2.61442e-06 1.95146e-06 0)
(-3.15238e-06 1.93233e-06 0)
(-3.68742e-06 1.90331e-06 0)
(-4.21732e-06 1.86213e-06 0)
(-4.73807e-06 1.80679e-06 0)
(-5.24553e-06 1.73552e-06 0)
(-5.73495e-06 1.64687e-06 0)
(-6.20101e-06 1.53986e-06 0)
(-6.63821e-06 1.41421e-06 0)
(-7.04141e-06 1.27022e-06 0)
(-7.4056e-06 1.1091e-06 0)
(-7.72603e-06 9.32583e-07 0)
(-7.99844e-06 7.42207e-07 0)
(-8.21901e-06 5.40228e-07 0)
(-8.38466e-06 3.29498e-07 0)
(-8.49312e-06 1.12274e-07 0)
(-8.54291e-06 -1.08737e-07 0)
(-8.53321e-06 -3.3078e-07 0)
(-8.46418e-06 -5.51354e-07 0)
(-8.33655e-06 -7.67786e-07 0)
(-8.15149e-06 -9.77725e-07 0)
(-7.91104e-06 -1.17867e-06 0)
(-7.61758e-06 -1.36865e-06 0)
(-7.27399e-06 -1.54553e-06 0)
(-6.88365e-06 -1.70801e-06 0)
(-6.45014e-06 -1.85434e-06 0)
(-5.97753e-06 -1.98367e-06 0)
(-5.47016e-06 -2.09487e-06 0)
(-4.93286e-06 -2.1874e-06 0)
(-4.37066e-06 -2.26048e-06 0)
(-3.78886e-06 -2.3143e-06 0)
(-3.19291e-06 -2.34836e-06 0)
(-2.58766e-06 -2.36388e-06 0)
(-1.97807e-06 -2.36143e-06 0)
(-1.36866e-06 -2.34221e-06 0)
(-7.63586e-07 -2.30856e-06 0)
(-1.64225e-07 -2.26209e-06 0)
(4.22103e-07 -2.2043e-06 0)
(9.91892e-07 -2.13885e-06 0)
(1.54803e-06 -2.06603e-06 0)
(2.08665e-06 -1.98876e-06 0)
(2.60848e-06 -1.90856e-06 0)
(3.11331e-06 -1.82719e-06 0)
(3.6005e-06 -1.74564e-06 0)
(4.07205e-06 -1.66521e-06 0)
(4.52732e-06 -1.58628e-06 0)
(4.96645e-06 -1.50814e-06 0)
(5.38971e-06 -1.43062e-06 0)
(5.79785e-06 -1.3525e-06 0)
(6.19002e-06 -1.27348e-06 0)
(6.56559e-06 -1.1907e-06 0)
(6.92397e-06 -1.10338e-06 0)
(7.26323e-06 -1.00872e-06 0)
(7.58141e-06 -9.06496e-07 0)
(7.87597e-06 -7.94129e-07 0)
(8.14424e-06 -6.71344e-07 0)
(8.38266e-06 -5.36589e-07 0)
(8.58787e-06 -3.89268e-07 0)
(8.75607e-06 -2.29231e-07 0)
(8.88293e-06 -5.63112e-08 0)
(8.96447e-06 1.29216e-07 0)
(8.99731e-06 3.26066e-07 0)
(8.97803e-06 5.32717e-07 0)
(8.90312e-06 7.48314e-07 0)
(8.76928e-06 9.71636e-07 0)
(8.57387e-06 1.20134e-06 0)
(8.31494e-06 1.43552e-06 0)
(7.99118e-06 1.67286e-06 0)
(7.60158e-06 1.91162e-06 0)
(7.14559e-06 2.15022e-06 0)
(6.62279e-06 2.38729e-06 0)
(6.03324e-06 2.62183e-06 0)
(5.37708e-06 2.85259e-06 0)
(4.65462e-06 3.07904e-06 0)
(3.86591e-06 3.30066e-06 0)
(3.01109e-06 3.5176e-06 0)
(2.0911e-06 3.72961e-06 0)
(1.10629e-06 3.93681e-06 0)
(5.58761e-08 4.14011e-06 0)
(-1.06001e-06 4.34075e-06 0)
(-2.24045e-06 4.5382e-06 0)
(-3.48625e-06 4.73276e-06 0)
(-4.79765e-06 4.92534e-06 0)
(-6.17518e-06 5.1127e-06 0)
(-7.61992e-06 5.29488e-06 0)
(-9.13068e-06 5.46928e-06 0)
(-1.07092e-05 5.63286e-06 0)
(-1.23455e-05 5.77987e-06 0)
(-1.406e-05 5.90474e-06 0)
(-1.57881e-05 5.99252e-06 0)
(-1.76368e-05 6.03675e-06 0)
(-1.93806e-05 5.96571e-06 0)
(-2.13109e-05 5.64726e-06 0)
(-2.28061e-05 4.59421e-06 0)
(-2.415e-05 2.19361e-06 0)
(-1.02183e-07 1.24868e-06 0)
(-5.14497e-07 1.9355e-06 0)
(-1.01987e-06 2.15531e-06 0)
(-1.54541e-06 2.21701e-06 0)
(-2.08287e-06 2.22942e-06 0)
(-2.62273e-06 2.22126e-06 0)
(-3.16533e-06 2.20195e-06 0)
(-3.7062e-06 2.17137e-06 0)
(-4.24313e-06 2.12692e-06 0)
(-4.77202e-06 2.06624e-06 0)
(-5.28843e-06 1.98733e-06 0)
(-5.78737e-06 1.88848e-06 0)
(-6.26327e-06 1.76842e-06 0)
(-6.7103e-06 1.62696e-06 0)
(-7.12301e-06 1.46459e-06 0)
(-7.4962e-06 1.28257e-06 0)
(-7.82479e-06 1.08274e-06 0)
(-8.10404e-06 8.66998e-07 0)
(-8.33012e-06 6.37961e-07 0)
(-8.49998e-06 3.98733e-07 0)
(-8.61105e-06 1.52111e-07 0)
(-8.66198e-06 -9.87829e-08 0)
(-8.65216e-06 -3.50963e-07 0)
(-8.58161e-06 -6.01348e-07 0)
(-8.45116e-06 -8.47084e-07 0)
(-8.26224e-06 -1.08557e-06 0)
(-8.0168e-06 -1.31383e-06 0)
(-7.71744e-06 -1.52984e-06 0)
(-7.36697e-06 -1.73119e-06 0)
(-6.96877e-06 -1.91632e-06 0)
(-6.52659e-06 -2.08345e-06 0)
(-6.04453e-06 -2.23131e-06 0)
(-5.52716e-06 -2.35882e-06 0)
(-4.97959e-06 -2.46497e-06 0)
(-4.4071e-06 -2.5492e-06 0)
(-3.81502e-06 -2.6113e-06 0)
(-3.20903e-06 -2.65108e-06 0)
(-2.59414e-06 -2.66986e-06 0)
(-1.97542e-06 -2.66816e-06 0)
(-1.35763e-06 -2.64755e-06 0)
(-7.45168e-07 -2.61034e-06 0)
(-1.39652e-07 -2.55843e-06 0)
(4.51451e-07 -2.49441e-06 0)
(1.02479e-06 -2.42086e-06 0)
(1.58343e-06 -2.34005e-06 0)
(2.1238e-06 -2.25437e-06 0)
(2.64641e-06 -2.16492e-06 0)
(3.15147e-06 -2.07499e-06 0)
(3.63864e-06 -1.98494e-06 0)
(4.10954e-06 -1.89624e-06 0)
(4.56433e-06 -1.80933e-06 0)
(5.00333e-06 -1.72361e-06 0)
(5.42665e-06 -1.6384e-06 0)
(5.83531e-06 -1.55251e-06 0)
(6.22901e-06 -1.46584e-06 0)
(6.60683e-06 -1.37477e-06 0)
(6.96823e-06 -1.27856e-06 0)
(7.31148e-06 -1.1742e-06 0)
(7.63446e-06 -1.06094e-06 0)
(7.93458e-06 -9.36304e-07 0)
(8.20888e-06 -7.99576e-07 0)
(8.4539e-06 -6.49136e-07 0)
(8.66598e-06 -4.84326e-07 0)
(8.84104e-06 -3.04601e-07 0)
(8.97448e-06 -1.09871e-07 0)
(9.06243e-06 9.92795e-08 0)
(9.1017e-06 3.21333e-07 0)
(9.08859e-06 5.55063e-07 0)
(9.01909e-06 7.99578e-07 0)
(8.8899e-06 1.05331e-06 0)
(8.69843e-06 1.31451e-06 0)
(8.44253e-06 1.58115e-06 0)
(8.12079e-06 1.85141e-06 0)
(7.73227e-06 2.1235e-06 0)
(7.27648e-06 2.39562e-06 0)
(6.7531e-06 2.66629e-06 0)
(6.16234e-06 2.93433e-06 0)
(5.50451e-06 3.1984e-06 0)
(4.78006e-06 3.45809e-06 0)
(3.98922e-06 3.71279e-06 0)
(3.1325e-06 3.96245e-06 0)
(2.21079e-06 4.20689e-06 0)
(1.22417e-06 4.44651e-06 0)
(1.7202e-07 4.6823e-06 0)
(-9.45335e-07 4.91541e-06 0)
(-2.12733e-06 5.14567e-06 0)
(-3.3744e-06 5.37293e-06 0)
(-4.68719e-06 5.59821e-06 0)
(-6.06682e-06 5.81922e-06 0)
(-7.51471e-06 6.03505e-06 0)
(-9.03063e-06 6.24309e-06 0)
(-1.06169e-05 6.43966e-06 0)
(-1.22639e-05 6.61869e-06 0)
(-1.39941e-05 6.77328e-06 0)
(-1.5742e-05 6.8875e-06 0)
(-1.76204e-05 6.95031e-06 0)
(-1.93996e-05 6.88314e-06 0)
(-2.13778e-05 6.52472e-06 0)
(-2.29282e-05 5.31703e-06 0)
(-2.43137e-05 2.53323e-06 0)
(-1.02355e-07 1.4002e-06 0)
(-5.14436e-07 2.16764e-06 0)
(-1.01978e-06 2.413e-06 0)
(-1.54678e-06 2.48326e-06 0)
(-2.08703e-06 2.49945e-06 0)
(-2.63061e-06 2.49317e-06 0)
(-3.17836e-06 2.47434e-06 0)
(-3.72576e-06 2.44283e-06 0)
(-4.27058e-06 2.39574e-06 0)
(-4.80865e-06 2.33027e-06 0)
(-5.3353e-06 2.2441e-06 0)
(-5.84507e-06 2.13525e-06 0)