/*--------------------------------*- C++ -*----------------------------------*\
| =========                 |                                                 |
| \\      /  F ield         | OpenFOAM: The Open Source CFD Toolbox           |
|  \\    /   O peration     | Version:  2.4.0                                 |
|   \\  /    A nd           | Web:      www.OpenFOAM.org                      |
|    \\/     M anipulation  |                                                 |
\*---------------------------------------------------------------------------*/
FoamFile
{
    version     2.0;
    format      ascii;
    class       volScalarField;
    location    "0.1";
    object      alpha.water;
}
// * * * * * * * * * * * * * * * * * * * * * * * * * * * * * * * * * * * * * //

dimensions      [0 0 0 0 0 0 0];

internalField   nonuniform List<scalar> 
60000
(
1
1
1
1
1
1
1
1
1
1
1
1
1
1
1
1
1
1
1
1
1
1
1
1
1
1
1
1
1
1
1
1
1
1
1
1
1
1
1
1
1
1
1
1
1
1
1
1
1
1
1
1
1
1
1
1
1
1
1
1
1
1
1
1
1
1
1
1
1
1
1
1
1
1
1
1
1
1
1
1
1
1
1
1
1
1
1
1
1
1
1
1
1
1
1
1
1
1
1
1
1
1
1
1
1
1
1
1
1
1
1
1
1
1
1
1
1
1
1
1
1
1
1
1
1
1
1
1
1
1
1
1
1
1
1
1
1
1
1
1
1
1
1
1
1
1
1
1
1
1
1
1
1
1
1
1
1
1
1
1
1
1
1
1
1
1
1
1
1
1
1
1
1
1
1
1
1
1
1
1
1
1
1
1
1
1
1
1
1
1
1
1
1
1
1
1
1
1
1
1
1
1
1
1
1
1
1
1
1
1
1
1
1
1
1
1
1
1
1
1
1
1
1
1
1
1
1
1
1
1
1
1
1
1
1
1
1
1
1
1
1
1
1
1
1
1
1
1
1
1
1
1
1
1
1
1
1
1
1
1
1
1
1
1
1
1
1
1
1
1
1
1
1
1
1
1
1
1
1
1
1
1
1
1
1
1
1
1
1
1
1
1
1
1
1
1
1
1
1
1
1
1
1
1
1
1
1
1
1
1
1
1
1
1
1
1
1
1
1
1
1
1
1
1
1
1
1
1
1
1
1
1
1
1
1
1
1
1
1
1
1
1
1
1
1
1
1
1
1
1
1
1
1
1
1
1
1
1
1
1
1
1
1
1
1
1
1
1
1
1
1
1
1
1
1
1
1
1
1
1
1
1
1
1
1
1
1
1
1
1
1
1
1
1
1
1
1
1
1
1
1
1
1
1
1
1
1
1
1
1
1
1
1
1
1
1
1
1
1
1
1
1
1
1
1
1
1
1
1
1
1
1
1
1
1
1
1
1
1
1
1
1
1
1
1
1
1
1
1
1
1
1
1
1
1
1
1
1
1
1
1
1
1
1
1
1
1
1
1
1
1
1
1
1
1
1
1
1
1
1
1
1
1
1
1
1
1
1
1
1
1
1
1
1
1
1
1
1
1
1
1
1
1
1
1
1
1
1
1
1
1
1
1
1
1
1
1
1
1
1
1
1
1
1
1
1
1
1
1
1
1
1
1
1
1
1
1
1
1
1
1
1
1
1
1
1
1
1
1
1
1
1
1
1
1
1
1
1
1
1
1
1
1
1
1
1
1
1
1
1
1
1
1
1
1
1
1
1
1
1
1
1
1
1
1
1
1
1
1
1
1
1
1
1
1
1
1
1
1
1
1
1
1
1
1
1
1
1
1
1
1
1
1
1
1
1
1
1
1
1
1
1
1
1
1
1
1
1
1
1
1
1
1
1
1
1
1
1
1
1
1
1
1
1
1
1
1
1
1
1
1
1
1
1
1
1
1
1
1
1
1
1
1
1
1
1
1
1
1
1
1
1
1
1
1
1
1
1
1
1
1
1
1
1
1
1
1
1
1
1
1
1
1
1
1
1
1
1
1
1
1
1
1
1
1
1
1
1
1
1
1
1
1
1
1
1
1
1
1
1
1
1
1
1
1
1
1
1
1
1
1
1
1
1
1
1
1
1
1
1
1
1
1
1
1
1
1
1
1
1
1
1
1
1
1
1
1
1
1
1
1
1
1
1
1
1
1
1
1
1
1
1
1
1
1
1
1
1
1
1
1
1
1
1
1
1
1
1
1
1
1
1
1
1
1
1
1
1
1
1
1
1
1
1
1
1
1
1
1
1
1
1
1
1
1
1
1
1
1
1
1
1
1
1
1
1
1
1
1
1
1
1
1
1
1
1
1
1
1
1
1
1
1
1
1
1
1
1
1
1
1
1
1
1
1
1
1
1
1
1
1
1
1
1
1
1
1
1
1
1
1
1
1
1
1
1
1
1
1
1
1
1
1
1
1
1
1
1
1
1
1
1
1
1
1
1
1
1
1
1
1
1
1
1
1
1
1
1
1
1
1
1
1
1
1
1
1
1
1
1
1
1
1
1
1
1
1
1
1
1
1
1
1
1
1
1
1
1
1
1
1
1
1
1
1
1
1
1
1
1
1
1
1
1
1
1
1
1
1
1
1
1
1
1
1
1
1
1
1
1
1
1
1
1
1
1
1
1
1
1
1
1
1
1
1
1
1
1
1
1
1
1
1
1
1
1
1
1
1
1
1
1
1
1
1
1
1
1
1
1
1
1
1
1
1
1
1
1
1
1
1
1
1
1
1
1
1
1
1
1
1
1
1
1
1
1
1
1
1
1
1
1
1
1
1
1
1
1
1
1
1
1
1
1
1
1
1
1
1
1
1
1
1
1
1
1
1
1
1
1
1
1
1
1
1
1
1
1
1
1
1
1
1
1
1
1
1
1
1
1
1
1
1
1
1
1
1
1
1
1
1
1
1
1
1
1
1
1
1
1
1
1
1
1
1
1
1
1
1
1
1
1
1
1
1
1
1
1
1
1
1
1
1
1
1
1
1
1
1
1
1
1
1
1
1
1
1
1
1
1
1
1
1
1
1
1
1
1
1
1
1
1
1
1
1
1
1
1
1
1
1
1
1
1
1
1
1
1
1
1
1
1
1
1
1
1
1
1
1
1
1
1
1
1
1
1
1
1
1
1
1
1
1
1
1
1
1
1
1
1
1
1
1
1
1
1
1
1
1
1
1
1
1
1
1
1
1
1
1
1
1
1
1
1
1
1
1
1
1
1
1
1
1
1
1
1
1
1
1
1
1
1
1
1
1
1
1
1
1
1
1
1
1
1
1
1
1
1
1
1
1
1
1
1
1
1
1
1
1
1
1
1
1
1
1
1
1
1
1
1
1
1
1
1
1
1
1
1
1
1
1
1
1
1
1
1
1
1
1
1
1
1
1
1
1
1
1
1
1
1
1
1
1
1
1
1
1
1
1
1
1
1
1
1
1
1
1
1
1
1
1
1
1
1
1
1
1
1
1
1
1
1
1
1
1
1
1
1
1
1
1
1
1
1
1
1
1
1
1
1
1
1
1
1
1
1
1
1
1
1
1
1
1
1
1
1
1
1
1
1
1
1
1
1
1
1
1
1
1
1
1
1
1
1
1
1
1
1
1
1
1
1
1
1
1
1
1
1
1
1
1
1
1
1
1
1
1
1
1
1
1
1
1
1
1
1
1
1
1
1
1
1
1
1
1
1
1
1
1
1
1
1
1
1
1
1
1
1
1
1
1
1
1
1
1
1
1
1
1
1
1
1
1
1
1
1
1
1
1
1
1
1
1
1
1
1
1
1
1
1
1
1
1
1
1
1
1
1
1
1
1
1
1
1
1
1
1
1
1
1
1
1
1
1
1
1
1
1
1
1
1
1
1
1
1
1
1
1
1
1
1
1
1
1
1
1
1
1
1
1
1
1
1
1
1
1
1
1
1
1
1
1
1
1
1
1
1
1
1
1
1
1
1
1
1
1
1
1
1
1
1
1
1
1
1
1
1
1
1
1
1
1
1
1
1
1
1
1
1
1
1
1
1
1
1
1
1
1
1
1
1
1
1
1
1
1
1
1
1
1
1
1
1
1
1
1
1
1
1
1
1
1
1
1
1
1
1
1
1
1
1
1
1
1
1
1
1
1
1
1
1
1
1
1
1
1
1
1
1
1
1
1
1
1
1
1
1
1
1
1
1
1
1
1
1
1
1
1
1
1
1
1
1
1
1
1
1
1
1
1
1
1
1
1
1
1
1
1
1
1
1
1
1
1
1
1
1
1
1
1
1
1
1
1
1
1
1
1
1
1
1
1
1
1
1
1
1
1
1
1
1
1
1
1
1
1
1
1
1
1
1
1
1
1
1
1
1
1
1
1
1
1
1
1
1
1
1
1
1
1
1
1
1
1
1
1
1
1
1
1
1
1
1
1
1
1
1
1
1
1
1
1
1
1
1
1
1
1
1
1
1
1
1
1
1
1
1
1
1
1
1
1
1
1
1
1
1
1
1
1
1
1
1
1
1
1
1
1
1
1
1
1
1
1
1
1
1
1
1
1
1
1
1
1
1
1
1
1
1
1
1
1
1
1
1
1
1
1
1
1
1
1
1
1
1
1
1
1
1
1
1
1
1
1
1
1
1
1
1
1
1
1
1
1
1
1
1
1
1
1
1
1
1
1
1
1
1
1
1
1
1
1
1
1
1
1
1
1
1
1
1
1
1
1
1
1
1
1
1
1
1
1
1
1
1
1
1
1
1
1
1
1
1
1
1
1
1
1
1
1
1
1
1
1
1
1
1
1
1
1
1
1
1
1
1
1
1
1
1
1
1
1
1
1
1
1
1
1
1
1
1
1
1
1
1
1
1
1
1
1
1
1
1
1
1
1
1
1
1
1
1
1
1
1
1
1
1
1
1
1
1
1
1
1
1
1
1
1
1
1
1
1
1
1
1
1
1
1
1
1
1
1
1
1
1
1
1
1
1
1
1
1
1
1
1
1
1
1
1
1
1
1
1
1
1
1
1
1
1
1
1
1
1
1
1
1
1
1
1
1
1
1
1
1
1
1
1
1
1
1
1
1
1
1
1
1
1
1
1
1
1
1
1
1
1
1
1
1
1
1
1
1
1
1
1
1
1
1
1
1
1
1
1
1
1
1
1
1
1
1
1
1
1
1
1
1
1
1
1
1
1
1
1
1
1
1
1
1
1
1
1
1
1
1
1
1
1
1
1
1
1
1
1
1
1
1
1
1
1
1
1
1
1
1
1
1
1
1
1
1
1
1
1
1
1
1
1
1
1
1
1
1
1
1
1
1
1
1
1
1
1
1
1
1
1
1
1
1
1
1
1
1
1
1
1
1
1
1
1
1
1
1
1
1
1
1
1
1
1
1
1
1
1
1
1
1
1
1
1
1
1
1
1
1
1
1
1
1
1
1
1
1
1
1
1
1
1
1
1
1
1
1
1
1
1
1
1
1
1
1
1
1
1
1
1
1
1
1
1
1
1
1
1
1
1
1
1
1
1
1
1
1
1
1
1
1
1
1
1
1
1
1
1
1
1
1
1
1
1
1
1
1
1
1
1
1
1
1
1
1
1
1
1
1
1
1
1
1
1
1
1
1
1
1
1
1
1
1
1
1
1
1
1
1
1
1
1
1
1
1
1
1
1
1
1
1
1
1
1
1
1
1
1
1
1
1
1
1
1
1
1
1
1
1
1
1
1
1
1
1
1
1
1
1
1
1
1
1
1
1
1
1
1
1
1
1
1
1
1
1
1
1
1
1
1
1
1
1
1
1
1
1
1
1
1
1
1
1
1
1
1
1
1
1
1
1
1
1
1
1
1
1
1
1
1
1
1
1
1
1
1
1
1
1
1
1
1
1
1
1
1
1
1
1
1
1
1
1
1
1
1
1
1
1
1
1
1
1
1
1
1
1
1
1
1
1
1
1
1
1
1
1
1
1
1
1
1
1
1
1
1
1
1
1
1
1
1
1
1
1
1
1
1
1
1
1
1
1
1
1
1
1
1
1
1
1
1
1
1
1
1
1
1
1
1
1
1
1
1
1
1
1
1
1
1
1
1
1
1
1
1
1
1
1
1
1
1
1
1
1
1
1
1
1
1
1
1
1
1
1
1
1
1
1
1
1
1
1
1
1
1
1
1
1
1
1
1
1
1
1
1
1
1
1
1
1
1
1
1
1
1
1
1
1
1
1
1
1
1
1
1
1
1
1
1
1
1
1
1
1
1
1
1
1
1
1
1
1
1
1
1
1
1
1
1
1
1
1
1
1
1
1
1
1
1
1
1
1
1
1
1
1
1
1
1
1
1
1
1
1
1
1
1
1
1
1
1
1
1
1
1
1
1
1
1
1
1
1
1
1
1
1
1
1
1
1
1
1
1
1
1
1
1
1
1
1
1
1
1
1
1
1
1
1
1
1
1
1
1
1
1
1
1
1
1
1
1
1
1
1
1
1
1
1
1
1
1
1
1
1
1
1
1
1
1
1
1
1
1
1
1
1
1
1
1
1
1
1
1
1
1
1
1
1
1
1
1
1
1
1
1
1
1
1
1
1
1
1
1
1
1
1
1
1
1
1
1
1
1
1
1
1
1
1
1
1
1
1
1
1
1
1
1
1
1
1
1
1
1
1
1
1
1
1
1
1
1
1
1
1
1
1
1
1
1
1
1
1
1
1
1
1
1
1
1
1
1
1
1
1
1
1
1
1
1
1
1
1
1
1
1
1
1
1
1
1
1
1
1
1
1
1
1
1
1
1
1
1
1
1
1
1
1
1
1
1
1
1
1
1
1
1
1
1
1
1
1
1
1
1
1
1
1
1
1
1
1
1
1
1
1
1
1
1
1
1
1
1
1
1
1
1
1
1
1
1
1
1
1
1
1
1
1
1
1
1
1
1
1
1
1
1
1
1
1
1
1
1
1
1
1
1
1
1
1
1
1
1
1
1
1
1
1
1
1
1
1
1
1
1
1
1
1
1
1
1
1
1
1
1
1
1
1
1
1
1
1
1
1
1
1
1
1
1
1
1
1
1
1
1
1
1
1
1
1
1
1
1
1
1
1
1
1
1
1
1
1
1
1
1
1
1
1
1
1
1
1
1
1
1
1
1
1
1
1
1
1
1
1
1
1
1
1
1
1
1
1
1
1
1
1
1
1
1
1
1
1
1
1
1
1
1
1
1
1
1
1
1
1
1
1
1
1
1
1
1
1
1
1
1
1
1
1
1
1
1
1
1
1
1
1
1
1
1
1
1
1
1
1
1
1
1
1
1
1
1
1
1
1
1
1
1
1
1
1
1
1
1
1
1
1
1
1
1
1
1
1
1
1
1
1
1
1
1
1
1
1
1
1
1
1
1
1
1
1
1
1
1
1
1
1
1
1
1
1
1
1
1
1
1
1
1
1
1
1
1
1
1
1
1
1
1
1
1
1
1
1
1
1
1
1
1
1
1
1
1
1
1
1
1
1
1
1
1
1
1
1
1
1
1
1
1
1
1
1
1
1
1
1
1
1
1
1
1
1
1
1
1
1
1
1
1
1
1
1
1
1
1
1
1
1
1
1
1
1
1
1
1
1
1
1
1
1
1
1
1
1
1
1
1
1
1
1
1
1
1
1
1
1
1
1
1
1
1
1
1
1
1
1
1
1
1
1
1
1
1
1
1
1
1
1
1
1
1
1
1
1
1
1
1
1
1
1
1
1
1
1
1
1
1
1
1
1
1
1
1
1
1
1
1
1
1
1
1
1
1
1
1
1
1
1
1
1
1
1
1
1
1
1
1
1
1
1
1
1
1
1
1
1
1
1
1
1
1
1
1
1
1
1
1
1
1
1
1
1
1
1
1
1
1
1
1
1
1
1
1
1
1
1
1
1
1
1
1
1
1
1
1
1
1
1
1
1
1
1
1
1
1
1
1
1
1
1
1
1
1
1
1
1
1
1
1
1
1
1
1
1
1
1
1
1
1
1
1
1
1
1
1
1
1
1
1
1
1
1
1
1
1
1
1
1
1
1
1
1
1
1
1
1
1
1
1
1
1
1
1
1
1
1
1
1
1
1
1
1
1
1
1
1
1
1
1
1
1
1
1
1
1
1
1
1
1
1
1
1
1
1
1
1
1
1
1
1
1
1
1
1
1
1
1
1
1
1
1
1
1
1
1
1
1
1
1
1
1
1
1
1
1
1
1
1
1
1
1
1
1
1
1
1
1
1
1
1
1
1
1
1
1
1
1
1
1
1
1
1
1
1
1
1
1
1
1
1
1
1
1
1
1
1
1
1
1
1
1
1
1
1
1
1
1
1
1
1
1
1
1
1
1
1
1
1
1
1
1
1
1
1
1
1
1
1
1
1
1
1
1
1
1
1
1
1
1
1
1
1
1
1
1
1
1
1
1
1
1
1
1
1
1
1
1
1
1
1
1
1
1
1
1
1
1
1
1
1
1
1
1
1
1
1
1
1
1
1
1
1
1
1
1
1
1
1
1
1
1
1
1
1
1
1
1
1
1
1
1
1
1
1
1
1
1
1
1
1
1
1
1
1
1
1
1
1
1
1
1
1
1
1
1
1
1
1
1
1
1
1
1
1
1
1
1
1
1
1
1
1
1
1
1
1
1
1
1
1
1
1
1
1
1
1
1
1
1
1
1
1
1
1
1
1
1
1
1
1
1
1
1
1
1
1
1
1
1
1
1
1
1
1
1
1
1
1
1
1
1
1
1
1
1
1
1
1
1
1
1
1
1
1
1
1
1
1
1
1
1
1
1
1
1
1
1
1
1
1
1
1
1
1
1
1
1
1
1
1
1
1
1
1
1
1
1
1
1
1
1
1
1
1
1
1
1
1
1
1
1
1
1
1
1
1
1
1
1
1
1
1
1
1
1
1
1
1
1
1
1
1
1
1
1
1
1
1
1
1
1
1
1
1
1
1
1
1
1
1
1
1
1
1
1
1
1
1
1
1
1
1
1
1
1
1
1
1
1
1
1
1
1
1
1
1
1
1
1
1
1
1
1
1
1
1
1
1
1
1
1
1
1
1
1
1
1
1
1
1
1
1
1
1
1
1
1
1
1
1
1
1
1
1
1
1
1
1
1
1
1
1
1
1
1
1
1
1
1
1
1
1
1
1
1
1
1
1
1
1
1
1
1
1
1
1
1
1
1
1
1
1
1
1
1
1
1
1
1
1
1
1
1
1
1
1
1
1
1
1
1
1
1
1
1
1
1
1
1
1
1
1
1
1
1
1
1
1
1
1
1
1
1
1
1
1
1
1
1
1
1
1
1
1
1
1
1
1
1
1
1
1
1
1
1
1
1
1
1
1
1
1
1
1
1
1
1
1
1
1
1
1
1
1
1
1
1
1
1
1
1
1
1
1
1
1
1
1
1
1
1
1
1
1
1
1
1
1
1
1
1
1
1
1
1
1
1
1
1
1
1
1
1
1
1
1
1
1
1
1
1
1
1
1
1
1
1
1
1
1
1
1
1
1
1
1
1
1
1
1
1
1
1
1
1
1
1
1
1
1
1
1
1
1
1
1
1
1
1
1
1
1
1
1
1
1
1
1
1
1
1
1
1
1
1
1
1
1
1
1
1
1
1
1
1
1
1
1
1
1
1
1
1
1
1
1
1
1
1
1
1
1
1
1
1
1
1
1
1
1
1
1
1
1
1
1
1
1
1
1
1
1
1
1
1
1
1
1
1
1
1
1
1
1
1
1
1
1
1
1
1
1
1
1
1
1
1
1
1
1
1
1
1
1
1
1
1
1
1
1
1
1
1
1
1
1
1
1
1
1
1
1
1
1
1
1
1
1
1
1
1
1
1
1
1
1
1
1
1
1
1
1
1
1
1
1
1
1
1
1
1
1
1
1
1
1
1
1
1
1
1
1
1
1
1
1
1
1
1
1
1
1
1
1
1
1
1
1
1
1
1
1
1
1
1
1
1
1
1
1
1
1
1
1
1
1
1
1
1
1
1
1
1
1
1
1
1
1
1
1
1
1
1
1
1
1
1
1
1
1
1
1
1
1
1
1
1
1
1
1
1
1
1
1
1
1
1
1
1
1
1
1
1
1
1
1
1
1
1
1
1
1
1
1
1
1
1
1
1
1
1
1
1
1
1
1
1
1
1
1
1
1
1
1
1
1
1
1
1
1
1
1
1
1
1
1
1
1
1
1
1
1
1
1
1
1
1
1
1
1
1
1
1
1
1
1
1
1
1
1
1
1
1
1
1
1
1
1
1
1
1
1
1
1
1
1
1
1
1
1
1
1
1
1
1
1
1
1
1
1
1
1
1
1
1
1
1
1
1
1
1
1
1
1
1
1
1
1
1
1
1
1
1
1
1
1
1
1
1
1
1
1
1
1
1
1
1
1
1
1
1
1
1
1
1
1
1
1
1
1
1
1
1
1
1
1
1
1
1
1
1
1
1
1
1
1
1
1
1
1
1
1
1
1
1
1
1
1
1
1
1
1
1
1
1
1
1
1
1
1
1
1
1
1
1
1
1
1
1
1
1
1
1
1
1
1
1
1
1
1
1
1
1
1
1
1
1
1
1
1
1
1
1
1
1
1
1
1
1
1
1
1
1
1
1
1
1
1
1
1
1
1
1
1
1
1
1
1
1
1
1
1
1
1
1
1
1
1
1
1
1
1
1
1
1
1
1
1
1
1
1
1
1
1
1
1
1
1
1
1
1
1
1
1
1
1
1
1
1
1
1
1
1
1
1
1
1
1
1
1
1
1
1
1
1
1
1
1
1
1
1
1
1
1
1
1
1
1
1
1
1
1
1
1
1
1
1
1
1
1
1
1
1
1
1
1
1
1
1
1
1
1
1
1
1
1
1
1
1
1
1
1
1
1
1
1
1
1
1
1
1
1
1
1
1
1
1
1
1
1
1
1
1
1
1
1
1
1
1
1
1
1
1
1
1
1
1
1
1
1
1
1
1
1
1
1
1
1
1
1
1
1
1
1
1
1
1
1
1
1
1
1
1
1
1
1
1
1
1
1
1
1
1
1
1
1
1
1
1
1
1
1
1
1
1
1
1
1
1
1
1
1
1
1
1
1
1
1
1
1
1
1
1
1
1
1
1
1
1
1
1
1
1
1
1
1
1
1
1
1
1
1
1
1
1
1
1
1
1
1
1
1
1
1
1
1
1
1
1
1
1
1
1
1
1
1
1
1
1
1
1
1
1
1
1
1
1
1
1
1
1
1
1
1
1
1
1
1
1
1
1
1
1
1
1
1
1
1
1
1
1
1
1
1
1
1
1
1
1
1
1
1
1
1
1
1
1
1
1
1
1
1
1
1
1
1
1
1
1
1
1
1
1
1
1
1
1
1
1
1
1
1
1
1
1
1
1
1
1
1
1
1
1
1
1
1
1
1
1
1
1
1
1
1
1
1
1
1
1
1
1
1
1
1
1
1
1
1
1
1
1
1
1
1
1
1
1
1
1
1
1
1
1
1
1
1
1
0.99999
0.999997
1
1
1
0.999989
0.999996
1
1
1
1
1
1
1
1
1
0.999982
0.999932
0.999871
0.999811
0.999763
0.999727
0.999711
0.999715
0.999727
0.999753
0.999792
0.999841
0.999897
0.999957
1
1
1
1
1
1
1
1
1
1
0.999985
0.999923
0.999822
0.999685
0.999523
0.999351
0.999175
0.999003
0.998838
0.998677
0.998517
0.998352
0.998164
0.997961
0.997739
0.997499
0.997243
0.996977
0.996709
0.996453
0.996215
0.996005
0.995823
0.995668
0.995549
0.995473
0.995433
0.995417
0.995414
0.995415
0.995417
0.995418
0.995402
0.995359
0.995288
0.995188
0.995059
0.994911
0.994749
0.994577
0.994401
0.994224
0.99405
0.993899
0.993772
0.99368
0.99362
0.993605
0.993634
0.993722
0.993855
0.994022
0.994236
0.994465
0.994765
0.995042
0.995452
0.995756
0.995999
0.996068
0.00160557
0.0015623
0.0014958
0.00142793
0.00137085
0.0013553
0.00136209
0.00141774
0.00151726
0.00164174
0.00177478
0.00189508
0.00198728
0.00203834
0.00204311
0.00199989
0.001936
0.00188143
0.00183098
0.00177764
0.00172896
0.0016889
0.00165752
0.00165022
0.00167927
0.00174386
0.00185061
0.00198839
0.00214824
0.00232145
0.00251312
0.00274225
0.00296526
0.0031769
0.00337999
0.00357187
0.00374212
0.00388381
0.00398414
0.00402751
0.00402228
0.00399884
0.00396243
0.00391346
0.00385565
0.00379391
0.00373041
0.00366745
0.003607
0.00354795
0.00348991
0.00343379
0.00338547
0.00333807
0.00328802
0.00323353
0.0031751
0.00311227
0.00304556
0.00297663
0.00290762
0.00284378
0.00279307
0.00276229
0.00274796
0.00274333
0.00274988
0.00276908
0.00280233
0.00284293
0.00287694
0.00289931
0.00291255
0.00291702
0.002912
0.00289771
0.00286994
0.00283052
0.00277611
0.00271036
0.00263597
0.00255847
0.00247949
0.0023935
0.00230274
0.00220399
0.0021104
0.00201033
0.00191211
0.00180003
0.00169297
0.00158952
0.00148073
0.00139117
0.0012644
0.00118214
0.000993283
0.000918688
0.00092234
0.00109973
1.64941e-11
1.64933e-11
1.15328e-10
9.76718e-11
9.81711e-11
9.73365e-11
9.84572e-11
1.02911e-10
1.06772e-10
1.11885e-10
1.19434e-10
1.27566e-10
1.32792e-10
1.33458e-10
1.12913e-10
1.39591e-11
1.39591e-11
1.39591e-11
1.39591e-11
1.39592e-11
1.39592e-11
1.39593e-11
1.5358e-11
1.01505e-10
1.15125e-10
1.19468e-10
1.29649e-10
1.45149e-10
1.65274e-10
1.89143e-10
2.17255e-10
2.45397e-10
2.69693e-10
2.91729e-10
3.12686e-10
3.31397e-10
3.46071e-10
3.29293e-10
1.31613e-10
4.22305e-11
4.20241e-11
4.20241e-11
4.20249e-11
4.20269e-11
4.20299e-11
4.20335e-11
4.20373e-11
4.20412e-11
4.2045e-11
4.20484e-11
4.20516e-11
4.20545e-11
4.20574e-11
4.20605e-11
4.20642e-11
4.20687e-11
4.20743e-11
4.20809e-11
4.20881e-11
4.20958e-11
4.21033e-11
4.21103e-11
4.21163e-11
4.21209e-11
4.21243e-11
4.21266e-11
4.25415e-11
1.29963e-10
3.98139e-10
4.69372e-10
2.19146e-10
6.02646e-11
2.59689e-11
2.5969e-11
2.59702e-11
2.59733e-11
2.59783e-11
2.59853e-11
2.59938e-11
2.60034e-11
2.60135e-11
2.60238e-11
2.60261e-11
2.60163e-11
2.60077e-11
2.60017e-11
2.59982e-11
2.59976e-11
2.59976e-11
2.60006e-11
1.25357e-10
3.88328e-10
5.2681e-10
4.28894e-10
4.34915e-10
3.64819e-10
3.53111e-10
2.88645e-10
2.15624e-10
1.72113e-10
2.04585e-11
1.64931e-11
1.29072e-11
1.15184e-11
1.32963e-11
1.26e-11
1.40058e-11
1.86125e-11
2.24525e-11
2.75234e-11
3.49534e-11
4.2882e-11
4.76812e-11
4.72461e-11
4.39028e-11
4.03266e-11
3.78042e-11
3.58783e-11
3.40437e-11
3.23584e-11
3.09266e-11
2.9681e-11
2.86463e-11
2.83166e-11
3.00535e-11
3.4943e-11
4.53836e-11
6.10164e-11
8.11768e-11
1.05201e-10
1.33352e-10
1.61374e-10
1.85655e-10
2.07737e-10
2.287e-10
2.47299e-10
2.61734e-10
2.70992e-10
2.74439e-10
2.74456e-10
2.74582e-10
2.75163e-10
2.7618e-10
2.77352e-10
2.78367e-10
2.79474e-10
2.8076e-10
2.83449e-10
2.88695e-10
2.95736e-10
3.04055e-10
3.07022e-10
3.03026e-10
3.01081e-10
3.09475e-10
3.22251e-10
3.30442e-10
3.34688e-10
3.38493e-10
3.42339e-10
3.46916e-10
3.52951e-10
3.61348e-10
3.6891e-10
3.76555e-10
3.84134e-10
3.92605e-10
4.01577e-10
4.10863e-10
4.20904e-10
4.30113e-10
4.40126e-10
4.48814e-10
4.59664e-10
4.69406e-10
4.79574e-10
4.92014e-10
4.99827e-10
5.15977e-10
5.17771e-10
5.40592e-10
5.31251e-10
5.62804e-10
5.35554e-10
5.77889e-10
5.27898e-10
5.79604e-10
5.04519e-10
5.60721e-10
4.64879e-10
5.16295e-10
4.09055e-10
4.41392e-10
3.42807e-10
3.49875e-10
2.77764e-10
2.68457e-10
2.03978e-10
1.31297e-10
8.76657e-11
1.45805e-14
1.67432e-14
1.40104e-14
1.23548e-14
1.16623e-14
1.01341e-14
1.01213e-14
1.20318e-14
1.53432e-14
1.96473e-14
2.64752e-14
3.506e-14
4.23744e-14
4.48884e-14
4.4479e-14
4.2538e-14
3.89241e-14
3.41626e-14
2.96524e-14
2.68453e-14
2.44253e-14
2.29075e-14
2.27382e-14
2.39751e-14
2.69203e-14
3.11836e-14
3.9441e-14
5.31962e-14
7.41268e-14
1.0345e-13
1.42623e-13
1.90829e-13
2.44107e-13
2.99696e-13
3.56714e-13
4.11847e-13
4.62717e-13
5.03977e-13
5.31695e-13
5.41504e-13
5.36398e-13
5.30001e-13
5.24463e-13
5.18625e-13
5.1125e-13
5.03036e-13
4.95259e-13
4.91171e-13
4.95283e-13
5.05819e-13
5.24009e-13
5.30829e-13
5.17424e-13
5.08869e-13
5.2725e-13
5.57587e-13
5.73799e-13
5.7973e-13
5.87096e-13
5.96741e-13
6.05667e-13
6.13549e-13
6.2575e-13
6.3907e-13
6.56386e-13
6.695e-13
6.86061e-13
7.0146e-13
7.20442e-13
7.40205e-13
7.58194e-13
7.73672e-13
7.89721e-13
8.06493e-13
8.26196e-13
8.39527e-13
8.66165e-13
8.70502e-13
9.05042e-13
8.92496e-13
9.42141e-13
9.07405e-13
9.73251e-13
9.04033e-13
9.86412e-13
8.77705e-13
9.71156e-13
8.19904e-13
9.15448e-13
7.38297e-13
8.32395e-13
6.57985e-13
7.63472e-13
6.62806e-13
9.39968e-13
1.24568e-12
2.5526e-12
2.90551e-12
2.45956e-12
1.05309e-12
2.71712e-17
1.93306e-17
1.52536e-17
1.32403e-17
1.14262e-17
9.48673e-18
9.22195e-18
1.02949e-17
1.28874e-17
1.59701e-17
2.06665e-17
2.71126e-17
3.40207e-17
3.76721e-17
3.91557e-17
3.91324e-17
3.6152e-17
3.16796e-17
2.76562e-17
2.46964e-17
2.21192e-17
2.02292e-17
1.94769e-17
1.99877e-17
2.22841e-17
2.55277e-17
3.2438e-17
4.41645e-17
6.2883e-17
9.08203e-17
1.31369e-16
1.86719e-16
2.56465e-16
3.37757e-16
4.28693e-16
5.22792e-16
6.15516e-16
6.95823e-16
7.54975e-16
7.82622e-16
7.77438e-16
7.47302e-16
7.19048e-16
6.92945e-16
6.66052e-16
6.39853e-16
6.16508e-16
6.01365e-16
6.0077e-16
6.11209e-16
6.34144e-16
6.391e-16
6.11044e-16
5.90346e-16
6.10432e-16
6.50106e-16
6.69728e-16
6.75564e-16
6.85743e-16
6.99402e-16
7.10378e-16
7.17304e-16
7.31318e-16
7.45656e-16
7.69147e-16
7.84286e-16
8.06784e-16
8.24087e-16
8.4917e-16
8.66663e-16
8.90768e-16
9.06574e-16
9.29238e-16
9.43132e-16
9.68211e-16
9.75724e-16
1.01468e-15
1.01447e-15
1.07056e-15
1.04911e-15
1.12459e-15
1.0708e-15
1.16365e-15
1.06703e-15
1.1784e-15
1.04188e-15
1.1639e-15
9.87279e-16
1.11826e-15
9.35315e-16
1.10179e-15
9.73448e-16
1.31997e-15
1.62575e-15
3.97427e-15
9.4735e-15
2.93959e-14
4.74259e-14
5.35389e-14
1.68662e-14
1.03515e-19
2.46548e-20
1.72332e-20
1.46056e-20
1.18165e-20
9.51594e-21
9.15533e-21
9.9052e-21
1.21556e-20
1.46262e-20
1.79637e-20
2.25143e-20
2.83882e-20
3.21005e-20
3.43403e-20
3.55433e-20
3.31059e-20
2.90479e-20
2.56405e-20
2.33205e-20
2.10649e-20
1.9374e-20
1.86625e-20
1.89164e-20
2.06274e-20
2.22547e-20
2.72417e-20
3.64012e-20
5.16847e-20
7.52837e-20
1.11255e-19
1.6402e-19
2.36635e-19
3.28663e-19
4.39477e-19
5.61537e-19
6.88761e-19
8.05335e-19
8.97916e-19
9.50051e-19
9.56359e-19
9.15866e-19
8.4363e-19
7.78714e-19
7.20358e-19
6.68374e-19
6.25413e-19
5.96025e-19
5.8574e-19
5.89326e-19
6.08402e-19
6.07752e-19
5.67658e-19
5.35481e-19
5.4792e-19
5.8286e-19
5.99427e-19
6.03091e-19
6.13278e-19
6.26219e-19
6.36669e-19
6.41666e-19
6.54766e-19
6.65993e-19
6.89843e-19
7.03811e-19
7.27709e-19
7.43094e-19
7.71041e-19
7.87022e-19
8.15102e-19
8.29041e-19
8.56463e-19
8.67975e-19
8.98191e-19
9.02623e-19
9.48517e-19
9.4669e-19
1.01249e-18
9.92428e-19
1.07949e-18
1.03062e-18
1.13542e-18
1.05024e-18
1.17611e-18
1.06202e-18
1.20692e-18
1.06867e-18
1.25107e-18
1.14768e-18
1.47773e-18
1.60781e-18
2.87293e-18
6.20067e-18
2.65103e-17
9.63947e-17
3.90807e-16
8.42751e-16
1.09488e-15
2.3151e-16
4.22859e-22
3.408e-23
1.98004e-23
1.65141e-23
1.27029e-23
9.95146e-24
9.48707e-24
1.00429e-23
1.21641e-23
1.44375e-23
1.71563e-23
2.0553e-23
2.56099e-23
2.90071e-23
3.13486e-23
3.31528e-23
3.08468e-23
2.68873e-23
2.38932e-23
2.22144e-23
2.03527e-23
1.9024e-23
1.86374e-23
1.90615e-23
2.07356e-23
2.11452e-23
2.45671e-23
3.14112e-23
4.32111e-23
6.16775e-23
9.06127e-23
1.35481e-22
2.01351e-22
2.90367e-22
4.04264e-22
5.36897e-22
6.82342e-22
8.22751e-22
9.41853e-22
1.01811e-21
1.04151e-21
1.00681e-21
9.21855e-22
8.00612e-22
6.9403e-22
6.10797e-22
5.4723e-22
5.03878e-22
4.82071e-22
4.75168e-22
4.8366e-22
4.7622e-22
4.34375e-22
3.99052e-22
4.01159e-22
4.2271e-22
4.31936e-22
4.32459e-22
4.3966e-22
4.48457e-22
4.56739e-22
4.59438e-22
4.70107e-22
4.77309e-22
4.96921e-22
5.07718e-22
5.28827e-22
5.40911e-22
5.67045e-22
5.80378e-22
6.08108e-22
6.20824e-22
6.49929e-22
6.61308e-22
6.93946e-22
6.99894e-22
7.47391e-22
7.51072e-22
8.17782e-22
8.11092e-22
8.99842e-22
8.74229e-22
9.82579e-22
9.34704e-22
1.07162e-21
1.01258e-21
1.18951e-21
1.13625e-21
1.41667e-21
1.49312e-21
2.22695e-21
3.28259e-21
9.19768e-21
3.67604e-20
2.2008e-19
1.11887e-18
5.53622e-18
1.48614e-17
2.02871e-17
2.58931e-18
1.59485e-24
5.09065e-26
2.28615e-26
1.89485e-26
1.40069e-26
1.06792e-26
1.00759e-26
1.0486e-26
1.25958e-26
1.48866e-26
1.74154e-26
2.02219e-26
2.48383e-26
2.79195e-26
3.01232e-26
3.21709e-26
2.9641e-26
2.54252e-26
2.25702e-26
2.1408e-26
1.98857e-26
1.89348e-26
1.89704e-26
1.97548e-26
2.17155e-26
2.12795e-26
2.37082e-26
2.89403e-26
3.79947e-26
5.19007e-26
7.3766e-26
1.09191e-25
1.63779e-25
2.41231e-25
3.45266e-25
4.72296e-25
6.17964e-25
7.6532e-25
8.97636e-25
9.90578e-25
1.03033e-24
1.00716e-24
9.27274e-25
8.02601e-25
6.53137e-25
5.18267e-25
4.3273e-25
3.78546e-25
3.47566e-25
3.31613e-25
3.29184e-25
3.16936e-25
2.81524e-25
2.51629e-25
2.47461e-25
2.56413e-25
2.5891e-25
2.57093e-25
2.60676e-25
2.65145e-25
2.70334e-25
2.71733e-25
2.78944e-25
2.83246e-25
2.96793e-25
3.04583e-25
3.20639e-25
3.29567e-25
3.50367e-25
3.61077e-25
3.8483e-25
3.96627e-25
4.23616e-25
4.35715e-25
4.67047e-25
4.76873e-25
5.20691e-25
5.32653e-25
5.94213e-25
6.0383e-25
6.87523e-25
6.90132e-25
7.9744e-25
7.94094e-25
9.43167e-25
9.52563e-25
1.17954e-24
1.24885e-24
1.71576e-24
2.16816e-24
4.02917e-24
9.28986e-24
4.4708e-23
2.62511e-22
2.01394e-21
1.33291e-20
7.76485e-20
2.44118e-19
3.3571e-19
2.31371e-20
5.35349e-27
8.18897e-29
2.64179e-29
2.1913e-29
1.56902e-29
1.16491e-29
1.08647e-29
1.11526e-29
1.33312e-29
1.57599e-29
1.83314e-29
2.08945e-29
2.53896e-29
2.82806e-29
3.0325e-29
3.24701e-29
2.94814e-29
2.47168e-29
2.17454e-29
2.09536e-29
1.96761e-29
1.90691e-29
1.95605e-29
2.07981e-29
2.32185e-29
2.21163e-29
2.39578e-29
2.82185e-29
3.54126e-29
4.58446e-29
6.18066e-29
8.85377e-29
1.31204e-28
1.939e-28
2.81305e-28
3.92228e-28
5.24327e-28
6.63462e-28
7.94612e-28
8.93349e-28
9.43864e-28
9.33048e-28
8.64599e-28
7.49229e-28
6.06467e-28
4.6382e-28
3.40438e-28
2.64704e-28
2.28257e-28
2.07217e-28
1.9792e-28
1.84385e-28
1.58809e-28
1.37647e-28
1.32018e-28
1.3374e-28
1.32922e-28
1.30483e-28
1.31598e-28
1.33291e-28
1.36e-28
1.36644e-28
1.40943e-28
1.43423e-28
1.51677e-28
1.56713e-28
1.67498e-28
1.73881e-28
1.88257e-28
1.96689e-28
2.14315e-28
2.24542e-28
2.46258e-28
2.5824e-28
2.84694e-28
2.97503e-28
3.34181e-28
3.51692e-28
4.04656e-28
4.26247e-28
5.01797e-28
5.27557e-28
6.32748e-28
6.69039e-28
8.34712e-28
9.17598e-28
1.22359e-27
1.47216e-27
2.31374e-27
3.6969e-27
9.63159e-27
3.84971e-26
2.56534e-25
2.00275e-24
1.91488e-23
1.57552e-22
1.05425e-21
3.70533e-21
4.85336e-21
1.61874e-22
1.57759e-29
1.41645e-31
3.05396e-32
2.54485e-32
1.7751e-32
1.28464e-32
1.1834e-32
1.20102e-32
1.43215e-32
1.69715e-32
1.97263e-32
2.22572e-32
2.68695e-32
2.97123e-32
3.16598e-32
3.38767e-32
3.02842e-32
2.47451e-32
2.14444e-32
2.089e-32
1.97542e-32
1.94407e-32
2.03979e-32
2.21442e-32
2.51303e-32
2.34131e-32
2.48946e-32
2.86164e-32
3.46524e-32
4.2642e-32
5.41307e-32
7.38401e-32
1.06043e-31
1.54421e-31
2.23667e-31
3.14185e-31
4.25338e-31
5.4641e-31
6.65308e-31
7.59663e-31
8.13626e-31
8.12541e-31
7.57634e-31
6.57679e-31
5.30602e-31
4.02256e-31
2.91194e-31
2.07347e-31
1.47586e-31
1.2071e-31
1.0886e-31
9.68571e-32
8.03782e-32
6.72396e-32
6.25813e-32
6.17181e-32
6.01851e-32
5.821e-32
5.82775e-32
5.86529e-32
5.98831e-32
6.02329e-32
6.25328e-32
6.39869e-32
6.84903e-32
7.15501e-32
7.79485e-32
8.22086e-32
9.10532e-32
9.71116e-32
1.08735e-31
1.16748e-31
1.3219e-31
1.42675e-31
1.62724e-31
1.75777e-31
2.04423e-31
2.23346e-31
2.66638e-31
2.94363e-31
3.60713e-31
4.01734e-31
5.05004e-31
5.74835e-31
7.64186e-31
9.29327e-31
1.36625e-30
1.91944e-30
3.61492e-30
7.97823e-30
3.30056e-29
1.84337e-28
1.561e-27
1.58216e-26
1.84992e-25
1.83049e-24
1.38525e-23
5.14352e-23
6.04027e-23
8.7621e-25
4.06959e-32
2.65711e-34
3.53496e-35
2.96303e-35
2.02163e-35
1.42781e-35
1.29854e-35
1.30514e-35
1.55525e-35
1.84952e-35
2.15371e-35
2.41769e-35
2.90902e-35
3.20116e-35
3.39458e-35
3.62656e-35
3.19714e-35
2.54741e-35
2.16687e-35
2.12432e-35
2.01516e-35
2.00789e-35
2.15045e-35
2.38e-35
2.74284e-35
2.50759e-35
2.63088e-35
2.9748e-35
3.50918e-35
4.14069e-35
4.9646e-35
6.40685e-35
8.79556e-35
1.24188e-34
1.76877e-34
2.47194e-34
3.35592e-34
4.34498e-34
5.35019e-34
6.18026e-34
6.69118e-34
6.73835e-34
6.31581e-34
5.49085e-34
4.41721e-34
3.32596e-34
2.38133e-34
1.66196e-34
1.14729e-34
7.89557e-35
5.85224e-35
4.753e-35
3.75816e-35
3.02041e-35
2.71161e-35
2.59158e-35
2.47231e-35
2.34957e-35
2.33173e-35
2.32908e-35
2.38108e-35
2.4e-35
2.51507e-35
2.59609e-35
2.8214e-35
2.99361e-35
3.338e-35
3.59877e-35
4.09724e-35
4.48733e-35
5.19195e-35
5.75444e-35
6.75573e-35
7.56554e-35
8.97177e-35
1.00974e-34
1.22275e-34
1.39816e-34
1.74192e-34
2.03156e-34
2.61264e-34
3.11159e-34
4.14526e-34
5.13587e-34
7.39068e-34
1.01156e-33
1.68357e-33
2.86277e-33
6.95997e-33
2.37073e-32
1.29845e-31
9.22442e-31
9.87431e-30
1.2755e-28
1.79063e-27
2.05669e-26
1.66678e-25
6.33855e-25
6.44354e-25
3.69783e-27
9.22655e-35
5.47086e-37
4.10311e-38
3.45661e-38
2.31365e-38
1.5967e-38
1.43343e-38
1.42856e-38
1.70321e-38
2.03392e-38
2.37612e-38
2.662e-38
3.19913e-38
3.51013e-38
3.71046e-38
3.95818e-38
3.45014e-38
2.68767e-38
2.24144e-38
2.20337e-38
2.08986e-38
2.10186e-38
2.29164e-38
2.57971e-38
3.01318e-38
2.7081e-38
2.81094e-38
3.14068e-38
3.63382e-38
4.14808e-38
4.73579e-38
5.7919e-38
7.55441e-38
1.02223e-37
1.41246e-37
1.9395e-37
2.61308e-37
3.38218e-37
4.18656e-37
4.87032e-37
5.31205e-37
5.38128e-37
5.06204e-37
4.40398e-37
3.53213e-37
2.6427e-37
1.87296e-37
1.28836e-37
8.71133e-38
5.75991e-38
3.82632e-38
2.44661e-38
1.67854e-38
1.28593e-38
1.10512e-38
1.01749e-38
9.47073e-39
8.83967e-39
8.68518e-39
8.60136e-39
8.81668e-39
8.91295e-39
9.4459e-39
9.87758e-39
1.09356e-38
1.18385e-38
1.3544e-38
1.50132e-38
1.7649e-38
1.99473e-38
2.39657e-38
2.75601e-38
3.36874e-38
3.9353e-38
4.87724e-38
5.7521e-38
7.28409e-38
8.78489e-38
1.14748e-37
1.42414e-37
1.93619e-37
2.4862e-37
3.54975e-37
4.84613e-37
7.68093e-37
1.20868e-36
2.36205e-36
5.18903e-36
1.77758e-35
7.9677e-35
5.28521e-34
4.74801e-33
6.39959e-32
1.0257e-30
1.6701e-29
2.12785e-28
1.80789e-27
6.88012e-27
5.85274e-27
1.22345e-29
1.85348e-37
1.22922e-39
4.78787e-41
4.03972e-41
2.65843e-41
1.79491e-41
1.59074e-41
1.57342e-41
1.87848e-41
2.25349e-41
2.64338e-41
2.96119e-41
3.55916e-41
3.89914e-41
4.114e-41
4.38379e-41
3.78784e-41
2.89489e-41
2.36847e-41
2.32837e-41
2.2026e-41
2.2298e-41
2.46781e-41
2.8182e-41
3.32832e-41
2.94407e-41
3.02689e-41
3.34958e-41
3.81708e-41
4.24396e-41
4.65378e-41
5.42765e-41
6.72953e-41
8.6767e-41
1.15152e-40
1.53618e-40
2.03262e-40
2.60749e-40
3.22335e-40
3.75709e-40
4.11208e-40
4.17824e-40
3.93646e-40
3.42297e-40
2.73542e-40
2.03366e-40
1.42711e-40
9.6858e-41
6.42887e-41
4.13996e-41
2.63496e-41
1.54528e-41
8.33772e-42
5.34138e-42
4.36692e-42
3.84593e-42
3.48189e-42
3.18471e-42
3.09187e-42
3.03884e-42
3.12271e-42
3.17318e-42
3.40762e-42
3.62039e-42
4.09358e-42
4.54194e-42
5.34281e-42
6.11616e-42
7.43917e-42
8.72037e-42
1.08878e-41
1.3076e-41
1.66674e-41
2.04284e-41
2.64882e-41
3.29778e-41
4.38174e-41
5.60319e-41
7.72363e-41
1.02672e-40
1.48748e-40
2.07784e-40
3.21922e-40
4.90998e-40
8.76917e-40
1.63524e-39
3.96528e-39
1.17229e-38
5.11465e-38
2.73568e-37
2.19166e-36
2.48502e-35
4.15439e-34
7.96131e-33
1.45358e-31
2.00138e-30
1.75361e-29
6.54594e-29
4.50687e-29
3.4557e-32
3.3329e-40
2.92026e-42
5.64597e-44
4.73031e-44
3.06554e-44
2.02737e-44
1.77415e-44
1.74295e-44
2.085e-44
2.51344e-44
2.96191e-44
3.32196e-44
3.99665e-44
4.37562e-44
4.61226e-44
4.91077e-44
4.21544e-44
3.17162e-44
2.54972e-44
2.50234e-44
2.35696e-44
2.39602e-44
2.68418e-44
3.10128e-44
3.69423e-44
3.21887e-44
3.27956e-44
3.59812e-44
4.04781e-44
4.40344e-44
4.67083e-44
5.23278e-44
6.19562e-44
7.60865e-44
9.64591e-44
1.23937e-43
1.59524e-43
2.01068e-43
2.46505e-43
2.86285e-43
3.13057e-43
3.17995e-43
2.99332e-43
2.59748e-43
2.06639e-43
1.52607e-43
1.06031e-43
7.10299e-44
4.63292e-44
2.9135e-44
1.80161e-44
1.01464e-44
5.05992e-45
2.53616e-45
1.71938e-45
1.43469e-45
1.25783e-45
1.12523e-45
1.07814e-45
1.05223e-45
1.08291e-45
1.10898e-45
1.20748e-45
1.30746e-45
1.50988e-45
1.7222e-45
2.08656e-45
2.47231e-45
3.11442e-45
3.80581e-45
4.93707e-45
6.21838e-45
8.276e-45
1.06741e-44
1.45371e-44
1.91545e-44
2.68734e-44
3.66154e-44
5.35757e-44
7.67541e-44
1.19692e-43
1.83691e-43
3.13597e-43
5.43993e-43
1.12477e-42
2.5916e-42
7.91305e-42
2.96167e-41
1.49178e-40
9.4633e-40
9.17523e-39
1.30082e-37
2.63129e-36
5.82267e-35
1.16362e-33
1.69796e-32
1.51278e-31
5.44041e-31
2.93352e-31
7.72936e-35
5.42296e-43
7.04324e-45
6.8061e-47
5.55082e-47
3.54722e-47
2.30042e-47
1.98843e-47
1.94148e-47
2.32816e-47
2.82091e-47
3.34085e-47
3.75464e-47
4.5239e-47
4.95249e-47
5.21816e-47
5.55235e-47
4.74291e-47
3.52364e-47
2.78897e-47
2.72966e-47
2.55739e-47
2.60554e-47
2.94686e-47
3.43593e-47
4.11845e-47
3.53741e-47
3.57196e-47
3.88667e-47
4.32155e-47
4.61311e-47
4.75781e-47
5.15288e-47
5.86092e-47
6.87762e-47
8.31983e-47
1.02421e-46
1.27264e-46
1.5634e-46
1.88755e-46
2.17145e-46
2.36125e-46
2.38897e-46
2.24064e-46
1.93678e-46
1.53206e-46
1.12335e-46
7.72542e-47
5.10872e-47
3.27694e-47
2.01507e-47
1.21526e-47
6.65087e-48
3.20941e-48
1.47855e-48
7.6894e-49
5.42384e-49
4.56268e-49
3.98476e-49
3.76036e-49
3.63768e-49
3.752e-49
3.87611e-49
4.27167e-49
4.71997e-49
5.5685e-49
6.54384e-49
8.16818e-49
1.00357e-48
1.30998e-48
1.66996e-48
2.25722e-48
2.98009e-48
4.15605e-48
5.65272e-48
8.10522e-48
1.13544e-47
1.68694e-47
2.46332e-47
3.85537e-47
5.99817e-47
1.01716e-46
1.73499e-46
3.31979e-46
6.71234e-46
1.66056e-45
4.67264e-45
1.7556e-44
7.53373e-44
4.35526e-43
3.27311e-42
3.83455e-41
6.68586e-40
1.59185e-38
3.95571e-37
8.48954e-36
1.29247e-34
1.15645e-33
3.94003e-33
1.61062e-33
1.35195e-37
8.06895e-46
1.67101e-47
8.58357e-50
6.52932e-50
4.11887e-50
2.62212e-50
2.23963e-50
2.17453e-50
2.61494e-50
3.18523e-50
3.79222e-50
4.27323e-50
5.15797e-50
5.6481e-50
5.95044e-50
6.3277e-50
5.38529e-50
3.96034e-50
3.09234e-50
3.0165e-50
2.80959e-50
2.86449e-50
3.26309e-50
3.83051e-50
4.61016e-50
3.90592e-50
3.90872e-50
4.21802e-50
4.63793e-50
4.86676e-50
4.89802e-50
5.15355e-50
5.66285e-50
6.38034e-50
7.3802e-50
8.68953e-50
1.0371e-49
1.23344e-49
1.45686e-49
1.65033e-49
1.77575e-49
1.78238e-49
1.66065e-49
1.42692e-49
1.12083e-49
8.15332e-50
5.54724e-50
3.62093e-50
2.28549e-50
1.37554e-50
8.10564e-51
4.32683e-51
2.04577e-51
9.13278e-52
4.29378e-52
2.26528e-52
1.6944e-52
1.43562e-52
1.33048e-52
1.27415e-52
1.31537e-52
1.36868e-52
1.52605e-52
1.72249e-52
2.07452e-52
2.50765e-52
3.22403e-52
4.11429e-52
5.55944e-52
7.41325e-52
1.04436e-51
1.44944e-51