/*--------------------------------*- C++ -*----------------------------------*\
| =========                 |                                                 |
| \\      /  F ield         | OpenFOAM: The Open Source CFD Toolbox           |
|  \\    /   O peration     | Version:  2.4.0                                 |
|   \\  /    A nd           | Web:      www.OpenFOAM.org                      |
|    \\/     M anipulation  |                                                 |
\*---------------------------------------------------------------------------*/
FoamFile
{
    version     2.0;
    format      ascii;
    class       volScalarField;
    location    "0.1";
    object      p;
}
// * * * * * * * * * * * * * * * * * * * * * * * * * * * * * * * * * * * * * //

dimensions      [1 -1 -2 0 0 0 0];

internalField   nonuniform List<scalar> 
60000
(
97.0883
97.0883
97.0883
97.0883
97.0883
97.0883
97.0883
97.0883
97.0883
97.0883
97.0884
97.0884
97.0884
97.0884
97.0885
97.0885
97.0885
97.0885
97.0886
97.0886
97.0886
97.0887
97.0887
97.0887
97.0888
97.0888
97.0888
97.0889
97.0889
97.0889
97.089
97.089
97.089
97.089
97.089
97.089
97.089
97.0889
97.0889
97.0888
97.0888
97.0887
97.0886
97.0885
97.0884
97.0883
97.0882
97.088
97.0879
97.0877
97.0875
97.0873
97.0872
97.087
97.0868
97.0866
97.0864
97.0862
97.086
97.0858
97.0856
97.0854
97.0852
97.085
97.0848
97.0846
97.0845
97.0843
97.0841
97.084
97.0838
97.0837
97.0835
97.0834
97.0832
97.0831
97.083
97.0829
97.0828
97.0827
97.0826
97.0825
97.0824
97.0823
97.0823
97.0822
97.0822
97.0822
97.0822
97.0822
97.0822
97.0822
97.0823
97.0824
97.0824
97.0825
97.0826
97.0827
97.0828
97.083
95.1263
95.1263
95.1263
95.1263
95.1263
95.1263
95.1263
95.1263
95.1263
95.1263
95.1264
95.1264
95.1264
95.1264
95.1265
95.1265
95.1265
95.1265
95.1266
95.1266
95.1266
95.1267
95.1267
95.1267
95.1268
95.1268
95.1268
95.1269
95.1269
95.1269
95.127
95.127
95.127
95.127
95.127
95.127
95.127
95.1269
95.1269
95.1268
95.1268
95.1267
95.1266
95.1265
95.1264
95.1263
95.1262
95.126
95.1259
95.1257
95.1255
95.1253
95.1252
95.125
95.1248
95.1246
95.1244
95.1242
95.124
95.1238
95.1236
95.1234
95.1232
95.123
95.1228
95.1226
95.1225
95.1223
95.1221
95.122
95.1218
95.1217
95.1215
95.1214
95.1212
95.1211
95.121
95.1209
95.1208
95.1207
95.1206
95.1205
95.1204
95.1203
95.1203
95.1202
95.1202
95.1202
95.1202
95.1202
95.1202
95.1202
95.1203
95.1204
95.1204
95.1205
95.1206
95.1207
95.1208
95.121
93.1643
93.1643
93.1643
93.1643
93.1643
93.1643
93.1643
93.1643
93.1643
93.1643
93.1644
93.1644
93.1644
93.1644
93.1645
93.1645
93.1645
93.1645
93.1646
93.1646
93.1646
93.1647
93.1647
93.1647
93.1648
93.1648
93.1648
93.1649
93.1649
93.1649
93.165
93.165
93.165
93.165
93.165
93.165
93.165
93.1649
93.1649
93.1649
93.1648
93.1647
93.1646
93.1645
93.1644
93.1643
93.1642
93.164
93.1639
93.1637
93.1635
93.1633
93.1632
93.163
93.1628
93.1626
93.1624
93.1622
93.162
93.1618
93.1616
93.1614
93.1612
93.161
93.1608
93.1606
93.1605
93.1603
93.1601
93.16
93.1598
93.1596
93.1595
93.1594
93.1592
93.1591
93.159
93.1589
93.1588
93.1586
93.1586
93.1585
93.1584
93.1583
93.1583
93.1582
93.1582
93.1582
93.1582
93.1582
93.1582
93.1582
93.1583
93.1584
93.1584
93.1585
93.1586
93.1587
93.1588
93.1589
91.2023
91.2023
91.2023
91.2023
91.2023
91.2023
91.2023
91.2023
91.2023
91.2023
91.2024
91.2024
91.2024
91.2024
91.2025
91.2025
91.2025
91.2025
91.2026
91.2026
91.2026
91.2027
91.2027
91.2027
91.2028
91.2028
91.2028
91.2029
91.2029
91.2029
91.203
91.203
91.203
91.203
91.203
91.203
91.203
91.2029
91.2029
91.2029
91.2028
91.2027
91.2026
91.2025
91.2024
91.2023
91.2022
91.202
91.2019
91.2017
91.2015
91.2013
91.2012
91.201
91.2008
91.2006
91.2004
91.2002
91.2
91.1998
91.1996
91.1994
91.1992
91.199
91.1988
91.1986
91.1985
91.1983
91.1981
91.198
91.1978
91.1976
91.1975
91.1974
91.1972
91.1971
91.197
91.1969
91.1967
91.1966
91.1965
91.1965
91.1964
91.1963
91.1963
91.1962
91.1962
91.1962
91.1962
91.1962
91.1962
91.1962
91.1963
91.1963
91.1964
91.1965
91.1966
91.1967
91.1968
91.1969
89.2403
89.2403
89.2403
89.2403
89.2403
89.2403
89.2403
89.2403
89.2403
89.2403
89.2404
89.2404
89.2404
89.2404
89.2405
89.2405
89.2405
89.2405
89.2406
89.2406
89.2406
89.2407
89.2407
89.2407
89.2408
89.2408
89.2408
89.2409
89.2409
89.2409
89.241
89.241
89.241
89.241
89.241
89.241
89.241
89.241
89.2409
89.2409
89.2408
89.2407
89.2406
89.2405
89.2404
89.2403
89.2402
89.24
89.2399
89.2397
89.2395
89.2394
89.2392
89.239
89.2388
89.2386
89.2384
89.2382
89.238
89.2378
89.2376
89.2374
89.2372
89.237
89.2368
89.2366
89.2364
89.2363
89.2361
89.2359
89.2358
89.2356
89.2355
89.2354
89.2352
89.2351
89.235
89.2348
89.2347
89.2346
89.2345
89.2345
89.2344
89.2343
89.2343
89.2342
89.2342
89.2342
89.2342
89.2342
89.2342
89.2342
89.2343
89.2343
89.2344
89.2345
89.2346
89.2347
89.2348
89.2349
87.2783
87.2783
87.2783
87.2783
87.2783
87.2783
87.2783
87.2783
87.2783
87.2783
87.2784
87.2784
87.2784
87.2784
87.2784
87.2785
87.2785
87.2785
87.2786
87.2786
87.2786
87.2787
87.2787
87.2787
87.2788
87.2788
87.2788
87.2789
87.2789
87.2789
87.279
87.279
87.279
87.279
87.279
87.279
87.279
87.279
87.2789
87.2789
87.2788
87.2787
87.2787
87.2786
87.2784
87.2783
87.2782
87.278
87.2779
87.2777
87.2775
87.2774
87.2772
87.277
87.2768
87.2766
87.2764
87.2762
87.276
87.2758
87.2756
87.2754
87.2752
87.275
87.2748
87.2746
87.2744
87.2743
87.2741
87.2739
87.2738
87.2736
87.2735
87.2733
87.2732
87.2731
87.273
87.2728
87.2727
87.2726
87.2725
87.2724
87.2724
87.2723
87.2722
87.2722
87.2722
87.2722
87.2721
87.2722
87.2722
87.2722
87.2723
87.2723
87.2724
87.2725
87.2726
87.2727
87.2728
87.2729
85.3162
85.3163
85.3163
85.3163
85.3163
85.3163
85.3163
85.3163
85.3163
85.3163
85.3164
85.3164
85.3164
85.3164
85.3164
85.3165
85.3165
85.3165
85.3166
85.3166
85.3166
85.3167
85.3167
85.3167
85.3168
85.3168
85.3168
85.3169
85.3169
85.3169
85.317
85.317
85.317
85.317
85.317
85.317
85.317
85.317
85.3169
85.3169
85.3168
85.3168
85.3167
85.3166
85.3165
85.3163
85.3162
85.316
85.3159
85.3157
85.3155
85.3154
85.3152
85.315
85.3148
85.3146
85.3144
85.3142
85.314
85.3138
85.3136
85.3134
85.3132
85.313
85.3128
85.3126
85.3124
85.3123
85.3121
85.3119
85.3118
85.3116
85.3115
85.3113
85.3112
85.3111
85.3109
85.3108
85.3107
85.3106
85.3105
85.3104
85.3104
85.3103
85.3102
85.3102
85.3102
85.3101
85.3101
85.3101
85.3102
85.3102
85.3102
85.3103
85.3104
85.3105
85.3106
85.3107
85.3108
85.3109
83.3542
83.3542
83.3543
83.3543
83.3543
83.3543
83.3543
83.3543
83.3543
83.3543
83.3544
83.3544
83.3544
83.3544
83.3544
83.3545
83.3545
83.3545
83.3546
83.3546
83.3546
83.3547
83.3547
83.3547
83.3548
83.3548
83.3548
83.3549
83.3549
83.355
83.355
83.355
83.355
83.355
83.355
83.355
83.355
83.355
83.355
83.3549
83.3549
83.3548
83.3547
83.3546
83.3545
83.3543
83.3542
83.3541
83.3539
83.3537
83.3536
83.3534
83.3532
83.353
83.3528
83.3526
83.3524
83.3522
83.352
83.3518
83.3516
83.3514
83.3512
83.351
83.3508
83.3506
83.3504
83.3503
83.3501
83.3499
83.3498
83.3496
83.3495
83.3493
83.3492
83.3491
83.3489
83.3488
83.3487
83.3486
83.3485
83.3484
83.3483
83.3483
83.3482
83.3482
83.3481
83.3481
83.3481
83.3481
83.3481
83.3482
83.3482
83.3483
83.3484
83.3485
83.3486
83.3487
83.3488
83.3489
81.3922
81.3922
81.3922
81.3923
81.3923
81.3923
81.3923
81.3923
81.3923
81.3923
81.3924
81.3924
81.3924
81.3924
81.3924
81.3925
81.3925
81.3925
81.3926
81.3926
81.3926
81.3927
81.3927
81.3927
81.3928
81.3928
81.3928
81.3929
81.3929
81.393
81.393
81.393
81.393
81.3931
81.3931
81.3931
81.393
81.393
81.393
81.3929
81.3929
81.3928
81.3927
81.3926
81.3925
81.3924
81.3922
81.3921
81.3919
81.3917
81.3916
81.3914
81.3912
81.391
81.3908
81.3906
81.3904
81.3902
81.39
81.3898
81.3896
81.3893
81.3892
81.389
81.3888
81.3886
81.3884
81.3882
81.3881
81.3879
81.3878
81.3876
81.3875
81.3873
81.3872
81.387
81.3869
81.3868
81.3867
81.3866
81.3865
81.3864
81.3863
81.3862
81.3862
81.3861
81.3861
81.3861
81.3861
81.3861
81.3861
81.3861
81.3862
81.3863
81.3863
81.3864
81.3865
81.3866
81.3868
81.3869
79.4302
79.4302
79.4302
79.4303
79.4303
79.4303
79.4303
79.4303
79.4303
79.4303
79.4304
79.4304
79.4304
79.4304
79.4304
79.4305
79.4305
79.4305
79.4306
79.4306
79.4306
79.4307
79.4307
79.4307
79.4308
79.4308
79.4308
79.4309
79.4309
79.431
79.431
79.431
79.4311
79.4311
79.4311
79.4311
79.4311
79.431
79.431
79.431
79.4309
79.4308
79.4307
79.4306
79.4305
79.4304
79.4303
79.4301
79.4299
79.4298
79.4296
79.4294
79.4292
79.429
79.4288
79.4286
79.4284
79.4282
79.428
79.4277
79.4275
79.4273
79.4271
79.4269
79.4268
79.4266
79.4264
79.4262
79.4261
79.4259
79.4257
79.4256
79.4254
79.4253
79.4252
79.425
79.4249
79.4248
79.4247
79.4246
79.4245
79.4244
79.4243
79.4242
79.4242
79.4241
79.4241
79.4241
79.4241
79.4241
79.4241
79.4241
79.4242
79.4242
79.4243
79.4244
79.4245
79.4246
79.4248
79.4249
77.4682
77.4682
77.4682
77.4682
77.4683
77.4683
77.4683
77.4683
77.4683
77.4683
77.4684
77.4684
77.4684
77.4684
77.4684
77.4685
77.4685
77.4685
77.4686
77.4686
77.4686
77.4686
77.4687
77.4687
77.4688
77.4688
77.4689
77.4689
77.4689
77.469
77.469
77.469
77.4691
77.4691
77.4691
77.4691
77.4691
77.4691
77.469
77.469
77.4689
77.4689
77.4688
77.4687
77.4685
77.4684
77.4683
77.4681
77.468
77.4678
77.4676
77.4674
77.4672
77.467
77.4668
77.4666
77.4664
77.4662
77.466
77.4657
77.4655
77.4653
77.4651
77.4649
77.4647
77.4646
77.4644
77.4642
77.464
77.4639
77.4637
77.4636
77.4634
77.4633
77.4632
77.463
77.4629
77.4628
77.4627
77.4625
77.4624
77.4623
77.4623
77.4622
77.4621
77.4621
77.462
77.462
77.462
77.462
77.4621
77.4621
77.4621
77.4622
77.4623
77.4624
77.4625
77.4626
77.4627
77.4629
75.5062
75.5062
75.5062
75.5062
75.5063
75.5063
75.5063
75.5063
75.5063
75.5063
75.5063
75.5064
75.5064
75.5064
75.5064
75.5065
75.5065
75.5065
75.5065
75.5066
75.5066
75.5066
75.5067
75.5067
75.5068
75.5068
75.5069
75.5069
75.5069
75.507
75.507
75.5071
75.5071
75.5071
75.5071
75.5071
75.5071
75.5071
75.5071
75.507
75.507
75.5069
75.5068
75.5067
75.5066
75.5064
75.5063
75.5061
75.506
75.5058
75.5056
75.5054
75.5052
75.505
75.5048
75.5046
75.5044
75.5042
75.5039
75.5037
75.5035
75.5033
75.5031
75.5029
75.5027
75.5025
75.5024
75.5022
75.502
75.5019
75.5017
75.5016
75.5014
75.5013
75.5011
75.501
75.5009
75.5008
75.5006
75.5005
75.5004
75.5003
75.5002
75.5002
75.5001
75.5
75.5
75.5
75.5
75.5
75.5
75.5001
75.5001
75.5002
75.5003
75.5004
75.5005
75.5006
75.5007
75.5009
73.5442
73.5442
73.5442
73.5442
73.5442
73.5443
73.5443
73.5443
73.5443
73.5443
73.5443
73.5444
73.5444
73.5444
73.5444
73.5445
73.5445
73.5445
73.5445
73.5446
73.5446
73.5446
73.5447
73.5447
73.5448
73.5448
73.5449
73.5449
73.545
73.545
73.545
73.5451
73.5451
73.5451
73.5452
73.5452
73.5452
73.5451
73.5451
73.5451
73.545
73.5449
73.5448
73.5447
73.5446
73.5445
73.5443
73.5442
73.544
73.5438
73.5436
73.5434
73.5432
73.543
73.5428
73.5426
73.5424
73.5422
73.5419
73.5417
73.5415
73.5413
73.5411
73.5409
73.5407
73.5405
73.5404
73.5402
73.54
73.5399
73.5397
73.5395
73.5394
73.5393
73.5391
73.539
73.5389
73.5387
73.5386
73.5385
73.5384
73.5383
73.5382
73.5381
73.5381
73.538
73.538
73.538
73.5379
73.538
73.538
73.538
73.5381
73.5381
73.5382
73.5383
73.5384
73.5386
73.5387
73.5388
71.5822
71.5822
71.5822
71.5822
71.5822
71.5823
71.5823
71.5823
71.5823
71.5823
71.5823
71.5824
71.5824
71.5824
71.5824
71.5825
71.5825
71.5825
71.5825
71.5826
71.5826
71.5826
71.5827
71.5827
71.5828
71.5828
71.5829
71.5829
71.583
71.583
71.5831
71.5831
71.5831
71.5832
71.5832
71.5832
71.5832
71.5832
71.5831
71.5831
71.583
71.583
71.5829
71.5828
71.5827
71.5825
71.5824
71.5822
71.582
71.5818
71.5817
71.5815
71.5812
71.581
71.5808
71.5806
71.5804
71.5802
71.5799
71.5797
71.5795
71.5793
71.5791
71.5789
71.5787
71.5785
71.5783
71.5782
71.578
71.5778
71.5777
71.5775
71.5774
71.5772
71.5771
71.577
71.5768
71.5767
71.5766
71.5765
71.5764
71.5763
71.5762
71.5761
71.576
71.576
71.5759
71.5759
71.5759
71.5759
71.5759
71.576
71.576
71.5761
71.5762
71.5763
71.5764
71.5765
71.5767
71.5768
69.6202
69.6202
69.6202
69.6202
69.6202
69.6202
69.6203
69.6203
69.6203
69.6203
69.6203
69.6204
69.6204
69.6204
69.6204
69.6205
69.6205
69.6205
69.6205
69.6206
69.6206
69.6206
69.6207
69.6207
69.6208
69.6208
69.6209
69.6209
69.621
69.621
69.6211
69.6211
69.6212
69.6212
69.6212
69.6212
69.6212
69.6212
69.6212
69.6211
69.6211
69.621
69.6209
69.6208
69.6207
69.6206
69.6204
69.6202
69.6201
69.6199
69.6197
69.6195
69.6193
69.619
69.6188
69.6186
69.6184
69.6182
69.6179
69.6177
69.6175
69.6173
69.6171
69.6169
69.6167
69.6165
69.6163
69.6161
69.616
69.6158
69.6157
69.6155
69.6154
69.6152
69.6151
69.6149
69.6148
69.6147
69.6146
69.6144
69.6143
69.6142
69.6141
69.6141
69.614
69.6139
69.6139
69.6139
69.6139
69.6139
69.6139
69.6139
69.614
69.6141
69.6142
69.6143
69.6144
69.6145
69.6146
69.6148
67.6582
67.6582
67.6582
67.6582
67.6582
67.6582
67.6583
67.6583
67.6583
67.6583
67.6583
67.6584
67.6584
67.6584
67.6584
67.6585
67.6585
67.6585
67.6585
67.6586
67.6586
67.6586
67.6587
67.6587
67.6588
67.6588
67.6589
67.6589
67.659
67.659
67.6591
67.6591
67.6592
67.6592
67.6593
67.6593
67.6593
67.6593
67.6592
67.6592
67.6591
67.6591
67.659
67.6589
67.6587
67.6586
67.6584
67.6583
67.6581
67.6579
67.6577
67.6575
67.6573
67.6571
67.6568
67.6566
67.6564
67.6561
67.6559
67.6557
67.6555
67.6553
67.6551
67.6549
67.6547
67.6545
67.6543
67.6541
67.654
67.6538
67.6536
67.6535
67.6533
67.6532
67.6531
67.6529
67.6528
67.6527
67.6525
67.6524
67.6523
67.6522
67.6521
67.652
67.6519
67.6519
67.6518
67.6518
67.6518
67.6518
67.6518
67.6519
67.6519
67.652
67.6521
67.6522
67.6523
67.6525
67.6526
67.6528
65.6962
65.6962
65.6962
65.6962
65.6962
65.6962
65.6962
65.6963
65.6963
65.6963
65.6963
65.6964
65.6964
65.6964
65.6964
65.6965
65.6965
65.6965
65.6965
65.6966
65.6966
65.6966
65.6967
65.6967
65.6968
65.6968
65.6969
65.6969
65.697
65.697
65.6971
65.6972
65.6972
65.6973
65.6973
65.6973
65.6973
65.6973
65.6973
65.6972
65.6972
65.6971
65.697
65.6969
65.6968
65.6966
65.6965
65.6963
65.6961
65.6959
65.6957
65.6955
65.6953
65.6951
65.6948
65.6946
65.6944
65.6941
65.6939
65.6937
65.6935
65.6932
65.693
65.6928
65.6926
65.6924
65.6923
65.6921
65.6919
65.6918
65.6916
65.6915
65.6913
65.6912
65.691
65.6909
65.6908
65.6906
65.6905
65.6904
65.6903
65.6902
65.6901
65.69
65.6899
65.6898
65.6898
65.6898
65.6897
65.6898
65.6898
65.6898
65.6899
65.69
65.6901
65.6902
65.6903
65.6904
65.6906
65.6907
63.7342
63.7342
63.7342
63.7342
63.7342
63.7342
63.7342
63.7343
63.7343
63.7343
63.7343
63.7344
63.7344
63.7344
63.7344
63.7344
63.7345
63.7345
63.7345
63.7345
63.7346
63.7346
63.7347
63.7347
63.7348
63.7348
63.7349
63.7349
63.735
63.7351
63.7351
63.7352
63.7352
63.7353
63.7353
63.7354
63.7354
63.7354
63.7353
63.7353
63.7352
63.7352
63.7351
63.735
63.7348
63.7347
63.7345
63.7344
63.7342
63.734
63.7338
63.7335
63.7333
63.7331
63.7329
63.7326
63.7324
63.7321
63.7319
63.7317
63.7314
63.7312
63.731
63.7308
63.7306
63.7304
63.7302
63.7301
63.7299
63.7298
63.7296
63.7295
63.7293
63.7292
63.729
63.7289
63.7287
63.7286
63.7285
63.7283
63.7282
63.7281
63.728
63.7279
63.7278
63.7278
63.7277
63.7277
63.7277
63.7277
63.7277
63.7278
63.7278
63.7279
63.728
63.7281
63.7283
63.7284
63.7285
63.7287
61.7722
61.7722
61.7722
61.7722
61.7722
61.7722
61.7722
61.7723
61.7723
61.7723
61.7723
61.7723
61.7724
61.7724
61.7724
61.7724
61.7725
61.7725
61.7725
61.7725
61.7726
61.7726
61.7726
61.7727
61.7727
61.7728
61.7729
61.7729
61.773
61.7731
61.7731
61.7732
61.7733
61.7733
61.7734
61.7734
61.7734
61.7734
61.7734
61.7734
61.7733
61.7732
61.7731
61.773
61.7729
61.7727
61.7726
61.7724
61.7722
61.772
61.7718
61.7716
61.7713
61.7711
61.7709
61.7706
61.7704
61.7701
61.7699
61.7697
61.7694
61.7692
61.769
61.7688
61.7686
61.7684
61.7682
61.768
61.7679
61.7677
61.7676
61.7674
61.7673
61.7671
61.767
61.7669
61.7667
61.7666
61.7664
61.7663
61.7662
61.7661
61.766
61.7659
61.7658
61.7657
61.7657
61.7656
61.7656
61.7656
61.7657
61.7657
61.7658
61.7658
61.7659
61.7661
61.7662
61.7664
61.7665
61.7667
59.8102
59.8102
59.8102
59.8102
59.8102
59.8102
59.8102
59.8102
59.8103
59.8103
59.8103
59.8103
59.8104
59.8104
59.8104
59.8104
59.8105
59.8105
59.8105
59.8105
59.8106
59.8106
59.8106
59.8107
59.8107
59.8108
59.8109
59.8109
59.811
59.8111
59.8112
59.8112
59.8113
59.8114
59.8114
59.8115
59.8115
59.8115
59.8115
59.8114
59.8114
59.8113
59.8112
59.8111
59.811
59.8108
59.8106
59.8105
59.8103
59.81
59.8098
59.8096
59.8094
59.8091
59.8089
59.8086
59.8084
59.8081
59.8079
59.8076
59.8074
59.8072
59.807
59.8067
59.8065
59.8064
59.8062
59.806
59.8059
59.8057
59.8056
59.8054
59.8053
59.8051
59.805
59.8048
59.8047
59.8046
59.8044
59.8043
59.8042
59.804
59.8039
59.8038
59.8037
59.8037
59.8036
59.8036
59.8035
59.8036
59.8036
59.8036
59.8037
59.8038
59.8039
59.804
59.8042
59.8043
59.8045
59.8046
57.8482
57.8482
57.8482
57.8482
57.8482
57.8482
57.8482
57.8482
57.8483
57.8483
57.8483
57.8483
57.8484
57.8484
57.8484
57.8484
57.8485
57.8485
57.8485
57.8485
57.8486
57.8486
57.8486
57.8487
57.8487
57.8488
57.8489
57.8489
57.849
57.8491
57.8492
57.8493
57.8493
57.8494
57.8495
57.8495
57.8495
57.8495
57.8495
57.8495
57.8495
57.8494
57.8493
57.8492
57.849
57.8489
57.8487
57.8485
57.8483
57.8481
57.8479
57.8476
57.8474
57.8471
57.8469
57.8466
57.8464
57.8461
57.8459
57.8456
57.8454
57.8451
57.8449
57.8447
57.8445
57.8443
57.8442
57.844
57.8438
57.8437
57.8435
57.8434
57.8432
57.8431
57.843
57.8428
57.8427
57.8425
57.8424
57.8422
57.8421
57.842
57.8419
57.8418
57.8417
57.8416
57.8415
57.8415
57.8415
57.8415
57.8415
57.8416
57.8416
57.8417
57.8418
57.842
57.8421
57.8423
57.8424
57.8426
55.8861
55.8861
55.8861
55.8862
55.8862
55.8862
55.8862
55.8862
55.8863
55.8863
55.8863
55.8863
55.8864
55.8864
55.8864
55.8864
55.8865
55.8865
55.8865
55.8865
55.8865
55.8866
55.8866
55.8867
55.8867
55.8868
55.8869
55.8869
55.887
55.8871
55.8872
55.8873
55.8874
55.8875
55.8875
55.8876
55.8876
55.8876
55.8876
55.8876
55.8875
55.8875
55.8874
55.8872
55.8871
55.8869
55.8868
55.8866
55.8864
55.8861
55.8859
55.8857
55.8854
55.8852
55.8849
55.8846
55.8844
55.8841
55.8839
55.8836
55.8834
55.8831
55.8829
55.8827
55.8825
55.8823
55.8821
55.882
55.8818
55.8816
55.8815
55.8814
55.8812
55.8811
55.8809
55.8808
55.8806
55.8805
55.8803
55.8802
55.8801
55.8799
55.8798
55.8797
55.8796
55.8795
55.8795
55.8794
55.8794
55.8794
55.8794
55.8795
55.8795
55.8796
55.8798
55.8799
55.88
55.8802
55.8804
55.8806
53.9241
53.9241
53.9241
53.9241
53.9242
53.9242
53.9242
53.9242
53.9242
53.9243
53.9243
53.9243
53.9244
53.9244
53.9244
53.9244
53.9245
53.9245
53.9245
53.9245
53.9245
53.9246
53.9246
53.9247
53.9247
53.9248
53.9249
53.9249
53.925
53.9251
53.9252
53.9253
53.9254
53.9255
53.9256
53.9256
53.9257
53.9257
53.9257
53.9257
53.9256
53.9255
53.9254
53.9253
53.9252
53.925
53.9248
53.9246
53.9244
53.9242
53.9239
53.9237
53.9234
53.9232
53.9229
53.9226
53.9224
53.9221
53.9218
53.9216
53.9213
53.9211
53.9209
53.9206
53.9204
53.9203
53.9201
53.9199
53.9198
53.9196
53.9195
53.9193
53.9192
53.9191
53.9189
53.9188
53.9186
53.9185
53.9183
53.9182
53.918
53.9179
53.9177
53.9176
53.9175
53.9174
53.9174
53.9173
53.9173
53.9173
53.9173
53.9174
53.9175
53.9176
53.9177
53.9178
53.918
53.9182
53.9183
53.9185
51.9621
51.9621
51.9621
51.9621
51.9621
51.9622
51.9622
51.9622
51.9622
51.9623
51.9623
51.9623
51.9624
51.9624
51.9624
51.9624
51.9624
51.9625
51.9625
51.9625
51.9625
51.9625
51.9626
51.9626
51.9627
51.9628
51.9629
51.9629
51.963
51.9632
51.9633
51.9634
51.9635
51.9636
51.9636
51.9637
51.9638
51.9638
51.9638
51.9638
51.9637
51.9636
51.9635
51.9634
51.9632
51.9631
51.9629
51.9627
51.9625
51.9622
51.962
51.9617
51.9615
51.9612
51.9609
51.9607
51.9604
51.9601
51.9598
51.9596
51.9593
51.9591
51.9588
51.9586
51.9584
51.9582
51.958
51.9579
51.9577
51.9576
51.9574
51.9573
51.9572
51.957
51.9569
51.9567
51.9566
51.9564
51.9563
51.9561
51.956
51.9558
51.9557
51.9556
51.9554
51.9554
51.9553
51.9552
51.9552
51.9552
51.9552
51.9553
51.9554
51.9555
51.9556
51.9557
51.9559
51.9561
51.9563
51.9565
50.0001
50.0001
50.0001
50.0001
50.0001
50.0001
50.0002
50.0002
50.0002
50.0003
50.0003
50.0003
50.0004
50.0004
50.0004
50.0004
50.0004
50.0005
50.0005
50.0005
50.0005
50.0005
50.0006
50.0006
50.0007
50.0008
50.0008
50.0009
50.0011
50.0012
50.0013
50.0014
50.0015
50.0016
50.0017
50.0018
50.0018
50.0019
50.0019
50.0018
50.0018
50.0017
50.0016
50.0015
50.0013
50.0012
50.001
50.0008
50.0005
50.0003
50
49.9998
49.9995
49.9992
49.9989
49.9987
49.9984
49.9981
49.9978
49.9975
49.9973
49.997
49.9968
49.9966
49.9964
49.9962
49.996
49.9958
49.9957
49.9956
49.9954
49.9953
49.9952
49.995
49.9949
49.9947
49.9946
49.9944
49.9942
49.9941
49.9939
49.9938
49.9936
49.9935
49.9934
49.9933
49.9932
49.9931
49.9931
49.9931
49.9931
49.9932
49.9933
49.9934
49.9935
49.9937
49.9938
49.994
49.9942
49.9945
48.0381
48.0381
48.0381
48.0381
48.0381
48.0381
48.0382
48.0382
48.0382
48.0383
48.0383
48.0383
48.0384
48.0384
48.0384
48.0384
48.0384
48.0384
48.0385
48.0385
48.0385
48.0385
48.0385
48.0386
48.0387
48.0387
48.0388
48.0389
48.0391
48.0392
48.0393
48.0394
48.0396
48.0397
48.0398
48.0399
48.0399
48.04
48.04
48.0399
48.0399
48.0398
48.0397
48.0396
48.0394
48.0392
48.039
48.0388
48.0386
48.0383
48.0381
48.0378
48.0375
48.0373
48.037
48.0367
48.0364
48.0361
48.0358
48.0355
48.0352
48.035
48.0347
48.0345
48.0343
48.0341
48.034
48.0338
48.0337
48.0335
48.0334
48.0333
48.0331
48.033
48.0329
48.0327
48.0325
48.0324
48.0322
48.032
48.0319
48.0317
48.0315
48.0314
48.0313
48.0312
48.0311
48.031
48.031
48.031
48.031
48.0311
48.0312
48.0313
48.0314
48.0316
48.0318
48.032
48.0322
48.0324
46.0761
46.0761
46.0761
46.0761
46.0761
46.0761
46.0761
46.0762
46.0762
46.0763
46.0763
46.0763
46.0764
46.0764
46.0764
46.0764
46.0764
46.0764
46.0764
46.0764
46.0765
46.0765
46.0765
46.0766
46.0766
46.0767
46.0768
46.0769
46.0771
46.0772
46.0773
46.0775
46.0776
46.0777
46.0778
46.0779
46.078
46.0781
46.0781
46.0781
46.078
46.0779
46.0778
46.0777
46.0775
46.0773
46.0771
46.0769
46.0767
46.0764
46.0761
46.0759
46.0756
46.0753
46.075
46.0747
46.0744
46.0741
46.0738
46.0735
46.0732
46.0729
46.0727
46.0725
46.0723
46.0721
46.0719
46.0718
46.0716
46.0715
46.0714
46.0712
46.0711
46.071
46.0708
46.0707
46.0705
46.0704
46.0702
46.07
46.0698
46.0696
46.0695
46.0693
46.0692
46.0691
46.069
46.0689
46.0689
46.0689
46.0689
46.069
46.0691
46.0692
46.0693
46.0695
46.0697
46.0699
46.0701
46.0704
44.1141
44.1141
44.1141
44.1141
44.1141
44.1141
44.1141
44.1142
44.1142
44.1142
44.1143
44.1143
44.1144
44.1144
44.1144
44.1144
44.1144
44.1144
44.1144
44.1144
44.1144
44.1145
44.1145
44.1145
44.1146
44.1147
44.1148
44.1149
44.1151
44.1152
44.1154
44.1155
44.1157
44.1158
44.1159
44.116
44.1161
44.1162
44.1162
44.1162
44.1161
44.116
44.1159
44.1158
44.1156
44.1154
44.1152
44.115
44.1147
44.1145
44.1142
44.1139
44.1136
44.1133
44.113
44.1127
44.1124
44.1121
44.1117
44.1114
44.1111
44.1109
44.1106
44.1104
44.1102
44.11
44.1099
44.1097
44.1096
44.1095
44.1093
44.1092
44.1091
44.109
44.1088
44.1087
44.1085
44.1083
44.1081
44.108
44.1078
44.1076
44.1074
44.1072
44.1071
44.107
44.1069
44.1068
44.1068
44.1068
44.1068
44.1069
44.107
44.1071
44.1072
44.1074
44.1076
44.1078
44.1081
44.1083
42.152
42.152
42.152
42.152
42.1521
42.1521
42.1521
42.1521
42.1522
42.1522
42.1523
42.1523
42.1524
42.1524
42.1524
42.1524
42.1524
42.1524
42.1524
42.1524
42.1524
42.1524
42.1524
42.1525
42.1526
42.1527
42.1528
42.1529
42.1531
42.1532
42.1534
42.1536
42.1537
42.1539
42.154
42.1541
42.1542
42.1543
42.1543
42.1543
42.1543
42.1542
42.1541
42.1539
42.1537
42.1535
42.1533
42.1531
42.1528
42.1525
42.1522
42.152
42.1517
42.1513
42.151
42.1507
42.1504
42.15
42.1497
42.1494
42.1491
42.1488
42.1486
42.1483
42.1481
42.148
42.1478
42.1477
42.1475
42.1474
42.1473
42.1472
42.1471
42.147
42.1468
42.1467
42.1465
42.1463
42.1461
42.1459
42.1457
42.1455
42.1453
42.1451
42.145
42.1449
42.1447
42.1447
42.1446
42.1446
42.1447
42.1447
42.1448
42.145
42.1451
42.1453
42.1455
42.1458
42.146
42.1463
40.19
40.19
40.19
40.19
40.19
40.1901
40.1901
40.1901
40.1902
40.1902
40.1903
40.1904
40.1904
40.1904
40.1904
40.1905
40.1904
40.1904
40.1904
40.1904
40.1904
40.1904
40.1904
40.1905
40.1905
40.1906
40.1907
40.1909
40.1911
40.1912
40.1914
40.1916
40.1918
40.1919
40.1921
40.1922
40.1923
40.1924
40.1924
40.1924
40.1924
40.1923
40.1922
40.192
40.1918
40.1916
40.1914
40.1911
40.1909
40.1906
40.1903
40.19
40.1897
40.1894
40.189
40.1887
40.1884
40.188
40.1877
40.1874
40.187
40.1868
40.1865
40.1863
40.1861
40.1859
40.1857
40.1856
40.1855
40.1854
40.1853
40.1852
40.1851
40.1849
40.1848
40.1847
40.1845
40.1843
40.1841
40.1839
40.1837
40.1834
40.1832
40.183
40.1829
40.1827
40.1826
40.1825
40.1825
40.1825
40.1825
40.1826
40.1827
40.1828
40.183
40.1832
40.1834
40.1837
40.1839
40.1842
38.228
38.228
38.228
38.228
38.228
38.228
38.2281
38.2281
38.2282
38.2282
38.2283
38.2284
38.2284
38.2284
38.2285
38.2285
38.2284
38.2284
38.2284
38.2284
38.2283
38.2283
38.2284
38.2284
38.2285
38.2286
38.2287
38.2289
38.229
38.2292
38.2294
38.2296
38.2298
38.23
38.2302
38.2303
38.2305
38.2305
38.2306
38.2306
38.2305
38.2305
38.2303
38.2302
38.23
38.2297
38.2295
38.2292
38.229
38.2287
38.2284
38.2281
38.2277
38.2274
38.2271
38.2267
38.2264
38.226
38.2257
38.2253
38.225
38.2247
38.2244
38.2242
38.224
38.2238
38.2237
38.2235
38.2234
38.2233
38.2233
38.2232
38.2231
38.2229
38.2228
38.2226
38.2225
38.2223
38.2221
38.2218
38.2216
38.2214
38.2212
38.2209
38.2208
38.2206
38.2205
38.2204
38.2203
38.2203
38.2204
38.2204
38.2206
38.2207
38.2209
38.2211
38.2213
38.2216
38.2219
38.2221
36.266
36.266
36.266
36.266
36.266
36.266
36.266
36.2661
36.2662
36.2662
36.2663
36.2664
36.2664
36.2665
36.2665
36.2665
36.2665
36.2664
36.2664
36.2663
36.2663
36.2663
36.2663
36.2663
36.2664
36.2665
36.2667
36.2668
36.267
36.2672
36.2675
36.2677
36.2679
36.2681
36.2683
36.2684
36.2686
36.2687
36.2687
36.2687
36.2687
36.2686
36.2685
36.2683
36.2681
36.2679
36.2676
36.2673
36.267
36.2667
36.2664
36.2661
36.2658
36.2654
36.2651
36.2647
36.2644
36.264
36.2636
36.2633
36.2629
36.2626
36.2623
36.2621
36.2619
36.2617
36.2616
36.2615
36.2614
36.2613
36.2612
36.2612
36.2611
36.2609
36.2608
36.2606
36.2605
36.2603
36.26
36.2598
36.2595
36.2593
36.2591
36.2588
36.2586
36.2585
36.2583
36.2582
36.2582
36.2582
36.2582
36.2583
36.2584
36.2586
36.2588
36.259
36.2592
36.2595
36.2598
36.2601
34.304
34.304
34.304
34.304
34.304
34.304
34.304
34.3041
34.3041
34.3042
34.3043
34.3044
34.3044
34.3045
34.3045
34.3045
34.3045
34.3044
34.3044
34.3043
34.3043
34.3042
34.3042
34.3043
34.3044
34.3045
34.3046
34.3048
34.305
34.3052
34.3055
34.3057
34.306
34.3062
34.3064
34.3066
34.3067
34.3068
34.3069
34.3069
34.3069
34.3068
34.3066
34.3064
34.3062
34.306
34.3057
34.3054
34.3051
34.3048
34.3045
34.3042
34.3038
34.3035
34.3031
34.3027
34.3024
34.302
34.3016
34.3012
34.3009
34.3005
34.3003
34.3
34.2998
34.2996
34.2995
34.2994
34.2993
34.2993
34.2992
34.2991
34.2991
34.299
34.2988
34.2987
34.2985
34.2982
34.298
34.2978
34.2975
34.2972
34.297
34.2967
34.2965
34.2963
34.2962
34.2961
34.296
34.296
34.296
34.2961
34.2963
34.2964
34.2966
34.2969
34.2971
34.2974
34.2977
34.298
32.342
32.342
32.3419
32.3419
32.3419
32.3419
32.342
32.342
32.3421
32.3422
32.3423
32.3424
32.3425
32.3425
32.3425
32.3425
32.3425
32.3424
32.3423
32.3423
32.3422
32.3422
32.3422
32.3422
32.3423
32.3424
32.3426
32.3428
32.343
32.3432
32.3435
32.3438
32.344
32.3443
32.3445
32.3447
32.3449
32.345
32.3451
32.3451
32.345
32.3449
32.3448
32.3446
32.3444
32.3441
32.3438
32.3435
32.3432
32.3429
32.3426
32.3422
32.3419
32.3415
32.3411
32.3408
32.3404
32.3399
32.3395
32.3391
32.3388
32.3384
32.3382
32.3379
32.3377
32.3375
32.3374
32.3373
32.3373
32.3372
32.3372
32.3371
32.3371
32.337
32.3368
32.3367
32.3365
32.3362
32.336
32.3357
32.3354
32.3351
32.3349
32.3346
32.3344
32.3342
32.334
32.3339
32.3338
32.3338
32.3339
32.3339
32.3341
32.3343
32.3345
32.3347
32.335
32.3353
32.3356
32.336
30.38
30.3799
30.3799
30.3799
30.3799
30.3799
30.3799
30.38
30.3801
30.3802
30.3803
30.3804
30.3805
30.3806
30.3806
30.3806
30.3805
30.3804
30.3803
30.3802
30.3802
30.3801
30.3801
30.3801
30.3802
30.3803
30.3805
30.3807
30.381
30.3812
30.3815
30.3818
30.3821
30.3824
30.3826
30.3828
30.383
30.3832
30.3833
30.3833
30.3832
30.3831
30.383
30.3828
30.3825
30.3822
30.3819
30.3816
30.3813
30.381
30.3806
30.3803
30.3799
30.3796
30.3792
30.3788
30.3783
30.3779
30.3775
30.3771
30.3767
30.3763
30.376
30.3758
30.3756
30.3754
30.3753
30.3753
30.3752
30.3752
30.3752
30.3751
30.3751
30.375
30.3749
30.3747
30.3745
30.3742
30.374
30.3737
30.3734
30.3731
30.3728
30.3725
30.3722
30.372
30.3718
30.3717
30.3716
30.3716
30.3717
30.3718
30.3719
30.3721
30.3723
30.3726
30.3729
30.3732
30.3736
30.3739
28.4179
28.4179
28.4179
28.4179
28.4178
28.4178
28.4179
28.418
28.4181
28.4182
28.4183
28.4185
28.4185
28.4186
28.4186
28.4186
28.4185
28.4184
28.4183
28.4182
28.4181
28.418
28.418
28.418
28.4181
28.4182
28.4184
28.4187
28.4189
28.4192
28.4196
28.4199
28.4202
28.4205
28.4208
28.421
28.4212
28.4214
28.4215
28.4215
28.4215
28.4213
28.4212
28.4209
28.4207
28.4204
28.4201
28.4197
28.4194
28.4191
28.4187
28.4184
28.418
28.4176
28.4172
28.4168
28.4164
28.4159
28.4154
28.415
28.4146
28.4142
28.4139
28.4137
28.4135
28.4133
28.4132
28.4132
28.4132
28.4132
28.4132
28.4131
28.4131
28.413
28.4129
28.4127
28.4125
28.4123
28.412
28.4117
28.4113
28.411
28.4107
28.4104
28.4101
28.4098
28.4096
28.4095
28.4094
28.4094
28.4095
28.4096
28.4097
28.4099
28.4102
28.4105
28.4108
28.4111
28.4115
28.4118
26.4559
26.4559
26.4559
26.4558
26.4558
26.4558
26.4558
26.4559
26.456
26.4562
26.4563
26.4565
26.4566
26.4567
26.4567
26.4566
26.4566
26.4564
26.4563
26.4562
26.456
26.456
26.4559
26.4559
26.456
26.4561
26.4563
26.4566
26.4569
26.4572
26.4576
26.4579
26.4583
26.4586
26.4589
26.4592
26.4594
26.4596
26.4597
26.4597
26.4597
26.4596
26.4594
26.4591
26.4588
26.4585
26.4582
26.4578
26.4575
26.4571
26.4568
26.4564
26.4561
26.4557
26.4553
26.4548
26.4544
26.4539
26.4534
26.4529
26.4525
26.4521
26.4518
26.4515
26.4513
26.4512
26.4511
26.4511
26.4511
26.4511
26.4511
26.4512
26.4511
26.4511
26.4509
26.4508
26.4505
26.4503
26.45
26.4496
26.4493
26.4489
26.4486
26.4482
26.4479
26.4477
26.4474
26.4473
26.4472
26.4472
26.4472
26.4473
26.4475
26.4477
26.448
26.4483