/*--------------------------------*- C++ -*----------------------------------*\
| =========                 |                                                 |
| \\      /  F ield         | OpenFOAM: The Open Source CFD Toolbox           |
|  \\    /   O peration     | Version:  2.4.0                                 |
|   \\  /    A nd           | Web:      www.OpenFOAM.org                      |
|    \\/     M anipulation  |                                                 |
\*---------------------------------------------------------------------------*/
FoamFile
{
    version     2.0;
    format      ascii;
    class       surfaceScalarField;
    location    "0.1";
    object      phi;
}
// * * * * * * * * * * * * * * * * * * * * * * * * * * * * * * * * * * * * * //

dimensions      [0 3 -1 0 0 0 0];

internalField   nonuniform List<scalar> 
119500
(
-1.90112e-13
1.90112e-13
-4.48629e-13
2.5835e-13
-7.44307e-13
2.95545e-13
-1.04639e-12
3.01968e-13
-1.34653e-12
3.00035e-13
-1.64381e-12
2.97188e-13
-1.93687e-12
2.92994e-13
-2.22564e-12
2.88704e-13
-2.50943e-12
2.83732e-13
-2.78798e-12
2.78492e-13
-3.06123e-12
2.73179e-13
-3.32924e-12
2.67927e-13
-3.59201e-12
2.62686e-13
-3.84938e-12
2.57287e-13
-4.10137e-12
2.51899e-13
-4.34793e-12
2.46458e-13
-4.5894e-12
2.41356e-13
-4.8263e-12
2.36758e-13
-5.05943e-12
2.3295e-13
-5.28889e-12
2.29255e-13
-5.51425e-12
2.25125e-13
-5.7353e-12
2.20788e-13
-5.95032e-12
2.14731e-13
-6.15757e-12
2.06924e-13
-6.35411e-12
1.962e-13
-6.53649e-12
1.82013e-13
-6.70052e-12
1.63661e-13
-6.84179e-12
1.40909e-13
-6.95544e-12
1.13318e-13
-7.03665e-12
8.09247e-14
-7.08056e-12
4.36679e-14
-7.08279e-12
2.03278e-15
-7.03774e-12
-4.52005e-14
-6.94056e-12
-9.73003e-14
-6.7879e-12
-1.52771e-13
-6.57599e-12
-2.12008e-13
-6.30174e-12
-2.7436e-13
-5.96362e-12
-3.38241e-13
-5.56108e-12
-4.02678e-13
-5.09481e-12
-4.66399e-13
-4.56654e-12
-5.2841e-13
-3.97815e-12
-5.88518e-13
-3.33308e-12
-6.45198e-13
-2.63493e-12
-6.98268e-13
-1.88904e-12
-7.46007e-13
-1.10293e-12
-7.86243e-13
-2.81559e-13
-8.21522e-13
5.68498e-13
-8.50236e-13
1.43959e-12
-8.71303e-13
2.32449e-12
-8.85137e-13
3.21672e-12
-8.92503e-13
4.10984e-12
-8.93401e-13
4.99825e-12
-8.88709e-13
5.87572e-12
-8.77767e-13
6.73564e-12
-8.6022e-13
7.57307e-12
-8.37729e-13
8.3827e-12
-8.09944e-13
9.15932e-12
-7.7694e-13
9.89852e-12
-7.39538e-13
1.05962e-11
-6.98079e-13
1.12491e-11
-6.53216e-13
1.1855e-11
-6.06396e-13
1.2413e-11
-5.58513e-13
1.29235e-11
-5.11003e-13
1.33854e-11
-4.62505e-13
1.38006e-11
-4.1581e-13
1.41702e-11
-3.70278e-13
1.44959e-11
-3.26367e-13
1.47793e-11
-2.8416e-13
1.50228e-11
-2.44261e-13
1.52278e-11
-2.05713e-13
1.53944e-11
-1.67234e-13
1.55233e-11
-1.29613e-13
1.56149e-11
-9.22289e-14
1.56674e-11
-5.30735e-14
1.56788e-11
-1.18516e-14
1.56474e-11
3.10917e-14
1.55697e-11
7.73865e-14
1.54426e-11
1.26917e-13
1.52632e-11
1.79323e-13
1.50274e-11
2.35712e-13
1.47314e-11
2.96057e-13
1.43699e-11
3.61433e-13
1.39387e-11
4.31252e-13
1.34346e-11
5.04022e-13
1.28542e-11
5.80391e-13
1.2194e-11
6.60179e-13
1.14519e-11
7.42029e-13
1.06268e-11
8.25093e-13
9.71955e-12
9.07271e-13
8.73221e-12
9.87316e-13
7.66839e-12
1.06376e-12
6.53451e-12
1.13378e-12
5.33196e-12
1.2024e-12
4.09618e-12
1.23557e-12
2.75046e-12
1.34547e-12
1.46978e-12
1.28043e-12
3.63813e-14
1.43319e-12
-1.24838e-12
1.28461e-12
1.17513e-12
-2.42359e-12
-3.19498e-13
5.09458e-13
-8.19306e-13
7.5789e-13
-1.37787e-12
8.53889e-13
-1.95515e-12
8.79059e-13
-2.52769e-12
8.7242e-13
-3.09543e-12
8.64784e-13
-3.65799e-12
8.55426e-13
-4.21503e-12
8.4562e-13
-4.76578e-12
8.34346e-13
-5.30966e-12
8.22219e-13
-5.84644e-12
8.09795e-13
-6.37633e-12
7.97639e-13
-6.89939e-12
7.8556e-13
-7.41572e-12
7.73412e-13
-7.92558e-12
7.6154e-13
-8.42912e-12
7.49737e-13
-8.92635e-12
7.3828e-13
-9.41796e-12
7.28007e-13
-9.9046e-12
7.19183e-13
-1.03862e-11
7.10428e-13
-1.08631e-11
7.01439e-13
-1.13345e-11
6.9168e-13
-1.17987e-11
6.78271e-13
-1.22531e-11
6.60705e-13
-1.26949e-11
6.37315e-13
-1.31189e-11
6.05388e-13
-1.35212e-11
5.65269e-13
-1.38956e-11
5.1479e-13
-1.4236e-11
4.53217e-13
-1.45367e-11
3.81182e-13
-1.47904e-11
2.97005e-13
-1.49906e-11
2.01953e-13
-1.51299e-11
9.3841e-14
-1.52001e-11
-2.73541e-14
-1.51947e-11
-1.58398e-13
-1.51064e-11
-3.00523e-13
-1.49287e-11
-4.52226e-13
-1.4658e-11
-6.09206e-13
-1.42911e-11
-7.69809e-13
-1.38268e-11
-9.30969e-13
-1.32643e-11
-1.0911e-12
-1.26037e-11
-1.24935e-12
-1.18465e-11
-1.40269e-12
-1.09949e-11
-1.55009e-12
-1.00537e-11
-1.68751e-12
-9.03043e-12
-1.80977e-12
-7.93044e-12
-1.92187e-12
-6.76011e-12
-2.02097e-12
-5.5297e-12
-2.10216e-12
-4.24682e-12
-2.16851e-12
-2.91889e-12
-2.22096e-12
-1.55457e-12
-2.25826e-12
-1.6193e-13
-2.2819e-12
1.24961e-12
-2.28986e-12
2.67223e-12
-2.28339e-12
4.09668e-12
-2.26275e-12
5.51422e-12
-2.22807e-12
6.91503e-12
-2.17838e-12
8.29183e-12
-2.11701e-12
9.63581e-12
-2.04278e-12
1.09387e-11
-1.95695e-12
1.21951e-11
-1.86364e-12
1.33995e-11
-1.76387e-12
1.45487e-11
-1.6612e-12
1.56385e-11
-1.55338e-12
1.66688e-11
-1.44735e-12
1.76376e-11
-1.34034e-12
1.8545e-11
-1.23495e-12
1.93897e-11
-1.13017e-12
2.01722e-11
-1.028e-12
2.08913e-11
-9.26021e-13
2.15447e-11
-8.21732e-13
2.21303e-11
-7.16206e-13
2.26447e-11
-6.0755e-13
2.3085e-11
-4.9407e-13
2.34468e-11
-3.74221e-13
2.3725e-11
-2.47506e-13
2.39154e-11
-1.1337e-13
2.40116e-11
3.06024e-14
2.40073e-11
1.83424e-13
2.38945e-11
3.48541e-13
2.36653e-11
5.25187e-13
2.33101e-11
7.16569e-13
2.28187e-11
9.22534e-13
2.21821e-11
1.14062e-12
2.13922e-11
1.37024e-12
2.044e-11
1.61228e-12
1.93189e-11
1.86306e-12
1.80249e-11
2.119e-12
1.65546e-11
2.37747e-12
1.49085e-11
2.63334e-12
1.30897e-11
2.88229e-12
1.11048e-11
3.11835e-12
8.96321e-12
3.34366e-12
6.6963e-12
3.50208e-12
4.26196e-12
3.77944e-12
1.81153e-12
3.73056e-12
-7.28634e-13
3.97317e-12
-2.9634e-12
3.5193e-12
2.73955e-12
-4.5278e-12
-3.58636e-13
8.6796e-13
-9.47355e-13
1.34636e-12
-1.61155e-12
1.51788e-12
-2.29496e-12
1.56228e-12
-2.97688e-12
1.55417e-12
-3.65288e-12
1.54063e-12
-4.32382e-12
1.5262e-12
-4.98942e-12
1.51105e-12
-5.64905e-12
1.49379e-12
-6.30198e-12
1.47495e-12
-6.94792e-12
1.45551e-12
-7.58699e-12
1.43646e-12
-8.21923e-12
1.41754e-12
-8.84503e-12
1.39893e-12
-9.46486e-12
1.38107e-12
-1.00791e-11
1.36363e-12
-1.06881e-11
1.34692e-12
-1.12925e-11
1.33202e-12
-1.18924e-11
1.31862e-12
-1.24883e-11
1.3058e-12
-1.30804e-11
1.29311e-12
-1.36676e-11
1.27833e-12
-1.42488e-11
1.2589e-12
-1.48215e-11
1.23275e-12
-1.53821e-11
1.19732e-12
-1.59266e-11
1.14936e-12
-1.64506e-11
1.08862e-12
-1.69478e-11
1.01149e-12
-1.74126e-11
9.17576e-13
-1.78382e-11
8.06387e-13
-1.82173e-11
6.7576e-13
-1.85428e-11
5.27182e-13
-1.88064e-11
3.57151e-13
-1.90013e-11
1.67363e-13
-1.9118e-11
-4.1938e-14
-1.91493e-11
-2.69379e-13
-1.90889e-11
-5.12947e-13
-1.89311e-11
-7.67188e-13
-1.86724e-11
-1.02874e-12
-1.83104e-11
-1.29324e-12
-1.78431e-11
-1.55864e-12
-1.72701e-11
-1.82259e-12
-1.65913e-11
-2.08175e-12
-1.58095e-11
-2.33216e-12
-1.49278e-11
-2.56944e-12
-1.39516e-11
-2.78633e-12
-1.28874e-11
-2.98641e-12
-1.1741e-11
-3.1678e-12
-1.05198e-11
-3.32373e-12
-9.23128e-12
-3.45749e-12
-7.88281e-12
-3.5699e-12
-6.48253e-12
-3.659e-12
-5.03886e-12
-3.72603e-12
-3.56061e-12
-3.76857e-12
-2.05742e-12
-3.78707e-12
-5.384e-13
-3.78225e-12
9.86383e-13
-3.75335e-12
2.5105e-12
-3.70303e-12
4.0241e-12
-3.63116e-12
5.51745e-12
-3.53673e-12
6.98147e-12
-3.42161e-12
8.41012e-12
-3.29297e-12
9.79702e-12
-3.1515e-12
1.11352e-11
-3.00013e-12
1.24267e-11
-2.84573e-12
1.36621e-11
-2.68355e-12
1.48415e-11
-2.52064e-12
1.596e-11
-2.35429e-12
1.70213e-11
-2.19234e-12
1.80185e-11
-2.0261e-12
1.89506e-11
-1.85893e-12
1.98138e-11
-1.68563e-12
2.06042e-11
-1.50729e-12
2.13159e-11
-1.31985e-12
2.19445e-11
-1.12305e-12
2.24843e-11
-9.14496e-13
2.29286e-11
-6.91996e-13
2.32684e-11
-4.53385e-13
2.34979e-11
-1.99071e-13
2.3606e-11
7.5215e-14
2.35822e-11
3.72179e-13
2.34147e-11
6.92613e-13
2.30935e-11
1.03758e-12
2.2604e-11
1.412e-12
2.19336e-11
1.81083e-12
2.10702e-11
2.23352e-12
2.00036e-11
2.67873e-12
1.87246e-11
3.14186e-12
1.72268e-11
3.61663e-12
1.55055e-11
4.09863e-12
1.35593e-11
4.57932e-12
1.13905e-11
5.0509e-12
9.00645e-12
5.5022e-12
6.41868e-12
5.93122e-12
3.65372e-12
6.26685e-12
7.22234e-13
6.71078e-12
-2.35724e-12
6.80996e-12
-5.41398e-12
7.0299e-12
-8.14741e-12
6.25277e-12
4.43927e-12
-9.84701e-12
-3.91864e-13
1.25969e-12
-9.99286e-13
1.95352e-12
-1.69448e-12
2.21284e-12
-2.41354e-12
2.28112e-12
-3.13353e-12
2.27395e-12
-3.84884e-12
2.25571e-12
-4.55934e-12
2.23648e-12
-5.26459e-12
2.21606e-12
-5.96425e-12
2.19317e-12
-6.6578e-12
2.16819e-12
-7.34491e-12
2.14229e-12
-8.02536e-12
2.11655e-12
-8.69915e-12
2.09095e-12
-9.36651e-12
2.06589e-12
-1.00277e-11
2.04187e-12
-1.06832e-11
2.01859e-12
-1.13338e-11
1.99708e-12
-1.19804e-11
1.97813e-12
-1.26233e-11
1.96097e-12
-1.32634e-11
1.94528e-12
-1.39005e-11
1.92973e-12
-1.45338e-11
1.91097e-12
-1.51622e-11
1.88673e-12
-1.57836e-11
1.85357e-12
-1.63942e-11
1.80736e-12
-1.69913e-11
1.74588e-12
-1.75692e-11
1.66597e-12
-1.81227e-11
1.56442e-12
-1.86458e-11
1.44029e-12
-1.91309e-11
1.29104e-12
-1.95712e-11
1.11575e-12
-1.9958e-11
9.13661e-13
-2.02839e-11
6.82752e-13
-2.05408e-11
4.23991e-13
-2.07203e-11
1.37266e-13
-2.08149e-11
-1.75012e-13
-2.08184e-11
-5.09742e-13
-2.07251e-11
-8.60814e-13
-2.05299e-11
-1.22421e-12
-2.02304e-11
-1.59299e-12
-1.98235e-11
-1.96578e-12
-1.93091e-11
-2.33729e-12
-1.86875e-11
-2.70369e-12
-1.79596e-11
-3.06037e-12
-1.71305e-11
-3.39884e-12
-1.62028e-11
-3.71438e-12
-1.51826e-11
-4.00696e-12
-1.40778e-11
-4.2731e-12
-1.28931e-11
-4.50887e-12
-1.16353e-11
-4.71572e-12
-1.03132e-11
-4.89243e-12
-8.93464e-12
-5.03799e-12
-7.5087e-12
-5.1524e-12
-6.0444e-12
-5.2333e-12
-4.55076e-12
-5.28114e-12
-3.0371e-12
-5.29635e-12
-1.51242e-12
-5.27848e-12
1.31094e-14
-5.22903e-12
1.53175e-12
-5.15028e-12
3.03713e-12
-5.0426e-12
4.51721e-12
-4.90221e-12
5.96742e-12
-4.74371e-12
7.38191e-12
-4.56653e-12
8.75508e-12
-4.37385e-12
1.00813e-11
-4.17249e-12
1.13593e-11
-3.96214e-12
1.25836e-11
-3.74545e-12
1.37513e-11
-3.52259e-12
1.48601e-11
-3.30165e-12
1.59082e-11
-3.07463e-12
1.68919e-11
-2.84318e-12
1.78071e-11
-2.60117e-12
1.86506e-11
-2.35121e-12
1.94161e-11
-2.08563e-12
2.00977e-11
-1.80498e-12
2.06886e-11
-1.50556e-12
2.11803e-11
-1.1839e-12
2.15653e-11
-8.38591e-13
2.18317e-11
-4.65591e-13
2.19668e-11
-6.00818e-14
2.19614e-11
3.77373e-13
2.18e-11
8.53906e-13
2.14693e-11
1.36804e-12
2.09568e-11
1.92425e-12
2.02479e-11
2.51953e-12
1.93295e-11
3.15172e-12
1.81891e-11
3.8189e-12
1.68163e-11
4.51442e-12
1.52018e-11
5.23082e-12
1.33412e-11
5.95904e-12
1.1232e-11
6.68837e-12
8.87647e-12
7.40626e-12
6.28222e-12
8.09636e-12
3.46212e-12
8.75129e-12
4.32445e-13
9.29655e-12
-2.75583e-12
9.89913e-12
-6.10987e-12
1.01641e-11
-9.46597e-12
1.03861e-11
-1.25401e-11
9.327e-12
6.4361e-12
-1.45367e-11
-4.10182e-13
1.66973e-12
-1.02827e-12
2.57131e-12
-1.72842e-12
2.91273e-12
-2.45668e-12
3.00912e-12
-3.18768e-12
3.00467e-12
-3.91544e-12
2.98319e-12
-4.63899e-12
2.95971e-12
-5.35764e-12
2.93437e-12
-6.07099e-12
2.90614e-12
-6.7785e-12
2.87528e-12
-7.47968e-12
2.84301e-12
-8.17421e-12
2.8106e-12
-8.86199e-12
2.77822e-12
-9.54309e-12
2.74645e-12
-1.02178e-11
2.71605e-12
-1.08869e-11
2.68708e-12
-1.15513e-11
2.66087e-12
-1.2212e-11
2.63821e-12
-1.28699e-11
2.6182e-12
-1.35253e-11
2.60008e-12
-1.41785e-11
2.58225e-12
-1.48288e-11
2.5607e-12
-1.5475e-11
2.53224e-12
-1.61152e-11
2.49318e-12
-1.67467e-11
2.43821e-12
-1.73655e-11
2.36412e-12
-1.79674e-11
2.26729e-12
-1.85466e-11
2.14308e-12
-1.90966e-11
1.9898e-12
-1.96105e-11
1.80448e-12
-2.00797e-11
1.58451e-12
-2.04965e-11
1.33015e-12
-2.0852e-11
1.03785e-12
-2.11384e-11
7.10071e-13
-2.13471e-11
3.45631e-13
-2.14715e-11
-5.09892e-14
-2.1504e-11
-4.77537e-13
-2.14402e-11
-9.25022e-13
-2.12734e-11
-1.39131e-12
-2.1001e-11
-1.86569e-12
-2.06204e-11
-2.34676e-12
-2.01297e-11
-2.82832e-12
-1.9531e-11
-3.30275e-12
-1.88252e-11
-3.76661e-12
-1.80152e-11
-4.20927e-12
-1.71049e-11
-4.6251e-12
-1.61003e-11
-5.01194e-12
-1.50079e-11
-5.36597e-12
-1.3833e-11
-5.68426e-12
-1.2583e-11
-5.96621e-12
-1.12664e-11
-6.20942e-12
-9.89186e-12
-6.41298e-12
-8.46892e-12
-6.57575e-12
-7.00681e-12
-6.69582e-12
-5.51456e-12
-6.7738e-12
-4.00193e-12
-6.80938e-12
-2.47825e-12
-6.80257e-12
-9.52542e-13
-6.75514e-12
5.6559e-13
-6.66882e-12
2.06627e-12
-6.54368e-12
3.55199e-12
-6.38832e-12
5.00662e-12
-6.19871e-12
6.4266e-12
-5.98686e-12
7.80701e-12
-5.7546e-12
9.14199e-12
-5.50778e-12
1.04279e-11
-5.24835e-12
1.16597e-11
-4.97751e-12
1.28404e-11
-4.70357e-12
1.39609e-11
-4.42238e-12
1.50196e-11
-4.13354e-12
1.60128e-11
-3.83654e-12
1.6941e-11
-3.52948e-12
1.77958e-11
-3.20608e-12
1.85756e-11
-2.86564e-12
1.92717e-11
-2.50114e-12
1.98772e-11
-2.11119e-12
2.03839e-11
-1.69074e-12
2.07804e-11
-1.23524e-12
2.10569e-11
-7.42335e-13
2.12017e-11
-2.05018e-13
2.11987e-11
3.80145e-13
2.10367e-11
1.01565e-12
2.06993e-11
1.70518e-12
2.01728e-11
2.45049e-12
1.94435e-11
3.24856e-12
1.84966e-11
4.09829e-12
1.73195e-11
4.99564e-12
1.5901e-11
5.9327e-12
1.42318e-11
6.89965e-12
1.23059e-11
7.88481e-12
1.01198e-11
8.87432e-12
7.67526e-12
9.8507e-12
4.97829e-12
1.07934e-11
2.04528e-12
1.16844e-11
-1.11941e-12
1.24614e-11
-4.44707e-12
1.3227e-11
-7.92725e-12
1.36445e-11
-1.14079e-11
1.38669e-11
-1.45945e-11
1.25138e-11
8.38432e-12
-1.65426e-11
-4.18418e-13
2.08799e-12
-1.04397e-12
3.19653e-12
-1.74654e-12
3.61499e-12
-2.47558e-12
3.73785e-12
-3.20875e-12
3.7375e-12
-3.94007e-12
3.71414e-12
-4.66779e-12
3.68704e-12
-5.39091e-12
3.65706e-12
-6.10887e-12
3.62362e-12
-6.82109e-12
3.58698e-12
-7.5269e-12
3.54827e-12
-8.22586e-12
3.50897e-12
-8.91783e-12
3.46957e-12
-9.60273e-12
3.4307e-12
-1.02809e-11
3.39352e-12
-1.09534e-11
3.35889e-12
-1.16214e-11
3.32823e-12
-1.22859e-11
3.302e-12
-1.29481e-11
3.27968e-12
-1.36086e-11
3.25985e-12
-1.42671e-11
3.24005e-12
-1.49238e-11
3.2167e-12
-1.55774e-11
3.18522e-12
-1.62259e-11
3.14105e-12
-1.68674e-11
3.07906e-12
-1.74977e-11
2.99379e-12
-1.81122e-11
2.88126e-12
-1.87059e-11
2.73618e-12
-1.92712e-11
2.55458e-12
-1.98016e-11
2.33428e-12
-2.0288e-11
2.07038e-12
-2.0722e-11
1.76367e-12
-2.10948e-11
1.41023e-12
-2.13978e-11
1.01265e-12
-2.16228e-11
5.70169e-13
-2.17625e-11
8.83016e-14
-2.18102e-11
-4.30288e-13
-2.17594e-11
-9.76242e-13
-2.16056e-11
-1.54545e-12
-2.13439e-11
-2.12782e-12
-2.09721e-11
-2.71902e-12
-2.04893e-11
-3.31147e-12
-1.98958e-11
-3.89679e-12
-1.91936e-11
-4.4692e-12
-1.83864e-11
-5.017e-12
-1.74762e-11
-5.5358e-12
-1.6469e-11
-6.01966e-12
-1.53717e-11
-6.46378e-12
-1.41901e-11
-6.86632e-12
-1.29321e-11
-7.2246e-12
-1.16066e-11
-7.53537e-12
-1.02224e-11
-7.79759e-12
-8.78914e-12
-8.00937e-12
-7.3166e-12
-8.16873e-12
-5.81413e-12
-8.27664e-12
-4.29135e-12
-8.33252e-12
-2.75799e-12
-8.3363e-12
-1.2231e-12
-8.29039e-12
3.04568e-13
-8.19682e-12
1.81732e-12
-8.05674e-12
3.30662e-12
-7.87791e-12
4.7694e-12
-7.66174e-12
6.19731e-12
-7.41497e-12
7.58523e-12
-7.14269e-12
8.92782e-12
-6.8505e-12
1.02217e-11
-6.54232e-12
1.14628e-11
-6.21868e-12
1.26476e-11
-5.88843e-12
1.37739e-11
-5.5486e-12
1.48401e-11
-5.19973e-12
1.5841e-11
-4.83743e-12
1.67758e-11
-4.46424e-12
1.76395e-11
-4.06965e-12
1.84263e-11
-3.65246e-12
1.91322e-11
-3.20703e-12
1.97485e-11
-2.7275e-12
2.02661e-11
-2.20847e-12
2.06761e-11
-1.64538e-12
2.09648e-11
-1.03123e-12
2.11201e-11
-3.60549e-13
2.11277e-11
3.72253e-13
2.09734e-11
1.16977e-12
2.06414e-11
2.0369e-12
2.01189e-11
2.97267e-12
1.93891e-11
3.97812e-12
1.84379e-11
5.04919e-12
1.72527e-11
6.18047e-12
1.5821e-11
7.36418e-12
1.41333e-11
8.58707e-12
1.21826e-11
9.83534e-12
9.96486e-12
1.1092e-11
7.48055e-12
1.23351e-11
4.73534e-12
1.35387e-11
1.7445e-12
1.46755e-11
-1.4829e-12
1.56891e-11
-4.89247e-12
1.66368e-11
-8.44866e-12
1.72009e-11
-1.20012e-11
1.74196e-11
-1.52286e-11
1.57414e-11
1.03394e-11
-1.71836e-11
-4.22452e-13
2.51026e-12
-1.05359e-12
3.82731e-12
-1.75824e-12
4.31929e-12
-2.48658e-12
4.46581e-12
-3.21984e-12
4.47036e-12
-3.95226e-12
4.44614e-12
-4.68163e-12
4.41595e-12
-5.40668e-12
4.38161e-12
-6.12655e-12
4.34295e-12
-6.84064e-12
4.30049e-12
-7.54817e-12
4.25517e-12
-8.24841e-12
4.20856e-12
-8.94119e-12
4.16167e-12
-9.62656e-12
4.11537e-12
-1.03048e-11
4.07103e-12
-1.09772e-11
4.03058e-12
-1.16456e-11
3.99583e-12
-1.23106e-11
3.96623e-12
-1.29734e-11
3.94171e-12
-1.36353e-11
3.921e-12
-1.4296e-11
3.90001e-12
-1.49555e-11
3.87555e-12
-1.56136e-11
3.84257e-12
-1.62678e-11
3.79463e-12
-1.69163e-11
3.72686e-12
-1.75554e-11
3.63223e-12
-1.81799e-11
3.50514e-12
-1.87847e-11
3.34039e-12
-1.93627e-11
3.13192e-12
-1.99059e-11
2.87683e-12
-2.04064e-11
2.57027e-12
-2.08542e-11
2.21088e-12
-2.1241e-11
1.79647e-12
-2.15571e-11
1.32822e-12
-2.1795e-11
8.07517e-13
-2.19457e-11
2.38472e-13
-2.2004e-11
-3.72542e-13
-2.19615e-11
-1.01915e-12
-2.18143e-11
-1.69316e-12
-2.15581e-11
-2.38453e-12
-2.11894e-11
-3.08819e-12
-2.07078e-11
-3.79366e-12
-2.01144e-11
-4.49064e-12
-1.94099e-11
-5.17426e-12
-1.85971e-11
-5.8304e-12
-1.768e-11
-6.45343e-12
-1.66637e-11
-7.03649e-12
-1.55548e-11
-7.57326e-12
-1.4361e-11
-8.06059e-12
-1.30901e-11
-8.49595e-12
-1.17507e-11
-8.87512e-12
-1.03522e-11
-9.19651e-12
-8.90412e-12
-9.45777e-12
-7.41658e-12
-9.65662e-12
-5.89928e-12
-9.79427e-12
-4.36174e-12
-9.87041e-12
-2.81378e-12
-9.88457e-12
-1.26475e-12
-9.83973e-12
2.76741e-13
-9.73858e-12
1.80351e-12
-9.58375e-12
3.30333e-12
-9.37793e-12
4.77752e-12
-9.13608e-12
6.21481e-12
-8.85238e-12
7.61072e-12
-8.53866e-12
8.9599e-12
-8.1997e-12
1.02589e-11
-7.84131e-12
1.15076e-11
-7.46729e-12
1.26996e-11
-7.0804e-12
1.38332e-11
-6.68204e-12
1.49044e-11
-6.27082e-12
1.59135e-11
-5.84639e-12
1.68549e-11
-5.40547e-12
1.77258e-11
-4.94036e-12
1.85237e-11
-4.45031e-12
1.92409e-11
-3.92417e-12
1.98697e-11
-3.35636e-12
2.04013e-11
-2.74015e-12
2.08263e-11
-2.07052e-12
2.11308e-11
-1.33589e-12
2.13029e-11
-5.32825e-13
2.13276e-11
3.47283e-13
2.11898e-11
1.30739e-12
2.08748e-11
2.35165e-12
2.03662e-11
3.48101e-12
1.96489e-11
4.69518e-12
1.87079e-11
5.98993e-12
1.75293e-11
7.35892e-12
1.61001e-11
8.79314e-12
1.441e-11
1.02769e-11
1.24516e-11
1.17936e-11
1.02205e-11
1.33231e-11
7.71589e-12
1.48398e-11
4.94258e-12
1.63122e-11
1.91257e-12
1.77057e-11
-1.36185e-12
1.89637e-11
-4.83122e-12
2.01063e-11
-8.45318e-12
2.08229e-11
-1.20789e-11
2.10453e-11
-1.53624e-11
1.90249e-11
1.23383e-11
-1.73614e-11
-4.2502e-13
2.93508e-12
-1.06029e-12
4.46218e-12
-1.76673e-12
5.02534e-12
-2.49473e-12
5.1934e-12
-3.22811e-12
5.20331e-12
-3.9613e-12
5.17886e-12
-4.69181e-12
5.14596e-12
-5.41831e-12
5.10757e-12
-6.13956e-12
5.06362e-12
-6.85472e-12
5.01504e-12
-7.56308e-12
4.96289e-12
-8.26373e-12
4.90854e-12
-8.9562e-12
4.85345e-12
-9.64087e-12
4.79933e-12
-1.03183e-11
4.74774e-12
-1.09897e-11
4.70125e-12
-1.1657e-11
4.66238e-12
-1.23214e-11
4.62985e-12
-1.29838e-11
4.60328e-12
-1.36457e-11
4.58213e-12
-1.43077e-11
4.56126e-12
-1.49695e-11
4.53669e-12
-1.56312e-11
4.50349e-12
-1.62911e-11
4.45389e-12
-1.69465e-11
4.38162e-12
-1.75942e-11
4.27926e-12
-1.82293e-11
4.13949e-12
-1.88453e-11
3.95575e-12
-1.94363e-11
3.72219e-12
-1.99929e-11
3.43271e-12
-2.05075e-11
3.08413e-12
-2.09696e-11
2.67235e-12
-2.13705e-11
2.19668e-12
-2.17001e-11
1.65714e-12
-2.19506e-11
1.05736e-12
-2.21128e-11
4.00067e-13
-2.218e-11
-3.05866e-13
-2.21456e-11
-1.05417e-12
-2.20038e-11
-1.83551e-12
-2.17503e-11
-2.63861e-12
-2.13832e-11
-3.45594e-12
-2.09002e-11
-4.27725e-12
-2.03023e-11
-5.08914e-12
-1.95917e-11
-5.88544e-12
-1.87712e-11
-6.65151e-12
-1.78453e-11
-7.37999e-12
-1.68188e-11
-8.0636e-12
-1.56983e-11
-8.69426e-12
-1.44908e-11
-9.26855e-12
-1.32047e-11
-9.78245e-12
-1.18495e-11
-1.02307e-11
-1.04346e-11
-1.06117e-11
-8.97001e-12
-1.09227e-11
-7.46558e-12
-1.11614e-11
-5.93134e-12
-1.13288e-11
-4.37722e-12
-1.14248e-11
-2.81296e-12
-1.14491e-11
-1.24809e-12
-1.14049e-11
3.08613e-13
-1.12955e-11
1.84489e-12
-1.11202e-11
3.36324e-12
-1.08965e-11
4.8471e-12
-1.06201e-11
6.29286e-12
-1.02982e-11
7.69654e-12
-9.94239e-12
9.05538e-12
-9.55857e-12
1.03627e-11
-9.14864e-12
1.16153e-11
-8.71979e-12
1.28118e-11
-8.27681e-12
1.39486e-11
-7.81873e-12
1.50289e-11
-7.35097e-12
1.60432e-11
-6.86061e-12
1.69937e-11
-6.35583e-12
1.78749e-11
-5.82135e-12
1.86823e-11
-5.25769e-12
1.94111e-11
-4.65294e-12
2.00538e-11
-3.99901e-12
2.06017e-11
-3.28816e-12
2.10433e-11
-2.51223e-12
2.13666e-11
-1.65936e-12
2.15582e-11
-7.24586e-13
2.16043e-11
3.01033e-13
2.14883e-11
1.42321e-12
2.1195e-11
2.6448e-12
2.07074e-11
3.96847e-12
2.00097e-11
5.39272e-12
1.90866e-11
6.91288e-12
1.79231e-11
8.52227e-12
1.65055e-11
1.02106e-11
1.48223e-11
1.19599e-11
1.28647e-11
1.37512e-11
1.06271e-11
1.55606e-11
8.10786e-12
1.73591e-11
5.31014e-12
1.911e-11
2.24498e-12
2.07709e-11
-1.07418e-12
2.22829e-11
-4.60376e-12
2.36359e-11
-8.29795e-12
2.4517e-11
-1.20139e-11
2.47611e-11
-1.53786e-11
2.23895e-11
1.43903e-11
-1.74306e-11
-4.26856e-13
3.36171e-12
-1.06498e-12
5.09989e-12
-1.77317e-12
5.73313e-12
-2.50158e-12
5.92139e-12
-3.23563e-12
5.93691e-12
-3.96993e-12
5.91267e-12
-4.70174e-12
5.87727e-12
-5.42973e-12
5.83502e-12
-6.15242e-12
5.78575e-12
-6.86857e-12
5.7306e-12
-7.57744e-12
5.67115e-12
-8.27826e-12
5.60873e-12
-8.97022e-12
5.54476e-12
-9.65374e-12
5.48218e-12
-1.033e-11
5.4233e-12
-1.10002e-11
5.37074e-12
-1.16659e-11
5.32732e-12
-1.23288e-11
5.29206e-12
-1.29904e-11
5.26414e-12
-1.36518e-11
5.24281e-12
-1.43146e-11
5.22327e-12
-1.4979e-11
5.20041e-12
-1.56444e-11
5.16818e-12
-1.63102e-11
5.11902e-12
-1.69736e-11
5.04432e-12
-1.76307e-11
4.93565e-12
-1.82774e-11
4.78545e-12
-1.89065e-11
4.58414e-12
-1.95116e-11
4.3265e-12
-2.00838e-11
4.00409e-12
-2.06138e-11
3.61338e-12
-2.1092e-11
3.1498e-12
-2.15084e-11
2.61229e-12
-2.18533e-11
2.00134e-12
-2.21173e-11
1.32059e-12
-2.22924e-11
5.74431e-13
-2.237e-11
-2.28848e-13
-2.23434e-11
-1.08153e-12
-2.22073e-11
-1.9722e-12
-2.19568e-11
-2.88977e-12
-2.15893e-11
-3.82409e-12
-2.11048e-11
-4.76246e-12
-2.05033e-11
-5.6913e-12
-1.97863e-11
-6.60313e-12
-1.89573e-11
-7.48126e-12
-1.80203e-11
-8.31757e-12
-1.69814e-11
-9.10316e-12
-1.58468e-11
-9.82933e-12
-1.46238e-11
-1.0492e-11
-1.33214e-11
-1.10853e-11
-1.19488e-11
-1.16037e-11
-1.05158e-11
-1.20451e-11
-9.03267e-12
-1.24062e-11
-7.50966e-12
-1.26847e-11
-5.9569e-12
-1.28819e-11
-4.38455e-12
-1.29975e-11
-2.80267e-12
-1.30313e-11
-1.22107e-12
-1.29868e-11
3.51832e-13
-1.28687e-11
1.90519e-12
-1.26738e-11
3.43424e-12
-1.24257e-11
4.92884e-12
-1.21149e-11
6.38506e-12
-1.17546e-11
7.79949e-12
-1.13569e-11
9.16384e-12
-1.0923e-11
1.04769e-11
-1.04618e-11
1.17356e-11
-9.97852e-12
1.29382e-11
-9.47946e-12
1.40823e-11
-8.96279e-12
1.51637e-11
-8.43231e-12
1.6187e-11
-7.88389e-12
1.71427e-11
-7.31144e-12
1.80345e-11
-6.71302e-12
1.88535e-11
-6.07673e-12
1.95943e-11
-5.39376e-12
2.02535e-11
-4.65829e-12
2.08188e-11
-3.85352e-12
2.12802e-11
-2.97372e-12
2.16251e-11
-2.00434e-12
2.18402e-11
-9.3974e-13
2.19105e-11
2.30639e-13
2.18197e-11
1.51386e-12
2.15511e-11
2.91335e-12
2.10894e-11
4.43002e-12
2.04163e-11
6.06576e-12
1.95153e-11
7.81371e-12
1.83708e-11
9.66674e-12
1.69696e-11
1.16117e-11
1.52977e-11
1.36318e-11
1.33449e-11
1.5704e-11
1.11044e-11
1.78011e-11
8.57289e-12
1.98905e-11
5.75246e-12
2.19303e-11
2.65054e-12
2.38727e-11
-7.22029e-13
2.56552e-11
-4.31588e-12
2.72295e-11
-8.0959e-12
2.82968e-11
-1.19221e-11
2.85871e-11
-1.53926e-11
2.58597e-11
1.64944e-11
-1.74968e-11
-4.28089e-13
3.78957e-12
-1.06798e-12
5.73935e-12
-1.77801e-12
6.44276e-12
-2.50766e-12
6.65061e-12
-3.24299e-12
6.6718e-12
-3.97889e-12
6.64811e-12
-4.7124e-12
6.61031e-12
-5.44201e-12
6.56413e-12
-6.16626e-12
6.50947e-12
-6.88365e-12
6.44747e-12
-7.59308e-12
6.38002e-12
-8.2939e-12
6.30898e-12
-8.9854e-12
6.23568e-12
-9.66777e-12
6.16396e-12
-1.03424e-11
6.09732e-12
-1.10111e-11
6.03874e-12
-1.16749e-11
5.99048e-12
-1.23357e-11
5.95217e-12
-1.2996e-11
5.92378e-12
-1.3657e-11
5.90317e-12
-1.43202e-11
5.88573e-12
-1.4987e-11
5.86656e-12
-1.56569e-11
5.83731e-12
-1.63288e-11
5.7903e-12
-1.70009e-11
5.71572e-12
-1.7669e-11
5.60301e-12
-1.83283e-11
5.44403e-12
-1.89728e-11
5.22784e-12
-1.95938e-11
4.94676e-12
-2.01836e-11
4.59304e-12
-2.07316e-11
4.16047e-12
-2.1228e-11
3.64545e-12
-2.16621e-11
3.04557e-12
-2.20246e-11
2.36297e-12
-2.23047e-11
1.59994e-12
-2.24938e-11
7.62833e-13
-2.2584e-11
-1.39479e-13
-2.2567e-11
-1.09919e-12
-2.24373e-11
-2.10266e-12
-2.2191e-11
-3.13677e-12
-2.18253e-11
-4.19061e-12
-2.13394e-11
-5.24909e-12
-2.07328e-11
-6.29862e-12
-2.00081e-11
-7.32852e-12
-1.91687e-11
-8.32146e-12
-1.82191e-11
-9.26784e-12
-1.71655e-11
-1.01573e-11
-1.60146e-11
-1.09808e-11
-1.47741e-11
-1.1733e-11
-1.34529e-11
-1.24069e-11
-1.20607e-11
-1.29963e-11
-1.06076e-11
-1.34985e-11
-9.10419e-12
-1.391e-11
-7.56049e-12
-1.42287e-11
-5.98708e-12
-1.44556e-11
-4.39468e-12
-1.45902e-11
-2.79352e-12
-1.46328e-11
-1.19362e-12
-1.4587e-11
3.94635e-13
-1.44573e-11
1.9666e-12
-1.42461e-11
3.50916e-12
-1.39686e-11
5.01385e-12
-1.36198e-11
6.48377e-12
-1.32248e-11
7.90554e-12
-1.2779e-11
9.27555e-12
-1.22933e-11
1.05919e-11
-1.17783e-11
1.1856e-11
-1.12429e-11
1.30636e-11
-1.06872e-11
1.42147e-11
-1.01139e-11
1.5305e-11
-9.52274e-12
1.6333e-11
-8.91197e-12
1.72992e-11
-8.27763e-12
1.81989e-11
-7.61277e-12
1.90291e-11
-6.90702e-12
1.97874e-11
-6.15212e-12
2.04628e-11
-5.33374e-12
2.10479e-11
-4.43878e-12
2.15319e-11
-3.45776e-12
2.19021e-11
-2.37465e-12
2.21441e-11
-1.18188e-12
2.22424e-11
1.3228e-13
2.2181e-11
1.57513e-12
2.19431e-11
3.15117e-12
2.15102e-11
4.86282e-12
2.08654e-11
6.71049e-12
1.99905e-11
8.68852e-12
1.88693e-11
1.07879e-11
1.74865e-11
1.29944e-11
1.58279e-11
1.52903e-11
1.38816e-11
1.76502e-11
1.16386e-11
2.00439e-11
9.0945e-12
2.24343e-11
6.24884e-12
2.47756e-11
3.10602e-12
2.70151e-11
-3.27927e-13
2.90888e-11
-3.99638e-12
3.08976e-11
-7.8792e-12
3.21793e-11
-1.18385e-11
3.25461e-11
-1.54448e-11
2.94659e-11
1.86731e-11
-1.76237e-11
-4.28772e-13
4.21811e-12
-1.06958e-12
6.37975e-12
-1.78153e-12
7.15433e-12
-2.51321e-12
7.38189e-12
-3.2504e-12
7.40859e-12
-3.98829e-12
7.38558e-12
-4.72394e-12
7.34552e-12
-5.45551e-12
7.29526e-12
-6.1815e-12
7.235e-12
-6.90046e-12
7.16597e-12
-7.61079e-12
7.08988e-12
-8.31156e-12
7.00927e-12
-9.00243e-12
6.92606e-12
-9.6838e-12
6.84481e-12
-1.03567e-11
6.76966e-12
-1.10231e-11
6.70457e-12
-1.16847e-11
6.65153e-12
-1.23431e-11
6.60996e-12
-1.30013e-11
6.58139e-12
-1.36617e-11
6.56291e-12
-1.43254e-11
6.54879e-12
-1.49942e-11
6.53479e-12
-1.56688e-11
6.51122e-12
-1.63477e-11
6.46858e-12
-1.7029e-11
6.39628e-12
-1.77095e-11
6.28285e-12
-1.83831e-11
6.11688e-12
-1.90443e-11
5.88835e-12
-1.9684e-11
5.58565e-12
-2.02934e-11
5.20159e-12
-2.0862e-11
4.72822e-12
-2.13792e-11
4.16182e-12
-2.18341e-11
3.49964e-12
-2.22162e-11
2.74425e-12
-2.2515e-11
1.89796e-12
-2.27206e-11
9.67582e-13
-2.28246e-11
-3.62684e-14
-2.28189e-11
-1.10565e-12
-2.26976e-11
-2.22472e-12
-2.24553e-11
-3.37979e-12
-2.20905e-11
-4.55625e-12
-2.16024e-11
-5.73796e-12
-2.09904e-11
-6.91143e-12
-2.02571e-11
-8.06254e-12
-1.94061e-11
-9.17324e-12
-1.84425e-11
-1.02321e-11
-1.73727e-11
-1.12277e-11
-1.62036e-11
-1.21504e-11
-1.49433e-11
-1.29938e-11
-1.36014e-11
-1.37493e-11
-1.21876e-11
-1.44104e-11
-1.07125e-11
-1.4974e-11
-9.18643e-12
-1.54365e-11
-7.61976e-12
-1.57958e-11
-6.02361e-12
-1.60522e-11
-4.40889e-12
-1.62054e-11
-2.7861e-12
-1.6256e-11
-1.16587e-12
-1.62076e-11
4.40327e-13
-1.60639e-11
2.03042e-12
-1.58366e-11
3.58348e-12
-1.5522e-11
5.10908e-12
-1.51458e-11
6.58742e-12
-1.47036e-11
8.01361e-12
-1.42056e-11
9.39442e-12
-1.36745e-11
1.07196e-11
-1.31039e-11
1.19885e-11
-1.25121e-11
1.32005e-11
-1.18995e-11
1.43536e-11
-1.12673e-11
1.54475e-11
-1.06169e-11
1.64843e-11
-9.94894e-12
1.74593e-11
-9.25279e-12
1.83711e-11
-8.52469e-12
1.92159e-11
-7.752e-12
1.9989e-11
-6.92528e-12
2.06834e-11
-6.02828e-12
2.12912e-11
-5.04681e-12
2.18007e-11
-3.9673e-12
2.21993e-11
-2.77347e-12
2.24725e-11
-1.45524e-12
2.26043e-11
3.03423e-16
2.25779e-11
1.60136e-12
2.23738e-11
3.35513e-12
2.19754e-11
5.26101e-12
2.13641e-11
7.32172e-12
2.05198e-11
9.53269e-12
1.94253e-11
1.18822e-11
1.80649e-11
1.43548e-11
1.64221e-11
1.6933e-11
1.44838e-11
1.95882e-11
1.22392e-11
2.22882e-11
9.68191e-12
2.49911e-11
6.80916e-12
2.76479e-11
3.62397e-12
3.01998e-11
1.37736e-13
3.25746e-11
-3.63077e-12
3.46657e-11
-7.6333e-12
3.61816e-11
-1.17453e-11
3.66579e-11
-1.55166e-11
3.3237e-11
2.09526e-11
-1.77964e-11
-4.29005e-13
4.64689e-12
-1.0702e-12
7.02056e-12
-1.78403e-12
7.86781e-12
-2.51835e-12
8.11585e-12
-3.2579e-12
8.14777e-12
-3.99812e-12
8.12543e-12
-4.73632e-12
8.08333e-12
-5.47045e-12
8.02901e-12
-6.19862e-12
7.96277e-12
-6.91935e-12
7.8863e-12
-7.63087e-12
7.801e-12
-8.33183e-12
7.70982e-12
-9.02192e-12
7.61574e-12
-9.70212e-12
7.52457e-12
-1.03732e-11
7.44029e-12
-1.10368e-11
7.36764e-12
-1.16953e-11
7.30957e-12
-1.2351e-11
7.26515e-12
-1.30067e-11
7.23653e-12
-1.36656e-11
7.2212e-12
-1.43298e-11
7.21246e-12
-1.50008e-11
7.20523e-12
-1.568e-11
7.18974e-12
-1.63666e-11
7.15462e-12
-1.7058e-11
7.087e-12
-1.77516e-11
6.97589e-12
-1.84416e-11
6.80617e-12
-1.91211e-11
6.56707e-12
-1.97817e-11
6.24556e-12
-2.04131e-11
5.83218e-12
-2.1005e-11
5.31932e-12
-2.15456e-11
4.70167e-12
-2.20239e-11
3.97712e-12
-2.24286e-11
3.14813e-12
-2.27482e-11
2.21676e-12
-2.29727e-11
1.19128e-12
-2.30926e-11
8.28095e-14
-2.30995e-11
-1.09957e-12
-2.29872e-11
-2.33778e-12
-2.27504e-11
-3.61739e-12
-2.2387e-11
-4.92047e-12
-2.1896e-11
-6.22975e-12
-2.12774e-11
-7.53083e-12
-2.05345e-11
-8.80613e-12
-1.96708e-11
-1.00377e-11
-1.86915e-11
-1.12121e-11
-1.76035e-11
-1.23163e-11
-1.64141e-11
-1.33405e-11
-1.51322e-11
-1.42762e-11
-1.37674e-11
-1.51145e-11
-1.23296e-11
-1.58487e-11
-1.08296e-11
-1.64745e-11
-9.27818e-12
-1.69883e-11
-7.6861e-12
-1.73884e-11
-6.0644e-12
-1.76743e-11
-4.42458e-12
-1.78456e-11
-2.77758e-12
-1.79035e-11
-1.13395e-12
-1.78517e-11
4.97398e-13
-1.76957e-11
2.10358e-12
-1.74433e-11
3.67949e-12
-1.70984e-11
5.21642e-12
-1.66833e-11
6.70328e-12
-1.61909e-11
8.14911e-12
-1.56519e-11
9.53721e-12
-1.50631e-11
1.08681e-11
-1.44352e-11
1.21421e-11
-1.37865e-11
1.3358e-11
-1.31157e-11
1.45167e-11
-1.24264e-11
1.56174e-11
-1.17178e-11
1.66592e-11
-1.09911e-11
1.76417e-11
-1.02355e-11
1.85649e-11