/*--------------------------------*- C++ -*----------------------------------*\
| =========                 |                                                 |
| \\      /  F ield         | OpenFOAM: The Open Source CFD Toolbox           |
|  \\    /   O peration     | Version:  2.4.0                                 |
|   \\  /    A nd           | Web:      www.OpenFOAM.org                      |
|    \\/     M anipulation  |                                                 |
\*---------------------------------------------------------------------------*/
FoamFile
{
    version     2.0;
    format      ascii;
    class       volScalarField;
    location    "0.192";
    object      alpha.water;
}
// * * * * * * * * * * * * * * * * * * * * * * * * * * * * * * * * * * * * * //

dimensions      [0 0 0 0 0 0 0];

internalField   nonuniform List<scalar> 
6500
(
0.993791
0.97023
0.955577
0.951487
0.918259
0.896771
0.779342
0.568656
0.301504
0.0870746
0.070578
0.0326141
0.00210433
0.000788708
0.00577428
0.0116776
0.00797208
0.000400191
0.00560347
0.0120339
0.0129274
0.0198995
0.0287744
0.00382461
1.23955e-12
0.00011554
0.000971074
0.0174304
0.0462604
0.0231071
0.00332403
0.000509688
0.00126533
0.00128782
0.000404071
2.00526e-12
0.00607739
0.0312849
0.0328515
0.014445
0.000353918
-9.18936e-09
-2.74913e-09
9.19411e-06
1.02976e-05
2.55917e-06
1.17775e-07
3.28529e-07
3.93976e-07
1.22306e-07
0.994607
0.991719
0.998037
0.99968
0.999681
0.999681
0.998875
0.245548
0.0880674
0.0597307
0.1456
0.1456
0.0197879
0.00107739
0.0105798
0.0147496
0.014324
0.00737396
0.00520995
0.0165095
0.0248679
0.032558
0.0347412
0.0347566
0.00530552
0.000168395
0.00455532
0.072763
0.0910511
0.0706583
0.00985314
0.000644158
0.00105485
0.00129245
0.000937505
3.44269e-05
1.89767e-05
0.00576843
0.0680301
0.0397819
0.0014218
6.36408e-06
1.4246e-06
1.24816e-05
1.12618e-05
1.11361e-06
1.95641e-07
2.09444e-07
4.11363e-07
1.02359e-06
0.997105
0.99771
0.999512
0.999514
0.999169
0.999681
0.993971
0.514919
0.13533
0.0544369
0.145575
0.0839207
0.0670662
0.00500142
0.0110208
0.0147496
0.0130529
0.0101427
0.00518699
0.00518448
0.00518622
0.00518451
0.0331402
0.0354148
0.0307458
0.00134554
0.000457162
0.053135
0.0916249
0.0916215
0.0334464
0.000205225
6.35091e-05
5.33752e-05
1.90726e-05
1.8984e-05
1.90568e-05
0.0483062
0.0702728
0.0644502
0.00871039
3.10156e-05
1.09191e-05
1.0064e-05
6.38831e-06
3.48377e-07
2.13312e-07
1.87316e-05
0.000161511
4.97952e-05
0.999222
0.999219
0.995098
0.986731
0.999639
0.999668
0.995422
0.96905
0.510222
0.0650935
0.0484798
0.0165273
0.0658169
0.00523199
0.0184622
0.0061309
0.0259533
0.0202484
0.00802708
0.00519342
0.00518448
0.00518785
0.0267089
0.0347809
0.0141611
0.000482694
0.000432756
0.0408986
0.0916215
0.0916249
0.0551574
0.000391317
6.07695e-05
6.004e-05
2.30491e-05
1.90726e-05
1.90149e-05
0.0607937
0.0706455
0.0707526
0.018691
3.36629e-05
2.47318e-06
1.12556e-06
8.5168e-07
2.72923e-07
2.31432e-07
7.31652e-05
0.000254808
9.22803e-05
0.999222
0.99698
0.980447
0.980447
0.995579
0.999199
0.999198
0.961842
0.367
0.0184833
0.0166946
0.0164757
0.0645098
0.0605474
0.0324133
0.00318178
0.0229956
0.0263457
0.0263457
0.0156583
0.00538306
0.024654
0.0259113
0.0352308
0.0136735
0.00308238
0.000407344
0.0219648
0.090634
0.0916215
0.0341403
7.84146e-05
9.60709e-05
8.2013e-05
2.18364e-05
1.92962e-05
1.92582e-05
0.0625559
0.0707522
0.0707541
0.0209378
2.46825e-05
1.22672e-06
3.32805e-07
2.77904e-07
2.77048e-07
3.2763e-07
2.76981e-07
3.3308e-06
0.000204201
0.999222
0.995088
0.980448
0.992676
0.983373
0.994033
0.999124
0.960748
0.468055
0.0481823
0.0943328
0.0292744
0.0568678
0.058677
0.0179048
0.00305562
0.00344262
0.0225169
0.0238348
0.005702
0.00811387
0.0645114
0.0645989
0.0635524
0.045522
0.00151141
0.000407344
0.0064287
0.0852958
0.0842383
0.0224767
5.02131e-05
3.77257e-05
2.5876e-05
2.02272e-05
1.94819e-05
1.95812e-05
0.064851
0.0707561
0.070789
0.0161504
1.01352e-05
7.47245e-07
2.92535e-07
2.74495e-07
2.75742e-07
3.23875e-07
2.76192e-07
2.76982e-07
2.90075e-07
0.999186
0.990497
0.992033
0.998779
0.992709
0.992187
0.99909
0.960438
0.408362
0.0399783
0.140243
0.110157
0.017156
0.0164782
0.00348821
0.00305212
0.00471095
0.0174014
0.00678289
0.00421369
0.00401526
0.055923
0.064694
0.0646993
0.0514403
0.00226649
0.000407344
0.0016606
0.0806618
0.0876801
0.0276739
7.13535e-05
6.20705e-05
4.11612e-05
2.24564e-05
1.95814e-05
2.10859e-05
0.0577825
0.0705818
0.070804
0.00586049
2.09907e-06
3.60438e-07
2.7329e-07
2.74978e-07
2.7396e-07
2.74916e-07
2.7596e-07
2.68547e-07
0.00339186
0.99918
0.989978
0.998781
0.998781
0.998779
0.998776
0.95541
0.96001
0.58793
0.0536761
0.140245
0.00190271
0.00334325
0.00306092
0.0030468
0.00305222
0.0306432
0.053704
0.0234573
0.00609186
0.00187409
0.0212697
0.0646995
0.0646993
0.0235221
0.00148946
0.000797593
0.00641298
0.0876799
0.0876799
0.0262517
8.39545e-05
8.55169e-05
8.26998e-05
3.92857e-05
2.1086e-05
2.70056e-05
0.0420662
0.0701254
0.0512618
2.84586e-06
2.50522e-07
2.85225e-07
2.75879e-07
2.74124e-07
2.73825e-07
2.74874e-07
2.76026e-07
2.89667e-07
0.00268043
0.9941
0.989638
0.99878
0.998779
0.998776
0.985903
0.336449
0.957307
0.565954
0.0529681
0.0440981
0.00180966
0.00762791
0.0030468
0.00304603
0.0030455
0.0545953
0.0549088
0.0413776
0.0107262
0.00180607
0.00473842
0.0647003
0.0646995
0.0159863
0.00223763
0.00476356
0.0140355
0.0823715
0.0876801
0.0171038
8.65945e-05
8.74635e-05
0.000388084
0.00016433
3.92877e-05
3.34862e-05
0.0629622
0.0694571
0.0177535
6.74759e-06
5.54405e-07
2.97215e-07
2.74115e-07
2.73294e-07
2.73639e-07
3.33515e-07
3.0577e-07
1.09152e-06
0.000290984
0.997389
0.989629
0.982094
0.971107
0.981834
0.663312
0.133701
0.90722
0.619684
0.102168
0.00174684
0.0017322
0.0609311
0.00472992
0.0030468
0.0211149
0.0649936
0.0304937
0.0411265
0.010075
0.00173128
0.00855706
0.056044
0.062358
0.0415675
0.00231486
0.00231486
0.019757
0.0615245
0.0876746
0.0171612
9.56897e-05
0.000736926
0.0701613
0.00147047
0.000209701
5.6705e-05
0.0598891
0.0690578
0.00637972
4.57624e-05
4.55062e-06
5.5104e-07
2.82712e-07
2.7239e-07
2.72578e-07
2.80937e-07
2.81859e-07
2.83573e-07
0.0017886
0.998858
0.995289
0.958712
0.948458
0.918665
0.509498
0.133226
0.733758
0.661305
0.148948
0.00259757
0.00169044
0.0598507
0.013992
0.0325399
0.0993195
0.0652622
0.00917027
0.0334072
0.0056234
0.00172757
0.00177045
0.0129279
0.0191116
0.0119259
0.00234141
0.00231486
0.00787591
0.051433
0.0875439
0.0294098
0.000107059
0.0571739
0.135192
0.0568011
0.0217142
0.00613701
0.0147027
0.0435962
0.0104715
0.000118178
1.77399e-05
2.58988e-06
4.99007e-07
2.88577e-07
2.74329e-07
2.80077e-07
2.82565e-07
2.83612e-07
0.00107264
0.998858
0.998858
0.994629
0.994561
0.984966
0.483538
0.125594
0.516912
0.734005
0.230929
0.0184825
0.00111165
0.0113525
0.0874695
0.10082
0.101047
0.0382121
0.00296522
0.0202728
0.0197842
0.00172967
0.00172786
0.0490922
0.0497852
0.0346185
0.00271345
0.00334977
0.027819
0.086524
0.0868158
0.0745063
0.000432625
0.0824861
0.13905
0.140818
0.101248
0.00954023
0.0207264
0.0322168
0.0210546
0.00790423
0.00121556
1.78474e-05
2.33282e-06
7.59131e-06
2.8391e-07
2.81833e-07
2.82573e-07
3.7866e-07
4.51914e-07
0.998858
0.998858
0.998311
0.985268
0.995854
0.271702
0.0880467
0.279726
0.734857
0.269525
0.0806371
0.000903057
0.00104777
0.100873
0.101001
0.101163
0.0393289
0.00209982
0.00963588
0.0197222
0.00384142
0.00377585
0.0497852
0.0498027
0.0498027
0.0369872
0.0159286
0.0114452
0.0501011
0.086575
0.0478246
0.00116082
0.00163316
0.140779
0.140851
0.140818
0.10038
0.120681
0.0873727
0.0547642
0.0185923
0.00217736
7.24436e-05
1.86269e-05
1.87968e-05
2.99489e-05
0.000161205
1.17478e-05
1.19051e-06
9.90371e-07
0.998858
0.997381
0.994299
0.951492
0.995865
0.137227
0.0880467
0.0985884
0.734857
0.453877
0.011817
0.000876928
0.00324574
0.101011
0.101231
0.101346
0.0188987
0.00113541
0.00173028
0.0195859
0.00438036
0.0167848
0.0426872
0.0497852
0.0498027
0.0209878
0.0114556
0.0114587
0.0341985
0.0728361
0.0148172
0.00201803
0.00227513
0.0595851
0.140091
0.140851
0.140602
0.139927
0.138859
0.120161
0.060032
0.00984079
0.000191576
4.60379e-05
2.7239e-05
0.00037802
0.000548336
9.51943e-05
1.01159e-05
2.98761e-05
0.998857
0.995922
0.99072
0.951416
0.995839
0.16719
0.0880467
0.229384
0.734857
0.547873
0.000552541
0.000550312
0.00243127
0.100974
0.101001
0.0659289
0.00851454
0.000852512
0.000724037
0.00683426
0.00464595
0.0039426
0.0311387
0.0497433
0.0261856
0.0114507
0.0114411
0.0114411
0.0321196
0.0300567
0.0106235
0.00926101
0.00658324
0.0068831
0.144352
0.140831
0.140495
0.140323
0.139821
0.13896
0.138211
0.0566061
0.00137858
7.79966e-05
4.61741e-05
0.000515226
0.000572427
0.000590821
1.89139e-05
5.15797e-05
0.998858
0.993167
0.987446
0.961582
0.995322
0.178366
0.0884975
0.709205
0.72074
0.438693
0.00113395
0.000549298
0.0206257
0.101031
0.100974
0.0460561
0.00389622
0.000730941
0.000698083
0.000716369
0.00303483
0.00322027
0.0188356
0.0470617
0.0117601
0.011518
0.0114507
0.0168637
0.0179114
0.0193417
0.0241024
0.0205281
0.0128982
0.0119776
0.144482
0.14132
0.131484
0.135015
0.138131
0.138842
0.138644
0.0697879
0.00463202
0.000142655
7.82746e-05
0.000180898
0.000591366
0.000623155
0.000535686
9.36953e-05
0.980882
0.978731
0.985968
0.985929
0.876773
0.183424
0.167869
0.711195
0.510228
0.503239
0.000549298
0.000549141
0.0173083
0.0925322
0.100886
0.0196998
0.000868148
0.000741863
0.000744593
0.000735211
0.00382992
0.0060701
0.0275503
0.0317821
0.0466552
0.011691
0.011518
0.0472385
0.0193266
0.0205195
0.0241024
0.0180641
0.0150674
0.0150536
0.0488315
0.143248
0.124625
0.123583
0.13871
0.138631
0.078826
0.00968381
0.0122001
0.00447179
0.000146917
0.00020714
0.000241079
0.000644655
0.000645521
0.00033941
0.985148
0.97603
0.976077
0.985155
0.689611
0.558261
0.446021
0.347414
0.510858
0.469782
0.00254941
0.000547366
0.000550107
0.0258679
0.0439968
0.0022165
0.000846976
0.00086502
0.000725576
0.000738288
0.00516043
0.00739617
0.033678
0.0162937
0.0597376
0.0146725
0.0426119
0.0637695
0.057457
0.0491434
0.0134289
0.0119453
0.0119453
0.0119453
0.0119887
0.141433
0.128623
0.134828
0.140168
0.112284
0.0354159
0.00400541
0.00432386
0.00479381
0.000783195
0.000235954
0.000268743
0.000627058
0.00065258
0.000646591
0.994535
0.978846
0.972572
0.968175
0.610277
0.637113
0.223323
0.158229
0.498206
0.190509
0.00377946
0.00054078
0.000548538
0.000551257
0.000723467
0.00888499
0.00313524
0.000849694
0.000725576
0.000728056
0.00510091
0.00396372
0.0246544
0.0137868
0.0597415
0.0183201
0.05514
0.0640134
0.0643218
0.06435
0.0124079
0.0120451
0.0134359
0.0119887
0.0122825
0.137793
0.139415
0.139035
0.139615
0.116566
0.0338278
0.00109352
0.00367022
0.00168252
0.000300023
0.000279416
0.000430375
0.00065258
0.000654496
0.000653651
0.999524
0.994014
0.97591
0.989531
0.628861
0.570714
0.0495765
0.174914
0.355082
0.10663
0.0026198
0.000532259
0.000540987
0.000646729
0.019571
0.022754
0.0056321
0.000750701
0.000725576
0.000738315
0.00500807
0.00279227
0.0131559
0.0130636
0.0570979
0.0182654
0.0575366
0.064371
0.06435
0.0644004
0.0386352
0.0121434
0.0162287
0.0123091
0.0314615
0.100763
0.138988
0.139063
0.13914
0.073492
0.00652095
0.000470567
0.00396383
0.00364351
0.000564993
0.000349313
0.000655081
0.000653651
0.000653651
0.000654151
2.82205e-07
3.05647e-08
9.91925e-13
6.97801e-07
5.3526e-06
5.14856e-06
2.58783e-07
3.09471e-11
1.78198e-08
1.02451e-08
1.71456e-11
1.38604e-11
0.242141
0.880157
0.925979
0.919864
0.849093
0.254025
5.38303e-13
1.12411e-11
7.82823e-06
8.56948e-12
1.50754e-13
8.87327e-05
0.000209902
6.54078e-05
3.56657e-06
0.000782174
0.00163152
0.00525611
0.00542792
0.00173464
0.00671926
0.0164437
0.00781757
0.00209092
2.7185e-12
0.0271633
0.0312346
0.0559399
0.04682
0.0573484
0.0283217
0.0502545
0.601897
0.919376
0.98671
0.996907
0.999663
0.999933
3.42718e-06
4.86859e-07
5.37351e-06
3.32764e-06
5.91764e-06
1.54185e-06
4.07742e-10
2.33405e-09
2.64124e-07
2.88222e-06
5.36882e-08
0.0327656
0.626273
0.920094
0.99111
0.999851
0.70528
0.165395
0.00233965
0.000323979
0.0081753
0.0069084
0.000737079
0.000364337
0.000300891
6.49158e-05
0.000636289
0.00526197
0.0080591
0.00811785
0.0081214
0.00175143
0.0102427
0.0632378
0.0192563
0.0315147
0.0112807
0.0649708
0.0894348
0.0896908
0.0889262
0.0881327
0.0351225
0.0338913
0.0753849
0.598154
0.993776
0.999803
0.999605
0.999892
3.41785e-06
0.000170649
0.000260829
6.01584e-05
5.5036e-06
5.32353e-06
4.4445e-10
2.30103e-07
2.30257e-07
2.85414e-07
1.03554e-07
0.160842
0.733206
0.984992
0.999941
0.999942
0.951306
0.446239
0.0326747
0.00442711
0.0101103
0.00749978
0.000258706
0.000104259
5.31795e-05
5.31505e-05
0.000635083
0.00568492
0.00810869
0.00812368
0.0081214
0.0020642
0.0167043
0.0643271
0.0353136
0.0314869
0.0921123
0.0965347
0.0965343
0.0851969
0.0219005
0.0776246
0.0266146
0.0194821
0.0255657
0.570983
0.999509
0.999798
0.999832
0.999939
4.12472e-06
7.13587e-05
0.000130462
3.71484e-05
5.74689e-06
2.53798e-05
4.71709e-07
2.96336e-07
1.21197e-06
1.63329e-06
1.05448e-07
0.185213
0.825982
0.999941
0.999942
0.999943
0.997022
0.646245
0.0514813
0.00717239
0.0122798
0.00923154
0.000682872
5.31756e-05
5.31474e-05
5.31531e-05
0.00115104
0.00440306
0.00438455
0.00620168
0.00812211
0.00579592
0.0133608
0.064566
0.064566
0.0239369
0.0962216
0.0963629
0.0965343
0.0359698
0.0175788
0.0455689
0.21951
0.0369876
0.0216094
0.719547
0.999603
0.986475
0.998647
0.999939
4.55734e-06
5.56065e-06
6.18008e-06
7.22905e-06
8.73048e-06
1.48406e-05
3.51289e-07
2.19751e-07
2.1163e-06
8.23675e-07
1.10961e-07
0.227975
0.905564
0.999931
0.999899
0.999943
0.999964
0.842614
0.101101
0.0102434
0.0216491
0.0135415
5.42128e-05
5.33697e-05
5.31795e-05
5.31531e-05
0.00105319
0.0105978
0.00397076
0.00397933
0.00425156
0.0035076
0.0118881
0.0436576
0.0645691
0.0235759
0.0819564
0.046143
0.0631312
0.0172691
0.0115756
0.022655
0.25198
0.062452
0.0215887
0.835803
0.986137
0.978267
0.993066
0.999899
0.00330161
0.0121949
0.00862724
7.60035e-06
1.01681e-05
1.6656e-06
2.19772e-07
2.19749e-07
2.19786e-07
2.21085e-07
4.8137e-07
0.196016
0.927051
0.999963
0.999859
0.999939
0.999964
0.889582
0.12387
0.0105807
0.0216495
0.0198395
5.64e-05
5.41786e-05
5.63509e-05
6.78097e-05
7.77539e-05
0.017437
0.00720483
0.00396933
0.00641201
0.00350518
0.0330716
0.0331679
0.0645614
0.0235595
0.0244635
0.0433102
0.0649019
0.0115145
0.0115098
0.0162451
0.240247
0.0776672
0.0216312
0.910939
0.979503
0.981793
0.989224
0.999768
0.0212672
0.048864
0.0478354
0.0143722
2.65747e-07
2.65215e-07
2.22936e-07
2.1979e-07
1.08553e-06
1.62103e-05
1.21874e-06
0.180536
0.956028
0.999964
0.999898
0.999964
0.999964
0.924588
0.132949
0.00644122
0.0199926
0.0201663
0.00213648
7.40466e-05
9.49847e-05
9.77147e-05
0.0126288
0.0174372
0.0174373
0.00530192
0.00639713
0.00351871
0.0356525
0.0503689
0.063549
0.0405695
0.0261214
0.14713
0.146416
0.0115099
0.014833
0.0333695
0.0216105
0.0491062
0.0224001
0.954661
0.994373
0.993734
0.988934
0.999378
0.0478891
0.0487736
0.0487676
0.0335214
2.84984e-07
4.44003e-07
3.89882e-06
6.07599e-06
1.75724e-05
2.57302e-05
1.57987e-06
0.123317
0.944355
0.999964
0.999964
0.999964
0.999964
0.928734
0.125057
0.00354294
0.00815365
0.0119303
0.0266959
0.0128466
0.000120646
0.000370403
0.00899234
0.017437
0.0174236
0.00484993
0.00581747
0.00402958
0.0379377
0.0576805
0.0105496
0.0568114
0.0306869
0.148388
0.14831
0.0119674
0.0447745
0.0446874
0.0201695
0.0318514
0.0225382
0.948346
0.994374
0.962048
0.98752
0.999097
0.0487263
0.0487838
0.0487517
0.0353648
3.01506e-07
5.21001e-07
1.39549e-05
1.94658e-05
1.94748e-05
1.71016e-05
1.60411e-06
0.0934804
0.918754
0.999964
0.999964
0.999964
0.999964
0.925377
0.107807
0.00347712
0.00353838
0.00802203
0.0271263
0.0271337
0.000410508
0.000408144
0.000597765
0.0174234
0.0173489
0.00450264
0.00450172
0.0133655
0.0508343
0.0369604
0.00316775
0.0569327
0.0413775
0.148388
0.148388
0.0121177
0.0448345
0.0212739
0.0255233
0.142546
0.0226666
0.978434
0.994359
0.944144
0.983679
0.998695
0.0472984
0.0489513
0.0489108
0.0471445
0.000724778
6.80552e-07
2.0856e-06
1.25809e-05
6.67701e-06
7.01676e-06
7.84844e-06
0.0520461
0.84714
0.999964
0.999964
0.999964
0.999964
0.915484
0.0892232
0.00338172
0.00347705
0.0119532
0.0271378
0.0271263
0.0129298
0.000434671
0.00157184
0.00711851
0.0133574
0.00450116
0.00450264
0.00788208
0.0510429
0.00316775
0.00316775
0.0568101
0.0232852
0.148332
0.0785824
0.0380337
0.021782
0.0198525
0.250426
0.183548
0.0229605
0.984016
0.962212
0.944144
0.974164
0.998691
0.044336
0.049017
0.0490277
0.0491406
0.00781277
7.02193e-07
2.13029e-07
2.02829e-07
2.13196e-07
6.3386e-07
1.44429e-05
0.0299131
0.770069
0.999962
0.999964
0.999964
0.999964
0.882147
0.065729
0.00327789
0.00339301
0.0270623
0.0271458
0.027132
0.0212398
0.000465733
0.0166491
0.00459948
0.00455947
0.00450256
0.00451467
0.0353348
0.0510347
0.00396087
0.00316775
0.0167881
0.0164837
0.148228
0.0470092
0.119303
0.00631674
0.0191661
0.273402
0.0610916
0.0235186
0.666985
0.923169
0.969861
0.958441
0.998673
0.0300597
0.0488998
0.0488552
0.0490277
0.0162085
3.03781e-06
1.82832e-07
1.92665e-07
2.0308e-07
4.21592e-07
6.86364e-06
0.0175215
0.627324
0.999042
0.999962
0.999964
0.999964
0.85557
0.0376407
0.0031143
0.0032779
0.0199379
0.0271641
0.0260609
0.0185272
0.0175777
0.0186909
0.00461814
0.0045993
0.0128378
0.00731825
0.035264
0.0149773
0.00319476
0.003174
0.00319016
0.124403
0.14815
0.0469475
0.119495
0.00631674
0.025827
0.273402
0.0611083
0.60176
0.779038
0.968436
0.980818
0.958488
0.992477
0.00737829
0.0488745
0.0488846
0.0488414
0.0211839
4.37221e-06
1.60736e-07
1.83235e-07
1.93765e-07
2.01437e-07
2.43046e-07
0.0126795
0.493294
0.980557
0.999948
0.99969
0.999964
0.807596
0.00167206
0.00301209
0.0032578
0.00629877
0.0271215
0.00513663
0.00438919
0.00872402
0.0186982
0.00603009
0.00836428
0.0338311
0.0346712
0.0350105
0.00467452
0.00321087
0.00317015
0.00334415
0.129497
0.119383
0.047234
0.0783615
0.0333601
0.0336945
0.0999926
0.0604948
0.719471
0.921404
0.980802
0.980859
0.977774
0.996538
6.59729e-05
0.0488745
0.0488638
0.0488838
0.0226991
6.64109e-06
6.13232e-08
1.82807e-07
1.87693e-07
1.96758e-07
2.01304e-07
2.76365e-07
0.409245
0.937328
0.999802
0.988404
0.999963
0.742063
0.00136694
0.00188079
0.0065103
0.00657493
0.0150307
0.00266554
0.00266848
0.00267824
0.0186982
0.00442775
0.0105714
0.0305365
0.028444
0.0298474
0.00809826
0.00317774
0.00330308
0.00326179
0.129491
0.0387627
0.181261
0.174454
0.128014
0.0257038
0.0191537
0.0603837
0.224035
0.953926
0.978234
0.980867
0.988329
0.996538
6.02351e-05
0.0171425
0.0460258
0.048915
0.01509
1.47838e-05
-1.9493e-08
1.83141e-07
1.83124e-07
1.84106e-07
2.09301e-07
8.4516e-07
0.321481
0.822873
0.999312
0.981295
0.989116
0.557286
0.00129153
0.00455375
0.00637066
0.00652186
0.00265631
0.00266207
0.00266555
0.00267208
0.0186982
0.00434463
0.0127255
0.0129767
0.00883441
0.00364431
0.0030954
0.00387983
0.0106141
0.0332065
0.0417483
0.0658549
0.198754
0.198771
0.0214106
0.0188627
0.0176078
0.164855
0.102244
0.978075
0.897291
0.945475
0.961868
0.996538
0.000147321
0.00022328
0.0160678
0.0412262
0.0201023
1.35465e-05
-1.04752e-07
1.82368e-07
1.83133e-07
1.91138e-07
3.41099e-07
4.60592e-06
0.19163
0.843005
0.997036
0.981417
0.959726
0.39319
0.00126155
0.00377953
0.00629264
0.00628346
0.00265428
0.00265824
0.00279471
0.00273708
0.00474579
0.00435816
0.0263031
0.0277229
0.00315132
0.0030954
0.00309406
0.00309271
0.00303168
0.0293411
0.0965399
0.198737
0.198771
0.198771
0.0245507
0.00940535
0.0110138
0.4749
0.101551
0.979687
0.89723
0.99779
0.987809
0.993926
0.000762614
0.000286811
0.00268278
0.0297413
0.0148897
5.53832e-05
1.83086e-07
1.82873e-07
1.83745e-07
2.14133e-07
1.07495e-06
0.000396762
0.138429
0.68126
0.963729
0.981297
0.91856
0.279021
0.00126095
0.0012618
0.00629035
0.00347018
0.00265356
0.00265971
0.00267329
0.00933533
0.0111972
0.00435617
0.0281439
0.0292837
0.00851379
0.00317249
0.00309271
0.00302918
0.00296805
0.00735782
0.198369
0.198473
0.198762
0.198771
0.0284679
0.0078587
0.0082717
0.657333
0.10156
0.979718
0.951257
0.998042
0.998042
0.976926
0.000501486
0.000229378
0.00175825
0.0296565
0.0163547
8.92437e-05
1.84779e-07
1.83658e-07
1.93405e-07
2.26192e-07
1.2167e-06
3.67069e-05
0.0703879
0.610688
0.95406
0.980822
0.865076
0.204211
0.00126155
0.00127607
0.00629049
0.00266206
0.00265154
0.00265805
0.00266476
0.0063442
0.0166708
0.00796237
0.0280706
0.0297946
0.0240266
0.0253001
0.00310195
0.00307453
0.003011
0.0040223
0.189356
0.180167
0.186753
0.0980551
0.00792767
0.0078587
0.0656456
0.658358
0.102384
0.979764
0.969005
0.986964
0.998042
0.976896
0.000238628
0.000180722
0.000185936
0.0254883
0.00766774
0.000209898
1.89604e-07
1.80932e-07
4.26353e-07
1.09619e-05
9.32541e-06
3.19969e-05
0.0408867
0.471376
0.931014
0.970354
0.821255
0.146801
0.0010835
0.00306046
0.00626696
0.00268452
0.00265808
0.00275613
0.00273107
0.00342346
0.016678
0.00486261
0.0167335
0.0300277
0.0341145
0.0342823
0.00797753
0.00310422
0.0031001
0.0031124
0.0823427
0.19739
0.197382
0.0612654
0.0148582
0.00815808
0.301151
0.655763
0.102015
0.979762
0.955445
0.96728
0.99463
0.976896
0.000168101
0.000167061
0.000194006
0.0263133
0.00732995
0.000109403
9.07252e-07
1.89142e-07
1.96014e-07
2.9487e-05
2.27502e-05
0.00038478
0.00495654
0.278168
0.819194
0.935888
0.761134
0.118776
0.000823589
0.000753675
0.00440767
0.00269956
0.0098704
0.0165291
0.0100916
0.00188541
0.0166727
0.00485822
0.00585012
0.0210074
0.0262178
0.0343019
0.0217174
0.00393303
0.00321067
0.00314074
0.00337211
0.197375
0.19739
0.152899
0.0270332
0.01397
0.388022
0.394044
0.102265
0.951643
0.937833
0.956091
0.969004
0.978028
0.999524
0.999524
0.976417
0.990624
0.990625
0.158302
0.0210013
0.209097
0.208025
0.0741831
0.00156304
0.000528379
0.000745498
0.0181059
0.0385077
0.0319765
0.00372409
0.000782079
0.000871514
0.00274339
0.00368716
0.00279227
0.0112754
0.0182347
0.0594738
0.0665736
0.0749693
0.0404069
0.0643218
0.0253718
0.0313099
0.0276178
0.0100356
0.0375867
0.111925
0.100764
0.137547
0.138971
0.139032
0.0573173
0.000470327
0.000198171
0.000973272
0.00359958
0.00237643
0.000284632
0.000190456
0.000477081
0.00051818
0.000424122
0.999524
0.991786
0.992181
0.990424
0.68092
0.00536391
0.00511652
0.0883472
0.170538
0.0236148
0.000529839
0.000529839
0.0142727
0.0384887
0.0384793
0.00425111
0.00151626
0.000786825
0.000788932
0.000825578
0.000854102
0.00414702
0.0033939
0.041734
0.0753196
0.0753753
0.0753727
0.0345377
0.0233959
0.00447229
0.00739843
0.00602138
0.00618811
0.101964
0.136435
0.137256
0.138829
0.138861
0.138986
0.0657076
0.000286019
1.66228e-05
1.44951e-05
0.00215838
0.00236039
0.000392764
9.23392e-06
1.40209e-05
1.52287e-05
7.26948e-06
0.999408
0.990051
0.995479
0.958327
0.229036
0.0139231
0.000483343
0.000534315
0.0797527
0.00943241
0.0192524
0.00058275
0.0227995
0.0384456
0.0199819
0.000194304
0.0011528
0.00136055
0.000782789
0.000782703
0.00640504
0.0069807
0.000995041
0.000262932
0.0718189
0.0753727
0.0753754
0.0141706
0.00444057
0.0044668
0.00447229
0.00448028
0.0345131
0.132595
0.13566
0.137722
0.138525
0.138825
0.104495
0.0117511
1.63582e-05
1.16574e-06
1.3637e-05
0.000149517
0.000628247
0.00016264
3.40624e-06
3.1618e-06
3.77948e-06
4.07974e-06
0.999215
0.990056
0.997722
0.921547
0.0903455
0.000239636
0.00048066
0.00298557
9.83936e-05
0.00169869
0.0488161
0.00024259
0.000242588
0.0302832
0.00155585
9.72426e-05
0.000736306
0.00112597
0.000785127
0.00196959
0.00766681
0.00665527
0.000882487
0.000255323
0.0467072
0.0753434
0.0753727
0.0101837
0.00441664
0.00444172
0.00614442
0.0323042
0.109591
0.130043
0.0823141
0.0782292
0.128635
0.107255
0.0314566
3.53813e-05
1.15998e-06
4.81645e-07
4.14612e-06
1.17221e-06
4.06069e-06
4.02659e-06
2.72989e-06
2.71748e-06
3.17074e-06
3.77927e-06
0.998372
0.998087
0.997873
0.903373
0.0940979
0.000100283
0.000340014
0.000202095
9.58323e-05
0.000932314
0.0606459
0.000242588
0.00083741
0.0185434
0.000548312
9.69509e-05
0.00010086
0.00106391
0.00103612
0.00754024
0.00765558
0.00510536
0.000469099
0.000252351
0.0222832
0.0751382
0.0690539
0.00569316
0.00441533
0.00441686
0.0212191
0.111509
0.111509
0.066591
1.92592e-05
1.56758e-06
0.0214233
0.0178399
0.0022358
1.32041e-06
4.89723e-07
4.7386e-07
3.6974e-07
4.1313e-07
7.13156e-07
2.26197e-06
2.72968e-06
2.72986e-06
2.72987e-06
0.00114617
0.997636
0.99292
0.99647
0.855806
0.0361451
7.56064e-05
8.48123e-05
8.82526e-05
9.25928e-05
9.42542e-05
0.0611297
0.000245717
0.000296932
0.00148698
0.000141955
9.69309e-05
9.69509e-05
0.00262832
0.00231564
0.00745779
0.00483967
0.0022287
0.000252511
0.000253316
0.0121907
0.0693141
0.0565593
0.0125932
0.00441528
0.00441532
0.0656051
0.111022
0.103208
0.00445201
1.56715e-06
1.05386e-07
7.1118e-08
7.01752e-08
7.00828e-08
7.16626e-05
2.61519e-05
3.74005e-07
3.62947e-07
3.65315e-07
3.87864e-07
8.25327e-07
2.06416e-05
0.00103593
0.00218568
0.00256384
0.995201
0.987567
0.995531
0.784775
0.0308006
7.40961e-05
7.56064e-05
0.000556431
0.0013761
9.49472e-05
0.0619094
0.0015833
0.00074596
9.68208e-05
9.67873e-05
9.68926e-05
9.8955e-05
0.00397486
0.00204272
0.00195539
0.00691457
0.00661325
0.000286067
0.000252338
0.00830105
0.0318737
0.0160709
0.0118408
0.00441531
0.00441527
0.0962291
0.0987711
0.0128936
2.519e-06
1.08817e-07
7.1409e-08
7.01831e-08
7.00826e-08
7.00592e-08
2.27954e-05
2.62239e-05
2.62259e-06
3.6222e-07
3.6117e-07
3.62748e-07
1.50641e-06
0.0012855
0.00255053
0.0025516
0.00255752
0.987567
0.987588
0.99313
0.694587
0.00164582
7.40961e-05
7.40961e-05
0.00221628
0.00270589
0.00800047
0.0619266
0.0073348
0.000634771
9.67852e-05
9.67217e-05
9.67884e-05
9.68923e-05
0.00337576
0.00179892
0.00179528
0.00908436
0.00722666
0.000335553
0.000370215
0.0061534
0.000445911
0.00377678
0.0153924
0.00762251
0.027462
0.0737862
0.024858
1.6368e-05
4.67023e-07
6.14661e-08
7.00638e-08
7.00862e-08
7.00515e-08
6.99511e-08
6.99429e-08
1.81448e-05
3.1727e-06
3.60756e-07
3.61164e-07
3.61164e-07
0.000377237
0.00252477
0.00254893
0.0025465
0.00254817
0.990239
0.994858
0.987356
0.537039
0.00359119
0.00014255
0.00136451
0.00221525
0.00103569
0.00449173
0.0461877
0.00259842
9.67636e-05
9.67264e-05
9.67006e-05
9.65513e-05
0.00199251
0.00190068
0.00195235
0.00179892
0.00914729
0.00389951
0.000173867
0.000168889
0.000230317
0.000213581
0.00519135
0.040385
0.0576387
0.0611908
0.0544369
0.0175158
2.42276e-05
1.0411e-06
8.81045e-08
7.06104e-08
7.01504e-08
7.00892e-08
7.00354e-08
6.99622e-08
2.21323e-06
6.41231e-06
1.415e-06
3.61179e-07
3.62725e-07
5.66326e-05
0.00246455
0.00254494
0.00254607
0.00254901
0.994866
0.994863
0.962179
0.118304
0.000128757
0.000128626
0.00177885
0.00166216
0.00103552
0.00241143
0.0357949
0.00128318
9.67093e-05
9.67016e-05
9.6532e-05
9.65285e-05
0.00912342
0.00553032
0.00348457
0.00322248
0.00921306
0.00602169
0.000301386
0.000150774
0.000142417
0.00015255
0.0139532
0.0548741
0.0609428
0.0610745
0.0402774
0.0051847
2.97817e-06
2.32108e-07
1.36145e-07
1.45409e-07
7.2728e-08
7.01317e-08
7.00746e-08
4.53893e-07
4.45305e-06
6.4123e-06
6.41231e-06
6.89495e-07
3.6342e-07
3.7189e-07
0.0011653
0.00254064
0.00214246
0.00100338
0.994859
0.881103
0.791431
0.000498831
0.000280515
7.52871e-05
0.000607947
0.000357773
0.00337278
0.00149219
0.0454139
9.20274e-05
0.000101545
9.66995e-05
9.66822e-05
0.00462827
0.00923379
0.00923379
0.00707605
0.0092138
0.00921392
0.00677125
0.000211957
0.000133226
0.000133764
0.00427663
0.0547225
0.0607178
0.0608517
0.0609925
0.0227885
1.82192e-05
7.43549e-06
7.47105e-06
7.13241e-06
1.70236e-06
7.02842e-08
7.01846e-08
7.01353e-08
1.10526e-06
3.29792e-06
5.663e-06
3.15459e-06
4.06487e-07
3.87374e-07
3.92481e-07
0.000116305
0.000516775
0.000319782
0.000121144
0.698665
0.1386
0.128749
0.00481281
6.61822e-05
6.90481e-05
6.91933e-05
0.00182979
0.00337099
0.0027167
0.0479738
8.82589e-05
8.81599e-05
0.000343651
0.000197143
0.00923331
0.00923224
0.00923378
0.00923226
0.00922311
0.00921392
0.00649303
0.00013288
0.00013274
0.0014191
0.0486568
0.0605943
0.0606481
0.0607178
0.0546815
0.00769977
3.77473e-05
0.000155361
0.000341372
0.000152816
2.1508e-07
8.30066e-08
2.2778e-07
7.62929e-08
3.04203e-07
3.02033e-07
4.38756e-07
2.11389e-07
2.08137e-07
2.97823e-07
4.53587e-07
5.61793e-07
5.40347e-06
4.26363e-05
0.000158642
0.0393633
6.0361e-06
5.91336e-06
5.60504e-06
5.41092e-06
0.000188191
0.00198878
0.00328057
0.0018876
0.00435081
0.0626086
0.00254826
1.47345e-05
0.00130814
0.00532534
0.00923028
0.00923149
0.00923278
0.00457828
0.00921433
0.00921405
0.00545215
0.000109681
0.00021201
0.0352734
0.0604522
0.0604668
0.0605496
0.0606481
0.0184904
2.3436e-05
2.97411e-05
0.000370986
0.000577204
0.000238919
3.23323e-07
3.57116e-07
6.62445e-07
8.72792e-08
7.20358e-08
1.85693e-07
1.89043e-07
2.00612e-07
2.07909e-07
2.08126e-07
2.13728e-07
2.69375e-07
6.38947e-06
0.000140291
0.000183613
6.03591e-05
7.3851e-05
4.67807e-05
0.000106358
5.41092e-06
2.89077e-05
0.00107998
0.0032821
5.99642e-06
0.00276967
0.062408
0.00327042
7.47253e-06
0.00103501
0.00727129
0.00584995
0.00923003
0.00923997
0.000769334
0.00604875
0.00680032
0.0016244
1.02232e-05
0.00406642
0.0602718
0.0603402
0.060434
0.0604807
0.0344648
0.00124142
6.7033e-07
2.13261e-05
0.000560415
0.000577204
0.000564434
6.19431e-05
3.49304e-07
6.85971e-07
2.67306e-07
6.98337e-08
2.97899e-07
1.50704e-06
6.71901e-07
2.07942e-07
2.07811e-07
2.08677e-07
2.2236e-07
4.99813e-07
5.09551e-05
0.000106431
6.01273e-05
0.000182186
6.56153e-05
0.000125849
6.41951e-06
6.45353e-06
5.13684e-05
0.00309632
3.49002e-06
0.00109523
0.0225524
0.0014958
2.53697e-06
2.36851e-06
0.00414772
0.000119728
0.0092238
0.00684199
0.000147228
9.0305e-05
0.00016206
1.02232e-05
9.84327e-06
0.00774186
0.0340389
0.0600973
0.0603478
0.0356634
0.00164063
6.68071e-07
2.84356e-07
2.77978e-07
0.000277
0.000577204
0.000575691
0.000203195
3.0944e-07
3.04634e-07
3.06565e-07
6.94494e-08
6.98214e-08
1.71205e-06
7.5563e-06
6.95481e-06
2.08201e-07
2.08124e-07
2.12169e-07
2.33452e-07
4.25937e-07
2.06467e-06
7.17194e-06
0.000137047
0.000320531
7.99483e-05
9.09969e-06
6.59085e-06
0.000644127
0.00217016
2.92488e-06
0.000191019
0.000811401
0.00195063
7.88558e-05
2.19367e-06
1.05743e-07
0.000118452
0.00626877
2.32029e-06
1.80471e-05
1.13859e-05
9.96808e-06
9.84674e-06
9.84674e-06
0.00412462
0.000248407
0.0124214
0.0156259
5.73411e-06