/*--------------------------------*- C++ -*----------------------------------*\
| =========                 |                                                 |
| \\      /  F ield         | OpenFOAM: The Open Source CFD Toolbox           |
|  \\    /   O peration     | Version:  2.4.0                                 |
|   \\  /    A nd           | Web:      www.OpenFOAM.org                      |
|    \\/     M anipulation  |                                                 |
\*---------------------------------------------------------------------------*/
FoamFile
{
    version     2.0;
    format      ascii;
    class       volScalarField;
    location    "0.314";
    object      p_rgh;
}
// * * * * * * * * * * * * * * * * * * * * * * * * * * * * * * * * * * * * * //

dimensions      [1 -1 -2 0 0 0 0];

internalField   nonuniform List<scalar> 
60000
(
123.745
123.713
123.636
123.518
123.357
123.156
122.912
122.628
122.303
121.936
121.529
121.081
120.593
120.065
119.498
118.893
118.249
117.567
116.849
116.095
115.306
114.482
113.626
112.738
111.819
110.87
109.892
108.887
107.856
106.8
105.722
104.621
103.5
102.361
101.205
100.034
98.8501
97.655
96.4508
95.2395
94.0231
92.8038
91.5837
90.3649
89.1496
87.9397
86.7378
85.5462
84.3677
83.2044
82.0593
80.9353
79.8353
78.7626
77.7207
76.7129
75.7429
74.8142
73.9304
73.0948
72.3108
71.5814
70.909
70.2955
69.7418
69.2535
68.8267
68.4618
68.1581
67.9144
67.7289
67.5997
67.5246
67.5015
67.5284
67.6036
67.7256
67.8934
68.1063
68.3637
68.6653
69.0112
69.4016
69.8363
70.3153
70.8381
71.404
72.0122
72.6611
73.3492
74.0744
74.8343
75.6266
76.4484
77.2972
78.1701
79.0643
79.9769
80.9053
81.8464
123.745
123.714
123.637
123.518
123.358
123.156
122.913
122.629
122.303
121.937
121.529
121.082
120.594
120.066
119.499
118.893
118.249
117.567
116.849
116.095
115.306
114.482
113.626
112.738
111.818
110.869
109.891
108.886
107.855
106.8
105.721
104.62
103.499
102.36
101.204
100.033
98.8485
97.6533
96.4489
95.2375
94.021
92.8015
91.5812
90.3621
89.1464
87.9363
86.7342
85.5424
84.3636
83.2001
82.0546
80.9301
79.8297
78.7565
77.7139
76.7054
75.7347
74.8053
73.9207
73.0845
72.2998
71.5697
70.8967
70.2828
69.7276
69.24
68.813
68.448
68.1444
67.9007
67.7154
67.5864
67.5116
67.4888
67.516
67.5914
67.7137
67.8817
68.0949
68.3526
68.6547
69.0011
69.3921
69.8276
70.3074
70.8312
71.3983
72.0076
72.6578
73.3472
74.0737
74.8349
75.6284
76.4515
77.3015
78.1755
79.0708
79.9845
80.9139
81.8559
123.754
123.722
123.646
123.527
123.367
123.165
122.922
122.637
122.311
121.945
121.537
121.089
120.601
120.073
119.506
118.9
118.256
117.574
116.855
116.101
115.312
114.488
113.631
112.743
111.823
110.874
109.896
108.89
107.859
106.803
105.724
104.623
103.501
102.362
101.205
100.034
98.8491
97.6533
96.4485
95.2365
94.0194
92.7994
91.5784
90.3588
89.1425
87.9318
86.7289
85.5363
84.3563
83.1917
82.0451
80.9195
79.8179
78.7434
77.6995
76.6896
75.7174
74.7865
73.9006
73.0629
72.2769
71.5456
70.8718
70.2578
69.7074
69.2147
68.7867
68.4214
68.1178
67.8744
67.6895
67.561
67.4866
67.4641
67.4916
67.5673
67.6897
67.8577
68.0704
68.3278
68.6297
68.976
69.3669
69.8024
70.2825
70.8068
71.3745
71.9848
72.6361
73.3268
74.0547
74.8174
75.6124
76.4369
77.2882
78.1636
79.0601
79.9749
80.9054
81.8481
123.773
123.74
123.663
123.544
123.384
123.182
122.939
122.654
122.328
121.961
121.554
121.105
120.617
120.089
119.521
118.915
118.27
117.588
116.869
116.114
115.324
114.5
113.643
112.754
111.834
110.884
109.905
108.899
107.867
106.811
105.731
104.629
103.507
102.367
101.209
100.037
98.8515
97.6549
96.449
95.236
94.018
92.7969
91.5749
90.354
89.1365
87.9246
86.7204
85.5263
84.3448
83.1785
82.0301
80.9025
79.7988
78.7222
77.676
76.6639
75.6893
74.756
73.8675
73.0277
72.2397
71.5066
70.8312
70.216
69.6633
69.1713
68.7431
68.3779
68.0746
67.8319
67.6477
67.52
67.4464
67.4247
67.4529
67.529
67.6515
67.8196
68.0322
68.2893
68.5907
68.9366
69.3272
69.7625
70.2426
70.7671
71.3354
71.9465
72.599
73.291
74.0203
74.7845
75.5811
76.4071
77.2599
78.1365
79.0342
79.95
80.8814
81.8248
123.8
123.766
123.69
123.571
123.41
123.208
122.964
122.68
122.353
121.986
121.578
121.13
120.641
120.112
119.544
118.937
118.292
117.609
116.889
116.134
115.343
114.518
113.66
112.77
111.85
110.899
109.92
108.913
107.88
106.823
105.742
104.639
103.516
102.375
101.216
100.043
98.8558
97.6578
96.4506
95.2362
94.0166
92.794
91.5705
90.348
89.1289
87.9151
86.7091
85.513
84.3293
83.1607
82.0098
80.8796
79.773
78.6933
77.644
76.6286
75.6507
74.7141
73.8225
72.9795
72.1886
71.4529
70.7753
70.1583
69.6037
69.1114
68.6829
68.3178
68.0152
67.7734
67.5904
67.464
67.3918
67.3713
67.4005
67.4774
67.6006
67.7688
67.9815
68.2385
68.5396
68.8853
69.2756
69.7108
70.191
70.716
71.2852
71.8974
72.5512
73.2448
73.9759
74.7419
75.5402
76.368
77.2222
78.1002
78.999
79.9157
80.8479
81.792
123.837
123.802
123.725
123.606
123.445
123.243
122.999
122.714
122.388
122.02
121.612
121.162
120.673
120.144
119.575
118.967
118.321
117.637
116.917
116.16
115.368
114.543
113.684
112.793
111.871
110.919
109.939
108.931
107.897
106.839
105.757
104.653
103.528
102.385
101.225
100.05
98.8616
97.6619
96.4529
95.2366
94.0152
92.7906
91.5651
90.3406
89.1192
87.9032
86.6948
85.4961
84.3097
83.1381
81.984
80.8503
79.7401
78.6566
77.6032
76.5836
75.6015
74.6607
73.7648
72.9178
72.1232
71.3842
70.7037
70.0843
69.5277
69.0345
68.6057
68.2409
67.9391
67.6986
67.5173
67.3927
67.3224
67.3037
67.3344
67.4125
67.5366
67.7054
67.9183
68.1753
68.4763
68.8217
69.2119
69.6473
70.1279
70.6537
71.2241
71.8379
72.4936
73.1894
73.9227
74.6911
75.4917
76.3215
77.1777
78.0572
78.9573
79.8751
80.8082
81.7532
123.882
123.848
123.771
123.651
123.49
123.288
123.043
122.758
122.431
122.063
121.654
121.204
120.714
120.183
119.614
119.005
118.358
117.673
116.951
116.193
115.4
114.573
113.713
112.821
111.898
110.945
109.963
108.954
107.919
106.859
105.775
104.669
103.543
102.398
101.236
100.059
98.8688
97.6669
96.4557
95.2372
94.0134
92.7865
91.5585
90.3315
89.1075
87.8888
86.6774
85.4756
84.2859
83.1107
81.9527
80.8149
79.7002
78.612
77.5537
76.529
75.5417
74.5956
73.6947
72.8427
72.0435
71.3003
70.6162
69.9938
69.435
68.9406
68.5114
68.147
67.8464
67.6076
67.4284
67.3062
67.2382
67.2218
67.2545
67.3343
67.4596
67.6293
67.8427
68.0997
68.4007
68.746
69.1362
69.5719
70.0532
70.5801
71.152
71.7679
72.4261
73.1245
73.8608
74.6321
75.4355
76.268
77.1265
78.0081
78.9099
79.829
80.7632
81.7092
123.937
123.903
123.825
123.705
123.544
123.341
123.097
122.811
122.483
122.114
121.704
121.254
120.763
120.231
119.66
119.05
118.402
117.716
116.993
116.233
115.439
114.611
113.749
112.855
111.93
110.976
109.992
108.982
107.945
106.882
105.797
104.689
103.561
102.414
101.25
100.07
98.8773
97.6729
96.459
95.2378
94.0113
92.7815
91.5507
90.3207
89.0937
87.8717
86.6569
85.4515
84.2579
83.0785
81.916
80.7732
79.6533
78.5595
77.4954
76.4647
75.4712
74.519
73.6119
72.7541
71.9493
71.2011
70.5127
69.8868
69.3253
68.8295
68.3998
68.036
67.7367
67.5
67.3235
67.2042
67.1392
67.1257
67.161
67.2429
67.3698
67.5405
67.7545
68.0118
68.3127
68.658
69.0483
69.4844
69.9665
70.4948
71.0687
71.6871
72.3482
73.05
73.7899
74.5647
75.3716
76.2072
77.0686
77.9525
78.8563
79.7771
80.7126
81.6597
124.002
123.967
123.889
123.769
123.608
123.404
123.159
122.872
122.544
122.175
121.764
121.312
120.82
120.288
119.715
119.104
118.454
117.766
117.041
116.28
115.484
114.654
113.79
112.895
111.968
111.012
110.026
109.014
107.974
106.91
105.822
104.713
103.582
102.432
101.265
100.083
98.8872
97.6798
96.4628
95.2385
94.0087
92.7758
91.5416
90.3082
89.0777
87.8521
86.6334
85.4239
84.2257
83.0415
81.8738
80.7254
79.5995
78.4994
77.4286
76.3908
75.3902
74.4307
73.5166
72.6519
71.8406
71.0866
70.393
69.7629
69.1984
68.7008
68.2706
67.9074
67.6099
67.3758
67.2024
67.0867
67.0254
67.0154
67.0537
67.1382
67.267
67.439
67.6538
67.9114
68.2123
68.5575
68.948
69.3845
69.8677
70.3976
70.9739
71.5952
72.2599
72.9657
73.7097
74.4888
75.2997
76.139
77.0036
77.8904
78.7965
79.7191
80.656
81.6043
124.076
124.041
123.963
123.843
123.68
123.477
123.231
122.944
122.615
122.244
121.833
121.38
120.886
120.352
119.778
119.165
118.514
117.824
117.097
116.334
115.536
114.704
113.838
112.94
112.011
111.053
110.065
109.05
108.009
106.942
105.852
104.739
103.606
102.453
101.283
100.098
98.8984
97.6875
96.4671
95.2391
94.0058
92.7692
91.5313
90.2941
89.0596
87.8299
86.6069
85.3927
84.1896
82.9999
81.8263
80.6717
79.5389
78.4316
77.3531
76.3074
75.2986
74.3309
73.4086
72.536
71.7173
70.9564
70.257
69.622
69.054
68.5543
68.1235
67.7611
67.4657
67.2347
67.0652
66.9538
66.8968
66.8909
66.9329
67.0204
67.1515
67.325
67.5406
67.7985
68.0995
68.4446
68.835
69.2721
69.7564
70.2883
70.8672
71.4921
72.161
72.8713
73.6202
74.4042
75.2197
76.0634
76.9317
77.8217
78.7303
79.6549
80.5934
81.5428
124.16
124.124
124.046
123.925
123.763
123.558
123.312
123.024
122.694
122.323
121.91
121.456
120.961
120.425
119.85
119.235
118.581
117.889
117.16
116.395
115.594
114.759
113.891
112.991
112.06
111.099
110.109
109.091
108.047
106.978
105.884
104.769
103.632
102.476
101.303
100.114
98.9109
97.6962
96.4718
95.2398
94.0025
92.7618
91.5197
90.2783
89.0395
87.8052
86.5774
85.3581
84.1494
82.9538
81.7737
80.612
79.4717
78.3562
77.2692
76.2146
75.1965
74.2195
73.2879
72.4063
71.5791
70.8104
70.1042
69.4638
68.8917
68.3896
67.9581
67.5967
67.3037
67.0765
66.9115
66.8051
66.7532
66.7521
66.7985
66.8895
67.0232
67.1985
67.415
67.6732
67.974
68.3189
68.7093
69.1468
69.6324
70.1664
70.7485
71.3774
72.0511
72.7668
73.5213
74.3108
75.1317
75.9802
76.8528
77.7463
78.6577
79.5845
80.5245
81.475
124.253
124.217
124.139
124.018
123.855
123.65
123.403
123.114
122.783
122.41
121.996
121.541
121.044
120.507
119.929
119.312
118.656
117.962
117.23
116.462
115.659
114.822
113.951
113.048
112.114
111.15
110.157
109.137
108.089
107.017
105.921
104.802
103.662
102.502
101.325
100.132
98.9247
97.7057
96.4769
95.2406
93.9987
92.7535
91.5069
90.2609
89.0174
87.7781
86.5451
85.3202
84.1055
82.9033
81.7161
80.5466
79.3979
78.2734
77.1769
76.1123
75.084
74.0965
73.1545
72.2628
71.4259
70.6484
69.9345
69.2877
68.711
68.2062
67.774
67.4138
67.1238
66.9008
66.7412
66.6407
66.5947
66.5993
66.6506
66.7456
66.8824
67.0596
67.277
67.5354
67.8359
68.1803
68.5705
69.0085
69.4953
70.0318
70.6174
71.2508
71.93
72.6518
73.4127
74.2087
75.0356
75.8896
76.7669
77.6643
78.5788
79.5078
80.4494
81.4009
124.356
124.32
124.241
124.119
123.956
123.75
123.502
123.213
122.881
122.507
122.091
121.634
121.136
120.596
120.017
119.397
118.738
118.042
117.307
116.537
115.73
114.89
114.016
113.11
112.173
111.206
110.21
109.187
108.136
107.06
105.961
104.838
103.694
102.531
101.349
100.152
98.9398
97.7161
96.4825
95.2413
93.9946
92.7444
91.4929
90.2419
88.9933
87.7487
86.51
85.2791
84.0578
82.8485
81.6535
80.4756
79.3178
78.1834
77.0764
76.0007
74.961
73.9619
73.0084
72.1053
71.2576
70.4701
69.7474
69.0934
68.5114
68.0036
67.5706
67.2119
66.9253
66.7074
66.554
66.4603
66.4213
66.4323
66.4893
66.5889
66.729
66.9083
67.1267
67.3851
67.685
68.0286
68.4184
68.8566
69.3448
69.8838
70.4733
71.112
71.7974
72.5262
73.2944
74.0976
74.9314
75.7914
76.674
77.5757
78.4935
79.4248
80.368
81.3204
124.468
124.432
124.353
124.231
124.067
123.86
123.612
123.321
122.988
122.613
122.195
121.737
121.236
120.695
120.112
119.49
118.829
118.129
117.391
116.618
115.808
114.965
114.088
113.178
112.238
111.268
110.268
109.241
108.187
107.108
106.004
104.878
103.729
102.562
101.375
100.173
98.9563
97.7274
96.4886
95.242
93.9899
92.7345
91.4777
90.2213
88.9672
87.7169
86.4722
85.2348
84.0066
82.7896
81.5863
80.3992
79.2314
78.0863
76.9678
75.88
74.8277
73.8158
72.8494
71.9337
71.0739
70.2752
69.5426
68.8805
68.2925
67.7811
67.3473
66.9903
66.7078
66.4958
66.3497
66.2638
66.2328
66.2513
66.3147
66.4195
66.5633
66.7448
66.9641
67.2222
67.5211
67.8636
68.2526
68.6908
69.1803
69.7221
70.316
70.9605
71.6529
72.3896
73.1661
73.9775
74.819
75.6859
76.5742
77.4805
78.4018
79.3356
80.2802
81.2333
124.59
124.554
124.474
124.352
124.187
123.98
123.731
123.439
123.104
122.727
122.309
121.848
121.345
120.801
120.216
119.591
118.927
118.224
117.483
116.706
115.893
115.045
114.165
113.252
112.308
111.334
110.331
109.3
108.242
107.159
106.051
104.92
103.768
102.595
101.404
100.196
98.9741
97.7396
96.495
95.2427
93.9849
92.7237
91.4612
90.1992
88.9392
87.683
86.4319
85.1877
83.952
82.7269
81.5146
80.3176
79.1391
77.9823
76.8513
75.7503
74.6842
73.6581
72.6775
71.7479
70.8747
70.0635
69.3197
68.6483
68.0535
67.5381
67.1034
66.7485
66.4707
66.2656
66.1278
66.0511
66.0292
66.0562
66.127
66.2376
66.3855
66.5694
66.7893
67.0468
67.3443
67.685
68.0727
68.5105
69.0012
69.5461
70.1448
70.7959
71.4962
72.2419
73.0278
73.8484
74.6985
75.5729
76.4676
77.3789
78.3039
79.2401
80.1861
81.1395
124.722
124.686
124.606
124.483
124.318
124.11
123.859
123.566
123.23
122.852
122.431
121.968
121.463
120.916
120.329
119.7
119.032
118.326
117.581
116.8
115.984
115.132
114.248
113.331
112.384
111.406
110.399
109.364
108.302
107.214
106.102
104.967
103.809
102.631
101.435
100.221
98.9933
97.7527
96.5019
95.2433
93.9793
92.7121
91.4435
90.1754
88.9094
87.6468
86.3891
85.1377
83.8942
82.6604
81.4385
80.2311
79.041
77.8717
76.7271
75.6116
74.5305
73.489
72.4928
71.5478
70.6596
69.8344
69.0781
68.3962
67.7937
67.2738
66.8381
66.4856
66.2133
66.0163
65.8882
65.822
65.8106
65.8472
65.9263
66.0435
66.1958
66.382
66.6025
66.8589
67.1543
67.4926
67.8782
68.3152
68.807
69.355
69.9591
70.6175
71.3268
72.0825
72.8791
73.7102
74.5698
75.4527
76.3543
77.271
78.1999
79.1385
80.0855
81.039
124.865
124.827
124.747
124.624
124.458
124.249
123.997
123.702
123.365
122.985
122.562
122.097
121.59
121.04
120.449
119.817
119.146
118.435
117.687
116.902
116.081
115.226
114.337
113.416
112.464
111.482
110.471
109.432
108.366
107.273
106.157
105.016
103.854
102.67
101.468
100.248
99.0138
97.7666
96.5091
95.2439
93.9732
92.6995
91.4245
90.1502
88.8777
87.6086
86.3439
85.085
83.8333
82.5904
81.3585
80.1399
78.9374
77.7546
76.5954
75.4643
74.3667
73.3084
72.2952
71.3332
70.4286
69.5878
68.8173
68.1236
67.5122
66.9872
66.5503
66.2008
65.935
65.7472
65.6303
65.5762
65.5768
65.6245
65.713
65.8373
65.9945
66.1832
66.4038
66.6586
66.951
67.286
67.6687
68.1043
68.5968
69.1482
69.7583
70.4248
71.1441
71.9113
72.7199
73.5627
74.433
75.3252
76.2343
77.1568
78.0898
79.0307
79.9786
80.9316
125.017
124.979
124.898
124.774
124.607
124.397
124.144
123.848
123.51
123.128
122.703
122.235
121.725
121.172
120.578
119.943
119.267
118.552
117.8
117.01
116.185
115.325
114.432
113.507
112.55
111.564
110.548
109.504
108.434
107.337
106.215
105.069
103.901
102.712
101.503
100.277
99.0357
97.7814
96.5167
95.2442
93.9665
92.6859
91.4043
90.1233
88.8443
87.5683
86.2965
85.0298
83.7695
82.5172
81.2746
80.0442
78.8287
77.6314
76.4564
75.3085
74.1931
73.1165
72.0847
71.1042
70.1814
69.3232
68.5369
67.8296
67.2081
66.6772
66.2391
65.893
65.6347
65.4577
65.3538
65.3136
65.3279
65.3882
65.4872
65.6196
65.782
65.9731
66.1935
66.4458
66.7343
67.0647
67.4435
67.8769
68.3698
68.9247
69.5413
70.2171
70.9477
71.7278
72.5499
73.406
74.2883
75.1906
76.1079
77.0366
77.9737
78.917
79.8653
80.8172
125.179
125.14
125.059
124.935
124.767
124.556
124.302
124.004
123.664
123.28
122.853
122.383
121.869
121.313
120.715
120.076
119.396
118.677
117.919
117.125
116.295
115.43
114.533
113.603
112.641
111.65
110.63
109.581
108.506
107.404
106.277
105.125
103.952
102.756
101.541
100.308
99.059
97.797
96.5246
95.2444
93.9592
92.6713
91.3826
90.0948
88.809
87.5262
86.247
84.9723
83.7032
82.441
81.1873
79.9445
78.7151
77.5024
76.3106
75.1444
74.0098
72.9133
71.8614
70.8607
69.9179
69.0403
68.236
67.5134
66.8803
66.3425
65.9031
65.561
65.3115
65.147
65.058
65.0339
65.064
65.1385
65.2494
65.3907
65.5587
65.7521
65.9717
66.2207
66.5041
66.8285
67.2019
67.6321
68.125
68.6836
69.3075
69.9934
70.7368
71.5314
72.3691
73.24
74.1356
75.0491
75.9753
76.9105
77.852
78.7974
79.7458
80.6959
125.351
125.312
125.231
125.105
124.937
124.724
124.469
124.17
123.827
123.441
123.012
122.539
122.023
121.463
120.861
120.217
119.533
118.808
118.046
117.246
116.411
115.542
114.639
113.704
112.738
111.742
110.716
109.663
108.582
107.475
106.342
105.185
104.005
102.803
101.581
100.34
99.0837
97.8135
96.5327
95.2443
93.9511
92.6555
91.3596
90.0647
88.772
87.4821
86.1955
84.9127
83.6345
82.362
81.0969
79.841
78.597
77.368
76.1581
74.9723
73.817
72.6989
71.6251
70.6025
69.6378
68.7387
67.9142
67.174
66.5274
65.9817
65.5408
65.2035
64.9643
64.8142
64.7425
64.7369
64.785
64.8757
64.9999
65.1511
65.3251
65.5207
65.739
65.9835
66.2602
66.5769
66.9432
67.3687
67.861
68.4236
69.0557
69.753
70.5106
71.3218
72.1771
73.0648
73.9752
74.901
75.8366
76.7788
77.7248
78.6722
79.6201
80.5675
125.533
125.494
125.412
125.286
125.116
124.903
124.646
124.345
124.001
123.612
123.18
122.704
122.185
121.621
121.015
120.367
119.677
118.948
118.18
117.375
116.534
115.659
114.751
113.811
112.839
111.838
110.808
109.749
108.663
107.55
106.412
105.249
104.062
102.853
101.623
100.375
99.1097
97.8308
96.5411
95.2439
93.9421
92.6385
91.335
90.0329
88.7332
87.4362
86.1421
84.8511
83.5637
82.2807
81.0036
79.7342
78.4749
77.2287
75.9995
74.7926
73.6147
72.4734
71.3761
70.3297
69.341
68.418
67.5706
66.8102
66.148
65.5931
65.1505
64.8189
64.5915
64.4582
64.4066
64.4224
64.4911
64.6001
64.7393
64.9014
65.082
65.2796
65.4957
65.7344
66.0025
66.3093
66.6662
67.0855
67.5765
68.1434
68.7846
69.4948
70.2682
71.0983
71.9738
72.8806
73.8075
74.7465
75.6923
76.6418
77.5925
78.5416
79.4884
80.4321
125.726
125.686
125.604
125.477
125.306
125.091
124.833
124.53
124.184
123.793
123.358
122.879
122.356
121.789
121.178
120.524
119.829
119.094
118.321
117.51
116.663
115.783
114.869
113.923
112.946
111.939
110.904
109.839
108.748
107.629
106.485
105.315
104.122
102.906
101.668
100.411
99.1372
97.8488
96.5496
95.2429
93.9322
92.6201
91.3087
89.9994
88.6927
87.3887
86.0871
84.7878
83.491
82.1973
80.9079
79.6245
78.3492
77.0848
75.8351
74.6056
73.4034
72.237
71.1143
70.0423
69.0275
68.0779
67.2045
66.4208
65.7403
65.1745
64.73
64.4052
64.1918
64.0779
64.0495
64.09
64.1823
64.3122
64.4683
64.6424
64.8299
65.0293
65.2424
65.4737
65.731
66.0252
66.37
66.7807
67.2695
67.8413
68.4931
69.2176
70.0085
70.8601
71.7589
72.6873
73.6326
74.5862
75.5427
76.4999
77.4554
78.406
79.3511
80.2899
125.93
125.889
125.806
125.678
125.506
125.29
125.03
124.725
124.376
123.983
123.546
123.064
122.536
121.965
121.349
120.69
119.989
119.248
118.468
117.651
116.799
115.912
114.992
114.04
113.058
112.046
111.004
109.934
108.837
107.712
106.562
105.386
104.185
102.962
101.716
100.45
99.1661
97.8676
96.5581
95.2414
93.921
92.6001
91.2806
89.964
88.6503
87.3394
86.0305
84.7231
83.4168
82.1122
80.8102
79.5123
78.2204
76.937
75.6655
74.4116
73.1831
71.9896
70.8398
69.7404
68.6972
67.7183
66.8153
66.0044
65.3022
64.7236
64.277
63.9605
63.7632
63.6717
63.6704
63.7396
63.859
64.0125
64.1875
64.3749
64.5697
64.7706
64.9796
65.2019
65.4458
65.724
66.0531
66.4525
66.938
67.5154
68.1795
68.92
69.7301
70.6063
71.5323
72.4853
73.4511
74.4204
75.3881
76.3534
77.314
78.2659
79.2085
80.141
126.144
126.102
126.019
125.89
125.716
125.499
125.236
124.93
124.579
124.183
123.743
123.257
122.726
122.15
121.529
120.864
120.157
119.41
118.623
117.799
116.94
116.047
115.121
114.163
113.175
112.157
111.109
110.033
108.93
107.799
106.642
105.46
104.252
103.02
101.766
100.49
99.1965
97.8872
96.5666
95.239
93.9085
92.5783
91.2506
89.9265
88.6061
87.2885
85.9726
84.6571
83.3415
82.0258
80.711
79.3982
78.0892
76.7859
75.4914
74.2111
72.954
71.7313
70.5527
69.4242
68.3505
67.3389
66.4022
65.5595
64.8314
64.2374
63.7888
63.4822
63.3038
63.2382
63.2683
63.371
63.5215
63.7016
63.8977
64.0998
64.3023
64.5043
64.7081
64.9192
65.1467
65.405
65.7138
66.0983
66.5794
67.1637
67.8428
68.6008
69.4315
70.3361
71.2938
72.2748
73.2635
74.2496
75.2288
76.2027
77.1687
78.1217
79.0612
79.9858
126.368
126.326
126.242
126.112
125.937
125.718
125.454
125.145
124.792
124.393
123.95
123.46
122.925
122.344
121.717
121.047
120.333
119.578
118.785
117.954
117.088
116.188
115.255
114.291
113.297
112.272
111.219
110.137
109.027
107.89
106.727
105.537
104.322
103.082
101.819
100.533
99.2284
97.9075
96.5749
95.2357
93.8943
92.5544
91.2182
89.8868
88.5599
87.2361
85.9134
84.5902
83.2653
81.9385
80.6106
79.2827
77.9562
76.6324
75.3134
74.0047
72.7164
71.4621
70.253
69.094
67.9876
66.94
65.9645
65.0844
64.3248
63.7123
63.262
62.9676
62.8113
62.7753
62.8423
62.984
63.1701
63.3802
63.5999
63.8181
64.0288
64.2313
64.4286
64.6262
64.8338
65.0671
65.3498
65.7145
66.1901
66.7838
67.4819
68.2593
69.1109
70.0486
71.0439
72.0567
73.071
74.0747
75.0652
76.0484
77.0201
77.9741
78.9099
79.825
126.604
126.561
126.476
126.345
126.168
125.947
125.681
125.37
125.014
124.613
124.166
123.673
123.134
122.547
121.915
121.237
120.516
119.754
118.953
118.115
117.241
116.334
115.395
114.424
113.423
112.393
111.333
110.245
109.129
107.986
106.815
105.619
104.396
103.147
101.874
100.579
99.2619
97.9284
96.583
95.2312
93.8782
92.528
91.1832
89.8447
88.5117
87.1822
85.8533
84.5227
83.1886
81.8507
80.5096
79.1665
77.8222
76.4773
75.1325
73.7929
72.4703
71.1816
69.9405
68.7501
67.6092
66.5219
65.5019
64.5773
63.7788
63.1444
62.6932
62.4138
62.2827
62.2804
62.3906
62.5787
62.8056
63.0496
63.2961
63.5322
63.7516
63.9544
64.144
64.3257
64.5093
64.7115
64.96
65.2977
65.7657
66.3724
67.0957
67.8942
68.7661
69.7435
70.7839
71.8328
72.8759
73.8972
74.8982
75.8914
76.8694
77.8241
78.7561
79.6597
126.851
126.807
126.721
126.588
126.41
126.187
125.918
125.605
125.247
124.843
124.393
123.896
123.351
122.76
122.121
121.436
120.708
119.937
119.128
118.282
117.401
116.487
115.54
114.563
113.555
112.518
111.452
110.357
109.235
108.085
106.908
105.704
104.473
103.216
101.933
100.626
99.2971
97.9501
96.5906
95.2253
93.8598
92.4989
91.1453
89.7998
88.4613
87.1268
85.7924
84.4549
83.1119
81.7628
80.4085
79.05
77.6881
76.3217
74.95
73.5766
72.2156
70.8892
69.6152
68.393
67.2162
66.0857
65.0147
64.0367
63.1884
62.5278
62.0768
61.8151
61.7125
61.7477
61.9095
62.1538
62.4282
62.711
62.9887
63.2458
63.4755
63.6789
63.8606
64.0249
64.1807
64.3452
64.5487
64.849
65.3058
65.9288
66.685
67.5047
68.3927
69.42
70.5153
71.6054
72.6817
73.7194
74.7292
75.7336
76.718
77.6735
78.6019
79.4922
127.109
127.064
126.977
126.843
126.663
126.437
126.166
125.85
125.489
125.082
124.629
124.128
123.579
122.981
122.336
121.643
120.907
120.128
119.31
118.455
117.566
116.644
115.69
114.706
113.691
112.647
111.575
110.474
109.345
108.188
107.004
105.793
104.554
103.288
101.995
100.676
99.3341
97.9724
96.5977
95.2175
93.8387
92.4664
91.1038
89.7517
88.4085
87.07
85.7311
84.3872
83.0355
81.6753
80.3076
78.9339
77.5546
76.1671
74.7672
73.3568
71.9521
70.5836
69.2766
68.0237
66.8102
65.6332
64.5035
63.4599
62.5443
61.8523
61.4029
61.1623
61.0933
61.1702
61.3951
61.7095
62.0392
62.3664
62.6808
62.9624
63.204
63.4085
63.5825
63.7284
63.8532
63.9736
64.1199
64.3699
64.814
65.4608
66.2602
67.0939
67.984
69.0771
70.239
71.376
72.492
73.543
74.5599
75.5775
76.5683
77.525
78.451
79.3259
127.378
127.332
127.244
127.108
126.926
126.698
126.425
126.106
125.742
125.332
124.875
124.37
123.816
123.213
122.56
121.859
121.113
120.325
119.498
118.635
117.737
116.807
115.846
114.854
113.832
112.781
111.702
110.594
109.459
108.295
107.104
105.885
104.638
103.364
102.06
100.73
99.373
97.9954
96.604
95.2077
93.8144
92.43
91.0582
89.7
88.353
87.0118
85.6695
84.3202
82.9601
81.5885
80.2073
78.8187
77.4229
76.015
74.5863
73.1349
71.6792
70.2627
68.9244
67.6433
66.3926
65.1657
63.968
62.8423
61.8327
61.1106
60.6694
60.4575
60.4325
60.5553
60.8578
61.2602
61.6513
62.0255
62.3807
62.6881
62.9405
63.1441
63.3091
63.4337
63.5227
63.591
63.6624
63.8429
64.2757
64.9661
65.84
66.6778
67.5333
68.7145
69.9549
71.1465
72.3108
73.3661
74.3885
75.4233
76.42
77.3805
78.3075
79.1655
127.659
127.612
127.523
127.385
127.2
126.97
126.693
126.372
126.005
125.591
125.131
124.622
124.063
123.453
122.793
122.083
121.328
120.53
119.693
118.82
117.914
116.975
116.006
115.006
113.977
112.92
111.834
110.719
109.577
108.407
107.208
105.982
104.727
103.443
102.129
100.786
99.4141
98.019
96.6093
95.1953
93.7863
92.3889
91.0077
89.6439
88.2946
86.9524
85.6083
84.2544
82.8861
81.5028
80.1079
78.7048
77.2941
75.8676
74.4099
72.9128
71.3958
69.922
68.5576
67.2525
65.9632
64.6835
63.4095
62.1822
61.0415
60.3098
59.8843
59.7021
59.7271
59.8895
60.2863
60.8006
61.2569
61.6788
62.0791
62.4113
62.6709
62.8692
63.0243
63.1245
63.1717
63.1799
63.1528
63.2333
63.6506
64.4003
65.4056
66.2613
67.0326
68.3347
69.6553
70.9115
72.1387
73.1833
74.2143
75.2716
76.2723
77.2421
78.1758
79.0159
127.952
127.904
127.813
127.673
127.486
127.252
126.972
126.648
126.277
125.861
125.397
124.884
124.32
123.703
123.035
122.316
121.55
120.741
119.894
119.011
118.095
117.148
116.171
115.163
114.127
113.063
111.969
110.848
109.699
108.522
107.317
106.083
104.82
103.526
102.202
100.845
99.4575
98.0434
96.6134
95.18
93.7537
92.3423
90.9513
89.5827
88.2327
86.8917
85.5477
84.1906
82.8142
81.4184
80.0095
78.5927
77.1694
75.7274
74.2414
72.694
71.1006
69.5536
68.1747
66.8508
65.5201
64.1897
62.8421
61.4799
60.1259
59.4102
58.9801
58.7936
58.637
58.4486
58.7715
59.4692
60.1549
60.8659
61.5445
62.0341
62.3087
62.4898
62.6313
62.6994
62.692
62.6291
62.4752
62.4384
62.8844
63.7256
64.8974
65.7238
66.5051
67.9673
69.3656
70.7034
71.9925
72.9816
74.0275
75.1115
76.1146
77.1079
78.0576
78.8808
128.257
128.207
128.115
127.972
127.782
127.545
127.262
126.934
126.56
126.141
125.674
125.156
124.587
123.963
123.287
122.557
121.779
120.959
120.101
119.208
118.282
117.326
116.34
115.325
114.282
113.21
112.109
110.982
109.826
108.642
107.429
106.188
104.917
103.614
102.279
100.909
99.5036
98.0685
96.616
95.1612
93.7161
92.2892
90.8879
89.5153
88.1668
86.83
85.4887
84.1296
82.7451
81.3356
79.9119
78.4821
77.0496
75.5972
74.086
72.4861
70.7948
69.1429
67.776
66.4379
65.0668
63.7213
62.3503
60.6737
56.0192
49.2474
41.0911
33.7455
28.6394
25.5133
24.5645
25.1238
26.5986
28.962
32.0023
35.4361
39.1888
42.478
45.6496
48.6051
51.4273
54.1181
56.5306
58.7358
61.0313
62.9586
64.6287
65.1464
65.7098
67.5846
68.9767
70.4963
71.8708
72.7621
73.8478
74.943
75.9389
76.9763
77.9514
78.7623
128.574
128.523
128.429
128.284
128.09
127.849
127.562
127.23
126.853
126.431
125.96
125.439
124.864
124.233
123.548
122.807
122.017
121.184
120.313
119.41
118.474
117.509
116.514
115.491
114.44
113.361
112.254
111.119
109.956
108.765
107.546
106.297
105.018
103.706
102.36
100.976
99.5526
98.0943
96.6167
95.1385
93.6725
92.2283
90.8157
89.4401
88.0961
86.7675
85.4321
84.0732
82.6802
81.2544
79.8141
78.3721
76.9356
75.4811
73.9518
72.306
70.4836
68.6644
67.3717
65.9993
64.5964
61.7435
52.8841
32.9244
16.1553
7.03419
1.8511
0.300176
0.281223
0.26899
0.26349
0.260189
0.257926
0.255208
0.251601
0.240554
0.331927
1.35039
2.72162
4.3914
6.51864
9.27027
13.0023
18.1746
26.7646
38.7092
54.3452
63.5584
64.3583
67.3292
68.4571
70.4138
71.7657
72.486
73.6791
74.7471
75.7477
76.8591
77.859
78.667
128.903
128.851
128.755
128.606
128.409
128.164
127.873
127.537
127.156
126.73
126.256
125.731
125.152
124.513
123.819
123.065
122.261
121.415
120.532
119.617
118.671
117.696
116.693
115.662
114.602
113.516
112.402
111.26
110.09
108.893
107.666
106.41
105.123
103.803
102.446
101.048
99.605
98.1207
96.6153
95.1112
93.6221
92.1583
90.7329
89.3554
88.0197
86.7046
85.3797
84.0233
82.621
81.1744
79.7139
78.2608
76.8285
75.3835
73.8442
72.1789
70.1815
68.0501
67.0023
63.9797
51.1528
25.8281
6.26355
0.3354
0.310089
0.295574
0.293449
0.291627
0.280756
0.271358
0.266078
0.262593
0.259972
0.257246
0.254217
0.248589
0.246812
0.249067
0.245319
0.242097
0.240475
0.239657
0.240538
0.241935
0.243826
0.909019
4.33146
15.1479
33.1418
60.2264
67.1711
70.4817
71.5941
72.1324
73.5749
74.4494
75.5298
76.7603
77.7745
78.6155
129.246
129.192
129.093
128.941
128.74
128.49
128.194
127.853
127.469
127.04
126.563
126.034
125.45
124.803
124.099
123.331
122.513
121.652
120.755
119.828
118.872
117.888
116.876
115.836
114.769
113.675
112.553
111.405
110.229
109.024
107.791
106.528
105.233
103.905
102.538
101.126
99.6612
98.1475
96.6111
95.0791
93.5643
92.0773
90.6368
89.2584
87.9363
86.6422
85.3335
83.983
82.5691
81.0925
79.6056
78.1445
76.7298
75.3026
73.7534
72.0794
69.8672
66.1172
56.0977
27.9507
4.95115
0.328767
0.330854
0.328085
0.312761
0.299572
0.293145
0.288511
0.279784
0.271347
0.265736
0.26179
0.258829
0.255699
0.252611
0.248296
0.247481
0.248304
0.244717
0.241527
0.239994
0.23913
0.239444
0.239631
0.238167
0.235165
0.224438
0.220102
0.848765
5.8452
23.2088
54.2488
70.6372
71.3983
73.6569
74.0022
75.3777
76.7106
77.6746
78.6292
129.602
129.546
129.444
129.289
129.082
128.826
128.525
128.179
127.791
127.358
126.879
126.347
125.758
125.102
124.39
123.607
122.771
121.894
120.984
120.045
119.078
118.084
117.062
116.014
114.939
113.837
112.709
111.554
110.371
109.16
107.92
106.65
105.348
104.012
102.635
101.209
99.7214
98.174
96.6032
95.0416
93.4985
91.9834
90.5238
89.1458
87.8441
86.5813
85.2961
83.9555
82.5246
81.0009
79.4778
78.016
76.6427
75.2346
73.6222
72.0373
64.4198
36.6539
8.97102
0.324543
0.357047
0.341328
0.333914
0.326135
0.312985
0.299949
0.291838
0.28612
0.278274
0.270724
0.265194
0.26101
0.257904
0.254431
0.252004
0.249828
0.244323
0.243132
0.24192
0.240103
0.238587
0.237561
0.237195
0.23622
0.234043
0.230716
0.219556
0.208584
0.193423
0.183594
0.182271
3.34313
16.9711
42.5028
70.8768
72.7655
75.1958
76.6559
77.5402
78.7905
129.972
129.914
129.809
129.648
129.436
129.174
128.866
128.515
128.122
127.686
127.205
126.67
126.077
125.411
124.691
123.89
123.036
122.142
121.217
120.265
119.287
118.284
117.253
116.196
115.113
114.004
112.868
111.706
110.517
109.3
108.053
106.776
105.467
104.124
102.738
101.299
99.7859
98.1992
96.5905
94.9986
93.4245
91.8743
90.3894
89.0126
87.7407
86.523
85.2687
83.9412
82.4821
80.8847
79.3126
77.8612
76.5686
75.2065
72.5758
58.852
24.8306
1.18217
0.347852
0.344498
0.351927
0.343379
0.334692
0.325371
0.312531
0.300231
0.29123
0.284902
0.277048
0.269747
0.264443
0.260133
0.257122
0.253922
0.253301
0.25006
0.245608
0.243793
0.242333
0.239059