/*--------------------------------*- C++ -*----------------------------------*\
| =========                 |                                                 |
| \\      /  F ield         | OpenFOAM: The Open Source CFD Toolbox           |
|  \\    /   O peration     | Version:  2.4.0                                 |
|   \\  /    A nd           | Web:      www.OpenFOAM.org                      |
|    \\/     M anipulation  |                                                 |
\*---------------------------------------------------------------------------*/
FoamFile
{
    version     2.0;
    format      ascii;
    class       volScalarField;
    location    "0.053";
    object      p_rgh;
}
// * * * * * * * * * * * * * * * * * * * * * * * * * * * * * * * * * * * * * //

dimensions      [1 -1 -2 0 0 0 0];

internalField   nonuniform List<scalar> 
3600
(
98.1099
98.1022
98.0981
98.0855
98.0801
98.0509
98.0432
97.9902
97.9796
97.8975
97.8814
97.7703
97.7467
97.6183
97.5996
97.4828
97.5222
97.536
97.7413
97.7286
97.8701
97.797
97.8413
97.7775
97.7798
97.7425
97.7347
97.7178
97.7113
97.705
98.1148
98.1116
98.107
98.0935
98.0871
98.0575
98.049
97.9956
97.9841
97.9017
97.8845
97.7732
97.7478
97.6192
97.5983
97.4801
97.5177
97.5332
97.7416
97.7287
97.871
97.7974
97.8415
97.7776
97.7798
97.7425
97.7347
97.7177
97.7113
97.705
98.1183
98.1167
98.1138
98.1004
98.0947
98.0646
98.0566
98.0023
97.9907
97.9073
97.8889
97.7768
97.7486
97.6195
97.5952
97.474
97.5094
97.5279
97.743
97.7294
97.8731
97.7982
97.8418
97.7777
97.7797
97.7425
97.7346
97.7177
97.7112
97.7049
98.1338
98.1303
98.1273
98.1134
98.108
98.0767
98.0687
98.0129
98.0006
97.9156
97.8953
97.7818
97.7497
97.6197
97.5902
97.4645
97.4964
97.52
97.7454
97.7311
97.8761
97.7994
97.8424
97.7779
97.7796
97.7424
97.7345
97.7177
97.7112
97.7049
98.1525
98.1489
98.146
98.1313
98.1263
98.0933
98.0853
98.0273
98.014
97.9267
97.9038
97.7886
97.7509
97.6199
97.5836
97.4515
97.4787
97.5094
97.7488
97.7337
97.8801
97.8011
97.8431
97.7781
97.7795
97.7423
97.7344
97.7176
97.7111
97.7049
98.1767
98.1728
98.1704
98.1545
98.1499
98.1147
98.1066
98.0456
98.0309
97.9407
97.9145
97.7972
97.7523
97.6204
97.5754
97.4346
97.456
97.4958
97.7534
97.7374
97.8851
97.8033
97.844
97.7784
97.7793
97.7422
97.7342
97.7175
97.711
97.7048
98.2074
98.2035
98.2014
98.184
98.1797
98.1415
98.133
98.0682
98.0516
97.9578
97.9275
97.8078
97.7539
97.6212
97.5658
97.4136
97.4277
97.4791
97.7593
97.7424
97.8913
97.8059
97.8451
97.7787
97.7791
97.7421
97.734
97.7174
97.7109
97.7048
98.2465
98.2417
98.24
98.2205
98.2164
98.1742
98.1649
98.0954
98.0762
97.9782
97.9429
97.8208
97.7555
97.6229
97.5549
97.3881
97.3934
97.4586
97.7668
97.7488
97.8986
97.809
97.8464
97.779
97.7789
97.7419
97.7337
97.7173
97.7108
97.7047
98.2929
98.2888
98.2876
98.2654
98.2608
98.2143
98.2029
98.1279
98.1049
98.0021
97.9609
97.8364
97.757
97.6256
97.5432
97.3574
97.3527
97.4339
97.776
97.7571
97.9071
97.8126
97.8477
97.7794
97.7786
97.7417
97.7334
97.7171
97.7107
97.7047
98.3514
98.3461
98.3451
98.3172
98.3139
98.2589
98.2473
98.1638
98.1378
98.0296
97.9815
97.8553
97.7583
97.6298
97.5309
97.321
97.305
97.4042
97.7873
97.7675
97.9168
97.8167
97.8492
97.7798
97.7782
97.7415
97.7331
97.7169
97.7105
97.7046
98.4233
98.4179
98.4149
98.3886
98.3772
98.3209
98.2979
98.2118
98.1749
98.0614
98.0048
97.8779
97.7588
97.6362
97.5187
97.278
97.249
97.3691
97.801
97.7804
97.9278
97.8213
97.8508
97.7802
97.7778
97.7413
97.7327
97.7168
97.7104
97.7045
98.4929
98.483
98.489
98.4454
98.45
98.3687
98.3569
98.2514
98.2165
98.0935
98.031
97.905
97.7579
97.6451
97.5076
97.2273
97.1833
97.3279
97.8178
97.7964
97.9401
97.8264
97.8524
97.7806
97.7773
97.741
97.7323
97.7165
97.7102
97.7044
98.6292
98.62
98.6112
98.572
98.5396
98.4738
98.4215
98.3257
98.2613
98.1407
98.0599
97.9399
97.7526
97.6575
97.4993
97.1678
97.1065
97.2799
97.8383
97.816
97.9537
97.832
97.854
97.7809
97.7767
97.7406
97.7318
97.7163
97.71
97.7043
98.6738
98.6573
98.6686
98.6062
98.6144
98.5051
98.4928
98.3562
98.3107
98.1676
98.0911
97.9809
97.7434
97.6732
97.4953
97.0977
97.0165
97.2242
97.8634
97.8396
97.9688
97.8381
97.8555
97.7813
97.7761
97.7403
97.7313
97.7161
97.7097
97.7042
98.9401
98.9216
98.906
98.8395
98.7824
98.6868
98.5919
98.4769
98.3685
98.2394
98.1263
98.0375
97.7326
97.692
97.4978
97.016
96.9109
97.1596
97.8947
97.8677
97.9854
97.8447
97.857
97.7815
97.7753
97.7398
97.7308
97.7158
97.7095
97.7041
98.9264
98.897
98.9067
98.8287
98.8144
98.6785
98.6282
98.4769
98.3966
98.2472
98.1472
98.0893
97.72
97.7125
97.5094
96.9202
96.7862
97.0846
97.9318
97.9021
98.0036
97.8517
97.8582
97.7817
97.7744
97.7394
97.7302
97.7155
97.7093
97.7039
99.3836
99.3643
99.3316
99.2059
99.1132
98.9686
98.8134
98.6664
98.5059
98.3495
98.2148
98.175
97.708
97.7367
97.5341
96.8078
96.6408
96.9974
97.9763
97.9436
98.024
97.8591
97.8593
97.7818
97.7735
97.7389
97.7296
97.7152
97.709
97.7038
99.3861
99.2926
99.2595
99.1944
99.087
98.9088
98.7799
98.6138
98.4789
98.3254
98.2145
98.2329
97.6924
97.7591
97.5772
96.6783
96.4665
96.8959
98.0291
97.9928
98.0471
97.8669
97.8599
97.7817
97.7724
97.7383
97.7289
97.7148
97.7087
97.7037
99.7732
99.956
99.9118
99.6752
99.5321
99.3426
99.0476
98.9113
98.6464
98.4518
98.3366
98.3468
97.6777
97.7816
97.6434
96.5242
96.2647
96.7775
98.0929
98.0515
98.0732
97.8748
97.8601
97.7815
97.7712
97.7377
97.7282
97.7145
97.7084
97.7035
100.574
100.212
99.7209
99.9176
99.4919
99.2036
98.9564
98.7516
98.5628
98.3685
98.3275
98.4214
97.6938
97.8073
97.7572
96.3543
96.0169
96.6389
98.1677
98.1215
98.1021
97.8829
97.8597
97.781
97.7698
97.737
97.7274
97.7141
97.7081
97.7033
100.981
100.542
100.685
100.249
100.136
99.842
99.3059
99.2529
98.7359
98.5228
98.4993
98.5655
97.5922
97.7687
97.8562
96.1374
95.7295
96.4768
98.2598
98.2077
98.1348
97.891
97.8586
97.7804
97.7683
97.7362
97.7266
97.7137
97.7077
97.7032
102.347
102.233
101.09
100.915
99.9119
99.4822
99.1009
98.8056
98.5983
98.3184
98.5281
98.69
97.7107
97.9226
98.1258
95.9323
95.3788
96.2852
98.3661
98.3088
98.1642
97.8983
97.8564
97.7794
97.7666
97.7355
97.7258
97.7133
97.7074
97.703
104.55
103.052
102.908
101.376
100.85
100.487
99.5996
99.6985
98.7285
98.5418
98.7343
98.8812
97.4581
97.7294
98.2368
95.6084
94.9346
96.0587
98.4982
98.4361
98.2113
97.9053
97.8533
97.778
97.7648
97.7346
97.7249
97.7128
97.707
97.7028
103.466
104.569
102.431
102.792
100.311
99.4838
99.0367
98.6343
98.3485
98.0418
98.8657
99.1184
97.6564
98.1383
98.7371
95.4016
94.6448
95.7899
98.6517
98.5841
98.2276
97.9086
97.8486
97.7763
97.7628
97.7337
97.724
97.7124
97.7067
97.7026
104.132
104.471
105.74
104.889
102.279
101.095
100.167
100.272
98.4731
98.4982
99.095
99.4102
97.231
97.6558
98.9149
94.9012
93.4775
95.4487
98.8294
98.769
98.2984
97.9149
97.843
97.7742
97.7607
97.7328
97.7231
97.7119
97.7063
97.7024
106.188
108.938
106.783
106.345
101.743
98.4186
98.6771
98.2032
97.7752
97.2769
99.3963
99.8055
97.3685
98.4987
99.699
94.7614
93.5607
95.1191
99.0857
99.0002
98.3093
97.9026
97.8336
97.7712
97.7581
97.7316
97.722
97.7113
97.7058
97.7022
118.143
112.378
110.679
108.706
102.772
99.6646
101.31
100.081
97.6977
97.8032
99.7325
100.549
96.7585
97.5557
100.12
94.0592
91.3812
94.5415
99.2511
99.2079
98.3947
97.913
97.8273
97.7687
97.7562
97.7309
97.7213
97.7109
97.7056
97.702
144.085
108.736
112.655
110.632
101.551
91.4995
99.7053
97.935
95.7083
95.49
100.076
100.886
96.3971
98.8384
101.322
93.9418
91.4884
94.1485
99.7797
99.6639
98.4058
97.8653
97.8057
97.7637
97.7525
97.7292
97.7197
97.71
97.7049
97.7017
179.832
130.992
133.04
122.403
100.618
90.5882
103.025
99.5673
96.107
95.9706
100.817
102.519
95.7328
95.5149
102.013
91.1707
78.2818
92.2361
99.8065
99.8174
98.4912
97.8897
97.8062
97.7627
97.7516
97.7292
97.7196
97.71
97.7049
97.7016
26.2421
16.8709
104.338
109.071
84.1588
58.5587
102.201
95.1515
79.0288
80.8864
98.6138
102.475
80.5193
80.8439
88.3028
42.905
17.1581
50.0354
91.1578
100.463
98.5376
97.7929
97.7634
97.7538
97.7462
97.7265
97.7171
97.7086
97.7039
97.7011
97.703
97.7019
97.7012
97.7005
97.7
97.6995
97.6992
97.6989
97.6987
97.6985
97.6984
97.6982
97.6981
97.6981
97.698
97.698
97.6979
97.6979
97.6979
97.6978
97.6978
97.6978
97.6978
97.6978
97.6977
97.6978
97.6976
97.6978
97.6976
97.6977
97.7029
97.7019
97.7012
97.7005
97.7
97.6995
97.6992
97.6989
97.6987
97.6985
97.6983
97.6982
97.6981
97.6981
97.698
97.698
97.6979
97.6979
97.6979
97.6978
97.6978
97.6978
97.6978
97.6978
97.6977
97.6978
97.6976
97.6978
97.6976
97.6977
97.7029
97.7019
97.7012
97.7004
97.7
97.6995
97.6992
97.6989
97.6987
97.6985
97.6983
97.6982
97.6981
97.6981
97.698
97.698
97.6979
97.6979
97.6979
97.6978
97.6978
97.6978
97.6978
97.6978
97.6977
97.6978
97.6976
97.6978
97.6976
97.6977
97.7029
97.7019
97.7012
97.7004
97.7
97.6995
97.6992
97.6989
97.6987
97.6985
97.6983
97.6982
97.6981
97.6981
97.698
97.698
97.6979
97.6979
97.6979
97.6978
97.6978
97.6978
97.6978
97.6978
97.6977
97.6978
97.6976
97.6978
97.6976
97.6977
97.7029
97.7018
97.7011
97.7004
97.7
97.6995
97.6992
97.6989
97.6987
97.6985
97.6983
97.6982
97.6981
97.6981
97.698
97.6979
97.6979
97.6979
97.6979
97.6978
97.6978
97.6978
97.6978
97.6978
97.6977
97.6978
97.6976
97.6978
97.6976
97.6977
97.7029
97.7018
97.7011
97.7004
97.6999
97.6995
97.6992
97.6989
97.6987
97.6985
97.6983
97.6982
97.6981
97.6981
97.698
97.6979
97.6979
97.6979
97.6979
97.6978
97.6978
97.6978
97.6978
97.6978
97.6977
97.6978
97.6976
97.6978
97.6976
97.6977
97.7028
97.7018
97.7011
97.7004
97.6999
97.6995
97.6992
97.6989
97.6987
97.6985
97.6983
97.6982
97.6981
97.6981
97.698
97.6979
97.6979
97.6979
97.6979
97.6978
97.6978
97.6978
97.6978
97.6978
97.6977
97.6978
97.6976
97.6978
97.6976
97.6977
97.7028
97.7017
97.7011
97.7004
97.6999
97.6995
97.6992
97.6989
97.6986
97.6985
97.6983
97.6982
97.6981
97.698
97.698
97.6979
97.6979
97.6979
97.6979
97.6978
97.6978
97.6978
97.6978
97.6978
97.6977
97.6978
97.6976
97.6978
97.6976
97.6977
97.7027
97.7017
97.701
97.7003
97.6999
97.6995
97.6991
97.6989
97.6986
97.6985
97.6983
97.6982
97.6981
97.698
97.698
97.6979
97.6979
97.6979
97.6978
97.6978
97.6978
97.6978
97.6978
97.6978
97.6977
97.6978
97.6976
97.6978
97.6976
97.6977
97.7026
97.7016
97.701
97.7003
97.6999
97.6994
97.6991
97.6988
97.6986
97.6984
97.6983
97.6982
97.6981
97.698
97.698
97.6979
97.6979
97.6979
97.6978
97.6978
97.6978
97.6978
97.6978
97.6978
97.6977
97.6978
97.6976
97.6978
97.6976
97.6977
97.7026
97.7016
97.7009
97.7003
97.6998
97.6994
97.6991
97.6988
97.6986
97.6984
97.6983
97.6982
97.6981
97.698
97.698
97.6979
97.6979
97.6979
97.6978
97.6978
97.6978
97.6978
97.6978
97.6978
97.6977
97.6978
97.6976
97.6978
97.6976
97.6977
97.7025
97.7015
97.7009
97.7002
97.6998
97.6994
97.6991
97.6988
97.6986
97.6984
97.6983
97.6982
97.6981
97.698
97.698
97.6979
97.6979
97.6979
97.6978
97.6978
97.6978
97.6978
97.6978
97.6978
97.6977
97.6978
97.6976
97.6978
97.6976
97.6978
97.7024
97.7015
97.7008
97.7002
97.6997
97.6994
97.699
97.6988
97.6986
97.6984
97.6983
97.6982
97.6981
97.698
97.698
97.6979
97.6979
97.6979
97.6978
97.6978
97.6978
97.6978
97.6978
97.6978
97.6977
97.6978
97.6976
97.6978
97.6976
97.6978
97.7023
97.7014
97.7007
97.7001
97.6997
97.6993
97.699
97.6988
97.6986
97.6984
97.6983
97.6982
97.6981
97.698
97.698
97.6979
97.6979
97.6979
97.6978
97.6978
97.6978
97.6978
97.6978
97.6978
97.6977
97.6978
97.6976
97.6978
97.6976
97.6978
97.7022
97.7013
97.7007
97.7001
97.6997
97.6993
97.699
97.6987
97.6985
97.6984
97.6983
97.6982
97.6981
97.698
97.698
97.6979
97.6979
97.6979
97.6978
97.6978
97.6978
97.6978
97.6978
97.6978
97.6977
97.6978
97.6976
97.6978
97.6975
97.6978
97.7021
97.7012
97.7006
97.7
97.6996
97.6992
97.699
97.6987
97.6985
97.6984
97.6982
97.6981
97.6981
97.698
97.698
97.6979
97.6979
97.6979
97.6978
97.6978
97.6978
97.6978
97.6978
97.6978
97.6977
97.6978
97.6976
97.6978
97.6975
97.6978
97.702
97.7011
97.7005
97.7
97.6996
97.6992
97.6989
97.6987
97.6985
97.6983
97.6982
97.6981
97.6981
97.698
97.698
97.6979
97.6979
97.6979
97.6978
97.6978
97.6978
97.6978
97.6978
97.6978
97.6977
97.6978
97.6976
97.6978
97.6975
97.6978
97.7019
97.701
97.7005
97.6999
97.6995
97.6992
97.6989
97.6987
97.6985
97.6983
97.6982
97.6981
97.698
97.698
97.6979
97.6979
97.6979
97.6979
97.6978
97.6978
97.6978
97.6978
97.6978
97.6978
97.6977
97.6978
97.6976
97.6978
97.6975
97.6978
97.7018
97.7009
97.7004
97.6998
97.6995
97.6991
97.6989
97.6986
97.6985
97.6983
97.6982
97.6981
97.698
97.698
97.6979
97.6979
97.6979
97.6978
97.6978
97.6978
97.6978
97.6978
97.6978
97.6978
97.6977
97.6978
97.6976
97.6978
97.6975
97.6978
97.7016
97.7008
97.7003
97.6998
97.6994
97.6991
97.6988
97.6986
97.6984
97.6983
97.6982
97.6981
97.698
97.698
97.6979
97.6979
97.6979
97.6978
97.6978
97.6978
97.6978
97.6978
97.6978
97.6978
97.6977
97.6978
97.6976
97.6978
97.6974
97.6979
97.7015
97.7007
97.7002
97.6997
97.6993
97.699
97.6988
97.6986
97.6984
97.6983
97.6982
97.6981
97.698
97.698
97.6979
97.6979
97.6979
97.6978
97.6978
97.6978
97.6978
97.6978
97.6978
97.6978
97.6977
97.6978
97.6976
97.6978
97.6974
97.6979
97.7014
97.7006
97.7001
97.6996
97.6993
97.699
97.6987
97.6985
97.6984
97.6982
97.6981
97.6981
97.698
97.698
97.6979
97.6979
97.6979
97.6978
97.6978
97.6978
97.6978
97.6978
97.6978
97.6978
97.6977
97.6978
97.6976
97.6979
97.6974
97.6979
97.7012
97.7005
97.7
97.6995
97.6992
97.6989
97.6987
97.6985
97.6983
97.6982
97.6981
97.6981
97.698
97.6979
97.6979
97.6979
97.6979
97.6978
97.6978
97.6978
97.6978
97.6978
97.6978
97.6978
97.6977
97.6978
97.6975
97.6979
97.6973
97.6979
97.701
97.7004
97.6999
97.6995
97.6991
97.6989
97.6986
97.6985
97.6983
97.6982
97.6981
97.698
97.698
97.6979
97.6979
97.6979
97.6979
97.6978
97.6978
97.6978
97.6978
97.6978
97.6978
97.6978
97.6977
97.6978
97.6976
97.6979
97.6973
97.698
97.7009
97.7003
97.6998
97.6994
97.6991
97.6988
97.6986
97.6984
97.6983
97.6982
97.6981
97.698
97.698
97.6979
97.6979
97.6979
97.6978
97.6978
97.6978
97.6978
97.6978
97.6978
97.6978
97.6978
97.6977
97.6978
97.6975
97.6978
97.6972
97.6979
97.7007
97.7001
97.6997
97.6993
97.699
97.6987
97.6985
97.6984
97.6983
97.6981
97.6981
97.698
97.698
97.6979
97.6979
97.6979
97.6978
97.6978
97.6978
97.6978
97.6978
97.6978
97.6978
97.6978
97.6977
97.6978
97.6976
97.6979
97.6972
97.6982
97.7006
97.7
97.6996
97.6992
97.6989
97.6987
97.6985
97.6984
97.6982
97.6981
97.6981
97.698
97.698
97.6979
97.6979
97.6979
97.6978
97.6978
97.6978
97.6978
97.6978
97.6978
97.6978
97.6978
97.6977
97.6978
97.6976
97.6978
97.697
97.6979
97.7003
97.6998
97.6994
97.6991
97.6988
97.6986
97.6984
97.6983
97.6982
97.6981
97.698
97.698
97.6979
97.6979
97.6979
97.6978
97.6978
97.6978
97.6978
97.6978
97.6978
97.6978
97.6978
97.6978
97.6977
97.6978
97.6976
97.6978
97.6971
97.6984
97.7003
97.6998
97.6994
97.6991
97.6988
97.6986
97.6984
97.6983
97.6982
97.6981
97.698
97.698
97.6979
97.6979
97.6979
97.6978
97.6978
97.6978
97.6978
97.6978
97.6978
97.6978
97.6978
97.6978
97.6977
97.6978
97.6976
97.6978
97.6968
97.6979
97.6999
97.6995
97.6991
97.6989
97.6986
97.6984
97.6983
97.6982
97.6981
97.698
97.698
97.6979
97.6979
97.6979
97.6978
97.6978
97.6978
97.6978
97.6978
97.6978
97.6978
97.6978
97.6976
97.6978
97.6964
97.6977
97.6943
97.6978
97.6908
97.6987
31.3422
2.07892
76.3843
104.931
9.60174
1.68747
14.6296
11.4663
4.42602
6.00808
10.525
9.61717
2.05474
4.97426
11.6349
2.25897
-0.0701309
1.55416
15.7609
14.241
8.07624
3.07878
1.80377
1.09632
0.799297
0.492001
0.317819
0.182468
0.10253
0.0548492
-7.4779
-4.08136
5.59831
8.65173
-0.00351198
-0.403618
-0.0023784
-0.159919
0.00439138
-0.0933393
-0.00460913
-0.0605039
-0.0208022
-0.0310211
-0.0303397
-0.0196877
-0.010316
0.000444843
-0.008471
-0.00691179
0.00524466
-0.00373531
0.00373849
-0.00207496
0.00170357
-0.00083562
0.000533632
-7.89113e-05
3.08163e-05
5.67709e-05
7.09647
-0.872068
-0.896886
-0.0539104
-0.444691
0.141987
-0.110509
-0.000106375
0.00737818
-0.0223005
0.0114678
-0.0161414
-0.0124245
-0.00179338
-0.0297104
-0.00735739
-0.0250085
-0.00939946
0.0346421
-0.00857467
0.00688053
-0.00372916
0.00381879
-0.00201474
0.00168264
-0.000825484
0.000532835
-7.57807e-05
3.43629e-05
5.79569e-05
-2.12222
-1.41177
0.0223262
0.334616
0.0903828
0.0772836
0.0360426
-0.0312405
0.0246345
-0.0627854
0.00968759
-0.0423131
-0.0171042
-0.0171585
-0.0234261
-0.0105936
-0.0169698
0.000111824
-0.00348016
-0.00558703
0.00498878
-0.00383274
0.00350137
-0.00204277
0.00162979
-0.000816737
0.000512883
-7.85403e-05
2.98818e-05
5.49744e-05
-7.32203
0.869848
-0.844419
0.0831682
-0.0344159
-0.108163
0.0324921
-0.0828277
0.0360668
-0.0526422
0.0145027
-0.0249788
-0.0127629
-0.00649691
-0.0219162
-0.00388451
-0.0123372
-0.00720939
0.0172517
-0.00725233
0.00575444
-0.00368786
0.0033526
-0.00198644
0.00156834
-0.000796541
0.00049456
-7.16355e-05
2.7171e-05
5.50992e-05
4.74895
7.31868
10.9581
0.246997
-0.224056
-0.0140451
-0.00609208
-0.0463601
0.0142045
-0.0481946
0.0094469
-0.0255491
-0.0148346
-0.00831625
-0.0192362
-0.00589553
-0.0138422
-0.00168516
-0.00106089
-0.00495988
0.00449406
-0.00364058
0.00309379
-0.00194163
0.00148992
-0.000771272
0.00046875
-6.54605e-05
2.26172e-05
5.31907e-05
35.898
22.0406
26.113
0.683705
0.194248
-0.0958932
0.0908394
-0.0699388
0.0400158
-0.0417812
0.0075341
-0.0170033
-0.0148796
-0.00627462
-0.0179336
-0.00271282
-0.00946743
-0.00524534
0.00776621
-0.00554967
0.00419973
-0.00338246
0.00284055
-0.00185689
0.00140061
-0.000737323
0.000439022
-5.57119e-05
1.77768e-05
5.24807e-05
6.68038
7.42113
7.83393
-0.216875
0.0481788
-0.076219
0.0275816
-0.0423889
0.00791421
-0.0250936
-0.00692766
-0.0106833
-0.0160238
-0.00409026
-0.0170056
-0.00265375
-0.0112039
-0.00234243
-0.000632586
-0.00441493
0.00343445
-0.00324293
0.00256514
-0.00177351
0.00130119
-0.000699681
0.000405407
-4.58783e-05
1.29862e-05
5.08328e-05
-0.304025
-0.196471
-0.0365956
-0.1055
-0.00803802
-0.0490664
-0.00492658
-0.0239998
-0.0111784
-0.0138502
-0.0128097
-0.00654729
-0.0169918
-0.00224973
-0.0164516
-0.00113554
-0.00944311
-0.00320898
0.00285629
-0.00398833
0.0028515
-0.00294558
0.00228309
-0.0016648
0.00119447
-0.0006554
0.000368646
-3.47053e-05
8.59563e-06
5.00148e-05
-0.279731
-0.184646
0.0676982
-0.158969
-0.00123674
-0.0749002
0.00193535
-0.0343529
-0.00963014
-0.010133
-0.0149382
-0.00318577
-0.0178102
-0.000245174
-0.0161344
-0.000245536
-0.00972736
-0.00209822
-0.00150817
-0.00351025
0.00221952
-0.00272763
0.00199763
-0.0015502
0.00108217
-0.000607147
0.000329388
-2.43431e-05
4.84284e-06
4.87331e-05
-0.21386
-0.19893
-0.068775
-0.104441
-0.0400252
-0.0128185
-0.0298682
-0.000284622
-0.0267587
8.45949e-05
-0.0212736
-0.000401307
-0.0186745
0.00118939
-0.0159384
0.000711532
-0.00966195
-0.00161843
-0.000487388
-0.0029498
0.00167316
-0.00242786
0.00171645
-0.0014242
0.000966895
-0.000555065
0.000288519
-1.38169e-05
1.75863e-06
4.75043e-05
-0.957693
-0.725724
-0.129803
0.120755
0.00185012
0.0285899
0.011753
-0.00727036
-0.00393171
-0.00716059
-0.0149148
0.00130983
-0.0186634
0.00274787
-0.0158221
0.00163155
-0.00959697
-0.000968116
-0.00173994
-0.00256427
0.00115964
-0.00217927
0.00144302
-0.00129429
0.000850293
-0.000500627
0.000246967
-3.74209e-06
-8.35659e-07
4.61926e-05
-1.40476
-1.20868
-0.120982
-0.133916
-0.0301571
-0.00530085
-0.0310735
0.00867968
-0.0286128
0.00712002
-0.0247988
0.00374451
-0.019956
0.00395603
-0.0157105
0.00244563
-0.00957135
-0.000201393
-0.00231391
-0.0020847
0.000702525
-0.00190131
0.00118271
-0.00116103
0.000734677
-0.000444498
0.000205898
5.6354e-06
-3.10347e-06
4.47769e-05
3.68796
1.87279
1.29946
0.140146
-0.157018
-0.0461901
-0.0575278
-0.0234179
-0.0295438
-0.00474063
-0.0219805
0.00472168
-0.0198088
0.00505173
-0.0155124
0.00314011
-0.00952439
0.000335939
-0.00277896
-0.00172614
0.000296583
-0.00164482
0.000937845
-0.00102751
0.000621537
-0.00038762
0.000166596
1.37469e-05
-5.11586e-06
4.32372e-05
53.8648
39.8388
10.3024
0.110784
0.0379086
0.0462244
0.00124743
0.0201864
-0.0206745
0.0117846
-0.0242837
0.00771103
-0.0200404
0.00597621
-0.0151913
0.00370898
-0.00939256
0.000877012
-0.00318414
-0.00128259
-4.14749e-05
-0.00139821
0.000712333
-0.000895902
0.000512778
-0.000330941
0.000130309
2.00126e-05
-6.89681e-06
4.15589e-05
67.577
3.68566
11.7545
-0.108335
-0.103069
0.0245973
-0.0622742
0.0122276
-0.0386089
0.00824431
-0.0255534
0.00799799
-0.0196103
0.00654671
-0.0146789
0.00412431
-0.00917908
0.00126835
-0.0034735
-0.000914424
-0.000328482
-0.0011677
0.00050749
-0.00076811
0.000409699
-0.000275566
9.79558e-05
2.41604e-05
-8.44287e-06
3.97329e-05
65.8096
-0.548852
4.9332
0.499807
-0.272047
0.0177552
-0.0573253
-0.00157078
-0.0412483
0.00676039
-0.0245604
0.00848438
-0.0186243
0.00687691
-0.0139657
0.00439141
-0.00886293
0.00158241
-0.00364058
-0.000586055
-0.000566156
-0.000956328
0.000325753
-0.000646072
0.000313811
-0.000222946
7.00302e-05
2.64259e-05
-9.73288e-06
3.77568e-05
51.8284
0.27213
0.286828
0.234522
0.0358138
0.120305
0.182418
0.0307282
-0.0192375
0.0135117
-0.020666
0.00920636
-0.0170551
0.00700387
-0.0130593
0.00451923
-0.00844615
0.00180467
-0.00370236
-0.000306805
-0.00075307
-0.00076688
0.000167562
-0.000531662
0.000226469
-0.000174953
4.67971e-05
2.74047e-05
-1.07379e-05
3.5632e-05
31.2851
0.212333
0.814049
0.413836
0.127624
0.22804
0.136879
0.0159601
-0.0234234
0.0110775
-0.0183034
0.00937724
-0.0153871
0.00694761
-0.0120205
0.00451979
-0.00794044
0.00194118
-0.00366973
-8.1704e-05
-0.000877532
-0.000607656
3.5774e-05
-0.00042693
0.00014951
-0.000133603
2.8626e-05
2.75062e-05
-1.14333e-05
3.33628e-05
22.0885
0.553779
0.604483
0.862175
0.463309
0.259861
0.0401242
0.0274779
-0.00831854
0.0149861
-0.0141198
0.00939883
-0.0135473
0.00671849
-0.0108856
0.00440711
-0.0073554
0.00200022
-0.00355488
9.21351e-05
-0.000955625
-0.000475005
-6.43556e-05
-0.000334735
8.55814e-05
-0.000100281
1.53247e-05
2.69526e-05
-1.18053e-05
3.09562e-05
17.3843
0.878905
0.994686
0.949651
0.612819
0.072153
0.00905821
0.019269
-0.00877211
0.0113224
-0.0127812
0.00867541
-0.0118843
0.00629448
-0.0097077
0.00419552
-0.00671071
0.00198945
-0.00337082
0.000218436
-0.000989555
-0.000369318
-0.000130958
-0.000259402
3.77796e-05
-7.49517e-05
5.90483e-06
2.58685e-05
-1.18523e-05
2.84199e-05
9.27611
0.521248
0.471337
0.87522
0.102095
-0.0232972
-0.0251271
0.00222449
-0.014232
0.00840946
-0.0118209
0.00766912
-0.0102776
0.00577001
-0.0085104
0.0039034
-0.00602013
0.00191811
-0.00312931
0.000302247
-0.000984239
-0.000282423
-0.000170105
-0.000203256
5.69636e-06
-5.63133e-05
-6.9836e-07
2.43302e-05
-1.1582e-05
2.57632e-05
29.3107
0.885741
-0.224567
0.484276
-0.0829512
-0.0202053
-0.0453647
0.00045931
-0.0179071
0.00704654
-0.0102148
0.00678643
-0.00851716
0.00516504
-0.00726803
0.0035478
-0.00529785
0.00179527
-0.00284105
0.000348708
-0.00094414
-0.000211585
-0.000188903
-0.000160829
-1.40835e-05
-4.25361e-05
-5.11032e-06
2.23952e-05
-1.10097e-05
2.29967e-05
38.2457
19.3699
0.308173
0.0381268
-0.0143726
0.00980263
-0.00555501
0.00813991
-0.00494968
0.00735019
-0.00623277
0.00600701
-0.00657411
0.0045168
-0.00604067
0.003145
-0.00456088
0.00162972
-0.00251649
0.000362959
-0.000874386
-0.00015485
-0.000192122
-0.000126968
-2.54248e-05
-3.2027e-05
-7.74624e-06
2.01125e-05
-1.01572e-05
2.01316e-05
43.0716
14.0338
0.0669958
0.0594122
0.0305814
0.0254425
0.00955362
0.0119184
0.000425635
0.00721061
-0.00326428
0.00519506
-0.00477923
0.00384396
-0.00486038
0.002708
-0.00382208
0.00142964
-0.00216422
0.000350041
-0.000779638
-0.00011039
-0.000182713
-9.91095e-05
-3.05356e-05
-2.38612e-05
-8.92069e-06
1.75276e-05
-9.05102e-06
1.71796e-05
10.8699
0.755365
0.0703637
0.0389868
0.033449
0.0265503
0.015973
0.0137263
0.0046891
0.00712893
-0.000811784
0.00444171
-0.00324842
0.00317399
-0.00376574
0.00224672
-0.00309223
0.00120231
-0.00179183
0.000314778
-0.000664469
-7.6374e-05
-0.000163054
-7.57303e-05
-3.08841e-05
-1.74353e-05
-8.89671e-06
1.46856e-05
-7.72287e-06
1.41538e-05
2.98113
0.029891
0.0318869
0.0302163
0.024749
0.0225225
0.0141134
0.0129225
0.00512088
0.00653334
0.000357014
0.00360742
-0.00209675
0.00251
-0.00277869
0.00176776
-0.00237825
0.000954064
-0.00140547
0.000261747
-0.000533142
-5.09208e-05
-0.000135229
-5.57401e-05
-2.76018e-05
-1.23082e-05
-7.9112e-06
1.16313e-05
-6.20799e-06
1.10675e-05
0.889773
0.00869528
0.00998197
0.0167628
0.0152568
0.0153552
0.0111894
0.00945782
0.00493601
0.00469097
0.00076035
0.00265755
-0.00135015
0.0018739
-0.00190315
0.00127468
-0.00168314
0.000690325
-0.00101012
0.000195254
-0.00038965
-3.21249e-05
-0.000101134
-3.82598e-05
-2.15802e-05
-8.12835e-06
-6.18675e-06
8.40906e-06
-4.54436e-06
7.9331e-06
0.00548929
0.00403171
0.00710564
0.00981964
0.00980098
0.00921207
0.00717087
0.00573873
0.0038353
0.0030257
0.000892079
0.00170999
-0.000696103
0.00113253
-0.00110695
0.000767089
-0.00100541
0.000415908
-0.000609576
0.000119373
-0.000237774
-1.80768e-05
-6.26367e-05
-2.25163e-05
-1.37072e-05
-4.59618e-06
-3.93688e-06
5.06241e-06
-2.77155e-06
4.76278e-06
0.00147251
-0.00102917
0.00175775
0.00367728
0.00398108
0.00332099
0.0021993
0.00123858
0.000528932
0.00036662
6.13638e-05
0.000387377
-0.000266803
0.000344987
-0.00036909
0.000250696
-0.000337396
0.00013528
-0.000205962
3.7976e-05
-8.09951e-05
-6.85821e-06
-2.15427e-05
-7.76694e-06
-4.77639e-06
-1.4725e-06
-1.34241e-06
1.6261e-06
-9.32821e-07
1.55276e-06
0.0356317
0.0287658
0.0224198
0.0180797
0.0140393
0.0113105
0.00876856
0.00710255
0.00548253
0.00445478
0.00344175
0.00278585
0.00217571
0.00174287
0.00138292
0.00108699
0.000867681
0.000670835
0.000538051
0.000402794
0.000307328
0.000190915
-9.15542e-06
4.3228e-05
-3.23965e-05
0.00015267
-5.6928e-05
0.00114143
-0.000335986
0.00528442
5.13356e-06
2.31573e-05
2.05475e-06
4.45293e-06
-7.73396e-07
-1.1356e-05
-7.55697e-06
-2.21821e-05
-1.43766e-05
-2.8452e-05
-1.93799e-05
-3.09404e-05
-2.24083e-05
-3.09997e-05
-2.38789e-05
-2.98106e-05
-2.45899e-05
-2.84605e-05
-2.52209e-05
-2.78979e-05
-2.63414e-05
-2.88817e-05
-2.82836e-05
-3.17518e-05
-3.01767e-05
-3.37791e-05
-2.78376e-05
-1.45061e-05
-1.15072e-05
0.000110173
8.2396e-06
2.23885e-05
3.81288e-06
4.21062e-06
2.53923e-08
-1.12152e-05
-7.26028e-06
-2.18953e-05
-1.42664e-05
-2.81472e-05
-1.93431e-05
-3.06816e-05
-2.23379e-05
-3.07373e-05
-2.37947e-05
-2.95628e-05
-2.44715e-05
-2.82224e-05
-2.50794e-05
-2.76745e-05
-2.61463e-05
-2.86896e-05
-2.78172e-05
-3.17742e-05
-3.12559e-05
-3.93848e-05
-4.78358e-05
-6.2785e-05
-0.000153121
-0.000127312
5.60752e-06
2.16067e-05
2.21377e-06
3.8883e-06
-9.92207e-07
-1.13781e-05
-7.75497e-06
-2.19331e-05
-1.44658e-05
-2.80683e-05
-1.93187e-05
-3.05555e-05
-2.22074e-05
-3.05841e-05
-2.36217e-05
-2.94074e-05
-2.42814e-05
-2.80809e-05
-2.48605e-05
-2.74988e-05
-2.58654e-05
-2.84563e-05
-2.74752e-05
-3.12295e-05
-2.88738e-05
-3.45005e-05
-2.75485e-05
-2.52129e-05
-1.62025e-05
4.79226e-05
6.43943e-06
2.10968e-05
2.31901e-06
3.83449e-06
-1.0938e-06
-1.11597e-05
-7.84625e-06
-2.1559e-05
-1.45041e-05
-2.76274e-05
-1.92132e-05
-3.01337e-05
-2.20179e-05
-3.01903e-05
-2.33856e-05
-2.90386e-05
-2.40121e-05
-2.77139e-05
-2.45435e-05
-2.71548e-05
-2.54749e-05
-2.80757e-05
-2.68786e-05
-3.09071e-05
-2.86434e-05
-3.69358e-05
-3.47003e-05
-5.00653e-05
-6.052e-05
-6.76445e-05
5.59628e-06
2.04431e-05
1.82555e-06
3.53815e-06
-1.29212e-06
-1.12627e-05
-7.80387e-06
-2.14205e-05
-1.44823e-05
-2.7244e-05
-1.9039e-05
-2.97104e-05
-2.17605e-05
-2.97652e-05
-2.30827e-05
-2.86415e-05
-2.3678e-05
-2.73481e-05
-2.416e-05
-2.67577e-05
-2.49915e-05
-2.75816e-05
-2.61559e-05
-3.00861e-05
-2.65535e-05
-3.35375e-05
-2.45551e-05
-3.01165e-05
-1.57492e-05
6.09642e-06
4.97421e-06
1.99397e-05
1.38866e-06
3.40942e-06
-1.45047e-06
-1.11411e-05
-7.71343e-06
-2.10706e-05
-1.43921e-05
-2.6738e-05
-1.87979e-05
-2.91819e-05
-2.1437e-05
-2.92417e-05
-2.27126e-05
-2.81433e-05
-2.32724e-05
-2.68721e-05
-2.36999e-05
-2.62682e-05
-2.44208e-05
-2.69859e-05
-2.53417e-05
-2.93389e-05
-2.55025e-05
-3.3653e-05
-2.52279e-05
-3.7973e-05
-2.28587e-05
-3.44445e-05
4.32592e-06
1.9326e-05
9.74507e-07
3.17467e-06
-1.57495e-06
-1.10943e-05
-7.60603e-06
-2.07175e-05
-1.42166e-05
-2.61901e-05
-1.84927e-05
-2.85806e-05
-2.10483e-05
-2.86393e-05
-2.22771e-05
-2.75732e-05
-2.28014e-05
-2.63282e-05
-2.31707e-05
-2.57003e-05
-2.37707e-05
-2.62943e-05
-2.44255e-05
-2.83603e-05
-2.37943e-05
-3.12809e-05
-2.01896e-05
-2.94449e-05
-9.63159e-06
-1.10088e-05
3.68699e-06
1.87703e-05
5.93316e-07
3.00819e-06
-1.6631e-06
-1.09569e-05
-7.45673e-06
-2.0309e-05
-1.39192e-05
-2.55999e-05
-1.8121e-05
-2.79039e-05
-2.05932e-05
-2.79577e-05
-2.17751e-05
-2.69233e-05
-2.22649e-05
-2.57082e-05
-2.25748e-05
-2.50562e-05
-2.3049e-05
-2.55188e-05
-2.34437e-05
-2.73197e-05
-2.23569e-05
-3.00838e-05
-1.87597e-05
-3.03877e-05
-8.76153e-06
-2.09592e-05
3.06773e-06
1.81438e-05
2.46697e-07
2.80531e-06
-1.72194e-06
-1.08109e-05
-7.26622e-06
-1.98988e-05
-1.34066e-05
-2.50535e-05
-1.76867e-05
-2.71564e-05
-2.00738e-05
-2.72008e-05
-2.12097e-05
-2.62011e-05
-2.16654e-05
-2.50168e-05
-2.19163e-05
-2.43404e-05
-2.22636e-05
-2.4668e-05
-2.24053e-05
-2.61849e-05
-2.0865e-05
-2.82559e-05
-1.61014e-05
-2.65224e-05
-4.25291e-06
-1.43436e-05
2.48629e-06
1.75687e-05
-5.87973e-08
2.66131e-06
-1.75209e-06
-1.06022e-05
-7.03837e-06
-1.95205e-05
-1.28117e-05
-2.43802e-05
-1.71895e-05
-2.63372e-05
-1.94913e-05
-2.63712e-05
-2.05806e-05
-2.54077e-05
-2.10052e-05
-2.42568e-05
-2.11994e-05
-2.35574e-05
-2.14224e-05
-2.37513e-05
-2.1328e-05
-2.49868e-05
-1.94314e-05
-2.65797e-05
-1.42942e-05
-2.5139e-05
-2.84463e-06
-1.57123e-05
1.95098e-06
1.68861e-05
-3.21932e-07
2.46386e-06
-1.75977e-06
-1.03805e-05
-6.77419e-06
-1.89996e-05
-1.22851e-05
-2.36161e-05
-1.66344e-05
-2.54492e-05
-1.88481e-05
-2.54717e-05
-1.98917e-05
-2.45455e-05
-2.02867e-05
-2.34309e-05
-2.04278e-05
-2.27118e-05
-2.05327e-05
-2.27768e-05
-2.02238e-05
-2.37379e-05
-1.80452e-05
-2.48686e-05
-1.26061e-05
-2.29291e-05
-1.29557e-06
-1.34195e-05
1.46691e-06
1.62034e-05
-5.41492e-07
2.29386e-06
-1.74575e-06
-1.01095e-05
-6.48013e-06
-1.84013e-05
-1.1754e-05
-2.2775e-05
-1.60255e-05
-2.44929e-05
-1.81464e-05
-2.45045e-05
-1.91447e-05
-2.36174e-05
-1.95126e-05
-2.25419e-05
-1.96053e-05
-2.18076e-05
-1.96011e-05
-2.17522e-05
-1.91036e-05
-2.24535e-05
-1.67137e-05
-2.31681e-05
-1.11781e-05
-2.10399e-05