/*--------------------------------*- C++ -*----------------------------------*\
| =========                 |                                                 |
| \\      /  F ield         | OpenFOAM: The Open Source CFD Toolbox           |
|  \\    /   O peration     | Version:  2.4.0                                 |
|   \\  /    A nd           | Web:      www.OpenFOAM.org                      |
|    \\/     M anipulation  |                                                 |
\*---------------------------------------------------------------------------*/
FoamFile
{
    version     2.0;
    format      ascii;
    class       volScalarField;
    location    "0.079";
    object      p;
}
// * * * * * * * * * * * * * * * * * * * * * * * * * * * * * * * * * * * * * //

dimensions      [1 -1 -2 0 0 0 0];

internalField   nonuniform List<scalar> 
57600
(
99.6924
101.27
102.922
104.741
106.082
106.263
105.155
103.278
101.242
99.502
98.2279
97.3696
96.8743
96.7595
97.0994
97.9363
99.197
100.724
102.346
103.924
105.364
106.612
107.652
108.49
109.143
109.635
109.991
110.235
110.389
110.473
96.4284
98.3556
100.114
101.883
103.003
102.849
101.488
99.5118
97.5036
95.8629
94.6914
93.9203
93.5114
93.4969
93.9556
94.9099
96.2598
97.8366
99.4732
101.038
102.446
103.654
104.652
105.448
106.063
106.523
106.851
107.072
107.208
107.277
93.1579
95.09
96.8532
98.6312
99.7639
99.6128
98.2422
96.2467
94.2134
92.5512
91.3661
90.5868
90.1735
90.1507
90.6005
91.5556
92.9166
94.5107
96.1683
97.7558
99.1852
100.412
101.423
102.23
102.854
103.318
103.649
103.872
104.008
104.077
89.8808
91.8198
93.5906
95.3818
96.5366
96.3921
95.0058
92.9811
90.9082
89.2118
88.0053
87.2135
86.7942
86.7596
87.1957
88.1526
89.5308
91.1497
92.8357
94.4523
95.9084
97.1568
98.1848
99.0024
99.6316
100.098
100.43
100.652
100.786
100.854
86.5971
88.5449
90.326
92.135
93.3212
93.1869
91.7798
89.7156
87.5882
85.8448
84.6085
83.7991
83.3726
83.3222
83.7375
84.6963
86.0979
87.7484
89.47
91.1232
92.613
93.8887
94.9366
95.767
96.403
96.8721
97.2032
97.4231
97.5559
97.6221
83.3067
85.2654
87.0592
88.8907
90.118
89.9976
88.5644
86.4505
84.2534
82.4494
81.1749
80.3421
79.908
79.8376
80.2224
81.1824
82.6136
84.3018
86.0653
87.7624
89.293
90.6023
91.675
92.522
93.168
93.6421
93.9747
94.1941
94.3252
94.3894
80.0095
81.981
83.7902
85.6485
86.9269
86.8245
85.3598
83.1862
80.9032
79.0248
77.703
76.8403
76.3992
76.3047
76.6453
77.6052
79.0732
80.8047
82.6157
84.3645
85.9441
87.294
88.397
89.2651
89.925
90.4077
90.7449
90.9657
91.096
91.158
76.7056
78.6919
80.5189
82.4083
83.7484
83.6681
82.1665
79.9232
77.5375
75.5698
74.1913
73.291
72.8448
72.7233
72.9999
73.9574
75.4715
77.2505
79.1142
80.9236
82.5625
83.9616
85.1011
85.995
86.6728
87.1676
87.5124
87.7368
87.8671
87.9265
73.3947
75.3981
77.2454
79.1695
80.5829
80.5292
78.9848
76.6623
74.156
72.0833
70.6382
69.6906
69.2432
69.0942
69.2777
70.2303
71.8024
73.6309
75.5511
77.432
79.1434
80.6023
81.7857
82.7104
83.4098
83.92
84.2752
84.5054
84.6369
84.6932
70.0766
72.0994
73.9693
75.9317
77.4305
77.4083
75.8152
73.4041
70.7581
68.5636
67.0416
66.0341
65.5917
65.4194
65.4672
66.4124
68.0586
69.9348
71.9135
73.8795
75.6806
77.213
78.4489
79.4094
80.1336
80.6618
81.03
81.2681
81.4019
81.4548
66.7515
68.7958
70.6906
72.6942
74.2919
74.3063
72.6581
70.1497
67.3434
65.0091
63.3993
62.3155
61.8867
61.7033
61.5541
62.4903
64.2323
66.1474
68.1833
70.2532
72.1679
73.7908
75.0888
76.0902
76.8419
77.3899
77.7726
78.0195
78.1542
78.1982
63.4191
65.4874
67.4094
69.4564
71.1676
71.2242
69.5141
66.9004
63.9115
61.4178
59.7094
58.527
58.1223
57.9522
57.5197
58.4475
60.3136
62.2483
64.3358
66.5367
68.5981
70.3333
71.7047
72.7518
73.5329
74.101
74.4989
74.7565
74.8912
74.9165
60.0791
62.174
64.1253
66.2172
68.058
68.1629
66.3836
63.6574
60.462
57.7855
55.9701
54.658
54.2904
54.1742
53.3395
54.2636
56.2879
58.2086
60.3359
62.7097
64.9645
66.8392
68.2963
69.3942
70.2059
70.7935
71.2053
71.4761
71.6278
71.683
56.7316
58.8558
60.8386
62.9758
64.964
65.1238
63.2671
60.4226
56.9949
54.1105
52.1811
50.6952
50.3805
50.3846
48.9832
49.904
52.1288
53.9873
56.1342
58.7485
61.2625
63.3091
64.8652
66.0194
66.864
67.4704
67.8917
68.1654
68.3102
68.3405
53.3763
55.5326
57.549
59.7308
61.8863
62.108
60.1652
57.1978
53.5101
50.3888
48.344
46.6206
46.3815
46.5929
44.4142
45.2523
47.798
49.5227
51.6596
54.6294
57.4912
59.745
61.4136
62.631
63.5133
64.1417
64.5733
64.8479
64.9905
65.0202
50.0129
52.2045
54.2565
56.4806
58.8259
59.1171
57.0781
53.9849
50.0086
46.6188
44.4637
42.4106
42.2853
42.8427
39.5591
40.1029
43.2697
44.6862
46.8132
50.336
53.6551
56.1491
57.9435
59.2332
60.1624
60.8231
61.2763
61.5673
61.7358
61.8228
46.6412
48.8715
50.9613
53.2236
55.7837
56.1528
54.0062
50.7862
46.4925
42.7958
40.5413
38.0378
38.0824
39.1773
34.3607
34.1862
38.3166
39.1839
41.4875
45.8751
49.7611
52.52
54.4554
55.8294
56.8193
57.529
58.0212
58.3447
58.5467
58.6757
43.261
45.5338
47.6633
49.9576
52.7611
53.2167
50.9496
47.6037
42.9656
38.9175
36.5601
33.4757
33.7297
35.4422
28.5492
27.5096
32.1872
32.7552
35.5816
41.2425
45.7959
48.8444
50.9466
52.4207
53.4889
54.2683
54.8187
55.1868
55.4168
55.5469
39.8719
42.1914
44.3629
46.6802
49.7593
50.3107
47.9081
44.4389
39.4351
34.9822
32.4739
28.7126
29.0913
30.4036
21.7254
19.9656
24.0608
25.2957
29.0027
36.3609
41.6839
45.0896
47.413
49.0062
50.174
51.047
51.6741
52.0982
52.3632
52.489
36.4736
38.8447
41.0603
43.3887
46.7802
47.437
44.8816
41.2923
35.9135
30.9815
28.1804
23.6987
23.3024
21.3137
16.1593
11.2839
14.3893
16.8104
21.6571
31.3083
37.3408
41.2113
43.8519
45.5827
46.8792
47.8736
48.5931
49.0772
49.3736
49.5276
33.0656
35.4941
37.7559
40.0796
43.8255
44.5976
41.8692
38.1621
32.4188
26.8697
23.4383
18.3614
17.1022
10.3596
14.8292
2.32606
6.20951
7.81034
12.7048
25.7572
32.7293
37.19
40.2477
42.1493
43.6204
44.7671
45.5905
46.1326
46.4468
46.5789
29.6474
32.1399
34.4503
36.7488
40.8975
41.7946
38.8699
35.0435
28.9843
22.4814
17.774
13.9453
16.2739
6.11837
14.6958
-5.906
0.190006
-2.53792
-0.966648
18.6871
27.7958
33.1087
36.6063
38.7046
40.4335
41.7607
42.6885
43.2843
43.618
43.7436
26.2183
28.7832
31.1442
33.3921
37.999
39.0302
35.8828
31.9268
25.6542
17.4351
10.6623
9.07539
12.0119
5.89874
9.52287
-11.353
-3.91615
-12.7426
-14.1788
11.6109
22.9735
29.0696
32.9894
35.3107
37.373
38.8915
39.905
40.5341
40.8705
40.9783
22.7774
25.4249
27.838
30.0039
35.1327
36.3065
32.907
28.7952
22.3801
11.923
3.5807
2.77205
6.24832
-0.0534556
7.27136
0.0837988
0.113953
0.417413
-17.1502
6.01538
18.7766
25.2376
29.4671
32.1163
34.4735
36.1819
37.2367
37.8582
38.1682
38.244
19.3233
22.0668
24.5321
26.5781
32.3021
33.626
29.9422
25.6197
18.7393
7.57116
-0.378828
-1.57419
-0.0623993
-0.0416823
-0.0159542
0.0439304
0.093623
-0.248233
-9.28812
3.92019
15.6583
21.8769
26.0479
28.9725
31.7559
33.6395
34.6472
35.2064
35.4685
35.5042
15.8543
18.7112
21.2262
23.1082
29.5111
30.9918
26.9872
22.3527
14.3933
5.74931
-9.52296
-0.0742775
-0.0830331
-0.0597769
-0.0289488
-0.0137272
0.00220207
-0.0840301
0.178572
1.53848
13.3859
19.0332
22.8713
26.208
29.3288
31.2192
32.0555
32.5092
32.7292
32.7321
12.3675
15.3615
17.9181
19.5868
26.7627
28.4063
24.036
18.9112
10.4392
1.61165
-0.144547
-0.111995
-0.0884018
-0.0632734
-0.028573
-0.0436098
-0.053922
-0.113576
-0.138608
-10.4612
11.2596
16.1663
20.4654
23.8582
26.9944
28.6706
29.3323
29.7044
29.9161
29.9026
8.8588
12.0226
14.6036
16.0069
24.0584
25.8718
21.07
15.1487
9.54462
0.206619
-0.205094
-0.135148
-0.0928963
-0.0724515
-0.0199293
-0.0611233
-0.078667
-0.103154
-0.155212
0.133959
1.8076
13.641
18.3599
21.3561
24.9666
25.7023
26.4149
26.7854
27.0134
27.0146
5.32447
8.70229
11.277
12.363
21.3956
23.3924
18.0343
11.0665
10.1947
0.0494096
-0.300245
-0.164948
-0.0990257
-0.0734838
-0.0536564
-0.0715026
-0.0885225
-0.104792
-0.143036
-0.189077
-18.8392
12.7088
16.9627
19.0675
21.2007
22.5893
23.3937
23.844
24.1148
24.1339
1.78435
5.41329
7.9305
8.65191
18.7648
20.9746
14.7763
7.75131
8.39536
0.0230519
-0.2823
-0.191041
-0.104417
-0.0853347
-0.0718194
-0.079122
-0.0933965
-0.107106
-0.13577
-0.131029
-0.043297
19.714
18.1902
18.1513
18.7739
19.5508
20.325
20.9593
21.3726
21.4391
110.504
110.491
110.427
110.294
110.074
109.746
109.287
108.672
107.877
106.883
105.682
104.288
102.749
101.157
99.649
98.3989
97.5789
97.2818
97.4828
98.1081
99.1019
100.453
102.158
104.065
105.74
106.522
106.007
104.612
102.991
101.588
107.297
107.272
107.19
107.035
106.788
106.427
105.928
105.265
104.415
103.361
102.098
100.648
99.0713
97.4725
96.0018
94.8401
94.1496
93.9892
94.309
95.0371
96.1282
97.5821
99.3717
101.281
102.8
103.26
102.448
100.94
99.3387
98.0832
104.096
104.069
103.986
103.829
103.579
103.215
102.711
102.041
101.181
100.112
98.83
97.3595
95.762
94.1439
92.6563
91.4844
90.7964
90.6455
90.9735
91.7118
92.8173
94.2889
96.0987
98.028
99.5612
100.023
99.1965
97.6808
96.0764
94.8163
100.872
100.845
100.761
100.604
100.354
99.9896
99.4835
98.8081
97.9369
96.8507
95.5469
94.0507
92.4263
90.7812
89.2675
88.0782
87.3938
87.2574
87.5971
88.3511
89.4795
90.9792
92.8205
94.7808
96.3369
96.7978
95.9489
94.4201
92.8111
91.5439
97.6387
97.6103
97.526
97.3696
97.1213
96.7572
96.249
95.5669
94.6824
93.5756
92.2444
90.7165
89.0589
87.3802
85.8312
84.6172
83.9394
83.8241
84.1789
84.9545
86.1146
87.653
89.5376
91.5401
93.1272
93.5862
92.7048
91.158
89.5429
88.266
94.4041
94.374
94.2886
94.1319
93.8838
93.5188
93.0065
92.3147
91.413
90.2806
88.9163
87.3507
85.6548
83.9369
82.3435
81.0966
80.4312
80.3449
80.7177
81.5208
82.7223
84.3103
86.2502
88.3063
89.9325
90.3883
89.4639
87.8945
86.2717
84.9827
91.1698
91.1368
91.049
90.891
90.6419
90.2743
89.7551
89.0498
88.1259
86.9617
85.5573
83.9474
82.2085
80.4477
78.7999
77.5097
76.8665
76.8191
77.2114
78.0485
79.3019
80.9508
82.9581
85.0792
86.7532
87.2042
86.2258
84.6293
82.9976
81.6938
87.9342
87.8968
87.8056
87.6462
87.3958
87.024
86.4947
85.7711
84.8187
83.615
82.1617
80.4996
78.7134
76.908
75.1949
73.8475
73.2429
73.2464
73.6578
74.5357
75.8526
77.5743
79.6614
81.8593
83.5899
84.0346
82.9902
81.3623
79.7207
78.3993
84.6951
84.6512
84.5568
84.3978
84.147
83.7691
83.2255
82.4775
81.4888
80.2357
78.7219
76.9975
75.1599
73.3126
71.5225
70.0975
69.5584
69.6268
70.0539
70.9802
72.3737
74.1805
76.3604
78.6469
80.4434
80.8801
79.7567
78.0936
76.441
75.0993
81.4483
81.3961
81.3027
81.1495
80.8985
80.5108
79.947
79.167
78.1324
76.8172
75.228
73.4277
71.5347
69.6547
67.776
66.2418
65.8124
65.9603
66.3956
67.3786
68.8643
70.7689
73.0549
75.4421
77.3143
77.7414
76.5244
74.8229
73.1585
71.7937
78.1734
78.1204
78.0556
77.9115
77.6541
77.2494
76.6576
75.8368
74.7448
73.3522
71.6675
69.7728
67.8187
65.9251
63.9504
62.2545
62.0072
62.2474
62.6776
63.7275
65.324
67.3394
69.7451
72.2453
74.2036
74.6193
73.2926
71.5501
69.8734
68.4825
75.1025
74.9915
74.8436
74.6845
74.4116
73.9826
73.3543
72.4827
71.3209
69.8319
68.0251
66.0095
63.9847
62.1095
60.0447
58.0955
58.1512
58.4885
58.8933
60.0218
61.7528
63.8915
66.4311
69.057
71.1124
71.515
70.0604
68.2753
66.5858
65.1656
71.6504
71.6316
71.5664
71.4397
71.1635
70.7055
70.0319
69.0997
67.8546
66.247
64.2822
62.1071
59.993
58.1808
56.0675
53.6942
54.2641
54.6826
55.034
56.2546
58.1517
60.4247
63.1129
65.8775
68.0416
68.4296
66.8264
64.9982
63.2957
61.8428
68.3232
68.3883
68.3267
68.2117
67.9138
67.4135
66.6845
65.6823
64.3407
62.5889
60.4182
58.027
55.7893
54.0848
52.0371
48.9062
50.389
50.8259
51.0893
52.4161
54.5234
56.939
59.7905
62.7075
64.9927
65.3647
63.5892
61.719
60.0033
58.5143
65.0331
65.1515
65.1863
65.0173
64.6598
64.0992
63.3043
62.224
60.7743
58.8507
56.4109
53.7195
51.3008
49.7168
47.9091
43.4514
46.6115
46.9042
47.0456
48.4908
50.8738
53.4342
56.4637
59.5476
61.967
62.3221
60.347
58.4376
56.7087
55.1798
61.8941
62.0222
62.0272
61.8026
61.3814
60.7513
59.8828
58.7189
57.1511
55.0289
52.2422
49.123
46.4248
44.9269
43.5227
36.8041
43.0283
42.8917
42.8862
44.4546
47.2004
49.9105
53.1318
56.3984
58.9657
59.304
57.0974
55.1543
53.412
51.8391
58.7821
58.8978
58.8355
58.554
58.0672
57.3617
56.4133
55.1618
53.4669
51.122
47.9063
44.1724
41.0214
39.4725
38.4565
26.957
39.564
38.756
38.5899
40.2723
43.5188
46.369
49.7939
53.2613
55.9907
56.3132
53.8377
51.8694
50.1134
48.4922
55.6281
55.7198
55.6033
55.2766
54.7214
53.9308
52.8924
51.5497
49.7143
47.1202
43.4021
38.8212
35.0218
32.8928
30.8356
13.3357
35.7188
34.3966
34.1328
35.8994
39.8397
42.8106
46.4475
50.1376
53.0434
53.3526
50.5645
48.5834
46.8127
45.1388
52.1867
54.4898
52.3774
51.9985
51.3636
50.4701
49.3221
47.8822
45.8802
42.9798
38.6521
33.0287
28.4342
24.7327
21.3232
3.96855
29.7808
29.5662
29.5054
31.2851
36.1852
39.2377
43.0884
47.0295
50.1253
50.4263
47.2734
45.2971
43.51
41.7786
49.5473
52.5183
49.2172
48.7517
48.0266
47.0055
45.7087
44.1569
41.9453
38.6211
33.5372
26.6412
21.2447
15.7044
11.9959
3.41703
18.2445
24.3013
24.6584
26.3522
32.5785
35.6547
39.7092
43.9405
47.2383
47.539
43.9594
42.0117
40.2051
38.4114
46.5652
46.4394
46.1032
45.5778
44.757
43.5804
42.0662
40.3396
37.889
33.9797
27.991
19.0194
13.1155
7.89994
3.67616
7.68927
6.11859
20.8432
19.5611
20.9223
29.0278
32.0718
36.2957
40.8756
44.3838
44.6962
40.6159
38.7288
36.8974
35.0367
43.6987
43.505
43.1235
42.524
41.6031
40.2495
38.4215
36.4317
33.8161
29.1744
22.0078
8.24287
3.13262
1.58568
-5.47351
7.4086
1.93468
16.5464
12.873
14.6163
25.4399
28.5106
32.8231
37.8427
41.563
41.9047
37.2344
35.4503
33.5855
31.6542
40.8978
40.6554
40.2396
39.5933
38.5927
37.0486
34.9013
32.6599
29.8078
24.6919
15.5441
-5.49251
-5.19725
-4.26705
-12.2083
2.46414
2.52163
12.2992
6.31975
7.58683
21.3621
24.9609
29.2489
34.8538
38.7771
39.1731
33.8049
32.1792
30.267
28.2633
38.1326
37.8634
37.4297
36.7666
35.7378
34.0161
31.2947
28.9554
25.9289
20.7107
9.55526
-15.9466
-10.3492
-0.0837385
-0.0542403
-0.0790342
-1.15611
7.40835
-1.17417
3.36604
15.9552
21.2025
25.4978
31.9275
36.0263
36.5118
30.3143
28.9189
26.9372
24.8635
35.3662
35.0808
34.6339
33.9791
32.9912
31.2299
28.6725
25.3044
22.3331
18.484
5.99233
-20.555
-0.0191769
-0.0690566
-0.070671
-0.07492
-0.119268
-0.145723
-1.52855
0.531018
9.62513
16.7626
21.4394
29.0915
33.3105
33.9346
26.7471
25.6742
23.587
21.4541
32.5613
32.2476
31.7735
31.1283
30.1686
28.2587
25.184
21.8812
19.0952
18.3704
5.19768
0.165183
-0.161819
-0.0483753
-0.0679371
-0.095257
-0.123292
-0.128704
0.00423391
-1.89891
7.43953
11.3346
16.856
26.3856
30.6285
31.4596
23.0845
22.4514
20.2008
18.0346
29.6991
29.3266
28.8029
28.1428
27.2359
25.5592
22.0412
18.4314
15.1899
17.8898
-28.2251
0.0380208
-0.164406
-0.108795
-0.0958921
-0.122227
-0.129619
-0.11878
-0.0464809
-0.0342953
12.3781
6.38819
11.6402
23.8602
27.9777
29.1112
19.305
19.2579
16.7511
14.604
26.7763
26.3379
25.7362
25.0172
23.9643
22.309
18.6725
14.6704
10.2767
12.3778
-0.212158
-0.0265219
-0.145124
-0.129848
-0.114274
-0.124782
-0.213855
-0.108487
-0.0717524
-0.171641
-0.410928
5.73569
6.92642
21.5528
25.354
26.9232
15.3856
16.1032
13.1921
11.1613
23.8698
23.3597
22.6714
21.8607
20.7648
18.9975
16.2749
12.4968
5.26886
-35.1002
-0.358104
-0.114628
-0.142449
-0.139568
-0.119735
-0.152728
-0.213043
-0.113478
-0.0851222
-0.235603
-0.205465
-10.0648
4.0431
19.4055
22.7525
24.9428
11.3044
12.9985
9.44894
7.70545
21.1539
20.5324
19.6154
18.5995
17.6871
16.7562
15.4536
13.953
5.27448
-0.0410058
-0.274868
-0.147921
-0.144589
-0.141652
-0.123153
-0.17706
-0.228148
-0.103022
-0.0916607
-0.258288
-0.106364
1.44444
1.17522
17.2809
20.1692
23.2372
7.04261
9.95541
5.39953
4.23707
-0.488521
2.77012
5.18448
5.58076
16.6315
19.0462
11.7057
5.78039
-18.3046
-0.0183038
-0.310231
-0.0772965
-0.10992
-0.0901799
-0.0848197
-0.0847421
-0.0971492
-0.109594
-0.133025
-0.116076
-0.0475742
-13.0286
20.9408
17.7126
16.6796
17.0238
17.7386
18.7547
19.3698
19.5013
-0.0967653
1.09365
3.42244
3.59932
15.2591
17.8255
9.41921
3.66812
0.691992
-0.035418
-0.288248
-0.0779029
-0.11291
-0.0924311
-0.0817567
-0.08844
-0.0998596
-0.111998
-0.131953
-0.116119
-0.0109332
1.81477
20.6262
16.9353
15.2448
15.3883
16.1808
17.3198
18.2301
18.5431
-0.0989501
0.351463
1.48414
1.45851
13.7532
16.4943
7.01219
-0.766218
0.163953
-0.0485207
-0.29472
-0.0857924
-0.108116
-0.100721
-0.0769649
-0.0922376
-0.102697
-0.11446
-0.132005
-0.119651
-0.0600882
-0.525181
-3.4329
15.2405
12.939
13.2804
14.3026
15.6813
17.1317
17.7398
-0.100419
-0.0482859
0.225441
-0.675714
12.0858
15.1103
3.93129
-11.3408
0.164977
-0.0582357
-0.217528
-0.0735178
-0.114911
-0.0919103
-0.103509
-0.0958455
-0.105819
-0.117282
-0.133555
-0.126087
-0.109915
-0.339623
-0.200266
0.922651
9.76584
10.7464
12.0996
13.5869
16.152
17.3384
-0.102091
-0.0639287
-0.0796863
-2.53994
10.2199
13.4498
2.23567
-30.2429
0.121816
-0.0660703
-0.16568
-0.0867935
-0.128393
0.0532983
-0.106143
-0.0991464
-0.10908
-0.121009
-0.135972
-0.134301
-0.142309
-0.244027
-0.183684
-0.17155
-0.12945
-2.78725
10.7004
8.262
16.3558
17.0461
-0.103783
-0.0807221
-0.124873
-1.51226
8.19719
11.7314
1.03846
-0.278591
0.0672778
-0.0734813
-0.202578
-0.0842657
-0.120854
-0.0905145
-0.0979076
-0.102423
-0.112597
-0.124924
-0.139905
-0.14304
-0.162328
-0.208882
-0.177052
-0.152323
-0.142778
-0.144157
-0.142257
-0.118457
-0.0997579
-0.0989782
-0.105738
-0.0718608
-0.131189
-0.12884
5.66113
8.86188
1.80774
-0.0999003
0.0646362
-0.0825657
-0.166571
-0.0876526
-0.130422
-0.177241
-0.0979882
-0.105903
-0.116138
-0.129038
-0.144427
-0.151017
-0.176776
-0.198853
-0.176176
-0.151344
-0.143479
-0.141752
-0.137021
-0.128044
-0.124803
-0.119883
-0.108063
-0.135543
-0.151087
-0.153488
-3.77217
5.83058
-7.54468
-0.030424
0.139613
-0.0935415
-0.144097
-0.0957304
-0.233472
-0.0751565
-0.10717
-0.109551
-0.119696
-0.13314
-0.149556
-0.148719
-0.187335
-0.197051
-0.178237
-0.15464
-0.146088
-0.14207
-0.136371
-0.130013
-0.125312
-0.1215
-0.110835
-0.144431
-0.1546
-0.158372
-7.39897
1.27384
0.213645
-0.03351
-0.0206606
-0.106273
-0.131146
-0.105869
-0.252925
-0.208396
-0.0995458
-0.113349
-0.123244
-0.137149
-0.154421
-0.167865
-0.190507
-0.197779
-0.181325
-0.159139
-0.148582
-0.142294
-0.136049
-0.130384
-0.125838
-0.122205
-0.114101
-0.159311
-0.168486
-0.171909
-0.125224
-0.0877124
0.123601
-0.0402544
-0.131687
-0.119577
-0.12327
-0.106974
-0.196221
-0.154808
-0.115659
-0.117264
-0.126687
-0.140458
-0.157522
-0.174902
-0.192941
-0.198151
-0.182739
-0.161595
-0.148951
-0.141246
-0.135096
-0.129875
-0.125809
-0.122639
-0.117849
-0.151683
-0.181437
-0.174936
-0.160833
-0.0932507
0.0391829
-0.046452
-0.0913719
-0.130618
-0.117622
-0.112067
-0.183434
-0.109173
-0.118728
-0.121047
-0.129945
-0.142948
-0.15874
-0.176864
-0.193106
-0.195909
-0.181175
-0.160725
-0.146797
-0.138975
-0.133579
-0.129108
-0.125625
-0.123104
-0.122114
-0.121467
-0.173345
-0.181864
-0.154007
-0.098602
-0.0132307
-0.0548655
-0.132864
-0.136934
-0.112933
-0.111642
-0.169512
-0.12304
-0.120341
-0.124552
-0.132972
-0.144804
-0.159102
-0.174794
-0.187904
-0.188827
-0.17503
-0.156551
-0.143555
-0.136546
-0.132116
-0.128613
-0.125889
-0.123912
-0.126899
-0.157778
-0.271811
-0.186662
-0.144722
-0.10476
-0.0466878
-0.0524118
-0.13169
-0.135803
-0.108808
-0.109408
-0.146553
-0.129441
-0.123178
-0.127849
-0.135747
-0.146129
-0.157784
-0.169504
-0.178059
-0.177032
-0.165495
-0.150985
-0.140462
-0.134554
-0.131093
-0.128755
-0.127035
-0.12582
-0.132165
-0.158712
-0.281539
-0.189495
-0.144013
-0.111757
-0.0694634
-0.0764552
-0.137822
-0.12844
-0.104621
-0.107663
-0.133116
-0.131388
-0.127409
-0.131008
-0.138267
-0.147151
-0.15584
-0.163142
-0.166884
-0.164103
-0.155147
-0.144932
-0.137156
-0.132699
-0.130215
-0.12856
-0.127309
-0.12649
-0.137892
-0.160439
-0.262485
-0.190968
-0.146587
-0.118793
-0.0867029
-0.08694
-0.11894
-0.121329
-0.10077
-0.104477
-0.121423
-0.135783
-0.131629
-0.133986
-0.140519
-0.148248
-0.154138
-0.157802
-0.158079
-0.154026
-0.146584
-0.139628
-0.134425
-0.131226
-0.12939
-0.12823
-0.12761
-0.127348
-0.144092
-0.162965
-0.236506
-0.191917
-0.15164
-0.126305
-0.101333
-0.0988193
-0.124214
-0.117649
-0.0970418
-0.105348
-0.112021
-0.143747
-0.134728
-0.13692
-0.142425
-0.150026
-0.153421
-0.15441
-0.152612
-0.148247
-0.142645
-0.137474
-0.133685
-0.131219
-0.129278
-0.128785
-0.128365
-0.128226
-0.15076
-0.167149
-0.222119
-0.19293
-0.1576
-0.134448
-0.11484
-0.111752
-0.126462
-0.118333
-0.0943008
-0.101255
-0.10898
-0.145436
-0.139655
-0.142442
-0.143999
-0.153388
-0.154036
-0.153224
-0.150534
-0.146454
-0.141997
-0.138093
-0.135169
-0.133188
-0.13195
-0.131233
-0.130931
-0.130971
-0.157857
-0.172468
-0.215016
-0.194391
-0.164133
-0.143201
-0.127927
-0.125526
-0.134595
-0.123278
-0.0925069
-0.0953543
-0.126995
-0.151001
-0.148665
-0.1421
-0.10598
-0.156781
-0.155716
-0.153996
-0.151196
-0.147718
-0.144236
-0.141262
-0.139011
-0.137464
-0.136508
-0.136017
-0.135893
-0.136058
-0.165382
-0.178467
-0.211496
-0.196518
-0.171098
-0.152548
-0.140936
-0.140131
-0.146967
-0.133072
-0.0942126
-0.0901527
-0.136527
-0.165691
-0.162988
-0.158141
-0.158416
-0.159859
-0.15836
-0.156508
-0.154145
-0.151462
-0.148875
-0.146688
-0.145026
-0.143885
-0.1432
-0.142891
-0.142881
-0.143103
-0.173352
-0.184999
-0.210312
-0.19943
-0.17842
-0.162467
-0.154079
-0.15563
-0.16325
-0.149985
-0.10543
-0.0978939
-0.164545
-0.200017
-0.190479
-0.176374
-0.169096
-0.165995
-0.163286
-0.161397
-0.159596
-0.157682
-0.155847
-0.154284
-0.153086
-0.152263
-0.15178
-0.151585
-0.151621
-0.151837
-0.181779
-0.191986
-0.211061
-0.203208
-0.186135
-0.172901
-0.167459
-0.17204
-0.184063
-0.180241
-0.126025
-0.135888
-0.225027
-0.264141
-0.233446
-0.201657
-0.183643
-0.177432
-0.172477
-0.170127
-0.168453
-0.166873
-0.165411
-0.164171
-0.163213
-0.162545
-0.162144
-0.16197
-0.161982
-0.162138
-0.190698
-0.199397
-0.21357
-0.20793
-0.194329
-0.183796
-0.181036
-0.189161
-0.210034
-0.237217
-0.175808
-0.211947
-0.336214
-0.364367
-0.296216
-0.23844
-0.206491
-0.186176
-0.186505
-0.183423
-0.181244
-0.179339
-0.177713
-0.176397
-0.175394
-0.174681
-0.17422
-0.173969
-0.173888
-0.17394
-0.200158
-0.207281
-0.21772
-0.213668
-0.203077
-0.195073
-0.194627
-0.20636
-0.239261
-0.284886
-0.267957
-0.329424
-0.490771
-0.496037
-0.372647
-0.283529
-0.2368
-0.215015
-0.205244
-0.201453
-0.197557
-0.194623
-0.192358
-0.190634
-0.189352
-0.188432
-0.1878
-0.187399
-0.187181
-0.187104
-0.210221
-0.215744
-0.223389
-0.22048
-0.212445
-0.206659
-0.207959
-0.222404
-0.266234
-0.330754
-0.294935
-0.444603
-0.634822
-0.627036
-0.443852
-0.327501
-0.271013
-0.242693
-0.22481
-0.220934
-0.215514
-0.211396
-0.208353
-0.206115
-0.204478
-0.203295
-0.202458
-0.201886
-0.201517
-0.201306
-0.220969
-0.224914
-0.23047
-0.228407
-0.222501
-0.218519
-0.220778
-0.235574
-0.28569
-0.393742
-0.419352
-0.496775
-0.674674
-0.641089
-0.46739
-0.350212
-0.295534
-0.269697
-0.253823
-0.240476
-0.232991
-0.22799
-0.224448
-0.221881
-0.220005
-0.218633
-0.217638
-0.216929
-0.216438
-0.216116
-0.23249
-0.234908
-0.238892
-0.237474
-0.233301
-0.230664
-0.23289
-0.244788
-0.287795
-0.380875
-0.394331
-0.452387
-0.572078
-0.542241
-0.424686
-0.342683
-0.300701
-0.278348
-0.264115
-0.254403
-0.247779
-0.243086
-0.239668
-0.237139
-0.235252
-0.233842
-0.23279
-0.232012
-0.231444
-0.23104
-0.244881
-0.245829
-0.24862
-0.247708
-0.24491
-0.24319
-0.244621
-0.251071
-0.269413
-0.326946
-0.315353
-0.353438
-0.426552
-0.416362
-0.361995
-0.321039
-0.297191
-0.282382
-0.272487
-0.265538
-0.260458
-0.256654
-0.253766
-0.251556
-0.249854
-0.248541
-0.247524
-0.246739
-0.246133
-0.24567
-0.258239
-0.257763
-0.259635
-0.259131
-0.257413
-0.256287
-0.25663
-0.257965
-0.258999
-0.259478
-0.240389
-0.27
-0.32366
-0.329101
-0.316186
-0.303552
-0.293579
-0.285902
-0.280009
-0.27546
-0.271917
-0.269136
-0.266939
-0.265196
-0.263804
-0.262686
-0.261783
-0.26105
-0.260449
-0.259955
-0.272677
-0.270791
-0.271928
-0.271767
-0.270918
-0.270231
-0.26976
-0.268293
-0.263937
-0.253266
-0.244684
-0.26068
-0.281401
-0.292004
-0.295169
-0.294611
-0.292447
-0.289787
-0.287169
-0.284816
-0.282793
-0.281089
-0.279668
-0.278485
-0.277494
-0.276661
-0.275953
-0.275347
-0.274822
-0.274363
-0.288295
-0.284979
-0.28549
-0.285641
-0.28555
-0.285311
-0.284657
-0.283001
-0.280086
-0.275969
-0.274074
-0.277753
-0.283267
-0.287849
-0.291754
-0.29437
-0.295601
-0.295799
-0.295416
-0.294774
-0.294059
-0.293361
-0.292717
-0.292138
-0.291623
-0.291164
-0.290753
-0.290382
-0.290045
-0.289736
19.1884
18.3804
17.1103
15.8296
15.3095
15.157
14.7074
17.4044
-38.5903
-0.20032
-0.2255
-0.154072
-0.145823
-0.140839
-0.124057
-0.11324
-0.116588
-0.0863828
-0.0922336
-0.233618
-0.0694709
0.397103
-1.27106
15.5702
18.0851
22.1211
3.42533
7.53
1.73735
1.49861
18.1318
17.0135
15.3888
14.0369
13.7664
14.1209
13.8604
16.6761
0.299952
-0.202169
-0.204766
-0.155354
-0.14637
-0.139706
-0.124119
-0.139405
-0.115617
-0.00406531
-0.0918541
-0.191674
-0.0574418
0.413289
-3.59388
14.4967
16.7716
21.5725
1.03559
6.00512
-0.827401
0.0407042
17.2554
15.6846
13.3212
11.5427
11.5549
12.5174
12.1505
-0.097644
-0.0385163
-0.186285
-0.189021
-0.155157
-0.146511
-0.138946
-0.124589
-0.0861782
-0.112798
-0.101013
-0.0940902
-0.176661
-0.0506355
0.327395
-26.2823
13.3517
15.4127
21.155
-1.61152
4.37001
-0.6182
0.034603
16.8975
14.3779
10.5816
8.08141
9.39116
10.8459
-0.138377
-0.0551096
-0.0895201
-0.169468
-0.176581
-0.15444
-0.146419
-0.138388
-0.125188
-0.0530356
-0.0951636
-0.0848748
-0.0630289
-0.160715
-0.0483001
0.247993
-0.573399
12.1349
13.0983
20.9587
-4.24412
2.71624
-0.556033
0.0294715
16.9176
14.0361
2.84882
-4.02567
-0.0849952
-0.0858004
-0.095297
-0.0746093
-0.109266
-0.1586
-0.167828
-0.153553
-0.146436
-0.138056
-0.125993
-0.0918186
-0.0673658
-0.0957559
-0.10867
-0.14566
-0.0498034
0.181868
0.147643
10.9979
11.7639
21.1679
-4.3618
-0.0475174
-0.534003
0.0214397
-0.0942582
-0.112713
-0.0905802
-0.092093
-0.0931185
-0.0891335
-0.0893968
-0.0948943
-0.123138
-0.154166
-0.161944
-0.153001
-0.146097
-0.138104
-0.127005
-0.102347
-0.171479
-0.0975146
-0.113922
-0.134983
-0.0542604
0.122145
0.110536
10.5644
10.4861
22.3452
-3.33033
-0.191863
-0.406647
0.0112986
-0.116745
-0.109943
-0.101039
-0.0973111
-0.0954028
-0.0956703
-0.100574
-0.112968
-0.134963
-0.153494
-0.158529
-0.151497
-0.14627
-0.138542
-0.128464
-0.111237
-0.165615
-0.106131
-0.127865
-0.126427
-0.0611844
0.0402921
0.000406117
6.94038
8.57797
24.7461
-0.297072
-0.193303
-0.414902
-0.000866524
-0.117875
-0.112897
-0.107327
-0.103483
-0.102316
-0.104984
-0.113306
-0.127146
-0.143775
-0.154511
-0.157037
-0.151246
-0.146621
-0.139421
-0.130488
-0.118918
-0.149571
-0.111465
-0.132913
-0.117064
-0.0703836
-0.0134162
-0.0611379
-0.069552
6.24825
28.1972
-0.285513
-0.206121
-0.39139
-0.0145432
-0.119054
-0.115473
-0.111957
-0.109912
-0.110673
-0.115606
-0.125233
-0.137974
-0.14909
-0.156039
-0.156065
-0.151915
-0.147203
-0.14078
-0.133117
-0.12539
-0.138956
-0.122762
-0.135328
-0.144676
-0.0814761
-0.0641676
-0.093079
-0.104034
3.33487
32.0757
-0.292311
-0.21324
-0.380424
-0.029263
-0.120078
-0.117764
-0.115997
-0.115975
-0.118925
-0.125731
-0.135782
-0.146181
-0.154811
-0.156889
-0.156785
-0.152507
-0.148106
-0.142588
-0.136301
-0.130825
-0.133746
-0.130502
-0.137326
-0.139176
-0.0936049
-0.104013
-0.106563
-0.117544
-0.25435
0.0732839
-0.279975
-0.189654
-0.375397
-0.0448369
-0.121158
-0.120014
-0.119938
-0.121788
-0.126572
-0.134408
-0.144192
-0.140147
-0.15931
-0.156313
-0.157363
-0.153348
-0.149336
-0.144824
-0.139936
-0.135744
-0.134408
-0.14854
-0.142692
-0.12954
-0.105324
-0.133041
-0.114976
-0.122593
-0.293252
-0.176218
-0.266873
-0.249756
-0.368987
-0.0608972
-0.122724
-0.122536
-0.123846
-0.127118
-0.132715
-0.140483
-0.148951
-0.154313
-0.157904
-0.147896
-0.157793
-0.154202
-0.150896
-0.147467
-0.143989
-0.140612
-0.134128
-0.17741
-0.147873
-0.13383
-0.114186
-0.139261
-0.121695
-0.130137
-0.2728
-0.187375
-0.259479
-0.270033
-0.364408
-0.0769508
-0.125193
-0.125484
-0.12727
-0.130411
-0.13633
-0.143365
-0.150237
-0.15482
-0.156738
-0.158004
-0.157289
-0.155077
-0.152755
-0.150484
-0.148521
-0.145839
-0.0771636
-0.176193
-0.141979
-0.143053
-0.121587
-0.132772
-0.128677
-0.140792
-0.253161
-0.181552
-0.25357
-0.279069
-0.356901
-0.0926092
-0.126253
-0.126808
-0.128555
-0.131773
-0.136614
-0.142351
-0.148027
-0.152305
-0.154792
-0.156351
-0.156815
-0.156076
-0.154872
-0.153805
-0.153623
-0.153334
-0.138567
-0.214257
-0.173455
-0.151185
-0.127102
-0.123098
-0.134058
-0.154273
-0.238197
-0.195889
-0.248576
-0.278482
-0.270522
-0.107624
-0.127486
-0.127929
-0.129243
-0.131586
-0.13536
-0.139909
-0.144392
-0.149304
-0.152791
-0.155343
-0.156868
-0.157339
-0.157212
-0.157286
-0.159174
-0.164975
-0.125473
-0.246392
-0.221148
-0.162925
-0.129614
-0.119604
-0.139098
-0.163687
-0.227514
-0.204742
-0.245078
-0.275728
-0.258611
-0.121807
-0.128401
-0.128977
-0.130188
-0.132236
-0.135145
-0.139108
-0.143497
-0.147928
-0.151944
-0.155227
-0.157596
-0.159012
-0.159755
-0.160686
-0.164374
-0.180753
-0.180638
-0.25262
-0.253318
-0.167557
-0.132305
-0.119051
-0.144326
-0.17109
-0.220374
-0.212941
-0.243063
-0.272077
-0.249194
-0.135074
-0.131293
-0.131957
-0.133119
-0.134927
-0.137451
-0.140667
-0.144479
-0.148602
-0.152661
-0.156288
-0.159204
-0.161259
-0.162544
-0.163716
-0.167547
-0.189757
-0.440819
-0.250895
-0.279821
-0.180458
-0.134359
-0.129888
-0.149946
-0.176968
-0.21606
-0.21921
-0.242258
-0.268151
-0.242227
-0.147424
-0.136459
-0.137135
-0.138195
-0.139734
-0.141831
-0.144514
-0.147748
-0.151381
-0.155162
-0.158781
-0.161921
-0.164314
-0.165779
-0.166363
-0.167187
-0.193447
1.67409
-0.257263
-0.274806
-0.159574
-0.138836
-0.135974
-0.155959
-0.182006
-0.214045
-0.223624
-0.242339
-0.264093
-0.237168
-0.158891
-0.143511
-0.144135
-0.145057
-0.146348
-0.148073
-0.150278
-0.152966
-0.156069
-0.159438
-0.162845
-0.165995
-0.168532
-0.169973
-0.169484
-0.164778
-0.145129
2.6236
-0.264986
-0.239428
-0.148392
-0.141956
-0.143698
-0.162341
-0.186757
-0.213904
-0.226846
-0.242963
-0.260198
-0.233978
-0.16956
-0.152198
-0.152728
-0.15349
-0.154539
-0.155934
-0.157721
-0.159927
-0.16254
-0.16549
-0.168634
-0.171738
-0.174431
-0.176038
-0.175093
-0.167505
-0.140684
-0.193178
-0.281686
-0.217609
-0.137258
-0.144944
-0.151425
-0.169047
-0.191645