/*--------------------------------*- C++ -*----------------------------------*\
| =========                 |                                                 |
| \\      /  F ield         | OpenFOAM: The Open Source CFD Toolbox           |
|  \\    /   O peration     | Version:  2.4.0                                 |
|   \\  /    A nd           | Web:      www.OpenFOAM.org                      |
|    \\/     M anipulation  |                                                 |
\*---------------------------------------------------------------------------*/
FoamFile
{
    version     2.0;
    format      ascii;
    class       volScalarField;
    location    "0.065";
    object      p;
}
// * * * * * * * * * * * * * * * * * * * * * * * * * * * * * * * * * * * * * //

dimensions      [1 -1 -2 0 0 0 0];

internalField   nonuniform List<scalar> 
57600
(
98.4561
99.9941
101.853
104.593
107.852
111.05
113.658
115.45
116.37
116.293
115.133
113.02
110.29
107.353
104.578
102.24
100.486
99.33
98.6875
98.4285
98.4236
98.5652
98.7733
98.9932
99.1913
99.3504
99.4648
99.5363
99.5711
99.577
95.1918
97.0875
99.1845
102.097
105.401
108.498
110.916
112.499
113.188
112.847
111.431
109.127
106.301
103.365
100.667
98.4559
96.8478
95.8287
95.2968
95.1177
95.1651
95.3376
95.561
95.7856
95.9818
96.1351
96.242
96.3057
96.3334
96.3332
91.9216
93.8182
95.9142
98.829
102.141
105.247
107.668
109.249
109.938
109.597
108.177
105.861
103.018
100.063
97.345
95.1151
93.4923
92.4644
91.9292
91.7513
91.8036
91.984
92.2169
92.4512
92.6561
92.8163
92.9279
92.9943
93.0231
93.023
88.6456
90.5427
92.6366
95.555
98.8795
102.001
104.428
106.008
106.699
106.359
104.932
102.598
99.7286
96.7433
93.9944
91.7345
90.0871
89.0424
88.4973
88.3154
88.3693
88.5562
88.7989
89.0441
89.2589
89.4271
89.5443
89.614
89.6442
89.6444
85.3637
87.2609
89.3518
92.2747
95.6157
98.7589
101.197
102.778
103.472
103.134
101.699
99.3386
96.4315
93.4049
90.6123
88.3093
86.6256
85.5544
84.9919
84.8004
84.853
85.0467
85.302
85.5624
85.7922
85.973
86.0997
86.1753
86.2081
86.2085
82.076
83.9729
86.0597
88.9879
92.35
95.5219
97.9744
99.5575
100.256
99.9209
98.4752
96.0825
93.1264
90.0462
87.1965
84.8361
83.1029
81.9946
81.4065
81.199
81.2465
81.4473
81.7192
82.0007
82.2521
82.4522
82.5939
82.6792
82.7163
82.7171
78.7823
80.6787
82.7602
85.6945
89.0821
92.2897
94.7611
96.3466
97.0521
96.7205
95.2626
92.8297
89.8123
86.6658
83.7443
81.3107
79.5135
78.3567
77.7339
77.503
77.5411
77.7496
78.0432
78.3531
78.6335
78.86
79.0231
79.1229
79.1666
79.1673
75.4828
77.3782
79.4533
82.3943
85.8119
89.0625
91.5567
93.1448
93.8585
93.5322
92.0608
89.5804
86.4881
83.2616
80.2525
77.7277
75.8501
74.6322
73.9654
73.7025
73.7256
73.9432
74.2655
74.6127
74.9307
75.1907
75.3814
75.5006
75.553
75.5519
72.1773
74.0716
76.1388
79.0872
82.5392
85.8405
88.3613
89.9516
90.675
90.3554
88.8702
86.3346
83.1526
79.8318
76.7175
74.0805
72.1036
70.8101
70.0897
69.7853
69.7859
70.0146
70.3758
70.7723
71.1375
71.4375
71.6603
71.8024
71.8618
71.8446
68.8657
70.7587
72.8167
75.7728
79.2636
82.6236
85.1751
86.7664
87.5007
87.1891
85.6908
83.0929
79.8042
76.3737
73.1349
70.3606
68.2613
66.8759
66.0923
65.7359
65.7032
65.9465
66.3621
66.8248
67.2493
67.5953
67.8507
68.0133
68.0748
68.0257
65.5482
67.4396
69.4868
72.4509
75.9848
79.4122
81.9981
83.5883
84.3347
84.0328
82.5231
79.856
76.441
72.8849
69.5
66.5573
64.3078
62.81
61.9549
61.5363
61.4535
61.7171
62.2117
62.7651
63.2659
63.6662
63.9532
64.1245
64.1627
64.0905
62.2245
64.1145
66.1492
69.1211
72.7026
76.2064
78.8306
80.4166
81.176
80.8853
79.3676
76.6251
73.0611
69.3628
65.8086
62.6578
60.2239
58.5856
57.6525
57.1658
57.0048
57.2992
57.9112
58.5903
59.1927
59.6643
59.9937
60.1826
60.2256
60.1311
58.8945
60.7831
62.8034
65.783
69.4163
73.0063
75.6728
77.2502
78.023
77.745
76.2245
73.4023
69.6617
65.8041
62.0566
58.6468
55.9855
54.1649
53.1487
52.602
52.3114
52.6579
53.4482
54.3001
55.0376
55.6098
56.0134
56.2649
56.393
56.446
55.5583
57.4457
59.4496
62.4363
66.1256
69.8124
72.5251
74.0879
74.8743
74.6105
73.0947
70.1907
66.2401
62.2054
58.2386
54.5099
51.5649
49.4925
48.3862
47.8241
47.3034
47.7532
48.8153
49.8952
50.8065
51.5164
52.0356
52.3949
52.6418
52.8142
52.2157
54.1022
56.0876
59.0805
62.83
66.6249
69.388
70.9283
71.7276
71.4787
69.9785
66.9945
62.7931
58.5624
54.3449
50.2341
46.927
44.4757
43.2722
42.8088
41.8513
42.548
44.0141
45.3731
46.4949
47.3812
48.0521
48.5422
48.8998
49.1733
48.8665
50.7527
52.7171
55.7149
59.5286
63.4441
66.2619
67.77
68.5803
68.3462
66.8766
63.8197
59.3171
54.8692
50.3671
45.7721
42.0463
38.9154
37.6794
37.455
35.6503
37.0408
39.0542
40.7176
42.0845
43.186
44.0396
44.6687
45.103
45.3502
45.5105
47.3972
49.3382
52.3391
56.2212
60.2705
63.1476
64.6116
65.4291
65.209
63.7897
60.6745
55.81
51.1185
46.2204
41.0704
36.6242
32.6821
31.4491
31.2908
28.3436
31.2812
33.9022
35.8744
37.5405
38.9066
39.9779
40.7622
41.2763
41.5162
42.1475
44.0358
45.9507
48.9522
52.9069
57.1047
60.0462
61.4514
62.2695
62.0613
60.7181
57.5691
52.272
47.2984
41.9275
36.2956
30.3559
25.6226
24.3697
23.5653
20.4669
25.0139
28.2881
30.7228
32.8281
34.5304
35.8579
36.8278
37.4343
37.6917
38.7771
40.6685
42.5544
45.5532
49.5853
53.9471
56.9586
58.2883
59.0953
58.8954
57.6633
54.5154
48.7115
43.3665
37.5737
31.3777
23.3897
17.3002
16.8842
15.1883
12.9115
17.051
21.5587
25.1054
27.9497
30.0846
31.6885
32.8899
33.6284
33.92
35.3989
37.2955
39.1498
42.1413
46.2563
50.7991
53.8866
55.1219
55.8981
55.7002
54.6277
51.5267
45.1538
39.1867
33.0938
25.4512
15.514
7.49159
8.7535
8.96496
5.29057
7.3288
13.2817
19.0155
22.9801
25.6467
27.5486
29.0102
29.958
30.3208
32.0126
33.9169
35.7369
38.715
42.92
47.6617
50.8313
51.9523
52.665
52.4579
51.6161
48.6156
41.6555
34.3201
28.2053
19.0331
5.37263
-4.99796
-1.00159
2.7056
-3.83598
-5.18549
4.43418
12.9681
18.0544
21.2869
23.5689
25.3011
26.5015
26.9742
28.6172
30.5326
32.3161
35.272
39.5776
44.5372
47.7943
48.7817
49.3765
49.1394
48.6377
45.792
38.3204
27.5177
23.668
13.2936
-7.12408
-12.4141
-6.37464
-1.60834
-4.94861
-19.0914
-4.15665
7.79151
13.2552
16.8593
19.829
22.1183
23.5735
24.1442
25.212
27.1429
28.888
31.8096
36.2318
41.4284
44.7766
45.6145
46.002
45.6947
45.7133
43.0618
35.2809
17.6028
18.3354
8.08567
-5.16628
0.10065
-0.0787067
-0.0904469
-0.044718
-0.0242814
-0.630908
14.4612
9.10592
12.0248
16.1545
19.5661
21.5817
22.3439
21.796
23.7478
25.4537
28.3229
32.8872
38.3391
41.7784
42.4588
42.495
42.0357
42.8795
40.4226
32.315
8.99482
11.9424
5.82809
-0.241935
0.00451524
-0.122601
-0.109129
-0.0784111
-0.0615163
-0.0725659
-0.0662749
-0.179562
3.08853
11.2406
17.2389
20.8467
21.8527
18.3674
20.3473
22.0154
24.8046
29.5513
35.2729
38.7988
39.3278
38.781
38.0059
40.1948
37.8477
27.128
1.67402
5.2128
-9.78033
-0.120206
-0.0554771
-0.134111
-0.127108
-0.109808
-0.093596
-0.083948
-0.0780699
-0.077751
-0.071972
-0.0657985
-0.0869403
0.100465
1.31915
14.9243
16.9416
18.5764
21.2427
26.2336
32.2306
35.8347
36.2424
34.7437
33.3013
37.7328
35.4543
21.238
1.81298
2.20954
-0.17649
-0.0961995
-0.0875607
-0.131806
-0.135305
-0.129352
-0.1203
-0.106854
-0.0897775
-0.0799035
-0.0758823
-0.0776157
-0.0816889
-0.0864839
-0.0878609
11.465
13.5307
15.1425
17.6169
22.9417
29.2084
32.8817
33.232
30.1982
27.2775
35.4864
33.5307
15.9743
3.74851
0.0565997
-0.127734
-0.0963988
-0.10251
-0.130586
-0.140819
-0.143788
-0.141174
-0.128041
-0.103039
-0.083498
-0.0760144
-0.0760046
-0.0787426
-0.081536
-0.0832793
7.98725
10.1147
11.7241
13.8952
19.6756
26.1972
29.944
30.3334
24.8402
19.4341
33.0306
31.2713
13.6817
-30.7267
-0.0735122
-0.104568
-0.100369
-0.110363
-0.131698
-0.145856
-0.15426
-0.155131
-0.142839
-0.11542
-0.0907976
-0.0798621
-0.0776718
-0.0787653
-0.0804236
-0.081762
4.49232
6.69409
8.34059
10.0302
16.4192
23.1856
27.07
27.5814
18.1783
12.4581
27.5056
28.6221
15.677
-0.430886
-0.11895
-0.0965323
-0.103615
-0.114995
-0.133351
-0.148676
-0.161213
-0.160449
-0.149366
-0.123846
-0.0987175
-0.0856171
-0.081834
-0.0814908
-0.0822923
-0.0833838
1.02654
3.26957
5.0286
5.96509
13.1243
20.1608
24.3614
24.9678
10.3763
3.83702
18.269
25.0815
18.9104
-0.489268
-0.123971
-0.0948107
-0.106285
-0.118513
-0.134463
-0.149947
-0.161644
-0.156938
-0.149692
-0.127683
-0.104602
-0.0915522
-0.0867321
-0.085508
-0.0857229
-0.0865251
99.5612
99.5252
99.4626
99.3671
99.2318
99.0503
98.8195
98.5424
98.234
97.9274
97.6801
97.579
97.7412
98.3046
99.4014
101.108
103.391
106.079
108.894
111.497
113.527
114.688
114.834
113.933
111.988
109.13
105.875
102.922
100.698
99.3111
96.3119
96.2688
96.1972
96.0907
95.9422
95.7455
95.498
95.2048
94.8851
94.578
94.3493
94.2951
94.5402
95.226
96.4766
98.3454
100.762
103.519
106.321
108.817
110.651
111.563
111.445
110.278
108.075
105.046
101.803
99.0122
97.0016
95.8528
93.0011
92.9571
92.8847
92.7775
92.628
92.4291
92.1768
91.8759
91.5458
91.2276
90.9895
90.9295
91.1737
91.8643
93.1265
95.0128
97.4491
100.225
103.043
105.553
107.397
108.313
108.199
107.035
104.827
101.786
98.5335
95.7418
93.7337
92.5862
89.6221
89.5777
89.5053
89.3988
89.2499
89.0499
88.7928
88.4826
88.1401
87.8095
87.5624
87.4993
87.7471
88.4489
89.7311
91.6456
94.1136
96.9187
99.7627
102.295
104.152
105.076
104.967
103.804
101.586
98.5234
95.2571
92.4642
90.4602
89.3151
86.1856
86.1406
86.0687
85.9639
85.816
85.6133
85.3474
85.0225
84.662
84.3151
84.0585
83.9949
84.2517
84.9724
86.2849
88.2403
90.7532
93.5984
96.4787
99.0425
100.918
101.851
101.747
100.586
98.3524
95.2594
91.9734
89.1793
87.1812
86.0394
82.6927
82.6466
82.5764
82.4753
82.329
82.1203
81.8389
81.4907
81.1043
80.7362
80.4697
80.4096
80.6818
81.4299
82.7838
84.7942
87.3666
90.2638
93.1909
95.7953
97.6945
98.6378
98.5414
97.3798
95.1261
91.9933
88.6823
85.887
83.8968
82.7593
79.14
79.093
79.0284
78.9366
78.7925
78.572
78.2651
77.882
77.4594
77.0638
76.7872
76.7356
77.0305
77.8153
79.223
81.3041
83.9523
86.9136
89.8988
92.5537
94.4808
95.4366
95.3486
94.1867
91.9071
88.7247
85.3834
82.5873
80.6069
79.4747
75.5194
75.4749
75.4304
75.3582
75.2131
74.9694
74.6221
74.1891
73.7168
73.2859
72.9999
72.9635
73.2895
74.1209
75.5962
77.7659
80.5084
83.5466
86.6019
89.318
91.2771
92.2467
92.1687
91.0065
88.6958
85.4533
82.0765
79.2801
77.3115
76.1857
71.7902
71.7707
71.8145
71.7609
71.5962
71.3095
70.9029
70.4015
69.863
69.3869
69.0936
69.0816
69.4481
70.3371
71.8952
74.1744
77.0332
80.1614
83.2997
86.0885
88.0831
89.0676
89.0016
87.8394
85.4924
82.1789
78.7614
75.9654
74.0109
72.8926
68.0311
68.0747
68.198
68.1346
67.9305
67.5809
67.0958
66.5056
65.8801
65.346
65.0503
65.0756
65.4925
66.4509
68.11
70.5235
73.5246
76.7558
79.9916
82.8659
84.8983
85.8984
85.8468
84.6856
82.2971
78.9007
75.4375
72.6431
70.705
69.5952
64.1382
64.378
64.5894
64.4306
64.1879
63.7647
63.1859
62.4859
61.7469
61.1363
60.8479
60.9283
61.4049
62.4457
64.2277
66.8055
69.981
73.3276
76.6772
79.6508
81.722
82.7383
82.7041
81.5452
79.1103
75.6181
72.1045
69.313
67.394
66.2939
60.1789
60.559
60.7342
60.6549
60.3456
59.841
59.1582
58.3277
57.4401
56.7227
56.4595
56.6193
57.1616
58.3001
60.2332
63.0113
66.4015
69.8737
73.3562
76.4446
78.5537
79.5859
79.5731
78.4186
75.9324
72.3306
68.762
65.9753
64.0779
62.9887
56.5535
56.8292
56.8878
56.7488
56.3801
55.7934
55.0012
54.0204
52.9362
52.0571
51.8515
52.1233
52.7296
53.9851
56.1081
59.1293
62.7859
66.3899
70.0286
73.249
75.3918
76.4397
76.4532
75.3059
72.7638
69.0368
65.4092
62.6296
60.7567
59.6798
52.7955
52.9189
52.8738
52.7305
52.2848
51.6117
50.7077
49.5618
48.2204
47.072
46.9787
47.4098
48.0605
49.4634
51.8337
55.143
59.1359
62.8706
66.6956
70.0664
72.2348
73.2979
73.3443
72.2074
69.6054
65.7361
62.0458
59.2762
57.4307
56.3676
49.4436
55.8805
49.0665
48.5863
48.0531
47.2894
46.2711
44.9567
43.3003
41.6659
41.756
42.4402
43.0754
44.6893
47.3916
51.0248
55.4554
59.3072
63.3592
66.8999
69.0792
70.1579
70.2457
69.1232
66.4579
62.4269
58.6711
55.9148
54.1001
53.0522
45.3428
45.0451
44.6548
44.3133
43.7001
42.8235
41.6743
40.1998
38.2241
35.6777
35.906
37.1557
37.6237
39.6188
42.7309
46.7144
51.7547
55.6872
60.0237
63.7534
65.9201
67.0166
67.1572
66.0534
63.3224
59.1077
55.2845
52.5455
50.7648
49.7339
41.4497
41.1426
40.661
40.0659
39.2683
38.2106
36.8727
35.2149
32.9971
29.113
28.8743
31.298
31.5233
34.0705
37.6843
42.1803
48.0506
51.9915
56.6969
60.6321
62.7491
63.8701
64.0787
62.998
60.2002
55.7768
51.8854
49.1683
47.4251
46.413
37.6051
37.2217
36.6091
35.7986
34.758
33.4446
31.791
29.7437
26.9881
21.9781
20.9111
23.9329
24.8886
27.8718
32.4081
37.6009
44.356
48.1882
53.3906
57.5421
59.5614
60.713
61.0104
59.9567
57.093
52.4319
48.4731
45.7833
44.0811
43.0899
33.7979
33.3305
32.5492
31.4801
30.1696
28.5492
26.3794
23.3938
18.8434
14.1112
13.1752
15.9686
17.5841
20.7287
26.8961
32.7722
40.6614
44.221
50.1222
54.4907
56.3385
57.5386
57.9534
56.929
54.003
49.0707
45.047
42.3907
40.7328
39.7651
30.1539
29.5456
28.5048
27.1176
25.5111
23.5823
20.7349
16.1494
9.15271
3.98475
5.6723
9.77491
9.46128
13.4079
20.6747
27.6441
36.8402
40.0002
46.9151
51.4862
53.0574
54.3377
54.9102
53.9144
50.933
45.6908
41.6068
38.991
37.3808
36.4393
26.7707
25.9458
24.5392
22.7459
20.7564
18.5248
15.275
9.07928
-0.981712
-5.94388
-3.14575
3.08742
-1.32249
2.67215
14.0088
22.1946
32.6258
35.4885
43.7946
48.537
49.6849
51.0974
51.8853
50.9119
47.8867
42.2896
38.152
35.5846
34.0249
33.1129
23.872
22.7923
20.9135
18.3489
15.5753
13.2383
10.7504
3.56836
-11.3882
-12.3048
-4.40968
-1.28577
-5.46407
-6.79868
5.85651
16.424
25.5301
30.9465
40.7838
45.6514
46.1697
47.7992
48.8861
47.9211
44.8689
38.8651
34.6823
32.1724
30.6653
29.7867
22.0001
20.5492
17.8313
13.7447
9.1045
7.97705
13.6272
0.240013
-0.0333103
-0.0280297
-0.0581275
-0.0804616
-0.100498
-7.35104
2.20392
10.4362
16.3147
27.5505
37.9018
42.8358
42.4267
44.4151
45.9257
44.9427
41.886
35.4169
31.1975
28.7557
27.3023
26.4616
21.6094
19.3646
15.5676
7.90986
-2.64314
-0.505063
-0.097896
-0.130441
-0.0518293
-0.0556165
-0.0895856
-0.121805
-0.129569
-0.0577784
0.892873
9.88784
5.27764
26.45
35.1622
40.0951
38.3035
40.9016
43.0226
41.9806
38.9465
31.9463
27.6967
25.336
23.9359
23.1385
0.908807
-0.0474292
-0.106427
-0.0674338
-0.0739912
-0.0861979
-0.0977098
-0.101629
-0.0831378
-0.0867814
-0.117999
-0.152258
-0.170078
-0.104349
0.027363
9.67731
-3.67949
23.6392
32.4597
37.4241
33.5018
37.1892
40.2056
39.043
36.0619
28.4575
24.178
21.9156
20.5663
19.8181
-0.0887167
-0.0867338
-0.0843332
-0.0803162
-0.0818088
-0.0911589
-0.104125
-0.110063
-0.104202
-0.105408
-0.129192
-0.15928
-0.176375
-0.123264
-0.0805754
-6.95585
-4.62444
17.2955
29.1634
34.816
27.4006
33.1556
37.5166
36.1433
33.2473
24.9567
20.637
18.4979
17.1939
16.5018
-0.083984
-0.0838967
-0.0836072
-0.0847819
-0.090406
-0.102201
-0.115791
-0.122626
-0.119333
-0.118156
-0.132647
-0.154872
-0.165879
-0.127713
-0.0800677
0.0483716
-4.9074
7.69603
25.3875
32.24
19.0361
28.5416
35.008
33.2875
30.5227
21.4527
17.0662
15.0872
13.8185
13.19
-0.0828182
-0.0840146
-0.0861877
-0.091135
-0.100642
-0.114411
-0.127257
-0.133917
-0.130766
-0.12763
-0.13544
-0.149521
-0.154582
-0.127166
-0.0861187
0.0183654
-3.55081
-0.120285
23.0309
29.6288
11.1924
22.8687
32.7359
30.4425
27.9148
17.9591
13.4553
11.6904
10.4405
9.88321
-0.0846676
-0.086812
-0.0909452
-0.0984173
-0.110136
-0.124137
-0.135476
-0.142899
-0.139141
-0.134606
-0.137978
-0.145982
-0.146976
-0.126634
-0.0947489
-0.0726799
-0.289007
7.56039
20.3315
26.6515
6.86569
16.872
30.6604
27.4984
25.4584
14.4893
9.79023
8.3183
7.05968
6.58117
-0.0879513
-0.0906832
-0.0959266
-0.104772
-0.116749
-0.130304
-0.139369
-0.147247
-0.143989
-0.138958
-0.139917
-0.143766
-0.142558
-0.127339
-0.103708
-0.0986036
-0.224601
9.52799
17.3367
22.4763
6.62657
11.4737
28.109
24.2039
23.1997
11.0296
6.06319
4.98615
3.676
3.28535
-0.102934
0.476905
2.43265
2.47875
10.4142
17.6787
22.3747
22.8246
5.06745
-4.91952
19.8215
21.2036
17.9683
-0.603073
-0.114956
-0.0944112
-0.108388
-0.12064
-0.134893
-0.148832
-0.162674
-0.125838
-0.156464
-0.127841
-0.10718
-0.0952383
-0.0900812
-0.0886234
-0.0884513
-0.0890406
-0.0951159
-0.0529037
0.88573
0.185944
8.72148
16.0695
21.2357
21.3217
1.95523
-9.44663
22.5674
18.1886
5.76469
-0.910817
-0.112256
-0.0944177
-0.1099
-0.121986
-0.135205
-0.147505
-0.160174
-0.13576
-0.155691
-0.126789
-0.108136
-0.096991
-0.091809
-0.0904402
-0.0899173
-0.0902906
-0.0964772
-0.0547867
1.10347
0.185309
6.92173
14.3036
20.0446
19.5024
-2.0805
-13.5151
17.3947
13.0541
-9.94593
-0.803458
-0.101135
-0.0946132
-0.111413
-0.123256
-0.135149
-0.145656
-0.155515
-0.149288
-0.142362
-0.12442
-0.108296
-0.0982986
-0.0927613
-0.092481
-0.0911774
-0.0913818
-0.0980749
-0.0569964
0.0125119
-0.539339
5.82103
12.34
19.2714
17.4582
-6.73712
-10.662
11.0244
5.39047
-7.96601
-0.701436
-0.0816377
-0.0951096
-0.113013
-0.124522
-0.134793
-0.142776
-0.15017
-0.145046
-0.135494
-0.121465
-0.107853
-0.0992934
-0.0925337
-0.0925808
-0.0922444
-0.0923871
-0.0998571
-0.059558
-0.07022
-0.294107
-0.258065
10.2577
17.9084
15.4611
-10.7669
0.621152
12.7318
-2.58925
-0.2717
-0.637804
-0.0762506
-0.0962379
-0.114874
-0.125899
-0.134632
-0.14126
-0.144879
-0.140063
-0.130351
-0.118362
-0.107019
-0.099673
-0.0961215
-0.0939814
-0.0935362
-0.0938929
-0.101853
-0.0625327
0.0732996
-0.264353
-0.0351977
8.86337
16.5368
15.2766
-3.05613
0.268147
0.889445
1.45008
-0.0680303
-0.659346
-0.075605
-0.0985033
-0.117136
-0.1275
-0.134723
-0.139332
-0.140827
-0.135382
-0.126063
-0.115653
-0.106464
-0.0997712
-0.0955814
-0.0953547
-0.0946971
-0.0949247
-0.104103
-0.0659803
0.0363422
-0.242378
-0.0699847
-2.21423
13.2506
14.0647
-0.781357
0.0795674
0.374836
0.174879
-0.123677
-0.75974
-0.0841293
-0.102435
-0.119917
-0.129435
-0.135165
-0.137835
-0.137018
-0.131608
-0.122669
-0.113168
-0.106476
-0.100044
-0.0977733
-0.0964049
-0.0953932
-0.0955822
-0.106649
-0.0699618
0.00262172
-0.183397
-0.0916707
-8.77358
11.9218
-0.379479
-0.659148
0.0182709
0.113168
0.0117985
-0.16129
-0.799839
-0.083379
-0.108152
-0.123349
-0.131728
-0.135995
-0.136898
-0.134425
-0.128486
-0.120612
-0.112959
-0.106415
-0.101757
-0.0988866
-0.0975656
-0.0956185
-0.0961216
-0.109521
-0.0745279
-0.024698
-0.211601
-0.114911
-0.2007
19.2331
-0.0365471
-0.412937
-0.0498187
-0.00762694
-0.0690009
-0.264207
-0.686877
-0.108591
-0.115753
-0.127555
-0.134507
-0.137368
-0.136788
-0.133148
-0.126978
-0.119725
-0.11288
-0.107262
-0.103181
-0.100597
-0.0991683
-0.0985426
-0.0983281
-0.11274
-0.0797098
-0.0483852
-0.21844
-0.163933
-0.182248
-0.0821944
0.000608412
-0.566751
-0.137672
-0.0762239
-0.103463
-0.244761
-0.520786
-0.151189
-0.124927
-0.132589
-0.13794
-0.13948
-0.137699
-0.133277
-0.127067
-0.120329
-0.114165
-0.109176
-0.105532
-0.103136
-0.101732
-0.101071
-0.100982
-0.116334
-0.0855248
-0.0690068
-0.229445
-0.206405
-0.176555
-0.0416319
-0.0705599
-0.464425
-0.306124
-0.117921
-0.124201
-0.231633
-0.412786
-0.167611
-0.134546
-0.138422
-0.142163
-0.142499
-0.139761
-0.134819
-0.128663
-0.122359
-0.116726
-0.112188
-0.108838
-0.106566
-0.105182
-0.104499
-0.104372
-0.120337
-0.0919684
-0.086926
-0.229216
-0.239975
-0.171705
-0.0617292
-0.0948868
-0.348009
-0.294951
-0.146374
-0.131574
-0.194626
-0.295101
-0.174566
-0.143614
-0.145015
-0.147324
-0.146607
-0.143095
-0.13777
-0.131672
-0.1257
-0.120458
-0.116232
-0.113068
-0.110869
-0.109482
-0.108751
-0.10854
-0.124752
-0.0990144
-0.102539
-0.231417
-0.224519
-0.167432
-0.060735
-0.121729
-0.242935
-0.308767
-0.168597
-0.13335
-0.153067
-0.237346
-0.176844
-0.151795
-0.152463
-0.153644
-0.152034
-0.147846
-0.142145
-0.13602
-0.130242
-0.125248
-0.121214
-0.118154
-0.115979
-0.114558
-0.113751
-0.113429
-0.129612
-0.106624
-0.116149
-0.229337
-0.272956
-0.164786
-0.0889825
-0.129937
-0.211429
-0.302997
-0.188138
-0.140087
-0.124158
-0.205905
-0.176998
-0.159426
-0.160907
-0.161486
-0.159096
-0.154214
-0.147977
-0.141645
-0.135889
-0.13099
-0.127036
-0.124006
-0.121809
-0.120322
-0.119415
-0.118965
-0.134936
-0.114742
-0.128113
-0.224508
-0.263274
-0.166045
-0.105537
-0.137681
-0.196669
-0.278179
-0.207365
-0.153068
-0.106838
-0.189179
-0.178276
-0.165042
-0.168116
-0.171401
-0.168216
-0.162477
-0.155275
-0.148444
-0.142516
-0.137566
-0.133584
-0.130515
-0.128254
-0.126678
-0.125658
-0.125074
-0.140747
-0.12331
-0.138886
-0.220527
-0.236003
-0.168002
-0.121726
-0.144968
-0.18644
-0.259317
-0.228654
-0.178389
-0.156247
-0.181979
-0.183738
-0.177887
-0.185938
-0.173669
-0.179056
-0.172932
-0.163926
-0.156215
-0.149945
-0.144814
-0.140707
-0.137541
-0.135194
-0.133527
-0.132404
-0.131702
-0.147064
-0.132273
-0.148866
-0.216324
-0.219726
-0.17104
-0.136628
-0.152762
-0.184604
-0.252054
-0.254494
-0.219314
-0.168552
-0.187612
-0.201761
-0.1875
-0.199978
-0.212163
-0.201186
-0.18395
-0.173561
-0.164493
-0.157916
-0.152482
-0.148165
-0.144885
-0.142472
-0.140753
-0.139573
-0.138802
-0.153893
-0.141582
-0.158521
-0.212714
-0.21326
-0.175355
-0.150082
-0.161327
-0.189191
-0.254427
-0.287523
-0.273105
-0.200754
-0.222159
-0.240761
-0.246106
-0.231353
-0.236704
-0.215095
-0.188825
-0.188729
-0.172885
-0.166236
-0.160152
-0.155587
-0.152281
-0.149922
-0.148267
-0.14713
-0.146374
-0.16126
-0.151201
-0.167584
-0.210484
-0.210481
-0.180675
-0.162114
-0.170488
-0.197052
-0.263556
-0.3297
-0.323068
-0.262791
-0.294492
-0.319358
-0.315222
-0.290344
-0.261722
-0.2309
-0.207598
-0.156009
-0.187632
-0.174231
-0.166955
-0.162504
-0.159544
-0.157515
-0.15612
-0.155174
-0.154548
-0.169192
-0.161108
-0.176266
-0.209741
-0.209639
-0.186695
-0.172962
-0.179678
-0.205396
-0.276335
-0.37496
-0.381213
-0.354957
-0.411042
-0.456751
-0.425672
-0.353771
-0.289519
-0.243032
-0.215236
-0.200732
-0.188857
-0.178433
-0.172596
-0.169251
-0.167113
-0.165679
-0.164709
-0.164065
-0.163654
-0.177711
-0.171295
-0.184862
-0.210557
-0.21051
-0.193215
-0.182948
-0.188378
-0.212327
-0.28893
-0.41393
-0.441566
-0.438695
-0.558721
-0.668426
-0.582725
-0.438059
-0.32534
-0.259288
-0.224008
-0.204288
-0.191779
-0.184284
-0.180164
-0.177793
-0.176323
-0.175375
-0.174764
-0.174384
-0.17417
-0.186844
-0.181776
-0.193547
-0.212956
-0.213024
-0.200183
-0.192348
-0.196292
-0.216491
-0.290254
-0.408686
-0.452715
-0.486009
-0.689608
-0.840012
-0.719894
-0.526491
-0.366346
-0.278586
-0.235944
-0.213963
-0.201933
-0.195267
-0.191537
-0.189374
-0.188072
-0.187274
-0.186794
-0.186526
-0.186408
-0.196628
-0.192582
-0.202497
-0.216927
-0.21709
-0.207639
-0.201411
-0.203424
-0.217441
-0.274267
-0.323898
-0.345112
-0.456175
-0.716995
-0.914259
-0.798569
-0.567823
-0.393603
-0.295515
-0.249716
-0.227637
-0.215964
-0.209439
-0.205642
-0.203359
-0.201955
-0.20109
-0.200574
-0.200291
-0.200171
-0.2071
-0.203767
-0.211882
-0.222432
-0.222632
-0.215687
-0.210434
-0.21015
-0.216306
-0.243262
-0.257001
-0.279781
-0.388872
-0.61261
-0.77732
-0.712171
-0.52627
-0.382666
-0.300353
-0.260379
-0.240892
-0.230419
-0.224337
-0.220624
-0.218282
-0.216782
-0.215824
-0.21523
-0.214887
-0.214722
-0.218314
-0.215407
-0.221851
-0.229422
-0.229597
-0.224467
-0.219786
-0.21725
-0.215795
-0.220902
-0.226257
-0.250531
-0.315963
-0.443256
-0.552267
-0.526396
-0.431582
-0.34787
-0.288221
-0.264505
-0.251093
-0.243137
-0.238152
-0.234909
-0.232753
-0.23131
-0.230349
-0.229725
-0.229342
-0.229136
-0.23033
-0.227591
-0.232536
-0.237846
-0.237958
-0.23414
-0.22987
-0.225681
-0.219198
-0.206078
-0.19322
-0.235158
-0.274227
-0.335984
-0.384123
-0.385516
-0.347309
-0.305761
-0.279743
-0.267101
-0.259202
-0.253924
-0.250302
-0.24778
-0.24601
-0.244772
-0.243915
-0.243334
-0.242956
-0.242729
-0.243223
-0.240428
-0.244059
-0.24766
-0.247704
-0.244878
-0.241084
-0.236254
-0.228518
-0.216899
-0.215068
-0.235503
-0.262221
-0.288959
-0.308421
-0.313857
-0.291994
-0.288439
-0.278673
-0.271938
-0.267154
-0.263716
-0.261223
-0.259407
-0.258081
-0.257118
-0.256425
-0.255933
-0.255592
-0.255364
-0.257077
-0.254037
-0.256525
-0.258832
-0.25883
-0.256832
-0.253736
-0.249324
-0.24294
-0.236315
-0.237034
-0.24803
-0.262844
-0.277228
-0.287749
-0.292315
-0.291336
-0.286703
-0.281809
-0.277993
-0.275157
-0.273054
-0.271487
-0.270315
-0.269435
-0.268774
-0.268278
-0.267908
-0.267632
-0.267429
-0.271995
-0.268552
-0.270035
-0.271341
-0.271337
-0.270124
-0.268005
-0.264824
-0.26074
-0.257697
-0.258988
-0.264895
-0.272654
-0.279993
-0.285375
-0.288095
-0.288457
-0.287385
-0.285858
-0.284432
-0.283268
-0.282359
-0.281659
-0.281119
-0.280699
-0.28037
-0.280111
-0.279903
-0.279736
-0.279599
-0.288092
-0.284121
-0.284682
-0.285169
-0.285207
-0.284816
-0.283938
-0.2825
-0.280851
-0.279935
-0.280669
-0.28282
-0.285445
-0.287836
-0.289598
-0.290801
-0.291474
-0.29182
-0.292013
-0.292152
-0.292273
-0.292381
-0.292473
-0.292546
-0.292597
-0.292628
-0.292642
-0.292642
-0.292628
-0.292605
-0.0904389
-0.0933054
-0.0988564
-0.108167
-0.119526
-0.132202
-0.13929
-0.147277
-0.144604
-0.140475
-0.141162
-0.142648
-0.140731
-0.12888
-0.110616
-0.0942377
-0.177923
-5.12383
13.3829
18.5878
-4.93409
6.24306
25.0736
20.922
21.5457
8.16375
2.97666
2.31575
0.917485
0.658674
-0.0916591
-0.0945452
-0.100093
-0.109597
-0.120665
-0.130067
-0.140857
-0.146761
-0.145398
-0.140685
-0.141645
-0.142235
-0.140233
-0.13033
-0.115082
-0.0886621
-0.130336
-3.32271
9.39696
15.5804
-3.21401
2.94146
22.8231
18.3723
20.5891
6.27535
0.978729
0.615693
-0.039711
-0.08208
-0.0926192
-0.0953399
-0.100673
-0.110056
-0.122108
-0.126691
-0.14069
-0.145252
-0.144946
-0.140026
-0.141379
-0.141924
-0.140083
-0.132077
-0.11988
-0.102669
-0.133409
-0.929365
2.15038
12.355
-2.85369
0.085232
20.3017
15.902
19.6504
4.14049
-0.0415602
0.168595
-0.0413904
-0.0839998
-0.0933923
-0.0958551
-0.100727
-0.109297
-0.126204
-0.0982444
-0.13981
-0.14296
-0.143608
-0.141045
-0.141118
-0.141735
-0.140299
-0.134163
-0.124981
-0.111727
-0.147208
0.931639
-8.16497
8.05202
-5.35497
-1.42834
17.8136
13.2375
18.7642
5.23207
-0.925861
-0.0632101
-0.0434151
-0.0862951
-0.0946655
-0.0966821
-0.100796
-0.107502
-0.112572
-0.122056
-0.137241
-0.139867
-0.141087
-0.140671
-0.140944
-0.141727
-0.140854
-0.136645
-0.130452
-0.0976266
-0.238699
-0.215014
-18.8641
5.02687
0.0753316
-0.891265
15.4882
13.1359
18.0094
-8.27547
-0.459643
0.0970049
-0.045778
-0.0886026
-0.0947735
-0.097519
-0.100985
-0.106204
-0.112092
-0.122482
-0.132594
-0.136629
-0.139255
-0.140002
-0.140877
-0.141941
-0.141772
-0.139498
-0.136468
-0.095494
-0.187117
-0.299382
0.345228
-7.00019
0.0344143
-0.361256
13.4889
13.0165
16.8394
-2.72428
-0.458084
0.0435715
-0.0485925
-0.0910527
-0.095598
-0.0968772
-0.100904
-0.105204
-0.110819
-0.119108
-0.127799
-0.133373
-0.13692
-0.139095
-0.140822
-0.142365
-0.14301
-0.142663
-0.14328
-0.114364
-0.404331
-0.335022
0.211527
-0.403065
-0.00105147
-0.661228
2.13329
10.8546
14.221
0.0224665
-0.404749
0.00978368
-0.0519242
-0.0936919
-0.0969379
-0.0980301
-0.101165
-0.104759
-0.109781
-0.116619
-0.12418
-0.13034
-0.13489
-0.138189
-0.140774
-0.142945
-0.144506
-0.146098
-0.15084
-0.186286
-0.353162
-0.363733
0.0358943
-0.284019
-0.0148476
-0.707121
-0.447416
7.9978
-4.34914
-0.229362
-0.381755
0.0018697
-0.0558356
-0.0965739
-0.0990224
-0.100166
-0.102188
-0.105295
-0.109673
-0.115452
-0.122058
-0.128249
-0.133417
-0.137539
-0.140883
-0.143727
-0.146269
-0.149776
-0.158381
-0.191285
-0.356159
-0.392767
-0.0976746
-0.207419
-0.0388886
-0.687374
-0.320399
2.39436
-0.644753
-0.214045
-0.370526
-0.0364532
-0.0604003
-0.0997394
-0.101429
-0.102425
-0.104155
-0.106821
-0.110594
-0.115532
-0.12132
-0.127227
-0.132635
-0.137291
-0.14125
-0.14475
-0.148278
-0.153613
-0.165296
-0.182212
-0.32381
-0.397601
-0.162443
-0.172607
-0.0833084
-0.600883
-0.269214
-0.126067
-0.413784
-0.203956
-0.326887
-0.0409846
-0.065664
-0.103217
-0.104699
-0.105512
-0.106972
-0.10924
-0.11246
-0.116685
-0.121749
-0.127214
-0.132579
-0.137509
-0.141922
-0.146008
-0.150461
-0.157497
-0.171654
-0.209747
-0.314184
-0.355402
-0.209602
-0.160047
-0.131532
-0.448738
-0.238032
-0.17953
-0.313521
-0.187302
-0.344652
-0.0679542
-0.0716617
-0.107039
-0.108742
-0.109369
-0.110558
-0.112445
-0.115156
-0.118749
-0.123151
-0.1281
-0.13323
-0.138215
-0.142905
-0.147457
-0.152709
-0.161303
-0.1782
-0.192038
-0.298998
-0.40069
-0.221579
-0.156449
-0.170218
-0.267484
-0.211064
-0.181808
-0.221464
-0.174192
-0.313249
-0.0849274
-0.0784249
-0.111249
-0.113485
-0.113918
-0.114835
-0.116355
-0.118588
-0.121604
-0.125385
-0.129783
-0.134547
-0.139403
-0.144187
-0.149031
-0.154887
-0.164818
-0.185382
-0.243787
-0.455073
-0.320241
-0.22075
-0.153944
-0.180664
-0.182178
-0.187229
-0.176054
-0.22347
-0.172535
-0.296902
-0.0987882
-0.0859472
-0.115875
-0.118865
-0.119096
-0.119743
-0.120909
-0.122696
-0.125177
-0.12837
-0.132199
-0.136504
-0.141074
-0.145758
-0.150676
-0.15686
-0.167677
-0.186984
-0.219834
-0.64342
-0.239489
-0.207878
-0.151552
-0.168563
-0.104558
-0.172495
-0.171412
-0.20448
-0.181098
-0.280755
-0.111888
-0.0941807
-0.120949
-0.124819
-0.124856
-0.125248
-0.126084
-0.127457
-0.129443
-0.132079
-0.135337
-0.139119
-0.143273
-0.147667
-0.152407
-0.15857
-0.169652
-0.186075
-0.262288
-0.569072
-0.259877
-0.188765
-0.145217
-0.155338
-0.071667
-0.170145
-0.17481
-0.19668
-0.190281
-0.264866
-0.124175
-0.103078
-0.12651
-0.131312
-0.131179
-0.131347
-0.131893
-0.1329
-0.13444
-0.136561
-0.139265
-0.142496
-0.146144
-0.150096
-0.154439
-0.160233
-0.17058
-0.183675
-0.173452
-0.490098
-0.251547
-0.17787
-0.143379
-0.144692
-0.123648
-0.169115
-0.177175
-0.194354
-0.197558
-0.247696
-0.135682
-0.112563
-0.132584
-0.138323
-0.13807
-0.13807
-0.138389
-0.139099
-0.140265
-0.14194
-0.144143
-0.146851
-0.149989
-0.153471
-0.15739
-0.162755
-0.172402
-0.184275
-0.16079
-0.292537
-0.220689
-0.172008
-0.134549
-0.137611
-0.134399
-0.169217
-0.180811
-0.194837
-0.20287
-0.233814
-0.146236
-0.122549
-0.139198
-0.145883
-0.145588
-0.145503
-0.145685
-0.146193
-0.147089
-0.148425
-0.150239
-0.152539
-0.155304
-0.158526
-0.162412
-0.168036
-0.178151
-0.192747
-0.198148
-0.228712
0.565227
-0.180027
-0.124136
-0.13415
-0.145263
-0.171787
-0.185195
-0.19713
-0.206776
-0.224442
-0.156099
-0.132938
-0.146363
-0.154143
-0.153897
-0.153824
-0.153972
-0.154393
-0.155144
-0.156289
-0.157886
-0.159996
-0.162692
-0.166135
-0.170815
-0.178164
-0.191307
-0.212428
-0.23434
-0.233768
0.659592